# vtk DataFile Version 4.2
vtk output
ASCII
DATASET POLYDATA
POINTS 3823 float
136.809 103.356 171.589 136.763 103.336 171.606 136.75 103.359 171.622 
136.85 103.294 171.603 155.265 93.5181 172.539 149.745 95.9727 172.397 
144.337 99.0094 171.943 144.406 98.6519 171.885 145.563 98.5136 172.177 
146.192 98.5264 172.421 143.284 99.0851 171.756 145.972 98.8973 172.502 
142.65 99.9894 171.882 142.918 100.292 172.146 140.009 101.453 171.834 
138.136 102.257 171.681 139.51 101.788 171.972 136.83 103.174 171.639 
136.535 103.351 171.69 136.974 103.143 171.676 134.577 104.112 171.765 
134.931 103.974 171.755 136.765 103.289 171.719 134.425 104.229 171.76 
134.638 104.098 171.806 135.2 103.879 171.791 165.77 87.7969 173.124 
166.013 87.7599 173.15 166.205 87.5671 173.176 165.871 88.055 173.208 
159.101 90.4764 172.601 157.631 91.0992 172.493 161.458 90.7418 172.973 
153.435 92.913 172.368 151.348 94.0342 172.318 152.335 93.8328 172.379 
153.835 93.6393 172.46 150.272 94.718 172.262 153.782 94.3408 172.65 
154.573 94.3209 172.763 145.438 96.1389 172.174 148.087 96.1509 172.297 
152.387 95.3452 172.747 147.365 97.3966 172.43 148.112 97.5725 172.714 
141.226 98.6632 171.775 142.745 98.5987 171.709 143.116 98.1309 171.773 
145.208 99.4512 172.493 137.39 101.688 171.686 141.813 100.953 172.281 
135.86 102.473 171.825 134.725 103.288 171.969 137.4 102.618 171.703 
138.687 102.198 172.008 139.16 102.022 172.372 134.918 103.596 171.848 
134.445 103.755 172.043 136.416 103.137 171.688 137.115 103.006 171.9 
133.367 104.204 172.054 133.283 104.198 172.087 133.834 104.231 171.913 
133.728 103.99 172.043 134.166 103.985 171.963 135.841 103.572 171.773 
136.34 103.392 171.933 133.33 104.198 172.084 133.448 104.284 172.007 
133.505 104.279 171.981 133.599 104.305 171.947 134.124 104.147 171.915 
135.504 103.752 171.875 182.941 81.1371 174.543 174.34 83.6477 173.794 
175.042 83.7136 173.862 173.446 84.8999 173.758 168.145 86.1948 173.392 
171.627 86.243 173.758 160.92 89.1827 172.765 155.482 89.9174 172.816 
160.746 91.7377 173.145 154.018 92.6886 172.407 148.2 94.7984 172.314 
153.542 95.9375 173.379 150.709 96.6662 172.89 149.228 97.8013 173.221 
138.447 98.9599 172.193 147.619 98.5194 173.176 144.971 99.8124 172.933 
134.794 102.288 172.146 141.267 101.238 172.413 138.235 102.331 172.708 
140.662 101.48 172.51 132.31 103.243 172.887 133.699 103.58 172.184 
134.145 103.488 172.125 133.237 104.136 172.142 133.136 103.896 172.324 
133.947 103.901 172.086 134.327 103.972 171.984 134.022 103.727 172.314 
134.757 103.839 172.076 134.515 103.656 172.41 133.703 104.067 172.106 
193.89 76.8105 175.373 191.887 77.8983 175.324 191.764 77.749 175.308 
191.949 78.0826 175.381 180.875 81.2693 174.398 177.688 81.4922 174.278 
179.324 81.8992 174.307 181.526 81.9892 174.523 173.945 82.6844 173.899 
177.631 83.0463 174.226 165.722 84.9015 173.68 172.523 83.2614 173.803 
168.036 84.8533 173.552 176.124 84.8104 174.206 163.095 85.7617 173.601 
174.27 85.7973 174.098 165.034 86.7227 173.221 172.861 86.3129 173.996 
157.617 88.202 173.156 160.514 87.2166 173.267 167.464 87.5455 173.494 
146.386 93.0906 173.057 158.262 93.3531 173.267 143.807 95.3335 172.571 
148.075 98.6595 173.657 146.103 99.4178 173.328 147.306 98.9614 173.543 
144.582 100.011 173.057 145.113 99.8285 173.286 143.067 100.605 173.044 
139.942 101.554 173.415 140.588 101.476 172.897 131.246 102.847 173.441 
131.253 102.884 173.413 131.464 102.818 173.362 131.292 102.738 173.486 
131.426 102.532 173.49 137.473 102.377 173.238 131.32 102.879 173.4 
131.46 102.86 173.417 131.822 103.036 173.277 133.696 103.878 172.287 
133.987 103.556 172.705 202.059 73.6611 176.134 200.504 74.8556 176.041 
200.289 74.9184 176.041 191.564 76.5738 175.348 181.532 78.9279 174.847 
183.202 79.3411 174.745 176.412 80.9118 174.413 169.227 82.9952 174.11 
180.673 82.9185 174.593 176.091 85.1134 174.292 174.156 86.5294 174.416 
150.769 88.9758 174.182 166.85 89.3641 173.962 139.205 96.1154 173.258 
154.215 96.605 174.076 151.033 97.9144 174.042 132.628 99.429 173.999 
146.193 99.5397 173.946 146.081 99.5726 174.177 130.449 101.606 174.434 
139.887 101.124 174.405 131.279 101.984 173.759 131.274 102.778 173.499 
131.231 102.472 173.756 131.638 102.847 173.52 212.095 70.6973 177.31 
211.992 70.8327 177.334 199.054 73.0967 176.127 200.242 73.5985 176.059 
200.527 73.0827 176.138 200.886 74.2558 176.084 195.664 75.6485 175.698 
200.614 75.3168 176.21 180.414 78.1869 175.212 183.866 77.4086 175.275 
176.889 78.5513 175.481 172.954 81.3916 174.44 166.079 83.1889 174.439 
179.143 84.2139 174.719 176.853 85.7942 174.82 172.469 87.9848 174.8 
132.538 97.5058 174.904 151.123 98.6147 175.005 130.681 99.4048 174.995 
145.798 99.4901 175.591 150.45 98.9483 175.357 130.257 100.369 175.002 
129.909 100.586 175.413 130.166 101.649 174.63 130.133 101.517 174.738 
130.106 101.619 174.687 130.134 101.238 174.877 135.267 101.892 174.731 
130.122 101.652 174.671 130.209 101.68 174.658 130.359 101.819 174.542 
130.595 101.919 174.473 131.143 102.187 174.271 213.594 69.9195 177.512 
213.54 69.7732 177.517 200.645 71.6367 176.582 206.035 70.5842 176.978 
210.32 70.4549 177.269 212.132 70.2788 177.346 198.868 71.7833 176.592 
204.872 72.0809 176.716 209.527 72.127 177.336 212.698 70.8903 177.509 
204.344 73.3549 176.694 205.234 73.4938 176.885 196.603 76.9269 176.04 
200.699 76.1024 176.562 170.281 79.3369 176.254 185.552 81.3686 175.247 
189.744 80.5064 175.882 157.158 84.7707 175.34 148.051 87.0929 176.23 
127.826 98.9549 177.089 127.863 98.6814 177.12 148.118 99.2911 176.11 
149.957 99.3002 176.024 127.968 99.0654 177.119 128.634 99.4457 176.529 
129.203 99.7273 176.016 130.129 101.593 174.725 129.208 99.9355 176.242 
130.225 101.418 174.887 130.498 101.164 175.326 129.863 100.373 176.139 
223.305 66.9664 178.539 225.739 67.1593 178.917 228.42 66.6383 179.329 
211.6 68.3633 177.703 216.372 68.0819 177.97 220.611 67.3358 178.352 
212.313 69.2777 177.496 213.824 69.2855 177.62 220.661 68.5831 178.462 
198.573 70.7109 177.178 213.84 70.4649 177.677 211.943 71.7682 177.638 
192.258 72.8642 176.702 187.277 73.9938 176.745 174.814 77.392 176.75 
192.984 79.4289 176.151 176.999 88.4073 176.641 154.948 98.2929 175.841 
126.622 97.7258 178.379 127.63 98.0468 177.404 149.1 99.5076 176.934 
127.795 98.9168 177.182 127.629 98.6061 177.532 132.546 100.149 177.038 
149.884 99.6656 176.911 150.142 100.149 177.72 151.91 99.9729 176.884 
152.839 99.6156 176.543 130.965 100.55 176.385 150.804 100.575 177.88 
150.68 100.945 178.367 151.586 100.631 177.623 128.496 99.4467 176.961 
228.668 64.1718 179.428 219.948 65.2922 178.766 222.777 64.8993 178.818 
225.255 65.2729 178.869 229.337 64.863 179.422 214.032 66.068 178.641 
218.572 66.2219 178.476 219.003 65.5177 178.714 220.122 66.7608 178.377 
229.212 66.1546 179.445 228.2 67.6531 179.662 229.428 66.8568 179.696 
203.584 69.153 177.609 198.681 69.485 178.002 220.951 69.8659 178.888 
216.782 70.7482 178.387 179.785 74.502 178.054 199.861 78.8179 177.831 
193.286 81.851 177.729 143.715 86.6535 177.965 139.636 88.6265 177.847 
126.905 95.145 178.653 128.755 95.5108 177.568 126.154 97.1838 178.677 
147.347 99.1155 178.1 142.549 99.081 177.501 146.56 99.0173 177.865 
147.77 99.2483 177.957 155.464 100.06 177.467 154.02 100.896 177.773 
150.761 102.208 179.344 152.299 102.656 178.962 234.183 63.2687 180.355 
235.049 63.1594 180.499 231.248 64.1675 179.857 211.196 64.9142 179.641 
208.614 66.1394 179.039 231.513 65.4222 179.998 203.823 66.7128 179.314 
230.852 66.3006 180.03 211.367 74.6594 178.992 156.556 80.9589 178.81 
197.036 81.6996 178.889 151.934 82.375 178.933 188.221 86.3975 179.222 
131.508 91.6625 178.69 124.113 95.7618 180.523 123.913 95.6734 180.79 
124.544 95.9987 180.168 125.075 96.5958 180.096 125.353 96.645 179.598 
143.55 98.2642 179.182 149.285 99.9621 178.329 157 103.009 179.017 
157 103.009 179.017 157 103.009 179.017 157 103.009 179.017 
152.621 103.592 179.436 157 103.009 179.017 150.086 104.237 180.93 
153.111 104.201 179.811 151.39 105.699 180.795 239.682 60.8966 181.522 
241.562 61.1132 181.963 241.943 61.152 182.129 229.358 62.1431 180.279 
231.78 61.5679 180.597 236.872 61.9464 180.902 240.419 61.9438 181.763 
238.601 62.5204 181.315 237.354 63.5917 181.069 225.037 70.0712 180.054 
219.781 72.5016 180.174 212.714 74.3665 179.234 209.062 75.9327 179.079 
124.613 95.1236 180.078 123.737 95.5291 181.133 146.691 98.6676 179.821 
147.878 99.2867 179.406 125.599 96.9157 180.09 127.835 98.0777 179.207 
128.583 98.2215 179.2 149.511 102.919 181.015 157 103.009 179.017 
150.443 107.269 181.917 150.926 108.688 182.28 237.154 59.0614 181.86 
238.789 59.1044 181.89 235.538 60.2099 181.277 246.271 59.1292 183.205 
222.507 61.3791 181.12 225.404 61.2529 180.961 241.816 60.6822 182.083 
245.391 59.8115 183.157 217.687 62.303 180.951 242.35 61.6826 182.475 
230.362 68.2065 180.854 227.116 69.51 180.394 173.997 73.4734 180.966 
168.196 75.4931 180.668 208.281 77.3361 179.796 124.257 93.2873 180.977 
123.338 93.6644 181.541 123.2 94.4963 181.628 123.942 95.7481 181.162 
123.952 95.6645 181.514 148.329 99.7993 180.139 149.392 105.085 181.985 
153.731 107.2 181.702 149.48 106.839 182.449 149.788 108.667 182.805 
152.196 108.789 182.251 150.168 109.29 182.804 150.49 110.205 183.083 
251.721 55.7392 183.636 251.678 55.7156 183.671 251.752 55.7293 183.634 
247.625 56.7312 183.39 249.037 56.4403 183.605 249.768 56.7389 183.758 
250.272 56.5199 183.838 250.253 56.3078 183.764 243.474 58.3563 182.669 
245.262 58.0689 182.914 247.056 57.6401 183.213 248.312 57.467 183.482 
250.503 56.4573 183.942 243.143 59.0903 182.521 244.835 58.7848 182.808 
249.102 57.5359 183.83 244.546 60.2409 183.02 247.401 58.969 183.763 
244.756 60.728 183.33 191.01 68.001 181.537 220.887 73.9582 181.736 
202.03 83.7063 182.466 127.823 89.6439 181.546 122.988 92.4787 182.253 
[...]
POINT_DATA 3823
SCALARS scalars float
LOOKUP_TABLE default
1 1 1 1 1 1 1 1 1 
1 1 1 1 1 1 1 1 1 
1 1 1 1 1 1 1 1 1 
1 1 1 1 1 1 1 1 1 
1 1 1 1 1 1 1 1 1 
1 1 1 1 1 1 1 1 1 
1 1 1 1 1 1 1 1 1 
1 1 1 1 1 1 1 1 1 
1 1 1 1 1 1 1 1 1 
1 1 1 1 1 1 1 1 1 
1 1 1 1 1 1 1 1 1 
1 1 1 1 1 1 1 1 1 
1 1 1 1 1 1 1 1 1 
1 1 1 1 1 1 1 1 1 
1 1 1 1 1 1 1 1 1 
1 1 1 1 1 1 1 1 1 
1 1 1 1 1 1 1 1 1 
1 1 1 1 1 1 1 1 1 
1 1 1 1 1 1 1 1 1 
1 1 1 1 1 1 1 1 1 
1 1 1 1 1 1 1 1 1 
1 1 1 1 1 1 1 1 1 
1 1 1 1 1 1 1 1 1 
1 1 1 1 1 1 1 1 1 
1 1 1 1 1 1 1 1 1 
1 1 1 1 1 1 1 1 1 
1 1 1 1 1 1 1 1 1 
1 1 1 1 1 1 1 1 1 
1 1 1 1 1 1 1 1 1 
1 1 1 1 1 1 1 1 1 
1 1 1 1 1 1 1 1 1 
1 1 1 1 1 1 1 1 1 
1 1 1 1 1 1 1 1 1 
1 1 1 1 1 1 1 1 1 
1 1 1 1 1 1 1 1 1 
1 1 1 1 1 1 1 1 1 
1 1 1 1 1 1 1 1 1 
1 1 1 1 1 1 1 1 1 
1 1 1 1 1 1 1 1 1 
1 1 1 1 1 1 1 1 1 
1 1 1 1 1 1 1 1 1 
1 1 1 1 1 1 1 1 1 
1 1 1 1 1 1 1 1 1 
1 1 1 1 1 1 1 1 1 
1 1 1 1 1 1 1 1 1 
1 1 1 1 1 1 1 1 1 
1 1 1 1 1 1 1 1 1 
1 1 1 1 1 1 1 1 1 
1 1 1 1 1 1 1 1 1 
1 1 1 1 1 1 1 1 1 
1 1 1 1 1 1 1 1 1 
1 1 1 1 1 1 1 1 1 
1 1 1 1 1 1 1 1 1 
1 1 1 1 1 1 1 1 1 
1 1 1 1 1 1 1 1 1 
1 1 1 1 1 1 1 1 1 
1 1 1 1 1 1 1 1 1 
1 1 1 1 1 1 1 1 1 
1 1 1 1 1 1 1 1 1 
1 1 1 1 1 1 1 1 1 
1 1 1 1 1 1 1 1 1 
1 1 1 1 1 1 1 1 1 
1 1 1 1 1 1 1 1 1 
1 1 1 1 1 1 1 1 1 
1 1 1 1 1 1 1 1 1 
1 1 1 1 1 1 1 1 1 
1 1 1 1 1 1 1 1 1 
1 1 1 1 1 1 1 1 1 
1 1 1 1 1 1 1 1 1 
1 1 1 1 1 1 1 1 1 
1 1 1 1 1 1 1 1 1 
1 1 1 1 1 1 1 1 1 
1 1 1 1 1 1 1 1 1 
1 1 1 1 1 1 1 1 1 
1 1 1 1 1 1 1 1 1 
1 1 1 1 1 1 1 1 1 
1 1 1 1 1 1 1 1 1 
1 1 1 1 1 1 1 1 1 
1 1 1 1 1 1 1 1 1 
1 1 1 1 1 1 1 1 1 
1 1 1 1 1 1 1 1 1 
1 1 1 1 1 1 1 1 1 
1 1 1 1 1 1 1 1 1 
1 1 1 1 1 1 1 1 1 
1 1 1 1 1 1 1 1 1 
1 1 1 1 1 1 1 1 1 
1 1 1 1 1 1 1 1 1 
1 1 1 1 1 1 1 1 1 
1 1 1 1 1 1 1 1 1 
1 1 1 1 1 1 1 1 1 
1 1 1 1 1 1 1 1 1 
1 1 1 1 1 1 1 1 1 
1 1 1 1 1 1 1 1 1 
1 1 1 1 1 1 1 1 1 
1 1 1 1 1 1 1 1 1 
1 1 1 1 1 1 1 1 1 
1 1 1 1 1 1 1 1 1 
1 1 1 1 1 1 1 1 1 
1 1 1 1 1 1 1 1 1 
1 1 1 1 1 1 1 1 1 
1 1 1 1 1 1 1 1 1 
1 1 1 1 1 1 1 1 1 
1 1 1 1 1 1 1 1 1 
1 1 1 1 1 1 1 1 1 
1 1 1 1 1 1 1 1 1 
1 1 1 1 1 1 1 1 1 
1 1 1 1 1 1 1 1 1 
1 1 1 1 1 1 1 1 1 
1 1 1 1 1 1 1 1 1 
1 1 1 1 1 1 1 1 1 
1 1 1 1 1 1 1 1 1 
1 1 1 1 1 1 1 1 1 
1 1 1 1 1 1 1 1 1 
1 1 1 1 1 1 1 1 1 
1 1 1 1 1 1 1 1 1 
1 1 1 1 1 1 1 1 1 
1 1 1 1 1 1 1 1 1 
1 1 1 1 1 1 1 1 1 
1 1 1 1 1 1 1 1 1 
1 1 1 1 1 1 1 1 1 
1 1 1 1 1 1 1 1 1 
1 1 1 1 1 1 1 1 1 
1 1 1 1 1 1 1 1 1 
1 1 1 1 1 1 1 1 1 
1 1 1 1 1 1 1 1 1 
1 1 1 1 1 1 1 1 1 
1 1 1 1 1 1 1 1 1 
1 1 1 1 1 1 1 1 1 
1 1 1 1 1 1 1 1 1 
1 1 1 1 1 1 1 1 1 
1 1 1 1 1 1 1 1 1 
1 1 1 1 1 1 1 1 1 
1 1 1 1 1 1 1 1 1 
1 1 1 1 1 1 1 1 1 
1 1 1 1 1 1 1 1 1 
1 1 1 1 1 1 1 1 1 
1 1 1 1 1 1 1 1 1 
1 1 1 1 1 1 1 1 1 
1 1 1 1 1 1 1 1 1 
1 1 1 1 1 1 1 1 1 
1 1 1 1 1 1 1 1 1 
1 1 1 1 1 1 1 1 1 
1 1 1 1 1 1 1 1 1 
1 1 1 1 1 1 1 1 1 
1 1 1 1 1 1 1 1 1 
1 1 1 1 1 1 1 1 1 
1 1 1 1 1 1 1 1 1 
1 1 1 1 1 1 1 1 1 
1 1 1 1 1 1 1 1 1 
1 1 1 1 1 1 1 1 1 
1 1 1 1 1 1 1 1 1 
1 1 1 1 1 1 1 1 1 
1 1 1 1 1 1 1 1 1 
1 1 1 1 1 1 1 1 1 
1 1 1 1 1 1 1 1 1 
1 1 1 1 1 1 1 1 1 
1 1 1 1 1 1 1 1 1 
1 1 1 1 1 1 1 1 1 
1 1 1 1 1 1 1 1 1 
1 1 1 1 1 1 1 1 1 
1 1 1 1 1 1 1 1 1 
1 1 1 1 1 1 1 1 1 
1 1 1 1 1 1 1 1 1 
1 1 1 1 1 1 1 1 1 
1 1 1 1 1 1 1 1 1 
1 1 1 1 1 1 1 1 1 
1 1 1 1 1 1 1 1 1 
1 1 1 1 1 1 1 1 1 
1 1 1 1 1 1 1 1 1 
1 1 1 1 1 1 1 1 1 
1 1 1 1 1 1 1 1 1 
1 1 1 1 1 1 1 1 1 
1 1 1 1 1 1 1 1 1 
1 1 1 1 1 1 1 1 1 
1 1 1 1 1 1 1 1 1 
1 1 1 1 1 1 1 1 1 
1 1 1 1 1 1 1 1 1 
1 1 1 1 1 1 1 1 1 
1 1 1 1 1 1 1 1 1 
1 1 1 1 1 1 1 1 1 
1 1 1 1 1 1 1 1 1 
1 1 1 1 1 1 1 1 1 
1 1 1 1 1 1 1 1 1 
1 1 1 1 1 1 1 1 1 
1 1 1 1 1 1 1 1 1 
1 1 1 1 1 1 1 1 1 
1 1 1 1 1 1 1 1 1 
1 1 1 1 1 1 1 1 1 
1 1 1 1 1 1 1 1 1 
1 1 1 1 1 1 1 1 1 
1 1 1 1 1 1 1 1 1 
1 1 1 1 1 1 1 1 1 
1 1 1 1 1 1 1 1 1 
1 1 1 1 1 1 1 1 1 
1 1 1 1 1 1 1 1 1 
1 1 1 1 1 1 1 1 1 
1 1 1 1 1 1 1 1 1 
1 1 1 1 1 1 1 1 1 
1 1 1 1 1 1 1 1 1 
1 1 1 1 1 1 1 1 1 
1 1 1 1 1 1 1 1 1 
1 1 1 1 1 1 1 1 1 
1 1 1 1 1 1 1 1 1 
1 1 1 1 1 1 1 1 1 
1 1 1 1 1 1 1 1 1 
1 1 1 1 1 1 1 1 1 
1 1 1 1 1 1 1 1 1 
1 1 1 1 1 1 1 1 1 
1 1 1 1 1 1 1 1 1 
1 1 1 1 1 1 1 1 1 
1 1 1 1 1 1 1 1 1 
1 1 1 1 1 1 1 1 1 
1 1 1 1 1 1 1 1 1 
1 1 1 1 1 1 1 1 1 
1 1 1 1 1 1 1 1 1 
1 1 1 1 1 1 1 1 1 
1 1 1 1 1 1 1 1 1 
1 1 1 1 1 1 1 1 1 
1 1 1 1 1 1 1 1 1 
1 1 1 1 1 1 1 1 1 
1 1 1 1 1 1 1 1 1 
1 1 1 1 1 1 1 1 1 
1 1 1 1 1 1 1 1 1 
1 1 1 1 1 1 1 1 1 
1 1 1 1 1 1 1 1 1 
1 1 1 1 1 1 1 1 1 
1 1 1 1 1 1 1 1 1 
1 1 1 1 1 1 1 1 1 
1 1 1 1 1 1 1 1 1 
1 1 1 1 1 1 1 1 1 
1 1 1 1 1 1 1 1 1 
1 1 1 1 1 1 1 1 1 
1 1 1 1 1 1 1 1 1 
1 1 1 1 1 1 1 1 1 
1 1 1 1 1 1 1 1 1 
1 1 1 1 1 1 1 1 1 
1 1 1 1 1 1 1 1 1 
1 1 1 1 1 1 1 1 1 
1 1 1 1 1 1 1 1 1 
1 1 1 1 1 1 1 1 1 
1 1 1 1 1 1 1 1 1 
1 1 1 1 1 1 1 1 1 
1 1 1 1 1 1 1 1 1 
1 1 1 1 1 1 1 1 1 
1 1 1 1 1 1 1 1 1 
1 1 1 1 1 1 1 1 1 
1 1 1 1 1 1 1 1 1 
1 1 1 1 1 1 1 1 1 
1 1 1 1 1 1 1 1 1 
1 1 1 1 1 1 1 1 1 
1 1 1 1 1 1 1 1 1 
1 1 1 1 1 1 1 1 1 
1 1 1 1 1 1 1 1 1 
1 1 1 1 1 1 1 1 1 
1 1 1 1 1 1 1 1 1 
1 1 1 1 1 1 1 1 1 
1 1 1 1 1 1 1 1 1 
1 1 1 1 1 1 1 1 1 
1 1 1 1 1 1 1 1 1 
1 1 1 1 1 1 1 1 1 
1 1 1 1 1 1 1 1 1 
1 1 1 1 1 1 1 1 1 
1 1 1 1 1 1 1 1 1 
1 1 1 1 1 1 1 1 1 
1 1 1 1 1 1 1 1 1 
1 1 1 1 1 1 1 1 1 
1 1 1 1 1 1 1 1 1 
1 1 1 1 1 1 1 1 1 
1 1 1 1 1 1 1 1 1 
1 1 1 1 1 1 1 1 1 
1 1 1 1 1 1 1 1 1 
1 1 1 1 1 1 1 1 1 
1 1 1 1 1 1 1 1 1 
1 1 1 1 1 1 1 1 1 
1 1 1 1 1 1 1 1 1 
1 1 1 1 1 1 1 1 1 
1 1 1 1 1 1 1 1 1 
1 1 1 1 1 1 1 1 1 
1 1 1 1 1 1 1 1 1 
1 1 1 1 1 1 1 1 1 
1 1 1 1 1 1 1 1 1 
1 1 1 1 1 1 1 1 1 
1 1 1 1 1 1 1 1 1 
1 1 1 1 1 1 1 1 1 
1 1 1 1 1 1 1 1 1 
1 1 1 1 1 1 1 1 1 
1 1 1 1 1 1 1 1 1 
1 1 1 1 1 1 1 1 1 
1 1 1 1 1 1 1 1 1 
1 1 1 1 1 1 1 1 1 
1 1 1 1 1 1 1 1 1 
1 1 1 1 1 1 1 1 1 
1 1 1 1 1 1 1 1 1 
1 1 1 1 1 1 1 1 1 
1 1 1 1 1 1 1 1 1 
1 1 1 1 1 1 1 1 1 
1 1 1 1 1 1 1 1 1 
1 1 1 1 1 1 1 1 1 
1 1 1 1 1 1 1 1 1 
1 1 1 1 1 1 1 1 1 
1 1 1 1 1 1 1 1 1 
1 1 1 1 1 1 1 1 1 
1 1 1 1 1 1 1 1 1 
1 1 1 1 1 1 1 1 1 
1 1 1 1 1 1 1 1 1 
1 1 1 1 1 1 1 1 1 
1 1 1 1 1 1 1 1 1 
1 1 1 1 1 1 1 1 1 
1 1 1 1 1 1 1 1 1 
1 1 1 1 1 1 1 1 1 
1 1 1 1 1 1 1 1 1 
1 1 1 1 1 1 1 1 1 
1 1 1 1 1 1 1 1 1 
1 1 1 1 1 1 1 1 1 
1 1 1 1 1 1 1 1 1 
1 1 1 1 1 1 1 1 1 
1 1 1 1 1 1 1 1 1 
1 1 1 1 1 1 1 1 1 
1 1 1 1 1 1 1 1 1 
1 1 1 1 1 1 1 1 1 
1 1 1 1 1 1 1 1 1 
1 1 1 1 1 1 1 1 1 
1 1 1 1 1 1 1 1 1 
1 1 1 1 1 1 1 1 1 
1 1 1 1 1 1 1 1 1 
1 1 1 1 1 1 1 1 1 
1 1 1 1 1 1 1 1 1 
1 1 1 1 1 1 1 1 1 
1 1 1 1 1 1 1 1 1 
1 1 1 1 1 1 1 1 1 
1 1 1 1 1 1 1 1 1 
1 1 1 1 1 1 1 1 1 
1 1 1 1 1 1 1 1 1 
1 1 1 1 1 1 1 1 1 
1 1 1 1 1 1 1 1 1 
1 1 1 1 1 1 1 1 1 
1 1 1 1 1 1 1 1 1 
1 1 1 1 1 1 1 1 1 
1 1 1 1 1 1 1 1 1 
1 1 1 1 1 1 1 1 1 
1 1 1 1 1 1 1 1 1 
1 1 1 1 1 1 1 1 1 
1 1 1 1 1 1 1 1 1 
1 1 1 1 1 1 1 1 1 
1 1 1 1 1 1 1 1 1 
1 1 1 1 1 1 1 1 1 
1 1 1 1 1 1 1 1 1 
1 1 1 1 1 1 1 1 1 
1 1 1 1 1 1 1 1 1 
1 1 1 1 1 1 1 1 1 
1 1 1 1 1 1 1 1 1 
1 1 1 1 1 1 1 1 1 
1 1 1 1 1 1 1 1 1 
1 1 1 1 1 1 1 1 1 
1 1 1 1 1 1 1 1 1 
1 1 1 1 1 1 1 1 1 
1 1 1 1 1 1 1 1 1 
1 1 1 1 1 1 1 1 1 
1 1 1 1 1 1 1 1 1 
1 1 1 1 1 1 1 1 1 
1 1 1 1 1 1 1 1 1 
1 1 1 1 1 1 1 1 1 
1 1 1 1 1 1 1 1 1 
1 1 1 1 1 1 1 1 1 
1 1 1 1 1 1 1 1 1 
1 1 1 1 1 1 1 1 1 
1 1 1 1 1 1 1 1 1 
1 1 1 1 1 1 1 1 1 
1 1 1 1 1 1 1 1 1 
1 1 1 1 1 1 1 1 1 
1 1 1 1 1 1 1 1 1 
1 1 1 1 1 1 1 1 1 
1 1 1 1 1 1 1 1 1 
1 1 1 1 1 1 1 1 1 
1 1 1 1 1 1 1 1 1 
1 1 1 1 1 1 1 1 1 
1 1 1 1 1 1 1 1 1 
1 1 1 1 1 1 1 1 1 
1 1 1 1 1 1 1 1 1 
1 1 1 1 1 1 1 1 1 
1 1 1 1 1 1 1 1 1 
1 1 1 1 1 1 1 1 1 
1 1 1 1 1 1 1 1 1 
1 1 1 1 1 1 1 1 1 
1 1 1 1 1 1 1 1 1 
1 1 1 1 1 1 1 1 1 
1 1 1 1 1 1 1 1 1 
1 1 1 1 1 1 1 1 1 
1 1 1 1 1 1 1 1 1 
1 1 1 1 1 1 1 1 1 
1 1 1 1 1 1 1 1 1 
1 1 1 1 1 1 1 1 1 
1 1 1 1 1 1 1 1 1 
1 1 1 1 1 1 1 1 1 
1 1 1 1 1 1 1 1 1 
1 1 1 1 1 1 1 1 1 
1 1 1 1 1 1 1 1 1 
1 1 1 1 1 1 1 1 1 
1 1 1 1 1 1 1 1 1 
1 1 1 1 1 1 1 1 1 
1 1 1 1 1 1 1 1 1 
1 1 1 1 1 1 1 1 1 
1 1 1 1 1 1 1 1 1 
1 1 1 1 1 1 1 1 1 
1 1 1 1 1 1 1 1 1 
1 1 1 1 1 1 1 1 1 
1 1 1 1 1 1 1 1 1 
1 1 1 1 1 1 1 1 1 
1 1 1 1 1 1 1 1 1 
1 1 1 1 1 1 1 1 1 
1 1 1 1 1 1 1 1 1 
1 1 1 1 1 1 1 1 1 
1 1 1 1 1 1 1 1 1 
1 1 1 1 1 1 1 1 1 
1 1 1 1 1 1 1 1 1 
1 1 1 1 1 1 1 1 1 
1 1 1 1 1 1 1 1 1 
1 1 1 1 1 1 1 1 1 
1 1 1 1 1 1 1 1 1 
1 1 1 1 1 1 1 1 1 
1 1 1 1 1 1 1 1 1 
1 1 1 1 1 1 1 1 1 
1 1 1 1 1 1 1 1 1 
1 1 1 1 1 1 1 1 1 
1 1 1 1 1 1 1 
NORMALS Normals float
0.421894 0.769643 -0.479223 -0.305326 -0.0204375 -0.952029 -0.10255 0.967238 -0.232239 
0.183529 -0.141794 -0.972734 0.139944 0.233329 -0.962275 0.119788 0.24381 -0.962397 
0.22841 0.23679 -0.94433 0.222468 0.144692 -0.964143 0.274548 0.256696 -0.926677 
0.394315 0.479397 -0.784024 0.148739 0.184694 -0.971476 0.421416 0.555757 -0.71662 
0.190966 0.239013 -0.952053 0.350078 0.673647 -0.65088 0.284094 0.537914 -0.793687 
0.206686 0.376792 -0.902945 0.371809 0.87656 -0.305614 -0.0465711 -0.146857 -0.988061 
-0.0318859 0.707067 -0.706427 0.728055 0.544155 -0.416932 -0.0529071 -0.0153523 -0.998481 
0.192668 0.528525 -0.826765 0.396949 0.834755 0.381596 0.136458 0.345522 -0.928436 
0.346467 0.894388 0.282898 0.357349 0.828962 -0.430261 -0.194686 0.219163 -0.956067 
0.199479 0.105738 -0.97418 0.236575 0.16932 -0.956746 0.0307109 0.278381 -0.95998 
0.0877058 0.0540569 -0.994679 0.0570495 -0.000275268 -0.998371 0.164764 0.140829 -0.976227 
-0.0105541 0.0376904 -0.999234 0.05931 0.0033563 -0.998234 0.0382224 -0.031504 -0.998773 
0.0790132 0.176422 -0.981138 0.0759252 -0.00362691 -0.997107 0.0766257 0.315961 -0.945673 
0.201149 0.350422 -0.914737 0.0449032 -0.132918 -0.990109 0.117995 0.19049 -0.974572 
0.148098 0.363364 -0.919801 0.183375 0.236291 -0.954222 0.316656 0.462605 -0.828086 
-0.100771 -0.039239 -0.994136 0.0785128 0.180381 -0.980458 0.00163584 -0.115587 -0.993296 
0.419789 0.608429 -0.673492 -0.092823 -0.132298 -0.986854 0.39743 0.881858 -0.253725 
-0.170233 -0.0921037 -0.98109 -0.219419 -0.00585169 -0.975613 0.230371 0.284009 -0.930735 
0.408519 0.865158 -0.290884 0.335694 0.925114 0.177408 -0.2735 -0.256245 -0.927112 
-0.708056 0.46428 -0.532072 -0.0781559 0.0171386 -0.996794 0.516636 0.852559 0.0789298 
-0.421286 -0.0903155 -0.90242 -0.299668 -0.492914 -0.816844 -0.236456 -0.357678 -0.903413 
-0.210822 -0.438908 -0.87345 -0.162755 -0.614797 -0.771709 0.294644 0.782354 -0.548732 
0.340631 0.906718 0.248662 -0.208613 0.917253 0.339304 -0.416654 0.0273691 -0.908653 
-0.386749 -0.0935838 -0.917424 -0.325459 -0.0272275 -0.945164 0.246293 0.663085 0.706865 
0.33787 0.89192 0.300538 0.103434 0.0121447 -0.994562 0.0913096 -0.0022989 -0.99582 
0.197708 -0.0701141 -0.97775 0.052387 0.175349 -0.983112 0.15143 -0.0020989 -0.988466 
0.156351 0.232981 -0.95983 0.0701707 -0.0658021 -0.995362 -0.0608076 -0.225521 -0.972339 
0.173812 0.294466 -0.939723 0.10095 0.0414514 -0.994028 -0.0425224 -0.0920463 -0.994846 
0.1855 0.529765 -0.82761 0.234803 0.413881 -0.879528 0.230593 0.522251 -0.821024 
-0.183111 -0.17317 -0.96772 0.370379 0.607868 -0.702364 0.432348 0.840631 -0.326212 
-0.293679 -0.23391 -0.926843 0.383487 0.90626 -0.177852 0.38765 0.879747 0.275269 
0.292927 0.919752 -0.261246 -0.542559 0.0845123 -0.835756 -0.196129 -0.102519 -0.975204 
-0.245373 0.239884 -0.93928 -0.299844 -0.49268 -0.816921 -0.417754 -0.280773 -0.864088 
-0.0639053 -0.533074 -0.843652 0.00700678 -0.830529 -0.556931 0.266493 0.947348 0.177522 
0.0338199 0.727075 0.685725 0.0845513 0.886389 0.455154 0.245809 0.579522 0.777002 
0.192308 0.190393 -0.962688 0.00682452 0.140455 -0.990064 -0.102834 0.139759 -0.984831 
0.0370231 0.37372 -0.926802 0.110756 -0.0102832 -0.993794 0.0443266 -0.145834 -0.988316 
0.0126162 -0.0338524 -0.999347 0.148553 0.106841 -0.983116 0.177645 -0.343125 -0.922338 
0.096127 0.0107995 -0.99531 -0.209082 -0.313866 -0.92616 -0.0431399 -0.168028 -0.984838 
0.00153785 -0.259159 -0.965834 0.184897 0.175667 -0.96693 -0.0459618 -0.228242 -0.972519 
0.140536 0.257315 -0.956054 -0.21334 -0.100812 -0.971763 0.122673 0.269403 -0.955182 
-0.0945917 -0.335185 -0.937392 -0.0931662 -0.378527 -0.920889 0.401763 0.311518 -0.861129 
-0.131969 -0.347479 -0.928355 0.258357 0.441781 -0.859117 -0.225285 -0.455273 -0.861379 
0.310072 0.546076 -0.778239 0.341064 0.881384 -0.326859 0.331005 0.740323 -0.585114 
0.303233 0.952757 0.0174133 0.382689 0.912201 -0.14642 0.352416 0.934721 -0.0458285 
0.239481 0.910719 0.336511 0.401098 0.896712 0.18716 -0.981223 -0.192648 -0.0093507 
-0.490878 0.749123 -0.444808 -0.352387 0.0813036 -0.932316 -0.657529 -0.42809 -0.619995 
-0.521021 -0.307161 -0.796359 0.33688 0.791149 0.510486 0.0429376 0.805954 -0.590418 
-0.185877 0.951657 0.244538 -0.242443 0.918509 0.31235 0.263653 0.767371 0.58449 
0.136344 0.843085 0.52021 0.144995 -0.0165573 -0.989294 0.17491 0.155936 -0.972158 
0.0453543 0.178029 -0.982979 -0.0121196 -0.14786 -0.988934 0.00456378 -0.283163 -0.959061 
0.102606 -0.113102 -0.988271 -0.0333374 -0.295367 -0.954802 -0.0218288 -0.362226 -0.931835 
0.17405 0.279996 -0.944092 0.239073 0.431335 -0.869939 0.234234 0.460204 -0.856356 
-0.238822 -0.541264 -0.806224 0.310773 0.433679 -0.845779 -0.218762 -0.428844 -0.876491 
0.26188 0.598832 -0.756848 0.154717 0.653382 -0.741049 -0.393587 -0.413251 -0.821166 
0.161288 0.974214 -0.157777 0.147784 0.987973 -0.0454876 -0.580942 -0.2637 -0.770045 
0.261852 0.880713 0.394687 -0.595322 -0.202266 -0.777612 -0.628303 0.429311 0.64879 
-0.829995 0.543816 -0.123986 0.027046 0.731858 0.680921 0.060438 0.0549315 -0.996659 
0.0114953 0.169461 -0.98547 -0.0564576 -0.148709 -0.987268 -0.0248726 -0.134772 -0.990564 
0.0351393 -0.190991 -0.980963 0.122474 0.021111 -0.992247 0.215609 0.164288 -0.96256 
0.200709 0.293239 -0.934734 -0.0266868 -0.420745 -0.906787 -0.0349327 -0.388177 -0.920922 
-0.115909 -0.537622 -0.835181 0.0189567 -0.46961 -0.88267 -0.199644 -0.455813 -0.867396 
0.219875 0.304228 -0.926877 0.247245 0.449844 -0.858202 0.274894 0.622718 -0.732568 
-0.356332 -0.4116 -0.838816 0.136923 0.816295 -0.561173 -0.47812 -0.515592 -0.711032 
0.0655609 0.988466 0.136515 -0.0294023 0.835695 -0.548406 -0.638412 -0.173913 -0.749789 
-0.85752 0.508755 -0.0763343 -0.728433 0.223189 -0.647743 -0.972721 -0.208429 -0.101844 
-0.994778 0.0349636 -0.0958858 -0.953551 -0.000667496 -0.301232 0.163376 0.766886 0.62064 
-0.617359 0.780123 0.101374 -0.277931 0.846683 0.453743 -0.375938 0.825529 0.420919 
-0.200644 0.784152 0.587238 -0.0803729 0.785218 0.613981 0.344628 -0.05627 -0.937051 
0.411184 -0.147326 -0.899568 -0.0441484 -0.35934 -0.932162 0.0159787 -0.278667 -0.960255 
0.0511381 0.0199178 -0.998493 0.0518598 -0.1036 -0.993266 -0.175403 -0.409646 -0.895223 
0.090909 -0.106383 -0.990161 0.157658 0.218461 -0.963026 0.235009 0.198434 -0.951522 
0.241429 0.232048 -0.942266 0.16496 0.338829 -0.926274 0.21328 0.339301 -0.91618 
0.161002 0.427455 -0.889585 -0.178453 -0.585149 -0.791047 0.232202 0.277261 -0.932314 
0.116796 0.290223 -0.949805 -0.192077 -0.550264 -0.812598 -0.240522 -0.557941 -0.794261 
-0.845191 0.363666 -0.391661 -0.694306 -0.118464 -0.709863 0.110061 0.988817 -0.100632 
0.0202525 0.928274 -0.371345 -0.568807 0.808548 0.150694 -0.67462 0.0424986 -0.736941 
-0.738245 0.128459 -0.662187 -0.517296 0.445639 0.730624 -0.695002 0.696608 -0.178068 
-0.468846 0.570602 0.674238 -0.0747902 0.755462 0.65091 -0.43528 0.782472 0.445273 
0.103671 0.0102504 -0.994559 0.167771 0.145072 -0.975093 0.151795 0.268303 -0.9513 
-0.0153388 -0.321543 -0.946771 0.077309 -0.0917981 -0.992772 0.0610791 -0.0797338 -0.994943 
0.0828295 -0.148328 -0.985463 0.165607 -0.0947391 -0.981631 0.0380013 0.170557 -0.984615 
-0.20689 -0.437533 -0.875078 0.438298 0.0278146 -0.898399 0.182609 0.344893 -0.920708 
-0.12058 -0.507899 -0.852936 -0.0972438 -0.525932 -0.844949 -0.168978 -0.621213 -0.765206 
0.183835 0.449676 -0.874069 0.255212 0.590789 -0.765399 0.295989 0.670077 -0.680725 
-0.770277 0.429667 -0.471232 -0.625128 -0.0603563 -0.778185 -0.22598 0.93622 -0.269118 
-0.746621 0.653661 0.123634 -0.877296 0.429551 -0.214097 0.0195154 0.766088 0.64244 
-0.163823 0.884986 -0.435847 -0.36336 0.860173 -0.357872 -0.0525988 0.766121 -0.640541 
0.199892 0.794199 -0.57384 -0.173658 0.715647 0.676529 -0.30942 0.774049 -0.552366 
-0.49327 0.640217 -0.588904 -0.0839911 0.677664 -0.73056 -0.481077 0.850794 0.211459 
0.0839557 -0.202745 -0.975626 0.0130032 -0.367901 -0.929774 0.0458267 -0.285117 -0.957397 
0.0419573 -0.304586 -0.95156 0.154148 -0.134834 -0.978804 -0.007365 -0.397309 -0.917655 
-0.043109 -0.279819 -0.959084 -0.0869813 -0.396975 -0.913698 0.0132267 -0.136478 -0.990555 
0.205597 0.0945724 -0.974056 0.234002 0.443389 -0.865245 0.314432 0.356827 -0.879663 
-0.02616 -0.443622 -0.895832 -0.120288 -0.642659 -0.75665 0.11405 0.35684 -0.927177 
0.194239 0.38907 -0.900498 -0.137592 -0.63156 -0.76302 0.247834 0.511615 -0.822696 
0.211545 0.545748 -0.810807 -0.250693 -0.577208 -0.777164 -0.264181 -0.540306 -0.798923 
-0.460045 -0.351499 -0.815357 -0.410936 -0.343465 -0.84449 -0.713605 0.111101 -0.691682 
-0.283461 0.949768 0.132633 0.0385867 0.929249 0.367434 -0.118634 0.966882 0.225977 
-0.237323 0.970261 0.047667 0.188629 0.59392 -0.782098 0.104384 0.542295 -0.833678 
-0.456529 0.509184 -0.729598 -0.116288 0.52675 -0.842028 0.204137 0.0569441 -0.977285 
0.165759 8.43651e-05 -0.986166 0.260562 -0.0612615 -0.963512 -0.108058 -0.604416 -0.789307 
-0.0967891 -0.56366 -0.820316 0.386748 0.162862 -0.90769 -0.0871695 -0.611554 -0.786386 
0.344804 0.333255 -0.877525 0.24644 0.526305 -0.8138 -0.219159 -0.690214 -0.689619 
0.277536 0.54422 -0.791706 -0.220893 -0.641147 -0.73494 0.275706 0.561376 -0.780284 
-0.311073 -0.532705 -0.787057 -0.761579 -0.0157133 -0.647881 -0.673674 0.713377 -0.19302 
-0.709225 0.446297 -0.545727 -0.640391 0.743549 -0.192446 -0.743928 0.535255 -0.400092 
-0.108769 0.887302 0.448179 -0.460407 0.843295 -0.277271 0 -0.970142 -0.242536 
0 -1 0 -0.6 -0.8 0 0.6 -0.8 0 
-0.277246 0.45479 -0.846345 0 1 0 -0.61258 0.424024 -0.667045 
0.0265079 0.501487 -0.864759 -0.230226 0.410596 -0.882274 0.159288 -0.181448 -0.970414 
0.301302 0.152761 -0.941213 0.517891 0.0521277 -0.853857 0.0754073 -0.364908 -0.927985 
0.0700576 -0.42024 -0.904705 0.176362 -0.167214 -0.970019 0.235286 0.0888063 -0.967861 
0.263035 0.0599408 -0.962923 0.305925 0.36559 -0.879064 0.26769 0.547005 -0.793176 
0.100463 0.545067 -0.832352 0.294205 0.516591 -0.8041 0.261632 0.521765 -0.811979 
-0.603488 -0.138774 -0.785204 -0.876582 0.44732 -0.177507 -0.19226 0.948038 0.253496 
-0.472914 0.881105 -0.0027118 -0.473462 0.864699 0.167716 -0.182353 0.809251 0.558444 
-0.0845741 0.814711 0.573667 -0.751338 0.406481 -0.51987 0 -0.970142 0.242536 
-0.363118 0.348061 -0.864291 -0.289212 0.346881 -0.892205 0.0379156 -0.396479 -0.917261 
0.0855021 -0.441731 -0.893064 0.00719973 -0.437506 -0.899187 0.376026 0.305706 -0.874727 
-0.0637031 -0.613647 -0.787006 -0.0388109 -0.562146 -0.826127 0.300173 -0.103091 -0.948298 
0.411293 0.443722 -0.796209 -0.111458 -0.611956 -0.782999 0.496868 0.450556 -0.741701 
0.356176 0.470137 -0.807533 0.217865 0.504358 -0.835558 -0.194368 -0.73284 -0.652048 
-0.225559 -0.730299 -0.644815 0.256747 0.551511 -0.793673 -0.54892 -0.262132 -0.793709 
-0.663405 -0.123903 -0.737931 -0.786857 0.121339 -0.605089 -0.628253 0.774914 0.0693276 
-0.338476 0.852663 0.397994 -0.746781 0.599935 -0.287046 -0.708427 0.258603 -0.656701 
0.27672 0.525946 -0.804243 -0.597336 0.249099 -0.762325 -0.571585 0.255362 -0.779795 
0.194563 0.412449 -0.889961 -0.437376 0.365074 -0.821841 -0.0846267 0.534275 -0.841064 
0.0689686 0.342852 -0.936854 0.185843 -0.931229 -0.313487 -0.0412605 -0.906836 -0.419459 
0.0880427 -0.239871 -0.966804 0.0852705 -0.199005 -0.976282 0.278611 0.382142 -0.881103 