# vtk DataFile Version 4.2
vtk output
ASCII
DATASET POLYDATA
POINTS 1579 float
141.007 79.141 188.33 124.208 85.8947 188.39 124.51 85.8283 188.43 
123.572 86.3116 188.532 123.573 86.2069 188.5 123.393 86.3214 188.581 
140.482 79.9212 188.285 124.038 84.1606 188.71 123.664 85.9268 188.483 
160.996 72.5245 190.025 156.655 73.2834 190.06 157.57 73.7906 189.797 
156.43 74.0952 189.763 149.742 76.5963 189.415 136.526 79.0837 188.714 
133.903 83.617 188.271 121.929 84.8854 188.854 121.994 86.9508 189.04 
115.67 87.6709 189.929 116.926 87.6748 189.659 116.41 87.5068 189.722 
115.043 88.2213 190.423 115.012 88.2494 190.512 115.125 88.148 190.364 
116.225 88.1044 189.978 116.473 88.2649 190.083 117.352 88.1649 189.828 
118.384 88.1163 189.686 117.057 88.3455 190.092 199.414 61.5455 190.848 
183.937 65.7501 190.968 175.702 67.6893 190.908 161.941 71.6986 190.291 
165.668 71.2397 190.316 169.714 70.9621 190.301 137.451 78.1852 189.046 
140.405 81.6335 188.573 118.099 85.5481 189.629 115.055 87.1517 190.279 
114.954 87.4208 190.338 122.804 87.4531 189.479 114.128 87.5218 191.073 
115.133 87.8438 190.308 120.212 87.938 189.626 123.659 87.7257 190.01 
114.545 88.0537 191.028 115.435 88.17 190.293 213.181 57.7051 191.6 
204.597 59.2643 191.397 206.627 60.8169 190.857 169.288 68.8198 191.208 
164.959 69.706 191.165 143.138 75.762 189.985 138.49 77.0484 189.698 
152.261 76.9828 189.52 159.684 76.9823 189.764 172.523 77.1457 190.663 
128.215 80.2349 189.602 169.278 80.3095 191.239 169.085 80.4033 191.273 
168.189 81.3196 191.791 157.469 83.803 190.685 148.103 84.9293 190.124 
127.587 86.4966 189.265 146.477 86.6199 190.4 155.497 85.8406 191.255 
113.071 86.96 191.96 130.746 86.9881 190.263 145.205 87.6355 190.682 
147.21 87.2977 190.678 154.606 86.5157 191.479 121.423 88.1376 190.139 
123.253 88.0928 190.694 138.156 87.7427 191.181 115.239 88.4276 191.123 
154.364 87.1213 191.952 144.815 89.031 191.47 144.283 89.1527 191.708 
145.807 89.5976 191.863 218.655 55.9927 192.482 216.095 57.4218 191.907 
217.229 58.6775 191.761 199.21 60.4705 191.394 194.139 61.2053 191.949 
194.818 62.3681 191.2 206.293 62.4494 190.731 197.992 64.1548 190.472 
182.091 65.0274 191.715 201.282 65.6246 190.647 183.64 67.1466 190.632 
197.58 66.8043 190.653 191.651 66.7019 190.62 179.634 69.0891 190.504 
200.34 68.293 191.27 160.746 69.9197 191.789 182.527 70.8861 190.6 
184.448 70.5633 190.651 191.996 70.8755 191.166 200.715 69.2009 191.858 
192.78 71.5953 191.512 151.768 72.3092 191.626 193.796 71.7436 191.789 
200.006 70.2146 192.515 192.708 72.7355 192.237 193.292 72.6857 192.376 
187.977 74.7321 192.754 130.854 78.6993 190.066 178.639 77.5045 192.292 
173.02 79.3112 191.513 160.014 80.9073 190.273 160.895 82.2282 190.762 
168.556 80.5856 191.374 170.007 80.1859 191.356 171.943 80.348 191.919 
175.132 79.4973 192.565 161.812 82.7285 191.221 171.341 80.6988 192.082 
171.862 80.8844 192.577 138.316 85.0746 189.533 164.621 82.8513 192.214 
159.777 84.695 191.895 160.756 84.3344 192.04 112.116 86.1257 192.713 
111.781 86.0511 193.181 112.43 86.0705 192.349 112.985 86.1662 191.872 
138.602 87.0449 190.6 150.882 86.2676 190.823 159.514 85.1372 192.238 
160.935 84.6503 192.55 112.512 86.7908 192.676 159.066 85.4518 192.414 
114.025 87.8724 191.817 133.267 87.7362 191.575 148.368 88.0408 191.187 
150.955 87.3398 191.4 154.932 87.1978 192.329 121.765 88.3997 190.891 
137.292 88.2676 192.042 138.863 88.511 192.058 140.103 88.5668 191.989 
143.786 88.3034 191.14 149.525 88.3242 191.716 151.598 87.9895 192.155 
116.015 88.6037 191.285 147.263 89.2551 191.69 147.938 89.0636 191.74 
146.825 89.6918 192.074 222.596 55.0058 192.982 217.32 55.5702 192.728 
219.224 55.4202 192.775 194.586 60.123 192.785 220.497 59.4393 192.16 
217.141 60.9459 191.887 221.164 61.0205 192.612 217.621 62.1103 192.305 
213.183 64.159 192.243 217.039 63.5305 192.909 176.608 65.5878 192.343 
210.259 65.2514 191.994 206.277 67.1317 192.049 191.102 69.0983 190.746 
208.492 67.1651 192.799 202.334 69.4524 192.759 188.508 74.7698 193.097 
172.555 78.951 191.251 170.717 80.412 191.685 173.448 80.513 193.018 
166.215 82.6157 192.691 112.277 84.4859 192.849 111.705 85.4361 193.09 
111.6 84.9406 193.284 111.847 86.3244 193.443 112.729 87.0835 192.751 
112.989 87.3285 192.823 135.733 88.391 192.77 151.669 88.2713 192.56 
153.996 87.7269 192.86 143.904 89.6047 192.541 149.262 89.0455 192.367 
147.648 89.6597 192.437 224.985 52.6418 194.184 221.064 53.3197 194.169 
226.628 52.9456 193.903 219.3 54.3004 193.495 208.702 56.3268 193.131 
210.062 56.459 192.752 223.686 57.0157 192.733 197.721 58.5837 193.512 
223.53 58.7076 192.771 221.029 61.8701 192.917 222.672 62.3711 193.785 
224.169 62.3758 194.576 218.532 63.7736 193.539 220.821 63.2839 193.891 
217.44 64.381 193.853 219.011 63.961 193.909 220.489 63.7265 194.236 
166.109 67.8101 192.725 200.74 70.6651 193.926 201.458 70.0115 193.027 
196.429 72.1089 193.532 172.831 80.8825 193.714 170.42 81.5307 193.363 
171.22 81.3224 193.35 111.801 83.5312 193.711 110.535 84.8625 194.668 
111.087 84.0076 194.066 110.853 85.4669 194.639 111.579 86.226 194.233 
160.222 85.2937 193.4 112.507 86.9413 193.67 112.953 87.2768 193.429 
114.332 88.0091 192.828 123.446 88.3088 192.926 115.415 88.3042 192.705 
139.653 89.2103 193.587 145.582 90.0419 192.862 246.059 47.0123 196.477 
246.204 47.0538 196.517 246.417 46.9399 196.699 244.289 48.1072 195.806 
246.261 47.2221 196.532 243.453 49.1523 195.412 213.909 54.4224 194.204 
236.494 56.6505 194.458 237.893 56.9535 194.921 238.625 56.8676 195.111 
195.123 58.6147 194.499 232.5 58.1311 194.389 234.278 57.8722 194.536 
236.694 57.5466 194.9 240.246 56.6419 195.765 237.258 57.8636 195.321 
239.53 57.2574 195.879 224.595 60.6303 193.518 237.511 58.1547 195.724 
233.453 59.2431 195.49 235.626 58.7512 195.49 179.608 63.2672 194.15 
219.909 64.2042 194.737 211.705 66.8771 194.435 140.475 72.5949 194.176 
199.243 71.2629 194.344 195.428 72.6319 194.44 191.07 74.1901 194.086 
189.799 74.652 194.565 110.627 85.3817 195.292 159.696 85.5911 193.999 
111.799 86.4099 194.379 126.953 87.9817 194.838 153.486 88.1374 193.948 
150.407 89.0958 193.964 144.595 90.002 194.163 246.614 46.6196 197.025 
244.763 47.3301 196.265 245.277 48.5976 195.969 246.388 47.7158 196.714 
244.052 49.7587 195.438 244.916 49.7929 195.788 245.339 49.4577 196.008 
246.15 48.8916 196.669 244.141 50.778 195.475 245.752 49.9003 196.505 
242.753 52.9687 195.225 243.342 52.7476 195.405 242.252 54.1788 195.43 
244.326 53.0259 196.198 241.958 54.7167 195.548 243.892 53.7114 196.322 
242.994 54.8173 196.432 240.442 56.8003 196.07 238.764 57.9531 196.464 
232.189 59.9591 196.168 220.724 64.1599 195.476 208.758 68.0649 194.748 
109.572 82.0188 196.171 113.326 80.9848 194.673 171.282 81.4106 194.883 
108.947 82.8383 196.561 109.557 82.7813 195.85 108.936 83.3577 196.617 
165.878 83.2431 194.67 158.891 85.9558 195.097 246.311 46.0788 197.396 
246.147 46.2365 197.113 246.515 46.2579 197.285 246.646 46.4057 197.29 
241.809 47.4448 196.314 242.557 46.6871 196.901 246.614 47.3218 197.023 
246.206 49.4356 196.975 217.681 52.3221 196.251 222.151 51.3438 196.445 
244.643 52.7168 196.417 243.471 54.5763 196.81 242.65 55.3365 196.676 
241.01 56.7004 196.65 236.873 58.8572 196.655 225.587 62.4795 196.504 
224.551 62.918 196.831 109.163 81.8041 196.68 108.952 82.1755 196.702 
108.644 82.9304 197.139 108.739 83.2735 196.851 108.685 83.2333 196.942 
108.728 83.3398 196.869 108.857 83.4619 196.772 109.817 84.4905 196.416 
121.228 87.9316 195.358 140.508 89.3503 196.199 147.967 89.6212 195.71 
246.74 46.4449 197.548 246.794 46.6952 197.471 238.866 47.1861 197.271 
246.761 47.2779 197.548 246.595 48.529 197.541 246.619 48.6997 197.952 
244.441 53.6504 197.392 243.211 55.0401 197.188 241.852 56.4488 197.866 
201.599 70.3883 197.148 131.417 72.1649 197.13 108.165 81.1357 197.942 
107.988 80.8042 198.248 107.998 81.42 198.045 108.128 82.2275 197.943 
108.753 83.3543 196.978 108.789 83.4411 197.32 111.275 85.409 197.433 
246.752 45.0046 199.219 246.707 45.0255 199.191 246.719 44.9648 199.313 
246.731 45.0546 199.256 246.798 47.6504 198.023 245.675 51.6356 198.392 
245.026 52.9506 198.139 237.745 58.6159 198.487 159.052 66.6772 197.309 
213.578 66.4292 197.989 194.116 72.6832 198.574 107.574 79.8137 199.21 
108.321 83.0151 198.585 162.37 84.1765 198.031 246.027 44.8269 199.304 
246.598 44.9541 199.307 246.591 45.2493 199.014 246.71 45.1808 199.448 
246.488 49.2774 199.653 219.395 50.5486 199.328 221.88 50.1525 198.965 
201.529 54.883 198.567 242.469 56.0146 198.995 220.986 63.9767 198.639 
200.307 70.407 199.531 107.442 78.9774 199.91 106.51 80.2892 200.221 
112.568 85.3815 199.029 246.509 44.8006 199.802 245.805 51.082 200.238 
196.283 55.91 199.305 112.713 76.1513 199.774 109.426 77.5067 199.933 
106.593 79.4531 200.397 105.439 79.6999 201.814 106.133 80.3669 200.881 
106.049 80.6589 201.327 147.588 88.9094 199.343 144.589 89.2673 198.994 
245.515 44.2121 200.932 238.179 57.7979 201.907 159.549 64.8945 200.518 
206.947 67.9391 200.923 131.196 69.6842 201.074 191.252 73.1318 200.791 
111.699 75.6475 201.15 106.536 78.6008 201.063 107.076 77.8333 201.404 
105.681 78.6202 201.923 105.275 79.6466 202.169 105.886 80.5778 201.677 
105.842 80.5613 202.131 249 41.0087 202.017 249 41.0087 202.017 
249 41.0087 202.017 249 41.0087 202.017 248 42.0087 202.017 
248 42.0087 202.017 248 42.0087 202.017 249 41.0088 202.017 
248 42.0087 202.017 248 42.0088 202.017 243.017 54.6794 202.109 
177.681 60.0537 201.508 227.027 61.3084 202.052 141.027 67.7435 201.847 
124.659 70.9932 201.939 200.062 70.0279 201.411 114.276 74.1971 202.244 
106.622 77.4648 202.501 104.961 78.4187 202.831 104.754 78.5075 203.074 
105.545 78.0038 202.716 105.025 78.7606 202.637 249 41.0087 202.017 
248 42.0087 202.017 246.093 44.3594 202.914 241.845 43.441 203.255 
[...]
POINT_DATA 1579
SCALARS scalars float
LOOKUP_TABLE default
1 1 1 1 1 1 1 1 1 
1 1 1 1 1 1 1 1 1 
1 1 1 1 1 1 1 1 1 
1 1 1 1 1 1 1 1 1 
1 1 1 1 1 1 1 1 1 
1 1 1 1 1 1 1 1 1 
1 1 1 1 1 1 1 1 1 
1 1 1 1 1 1 1 1 1 
1 1 1 1 1 1 1 1 1 
1 1 1 1 1 1 1 1 1 
1 1 1 1 1 1 1 1 1 
1 1 1 1 1 1 1 1 1 
1 1 1 1 1 1 1 1 1 
1 1 1 1 1 1 1 1 1 
1 1 1 1 1 1 1 1 1 
1 1 1 1 1 1 1 1 1 
1 1 1 1 1 1 1 1 1 
1 1 1 1 1 1 1 1 1 
1 1 1 1 1 1 1 1 1 
1 1 1 1 1 1 1 1 1 
1 1 1 1 1 1 1 1 1 
1 1 1 1 1 1 1 1 1 
1 1 1 1 1 1 1 1 1 
1 1 1 1 1 1 1 1 1 
1 1 1 1 1 1 1 1 1 
1 1 1 1 1 1 1 1 1 
1 1 1 1 1 1 1 1 1 
1 1 1 1 1 1 1 1 1 
1 1 1 1 1 1 1 1 1 
1 1 1 1 1 1 1 1 1 
1 1 1 1 1 1 1 1 1 
1 1 1 1 1 1 1 1 1 
1 1 1 1 1 1 1 1 1 
1 1 1 1 1 1 1 1 1 
1 1 1 1 1 1 1 1 1 
1 1 1 1 1 1 1 1 1 
1 1 1 1 1 1 1 1 1 
1 1 1 1 1 1 1 1 1 
1 1 1 1 1 1 1 1 1 
1 1 1 1 1 1 1 1 1 
1 1 1 1 1 1 1 1 1 
1 1 1 1 1 1 1 1 1 
1 1 1 1 1 1 1 1 1 
1 1 1 1 1 1 1 1 1 
1 1 1 1 1 1 1 1 1 
1 1 1 1 1 1 1 1 1 
1 1 1 1 1 1 1 1 1 
1 1 1 1 1 1 1 1 1 
1 1 1 1 1 1 1 1 1 
1 1 1 1 1 1 1 1 1 
1 1 1 1 1 1 1 1 1 
1 1 1 1 1 1 1 1 1 
1 1 1 1 1 1 1 1 1 
1 1 1 1 1 1 1 1 1 
1 1 1 1 1 1 1 1 1 
1 1 1 1 1 1 1 1 1 
1 1 1 1 1 1 1 1 1 
1 1 1 1 1 1 1 1 1 
1 1 1 1 1 1 1 1 1 
1 1 1 1 1 1 1 1 1 
1 1 1 1 1 1 1 1 1 
1 1 1 1 1 1 1 1 1 
1 1 1 1 1 1 1 1 1 
1 1 1 1 1 1 1 1 1 
1 1 1 1 1 1 1 1 1 
1 1 1 1 1 1 1 1 1 
1 1 1 1 1 1 1 1 1 
1 1 1 1 1 1 1 1 1 
1 1 1 1 1 1 1 1 1 
1 1 1 1 1 1 1 1 1 
1 1 1 1 1 1 1 1 1 
1 1 1 1 1 1 1 1 1 
1 1 1 1 1 1 1 1 1 
1 1 1 1 1 1 1 1 1 
1 1 1 1 1 1 1 1 1 
1 1 1 1 1 1 1 1 1 
1 1 1 1 1 1 1 1 1 
1 1 1 1 1 1 1 1 1 
1 1 1 1 1 1 1 1 1 
1 1 1 1 1 1 1 1 1 
1 1 1 1 1 1 1 1 1 
1 1 1 1 1 1 1 1 1 
1 1 1 1 1 1 1 1 1 
1 1 1 1 1 1 1 1 1 
1 1 1 1 1 1 1 1 1 
1 1 1 1 1 1 1 1 1 
1 1 1 1 1 1 1 1 1 
1 1 1 1 1 1 1 1 1 
1 1 1 1 1 1 1 1 1 
1 1 1 1 1 1 1 1 1 
1 1 1 1 1 1 1 1 1 
1 1 1 1 1 1 1 1 1 
1 1 1 1 1 1 1 1 1 
1 1 1 1 1 1 1 1 1 
1 1 1 1 1 1 1 1 1 
1 1 1 1 1 1 1 1 1 
1 1 1 1 1 1 1 1 1 
1 1 1 1 1 1 1 1 1 
1 1 1 1 1 1 1 1 1 
1 1 1 1 1 1 1 1 1 
1 1 1 1 1 1 1 1 1 
1 1 1 1 1 1 1 1 1 
1 1 1 1 1 1 1 1 1 
1 1 1 1 1 1 1 1 1 
1 1 1 1 1 1 1 1 1 
1 1 1 1 1 1 1 1 1 
1 1 1 1 1 1 1 1 1 
1 1 1 1 1 1 1 1 1 
1 1 1 1 1 1 1 1 1 
1 1 1 1 1 1 1 1 1 
1 1 1 1 1 1 1 1 1 
1 1 1 1 1 1 1 1 1 
1 1 1 1 1 1 1 1 1 
1 1 1 1 1 1 1 1 1 
1 1 1 1 1 1 1 1 1 
1 1 1 1 1 1 1 1 1 
1 1 1 1 1 1 1 1 1 
1 1 1 1 1 1 1 1 1 
1 1 1 1 1 1 1 1 1 
1 1 1 1 1 1 1 1 1 
1 1 1 1 1 1 1 1 1 
1 1 1 1 1 1 1 1 1 
1 1 1 1 1 1 1 1 1 
1 1 1 1 1 1 1 1 1 
1 1 1 1 1 1 1 1 1 
1 1 1 1 1 1 1 1 1 
1 1 1 1 1 1 1 1 1 
1 1 1 1 1 1 1 1 1 
1 1 1 1 1 1 1 1 1 
1 1 1 1 1 1 1 1 1 
1 1 1 1 1 1 1 1 1 
1 1 1 1 1 1 1 1 1 
1 1 1 1 1 1 1 1 1 
1 1 1 1 1 1 1 1 1 
1 1 1 1 1 1 1 1 1 
1 1 1 1 1 1 1 1 1 
1 1 1 1 1 1 1 1 1 
1 1 1 1 1 1 1 1 1 
1 1 1 1 1 1 1 1 1 
1 1 1 1 1 1 1 1 1 
1 1 1 1 1 1 1 1 1 
1 1 1 1 1 1 1 1 1 
1 1 1 1 1 1 1 1 1 
1 1 1 1 1 1 1 1 1 
1 1 1 1 1 1 1 1 1 
1 1 1 1 1 1 1 1 1 
1 1 1 1 1 1 1 1 1 
1 1 1 1 1 1 1 1 1 
1 1 1 1 1 1 1 1 1 
1 1 1 1 1 1 1 1 1 
1 1 1 1 1 1 1 1 1 
1 1 1 1 1 1 1 1 1 
1 1 1 1 1 1 1 1 1 
1 1 1 1 1 1 1 1 1 
1 1 1 1 1 1 1 1 1 
1 1 1 1 1 1 1 1 1 
1 1 1 1 1 1 1 1 1 
1 1 1 1 1 1 1 1 1 
1 1 1 1 1 1 1 1 1 
1 1 1 1 1 1 1 1 1 
1 1 1 1 1 1 1 1 1 
1 1 1 1 1 1 1 1 1 
1 1 1 1 1 1 1 1 1 
1 1 1 1 1 1 1 1 1 
1 1 1 1 1 1 1 1 1 
1 1 1 1 1 1 1 1 1 
1 1 1 1 1 1 1 1 1 
1 1 1 1 1 1 1 1 1 
1 1 1 1 1 1 1 1 1 
1 1 1 1 1 1 1 1 1 
1 1 1 1 1 1 1 1 1 
1 1 1 1 1 1 1 1 1 
1 1 1 1 1 1 1 1 1 
1 1 1 1 1 1 1 1 1 
1 1 1 1 1 1 1 1 1 
1 1 1 1 
NORMALS Normals float
0.0370439 -0.229993 -0.972487 -0.000484016 0.0508533 -0.998706 0.0561106 -0.148056 -0.987386 
-0.0612403 0.406021 -0.911809 -0.226979 0.123483 -0.96604 -0.276671 0.0828108 -0.95739 
-0.0421721 -0.025197 -0.998793 -0.269641 -0.449274 -0.851732 -0.316939 -0.294095 -0.901697 
-0.00860782 -0.289481 -0.957145 -0.107929 -0.310796 -0.944329 -0.132123 -0.214079 -0.96784 
-0.0228219 -0.212973 -0.976792 0.0761671 -0.200855 -0.976655 -0.331858 -0.528028 -0.781701 
0.101078 0.437711 -0.893416 -0.229553 -0.447382 -0.864381 0.0774644 0.513391 -0.854651 
-0.369813 0.144674 -0.917773 -0.125429 0.320066 -0.939055 -0.210462 0.103619 -0.972095 
-0.408598 0.650535 -0.640197 -0.40789 0.866912 -0.286514 -0.323645 0.256152 -0.910846 
-0.186776 0.498147 -0.846737 -0.127023 0.741269 -0.659079 -0.168462 0.605333 -0.777941 
0.0116698 0.787189 -0.616602 -0.0921446 0.82507 -0.557466 -0.148048 -0.272011 -0.950837 
-0.00710008 -0.344978 -0.938584 -0.105906 -0.19853 -0.974356 0.052836 -0.200885 -0.978189 
-0.0176661 -0.441483 -0.897096 -0.0462729 -0.202231 -0.978244 -0.219405 -0.486663 -0.845589 
0.145041 0.284437 -0.94766 -0.286618 -0.36851 -0.884336 -0.503331 -0.0879525 -0.859606 
-0.561635 0.0716943 -0.824273 0.207922 0.711493 -0.671227 -0.686153 0.217941 -0.694043 
-0.483407 0.169878 -0.858754 0.0350826 0.68782 -0.725033 0.258249 0.675822 -0.690342 
-0.642976 0.695215 -0.321337 -0.275755 0.457634 -0.845299 0.0050416 -0.354662 -0.934981 
-0.10067 -0.460146 -0.882117 0.0587682 -0.127975 -0.990035 0.00266114 -0.713216 -0.700939 
-0.0861633 -0.647174 -0.757457 -0.0659203 -0.657975 -0.750149 -0.288342 -0.673792 -0.680341 
0.0633653 -0.146953 -0.987112 0.0848808 0.0330378 -0.995843 0.0845053 0.233969 -0.968565 
-0.274979 -0.568719 -0.775207 0.00769022 0.267131 -0.96363 0.100748 0.603441 -0.791018 
0.237154 0.726415 -0.645042 0.103895 0.299319 -0.94848 -0.010522 0.166297 -0.98602 
0.184254 0.555577 -0.810793 0.0945062 0.0946483 -0.991015 0.216844 0.55852 -0.800646 
-0.726137 0.486045 -0.486298 0.0808181 0.864353 -0.496349 -0.0568961 0.292999 -0.954419 
0.14752 0.313411 -0.938089 0.162268 0.525629 -0.835095 0.0952281 0.826823 -0.554343 
0.0789133 0.95068 -0.299966 -0.111623 0.701496 -0.703878 -0.275941 0.956811 -0.0914867 
0.069055 0.744369 -0.664189 -0.0656225 0.634281 -0.770312 -0.21953 0.755724 -0.616999 
-0.05368 0.76642 -0.640093 0.0321964 -0.438501 -0.898154 0.0458094 -0.165212 -0.985194 
0.0412897 -0.133783 -0.99015 -0.336766 -0.473392 -0.813934 -0.410564 -0.727028 -0.550334 
-0.0846516 -0.348357 -0.933532 0.0590147 -0.0324457 -0.99773 -0.0264683 0.008811 -0.999611 
-0.0992652 -0.546433 -0.831599 0.164549 0.168209 -0.97192 0.0260488 -0.156949 -0.987263 
0.00134563 0.100624 -0.994924 0.0399312 0.020029 -0.999002 -0.0950576 -0.0542869 -0.99399 
0.14969 0.349007 -0.925088 -0.145517 -0.634071 -0.759459 0.0448479 0.236689 -0.97055 
0.127429 0.0458075 -0.990789 0.099331 0.307302 -0.946414 0.250513 0.562761 -0.787746 
0.125832 0.471001 -0.873112 -0.179194 -0.761396 -0.62303 0.215312 0.40057 -0.890609 
0.24912 0.763642 -0.595643 0.154659 0.678539 -0.718098 0.267568 0.763421 -0.587874 
0.192478 0.74251 -0.641585 -0.226332 -0.381926 -0.89605 0.272063 0.61566 -0.739557 
0.319145 0.507053 -0.800652 0.171043 0.204632 -0.963779 0.257404 0.376271 -0.890035 
0.0209518 0.290099 -0.956767 0.218672 0.611633 -0.760321 0.180713 0.596456 -0.782038 
0.402358 0.580023 -0.708295 0.34425 0.41932 -0.840037 0.152402 0.817387 -0.555564 
0.29227 0.887788 -0.355542 -0.013895 0.433668 -0.900966 0.261663 0.589463 -0.764242 
0.326734 0.642158 -0.693453 0.295065 0.686878 -0.66418 -0.815055 0.39847 -0.420604 
-0.859206 0.337095 -0.38488 -0.684911 0.0969169 -0.722152 -0.543245 -0.293157 -0.78673 
0.0847302 0.568705 -0.818166 0.162165 0.462276 -0.871782 0.383058 0.812275 -0.439859 
0.496104 0.799207 -0.339335 -0.689009 0.445844 -0.571392 0.321876 0.828628 -0.458008 
-0.467031 0.881796 -0.0657107 -0.146604 0.891551 -0.428537 0.264831 0.450511 -0.852587 
0.221612 0.63589 -0.739278 0.342773 0.8031 -0.487378 0.100404 0.963235 -0.249194 
-0.20499 0.904131 -0.374869 -0.0508933 0.824698 -0.56328 -0.0301384 0.658836 -0.751683 
-0.208553 0.640216 -0.739343 0.263139 0.372962 -0.889751 0.171022 0.678762 -0.714167 
-0.0939853 0.993365 -0.0662831 0.115308 0.648685 -0.752272 0.23683 0.62947 -0.740053 
0.0691467 0.691392 -0.719163 -0.00619295 -0.33387 -0.942599 0.0169885 -0.502416 -0.864459 
-0.123403 -0.439924 -0.889516 -0.310478 -0.674913 -0.6694 0.14133 0.0459125 -0.988897 
0.0517041 0.169412 -0.984188 0.369542 0.348304 -0.861466 0.230834 0.438989 -0.868334 
0.191661 0.414361 -0.889703 0.234203 0.495961 -0.836165 -0.201298 -0.694594 -0.690665 
0.255532 0.382467 -0.887932 0.272178 0.550417 -0.789278 0.11419 0.0742977 -0.990677 
0.289203 0.604479 -0.742271 0.362798 0.859049 -0.361126 0.165153 0.961783 -0.218398 
0.171898 0.300085 -0.938296 0.182851 0.635896 -0.749801 0.374073 0.817806 -0.437336 
0.286045 0.891497 -0.351301 -0.509251 -0.315272 -0.800791 -0.791502 0.011932 -0.61105 
-0.769054 -0.113467 -0.629032 -0.727873 0.647251 -0.226421 -0.689288 0.690745 -0.218526 
-0.546417 0.778601 -0.308559 -0.186679 0.937383 -0.294048 0.204186 0.863207 -0.461716 
0.0481174 0.909351 -0.413237 -0.246743 0.868413 -0.430089 0.300697 0.766195 -0.567915 
0.237979 0.935951 -0.259541 -0.045436 -0.704008 -0.708737 -0.1702 -0.750109 -0.639037 
0.0152579 -0.706006 -0.708042 -0.197665 -0.605527 -0.770886 -0.12051 -0.815458 -0.566132 
-0.0812069 -0.689475 -0.719743 0.141675 0.0312954 -0.989418 -0.245351 -0.706703 -0.663607 
0.196492 0.0735697 -0.977742 0.379434 0.403335 -0.832677 0.333928 0.563964 -0.755273 
0.426581 0.679648 -0.596748 0.271968 0.557948 -0.784045 0.283387 0.600688 -0.747573 
0.259931 0.809123 -0.527025 0.29714 0.665739 -0.684471 0.237916 0.790759 -0.564001 
0.0657531 -0.830095 -0.553731 0.380165 0.893175 -0.240235 0.413145 0.815665 -0.404973 
0.37333 0.880697 -0.291543 0.371706 0.917431 -0.14197 0.214924 0.910595 -0.353023 
0.274827 0.927821 -0.252225 -0.571319 -0.434131 -0.696509 -0.836928 0.313436 -0.448676 
-0.696183 -0.251084 -0.672522 -0.783102 0.574868 -0.237228 -0.769442 0.596616 -0.228054 
0.513178 0.817955 -0.259996 -0.504621 0.832137 0.230013 -0.469381 0.838062 0.27809 
-0.28764 0.900406 0.326393 0.0112761 0.999497 -0.029628 -0.213406 0.946216 0.243173 
-0.172912 0.94517 -0.277048 -0.0548202 0.947758 -0.314244 0.214313 -0.484634 -0.848056 
0.35941 -0.11317 -0.926292 0.654809 -0.234588 -0.718466 0.150916 -0.273956 -0.949828 
0.646443 0.0244496 -0.76257 0.0609479 -0.245484 -0.967483 -0.115913 -0.799834 -0.588922 
0.203023 0.198072 -0.958931 0.287243 0.480721 -0.828492 0.352176 0.483164 -0.801576 
-0.644306 -0.692796 -0.323888 0.181726 0.447398 -0.875678 0.125045 0.556116 -0.821644 
0.237236 0.459916 -0.855685 0.455508 0.391784 -0.799386 0.290174 0.619858 -0.729092 
0.420094 0.798489 -0.431203 0.388806 0.399209 -0.830339 0.312203 0.720332 -0.619396 
0.0495956 0.667755 -0.742727 0.215936 0.695776 -0.685031 -0.132741 -0.830081 -0.541614 
0.115564 0.848723 -0.516057 0.340249 0.866613 -0.364983 -0.211706 -0.787541 -0.578757 
0.326015 0.940486 0.0959191 0.389271 0.917573 -0.0807971 0.332991 0.897976 -0.287673 
0.266828 0.955612 0.124936 -0.752636 0.65511 -0.0661094 0.516022 0.856495 -0.0117353 
-0.515311 0.843943 0.149047 -0.0466417 0.977361 0.206374 0.104832 0.969987 -0.219398 
0.326667 0.944152 0.0431975 -0.0351933 0.99907 0.024898 0.76228 -0.308854 -0.568804 
0.129655 -0.27692 -0.952105 0.428368 -0.0648114 -0.901277 0.892975 0.11033 -0.436375 
0.257079 -0.0984378 -0.961364 0.452373 -0.0124235 -0.891742 0.558199 0.0853821 -0.825302 
0.773605 0.137931 -0.618474 0.358129 0.0995472 -0.92835 0.772515 0.295464 -0.562068 
0.216158 0.196836 -0.956311 0.51933 0.261215 -0.813672 0.437453 0.422841 -0.793625 
0.688777 0.418728 -0.591823 0.272127 0.363631 -0.890909 0.590615 0.512633 -0.623202 
0.621292 0.559959 -0.548126 0.503413 0.622921 -0.598786 0.418477 0.838838 -0.348178 
0.189628 0.864377 -0.465718 0.286237 0.943233 -0.168466 0.281871 0.923927 -0.258666 
-0.633555 -0.322658 -0.703207 -0.379081 -0.550376 -0.743898 0.331802 0.9393 0.0873126 
-0.757153 -0.121591 -0.641821 -0.59913 -0.0319812 -0.800013 -0.694011 0.198258 -0.692129 
0.265339 0.943676 -0.197665 0.343079 0.938488 0.0392042 0.290386 -0.837223 -0.463394 
0.166837 -0.720405 -0.673189 0.574275 -0.707789 -0.411392 0.79376 -0.580085 -0.182881 
-0.11912 -0.506803 -0.853792 -0.0813927 -0.70899 -0.700505 0.899317 0.0898808 -0.42796 
0.890319 0.282129 -0.3574 -0.179679 -0.757811 -0.627246 -0.118446 -0.870268 -0.478126 
0.774347 0.31411 -0.549292 0.748963 0.561838 -0.351273 0.608608 0.657046 -0.444844 
0.572322 0.725467 -0.382289 0.287328 0.901618 -0.323306 0.388449 0.875193 -0.288347 
0.385854 0.918713 -0.0841627 -0.706433 -0.192585 -0.681075 -0.761025 -0.188036 -0.620873 
-0.933801 0.0316509 -0.356391 -0.768784 -0.0646792 -0.636229 -0.974513 0.156034 -0.161175 
-0.8782 0.368396 -0.305039 -0.744364 0.508702 -0.432602 -0.730663 0.679585 0.0655458 
-0.00965731 0.973491 0.228522 -0.160197 0.983473 0.0843724 0.127512 0.982389 0.136573 
0.944886 -0.310642 -0.103401 0.994779 -0.0788094 -0.0648432 -0.265364 -0.794553 -0.546139 
0.985584 0.117095 -0.122117 0.969259 0.0727122 -0.235054 0.984985 0.14613 -0.0919223 
0.807334 0.538626 -0.241026 0.738276 0.643648 -0.201657 0.478269 0.878157 -0.00989633 
0.425159 0.904555 0.0319272 -0.234304 -0.777899 -0.583074 -0.496291 -0.413853 -0.763165 
-0.782258 -0.302794 -0.544415 -0.915424 -0.00838972 -0.402404 -0.898555 0.121122 -0.421816 
-0.856844 0.503507 0.110902 -0.856176 0.505791 -0.105536 -0.562252 0.770591 0.300103 
0.824735 -0.357417 -0.438253 -0.0153991 -0.780302 -0.625213 0.752652 -0.652605 -0.0872981 
0.967141 0.249166 0.0505468 0.995172 0.04761 -0.0858257 0.86777 0.494499 0.0494604 
0.867422 0.496685 -0.0297165 0.33701 0.93997 0.0536702 -0.159094 -0.88693 -0.43364 
0.295293 0.95174 0.0836217 0.471021 0.844126 0.256106 -0.428062 -0.543416 -0.722124 
-0.721974 0.691878 -0.00758164 0.340216 0.938426 0.0600848 0.102805 -0.886173 -0.451806 
0.0617644 -0.867535 -0.493527 0.732509 -0.402309 -0.549161 0.998599 0.0373939 -0.0374314 
0.959854 0.264947 0.0921065 -0.239262 -0.89229 -0.382847 -0.0964936 -0.919595 -0.380833 
-0.199911 -0.919241 -0.339163 0.706217 0.700096 0.105466 0.35066 0.919607 0.177087 
0.191648 0.96452 0.18158 -0.599491 -0.508755 -0.617883 -0.796775 -0.0616567 -0.601123 
-0.28811 0.887151 0.360494 0.508509 -0.852694 -0.119711 0.846311 0.494206 0.198791 
-0.402523 -0.860972 -0.310972 -0.248091 -0.734909 -0.631157 -0.4215 -0.688554 -0.590111 
-0.653791 -0.429551 -0.622931 -0.864397 0.119777 -0.488336 -0.844996 0.0969446 -0.525912 
-0.744785 0.62733 -0.227492 0.202534 0.960032 0.193182 -0.00787475 0.968467 0.249016 
0.359015 -0.906485 -0.222246 0.381561 0.878676 0.286949 -0.10686 -0.828375 -0.549887 
0.308774 0.929822 0.200225 -0.189912 -0.896255 -0.400825 0.404036 0.809203 0.42655 
-0.316499 -0.894503 -0.315741 -0.610902 -0.36253 -0.703825 -0.424854 -0.737053 -0.525597 
-0.634207 -0.479085 -0.606843 -0.913112 0.3141 -0.259939 -0.823825 0.51459 -0.237716 
-0.665775 0.746075 0.0107312 0 -0.992278 -0.124035 0 -1 0 
-0.447214 -0.894427 0 0.447214 -0.894427 0 0 -0.992278 -0.124035 
0 -1 0 -0.447214 -0.894427 0 0 1 0 
0.447214 -0.894427 0 0 1 0 0.598506 0.746834 0.289879 
-0.246526 -0.91365 -0.323215 0.269415 0.902936 0.334846 -0.192515 -0.89076 -0.411684 
-0.162098 -0.803334 -0.573044 0.249405 0.924558 0.288079 -0.267272 -0.894805 -0.357617 
-0.410043 -0.817211 -0.405008 -0.634283 -0.429309 -0.642946 -0.898447 0.148957 -0.413044 
-0.512988 -0.671057 -0.535281 -0.745071 -0.195681 -0.637635 0 -0.992278 0.124035 
0 -0.992278 0.124035 0.797662 -0.596981 -0.0857214 -0.294787 -0.896711 -0.330167 
0.986919 0.00240543 0.161199 -0.281378 -0.935052 -0.215647 -0.35862 -0.90483 -0.229508 
-0.136514 -0.964591 -0.225671 -0.238956 -0.960335 -0.143726 -0.358044 -0.903778 -0.234499 
-0.150969 -0.904504 -0.398849 -0.233379 -0.948629 -0.213631 -0.42689 -0.880179 -0.207486 
-0.405356 -0.906629 -0.117093 -0.361968 -0.929831 -0.0662853 -0.505714 -0.850012 0.147425 
-0.616305 -0.652949 -0.440257 -0.431469 -0.882597 0.186701 -0.456848 -0.80812 -0.371797 
-0.724565 -0.193831 -0.661388 -0.912825 0.170008 -0.371278 -0.889249 0.44077 -0.1223 
-0.87786 0.475105 -0.0603097 -0.841337 0.535267 0.0751079 0.457148 -0.81569 -0.354492 
-0.0429022 -0.970897 -0.235623 -0.0381835 -0.902734 -0.4285 -0.191284 -0.968138 -0.161615 
-0.32382 -0.931208 -0.167307 -0.202027 -0.977856 0.0546186 0.00719421 -0.999615 0.0267971 
-0.278868 -0.954366 -0.106854 -0.215585 -0.958954 -0.184201 -0.168857 -0.930581 -0.324818 
-0.255339 -0.90618 -0.337104 -0.259154 -0.962922 -0.0749702 -0.157337 -0.962535 -0.220842 
-0.17231 -0.978137 -0.116435 -0.258139 -0.953888 0.153172 -0.371316 -0.921199 0.116266 
-0.275928 -0.961177 -0.00143956 -0.856748 -0.289007 0.427151 -0.631438 -0.546721 0.549893 
-0.406433 -0.910831 0.0721084 -0.910532 0.37573 0.172506 -0.862964 0.346256 0.367968 
-0.87812 0.475583 0.0522046 -0.807501 0.455054 0.375324 0.329444 0.890988 0.312422 
-0.603597 0.760723 0.238685 -0.0693179 -0.967514 -0.243128 0.201992 -0.93466 -0.29259 
0.646034 -0.705298 -0.29188 0.955651 -0.292612 -0.0333183 -0.255316 -0.966277 0.0335187 
-0.194856 -0.974305 0.112963 -0.217804 -0.946258 0.239076 -0.430841 -0.786517 0.442456 
-0.296285 -0.948109 0.115345 -0.178413 -0.968096 0.175949 -0.210216 -0.976571 0.0460284 
-0.236524 -0.970998 -0.0349121 -0.252861 -0.948236 -0.192117 -0.214938 -0.976611 -0.00567331 
-0.14487 -0.96637 -0.212466 -0.221461 -0.965765 -0.135103 -0.147432 -0.936565 -0.317976 
0.262406 0.840942 0.473244 -0.0591851 -0.913908 0.401583 -0.272411 -0.881412 0.385883 
-0.406287 -0.896886 0.174721 0.270049 0.858866 0.435228 -0.787762 0.134274 0.601166 
-0.616177 -0.382504 0.688488 -0.0932551 0.823833 0.559109 0.720993 -0.592702 -0.358989 
0.479878 -0.808164 -0.34145 0.77932 -0.60209 -0.173628 0.974611 -0.170584 -0.145032 
0.992671 0.0709838 0.0978051 -0.270341 -0.953619 -0.132388 -0.283938 -0.95857 0.0228529 
-0.301651 -0.952855 -0.0327703 -0.442685 -0.895482 0.0462848 -0.124073 -0.97359 0.191647 
-0.268928 -0.936967 0.223092 -0.152219 -0.940297 0.304419 -0.097759 -0.913286 0.395414 
-0.1798 -0.958439 0.221511 -0.221528 -0.799278 0.558641 -0.236897 -0.877882 0.416177 
-0.188124 -0.893559 0.40763 0.563964 0.726982 0.391718 -0.374939 -0.926977 -0.0115577 
-0.112093 -0.981669 -0.154148 -0.301724 -0.84314 0.445058 -0.227629 -0.86773 0.441848 
-0.316961 -0.779878 0.539746 -0.401087 -0.795875 0.453554 -0.479078 -0.766656 0.427461 
-0.445139 -0.801496 0.399319 -0.713603 -0.135757 0.687271 -0.652399 -0.329079 0.682702 
-0.747062 0.273572 0.605852 0.350632 0.871113 0.343831 -0.63251 0.635708 0.4425 
-0.296085 0.834682 0.46437 -0.116904 0.835852 0.536363 0.421439 -0.848764 -0.319358 
0.266528 -0.89426 -0.35953 0.6081 -0.774945 -0.17226 0.957116 -0.279778 0.0751856 
-0.333949 -0.941849 -0.0374048 0.971241 0.0740508 0.226291 -0.48222 -0.874566 -0.0509809 
-0.372579 -0.890228 0.262066 -0.24887 -0.912099 0.32579 -0.243318 -0.863258 0.442247 
-0.11185 -0.899525 0.422308 -0.158134 -0.893175 0.420989 -0.184496 -0.832754 0.521998 
-0.246183 -0.782985 0.571252 -0.158668 -0.734105 0.660238 -0.0774998 -0.908028 0.411677 
-0.213971 -0.796398 0.565656 -0.369044 -0.909379 0.191929 -0.205493 -0.972787 -0.107042 
-0.251486 -0.967825 -0.00831513 -0.0115556 -0.920885 0.389662 -0.13872 -0.985865 0.0939471 
-0.227929 -0.954762 0.19099 -0.214637 -0.883051 0.417314 -0.259542 -0.808607 0.528008 
-0.300606 -0.817073 0.491963 -0.0589733 0.710411 0.701312 -0.331256 -0.691837 0.641585 
-0.365131 -0.680558 0.635232 0.238471 0.7265 0.644461 -0.490394 -0.506449 0.709241 
0.370482 0.767659 0.522918 -0.58058 0.671901 0.459866 -0.0442293 0.868503 0.493706 
0.455206 -0.623359 -0.635776 0.154691 -0.967994 -0.197632 -0.333898 -0.942587 0.00650108 
0.938363 -0.215658 0.270123 -0.0951834 -0.974273 -0.204286 0.239421 -0.810559 -0.534483 
0.975399 0.0742193 0.207575 -0.222196 -0.972347 0.0719078 0.932417 -0.356063 -0.0617813 
0.846907 0.166325 0.505059 -0.363821 -0.901422 0.234676 -0.318895 -0.934738 0.15675 
-0.285718 -0.859622 0.423575 -0.22691 -0.849003 0.477185 -0.156801 -0.789119 0.59389 