# vtk DataFile Version 4.2
vtk output
ASCII
DATASET POLYDATA
POINTS 5837 float
137.03 105.431 170.564 137.026 105.433 170.564 137.027 105.433 170.564 
137.028 105.432 170.564 137.029 105.432 170.564 156.707 94.1955 173.21 
156.752 94.1792 173.227 151 96.0087 170.017 151 96.0087 170.017 
151 96.0088 170.017 151 96.0088 170.017 151 96.0088 170.017 
145.964 99.9421 171.991 144.731 100.558 171.605 143.531 101.194 171.354 
143.415 101.258 171.338 143.268 101.34 171.319 143.822 101.035 171.398 
143.79 101.054 171.396 144.193 100.834 171.461 144.387 100.733 171.508 
142.578 101.727 171.247 142.661 101.681 171.255 142.534 101.753 171.243 
143.401 101.266 171.336 142.663 101.68 171.255 143.717 101.092 171.378 
143.969 100.954 171.419 142.305 101.883 171.222 142.33 101.869 171.224 
142.313 101.878 171.222 142.535 101.752 171.243 142.33 101.868 171.224 
139.002 104.011 170.517 139.002 104.011 170.517 139.002 104.011 170.517 
142.346 101.859 171.225 139.002 104.011 170.517 137.019 105.436 170.565 
137.016 105.437 170.565 137.026 105.433 170.564 139.002 104.011 170.517 
136.968 105.459 170.57 136.97 105.458 170.57 136.966 105.459 170.57 
136.972 105.457 170.569 136.973 105.456 170.569 136.983 105.452 170.568 
137.023 105.434 170.564 134 107.009 170.017 134 107.009 170.017 
134 107.009 170.017 136.969 105.458 170.57 134 107.009 170.017 
136.978 105.454 170.569 134 107.009 170.017 167.853 88.7174 174.298 
167.85 88.7269 174.307 167.869 88.7301 174.322 164.145 90.2911 173.566 
164.069 90.3228 173.546 162.87 90.6804 173.071 163.576 90.4686 173.349 
161.828 91.0185 172.688 161.603 91.097 172.612 161.539 91.12 172.592 
161.674 91.0714 172.635 161.747 91.0458 172.659 157.324 93.976 173.438 
161.585 91.1032 172.606 157.359 93.9706 173.468 161.653 91.0786 172.628 
156.642 94.2445 173.252 156.557 94.3062 173.298 156.831 94.1572 173.271 
157.244 94.0089 173.42 156.201 94.502 173.34 151 96.0087 170.017 
152 96.0087 171.017 152 96.0087 171.017 152 96.0088 171.017 
152 96.0088 171.017 150.021 97.7807 173.251 149.981 97.8138 173.261 
150.042 97.7652 173.249 150.066 97.7495 173.249 152 96.0088 171.017 
148.772 98.5975 173.154 148.792 98.5884 173.159 148.722 98.6241 173.136 
148.804 98.5813 173.164 145.801 100.026 171.949 146.747 99.5695 172.299 
146.716 99.5834 172.284 148.766 98.6016 173.151 144.939 100.456 171.674 
145.396 100.226 171.811 145.839 100.008 171.962 143.304 101.319 171.323 
143.085 101.442 171.298 143.565 101.176 171.36 144.021 100.931 171.445 
145.114 100.367 171.724 142.781 101.613 171.267 142.561 101.737 171.245 
142.959 101.513 171.285 143.135 101.414 171.303 143.44 101.244 171.339 
143.656 101.125 171.37 142.402 101.828 171.231 142.338 101.864 171.225 
142.432 101.811 171.233 142.568 101.734 171.246 142.785 101.611 171.267 
139.002 104.011 170.518 139.002 104.011 170.518 139.002 104.011 170.518 
142.365 101.849 171.227 142.468 101.79 171.237 137 105.444 170.567 
137.008 105.441 170.566 136.997 105.446 170.567 137.016 105.437 170.565 
137.019 105.436 170.565 139.002 104.011 170.518 136.968 105.458 170.57 
136.974 105.456 170.569 136.983 105.452 170.568 136.996 105.446 170.567 
137.011 105.439 170.566 136.998 105.446 170.567 132 107.009 171.017 
132 107.009 171.017 132 107.009 171.017 132 107.009 171.017 
134 107.009 170.017 136.975 105.456 170.569 136.985 105.451 170.568 
132 107.009 171.017 183.673 81.8572 174.798 183.668 81.8617 174.801 
176.673 85.1446 174.713 176.068 85.3253 174.554 175.901 85.3963 174.539 
172.987 86.6571 174.13 172.976 86.6624 174.13 173.018 86.6487 174.146 
173.471 86.4983 174.316 173.074 86.6346 174.177 167.849 88.7411 174.323 
167.85 88.7718 174.359 167.908 88.7674 174.389 163.9 90.3811 173.49 
164.282 90.2836 173.659 161.772 91.0419 172.68 162.16 90.9168 172.821 
162.37 90.8439 172.89 161.528 91.1248 172.591 161.515 91.1293 172.586 
161.839 91.0161 172.697 157.393 93.9847 173.544 161.535 91.1218 172.593 
157.035 94.0938 173.368 156.115 94.5664 173.39 156.15 94.5826 173.47 
156.353 94.4348 173.361 152 96.0087 171.017 149.942 97.8471 173.271 
150.082 97.742 173.253 150.108 97.7281 173.256 148.926 98.5222 173.201 
148.636 98.6705 173.104 148.884 98.5431 173.188 146.284 99.7964 172.137 
147.362 99.287 172.58 147.303 99.3148 172.553 148.642 98.6681 173.107 
144.605 100.627 171.584 145.275 100.286 171.772 145.676 100.087 171.902 
145.59 100.129 171.874 147.141 99.3963 172.496 143.17 101.394 171.306 
143.335 101.302 171.326 143.443 101.242 171.339 143.696 101.105 171.38 
143.961 100.963 171.432 145.202 100.321 171.747 142.689 101.665 171.258 
142.832 101.584 171.271 143.045 101.464 171.293 143.257 101.345 171.315 
143.231 101.36 171.313 143.376 101.279 171.33 143.53 101.194 171.352 
142.392 101.834 171.23 142.493 101.776 171.239 142.651 101.686 171.254 
142.636 101.695 171.253 142.845 101.577 171.273 143.144 101.408 171.303 
143.272 101.337 171.318 139.002 104.011 170.518 142.468 101.79 171.237 
142.604 101.714 171.25 136.997 105.446 170.567 137.008 105.441 170.566 
137.014 105.438 170.565 137.014 105.438 170.566 136.983 105.452 170.568 
136.99 105.449 170.568 137.007 105.441 170.566 132 107.009 171.017 
194.884 77.0064 174.506 194.884 77.0064 174.507 194.884 77.0064 174.507 
194.884 77.0064 174.506 194.884 77.0064 174.506 194.884 77.0064 174.507 
191.652 78.0058 173.669 191.652 78.0058 173.669 191.652 78.0058 173.669 
191.652 78.0058 173.669 194.884 77.0064 174.507 194.884 77.0064 174.507 
191.652 78.0059 173.669 183.639 81.8777 174.805 183.631 81.8814 174.805 
183.651 81.8758 174.809 183.698 81.9115 174.884 181.683 82.7492 174.849 
181.871 82.7264 174.92 181.59 82.7662 174.821 176.273 85.2806 174.633 
176.442 85.2486 174.706 177.021 85.063 174.833 175.816 85.442 174.546 
176.067 85.3779 174.63 176.119 85.372 174.658 173.939 86.3309 174.446 
175.738 85.4857 174.553 172.997 86.665 174.158 173.036 86.6678 174.205 
173.224 86.5988 174.262 167.974 88.8203 174.491 168.057 88.8774 174.607 
164.527 90.2771 173.835 167.851 88.8379 174.435 162.804 90.7344 173.09 
161.674 91.0746 172.647 161.84 91.0193 172.707 162.082 90.9429 172.798 
162.143 90.923 172.819 163.633 90.5543 173.501 161.511 91.1309 172.586 
161.54 91.1207 172.597 157.539 93.9913 173.739 156.566 94.3715 173.467 
156.278 94.6133 173.693 156.929 94.2093 173.519 150.195 97.6589 173.236 
156.153 94.6433 173.617 149.874 97.9046 173.286 149.701 98.0457 173.316 
150.144 97.7005 173.249 150.177 97.6744 173.241 149.266 98.329 173.277 
148.157 98.9096 172.917 145.435 100.205 171.817 147.542 99.2143 172.679 
147.522 99.2236 172.67 143.671 101.117 171.373 143.545 101.185 171.352 
143.713 101.095 171.382 143.57 101.171 171.355 146.004 101.013 173.009 
146.004 101.013 173.009 146.004 101.013 173.009 147.708 99.1412 172.759 
146.004 101.013 173.009 142.829 101.586 171.271 143.02 101.478 171.29 
143.153 101.403 171.304 143.409 101.261 171.335 143.518 101.2 171.346 
143.184 101.386 171.308 146.004 101.013 173.009 142.607 101.711 171.25 
142.705 101.656 171.26 143.044 101.465 171.293 137.012 105.439 170.566 
202.484 74.8328 176.193 202.415 74.8779 176.215 202.378 74.9012 176.226 
202.546 74.7952 176.177 202.581 74.7758 176.171 200.91 75.4823 176.242 
200.929 75.4769 176.248 200.836 75.4991 176.23 200.982 75.4716 176.262 
194.885 77.0062 174.509 194.885 77.0063 174.508 194.885 77.0063 174.508 
194.885 77.0062 174.508 191.652 78.0058 173.67 191.652 78.0058 173.67 
191.652 78.0059 173.67 191.652 78.0057 173.669 191.652 78.0058 173.669 
194.885 77.0063 174.508 194.885 77.0062 174.508 189.376 80.0484 176.033 
189.369 80.0496 176.031 189.365 80.0611 176.041 189.347 80.085 176.057 
191.652 78.0059 173.67 191.652 78.0059 173.67 186.505 80.005 174.517 
186.505 80.0049 174.517 186.505 80.005 174.518 186.505 80.005 174.517 
186.505 80.0049 174.517 186.505 80.005 174.517 183.624 81.8946 174.818 
183.607 81.9413 174.87 183.763 81.9996 175.039 186.505 80.0051 174.517 
186.505 80.0051 174.517 181.671 82.7717 174.868 181.745 82.779 174.915 
182.261 82.6588 175.043 181.54 82.7902 174.822 181.611 82.7946 174.864 
181.62 82.7905 174.864 181.774 82.7944 174.947 177.788 84.8527 175.051 
175.683 85.516 174.558 175.414 85.6798 174.603 176.336 85.3121 174.724 
174.619 86.0547 174.564 173.095 86.6831 174.299 168.106 88.9212 174.687 
168.252 88.976 174.837 168.79 88.9342 175.121 173.178 86.7144 174.449 
164.614 90.2633 173.886 164.695 90.2576 173.94 167.833 88.9814 174.587 
165.112 90.2533 174.232 164.746 90.2577 173.975 161.716 91.0599 172.664 
161.743 91.0504 172.674 161.839 91.0185 172.708 161.908 90.9952 172.732 
161.976 90.9736 172.756 161.892 90.9995 172.725 164.245 90.502 173.905 
161.558 91.1143 172.605 161.603 91.0985 172.622 161.671 91.0748 172.648 
161.835 91.0193 172.704 161.92 90.9912 172.735 157.6 93.9926 173.816 
157.623 93.9988 173.858 156.157 94.6777 173.702 156.165 94.7176 173.805 
156.234 94.7638 173.992 157.177 94.16 173.701 155.051 96.0354 175.487 
155.024 96.0556 175.5 156.171 94.7411 173.866 149.956 97.9075 173.374 
149.838 98.0628 173.494 150.107 97.7478 173.283 150.175 97.6815 173.25 
149.813 98.1564 173.615 143.571 101.171 171.354 146.004 101.013 173.009 
147.834 99.0852 172.818 147.811 99.0968 172.81 143.09 101.439 171.297 
147.864 99.0728 172.835 213.842 71.4924 177.806 213.829 71.4974 177.807 
209.034 73.2148 177.68 209.064 73.2088 177.689 209.013 73.2218 177.678 
202.175 75.0249 176.281 202.638 74.7473 176.165 200.206 75.5809 176.069 
200.484 75.5483 176.146 200.671 75.5253 176.194 200.819 75.5019 176.235 
201.18 75.4238 176.301 201.19 75.4462 176.33 199.838 75.6121 175.957 
199.818 75.6151 175.952 199.79 75.6154 175.941 199.967 75.6023 175.997 
194.885 77.0061 174.509 194.886 77.0059 174.511 194.886 77.0059 174.511 
194.886 77.006 174.51 199.84 75.6129 175.958 191.652 78.0059 173.67 
191.652 78.0058 173.67 194.886 77.006 174.51 189.332 80.0746 176.038 
[...]
POINT_DATA 5837
SCALARS scalars float
LOOKUP_TABLE default
1 1 1 1 1 1 1 1 1 
1 1 1 1 1 1 1 1 1 
1 1 1 1 1 1 1 1 1 
1 1 1 1 1 1 1 1 1 
1 1 1 1 1 1 1 1 1 
1 1 1 1 1 1 1 1 1 
1 1 1 1 1 1 1 1 1 
1 1 1 1 1 1 1 1 1 
1 1 1 1 1 1 1 1 1 
1 1 1 1 1 1 1 1 1 
1 1 1 1 1 1 1 1 1 
1 1 1 1 1 1 1 1 1 
1 1 1 1 1 1 1 1 1 
1 1 1 1 1 1 1 1 1 
1 1 1 1 1 1 1 1 1 
1 1 1 1 1 1 1 1 1 
1 1 1 1 1 1 1 1 1 
1 1 1 1 1 1 1 1 1 
1 1 1 1 1 1 1 1 1 
1 1 1 1 1 1 1 1 1 
1 1 1 1 1 1 1 1 1 
1 1 1 1 1 1 1 1 1 
1 1 1 1 1 1 1 1 1 
1 1 1 1 1 1 1 1 1 
1 1 1 1 1 1 1 1 1 
1 1 1 1 1 1 1 1 1 
1 1 1 1 1 1 1 1 1 
1 1 1 1 1 1 1 1 1 
1 1 1 1 1 1 1 1 1 
1 1 1 1 1 1 1 1 1 
1 1 1 1 1 1 1 1 1 
1 1 1 1 1 1 1 1 1 
1 1 1 1 1 1 1 1 1 
1 1 1 1 1 1 1 1 1 
1 1 1 1 1 1 1 1 1 
1 1 1 1 1 1 1 1 1 
1 1 1 1 1 1 1 1 1 
1 1 1 1 1 1 1 1 1 
1 1 1 1 1 1 1 1 1 
1 1 1 1 1 1 1 1 1 
1 1 1 1 1 1 1 1 1 
1 1 1 1 1 1 1 1 1 
1 1 1 1 1 1 1 1 1 
1 1 1 1 1 1 1 1 1 
1 1 1 1 1 1 1 1 1 
1 1 1 1 1 1 1 1 1 
1 1 1 1 1 1 1 1 1 
1 1 1 1 1 1 1 1 1 
1 1 1 1 1 1 1 1 1 
1 1 1 1 1 1 1 1 1 
1 1 1 1 1 1 1 1 1 
1 1 1 1 1 1 1 1 1 
1 1 1 1 1 1 1 1 1 
1 1 1 1 1 1 1 1 1 
1 1 1 1 1 1 1 1 1 
1 1 1 1 1 1 1 1 1 
1 1 1 1 1 1 1 1 1 
1 1 1 1 1 1 1 1 1 
1 1 1 1 1 1 1 1 1 
1 1 1 1 1 1 1 1 1 
1 1 1 1 1 1 1 1 1 
1 1 1 1 1 1 1 1 1 
1 1 1 1 1 1 1 1 1 
1 1 1 1 1 1 1 1 1 
1 1 1 1 1 1 1 1 1 
1 1 1 1 1 1 1 1 1 
1 1 1 1 1 1 1 1 1 
1 1 1 1 1 1 1 1 1 
1 1 1 1 1 1 1 1 1 
1 1 1 1 1 1 1 1 1 
1 1 1 1 1 1 1 1 1 
1 1 1 1 1 1 1 1 1 
1 1 1 1 1 1 1 1 1 
1 1 1 1 1 1 1 1 1 
1 1 1 1 1 1 1 1 1 
1 1 1 1 1 1 1 1 1 
1 1 1 1 1 1 1 1 1 
1 1 1 1 1 1 1 1 1 
1 1 1 1 1 1 1 1 1 
1 1 1 1 1 1 1 1 1 
1 1 1 1 1 1 1 1 1 
1 1 1 1 1 1 1 1 1 
1 1 1 1 1 1 1 1 1 
1 1 1 1 1 1 1 1 1 
1 1 1 1 1 1 1 1 1 
1 1 1 1 1 1 1 1 1 
1 1 1 1 1 1 1 1 1 
1 1 1 1 1 1 1 1 1 
1 1 1 1 1 1 1 1 1 
1 1 1 1 1 1 1 1 1 
1 1 1 1 1 1 1 1 1 
1 1 1 1 1 1 1 1 1 
1 1 1 1 1 1 1 1 1 
1 1 1 1 1 1 1 1 1 
1 1 1 1 1 1 1 1 1 
1 1 1 1 1 1 1 1 1 
1 1 1 1 1 1 1 1 1 
1 1 1 1 1 1 1 1 1 
1 1 1 1 1 1 1 1 1 
1 1 1 1 1 1 1 1 1 
1 1 1 1 1 1 1 1 1 
1 1 1 1 1 1 1 1 1 
1 1 1 1 1 1 1 1 1 
1 1 1 1 1 1 1 1 1 
1 1 1 1 1 1 1 1 1 
1 1 1 1 1 1 1 1 1 
1 1 1 1 1 1 1 1 1 
1 1 1 1 1 1 1 1 1 
1 1 1 1 1 1 1 1 1 
1 1 1 1 1 1 1 1 1 
1 1 1 1 1 1 1 1 1 
1 1 1 1 1 1 1 1 1 
1 1 1 1 1 1 1 1 1 
1 1 1 1 1 1 1 1 1 
1 1 1 1 1 1 1 1 1 
1 1 1 1 1 1 1 1 1 
1 1 1 1 1 1 1 1 1 
1 1 1 1 1 1 1 1 1 
1 1 1 1 1 1 1 1 1 
1 1 1 1 1 1 1 1 1 
1 1 1 1 1 1 1 1 1 
1 1 1 1 1 1 1 1 1 
1 1 1 1 1 1 1 1 1 
1 1 1 1 1 1 1 1 1 
1 1 1 1 1 1 1 1 1 
1 1 1 1 1 1 1 1 1 
1 1 1 1 1 1 1 1 1 
1 1 1 1 1 1 1 1 1 
1 1 1 1 1 1 1 1 1 
1 1 1 1 1 1 1 1 1 
1 1 1 1 1 1 1 1 1 
1 1 1 1 1 1 1 1 1 
1 1 1 1 1 1 1 1 1 
1 1 1 1 1 1 1 1 1 
1 1 1 1 1 1 1 1 1 
1 1 1 1 1 1 1 1 1 
1 1 1 1 1 1 1 1 1 
1 1 1 1 1 1 1 1 1 
1 1 1 1 1 1 1 1 1 
1 1 1 1 1 1 1 1 1 
1 1 1 1 1 1 1 1 1 
1 1 1 1 1 1 1 1 1 
1 1 1 1 1 1 1 1 1 
1 1 1 1 1 1 1 1 1 
1 1 1 1 1 1 1 1 1 
1 1 1 1 1 1 1 1 1 
1 1 1 1 1 1 1 1 1 
1 1 1 1 1 1 1 1 1 
1 1 1 1 1 1 1 1 1 
1 1 1 1 1 1 1 1 1 
1 1 1 1 1 1 1 1 1 
1 1 1 1 1 1 1 1 1 
1 1 1 1 1 1 1 1 1 
1 1 1 1 1 1 1 1 1 
1 1 1 1 1 1 1 1 1 
1 1 1 1 1 1 1 1 1 
1 1 1 1 1 1 1 1 1 
1 1 1 1 1 1 1 1 1 
1 1 1 1 1 1 1 1 1 
1 1 1 1 1 1 1 1 1 
1 1 1 1 1 1 1 1 1 
1 1 1 1 1 1 1 1 1 
1 1 1 1 1 1 1 1 1 
1 1 1 1 1 1 1 1 1 
1 1 1 1 1 1 1 1 1 
1 1 1 1 1 1 1 1 1 
1 1 1 1 1 1 1 1 1 
1 1 1 1 1 1 1 1 1 
1 1 1 1 1 1 1 1 1 
1 1 1 1 1 1 1 1 1 
1 1 1 1 1 1 1 1 1 
1 1 1 1 1 1 1 1 1 
1 1 1 1 1 1 1 1 1 
1 1 1 1 1 1 1 1 1 
1 1 1 1 1 1 1 1 1 
1 1 1 1 1 1 1 1 1 
1 1 1 1 1 1 1 1 1 
1 1 1 1 1 1 1 1 1 
1 1 1 1 1 1 1 1 1 
1 1 1 1 1 1 1 1 1 
1 1 1 1 1 1 1 1 1 
1 1 1 1 1 1 1 1 1 
1 1 1 1 1 1 1 1 1 
1 1 1 1 1 1 1 1 1 
1 1 1 1 1 1 1 1 1 
1 1 1 1 1 1 1 1 1 
1 1 1 1 1 1 1 1 1 
1 1 1 1 1 1 1 1 1 
1 1 1 1 1 1 1 1 1 
1 1 1 1 1 1 1 1 1 
1 1 1 1 1 1 1 1 1 
1 1 1 1 1 1 1 1 1 
1 1 1 1 1 1 1 1 1 
1 1 1 1 1 1 1 1 1 
1 1 1 1 1 1 1 1 1 
1 1 1 1 1 1 1 1 1 
1 1 1 1 1 1 1 1 1 
1 1 1 1 1 1 1 1 1 
1 1 1 1 1 1 1 1 1 
1 1 1 1 1 1 1 1 1 
1 1 1 1 1 1 1 1 1 
1 1 1 1 1 1 1 1 1 
1 1 1 1 1 1 1 1 1 
1 1 1 1 1 1 1 1 1 
1 1 1 1 1 1 1 1 1 
1 1 1 1 1 1 1 1 1 
1 1 1 1 1 1 1 1 1 
1 1 1 1 1 1 1 1 1 
1 1 1 1 1 1 1 1 1 
1 1 1 1 1 1 1 1 1 
1 1 1 1 1 1 1 1 1 
1 1 1 1 1 1 1 1 1 
1 1 1 1 1 1 1 1 1 
1 1 1 1 1 1 1 1 1 
1 1 1 1 1 1 1 1 1 
1 1 1 1 1 1 1 1 1 
1 1 1 1 1 1 1 1 1 
1 1 1 1 1 1 1 1 1 
1 1 1 1 1 1 1 1 1 
1 1 1 1 1 1 1 1 1 
1 1 1 1 1 1 1 1 1 
1 1 1 1 1 1 1 1 1 
1 1 1 1 1 1 1 1 1 
1 1 1 1 1 1 1 1 1 
1 1 1 1 1 1 1 1 1 
1 1 1 1 1 1 1 1 1 
1 1 1 1 1 1 1 1 1 
1 1 1 1 1 1 1 1 1 
1 1 1 1 1 1 1 1 1 
1 1 1 1 1 1 1 1 1 
1 1 1 1 1 1 1 1 1 
1 1 1 1 1 1 1 1 1 
1 1 1 1 1 1 1 1 1 
1 1 1 1 1 1 1 1 1 
1 1 1 1 1 1 1 1 1 
1 1 1 1 1 1 1 1 1 
1 1 1 1 1 1 1 1 1 
1 1 1 1 1 1 1 1 1 
1 1 1 1 1 1 1 1 1 
1 1 1 1 1 1 1 1 1 
1 1 1 1 1 1 1 1 1 
1 1 1 1 1 1 1 1 1 
1 1 1 1 1 1 1 1 1 
1 1 1 1 1 1 1 1 1 
1 1 1 1 1 1 1 1 1 
1 1 1 1 1 1 1 1 1 
1 1 1 1 1 1 1 1 1 
1 1 1 1 1 1 1 1 1 
1 1 1 1 1 1 1 1 1 
1 1 1 1 1 1 1 1 1 
1 1 1 1 1 1 1 1 1 
1 1 1 1 1 1 1 1 1 
1 1 1 1 1 1 1 1 1 
1 1 1 1 1 1 1 1 1 
1 1 1 1 1 1 1 1 1 
1 1 1 1 1 1 1 1 1 
1 1 1 1 1 1 1 1 1 
1 1 1 1 1 1 1 1 1 
1 1 1 1 1 1 1 1 1 
1 1 1 1 1 1 1 1 1 
1 1 1 1 1 1 1 1 1 
1 1 1 1 1 1 1 1 1 
1 1 1 1 1 1 1 1 1 
1 1 1 1 1 1 1 1 1 
1 1 1 1 1 1 1 1 1 
1 1 1 1 1 1 1 1 1 
1 1 1 1 1 1 1 1 1 
1 1 1 1 1 1 1 1 1 
1 1 1 1 1 1 1 1 1 
1 1 1 1 1 1 1 1 1 
1 1 1 1 1 1 1 1 1 
1 1 1 1 1 1 1 1 1 
1 1 1 1 1 1 1 1 1 
1 1 1 1 1 1 1 1 1 
1 1 1 1 1 1 1 1 1 
1 1 1 1 1 1 1 1 1 
1 1 1 1 1 1 1 1 1 
1 1 1 1 1 1 1 1 1 
1 1 1 1 1 1 1 1 1 
1 1 1 1 1 1 1 1 1 
1 1 1 1 1 1 1 1 1 
1 1 1 1 1 1 1 1 1 
1 1 1 1 1 1 1 1 1 
1 1 1 1 1 1 1 1 1 
1 1 1 1 1 1 1 1 1 
1 1 1 1 1 1 1 1 1 
1 1 1 1 1 1 1 1 1 
1 1 1 1 1 1 1 1 1 
1 1 1 1 1 1 1 1 1 
1 1 1 1 1 1 1 1 1 
1 1 1 1 1 1 1 1 1 
1 1 1 1 1 1 1 1 1 
1 1 1 1 1 1 1 1 1 
1 1 1 1 1 1 1 1 1 
1 1 1 1 1 1 1 1 1 
1 1 1 1 1 1 1 1 1 
1 1 1 1 1 1 1 1 1 
1 1 1 1 1 1 1 1 1 
1 1 1 1 1 1 1 1 1 
1 1 1 1 1 1 1 1 1 
1 1 1 1 1 1 1 1 1 
1 1 1 1 1 1 1 1 1 
1 1 1 1 1 1 1 1 1 
1 1 1 1 1 1 1 1 1 
1 1 1 1 1 1 1 1 1 
1 1 1 1 1 1 1 1 1 
1 1 1 1 1 1 1 1 1 
1 1 1 1 1 1 1 1 1 
1 1 1 1 1 1 1 1 1 
1 1 1 1 1 1 1 1 1 
1 1 1 1 1 1 1 1 1 
1 1 1 1 1 1 1 1 1 
1 1 1 1 1 1 1 1 1 
1 1 1 1 1 1 1 1 1 
1 1 1 1 1 1 1 1 1 
1 1 1 1 1 1 1 1 1 
1 1 1 1 1 1 1 1 1 
1 1 1 1 1 1 1 1 1 
1 1 1 1 1 1 1 1 1 
1 1 1 1 1 1 1 1 1 
1 1 1 1 1 1 1 1 1 
1 1 1 1 1 1 1 1 1 
1 1 1 1 1 1 1 1 1 
1 1 1 1 1 1 1 1 1 
1 1 1 1 1 1 1 1 1 
1 1 1 1 1 1 1 1 1 
1 1 1 1 1 1 1 1 1 
1 1 1 1 1 1 1 1 1 
1 1 1 1 1 1 1 1 1 
1 1 1 1 1 1 1 1 1 
1 1 1 1 1 1 1 1 1 
1 1 1 1 1 1 1 1 1 
1 1 1 1 1 1 1 1 1 
1 1 1 1 1 1 1 1 1 
1 1 1 1 1 1 1 1 1 
1 1 1 1 1 1 1 1 1 
1 1 1 1 1 1 1 1 1 
1 1 1 1 1 1 1 1 1 
1 1 1 1 1 1 1 1 1 
1 1 1 1 1 1 1 1 1 
1 1 1 1 1 1 1 1 1 
1 1 1 1 1 1 1 1 1 
1 1 1 1 1 1 1 1 1 
1 1 1 1 1 1 1 1 1 
1 1 1 1 1 1 1 1 1 
1 1 1 1 1 1 1 1 1 
1 1 1 1 1 1 1 1 1 
1 1 1 1 1 1 1 1 1 
1 1 1 1 1 1 1 1 1 
1 1 1 1 1 1 1 1 1 
1 1 1 1 1 1 1 1 1 
1 1 1 1 1 1 1 1 1 
1 1 1 1 1 1 1 1 1 
1 1 1 1 1 1 1 1 1 
1 1 1 1 1 1 1 1 1 
1 1 1 1 1 1 1 1 1 
1 1 1 1 1 1 1 1 1 
1 1 1 1 1 1 1 1 1 
1 1 1 1 1 1 1 1 1 
1 1 1 1 1 1 1 1 1 
1 1 1 1 1 1 1 1 1 
1 1 1 1 1 1 1 1 1 
1 1 1 1 1 1 1 1 1 
1 1 1 1 1 1 1 1 1 
1 1 1 1 1 1 1 1 1 
1 1 1 1 1 1 1 1 1 
1 1 1 1 1 1 1 1 1 
1 1 1 1 1 1 1 1 1 
1 1 1 1 1 1 1 1 1 
1 1 1 1 1 1 1 1 1 
1 1 1 1 1 1 1 1 1 
1 1 1 1 1 1 1 1 1 
1 1 1 1 1 1 1 1 1 
1 1 1 1 1 1 1 1 1 
1 1 1 1 1 1 1 1 1 
1 1 1 1 1 1 1 1 1 
1 1 1 1 1 1 1 1 1 
1 1 1 1 1 1 1 1 1 
1 1 1 1 1 1 1 1 1 
1 1 1 1 1 1 1 1 1 
1 1 1 1 1 1 1 1 1 
1 1 1 1 1 1 1 1 1 
1 1 1 1 1 1 1 1 1 
1 1 1 1 1 1 1 1 1 
1 1 1 1 1 1 1 1 1 
1 1 1 1 1 1 1 1 1 
1 1 1 1 1 1 1 1 1 
1 1 1 1 1 1 1 1 1 
1 1 1 1 1 1 1 1 1 
1 1 1 1 1 1 1 1 1 
1 1 1 1 1 1 1 1 1 
1 1 1 1 1 1 1 1 1 
1 1 1 1 1 1 1 1 1 
1 1 1 1 1 1 1 1 1 
1 1 1 1 1 1 1 1 1 
1 1 1 1 1 1 1 1 1 
1 1 1 1 1 1 1 1 1 
1 1 1 1 1 1 1 1 1 
1 1 1 1 1 1 1 1 1 
1 1 1 1 1 1 1 1 1 
1 1 1 1 1 1 1 1 1 
1 1 1 1 1 1 1 1 1 
1 1 1 1 1 1 1 1 1 
1 1 1 1 1 1 1 1 1 
1 1 1 1 1 1 1 1 1 
1 1 1 1 1 1 1 1 1 
1 1 1 1 1 1 1 1 1 
1 1 1 1 1 1 1 1 1 
1 1 1 1 1 1 1 1 1 
1 1 1 1 1 1 1 1 1 
1 1 1 1 1 1 1 1 1 
1 1 1 1 1 1 1 1 1 
1 1 1 1 1 1 1 1 1 
1 1 1 1 1 1 1 1 1 
1 1 1 1 1 1 1 1 1 
1 1 1 1 1 1 1 1 1 
1 1 1 1 1 1 1 1 1 
1 1 1 1 1 1 1 1 1 
1 1 1 1 1 1 1 1 1 
1 1 1 1 1 1 1 1 1 
1 1 1 1 1 1 1 1 1 
1 1 1 1 1 1 1 1 1 
1 1 1 1 1 1 1 1 1 
1 1 1 1 1 1 1 1 1 
1 1 1 1 1 1 1 1 1 
1 1 1 1 1 1 1 1 1 
1 1 1 1 1 1 1 1 1 
1 1 1 1 1 1 1 1 1 
1 1 1 1 1 1 1 1 1 
1 1 1 1 1 1 1 1 1 
1 1 1 1 1 1 1 1 1 
1 1 1 1 1 1 1 1 1 
1 1 1 1 1 1 1 1 1 
1 1 1 1 1 1 1 1 1 
1 1 1 1 1 1 1 1 1 
1 1 1 1 1 1 1 1 1 
1 1 1 1 1 1 1 1 1 
1 1 1 1 1 1 1 1 1 
1 1 1 1 1 1 1 1 1 
1 1 1 1 1 1 1 1 1 
1 1 1 1 1 1 1 1 1 
1 1 1 1 1 1 1 1 1 
1 1 1 1 1 1 1 1 1 
1 1 1 1 1 1 1 1 1 
1 1 1 1 1 1 1 1 1 
1 1 1 1 1 1 1 1 1 
1 1 1 1 1 1 1 1 1 
1 1 1 1 1 1 1 1 1 
1 1 1 1 1 1 1 1 1 
1 1 1 1 1 1 1 1 1 
1 1 1 1 1 1 1 1 1 
1 1 1 1 1 1 1 1 1 
1 1 1 1 1 1 1 1 1 
1 1 1 1 1 1 1 1 1 
1 1 1 1 1 1 1 1 1 
1 1 1 1 1 1 1 1 1 
1 1 1 1 1 1 1 1 1 
1 1 1 1 1 1 1 1 1 
1 1 1 1 1 1 1 1 1 
1 1 1 1 1 1 1 1 1 
1 1 1 1 1 1 1 1 1 
1 1 1 1 1 1 1 1 1 
1 1 1 1 1 1 1 1 1 
1 1 1 1 1 1 1 1 1 
1 1 1 1 1 1 1 1 1 
1 1 1 1 1 1 1 1 1 
1 1 1 1 1 1 1 1 1 
1 1 1 1 1 1 1 1 1 
1 1 1 1 1 1 1 1 1 
1 1 1 1 1 1 1 1 1 
1 1 1 1 1 1 1 1 1 
1 1 1 1 1 1 1 1 1 
1 1 1 1 1 1 1 1 1 
1 1 1 1 1 1 1 1 1 
1 1 1 1 1 1 1 1 1 
1 1 1 1 1 1 1 1 1 
1 1 1 1 1 1 1 1 1 
1 1 1 1 1 1 1 1 1 
1 1 1 1 1 1 1 1 1 
1 1 1 1 1 1 1 1 1 
1 1 1 1 1 1 1 1 1 
1 1 1 1 1 1 1 1 1 
1 1 1 1 1 1 1 1 1 
1 1 1 1 1 1 1 1 1 
1 1 1 1 1 1 1 1 1 
1 1 1 1 1 1 1 1 1 
1 1 1 1 1 1 1 1 1 
1 1 1 1 1 1 1 1 1 
1 1 1 1 1 1 1 1 1 
1 1 1 1 1 1 1 1 1 
1 1 1 1 1 1 1 1 1 
1 1 1 1 1 1 1 1 1 
1 1 1 1 1 1 1 1 1 
1 1 1 1 1 1 1 1 1 
1 1 1 1 1 1 1 1 1 
1 1 1 1 1 1 1 1 1 
1 1 1 1 1 1 1 1 1 
1 1 1 1 1 1 1 1 1 
1 1 1 1 1 1 1 1 1 
1 1 1 1 1 1 1 1 1 
1 1 1 1 1 1 1 1 1 
1 1 1 1 1 1 1 1 1 
1 1 1 1 1 1 1 1 1 
1 1 1 1 1 1 1 1 1 
1 1 1 1 1 1 1 1 1 
1 1 1 1 1 1 1 1 1 
1 1 1 1 1 1 1 1 1 
1 1 1 1 1 1 1 1 1 
1 1 1 1 1 1 1 1 1 
1 1 1 1 1 1 1 1 1 
1 1 1 1 1 1 1 1 1 
1 1 1 1 1 1 1 1 1 
1 1 1 1 1 1 1 1 1 
1 1 1 1 1 1 1 1 1 
1 1 1 1 1 1 1 1 1 
1 1 1 1 1 1 1 1 1 
1 1 1 1 1 1 1 1 1 
1 1 1 1 1 1 1 1 1 
1 1 1 1 1 1 1 1 1 
1 1 1 1 1 1 1 1 1 
1 1 1 1 1 1 1 1 1 
1 1 1 1 1 1 1 1 1 
1 1 1 1 1 1 1 1 1 
1 1 1 1 1 1 1 1 1 
1 1 1 1 1 1 1 1 1 
1 1 1 1 1 1 1 1 1 
1 1 1 1 1 1 1 1 1 
1 1 1 1 1 1 1 1 1 
1 1 1 1 1 1 1 1 1 
1 1 1 1 1 1 1 1 1 
1 1 1 1 1 1 1 1 1 
1 1 1 1 1 1 1 1 1 
1 1 1 1 1 1 1 1 1 
1 1 1 1 1 1 1 1 1 
1 1 1 1 1 1 1 1 1 
1 1 1 1 1 1 1 1 1 
1 1 1 1 1 1 1 1 1 
1 1 1 1 1 1 1 1 1 
1 1 1 1 1 1 1 1 1 
1 1 1 1 1 1 1 1 1 
1 1 1 1 1 1 1 1 1 
1 1 1 1 1 1 1 1 1 
1 1 1 1 1 1 1 1 1 
1 1 1 1 1 1 1 1 1 
1 1 1 1 1 1 1 1 1 
1 1 1 1 1 1 1 1 1 
1 1 1 1 1 1 1 1 1 
1 1 1 1 1 1 1 1 1 
1 1 1 1 1 1 1 1 1 
1 1 1 1 1 1 1 1 1 
1 1 1 1 1 1 1 1 1 
1 1 1 1 1 1 1 1 1 
1 1 1 1 1 1 1 1 1 
1 1 1 1 1 1 1 1 1 
1 1 1 1 1 1 1 1 1 
1 1 1 1 1 1 1 1 1 
1 1 1 1 1 1 1 1 1 
1 1 1 1 1 1 1 1 1 
1 1 1 1 1 1 1 1 1 
1 1 1 1 1 1 1 1 1 
1 1 1 1 1 1 1 1 1 
1 1 1 1 1 1 1 1 1 
1 1 1 1 1 1 1 1 1 
1 1 1 1 1 1 1 1 1 
1 1 1 1 1 1 1 1 1 
1 1 1 1 1 1 1 1 1 
1 1 1 1 1 1 1 1 1 
1 1 1 1 1 1 1 1 1 
1 1 1 1 1 1 1 1 1 
1 1 1 1 1 1 1 1 1 
1 1 1 1 1 1 1 1 1 
1 1 1 1 1 1 1 1 1 
1 1 1 1 1 1 1 1 1 
1 1 1 1 1 1 1 1 1 
1 1 1 1 1 1 1 1 1 
1 1 1 1 1 1 1 1 1 
1 1 1 1 1 1 1 1 1 
1 1 1 1 1 1 1 1 1 
1 1 1 1 1 1 1 1 1 
1 1 1 1 1 1 1 1 1 
1 1 1 1 1 1 1 1 1 
1 1 1 1 1 1 1 1 1 
1 1 1 1 1 1 1 1 1 
1 1 1 1 1 1 1 1 1 
1 1 1 1 1 1 1 1 1 
1 1 1 1 1 1 1 1 1 
1 1 1 1 1 1 1 1 1 
1 1 1 1 1 1 1 1 1 
1 1 1 1 1 1 1 1 1 
1 1 1 1 1 1 1 1 1 
1 1 1 1 1 1 1 1 1 
1 1 1 1 1 1 1 1 1 
1 1 1 1 1 1 1 1 1 
1 1 1 1 1 1 1 1 1 
1 1 1 1 1 1 1 1 1 
1 1 1 1 1 1 1 1 1 
1 1 1 1 1 1 1 1 1 
1 1 1 1 1 1 1 1 1 
1 1 1 1 1 1 1 1 1 
1 1 1 1 1 1 1 1 1 
1 1 1 1 1 1 1 1 1 
1 1 1 1 1 1 1 1 1 
1 1 1 1 1 1 1 1 1 
1 1 1 1 1 1 1 1 1 
1 1 1 1 1 1 1 1 1 
1 1 1 1 1 1 1 1 1 
1 1 1 1 1 1 1 1 1 
1 1 1 1 1 1 1 1 1 
1 1 1 1 1 1 1 1 1 
1 1 1 1 1 1 1 1 1 
1 1 1 1 1 1 1 1 1 
1 1 1 1 1 1 1 1 1 
1 1 1 1 1 1 1 1 1 
1 1 1 1 1 1 1 1 1 
1 1 1 1 1 1 1 1 1 
1 1 1 1 1 1 1 1 1 
1 1 1 1 1 1 1 1 1 
1 1 1 1 1 1 1 1 1 
1 1 1 1 1 1 1 1 1 
1 1 1 1 1 1 1 1 1 
1 1 1 1 1 1 1 1 1 
1 1 1 1 1 1 1 1 1 
1 1 1 1 1 1 1 1 1 
1 1 1 1 1 1 1 1 1 
1 1 1 1 1 1 1 1 1 
1 1 1 1 1 1 1 1 1 
1 1 1 1 1 1 1 1 1 
1 1 1 1 1 1 1 1 1 
1 1 1 1 1 1 1 1 1 
1 1 1 1 1 1 1 1 1 
1 1 1 1 1 1 1 1 1 
1 1 1 1 1 1 1 1 1 
1 1 1 1 1 1 1 1 1 
1 1 1 1 1 1 1 1 1 
1 1 1 1 1 1 1 1 1 
1 1 1 1 1 1 1 1 1 
1 1 1 1 1 1 1 1 1 
1 1 1 1 1 1 1 1 1 
1 1 1 1 1 1 1 1 1 
1 1 1 1 1 1 1 1 1 
1 1 1 1 1 1 1 1 1 
1 1 1 1 1 1 1 1 1 
1 1 1 1 1 1 1 1 1 
1 1 1 1 1 1 1 1 1 
1 1 1 1 1 1 1 1 1 
1 1 1 1 1 1 1 1 1 
1 1 1 1 1 1 1 1 1 
1 1 1 1 1 1 1 1 1 
1 1 1 1 1 
NORMALS Normals float
0.414105 0.87333 0.256537 0.368653 0.684099 0.629368 0.405477 0.827006 0.389421 
-0.414131 -0.904046 -0.105811 0.409015 0.908465 0.086013 0.421038 0.839321 -0.343899 
0.424901 0.837633 -0.343263 0 -0.970142 -0.242536 0 -1 0 
-0.6 -0.8 0 0.6 -0.8 0 0 1 0 
-0.495014 -0.831018 0.253713 -0.499137 -0.814617 0.295401 0.47959 0.764512 -0.430715 
0.47959 0.764512 -0.430715 0.47959 0.764512 -0.430715 -0.493468 -0.836936 0.236703 
-0.493477 -0.835255 0.242547 -0.493492 -0.834465 0.245223 -0.493258 -0.835923 0.240684 
-0.475723 -0.767964 0.428858 -0.472946 -0.760172 0.44549 -0.467788 -0.746245 0.473596 
-0.494364 -0.850661 0.178828 0.389718 0.562381 -0.729279 -0.493187 -0.852389 0.173782 
-0.493319 -0.838123 0.232779 -0.499707 -0.856889 0.126623 -0.498392 -0.843082 0.202033 
-0.497896 -0.838536 0.221264 0.446208 0.69336 -0.565819 -0.499044 -0.861096 0.097304 
0.0326245 -0.809893 -0.58567 0.0928848 -0.910709 -0.402469 -0.276265 -0.736707 -0.617204 
0.495341 0.828639 -0.260758 0.576945 -0.806564 -0.128798 -0.0459599 0.120154 -0.991691 
0.407306 0.912489 0.0382952 0.229856 0.683894 -0.692427 -0.0422413 0.917782 0.394832 
0.337874 0.852576 -0.398691 0.143881 0.506497 -0.850153 0.388348 0.849099 0.358072 
0.408055 0.855826 0.317888 0.407027 0.912997 0.0276731 0.349101 0.639131 0.685303 
0.388995 0.912979 -0.123095 0 -0.970142 -0.242536 0 -1 0 
-0.6 -0.8 0 0.382152 0.765373 0.517845 0.6 -0.8 0 
0.398378 0.91547 -0.056654 0 1 0 -0.373587 -0.702633 0.605591 
-0.373587 -0.702633 0.605591 -0.373587 -0.702633 0.605591 0.434878 0.689388 -0.579332 
0.434878 0.689388 -0.579332 -0.431789 -0.720328 0.542849 0.43099 0.719818 -0.544159 
-0.421951 -0.784867 0.453808 -0.404521 -0.860285 0.310277 -0.423442 -0.794521 0.435239 
-0.398445 -0.345711 0.849544 0.369867 0.915743 -0.156883 -0.425481 -0.835224 0.348378 
0.126308 0.825853 0.549558 -0.425481 -0.835224 0.348378 0.32054 0.946021 0.0479361 
0.419165 0.840115 -0.344248 -0.419012 -0.839282 0.346461 0.425024 0.837544 -0.343328 
-0.425466 -0.835235 0.348369 0.417284 0.83691 -0.354196 0 -0.970142 0.242536 
0 -0.970142 -0.242536 0 -1 0 -0.6 -0.8 0 
0.6 -0.8 0 -0.434268 -0.684485 0.585569 -0.434268 -0.684485 0.585569 
-0.434268 -0.684485 0.585569 -0.447671 -0.693386 0.564629 0 1 0 
0.12984 0.706712 0.695486 0.163091 0.742163 0.650074 0.523995 0.526739 -0.66931 
0.142153 0.720792 0.678418 -0.497972 -0.824441 0.268927 -0.449368 -0.888271 0.0950932 
-0.494461 -0.832726 0.24915 -0.0859135 -0.65587 -0.749969 -0.493519 -0.834466 0.245163 
-0.498108 -0.819276 0.284033 -0.496549 -0.827148 0.263183 0.493996 0.834219 -0.245043 
0.491602 0.819844 -0.29357 0.49349 0.828825 -0.263661 -0.493956 -0.832008 0.25253 
-0.499628 -0.812516 0.300317 -0.476422 -0.769633 0.425073 -0.483835 -0.790689 0.37512 
0.460204 0.724099 -0.513706 -0.495916 -0.842909 0.208737 -0.492448 -0.827888 0.268508 
0.493524 0.831556 -0.25485 -0.495425 -0.830001 0.256226 -0.496417 -0.833293 0.243298 
-0.489385 -0.807045 0.330425 0.477214 0.771914 -0.420019 0.473873 0.762752 -0.440061 
-0.00590661 -0.919928 -0.392044 -0.152079 -0.862308 -0.483008 0.326776 -0.928459 -0.176584 
0.488025 0.870395 0.0651512 0.495 0.829742 -0.257881 -0.389444 -0.911384 0.133091 
-0.407862 -0.911013 -0.0608604 -0.390382 -0.911723 0.127915 -0.408836 -0.910988 -0.05436 
-0.407995 -0.911728 -0.0478688 -0.0108817 0.911938 0.410184 -0.267187 -0.728146 0.631201 
-0.400414 -0.91546 0.0400281 -0.389875 -0.91179 0.128984 0.402589 0.915239 -0.0160951 
0.41263 0.89853 0.149602 0.409325 0.910717 0.0552095 0 -0.970142 -0.242536 
0 -1 0 -0.6 -0.8 0 0.6 -0.8 0 
0 -0.970142 0.242536 -0.243256 -0.687765 0.683963 0.356119 0.876377 -0.324256 
0 1 0 0.336126 0.751612 -0.567537 0.336126 0.751612 -0.567537 
0.365786 0.779772 -0.508091 -0.365825 -0.781022 0.506139 0.370623 0.762737 -0.529972 
-0.424897 -0.812682 0.398762 -0.424897 -0.812682 0.398762 -0.422848 -0.813964 0.398324 
-0.406164 -0.816199 0.410914 -0.423096 -0.814015 0.397957 -0.369432 -0.703569 0.607051 
-0.369432 -0.703569 0.607051 -0.369432 -0.703569 0.607051 0.430922 0.702486 -0.566409 
0.434878 0.689388 -0.579332 -0.35935 -0.92103 0.150237 -0.385585 -0.875585 0.290988 
-0.42174 -0.775295 0.470164 -0.378974 -0.910274 0.166672 -0.3909 -0.892258 0.225995 
0.396647 0.87294 -0.283983 -0.425481 -0.835224 0.348378 0.387986 0.903098 -0.184066 
-0.425188 -0.836203 0.346382 0.406398 0.844225 -0.349464 0.406398 0.844225 -0.349464 
0.419 0.836014 -0.354288 0 -0.970142 0.242536 0.460391 0.696934 -0.549839 
-0.447671 -0.693386 0.564629 0.45642 0.725917 -0.514515 0.180011 0.760372 0.624043 
0.484589 0.873625 -0.0441945 0.147181 0.725436 0.672369 -0.50095 -0.81639 0.287327 
-0.476029 -0.861417 0.177077 -0.42882 -0.903021 0.0258326 0.469793 0.353686 -0.808827 
-0.494052 -0.832623 0.250301 -0.494573 -0.830462 0.256379 0.492059 0.83812 -0.235441 
-0.495391 -0.829973 0.256382 -0.515266 -0.785065 0.343763 0.494201 0.834401 -0.244008 
0.494199 0.838641 -0.229015 0.494314 0.852175 -0.171615 0.493087 0.83974 -0.227382 
-0.495418 -0.822031 0.28076 0.492799 0.836594 -0.23929 0.470199 0.752831 -0.460607 
0.488378 0.807771 -0.330141 0.493812 0.830397 -0.25805 0.480605 0.782044 -0.396769 
0.490487 0.816737 -0.303912 0.490626 0.808531 -0.324906 -0.484646 -0.779243 0.397364 
-0.496338 -0.834086 0.240728 -0.492849 -0.820662 0.28916 -0.479873 -0.779613 0.402401 
0.485768 0.797728 -0.357293 0.480014 0.780511 -0.400487 -0.495639 -0.86246 0.102492 
-0.491872 -0.820383 0.291605 0 -0.894427 -0.447214 0.191717 0.480336 0.855875 
0.352494 0.721829 0.595576 -0.397881 -0.914774 0.0698553 -0.410156 -0.868419 -0.278605 
-0.273056 -0.416467 -0.867177 0.340296 0.869055 -0.359086 -0.376922 -0.900141 0.218348 
-0.345211 -0.859106 0.377844 0.395775 0.792877 0.463366 0 -0.970142 0.242536 
-0.164399 -0.986394 0 -0.330863 -0.943446 0.020982 -0.0368587 -0.997226 -0.0646728 
-0.89611 -0.0168474 0.443511 -0.723127 -0.628012 0.287555 -0.421038 -0.897607 0.130495 
-0.707107 0 -0.707107 -0.707107 0 -0.707107 -0.707107 0 -0.707107 
-0.707107 0 -0.707107 0.55849 0.80924 -0.182261 0.776533 0.548599 -0.309895 
-0.707107 0 -0.707107 0.333884 0.751431 -0.569098 0.333884 0.751431 -0.569098 
0.334516 0.752508 -0.567302 0.336126 0.751612 -0.567537 0.321522 0.70881 -0.627864 
0.321427 0.707408 -0.62949 0.322075 0.709137 -0.62721 0.365786 0.779772 -0.508091 
0.365786 0.779772 -0.508091 -0.362499 -0.774396 0.518561 0.370623 0.762737 -0.529972 
-0.379172 -0.717014 0.584909 -0.372841 -0.753139 0.542006 -0.406164 -0.816199 0.410914 
-0.360214 -0.740469 0.567407 -0.424897 -0.812682 0.398762 -0.420051 -0.817985 0.393011 
-0.421748 -0.81413 0.399151 -0.374418 -0.699795 0.608357 -0.379292 -0.69062 0.615778 
0.422962 0.707606 -0.566036 -0.371227 -0.699062 0.611149 -0.414399 -0.782289 0.465078 
-0.253591 -0.950094 -0.181697 -0.127622 -0.885466 -0.446836 -0.348015 -0.921559 0.17209 