# vtk DataFile Version 4.2
vtk output
ASCII
DATASET POLYDATA
POINTS 1208 float
100.125 72.5744 211.233 100.125 72.5008 211.336 100.061 72.5854 211.307 
100.214 72.586 211.204 100.333 72.4252 211.318 100.385 72.5778 211.243 
100.071 72.6434 211.246 100.134 72.6543 211.201 100.239 72.6545 211.202 
100.122 72.7048 211.285 100.205 72.7063 211.239 100.458 72.2489 211.421 
100.334 72.2681 211.452 100.186 72.3683 211.475 100.073 72.5155 211.512 
100.595 72.6065 211.306 100.078 72.6603 211.6 100.396 72.7012 211.292 
100.274 72.7663 211.38 117.027 66.8054 212.804 111.414 68.0001 212.692 
111.311 68.0153 212.691 111.616 67.9618 212.766 115.807 67.2528 212.734 
111.342 68.1446 212.669 109.021 69.2571 212.397 108.787 69.1571 212.461 
103.902 70.82 211.862 100.143 72.2739 211.799 101.368 72.2458 211.506 
101.895 71.4115 211.759 102.47 71.3859 211.664 100.072 72.522 211.897 
101.245 72.7106 211.607 100.532 72.8123 211.483 123.133 64.7149 213.634 
124.243 64.8331 213.622 125.489 64.6886 213.837 125.805 64.5339 213.948 
116.757 66.7733 212.87 119.381 66.4303 213.018 123.181 65.446 213.381 
123.616 65.4165 213.429 111.103 68.0353 212.754 112.103 67.825 212.913 
116.721 67.1154 212.79 117.687 67.334 212.889 109.986 68.6323 212.589 
111.91 68.2011 212.729 105.856 69.8742 212.397 108.363 69.9333 212.328 
110.91 69.2233 212.578 100.149 72.0134 212.244 100.545 71.6185 212.364 
101.624 71.1228 212.224 101.999 71.1502 211.934 102.31 70.9121 212.104 
103.207 70.7845 211.941 102.867 71.0328 211.804 100.722 71.6918 212.048 
100.706 72.9171 211.7 125.485 64.1644 214.114 126.008 64.2884 214.114 
126.695 64.2632 214.315 121.426 65.3656 213.483 124.526 65.4939 213.64 
117.134 66.0688 213.414 118.636 65.9618 213.287 110.073 67.8488 213.357 
112.549 67.3971 213.272 108.872 68.4928 212.945 108.127 68.688 213.017 
113.566 68.3864 212.851 102.66 70.4977 212.686 103.341 70.5479 212.192 
104.833 69.8728 212.649 100.099 71.8838 212.492 100.048 71.8997 212.581 
108.823 70.801 212.542 100.045 71.977 212.502 100.055 72.1558 212.599 
100.448 72.9326 212.719 101.462 73.3288 212.526 101.737 73.3391 212.461 
102.2 73.4554 212.793 101.569 73.3377 212.453 131.265 63.149 215.445 
131.376 63.1482 215.466 131.357 63.0906 215.499 131.481 63.1092 215.542 
125.421 63.8205 214.439 127.36 64.3881 214.48 128.483 63.7606 214.865 
131.478 63.1994 215.52 127.71 64.9049 214.608 111.224 67.2017 214.154 
120.699 66.272 213.289 122.062 66.7171 213.584 108.379 68.2941 213.492 
102.668 70.3606 213.354 103.749 69.8838 213.614 104.715 69.6987 213.047 
116.439 69.4192 213.575 100.046 71.9495 212.664 108.58 72.2878 213.215 
103.248 74.0357 213.926 128.797 63.1871 215.275 129.052 62.9195 215.626 
124.371 63.5787 215.152 128.828 63.462 215.064 131.457 63.0053 215.672 
121.959 64.3189 214.673 124.876 63.6881 214.655 115.265 65.9467 214.477 
114.454 66.1808 214.609 108.339 68.2059 213.847 109.91 67.5703 214.482 
104.892 69.4143 214.655 100.257 71.705 213.541 100.363 71.6551 213.657 
101.547 70.995 214.092 100.161 72.1808 213.508 100.261 72.3772 213.739 
105.803 73.3764 213.296 100.368 72.6093 213.666 108.089 73.5125 213.992 
102.106 73.7738 214.174 102.894 74.0874 214.21 140.431 61.55 217.818 
140.324 61.6121 217.804 140.534 61.5173 217.869 130.207 63.0407 215.6 
132.032 62.5682 216.414 136.558 62.5503 217.051 136.956 62.2891 217.225 
137.67 62.5526 217.161 138.044 62.5527 217.209 140.499 61.6161 217.827 
138.307 62.5046 217.282 122.149 64.0325 215.667 132.224 63.3976 215.88 
133.327 63.5236 216.213 136.463 62.912 216.952 138.254 62.6258 217.256 
117.149 65.2021 215.389 130.347 63.9814 215.321 114.915 65.8863 215.578 
111.749 66.9577 215.312 100.265 71.7619 213.63 100.435 71.7466 213.886 
100.235 71.9448 213.671 100.719 71.6412 214.18 100.366 72.3559 214.042 
100.702 72.7904 214.168 101.313 73.3177 214.339 107.079 74.9122 215.237 
102.852 74.1952 215.161 104 74.7472 215.546 196.07 51.8678 218.552 
196.002 51.8832 218.591 196.095 51.943 218.535 196.077 51.83 218.618 
189.315 52.9917 218.465 189.193 52.9389 218.587 189.203 53.11 218.458 
189.45 52.9732 218.463 189.568 52.9046 218.553 196.17 51.8898 218.562 
187.47 53.9468 218.194 187.439 53.8554 218.297 189.425 53.1308 218.415 
187.575 53.8981 218.219 140.099 61.446 218.028 140.695 61.552 217.912 
140.988 61.543 218.035 131.081 62.4041 216.671 134.355 62.7857 216.679 
135.102 62.4046 217.045 136.84 61.9627 217.497 140.767 61.7299 217.907 
121.987 64.0293 216.483 110.562 67.3292 215.502 108.757 67.9342 215.368 
104.223 69.9152 215.625 104.891 69.7387 215.981 108.307 68.1256 215.675 
102.151 71.2346 215.438 102.787 70.9705 215.827 100.655 72.0254 214.457 
101.571 73.2435 215.092 101.81 73.5273 214.93 207.231 49.2418 219.649 
207.175 49.2584 219.685 207.255 49.3156 219.628 207.243 49.2132 219.715 
201.745 50.6271 219.111 207.323 49.2704 219.658 199.347 51.3284 218.762 
199.336 51.2372 218.84 199.187 51.3882 218.789 195.868 51.7749 218.812 
195.98 52.0912 218.557 196.352 51.8235 218.689 196.332 52.0716 218.532 
186.889 54.2867 218.343 187.375 53.6134 218.613 187.828 53.8674 218.302 
189.833 53.3276 218.399 175.996 56.1143 219.426 171.634 56.9615 219.389 
171.522 57.1083 219.345 150.598 59.9213 219.613 150.555 59.9255 219.641 
150.565 59.9774 219.604 150.648 59.9014 219.664 145.122 60.4954 219.135 
145.058 60.4993 219.159 145.103 60.5491 219.116 145.147 60.4757 219.187 
147.644 60.8267 218.906 148.293 60.5855 219.049 148.633 60.6473 219.006 
150.657 59.9533 219.627 148.753 60.6985 218.973 130.963 62.1794 217.272 
136.186 61.51 218.206 139.427 61.8335 217.765 139.378 61.435 218.107 
141.33 61.342 218.301 147.675 60.9574 218.814 147.771 60.9582 218.781 
148.057 60.8764 218.819 148.27 60.9265 218.833 148.583 60.9013 218.9 
139.819 62.2258 217.701 148.082 61.0235 218.802 138.091 63.3533 217.295 
115.291 65.8742 216.533 111.453 67.2198 216.439 105.485 69.4179 215.995 
106.571 69.1153 216.405 101.231 71.9974 215.175 100.865 72.5043 214.799 
101.059 72.382 215.037 101.149 72.6789 215.044 114.555 74.3085 216.338 
112.482 75.5298 216.857 108.109 76.5187 217.532 107.346 76.7151 218.126 
207.072 49.1719 219.904 207.16 49.4594 219.637 207.498 49.2312 219.785 
199.386 51.0168 219.09 207.469 49.4553 219.617 198.414 51.4353 218.916 
199.977 51.5023 218.727 190.47 52.1789 219.469 192.431 52.5134 218.908 
195.403 52.265 218.643 196.54 51.4082 219.125 200.817 52.0248 218.486 
188.332 53.3592 218.645 190.818 53.4691 218.416 188.729 54.2304 218.173 
200.532 53.4449 218.058 169.61 57.0799 219.608 175.319 56.8688 219.251 
176.923 56.6569 219.096 201.162 55.9092 217.709 178.149 57.1838 218.815 
187.441 57.5036 217.805 165.313 58.4109 219.447 168.157 58.447 219.218 
150.604 59.8586 219.793 150.4 60.0575 219.629 150.86 59.9356 219.744 
138.384 61.1493 218.702 144.977 60.4605 219.31 144.954 60.5998 219.128 
145.401 60.4803 219.265 147.173 60.7305 219.083 149.008 60.6802 219.081 
150.651 60.1149 219.606 215.265 59.236 218.999 130.547 62.1003 218.141 
131.515 61.9636 218.402 135.229 61.5038 218.512 136.345 61.2833 218.798 
143.436 61.1459 218.768 145.203 60.7062 219.097 147.443 61.1344 218.873 
147.906 61.2485 218.824 204.221 61.8509 218.43 214.638 60.9942 219.822 
140.686 64.2783 218.088 144.711 63.0738 218.604 203.819 63.2226 218.953 
116.288 66.0691 218.247 204.388 64.2778 219.829 107.822 68.8568 216.965 
111.624 67.8413 218.172 102.469 71.7432 216.263 106.223 70.3511 218.214 
175.085 71.3761 218.891 179.258 70.8363 219.117 103.087 72.6462 217.398 
175.497 72.5237 219.214 177.042 72.2019 219.287 179.634 71.8379 219.712 
175.04 73.7341 219.808 179.082 72.534 220.049 171.56 74.7495 219.897 
173.931 74.4576 220.065 170.274 75.7497 220.384 106.507 76.6001 218.372 
114.335 76.9421 218.625 107.049 76.82 218.661 111.355 77.2878 218.751 
209.628 48.7402 220.306 205.635 49.7936 219.757 206.651 49.6271 219.698 
209.572 49.4079 219.812 212.941 48.7467 220.103 214.155 50.2453 219.317 
195.302 51.137 219.667 213.818 54.7722 218.447 233.607 53.6694 220.697 
171.817 56.187 220.095 229.105 54.8392 220.185 229.874 55.2898 220.622 
233.818 54.4219 221.23 159.563 58.8655 220.119 160.87 57.9903 220.493 
147.223 60.1324 219.545 150.057 59.9229 219.847 151.455 60.2168 219.75 
151.191 59.6707 220.133 154.353 59.6128 220.266 158.827 59.3006 220.012 
158.155 59.0057 220.267 223.838 57.1125 220.222 225.764 56.698 220.384 
135.176 61.3956 219.121 136.496 61.1653 219.222 148.971 60.1145 219.655 
150.013 60.6453 219.392 152.404 60.7643 219.632 155.358 60.3589 219.866 
157.496 60.3145 219.792 179.981 61.015 218.456 129.574 62.2559 218.328 
146.579 61.3044 218.941 151.05 61.4948 219.33 215.466 61.371 220.59 
183.095 64.131 218.515 204.271 64.7479 220.285 184.608 67.4238 219.118 
188.266 66.9765 219.163 201.46 65.5422 220.236 135.789 68.6567 218.562 
190.776 67.4114 219.632 187.12 68.5429 219.794 172.767 71.1434 218.884 
103.89 72.2744 218.168 103.466 72.819 217.968 103.477 73.7484 217.981 
180.007 72.0727 220.054 103.833 74.1212 218.461 168.847 74.5861 219.839 
168.971 75.2344 220.066 167.317 75.8495 220.348 169.177 76.2001 220.693 
169.848 76.155 220.804 167.408 76.6396 220.833 167.703 76.5577 220.72 
167.988 76.5706 220.86 168.7 76.4929 220.916 110.7 77.6529 219.653 
167.555 76.6133 220.748 141.806 84.4327 221.386 141.525 84.3115 221.415 
141.628 84.4535 221.487 142.356 84.2968 221.238 142.193 84.0078 221.124 
142.085 84.5576 221.474 142.825 84.4246 221.373 143.514 84.3736 221.444 
143.38 84.2554 221.348 142.398 84.682 221.68 143.225 84.5858 221.629 
244.044 39.913 222.301 243.964 39.8384 222.279 243.899 40.1169 222.289 
244.092 39.9646 222.371 242.419 43.5998 221.889 218.571 46.8469 221.286 
242.064 44.9594 221.823 210.704 47.8046 221.174 211.664 47.8223 221.049 
206.568 48.5804 220.769 232.063 49.8715 219.916 241.228 48.1563 221.979 
189.301 51.7156 220.576 232.763 50.5875 219.971 240.235 50.5443 222.374 
[...]
POINT_DATA 1208
SCALARS scalars float
LOOKUP_TABLE default
1 1 1 1 1 1 1 1 1 
1 1 1 1 1 1 1 1 1 
1 1 1 1 1 1 1 1 1 
1 1 1 1 1 1 1 1 1 
1 1 1 1 1 1 1 1 1 
1 1 1 1 1 1 1 1 1 
1 1 1 1 1 1 1 1 1 
1 1 1 1 1 1 1 1 1 
1 1 1 1 1 1 1 1 1 
1 1 1 1 1 1 1 1 1 
1 1 1 1 1 1 1 1 1 
1 1 1 1 1 1 1 1 1 
1 1 1 1 1 1 1 1 1 
1 1 1 1 1 1 1 1 1 
1 1 1 1 1 1 1 1 1 
1 1 1 1 1 1 1 1 1 
1 1 1 1 1 1 1 1 1 
1 1 1 1 1 1 1 1 1 
1 1 1 1 1 1 1 1 1 
1 1 1 1 1 1 1 1 1 
1 1 1 1 1 1 1 1 1 
1 1 1 1 1 1 1 1 1 
1 1 1 1 1 1 1 1 1 
1 1 1 1 1 1 1 1 1 
1 1 1 1 1 1 1 1 1 
1 1 1 1 1 1 1 1 1 
1 1 1 1 1 1 1 1 1 
1 1 1 1 1 1 1 1 1 
1 1 1 1 1 1 1 1 1 
1 1 1 1 1 1 1 1 1 
1 1 1 1 1 1 1 1 1 
1 1 1 1 1 1 1 1 1 
1 1 1 1 1 1 1 1 1 
1 1 1 1 1 1 1 1 1 
1 1 1 1 1 1 1 1 1 
1 1 1 1 1 1 1 1 1 
1 1 1 1 1 1 1 1 1 
1 1 1 1 1 1 1 1 1 
1 1 1 1 1 1 1 1 1 
1 1 1 1 1 1 1 1 1 
1 1 1 1 1 1 1 1 1 
1 1 1 1 1 1 1 1 1 
1 1 1 1 1 1 1 1 1 
1 1 1 1 1 1 1 1 1 
1 1 1 1 1 1 1 1 1 
1 1 1 1 1 1 1 1 1 
1 1 1 1 1 1 1 1 1 
1 1 1 1 1 1 1 1 1 
1 1 1 1 1 1 1 1 1 
1 1 1 1 1 1 1 1 1 
1 1 1 1 1 1 1 1 1 
1 1 1 1 1 1 1 1 1 
1 1 1 1 1 1 1 1 1 
1 1 1 1 1 1 1 1 1 
1 1 1 1 1 1 1 1 1 
1 1 1 1 1 1 1 1 1 
1 1 1 1 1 1 1 1 1 
1 1 1 1 1 1 1 1 1 
1 1 1 1 1 1 1 1 1 
1 1 1 1 1 1 1 1 1 
1 1 1 1 1 1 1 1 1 
1 1 1 1 1 1 1 1 1 
1 1 1 1 1 1 1 1 1 
1 1 1 1 1 1 1 1 1 
1 1 1 1 1 1 1 1 1 
1 1 1 1 1 1 1 1 1 
1 1 1 1 1 1 1 1 1 
1 1 1 1 1 1 1 1 1 
1 1 1 1 1 1 1 1 1 
1 1 1 1 1 1 1 1 1 
1 1 1 1 1 1 1 1 1 
1 1 1 1 1 1 1 1 1 
1 1 1 1 1 1 1 1 1 
1 1 1 1 1 1 1 1 1 
1 1 1 1 1 1 1 1 1 
1 1 1 1 1 1 1 1 1 
1 1 1 1 1 1 1 1 1 
1 1 1 1 1 1 1 1 1 
1 1 1 1 1 1 1 1 1 
1 1 1 1 1 1 1 1 1 
1 1 1 1 1 1 1 1 1 
1 1 1 1 1 1 1 1 1 
1 1 1 1 1 1 1 1 1 
1 1 1 1 1 1 1 1 1 
1 1 1 1 1 1 1 1 1 
1 1 1 1 1 1 1 1 1 
1 1 1 1 1 1 1 1 1 
1 1 1 1 1 1 1 1 1 
1 1 1 1 1 1 1 1 1 
1 1 1 1 1 1 1 1 1 
1 1 1 1 1 1 1 1 1 
1 1 1 1 1 1 1 1 1 
1 1 1 1 1 1 1 1 1 
1 1 1 1 1 1 1 1 1 
1 1 1 1 1 1 1 1 1 
1 1 1 1 1 1 1 1 1 
1 1 1 1 1 1 1 1 1 
1 1 1 1 1 1 1 1 1 
1 1 1 1 1 1 1 1 1 
1 1 1 1 1 1 1 1 1 
1 1 1 1 1 1 1 1 1 
1 1 1 1 1 1 1 1 1 
1 1 1 1 1 1 1 1 1 
1 1 1 1 1 1 1 1 1 
1 1 1 1 1 1 1 1 1 
1 1 1 1 1 1 1 1 1 
1 1 1 1 1 1 1 1 1 
1 1 1 1 1 1 1 1 1 
1 1 1 1 1 1 1 1 1 
1 1 1 1 1 1 1 1 1 
1 1 1 1 1 1 1 1 1 
1 1 1 1 1 1 1 1 1 
1 1 1 1 1 1 1 1 1 
1 1 1 1 1 1 1 1 1 
1 1 1 1 1 1 1 1 1 
1 1 1 1 1 1 1 1 1 
1 1 1 1 1 1 1 1 1 
1 1 1 1 1 1 1 1 1 
1 1 1 1 1 1 1 1 1 
1 1 1 1 1 1 1 1 1 
1 1 1 1 1 1 1 1 1 
1 1 1 1 1 1 1 1 1 
1 1 1 1 1 1 1 1 1 
1 1 1 1 1 1 1 1 1 
1 1 1 1 1 1 1 1 1 
1 1 1 1 1 1 1 1 1 
1 1 1 1 1 1 1 1 1 
1 1 1 1 1 1 1 1 1 
1 1 1 1 1 1 1 1 1 
1 1 1 1 1 1 1 1 1 
1 1 1 1 1 1 1 1 1 
1 1 1 1 1 1 1 1 1 
1 1 1 1 1 1 1 1 1 
1 1 1 1 1 1 1 1 1 
1 1 
NORMALS Normals float
-0.455796 -0.545458 -0.703367 -0.591626 -0.697286 -0.404687 -0.870857 -0.397469 -0.289181 
-0.00310353 -0.339609 -0.940562 -0.196439 -0.638517 -0.744116 0.198929 -0.133802 -0.970837 
-0.914549 0.206781 -0.347622 -0.309087 0.289796 -0.905805 0.183189 0.299076 -0.93648 
-0.476177 0.844668 -0.244524 -0.0247851 0.808264 -0.588298 -0.239253 -0.732787 -0.63701 
-0.400682 -0.785187 -0.47216 -0.620025 -0.666162 -0.414485 -0.965871 -0.250149 -0.0672192 
0.374348 0.52165 -0.766645 -0.912428 0.406886 0.0438117 0.309425 0.662037 -0.682615 
-0.0915523 0.948529 -0.303169 -0.0608618 -0.346833 -0.93595 0.0599517 -0.558086 -0.827614 
-0.183495 -0.498637 -0.847166 0.202051 -0.331267 -0.921649 -0.098946 -0.319122 -0.942534 
-0.00240996 -0.213157 -0.977015 0.0380412 -0.244707 -0.96885 -0.108136 -0.467974 -0.877101 
-0.0244462 -0.490886 -0.870881 -0.691427 -0.668096 -0.274912 0.226448 0.197361 -0.953819 
-0.164622 -0.566165 -0.807686 -0.00350554 -0.346542 -0.938028 -0.99738 0.0680036 0.0246619 
0.146093 0.695627 -0.703392 0.0201678 0.914232 -0.40469 -0.0785216 -0.686341 -0.723029 
0.111717 -0.358757 -0.926721 -0.0123525 -0.333984 -0.942498 0.244986 -0.276302 -0.929322 
-0.107725 -0.526896 -0.843075 0.0477513 -0.310006 -0.949534 0.0594701 0.0801605 -0.995006 
0.125234 -0.0210247 -0.991904 -0.21409 -0.711014 -0.669795 0.276771 -0.374596 -0.884916 
0.0253398 0.0482854 -0.998512 0.145015 0.240081 -0.95986 -0.0126354 -0.239056 -0.970923 
0.199052 -0.238139 -0.950615 -0.150696 -0.767715 -0.622819 0.010602 -0.0352018 -0.999324 
0.204143 0.27479 -0.939583 -0.862942 -0.374425 -0.339319 -0.475772 -0.828576 -0.295131 
-0.405759 -0.819471 -0.404755 -0.258444 -0.676792 -0.689318 -0.262826 -0.787656 -0.557244 
0.0171292 -0.51458 -0.857271 -0.129375 -0.644407 -0.753659 -0.404765 -0.814501 -0.415635 
0.0382622 0.884315 -0.465321 -0.131243 -0.612853 -0.779222 0.140792 -0.538408 -0.83084 
0.231505 -0.398697 -0.887382 -0.20653 -0.400462 -0.892735 0.234196 0.276958 -0.931905 
-0.166054 -0.727246 -0.665988 -0.0540587 -0.68988 -0.721902 -0.248014 -0.906085 -0.342781 
-0.036078 -0.684302 -0.728305 -0.185263 -0.652614 -0.734693 -0.336911 -0.75586 -0.561397 
0.0665377 -0.0525138 -0.996401 -0.350484 -0.87208 -0.341523 -0.221447 -0.842525 -0.491032 
-0.221719 -0.815105 -0.535205 -0.596071 -0.784511 -0.171 0.540648 -0.718154 0.438126 
0.119435 0.2122 -0.9699 -0.963648 -0.131291 -0.23269 -0.995872 0.074061 -0.0524723 
-0.595853 0.802862 0.0193161 -0.212307 0.955608 -0.204303 0.0636011 0.925049 -0.374486 
0.0123692 0.903871 -0.427626 -0.132305 0.930796 -0.340756 0.106381 -0.180968 -0.977719 
0.337701 -0.207484 -0.9181 0.160909 -0.713897 -0.681512 0.451158 -0.510239 -0.732197 
-0.106454 -0.775039 -0.622883 0.202497 -0.206139 -0.957341 0.244914 -0.264247 -0.93284 
0.376099 0.134754 -0.916728 0.339921 0.179771 -0.923112 -0.308097 -0.918162 -0.249107 
0.0119215 -0.28253 -0.959184 0.195793 0.302812 -0.932722 -0.367085 -0.838692 -0.402298 
-0.358096 -0.93327 -0.0278446 -0.392168 -0.908456 -0.144612 -0.190718 -0.930993 -0.311253 
0.178606 0.419515 -0.890004 -0.905184 -0.403096 0.134744 0.117383 0.499049 -0.858587 
-0.100422 0.901516 -0.420933 0.106921 -0.586277 -0.803023 -0.0254014 -0.920013 -0.391064 
-0.108152 -0.968114 -0.225961 0.272388 -0.381337 -0.883395 0.22276 -0.803228 -0.552452 
-0.286905 -0.862691 -0.416472 -0.0149074 -0.803295 -0.595394 -0.260695 -0.881848 -0.392915 
-0.42289 -0.895867 -0.136335 -0.384172 -0.913734 -0.132299 -0.217403 -0.962323 -0.163313 
-0.359531 -0.932935 0.0192151 -0.741776 -0.65319 0.152027 -0.611325 -0.769653 0.184162 
-0.462121 -0.886519 0.0229838 -0.96379 0.216541 0.155624 -0.930768 0.233786 0.281097 
0.140073 0.722283 -0.677264 -0.809672 0.554487 0.192291 0.14723 0.63083 -0.761825 
-0.346639 0.928567 -0.132683 -0.356784 0.913421 -0.195877 0.0534326 -0.490137 -0.870006 
0.00895864 -0.204545 -0.978816 0.244691 -0.711669 -0.658524 0.0383622 -0.68989 -0.722897 
0.158997 -0.767171 -0.621424 0.0806454 -0.424894 -0.901644 0.117733 -0.475686 -0.871701 
0.132624 -0.31511 -0.939743 0.169583 -0.164234 -0.971735 0.259996 -0.0664869 -0.963318 
0.26082 -0.259371 -0.929893 -0.232327 -0.962049 -0.143126 0.435731 -0.282782 -0.854501 
0.236564 -0.158358 -0.958624 0.148693 -0.0402452 -0.988064 0.340009 0.12346 -0.932283 
-0.228013 -0.958436 -0.171495 0.227743 -0.00846732 -0.973684 -0.300365 -0.953781 0.00913708 
-0.258721 -0.963007 0.0753773 -0.862898 -0.353444 0.361226 -0.759289 -0.345301 0.551586 
-0.894734 -0.152892 0.419613 -0.681285 -0.503109 0.531725 -0.818319 0.212389 0.534083 
-0.649384 0.424736 0.630793 -0.621064 0.724579 0.298772 -0.0943954 0.750766 -0.653788 
-0.575667 0.80964 0.114416 -0.245926 0.920693 -0.303059 -0.159043 -0.566592 -0.808504 
-0.541648 -0.425037 -0.725231 -0.144092 -0.137471 -0.979969 -0.0723552 -0.869348 -0.488874 
-0.224064 -0.500993 -0.835943 -0.274989 -0.758397 -0.590944 -0.264776 -0.268144 -0.926279 
0.067514 -0.61773 -0.783487 0.0922292 -0.647372 -0.756574 0.221848 -0.553924 -0.802466 
-0.00332663 -0.103309 -0.994644 -0.236503 -0.751338 -0.616082 0.0612935 -0.16137 -0.984989 
0.077741 -0.566789 -0.820187 -0.0205385 -0.854553 -0.518958 0.318324 -0.615628 -0.720883 
0.407107 -0.455487 -0.791704 -0.0739789 -0.916595 -0.392913 0.0793269 -0.608591 -0.789509 
-0.00728665 -0.64524 -0.763945 -0.0107076 -0.707208 -0.706924 0.289454 0.000706112 -0.957192 
-0.281545 -0.952956 0.11228 -0.277978 -0.943106 0.182424 -0.285816 -0.942103 0.175357 
-0.462936 -0.785559 0.410594 -0.414584 -0.759769 0.50087 -0.34413 -0.91827 0.195846 
-0.537484 -0.761081 0.363134 -0.487366 -0.655357 0.577046 -0.762568 -0.307438 0.569185 
-0.674371 0.501371 0.542081 -0.526359 0.83203 0.175136 -0.149635 -0.638949 -0.754555 
-0.584124 -0.47945 -0.654925 -0.147338 -0.205249 -0.967556 -0.0328293 -0.918728 -0.393524 
-0.0246262 -0.624462 -0.780667 0.275247 -0.601345 -0.750082 0.065998 -0.490896 -0.868715 
-0.132703 -0.701558 -0.700147 -0.240222 -0.41928 -0.875499 -0.303622 -0.701606 -0.644642 
-0.355537 -0.111508 -0.927987 0.256034 -0.723684 -0.64088 0.0762377 -0.337937 -0.938076 
-0.20791 -0.243224 -0.947426 -0.198293 -0.666499 -0.718651 0.0717437 -0.332421 -0.940398 
0.0396294 -0.151162 -0.987714 -0.109635 -0.4138 -0.903742 -0.244066 -0.573482 -0.782017 
-0.195129 -0.354076 -0.914634 -0.00224647 -0.613705 -0.789532 -0.406152 -0.778945 -0.477792 
-0.114252 -0.215543 -0.969787 0.156491 -0.86776 -0.471702 0.0524501 -0.641677 -0.76518 
-0.306162 -0.748476 -0.588259 -0.122558 -0.316306 -0.940707 -0.0330522 -0.961176 -0.273949 
-0.23965 -0.57799 -0.780061 -0.0087009 -0.789013 -0.614314 0.0947551 -0.766389 -0.635349 
0.37361 -0.291523 -0.880585 0.204857 -0.431496 -0.878547 -0.186152 -0.937047 -0.295448 
0.0698669 -0.868831 -0.490154 -0.0177219 -0.522166 -0.85266 -0.0302102 -0.74225 -0.669442 
0.191116 -0.70395 -0.684054 -0.373693 -0.35045 -0.858801 -0.123339 -0.185452 -0.974882 
0.0145737 -0.544597 -0.838571 0.208904 0.00289489 -0.977932 0.346924 0.117826 -0.930463 
0.192238 -0.0709739 -0.978778 0.139676 0.0533362 -0.98876 0.286001 0.25864 -0.922664 
-0.329209 -0.930402 0.161166 -0.14797 -0.949272 0.277467 -0.394265 -0.826356 0.402107 
-0.396314 -0.873692 0.28213 -0.711912 -0.348273 0.609826 -0.789683 0.244371 0.562746 
-0.699619 -0.0821478 0.709779 -0.668077 0.447813 0.594253 0.248513 0.633249 -0.732965 
0.182488 0.676832 -0.713159 -0.0131088 0.863331 -0.504468 -0.11021 0.930219 -0.350065 
-0.334821 -0.750794 -0.569389 -0.38276 -0.185586 -0.905015 0.107901 -0.781637 -0.61433 
-0.0263998 -0.76833 -0.639509 0.073133 -0.376177 -0.923657 -0.173294 -0.666244 -0.72532 
0.0661491 -0.433796 -0.898579 0.00204145 -0.79171 -0.610894 -0.0126963 -0.575622 -0.817617 
-0.203311 -0.402431 -0.892588 0.105004 -0.706231 -0.700152 0.177982 -0.419663 -0.890059 
-0.223044 -0.629241 -0.744518 0.125847 -0.338926 -0.932358 -0.0278517 -0.26499 -0.963849 
0.000725307 -0.273145 -0.961973 -0.0704442 -0.418789 -0.905347 -0.171343 -0.164502 -0.971381 
-0.098393 -0.267161 -0.958616 0.0903365 -0.0861383 -0.992179 -0.0482701 -0.20465 -0.977644 
-0.0116908 -0.0931311 -0.995585 -0.0507383 -0.351683 -0.934743 0.00906842 -0.145902 -0.989258 
-0.0930258 -0.860348 -0.501147 -0.290402 -0.518688 -0.804132 0.309318 -0.620809 -0.72036 
-0.0388209 -0.942795 -0.331106 -0.186396 -0.903027 -0.387038 -0.206245 -0.534562 -0.819577 
0.0737692 -0.7441 -0.663983 0.0374638 -0.567856 -0.822275 0.334101 -0.402126 -0.85245 
0.173275 -0.188091 -0.966746 0.193276 0.336099 -0.921782 -0.265931 -0.956985 -0.116023 
-0.0480194 -0.988613 -0.142616 -0.0565735 -0.921311 -0.384688 0.0393411 -0.960905 -0.274068 
-0.0478045 -0.783207 -0.619921 0.129518 -0.331954 -0.934362 -0.259723 -0.176225 -0.949468 
0.127068 0.186787 -0.974148 0.0609388 0.347789 -0.93559 0.28527 0.583455 -0.760395 
0.187631 0.248124 -0.950383 0.107539 0.0535005 -0.99276 0.06996 0.527559 -0.846633 
-0.149047 -0.953359 0.262473 0.210182 0.641975 -0.737354 -0.198456 -0.832609 0.517085 
-0.294568 -0.863242 0.40993 -0.558253 -0.492568 0.66763 -0.377486 -0.694482 0.612535 
0.00779255 0.234063 -0.97219 0.227135 0.35198 -0.908031 -0.78637 -0.0968333 0.610119 
-0.00704686 0.362162 -0.932088 0.173332 0.476091 -0.862144 0.325501 0.461667 -0.825174 
0.153972 0.603316 -0.782497 0.274101 0.653951 -0.705136 0.112153 0.449098 -0.886416 
0.120528 0.441698 -0.889031 0.164963 0.745284 -0.646018 -0.387396 0.884151 -0.261152 
0.0655306 0.788225 -0.611889 -0.182461 0.96666 -0.179659 0.076648 0.835435 -0.544218 
-0.0626704 -0.696631 -0.714688 -0.211978 -0.83508 -0.507648 -0.245641 -0.72724 -0.640923 
-0.0112895 -0.439255 -0.898292 -0.219901 -0.507915 -0.832866 -0.067077 -0.37805 -0.923352 
-0.198823 -0.824206 -0.53024 0.0879171 -0.0456345 -0.995082 0.260024 0.291166 -0.920657 
-0.192743 -0.719602 -0.6671 0.0697022 0.435121 -0.89767 0.0751074 0.611264 -0.787855 
0.406674 0.702688 -0.58382 -0.120412 -0.527183 -0.841178 -0.197912 -0.638517 -0.743725 
0.152893 -0.766301 -0.624024 -0.120248 -0.671127 -0.731525 0.206313 -0.415898 -0.8857 
0.188977 -0.725689 -0.661561 -0.153612 -0.714874 -0.682172 -0.0478686 -0.477212 -0.877484 
-0.0918268 -0.564 -0.820653 0.189352 0.549845 -0.813521 0.274016 0.572091 -0.773063 
-0.0370347 -0.997936 -0.0524624 0.0651832 -0.958064 -0.279041 -0.000480505 -0.773287 -0.634055 
0.0727406 -0.347749 -0.934762 0.115256 -0.328493 -0.937448 -0.0199636 -0.431957 -0.901673 
-0.0631731 -0.293845 -0.953763 -0.227292 0.121082 -0.96627 -0.331513 -0.937138 0.108955 
0.0170071 -0.385595 -0.922511 0.104119 -0.144539 -0.984006 0.303559 0.812721 -0.49733 
-0.0122313 0.125466 -0.992023 0.165201 0.745325 -0.64591 0.0904093 0.398813 -0.912565 
0.112582 0.327347 -0.938173 0.0356749 0.645677 -0.762777 0.172091 0.190522 -0.966481 
0.125997 0.34278 -0.930928 -0.00119141 0.547238 -0.836976 -0.0305967 0.0765288 -0.996598 
-0.667934 -0.364033 0.64911 -0.749135 -0.125874 0.650349 -0.842587 0.32871 0.426611 
0.338944 0.623915 -0.704165 -0.849153 0.0513355 0.525646 -0.0256915 0.196279 -0.980211 
0.0494816 0.506735 -0.860681 -0.213785 0.46936 -0.856736 0.181445 0.759464 -0.624733 
0.152721 0.77229 -0.616639 -0.337437 0.72469 -0.6008 0.192259 0.722227 -0.664398 
0.207667 0.811374 -0.546394 0.063539 0.808765 -0.58469 -0.0761769 0.98061 -0.180557 
-0.0431295 0.672619 -0.738731 -0.204297 0.512682 -0.833918 -0.50152 0.533201 -0.681304 
-0.456026 0.777436 -0.433167 0.0469059 0.513472 -0.856823 -0.116386 0.326705 -0.937933 
-0.120796 0.779033 -0.615237 0.0684852 0.83904 -0.539742 0.345253 0.636896 -0.689321 
0.255544 0.310864 -0.915457 0.0509593 0.897717 -0.437615 0.131612 0.850755 -0.508816 
0.597368 0.0560127 -0.800009 -0.131431 -0.121919 -0.9838 0.252325 0.132842 -0.958481 
0.742778 0.4702 -0.476647 0.425843 0.0709853 -0.902008 -0.0254114 -0.510629 -0.859425 
0.647704 0.17043 -0.742585 -0.0915963 -0.715265 -0.692825 -0.237279 -0.508282 -0.827857 
-0.202582 -0.786595 -0.583291 0.0577449 -0.102372 -0.993069 0.528361 0.31057 -0.790178 
-0.183204 -0.915481 -0.358234 0.146519 0.0319831 -0.988691 0.516812 0.577431 -0.632043 
-0.128558 -0.813413 -0.567302 -0.195034 -0.858387 -0.474482 -0.237587 -0.776606 -0.583468 
0.0995245 -0.865745 -0.49049 -0.0937847 -0.723096 -0.684352 -0.136367 -0.873761 -0.466846 
0.00431755 -0.251468 -0.967856 -0.126975 -0.985592 0.111739 0.335515 0.820149 -0.46345 
0.201466 0.758147 -0.620181 0.0714129 -0.0219172 -0.997206 0.169323 0.772345 -0.61222 
-0.627776 -0.352782 0.69386 -0.00917002 0.153449 -0.988114 -0.870432 -0.0767122 0.486275 
0.290652 0.827737 -0.479973 -0.716472 0.663583 0.215233 -0.670306 0.717762 0.188433 
-0.489619 0.860062 0.143415 -0.0985295 0.838601 -0.535761 0.0998407 0.896575 -0.431492 
-0.225405 0.970224 -0.0886496 -0.136661 0.580737 -0.802539 -0.0327413 0.584783 -0.810528 
-0.644373 0.763107 0.0495078 -0.243672 0.849669 -0.467639 -0.460733 0.0490589 -0.886182 
0.00785523 0.00613971 -0.99995 -0.726427 0.42505 -0.540033 0.0964925 0.329224 -0.939309 
-0.361718 0.252104 -0.897554 0.161258 0.194501 -0.967556 0.406016 0.339548 -0.848445 
0.23365 0.811176 -0.536097 0.175406 0.551894 -0.815258 -0.480144 0.456925 -0.748787 
-0.292345 0.954991 -0.0502611 0.555342 0.161345 -0.815821 -0.0335504 0.998591 0.0411053 
0.140552 0.918203 -0.370337 0.397538 -0.287275 -0.871457 0.21177 -0.741936 -0.636148 
0.0112215 -0.538094 -0.84281 0.776764 -0.55662 -0.294639 0.688768 -0.072013 -0.721397 
0.866146 -0.129983 -0.482592 0.697834 0.037688 -0.715268 -0.215456 -0.590894 -0.777447 
-0.0725242 -0.377865 -0.923016 0.106884 -0.258766 -0.960008 -0.190571 -0.456496 -0.869076 
0.247036 -0.153201 -0.956819 -0.103953 -0.37445 -0.921402 0.041873 -0.302618 -0.952192 
0.0767255 -0.293479 -0.952882 0.783322 0.33027 -0.52662 -0.174665 -0.298408 -0.93832 
0.0954037 -0.173428 -0.980215 0.251015 -0.0479095 -0.966797 0.554509 0.108595 -0.825061 
0.133024 -0.0125297 -0.991034 -0.0104938 -0.346731 -0.937906 -0.0688904 -0.763382 -0.642263 
0.765785 0.31297 -0.561803 -0.130797 -0.93145 -0.339548 -0.230842 -0.916929 -0.325505 
0.207217 0.814103 -0.542493 -0.134457 -0.943499 -0.302871 0.0134054 -0.936098 -0.351483 
-0.28092 -0.808507 -0.517108 0.023119 -0.890128 -0.455125 -0.175686 -0.806215 -0.564935 
-0.184676 -0.975281 -0.121333 0.290407 0.787946 -0.542958 -0.292963 -0.931737 0.214565 
0.326076 0.910074 -0.255811 0.293507 0.913018 -0.283288 0.202542 0.822322 -0.531755 
0.394627 0.87339 -0.28541 -0.725506 -0.227266 0.649608 0.0852714 0.0364458 -0.995691 
-0.818065 0.251079 0.517425 -0.781262 0.388575 0.488507 0.0666573 0.217308 -0.973825 
-0.542505 0.792383 0.278958 0.29052 0.856756 -0.426108 -0.452431 0.878393 0.15405 
0.312489 0.863282 -0.396352 -0.334951 0.931433 0.142268 0.0162295 0.36258 -0.931811 
-0.136233 0.946244 -0.293365 -0.0321325 0.326634 -0.944605 0.0806093 0.764702 -0.639322 
0.106695 0.339702 -0.934462 -0.0760277 0.890484 -0.448617 0.413705 -0.0423228 -0.909427 
-0.145678 0.4706 -0.870238 -0.0498372 0.377332 -0.924736 0.398314 0.423076 -0.81385 
0.0263413 0.992536 0.119076 -0.361055 0.924374 0.123173 -0.528992 0.689646 -0.494525 
-0.235243 0.285375 -0.929097 0.244787 0.513841 -0.822221 -0.17344 0.944465 -0.279112 
-0.182419 0.872249 -0.453767 -0.468861 0.840214 -0.272416 0.177394 -0.00442349 -0.98413 
0.218837 0.177313 -0.959516 0.515662 0.669437 -0.534739 -0.0973326 0.975336 -0.198107 
0.0675272 0.949861 -0.305293 0.275285 -0.930138 -0.243024 -0.162631 -0.615257 -0.771369 
-0.158362 -0.848868 -0.504325 0.952621 -0.041088 -0.301371 0.909651 0.139933 -0.391094 
0.880857 0.250258 -0.401823 -0.123998 -0.905558 -0.405697 0.800323 0.418114 -0.429725 
0.717234 0.599766 -0.354763 0.423534 0.738146 -0.525128 -0.183638 -0.957944 -0.220499 
0 -0.992278 -0.124035 0 -1 0 -0.351123 -0.936329 0 
0.351123 -0.936329 0 -0.160815 -0.979063 -0.124796 0 1 0 
0.342876 0.850252 -0.399384 -0.382656 -0.831606 0.402499 -0.389001 -0.779075 0.491651 
0.275348 0.908441 -0.314513 -0.766386 0.436583 0.471219 0.240651 0.902615 -0.356894 
-0.275943 0.958922 0.0657502 -0.0584605 0.960452 -0.27224 -0.211136 0.851505 -0.479959 
-0.285419 0.704978 -0.649263 -0.301218 0.847843 -0.436383 -0.169995 0.976885 -0.129605 
0.515941 0.601994 -0.609433 0.118306 0.977169 -0.176477 -0.198553 -0.939004 -0.2808 
0.98572 -0.00720713 -0.168238 -0.276271 -0.700526 -0.65798 -0.278772 -0.739947 -0.61218 
-0.338168 -0.813777 -0.472662 -0.177288 -0.875827 -0.448882 -0.18394 -0.882161 -0.433541 
-0.237985 -0.959467 -0.150953 0 -0.992278 0.124035 -0.185582 -0.979197 -0.08205 
-0.193204 -0.978216 0.0759353 0.350655 0.923315 -0.156621 -0.275171 -0.879179 0.389006 
-0.205702 -0.860071 0.466867 -0.51729 -0.530611 0.671463 -0.714152 -0.0696502 0.696517 
-0.684815 0.266676 0.678169 0.276815 0.914094 -0.29632 -0.621513 0.530887 0.576091 
0.330675 0.914318 -0.233829 -0.218823 0.959545 0.177174 -0.101407 0.938123 -0.331122 
0.0310516 -0.98802 -0.151171 0.146268 -0.989204 -0.0090474 0.872648 -0.488115 -0.0151177 
0.846592 -0.515972 0.130598 0.989231 -0.129938 0.0673593 -0.240633 -0.893543 -0.379046 
-0.324439 -0.841077 -0.432815 -0.210254 -0.784145 -0.583875 -0.0895636 -0.963117 -0.25374 