# vtk DataFile Version 4.2
vtk output
ASCII
DATASET POLYDATA
POINTS 2745 float
193 233.009 115.017 193 233.009 115.017 193 233.009 115.017 
193 233.009 115.017 193 233.009 115.017 190.12 232.446 118.784 
190.009 232.333 118.807 189.996 232.481 118.727 190.14 232.362 118.857 
190.125 232.615 118.795 189.979 232.621 118.707 190.211 232.494 118.911 
190.012 232.765 118.761 189.851 232.719 118.716 193 233.009 115.018 
189.595 232.261 118.848 190.057 232.259 118.93 188.486 232.383 119.019 
190.293 232.512 119.162 188.592 232.778 118.908 186.665 231.858 119.833 
187.855 231.983 119.421 187.497 231.714 119.713 190.044 232.168 119.141 
186.148 232.043 119.895 187.222 232.456 119.408 188.207 232.941 119.059 
187.693 233.262 119.26 189.76 234.116 119.532 190.04 233.994 119.682 
186.889 231.441 120.135 186.155 231.252 120.472 187.425 231.08 120.516 
188.448 231.484 119.836 188.783 231.319 120.14 189.577 231.587 119.895 
184.153 231.778 120.733 185.334 231.632 120.375 185.719 232.774 119.918 
187.827 234.269 119.565 189.83 235.13 120.271 190.488 234.419 120.621 
190.17 235.704 121.035 189.874 231.659 120.253 184.708 233.868 120.398 
185.346 234.666 120.41 187.529 236.214 120.674 184.058 230.419 122.035 
182.37 230.823 122.107 180.678 231.023 122.621 181.657 231.873 121.844 
182.438 234.26 121.468 182.79 233.858 121.22 186.037 236.447 121.083 
188.916 237.289 121.474 190.2 237.19 122.344 182.155 229.648 123.834 
185.009 236.132 121.233 188.883 238.866 122.607 190.152 237.909 122.817 
189.283 239.253 123.025 190.464 238.254 123.519 177.915 230.046 124.619 
177.581 229.711 125.114 180.271 229.425 124.791 186.397 229.756 123.021 
177.397 231.154 124.071 176.537 231.305 124.366 178.154 231.821 123.538 
190.564 232.351 122.317 179.702 234.096 122.74 190.93 237.118 123.659 
176.94 229.306 125.811 175.089 229.795 125.804 176.143 230.326 125.013 
187.43 229.861 123.353 175.696 231.571 124.662 175.901 232.52 124.48 
191.095 233.542 124.668 191.176 234.344 123.724 178.067 236.46 124.389 
191.265 236.466 124.527 184.842 240.483 124.143 188.713 241.256 124.45 
189.89 241.977 125.83 174.013 229.54 126.454 173.045 229.832 126.538 
176.637 229.077 126.385 173.289 230.904 125.887 176.106 234.987 124.783 
189.341 242.742 125.958 175.061 228.865 127.142 171.197 229.687 127.558 
188.008 229.798 125.259 189.162 230.471 124.743 171.448 230.277 127.049 
171.891 231.024 126.585 191.03 233.196 126.052 191.066 240.911 127.126 
190.334 243.046 127.446 168.964 229.214 129.091 170.432 229.235 128.425 
173.426 228.423 128.585 189.616 230.84 125.96 170.019 230.496 127.762 
170.812 231.097 127.168 170.771 232.605 127.174 186.492 244.451 127.267 
188.78 244.169 127.158 169.977 228.134 130.324 168.504 229.526 129.033 
168.007 229.693 129.202 177.405 228.214 128.613 191.309 234.189 127.944 
174.988 239.364 127.621 179.682 242.664 127.799 186.574 245.85 128.958 
189.359 245.26 128.923 189.901 244.946 129.026 189.128 245.756 129.51 
190.173 245.059 129.591 168.87 228.435 130.052 167.38 230.602 129.29 
188.454 246.401 130.233 189.911 245.724 130.179 167.907 228.164 131.128 
166.175 229.307 130.724 181.607 227.96 129.696 187.556 229.12 129.175 
169.537 237.54 129.856 175.086 243.245 130.48 177.184 244.527 130.703 
179.06 244.907 130.287 191.178 243.6 130.564 190.134 245.695 130.538 
188.262 246.923 131.36 188.902 246.801 131.516 189.797 246.227 131.21 
165.586 228.634 131.8 189.783 230.794 130.012 191.653 236.902 131.006 
180.188 245.992 131.121 182.187 246.903 131.713 189.281 246.782 132.026 
189.749 246.454 131.897 164.524 228.419 132.759 164.069 228.591 132.843 
167.516 227.45 133.428 190.532 231.879 131.472 170.207 242.486 132.629 
190.734 245.358 132.119 190.117 246.256 132.504 188.251 228.643 132.747 
161.855 228.039 134.645 162.861 233.625 133.186 191.3 244.155 133.738 
162.675 227.736 134.634 161.047 229.251 134.447 175.235 246.669 134.231 
180.376 247.627 133.593 159.377 227.396 136.464 159.185 227.697 136.383 
160.169 227.517 136.033 190.08 230.32 135.174 191.679 237.997 134.848 
184.674 248.71 135.323 187.592 248.258 135.421 159.038 226.34 137.781 
158.742 226.846 137.247 158.483 227.029 137.217 159.606 226.998 136.775 
158.22 227.268 137.183 188.404 228.281 135.242 178.73 248.885 136.688 
185.835 248.981 136.816 157.875 226.393 138.08 159.192 225.968 138.297 
157.226 226.879 137.969 157.74 229.508 136.813 157.664 231.221 136.939 
190.497 231.062 137.162 162.182 240.453 137.268 166.632 244.699 137.266 
190.102 246.672 136.419 154.612 224.156 140.36 154.88 224.225 140.329 
154.677 224.298 140.302 156.159 226.971 138.529 167.29 226.42 137.972 
189.934 229.682 137.801 191.63 240.758 138.088 172.046 247.917 137.908 
154.252 224.051 140.573 155.202 224.747 140.042 187.4 227.102 138.455 
154.071 227.542 139.735 190.186 246.48 138.282 188.336 248.147 138.432 
181.628 249.964 139.741 149 217.009 140.017 149 217.009 140.017 
149 217.009 140.017 149 217.009 140.017 149 217.009 140.017 
150.004 218.013 140.009 150.004 218.013 140.009 150.004 218.013 140.009 
150.004 218.013 140.009 150.004 218.013 140.009 151.099 220.493 142.597 
151.113 220.421 142.641 151.257 220.555 142.603 151.075 220.629 142.57 
152.157 221.541 142.154 158.105 224.247 140.859 189.699 229.016 139.591 
183.875 249.795 140.48 149 217.009 140.017 149.589 219.43 143.434 
150.004 218.013 140.009 150.489 219.896 143.075 151.043 221.374 142.419 
153.196 221.82 142.163 152.482 223.171 141.578 187.611 226.589 141.047 
188.414 227.008 141.549 188.851 227.72 140.411 190.362 230.339 140.845 
153.537 231.995 140.826 190.953 232.733 141.217 162.938 245.373 141.316 
190.425 245.415 141.39 182.212 250.109 140.636 148.469 218.344 144.267 
148.438 218.405 144.278 148.55 218.322 144.29 149.611 221.337 143.137 
154.671 222.219 142.179 187.535 226.25 141.946 185.604 225.993 141.005 
188.953 227.347 142.383 191.071 242.701 142.24 188.261 247.933 141.299 
170.264 249.687 143.482 174.661 250.448 143.066 148.419 218.329 144.346 
148.47 218.238 144.446 148.224 218.407 144.53 148.839 218.267 144.372 
148.891 218.816 144.028 150.051 218.575 144.097 150.619 224.226 142.387 
165.18 225.057 142.094 186.645 225.692 142.696 189.851 228.785 142.598 
151.51 232.976 143.146 168.054 249.033 143.547 188.675 247.138 143.205 
183.503 249.91 143.192 186.566 248.925 141.953 147.981 218 144.896 
147.733 218.016 145.049 148.376 217.934 144.773 155.967 221.327 143.621 
156.418 221.93 143.209 158.913 222.679 143.61 186.122 225.062 144.197 
187.006 225.542 143.453 188.396 226.111 144.395 143.027 206.577 148.038 
144.196 211.181 147.726 145.434 213.061 147.368 147.232 218.532 145.39 
167.751 249.499 145.324 180.213 250.499 144.551 142.804 204.459 148.378 
142.891 205.854 148.167 143.625 206.4 148.086 143.17 207.833 148.121 
145.248 212.809 147.449 145.767 213.337 147.303 147.626 216.843 145.862 
161.257 222.583 144.941 181 224.337 145.991 190.585 241.986 145.754 
164.918 248.808 146.292 141.671 199.848 149.386 141.781 199.533 149.527 
142.09 201.457 149.021 140.965 202.636 149.036 141.956 202.257 148.84 
141.47 203.263 148.797 143.141 202.938 148.826 141.596 205.095 148.733 
141.751 206.687 148.793 143.898 208.182 147.987 144.444 208.703 147.918 
143.291 210.594 148.202 145.048 212.176 147.572 145.789 215.302 147.131 
146.525 215.104 146.861 147.29 215.755 146.466 145.684 217.678 146.915 
162.213 221.751 146.223 187.982 224.789 147.174 173.315 250.943 147.982 
139.473 195.103 150.26 139.508 195.493 150.178 139.368 195.809 150.136 
139.802 195.368 150.3 140.085 197.297 149.933 139.701 197.662 149.9 
139.635 198.321 149.841 140.717 200.061 149.349 142.83 200.881 149.393 
140.787 204.701 149.334 141.623 207.499 149.127 145.627 207.651 148.21 
145.329 209.277 147.884 146.338 211.308 147.638 143.391 212.844 148.483 
144.242 213.517 147.959 144.716 215.36 147.762 144.052 215.919 148.306 
158.651 217.452 147.519 160.061 220.336 146.408 187.062 224.102 147.577 
185.916 224.039 146.96 188.633 225.098 148.203 150.099 238.84 148.104 
152.433 240.78 147.315 188.722 244.1 148.361 157.916 245.67 147.576 
187.118 246.504 147.904 138.393 192.858 150.806 138.103 192.391 150.981 
138.353 193.549 150.671 138.021 194.618 150.652 138.704 194.004 150.526 
139.193 193.39 150.743 139.626 193.772 150.801 138.422 195.134 150.452 
138 196.355 150.674 140.138 196.318 150.185 138.892 196.591 150.209 
138.536 197.721 150.408 138.817 198.651 150.301 139.859 202.709 149.897 
139.918 203.31 150.033 140.253 204.772 150.186 140.694 205.567 149.732 
141.207 207.796 149.96 142.145 210.976 149.475 166.094 220.223 149.105 
188.017 223.957 149.409 172.082 222.597 148.489 190.272 239.486 148.628 
183.382 248.614 149.167 138.375 189.017 152.143 138.639 189.18 152.11 
137.881 190.15 151.686 137.94 189.562 151.882 138.778 189.399 152.062 
138.214 190.793 151.465 137.167 191.757 151.525 137.54 193.106 151.056 
137.105 195.329 151.32 137.145 196.155 151.417 137.735 197.594 151.085 
138.919 201.283 150.82 140.658 206.311 150.322 157.759 208.084 150.715 
141.204 208.72 150.562 141.478 209.275 150.102 148.837 210.16 148.258 
142.864 214.803 149.335 179.521 223.065 148.94 185.483 222.845 149.688 
145.395 233.649 149.825 146.792 236.452 149.917 148.737 239.242 150.09 
175.399 250.956 149.336 175.843 250.899 149.744 178.181 250.566 149.102 
137.594 188.153 152.653 137.496 189.129 152.171 136.441 189.722 152.495 
136.733 193.045 151.644 136.234 194.061 152.166 136.836 197.08 152.103 
139.828 204.192 151.049 149.129 204.36 150.487 140.308 205.679 151.362 
179.171 222.112 150.496 188.951 224.753 151.007 190.179 236.317 150.456 
167.041 250.611 151.439 177.562 250.516 150.609 137.924 187.671 153.036 
138.186 187.687 153.149 137.117 188.039 152.83 135.646 188.448 153.495 
135.509 189.277 153.372 141.549 193.902 152.479 137.537 199.472 152.794 
140.682 206.788 152.042 140.77 207.355 151.543 141.111 209.156 151.829 
[...]
POINT_DATA 2745
SCALARS scalars float
LOOKUP_TABLE default
1 1 1 1 1 1 1 1 1 
1 1 1 1 1 1 1 1 1 
1 1 1 1 1 1 1 1 1 
1 1 1 1 1 1 1 1 1 
1 1 1 1 1 1 1 1 1 
1 1 1 1 1 1 1 1 1 
1 1 1 1 1 1 1 1 1 
1 1 1 1 1 1 1 1 1 
1 1 1 1 1 1 1 1 1 
1 1 1 1 1 1 1 1 1 
1 1 1 1 1 1 1 1 1 
1 1 1 1 1 1 1 1 1 
1 1 1 1 1 1 1 1 1 
1 1 1 1 1 1 1 1 1 
1 1 1 1 1 1 1 1 1 
1 1 1 1 1 1 1 1 1 
1 1 1 1 1 1 1 1 1 
1 1 1 1 1 1 1 1 1 
1 1 1 1 1 1 1 1 1 
1 1 1 1 1 1 1 1 1 
1 1 1 1 1 1 1 1 1 
1 1 1 1 1 1 1 1 1 
1 1 1 1 1 1 1 1 1 
1 1 1 1 1 1 1 1 1 
1 1 1 1 1 1 1 1 1 
1 1 1 1 1 1 1 1 1 
1 1 1 1 1 1 1 1 1 
1 1 1 1 1 1 1 1 1 
1 1 1 1 1 1 1 1 1 
1 1 1 1 1 1 1 1 1 
1 1 1 1 1 1 1 1 1 
1 1 1 1 1 1 1 1 1 
1 1 1 1 1 1 1 1 1 
1 1 1 1 1 1 1 1 1 
1 1 1 1 1 1 1 1 1 
1 1 1 1 1 1 1 1 1 
1 1 1 1 1 1 1 1 1 
1 1 1 1 1 1 1 1 1 
1 1 1 1 1 1 1 1 1 
1 1 1 1 1 1 1 1 1 
1 1 1 1 1 1 1 1 1 
1 1 1 1 1 1 1 1 1 
1 1 1 1 1 1 1 1 1 
1 1 1 1 1 1 1 1 1 
1 1 1 1 1 1 1 1 1 
1 1 1 1 1 1 1 1 1 
1 1 1 1 1 1 1 1 1 
1 1 1 1 1 1 1 1 1 
1 1 1 1 1 1 1 1 1 
1 1 1 1 1 1 1 1 1 
1 1 1 1 1 1 1 1 1 
1 1 1 1 1 1 1 1 1 
1 1 1 1 1 1 1 1 1 
1 1 1 1 1 1 1 1 1 
1 1 1 1 1 1 1 1 1 
1 1 1 1 1 1 1 1 1 
1 1 1 1 1 1 1 1 1 
1 1 1 1 1 1 1 1 1 
1 1 1 1 1 1 1 1 1 
1 1 1 1 1 1 1 1 1 
1 1 1 1 1 1 1 1 1 
1 1 1 1 1 1 1 1 1 
1 1 1 1 1 1 1 1 1 
1 1 1 1 1 1 1 1 1 
1 1 1 1 1 1 1 1 1 
1 1 1 1 1 1 1 1 1 
1 1 1 1 1 1 1 1 1 
1 1 1 1 1 1 1 1 1 
1 1 1 1 1 1 1 1 1 
1 1 1 1 1 1 1 1 1 
1 1 1 1 1 1 1 1 1 
1 1 1 1 1 1 1 1 1 
1 1 1 1 1 1 1 1 1 
1 1 1 1 1 1 1 1 1 
1 1 1 1 1 1 1 1 1 
1 1 1 1 1 1 1 1 1 
1 1 1 1 1 1 1 1 1 
1 1 1 1 1 1 1 1 1 
1 1 1 1 1 1 1 1 1 
1 1 1 1 1 1 1 1 1 
1 1 1 1 1 1 1 1 1 
1 1 1 1 1 1 1 1 1 
1 1 1 1 1 1 1 1 1 
1 1 1 1 1 1 1 1 1 
1 1 1 1 1 1 1 1 1 
1 1 1 1 1 1 1 1 1 
1 1 1 1 1 1 1 1 1 
1 1 1 1 1 1 1 1 1 
1 1 1 1 1 1 1 1 1 
1 1 1 1 1 1 1 1 1 
1 1 1 1 1 1 1 1 1 
1 1 1 1 1 1 1 1 1 
1 1 1 1 1 1 1 1 1 
1 1 1 1 1 1 1 1 1 
1 1 1 1 1 1 1 1 1 
1 1 1 1 1 1 1 1 1 
1 1 1 1 1 1 1 1 1 
1 1 1 1 1 1 1 1 1 
1 1 1 1 1 1 1 1 1 
1 1 1 1 1 1 1 1 1 
1 1 1 1 1 1 1 1 1 
1 1 1 1 1 1 1 1 1 
1 1 1 1 1 1 1 1 1 
1 1 1 1 1 1 1 1 1 
1 1 1 1 1 1 1 1 1 
1 1 1 1 1 1 1 1 1 
1 1 1 1 1 1 1 1 1 
1 1 1 1 1 1 1 1 1 
1 1 1 1 1 1 1 1 1 
1 1 1 1 1 1 1 1 1 
1 1 1 1 1 1 1 1 1 
1 1 1 1 1 1 1 1 1 
1 1 1 1 1 1 1 1 1 
1 1 1 1 1 1 1 1 1 
1 1 1 1 1 1 1 1 1 
1 1 1 1 1 1 1 1 1 
1 1 1 1 1 1 1 1 1 
1 1 1 1 1 1 1 1 1 
1 1 1 1 1 1 1 1 1 
1 1 1 1 1 1 1 1 1 
1 1 1 1 1 1 1 1 1 
1 1 1 1 1 1 1 1 1 
1 1 1 1 1 1 1 1 1 
1 1 1 1 1 1 1 1 1 
1 1 1 1 1 1 1 1 1 
1 1 1 1 1 1 1 1 1 
1 1 1 1 1 1 1 1 1 
1 1 1 1 1 1 1 1 1 
1 1 1 1 1 1 1 1 1 
1 1 1 1 1 1 1 1 1 
1 1 1 1 1 1 1 1 1 
1 1 1 1 1 1 1 1 1 
1 1 1 1 1 1 1 1 1 
1 1 1 1 1 1 1 1 1 
1 1 1 1 1 1 1 1 1 
1 1 1 1 1 1 1 1 1 
1 1 1 1 1 1 1 1 1 
1 1 1 1 1 1 1 1 1 
1 1 1 1 1 1 1 1 1 
1 1 1 1 1 1 1 1 1 
1 1 1 1 1 1 1 1 1 
1 1 1 1 1 1 1 1 1 
1 1 1 1 1 1 1 1 1 
1 1 1 1 1 1 1 1 1 
1 1 1 1 1 1 1 1 1 
1 1 1 1 1 1 1 1 1 
1 1 1 1 1 1 1 1 1 
1 1 1 1 1 1 1 1 1 
1 1 1 1 1 1 1 1 1 
1 1 1 1 1 1 1 1 1 
1 1 1 1 1 1 1 1 1 
1 1 1 1 1 1 1 1 1 
1 1 1 1 1 1 1 1 1 
1 1 1 1 1 1 1 1 1 
1 1 1 1 1 1 1 1 1 
1 1 1 1 1 1 1 1 1 
1 1 1 1 1 1 1 1 1 
1 1 1 1 1 1 1 1 1 
1 1 1 1 1 1 1 1 1 
1 1 1 1 1 1 1 1 1 
1 1 1 1 1 1 1 1 1 
1 1 1 1 1 1 1 1 1 
1 1 1 1 1 1 1 1 1 
1 1 1 1 1 1 1 1 1 
1 1 1 1 1 1 1 1 1 
1 1 1 1 1 1 1 1 1 
1 1 1 1 1 1 1 1 1 
1 1 1 1 1 1 1 1 1 
1 1 1 1 1 1 1 1 1 
1 1 1 1 1 1 1 1 1 
1 1 1 1 1 1 1 1 1 
1 1 1 1 1 1 1 1 1 
1 1 1 1 1 1 1 1 1 
1 1 1 1 1 1 1 1 1 
1 1 1 1 1 1 1 1 1 
1 1 1 1 1 1 1 1 1 
1 1 1 1 1 1 1 1 1 
1 1 1 1 1 1 1 1 1 
1 1 1 1 1 1 1 1 1 
1 1 1 1 1 1 1 1 1 
1 1 1 1 1 1 1 1 1 
1 1 1 1 1 1 1 1 1 
1 1 1 1 1 1 1 1 1 
1 1 1 1 1 1 1 1 1 
1 1 1 1 1 1 1 1 1 
1 1 1 1 1 1 1 1 1 
1 1 1 1 1 1 1 1 1 
1 1 1 1 1 1 1 1 1 
1 1 1 1 1 1 1 1 1 
1 1 1 1 1 1 1 1 1 
1 1 1 1 1 1 1 1 1 
1 1 1 1 1 1 1 1 1 
1 1 1 1 1 1 1 1 1 
1 1 1 1 1 1 1 1 1 
1 1 1 1 1 1 1 1 1 
1 1 1 1 1 1 1 1 1 
1 1 1 1 1 1 1 1 1 
1 1 1 1 1 1 1 1 1 
1 1 1 1 1 1 1 1 1 
1 1 1 1 1 1 1 1 1 
1 1 1 1 1 1 1 1 1 
1 1 1 1 1 1 1 1 1 
1 1 1 1 1 1 1 1 1 
1 1 1 1 1 1 1 1 1 
1 1 1 1 1 1 1 1 1 
1 1 1 1 1 1 1 1 1 
1 1 1 1 1 1 1 1 1 
1 1 1 1 1 1 1 1 1 
1 1 1 1 1 1 1 1 1 
1 1 1 1 1 1 1 1 1 
1 1 1 1 1 1 1 1 1 
1 1 1 1 1 1 1 1 1 
1 1 1 1 1 1 1 1 1 
1 1 1 1 1 1 1 1 1 
1 1 1 1 1 1 1 1 1 
1 1 1 1 1 1 1 1 1 
1 1 1 1 1 1 1 1 1 
1 1 1 1 1 1 1 1 1 
1 1 1 1 1 1 1 1 1 
1 1 1 1 1 1 1 1 1 
1 1 1 1 1 1 1 1 1 
1 1 1 1 1 1 1 1 1 
1 1 1 1 1 1 1 1 1 
1 1 1 1 1 1 1 1 1 
1 1 1 1 1 1 1 1 1 
1 1 1 1 1 1 1 1 1 
1 1 1 1 1 1 1 1 1 
1 1 1 1 1 1 1 1 1 
1 1 1 1 1 1 1 1 1 
1 1 1 1 1 1 1 1 1 
1 1 1 1 1 1 1 1 1 
1 1 1 1 1 1 1 1 1 
1 1 1 1 1 1 1 1 1 
1 1 1 1 1 1 1 1 1 
1 1 1 1 1 1 1 1 1 
1 1 1 1 1 1 1 1 1 
1 1 1 1 1 1 1 1 1 
1 1 1 1 1 1 1 1 1 
1 1 1 1 1 1 1 1 1 
1 1 1 1 1 1 1 1 1 
1 1 1 1 1 1 1 1 1 
1 1 1 1 1 1 1 1 1 
1 1 1 1 1 1 1 1 1 
1 1 1 1 1 1 1 1 1 
1 1 1 1 1 1 1 1 1 
1 1 1 1 1 1 1 1 1 
1 1 1 1 1 1 1 1 1 
1 1 1 1 1 1 1 1 1 
1 1 1 1 1 1 1 1 1 
1 1 1 1 1 1 1 1 1 
1 1 1 1 1 1 1 1 1 
1 1 1 1 1 1 1 1 1 
1 1 1 1 1 1 1 1 1 
1 1 1 1 1 1 1 1 1 
1 1 1 1 1 1 1 1 1 
1 1 1 1 1 1 1 1 1 
1 1 1 1 1 1 1 1 1 
1 1 1 1 1 1 1 1 1 
1 1 1 1 1 1 1 1 1 
1 1 1 1 1 1 1 1 1 
1 1 1 1 1 1 1 1 1 
1 1 1 1 1 1 1 1 1 
1 1 1 1 1 1 1 1 1 
1 1 1 1 1 1 1 1 1 
1 1 1 1 1 1 1 1 1 
1 1 1 1 1 1 1 1 1 
1 1 1 1 1 1 1 1 1 
1 1 1 1 1 1 1 1 1 
1 1 1 1 1 1 1 1 1 
1 1 1 1 1 1 1 1 1 
1 1 1 1 1 1 1 1 1 
1 1 1 1 1 1 1 1 1 
1 1 1 1 1 1 1 1 1 
1 1 1 1 1 1 1 1 1 
1 1 1 1 1 1 1 1 1 
1 1 1 1 1 1 1 1 1 
1 1 1 1 1 1 1 1 1 
1 1 1 1 1 1 1 1 1 
1 1 1 1 1 1 1 1 1 
1 1 1 1 1 1 1 1 1 
1 1 1 1 1 1 1 1 1 
1 1 1 1 1 1 1 1 1 
1 1 1 1 1 1 1 1 1 
1 1 1 1 1 1 1 1 1 
1 1 1 1 1 1 1 1 1 
1 1 1 1 1 1 1 1 1 
1 1 1 1 1 1 1 1 1 
1 1 1 1 1 1 1 1 1 
1 1 1 1 1 1 1 1 1 
1 1 1 1 1 1 1 1 1 
1 1 1 1 1 1 1 1 1 
1 1 1 1 1 1 1 1 1 
1 1 1 1 1 1 1 1 1 
1 1 1 1 1 1 1 1 1 
1 1 1 1 1 1 1 1 1 
1 1 1 1 1 1 1 1 1 
1 1 1 1 1 1 1 1 1 
1 1 1 1 1 1 1 1 1 
1 1 1 1 1 1 1 1 1 
1 1 1 1 1 1 1 1 1 
1 1 1 1 1 1 1 1 1 
1 1 1 1 1 1 1 1 1 
1 1 1 1 1 1 1 1 1 
1 1 1 1 1 1 1 1 1 
1 1 1 1 1 1 1 1 1 

NORMALS Normals float
0 -0.0274327 -0.999624 0 -0.99068 -0.136212 -0.987129 -0.138962 -0.0791535 
0.987129 -0.138962 -0.0791535 0 0.447214 -0.894427 0.587975 -0.249253 -0.769518 
0.235335 -0.623989 -0.745155 0.142945 -0.223977 -0.964054 0.702331 -0.560706 -0.438567 
0.710087 0.22644 -0.66671 0.269858 0.0753762 -0.959945 0.897497 -0.0703157 -0.43538 
0.401721 0.384125 -0.831305 -0.0774647 0.232663 -0.969467 0 -0.180982 0.983486 
-0.0424829 -0.617093 -0.785743 0.309694 -0.829106 -0.465482 -0.313373 -0.272471 -0.909702 
0.95374 -0.158421 -0.255503 -0.224688 -0.00662803 -0.974408 -0.212429 -0.416304 -0.884062 
-0.231803 -0.489886 -0.840404 -0.183161 -0.712801 -0.677028 0.539873 -0.783097 -0.308702 
-0.261706 -0.434196 -0.861965 -0.2804 -0.301999 -0.911138 -0.292054 0.0562 -0.954749 
-0.31733 0.232045 -0.919487 0.415717 0.531438 -0.738073 0.726044 0.431476 -0.535433 
-0.177527 -0.653478 -0.735834 -0.166348 -0.737084 -0.655007 0.0513748 -0.902144 -0.428366 
-0.0337996 -0.817134 -0.575455 0.0949581 -0.959394 -0.265604 0.252165 -0.87732 -0.408316 
-0.337506 -0.438001 -0.833214 -0.304395 -0.46908 -0.82904 -0.333336 -0.0520819 -0.941368 
-0.0988608 0.473077 -0.875457 0.433376 0.512613 -0.741224 0.813634 0.353625 -0.461463 
0.756325 0.424537 -0.497735 0.549732 -0.827465 -0.114442 -0.363055 0.244713 -0.899059 
-0.2864 0.322064 -0.902358 -0.217831 0.45016 -0.865971 -0.189788 -0.834779 -0.51684 
-0.286398 -0.631411 -0.720622 -0.318983 -0.631869 -0.706393 -0.48024 -0.163234 -0.861815 
-0.464642 0.126728 -0.876383 -0.413501 0.105919 -0.904322 -0.233715 0.736615 -0.634647 
0.0999238 0.651474 -0.752062 0.768455 0.353741 -0.533239 -0.0992727 -0.874971 -0.473889 
-0.325856 0.497905 -0.803684 0.14205 0.556102 -0.818885 0.643392 0.435538 -0.629566 
0.488609 0.53147 -0.691955 0.86654 0.396033 -0.303752 -0.316483 -0.570188 -0.758106 
-0.089616 -0.833547 -0.545132 -0.136181 -0.885471 -0.444292 0.00740761 -0.936417 -0.35081 
-0.329992 -0.343423 -0.879299 -0.349528 -0.379189 -0.856765 -0.376509 -0.228913 -0.897686 
0.881204 -0.468096 -0.0660703 -0.409754 0.261131 -0.874021 0.899535 0.231737 -0.370316 
-0.0646487 -0.849278 -0.523972 -0.242979 -0.71416 -0.656458 -0.291383 -0.544297 -0.786662 
0.283993 -0.928644 -0.238682 -0.514357 -0.194502 -0.835228 -0.483675 0.00955536 -0.875195 
0.963779 -0.264789 -0.031885 0.977818 0.025233 -0.20793 -0.370333 0.378575 -0.848254 
0.982783 0.184414 -0.0113313 -0.190615 0.581446 -0.79094 0.0645462 0.630352 -0.773621 
0.657811 0.525656 -0.539417 -0.263036 -0.689374 -0.674963 -0.30333 -0.663803 -0.683634 
-0.0110337 -0.946674 -0.322003 -0.39435 -0.24568 -0.885511 -0.53777 0.20461 -0.817886 
0.420289 0.632494 -0.650622 -0.12289 -0.865027 -0.486443 -0.434417 -0.538897 -0.721715 
0.384516 -0.919757 -0.0787011 0.597505 -0.797937 -0.0792755 -0.447869 -0.306222 -0.840025 
-0.471699 -0.211004 -0.856141 0.90349 -0.428373 0.0142125 0.922385 0.263726 -0.282231 
0.786959 0.437647 -0.434926 -0.292921 -0.73412 -0.612589 -0.351612 -0.642894 -0.680482 
-0.100401 -0.943241 -0.316569 0.779949 -0.625843 0.000401212 -0.4806 -0.285087 -0.829306 
-0.423347 -0.0846294 -0.902006 -0.497576 0.102749 -0.861314 -0.0324759 0.725855 -0.687081 
0.282545 0.725696 -0.627323 -0.111677 -0.895603 -0.430608 -0.39775 -0.482274 -0.780517 
-0.442939 -0.574198 -0.688551 -0.028437 -0.941986 -0.334445 0.987132 -0.159801 0.00580262 
-0.403461 0.496493 -0.768579 -0.279066 0.651873 -0.705113 -0.0208979 0.858321 -0.512688 
0.291966 0.780274 -0.553108 0.65133 0.581878 -0.48702 0.332132 0.853866 -0.400751 
0.674803 0.610647 -0.414429 -0.273645 -0.78482 -0.556035 -0.592863 -0.16231 -0.788777 
0.203158 0.853472 -0.479909 0.604654 0.735595 -0.305439 -0.172437 -0.88898 -0.424241 
-0.66324 -0.35688 -0.657837 0.0523902 -0.976028 -0.211244 0.414888 -0.896564 -0.15505 
-0.518954 0.390854 -0.760211 -0.352403 0.683191 -0.63958 -0.331077 0.706257 -0.62577 
-0.269997 0.70245 -0.658534 0.928377 0.296091 -0.224602 0.631131 0.733188 -0.253198 
0.179071 0.919015 -0.351206 0.369567 0.869234 -0.328408 0.507213 0.794984 -0.332769 
-0.569252 -0.604787 -0.556943 0.753101 -0.653126 -0.0791592 0.998278 -0.0544397 -0.0218352 
-0.233234 0.766528 -0.598362 -0.132487 0.80257 -0.58166 0.429573 0.886329 -0.172882 
0.609576 0.763221 -0.214268 -0.401925 -0.785668 -0.4703 -0.397145 -0.744902 -0.536094 
-0.0504654 -0.948121 -0.313879 0.928025 -0.37165 -0.0254243 -0.449077 0.574325 -0.684457 
0.829858 0.542027 -0.132449 0.709321 0.701062 -0.0733235 0.505529 -0.844078 -0.178812 
-0.298844 -0.556863 -0.774981 -0.606518 0.203194 -0.768666 0.955596 0.29468 0.000341647 
-0.256 -0.665671 -0.70096 -0.511712 -0.267292 -0.81652 -0.280751 0.794981 -0.537758 
-0.139839 0.897393 -0.418485 -0.532742 -0.616515 -0.579738 -0.529717 -0.419145 -0.737372 
-0.288248 -0.597092 -0.748595 0.92588 -0.341215 -0.162229 0.999017 -0.0442622 -0.0025563 
-0.0107102 0.95327 -0.30193 0.360799 0.915707 -0.17693 -0.153974 -0.811015 -0.5644 
-0.338329 -0.709765 -0.617873 -0.357194 -0.627278 -0.692051 -0.319279 -0.699086 -0.639797 
-0.425155 -0.467188 -0.775228 0.641878 -0.75083 -0.155711 -0.218485 0.938552 -0.267178 
0.103341 0.986481 -0.127185 -0.321632 -0.757373 -0.568278 -0.135429 -0.83737 -0.529594 
-0.470474 -0.328541 -0.818972 -0.539621 -0.165089 -0.825563 -0.633548 0.189783 -0.750066 
0.963951 -0.200264 -0.175192 -0.586673 0.464182 -0.663589 -0.447221 0.669308 -0.593312 
0.821716 0.569763 -0.0123478 -0.101757 -0.617273 -0.780141 0.119543 -0.684969 -0.718698 
-0.324228 -0.168994 -0.930762 -0.448688 -0.510523 -0.733516 0.14564 -0.957625 -0.248481 
0.873978 -0.477052 -0.0926527 0.995428 0.0665505 0.0685135 -0.292141 0.846096 -0.445842 
-0.290984 -0.408923 -0.864934 -0.222117 -0.424414 -0.877802 0.404807 -0.888843 -0.214684 
-0.594415 -0.0320988 -0.803518 0.755629 0.654511 0.0253167 0.529606 0.848159 0.0119665 
-0.0363824 0.977897 -0.205899 0 0 -1 -0.83205 -0.5547 0 
-1 0 2.78775e-08 1 0 2.78775e-08 0 0.5547 -0.83205 
0.278478 -0.81589 -0.506728 -0.84904 0.22045 -0.480138 0.584325 0.584325 -0.563142 
0.828126 -0.249695 0.501855 -0.278241 0.788421 0.548611 -0.319303 -0.396422 -0.860753 
-0.200808 -0.540485 -0.817039 0.0428422 -0.300688 -0.95276 -0.384689 -0.264678 -0.884285 
-0.0294286 -0.362721 -0.931433 0.268505 -0.800933 -0.535174 0.906867 -0.412798 -0.0847976 
0.205698 0.971143 -0.120705 0 0 1 -0.247462 -0.418015 -0.874086 
-0.552062 -0.599669 0.579332 -0.135697 -0.482429 -0.865361 -0.302524 -0.193405 -0.933313 
0.134394 -0.574354 -0.8075 -0.246508 -0.272837 -0.929943 0.405484 -0.885339 -0.227504 
0.689584 -0.693701 -0.207975 0.740835 -0.659226 -0.128777 0.928575 -0.361907 -0.0822962 
-0.650499 0.268161 -0.710592 0.993801 -0.108962 -0.0220501 -0.448482 0.748428 -0.48859 
0.882238 0.448318 0.143762 0.0518919 0.988714 -0.140545 -0.244042 -0.471813 -0.847252 
-0.702201 -0.0846449 -0.706929 -0.0677952 -0.763526 -0.642209 -0.529207 -0.0982888 -0.842781 
0.236761 -0.636302 -0.73421 0.363372 -0.860152 -0.35791 0.235554 -0.94993 -0.205301 
0.749258 -0.631469 -0.199648 0.951102 0.260202 0.166431 0.654211 0.746974 0.118477 
-0.261646 0.90636 -0.331742 -0.0878991 0.97133 -0.220888 -0.54969 -0.666781 -0.503233 
-0.329045 -0.754689 -0.567604 -0.659799 -0.287147 -0.694415 0.0056937 -0.628523 -0.77777 
-0.490714 -0.122114 -0.862721 0.0183343 -0.577425 -0.816238 -0.579888 -0.0303653 -0.81413 
0.135321 -0.893409 -0.428378 0.205119 -0.866465 -0.455154 0.875818 -0.465923 -0.125931 
-0.673308 0.271913 -0.687546 -0.285656 0.89788 -0.334981 0.673694 0.699122 0.23951 
0.314435 0.942078 0.116706 0.446431 0.88332 0.14299 -0.481251 -0.356618 -0.800763 
-0.605799 -0.259135 -0.752234 -0.218665 -0.653915 -0.72428 0.478658 -0.642806 -0.598069 
0.42325 -0.70747 -0.565991 0.287864 -0.737252 -0.611224 0.238284 -0.894806 -0.377548 
0.286954 -0.876394 -0.38677 0.653614 -0.715857 -0.245637 -0.0948081 -0.023495 -0.995218 
-0.240666 -0.0133201 -0.970517 -0.281295 -0.0954317 -0.954864 -0.6633 -0.0913691 -0.742755 
-0.28201 0.916375 -0.284127 0.159453 0.986078 0.0471782 -0.058244 -0.154932 -0.986207 
-0.135884 -0.117053 -0.983786 0.100994 -0.148853 -0.983688 0.0495046 0.0179376 -0.998613 
-0.0912242 -0.136117 -0.986484 -0.0559464 -0.226189 -0.972476 -0.451336 -0.447239 -0.772187 
0.441676 -0.733453 -0.51669 -0.00260438 -0.924861 -0.380296 0.971679 0.14124 0.18945 
-0.373258 0.881939 -0.287857 0.0869182 -0.262132 -0.96111 0.296085 -0.445992 -0.844644 
0.0272393 -0.231211 -0.972522 -0.443966 -0.0205208 -0.895809 -0.00473618 -0.184284 -0.982862 
-0.289576 -0.0710291 -0.954516 0.182342 -0.222078 -0.957827 -0.518614 0.0527866 -0.853378 
-0.61122 0.0860925 -0.786764 -0.0732419 -0.0437931 -0.996352 -0.0854789 -0.106785 -0.990601 
-0.466724 0.082234 -0.880572 -0.302437 -0.0329379 -0.9526 -0.411801 -0.021589 -0.911018 
-0.256452 -0.180435 -0.949566 -0.370896 -0.295456 -0.880421 -0.528256 -0.156925 -0.834458 
0.281903 -0.607477 -0.742632 0.46821 -0.832217 -0.296977 -0.0813688 0.987809 -0.132713 
0.169271 -0.272267 -0.947216 0.192936 -0.122508 -0.973533 -0.0751966 -0.0806899 -0.993899 
0.413222 -0.237551 -0.8791 0.34397 -0.317056 -0.883833 -0.29339 -0.0751943 -0.953031 
-0.303431 -0.086465 -0.948922 -0.128309 -0.174624 -0.976239 0.354877 -0.367088 -0.859831 
-0.733845 0.111157 -0.670161 -0.814771 0.21952 -0.536619 0.204856 -0.178621 -0.962356 
0.149614 -0.167286 -0.97449 0.0594197 -0.104237 -0.992776 -0.636407 0.120195 -0.761931 
-0.522352 0.0398357 -0.851799 -0.552255 0.0650995 -0.83113 -0.659597 0.029372 -0.751045 
0.363714 -0.547564 -0.753582 0.409183 -0.525114 -0.746207 0.440521 -0.831257 -0.339047 
0.392538 -0.843816 -0.365909 0.721773 -0.660324 -0.207401 -0.621289 0.540966 -0.566883 
-0.609509 0.551565 -0.569452 0.828388 0.426669 0.362942 -0.508995 0.770385 -0.383969 
0.627744 0.700785 0.338877 -0.177416 -0.232875 -0.956187 -0.231603 -0.256089 -0.938498 
-0.19781 -0.207001 -0.958135 -0.49132 -0.0677035 -0.868344 -0.0492607 -0.198076 -0.978948 
0.175336 -0.262532 -0.948859 0.436103 -0.280029 -0.855218 -0.398412 -0.0375726 -0.916437 
-0.570731 0.0534166 -0.819398 0.333789 -0.166644 -0.927801 -0.316388 -0.0568555 -0.946924 
-0.579598 0.0604292 -0.812659 -0.57994 0.0353058 -0.813894 -0.795213 0.187175 -0.576716 
-0.809592 0.201853 -0.551195 -0.902132 0.184309 -0.390113 -0.832599 0.213336 -0.511143 
-0.926076 0.225458 -0.302575 -0.817215 0.118843 -0.563947 0.293858 -0.583196 -0.757317 
0.658619 -0.706529 -0.258916 0.0834034 -0.86127 -0.501257 0.878129 0.302166 0.370925 
0.503306 0.818025 0.278422 0.165576 -0.49561 -0.852617 0.361199 -0.5116 -0.779616 
-0.166411 -0.27367 -0.947319 -0.121538 -0.341941 -0.931829 0.320523 -0.362929 -0.874956 
-0.14955 -0.268291 -0.951659 -0.497028 -0.191182 -0.846412 -0.447615 -0.171071 -0.877711 
-0.733949 0.10369 -0.671243 -0.814759 0.032391 -0.578894 -0.67518 0.107271 -0.729811 
-0.858096 0.284724 -0.42732 -0.939342 0.242074 -0.242976 0.224354 -0.384571 -0.895417 
-0.930111 0.214445 -0.298173 -0.893245 0.166851 -0.417461 0.0493674 -0.28748 -0.956513 
-0.779439 0.141785 -0.610223 -0.103087 -0.866868 -0.487763 0.23472 -0.900049 -0.367176 
-0.735555 0.343463 -0.583946 -0.703422 0.464401 -0.538079 -0.583 0.628824 -0.514481 
0.110628 0.993493 -0.027078 0.113531 0.992726 -0.040071 0.203373 0.978117 0.0438884 
0.027802 -0.531452 -0.846632 -0.328215 -0.378082 -0.865638 -0.495676 -0.22444 -0.839007 
-0.664589 -0.0831819 -0.742564 -0.780022 0.0872304 -0.619642 -0.86051 0.133948 -0.491508 
-0.938717 0.234249 -0.252861 0.293957 -0.352763 -0.88834 -0.945621 0.322266 -0.0441066 
-0.0261613 -0.815357 -0.578367 0.920157 -0.315919 -0.231313 0.964899 0.0549333 0.256812 
-0.139995 0.986841 -0.0809106 0.264374 0.962422 0.0620468 0.194538 -0.662304 -0.723539 
0.37547 -0.607288 -0.700159 -0.228414 -0.539061 -0.810704 -0.552291 -0.309414 -0.774104 
-0.668591 -0.195133 -0.717572 0.710191 -0.356974 -0.606793 -0.870509 0.491695 -0.0212031 
-0.950249 0.268628 0.157689 -0.972421 0.233007 0.0102675 -0.995047 0.0941327 0.0319543 
-0.967646 0.0798345 -0.239348 -0.9044 0.065322 -0.421655 0.465188 -0.694577 -0.548783 
0.808623 -0.572592 -0.135154 0.940519 -0.339081 0.0211832 0.981207 -0.185433 -0.0533655 
0.95098 -0.0565999 -0.304028 0.995638 0.092114 0.0148263 0.84777 0.212333 0.486005 
-0.604162 0.644004 -0.469304 -0.574459 0.768932 -0.280607 0.718454 0.529961 0.450517 
-0.143338 -0.599069 -0.787763 -0.388732 -0.535589 -0.749687 0.370111 -0.677859 -0.635236 
-0.7578 -0.0334969 -0.651627 -0.917745 0.388839 0.0809169 -0.995516 -0.0876732 -0.0355117 
-0.942186 0.116834 -0.314062 0.358819 -0.464283 -0.809747 -0.83186 -0.0602518 -0.551705 
0.475436 -0.805694 -0.353295 0.245945 -0.864584 -0.438185 0.845293 -0.492147 -0.208015 
0.121722 -0.820827 -0.558056 0.144711 -0.651035 -0.745126 -0.747731 0.149178 -0.647027 
0.753706 0.600394 0.267309 0.799929 0.556173 0.225356 -0.494341 0.841474 -0.218054 
0.599723 0.695229 0.396219 -0.269643 0.956027 -0.115347 -0.108929 -0.724665 -0.680437 
-0.0335739 -0.645903 -0.762681 0.351511 -0.624706 -0.697268 0.305129 -0.636793 -0.70809 
0.57828 -0.619402 -0.530973 -0.687622 -0.318276 -0.652592 -0.770511 -0.163772 -0.616028 
0.63724 -0.618084 -0.460322 0.464087 -0.603811 -0.648102 -0.89227 0.403901 -0.201787 
0.298569 -0.468126 -0.831694 -0.752962 0.300789 0.585298 -0.923069 0.200948 0.327969 
-0.967886 0.0977115 0.231623 -0.900792 -0.260796 0.347215 -0.961803 0.0433377 -0.27029 
-0.915118 -0.218602 -0.338782 0.639897 -0.695982 -0.325792 0.913341 -0.394077 -0.102527 
0.808374 0.335413 0.483766 -0.552908 0.75187 -0.359143 0.817956 0.462622 0.341949 
0.19171 0.980956 0.0311695 -0.615951 -0.4249 -0.663374 0.465359 -0.627664 -0.624083 
-0.809503 -0.152291 -0.567021 -0.858702 0.00184507 -0.512471 -0.863537 0.18041 -0.470909 