# vtk DataFile Version 4.2
vtk output
ASCII
DATASET POLYDATA
POINTS 2676 float
228.47 232.664 104.538 228.997 232.768 104.402 228.59 232.85 104.478 
228.833 232.928 104.418 229.182 232.893 104.363 229.9 233.355 104.331 
230.045 233.394 104.354 229.406 233.3 104.427 230.044 233.47 104.352 
228.848 232.634 104.529 228.549 232.474 104.722 229.126 232.692 104.547 
229.055 232.609 104.68 227.506 232.537 105.021 228.309 232.869 104.66 
230.24 233.544 104.4 230.086 233.607 104.421 230.412 233.613 104.48 
230.447 233.712 104.456 230.52 233.712 104.469 229.76 233.725 104.611 
230.555 233.839 104.556 230.548 233.758 104.485 226.526 232.076 105.626 
228.845 232.509 104.818 229.623 232.961 104.734 229.895 233.189 104.681 
228.068 233.241 105.089 230.535 233.729 104.527 230.574 233.79 104.621 
228.468 233.675 105.417 230.661 233.926 104.688 230.633 233.997 104.674 
230.73 234.031 104.711 229.879 233.955 104.913 230.024 234.025 104.992 
230.721 234.066 104.723 230.516 234.066 104.875 230.688 234.082 104.78 
224.599 231.144 106.911 225.705 231.485 106.327 225.284 231.274 106.665 
226.865 231.78 105.95 227.566 232.019 105.661 225.123 231.977 106.31 
229.069 232.664 105.107 225.323 232.508 106.383 226.109 232.962 106.247 
230.711 234.016 104.772 230.639 233.995 104.87 230.655 234.056 104.847 
230.551 234.005 104.959 230.736 234.067 104.757 229.955 234.025 105.165 
222.911 230.651 107.685 221.936 230.527 108.022 223.414 231.877 107.24 
223.984 232.425 107.246 227.539 233.578 106.262 230.323 233.953 105.137 
229.4 233.944 105.606 221.241 230.148 108.568 222.892 230.271 108.25 
223.971 230.574 108.053 220.065 230.474 108.868 225.486 231.185 107.159 
221.334 231.832 108.543 223.887 232.769 107.903 226.787 233.407 106.942 
228.966 233.788 106.036 229.545 233.868 105.719 218.34 229.624 109.923 
218.366 229.832 109.805 219.363 229.909 109.383 222.626 230.071 108.72 
225.177 231.079 107.789 225.711 231.427 107.938 219.995 230.837 108.92 
220.533 231.394 108.792 228.616 233.234 106.479 224.968 233.046 107.95 
228.708 233.612 106.328 229.141 233.651 106.087 227.666 233.52 106.758 
219.055 229.138 110.127 217.486 229.646 110.398 217.578 230.323 110.313 
218.157 230.684 110 219.223 231.882 110.296 227.284 232.962 107.476 
224.524 232.947 108.57 226.116 233.093 107.898 226.897 233.154 107.575 
216.72 228.85 111.297 216.697 229.166 111.068 220.897 229.195 110.368 
216.821 229.493 110.872 216.452 229.281 111.15 216.177 229.441 111.318 
224.58 230.979 108.994 224.544 231.112 109.311 217.054 230.755 110.97 
219.883 232.238 110.511 222.929 232.754 109.758 224.149 232.843 109.09 
217.078 228.305 111.757 217.925 228.175 111.928 219.297 228.502 111.646 
215.68 228.853 111.854 219.901 228.784 111.291 215.161 229.512 112.171 
215.264 229.917 112.242 224.284 231.283 109.877 224.576 231.48 109.659 
216.392 231.225 112.31 220.387 232.4 110.647 220.821 232.509 110.767 
225.098 232.569 109.061 224.524 232.587 109.409 222.037 232.606 110.498 
222.614 232.644 110.208 223.895 232.65 109.637 216.81 227.709 112.93 
220.641 229.109 111.315 214.741 228.798 112.569 221.933 229.843 111.089 
214.088 229.235 113.141 222.226 230.114 111.106 214.979 230.77 113.449 
217.03 231.549 112.327 224.48 232.039 109.822 216.072 231.365 112.84 
217.793 231.757 112.235 220.358 232.334 111.381 224.126 232.456 109.811 
224.146 232.121 110.068 219.595 228.944 112.968 212.687 228.068 114.339 
221.255 229.925 112.08 221.87 230.161 111.614 222.134 230.542 111.628 
222.949 231.876 110.99 219.166 231.964 112.197 220.065 232.114 111.891 
221.24 232.333 111.37 222.383 232.246 110.996 212.592 227.236 114.795 
211.822 227.549 115.225 218.861 228.557 113.407 212.255 228.1 114.747 
211.768 228.037 115.238 221.159 230.211 112.391 212.442 229.467 115.06 
221.282 230.898 112.402 217.947 231.645 113.128 218.675 231.715 112.879 
220.946 231.841 112.1 214.778 226.634 114.968 215.391 226.786 114.824 
215.94 226.958 115.156 212.277 226.714 115.415 216.491 227.32 115.125 
211.861 227 115.496 217.746 228.215 114.629 211.475 227.62 115.598 
219.016 228.889 113.733 218.955 229.242 114.08 220.034 230.755 113.287 
212.53 230.157 116.008 213.05 230.401 115.716 220.319 231.202 112.921 
213.519 230.543 115.451 214.606 230.811 115.061 215.257 230.938 114.805 
217.635 231.221 114.061 218.296 231.188 113.911 213.702 226.025 116.146 
213.282 225.771 116.685 212.37 226.448 115.68 211.964 226.217 116.213 
212.833 226.037 116.138 215.376 226.66 115.633 210.796 226.865 116.583 
218.175 229.995 114.913 218.43 230.441 114.552 211.995 229.986 116.691 
212.261 230.185 116.455 212.193 230.164 116.652 212.399 230.239 116.418 
212.681 230.259 116.504 212.279 230.23 116.531 211.498 225.624 117.223 
214.016 225.892 117.028 210.827 225.818 117.339 209.749 226.557 117.731 
216.343 227.743 116.182 209.876 227.031 117.517 217.855 229.328 115.22 
216.842 229.794 115.849 217.408 229.62 115.581 217.692 229.945 115.278 
210.495 228.889 117.677 212.187 230.051 116.988 212.332 230.217 116.616 
213.553 230.423 116.332 217.848 230.644 114.749 210.483 224.328 119.106 
211.063 224.51 118.863 212.375 225.168 118.048 209.844 225.285 118.383 
214.812 226.38 116.967 215.246 226.659 116.706 215.068 226.615 117.047 
209.358 225.695 118.459 209.327 226.373 118.229 215.843 228.286 116.955 
210.65 229.135 118.181 211.084 229.402 118.113 216.268 229.898 116.096 
212.877 229.964 117.345 209.418 224.021 119.695 211.501 224.141 119.831 
214.288 226.872 118.538 214.408 227.432 118.532 208.396 227.329 119.575 
208.018 227.387 120.19 214.65 228.227 118.183 211.416 229.481 118.192 
209.49 223.151 120.58 210.418 223.562 120.088 210.476 223.221 120.604 
208.434 223.432 120.703 212.571 224.99 119.83 212.957 225.403 119.564 
206.821 224.942 121.046 206.811 226.293 121.068 213.776 227.946 119.036 
214.534 228.556 118.168 213.746 228.713 118.555 209.172 228.375 120.014 
210.945 228.857 119.495 212.55 228.913 118.947 209.162 222.387 121.507 
210.109 222.862 120.956 210.286 222.53 121.557 210.623 222.775 121.573 
207.75 222.764 121.673 211.124 223.314 121.416 207.292 223.983 121.094 
211.903 224.435 121.093 205.943 224.781 121.894 212.742 225.793 120.409 
213.117 226.361 120.006 206.308 226.624 122.003 206.687 227.091 121.978 
212.384 227.794 120.154 207.346 227.453 121.571 208.125 227.875 121.154 
211.104 228.496 120.116 211.098 228 120.861 208.951 228.282 120.546 
209.585 221.776 122.57 205.938 223.767 122.277 204.648 225.065 123.501 
212.442 225.854 120.894 211.966 225.841 121.519 211.701 226.586 121.578 
205.788 226.626 122.859 206.078 226.997 122.976 209.026 227.987 121.691 
208.023 221.038 123.523 208.852 221.164 123.47 207.307 220.97 123.737 
210.82 222.812 122.59 204.949 223.383 123.44 204.497 223.855 123.861 
204.325 225.476 124.121 210.866 227.179 122.02 205.991 227.042 123.434 
206.824 227.406 122.738 209.421 221.286 123.735 209.819 221.6 123.591 
210.923 223.319 123.101 210.882 225.3 123.197 203.625 224.681 125.049 
204.146 225.815 124.815 209.625 226.895 123.364 204.833 226.434 124.504 
205.298 226.695 124.365 205.866 226.952 123.986 206.47 219.734 125.697 
207.193 219.547 126.073 207.739 219.882 125.713 205.584 220.111 125.7 
209.658 221.511 124.644 204.984 221.305 125.047 210.558 222.701 123.61 
210.637 224.613 123.801 203.258 224.024 125.768 203.357 224.983 125.777 
203.475 225.395 125.967 208.005 226.697 124.672 204.539 226.332 125.163 
206.709 227.252 123.697 206.434 218.783 127.14 206.801 218.981 126.917 
206.096 219.415 126.277 208.161 220.108 125.734 208.618 220.482 125.882 
209.999 222.035 124.535 210.267 222.642 124.33 209.941 223.307 125.116 
209.783 224.391 125.108 203.649 225.71 126.413 207.018 218.779 127.682 
207.473 219.211 127.491 208.997 220.942 125.813 209.235 221.464 125.851 
209.648 222.135 125.43 202.656 222.184 127.325 208.969 222.653 126.732 
208.272 224.609 126.602 209.007 223.732 126.385 203.018 225.127 126.989 
202.823 225.085 127.574 204.326 226.111 126.083 203.431 225.65 127.218 
206.074 217.948 128.518 205.759 217.554 129.03 208.572 221.571 127.296 
201.963 223.261 128.495 201.815 223.42 128.918 205.069 216.702 130.224 
205.809 217.214 129.581 208.028 220.345 127.991 204.779 224.944 128.653 
202.018 224.216 129.553 202.451 224.62 129.139 202.092 224.42 129.298 
204.088 217.086 130.165 206.063 216.781 130.607 202.17 224.445 129.365 
202.577 224.472 129.7 205.029 214.42 132.799 206.784 218.11 130.401 
206.674 218.151 131.065 206.846 218.868 130.774 206.859 219.478 130.759 
206.671 221.138 130.511 205.908 222.331 130.78 204.783 223.458 130.747 
204.028 215.133 132.418 205.071 213.71 134.03 205.74 214.722 133.418 
206.323 217.908 132.348 205.809 220.439 132.408 204.645 222.253 132.277 
204.472 213.128 134.659 204.179 213.151 134.623 204.768 213.335 134.478 
205.052 213.504 134.694 203.489 214.451 133.482 205.747 214.745 133.862 
205.481 218.688 134.249 200.617 220.913 134.059 201.592 222.357 133.576 
204.199 212.592 135.646 204.738 213.118 134.944 204.98 213.303 135.354 
205.372 213.966 134.406 205.713 214.846 134.328 204.038 220.49 134.888 
200.104 220.145 135.844 200.839 221.264 134.741 203.226 221.624 134.349 
202.998 212.236 136.462 199.659 217.991 136.445 199.98 220.047 136.673 
204.866 213.211 136.424 201.195 213.614 136.843 199.713 216.57 137.068 
199.68 219.666 137.957 201.263 220.688 136.841 202.276 220.703 136.417 
200.026 220.079 137.276 202.674 210.567 139.251 203.287 210.777 139.2 
203.374 211.272 137.992 202.492 211.312 137.986 204.467 216.851 137.641 
199.255 218.99 138.404 201.094 220.062 138.105 201.667 219.889 138.132 
200.576 220.316 137.523 202.018 210.538 139.468 203.557 211.007 139.045 
201.629 211.091 138.972 201.854 210.007 140.676 201.428 210.538 139.875 
200.953 210.893 139.921 203.759 211.347 139.294 204.021 213.9 139.983 
198.519 217.002 140.421 202.187 218.372 139.879 199.308 218.749 140.329 
[...]
POINT_DATA 2676
SCALARS scalars float
LOOKUP_TABLE default
1 1 1 1 1 1 1 1 1 
1 1 1 1 1 1 1 1 1 
1 1 1 1 1 1 1 1 1 
1 1 1 1 1 1 1 1 1 
1 1 1 1 1 1 1 1 1 
1 1 1 1 1 1 1 1 1 
1 1 1 1 1 1 1 1 1 
1 1 1 1 1 1 1 1 1 
1 1 1 1 1 1 1 1 1 
1 1 1 1 1 1 1 1 1 
1 1 1 1 1 1 1 1 1 
1 1 1 1 1 1 1 1 1 
1 1 1 1 1 1 1 1 1 
1 1 1 1 1 1 1 1 1 
1 1 1 1 1 1 1 1 1 
1 1 1 1 1 1 1 1 1 
1 1 1 1 1 1 1 1 1 
1 1 1 1 1 1 1 1 1 
1 1 1 1 1 1 1 1 1 
1 1 1 1 1 1 1 1 1 
1 1 1 1 1 1 1 1 1 
1 1 1 1 1 1 1 1 1 
1 1 1 1 1 1 1 1 1 
1 1 1 1 1 1 1 1 1 
1 1 1 1 1 1 1 1 1 
1 1 1 1 1 1 1 1 1 
1 1 1 1 1 1 1 1 1 
1 1 1 1 1 1 1 1 1 
1 1 1 1 1 1 1 1 1 
1 1 1 1 1 1 1 1 1 
1 1 1 1 1 1 1 1 1 
1 1 1 1 1 1 1 1 1 
1 1 1 1 1 1 1 1 1 
1 1 1 1 1 1 1 1 1 
1 1 1 1 1 1 1 1 1 
1 1 1 1 1 1 1 1 1 
1 1 1 1 1 1 1 1 1 
1 1 1 1 1 1 1 1 1 
1 1 1 1 1 1 1 1 1 
1 1 1 1 1 1 1 1 1 
1 1 1 1 1 1 1 1 1 
1 1 1 1 1 1 1 1 1 
1 1 1 1 1 1 1 1 1 
1 1 1 1 1 1 1 1 1 
1 1 1 1 1 1 1 1 1 
1 1 1 1 1 1 1 1 1 
1 1 1 1 1 1 1 1 1 
1 1 1 1 1 1 1 1 1 
1 1 1 1 1 1 1 1 1 
1 1 1 1 1 1 1 1 1 
1 1 1 1 1 1 1 1 1 
1 1 1 1 1 1 1 1 1 
1 1 1 1 1 1 1 1 1 
1 1 1 1 1 1 1 1 1 
1 1 1 1 1 1 1 1 1 
1 1 1 1 1 1 1 1 1 
1 1 1 1 1 1 1 1 1 
1 1 1 1 1 1 1 1 1 
1 1 1 1 1 1 1 1 1 
1 1 1 1 1 1 1 1 1 
1 1 1 1 1 1 1 1 1 
1 1 1 1 1 1 1 1 1 
1 1 1 1 1 1 1 1 1 
1 1 1 1 1 1 1 1 1 
1 1 1 1 1 1 1 1 1 
1 1 1 1 1 1 1 1 1 
1 1 1 1 1 1 1 1 1 
1 1 1 1 1 1 1 1 1 
1 1 1 1 1 1 1 1 1 
1 1 1 1 1 1 1 1 1 
1 1 1 1 1 1 1 1 1 
1 1 1 1 1 1 1 1 1 
1 1 1 1 1 1 1 1 1 
1 1 1 1 1 1 1 1 1 
1 1 1 1 1 1 1 1 1 
1 1 1 1 1 1 1 1 1 
1 1 1 1 1 1 1 1 1 
1 1 1 1 1 1 1 1 1 
1 1 1 1 1 1 1 1 1 
1 1 1 1 1 1 1 1 1 
1 1 1 1 1 1 1 1 1 
1 1 1 1 1 1 1 1 1 
1 1 1 1 1 1 1 1 1 
1 1 1 1 1 1 1 1 1 
1 1 1 1 1 1 1 1 1 
1 1 1 1 1 1 1 1 1 
1 1 1 1 1 1 1 1 1 
1 1 1 1 1 1 1 1 1 
1 1 1 1 1 1 1 1 1 
1 1 1 1 1 1 1 1 1 
1 1 1 1 1 1 1 1 1 
1 1 1 1 1 1 1 1 1 
1 1 1 1 1 1 1 1 1 
1 1 1 1 1 1 1 1 1 
1 1 1 1 1 1 1 1 1 
1 1 1 1 1 1 1 1 1 
1 1 1 1 1 1 1 1 1 
1 1 1 1 1 1 1 1 1 
1 1 1 1 1 1 1 1 1 
1 1 1 1 1 1 1 1 1 
1 1 1 1 1 1 1 1 1 
1 1 1 1 1 1 1 1 1 
1 1 1 1 1 1 1 1 1 
1 1 1 1 1 1 1 1 1 
1 1 1 1 1 1 1 1 1 
1 1 1 1 1 1 1 1 1 
1 1 1 1 1 1 1 1 1 
1 1 1 1 1 1 1 1 1 
1 1 1 1 1 1 1 1 1 
1 1 1 1 1 1 1 1 1 
1 1 1 1 1 1 1 1 1 
1 1 1 1 1 1 1 1 1 
1 1 1 1 1 1 1 1 1 
1 1 1 1 1 1 1 1 1 
1 1 1 1 1 1 1 1 1 
1 1 1 1 1 1 1 1 1 
1 1 1 1 1 1 1 1 1 
1 1 1 1 1 1 1 1 1 
1 1 1 1 1 1 1 1 1 
1 1 1 1 1 1 1 1 1 
1 1 1 1 1 1 1 1 1 
1 1 1 1 1 1 1 1 1 
1 1 1 1 1 1 1 1 1 
1 1 1 1 1 1 1 1 1 
1 1 1 1 1 1 1 1 1 
1 1 1 1 1 1 1 1 1 
1 1 1 1 1 1 1 1 1 
1 1 1 1 1 1 1 1 1 
1 1 1 1 1 1 1 1 1 
1 1 1 1 1 1 1 1 1 
1 1 1 1 1 1 1 1 1 
1 1 1 1 1 1 1 1 1 
1 1 1 1 1 1 1 1 1 
1 1 1 1 1 1 1 1 1 
1 1 1 1 1 1 1 1 1 
1 1 1 1 1 1 1 1 1 
1 1 1 1 1 1 1 1 1 
1 1 1 1 1 1 1 1 1 
1 1 1 1 1 1 1 1 1 
1 1 1 1 1 1 1 1 1 
1 1 1 1 1 1 1 1 1 
1 1 1 1 1 1 1 1 1 
1 1 1 1 1 1 1 1 1 
1 1 1 1 1 1 1 1 1 
1 1 1 1 1 1 1 1 1 
1 1 1 1 1 1 1 1 1 
1 1 1 1 1 1 1 1 1 
1 1 1 1 1 1 1 1 1 
1 1 1 1 1 1 1 1 1 
1 1 1 1 1 1 1 1 1 
1 1 1 1 1 1 1 1 1 
1 1 1 1 1 1 1 1 1 
1 1 1 1 1 1 1 1 1 
1 1 1 1 1 1 1 1 1 
1 1 1 1 1 1 1 1 1 
1 1 1 1 1 1 1 1 1 
1 1 1 1 1 1 1 1 1 
1 1 1 1 1 1 1 1 1 
1 1 1 1 1 1 1 1 1 
1 1 1 1 1 1 1 1 1 
1 1 1 1 1 1 1 1 1 
1 1 1 1 1 1 1 1 1 
1 1 1 1 1 1 1 1 1 
1 1 1 1 1 1 1 1 1 
1 1 1 1 1 1 1 1 1 
1 1 1 1 1 1 1 1 1 
1 1 1 1 1 1 1 1 1 
1 1 1 1 1 1 1 1 1 
1 1 1 1 1 1 1 1 1 
1 1 1 1 1 1 1 1 1 
1 1 1 1 1 1 1 1 1 
1 1 1 1 1 1 1 1 1 
1 1 1 1 1 1 1 1 1 
1 1 1 1 1 1 1 1 1 
1 1 1 1 1 1 1 1 1 
1 1 1 1 1 1 1 1 1 
1 1 1 1 1 1 1 1 1 
1 1 1 1 1 1 1 1 1 
1 1 1 1 1 1 1 1 1 
1 1 1 1 1 1 1 1 1 
1 1 1 1 1 1 1 1 1 
1 1 1 1 1 1 1 1 1 
1 1 1 1 1 1 1 1 1 
1 1 1 1 1 1 1 1 1 
1 1 1 1 1 1 1 1 1 
1 1 1 1 1 1 1 1 1 
1 1 1 1 1 1 1 1 1 
1 1 1 1 1 1 1 1 1 
1 1 1 1 1 1 1 1 1 
1 1 1 1 1 1 1 1 1 
1 1 1 1 1 1 1 1 1 
1 1 1 1 1 1 1 1 1 
1 1 1 1 1 1 1 1 1 
1 1 1 1 1 1 1 1 1 
1 1 1 1 1 1 1 1 1 
1 1 1 1 1 1 1 1 1 
1 1 1 1 1 1 1 1 1 
1 1 1 1 1 1 1 1 1 
1 1 1 1 1 1 1 1 1 
1 1 1 1 1 1 1 1 1 
1 1 1 1 1 1 1 1 1 
1 1 1 1 1 1 1 1 1 
1 1 1 1 1 1 1 1 1 
1 1 1 1 1 1 1 1 1 
1 1 1 1 1 1 1 1 1 
1 1 1 1 1 1 1 1 1 
1 1 1 1 1 1 1 1 1 
1 1 1 1 1 1 1 1 1 
1 1 1 1 1 1 1 1 1 
1 1 1 1 1 1 1 1 1 
1 1 1 1 1 1 1 1 1 
1 1 1 1 1 1 1 1 1 
1 1 1 1 1 1 1 1 1 
1 1 1 1 1 1 1 1 1 
1 1 1 1 1 1 1 1 1 
1 1 1 1 1 1 1 1 1 
1 1 1 1 1 1 1 1 1 
1 1 1 1 1 1 1 1 1 
1 1 1 1 1 1 1 1 1 
1 1 1 1 1 1 1 1 1 
1 1 1 1 1 1 1 1 1 
1 1 1 1 1 1 1 1 1 
1 1 1 1 1 1 1 1 1 
1 1 1 1 1 1 1 1 1 
1 1 1 1 1 1 1 1 1 
1 1 1 1 1 1 1 1 1 
1 1 1 1 1 1 1 1 1 
1 1 1 1 1 1 1 1 1 
1 1 1 1 1 1 1 1 1 
1 1 1 1 1 1 1 1 1 
1 1 1 1 1 1 1 1 1 
1 1 1 1 1 1 1 1 1 
1 1 1 1 1 1 1 1 1 
1 1 1 1 1 1 1 1 1 
1 1 1 1 1 1 1 1 1 
1 1 1 1 1 1 1 1 1 
1 1 1 1 1 1 1 1 1 
1 1 1 1 1 1 1 1 1 
1 1 1 1 1 1 1 1 1 
1 1 1 1 1 1 1 1 1 
1 1 1 1 1 1 1 1 1 
1 1 1 1 1 1 1 1 1 
1 1 1 1 1 1 1 1 1 
1 1 1 1 1 1 1 1 1 
1 1 1 1 1 1 1 1 1 
1 1 1 1 1 1 1 1 1 
1 1 1 1 1 1 1 1 1 
1 1 1 1 1 1 1 1 1 
1 1 1 1 1 1 1 1 1 
1 1 1 1 1 1 1 1 1 
1 1 1 1 1 1 1 1 1 
1 1 1 1 1 1 1 1 1 
1 1 1 1 1 1 1 1 1 
1 1 1 1 1 1 1 1 1 
1 1 1 1 1 1 1 1 1 
1 1 1 1 1 1 1 1 1 
1 1 1 1 1 1 1 1 1 
1 1 1 1 1 1 1 1 1 
1 1 1 1 1 1 1 1 1 
1 1 1 1 1 1 1 1 1 
1 1 1 1 1 1 1 1 1 
1 1 1 1 1 1 1 1 1 
1 1 1 1 1 1 1 1 1 
1 1 1 1 1 1 1 1 1 
1 1 1 1 1 1 1 1 1 
1 1 1 1 1 1 1 1 1 
1 1 1 1 1 1 1 1 1 
1 1 1 1 1 1 1 1 1 
1 1 1 1 1 1 1 1 1 
1 1 1 1 1 1 1 1 1 
1 1 1 1 1 1 1 1 1 
1 1 1 1 1 1 1 1 1 
1 1 1 1 1 1 1 1 1 
1 1 1 1 1 1 1 1 1 
1 1 1 1 1 1 1 1 1 
1 1 1 1 1 1 1 1 1 
1 1 1 1 1 1 1 1 1 
1 1 1 1 1 1 1 1 1 
1 1 1 1 1 1 1 1 1 
1 1 1 1 1 1 1 1 1 
1 1 1 1 1 1 1 1 1 
1 1 1 1 1 1 1 1 1 
1 1 1 1 1 1 1 1 1 
1 1 1 1 1 1 1 1 1 
1 1 1 1 1 1 1 1 1 
1 1 1 1 1 1 1 1 1 
1 1 1 1 1 1 1 1 1 
1 1 1 1 1 1 1 1 1 
1 1 1 1 1 1 1 1 1 
1 1 1 1 1 1 1 1 1 
1 1 1 1 1 1 1 1 1 
1 1 1 1 1 1 1 1 1 
1 1 1 1 1 1 1 1 1 
1 1 1 1 1 1 1 1 1 
1 1 1 1 1 1 1 1 1 
1 1 1 1 1 1 1 1 1 
1 1 1 1 1 1 1 1 1 
1 1 1 
NORMALS Normals float
-0.271192 -0.293646 -0.916639 0.0655241 -0.563927 -0.823221 -0.397074 0.198841 -0.895988 
-0.302519 0.336059 -0.891934 0.0813722 -0.33719 -0.937913 -0.107116 0.242741 -0.964159 
0.390534 -0.44711 -0.804721 -0.361561 0.54873 -0.753769 0.0518929 0.230022 -0.971801 
0.17068 -0.811317 -0.559136 -0.0121075 -0.890742 -0.454349 0.448723 -0.820027 -0.355252 
0.499308 -0.857352 -0.125054 -0.505514 -0.0664319 -0.860257 -0.45593 0.512004 -0.727997 
0.296363 -0.0239682 -0.954775 -0.132921 0.503716 -0.853582 0.611427 -0.70509 -0.359174 
0.0762808 0.318549 -0.944832 0.626383 -0.434071 -0.647477 -0.260592 0.713382 -0.650521 
0.622423 0.310658 -0.718388 0.758259 0.0687836 -0.648315 -0.311301 -0.451104 -0.836419 
0.208456 -0.967353 -0.144131 0.606943 -0.787682 0.105723 0.646889 -0.753709 0.116003 
-0.415576 0.735674 -0.534866 0.871193 -0.490936 0.00206687 0.821034 -0.570227 0.0272951 
-0.338085 0.801266 -0.493631 0.844526 -0.316936 -0.431657 0.222944 0.41098 -0.883963 
0.850587 -0.0695863 -0.52121 -0.340397 0.874243 -0.346162 -0.218324 0.951509 -0.216716 
0.107293 0.814709 -0.569857 -0.115556 0.980754 -0.15738 0.159456 0.981304 0.107776 
-0.146093 -0.712847 -0.685934 0.0022435 -0.833751 -0.552136 0.11429 -0.938378 -0.326166 
0.247142 -0.940445 -0.233419 0.268865 -0.94372 -0.192624 -0.425898 -0.000225314 -0.904771 
0.49536 -0.842994 0.209715 -0.468749 0.626898 -0.622313 -0.463337 0.654406 -0.597554 
0.80811 -0.45861 0.369642 0.696903 -0.41778 0.582912 0.508222 0.578242 0.638237 
0.634763 0.135392 0.760753 0.88571 0.407138 0.223061 -0.0534674 0.988971 0.138119 
-0.115443 -0.751611 -0.649426 -0.286986 -0.487109 -0.824842 -0.477639 0.574392 -0.664782 
-0.472779 0.639581 -0.606149 -0.244999 0.969487 -0.00840274 0.590025 0.17519 0.788149 
-0.102323 0.98947 0.102363 -0.179906 -0.682518 -0.708381 -0.00434845 -0.881361 -0.472424 
0.275244 -0.948032 -0.159614 -0.430741 -0.0607118 -0.900431 0.288499 -0.951777 -0.104356 
-0.427117 0.539 -0.725982 -0.343696 0.896216 -0.280482 -0.294813 0.94639 -0.132029 
0.0577809 0.881512 0.468613 0.31392 0.721461 0.61721 -0.301484 -0.559447 -0.772092 
-0.393979 -0.276017 -0.876695 -0.3747 -0.377688 -0.84673 0.0446 -0.915483 -0.399877 
0.339874 -0.938999 0.0526016 0.512693 -0.821803 0.248568 -0.465409 0.0507372 -0.88364 
-0.450729 0.343389 -0.82397 0.669058 -0.254093 0.698426 -0.320317 0.945797 -0.0535256 
0.196739 0.773046 0.603069 0.560128 0.187977 0.806797 0.109289 0.89829 0.425595 
-0.179118 -0.726386 -0.663536 -0.559044 -0.188227 -0.80749 -0.628479 0.11214 -0.769701 
-0.539187 0.284809 -0.792566 -0.332901 0.735409 -0.590212 0.409687 0.484806 0.772735 
-0.151518 0.976763 0.151578 0.212851 0.803915 0.555352 0.336951 0.583285 0.739082 
-0.202087 -0.584694 -0.785681 -0.344222 -0.719581 -0.603088 0.36375 -0.929775 -0.0566031 
-0.345611 -0.293105 -0.891427 -0.572614 -0.584662 -0.574703 -0.64163 -0.29887 -0.706391 
0.562236 -0.780376 0.273684 0.692637 -0.602534 0.396493 -0.633547 0.399926 -0.662327 
-0.2132 0.932375 -0.291928 0.0977024 0.965963 0.239519 -0.147974 0.988866 0.0157072 
-0.133085 -0.769706 -0.624373 0.0787439 -0.911178 -0.404418 0.36226 -0.931356 -0.0366503 
-0.472573 -0.446137 -0.760024 0.200016 -0.950751 -0.236784 -0.662266 0.200936 -0.721823 
-0.703222 0.405714 -0.583845 0.644021 -0.457636 0.613031 0.74816 -0.346362 0.565942 
-0.479547 0.704551 -0.523109 -0.20054 0.864386 -0.461108 -0.111384 0.987082 -0.115162 
0.401004 0.721028 0.565079 0.359449 0.750564 0.554482 0.0792075 0.947485 0.309835 
0.150393 0.937682 0.313265 0.192328 0.838839 0.509273 0.215695 -0.94282 -0.254099 
0.504539 -0.805034 0.312025 -0.695886 -0.0269979 -0.717645 0.547887 -0.77288 0.32012 
-0.671623 0.276886 -0.687209 0.58696 -0.602805 0.540466 -0.557466 0.766978 -0.317769 
-0.321307 0.795904 -0.513126 0.594853 0.212214 0.775316 -0.499967 0.802245 -0.326245 
-0.24228 0.969784 -0.0286306 -0.132787 0.943488 0.303643 0.236475 0.679399 0.69462 
0.460679 0.431228 0.775769 0.601439 -0.705664 0.374579 -0.641319 -0.0672104 -0.764325 
0.695872 -0.502599 0.512989 0.60777 -0.544126 0.578396 0.638992 -0.388246 0.664044 
0.490701 0.366658 0.790427 0.00600579 0.947675 0.319181 -0.130778 0.957095 0.258585 
0.149229 0.833863 0.531416 0.309929 0.744425 0.591418 -0.497229 -0.420997 -0.758633 
-0.633668 -0.274964 -0.72309 0.479182 -0.780944 0.400639 -0.676896 -0.0237542 -0.735695 
-0.786552 0.131836 -0.603287 0.697365 -0.279821 0.659835 -0.724579 0.435212 -0.534392 
0.659906 -0.114713 0.742539 -0.0944413 0.939451 0.329412 0.0552555 0.932737 0.356298 
0.342566 0.669852 0.658746 0.0370171 -0.80407 -0.593382 0.249997 -0.859576 -0.445679 
0.482372 -0.864755 -0.139699 -0.439615 -0.589368 -0.677779 0.604989 -0.766053 0.217142 
-0.573554 -0.508491 -0.64224 0.545585 -0.735144 0.402369 -0.789556 -0.0547905 -0.611227 
0.487158 -0.639385 0.594864 0.615328 -0.307449 0.725842 0.610009 0.118805 0.783437 
-0.535549 0.720707 -0.440192 -0.410243 0.887533 -0.209729 0.542418 0.397421 0.740161 
-0.478029 0.775211 -0.41296 -0.0407571 0.994077 0.100746 -0.219485 0.974831 0.0391283 
0.0601062 0.859883 0.50694 0.223999 0.790097 0.570588 0.124739 -0.909271 -0.397073 
0.0257663 -0.92971 -0.367389 -0.237865 -0.715065 -0.657345 -0.350209 -0.764663 -0.540967 
-0.114322 -0.868306 -0.482675 0.461226 -0.887201 -0.0119874 -0.58051 -0.469319 -0.665393 
0.677031 0.169729 0.716115 0.631414 0.260915 0.730232 -0.63796 0.76031 -0.12221 
-0.625787 0.713704 -0.314671 -0.548117 0.829397 0.108022 -0.188211 0.971649 -0.143093 
-0.126695 0.979925 0.153931 -0.385832 0.921786 -0.0380099 -0.209134 -0.765943 -0.607943 
0.432963 -0.900222 -0.0462977 -0.471592 -0.514525 -0.716146 -0.688744 -0.173779 -0.70387 
0.729011 -0.488839 0.479144 -0.738623 -0.0872004 -0.668455 0.730799 -0.0860318 0.677149 
0.354858 0.420707 0.834914 0.528025 0.197471 0.82595 0.516029 0.309291 0.798782 
-0.680915 0.66757 -0.301173 -0.215496 0.907618 0.360267 -0.113945 0.960802 0.252736 
-0.0306494 0.956259 0.290912 0.336572 0.589879 0.734004 -0.0813404 -0.827609 -0.555381 
0.155009 -0.886041 -0.436926 0.0868409 -0.878269 -0.470214 -0.413973 -0.526441 -0.742622 
0.554632 -0.793399 0.250801 0.720805 -0.656641 0.221952 0.720566 -0.574416 0.388369 
-0.635638 -0.332385 -0.696767 -0.6668 -0.262192 -0.697591 0.711574 -0.0301073 0.701966 
-0.443936 0.880939 0.163914 -0.472495 0.868376 0.150569 0.370362 0.494459 0.786347 
0.116415 0.854014 0.507057 -0.238308 -0.728123 -0.642687 0.475884 -0.834527 -0.277667 
0.820251 -0.210489 0.531867 0.782642 0.0107693 0.622379 -0.787028 0.104094 -0.608071 
-0.708355 0.561498 -0.427731 0.703884 0.104336 0.70261 -0.213539 0.897183 0.386606 
-0.0658121 -0.776703 -0.62642 0.284923 -0.769932 -0.570985 0.420215 -0.729951 -0.539065 
-0.434068 -0.666274 -0.606353 0.800481 -0.575504 0.16741 0.7647 -0.555478 0.326616 
-0.711308 -0.160677 -0.684269 -0.733584 0.240739 -0.635531 0.61795 0.349331 0.704347 
0.493947 0.558335 0.666543 0.501388 0.539885 0.676117 -0.388331 0.921131 0.0267893 
-0.0507922 0.909454 0.412691 0.213267 0.82593 0.521878 -0.234775 -0.824524 -0.514821 
0.215692 -0.811591 -0.542952 0.301597 -0.838632 -0.453581 0.611003 -0.686804 -0.393669 
-0.473231 -0.580636 -0.662506 0.775665 -0.570098 -0.270798 -0.614944 -0.394689 -0.682689 
0.785999 -0.609688 -0.102402 -0.712662 -0.102476 -0.693983 0.849106 -0.344718 0.400236 
0.820468 -0.183761 0.541354 -0.744773 0.468849 -0.474861 -0.690711 0.633759 -0.348237 
0.518529 0.542113 0.661242 -0.421199 0.891876 -0.164765 -0.448371 0.891467 -0.0651915 
0.159719 0.807517 0.567809 0.3439 0.734336 0.585221 -0.372188 0.92809 0.0111938 
0.0548146 -0.868596 -0.49248 -0.627789 -0.356836 -0.691772 -0.80244 0.0214218 -0.596348 
0.775108 0.010108 0.631747 0.768056 0.0216099 0.640018 0.661683 0.348771 0.663727 
-0.703242 0.634691 -0.320341 -0.724565 0.630774 -0.277721 0.00270046 0.946313 0.323241 
0.0532348 -0.898144 -0.436468 0.206828 -0.946729 -0.246834 -0.240817 -0.732584 -0.636654 
0.774662 -0.630561 0.0478822 -0.720699 -0.339087 -0.60466 -0.807357 -0.163815 -0.566867 
-0.816633 0.313915 -0.484321 0.599651 0.441384 0.667532 -0.687059 0.717668 -0.11359 
-0.421068 0.902949 -0.0859335 0.484878 -0.864009 -0.135581 0.677458 -0.729669 -0.0929145 
0.913244 -0.229425 0.336674 0.782608 0.216056 0.583819 -0.86468 0.182118 -0.468148 
-0.789668 0.518375 -0.328195 0.427692 0.693912 0.57928 -0.531303 0.82687 -0.184402 
-0.287295 0.937568 0.196031 -0.572263 0.818667 -0.0479485 -0.115881 -0.783143 -0.610949 
0.320543 -0.873635 -0.36608 0.277287 -0.931505 -0.235394 -0.444171 -0.693288 -0.567507 
0.786621 -0.594733 0.165892 -0.572131 -0.538372 -0.618726 0.818194 -0.491229 0.298751 
0.789809 0.23483 0.566619 -0.94155 0.0508034 -0.333022 -0.958127 0.229255 -0.171566 
-0.86341 0.459822 -0.207573 0.188292 0.839723 0.509324 -0.513996 0.856881 -0.0395379 
-0.133426 0.960695 0.24344 -0.0514453 -0.881598 -0.469188 0.283543 -0.855512 -0.433247 
-0.259467 -0.813464 -0.520531 0.603527 -0.797317 0.00631128 0.697634 -0.708815 0.104347 
0.878609 -0.377014 0.2931 0.880712 -0.293401 0.371836 0.880464 -0.0203345 0.473676 
0.807532 0.275768 0.521386 -0.688791 0.71903 -0.0925369 0.501342 -0.826764 -0.25518 
0.619321 -0.756681 -0.209467 0.794516 -0.584123 0.165963 0.844535 -0.293294 0.44804 
0.884726 -0.220789 0.410503 -0.84235 -0.315882 -0.436652 0.81959 0.0134729 0.572792 
0.603427 0.468909 0.644981 0.724732 0.187016 0.663166 -0.86572 0.449509 -0.22016 
-0.758412 0.634184 -0.150404 -0.169948 0.959585 0.22431 -0.403873 0.898963 0.169565 
0.164429 -0.870404 -0.464069 0.257279 -0.811204 -0.525124 0.776755 0.18484 0.602068 
-0.930775 0.092286 -0.353752 -0.971696 0.0773038 -0.22323 0.154398 -0.764741 -0.625566 
0.170245 -0.8012 -0.573668 0.914449 -0.172783 0.365964 0.0730623 0.886961 0.456028 
-0.652416 0.68027 0.334045 -0.24102 0.913216 0.328551 -0.76482 0.644221 -0.00549805 
-0.436324 -0.655809 -0.616065 0.595954 -0.703532 -0.387145 -0.23701 0.800349 0.550697 
-0.247155 0.897968 0.364098 -0.000877428 -0.781521 -0.623878 0.941968 -0.326418 0.0784111 
0.935342 -0.0765086 0.34537 0.979299 -0.0670113 0.191005 0.898247 0.0710086 0.433717 
0.800373 0.162111 0.577168 0.705984 0.42794 0.564317 0.541569 0.617423 0.570519 
-0.429359 -0.648846 -0.628211 0.694613 -0.65372 -0.30027 0.956829 -0.279302 -0.0804223 
0.967689 -0.0392457 0.249074 0.815928 0.321886 0.480261 0.477426 0.720419 0.503052 
0.194368 -0.843304 -0.501058 -0.10238 -0.796865 -0.59542 0.364776 -0.812464 -0.454797 
0.834301 -0.551306 0.0017782 -0.488544 -0.625559 -0.608276 0.960968 -0.274121 -0.0373927 
0.845133 0.344166 0.409023 -0.946445 0.304005 -0.108737 -0.480677 0.815632 0.322017 
0.306721 -0.885873 -0.348068 0.586897 -0.782673 -0.207304 0.750078 -0.645364 -0.14453 
0.875242 -0.481067 0.0502661 0.971203 -0.0820625 0.223675 0.6624 0.608082 0.437564 
-0.886055 0.457075 -0.0773899 -0.718097 0.684948 0.123217 0.394358 0.837773 0.377648 
-0.380998 -0.720822 -0.579012 -0.932541 -0.0829081 -0.351417 -0.881169 0.462031 -0.100336 
0.946913 -0.298461 0.119485 -0.714744 -0.46871 -0.519087 -0.909042 -0.212601 -0.35839 
-0.693879 0.709775 0.121456 -0.0848216 0.909333 0.407331 0.329778 0.776167 0.537412 
-0.655786 0.751608 0.0709268 -0.0106065 -0.925705 -0.378098 0.495176 -0.851759 -0.171192 
0.283652 -0.876881 -0.3881 -0.276852 -0.79233 -0.543659 0.851988 0.317175 0.416553 
-0.92355 0.378592 -0.0610191 -0.0355242 0.952065 0.303827 0.33013 0.827177 0.454744 
-0.125103 0.928324 0.35009 -0.285814 -0.833461 -0.47292 0.776009 -0.630609 0.0119363 
-0.424915 -0.710755 -0.560601 -0.174972 -0.916755 -0.35909 -0.332814 -0.879981 -0.338923 
-0.592692 -0.6538 -0.470385 0.895823 -0.415155 0.15858 0.908699 0.0914181 0.40732 
-0.966166 0.0133921 -0.257572 0.63009 0.590877 0.503835 -0.510084 0.798706 0.319192 
-0.460969 0.841827 0.280775 -0.0746103 0.902318 0.424565 0.682909 -0.730212 -0.0206259 
0.785239 -0.618709 0.0244698 0.933858 -0.138689 0.329657 0.744571 0.444761 0.497797 
0.472466 0.744353 0.471926 -0.603308 0.761422 0.237182 0.287356 -0.923734 -0.253262 
0.450105 -0.882118 -0.138825 0.917744 -0.235958 0.319485 0.724927 0.493767 0.480286 
0.601459 0.617256 0.50719 0.418093 0.74556 0.518979 -0.0621821 0.917487 0.392876 
0.132743 -0.965559 -0.223773 0.45459 -0.89022 -0.0292685 0.700163 -0.710634 0.0690675 
-0.805537 -0.384895 -0.450518 0.132785 0.912029 0.388035 0.30867 0.780004 0.544349 
-0.135063 -0.969427 -0.204866 -0.963689 0.0184307 -0.266389 0.571662 0.644987 0.507143 
-0.749482 0.639058 0.172866 -0.319135 0.889111 0.328077 -0.104041 0.933455 0.343273 
0.121491 0.827535 0.548111 -0.523139 -0.734181 -0.432786 0.366598 -0.924807 -0.101673 
0.657522 -0.753425 -0.00402766 0.890744 -0.398889 0.21786 -0.789231 -0.458107 -0.408965 
0.90109 -0.36862 0.228375 0.904454 0.12175 0.408827 -0.915656 0.363665 -0.171236 
0.199558 -0.974046 -0.106825 -0.839188 0.543465 -0.0202468 0.768685 0.486588 0.415158 
-0.368755 0.849215 0.37796 -0.319088 0.851415 0.416263 0.17616 0.860546 0.477942 
0.176897 -0.976563 -0.122602 0.672208 -0.720393 0.17079 0.677959 -0.730142 0.0852316 
0.883558 -0.389634 0.259827 0.871623 0.251237 0.420895 0.86177 0.310593 0.401105 
-0.054957 -0.977308 -0.204571 -0.435873 -0.836283 -0.332633 0.594481 -0.802 0.0582063 
0.941074 -0.00459451 0.33817 -0.961731 0.028233 -0.272538 -0.452528 0.842834 0.29129 
0.0248788 -0.985874 -0.165629 0.318081 -0.948063 0.000499948 0.524304 -0.833491 0.174349 
0.701291 -0.698743 0.141243 0.875708 -0.422313 0.234067 -0.852932 -0.333158 -0.401886 
0.65815 0.618798 0.428867 0.230526 -0.971306 -0.0585063 -0.815946 -0.465323 -0.343083 
-0.925433 0.0928182 -0.367368 0.852638 0.37589 0.362925 0.0756975 -0.93748 -0.339708 
0.167746 -0.96258 -0.212842 0.68559 -0.722754 0.0871344 -0.906083 -0.275661 -0.320975 
-0.504244 0.844917 0.178474 -0.469726 0.848186 0.244822 -0.510932 -0.765552 -0.390997 