# vtk DataFile Version 4.2
vtk output
ASCII
DATASET POLYDATA
POINTS 198 float
416.071 243.418 176.13 416.845 243.441 176.165 417.351 243.436 176.271 
416.12 243.451 176.1 415.998 243.459 176.137 416.34 243.465 176.101 
417.5 243.487 176.268 417.486 243.576 176.25 416.061 243.488 176.107 
416.121 243.537 176.131 417.233 243.651 176.219 418.269 243.746 176.441 
418.097 243.791 176.406 416.69 243.665 176.201 417.025 243.704 176.228 
418.271 243.899 176.497 416.011 243.42 176.181 416.646 243.38 176.321 
417.834 243.487 176.396 418.055 243.526 176.49 415.953 243.457 176.197 
418.565 243.762 176.562 418.803 243.76 176.702 419.016 243.849 176.77 
416.028 243.513 176.144 415.991 243.517 176.208 418.766 243.941 176.657 
416.314 243.661 176.25 417.416 243.91 176.423 418.61 243.991 176.647 
417.648 244.028 176.586 416.067 243.436 176.329 415.984 243.438 176.251 
418.448 243.595 176.797 415.966 243.49 176.269 419.174 243.841 176.913 
419.484 243.938 177.05 416.014 243.551 176.3 419.365 244.088 176.983 
419.682 244.026 177.157 419.843 244.12 177.258 417.729 244.114 176.751 
419.396 244.243 177.136 416.009 243.471 176.327 416.323 243.477 176.532 
416.06 243.542 176.388 416.178 243.563 176.511 419.634 243.964 177.149 
416.209 243.637 176.515 419.99 244.164 177.374 420.047 244.141 177.439 
416.361 243.749 176.544 416.432 243.79 176.498 420.011 244.21 177.414 
420.077 244.197 177.479 416.938 243.957 176.73 419.587 244.305 177.3 
419.166 244.343 177.315 416.904 243.521 176.759 417.69 243.544 176.883 
416.576 243.581 176.734 418.905 243.756 177.226 419.842 244.007 177.44 
416.385 243.72 176.645 420.098 244.157 177.541 416.474 243.794 176.674 
420.108 244.224 177.588 417.335 244.038 176.951 418.032 244.234 177.068 
419.888 244.314 177.517 418.775 244.332 177.384 419.705 244.348 177.516 
417.22 243.601 176.916 418.131 243.655 177.097 416.77 243.693 176.85 
417.048 243.712 176.956 419.164 243.875 177.46 419.888 244.029 177.565 
420.13 244.181 177.654 416.864 243.89 176.849 417.571 243.988 177.144 
420.111 244.24 177.694 417.823 244.132 177.198 418.355 244.267 177.355 
418.478 244.246 177.433 419.99 244.279 177.721 419.346 244.338 177.572 
419.047 243.94 177.545 419.805 244.05 177.681 418.018 243.995 177.321 
418.83 244.017 177.554 419.374 244.025 177.671 420.098 244.147 177.696 
420.121 244.197 177.738 420.084 244.237 177.76 419.284 244.205 177.7 
419.811 244.263 177.76 419.995 244.242 177.78 419.498 244.113 177.738 
419.751 244.142 177.774 419.91 244.129 177.755 420.061 244.155 177.746 
419.462 244.183 177.748 419.893 244.2 177.79 420.041 244.198 177.779 
420.078 244.068 278.763 419.97 244.016 278.815 419.331 244.047 278.886 
420.033 244.11 278.738 420.153 244.077 278.777 420.147 244.115 278.749 
420.185 244.102 278.785 418.944 244.066 279.032 419.174 244.083 278.94 
419.506 244.124 278.833 419.957 244.148 278.736 420.084 244.165 278.746 
420.167 244.141 278.786 419.301 244.194 278.96 419.677 244.192 278.811 
420.048 244.21 278.771 420.108 244.185 278.805 418.108 243.521 279.609 
418.727 243.693 279.296 417.355 243.637 279.733 418.09 243.664 279.458 
417.683 243.555 279.67 417.797 243.787 279.525 418.278 243.828 279.326 
420.135 244.059 278.84 417.313 243.759 279.762 418.62 244.003 279.194 
420.131 244.143 278.868 417.367 243.815 279.784 419.322 244.217 279.009 
419.884 244.241 278.863 417.707 243.441 279.848 418.394 243.534 279.584 
420.069 244.038 278.946 420.091 244.089 278.952 416.939 243.718 280.047 
420.05 244.128 278.969 417.151 243.789 279.929 417.384 243.857 279.881 
418.917 244.134 279.312 419.531 244.224 279.05 416.45 243.396 280.448 
418.29 243.49 279.741 418.891 243.629 279.59 419.677 243.888 279.281 
416.708 243.601 280.211 416.462 243.548 280.423 419.983 244.027 279.056 
419.781 243.975 279.237 416.595 243.623 280.347 416.932 243.772 280.193 
419.96 244.071 279.077 419.788 244.055 279.204 417.462 243.882 280.004 
416.292 243.35 280.579 416.174 243.342 280.658 417.401 243.386 280.162 
416.248 243.381 280.584 416.13 243.362 280.686 418.687 243.596 279.78 
419.447 243.804 279.419 419.561 243.873 279.41 419.43 243.922 279.513 
416.864 243.742 280.355 416.116 243.332 280.72 416.559 243.357 280.594 
417.73 243.447 280.172 417.575 243.468 280.268 416.085 243.35 280.742 
418.874 243.729 279.833 419.342 243.799 279.542 416.229 243.468 280.67 
418.996 243.779 279.782 416.326 243.523 280.602 416.485 243.588 280.547 
416.744 243.668 280.469 416.971 243.714 280.418 417.173 243.785 280.304 
417.494 243.821 280.2 416.096 243.335 280.757 416.398 243.373 280.694 
416.103 243.358 280.76 416.164 243.389 280.759 416.693 243.472 280.629 
417.081 243.544 280.479 416.212 243.441 280.726 416.343 243.48 280.707 
416.539 243.514 280.661 416.864 243.615 280.516 417.257 243.664 280.394 
418.435 243.709 280.011 417.58 243.759 280.245 416.248 243.426 280.751 

POLYGONS 388 1552
3 1 6 2 
3 0 1 2 
3 4 3 0 
3 5 0 3 
3 1 0 5 
3 6 1 7 
3 7 1 5 
3 7 11 6 
3 3 4 8 
3 8 9 13 
3 8 13 3 
3 3 13 5 
3 7 5 13 
3 10 7 13 
3 11 7 12 
3 12 7 10 
3 11 12 21 
3 13 9 27 
3 10 13 14 
3 28 10 14 
3 12 10 28 
3 30 12 28 
3 15 12 30 
3 21 12 15 
3 16 44 31 
3 0 17 16 
3 16 17 44 
3 2 17 0 
3 2 18 19 
3 0 16 4 
3 16 20 4 
3 2 6 18 
3 6 21 19 
3 6 19 18 
3 21 23 22 
3 19 21 22 
3 24 8 4 
3 24 4 25 
3 25 4 20 
3 8 24 9 
3 6 11 21 
3 23 21 26 
3 24 25 37 
3 9 24 37 
3 9 37 27 
3 13 27 14 
3 15 29 21 
3 21 29 26 
3 16 31 32 
3 16 32 20 
3 32 34 20 
3 19 22 33 
3 23 38 35 
3 23 35 22 
3 35 38 36 
3 20 34 25 
3 34 37 25 
3 23 26 38 
3 39 36 38 
3 39 38 40 
3 27 28 14 
3 52 28 27 
3 38 53 40 
3 28 55 30 
3 30 55 41 
3 30 41 15 
3 26 29 57 
3 57 29 15 
3 38 26 57 
3 42 38 57 
3 56 38 42 
3 53 38 56 
3 31 43 32 
3 31 44 45 
3 43 31 45 
3 17 58 44 
3 2 19 17 
3 73 19 33 
3 43 45 34 
3 32 43 34 
3 44 46 45 
3 22 35 33 
3 36 47 35 
3 34 45 37 
3 48 45 46 
3 37 45 48 
3 36 39 47 
3 40 49 50 
3 39 40 50 
3 37 51 27 
3 37 48 51 
3 51 52 27 
3 40 53 49 
3 54 50 49 
3 53 54 49 
3 28 52 55 
3 15 41 68 
3 68 57 15 
3 57 56 42 
3 53 56 71 
3 60 44 58 
3 17 72 58 
3 19 59 17 
3 17 59 72 
3 60 46 44 
3 60 63 46 
3 33 61 73 
3 35 47 33 
3 62 47 39 
3 46 63 48 
3 39 50 62 
3 65 52 51 
3 65 51 63 
3 63 51 48 
3 50 54 64 
3 64 54 66 
3 52 65 79 
3 52 79 55 
3 55 79 67 
3 41 55 67 
3 67 68 41 
3 53 69 81 
3 66 54 53 
3 81 66 53 
3 68 67 83 
3 68 83 57 
3 57 83 70 
3 56 57 86 
3 57 70 86 
3 56 86 71 
3 69 53 71 
3 59 19 73 
3 63 60 74 
3 60 58 74 
3 74 58 75 
3 72 75 58 
3 90 75 59 
3 75 72 59 
3 73 90 59 
3 73 61 90 
3 61 76 90 
3 61 33 76 
3 47 77 33 
3 77 47 62 
3 75 79 74 
3 79 63 74 
3 89 75 90 
3 89 79 75 
3 62 92 77 
3 50 92 62 
3 92 50 64 
3 78 92 64 
3 79 65 63 
3 80 79 89 
3 64 66 78 
3 78 66 81 
3 67 82 83 
3 67 80 82 
3 67 79 80 
3 82 84 83 
3 81 71 85 
3 69 71 81 
3 71 86 96 
3 90 76 87 
3 91 87 76 
3 91 76 88 
3 88 76 33 
3 77 88 33 
3 102 87 91 
3 102 90 87 
3 77 100 88 
3 77 92 100 
3 93 92 78 
3 90 84 89 
3 78 81 93 
3 93 81 94 
3 80 89 82 
3 84 82 89 
3 95 90 102 
3 95 84 90 
3 96 97 85 
3 94 81 85 
3 97 94 85 
3 70 83 84 
3 95 70 84 
3 86 70 95 
3 96 86 95 
3 71 96 85 
3 88 98 91 
3 91 98 102 
3 88 100 98 
3 98 100 99 
3 100 92 101 
3 92 93 101 
3 99 103 98 
3 103 102 98 
3 100 103 99 
3 101 104 100 
3 104 103 100 
3 93 94 104 
3 101 93 104 
3 103 95 102 
3 96 95 103 
3 97 96 103 
3 104 97 103 
3 94 97 104 
3 128 113 107 
3 106 128 108 
3 108 128 107 
3 105 106 108 
3 109 106 105 
3 109 105 110 
3 110 105 108 
3 109 110 111 
3 108 107 114 
3 114 107 113 
3 115 108 114 
3 110 108 116 
3 116 108 115 
3 117 111 110 
3 116 117 110 
3 112 118 113 
3 113 118 114 
3 115 114 119 
3 119 114 118 
3 120 115 119 
3 120 121 116 
3 120 116 115 
3 117 116 121 
3 120 119 118 
3 126 125 123 
3 128 106 123 
3 126 124 127 
3 125 126 128 
3 128 126 127 
3 123 125 128 
3 109 129 106 
3 129 109 111 
3 127 124 130 
3 128 127 131 
3 131 127 130 
3 113 128 131 
3 113 131 112 
3 111 117 132 
3 131 130 133 
3 134 131 133 
3 112 134 118 
3 112 131 134 
3 132 117 121 
3 141 132 121 
3 120 118 135 
3 118 134 135 
3 135 121 120 
3 126 122 136 
3 126 137 122 
3 137 126 123 
3 147 137 123 
3 136 124 126 
3 123 106 147 
3 130 124 150 
3 106 138 149 
3 129 138 106 
3 138 129 111 
3 139 138 111 
3 150 140 130 
3 111 132 139 
3 139 132 141 
3 130 140 142 
3 133 130 142 
3 133 142 143 
3 134 133 144 
3 133 143 144 
3 135 141 121 
3 135 134 145 
3 141 135 145 
3 137 147 122 
3 122 147 136 
3 124 146 150 
3 124 136 146 
3 147 148 164 
3 106 148 147 
3 106 165 148 
3 150 146 162 
3 151 150 162 
3 152 149 138 
3 152 153 149 
3 138 139 152 
3 150 151 154 
3 150 154 140 
3 156 153 152 
3 157 153 156 
3 139 141 156 
3 152 139 156 
3 143 142 140 
3 155 143 140 
3 155 168 158 
3 155 158 143 
3 144 143 158 
3 144 158 195 
3 134 144 195 
3 141 145 157 
3 145 134 157 
3 157 156 141 
3 159 146 136 
3 159 136 160 
3 160 136 184 
3 136 161 184 
3 136 171 161 
3 136 147 171 
3 162 159 160 
3 163 162 160 
3 159 162 146 
3 165 174 148 
3 148 174 164 
3 165 106 149 
3 166 165 149 
3 163 151 162 
3 167 166 153 
3 153 166 149 
3 151 163 178 
3 154 151 178 
3 140 154 155 
3 154 178 155 
3 153 157 167 
3 158 168 183 
3 167 157 195 
3 195 157 134 
3 160 184 169 
3 161 170 184 
3 161 171 170 
3 171 147 164 
3 160 169 163 
3 169 173 163 
3 164 172 171 
3 174 172 164 
3 174 165 175 
3 165 166 175 
3 176 163 173 
3 167 177 174 
3 167 174 175 
3 166 167 175 
3 163 176 178 
3 155 178 179 
3 168 180 181 
3 168 155 180 
3 155 179 180 
3 181 182 168 
3 168 182 183 
3 167 195 177 
3 184 170 185 
3 185 170 188 
3 170 171 172 
3 188 170 172 
3 184 186 173 
3 169 184 173 
3 187 186 184 
3 188 184 185 
3 188 172 189 
3 172 174 189 
3 173 190 176 
3 173 187 190 
3 173 186 187 
3 190 191 192 
3 188 193 192 
3 188 189 193 
3 189 194 193 
3 196 194 189 
3 195 196 189 
3 174 195 189 
3 174 177 195 
3 176 190 178 
3 179 178 190 
3 192 179 190 
3 180 179 192 
3 193 180 192 
3 181 180 193 
3 181 193 182 
3 182 193 194 
3 196 182 194 
3 196 183 182 
3 158 183 196 
3 195 158 196 
3 184 197 187 
3 197 184 188 
3 187 197 190 
3 191 190 197 
3 192 191 197 
3 188 192 197 

POINT_DATA 198
SCALARS scalars float
LOOKUP_TABLE default
1 1 1 1 1 1 1 1 1 
1 1 1 1 1 1 1 1 1 
1 1 1 1 1 1 1 1 1 
1 1 1 1 1 1 1 1 1 
1 1 1 1 1 1 1 1 1 
1 1 1 1 1 1 1 1 1 
1 1 1 1 1 1 1 1 1 
1 1 1 1 1 1 1 1 1 
1 1 1 1 1 1 1 1 1 
1 1 1 1 1 1 1 1 1 
1 1 1 1 1 1 1 1 1 
1 1 1 1 1 1 1 1 1 
1 1 1 1 1 1 1 1 1 
1 1 1 1 1 1 1 1 1 
1 1 1 1 1 1 1 1 1 
1 1 1 1 1 1 1 1 1 
1 1 1 1 1 1 1 1 1 
1 1 1 1 1 1 1 1 1 
1 1 1 1 1 1 1 1 1 
1 1 1 1 1 1 1 1 1 
1 1 1 1 1 1 1 1 1 
1 1 1 1 1 1 1 1 1 

NORMALS Normals float
-0.0954136 -0.842119 -0.530784 0.124385 -0.532519 -0.837229 0.110296 -0.951256 -0.288006 
-0.113688 -0.135362 -0.984252 -0.622 -0.119613 -0.773828 0.0685075 -0.141456 -0.987571 
0.28537 -0.360395 -0.888076 0.15661 -0.00279331 -0.987656 -0.221491 0.320635 -0.920942 
-0.208983 0.778114 -0.592339 0.091101 0.287361 -0.95348 0.307173 -0.0198898 -0.951446 
0.181646 0.440876 -0.878996 0.00627999 0.430762 -0.902443 0.00407523 0.661447 -0.749981 
0.135035 0.713564 -0.687453 -0.284115 -0.955872 -0.0747543 0.00521115 -0.989326 0.145627 
0.305292 -0.737982 -0.601813 0.250385 -0.94211 -0.223015 -0.952148 -0.236983 -0.193013 
0.376838 -0.09404 -0.921493 0.41529 -0.746827 -0.519406 0.512203 -0.274677 -0.813757 
-0.462001 0.72152 -0.515717 -0.711188 0.64449 -0.280792 0.304163 0.437893 -0.846011 
-0.246914 0.874389 -0.417704 -0.0325072 0.790203 -0.611983 0.19206 0.599135 -0.777271 
-0.0223332 0.824065 -0.566054 -0.305601 -0.805752 0.507318 -0.611381 -0.72865 0.308678 
0.303532 -0.95125 -0.0546943 -0.932065 0.15177 0.32897 0.487098 -0.661899 -0.569759 
0.507396 -0.309569 -0.804187 -0.580904 0.813884 0.0119923 0.388187 0.35775 -0.849309 
0.612199 -0.345794 -0.711083 0.573078 0.0859836 -0.814978 -0.0773584 0.948772 -0.306344 
0.0843494 0.776317 -0.624674 -0.639151 -0.431089 0.636906 -0.257585 -0.81302 0.522157 
-0.710763 -0.0528756 0.701441 -0.597898 -0.170536 0.783221 0.439482 -0.837209 -0.325479 
-0.687836 0.523271 0.503059 0.678374 0.117321 -0.725289 0.705496 -0.533422 -0.466622 
-0.560447 0.82021 0.114694 -0.340171 0.935581 -0.0947222 0.408931 0.735887 -0.539673 
0.830405 0.219909 -0.511926 -0.249764 0.962074 -0.109686 0.19627 0.888957 -0.413804 
0.00780944 0.922036 -0.387025 -0.131271 -0.775162 0.617974 -0.0342184 -0.808299 0.587777 
-0.36084 -0.422762 0.831304 0.208075 -0.937281 0.279658 0.485694 -0.859605 -0.15868 
-0.581176 0.283014 0.762979 0.89121 -0.379664 -0.248192 -0.512149 0.768489 0.383574 
0.809691 0.523468 -0.265297 -0.333704 0.894687 0.296947 -0.102282 0.978099 -0.181277 
0.292215 0.923583 -0.248202 -0.146423 0.948529 0.280808 0.132818 0.989536 -0.0563747 
-0.0381318 -0.761117 0.647493 -0.00600158 -0.893838 0.448349 -0.36447 -0.182418 0.913173 
-0.238369 -0.339445 0.909922 0.0907938 -0.943065 0.319976 0.255834 -0.943417 0.21098 
0.991222 -0.126264 -0.0391975 -0.434082 0.520602 0.735219 -0.409716 0.365835 0.835642 
0.574117 0.818467 0.0223724 -0.393261 0.552337 0.73503 -0.244203 0.94356 0.223739 
-0.295428 0.476559 0.828018 0.171557 0.936385 0.306187 -0.0611033 0.962886 0.2629 
-0.200254 -0.674432 0.710662 0.127389 -0.848704 0.513297 -0.342474 0.0544917 0.937946 
-0.232022 -0.494058 0.837898 -0.112631 -0.599248 0.7926 0.52036 -0.840066 0.153344 
0.807317 -0.181138 0.56163 0.462464 0.577608 0.672678 -0.20825 0.495714 0.843148 
-0.0557995 0.736717 0.673895 0.0973894 0.506027 0.857002 -0.0910646 -0.443546 0.891613 
-0.0261615 -0.417826 0.90815 0.134985 -0.733204 0.666476 0.336507 -0.695573 0.634777 
-0.211753 -0.114882 0.970548 -0.0442733 0.0612694 0.997139 0.24321 -0.217249 0.945332 
0.107139 -0.631397 -0.768023 0.138906 -0.908584 -0.39393 -0.239199 -0.333358 -0.911952 
-0.0523318 -0.390688 -0.919034 0.398959 -0.776736 -0.487352 0.413188 -0.0875968 -0.906423 
0.974063 -0.218037 0.0605 -0.439838 0.546241 -0.712856 -0.368048 0.0916368 -0.92528 
-0.270224 0.124944 -0.954656 -0.0918898 0.225481 -0.969904 0.301966 0.49668 -0.813711 
0.717758 0.646892 -0.257593 -0.258727 0.784861 -0.563075 -0.19304 0.645836 -0.738669 
0.0947508 0.857618 -0.505483 0.469622 0.880437 0.0654662 -0.0604921 -0.768878 -0.636528 
-0.00200736 -0.810665 -0.585506 -0.442453 -0.39252 -0.806327 -0.245612 -0.515857 -0.820711 
-0.243879 -0.545189 -0.802055 -0.388371 -0.0651494 -0.919197 -0.296284 -0.347874 -0.889494 
0.539008 -0.84119 0.0432489 -0.521182 0.358907 -0.774309 -0.435514 0.365364 -0.822701 
0.716591 0.531154 0.452077 -0.354719 0.834204 -0.422231 -0.163684 0.98463 0.0609251 
0.0936885 0.994921 0.03681 -0.0654089 -0.956047 -0.285825 0.113447 -0.801368 -0.587315 
0.650418 -0.691366 0.314594 0.783471 0.0241917 0.620958 -0.547283 0.688831 -0.475386 
0.431153 0.697089 0.572865 -0.421618 0.82483 -0.376686 -0.286509 0.942237 -0.173499 
-0.0468215 0.98158 0.185223 0.0657224 0.854278 0.515646 -0.425514 -0.539684 -0.726415 
0.178729 -0.979807 -0.0896288 0.317714 -0.942873 0.100241 0.542745 -0.778182 0.316008 
-0.633222 0.102904 -0.767099 -0.673046 0.438625 -0.595497 0.706855 -0.317426 0.632136 
0.658573 -0.0772873 0.748538 -0.588037 0.692341 -0.418182 -0.376407 0.923085 -0.0789434 
0.61363 0.25166 0.748416 0.266524 0.657766 0.704492 0.0266601 0.975595 0.217952 
-0.296769 -0.773533 -0.559978 -0.235978 -0.882305 -0.407249 0.0905493 -0.995492 0.0282119 
-0.580319 -0.238218 -0.778769 -0.737413 0.117159 -0.665204 0.353042 -0.834849 0.422361 
0.379714 -0.904221 0.195453 0.610851 -0.489305 0.622447 0.534586 0.126518 0.83559 
-0.187428 0.962002 0.198554 -0.46726 -0.787401 -0.402079 0.243748 -0.830304 0.501181 
0.236935 -0.914823 0.327048 0.354063 -0.509245 0.784417 -0.899851 0.435026 0.0319583 
0.43282 -0.628752 0.646017 0.517536 -0.594818 0.6151 -0.605274 0.78929 -0.103267 
0.470693 -0.0273281 0.881874 -0.509075 0.854064 -0.10685 -0.205704 0.91203 0.354805 
-0.159343 0.874935 0.457273 0.052659 0.760859 0.646777 0.0956988 0.794518 0.599652 
0.123999 0.951832 0.28043 0.0246205 -0.783375 0.621062 0.286009 -0.536012 0.794286 
-0.48193 0.397092 0.781064 -0.220484 0.487075 0.845071 0.315966 -0.1069 0.942729 
0.341357 0.0216326 0.939685 -0.314151 0.872973 0.373131 -0.144264 0.914162 0.378809 
0.0505419 0.728089 0.683616 0.194866 0.529158 0.825845 0.248045 0.43468 0.865752 
0.247196 0.609218 0.75349 0.299429 0.648349 0.69999 0.0965392 0.263089 0.959929 

