# vtk DataFile Version 4.2
vtk output
ASCII
DATASET POLYDATA
POINTS 409 float
185.861 205.385 200.275 187.381 205.689 199.901 183.81 207.56 199.889 
188.327 206.396 199.71 184.672 207.977 199.454 183.963 208.539 199.706 
183.543 208.479 200.007 188.073 209.067 198.968 185.721 210.253 199.083 
189.513 209.582 199.203 185.031 211.31 199.481 184.475 211.483 199.889 
187.258 210.998 198.805 188.854 210.732 198.876 186.466 212.011 199.011 
189.608 212.525 198.859 188.759 214.462 198.897 186.299 215.834 200.348 
187.043 216.447 200.013 190.868 216.091 199.154 190.015 216.668 199.218 
188.75 218.547 200.358 184.582 205.681 200.434 183.53 206.707 200.348 
183.418 206.979 200.311 189.702 206.296 200.629 183.302 209.13 200.336 
183.573 210.158 200.351 190.784 209.846 199.717 191.645 212.728 199.499 
184.608 213.127 200.505 193.068 213.371 200.17 191.969 218.029 199.806 
190.75 219.398 200.506 191.331 219.123 200.257 191.947 219.412 200.475 
190.528 219.809 200.951 192.052 219.841 200.789 185.331 204.527 201.269 
184.903 204.574 201.446 186.197 204.128 201.561 187.176 204.617 200.878 
188.05 204.357 201.427 184.02 205.547 200.923 183.219 206.489 200.898 
182.73 207.882 201.26 183.871 211.483 200.587 183.785 212.146 201.396 
193.878 217.433 200.489 194.238 218.897 201.046 189.332 219.478 201.141 
184.977 204.131 202.323 189.65 205.294 201.499 194.355 212.511 201.503 
183.785 212.846 202.451 185.466 215.766 201.644 195.239 215.704 201.321 
190.368 220.375 201.919 194.121 220.292 201.836 194.745 220.59 202.425 
186.382 203.679 202.453 189.595 204.649 202.578 190.202 205.031 202.739 
182.977 205.989 202.346 182.533 207.367 202.169 197.412 214.905 203.889 
197.072 215.882 203.203 190.954 220.926 202.84 195.24 220.338 202.472 
195.767 220.287 202.83 193.203 221.426 203.115 194.369 221.304 203.078 
194.81 221.071 202.976 187.513 203.482 203.305 184.507 204.099 203.753 
196.328 212.86 203.842 184.313 214.337 203.238 196.58 219.415 203.075 
192.633 221.647 203.73 195.461 221.275 203.603 196.65 221.024 204.156 
185.531 203.538 204.178 188.089 203.442 204.448 183.524 204.931 204.329 
182.358 207.989 203.47 194.315 209.622 203.741 182.518 209.332 203.755 
197.356 213.913 204.567 198.095 219.072 204.74 198.172 219.963 205.127 
197.427 220.956 204.804 193.334 222.121 204.978 194.389 222.173 204.747 
182.422 207.42 204.099 198.273 214.918 205.545 195.53 222.489 205.852 
196.053 222.472 206.013 186.532 203.233 206.141 187.797 203.268 205.609 
184.791 203.859 206.285 183.953 204.536 206.196 199.099 219.913 207.024 
192.31 221.944 206.127 196.842 222.265 206.089 197.239 222.133 206.342 
185.948 203.379 207.435 183.252 205.633 206.539 182.837 207.037 206.446 
199.37 216.67 207.668 197.264 222.252 206.683 196.078 222.605 206.911 
185.102 203.874 208.359 199.472 219.695 208.711 199.077 220.532 208.142 
198.313 221.467 207.546 195.743 222.544 207.71 197.395 222.217 206.984 
187.655 203.315 209.257 185.122 204.034 209.244 188.883 203.496 208.576 
186.994 217.444 209.133 199.685 218.146 208.861 192.696 221.745 208.769 
198.496 221.288 208.509 197.166 222.15 208.388 190.041 203.976 208.793 
199.469 216.273 209.86 199.039 220.48 209.739 187.647 203.525 211.01 
184.917 204.502 210.169 185.199 204.377 210.55 185.637 204.107 210.68 
198.918 220.527 210.219 197.914 221.494 209.597 188.719 203.678 211.254 
189.925 204.029 210.704 184.449 205.643 210.758 194.065 207.218 211.459 
199.035 215.03 211.126 186.942 215.869 212.113 191.356 219.838 212.057 
198.806 220.545 210.533 198.627 220.614 210.682 198.778 220.397 210.806 
185.166 205.162 211.771 198.718 214.39 211.751 198.993 215.965 211.973 
199.082 218.936 211.585 198.03 220.075 211.849 187.214 203.972 212.483 
193.537 206.99 213.257 185.599 210.895 213.507 198.75 216.873 212.647 
188.763 217.238 213.288 199.092 218.184 211.89 198.458 218.86 212.444 
198.262 219.281 212.401 187.154 204.66 213.677 188.917 204.326 213.596 
185.568 206.611 213.467 186.511 211.125 215.02 196.979 211.889 213.826 
197.985 214.142 213.549 197.837 215.419 214.009 198.028 216.266 213.703 
197.289 217.856 213.879 196.657 217.851 214.292 197.727 218.44 213.309 
194.298 219.064 214.015 195.259 218.693 214.191 197.538 218.907 213.169 
192.285 218.994 213.819 186.937 204.95 213.876 188.262 204.603 214.206 
187.938 205.169 214.905 186.872 205.713 214.567 191.718 205.869 214.72 
187.489 213.489 215.121 187.747 205.584 215.276 190.309 205.537 215.44 
193.603 208.108 215.563 195.608 213.507 216.038 194.216 214.895 216.639 
188.851 215.053 215.585 189.62 216.085 215.328 192.404 216.426 215.986 
194.133 216.503 215.879 190.382 216.738 215.214 188.325 205.94 215.975 
191.099 206.313 216.066 192.696 208.321 216.823 187.3 209.736 216.495 
189.319 211.348 217.589 189.289 212.174 217.31 190.702 214.213 217.169 
191.028 214.258 217.268 194.14 214.067 216.949 191.385 214.579 217.159 
190.888 216.634 215.498 191.864 208.405 217.459 192.642 209.008 217.294 
188.643 208.866 217.57 190.485 213.483 217.444 191.804 214.601 217.232 
189.402 207.52 217.592 190.092 207.474 217.576 189.276 207.823 217.732 
191.73 209.233 217.814 189.264 209.168 217.892 190.184 209.249 218.084 
190.754 212.953 217.694 192.224 212.352 217.806 191.73 213.191 217.707 
189.743 208.285 217.985 189.647 208.566 218.011 189.535 206.705 241.021 
190.915 206.827 241.064 190.674 206.541 241.183 190.848 207.206 240.885 
191.194 206.823 241.193 189.712 207.744 240.66 189.407 209.02 240.534 
189.951 208.919 240.477 189.445 212.235 240.719 188.579 205.875 241.723 
188.956 205.873 241.637 187.386 207.886 241.491 194.171 209.201 242.104 
192.168 211.357 240.498 192.808 211.251 240.666 193.408 211.848 240.822 
191.143 214.393 240.881 192.529 214.185 240.799 191.807 217.026 241.901 
189.611 205.558 241.97 187.094 206.847 241.998 186.465 208.957 242.211 
194.003 208.752 242.253 196.676 212.726 242.748 196.533 214.638 242.316 
188.514 215.046 242.365 196.42 215.206 242.293 190.31 216.678 242.142 
186.917 204.794 243.697 188.63 204.546 243.516 186.574 204.9 243.822 
185.993 206.718 243.114 185.752 207.891 243.206 196.163 211.567 242.836 
197.285 214.749 242.95 196.314 216.477 242.488 195.773 217.146 242.5 
190.657 218.188 243.434 193.563 218.538 243.075 192.324 218.925 243.605 
186.37 204.714 244.291 189.57 204.677 243.553 190.575 205.239 243.107 
197.454 213.248 243.563 198.153 214.766 243.968 198.279 217.061 244.28 
198.26 217.852 244.507 195.581 218.708 243.454 186.575 204.377 244.666 
185.788 205.774 243.895 198.144 213.486 244.685 197.912 219.761 245.205 
198.617 220.04 245.918 198.87 219.875 246.087 197.357 220.725 245.925 
198.438 220.295 246.046 185.922 204.159 246.1 190.289 204.549 244.824 
198.916 215.69 245.671 199.008 219.144 245.755 199.115 219.664 246.431 
195.681 221.305 246.091 185.202 204.599 246.478 184.245 208.286 245.945 
195.488 209.032 246.583 199.259 218.147 246.25 193.473 221.388 246.708 
198.812 220.316 246.608 199.05 220.081 246.882 196.686 221.859 247.331 
197.982 212.578 247.02 199.304 216.98 247.151 187.558 217.73 247.022 
193.918 222.103 248.231 198.119 221.334 247.426 183.803 205.594 248.659 
184.63 213.804 248.461 199.449 218.408 247.555 199.345 219.576 247.703 
195.603 222.578 249.012 197.172 222.217 248.678 198.034 221.594 248.399 
196.596 222.472 248.951 199.346 217.87 248.784 188.93 219.812 249.471 
191.409 221.439 249.638 192.635 221.981 249.921 196.107 222.65 249.555 
189.359 203.722 249.522 183.54 205.425 249.974 198.82 220.614 249.18 
190.82 204.847 250.998 198.392 214.855 250.167 198.778 217.224 250.45 
187.65 218.957 250.873 198.729 219.355 250.577 189.891 220.723 250.902 
195.797 222.647 250.362 186.965 203.251 251.567 188.031 203.394 251.751 
191.659 205.732 251.594 183.789 213.405 252.127 187.994 219.384 252.135 
192.893 221.983 252.059 195.298 222.557 250.889 196.473 222.373 250.717 
189.375 203.962 252.047 182.937 206.099 252.833 197.28 214.477 252.311 
184.159 214.251 253.087 190.526 221.034 252.905 197.681 220.543 251.795 
197.319 221.324 251.546 195.848 222.392 251.131 185.448 203.621 253.026 
185.737 203.581 253.35 184.37 204.337 253.638 189.797 204.75 253.709 
182.903 206.096 253.524 182.468 207.901 254.247 186.755 218.085 253.594 
196.913 219.153 253.384 190.7 221.067 253.214 192.157 221.595 253.068 
192.794 221.526 253.438 196.313 221.471 252.345 188.329 203.924 253.753 
183.825 205.314 254.828 184.211 213.916 254.664 196.206 215.367 254.178 
196.483 217.253 254.057 191.298 220.938 254.16 186.5 203.794 254.565 
187.588 203.821 254.326 185.039 204.395 254.933 182.864 206.627 254.889 
182.722 207.131 255.052 191.491 207.159 254.675 182.622 208.26 255.237 
184.156 213.331 255.395 195.415 216.419 255.083 195.249 219.831 254.474 
189.995 220.271 254.701 190.538 220.474 254.734 192.29 220.803 254.53 
187.915 204.404 255.346 182.829 207.64 255.699 183.241 210.654 255.589 
184.269 213.14 255.82 193.289 213.755 256.382 193.368 219.631 255.458 
190.665 220.291 255.136 190.66 220.046 255.433 192.829 220.177 255.174 
191.509 220.213 255.304 183.911 206.134 256.237 183.352 208.107 256.472 
190.071 207.114 256.341 183.548 209.359 256.746 190.298 208.949 257.055 
184.504 212.171 256.735 191.649 212.027 257.151 185.14 213.736 256.543 
186.745 216.545 256.191 187.126 216.81 256.34 192.342 215.975 256.993 
192.256 217.226 256.808 187.873 218.361 255.823 189.06 219.175 255.903 
184.77 206.315 256.904 188.82 206.698 256.95 183.783 209.06 257.013 
183.857 210.03 257.041 189.932 210.073 257.596 183.825 210.306 256.927 
184.042 210.786 256.938 185.235 212.688 257.111 186.926 212.618 257.859 
188.36 212.518 258.066 188.95 213.158 258.006 188.288 214.099 257.783 
189.926 212.967 257.907 189.106 217.298 256.924 190.957 216.684 257.215 
190.424 219.002 256.268 186.898 205.805 256.91 184.793 207.371 257.371 
184.188 208.118 257.212 186.404 208.751 257.964 187.718 208.35 257.83 
[...]
POINT_DATA 409
SCALARS scalars float
LOOKUP_TABLE default
1 1 1 1 1 1 1 1 1 
1 1 1 1 1 1 1 1 1 
1 1 1 1 1 1 1 1 1 
1 1 1 1 1 1 1 1 1 
1 1 1 1 1 1 1 1 1 
1 1 1 1 1 1 1 1 1 
1 1 1 1 1 1 1 1 1 
1 1 1 1 1 1 1 1 1 
1 1 1 1 1 1 1 1 1 
1 1 1 1 1 1 1 1 1 
1 1 1 1 1 1 1 1 1 
1 1 1 1 1 1 1 1 1 
1 1 1 1 1 1 1 1 1 
1 1 1 1 1 1 1 1 1 
1 1 1 1 1 1 1 1 1 
1 1 1 1 1 1 1 1 1 
1 1 1 1 1 1 1 1 1 
1 1 1 1 1 1 1 1 1 
1 1 1 1 1 1 1 1 1 
1 1 1 1 1 1 1 1 1 
1 1 1 1 1 1 1 1 1 
1 1 1 1 1 1 1 1 1 
1 1 1 1 1 1 1 1 1 
1 1 1 1 1 1 1 1 1 
1 1 1 1 1 1 1 1 1 
1 1 1 1 1 1 1 1 1 
1 1 1 1 1 1 1 1 1 
1 1 1 1 1 1 1 1 1 
1 1 1 1 1 1 1 1 1 
1 1 1 1 1 1 1 1 1 
1 1 1 1 1 1 1 1 1 
1 1 1 1 1 1 1 1 1 
1 1 1 1 1 1 1 1 1 
1 1 1 1 1 1 1 1 1 
1 1 1 1 1 1 1 1 1 
1 1 1 1 1 1 1 1 1 
1 1 1 1 1 1 1 1 1 
1 1 1 1 1 1 1 1 1 
1 1 1 1 1 1 1 1 1 
1 1 1 1 1 1 1 1 1 
1 1 1 1 1 1 1 1 1 
1 1 1 1 1 1 1 1 1 
1 1 1 1 1 1 1 1 1 
1 1 1 1 1 1 1 1 1 
1 1 1 1 1 1 1 1 1 
1 1 1 1 
NORMALS Normals float
-0.209709 -0.616128 -0.759215 0.00334723 -0.417773 -0.908545 -0.452155 -0.208092 -0.867326 
0.401469 -0.389862 -0.828752 -0.276087 -0.267618 -0.923123 -0.52304 0.0523077 -0.850702 
-0.665966 -0.0531721 -0.744084 0.123466 -0.326595 -0.937066 -0.287527 0.00326221 -0.957767 
0.248208 -0.30708 -0.918746 -0.427008 0.13236 -0.894508 -0.595266 0.330852 -0.732253 
-0.099393 -0.0411447 -0.994197 0.122632 -0.0337768 -0.991877 -0.246305 0.214544 -0.945148 
0.228478 -0.0424007 -0.972625 -0.153231 0.156614 -0.975701 -0.705231 0.399895 -0.585434 
-0.536712 0.446283 -0.716081 0.147156 0.0509677 -0.987799 -0.0797679 0.248574 -0.965323 
-0.376999 0.586684 -0.716711 -0.277359 -0.476325 -0.834378 -0.63345 -0.395518 -0.665061 
-0.544929 -0.286409 -0.78805 0.539119 -0.450988 -0.711309 -0.84926 0.189897 -0.492643 
-0.669234 0.174427 -0.722289 0.466987 -0.318507 -0.82491 0.370858 -0.110385 -0.922106 
-0.79529 0.390603 -0.463619 0.495812 -0.230153 -0.837377 0.202823 0.236379 -0.950257 
-0.159118 0.549533 -0.82018 -0.0436299 0.541138 -0.839801 0.180439 0.514339 -0.83839 
-0.110118 0.756066 -0.645166 0.042213 0.748536 -0.661749 -0.214766 -0.745464 -0.630998 
-0.452009 -0.774915 -0.441809 -0.0606389 -0.869863 -0.489553 0.0181667 -0.782326 -0.622605 
0.356922 -0.739914 -0.570204 -0.519847 -0.671849 -0.527616 -0.822413 -0.386382 -0.417548 
-0.93032 -0.0478933 -0.363609 -0.93708 0.20434 -0.283066 -0.929301 0.223905 -0.293712 
0.374637 0.170711 -0.91132 0.428325 0.365504 -0.826404 -0.570775 0.734811 -0.366428 
-0.44263 -0.853003 -0.276523 0.585694 -0.624403 -0.516802 0.606773 -0.308688 -0.732488 
-0.951634 0.271264 -0.14425 -0.787126 0.581221 -0.206434 0.663471 -0.134136 -0.73608 
-0.491811 0.837458 -0.238299 0.129484 0.640653 -0.756834 0.334974 0.667045 -0.665465 
-0.183289 -0.951263 -0.248001 0.516904 -0.826307 -0.223668 0.625852 -0.706336 -0.330755 
-0.859449 -0.494916 -0.128082 -0.960646 -0.201554 -0.191143 0.776649 -0.271861 -0.568249 
0.798053 -0.0283711 -0.601919 -0.2115 0.88991 -0.404138 0.448434 0.556686 -0.699291 
0.534583 0.558667 -0.634123 0.0437997 0.831347 -0.554025 0.145824 0.79889 -0.583533 
0.261809 0.667611 -0.696958 0.158755 -0.937064 -0.310979 -0.569055 -0.809679 -0.143512 
0.796203 -0.495557 -0.347107 -0.87286 0.475771 -0.108427 0.670297 0.295772 -0.680604 
-0.11977 0.949628 -0.289588 0.277067 0.814871 -0.509135 0.533992 0.570756 -0.623772 
-0.286548 -0.956688 -0.0513552 0.170961 -0.982458 -0.0744874 -0.715033 -0.699014 0.0103214 
-0.997428 -0.0471264 -0.0539998 0.698615 -0.490678 -0.520742 -0.972094 0.227374 0.0577473 
0.758791 -0.496413 -0.421676 0.826375 0.11524 -0.551202 0.811086 0.350853 -0.468019 
0.671242 0.515069 -0.533045 -0.148661 0.968518 -0.19968 -0.0211939 0.878391 -0.477472 
-0.987202 -0.134544 0.0856137 0.890768 -0.375946 -0.255337 0.131085 0.921992 -0.364344 
0.0282379 0.959761 -0.279396 -0.253869 -0.966281 -0.0430292 0.21703 -0.975594 -0.0333693 
-0.580306 -0.798818 0.158537 -0.699196 -0.665837 0.260358 0.919272 0.255901 -0.299089 
-0.570131 0.820688 0.0377209 0.341969 0.845249 -0.410623 0.600151 0.725928 -0.335928 
-0.259007 -0.963171 0.0722332 -0.87527 -0.427496 0.226163 -0.969403 -0.123901 0.21191 
0.955161 -0.0625257 -0.289411 0.441734 0.870971 -0.215131 0.169178 0.983497 -0.0641317 
-0.54208 -0.838743 0.0515659 0.977275 0.211603 0.0125495 0.835152 0.546194 -0.0647612 
0.693582 0.712942 -0.103231 -0.088 0.976308 0.197681 0.545636 0.835516 -0.0647604 
0.0564441 -0.990593 0.124654 -0.53238 -0.829689 0.167893 0.29271 -0.951854 0.0910732 
-0.788637 0.582156 0.197853 0.999688 0.0210141 -0.0134798 -0.27342 0.939893 0.204556 
0.717557 0.682881 0.137059 0.338434 0.920469 0.195447 0.520399 -0.853555 -0.0250641 
0.962914 -0.269695 -0.00778445 0.875931 0.461926 0.139175 0.0669051 -0.97958 0.189599 
-0.738784 -0.644106 0.198308 -0.681197 -0.655179 0.326668 -0.512363 -0.80994 0.285449 
0.764609 0.610251 0.207286 0.456704 0.837879 0.298964 0.215501 -0.972039 0.0932757 
0.387943 -0.915552 0.106136 -0.88688 -0.290783 0.359012 0.758434 -0.651736 0.00431946 
0.893902 -0.426865 0.13684 -0.798491 0.440618 0.410204 -0.275308 0.853114 0.443172 
0.675914 0.678448 0.287835 0.379122 0.827664 0.413811 0.826388 0.407703 0.388408 
-0.680256 -0.559357 0.473679 0.912558 -0.398334 0.0925602 0.916443 -0.156776 0.368177 
0.837263 0.331017 0.435223 0.443755 0.699715 0.559893 -0.22726 -0.906986 0.354582 
0.704212 -0.652173 0.280635 -0.914923 0.178975 0.361779 0.910181 0.000882067 0.414211 
-0.594619 0.652993 0.469072 0.89437 0.112846 0.43286 0.719623 0.358579 0.594613 
0.65487 0.481375 0.5826 -0.208427 -0.86462 0.457155 0.111433 -0.942544 0.31495 
-0.86777 -0.114321 0.483639 -0.782576 0.270648 0.560646 0.801518 -0.388376 0.454679 
0.846282 -0.199375 0.494021 0.711023 0.0283449 0.702597 0.801379 0.00858461 0.598095 
0.510497 0.368966 0.776696 0.445861 0.399198 0.801155 0.572636 0.328372 0.751172 
0.0462855 0.746394 0.663893 0.290248 0.565163 0.772235 0.399225 0.557755 0.727687 
-0.202085 0.731527 0.651175 -0.608539 -0.543638 0.578047 -0.157812 -0.842538 0.515 
-0.29459 -0.733215 0.612872 -0.629862 -0.464836 0.622255 0.542933 -0.791094 0.281769 
-0.707135 0.389161 0.590351 -0.328799 -0.692354 0.642291 0.158448 -0.831068 0.533123 
0.729745 -0.529047 0.433108 0.634731 -0.115674 0.764026 0.331856 0.338041 0.880681 
-0.454375 0.544121 0.70532 -0.524919 0.527585 0.667918 -0.133951 0.612786 0.778813 
0.039355 0.502291 0.863802 -0.317475 0.727761 0.607926 -0.458688 -0.502589 0.732809 
0.478927 -0.673955 0.562507 0.582892 -0.457608 0.671441 -0.748517 -0.000778357 0.663115 
-0.498223 0.210454 0.84112 -0.505228 0.295711 0.81074 -0.303738 0.421548 0.854424 
-0.253088 0.465692 0.847984 0.197381 0.243801 0.949527 -0.170739 0.535998 0.826773 
-0.199378 0.659013 0.725224 0.416642 -0.461326 0.783318 0.540226 -0.320744 0.777997 
-0.586667 -0.0851184 0.805342 -0.37246 0.367068 0.85237 -0.0163873 0.457297 0.889163 
-0.147194 -0.561096 0.814558 0.232851 -0.477925 0.846976 -0.337768 -0.313764 0.887392 
0.308721 -0.188224 0.932343 -0.363918 0.0225652 0.931158 -0.0148226 -0.0250365 0.999577 
-0.147428 0.179394 0.972668 0.224265 0.0323081 0.973993 -0.0146761 0.300288 0.953736 
0.278206 -0.165325 0.946187 0.0478356 -0.0560494 0.997281 -0.122901 -0.46029 -0.879221 
0.335294 -0.363024 -0.869363 0.160456 -0.556238 -0.815386 0.223238 -0.287035 -0.931545 
0.577023 -0.620416 -0.531158 -0.101786 -0.258143 -0.96073 -0.274041 -0.0170645 -0.961566 
-0.0663419 -0.154115 -0.985823 -0.336236 0.171014 -0.926121 -0.271665 -0.609292 -0.744957 
-0.0815047 -0.669231 -0.738571 -0.411011 -0.206054 -0.888038 0.661596 -0.437136 -0.609264 
0.119591 -0.0477346 -0.991675 0.309265 -0.263136 -0.913846 0.383918 -0.0936091 -0.91861 
-0.141224 0.312815 -0.939256 0.146266 0.20478 -0.967818 -0.0541061 0.542969 -0.838008 
0.132704 -0.791884 -0.596079 -0.609203 -0.314819 -0.727847 -0.741332 0.141523 -0.656047 
0.535816 -0.441766 -0.719544 0.633076 -0.23481 -0.737617 0.403858 -0.104159 -0.908873 
-0.6119 0.387076 -0.689747 0.366185 0.172827 -0.914352 -0.453966 0.536581 -0.711334 
-0.382786 -0.656998 -0.649483 0.0178487 -0.911647 -0.410586 -0.489546 -0.624292 -0.608773 
-0.786749 -0.210184 -0.580387 -0.803201 -0.0665965 -0.591974 0.677563 -0.380096 -0.629631 
0.705423 0.0359351 -0.707875 0.53903 0.233713 -0.809213 0.148923 0.310221 -0.938927 
-0.343523 0.718171 -0.605163 -0.0390775 0.688579 -0.724107 -0.278073 0.793757 -0.540949 
-0.695167 -0.639474 -0.328354 0.218833 -0.896078 -0.386208 0.442382 -0.795988 -0.41316 
0.788873 -0.38494 -0.479062 0.881658 0.0284108 -0.471033 0.6508 0.202868 -0.731644 
0.781275 0.150669 -0.605729 0.126297 0.644681 -0.753946 -0.433015 -0.836693 -0.335326 
-0.740647 -0.437153 -0.510235 0.878066 -0.387934 -0.280191 0.365874 0.481168 -0.796626 
0.537403 0.560427 -0.630175 0.749879 0.547737 -0.371034 0.315244 0.745463 -0.587287 
0.644014 0.63571 -0.425581 -0.438478 -0.881682 -0.17428 0.480317 -0.860767 -0.168454 
0.963387 -0.0993721 -0.249018 0.783695 0.277275 -0.555824 0.912589 0.334395 -0.235291 
0.0230623 0.830687 -0.556262 -0.744126 -0.592979 -0.307656 -0.935156 -0.0520856 -0.350387 
0.789561 -0.612912 -0.0305405 0.965789 -0.0309472 -0.257478 -0.247208 0.835076 -0.491464 
0.650063 0.725205 -0.226926 0.82055 0.533396 -0.205392 0.206628 0.892594 -0.400725 
0.871443 -0.489826 0.0256225 0.989874 -0.128195 -0.0609581 -0.565598 0.694893 -0.444098 
-0.17733 0.957861 -0.225955 0.587807 0.758855 -0.280396 -0.799051 -0.544677 -0.254646 
-0.892774 0.350015 -0.283627 0.997217 -0.0107611 -0.073779 0.916188 0.397814 0.0484046 
-0.0277258 0.959864 -0.27909 0.370163 0.911975 -0.176866 0.665277 0.744361 0.0577428 
0.455741 0.884159 0.102774 0.988873 -0.080671 0.124987 -0.773472 0.622282 -0.120442 
-0.406548 0.879304 -0.248078 -0.335133 0.903298 -0.267842 0.0628115 0.997567 -0.030255 
0.49144 -0.867688 -0.0748619 -0.872234 -0.458719 -0.169663 0.792678 0.567518 0.222677 
0.676418 -0.730811 0.0915132 0.916434 -0.311954 0.250667 0.884406 -0.10921 0.45376 
-0.703543 0.688538 -0.175909 0.918875 0.134248 0.371007 -0.379691 0.905601 -0.189003 
0.216008 0.966156 0.141006 -0.0189882 -0.997907 -0.0618073 0.252101 -0.952354 0.171661 
0.744765 -0.664291 0.0635879 -0.948022 0.314033 -0.0513646 -0.691847 0.721586 -0.0257131 
-0.265219 0.959171 0.0982337 -0.017163 0.964696 0.262804 0.41662 0.871304 0.259339 
0.554733 -0.810964 0.186033 -0.906399 -0.416843 -0.0684306 0.786026 -0.400414 0.47099 
-0.856972 0.513851 -0.0394442 -0.618184 0.772267 0.146468 0.766004 0.318628 0.558313 
0.597346 0.661372 0.453613 0.254962 0.84542 0.469317 -0.390666 -0.919998 0.0313671 
-0.121059 -0.967366 0.222594 -0.569485 -0.817578 0.0851596 0.535852 -0.754298 0.379338 
-0.873912 -0.483379 0.0512005 -0.999546 -0.0301104 -0.00142992 -0.704593 0.686746 0.178686 
0.720155 0.235536 0.65261 -0.470698 0.802505 0.366645 -0.217974 0.916475 0.335501 
-0.0611784 0.892344 0.44719 0.387035 0.673832 0.629408 0.235548 -0.95952 0.1544 
-0.6543 -0.67516 0.34066 -0.838273 0.478093 0.262154 0.760669 -0.150267 0.631508 
0.73404 -0.0171393 0.67889 -0.342103 0.821665 0.455887 -0.101813 -0.932534 0.34643 
0.26517 -0.924084 0.275234 -0.365766 -0.78139 0.505613 -0.866912 -0.414376 0.277048 
-0.939122 -0.250905 0.234727 0.75422 -0.490753 0.436248 -0.955897 0.0724414 0.284627 
-0.855175 0.365058 0.367978 0.662405 -0.011728 0.749054 0.464902 0.44435 0.76578 
-0.415317 0.841739 0.344944 -0.38874 0.807508 0.443635 0.127401 0.794782 0.593372 
0.288992 -0.770427 0.568266 -0.818315 -0.22822 0.527519 -0.914358 0.240937 0.32542 
-0.793285 0.330663 0.511235 0.644274 -0.142506 0.751401 0.254093 0.487789 0.835164 
-0.156871 0.838839 0.521288 -0.165969 0.698675 0.695922 0.134113 0.718447 0.68253 
0.0363041 0.714817 0.698369 -0.597019 -0.534588 0.59815 -0.775504 -0.127524 0.618329 
0.51339 -0.424228 0.745963 -0.835097 -0.00426837 0.550086 0.501824 -0.283244 0.817279 
-0.753581 0.280868 0.59433 0.489065 -0.167876 0.85594 -0.637376 0.457049 0.62037 
-0.61854 0.428195 0.658831 -0.42275 0.264344 0.866836 0.421182 0.07001 0.90427 
0.23976 0.336789 0.910543 -0.560508 0.579857 0.591267 -0.402549 0.666169 0.627832 
-0.342387 -0.521361 0.781635 0.332496 -0.506852 0.795328 -0.381239 -0.0746389 0.921458 
-0.615268 0.122044 0.778813 0.537811 -0.218975 0.814131 -0.795352 0.230568 0.560583 
-0.358745 0.0872549 0.929349 -0.53678 0.352758 0.766439 -0.209461 0.126255 0.969632 
0.01701 0.0139462 0.999758 0.00570515 0.176078 0.98436 -0.116049 0.275389 0.954303 
0.204081 0.0694585 0.976487 -0.192346 0.342227 0.919719 0.145686 0.20502 0.967855 
-0.025904 0.437672 0.898761 -0.00588253 -0.60555 0.795785 -0.425249 -0.237201 0.873441 
-0.550204 -0.109 0.827886 -0.0871825 -0.201515 0.975598 0.226684 -0.274233 0.934565 
0.152324 -0.163017 0.974794 0.224457 -0.166085 0.960227 -0.361419 0.0431571 0.931404 
0.661957 0.345844 -0.664985 
