# vtk DataFile Version 4.2
vtk output
ASCII
DATASET POLYDATA
POINTS 2150 float
181.083 189.467 66.1952 181.353 189.605 66.1497 181.307 189.46 66.197 
181.409 189.857 66.1624 181.462 189.721 66.1916 181.173 190.298 66.248 
181.552 190.131 66.2527 181.512 190.549 66.317 180.975 189.247 66.2624 
180.776 189.038 66.3792 181.143 189.293 66.2344 180.948 189.123 66.3464 
181.168 189.3 66.305 181.363 189.523 66.2704 181.502 189.707 66.2442 
181.573 189.88 66.2319 181.553 189.823 66.2874 180.933 190.363 66.3476 
181.61 190.03 66.2627 181.601 189.965 66.2925 181.631 190.721 66.4703 
181.608 190.199 66.3659 181.754 191.592 66.6931 181.372 192.658 66.7372 
180.34 188.78 66.5832 180.283 188.664 66.6328 180.378 188.714 66.6008 
179.617 188.454 66.9501 180.555 188.857 66.576 181.689 191.08 66.7396 
181.83 191.769 67.003 181.96 192.24 66.907 182.096 192.546 67.0205 
182.035 192.27 67.0005 182.103 192.442 67.0444 182.04 192.863 67.0249 
182.128 192.846 67.1395 182.119 192.599 67.1115 182.152 193.393 67.2999 
181.799 195.301 67.5347 181.571 195.758 67.6884 178.825 187.821 67.4268 
178.697 187.706 67.5322 178.5 187.648 67.6003 178.845 187.789 67.4946 
177.336 187.478 67.918 177.898 187.393 67.921 179.071 187.938 67.3779 
179.249 188.121 67.2087 179.932 188.504 66.9587 180.341 189.006 67.1905 
181.406 190.311 66.8365 182.077 192.802 67.3202 182.191 193.321 67.4194 
182.222 193.489 67.414 182.225 193.511 67.469 182.136 194.278 67.6033 
182.193 193.696 67.5195 180.979 195.786 67.9107 181.796 195.857 67.752 
182.088 196.241 68.085 181.284 197.066 68.385 181.893 196.746 68.152 
181.987 196.617 68.1619 181.443 197.145 68.3692 181.504 197.314 68.4796 
181.797 196.995 68.2692 181.682 197.238 68.4353 173.965 185.393 69.4229 
174.811 186.223 68.9213 175.597 186.393 68.7102 176.292 186.625 68.5238 
176.482 186.575 68.6372 177.078 186.892 68.3643 178.576 187.669 67.6507 
178.457 187.687 67.8751 175.595 187.32 68.5105 182.012 194.431 68.1039 
182.142 195.123 67.9365 182.179 195.669 68.05 182.181 195.985 68.0836 
182.174 195.903 68.1713 182.164 196.192 68.152 182.168 196.114 68.1995 
182.096 196.314 68.272 181.061 197.29 68.7005 180.849 197.284 68.9039 
181.819 197.121 68.3947 181.86 197.031 68.4637 181.147 197.448 68.8084 
181.335 197.55 68.7414 181.356 197.472 68.652 181.502 197.44 68.6586 
181.438 197.556 68.6749 181.403 197.577 68.6916 171.395 184.111 70.4132 
171.996 184.291 70.2033 172.815 184.699 69.8875 175.013 185.625 69.2316 
174.944 185.528 69.3158 175.111 185.608 69.2554 175.227 185.694 69.2619 
174.164 185.293 69.5891 175.317 185.884 69.0184 175.657 186.035 69.0051 
175.506 185.939 69.2085 172.905 186.035 69.5461 173.154 186.9 69.4549 
177.401 187.17 68.5293 175.774 189.622 68.6554 179.643 189.827 68.534 
181.907 196.091 68.5958 179.535 196.567 69.3523 181.74 197.143 68.6382 
180.905 197.361 69.021 181.258 197.468 68.8617 181.407 197.559 68.7206 
181.413 197.421 68.8221 181.548 197.298 68.7763 169.852 183.926 70.9396 
171.056 183.767 70.7195 172.447 184.409 70.1227 172.798 184.504 70.13 
172.632 184.414 70.3162 173.014 184.616 70.1646 173.317 184.79 69.9624 
173.455 184.925 70.0844 175.049 185.586 69.3204 170.921 185.139 70.3576 
173.241 187.501 69.4853 176.591 193.571 69.5126 181.414 196.948 69.0405 
179.93 196.943 69.5417 180.325 197.111 69.4368 180.653 197.248 69.2471 
180.938 197.316 69.1446 181.254 197.311 69.0051 169.674 183.089 71.5319 
170.298 183.188 71.2414 170.444 183.257 71.2315 168.369 183.053 71.7862 
169.085 182.997 71.6888 170.737 183.488 70.9824 171.458 183.87 70.7833 
172.257 184.279 70.5728 176.408 195.268 70.6653 179.514 195.915 70.4035 
177.618 196.115 70.7282 179.371 196.723 69.9414 179.953 196.913 69.7563 
166.342 182.21 72.8527 165.776 182.121 73.0984 167.513 182.469 72.3948 
168.112 182.515 72.3489 170.048 183.151 71.4521 170.259 183.18 71.3214 
168.753 182.811 72.1091 169.806 183.186 71.7257 167.652 183.27 72.0033 
174.594 195.609 72.322 175.13 195.782 72.2899 177.767 196.156 71.0133 
179.353 196.591 70.196 163.515 181.058 74.5056 164.264 181.249 74.2039 
165.312 181.666 73.6022 164.845 181.435 73.9392 165.37 181.62 73.8424 
166.902 182.018 72.9993 166.761 181.997 73.0098 167.045 182.099 72.9972 
166.191 181.89 73.2611 164.736 182.691 73.457 175.175 193.599 72.9416 
171.333 194.733 73.3975 173.193 194.679 72.2239 177.804 195.434 71.4328 
177.601 195.871 71.3716 173.322 195.559 73.1668 175.3 195.786 72.5197 
162.629 180.775 74.9423 164.201 184.336 73.8601 173.806 194.948 73.7621 
160.129 179.401 76.5648 160.634 179.558 76.3441 160.837 179.963 75.9429 
162.167 180.395 75.3858 162.146 180.281 75.6409 163.343 180.903 75.2231 
161.814 181.082 75.168 171.612 195.231 74.5887 172.625 195.256 74.2027 
173.256 195.527 73.7583 174.136 195.727 73.314 170.02 195.246 75.0254 
173.807 195.694 73.4109 158.626 178.858 77.4068 158.665 179.023 77.2444 
160.881 179.642 76.3229 158.7 179.274 77.1252 161.466 179.955 76.1087 
159.311 180.504 76.5967 163.517 181.22 75.4799 163.091 181.51 76.177 
164.954 183.271 75.7344 172.063 194.51 74.7002 166.54 194.369 76.8626 
171.105 194.806 75.1187 173.949 195.699 73.4437 157.862 178.584 77.8474 
157.736 178.72 77.7964 158.203 178.564 77.8605 164.995 193.986 77.7678 
165.393 194.099 77.7132 166.23 194.268 77.3357 167.163 194.514 76.9403 
170.11 194.914 75.5174 167.569 194.681 76.5477 168.227 194.821 76.2885 
169.016 194.93 75.9207 157.353 178.209 78.3394 157.243 178.029 78.7129 
157.895 178.352 78.4133 157.014 178.943 78.1172 158.249 183.508 77.8385 
162.774 192.044 77.7003 163.168 193.138 78.2326 166.158 193.074 77.9221 
166.46 193.751 77.6767 163.981 193.678 78.1747 166.7 194.198 77.3371 
167.334 194.394 77.0163 167.555 194.607 76.8327 168.046 194.745 76.5396 
167.738 194.707 76.6472 154.312 176.905 80.0191 154.809 176.828 79.9788 
155.831 177.244 79.6092 156.253 177.484 79.5094 156.915 177.914 79.2283 
157.62 178.394 78.9739 157.485 178.609 79.3756 162.899 187.504 78.9535 
165.003 192.609 78.6301 161.602 193.015 79.5494 162.093 193.329 79.4839 
165.621 193.397 78.2088 162.339 193.488 79.5193 163.283 193.587 78.7677 
165.326 193.901 78.1555 162.809 193.588 79.3084 164.238 193.791 78.7056 
154.514 176.573 80.2945 154.112 176.35 80.5787 155.056 176.853 80.1573 
155.801 177.247 79.8153 158.49 181.537 80.1763 163.505 192.152 79.5872 
161.235 193.202 80.3146 164.084 193.34 79.0947 161.762 193.383 80.1169 
163.391 193.539 79.4409 162.72 193.573 79.6377 151.116 174.929 82.4069 
154.84 176.981 80.8031 156.21 187.248 80.8156 160.195 192.931 81.0296 
162.608 193.132 80.1015 162.55 193.338 80.0565 160.637 193.059 80.8867 
161.339 193.221 80.5714 162.704 193.488 79.8471 162.349 193.468 80.0205 
149.395 174.261 83.297 149.938 174.222 83.2203 152.176 175.37 82.0412 
153.988 177.003 81.7791 160.782 192.351 81.4561 160.822 192.717 81.3284 
158.675 192.519 82.1076 159.595 192.729 81.3591 161.261 193.014 80.894 
160.732 192.876 81.2903 161.902 193.305 80.3626 146.861 172.441 85.014 
146.864 172.393 85.0368 146.73 172.356 85.118 149.715 174.03 83.5817 
150.302 174.326 83.2722 150.538 174.504 83.2637 151.109 174.938 83.0591 
155.484 189.184 82.373 157.978 192.151 82.3141 157.785 192.234 82.8595 
159.928 192.71 81.8242 158.476 192.472 82.4146 158.834 192.549 82.3449 
146.579 172.135 85.4137 147.001 172.203 85.2834 146.882 172.165 85.3764 
146.971 172.194 85.2711 147.063 172.272 85.2301 148.914 173.52 84.1705 
148.774 173.467 84.2077 147.453 173.159 84.6497 148.148 173.205 84.604 
154.242 190.274 84.2395 158.317 190.126 83.2146 154.939 190.695 83.952 
158.792 191.573 82.9453 156.094 191.76 84.1726 156.733 191.923 83.8167 
157.892 192.132 83.2776 146.929 172.261 85.2554 146.469 172.036 85.7085 
147.324 172.541 85.0954 148.171 173.439 85.1323 149.736 176.084 85.4361 
156.738 191.176 84.4358 153.81 190.842 85.3127 157.367 191.763 83.8826 
157.908 191.864 83.4719 157.448 191.927 83.7284 155.407 191.592 84.7428 
156.378 191.842 84.2015 156.966 191.922 83.9235 144.355 170.977 87.4095 
144.769 171.595 86.7307 145.732 171.745 86.4566 146.474 172.253 86.2501 
150.64 188.413 86.1823 151.404 189.482 86.2603 153.4 190.936 86.1305 
154.459 191.236 85.6025 155.052 191.478 85.1391 155.54 191.605 84.8752 
156.152 191.715 84.5363 143.282 170.362 88.1445 142.93 170.114 88.4668 
143.757 170.587 87.8692 143.514 170.719 87.8208 152.196 190.491 87.0269 
155.571 191.313 85.1428 142.235 169.625 89.147 141.828 169.328 89.6053 
142.715 169.851 88.8154 142.317 169.547 89.2548 142.662 169.703 89.1094 
142.99 169.905 88.9953 142.44 169.964 88.8062 143.493 170.295 88.6857 
151.714 190.351 87.565 151.749 190.328 87.6264 141.421 169.288 89.7738 
141.171 168.952 90.2004 142.482 169.651 89.677 148.441 188.663 88.7343 
151.596 189.583 88.019 150.157 189.889 88.3523 149.767 189.784 88.7431 
150.984 189.848 88.385 150.803 189.947 88.3929 139.805 167.747 91.626 
139.881 167.867 91.4176 140.103 168.14 91.1417 140.575 168.362 91.2918 
148.621 189.404 89.7106 149.21 189.582 89.0802 148.973 189.539 89.4414 
149.469 189.666 89.1949 139.205 167.495 91.9649 139.012 167.337 92.2564 
138.718 167.352 92.2972 139.179 169.324 91.3253 142.331 170.785 91.0669 
149.522 189.546 89.4168 149.086 189.475 89.6734 138.332 167.023 92.7023 
138.177 166.9 92.8506 138.198 166.911 92.8896 137.821 167.102 92.9923 
138.54 167.104 92.7016 142.423 182.681 91.6133 144.046 185.527 91.3533 
137.112 166.547 93.871 138.08 166.864 92.9693 137.843 166.835 93.2916 
138.482 167.11 93.1394 144.468 187.577 92.8656 144.747 187.484 92.3089 
146.876 188.13 91.6507 145.659 187.949 92.3467 135.905 165.853 95.1646 
135.883 166.171 94.7382 136.513 166.191 94.6001 135.472 166.653 94.8223 
138.032 167.538 94.4867 136.83 169.796 93.4357 143.012 187.036 93.9413 
143.391 187.301 93.9387 144.002 187.511 93.5086 145.566 187.721 92.7478 
144.446 187.628 93.1268 134.497 165.323 96.2012 134.129 165.367 96.3107 
[...]
POINT_DATA 2150
SCALARS scalars float
LOOKUP_TABLE default
1 1 1 1 1 1 1 1 1 
1 1 1 1 1 1 1 1 1 
1 1 1 1 1 1 1 1 1 
1 1 1 1 1 1 1 1 1 
1 1 1 1 1 1 1 1 1 
1 1 1 1 1 1 1 1 1 
1 1 1 1 1 1 1 1 1 
1 1 1 1 1 1 1 1 1 
1 1 1 1 1 1 1 1 1 
1 1 1 1 1 1 1 1 1 
1 1 1 1 1 1 1 1 1 
1 1 1 1 1 1 1 1 1 
1 1 1 1 1 1 1 1 1 
1 1 1 1 1 1 1 1 1 
1 1 1 1 1 1 1 1 1 
1 1 1 1 1 1 1 1 1 
1 1 1 1 1 1 1 1 1 
1 1 1 1 1 1 1 1 1 
1 1 1 1 1 1 1 1 1 
1 1 1 1 1 1 1 1 1 
1 1 1 1 1 1 1 1 1 
1 1 1 1 1 1 1 1 1 
1 1 1 1 1 1 1 1 1 
1 1 1 1 1 1 1 1 1 
1 1 1 1 1 1 1 1 1 
1 1 1 1 1 1 1 1 1 
1 1 1 1 1 1 1 1 1 
1 1 1 1 1 1 1 1 1 
1 1 1 1 1 1 1 1 1 
1 1 1 1 1 1 1 1 1 
1 1 1 1 1 1 1 1 1 
1 1 1 1 1 1 1 1 1 
1 1 1 1 1 1 1 1 1 
1 1 1 1 1 1 1 1 1 
1 1 1 1 1 1 1 1 1 
1 1 1 1 1 1 1 1 1 
1 1 1 1 1 1 1 1 1 
1 1 1 1 1 1 1 1 1 
1 1 1 1 1 1 1 1 1 
1 1 1 1 1 1 1 1 1 
1 1 1 1 1 1 1 1 1 
1 1 1 1 1 1 1 1 1 
1 1 1 1 1 1 1 1 1 
1 1 1 1 1 1 1 1 1 
1 1 1 1 1 1 1 1 1 
1 1 1 1 1 1 1 1 1 
1 1 1 1 1 1 1 1 1 
1 1 1 1 1 1 1 1 1 
1 1 1 1 1 1 1 1 1 
1 1 1 1 1 1 1 1 1 
1 1 1 1 1 1 1 1 1 
1 1 1 1 1 1 1 1 1 
1 1 1 1 1 1 1 1 1 
1 1 1 1 1 1 1 1 1 
1 1 1 1 1 1 1 1 1 
1 1 1 1 1 1 1 1 1 
1 1 1 1 1 1 1 1 1 
1 1 1 1 1 1 1 1 1 
1 1 1 1 1 1 1 1 1 
1 1 1 1 1 1 1 1 1 
1 1 1 1 1 1 1 1 1 
1 1 1 1 1 1 1 1 1 
1 1 1 1 1 1 1 1 1 
1 1 1 1 1 1 1 1 1 
1 1 1 1 1 1 1 1 1 
1 1 1 1 1 1 1 1 1 
1 1 1 1 1 1 1 1 1 
1 1 1 1 1 1 1 1 1 
1 1 1 1 1 1 1 1 1 
1 1 1 1 1 1 1 1 1 
1 1 1 1 1 1 1 1 1 
1 1 1 1 1 1 1 1 1 
1 1 1 1 1 1 1 1 1 
1 1 1 1 1 1 1 1 1 
1 1 1 1 1 1 1 1 1 
1 1 1 1 1 1 1 1 1 
1 1 1 1 1 1 1 1 1 
1 1 1 1 1 1 1 1 1 
1 1 1 1 1 1 1 1 1 
1 1 1 1 1 1 1 1 1 
1 1 1 1 1 1 1 1 1 
1 1 1 1 1 1 1 1 1 
1 1 1 1 1 1 1 1 1 
1 1 1 1 1 1 1 1 1 
1 1 1 1 1 1 1 1 1 
1 1 1 1 1 1 1 1 1 
1 1 1 1 1 1 1 1 1 
1 1 1 1 1 1 1 1 1 
1 1 1 1 1 1 1 1 1 
1 1 1 1 1 1 1 1 1 
1 1 1 1 1 1 1 1 1 
1 1 1 1 1 1 1 1 1 
1 1 1 1 1 1 1 1 1 
1 1 1 1 1 1 1 1 1 
1 1 1 1 1 1 1 1 1 
1 1 1 1 1 1 1 1 1 
1 1 1 1 1 1 1 1 1 
1 1 1 1 1 1 1 1 1 
1 1 1 1 1 1 1 1 1 
1 1 1 1 1 1 1 1 1 
1 1 1 1 1 1 1 1 1 
1 1 1 1 1 1 1 1 1 
1 1 1 1 1 1 1 1 1 
1 1 1 1 1 1 1 1 1 
1 1 1 1 1 1 1 1 1 
1 1 1 1 1 1 1 1 1 
1 1 1 1 1 1 1 1 1 
1 1 1 1 1 1 1 1 1 
1 1 1 1 1 1 1 1 1 
1 1 1 1 1 1 1 1 1 
1 1 1 1 1 1 1 1 1 
1 1 1 1 1 1 1 1 1 
1 1 1 1 1 1 1 1 1 
1 1 1 1 1 1 1 1 1 
1 1 1 1 1 1 1 1 1 
1 1 1 1 1 1 1 1 1 
1 1 1 1 1 1 1 1 1 
1 1 1 1 1 1 1 1 1 
1 1 1 1 1 1 1 1 1 
1 1 1 1 1 1 1 1 1 
1 1 1 1 1 1 1 1 1 
1 1 1 1 1 1 1 1 1 
1 1 1 1 1 1 1 1 1 
1 1 1 1 1 1 1 1 1 
1 1 1 1 1 1 1 1 1 
1 1 1 1 1 1 1 1 1 
1 1 1 1 1 1 1 1 1 
1 1 1 1 1 1 1 1 1 
1 1 1 1 1 1 1 1 1 
1 1 1 1 1 1 1 1 1 
1 1 1 1 1 1 1 1 1 
1 1 1 1 1 1 1 1 1 
1 1 1 1 1 1 1 1 1 
1 1 1 1 1 1 1 1 1 
1 1 1 1 1 1 1 1 1 
1 1 1 1 1 1 1 1 1 
1 1 1 1 1 1 1 1 1 
1 1 1 1 1 1 1 1 1 
1 1 1 1 1 1 1 1 1 
1 1 1 1 1 1 1 1 1 
1 1 1 1 1 1 1 1 1 
1 1 1 1 1 1 1 1 1 
1 1 1 1 1 1 1 1 1 
1 1 1 1 1 1 1 1 1 
1 1 1 1 1 1 1 1 1 
1 1 1 1 1 1 1 1 1 
1 1 1 1 1 1 1 1 1 
1 1 1 1 1 1 1 1 1 
1 1 1 1 1 1 1 1 1 
1 1 1 1 1 1 1 1 1 
1 1 1 1 1 1 1 1 1 
1 1 1 1 1 1 1 1 1 
1 1 1 1 1 1 1 1 1 
1 1 1 1 1 1 1 1 1 
1 1 1 1 1 1 1 1 1 
1 1 1 1 1 1 1 1 1 
1 1 1 1 1 1 1 1 1 
1 1 1 1 1 1 1 1 1 
1 1 1 1 1 1 1 1 1 
1 1 1 1 1 1 1 1 1 
1 1 1 1 1 1 1 1 1 
1 1 1 1 1 1 1 1 1 
1 1 1 1 1 1 1 1 1 
1 1 1 1 1 1 1 1 1 
1 1 1 1 1 1 1 1 1 
1 1 1 1 1 1 1 1 1 
1 1 1 1 1 1 1 1 1 
1 1 1 1 1 1 1 1 1 
1 1 1 1 1 1 1 1 1 
1 1 1 1 1 1 1 1 1 
1 1 1 1 1 1 1 1 1 
1 1 1 1 1 1 1 1 1 
1 1 1 1 1 1 1 1 1 
1 1 1 1 1 1 1 1 1 
1 1 1 1 1 1 1 1 1 
1 1 1 1 1 1 1 1 1 
1 1 1 1 1 1 1 1 1 
1 1 1 1 1 1 1 1 1 
1 1 1 1 1 1 1 1 1 
1 1 1 1 1 1 1 1 1 
1 1 1 1 1 1 1 1 1 
1 1 1 1 1 1 1 1 1 
1 1 1 1 1 1 1 1 1 
1 1 1 1 1 1 1 1 1 
1 1 1 1 1 1 1 1 1 
1 1 1 1 1 1 1 1 1 
1 1 1 1 1 1 1 1 1 
1 1 1 1 1 1 1 1 1 
1 1 1 1 1 1 1 1 1 
1 1 1 1 1 1 1 1 1 
1 1 1 1 1 1 1 1 1 
1 1 1 1 1 1 1 1 1 
1 1 1 1 1 1 1 1 1 
1 1 1 1 1 1 1 1 1 
1 1 1 1 1 1 1 1 1 
1 1 1 1 1 1 1 1 1 
1 1 1 1 1 1 1 1 1 
1 1 1 1 1 1 1 1 1 
1 1 1 1 1 1 1 1 1 
1 1 1 1 1 1 1 1 1 
1 1 1 1 1 1 1 1 1 
1 1 1 1 1 1 1 1 1 
1 1 1 1 1 1 1 1 1 
1 1 1 1 1 1 1 1 1 
1 1 1 1 1 1 1 1 1 
1 1 1 1 1 1 1 1 1 
1 1 1 1 1 1 1 1 1 
1 1 1 1 1 1 1 1 1 
1 1 1 1 1 1 1 1 1 
1 1 1 1 1 1 1 1 1 
1 1 1 1 1 1 1 1 1 
1 1 1 1 1 1 1 1 1 
1 1 1 1 1 1 1 1 1 
1 1 1 1 1 1 1 1 1 
1 1 1 1 1 1 1 1 1 
1 1 1 1 1 1 1 1 1 
1 1 1 1 1 1 1 1 1 
1 1 1 1 1 1 1 1 1 
1 1 1 1 1 1 1 1 1 
1 1 1 1 1 1 1 1 1 
1 1 1 1 1 1 1 1 1 
1 1 1 1 1 1 1 1 1 
1 1 1 1 1 1 1 1 1 
1 1 1 1 1 1 1 1 1 
1 1 1 1 1 1 1 1 1 
1 1 1 1 1 1 1 1 1 
1 1 1 1 1 1 1 1 1 
1 1 1 1 1 1 1 1 1 
1 1 1 1 1 1 1 1 1 
1 1 1 1 1 1 1 1 1 
1 1 1 1 1 1 1 1 1 
1 1 1 1 1 1 1 1 1 
1 1 1 1 1 1 1 1 1 
1 1 1 1 1 1 1 1 1 
1 1 1 1 1 1 1 1 1 
1 1 1 1 1 1 1 1 1 
1 1 1 1 1 1 1 1 1 
1 1 1 1 1 1 1 1 1 
1 1 1 1 1 1 1 1 
NORMALS Normals float
-0.246366 -0.0826179 -0.965649 0.124095 -0.146887 -0.981338 0.686927 -0.584886 -0.431324 
0.100521 0.0773859 -0.991921 0.610605 -0.265834 -0.745985 -0.193048 0.241035 -0.951123 
0.545565 0.147865 -0.824921 0.291172 0.235988 -0.927108 -0.244829 -0.250778 -0.936573 
-0.0163275 -0.568657 -0.822413 0.257313 -0.565935 -0.783267 0.398002 -0.8047 -0.440514 
0.692279 -0.642392 0.328759 0.812339 -0.579982 0.0610393 0.872296 -0.485109 0.0613947 
0.814057 -0.205257 -0.543305 0.830444 -0.389116 0.398688 -0.349653 0.170849 -0.92117 
0.893224 0.0524345 -0.446545 0.954983 -0.227595 0.190283 0.970021 -0.0515676 -0.237486 
0.990541 -0.04906 0.128148 0.822412 -0.00734341 -0.568845 -0.0973308 0.257824 -0.961277 
-0.145066 -0.354228 -0.923839 -0.0914985 -0.625202 -0.775081 0.367128 -0.769414 -0.522703 
-0.169672 -0.548747 -0.818589 0.56102 -0.82395 -0.0797718 0.832979 -0.246918 0.495154 
0.896077 -0.365146 0.252417 0.779525 -0.119997 -0.61477 0.826851 0.00217398 -0.562416 
0.93525 -0.353825 -0.0107459 0.973591 -0.218471 -0.0662663 0.603333 0.170014 -0.779156 
0.979531 0.0221416 -0.200074 0.951245 -0.187575 0.244843 0.880441 0.0892008 -0.465689 
0.348098 0.278626 -0.895095 -0.150805 0.463424 -0.87321 0.0657871 -0.677159 -0.73289 
0.296931 -0.910895 -0.286535 -0.0525798 -0.723549 -0.688267 0.538414 -0.842026 0.0332035 
-0.231749 -0.317312 -0.919568 0.230715 -0.88063 -0.413838 0.585128 -0.803419 0.110197 
-0.146582 -0.443462 -0.884226 0.489905 -0.869621 0.061255 0.628337 -0.491914 0.602672 
0.799357 -0.230427 0.554916 0.864607 -0.263392 0.427877 0.975709 -0.207106 -0.0714036 
0.937832 0.078244 -0.338156 0.90631 -0.157598 0.392128 0.950132 0.109528 -0.291981 
0.95885 0.214543 -0.185952 -0.372055 0.389817 -0.842388 0.00391082 0.482333 -0.875979 
0.767765 0.368453 -0.524194 -0.360261 0.43764 -0.823822 0.377943 0.416405 -0.826901 
0.84869 0.37642 -0.371528 -0.194397 0.46233 -0.865136 -0.108607 0.658826 -0.744414 
0.11079 0.503623 -0.85679 0.309924 0.734307 -0.603938 -0.0552767 -0.508239 -0.85944 
-0.286033 -0.170747 -0.942884 -0.182663 -0.355444 -0.916675 -0.018554 -0.56911 -0.822052 
0.424672 -0.868635 -0.255198 0.405754 -0.894251 -0.18889 0.499983 -0.814441 0.294454 
0.579716 -0.743868 0.332551 -0.322676 -0.109502 -0.940154 0.827853 -0.124258 0.547009 
0.977733 -0.0812767 0.193477 0.972413 -0.121504 0.199122 0.947519 0.1004 -0.303526 
0.934537 -0.0901291 0.344263 0.925231 0.341776 -0.16473 0.946211 0.0737986 0.31502 
0.923609 0.322804 0.206746 -0.507464 0.547057 -0.66574 -0.552226 0.731775 -0.399439 
0.754515 0.624993 -0.200228 0.927063 0.253537 0.276177 -0.488681 0.827805 -0.275553 
-0.361452 0.930106 0.065226 -0.304261 0.557287 -0.772565 0.651174 0.758923 -0.00287189 
0.552996 0.712358 -0.432136 -0.0623824 0.968787 -0.239918 -0.161851 -0.542379 -0.824396 
-0.128228 -0.502113 -0.855243 -0.000304885 -0.570246 -0.821474 -0.00153952 -0.626205 -0.779657 
0.268775 -0.924836 -0.269143 0.461188 -0.846583 -0.26571 0.627057 -0.736802 0.252827 
0.253253 -0.908149 -0.33336 0.111982 -0.68802 -0.717 0.43287 -0.832252 -0.346383 
0.621719 -0.695016 0.361135 -0.385283 -0.0327298 -0.922218 -0.395259 -0.00310088 -0.918564 
0.588142 -0.715601 0.376834 -0.494042 0.106289 -0.862917 0.575629 -0.412246 0.70619 
0.789677 -0.061539 0.610429 -0.548402 0.571192 -0.610733 0.773576 0.34225 0.533334 
-0.328736 0.941629 0.0725776 0.148359 0.822205 0.549517 0.476133 0.639758 0.60333 
0.517832 0.643914 0.563227 0.712363 0.475468 0.516206 -0.266046 -0.39627 -0.878744 
0.0705292 -0.75846 -0.647893 0.178126 -0.827166 -0.532979 0.342441 -0.912537 -0.223631 
0.394561 -0.918803 0.0110509 0.560944 -0.755977 0.337403 0.385689 -0.863717 -0.324403 
0.529628 -0.799298 0.283931 0.506985 -0.75357 0.418449 -0.392382 -0.049557 -0.918466 
-0.464736 0.1181 -0.877538 -0.509786 0.375352 -0.774099 0.582486 0.122065 0.803623 
-0.440029 0.891475 -0.107922 -0.272418 0.939138 0.209305 -0.301523 0.939462 0.162773 
0.148741 0.721979 0.675738 0.501775 0.394122 0.769993 0.0143654 -0.903413 -0.428531 
0.203216 -0.933459 -0.295563 0.565291 -0.672604 0.477547 -0.303682 -0.120462 -0.945127 
0.00178657 -0.780808 -0.624769 -0.0888947 -0.616245 -0.782522 0.439002 -0.895705 -0.0706375 
0.488271 -0.806042 0.334497 -0.503148 0.5313 -0.681588 0.541989 -0.106461 0.833615 
-0.407391 0.807859 -0.425907 -0.310328 0.947909 0.0718672 -0.134113 0.900421 0.41383 
-0.134625 -0.651861 -0.746293 -0.331122 -0.296495 -0.895795 -0.153173 -0.649756 -0.744551 
0.248599 -0.939596 -0.235281 0.330019 -0.878174 0.346264 0.404734 -0.85702 0.318915 
0.423232 -0.880039 0.21542 0.452835 -0.745507 0.489039 -0.314236 -0.0324824 -0.948789 
-0.312732 0.669623 -0.67365 -0.249323 0.903346 -0.349003 -0.0276709 0.943629 0.329847 
0.217723 0.638642 0.73806 -0.122882 -0.72823 -0.674226 0.276076 -0.961127 0.00421536 
0.000143247 -0.831844 -0.555009 0.129086 -0.905996 -0.403123 0.277387 -0.95843 -0.0668523 
0.225118 -0.96729 -0.116926 0.12972 -0.990574 -0.0439979 0.406559 -0.828678 0.38471 
0.104581 -0.951598 -0.289004 -0.396089 -0.0897427 -0.913816 0.512004 -0.122421 0.850215 
-0.556487 0.448612 -0.699335 -0.39839 0.541568 -0.740264 0.499712 0.17265 0.848811 
0.349535 0.493114 0.796658 -0.292803 0.873013 -0.390018 0.293899 0.747697 0.59546 
-0.022782 -0.778087 -0.627743 -0.449029 0.276297 -0.849725 0.459536 0.232425 0.857208 
-0.0277672 -0.794634 -0.606454 0.0959754 -0.81736 -0.568078 -0.285424 -0.442703 -0.850028 
-0.0220132 -0.72233 -0.691199 0.375376 -0.915403 -0.145361 0.541734 -0.776618 0.32154 
-0.435817 -0.176328 -0.882594 0.300013 0.651643 0.696673 0.31029 0.559456 0.768589 
0.225209 0.651895 0.724095 0.0275184 0.987792 0.153328 -0.153057 0.980975 0.119425 
-0.0684848 0.98651 0.148687 -0.329338 -0.639274 -0.694885 -0.427672 -0.30126 -0.852255 
0.441181 -0.893954 0.0787717 -0.499257 -0.295743 -0.814419 0.505736 -0.848129 0.15782 
-0.428853 -0.127756 -0.894295 0.641505 -0.615746 0.457524 0.573156 -0.526829 0.627649 
0.577357 -0.481409 0.659473 0.44034 0.0494467 0.896468 -0.44343 0.754411 -0.483977 
0.408817 0.290864 0.865024 0.369035 0.565607 0.737497 -0.251798 -0.673194 -0.695275 
-0.411668 -0.412663 -0.812551 0.140182 -0.902658 -0.406887 -0.400439 0.830628 -0.386917 
-0.187087 0.98147 0.0413996 -0.0800392 0.957319 0.27773 -0.0287981 0.848915 0.527745 
0.302608 0.541865 0.784099 -0.267524 0.962962 -0.0336987 -0.15188 0.987134 0.0499868 
0.208894 0.728366 0.652569 -0.0435222 -0.760234 -0.648189 0.444862 -0.89512 -0.0293011 
0.579169 -0.793713 0.185964 -0.508452 -0.255158 -0.822418 -0.595962 0.131865 -0.792112 
-0.531255 0.476133 -0.700761 -0.558278 0.616289 -0.55544 0.580386 -0.0856562 0.809824 
0.625774 0.135843 0.768084 -0.381014 0.765837 -0.517998 0.42863 0.434161 0.792326 
0.281903 0.428417 0.858481 0.174307 0.665024 0.726195 0.156222 0.819159 0.551882 
-0.0989279 0.952495 0.288038 -0.37062 -0.388845 -0.843469 0.084699 -0.825446 -0.558091 
0.404743 -0.901359 -0.154063 0.578922 -0.794651 0.182697 0.590244 -0.774626 0.227082 
0.670074 -0.633453 0.38696 0.638524 -0.516456 0.570579 0.574714 -0.212899 0.790176 
0.555945 0.0161272 0.831063 -0.515134 0.686509 -0.513169 -0.469919 0.708636 -0.526319 
0.499062 0.066729 0.863993 -0.388977 0.895695 -0.21547 -0.32586 0.903519 -0.278331 
0.346967 0.500875 0.79293 -0.41399 0.783698 -0.463066 0.222348 0.794636 0.564902 
0.267332 -0.88426 -0.382908 0.266421 -0.916835 -0.297376 0.468712 -0.883292 0.0101691 
0.619282 -0.695477 0.364419 0.602407 -0.286888 0.74485 0.535056 0.0324392 0.844194 
-0.376967 0.908068 -0.182507 0.485921 0.274439 0.829797 -0.240978 0.970105 0.0287311 
0.35906 0.654862 0.665005 -0.0773466 0.985135 0.153386 -0.220057 -0.597075 -0.771412 
0.626342 -0.645212 0.43749 -0.627588 0.33669 -0.701978 -0.389545 0.90219 -0.185224 
0.526596 0.222873 0.820381 0.416015 0.498158 0.760769 -0.175479 0.97264 0.152247 
-0.0450454 0.942325 0.331654 0.451846 0.539422 0.710534 0.067133 0.894002 0.443005 
-0.346622 -0.41224 -0.842562 -0.0159785 -0.757336 -0.65283 0.559501 -0.806934 0.189254 
0.645357 -0.498657 0.578667 0.507884 0.184644 0.841404 0.421729 0.326379 0.845944 
-0.486902 0.748738 -0.449797 -0.47961 0.801047 -0.358187 0.389963 0.548934 0.739324 
0.210612 0.72431 0.65652 0.130241 0.801694 0.583372 -0.403676 -0.231755 -0.885062 
0.0104847 -0.670364 -0.741958 -0.497018 -0.330354 -0.802396 0.258381 -0.912948 -0.315856 
0.508979 -0.860542 0.020177 0.611114 -0.734 0.296282 0.66893 -0.626345 0.40028 
-0.674137 0.325175 -0.663175 -0.530691 0.71448 -0.455944 -0.325708 0.94445 -0.0439071 
0.372754 0.567823 0.733915 -0.319937 0.946688 -0.0377006 -0.0283484 0.947442 0.318668 
0.0182099 -0.883523 -0.468034 0.624029 -0.767871 0.144786 0.510067 -0.827651 0.234146 
1.13593e-05 -0.777944 -0.628334 0.67666 -0.160753 0.718533 0.533507 -0.834905 0.135293 
0.109252 -0.858852 -0.500436 -0.385287 -0.241262 -0.8907 0.366623 -0.884551 -0.288371 
-0.828299 0.182935 -0.529581 0.599769 -0.110465 0.792511 -0.454359 0.713496 -0.533368 
0.612102 0.00192649 0.790776 -0.419532 0.86504 -0.275135 -0.145961 0.978929 0.142806 
0.237417 0.793609 0.560195 -0.0921504 -0.69679 -0.711332 0.256024 -0.957739 -0.131101 
0.605479 -0.794551 0.0456447 0.57876 -0.591663 0.561224 0.642624 -0.412158 0.645879 
0.450273 0.206885 0.868592 -0.57055 0.694027 -0.439089 0.462394 0.331243 0.822478 
0.487058 0.384796 0.784032 0.33611 0.609254 0.71822 -0.331509 0.942089 -0.0506888 
-0.105709 0.978498 0.177107 0.0740828 0.919299 0.386524 0.250252 -0.891858 -0.376781 
-0.560615 -0.178041 -0.80871 0.448455 -0.893676 -0.0151891 0.656896 -0.67453 0.336892 
-0.57652 0.366014 -0.730519 -0.502592 0.514198 -0.694983 -0.610097 0.672506 -0.418947 
-0.0379037 0.903661 0.426568 -0.232609 0.961021 0.149434 -0.0053484 0.92493 0.380101 
0.1949 0.800457 0.566818 -0.12715 -0.693142 -0.709497 -0.269772 -0.619765 -0.736963 
-0.0155893 -0.758008 -0.652059 -0.481384 -0.33282 -0.810864 -0.214235 0.971145 0.104789 
0.409357 0.393071 0.82336 -0.207021 -0.698647 -0.684861 -0.0692864 -0.82434 -0.561839 
0.0487648 -0.827149 -0.559863 0.156071 -0.901578 -0.403484 0.386598 -0.896419 -0.216738 
0.557035 -0.829143 -0.0472662 -0.444199 -0.452254 -0.773404 0.614415 -0.7865 0.0625508 
-0.0720726 0.958146 0.27706 0.191772 0.800852 0.567326 -0.412734 -0.461028 -0.78556 
0.153495 -0.874023 -0.461003 0.687204 -0.665174 0.292054 -0.604943 0.639933 -0.473845 
0.58704 0.0792701 0.805668 -0.374564 0.913992 -0.155952 -0.404387 0.89787 -0.174072 
0.564645 0.318669 0.761332 0.283308 0.781727 0.555553 0.579405 -0.814715 -0.0230029 
0.0362965 -0.794839 -0.605735 0.19609 -0.810538 -0.551885 0.695656 -0.682472 0.224266 
-0.443045 0.893894 -0.0682956 -0.472118 0.847565 -0.242359 -0.279947 0.958764 0.0490017 
-0.0721084 0.955843 0.284896 -0.118164 -0.782556 -0.611264 0.192722 -0.929656 -0.314004 
-0.320192 -0.582058 -0.747452 -0.614051 0.00730574 -0.789233 0.737804 -0.344267 0.580625 
0.301378 0.682417 0.665942 0.130243 0.815259 0.56426 0.0613913 -0.813346 -0.578531 
-0.278992 -0.749911 -0.599831 0.510236 -0.855989 0.0833207 -0.554349 -0.337288 -0.760878 
0.378877 -0.917266 -0.122782 -0.672151 0.312891 -0.671053 -0.673398 0.390355 -0.62782 
-0.363536 -0.658079 -0.659374 0.463907 -0.867237 0.180805 0.0697496 -0.963538 -0.258321 
0.494121 -0.858023 0.140145 -0.413235 0.860199 -0.298821 -0.535786 0.765068 -0.357218 
0.57167 0.253147 0.780455 0.00725299 0.90307 0.429432 0.303658 -0.942917 -0.136745 
-0.238018 -0.699292 -0.674046 -0.0862684 -0.843549 -0.530078 -0.552191 -0.209664 -0.806924 
0.651236 -0.607309 0.455046 -0.677047 0.100599 -0.729032 -0.596132 0.65351 -0.466425 
-0.377979 0.910161 -0.169525 -0.56461 0.731547 -0.382172 0.188734 0.745161 0.639621 
-0.228046 0.971758 -0.0606684 0.000449341 -0.92109 -0.389348 -0.20241 -0.623038 -0.755548 
-0.315804 -0.643754 -0.697029 0.0921217 -0.91525 -0.392212 -0.199879 -0.394424 -0.896927 
-0.509128 -0.330403 -0.794747 -0.430369 -0.311516 -0.847195 -0.629598 0.588799 -0.506874 
-0.589903 0.734952 -0.334456 0.284658 0.646069 0.708212 0.467161 0.47689 0.744538 
-0.346044 0.937716 -0.0307026 0.250213 0.945247 0.209529 0.224194 0.902423 0.367926 
-0.00575101 0.949794 0.312822 0.396695 0.652256 0.645907 -0.0565439 0.979495 0.193371 
-0.0517963 -0.870706 -0.489069 -0.143592 -0.843178 -0.518105 -0.498241 -0.462635 -0.733297 
-0.671958 0.00221033 -0.740586 0.697737 -0.465095 0.54484 0.669228 -0.0891971 0.737684 
-0.382718 0.923176 -0.0356951 0.179042 0.864105 0.470391 0.277139 0.759191 0.588917 
0.137892 0.821877 0.552725 -0.198768 -0.853339 -0.481979 -0.211557 -0.837627 -0.503612 
0.312742 -0.943677 -0.108011 -0.51257 -0.508925 -0.691568 -0.551686 -0.426075 -0.717009 
0.58751 -0.777291 0.225058 0.612938 -0.747627 0.255656 -0.66529 0.568001 -0.484525 
0.568824 0.189965 0.80022 0.443149 0.243768 0.862668 -0.51059 0.850959 -0.12315 
-0.237804 0.92412 0.299084 -0.498349 0.86666 -0.0234131 -0.486727 -0.488798 -0.723998 
-0.67157 -0.0839773 -0.736167 0.676348 -0.36269 0.6411 0.700537 -0.272785 0.659421 
0.529031 -0.329029 0.782219 0.630089 -0.250539 0.734995 0.506204 0.339747 0.792672 
-0.424312 0.900455 -0.0956065 -0.155105 -0.734555 -0.660585 0.0225484 -0.880763 -0.47302 
0.686982 -0.557043 0.466646 0.641197 -0.203863 0.739802 -0.336609 0.937583 -0.0873639 
-0.00863466 0.966541 0.256367 0.0762968 0.901104 0.426838 -0.459234 -0.478897 -0.748173 
0.553945 -0.828618 0.0808564 0.412852 -0.876642 -0.247087 -0.605471 -0.307837 -0.733921 
-0.708134 -0.0222537 -0.705727 0.768643 0.0372244 0.638594 0.499075 0.581029 0.642906 
0.284046 0.80549 0.5201 0.31109 0.815254 0.488451 0.364098 -0.881867 -0.299573 
0.626915 -0.769814 0.119852 0.6216 -0.781293 -0.0565148 0.766301 -0.593386 0.246324 
0.472474 -0.235255 0.849366 0.715414 0.215028 0.66479 -0.607343 0.705446 -0.36535 
-0.320708 0.947043 -0.016007 0.297465 0.852628 0.42958 0.195322 0.89701 0.396513 
0.477442 -0.860488 -0.17779 0.68048 -0.704505 0.201542 0.781726 -0.419483 0.461454 
0.726362 0.11718 0.677249 -0.298508 0.954166 0.0214536 0.0880408 0.90762 0.410457 
0.0106225 -0.646501 -0.762839 0.453317 -0.798471 -0.396166 -0.371566 -0.258026 -0.89183 
-0.251821 -0.536304 -0.805584 0.451275 -0.838959 -0.304135 0.679669 -0.101201 0.726504 
0.623083 0.146815 0.768254 0.522299 0.550479 0.651288 -0.415298 0.909253 -0.0280512 
0.380295 0.656784 0.651161 -0.104059 -0.50477 -0.856959 0.186736 -0.617475 -0.764104 
-0.353822 -0.324292 -0.877294 0.239852 -0.719737 -0.651498 0.710389 -0.703809 -0.000680488 
-0.353664 0.922254 0.156104 -0.131273 0.899811 0.416063 0.531313 0.197256 0.823891 
0.22621 0.748165 0.623761 -0.0303156 -0.512567 -0.858112 0.337571 -0.755376 -0.561652 
-0.486964 -0.0722552 -0.870428 -0.490098 -0.039442 -0.870775 0.771688 -0.349275 0.531511 
-0.71222 0.459265 -0.530866 -0.449341 0.891894 -0.0511625 0.462247 0.428233 0.776495 
0.184372 0.702055 0.687842 -0.165561 -0.432747 -0.886183 -0.0509378 -0.458675 -0.887143 
0.506898 -0.672863 -0.538804 -0.202585 -0.327693 -0.922809 0.527865 -0.604194 -0.596916 