# vtk DataFile Version 4.2
vtk output
ASCII
DATASET POLYDATA
POINTS 2197 float
183.722 188.184 68.1089 183.979 188.368 68.0928 183.926 188.064 68.1962 
183.214 188.583 68.0573 184.052 188.646 68.0694 183.068 189.486 68.0327 
183.125 187.031 68.5937 184.384 188.49 68.2648 184.456 188.229 68.4479 
184.3 188.862 68.1548 182.209 188.986 68.1841 184.747 189.489 68.4045 
183.023 191.579 68.5686 183.412 191.681 68.5731 183.609 192.019 68.7098 
180.978 185.704 69.2318 182.089 186.074 69.0338 179.875 186.513 69.0785 
183.939 187.426 68.6393 184.152 187.426 68.8212 179.501 186.898 69.0972 
184.646 188.205 68.6875 185.152 189.75 68.7678 185.12 190.334 69.0096 
185.178 189.865 68.8801 184.174 191.347 68.6527 184.587 190.98 68.7354 
184.102 193.707 69.4161 184.463 195.216 70.0448 180.223 184.738 69.8262 
180.145 184.655 69.8869 179.802 184.764 69.9031 180.477 184.911 69.7743 
179.353 184.986 69.8473 183.173 186.418 69.2267 184.134 187.16 69.1644 
184.963 187.922 69.3092 185.025 188.157 69.2491 185.038 188.02 69.3409 
185.13 188.516 69.4671 185.05 188.115 69.4213 179.249 188.543 69.137 
185.17 189.641 68.8404 183.773 194.734 69.7781 184.884 194.712 70.1963 
184.622 195.474 70.2882 183.504 196.14 70.3629 184.415 196.1 70.5278 
183.929 196.674 70.6257 183.929 196.927 70.7634 183.823 197.036 70.8497 
183.98 197.049 70.9072 174.832 182.936 71.6622 178.274 183.801 70.8898 
180.911 184.7 70.1077 180.841 184.597 70.1689 179.452 184.368 70.35 
180.419 184.592 70.1481 181.608 185.041 70.1913 183.762 186.702 69.4548 
183.35 186.325 69.8806 184.981 187.94 69.4225 185.226 189.088 69.9805 
185.269 189.801 70.1129 185.311 190.588 69.7114 185.343 191.659 70.4634 
185.354 192.626 70.1703 181.573 194.044 69.8844 182.912 196.476 70.7303 
183.565 197.149 71.1592 183.803 197.134 71.0087 183.962 197.14 71.0668 
174.34 182.05 72.2582 177.756 183.287 71.4797 173.281 183.834 71.752 
178.837 183.924 70.8376 179.631 184.057 71.0037 182.097 185.282 70.6006 
182.698 185.788 70.731 184.975 189.377 70.8461 185.409 192.809 70.4513 
185.37 193.702 71.1672 185.345 195.546 71.188 181.171 195.914 71.3141 
185.44 195.882 71.5122 185.191 196.192 71.3703 185.243 196.212 71.6738 
185.397 195.959 71.6125 181.624 196.8 71.9633 181.892 196.992 72.0736 
182.738 196.902 71.3132 182.75 197.187 71.7051 183.289 197.209 71.593 
182.983 197.292 71.7075 182.88 197.307 71.7651 170.499 180.666 73.6129 
172.447 180.94 73.2417 180.703 184.505 70.9162 181.916 185.246 71.143 
183.231 187.008 71.6766 174.442 190.32 72.0524 185.42 194.885 71.3561 
185.438 195.782 71.5921 185.341 195.839 71.8829 180.502 196.385 72.4013 
181.49 196.871 72.2495 184.806 196.738 71.6642 182.336 197.221 72.4011 
182.851 197.282 72.1201 182.967 197.312 71.8047 172.059 180.525 73.6384 
174.313 181.454 72.9107 174.432 181.284 73.2935 169.2 182.813 73.4732 
178.039 183.213 72.503 182.364 187.889 73.1985 184.228 191.16 72.7951 
184.947 192.116 72.0048 185.068 193.944 72.2803 185.184 196.078 72.4259 
185.067 196.439 72.2669 185.118 196.282 72.4351 180.722 196.787 73.4867 
184.293 196.869 72.7863 184.742 196.806 72.1456 183.056 197.242 72.5901 
167.576 179.577 75.1938 168.563 179.298 75.2744 171.143 179.862 74.4694 
167.333 180.797 74.675 175.427 181.725 73.8857 168.894 186.959 74.1685 
181.16 187.065 73.7521 184.233 193.773 73.4519 184.359 194.41 73.4017 
184.967 195.342 72.7353 185.126 195.795 72.5351 179.735 196.593 74.5186 
180.288 196.721 74.2667 180.489 196.776 73.9857 184.816 196.118 72.9395 
184.813 196.339 72.8427 178.311 196.228 74.4021 181.985 197.121 73.2252 
183.708 196.91 73.1222 184.308 196.803 73.0232 184.093 196.717 73.1989 
184.409 196.752 72.9841 184.615 196.593 72.847 184.321 196.746 73.093 
171.399 179.705 75.1306 173.793 180.76 74.5403 176.34 182.374 73.9099 
177.166 183.871 74.9 178.049 184.833 74.8852 172.478 193.697 75.2463 
173.675 194.728 75.5502 183.66 196.27 73.7928 184.361 196.592 73.134 
167.574 178.248 76.7474 169.638 179.122 75.9214 172.552 180.13 74.9183 
172.718 180.206 75.1442 172.996 180.39 75.2232 174.138 181.001 74.7885 
163.441 180.514 76.572 174.306 181.237 75.0368 174.869 182.015 75.4016 
177.297 185.511 75.9188 181.759 194.058 75.5067 182.818 195.124 74.705 
173.172 195.085 76.8635 178.487 196.155 75.6049 182.824 196.298 74.2716 
181.985 196.592 74.4194 166.23 177.624 77.3812 166.622 177.705 77.3842 
168.942 178.68 76.9077 170.569 179.351 76.3079 169.648 179.057 76.6071 
176.909 186.713 76.7613 178.51 190.626 77.0909 167.289 191.232 77.037 
169.068 192.698 76.8279 168.85 193.262 77.5779 173.588 195.242 76.9472 
176.09 195.58 77.029 176.406 195.726 76.595 161.121 175.974 79.4108 
159.826 176.454 79.4145 168.053 178.307 77.5504 169.126 178.781 76.9977 
170.381 179.32 76.455 166.469 192.556 78.7142 178.816 193.217 77.2872 
178.735 193.804 77.2981 179.84 194.259 76.6317 168.731 194.128 79.2095 
178.741 194.632 77.0878 171.093 194.725 78.3408 174.242 195.389 77.1972 
175.964 195.284 77.5611 179.721 195.533 76.1722 178.587 195.741 76.3843 
181.796 196.291 74.9249 158.608 175.193 80.6793 162.837 176.03 79.3576 
164.3 176.436 79.1932 168.99 179.008 77.7979 169.436 179.629 78.1586 
164.645 191.63 79.3014 167.26 193.569 79.4926 178.104 194.015 77.5743 
167.605 193.872 80.0142 168.428 194.155 79.896 175.625 194.853 78.159 
169.405 194.404 79.5144 170.735 194.669 79.0486 172.38 194.926 78.6762 
173.866 195.017 78.3756 159.382 174.928 80.7753 161.196 175.389 80.1234 
157.241 176.75 80.5669 168.71 179.652 79.0009 176.016 192.479 78.8265 
164.228 192.614 80.767 175.088 193.657 79.1059 164.756 193.178 81.233 
176.839 194.111 78.1262 169.211 194.293 80.3436 170.721 194.5 79.9706 
172.68 194.723 79.2769 173.528 194.793 78.9067 173.459 194.51 79.2821 
155.934 174.16 82.4445 159.369 174.684 81.2245 161.438 175.234 81.0132 
162.191 175.522 80.7499 165.119 176.912 79.8453 164.984 177.199 80.5278 
166.424 179.556 81.0529 167.211 180.149 80.7128 173.492 191.39 80.2628 
163.705 192.996 82.1083 167.392 193.871 81.6478 155.348 174.403 82.5172 
157.097 173.714 82.6987 158.464 174.088 82.2754 160.233 174.723 81.7028 
160.974 175.028 81.595 163.626 176.607 81.36 171.547 191.522 81.3733 
161.758 192.203 82.6888 164.713 193.331 82.0087 165.996 193.539 82.3188 
166.26 193.68 81.7673 167.829 193.717 82.0336 172.573 193.319 80.5503 
172.643 193.656 80.3342 163.482 193.141 82.6886 169.875 193.953 81.1734 
157.058 173.424 83.0582 156.888 173.443 83.0663 157.164 173.451 83.0647 
157.417 173.577 83.0968 159.733 174.495 82.2402 153.8 174.468 83.2232 
166.71 187.102 83.6081 169.863 192.764 82.0811 162.643 192.86 83.5245 
170.127 193.588 81.5031 168.37 193.662 82.0389 151.997 172.149 84.98 
153.129 172.147 84.8346 155.574 173.107 83.6874 156.137 173.166 83.6212 
157.053 173.417 83.1327 159.302 174.327 83.376 159.005 174.23 83.4242 
158.196 173.869 83.3718 160.328 174.88 82.9608 152.085 176.796 83.8852 
166.571 189.995 84.2056 160.546 192.077 83.9859 164.215 192.97 83.991 
165.596 193.108 83.4022 167.932 192.709 82.9977 168.581 193.043 82.53 
164.509 193.131 83.5458 168.318 193.402 82.3725 168.774 193.358 82.3084 
169.013 193.458 82.0978 170.769 193.714 81.2121 154.373 172.291 84.8814 
159.265 174.355 83.4832 159.282 174.531 83.7116 165.997 191.194 84.4432 
159.199 191.412 84.4955 159.068 191.677 85.5561 162.932 192.663 84.7863 
163.141 192.865 84.2725 168.799 193.458 82.23 151.025 170.465 86.5302 
154.579 172.094 85.8746 157.643 174.459 85.5232 158.93 177.234 86.1709 
159.594 178.341 86.0947 162.356 184.487 86.0163 160.24 192.145 85.3716 
164.536 192.294 84.7207 147.708 170.289 87.5538 154.045 171.716 86.3012 
146.788 172.279 87.6206 155.561 173.142 86.5658 153.948 189.019 87.3181 
156.792 190.882 87.1822 156.813 190.909 87.5942 159.86 191.888 86.4692 
160.758 191.884 86.6635 158.688 191.588 86.663 162.828 192.136 85.6316 
147.029 168.542 88.9906 148.561 168.879 88.4376 150.943 169.506 88.1918 
151.391 170.075 87.2933 151.936 186.787 87.4079 154.224 189.663 87.9704 
155.112 190.196 88.2002 154.422 189.993 88.4207 157.032 190.944 87.9839 
145.174 168.305 89.921 145.527 167.526 90.3405 150.402 187.263 89.2487 
161.196 189.701 87.7294 156.699 190.734 88.5167 160.08 191.385 87.5235 
160.644 191.368 87.3696 144.17 167.101 91.2082 145.588 167.159 90.6638 
151.029 169.45 89.047 143.594 169.988 90.4256 150.247 188.32 90.4176 
159.488 188.897 88.9007 150.853 188.855 90.4585 159.991 190.29 88.3002 
159.364 190.171 88.7122 154.657 189.973 89.735 157.64 190.435 89.0977 
158.993 190.34 88.751 159.594 190.778 88.2114 157.112 190.723 88.7316 
142.903 166.847 92.0364 142.493 166.379 92.6053 144.652 166.463 91.8536 
146.469 167.038 91.0762 142.58 167.8 91.7503 147.899 186.443 91.4389 
157.665 188.123 90.1208 149.912 188.72 91.5517 155.955 189.802 90.1093 
150.918 189.165 91.1451 152.104 189.486 90.9275 143.571 166.396 92.11 
144.507 166.148 92.5378 142.104 170.044 91.6985 152.65 178.651 91.9275 
147.765 187.02 92.2745 156.486 189.193 90.4358 150.217 188.943 91.5028 
150.465 189.076 91.5708 142 165.108 94.1217 144.436 165.922 93.1719 
143.663 165.772 93.0051 145.983 185.864 93.3067 147.398 187.342 93.4505 
155.085 188.286 91.5563 156.037 188.24 91.0417 150.346 189.052 91.9727 
141.461 164.713 94.7361 142.256 164.766 94.7418 138.982 166.147 94.8849 
139.288 167.988 94.254 147.754 169.421 93.6852 147.483 187.642 94.2055 
152.546 188.116 93.1733 151.284 188.894 93.0041 150.437 188.857 93.047 
139.889 164.36 95.5527 140.487 164.386 95.34 141.485 164.329 95.618 
142.238 164.656 95.2296 142.853 164.926 95.0443 146.915 169.336 94.6348 
146.067 187.03 95.2275 147.002 187.431 95.0968 146.4 187.217 95.0691 
148.568 188.073 94.2414 149.252 188.417 93.5876 137.87 164.223 96.586 
138.21 163.495 97.0173 138.846 163.436 96.9172 137.034 164.87 96.7505 
149.985 184.471 95.7046 151.052 186.963 94.7198 148.269 187.716 95.2938 
137.331 163.142 97.6544 137.425 162.939 97.7833 138.996 163.149 97.2818 
[...]
POINT_DATA 2197
SCALARS scalars float
LOOKUP_TABLE default
1 1 1 1 1 1 1 1 1 
1 1 1 1 1 1 1 1 1 
1 1 1 1 1 1 1 1 1 
1 1 1 1 1 1 1 1 1 
1 1 1 1 1 1 1 1 1 
1 1 1 1 1 1 1 1 1 
1 1 1 1 1 1 1 1 1 
1 1 1 1 1 1 1 1 1 
1 1 1 1 1 1 1 1 1 
1 1 1 1 1 1 1 1 1 
1 1 1 1 1 1 1 1 1 
1 1 1 1 1 1 1 1 1 
1 1 1 1 1 1 1 1 1 
1 1 1 1 1 1 1 1 1 
1 1 1 1 1 1 1 1 1 
1 1 1 1 1 1 1 1 1 
1 1 1 1 1 1 1 1 1 
1 1 1 1 1 1 1 1 1 
1 1 1 1 1 1 1 1 1 
1 1 1 1 1 1 1 1 1 
1 1 1 1 1 1 1 1 1 
1 1 1 1 1 1 1 1 1 
1 1 1 1 1 1 1 1 1 
1 1 1 1 1 1 1 1 1 
1 1 1 1 1 1 1 1 1 
1 1 1 1 1 1 1 1 1 
1 1 1 1 1 1 1 1 1 
1 1 1 1 1 1 1 1 1 
1 1 1 1 1 1 1 1 1 
1 1 1 1 1 1 1 1 1 
1 1 1 1 1 1 1 1 1 
1 1 1 1 1 1 1 1 1 
1 1 1 1 1 1 1 1 1 
1 1 1 1 1 1 1 1 1 
1 1 1 1 1 1 1 1 1 
1 1 1 1 1 1 1 1 1 
1 1 1 1 1 1 1 1 1 
1 1 1 1 1 1 1 1 1 
1 1 1 1 1 1 1 1 1 
1 1 1 1 1 1 1 1 1 
1 1 1 1 1 1 1 1 1 
1 1 1 1 1 1 1 1 1 
1 1 1 1 1 1 1 1 1 
1 1 1 1 1 1 1 1 1 
1 1 1 1 1 1 1 1 1 
1 1 1 1 1 1 1 1 1 
1 1 1 1 1 1 1 1 1 
1 1 1 1 1 1 1 1 1 
1 1 1 1 1 1 1 1 1 
1 1 1 1 1 1 1 1 1 
1 1 1 1 1 1 1 1 1 
1 1 1 1 1 1 1 1 1 
1 1 1 1 1 1 1 1 1 
1 1 1 1 1 1 1 1 1 
1 1 1 1 1 1 1 1 1 
1 1 1 1 1 1 1 1 1 
1 1 1 1 1 1 1 1 1 
1 1 1 1 1 1 1 1 1 
1 1 1 1 1 1 1 1 1 
1 1 1 1 1 1 1 1 1 
1 1 1 1 1 1 1 1 1 
1 1 1 1 1 1 1 1 1 
1 1 1 1 1 1 1 1 1 
1 1 1 1 1 1 1 1 1 
1 1 1 1 1 1 1 1 1 
1 1 1 1 1 1 1 1 1 
1 1 1 1 1 1 1 1 1 
1 1 1 1 1 1 1 1 1 
1 1 1 1 1 1 1 1 1 
1 1 1 1 1 1 1 1 1 
1 1 1 1 1 1 1 1 1 
1 1 1 1 1 1 1 1 1 
1 1 1 1 1 1 1 1 1 
1 1 1 1 1 1 1 1 1 
1 1 1 1 1 1 1 1 1 
1 1 1 1 1 1 1 1 1 
1 1 1 1 1 1 1 1 1 
1 1 1 1 1 1 1 1 1 
1 1 1 1 1 1 1 1 1 
1 1 1 1 1 1 1 1 1 
1 1 1 1 1 1 1 1 1 
1 1 1 1 1 1 1 1 1 
1 1 1 1 1 1 1 1 1 
1 1 1 1 1 1 1 1 1 
1 1 1 1 1 1 1 1 1 
1 1 1 1 1 1 1 1 1 
1 1 1 1 1 1 1 1 1 
1 1 1 1 1 1 1 1 1 
1 1 1 1 1 1 1 1 1 
1 1 1 1 1 1 1 1 1 
1 1 1 1 1 1 1 1 1 
1 1 1 1 1 1 1 1 1 
1 1 1 1 1 1 1 1 1 
1 1 1 1 1 1 1 1 1 
1 1 1 1 1 1 1 1 1 
1 1 1 1 1 1 1 1 1 
1 1 1 1 1 1 1 1 1 
1 1 1 1 1 1 1 1 1 
1 1 1 1 1 1 1 1 1 
1 1 1 1 1 1 1 1 1 
1 1 1 1 1 1 1 1 1 
1 1 1 1 1 1 1 1 1 
1 1 1 1 1 1 1 1 1 
1 1 1 1 1 1 1 1 1 
1 1 1 1 1 1 1 1 1 
1 1 1 1 1 1 1 1 1 
1 1 1 1 1 1 1 1 1 
1 1 1 1 1 1 1 1 1 
1 1 1 1 1 1 1 1 1 
1 1 1 1 1 1 1 1 1 
1 1 1 1 1 1 1 1 1 
1 1 1 1 1 1 1 1 1 
1 1 1 1 1 1 1 1 1 
1 1 1 1 1 1 1 1 1 
1 1 1 1 1 1 1 1 1 
1 1 1 1 1 1 1 1 1 
1 1 1 1 1 1 1 1 1 
1 1 1 1 1 1 1 1 1 
1 1 1 1 1 1 1 1 1 
1 1 1 1 1 1 1 1 1 
1 1 1 1 1 1 1 1 1 
1 1 1 1 1 1 1 1 1 
1 1 1 1 1 1 1 1 1 
1 1 1 1 1 1 1 1 1 
1 1 1 1 1 1 1 1 1 
1 1 1 1 1 1 1 1 1 
1 1 1 1 1 1 1 1 1 
1 1 1 1 1 1 1 1 1 
1 1 1 1 1 1 1 1 1 
1 1 1 1 1 1 1 1 1 
1 1 1 1 1 1 1 1 1 
1 1 1 1 1 1 1 1 1 
1 1 1 1 1 1 1 1 1 
1 1 1 1 1 1 1 1 1 
1 1 1 1 1 1 1 1 1 
1 1 1 1 1 1 1 1 1 
1 1 1 1 1 1 1 1 1 
1 1 1 1 1 1 1 1 1 
1 1 1 1 1 1 1 1 1 
1 1 1 1 1 1 1 1 1 
1 1 1 1 1 1 1 1 1 
1 1 1 1 1 1 1 1 1 
1 1 1 1 1 1 1 1 1 
1 1 1 1 1 1 1 1 1 
1 1 1 1 1 1 1 1 1 
1 1 1 1 1 1 1 1 1 
1 1 1 1 1 1 1 1 1 
1 1 1 1 1 1 1 1 1 
1 1 1 1 1 1 1 1 1 
1 1 1 1 1 1 1 1 1 
1 1 1 1 1 1 1 1 1 
1 1 1 1 1 1 1 1 1 
1 1 1 1 1 1 1 1 1 
1 1 1 1 1 1 1 1 1 
1 1 1 1 1 1 1 1 1 
1 1 1 1 1 1 1 1 1 
1 1 1 1 1 1 1 1 1 
1 1 1 1 1 1 1 1 1 
1 1 1 1 1 1 1 1 1 
1 1 1 1 1 1 1 1 1 
1 1 1 1 1 1 1 1 1 
1 1 1 1 1 1 1 1 1 
1 1 1 1 1 1 1 1 1 
1 1 1 1 1 1 1 1 1 
1 1 1 1 1 1 1 1 1 
1 1 1 1 1 1 1 1 1 
1 1 1 1 1 1 1 1 1 
1 1 1 1 1 1 1 1 1 
1 1 1 1 1 1 1 1 1 
1 1 1 1 1 1 1 1 1 
1 1 1 1 1 1 1 1 1 
1 1 1 1 1 1 1 1 1 
1 1 1 1 1 1 1 1 1 
1 1 1 1 1 1 1 1 1 
1 1 1 1 1 1 1 1 1 
1 1 1 1 1 1 1 1 1 
1 1 1 1 1 1 1 1 1 
1 1 1 1 1 1 1 1 1 
1 1 1 1 1 1 1 1 1 
1 1 1 1 1 1 1 1 1 
1 1 1 1 1 1 1 1 1 
1 1 1 1 1 1 1 1 1 
1 1 1 1 1 1 1 1 1 
1 1 1 1 1 1 1 1 1 
1 1 1 1 1 1 1 1 1 
1 1 1 1 1 1 1 1 1 
1 1 1 1 1 1 1 1 1 
1 1 1 1 1 1 1 1 1 
1 1 1 1 1 1 1 1 1 
1 1 1 1 1 1 1 1 1 
1 1 1 1 1 1 1 1 1 
1 1 1 1 1 1 1 1 1 
1 1 1 1 1 1 1 1 1 
1 1 1 1 1 1 1 1 1 
1 1 1 1 1 1 1 1 1 
1 1 1 1 1 1 1 1 1 
1 1 1 1 1 1 1 1 1 
1 1 1 1 1 1 1 1 1 
1 1 1 1 1 1 1 1 1 
1 1 1 1 1 1 1 1 1 
1 1 1 1 1 1 1 1 1 
1 1 1 1 1 1 1 1 1 
1 1 1 1 1 1 1 1 1 
1 1 1 1 1 1 1 1 1 
1 1 1 1 1 1 1 1 1 
1 1 1 1 1 1 1 1 1 
1 1 1 1 1 1 1 1 1 
1 1 1 1 1 1 1 1 1 
1 1 1 1 1 1 1 1 1 
1 1 1 1 1 1 1 1 1 
1 1 1 1 1 1 1 1 1 
1 1 1 1 1 1 1 1 1 
1 1 1 1 1 1 1 1 1 
1 1 1 1 1 1 1 1 1 
1 1 1 1 1 1 1 1 1 
1 1 1 1 1 1 1 1 1 
1 1 1 1 1 1 1 1 1 
1 1 1 1 1 1 1 1 1 
1 1 1 1 1 1 1 1 1 
1 1 1 1 1 1 1 1 1 
1 1 1 1 1 1 1 1 1 
1 1 1 1 1 1 1 1 1 
1 1 1 1 1 1 1 1 1 
1 1 1 1 1 1 1 1 1 
1 1 1 1 1 1 1 1 1 
1 1 1 1 1 1 1 1 1 
1 1 1 1 1 1 1 1 1 
1 1 1 1 1 1 1 1 1 
1 1 1 1 1 1 1 1 1 
1 1 1 1 1 1 1 1 1 
1 1 1 1 1 1 1 1 1 
1 1 1 1 1 1 1 1 1 
1 1 1 1 1 1 1 1 1 
1 1 1 1 1 1 1 1 1 
1 1 1 1 1 1 1 1 1 
1 1 1 1 1 1 1 1 1 
1 1 1 1 1 1 1 1 1 
1 1 1 1 1 1 1 1 1 
1 1 1 1 1 1 1 1 1 
1 1 1 1 1 1 1 1 1 
1 1 1 1 1 1 1 1 1 
1 1 1 1 1 1 1 1 1 
1 1 1 1 1 1 1 1 1 
1 1 1 1 1 1 1 1 1 
1 
NORMALS Normals float
0.00197758 -0.396515 -0.918026 0.228744 -0.223772 -0.947419 0.407281 -0.50371 -0.761839 
-0.0574244 -0.0632718 -0.996343 0.232316 -0.0139643 -0.97254 0.0329332 0.143503 -0.989102 
0.235832 -0.578522 -0.78083 0.612458 -0.220534 -0.759118 0.591424 -0.492928 -0.638154 
0.27795 0.0709396 -0.957973 -0.267567 -0.0515831 -0.962158 0.56164 0.00795067 -0.827344 
-0.119133 0.271777 -0.954958 0.0543494 0.190279 -0.980224 0.203021 0.407777 -0.890225 
0.104688 -0.665945 -0.738619 0.137712 -0.645766 -0.751013 -0.160707 -0.269237 -0.949571 
0.33466 -0.598799 -0.727628 0.570093 -0.573662 -0.588138 -0.313222 -0.154154 -0.937085 
0.683342 -0.43392 -0.587161 0.811695 0.104275 -0.574699 0.944432 0.133259 -0.300483 
0.996968 0.029512 0.072002 0.279063 0.240098 -0.929773 0.560373 0.327124 -0.760902 
0.308062 0.318495 -0.89647 0.27314 0.4479 -0.85134 -0.127586 -0.460823 -0.878274 
0.121895 -0.74165 -0.659619 -0.173051 -0.451804 -0.875172 0.0780299 -0.568422 -0.819028 
-0.126433 -0.535755 -0.834854 0.458878 -0.802529 -0.381285 0.668031 -0.711574 -0.217708 
0.73504 -0.562824 -0.378082 0.845266 -0.239884 -0.477473 0.924595 -0.354836 -0.138618 
0.976156 -0.192235 0.100824 0.953026 -0.205342 0.222655 -0.330669 0.0925216 -0.939201 
0.979798 -0.124852 -0.156228 -0.0742177 0.43196 -0.898834 0.71354 0.308022 -0.629272 
0.452241 0.550092 -0.702052 -0.0534591 0.405676 -0.912452 0.50245 0.445932 -0.740735 
0.205157 0.496754 -0.843295 0.212058 0.552943 -0.805782 -0.113133 0.747387 -0.654686 
0.39204 0.75164 -0.530417 -0.0331782 -0.54704 -0.836449 -0.821079 0.489211 -0.294112 
0.247347 -0.689818 -0.680419 0.269264 -0.85085 -0.451167 -0.0858675 -0.733403 -0.674349 
0.173587 -0.858913 -0.481806 0.489278 -0.846928 -0.208136 0.64311 -0.712374 -0.28095 
0.667989 -0.744171 -0.000526816 0.813578 -0.52462 0.250728 0.975507 -0.178219 0.128935 
0.996421 -0.00801045 0.0841439 0.995336 -0.0194446 0.0944897 0.999118 -0.0417661 -0.00435468 
0.899805 0.135251 -0.4148 -0.33755 0.393288 -0.85521 -0.312163 0.539533 -0.781958 
-0.228988 0.887761 -0.399305 -0.00653709 0.908303 -0.418263 0.219903 0.965388 -0.140243 
0.0105314 -0.591652 -0.806124 0.277586 -0.822686 -0.496119 -0.33778 -0.203646 -0.91893 
0.100945 -0.82874 -0.550455 0.250433 -0.921921 -0.295543 0.5681 -0.822621 -0.0235906 
0.643377 -0.718699 0.263701 0.886631 -0.185336 0.423718 0.999429 0.028764 -0.0177458 
0.999946 0.0103999 0.000849876 0.901857 0.156831 -0.402565 -0.434721 0.620052 -0.65311 
0.913824 0.328059 -0.239381 0.686996 0.519095 -0.508505 0.861412 0.506848 0.0327711 
0.9153 0.338121 0.218863 -0.406181 0.723002 -0.558824 -0.363619 0.844054 -0.394149 
-0.379392 0.717843 -0.583749 -0.327396 0.757218 -0.565185 -0.0105334 0.948626 -0.316224 
-0.0700552 0.845291 -0.529693 -0.206642 0.947969 -0.242186 -0.208437 -0.470038 -0.857682 
-0.0831876 -0.656435 -0.749782 0.414121 -0.905357 0.09398 0.528056 -0.796863 0.29354 
0.69837 -0.4616 0.546996 -0.4735 0.375287 -0.796842 0.987547 -0.0628583 0.14422 
0.973088 0.0626099 0.221766 0.944994 0.148374 0.291499 -0.438005 0.822722 -0.362327 
-0.462477 0.829876 -0.312124 0.675839 0.716913 -0.171109 -0.252359 0.965378 -0.0660327 
0.151586 0.986534 0.0614259 0.15181 0.988284 -0.0157567 -0.147764 -0.636772 -0.756761 
0.259393 -0.803481 -0.535848 0.359185 -0.885976 -0.293314 -0.513522 -0.000826857 -0.858076 
0.532428 -0.844592 0.0564337 0.656931 -0.42591 0.622127 0.768713 -0.245701 0.590518 
0.840382 -0.230365 0.490603 0.811583 -0.143289 0.566393 0.9417 0.172022 0.289154 
0.828454 0.547773 0.116654 0.783708 0.412446 0.464425 -0.365117 0.911933 -0.187264 
0.334759 0.914272 0.228128 0.576986 0.792667 0.19689 0.153166 0.981405 0.115695 
-0.12736 -0.616055 -0.777339 -0.0461306 -0.726399 -0.685723 0.0365286 -0.886993 -0.460336 
-0.293633 -0.35975 -0.885641 0.571605 -0.817396 0.0716422 -0.52372 0.25437 -0.813028 
0.584146 -0.48746 0.648966 0.634514 -0.26144 0.727352 0.719292 0.0140694 0.694565 
0.711509 -0.164373 0.683181 0.848638 0.00791453 0.528915 -0.190743 0.976915 0.0961962 
-0.153734 0.966673 0.204719 -0.210349 0.974735 0.0751341 0.631697 0.0300044 0.774635 
0.675984 0.396056 0.621438 -0.325489 0.913107 -0.245548 -0.181054 0.979337 0.090103 
0.301842 0.850977 0.4298 0.282586 0.866561 0.411361 0.239157 0.730384 0.6398 
0.651911 0.635278 0.414045 0.663971 0.574391 0.478766 0.475386 0.56716 0.67256 
0.162861 -0.949345 -0.268739 0.372501 -0.915453 0.152275 0.599511 -0.77669 0.193233 
0.543928 -0.57426 0.611856 0.631055 -0.486216 0.604453 -0.46358 0.616718 -0.636202 
-0.377439 0.748597 -0.545108 0.46797 0.3279 0.820662 0.591941 0.382789 0.70928 
0.207619 -0.9018 -0.379013 0.116271 -0.910653 -0.396475 0.423452 -0.899853 -0.104656 
0.488794 -0.871084 0.0478841 0.505551 -0.84546 0.172093 0.547763 -0.810825 0.206202 
-0.483941 -0.0844309 -0.871018 0.512423 -0.755669 0.407905 0.586403 -0.582662 0.562705 
0.483543 -0.431999 0.761291 0.578525 -0.0197851 0.815424 0.548229 -0.0162623 0.83617 
-0.318403 0.93221 -0.172059 0.00155708 0.929847 0.367943 0.52768 0.314452 0.789097 
0.156311 0.86772 0.471836 0.09369 -0.904394 -0.416287 0.215993 -0.960365 -0.176199 
0.409768 -0.911845 0.0250683 0.396218 -0.897752 0.192492 0.468514 -0.880457 0.0727394 
0.484271 -0.373827 0.791034 0.463089 -0.132467 0.876357 -0.489596 0.526655 -0.694932 
-0.28598 0.646621 -0.707175 -0.247568 0.782955 -0.570694 -0.255536 0.966322 -0.0303771 
0.010411 0.965281 0.261005 -0.00684217 0.950096 0.311884 -0.0804607 -0.672865 -0.735376 
-0.273768 -0.524959 -0.805896 0.455565 -0.853149 0.25416 0.485906 -0.84699 0.215647 
0.247485 -0.968779 -0.0148009 -0.423734 0.674294 -0.604796 0.481689 0.0226848 0.876049 
0.417358 0.0545392 0.907104 0.477001 0.198164 0.856272 -0.251064 0.928838 -0.272446 
0.496838 0.327643 0.803618 -0.146465 0.985964 0.0801415 -0.120911 0.974144 0.190853 
0.106788 0.855193 0.507189 0.323665 0.542224 0.775393 0.232871 0.673468 0.701578 
0.263613 0.659712 0.703767 -0.215189 -0.675155 -0.705591 0.133551 -0.817085 -0.560836 
0.266747 -0.884263 -0.383307 0.527021 -0.762841 0.374597 0.585337 -0.642839 0.494104 
-0.581257 0.551337 -0.598471 -0.447892 0.800753 -0.397728 0.358752 0.216897 0.907884 
-0.404458 0.881466 -0.243787 -0.183 0.983112 -0.00135747 0.287734 0.5881 0.755876 
-0.230456 0.972915 0.018087 -0.120209 0.992654 0.0136843 -0.0769869 0.966274 0.245737 
0.00935712 0.9213 0.388739 -0.102152 -0.803659 -0.586257 0.0577276 -0.875317 -0.480092 
-0.480399 -0.182152 -0.857926 0.595245 -0.544551 0.590887 0.486872 0.142721 0.861735 
-0.442708 0.74633 -0.496991 0.451849 0.332486 0.82782 -0.330693 0.896783 -0.293979 
0.395639 0.250784 0.883503 -0.0622209 0.968439 0.241359 0.0321675 0.935347 0.352266 
0.0246236 0.890898 0.453535 0.195393 0.850024 0.489164 0.281943 0.685795 0.670964 
-0.194642 -0.659863 -0.725738 0.10077 -0.913826 -0.393405 0.36565 -0.930664 0.0128478 
0.411872 -0.90841 0.0717793 0.606429 -0.719793 0.337848 0.603116 -0.673938 0.426683 
0.61199 -0.465764 0.639166 0.6309 -0.313672 0.709631 0.519193 -0.0596178 0.852575 
-0.44339 0.830556 -0.337018 -0.042935 0.964612 0.260155 -0.355987 -0.440217 -0.824307 
-0.0114921 -0.778085 -0.628053 0.167842 -0.924284 -0.342822 0.375125 -0.921349 0.101967 
0.350995 -0.935356 0.04373 0.532013 -0.729382 0.430074 0.459179 0.0108155 0.888278 
-0.466994 0.801074 -0.374429 -0.178396 0.98333 -0.0351612 0.00908592 0.982451 0.186301 
-0.0938601 0.979836 0.176383 0.0449877 0.874985 0.482055 0.481941 0.268504 0.83405 
0.474187 0.401371 0.783612 -0.288346 0.954434 -0.0768954 0.136609 0.792705 0.594101 
0.0986976 -0.806974 -0.582282 -0.109776 -0.878295 -0.465347 -0.00828435 0.261607 -0.965139 
0.362795 -0.897164 -0.251947 0.358938 -0.933034 -0.0247325 -0.380305 -0.316434 -0.869044 
0.502714 -0.205937 0.839565 0.321314 0.362416 0.874878 -0.381302 0.922567 -0.0589774 
0.196168 0.515439 0.834171 0.0631858 0.8963 0.438923 -0.259805 -0.635197 -0.727342 
-0.0940008 -0.824714 -0.557683 0.0170606 -0.833415 -0.552384 0.0994487 -0.929726 -0.354568 
0.209518 -0.977801 -0.00269865 0.509636 -0.845798 0.157788 0.329018 -0.93103 0.157892 
0.409756 -0.906752 0.0995031 0.452539 -0.889042 0.0693811 -0.540832 -0.0293896 -0.840617 
0.473731 0.109354 0.873854 -0.412783 0.882485 -0.225458 0.164885 0.837973 0.520205 
0.301681 0.770224 0.561911 0.257441 0.488982 0.833439 0.344441 0.327996 0.879647 
0.0545947 0.946308 0.318622 0.0877281 0.7869 0.610813 0.326691 0.463088 0.823907 
0.298045 0.735687 0.608222 0.257885 0.69542 0.670735 0.24517 -0.93292 -0.263726 
0.445376 -0.770346 0.456298 0.532638 -0.652063 0.539547 0.524482 0.240277 0.816815 
-0.612659 0.572504 -0.544875 -0.476114 0.872543 -0.109471 0.0211882 0.93272 0.359977 
0.0270991 0.926093 0.37632 0.0855618 0.780037 0.619856 0.0954944 -0.803475 -0.587629 
0.45426 -0.889174 -0.0549278 0.639243 -0.627261 0.444874 0.532299 -0.301922 0.790886 
0.626248 -0.365814 0.688472 0.535482 -0.161701 0.828922 -0.282187 0.959359 0.00060093 
0.296561 0.69701 0.652862 -0.371731 -0.426752 -0.824439 0.493147 -0.852523 -0.173235 
-0.618169 0.0814173 -0.781818 0.651113 -0.523566 0.549483 -0.692312 0.493836 -0.526146 
-0.449121 0.881334 -0.146767 -0.448451 0.893444 0.0254749 -0.135159 0.944726 0.298704 
0.0159177 0.894794 0.446196 -0.362498 0.928809 0.0768675 0.284867 0.772858 0.567046 
-0.315286 -0.538714 -0.78127 -0.042074 -0.744392 -0.666416 0.362002 -0.877392 -0.314861 
0.399269 -0.844894 -0.356002 -0.568017 0.419486 -0.708087 -0.67618 0.706982 -0.20726 
-0.363964 0.931289 0.0152029 -0.498024 0.837836 -0.223613 -0.181549 0.967607 0.175434 
-0.419893 -0.401733 -0.813819 -0.11987 -0.663119 -0.738854 -0.678085 0.457034 -0.575604 
0.517021 0.137922 0.844788 -0.387429 0.894834 0.221743 0.055287 0.835064 0.547368 
0.27826 0.643138 0.713404 -0.379695 -0.520922 -0.764507 0.0301973 -0.808271 -0.588036 
0.581448 -0.806293 0.108675 -0.559518 -0.2284 -0.796726 -0.637899 0.618664 -0.458628 
0.55929 0.0620568 0.826646 -0.472863 0.807274 -0.353143 0.471883 0.283138 0.834961 
0.503119 0.229124 0.833291 -0.00897179 0.989156 0.146595 0.155413 0.645056 0.748164 
0.272556 0.559113 0.783011 0.359128 0.556425 0.749278 -0.0172019 0.862324 0.506065 
-0.338854 -0.455395 -0.823282 -0.371518 -0.583969 -0.721772 0.133085 -0.870313 -0.474176 
0.210791 -0.871897 -0.441999 -0.458187 -0.323714 -0.827813 -0.726248 0.416262 -0.547073 
0.581812 -0.0757534 0.809788 -0.654737 0.709735 -0.259992 0.0941835 0.832263 0.546322 
-0.330333 0.927658 -0.17416 -0.192482 0.979485 0.0596642 -0.187196 -0.704299 -0.684777 
0.255646 -0.884807 -0.389565 -0.625108 -0.0420129 -0.779407 0.645463 -0.195505 0.738346 
-0.636771 0.685884 -0.352258 0.263761 0.52419 0.809725 -0.530794 0.82294 -0.202555 
-0.427422 0.904051 0.00128524 0.0939647 -0.849478 -0.51919 0.373691 -0.906385 -0.19703 
0.0277729 -0.878324 -0.477259 -0.66524 0.559042 -0.494902 -0.649414 0.674878 -0.350429 
0.490888 0.166182 0.855227 0.382951 0.178503 0.906358 -0.373549 0.927245 0.0260471 
-0.0413434 -0.848859 -0.527 0.244575 -0.890316 -0.384084 -0.545267 -0.250877 -0.79984 
-0.681418 -0.0114291 -0.731805 0.70654 -0.39344 0.588223 -0.45434 0.884811 -0.103363 
0.48901 0.421858 0.763482 0.0289975 0.894201 0.446725 -0.0630597 0.953139 0.295888 
-0.230118 -0.728044 -0.645754 -0.0634251 -0.892655 -0.446255 0.241645 -0.935425 -0.258047 
0.295812 -0.944882 -0.140332 0.426248 -0.883283 -0.195254 0.691636 -0.460335 0.556535 
-0.509486 0.83074 -0.224267 -0.278645 0.945328 0.169447 -0.493222 0.862856 -0.110503 
-0.185923 0.945423 0.267597 -0.18316 0.921361 0.34285 -0.378457 -0.465309 -0.800161 
-0.302606 -0.638249 -0.707862 -0.0573084 -0.783266 -0.61904 -0.486684 -0.350298 -0.800268 
0.625607 0.0356113 0.779325 0.577792 0.324338 0.748974 -0.141437 0.940719 0.30829 
-0.336076 -0.604783 -0.722004 -0.214405 -0.728421 -0.650718 0.194756 -0.958697 -0.207291 
0.429758 -0.895982 0.111914 0.677823 -0.691778 0.248998 -0.510306 -0.429334 -0.745158 
0.613788 -0.737566 0.281534 -0.525065 -0.0966962 -0.845551 -0.472441 0.77154 -0.426057 
0.419468 0.641227 0.642553 -0.167955 0.980547 0.101578 0.0102908 0.863015 0.505074 
0.364795 0.676758 0.639471 -0.447808 0.81247 -0.37331 -0.185576 -0.821542 -0.539101 
-0.217006 -0.827555 -0.517746 -0.0348813 -0.800193 -0.598727 0.154092 -0.925671 -0.345526 
0.185821 -0.968625 -0.165035 -0.654603 -0.0762763 -0.752115 0.708473 -0.37773 0.596143 
0.708514 -0.21156 0.673239 0.426879 0.467695 0.773974 -0.553306 0.716601 -0.424658 
0.190538 0.817329 0.543755 0.379867 0.52473 0.761813 -0.12856 0.991623 0.0124848 
0.130477 0.792795 0.595359 -0.349344 0.924769 -0.150869 0.369891 -0.926901 -0.0635314 
0.425915 -0.904728 -0.00801827 0.0771102 -0.94456 -0.319157 0.701412 -0.637273 0.319223 
0.721455 -0.334664 0.606219 -0.636625 0.573582 -0.515473 -0.402487 0.9065 -0.12752 
-0.0137713 0.970386 0.241165 -0.0439379 0.995056 0.0890711 0.477806 -0.877461 0.041992 
0.581737 -0.777984 0.237324 0.748172 -0.479562 0.45854 -0.650816 -0.0762468 -0.755397 
0.71233 -0.417998 0.563794 0.697725 -0.245497 0.672987 -0.725261 0.302208 -0.618601 
0.687129 -0.179652 0.703973 -0.602202 0.713562 -0.358025 0.136807 0.892792 0.429193 
-0.437458 -0.387892 -0.811277 -0.391818 -0.51828 -0.760174 0.546496 -0.83453 0.0700099 
-0.683971 0.570846 -0.454223 -0.0894261 0.97991 0.178266 0.0540516 0.940115 0.336545 
0.266739 -0.930521 -0.250961 0.283734 -0.930231 -0.232736 0.00878941 -0.821961 -0.569476 
0.573771 -0.214541 0.790417 0.557067 -0.00651582 0.830442 -0.658231 0.711324 -0.246477 
-0.620195 0.757096 -0.205339 -0.594933 0.803657 -0.0137628 -0.208766 0.960583 0.183567 
-0.444992 0.888219 -0.11423 0.577045 -0.802837 0.149906 0.700105 -0.612983 0.366203 
0.56426 0.327475 0.757873 0.135495 0.981661 0.134102 0.24185 0.865983 0.437701 
-0.551854 0.823893 -0.129065 -0.365607 0.928554 0.0641776 -0.0955263 0.988745 0.115142 
-0.283145 -0.438293 -0.85307 0.359308 -0.876222 -0.321144 0.520948 -0.80552 0.282401 
0.442954 -0.884642 0.145603 0.585347 -0.672549 0.452821 -0.0535763 -0.735219 -0.675709 
0.61005 -0.777031 0.155119 0.737101 -0.487135 0.468382 0.728581 0.0917951 0.678781 
0.555744 0.0308253 0.830782 -0.649229 0.654304 -0.387798 -0.17216 0.951072 0.256559 
0.129322 0.824813 0.550417 0.572713 0.27843 0.771023 0.401015 0.688576 0.604194 
0.0742036 -0.629256 -0.773648 0.241719 -0.898623 -0.366128 0.54612 -0.83425 -0.076031 
0.0500732 -0.799656 -0.598367 0.673108 -0.659909 0.333834 0.59703 0.248757 0.762676 
-0.497584 0.863279 -0.0846129 -0.424258 0.905504 0.00817782 0.485967 0.495648 0.719839 
-0.394211 -0.314284 -0.863611 0.00340078 -0.618599 -0.785699 0.272289 -0.765289 -0.58326 
0.309757 -0.861504 -0.402321 0.679969 -0.72352 0.119 -0.6419 -0.0056491 -0.766768 
0.471147 0.432248 0.768884 -0.32095 0.944407 0.0713276 -0.101182 0.913583 0.393863 
-0.252947 -0.392402 -0.88433 -0.0570191 -0.55855 -0.827509 0.254014 -0.747376 -0.613927 
0.2306 -0.757132 -0.611208 0.559756 -0.785252 -0.264676 0.714698 -0.697873 0.0466768 