# vtk DataFile Version 4.2
vtk output
ASCII
DATASET POLYDATA
POINTS 1819 float
186.859 185.919 72.3749 187.365 186.691 72.3226 187.727 187.151 72.4137 
187.446 187.685 72.2988 185.591 185.018 72.8 185.957 185.021 72.7828 
185.704 187.804 72.3677 186.743 187.769 72.2828 188.209 188.015 72.6581 
184.128 183.981 73.5362 185.76 183.944 73.5443 186.31 184.16 73.5012 
186.281 184.9 72.9045 187.078 184.858 73.2342 188.298 187.148 72.7989 
184.389 186.71 72.7089 188.795 188.065 73.1198 183.156 183.256 74.1131 
185.64 183.631 73.7267 185.557 183.665 73.7009 185.753 183.678 73.778 
185.133 183.588 73.8209 187.505 185.152 73.3019 188.514 186.14 73.3955 
188.641 186.246 73.513 189.021 187.185 73.7219 189.314 188.644 73.8505 
189.135 189.694 73.6233 189.107 190.761 73.6945 189.319 190.211 73.9955 
188.363 191.278 73.1838 185.703 192.185 73.5415 187.139 194.405 74.3391 
187.858 195.12 74.7955 185.543 183.581 73.8233 185.603 183.466 74.1645 
180.983 184.205 74.2861 188.7 185.753 74.2913 188.686 185.635 74.4738 
188.815 186.134 74.1533 189.397 188.222 73.9684 189.452 188.16 74.0465 
189.367 187.97 74.0755 189.469 188.257 74.061 189.455 188.453 74.147 
188.846 192.08 73.8046 189.262 191.881 74.4103 185.429 194.3 74.7744 
188.833 193.787 74.4615 186.788 195.786 75.4864 187.024 196.003 75.7007 
188.208 195.311 75.0615 187.785 195.951 75.4617 178.363 181.672 75.9499 
183.044 182.307 75.2286 184.681 182.896 74.8926 185.548 183.185 75.0941 
187.888 184.527 74.6088 187.895 184.434 74.735 187.751 184.365 74.7728 
187.948 184.509 74.7672 188.083 184.756 74.7692 188.409 185.266 74.7593 
188.595 185.468 74.5629 188.771 185.955 74.7993 189.459 188.201 74.1254 
189.521 192.498 75.5934 189.313 193.524 75.2372 189.175 194.542 75.6169 
185.89 195.912 76.1368 188.422 195.717 75.4462 188.316 195.981 75.5443 
188.469 195.975 75.6659 188.163 196.244 75.8081 188.335 196.143 75.7357 
187.888 184.432 74.8003 176.796 183.594 76.096 187.857 184.513 74.9329 
189.541 190.939 75.2578 189.517 192.07 75.9889 181.362 192.408 75.9204 
189.606 192.678 76.0412 189.583 192.763 75.956 189.489 193.234 76.0713 
183.089 194.83 76.6318 189.301 194.586 76.0207 188.548 196.119 76.0865 
188.421 196.285 76.4392 188.72 196.003 76.3503 187.519 196.42 76.5595 
188.49 196.088 75.854 176.115 178.792 78.0344 177.634 186.714 75.9978 
177.273 188.437 76.737 189.147 190.595 76.7071 189.559 192.796 76.146 
182.297 195.24 77.8536 188.622 196.215 76.5983 188.732 196.096 76.7942 
186.039 196.511 77.5374 188.027 196.421 76.913 188.502 196.331 76.8271 
188.385 196.388 77.0632 188.609 196.284 76.9957 188.63 196.114 77.2135 
188.528 196.369 77.0059 184.143 182.596 77.2988 178.636 192.682 78.2045 
189.182 194.796 77.3516 189.142 195.028 77.3721 189.136 194.914 77.5004 
189.005 195.345 77.3516 185.121 196.519 78.3444 185.769 196.569 78.1141 
187.027 196.546 77.7212 187.633 196.459 77.5423 188.224 196.305 77.4328 
188.502 196.327 77.1422 188.477 196.054 77.6127 172.284 177.229 79.6808 
174.685 177.638 79.1241 177.96 178.402 79.0538 177.799 178.661 78.4264 
180.529 179.866 78.8338 180.336 179.689 78.9611 180.375 179.828 78.3369 
180.959 180.342 78.844 175.299 190.684 79.1618 188.318 192.043 78.3987 
188.622 194.419 78.3889 181.915 195.672 79.4354 172.543 176.363 80.5838 
176.954 177.765 79.9951 175.813 177.667 79.3269 178.733 178.689 79.3813 
179.671 179.262 79.4297 178.672 178.879 78.5287 180.11 179.557 79.1803 
187.225 192.726 79.6699 182.117 195.796 80.1663 188.089 195.559 78.6539 
183.49 196.289 79.6168 185.237 196.526 79.1786 167.274 175.904 81.8327 
168.34 175.301 81.8891 172.42 175.873 81.3666 177.472 177.993 79.9877 
166.98 177.107 81.4864 180.619 180.526 79.8975 180.72 181.49 80.6388 
186.982 194.116 79.9427 181.9 195.603 80.6804 186.615 195.216 79.9975 
187.169 195.724 79.3511 184.436 196.383 79.8712 184.986 196.419 79.6542 
186.759 196.198 79.0883 166.583 174.45 82.9717 167.939 174.462 82.7074 
175.316 176.908 81.3517 178.296 178.6 80.4827 179.65 194.755 81.9681 
185.422 194.75 80.8302 184.04 196.099 80.5958 186.816 195.888 79.4648 
184.251 196.259 80.2751 164.846 173.869 83.8886 168.559 174.061 83.2504 
171.328 174.978 82.8811 178.571 183.175 83.2702 172.107 192.472 83.6216 
183.201 195.387 81.3045 184.086 195.798 80.8401 183.83 195.877 80.9395 
185.475 195.477 80.4894 183.776 195.945 80.8469 184.796 196.006 80.3859 
162.411 173.903 84.6568 169.272 173.827 84.1517 175.227 177.349 82.6702 
172.713 193.081 84.8292 183.724 195.876 80.9729 162.425 171.662 86.2826 
164.043 171.91 85.8193 160.534 172.542 86.0743 171.282 174.902 84.3353 
172.76 176.388 84.6152 164.748 187.947 85.1671 179.148 191.315 84.7348 
171.563 192.864 85.7289 174.837 193.568 84.6887 160.554 171.43 86.8739 
162.299 171.066 86.914 176.628 189.36 86.2938 178.851 192.562 84.7131 
178.934 192.939 84.4897 171.366 192.868 86.4097 172.896 193.124 85.8095 
176.927 193.612 84.7057 157.957 170.408 88.2329 160.404 170.296 87.9024 
167.34 172.321 86.8679 157.569 174.751 87.0114 161.346 186.117 86.9294 
175.452 190.195 87.1388 176.261 191.488 86.5141 177.451 191.375 85.7735 
177.975 192.089 85.3122 170.629 192.757 87.1637 178.391 192.644 84.9019 
172.615 192.992 86.4361 174.084 193.151 85.9355 175.568 193.131 85.6864 
177.105 193.236 85.0707 158.613 169.231 89.0341 156.721 170.619 88.5193 
163.05 170.521 87.6706 167.524 172.379 87.1514 167.424 172.291 87.2997 
164.865 171.099 87.4744 166.68 171.945 87.5872 167.786 172.725 87.4449 
160.338 186.874 88.2827 163.197 189.864 88.6712 164.281 190.617 89.0831 
175.281 191.375 87.0807 176.073 192.299 86.273 170.742 192.601 87.8277 
175.21 192.697 86.3237 173.064 192.88 86.7421 157.305 168.914 89.3596 
160.112 169.382 88.8833 162.263 169.752 88.8411 163.042 170.072 88.5383 
165.733 171.315 88.4449 166.035 171.519 88.4275 159.779 187.39 89.2457 
174.295 191.903 87.3812 171.582 192.582 87.7813 174.663 192.361 86.8629 
173.557 192.663 86.9873 162.222 169.377 90.1289 163.389 169.992 89.4359 
161.234 169.133 89.7171 166.469 172.079 88.7728 168.073 175.156 89.3232 
167.53 175.477 90.03 170.236 192.095 88.9145 173.634 192.297 87.4024 
156.687 167.153 91.4474 151.597 168.767 91.7229 159.034 167.958 90.8539 
163.278 169.931 90.3248 159.195 188.518 91.5755 160.618 168.294 91.9862 
163.691 170.438 90.8447 163.751 171.165 91.6503 156.684 187.075 92.2573 
170.152 188.415 90.9349 169.562 189.68 91.0911 159.779 189.224 92.8064 
159.743 189.16 92.5608 160.498 189.395 92.3461 159.88 189.271 92.6564 
163.945 190.441 91.7887 169.986 191.643 89.6792 156.788 166.154 92.908 
161.178 168.729 92.067 162.801 171.153 92.8662 165.066 179.55 93.5055 
167.711 186.595 92.7794 168.386 187.93 92.2312 157.598 188.23 93.6364 
163.892 190.036 92.825 167.915 189.82 91.9359 157.713 166.212 93.5255 
158.484 166.574 94.0107 167.28 187.734 93.0515 158.866 188.827 94.0215 
169.184 190.948 90.6716 146.623 166.339 95.5397 147.251 168.452 94.7105 
150.868 184.363 95.6168 165.621 188.607 93.8535 158.246 188.517 95.1175 
164.672 189.548 93.4561 154.131 163.342 96.301 157.222 165.354 95.5591 
157.167 165.246 95.691 157.044 165.169 95.7092 156.638 164.966 95.8122 
158.472 166.655 94.9639 146.581 172.931 95.505 163.815 184.598 95.7877 
158.408 188.337 96.1522 153.71 187.24 97.0238 160.84 188.969 94.9052 
162.689 188.76 94.9379 162.96 189.055 94.4757 163.703 189.101 94.2272 
146.823 162.611 97.2282 153.017 162.405 97.334 155.184 163.644 97.3372 
155.864 164.317 96.2239 156.018 164.36 96.8982 157.074 165.204 95.772 
157.179 165.402 95.9234 163.362 186.644 95.9233 152.014 186.522 97.567 
154.188 187.261 98.0433 163.552 187.715 95.3867 152.936 186.973 97.5413 
160.168 188.355 96.0705 161.57 188.828 95.1159 161.954 188.263 95.6982 
162.641 188.338 95.3718 155.241 163.713 97.8379 156.482 165.02 97.1795 
153.244 187.068 98.1003 162.25 187.338 96.2771 155.589 164.267 98.2433 
160.032 182.205 99.0478 161.481 186.502 97.2599 151.247 160.867 99.8889 
151.566 160.927 100.385 148.862 160.591 99.2651 154.737 163.553 98.9602 
160.238 185.92 98.4025 159.128 187.072 98.1324 142.709 159.82 101.544 
147.102 159.208 101.476 150.573 160.3 101.081 151.033 160.549 101.158 
151.913 161.152 100.56 144.165 159.721 101.115 140.254 166.961 100.835 
144.408 182.634 101.302 159.44 183.957 99.6322 159.244 184.483 99.6952 
145.998 184.362 101.855 159.202 185.455 99.3492 153.166 186.501 100.585 
159.87 186.625 98.1986 150.024 159.96 101.607 140.027 159.512 103 
145.326 159.242 101.468 149.173 159.545 101.693 151.303 160.78 101.544 
157.893 183.356 101.153 145.191 183.819 101.855 145.233 184.166 102.574 
149.591 185.646 102.344 158.665 185.298 99.8055 153.695 186.163 101.371 
154.344 185.827 101.786 158.069 185.758 99.8752 147.807 158.786 102.885 
138.305 159.671 103.769 137.671 166.329 103.224 144.799 183.979 102.837 
147.143 184.935 103.655 150.787 185.775 102.462 152.655 185.799 102.387 
137 158.442 105.122 148.626 159.061 103.534 149.369 159.6 103.54 
150.972 161.103 103.138 145.226 184.343 103.695 146.406 157.893 104.301 
148.146 158.755 104.69 135.577 158.773 105.827 139.736 178.724 104.359 
140.068 179.978 104.857 140.649 181.097 105.314 145.786 157.237 105.847 
143.919 156.662 105.735 139.131 180.06 106.23 154.304 183.978 104.199 
143.531 156.062 106.8 144.316 156.377 106.679 146.177 157.421 105.894 
146.843 158.039 106.857 147.604 158.59 106.056 147.701 159.244 106.925 
148.509 161.525 107.381 133.571 163.403 106.981 140.274 181.64 107.439 
144.265 183.673 105.933 145.3 183.686 106.702 132.378 155.096 108.873 
139.903 154.724 107.808 145.148 156.695 107.214 145.654 157.119 107.894 
132.878 160.317 107.529 134.688 169.942 106.999 137.054 178.481 107.68 
137.058 179.019 108.203 133.863 153.588 109.265 136.305 153.95 108.631 
142.896 155.075 108.823 144.533 156.241 108.977 145.484 157.411 108.935 
137.274 179.755 109.036 138.32 180.513 108.741 140.49 181.772 108.657 
[...]
POINT_DATA 1819
SCALARS scalars float
LOOKUP_TABLE default
1 1 1 1 1 1 1 1 1 
1 1 1 1 1 1 1 1 1 
1 1 1 1 1 1 1 1 1 
1 1 1 1 1 1 1 1 1 
1 1 1 1 1 1 1 1 1 
1 1 1 1 1 1 1 1 1 
1 1 1 1 1 1 1 1 1 
1 1 1 1 1 1 1 1 1 
1 1 1 1 1 1 1 1 1 
1 1 1 1 1 1 1 1 1 
1 1 1 1 1 1 1 1 1 
1 1 1 1 1 1 1 1 1 
1 1 1 1 1 1 1 1 1 
1 1 1 1 1 1 1 1 1 
1 1 1 1 1 1 1 1 1 
1 1 1 1 1 1 1 1 1 
1 1 1 1 1 1 1 1 1 
1 1 1 1 1 1 1 1 1 
1 1 1 1 1 1 1 1 1 
1 1 1 1 1 1 1 1 1 
1 1 1 1 1 1 1 1 1 
1 1 1 1 1 1 1 1 1 
1 1 1 1 1 1 1 1 1 
1 1 1 1 1 1 1 1 1 
1 1 1 1 1 1 1 1 1 
1 1 1 1 1 1 1 1 1 
1 1 1 1 1 1 1 1 1 
1 1 1 1 1 1 1 1 1 
1 1 1 1 1 1 1 1 1 
1 1 1 1 1 1 1 1 1 
1 1 1 1 1 1 1 1 1 
1 1 1 1 1 1 1 1 1 
1 1 1 1 1 1 1 1 1 
1 1 1 1 1 1 1 1 1 
1 1 1 1 1 1 1 1 1 
1 1 1 1 1 1 1 1 1 
1 1 1 1 1 1 1 1 1 
1 1 1 1 1 1 1 1 1 
1 1 1 1 1 1 1 1 1 
1 1 1 1 1 1 1 1 1 
1 1 1 1 1 1 1 1 1 
1 1 1 1 1 1 1 1 1 
1 1 1 1 1 1 1 1 1 
1 1 1 1 1 1 1 1 1 
1 1 1 1 1 1 1 1 1 
1 1 1 1 1 1 1 1 1 
1 1 1 1 1 1 1 1 1 
1 1 1 1 1 1 1 1 1 
1 1 1 1 1 1 1 1 1 
1 1 1 1 1 1 1 1 1 
1 1 1 1 1 1 1 1 1 
1 1 1 1 1 1 1 1 1 
1 1 1 1 1 1 1 1 1 
1 1 1 1 1 1 1 1 1 
1 1 1 1 1 1 1 1 1 
1 1 1 1 1 1 1 1 1 
1 1 1 1 1 1 1 1 1 
1 1 1 1 1 1 1 1 1 
1 1 1 1 1 1 1 1 1 
1 1 1 1 1 1 1 1 1 
1 1 1 1 1 1 1 1 1 
1 1 1 1 1 1 1 1 1 
1 1 1 1 1 1 1 1 1 
1 1 1 1 1 1 1 1 1 
1 1 1 1 1 1 1 1 1 
1 1 1 1 1 1 1 1 1 
1 1 1 1 1 1 1 1 1 
1 1 1 1 1 1 1 1 1 
1 1 1 1 1 1 1 1 1 
1 1 1 1 1 1 1 1 1 
1 1 1 1 1 1 1 1 1 
1 1 1 1 1 1 1 1 1 
1 1 1 1 1 1 1 1 1 
1 1 1 1 1 1 1 1 1 
1 1 1 1 1 1 1 1 1 
1 1 1 1 1 1 1 1 1 
1 1 1 1 1 1 1 1 1 
1 1 1 1 1 1 1 1 1 
1 1 1 1 1 1 1 1 1 
1 1 1 1 1 1 1 1 1 
1 1 1 1 1 1 1 1 1 
1 1 1 1 1 1 1 1 1 
1 1 1 1 1 1 1 1 1 
1 1 1 1 1 1 1 1 1 
1 1 1 1 1 1 1 1 1 
1 1 1 1 1 1 1 1 1 
1 1 1 1 1 1 1 1 1 
1 1 1 1 1 1 1 1 1 
1 1 1 1 1 1 1 1 1 
1 1 1 1 1 1 1 1 1 
1 1 1 1 1 1 1 1 1 
1 1 1 1 1 1 1 1 1 
1 1 1 1 1 1 1 1 1 
1 1 1 1 1 1 1 1 1 
1 1 1 1 1 1 1 1 1 
1 1 1 1 1 1 1 1 1 
1 1 1 1 1 1 1 1 1 
1 1 1 1 1 1 1 1 1 
1 1 1 1 1 1 1 1 1 
1 1 1 1 1 1 1 1 1 
1 1 1 1 1 1 1 1 1 
1 1 1 1 1 1 1 1 1 
1 1 1 1 1 1 1 1 1 
1 1 1 1 1 1 1 1 1 
1 1 1 1 1 1 1 1 1 
1 1 1 1 1 1 1 1 1 
1 1 1 1 1 1 1 1 1 
1 1 1 1 1 1 1 1 1 
1 1 1 1 1 1 1 1 1 
1 1 1 1 1 1 1 1 1 
1 1 1 1 1 1 1 1 1 
1 1 1 1 1 1 1 1 1 
1 1 1 1 1 1 1 1 1 
1 1 1 1 1 1 1 1 1 
1 1 1 1 1 1 1 1 1 
1 1 1 1 1 1 1 1 1 
1 1 1 1 1 1 1 1 1 
1 1 1 1 1 1 1 1 1 
1 1 1 1 1 1 1 1 1 
1 1 1 1 1 1 1 1 1 
1 1 1 1 1 1 1 1 1 
1 1 1 1 1 1 1 1 1 
1 1 1 1 1 1 1 1 1 
1 1 1 1 1 1 1 1 1 
1 1 1 1 1 1 1 1 1 
1 1 1 1 1 1 1 1 1 
1 1 1 1 1 1 1 1 1 
1 1 1 1 1 1 1 1 1 
1 1 1 1 1 1 1 1 1 
1 1 1 1 1 1 1 1 1 
1 1 1 1 1 1 1 1 1 
1 1 1 1 1 1 1 1 1 
1 1 1 1 1 1 1 1 1 
1 1 1 1 1 1 1 1 1 
1 1 1 1 1 1 1 1 1 
1 1 1 1 1 1 1 1 1 
1 1 1 1 1 1 1 1 1 
1 1 1 1 1 1 1 1 1 
1 1 1 1 1 1 1 1 1 
1 1 1 1 1 1 1 1 1 
1 1 1 1 1 1 1 1 1 
1 1 1 1 1 1 1 1 1 
1 1 1 1 1 1 1 1 1 
1 1 1 1 1 1 1 1 1 
1 1 1 1 1 1 1 1 1 
1 1 1 1 1 1 1 1 1 
1 1 1 1 1 1 1 1 1 
1 1 1 1 1 1 1 1 1 
1 1 1 1 1 1 1 1 1 
1 1 1 1 1 1 1 1 1 
1 1 1 1 1 1 1 1 1 
1 1 1 1 1 1 1 1 1 
1 1 1 1 1 1 1 1 1 
1 1 1 1 1 1 1 1 1 
1 1 1 1 1 1 1 1 1 
1 1 1 1 1 1 1 1 1 
1 1 1 1 1 1 1 1 1 
1 1 1 1 1 1 1 1 1 
1 1 1 1 1 1 1 1 1 
1 1 1 1 1 1 1 1 1 
1 1 1 1 1 1 1 1 1 
1 1 1 1 1 1 1 1 1 
1 1 1 1 1 1 1 1 1 
1 1 1 1 1 1 1 1 1 
1 1 1 1 1 1 1 1 1 
1 1 1 1 1 1 1 1 1 
1 1 1 1 1 1 1 1 1 
1 1 1 1 1 1 1 1 1 
1 1 1 1 1 1 1 1 1 
1 1 1 1 1 1 1 1 1 
1 1 1 1 1 1 1 1 1 
1 1 1 1 1 1 1 1 1 
1 1 1 1 1 1 1 1 1 
1 1 1 1 1 1 1 1 1 
1 1 1 1 1 1 1 1 1 
1 1 1 1 1 1 1 1 1 
1 1 1 1 1 1 1 1 1 
1 1 1 1 1 1 1 1 1 
1 1 1 1 1 1 1 1 1 
1 1 1 1 1 1 1 1 1 
1 1 1 1 1 1 1 1 1 
1 1 1 1 1 1 1 1 1 
1 1 1 1 1 1 1 1 1 
1 1 1 1 1 1 1 1 1 
1 1 1 1 1 1 1 1 1 
1 1 1 1 1 1 1 1 1 
1 1 1 1 1 1 1 1 1 
1 1 1 1 1 1 1 1 1 
1 1 1 1 1 1 1 1 1 
1 1 1 1 1 1 1 1 1 
1 1 1 1 1 1 1 1 1 
1 1 1 1 1 1 1 1 1 
1 1 1 1 1 1 1 1 1 
1 1 1 1 1 1 1 1 1 
1 1 1 1 1 1 1 1 1 
1 1 1 1 1 1 1 1 1 
1 1 1 1 1 1 1 1 1 
1 1 1 1 1 1 1 1 1 
1 1 1 1 1 1 1 1 1 
1 1 1 1 1 1 1 1 1 
1 1 1 1 1 1 1 1 1 
1 1 1 1 1 1 1 1 1 
1 
NORMALS Normals float
0.18382 -0.353361 -0.917249 0.243313 -0.158383 -0.956929 0.330595 -0.0787825 -0.940479 
0.299348 0.0341418 -0.953533 -0.0355426 -0.490952 -0.870461 -0.0384404 -0.412661 -0.910073 
-0.142404 0.0931528 -0.985415 0.0127544 0.0550424 -0.998402 0.613138 0.0275189 -0.789496 
-0.0974001 -0.521701 -0.84755 0.105934 -0.563337 -0.819408 0.371929 -0.747414 -0.550492 
0.187806 -0.575006 -0.796302 0.434109 -0.599634 -0.672301 0.622314 -0.212568 -0.753352 
-0.30383 -0.0350293 -0.952082 0.750099 -0.0396883 -0.660133 0.0383036 -0.690986 -0.721852 
0.231033 -0.776925 -0.585671 -0.0770709 -0.654565 -0.752067 0.429467 -0.800047 -0.418906 
0.0348601 -0.806725 -0.589898 0.496432 -0.507752 -0.704091 0.725647 -0.504302 -0.468098 
0.820917 -0.324001 -0.470233 0.871778 -0.22452 -0.435424 0.761232 0.048246 -0.646682 
0.842344 -0.0126329 -0.538792 0.833786 0.132392 -0.535978 0.964423 -0.0365658 -0.261824 
0.262195 0.263164 -0.928439 -0.26524 0.342263 -0.90139 0.0860529 0.433786 -0.896897 
0.174787 0.503596 -0.846074 0.117103 -0.913168 -0.3904 0.300676 -0.909451 -0.287217 
-0.318707 -0.135065 -0.938181 0.869611 -0.432993 -0.237261 0.921824 -0.362337 0.137665 
0.914075 -0.35594 -0.194355 0.625081 -0.0816925 -0.776273 0.904346 -0.272057 -0.328851 
0.802608 -0.344392 -0.487047 0.952226 0.0312904 -0.303788 0.948871 0.118829 -0.292445 
0.764711 0.268912 -0.58558 0.940577 0.140559 -0.309126 -0.292499 0.526933 -0.797989 
0.656506 0.319119 -0.683493 -0.310241 0.770146 -0.557338 -0.228967 0.788622 -0.570657 
0.534124 0.349728 -0.769677 0.0154163 0.650499 -0.759351 -0.220868 -0.41749 -0.88143 
0.0995491 -0.792871 -0.601204 0.354636 -0.89111 -0.283117 0.367473 -0.90734 -0.204201 
0.624847 -0.644486 -0.440686 0.62559 -0.744332 -0.233683 0.445278 -0.893693 -0.055139 
0.864109 -0.500672 0.0514131 0.838413 -0.527563 0.1369 0.783305 -0.364013 0.503913 
0.834418 -0.548324 -0.0555542 0.903265 -0.341813 0.259376 0.98201 -0.174357 0.0724937 
0.950083 0.0991073 -0.295838 0.93429 0.151988 -0.322493 0.830533 0.383426 -0.403979 
-0.331339 0.770026 -0.545228 0.435165 0.479071 -0.762314 0.290081 0.617377 -0.73123 
0.783808 0.431368 -0.446729 0.183205 0.910398 -0.370961 0.437607 0.757601 -0.484295 
0.617021 -0.729838 0.294316 -0.496114 0.00402659 -0.868248 0.665091 -0.579053 0.471541 
0.99301 0.00140657 -0.118018 0.990198 -0.0774578 0.116226 -0.497461 0.426053 -0.755653 
0.991129 0.00129511 0.132894 0.97308 0.206845 -0.101638 0.991345 0.113787 0.0654862 
-0.441391 0.621782 -0.646963 0.930778 0.342757 -0.127162 0.692496 0.678614 -0.244809 
0.424202 0.880762 -0.210501 0.846137 0.473205 -0.245211 -0.161794 0.967156 -0.196039 
0.635006 0.71272 -0.29799 0.0578987 -0.648199 -0.759267 -0.368739 0.2525 -0.894581 
-0.515531 0.286972 -0.807388 0.836779 -0.249816 0.487231 0.940093 0.167423 0.296976 
-0.407956 0.803048 -0.43438 0.661347 0.727656 -0.182035 0.913535 0.404515 0.0426727 
-0.138665 0.962324 -0.233892 0.128355 0.99078 -0.0433706 0.436633 0.882301 -0.175777 
0.149463 0.983451 0.102397 0.778958 0.620833 0.0882635 0.828002 0.394187 0.398784 
0.466166 0.883009 0.0546302 0.565969 -0.800839 0.195793 -0.459968 0.523688 -0.717064 
0.995397 0.0803062 0.0523121 0.950141 0.288729 -0.117763 0.872756 0.232523 0.429221 
0.918381 0.391 -0.0607813 -0.201885 0.97188 -0.121208 -0.230424 0.932604 -0.277767 
0.168902 0.968085 0.18516 0.173669 0.970621 0.166538 0.342453 0.859107 0.380344 
0.529825 0.745442 0.404476 0.625866 0.606354 0.490537 -0.103378 -0.700723 -0.705903 
-0.0790258 -0.693668 -0.715946 0.407911 -0.888468 -0.210319 0.243875 -0.812141 -0.530049 
0.736991 -0.665116 0.120268 0.625987 -0.777272 0.0631587 0.462869 -0.860167 -0.214159 
0.738448 -0.632691 0.233232 -0.556888 0.492658 -0.668703 0.832264 -0.114274 0.542474 
0.786876 0.0575648 0.614421 -0.451371 0.871266 -0.192767 0.0353502 -0.78668 -0.616348 
0.325311 -0.9195 -0.220663 0.190668 -0.879619 -0.435794 0.447153 -0.884443 -0.133476 
0.495169 -0.86874 0.00993694 0.314464 -0.79861 -0.51316 0.654723 -0.708444 0.263523 
0.587952 -0.21169 0.780705 -0.351058 0.924738 0.147032 0.69185 0.378133 0.615109 
-0.2751 0.958191 0.0786723 0.881504 -0.189823 0.432339 -0.281788 -0.463303 -0.840206 
-0.162039 -0.515876 -0.841199 0.086371 -0.871679 -0.482406 0.476124 -0.877159 0.0624254 
-0.370567 -0.280764 -0.885354 0.656667 -0.549988 0.516044 0.647634 -0.42176 0.634577 
0.568426 0.097727 0.81691 -0.336924 0.926607 0.16698 0.397885 0.447565 0.800858 
0.561791 0.498514 0.660208 -0.0968079 0.970409 0.221212 0.131923 0.940385 0.313486 
0.238181 0.812738 0.53172 -0.266708 -0.559882 -0.784474 -0.106283 -0.6988 -0.707378 
0.380829 -0.904497 -0.191976 0.549318 -0.788685 0.276091 -0.178664 0.944355 0.276177 
0.453139 0.16578 0.875889 -0.0635074 0.898222 0.434929 0.166253 0.684784 0.709529 
0.103332 0.870606 0.481006 -0.309236 -0.232391 -0.922154 0.104718 -0.840354 -0.531826 
0.399841 -0.90545 -0.142434 0.626317 -0.273265 0.730105 -0.469419 0.817625 -0.33337 
0.215723 0.550679 0.80636 0.372007 0.484598 0.791692 0.345492 0.582186 0.735999 
0.409181 0.383517 0.82794 0.0586711 0.87314 0.483926 0.340482 0.68955 0.639213 
-0.287209 -0.312233 -0.90555 0.43447 -0.899874 0.0382537 0.537874 -0.806778 0.244542 
-0.23161 0.970681 -0.0642987 -0.00599883 0.749597 0.661867 -0.0816743 -0.712628 -0.696771 
-0.0134537 -0.770941 -0.636764 -0.320307 -0.531692 -0.784033 0.480386 -0.779852 0.401323 
0.599419 -0.618975 0.507511 -0.519106 0.529116 -0.671241 0.560164 0.0597982 0.826221 
-0.452744 0.878588 -0.152009 -0.128006 0.98079 0.147195 -0.315575 -0.552723 -0.771304 
-0.0393852 -0.743279 -0.667821 0.585384 -0.0501457 0.809204 0.540209 0.24097 0.806292 
0.426458 0.414107 0.804145 -0.286829 0.956023 0.0612364 -0.0122109 0.985708 0.16802 
0.156706 0.788087 0.595283 -0.210715 -0.505785 -0.836529 -0.0400935 -0.762226 -0.646069 
0.464603 -0.839156 -0.282775 -0.515385 -0.0366366 -0.856175 -0.506231 0.480927 -0.715849 
0.522075 0.105595 0.846337 0.44251 0.235802 0.865207 0.583232 0.110575 0.804745 
0.51362 0.216634 0.830219 -0.365951 0.925996 0.0927974 0.400169 0.417002 0.816072 
-0.131862 0.979358 0.153202 0.0423908 0.919906 0.389841 0.160451 0.813248 0.559359 
0.327579 0.60155 0.728581 -0.0672351 -0.678181 -0.731813 -0.290055 -0.432314 -0.853799 
0.0712256 -0.839982 -0.537918 0.758157 -0.620984 -0.198939 0.571659 -0.813449 0.107267 
0.300406 -0.868062 -0.395253 0.530196 -0.840583 0.110966 0.709854 -0.693986 0.12038 
-0.540696 0.520964 -0.660489 -0.485604 0.762235 -0.428003 -0.41735 0.848241 -0.326047 
0.48232 0.276652 0.831162 0.349323 0.506204 0.788499 -0.0186534 0.954431 0.297847 
0.282213 0.603804 0.745504 0.0750782 0.921979 0.379893 -0.113763 -0.668822 -0.734667 
-0.0358026 -0.731811 -0.680567 0.252716 -0.91088 -0.326238 0.193381 -0.898845 -0.393296 
0.564123 -0.818286 0.110329 0.574336 -0.815102 0.0758096 -0.452105 0.697262 -0.556261 
0.411203 0.46287 0.78528 0.127384 0.890491 0.436806 0.325472 0.646694 0.689822 
0.213139 0.822823 0.526814 0.422361 -0.90625 -0.0179473 0.458696 -0.886781 -0.0567253 
0.264407 -0.886433 -0.379901 0.652653 -0.622349 0.432117 0.687267 -0.34584 0.638795 
0.691958 -0.301969 0.65575 -0.257516 0.892346 0.370681 0.275865 0.710845 0.646991 
0.131365 -0.800153 -0.585234 -0.48206 -0.250899 -0.839445 0.281699 -0.837728 -0.467823 
0.477069 -0.875209 0.0800905 -0.568768 0.762141 -0.309263 0.618139 -0.783771 0.0600625 
0.620492 -0.71569 0.320589 0.695657 -0.477516 0.536693 -0.53141 0.734897 -0.421344 
0.603993 0.0767264 0.793288 0.528792 0.21744 0.820426 -0.383943 0.923238 0.0148243 
-0.498312 0.841206 -0.209899 -0.310439 0.935386 -0.169355 -0.360147 0.927385 -0.101247 
-0.113477 0.991042 0.0704196 -0.243163 0.852276 0.463139 0.323087 -0.836164 -0.443221 
0.526764 -0.843828 0.102346 0.635616 -0.480461 0.604276 0.727544 -0.224942 0.648137 
0.627084 -0.00652393 0.778924 0.626592 0.0175623 0.77915 -0.461187 0.877634 -0.130633 
0.0870379 0.880056 0.466825 0.50745 0.251597 0.824132 0.424921 -0.859213 -0.284949 
0.51016 -0.853616 -0.105244 0.574583 0.112544 0.810672 -0.373984 0.917192 -0.137457 
0.209254 0.691568 0.691336 -0.510414 -0.297372 -0.806875 -0.473966 -0.17942 -0.86207 
-0.656145 0.378483 -0.652859 0.440699 0.344882 0.828759 -0.300844 0.932142 0.201503 
0.189624 0.784244 0.590765 0.236502 -0.846348 -0.477245 0.464832 -0.816227 -0.34308 
0.644298 -0.7643 0.0269347 0.451747 -0.872441 -0.186471 0.526543 -0.849934 -0.0190942 
0.724834 -0.659444 0.199371 -0.674571 0.0947343 -0.732107 0.608051 0.0455506 0.79259 
-0.257225 0.940859 0.220499 -0.396392 0.899986 -0.181382 -0.0236182 0.911094 0.411521 
0.19968 0.798602 0.567771 0.240927 0.771997 0.588197 0.167726 0.773484 0.611221 
-0.237748 -0.558785 -0.794504 0.173897 -0.807817 -0.563198 0.609943 -0.790429 -0.0564911 
0.600162 -0.792137 -0.111014 0.655455 -0.755019 0.0180261 0.532755 -0.760615 0.370994 
0.659169 -0.669584 0.342275 0.498277 0.263378 0.826046 -0.457187 0.8738 -0.165692 
-0.106432 0.967245 0.230455 0.446343 0.442496 0.777801 -0.338916 0.940694 -0.0151982 
0.016451 0.871066 0.49089 0.0995493 0.799646 0.592162 0.187747 0.689056 0.699967 
0.332785 0.602857 0.725133 0.701468 -0.705862 0.0984933 0.780155 -0.591829 0.202723 
-0.326643 0.938765 0.109656 0.496663 0.312935 0.809566 0.752044 -0.615364 0.23613 
0.729986 0.0354593 0.682542 0.488717 0.477432 0.730216 0.441651 -0.869086 -0.222786 
0.556255 -0.824247 -0.10582 0.00773842 -0.783167 -0.621764 0.72464 -0.623858 0.292742 
0.478028 0.322324 0.817066 0.195467 0.686466 0.700398 -0.242696 -0.669237 -0.702297 
0.135645 -0.852578 -0.50469 0.406095 -0.907529 -0.107135 0.495447 -0.868595 -0.00864172 
0.667717 -0.744415 0.000965732 -0.218371 -0.694691 -0.68536 -0.734221 0.114865 -0.669123 
-0.635738 0.517181 -0.573028 0.676444 0.131133 0.724726 0.514029 0.155703 0.843523 
-0.466674 0.848581 -0.249252 0.639375 0.363697 0.67744 -0.0432313 0.967474 0.249249 
0.337337 0.526402 0.780452 0.421197 -0.872877 -0.24633 -0.449525 -0.345721 -0.823653 
-0.103204 -0.837413 -0.536738 0.344431 -0.875954 -0.337745 0.603903 -0.786892 0.126895 
0.624827 0.211388 0.751602 -0.529255 0.761632 -0.373907 -0.361063 0.896305 -0.257431 
-0.188279 0.982071 0.00935135 0.443736 0.286688 0.849063 0.184523 0.883916 0.429702 
0.206256 0.862104 0.462856 0.384003 0.577612 0.720351 0.382664 -0.895936 -0.225538 
-0.494958 -0.266117 -0.827162 -0.639587 -0.0245174 -0.768328 -0.502934 0.837562 -0.213416 
-0.287287 0.957647 0.0194797 -0.0413725 0.972735 0.228202 0.0786346 0.940538 0.330462 
-0.534714 -0.119153 -0.83659 0.68402 -0.729442 -0.00556669 0.582688 -0.812218 0.0278663 
0.782319 -0.49581 0.377027 -0.349468 0.936291 0.0350988 0.107481 -0.917693 -0.382476 
0.637078 -0.769278 0.0484067 -0.445514 -0.171293 -0.878735 -0.655243 0.330133 -0.679463 
-0.570622 0.560356 -0.600326 -0.623263 0.355322 -0.696627 0.384839 -0.918961 -0.0860802 
0.263831 -0.854016 -0.448385 -0.737234 0.497899 -0.456709 0.328007 0.68021 0.655535 
0.281746 -0.873157 -0.397764 0.417562 -0.859952 -0.29347 0.483366 -0.875414 0.00297696 
0.657971 -0.675847 0.332122 0.793234 -0.544609 0.27236 0.739734 -0.444116 0.505524 
0.782945 -0.345846 0.517096 -0.731977 0.0304582 -0.680648 -0.60709 0.766342 -0.210146 
-0.274645 0.930959 0.240595 -0.0937999 0.922292 0.374938 -0.715247 -0.0799879 -0.694279 
0.0186796 -0.586873 -0.809463 0.417321 -0.900668 -0.120994 0.596703 -0.788039 0.151458 
-0.80225 0.125452 -0.583658 -0.840207 0.194688 -0.506112 -0.735818 0.351537 -0.578786 
-0.686202 0.584828 -0.432555 -0.19419 -0.516179 -0.834176 -0.035168 -0.587702 -0.808313 
0.468671 -0.862892 -0.189116 0.631125 -0.773791 0.0541246 0.719695 -0.611844 0.328156 
-0.603003 0.768008 -0.215756 -0.57911 0.771619 -0.263126 -0.30566 0.94258 0.134592 
-0.223711 0.938946 0.261407 -0.166841 0.853123 0.494313 -0.534587 0.840457 -0.0885923 
0.34025 -0.775777 -0.531414 0.356425 -0.787759 -0.502392 -0.729903 0.38217 -0.566734 
-0.513867 0.844 -0.153637 -0.0752209 0.936641 0.342119 -0.0996839 0.821072 0.562053 
0.572879 -0.731377 -0.369997 0.743111 -0.582643 0.329109 -0.708076 0.690543 -0.147574 
-0.604036 0.786857 -0.126474 -0.37796 0.924135 0.0558692 -0.305357 0.938454 0.161436 
-0.349642 0.926254 0.140723 0.162656 0.72538 0.668855 0.667045 0.22359 0.710675 
0.606806 -0.774729 -0.177712 -0.756774 0.364379 -0.542697 -0.778944 0.559669 -0.282871 
-0.132648 0.918398 0.37276 -0.639058 0.766663 0.0619107 -0.285318 -0.421104 -0.860967 
0.734664 -0.678359 -0.00984425 0.810552 -0.188272 0.55458 0.689886 0.289665 0.663439 
-0.69871 0.714469 -0.0365915 -0.014067 0.816478 0.577205 0.816282 0.026027 0.577067 
-0.452456 0.847681 0.276984 -0.218869 0.848092 0.48253 -0.552487 0.826386 0.108834 
0.529973 -0.711756 -0.461011 0.281388 -0.702268 -0.653942 0.722747 -0.686713 -0.0778592 
0.579441 -0.731523 -0.359335 -0.969694 0.171827 0.173694 0.819507 -0.559544 0.123769 
0.564065 -0.750484 -0.344391 0.774409 -0.58295 0.245886 0.742113 -0.521276 0.421354 
0.750703 -0.388877 0.534059 -0.736151 0.151565 -0.659629 -0.562036 0.81614 0.134275 
0.355599 0.581163 0.731983 -0.0420404 -0.581282 -0.812615 0.403152 -0.743797 -0.533137 
0.624843 -0.761826 -0.170856 0.523169 -0.708005 -0.474367 0.46778 -0.626365 -0.623578 
0.812077 -0.312903 0.492567 0.753624 -0.473248 -0.456166 0.499588 0.826463 0.259558 
0.894472 -0.444643 0.0470379 0.288124 -0.080459 0.954207 0.248899 -0.831447 0.496734 
0.746283 -0.49177 0.44858 0.807604 -0.0431542 0.588145 0.840305 -0.0980998 0.533164 
-0.710544 0.696322 -0.101308 0.203965 0.609339 0.766227 -0.0386996 0.805822 0.590892 
0.4973 0.341726 0.797444 0.553294 -0.770901 -0.315558 0.619117 -0.742534 -0.25561 
-0.518306 -0.129171 -0.845384 0.667964 -0.743562 0.0306528 0.847716 -0.448711 0.282907 
0.837799 -0.356132 0.41384 -0.740987 0.65631 0.142109 -0.299883 -0.460622 -0.835402 
-0.392643 -0.162173 -0.90528 0.101163 -0.68687 -0.719705 0.69261 -0.706585 -0.145012 
0.746843 -0.609446 0.266084 0.781074 -0.535488 0.32121 0.754498 -0.208442 0.622322 
-0.758637 0.620912 -0.197325 -0.566712 0.800205 0.196238 -0.26487 0.727461 0.632964 
-0.0395305 0.728908 0.683469 -0.51922 0.808715 0.276387 -0.37227 0.803583 0.464401 
0.712986 -0.699476 -0.0488311 0.768054 -0.640205 0.0151973 -0.850832 0.337524 -0.402694 
-0.784167 0.5408 -0.30433 -0.743414 0.617444 -0.257096 -0.547158 0.829449 -0.112396 
-0.818394 0.556821 -0.142064 -0.78234 0.582879 -0.219538 -0.789121 0.211283 -0.576756 
-0.819906 0.440628 -0.365514 -0.621566 0.782943 0.0255961 -0.43446 0.848453 0.302277 
-0.212271 -0.52526 -0.82404 -0.21425 -0.499542 -0.839377 -0.5104 -0.142533 -0.848042 
0.431136 -0.746458 -0.506875 0.796416 -0.55738 0.234625 -0.689435 0.671964 -0.270452 
0.951407 0.232451 0.201966 -0.130797 0.972007 0.195177 -0.47135 0.659001 0.586128 
-0.299605 0.854139 0.425069 -0.193545 0.646215 0.738205 -0.726971 0.685247 -0.0441572 
-0.0191313 0.476106 0.87918 -0.435002 0.806966 0.399472 -0.521333 -0.468606 -0.713176 
0.479233 -0.751166 -0.453966 -0.525536 -0.244442 -0.814898 0.817483 -0.57245 -0.0634234 
0.814387 -0.466004 0.345853 0.799546 -0.333837 0.499279 0.827504 -0.151315 0.540686 
0.715318 -0.106003 0.690712 -0.834363 0.54939 -0.044825 -0.397275 0.770234 0.498911 
-0.370242 0.851926 0.370327 0.0986108 0.752765 0.650861 -0.604977 0.770482 0.200901 
0.0688009 0.690054 0.72048 -0.0489137 -0.711053 -0.701435 0.125517 -0.757107 -0.641119 
0.299722 -0.730906 -0.613142 0.765403 -0.638334 -0.0817759 0.706582 -0.112548 0.698623 
0.351243 0.338565 0.872927 -0.741055 0.657764 0.134848 -0.200922 0.787871 0.582142 
0.42907 -0.752448 -0.499721 0.867451 -0.420358 0.266134 -0.678693 -0.0733219 -0.730752 
-0.801878 0.33258 -0.496369 -0.829834 0.529862 -0.174991 0.648711 0.0665371 0.758121 
0.647086 -0.100351 0.755784 -0.861772 0.445688 -0.242302 0.101935 0.473212 0.875031 