# vtk DataFile Version 4.2
vtk output
ASCII
DATASET POLYDATA
POINTS 1460 float
280.475 182.094 40.1841 280.871 182.085 40.3097 279.428 182.238 40.2042 
279.117 182.406 40.152 279.751 182.25 40.1426 280.875 182.153 40.1801 
280.926 182.195 40.1764 277.174 182.997 40.2731 278.888 182.707 40.0509 
280.628 182.51 40.0855 277.339 183.34 40.1498 278.12 183.705 39.9133 
280.41 181.996 40.3164 280.547 181.917 40.5452 280.176 181.946 40.4718 
280.786 181.979 40.4603 280.947 182.05 40.5328 279.124 182.235 40.3028 
280.958 182.168 40.2493 281.064 182.248 40.4672 276.794 183.287 40.426 
275.913 183.53 40.8173 279.052 184.219 39.8669 280.179 183.99 40.1188 
281.139 183.813 40.6224 276.344 185.187 40.0659 278.784 185.135 39.9536 
273.469 186.016 40.5057 280.286 181.851 40.7589 277.777 182.148 41.2833 
281.555 182.864 41.0426 281.45 184.755 41.1854 268.304 186.946 41.7832 
268.692 186.672 41.8592 269.828 186.627 41.4508 277.237 186.214 40.0961 
268.122 187.467 41.737 273.443 187.14 40.4761 278.565 186.519 40.2912 
268.479 187.697 41.5342 273.032 187.756 40.592 269.263 188.156 41.2874 
274.354 188.246 40.6154 281.284 182.183 41.2008 281.471 182.375 41.2241 
276.837 182.456 41.6268 274.947 183.267 42.0787 270.292 185.236 42.5217 
282.005 184.619 42.0001 267.915 187.058 42.0511 265.938 187.977 42.506 
266.778 187.836 42.2451 267.113 187.309 42.3981 267.173 188.258 41.9653 
269.606 188.751 41.2677 281.779 187.584 42.1595 267.052 189.371 41.9458 
276.807 189.434 41.2833 280.867 188.828 42.2573 281.83 188.141 42.2255 
281.646 188.309 42.3141 281.801 188.199 42.3145 280.346 181.763 41.5725 
281.253 182.11 41.6569 281.507 182.307 41.8701 281.603 182.531 41.438 
275.352 182.944 42.5432 282.156 184.149 42.3926 282.275 184.842 42.6215 
263.324 189.23 43.3027 264.508 188.327 43.2494 263.825 189.815 42.9627 
281.925 187.729 42.4446 264.178 190.749 42.7761 267.385 189.956 41.9383 
281.788 188.218 42.6377 265.203 190.769 42.5493 266.242 191.429 42.4705 
278.469 181.785 42.5461 277.027 182.176 42.5721 271.027 184.476 43.3282 
273.205 183.713 43.5263 266.674 186.667 43.5061 282.411 187.538 43.7144 
255.64 190.828 45.265 277.001 191.825 44.0956 268.912 193.802 43.3361 
274.519 192.962 44.0499 281.658 182.616 43.3553 275.833 182.686 43.7686 
268.883 185.31 44.2144 282.691 184.978 43.9164 262.433 187.781 45.0207 
255.209 190.882 45.4758 280.674 189.936 44.5952 255.432 192.204 45.0514 
255.665 192.544 44.9901 279.533 190.554 43.9789 270.73 195.453 44.7309 
282.623 184.391 44.2915 282.806 186.622 45.252 281.88 188.837 45.6055 
251.351 192.267 46.5991 280.613 182.406 44.7559 281.989 183.022 44.3042 
282.584 184.358 45.1627 282.856 185.527 45.5588 262.068 187.521 45.9485 
282.482 187.943 46.0859 282.425 188.051 46.2303 254.91 189.947 46.4805 
278.719 191.092 46.5226 250.449 192.928 46.7678 276.76 192.449 46.1274 
261.235 197.871 46.1987 272.485 198.678 47.7882 280.02 182.543 45.4783 
281.586 182.893 45.0243 282.138 183.706 45.6224 282.553 184.759 46.3848 
282.738 185.34 46.6418 264.466 186.631 46.5865 265.589 186.292 47.1027 
266.928 185.86 46.9293 258.403 188.35 47.2936 254.122 189.716 47.4597 
252.241 190.475 47.531 281.507 189.007 46.4787 249.622 194.417 46.9597 
274.736 194.333 47.3516 248.34 195.595 47.5061 274.035 195.418 47.495 
254.772 196.681 46.5447 253.308 197.699 47.3659 273.354 197.151 47.772 
274.328 198.65 49.153 274.125 199.417 49.0951 281.476 183.195 45.9173 
276.318 183.201 46.685 267.246 185.734 47.4175 268.565 185.492 47.4231 
282.665 185.336 47.0964 282.641 185.528 47.3848 282.695 185.937 47.4212 
282.635 186.496 47.4102 240.492 193.132 49.5325 239.474 193.589 49.5822 
274.058 196.489 48.5238 281.224 183.212 46.1769 275.048 184.275 47.9943 
281.681 184.06 47.0158 271.803 184.954 47.9123 282.337 185.01 47.3868 
262.236 187.491 49.0177 263.31 187.109 48.3514 282.548 186.418 47.8434 
282.436 186.473 48.052 252.219 189.803 49.0553 236.997 193.235 50.508 
236.382 192.901 50.9538 276.677 191.84 48.6027 275.466 193.241 48.7723 
274.781 194.426 49.1131 274.437 195.659 49.1749 275.682 200.316 50.6676 
275.853 200.273 50.7829 274.093 200.88 50.2295 281.836 185.059 47.936 
266.305 186.455 48.7062 269.294 186.04 48.973 278.31 185.191 48.9142 
282.408 185.854 47.9854 282.466 186.109 48.0488 282.516 186.277 48.0011 
282.387 186.275 48.155 262.203 187.724 49.6908 282.289 186.465 48.2041 
256.538 188.691 49.9501 251.104 189.969 49.8519 278.978 189.097 49.0059 
277.542 190.438 49.11 233.903 193.437 51.5516 233.237 194.013 51.5412 
275.338 192.825 49.7086 234.868 194.931 50.8773 275.692 199.741 50.5385 
275.848 199.71 50.7662 275.936 200.291 50.9334 275.94 200.157 50.8586 
276.008 200.212 51.0632 261.81 201.904 49.6019 273.496 201.626 51.015 
268.216 186.555 49.5266 269.983 186.278 49.4557 273.527 186.465 49.8783 
257.184 188.649 50.4856 258.335 188.571 50.732 268.331 187.353 50.5635 
279.745 186.798 49.1806 279.93 187.633 49.135 279.662 187.912 49.2017 
280.667 187.83 48.6614 239.682 191.339 51.7883 276.62 190.464 49.8237 
232.408 193.411 52.1339 233.841 192.568 52.2495 274.946 192.787 50.4359 
233.112 194.51 51.5072 274.676 193.898 50.349 234.86 196.083 51.0637 
274.4 195.009 51.0292 274.766 196.965 50.7659 275.926 199.579 51.0583 
275.083 201.067 51.1961 273.488 201.855 51.4912 271.108 202.496 51.6177 
272.676 202.156 51.6644 260.818 188.416 50.8675 262.786 188.483 51.2382 
267.589 188.724 51.8185 272.74 188.308 51.1134 275.309 188.026 50.5238 
278.88 187.665 49.5431 250.781 190.029 51.3463 252.398 189.881 51.5804 
254.398 189.462 51.1999 261.616 188.941 51.725 277.079 188.427 50.0648 
278.194 188.193 49.681 231.314 192.919 52.8765 235.231 192.013 52.4146 
227.552 193.493 53.7718 228.477 195.419 53.0148 274.261 194.366 51.366 
275.658 198.611 51.454 276.086 199.942 51.3422 275.33 201.068 51.7534 
275.584 200.885 52.0189 259.499 203.783 51.7854 265.681 203.543 51.9285 
271.616 202.58 52.2316 253.294 189.969 52.0798 257.603 189.708 52.4632 
274.335 190.353 51.2548 231.549 192.18 53.7443 233.042 192.003 53.4747 
227.252 193.256 54.0549 274.37 192.562 51.3609 226.903 194.782 53.6492 
274.086 193.518 51.6235 275.9 198.96 52.2063 276.038 199.963 52.2552 
275.964 200.331 52.1986 274.16 201.781 52.4979 272.171 202.498 52.6422 
266.643 203.967 53.2101 249.781 190.361 52.3713 238.107 191.215 53.8742 
254.764 190.671 53.3812 268.924 190.55 52.9611 233.015 191.783 54.0994 
234.677 191.668 53.4988 223.898 193.156 55.4753 231.163 192.073 54.1517 
224.506 193.843 54.8831 227.077 192.943 54.4386 272.782 192.631 52.6958 
273.493 192.693 52.2014 225.38 195.977 54.2577 273.608 194.769 52.7859 
276.038 199.582 52.3868 275.962 199.971 52.6992 233.665 200.935 53.5375 
275.657 200.416 52.9583 275.305 201.069 52.6539 275.377 200.886 52.8554 
272.445 202.396 53.0937 267.803 203.881 53.9019 257.801 205.395 54.0451 
233.672 191.598 55.1879 235.276 191.459 54.8303 225.641 192.392 55.74 
230.087 191.989 54.87 250.512 191.843 54.7768 220.622 195.108 55.9824 
272.438 195.382 54.15 273.998 196.562 53.8543 274.082 196.225 53.2872 
275.541 198.72 53.5514 275.417 198.609 53.5813 275.346 198.299 53.2769 
275.927 199.582 52.9077 274.607 201.048 53.5751 272.529 202.113 54.0584 
272.841 201.857 54.2131 267.692 203.968 54.8467 264.474 204.934 55.1366 
236.93 191.482 55.42 232.785 191.727 55.9581 219.609 193.521 56.9328 
221.581 192.596 57.082 229.103 191.919 55.5939 273.866 196.564 53.9469 
219.181 195.825 56.6304 275.492 198.746 53.6268 275.342 198.854 53.7318 
274.953 198.766 54.0466 274.672 198.913 54.2833 274.943 200.252 53.7723 
268.382 203.537 55.4641 266.192 204.41 55.7161 252.164 206.973 56.1823 
238.349 192.05 56.4615 215.118 193.067 58.9104 215.05 192.909 59.1174 
217.935 192.701 58.3356 239.405 192.498 56.8067 215.133 193.303 58.7861 
253.046 194.647 56.6778 268.449 199.377 56.8448 271.467 200.305 55.9289 
270.843 201.282 56.1734 270.39 201.743 56.2795 269.449 202.417 56.2246 
268.792 203.163 55.774 265.593 204.572 56.0206 238.481 207.101 56.9668 
263.055 205.276 56.3363 258.02 206.288 57.2963 255.524 206.939 57.3963 
233.68 192.064 57.1646 221.627 191.986 58.6323 231.6 191.999 57.099 
213.975 193.106 59.4415 214.655 194.68 58.5974 265.982 200.409 57.5172 
269.705 200.478 56.6761 270.545 201.516 56.3902 270.479 201.5 56.4763 
263.928 204.708 56.9334 258.043 206.126 57.9019 259.731 205.799 57.3451 
252.559 207.552 57.9977 256.048 206.823 57.8047 240.79 208.461 58.2375 
247.359 208.271 57.9275 232.862 192.46 57.8462 213.791 192.476 60.2646 
215.642 192.379 59.7086 214.127 193.906 58.9868 269.568 201.31 56.7459 
268.707 201.915 56.8213 264.767 203.641 57.5764 260.843 205.04 57.997 
257.007 206.228 58.4836 258.415 205.761 58.2519 252.436 207.617 58.4886 
236.793 208.92 59.4931 237.123 208.7 59.0794 252.002 207.662 58.8208 
226.48 191.859 58.5396 218.671 191.993 60.2254 232.261 194.655 60.1557 
258.051 201.156 58.8968 260.438 202.496 58.7242 265.567 202.924 57.6123 
261.165 203.835 58.554 262.214 203.731 58.3421 261.877 204.175 58.2896 
253.591 207.201 58.9056 255.212 206.632 58.8901 249.018 208.075 59.7703 
241.165 209.198 59.756 242.943 209.115 59.7569 243.851 209.061 60.2367 
224.648 192.251 60.0817 213.26 192.114 61.1949 214.059 191.909 61.7925 
220.424 192.108 60.4778 222.394 192.148 60.127 209.217 193.722 61.2183 
215.102 201.599 60.739 254.553 203.726 59.9966 261.6 203.984 58.4439 
255.43 204.773 59.8503 257.573 205.137 59.1079 252.903 207.13 59.3721 
252.611 206.904 59.6752 254.45 206.501 59.3189 244.489 208.797 60.7553 
244.894 208.52 60.9891 242.173 209.126 61.0913 243.837 208.91 60.885 
204.106 192.641 63.3797 207.928 192.158 62.6941 211.728 192.045 61.9487 
217.182 192.018 61.8826 224.819 193.259 61.3475 204.521 193.423 62.9993 
228.92 195.034 61.4476 247.138 203.172 61.0826 246.23 204.994 61.6877 
247.936 205.73 61.3731 254.766 205.501 59.8026 242.908 208.798 61.4566 
[...]
POINT_DATA 1460
SCALARS scalars float
LOOKUP_TABLE default
1 1 1 1 1 1 1 1 1 
1 1 1 1 1 1 1 1 1 
1 1 1 1 1 1 1 1 1 
1 1 1 1 1 1 1 1 1 
1 1 1 1 1 1 1 1 1 
1 1 1 1 1 1 1 1 1 
1 1 1 1 1 1 1 1 1 
1 1 1 1 1 1 1 1 1 
1 1 1 1 1 1 1 1 1 
1 1 1 1 1 1 1 1 1 
1 1 1 1 1 1 1 1 1 
1 1 1 1 1 1 1 1 1 
1 1 1 1 1 1 1 1 1 
1 1 1 1 1 1 1 1 1 
1 1 1 1 1 1 1 1 1 
1 1 1 1 1 1 1 1 1 
1 1 1 1 1 1 1 1 1 
1 1 1 1 1 1 1 1 1 
1 1 1 1 1 1 1 1 1 
1 1 1 1 1 1 1 1 1 
1 1 1 1 1 1 1 1 1 
1 1 1 1 1 1 1 1 1 
1 1 1 1 1 1 1 1 1 
1 1 1 1 1 1 1 1 1 
1 1 1 1 1 1 1 1 1 
1 1 1 1 1 1 1 1 1 
1 1 1 1 1 1 1 1 1 
1 1 1 1 1 1 1 1 1 
1 1 1 1 1 1 1 1 1 
1 1 1 1 1 1 1 1 1 
1 1 1 1 1 1 1 1 1 
1 1 1 1 1 1 1 1 1 
1 1 1 1 1 1 1 1 1 
1 1 1 1 1 1 1 1 1 
1 1 1 1 1 1 1 1 1 
1 1 1 1 1 1 1 1 1 
1 1 1 1 1 1 1 1 1 
1 1 1 1 1 1 1 1 1 
1 1 1 1 1 1 1 1 1 
1 1 1 1 1 1 1 1 1 
1 1 1 1 1 1 1 1 1 
1 1 1 1 1 1 1 1 1 
1 1 1 1 1 1 1 1 1 
1 1 1 1 1 1 1 1 1 
1 1 1 1 1 1 1 1 1 
1 1 1 1 1 1 1 1 1 
1 1 1 1 1 1 1 1 1 
1 1 1 1 1 1 1 1 1 
1 1 1 1 1 1 1 1 1 
1 1 1 1 1 1 1 1 1 
1 1 1 1 1 1 1 1 1 
1 1 1 1 1 1 1 1 1 
1 1 1 1 1 1 1 1 1 
1 1 1 1 1 1 1 1 1 
1 1 1 1 1 1 1 1 1 
1 1 1 1 1 1 1 1 1 
1 1 1 1 1 1 1 1 1 
1 1 1 1 1 1 1 1 1 
1 1 1 1 1 1 1 1 1 
1 1 1 1 1 1 1 1 1 
1 1 1 1 1 1 1 1 1 
1 1 1 1 1 1 1 1 1 
1 1 1 1 1 1 1 1 1 
1 1 1 1 1 1 1 1 1 
1 1 1 1 1 1 1 1 1 
1 1 1 1 1 1 1 1 1 
1 1 1 1 1 1 1 1 1 
1 1 1 1 1 1 1 1 1 
1 1 1 1 1 1 1 1 1 
1 1 1 1 1 1 1 1 1 
1 1 1 1 1 1 1 1 1 
1 1 1 1 1 1 1 1 1 
1 1 1 1 1 1 1 1 1 
1 1 1 1 1 1 1 1 1 
1 1 1 1 1 1 1 1 1 
1 1 1 1 1 1 1 1 1 
1 1 1 1 1 1 1 1 1 
1 1 1 1 1 1 1 1 1 
1 1 1 1 1 1 1 1 1 
1 1 1 1 1 1 1 1 1 
1 1 1 1 1 1 1 1 1 
1 1 1 1 1 1 1 1 1 
1 1 1 1 1 1 1 1 1 
1 1 1 1 1 1 1 1 1 
1 1 1 1 1 1 1 1 1 
1 1 1 1 1 1 1 1 1 
1 1 1 1 1 1 1 1 1 
1 1 1 1 1 1 1 1 1 
1 1 1 1 1 1 1 1 1 
1 1 1 1 1 1 1 1 1 
1 1 1 1 1 1 1 1 1 
1 1 1 1 1 1 1 1 1 
1 1 1 1 1 1 1 1 1 
1 1 1 1 1 1 1 1 1 
1 1 1 1 1 1 1 1 1 
1 1 1 1 1 1 1 1 1 
1 1 1 1 1 1 1 1 1 
1 1 1 1 1 1 1 1 1 
1 1 1 1 1 1 1 1 1 
1 1 1 1 1 1 1 1 1 
1 1 1 1 1 1 1 1 1 
1 1 1 1 1 1 1 1 1 
1 1 1 1 1 1 1 1 1 
1 1 1 1 1 1 1 1 1 
1 1 1 1 1 1 1 1 1 
1 1 1 1 1 1 1 1 1 
1 1 1 1 1 1 1 1 1 
1 1 1 1 1 1 1 1 1 
1 1 1 1 1 1 1 1 1 
1 1 1 1 1 1 1 1 1 
1 1 1 1 1 1 1 1 1 
1 1 1 1 1 1 1 1 1 
1 1 1 1 1 1 1 1 1 
1 1 1 1 1 1 1 1 1 
1 1 1 1 1 1 1 1 1 
1 1 1 1 1 1 1 1 1 
1 1 1 1 1 1 1 1 1 
1 1 1 1 1 1 1 1 1 
1 1 1 1 1 1 1 1 1 
1 1 1 1 1 1 1 1 1 
1 1 1 1 1 1 1 1 1 
1 1 1 1 1 1 1 1 1 
1 1 1 1 1 1 1 1 1 
1 1 1 1 1 1 1 1 1 
1 1 1 1 1 1 1 1 1 
1 1 1 1 1 1 1 1 1 
1 1 1 1 1 1 1 1 1 
1 1 1 1 1 1 1 1 1 
1 1 1 1 1 1 1 1 1 
1 1 1 1 1 1 1 1 1 
1 1 1 1 1 1 1 1 1 
1 1 1 1 1 1 1 1 1 
1 1 1 1 1 1 1 1 1 
1 1 1 1 1 1 1 1 1 
1 1 1 1 1 1 1 1 1 
1 1 1 1 1 1 1 1 1 
1 1 1 1 1 1 1 1 1 
1 1 1 1 1 1 1 1 1 
1 1 1 1 1 1 1 1 1 
1 1 1 1 1 1 1 1 1 
1 1 1 1 1 1 1 1 1 
1 1 1 1 1 1 1 1 1 
1 1 1 1 1 1 1 1 1 
1 1 1 1 1 1 1 1 1 
1 1 1 1 1 1 1 1 1 
1 1 1 1 1 1 1 1 1 
1 1 1 1 1 1 1 1 1 
1 1 1 1 1 1 1 1 1 
1 1 1 1 1 1 1 1 1 
1 1 1 1 1 1 1 1 1 
1 1 1 1 1 1 1 1 1 
1 1 1 1 1 1 1 1 1 
1 1 1 1 1 1 1 1 1 
1 1 1 1 1 1 1 1 1 
1 1 1 1 1 1 1 1 1 
1 1 1 1 1 1 1 1 1 
1 1 1 1 1 1 1 1 1 
1 1 1 1 1 1 1 1 1 
1 1 1 1 1 1 1 1 1 
1 1 1 1 1 1 1 1 1 
1 1 1 1 1 1 1 1 1 
1 1 1 1 1 1 1 1 1 
1 1 
NORMALS Normals float
0.0326402 -0.65714 -0.753061 0.464561 -0.808813 -0.360561 -0.0325326 -0.544034 -0.838432 
-0.255895 -0.542832 -0.799907 -0.205263 -0.681487 -0.702455 0.318459 -0.682721 -0.657629 
0.507957 -0.216796 -0.833654 -0.374793 -0.524463 -0.764506 -0.171307 -0.446236 -0.878366 
0.242976 0.00542392 -0.970017 -0.357455 -0.204685 -0.911224 -0.033822 -0.123918 -0.991716 
0.00176394 -0.863592 -0.504189 0.171889 -0.960641 -0.218228 -0.210799 -0.891072 -0.401939 
0.269879 -0.921585 -0.279011 0.553463 -0.823022 -0.127723 -0.306281 -0.755553 -0.579078 
0.699337 -0.61129 -0.370476 0.83336 -0.445676 -0.326931 -0.527226 -0.441653 -0.725931 
-0.445848 -0.684603 -0.576661 0.279321 0.062544 -0.958159 0.360113 0.168498 -0.917566 
0.761532 0.199659 -0.616608 -0.1681 0.0271237 -0.985397 0.0379125 0.151825 -0.98768 
-0.105505 -0.0715938 -0.991838 -0.0107275 -0.979223 -0.202503 -0.275491 -0.894239 -0.352763 
0.945163 -0.0870964 -0.314772 0.756768 0.133953 -0.639812 -0.424717 -0.454564 -0.782935 
-0.403665 -0.695227 -0.594739 -0.264152 -0.331186 -0.905836 -0.0274955 0.183073 -0.982715 
-0.512198 -0.184752 -0.838761 -0.0973148 0.0285969 -0.994843 0.275769 0.259764 -0.925459 
-0.35747 -0.0742402 -0.930969 -0.195627 0.307434 -0.931244 -0.179557 -0.0187194 -0.98357 
-0.182714 0.180807 -0.966397 0.551446 -0.831164 -0.0712362 0.81574 -0.519705 -0.253918 
-0.443962 -0.846784 -0.293011 -0.519335 -0.813514 -0.261698 -0.391372 -0.773025 -0.499259 
0.865533 0.0397968 -0.499269 -0.52265 -0.539115 -0.660448 -0.42871 -0.207821 -0.879215 
-0.380523 -0.49655 -0.780154 -0.473018 -0.527947 -0.705355 -0.282864 -0.186368 -0.94088 
-0.156772 0.162869 -0.974113 0.718217 0.0991796 -0.688714 -0.433399 0.134746 -0.891072 
0.0699267 0.543736 -0.836338 0.406541 0.605771 -0.683934 0.784693 0.463757 -0.411323 
0.597597 0.766332 -0.235822 0.704621 0.699783 -0.117529 0.172916 -0.976772 0.12656 
0.559531 -0.828591 0.0190433 0.621632 -0.776136 0.105767 0.92544 -0.361348 -0.113961 
-0.476861 -0.857399 -0.193573 0.909196 -0.0917415 -0.406136 0.933397 0.0491436 -0.355465 
-0.395991 -0.395749 -0.828598 -0.426014 -0.520612 -0.739916 -0.383265 -0.158 -0.910024 
0.955771 0.105457 -0.274556 -0.283043 0.130402 -0.950201 -0.338959 0.127767 -0.932085 
0.831812 0.545753 -0.101207 -0.271972 0.226165 -0.93535 -0.216024 0.305879 -0.927239 
-0.174885 -0.983674 0.0424371 -0.34941 -0.933868 -0.0761851 -0.357462 -0.889183 -0.285614 
-0.393288 -0.901453 -0.180852 -0.41506 -0.783516 -0.462415 0.945144 0.217957 -0.243304 
-0.30569 -0.340348 -0.889223 0.41131 0.803857 -0.429696 -0.104187 0.573824 -0.812325 
0.593577 0.652242 -0.47143 0.711743 -0.69794 0.0793817 -0.393235 -0.917248 0.0634159 
-0.361972 -0.920021 -0.150126 0.980333 -0.0549735 -0.189539 -0.2877 -0.841323 -0.457606 
-0.442466 -0.482764 -0.755753 0.61415 0.783867 -0.0915028 -0.316194 0.0304403 -0.948206 
-0.227819 0.125138 -0.965629 0.479847 0.86538 -0.144441 0.125306 0.662697 -0.73833 
0.94369 -0.320361 -0.0825684 0.974675 0.190602 -0.116958 0.811923 0.581004 -0.0567062 
-0.380611 -0.310811 -0.870937 0.306953 -0.92737 0.213927 0.630331 -0.761957 0.148676 
0.911924 -0.38387 0.145044 0.983932 -0.166893 0.0634457 -0.155524 -0.962725 -0.221296 
0.933615 0.357082 -0.0292549 0.818226 0.500883 0.282174 -0.407793 -0.651979 -0.63924 
0.60767 0.758459 0.235535 -0.356767 -0.337429 -0.871125 0.649314 0.759356 0.042074 
-0.066927 0.537965 -0.840306 0.348858 0.603707 -0.716824 0.11737 -0.870386 0.478176 
0.492109 -0.820535 0.290778 0.788727 -0.544266 0.285805 0.859246 -0.466021 0.211001 
0.946125 -0.287242 0.149463 -0.274306 -0.957471 -0.0894718 -0.265618 -0.956732 -0.118788 
-0.33816 -0.940793 -0.0235939 -0.244774 -0.968544 -0.0448054 -0.353985 -0.872894 -0.335784 
-0.369514 -0.741625 -0.559868 0.60698 0.738904 0.29257 -0.326276 -0.0247181 -0.944951 
0.698089 0.701943 -0.141236 -0.279777 0.296788 -0.91304 0.883491 0.418038 -0.211394 
-0.237017 0.423517 -0.874332 -0.223561 0.504931 -0.833706 0.806717 0.346675 -0.478564 
0.836712 -0.109493 -0.536585 0.589438 0.291452 -0.753405 0.491867 -0.759221 0.426205 
-0.0929865 -0.919369 0.382249 -0.294999 -0.947389 0.124215 -0.150512 -0.957359 0.246598 
0.959771 -0.254105 0.119458 0.870656 -0.30628 0.384905 0.976163 -0.0695735 0.205586 
0.976093 0.168885 0.136822 -0.18553 -0.126348 -0.974482 -0.170001 -0.211618 -0.962454 
0.838553 0.179536 -0.514389 0.400362 -0.72931 0.554813 -0.0166201 -0.708926 0.705087 
0.434737 -0.703164 0.562641 -0.226141 -0.874571 0.428936 0.739452 -0.536011 0.407312 
-0.109725 -0.951164 0.288527 -0.203742 -0.973406 0.104738 0.909896 0.288822 0.297776 
0.773928 0.385732 0.502242 -0.193048 -0.977364 -0.086556 -0.180473 -0.490679 -0.852446 
-0.21659 -0.597863 -0.771782 0.646967 0.636733 0.419529 0.816066 0.545788 0.190138 
0.934773 0.345206 0.0838641 0.98169 0.120898 -0.147201 0.545715 0.496165 -0.675289 
0.644648 0.520104 -0.560286 0.275246 0.760688 -0.587871 0.41982 -0.526681 0.739161 
-0.251672 -0.899357 0.357516 -0.0675969 -0.874866 0.479626 0.161559 -0.48788 0.85783 
0.68578 -0.333385 0.646962 0.785835 -0.218605 0.578512 0.918442 -0.00494225 0.395524 
0.49328 -0.11183 0.862652 -0.00636894 -0.908775 0.417237 0.520701 0.184033 0.833668 
-0.23887 -0.960152 0.145086 -0.235115 -0.964446 -0.120685 0.483527 0.43451 0.75987 
0.542106 0.491549 0.681543 -0.264328 -0.417414 -0.869423 -0.318128 -0.339733 -0.885086 
0.804729 0.330808 0.492927 -0.285727 -0.108087 -0.952196 0.791842 -0.0806238 -0.605381 
0.856945 -0.180106 -0.482915 0.712955 0.624589 -0.318722 0.886151 0.0650516 -0.458808 
0.967029 0.134499 -0.216253 0.0240171 0.692785 -0.720744 0.300602 0.853994 -0.424655 
-0.198059 -0.815816 0.543338 -0.0123707 -0.820253 0.571866 0.06691 -0.549165 0.833031 
-0.224433 -0.831778 0.507716 -0.115675 -0.930671 0.347089 -0.0452666 -0.715693 0.696947 
0.24291 -0.187251 0.951805 0.491083 0.196673 0.848621 0.410704 0.209125 0.887462 
0.535464 0.329061 0.777816 -0.118002 -0.903309 -0.412443 0.584682 0.353119 0.73038 
-0.301149 -0.516205 -0.801774 -0.28637 -0.699636 -0.654601 0.876064 0.249271 0.412767 
-0.333718 -0.0045668 -0.942662 0.940063 0.166951 0.297336 -0.176347 0.334554 -0.92573 
0.991065 -0.0449817 0.125563 0.974914 -0.212287 -0.0669091 0.827513 -0.409204 -0.384414 
0.442089 0.809719 -0.385892 0.389832 0.867845 -0.30802 0.174586 0.838253 -0.516576 
0.232132 0.911884 -0.338501 -0.132746 -0.928409 0.347037 -0.0326873 -0.82461 0.564757 
-0.103908 -0.69223 0.714157 0.117662 -0.564358 0.817102 0.26984 -0.303163 0.913936 
0.213401 -0.00400262 0.976956 -0.112 -0.974379 0.195043 -0.12202 -0.923533 0.363591 
-0.171534 -0.952607 0.251229 -0.0492566 -0.73813 0.672859 0.424449 0.0846209 0.901489 
0.229666 -0.0539131 0.971775 -0.266379 -0.740884 -0.61655 -0.119396 -0.878375 -0.46282 
-0.280323 -0.47974 -0.831425 -0.358556 0.0236531 -0.933208 0.918922 -0.100826 0.381334 
0.8882 -0.431811 -0.156971 0.982761 -0.0265307 -0.182966 0.59367 0.785048 -0.176792 
0.762319 0.638145 -0.107891 -0.0659785 0.756934 -0.650152 0.125914 0.777324 -0.616371 
0.192997 0.980374 -0.040234 -0.152378 -0.91644 0.370024 -0.154155 -0.83152 0.533677 
0.620337 0.066537 0.781508 -0.211147 -0.795544 -0.567915 -0.151182 -0.887332 -0.435643 
-0.436249 -0.51944 -0.734758 0.790432 -0.101504 0.604081 -0.45272 -0.097021 -0.886359 
0.762206 -0.114176 0.637186 0.945153 -0.32591 0.0216336 0.998678 0.0469608 0.0208923 
0.88217 0.46644 0.0648916 0.442255 0.894036 -0.0714897 0.295177 0.944173 -0.146313 
0.192682 0.941214 -0.277471 -0.0633268 -0.974945 0.213242 0.0833667 -0.987905 0.130745 
-0.0643903 -0.753271 0.654551 0.0986393 -0.512264 0.853145 -0.0624816 -0.979452 -0.191753 
-0.123915 -0.949224 -0.289169 -0.256673 -0.676477 -0.690288 -0.204767 -0.913858 -0.35062 
-0.322731 -0.391017 -0.861946 -0.290078 -0.682431 -0.670927 0.432209 -0.327719 0.840117 
0.652326 -0.291403 0.699682 -0.346114 0.12856 -0.929343 0.734779 -0.3747 0.565419 
0.995 -0.0765064 0.0641973 0.909656 0.190295 0.369208 -0.296434 0.442352 -0.846435 
0.777166 0.403971 0.482514 0.60473 0.758196 0.243806 0.699586 0.558715 0.44544 
0.333648 0.920466 0.203525 0.265523 0.941463 -0.207712 0.152328 0.934049 -0.323032 
-0.0366594 -0.998904 -0.0290862 -0.0283628 -0.999504 -0.013708 -0.213118 -0.788278 -0.577233 
-0.117004 -0.974394 -0.192004 0.0378608 -0.809057 0.586509 -0.350771 -0.040175 -0.935599 
0.507839 -0.364181 0.780687 0.616829 -0.524333 0.587024 0.803105 -0.470228 0.365936 
0.82311 -0.39393 0.409033 0.530778 -0.518888 0.670096 0.739525 -0.584002 0.334729 
0.903511 -0.00301385 0.428553 0.542855 0.66855 0.50828 0.343807 0.914218 0.214481 
0.527368 0.580347 0.620548 0.400936 0.913656 -0.066961 0.23891 0.970487 -0.0328308 
0.188101 -0.920618 0.34217 -0.0684634 -0.991104 0.114127 -0.322439 -0.385653 -0.864468 
-0.217425 -0.720987 -0.657954 -0.113174 -0.956646 -0.268364 0.509013 -0.436395 0.741933 
-0.37217 0.0373777 -0.927412 0.668473 -0.125833 0.733014 0.569119 -0.0992089 0.816248 
0.548503 -0.363267 0.753114 0.453202 -0.0588793 0.889461 0.634023 0.265911 0.726159 
0.59713 0.801767 0.024591 0.377231 0.865944 0.328387 0.0273406 0.897674 -0.439811 
0.200203 -0.910102 0.362813 -0.184597 -0.600329 -0.778158 -0.446844 -0.5923 -0.670456 
-0.138105 -0.896997 -0.41991 0.161637 -0.788867 0.592927 -0.321351 -0.477273 -0.81789 
0.114217 -0.550689 0.826859 0.261246 -0.257281 0.930353 0.407434 -0.174879 0.896334 
0.638931 0.248947 0.727869 0.557024 0.61589 0.557139 0.351412 0.603527 0.715727 
0.452316 0.754066 0.47623 0.35682 0.901738 0.244024 -0.12668 0.701229 -0.701591 
0.239148 0.955002 0.175442 0.318719 0.936776 0.14446 0.20622 0.968621 -0.138731 
0.0384003 -0.883967 0.465969 -0.10663 -0.971599 -0.211248 0.043943 -0.907331 0.418114 
-0.325978 -0.689655 -0.646618 -0.498491 0.0116693 -0.866816 0.135905 -0.16188 0.977407 
0.295763 -0.103124 0.949679 0.673518 0.551536 0.492119 0.49131 0.329103 0.806415 
0.38764 0.708059 0.590244 0.397531 0.863875 0.309337 0.305319 0.893157 0.33023 
0.104977 0.985887 -0.130411 0.226985 0.967653 0.110118 -0.0750403 0.868157 -0.490584 
0.0720115 0.917421 -0.391349 0.0313033 -0.841168 0.539867 -0.270066 -0.84485 -0.461836 
-0.0716159 -0.838364 -0.540386 -0.462206 -0.238342 -0.854142 0.225572 0.195903 0.954327 
0.242133 0.232475 0.94198 0.291915 0.282863 0.91366 0.253054 0.689559 0.678581 
0.300974 0.760198 0.575772 0.426701 0.723611 0.542508 0.22455 0.963943 0.142795 
0.171849 0.951211 -0.256252 0.035152 0.89064 -0.453348 0.129567 0.991275 0.0242268 
0.143184 -0.939042 0.312568 0.0147194 -0.996078 -0.0872507 0.0977797 -0.765647 0.635786 
0.201943 -0.244161 0.948475 0.211702 -0.111929 0.970904 0.336431 0.41303 0.846298 
0.166883 0.332147 0.928347 0.295035 0.27261 0.915772 0.226459 0.50274 0.834247 
0.313668 0.869807 0.380851 0.247356 0.823144 0.511125 0.126707 0.945342 0.300455 
-0.062745 0.934029 -0.351644 0.0702459 0.996275 -0.0500114 0.240367 0.970681 -0.00169996 
0.13981 -0.851367 0.505596 -0.223782 -0.880248 -0.418432 -0.00359124 -0.989719 0.14298 
0.0125048 -0.998593 0.0515272 0.0441347 -0.966136 0.254231 -0.422035 -0.211535 -0.881555 
-0.37036 0.463651 -0.804898 0.182912 -0.115444 0.976328 0.178139 0.26438 0.947824 
0.224645 0.0834577 0.97086 0.296877 0.310268 0.903105 0.309943 0.770223 0.557397 
0.31539 0.553273 0.770985 0.245944 0.744987 0.620085 0.39711 0.890464 0.22221 
0.330498 0.8629 0.382329 0.0989304 0.898346 0.428004 0.151699 0.899188 0.410426 
-0.264936 -0.405211 -0.874993 -0.34023 -0.667428 -0.662407 -0.0654047 -0.962069 -0.264849 
0.11869 -0.99212 0.04014 0.20346 -0.732113 0.650088 -0.318871 -0.137078 -0.937833 
0.205388 -0.56016 0.802519 0.154558 -0.260704 0.952967 0.0761978 -0.154849 0.984995 
0.277157 0.0321069 0.960288 0.253891 0.396885 0.882056 0.114449 0.858129 0.500516 
0.17293 0.542599 0.821998 0.214711 0.678159 0.702851 0.244742 0.664763 0.705827 
-0.0301186 0.893919 -0.447215 0.0326238 0.992415 -0.118524 0.111399 0.992587 0.0486023 
-0.273508 -0.637933 -0.719886 -0.160848 -0.487206 -0.858346 -0.104309 -0.789608 -0.604681 
0.175696 -0.945604 0.273796 -0.184573 -0.4639 -0.866447 -0.31485 -0.163019 -0.935037 
-0.204119 -0.893734 -0.399468 0.0637681 -0.984512 -0.163306 -0.0279005 -0.952404 0.303558 
0.275027 -0.89293 0.356421 0.216697 -0.770406 0.599597 0.266547 0.159298 0.950567 
0.274257 0.322564 0.905945 -0.271874 0.821164 -0.501771 0.215631 0.487438 0.846113 
0.234905 0.549482 0.801804 0.14835 0.739534 0.656568 0.161336 0.97606 0.145871 
0.197065 0.954166 -0.22524 -0.292764 -0.587925 -0.754078 -0.129256 -0.815351 -0.564354 
0.11876 -0.985621 0.120198 0.182029 -0.924616 0.334591 0.134879 -0.797178 0.588485 
0.180153 0.117 0.976655 0.136011 0.0254788 0.99038 0.150837 0.34832 0.92516 
-0.284595 0.802552 -0.524325 -0.107748 0.986741 -0.121377 -0.109987 0.992626 0.0509457 
-0.0997402 0.978852 -0.178605 -0.0482151 0.998197 -0.0357562 0.0714136 0.907644 0.41362 
-0.0485445 0.993084 0.106902 0.0409591 0.985942 0.161992 0.176337 -0.983324 0.0444971 
0.17748 -0.800782 0.572057 0.244477 -0.678965 0.69227 -0.428325 -0.0163224 -0.903477 
-0.484215 0.19112 -0.85382 -0.516983 0.448993 -0.728789 0.266323 -0.00763609 0.963854 
0.314384 0.157764 0.936095 0.228114 0.197076 0.95348 0.296434 0.343457 0.891159 
-0.22758 0.971053 -0.0725509 -0.134829 0.962944 0.233581 -0.164767 0.870208 0.464316 
0.0780018 0.895968 0.437215 0.0419216 0.92798 0.370265 0.114389 0.848106 0.517331 
-0.0181487 0.951499 0.307116 -0.0191018 -0.95055 -0.309983 -0.261037 -0.395141 -0.880752 
-0.334162 -0.541156 -0.771677 -0.111822 -0.949507 -0.293142 -0.471684 -0.282554 -0.835271 
-0.32862 -0.357317 -0.874261 0.191831 -0.842366 0.503608 -0.491523 0.0869666 -0.866511 
0.152639 -0.727966 0.668406 0.280374 0.247843 0.927342 -0.15463 0.946013 -0.284866 
0.202217 0.519377 0.830274 0.189297 0.637722 0.746644 -0.119395 0.992466 -0.0275058 
0.0046415 0.819785 0.572653 0.254164 0.67365 0.693972 -0.431073 -0.281987 -0.857123 
-0.21658 -0.726366 -0.652292 -0.0760626 -0.708778 -0.701319 -0.121839 -0.985565 0.117543 
0.0838771 -0.99371 0.0742019 0.239802 -0.632235 0.736732 -0.519253 0.123099 -0.845709 
0.330929 -0.545978 0.769671 0.326133 -0.309494 0.893225 0.29208 -0.116107 0.94932 
-0.182003 0.884212 -0.430167 -0.247514 0.826025 -0.506379 -0.0265841 0.977626 0.208664 
0.0489835 0.89563 0.442094 0.208016 0.664628 0.717634 -0.0767221 0.997052 0.000580735 
0.0177677 0.994244 0.105659 0.0763965 0.749182 0.657944 -0.311275 -0.728273 -0.610513 
-0.130322 -0.788286 -0.60135 0.311377 -0.884282 0.34798 0.336573 -0.759578 0.556561 
-0.508438 0.342498 -0.790054 0.256911 0.126845 0.958075 0.292568 0.365583 0.883602 
0.232818 0.27557 0.932661 0.16026 0.6238 0.764977 -0.078647 0.995915 -0.0443526 
-0.585127 -0.535907 -0.60863 -0.741598 -0.621792 -0.251809 -0.309971 -0.915073 -0.257989 
-0.212436 -0.899865 -0.380939 0.0993778 -0.966055 -0.238457 0.176213 -0.960826 -0.21392 
0.364523 -0.856786 0.364748 0.256282 -0.922187 0.289639 -0.727693 -0.0650915 -0.682808 
-0.691508 0.0865281 -0.717168 0.0372721 0.975721 0.21582 0.050904 0.959078 0.278529 
0.0248906 0.899843 0.435504 -0.466372 -0.87841 -0.104367 -0.365482 -0.929828 0.0429268 
-0.12693 -0.990161 -0.0589063 0.282077 -0.918856 0.275929 -0.804477 -0.275888 -0.526025 
-0.661442 0.201867 -0.722319 0.237286 0.0393079 0.970644 -0.0384023 0.998382 -0.0419374 
-0.240633 0.51295 0.824001 -0.658686 -0.749421 0.0670894 -0.43093 -0.869936 0.239816 
0.0659822 -0.991373 0.113254 0.250187 -0.896133 0.366542 0.349786 -0.857336 0.377656 
0.468755 -0.836713 0.283162 0.449447 -0.750404 0.484656 -0.923818 -0.0794581 -0.374496 
-0.566581 0.432344 -0.701474 -0.366147 0.695737 -0.61797 -0.300594 0.79543 -0.526245 
0.282908 0.336721 0.898099 0.151539 0.625209 0.765604 0.226947 0.486093 0.843924 
-0.246006 0.912387 -0.327156 0.119168 0.843396 0.52391 0.162003 0.613459 0.772932 
0.216673 0.704062 0.676276 0.153331 0.745741 0.648351 0.176259 0.490778 0.85327 
-0.823406 -0.567451 0.00138416 -0.850266 -0.487751 0.197854 -0.724362 -0.650036 0.22968 
-0.930013 -0.329161 0.16349 0.373109 -0.672889 0.638757 -0.973296 -0.0816776 -0.214531 
-0.993359 -0.0479608 0.104581 -0.934242 0.20164 -0.294165 -0.894585 0.301061 -0.330271 
-0.697142 0.313145 -0.644929 0.379905 -0.146578 0.913339 -0.491478 0.588884 -0.641611 
-0.246888 0.884247 -0.396425 -0.220258 0.929745 -0.29506 -0.0550418 0.992873 0.105704 
-0.089502 0.956184 -0.278751 -0.0851806 0.971107 0.222924 0.0567803 0.997563 -0.0405367 
-0.332198 -0.923729 0.190705 -0.689382 -0.703862 0.171264 -0.885869 -0.340257 0.315375 