# vtk DataFile Version 4.2
vtk output
ASCII
DATASET POLYDATA
POINTS 1906 float
184.741 201.775 72.9291 184.678 201.695 72.973 184.076 201.05 73.4212 
184.751 201.512 73.1042 185.07 201.543 73.1601 184.349 201.667 73.0595 
185.019 201.687 73.077 185.096 201.918 73.0921 183.892 202.651 73.156 
184.857 202.264 73.0734 184.626 202.561 73.1331 184.24 202.783 73.1656 
185.461 201.514 73.4108 185.602 201.488 73.6127 185.581 201.638 73.4602 
185.364 202.65 73.4363 184.674 204.006 73.7497 179.859 199.878 75.0766 
185.43 201.21 73.6432 185.394 201.079 73.7584 180.821 200.604 74.374 
183.704 200.532 74.0056 185.711 201.878 73.5588 185.92 201.922 73.7345 
185.978 201.893 73.8506 185.755 202.287 73.6332 186.008 202.035 73.8489 
186.045 202.24 73.9631 182.798 203.178 73.6182 185.709 204.253 74.2616 
184.009 205.811 74.6657 184.836 205.573 74.5874 180.91 199.507 75.448 
182.832 200.1 74.6692 183.705 200.271 74.6647 185.107 200.848 73.9398 
185.42 201.052 73.9275 185.567 201.231 74.1107 178.997 200.336 75.1605 
179.671 200.971 74.6932 186.16 202.521 74.3487 186.046 203.926 74.4067 
186.23 204.873 74.8891 185.783 205.621 74.9215 185.947 206.223 75.3775 
185.213 206.588 75.3974 184.549 207.017 75.8909 177.648 199.267 76.3497 
179.308 199.359 75.8019 184.069 200.374 74.8715 186.341 202.699 75.0985 
186.427 205.228 75.2712 182.234 206.245 75.6208 186.07 205.861 75.2365 
186.596 205.63 75.7696 183.171 207.063 76.3368 185.974 207.446 76.37 
185.97 207.454 76.4081 175.06 198.911 77.4585 176.699 198.425 77.3914 
179.984 199.052 76.578 176.386 200.219 76.4356 176.493 201.43 76.355 
186.018 202.137 75.4245 177.208 202.378 76.1388 186.608 203.61 76.173 
186.813 204.721 76.0216 186.762 205.219 76.0576 186.749 205.625 75.9748 
186.735 205.721 75.9322 186.758 205.739 76.0073 186.49 206.145 76.2207 
186.693 205.811 76.0074 185.779 207.165 76.2439 182.932 207.275 76.9795 
185.175 207.329 76.5547 185.717 207.387 76.5001 185.956 207.19 76.6198 
185.956 207.407 76.4834 185.907 207.446 76.4592 175.545 197.981 78.1528 
182.594 199.983 76.5279 183.916 200.572 76.2641 173.857 200.03 77.6879 
185.453 201.845 76.324 185.748 202.129 76.2423 177.812 204.679 76.8775 
186.504 204.039 76.7544 186.825 205.061 76.2692 186.794 204.888 76.4094 
180.43 206.059 76.3999 186.712 205.719 76.1423 186.614 205.659 76.619 
186.76 205.181 76.4242 182.723 207.447 77.6621 184.007 207.489 77.5263 
185.521 207.363 76.8488 185.839 207.391 76.5743 186.019 207.017 77.0488 
171.204 198.049 79.4969 170.854 198.116 79.6157 171.473 197.84 79.5923 
177.272 198.124 77.9806 178.222 198.257 78.3091 171.386 198.61 79.1502 
182.146 200.224 78.0318 171.915 200.185 78.6767 184.378 201.842 77.8883 
186.485 206.072 76.9472 184.133 207.497 77.9929 183.845 207.438 78.495 
185.802 207.047 77.4323 185.526 207.216 77.5272 185.504 207.051 77.8204 
185.213 207.354 77.4446 176.609 197.724 79.3644 170.406 197.678 80.1994 
174.82 197.58 79.0503 175.658 197.646 78.8699 170.733 198.454 79.5431 
171.586 201.319 79.1321 183.59 201.705 78.621 184.916 203.212 78.4695 
174.386 204.869 79.2361 177.337 207.061 80.0138 182.651 207.525 78.6996 
183.294 207.511 78.5045 181.33 207.508 78.8558 169.884 196.916 81.341 
171.693 197.079 80.7638 172.539 197.154 80.4919 173.502 197.329 79.7915 
173.827 197.293 79.9402 174.662 197.422 79.529 175.759 197.555 79.2145 
175.647 197.515 79.5939 174.09 197.418 79.5078 178.029 198.268 79.483 
179.377 199.074 79.672 181.271 200.483 79.5872 174.581 205.972 80.3536 
183.013 207.232 79.679 185.425 206.457 78.4262 181.36 207.424 79.9403 
181.558 207.523 79.3036 182.232 207.372 79.7723 184.05 206.988 79.206 
178.078 207.307 80.2035 171.281 196.873 81.4297 173.979 197.28 80.376 
176.165 197.762 80.4014 182.865 202.788 80.2072 182.976 204.415 80.7706 
183.832 204.349 80.0052 183.864 206.383 79.8231 174.617 206.317 81.011 
183.145 206.731 80.1547 183.894 206.725 79.6141 163.036 195.817 84.2026 
166.159 196.297 82.8555 174.279 197.507 81.7221 164.119 196.974 83.2835 
182.821 206.177 80.689 181.512 206.565 81.2281 175.982 207.011 81.9571 
176.936 207.141 81.7809 164.98 195.507 84.0239 165.737 195.471 83.9961 
170.88 196.559 82.6158 163.906 198.553 83.3785 176.777 206.818 83.0265 
164.388 195.061 84.7537 165.645 195.062 84.8597 166.577 195.343 84.3829 
170.81 196.578 82.7587 161.626 197.351 84.7958 162.882 199.304 84.3268 
175.614 199.072 83.2971 178.145 206.51 83.0272 162.519 194.611 86.0552 
165.613 194.969 85.3193 169.83 196.72 84.9388 178.526 206.104 83.264 
163.737 194.572 86.0881 158.861 195.193 87.2095 159.819 198.703 86.5978 
175.143 200.483 84.9963 178.541 205.04 83.8339 166.48 205.463 86.9353 
164.559 194.588 86.6267 164.338 194.558 86.5993 164.673 194.65 86.7424 
165.629 194.959 86.2437 157.892 196.464 87.6871 160.852 200.589 86.62 
174.097 201.719 86.5274 175.485 203.688 86.049 175.469 204.606 85.9426 
168.844 205.837 87.7686 174.527 205.665 85.812 175.285 205.416 85.6725 
173.738 205.89 85.8984 156.303 193.366 89.6062 158.034 193.927 88.5788 
157.606 193.418 89.251 159.367 193.57 88.9057 170.215 199.226 87.896 
161.48 203.259 88.1907 173.509 203.224 87.3211 161.82 203.989 88.6955 
173.852 205.034 86.7146 169.436 205.677 88.0675 153.959 193.845 90.4486 
154.843 194.191 89.8452 173.713 204.211 87.1347 167.135 205.748 88.5598 
168.895 205.376 88.9065 171.568 205.279 87.6968 153.535 193.087 90.9872 
156.016 192.468 90.9018 159.064 193.243 89.8763 159.615 193.387 89.8533 
154.52 195.2 90.0145 155.812 197.603 89.6078 168.453 204.789 89.8864 
171.024 204.802 88.3724 161.925 205.172 90.8279 154.533 191.885 92.0333 
156.089 192.238 91.5372 152.799 193.029 91.48 158.315 192.952 91.2748 
152.102 193.258 91.8998 153.027 193.388 91.1898 160.51 193.774 90.3071 
160.834 194.105 90.9496 152.9 193.957 91.2179 153.488 196.124 91.0245 
155.766 200.121 91.1063 169.806 203.297 89.6291 168.937 203.937 90.1157 
167.352 205.095 90.24 165.33 205.421 90.8511 166.246 205.375 90.457 
153.774 191.718 92.4702 151.334 192.498 92.755 152.199 195.256 91.8893 
158.431 203.868 92.1375 159.092 204.577 92.6983 159.379 204.76 92.6939 
159.824 204.903 92.5896 162.444 205.328 91.8397 153.847 191.443 93.2809 
150.652 194.746 93.1413 159.774 204.915 92.8863 160.016 204.94 93.1575 
147.608 190.619 96.2022 151.056 191.231 94.3411 152.394 191.336 93.7276 
154.289 191.488 93.6531 150.178 194.075 93.4424 164.555 202.25 93.951 
155.427 202.461 93.6632 159.227 204.709 94.0314 161.886 205.084 93.275 
147.225 190.661 96.3984 152.586 200.994 95.1335 164.764 203.242 93.6353 
156.556 203.8 94.8514 164.39 204.076 93.4741 157.946 204.395 94.5857 
158.457 204.545 94.352 161.7 204.925 93.8723 161.753 204.698 94.3489 
162.906 204.911 93.3465 163.194 204.465 93.894 147.164 189.918 97.418 
146.922 193.03 96.1724 153.312 202.821 96.7326 160.779 204.597 94.9429 
144.791 189.885 98.5593 145.873 189.629 98.3136 149.367 190.125 97.2681 
148.887 190.147 96.8227 150.974 190.637 96.8989 153.64 203.392 97.5427 
158.024 204.335 96.858 153.982 203.571 97.7114 146.267 189.401 98.6213 
147.459 189.567 98.2811 147.245 189.424 98.7514 143.658 190.039 99.1542 
151.188 190.861 97.9037 158.041 204.078 97.9339 159.057 203.988 97.4668 
141.525 188.935 101.112 141.446 188.946 101.149 141.71 188.944 101.072 
141.567 189.069 101.036 143.348 189.844 99.4845 149.264 190.176 98.9339 
160.212 203.529 97.2159 147.2 189.254 99.6492 147.183 189.24 99.9098 
141 189.086 101.489 142.194 188.884 100.952 144.585 188.645 100.621 
145.289 188.784 100.389 142.102 189.412 100.614 159.094 201.775 99.3047 
150.649 202.718 100.576 157.032 203.677 99.4614 141.623 188.271 102.079 
144.464 188.459 101.414 143.18 188.509 101.158 147.225 189.322 100.216 
140.553 189.723 101.75 141.313 191.621 101.038 158.997 202.568 99.1317 
153.031 203.394 100.722 153.672 203.452 100.746 154.604 203.557 100.441 
157.949 202.965 99.7371 140.263 188.097 102.982 144.902 188.596 101.983 
142.398 188.283 101.845 140.75 192.401 101.813 155.638 203.434 100.559 
156.206 202.746 101.279 157.965 202.587 100.056 139.186 188.116 103.609 
138.594 188.732 103.751 138.702 189.754 103.484 141.439 194.696 102.171 
156.446 200.698 101.984 154.267 202.87 102.237 155.123 202.691 102.068 
155.732 202.536 102.012 138.677 187.612 104.447 140.089 187.531 103.974 
139.837 187.324 104.577 137.436 187.999 104.914 138.892 190.937 103.376 
141.157 197.133 104.43 155.725 202.404 102.115 135.825 186.89 106.537 
137.162 186.865 105.957 137.061 187.228 105.631 140.775 187.405 105.439 
136.866 187.473 105.585 137.408 191.109 104.97 143.478 200.123 105.573 
153.141 201.927 104.303 154.139 201.463 104.019 137.998 186.514 106.312 
137.521 186.55 106.28 135.998 189.048 106.026 140.636 197.554 105.617 
153.896 199.844 104.763 154.017 200.838 104.491 146.606 201.777 105.662 
135.315 185.867 107.902 136.496 185.909 107.585 138.639 186.464 107.58 
153.11 200.391 105.458 144.3 200.862 106.731 153.633 200.988 104.754 
150.703 201.762 106 152.552 201.202 105.429 133.489 185.811 109.003 
133.379 186.487 108.684 132.976 186.999 108.935 134.169 189.978 108.071 
134.812 192.129 108.427 151.061 198.209 107.358 141.341 199.487 108.072 
152.301 199.614 106.312 151.496 200.152 106.967 144.128 200.784 108.34 
147.586 201.523 107.584 134.045 185.066 109.671 135.433 185.404 108.729 
136.448 185.523 108.91 131.91 185.43 110.368 132.293 187.383 109.529 
141.536 199.769 108.797 131.12 183.921 111.795 130.68 185.515 111.247 
131.108 186.448 110.771 139.44 198.526 109.628 140.368 199.257 110.061 
142.875 200.29 109.956 145.249 200.703 109.749 145.786 200.813 109.515 
130.204 183.973 112.154 129.883 184.369 112.164 134.553 194.328 111.064 
137.99 197.62 110.806 148.914 199.164 109.807 147.314 200.464 109.984 
131.569 183.099 112.701 131.003 183.024 112.771 129.319 183.66 112.972 
130.198 183.263 112.786 130.083 187.668 112.129 131.595 190.399 111.717 
[...]
POINT_DATA 1906
SCALARS scalars float
LOOKUP_TABLE default
1 1 1 1 1 1 1 1 1 
1 1 1 1 1 1 1 1 1 
1 1 1 1 1 1 1 1 1 
1 1 1 1 1 1 1 1 1 
1 1 1 1 1 1 1 1 1 
1 1 1 1 1 1 1 1 1 
1 1 1 1 1 1 1 1 1 
1 1 1 1 1 1 1 1 1 
1 1 1 1 1 1 1 1 1 
1 1 1 1 1 1 1 1 1 
1 1 1 1 1 1 1 1 1 
1 1 1 1 1 1 1 1 1 
1 1 1 1 1 1 1 1 1 
1 1 1 1 1 1 1 1 1 
1 1 1 1 1 1 1 1 1 
1 1 1 1 1 1 1 1 1 
1 1 1 1 1 1 1 1 1 
1 1 1 1 1 1 1 1 1 
1 1 1 1 1 1 1 1 1 
1 1 1 1 1 1 1 1 1 
1 1 1 1 1 1 1 1 1 
1 1 1 1 1 1 1 1 1 
1 1 1 1 1 1 1 1 1 
1 1 1 1 1 1 1 1 1 
1 1 1 1 1 1 1 1 1 
1 1 1 1 1 1 1 1 1 
1 1 1 1 1 1 1 1 1 
1 1 1 1 1 1 1 1 1 
1 1 1 1 1 1 1 1 1 
1 1 1 1 1 1 1 1 1 
1 1 1 1 1 1 1 1 1 
1 1 1 1 1 1 1 1 1 
1 1 1 1 1 1 1 1 1 
1 1 1 1 1 1 1 1 1 
1 1 1 1 1 1 1 1 1 
1 1 1 1 1 1 1 1 1 
1 1 1 1 1 1 1 1 1 
1 1 1 1 1 1 1 1 1 
1 1 1 1 1 1 1 1 1 
1 1 1 1 1 1 1 1 1 
1 1 1 1 1 1 1 1 1 
1 1 1 1 1 1 1 1 1 
1 1 1 1 1 1 1 1 1 
1 1 1 1 1 1 1 1 1 
1 1 1 1 1 1 1 1 1 
1 1 1 1 1 1 1 1 1 
1 1 1 1 1 1 1 1 1 
1 1 1 1 1 1 1 1 1 
1 1 1 1 1 1 1 1 1 
1 1 1 1 1 1 1 1 1 
1 1 1 1 1 1 1 1 1 
1 1 1 1 1 1 1 1 1 
1 1 1 1 1 1 1 1 1 
1 1 1 1 1 1 1 1 1 
1 1 1 1 1 1 1 1 1 
1 1 1 1 1 1 1 1 1 
1 1 1 1 1 1 1 1 1 
1 1 1 1 1 1 1 1 1 
1 1 1 1 1 1 1 1 1 
1 1 1 1 1 1 1 1 1 
1 1 1 1 1 1 1 1 1 
1 1 1 1 1 1 1 1 1 
1 1 1 1 1 1 1 1 1 
1 1 1 1 1 1 1 1 1 
1 1 1 1 1 1 1 1 1 
1 1 1 1 1 1 1 1 1 
1 1 1 1 1 1 1 1 1 
1 1 1 1 1 1 1 1 1 
1 1 1 1 1 1 1 1 1 
1 1 1 1 1 1 1 1 1 
1 1 1 1 1 1 1 1 1 
1 1 1 1 1 1 1 1 1 
1 1 1 1 1 1 1 1 1 
1 1 1 1 1 1 1 1 1 
1 1 1 1 1 1 1 1 1 
1 1 1 1 1 1 1 1 1 
1 1 1 1 1 1 1 1 1 
1 1 1 1 1 1 1 1 1 
1 1 1 1 1 1 1 1 1 
1 1 1 1 1 1 1 1 1 
1 1 1 1 1 1 1 1 1 
1 1 1 1 1 1 1 1 1 
1 1 1 1 1 1 1 1 1 
1 1 1 1 1 1 1 1 1 
1 1 1 1 1 1 1 1 1 
1 1 1 1 1 1 1 1 1 
1 1 1 1 1 1 1 1 1 
1 1 1 1 1 1 1 1 1 
1 1 1 1 1 1 1 1 1 
1 1 1 1 1 1 1 1 1 
1 1 1 1 1 1 1 1 1 
1 1 1 1 1 1 1 1 1 
1 1 1 1 1 1 1 1 1 
1 1 1 1 1 1 1 1 1 
1 1 1 1 1 1 1 1 1 
1 1 1 1 1 1 1 1 1 
1 1 1 1 1 1 1 1 1 
1 1 1 1 1 1 1 1 1 
1 1 1 1 1 1 1 1 1 
1 1 1 1 1 1 1 1 1 
1 1 1 1 1 1 1 1 1 
1 1 1 1 1 1 1 1 1 
1 1 1 1 1 1 1 1 1 
1 1 1 1 1 1 1 1 1 
1 1 1 1 1 1 1 1 1 
1 1 1 1 1 1 1 1 1 
1 1 1 1 1 1 1 1 1 
1 1 1 1 1 1 1 1 1 
1 1 1 1 1 1 1 1 1 
1 1 1 1 1 1 1 1 1 
1 1 1 1 1 1 1 1 1 
1 1 1 1 1 1 1 1 1 
1 1 1 1 1 1 1 1 1 
1 1 1 1 1 1 1 1 1 
1 1 1 1 1 1 1 1 1 
1 1 1 1 1 1 1 1 1 
1 1 1 1 1 1 1 1 1 
1 1 1 1 1 1 1 1 1 
1 1 1 1 1 1 1 1 1 
1 1 1 1 1 1 1 1 1 
1 1 1 1 1 1 1 1 1 
1 1 1 1 1 1 1 1 1 
1 1 1 1 1 1 1 1 1 
1 1 1 1 1 1 1 1 1 
1 1 1 1 1 1 1 1 1 
1 1 1 1 1 1 1 1 1 
1 1 1 1 1 1 1 1 1 
1 1 1 1 1 1 1 1 1 
1 1 1 1 1 1 1 1 1 
1 1 1 1 1 1 1 1 1 
1 1 1 1 1 1 1 1 1 
1 1 1 1 1 1 1 1 1 
1 1 1 1 1 1 1 1 1 
1 1 1 1 1 1 1 1 1 
1 1 1 1 1 1 1 1 1 
1 1 1 1 1 1 1 1 1 
1 1 1 1 1 1 1 1 1 
1 1 1 1 1 1 1 1 1 
1 1 1 1 1 1 1 1 1 
1 1 1 1 1 1 1 1 1 
1 1 1 1 1 1 1 1 1 
1 1 1 1 1 1 1 1 1 
1 1 1 1 1 1 1 1 1 
1 1 1 1 1 1 1 1 1 
1 1 1 1 1 1 1 1 1 
1 1 1 1 1 1 1 1 1 
1 1 1 1 1 1 1 1 1 
1 1 1 1 1 1 1 1 1 
1 1 1 1 1 1 1 1 1 
1 1 1 1 1 1 1 1 1 
1 1 1 1 1 1 1 1 1 
1 1 1 1 1 1 1 1 1 
1 1 1 1 1 1 1 1 1 
1 1 1 1 1 1 1 1 1 
1 1 1 1 1 1 1 1 1 
1 1 1 1 1 1 1 1 1 
1 1 1 1 1 1 1 1 1 
1 1 1 1 1 1 1 1 1 
1 1 1 1 1 1 1 1 1 
1 1 1 1 1 1 1 1 1 
1 1 1 1 1 1 1 1 1 
1 1 1 1 1 1 1 1 1 
1 1 1 1 1 1 1 1 1 
1 1 1 1 1 1 1 1 1 
1 1 1 1 1 1 1 1 1 
1 1 1 1 1 1 1 1 1 
1 1 1 1 1 1 1 1 1 
1 1 1 1 1 1 1 1 1 
1 1 1 1 1 1 1 1 1 
1 1 1 1 1 1 1 1 1 
1 1 1 1 1 1 1 1 1 
1 1 1 1 1 1 1 1 1 
1 1 1 1 1 1 1 1 1 
1 1 1 1 1 1 1 1 1 
1 1 1 1 1 1 1 1 1 
1 1 1 1 1 1 1 1 1 
1 1 1 1 1 1 1 1 1 
1 1 1 1 1 1 1 1 1 
1 1 1 1 1 1 1 1 1 
1 1 1 1 1 1 1 1 1 
1 1 1 1 1 1 1 1 1 
1 1 1 1 1 1 1 1 1 
1 1 1 1 1 1 1 1 1 
1 1 1 1 1 1 1 1 1 
1 1 1 1 1 1 1 1 1 
1 1 1 1 1 1 1 1 1 
1 1 1 1 1 1 1 1 1 
1 1 1 1 1 1 1 1 1 
1 1 1 1 1 1 1 1 1 
1 1 1 1 1 1 1 1 1 
1 1 1 1 1 1 1 1 1 
1 1 1 1 1 1 1 1 1 
1 1 1 1 1 1 1 1 1 
1 1 1 1 1 1 1 1 1 
1 1 1 1 1 1 1 1 1 
1 1 1 1 1 1 1 1 1 
1 1 1 1 1 1 1 1 1 
1 1 1 1 1 1 1 1 1 
1 1 1 1 1 1 1 1 1 
1 1 1 1 1 1 1 1 1 
1 1 1 1 1 1 1 1 1 
1 1 1 1 1 1 1 1 1 
1 1 1 1 1 1 1 1 1 
1 1 1 1 1 1 1 1 1 
1 1 1 1 1 1 1 1 1 
1 1 1 1 1 1 1 1 1 
1 1 1 1 1 1 1 1 1 
1 1 1 1 1 1 1 1 1 
1 1 1 1 1 1 1 1 1 
1 1 1 1 1 1 1 1 1 
1 1 1 1 1 1 1 1 1 
1 1 1 1 1 1 1 
NORMALS Normals float
0.107195 -0.16894 -0.97978 -0.0819131 -0.509525 -0.856548 0.0129866 -0.678254 -0.734713 
0.0900838 -0.565556 -0.819775 0.36694 -0.524522 -0.768265 -0.281558 -0.254161 -0.925271 
0.408361 -0.319732 -0.854993 0.530905 -0.0149899 -0.847299 -0.152684 0.20171 -0.967471 
0.290561 0.25305 -0.922789 0.19261 0.329061 -0.924457 -0.00917556 0.330322 -0.943824 
0.584467 -0.388749 -0.712231 0.776142 -0.448944 -0.442778 0.667594 -0.164765 -0.726065 
0.513718 0.340341 -0.787567 0.129825 0.389673 -0.911757 -0.221877 -0.579492 -0.784194 
0.694745 -0.557669 -0.454241 0.44507 -0.729625 -0.519192 -0.174925 -0.34845 -0.92086 
0.1522 -0.86592 -0.476464 0.695889 -0.148205 -0.702691 0.73959 -0.221838 -0.635449 
0.886927 -0.388685 -0.249569 0.618995 0.188245 -0.762502 0.833037 0.0437908 -0.551481 
0.897317 0.110876 -0.427234 -0.277795 0.304504 -0.911102 0.445396 0.306302 -0.841309 
-0.100107 0.60867 -0.787083 0.19408 0.480969 -0.854986 0.137255 -0.955276 -0.261933 
0.0480076 -0.890712 -0.452026 0.29032 -0.952158 -0.0954437 0.42355 -0.892279 -0.156346 
0.743305 -0.664181 -0.0797631 0.756199 -0.653706 0.0288402 -0.410002 -0.32453 -0.852396 
-0.320345 -0.00299853 -0.947296 0.957384 -0.122889 -0.261371 0.633236 0.228388 -0.739494 
0.687689 0.229825 -0.688668 0.447899 0.410042 -0.794513 0.60582 0.541714 -0.58269 
0.0820593 0.674312 -0.733873 -0.062838 0.806108 -0.588422 -0.191542 -0.643228 -0.741329 
-0.197518 -0.733152 -0.65075 0.351454 -0.933813 -0.0668865 0.937326 -0.347438 0.0265965 
0.80092 0.221503 -0.556295 -0.343862 0.641502 -0.685736 0.477634 0.475812 -0.738559 
0.728352 0.344958 -0.592037 -0.165019 0.844696 -0.509174 -0.380858 0.839791 -0.38691 
0.533678 0.814762 0.226605 -0.358446 -0.46666 -0.808545 -0.00494698 -0.829851 -0.557963 
0.207022 -0.946886 -0.246068 -0.386399 -0.213921 -0.897181 -0.495474 0.0981633 -0.863058 
0.8313 -0.539939 0.131936 -0.401958 0.252156 -0.880254 0.892696 -0.352161 0.281205 
0.987507 -0.0595672 -0.145885 0.979098 0.140933 -0.146644 0.972588 -0.0718411 -0.22116 
0.773854 0.333752 -0.538294 0.94715 0.320643 -0.00977188 0.847715 0.506625 -0.157197 
0.67341 0.690215 -0.264808 0.275156 0.641749 -0.715854 -0.178616 0.928774 -0.32477 
-0.0397087 0.948202 -0.315175 -0.24322 0.94438 -0.221339 0.855709 0.50324 0.120463 
0.732215 0.461596 0.500791 -0.0416932 0.976228 0.2127 -0.0416063 -0.845028 -0.5331 
0.362741 -0.91614 0.170607 0.533219 -0.81806 0.215536 -0.408547 -0.132084 -0.90313 
0.688744 -0.662922 0.293541 0.779898 -0.575673 0.24568 -0.485755 0.490448 -0.723535 
0.860135 -0.163521 0.483145 0.988357 0.136626 0.0669652 0.940556 -0.0597691 0.334338 
-0.357394 0.698103 -0.62042 0.935407 0.253076 0.246916 0.94577 0.145095 0.290632 
0.888103 0.12072 0.443509 -0.107332 0.986009 -0.127536 -0.00980345 0.994813 -0.101248 
0.22546 0.949445 0.218453 0.251835 0.814696 0.52235 0.789666 0.558721 0.253491 
-0.307841 -0.492961 -0.813771 -0.410221 -0.521786 -0.74797 -0.222983 -0.699758 -0.678688 
0.179622 -0.941985 -0.283548 0.355763 -0.922279 -0.151107 -0.432368 -0.233274 -0.871 
0.411365 -0.82575 0.385897 -0.557618 0.0570224 -0.828137 0.62331 -0.55391 0.551967 
0.912831 0.281145 0.296136 0.227515 0.942908 0.243232 0.200704 0.950482 0.23728 
0.643843 0.695213 0.319601 0.451646 0.85818 0.244016 0.471213 0.72897 0.49655 
0.241805 0.962531 0.122734 0.219659 -0.975014 -0.0331181 -0.233576 -0.741681 -0.62877 
-0.0834521 -0.893152 -0.441944 0.0612709 -0.947182 -0.314788 -0.435411 -0.328706 -0.838075 
-0.536833 0.234329 -0.810494 0.538307 -0.684898 0.49106 0.731654 -0.335783 0.593239 
-0.548272 0.565471 -0.616149 -0.314626 0.86452 -0.391939 -0.0709645 0.994513 0.0768574 
0.0677651 0.997129 0.0337837 -0.102823 0.97564 -0.193791 -0.057288 -0.919562 -0.388748 
-0.000871312 -0.960453 -0.27844 -0.0249677 -0.96802 -0.249627 -0.0722261 -0.953421 -0.292869 
0.0545445 -0.99032 -0.127638 0.0879267 -0.991147 -0.0994868 0.144868 -0.985067 -0.0930343 
0.0760015 -0.994244 -0.0755169 0.00125383 -0.942521 -0.334145 0.386103 -0.915332 0.114418 
0.451982 -0.751386 0.480762 0.525937 -0.823674 0.212017 -0.514656 0.762102 -0.392849 
0.27178 0.82462 0.496123 0.755137 0.168699 0.633489 0.0369611 0.96273 0.267927 
0.0772273 0.996843 0.0184543 0.0831793 0.978135 0.19061 0.539612 0.659995 0.522709 
-0.0640458 0.997918 0.00758372 0.0426319 -0.945648 -0.322386 0.109747 -0.99377 -0.0194218 
0.278842 -0.945097 0.170405 0.574039 -0.461825 0.676163 0.573108 -0.0435974 0.818319 
0.670494 -0.154974 0.725549 0.650854 0.278722 0.706189 -0.515693 0.773526 -0.368399 
0.394227 0.563903 0.725671 0.590551 0.511733 0.624002 -0.310523 -0.535324 -0.785496 
-0.171415 -0.695367 -0.697912 0.288758 -0.938938 0.187122 -0.494763 -0.175233 -0.851178 
0.478607 0.335899 0.811238 0.358292 0.631243 0.687866 -0.188999 0.976671 -0.101946 
-0.0736463 0.993726 0.084176 -0.0641422 -0.650312 -0.756955 -0.00801987 -0.712694 -0.701429 
0.0592896 -0.99701 -0.0495494 -0.553301 0.10319 -0.826565 0.118083 0.910652 0.395942 
-0.0467424 -0.900103 -0.433162 0.225014 -0.926602 -0.301291 0.132837 -0.933361 -0.333453 
0.206335 -0.976907 0.0554847 -0.590575 0.0632423 -0.804501 -0.573927 0.290177 -0.765771 
0.41774 -0.701865 0.576956 0.227786 0.741869 0.63067 -0.042966 -0.95148 -0.304697 
0.335928 -0.929532 -0.152063 0.461305 -0.793907 0.396117 0.340137 0.596675 0.726832 
0.100497 -0.974686 -0.199717 -0.586178 -0.192371 -0.787013 -0.613245 0.192923 -0.765971 
0.517513 -0.449188 0.728293 0.561834 0.094612 0.821822 -0.271995 0.942933 -0.192084 
0.212377 -0.977126 0.0109863 0.0960353 -0.995219 0.0178089 0.283567 -0.931587 0.227454 
0.413932 -0.908187 0.0621026 -0.580081 0.0346999 -0.81382 -0.450788 0.428848 -0.782866 
0.552229 -0.358371 0.752738 0.577502 -0.0374462 0.81553 0.459113 0.29829 0.836802 
0.0248949 0.960177 0.278282 0.37602 0.743909 0.552457 0.391939 0.694105 0.603823 
0.271018 0.857589 0.437139 -0.194089 -0.764839 -0.614289 -0.292314 -0.654664 -0.697114 
-0.0126915 -0.872968 -0.487613 0.080463 -0.930126 -0.358318 0.599377 -0.559269 0.572682 
-0.466595 0.630711 -0.620074 0.572649 0.0184143 0.819594 -0.413512 0.65974 -0.627496 
0.43109 0.471161 0.769525 0.308865 0.816004 0.488611 -0.495868 -0.250282 -0.831549 
-0.533431 -0.10214 -0.839654 0.556666 0.113329 0.82297 -0.00363776 0.984361 0.176126 
0.131787 0.858553 0.4955 0.282312 0.781083 0.556964 -0.414142 -0.472223 -0.778134 
0.0937276 -0.912111 -0.399085 0.157826 -0.974489 -0.159566 0.344544 -0.934923 -0.0849026 
-0.587177 0.0326556 -0.808799 -0.648289 0.243826 -0.721297 0.356844 0.766853 0.533479 
0.418749 0.450731 0.788347 -0.353763 0.910039 -0.216059 -0.0782995 -0.868841 -0.48886 
0.201717 -0.958234 -0.202724 -0.53659 -0.435293 -0.722905 0.328373 -0.942421 -0.0633586 
-0.62401 -0.0833066 -0.776963 -0.54429 -0.164695 -0.822571 0.323664 -0.939018 0.116133 
0.435631 -0.856886 0.275631 -0.613721 -0.0515494 -0.787838 -0.662012 0.24665 -0.707746 
-0.66695 0.419929 -0.615497 0.5856 0.208094 0.783434 0.566488 0.383357 0.729471 
0.403527 0.724559 0.558731 0.114435 0.973808 0.196477 0.0143937 0.999896 -0.000109821 
0.0165342 -0.921871 -0.387144 -0.471453 -0.450037 -0.758419 -0.661326 0.11371 -0.74143 
-0.515391 0.743432 -0.426241 -0.498618 0.750282 -0.434117 -0.39319 0.911416 -0.121336 
-0.269504 0.921687 -0.279035 -0.0959927 0.993471 -0.061658 0.142662 -0.966336 -0.21411 
-0.682579 0.190585 -0.705523 -0.299002 0.951167 0.0766716 -0.176204 0.976715 0.122394 
-0.240986 -0.763055 -0.599728 -0.0215887 -0.907293 -0.419944 -0.077467 -0.93989 -0.332575 
0.276689 -0.960046 -0.0419035 -0.686972 0.170479 -0.706404 0.602922 0.0670478 0.794978 
-0.628008 0.607666 -0.486156 -0.0531359 0.96988 0.237715 0.0284865 0.971889 0.233709 
-0.488801 -0.489826 -0.721903 -0.700978 0.51815 -0.49005 0.490287 0.351175 0.797681 
-0.420858 0.871045 -0.253298 0.462234 0.531073 0.710142 -0.235636 0.958869 0.158256 
-0.379951 0.924072 -0.0415722 0.172442 0.923844 0.341726 0.290523 0.84724 0.444726 
0.229662 0.873875 0.428483 0.309742 0.729606 0.609701 -0.0798948 -0.884209 -0.460207 
-0.641547 0.0331738 -0.766366 -0.621899 0.71798 -0.312645 0.158733 0.880948 0.445797 
-0.42263 -0.605678 -0.674195 -0.175019 -0.829606 -0.530209 0.217261 -0.974801 -0.0506097 
0.0176055 -0.967472 -0.252365 0.202922 -0.976454 -0.0732131 -0.619117 0.747666 -0.240187 
-0.0602139 0.988434 0.139188 -0.303559 0.927845 -0.216695 0.0949909 -0.954653 -0.282162 
0.231651 -0.918452 -0.3206 0.124218 -0.940777 -0.315448 -0.480788 -0.523609 -0.703332 
0.448965 -0.875237 0.179977 0.235063 0.871965 0.429445 0.238135 0.891498 0.385386 
0.167409 -0.782186 0.600132 0.167409 -0.782186 0.600132 0.167409 -0.782186 0.600132 
-0.442111 -0.294991 -0.847064 -0.418316 -0.55649 -0.717865 0.260739 -0.953756 -0.149549 
0.482136 0.642337 0.595775 0.342962 -0.937325 -0.061629 0.364743 -0.930482 0.0341363 
-0.609305 -0.323475 -0.723955 -0.252086 -0.639751 -0.726065 -0.357361 0.443486 -0.821957 
0.158677 -0.878208 -0.451191 -0.58693 -0.198972 -0.784808 0.682225 0.225257 0.695577 
-0.363123 0.907242 -0.212259 0.292845 0.849383 0.43908 -0.240236 -0.826776 -0.508653 
0.203312 -0.973866 -0.101239 -0.19375 -0.792974 -0.577628 0.468369 -0.883483 -0.0093271 
-0.647273 -0.0297392 -0.761678 -0.712994 0.00907021 -0.701111 0.602286 0.498136 0.623789 
-0.130527 0.990441 0.0446012 0.0333131 0.941356 0.335767 -0.0938902 0.993945 0.057086 
0.517191 0.585725 0.624052 -0.37974 -0.711914 -0.590742 0.33272 -0.942964 -0.0108084 
-0.103697 -0.891378 -0.441239 -0.752953 0.100557 -0.650346 0.215038 0.84974 0.481353 
0.488206 0.655039 0.576696 0.553909 0.506576 0.660732 -0.527972 -0.429621 -0.732579 
-0.545455 -0.321816 -0.773895 -0.655123 -0.0915949 -0.74995 -0.689295 0.399334 -0.604487 
0.733089 0.135912 0.666414 0.144016 0.903532 0.403595 0.274744 0.799279 0.53448 
0.563098 0.56103 0.606767 -0.310692 -0.714498 -0.626868 -0.0912835 -0.92111 -0.378448 
-0.083472 -0.911679 -0.402336 -0.570346 -0.286933 -0.769659 -0.690735 0.211 -0.691639 
-0.621767 0.541636 -0.565717 0.541777 0.498966 0.676396 -0.448499 -0.528313 -0.720925 
-0.32031 -0.694146 -0.644641 -0.38704 -0.615923 -0.686177 0.260653 -0.959652 -0.105492 
-0.563565 -0.416059 -0.713646 -0.689592 0.19817 -0.696557 -0.53534 0.738956 -0.40909 
0.394146 0.710639 0.582788 0.650122 0.403901 0.643588 0.0523938 -0.954869 -0.29237 
-0.0426045 -0.912615 -0.406594 -0.705384 -0.0171777 -0.708617 -0.698707 0.591664 -0.402172 
0.797943 -0.0279068 0.602087 0.721784 0.303268 0.622139 -0.367013 0.926885 -0.0786432 
-0.124891 -0.847714 -0.515542 -0.0460284 -0.890712 -0.452233 0.31153 -0.950235 0.00127494 
0.659533 0.209277 0.721955 -0.352432 0.934958 -0.0405651 0.540079 0.489911 0.684325 
0.352846 0.771089 0.53002 0.535581 0.479856 0.694905 -0.461889 -0.61592 -0.638201 
-0.671203 -0.315183 -0.670929 -0.677131 -0.0611413 -0.733318 -0.804895 0.174559 -0.567162 
-0.70542 0.413616 -0.57559 0.740258 -0.204589 0.640439 -0.497923 0.833069 -0.240972 
0.714291 0.0490201 0.69813 0.621699 0.306619 0.720746 -0.205149 0.964707 0.165088 
-0.00893937 0.966871 0.255108 -0.0459 -0.875694 -0.480679 -0.041363 -0.893237 -0.44768 
0.27014 -0.947694 -0.170001 -0.563959 -0.385967 -0.730054 -0.667375 0.0902247 -0.739236 
-0.366156 0.928359 -0.0638695 -0.316853 -0.528279 -0.787735 -0.685908 -0.0660991 -0.72468 
-0.659876 -0.0562573 -0.749265 -0.591604 0.775773 -0.219501 -0.512016 0.851251 -0.11494 
-0.256751 0.965506 0.0433273 -0.106752 0.926675 0.360384 -0.0861916 0.962987 0.255395 
-0.391237 -0.546462 -0.740482 -0.601656 -0.292997 -0.743076 -0.735671 0.573606 -0.360227 
-0.705105 0.628493 -0.328365 0.72867 0.346896 0.590512 0.17193 0.807757 0.563888 
0.18028 -0.901102 -0.394353 -0.135316 -0.768291 -0.625635 -0.696109 -0.0821034 -0.713226 
-0.357212 -0.647414 -0.673242 -0.768385 0.186541 -0.612199 -0.768035 0.346875 -0.53833 
-0.722323 0.674331 -0.153385 -0.161142 0.949192 0.27031 0.684959 0.506866 0.523372 
0.014552 0.909038 0.416459 0.0527353 -0.907955 -0.415737 -0.363206 -0.563398 -0.742068 
-0.50524 0.862757 0.0195729 0.206882 0.562007 0.800842 -0.0575122 0.684267 0.72696 
0.286133 0.819421 0.496666 -0.541086 -0.310804 -0.781426 0.515048 -0.854085 -0.0725592 
-0.727507 0.0574169 -0.683694 -0.780911 0.192377 -0.59428 0.682397 0.146012 0.716251 
-0.65389 0.752191 -0.0814703 0.590689 0.366287 0.718971 0.522487 0.43534 0.733135 
-0.0667273 0.897664 0.435599 0.133825 0.82286 0.552261 0.446186 0.596295 0.667346 
0.53473 0.477049 0.697487 -0.520741 -0.232351 -0.821488 -0.145137 -0.597541 -0.788594 
0.242063 -0.849339 -0.469073 -0.108488 -0.663251 -0.740492 -0.724965 -0.0795437 -0.684177 
-0.526288 0.839672 0.134056 0.365614 0.754378 0.545197 0.487692 0.653128 0.579293 
0.0467959 -0.749369 -0.660497 0.151762 -0.809177 -0.567627 0.523027 -0.790063 -0.319756 
-0.569672 -0.334335 -0.750796 -0.396883 -0.588559 -0.704331 -0.247916 -0.635502 -0.731215 
-0.831425 0.479199 -0.281249 0.602183 -0.765504 0.226671 0.820418 -0.245207 0.516514 
0.656498 0.391059 0.645044 0.385366 0.667569 0.63706 0.641097 0.316847 0.699001 
0.308922 -0.860546 -0.405004 0.252228 -0.867905 -0.427928 0.602779 -0.761609 -0.237929 
-0.668888 -0.0790671 -0.739147 -0.762781 0.130529 -0.633347 0.867095 -0.269535 0.418924 
-0.461209 0.868537 0.181463 -0.241405 -0.58638 -0.773229 0.131109 -0.756786 -0.640379 
-0.486575 -0.33194 -0.808121 0.585231 -0.810705 0.0161999 0.835416 -0.205555 0.509733 
-0.665683 0.746235 1.547e-06 0.774226 0.11395 0.622567 0.590702 0.504127 0.630021 
-0.0855643 -0.556094 -0.826703 0.126648 -0.804765 -0.579926 -0.52103 -0.216407 -0.825649 
-0.0819152 -0.716636 -0.69262 -0.627984 -0.13961 -0.765601 -0.776893 0.129491 -0.616174 
0.769063 -0.599072 0.222835 -0.638534 0.754671 0.15082 0.777759 0.146464 0.61126 
-0.00556468 0.880957 0.473164 0.322592 0.736453 0.594618 0.613392 0.543961 0.572587 
-0.534577 -0.078502 -0.841466 0.0605862 -0.675933 -0.734468 0.213153 -0.646522 -0.732513 
0.398635 -0.755826 -0.51944 -0.400326 -0.374799 -0.83622 -0.181751 -0.534305 -0.825521 
-0.613899 -0.0826986 -0.785041 0.567859 -0.793001 -0.22065 -0.208622 0.878551 0.42968 
0.55142 0.506774 0.662659 -0.23949 -0.446867 -0.861948 -0.245173 -0.40151 -0.882429 
-0.746562 0.0468897 -0.663662 -0.761797 0.1312 -0.634391 -0.821688 0.316921 -0.473698 
0.179306 0.736886 0.651804 -0.0191432 0.79691 0.603795 0.310588 -0.735195 -0.602513 
-0.788559 0.168753 -0.591352 -0.792625 0.11463 -0.598837 -0.262819 0.877109 0.402003 
0.281884 0.607069 0.742973 0.410644 -0.680657 -0.606694 -0.877916 0.338379 -0.338767 
0.614831 0.278724 0.737764 -0.591787 -0.0323066 -0.805447 -0.148014 -0.409063 -0.900422 
-0.357517 -0.3255 -0.875347 -0.00859973 -0.520359 -0.853904 0.523985 -0.543499 -0.655781 
0.484607 -0.598619 -0.637817 -0.337062 -0.264787 -0.903481 -0.222005 -0.307945 -0.92514 
0.0294556 -0.619737 -0.784257 -0.499725 -0.162942 -0.85072 -0.589932 0.181299 -0.786836 
0.855839 -0.380059 0.350849 -0.476228 0.807003 0.349218 0.234961 0.729675 0.642158 
0.544294 0.426895 0.722153 -0.451776 -0.209823 -0.867106 -0.357443 -0.310227 -0.880905 
0.553278 -0.597088 -0.580835 -0.64235 0.141175 -0.753297 -0.8524 0.485865 -0.193259 
0.660047 -0.710698 -0.243408 -0.775577 0.629419 0.0480774 0.845579 -0.524016 0.101997 
0.27836 0.687517 0.670699 0.624715 0.410493 0.664249 -0.0523234 -0.43367 -0.899552 
0.170794 -0.433574 -0.884784 0.391049 -0.556863 -0.732792 -0.129672 -0.352916 -0.926626 
-0.451523 -0.245206 -0.857905 -0.699195 0.161605 -0.696427 -0.758851 0.432518 -0.486902 
0.941705 -0.211455 0.261684 -0.062215 0.772075 0.632478 -0.0244094 0.799431 0.600262 