# vtk DataFile Version 4.2
vtk output
ASCII
DATASET POLYDATA
POINTS 570 float
227.113 175.441 170.381 227.311 175.392 170.437 227.172 175.554 170.369 
224.507 174.798 170.953 224.579 174.754 170.949 224.764 174.676 170.983 
226.491 174.968 170.67 227.252 175.863 170.39 226.177 177.816 170.601 
231.438 174.448 171.527 223.203 175.635 171.576 225.307 174.393 171.068 
224.921 178.031 170.991 227.973 179.732 171.167 230.147 179.125 170.998 
221.864 176.863 172.416 222.017 176.86 172.316 222.632 177.731 171.991 
224.045 177.882 171.177 223.717 178.293 171.552 232.03 172.45 172.927 
229.229 172.249 172.845 221.811 174.312 173.14 222.526 177.254 172.044 
222.701 178.116 172.215 225.244 180.722 172.411 220.334 174.225 174.218 
220.287 174.397 174.134 220.619 173.959 174.282 220.366 174.568 174.013 
220.193 174.556 174.2 220.66 174.761 173.751 221.16 174.781 173.353 
235.305 174.761 173.608 220.596 175.666 173.8 221.075 176.088 173.287 
231.719 183.392 173.846 234.296 171.165 174.902 220.168 174.343 174.319 
220.092 174.117 174.654 220.272 176.248 174.373 221.525 180.207 175.118 
228.207 184.492 174.941 219.937 173.449 175.627 219.834 173.441 175.747 
220.181 173.367 175.411 220.514 172.992 175.734 221.257 172.664 175.708 
219.81 173.519 175.713 219.778 173.752 175.702 237.369 179.987 175.081 
225.859 183.766 175.12 233.735 185.472 175.77 238.111 168.672 178.483 
238.041 168.684 178.473 238.115 168.734 178.456 238.095 168.648 178.548 
232.962 169.416 176.892 238.169 168.698 178.531 219.756 173.502 176.097 
220.011 173.186 176.254 219.078 174.313 177.015 219.05 174.138 177.334 
219.426 176.399 176.289 236.227 185.483 176.821 233.689 186.925 177.244 
237.877 168.662 178.569 237.978 168.799 178.402 238.248 168.617 178.774 
231.259 169.213 177.442 238.244 168.904 178.484 237.596 171.021 176.81 
219.954 173.116 176.781 219.051 175.076 176.915 221.443 182.298 178.065 
230.9 187.164 177.637 235.385 168.428 178.687 220.399 172.709 177.254 
219.408 173.55 177.466 239.483 183.987 178.327 235.509 186.796 177.678 
239.891 168.216 180.364 218.753 176.31 178.802 219.739 179.944 179.207 
226.855 186.595 178.993 229.437 187.901 179.483 239.236 167.617 181.039 
218.667 174.961 179.343 241.926 168.943 181.394 219.984 172.956 180.542 
218.716 174.807 179.665 218.639 175.67 180.727 242.586 183.505 181.643 
232.091 189.88 182.274 242.165 167.77 183.319 219.067 174.304 181.612 
242.74 173.977 180.509 219.11 179.158 182.805 241.474 167.456 183.081 
241.139 167.3 183.175 243.681 169.086 183.967 244.824 171.583 183.967 
220.703 182.935 182.908 244.046 183.964 184.046 235.933 189.863 182.892 
231.967 190.744 184.787 244.648 170.292 184.687 220.006 172.876 183.852 
245.72 174.822 184.499 233.256 190.849 184.752 242.43 167.306 184.943 
244.534 169.732 185.352 245.927 172.75 185.779 246.533 179.008 185.836 
245.986 182.733 186.127 240.962 187.702 184.571 222.843 170.256 185.742 
220.392 172.233 185.629 246.565 174.686 186.141 247.021 176.761 186.834 
241.739 187.597 186.28 228.945 189.881 186.458 234.749 190.878 186.398 
241.906 166.802 186.646 241.998 166.863 186.628 239.475 166.289 186.824 
242.176 167.068 186.576 246.046 172.056 187.324 246.888 174.007 187.728 
219.152 179.533 187.577 220.685 183.434 187.055 241.677 166.809 187.366 
227.912 167.866 187.282 244.134 168.986 187.614 233.019 191.116 187.608 
240.532 166.396 188.092 240.101 166.332 188.001 219.842 172.931 188.279 
246.675 173.119 188.793 229.019 189.951 188.891 231.272 190.768 188.93 
238.037 166.166 189.449 240.299 166.733 189.663 220.843 171.328 189.52 
219.073 177.141 189.889 246.498 183.979 190.091 244.624 170.51 191.064 
246.119 172.289 190.378 248.083 179.138 191.632 233.905 190.815 190.635 
237.784 166.316 190.846 237.539 166.448 191.547 246.915 174.176 191.489 
248.015 181.081 192.024 225.396 187.689 192.551 242.022 168.84 192.422 
221.439 170.842 192.635 247.742 176.858 192.981 247.559 182.793 192.691 
222.748 169.804 193.56 220.041 173.349 192.958 243.711 171.219 194.137 
246.218 173.495 193.048 248.212 180.911 194.027 220.373 181.826 193.535 
233.322 166.51 194.629 219.851 175.058 193.924 222.916 184.998 194.916 
223.428 169.835 196.739 223.538 169.792 196.915 223.429 169.885 196.938 
223.267 170.131 197.02 237.763 168.959 196.455 220.935 175.826 196.749 
248.092 178.928 197.384 220.628 179.638 195.916 241.103 187.306 197.607 
223.004 171.101 197.758 245.628 175.105 197.812 244.419 185.589 197.475 
239.422 188.041 197.676 236.573 188.948 197.436 227.601 168.302 197.566 
225.519 169.423 198.199 222.235 171.092 196.764 222.62 172.481 198.121 
243.873 174.184 198.687 229.75 188.34 198.855 228.629 168.405 198.293 
224.871 170.151 198.64 247.662 181.693 198.216 246.842 182.688 199.182 
233.601 188.848 199.342 229.388 169.338 199.66 230.316 170.244 200.53 
233.589 171.386 200.875 243.074 175.019 200.681 247.312 178.514 199.868 
247.6 179.782 199.864 227.286 170.347 200.256 247.337 179.149 200.356 
247.309 179.76 200.636 247.033 179.882 201.492 246.833 181.827 200.934 
227.587 170.632 200.535 227.131 173.902 201.899 244.177 177.177 202.885 
227.251 184.519 202.57 226.833 177.085 202.763 232.488 175.489 203.921 
235.617 175.438 203.872 246.634 180.334 202.744 226.685 183.011 202.78 
245.273 183.578 203.441 235.505 188.057 203.45 239.404 176.98 204.929 
243.864 178.335 204.738 227.675 181.116 204.101 246.407 180.853 203.397 
245.916 181.816 204.119 238.855 187.45 204.054 243.11 185.405 204.68 
230.702 180.285 206.164 244.916 182.856 205.955 243.61 184.55 205.96 
230.454 185.377 205.964 244.647 180.578 206.416 230.735 183.857 206.994 
243.999 183.438 206.885 230.902 184.548 207.023 231.528 184.992 207.353 
241.529 185.69 206.573 237.953 186.924 206.859 233.709 186.772 207.113 
235.608 187.039 207.001 239.405 180.038 208.15 243.321 180.788 207.595 
244.982 181.167 206.414 244.301 181.732 207.191 243.841 182.973 207.424 
239.381 186.152 207.514 234.405 186.412 208.036 237.01 186.683 207.703 
241.261 180.581 208.204 244.931 181.033 206.505 235.848 181.477 209.085 
242.903 181.849 208.254 243.893 181.586 207.525 242.469 182.516 208.543 
243.505 182.27 207.885 241.026 184.719 208.357 232.936 185.239 208.419 
233.475 185.64 208.508 241.699 182.101 208.93 240.471 183.771 209.25 
241.282 182.925 209.143 234.311 185.543 209.122 235.579 185.569 209.427 
236.614 185.819 209.124 241.52 182.274 209.047 237.053 183.077 209.924 
234.4 184.535 209.727 236.174 184.886 209.923 237.381 184.686 209.867 
237.654 184.947 209.683 237.937 183.777 209.928 234.788 184.762 209.884 
234.627 184.904 209.871 234.51 184.847 209.815 234.677 185.012 209.799 
234.471 184.989 209.745 234.564 184.949 209.841 236.348 183.535 246.436 
237.073 183.257 246.432 236.091 183.634 246.485 235.96 183.846 246.548 
236.61 183.965 246.407 238.294 183.63 246.396 236.167 184.215 246.58 
238.243 184.117 246.483 240.071 182.535 247.015 236.121 183.404 246.536 
238.653 183.566 246.477 238.856 183.794 246.576 234.98 184.452 247.076 
237.157 184.541 246.572 234.696 184.665 247.326 234.738 184.978 247.504 
235.437 184.945 247.118 237.398 185.166 247.08 240.459 181.51 247.542 
234.872 182.565 247.381 239.347 183.86 246.822 234.194 184.19 247.53 
239.806 184.185 247.182 234.477 185.16 247.864 238.53 185.138 247.301 
239.037 184.947 247.288 235.342 185.417 247.606 244.706 180.882 249.443 
241.73 181.866 247.912 243.759 181.629 248.831 243.369 182.448 248.691 
232.989 183.368 248.352 233.101 183.863 248.324 232.687 184.138 248.775 
239.707 185.251 247.988 241.943 180.325 248.722 243.676 180.767 249.099 
244.973 180.782 249.79 239.608 180.384 248.154 232.431 182.819 248.831 
232.249 183.709 249.058 242.243 183.701 248.392 242.109 184.591 249.046 
233.082 185.743 249.661 236.069 186.544 249.323 239.861 185.763 248.91 
245.137 180.452 250.365 230.665 182.858 250.349 231.497 184.395 250.045 
232.463 185.049 249.537 243.179 184.415 249.941 238.06 186.589 249.71 
231.6 179.143 250.803 244.61 179.503 250.762 244.916 179.747 250.759 
230.7 180.352 250.756 232.968 179.317 250.071 230.314 182.198 250.638 
230.831 183.542 250.306 230.467 184.618 251.118 242.732 184.987 250.272 
231.71 185.793 251.075 232.387 186.151 250.928 233.727 177.191 251.406 
245.161 179.858 250.984 245.994 181.491 252.116 238.841 186.994 251.243 
234.974 187.421 252.048 238.043 187.265 251.645 234.389 176.482 251.888 
234.802 176.17 252.124 246.298 180.185 252.897 245.456 183.364 252.899 
227.49 180.808 252.981 246.33 182.25 253.811 228.292 183.638 252.815 
244.703 184.288 253.158 227.683 172.142 255.335 230.719 171.508 255.335 
232.197 171.97 255.106 245.264 177.381 254.207 245.769 178.179 253.728 
246.792 179.021 254.368 247.17 180.553 254.677 230.044 186.754 254.312 
231.224 187.611 255.061 234.416 188.009 254.498 236.224 172.702 255.39 
225.051 176.112 255.491 243.871 176.085 254.857 247.251 179.411 254.972 
225.934 170.23 257.287 228.87 169.706 256.764 226.408 172.052 255.877 
224.89 172.873 256.478 225.767 183.88 255.738 247.007 177.465 256.941 
223.531 179.692 256.936 230.402 188.248 257.53 230.468 168.013 258.69 
234.768 168.801 258.709 223.497 172.383 257.946 246.297 176.391 257.169 
248.089 180.983 259.258 247.827 181.637 258.903 225.73 168.772 259.263 
221.491 174.329 259.593 222.534 181.784 259.149 225.462 186.385 259.73 
233.715 167.415 260.305 221.3 172.462 260.962 247.766 182.112 260.687 
230.86 189.263 260.574 237.378 188.65 259.591 228.278 167.276 261.823 
221.682 171.389 261.308 246.274 174.639 260.283 220.11 178.524 262.077 
223.309 184.885 261.231 234.137 166.683 262.233 236.654 167.27 262.008 
248.232 178.137 261.947 248.089 181.193 262.336 226.379 187.832 262.171 
236.04 166.177 263.745 236.017 166.168 263.789 236 166.209 263.7 
232.187 166.496 263.059 235.614 166.554 262.896 223.163 169.394 263.077 
221.315 171.141 263.086 220.544 172.357 263.019 248.282 180.031 262.786 
[...]
POINT_DATA 570
SCALARS scalars float
LOOKUP_TABLE default
1 1 1 1 1 1 1 1 1 
1 1 1 1 1 1 1 1 1 
1 1 1 1 1 1 1 1 1 
1 1 1 1 1 1 1 1 1 
1 1 1 1 1 1 1 1 1 
1 1 1 1 1 1 1 1 1 
1 1 1 1 1 1 1 1 1 
1 1 1 1 1 1 1 1 1 
1 1 1 1 1 1 1 1 1 
1 1 1 1 1 1 1 1 1 
1 1 1 1 1 1 1 1 1 
1 1 1 1 1 1 1 1 1 
1 1 1 1 1 1 1 1 1 
1 1 1 1 1 1 1 1 1 
1 1 1 1 1 1 1 1 1 
1 1 1 1 1 1 1 1 1 
1 1 1 1 1 1 1 1 1 
1 1 1 1 1 1 1 1 1 
1 1 1 1 1 1 1 1 1 
1 1 1 1 1 1 1 1 1 
1 1 1 1 1 1 1 1 1 
1 1 1 1 1 1 1 1 1 
1 1 1 1 1 1 1 1 1 
1 1 1 1 1 1 1 1 1 
1 1 1 1 1 1 1 1 1 
1 1 1 1 1 1 1 1 1 
1 1 1 1 1 1 1 1 1 
1 1 1 1 1 1 1 1 1 
1 1 1 1 1 1 1 1 1 
1 1 1 1 1 1 1 1 1 
1 1 1 1 1 1 1 1 1 
1 1 1 1 1 1 1 1 1 
1 1 1 1 1 1 1 1 1 
1 1 1 1 1 1 1 1 1 
1 1 1 1 1 1 1 1 1 
1 1 1 1 1 1 1 1 1 
1 1 1 1 1 1 1 1 1 
1 1 1 1 1 1 1 1 1 
1 1 1 1 1 1 1 1 1 
1 1 1 1 1 1 1 1 1 
1 1 1 1 1 1 1 1 1 
1 1 1 1 1 1 1 1 1 
1 1 1 1 1 1 1 1 1 
1 1 1 1 1 1 1 1 1 
1 1 1 1 1 1 1 1 1 
1 1 1 1 1 1 1 1 1 
1 1 1 1 1 1 1 1 1 
1 1 1 1 1 1 1 1 1 
1 1 1 1 1 1 1 1 1 
1 1 1 1 1 1 1 1 1 
1 1 1 1 1 1 1 1 1 
1 1 1 1 1 1 1 1 1 
1 1 1 1 1 1 1 1 1 
1 1 1 1 1 1 1 1 1 
1 1 1 1 1 1 1 1 1 
1 1 1 1 1 1 1 1 1 
1 1 1 1 1 1 1 1 1 
1 1 1 1 1 1 1 1 1 
1 1 1 1 1 1 1 1 1 
1 1 1 1 1 1 1 1 1 
1 1 1 1 1 1 1 1 1 
1 1 1 1 1 1 1 1 1 
1 1 1 1 1 1 1 1 1 
1 1 1 
NORMALS Normals float
-0.160149 -0.135596 -0.977735 0.210977 -0.314012 -0.925681 0.0246245 -0.0220465 -0.999454 
-0.234047 -0.128953 -0.963635 -0.298259 -0.587577 -0.752194 0.142413 0.0185136 -0.989634 
-0.0717041 -0.416563 -0.906275 0.0528231 0.0426873 -0.997691 -0.157468 0.275004 -0.94846 
0.222934 -0.376677 -0.899119 -0.592335 -0.197268 -0.781169 -0.0265866 -0.545148 -0.837918 
-0.159285 0.644802 -0.747569 -0.0611962 0.49159 -0.868674 0.301244 0.245941 -0.921284 
-0.693787 0.137239 -0.706983 -0.575485 0.00419543 -0.817802 -0.662858 0.239004 -0.709575 
-0.375972 0.205191 -0.903627 -0.352054 0.590541 -0.726168 0.27224 -0.565261 -0.778695 
-0.127795 -0.831639 -0.540412 -0.474493 -0.497077 -0.726478 -0.712346 0.148742 -0.685886 
-0.733633 0.382088 -0.561953 -0.330167 0.585507 -0.740386 -0.487979 -0.577241 -0.654728 
-0.633949 -0.342717 -0.693292 -0.479565 -0.6297 -0.611143 -0.498283 -0.298113 -0.814152 
-0.823753 0.00111254 -0.566948 -0.66759 -0.166893 -0.725583 -0.570428 -0.15227 -0.807109 
0.533509 -0.210655 -0.819141 -0.758962 0.0093123 -0.651068 -0.692063 0.00943734 -0.721775 
0.0327741 0.59389 -0.803879 0.205674 -0.674091 -0.709436 -0.855898 -0.310481 -0.41357 
-0.624232 -0.577012 -0.52668 -0.862861 0.179558 -0.472473 -0.703629 0.492421 -0.512277 
-0.19535 0.69568 -0.691279 -0.609162 -0.576963 -0.544092 -0.830203 -0.52661 -0.182881 
-0.576224 -0.583859 -0.571905 -0.432176 -0.805161 -0.406127 -0.316043 -0.902285 -0.293257 
-0.871078 -0.275174 -0.406821 -0.903014 -0.243613 -0.353863 0.601499 0.140523 -0.786418 
-0.37732 0.673498 -0.635633 0.193804 0.626616 -0.754846 0.33405 -0.718546 -0.610002 
-0.0747882 -0.717821 -0.6922 0.389497 -0.355669 -0.849583 0.144675 -0.943115 -0.299337 
-0.0370864 -0.898853 -0.436679 0.658152 -0.577251 -0.483339 -0.875338 -0.430845 -0.219444 
-0.588294 -0.783092 -0.201686 -0.878982 -0.37541 -0.294037 -0.939032 -0.307198 -0.154432 
-0.937518 0.184991 -0.294684 0.384626 0.525486 -0.758899 0.101908 0.786822 -0.608708 
-0.0386456 -0.896336 -0.441688 0.132594 -0.53123 -0.836787 0.375306 -0.835446 -0.401465 
-0.169846 -0.89337 -0.415984 0.556152 -0.416859 -0.718974 0.561783 -0.364019 -0.742893 
-0.641907 -0.748964 -0.164343 -0.952908 -0.0472008 -0.299564 -0.709862 0.651128 -0.268567 
-0.0802306 0.865406 -0.494606 0.0173321 -0.90521 -0.42461 -0.450897 -0.890507 -0.0607364 
-0.799142 -0.592556 -0.101243 0.639645 0.370508 -0.673482 0.266673 0.829585 -0.490585 
0.360697 -0.764917 -0.533666 -0.989409 0.129815 -0.0649436 -0.905125 0.344973 -0.24848 
-0.402866 0.815969 -0.414599 -0.20469 0.889626 -0.408249 0.00389701 -0.973963 -0.226671 
-0.991045 -0.118084 -0.0623418 0.558779 -0.601737 -0.570683 -0.653036 -0.757326 -0.00122712 
-0.958888 -0.279964 0.0464155 -0.993676 0.0141765 0.111391 0.730245 0.365571 -0.577148 
-0.126345 0.90385 -0.40877 0.562054 -0.761887 -0.321906 -0.922408 -0.367284 0.119441 
0.754248 -0.13601 -0.642349 -0.971631 0.236497 0.00166533 0.382689 -0.833947 -0.397594 
0.206318 -0.947972 -0.242449 0.778607 -0.521848 -0.348491 0.806599 -0.265491 -0.528122 
-0.858114 0.505936 -0.0875793 0.752253 0.494636 -0.435259 0.263855 0.900487 -0.345693 
-0.170721 0.973134 -0.15448 0.816922 -0.394367 -0.420849 -0.926139 -0.374459 0.045238 
0.846186 -0.205541 -0.491653 0.131685 0.971597 -0.196618 0.486431 -0.869724 -0.0834543 
0.848588 -0.511134 -0.136529 0.8981 -0.307288 -0.314629 0.853329 0.0821168 -0.514865 
0.897093 0.294475 -0.329406 0.499586 0.827913 -0.2549 -0.526704 -0.839209 -0.135319 
-0.700427 -0.712994 -0.0322811 0.885198 -0.207168 -0.41654 0.984946 -0.0657291 -0.159879 
0.542996 0.832965 -0.10642 -0.477159 0.866146 -0.148695 0.197841 0.978676 -0.0552421 
0.36109 -0.911479 -0.197028 0.602842 -0.759462 -0.24454 0.0104102 -0.999215 -0.0382209 
0.673189 -0.728103 -0.129163 0.87405 -0.476317 -0.095697 0.939875 -0.275129 -0.202332 
-0.987441 0.152001 0.0430848 -0.785224 0.61897 -0.0172979 0.598934 -0.758368 0.257207 
-0.272086 -0.955088 -0.11737 0.739792 -0.668382 0.0772942 -0.136026 0.990111 -0.0343005 
0.383057 -0.906128 0.179443 -0.06027 -0.986528 0.152085 -0.867591 -0.49687 0.0201574 
0.9285 -0.37073 0.0211538 -0.356583 0.928938 0.0996137 -0.258653 0.956366 0.135876 
-0.0809002 -0.996722 -0.00110169 0.182586 -0.952108 0.245262 -0.653831 -0.755666 -0.0384026 
-0.991277 -0.124014 0.0446245 0.751755 0.640206 -0.158114 0.753177 -0.633587 0.176898 
0.817629 -0.547035 0.17954 0.989688 -0.0192576 -0.14194 0.0962838 0.979685 0.175917 
0.142348 -0.960206 0.240295 0.107567 -0.960143 0.257982 0.916023 -0.397713 0.0522115 
0.99383 0.0631604 -0.0911707 -0.613822 0.785725 0.0765443 0.480837 -0.800216 0.358399 
-0.792175 -0.607733 0.0558623 0.940243 -0.315507 0.128056 0.897056 0.441909 -0.00285914 
-0.532581 -0.838363 0.116213 -0.900374 -0.376681 0.2178 0.658639 -0.6672 0.347907 
0.765485 -0.599464 0.233827 0.97966 0.193932 0.0515451 -0.891908 0.416005 0.177312 
0.0637012 -0.949127 0.308382 -0.943695 -0.138707 0.300332 -0.696841 0.650705 0.301656 
-0.552223 -0.825569 0.116125 -0.424206 -0.76746 0.480681 -0.592933 -0.656624 0.466128 
-0.603606 -0.599708 0.525367 0.349152 -0.757652 0.551413 -0.79848 -0.0380016 0.600821 
0.991932 -0.0450502 0.118493 -0.88154 0.140778 0.450632 0.370795 0.928647 -0.0112116 
-0.597846 -0.545279 0.587581 0.697899 -0.588942 0.407535 0.660201 0.744401 0.100009 
0.270605 0.962465 0.0208345 0.157781 0.987444 0.00765828 -0.274556 -0.836757 0.473769 
-0.335194 -0.875435 0.348221 -0.775035 -0.52078 0.357924 -0.702842 -0.215584 0.677891 
0.476704 -0.739556 0.475195 -0.437468 0.874001 0.211527 0.0402858 -0.871571 0.488611 
-0.412093 -0.57338 0.708106 0.910015 0.389263 0.142641 0.828958 0.508558 0.232802 
-0.0041564 0.981629 0.190756 -0.0527799 -0.760207 0.647534 0.137163 -0.674904 0.725046 
0.193214 -0.621286 0.759389 0.376566 -0.771573 0.512711 0.894384 -0.354967 0.27217 
0.955767 0.0764784 0.284008 -0.353148 -0.571177 0.740975 0.974819 -0.118777 0.188731 
0.975875 0.0397235 0.214686 0.851468 -0.299641 0.430369 0.896625 0.353814 0.26623 
-0.160022 -0.529168 0.833291 -0.26904 -0.4242 0.86468 0.426624 -0.744147 0.514041 
-0.784741 0.440248 0.436305 -0.604036 -0.152113 0.782306 -0.0617511 -0.573054 0.817188 
0.154864 -0.710694 0.686244 0.958583 0.106102 0.264314 -0.801714 0.28328 0.526314 
0.810979 0.543985 0.215393 0.0681544 0.974307 0.214665 0.120195 -0.735753 0.666498 
0.541745 -0.647424 0.536055 -0.63276 0.0124571 0.774248 0.947678 0.184794 0.260304 
0.91944 0.33162 0.211323 0.205808 0.959317 0.193273 0.550443 0.799407 0.240752 
-0.316845 -0.443436 0.838435 0.832782 0.360711 0.419955 0.624597 0.689295 0.367084 
-0.679307 0.490091 0.546218 0.705803 -0.516258 0.485098 -0.670071 0.0596416 0.739897 
0.683787 0.557567 0.470695 -0.689868 0.247702 0.680239 -0.569428 0.44056 0.694016 
0.462682 0.797844 0.386485 0.184838 0.893857 0.408478 -0.246273 0.895003 0.371912 
-0.0395181 0.953451 0.298947 0.00582274 -0.636988 0.770852 0.489869 -0.432192 0.757125 
0.878085 -0.242932 0.412251 0.65342 -0.182342 0.734707 0.638975 0.282444 0.715497 
0.311402 0.826678 0.468649 -0.257814 0.827873 0.498154 0.101806 0.893735 0.436891 
0.258959 -0.544765 0.797604 0.841016 -0.166195 0.514851 -0.134538 -0.495862 0.857916 
0.414725 -0.0848393 0.905983 0.632971 -0.125868 0.763875 0.502638 -0.074266 0.861301 
0.532448 0.0262424 0.846056 0.477083 0.636245 0.606286 -0.583855 0.582161 0.565863 
-0.506507 0.637264 0.580814 0.473594 -0.221486 0.852439 0.321662 0.260522 0.910309 
0.433971 0.146589 0.888921 -0.370799 0.61972 0.691704 -0.0893674 0.689775 0.718488 
0.0867284 0.725335 0.682911 0.180103 -0.268132 0.946397 -0.0354163 -0.181061 0.982834 
-0.550294 0.0136977 0.834858 -0.00311589 0.420644 0.907221 0.108056 0.315008 0.942918 
0.269445 0.604508 0.749646 0.198545 0.086068 0.976305 -0.103176 0.00137131 0.994662 
-0.117888 0.19993 0.972692 -0.514445 -0.0328529 0.856893 -0.0376219 0.621145 0.782792 
-0.633999 0.418536 0.650287 -0.366555 0.421011 0.829691 -0.174093 -0.0318341 -0.984215 
-0.0397372 -0.418729 -0.907241 -0.38502 -0.0896307 -0.918546 -0.388704 0.0866462 -0.91728 
-0.0690333 0.237459 -0.968942 0.138963 0.0258428 -0.98996 -0.201093 0.308597 -0.929693 
0.166311 0.355827 -0.919635 0.352213 -0.114379 -0.928905 -0.399058 -0.298437 -0.867 
0.275854 -0.112264 -0.954621 0.330142 0.207692 -0.920799 -0.41933 0.364815 -0.831308 
-0.0335593 0.540159 -0.840893 -0.521744 0.396886 -0.755159 -0.461504 0.524415 -0.715544 
-0.238 0.506409 -0.828798 0.0757293 0.791621 -0.606302 0.210331 -0.485532 -0.84854 
-0.422101 -0.284085 -0.860887 0.38277 0.348301 -0.855672 -0.595232 0.169634 -0.785445 
0.440804 0.382079 -0.812224 -0.478811 0.656967 -0.582352 0.213257 0.67968 -0.701823 
0.325402 0.565715 -0.757681 -0.173056 0.767833 -0.616834 0.731434 0.0275145 -0.681357 
0.364333 -0.345544 -0.864789 0.267698 -0.151325 -0.951545 0.458856 0.130145 -0.878927 
-0.568449 -0.0100891 -0.822657 -0.59988 0.189468 -0.777333 -0.595534 0.318524 -0.737484 
0.2824 0.70796 -0.647335 0.234756 -0.617552 -0.750679 0.259439 -0.430144 -0.864677 
0.830829 -0.111163 -0.545313 0.125071 -0.655896 -0.744417 -0.632593 -0.0631803 -0.771903 
-0.694445 0.192526 -0.693311 0.643354 0.46734 -0.606374 0.514391 0.658438 -0.549419 
-0.458788 0.660769 -0.594052 -0.162903 0.883754 -0.438681 0.346234 0.839356 -0.419051 
0.753356 -0.426786 -0.500308 -0.632213 0.0618332 -0.772324 -0.647004 0.327175 -0.688725 
-0.609505 0.486942 -0.625613 0.67746 0.539423 -0.500071 0.160806 0.899152 -0.407022 
-0.44846 -0.496141 -0.743457 0.4218 -0.697791 -0.578941 0.590568 -0.616396 -0.520851 
-0.55946 -0.221571 -0.798693 -0.337339 -0.468886 -0.816302 -0.66134 -0.0966102 -0.743839 
-0.636313 0.288309 -0.71553 -0.646604 0.430508 -0.629735 0.53018 0.806315 -0.26223 
-0.563048 0.577432 -0.591227 -0.4639 0.729306 -0.502902 -0.213053 -0.632233 -0.744909 
0.778239 -0.453887 -0.433971 0.912795 0.0783457 -0.400833 0.239488 0.944518 -0.224793 
-0.127607 0.922586 -0.364076 0.209972 0.967667 -0.139762 -0.159129 -0.625183 -0.764083 
0.0591757 -0.602427 -0.795977 0.851742 -0.222864 -0.474202 0.785334 0.492583 -0.374984 
-0.623401 -0.0948024 -0.776134 0.866253 0.453823 -0.208926 -0.7019 0.137489 -0.69888 
0.666509 0.734721 -0.1263 -0.232743 -0.346206 -0.90883 0.0250428 -0.63447 -0.772542 
0.0429412 -0.269465 -0.962052 0.600701 -0.669421 -0.437075 0.607958 -0.583468 -0.538472 
0.812192 -0.410018 -0.415004 0.945429 0.0671937 -0.318823 -0.437625 0.792521 -0.424729 
-0.184003 0.930332 -0.317215 -0.101902 0.957899 -0.268414 0.187038 -0.655648 -0.731535 
-0.722019 -0.0936581 -0.685505 0.39117 -0.739228 -0.548204 0.891202 -0.332675 -0.308361 
-0.463292 -0.616103 -0.637007 -0.141224 -0.700014 -0.700026 -0.459498 -0.383871 -0.80094 
-0.565513 -0.223395 -0.793908 -0.700986 0.440891 -0.560566 0.809913 -0.502461 -0.302611 
-0.788907 0.178342 -0.588065 -0.322048 0.886549 -0.332137 0.00152591 -0.840735 -0.541445 
0.31639 -0.755388 -0.573835 -0.673158 -0.496217 -0.548295 0.747598 -0.58809 -0.308623 
0.980885 0.168189 -0.0978635 0.854523 0.494699 -0.158312 -0.343701 -0.839637 -0.42057 
-0.807184 -0.277574 -0.520968 -0.855392 0.189389 -0.482117 -0.494385 0.797328 -0.346196 
0.135012 -0.89423 -0.426761 -0.827142 -0.388184 -0.406387 0.873313 0.486349 -0.0280981 
-0.178685 0.956889 -0.228986 0.217049 0.960439 -0.174489 -0.256057 -0.961627 -0.0985336 
-0.704402 -0.557703 -0.439072 0.749884 -0.61786 -0.236482 -0.924683 0.142069 -0.35324 
-0.738039 0.593236 -0.321512 0.0815489 -0.953466 -0.290262 0.39699 -0.769964 -0.499554 
0.972397 -0.210941 -0.099744 0.955356 0.295382 -0.00662455 -0.523451 0.831831 -0.184541 
0.161046 -0.9137 -0.373118 -0.19302 -0.958058 -0.211822 -0.275931 -0.835811 -0.47464 
-0.117795 -0.978101 -0.171588 0.306142 -0.829929 -0.466363 -0.473672 -0.879823 -0.0393169 
-0.782099 -0.579107 -0.230123 -0.920901 -0.326553 -0.212847 0.984076 0.0148379 0.177127 
-0.889435 0.396122 -0.228017 0.710278 0.70172 -0.0556195 -0.0361635 -0.999018 -0.0255922 
-0.293816 -0.891043 -0.345997 -0.0875465 -0.982843 -0.162342 0.146888 -0.791315 -0.593502 
0.275815 -0.925651 -0.259028 -0.767768 -0.639079 -0.0459427 0.938234 0.286194 0.194449 
0.930892 0.282527 0.231556 -0.363914 0.908898 -0.203646 -0.989953 -0.0148982 -0.140607 
0.9907 -0.0446721 0.128523 0.462544 0.881601 -0.0939824 -0.667747 -0.743076 0.0441766 
0.603574 0.783801 0.146129 0.600826 0.796902 0.0628865 -0.33254 0.942165 -0.0417317 
0.216006 -0.97468 -0.0577906 -0.124864 -0.992118 0.0105041 0.967818 -0.148926 0.202851 
-0.890106 0.450159 -0.0711871 0.571033 0.731953 0.371707 -0.309725 0.94964 0.0474688 
0.50649 -0.768198 -0.391586 0.933226 -0.339833 0.116632 -0.894292 -0.441897 -0.0704882 
0.861712 0.478751 0.16808 0.119436 0.989002 -0.0872387 0.923704 0.185262 0.335334 
0.658189 0.727177 0.194939 0.592671 -0.796068 0.122544 -0.881321 -0.461587 -0.101048 
-0.992388 -0.0750808 -0.0976215 0.727904 0.505156 0.463653 -0.510747 0.856367 0.0759847 
-0.824118 -0.557028 -0.102708 -0.949279 -0.312531 -0.0345633 0.905108 -0.0208215 0.424671 
0.527855 0.835239 0.154091 0.383102 0.910465 0.155841 0.0787918 -0.970426 0.228178 
-0.986924 0.160554 -0.0142765 -0.334265 0.92177 0.196487 -0.0912537 0.961787 0.258146 
-0.121766 0.987845 0.0966147 0.27632 -0.859286 0.430435 0.840292 -0.425233 0.336284 
0.82929 -0.203111 0.520599 0.415352 0.858175 0.301694 0.146718 0.956841 0.250857 
0.494546 -0.742772 0.451347 0.637049 -0.563589 0.525867 -0.181147 -0.955329 0.233523 
-0.480047 -0.869736 0.114517 -0.812064 -0.575269 -0.0980732 -0.757351 0.63664 0.145291 
0.599642 0.667362 0.441653 0.261415 -0.829592 0.493396 0.885976 -0.201738 0.417549 
0.653379 -0.402722 0.641023 0.216068 0.887106 0.40787 0.0163109 -0.918745 0.394513 
0.549589 -0.507829 0.663372 0.741677 -0.122422 0.659491 -0.992382 0.0859653 -0.0882477 
0.741379 0.0442825 0.669624 0.668097 0.198463 0.717118 0.00778992 0.885531 0.464515 
-0.758746 -0.648611 -0.060067 -0.962348 -0.262829 -0.0693324 -0.836524 0.482288 0.260049 
-0.687281 0.67654 0.264458 -0.348517 0.845312 0.404949 -0.382055 -0.876826 0.291909 
-0.937874 -0.346034 0.0255589 -0.980314 -0.0720715 0.183821 0.314438 0.741644 0.592531 
0.380731 0.627081 0.679568 -0.260113 0.84502 0.467206 -0.0344592 -0.89137 0.451964 
0.212671 -0.841827 0.496084 -0.26581 -0.891553 0.366714 0.488142 -0.536267 0.688575 
-0.750885 -0.637881 0.171113 -0.51723 -0.843519 0.144738 -0.898581 -0.386503 0.207769 
-0.980348 0.156786 0.119733 -0.94261 0.242472 0.229549 0.635193 0.387104 0.668342 
-0.574038 0.740074 0.350387 -0.424584 0.806036 0.412353 0.0672013 0.741479 0.667602 
0.0219969 -0.829241 0.558458 0 0.274721 -0.961524 -0.894427 -0.447214 0 
-0.98387 0.178885 0 0.98387 0.178885 0 0 1 0 
0.248338 -0.663163 0.706076 -0.607009 -0.711966 0.353051 0.543281 -0.352957 0.761753 
-0.892019 -0.363146 0.269122 -0.444693 -0.685502 0.576485 -0.90921 -0.218452 0.354422 
-0.93627 0.0301062 0.349988 -0.597081 0.612778 0.517685 0 0.274721 0.961524 
-0.821037 -0.416955 0.389932 -0.650571 -0.429281 0.626478 -0.924934 0.171989 0.338993 
-0.658763 0.407536 0.632413 -0.706808 0.280733 0.649317 -0.677671 0.366329 0.637624 
-0.856122 0.481821 0.186825 -0.144826 0.760355 0.633156 -0.0156275 0.726383 0.687112 
0.401209 -0.477227 0.781848 -0.722813 -0.298316 0.623337 -0.800226 -0.347287 0.488907 
-0.771447 0.0102581 0.636211 0.600294 -0.049946 0.798218 -0.89625 -0.0215969 0.443024 
-0.442664 0.555944 0.703545 -0.271294 0.66001 0.700561 0.376993 0.436926 0.816683 
0.0134219 -0.783726 0.620961 -0.167183 -0.829209 0.53335 -0.900327 0.0121951 0.435043 
-0.551039 -0.627981 0.549541 -0.510865 -0.475946 0.715886 -0.249734 -0.717887 0.649824 
-0.23263 -0.562378 0.793482 -0.682139 -0.0971198 0.724745 -0.588617 0.0762609 0.804807 
-0.366771 0.360347 0.857688 -0.536729 0.42217 0.730544 0.373168 0.190593 0.907976 
0.0921361 -0.569247 0.816987 0.323464 -0.458038 0.827993 -0.399731 -0.305044 0.864386 
-0.195401 -0.53475 0.822108 -0.0158276 -0.631618 0.775118 -0.150112 -0.56098 0.814106 
0.296936 -0.216351 0.930065 -0.54049 -0.181114 0.821625 -0.0118827 0.567014 0.823623 
-0.123155 -0.472146 0.872875 -0.306632 -0.334488 0.89112 -0.323211 -0.227952 0.918462 
0.0998425 -0.519903 0.84837 -0.536926 -0.256539 0.803678 -0.189038 -0.12219 0.974338 
-0.244641 0.0193344 0.969421 -0.53411 0.197912 0.821923 0.194398 0.0875691 0.977006 
0.246806 0.191653 0.949924 0.054915 -0.0868167 0.99471 -0.284463 -0.206697 0.936139 
-0.279828 0.172932 0.944347 -0.146382 0.166857 0.975054 -0.215273 0.467235 0.857525 
-0.0441136 0.356324 0.933321 -0.252469 0.0227607 0.967337 0.894427 -0.447214 0 

