# vtk DataFile Version 4.2
vtk output
ASCII
DATASET POLYDATA
POINTS 664 float
459.438 251.196 164.597 459.283 251.106 164.601 459.575 251.108 164.575 
456.893 250.857 165.068 457.074 250.614 165.01 458.366 250.513 164.745 
461.444 250.699 164.569 465.244 250.961 164.761 469.62 251.013 165.069 
456.694 251.012 165.179 458.785 251.051 164.705 462.853 251.251 164.744 
466.822 251.381 164.911 468.662 251.365 165.024 470.472 251.331 165.212 
457.233 251.332 165.227 457.558 251.487 165.291 459.171 251.57 164.959 
463.441 251.585 164.929 467.447 251.756 165.068 469.231 251.717 165.196 
457.578 250.033 165.092 459.019 249.899 164.889 458.666 249.671 165.13 
459.988 249.611 164.963 467.965 249.611 165.52 455.631 250.244 165.692 
455.43 250.43 165.719 456.221 250.391 165.332 457.959 250.262 164.892 
462.081 250.146 164.686 461.688 249.767 164.826 472.662 250.752 165.738 
455.266 250.613 165.773 455.639 251.028 165.728 456.581 251.378 165.573 
460.487 251.648 164.987 456.899 251.535 165.689 458.226 251.738 165.544 
463.675 252.08 165.481 455.836 249.931 165.965 458.826 249.261 165.662 
460.484 249.135 165.534 461.696 249.256 165.246 465.056 249.033 165.841 
473.212 250.375 166.027 473.436 250.452 166.064 455.049 250.861 165.959 
454.884 250.88 166.113 455.321 250.98 165.875 471.343 251.626 165.557 
455.963 251.316 165.912 469.419 252.454 165.676 458.608 249.167 165.987 
459.087 249.065 166.223 460.143 249.029 165.866 460.651 248.943 166.168 
461.84 248.95 165.824 463.178 248.868 166.162 466.583 248.998 166.116 
466.079 248.96 166.188 467.347 249.05 166.252 464.233 249.024 165.744 
469.055 249.544 165.987 468.496 249.374 166.203 469.641 249.641 166.142 
455.317 250.079 166.285 455.005 250.295 166.159 472.745 250.234 166.173 
473.856 250.385 166.226 473.98 250.354 166.258 454.691 250.424 166.246 
454.579 250.516 166.258 473.923 250.826 166.421 474.065 250.347 166.298 
474.133 250.357 166.329 454.506 250.565 166.343 454.481 250.65 166.333 
454.796 250.612 166.063 474.051 250.732 166.608 474.089 250.497 166.425 
474.122 250.39 166.374 474.038 251.899 166.762 474.602 251.608 167.152 
456.054 251.402 166.294 475.619 252.459 167.565 477.124 252.934 168.111 
456.479 251.536 166.22 465.135 252.503 166.283 471.03 253.246 166.624 
471.652 253.025 166.534 474.639 252.963 167.277 474.221 253.321 167.352 
458.319 249.189 166.47 460.336 248.985 166.481 464.118 248.957 166.626 
466.394 248.995 166.53 456.04 249.792 166.532 455.666 249.935 166.466 
469.126 249.522 166.486 455.267 250.098 166.451 471.362 250.042 166.537 
473.609 250.32 166.391 473.888 250.328 166.27 454.59 250.467 166.323 
474.029 250.329 166.336 474.118 250.341 166.336 474.085 250.362 166.38 
454.527 250.58 166.435 454.464 250.63 166.39 474.239 251.125 166.928 
474.375 251.328 167.403 473.938 250.873 166.969 473.88 250.597 166.675 
474.024 250.464 166.478 454.541 250.707 166.389 475.356 251.846 167.903 
476.361 252.445 167.943 477.67 252.857 168.338 454.829 250.9 166.347 
455.641 251.187 166.453 478.682 253.131 168.648 458.834 251.836 166.347 
467.414 253.188 166.959 478.342 253.431 168.599 467.712 253.436 167.647 
468.262 253.546 167.263 473.171 253.578 167.338 468.113 253.643 167.585 
474.347 253.826 167.899 457.986 249.306 166.563 459.227 249.175 166.735 
460.859 249.055 166.771 455.894 249.866 166.597 459.687 249.308 166.998 
467.956 249.483 166.978 455.118 250.2 166.511 455.848 249.988 166.69 
470.794 250.211 167.219 455.191 250.263 166.608 454.491 250.642 166.428 
454.606 250.644 166.48 454.742 250.526 166.52 472.49 250.884 167.652 
481.689 252.527 169.76 454.731 250.754 166.49 470.689 251.876 168.642 
474.565 251.627 168.092 476.384 252.135 168.49 477.241 252.341 168.624 
478.936 252.644 168.973 480.825 252.887 169.247 483.523 252.606 169.804 
484.059 252.802 169.766 456.125 251.286 166.654 460.101 251.764 166.795 
460.303 251.602 167.065 462.963 251.976 166.977 483.605 252.942 169.67 
484.859 252.918 169.919 457.894 251.658 166.671 466.082 252.618 167.343 
467.349 253.066 167.795 479.82 253.406 168.987 484.175 253.169 169.824 
467.94 253.532 167.944 477.842 253.802 168.696 483.838 253.32 169.839 
470.354 253.914 167.808 473.142 253.94 168.056 477.979 253.917 168.934 
468.463 253.884 167.984 460.213 249.506 167.243 456.222 250.154 166.91 
456.978 250.086 167.08 462.601 249.71 167.506 455.723 250.428 166.851 
468.471 250.619 167.943 455.937 250.68 166.928 471.482 251.029 168.025 
484.01 252.493 170.008 487.772 252.3 170.621 489.588 252.231 171.012 
456.29 251.167 166.853 457.015 251.09 167.102 457.097 251.245 167.04 
461.727 251.188 167.577 466.371 251.409 168.061 488.199 252.571 170.583 
458.594 251.398 167.099 462.029 251.41 167.469 466.608 252.324 167.883 
486.845 252.863 170.356 489.489 252.581 170.828 489.107 252.751 170.745 
468.046 252.913 168.231 485.599 253.335 170.274 488.408 252.934 170.653 
468.197 253.66 168.134 484.895 253.535 170.291 486.304 253.42 170.5 
469.078 253.979 168.016 480.33 253.866 169.621 483.084 253.794 170.188 
484.294 253.756 170.458 468.528 253.911 168.153 476.118 254.159 168.924 
463.216 250.047 167.675 456.51 250.62 167.089 457.208 250.572 167.223 
463.851 250.416 167.797 459.123 250.826 167.44 461.523 250.865 167.641 
467.004 250.85 168.068 479.811 252.448 169.857 488.174 252.039 170.999 
489.957 252.035 171.308 490.776 252.136 171.371 458.1 251.169 167.203 
473.256 252.126 168.901 475.269 252.265 169.076 478.42 252.456 169.542 
492.203 252.377 171.51 494.144 252.486 171.921 491.473 252.69 171.328 
470.6 253.003 168.801 492.409 253.002 171.703 468.396 253.658 168.269 
486.082 253.582 170.637 487.772 253.419 170.881 490.42 253.258 171.333 
468.557 253.834 168.297 469.353 253.915 168.303 475.217 254.131 168.993 
478.878 253.985 169.686 482.918 253.924 170.417 482.535 253.957 170.533 
486.241 253.693 170.939 468.582 253.907 168.256 468.762 253.948 168.239 
476.571 254.134 169.225 483.819 253.948 170.772 488.974 251.886 171.401 
489.992 251.886 171.511 480.584 252.494 170.33 482.327 252.437 170.668 
487.267 252.046 171.141 494.544 252.314 172.208 495.684 252.429 172.391 
477.075 252.586 169.615 472.259 253.246 169.105 494.506 252.902 172.135 
497.3 252.813 172.72 474.065 253.699 169.287 490.708 253.304 171.48 
494.07 253.016 172.221 468.717 253.893 168.313 475.729 254.065 169.305 
475.962 253.972 169.472 477.69 253.952 169.795 489.829 253.463 171.595 
481.455 252.588 170.779 488.03 251.958 171.503 496.072 252.427 172.595 
474.384 253.107 169.447 479.405 252.924 170.456 497.639 252.73 172.848 
498.172 252.804 172.966 475.096 253.463 169.567 476.926 253.528 169.988 
478.015 253.705 170.139 494.616 253.02 172.485 496.712 252.915 172.714 
484.966 253.856 171.476 489.403 251.88 172.07 491.649 251.885 172.215 
481.868 252.672 171.003 494.3 252.202 172.526 497.297 252.609 172.885 
497.037 252.559 172.901 498.5 252.781 173.051 498.651 252.79 173.078 
498.647 252.784 173.084 498.684 252.792 173.092 479.534 253.173 170.56 
481.375 253.092 171.073 482.562 252.998 171.435 497.744 252.692 172.963 
498.588 252.799 173.067 498.453 252.813 173.041 480.183 253.431 170.701 
480.841 253.649 170.74 483.825 253.532 171.679 484.499 253.666 171.753 
486.417 253.699 172.047 492.372 253.143 172.492 484.868 253.782 171.654 
488.832 252.003 172.079 487.515 252.324 172.093 492.671 252.069 172.731 
493.399 252.126 172.753 494.847 252.275 172.802 484.689 252.831 171.862 
496.883 252.584 173.034 498.548 252.775 173.093 498.225 252.751 173.065 
498.66 252.784 173.097 498.672 252.792 173.101 483.345 253.203 171.683 
498.613 252.801 173.089 485.22 253.546 172.025 497.699 252.856 173.027 
487.682 253.49 172.265 496.966 252.907 172.936 487.944 253.559 172.166 
490.082 252.257 172.599 492.469 252.136 172.869 491.888 252.308 172.948 
495.317 252.515 173.236 498.626 252.785 173.103 487.953 252.996 172.419 
492.481 252.494 173.059 497.395 252.715 173.1 498.246 252.787 173.087 
497.896 252.793 173.089 491.255 252.845 172.782 496.789 252.875 173.026 
494.176 252.409 173.215 496.577 252.822 173.097 495.02 252.591 173.293 
496.365 252.736 283.46 488.705 252.234 283.993 489.958 252.352 283.806 
495.258 252.394 283.56 495.64 252.424 283.537 488.891 252.676 283.802 
495.945 252.561 283.475 496.362 252.607 283.477 487.153 252.901 284.034 
486.709 253.017 284.141 488.449 252.869 283.848 495.721 252.629 283.47 
490.315 253.146 283.781 492.186 253.024 283.764 495.767 252.722 283.5 
496.706 252.724 283.5 494.56 252.863 283.683 496.097 252.776 283.553 
490.686 251.924 284.017 491.37 251.852 284.109 495.831 252.428 283.563 
486.276 252.747 284.277 486.781 252.389 284.351 498.37 252.725 283.63 
498.349 252.724 283.632 498.331 252.724 283.631 484.673 253.095 284.651 
497.432 252.672 283.602 497.284 252.705 283.57 498.305 252.723 283.629 
484.917 253.214 284.589 488.263 253.284 284.02 492.654 253.02 283.772 
496.965 252.735 283.548 485.549 253.457 284.566 487.251 253.512 284.32 
490.254 253.285 283.924 491.691 253.181 283.913 493.483 253.005 283.929 
491.165 253.293 284.042 489.171 251.857 284.296 490.58 251.751 284.322 
491.567 251.844 284.303 483.822 252.411 285.461 483.404 252.567 285.35 
487.194 252.219 284.418 487.887 252.044 284.48 492.307 251.973 284.198 
495.75 252.4 283.706 480.209 253.08 285.842 481.523 252.731 285.743 
483.404 252.791 285.17 496.632 252.555 283.699 498.313 252.723 283.634 
498.316 252.725 283.635 484.013 253.036 284.881 497.096 252.622 283.661 
497.738 252.69 283.644 498.04 252.716 283.625 498.289 252.726 283.632 
498.206 252.726 283.632 498.291 252.728 283.634 481.536 253.477 285.516 
497.141 252.743 283.652 497.965 252.724 283.637 498.214 252.727 283.636 
481.123 253.686 285.699 484.059 253.528 284.95 493.828 252.962 284.032 
496.035 252.8 283.748 480.631 253.856 285.984 482.399 253.811 285.504 
489.421 253.526 284.4 490.876 253.355 284.235 489.454 251.749 284.542 
[...]
POINT_DATA 664
SCALARS scalars float
LOOKUP_TABLE default
1 1 1 1 1 1 1 1 1 
1 1 1 1 1 1 1 1 1 
1 1 1 1 1 1 1 1 1 
1 1 1 1 1 1 1 1 1 
1 1 1 1 1 1 1 1 1 
1 1 1 1 1 1 1 1 1 
1 1 1 1 1 1 1 1 1 
1 1 1 1 1 1 1 1 1 
1 1 1 1 1 1 1 1 1 
1 1 1 1 1 1 1 1 1 
1 1 1 1 1 1 1 1 1 
1 1 1 1 1 1 1 1 1 
1 1 1 1 1 1 1 1 1 
1 1 1 1 1 1 1 1 1 
1 1 1 1 1 1 1 1 1 
1 1 1 1 1 1 1 1 1 
1 1 1 1 1 1 1 1 1 
1 1 1 1 1 1 1 1 1 
1 1 1 1 1 1 1 1 1 
1 1 1 1 1 1 1 1 1 
1 1 1 1 1 1 1 1 1 
1 1 1 1 1 1 1 1 1 
1 1 1 1 1 1 1 1 1 
1 1 1 1 1 1 1 1 1 
1 1 1 1 1 1 1 1 1 
1 1 1 1 1 1 1 1 1 
1 1 1 1 1 1 1 1 1 
1 1 1 1 1 1 1 1 1 
1 1 1 1 1 1 1 1 1 
1 1 1 1 1 1 1 1 1 
1 1 1 1 1 1 1 1 1 
1 1 1 1 1 1 1 1 1 
1 1 1 1 1 1 1 1 1 
1 1 1 1 1 1 1 1 1 
1 1 1 1 1 1 1 1 1 
1 1 1 1 1 1 1 1 1 
1 1 1 1 1 1 1 1 1 
1 1 1 1 1 1 1 1 1 
1 1 1 1 1 1 1 1 1 
1 1 1 1 1 1 1 1 1 
1 1 1 1 1 1 1 1 1 
1 1 1 1 1 1 1 1 1 
1 1 1 1 1 1 1 1 1 
1 1 1 1 1 1 1 1 1 
1 1 1 1 1 1 1 1 1 
1 1 1 1 1 1 1 1 1 
1 1 1 1 1 1 1 1 1 
1 1 1 1 1 1 1 1 1 
1 1 1 1 1 1 1 1 1 
1 1 1 1 1 1 1 1 1 
1 1 1 1 1 1 1 1 1 
1 1 1 1 1 1 1 1 1 
1 1 1 1 1 1 1 1 1 
1 1 1 1 1 1 1 1 1 
1 1 1 1 1 1 1 1 1 
1 1 1 1 1 1 1 1 1 
1 1 1 1 1 1 1 1 1 
1 1 1 1 1 1 1 1 1 
1 1 1 1 1 1 1 1 1 
1 1 1 1 1 1 1 1 1 
1 1 1 1 1 1 1 1 1 
1 1 1 1 1 1 1 1 1 
1 1 1 1 1 1 1 1 1 
1 1 1 1 1 1 1 1 1 
1 1 1 1 1 1 1 1 1 
1 1 1 1 1 1 1 1 1 
1 1 1 1 1 1 1 1 1 
1 1 1 1 1 1 1 1 1 
1 1 1 1 1 1 1 1 1 
1 1 1 1 1 1 1 1 1 
1 1 1 1 1 1 1 1 1 
1 1 1 1 1 1 1 1 1 
1 1 1 1 1 1 1 1 1 
1 1 1 1 1 1 1 
NORMALS Normals float
-0.0952506 0.448099 -0.888895 -0.143323 -0.112299 -0.983284 -0.0135754 0.111688 -0.993651 
-0.242672 0.153887 -0.957825 -0.235602 -0.139698 -0.961757 0.00677921 -0.359553 -0.9331 
-0.00229156 -0.160973 -0.986956 0.0565216 0.0251112 -0.998086 0.124726 -0.24606 -0.961196 
-0.380101 0.413682 -0.827279 -0.174904 0.269132 -0.947089 0.00135569 0.363998 -0.931399 
0.0316975 0.381689 -0.923747 -0.0426164 0.134057 -0.990057 0.297857 -0.097009 -0.949669 
-0.22931 0.640858 -0.732611 -0.118 0.876739 -0.466266 -0.150539 0.763873 -0.627563 
-0.0375974 0.576056 -0.816545 -0.0399422 0.252614 -0.966742 0.0922987 0.414626 -0.905299 
-0.153732 -0.646927 -0.746895 -0.0729535 -0.438473 -0.895778 -0.193737 -0.768715 -0.609543 
-0.0908122 -0.661593 -0.744344 0.143381 -0.703347 -0.696236 -0.321282 -0.449403 -0.833555 
-0.448165 -0.408824 -0.794991 -0.375918 -0.18705 -0.907578 -0.00502504 -0.387018 -0.922058 
0.0994166 -0.357882 -0.92846 0.0192257 -0.531434 -0.846881 0.306376 -0.00990706 -0.951859 
-0.344833 0.156926 -0.925454 -0.317253 0.8835 -0.344643 -0.317512 0.834483 -0.450361 
0.0119007 0.73293 -0.6802 -0.185222 0.926663 -0.32709 -0.125906 0.953787 -0.272834 
-0.0741336 0.775965 -0.626405 -0.359835 -0.865309 -0.348941 -0.124654 -0.861815 -0.491667 
-0.0598228 -0.853997 -0.516828 0.0381874 -0.787849 -0.614684 0.0167449 -0.954852 -0.296609 
0.122048 -0.753891 -0.645564 0.361386 -0.103775 -0.926623 -0.5091 0.316018 -0.800593 
-0.422352 0.874172 -0.239671 -0.424205 0.479928 -0.767931 0.275762 0.325834 -0.904316 
-0.385648 0.857433 -0.340711 0.0206427 0.666085 -0.74559 -0.254327 -0.927591 -0.273666 
-0.08333 -0.995553 -0.0439247 -0.0925767 -0.965294 -0.244208 -0.0494739 -0.992655 -0.110404 
-0.0449826 -0.995922 -0.0782093 -0.0158224 -0.998016 0.0609427 0.0861592 -0.955224 -0.28306 
-0.0137963 -0.999871 -0.00820982 0.189847 -0.980331 -0.0539438 0.0578511 -0.901106 -0.429723 
0.228853 -0.906996 -0.353531 0.211158 -0.973567 -0.0870658 0.239236 -0.963477 -0.120327 
-0.465502 -0.877195 -0.117635 -0.472452 -0.787997 -0.394779 0.0240231 -0.927609 -0.37278 
0.270155 -0.219203 -0.937532 0.3022 -0.260273 -0.917024 -0.504117 -0.731438 -0.4592 
-0.628166 -0.444743 -0.638444 0.743246 0.274982 -0.609893 0.281862 -0.752462 -0.595277 
0.756531 0.0436293 -0.652501 -0.832956 -0.535073 -0.141003 -0.789356 0.345965 -0.507174 
-0.52667 -0.0370925 -0.84926 0.899479 -0.336815 0.278375 0.970926 0.150851 0.185866 
0.747082 -0.292955 0.596696 0.455974 0.258398 -0.851656 0.636631 -0.370864 -0.676136 
-0.306617 0.947653 0.089105 0.428628 0.113504 -0.896323 0.326915 -0.223224 -0.918312 
-0.188984 0.980567 -0.0526656 -0.163427 0.985908 -0.0357367 0.0819299 0.735698 -0.672336 
0.160504 0.652727 -0.740396 0.345713 0.322574 -0.881152 0.265201 0.499248 -0.824876 
-0.172854 -0.924542 0.339623 -0.0744579 -0.960622 0.267698 -0.000250439 -0.91644 0.400172 
0.0358454 -0.983734 0.176017 -0.304676 -0.946765 0.103962 -0.395333 -0.88997 0.227302 
0.221249 -0.966801 0.127844 -0.456002 -0.878609 0.141806 0.14347 -0.975089 0.169167 
0.123733 -0.879572 0.459394 0.129828 -0.818741 -0.559292 -0.600986 -0.799076 -0.0171331 
0.0634055 -0.991266 0.115637 0.47232 -0.863195 0.17835 0.263837 -0.701308 0.662236 
-0.576783 -0.494497 0.650226 -0.976965 0.0229238 0.212163 0.877469 -0.394129 -0.273333 
0.616178 -0.785201 0.0615113 0.527188 -0.754378 0.391135 0.394724 -0.685947 0.611285 
0.460846 -0.49447 0.736967 -0.577126 0.737591 0.35055 0.446481 -0.882165 -0.149796 
0.4243 -0.625035 -0.65521 0.290783 -0.356913 -0.887727 -0.45401 0.890944 0.0096616 
-0.354118 0.867651 0.348972 0.264516 -0.220394 -0.93886 -0.0634034 0.95372 0.293935 
-0.333491 0.931386 -0.14596 0.28579 0.398288 -0.871602 -0.550652 0.833814 -0.0391929 
-0.141949 0.865747 -0.47993 0.109009 0.637348 -0.762826 -0.470515 0.860192 -0.196684 
0.126801 0.798482 -0.588513 -0.227168 -0.921508 0.314989 -0.203503 -0.873235 0.442772 
-0.0121578 -0.923859 0.382539 -0.29121 -0.74547 0.599559 -0.23654 -0.634596 0.735756 
0.093213 -0.767602 0.634112 -0.430053 -0.810661 0.397345 -0.347181 -0.596166 0.723914 
0.16966 -0.82297 0.542159 -0.302816 -0.303362 0.903479 -0.634009 0.249307 0.732038 
-0.343147 0.198208 0.91813 -0.295804 -0.106679 0.949273 0.163551 -0.770676 0.615881 
0.0736146 -0.849545 -0.522354 -0.385156 0.590123 0.709513 -0.0246766 -0.438429 0.898427 
0.298368 -0.925445 0.233512 0.326706 -0.893969 -0.30673 0.204108 -0.93463 -0.291216 
0.210042 -0.790886 -0.574789 0.155973 -0.434794 -0.88692 0.101479 -0.618831 -0.778942 
0.189052 -0.308851 -0.932132 -0.28023 0.838293 0.467692 -0.0459833 0.925335 0.376351 
-0.0686922 0.744135 0.664488 -0.274882 0.893935 0.354005 0.161374 -0.0449178 -0.985871 
0.248026 0.19561 -0.948799 -0.156929 0.893777 0.420162 -0.33535 0.867139 0.368253 
-0.545471 0.671109 0.50207 0.219988 0.351599 -0.909936 0.242265 0.378875 -0.893175 
-0.634964 0.508159 0.58189 0.249926 0.709675 -0.65871 0.205326 0.631504 -0.747692 
0.0238885 0.960426 -0.277508 0.0167909 0.92447 -0.380885 0.167621 0.874322 -0.455482 
-0.261739 0.949975 -0.17041 -0.124405 -0.542573 0.830746 -0.242342 -0.371206 0.896369 
-0.136075 -0.422176 0.896243 -0.0493134 -0.430284 0.901345 -0.273259 -0.36676 0.889279 
-0.0312953 -0.309115 0.95051 -0.303362 0.0812322 0.949407 0.157737 -0.696415 0.70009 
0.0828163 -0.82009 -0.56621 0.129978 -0.575262 -0.807576 0.273081 -0.509876 -0.815753 
-0.280074 0.58357 0.762236 -0.183548 0.351438 0.918042 -0.174239 0.521597 0.835211 
-0.103348 0.653827 0.749553 -0.0479788 0.10825 0.992965 0.177545 -0.15916 -0.971157 
-0.0694008 0.701286 0.709494 -0.15509 0.395504 0.905275 -0.182531 0.371634 0.910259 
0.177418 0.103885 -0.978637 0.255368 -0.277768 -0.926084 0.223861 0.0572265 -0.972939 
-0.323695 0.166718 0.931358 0.126666 0.814899 -0.565593 0.186618 0.377542 -0.906993 
-0.617133 0.503256 0.604881 0.194817 0.703064 -0.68392 0.206002 0.618561 -0.758251 
-0.0396835 0.991135 -0.126794 0.0674934 0.996291 0.0533741 0.104775 0.868602 -0.484307 
0.190952 0.881307 -0.432245 -0.474756 0.869978 0.13321 0.0735 0.986643 -0.145375 
-0.0182793 -0.208396 0.977874 -0.282647 0.107406 0.953192 -0.0944781 0.0842144 0.991959 
-0.0820534 -0.137285 0.987127 -0.0879688 0.231792 0.96878 0.0131515 -0.0458544 0.998862 
0.0302985 -0.219807 0.975073 0.0796311 -0.993236 -0.0845002 0.0024937 -0.91343 -0.406989 
0.18642 -0.632781 -0.751555 0.157254 -0.661154 -0.733585 -0.11339 0.491036 0.863728 
-0.0476651 -0.591666 0.804773 0.032911 -0.829666 0.55729 0.0524253 -0.981115 0.186187 
0.193727 -0.154562 -0.968804 0.243287 -0.341745 -0.907757 0.226684 0.325713 -0.917892 
-0.188949 0.15399 0.969838 0.20238 0.646765 -0.735349 -0.374635 0.119928 0.919383 
0.028772 0.888146 -0.45866 0.143117 0.866985 -0.47734 0.190276 0.64824 -0.737279 
-0.371387 0.355493 0.857727 -0.0325421 0.886763 0.461078 -0.241739 0.815503 0.525849 
0.078608 0.972885 0.21752 -0.0208298 0.986863 -0.16021 -0.0347205 0.996425 0.0770124 
0.0896016 0.954488 -0.284472 -0.424188 0.71773 0.552203 -0.102625 0.969557 0.222322 
0.0671718 0.984206 0.16379 0.103184 0.974189 -0.200772 0.0372034 -0.957772 -0.285111 
-0.0215764 -0.998384 -0.0525728 -0.043566 -0.954258 0.295793 -0.0683232 -0.981049 0.181313 
-0.128417 -0.991461 -0.022692 0.145073 -0.921062 -0.361384 0.260206 -0.664456 -0.700565 
-0.0359495 -0.889261 0.455986 -0.165639 0.0156665 0.986062 0.16268 0.778489 -0.606209 
0.246247 0.253462 -0.935478 -0.184993 0.422488 0.887289 0.192337 0.93833 -0.287304 
0.13059 0.952113 -0.276453 -0.127316 0.480459 0.867727 -0.154921 0.863405 0.480136 
-0.273496 0.580929 0.76663 0.0343454 0.92969 0.366739 0.127711 0.985314 -0.113342 
-0.0747007 -0.92456 0.373642 -0.155967 -0.980523 0.119366 0.141996 -0.989763 0.0143315 
-0.0958241 -0.172626 0.980315 -0.191517 -0.529932 0.826132 0.216673 -0.546342 -0.809051 
0.235077 0.342181 -0.909753 -0.129426 -0.143678 0.981125 -0.267006 0.101308 0.958355 
-0.153907 0.585421 0.795987 0.0658971 0.996402 -0.0532957 0.111889 0.935183 -0.336026 
-0.0387341 0.975117 0.21828 -0.0994811 -0.772489 0.627188 0.078107 -0.99369 -0.0804903 
-0.195656 -0.678718 0.707856 0.105397 -0.983088 -0.149764 0.162362 -0.804597 -0.571194 
0.173245 -0.951077 -0.255811 0.195857 -0.569544 -0.798285 0.271316 -0.243119 -0.931279 
0.17064 -0.924743 -0.340196 0.757115 0.0741323 -0.649062 -0.262526 0.195411 0.944931 
-0.281523 -0.0529826 0.958091 -0.256182 -0.365268 0.894958 0.166218 -0.973792 -0.155245 
0.235674 0.469871 -0.850693 0.142396 0.910428 -0.388386 -0.298232 0.331984 0.894899 
-0.227336 0.684118 0.693037 -0.226394 0.718391 0.657769 -0.176314 0.797217 0.577372 
-0.0428321 0.756166 0.652976 0.0255862 0.907783 0.41866 -0.138608 0.891411 0.431479 
-0.210712 -0.725195 0.65551 -0.129803 -0.6112 0.78076 -0.0841439 -0.926272 0.367342 
0.0737232 -0.978689 0.191659 0.126128 -0.985777 0.111067 -0.175841 -0.472549 0.863584 
0.101626 -0.823458 0.558202 0.0513669 -0.948039 0.313981 0.046519 -0.86157 0.505503 
0.201496 -0.935976 0.288702 0.173004 0.220857 0.959839 -0.251497 0.0947439 0.96321 
0.0693822 0.965479 0.25107 -0.157884 0.412009 0.897397 0.0315755 0.900287 0.43415 
-0.0322393 0.492957 0.869456 -0.0467707 0.996041 0.0755923 0.0976384 0.975779 0.195761 
-0.152394 -0.212097 0.965293 -0.0636497 -0.873664 0.482348 -0.162181 -0.456926 0.874595 
0.107249 -0.779828 0.616738 0.0116585 -0.470405 0.882374 -0.12521 -0.0833491 0.988623 
-0.131352 0.039672 0.990542 0.069448 -0.464073 0.88307 0.00188879 0.116484 0.993191 
0.0358956 0.375229 0.926237 -0.117449 0.343298 0.931854 -0.111944 0.963144 0.244586 
0.00892522 -0.681752 0.731529 -0.0460988 0.883381 0.466384 0.00123219 0.0444029 0.999013 
0.0377719 0.262281 -0.964252 -0.131262 -0.517967 -0.845269 -0.02512 -0.238655 -0.97078 
0.0277642 -0.775518 -0.630715 0.0692168 -0.679017 -0.730852 -0.00359338 -0.20189 -0.979401 
0.0194995 -0.440439 -0.897571 0.0434926 -0.208617 -0.97703 -0.166973 0.146654 -0.974994 
-0.179352 0.0833821 -0.980245 -0.0770498 0.126187 -0.98901 -0.0100491 0.366027 -0.93055 
-0.0312727 0.574924 -0.817609 0.0168134 0.820084 -0.571997 -0.045705 0.461816 -0.885798 
0.109128 0.430332 -0.89605 0.0153082 0.851157 -0.524689 0.0248302 0.944995 -0.326142 
-0.0217209 -0.639724 -0.768298 0.0532979 -0.870755 -0.488819 0.100083 -0.979204 -0.176474 
-0.226937 -0.263082 -0.937703 -0.214312 -0.533164 -0.818417 0.0310798 -0.94476 -0.326285 
0.0479723 -0.994585 -0.0921883 0.0437387 0.989996 0.134143 -0.301573 -0.215886 -0.92868 
0.111356 -0.752886 -0.648662 0.0955447 0.207672 -0.973521 0.0342164 -0.885394 -0.463579 
-0.262595 0.187465 -0.946521 -0.0137773 0.74908 -0.662337 0.0327643 0.907528 -0.418713 
0.0678505 0.845973 -0.528892 -0.127244 0.60658 -0.784773 -0.0265331 0.804914 -0.592798 
-0.0125339 0.851283 -0.524557 0.186243 0.975406 -0.117887 0.0696525 0.993013 -0.0952591 
0.0538328 0.851104 -0.52223 -0.0680984 -0.829834 -0.553839 0.0167871 -0.986383 -0.163608 
0.108406 -0.9939 0.0202487 -0.155617 -0.842233 -0.516166 -0.163288 -0.691811 -0.703374 
-0.172644 -0.881681 -0.439126 -0.178077 -0.844749 -0.504666 0.142779 -0.988695 -0.0457896 
0.0929886 -0.995441 -0.0212207 -0.213177 -0.272418 -0.938267 -0.202086 -0.630166 -0.749701 
-0.227228 -0.510903 -0.829063 0.171009 -0.950083 0.260956 0.10857 -0.292934 0.949949 
0.0868173 0.210179 0.973801 -0.291952 -0.0336442 -0.955841 0.143141 -0.96109 0.236257 
0.0831078 -0.948354 0.306135 0.0315303 0.33384 -0.942102 0.00943441 0.878136 -0.478317 
-0.0103068 0.831697 -0.555134 0.0813108 0.977602 0.19412 -0.282521 0.067607 -0.956876 
0.0499505 0.966303 0.252516 0.0175629 0.992832 -0.11822 -0.00499648 0.951044 0.309014 
-0.366177 0.229644 -0.901764 -0.21341 0.498709 -0.840086 0.141061 0.929146 0.341745 
0.0939949 0.960714 0.261138 -0.237781 0.716036 -0.656318 -0.154851 0.660241 -0.734917 
0.0133177 0.952567 -0.304038 0.129586 0.990326 -0.0496079 -0.049816 -0.997979 -0.0394394 
0.139711 -0.805108 0.576438 -0.184436 -0.770767 -0.609838 -0.134593 -0.988471 0.0693565 
0.175936 -0.932899 0.314238 0.185368 -0.930842 0.314915 0.113802 -0.972814 0.2017 
0.203219 -0.65546 0.727374 0.143117 -0.522345 0.840639 0.0684103 0.280069 0.957539 
0.00953516 0.638527 0.76954 0.0633605 0.447807 0.891882 -0.159581 0.154591 -0.975005 
-0.184503 0.444399 -0.876623 -0.178968 0.358168 -0.916344 0.30703 0.915391 0.260368 
0.131809 0.900146 0.415168 -0.10657 0.601937 -0.7914 -0.0123248 0.99092 -0.133884 
-0.074416 0.966541 -0.245479 0.0249268 -0.999002 -0.0370714 0.0121812 -0.805888 0.591942 
-0.0859319 -0.938253 -0.335107 -0.0415925 -0.996874 -0.0671704 0.156852 -0.584292 0.796241 
0.186705 -0.919275 0.346519 0.202639 -0.612175 0.764316 0.199581 -0.046625 0.978771 
-0.166935 -0.439957 -0.882366 0.235102 0.0925847 0.967551 0.18777 -0.0200336 0.982009 
-0.163481 0.190372 -0.968004 -0.239673 0.0658643 -0.968617 0.196257 0.501663 0.842507 
0.169196 0.584091 0.793858 0.133938 0.48269 0.865489 -0.225469 0.368645 -0.901812 
-0.352712 0.466826 -0.810967 -0.194542 0.553893 -0.809541 0.17379 0.886835 0.428161 
0.265316 0.76278 0.589724 0.157003 0.771688 0.616318 -0.182434 0.770502 -0.610774 
-0.126843 0.965756 -0.226331 0.0650739 0.992059 0.10763 -0.0486852 0.902969 -0.426939 
0.0416874 0.996424 -0.0734953 -0.233955 -0.176801 -0.956037 -0.0781929 0.0446114 -0.99594 
-0.0666219 -0.0943831 -0.993304 0.101928 -0.439782 -0.892302 0.0767192 -0.509238 0.857199 
-0.283621 0.303313 -0.909704 -0.171227 0.465903 -0.86811 -0.0493711 0.219632 -0.974333 
-0.0201552 -0.946634 -0.32168 0.0671078 -0.966763 0.246709 0.0756284 -0.896434 0.436676 
-0.165939 0.450257 -0.877344 -0.0535252 0.414596 -0.90843 -0.0769988 -0.484467 -0.871414 
0.186411 0.489556 0.851813 -0.472127 0.604966 -0.64118 0.20447 0.628676 0.750306 
-0.30459 0.795446 -0.523919 -0.438398 0.781829 -0.44334 -0.170608 0.734104 -0.657255 
-0.129127 0.881568 -0.454053 -0.16191 0.97746 -0.135486 -0.106106 0.989864 0.0943988 
0.116369 0.936836 0.329842 0.289986 0.594187 0.750233 0.0858576 0.992052 0.0919811 
-0.202438 -0.666195 -0.717777 -0.0195207 -0.464309 -0.885458 -0.361417 -0.393442 -0.845329 
-0.336457 -0.625565 -0.703892 -0.0511033 -0.41017 -0.910576 0.0881997 -0.588487 -0.803682 
0.085473 -0.665 -0.741936 -0.434552 -0.451241 -0.779452 -0.0542648 -0.183975 -0.981432 
0.026926 -0.361549 -0.931964 -0.438078 -0.0130216 -0.898843 0.102637 -0.898701 -0.426382 
0.182257 -0.663005 0.72609 -0.301689 0.697562 -0.649916 -0.215835 0.535074 -0.816769 
-0.00584292 0.347411 -0.937695 -0.163296 0.519226 -0.838891 0.0200604 -0.403003 -0.914979 
0.22096 -0.286315 0.932309 -0.282211 0.666989 -0.689552 -0.125377 0.805234 -0.579551 
-0.339543 0.453808 -0.823874 -0.230809 0.0908032 -0.968753 0.229677 0.275204 0.933548 
0.226322 0.186375 0.956056 0.204874 0.386166 0.89939 0.361297 0.393728 0.845247 
-0.0760033 0.989416 -0.123612 -0.00345352 0.960358 0.278749 0.143998 0.916489 0.373246 
-0.000192534 0.965781 0.259359 -0.0529524 -0.951514 -0.303015 -0.096346 -0.839806 -0.534268 
0.0723292 -0.828171 -0.555788 0.0301699 -0.989695 -0.139979 -0.288076 -0.939486 -0.185414 
-0.380386 -0.858506 -0.343911 -0.287672 -0.8923 -0.347915 0.071544 -0.779554 -0.622235 
-0.457925 -0.560985 -0.689638 -0.487919 -0.847193 -0.210235 -0.55076 -0.63789 -0.538293 
0.124949 -0.69339 -0.709646 0.138401 -0.918779 -0.369715 0.197178 -0.778174 -0.596294 
0.161517 -0.848083 -0.504647 -0.508933 -0.499556 -0.701022 0.430698 -0.755434 -0.49378 
0.415314 -0.872261 -0.258215 0.142407 -0.988185 0.0566626 0.156927 -0.940544 0.301248 
0.180512 -0.791769 0.583539 -0.289647 0.744166 -0.601932 0.254071 -0.348455 0.902234 
0.241426 -0.296198 0.924111 -0.242148 0.817713 -0.522215 -0.105324 0.780338 -0.616425 
-0.170002 0.926446 -0.335852 -0.347929 0.909122 -0.229001 0.331558 0.0981846 0.938312 
-0.482059 0.866028 -0.132723 0.158539 0.754532 0.636826 0.157256 0.838455 0.521789 
-0.221479 -0.96842 -0.114502 -0.29792 -0.934285 0.195844 -0.0264056 -0.999625 -0.00728773 
0.108138 -0.954685 -0.277279 -0.266719 -0.94489 0.189853 0.201719 -0.978497 -0.0430414 
0.183206 -0.823999 0.536155 -0.49474 -0.868665 -0.0255417 -0.620998 -0.641465 -0.450427 
0.068776 -0.384326 0.920632 0.251656 -0.836078 -0.487487 0.465139 -0.352233 -0.812144 
-0.165705 -0.982741 -0.0822361 0.571609 -0.782499 0.246899 -0.577939 0.0418209 -0.815008 
-0.759294 -0.650501 -0.0179167 -0.889715 0.0424404 -0.45454 -0.531649 -0.218621 -0.818263 
0.788076 -0.513075 0.340132 0.91709 -0.351161 -0.188767 0.878171 0.153421 -0.453076 
0.686403 0.591156 0.42354 0.26575 -0.541579 0.797539 -0.509494 0.545946 -0.665101 
-0.368897 0.78968 -0.490224 0.455258 -0.789584 0.411458 0.269406 -0.885927 0.377563 
-0.296636 0.913803 -0.277436 -0.255375 0.956077 -0.143877 0.314046 -0.187673 0.930674 
0.272055 0.245657 0.930397 -0.0708145 0.989079 -0.129262 -0.0864185 0.987619 0.130919 
-0.243786 0.96276 0.116885 0.21533 0.280541 0.935377 0.20523 0.544347 0.813368 
0.106256 0.581366 0.806674 0.0890731 0.457531 0.884721 -0.179529 0.973899 0.138892 
0.0879534 -0.981297 0.171231 0.121743 -0.968634 0.216627 -0.251133 -0.961184 0.114271 
-0.151592 -0.832556 0.532794 0.0231142 -0.875289 0.483047 0.228992 -0.845915 0.481655 
0.281436 -0.867802 0.409529 -0.524986 -0.812261 0.254208 0.572884 0.344463 0.74374 
-0.107669 -0.112159 0.98784 -0.589282 -0.259135 0.765242 -0.807393 0.300978 0.507472 
0.422798 0.168752 0.890373 -0.553004 0.827353 -0.0983555 -0.369918 0.915647 0.157324 
0.340001 -0.476052 0.811032 -0.126215 0.982776 -0.134982 0.308546 0.552151 0.774551 
-0.0848479 0.996356 -0.00871884 -0.0655233 0.920311 0.385661 -0.217799 0.943436 0.249986 
-0.256337 0.922201 0.289547 0.227744 0.0908913 0.96947 -0.0513505 -0.892759 0.447598 
-0.3805 -0.839905 0.387013 0.0366908 -0.674822 0.737068 0.0275404 -0.738628 0.673551 
-0.115136 -0.853648 0.507965 0.222717 -0.714339 0.663413 0.255607 -0.358187 0.897979 
0.26714 -0.756022 0.597551 0.275998 -0.675273 0.683982 0.3503 -0.42217 0.836099 
-0.443063 -0.601769 0.664507 0.3063 -0.0824726 0.948356 0.339128 0.192215 0.920894 
-0.413455 0.661041 0.626162 0.333185 0.325232 0.884993 -0.291649 0.950603 0.10628 
-0.0299562 0.929491 0.367626 -0.292875 0.917499 0.269109 -0.00869118 0.993573 0.112855 
-0.186103 0.946783 0.262616 -0.199036 -0.790372 0.579394 -0.116082 -0.598749 0.79248 
0.222797 -0.177567 0.958557 -0.273018 -0.43336 0.858871 -0.0864204 -0.472399 0.877138 