# vtk DataFile Version 4.2
vtk output
ASCII
DATASET POLYDATA
POINTS 342 float
459.424 251.164 164.596 459.271 251.077 164.601 459.56 251.074 164.574 
456.891 250.851 165.068 456.437 250.848 165.225 464.58 250.422 164.741 
467.778 250.628 164.949 470.103 250.538 165.278 456.691 251.006 165.179 
456.415 250.999 165.286 458.775 251.028 164.705 460.872 250.622 164.555 
462.759 251.086 164.732 464.662 251.038 164.804 468.178 250.848 165.02 
468.953 250.778 165.096 469.424 250.785 165.166 469.751 250.713 165.215 
457.55 251.47 165.288 459.586 251.445 164.845 459.15 251.527 164.953 
461.302 251.372 164.846 463.293 251.336 164.897 465.157 251.288 164.953 
457.576 250.029 165.092 459.015 249.89 164.89 458.664 249.666 165.13 
467.32 249.76 165.186 467.842 249.494 165.448 455.63 250.243 165.692 
455.43 250.429 165.719 462.533 249.724 164.865 468.825 249.822 165.297 
470.852 250.066 165.473 471.471 250.091 165.557 455.265 250.612 165.773 
471.225 250.41 165.583 472.203 250.181 165.684 455.638 251.025 165.728 
469.61 250.819 165.246 456.078 251.21 165.669 465.565 251.478 165.139 
466.184 251.472 165.167 468.117 251.22 165.249 456.894 251.523 165.686 
463.413 251.687 165.376 455.835 249.93 165.964 458.824 249.257 165.658 
460.479 249.127 165.527 461.687 249.239 165.24 465.022 248.994 165.781 
467.548 249.138 165.846 463.215 249.198 165.308 469.171 249.706 165.447 
472.716 250 165.781 472.88 249.983 165.826 472.673 250.049 165.779 
471.867 250.301 165.728 472.214 250.208 165.735 454.884 250.879 166.113 
470.677 250.611 165.609 455.961 251.311 165.911 460.178 251.703 165.189 
466.501 251.521 165.289 468.754 251.214 165.524 469.991 250.826 165.649 
468.446 251.309 165.599 458.606 249.164 165.982 466.527 248.944 166.001 
466.031 248.911 166.076 467.396 249.021 166.002 467.267 248.979 166.087 
464.208 248.992 165.702 469.418 249.465 165.874 455.004 250.295 166.159 
473.047 249.995 165.883 473.034 249.931 165.889 473.389 249.942 165.945 
473.301 249.936 165.925 454.691 250.424 166.246 454.579 250.515 166.258 
473.521 249.915 165.972 473.482 249.932 165.975 473.569 249.915 165.986 
454.506 250.564 166.343 454.481 250.65 166.333 454.796 250.612 166.063 
472.483 250.141 165.908 456.475 251.528 166.217 459.067 251.824 165.996 
466.216 251.599 165.852 458.316 249.184 166.463 459.538 249.036 166.47 
466.326 248.927 166.35 465.863 248.906 166.273 467.264 248.995 166.217 
456.039 249.791 166.53 455.666 249.934 166.465 465.028 248.959 166.45 
470.912 249.71 166.024 471.34 249.786 166.096 472.78 249.885 165.926 
454.59 250.466 166.322 473.486 249.904 165.985 473.565 249.909 165.99 
473.498 249.91 165.997 454.527 250.58 166.434 454.464 250.63 166.39 
472.653 249.997 166.041 454.541 250.707 166.389 454.829 250.899 166.346 
455.639 251.183 166.451 467.843 251.174 166.305 468.656 251.196 165.899 
456.337 251.478 166.401 459.455 251.806 166.258 464.985 251.635 166.213 
466.852 251.477 166.077 457.983 249.302 166.555 466.561 249.03 166.484 
455.893 249.865 166.595 465.975 249.146 166.69 455.118 250.199 166.511 
455.848 249.986 166.688 472.164 249.866 166.049 455.191 250.262 166.607 
470.169 249.885 166.425 472.58 249.928 166.048 473.084 249.908 166.007 
473.38 249.906 165.998 454.491 250.642 166.428 454.606 250.644 166.48 
454.742 250.526 166.519 471.223 250.077 166.216 454.731 250.753 166.49 
469.626 250.689 166.261 456.122 251.281 166.651 457.405 251.555 166.713 
460.026 251.653 166.729 461.164 251.374 167.107 465.907 251.343 166.596 
456.22 250.151 166.907 457.543 250.081 167.188 463.431 249.59 167.303 
465.995 249.632 167.123 455.721 250.425 166.849 455.935 250.676 166.925 
467.851 250.468 166.823 456.287 251.161 166.85 457.009 251.078 167.094 
457.09 251.232 167.032 461.342 251.162 167.338 461.169 251.007 167.429 
461.591 251.016 167.414 465.344 250.997 167.041 457.862 251.37 167.011 
457.883 250.318 167.297 466.319 249.873 167.184 456.507 250.613 167.084 
458.523 250.539 167.386 459.313 250.448 167.457 465.283 250.141 167.328 
466.717 250.076 167.147 460.586 250.615 167.513 458.86 251.093 167.26 
457.786 250.354 289.002 460.454 250.205 288.773 463.338 249.761 288.838 
465.233 250.175 288.894 457.623 250.525 289.056 457.735 250.687 289.098 
458.6 250.553 288.917 460.463 250.856 288.929 458.315 249.534 289.283 
461.652 249.244 289.074 466.426 249.431 289.287 456.854 250.057 289.438 
456.772 249.91 289.569 462.896 249.494 288.915 465.042 249.473 289.086 
466.712 249.58 289.252 467.92 249.735 289.435 456.026 250.218 289.76 
468.569 249.976 289.502 455.829 250.635 289.779 468.477 250.321 289.503 
456.489 250.842 289.583 467.953 250.577 289.512 457.159 251.121 289.603 
462.464 251.475 289.432 459.721 248.855 289.899 459.431 248.973 289.668 
462.465 248.747 289.709 466.257 249.246 289.469 466.796 249.131 289.792 
456.758 249.616 290.158 456.274 249.817 290.057 457.325 249.494 289.897 
458.09 249.282 289.771 464.665 249.035 289.553 468.744 249.524 289.851 
469.058 249.445 290.067 455.591 250.128 290.101 455.417 250.137 290.263 
455.317 250.26 290.178 469.617 249.784 289.862 470.623 249.88 289.996 
472.372 249.967 290.157 455.11 250.453 290.192 472.759 249.968 290.188 
472.959 249.99 290.211 454.949 250.803 290.317 457.578 251.527 290.044 
460.693 251.673 289.525 461.598 251.775 289.758 469.246 250.719 290.008 
465.207 251.663 290.059 458.592 249.016 290.126 458.235 249.133 290.051 
460.243 248.783 290.136 463.521 248.79 289.893 463.121 248.741 289.992 
467.188 249.101 290.061 467.678 249.154 290.226 456.974 249.527 290.444 
469.46 249.48 290.36 470.897 249.741 290.252 472.262 249.879 290.266 
472.992 249.945 290.219 473.27 249.941 290.237 454.781 250.46 290.473 
454.652 250.55 290.466 473.227 249.958 290.225 473.41 249.947 290.25 
473.452 249.949 290.235 473.611 249.944 290.235 473.595 249.942 290.236 
473.656 249.941 290.234 454.648 250.641 290.42 454.573 250.619 290.531 
454.531 250.681 290.5 454.842 250.584 290.289 472.874 250.036 290.25 
473.239 249.977 290.237 473.48 249.956 290.242 473.619 249.944 290.237 
454.575 250.709 290.473 454.738 250.769 290.45 472.462 250.114 290.297 
456.029 251.156 290.242 456.337 251.324 290.508 460.665 251.817 289.823 
467.209 251.388 290.093 468.86 250.986 290.293 458.166 251.73 290.421 
460.786 251.89 290.201 462.335 251.941 290.376 460.679 248.801 290.412 
457.457 249.445 290.64 459.65 248.945 290.62 461.162 248.892 290.706 
468.362 249.316 290.504 455.447 250.088 290.668 469.972 249.622 290.508 
473.1 249.953 290.288 454.68 250.525 290.541 473.169 249.984 290.275 
472.837 250.016 290.333 473.503 249.952 290.247 473.603 249.943 290.239 
454.591 250.658 290.604 454.53 250.685 290.553 472.399 250.099 290.367 
454.568 250.729 290.525 454.691 250.777 290.568 470.461 250.573 290.349 
471.302 250.353 290.392 455.333 250.985 290.604 467.757 251.348 290.358 
456.695 251.444 290.744 456.024 249.873 290.819 466.272 249.246 290.851 
455.323 250.187 290.755 455.924 249.98 290.899 462.188 249.284 291.285 
468.538 249.584 290.862 470.694 249.773 290.559 471.5 249.876 290.508 
455.412 250.236 290.873 455.171 250.332 290.771 471.934 250.061 290.5 
471.171 250.312 290.546 454.83 250.78 290.673 470.381 250.529 290.64 
455.757 251.053 290.909 456.279 251.257 291.01 458.435 251.761 290.961 
466.477 251.58 290.938 467.857 251.293 290.878 456.215 250.269 291.258 
461.718 249.585 291.574 465.579 249.708 291.481 469.013 249.822 290.968 
471.591 249.95 290.545 456.192 250.47 291.358 458.972 250.045 291.708 
455.797 250.666 291.232 456.038 250.604 291.336 461.393 250.19 291.904 
469.413 250.319 291.074 470.128 250.261 290.874 455.971 250.948 291.194 
457.107 251.426 291.26 458.711 251.712 291.288 462.43 251.645 291.577 
465.356 251.637 291.257 466.402 251.39 291.388 467.009 251.203 291.394 
467.48 251.281 291.12 457.518 251.546 291.239 456.444 250.63 291.47 
457.627 250.495 291.702 464.582 250.201 291.858 456.109 250.785 291.344 
456.834 250.762 291.581 464.987 250.51 291.912 465.94 250.76 291.85 
457.468 251.103 291.637 458.678 250.932 291.87 460.088 250.85 291.98 
466.798 250.892 291.672 466.79 251.054 291.597 457.873 251.512 291.438 
458.302 251.416 291.627 458.879 251.366 291.742 465.415 251.279 291.683 
464.556 250.801 291.939 459.156 251.166 291.858 460.736 251.253 291.888 
464.992 251.06 291.847 466.43 251.01 291.711 466.796 249.131 289.792 

POLYGONS 674 2696
3 1 0 2 
3 3 10 24 
3 10 2 11 
3 11 12 5 
3 8 3 4 
3 9 8 4 
3 18 3 8 
3 10 3 18 
3 1 10 0 
3 1 2 10 
3 12 11 21 
3 5 12 22 
3 13 5 22 
3 6 13 43 
3 14 6 43 
3 7 6 15 
3 15 6 14 
3 15 16 7 
3 7 16 17 
3 18 8 9 
3 0 10 19 
3 19 10 20 
3 11 2 0 
3 21 11 0 
3 42 13 23 
3 43 13 42 
3 39 15 14 
3 16 15 39 
3 20 10 18 
3 29 4 24 
3 24 25 26 
3 26 25 47 
3 50 31 27 
3 51 27 28 
3 11 25 24 
3 27 31 5 
3 13 27 5 
3 28 27 6 
3 6 27 13 
3 32 28 6 
3 33 37 34 
3 35 29 30 
3 4 29 35 
3 24 4 3 
3 11 24 10 
3 5 31 11 
3 7 32 6 
3 37 33 7 
3 35 38 40 
3 35 40 4 
3 4 40 9 
3 17 16 39 
3 7 17 39 
3 7 39 36 
3 7 36 37 
3 9 40 61 
3 61 18 9 
3 62 0 19 
3 21 0 62 
3 21 62 12 
3 12 62 22 
3 22 41 13 
3 62 41 22 
3 13 41 23 
3 23 41 42 
3 39 14 64 
3 14 43 64 
3 18 61 44 
3 41 62 45 
3 63 41 45 
3 42 41 63 
3 24 26 67 
3 46 24 67 
3 67 26 47 
3 47 25 48 
3 49 52 98 
3 50 51 69 
3 29 46 30 
3 24 46 29 
3 49 48 31 
3 31 48 25 
3 52 31 72 
3 72 31 50 
3 51 50 27 
3 28 32 73 
3 28 73 51 
3 32 53 73 
3 73 53 33 
3 33 34 101 
3 34 54 101 
3 31 25 11 
3 52 49 31 
3 7 53 32 
3 33 53 7 
3 54 34 37 
3 56 54 37 
3 55 54 56 
3 30 86 35 
3 37 36 57 
3 57 58 37 
3 35 59 38 
3 35 86 59 
3 85 59 86 
3 36 39 65 
3 36 65 60 
3 36 60 87 
3 36 87 57 
3 40 38 61 
3 42 66 43 
3 63 66 42 
3 43 66 64 
3 65 39 64 
3 61 114 88 
3 44 61 88 
3 18 44 88 
3 18 88 89 
3 18 89 20 
3 62 19 20 
3 62 20 89 
3 63 45 138 
3 91 67 92 
3 52 72 98 
3 68 93 69 
3 93 68 71 
3 92 67 47 
3 48 92 47 
3 49 92 48 
3 98 92 49 
3 72 50 98 
3 51 68 69 
3 71 68 51 
3 70 71 51 
3 51 73 70 
3 30 46 74 
3 101 99 33 
3 33 99 73 
3 55 75 76 
3 55 76 54 
3 75 77 78 
3 76 75 78 
3 78 77 81 
3 80 74 79 
3 80 30 74 
3 56 37 58 
3 56 75 55 
3 56 58 75 
3 58 87 75 
3 77 75 82 
3 82 75 87 
3 81 77 82 
3 81 82 83 
3 80 84 85 
3 80 85 86 
3 80 86 30 
3 82 87 108 
3 83 82 108 
3 60 113 87 
3 58 57 87 
3 38 59 110 
3 38 110 61 
3 113 60 65 
3 113 65 64 
3 62 89 115 
3 45 62 115 
3 63 138 90 
3 63 90 117 
3 66 63 117 
3 67 91 118 
3 69 93 94 
3 71 95 93 
3 95 71 70 
3 46 96 97 
3 46 118 96 
3 118 46 67 
3 94 50 69 
3 98 50 94 
3 73 95 70 
3 97 74 46 
3 122 74 97 
3 73 99 95 
3 124 99 101 
3 103 124 101 
3 103 101 76 
3 76 101 54 
3 103 76 78 
3 79 102 80 
3 79 74 102 
3 74 122 102 
3 124 100 99 
3 104 105 103 
3 81 104 103 
3 81 103 78 
3 81 83 104 
3 84 106 107 
3 85 84 107 
3 102 84 80 
3 102 106 84 
3 83 108 105 
3 105 104 83 
3 85 107 109 
3 110 85 109 
3 87 113 135 
3 135 108 87 
3 59 85 110 
3 61 110 111 
3 111 114 61 
3 88 114 137 
3 89 88 137 
3 89 137 115 
3 45 115 138 
3 138 139 154 
3 90 138 116 
3 138 154 116 
3 90 116 140 
3 90 140 117 
3 66 117 112 
3 113 66 112 
3 64 66 113 
3 93 95 119 
3 94 93 119 
3 96 120 97 
3 141 120 96 
3 141 96 118 
3 92 141 118 
3 91 92 118 
3 94 121 98 
3 121 143 98 
3 119 121 94 
3 95 121 119 
3 97 123 122 
3 97 120 123 
3 141 123 120 
3 95 126 144 
3 95 99 100 
3 126 95 100 
3 122 125 106 
3 122 106 102 
3 100 127 126 
3 100 124 127 
3 124 103 128 
3 124 128 127 
3 128 103 129 
3 103 105 129 
3 106 130 107 
3 131 130 106 
3 131 106 132 
3 162 126 133 
3 126 127 133 
3 108 133 127 
3 128 108 127 
3 105 108 128 
3 129 105 128 
3 107 130 109 
3 109 134 110 
3 109 131 134 
3 109 130 131 
3 162 133 135 
3 108 135 133 
3 111 110 134 
3 111 136 114 
3 111 148 136 
3 111 134 148 
3 114 148 137 
3 136 148 114 
3 148 150 137 
3 113 112 147 
3 147 135 113 
3 141 92 142 
3 143 121 144 
3 121 95 144 
3 123 145 122 
3 145 123 141 
3 143 160 92 
3 144 161 143 
3 162 144 126 
3 125 122 145 
3 142 158 141 
3 132 106 125 
3 132 125 131 
3 131 125 146 
3 145 146 125 
3 146 145 141 
3 146 134 131 
3 134 146 148 
3 148 158 150 
3 158 149 150 
3 152 153 151 
3 161 147 154 
3 135 147 162 
3 150 155 137 
3 150 149 155 
3 155 164 137 
3 151 139 138 
3 151 153 139 
3 139 153 154 
3 154 117 140 
3 112 117 154 
3 147 112 154 
3 115 137 164 
3 138 115 164 
3 140 116 154 
3 142 92 159 
3 156 142 159 
3 159 92 160 
3 92 98 143 
3 144 162 157 
3 161 144 157 
3 158 142 156 
3 141 158 146 
3 156 149 158 
3 159 149 156 
3 143 163 160 
3 153 163 143 
3 161 153 143 
3 162 161 157 
3 146 158 148 
3 155 149 159 
3 160 164 159 
3 164 155 159 
3 151 164 160 
3 163 151 160 
3 152 151 163 
3 152 163 153 
3 162 147 161 
3 151 138 164 
3 154 153 161 
3 167 172 168 
3 169 170 165 
3 166 165 171 
3 178 166 172 
3 167 178 172 
3 168 172 216 
3 165 170 171 
3 172 166 171 
3 173 174 191 
3 174 178 192 
3 176 165 173 
3 174 173 166 
3 167 168 179 
3 167 179 178 
3 180 175 179 
3 180 179 168 
3 177 182 184 
3 177 184 176 
3 176 184 165 
3 166 173 165 
3 178 174 166 
3 187 180 168 
3 181 180 187 
3 183 181 187 
3 165 184 169 
3 185 183 187 
3 186 169 184 
3 186 188 169 
3 169 188 170 
3 170 188 171 
3 188 172 171 
3 189 216 172 
3 187 168 216 
3 172 213 214 
3 189 172 214 
3 187 216 252 
3 185 187 252 
3 213 172 188 
3 191 174 219 
3 190 191 219 
3 193 222 194 
3 177 195 196 
3 195 177 197 
3 197 173 198 
3 198 173 217 
3 217 173 191 
3 192 219 174 
3 179 199 178 
3 178 199 192 
3 193 341 179 
3 193 179 175 
3 175 180 193 
3 180 222 193 
3 201 222 181 
3 181 222 180 
3 200 201 181 
3 202 203 204 
3 202 182 196 
3 203 202 196 
3 177 196 182 
3 197 177 176 
3 173 197 176 
3 199 179 341 
3 183 200 181 
3 201 200 205 
3 205 200 183 
3 205 206 226 
3 201 205 226 
3 208 202 204 
3 182 202 184 
3 185 205 183 
3 206 205 185 
3 228 226 206 
3 228 206 207 
3 207 206 185 
3 209 228 207 
3 209 207 210 
3 184 202 208 
3 207 185 215 
3 184 238 211 
3 210 207 215 
3 186 184 211 
3 249 186 211 
3 188 186 212 
3 214 256 189 
3 188 212 254 
3 251 213 188 
3 214 213 256 
3 216 189 256 
3 217 191 190 
3 223 222 201 
3 196 195 280 
3 280 195 224 
3 197 258 195 
3 195 258 224 
3 218 198 217 
3 218 258 198 
3 258 197 198 
3 199 221 192 
3 220 221 199 
3 222 199 341 
3 220 199 222 
3 201 261 223 
3 262 203 196 
3 201 263 225 
3 201 226 263 
3 226 228 227 
3 227 228 229 
3 231 203 230 
3 231 208 203 
3 208 204 203 
3 210 228 209 
3 210 232 228 
3 232 229 228 
3 233 229 234 
3 234 229 232 
3 234 235 236 
3 233 234 236 
3 236 235 237 
3 238 239 240 
3 231 239 238 
3 231 238 241 
3 208 241 184 
3 231 241 208 
3 210 248 242 
3 210 242 243 
3 210 243 232 
3 234 232 243 
3 244 234 243 
3 235 234 244 
3 245 235 244 
3 237 235 245 
3 238 240 246 
3 238 247 211 
3 238 246 247 
3 184 241 238 
3 210 215 276 
3 215 275 276 
3 248 210 276 
3 250 186 249 
3 186 250 212 
3 278 253 252 
3 253 185 252 
3 215 185 253 
3 215 253 275 
3 212 250 279 
3 188 254 251 
3 213 251 255 
3 213 255 256 
3 216 256 315 
3 190 219 259 
3 217 190 259 
3 259 219 257 
3 219 192 221 
3 224 258 280 
3 257 300 259 
3 260 300 257 
3 219 260 257 
3 221 260 219 
3 261 201 225 
3 280 262 196 
3 226 286 263 
3 226 287 286 
3 227 264 226 
3 229 233 227 
3 227 233 264 
3 230 265 231 
3 230 203 265 
3 203 262 265 
3 266 267 264 
3 233 268 266 
3 233 266 264 
3 233 236 269 
3 268 233 269 
3 236 237 269 
3 239 270 271 
3 240 239 271 
3 265 239 231 
3 265 270 239 
3 266 272 267 
3 266 242 272 
3 266 243 242 
3 244 243 266 
3 268 244 266 
3 245 244 268 
3 269 245 268 
3 237 245 269 
3 240 271 273 
3 246 240 273 
3 273 247 246 
3 274 247 273 
3 293 276 275 
3 272 248 276 
3 242 248 272 
3 211 247 274 
3 211 274 277 
3 249 211 294 
3 211 277 294 
3 294 250 249 
3 279 250 294 
3 278 298 253 
3 212 279 312 
3 212 312 254 
3 255 251 313 
3 251 254 313 
3 256 255 313 
3 216 315 252 
3 278 252 297 
3 258 259 280 
3 218 259 258 
3 217 259 218 
3 223 261 285 
3 222 223 285 
3 280 283 262 
3 221 284 260 
3 220 284 221 
3 281 284 220 
3 222 281 220 
3 285 281 222 
3 225 285 261 
3 263 302 225 
3 263 286 302 
3 264 290 287 
3 264 287 226 
3 282 288 289 
3 282 289 262 
3 262 289 265 
3 262 288 282 
3 267 290 264 
3 270 265 289 
3 267 291 290 
3 267 272 291 
3 274 273 271 
3 274 271 292 
3 292 271 270 
3 291 293 309 
3 291 276 293 
3 272 276 291 
3 274 292 277 
3 277 292 294 
3 295 279 294 
3 275 298 293 
3 275 253 298 
3 279 295 312 
3 254 312 319 
3 254 319 296 
3 256 313 314 
3 256 314 315 
3 252 315 297 
3 278 297 318 
3 278 318 298 
3 280 259 321 
3 299 280 321 
3 283 280 299 
3 305 321 259 
3 259 300 305 
3 260 284 300 
3 300 284 308 
3 284 281 322 
3 322 281 301 
3 281 285 309 
3 285 225 302 
3 287 290 303 
3 288 262 283 
3 288 283 306 
3 304 299 320 
3 304 306 299 
3 306 283 299 
3 321 320 299 
3 322 308 284 
3 309 322 301 
3 301 281 309 
3 302 309 285 
3 286 310 302 
3 310 309 302 
3 287 303 310 
3 287 310 286 
3 288 306 289 
3 304 307 306 
3 300 329 305 
3 308 329 300 
3 290 291 310 
3 303 290 310 
3 306 311 270 
3 289 306 270 
3 293 317 309 
3 298 317 293 
3 291 309 310 
3 270 311 292 
3 294 292 311 
3 294 311 295 
3 295 327 312 
3 327 319 312 
3 315 335 316 
3 318 317 298 
3 296 319 332 
3 313 254 296 
3 332 313 296 
3 297 315 316 
3 317 297 316 
3 318 297 317 
3 320 321 324 
3 308 322 336 
3 307 323 306 
3 307 304 320 
3 307 320 323 
3 321 327 324 
3 305 327 321 
3 325 336 322 
3 309 325 322 
3 326 325 309 
3 326 309 330 
3 311 306 323 
3 311 323 320 
3 320 324 327 
3 305 328 327 
3 337 328 305 
3 329 337 305 
3 330 340 326 
3 330 317 331 
3 330 309 317 
3 311 320 295 
3 327 295 320 
3 319 333 332 
3 327 333 319 
3 333 334 313 
3 313 334 338 
3 314 313 338 
3 315 314 335 
3 331 317 316 
3 313 332 333 
3 308 338 329 
3 338 308 336 
3 325 326 339 
3 336 325 339 
3 327 328 333 
3 333 328 337 
3 336 314 338 
3 330 331 340 
3 337 334 333 
3 329 334 337 
3 338 334 329 
3 335 314 336 
3 339 335 336 
3 326 335 339 
3 316 335 326 
3 340 316 326 
3 331 316 340 

POINT_DATA 342
SCALARS scalars float
LOOKUP_TABLE default
1 1 1 1 1 1 1 1 1 
1 1 1 1 1 1 1 1 1 
1 1 1 1 1 1 1 1 1 
1 1 1 1 1 1 1 1 1 
1 1 1 1 1 1 1 1 1 
1 1 1 1 1 1 1 1 1 
1 1 1 1 1 1 1 1 1 
1 1 1 1 1 1 1 1 1 
1 1 1 1 1 1 1 1 1 
1 1 1 1 1 1 1 1 1 
1 1 1 1 1 1 1 1 1 
1 1 1 1 1 1 1 1 1 
1 1 1 1 1 1 1 1 1 
1 1 1 1 1 1 1 1 1 
1 1 1 1 1 1 1 1 1 
1 1 1 1 1 1 1 1 1 
1 1 1 1 1 1 1 1 1 
1 1 1 1 1 1 1 1 1 
1 1 1 1 1 1 1 1 1 
1 1 1 1 1 1 1 1 1 
1 1 1 1 1 1 1 1 1 
1 1 1 1 1 1 1 1 1 
1 1 1 1 1 1 1 1 1 
1 1 1 1 1 1 1 1 1 
1 1 1 1 1 1 1 1 1 
1 1 1 1 1 1 1 1 1 
1 1 1 1 1 1 1 1 1 
1 1 1 1 1 1 1 1 1 
1 1 1 1 1 1 1 1 1 
1 1 1 1 1 1 1 1 1 
1 1 1 1 1 1 1 1 1 
1 1 1 1 1 1 1 1 1 
1 1 1 1 1 1 1 1 1 
1 1 1 1 1 1 1 1 1 
1 1 1 1 1 1 1 1 1 
1 1 1 1 1 1 1 1 1 
1 1 1 1 1 1 1 1 1 
1 1 1 1 1 1 1 1 1 

NORMALS Normals float
-0.0202996 0.483039 -0.875364 -0.146987 -0.102527 -0.98381 -0.0456453 -0.154678 -0.98691 
-0.243432 0.162535 -0.956203 -0.424354 0.0706377 -0.902737 0.0721323 0.00723454 -0.997369 
0.0793656 -0.0487899 -0.995651 0.223804 0.0657093 -0.972417 -0.277647 0.432623 -0.857758 
-0.298231 0.644874 -0.703702 -0.18997 0.148625 -0.970475 -0.0125144 -0.0067042 -0.999899 
0.0684731 0.494511 -0.86647 0.00678057 0.353948 -0.935241 0.119287 0.528171 -0.840717 
0.129457 0.329085 -0.935384 0.163358 0.358843 -0.918992 0.307399 0.446752 -0.84019 
-0.182652 0.794835 -0.578685 -0.0425687 0.669827 -0.741296 -0.104476 0.795607 -0.596736 
0.0651696 0.61683 -0.784393 0.0322562 0.472442 -0.880771 -0.130257 0.759899 -0.636857 
-0.233309 -0.473665 -0.84924 -0.0724894 -0.565382 -0.821638 -0.191685 -0.76241 -0.618051 
0.0881943 -0.464131 -0.881365 0.107281 -0.632196 -0.767346 -0.306518 -0.336976 -0.890221 
-0.448397 -0.408819 -0.794863 0.0305449 -0.508925 -0.860269 0.0855962 -0.580717 -0.809593 
0.145052 -0.494521 -0.856977 0.134545 -0.279095 -0.950791 -0.318649 0.223206 -0.921218 
0.224314 0.814361 -0.535256 0.243506 0.518312 -0.819791 -0.389385 0.650585 -0.652011 
0.248377 0.750644 -0.612243 -0.322288 0.564959 -0.759574 -0.0428423 0.843988 -0.534648 
0.111769 0.672104 -0.731973 0.12753 0.655039 -0.744755 -0.156217 0.952799 -0.260329 
0.0445754 0.989631 -0.136544 -0.374905 -0.866751 -0.328922 -0.106401 -0.881967 -0.459143 
-0.0718339 -0.835941 -0.544097 -0.0228484 -0.88919 -0.456967 0.018252 -0.906601 -0.421594 
0.0079012 -0.731223 -0.682092 -0.0118142 -0.884625 -0.466154 0.102135 -0.645072 -0.757265 
0.179715 -0.323798 -0.928901 0.282887 -0.0554593 -0.957549 0.299379 0.435023 -0.849192 
0.197924 0.979022 -0.0483952 0.28563 0.886028 -0.365197 -0.52787 0.607116 -0.593939 
0.255787 0.872103 -0.417145 -0.296441 0.903697 -0.308957 0.0418159 0.85881 -0.510585 
0.0915349 0.963666 -0.250935 0.282005 0.895419 -0.344525 0.280703 0.908256 -0.310287 
0.19415 0.974073 -0.116139 -0.239027 -0.921778 -0.305272 0.018285 -0.887844 -0.459781 
-0.0100599 -0.930556 -0.366012 0.13331 -0.943549 -0.303222 0.0748917 -0.973771 -0.214854 
0.0129748 -0.907817 -0.419166 0.144279 -0.883731 -0.445201 -0.453342 -0.809001 -0.374163 
0.28967 0.546561 -0.785724 0.153553 -0.546082 -0.823539 0.251248 0.557951 -0.790927 
0.159109 -0.301175 -0.940201 -0.504464 -0.731276 -0.459076 -0.628315 -0.444807 -0.638253 
0.241839 -0.181883 -0.953117 0.219895 0.961013 -0.167633 0.338163 0.878411 0.337697 
-0.832785 -0.535334 -0.141021 -0.813911 0.341085 -0.47033 -0.58125 0.000649573 -0.813725 
0.220437 0.953313 0.206404 -0.144316 0.989505 -0.00733231 -0.0722324 0.993854 -0.0838854 
0.0766744 0.99345 0.0847253 -0.212996 -0.965562 0.149406 -0.0577234 -0.897377 0.437472 
0.0507394 -0.974161 0.220082 -0.0216907 -0.960429 0.277679 0.238298 -0.87988 0.411126 
-0.260396 -0.91891 0.296306 -0.430723 -0.88908 0.154965 -0.0477037 -0.978699 0.199683 
0.148016 -0.981835 -0.118705 0.141991 -0.863239 0.484414 0.0769121 -0.896009 -0.437324 
-0.601174 -0.798927 -0.0174581 0.0637536 -0.995527 -0.0697229 0.222113 -0.97501 -0.00473208 
0.0666493 -0.36095 0.930201 -0.576713 -0.494698 0.650136 -0.976888 0.0228079 0.212533 
0.124841 0.408583 0.904143 -0.576484 0.737907 0.350941 -0.452575 0.891672 0.00983057 
-0.372947 0.842915 0.38782 0.204183 0.79449 0.571922 0.263241 0.898028 0.352491 
-0.264507 0.921803 0.283401 -0.011144 0.971714 0.235898 0.0493305 0.923448 0.38054 
0.192308 0.908354 0.371364 -0.226549 -0.904994 0.360086 0.117366 -0.658799 0.743108 
-0.291785 -0.759919 0.580848 0.122561 -0.67351 0.728946 -0.391921 -0.808311 0.439354 
-0.346956 -0.596615 0.723652 0.0880877 -0.779452 0.620238 -0.302241 -0.303335 0.90368 
0.171546 -0.4093 0.896128 0.115513 -0.301193 0.946541 0.0445614 -0.438121 0.897811 
0.0184009 -0.879857 0.474882 -0.633401 0.24926 0.732579 -0.342154 0.198102 0.918524 
-0.295091 -0.106561 0.949508 0.159636 0.176432 0.971282 -0.383333 0.589991 0.71061 
0.216555 0.521025 0.825613 -0.283849 0.774654 0.565102 -0.0800481 0.908978 0.409085 
-0.0015859 0.936055 0.35185 0.10923 0.799949 0.590042 0.153099 0.808896 0.567669 
-0.183216 -0.480092 0.857872 -0.100632 -0.43988 0.892401 0.0161036 -0.455931 0.889869 
0.166123 -0.53811 0.826342 -0.272318 -0.367031 0.889455 -0.301132 0.0809433 0.950141 
0.22234 0.421942 0.878937 -0.26123 0.613663 0.745102 -0.185662 0.31473 0.930846 
-0.233365 0.578746 0.781405 -0.0519266 0.637573 0.768638 -0.146395 0.519544 0.841809 
0.0972749 0.374505 0.922108 0.13506 0.654523 0.74388 -0.0362177 0.597649 0.80094 
-0.114214 -0.114251 0.986865 0.209461 -0.382476 0.89991 -0.268811 0.101102 0.957872 
-0.0717505 -0.0805574 0.994164 -0.0793276 -0.0834337 0.993351 0.0933899 0.0392496 0.994856 
0.239737 -0.0751738 0.967923 -0.0989943 0.257712 0.961137 -0.0386409 0.643211 0.764713 
-0.208278 -0.0867326 -0.974216 -0.0414788 -0.127549 -0.990965 0.020935 -0.180289 -0.983391 
0.109598 0.132254 -0.985138 -0.275323 0.308884 -0.910378 -0.149681 0.449914 -0.880439 
-0.0861775 0.385013 -0.918879 0.0224159 0.383306 -0.923349 -0.20494 -0.674354 -0.709398 
-0.0499535 -0.691529 -0.720619 0.190112 -0.68072 -0.707445 -0.310537 -0.500575 -0.808079 
-0.335608 -0.630472 -0.699908 0.033626 -0.444023 -0.895384 0.0625665 -0.623032 -0.77969 
0.21976 -0.471041 -0.854298 0.113003 -0.584409 -0.803553 -0.433937 -0.450794 -0.780053 
0.178873 -0.189977 -0.965357 -0.436059 -0.0111021 -0.89985 0.202343 0.303633 -0.931055 
-0.291891 0.688001 -0.66442 0.146197 0.327687 -0.933407 -0.128438 0.711117 -0.691243 
0.102719 0.706422 -0.700297 -0.083891 -0.981446 -0.17241 -0.0809926 -0.865396 -0.494499 
0.019605 -0.897407 -0.440767 0.270525 -0.711434 -0.648597 0.529311 0.442577 -0.723848 
-0.28082 -0.937192 -0.206911 -0.375304 -0.867133 -0.327456 -0.269809 -0.869881 -0.412929 
-0.286583 -0.897859 -0.334245 0.0461417 -0.835078 -0.548193 0.118114 -0.779853 -0.614718 
0.156703 -0.945441 -0.285631 -0.457777 -0.56081 -0.689878 -0.493846 -0.833103 -0.249108 
-0.550746 -0.637922 -0.53827 0.220505 -0.53735 -0.814022 0.123803 -0.528857 -0.839633 
0.111832 0.011931 -0.993656 -0.508752 -0.4993 -0.701335 0.0940611 -0.0817052 -0.992208 
0.115711 0.509998 -0.852358 -0.287355 0.7452 -0.601751 -0.160984 0.9275 -0.337383 
0.0669638 0.85433 -0.515399 0.053923 0.822447 -0.56628 0.177115 0.751936 -0.634998 
0.123009 0.786666 -0.605 -0.233252 -0.961913 -0.142537 -0.354086 -0.931048 0.0881656 
0.0446996 -0.962604 -0.267201 0.063499 -0.997711 -0.0232578 0.0484119 -0.998819 0.0040839 
0.195819 -0.945595 -0.259816 0.0468638 -0.948087 0.31454 -0.227636 -0.973602 -0.0167828 
0.220067 -0.938371 0.266514 0.140598 -0.972303 -0.186708 0.0741832 -0.985178 -0.154664 
0.0828803 -0.554855 -0.827809 0.0438905 -0.836247 -0.546593 -0.494992 -0.86852 -0.0256256 
-0.621021 -0.641328 -0.45059 0.059474 -0.034521 -0.997633 0.0530853 -0.834946 0.547765 
0.0307069 -0.294782 -0.955071 0.0226184 0.384085 -0.923021 -0.0309706 -0.953933 -0.298415 
0.208243 -0.974426 0.0844346 -0.577301 0.0426759 -0.815416 -0.759278 -0.650508 -0.0183225 
-0.889439 0.0425561 -0.455068 -0.531253 -0.217272 -0.818879 0.155942 0.973181 -0.16912 
0.107547 0.808678 -0.578337 0.0816068 0.957716 -0.275899 0.116359 0.8982 0.423906 
-0.508753 0.546265 -0.665406 -0.367648 0.790127 -0.490442 0.181952 0.977215 -0.109288 
-0.293474 0.914567 -0.278281 -0.294835 0.929785 -0.220392 0.0150752 0.958338 -0.285238 
0.182547 0.888195 -0.421647 0.236252 0.887124 -0.39648 -0.023994 0.970372 -0.240422 
0.0924979 0.978983 -0.181761 0.0278471 0.994402 -0.101928 0.0476822 -0.968827 0.243105 
-0.252612 -0.965045 0.0698174 -0.169925 -0.872658 0.457813 0.0639652 -0.944175 0.323175 
0.125843 -0.946802 0.296191 -0.459727 -0.863562 0.207151 0.190518 -0.954621 0.228915 
0.172541 -0.522283 0.835134 -0.546296 -0.796525 0.259052 0.172506 0.733214 0.657753 
0.209879 0.48759 0.847471 0.103656 0.388606 0.915555 0.050907 -0.472477 0.879872 
-0.581215 -0.167916 0.796237 -0.807437 0.300905 0.507447 0.202376 0.904579 0.375209 
-0.552488 0.827684 -0.098466 -0.369114 0.915945 0.157477 0.267922 0.954307 -0.13235 
0.238855 0.969071 0.0620453 -0.125002 0.982939 -0.134924 0.202838 0.978251 -0.0433892 
-0.257679 0.964249 0.0618526 -0.276863 -0.881001 0.383646 0.031608 -0.828625 0.558912 
-0.535496 -0.767553 0.352288 -0.359756 -0.644505 0.674676 0.107629 -0.738033 0.666126 
0.0323151 -0.682984 0.729718 0.168129 -0.768599 0.617242 0.158216 -0.705176 0.691154 
-0.398715 -0.604101 0.689991 -0.56619 -0.597585 0.567733 0.229739 -0.0288411 0.972825 
0.250153 0.673683 0.695395 -0.405232 0.702175 0.585437 0.28652 0.782551 0.552738 
-0.309203 0.945063 0.106067 -0.325133 0.745523 0.581794 -0.00169441 0.994066 0.108763 
0.165491 0.965191 0.202531 0.349039 0.872145 0.342832 -0.263923 -0.536369 0.801657 
-0.0551209 -0.616461 0.785454 0.00319192 -0.716442 0.697639 0.124088 -0.567375 0.814056 
0.199474 -0.48284 0.852687 -0.333124 -0.369483 0.867474 -0.0916498 -0.333007 0.93846 
-0.448034 -0.176066 0.876508 -0.365282 -0.0962669 0.925906 0.0410134 -0.256277 0.965733 
0.188133 -0.0784193 0.979008 0.202891 -0.163412 0.96547 -0.309155 0.576901 0.756048 
-0.252119 0.91314 0.320329 -0.00978015 0.955295 0.295492 0.0226511 0.773952 0.632839 
0.087494 0.962756 0.255825 0.143907 0.732274 0.665632 0.339325 0.569007 0.749059 
0.312908 0.798356 0.514506 -0.311379 0.779844 0.543035 -0.244396 0.159806 0.956417 
-0.156988 -0.392492 0.906259 0.00832537 -0.481992 0.876136 -0.282258 0.335476 0.898769 
-0.267409 0.18996 0.944673 0.0938667 -0.131911 0.986807 0.120816 0.219425 0.96812 
-0.22922 0.390806 0.891476 -0.103663 0.0841261 0.991048 -0.0490929 2.76743e-05 0.998794 
0.283377 0.304442 0.909402 0.268982 0.541329 0.796625 -0.27378 0.705989 0.653165 
-0.203201 0.435847 0.876782 -0.0355398 0.583803 0.811117 -0.00112368 0.714997 0.699127 
-0.0629709 0.277574 0.958638 -0.0581419 0.214715 0.974945 0.00588816 0.424665 0.905332 
-0.0792615 0.49023 0.867981 0.113982 0.491876 0.863172 0.00689232 -0.945754 -0.32481 

