# vtk DataFile Version 4.2
vtk output
ASCII
DATASET POLYDATA
POINTS 402 float
472.64 253.746 168.157 474.714 253.533 168.124 475.575 253.302 168.246 
476.737 253.49 168.308 471.359 253.98 168.184 471.239 253.966 168.218 
471.035 254.042 168.237 473.547 253.816 168.072 475.739 253.691 168.179 
472.33 254.044 168.118 472.905 253.967 168.095 472.911 253.511 168.41 
474.165 253.285 168.55 472.41 253.6 168.45 470.096 254.213 168.386 
469.854 254.267 168.435 477.305 253.766 168.529 469.89 254.289 168.402 
469.719 254.332 168.444 470.757 254.181 168.281 472.067 254.132 168.171 
472.259 254.177 168.241 473.749 254.012 168.151 475.797 253.995 168.365 
469.65 254.385 168.46 476.535 254.097 168.647 469.77 254.39 168.433 
473.43 253.373 168.753 474.838 253.176 168.782 483.517 252.63 169.81 
484.554 252.701 169.904 470.112 254.164 168.531 470.523 254.056 168.552 
479.311 253.401 168.917 483.601 252.96 169.675 484.856 252.926 169.921 
469.725 254.308 168.48 484.172 253.179 169.827 469.62 254.364 168.495 
471.871 254.197 168.245 477.886 253.925 168.822 483.835 253.332 169.843 
469.564 254.412 168.51 469.946 254.379 168.412 470.474 254.352 168.439 
473.525 254.211 168.503 476.169 254.244 168.845 477.05 254.126 168.863 
469.651 254.422 168.483 482.63 252.472 170.131 487.772 252.302 170.621 
489.588 252.231 171.012 472.863 253.496 168.759 473.997 253.306 168.958 
488.199 252.572 170.583 469.942 254.228 168.554 485.582 253.011 170.124 
486.844 252.865 170.356 489.488 252.582 170.827 489.107 252.751 170.745 
485.597 253.339 170.275 488.408 252.935 170.653 484.894 253.54 170.292 
486.303 253.422 170.501 469.545 254.424 168.553 477.33 254.164 169.117 
483.082 253.806 170.193 469.586 254.439 168.531 475.516 254.286 168.996 
479.793 252.647 169.905 488.173 252.04 170.999 489.957 252.035 171.308 
490.776 252.136 171.371 472.973 253.511 168.912 473.345 253.462 169.025 
492.203 252.377 171.51 494.144 252.486 171.921 470.666 254.077 168.698 
472.263 253.801 168.954 491.473 252.69 171.328 469.761 254.33 168.601 
469.903 254.309 168.635 470.727 254.134 168.741 471.293 254.042 168.833 
492.409 253.002 171.703 469.633 254.384 168.581 486.081 253.585 170.637 
487.771 253.42 170.881 490.419 253.258 171.333 469.586 254.425 168.582 
471.174 254.292 168.656 473.742 254.19 168.983 483.599 253.909 170.537 
486.24 253.695 170.939 469.57 254.441 168.565 483.817 253.954 170.773 
489.446 251.824 171.636 488.974 251.887 171.401 482.312 252.494 170.675 
487.265 252.05 171.141 494.543 252.314 172.208 495.684 252.429 172.391 
473.606 253.48 169.141 475.356 253.295 169.457 472.998 253.745 169.14 
473.757 253.594 169.256 472.569 254.043 169.046 494.506 252.902 172.135 
497.3 252.813 172.72 469.734 254.397 168.611 469.916 254.381 168.632 
470.836 254.274 168.71 490.708 253.304 171.48 494.07 253.016 172.221 
469.648 254.432 168.586 476.011 254.126 169.51 477.117 254.15 169.545 
480.644 253.949 170.239 484.343 253.921 170.985 487.978 253.632 171.426 
489.829 253.463 171.595 481.436 252.663 170.784 482.105 252.602 170.897 
487.152 252.072 171.456 496.072 252.427 172.595 476.877 253.275 169.863 
497.639 252.73 172.848 498.172 252.804 172.966 476.944 253.734 169.992 
494.616 253.02 172.485 496.712 252.915 172.714 488.561 253.609 171.744 
483.336 253.93 171.078 482.678 252.72 171.241 486.064 252.315 171.675 
488.003 252.032 171.799 494.3 252.202 172.526 497.297 252.609 172.885 
497.037 252.559 172.901 498.5 252.781 173.051 498.651 252.79 173.078 
498.647 252.784 173.084 498.684 252.792 173.092 480.546 253.287 170.839 
497.744 252.692 172.963 498.588 252.799 173.067 498.453 252.813 173.041 
480.833 253.696 170.741 486.416 253.7 172.046 492.372 253.143 172.492 
488.831 252.004 172.079 490.545 251.966 172.488 491.179 251.886 172.4 
492.671 252.069 172.731 493.399 252.126 172.753 494.847 252.275 172.802 
496.883 252.584 173.034 498.548 252.775 173.093 498.225 252.751 173.065 
498.66 252.784 173.097 498.672 252.792 173.101 483.866 253.153 171.798 
498.613 252.801 173.089 482.593 253.384 171.445 485.218 253.549 172.024 
497.699 252.856 173.027 487.682 253.49 172.265 496.966 252.907 172.936 
487.944 253.559 172.166 490.534 253.286 172.357 490.081 252.258 172.599 
491.67 252.155 172.798 491.888 252.308 172.948 495.317 252.515 173.236 
498.626 252.785 173.103 492.481 252.494 173.059 497.395 252.715 173.1 
498.246 252.787 173.087 497.896 252.793 173.089 488.553 253.163 172.451 
491.255 252.845 172.782 496.789 252.875 173.026 494.176 252.409 173.215 
496.577 252.822 173.097 495.02 252.591 173.293 496.365 252.736 283.46 
488.705 252.234 283.993 489.958 252.352 283.806 495.258 252.394 283.56 
495.64 252.424 283.537 488.891 252.676 283.802 495.945 252.561 283.475 
496.362 252.607 283.477 487.153 252.902 284.034 486.71 253.018 284.141 
488.449 252.87 283.848 495.721 252.629 283.47 490.315 253.146 283.781 
492.186 253.024 283.764 495.767 252.722 283.5 496.706 252.724 283.5 
494.56 252.863 283.683 496.097 252.776 283.553 490.686 251.924 284.017 
491.37 251.852 284.109 495.831 252.428 283.563 485.631 252.821 284.435 
486.069 252.568 284.446 498.37 252.725 283.63 498.349 252.724 283.632 
498.331 252.724 283.631 484.674 253.098 284.651 497.432 252.672 283.602 
497.284 252.705 283.57 498.305 252.723 283.629 488.263 253.284 284.02 
492.654 253.02 283.772 496.965 252.735 283.548 485.549 253.459 284.565 
487.251 253.512 284.32 490.254 253.285 283.924 491.691 253.181 283.913 
493.483 253.005 283.929 491.165 253.293 284.042 489.171 251.857 284.296 
490.58 251.751 284.322 491.567 251.844 284.303 487.194 252.22 284.418 
487.887 252.045 284.48 492.307 251.973 284.198 495.75 252.4 283.706 
480.46 252.916 285.91 483.407 252.803 285.171 496.632 252.555 283.699 
498.313 252.723 283.634 498.316 252.725 283.635 497.096 252.622 283.661 
497.738 252.69 283.644 498.04 252.716 283.625 498.289 252.726 283.632 
498.206 252.726 283.632 498.291 252.728 283.634 497.141 252.743 283.652 
497.965 252.724 283.637 498.214 252.727 283.636 493.828 252.962 284.032 
496.035 252.8 283.748 482.399 253.82 285.5 484.206 253.915 285.268 
489.421 253.526 284.4 490.876 253.355 284.235 489.454 251.749 284.542 
490.277 251.759 284.618 482.999 252.516 285.572 482.932 252.419 285.83 
483.793 252.348 285.726 488.435 251.912 284.628 492.407 252.015 284.408 
493.178 252.107 284.25 495.561 252.392 283.798 496.127 252.541 283.841 
477.324 253.373 286.468 478.085 253.398 286.302 497.228 252.666 283.699 
497.739 252.71 283.659 498.11 252.722 283.641 498.271 252.726 283.636 
476.229 253.647 286.674 475.98 253.788 286.743 476.059 253.869 286.755 
477.266 253.788 286.522 478.922 253.96 286.385 491.268 253.279 284.379 
493.387 252.964 284.219 476.341 253.97 286.779 479.641 253.97 286.329 
480.566 253.981 286.208 482.306 253.958 285.705 485.574 253.804 285.277 
489.951 251.758 284.671 489.755 251.789 284.744 491.522 251.997 284.698 
494.013 252.254 284.198 493.117 252.226 284.495 494.385 252.486 284.3 
474.07 253.489 287.324 495.229 252.628 284.079 496.133 252.621 283.877 
472.178 253.837 287.679 473.46 253.803 287.373 475.047 253.699 286.993 
494.204 252.683 284.322 495.316 252.741 284.01 496.534 252.703 283.796 
470.029 254.272 288.036 469.924 254.264 288.073 469.855 254.322 288.086 
470.947 254.154 287.876 490.851 253.289 284.61 491.339 252.998 284.827 
493.231 252.863 284.408 472.469 254.139 287.66 475.857 254.194 287.073 
479.331 254.021 286.659 486.071 253.731 285.451 483.1 254.064 285.781 
489.352 251.856 284.815 481.272 252.434 286.74 484.741 252.352 285.91 
473.502 253.423 287.635 474.284 253.332 287.418 471.485 253.795 288.009 
471.098 253.903 287.97 472.247 253.646 287.883 470.335 254.076 288.069 
492.626 252.738 284.653 469.794 254.295 288.134 485.688 253.664 285.775 
484.999 253.65 286.011 485.481 253.579 285.966 487.356 253.536 285.411 
469.849 254.366 288.095 469.722 254.369 288.156 470.185 254.378 288.066 
470.598 254.345 288.036 474.799 254.161 287.332 478.777 254.02 286.973 
480.6 253.961 286.652 484.122 253.768 286.107 469.809 254.405 288.133 
469.958 254.409 288.112 475.837 254.242 287.196 476.601 254.219 287.123 
477.518 252.626 287.464 478.549 252.557 287.073 481.636 252.47 286.824 
486.185 252.814 286.018 485.315 252.888 286.276 470.105 254.124 288.266 
470.485 254.019 288.123 470.996 253.898 288.149 486.454 253.083 285.962 
489.87 252.887 285.233 469.697 254.325 288.211 483.715 253.629 286.413 
469.632 254.392 288.234 475.109 254.195 287.512 475.618 254.243 287.351 
476.505 254.211 287.294 479.207 253.925 287.167 481.52 252.737 287.204 
484.15 252.631 286.45 472.668 253.535 288.089 480.968 252.827 287.391 
482.584 252.941 286.994 483.866 252.781 286.616 470.329 254.09 288.309 
482.389 253.13 287.04 469.901 254.229 288.332 480.422 253.478 287.403 
482.94 253.273 286.857 469.654 254.352 288.28 477.367 253.856 287.75 
481.405 253.699 286.93 469.623 254.407 288.287 474.452 254.119 287.822 
475.709 254.104 287.66 476.149 254.196 287.427 469.639 254.427 288.251 
469.746 254.438 288.232 480.293 252.707 287.494 473.148 253.542 288.238 
476.262 253.001 288.024 479.742 252.785 287.679 470.1 254.166 288.344 
470.312 254.138 288.355 471.977 253.767 288.264 478.496 253.284 287.933 
478.8 253.135 287.913 479.384 253.06 287.806 479.848 253.182 287.684 
470.101 254.211 288.365 469.675 254.375 288.325 469.679 254.41 288.317 
469.692 254.43 288.283 470.089 254.373 288.323 477.503 253.011 288.032 
476.355 253.276 288.149 469.818 254.337 288.354 470.457 254.243 288.367 
471.56 254.068 288.329 469.756 254.385 288.34 470.255 254.316 288.35 
471.035 254.042 168.237 473.547 253.816 168.072 488.974 251.887 171.401 
481.436 252.663 170.784 498.37 252.725 283.63 498.349 252.724 283.632 
498.305 252.723 283.629 498.289 252.726 283.632 483.715 253.629 286.413 

POLYGONS 778 3112
3 0 2 12 
3 11 0 12 
3 2 0 7 
3 1 2 7 
3 4 5 6 
3 0 5 4 
3 7 0 4 
3 1 394 10 
3 2 1 8 
3 8 1 10 
3 8 3 2 
3 4 6 19 
[...]
POINT_DATA 402
SCALARS scalars float
LOOKUP_TABLE default
1 1 1 1 1 1 1 1 1 
1 1 1 1 1 1 1 1 1 
1 1 1 1 1 1 1 1 1 
1 1 1 1 1 1 1 1 1 
1 1 1 1 1 1 1 1 1 
1 1 1 1 1 1 1 1 1 
1 1 1 1 1 1 1 1 1 
1 1 1 1 1 1 1 1 1 
1 1 1 1 1 1 1 1 1 
1 1 1 1 1 1 1 1 1 
1 1 1 1 1 1 1 1 1 
1 1 1 1 1 1 1 1 1 
1 1 1 1 1 1 1 1 1 
1 1 1 1 1 1 1 1 1 
1 1 1 1 1 1 1 1 1 
1 1 1 1 1 1 1 1 1 
1 1 1 1 1 1 1 1 1 
1 1 1 1 1 1 1 1 1 
1 1 1 1 1 1 1 1 1 
1 1 1 1 1 1 1 1 1 
1 1 1 1 1 1 1 1 1 
1 1 1 1 1 1 1 1 1 
1 1 1 1 1 1 1 1 1 
1 1 1 1 1 1 1 1 1 
1 1 1 1 1 1 1 1 1 
1 1 1 1 1 1 1 1 1 
1 1 1 1 1 1 1 1 1 
1 1 1 1 1 1 1 1 1 
1 1 1 1 1 1 1 1 1 
1 1 1 1 1 1 1 1 1 
1 1 1 1 1 1 1 1 1 
1 1 1 1 1 1 1 1 1 
1 1 1 1 1 1 1 1 1 
1 1 1 1 1 1 1 1 1 
1 1 1 1 1 1 1 1 1 
1 1 1 1 1 1 1 1 1 
1 1 1 1 1 1 1 1 1 
1 1 1 1 1 1 1 1 1 
1 1 1 1 1 1 1 1 1 
1 1 1 1 1 1 1 1 1 
1 1 1 1 1 1 1 1 1 
1 1 1 1 1 1 1 1 1 
1 1 1 1 1 1 1 1 1 
1 1 1 1 1 1 1 1 1 
1 1 1 1 1 1 
NORMALS Normals float
-0.131904 -0.739123 -0.660529 0.0636361 -0.0361905 -0.997317 0.000496008 -0.738347 -0.67442 
0.250724 0.00501881 -0.968045 -0.116076 -0.19078 -0.974746 -0.216811 -0.72773 -0.650693 
-0.1933 -0.220411 -0.956062 -0.108424 -0.495067 -0.862063 0.097863 0.159377 -0.982355 
-0.0395467 0.279794 -0.959245 0.0479652 0.373624 -0.926339 -0.133949 -0.940962 -0.310882 
-0.115897 -0.9415 -0.316457 -0.280008 -0.948294 -0.149449 -0.254428 -0.851332 -0.458802 
-0.309955 -0.872725 -0.377198 0.271585 0.480107 -0.834109 -0.224889 -0.182824 -0.957079 
-0.423209 -0.558174 -0.713677 -0.0788021 0.324912 -0.942456 0.0257254 0.659728 -0.751064 
0.0781238 0.798735 -0.59659 0.063656 0.702611 -0.708721 0.125468 0.678961 -0.723374 
-0.348774 -0.0719014 -0.934445 0.0811863 0.847311 -0.524855 -0.162808 0.2735 -0.947993 
-0.147717 -0.989018 -0.00479149 -0.106217 -0.992668 0.0576967 0.101927 -0.753164 -0.649888 
0.184551 -0.201876 -0.961866 -0.29274 -0.955816 0.0268315 -0.248734 -0.965142 0.0814326 
0.19302 -0.0906027 -0.977003 0.172828 0.0463073 -0.983863 0.251982 0.345031 -0.904134 
-0.434758 -0.898397 -0.0621897 0.233544 0.326282 -0.915968 -0.585901 -0.725471 -0.361125 
0.0363188 0.95022 -0.309456 0.279943 0.720147 -0.634838 0.211312 0.670502 -0.711178 
-0.637069 0.226031 -0.736922 -0.0302278 0.601214 -0.798516 0.0583933 0.928804 -0.365943 
0.0308011 0.969795 -0.241967 0.0359043 0.987855 -0.151171 0.148621 0.870327 -0.469514 
-0.0773566 0.838492 -0.539395 -0.0138285 -0.995445 -0.0943299 0.126275 -0.587838 -0.799063 
0.272736 -0.51018 -0.815679 -0.257257 -0.953773 0.155358 -0.136476 -0.980033 0.144599 
0.177297 -0.159152 -0.971203 -0.333576 -0.883267 0.329495 0.236816 0.203964 -0.949904 
0.178654 0.0966124 -0.979157 0.255236 -0.277892 -0.926083 0.223815 0.0571755 -0.972953 
0.105642 0.736213 -0.668453 0.186706 0.377656 -0.906927 0.174745 0.740252 -0.649224 
0.204057 0.627686 -0.751247 -0.79897 -0.543289 0.257845 0.193623 0.973691 -0.120152 
0.158312 0.879752 -0.448302 -0.259921 0.899738 -0.35059 0.000745568 0.967244 -0.253846 
-0.114917 -0.98926 0.0903279 -0.13168 -0.985877 -0.103477 0.198094 -0.601585 -0.773857 
0.158117 -0.711265 -0.68491 -0.296956 -0.754231 0.585622 -0.221522 -0.882542 0.414786 
0.193747 -0.154781 -0.968765 0.243277 -0.341787 -0.907743 -0.242926 -0.675287 0.696401 
-0.24763 -0.503849 0.827536 0.226692 0.325705 -0.917892 -0.37661 -0.806517 0.455735 
-0.231987 -0.369873 0.899653 -0.184313 -0.254111 0.949451 -0.178098 -0.0341593 0.98342 
0.202391 0.646792 -0.735321 -0.321572 -0.506704 0.799901 0.0307209 0.88814 -0.458546 
0.165187 0.832776 -0.528391 0.190368 0.64828 -0.73722 -0.346338 0.112123 0.931385 
0.0476244 0.962148 0.268335 -0.0425067 0.930138 0.364742 0.201365 0.8576 -0.47326 
0.0747453 0.912934 -0.401205 -0.0990757 0.980984 0.166898 0.0163926 0.994136 -0.106884 
-0.112857 -0.977156 0.180081 0.178064 -0.877564 -0.445168 -0.0725878 -0.979388 0.188495 
-0.081077 -0.987519 -0.135028 0.135436 -0.919978 -0.367829 0.260203 -0.664441 -0.70058 
-0.242334 -0.671338 0.700414 -0.190256 -0.732965 0.65312 -0.242801 -0.335605 0.910174 
-0.242433 -0.429611 0.869862 -0.0834997 0.670327 0.737353 0.162685 0.778488 -0.60621 
0.246245 0.253474 -0.935475 -0.15265 -0.0123713 0.988203 -0.106308 0.161887 0.981066 
-0.0171155 0.652195 0.757858 0.192395 0.938327 -0.287274 0.123903 0.969495 -0.211489 
-0.000908949 0.803083 0.595866 -0.0668687 0.867082 0.493657 0.123386 0.98038 0.153725 
-0.00442433 0.992433 0.122708 0.180717 0.919876 -0.348094 0.103894 0.991196 -0.0820766 
0.147699 0.987403 -0.0567502 -0.155374 -0.967145 0.20122 -0.164275 -0.672703 0.721446 
-0.24101 -0.866082 0.437969 0.141996 -0.989763 0.0143315 -0.229966 -0.56388 0.793193 
0.216673 -0.546342 -0.809051 0.235077 0.342181 -0.909753 -0.179155 0.338647 0.9237 
0.065902 0.996402 -0.053292 0.111889 0.935183 -0.336026 0.127565 0.988686 -0.0789114 
-0.0665255 0.920061 0.386085 -0.211003 -0.616795 0.758315 -0.161174 -0.91189 0.377464 
-0.215661 -0.874778 0.433882 0.105388 -0.983089 -0.149765 0.162362 -0.804597 -0.571194 
0.173245 -0.951077 -0.255811 0.195857 -0.569544 -0.798285 0.271316 -0.243119 -0.931279 
0.17064 -0.924743 -0.340196 0.757115 0.0741323 -0.649062 -0.240883 0.0461472 0.969456 
0.166218 -0.973792 -0.155245 0.235674 0.469871 -0.850693 0.142396 0.910428 -0.388386 
-0.172383 0.671194 0.72096 -0.00427192 0.879611 0.475674 0.0209349 0.931083 0.364205 
-0.194785 -0.777291 0.598229 -0.113415 -0.783601 0.610825 0.122542 -0.992077 0.027694 
0.0822531 -0.959 0.271207 0.0578062 -0.976726 0.206552 0.126123 -0.985777 0.111072 
0.101626 -0.823458 0.558202 0.0513669 -0.948039 0.313981 0.046519 -0.86157 0.505503 
0.201496 -0.935976 0.288702 0.173004 0.220857 0.959839 -0.195497 -0.173115 0.965304 
0.0693822 0.965479 0.25107 -0.262611 0.259393 0.929382 -0.154689 0.440622 0.884264 
0.0315755 0.900287 0.43415 -0.0938602 0.312281 0.945342 -0.0467707 0.996041 0.0755923 
0.0864253 0.937392 0.337382 0.0349873 0.822079 0.568297 -0.223368 -0.378206 0.898369 
-0.0364105 -0.719815 0.69321 -0.138035 -0.282278 0.94935 0.107244 -0.779829 0.616738 
0.0116585 -0.470405 0.882374 -0.131349 0.0396812 0.990542 0.069448 -0.464073 0.88307 
0.00188879 0.116484 0.993191 0.0358956 0.375229 0.926237 -0.134347 0.200039 0.970534 
-0.10158 0.399205 0.911217 -0.111944 0.963144 0.244586 0.0013689 -0.682948 0.730466 
-0.0460984 0.883382 0.466382 0.00123521 0.0444003 0.999013 0.0377719 0.262281 -0.964252 
-0.166962 -0.560104 -0.811423 -0.0251337 -0.238674 -0.970774 0.0277602 -0.77551 -0.630725 
0.0692168 -0.679017 -0.730852 -0.00362506 -0.201966 -0.979386 0.0194985 -0.440438 -0.897571 
0.0434926 -0.208617 -0.97703 -0.173365 0.181082 -0.968067 -0.225782 -0.0696044 -0.971688 
-0.077046 0.12617 -0.989012 -0.0100495 0.366026 -0.93055 -0.0312643 0.574857 -0.817656 
0.0168437 0.820115 -0.57195 -0.045705 0.461816 -0.885798 0.109128 0.430332 -0.89605 
0.0153082 0.851157 -0.524689 0.0248302 0.944995 -0.326142 -0.0217842 -0.639822 -0.768214 
0.0532542 -0.870776 -0.488788 0.100083 -0.979204 -0.176474 -0.264556 -0.36834 -0.891255 
-0.246753 -0.574339 -0.780543 0.0310798 -0.94476 -0.326285 0.0479723 -0.994585 -0.0921883 
0.0437387 0.989996 0.134143 -0.28102 -0.306233 -0.909532 0.111356 -0.752886 -0.648662 
0.0955447 0.207672 -0.973521 0.0342164 -0.885394 -0.463579 -0.0287708 0.731118 -0.681644 
0.0327643 0.907528 -0.418713 0.0678505 0.845973 -0.528892 -0.12104 0.630401 -0.766775 
-0.0183202 0.821095 -0.570497 -0.0125109 0.851211 -0.524674 0.186256 0.9754 -0.117913 
0.0696525 0.993013 -0.0952591 0.0538722 0.851086 -0.522255 -0.0682928 -0.829931 -0.55367 
0.0167029 -0.986395 -0.163544 0.108333 -0.99391 0.0201832 -0.217102 -0.857927 -0.465647 
-0.202502 -0.911213 -0.358725 0.142771 -0.988697 -0.0457643 0.0929886 -0.995441 -0.0212207 
-0.205403 -0.49291 -0.845488 -0.217664 -0.526974 -0.821536 0.171009 -0.950083 0.260956 
0.10857 -0.292934 0.949949 0.0868173 0.210179 0.973801 0.143141 -0.96109 0.236257 
0.0831078 -0.948354 0.306135 0.0315303 0.33384 -0.942102 0.00943441 0.878136 -0.478317 
-0.0103068 0.831697 -0.555134 0.0813108 0.977602 0.19412 0.0499505 0.966303 0.252516 
0.0175629 0.992832 -0.11822 -0.00499648 0.951044 0.309014 0.141061 0.929146 0.341745 
0.0940004 0.96071 0.26115 -0.114183 0.812284 -0.571976 -0.0405423 0.893623 -0.446984 
0.0109461 0.954966 -0.296515 0.129606 0.990319 -0.04971 -0.05011 -0.99798 -0.0390509 
0.129569 -0.769141 0.625806 -0.151113 -0.674063 -0.723052 -0.126523 -0.962695 -0.239187 
-0.136816 -0.944002 -0.300236 -0.143986 -0.989243 0.025817 0.175925 -0.932862 0.314354 
0.185362 -0.930824 0.314972 0.113802 -0.972814 0.2017 0.203219 -0.655456 0.727378 
-0.229386 -0.532229 -0.814932 -0.188921 -0.015708 -0.981867 0.143117 -0.522345 0.840639 
0.0684103 0.280069 0.957539 0.00953516 0.638527 0.76954 0.0633605 0.447807 0.891882 
-0.197272 0.0916182 -0.976058 -0.162448 0.0623483 -0.984745 -0.173978 0.408698 -0.895934 
-0.176109 0.316914 -0.931961 -0.0534358 0.79124 -0.609166 0.307055 0.9154 0.260306 
0.131823 0.900147 0.415159 -0.0822801 0.460854 -0.883654 -0.0648943 0.92223 -0.381156 
-0.0522146 0.972334 -0.227685 -0.0973168 0.895049 -0.435219 0.116233 0.991516 0.058182 
0.0247667 -0.999007 -0.0370308 0.0120038 -0.805594 0.592346 0.167209 -0.666061 0.726914 
0.186707 -0.919271 0.346529 0.202635 -0.612211 0.764288 0.21695 -0.110416 0.969918 
-0.245892 -0.459635 -0.853389 0.235103 0.092584 0.967551 0.18777 -0.0200336 0.982009 
-0.240268 -0.613375 -0.752358 -0.219963 -0.0125612 -0.975427 -0.246146 -0.110074 -0.962962 
0.196264 0.501664 0.842504 0.169206 0.584068 0.793873 0.133938 0.48269 0.865489 
-0.237032 -0.202452 -0.950173 -0.389935 -0.615877 -0.684577 -0.402302 -0.106298 -0.909315 
-0.161479 0.171829 -0.971802 0.168411 0.897247 0.408148 0.265345 0.762839 0.589634 
0.157013 0.771697 0.616304 -0.143318 0.472812 -0.86943 -0.101829 0.853151 -0.511629 
0.010285 0.999947 -0.000709621 0.229914 0.895736 0.380523 0.0749422 0.980599 0.181135 
0.066728 -0.694313 0.716573 0.0214485 -0.982641 0.184271 0.0355901 -0.924492 0.379537 
-0.203609 -0.952791 -0.22524 -0.197446 -0.882082 -0.427723 -0.22494 -0.924262 -0.308451 
-0.24332 -0.81378 -0.527786 -0.196198 -0.97634 -0.0909248 -0.287816 -0.835819 -0.467513 
0.186429 0.489618 0.851774 -0.481524 -0.749746 -0.453889 0.315038 0.742471 0.591175 
0.141329 0.804603 0.57675 0.264831 0.583257 0.767903 0.182603 0.875225 0.447925 
-0.196362 0.352779 -0.914871 -0.55919 0.0698633 -0.826091 0.00977957 0.770451 -0.637425 
-0.00657199 0.842762 -0.538247 -0.0987913 0.905483 -0.412724 0.0271776 0.998888 -0.0385126 
0.0392009 0.990888 0.128857 0.313639 0.524923 0.791256 -0.245876 0.722053 -0.646671 
-0.0425835 0.846749 -0.530285 -0.0429439 0.989971 -0.134583 0.075666 0.995935 -0.0488644 
-0.120029 -0.990602 0.0655776 -0.0374177 -0.994035 0.102444 0.0427069 -0.923751 0.380605 
0.193332 -0.404628 0.893812 0.245475 -0.0184267 0.969228 -0.348728 -0.936135 0.0451587 
-0.238165 -0.970463 -0.0384614 -0.190681 -0.972587 0.133095 0.208952 0.233748 0.949579 
0.211872 0.398255 0.89247 -0.603805 -0.726113 -0.328907 0.110604 0.771212 0.626896 
-0.880328 -0.187558 -0.435712 -0.054463 0.996055 0.0700539 -0.0710362 0.996649 0.0405587 
0.157234 0.912418 0.377851 0.116221 0.902882 0.413879 0.217854 -0.465502 0.857816 
0.175612 -0.725786 0.665128 -0.167026 -0.966472 0.195022 0.174044 0.107994 0.978798 
0.248559 -0.165282 0.954411 0.239803 -0.174093 0.955084 -0.181155 -0.875732 0.447522 
0.189752 0.342773 0.920055 -0.338543 -0.651684 0.678746 0.203088 0.519 0.830298 
0.323997 0.166215 0.931342 -0.578846 -0.792272 0.192982 0.133746 0.808062 0.573714 
0.212744 0.68129 0.700417 -0.824552 0.327203 0.461575 0.0646608 0.900477 0.430071 
0.0849506 0.784103 0.614789 0.0736486 0.95364 0.2918 -0.46994 0.819381 -0.328286 
0.0192732 0.997488 -0.0681671 0.196843 -0.30677 0.931206 -0.0687666 -0.586891 0.80674 
0.0245448 -0.736477 0.676018 0.0922505 -0.651737 0.752814 -0.193712 -0.678631 0.708474 
-0.0684102 -0.440424 0.89518 -0.113485 -0.684855 0.719788 0.113694 0.372908 0.920876 
0.162205 0.0320699 0.986236 0.209168 0.131011 0.969064 0.257 0.204373 0.944554 
-0.0446368 -0.0727993 0.996347 -0.425415 -0.185327 0.885819 -0.226438 0.611961 0.757779 
-0.0586833 0.922504 0.381502 0.108069 0.864289 0.49125 0.0654232 -0.325403 0.943309 
0.041851 -0.124023 0.991396 -0.12805 -0.053356 0.990331 0.0140548 -0.0150187 0.999788 
0.0964396 0.403819 0.909742 0.00305597 0.485092 0.874457 0.0630818 0.441815 0.894886 
-0.0292533 -0.743866 0.667688 0.231075 0.969566 0.0809077 -0.441424 0.0434484 0.896246 
-0.0733827 0.624534 0.777542 -0.00776508 0.983838 0.178894 0.00852944 0.825674 0.564083 
-0.0200285 0.957612 -0.287363 0.144322 -0.770087 0.621399 0.571597 -0.688289 0.446693 

