# vtk DataFile Version 4.2
vtk output
ASCII
DATASET POLYDATA
POINTS 3626 float
464.489 120.869 68.6935 470.376 117.912 69.1311 459.142 123.519 69.8013 
459.183 123.057 69.9191 459.514 124.503 69.6846 460.868 124.017 69.18 
474.173 125.473 69.0196 465.033 129.882 68.7467 471.575 131.18 68.9765 
468.756 114.02 70.0346 463.849 114.411 70.6171 462.745 115.692 70.4629 
465.861 117.398 69.2594 459.055 128.606 70.2353 464.028 135.064 70.2783 
467.854 137.539 70.6137 465.931 112.125 71.0109 475.346 112.123 71.3455 
461.365 115.536 71.0983 458.755 117.3 71.7901 460.638 116.206 71.1525 
479.099 117.63 71.2414 457.499 121.042 71.6937 457.87 121.616 71.2093 
457.135 130.483 71.5391 477.453 132.675 70.3688 460.175 113.529 73.1685 
457.064 120.978 72.383 455.995 124.788 72.6481 473.624 138.62 71.5407 
465.142 139.587 72.2233 474.958 139.547 72.3599 470.411 105.648 73.309 
465.815 107.35 73.4145 461.77 110.201 74.2244 462.741 110.503 73.1406 
458 113.009 73.0174 458 113.009 73.0175 458 113.009 73.0175 
458 113.009 73.0175 458 113.009 73.0175 483.074 121.271 72.3683 
485.248 126.728 72.9301 454.3 129.076 73.795 453.67 131.502 74.0148 
484.13 130.849 72.6081 480.879 136.083 72.4456 463.715 106.791 75.1269 
464.32 106.633 74.7964 461.489 110.411 74.4995 460.439 111.832 74.7785 
458 113.009 73.0175 486.529 130.486 73.7621 455.374 136.305 73.5954 
456.616 139.444 74.4052 475.289 141.706 74.5003 471.954 102.003 75.1869 
465.149 104.315 76.2482 452.883 129.137 75.6594 452.74 128.968 76.0513 
452.282 131.39 75.8482 452.615 133.903 75.2174 487.267 135.681 75.4574 
483.787 139.16 75.3665 481.815 140.362 75.4144 458.785 141.812 75.3185 
463.452 142.507 75.0842 477.313 142.058 75.6819 471.27 100.241 76.3868 
466.274 102.019 77.0934 477.028 101.008 76.16 466.173 102.99 76.4585 
485.551 111.568 75.8814 454.578 123.63 75.9954 454.478 123.498 76.683 
490.289 128.697 75.8986 489.371 134.201 76.2218 458.818 141.434 75.0533 
485.368 139.726 76.8118 456.805 141.922 76.082 471.02 143.103 75.851 
481.147 141.324 76.2436 460.276 142.91 76.1765 467.46 143.242 75.7786 
471.684 98.9089 77.2943 459.849 111.629 77.7302 450.684 133.665 78.0952 
453.455 141.865 77.3544 455.101 142.357 77.0261 457.183 143.348 77.4178 
461.643 143.886 77.4005 473.309 97.2415 78.3322 469.923 98.706 78.0707 
471.372 98.5603 77.6392 477.724 98.7386 77.6255 450.602 133.177 78.6562 
487.809 138.954 77.8557 477.296 142.72 77.7419 482.796 141.53 77.8941 
458.24 143.875 77.9883 462.954 143.994 77.5248 465.585 143.926 77.2898 
456.449 144.335 79.126 461.014 144.152 78.2784 484.407 99.9849 79.5239 
465.827 101.28 79.5193 463.85 104.358 78.9289 493.88 128.264 78.3522 
450.528 132.662 79.8047 492.838 135.057 79.0906 448.419 140.305 80.0358 
490.28 138.64 79.6851 448.521 141.177 80.2417 485.799 140.78 78.9521 
449.406 141.837 79.9562 449.725 142.147 79.9499 459.589 144.349 79.4601 
461.814 144.288 78.9746 462.113 144.28 79.5603 464.324 144.249 79.1202 
471.861 95.2109 80.6714 474.191 94.7118 80.3389 479.958 96.0157 79.9188 
468.614 97.518 80.8636 457.041 117.129 79.5964 455.22 121.302 79.478 
495.279 122.003 79.8026 448.425 137.105 80.917 447.43 138.989 81.3758 
448.757 138.026 79.6687 491.955 137.362 79.8045 450.377 143.191 80.5957 
451.157 143.198 80.0399 452.076 143.677 80.0914 463.936 144.139 80.16 
452.316 144.031 80.5438 452.706 144.196 80.6955 454.479 144.37 80.3066 
470.845 94.7215 82.2116 470.944 95.4588 81.0099 463.137 105.058 80.7286 
446.882 141.176 82.1824 446.617 141.266 82.621 487.664 140.63 81.2354 
448.618 142.949 81.6682 449.642 143.478 81.6595 456.55 144.449 81.3681 
452.097 144.255 81.4133 455.02 144.501 80.7881 473.059 92.8915 82.6228 
472.208 93.5962 82.3947 468.975 129.536 85.3892 469.065 129.428 85.4386 
469.336 129.206 85.5188 469.483 129.137 85.5877 468.248 130.199 85.2386 
467.982 130.476 85.2393 468.444 130.031 85.2687 467.908 130.58 85.2369 
467.773 130.709 85.2386 467.52 131.029 85.2867 467.272 131.348 85.3792 
467.546 130.984 85.2816 450.043 133.584 81.9652 495.237 136.465 82.1933 
447.19 138.986 82.1874 492.893 138.449 82.1818 446.414 141.96 83.1777 
469.103 142.894 82.5112 472.173 143.047 81.728 446.702 142.861 83.6755 
461.522 143.478 82.3491 450.063 143.959 82.6116 447.855 143.329 83.0802 
455.091 144.479 81.7595 455.615 144.399 82.0533 478.46 90.9791 83.5535 
472.376 92.8247 83.2653 471.856 93.1365 83.4278 456.04 120.554 82.4537 
469.793 128.841 85.7326 470.199 128.542 85.8935 467.118 131.583 85.4865 
466.903 131.912 85.6431 447.569 138.07 83.5011 446.453 140.149 83.582 
446.001 141.32 83.932 463.162 142.676 83.4006 446.282 142.7 84.0275 
447.501 143.384 83.9382 494.83 107.277 83.8006 499.125 119.118 83.5313 
473.013 126.375 86.9845 500.668 124.403 84.0384 472.122 127.074 86.692 
471.721 127.336 86.6317 472.656 126.736 86.8474 473.315 126.292 87.1084 
471.07 127.849 86.4528 471.423 127.679 86.4767 472.541 126.946 86.8513 
500.572 128.746 84.1695 466.494 132.519 85.9039 465.88 133.442 86.2835 
465.381 134.202 86.5615 465.09 134.671 86.7486 465.104 134.652 86.7413 
461.74 139.189 86.3949 461.738 139.168 86.4369 461.754 139.152 86.4002 
461.799 139.141 86.4255 497.152 136.283 84.2836 461.56 139.412 86.4977 
488.041 140.704 83.2463 460.418 142.834 83.6789 449.46 143.746 84.325 
446.388 143.035 84.6246 447.924 143.529 83.8642 472.954 90.9421 85.4653 
473.537 90.8657 84.963 470.866 93.2625 85.3898 488.768 93.7343 85.6139 
462.967 105.714 84.554 456.62 120.993 84.6734 474.592 124.975 87.7027 
474.352 125.119 87.7044 474.012 125.385 87.661 474.819 124.915 87.7186 
474.648 125.17 87.6121 474.34 125.483 87.4907 470.694 128.728 86.7398 
468.093 130.62 85.7887 468.57 130.512 86.3721 465.739 133.802 86.6471 
464.711 135.297 86.967 464.34 135.934 87.1835 461.77 139.137 86.4193 
464.372 135.882 87.1482 461.821 139.113 86.4877 461.959 139.109 86.545 
461.479 139.821 86.3307 461.828 139.402 86.4215 493.657 138.788 84.5063 
446.009 141.17 85.2433 459.397 141.425 85.9618 462.461 141.294 85.1356 
446.8 143.227 85.37 446.347 143.127 85.2052 450.803 143.755 84.7165 
476.88 88.3501 86.913 484.754 89.3047 86.679 467.807 97.216 85.8471 
456.793 121.859 85.9161 475.539 124.19 88.2275 476.037 123.71 88.6297 
475.411 124.489 87.9798 475.866 124.26 88.1422 476.086 124.265 88.2489 
468.591 130.41 86.3813 469.027 130.173 86.9918 468.364 130.74 86.4862 
469.099 130.197 86.8271 468.525 130.825 86.9828 468.469 130.897 86.9017 
466.01 133.58 86.8263 465.527 134.135 86.7781 465.27 134.629 87.1192 
465.247 134.651 87.0801 499.385 135.228 86.0411 464.106 136.342 87.2611 
463.855 136.775 87.3897 463.806 136.876 87.3398 462.137 138.82 86.8969 
462.481 138.815 86.8218 496.432 137.598 85.68 446.641 140.058 85.0699 
460.782 140.025 86.6658 470.212 141.191 85.627 485.692 140.83 85.4234 
445.127 142.698 86.0625 445.245 142.841 85.9338 445.135 142.84 86.1984 
445.291 142.915 86.0171 445.78 143.045 85.9231 468.931 95.5884 87.5187 
476.719 123.246 88.9031 475.784 123.805 88.7189 477.381 122.977 89.0627 
475.613 123.888 88.9217 476.832 123.616 88.6566 476.413 124.468 88.6087 
477.227 123.839 88.8708 468.938 130.47 87.1436 468.156 131.248 86.998 
468.843 130.707 87.2667 468.53 131.154 87.7383 467.216 132.21 86.8883 
467.618 131.692 86.715 468.718 131.11 87.7398 466.266 133.326 86.9617 
467.008 132.839 87.7096 466.952 132.78 87.3702 465.649 134.207 87.1845 
501.915 133.011 87.644 464.894 135.341 87.5884 465.048 135.181 87.5615 
464.727 135.591 87.553 464.521 135.82 87.4266 464.195 136.421 87.8159 
464.247 136.448 87.6642 463.147 137.862 87.2815 463.488 137.472 87.6593 
463.762 137.158 87.5121 462.501 138.38 87.5049 463.324 137.866 87.381 
463.064 138.579 87.1242 486.431 140.284 87.0032 446.609 141.099 86.4978 
446.076 141.474 86.2156 445.124 142.377 86.2288 445.608 141.982 86.4354 
446.269 142.984 86.1397 446.576 142.824 86.386 445.235 142.878 86.4553 
445.464 142.926 86.3647 445.604 142.994 86.1598 480.38 87.2317 87.8734 
473.051 90.2587 87.6455 472.925 90.1807 88.5505 471.422 92.0092 88.4051 
477.512 122.684 89.349 478.458 122.3 89.6814 475.607 123.848 89.3535 
477.976 123.101 89.2323 478.455 122.621 89.5189 478.445 123.215 89.5107 
479.162 122.679 89.8594 456.594 124.589 88.0083 473.782 125.558 88.9636 
479.148 123.319 90.0561 473.224 126.136 89.0751 478.84 123.635 90.075 
455.571 126.727 88.1371 468.276 131.976 88.7113 466.473 133.476 87.695 
467.122 133.247 88.9743 467.534 132.655 88.6781 467.471 132.7 88.3272 
465.664 134.295 87.3925 467.162 133.2 88.4982 465.154 135.017 87.6017 
464.557 136.089 87.9501 464.842 135.66 88.2134 464.905 136.009 88.4322 
463.797 137.15 88.1812 464.136 136.493 88.4734 464.682 136.459 88.2772 
464.299 136.953 88.0306 463.912 137.462 87.9994 463.368 137.856 87.6426 
461.831 138.743 87.9549 462.63 138.359 87.9685 463.419 138.442 87.6695 
447.606 140.127 87.0171 463.427 139.254 86.9047 446.384 141.705 86.7431 
447.153 140.769 86.8914 445.076 142.345 86.8485 445.588 142.259 86.8176 
445.017 142.441 87.0452 446.279 142.197 86.8217 447.19 141.427 87.1397 
447.01 141.937 87.0013 448.974 141.876 87.6931 444.833 142.604 86.8265 
445.165 142.547 86.9504 445.78 142.546 86.7569 446.756 142.494 86.7141 
444.921 142.713 86.7505 445.469 142.799 86.5884 445.041 142.798 86.6024 
480.538 85.9658 89.4481 475.381 87.4449 90.0976 487.007 88.209 88.586 
490.483 89.8038 89.3355 465.379 102.325 89.0053 463.075 108.045 88.9974 
478.431 121.694 90.3504 477.148 122.444 90.5803 479.654 121.566 90.3787 
479.424 121.944 90.1313 478.261 124.213 90.3227 479.442 123.407 90.45 
505.272 124.804 89.186 468.749 131.28 89.5687 466.986 133.819 89.7443 
466.664 134.258 90.2566 466.95 133.661 90.0426 467.236 133.675 89.4849 
466.996 134.237 89.9973 467.399 134.04 89.9812 464.449 136.15 88.8635 
464.962 135.938 89.3109 465.338 136.201 89.1309 463.604 137.033 88.9123 
464.994 136.5 88.6329 463.971 137.898 88.1709 463.243 137.595 88.7943 
[...]
POINT_DATA 3626
SCALARS scalars float
LOOKUP_TABLE default
1 1 1 1 1 1 1 1 1 
1 1 1 1 1 1 1 1 1 
1 1 1 1 1 1 1 1 1 
1 1 1 1 1 1 1 1 1 
1 1 1 1 1 1 1 1 1 
1 1 1 1 1 1 1 1 1 
1 1 1 1 1 1 1 1 1 
1 1 1 1 1 1 1 1 1 
1 1 1 1 1 1 1 1 1 
1 1 1 1 1 1 1 1 1 
1 1 1 1 1 1 1 1 1 
1 1 1 1 1 1 1 1 1 
1 1 1 1 1 1 1 1 1 
1 1 1 1 1 1 1 1 1 
1 1 1 1 1 1 1 1 1 
1 1 1 1 1 1 1 1 1 
1 1 1 1 1 1 1 1 1 
1 1 1 1 1 1 1 1 1 
1 1 1 1 1 1 1 1 1 
1 1 1 1 1 1 1 1 1 
1 1 1 1 1 1 1 1 1 
1 1 1 1 1 1 1 1 1 
1 1 1 1 1 1 1 1 1 
1 1 1 1 1 1 1 1 1 
1 1 1 1 1 1 1 1 1 
1 1 1 1 1 1 1 1 1 
1 1 1 1 1 1 1 1 1 
1 1 1 1 1 1 1 1 1 
1 1 1 1 1 1 1 1 1 
1 1 1 1 1 1 1 1 1 
1 1 1 1 1 1 1 1 1 
1 1 1 1 1 1 1 1 1 
1 1 1 1 1 1 1 1 1 
1 1 1 1 1 1 1 1 1 
1 1 1 1 1 1 1 1 1 
1 1 1 1 1 1 1 1 1 
1 1 1 1 1 1 1 1 1 
1 1 1 1 1 1 1 1 1 
1 1 1 1 1 1 1 1 1 
1 1 1 1 1 1 1 1 1 
1 1 1 1 1 1 1 1 1 
1 1 1 1 1 1 1 1 1 
1 1 1 1 1 1 1 1 1 
1 1 1 1 1 1 1 1 1 
1 1 1 1 1 1 1 1 1 
1 1 1 1 1 1 1 1 1 
1 1 1 1 1 1 1 1 1 
1 1 1 1 1 1 1 1 1 
1 1 1 1 1 1 1 1 1 
1 1 1 1 1 1 1 1 1 
1 1 1 1 1 1 1 1 1 
1 1 1 1 1 1 1 1 1 
1 1 1 1 1 1 1 1 1 
1 1 1 1 1 1 1 1 1 
1 1 1 1 1 1 1 1 1 
1 1 1 1 1 1 1 1 1 
1 1 1 1 1 1 1 1 1 
1 1 1 1 1 1 1 1 1 
1 1 1 1 1 1 1 1 1 
1 1 1 1 1 1 1 1 1 
1 1 1 1 1 1 1 1 1 
1 1 1 1 1 1 1 1 1 
1 1 1 1 1 1 1 1 1 
1 1 1 1 1 1 1 1 1 
1 1 1 1 1 1 1 1 1 
1 1 1 1 1 1 1 1 1 
1 1 1 1 1 1 1 1 1 
1 1 1 1 1 1 1 1 1 
1 1 1 1 1 1 1 1 1 
1 1 1 1 1 1 1 1 1 
1 1 1 1 1 1 1 1 1 
1 1 1 1 1 1 1 1 1 
1 1 1 1 1 1 1 1 1 
1 1 1 1 1 1 1 1 1 
1 1 1 1 1 1 1 1 1 
1 1 1 1 1 1 1 1 1 
1 1 1 1 1 1 1 1 1 
1 1 1 1 1 1 1 1 1 
1 1 1 1 1 1 1 1 1 
1 1 1 1 1 1 1 1 1 
1 1 1 1 1 1 1 1 1 
1 1 1 1 1 1 1 1 1 
1 1 1 1 1 1 1 1 1 
1 1 1 1 1 1 1 1 1 
1 1 1 1 1 1 1 1 1 
1 1 1 1 1 1 1 1 1 
1 1 1 1 1 1 1 1 1 
1 1 1 1 1 1 1 1 1 
1 1 1 1 1 1 1 1 1 
1 1 1 1 1 1 1 1 1 
1 1 1 1 1 1 1 1 1 
1 1 1 1 1 1 1 1 1 
1 1 1 1 1 1 1 1 1 
1 1 1 1 1 1 1 1 1 
1 1 1 1 1 1 1 1 1 
1 1 1 1 1 1 1 1 1 
1 1 1 1 1 1 1 1 1 
1 1 1 1 1 1 1 1 1 
1 1 1 1 1 1 1 1 1 
1 1 1 1 1 1 1 1 1 
1 1 1 1 1 1 1 1 1 
1 1 1 1 1 1 1 1 1 
1 1 1 1 1 1 1 1 1 
1 1 1 1 1 1 1 1 1 
1 1 1 1 1 1 1 1 1 
1 1 1 1 1 1 1 1 1 
1 1 1 1 1 1 1 1 1 
1 1 1 1 1 1 1 1 1 
1 1 1 1 1 1 1 1 1 
1 1 1 1 1 1 1 1 1 
1 1 1 1 1 1 1 1 1 
1 1 1 1 1 1 1 1 1 
1 1 1 1 1 1 1 1 1 
1 1 1 1 1 1 1 1 1 
1 1 1 1 1 1 1 1 1 
1 1 1 1 1 1 1 1 1 
1 1 1 1 1 1 1 1 1 
1 1 1 1 1 1 1 1 1 
1 1 1 1 1 1 1 1 1 
1 1 1 1 1 1 1 1 1 
1 1 1 1 1 1 1 1 1 
1 1 1 1 1 1 1 1 1 
1 1 1 1 1 1 1 1 1 
1 1 1 1 1 1 1 1 1 
1 1 1 1 1 1 1 1 1 
1 1 1 1 1 1 1 1 1 
1 1 1 1 1 1 1 1 1 
1 1 1 1 1 1 1 1 1 
1 1 1 1 1 1 1 1 1 
1 1 1 1 1 1 1 1 1 
1 1 1 1 1 1 1 1 1 
1 1 1 1 1 1 1 1 1 
1 1 1 1 1 1 1 1 1 
1 1 1 1 1 1 1 1 1 
1 1 1 1 1 1 1 1 1 
1 1 1 1 1 1 1 1 1 
1 1 1 1 1 1 1 1 1 
1 1 1 1 1 1 1 1 1 
1 1 1 1 1 1 1 1 1 
1 1 1 1 1 1 1 1 1 
1 1 1 1 1 1 1 1 1 
1 1 1 1 1 1 1 1 1 
1 1 1 1 1 1 1 1 1 
1 1 1 1 1 1 1 1 1 
1 1 1 1 1 1 1 1 1 
1 1 1 1 1 1 1 1 1 
1 1 1 1 1 1 1 1 1 
1 1 1 1 1 1 1 1 1 
1 1 1 1 1 1 1 1 1 
1 1 1 1 1 1 1 1 1 
1 1 1 1 1 1 1 1 1 
1 1 1 1 1 1 1 1 1 
1 1 1 1 1 1 1 1 1 
1 1 1 1 1 1 1 1 1 
1 1 1 1 1 1 1 1 1 
1 1 1 1 1 1 1 1 1 
1 1 1 1 1 1 1 1 1 
1 1 1 1 1 1 1 1 1 
1 1 1 1 1 1 1 1 1 
1 1 1 1 1 1 1 1 1 
1 1 1 1 1 1 1 1 1 
1 1 1 1 1 1 1 1 1 
1 1 1 1 1 1 1 1 1 
1 1 1 1 1 1 1 1 1 
1 1 1 1 1 1 1 1 1 
1 1 1 1 1 1 1 1 1 
1 1 1 1 1 1 1 1 1 
1 1 1 1 1 1 1 1 1 
1 1 1 1 1 1 1 1 1 
1 1 1 1 1 1 1 1 1 
1 1 1 1 1 1 1 1 1 
1 1 1 1 1 1 1 1 1 
1 1 1 1 1 1 1 1 1 
1 1 1 1 1 1 1 1 1 
1 1 1 1 1 1 1 1 1 
1 1 1 1 1 1 1 1 1 
1 1 1 1 1 1 1 1 1 
1 1 1 1 1 1 1 1 1 
1 1 1 1 1 1 1 1 1 
1 1 1 1 1 1 1 1 1 
1 1 1 1 1 1 1 1 1 
1 1 1 1 1 1 1 1 1 
1 1 1 1 1 1 1 1 1 
1 1 1 1 1 1 1 1 1 
1 1 1 1 1 1 1 1 1 
1 1 1 1 1 1 1 1 1 
1 1 1 1 1 1 1 1 1 
1 1 1 1 1 1 1 1 1 
1 1 1 1 1 1 1 1 1 
1 1 1 1 1 1 1 1 1 
1 1 1 1 1 1 1 1 1 
1 1 1 1 1 1 1 1 1 
1 1 1 1 1 1 1 1 1 
1 1 1 1 1 1 1 1 1 
1 1 1 1 1 1 1 1 1 
1 1 1 1 1 1 1 1 1 
1 1 1 1 1 1 1 1 1 
1 1 1 1 1 1 1 1 1 
1 1 1 1 1 1 1 1 1 
1 1 1 1 1 1 1 1 1 
1 1 1 1 1 1 1 1 1 
1 1 1 1 1 1 1 1 1 
1 1 1 1 1 1 1 1 1 
1 1 1 1 1 1 1 1 1 
1 1 1 1 1 1 1 1 1 
1 1 1 1 1 1 1 1 1 
1 1 1 1 1 1 1 1 1 
1 1 1 1 1 1 1 1 1 
1 1 1 1 1 1 1 1 1 
1 1 1 1 1 1 1 1 1 
1 1 1 1 1 1 1 1 1 
1 1 1 1 1 1 1 1 1 
1 1 1 1 1 1 1 1 1 
1 1 1 1 1 1 1 1 1 
1 1 1 1 1 1 1 1 1 
1 1 1 1 1 1 1 1 1 
1 1 1 1 1 1 1 1 1 
1 1 1 1 1 1 1 1 1 
1 1 1 1 1 1 1 1 1 
1 1 1 1 1 1 1 1 1 
1 1 1 1 1 1 1 1 1 
1 1 1 1 1 1 1 1 1 
1 1 1 1 1 1 1 1 1 
1 1 1 1 1 1 1 1 1 
1 1 1 1 1 1 1 1 1 
1 1 1 1 1 1 1 1 1 
1 1 1 1 1 1 1 1 1 
1 1 1 1 1 1 1 1 1 
1 1 1 1 1 1 1 1 1 
1 1 1 1 1 1 1 1 1 
1 1 1 1 1 1 1 1 1 
1 1 1 1 1 1 1 1 1 
1 1 1 1 1 1 1 1 1 
1 1 1 1 1 1 1 1 1 
1 1 1 1 1 1 1 1 1 
1 1 1 1 1 1 1 1 1 
1 1 1 1 1 1 1 1 1 
1 1 1 1 1 1 1 1 1 
1 1 1 1 1 1 1 1 1 
1 1 1 1 1 1 1 1 1 
1 1 1 1 1 1 1 1 1 
1 1 1 1 1 1 1 1 1 
1 1 1 1 1 1 1 1 1 
1 1 1 1 1 1 1 1 1 
1 1 1 1 1 1 1 1 1 
1 1 1 1 1 1 1 1 1 
1 1 1 1 1 1 1 1 1 
1 1 1 1 1 1 1 1 1 
1 1 1 1 1 1 1 1 1 
1 1 1 1 1 1 1 1 1 
1 1 1 1 1 1 1 1 1 
1 1 1 1 1 1 1 1 1 
1 1 1 1 1 1 1 1 1 
1 1 1 1 1 1 1 1 1 
1 1 1 1 1 1 1 1 1 
1 1 1 1 1 1 1 1 1 
1 1 1 1 1 1 1 1 1 
1 1 1 1 1 1 1 1 1 
1 1 1 1 1 1 1 1 1 
1 1 1 1 1 1 1 1 1 
1 1 1 1 1 1 1 1 1 
1 1 1 1 1 1 1 1 1 
1 1 1 1 1 1 1 1 1 
1 1 1 1 1 1 1 1 1 
1 1 1 1 1 1 1 1 1 
1 1 1 1 1 1 1 1 1 
1 1 1 1 1 1 1 1 1 
1 1 1 1 1 1 1 1 1 
1 1 1 1 1 1 1 1 1 
1 1 1 1 1 1 1 1 1 
1 1 1 1 1 1 1 1 1 
1 1 1 1 1 1 1 1 1 
1 1 1 1 1 1 1 1 1 
1 1 1 1 1 1 1 1 1 
1 1 1 1 1 1 1 1 1 
1 1 1 1 1 1 1 1 1 
1 1 1 1 1 1 1 1 1 
1 1 1 1 1 1 1 1 1 
1 1 1 1 1 1 1 1 1 
1 1 1 1 1 1 1 1 1 
1 1 1 1 1 1 1 1 1 
1 1 1 1 1 1 1 1 1 
1 1 1 1 1 1 1 1 1 
1 1 1 1 1 1 1 1 1 
1 1 1 1 1 1 1 1 1 
1 1 1 1 1 1 1 1 1 
1 1 1 1 1 1 1 1 1 
1 1 1 1 1 1 1 1 1 
1 1 1 1 1 1 1 1 1 
1 1 1 1 1 1 1 1 1 
1 1 1 1 1 1 1 1 1 
1 1 1 1 1 1 1 1 1 
1 1 1 1 1 1 1 1 1 
1 1 1 1 1 1 1 1 1 
1 1 1 1 1 1 1 1 1 
1 1 1 1 1 1 1 1 1 
1 1 1 1 1 1 1 1 1 
1 1 1 1 1 1 1 1 1 
1 1 1 1 1 1 1 1 1 
1 1 1 1 1 1 1 1 1 
1 1 1 1 1 1 1 1 1 
1 1 1 1 1 1 1 1 1 
1 1 1 1 1 1 1 1 1 
1 1 1 1 1 1 1 1 1 
1 1 1 1 1 1 1 1 1 
1 1 1 1 1 1 1 1 1 
1 1 1 1 1 1 1 1 1 
1 1 1 1 1 1 1 1 1 
1 1 1 1 1 1 1 1 1 
1 1 1 1 1 1 1 1 1 
1 1 1 1 1 1 1 1 1 
1 1 1 1 1 1 1 1 1 
1 1 1 1 1 1 1 1 1 
1 1 1 1 1 1 1 1 1 
1 1 1 1 1 1 1 1 1 
1 1 1 1 1 1 1 1 1 
1 1 1 1 1 1 1 1 1 
1 1 1 1 1 1 1 1 1 
1 1 1 1 1 1 1 1 1 
1 1 1 1 1 1 1 1 1 
1 1 1 1 1 1 1 1 1 
1 1 1 1 1 1 1 1 1 
1 1 1 1 1 1 1 1 1 
1 1 1 1 1 1 1 1 1 
1 1 1 1 1 1 1 1 1 
1 1 1 1 1 1 1 1 1 
1 1 1 1 1 1 1 1 1 
1 1 1 1 1 1 1 1 1 
1 1 1 1 1 1 1 1 1 
1 1 1 1 1 1 1 1 1 
1 1 1 1 1 1 1 1 1 
1 1 1 1 1 1 1 1 1 
1 1 1 1 1 1 1 1 1 
1 1 1 1 1 1 1 1 1 
1 1 1 1 1 1 1 1 1 
1 1 1 1 1 1 1 1 1 
1 1 1 1 1 1 1 1 1 
1 1 1 1 1 1 1 1 1 
1 1 1 1 1 1 1 1 1 
1 1 1 1 1 1 1 1 1 
1 1 1 1 1 1 1 1 1 
1 1 1 1 1 1 1 1 1 
1 1 1 1 1 1 1 1 1 
1 1 1 1 1 1 1 1 1 
1 1 1 1 1 1 1 1 1 
1 1 1 1 1 1 1 1 1 
1 1 1 1 1 1 1 1 1 
1 1 1 1 1 1 1 1 1 
1 1 1 1 1 1 1 1 1 
1 1 1 1 1 1 1 1 1 
1 1 1 1 1 1 1 1 1 
1 1 1 1 1 1 1 1 1 
1 1 1 1 1 1 1 1 1 
1 1 1 1 1 1 1 1 1 
1 1 1 1 1 1 1 1 1 
1 1 1 1 1 1 1 1 1 
1 1 1 1 1 1 1 1 1 
1 1 1 1 1 1 1 1 1 
1 1 1 1 1 1 1 1 1 
1 1 1 1 1 1 1 1 1 
1 1 1 1 1 1 1 1 1 
1 1 1 1 1 1 1 1 1 
1 1 1 1 1 1 1 1 1 
1 1 1 1 1 1 1 1 1 
1 1 1 1 1 1 1 1 1 
1 1 1 1 1 1 1 1 1 
1 1 1 1 1 1 1 1 1 
1 1 1 1 1 1 1 1 1 
1 1 1 1 1 1 1 1 1 
1 1 1 1 1 1 1 1 1 
1 1 1 1 1 1 1 1 1 
1 1 1 1 1 1 1 1 1 
1 1 1 1 1 1 1 1 1 
1 1 1 1 1 1 1 1 1 
1 1 1 1 1 1 1 1 1 
1 1 1 1 1 1 1 1 1 
1 1 1 1 1 1 1 1 1 
1 1 1 1 1 1 1 1 1 
1 1 1 1 1 1 1 1 1 
1 1 1 1 1 1 1 1 1 
1 1 1 1 1 1 1 1 1 
1 1 1 1 1 1 1 1 1 
1 1 1 1 1 1 1 1 1 
1 1 1 1 1 1 1 1 1 
1 1 1 1 1 1 1 1 1 
1 1 1 1 1 1 1 1 1 
1 1 1 1 1 1 1 1 1 
1 1 1 1 1 1 1 1 1 
1 1 1 1 1 1 1 1 1 
1 1 1 1 1 1 1 1 1 
1 1 1 1 1 1 1 1 1 
1 1 1 1 1 1 1 1 1 
1 1 1 1 1 1 1 1 1 
1 1 1 1 1 1 1 1 1 
1 1 1 1 1 1 1 1 1 
1 1 1 1 1 1 1 1 1 
1 1 1 1 1 1 1 1 1 
1 1 1 1 1 1 1 1 1 
1 1 1 1 1 1 1 1 1 
1 1 1 1 1 1 1 1 1 
1 1 1 1 1 1 1 1 1 
1 1 1 1 1 1 1 1 1 
1 1 1 1 1 1 1 1 
NORMALS Normals float
-0.133927 -0.130967 -0.982299 0.0732424 -0.199347 -0.977188 -0.503667 -0.0852238 -0.859684 
-0.568809 -0.209929 -0.795227 -0.420148 0.100351 -0.90189 -0.251569 -0.130759 -0.958966 
0.210375 -0.0141896 -0.977518 -0.0897869 0.12369 -0.98825 0.0962116 0.186287 -0.977773 
-0.0120634 -0.329942 -0.943924 -0.243239 -0.359755 -0.900783 -0.326856 -0.358676 -0.874367 
-0.202502 -0.235616 -0.950515 -0.442876 0.097689 -0.891245 -0.255349 0.267687 -0.929053 
-0.0205774 0.48201 -0.875924 -0.208563 -0.404121 -0.890611 0.211459 -0.287322 -0.934201 
-0.423785 -0.484121 -0.765528 -0.75246 -0.387296 -0.532734 -0.397353 -0.259168 -0.880308 
0.334665 -0.198527 -0.921187 -0.775406 -0.138499 -0.616088 -0.519684 -0.183617 -0.834394 
-0.486935 0.110776 -0.866385 0.261212 0.219223 -0.940058 -0.627671 -0.490449 -0.604557 
-0.87462 -0.137514 -0.464897 -0.723115 -0.0982798 -0.6837 0.0961394 0.486002 -0.868653 
-0.131053 0.586682 -0.799143 0.227033 0.547671 -0.805303 -0.0953105 -0.490155 -0.866409 
-0.25418 -0.501309 -0.827093 -0.711871 -0.385814 -0.586846 -0.539782 -0.428701 -0.724466 
0 -0.894427 -0.447214 0 -1 0 -0.437612 -0.733084 0.520657 
0.437612 -0.733084 0.520657 0 0.640184 -0.768221 0.421697 -0.113836 -0.899563 
0.501884 -0.0519063 -0.863376 -0.791578 -0.275239 -0.545571 -0.710405 -0.0409978 -0.702598 
0.404396 0.167304 -0.899151 0.266787 0.454824 -0.849682 -0.632343 -0.580628 -0.512848 
-0.450652 -0.601229 -0.659876 -0.790511 -0.444715 -0.421096 -0.789023 -0.470652 -0.394878 
0 -0.293812 0.955863 0.54692 0.0630627 -0.834806 -0.453353 0.304035 -0.837874 
-0.271355 0.491861 -0.827308 0.0675155 0.783712 -0.617445 -0.184774 -0.503709 -0.843881 
-0.552328 -0.545424 -0.630434 -0.831633 -0.252441 -0.494631 -0.863163 -0.329872 -0.382276 
-0.864658 -0.176393 -0.470374 -0.758187 -0.0559449 -0.649632 0.464148 0.356762 -0.810733 
0.39652 0.600048 -0.694776 0.202797 0.639992 -0.741136 -0.178347 0.646371 -0.741888 
-0.0672138 0.683021 -0.7273 0.231555 0.803515 -0.548403 -0.156836 -0.559121 -0.814116 
-0.534544 -0.567355 -0.626396 0.175861 -0.462139 -0.869196 -0.635985 -0.504006 -0.584381 
0.491549 -0.238168 -0.837649 -0.873295 -0.307737 -0.377695 -0.932248 -0.359914 -0.0370787 
0.553198 0.0754634 -0.829625 0.543414 0.273283 -0.793737 -0.113905 0.558324 -0.821767 
0.348967 0.747561 -0.565133 -0.183421 0.654945 -0.733078 0.0828934 0.958621 -0.272351 
0.246255 0.743743 -0.621454 -0.0889931 0.810866 -0.578426 0.0293124 0.856379 -0.515516 
-0.0888679 -0.628466 -0.772744 -0.883152 -0.451732 -0.126414 -0.914008 -0.20076 -0.35254 
-0.354553 0.622125 -0.698035 -0.330768 0.62736 -0.704991 -0.177729 0.76083 -0.62414 
-0.0619686 0.916793 -0.394525 -0.0444227 -0.599465 -0.799168 -0.361781 -0.630541 -0.686682 
-0.126645 -0.639955 -0.757904 0.193098 -0.510923 -0.837658 -0.921223 -0.19522 -0.336508 
0.504526 0.572817 -0.646014 0.11134 0.991596 -0.065884 0.29968 0.89495 -0.33054 
-0.057304 0.832023 -0.551773 -0.00342213 0.965406 -0.260729 0.0401244 0.911892 -0.408465 
-0.111315 0.916726 -0.383695 -0.143758 0.96409 -0.223304 0.41587 -0.434307 -0.799018 
-0.844098 -0.525078 -0.108592 -0.761694 -0.573101 -0.302287 0.616363 0.0720924 -0.784155 
-0.937541 -0.265949 -0.224249 0.633792 0.324939 -0.701942 -0.615438 0.118237 -0.779267 
0.489208 0.689542 -0.534049 -0.631226 0.443904 -0.636006 0.358495 0.837324 -0.412759 
-0.461706 0.434544 -0.773304 -0.381665 0.411039 -0.827876 -0.00851888 0.979652 -0.200521 
-0.0372819 0.994083 -0.102023 -0.017538 0.995392 0.0942736 0.0184781 0.999726 -0.0143986 
-0.35199 -0.680795 -0.642356 -0.140574 -0.672077 -0.727015 0.210883 -0.580757 -0.786288 
-0.63398 -0.665162 -0.394498 -0.84346 -0.500458 0.195234 -0.96544 -0.210303 0.15394 
0.592352 -0.0968513 -0.799837 -0.890099 -0.394319 -0.228551 -0.870669 -0.203483 -0.447806 
-0.847182 -0.249528 -0.469062 0.569445 0.516453 -0.639538 -0.408584 0.774137 -0.483499 
-0.318771 0.664904 -0.675491 -0.27562 0.733336 -0.621492 0.0318212 0.972323 0.231464 
-0.311819 0.855909 -0.41254 -0.153707 0.935122 -0.319249 -0.157159 0.92336 -0.350296 
-0.600165 -0.719935 -0.348562 -0.467469 -0.667398 -0.5797 -0.921118 -0.388256 -0.0282777 
-0.838648 0.139862 -0.52641 -0.811741 0.187001 -0.55327 0.288562 0.945814 -0.148888 
-0.447162 0.759954 -0.471717 -0.351488 0.859211 -0.371769 0.127256 0.973191 0.191584 
-0.272112 0.936366 -0.221751 0.0221104 0.995964 -0.0869892 -0.383943 -0.734376 -0.559714 
-0.452511 -0.743284 -0.49271 -0.154604 0.15804 0.975254 0.650566 0.746566 0.139293 
-0.0232348 0.404764 0.914126 -0.559141 -0.294297 0.775081 0.523957 0.583059 0.620895 
0.685174 0.658164 0.312021 -0.515718 -0.405894 0.75451 -0.264999 -0.275747 0.92398 
0.727519 0.622339 0.288808 -0.442785 -0.512116 0.735988 0.769145 0.619112 -0.158478 
0.386632 0.141172 0.911365 -0.836508 -0.511327 0.196976 0.601681 0.606567 -0.51967 
-0.899229 -0.3668 -0.238424 0.529923 0.748093 -0.399423 -0.758418 0.336317 -0.558294 
0.0110856 0.860023 0.510135 0.189791 0.960085 0.205465 -0.566056 0.649417 -0.507778 
0.00670137 0.901655 0.432404 -0.242032 0.957904 -0.154401 -0.344116 0.888142 -0.304612 
-0.0419644 0.992833 0.1119 0.114394 0.962514 0.245926 0.120577 -0.668464 -0.733905 
-0.556385 -0.70541 -0.439126 -0.662954 -0.629345 -0.405484 -0.917087 -0.313661 0.246105 
0.370211 0.767767 0.522951 0.0323181 0.543723 0.838642 0.707755 0.617703 -0.342821 
-0.69572 -0.623245 0.357126 -0.851381 -0.516521 0.0914098 -0.922041 -0.354096 -0.156385 
-0.940281 -0.245171 -0.236139 0.0595308 0.8442 0.532712 -0.65128 0.668601 -0.358897 
-0.376299 0.921099 -0.0998804 0.598805 -0.297777 -0.743479 0.660339 -0.187918 -0.727076 
0.0530726 0.470907 0.880585 0.711025 -0.00630464 -0.703138 -0.0601948 0.282043 0.957511 
0.513281 0.762718 0.393451 -0.373842 -0.086436 0.923456 -0.605034 -0.500615 0.619128 
0.493575 0.798798 0.343956 -0.181197 0.167694 0.969044 -0.538822 -0.397396 0.742797 
0.695316 0.158496 -0.70101 -0.698325 -0.645521 0.309265 0.733945 0.605013 -0.308681 
0.323161 0.515876 -0.793372 0.0623366 0.38226 -0.92195 0.0623366 0.38226 -0.92195 
0.120943 0.223085 0.967267 0.704424 0.695605 0.141138 0.319125 0.648817 0.690794 
-0.419443 0.479688 0.770693 0.612883 0.64549 -0.455759 0.696361 0.594493 0.402069 
0.266073 0.963929 0.00677972 0.0582731 0.883175 0.46541 -0.142968 0.975075 0.169671 
-0.478237 0.856678 -0.193368 -0.231144 0.970116 -0.0738014 -0.611621 -0.727552 -0.310785 
-0.473792 -0.725415 -0.499294 -0.720482 -0.620786 -0.309081 0.441165 -0.461357 -0.769755 
-0.9339 -0.352455 0.0600556 -0.894192 -0.337278 0.294389 0.209621 0.611369 0.763078 
0.547598 0.783698 0.293178 0.540268 0.769783 0.33992 -0.0325943 0.434075 0.900287 
-0.288793 0.104664 0.951653 -0.350761 0.00884258 0.936423 -0.640666 -0.645324 0.416058 
0.634343 0.699458 -0.329193 -0.696468 -0.639457 0.32562 0.733603 0.598831 -0.321292 
0.841865 0.528138 -0.111058 0.841669 0.530454 -0.101058 0.254263 0.918534 0.302729 
0.872717 0.479581 0.0914734 0.0758452 0.913823 0.398967 -0.335467 0.415286 0.845576 
0.219837 0.327885 0.918783 -0.341013 0.0873991 0.935987 0.35102 0.934693 -0.0559847 
-0.740021 -0.643131 0.196856 0.330086 0.815974 0.474583 0.103585 0.700747 0.705849 
-0.135536 0.98121 0.137322 -0.363516 0.929243 -0.0660599 -0.025545 0.936365 0.350096 
-0.303778 -0.843127 -0.443683 0.240246 -0.638641 -0.73104 -0.866536 -0.499078 0.0060622 
-0.589542 -0.599006 0.541879 0.539154 0.754967 0.37328 0.191155 0.772473 0.605595 
-0.104619 0.429203 0.897129 -0.20612 0.336498 0.918849 -0.491531 -0.138234 0.859819 
0.693542 0.643008 -0.324869 0.851139 0.491579 -0.184156 0.470624 0.825943 -0.310373 
-0.643741 -0.715284 0.271968 0.571546 0.763673 -0.30023 -0.760223 -0.458413 0.460347 
0.721036 0.596858 -0.351949 0.730306 0.595771 -0.334231 -0.759127 -0.57233 0.310104 
-0.764661 -0.57398 0.292985 0.693625 0.470495 -0.545452 0.872097 0.483579 0.0748165 
0.849105 0.525809 -0.0504563 0.832512 0.511329 0.21323 0.336695 0.816745 0.468577 
-0.143848 0.428869 0.89184 0.539804 0.795599 -0.275018 -0.842346 -0.50594 0.185683 
0.509769 0.590834 0.62534 0.138565 0.802567 0.580246 0.0775536 0.985273 0.152391 
-0.903988 0.165411 -0.394264 -0.643292 0.649839 -0.404826 -0.574444 0.812045 -0.10294 
-0.425054 0.879787 -0.212847 -0.239677 0.967934 -0.0752274 -0.821377 -0.56279 -0.0927755 
0.341275 0.813128 0.471544 0.482767 0.856866 0.180877 -0.100802 0.549213 0.829581 
0.612011 0.78517 0.0946082 -0.339294 0.178952 0.923502 -0.573643 -0.36823 0.73167 
-0.529426 -0.335388 0.779245 0.812954 0.565334 -0.139655 -0.574872 -0.773673 0.26637 
-0.794713 -0.332194 0.508014 0.777199 0.596346 -0.200833 -0.698325 -0.645521 0.309265 
0.706742 0.6161 -0.347759 -0.60657 -0.697497 0.381537 0.72402 0.612373 -0.317481 
0.630097 0.742927 -0.225914 -0.737182 -0.594453 0.321228 -0.742933 -0.597925 0.300894 
0.741539 0.459932 -0.488449 0.818979 0.542665 -0.186516 -0.837954 -0.512012 0.188883 
0.798431 0.482783 -0.359761 0.761426 0.574581 -0.300145 0.779299 0.623551 -0.0622588 
-0.83099 -0.425922 0.357837 0.189431 0.520767 0.832417 0.773002 0.293589 -0.562382 
-0.73221 -0.408582 0.544913 0.593663 0.795055 -0.12431 -0.789829 -0.228993 0.568975 
-0.633597 0.165896 0.755667 0.0455834 0.920762 0.387453 -0.646003 -0.549397 0.529946 
-0.615015 -0.659622 0.432036 -0.836101 -0.521725 -0.169527 -0.518034 -0.773571 0.365005 
-0.00191251 0.896934 0.44216 -0.0257522 0.822768 0.567794 -0.123996 0.946305 0.298551 
-0.0614879 0.961439 0.268057 -0.0596364 0.966379 0.25011 -0.0388679 -0.772198 -0.634192 
-0.702629 -0.691058 -0.16956 -0.696247 -0.684674 -0.215552 -0.846904 -0.529576 -0.0479915 
-0.00782757 0.674811 0.737949 -0.169099 0.513492 0.841268 0.661856 0.737137 0.136292 
-0.351231 0.244058 0.903921 -0.377351 0.223835 0.898612 -0.524242 -0.211617 0.824857 
-0.541978 0.0233072 0.840069 -0.719965 -0.478083 0.503078 0.671531 0.740135 -0.0353043 
-0.629046 -0.505174 0.590847 0.677727 0.718052 -0.158391 -0.602038 -0.617983 0.505616 
-0.966651 -0.245394 0.0732607 -0.403405 -0.705648 0.582517 0.732962 0.606685 -0.307733 
0.996753 -0.0397778 0.0700088 0.660932 0.74967 -0.034124 0.482073 0.87442 -0.054722 
-0.74244 -0.596829 0.304266 -0.455688 -0.816671 0.354113 0.763964 0.602628 -0.230648 
0.798972 0.576544 0.170996 0.697636 0.685644 -0.207837 -0.944463 0.0826067 0.318065 
0.961911 0.260522 0.0828025 0.808376 0.581596 0.0909588 -0.730362 0.000887143 0.68306 
-0.691194 -0.336084 0.639764 0.245248 -0.826315 0.507008 0.301629 0.345051 -0.888797 
0.549561 0.817864 0.170532 0.302573 0.951361 -0.0579739 -0.299486 0.668016 0.681221 
-0.746261 -0.466422 0.474915 -0.295849 0.459308 0.837561 -0.436798 -0.407754 0.801838 
-0.711777 -0.456713 0.533654 -0.280854 -0.936939 0.208004 0.00365391 -0.383885 0.923374 
0.374054 -0.406632 0.833507 -0.0673423 0.107719 0.991898 -0.599224 -0.135088 0.789102 
-0.354859 0.130874 0.925714 -0.180708 0.704131 0.686691 -0.896902 0.335265 -0.288381 
0.368093 0.438992 0.81963 0.153999 0.475379 0.866198 -0.101352 0.582017 0.806836 
-0.528395 0.836678 0.144114 0.152725 0.81318 0.561616 -0.346403 0.922326 0.171228 
-0.160482 -0.801189 -0.57649 -0.522677 -0.810425 -0.264615 0.324251 -0.637485 -0.698909 
0.494425 -0.536252 -0.684089 -0.837991 -0.473719 0.270852 -0.927865 -0.288746 0.235993 
0.228229 0.746315 0.625241 0.600401 0.77101 0.212278 -0.335054 0.378248 0.862941 
-0.305277 0.417475 0.855874 -0.611424 -0.719289 0.329823 -0.615727 -0.6335 0.46857 
0.791845 0.00310371 -0.610714 0.783017 0.621472 -0.0256501 0.741598 -0.31171 0.594027 
0.881 0.181474 0.436928 0.89408 0.440626 0.0804384 -0.0273245 -0.741936 0.669914 
0.150525 -0.475618 0.866678 -0.349762 -0.627235 0.695876 0.632019 0.773739 -0.0433609 
-0.0854499 0.971219 0.222335 -0.661425 0.482606 0.574115 0.73531 0.64987 0.192324 