# vtk DataFile Version 4.2
vtk output
ASCII
DATASET POLYDATA
POINTS 1233 float
78.9858 140.293 169.299 78.931 140.399 169.286 78.7321 140.385 169.281 
79.2177 140.617 169.427 79.8827 141.336 169.585 79.8779 141.297 169.579 
79.7704 141.274 169.604 79.9071 141.332 169.626 79.8681 141.403 169.695 
77.3456 137.235 169.504 77.3062 137.144 169.505 77.2618 137.146 169.51 
77.337 137.319 169.492 77.2086 137.299 169.522 77.9813 139.305 169.312 
78.4331 139.115 169.662 78.0124 139.644 169.26 78.1782 139.98 169.259 
78.3133 140.255 169.3 79.4995 140.684 169.62 79.6126 140.98 169.569 
79.4622 141.112 169.565 79.3003 141.31 169.683 79.8466 141.21 169.663 
79.6682 141.516 169.848 79.8999 141.531 169.936 74.6571 132.155 170.244 
74.4681 131.866 170.283 74.8448 132.477 170.305 75.6882 134.194 170.092 
76.2083 135.094 170.15 76.4027 136.197 169.761 77.0423 136.842 169.693 
77.4215 137.177 169.943 77.4226 137.905 169.531 77.7336 137.87 169.781 
76.3637 138.226 169.691 77.4915 139.722 169.476 79.3562 140.143 170.081 
78.0047 140.187 169.397 71.6699 126.875 171.147 71.6523 126.959 171.118 
72.3068 127.994 170.993 72.4802 128.221 171.01 72.5299 128.494 170.846 
80.5445 129.14 170.75 80.3541 129.505 170.712 75.1639 132.919 170.589 
80.5347 131.109 170.634 74.999 133.169 170.172 74.1678 134.465 170.151 
75.0689 134.062 169.997 81.3762 134.419 170.963 83.8516 134.086 170.452 
77.2007 136.596 170.362 82.4927 135.743 170.945 83.954 135.506 170.632 
85.2813 136.563 170.992 78.3348 138.43 170.462 84.698 136.596 170.938 
84.4533 137.336 171.395 85.2646 137.279 171.327 70.6596 125.557 171.441 
70.565 125.218 171.625 70.6459 125.805 171.348 70.7771 126.271 171.254 
71.3117 126.332 171.34 71.3316 126.772 171.159 71.9468 127.228 171.529 
71.8932 127.466 171.092 79.5208 127.392 171.165 78.744 128.147 171.267 
72.8347 129.392 170.781 73.3145 129.694 171.138 79.4073 129.808 171.037 
72.9266 132.126 170.455 73.933 135.679 170.421 82.5324 136.721 171.488 
86.2538 137.305 171.593 86.0609 137.579 171.685 76.5319 140.292 170.266 
80.3172 141.905 171.526 77.7866 142.112 170.765 79.094 142.958 171.26 
70 120.009 171.017 70 120.009 171.017 70 120.009 171.017 
70 120.009 171.017 70 120.009 171.017 77.9201 121.982 172.535 
78.4176 121.824 172.565 69.9702 124.176 172.202 68.8694 124.387 172.056 
70.8506 125.286 171.933 77.1096 128.168 172.14 74.6268 131.828 171.338 
85.8147 134.797 170.893 88.3214 134.856 172.295 76.7234 135.635 171.417 
78.5136 138.539 171.933 81.7877 136.803 171.979 86.5739 137.133 171.677 
84.6702 138.561 172.496 87.7485 138.607 172.992 87.6605 138.601 172.931 
87.8977 138.511 173.134 86.2418 138.788 172.788 87.655 138.706 173.089 
76.7326 141.586 171.028 80.1512 142.869 171.676 79.7821 143.501 171.989 
79.781 143.69 172.264 79.9385 143.351 171.933 79.9219 143.584 172.156 
68.174 121.848 173.214 77.2068 119.586 173.351 68.493 122.44 172.941 
68.5878 122.376 173.14 70 120.009 171.017 67.5295 122.329 172.958 
68.9784 123.066 172.74 68.8873 122.754 173.008 78.7603 120.967 172.94 
76.555 122.286 172.696 79.4214 122.063 172.6 70.4432 124.732 172.497 
75.666 123.319 172.868 70.7656 125.151 172.175 71.3334 126.071 172.13 
81.5368 124.913 172.049 75.8729 125.929 172.738 71.6923 126.985 172.708 
67.6982 127.92 172.614 84.2144 128.635 171.692 78.221 131.905 172.174 
88.8788 132.181 173.26 88.9886 134.063 173.018 89.3638 133.579 173.461 
87.0785 134.515 171.483 87.864 134.922 172.037 80.4621 135.391 172.017 
82.0334 137.89 173.003 88.084 137.755 172.937 87.7778 138.166 172.853 
83.7815 138.998 173.432 87.462 138.487 172.826 87.5779 138.927 173.335 
80.3966 141.55 172.712 80.6442 142.375 172.739 80.7203 142.613 172.864 
75.7827 142.625 173.002 80.731 142.772 172.986 79.9401 143.71 172.359 
66.9827 120.378 174.126 66.4345 120.102 174.223 68.8406 122.646 173.179 
68.9393 122.794 173.326 65.3565 123.024 173.594 83.9734 125.951 172.841 
75.8255 128.954 173.439 79.3422 135.211 173.156 89.6828 136.215 174.068 
89.4955 137.018 174.248 86.7393 139.582 174.265 78.0001 144.2 173.568 
65.0777 117.818 175.439 65.5327 118.266 175.282 65.3464 118.003 175.391 
65.4848 118.079 175.461 65.9699 119.375 174.674 66.1704 119.185 175.175 
66.8954 120.258 174.229 66.6697 120.004 174.503 87.1095 127.104 174.508 
87.3565 127.384 174.627 66.1044 130.163 174.721 89.62 131.589 174.529 
90.4252 134.146 175.062 80.7165 137.539 174.105 72.8555 140.176 173.691 
84.2 139.845 174.907 87.9808 139.3 174.655 74.0082 142.386 174.576 
81.1444 143.312 174.825 80.2816 144.291 173.734 81.271 143.989 175.361 
78.1747 144.98 174.952 80.4319 144.618 174.461 80.6769 144.454 174.362 
80.6857 144.545 174.504 80.83 144.301 174.471 80.7654 144.481 174.506 
64.5528 116.764 176.198 62.4351 117.385 176.139 76.5489 115.601 175.25 
66.7753 120.021 175.003 67.1608 120.816 175.707 71.1937 120.354 175.72 
82.2218 120.767 174.794 62.8136 124.763 175.611 89.4862 130.255 175.239 
90.609 133.204 175.85 90.4829 135.634 175.537 88.5434 139.115 175.344 
71.9413 140.59 175.41 85.8941 140.48 176.251 80.1784 144.958 174.926 
80.7878 144.556 174.75 78.5571 145.69 176.36 78.0742 113.199 176.982 
79.5209 113.493 177.545 62.5984 115.95 176.906 63.4541 116.04 176.775 
63.6003 115.905 177.077 70.1416 115.371 177.138 61.7259 118.51 176.114 
85.8803 123.64 176.337 88.5839 139.337 176.315 85.3045 140.613 176.811 
86.366 140.71 177.42 81.446 144.57 176.258 80.6761 145.128 175.742 
78.3499 145.899 176.894 77.3345 111.284 178.083 61.837 114.78 178.181 
63.1788 115.293 178.076 60.5437 115.424 178.24 61.2958 114.954 178.155 
64.4611 116.593 177.356 65.1654 117.605 177.029 82.0523 117.332 177.2 
65.8473 118.968 177.225 69.0048 118.544 177.847 69.3848 120.786 177.734 
61.1313 124.102 177.147 89.9042 130.054 176.837 66.4259 133.673 176.807 
90.2996 137.293 176.725 89.6553 138.356 177.346 87.2147 140.413 177.114 
87.5473 140.293 177.406 72.9601 142.576 176.607 81.6501 143.508 177.321 
77.3229 146.156 178.448 71.0345 110.97 179.231 72.4599 110.317 179.376 
78.5147 110.493 179.266 61.0692 114.07 179.376 61.9363 114.367 178.932 
79.5617 111.73 179.128 63.0834 115.123 178.46 58.6988 119.048 178.849 
68.4326 120.3 179.012 60.454 125.106 178.948 69.8438 123.868 178.856 
68.3877 125.793 178.492 75.1898 135.77 178.221 77.9459 136.233 178.044 
82.0494 144.407 178.121 80.7002 146.141 178.107 78.966 146.631 178.682 
79.8824 146.598 178.644 76.6425 109.852 179.243 73.9699 110.181 179.034 
59.0993 114.79 180.132 63.0181 115.075 179.343 67.6014 116.189 179.763 
67.7045 118.805 179.865 58.1026 120.027 179.984 59.3151 122.6 178.977 
59.442 123.543 179.426 81.532 139.403 179.746 70.2805 140.266 179.14 
84.4451 140.778 179.645 87.2339 140.608 179.227 82.1235 144.116 178.879 
82.2358 144.656 179.198 75.5786 145.531 179.309 81.3216 146.178 179.247 
82.1242 145.436 178.957 79.8371 146.876 179.674 77.1644 108.644 181.098 
71.7666 109.279 181.321 74.0164 108.994 180.821 69.5213 110.705 180.638 
69.0021 111.337 180.518 60.5916 113.535 180.638 68.5372 112.034 180.428 
67.5118 113.468 180.998 68.035 113.815 179.899 63.3452 115.656 180.174 
57.7843 116.977 180.697 57.8312 117.715 180.349 57.688 119.369 180.934 
58.1919 121.133 180.433 90.1674 130.296 179.984 65.0961 133.293 179.852 
85.9224 140.875 180.195 87.5369 140.47 180.039 82.2097 144.323 179.186 
82.1676 145.367 179.611 75.8631 108.491 181.295 78.4099 109.328 180.987 
73.0629 108.884 181.697 59.9442 113.48 181.508 60.9441 113.513 181.092 
68.1443 112.088 180.97 67.712 112.365 181.621 80.672 111.843 181.149 
57.7671 116.578 181.329 64.076 117.655 181.358 66.9574 117.149 181.545 
58.8737 123.308 181.197 88.3313 125.388 181.164 89.3389 138.352 180.716 
88.2561 139.921 180.628 81.6067 142.774 180.743 86.8481 140.71 180.618 
77.9846 146.896 181.797 81.6906 146.403 181.049 80.8938 146.836 180.891 
70.3503 109.693 182.027 68.037 111.715 182.258 59.7697 113.531 181.621 
59.8775 113.478 181.778 61.1513 113.599 181.653 59.0523 114.257 182.087 
58.2262 115.425 181.802 66.7023 114.566 182.46 57.7435 116.772 182.006 
66.7003 115.24 182.168 57.5352 118.509 181.73 60.0665 125.552 181.702 
65.0947 133.455 181.698 88.4582 139.457 181.969 71.0218 141.336 181.341 
87.7003 140.276 181.265 87.4125 140.405 181.494 82.3229 145.722 181.548 
82.4808 145.356 181.965 76.3772 146.063 182.328 81.3628 146.696 181.389 
79.4729 147.283 182.33 80.4093 147.146 182.082 76.657 107.939 183.201 
70.2927 109.661 183.153 60.2826 113.465 182.233 60.8198 113.494 182.121 
67.4715 112.606 182.607 81.8619 112.941 182.936 58.5222 115.212 182.505 
66.7841 114.255 183.095 66.6325 115.016 182.87 57.689 118.14 182.686 
85.7273 119.971 182.504 68.5802 123.082 183.106 89.0595 127.562 182.822 
74.8213 132.543 182.499 85.2314 140.565 182.67 81.8127 146.574 182.498 
80.3983 147.267 183.102 76.0251 107.999 183.901 77.1037 108.005 183.558 
77.7206 108.343 183.363 60.6839 113.637 182.745 59.8564 113.933 182.935 
59.1449 114.57 182.951 58.6912 115.423 183.127 66.6647 115.064 183.201 
57.8569 120.344 183.036 58.3554 122.039 183.003 59.5186 124.371 182.777 
60.7353 126.329 183.153 81.2727 138.244 184.185 88.9789 138.077 183.174 
70.1269 139.409 183.578 75.1785 144.863 183.638 82.2308 146.246 183.291 
76.4956 108.016 184.191 76.7536 107.992 184.03 77.3352 108.162 184.082 
69.3572 110.548 184.15 80.0458 110.319 184.975 60.4972 113.673 182.887 
60.6481 113.756 182.989 80.7681 111.211 184.15 59.0008 114.942 183.185 
61.1649 114.354 183.255 67.1664 113.827 184.03 59.1357 115.092 183.464 
58.669 116.064 183.54 58.2636 119.12 183.89 67.2231 118.424 184.144 
68.0771 121.389 184.39 59.0716 123.096 183.407 60.8741 126.257 183.609 
66.6094 134.903 183.726 80.2899 141.145 184.132 87.0463 140.159 183.456 
87.4545 139.652 184.178 82.6893 144.485 184.365 82.6835 145.509 184.687 
79.729 147.013 184.672 81.0672 147.019 184.066 81.4354 146.758 184.25 
69.5559 110.55 184.457 68.4702 111.801 184.677 60.4714 113.859 183.105 
[...]
POINT_DATA 1233
SCALARS scalars float
LOOKUP_TABLE default
1 1 1 1 1 1 1 1 1 
1 1 1 1 1 1 1 1 1 
1 1 1 1 1 1 1 1 1 
1 1 1 1 1 1 1 1 1 
1 1 1 1 1 1 1 1 1 
1 1 1 1 1 1 1 1 1 
1 1 1 1 1 1 1 1 1 
1 1 1 1 1 1 1 1 1 
1 1 1 1 1 1 1 1 1 
1 1 1 1 1 1 1 1 1 
1 1 1 1 1 1 1 1 1 
1 1 1 1 1 1 1 1 1 
1 1 1 1 1 1 1 1 1 
1 1 1 1 1 1 1 1 1 
1 1 1 1 1 1 1 1 1 
1 1 1 1 1 1 1 1 1 
1 1 1 1 1 1 1 1 1 
1 1 1 1 1 1 1 1 1 
1 1 1 1 1 1 1 1 1 
1 1 1 1 1 1 1 1 1 
1 1 1 1 1 1 1 1 1 
1 1 1 1 1 1 1 1 1 
1 1 1 1 1 1 1 1 1 
1 1 1 1 1 1 1 1 1 
1 1 1 1 1 1 1 1 1 
1 1 1 1 1 1 1 1 1 
1 1 1 1 1 1 1 1 1 
1 1 1 1 1 1 1 1 1 
1 1 1 1 1 1 1 1 1 
1 1 1 1 1 1 1 1 1 
1 1 1 1 1 1 1 1 1 
1 1 1 1 1 1 1 1 1 
1 1 1 1 1 1 1 1 1 
1 1 1 1 1 1 1 1 1 
1 1 1 1 1 1 1 1 1 
1 1 1 1 1 1 1 1 1 
1 1 1 1 1 1 1 1 1 
1 1 1 1 1 1 1 1 1 
1 1 1 1 1 1 1 1 1 
1 1 1 1 1 1 1 1 1 
1 1 1 1 1 1 1 1 1 
1 1 1 1 1 1 1 1 1 
1 1 1 1 1 1 1 1 1 
1 1 1 1 1 1 1 1 1 
1 1 1 1 1 1 1 1 1 
1 1 1 1 1 1 1 1 1 
1 1 1 1 1 1 1 1 1 
1 1 1 1 1 1 1 1 1 
1 1 1 1 1 1 1 1 1 
1 1 1 1 1 1 1 1 1 
1 1 1 1 1 1 1 1 1 
1 1 1 1 1 1 1 1 1 
1 1 1 1 1 1 1 1 1 
1 1 1 1 1 1 1 1 1 
1 1 1 1 1 1 1 1 1 
1 1 1 1 1 1 1 1 1 
1 1 1 1 1 1 1 1 1 
1 1 1 1 1 1 1 1 1 
1 1 1 1 1 1 1 1 1 
1 1 1 1 1 1 1 1 1 
1 1 1 1 1 1 1 1 1 
1 1 1 1 1 1 1 1 1 
1 1 1 1 1 1 1 1 1 
1 1 1 1 1 1 1 1 1 
1 1 1 1 1 1 1 1 1 
1 1 1 1 1 1 1 1 1 
1 1 1 1 1 1 1 1 1 
1 1 1 1 1 1 1 1 1 
1 1 1 1 1 1 1 1 1 
1 1 1 1 1 1 1 1 1 
1 1 1 1 1 1 1 1 1 
1 1 1 1 1 1 1 1 1 
1 1 1 1 1 1 1 1 1 
1 1 1 1 1 1 1 1 1 
1 1 1 1 1 1 1 1 1 
1 1 1 1 1 1 1 1 1 
1 1 1 1 1 1 1 1 1 
1 1 1 1 1 1 1 1 1 
1 1 1 1 1 1 1 1 1 
1 1 1 1 1 1 1 1 1 
1 1 1 1 1 1 1 1 1 
1 1 1 1 1 1 1 1 1 
1 1 1 1 1 1 1 1 1 
1 1 1 1 1 1 1 1 1 
1 1 1 1 1 1 1 1 1 
1 1 1 1 1 1 1 1 1 
1 1 1 1 1 1 1 1 1 
1 1 1 1 1 1 1 1 1 
1 1 1 1 1 1 1 1 1 
1 1 1 1 1 1 1 1 1 
1 1 1 1 1 1 1 1 1 
1 1 1 1 1 1 1 1 1 
1 1 1 1 1 1 1 1 1 
1 1 1 1 1 1 1 1 1 
1 1 1 1 1 1 1 1 1 
1 1 1 1 1 1 1 1 1 
1 1 1 1 1 1 1 1 1 
1 1 1 1 1 1 1 1 1 
1 1 1 1 1 1 1 1 1 
1 1 1 1 1 1 1 1 1 
1 1 1 1 1 1 1 1 1 
1 1 1 1 1 1 1 1 1 
1 1 1 1 1 1 1 1 1 
1 1 1 1 1 1 1 1 1 
1 1 1 1 1 1 1 1 1 
1 1 1 1 1 1 1 1 1 
1 1 1 1 1 1 1 1 1 
1 1 1 1 1 1 1 1 1 
1 1 1 1 1 1 1 1 1 
1 1 1 1 1 1 1 1 1 
1 1 1 1 1 1 1 1 1 
1 1 1 1 1 1 1 1 1 
1 1 1 1 1 1 1 1 1 
1 1 1 1 1 1 1 1 1 
1 1 1 1 1 1 1 1 1 
1 1 1 1 1 1 1 1 1 
1 1 1 1 1 1 1 1 1 
1 1 1 1 1 1 1 1 1 
1 1 1 1 1 1 1 1 1 
1 1 1 1 1 1 1 1 1 
1 1 1 1 1 1 1 1 1 
1 1 1 1 1 1 1 1 1 
1 1 1 1 1 1 1 1 1 
1 1 1 1 1 1 1 1 1 
1 1 1 1 1 1 1 1 1 
1 1 1 1 1 1 1 1 1 
1 1 1 1 1 1 1 1 1 
1 1 1 1 1 1 1 1 1 
1 1 1 1 1 1 1 1 1 
1 1 1 1 1 1 1 1 1 
1 1 1 1 1 1 1 1 1 
1 1 1 1 1 1 1 1 1 
1 1 1 1 1 1 1 1 1 
1 1 1 1 1 1 1 1 1 
1 1 1 1 1 1 1 1 1 
1 1 1 1 1 1 1 1 1 
1 1 1 1 1 1 1 1 1 

NORMALS Normals float
0.360495 -0.21362 -0.90797 0.141228 0.193585 -0.970865 -0.086727 0.384062 -0.919225 
0.509161 -0.13619 -0.849828 0.268171 0.537685 -0.799362 0.49027 -0.349212 -0.798553 
-0.103406 0.244663 -0.964078 0.906979 0.199577 -0.370888 0.137193 0.818444 -0.557967 
0.419056 -0.151536 -0.895226 0.567954 -0.495162 -0.657452 -0.191069 -0.139556 -0.971605 
0.1866 -0.0273162 -0.982056 -0.568043 0.0905272 -0.818005 -0.0146478 -0.133453 -0.990947 
0.78779 -0.468464 -0.39991 -0.223687 0.042818 -0.97372 -0.0690318 0.0718027 -0.995027 
-0.276744 0.520854 -0.807542 0.65241 -0.469098 -0.595238 0.422741 -0.134281 -0.896247 
-0.0787314 0.333847 -0.939334 -0.223867 0.472433 -0.852462 0.770369 -0.471129 -0.429615 
-0.0412694 0.704736 -0.708269 0.513964 0.68897 -0.51104 0.325383 -0.256945 -0.910003 
0.656557 -0.50051 -0.564289 0.854311 -0.445977 -0.266942 0.691182 -0.400756 -0.601383 
0.769983 -0.479611 -0.420832 0.203745 -0.215503 -0.955011 0.111529 -0.404136 -0.907874 
0.81491 -0.539336 -0.212222 0.0291969 -0.119064 -0.992457 0.837955 -0.406416 -0.364222 
-0.49103 0.144991 -0.858992 -0.393247 0.232035 -0.889672 0.784549 -0.542792 -0.299767 
-0.391385 0.464463 -0.794413 0.523921 -0.434693 -0.732495 0.110398 -0.1845 -0.976613 
0.185933 -0.350844 -0.917789 0.833263 -0.490456 -0.255198 0.805273 -0.406461 -0.431654 
-0.0107961 -0.154401 -0.987949 -0.217988 -0.124997 -0.967914 0.872185 -0.419123 -0.252249 
-0.244666 0.069049 -0.967146 0.394976 -0.279502 -0.875142 -0.18886 0.00636498 -0.981983 
-0.0618133 -0.0699431 -0.995634 -0.46188 0.266123 -0.846076 0.0419369 -0.0241811 -0.998828 
0.859759 -0.478725 -0.17787 -0.295201 0.333615 -0.895297 -0.0663407 0.297576 -0.95239 
0.214387 0.274714 -0.937321 0.852232 -0.499962 -0.154072 0.0540318 0.351167 -0.934752 
-0.121138 0.590933 -0.797574 0.108878 0.527598 -0.842488 0.190994 -0.382262 -0.9041 
0.285893 -0.562768 -0.775601 -0.0833638 -0.310299 -0.946977 -0.0820412 -0.133379 -0.987664 
0.749855 -0.525721 -0.401665 0.0161504 -0.203257 -0.978992 0.844677 -0.51975 -0.12799 
0.480084 -0.369032 -0.795823 -0.186448 -0.227704 -0.955713 -0.38855 -0.0297954 -0.920946 
0.289965 -0.285011 -0.913613 0.824878 -0.503457 -0.257113 -0.423595 -0.0268295 -0.905454 
-0.31422 0.0215572 -0.949105 -0.467999 0.197099 -0.861469 -0.27891 0.579128 -0.766042 
0.326411 0.343623 -0.880556 0.21388 0.62894 -0.747456 -0.754862 0.330376 -0.5666 
0.971583 -0.0379543 -0.233636 -0.368451 0.568423 -0.735621 -0.0867826 0.783471 -0.615339 
0 0.268207 -0.963361 -0.83205 -0.5547 0 -0.987175 0.159641 0 
0.987175 0.159641 0 0 1 0 -0.135062 -0.209829 -0.968365 
-0.0691611 -0.465211 -0.882494 0.644035 -0.675854 -0.358386 -0.309687 -0.124828 -0.942609 
0.785861 -0.584906 -0.200768 -0.479845 0.0209928 -0.877102 0.86599 -0.499286 0.0278358 
0.284162 0.0548656 -0.957205 0.616506 0.00218019 -0.787347 0.875194 -0.465583 -0.131407 
0.84807 -0.526429 -0.0604106 -0.507587 0.534097 -0.676088 0.437812 0.398959 -0.8057 
-0.139947 0.734177 -0.664378 0.602652 0.421488 -0.677612 0.288484 0.564702 -0.773232 
0.723572 0.546203 -0.422026 0.131037 0.763657 -0.632185 0.310363 0.792226 -0.525407 
-0.653777 0.559407 -0.509548 0.720304 0.472338 -0.507995 0.145032 0.731996 -0.665693 
0.0686962 0.86652 -0.494392 0.583915 0.553914 -0.593484 0.450308 0.70653 -0.545928 
0.596824 -0.671155 -0.439717 0.0620111 -0.429706 -0.900837 0.462246 -0.604073 -0.649173 
0.69787 -0.659479 -0.279401 0 0.268207 0.963361 -0.136365 -0.38405 -0.913187 
0.74451 -0.595704 -0.301399 0.83029 -0.516574 -0.209213 0.136432 -0.442655 -0.886252 
-0.256781 -0.354915 -0.898943 0.241424 -0.368017 -0.89793 0.819145 -0.565122 0.0981734 
-0.478127 -0.026922 -0.877878 0.866786 -0.430995 0.25085 0.89282 -0.450133 -0.0159311 
0.247737 -0.31765 -0.915273 -0.563624 0.0239336 -0.825684 0.870064 -0.473517 0.137005 
-0.548769 0.240896 -0.800513 0.474933 -0.335036 -0.813751 -0.671081 0.320409 -0.668572 
0.695571 -0.228549 -0.681136 0.687452 -0.00715027 -0.726194 0.814787 -0.0644801 -0.576164 
0.45893 -0.0930153 -0.88359 0.518308 -0.0136143 -0.855086 -0.629139 0.426278 -0.649977 
-0.409708 0.72658 -0.551562 0.552585 0.178331 -0.814155 0.519313 0.191019 -0.832962 
-0.272437 0.850434 -0.450045 0.215045 0.342014 -0.914758 0.433559 0.781202 -0.449166 
0.914402 -0.402233 -0.0455746 0.929667 -0.349843 0.115453 0.991928 -0.0844879 -0.094555 
-0.539254 0.612266 -0.578218 0.996821 -0.0759991 -0.0239266 0.478282 0.760049 -0.439967 
0.547639 -0.708877 -0.444506 0.149757 -0.625192 -0.765968 0.865367 -0.50099 0.012239 
0.789404 -0.613688 -0.0151147 -0.450281 -0.0271756 -0.892473 0.483106 -0.374065 -0.791634 
-0.748186 0.207129 -0.630329 -0.733872 0.421019 -0.53308 0.896173 0.2678 -0.353775 
0.799333 0.398466 -0.449768 0.202629 0.931525 -0.301999 -0.198519 0.863658 -0.463341 
0.202685 -0.61681 -0.760569 0.765701 -0.556111 -0.323177 0.471919 -0.693783 -0.54402 
0.749644 -0.615464 -0.24339 0.206177 -0.567268 -0.797307 0.766632 -0.621518 -0.161217 
0.812049 -0.101633 0.574671 0.572656 -0.720257 -0.391529 0.621286 -0.430027 -0.655043 
0.774324 -0.441131 -0.453681 -0.683369 0.445787 -0.57817 0.833692 -0.286743 -0.471949 
0.97355 -0.0349035 -0.225793 -0.584483 0.739995 -0.332847 -0.704229 0.361609 -0.610984 
-0.176111 0.905221 -0.38673 0.416366 0.882157 -0.220086 -0.595036 0.685451 -0.41963 
0.971417 -0.0488894 -0.232289 0.392986 0.776453 -0.492628 0.893972 0.322648 -0.310985 
-0.175487 0.887893 -0.425266 0.25128 0.868249 -0.427787 0.571943 0.627814 -0.52795 
0.456219 0.809024 -0.3706 0.839662 0.364049 -0.403033 0.733353 0.560778 -0.384346 
0.460058 -0.744374 -0.483997 -0.237093 -0.434372 -0.868969 0.0166351 -0.45217 -0.891777 
0.809331 -0.587112 -0.0168277 0.848628 -0.47958 0.223237 -0.68045 0.065182 -0.72989 
0.660907 -0.474424 -0.581484 -0.634452 0.216146 -0.742127 0.829361 -0.397211 -0.392918 
0.970508 -0.113904 -0.212461 0.930721 0.0933417 -0.353617 0.711186 0.688676 -0.141207 
-0.827727 0.366954 -0.424515 0.154639 0.933966 -0.322172 0.222502 0.884675 -0.409687 
0.657512 0.697208 -0.285621 -0.114184 0.896564 -0.427943 0.343817 -0.523809 -0.779368 
0.640477 -0.436906 -0.631587 -0.289262 -0.56127 -0.775437 -0.0618584 -0.736831 -0.673241 
0.542775 -0.804441 -0.241394 -0.564764 -0.228335 -0.793035 -0.581504 -0.244068 -0.776069 
0.696031 -0.498351 -0.516901 0.564414 0.791866 -0.233205 -0.153824 0.976275 -0.1524 
0.171305 0.980154 -0.0997586 0.927575 0.194123 -0.319252 0.46184 0.799786 -0.383466 
-0.154 0.902822 -0.401492 0.201885 -0.584561 -0.785831 0.039979 -0.820368 -0.570437 
0.409408 -0.858916 -0.307649 -0.539791 -0.496651 -0.679679 -0.304638 -0.664029 -0.682833 
0.787102 -0.608957 0.0981899 0.890436 -0.443084 0.103927 0.574292 -0.469933 -0.670336 
0.868487 -0.453671 0.199781 -0.784838 0.00228484 -0.619697 -0.82796 0.248034 -0.502953 
-0.758878 0.287381 -0.584394 0.891285 -0.410913 -0.191734 -0.722842 0.480968 -0.496154 
0.939812 0.33316 -0.0758838 0.870049 0.492962 -0.001472 0.304098 0.917906 -0.254898 
0.528531 0.845652 -0.0743396 -0.690916 0.656016 -0.303773 0.942685 -0.281421 -0.179298 
-0.379973 0.876367 -0.295975 -0.356174 -0.617206 -0.701568 -0.270667 -0.789867 -0.550318 
0.473661 -0.678369 -0.56166 -0.171672 -0.848372 -0.500793 0.156932 -0.901676 -0.40293 
0.579632 -0.546248 -0.604681 0.39291 -0.875906 -0.280019 -0.750374 0.0766479 -0.656555 
-0.844254 0.202981 -0.496017 -0.727529 0.403891 -0.554593 -0.822672 0.415087 -0.388477 
0.852085 -0.450424 0.266589 0.836135 -0.544005 0.0702557 -0.773392 0.596533 -0.214508 
0.947324 -0.218303 -0.234352 0.281931 0.882835 -0.375656 -0.174357 0.950933 -0.255591 
0.131513 0.910217 -0.392695 0.0795008 -0.764243 -0.64001 -0.161851 -0.702901 -0.692628 
-0.695465 -0.570339 -0.437083 0.811389 -0.584114 0.0214369 -0.858909 -0.0653948 -0.507937 
-0.897717 0.111797 -0.426151 -0.872541 0.155941 -0.462984 -0.837318 0.26394 -0.478784 
-0.864855 0.402424 -0.300134 -0.55694 0.830368 -0.0175098 -0.821149 0.54047 -0.183321 
-0.292804 0.954992 0.0474948 0.314694 0.948792 -0.0276059 0.946751 -0.236917 -0.218021 
0.996171 -0.0018439 -0.0874117 -0.552723 0.822271 -0.135529 0.555903 0.80818 -0.194464 
0.868292 0.430926 -0.245704 0.222141 0.951943 -0.210851 0.134121 -0.88636 -0.443146 
-0.307111 -0.906208 -0.290636 -0.142139 -0.875332 -0.462158 -0.497816 -0.628747 -0.597375 
-0.635269 -0.634801 -0.439843 -0.175672 -0.92569 -0.335019 -0.64233 -0.560818 -0.522394 
-0.896291 -0.317593 -0.309511 -0.730525 -0.280501 -0.622617 0.797054 -0.56224 0.220433 
-0.94169 -0.18644 -0.280108 -0.880296 -0.1181 -0.45949 -0.968085 0.135301 -0.210962 
-0.895051 0.302989 -0.327234 0.954773 -0.290857 0.0617371 -0.793277 0.595158 -0.128449 
0.0951322 0.994143 0.0512747 0.417723 0.90853 0.00897087 0.993646 -0.0989389 -0.0536553 
0.924724 0.378719 -0.0381821 -0.0528075 -0.929013 -0.366259 0.588435 -0.751382 -0.298612 
-0.231721 -0.924015 -0.30414 -0.269412 -0.940473 -0.207188 0.348896 -0.93488 -0.0653522 
-0.753879 -0.523038 -0.397614 -0.864475 -0.449148 -0.22572 0.767239 -0.58253 -0.268334 
-0.937484 -0.319399 -0.138231 0.875126 -0.428177 0.225432 -0.985339 0.115935 -0.125162 
-0.924096 0.37107 -0.0913924 0.925798 -0.37743 -0.0210718 0.903961 0.40264 0.143996 
0.657214 0.751776 0.0538838 0.84521 -0.528479 -0.0795568 0.340829 0.936893 0.0778912 
-0.218973 0.97434 -0.0520779 0.612945 0.764592 -0.199244 0.277466 0.937856 -0.20842 
-0.543886 -0.802539 -0.245192 -0.738572 -0.665919 -0.105186 -0.579297 -0.804048 -0.133873 
-0.283482 -0.954206 0.0955503 0.610592 -0.783509 0.115287 -0.725578 -0.677657 0.119657 
-0.878946 -0.466213 0.100497 -0.965766 -0.206568 -0.156928 -0.966217 -0.202858 0.158975 
-0.977051 0.050708 -0.206881 -0.999542 -0.00637228 -0.029589 -0.873787 0.481538 -0.0679517 
-0.802418 0.582422 0.130041 0.71311 0.67009 0.206041 -0.717731 0.677321 0.161548 
0.621387 0.774535 0.118212 0.335044 0.920636 0.200439 0.876088 0.473608 -0.0903623 
0.955668 0.27752 -0.0983937 -0.455804 0.882433 0.116423 0.521921 0.845869 -0.110015 
-0.107151 0.99149 -0.0739409 0.156817 0.959262 -0.235 0.083274 -0.973357 -0.213638 
-0.385893 -0.901462 0.196094 -0.149727 -0.95946 0.238786 0.30984 -0.933561 0.180177 
-0.90144 -0.432841 -0.00733226 0.885539 -0.430771 -0.173944 -0.862018 -0.412821 0.294114 
-0.937865 -0.322843 0.127206 -0.99955 0.0236259 0.0184885 -0.956034 -0.102768 0.274657 
0.883383 -0.460458 -0.0872511 -0.880618 0.473654 0.0127921 0.951252 -0.179637 0.250698 
-0.745302 0.648327 0.155557 -0.0559011 0.97487 0.215648 0.69105 0.719779 -0.066082 
0.00250217 0.996731 0.0807502 -0.152485 -0.987837 -0.0304299 0.243177 -0.969982 -0.000925308 
0.546947 -0.828757 -0.118364 0.47199 -0.809937 0.348177 -0.441502 -0.757898 0.480278 
-0.709643 -0.591879 0.382212 -0.803467 -0.410519 0.431179 -0.986613 0.0204784 0.161788 
-0.954877 0.152385 0.254928 -0.924968 0.31937 0.206002 -0.857679 0.412037 0.307591 
-0.788519 0.551593 0.271998 -0.480153 0.800166 0.359427 0.926531 0.272415 0.259482 
-0.843611 0.38745 0.371757 -0.591908 0.716405 0.369335 0.703528 0.710485 -0.0161258 
-0.0713901 -0.885461 0.459197 0.113185 -0.976823 0.181675 0.416672 -0.879175 0.231162 
-0.672756 -0.720429 0.168468 0.674708 -0.717424 0.173413 -0.0571087 -0.893807 0.444801 
0.273416 -0.756645 0.593912 0.789448 -0.61287 0.0340849 -0.660529 -0.538484 0.523198 
0.480603 -0.56308 0.672281 -0.86715 -0.28459 0.408729 -0.595555 -0.426824 0.680541 
-0.745252 -0.271838 0.608854 -0.798983 0.0160153 0.60114 -0.945688 0.174387 0.27434 
-0.923608 0.291703 0.248713 -0.872713 0.331762 0.358199 -0.813191 0.476939 0.333541 
-0.742757 0.604261 0.288409 0.690797 -0.718881 0.0775162 0.489883 0.842587 0.223747 
0.525341 0.763198 0.376225 0.953861 -0.299954 0.0132685 0.919073 0.39142 0.0457749 
-0.167406 0.912549 0.373136 0.444456 0.89346 0.064721 0.577005 0.810681 0.0993037 
-0.492118 -0.751793 0.438893 -0.792372 -0.472911 0.385358 -0.0496147 -0.563144 0.824868 
0.0970419 -0.446881 0.889314 -0.370188 -0.516517 0.772121 0.510561 -0.542508 0.667093 
-0.853215 -0.133251 0.50425 -0.885739 0.0153838 0.463929 -0.683158 -0.00336837 0.730263 
-0.675609 0.417263 0.607819 0.807821 -0.585466 0.0682201 -0.648442 0.576846 0.496762 
-0.754169 0.300777 0.583748 0.0103688 0.8467 0.53197 0.265173 0.899996 0.345963 
0.957684 -0.0598661 0.281527 -0.440602 0.661111 0.607291 -0.53635 0.789485 0.298398 
0.802362 0.567952 0.183431 -0.352574 0.855076 0.380179 0.420905 0.854464 0.304516 
0.256178 0.931312 0.258903 -0.0431821 -0.836701 0.545954 0.390193 -0.790361 0.472313 
-0.339901 -0.689654 0.639409 -0.574156 -0.537639 0.617487 0.790789 -0.532009 0.302687 
-0.717244 -0.208399 0.664929 0.0904129 -0.513851 0.853101 0.348869 -0.492209 0.797509 
-0.220275 -0.361641 0.905922 0.495909 -0.380131 0.780752 -0.258633 -0.201179 0.944794 
0.617402 -0.435864 0.654857 -0.814262 0.106039 0.57073 0.728913 -0.472717 0.495201 
-0.534871 0.0885845 0.840277 0.718695 -0.564148 0.406466 0.704883 -0.545623 0.45325 
0.919074 -0.27982 0.277495 -0.720175 0.26869 0.639651 -0.813473 0.33496 0.475462 
0.911333 -0.180432 0.370023 -0.738548 0.468563 0.484764 0.764033 -0.532123 0.364827 
-0.638686 0.403335 0.655287 0.775595 -0.607169 0.172619 0.764811 -0.559406 0.319575 
0.781815 -0.583792 0.21898 0.735353 0.0943435 0.671085 -0.53314 0.382197 0.754776 
0.67124 -0.631617 0.38794 -0.206061 0.779964 0.590928 0.60035 -0.745976 0.288269 
0.635406 0.551747 0.540217 0.79584 -0.559465 0.231598 -0.50631 0.561885 0.654168 
0.938451 0.171113 0.30005 0.705781 0.586423 0.397468 0.679137 0.531891 0.505831 
0.619788 0.696834 0.360949 0.206121 0.870737 0.446465 0.32078 0.838361 0.440739 
0.0477661 -0.747797 0.662207 0.148083 -0.66017 0.736374 0.327127 -0.629903 0.704421 
-0.178322 -0.629831 0.755986 0.717806 -0.586838 0.374667 -0.488803 -0.330414 0.807402 
0.276849 -0.334668 0.900751 0.17905 -0.304003 0.935694 0.292024 -0.353468 0.888697 
-0.659013 0.185343 0.728938 -0.0766632 -0.201718 0.976439 -0.665461 0.403971 0.62767 
-0.281739 0.061328 0.957529 -0.473942 0.222317 0.852029 -0.40782 0.126739 0.904223 
0.786851 -0.319598 0.527942 -0.558461 0.56312 0.609111 0.629491 -0.540033 0.558664 
-0.637347 0.480652 0.602298 -0.446065 0.197702 0.872892 0.779939 -0.605883 0.156846 
0.52473 -0.667933 0.527754 -0.501806 0.467363 0.727848 -0.475466 0.630231 0.613792 
0.695119 -0.60458 0.388963 -0.413738 0.157587 0.896653 -0.351163 0.548099 0.759126 
0.604573 0.178795 0.776224 -0.28853 0.21171 0.933771 0.638572 -0.677491 0.365008 
-0.112327 0.660507 0.74237 -0.269583 0.317848 0.909009 -0.374945 0.459784 0.804994 
0.607528 -0.620954 0.495303 0.419605 0.610124 0.672072 -0.181218 0.361313 0.914666 
0.823382 0.0912017 0.560111 0.599183 0.479409 0.641207 -0.238165 0.591228 0.770536 
-0.100982 0.821115 0.561759 0.0110583 0.7672 0.641313 0.46826 0.706982 0.530009 
0.472071 0.593595 0.651762 0.146256 0.787731 0.598406 0.531757 -0.609173 0.588339 
-0.258006 -0.302014 0.917726 -0.512953 -0.188765 0.837405 -0.0065604 -0.0943938 0.995513 
0.847744 -0.347695 0.400548 -0.593532 0.229422 0.771418 -0.237902 -0.035983 0.970622 
0.362187 -0.439968 0.821735 0.0442448 -0.17954 0.982755 -0.163914 -0.103241 0.981057 
0.697347 -0.0522232 0.714829 -0.237975 0.211269 0.948015 0.0968248 -0.109111 0.989303 
0.577968 0.0120364 0.815971 0.673668 -0.364888 0.642673 0.308931 0.0956259 0.946265 
0.425274 -0.0360137 0.904348 -0.148047 0.119329 0.981755 0.0714078 0.0303868 0.996984 
0.363686 -0.078756 0.928187 0.263077 0.0810706 0.961363 -0.345506 0.0752568 0.935394 
0.32441 -0.223134 0.919222 -0.428317 0.18358 0.884784 0.204147 -0.233163 0.950767 
-0.276064 0.365567 0.888903 -0.170851 0.0955173 0.980656 0.291603 -0.631862 0.718135 
0.521063 -0.310589 0.795002 0.730285 -0.617752 0.291661 0.581529 -0.306314 0.753655 
0.0988403 -0.00893635 0.995063 0.307315 -0.215015 0.926998 0.566684 -0.60134 0.563258 
0.455341 0.130032 0.88077 0.536903 0.190437 0.821869 0.314222 -0.342082 0.885576 
-0.0113116 0.460847 0.887408 0.483634 0.231558 0.844085 0.376281 0.321965 0.868765 
-0.0964285 0.0316158 0.994838 0.13944 0.599254 0.788322 -0.0986103 0.173329 0.979915 
0.521151 -0.430485 0.736943 0.145539 0.114665 0.982685 0.227077 -0.106243 0.968064 
0.128299 -0.0450886 0.99071 0.437128 -0.377551 0.816318 0.503286 -0.421948 0.754097 
-0.0585594 0.169643 0.983764 0.129945 -0.0986686 0.9866 0.368351 -0.369823 0.852965 
0.678762 -0.289089 0.675063 0.776488 -0.429 0.461546 -0.022547 0.0754939 0.996891 
0.83299 -0.0699025 0.548855 0.747061 0.2325 0.622771 0.163321 0.287947 0.943617 
0.426671 0.544194 0.722361 0.548117 0.175009 0.817888 -0.0235188 0.51028 0.859687 
0.397762 0.595997 0.697548 0.40335 -0.71067 0.576417 0.20586 -0.696885 0.687003 
0.0497072 -0.444402 0.894447 0.549962 -0.48314 0.681262 0.69995 -0.451354 0.553489 
-0.489193 0.0858617 0.867939 0.756721 -0.269056 0.595803 -0.334723 -0.131168 0.933143 
0.689874 -0.197643 0.696427 0.792983 -0.0863806 0.60309 -0.441827 0.433254 0.785544 
0.575869 0.0722176 0.814346 0.308873 -0.281657 0.908442 0.57276 -0.41897 0.704564 
0.645519 0.0725635 0.76029 -0.373479 0.325032 0.868831 -0.197301 0.192654 0.961227 