# vtk DataFile Version 4.2
vtk output
ASCII
DATASET POLYDATA
POINTS 3162 float
109.09 178.533 139.165 109.326 178.442 139.25 108.997 179.335 139.141 
109.104 179.685 139.207 109.482 178.692 139.321 109.721 178.796 139.578 
109.221 182.258 139.445 109.46 181.904 139.517 109.449 182.927 139.544 
109.566 183.231 139.663 109.908 182.507 139.888 108.792 175.641 139.611 
108.085 176.19 139.494 108.041 176.644 139.427 109.583 176.209 139.701 
109.776 176.046 139.83 108.707 177.28 139.32 108.691 178.308 139.201 
109.797 177.117 139.783 107.889 178.643 139.342 109.86 177.874 139.817 
109.606 180.155 139.563 108.191 182.28 139.531 109.954 180.743 139.952 
110.111 181.733 140.136 109.092 185.334 139.874 109.711 186.001 140.178 
109.938 185.525 140.313 109.349 189.125 140.419 107.914 172.985 140.285 
108.532 172.716 140.484 109.743 173.252 140.839 109.838 174.729 140.374 
109.929 176.024 139.982 106.77 178.244 139.821 108.272 184.53 139.773 
110.313 188.604 140.955 109.062 192.778 141.225 109.363 193.944 141.567 
109.978 193.507 141.49 109.635 194.126 141.597 106.316 170.148 141.118 
106.247 170.253 141.125 106.325 170.053 141.176 107.138 169.906 141.321 
109.901 173.113 141.06 110.143 175.639 140.479 110.341 176.062 140.892 
110.618 186.091 141.266 107.3 188.216 140.867 107.674 190.933 141.413 
110.666 191.855 141.647 108.817 193.006 141.402 108.538 193.824 141.918 
110.788 195.361 142.437 110.616 196.253 142.601 107.478 168.414 142.088 
105.61 169.218 141.768 104.7 170.1 141.737 105.353 182.632 141.227 
111.074 189.545 142.125 111.211 195.523 142.772 111.007 198.826 143.438 
111.671 198.5 143.539 111.585 199.326 143.622 111.702 199.595 143.771 
106.279 166.22 143.319 103.953 167.248 143.224 105.723 167.05 142.875 
107.198 167.274 142.769 106.301 168.041 142.276 108.998 168.351 143.097 
103.635 170.382 142.208 103.48 174.806 141.902 105.782 186.33 141.625 
111.548 191.431 143.087 111.209 192.791 142.4 110.023 197.396 143.059 
111.893 198.73 143.737 111.799 198.95 143.65 111.939 199.424 143.941 
111.525 199.971 143.973 111.838 199.678 143.947 107.453 166.863 143.167 
101.738 168.776 143.793 112.107 195.562 144.086 112.222 196.833 144.088 
112.282 197.059 144.264 112.036 198.811 143.971 111.235 200.958 144.909 
102.899 165.332 144.722 108.234 166.405 144.074 101.662 167.407 144.281 
110.279 169.147 144.469 112.135 200.87 145.358 112.462 201.485 146.153 
111.563 202.902 146.381 112.087 202.41 146.175 112.312 202.214 146.274 
111.939 202.799 146.342 102.767 163.74 145.954 106.174 164.251 145.243 
108.157 165.31 145.153 111.977 188.882 145.417 110.068 200.769 145.292 
111.449 203.852 147.076 112.29 203.525 146.905 111.912 204.041 147.096 
112.093 204.335 147.288 112.294 204.308 147.344 100.723 163.583 146.799 
105.096 163.489 145.888 99.4502 164.968 146.698 108.913 165.244 146.095 
98.971 167.934 146.104 111.237 172.822 146.432 112.846 198.01 146.104 
112.931 202.136 147.302 112.891 203.675 147.725 112.515 204.455 147.645 
111.874 205.086 147.886 112.441 205.039 147.972 112.201 205.348 148.114 
112.555 205.255 148.231 112.351 205.662 148.491 107.839 163.33 147.16 
98.7667 163.257 147.963 109.751 166.274 146.285 113.005 203.916 148.209 
112.91 204.542 148.426 112.512 205.491 148.41 112.266 206.125 149.12 
105.974 161.393 148.534 108.387 162.946 148.334 97.5798 164.943 148.028 
109.971 165.708 147.612 110.735 205.729 148.941 111.807 206.268 149.079 
112.932 205.746 149.961 112.041 206.974 149.93 98.4081 161.074 149.529 
101.15 161.017 148.773 96.6059 163.201 149.376 110.284 165.668 148.895 
95.9076 169.349 148.874 113.453 200.415 149.171 111.795 207.175 150.088 
112.168 207.764 150.935 111.938 208.251 151.247 110.626 207.58 150.747 
112.13 208.52 151.7 112.508 208.35 152.057 95.9112 160.198 151.394 
106.988 160.266 150.731 108.296 161.278 150.71 94.8458 174.632 150.938 
113.118 207.289 152.279 111.394 208.62 151.467 111.555 209.027 151.919 
112.036 209.673 152.858 108.661 161.074 151.741 109.848 163.283 151.652 
112.895 209.06 153.482 111.416 211.18 153.962 111.941 211.002 154.012 
98.7744 157.451 152.807 106.308 158.169 153.578 108.279 160.017 152.823 
92.3977 161.273 153.002 113.687 205.531 153.023 110.089 210.393 153.601 
110.925 210.751 153.571 110.839 211.592 154.388 112.117 211.672 154.802 
92.2295 157.078 154.794 91.5296 159.918 153.997 93.9845 178.35 153.181 
113.314 209.773 154.905 109.687 211.073 154.457 113.021 211.253 155.404 
94.1848 155.441 155.336 108.269 158.635 155.067 108.464 159.229 154.628 
113.938 206.667 155.017 113.152 212.443 156.251 112.041 213.549 156.217 
112.374 214.127 156.704 105.969 156.192 156.716 107.409 157.85 155.287 
89.0822 161.387 155.48 113.899 209.607 156.084 113.719 211.302 156.411 
111.893 216.637 158.01 100.936 153.977 157.53 88.3976 155.254 157.492 
87.1476 164.188 157.165 114.431 205.227 156.976 110.713 216.226 158.123 
113.263 217.578 158.454 118.322 226.123 159.388 118.678 226.625 159.401 
118.918 226.855 159.433 119.149 227.473 159.544 119.045 227.501 159.561 
119.152 227.586 159.578 119.307 227.574 159.639 119.079 227.777 159.688 
89.511 152.33 158.804 92.7053 152.142 158.592 114.074 192.026 158.169 
114.516 209.269 157.386 113.266 219.589 159.192 113.078 219.828 159.363 
118.612 226.294 159.403 118.407 226.543 159.46 119.067 227.215 159.525 
119.084 228.194 159.87 118.929 228.357 159.954 120.162 229.462 160.391 
120.331 229.454 160.493 115.203 208.883 158.867 114.919 210.63 158.169 
114.926 212.602 158.222 114.309 219.329 159.105 114.174 221.325 159.736 
116.278 223.178 159.697 118.298 224.973 159.535 117.192 225.602 159.811 
117.488 226.446 159.87 118.721 228.533 160.097 119.934 228.928 160.252 
120.099 229.882 160.628 120.623 230.237 160.883 119.302 230.766 161.145 
87.0486 150.148 160.818 105.668 154.626 159.674 102.974 208.311 159.841 
116.479 211.018 160.229 115.752 217.371 159.089 114.375 222.361 160.075 
114.202 222.995 160.402 118.27 230.049 161.105 119.273 231.612 161.887 
121.03 231.397 161.88 84.9072 149.659 161.566 90.2311 149.46 161.234 
116.43 208.439 161.371 117.964 213.668 160.688 118.688 213.409 161.272 
117.798 216.684 159.962 108.932 217.642 160.505 128.114 220.287 162.022 
119.651 221.195 160.08 129.105 221.242 162.062 130.956 222.058 162.618 
130.19 222.776 162.173 130.654 222.691 162.365 130.412 224.383 162.426 
116.323 228.327 161.409 118.749 232.157 162.761 120.477 232.464 162.945 
81.4112 150.701 162.667 81.586 154.015 161.869 81.3184 158.657 161.892 
118.76 211.045 162.582 128.038 217.801 163.369 129.338 219.338 163.033 
130.178 219.342 163.542 123.37 220.296 161.18 126.361 220.019 161.857 
130.988 220.914 163.129 131.382 221.1 163.348 131.472 220.941 163.558 
121.953 222.613 160.62 124.052 222.261 161.178 131.969 222.098 163.627 
122.897 223.673 160.887 127.752 222.709 161.78 131.381 222.941 162.86 
131.997 223.167 163.519 131.237 224.222 162.888 131.879 224.462 163.619 
130.566 226.025 163.28 131.369 225.77 163.613 117.643 231.315 162.553 
121.813 231.14 162.194 119.163 232.489 162.958 119.384 232.807 163.349 
85.2305 146.445 163.957 81.4249 147.303 164.117 109.441 157.702 162.804 
113.428 182.039 163.153 114.28 191.997 162.917 114.393 193.962 162.962 
116.642 206.165 163.726 121.499 211.946 164.194 130.871 219.651 164.05 
131.619 220.991 163.794 131.893 221.693 163.692 132.199 222.463 163.952 
125.364 228.413 162.976 131.43 226.526 164.518 123.239 230.18 162.855 
117.115 231.557 163.293 81.8679 145.31 165.659 80.472 146.261 165.51 
88.7051 146.086 164.851 104.28 152.102 163.688 107.447 154.67 162.789 
108.552 156.179 162.1 129.384 217.711 164.568 130.261 218.408 164.953 
131.64 220.792 164.204 132.419 223.435 164.352 132.17 225.181 164.604 
132.083 226.123 165.451 131.313 227.571 165.553 123.165 231.084 163.561 
117.022 232.51 164.747 120.083 234.471 165.849 83.2555 144.493 166.531 
79.3016 147.323 165.678 79.2033 147.007 166.037 77.5978 154.347 165.601 
116.868 205.163 165.526 129.382 217.096 165.662 132.435 225.083 165.695 
112.226 227.429 164.945 130.625 228.508 165.764 123.137 232.009 164.571 
119.507 234.668 166.382 82.7366 144.346 167.368 84.7111 144.4 166.572 
86.7065 144.318 167.022 111.096 164.07 165.857 88.0313 193.038 165.564 
114.145 194.3 165.593 114.348 196.242 165.726 130.868 218.897 165.78 
132.448 222.562 165.737 130.589 229.455 166.959 117.257 233.637 166.389 
122.535 233.641 166.022 121.021 234.389 166.139 120.382 235.023 167.138 
81.1263 144.562 168.097 88.7292 144.677 167.169 77.8434 148.324 166.915 
106.401 152.725 166.043 107.583 154.161 165.236 78.2333 169.599 166.966 
113.281 181.73 166.999 114.566 198.259 166.801 93.7925 204.51 166.909 
126.374 213.555 166.647 131.76 220.346 167.164 131.97 227.795 167.592 
113.591 230.909 167.108 119.961 235.267 167.748 120.357 235.295 167.587 
85.0833 143.798 168.558 86.1962 143.908 167.956 79.2985 145.359 168.629 
78.163 146.667 168.219 99.6492 148.228 167.86 76.147 153.088 167.954 
108.759 155.748 167.223 76.4833 162.384 167.788 112.962 183.036 167.764 
115.27 200.767 167.883 115.504 201.362 167.696 116.591 203.209 168.536 
118.655 205.888 168.135 132.382 226.553 168.286 122.887 234.222 167.729 
119.484 235.685 169.301 121.132 235.335 168.384 79.015 145.367 169.041 
84.0807 143.739 169.64 92.3898 145.065 168.532 108.519 180.322 171.532 
112.882 180.799 169.036 112.48 184.516 168.422 113.684 195.574 168.267 
124.782 211.079 168.561 129.779 216.455 169.292 132.468 224.541 169.262 
129.478 231.344 169.371 116.899 234.501 168.688 78.9553 145.424 169.183 
82.0918 144.1 170.339 77.383 147.204 170.064 100.931 148.163 170.345 
75.7974 150.409 170.006 75.2382 154.799 169.664 74.9457 159.864 170.321 
103.527 177.581 172.668 102.921 177.793 172.55 106.037 178.621 172.461 
107.133 179.229 172.096 104.19 180.01 172.14 105.004 179.867 171.968 
110.11 180.219 171.766 105.526 180.647 171.861 110.701 180.932 171.138 
[...]
POINT_DATA 3162
SCALARS scalars float
LOOKUP_TABLE default
1 1 1 1 1 1 1 1 1 
1 1 1 1 1 1 1 1 1 
1 1 1 1 1 1 1 1 1 
1 1 1 1 1 1 1 1 1 
1 1 1 1 1 1 1 1 1 
1 1 1 1 1 1 1 1 1 
1 1 1 1 1 1 1 1 1 
1 1 1 1 1 1 1 1 1 
1 1 1 1 1 1 1 1 1 
1 1 1 1 1 1 1 1 1 
1 1 1 1 1 1 1 1 1 
1 1 1 1 1 1 1 1 1 
1 1 1 1 1 1 1 1 1 
1 1 1 1 1 1 1 1 1 
1 1 1 1 1 1 1 1 1 
1 1 1 1 1 1 1 1 1 
1 1 1 1 1 1 1 1 1 
1 1 1 1 1 1 1 1 1 
1 1 1 1 1 1 1 1 1 
1 1 1 1 1 1 1 1 1 
1 1 1 1 1 1 1 1 1 
1 1 1 1 1 1 1 1 1 
1 1 1 1 1 1 1 1 1 
1 1 1 1 1 1 1 1 1 
1 1 1 1 1 1 1 1 1 
1 1 1 1 1 1 1 1 1 
1 1 1 1 1 1 1 1 1 
1 1 1 1 1 1 1 1 1 
1 1 1 1 1 1 1 1 1 
1 1 1 1 1 1 1 1 1 
1 1 1 1 1 1 1 1 1 
1 1 1 1 1 1 1 1 1 
1 1 1 1 1 1 1 1 1 
1 1 1 1 1 1 1 1 1 
1 1 1 1 1 1 1 1 1 
1 1 1 1 1 1 1 1 1 
1 1 1 1 1 1 1 1 1 
1 1 1 1 1 1 1 1 1 
1 1 1 1 1 1 1 1 1 
1 1 1 1 1 1 1 1 1 
1 1 1 1 1 1 1 1 1 
1 1 1 1 1 1 1 1 1 
1 1 1 1 1 1 1 1 1 
1 1 1 1 1 1 1 1 1 
1 1 1 1 1 1 1 1 1 
1 1 1 1 1 1 1 1 1 
1 1 1 1 1 1 1 1 1 
1 1 1 1 1 1 1 1 1 
1 1 1 1 1 1 1 1 1 
1 1 1 1 1 1 1 1 1 
1 1 1 1 1 1 1 1 1 
1 1 1 1 1 1 1 1 1 
1 1 1 1 1 1 1 1 1 
1 1 1 1 1 1 1 1 1 
1 1 1 1 1 1 1 1 1 
1 1 1 1 1 1 1 1 1 
1 1 1 1 1 1 1 1 1 
1 1 1 1 1 1 1 1 1 
1 1 1 1 1 1 1 1 1 
1 1 1 1 1 1 1 1 1 
1 1 1 1 1 1 1 1 1 
1 1 1 1 1 1 1 1 1 
1 1 1 1 1 1 1 1 1 
1 1 1 1 1 1 1 1 1 
1 1 1 1 1 1 1 1 1 
1 1 1 1 1 1 1 1 1 
1 1 1 1 1 1 1 1 1 
1 1 1 1 1 1 1 1 1 
1 1 1 1 1 1 1 1 1 
1 1 1 1 1 1 1 1 1 
1 1 1 1 1 1 1 1 1 
1 1 1 1 1 1 1 1 1 
1 1 1 1 1 1 1 1 1 
1 1 1 1 1 1 1 1 1 
1 1 1 1 1 1 1 1 1 
1 1 1 1 1 1 1 1 1 
1 1 1 1 1 1 1 1 1 
1 1 1 1 1 1 1 1 1 
1 1 1 1 1 1 1 1 1 
1 1 1 1 1 1 1 1 1 
1 1 1 1 1 1 1 1 1 
1 1 1 1 1 1 1 1 1 
1 1 1 1 1 1 1 1 1 
1 1 1 1 1 1 1 1 1 
1 1 1 1 1 1 1 1 1 
1 1 1 1 1 1 1 1 1 
1 1 1 1 1 1 1 1 1 
1 1 1 1 1 1 1 1 1 
1 1 1 1 1 1 1 1 1 
1 1 1 1 1 1 1 1 1 
1 1 1 1 1 1 1 1 1 
1 1 1 1 1 1 1 1 1 
1 1 1 1 1 1 1 1 1 
1 1 1 1 1 1 1 1 1 
1 1 1 1 1 1 1 1 1 
1 1 1 1 1 1 1 1 1 
1 1 1 1 1 1 1 1 1 
1 1 1 1 1 1 1 1 1 
1 1 1 1 1 1 1 1 1 
1 1 1 1 1 1 1 1 1 
1 1 1 1 1 1 1 1 1 
1 1 1 1 1 1 1 1 1 
1 1 1 1 1 1 1 1 1 
1 1 1 1 1 1 1 1 1 
1 1 1 1 1 1 1 1 1 
1 1 1 1 1 1 1 1 1 
1 1 1 1 1 1 1 1 1 
1 1 1 1 1 1 1 1 1 
1 1 1 1 1 1 1 1 1 
1 1 1 1 1 1 1 1 1 
1 1 1 1 1 1 1 1 1 
1 1 1 1 1 1 1 1 1 
1 1 1 1 1 1 1 1 1 
1 1 1 1 1 1 1 1 1 
1 1 1 1 1 1 1 1 1 
1 1 1 1 1 1 1 1 1 
1 1 1 1 1 1 1 1 1 
1 1 1 1 1 1 1 1 1 
1 1 1 1 1 1 1 1 1 
1 1 1 1 1 1 1 1 1 
1 1 1 1 1 1 1 1 1 
1 1 1 1 1 1 1 1 1 
1 1 1 1 1 1 1 1 1 
1 1 1 1 1 1 1 1 1 
1 1 1 1 1 1 1 1 1 
1 1 1 1 1 1 1 1 1 
1 1 1 1 1 1 1 1 1 
1 1 1 1 1 1 1 1 1 
1 1 1 1 1 1 1 1 1 
1 1 1 1 1 1 1 1 1 
1 1 1 1 1 1 1 1 1 
1 1 1 1 1 1 1 1 1 
1 1 1 1 1 1 1 1 1 
1 1 1 1 1 1 1 1 1 
1 1 1 1 1 1 1 1 1 
1 1 1 1 1 1 1 1 1 
1 1 1 1 1 1 1 1 1 
1 1 1 1 1 1 1 1 1 
1 1 1 1 1 1 1 1 1 
1 1 1 1 1 1 1 1 1 
1 1 1 1 1 1 1 1 1 
1 1 1 1 1 1 1 1 1 
1 1 1 1 1 1 1 1 1 
1 1 1 1 1 1 1 1 1 
1 1 1 1 1 1 1 1 1 
1 1 1 1 1 1 1 1 1 
1 1 1 1 1 1 1 1 1 
1 1 1 1 1 1 1 1 1 
1 1 1 1 1 1 1 1 1 
1 1 1 1 1 1 1 1 1 
1 1 1 1 1 1 1 1 1 
1 1 1 1 1 1 1 1 1 
1 1 1 1 1 1 1 1 1 
1 1 1 1 1 1 1 1 1 
1 1 1 1 1 1 1 1 1 
1 1 1 1 1 1 1 1 1 
1 1 1 1 1 1 1 1 1 
1 1 1 1 1 1 1 1 1 
1 1 1 1 1 1 1 1 1 
1 1 1 1 1 1 1 1 1 
1 1 1 1 1 1 1 1 1 
1 1 1 1 1 1 1 1 1 
1 1 1 1 1 1 1 1 1 
1 1 1 1 1 1 1 1 1 
1 1 1 1 1 1 1 1 1 
1 1 1 1 1 1 1 1 1 
1 1 1 1 1 1 1 1 1 
1 1 1 1 1 1 1 1 1 
1 1 1 1 1 1 1 1 1 
1 1 1 1 1 1 1 1 1 
1 1 1 1 1 1 1 1 1 
1 1 1 1 1 1 1 1 1 
1 1 1 1 1 1 1 1 1 
1 1 1 1 1 1 1 1 1 
1 1 1 1 1 1 1 1 1 
1 1 1 1 1 1 1 1 1 
1 1 1 1 1 1 1 1 1 
1 1 1 1 1 1 1 1 1 
1 1 1 1 1 1 1 1 1 
1 1 1 1 1 1 1 1 1 
1 1 1 1 1 1 1 1 1 
1 1 1 1 1 1 1 1 1 
1 1 1 1 1 1 1 1 1 
1 1 1 1 1 1 1 1 1 
1 1 1 1 1 1 1 1 1 
1 1 1 1 1 1 1 1 1 
1 1 1 1 1 1 1 1 1 
1 1 1 1 1 1 1 1 1 
1 1 1 1 1 1 1 1 1 
1 1 1 1 1 1 1 1 1 
1 1 1 1 1 1 1 1 1 
1 1 1 1 1 1 1 1 1 
1 1 1 1 1 1 1 1 1 
1 1 1 1 1 1 1 1 1 
1 1 1 1 1 1 1 1 1 
1 1 1 1 1 1 1 1 1 
1 1 1 1 1 1 1 1 1 
1 1 1 1 1 1 1 1 1 
1 1 1 1 1 1 1 1 1 
1 1 1 1 1 1 1 1 1 
1 1 1 1 1 1 1 1 1 
1 1 1 1 1 1 1 1 1 
1 1 1 1 1 1 1 1 1 
1 1 1 1 1 1 1 1 1 
1 1 1 1 1 1 1 1 1 
1 1 1 1 1 1 1 1 1 
1 1 1 1 1 1 1 1 1 
1 1 1 1 1 1 1 1 1 
1 1 1 1 1 1 1 1 1 
1 1 1 1 1 1 1 1 1 
1 1 1 1 1 1 1 1 1 
1 1 1 1 1 1 1 1 1 
1 1 1 1 1 1 1 1 1 
1 1 1 1 1 1 1 1 1 
1 1 1 1 1 1 1 1 1 
1 1 1 1 1 1 1 1 1 
1 1 1 1 1 1 1 1 1 
1 1 1 1 1 1 1 1 1 
1 1 1 1 1 1 1 1 1 
1 1 1 1 1 1 1 1 1 
1 1 1 1 1 1 1 1 1 
1 1 1 1 1 1 1 1 1 
1 1 1 1 1 1 1 1 1 
1 1 1 1 1 1 1 1 1 
1 1 1 1 1 1 1 1 1 
1 1 1 1 1 1 1 1 1 
1 1 1 1 1 1 1 1 1 
1 1 1 1 1 1 1 1 1 
1 1 1 1 1 1 1 1 1 
1 1 1 1 1 1 1 1 1 
1 1 1 1 1 1 1 1 1 
1 1 1 1 1 1 1 1 1 
1 1 1 1 1 1 1 1 1 
1 1 1 1 1 1 1 1 1 
1 1 1 1 1 1 1 1 1 
1 1 1 1 1 1 1 1 1 
1 1 1 1 1 1 1 1 1 
1 1 1 1 1 1 1 1 1 
1 1 1 1 1 1 1 1 1 
1 1 1 1 1 1 1 1 1 
1 1 1 1 1 1 1 1 1 
1 1 1 1 1 1 1 1 1 
1 1 1 1 1 1 1 1 1 
1 1 1 1 1 1 1 1 1 
1 1 1 1 1 1 1 1 1 
1 1 1 1 1 1 1 1 1 
1 1 1 1 1 1 1 1 1 
1 1 1 1 1 1 1 1 1 
1 1 1 1 1 1 1 1 1 
1 1 1 1 1 1 1 1 1 
1 1 1 1 1 1 1 1 1 
1 1 1 1 1 1 1 1 1 
1 1 1 1 1 1 1 1 1 
1 1 1 1 1 1 1 1 1 
1 1 1 1 1 1 1 1 1 
1 1 1 1 1 1 1 1 1 
1 1 1 1 1 1 1 1 1 
1 1 1 1 1 1 1 1 1 
1 1 1 1 1 1 1 1 1 
1 1 1 1 1 1 1 1 1 
1 1 1 1 1 1 1 1 1 
1 1 1 1 1 1 1 1 1 
1 1 1 1 1 1 1 1 1 
1 1 1 1 1 1 1 1 1 
1 1 1 1 1 1 1 1 1 
1 1 1 1 1 1 1 1 1 
1 1 1 1 1 1 1 1 1 
1 1 1 1 1 1 1 1 1 
1 1 1 1 1 1 1 1 1 
1 1 1 1 1 1 1 1 1 
1 1 1 1 1 1 1 1 1 
1 1 1 1 1 1 1 1 1 
1 1 1 1 1 1 1 1 1 
1 1 1 1 1 1 1 1 1 
1 1 1 1 1 1 1 1 1 
1 1 1 1 1 1 1 1 1 
1 1 1 1 1 1 1 1 1 
1 1 1 1 1 1 1 1 1 
1 1 1 1 1 1 1 1 1 
1 1 1 1 1 1 1 1 1 
1 1 1 1 1 1 1 1 1 
1 1 1 1 1 1 1 1 1 
1 1 1 1 1 1 1 1 1 
1 1 1 1 1 1 1 1 1 
1 1 1 1 1 1 1 1 1 
1 1 1 1 1 1 1 1 1 
1 1 1 1 1 1 1 1 1 
1 1 1 1 1 1 1 1 1 
1 1 1 1 1 1 1 1 1 
1 1 1 1 1 1 1 1 1 
1 1 1 1 1 1 1 1 1 
1 1 1 1 1 1 1 1 1 
1 1 1 1 1 1 1 1 1 
1 1 1 1 1 1 1 1 1 
1 1 1 1 1 1 1 1 1 
1 1 1 1 1 1 1 1 1 
1 1 1 1 1 1 1 1 1 
1 1 1 1 1 1 1 1 1 
1 1 1 1 1 1 1 1 1 
1 1 1 1 1 1 1 1 1 
1 1 1 1 1 1 1 1 1 
1 1 1 1 1 1 1 1 1 
1 1 1 1 1 1 1 1 1 
1 1 1 1 1 1 1 1 1 
1 1 1 1 1 1 1 1 1 
1 1 1 1 1 1 1 1 1 
1 1 1 1 1 1 1 1 1 
1 1 1 1 1 1 1 1 1 
1 1 1 1 1 1 1 1 1 
1 1 1 1 1 1 1 1 1 
1 1 1 1 1 1 1 1 1 
1 1 1 1 1 1 1 1 1 
1 1 1 1 1 1 1 1 1 
1 1 1 1 1 1 1 1 1 
1 1 1 1 1 1 1 1 1 
1 1 1 1 1 1 1 1 1 
1 1 1 1 1 1 1 1 1 
1 1 1 1 1 1 1 1 1 
1 1 1 1 1 1 1 1 1 
1 1 1 1 1 1 1 1 1 
1 1 1 1 1 1 1 1 1 
1 1 1 1 1 1 1 1 1 
1 1 1 1 1 1 1 1 1 
1 1 1 1 1 1 1 1 1 
1 1 1 1 1 1 1 1 1 
1 1 1 1 1 1 1 1 1 
1 1 1 1 1 1 1 1 1 
1 1 1 1 1 1 1 1 1 
1 1 1 1 1 1 1 1 1 
1 1 1 1 1 1 1 1 1 
1 1 1 1 1 1 1 1 1 
1 1 1 1 1 1 1 1 1 
1 1 1 1 1 1 1 1 1 
1 1 1 1 1 1 1 1 1 
1 1 1 1 1 1 1 1 1 
1 1 1 1 1 1 1 1 1 
1 1 1 1 1 1 1 1 1 
1 1 1 1 1 1 1 1 1 
1 1 1 1 1 1 1 1 1 
1 1 1 1 1 1 1 1 1 
1 1 1 1 1 1 1 1 1 
1 1 1 1 1 1 1 1 1 
1 1 1 1 1 1 1 1 1 
1 1 1 1 1 1 1 1 1 
1 1 1 1 1 1 1 1 1 
1 1 1 1 1 1 1 1 1 
1 1 1 1 1 1 1 1 1 
1 1 1 1 1 1 1 1 1 
1 1 1 1 1 1 1 1 1 
1 1 1 1 1 1 1 1 1 
1 1 1 1 1 1 1 1 1 
1 1 1 
NORMALS Normals float
0.148708 -0.154939 -0.976668 0.437168 -0.148824 -0.886981 0.183652 0.0527139 -0.981577 
0.150198 0.101866 -0.983394 0.602681 -0.0320035 -0.79734 0.877376 -0.0299113 -0.478869 
0.237732 0.00237917 -0.971328 0.470322 0.0114496 -0.88242 0.270671 0.118276 -0.955378 
0.40909 0.152428 -0.899673 0.661854 0.0429848 -0.748399 0.228881 -0.258893 -0.938397 
-0.206993 -0.148354 -0.967029 -0.12254 -0.130851 -0.9838 0.371561 -0.0853975 -0.924473 
0.581839 -0.231257 -0.779733 -0.062248 -0.133611 -0.989077 -0.042204 -0.14221 -0.988936 
0.841968 0.135102 -0.522338 -0.278349 0.0197006 -0.960278 0.792712 -0.0178559 -0.609335 
0.738436 0.00824772 -0.674273 -0.227033 0.0684156 -0.971481 0.923588 -0.0987214 -0.370457 
0.88072 -0.0291541 -0.472739 0.27735 0.124104 -0.95272 0.573101 0.103044 -0.812981 
0.679206 0.0946608 -0.727818 0.0274995 0.177936 -0.983658 0.0590388 -0.230788 -0.971211 
0.312591 -0.369305 -0.875157 0.460323 -0.302014 -0.834799 0.663544 -0.291422 -0.689044 
0.78255 -0.0591523 -0.619771 -0.429653 -0.0228187 -0.902706 -0.2204 0.157644 -0.962586 
0.720182 0.0341617 -0.692944 -0.183752 0.307137 -0.933757 -0.189374 0.380983 -0.90498 
0.338709 0.213341 -0.916385 -0.0375014 0.414162 -0.90943 -0.131331 -0.270214 -0.953801 
-0.196635 -0.177924 -0.964198 -0.257532 -0.469483 -0.844549 0.204984 -0.359031 -0.910537 
0.781945 -0.308652 -0.541568 0.842215 -0.273134 -0.464836 0.966807 0.00762051 -0.255394 
0.934879 -0.00278735 -0.354956 -0.536768 0.224042 -0.81344 -0.542802 0.265477 -0.796798 
0.722349 0.0809006 -0.686781 -0.509639 0.283742 -0.812255 -0.491207 0.437739 -0.75306 
0.325649 0.223433 -0.918711 0.292009 0.221469 -0.93042 0.193512 -0.461156 -0.865961 
-0.18444 -0.498565 -0.847003 -0.360346 -0.338015 -0.869423 -0.64182 0.128654 -0.755986 
0.90055 -0.0903745 -0.425256 0.688603 0.135749 -0.712319 -0.104305 0.372857 -0.922008 
0.593091 0.0385439 -0.804212 0.171932 0.327061 -0.929231 0.497162 0.379283 -0.780368 
0.0888048 -0.64336 -0.760395 -0.31601 -0.451835 -0.834256 -0.130091 -0.543135 -0.829506 
0.288091 -0.533363 -0.795316 -0.152571 -0.503378 -0.850489 0.55782 -0.4538 -0.694912 
-0.463136 -0.119062 -0.878254 -0.580312 -0.0167196 -0.814223 -0.663432 0.193146 -0.722878 
0.951104 0.0566612 -0.30363 0.830782 0.104314 -0.546735 -0.224383 0.352631 -0.908462 
0.812368 -0.132774 -0.567828 0.594277 0.139948 -0.79199 0.837408 0.233047 -0.494406 
0.181997 0.579287 -0.794546 0.750125 0.421078 -0.509908 0.29685 -0.547183 -0.782605 
-0.474294 -0.256617 -0.842136 0.955572 -0.0994051 -0.27749 0.821619 0.054261 -0.567449 
0.921343 0.00851857 -0.388658 0.883198 -0.00977796 -0.468898 -0.201748 0.607912 -0.767946 
-0.33066 -0.489686 -0.806766 0.529037 -0.571984 -0.626861 -0.456155 -0.355358 -0.81587 
0.843134 -0.375128 -0.385232 0.846351 0.255735 -0.467215 0.841412 0.139822 -0.521991 
-0.0296795 0.563872 -0.825329 0.455328 0.466969 -0.758035 0.693706 0.334671 -0.637783 
0.323597 0.492034 -0.8082 -0.247195 -0.598816 -0.761784 0.0916331 -0.69624 -0.711937 
0.588908 -0.599069 -0.542498 0.977124 -0.0830559 -0.19578 -0.47715 0.538642 -0.694401 
-0.189031 0.554458 -0.810459 0.42189 0.423097 -0.801871 0.0559344 0.460674 -0.885805 
0.114884 0.631312 -0.766972 0.467485 0.472438 -0.747168 -0.310757 -0.513927 -0.799568 
0.0244557 -0.749415 -0.661648 -0.506981 -0.269766 -0.818655 0.626278 -0.65541 -0.422154 
-0.594897 -0.156193 -0.788481 0.985586 -0.0578655 -0.158974 0.970887 0.0643288 -0.230737 
0.891586 0.139944 -0.430686 0.858888 0.221935 -0.46158 0.562857 0.49974 -0.658371 
-0.10613 0.643475 -0.758074 0.53364 0.497372 -0.683995 0.0179159 0.678486 -0.734395 
0.625029 0.495934 -0.602816 0.297465 0.696147 -0.653371 0.499627 -0.675251 -0.542595 
-0.406534 -0.451428 -0.794319 0.838888 -0.394945 -0.374547 0.937418 0.217711 -0.271753 
0.900064 0.329485 -0.285175 0.714937 0.568401 -0.407168 0.512086 0.710796 -0.482221 
0.294205 -0.774089 -0.560562 0.674445 -0.601838 -0.427685 -0.559728 -0.269323 -0.78369 
0.847531 -0.459953 -0.264829 -0.31049 0.655017 -0.688875 0.0493489 0.734953 -0.67632 
0.946323 0.108282 -0.304546 0.462188 0.626848 -0.627251 -0.34057 -0.561629 -0.754045 
-0.127248 -0.718516 -0.683771 -0.546018 -0.32062 -0.773994 0.851749 -0.460122 -0.250622 
-0.722317 -0.0434135 -0.690198 0.985895 -0.00188383 -0.167358 0.0523351 0.627452 -0.776895 
0.58569 0.616388 -0.526339 0.553967 0.593567 -0.58378 -0.256777 0.649532 -0.715663 
0.494056 0.680878 -0.540661 0.700227 0.513379 -0.49611 -0.348419 -0.517791 -0.781343 
0.385493 -0.780363 -0.49237 0.642854 -0.632283 -0.432385 -0.801713 0.0836816 -0.591822 
0.843904 0.387716 -0.370815 0.0134586 0.743592 -0.668498 0.184212 0.759103 -0.624362 
0.642382 0.522782 -0.560396 0.726447 -0.597717 -0.339129 0.881497 -0.404992 -0.242786 
0.845858 0.366949 -0.387134 0.0354083 0.717681 -0.695472 0.313612 0.636313 -0.704808 
0.0494165 -0.780777 -0.622853 0.394661 -0.790578 -0.468218 0.708243 -0.622816 -0.332403 
-0.581197 -0.216972 -0.784304 0.974296 -0.0822761 -0.209707 -0.45495 0.601228 -0.656922 
-0.0696162 0.689636 -0.720802 -0.10313 0.705731 -0.700933 0.466224 0.602098 -0.648161 
-0.429586 -0.419587 -0.799626 -0.538897 -0.17564 -0.823857 -0.798455 0.151479 -0.582686 
0.853532 0.252523 -0.455758 -0.450212 0.603704 -0.657914 0.760087 0.377036 -0.529256 
-0.146063 -0.654065 -0.742203 0.736106 -0.56163 -0.377783 0.559363 -0.668258 -0.490453 
0.989164 -0.0402245 -0.141196 0.669749 0.348211 -0.655885 -0.00198337 0.589237 -0.807957 
0.291024 0.434624 -0.852295 0.406873 -0.78154 -0.472916 0.426493 -0.810803 -0.400876 
-0.631678 -0.121996 -0.765572 0.88493 0.0879481 -0.457345 0.771877 0.325056 -0.546392 
-0.0376015 0.461296 -0.886449 0.184006 -0.825768 -0.533151 -0.414693 -0.306772 -0.856692 
-0.651291 -0.00523346 -0.75881 0.963189 -0.146586 -0.225345 -0.31667 0.490995 -0.811569 
0.0304647 0.363726 -0.931008 -0.222898 0.0794745 -0.971597 -0.13048 0.157054 -0.978933 
0.140476 0.0991946 -0.985103 0.193529 0.144364 -0.970415 -0.100169 0.301822 -0.948087 
0.110979 0.401196 -0.909245 0.424008 0.191623 -0.885154 0.102577 0.436876 -0.893654 
-0.12089 -0.560805 -0.819075 0.0752432 -0.747704 -0.659756 0.987954 -0.143595 -0.0576904 
0.936535 0.0114607 -0.350388 -0.170848 0.455678 -0.873595 -0.223685 0.456874 -0.860948 
0.095206 -0.0300646 -0.995003 -0.289471 0.303959 -0.907643 0.240161 0.0736919 -0.967932 
-0.150128 0.286012 -0.946392 -0.20188 0.216348 -0.955216 0.120035 0.38355 -0.915686 
0.54212 0.176579 -0.821539 0.889824 -0.163809 -0.425887 0.841098 0.056045 -0.537971 
0.717699 0.108419 -0.687862 0.139325 0.363341 -0.92118 -0.264521 0.371495 -0.889955 
-0.159513 0.15689 -0.974649 0.0431569 -0.0943656 -0.994602 -0.319633 0.113856 -0.940676 
-0.417074 0.321824 -0.849987 -0.421231 0.321854 -0.847924 0.156874 0.309153 -0.937984 
0.0629394 0.459474 -0.885958 0.315207 0.446204 -0.837584 -0.0927191 0.603427 -0.79201 
-0.253421 -0.441013 -0.860979 0.501495 -0.781355 -0.371466 -0.654072 0.481064 -0.583752 
0.785923 -0.20623 -0.582918 0.333196 0.0669227 -0.940479 -0.617041 0.262239 -0.741951 
-0.545987 0.264053 -0.795094 -0.332287 0.477746 -0.813231 -0.175969 0.70802 -0.683917 
0.31224 0.70138 -0.640759 -0.20916 -0.491566 -0.845349 0.118017 -0.732751 -0.670185 
0.850582 -0.329588 -0.409734 0.516846 -0.235404 -0.823077 0.501054 -0.308998 -0.808372 
0.403647 -0.206117 -0.891395 -0.552849 0.463347 -0.69258 0.219381 -0.279407 -0.934775 
0.187016 -0.100998 -0.977151 0.287712 -0.180338 -0.940585 0.54005 -0.248772 -0.804026 
0.292929 0.126047 -0.94779 0.508254 -0.0361325 -0.860449 0.343465 0.245526 -0.906503 
-0.617781 0.448077 -0.6462 -0.310588 0.754837 -0.577716 0.19894 0.740655 -0.641758 
-0.477646 -0.221385 -0.850202 -0.582421 -0.164652 -0.796037 -0.633644 0.0828812 -0.769172 
0.573087 -0.485756 -0.66001 0.363121 -0.57639 -0.732064 0.433742 -0.48206 -0.761239 
0.522132 -0.511038 -0.682802 0.33599 -0.324031 -0.884372 0.185573 -0.274262 -0.94358 
0.546819 -0.544239 -0.636233 0.70171 -0.239196 -0.67111 0.556805 -0.745948 -0.365417 
0.247313 -0.0744056 -0.966075 0.183675 -0.153886 -0.970867 0.757962 -0.135132 -0.638148 
0.328697 0.193081 -0.924488 0.18369 -0.0539111 -0.981505 0.632208 0.0342112 -0.774043 
0.810026 0.0471982 -0.584492 0.682347 0.214647 -0.698806 0.745062 0.273365 -0.608402 
0.359135 0.543169 -0.758939 0.653656 0.418666 -0.630438 -0.477649 0.641217 -0.600577 
0.586223 0.408988 -0.699336 -0.156956 0.732044 -0.66293 -0.31114 0.811367 -0.494849 
-0.0823351 -0.688384 -0.720658 -0.37461 -0.509076 -0.774925 0.850602 -0.466569 0.242467 
0.974053 -0.223603 -0.0349632 0.969146 -0.16645 0.181799 0.996335 -0.0481142 0.0707257 
0.787641 -0.439314 -0.432001 0.474378 -0.572154 -0.669033 0.723341 -0.533046 -0.438908 
0.692071 -0.648022 -0.317972 0.874482 -0.310042 -0.373034 0.928865 -0.20765 -0.306743 
0.366262 0.542057 -0.756324 0.740822 0.489714 -0.459742 0.63056 0.389767 -0.671175 
-0.591953 0.623138 -0.511166 -0.300462 -0.809662 -0.504153 -0.439911 -0.641547 -0.628408 
0.201307 -0.79727 -0.569065 0.446811 -0.837302 -0.315095 0.758918 -0.637373 -0.13341 
0.713769 -0.699775 -0.0291324 0.574848 -0.692187 -0.436379 0.723381 -0.634774 -0.271628 
0.829442 -0.49832 -0.252396 0.975715 -0.0221665 -0.21792 0.923463 0.262537 -0.279803 
0.921422 0.361042 -0.143632 0.661754 0.636653 -0.395922 0.62886 0.620422 -0.468629 
-0.558912 0.675916 -0.480369 -0.0374894 0.844272 -0.534603 -0.0455183 -0.951211 -0.305166 
-0.689524 -0.325221 -0.647138 -0.623697 -0.653258 -0.429251 -0.785055 -0.0491751 -0.617471 
0.887232 -0.356167 -0.293196 0.635279 -0.698454 -0.329519 0.957249 0.190988 -0.21725 
-0.687833 0.460811 -0.560837 0.706556 0.623837 -0.334074 0.58875 0.632564 -0.503226 
-0.145238 0.90012 -0.410718 -0.14252 -0.964584 -0.221958 -0.0266865 -0.888066 -0.458941 
0.0663333 -0.895734 -0.439613 0.950759 -0.306656 0.0449496 -0.697528 0.328755 -0.63669 
0.986515 -0.0445266 0.157496 0.964379 -0.146297 0.220387 0.810757 -0.570835 -0.129696 
0.985332 -0.15929 -0.0612211 0.523166 0.709596 -0.471987 -0.455549 0.764024 -0.456884 
0.445683 0.733218 -0.513574 0.264913 0.862917 -0.430343 0.0983865 0.881475 -0.461868 
-0.387153 -0.889971 -0.240965 0.271726 -0.870049 -0.411314 -0.828752 -0.31824 -0.460319 
0.61329 -0.757388 -0.22414 0.797127 -0.583662 -0.154685 -0.753427 0.10838 -0.648538 
0.973112 -0.0287056 0.228539 0.961478 -0.23459 0.143273 -0.635382 0.533024 -0.558726 
0.65212 -0.674074 -0.346933 0.943384 -0.331587 -0.00877874 0.868488 0.441425 -0.225548 
-0.654893 0.683272 -0.322885 -0.22848 0.899791 -0.371716 0.022543 0.92552 -0.378028 
-0.106415 -0.961034 -0.255126 0.0296605 -0.973134 -0.228321 -0.462492 -0.83877 -0.287343 
-0.799963 -0.541852 -0.25779 0.40147 -0.838186 -0.369142 -0.904638 -0.126435 -0.406994 
0.906684 -0.410913 -0.0952602 -0.837764 0.103019 -0.536226 0.887563 0.0770043 0.454206 
0.882022 -0.471201 0.0025686 0.911316 -0.356305 -0.206278 0.80248 -0.545886 -0.240903 
0.634544 -0.618919 -0.462917 0.97869 0.205139 -0.00911085 0.491068 0.799189 -0.346627 
-0.128528 0.949877 -0.284981 0.431645 0.844186 -0.317857 -0.562722 -0.816617 -0.128376 
-0.097676 -0.988903 -0.111942 0.305041 -0.87026 -0.386778 -0.000341616 0.51715 0.855895 
0.948685 -0.268373 0.167249 0.711068 0.0665441 0.699968 0.965942 -0.0950724 0.240662 
0.637934 -0.635467 -0.434996 0.841761 -0.525998 -0.121509 0.993731 -0.0391859 0.104701 
0.501001 0.764009 -0.406556 -0.463951 0.83797 -0.287324 -0.785562 -0.615602 0.0626651 
-0.207921 -0.976174 -0.062068 -0.740938 -0.669569 0.0518524 0.474938 -0.854424 -0.210698 
-0.924044 -0.275147 -0.2654 -0.933173 -0.0565975 -0.354944 -0.939511 -0.00847916 -0.342413 
-0.13817 0.519081 0.843483 -0.0574503 0.423686 0.903986 -0.237845 0.691939 0.681652 
-0.0626596 0.475812 0.877312 0.249833 -0.416146 0.874303 0.0967369 -0.169958 0.980692 
-0.068597 0.791067 0.607871 0.192895 0.0959798 0.976514 0.0942606 0.586532 0.804422 
0.182814 0.712576 0.677359 0.85628 0.371966 0.358366 0.306961 0.170506 0.936324 
0.368734 0.543413 0.754147 0.510377 0.576993 0.637647 0.500715 0.160145 0.850669 
0.476117 0.349875 0.806784 0.757931 0.325738 0.565187 -0.755432 0.156815 -0.636185 
0.653126 0.31 0.690888 0.720459 -0.285791 0.631872 0.833921 -0.0797999 0.546083 
0.879331 -0.31011 0.361399 0.99276 -0.0566583 0.105909 0.654808 0.680882 -0.328064 
0.801649 0.561068 -0.206306 0.379324 0.868332 -0.319551 -0.481114 0.854207 -0.197128 
0.482904 0.830608 -0.277297 -0.55004 -0.832323 0.068518 0.439468 -0.875038 -0.202919 
0.716118 -0.689756 -0.106824 -0.0784235 0.670093 0.738123 -0.223323 0.665347 0.712349 
0.04231 0.402928 0.914253 0.150051 0.29717 0.942961 0.996903 0.0738988 -0.0269019 
0.277567 -0.0169317 0.960557 0.164759 0.115616 0.979534 -0.355808 0.834643 0.420443 
-0.213897 0.84004 0.498578 0.908254 0.391331 0.148107 0.11058 0.847909 0.518481 