# vtk DataFile Version 4.2
vtk output
ASCII
DATASET POLYDATA
POINTS 256 float
503.762 183.059 213.433 503.996 182.755 213.584 505.273 183.215 213.512 
504.808 182.926 213.555 502.411 183.271 213.392 502.194 183.14 213.468 
501.988 183.293 213.473 500.099 183.977 213.732 499.804 184.005 213.88 
503.652 184.201 213.247 501.98 182.996 213.656 504.046 182.437 213.874 
506.944 182.848 214.103 498.683 183.201 214.909 498.632 183.59 214.686 
501.615 183.988 213.472 510.619 183.804 214.576 499.558 184.285 214.081 
500.359 184.588 213.742 502.202 184.702 213.475 505.506 184.917 213.509 
508.574 184.748 213.836 511.26 184.361 214.582 508.85 185.288 213.954 
509.973 185.309 214.207 511.277 185.102 214.52 506.315 182.246 214.584 
501.184 182.548 214.285 497.961 183.621 215.263 498.331 183.841 214.889 
513.067 184.693 215.485 498.288 184.693 215.198 501.975 185.162 213.725 
513.368 185.157 215.56 504.432 185.629 213.729 508.391 186.02 214.127 
511.313 185.755 214.61 504.184 186.028 213.974 498.38 182.609 215.776 
509.795 182.824 215.11 497.661 183.207 215.925 497.508 183.506 215.834 
512.417 184.107 215.35 497.617 183.72 215.604 497.297 184.176 216.061 
498.939 185.363 215.095 506.227 185.84 213.892 511.054 185.936 214.604 
502.601 186.316 214.38 514.095 186.421 216.026 514.548 186.304 216.309 
503.708 181.398 215.52 506.04 181.576 215.832 499.396 181.747 216.454 
508.346 182.295 215.207 513.524 184.237 216.306 514.567 185.608 216.328 
514.486 185.306 216.394 499.779 186.473 215.727 514.882 186.911 216.768 
505.167 181.267 216.343 507.296 181.64 216.245 510.511 182.546 216.09 
497.181 183.353 216.763 512.647 183.624 216.179 514.47 184.717 216.826 
496.882 183.972 217.381 497.008 184.278 216.994 498.011 185.748 216.833 
516.221 186.472 217.953 508.979 188.145 215.855 502.019 180.787 217.526 
497.076 184.643 217.243 516.46 187.375 218.382 515.736 188.262 218.262 
515.329 184.808 218.034 496.641 184.009 218.935 517.041 187.267 219.239 
517.284 187.943 219.863 512.031 189.85 218.228 501.081 180.551 219.542 
496.954 185.229 219.144 517.224 186.862 219.729 517.527 187.669 220.305 
515.068 190.13 219.659 502.435 190.572 219.871 498.333 181.464 220.075 
497.128 182.461 220.147 516.795 185.832 219.662 517.397 186.8 220.288 
518.012 188.44 221.539 517.513 186.321 221.46 517.894 187.322 221.489 
518.255 188.692 222.078 517.377 190.285 221.782 512.91 182.455 221.083 
497.5 186.783 222.03 518.452 189.377 223.195 517.554 190.789 223.151 
517.933 190.203 222.86 502.645 192.205 222.588 497.24 182.103 223.549 
518.003 186.808 222.73 518.547 188.183 223.162 517.41 191.066 223.571 
518.35 190.036 223.889 513.724 192.92 223.836 501.573 180.304 223.78 
496.494 183.247 223.68 517.843 191.012 224.816 502.029 192.972 224.668 
505.168 194.302 224.577 499.716 180.697 224.683 498.038 181.47 224.826 
496.486 183.258 224.618 518.697 189.738 225.424 507.325 194.559 225.001 
501.346 193.107 226.841 502.489 194.142 226.882 511.312 194.373 226.082 
503.651 194.64 226.401 505.258 195.057 226.376 496.356 184.152 227.179 
496.369 184.54 226.668 518.749 190.04 227.211 498.611 181.199 228.168 
496.756 182.912 228.092 496.421 183.8 227.774 518.876 189.572 227.849 
502.829 194.941 229.293 496.371 184.499 228.068 517.99 186.29 228.69 
515.348 193.521 228.797 518.022 191.848 229.394 513.282 194.202 228.488 
503.21 195.136 229.545 504.858 195.439 228.995 497.116 182.428 229.334 
497.428 182.103 229.727 513.138 182.406 229.34 496.573 185.13 229.182 
499.225 190.517 229.813 518.829 189.759 229.616 500.927 192.964 230.785 
517.524 192.373 230.281 517.915 192.055 229.907 517.711 192.275 230.035 
499.099 181.071 231.12 496.624 183.524 231.005 515.665 183.908 231.186 
516.946 192.636 230.903 517.877 191.939 230.822 518.053 191.572 231.17 
502.336 194.507 230.718 506.843 195.206 230.734 518.478 190.52 231.53 
517.499 192.162 231.337 502.682 194.467 231.432 496.465 184.441 233.693 
518.049 191.006 232.535 517.588 191.951 231.711 501.364 192.896 232.62 
518.513 188.879 232.877 518.366 189.941 233.021 517.205 191.375 233.681 
504.625 194.008 233.311 497.036 185.73 236.08 517.523 186.744 235.28 
517.995 188.266 234.982 517.812 189.967 234.852 502.602 191.783 235.627 
505.077 192.328 235.901 505.974 192.603 235.656 496.788 183.258 236.555 
516.391 185.237 235.978 517.917 189.332 235.08 500.994 190.358 236.448 
496.734 184.415 237.604 497.934 186.52 237.731 517.026 186.912 236.851 
517.792 188.969 235.527 514.919 184.459 238.157 513.999 189.142 238.819 
515.513 188.988 238.183 517.097 189.026 236.627 501.368 180.978 239.171 
498.957 181.583 238.943 497.929 182.517 239.596 497.026 183.752 239.193 
497.036 184.075 239.378 498.413 186.125 239.544 516.426 186.966 237.971 
516.418 188.081 237.957 514.967 188.637 238.884 515.94 188.345 238.342 
510.379 182.457 239.662 497.599 183.209 240.14 514.56 184.821 239.529 
497.101 184.319 239.504 513.332 187.228 240.553 512.97 188.002 240.186 
514.272 187.657 239.889 504.711 181.34 240.491 497.863 182.915 240.299 
498.38 182.593 240.52 499.319 182.015 240.346 513.549 184.173 240.048 
513.613 184.378 240.242 497.407 183.954 240.282 513.872 184.696 240.207 
497.265 184.428 239.797 500.122 186.908 240.643 515.248 187.123 239.372 
514.693 187.545 239.665 505.433 182.007 241.435 500.121 182.255 241.296 
497.848 183.665 240.984 499.268 182.757 241.429 509.801 183.098 241.236 
497.639 184.048 240.685 513.281 184.308 240.462 497.982 184.29 241.023 
513.599 185.537 240.708 511.445 186.43 241.564 500.467 182.703 242.024 
506.503 183.035 242.239 498.042 183.765 241.252 498.304 183.663 241.473 
498.617 183.45 241.594 507.321 183.216 242.216 510.317 183.604 241.538 
498.703 184.748 241.555 498.997 184.572 241.875 499.311 184.858 241.915 
510.139 185.668 242.128 512.656 185.923 241.198 511.906 185.784 241.552 
500.974 183.09 242.462 503.258 183.183 242.663 498.563 183.73 241.704 
499.473 183.525 242.163 503.706 183.424 242.751 504.659 183.651 242.714 
505.699 183.578 242.657 508.073 184.096 242.553 499.099 183.92 242.099 
500.654 184.427 242.65 503.193 183.914 242.915 504.591 184.25 242.853 
511.594 184.51 241.589 503.759 184.85 242.821 511.337 184.829 241.753 
501.084 183.83 242.754 502.401 183.476 242.825 507.253 184.416 242.738 
497.036 184.075 239.378 
POLYGONS 506 2024
3 10 4 0 
3 2 26 3 
3 4 5 6 
3 0 4 9 
3 1 0 3 
3 3 0 9 
3 2 3 9 
3 0 11 10 
3 1 3 11 
3 1 11 0 
3 8 13 14 
3 7 15 27 
3 8 7 27 
3 10 27 15 
3 10 15 6 
3 10 6 5 
3 4 10 5 
3 12 2 21 
3 6 19 4 
3 15 19 6 
3 19 9 4 
3 16 12 21 
3 17 8 31 
3 8 17 7 
3 7 18 15 
3 21 2 20 
3 22 16 25 
3 9 19 48 
3 34 9 48 
3 2 9 34 
3 20 2 34 
3 16 21 23 
3 24 16 23 
3 25 16 24 
3 3 26 11 
3 10 11 27 
3 2 12 26 
3 29 14 13 
3 29 13 28 
3 28 13 38 
3 8 27 13 
3 14 29 8 
3 31 8 29 
3 31 45 17 
3 17 18 7 
3 45 18 17 
3 15 32 19 
3 18 32 15 
3 48 19 32 
3 23 21 35 
3 23 70 24 
3 35 70 23 
3 70 47 24 
3 47 25 24 
3 36 25 47 
3 25 36 22 
3 36 49 22 
3 49 33 22 
3 18 45 48 
3 32 18 48 
3 37 34 48 
3 38 13 53 
3 11 53 27 
3 26 12 52 
3 43 40 41 
3 43 28 40 
3 40 28 38 
3 27 53 13 
3 16 39 12 
3 12 39 54 
3 62 39 16 
3 22 62 16 
3 22 42 62 
3 42 33 30 
3 44 43 41 
3 28 43 44 
3 28 44 29 
3 44 31 29 
3 45 31 44 
3 21 20 46 
3 33 42 22 
3 56 33 49 
3 56 55 33 
3 55 30 33 
3 21 46 35 
3 48 45 58 
3 20 34 37 
3 20 37 46 
3 47 49 36 
3 50 56 49 
3 26 52 11 
3 12 61 52 
3 54 61 12 
3 61 54 39 
3 40 63 41 
3 38 63 40 
3 42 64 62 
3 55 57 65 
3 56 57 55 
3 68 45 44 
3 48 46 37 
3 50 59 56 
3 50 49 59 
3 53 11 71 
3 11 51 71 
3 11 52 60 
3 60 51 11 
3 38 53 63 
3 30 55 64 
3 42 30 64 
3 63 66 41 
3 68 44 67 
3 65 57 56 
3 75 65 56 
3 41 66 67 
3 44 41 67 
3 69 56 73 
3 69 75 56 
3 45 68 58 
3 81 58 68 
3 56 59 73 
3 46 48 35 
3 48 70 35 
3 70 74 47 
3 47 74 49 
3 49 74 59 
3 73 59 74 
3 51 60 71 
3 60 52 80 
3 52 61 80 
3 39 62 61 
3 55 65 64 
3 75 64 65 
3 72 68 67 
3 66 72 67 
3 69 88 75 
3 48 79 70 
3 71 80 53 
3 71 60 80 
3 81 68 72 
3 66 63 76 
3 76 72 66 
3 73 78 77 
3 78 89 77 
3 58 85 48 
3 48 85 79 
3 74 70 79 
3 73 74 84 
3 53 80 86 
3 63 53 87 
3 53 86 87 
3 61 62 80 
3 87 76 63 
3 75 88 64 
3 72 76 81 
3 88 69 73 
3 82 88 73 
3 82 73 77 
3 82 77 89 
3 81 96 58 
3 89 78 83 
3 58 96 85 
3 84 74 79 
3 94 73 84 
3 78 73 94 
3 80 107 86 
3 62 95 80 
3 62 64 95 
3 88 82 89 
3 83 78 92 
3 92 78 90 
3 78 94 90 
3 87 108 76 
3 87 86 108 
3 64 88 131 
3 96 81 76 
3 88 89 91 
3 91 89 83 
3 92 91 83 
3 90 94 93 
3 84 79 85 
3 84 85 106 
3 97 93 94 
3 100 85 96 
3 86 101 108 
3 64 131 95 
3 91 92 102 
3 92 90 102 
3 102 90 103 
3 90 93 103 
3 94 84 106 
3 99 94 98 
3 97 94 99 
3 86 107 101 
3 88 91 131 
3 103 93 97 
3 103 97 105 
3 106 98 94 
3 97 98 105 
3 99 98 97 
3 110 100 96 
3 104 98 106 
3 98 104 105 
3 110 111 100 
3 85 100 116 
3 116 106 85 
3 101 112 113 
3 112 101 107 
3 80 95 107 
3 101 113 114 
3 114 108 101 
3 95 131 139 
3 123 96 76 
3 131 91 102 
3 131 102 103 
3 103 105 115 
3 105 104 109 
3 111 116 100 
3 114 123 108 
3 76 108 123 
3 109 104 106 
3 115 105 109 
3 120 110 117 
3 111 110 121 
3 116 111 121 
3 137 113 112 
3 95 139 107 
3 113 137 114 
3 123 110 96 
3 115 109 133 
3 120 117 118 
3 116 119 106 
3 106 119 109 
3 110 120 121 
3 125 112 107 
3 112 125 137 
3 114 137 126 
3 126 122 114 
3 114 122 123 
3 103 115 131 
3 131 115 124 
3 115 133 124 
3 129 118 117 
3 119 116 154 
3 120 118 135 
3 135 118 129 
3 121 120 136 
3 136 120 135 
3 107 139 185 
3 126 127 122 
3 127 130 122 
3 131 124 128 
3 128 124 133 
3 109 132 133 
3 148 126 137 
3 127 126 130 
3 140 123 122 
3 130 140 122 
3 123 140 110 
3 140 141 110 
3 128 133 142 
3 110 141 117 
3 141 143 117 
3 143 129 117 
3 119 154 134 
3 134 109 119 
3 121 136 116 
3 107 185 125 
3 125 138 137 
3 126 148 130 
3 137 138 148 
3 131 149 139 
3 131 128 142 
3 133 132 150 
3 150 146 133 
3 144 146 150 
3 109 134 132 
3 145 133 146 
3 134 154 184 
3 153 135 129 
3 136 154 116 
3 136 135 154 
3 125 185 147 
3 125 173 138 
3 147 173 125 
3 139 195 185 
3 130 148 140 
3 151 152 133 
3 132 184 150 
3 150 151 144 
3 151 145 144 
3 133 145 151 
3 143 153 129 
3 157 153 143 
3 132 134 184 
3 145 146 144 
3 154 135 165 
3 148 138 158 
3 158 140 148 
3 141 176 143 
3 142 133 155 
3 133 152 155 
3 176 161 143 
3 152 156 160 
3 151 156 152 
3 160 155 152 
3 150 160 156 
3 151 150 156 
3 143 161 157 
3 135 153 157 
3 157 165 135 
3 147 185 186 
3 186 173 147 
3 195 139 149 
3 162 131 142 
3 142 155 162 
3 162 155 159 
3 184 164 150 
3 150 164 160 
3 159 155 160 
3 157 161 176 
3 138 173 158 
3 177 140 158 
3 162 159 163 
3 164 169 163 
3 164 163 159 
3 164 159 160 
3 149 174 195 
3 158 173 177 
3 131 174 149 
3 141 140 177 
3 131 168 167 
3 168 131 162 
3 162 163 169 
3 176 170 165 
3 172 170 171 
3 172 165 170 
3 172 184 154 
3 165 157 176 
3 154 165 172 
3 174 131 167 
3 166 141 177 
3 162 169 168 
3 164 184 169 
3 187 173 186 
3 181 195 174 
3 174 167 168 
3 166 178 141 
3 169 184 180 
3 169 180 175 
3 169 175 168 
3 171 170 211 
3 188 173 187 
3 181 174 191 
3 190 166 177 
3 174 179 191 
3 179 174 168 
3 180 168 175 
3 180 184 168 
3 184 172 182 
3 172 200 182 
3 170 176 211 
3 211 172 171 
3 185 195 202 
3 188 198 173 
3 190 178 166 
3 211 141 178 
3 192 179 168 
3 211 176 141 
3 184 192 168 
3 183 182 193 
3 192 184 183 
3 182 183 184 
3 181 197 195 
3 181 191 197 
3 188 189 198 
3 177 198 190 
3 198 177 173 
3 190 211 178 
3 191 179 192 
3 211 234 172 
3 193 194 183 
3 192 183 194 
3 186 205 187 
3 187 205 203 
3 188 196 255 
3 196 188 187 
3 195 197 206 
3 209 206 197 
3 206 230 195 
3 210 190 198 
3 255 210 198 
3 199 201 200 
3 194 212 191 
3 191 192 194 
3 200 201 213 
3 200 213 182 
3 182 213 193 
3 193 213 212 
3 193 212 194 
3 186 215 205 
3 185 215 186 
3 185 202 215 
3 205 204 203 
3 195 229 202 
3 255 196 208 
3 203 196 187 
3 203 204 196 
3 207 206 209 
3 206 249 230 
3 249 206 220 
3 208 210 255 
3 197 191 209 
3 210 231 211 
3 190 210 211 
3 201 222 212 
3 199 222 201 
3 222 191 212 
3 223 200 234 
3 213 201 212 
3 200 172 234 
3 204 205 217 
3 205 215 217 
3 202 253 215 
3 202 225 214 
3 229 225 202 
3 196 219 208 
3 216 219 196 
3 216 196 226 
3 226 196 204 
3 228 226 204 
3 217 228 204 
3 195 218 229 
3 195 230 218 
3 226 219 216 
3 220 206 207 
3 219 226 221 
3 219 221 208 
3 208 221 210 
3 221 231 210 
3 222 207 209 
3 191 222 209 
3 250 234 211 
3 224 215 253 
3 224 253 237 
3 202 238 253 
3 214 238 202 
3 227 226 228 
3 217 239 228 
3 215 240 217 
3 217 240 239 
3 240 215 224 
3 229 218 244 
3 221 226 231 
3 222 235 249 
3 207 222 249 
3 207 249 220 
3 232 211 231 
3 211 232 233 
3 235 200 236 
3 235 199 200 
3 222 199 235 
3 200 223 236 
3 238 214 242 
3 241 238 242 
3 214 225 243 
3 242 214 243 
3 228 239 227 
3 229 254 225 
3 229 244 254 
3 244 218 230 
3 227 239 226 
3 240 245 239 
3 241 250 247 
3 241 242 250 
3 242 248 250 
3 243 254 242 
3 254 248 242 
3 254 244 234 
3 244 230 234 
3 226 239 231 
3 239 245 231 
3 231 245 232 
3 233 232 245 
3 245 246 233 
3 246 253 250 
3 250 248 254 
3 234 250 254 
3 230 251 234 
3 249 251 230 
3 211 233 246 
3 250 211 246 
3 236 251 249 
3 235 236 249 
3 251 223 234 
3 236 223 251 
3 237 252 224 
3 240 224 252 
3 253 252 237 
3 238 241 247 
3 238 247 253 
3 225 254 243 
3 245 240 252 
3 245 252 246 
3 246 252 253 
3 247 250 253 

POINT_DATA 256
SCALARS scalars float
LOOKUP_TABLE default
1 1 1 1 1 1 1 1 1 
1 1 1 1 1 1 1 1 1 
1 1 1 1 1 1 1 1 1 
1 1 1 1 1 1 1 1 1 
1 1 1 1 1 1 1 1 1 
1 1 1 1 1 1 1 1 1 
1 1 1 1 1 1 1 1 1 
1 1 1 1 1 1 1 1 1 
1 1 1 1 1 1 1 1 1 
1 1 1 1 1 1 1 1 1 
1 1 1 1 1 1 1 1 1 
1 1 1 1 1 1 1 1 1 
1 1 1 1 1 1 1 1 1 
1 1 1 1 1 1 1 1 1 
1 1 1 1 1 1 1 1 1 
1 1 1 1 1 1 1 1 1 
1 1 1 1 1 1 1 1 1 
1 1 1 1 1 1 1 1 1 
1 1 1 1 1 1 1 1 1 
1 1 1 1 1 1 1 1 1 
1 1 1 1 1 1 1 1 1 
1 1 1 1 1 1 1 1 1 
1 1 1 1 1 1 1 1 1 
1 1 1 1 1 1 1 1 1 
1 1 1 1 1 1 1 1 1 
1 1 1 1 1 1 1 1 1 
1 1 1 1 1 1 1 1 1 
1 1 1 1 1 1 1 1 1 
1 1 1 1 
NORMALS Normals float
-0.0748772 -0.452921 -0.888401 -0.092 -0.597745 -0.79639 0.129005 -0.244656 -0.96099 
0.126518 -0.463269 -0.87714 -0.02134 -0.353736 -0.935102 -0.0350911 -0.645036 -0.763346 
-0.30471 -0.221589 -0.92631 -0.343441 -0.10505 -0.933281 -0.508995 -0.178683 -0.842019 
0.0171241 0.0865889 -0.996097 -0.21168 -0.639777 -0.738835 -0.0605003 -0.798082 -0.599504 
0.238248 -0.680497 -0.692937 -0.466059 -0.565436 -0.680493 -0.573187 -0.320078 -0.754326 
-0.296331 -0.0800492 -0.951725 0.316416 -0.350459 -0.88151 -0.519953 0.253446 -0.815729 
-0.295739 0.377465 -0.87753 -0.109963 0.230611 -0.966813 0.0608686 0.273583 -0.959921 
0.161432 0.0183869 -0.986713 0.531789 -0.262246 -0.80525 0.254505 0.235789 -0.937886 
0.18535 0.194342 -0.963264 0.378791 0.00609675 -0.925462 0.235071 -0.752393 -0.615342 
-0.28429 -0.63618 -0.717255 -0.673018 -0.261368 -0.691905 -0.668968 -0.0352148 -0.742456 
0.54188 -0.401739 -0.738222 -0.652291 0.291336 -0.699743 -0.164874 0.405899 -0.898923 
0.502006 -0.157569 -0.850389 0.0038276 0.350073 -0.936715 0.116362 0.485316 -0.866561 
0.543918 0.152933 -0.825085 0.0477486 0.628618 -0.776248 -0.555002 -0.700179 -0.449135 
0.307164 -0.787239 -0.534702 -0.661982 -0.549247 -0.510007 -0.861826 -0.255082 -0.438395 
0.424002 -0.479563 -0.768272 -0.721202 -0.193237 -0.665227 -0.801927 0.256969 -0.539332 
-0.520744 0.579823 -0.626602 0.0599712 0.554143 -0.830258 0.205281 0.438099 -0.875174 
-0.115366 0.670029 -0.733316 0.434357 0.274542 -0.857881 0.645993 0.0950764 -0.757399 
-0.0441013 -0.891891 -0.450095 0.27802 -0.929508 -0.242322 -0.369696 -0.861616 -0.347769 
0.200538 -0.855279 -0.477789 0.581506 -0.502725 -0.639624 0.689986 -0.167918 -0.704076 
0.647407 -0.382352 -0.659296 -0.485286 0.779645 -0.395792 0.620125 0.284077 -0.731263 
0.220278 -0.963375 -0.152923 0.203393 -0.938548 -0.278854 0.377253 -0.849299 -0.369286 
-0.809942 -0.539385 -0.230343 0.529356 -0.801999 -0.276729 0.693851 -0.549576 -0.465334 
-0.97369 0.00195747 -0.227868 -0.925921 0.202141 -0.319075 -0.685799 0.648588 -0.33017 
0.81678 -0.200927 -0.540832 0.151882 0.632414 -0.759595 -0.12041 -0.939144 -0.321729 
-0.901048 0.369757 -0.226701 0.771536 0.180286 -0.610105 0.391367 0.602236 -0.695804 
0.678129 -0.667784 -0.30693 -0.996081 0.0043982 -0.0883399 0.897656 -0.0192898 -0.440275 
0.879958 0.199972 -0.430912 0.0779425 0.809298 -0.582204 0.0573696 -0.998349 -0.00293617 
-0.797896 0.591596 -0.11566 0.869806 -0.225703 -0.438743 0.951453 0.0024481 -0.307784 
0.346594 0.7761 -0.526822 -0.219384 0.836929 -0.501418 -0.54311 -0.835336 -0.0851185 
-0.768136 -0.62811 -0.124273 0.782958 -0.586664 -0.206886 0.93452 -0.160264 -0.317786 
0.927863 0.0123511 -0.372716 0.873349 -0.449359 -0.187985 0.966529 -0.0541579 -0.250775 
0.911627 0.163809 -0.376965 0.693625 0.545171 -0.470822 0.407939 -0.906444 -0.109293 
-0.793003 0.580441 -0.185025 0.915124 0.336999 -0.221312 0.67442 0.685069 -0.275389 
0.819327 0.519654 -0.242206 -0.372267 0.768968 -0.519717 -0.629703 -0.772437 -0.0825567 
0.924749 -0.34616 -0.158153 0.985097 -0.0904864 -0.146272 0.600049 0.763983 -0.237215 
0.884232 0.437033 -0.164727 0.292007 0.871652 -0.393643 -0.121917 -0.99215 -0.0278156 
-0.914682 -0.402046 -0.0414156 0.598795 0.778609 -0.18765 -0.655989 0.693788 -0.297214 
-0.18224 0.847879 -0.497885 -0.418235 -0.90418 -0.0868218 -0.604021 -0.796735 0.0192835 
-0.908449 -0.417475 0.0208667 0.968726 0.234692 -0.0805527 0.0687248 0.915331 -0.396795 
-0.720478 0.648508 -0.24566 -0.498462 0.805517 -0.320433 0.246763 0.950052 -0.191073 
-0.387208 0.856195 -0.342052 -0.148288 0.932784 -0.328519 -0.998865 -0.0018289 -0.0475862 
-0.976342 0.215964 -0.0107159 0.989217 0.0732174 -0.126842 -0.398026 -0.917373 0.0016035 
-0.925585 -0.373969 0.0586411 -0.96608 -0.239904 0.0955855 0.995755 0.0266116 -0.0881155 
-0.603387 0.79256 -0.0881553 -0.996865 0.04871 0.0623467 0.854372 -0.518784 -0.0301807 
0.315667 0.94452 0.0907534 0.807847 0.58193 -0.0934948 0.294075 0.954651 0.0464932 
-0.279383 0.957542 0.0711207 -0.0474301 0.996507 -0.0687319 -0.728583 -0.684742 0.0171731 
-0.768253 -0.637455 0.0586504 0.371319 -0.928505 -0.000638237 -0.93095 0.362971 -0.0397973 
-0.888223 0.458147 -0.0340651 0.996121 0.0746712 0.0465524 -0.778191 0.615947 0.12259 
0.598754 0.790328 0.129903 0.807606 0.578268 0.115669 0.383103 0.900112 -0.207438 
-0.330329 -0.943636 0.0208355 -0.942738 -0.323976 0.079272 0.582208 -0.811918 0.0426918 
0.174107 0.977381 0.120056 0.764352 0.627858 0.146836 0.830611 0.522954 0.191322 
-0.586203 0.793849 0.16177 0.101517 0.969672 0.222332 0.920219 0.355378 0.164022 
0.637272 0.733147 0.237444 -0.45062 0.817946 0.357639 -0.991378 -0.122323 0.0469743 
0.888673 0.418225 0.188013 0.684972 0.667673 0.291595 -0.693598 0.657577 0.294133 
0.991695 0.0207245 0.126933 0.926148 0.327667 0.186773 0.501774 0.736478 0.453677 
-0.207754 0.878896 0.429396 -0.965097 0.259762 0.0333291 0.86359 -0.317252 0.391871 
0.939153 -0.101025 0.328308 0.887282 0.327835 0.324429 -0.331576 0.826516 0.454893 
-0.160433 0.819194 0.550619 0.0162892 0.818338 0.574506 -0.854686 -0.51196 0.086075 
0.744656 -0.602908 0.28634 0.96652 0.154473 0.204884 -0.641424 0.67291 0.368465 
-0.981858 0.18729 0.0296067 -0.716462 0.638728 0.280552 0.887266 -0.234257 0.397345 
0.876578 0.127195 0.464147 0.657969 -0.706037 0.261894 0.250141 0.768335 0.589144 
0.494053 0.675477 0.547396 0.386911 0.729125 0.564514 -0.01111 -0.994459 0.10454 
-0.41033 -0.887046 0.211611 -0.692164 -0.678883 0.245001 -0.982425 -0.186647 0.00179833 
-0.215626 0.491165 -0.843956 -0.762292 0.55939 0.325567 0.787388 -0.206956 0.580679 
0.797711 0.190102 0.572292 0.459968 0.501851 0.732513 0.652321 0.320463 0.686863 
0.359723 -0.909066 0.210236 -0.774524 -0.384722 0.502097 0.683607 -0.616875 0.390061 
-0.949386 0.307538 0.0639242 0.353192 0.330614 0.875185 0.197492 0.634128 0.747582 
0.482249 0.417094 0.770369 0.127845 -0.889491 0.438705 -0.633762 -0.594105 0.495362 
-0.55839 -0.57176 0.601075 -0.402851 -0.841986 0.358846 0.498437 -0.752288 0.43084 
0.591303 -0.398353 0.701196 -0.894256 0.0974919 0.436808 0.686495 -0.354541 0.634843 
-0.796093 0.389314 0.463327 -0.398404 0.685544 0.609347 0.62948 0.125417 0.766828 
0.442439 0.544519 0.712564 0.17482 -0.730194 0.660495 -0.180906 -0.825068 0.53529 
-0.752913 -0.363384 0.548703 -0.371873 -0.636055 0.676124 0.273387 -0.732852 0.623047 
-0.856229 0.0741335 0.51125 0.452185 -0.597951 0.661802 -0.752458 0.390179 0.530629 
0.573988 -0.0799624 0.81495 0.226845 0.32406 0.918437 -0.216076 -0.644489 0.733447 
0.267738 -0.658325 0.703508 -0.704516 -0.238589 0.668381 -0.636074 -0.391105 0.665167 
-0.51471 -0.537789 0.667725 0.174478 -0.671103 0.72054 0.316303 -0.544442 0.776875 
-0.648313 0.368836 0.666071 -0.533927 0.401228 0.74427 -0.408321 0.432862 0.803682 
0.110773 0.330059 0.937438 0.360916 0.167452 0.917442 0.38028 0.125326 0.916341 
-0.217802 -0.488002 0.845231 0.0255218 -0.589354 0.807472 -0.545194 -0.199623 0.814195 
-0.379622 -0.467319 0.798436 0.122247 -0.27033 0.954975 0.0396944 -0.365495 0.929967 
0.0555663 -0.465516 0.883294 0.229237 -0.378752 0.896659 -0.470833 0.0471318 0.880962 
-0.20082 0.283212 0.937797 0.0197565 -0.121286 0.992421 -0.0409688 -0.122211 0.991658 
0.42376 -0.32628 0.844967 -0.0300191 0.20111 0.979109 0.264114 -0.0987743 0.95942 
-0.265449 -0.183995 0.946405 -0.0480859 -0.430909 0.901113 0.0975744 -0.154559 0.983153 
-0.90477 -0.10168 0.413584 
