# vtk DataFile Version 4.2
vtk output
ASCII
DATASET POLYDATA
POINTS 1129 float
332.374 138.466 146.632 332.584 118.962 147.911 332.105 120.196 147.541 
333.247 122.859 147.571 332.126 124.393 147.06 333.2 124.78 147.273 
332.208 126.496 147.022 332.857 128.34 147.071 334.07 127.874 147.557 
333.934 128.903 147.439 330.277 134.682 146.704 333.317 133.812 146.993 
334.469 134.241 147.449 331.213 136.697 146.568 333.186 136.378 146.864 
332.843 139.502 146.893 333.791 140.384 147.349 333.346 141.404 147.478 
332.276 115.214 148.556 332.586 114.5 148.914 332.327 118.101 148.028 
331.063 119.037 147.652 333.225 119.882 148.12 333.773 120.917 148.391 
333.821 122.757 148.091 334.264 124.741 148.073 331.025 127.722 147.055 
335.325 128.192 148.6 334.926 132.929 147.877 335.016 136.55 147.746 
325.595 137.786 147.8 333.765 139.186 147.176 330.764 140.525 146.991 
334.482 142.191 148.311 335.085 141.961 148.697 328.673 144.043 147.97 
330.985 143.592 147.828 333.738 142.858 148.147 330.679 144.705 148.147 
332.851 143.584 148.156 332.298 145.598 148.896 332.317 145.757 149.029 
330.466 110.166 149.741 329.505 110.943 149.187 331.297 110.84 149.863 
328.058 112.835 148.788 330.591 112.271 148.942 331.808 111.767 149.685 
329.304 113.259 148.559 331.636 112.844 149.106 333.391 115.368 149.352 
333.544 116.382 149.165 329.716 118.699 147.825 334.217 119.514 149.339 
334.447 121.456 149.239 330.542 124.525 147.222 335.378 127.09 148.891 
328.936 128.873 147.451 328.154 130.336 147.566 336.229 131.772 149.213 
336.188 136.938 148.744 325.669 139.452 147.817 336.079 139.603 149.007 
326.283 141.35 147.884 334.016 143.24 148.431 332.405 144.773 148.599 
328.298 145.239 148.577 331.212 146.018 149.064 329.592 109.123 149.982 
327.245 109.18 149.878 328.938 109.735 149.584 330.693 109.44 150.342 
331.221 109.829 150.512 326.812 111.771 149.261 333.483 114.781 149.826 
327.229 121.235 148.48 322.04 140.496 149.386 323.394 144.019 149.511 
335.862 143.006 149.858 334.007 145.847 150.029 335.042 145.139 150.272 
326.819 106.891 151.05 327.887 106.947 151.05 326.772 107.972 150.443 
329.383 108.091 150.547 331.019 109.227 150.845 331.765 110.228 150.83 
332.678 112.68 150.069 324.616 112.676 149.972 334.245 116.491 150.738 
335.463 124.261 150.186 326.614 124.479 148.619 323.271 127.499 149.991 
321.291 137.001 149.637 337.352 137.05 150.368 337.65 139.719 151.519 
337.147 142.419 151.573 321.618 145.662 150.922 327.207 148.427 150.742 
332.43 147.923 151.035 327.669 106.02 151.849 328.964 106.696 151.656 
329.57 106.319 152.477 324.811 107.428 151.31 330.523 107.434 152.155 
323.084 110.422 151.058 332.236 110.606 151.445 319.957 133.689 150.677 
337.771 133.532 151.542 318.407 138.634 151.253 323.797 148.171 151.429 
321.806 147.8 152.07 330.763 149.296 151.678 323.39 105.762 152.804 
330.492 106.815 153.035 333.798 114.267 151.522 322.506 116.496 150.898 
335.992 124.614 152.073 336.616 127.579 151.623 318.238 132.152 151.984 
317.797 142.559 152.164 318.806 146.111 152.817 327.408 150.647 152.807 
329.845 150.635 152.987 326.318 103.843 153.895 325.596 104.088 153.701 
319.403 109.588 153.29 332.597 110.637 153.145 336.358 125.667 152.875 
316.331 131.058 153.566 337.704 130.941 153.097 315.325 136.642 153.603 
316.143 139.553 152.972 336.041 145.89 152.661 317.577 109.505 154.54 
318.751 115.94 153.223 315.048 132.921 154.23 314.863 142.762 154.772 
318.182 147.463 154.137 335.638 147.366 154.032 333.587 149.421 153.799 
322.104 150.527 154.257 325.51 151.873 154.589 323.568 103.059 155.637 
327.661 103.357 155.001 318.609 105.291 155.907 333.546 113.078 154.097 
337.75 130.233 154.774 338.714 137.909 155.393 313.715 138.969 155.379 
338.616 140.098 155.39 328.884 152.285 155.24 327.452 153.314 156.812 
326.843 102.634 155.871 328.998 104.005 156.186 315.847 106.721 157.009 
315.287 107.996 156.852 315.138 110.654 156.199 338.456 133.224 155.953 
338.132 143.226 156.115 337.097 145.839 155.862 318.977 150.526 156.459 
320.389 151.404 156.465 322.683 152.605 156.866 322.209 102.288 157.442 
324.531 101.984 157.474 327.738 102.732 156.581 327.786 102.716 156.714 
319.695 103.535 157.097 316.37 106.007 157.055 332.263 110.109 157.023 
314.909 116.235 156.379 337.775 130.133 156.407 312.221 131.248 157.764 
312.125 133.786 157.427 311.965 135.669 157.543 312.448 141.566 157.786 
314.36 145.741 156.924 315.66 147.439 156.606 317.042 149.673 157.312 
334.241 149.962 156.404 331.87 151.772 156.382 317.339 104.167 158.169 
331.213 107.43 157.093 335.155 121.04 157.181 337.448 129.155 158.14 
335.74 148.635 158.332 323.145 153.422 158.26 330.322 153.284 158.656 
326.225 101.731 158.985 327.823 102.744 158.406 313.945 106.348 159.031 
330.25 106.141 159.366 311.802 108.524 159.713 313.498 124.798 157.985 
311.515 129.78 159.1 318.779 152.182 159.575 322.089 153.513 159.294 
327.936 154.232 159.853 321.958 101.267 160.274 328.762 103.75 159.326 
331.43 109.817 160.279 338.086 132.447 160.134 338.376 142.714 159.644 
337.406 145.75 160.696 313.061 146.977 160.256 314.189 148.56 160.085 
316.043 150.631 160.566 319.984 152.97 160.165 333.37 151.481 159.882 
324.017 154.306 160.732 323.697 101.03 161.221 315.865 103.156 161.361 
312.022 105.434 161.889 309.75 109.854 161.361 310.192 111.075 160.689 
334.371 120.423 160.875 309.528 129.995 161.873 338.713 136.43 159.989 
338.707 140.714 160.583 336.055 148.237 161.122 320.873 100.951 162.259 
326.299 101.938 161.471 328.301 103.605 160.889 329.756 106.922 162.512 
309.003 108.684 162.577 310.528 142.411 162.162 337.451 145.165 162.523 
317.784 152.271 162.355 320.95 153.675 162.294 326.329 154.676 161.926 
320.367 100.876 163.059 320.505 100.865 163.038 322.447 100.814 162.937 
319.753 101.015 163.341 320.891 100.872 162.931 328.714 104.884 162.525 
309.777 106.693 163.032 308.237 108.227 163.604 309.688 120.48 162.371 
309.747 124.181 162.549 336.677 146.795 163.079 313.873 149.229 162.738 
333.306 151.513 162.535 330.997 153.324 162.375 322.567 154.234 163.424 
328.912 154.211 162.306 323.463 101.004 163.988 325.445 101.773 163.245 
306.651 110.343 164.497 306.395 112.373 164.545 309.416 126.689 162.7 
336.863 130.888 164.151 338.228 136.162 163.13 326.893 154.492 163.47 
325 100.009 165.017 325 100.009 165.017 325 100.009 165.017 
325 100.009 165.017 317.066 101.379 165.169 325 100.009 165.017 
312.049 103.543 164.994 308.291 106.126 165.289 333.158 119.174 164.245 
338.189 139.411 163.963 310.814 145.517 165.082 334.308 149.883 164.977 
331.859 152.429 164.834 319.534 153.178 165.303 325.815 154.425 164.443 
325 100.009 165.017 309.584 104.683 165.905 326.655 103.825 166.02 
307.248 106.415 166.251 329.239 108.501 165.74 304.791 110.037 166.832 
304.56 110.889 166.927 305.072 112.18 166.122 308.621 140.561 166.155 
311.902 147.37 165.815 328.547 153.97 165.017 316.368 101.182 167.121 
322.597 100.977 166.625 324.582 101.989 166.2 304.667 107.965 168.073 
334.8 126.626 166.758 306.463 129.863 166.923 337.226 143.251 165.945 
335.8 146.404 166.732 311.454 146.891 167.322 313.486 149.158 167.022 
333.549 149.896 167.04 317.512 152.062 166.952 323.493 154.122 165.966 
324.917 153.955 166.915 319.297 100.663 167.517 322.849 101.121 167.39 
312.779 102.247 167.709 308.839 103.965 168.366 306.211 105.928 168.246 
303.89 109.244 168.329 330.967 152.143 167.413 324.021 153.82 167.108 
324.928 153.871 167.375 304.648 106.852 169.303 330.712 116.459 169.294 
332.66 121.885 168.761 335.949 133.442 168.433 336.724 135.949 167.665 
307.105 138.126 168.432 331.684 151.028 168.297 319.902 152.436 168.579 
322.658 153.187 168.356 329.728 152.576 167.732 324.993 153.784 167.508 
325.564 153.357 168.193 311.779 102.01 170.083 302.859 107.756 170.838 
302.015 109.129 171.004 307.445 140.354 169.818 336.283 141.931 168.663 
334.505 146.408 169.141 315.297 149.967 169.545 317.535 100.633 170.522 
325.457 105.419 171.349 302.029 115.277 170.792 329.708 115.664 171.333 
335.197 136.311 170.693 307.524 140.891 170.686 309.457 144.04 170.92 
331.09 149.143 170.83 319.091 151.213 170.292 328.588 151.27 170.324 
325.556 152.255 170.047 302.76 106.938 172.092 327.039 108.695 171.515 
300.734 111.731 172.4 302.743 120.531 171.832 334.68 142.231 171.19 
320.852 150.963 171.312 329.294 149.901 171.5 329.14 149.813 171.614 
329.702 149.691 171.401 326.059 151.51 170.861 318.614 100.748 172.143 
323.817 103.908 172.511 332.249 126.045 172.548 303.902 131.781 172.687 
333.734 134.408 172.507 334.465 139.675 171.963 309.717 144.067 172.689 
333.496 144.615 171.503 311.413 145.573 173.039 330.624 147.016 172.622 
329.079 148.032 172.84 314.861 148.4 172.157 324.879 150.646 171.857 
319.501 101.027 172.722 322.358 102.901 173.494 304.857 104.468 173.786 
307.702 102.931 173.725 301.506 107.222 174.092 299.695 111.876 174.359 
331.129 144.516 173.508 327.304 147.211 174.032 317.977 148.923 173.069 
322.049 149.681 172.811 320.029 101.523 173.886 324.106 105.823 174.654 
324.518 106.982 175.127 299.618 109.089 176.106 299.802 115.726 174.982 
303.097 132.077 175.214 331.889 138.892 174.635 332.105 141.573 173.853 
321.006 102.491 175.193 301.128 106.605 176.097 324.73 108.013 175.669 
306.213 139.433 176.414 308.759 142.25 175.856 315.892 146.479 175.351 
313.692 100.836 177.193 310.321 101.538 176.592 327.628 116.926 176.728 
330.256 126.751 176.231 329.853 131.467 177.028 303.243 133.692 177.169 
305.064 137.349 177.096 311.821 144.239 176.217 316.562 101.074 177.458 
319.927 102.735 177.835 319.889 102.735 178.027 319.718 102.656 178.04 
308.652 101.923 178.182 302.602 104.907 177.941 301.238 127.539 177.792 
306.088 139.02 177.864 327.274 139.126 177.791 324.826 141.02 178.243 
317.823 144.165 177.772 315.621 100.962 177.933 319.868 102.768 178.123 
319.99 103.28 178.632 322.909 108.328 179.026 297.962 113.14 179.154 
[...]
POINT_DATA 1129
SCALARS scalars float
LOOKUP_TABLE default
1 1 1 1 1 1 1 1 1 
1 1 1 1 1 1 1 1 1 
1 1 1 1 1 1 1 1 1 
1 1 1 1 1 1 1 1 1 
1 1 1 1 1 1 1 1 1 
1 1 1 1 1 1 1 1 1 
1 1 1 1 1 1 1 1 1 
1 1 1 1 1 1 1 1 1 
1 1 1 1 1 1 1 1 1 
1 1 1 1 1 1 1 1 1 
1 1 1 1 1 1 1 1 1 
1 1 1 1 1 1 1 1 1 
1 1 1 1 1 1 1 1 1 
1 1 1 1 1 1 1 1 1 
1 1 1 1 1 1 1 1 1 
1 1 1 1 1 1 1 1 1 
1 1 1 1 1 1 1 1 1 
1 1 1 1 1 1 1 1 1 
1 1 1 1 1 1 1 1 1 
1 1 1 1 1 1 1 1 1 
1 1 1 1 1 1 1 1 1 
1 1 1 1 1 1 1 1 1 
1 1 1 1 1 1 1 1 1 
1 1 1 1 1 1 1 1 1 
1 1 1 1 1 1 1 1 1 
1 1 1 1 1 1 1 1 1 
1 1 1 1 1 1 1 1 1 
1 1 1 1 1 1 1 1 1 
1 1 1 1 1 1 1 1 1 
1 1 1 1 1 1 1 1 1 
1 1 1 1 1 1 1 1 1 
1 1 1 1 1 1 1 1 1 
1 1 1 1 1 1 1 1 1 
1 1 1 1 1 1 1 1 1 
1 1 1 1 1 1 1 1 1 
1 1 1 1 1 1 1 1 1 
1 1 1 1 1 1 1 1 1 
1 1 1 1 1 1 1 1 1 
1 1 1 1 1 1 1 1 1 
1 1 1 1 1 1 1 1 1 
1 1 1 1 1 1 1 1 1 
1 1 1 1 1 1 1 1 1 
1 1 1 1 1 1 1 1 1 
1 1 1 1 1 1 1 1 1 
1 1 1 1 1 1 1 1 1 
1 1 1 1 1 1 1 1 1 
1 1 1 1 1 1 1 1 1 
1 1 1 1 1 1 1 1 1 
1 1 1 1 1 1 1 1 1 
1 1 1 1 1 1 1 1 1 
1 1 1 1 1 1 1 1 1 
1 1 1 1 1 1 1 1 1 
1 1 1 1 1 1 1 1 1 
1 1 1 1 1 1 1 1 1 
1 1 1 1 1 1 1 1 1 
1 1 1 1 1 1 1 1 1 
1 1 1 1 1 1 1 1 1 
1 1 1 1 1 1 1 1 1 
1 1 1 1 1 1 1 1 1 
1 1 1 1 1 1 1 1 1 
1 1 1 1 1 1 1 1 1 
1 1 1 1 1 1 1 1 1 
1 1 1 1 1 1 1 1 1 
1 1 1 1 1 1 1 1 1 
1 1 1 1 1 1 1 1 1 
1 1 1 1 1 1 1 1 1 
1 1 1 1 1 1 1 1 1 
1 1 1 1 1 1 1 1 1 
1 1 1 1 1 1 1 1 1 
1 1 1 1 1 1 1 1 1 
1 1 1 1 1 1 1 1 1 
1 1 1 1 1 1 1 1 1 
1 1 1 1 1 1 1 1 1 
1 1 1 1 1 1 1 1 1 
1 1 1 1 1 1 1 1 1 
1 1 1 1 1 1 1 1 1 
1 1 1 1 1 1 1 1 1 
1 1 1 1 1 1 1 1 1 
1 1 1 1 1 1 1 1 1 
1 1 1 1 1 1 1 1 1 
1 1 1 1 1 1 1 1 1 
1 1 1 1 1 1 1 1 1 
1 1 1 1 1 1 1 1 1 
1 1 1 1 1 1 1 1 1 
1 1 1 1 1 1 1 1 1 
1 1 1 1 1 1 1 1 1 
1 1 1 1 1 1 1 1 1 
1 1 1 1 1 1 1 1 1 
1 1 1 1 1 1 1 1 1 
1 1 1 1 1 1 1 1 1 
1 1 1 1 1 1 1 1 1 
1 1 1 1 1 1 1 1 1 
1 1 1 1 1 1 1 1 1 
1 1 1 1 1 1 1 1 1 
1 1 1 1 1 1 1 1 1 
1 1 1 1 1 1 1 1 1 
1 1 1 1 1 1 1 1 1 
1 1 1 1 1 1 1 1 1 
1 1 1 1 1 1 1 1 1 
1 1 1 1 1 1 1 1 1 
1 1 1 1 1 1 1 1 1 
1 1 1 1 1 1 1 1 1 
1 1 1 1 1 1 1 1 1 
1 1 1 1 1 1 1 1 1 
1 1 1 1 1 1 1 1 1 
1 1 1 1 1 1 1 1 1 
1 1 1 1 1 1 1 1 1 
1 1 1 1 1 1 1 1 1 
1 1 1 1 1 1 1 1 1 
1 1 1 1 1 1 1 1 1 
1 1 1 1 1 1 1 1 1 
1 1 1 1 1 1 1 1 1 
1 1 1 1 1 1 1 1 1 
1 1 1 1 1 1 1 1 1 
1 1 1 1 1 1 1 1 1 
1 1 1 1 1 1 1 1 1 
1 1 1 1 1 1 1 1 1 
1 1 1 1 1 1 1 1 1 
1 1 1 1 1 1 1 1 1 
1 1 1 1 1 1 1 1 1 
1 1 1 1 1 1 1 1 1 
1 1 1 1 1 1 1 1 1 
1 1 1 1 1 1 1 1 1 
1 1 1 1 1 1 1 1 1 
1 1 1 1 1 1 1 1 1 
1 1 1 1 
NORMALS Normals float
0.137626 0.118918 -0.98332 0.439523 -0.205038 -0.874517 0.220089 -0.0770737 -0.97243 
0.349949 -0.173274 -0.920604 0.0555632 -0.148532 -0.987345 0.415621 -0.0817183 -0.905859 
-0.0896781 -0.0441139 -0.994993 0.148634 -0.000898584 -0.988892 0.557712 -0.0701218 -0.827068 
0.530968 -0.0305898 -0.84684 -0.00830367 -0.00935545 -0.999922 0.301105 0.0477615 -0.952394 
0.485853 0.000671183 -0.87404 -0.139308 0.0880395 -0.986328 0.26037 -0.0558797 -0.96389 
0.0669693 0.233728 -0.969993 0.436481 0.193663 -0.878623 0.344026 0.272732 -0.898478 
0.401313 -0.218854 -0.889411 0.602134 -0.320421 -0.731277 0.221331 -0.223272 -0.949296 
0.0396222 -0.198334 -0.979333 0.654144 -0.181846 -0.734185 0.674499 -0.150908 -0.722688 
0.710341 -0.180812 -0.680238 0.718907 -0.144893 -0.679837 -0.137501 -0.018258 -0.990333 
0.767082 -0.0844446 -0.635967 0.527859 -0.0470885 -0.848026 0.526239 0.036052 -0.849572 
-0.222869 0.00674793 -0.974825 0.488432 0.0939915 -0.867525 -0.0876569 0.157924 -0.983553 
0.449333 0.238768 -0.860866 0.606151 0.201098 -0.769507 -0.117285 0.349534 -0.929554 
0.107481 0.227922 -0.967729 0.26216 0.212347 -0.941372 0.0749241 0.436439 -0.896609 
0.229507 0.220441 -0.948015 0.362945 0.464545 -0.807756 0.412125 0.577189 -0.704987 
0.416919 -0.406515 -0.812972 0.142621 -0.314074 -0.938625 0.607007 -0.403999 -0.684345 
-0.175269 -0.118013 -0.977422 0.180056 -0.312187 -0.932802 0.484727 -0.402389 -0.77661 
-0.0132486 -0.147716 -0.988941 0.390554 -0.303488 -0.869116 0.758897 -0.233271 -0.607996 
0.701186 -0.19485 -0.685836 -0.15974 -0.102364 -0.981837 0.839462 -0.176664 -0.513901 
0.782251 -0.180535 -0.59623 -0.195417 -0.0706495 -0.978172 0.864678 -0.155931 -0.477512 
-0.255483 -0.0594974 -0.964981 -0.2781 -0.0836059 -0.956907 0.798337 -0.0935699 -0.594897 
0.744026 -0.0113397 -0.668055 -0.290896 0.0759033 -0.953739 0.724767 0.142936 -0.674005 
-0.157166 0.140923 -0.977466 0.411991 0.351193 -0.840789 0.307677 0.401447 -0.862656 
-0.146353 0.467772 -0.871648 0.0994729 0.598174 -0.795168 0.311151 -0.547638 -0.77671 
-0.173458 -0.353183 -0.919334 0.0468389 -0.366009 -0.929432 0.487413 -0.556744 -0.672655 
0.675366 -0.453412 -0.581634 -0.208807 -0.225637 -0.951571 0.84433 -0.314495 -0.433819 
-0.430086 -0.0301654 -0.902284 -0.444375 0.130134 -0.886339 -0.330869 0.291906 -0.897395 
0.716813 0.294047 -0.63223 0.409433 0.636129 -0.653991 0.65295 0.504375 -0.565033 
-0.117957 -0.619647 -0.775966 0.126312 -0.654352 -0.745566 -0.0845755 -0.441447 -0.893293 
0.260025 -0.542837 -0.798571 0.587989 -0.596602 -0.5462 0.719141 -0.42418 -0.55037 
0.804885 -0.403392 -0.435242 -0.379625 -0.113096 -0.918201 0.945147 -0.201676 -0.256952 
0.883898 -0.157295 -0.440434 -0.41493 -0.0594295 -0.90791 -0.457645 -0.149224 -0.876523 
-0.422545 -0.0448173 -0.905233 0.907757 0.0329549 -0.418199 0.905736 0.146708 -0.397643 
0.863964 0.305472 -0.400316 -0.424443 0.348187 -0.835831 -0.0485071 0.63065 -0.77455 
0.45473 0.685846 -0.568186 0.0687234 -0.712387 -0.698414 0.327284 -0.714615 -0.618231 
0.446252 -0.731209 -0.515939 -0.281325 -0.494733 -0.822251 0.689044 -0.555714 -0.465187 
-0.467802 -0.135528 -0.873381 0.845078 -0.408104 -0.345391 -0.525796 -0.1374 -0.83944 
0.930403 -0.0957782 -0.353803 -0.541972 0.017813 -0.840208 -0.276213 0.553867 -0.785454 
-0.370567 0.588468 -0.7186 0.190465 0.696852 -0.691462 -0.358478 -0.545442 -0.757619 
0.807362 -0.549498 -0.214984 0.926647 -0.335986 -0.168638 -0.429845 0.0166154 -0.90275 
0.969774 -0.202923 -0.135499 0.941603 -0.216163 -0.258181 -0.439807 -0.298525 -0.847026 
-0.555161 0.200951 -0.807103 -0.5224 0.427266 -0.737931 -0.12005 0.738167 -0.663851 
0.222686 0.775848 -0.590314 0.0524319 -0.790751 -0.609888 -0.137199 -0.725399 -0.674517 
-0.514533 -0.204184 -0.832805 0.902876 -0.408984 -0.132467 0.95267 -0.254924 -0.165633 
-0.638707 -0.146322 -0.75541 0.967498 -0.16132 -0.194739 -0.670738 -0.00294729 -0.741688 
-0.636082 0.0383447 -0.770668 0.783494 0.489991 -0.38216 -0.562885 -0.168459 -0.809186 
-0.594007 0.0273843 -0.803994 -0.698844 -0.0957662 -0.708835 -0.701232 0.239554 -0.671482 
-0.550067 0.510249 -0.661115 0.719466 0.58934 -0.367489 0.553497 0.707304 -0.43973 
-0.33726 0.701047 -0.628322 -0.118268 0.812879 -0.570298 -0.196185 -0.805702 -0.558889 
0.436645 -0.775511 -0.455987 -0.475609 -0.526267 -0.704869 0.956537 -0.291193 -0.0156058 
0.968816 -0.241744 -0.0543608 0.994835 -0.0232361 -0.0988066 -0.77187 0.0483082 -0.633942 
0.984156 0.100673 -0.145955 0.154883 0.858062 -0.489633 0.0198257 0.91151 -0.4108 
0.0846255 -0.903824 -0.419454 0.729365 -0.666418 -0.154639 -0.570934 -0.464197 -0.677167 
-0.566267 -0.278263 -0.775829 -0.677813 -0.0485382 -0.733631 0.989278 -0.135752 -0.0538592 
0.944393 0.271515 -0.185478 0.879802 0.450468 -0.151747 -0.486373 0.69733 -0.526471 
-0.382015 0.804452 -0.454885 -0.275867 0.835445 -0.47532 -0.222872 -0.908418 -0.353701 
-0.0586803 -0.948957 -0.3099 0.312534 -0.930358 -0.191719 0.459846 -0.870816 -0.173843 
-0.369009 -0.770789 -0.519342 -0.530866 -0.45509 -0.714895 0.932701 -0.350258 0.0859534 
-0.669886 0.107717 -0.734609 0.979499 -0.201409 -0.0040536 -0.803605 -0.140521 -0.578337 
-0.842315 -0.070302 -0.534381 -0.853914 -0.00382558 -0.5204 -0.858016 0.162782 -0.487145 
-0.780321 0.366146 -0.506987 -0.6667 0.472065 -0.576772 -0.593783 0.635737 -0.493214 
0.705337 0.67496 -0.21663 0.441352 0.81647 -0.372271 -0.545131 -0.667293 -0.507496 
0.891907 -0.449455 0.0499135 0.945417 -0.305121 0.114402 0.952806 -0.296484 0.0652561 
0.816527 0.571646 -0.0806467 -0.185038 0.929232 -0.319827 0.400174 0.894986 -0.197132 
0.313482 -0.94698 -0.0704154 0.490215 -0.869819 0.0557141 -0.578785 -0.394666 -0.713615 
0.90919 -0.370095 0.190797 -0.568147 -0.228095 -0.790684 -0.614415 -0.156753 -0.773255 
-0.795298 -0.216262 -0.566332 -0.486855 0.812169 -0.321488 -0.2285 0.944546 -0.235842 
0.093914 0.969811 -0.225048 -0.100436 -0.951984 -0.289203 0.765214 -0.632369 0.120651 
0.920045 -0.288805 0.264782 0.979584 -0.178852 0.0917946 0.966172 0.252284 0.053521 
0.934647 0.353514 0.0382537 -0.832472 0.454825 -0.316425 -0.722859 0.574421 -0.384077 
-0.57355 0.765084 -0.292723 -0.383251 0.869154 -0.312553 0.663517 0.744275 -0.0761593 
-0.135705 0.987551 -0.0795472 0.168066 -0.983749 -0.0631788 -0.430442 -0.801389 -0.415324 
-0.574265 -0.621488 -0.53289 -0.72518 -0.21232 -0.655007 -0.630019 0.0369178 -0.775701 
0.91782 -0.35914 0.169187 -0.8761 -0.00180579 -0.482126 0.989474 -0.109527 0.0945818 
0.994185 0.0705106 0.0813875 0.838789 0.541914 0.0525555 -0.222304 -0.942165 -0.25081 
0.563273 -0.806981 0.177497 0.697447 -0.69408 0.178384 0.922019 -0.292656 0.253442 
-0.727299 -0.223052 -0.649064 -0.865894 0.303178 -0.397883 0.944302 0.307909 0.116131 
-0.509687 0.856032 -0.0861888 -0.283214 0.953793 -0.100345 0.0162021 0.999821 -0.00981671 
-0.148107 -0.975153 -0.164746 0.034013 -0.956882 0.288478 0.0202838 -0.999739 -0.01054 
-0.119977 -0.977377 0.174183 -0.0241605 -0.999624 0.0129599 0.785722 -0.557386 0.268256 
-0.612981 -0.526007 -0.589551 -0.687011 -0.329448 -0.647673 -0.730528 0.0695093 -0.679336 
-0.654763 -0.0379329 -0.754882 0.867741 0.466353 0.171874 -0.704623 0.697402 -0.13091 
0.697971 0.714085 0.0540284 0.508782 0.860725 0.0171531 -0.241011 0.965771 0.0959177 
0.298711 0.953721 0.0344733 0.247224 -0.963912 0.0987579 0.443533 -0.886616 0.131109 
-0.72166 -0.197116 -0.66359 -0.705724 0.0073473 -0.708449 -0.695906 -0.0253964 -0.717683 
0.942964 -0.229792 0.240864 0.97234 -0.10496 0.208657 0.0343642 0.992545 0.116936 
0 -0.970142 -0.242536 0 -1 0 -0.351123 -0.936329 0 
0.351123 -0.936329 0 -0.266568 -0.94476 -0.190707 0 1 0 
-0.45687 -0.81251 -0.362073 -0.612721 -0.617028 -0.493811 0.913934 -0.345411 0.213108 
0.968506 0.0962881 0.229619 -0.846531 0.479188 -0.231871 0.757714 0.613364 0.222834 
0.521338 0.829618 0.199853 -0.345285 0.933995 0.0918195 0.0227834 0.987271 0.157407 
0 -0.970142 0.242536 -0.496365 -0.774693 -0.391756 0.72605 -0.603844 0.328973 
-0.665129 -0.51729 -0.538531 0.89759 -0.312078 0.311351 -0.763276 -0.234248 -0.602111 
-0.874092 -0.0696779 -0.480737 -0.82341 0.0690173 -0.563234 -0.906964 0.319845 -0.274071 
-0.79296 0.578378 -0.191553 0.246765 0.937448 0.245555 -0.262957 -0.948528 -0.176486 
0.245807 -0.967413 0.0607532 0.57664 -0.789627 0.209704 -0.748788 -0.399167 -0.529134 
0.919239 -0.27272 0.283944 -0.857776 -0.108953 -0.502345 0.914 0.247696 0.321326 
0.843656 0.41681 0.338398 -0.814738 0.579512 0.0191662 -0.680407 0.725286 0.104909 
0.723234 0.582384 0.371163 -0.499122 0.857537 0.124529 -0.130609 0.97741 0.166165 
0.178833 0.966641 0.183368 0.0222392 -0.999684 -0.0116967 0.500342 -0.835349 0.227704 
-0.361347 -0.904049 -0.228308 -0.526382 -0.782999 -0.331415 -0.622741 -0.666322 -0.410132 
-0.851352 -0.141609 -0.50512 0.53993 0.752175 0.377766 -0.121623 0.918351 0.376615 
0.143082 0.929017 0.341256 -0.665437 -0.620575 -0.414826 0.895566 -0.272106 0.352022 
0.894051 -0.28444 0.346074 0.877124 -0.195866 0.438509 0.923916 -0.0969228 0.370115 
-0.939025 0.224848 -0.260146 0.579684 0.625406 0.522336 -0.265837 0.893538 0.361829 
-0.154176 0.869626 0.46902 0.304575 0.857884 0.413848 0.137781 0.904902 0.402703 
0.110925 0.864895 0.489542 -0.335318 -0.917551 -0.213686 -0.685024 -0.56201 -0.463559 
-0.813835 -0.315243 -0.488154 -0.927431 0.329966 -0.176052 0.887446 0.102701 0.449324 
0.734394 0.401308 0.547373 -0.448519 0.812428 0.372547 -0.107601 -0.993385 -0.0401099 
0.778873 -0.525865 0.341794 -0.829332 0.100656 -0.549615 0.890697 -0.276953 0.360494 
0.839365 -0.065309 0.53963 -0.896161 0.434733 -0.088899 -0.740559 0.667196 0.0801326 
0.524665 0.470321 0.709595 -0.277248 0.77236 0.571484 0.334332 0.714087 0.615063 
0.0582588 0.800786 0.596111 -0.619525 -0.671219 -0.407006 0.872218 -0.31671 0.372733 
-0.852764 -0.0139536 -0.52211 -0.885478 0.165444 -0.434232 0.743138 0.225381 0.630039 
-0.15741 0.768698 0.61994 0.351209 0.60787 0.712143 0.290707 0.4649 0.836276 
0.462799 0.441287 0.768819 0.128717 0.771388 0.623212 0.13956 -0.980072 0.141356 
0.813686 -0.519644 0.260548 0.872776 -0.179704 0.453838 -0.892422 0.253914 -0.372976 
0.782997 -0.0682305 0.618272 0.775517 0.0617975 0.628295 -0.721516 0.671712 0.167981 
0.651562 0.365483 0.664747 -0.571528 0.765554 0.295438 0.506544 0.417824 0.754212 
0.33529 0.523804 0.783077 -0.541678 0.762322 0.35419 0.0931477 0.681287 0.726066 
0.295223 -0.937387 0.184794 0.604257 -0.741185 0.292435 -0.552937 -0.765301 -0.329507 
-0.401638 -0.891015 -0.211609 -0.74816 -0.558392 -0.358405 -0.911385 -0.0812194 -0.403461 
0.521432 0.340003 0.782628 0.248123 0.514249 0.820965 -0.197394 0.775972 0.599085 
-0.0672483 0.67481 0.734921 0.372077 -0.895403 0.244567 0.731046 -0.523762 0.437315 
0.86772 -0.382132 0.317864 -0.885311 -0.382981 -0.263724 -0.895731 0.155934 -0.416355 
-0.932569 0.267217 -0.242713 0.623911 0.155359 0.765897 0.610297 0.211572 0.763397 
0.509512 -0.810808 0.288074 -0.719058 -0.655367 -0.23119 0.822067 -0.390855 0.41405 
-0.860612 0.507999 -0.0358454 -0.543143 0.750262 0.376964 -0.251961 0.752901 0.607993 
-0.0913503 -0.995714 0.0144639 -0.215736 -0.973951 -0.0698374 0.824313 -0.271695 0.496679 
0.79608 -0.0344671 0.60421 0.783162 -0.0353367 0.620813 -0.893335 0.433032 -0.120148 
-0.887019 0.461004 0.0259248 -0.464188 0.719056 0.517192 0.263109 -0.940101 0.216758 
0.617312 -0.757684 0.211755 0.715177 -0.650625 0.255362 0.425035 -0.82517 0.372075 
-0.281664 -0.95943 -0.0126544 -0.556429 -0.820972 -0.128034 -0.968017 0.130986 -0.213975 
-0.794041 0.570158 0.210759 0.436715 0.296157 0.849454 0.387934 0.330704 0.860315 
-0.00703718 0.630024 0.776544 0.161596 -0.962098 0.219669 0.59204 -0.697107 0.404389 
0.625264 -0.600878 0.497987 0.782632 -0.34844 0.515826 -0.965829 -0.00966299 -0.259001 
0.843985 -0.185074 0.503425 0.180536 0.464976 0.86672 -0.173585 0.655028 0.735396 
0.0324906 -0.9517 0.305305 0.745645 -0.449569 0.491835 -0.706928 -0.702904 -0.0786103 
-0.927694 0.209312 -0.309149 -0.952786 0.250502 -0.171602 -0.970342 0.220833 -0.0983302 
-0.938171 0.341841 -0.0545874 -0.901628 0.432509 -0.00145991 0.608374 0.15966 0.777425 
-0.7208 0.61674 0.316353 -0.502956 0.726555 0.468138 -0.199441 0.760016 0.618545 
0.489343 -0.725605 0.483778 -0.452414 -0.891632 -0.0177002 0.73063 -0.117699 0.672552 
0.68592 0.0344912 0.726859 0.617465 0.0922294 0.781172 0.39534 0.36229 0.844069 
-0.290415 0.759675 0.581853 0.066811 -0.939236 0.336707 -0.547183 -0.836654 0.0245125 
0.626604 -0.484931 0.610089 -0.964253 -0.241705 -0.108608 0.695389 -0.0221449 0.718292 
0.466579 0.236551 0.85226 -0.716741 0.627519 0.304141 0.02243 0.615593 0.787745 
-0.0393784 -0.97079 0.236678 0.277808 -0.846598 0.453976 0.543926 -0.556323 0.628211 
-0.695833 -0.717194 0.0380675 -0.830119 -0.557582 -0.00218847 0.686748 -0.314909 0.655141 
0.710297 -0.247227 0.659058 0.713683 -0.172402 0.678921 -0.825287 0.518161 0.224521 
-0.0630087 0.624144 0.778765 -0.0320235 -0.957952 0.285135 -0.365956 -0.918459 0.150032 
-0.405347 -0.899043 0.165579 -0.271494 -0.957604 0.0963653 0.156043 -0.89398 0.420061 
-0.464701 -0.864717 0.19057 -0.529194 -0.814214 0.238765 -0.984293 -0.145542 -0.0999206 
-0.971264 0.197734 -0.13247 0.565342 -0.0215056 0.824576 0.513853 0.0946535 0.85264 
-0.931931 0.342129 0.12022 -0.893774 0.393657 0.214946 0.368259 0.2052 0.906796 
0.291396 0.291379 0.911146 -0.297508 0.688376 0.661535 0.18009 0.409463 0.894376 
-0.240603 -0.928039 0.284349 -0.0174769 -0.92908 0.369466 0.279772 -0.765824 0.579 
0.460214 -0.634242 0.621241 -0.967189 0.22421 -0.11948 0.677704 -0.174788 0.714259 
-0.859425 0.441579 0.257678 -0.29173 0.658637 0.693607 0.185551 -0.832967 0.521285 
0.568123 -0.306039 0.763921 0.572918 -0.168638 0.802076 -0.967057 0.183313 0.176626 
-0.924539 0.312886 0.217556 0.318127 0.292272 0.901871 -0.736486 0.53297 0.416571 
0.072664 0.506043 0.859442 -0.175229 -0.857968 0.482893 0.49943 -0.469934 0.727827 
-0.469139 -0.815749 0.338323 -0.71833 -0.644608 0.26169 -0.915563 -0.360498 0.178283 
-0.971609 -0.134668 0.194524 0.484825 -0.00394084 0.874602 -0.935039 0.343282 0.0886554 
-0.808882 0.397262 0.433467 -0.537132 0.60514 0.587618 -0.121914 0.631144 0.766025 
0.121646 -0.761447 0.63671 -0.349054 -0.816134 0.460529 0.358855 -0.565112 0.742881 
0.487305 -0.292341 0.822843 -0.842524 0.374963 0.386725 -0.852324 0.430718 0.296692 
-0.691054 0.449336 0.566164 -0.0844613 -0.741425 0.665699 -0.80633 -0.481491 0.343509 
-0.887944 -0.0932858 0.450393 0.426201 -0.0899967 0.900141 -0.922318 0.337497 0.188213 
-0.849966 0.384776 0.359869 0.390112 0.0603936 0.918785 0.34808 0.170188 0.921887 
-0.498196 0.377365 0.780639 0.0877245 0.47528 0.87545 -0.189961 0.536945 0.821952 
-0.206327 -0.621244 0.755966 0.141153 -0.572967 0.807332 -0.28657 -0.6311 0.720826 
0.330885 -0.304714 0.893121 -0.588224 -0.569382 0.574279 -0.6163 -0.384858 0.687065 
-0.764858 -0.369034 0.528021 -0.758486 -0.266648 0.594641 -0.875616 -0.00825532 0.482938 
-0.842112 0.103628 0.529253 -0.815159 0.311755 0.488185 -0.724961 0.379037 0.57512 
-0.657696 0.363732 0.659648 -0.27286 0.339952 0.899989 -0.401559 0.476336 0.782211 
-0.130538 0.425681 0.895408 0.090657 -0.502637 0.859731 0.0401796 -0.458471 0.887801 
0.245155 -0.336394 0.909251 0.249164 -0.157256 0.955609 -0.70712 -0.0240773 0.706684 
0.187782 0.0484248 0.981016 0.29735 0.0524853 0.953325 -0.709971 0.225524 0.667143 
-0.748089 0.372309 0.549316 0.0107344 0.21238 0.977128 -0.574754 0.382389 0.723489 
-0.232795 0.253647 0.938866 0.188034 0.17591 0.966281 0.0430669 0.275686 0.960283 
-0.345234 -0.420804 0.83889 -0.0651172 -0.417592 0.906298 -0.143339 -0.361778 0.921179 
0.0246101 -0.202457 0.978982 -0.338801 -0.233427 0.911441 0.204576 -0.0797554 0.975596 
-0.514556 -0.0722232 0.85441 -0.483701 0.0493282 0.873842 -0.395674 0.167931 0.902907 
-0.648685 0.351511 0.675017 -0.4243 0.309828 0.850868 -0.157385 0.246098 0.956381 
-0.0244325 -0.149028 0.988531 -0.122277 0.0132207 0.992408 0.107845 -0.149062 -0.982929 
-0.183378 -0.0535866 -0.981581 -0.259332 0.072265 -0.963081 0.00069504 0.0911004 -0.995842 
-0.145025 -0.434504 -0.888917 0.0490284 -0.435834 -0.898691 -0.31139 -0.527856 -0.790192 
0.188096 -0.182569 -0.965033 -0.280051 -0.356699 -0.891256 -0.498907 -0.311954 -0.808564 
-0.578489 -0.184963 -0.794443 -0.422707 -0.119106 -0.898406 -0.534611 0.0106462 -0.845031 
0.243765 0.0353913 -0.969188 -0.593703 0.0970559 -0.79881 -0.411288 0.166093 -0.896245 
-0.288022 0.200453 -0.936409 0.0175678 0.149543 -0.988599 -0.594609 0.241824 -0.766787 
-0.412144 0.222168 -0.883617 -0.242222 0.257629 -0.935391 -0.15759 -0.639287 -0.752647 
0.0752141 -0.563669 -0.822569 0.302745 -0.294766 -0.906343 -0.764344 -0.208017 -0.610334 
-0.698679 -0.1613 -0.697015 -0.798 -0.0453362 -0.60095 -0.856098 0.0891295 -0.50907 
-0.791569 0.204986 -0.575673 -0.595699 0.211929 -0.774744 0.293961 0.0822319 -0.952273 
-0.808539 0.331085 -0.486463 -0.718677 0.314355 -0.62023 0.0500418 0.185332 -0.981401 
-0.656883 0.388803 -0.646017 -0.570689 0.383528 -0.726099 -0.247429 0.231884 -0.940749 
0.161696 0.175124 -0.971178 -0.155517 0.29541 -0.942628 0.112082 0.208967 -0.971478 
-0.262182 -0.77787 -0.571121 0.135824 -0.519812 -0.843414 0.390015 -0.411542 -0.823724 
-0.57434 -0.541618 -0.613826 -0.515562 -0.611418 -0.600303 -0.638335 -0.461472 -0.616094 