# vtk DataFile Version 4.2
vtk output
ASCII
DATASET POLYDATA
POINTS 1566 float
387.965 67.0307 96.5649 389.503 66.9411 97.083 386.557 67.2863 96.7303 
386.413 67.4471 96.8353 387.003 66.955 96.6721 386.581 67.5183 96.7047 
386.833 67.7451 96.6357 386.554 66.8314 96.9891 386.271 68.3959 97.0204 
387.064 68.236 96.6395 388.459 68.2567 96.7923 386.468 68.8099 96.9466 
387.317 68.7013 96.7262 386.092 69.4475 97.3911 387.048 69.2639 96.9218 
388.748 66.0436 97.301 387.092 66.3211 97.0787 388.851 68.9199 97.1194 
389.499 68.9649 97.4839 385.498 70.051 98.3616 386.056 70.8225 98.0428 
386.883 70.8514 97.8485 386.036 71.2322 98.2873 388.627 65.5012 97.6914 
391 67.1203 98.375 390.685 68.3579 98.1666 385.21 69.94 98.8441 
385.212 71.2417 99.158 385.744 71.4574 98.6361 385.417 71.6241 99.0139 
391.199 66.2192 98.9701 391.643 66.8557 99.1738 387.167 71.8634 98.5368 
386.634 72.0462 98.7066 385.094 71.7808 99.7024 385.847 72.1786 99.0639 
385.304 72.0961 99.4066 385.476 72.2382 99.3791 390.898 65.3344 99.3316 
390.955 69.1348 98.7211 389.153 71.1832 98.6905 385.674 72.8706 100.407 
385.303 72.3472 99.746 392.684 66.1832 100.721 386.379 74.8123 101.839 
386.295 75.0873 102.265 389.4 62.7396 101.95 386.916 63.822 101.292 
386.088 64.5575 101.452 392.874 64.7679 101.957 393.668 67.2561 101.429 
393.12 68.9941 100.965 387.395 74.7999 101.388 386.64 75.4644 102.358 
386.57 63.2398 102.764 387.6 63.1393 101.841 384.964 72.8743 103.203 
385.438 75.193 104.197 386.175 76.389 103.953 392.393 63.123 103.268 
387.281 76.2 102.792 387.859 76.8807 103.324 386.475 76.8637 104.083 
387.603 77.1551 103.653 386.072 62.6475 104.547 384.451 67.758 104.308 
396.63 70.3739 105.141 389.26 76.4082 103.079 388.849 78.1745 104.465 
390.38 60.8484 105.203 386.264 62.1707 104.948 396.321 74.0443 106.047 
393.624 75.7102 104.868 386.77 79.3462 106.041 389.182 60.1757 106.131 
387.14 60.7786 106.012 390.576 79.8185 106.221 390.109 59.925 106.688 
390.988 60.0091 106.962 391.925 60.4598 107.008 397.991 70.6632 107.312 
389.572 58.7413 108.618 386.298 59.9448 108.095 398.829 71.6116 109.107 
387.681 82.4592 107.848 389.347 83.1016 108.207 387.012 83.44 109.055 
386.339 83.5699 109.986 386.926 84.0216 109.614 387.794 84.0277 109.034 
386.929 58.4546 109.556 387.675 57.9866 109.825 385.682 60.0159 109.08 
387.287 84.3656 109.594 387.286 85.395 110.525 385.445 57.9093 111.713 
386.308 57.5476 111.139 386.693 57.1518 111.342 386.15 58.2733 110.502 
397.176 78.1025 109.912 388.332 86.7701 110.884 388.02 87.3958 111.393 
385.311 58.5341 111.326 396.85 79.5146 110.702 385.312 82.0219 112.035 
387.722 87.8403 111.861 389.089 88.4584 111.77 389.663 88.7049 111.933 
387.303 87.9968 112.361 388.26 88.9881 112.223 387.696 89.2604 112.714 
399.368 70.0014 112.314 397.646 79.5934 112.574 387.401 90.0932 113.537 
386.894 55.4136 113.441 399.732 74.5836 113.207 399.373 76.0132 112.878 
396.373 82.6681 113.44 386.654 91.1038 115.295 384.126 60.8154 113.053 
399.854 72.9729 113.976 397.984 79.5838 113.851 386.746 92.7314 116.208 
388.366 93.3527 114.737 387.258 93.6343 115.929 384.205 53.3997 116.658 
384.196 53.6358 116.486 384.349 53.2937 116.607 385.494 53.1258 116.273 
385.387 53.356 116.009 385.103 53.5294 115.945 387.373 54.223 115.106 
399.814 73.4543 114.298 396.327 83.5672 114.724 392.209 90.7663 115.042 
388.997 94.8471 115.581 388.575 95.7348 116.287 388.044 96.1147 116.925 
382 50.6564 116.669 382 50.6563 116.669 382 50.6564 116.669 
382 50.6563 116.669 382 50.6564 116.669 383.998 53.4966 116.932 
384.498 53.0756 116.768 384.757 53.1406 116.524 383.75 54.7044 116.548 
398.634 66.6477 115.605 399.61 70.7377 115.209 389.906 95.454 116.239 
390.318 95.1835 116.364 387.261 95.1897 117.639 389.408 95.8864 116.338 
389.289 96.5439 116.739 388.597 97.5669 117.387 382 50.6563 116.669 
382 50.6563 116.67 382 50.6563 116.67 382 50.6563 116.67 
382 50.6564 116.67 382 50.6564 116.67 384.788 52.4586 117.478 
382 50.6564 116.67 384.014 53.0197 117.415 383.383 55.0195 117.312 
393.283 89.9666 117.236 386.593 93.4039 117.735 389.915 96.3151 116.928 
388.334 99.1286 118.329 388.715 99.11 118.159 381 49.0087 118.017 
381 49.0087 118.017 381 49.0087 118.017 381 49.0087 118.017 
381 49.0088 118.017 382 50.6563 116.67 382 50.6564 116.67 
383.427 52.416 118.751 384.488 52.1827 118.015 383.034 55.8578 118.263 
399.179 69.7673 116.981 396.982 81.7105 117.102 395.079 86.1139 117.163 
390.98 95.4862 118.153 389.753 97.9065 118.293 389.223 99.0289 118.36 
388.868 99.5022 118.461 389.012 99.4441 118.508 389.135 99.264 118.473 
381.924 49.1457 121.692 381.837 49.1885 121.752 381 49.0087 118.018 
381.974 49.2739 121.617 384.447 50.2743 120.403 382.896 52.3846 119.516 
386.278 51.3505 119.467 389.71 53.0955 119.253 382.578 55.4862 119.696 
397.292 78.2688 118.968 392.879 90.7324 118.938 391.553 93.9438 119.047 
390.319 96.7184 118.812 389.479 98.6089 118.605 389.212 99.0873 118.914 
389.078 99.3915 118.64 388.914 99.6274 118.777 388.769 99.7971 118.778 
388.175 100.091 119.092 388.208 100.353 119.09 388.26 100.381 119.006 
388.221 100.412 119.049 381.704 48.6488 122.25 381.585 49.1404 122.045 
382.247 49.5105 121.425 383.253 49.8023 120.938 398.229 69.7364 119.689 
384.569 71.4645 119.507 395.241 82.8109 119.914 390.946 94.6017 119.705 
389.893 97.0522 119.547 389.792 97.4483 119.389 389.219 98.6857 119.284 
388.776 99.728 118.977 388.495 100.027 119.163 388.223 100.222 119.168 
388.292 100.352 119.108 388.239 100.371 119.124 388.253 100.406 119.068 
381.039 47.8808 122.972 380.928 47.7352 123.137 380.909 47.8299 123.052 
381.282 48.1537 122.748 381.943 48.1256 122.646 383.231 49.2207 121.554 
386.864 50.6125 121.653 389.747 96.8265 119.85 388.877 97.8084 120.019 
389.184 98.1344 119.671 388.211 98.4228 119.707 388.363 99.8176 119.36 
377.756 44.917 125.222 377.755 44.8787 125.269 377.635 44.8252 125.325 
377.873 44.9993 125.2 377.798 45.0273 125.23 378.606 45.8096 124.844 
378.767 46.0429 124.732 378.986 45.9436 124.763 379.062 46.2706 124.563 
380.793 47.4822 123.496 380.33 47.5953 123.641 381.397 47.6011 123.346 
382.454 48.08 122.805 383.332 48.4735 122.57 383.004 48.3728 122.542 
386.499 89.84 121.6 389.816 94.9736 120.775 388.723 96.1468 120.742 
388.216 96.8008 120.341 388.516 97.2332 120.287 388.331 99.6449 119.43 
377.428 44.6587 125.526 377.235 44.6085 125.68 378.184 45.271 125.132 
378.102 45.4246 125.122 378.495 45.5967 124.942 378.422 45.8908 125.024 
380.012 46.8686 124.185 379.986 48.0863 123.834 384.701 48.751 123.439 
396.424 63.4771 121.416 396.623 65.5902 122.136 384.383 69.7731 121.927 
388.534 93.7155 121.868 388.775 94.5166 121.457 388.414 96.8681 120.42 
377.035 44.2927 126.115 376.856 44.4037 126.111 377.553 44.5267 126.004 
378.582 45.5181 125.367 377.877 45.6225 125.548 379.668 46.0431 125.358 
378.818 47.1698 125.149 382.45 47.4926 124.161 390.642 53.0376 123.417 
395.785 67.3866 123.682 384.206 68.906 123.678 386.036 82.7427 123.325 
389.926 88.3246 123.473 388.447 92.2568 122.615 388.536 91.8756 122.771 
387.766 92.0652 122.371 387.987 92.5296 122.32 388.172 93.2346 122.011 
388.956 92.7934 122.285 371.955 40.1724 129.035 371.95 40.1858 129.086 
371.966 40.1962 129.061 371.955 40.1871 129.088 371.971 40.1976 129.063 
373.391 41.5024 128.123 373.405 41.5134 128.109 373.436 41.5468 128.131 
374.129 42.1549 127.919 374.102 42.1312 127.949 374.118 42.1632 127.942 
374.152 42.1694 127.956 376.446 43.7463 126.865 374.169 42.2014 127.949 
376.071 43.717 126.963 378.576 45.7581 125.634 378.358 45.3234 126.034 
378.253 45.8246 125.768 378.555 46.2611 125.396 378.531 46.3698 125.749 
379.145 45.8868 125.825 391.401 53.9373 124.231 392.498 55.6615 124.346 
392.625 56.0434 124.788 384.649 71.9599 124.071 385.688 78.9797 124.193 
392.045 78.4647 124.96 390.591 82.138 124.821 387.947 91.7299 122.69 
371.922 40.2003 129.236 372.002 40.2502 129.11 373.37 41.4945 128.206 
373.472 41.6015 128.168 373.47 41.6649 128.286 373.519 41.6262 128.223 
373.562 41.6971 128.195 374.052 42.1128 128.012 374.304 42.3026 128.042 
376.126 43.5704 127.111 374.171 42.2707 128.026 375.634 43.3861 127.408 
375.356 43.5264 127.49 375.551 44.0161 127.374 378.1 44.7996 126.441 
378.702 45.6862 126.191 379.081 45.2451 127.009 377.571 46.3908 126.398 
378.088 46.1634 126.057 377.97 46.9036 126.192 393.021 70.6917 126.161 
390.686 79.1007 125.66 386.525 81.5911 124.77 388.541 84.5578 125.089 
387.973 84.7147 125.008 388.426 85.3126 124.883 387.961 86.3056 124.558 
388.33 85.8411 124.77 387.359 86.8801 124.031 387.547 87.3866 124.215 
387.731 87.1927 124.411 387.493 88.118 123.932 388.015 88.9285 123.774 
388.154 91.3167 122.908 371.886 40.2077 129.435 371.788 40.1942 129.616 
372.113 40.4051 129.196 373.323 41.4681 128.334 372.3 40.6222 129.208 
373.224 41.4097 128.595 373.198 41.5228 128.639 373.579 41.6454 128.587 
373.813 41.9425 128.224 374.692 42.5029 128.198 374.037 42.3887 128.276 
374.75 42.8596 127.926 375.312 42.9338 127.94 377.132 47.0379 127.087 
392.55 56.9435 126.583 393.474 59.0811 125.891 383.867 67.6324 126.19 
384.733 71.8894 125.507 386.066 77.9261 125.638 389.442 79.9221 126.062 
388.256 81.569 125.873 388.996 82.4758 125.486 388.466 83.2881 125.39 
387.99 83.9041 125.193 388.265 83.876 125.295 387.613 87.4229 124.384 
387.601 87.5092 124.406 387.571 87.5216 124.356 387.68 87.5078 124.39 
387.563 87.7043 124.26 387.717 88.229 124.033 371.244 39.7284 130.292 
371.145 39.6409 130.373 371.416 39.8889 130.091 371.155 39.7463 130.428 
371.756 40.1504 129.807 372.685 41.0245 129.101 376.093 43.2441 127.802 
392.746 60.251 127.711 385.297 72.5588 127.281 389.938 72.2817 127.997 
386.407 77.7962 126.252 386.692 78.6308 126.223 387.55 80.2367 126.235 
387.396 81.4234 125.721 386.004 84.0131 128.009 386.004 84.0132 128.009 
386.004 84.0132 128.009 386.004 84.0131 128.009 388.308 84.0587 125.274 
[...]
POINT_DATA 1566
SCALARS scalars float
LOOKUP_TABLE default
1 1 1 1 1 1 1 1 1 
1 1 1 1 1 1 1 1 1 
1 1 1 1 1 1 1 1 1 
1 1 1 1 1 1 1 1 1 
1 1 1 1 1 1 1 1 1 
1 1 1 1 1 1 1 1 1 
1 1 1 1 1 1 1 1 1 
1 1 1 1 1 1 1 1 1 
1 1 1 1 1 1 1 1 1 
1 1 1 1 1 1 1 1 1 
1 1 1 1 1 1 1 1 1 
1 1 1 1 1 1 1 1 1 
1 1 1 1 1 1 1 1 1 
1 1 1 1 1 1 1 1 1 
1 1 1 1 1 1 1 1 1 
1 1 1 1 1 1 1 1 1 
1 1 1 1 1 1 1 1 1 
1 1 1 1 1 1 1 1 1 
1 1 1 1 1 1 1 1 1 
1 1 1 1 1 1 1 1 1 
1 1 1 1 1 1 1 1 1 
1 1 1 1 1 1 1 1 1 
1 1 1 1 1 1 1 1 1 
1 1 1 1 1 1 1 1 1 
1 1 1 1 1 1 1 1 1 
1 1 1 1 1 1 1 1 1 
1 1 1 1 1 1 1 1 1 
1 1 1 1 1 1 1 1 1 
1 1 1 1 1 1 1 1 1 
1 1 1 1 1 1 1 1 1 
1 1 1 1 1 1 1 1 1 
1 1 1 1 1 1 1 1 1 
1 1 1 1 1 1 1 1 1 
1 1 1 1 1 1 1 1 1 
1 1 1 1 1 1 1 1 1 
1 1 1 1 1 1 1 1 1 
1 1 1 1 1 1 1 1 1 
1 1 1 1 1 1 1 1 1 
1 1 1 1 1 1 1 1 1 
1 1 1 1 1 1 1 1 1 
1 1 1 1 1 1 1 1 1 
1 1 1 1 1 1 1 1 1 
1 1 1 1 1 1 1 1 1 
1 1 1 1 1 1 1 1 1 
1 1 1 1 1 1 1 1 1 
1 1 1 1 1 1 1 1 1 
1 1 1 1 1 1 1 1 1 
1 1 1 1 1 1 1 1 1 
1 1 1 1 1 1 1 1 1 
1 1 1 1 1 1 1 1 1 
1 1 1 1 1 1 1 1 1 
1 1 1 1 1 1 1 1 1 
1 1 1 1 1 1 1 1 1 
1 1 1 1 1 1 1 1 1 
1 1 1 1 1 1 1 1 1 
1 1 1 1 1 1 1 1 1 
1 1 1 1 1 1 1 1 1 
1 1 1 1 1 1 1 1 1 
1 1 1 1 1 1 1 1 1 
1 1 1 1 1 1 1 1 1 
1 1 1 1 1 1 1 1 1 
1 1 1 1 1 1 1 1 1 
1 1 1 1 1 1 1 1 1 
1 1 1 1 1 1 1 1 1 
1 1 1 1 1 1 1 1 1 
1 1 1 1 1 1 1 1 1 
1 1 1 1 1 1 1 1 1 
1 1 1 1 1 1 1 1 1 
1 1 1 1 1 1 1 1 1 
1 1 1 1 1 1 1 1 1 
1 1 1 1 1 1 1 1 1 
1 1 1 1 1 1 1 1 1 
1 1 1 1 1 1 1 1 1 
1 1 1 1 1 1 1 1 1 
1 1 1 1 1 1 1 1 1 
1 1 1 1 1 1 1 1 1 
1 1 1 1 1 1 1 1 1 
1 1 1 1 1 1 1 1 1 
1 1 1 1 1 1 1 1 1 
1 1 1 1 1 1 1 1 1 
1 1 1 1 1 1 1 1 1 
1 1 1 1 1 1 1 1 1 
1 1 1 1 1 1 1 1 1 
1 1 1 1 1 1 1 1 1 
1 1 1 1 1 1 1 1 1 
1 1 1 1 1 1 1 1 1 
1 1 1 1 1 1 1 1 1 
1 1 1 1 1 1 1 1 1 
1 1 1 1 1 1 1 1 1 
1 1 1 1 1 1 1 1 1 
1 1 1 1 1 1 1 1 1 
1 1 1 1 1 1 1 1 1 
1 1 1 1 1 1 1 1 1 
1 1 1 1 1 1 1 1 1 
1 1 1 1 1 1 1 1 1 
1 1 1 1 1 1 1 1 1 
1 1 1 1 1 1 1 1 1 
1 1 1 1 1 1 1 1 1 
1 1 1 1 1 1 1 1 1 
1 1 1 1 1 1 1 1 1 
1 1 1 1 1 1 1 1 1 
1 1 1 1 1 1 1 1 1 
1 1 1 1 1 1 1 1 1 
1 1 1 1 1 1 1 1 1 
1 1 1 1 1 1 1 1 1 
1 1 1 1 1 1 1 1 1 
1 1 1 1 1 1 1 1 1 
1 1 1 1 1 1 1 1 1 
1 1 1 1 1 1 1 1 1 
1 1 1 1 1 1 1 1 1 
1 1 1 1 1 1 1 1 1 
1 1 1 1 1 1 1 1 1 
1 1 1 1 1 1 1 1 1 
1 1 1 1 1 1 1 1 1 
1 1 1 1 1 1 1 1 1 
1 1 1 1 1 1 1 1 1 
1 1 1 1 1 1 1 1 1 
1 1 1 1 1 1 1 1 1 
1 1 1 1 1 1 1 1 1 
1 1 1 1 1 1 1 1 1 
1 1 1 1 1 1 1 1 1 
1 1 1 1 1 1 1 1 1 
1 1 1 1 1 1 1 1 1 
1 1 1 1 1 1 1 1 1 
1 1 1 1 1 1 1 1 1 
1 1 1 1 1 1 1 1 1 
1 1 1 1 1 1 1 1 1 
1 1 1 1 1 1 1 1 1 
1 1 1 1 1 1 1 1 1 
1 1 1 1 1 1 1 1 1 
1 1 1 1 1 1 1 1 1 
1 1 1 1 1 1 1 1 1 
1 1 1 1 1 1 1 1 1 
1 1 1 1 1 1 1 1 1 
1 1 1 1 1 1 1 1 1 
1 1 1 1 1 1 1 1 1 
1 1 1 1 1 1 1 1 1 
1 1 1 1 1 1 1 1 1 
1 1 1 1 1 1 1 1 1 
1 1 1 1 1 1 1 1 1 
1 1 1 1 1 1 1 1 1 
1 1 1 1 1 1 1 1 1 
1 1 1 1 1 1 1 1 1 
1 1 1 1 1 1 1 1 1 
1 1 1 1 1 1 1 1 1 
1 1 1 1 1 1 1 1 1 
1 1 1 1 1 1 1 1 1 
1 1 1 1 1 1 1 1 1 
1 1 1 1 1 1 1 1 1 
1 1 1 1 1 1 1 1 1 
1 1 1 1 1 1 1 1 1 
1 1 1 1 1 1 1 1 1 
1 1 1 1 1 1 1 1 1 
1 1 1 1 1 1 1 1 1 
1 1 1 1 1 1 1 1 1 
1 1 1 1 1 1 1 1 1 
1 1 1 1 1 1 1 1 1 
1 1 1 1 1 1 1 1 1 
1 1 1 1 1 1 1 1 1 
1 1 1 1 1 1 1 1 1 
1 1 1 1 1 1 1 1 1 
1 1 1 1 1 1 1 1 1 
1 1 1 1 1 1 1 1 1 
1 1 1 1 1 1 1 1 1 
1 1 1 1 1 1 1 1 1 
1 1 1 1 1 1 1 1 1 
1 1 1 1 1 1 1 1 1 
1 1 1 1 1 1 1 1 1 
1 1 1 1 1 1 1 1 1 
1 1 1 1 1 1 1 1 1 
1 1 1 1 1 1 1 1 1 
1 1 1 1 1 1 1 1 1 
1 1 1 1 1 1 1 1 1 
1 1 1 1 1 1 1 1 1 

NORMALS Normals float
0.0562551 -0.162142 -0.985163 0.493746 -0.271657 -0.826086 -0.396094 -0.171667 -0.90202 
-0.804735 -0.010385 -0.593544 -0.192969 -0.440503 -0.876767 -0.523283 0.160716 -0.836866 
-0.335813 0.11816 -0.934488 -0.71782 -0.450301 -0.531003 -0.698978 0.0580084 -0.712786 
-0.199996 0.139675 -0.96979 0.402266 0.152304 -0.902765 -0.352102 0.289212 -0.890157 
0.0872502 0.30984 -0.946777 -0.783211 0.0835082 -0.616122 -0.046593 0.414812 -0.908713 
0.268596 -0.546347 -0.793323 -0.383856 -0.68544 -0.61873 0.300249 0.409163 -0.861648 
0.455516 0.367717 -0.810734 -0.838701 -0.164632 -0.519112 -0.482774 0.418974 -0.769019 
0.0840936 0.528581 -0.844707 -0.341088 0.524614 -0.780025 0.193672 -0.692054 -0.695379 
0.617882 -0.205448 -0.758955 0.641184 0.186336 -0.74442 -0.880279 -0.0758099 -0.468362 
-0.913762 0.0996475 -0.39384 -0.546653 0.412469 -0.728725 -0.722934 0.313882 -0.615504 
0.648162 -0.405088 -0.644817 0.777121 -0.179932 -0.603081 0.0726418 0.715648 -0.694674 
-0.0857687 0.77885 -0.621318 -0.945584 0.186253 -0.266796 -0.378724 0.660961 -0.647841 
-0.713795 0.441663 -0.543536 -0.325112 0.828479 -0.455987 0.579256 -0.513849 -0.632789 
0.609762 0.396819 -0.686094 0.426264 0.590269 -0.685479 -0.49797 0.735308 -0.459726 
-0.735283 0.601635 -0.312081 0.645861 -0.354504 -0.676158 -0.656611 0.549146 -0.517011 
-0.708423 0.577472 -0.405787 0.013875 -0.822643 -0.568388 -0.401904 -0.78787 -0.466619 
-0.743889 -0.598198 -0.297975 0.704939 -0.498531 -0.504507 0.833012 -0.220065 -0.507605 
0.70784 0.189039 -0.680608 -0.0530135 0.669201 -0.741188 -0.492326 0.696565 -0.521931 
-0.730883 -0.586797 -0.348539 -0.429135 -0.77722 -0.460187 -0.9523 0.278295 -0.125206 
-0.888991 0.36591 -0.275327 -0.712993 0.57095 -0.40701 0.726041 -0.57697 -0.374125 
-0.33811 0.693943 -0.635708 0.0248424 0.713715 -0.699996 -0.637414 0.589251 -0.496474 
-0.218946 0.709489 -0.669842 -0.683235 -0.61433 -0.3947 -0.963878 -0.202332 -0.173207 
0.74097 0.13346 -0.658142 0.180252 0.643093 -0.744272 0.186801 0.680343 -0.708688 
0.171322 -0.816771 -0.550938 -0.76013 -0.535701 -0.367733 0.743925 0.296504 -0.598883 
0.491135 0.486696 -0.722436 -0.681898 0.511371 -0.522987 0.0153971 -0.799221 -0.600841 
-0.317576 -0.766885 -0.557703 0.149129 0.635156 -0.757851 0.112302 -0.818163 -0.563913 
0.301111 -0.808257 -0.506016 0.381423 -0.813708 -0.438629 0.888314 0.00830073 -0.459162 
0.109051 -0.846809 -0.520598 -0.757932 -0.417292 -0.501404 0.962287 -0.037001 -0.269509 
-0.450295 0.553562 -0.700574 0.240895 0.560806 -0.792128 -0.497511 0.483738 -0.720056 
-0.775203 0.460754 -0.432164 -0.599461 0.566664 -0.565276 -0.350145 0.517109 -0.781023 
-0.388244 -0.739279 -0.550211 -0.221735 -0.788961 -0.57304 -0.84201 -0.221512 -0.491885 
-0.479774 0.581981 -0.656593 -0.69534 0.484116 -0.531163 -0.540224 -0.625647 -0.562783 
-0.549997 -0.631509 -0.546533 -0.333897 -0.758357 -0.559828 -0.508778 -0.620615 -0.596642 
0.699506 0.441701 -0.561775 -0.39627 0.480716 -0.782229 -0.382198 0.36435 -0.84922 
-0.747944 -0.413396 -0.51931 0.5652 0.684743 -0.460083 -0.983042 0.170138 -0.0684237 
-0.477998 0.434651 -0.76328 -0.0958176 0.446353 -0.889712 0.0431223 0.510796 -0.85862 
-0.635419 0.374141 -0.675471 -0.34407 0.497336 -0.796413 -0.641307 0.389405 -0.661127 
0.950568 -0.274776 -0.144632 0.684137 0.686436 -0.246499 -0.652224 0.410249 -0.637417 
-0.26337 -0.726576 -0.634605 0.929982 0.275601 -0.243263 0.940422 0.294264 -0.170336 
0.724818 0.530519 -0.439532 -0.875977 0.271309 -0.398819 -0.977262 -0.00619849 -0.211943 
0.995757 0.0158784 -0.0906364 0.845301 0.509064 -0.162234 -0.843989 0.291599 -0.45017 
-0.486978 0.449747 -0.748719 -0.802271 0.367019 -0.470806 -0.688077 -0.575531 -0.441944 
-0.688253 -0.434515 -0.580951 -0.463859 -0.59643 -0.655062 -0.149497 -0.782259 -0.604748 
-0.160457 -0.704153 -0.691681 -0.297662 -0.662464 -0.687414 0.122557 -0.793433 -0.596191 
0.980254 0.141417 0.138218 0.84882 0.500567 -0.17011 0.729437 0.487783 -0.479573 
0.065819 0.489636 -0.869439 -0.290465 0.532053 -0.79533 -0.57881 0.473897 -0.663627 
-0.0412998 0.000594286 -0.999147 -0.0356716 -0.688764 -0.724108 -0.304386 -0.76619 -0.565952 
0.329631 0.817052 -0.473043 -0.0204142 0.948223 -0.316949 -0.817218 -0.411407 -0.403607 
-0.476251 -0.746396 -0.464841 -0.299209 -0.684547 -0.664732 -0.904742 -0.225405 -0.361434 
0.934197 -0.349649 0.0708679 0.994595 -0.0453319 0.0934098 0.457665 0.537491 -0.70827 
0.604747 0.507052 -0.614149 -0.891544 0.347762 -0.290189 0.279211 0.598842 -0.750619 
0.00708311 0.537689 -0.843114 -0.478978 0.424164 -0.768547 0.599963 -0.632186 -0.490291 
0.559651 -0.644346 0.521161 -0.146543 -0.988647 0.0332052 0.557668 0.780843 0.281585 
-0.300718 -0.848122 0.436186 0.154723 0.971104 0.181706 -0.250939 -0.81204 -0.526897 
-0.350069 0.893435 0.281471 -0.68693 -0.536202 -0.490524 -0.928699 -0.133862 -0.345832 
0.853006 0.50642 -0.126175 -0.962545 0.254762 -0.0927605 0.598132 0.503946 -0.623118 
-0.633779 0.341243 -0.694174 0.0738981 0.508619 -0.857815 0 -0.970142 -0.242536 
0 -0.999201 -0.0399606 -0.184146 -0.982114 -0.0392772 0.184146 -0.982114 -0.0392772 
0 0.996172 0.0874195 -0.139701 -0.888429 0.437239 -0.174963 0.419381 0.89079 
-0.723759 -0.463672 -0.511059 -0.297792 -0.754267 -0.58515 -0.952279 0.092485 -0.29088 
0.968381 -0.174139 0.178642 0.896788 0.330754 0.293892 0.883738 0.46768 -0.0167897 
0.90233 0.430516 -0.0213785 0.912597 0.405865 -0.049404 0.859246 0.455662 -0.232527 
0.417415 0.592582 -0.688921 0.651494 0.629788 -0.422992 0.612841 0.518197 -0.596572 
-0.397837 -0.491509 -0.77469 -0.705142 -0.135378 -0.696023 0 -0.986394 0.164399 
-0.648216 0.015551 -0.761298 0.125158 -0.74771 -0.652124 -0.68103 -0.340614 -0.648213 
0.265534 -0.857285 -0.441082 0.686877 -0.684458 -0.244373 -0.929941 -0.0206609 -0.367129 
0.815096 0.249292 0.522945 0.871944 0.377225 0.312113 0.850234 0.271947 0.450719 
0.891486 0.391588 0.227841 0.917421 0.39502 -0.0479357 0.899238 0.347488 0.265749 
0.86117 0.50786 0.0215418 0.812324 0.566877 0.137039 0.727542 0.675673 -0.118949 
-0.976584 0.193962 0.0930707 -0.824106 0.395659 0.405342 0.169539 0.722706 -0.670039 
-0.741442 0.626139 -0.241276 -0.155838 -0.63169 -0.759396 -0.644619 -0.212618 -0.734343 
-0.410181 -0.357149 -0.839164 0.0571691 -0.550039 -0.83318 0.907428 0.0184088 0.419805 
-0.999698 -0.0021009 -0.0244852 0.779133 0.247628 0.575876 0.806833 0.297518 0.510395 
0.820495 0.289251 0.493074 0.751825 0.47218 0.460223 0.759475 0.360712 0.541373 
0.780699 0.469339 0.412591 0.741474 0.441696 0.505095 -0.663507 0.255922 0.703037 
0.629642 0.614986 0.474704 -0.11112 0.576508 0.809501 0.403014 0.890702 0.21031 
0.0142624 -0.716137 -0.697814 -0.0588736 -0.773595 -0.63094 -0.436605 -0.485434 -0.757449 
-0.198788 -0.58402 -0.787022 0.0478993 -0.766346 -0.64064 0.145684 -0.714155 -0.684659 
0.474484 -0.809871 -0.344926 0.754951 0.339171 0.561259 0.393317 0.38198 0.836297 
0.847726 0.391011 0.358427 -0.61689 0.256805 0.743974 0.219451 0.352515 0.909711 
-0.200333 -0.333765 -0.921123 0.392984 -0.821843 -0.412477 -0.717181 0.167135 -0.676548 
0.11864 -0.383336 -0.915958 -0.526183 0.238648 -0.816198 -0.33325 -0.20324 -0.920672 
-0.417912 -0.154444 -0.895264 0.216444 -0.656649 -0.722471 -0.526972 -0.0308859 -0.849321 
-0.0583485 -0.800277 -0.596785 -0.540681 -0.396095 -0.742141 0.0846156 -0.832249 -0.547906 
0.144314 -0.782934 -0.605135 0.380546 -0.791803 -0.477737 0.215277 -0.842267 -0.494209 
-0.895227 0.22765 0.383073 0.553817 0.309504 0.772977 0.0162349 0.365061 0.930842 
-0.420305 0.347174 0.83834 -0.202021 0.339523 0.918647 0.281969 0.36962 0.885367 
-0.178596 -0.736417 -0.652528 -0.690038 -0.0558274 -0.721617 0.231542 -0.654032 -0.72016 
-0.564145 0.114246 -0.817734 -0.145736 -0.37557 -0.915264 -0.768699 0.42503 -0.477967 
-0.0417508 -0.621666 -0.782169 -0.670763 -0.0948912 -0.735576 0.483262 -0.853372 -0.195485 
0.887487 -0.259392 0.380898 0.876098 -0.187206 0.444305 -0.955768 0.290497 0.0460387 
0.0451794 0.441586 0.896081 0.032583 0.426131 0.904074 -0.164483 0.33921 0.926219 
0.153838 -0.894856 -0.419007 -0.674081 -0.0600908 -0.736209 0.561044 -0.807883 -0.180427 
0.66281 -0.73885 0.12159 -0.424776 0.65958 -0.620097 0.429015 -0.902734 -0.0318889 
-0.856256 0.083978 -0.50968 0.287424 -0.904593 -0.314801 0.658665 -0.74041 -0.13399 
0.796614 -0.0340278 0.603529 -0.950971 0.296054 0.0894744 -0.89264 0.218604 0.394215 
0.402672 0.307298 0.86222 0.13236 0.446337 0.885022 0.033165 0.358504 0.932939 
-0.749498 0.271989 0.603552 -0.350961 0.431336 0.831129 -0.470458 0.439515 0.765177 
0.124245 0.43492 0.891857 0.515427 -0.750778 0.413119 0.732728 -0.646555 0.21231 
0.361711 -0.753965 0.548363 -0.176522 0.963894 -0.199369 0.355493 -0.762009 0.541264 
-0.688708 0.717509 -0.10422 -0.688708 0.717509 -0.10422 -0.688708 0.717509 -0.10422 
-0.675112 0.545022 -0.497167 -0.804541 0.309627 -0.506799 -0.680102 0.543315 -0.492208 
0.695783 -0.710907 -0.102455 0.18284 -0.860547 -0.475425 0.176346 0.409815 -0.89496 
-0.379129 -0.489928 -0.785004 0.294664 -0.346177 0.890694 0.89747 -0.432005 -0.0889958 
-0.00925464 0.75664 -0.653766 -0.968 0.239488 -0.0749729 -0.849753 -0.271034 -0.452173 
0.204448 -0.971488 -0.120051 0.819203 -0.560654 0.120722 0.878425 -0.476442 -0.0370378 
0.890841 -0.420997 0.170773 -0.992078 0.064563 0.107759 -0.914582 0.215068 0.342469 
0.550567 0.283423 0.785205 0.520706 0.220575 0.824749 -0.67842 0.157413 0.717612 
0.7233 -0.660534 0.201324 0.613431 -0.703738 0.358407 -0.687654 0.717573 -0.110548 
-0.630259 0.679405 -0.375744 -0.649046 0.565583 -0.508779 0.733933 -0.620102 -0.277157 
-0.616985 0.684939 -0.387542 -0.770465 0.498333 -0.397552 0.556582 -0.468779 -0.685903 
0.150441 -0.859345 -0.488768 -0.525392 0.531381 -0.664528 -0.0981735 -0.702953 -0.704428 
-0.652649 -0.0178331 -0.757451 -0.722956 0.164297 -0.671075 0.574298 -0.75989 -0.304546 
0.369755 -0.526815 -0.765341 0.451046 -0.767047 -0.456286 -0.348836 0.496817 -0.794661 
-0.182167 0.34214 -0.921822 -0.667225 -0.0129354 -0.744744 0.682721 0.230532 0.69336 
0.547938 0.159978 0.821079 -0.745262 0.290632 0.600098 0.275498 0.218426 0.936158 
-0.287587 0.254589 0.923297 0.01859 0.249223 0.968268 -0.171286 0.225948 0.958962 
0.00522692 0.290698 0.9568 -0.715658 0.161933 0.67942 -0.887182 -0.0855588 0.453418 
-0.0777759 0.00768327 0.996941 -0.742256 0.283183 0.607341 -0.126001 0.365558 0.922221 
-0.298199 0.252762 0.920428 0.587075 -0.803626 0.0976089 0.176933 -0.97908 -0.100479 
-0.726596 0.644065 -0.239247 0.62457 -0.780282 0.032756 -0.730039 0.636995 -0.247549 
-0.841791 0.0214781 -0.539376 -0.85336 0.352997 -0.383626 0.535191 -0.830381 -0.155042 
-0.638592 0.515851 -0.571049 0.479734 -0.776212 -0.409085 -0.593529 0.431876 -0.679122 
-0.241795 -0.212004 -0.946884 0.261794 -0.834179 -0.485397 -0.731981 0.175944 -0.658216 
0.875765 -0.347223 0.335368 0.926649 -0.265581 0.266062 -0.864703 0.474681 0.164211 
-0.981425 0.129559 0.141489 -0.838012 0.252536 0.483696 0.4898 0.318271 0.811664 
0.0813713 0.326173 0.941801 0.168019 0.298888 0.93938 0.097028 0.208576 0.973181 
-0.354645 0.183745 0.916769 0.0713368 0.0952173 0.992897 -0.595641 -0.245782 0.764724 
-0.408529 0.0295814 0.912266 -0.909465 -0.0183044 0.415378 0.30746 0.178773 0.934617 
-0.850185 0.250721 0.462952 0.0344763 0.453117 0.890784 0.74613 -0.61815 0.247345 
0.74613 -0.61815 0.247345 -0.313008 -0.630227 -0.710521 -0.826125 0.193533 -0.529209 
0.455579 -0.884997 -0.0960605 -0.774914 0.499829 -0.386885 0.307683 -0.88348 -0.353263 
0.810394 -0.0172026 0.585633 -0.798208 0.302337 0.521014 0.580361 0.281725 0.764076 
-0.764339 0.272644 0.584338 -0.695882 0.307643 0.648926 -0.46555 0.321663 0.824498 
-0.394996 0.328229 0.858047 0.0730584 -0.896763 -0.436439 -0.502908 0.579627 -0.641184 
0.382491 0.66359 -0.642922 0.486132 -0.555103 0.674934 0.0138138 0.184628 0.982711 
-0.0812493 0.892323 0.444025 -0.440644 0.383166 0.811798 -0.2267 -0.757658 -0.612014 
-0.608661 -0.502459 -0.614057 0.74613 -0.61815 0.247345 -0.824233 0.226983 -0.518766 
0.14874 -0.908457 -0.390617 -0.783602 0.383579 -0.488707 0.445276 -0.882013 -0.154212 
0.498494 -0.848682 -0.176758 0.782608 -0.581382 0.222531 -0.783674 0.49588 -0.374109 
-0.906403 0.326073 0.268535 -0.830581 0.362737 0.422559 -0.701982 0.350011 0.620252 
-0.627259 0.331664 0.70466 0.000891743 0.326513 0.945192 0.227803 0.213928 0.949916 
-0.135594 0.327912 0.934927 -0.30749 0.360113 0.880777 0.208018 0.262858 0.942143 
-0.121133 0.403365 0.906986 -0.281666 0.421059 0.862191 -0.397077 -0.629506 0.667872 
-0.856575 0.330459 -0.396329 -0.803799 -0.298409 -0.514644 0.537782 -0.843067 0.0052272 
0.632787 -0.612654 0.473535 0.158718 -0.884753 0.438201 0.47097 -0.881056 0.0439001 
0.818754 -0.458679 0.345333 0.749991 0.0767633 0.656978 0.567256 0.229294 0.790977 
-0.933153 0.35285 0.0687237 -0.514824 0.293081 0.805642 -0.580724 0.159842 0.798254 
-0.232978 0.141642 0.962112 -0.403266 0.007289 0.915054 -0.563109 0.291394 0.773303 
0.764746 -0.60287 0.227401 0.764746 -0.60287 0.227401 0.764746 -0.60287 0.227401 
-0.876179 0.278438 -0.393424 0.487229 -0.872521 0.0362692 0.710482 -0.65619 0.254224 
0.460749 -0.856859 0.231308 0.829313 -0.496535 0.256307 -0.324451 0.784965 -0.52779 
-0.900989 -0.0355768 0.432381 -0.349048 -0.936382 -0.0367982 -0.892653 -0.0978489 -0.439996 
0.0276887 -0.999523 -0.0136926 -0.88913 0.418971 -0.184147 -0.800071 0.489841 0.346326 
-0.756134 0.399237 0.518528 -0.581066 0.365478 0.727178 -0.309444 0.390085 0.867224 
-0.566906 0.424868 0.705765 0.767487 -0.597992 0.231018 0.764444 -0.601244 0.232661 
0.896133 -0.41577 -0.155178 -0.667565 0.712137 -0.217299 -0.509693 -0.518774 0.686358 
-0.111602 -0.981543 0.155298 -0.863526 -0.0443284 -0.502351 0.0531364 -0.478093 -0.8767 
0.544357 -0.838494 -0.0245379 0.333049 -0.895484 -0.295273 -0.276885 0.329931 -0.902486 
0.0390403 -0.975964 -0.214408 -0.797659 0.371916 -0.474782 -0.965029 0.230279 -0.125262 
-0.877417 0.452279 0.159948 -0.759392 0.502441 0.413373 0.346187 0.384908 0.85557 
0.0866175 0.399039 0.912834 -0.794315 0.381644 0.472665 0.762425 -0.604907 0.229772 
0.742604 -0.62245 0.247176 0.803518 -0.564019 0.190374 -0.783402 0.581987 -0.218113 
-0.887193 0.458389 -0.0526122 -0.806245 0.554723 -0.205554 0.560473 -0.757384 0.335022 
0.695126 -0.697213 0.175194 0.825645 -0.564069 0.0116906 -0.72383 0.399883 -0.562285 
0.635398 -0.583435 -0.505838 0.32322 -0.946242 -0.0124165 0.737889 -0.645342 0.197618 
0.830039 -0.238731 0.504026 -0.803065 0.53258 -0.267291 -0.606965 0.540805 0.582343 
0.0414234 0.542652 0.838935 -0.202865 0.452311 0.868482 -0.626439 0.477638 0.615983 
-0.306721 0.363881 0.879496 -0.675035 0.523428 0.519953 0.705566 -0.665791 0.242691 
-0.806013 0.556518 -0.201569 0.872627 -0.483123 0.0715199 -0.73212 0.665083 -0.147192 
-0.775882 0.626345 -0.0755002 0.260188 -0.922495 0.28514 -0.858494 0.382057 -0.342081 
-0.775277 0.622394 -0.107568 -0.78158 0.623628 -0.0148557 0.38885 0.39151 0.833976 
-0.787477 0.546221 0.285521 -0.292528 0.73062 0.616946 -0.310748 0.579895 0.753098 
-0.503028 0.746688 0.435225 -0.639387 0.372047 0.672878 -0.248838 0.525917 0.813321 
-0.507787 0.442859 0.738937 0 -0.992278 -0.124035 0 -1 0 
-0.242536 -0.970143 0 -0.813597 0.55065 -0.186665 0.242536 -0.970143 0 
0 1 0 0.444344 -0.807669 0.387595 0.893695 -0.394305 -0.214085 
-0.982037 0.172792 -0.0758072 -0.738952 0.541188 -0.401329 0.593129 -0.801862 0.0722174 
-0.846168 0.500637 -0.182655 -0.782492 0.62098 -0.0457291 -0.636921 0.691881 0.340046 
-0.0616386 0.589664 0.805294 -0.75783 0.499094 0.420236 -0.482065 0.342902 0.806245 
-0.341463 0.435643 0.832837 0 -0.992278 0.124035 0.0568766 -0.930677 -0.361393 
-0.285402 0.651473 -0.702943 0.202738 0.682628 -0.70208 0.603233 -0.757967 0.248184 
0.285402 -0.651473 0.702943 -0.0568766 0.930677 0.361393 0.313028 -0.884002 0.347209 
-0.460294 -0.775779 0.43162 -0.916208 0.318959 -0.242546 0.827529 -0.289225 0.481191 
0.905361 -0.202007 0.373516 -0.604719 0.796058 -0.0246525 -0.592055 0.765656 0.251481 
-0.49261 0.68732 0.533785 0.0403021 0.534283 0.844344 0.137528 0.520064 0.842983 
-0.295488 0.683276 0.667698 -0.360533 0.580394 0.730177 -0.40439 0.653398 0.639953 
-0.121236 0.711907 0.69173 -0.202738 -0.682628 0.70208 -0.160041 -0.871082 -0.464331 