# vtk DataFile Version 4.2
vtk output
ASCII
DATASET POLYDATA
POINTS 1008 float
290.441 112.102 56.3215 290.135 112.405 56.312 290.374 112.348 56.3455 
291.378 108.741 56.6997 289.639 110.823 56.092 286.586 111.699 56.1251 
282.917 112.528 56.6911 284.19 112.221 56.434 290.621 112.212 56.4328 
288.466 112.75 56.4087 289.33 112.503 56.3503 290.5 112.456 56.4484 
290.714 112.394 56.5809 282.003 113.489 57.0405 281.933 113.375 57.1335 
281.961 113.536 57.1011 282.033 113.316 57.0186 282.263 113.812 57.1995 
283.676 114.114 56.9854 286.906 113.854 56.8567 290.415 107.637 56.7062 
291.486 107.122 57.1742 292.075 108.145 57.254 286.447 109.69 56.2464 
291.72 109.907 56.8618 282.256 110.998 57.4523 281.73 112.239 57.338 
282.525 111.868 56.933 291.09 111.461 56.6556 281.677 112.436 57.3428 
290.944 112.337 56.8333 281.728 112.642 57.2949 281.977 112.905 57.1108 
290.112 113.165 56.9722 290.481 112.805 56.7446 281.987 113.594 57.2354 
281.847 113.298 57.4367 282.28 114.01 57.4334 282.975 114.264 57.3067 
286.595 114.224 57.1118 288.948 106.506 56.9675 282.39 110.047 57.8905 
283.204 109.467 57.4643 281.845 111.226 57.9536 292.071 111.266 57.8014 
281.644 112.537 57.4542 291.457 112.34 57.7242 288.312 114.053 57.4897 
282.208 114.123 57.9159 283.663 114.78 57.9002 293.431 107.287 58.5208 
282.198 110.029 58.2577 292.76 110.312 58.5127 292.285 111.287 58.2208 
292.559 110.964 58.6287 281.689 113.11 58.2415 289.676 113.715 57.9714 
291.112 112.876 58.1045 281.977 113.9 58.3384 286.543 114.785 58.004 
286.122 114.909 58.2195 282.835 114.751 58.654 283.226 114.96 58.7527 
293.944 99.8825 59.668 295.304 100.164 59.9778 294.975 100.895 59.8204 
295.74 100.258 60.1515 289.861 101.385 59.0758 295.133 101.734 59.9092 
284.363 105.235 59.0033 284.855 105.19 58.6596 283.46 106.4 59.1468 
281.703 112.341 58.8958 281.795 113.372 58.5834 281.832 113.073 58.94 
292.087 111.913 58.8887 289.933 113.633 58.2448 287.221 114.749 58.6164 
287.728 114.582 58.5336 288.503 114.274 58.8187 289.978 113.562 58.6964 
282.932 114.78 59.0699 283.157 115.015 59.0094 283.189 115.007 59.1433 
283.317 115.077 59.0035 283.725 115.085 59.0402 283.233 115.076 59.0747 
295.561 96.35 60.8664 296.447 99.9972 60.617 288.24 100.451 60.046 
296.142 100.88 60.5722 284.251 103.746 60.596 283.281 106.092 59.8892 
294.935 104.728 60.2526 282.687 107.9 59.8576 294.328 106.612 60.0438 
292.8 110.53 59.7597 281.965 111.78 59.585 292.656 111.082 59.4932 
292.575 111.287 59.3761 292.589 111.262 59.4924 281.72 112.704 58.8539 
292.477 111.402 59.4615 291.319 112.719 58.9126 282.434 114.048 59.4442 
290.571 113.134 59.1094 282.748 114.571 59.2874 284.954 115.078 59.584 
285.243 115.095 59.6692 288.17 114.29 59.3568 283.381 114.921 59.4139 
283.35 115.067 59.1372 285.368 115.083 59.677 305.568 90.6872 63.0228 
303.933 92.1845 62.8478 299.952 94.2742 62.0955 294.069 95.7424 61.1065 
300.506 95.4702 62.5001 298.912 96.8139 61.8217 287.318 99.4696 61.5973 
287.995 98.9629 61.4146 295.364 103.232 60.3693 295.302 104.136 60.8879 
294.379 106.693 60.476 294.263 106.888 60.7983 292.182 111.617 59.574 
286.223 114.541 60.1422 284.414 115.065 59.6533 285.367 114.981 59.815 
286.48 114.65 59.8188 283.743 114.848 59.9075 303.253 92.01 62.7196 
297.195 93.3779 62.008 303.907 92.5289 63.008 293.089 94.0236 62.2895 
302.62 93.3382 62.8071 303.171 93.4271 63.1383 300.386 95.8247 62.5575 
301.392 94.9843 62.8986 286.942 99.521 62.2192 286.677 99.699 62.5763 
299.364 97.129 62.294 298.034 99.1772 62.1536 285.364 101.611 61.998 
295.472 103.804 61.4321 293.416 108.544 60.8952 283.118 109.445 61.426 
283.152 111.216 61.2151 291.26 111.024 61.1765 287.984 113.138 60.9769 
283.177 113.787 60.4033 286.058 114.209 60.5338 284.153 114.492 60.5023 
283.437 114.477 60.2678 283.774 114.696 60.2204 283.913 114.563 60.4039 
309.79 86.5225 64.2622 308.856 88.3319 64.0524 307.36 90.3257 63.9891 
291.65 93.682 63.3016 294.399 93.2878 62.4257 303.984 93.0559 63.4732 
289.852 95.2086 63.5928 302.883 93.8306 63.2692 299.709 97.0358 62.6817 
300.359 96.4192 63.097 286.902 99.4348 63.2044 286.4 100.086 62.8298 
297.821 99.7146 62.6146 297.208 100.478 62.9416 284.691 103.693 62.6057 
295.144 103.948 62.2983 294.473 104.95 62.4123 283.985 107.489 62.4377 
292.484 107.158 62.7279 292.803 108.775 61.5456 283.783 110.377 61.8508 
285.362 111.515 62.1988 286.735 111.593 62.2613 286.951 112.746 61.5361 
283.559 114.316 60.444 311.7 84.6946 64.9932 313.126 84.2783 65.4082 
312.85 83.8538 65.3997 313.544 84.2986 65.5612 312.566 85.4305 65.2611 
313.521 84.9026 65.6386 303.258 87.4575 63.9709 307.909 86.6905 64.0174 
312.489 86.0233 65.4425 297.59 90.0213 63.7772 308.734 89.4965 64.8346 
292.838 92.6855 63.5817 290.397 94.1612 64.3291 290.239 94.6211 63.778 
288.463 97.2048 63.7438 302.17 94.773 63.8041 300.364 96.6147 63.8073 
299.975 97.2169 63.5645 299.87 97.3729 63.4788 299.875 97.3777 63.566 
287.258 99.2094 63.8566 299.725 97.5288 63.5187 296.663 100.785 63.5687 
285.361 103.483 63.3054 295.052 103.555 62.8243 289.005 109.488 62.9789 
284.864 110.38 62.3977 311.333 82.924 65.5199 314.386 83.247 66.1204 
314.887 82.8586 66.5134 308.083 84.8375 64.7052 313.315 85.5809 65.8364 
313.46 85.5713 66.074 295.696 89.6 65.314 311.526 87.2002 65.4904 
293.18 91.4905 65.2965 294.254 90.906 64.8625 295.213 90.343 64.7398 
308.518 89.7316 64.9544 290.853 93.5502 64.8317 308.158 90.0262 65.1698 
290.325 94.3831 64.9718 290.648 93.9527 65.1588 304.659 92.834 64.2574 
303.963 93.3648 64.1951 301.9 95.0392 64.2004 303.072 93.9359 64.8064 
303.786 93.4827 64.6375 288.226 97.8435 64.3327 299.648 97.3495 64.0649 
287.296 99.6919 64.2281 292.63 102.862 64.8324 293.39 102.619 64.6922 
290.363 104.842 64.4626 285.306 106.304 63.4811 285.048 107.365 63.1995 
285.798 109.131 63.0656 314.389 80.3943 66.8964 315.045 80.7153 66.9648 
315.436 81.56 66.968 316.287 80.7617 67.6282 306.449 83.1518 65.9046 
314.231 84.5819 66.1788 314.313 84.5984 66.4184 296.355 88.7983 65.7809 
312.739 86.2589 66.1284 313.7 85.3976 66.3624 294.724 90.1379 65.9545 
294.743 90.0937 66.4497 311.217 87.5102 65.5528 310.498 88.0801 65.8905 
292.4 92.2684 65.8104 307.552 90.3937 65.6209 290.696 94.4724 65.7028 
304.401 92.8466 65.3268 290.391 95.5758 65.8946 289.017 97.2796 65.2035 
297.922 96.703 66.1686 295.911 98.9472 65.6152 288.102 99.6199 64.9664 
287.65 102.356 64.7625 289.452 102.685 65.1642 290.596 102.328 65.3423 
287.507 103.748 64.634 286.461 105.743 63.9829 316.452 78.5632 68.2063 
316.321 79.6316 67.8169 306.099 82.2075 66.6764 315.171 83.3004 67.096 
313.933 85.1379 66.6175 313.185 85.8391 66.6552 294.439 90.4194 66.5157 
310.193 88.1485 66.3793 311.713 86.9628 66.5801 294.216 90.7449 66.6071 
293.299 91.8163 66.5066 292.138 93.736 66.5405 304.539 92.2772 66.0899 
292.572 93.721 66.8197 300.815 93.4354 67.1495 301.688 93.1466 66.9876 
298.519 95.6939 66.5643 299.884 95.3697 66.1539 291.619 99.0402 66.3086 
291.096 99.301 66.1992 289.036 101.49 65.3549 317.499 77.4006 69.0932 
317.439 77.9126 68.9189 313.961 78.203 68.0108 317.58 78.7081 68.9301 
307.888 80.2864 67.6724 306.022 81.4022 67.3653 316.624 81.1817 68.1531 
300.405 83.8524 68.1882 316.224 81.936 68.0238 300.278 84.4091 67.4499 
298.385 85.7355 68.1709 298.281 85.8421 68.0699 297.993 86.4121 68.0559 
313.41 85.001 67.8984 313.408 85.5142 67.0212 295.161 90.0868 67.2352 
293.87 92.3975 67.251 292.881 94.2286 67.0224 293.68 95.9602 67.1026 
289.223 99.5427 65.6497 318.237 75.6936 70.1716 316.812 75.9762 69.5639 
318.544 77.0023 70.0593 301.106 83.0329 69.239 302.131 82.4294 68.6593 
316.741 81.147 68.4765 299.768 84.3133 68.5996 299.907 84.1831 68.9786 
316.509 81.5538 68.472 298.982 85.0995 68.4952 296.361 89.9644 68.1481 
295.289 91.25 67.7745 294.447 92.9628 67.5816 297.313 93.0395 68.0151 
294.471 94.5676 67.4288 293.625 95.3408 67.1926 291.578 97.1524 66.7201 
290.317 97.9388 66.3044 316.102 74.8181 70.2723 317.398 74.7649 70.4124 
319.962 74.2592 71.7755 315.179 75.4441 69.8503 319.221 75.3651 70.9171 
319.313 75.8112 70.9893 304.064 80.6937 69.7682 303.63 81.0178 69.8476 
305.125 80.1006 69.5057 318.218 78.3276 70.0041 317.987 78.8357 69.9803 
315.631 81.7094 69.7451 300.596 83.9003 69.7644 315.928 81.9665 69.0595 
299.185 85.1457 68.9912 300.193 84.5362 69.7684 299.493 85.3769 69.5501 
298.204 87.1641 68.9104 304.483 87.1296 69.9459 298.101 87.6275 68.945 
297.593 88.7152 68.7305 295.812 92.0257 68.0282 319.956 72.9892 72.2009 
318.816 73.2228 71.6617 319.557 73.6783 71.6616 319.339 73.2214 71.8033 
320.211 73.6127 72.1985 312.943 75.0757 70.8801 308.266 77.6112 70.7036 
319.143 76.3652 70.8566 308.024 77.9599 70.2287 306.513 78.9033 70.2084 
302.861 81.7938 70.1441 317.461 79.3182 70.5111 301.692 83.0061 70.1962 
301.542 83.4308 70.3535 303.489 86.0379 70.5814 300.123 86.232 70.154 
302.771 86.2593 70.5245 298.27 88.6984 69.0706 319.153 71.9982 72.6856 
319.762 72.3449 72.5383 320.462 72.4628 72.8865 320.577 72.1533 73.1783 
320.426 72.9596 72.6607 313.219 74.0256 72.416 317.748 73.1318 71.6274 
310.551 75.8554 71.8199 310.434 75.91 72.1844 309.21 76.8032 71.6936 
310.964 75.7462 71.3574 320.209 74.4549 72.4309 307.451 78.0398 71.1919 
307.486 78.0473 71.4458 319.926 75.0508 72.0914 319.64 75.5551 72.1449 
305.188 80.5895 71.5173 302.463 82.9166 70.7379 301.806 83.6467 70.584 
307.967 82.8548 71.5465 302.217 83.9052 70.8195 302.822 85.2277 70.8296 
300.175 86.4902 70.2253 300.54 86.5697 70.2942 320.328 71.6186 73.3276 
320.335 71.4626 73.4935 320.506 71.6636 73.3968 320.443 71.5319 73.472 
320.521 71.5971 73.5453 318.847 71.5218 73.1936 319.935 71.6959 73.1496 
316.829 72.1436 72.8764 313.185 73.9095 72.8803 310.619 75.8748 72.5653 
309.978 76.4493 72.5232 320.281 74.3198 72.8049 315.802 77.8136 72.9435 
305.475 81.7383 71.792 304.401 82.6978 71.4894 302.5 84.7359 70.8778 
300.106 86.6715 70.1986 318.539 71.1451 73.8182 318.399 71.0439 74.157 
[...]
POINT_DATA 1008
SCALARS scalars float
LOOKUP_TABLE default
1 1 1 1 1 1 1 1 1 
1 1 1 1 1 1 1 1 1 
1 1 1 1 1 1 1 1 1 
1 1 1 1 1 1 1 1 1 
1 1 1 1 1 1 1 1 1 
1 1 1 1 1 1 1 1 1 
1 1 1 1 1 1 1 1 1 
1 1 1 1 1 1 1 1 1 
1 1 1 1 1 1 1 1 1 
1 1 1 1 1 1 1 1 1 
1 1 1 1 1 1 1 1 1 
1 1 1 1 1 1 1 1 1 
1 1 1 1 1 1 1 1 1 
1 1 1 1 1 1 1 1 1 
1 1 1 1 1 1 1 1 1 
1 1 1 1 1 1 1 1 1 
1 1 1 1 1 1 1 1 1 
1 1 1 1 1 1 1 1 1 
1 1 1 1 1 1 1 1 1 
1 1 1 1 1 1 1 1 1 
1 1 1 1 1 1 1 1 1 
1 1 1 1 1 1 1 1 1 
1 1 1 1 1 1 1 1 1 
1 1 1 1 1 1 1 1 1 
1 1 1 1 1 1 1 1 1 
1 1 1 1 1 1 1 1 1 
1 1 1 1 1 1 1 1 1 
1 1 1 1 1 1 1 1 1 
1 1 1 1 1 1 1 1 1 
1 1 1 1 1 1 1 1 1 
1 1 1 1 1 1 1 1 1 
1 1 1 1 1 1 1 1 1 
1 1 1 1 1 1 1 1 1 
1 1 1 1 1 1 1 1 1 
1 1 1 1 1 1 1 1 1 
1 1 1 1 1 1 1 1 1 
1 1 1 1 1 1 1 1 1 
1 1 1 1 1 1 1 1 1 
1 1 1 1 1 1 1 1 1 
1 1 1 1 1 1 1 1 1 
1 1 1 1 1 1 1 1 1 
1 1 1 1 1 1 1 1 1 
1 1 1 1 1 1 1 1 1 
1 1 1 1 1 1 1 1 1 
1 1 1 1 1 1 1 1 1 
1 1 1 1 1 1 1 1 1 
1 1 1 1 1 1 1 1 1 
1 1 1 1 1 1 1 1 1 
1 1 1 1 1 1 1 1 1 
1 1 1 1 1 1 1 1 1 
1 1 1 1 1 1 1 1 1 
1 1 1 1 1 1 1 1 1 
1 1 1 1 1 1 1 1 1 
1 1 1 1 1 1 1 1 1 
1 1 1 1 1 1 1 1 1 
1 1 1 1 1 1 1 1 1 
1 1 1 1 1 1 1 1 1 
1 1 1 1 1 1 1 1 1 
1 1 1 1 1 1 1 1 1 
1 1 1 1 1 1 1 1 1 
1 1 1 1 1 1 1 1 1 
1 1 1 1 1 1 1 1 1 
1 1 1 1 1 1 1 1 1 
1 1 1 1 1 1 1 1 1 
1 1 1 1 1 1 1 1 1 
1 1 1 1 1 1 1 1 1 
1 1 1 1 1 1 1 1 1 
1 1 1 1 1 1 1 1 1 
1 1 1 1 1 1 1 1 1 
1 1 1 1 1 1 1 1 1 
1 1 1 1 1 1 1 1 1 
1 1 1 1 1 1 1 1 1 
1 1 1 1 1 1 1 1 1 
1 1 1 1 1 1 1 1 1 
1 1 1 1 1 1 1 1 1 
1 1 1 1 1 1 1 1 1 
1 1 1 1 1 1 1 1 1 
1 1 1 1 1 1 1 1 1 
1 1 1 1 1 1 1 1 1 
1 1 1 1 1 1 1 1 1 
1 1 1 1 1 1 1 1 1 
1 1 1 1 1 1 1 1 1 
1 1 1 1 1 1 1 1 1 
1 1 1 1 1 1 1 1 1 
1 1 1 1 1 1 1 1 1 
1 1 1 1 1 1 1 1 1 
1 1 1 1 1 1 1 1 1 
1 1 1 1 1 1 1 1 1 
1 1 1 1 1 1 1 1 1 
1 1 1 1 1 1 1 1 1 
1 1 1 1 1 1 1 1 1 
1 1 1 1 1 1 1 1 1 
1 1 1 1 1 1 1 1 1 
1 1 1 1 1 1 1 1 1 
1 1 1 1 1 1 1 1 1 
1 1 1 1 1 1 1 1 1 
1 1 1 1 1 1 1 1 1 
1 1 1 1 1 1 1 1 1 
1 1 1 1 1 1 1 1 1 
1 1 1 1 1 1 1 1 1 
1 1 1 1 1 1 1 1 1 
1 1 1 1 1 1 1 1 1 
1 1 1 1 1 1 1 1 1 
1 1 1 1 1 1 1 1 1 
1 1 1 1 1 1 1 1 1 
1 1 1 1 1 1 1 1 1 
1 1 1 1 1 1 1 1 1 
1 1 1 1 1 1 1 1 1 
1 1 1 1 1 1 1 1 1 
1 1 1 1 1 1 1 1 1 
1 1 1 1 1 1 1 1 1 
1 1 1 1 1 1 1 1 1 

NORMALS Normals float
0.357443 -0.0253228 -0.933592 0.133833 0.441419 -0.887264 0.327164 0.287263 -0.900247 
0.382937 -0.134766 -0.913891 0.135322 -0.0190138 -0.990619 -0.0104573 0.136708 -0.990556 
-0.302299 -0.0506327 -0.951868 -0.158969 0.0539025 -0.985811 0.634899 0.0480562 -0.771099 
0.0522525 0.286965 -0.956515 0.0234497 0.309999 -0.950447 0.4089 0.474329 -0.779624 
0.647272 0.409972 -0.642621 -0.538813 0.207858 -0.816379 -0.917433 0.0633612 -0.392812 
-0.688441 0.512604 -0.513114 -0.469592 0.0272162 -0.882464 -0.442015 0.70465 -0.555059 
-0.122415 0.580122 -0.805278 0.112581 0.505052 -0.855715 0.213999 -0.254216 -0.943175 
0.33393 -0.248239 -0.909323 0.598379 -0.101538 -0.794753 -0.130892 -0.176037 -0.975642 
0.677891 0.104356 -0.727718 -0.726457 -0.309263 -0.613691 -0.801846 -0.233694 -0.549936 
-0.520453 -0.251832 -0.81591 0.646975 0.180737 -0.740782 -0.80623 -0.0802302 -0.586137 
0.794491 0.203608 -0.572127 -0.862288 0.198434 -0.465921 -0.659743 -0.0426398 -0.75028 
0.278225 0.750412 -0.599561 0.522105 0.684354 -0.508986 -0.845488 0.517776 -0.130603 
-0.927384 0.311866 -0.206635 -0.63922 0.657656 -0.398606 -0.310641 0.787955 -0.531629 
0.185526 0.803584 -0.565537 -0.0235225 -0.336514 -0.941384 -0.722939 -0.466567 -0.509583 
-0.480359 -0.380617 -0.790181 -0.89133 -0.28425 -0.353175 0.814469 0.335012 -0.473715 
-0.995339 0.00583842 -0.0962573 0.729123 0.577341 -0.367501 0.325928 0.790388 -0.518707 
-0.596065 0.782227 -0.181183 -0.164001 0.900023 -0.40381 0.758262 0.0631767 -0.648882 
-0.87376 -0.400567 -0.275844 0.916949 0.276442 -0.287722 0.83517 0.445379 -0.322689 
0.880396 0.282263 -0.381091 -0.970776 0.239947 0.00444128 0.369348 0.881636 -0.293768 
0.610198 0.75158 -0.250572 -0.872177 0.48856 -0.0248164 0.162761 0.886669 -0.432813 
0.0920689 0.975917 -0.19776 -0.564525 0.821275 -0.0825765 -0.352333 0.884871 -0.304736 
0.211085 -0.238351 -0.947962 0.379321 -0.138583 -0.914828 0.353896 0.0117196 -0.935211 
0.446331 0.0770382 -0.891546 -0.112089 -0.439449 -0.891247 0.516935 0.018758 -0.855819 
-0.649869 -0.497258 -0.574808 -0.415202 -0.454675 -0.787958 -0.809337 -0.384521 -0.443979 
-0.971586 -0.158616 0.175677 -0.900664 0.366745 0.233029 -0.894386 0.193565 0.403245 
0.77297 0.625529 -0.105975 0.502347 0.856405 -0.119236 0.274498 0.957703 -0.0863493 
0.303748 0.942876 -0.136829 0.467094 0.875071 0.126784 0.385294 0.891458 0.238433 
-0.676495 0.719043 0.159161 -0.598688 0.790754 -0.127596 -0.536196 0.723369 0.435007 
-0.136454 0.96951 -0.203546 -0.0456365 0.998903 0.0105085 -0.358573 0.924095 0.132188 
0.0885028 -0.35231 -0.931689 0.521252 -0.0362501 -0.852632 -0.50734 -0.49653 -0.704318 
0.638743 0.196658 -0.743864 -0.740956 -0.562209 -0.367295 -0.898602 -0.404158 -0.170795 
0.889929 0.347501 -0.295413 -0.965627 -0.259928 0.000821453 0.881315 0.336232 -0.332012 
0.946129 0.309091 0.096448 -0.853071 0.0335658 0.520715 0.950647 0.173625 -0.257147 
0.85504 0.458546 -0.242162 0.807278 0.503429 0.307996 -0.967588 0.103934 0.230154 
0.650003 0.758241 -0.0506653 0.639006 0.74126 0.205439 -0.789069 0.375004 0.486561 
0.482854 0.807281 0.339337 -0.697769 0.636404 0.328799 -0.0134185 0.997683 0.0666957 
-0.0389825 0.948647 0.313925 0.350268 0.830136 0.433805 -0.363906 0.818431 0.444683 
-0.0947601 0.932671 0.348059 0.18048 0.963378 0.198316 0.260512 0.0607999 -0.963554 
0.445391 0.36616 -0.817039 0.338201 0.0765919 -0.937952 -0.181212 -0.453175 -0.872808 
0.604463 0.421242 -0.676151 0.626374 0.169294 -0.760917 -0.709824 -0.492852 -0.503236 
-0.481125 -0.629523 -0.610097 0.814871 0.186215 -0.548917 0.891761 0.413514 -0.183765 
0.866203 0.490247 -0.0966964 0.847288 0.483518 0.219803 0.624891 0.680657 0.382384 
0.198084 0.712199 0.673451 -0.0443704 0.874772 0.482499 -0.0241915 0.755282 0.654953 
0.338879 0.856098 0.390201 -0.17896 0.89942 0.398769 0.130107 0.0469464 -0.990388 
0.000951612 -0.393798 -0.919197 0.440326 0.388354 -0.809502 -0.240236 -0.527778 -0.814701 
0.365646 0.349861 -0.862496 0.524054 0.575236 -0.628069 0.62678 0.3344 -0.703792 
0.468171 0.430002 -0.771955 -0.779132 -0.524188 -0.343773 -0.796011 -0.575978 -0.186055 
0.757401 0.398614 -0.517157 0.780779 0.455037 -0.428166 -0.854338 -0.463927 0.23426 
0.89383 0.429347 0.129343 0.806027 0.430317 0.406384 -0.811904 -0.0973082 0.575624 
-0.576562 0.192585 0.794032 0.472427 0.526291 0.706987 0.375196 0.667067 0.643622 
-0.575072 0.296753 0.762384 0.300163 0.648806 0.699252 -0.0927955 0.534134 0.840291 
-0.516819 0.634835 0.574354 -0.207429 0.766537 0.607778 -0.068207 0.762945 0.642856 
0.202018 -0.141236 -0.969145 0.353333 0.163857 -0.921036 0.605385 0.557904 -0.567672 
-0.499921 -0.566517 -0.655086 -0.152681 -0.599832 -0.785424 0.601045 0.57589 -0.554163 
-0.775406 -0.546001 -0.317219 0.632794 0.70098 -0.328937 0.754791 0.471242 -0.456312 
0.75947 0.538041 -0.365673 -0.82909 -0.530596 0.17629 -0.846908 -0.5269 -0.0715856 
0.777815 0.627504 -0.0352463 0.817947 0.559079 0.135623 -0.857236 -0.202334 0.473506 
0.849177 0.401803 0.342714 0.716476 0.47042 0.515139 -0.61741 0.082377 0.782316 
0.540928 0.42193 0.727579 0.654021 0.441011 0.614627 -0.594352 0.114391 0.796028 
-0.241088 0.376474 0.894508 0.0573888 0.403233 0.913296 0.104566 0.611393 0.784388 
-0.320228 0.423443 0.847437 0.198996 -0.0557875 -0.978411 0.307919 -0.0144954 -0.951302 
0.24048 -0.256617 -0.936118 0.534138 0.0133587 -0.845292 0.285326 0.123517 -0.950438 
0.525389 0.241369 -0.815909 -0.111745 -0.400126 -0.909622 -0.025009 -0.243203 -0.969653 
0.489805 0.40078 -0.774253 -0.326208 -0.604692 -0.726592 0.778074 0.614457 0.130552 
-0.350875 -0.705268 -0.616023 -0.763283 -0.626252 -0.158772 -0.77796 -0.56463 -0.275628 
-0.754382 -0.604073 -0.256913 0.714605 0.66685 -0.211307 0.762945 0.643078 -0.0660651 
0.859692 0.510654 -0.0126886 0.776589 0.584315 -0.235554 0.768135 0.625141 0.138443 
-0.780025 -0.371159 0.503788 0.707329 0.697508 -0.114753 0.654184 0.546 0.523381 
-0.644383 -0.187654 0.741321 0.732923 0.459966 0.501253 0.106062 0.362804 0.92581 
-0.300874 0.216995 0.928648 -0.075119 -0.465535 -0.881836 0.552175 -0.0706045 -0.830733 
0.609795 -0.0163406 -0.792391 -0.0606045 -0.423945 -0.903658 0.728991 0.488832 -0.479182 
0.689917 0.66551 -0.284799 -0.522352 -0.751762 -0.402496 0.673285 0.717801 -0.177341 
-0.639228 -0.763155 -0.0947737 -0.547826 -0.726378 -0.415044 -0.480054 -0.687801 -0.544498 
0.723796 0.688243 0.0493975 -0.734054 -0.677152 0.0512824 0.694933 0.567006 0.442236 
-0.864811 -0.451803 0.219032 -0.749456 -0.567877 0.340338 0.657104 0.753342 -0.0262668 
0.594214 0.788083 -0.16073 0.717653 0.69034 0.0916737 0.596046 0.79304 0.125765 
0.501722 0.848923 0.166146 -0.792252 -0.416734 0.445724 0.617134 0.656322 0.434036 
-0.791982 -0.320079 0.519917 0.169858 0.377018 0.910497 0.400018 0.419617 0.814805 
0.108403 0.404485 0.908097 -0.448472 0.194946 0.872278 -0.374674 0.135666 0.917177 
-0.256849 0.250271 0.933484 0.218585 -0.298686 -0.928982 0.325972 -0.272677 -0.905201 
0.490226 -0.0385845 -0.870741 0.657131 -0.044244 -0.752477 -0.133438 -0.532333 -0.835952 
0.753853 0.308508 -0.58011 0.850667 0.525074 -0.0257279 -0.634805 -0.683624 -0.360112 
0.524746 0.833299 0.173942 0.785457 0.598913 -0.156079 -0.646391 -0.74112 -0.181439 
-0.624965 -0.757425 0.189011 0.68435 0.711662 -0.158754 0.706326 0.700493 -0.102046 
-0.684248 -0.610667 0.39861 0.620434 0.716309 0.319318 -0.650296 -0.343254 0.677711 
0.615867 0.744422 0.257961 -0.644404 -0.271715 0.714783 -0.72507 -0.220252 0.652505 
0.24413 0.429716 0.869336 0.293954 0.449104 0.84374 -0.60006 -0.185851 0.778066 
-0.44964 -0.0963038 0.888003 -0.0868244 0.286565 0.954118 0.0250444 0.276598 0.960659 
-0.291332 0.147516 0.94518 -0.25053 0.275514 0.928077 0.293537 -0.346147 -0.891077 
0.507973 -0.205891 -0.836404 -0.325155 -0.59906 -0.731711 0.780491 0.243697 -0.575714 
0.848324 0.529055 0.0211306 0.513906 0.822138 0.244927 -0.696525 -0.68764 0.204951 
0.587564 0.763712 0.267419 0.528057 0.760924 0.377029 -0.603072 -0.472337 0.642808 
-0.657266 -0.516542 0.548804 -0.590466 -0.291373 0.75263 0.513823 0.710326 0.481064 
-0.44249 -0.193059 0.875746 0.372457 0.492396 0.786653 0.239351 0.491794 0.837168 
0.286544 0.507943 0.812334 0.400351 0.548586 0.734011 -0.0832591 0.224396 0.970935 
-0.0729637 0.244825 0.966818 -0.367004 0.00458259 0.930208 0.470143 -0.285639 -0.83509 
0.460472 -0.227817 -0.857942 0.0338772 -0.50115 -0.864697 0.763112 0.0421538 -0.64489 
-0.18958 -0.667523 -0.72005 -0.317592 -0.63123 -0.707591 0.834693 0.230229 -0.500282 
-0.536708 -0.788552 -0.300217 0.838713 0.511749 -0.186208 -0.427295 -0.701624 -0.570213 
-0.781623 -0.560195 0.274312 -0.798965 -0.599584 0.0464202 -0.800803 -0.395448 0.449817 
0.537415 0.677186 0.502597 0.584481 0.691305 0.424828 -0.588304 -0.608302 0.532792 
-0.49438 -0.181192 0.850152 -0.342831 -0.0762219 0.9363 0.0711333 0.255179 0.964274 
-0.445742 -0.0186821 0.894967 0.302954 -0.44413 -0.843189 0.149376 -0.463383 -0.873478 
0.829897 0.107131 -0.547534 -0.610771 -0.791768 0.00783078 -0.5747 -0.782573 -0.239374 
0.897629 0.421397 -0.129174 -0.698 -0.707477 -0.110781 -0.729752 -0.6276 0.271256 
0.823972 0.55169 0.12926 -0.839076 -0.375556 0.393585 -0.511171 -0.27792 0.813305 
-0.381208 -0.250274 0.889968 -0.405282 0.0162347 0.914048 0.0258865 0.203919 0.978646 
-0.165635 0.159241 0.973246 -0.0574942 0.14003 0.988477 -0.198277 0.0742021 0.977333 
-0.379237 0.0364845 0.92458 0.0088007 -0.590852 -0.806732 0.218125 -0.47529 -0.852362 
0.812048 -0.0151466 -0.583394 -0.15941 -0.61156 -0.774973 0.573806 -0.207711 -0.792214 
0.866058 0.12624 -0.483742 -0.595242 -0.80191 -0.0512527 -0.624255 -0.773865 -0.106947 
-0.47078 -0.673916 -0.569389 0.927185 0.350278 -0.132791 0.859334 0.472813 0.194916 
0.467226 0.614252 0.63592 -0.663383 -0.464407 0.586728 0.701895 0.62447 0.342608 
-0.847457 -0.381116 0.369551 -0.590845 -0.298399 0.749573 -0.731261 -0.24315 0.637287 
-0.623225 -0.189655 0.758697 0.124121 0.421644 0.898226 -0.620324 -0.176749 0.764172 
-0.614229 -0.17199 0.770158 -0.169014 -0.0864242 0.981817 0.428321 -0.42662 -0.796578 
0.0994752 -0.529672 -0.842349 0.370291 -0.341818 -0.863739 0.352679 -0.45859 -0.815667 
0.744527 -0.168472 -0.645986 -0.311446 -0.684596 -0.659037 -0.382654 -0.863037 -0.329762 
0.831086 0.170227 -0.529451 -0.334102 -0.811032 -0.480211 -0.568981 -0.794668 -0.211574 
-0.613294 -0.725927 0.311289 0.72446 0.56815 0.390337 -0.592596 -0.518682 0.616278 
-0.531199 -0.354017 0.76974 0.219292 0.199025 0.955144 -0.433183 -0.15263 0.888288 
-0.0264877 0.429654 0.902605 -0.396602 0.00949948 0.917942 0.110224 -0.646795 -0.754657 
0.330717 -0.568767 -0.753081 0.75141 -0.279716 -0.597614 0.873259 -0.206198 -0.441476 
0.800497 -0.178681 -0.572082 -0.483667 -0.838822 -0.249887 0.0437581 -0.575669 -0.816511 
-0.548399 -0.835088 -0.0434357 -0.59643 -0.784461 0.169977 -0.61947 -0.78101 -0.0792464 
-0.428405 -0.80781 -0.404861 0.935862 0.288951 -0.201666 -0.577155 -0.812865 -0.0783743 
-0.617564 -0.743336 0.257033 0.89554 0.444808 -0.0124524 0.853722 0.517676 0.0563023 
-0.503123 -0.44367 0.741636 -0.386698 -0.207124 0.898646 -0.508999 -0.192275 0.839018 
0.0648236 0.387779 0.91947 -0.326324 -0.0417928 0.944334 0.182992 0.0552723 0.98156 
-0.313933 -0.0950506 0.944675 -0.142236 0.177739 0.973744 0.209041 -0.621543 -0.754974 
0.246321 -0.837672 -0.487475 0.68432 -0.436283 -0.584263 0.559226 -0.712588 -0.423656 
0.809093 -0.581196 -0.0870626 -0.0764628 -0.765538 -0.63883 0.137677 -0.703489 -0.697243 
-0.233238 -0.809617 -0.538628 -0.535415 -0.832349 -0.143268 -0.561498 -0.749053 0.351625 
-0.68967 -0.581318 0.431769 0.842465 0.50899 0.176582 0.289266 0.534155 0.794357 
-0.225354 0.110299 0.968013 -0.144805 0.127462 0.981216 -0.187851 0.0142174 0.982095 
-0.338652 0.174862 0.924521 -0.305765 -0.852271 -0.424431 -0.270216 -0.916398 -0.295293 
0.072708 -0.889544 -0.451027 0.0878258 -0.912052 -0.400559 0.313906 -0.940927 0.126962 
0.583391 -0.811351 0.0369235 0.285365 -0.931498 -0.225562 0 -0.222396 -0.974956 
0 -1 0 -0.775537 -0.62746 0.0695381 0.775537 -0.62746 0.0695381 
-0.522523 -0.820645 0.231324 0.866048 -0.495431 0.0671415 0.769056 -0.457651 0.446215 
0 0.529999 -0.847998 -0.686263 -0.714371 0.13681 -0.484132 -0.853603 0.192296 
0.954945 -0.295337 -0.0292578 0.926465 -0.0940915 -0.364429 0.947833 0.307334 0.0846118 
0.959979 0.23427 -0.153486 -0.500126 -0.254695 0.82765 -0.5686 -0.337101 0.750371 
-0.570641 -0.40464 0.714588 -0.549526 -0.599872 0.581528 0.722851 0.460925 0.514815 
-0.423468 -0.214199 0.880224 0.549075 0.639076 0.538608 0.655752 0.624224 0.424658 
-0.511013 -0.386894 0.767579 0.211957 0.368786 0.905026 -0.23492 -0.106422 0.966171 
-0.0429899 0.240887 0.969601 -0.507693 -0.850796 -0.135629 0.091557 -0.995742 -0.0106828 
-0.630792 -0.756882 0.170971 0.548099 -0.728874 0.410281 0.648553 -0.731892 0.209076 
0 -0.329285 0.944231 -0.470772 -0.804711 0.361682 -0.542543 -0.445112 0.712407 
0.945928 0.227887 0.23084 0.9566 -0.223254 0.187282 0.820392 0.207902 0.532666 
0.338875 0.514711 0.787551 0.62174 0.446641 0.643391 -0.206888 0.0644747 0.976238 
0.0591724 0.481826 0.874267 -0.289898 -0.145301 0.945963 -0.056276 -0.986702 -0.152487 
0.0109825 -0.918587 0.395066 -0.449071 -0.892433 -0.0435745 0.19736 -0.629894 0.751188 
-0.634754 -0.757867 0.15075 -0.566513 -0.807749 0.163108 0.0373821 -0.701724 0.711467 
0.128693 -0.936696 0.325637 -0.601149 -0.658311 0.453041 0.265325 -0.729324 0.630626 
0.501532 -0.523236 0.688977 -0.406183 -0.470651 0.783265 0.470404 -0.0137842 0.882343 
0.757558 -0.199465 0.621546 -0.389142 -0.141422 0.910257 0.0381002 0.361559 0.93157 
-0.365439 0.0507273 0.929452 -0.300355 0.0429622 0.95286 0.0504258 0.35545 0.933334 
-0.392649 -0.54234 0.742761 -0.286402 -0.381906 0.878705 -0.500446 -0.403119 0.766192 
0.0431979 -0.587348 0.808181 0.191949 -0.512467 0.836978 0.325243 -0.24951 0.91212 
0.541109 0.403696 0.73772 -0.224765 0.0365406 0.973728 -0.21736 -0.000514976 0.976091 
-0.239789 -0.22837 0.943583 -0.000836627 -0.423708 0.905799 0.139257 0.285164 0.948308 
0.0916907 -0.0968257 0.991069 -0.011095 -0.475514 -0.879638 -0.240299 -0.256894 -0.936088 
-0.0380784 -0.0912232 -0.995102 0.0718152 -0.126623 -0.989348 0.0649752 -0.33433 -0.940214 
0.289635 -0.7597 -0.582209 0.391514 -0.160017 -0.906152 -0.353375 -0.141172 -0.924768 
-0.461186 -0.40086 -0.791593 0.281955 0.342977 -0.896029 0.493828 0.395595 -0.774363 
-0.0794898 -0.710288 -0.699409 -0.400621 -0.850308 -0.34129 -0.0761601 -0.981659 -0.174771 
-0.210945 -0.38545 -0.898293 -0.0104348 -0.825876 -0.563756 0.29052 -0.68168 -0.671499 
0.252827 -0.88003 -0.402028 0.0822759 -0.725656 -0.683121 -0.498201 -0.51194 -0.699795 
0.552383 -0.572541 -0.605863 0.402098 -0.707385 -0.581312 -0.289764 -0.190757 -0.937896 
0.702915 -0.169031 -0.690897 0.761403 -0.431342 -0.483952 0.531598 0.0688314 -0.844195 
-0.455349 -0.21169 -0.86478 -0.124551 0.153259 -0.980305 -0.145691 0.218384 -0.964926 
-0.294675 -0.00740758 -0.955569 -0.0317777 0.291485 -0.956047 -0.15012 -0.884944 -0.440838 
-0.0894344 -0.980207 0.176621 -0.343983 -0.916363 0.204827 0.129936 -0.876111 -0.46427 
0.186972 -0.982271 -0.0136133 -0.384492 -0.911356 0.146957 -0.65054 -0.75578 -0.074802 
-0.304353 -0.951004 0.0544074 -0.0523482 -0.800938 -0.596454 0.179884 -0.957378 0.225984 
-0.605627 -0.632434 -0.482952 0.609634 -0.520428 -0.597913 0.575698 -0.0533389 -0.815921 
0.717434 -0.313766 -0.621964 -0.69949 -0.588235 -0.405824 0.671905 -0.00732781 -0.740601 
0.90133 0.0309434 -0.432025 0.542081 0.439617 -0.71616 0.893608 -0.0322055 -0.447691 
0.514908 0.410227 -0.752717 0.83866 0.32992 -0.433361 -0.252319 -0.0898006 -0.963468 
-0.316002 -0.0852934 -0.944917 -0.105246 -0.811242 0.575161 -0.388211 -0.884157 0.25992 
0.060543 -0.932801 0.355269 0.473845 -0.85039 -0.228711 -0.506678 -0.834561 0.216299 
-0.713201 -0.683057 -0.15741 -0.588278 -0.806358 0.0609604 0.744509 -0.214134 -0.632339 
0.777404 -0.313548 -0.545281 0.583651 -0.808093 -0.0796116 0.913197 -0.380975 0.144667 
0.966035 0.19784 -0.166238 0.979728 0.04742 0.19464 -0.63465 -0.747342 -0.196722 
0.878836 0.415724 -0.234138 0.264936 0.516131 -0.814505 0.150157 0.529563 -0.834875 
-0.526333 -0.410085 -0.744852 -0.420647 -0.0791203 -0.903768 -0.476528 -0.0768366 -0.875795 
0.0151617 0.308238 -0.951188 -0.173735 -0.885994 0.429919 0 -0.992278 -0.124035 
0 -1 0 -0.447214 -0.894427 0 0.447214 -0.894427 0 
-0.275742 -0.809013 0.5191 0.429248 -0.894928 0.121859 0.623459 -0.731899 0.274997 
0.453165 -0.809503 0.373291 0.631927 -0.599349 0.491375 0 1 0 
-0.647589 -0.731305 0.214058 0.775703 -0.36339 0.515978 -0.492089 -0.768196 0.40954 
-0.581 -0.599306 -0.5507 -0.584785 -0.796957 0.151281 -0.712565 -0.455749 -0.533426 
-0.73115 -0.648604 -0.211502 0.943267 0.310151 -0.118552 -0.47136 -0.46489 -0.749464 
-0.54073 -0.836252 -0.0910708 -0.570083 -0.764501 -0.300904 0.577542 0.598454 -0.555246 
0.837731 0.530598 -0.129118 -0.551685 -0.44355 -0.706333 -0.533886 -0.279374 -0.79807 
-0.469767 -0.188955 -0.862331 -0.321337 0.0820973 -0.9434 -0.385856 -0.0145796 -0.922444 
-0.193845 0.195735 -0.961307 0.00385873 0.337106 -0.941459 -0.261807 0.150803 -0.953266 
0 -0.992278 0.124035 0.23454 -0.830581 0.5051 0.354902 -0.71734 0.599556 
-0.153904 -0.741133 0.653479 0.710237 -0.327822 0.622974 -0.326554 -0.676698 0.65988 
-0.00911238 -0.709797 0.704348 -0.485564 -0.809532 0.329978 0.938217 0.0230481 0.345279 
-0.60021 -0.791585 -0.114635 0.947795 0.102197 0.302061 -0.692833 -0.624702 -0.360182 
-0.638428 -0.522106 -0.565522 -0.486332 -0.337972 -0.805764 -0.727967 -0.49865 -0.470544 