# vtk DataFile Version 4.2
vtk output
ASCII
DATASET POLYDATA
POINTS 1116 float
281.642 105.071 34.9418 282.281 104.959 34.9968 282.434 104.833 35.0392 
282.398 104.986 35.0622 277.615 106.993 35.3292 277.441 106.998 35.3521 
283.059 102.597 35.6862 281.948 102.886 35.2656 282.434 104.056 35.1576 
280.739 105.115 34.965 281.549 105.59 35.2191 282.396 105.118 35.162 
276.669 106.399 35.3475 279.84 106.102 35.216 280.394 105.955 35.2127 
275.127 107.045 35.9512 275.688 107.091 35.749 275.944 106.955 35.6409 
276.788 106.991 35.4822 277.244 106.821 35.3347 279.428 106.339 35.3358 
275.169 107.208 36.0305 275.582 107.223 35.8906 277.188 107.077 35.487 
283.169 101.629 35.94 283.451 101.254 36.1781 280.917 102.24 35.3875 
283.411 103.418 36.0421 283.388 103.675 35.8929 283.437 103.655 35.9426 
283.274 104.004 35.8535 283.409 103.772 35.9051 282.685 104.998 35.3309 
282.965 104.68 35.5931 282.344 105.33 35.3163 282.663 105.22 35.3716 
274.516 106.373 36.4896 274.805 105.964 36.2194 280.84 106.009 35.4139 
280.549 106.127 35.5141 282.35 105.39 35.5218 282.737 105.25 35.4192 
277.649 107.144 35.667 278.05 107.042 35.776 279.499 106.428 35.5805 
282.713 105.295 35.4397 274.626 107.015 36.3903 274.52 107.013 36.5669 
274.677 107.196 36.434 274.894 107.319 36.3374 283.278 99.1522 36.7906 
282.828 99.5118 36.4868 283.588 99.5517 36.9203 283.337 103.645 36.1695 
283.406 103.71 35.973 274.599 103.909 36.888 283.228 104.096 36.0571 
283.252 104.266 35.9126 283.224 104.389 35.8988 274.434 105.081 36.839 
274.94 104.752 36.3288 275.376 104.868 36.0228 282.723 104.968 35.8164 
282.948 104.684 35.8525 283.143 104.461 35.9195 274.604 105.554 36.4884 
282.833 105.04 35.5572 280.171 106.233 35.5048 277.644 107.129 35.9994 
278.027 107.134 35.8606 277.947 107.136 35.898 278.1 107.081 35.8983 
278.406 106.853 36.0012 280.283 106.161 35.7697 274.508 106.98 36.7601 
274.59 107.166 36.5902 274.632 107.177 36.6825 275.124 107.377 36.2659 
275.328 107.373 36.3097 276.602 107.234 36.0539 278.018 107.138 35.9041 
274.77 107.284 36.5339 275.054 107.359 36.4238 282.695 96.6828 37.4692 
279.12 98.9957 36.7868 281.593 98.917 36.5519 283.857 99.5268 37.3638 
275.151 101.904 37.0896 275.983 101.651 36.6914 274.733 102.592 37.2181 
283.203 104.334 35.968 274.302 105.84 37.0603 274.317 106.198 37.0446 
274.423 106.77 36.8689 277.129 107.18 36.1154 278.005 107.067 35.9893 
274.762 107.23 36.6911 274.888 107.178 36.7819 285.483 92.5712 39.576 
285.421 93.1324 39.3926 283.161 94.0128 38.5163 285.318 93.9658 39.2532 
280.146 95.7483 38.0532 281.298 95.9368 37.7816 284.824 96.0997 38.6376 
284.816 96.3401 38.751 277.615 97.9213 37.7361 284.032 99.1101 37.8203 
283.554 101.372 37.4693 283.545 101.259 37.6172 282.466 102.899 37.5715 
274.3 104.513 37.5458 279.492 104.698 37.821 274.296 104.966 37.5196 
274.32 105.904 37.2382 274.72 106.593 37.2331 275.594 106.806 37.0976 
279.72 94.2152 38.9364 275.605 97.2715 39.498 275.19 98.613 39.1326 
284.616 97.0646 38.8733 274.942 99.3813 39.1061 283.316 100.952 38.0421 
274.452 102.413 38.2232 281.165 102.144 38.7382 274.537 103.35 38.3769 
277.837 103.872 38.782 274.355 104.562 37.7764 274.577 104.258 38.1547 
276.637 105.307 38.0859 275.236 105.696 37.8951 287.125 89.5884 41.069 
287.078 90.1101 41.0112 286.847 90.8144 40.8732 286.288 92.2262 40.5345 
277.059 94.4018 40.2517 275.617 96.7521 40.1224 275.932 96.0891 40.2336 
275.257 97.9505 39.6337 284.71 96.3921 39.4674 283.251 98.5965 39.53 
278.115 101.54 39.912 279.122 102.06 39.4681 274.758 102.662 38.8483 
276.251 102.585 39.5026 277.061 103.087 39.2821 275.557 104.314 38.5993 
289.295 85.1891 42.6 288.856 86.3213 42.2348 289.474 85.8665 42.6498 
289.034 86.5238 42.3276 285.663 88.1889 41.0641 288.117 88.3459 41.8755 
276.481 94.0269 41.343 276.418 94.1783 41.2514 276.362 94.3652 41.2327 
276.166 95.1612 40.9289 275.581 96.7974 40.3853 275.468 97.3289 40.4128 
274.986 99.1201 39.8064 275.227 98.6997 40.1664 275.059 101.383 39.5168 
275.073 102.048 39.3181 275.665 101.765 39.7179 275.368 101.806 39.5952 
275.008 103.473 38.7994 275.335 103.197 39.0401 290.295 83.9885 43.2481 
290.097 85.0691 43.1287 289.296 86.3822 42.5644 289.76 85.7584 42.9872 
288.929 86.9362 42.3129 289.147 86.8024 42.53 278.53 89.8233 42.4512 
287.377 90.1617 41.3782 278.413 90.934 41.6148 286.711 91.4872 41.2925 
286.338 91.9474 41.4696 276.39 94.1817 41.348 276.432 94.1679 41.5459 
276.132 94.8551 41.4105 275.808 96.338 40.8117 276.125 95.4185 41.3316 
275.346 100.825 39.8653 289.496 82.5383 43.4406 282.32 85.61 43.0736 
290.386 85.0822 43.6654 279.378 87.6983 43.5887 280.773 87.262 42.7365 
279.022 88.1511 43.6408 278.647 88.8551 43.5245 289.058 87.2087 42.972 
288.51 88.201 42.6746 288.214 88.5753 42.7414 277.807 91.0049 43.3428 
277.605 91.6618 43.2433 278.462 95.5829 42.4586 275.982 97.4979 41.0257 
276.027 98.3396 40.8808 294.162 79.5786 45.1338 291.979 82.8915 44.4437 
279.461 87.0941 44.3791 279.163 87.6426 44.2511 288.692 87.487 43.5835 
278.257 89.6589 43.4182 287.692 89.0522 42.9669 278.063 91.1423 43.6921 
286.928 89.8901 42.9715 276.917 93.3241 42.4807 277.25 92.7587 42.8865 
276.944 93.9677 42.5147 278.005 94.7098 42.7156 276.833 96.1094 41.895 
301.058 74.7219 47.1144 299.435 75.8562 46.7644 299.745 75.7058 46.8744 
294.219 77.7705 45.5655 296.001 78.148 45.8209 297.193 77.7785 46.2491 
295.62 79.231 45.7605 280.623 84.3451 45.4388 280.001 85.9043 45.1093 
279.631 86.6739 44.7823 289.89 85.195 44.8875 278.979 88.0612 44.2826 
279.098 88.1735 44.6369 286.063 88.1846 44.8894 288.137 87.3599 44.3116 
283.016 89.5501 44.9157 279.631 90.3543 44.5179 277.271 93.7713 42.7584 
304.006 73.1873 48.1588 298.73 76.0015 46.6556 299.697 76.0421 46.9914 
289.529 78.0159 45.752 298.26 77.3506 46.7853 299.272 76.6465 47.1458 
297.79 77.8214 46.6479 283.863 80.1155 46.3779 285.276 80.089 45.6162 
280.064 85.8476 45.6069 286.177 86.0355 46.279 277.968 91.9167 43.5982 
305.021 71.5152 48.5532 305.814 71.854 48.7565 306.955 71.2645 49.1711 
306.571 71.6966 49.0894 301.806 74.6404 47.5549 303.714 73.7062 48.2614 
302.229 74.6822 47.8912 302.475 74.6645 48.162 298.599 77.3282 47.2963 
297.981 77.9057 46.9389 298.084 77.8421 46.9989 282.95 80.471 46.9349 
283.007 80.0846 47.4601 297.971 77.9275 47.0289 295.886 79.5026 46.5826 
280.677 84.353 46.3302 280.398 85.2018 46.093 282.824 86.3123 46.6625 
279.933 87.4374 45.5939 308.433 69.9136 49.6267 308.539 69.4699 49.6979 
303.773 71.1818 48.4864 307.706 70.7223 49.4181 307.431 71.1482 49.4376 
303.569 73.9333 48.3666 303.067 74.2981 48.3787 284.016 78.4894 48.306 
283.25 79.5998 48.1805 282.262 81.3033 47.614 280.906 83.9335 46.7423 
280.828 84.2438 46.6949 280.897 84.3583 46.7919 310.947 68.2442 50.7678 
308.262 70.4806 49.6555 309.439 69.7748 50.2559 307.516 71.2665 49.7031 
284.296 77.9511 48.9856 285.338 77.0658 48.4568 298.938 76.6221 48.8327 
302.588 74.6006 48.967 283.244 79.7236 48.4334 281.998 81.901 47.5543 
281.105 83.55 46.9451 281.462 83.1001 47.2847 282.005 83.427 47.674 
311.8 66.6775 51.4606 311.388 67.4682 51.0682 311.775 67.3011 51.319 
311.838 67.5759 51.3897 311.547 68.0721 51.2643 310.49 69.0822 50.6627 
308.684 70.4881 50.1148 309.632 69.9207 50.9282 289.166 72.8239 50.0495 
286.484 74.7676 50.5296 286.73 74.6898 50.028 304.331 73.3577 49.77 
304.52 73.3862 49.163 300.416 75.0925 50.0469 301.592 74.9456 49.432 
286.02 80.197 49.5303 281.723 83.0995 47.5539 313.173 65.7548 52.4987 
304.885 67.5944 50.4224 310.308 69.4097 50.9945 288.002 72.7337 51.5406 
310.716 69.1336 51.495 304.363 72.8416 50.7072 286.202 75.2372 50.7666 
284.974 77.0204 49.7884 284.833 77.3977 49.8256 285.24 76.9088 50.1722 
284.608 77.9174 49.6864 313.908 64.2338 53.4875 313.929 64.9774 53.28 
313.684 65.799 53.0311 312.876 66.8012 52.3319 312.482 67.2921 52.1362 
289.597 71.0099 52.0625 311.377 68.4485 51.9288 288.358 72.2138 52.2224 
287.71 73.1089 51.8998 286.976 74.1072 51.3384 302.754 72.5679 51.8961 
286.046 75.5925 50.7429 294.722 74.6178 52.2125 285.611 76.6754 50.5226 
284.94 77.9814 49.9812 286.082 77.8441 50.5279 285.685 77.6889 50.4559 
313.521 63.1346 53.878 314.691 63.062 54.4352 314.752 63.7802 54.2998 
302.457 65.0585 52.7436 313.897 65.6521 53.3296 290.653 69.626 53.0897 
312.775 67.0321 52.8699 310.6 68.5249 52.8859 288.383 72.2556 52.4681 
287.967 73.0992 52.3335 288.722 75.0289 52.149 286.09 76.2295 50.8615 
285.712 77.2662 50.5585 313.965 62.5066 54.3947 315.084 62.0444 55.0939 
308.115 62.9486 53.692 314.837 64.0873 54.4128 293.961 66.9157 53.7568 
293.916 66.6564 54.1941 314.248 65.2062 54.106 292.05 67.9771 54.2789 
293.003 67.3185 54.101 313.957 65.6357 53.7555 290.893 69.2232 53.9419 
312.5 67.1329 53.1628 306.142 69.3633 53.9346 289.642 70.8062 53.245 
288.648 72.0705 52.747 299.907 71.6804 53.4369 287.916 73.5464 52.2861 
300.396 63.255 55.0354 298.085 63.9757 55.213 293.77 66.4917 54.8774 
293.505 66.7059 55.1869 314.533 64.7582 54.6215 314.833 64.4655 54.7981 
314.948 64.2934 54.8881 312.184 66.4432 54.5291 312.702 65.8749 54.8771 
313.959 65.5606 54.0356 314.897 64.3811 54.903 291.224 68.9275 54.4237 
290.379 70.1445 53.9364 312.002 60.356 55.6557 318.11 59.7538 57.6447 
299.73 62.8499 55.8315 302.952 61.7718 55.8979 316.853 61.4252 56.7709 
315.76 62.745 55.9277 316.412 61.951 56.7078 294.808 65.5882 55.8016 
296.025 64.7322 55.7729 296.75 64.3513 55.661 293.965 66.3104 55.4756 
292.067 67.949 54.7875 308.787 65.8196 56.3606 292.058 68.0477 54.9119 
292.291 67.9429 55.1082 304.746 66.7666 56.3013 291.959 68.3321 54.9622 
306.552 59.9376 56.9038 317.902 60.4462 57.6619 295.914 64.8029 56.4816 
315.354 62.5344 57.1167 317.58 60.8348 57.5453 314.881 63.3632 56.3705 
315.34 63.2146 56.0154 317.298 61.2308 57.3449 294.55 65.9809 55.9513 
304.595 65.5734 57.1569 294.507 68.4811 55.7664 291.75 69.0808 55.0186 
291.496 69.1685 54.8572 292.146 69.0884 55.1344 319.809 57.2048 59.1323 
[...]
POINT_DATA 1116
SCALARS scalars float
LOOKUP_TABLE default
1 1 1 1 1 1 1 1 1 
1 1 1 1 1 1 1 1 1 
1 1 1 1 1 1 1 1 1 
1 1 1 1 1 1 1 1 1 
1 1 1 1 1 1 1 1 1 
1 1 1 1 1 1 1 1 1 
1 1 1 1 1 1 1 1 1 
1 1 1 1 1 1 1 1 1 
1 1 1 1 1 1 1 1 1 
1 1 1 1 1 1 1 1 1 
1 1 1 1 1 1 1 1 1 
1 1 1 1 1 1 1 1 1 
1 1 1 1 1 1 1 1 1 
1 1 1 1 1 1 1 1 1 
1 1 1 1 1 1 1 1 1 
1 1 1 1 1 1 1 1 1 
1 1 1 1 1 1 1 1 1 
1 1 1 1 1 1 1 1 1 
1 1 1 1 1 1 1 1 1 
1 1 1 1 1 1 1 1 1 
1 1 1 1 1 1 1 1 1 
1 1 1 1 1 1 1 1 1 
1 1 1 1 1 1 1 1 1 
1 1 1 1 1 1 1 1 1 
1 1 1 1 1 1 1 1 1 
1 1 1 1 1 1 1 1 1 
1 1 1 1 1 1 1 1 1 
1 1 1 1 1 1 1 1 1 
1 1 1 1 1 1 1 1 1 
1 1 1 1 1 1 1 1 1 
1 1 1 1 1 1 1 1 1 
1 1 1 1 1 1 1 1 1 
1 1 1 1 1 1 1 1 1 
1 1 1 1 1 1 1 1 1 
1 1 1 1 1 1 1 1 1 
1 1 1 1 1 1 1 1 1 
1 1 1 1 1 1 1 1 1 
1 1 1 1 1 1 1 1 1 
1 1 1 1 1 1 1 1 1 
1 1 1 1 1 1 1 1 1 
1 1 1 1 1 1 1 1 1 
1 1 1 1 1 1 1 1 1 
1 1 1 1 1 1 1 1 1 
1 1 1 1 1 1 1 1 1 
1 1 1 1 1 1 1 1 1 
1 1 1 1 1 1 1 1 1 
1 1 1 1 1 1 1 1 1 
1 1 1 1 1 1 1 1 1 
1 1 1 1 1 1 1 1 1 
1 1 1 1 1 1 1 1 1 
1 1 1 1 1 1 1 1 1 
1 1 1 1 1 1 1 1 1 
1 1 1 1 1 1 1 1 1 
1 1 1 1 1 1 1 1 1 
1 1 1 1 1 1 1 1 1 
1 1 1 1 1 1 1 1 1 
1 1 1 1 1 1 1 1 1 
1 1 1 1 1 1 1 1 1 
1 1 1 1 1 1 1 1 1 
1 1 1 1 1 1 1 1 1 
1 1 1 1 1 1 1 1 1 
1 1 1 1 1 1 1 1 1 
1 1 1 1 1 1 1 1 1 
1 1 1 1 1 1 1 1 1 
1 1 1 1 1 1 1 1 1 
1 1 1 1 1 1 1 1 1 
1 1 1 1 1 1 1 1 1 
1 1 1 1 1 1 1 1 1 
1 1 1 1 1 1 1 1 1 
1 1 1 1 1 1 1 1 1 
1 1 1 1 1 1 1 1 1 
1 1 1 1 1 1 1 1 1 
1 1 1 1 1 1 1 1 1 
1 1 1 1 1 1 1 1 1 
1 1 1 1 1 1 1 1 1 
1 1 1 1 1 1 1 1 1 
1 1 1 1 1 1 1 1 1 
1 1 1 1 1 1 1 1 1 
1 1 1 1 1 1 1 1 1 
1 1 1 1 1 1 1 1 1 
1 1 1 1 1 1 1 1 1 
1 1 1 1 1 1 1 1 1 
1 1 1 1 1 1 1 1 1 
1 1 1 1 1 1 1 1 1 
1 1 1 1 1 1 1 1 1 
1 1 1 1 1 1 1 1 1 
1 1 1 1 1 1 1 1 1 
1 1 1 1 1 1 1 1 1 
1 1 1 1 1 1 1 1 1 
1 1 1 1 1 1 1 1 1 
1 1 1 1 1 1 1 1 1 
1 1 1 1 1 1 1 1 1 
1 1 1 1 1 1 1 1 1 
1 1 1 1 1 1 1 1 1 
1 1 1 1 1 1 1 1 1 
1 1 1 1 1 1 1 1 1 
1 1 1 1 1 1 1 1 1 
1 1 1 1 1 1 1 1 1 
1 1 1 1 1 1 1 1 1 
1 1 1 1 1 1 1 1 1 
1 1 1 1 1 1 1 1 1 
1 1 1 1 1 1 1 1 1 
1 1 1 1 1 1 1 1 1 
1 1 1 1 1 1 1 1 1 
1 1 1 1 1 1 1 1 1 
1 1 1 1 1 1 1 1 1 
1 1 1 1 1 1 1 1 1 
1 1 1 1 1 1 1 1 1 
1 1 1 1 1 1 1 1 1 
1 1 1 1 1 1 1 1 1 
1 1 1 1 1 1 1 1 1 
1 1 1 1 1 1 1 1 1 
1 1 1 1 1 1 1 1 1 
1 1 1 1 1 1 1 1 1 
1 1 1 1 1 1 1 1 1 
1 1 1 1 1 1 1 1 1 
1 1 1 1 1 1 1 1 1 
1 1 1 1 1 1 1 1 1 
1 1 1 1 1 1 1 1 1 
1 1 1 1 1 1 1 1 1 
1 1 1 1 1 1 1 1 1 
1 1 1 1 1 1 1 1 1 
1 1 1 1 1 1 1 1 1 
1 1 1 1 1 1 1 1 1 

NORMALS Normals float
0.100775 0.213905 -0.971642 0.242358 0.311754 -0.918734 0.629074 0.128578 -0.766638 
0.589847 0.389932 -0.707131 0.0892098 0.55971 -0.823873 -0.169756 0.519481 -0.83745 
0.418988 -0.218566 -0.881293 0.142897 -0.256821 -0.955837 0.358971 -0.0898891 -0.92901 
-0.0522247 0.123055 -0.991025 0.2806 0.711806 -0.643891 0.549107 0.508145 -0.663529 
-0.177595 0.0303276 -0.983636 0.049774 0.473136 -0.879582 0.132921 0.520655 -0.843357 
-0.52052 0.272758 -0.809112 -0.255256 0.325552 -0.910418 -0.248738 0.341506 -0.906368 
-0.167072 0.450319 -0.877098 -0.15202 0.283166 -0.946946 0.13846 0.646818 -0.749971 
-0.372234 0.624138 -0.686945 -0.149139 0.703354 -0.695019 -0.0842897 0.799948 -0.59412 
0.310148 -0.241917 -0.919393 0.57298 -0.203752 -0.793839 -0.042577 -0.228028 -0.972723 
0.978223 0.109379 0.176398 0.76766 -0.0302002 -0.640145 0.984084 0.0134653 -0.177194 
0.925256 0.246102 -0.288678 0.921546 0.277231 -0.27184 0.605211 0.297484 -0.738392 
0.857129 0.227419 -0.46218 0.309272 0.64592 -0.697953 0.458407 0.291539 -0.839564 
-0.837586 -0.0144299 -0.546116 -0.614095 -0.0827771 -0.784879 0.287216 0.856906 -0.42804 
0.343147 0.936643 0.0703577 0.361501 0.924239 0.122881 0.711254 0.362932 -0.601995 
0.133445 0.976382 -0.169915 0.281502 0.859322 -0.426991 0.296786 0.908928 -0.292863 
0.551376 0.83029 -0.0812587 -0.714447 0.240523 -0.65705 -0.922336 0.267642 -0.278683 
-0.697859 0.577432 -0.423752 -0.492396 0.741289 -0.456111 0.455974 -0.296008 -0.839325 
0.311607 -0.282853 -0.907136 0.668806 -0.262519 -0.695545 0.910552 0.282219 0.302072 
0.83058 0.327038 0.450759 -0.773611 -0.219631 -0.594381 0.81515 0.297634 0.496935 
0.963124 0.186451 0.193981 0.878538 0.469223 0.0894481 -0.934091 -0.114994 -0.338008 
-0.645029 -0.187931 -0.740688 -0.45513 -0.192873 -0.869285 0.502271 0.736835 0.452547 
0.793913 0.60029 0.0967135 0.625349 0.555218 0.548336 -0.756333 -0.0779913 -0.649521 
0.860667 0.475138 0.183018 0.244 0.934726 -0.258361 0.0944519 0.994048 0.0542876 
0.264117 0.891637 -0.367731 -0.134342 0.986107 -0.0977002 0.62202 0.78089 0.057457 
0.358624 0.786125 0.503385 0.368262 0.857935 0.358233 -0.639416 0.56988 0.516124 
-0.758311 0.651379 -0.0258603 -0.515048 0.753418 0.408763 -0.109105 0.953287 -0.281672 
0.132505 0.941455 0.310007 0.0781811 0.995714 0.0494047 0.268827 0.903445 0.333944 
-0.415856 0.907171 0.0640707 -0.0714214 0.966888 0.245005 -0.0233675 -0.328443 -0.944235 
-0.130053 -0.37076 -0.919578 0.0812163 -0.325278 -0.942124 0.880542 -0.0675631 -0.469129 
-0.673077 -0.3267 -0.663502 -0.396037 -0.312292 -0.863498 -0.775664 -0.236238 -0.585267 
0.637174 0.377133 0.672146 -0.960643 -0.0541982 -0.272449 -0.991418 0.111335 -0.0685137 
-0.852793 0.379209 0.359087 0.152004 0.89 0.429877 0.227854 0.755427 0.614339 
-0.2224 0.793147 0.566971 -0.055841 0.757218 0.650771 0.645231 -0.126351 -0.753467 
0.597041 -0.13671 -0.790476 0.101677 -0.338196 -0.935567 0.94563 0.201374 -0.255406 
-0.178827 -0.326775 -0.92803 0.00906357 -0.235641 -0.971798 0.900381 0.154251 -0.406841 
0.956776 0.245326 -0.156187 -0.308159 -0.427431 -0.849906 0.968373 0.223469 0.110977 
0.782357 0.406217 0.472129 0.683976 0.483622 0.546156 0.342236 0.577539 0.741163 
-0.993738 -0.110213 -0.0183662 0.292342 0.528415 0.797066 -0.912477 0.158048 0.377367 
-0.910939 0.136179 0.389416 -0.419094 0.457956 0.783987 0.130861 0.703241 0.698804 
-0.338152 -0.482832 -0.807791 -0.730642 -0.43946 -0.522529 -0.888561 -0.317675 -0.330972 
0.925236 0.361241 0.115943 -0.920205 -0.278804 -0.274756 0.629005 0.462908 0.624556 
-0.96086 -0.0351511 0.274794 0.365652 0.423559 0.828792 -0.850831 0.139497 0.506583 
0.244764 0.488786 0.837364 -0.910576 0.00177603 0.413339 -0.768616 0.197271 0.608534 
0.105334 0.521869 0.846497 -0.0861738 0.487041 0.869117 0.485848 -0.0987586 -0.868446 
0.632307 0.0390598 -0.773733 0.718752 0.0779488 -0.690883 0.889474 0.431192 -0.151356 
-0.623147 -0.472228 -0.623449 -0.926121 -0.353762 -0.130968 -0.782229 -0.454639 -0.425937 
-0.938782 -0.316103 -0.13699 0.913927 0.354929 0.19688 0.557492 0.452676 0.695907 
0.122346 0.392591 0.911539 0.25688 0.470161 0.84437 -0.725612 0.141204 0.673461 
-0.100774 0.341669 0.934402 0.0955436 0.417127 0.903812 -0.187982 0.424396 0.885749 
0.483935 -0.10732 -0.868498 0.37957 -0.108983 -0.918721 0.648304 -0.00149374 -0.76138 
0.584195 0.0165051 -0.811446 -0.0919798 -0.376992 -0.921638 0.829232 0.315682 -0.461214 
-0.860156 -0.48274 -0.164599 -0.811138 -0.425082 -0.401697 -0.938846 -0.258679 -0.227273 
-0.927868 -0.31923 -0.192754 -0.952169 -0.302393 0.0439572 -0.964446 -0.205253 0.16648 
-0.971253 -0.131398 0.198498 -0.796472 0.0167854 0.604443 -0.694179 0.0916256 0.713947 
-0.556069 0.301209 0.774636 -0.240347 0.316872 0.91751 -0.396233 0.32343 0.859298 
-0.515251 0.305664 0.800679 -0.241939 0.369709 0.897096 0.527525 0.0633153 -0.847177 
0.608972 0.0414954 -0.792106 0.759012 0.159493 -0.631239 0.768485 0.153032 -0.621299 
0.662182 0.20485 -0.720799 0.838865 0.385131 -0.384681 -0.684588 -0.51035 -0.520463 
0.901342 0.423941 -0.0886389 -0.670319 -0.458875 -0.583186 0.842286 0.500003 0.201373 
0.767014 0.51554 0.381979 -0.93849 -0.343706 -0.0332173 -0.936709 -0.340292 0.0823285 
-0.972423 -0.207331 0.106802 -0.945396 -0.278298 0.169638 -0.928138 -0.0706827 0.365465 
-0.551053 0.104722 0.827873 0.0724715 -0.325883 -0.942628 -0.446689 -0.533223 -0.71843 
0.865305 0.397748 -0.305031 -0.680966 -0.568148 -0.462054 -0.454179 -0.309 -0.835607 
-0.807244 -0.443755 -0.389152 -0.901877 -0.413542 -0.124904 0.896549 0.442893 -0.00675001 
0.778718 0.584987 0.226693 0.827509 0.542456 0.14481 -0.913182 -0.224475 0.340162 
-0.904657 -0.202836 0.374771 -0.214067 0.356897 0.909285 -0.597537 0.104067 0.79506 
-0.353526 0.25604 0.899702 0.287684 -0.132931 -0.948455 0.712567 0.461533 -0.528427 
-0.916911 -0.36032 0.171591 -0.867781 -0.484681 -0.109728 0.778159 0.394904 0.488385 
-0.926111 -0.338668 0.166199 0.639208 0.566937 0.519611 -0.657151 0.00960217 0.753698 
0.560366 0.598666 0.572354 -0.843604 -0.13124 0.52068 -0.724109 -0.0374118 0.68867 
-0.589368 0.185716 0.786229 -0.286678 0.314958 0.904774 -0.541481 0.142272 0.828588 
0.327773 0.130378 -0.935717 0.282875 0.132329 -0.949985 0.33287 0.203469 -0.920759 
0.156657 -0.178262 -0.971432 0.327105 0.0788618 -0.941691 0.375224 0.117291 -0.919483 
0.359187 0.0180218 -0.933091 -0.835101 -0.493092 -0.243858 -0.848718 -0.484186 -0.212699 
-0.935509 -0.351083 0.0395327 0.66537 0.678982 0.310268 -0.908683 -0.381255 0.170117 
-0.870912 -0.209717 0.444444 0.343719 0.55347 0.758636 0.594692 0.515577 0.616864 
0.123294 0.468157 0.875002 -0.199625 0.316497 0.927351 -0.472033 0.149651 0.868786 
0.56197 0.323088 -0.761449 0.332879 0.125257 -0.934613 0.388959 0.422318 -0.818754 
-0.126377 -0.555111 -0.82212 0.620075 0.44626 -0.645259 0.464936 0.515126 -0.720055 
0.535077 0.518556 -0.666927 -0.535382 -0.524033 -0.662386 -0.365505 -0.50471 -0.782096 
-0.879576 -0.0854665 0.468019 0.259934 0.531116 0.806443 -0.431422 0.205154 0.878514 
0.213891 -0.0351032 -0.976227 0.317991 0.268026 -0.909419 0.471444 0.349277 -0.809781 
0.547027 0.387202 -0.742183 0.466157 0.632427 -0.618655 0.647144 0.602017 -0.46774 
0.426098 0.761988 -0.487662 0.408127 0.908556 -0.0892152 0.641339 0.756066 -0.130571 
0.426319 0.836307 -0.344735 0.691812 0.644271 -0.326053 -0.612856 -0.455913 -0.645407 
-0.81383 -0.541058 -0.211984 0.522869 0.852128 -0.0220347 0.66053 0.745682 -0.0875126 
-0.944612 -0.189238 0.268137 -0.92907 -0.228544 0.290853 0.0319068 0.435913 0.899423 
-0.492641 0.197835 0.847447 0.438093 -0.0332038 -0.898316 0.501752 -0.0437691 -0.863903 
0.009401 -0.272066 -0.962233 0.520271 0.351923 -0.778118 0.588381 0.557196 -0.585952 
0.647177 0.633162 -0.42458 0.556245 0.772612 -0.306044 -0.707631 -0.6469 -0.284217 
-0.875001 -0.476534 0.0853726 -0.85985 -0.319638 0.398108 -0.870845 -0.206576 0.446045 
-0.878838 -0.0344769 0.475873 -0.76961 0.0136296 0.638369 0.362961 -0.131916 -0.922419 
0.696407 0.415112 -0.585406 0.59129 0.414839 -0.691581 0.611376 0.73055 -0.304163 
-0.80947 -0.584447 -0.0563945 -0.571665 -0.658198 -0.489871 0.43642 0.765908 0.472147 
0.50425 0.820228 0.270107 -0.874283 -0.358275 0.327517 -0.865807 -0.333342 0.373178 
-0.892581 -0.34028 0.29582 -0.716493 -0.00621979 0.697566 -0.279423 0.321173 0.90486 
0.496183 -0.251683 -0.830938 0.331636 -0.193211 -0.923411 0.632737 -0.01124 -0.774286 
0.7427 0.137909 -0.65527 0.728404 0.376117 -0.572681 0.666492 0.554544 -0.498267 
0.60698 0.664171 -0.436409 0.588365 0.806529 -0.0577692 -0.274387 -0.70969 -0.648885 
-0.798721 -0.586068 -0.136271 -0.600978 -0.673346 -0.430618 0.367152 0.836175 0.407444 
0.612357 0.790533 0.0087263 0.353972 0.654498 0.668084 0.473121 0.781654 0.406416 
-0.174252 0.365256 0.914453 -0.568035 0.0317421 0.822392 0.414761 -0.288734 -0.862906 
-0.0235973 -0.480321 -0.876775 0.545298 0.838085 0.0162096 -0.752895 -0.638039 -0.161418 
0.62738 0.778093 0.0310918 0.412875 0.772378 0.482665 -0.890062 -0.445317 0.0973827 
-0.84732 -0.408663 0.339182 -0.792988 -0.201603 0.574914 -0.773064 -0.371535 0.514134 
-0.805874 -0.185329 0.562334 0.445459 -0.263714 -0.855583 0.601772 -0.123574 -0.78905 
0.828244 0.429389 -0.360051 0.764984 0.238332 -0.598329 0.757829 0.629536 -0.171407 
-0.490148 -0.759392 -0.427877 0.675275 0.73088 0.0990899 -0.779761 -0.620759 0.0814273 
-0.858491 -0.382696 0.341374 -0.83693 -0.500783 0.220825 0.239253 0.665696 0.706828 
-0.860961 -0.3543 0.36499 0.106492 0.550048 0.828315 -0.68785 -0.0608619 0.723297 
-0.57855 0.0917574 0.810469 -0.244461 0.328193 0.91243 -0.490447 0.229121 0.840812 
0.121012 -0.439556 -0.890026 0.615748 -0.236276 -0.751683 0.645494 -0.178182 -0.742691 
-0.137083 -0.678026 -0.722142 0.858913 0.41883 -0.294702 -0.624691 -0.742438 -0.241965 
0.667949 0.715315 0.20535 0.39975 0.791569 0.462188 -0.825121 -0.486967 0.286424 
-0.589848 -0.0429995 0.806368 -0.15052 0.33801 0.929028 -0.633873 -0.11318 0.765111 
-0.472485 0.143351 0.869602 0.303269 -0.446063 -0.842054 0.411833 -0.403008 -0.817299 
-0.0563106 -0.605546 -0.793815 0.862609 0.161127 -0.479525 -0.408675 -0.654507 -0.636086 
-0.52662 -0.792756 -0.306935 0.653306 0.694461 0.301522 -0.653753 -0.711251 -0.258319 
-0.592248 -0.751307 -0.291171 0.688579 0.71962 0.0894804 -0.740131 -0.667692 0.0799576 
0.583028 0.751095 0.309732 0.251071 0.649447 0.717762 -0.800021 -0.386149 0.459189 
-0.702853 -0.350066 0.619234 0.213911 0.607874 0.764677 -0.584786 -0.00364048 0.811179 
-0.190366 -0.774911 -0.602722 -0.366148 -0.758812 -0.538647 -0.610054 -0.761608 -0.218603 
-0.702347 -0.684451 0.19554 0.417201 0.774183 0.476009 0.685739 0.727539 0.0211955 
0.874433 0.463963 -0.141792 0.441446 0.699553 0.561917 0.427481 0.722642 0.543183 
0.583297 0.732131 0.351778 0.671401 0.678881 0.297221 -0.76018 -0.612104 0.217841 
-0.746248 -0.15912 0.646371 0.00235659 -0.658656 -0.752441 0.830681 0.34185 -0.439441 
-0.281767 -0.836633 -0.469737 -0.196054 -0.777928 -0.596985 0.802488 0.544201 -0.244658 
0.749284 0.621795 0.227915 0.62891 0.761086 0.158809 -0.656901 -0.723072 0.213652 
-0.516842 -0.796329 -0.314222 -0.479595 -0.810591 -0.336053 -0.612068 -0.780942 0.12451 
-0.751349 -0.607948 0.256659 0.219553 0.655484 0.72259 -0.772409 -0.454574 0.443562 
-0.632352 -0.407283 0.658978 0.174364 0.614772 0.76919 -0.670648 -0.279357 0.687161 
-0.234209 -0.760172 -0.60604 0.801401 0.592333 0.0830498 -0.628756 -0.762995 0.150017 
0.328305 0.756575 0.565517 0.782414 0.619785 0.0607793 0.465425 0.717183 0.51868 
0.722135 0.561984 0.403354 0.719463 0.694302 0.0178154 -0.639987 -0.39685 0.657972 
0.0670388 0.475005 0.877426 0.0149634 0.359624 0.932977 -0.443494 -0.156882 0.882441 
-0.696609 -0.294137 0.654385 -0.307915 0.101381 0.945997 0.505878 -0.183742 -0.842809 
0.616996 -0.00253865 -0.786963 -0.124323 -0.814688 -0.566417 0.764255 0.389861 -0.513735 
0.779935 0.268625 -0.56528 -0.500867 -0.863432 0.0601358 -0.40526 -0.882315 -0.239341 
-0.285318 -0.856137 -0.430839 -0.588069 -0.788059 0.182039 -0.402796 -0.86388 -0.302436 
-0.346716 -0.848659 -0.399456 0.814179 0.562224 -0.144969 -0.580369 -0.762461 -0.28605 
-0.501815 -0.800116 -0.328627 -0.605011 -0.35386 0.713263 -0.607401 -0.291436 0.739005 
-0.36741 0.0350527 0.929398 -0.490916 0.0740006 0.868059 0.296304 -0.557486 -0.775508 
0.2373 -0.543042 -0.805477 0.600656 -0.299821 -0.741162 0.647434 -0.173321 -0.742152 
0.619827 -0.217016 -0.754134 -0.308318 -0.891733 -0.331288 0.801354 0.498951 -0.32997 
0.750526 0.659748 -0.0379853 -0.666282 -0.608643 0.430839 0.20037 0.674548 0.710519 
0.117243 0.605048 0.78751 0.49591 0.67875 0.541639 -0.564518 -0.484879 0.66799 
-0.43752 -0.108808 0.892601 -0.397957 0.0606808 0.915395 -0.0981601 -0.8211 -0.56228 
0.0325352 -0.734948 -0.677342 0.254463 -0.536307 -0.80475 -0.273113 -0.859962 -0.431132 
-0.365122 -0.930945 -0.00523581 -0.288035 -0.940797 -0.178712 0.810456 0.579941 -0.0826353 
-0.486534 -0.820437 0.30028 -0.484784 -0.861292 0.152185 -0.481163 -0.831249 0.2784 
-0.544216 -0.712919 0.44224 -0.453467 -0.429951 0.780711 -0.302322 -0.178973 0.936253 
-0.146315 -0.00325689 0.989233 -0.0528864 0.262557 0.963466 -0.130703 0.283029 0.950164 
0.472677 -0.441167 -0.762855 0.525249 -0.28059 -0.803357 0.7352 -0.439855 -0.515761 
0.770339 0.30231 -0.561414 0.757165 0.531087 -0.380326 0.915618 0.294261 -0.273958 
-0.407824 -0.897928 0.165547 -0.545087 -0.795726 0.264007 0.542293 0.798362 0.261796 
-0.479677 -0.410399 0.775553 -0.452613 -0.815758 0.360112 -0.36267 -0.178552 0.914653 
0.144875 0.592888 0.792146 0.531286 0.729198 0.431284 -0.347995 -0.122316 0.929483 
-0.228207 0.0889628 0.96954 0.0231469 0.508304 0.860866 -0.415681 -0.450241 0.790249 
-0.0471888 0.231286 0.971741 -0.292208 0.224496 0.929632 -0.249275 -0.218475 0.943467 
-0.0612647 -0.78973 -0.610387 0.0659858 -0.843655 -0.532815 0.255481 -0.935181 -0.245288 
0.290555 -0.843104 -0.452498 -0.492894 -0.858571 0.141106 0.960166 -0.0419657 0.276262 
0.592758 0.711556 0.377261 0.853112 0.39344 0.342644 -0.53984 -0.629303 0.559062 
-0.469196 -0.562978 0.680375 0.645014 0.691701 0.324818 -0.482578 -0.29844 0.823439 
-0.126323 0.191519 0.973326 -0.426152 -0.471028 0.772351 0.0459672 0.385546 0.921543 
-0.389252 0.10945 0.914606 -0.0697767 0.453531 0.888505 -0.390361 -0.126748 0.911895 
-0.0324796 -0.965494 -0.258392 0.137447 -0.939024 -0.315186 -0.33931 -0.932473 -0.123949 
0.24881 -0.966328 -0.0656033 0.258694 -0.961128 -0.0964865 0.418487 -0.389972 0.820238 
-0.528404 -0.599515 0.601141 0.702802 -0.711137 0.0188115 0.567424 -0.515992 0.641702 
-0.486724 -0.657899 0.57469 0.530963 0.212464 0.820328 0.534025 0.501751 0.680488 
-0.36053 -0.17594 0.916004 0.318791 0.600592 0.733254 -0.467001 -0.508626 0.723332 
-0.229949 -0.014501 0.973095 -0.0201091 0.407228 0.913105 0.391187 0.64567 0.655807 
-0.277694 -0.924742 0.260266 -0.12983 -0.983455 0.126333 -0.057244 -0.989597 -0.131989 
0.116931 -0.854506 0.506109 0.206199 -0.838506 0.504371 0.282686 -0.733264 0.618396 
0.289641 -0.929897 0.226716 -0.499326 -0.750896 0.432238 -0.385678 -0.886849 0.254464 
0.181327 -0.615506 0.766989 0.378549 -0.209682 0.901517 0.282749 -0.314883 0.906036 
0.35227 -0.279281 0.893257 0.337971 -0.728091 0.596372 -0.450479 -0.511845 0.731494 
-0.407247 -0.243477 0.880267 0.186486 0.353695 0.916582 0.306659 0.286032 0.907825 
0.341911 0.41451 0.843373 -0.0282814 0.385641 0.922215 0.0549069 0.405474 0.912456 
-0.306267 -0.111566 0.945386 -0.146437 -0.312563 0.938542 0.00496387 -0.67967 0.733501 
-0.0115377 -0.195666 0.980603 -0.413198 -0.810899 0.41438 0.200655 -0.113954 0.973012 
-0.354201 0.015341 0.935043 0.249842 0.141561 0.957883 0.303668 0.0873591 0.948764 
-0.212683 0.0917606 0.972803 0.0845914 0.290613 0.953094 0.0989633 0.19653 0.975491 
0.181149 -0.00739066 0.983428 -0.298484 -0.31668 0.900345 -0.0753426 0.0897035 0.993115 
-0.184511 -0.0862409 -0.979039 -0.150152 -0.689185 -0.708857 0.139983 -0.0527151 -0.98875 
0.0599294 -0.614056 -0.786984 0.264411 -0.600142 -0.754928 0.251427 0.292227 -0.922707 
-0.481557 -0.574447 -0.661901 -0.31264 -0.781742 -0.53957 -0.025082 -0.919816 -0.391548 
0.386431 -0.116883 -0.914882 -0.217153 -0.964949 -0.147367 -0.0175709 -0.900157 -0.435211 
0.00423121 -0.976938 -0.213483 0.0572633 -0.993345 0.0999358 -0.353801 -0.935259 -0.0107121 
0.0529685 -0.918219 -0.392515 0.268809 -0.760231 -0.591431 0.234501 -0.654827 -0.718478 
0.237169 -0.852655 -0.465543 -0.439864 -0.320178 -0.83905 0.253796 -0.1438 -0.956509 
-0.345716 -0.247329 -0.905156 -0.435949 -0.437618 -0.786409 -0.24123 0.0745185 -0.967603 
0.304459 -0.154356 -0.939936 0.251095 0.113929 -0.961234 0.210901 0.0882351 -0.973517 
0.189802 0.0970985 -0.977009 0.160067 0.496203 -0.853323 0.293996 -0.355687 -0.88716 
0.282284 0.160163 -0.945866 -0.247644 0.0160286 -0.968719 -0.145687 0.238224 -0.960221 
-0.173317 -0.868291 0.464792 0.24098 -0.954736 -0.17438 0.209969 -0.935378 0.284571 
-0.439671 -0.809218 -0.389688 -0.435963 -0.894384 -0.100071 -0.531895 -0.769479 -0.353539 
-0.402956 -0.871027 -0.28096 0.276834 -0.686058 -0.672821 -0.0115332 -0.943481 0.331227 
0.32102 -0.765716 -0.557337 -0.53017 -0.538086 -0.655274 0.364406 -0.484554 -0.795245 
0.813928 -0.550258 -0.186382 0.599544 0.386741 -0.700698 0.475105 -0.749769 -0.460567 