# vtk DataFile Version 4.2
vtk output
ASCII
DATASET POLYDATA
POINTS 1102 float
282.717 105.347 35.2369 277.84 107.655 35.5444 277.658 107.647 35.5667 
281.944 103.449 35.2224 284.215 103.749 36.1298 279.236 105.654 35.1108 
275.155 107.586 36.3193 274.98 107.353 36.3765 274.944 107.623 36.5135 
281.483 101.135 35.7694 284.166 101.44 36.2893 279.412 102.548 35.448 
278.54 104.007 35.265 284.668 103.725 36.454 284.558 103.984 36.3356 
284.652 103.959 36.3803 284.536 104.382 36.4461 284.625 104.091 36.3792 
275.231 105.771 36.1298 282.545 106.282 35.6774 275.01 106.83 36.3057 
283.257 106.341 36.1222 275.143 108.14 36.7823 277.493 108.209 36.0938 
276.6 103.48 35.8622 284.837 103.95 36.6397 284.946 104.066 36.7649 
284.682 104.025 36.4396 274.617 103.878 36.903 275.381 104.395 36.219 
275.855 104.464 35.9703 284.836 104.68 36.8227 274.408 105.193 36.8646 
284.463 105.291 36.8461 284.803 104.801 36.8954 274.051 106.238 37.3154 
284.13 105.836 36.6319 284.089 106 36.6506 283.811 106.233 36.5897 
284.025 106.08 36.6426 274.098 107.506 37.5991 277.58 108.465 36.3495 
274.454 108.197 37.7325 275.252 108.352 36.9701 277.042 108.52 36.6051 
285.407 95.637 38.6658 283.953 96.1541 37.9504 285.071 96.8234 38.2258 
279.141 99.0183 36.802 276.007 101.055 36.9724 274.587 102.001 37.6099 
284.124 106.036 36.8543 273.788 106.865 37.9816 286.004 108.013 37.0087 
286.004 108.013 37.0087 286.004 108.013 37.0087 286.004 108.013 37.0088 
286.004 108.013 37.0088 279.009 110.004 37.0131 279.009 110.004 37.0131 
279.009 110.004 37.0131 279.009 110.004 37.0131 281.961 108.092 37.3337 
279.009 110.004 37.0131 285.91 93.722 39.3409 282.805 95.4868 37.9808 
285.883 95.1012 39.0745 286.088 96.4716 38.9749 274.058 101.403 38.81 
285.797 103.311 38.2078 273.561 106.433 38.8259 286.004 108.013 37.0088 
279.256 108.893 37.1516 279.009 110.004 37.0131 286.663 94.3695 39.7862 
275.066 109.092 39.5404 277.35 109.752 38.9761 287.302 98.1202 40.3592 
273.917 100.052 40.3845 286.79 104.252 40.7289 273.992 108.125 40.2581 
274.254 108.529 40.3562 284.968 107.993 40.994 275.076 109.29 40.2678 
287.768 87.6992 41.6299 288.844 90.3926 41.8456 279.236 90.6272 41.2713 
273.371 106.2 40.8966 273.826 107.831 40.7493 273.964 108.069 41.3471 
275.765 110.025 41.4767 287.313 84.8065 42.4437 280.427 87.9908 42.4272 
283.224 87.786 41.5166 278.978 89.1455 42.5534 274.159 108.336 42.4299 
284.428 109.216 42.2197 274.783 109.192 42.4666 276.773 110.408 41.6712 
277.475 110.583 41.7746 275.655 109.987 41.8363 279.625 110.93 42.5688 
292.054 81.8666 44.2099 289.7 82.696 43.4606 292.441 82.8802 44.2212 
285.403 84.0179 43.0469 273.844 107.345 42.8736 282.293 110.524 42.7197 
278.524 111.16 43.388 288.003 82.2535 43.612 278.312 88.3585 44.4077 
290.231 90.5939 43.2329 290.364 92.9367 44.1397 273.629 103.097 43.6652 
277.231 111.062 44.0049 299.976 76.3138 46.8066 295.214 77.8302 45.7583 
298.35 77.7986 46.4914 298.673 78.6536 46.7428 282.768 81.9521 45.6127 
280.557 84.0833 45.9287 293.914 84.0585 45.2458 277.582 89.4114 45.6823 
276.511 111.127 45.4303 276.706 111.237 45.4652 300.511 74.0623 47.2292 
301.574 74.582 47.24 302.418 74.252 47.4928 299.244 76.4166 46.712 
289.544 78.04 45.7635 285.224 80.1113 45.666 281.803 81.7374 47.0034 
297.235 81.7896 46.9863 277.612 89.6173 46.7181 277.298 90.169 46.3087 
274.514 107.374 45.5846 299.886 73.5482 47.3691 295.494 74.4249 47.0635 
291.473 75.6827 46.87 302.529 75.3844 47.6076 303.701 75.8915 48.255 
280.652 83.447 46.9808 275.193 97.9934 46.5346 289.408 106.279 47.4757 
307.872 70.4666 49.2984 308.356 71.4505 49.4018 304.577 75.1137 48.3944 
284.031 78.348 48.4996 285.016 78.0445 47.7201 282.38 80.3363 48.3472 
279.991 84.4997 47.9189 276.385 110.63 47.4356 311.472 68.93 50.8894 
306.958 68.942 49.6465 308.817 71.7985 49.6519 285.009 76.6478 49.9009 
286.78 76.0049 48.5141 283.956 78.1148 49.1358 304.376 76.6996 49.0259 
275.61 108.699 48.0932 287.324 111.072 49.1454 280.305 112.934 49.1875 
278.831 112.55 49.2362 312.185 67.0968 51.588 309.775 67.1097 50.8244 
311.949 69.3144 51.2038 292.207 72.0407 49.4211 309.242 72.5257 50.1045 
286.43 74.878 50.4237 306.985 74.5217 49.5047 284.589 77.0058 50.3572 
282.105 80.6613 49.4441 288.736 110.103 49.7487 278.546 112.35 50.3156 
313.829 66.3196 52.7584 297.747 68.6341 50.7016 289.636 71.796 51.0212 
311.689 72.1322 51.9223 284.215 77.4917 50.6415 282.613 80.1096 50.5336 
281.436 82.4887 50.6598 295.367 90.4714 50.3458 290.486 108.467 50.981 
276.969 110.427 50.1271 288.729 111.185 51.0329 289.169 110.906 51.2543 
286.366 112.744 50.913 313.799 64.5864 53.3152 314.65 65.0658 53.6093 
287.865 72.4993 52.9371 283.074 80.0214 51.7905 297.093 90.0162 52.2185 
276.897 102.213 51.6431 276.456 108.21 50.6065 313.03 63.3565 53.6705 
314.505 68.2496 53.4429 288.702 71.5239 53.4319 288.171 72.1388 53.3788 
284.469 77.7564 52.4087 310.597 63.0885 53.4971 292.172 67.7967 54.6292 
295.305 95.6269 53.4394 291.092 111.209 53.9983 278.861 112.013 53.8429 
279.726 113.248 53.9094 280.241 113.737 54.1042 280.99 114.101 54.3285 
280.296 113.777 54.2407 314.756 60.872 55.6231 296.976 64.4579 55.4327 
295.929 65.13 55.1166 286.053 77.0122 54.7418 280.088 113.346 55.0255 
318.051 60.8949 57.0599 317.345 65.3147 56.2628 290.361 69.7353 55.4535 
290.167 113.574 56.1574 284.223 115.04 55.301 317.457 58.4224 57.8387 
318.86 58.5827 58.2611 315.194 59.3021 56.7733 316.779 59.4557 57.0357 
301.106 61.8063 56.879 303.124 61.0168 56.9957 301.383 89.9788 56.6212 
285.807 115.515 57.3425 319.713 57.8364 58.9674 313.231 58.2228 57.5632 
321.39 57.5762 59.8852 298.194 62.7408 58.1053 298.766 62.4873 58.0377 
299.204 62.2602 58.379 298.384 62.7942 57.6445 292.85 68.2588 58.062 
279.967 104.263 57.4834 281.079 113.724 57.7848 288.486 114.765 57.3066 
281.655 114.255 58.3509 282.365 115.026 58.0514 283.074 115.439 58.4922 
321.531 55.929 60.6518 321.947 56.137 60.7435 319.493 56.2454 59.7241 
321.657 56.7827 60.2785 322.362 56.558 60.9364 306.138 58.7845 59.8016 
308.941 58.0074 59.014 305.098 59.3008 59.2344 322.052 58.1786 60.5174 
302.298 60.6087 58.8003 298.478 62.7203 58.7187 297.792 63.1846 58.3358 
313.787 77.0711 57.8774 294.598 107.02 58.4538 281.104 113.459 58.2696 
284.233 115.766 58.6583 282.8 115.204 58.9693 283.068 115.486 58.8681 
283.133 115.491 59.052 283.243 115.575 58.8423 283.671 115.651 58.8411 
283.173 115.563 58.9534 317.336 55.6732 59.9817 322.234 56.1961 60.9374 
310.172 56.9689 60.4099 322.691 57.2763 61.262 304.084 59.6658 60.1027 
301.649 60.9417 59.526 302.097 60.8473 60.2503 293.522 111.016 59.6045 
280.932 112.675 58.6236 293.235 111.606 59.7452 292.168 112.918 59.1979 
287.378 115.461 58.751 285.144 115.844 59.4354 288.058 115.211 59.5771 
283.4 115.466 59.4074 283.309 115.579 59.0258 323.14 55.5491 61.9627 
323.043 55.3671 62.0014 323.203 55.4305 62.1239 322.972 55.8255 61.779 
323.267 55.5832 62.087 308.62 57.6442 61.2311 299.64 62.7996 60.479 
312.081 84.6792 61.4506 310.09 86.2784 60.8509 303.799 91.7742 60.2338 
297.909 99.7869 60.1095 296.647 102.787 60.3203 296.254 104.017 60.6911 
293.957 109.659 60.5303 293.286 111.212 60.3919 282.196 114.021 59.8153 
292.413 112.601 60.182 290.215 114.238 59.8731 285.754 115.747 59.7375 
290.953 113.731 60.2902 284.589 115.713 59.9642 287.847 115.094 60.3629 
313.808 55.2499 62.6377 315.289 54.7525 62.1415 317.215 54.1927 62.4052 
318.766 54.1126 62.3634 321.963 54.8187 62.0607 322.788 55.0714 62.1772 
322.638 54.9435 62.3037 323.218 55.3936 62.3154 323.299 55.7306 62.1463 
323.299 55.5737 62.2406 306.082 59.1398 61.7655 302.764 60.3229 60.1933 
322.95 58.9513 62.2983 303.479 93.8491 62.1177 283.794 100.33 61.8595 
298.101 100.832 62.0345 294.399 108.016 61.4622 294.109 109.018 61.2721 
282.311 110.433 61.341 293.181 110.709 61.2648 290.807 112.922 61.5448 
282.97 114.02 60.8342 287.791 114.523 61.4471 288.616 114.454 61.0995 
287.102 115.075 60.8811 284.256 115.569 60.4044 283.824 115.366 60.6567 
284.075 115.435 60.6939 318.452 53.8709 63.2588 317.939 53.8984 63.1585 
319.936 54.07 62.6779 320.985 54.2296 63.0133 322.598 54.9087 62.5187 
322.795 55.0583 62.6403 311.398 56.4304 62.8037 323.099 55.2504 62.3989 
323.01 55.2472 62.6093 310.504 57.2294 63.5536 323.269 56.2684 63.1143 
323.343 57.248 62.8766 306.74 59.1484 62.4387 302.963 61.6167 62.0972 
298.313 66.7113 62.3971 309.757 88.4559 62.6168 299.526 98.6096 62.2666 
283.862 103.619 62.6953 295.735 105.013 62.24 295.356 106.059 61.7376 
294.65 107.365 61.7839 293.203 109.903 61.8636 293.711 109.381 61.5799 
291.778 110.243 62.8019 283.502 113.459 61.68 286.58 114.022 62.1768 
283.989 114.296 61.6078 285.937 115.027 61.2551 283.937 115.297 60.8433 
284.223 115.268 60.9813 317.436 53.8461 63.7585 317.614 53.7988 63.6795 
318.885 53.9174 63.7275 318.653 53.9499 63.9348 319.866 54.0061 63.4008 
320.206 54.1177 63.6283 315.222 54.7663 63.8418 319.018 54.011 63.9636 
322.254 54.889 63.0396 322.919 55.7073 63.3064 323.134 55.6001 62.7956 
323.119 56.1493 63.5369 323.312 56.4506 63.4799 323.274 56.3131 63.4743 
323.294 56.4061 63.5803 323.309 56.7704 63.5197 323.313 58.3054 63.6796 
308.256 90.5667 63.8785 304.482 93.5256 63.2533 302.613 95.2678 62.9515 
297.916 101.146 63.0062 297.295 102.299 62.4141 291.321 109.624 63.358 
283.837 111.345 62.6094 287.681 111.108 63.5454 284.103 112.604 62.417 
284.74 113.097 62.5258 284.368 114.171 61.8439 318.373 53.9816 64.0494 
319.361 54.1895 64.1383 314.847 55.2939 64.6524 320.779 54.8145 64.2937 
322.981 56.3973 63.9622 323.109 58.7496 64.6577 300.959 97.1799 64.2269 
286.152 100.398 64.313 296.606 101.853 64.5722 297.9 100.863 63.7782 
296.136 103.168 63.8305 294.846 104.313 64.1879 290.385 106.976 64.8216 
286.994 108.485 64.4351 284.47 112.116 62.7687 284.93 111.979 63.0078 
313.515 56.3864 65.224 319.167 55.329 65.4719 321.304 56.1089 65.2157 
[...]
POINT_DATA 1102
SCALARS scalars float
LOOKUP_TABLE default
1 1 1 1 1 1 1 1 1 
1 1 1 1 1 1 1 1 1 
1 1 1 1 1 1 1 1 1 
1 1 1 1 1 1 1 1 1 
1 1 1 1 1 1 1 1 1 
1 1 1 1 1 1 1 1 1 
1 1 1 1 1 1 1 1 1 
1 1 1 1 1 1 1 1 1 
1 1 1 1 1 1 1 1 1 
1 1 1 1 1 1 1 1 1 
1 1 1 1 1 1 1 1 1 
1 1 1 1 1 1 1 1 1 
1 1 1 1 1 1 1 1 1 
1 1 1 1 1 1 1 1 1 
1 1 1 1 1 1 1 1 1 
1 1 1 1 1 1 1 1 1 
1 1 1 1 1 1 1 1 1 
1 1 1 1 1 1 1 1 1 
1 1 1 1 1 1 1 1 1 
1 1 1 1 1 1 1 1 1 
1 1 1 1 1 1 1 1 1 
1 1 1 1 1 1 1 1 1 
1 1 1 1 1 1 1 1 1 
1 1 1 1 1 1 1 1 1 
1 1 1 1 1 1 1 1 1 
1 1 1 1 1 1 1 1 1 
1 1 1 1 1 1 1 1 1 
1 1 1 1 1 1 1 1 1 
1 1 1 1 1 1 1 1 1 
1 1 1 1 1 1 1 1 1 
1 1 1 1 1 1 1 1 1 
1 1 1 1 1 1 1 1 1 
1 1 1 1 1 1 1 1 1 
1 1 1 1 1 1 1 1 1 
1 1 1 1 1 1 1 1 1 
1 1 1 1 1 1 1 1 1 
1 1 1 1 1 1 1 1 1 
1 1 1 1 1 1 1 1 1 
1 1 1 1 1 1 1 1 1 
1 1 1 1 1 1 1 1 1 
1 1 1 1 1 1 1 1 1 
1 1 1 1 1 1 1 1 1 
1 1 1 1 1 1 1 1 1 
1 1 1 1 1 1 1 1 1 
1 1 1 1 1 1 1 1 1 
1 1 1 1 1 1 1 1 1 
1 1 1 1 1 1 1 1 1 
1 1 1 1 1 1 1 1 1 
1 1 1 1 1 1 1 1 1 
1 1 1 1 1 1 1 1 1 
1 1 1 1 1 1 1 1 1 
1 1 1 1 1 1 1 1 1 
1 1 1 1 1 1 1 1 1 
1 1 1 1 1 1 1 1 1 
1 1 1 1 1 1 1 1 1 
1 1 1 1 1 1 1 1 1 
1 1 1 1 1 1 1 1 1 
1 1 1 1 1 1 1 1 1 
1 1 1 1 1 1 1 1 1 
1 1 1 1 1 1 1 1 1 
1 1 1 1 1 1 1 1 1 
1 1 1 1 1 1 1 1 1 
1 1 1 1 1 1 1 1 1 
1 1 1 1 1 1 1 1 1 
1 1 1 1 1 1 1 1 1 
1 1 1 1 1 1 1 1 1 
1 1 1 1 1 1 1 1 1 
1 1 1 1 1 1 1 1 1 
1 1 1 1 1 1 1 1 1 
1 1 1 1 1 1 1 1 1 
1 1 1 1 1 1 1 1 1 
1 1 1 1 1 1 1 1 1 
1 1 1 1 1 1 1 1 1 
1 1 1 1 1 1 1 1 1 
1 1 1 1 1 1 1 1 1 
1 1 1 1 1 1 1 1 1 
1 1 1 1 1 1 1 1 1 
1 1 1 1 1 1 1 1 1 
1 1 1 1 1 1 1 1 1 
1 1 1 1 1 1 1 1 1 
1 1 1 1 1 1 1 1 1 
1 1 1 1 1 1 1 1 1 
1 1 1 1 1 1 1 1 1 
1 1 1 1 1 1 1 1 1 
1 1 1 1 1 1 1 1 1 
1 1 1 1 1 1 1 1 1 
1 1 1 1 1 1 1 1 1 
1 1 1 1 1 1 1 1 1 
1 1 1 1 1 1 1 1 1 
1 1 1 1 1 1 1 1 1 
1 1 1 1 1 1 1 1 1 
1 1 1 1 1 1 1 1 1 
1 1 1 1 1 1 1 1 1 
1 1 1 1 1 1 1 1 1 
1 1 1 1 1 1 1 1 1 
1 1 1 1 1 1 1 1 1 
1 1 1 1 1 1 1 1 1 
1 1 1 1 1 1 1 1 1 
1 1 1 1 1 1 1 1 1 
1 1 1 1 1 1 1 1 1 
1 1 1 1 1 1 1 1 1 
1 1 1 1 1 1 1 1 1 
1 1 1 1 1 1 1 1 1 
1 1 1 1 1 1 1 1 1 
1 1 1 1 1 1 1 1 1 
1 1 1 1 1 1 1 1 1 
1 1 1 1 1 1 1 1 1 
1 1 1 1 1 1 1 1 1 
1 1 1 1 1 1 1 1 1 
1 1 1 1 1 1 1 1 1 
1 1 1 1 1 1 1 1 1 
1 1 1 1 1 1 1 1 1 
1 1 1 1 1 1 1 1 1 
1 1 1 1 1 1 1 1 1 
1 1 1 1 1 1 1 1 1 
1 1 1 1 1 1 1 1 1 
1 1 1 1 1 1 1 1 1 
1 1 1 1 1 1 1 1 1 
1 1 1 1 1 1 1 1 1 
1 1 1 1 1 1 1 1 1 
1 1 1 1 1 1 1 1 1 
1 1 1 1 1 1 1 1 1 
1 1 1 1 
NORMALS Normals float
0.395643 0.195029 -0.897458 0.0654125 0.514168 -0.855191 -0.25539 0.412505 -0.874423 
0.043926 -0.169518 -0.984548 0.517554 0.0215311 -0.855379 -0.0508873 0.0463894 -0.997626 
-0.327226 0.396205 -0.857872 -0.733734 0.130018 -0.666881 -0.819262 0.339519 -0.4621 
0.0250152 -0.288219 -0.957238 0.549261 -0.177439 -0.816595 -0.136448 -0.283882 -0.949101 
-0.198513 -0.0800097 -0.976827 0.694068 -0.123616 -0.709217 0.394994 0.0496249 -0.917343 
0.676611 -0.0202665 -0.736062 0.616321 0.276143 -0.737492 0.612455 0.233279 -0.755301 
-0.499289 0.0141421 -0.86632 0.295542 0.590989 -0.750591 -0.593638 0.0934939 -0.799282 
0.501738 0.500368 -0.705613 -0.614155 0.615722 -0.49366 -0.103196 0.685758 -0.720477 
-0.397149 -0.263139 -0.879222 0.790808 0.0296269 -0.611347 0.79205 0.0524054 -0.608202 
0.848596 0.147728 -0.507997 -0.67475 -0.270547 -0.686671 -0.495827 -0.187849 -0.847861 
-0.338265 -0.111141 -0.934465 0.781835 0.335316 -0.52564 -0.747213 -0.0814229 -0.659578 
0.761016 0.358477 -0.540692 0.842193 0.490161 -0.224619 -0.846268 0.00758305 -0.532704 
0.704854 0.235943 -0.668963 0.769367 0.389389 -0.50641 0.617236 0.716719 -0.32455 
0.629981 0.542785 -0.555435 -0.858857 0.303201 -0.412837 -0.043908 0.802986 -0.594378 
-0.634998 0.702607 -0.321125 -0.385928 0.812675 -0.436598 -0.227392 0.784863 -0.57644 
0.476401 -0.190646 -0.85831 0.340417 -0.305186 -0.88937 0.566339 -0.172208 -0.80598 
-0.177462 -0.363188 -0.914659 -0.429846 -0.383351 -0.817481 -0.714409 -0.337648 -0.612873 
0.787756 0.577332 -0.214772 -0.917038 0.193632 -0.348638 0.083295 -0.846311 -0.526136 
-0.328945 0.441568 -0.834753 0.276403 0.487223 -0.828381 0.377386 -0.503793 0.777028 
-0.0664465 0.865099 0.497181 -0.567534 -0.509413 -0.646841 0.373919 0.177921 -0.910235 
0.542501 -0.732665 0.410968 0.567534 0.509413 0.646841 0.397378 0.749206 -0.529888 
-0.542501 0.732665 -0.410968 0.494578 -0.165449 -0.853241 0.0984375 -0.381446 -0.919135 
0.502618 -0.149924 -0.851409 0.614805 -0.082367 -0.784366 -0.947188 -0.188094 -0.259721 
0.894768 0.203149 -0.397645 -0.968909 -0.0175074 -0.246799 -0.258065 -0.563796 0.784561 
0.0823306 0.861027 -0.50185 -0.373919 -0.177921 0.910235 0.678827 -0.0979393 -0.727738 
-0.574927 0.778946 -0.250403 -0.160775 0.930818 -0.328221 0.828108 0.0516558 -0.558183 
-0.922912 -0.339235 -0.182078 0.849017 0.387728 -0.35894 -0.884714 0.447886 -0.129145 
-0.774886 0.627707 -0.0744093 0.632106 0.638692 -0.438766 -0.533289 0.830501 -0.160842 
0.300728 -0.207657 -0.930828 0.656701 -0.0999287 -0.747501 -0.482465 -0.44897 -0.7521 
-0.991612 0.125282 0.0317883 -0.915801 0.401524 -0.00930537 -0.851759 0.523113 0.0293119 
-0.329245 0.842737 -0.425901 -0.0423439 -0.346093 -0.937244 -0.422759 -0.50206 -0.75446 
-0.149949 -0.426505 -0.891969 -0.588673 -0.460348 -0.664488 -0.843928 0.485748 0.22767 
0.50871 0.757813 -0.408575 -0.762147 0.64467 0.0594279 -0.249646 0.935663 -0.249422 
-0.191025 0.930663 -0.312051 -0.547588 0.836704 -0.0085423 -0.0385576 0.937553 -0.345698 
0.269566 -0.272875 -0.923512 0.0919941 -0.398816 -0.912405 0.453615 -0.132639 -0.881272 
-0.184022 -0.44532 -0.876257 -0.914515 0.324488 0.241598 0.268779 0.899735 -0.343853 
-0.127182 0.948359 -0.290584 -0.0154096 -0.56459 -0.825228 -0.837403 -0.415299 -0.355362 
0.690644 0.0617053 -0.720558 0.76127 0.0425223 -0.647039 -0.989499 -0.0531581 0.134407 
-0.355217 0.897656 -0.260835 0.259414 0.0584177 -0.963998 0.224563 -0.0993876 -0.969378 
0.069131 -0.150316 -0.986218 0.385118 0.231624 -0.893328 -0.546371 -0.585934 -0.598465 
-0.730003 -0.553841 -0.400444 0.640287 0.125711 -0.757779 -0.928099 -0.345236 -0.139442 
-0.608863 0.793174 -0.012697 -0.421421 0.899428 -0.115902 -0.00184998 -0.315019 -0.949084 
0.211462 -0.221494 -0.951958 0.344037 0.0418959 -0.938021 0.0543634 -0.11016 -0.992426 
-0.0910645 -0.591023 -0.801498 -0.301623 -0.618835 -0.725305 -0.739337 -0.5864 -0.330933 
0.539852 0.263789 -0.799359 -0.872899 -0.418105 0.251466 -0.970084 -0.239875 -0.0373664 
-0.945103 0.142227 0.294198 0.0241729 -0.437709 -0.898792 -0.00997198 -0.435508 -0.90013 
-0.172465 -0.503628 -0.846531 0.350733 0.276559 -0.894708 0.365577 0.312706 -0.87668 
-0.798966 -0.541466 -0.261664 -0.913572 -0.181895 0.363731 0.810235 0.379246 -0.446869 
0.227103 -0.227522 -0.94692 0.374529 0.136631 -0.917093 0.419825 0.224899 -0.8793 
-0.625637 -0.661635 -0.413299 -0.567739 -0.653467 -0.500654 -0.764344 -0.603653 -0.226676 
-0.894664 -0.364409 0.258422 -0.751194 0.64441 0.142983 0.44791 -0.121613 -0.885769 
0.085308 -0.345289 -0.934611 0.523333 0.169018 -0.835198 -0.7045 -0.610998 -0.361056 
-0.365815 -0.718904 -0.591064 -0.733043 -0.645602 -0.214115 0.451297 0.427236 -0.783454 
-0.923852 0.265817 0.275389 0.637652 0.61431 -0.464783 -0.150325 0.967328 -0.204156 
-0.411339 0.910447 -0.0434418 0.369332 -0.336968 -0.866052 0.178162 -0.449835 -0.875161 
0.63003 0.167165 -0.758365 -0.253714 -0.619432 -0.742922 0.445895 0.331272 -0.831526 
-0.473597 -0.724607 -0.50065 0.519099 0.361388 -0.774555 -0.792238 -0.609793 -0.0226136 
-0.880016 -0.467067 0.0861394 0.654645 0.568712 -0.498003 -0.624021 0.777321 0.0798074 
0.514214 -0.220326 -0.828879 -0.149932 -0.61388 -0.77503 -0.488665 -0.693228 -0.529756 
0.639282 0.31926 -0.699565 -0.830246 -0.554606 -0.055706 -0.855907 -0.484808 0.179954 
-0.868784 -0.288497 0.402472 0.791602 0.188311 -0.581295 0.826732 0.316376 -0.46521 
-0.786501 0.425895 0.447247 0.628228 0.633884 -0.451132 0.628612 0.631129 -0.454448 
0.4358 0.80865 -0.395176 0.335391 -0.397663 -0.854036 0.59922 -0.209628 -0.772652 
-0.68955 -0.71053 -0.14024 -0.86038 -0.385886 0.332923 0.66812 0.323559 -0.670018 
-0.844054 -0.0241228 0.535715 -0.706232 0.185373 0.683281 0.242207 -0.530533 -0.812324 
0.732646 0.177753 -0.656988 -0.764339 -0.635963 0.106481 -0.643094 -0.765743 0.00826472 
-0.782345 -0.555371 0.281956 0.0431915 -0.587319 -0.808202 -0.634045 -0.750115 -0.187919 
0.791491 0.346432 -0.503514 0.719141 0.540101 -0.43718 -0.872256 0.337129 0.35428 
-0.677616 0.720323 0.14823 -0.682564 0.71822 0.135155 -0.46888 0.882466 0.0374971 
-0.501809 0.86389 0.043369 0.0726128 -0.541771 -0.837384 -0.351369 -0.814779 -0.461167 
-0.440083 -0.768892 -0.463825 -0.790362 -0.430982 0.435411 -0.739633 0.636928 0.217408 
0.471117 -0.275974 -0.837787 0.782146 0.118732 -0.611678 -0.763815 -0.54316 0.34866 
0.43651 0.810283 -0.391024 0.0189342 0.954081 -0.298949 0.241575 -0.509848 -0.825649 
0.49383 -0.305535 -0.814113 0.183721 -0.518985 -0.834806 0.224763 -0.484404 -0.845479 
-0.376262 -0.835343 -0.400785 -0.293537 -0.839562 -0.457134 0.623658 0.44482 -0.642796 
0.167108 0.953481 -0.250896 0.347762 -0.2719 -0.897291 -0.0348098 -0.688445 -0.724453 
0.507766 -0.147491 -0.848776 -0.638198 -0.761071 0.116083 -0.303566 -0.927239 -0.219263 
-0.287799 -0.904755 -0.313991 -0.35451 -0.800636 -0.483017 -0.694204 -0.427178 0.57931 
-0.850778 -0.0910955 0.51757 -0.79747 0.573835 0.186428 0.369062 0.89604 -0.246792 
-0.739601 0.553935 0.38229 -0.463148 0.882141 -0.0855609 -0.406204 0.89401 -0.189062 
0.304154 -0.657187 -0.689634 0.532139 -0.421374 -0.734352 0.238859 -0.499496 -0.832736 
0.553985 -0.234143 -0.798923 0.73293 -0.204068 -0.648975 -0.400699 -0.913748 0.0671192 
-0.215845 -0.807014 -0.549673 -0.394221 -0.909244 -0.133663 0.736041 0.0661894 -0.673693 
-0.439576 -0.890204 -0.119619 -0.608805 -0.74456 0.273837 -0.655272 -0.749095 0.0973471 
0.754561 0.387842 -0.529354 0.923908 0.305089 -0.230901 -0.822468 0.420311 0.383255 
-0.150755 0.980923 -0.122735 -0.685594 0.671322 0.28158 -0.623074 0.782144 0.00536067 
-0.554535 0.74962 0.361332 -0.286607 0.951664 -0.110416 -0.152582 0.987789 0.0314831 
-0.432224 0.891637 0.134781 0.0353872 -0.741557 -0.669956 0.693334 -0.324479 -0.643429 
-0.350517 -0.906147 -0.236718 0.846638 -0.00160042 -0.532167 -0.389919 -0.918959 -0.0589653 
-0.565257 -0.805865 0.176255 -0.626517 -0.713481 0.313722 0.903892 0.387952 -0.180201 
-0.860172 0.3165 0.399915 0.756663 0.638713 0.13967 0.693976 0.697454 -0.178758 
0.175664 0.981076 -0.0814326 0.00567959 0.99178 0.127833 0.372568 0.921143 0.112646 
-0.44738 0.823585 0.348654 -0.217547 0.946165 0.239678 0.614704 -0.338603 -0.712381 
0.495249 -0.537672 -0.682376 0.734466 -0.580911 -0.35086 0.661757 -0.125639 -0.739116 
0.844161 -0.19609 -0.49894 -0.430208 -0.90273 -0.000835529 -0.572021 -0.640731 0.512109 
0.66707 0.528782 -0.524793 0.562184 0.548954 -0.618546 0.571005 0.582099 -0.57889 
0.817365 0.414957 -0.399657 0.87906 0.395986 -0.26542 0.912041 0.375809 -0.164163 
0.86667 0.431464 0.250442 0.812049 0.487729 0.320464 -0.776375 0.336693 0.532804 
0.688895 0.654566 0.311394 0.475319 0.876928 0.0711956 0.113683 0.989274 0.0917219 
0.547504 0.814802 0.190622 -0.0977875 0.96871 0.228119 0.224212 0.935365 0.273536 
-0.43841 -0.897737 0.043174 -0.305994 -0.915171 -0.262355 -0.182408 -0.934784 -0.304805 
0.0467035 -0.950795 -0.30628 0.264331 -0.839808 -0.474185 0.543056 -0.809971 -0.221442 
0.411315 -0.889091 -0.20084 0.858161 -0.496674 0.129906 0.890734 -0.0115963 -0.454378 
0.968098 -0.250472 0.00700356 -0.382829 -0.896868 0.221516 -0.511625 -0.803287 0.304909 
0.929421 0.225388 -0.292194 0.59728 0.703653 -0.384875 -0.731224 -0.199896 0.652191 
0.878664 0.46641 -0.102038 0.810001 0.419708 0.409565 0.852211 0.404663 0.33164 
-0.777975 0.0866781 0.622287 0.656645 0.56827 0.49587 0.481118 0.591358 0.647164 
-0.700384 0.456258 0.548899 0.269331 0.722748 0.636471 0.352829 0.70239 0.61819 
0.133058 0.879166 0.457562 -0.10771 0.947713 0.300398 -0.524321 0.768773 0.366163 
-0.175958 0.87583 0.4494 0.039892 -0.998409 -0.0398531 -0.00189861 -0.988635 -0.150323 
0.180569 -0.925254 -0.333618 0.310564 -0.950227 0.0248777 0.406798 -0.912321 0.0467494 
0.62516 -0.716168 0.310288 -0.471426 -0.878577 0.0765527 0.669123 -0.743025 0.0137419 
0.68583 -0.660339 0.305924 -0.500204 -0.795357 0.34235 0.949934 -0.288849 0.119129 
0.992962 0.0469171 -0.10874 -0.445834 -0.716391 0.536671 -0.54673 -0.558459 0.623867 
-0.571827 -0.465909 0.675235 0.579049 0.652514 -0.488803 0.863865 0.427224 -0.266866 
-0.666246 -0.0585529 0.743429 0.873839 0.431483 0.224115 0.860545 0.458323 0.222268 
0.85964 0.454014 0.234288 0.739523 0.398457 0.542529 0.737156 0.406429 0.53983 
0.409063 0.409855 0.815283 -0.649262 0.240179 0.721646 0.136548 0.577135 0.805152 
-0.504913 0.467637 0.725519 0.0421266 0.847017 0.529894 -0.39356 0.675739 0.623288 
-0.0265578 0.811187 0.584183 -0.167288 -0.893393 0.416969 -0.145142 -0.983278 0.109994 
0.136866 -0.985458 0.100698 0.0751197 -0.878779 0.471279 0.140297 -0.986851 0.0802584 
0.310821 -0.903186 0.296051 -0.383488 -0.912268 0.143889 0.213256 -0.905276 0.36742 
0.471062 -0.737183 0.484419 0.699397 -0.540987 0.467094 0.804445 -0.432726 0.40696 
0.689355 -0.593099 0.41596 0.990593 -0.133365 0.0306407 0.879663 -0.457271 0.130751 
0.883227 -0.281207 0.375276 0.962918 -0.0490022 0.265307 0.987927 0.152174 0.0290242 
0.582267 0.671942 -0.457666 0.599343 0.73723 -0.311898 0.664168 0.616655 -0.422632 
0.839778 0.508727 0.189655 0.836362 0.54191 0.0826558 0.309333 0.410935 0.857581 
-0.544344 0.167714 0.821926 0.0611474 0.50435 0.861332 -0.516378 0.27429 0.811245 
-0.206929 0.363782 0.908209 -0.223539 0.493782 0.840362 0.00199169 -0.955872 0.293778 
0.214168 -0.823531 0.52529 -0.346902 -0.80428 0.482485 0.317196 -0.808719 0.495339 
0.692013 -0.403206 0.598785 0.975103 -0.0173515 0.221073 0.730178 0.672166 0.122607 
-0.634331 -0.111814 0.764932 0.575554 0.600345 0.555269 0.744529 0.579397 0.331626 
0.489621 0.573973 0.656374 0.642735 0.490465 0.588502 0.198102 0.382473 0.90248 
-0.0577284 0.315527 0.947159 -0.192342 0.598314 0.777833 -0.199925 0.494965 0.8456 
-0.377788 -0.728176 0.57187 0.0909914 -0.708499 0.699821 0.376959 -0.591535 0.712733 
0.813987 0.536588 -0.222482 0.675993 0.707223 -0.207049 0.702785 0.679203 -0.211603 
-0.656464 -0.194219 0.728927 0.605662 0.788961 0.103508 0.393961 0.440559 0.806661 
-0.462208 0.0327746 0.886166 -0.372094 0.148918 0.916171 -0.329048 0.102076 0.93878 
-0.0543799 0.266263 0.962365 -0.172419 -0.756682 0.630638 -0.468613 -0.52136 0.713152 
0.954133 0.196142 -0.226184 0.804112 0.591813 0.0562231 0.694671 0.719291 -0.00723371 
0.646513 0.762886 0.0050804 0.470419 0.733655 0.490364 0.475312 0.689593 0.546389 
0.443787 0.595256 0.669868 -0.500286 -0.126771 0.85653 -0.418219 0.040959 0.907422 
0.0742772 0.275485 0.958431 -0.151855 0.184122 0.971102 -0.0210269 -0.611562 0.790917 
0.381758 -0.673411 0.63307 0.881365 0.454773 -0.127974 -0.576416 -0.206138 0.790728 
0.606748 0.563123 0.561026 0.661528 0.728789 0.176766 0.590435 0.64358 0.487023 
0.454451 0.638186 0.621445 0.280324 0.562782 0.777622 0.415844 0.550156 0.724156 
0.396135 0.722528 0.566595 0.257711 0.451839 0.854065 0.429866 0.560527 0.707832 
-0.24573 0.0715528 0.966694 0.0969853 -0.680294 0.726494 0.2917 -0.754544 0.587856 
0.23541 -0.490784 0.838876 0.608426 -0.381674 0.695804 0.600663 -0.361876 0.712917 
0.934103 -0.24764 0.257149 0.983949 -0.138656 0.112335 0.997286 0.0232168 -0.069863 
0.994433 0.0625822 0.0847694 0.87679 0.405453 -0.258549 0.72779 0.672419 0.134815 
0.288006 0.547453 0.785715 0.191053 0.443249 0.875802 0.945579 -0.0458861 0.32214 
0.823252 -0.213211 0.526115 0.901761 -0.0647723 0.427354 0.987932 0.143449 0.0584251 
0.967944 0.213986 -0.131507 -0.472796 -0.0682026 0.878529 -0.0293131 0.32857 0.944025 
-0.0480996 -0.591496 0.804872 0.110082 -0.522966 0.845215 -0.298322 -0.57542 0.761509 
0.320997 -0.48292 0.814708 0.972893 -0.0569288 0.22414 0.956423 0.107997 0.27128 
0.861769 0.5073 -0.000992702 0.676034 0.697892 0.236484 0.243655 0.48637 0.839093 
-0.381134 -0.0358302 0.923825 0.0717362 -0.578958 0.812196 -0.104759 -0.562283 0.820283 
-0.44883 -0.323402 0.833045 0.987709 0.00685816 0.156155 0.965796 0.253929 -0.0525206 
-0.440514 -0.262796 0.85842 0.301846 0.667815 0.680377 0.725397 0.647665 0.233088 
0.120167 -0.391685 0.912219 -0.308773 -0.390348 0.867345 0.377414 -0.473377 0.79591 
0.826819 0.528806 0.191666 0.401474 0.684465 0.608544 0.558751 0.664775 0.495854 
0.151337 0.371471 0.916027 -0.150047 0.218358 0.964264 -0.181804 0.198272 0.963139 
0.0480992 -0.480806 0.875507 0.399432 -0.463466 0.790982 0.623137 -0.366387 0.690986 
0.813607 -0.201615 0.54534 0 -0.222396 -0.974956 0 -1 0 
-0.775537 -0.62746 0.0695381 0.775537 -0.62746 0.0695381 0.86434 -0.318383 0.389293 
0 0.529999 -0.847998 0.927761 -0.211879 0.307193 0.996996 -0.0676178 0.0377745 
0.960647 0.210316 0.181451 0.687899 0.594827 0.415904 0.435826 0.557055 0.706927 
-0.253222 -0.0607972 0.965496 -0.277657 0.0582278 0.958914 0.0592308 0.374214 0.925449 
0.00118731 -0.40948 0.912318 0.342833 -0.405389 0.847423 0 -0.329285 0.944231 
0.931852 -0.0410167 0.360514 0.843419 0.328579 0.425064 0.793915 0.516599 0.320662 
-0.353146 -0.265154 0.897208 0.583883 -0.17787 0.792113 0.742867 -0.0135009 0.669303 
0.793359 0.155711 0.588503 0.412547 0.395509 0.820596 0.601973 0.527531 0.599449 
0.639783 0.345557 0.686489 0.310089 0.364802 0.877932 -0.239804 0.0689596 0.968369 
0.0520756 0.391122 0.918864 -0.174194 0.243003 0.954257 -0.098829 0.396377 0.912753 
-0.0910497 0.0944737 0.991355 0.415132 -0.31568 0.853236 0.274731 0.210622 0.938169 
0.19361 0.279373 0.94046 0.202393 0.264853 0.94281 -0.152917 0.169703 0.973559 
-0.008494 -0.329064 0.944269 0.084374 0.0178021 0.996275 -0.0575795 -0.00597702 0.998323 
0.302966 0.0717587 0.950296 -0.272438 0.0363339 0.961487 0.459658 0.221307 0.86008 
0.239127 -0.0386757 -0.970218 0.0631228 -0.562645 -0.824285 -0.294259 -0.149324 -0.943988 
0.488974 -0.152283 -0.858903 -0.00746761 0.307472 -0.951528 0.205935 -0.462434 -0.862407 
-0.320742 -0.370591 -0.871657 -0.357241 -0.219015 -0.907971 0.392638 0.106998 -0.913448 
-0.217793 0.0785608 -0.972828 0.433885 -0.326174 -0.839854 0.346093 -0.00845775 -0.938162 
0.473721 -0.36866 -0.799799 0.588526 -0.165963 -0.79126 0.595151 0.146674 -0.790115 
0.640162 0.023419 -0.767883 -0.168651 -0.444623 -0.879697 0.175251 -0.52945 -0.830042 
0.641942 -0.187278 -0.74353 -0.521464 -0.174557 -0.835227 0.762742 0.186272 -0.619295 
-0.515263 -0.127384 -0.847513 0.533662 0.335239 -0.776415 0.219984 0.422286 -0.879364 
-0.116343 -0.569321 -0.813841 -0.170293 -0.559678 -0.811024 0.430581 -0.446071 -0.784615 
0.698051 -0.0746041 -0.712151 0.884359 0.20426 -0.419746 0.78539 0.377603 -0.490488 
0.467896 0.507133 -0.723802 -0.181206 0.211889 -0.960348 0.0789245 -0.542559 -0.836302 
0.141494 -0.426301 -0.893447 -0.459059 -0.44515 -0.768834 0.458988 -0.427287 -0.778945 
0.502334 -0.397613 -0.767831 0.913346 -0.0138889 -0.406947 0.583142 0.495466 -0.643785 
-0.266045 0.0566366 -0.962295 0.734591 0.602322 -0.312384 -0.000265531 0.354684 -0.934986 
-0.135559 0.214413 -0.96729 -0.360224 -0.5024 -0.786023 0.477238 -0.455082 -0.75176 
0.658233 -0.312622 -0.684834 0.912053 -0.0143969 -0.409821 0.696459 -0.27178 -0.664139 
-0.470142 -0.283534 -0.835808 0.723694 -0.249436 -0.643466 0.948538 -0.00216491 -0.316655 
0.967672 0.210227 -0.139342 0.930299 0.319428 -0.180303 -0.277365 -0.0367743 -0.960061 
0.247702 0.431946 -0.867218 0.586879 0.555259 -0.589288 0.745761 0.549633 -0.376489 
0.833887 0.49722 -0.239592 0.371747 0.635851 -0.676386 -0.112572 0.313361 -0.942938 
-0.0209164 0.371867 -0.92805 -0.516259 0.031125 -0.855867 0.351252 -0.470508 -0.809471 