# vtk DataFile Version 4.2
vtk output
ASCII
DATASET POLYDATA
POINTS 1196 float
318.007 116.099 28.7971 317.797 116.446 28.8528 318.178 116.42 28.9889 
318.517 116.227 29.0811 318.297 116.477 29.1253 309.63 119.738 28.0603 
310.827 118.973 28.1173 311.916 119.168 28.3667 316 120.009 27.0175 
316 120.009 27.0175 316 120.009 27.0175 316 120.009 27.0175 
305.435 120.619 28.184 316 120.009 27.0175 307.715 120.929 28.1471 
312.05 119.88 28.7831 309.06 121.513 28.5265 317.022 114.245 28.5559 
320.209 113.999 29.2038 320.659 114.096 29.439 318.878 115.987 29.2296 
320.138 114.891 29.4897 304.468 118.286 28.1874 318.186 116.641 29.2974 
316 120.009 27.0175 315.187 118.055 28.9968 300.628 119.817 28.809 
301.351 120.93 28.9966 299.391 121.187 29.5781 299.429 120.976 29.4413 
300.207 121.374 29.534 299.568 121.172 29.4765 302.87 121.871 29.2637 
304.617 122.339 29.3943 306.63 122.492 29.2289 307.463 122.361 29.0696 
308.877 121.712 28.618 324.802 110.716 30.466 324.513 111.348 30.269 
319.423 113.145 29.0007 323.292 111.924 29.9282 324.165 111.872 30.3283 
308.04 114.912 28.4727 322.324 113.483 30.12 321.637 114.107 30.1558 
295.247 117.892 30.1062 301.129 117.714 28.6562 294.394 118.536 30.5894 
316.952 117.36 29.2481 297.39 119.279 29.5512 298.195 119.248 29.2982 
314.714 118.483 29.1305 294.074 119.073 31.0253 295.345 119.842 30.7083 
297.203 119.71 29.754 313.296 119.523 29.4956 296.463 120.184 30.3838 
312.176 120.193 29.5253 298.065 120.865 30.0862 299.678 121.272 29.542 
310.636 121.161 29.3462 300.881 121.819 29.9056 307.046 122.491 29.4976 
308.735 122.029 29.3209 309.835 121.529 28.9923 324.584 108.493 30.456 
326.267 108.848 31.0757 326.236 108.315 31.0338 325.866 109.988 31.1046 
324.53 111.731 30.7009 323.761 112.49 30.5616 321.243 114.494 30.4817 
322.015 114.017 30.3502 292.734 116.261 31.0927 319.799 115.519 30.0653 
322.139 113.969 30.4373 318.222 116.74 29.8457 292.933 118.236 31.5376 
293.208 118.784 31.6878 314.412 118.818 29.7325 295.904 120.389 30.9899 
295.752 120.441 31.3579 312.697 119.851 29.8922 297.215 120.936 30.8783 
298.398 121.402 30.8443 310.808 121.132 29.5176 311.037 120.943 29.5833 
300.097 121.772 30.3683 302.276 122.197 30.1447 308.031 122.151 29.8285 
310.829 121.114 29.5961 329.767 105.558 32.3821 327.422 107.95 31.6572 
327.044 108.783 31.664 326.216 109.757 31.3116 325.282 110.856 30.9915 
323.332 112.959 30.659 324.356 111.973 31.1325 291.945 114.665 31.5137 
322.754 113.465 30.923 291.338 115.446 31.812 290.958 115.779 32.1237 
319.945 115.372 30.461 290.791 116.171 32.4466 294.43 119.833 31.7584 
296.301 120.687 31.535 301.481 122.105 30.5908 301.972 122.145 30.7675 
307.539 122.056 30.3264 330.043 103.244 32.5792 329.797 104.62 32.3414 
331.369 103.924 33.2174 331.072 104.448 33.0938 330.744 105.077 33.0564 
330.36 105.722 32.9643 330.173 106.107 33.0804 328.97 107.247 32.5229 
327.347 108.837 32.0376 327.702 108.637 32.3912 326.791 109.379 31.8786 
323.511 112.771 31.1674 323.677 112.537 31.3387 289.425 113.465 33.1479 
290.34 114.171 32.4207 322.779 113.3 31.2086 289.655 114.897 33.1305 
320.636 114.742 31.0162 312.531 117.619 32.1495 319.26 115.394 31.1412 
291.7 117.896 32.9125 309.428 119.314 32.0423 312.725 118.622 31.385 
292.731 118.715 32.6012 311.091 119.914 30.9891 313.589 118.988 30.518 
299.076 121.552 31.4752 299.562 121.711 31.385 299.875 121.755 31.357 
300.507 121.817 31.2509 299.706 121.711 31.4886 302.237 122.038 31.1063 
333.013 102.411 34.1214 333.152 102.277 34.1814 333.032 102.515 34.2733 
333.166 102.276 34.2431 331.957 103.518 33.628 327.991 108.43 32.6295 
327.3 109.039 32.5035 288.597 112.528 33.9437 324.386 111.542 31.9591 
288.713 113.079 34.0155 317.246 114.249 32.848 316.64 115.585 32.1822 
319.187 114.649 31.9643 319.908 114.311 31.9539 320.725 114.138 31.6954 
289.216 114.937 33.9468 295.114 120.184 32.432 301.292 120.79 32.6171 
304.133 120.87 32.2322 295.536 120.324 32.4624 296.66 120.618 32.3648 
299.94 121.626 31.6329 301.708 121.84 31.4332 332.8 100.725 34.1802 
333.661 100.407 34.8377 333.26 101.923 34.449 333.2 102.178 34.2477 
333.689 101.269 34.9929 289.164 108.638 34.5513 328.049 107.882 33.7625 
329.098 107.243 33.4717 317.654 110.551 34.5807 327.924 108.37 33.1145 
288.659 110.376 34.3366 320.205 111.171 33.9216 322.719 110.558 33.7133 
288.545 112.542 34.0816 288.083 111.392 34.8267 288.337 112.002 34.5671 
322.967 111.508 32.9661 288.669 113.934 34.6656 291.485 117.778 33.8902 
294.942 119.724 33.2149 296.239 120.295 32.8343 334.487 98.0231 36.0114 
334.043 100.6 35.4289 293.913 103.605 34.8148 332.795 103.29 34.6274 
289.712 105.838 35.4875 332.011 104.257 34.3371 288.271 108.84 35.2257 
287.785 110.571 35.4133 287.857 111.07 35.2864 287.954 111.445 35.4053 
288.652 114.058 35.029 289.002 114.716 35.0721 291.408 117.73 34.2564 
291.431 117.69 34.3961 291.577 117.847 34.2118 292.047 117.985 34.2271 
291.478 117.795 34.3093 334.776 95.6671 37.4519 334.848 97.0586 36.8268 
334.47 100.135 36.2895 333.829 101.411 35.8076 287.878 106.48 37.1722 
327.598 105.483 35.771 331.912 103.83 35.4788 287.772 108.426 36.1036 
287.663 109.973 35.8181 287.687 110.489 35.7798 287.756 110.782 36.0191 
288.227 112.428 36.013 288.801 114.128 35.6998 290.651 116.208 35.3988 
291.6 117.805 34.3512 334.626 93.8778 38.2113 334.656 93.5265 38.5061 
334.941 96.2972 37.3303 334.888 98.025 36.9595 334.508 100.075 36.5841 
333.924 101.126 36.2651 289.216 103.857 36.8966 332.477 102.7 36.1945 
288.644 104.721 36.9788 308.388 107.396 37.0134 287.596 109.745 36.231 
287.653 109.991 36.5744 289.182 114.471 35.9226 332.623 90.9652 38.5927 
334.446 93.069 38.5713 334.927 94.2329 38.6479 334.981 94.6998 38.7476 
335.009 96.8641 37.4707 291.276 98.7856 38.2534 289.107 101.254 38.4945 
332.906 100.27 37.8138 333.576 100.439 37.3818 288.568 102.131 38.6127 
288.394 102.92 38.6781 333.925 100.684 36.9264 287.852 105.529 38.0921 
287.695 106.916 38.2149 288.471 111.958 37.3138 292.961 112.352 37.9916 
288.798 112.674 37.0729 333.483 91.2165 39.0725 333.899 90.9832 39.8601 
334.537 92.7587 39.0606 334.646 92.9971 39.5563 334.95 94.3611 39.1075 
334.878 93.9882 39.3254 334.938 94.7532 39.0638 291.552 96.7405 39.3232 
334.865 96.1145 38.605 290.47 98.1341 39.2114 290.253 97.7172 39.6921 
334.438 98.0851 38.0439 288.503 102.24 38.741 288.163 103.748 39.2535 
303.732 103.669 39.4252 287.78 106.216 38.6316 287.864 106.983 38.8792 
288.33 110.614 38.0346 290.256 111.814 38.1858 289.229 112.571 37.4396 
289.738 113.193 37.2975 336 87.0087 40.0174 336 87.0087 40.0175 
336 87.0088 40.0175 336 87.0088 40.0175 332.206 88.5622 40.0818 
333.058 88.6027 40.808 332.761 87.911 41.0325 336 87.0088 40.0175 
333.375 89.0686 40.9493 334.15 91.3278 40.2735 334.58 94.4081 39.7613 
290.503 96.2038 40.6106 334.766 95.4232 39.1652 334.654 96.4699 38.7497 
289.236 98.5722 40.6291 334.135 97.389 38.7604 334.52 96.106 39.1239 
288.758 100.007 40.2538 288.527 101.119 40.1636 288.23 103.8 39.8736 
288.068 105.575 39.4618 288.149 106.044 39.537 288.005 108.175 38.7962 
288.254 107.694 39.2268 287.996 109.877 38.1132 288.526 110.111 38.558 
288.128 109.988 38.3643 288.192 110.202 38.3757 288.172 110.008 38.4967 
288.202 110.113 38.4825 336 87.0087 40.0175 332.916 87.5159 41.6306 
333.723 89.9267 41.3193 334.287 92.1984 40.4893 292.293 93.6821 41.1396 
290.287 95.9345 41.2508 290.153 95.9895 41.5109 289.419 97.7923 41.223 
333.48 95.2821 40.3333 332.956 96.9325 39.6774 288.967 99.1625 40.9408 
288.4 104.505 40.1821 288.659 103.796 40.6878 289.015 107.636 39.7755 
288.307 109.054 38.8558 288.207 109.695 38.6061 329.585 84.0795 42.174 
330.72 84.3697 42.4098 331.507 85.0377 42.3584 332.738 86.2378 42.6574 
332.651 86.6808 41.9943 294.03 91.196 41.8989 291.038 94.0199 42.737 
334.097 92.2418 40.8901 290.169 95.8764 41.8956 289.669 97.0003 41.5883 
333.923 94.509 40.403 289.352 97.8431 41.6739 289.521 97.4902 42.078 
289.023 99.5811 41.9366 294.011 102.405 42.3165 288.808 102.405 41.218 
289.043 103.532 41.1943 288.859 106.421 40.1018 289.831 105.355 40.9707 
332.979 86.8108 42.7836 333.219 87.8577 42.6448 333.097 87.7666 42.9985 
292.726 91.0263 43.5118 292.474 91.204 43.8742 293.196 90.7945 43.0918 
292.143 91.6764 43.596 333.33 90.707 42.142 291.989 92.2104 43.391 
332.943 91.7874 42.078 290.839 94.3746 42.8254 291.088 93.9401 43.1586 
332.215 92.7546 42.0079 289.775 97.2685 42.6609 289.198 98.6353 41.8907 
289.318 99.0488 42.2753 293.318 102.14 42.5381 289.277 102.929 41.5723 
290.776 103.014 42.1637 328.05 81.6262 43.6426 309.429 82.3697 43.5859 
330.812 82.7458 44.0177 303.877 83.1438 44.1075 295.616 87.3147 44.5203 
295.674 86.9536 45.0339 332.646 86.0539 43.6986 294.177 88.492 45.0043 
293.428 89.8684 44.0693 293.368 89.7458 44.6071 333.03 88.4363 43.0316 
292.096 91.793 43.6288 328.427 90.4689 43.95 291.264 93.7309 43.6136 
290.401 96.0397 43.3521 289.944 97.3161 43.0421 289.753 99.9905 42.6977 
290.159 99.6994 43.016 292.056 99.8963 43.5112 289.778 103.505 41.6977 
329.643 80.3069 45.5677 298.161 84.8564 45.1997 300.444 84.0026 44.5733 
295.939 86.4452 45.836 293.899 88.8193 45.0395 293.849 88.9112 45.2585 
331.265 87.9045 44.6323 332.943 88.9288 43.0642 292.872 90.7154 44.9098 
332.399 89.3291 43.3725 292.098 92.4038 44.586 290.044 98.0156 43.1824 
289.004 100.013 45.0087 289.004 100.013 45.0087 289.004 100.013 45.0087 
290.713 99.6283 43.2861 289.004 100.013 45.0088 289.004 100.013 45.0088 
326.909 78.08 46.2642 329.586 79.4301 46.5039 329.079 78.9963 46.5104 
329.653 79.0926 47.0892 330.024 79.9957 46.3288 330.387 80.349 46.5601 
330.945 81.4315 45.7057 331.327 82.1572 45.7301 300.528 82.5479 46.2694 
301.41 82.6024 45.5777 331.648 83.0612 45.7776 331.701 83.417 45.7433 
295.455 86.9377 45.9725 293.691 89.2678 45.4067 331.411 87.3746 44.7966 
293.177 90.3864 45.4381 292.143 93.1857 45.0104 296.994 94.4028 45.9411 
[...]
POINT_DATA 1196
SCALARS scalars float
LOOKUP_TABLE default
1 1 1 1 1 1 1 1 1 
1 1 1 1 1 1 1 1 1 
1 1 1 1 1 1 1 1 1 
1 1 1 1 1 1 1 1 1 
1 1 1 1 1 1 1 1 1 
1 1 1 1 1 1 1 1 1 
1 1 1 1 1 1 1 1 1 
1 1 1 1 1 1 1 1 1 
1 1 1 1 1 1 1 1 1 
1 1 1 1 1 1 1 1 1 
1 1 1 1 1 1 1 1 1 
1 1 1 1 1 1 1 1 1 
1 1 1 1 1 1 1 1 1 
1 1 1 1 1 1 1 1 1 
1 1 1 1 1 1 1 1 1 
1 1 1 1 1 1 1 1 1 
1 1 1 1 1 1 1 1 1 
1 1 1 1 1 1 1 1 1 
1 1 1 1 1 1 1 1 1 
1 1 1 1 1 1 1 1 1 
1 1 1 1 1 1 1 1 1 
1 1 1 1 1 1 1 1 1 
1 1 1 1 1 1 1 1 1 
1 1 1 1 1 1 1 1 1 
1 1 1 1 1 1 1 1 1 
1 1 1 1 1 1 1 1 1 
1 1 1 1 1 1 1 1 1 
1 1 1 1 1 1 1 1 1 
1 1 1 1 1 1 1 1 1 
1 1 1 1 1 1 1 1 1 
1 1 1 1 1 1 1 1 1 
1 1 1 1 1 1 1 1 1 
1 1 1 1 1 1 1 1 1 
1 1 1 1 1 1 1 1 1 
1 1 1 1 1 1 1 1 1 
1 1 1 1 1 1 1 1 1 
1 1 1 1 1 1 1 1 1 
1 1 1 1 1 1 1 1 1 
1 1 1 1 1 1 1 1 1 
1 1 1 1 1 1 1 1 1 
1 1 1 1 1 1 1 1 1 
1 1 1 1 1 1 1 1 1 
1 1 1 1 1 1 1 1 1 
1 1 1 1 1 1 1 1 1 
1 1 1 1 1 1 1 1 1 
1 1 1 1 1 1 1 1 1 
1 1 1 1 1 1 1 1 1 
1 1 1 1 1 1 1 1 1 
1 1 1 1 1 1 1 1 1 
1 1 1 1 1 1 1 1 1 
1 1 1 1 1 1 1 1 1 
1 1 1 1 1 1 1 1 1 
1 1 1 1 1 1 1 1 1 
1 1 1 1 1 1 1 1 1 
1 1 1 1 1 1 1 1 1 
1 1 1 1 1 1 1 1 1 
1 1 1 1 1 1 1 1 1 
1 1 1 1 1 1 1 1 1 
1 1 1 1 1 1 1 1 1 
1 1 1 1 1 1 1 1 1 
1 1 1 1 1 1 1 1 1 
1 1 1 1 1 1 1 1 1 
1 1 1 1 1 1 1 1 1 
1 1 1 1 1 1 1 1 1 
1 1 1 1 1 1 1 1 1 
1 1 1 1 1 1 1 1 1 
1 1 1 1 1 1 1 1 1 
1 1 1 1 1 1 1 1 1 
1 1 1 1 1 1 1 1 1 
1 1 1 1 1 1 1 1 1 
1 1 1 1 1 1 1 1 1 
1 1 1 1 1 1 1 1 1 
1 1 1 1 1 1 1 1 1 
1 1 1 1 1 1 1 1 1 
1 1 1 1 1 1 1 1 1 
1 1 1 1 1 1 1 1 1 
1 1 1 1 1 1 1 1 1 
1 1 1 1 1 1 1 1 1 
1 1 1 1 1 1 1 1 1 
1 1 1 1 1 1 1 1 1 
1 1 1 1 1 1 1 1 1 
1 1 1 1 1 1 1 1 1 
1 1 1 1 1 1 1 1 1 
1 1 1 1 1 1 1 1 1 
1 1 1 1 1 1 1 1 1 
1 1 1 1 1 1 1 1 1 
1 1 1 1 1 1 1 1 1 
1 1 1 1 1 1 1 1 1 
1 1 1 1 1 1 1 1 1 
1 1 1 1 1 1 1 1 1 
1 1 1 1 1 1 1 1 1 
1 1 1 1 1 1 1 1 1 
1 1 1 1 1 1 1 1 1 
1 1 1 1 1 1 1 1 1 
1 1 1 1 1 1 1 1 1 
1 1 1 1 1 1 1 1 1 
1 1 1 1 1 1 1 1 1 
1 1 1 1 1 1 1 1 1 
1 1 1 1 1 1 1 1 1 
1 1 1 1 1 1 1 1 1 
1 1 1 1 1 1 1 1 1 
1 1 1 1 1 1 1 1 1 
1 1 1 1 1 1 1 1 1 
1 1 1 1 1 1 1 1 1 
1 1 1 1 1 1 1 1 1 
1 1 1 1 1 1 1 1 1 
1 1 1 1 1 1 1 1 1 
1 1 1 1 1 1 1 1 1 
1 1 1 1 1 1 1 1 1 
1 1 1 1 1 1 1 1 1 
1 1 1 1 1 1 1 1 1 
1 1 1 1 1 1 1 1 1 
1 1 1 1 1 1 1 1 1 
1 1 1 1 1 1 1 1 1 
1 1 1 1 1 1 1 1 1 
1 1 1 1 1 1 1 1 1 
1 1 1 1 1 1 1 1 1 
1 1 1 1 1 1 1 1 1 
1 1 1 1 1 1 1 1 1 
1 1 1 1 1 1 1 1 1 
1 1 1 1 1 1 1 1 1 
1 1 1 1 1 1 1 1 1 
1 1 1 1 1 1 1 1 1 
1 1 1 1 1 1 1 1 1 
1 1 1 1 1 1 1 1 1 
1 1 1 1 1 1 1 1 1 
1 1 1 1 1 1 1 1 1 
1 1 1 1 1 1 1 1 1 
1 1 1 1 1 1 1 1 1 
1 1 1 1 1 1 1 1 1 
1 1 1 1 1 1 1 1 1 
1 1 1 1 1 1 1 1 1 
1 1 1 1 1 1 1 1 
NORMALS Normals float
0.320376 0.163401 -0.933091 0.271081 0.53788 -0.798248 0.385492 0.516151 -0.764843 
0.596124 0.45857 -0.659052 0.454077 0.730696 -0.509802 0.0466273 0.169441 -0.984437 
0.163229 0.124359 -0.978719 0.233975 0.29792 -0.925472 0 -0.0552192 -0.998474 
0 -0.351123 -0.936329 -0.0759891 -0.0550596 -0.995587 0.0759891 -0.0550596 -0.995587 
-0.134974 0.344614 -0.928991 0 0.242536 -0.970143 -0.000967008 0.17425 -0.984701 
0.409654 0.642069 -0.648021 0.132225 0.415053 -0.900138 0.140247 -0.0457969 -0.989057 
0.394924 0.154348 -0.905655 0.503229 0.336712 -0.795855 0.587676 0.704078 -0.398636 
0.579013 0.514218 -0.632711 -0.0991697 0.0499803 -0.993815 0.547679 0.754624 -0.361374 
0 -0.232903 0.9725 0.432374 0.712666 -0.552413 -0.165712 0.206781 -0.964252 
-0.108766 0.280015 -0.953814 -0.381805 0.763196 -0.521302 -0.0410655 0.202621 -0.978396 
-0.197386 0.673469 -0.712376 -0.00436821 0.361868 -0.932219 -0.163089 0.57097 -0.804609 
-0.101293 0.926996 -0.361136 -0.0502158 0.823062 -0.565727 0.212807 0.928116 -0.305473 
0.0524219 0.549231 -0.834024 0.493802 0.0685972 -0.866865 0.614869 0.276083 -0.738725 
0.273445 -0.0602443 -0.959999 0.432891 0.220142 -0.874153 0.555534 0.526254 -0.643769 
-0.0393131 -0.229309 -0.972559 0.545156 0.424949 -0.72265 0.389835 0.835543 -0.387165 
-0.30258 0.195387 -0.932882 -0.156168 -0.115154 -0.980995 -0.446434 0.35567 -0.821094 
0.437839 0.788571 -0.431802 -0.354801 0.265085 -0.896574 -0.264209 0.204958 -0.942436 
0.50097 0.72069 -0.479203 -0.478165 0.624943 -0.617094 -0.44138 0.535598 -0.719944 
-0.385643 0.45301 -0.80378 0.515156 0.838859 -0.175871 -0.403616 0.494303 -0.769908 
0.490908 0.870678 0.0304911 -0.358707 0.593025 -0.720868 0.0949617 0.703796 -0.704027 
0.423121 0.901836 -0.087524 -0.204732 0.8888 -0.410024 0.0962106 0.985072 0.142746 
0.409056 0.894876 0.178523 0.399526 0.839688 -0.367835 0.0685769 -0.341847 -0.93725 
0.522302 0.143444 -0.84061 0.442099 -0.089842 -0.892456 0.643853 0.46209 -0.609857 
0.741387 0.582716 -0.332848 0.681912 0.675906 -0.279548 0.597183 0.792587 -0.123204 
0.570162 0.71297 -0.408153 -0.293516 -0.0944613 -0.951276 0.567878 0.821637 -0.0492703 
0.472932 0.87703 0.0845805 0.577553 0.816347 -0.0031271 -0.639879 0.348222 -0.685052 
-0.656869 0.542894 -0.523249 0.523075 0.850441 0.056067 -0.434651 0.80759 -0.398593 
-0.449778 0.865476 -0.220568 0.469483 0.750831 0.464584 -0.357674 0.861151 -0.361232 
-0.275855 0.950825 -0.14084 0.450005 0.887379 -0.100271 0.622662 0.781353 -0.0421737 
-0.271071 0.949965 -0.155198 -0.095323 0.969882 -0.224147 0.346394 0.888769 0.300167 
0.3364 0.867543 0.36634 0.543888 0.231772 -0.806516 0.515067 0.0924085 -0.852154 
0.671396 0.293253 -0.68061 0.686373 0.486956 -0.540154 0.689633 0.405653 -0.599876 
0.695577 0.693119 -0.189096 0.59632 0.76707 0.236655 -0.430061 -0.173997 -0.885874 
0.562832 0.781403 0.269501 -0.505928 0.153878 -0.848739 -0.608694 0.115766 -0.784914 
0.459472 0.803188 0.379176 -0.648677 0.420714 -0.634206 -0.519965 0.849219 -0.0919935 
-0.308987 0.950249 0.0394122 -0.210302 0.976107 0.0546691 -0.116596 0.96244 0.245184 
0.289616 0.813245 0.504732 0.434308 -0.0674437 -0.898236 0.472057 0.064705 -0.87919 
0.714741 0.291593 -0.635704 0.624087 0.169349 -0.762782 0.752708 0.369332 -0.545 
0.708549 0.3282 -0.624695 0.770774 0.575789 -0.272719 0.690855 0.545745 -0.474217 
0.714226 0.445877 -0.539514 0.6935 0.51503 -0.503788 0.708729 0.611933 -0.351056 
0.616083 0.719392 0.320807 0.690475 0.702115 0.174009 -0.723331 0.0423664 -0.6892 
-0.594648 -0.00041447 -0.803986 0.540549 0.728164 0.421407 -0.754328 0.215407 -0.620153 
0.525279 0.772877 0.356011 0.316322 0.536205 0.782575 0.392286 0.70072 0.595906 
-0.687497 0.702912 -0.182383 0.214576 0.495466 0.841707 0.350172 0.630804 0.692435 
-0.670139 0.699657 -0.247778 0.452034 0.641503 0.61979 0.437716 0.700977 0.56306 
-0.209076 0.867138 0.452061 -0.328494 0.879207 0.345089 -0.0735486 0.991231 0.10978 
-0.0787939 0.94449 0.318951 -0.270752 0.745273 0.609313 0.077015 0.892766 0.443889 
-0.325748 -0.634847 -0.700613 -0.315451 -0.632084 -0.707786 0.857585 0.441164 -0.264429 
0.881495 0.467358 -0.0674068 0.574755 0.117862 -0.809793 0.727988 0.685445 0.0140717 
0.592319 0.776357 0.215471 -0.746373 0.000173658 -0.665528 0.451437 0.680749 0.576875 
-0.933673 0.200789 -0.296544 0.208054 0.491107 0.845889 0.205684 0.528455 0.823668 
0.348751 0.660955 0.664464 0.336995 0.562602 0.754926 0.404956 0.684935 0.605701 
-0.855967 0.383527 -0.346738 -0.440523 0.878629 0.184255 -0.00470247 0.747041 0.664761 
0.175781 0.318622 0.93144 -0.306781 0.934246 0.181852 -0.287995 0.934683 0.20839 
-0.145463 0.731278 0.666387 -0.0363457 0.845153 0.533287 0.336852 -0.325591 -0.883471 
0.767122 -0.0202515 -0.641182 0.717447 -0.112733 -0.687431 -0.325402 -0.631869 -0.703459 
0.837185 0.172271 -0.519079 -0.339221 -0.357814 -0.869999 0.451712 0.701175 0.551643 
0.640698 0.71424 0.281722 0.142474 0.368788 0.918529 0.640293 0.701904 0.31202 
-0.739249 -0.155428 -0.65525 0.193692 0.378251 0.905213 0.296975 0.513927 0.804789 
-0.940224 0.0857859 -0.329576 -0.849677 0.0291306 -0.526498 -0.927154 0.202479 -0.31526 
0.385174 0.624399 0.679534 -0.94199 0.284607 -0.177916 -0.579283 0.812834 -0.0611009 
-0.327828 0.790192 0.517808 -0.0811428 0.618385 0.781675 0.789274 -0.12694 -0.600777 
0.917525 0.308133 -0.251399 -0.306032 -0.400979 -0.863459 0.802437 0.531843 -0.270627 
-0.575404 -0.383431 -0.72242 0.786118 0.612935 -0.0795541 -0.723248 -0.287871 -0.627728 
-0.952958 0.0587161 -0.29736 -0.961154 0.204218 -0.185683 -0.963279 0.268344 0.00922635 
-0.931977 0.35466 0.0750665 -0.802825 0.587927 0.0990614 -0.703682 0.70775 0.0626175 
-0.425479 0.600813 0.676751 -0.394924 0.916583 0.0625399 -0.19429 0.772589 0.604448 
-0.497446 0.815166 0.296734 0.630582 -0.404251 -0.662531 0.878333 -0.131796 -0.459523 
0.933646 0.191434 -0.302751 0.814732 0.565663 0.127428 -0.912516 -0.224639 -0.341836 
0.201913 0.515035 0.833049 0.418966 0.588998 0.691049 -0.86055 -0.270782 -0.431428 
-0.963868 -0.0241315 -0.265285 -0.985728 0.151659 -0.0730801 -0.965763 0.248251 0.0753184 
-0.947664 0.312161 0.0669993 -0.832573 0.482779 0.271563 -0.328956 0.630753 0.702807 
-0.136007 0.732922 0.666579 0.764179 -0.276395 -0.582784 0.764267 -0.401357 -0.504785 
0.958367 -0.199865 -0.203926 0.990188 0.136078 -0.0317875 0.857821 0.431813 0.278711 
0.743818 0.6316 0.218669 -0.598872 -0.354514 -0.718103 0.495953 0.620043 0.607929 
-0.691467 -0.349902 -0.632015 0.139612 0.32485 0.935404 -0.999876 0.011189 0.0110622 
-0.983744 0.147011 0.103126 -0.664863 0.592262 0.455173 0.422482 -0.48341 -0.766697 
0.774582 -0.444243 -0.45019 0.954632 -0.235071 -0.182812 0.981413 -0.0998961 -0.163858 
0.998494 0.0505107 0.0214062 -0.425546 -0.467531 -0.774807 -0.709276 -0.376449 -0.595998 
0.212526 0.534932 0.817729 0.51248 0.500092 0.698049 -0.79788 -0.271232 -0.53835 
-0.847953 -0.235195 -0.475036 0.462571 0.664328 0.587109 -0.977236 -0.190143 -0.094106 
-0.990133 0.0274017 0.137424 -0.739343 0.405676 0.537401 -0.00611135 0.494598 0.869101 
-0.712814 0.46819 0.522202 0.702019 -0.448244 -0.553396 0.783023 -0.446167 -0.433369 
0.862733 -0.406549 -0.300683 0.970274 -0.203953 0.130274 0.971583 -0.0169141 0.236093 
0.948127 -0.119792 0.294457 0.960347 0.145287 0.237959 -0.356828 -0.580812 -0.731664 
0.872368 0.293841 0.390682 -0.608313 -0.454559 -0.650639 -0.647776 -0.470712 -0.599012 
0.703618 0.385688 0.596797 -0.934976 -0.303354 -0.183836 -0.992411 -0.0893704 0.084464 
0.148807 0.419327 0.895556 -0.981937 -0.0716958 0.175098 -0.880818 0.160139 0.445551 
-0.697756 0.514371 0.498557 -0.181248 0.425985 0.886389 -0.321204 0.471451 0.821317 
-0.311969 0.51643 0.797481 0 -0.146205 -0.989254 0 -0.995053 -0.0993498 
-0.672545 -0.733586 -0.0976431 0.672545 -0.733586 -0.0976431 0.478842 -0.539465 -0.692595 
0.703743 -0.390318 -0.593631 0.576594 -0.603057 -0.551236 0 0.447214 -0.894427 
0.856159 -0.373175 -0.357397 0.942686 -0.287616 -0.169176 0.781514 0.139388 0.608118 
-0.663497 -0.562611 -0.493195 0.849746 0.288719 0.441105 0.654892 0.446906 0.609419 
-0.871561 -0.380981 -0.3086 0.655285 0.460619 0.598691 0.791316 0.37643 0.481788 
-0.953128 -0.266656 -0.142973 -0.969919 -0.223944 -0.0954305 -0.919267 -0.0295189 0.392526 
-0.845664 0.0330443 0.532692 -0.812208 0.0842209 0.577256 -0.782232 0.187744 0.594024 
-0.755336 0.247812 0.606677 -0.916865 0.192977 0.349454 -0.296064 0.428636 0.853591 
-0.94171 0.221865 0.252899 -0.867017 0.395943 0.302506 -0.857373 0.214821 0.467721 
-0.483002 0.465662 0.741531 0 -0.310325 0.95063 0.629925 -0.55508 -0.543214 
0.968103 -0.20084 0.149801 0.961472 -0.157112 0.225582 -0.605002 -0.538874 -0.586163 
-0.666265 -0.635684 -0.389867 -0.824915 -0.522432 -0.215824 -0.907967 -0.366182 -0.203734 
0.510365 0.412001 0.754839 0.365652 0.458484 0.809994 -0.963277 -0.253566 0.0883299 
-0.92909 0.0350653 0.368187 -0.710203 0.181608 0.680169 -0.349484 0.377598 0.857485 
-0.417808 0.317214 0.851359 -0.684949 0.176676 0.706845 0.206015 -0.53957 -0.816347 
0.518957 -0.669313 -0.5317 0.545642 -0.59709 -0.588011 0.847806 -0.496063 -0.187472 
0.746975 -0.456942 -0.48294 -0.478582 -0.585349 -0.654466 -0.844561 -0.515524 -0.144746 
0.838885 0.0703359 0.539745 -0.862395 -0.504095 -0.0465084 -0.908684 -0.398511 -0.124431 
0.626505 0.217465 0.748466 -0.952957 -0.303093 -0.00277125 -0.930828 -0.266689 0.249872 
-0.909505 -0.0953883 0.404601 0.107479 0.442365 0.890372 -0.861714 0.0562152 0.50427 
-0.730041 0.153575 0.665924 -0.535883 0.280916 0.796188 -0.202641 0.470432 0.858854 
0.950012 -0.304315 -0.0697772 0.972696 -0.0618422 0.223694 0.926665 -0.0564442 0.371626 
-0.625263 -0.719041 -0.303358 -0.763204 -0.644249 0.0496204 -0.602968 -0.701496 -0.379912 
-0.863748 -0.492078 -0.108623 0.686908 0.145877 0.711953 -0.816571 -0.45782 -0.351587 
0.441792 0.235375 0.86569 -0.899847 -0.42369 -0.103743 -0.875131 -0.4711 0.110503 
0.260153 0.365532 0.893704 -0.924983 -0.223175 0.30757 -0.970763 -0.202212 0.129344 
-0.867442 -0.0838835 0.490417 0.0630186 0.352948 0.933518 -0.616574 0.191916 0.763548 
-0.193746 0.349585 0.916653 -0.0587046 -0.545564 -0.83601 -0.126054 -0.487287 -0.864096 
0.519509 -0.601745 -0.606641 -0.221521 -0.225908 -0.948627 -0.541363 -0.704098 -0.459535 
-0.538077 -0.749703 -0.38525 0.941492 -0.141889 0.305713 -0.708379 -0.660118 -0.249888 
-0.761656 -0.596293 -0.253604 -0.836942 -0.546144 -0.0354145 0.722306 0.192524 0.664235 
-0.94389 -0.320699 0.0788935 0.146834 0.441908 0.884961 -0.871366 -0.46731 0.149476 
-0.869655 -0.230512 0.436538 -0.830648 -0.0763719 0.551535 -0.561716 0.192054 0.80473 
-0.587455 0.120684 0.800207 -0.0440134 0.38578 0.92154 -0.443844 0.35233 0.823933 
0.548389 -0.609141 -0.572902 -0.527652 -0.535219 -0.65964 -0.299572 -0.517925 -0.801255 
-0.576766 -0.792426 -0.198501 -0.816857 -0.5722 -0.0730194 -0.843906 -0.514029 0.153611 
0.392192 0.35472 0.84874 0.782986 0.129202 0.608474 -0.890958 -0.412282 0.19031 
0.477437 0.285816 0.830881 -0.908755 -0.31197 0.2772 -0.72803 0.0679824 0.682166 
0.0860008 -0.82051 -0.565126 -0.295567 0.407997 -0.863817 0.262443 0.444642 -0.856398 
-0.322903 0.302455 0.896803 0.356989 -0.476488 0.803442 -0.0592598 0.839618 0.539935 
0.23843 -0.649752 -0.721785 0.615821 -0.571872 -0.541966 0.437222 -0.669696 -0.600287 
0.714129 -0.626767 -0.311741 0.717692 -0.586942 -0.374724 0.783057 -0.557826 -0.275048 
0.828933 -0.504177 -0.242228 0.885739 -0.40426 -0.228123 -0.420596 -0.78829 -0.449107 
-0.257877 -0.800809 -0.540559 0.973891 -0.186131 0.129968 0.977255 -0.146521 0.15331 
-0.773273 -0.633672 -0.0225502 -0.839916 -0.524891 0.137951 0.413241 0.332919 0.847583 
-0.865436 -0.360838 0.347587 -0.80551 -0.243134 0.540406 0.0835327 0.424519 0.901558 
-0.438414 0.131282 0.889134 0.134059 0.470039 0.872406 -0.322638 0.213621 0.922101 
-0.228712 -0.530102 0.816507 -0.484973 -0.83156 -0.270757 -0.490067 -0.851153 -0.188075 
-0.313934 -0.810997 -0.49369 -0.301866 -0.788333 -0.536105 -0.517658 -0.787733 -0.333925 
0.9235 -0.383527 -0.00737436 0.924555 -0.202759 0.322626 -0.703277 -0.710304 0.0294766 
0.80526 0.230961 0.54609 0.531602 0.43244 0.728283 0.635506 0.463921 0.617179 
-0.714206 -0.558458 0.421942 0.355555 0.354545 0.8648 0.326391 0.391406 0.860389 
-0.766567 -0.425642 0.480836 -0.479378 0.113838 0.870194 -0.139923 0.373565 0.91699 
-0.584309 0.0381544 0.810634 0.0385416 -0.668463 -0.742746 0.419907 -0.704579 -0.572055 
0.605425 -0.677637 -0.417455 0.813849 -0.544414 -0.203134 -0.483945 -0.874211 -0.0393866 
-0.36381 -0.850131 -0.380682 0.946118 -0.32103 0.0424386 0.890732 -0.408796 -0.198701 
0.919418 -0.368183 0.138244 -0.411923 -0.90042 -0.139871 -0.654158 -0.756351 0.0033885 
-0.693415 -0.67787 0.244271 -0.582306 -0.599529 0.549075 0.229444 0.488628 0.841783 
-0.742639 -0.265816 0.614678 -0.0134311 0.357573 0.933789 -0.5522 0.0511562 0.83214 
-0.12552 0.286905 0.9497 -0.470146 -0.0120099 0.882507 -0.298462 0.299296 0.906279 
-0.677276 0.051865 0.733899 0.624452 -0.713749 -0.317209 -0.219239 -0.709753 -0.669466 
-0.0470283 -0.89487 -0.443842 0.388431 -0.783372 -0.485231 0.853786 -0.520269 -0.0192223 
0.881228 -0.339852 0.32854 -0.523342 -0.844 0.11737 0.766017 0.12807 0.629933 
-0.600125 -0.767922 0.223935 -0.420281 -0.906944 -0.0285761 -0.573448 -0.729909 0.372007 
0.308656 0.416729 0.855025 -0.710002 -0.524492 0.469899 -0.595956 -0.453455 0.662733 
0.684864 0.169634 0.708651 -0.59872 -0.400402 0.693695 -0.610018 -0.297182 0.734548 
0.0736881 0.438074 0.895913 -0.100885 0.227299 0.968585 -0.407678 0.131659 0.903585 
0.271599 -0.779691 -0.564194 -0.339826 -0.898343 -0.278385 -0.102425 -0.953155 -0.284614 
0.655582 -0.749056 -0.0955334 -0.472778 -0.878221 -0.0721759 0.806589 -0.55362 0.207169 
0.705211 -0.252986 0.662326 0.936581 -0.321541 0.139379 0.902517 -0.186603 0.388127 
-0.639592 -0.72284 0.261582 0.799805 -0.0889788 0.593629 0.611467 0.348352 0.710464 
-0.529815 -0.620935 0.577699 0.637019 0.17874 0.749839 0.140706 0.533291 0.834147 
0.509008 0.315827 0.800727 -0.501091 -0.211756 0.839087 0.038753 0.404186 0.913855 
-0.466785 -0.256643 0.846314 -0.0424559 0.268832 0.962251 -0.201642 0.0257532 0.979121 
-0.292717 0.0572906 0.954481 -0.331164 0.195645 0.923068 0.293921 -0.820895 -0.489635 
0.624844 -0.776998 0.0764434 -0.240948 -0.900131 -0.362916 -0.106248 -0.863416 -0.493177 
0.644697 -0.764237 0.0175313 0.738506 -0.597858 0.31173 -0.521081 -0.842043 -0.139424 
0.778868 -0.340252 0.526871 -0.513598 -0.766188 0.38623 0.654233 -0.0834655 0.751673 
0 -0.19093 -0.981604 0 -0.994815 -0.101701 -0.684318 -0.722522 -0.0983355 
0.684318 -0.722522 -0.0983355 0.625284 0.175852 0.760326 0 0.351123 -0.936329 
-0.601517 -0.583956 0.545135 0.0759955 0.496557 0.864671 -0.304236 -0.144286 0.941606 
0.0513707 0.129704 0.990221 -0.071707 0.0474714 0.996295 -0.091689 0.308509 0.946792 
-0.242296 -0.0585236 0.968436 -0.515698 -0.0753282 0.853453 0.00293167 -0.861125 -0.508384 
0.185443 -0.934914 -0.302568 0.187033 -0.975212 -0.11824 0.439567 -0.898209 0.00126856 
-0.344274 -0.937434 -0.0518892 0.13524 -0.864315 -0.484427 0.61209 -0.747869 0.256978 
-0.502952 -0.851353 0.149123 -0.545379 -0.70331 0.455978 0.728554 -0.479581 0.489092 
0.622107 -0.070645 0.779738 0.659246 -0.339206 0.671069 0.723982 -0.272622 0.633662 
0.616803 -0.0150554 0.786973 -0.523319 -0.599535 0.605553 0 -0.336861 0.941555 
0.406005 0.23185 0.883971 -0.569785 -0.451888 0.686397 -0.170203 0.175238 0.969702 
0.139659 -0.939406 0.313068 -0.104188 -0.989229 -0.102813 -0.280711 -0.941115 -0.188424 
-0.27252 -0.924402 0.26686 -0.193119 -0.965782 -0.173119 -0.0747332 -0.972001 0.222775 
-0.276408 -0.856906 0.435099 -0.202646 -0.97916 -0.0134397 -0.189159 -0.978977 0.0763025 
0.340658 -0.852185 0.397157 -0.398471 -0.871573 0.285625 -0.176904 -0.98386 -0.0269138 
-0.102515 -0.991064 0.0853338 0.423715 -0.822662 0.379068 0.392789 -0.537272 0.746362 
-0.39203 -0.697314 0.600055 -0.358517 -0.675375 0.644464 0.580986 -0.72331 0.373201 
-0.484821 -0.62229 0.614576 0.640069 -0.46177 0.614068 0.562475 -0.109175 0.819574 
-0.154828 0.396086 0.905066 -0.366208 -0.234427 0.90052 -0.333883 -0.0836633 0.938894 
-0.0878253 -0.857375 0.507143 -0.116502 -0.785179 0.608212 -0.0357856 -0.756189 0.653374 
-0.129579 -0.822303 0.5541 -0.0444882 -0.756827 0.6521 0.141666 -0.714978 0.684644 
-0.257055 -0.608991 0.750368 0.493877 -0.0618348 0.867331 -0.10196 0.180368 0.9783 
0.0543148 0.261323 0.963722 0.257545 0.271397 0.927369 -0.425645 0.331537 0.841968 
-0.0539712 0.167402 0.98441 -0.0356777 -0.4985 0.866155 0.147508 -0.434908 0.888311 
0.0718468 -0.143033 0.987107 -0.330382 -0.340144 0.880426 -0.27859 -0.426749 0.860391 
-0.376883 -0.270268 0.885954 -0.31064 -0.297302 0.902837 0.413081 -0.111589 0.903832 
0.0232054 0.0455097 0.998694 -0.373326 0.0973985 0.922573 0.0284199 -0.282172 0.958943 
-0.283771 -0.134548 0.949406 -0.0264014 -0.0509962 0.99835 -0.198834 0.0104283 0.979978 
0.24995 -0.0961063 0.963477 -0.134444 -0.34701 0.928175 -0.00408475 -0.0359131 -0.999347 
-0.0804194 -0.328679 -0.941012 -0.100381 0.0535751 -0.993506 0.097374 -0.250276 -0.963265 