# vtk DataFile Version 4.2
vtk output
ASCII
DATASET POLYDATA
POINTS 899 float
326.638 114.207 47.0178 322.152 116.444 46.21 323.902 116.543 46.5576 
324.465 116.373 46.6936 325.4 115.607 46.9142 322.282 117.381 46.3715 
320.676 118.202 46.2969 320.362 118.929 46.4818 319.187 120.117 46.7699 
328.546 111.981 47.5075 324.074 113.405 46.5901 327.686 112.875 47.2868 
325.411 113.984 46.7071 328.482 112.784 47.62 326.003 114.483 46.9001 
328.576 112.635 47.5938 319.277 116.007 46.2578 321.677 115.766 46.1986 
326.446 114.699 47.2627 319.61 117.187 46.1283 324.225 116.89 46.7958 
324.403 116.879 46.9108 324.664 116.711 47.0501 323.185 117.648 46.7744 
324.076 117.121 46.9078 313.276 121.444 46.8646 317.121 121.213 47.1498 
311.42 122.757 47.3195 315.061 122.175 47.4099 312.511 123.023 47.4243 
313.723 122.79 47.4466 311.507 123.484 47.7259 312.186 123.381 47.6681 
313.324 123.08 47.5612 330.622 108.624 48.459 330.558 109.643 48.344 
331.795 108.985 49.0573 330.548 110.66 48.502 329.151 112.08 47.9244 
320.888 113.696 46.6123 328.172 113.288 47.8153 328.721 112.559 47.7007 
325.018 116.451 47.3599 323.22 117.858 47.1988 322.903 118.14 47.4534 
322.453 118.394 47.6552 320.2 119.776 47.0993 319.483 120.266 47.3432 
316.61 121.561 47.3357 316.993 121.458 47.445 309.046 122.572 47.5807 
314.252 122.764 47.6356 304.364 123.58 48.8649 308.151 123.393 48.0678 
307.497 124.153 48.7155 310.563 123.818 48.097 313.219 123.297 47.7775 
309.308 124.049 48.5375 332.121 107.208 49.3555 332.407 107.058 49.5782 
332.586 106.701 49.8516 332.297 107.439 49.4502 332.306 107.822 49.5172 
331.73 109.252 49.0767 331.955 108.907 49.3264 331.534 109.724 49.2589 
330.458 110.918 48.5196 329.627 111.805 48.1928 328.009 113.549 48.0017 
328.728 112.936 48.3911 326.251 115.269 47.6799 324.804 116.695 47.7195 
301.91 123.27 49.5721 302.196 123.461 49.3308 302.818 123.319 49.1433 
313.761 123.187 47.9249 302.301 123.464 49.2992 305.644 124.366 49.2472 
311.404 123.899 48.2625 312.634 123.691 48.2062 306.022 124.372 49.1096 
309.767 124.24 48.9285 311.694 123.945 48.5517 332.56 106.136 49.9583 
332.853 105.674 50.3695 332.798 106.169 50.2756 332.546 107.444 49.8504 
332.172 108.575 49.8081 331.81 109.353 49.7059 331.298 110.086 49.3045 
331.203 110.18 49.4893 330.052 111.545 48.5772 329.59 112.09 48.7947 
328.716 112.929 48.7703 327.067 114.416 48.5971 302.892 119.155 48.9608 
300.966 121.592 49.5387 301.62 121.42 49.2506 298.341 121.276 50.935 
316.71 121.594 48.5011 300.452 122.918 50.5049 302.458 123.623 49.5707 
303.463 124.182 50.0008 304.276 124.253 49.8095 305.381 124.42 49.6077 
306.554 124.499 49.4024 306.942 124.513 49.8581 309.72 124.39 49.2774 
313.612 123.428 48.5568 327.223 103.931 49.9259 331.576 104.994 49.9671 
332.79 105.331 50.4459 332.923 105.664 50.5515 332.906 105.834 50.6861 
332.62 107.226 50.5324 332.238 108.362 50.1711 331.757 109.31 49.9152 
331.253 110.026 49.7071 326.105 114.268 49.9148 329.018 112.536 49.1578 
326.778 114.161 49.5379 299.784 118.061 50.1191 298.509 118.953 50.4863 
299.666 119.566 49.975 320.529 119.002 48.859 296.714 120.139 51.6771 
297.695 120.175 51.0007 299.022 120.626 50.3112 297.09 120.786 51.7352 
299.128 122.516 51.3803 314.277 122.458 49.7046 302.02 123.941 50.756 
303.525 124.265 50.4103 304.922 124.434 50.052 312.77 123.584 49.1695 
311.194 123.969 49.4115 332.911 105.011 50.8666 332.943 105.317 50.8542 
332.767 106.139 51.1949 332.467 107.525 50.6662 331.892 108.748 50.4174 
329.308 111.344 50.2636 296.548 117.632 51.611 295.458 118.596 52.5201 
295.627 119.164 52.3458 295.746 119.343 52.3323 314.604 120.929 50.826 
296.676 120.754 52.3564 312.395 122.56 50.6817 313.788 122.239 50.243 
309.69 123.959 50.2594 312.511 123.489 49.5498 306.933 124.241 50.7789 
330.821 99.8974 52.4888 331.83 100.54 52.4918 332.444 100.747 52.7955 
332.956 102.976 52.3898 332.885 104.594 51.8407 332.467 106.856 51.3306 
331.593 108.233 51.1769 331.986 107.99 50.9927 304.255 110.092 51.6088 
296.744 115.763 51.8213 294.411 116.762 53.5843 294.738 117.751 53.3679 
315.239 119.147 51.6308 298.789 122.507 52.4383 299.358 122.847 52.1058 
300.515 123.413 51.7124 303.126 124.204 51.4812 308.512 123.75 51.0295 
307.7 123.841 51.2166 306.025 124.04 51.4464 332.473 99.94 53.6478 
332.642 100.49 53.5146 332.709 101.444 52.684 332.913 102.236 52.9863 
333.038 102.776 52.7397 333.065 102.89 52.7748 332.914 103.57 52.5229 
332.029 106.876 51.8071 295.035 113.402 53.5266 296.848 113.044 52.6309 
294.621 113.998 53.6617 294.308 114.707 53.8556 294.518 115.195 53.4708 
295.824 119.94 53.4707 297.702 121.711 53.2518 300.446 123.315 52.4808 
302.565 123.785 52.3659 331.206 97.1262 55.0837 331.303 97.8183 54.3936 
310.434 101.463 53.9043 332.785 101.373 53.5363 332.657 103.734 52.9569 
331.695 104.827 53.2586 332.175 104.572 53.0597 301.473 107.068 53.6461 
297.789 109.327 53.8717 294.077 116.626 54.4062 297.177 121.218 53.85 
305.755 121.683 53.716 298.278 121.987 53.4603 331.842 98.3533 55.0484 
332.32 99.3747 54.5504 332.611 101.953 53.8562 305.517 102.23 54.7536 
331.414 102.485 54.5985 332.215 102.786 53.937 295.435 109.001 55.6696 
294.42 111.414 55.6251 294.19 112.109 55.4458 294.119 113.348 54.7438 
294.189 112.332 55.2942 293.877 114.066 54.989 293.915 115.956 54.8108 
294.091 116.753 54.576 304.201 120.118 54.9816 297.006 120.955 54.4478 
297.164 121.154 54.2444 297.538 121.226 54.294 298.377 121.614 54.1417 
300.644 121.942 54.3493 297.061 121.081 54.3529 299.416 122.428 53.5854 
329.877 93.747 57.0552 331.176 96.7724 55.9528 331.685 98.204 55.4575 
332.448 100.584 54.4815 302.888 102.629 55.2912 298.897 104.535 55.9052 
298.335 104.584 56.2308 299.276 103.707 56.1786 296.233 107.218 56.3029 
295.908 107.582 56.4409 294.573 110.835 55.9108 294.433 111.219 55.9946 
294.479 111.275 56.3132 294.194 112.229 55.9048 293.868 113.873 55.2268 
293.887 113.935 55.4461 293.855 114.824 55.1564 293.865 115.3 55.1991 
306.596 115.354 56.2574 294.294 116.795 55.3402 294.599 117.111 55.5679 
295.449 118.875 55.2442 296.278 120.005 54.9915 297.174 121.069 54.4131 
299.234 121.959 54.0765 328.833 92.3811 57.4166 329.257 92.6091 57.5639 
329.547 92.8568 57.6555 329.825 93.3605 57.5149 330.828 95.9116 56.871 
330.978 96.6305 56.555 303.135 99.0752 57.2108 331.587 99.0122 55.5818 
297.478 104.948 56.7648 294.041 113.685 55.8534 294.282 116.127 55.8363 
298.169 118.962 56.3812 296.178 119.283 55.608 328.893 91.769 58.233 
328.965 91.7211 58.5398 329.632 92.8868 57.8605 329.547 92.7447 58.2051 
330.694 95.907 57.1556 330.656 96.1952 57.1316 329.683 97.3221 57.4377 
299.106 100.682 58.5176 298.718 100.898 58.802 300.394 99.843 58.1421 
330.665 98.5437 56.4244 297.741 102.867 58.4307 297.782 103.159 57.9619 
295.784 107.555 57.2239 295.509 108.285 57.2486 295.384 109.931 57.9117 
294.691 115.469 56.5582 296.141 117.904 56.6252 296.919 118.87 56.2642 
325.593 88.7273 59.4673 326.551 88.9071 59.6996 327.292 89.4347 59.6646 
327 89.848 58.9528 327.652 89.7763 59.7744 328.916 91.6017 58.9357 
328.795 91.5266 59.3409 329.764 93.2871 58.1511 308.115 94.4263 58.6506 
300.277 98.8408 59.6114 301.231 98.5607 58.7772 299.128 100.24 59.2179 
298.195 101.623 58.9638 298.171 101.783 59.568 296.169 106.858 58.1803 
296.056 107.793 58.5115 295.685 109.929 58.3713 302.163 110.174 59.415 
295.024 113.051 57.4458 296.193 116.591 57.2771 295.833 116.494 57.194 
295.602 116.556 57.0274 326.72 88.5552 60.357 320.631 87.9155 59.9732 
311.787 90.5095 60.4704 310.6 91.1364 60.5559 329.296 93.1071 58.9213 
328.978 94.0591 59.0088 328.987 93.333 59.1954 329.85 94.5137 58.2076 
301.669 97.5058 60.583 300.28 98.8212 59.9308 300 99.1852 60.1706 
298.788 100.642 59.3702 299.577 99.6676 59.9078 298.52 101.026 59.4105 
296.431 109.601 59.0296 298.814 111.047 59.4528 296.118 111.136 58.6881 
295.676 116.196 57.2137 328 85.0087 61.0174 328 85.0087 61.0175 
328 85.0088 61.0175 328 85.0088 61.0175 328 85.0088 61.0175 
311.371 90.2377 61.2584 309.432 91.3652 61.6081 327.84 90.0964 60.57 
308.034 92.5268 61.4337 328.214 91.0376 60.2641 304.782 94.7549 61.1157 
327.989 92.2711 60.261 302.523 96.7368 60.8942 303.379 96.0246 60.9688 
301.449 97.7954 60.9183 300.149 99.2342 60.5241 299.166 100.711 60.4297 
297.153 106.559 59.6078 300.642 107.321 60.4793 297.402 111.978 59.0023 
320.473 86.2488 61.8169 322.462 85.8351 62.1542 324.651 86.5108 61.7197 
324.842 86.4016 62.1453 324.881 86.5457 61.8788 328 85.0087 61.0175 
325.215 86.8173 61.9461 316.707 86.9634 62.2956 317.813 86.9132 61.7269 
311.097 90.0788 62.3818 313.32 88.9409 61.7921 310.806 90.3419 61.9627 
308.691 91.9106 61.8818 327.975 90.5125 60.5584 304.588 94.921 61.2423 
303.274 96.1542 61.2589 304.349 95.2558 61.542 301.632 97.798 61.145 
309.648 98.5841 62.1768 305.945 100.816 62.0162 298.563 103.959 60.595 
323.352 85.4263 62.9232 323.091 85.4551 62.8203 323.861 85.598 62.684 
323.989 85.6046 62.7986 324.193 85.7551 62.81 317.814 86.1423 63.4393 
318.861 85.9215 63.0102 320.121 85.5882 63.1702 315.85 87.0796 63.2366 
314.627 87.7962 63.0356 325.148 86.7428 62.3012 311.319 89.9243 62.5656 
311.507 89.8465 62.6937 310.491 90.5195 62.3823 326.922 89.1509 61.5165 
310.388 90.6924 62.5231 327.64 90.5085 60.9639 308.718 92.0409 62.2985 
309.035 91.9137 62.5332 308.511 92.468 62.5588 303.523 96.2597 61.7199 
301.695 98.6794 61.6109 305.447 99.3628 62.423 319.73 85.5166 63.8208 
320.93 85.3961 63.5431 320.644 85.3916 63.6948 320.993 85.4032 63.7415 
323.39 85.4148 63.1154 323.719 85.5046 63.1232 323.945 85.5787 62.9542 
317.518 86.2289 63.7348 321.564 85.4235 63.5506 322.479 85.4097 63.3029 
323.738 85.5736 63.2732 316.721 86.6301 63.7498 324.756 86.7376 62.9138 
314.249 88.1552 63.3302 325.786 88.192 62.3345 326.238 88.7866 62.0738 
324.552 88.7147 63.1462 311.025 91.2682 63.444 318.235 91.4706 63.7164 
307.072 94.0019 62.6912 304.226 96.1501 62.1435 305.22 98.2612 62.5938 
[...]
POINT_DATA 899
SCALARS scalars float
LOOKUP_TABLE default
1 1 1 1 1 1 1 1 1 
1 1 1 1 1 1 1 1 1 
1 1 1 1 1 1 1 1 1 
1 1 1 1 1 1 1 1 1 
1 1 1 1 1 1 1 1 1 
1 1 1 1 1 1 1 1 1 
1 1 1 1 1 1 1 1 1 
1 1 1 1 1 1 1 1 1 
1 1 1 1 1 1 1 1 1 
1 1 1 1 1 1 1 1 1 
1 1 1 1 1 1 1 1 1 
1 1 1 1 1 1 1 1 1 
1 1 1 1 1 1 1 1 1 
1 1 1 1 1 1 1 1 1 
1 1 1 1 1 1 1 1 1 
1 1 1 1 1 1 1 1 1 
1 1 1 1 1 1 1 1 1 
1 1 1 1 1 1 1 1 1 
1 1 1 1 1 1 1 1 1 
1 1 1 1 1 1 1 1 1 
1 1 1 1 1 1 1 1 1 
1 1 1 1 1 1 1 1 1 
1 1 1 1 1 1 1 1 1 
1 1 1 1 1 1 1 1 1 
1 1 1 1 1 1 1 1 1 
1 1 1 1 1 1 1 1 1 
1 1 1 1 1 1 1 1 1 
1 1 1 1 1 1 1 1 1 
1 1 1 1 1 1 1 1 1 
1 1 1 1 1 1 1 1 1 
1 1 1 1 1 1 1 1 1 
1 1 1 1 1 1 1 1 1 
1 1 1 1 1 1 1 1 1 
1 1 1 1 1 1 1 1 1 
1 1 1 1 1 1 1 1 1 
1 1 1 1 1 1 1 1 1 
1 1 1 1 1 1 1 1 1 
1 1 1 1 1 1 1 1 1 
1 1 1 1 1 1 1 1 1 
1 1 1 1 1 1 1 1 1 
1 1 1 1 1 1 1 1 1 
1 1 1 1 1 1 1 1 1 
1 1 1 1 1 1 1 1 1 
1 1 1 1 1 1 1 1 1 
1 1 1 1 1 1 1 1 1 
1 1 1 1 1 1 1 1 1 
1 1 1 1 1 1 1 1 1 
1 1 1 1 1 1 1 1 1 
1 1 1 1 1 1 1 1 1 
1 1 1 1 1 1 1 1 1 
1 1 1 1 1 1 1 1 1 
1 1 1 1 1 1 1 1 1 
1 1 1 1 1 1 1 1 1 
1 1 1 1 1 1 1 1 1 
1 1 1 1 1 1 1 1 1 
1 1 1 1 1 1 1 1 1 
1 1 1 1 1 1 1 1 1 
1 1 1 1 1 1 1 1 1 
1 1 1 1 1 1 1 1 1 
1 1 1 1 1 1 1 1 1 
1 1 1 1 1 1 1 1 1 
1 1 1 1 1 1 1 1 1 
1 1 1 1 1 1 1 1 1 
1 1 1 1 1 1 1 1 1 
1 1 1 1 1 1 1 1 1 
1 1 1 1 1 1 1 1 1 
1 1 1 1 1 1 1 1 1 
1 1 1 1 1 1 1 1 1 
1 1 1 1 1 1 1 1 1 
1 1 1 1 1 1 1 1 1 
1 1 1 1 1 1 1 1 1 
1 1 1 1 1 1 1 1 1 
1 1 1 1 1 1 1 1 1 
1 1 1 1 1 1 1 1 1 
1 1 1 1 1 1 1 1 1 
1 1 1 1 1 1 1 1 1 
1 1 1 1 1 1 1 1 1 
1 1 1 1 1 1 1 1 1 
1 1 1 1 1 1 1 1 1 
1 1 1 1 1 1 1 1 1 
1 1 1 1 1 1 1 1 1 
1 1 1 1 1 1 1 1 1 
1 1 1 1 1 1 1 1 1 
1 1 1 1 1 1 1 1 1 
1 1 1 1 1 1 1 1 1 
1 1 1 1 1 1 1 1 1 
1 1 1 1 1 1 1 1 1 
1 1 1 1 1 1 1 1 1 
1 1 1 1 1 1 1 1 1 
1 1 1 1 1 1 1 1 1 
1 1 1 1 1 1 1 1 1 
1 1 1 1 1 1 1 1 1 
1 1 1 1 1 1 1 1 1 
1 1 1 1 1 1 1 1 1 
1 1 1 1 1 1 1 1 1 
1 1 1 1 1 1 1 1 1 
1 1 1 1 1 1 1 1 1 
1 1 1 1 1 1 1 1 1 
1 1 1 1 1 1 1 1 1 
1 1 1 1 1 1 1 1 
NORMALS Normals float
0.519326 0.22291 -0.824992 0.0426206 0.0749517 -0.996276 0.227891 0.174645 -0.957896 
0.428823 0.305898 -0.850022 0.477518 0.314313 -0.820478 0.15397 0.269154 -0.95071 
0.230297 0.237499 -0.943693 0.454635 0.471761 -0.755479 0.202443 0.5266 -0.825657 
0.414994 0.0319727 -0.909262 0.11234 -0.211164 -0.970974 0.297808 0.120886 -0.946941 
0.168404 -0.0345342 -0.985113 0.690483 0.627641 -0.359585 0.340175 0.268526 -0.901208 
0.527393 0.283749 -0.800839 -0.175038 -0.266606 -0.947778 0.0472908 -0.0202439 -0.998676 
0.643672 0.484137 -0.592704 -0.00595014 0.0161927 -0.999851 0.412879 0.411075 -0.812741 
0.601501 0.724317 -0.336989 0.637261 0.546947 -0.542907 0.445458 0.690069 -0.570414 
0.428192 0.648016 -0.629862 0.0493482 0.324776 -0.944503 0.440123 0.74971 -0.494193 
-0.102559 0.378138 -0.920051 0.279115 0.673067 -0.684891 0.081199 0.589156 -0.803929 
0.248982 0.5496 -0.797464 0.0703917 0.73514 -0.674251 0.0826419 0.657329 -0.749059 
0.178638 0.610245 -0.771809 0.215423 -0.218182 -0.951835 0.45109 0.0810293 -0.888792 
0.715413 0.0451076 -0.697244 0.636444 0.2944 -0.712929 0.698034 0.477783 -0.533359 
-0.190842 -0.26264 -0.945833 0.669192 0.547898 -0.501986 0.740768 0.448604 -0.500018 
0.675041 0.725802 -0.132408 0.438055 0.794719 -0.420154 0.535004 0.811168 0.236172 
0.493836 0.865825 -0.0804631 0.528613 0.705637 -0.471852 0.470942 0.879186 -0.072428 
0.299098 0.800104 -0.519974 0.619386 0.774552 -0.128181 -0.0194743 0.360158 -0.932688 
0.397643 0.678831 -0.617308 -0.229788 0.543091 -0.807619 -0.0542794 0.450194 -0.89128 
-0.00807189 0.736663 -0.676212 -0.0619755 0.81176 -0.580694 0.211092 0.825478 -0.523475 
-0.0575875 0.796539 -0.601838 0.464666 -0.159928 -0.870924 0.743096 -0.0702757 -0.665485 
0.661741 -0.179169 -0.72801 0.604249 0.0422935 -0.795672 0.789847 0.151663 -0.594256 
0.777378 0.368192 -0.510017 0.91307 0.213536 -0.347427 0.80562 0.59241 -0.00522311 
0.676313 0.388868 -0.625606 0.689985 0.552377 -0.467761 0.725087 0.68205 -0.0951632 
0.72164 0.667087 -0.185015 0.725882 0.62867 -0.27905 0.616145 0.787319 -0.0222528 
-0.563604 0.628245 -0.536339 -0.475693 0.501085 -0.722932 -0.191713 0.467485 -0.862962 
0.363579 0.803325 -0.471677 -0.142754 0.662808 -0.735056 -0.299312 0.628016 -0.718337 
0.124771 0.897854 -0.422245 0.206341 0.904576 -0.373049 -0.0668225 0.91422 -0.39967 
0.256877 0.950206 -0.176416 0.158157 0.961639 -0.224135 0.601082 -0.202857 -0.773013 
0.750585 -0.193342 -0.631855 0.926711 0.0419151 -0.37343 0.954405 0.212707 -0.209442 
0.941862 0.310925 -0.127366 0.853364 0.516868 0.0679558 0.794894 0.538965 -0.278677 
0.772919 0.625477 0.10665 0.770072 0.636029 0.0495647 0.757446 0.647891 0.080698 
0.582525 0.710983 0.393914 0.593813 0.758249 0.269156 -0.233467 -0.124766 -0.964327 
-0.400952 0.103162 -0.910272 -0.361232 0.0899405 -0.928128 -0.541738 0.353157 -0.762759 
0.550403 0.817812 0.16805 -0.515133 0.578983 -0.631994 -0.279031 0.868771 -0.409119 
-0.249395 0.892487 -0.375858 -0.152494 0.948626 -0.277226 -0.137816 0.956928 -0.255531 
0.0166584 0.9772 -0.211665 0.0844394 0.990827 0.10551 0.237398 0.97084 0.0333551 
0.417078 0.90659 -0.0643444 -0.118165 -0.420947 -0.899356 0.341337 -0.389912 -0.855253 
0.769783 -0.329102 -0.546925 0.971012 -0.0410586 -0.235479 0.980501 0.193789 0.0326053 
0.942079 0.298896 0.152147 0.870942 0.430239 0.23739 0.719104 0.622595 0.30865 
0.688808 0.635124 0.349516 0.408935 0.591031 0.695309 0.613003 0.669895 0.418889 
0.509403 0.665376 0.545695 -0.327847 -0.164175 -0.930357 -0.471315 -0.00116423 -0.881964 
-0.397728 -0.0601826 -0.915528 0.48075 0.648328 0.590381 -0.655346 0.272825 -0.704335 
-0.522694 0.205313 -0.827428 -0.48523 0.1272 -0.865085 -0.640255 0.551297 -0.534926 
-0.545168 0.776721 -0.31543 0.497944 0.685353 0.53136 -0.353975 0.928973 -0.108214 
-0.167232 0.983397 -0.0704597 -0.0407323 0.998806 0.0269885 0.384973 0.803698 0.453724 
0.240278 0.928738 0.282334 0.853675 -0.288863 -0.433356 0.998053 -0.0194571 -0.0592544 
0.900989 0.248672 0.355501 0.816595 0.338131 0.467803 0.716813 0.538072 0.443461 
0.427049 0.610994 0.66657 -0.578462 -0.0270105 -0.815262 -0.910618 0.39138 -0.132653 
-0.535771 0.0809702 -0.840472 -0.803973 0.36552 -0.469065 0.462755 0.529317 0.711113 
-0.719546 0.663528 -0.204901 0.349064 0.658164 0.667065 0.315795 0.568705 0.759506 
0.418285 0.740659 0.525797 0.364951 0.756444 0.542774 0.163589 0.921556 0.352098 
0.170829 -0.596853 -0.783954 0.41886 -0.468868 -0.777637 0.653822 -0.504698 -0.563735 
0.975983 -0.0980761 -0.194523 0.957069 0.165927 0.237671 0.857011 0.344048 0.383618 
0.500092 0.382206 0.777063 0.665947 0.272365 0.694502 -0.140099 -0.433272 -0.890308 
-0.407689 -0.22822 -0.884141 -0.867967 0.178549 -0.463415 -0.659572 0.0709215 -0.748288 
0.383894 0.445753 0.808659 -0.502441 0.857177 0.113141 -0.444132 0.888111 -0.118346 
-0.455842 0.871667 -0.180015 -0.151231 0.983231 0.101912 0.255576 0.742079 0.619677 
0.209616 0.827656 0.520622 0.0864276 0.880231 0.466609 0.90219 -0.395914 -0.171187 
0.959301 -0.269086 -0.0856375 0.876715 -0.282872 -0.389042 0.983033 -0.183254 -0.00801097 
0.936018 -0.253195 -0.244463 0.976073 0.0804465 0.202012 0.965158 0.211345 0.154286 
0.63905 0.418435 0.645389 -0.653441 -0.365808 -0.662722 -0.409298 -0.224087 -0.884455 
-0.613778 -0.196389 -0.764661 -0.896138 -0.124508 -0.425952 -0.712068 -0.0479878 -0.700469 
-0.837329 0.54618 -0.0238337 -0.527323 0.822171 0.214394 -0.312759 0.92495 0.215985 
-0.0403599 0.826625 0.561304 0.690227 -0.568482 -0.447677 0.671838 -0.568178 -0.475191 
-0.163734 -0.293403 -0.941863 0.98523 -0.0776106 0.152641 0.703648 0.346167 0.620522 
0.292332 0.442326 0.847874 0.696133 0.326143 0.639555 -0.303425 -0.450558 -0.839602 
-0.312062 -0.393035 -0.864951 -0.945224 0.152725 -0.288491 -0.517921 0.845613 0.129214 
0.259926 0.53987 0.800611 -0.328676 0.857062 0.396759 0.939358 -0.329061 0.0965668 
0.937247 -0.201979 0.284206 0.824225 0.139369 0.548844 -0.191057 -0.0366471 -0.980895 
0.380635 0.3947 0.836259 0.640089 0.33883 0.689551 -0.797152 -0.427066 -0.426806 
-0.935883 -0.288889 -0.20166 -0.912335 -0.291404 -0.287626 -0.824755 -0.184596 -0.534513 
-0.950418 -0.224566 -0.215117 -0.950181 0.00984279 -0.311545 -0.98998 0.125386 -0.0649471 
-0.876309 0.480603 0.0332181 0.127953 0.472768 0.871848 -0.151258 0.557535 0.816257 
-0.272429 0.913844 0.301116 -0.225402 0.829952 0.510268 -0.235113 0.761121 0.604497 
0.000940889 0.587366 0.809321 -0.524491 0.784886 0.329945 -0.322744 0.799027 0.507338 
0.864964 -0.43791 -0.245097 0.95016 -0.306624 0.0563728 0.873451 -0.0622646 0.482915 
0.859764 0.0345957 0.509519 -0.350722 -0.37814 -0.85674 -0.47348 -0.246295 -0.845668 
-0.474584 -0.497836 -0.725899 -0.25779 -0.295238 -0.919989 -0.673485 -0.51813 -0.527218 
-0.809269 -0.541275 -0.228264 -0.902805 -0.38357 -0.194466 -0.980533 -0.186602 0.0611054 
-0.960313 -0.185395 0.208393 -0.965649 -0.126213 0.227141 -0.985113 -0.17138 -0.0134511 
-0.945808 0.0971019 0.309868 -0.98782 -0.0231303 -0.153875 -0.957902 0.0823945 0.275018 
0.231226 0.332228 0.914418 -0.801516 0.42077 0.424882 -0.75579 0.404717 0.514768 
-0.698514 0.517896 0.493824 -0.524798 0.66577 0.530413 -0.0750817 0.637077 0.767135 
-0.323289 0.736973 0.593595 0.429806 -0.612086 -0.66379 0.648808 -0.594417 -0.475097 
0.703655 -0.645318 -0.297378 0.824123 -0.444535 -0.351014 0.956971 -0.210868 0.199351 
0.82692 0.0756528 0.557207 -0.305291 -0.541971 -0.782984 0.790353 0.0125302 0.612523 
-0.647438 -0.321011 -0.691213 -0.947543 -0.0150247 0.319274 -0.846334 0.184581 0.499648 
-0.0656264 0.546527 0.834866 -0.377811 0.594394 0.709898 0.640577 -0.68489 -0.347257 
0.914471 -0.402224 -0.0442436 0.855859 -0.511977 -0.0733833 0.856702 -0.51526 0.023843 
0.760867 0.061048 0.646029 0.739087 0.186635 0.647239 0.451296 0.316132 0.834501 
-0.579326 -0.575026 -0.577691 -0.770176 -0.555534 -0.313386 -0.493792 -0.573129 -0.653982 
0.411888 0.295711 0.861919 -0.780975 -0.539891 -0.314 -0.400517 -0.705636 -0.584521 
-0.919561 -0.392619 0.0160747 -0.942395 -0.307928 0.13066 -0.851528 -0.131896 0.507448 
-0.678964 0.304425 0.668081 -0.408416 0.473932 0.780118 -0.321561 0.545579 0.773913 
0.224523 -0.665882 -0.711471 0.483987 -0.777308 -0.401931 0.544044 -0.711808 -0.444236 
0.331917 -0.605157 -0.723613 0.719239 -0.673552 -0.170361 0.880956 -0.447018 0.155213 
0.902373 -0.0906443 0.421316 0.921524 -0.131801 0.365269 -0.405976 -0.658072 -0.634134 
-0.670152 -0.711981 -0.209712 -0.515391 -0.732732 -0.444384 -0.644682 -0.707977 -0.288364 
-0.833623 -0.455898 -0.311816 -0.84394 -0.333761 0.419962 -0.906511 -0.40033 0.134067 
-0.867608 -0.190315 0.459386 -0.767584 -0.15853 0.621034 0.250993 0.363663 0.89708 
-0.725747 0.155522 0.670153 -0.240384 0.390462 0.888682 -0.377539 0.396229 0.836939 
-0.547226 0.401325 0.734494 0.545381 -0.7534 -0.367353 -0.0968895 -0.561378 -0.821868 
-0.407454 -0.619148 -0.671294 -0.457806 -0.661309 -0.594208 0.814101 -0.016596 0.580486 
0.529796 0.338369 0.777703 0.593458 0.297687 0.74779 0.558167 0.275269 0.782737 
-0.63628 -0.770326 0.0417786 -0.658536 -0.750001 0.0618709 -0.758314 -0.622815 0.192513 
-0.795967 -0.567902 0.209579 -0.764191 -0.64187 0.0633624 -0.824164 -0.536707 0.180827 
-0.548822 -0.0407597 0.834945 -0.110147 0.268832 0.956868 -0.551303 0.127567 0.824495 
-0.539301 0.238488 0.807637 0 -0.19093 -0.981604 0 -0.994815 -0.101701 
-0.684318 -0.722522 -0.0983355 0.684318 -0.722522 -0.0983355 0 0.351123 -0.936329 
-0.536566 -0.751607 -0.383645 -0.59948 -0.775884 -0.196541 0.846331 -0.397725 0.354313 
-0.65933 -0.748209 -0.0739396 0.849183 -0.169203 0.500258 -0.563661 -0.825716 -0.0219133 
0.556291 0.22621 0.799606 -0.674929 -0.726881 0.126948 -0.602501 -0.79717 0.0388825 
-0.693172 -0.574574 0.435175 -0.712997 -0.516627 0.474058 -0.742074 -0.372611 0.557213 
-0.652137 -0.0610024 0.755643 -0.0243508 0.193468 0.980804 -0.0830418 0.341674 0.936143 
-0.116366 -0.770439 -0.626803 0.0211789 -0.811723 -0.583658 0.286843 -0.747116 -0.599615 
0.591472 -0.773252 -0.228567 0.540607 -0.700946 -0.465208 0 -0.336861 0.941555 
0.801662 -0.595639 0.0505152 -0.318174 -0.906083 -0.278889 -0.251206 -0.853591 -0.456375 
-0.45789 -0.878473 -0.136465 -0.472016 -0.831272 -0.293577 -0.607459 -0.730375 -0.312323 
-0.637335 -0.755796 0.150257 0.820388 -0.0986379 0.563235 -0.610974 -0.739057 0.283735 
-0.535435 -0.780143 0.323552 -0.521241 -0.670235 0.528292 -0.621189 -0.532067 0.57535 
0.183209 0.333614 0.924736 0.159463 0.237277 0.958265 -0.507515 -0.0327338 0.861021 
0.115492 -0.957192 -0.265413 -0.0149867 -0.938591 -0.344706 0.306893 -0.865979 -0.394837 
0.405136 -0.892994 -0.196028 0.68541 -0.72704 0.0403277 -0.369515 -0.905355 -0.209263 
-0.237647 -0.911974 -0.334406 -0.136695 -0.936497 -0.322937 -0.428419 -0.903221 0.0254717 
-0.542046 -0.837459 -0.0696241 0.802078 -0.523823 0.286844 -0.404672 -0.906117 -0.123257 
-0.474938 -0.861763 0.178319 -0.631507 -0.775138 0.0189975 0.643386 -0.0603165 0.763162 
-0.637703 -0.6261 0.448702 0.643842 0.0169017 0.764972 -0.676601 -0.654547 0.337312 
-0.527882 -0.610412 0.59054 -0.530757 -0.568546 0.628532 -0.594736 -0.55111 0.585292 
-0.552512 -0.249852 0.795176 0.0309351 0.140554 0.98959 -0.155842 -0.969779 0.187726 
2.64459e-05 -0.982278 -0.187428 -0.0739724 -0.981657 0.175719 0.0808742 -0.944633 0.318006 
0.16078 -0.96569 0.203943 0.291401 -0.95579 0.0393787 0.527347 -0.830618 0.178827 
-0.299988 -0.930083 0.212021 0.0930251 -0.988248 0.121291 0.06584 -0.975872 0.20818 
0.50106 -0.645105 0.57687 -0.553532 -0.704079 0.444832 0.683403 -0.199854 0.702153 
-0.576025 -0.762563 0.294435 0.731282 -0.245651 0.636303 0.686129 -0.158721 0.709954 
0.406856 0.218292 0.887027 -0.217847 -0.223683 0.950005 0.170204 0.395865 0.902397 
-0.49674 -0.496077 0.712149 -0.475965 -0.334159 0.813508 -0.0117548 0.0664747 0.997719 
-0.204132 0.082344 0.975474 -0.284022 -0.938613 0.195797 -0.434657 -0.895274 0.0977663 
-0.0764569 -0.749103 0.658027 0.0419165 -0.792021 0.609053 -0.416551 -0.691338 0.590371 
-0.461848 -0.625683 0.628663 0.410528 0.101825 0.906145 -0.350015 -0.27175 0.896461 
-0.273723 -0.343826 0.898253 -0.491667 -0.212397 0.844483 -0.258176 -0.284499 0.923258 
-0.243313 -0.203524 0.948355 -0.245581 0.171586 0.954069 0.0338885 0.186236 0.98192 
-0.331826 -0.115565 0.936235 -0.04577 0.0545415 0.997462 -0.370454 -0.138966 0.918397 
0.0783987 -0.768121 0.635487 0.169636 -0.519315 0.837577 -0.359284 -0.583056 0.72867 
-0.204447 -0.670159 0.713504 0.270412 -0.668702 0.692614 0.353518 -0.143967 0.924283 
0.198117 -0.131022 0.971382 0.552588 -0.100827 0.827334 -0.0409651 0.175097 0.983699 
-0.264837 -0.266709 0.926676 -0.0306484 0.0270363 0.999165 -0.284021 -0.271856 0.91947 
-0.185542 -0.294451 0.937482 0.0395679 -0.420442 0.906456 -0.217194 -0.0411921 0.975259 
0.0193903 0.139431 0.990042 0.0972088 0.157634 0.982701 -0.149489 -0.0776936 0.985706 
0.0349495 -0.117781 0.992424 -0.181536 -0.106719 0.977576 -0.118272 -0.527153 -0.841499 
0.166997 -0.287815 -0.943013 0.298241 -0.147304 -0.943056 0.257932 -0.461255 -0.848949 
0.39149 -0.151811 -0.907573 0.134174 0.0381141 -0.990225 0.0607687 -0.423372 -0.903916 
-0.026608 -0.176373 -0.983964 -0.153977 -0.0463495 -0.986987 -0.381063 -0.237605 -0.893496 
-0.278101 -0.618822 -0.734656 -0.245855 -0.775229 -0.581873 -0.0365108 -0.64894 -0.759963 
0.00188318 -0.752418 -0.658683 0.2024 -0.684163 -0.700682 0.43495 -0.401354 -0.80606 
0.370676 -0.796834 -0.477132 0.67253 -0.68266 -0.285794 0.669461 -0.0948077 -0.736772 
0.780064 -0.18262 -0.598456 -0.415257 -0.395909 -0.819034 -0.272447 -0.0481162 -0.960967 
-0.298076 -0.244163 -0.922787 -0.158204 -0.19411 -0.968139 -0.265706 -0.0593846 -0.962223 
-0.0032869 0.237007 -0.971502 -0.126314 0.0623524 -0.990029 0.00550228 -0.755811 -0.654767 
-0.280954 -0.946201 -0.160526 0.186578 -0.756902 -0.626329 0.156269 -0.980621 -0.11816 
0.0386512 -0.998879 -0.0273302 0.478196 -0.8606 -0.175204 -0.442997 -0.896304 0.019789 
-0.0361366 -0.960621 -0.275501 0.0713236 -0.972422 -0.222057 0.572251 -0.816274 0.0788978 
-0.411998 -0.672844 -0.614442 0.546678 -0.799959 -0.247402 0.751614 -0.631793 -0.189508 
-0.449154 -0.428975 -0.783735 -0.532217 -0.725477 -0.436382 0.305353 0.216954 -0.927195 
-0.458734 -0.576849 -0.675876 -0.448202 -0.31082 -0.838156 0.0718513 0.283933 -0.956148 
0.0224744 0.121214 -0.992372 -0.0513955 0.23699 -0.970152 -0.340425 -0.378469 -0.860739 
-0.076692 -0.051523 -0.995723 -0.285339 -0.892651 0.348934 -0.184883 -0.955763 0.228767 
0.194202 -0.94049 0.27886 0.0117383 -0.99766 0.0673555 0.313246 -0.849249 0.425034 
-0.396931 -0.909225 0.12552 0.255132 -0.920661 0.29545 -0.473354 -0.880781 -0.0126576 
0.623923 -0.7749 -0.101247 -0.56956 -0.815403 -0.103533 0.708787 -0.37882 -0.595077 
-0.578034 -0.693397 -0.430207 -0.198883 0.434903 -0.87824 0.208444 0.387837 -0.89785 
-0.479774 -0.247087 -0.841882 -0.00620711 0.0760146 -0.997087 -0.454677 -0.0598347 -0.888644 
-0.130999 -0.857263 0.497935 0.045873 -0.65125 0.757476 0.383013 -0.762377 0.521616 
-0.505795 -0.850937 0.141697 -0.528052 -0.821996 0.213269 0.489562 -0.867788 0.0852776 
0.719686 0.0191759 -0.694034 0.868578 -0.239718 -0.433713 0.648915 -0.61842 -0.443245 
0.956965 -0.28976 0.0160211 -0.559592 -0.828114 -0.032922 -0.567226 -0.818046 0.0951611 
-0.551655 -0.829219 -0.0898502 0.693981 -0.361957 -0.622396 -0.588998 -0.741143 -0.322162 
0.84454 -0.0956008 -0.526889 0.727337 -0.0071247 -0.686243 -0.610195 -0.719245 -0.332188 
0.57959 0.109666 -0.807496 -0.4128 -0.627466 -0.660214 -0.41678 -0.599422 -0.683366 
-0.525613 -0.577577 -0.624609 -0.598068 -0.492677 -0.632127 0.253535 0.379688 -0.889695 
-0.778552 -0.299208 -0.551663 0.182732 0.245618 -0.951988 0.137448 0.322108 -0.936672 
-0.813904 -0.225028 -0.535652 -0.470523 -0.161909 -0.867406 -0.0989456 0.217941 -0.970933 
-0.313227 0.117004 -0.942443 0.240141 -0.772748 0.587531 -0.441972 -0.810372 0.384653 
-0.182255 -0.798498 0.573746 0.305643 -0.835391 0.456842 0.622265 -0.781311 0.0483639 
0.625079 -0.733324 0.267417 -0.384193 -0.796652 0.466628 0.73973 -0.647552 -0.182964 
0.735485 -0.667027 0.118898 -0.478915 -0.7756 0.411199 -0.316465 -0.81726 0.481597 
-0.345117 -0.743796 0.572418 0.682688 -0.711569 0.166154 0.873426 -0.476247 0.101564 
0.913834 -0.306551 -0.266335 -0.615899 -0.765336 0.186896 0.85979 -0.38531 -0.335109 
0.285438 0.442795 -0.849975 0.668303 -0.0265633 -0.743414 -0.609919 -0.792451 0.00444871 
-0.70473 -0.53483 -0.466167 -0.788629 -0.520075 -0.328003 -0.739492 -0.431239 -0.516899 
-0.683861 -0.120338 -0.71962 -0.0466833 0.221082 -0.974137 -0.482423 0.0125914 -0.875848 
-0.428402 0.323516 -0.843688 -0.329274 0.270279 -0.904725 0.269381 -0.820688 0.50389 
-0.301976 -0.711886 0.634058 0.806897 -0.589209 -0.041833 0.86528 -0.327401 -0.379603 
-0.562499 -0.722338 0.402272 0.720199 -0.182883 -0.669229 0.808144 -0.0787306 -0.583699 
0.629911 0.115795 -0.767986 0.589075 0.315637 -0.743885 -0.629992 -0.759738 -0.160961 
-0.760313 -0.649017 -0.0264929 0.650212 0.252607 -0.716529 -0.759834 -0.603654 -0.24136 
-0.893712 -0.435569 -0.107513 -0.597513 -0.118252 -0.793092 -0.596929 0.13459 -0.790924 
-0.0368413 0.144017 -0.988889 -0.378773 0.202228 -0.903125 -0.657795 0.17186 -0.733328 
0.51622 -0.700134 0.493285 0.0364603 -0.660073 0.750316 0.336304 -0.704214 0.625286 
0.755692 -0.605924 0.248569 0.707166 -0.682607 0.184294 -0.112126 -0.56984 0.81407 
0.858104 -0.36917 -0.356892 -0.452269 -0.67011 0.588562 -0.554658 -0.761187 0.33608 
-0.32017 -0.605373 0.728707 0.902739 -0.232891 -0.361695 -0.674154 -0.680581 0.286923 
-0.53823 -0.70713 0.458558 -0.755945 -0.592155 0.279104 -0.842395 -0.536007 0.0553796 
-0.814673 -0.576634 -0.0616439 -0.842758 -0.385499 -0.3757 -0.88339 -0.196992 -0.425226 
-0.780031 0.0185822 -0.625465 0.0716417 0.208595 -0.975375 0.523064 -0.735018 0.431453 