# vtk DataFile Version 4.2
vtk output
ASCII
DATASET POLYDATA
POINTS 809 float
339.927 108.181 49.4971 339.918 108.133 49.5094 339.939 108.193 49.4764 
339.254 106.902 50.2647 339.659 107.293 49.9342 339.588 107.036 50.0719 
339.671 107.22 49.9773 339.445 107.406 50.0599 339.734 107.743 49.7519 
339.729 107.85 49.7716 339.805 107.936 49.7671 339.899 108.119 49.5648 
339.93 108.172 49.5043 338.979 106.5 50.5763 339.539 106.676 50.3091 
339.481 106.122 50.6896 339.682 107.182 50.0354 339.476 107.572 50.1356 
339.755 107.456 50.0508 339.558 107.698 50.1134 339.823 107.798 49.7857 
339.729 107.877 49.9288 339.654 107.804 50.0515 339.759 107.836 49.9584 
339.719 107.848 50.0083 338.515 104.367 51.2814 339.05 104.371 51.387 
338.558 104.899 51.1033 338.973 104.946 51.0297 339.417 107.487 50.3117 
339.554 107.669 50.1954 339.735 107.679 50.0934 339.683 107.799 50.0887 
338.07 104.942 51.676 338.429 105.922 51.3893 339.607 106.611 50.6567 
338.855 106.685 50.9447 339.634 107.219 50.4728 339.293 107.248 50.5672 
339.487 107.489 50.3779 339.651 107.521 50.2921 339.663 107.709 50.1764 
340.004 112.013 51.0087 340.004 112.013 51.0087 340.004 112.013 51.0087 
340.004 112.013 51.0088 340.004 112.013 51.0088 337.582 100.152 53.2666 
337.072 101.424 53.0104 338.569 101.005 53.2904 337.378 102.792 52.7235 
337.754 104.049 52.3126 338.335 105.568 51.7035 338.445 106.204 51.4322 
338.437 106.265 51.4121 338.432 106.238 51.4149 338.447 106.129 51.4164 
338.429 106.034 51.4993 339.482 106.154 51.1461 338.453 106.264 51.3942 
338.541 106.312 51.3216 338.79 106.577 51.1185 339.159 106.997 50.7987 
339.346 107.098 50.7163 339.399 106.886 50.8678 340.004 112.013 51.0088 
336.575 98.5845 54.2484 336.604 98.0137 54.4362 337.301 98.7616 53.9397 
337.617 98.212 54.2095 336.518 98.9829 54.1885 336.873 99.3851 53.828 
337.132 101.968 53.2549 338.753 101.52 53.4187 337.237 102.509 53.0172 
338.908 102.478 52.8399 339.02 103.244 52.6057 338.119 104.979 52.0561 
338.47 106.261 51.4015 338.537 106.151 51.4417 339.307 105.718 51.6008 
339.337 105.926 51.4836 337.037 97.4585 54.5706 337.888 96.7916 55.1629 
338.025 96.9725 55.2535 335.883 97.6574 55.0741 336.444 99.645 54.307 
337.313 102.322 53.3933 338.646 104.617 52.441 339.366 105.857 51.4999 
334.874 95.074 56.6303 335.221 94.7984 56.3264 335.965 95.4528 55.7167 
337.817 95.6064 56.0481 338.298 98.0553 55.198 336.164 98.9591 54.7271 
338.534 101.43 54.1997 338.363 102.368 53.8268 337.642 95.0499 56.2986 
338.403 99.0732 55.3146 338.535 99.9857 55.0138 338.532 100.232 54.9147 
334.13 91.0788 58.258 335.01 91.7475 57.6457 335.603 91.1605 57.8846 
336.763 93.1095 57.0613 335.122 96.1378 56.9825 335.21 96.4415 56.8268 
335.175 96.3813 56.7192 335.896 89.9797 58.6319 336.616 90.6195 58.5577 
336.9 90.2347 59.1716 335.065 95.68 57.2933 336.626 97.6751 56.6044 
337.377 96.7477 57.0258 336.998 98.3065 56.2598 335.607 88.329 59.6201 
335.724 87.8163 60.0483 332.713 88.4243 59.9188 334.06 87.9288 59.7578 
334.655 87.992 59.6956 336.76 88.8902 60.0087 332.249 88.808 60.1617 
331.886 88.6445 60.5789 336.665 89.5349 59.3733 332.498 89.7834 60.0144 
332.745 90.4331 59.8581 333.39 91.674 59.1308 337.236 91.8271 58.9002 
334.698 94.5576 57.9224 335.435 95.1185 57.9808 336.278 95.7185 57.7791 
336.329 95.0253 58.2016 336.62 88.1812 60.4493 336.682 88.3196 60.493 
336.789 88.8928 60.3073 333.021 91.0352 59.6674 333.811 92.5153 58.8972 
336.977 92.8501 59.1471 334.632 93.0194 59.2428 335.549 93.7716 58.9605 
336.131 93.0677 59.4076 337.114 93.3939 58.8559 336.809 94.2322 58.5611 
334.551 85.311 61.6696 335.558 85.8184 61.9722 329.621 85.2573 62.4629 
336.238 87.1169 61.2735 331.936 89.1289 60.8948 331.666 88.7284 61.371 
333.775 92.0294 59.6199 335.74 92.4842 59.828 336.606 91.4776 60.099 
337.207 93.5399 58.7182 333.498 84.4698 62.0017 334.279 84.204 62.5176 
335.662 85.5123 62.5964 335.927 86.2954 62.1195 336.254 87.2699 61.8055 
331.699 88.6562 61.7203 336.61 89.7168 60.7806 336.018 89.8544 61.2926 
336.657 90.9726 60.2786 327.473 83.3646 63.8208 333.41 82.7721 63.3068 
334.41 83.788 63.021 335.458 84.9951 63.0416 328.258 84.5834 63.6536 
335.694 85.3288 62.8549 335.757 85.4925 62.788 335.748 85.3847 62.878 
335.772 85.8123 62.7054 335.732 85.4508 62.8975 329.603 85.9675 62.8666 
335.956 86.7303 62.3393 336.08 88.905 61.6975 333.061 88.8984 62.294 
335.239 89.4971 61.8233 335.778 88.8909 61.9285 333.092 81.4872 64.1407 
333.621 80.9892 64.8474 333.904 81.0666 65.1182 319.354 82.223 65.9597 
319.106 82.465 65.9653 319.653 82.0897 65.9 320.782 81.7062 65.6905 
325.418 82.0621 64.5946 332.26 81.9558 63.5479 334.074 82.3666 64.1527 
318.945 82.6759 65.8964 321.884 82.5416 65.4479 322.275 82.2844 65.334 
334.549 82.9802 64.3627 334.788 83.5964 63.8061 318.996 82.7059 65.8964 
319.096 82.8252 65.883 323.404 82.635 65.243 325.194 83.1474 65.0867 
326.419 83.2459 64.4113 326.805 83.7075 64.5119 335.669 85.2872 62.9644 
335.543 85.3005 63.1402 329.177 85.579 63.6182 329.573 85.9279 63.6431 
332.818 87.2329 63.6045 333.947 87.8383 63.1262 331.436 87.9269 62.491 
335.336 87.5546 62.8183 326.068 79.1189 65.4561 328.423 79.4741 64.9568 
333.298 80.3962 65.0676 333.611 80.0151 65.6558 333.828 80.3848 65.6999 
319.529 81.8674 66.2244 320.38 81.1247 66.2538 334.29 81.9951 65.1648 
318.918 82.7063 65.9242 318.918 82.7464 66.0213 319.836 82.7215 65.7142 
320.708 82.6378 65.6016 318.648 83.1407 66.025 318.733 83.0387 65.997 
321.721 82.7904 65.6138 323.849 82.8535 65.3028 324.481 83.0458 65.366 
318.688 83.1644 65.984 318.639 83.2169 66.0177 318.755 83.1887 65.9627 
318.896 83.1616 65.941 325.38 83.2967 65.4024 327.799 84.3835 64.6895 
318.7 83.2391 66.0015 329.833 86.0352 63.7845 329.8 85.7034 64.2414 
330.955 86.4307 63.9479 323.787 78.6046 66.3204 331.155 77.8227 66.2365 
321.485 79.5114 66.7376 333.753 79.7168 66.4438 319.272 82.1403 66.2243 
318.679 83.0991 66.0798 318.822 82.9376 66.1607 319.568 83.0813 65.8748 
322.269 82.9061 65.736 322.892 82.9355 65.7573 318.655 83.1903 66.0638 
318.804 83.2331 65.9805 319.309 83.1832 65.9643 332.328 84.279 65.716 
318.684 83.243 66.0461 320.394 83.1115 66.0904 325.177 77.0427 67.1245 
321.722 78.8052 67.3616 333.328 78.4484 67.0386 333.696 79.3108 66.9937 
333.887 80.4734 66.4472 320.203 81.0995 67.0269 319.271 82.2652 66.4746 
334.033 82.1328 65.9295 319.153 82.5409 66.4592 319.023 82.7899 66.3531 
324.831 82.9245 66.4779 318.915 83.0504 66.2459 319.104 83.2607 66.0567 
323.973 82.8899 66.3561 319.002 83.2798 66.1289 320.185 83.0869 66.2701 
319.062 83.2724 66.1927 319.188 83.2529 66.2356 322.45 77.708 68.1073 
322.176 77.9258 68.2621 322.912 77.3891 68.0063 321.902 78.3182 68.2546 
321.206 79.3906 67.5373 321.281 79.3796 67.9049 333.724 79.9732 67.0081 
325.578 81.9402 67.8455 319.639 82.152 66.8507 332.636 75.4866 69.2591 
324.111 75.6516 69.4707 324.948 75.6361 68.673 327.124 74.7047 68.8768 
332.847 75.9997 69.1909 321.995 78.2169 68.6061 332.986 76.975 69.3296 
333.252 78.9609 68.1272 328.516 80.5099 69.0307 332.794 79.7378 68.2451 
324.324 75.1275 70.2443 322.973 76.7625 69.5673 332.634 75.3571 69.8724 
322.977 76.8581 69.742 322.559 77.6284 69.4093 332.917 77.071 69.537 
332.877 76.9794 69.6561 332.808 77.4727 69.3975 331.067 78.38 69.9548 
332.716 78.4536 68.9597 333.03 78.6665 68.5607 324.412 79.408 69.7753 
322.513 79.9294 68.9432 322.508 81.0205 68.3266 331.912 73.7899 70.6391 
331.808 73.6537 70.7336 331.878 73.7519 70.7614 325.395 73.6517 71.1501 
325.817 73.5857 70.7027 326.305 73.4233 70.6557 330.547 73.38 70.8242 
331.947 73.9662 70.4301 332.001 74.0299 70.6309 332.388 74.9982 70.2913 
322.847 77.2173 69.721 323.225 76.7551 70.0749 332.334 75.9347 70.4436 
331.929 76.8714 70.4217 322.601 78.692 69.399 326.528 72.8046 71.637 
327.072 72.6779 71.8286 327.332 72.6976 71.88 325.71 73.2127 71.7054 
331.004 73.3902 70.9032 331.178 73.4271 70.9961 331.717 73.6226 70.8612 
325.068 73.9946 71.2172 328.969 73.0879 71.5312 331.898 74.1589 70.8921 
325.133 73.995 71.6176 332.146 74.9874 70.7302 324.374 75.3124 71.1172 
323.72 76.5455 70.5828 326.775 77.13 71.4039 331.902 76.3773 70.6893 
323.631 77.3381 70.3814 323.097 78.6481 69.7187 325.967 72.9352 71.9953 
326.136 72.8343 72.0876 326.728 72.6946 72.1377 326.008 72.9504 72.1246 
326.748 72.7414 72.2837 326.891 72.7946 72.3371 328.18 72.9004 71.8462 
331.568 73.6318 71.0071 327.216 72.9353 72.3783 328.603 73.1057 71.9896 
328.931 73.3024 72.1039 330.568 73.5055 71.4227 331.53 73.8171 71.1309 
325.412 73.8685 72.0538 331.641 74.1077 71.1703 324.747 75.2715 71.5504 
330.949 75.3726 71.6269 331.631 75.6812 71.1557 325.225 76.7952 71.2649 
326.269 72.8624 72.2404 326.009 73.083 72.2514 326.64 72.8796 72.3903 
325.74 73.4242 72.217 327.234 73.1595 72.5868 327.059 73.227 72.6675 
325.574 73.9145 72.2863 327.88 73.4989 72.6361 329.756 73.7872 72.0855 
330.471 74.0395 71.8613 330.008 74.1334 72.1367 330.899 74.5524 71.7405 
325.446 74.6534 72.116 325.882 73.5015 72.4333 326.122 73.4785 72.5862 
326.624 73.4378 72.746 326.153 73.6636 72.6482 326.905 73.545 72.7684 
326.833 73.785 72.7701 327.629 74.1382 72.7355 328.466 74.2599 72.6347 
327.968 74.1874 72.7619 326.345 73.7069 72.7181 328.057 74.1055 72.7794 
326.171 73.4925 383.512 326.156 73.4407 383.54 326.104 73.5531 383.564 
326.276 73.4729 383.518 326.416 72.7777 383.693 326.239 72.8996 383.686 
326.655 72.7474 383.668 326.035 72.985 383.766 326.348 73.31 383.567 
328.146 73.316 383.646 328.299 73.119 383.708 325.975 73.4799 383.677 
325.588 73.6189 383.928 326.571 73.6361 383.565 325.413 73.998 384.028 
326.087 73.8648 383.682 326.283 72.6668 383.905 326.073 72.7746 383.95 
326.574 72.6378 383.803 327.14 72.5372 383.926 325.869 73.0056 383.956 
326.918 72.6569 383.716 327.277 72.7295 383.696 328.514 73.0965 383.776 
331.548 73.7861 384.637 324.842 74.2731 384.476 324.717 74.7556 384.557 
[...]
POINT_DATA 809
SCALARS scalars float
LOOKUP_TABLE default
1 1 1 1 1 1 1 1 1 
1 1 1 1 1 1 1 1 1 
1 1 1 1 1 1 1 1 1 
1 1 1 1 1 1 1 1 1 
1 1 1 1 1 1 1 1 1 
1 1 1 1 1 1 1 1 1 
1 1 1 1 1 1 1 1 1 
1 1 1 1 1 1 1 1 1 
1 1 1 1 1 1 1 1 1 
1 1 1 1 1 1 1 1 1 
1 1 1 1 1 1 1 1 1 
1 1 1 1 1 1 1 1 1 
1 1 1 1 1 1 1 1 1 
1 1 1 1 1 1 1 1 1 
1 1 1 1 1 1 1 1 1 
1 1 1 1 1 1 1 1 1 
1 1 1 1 1 1 1 1 1 
1 1 1 1 1 1 1 1 1 
1 1 1 1 1 1 1 1 1 
1 1 1 1 1 1 1 1 1 
1 1 1 1 1 1 1 1 1 
1 1 1 1 1 1 1 1 1 
1 1 1 1 1 1 1 1 1 
1 1 1 1 1 1 1 1 1 
1 1 1 1 1 1 1 1 1 
1 1 1 1 1 1 1 1 1 
1 1 1 1 1 1 1 1 1 
1 1 1 1 1 1 1 1 1 
1 1 1 1 1 1 1 1 1 
1 1 1 1 1 1 1 1 1 
1 1 1 1 1 1 1 1 1 
1 1 1 1 1 1 1 1 1 
1 1 1 1 1 1 1 1 1 
1 1 1 1 1 1 1 1 1 
1 1 1 1 1 1 1 1 1 
1 1 1 1 1 1 1 1 1 
1 1 1 1 1 1 1 1 1 
1 1 1 1 1 1 1 1 1 
1 1 1 1 1 1 1 1 1 
1 1 1 1 1 1 1 1 1 
1 1 1 1 1 1 1 1 1 
1 1 1 1 1 1 1 1 1 
1 1 1 1 1 1 1 1 1 
1 1 1 1 1 1 1 1 1 
1 1 1 1 1 1 1 1 1 
1 1 1 1 1 1 1 1 1 
1 1 1 1 1 1 1 1 1 
1 1 1 1 1 1 1 1 1 
1 1 1 1 1 1 1 1 1 
1 1 1 1 1 1 1 1 1 
1 1 1 1 1 1 1 1 1 
1 1 1 1 1 1 1 1 1 
1 1 1 1 1 1 1 1 1 
1 1 1 1 1 1 1 1 1 
1 1 1 1 1 1 1 1 1 
1 1 1 1 1 1 1 1 1 
1 1 1 1 1 1 1 1 1 
1 1 1 1 1 1 1 1 1 
1 1 1 1 1 1 1 1 1 
1 1 1 1 1 1 1 1 1 
1 1 1 1 1 1 1 1 1 
1 1 1 1 1 1 1 1 1 
1 1 1 1 1 1 1 1 1 
1 1 1 1 1 1 1 1 1 
1 1 1 1 1 1 1 1 1 
1 1 1 1 1 1 1 1 1 
1 1 1 1 1 1 1 1 1 
1 1 1 1 1 1 1 1 1 
1 1 1 1 1 1 1 1 1 
1 1 1 1 1 1 1 1 1 
1 1 1 1 1 1 1 1 1 
1 1 1 1 1 1 1 1 1 
1 1 1 1 1 1 1 1 1 
1 1 1 1 1 1 1 1 1 
1 1 1 1 1 1 1 1 1 
1 1 1 1 1 1 1 1 1 
1 1 1 1 1 1 1 1 1 
1 1 1 1 1 1 1 1 1 
1 1 1 1 1 1 1 1 1 
1 1 1 1 1 1 1 1 1 
1 1 1 1 1 1 1 1 1 
1 1 1 1 1 1 1 1 1 
1 1 1 1 1 1 1 1 1 
1 1 1 1 1 1 1 1 1 
1 1 1 1 1 1 1 1 1 
1 1 1 1 1 1 1 1 1 
1 1 1 1 1 1 1 1 1 
1 1 1 1 1 1 1 1 1 
1 1 1 1 1 1 1 1 1 
1 1 1 1 1 1 1 1 
NORMALS Normals float
-0.295412 0.816 0.496865 -0.497604 -0.276789 -0.822057 -0.792657 0.00131541 -0.609666 
-0.686942 -0.0636681 -0.723918 -0.0748757 -0.406303 -0.910665 -0.203468 -0.384224 -0.90054 
0.622016 -0.45618 -0.636393 -0.783857 0.0776594 -0.616066 -0.557926 -0.189838 -0.807886 
-0.870068 0.445174 -0.211664 -0.0143818 0.910638 0.412955 0.154037 0.684627 0.712431 
0.692803 0.387339 0.60827 -0.727515 -0.0475957 -0.684439 0.803774 -0.420471 -0.420894 
0.828505 -0.364482 -0.425127 0.908536 -0.325649 -0.261753 -0.853715 0.47044 -0.223288 
0.987087 -0.159892 0.00972003 -0.786508 0.617158 -0.0228222 0.970301 -0.0628336 0.233597 
-0.0431696 0.952703 0.300822 -0.67999 0.731248 0.053759 0.793947 0.415615 0.443747 
0.202807 0.857875 0.472145 -0.141071 -0.38137 -0.913595 0.536725 -0.443879 -0.717564 
-0.450921 -0.217299 -0.865708 0.31739 -0.457223 -0.830789 -0.696964 0.672389 0.249268 
-0.518945 0.746821 0.415877 0.89668 0.134721 0.421681 0.331148 0.671191 0.663207 
-0.925876 0.125263 -0.356459 -0.915504 0.207346 -0.344762 0.992317 -0.116859 0.0406351 
-0.877002 0.41157 -0.247948 0.912745 0.143073 0.382657 -0.408275 0.72715 0.551874 
-0.113333 0.699436 0.705652 0.767356 0.285947 0.573933 0.436632 0.52365 0.731535 
0.0860008 -0.82051 -0.565126 -0.295567 0.407997 -0.863817 0.262443 0.444642 -0.856398 
0.356989 -0.476488 0.803442 -0.0592598 0.839618 0.539935 -0.291617 -0.263876 -0.919418 
-0.797273 -0.0411611 -0.602214 0.922577 -0.287854 -0.25689 -0.925802 0.108202 -0.362193 
-0.781778 -0.063706 -0.620293 -0.797306 0.442493 0.41049 -0.4276 0.272009 0.862073 
-0.427601 0.752501 0.500898 -0.998028 0.00806411 -0.0622462 -0.948855 0.0284735 -0.314427 
-0.669071 0.370604 0.644203 0.913336 0.126016 0.387217 -0.62438 0.552987 -0.551683 
-0.292897 0.812117 0.504656 -0.354606 0.731739 0.582076 -0.245018 0.68946 0.681624 
0.0378481 0.614924 0.787678 0.215396 0.548753 0.807759 -0.228712 -0.530102 0.816507 
-0.53547 -0.279898 -0.796824 -0.423781 -0.367693 -0.827775 -0.125587 -0.40966 -0.903552 
0.113118 -0.480295 -0.869782 -0.794971 -0.0315713 -0.605825 -0.605076 -0.0646722 -0.793537 
-0.944162 0.308454 0.115819 0.970032 -0.224862 0.0920581 0.119821 0.379449 0.917421 
0.949797 -0.213144 -0.229031 0.989748 -0.142247 0.0128593 -0.543649 0.541241 0.641485 
0.213081 0.705512 0.675906 0.18076 0.466349 0.865936 0.470249 0.38879 0.792281 
0.366659 0.476429 0.79911 -0.18169 -0.450027 -0.874337 0.710523 -0.393316 -0.583489 
0.849169 -0.290769 -0.440869 -0.733095 -0.138309 -0.665914 -0.959488 0.221598 -0.174001 
-0.758295 0.481591 0.439384 0.0355328 0.546068 0.836987 0.737549 0.263577 0.62173 
-0.878799 0.100069 -0.466581 -0.689195 -0.104325 -0.717027 -0.254163 -0.370408 -0.89342 
0.859614 -0.380886 -0.340572 0.990677 -0.135597 -0.0131608 -0.941762 0.213568 -0.259755 
0.968418 -0.00463676 0.24929 0.212578 0.493401 0.843425 0.888914 -0.353726 -0.29105 
0.963117 0.0221885 0.268167 0.4015 -0.33854 -0.850992 0.682759 0.305115 0.663886 
-0.606375 -0.0526543 -0.793434 -0.341882 -0.260929 -0.902792 -0.0556624 -0.456206 -0.888132 
0.318523 -0.488016 -0.812639 -0.937226 0.294106 0.187372 -0.797195 0.481276 0.364491 
-0.948018 0.315834 0.0388565 0.224056 -0.502933 -0.83478 0.460488 -0.505078 -0.729964 
0.790863 -0.440762 -0.424576 -0.691737 0.468892 0.549217 -0.233646 0.547551 0.803491 
0.299466 0.417708 0.857812 -0.101314 0.521878 0.846982 0.268345 -0.460362 -0.846202 
0.3138 -0.647037 -0.69489 -0.336062 -0.353091 -0.873149 -0.0351589 -0.486097 -0.873198 
0.0286001 -0.510155 -0.859607 0.926688 -0.248158 -0.282252 -0.612092 -0.162991 -0.773807 
-0.827539 0.218871 -0.516987 0.810989 -0.390914 -0.435296 -0.840781 0.177761 -0.51136 
-0.889092 0.452819 -0.0668602 -0.922958 0.369755 -0.106908 0.961463 -0.0487362 0.27058 
-0.463079 0.535974 0.705897 -0.268535 0.462746 0.844841 0.158803 0.529782 0.833134 
-0.067533 0.476524 0.876564 0.736341 -0.483731 -0.473082 0.9735 -0.217775 0.0697928 
0.989811 -0.140349 -0.0240184 -0.894738 0.444701 -0.041049 -0.787351 0.523955 0.324883 
0.612967 0.286777 0.736227 -0.335176 0.620381 0.709073 -0.0419238 0.550126 0.834029 
0.145738 0.510978 0.847149 0.391076 0.415617 0.821171 0.343065 0.479612 0.807638 
0.335384 -0.657373 -0.674818 0.624525 -0.613528 -0.483272 -0.569233 -0.0478181 -0.820785 
0.904715 -0.419596 -0.0736893 -0.910217 0.34083 -0.235246 -0.888073 0.448301 -0.101747 
-0.667202 0.608422 0.429726 0.160107 0.501258 0.850356 0.362044 0.393155 0.845194 
0.714053 0.273507 0.644455 0.163585 -0.606788 -0.777849 0.501057 -0.564695 -0.655791 
0.790695 -0.475153 -0.386046 0.934728 -0.350051 -0.061224 0.935103 -0.102769 0.339148 
-0.690219 0.653249 0.31123 0.853379 0.12136 0.506968 0.378635 0.519111 0.766263 
0.634804 0.294394 0.714392 -0.492256 0.154793 -0.856576 0.388138 -0.570587 -0.723726 
0.487171 -0.523686 -0.698868 0.80909 -0.577946 -0.106544 -0.741346 0.501812 -0.445636 
0.731527 -0.596159 -0.330852 0.956877 -0.211629 -0.198997 0.945801 -0.308159 0.102457 
0.94916 -0.00341618 0.314777 0.858779 0.0764564 0.50661 -0.681643 0.728935 0.0633698 
0.916787 -0.0837426 0.390498 0.667154 0.261565 0.697488 -0.110649 0.645909 0.755353 
0.230836 0.586212 0.776576 0.33665 0.433581 0.835868 0.450253 -0.481321 -0.752065 
0.410345 -0.439133 -0.799237 0.800521 -0.413665 -0.433644 -0.534954 -0.587031 -0.607634 
-0.71041 -0.603697 -0.361755 -0.345549 -0.465281 -0.814929 -0.254076 -0.32592 -0.910616 
-0.25599 0.0442676 -0.965665 0.179507 -0.538358 -0.823376 0.582035 -0.543261 -0.605065 
-0.483712 -0.149195 -0.862417 -0.0699625 0.293688 -0.953338 -0.119217 0.0338365 -0.992292 
0.943534 -0.323825 -0.0698606 0.827384 -0.494284 -0.26668 -0.326895 0.503501 -0.799766 
-0.438575 0.109317 -0.892021 -0.147833 0.644333 -0.75032 -0.355747 0.848624 -0.391513 
-0.423155 0.51408 -0.746098 -0.56647 0.626759 -0.535056 0.845534 -0.384644 0.370299 
0.805432 0.000370269 0.592688 -0.62696 0.761633 0.163816 -0.567342 0.794094 0.21803 
-0.0574967 0.626887 0.776986 0.0566572 0.59225 0.80376 -0.483996 0.698573 0.527014 
0.407896 0.406569 0.81751 -0.209822 -0.482321 -0.850495 -0.13558 -0.450882 -0.882226 
0.477353 -0.503525 -0.720137 0.594304 -0.611588 -0.522267 0.838512 -0.381548 -0.388996 
-0.562521 -0.685875 -0.461676 -0.711547 -0.589974 -0.381616 0.980721 -0.184218 0.0651866 
-0.878749 0.0931037 -0.468116 -0.899256 -0.305317 -0.31324 -0.172085 0.0828994 -0.981588 
-0.0258735 0.400059 -0.916124 -0.89272 -0.408426 -0.190367 -0.465911 -0.313903 -0.82728 
-0.0412871 0.600327 -0.798688 -0.255279 0.71644 -0.649266 -0.183803 0.975457 -0.121245 
-0.416577 -0.0618374 -0.906995 -0.858027 0.420307 -0.29518 -0.205178 0.244337 -0.947735 
-0.171654 0.143513 -0.974648 -0.195917 0.969635 0.146373 -0.465486 0.882577 0.0661824 
-0.276245 0.680008 -0.679174 -0.477048 0.784924 0.395373 -0.230696 0.692043 0.684 
-0.247026 0.741491 0.623834 -0.244833 -0.605083 -0.757583 0.201561 -0.640716 -0.740848 
-0.376349 -0.526252 -0.76251 0.955864 -0.275271 -0.10271 -0.819825 -0.571751 -0.0314371 
-0.828392 -0.331281 0.451686 -0.765306 -0.360772 0.533057 0.0647559 0.661109 -0.747491 
0.0215816 0.94546 -0.325023 -0.10605 0.919415 -0.37872 -0.676677 0.175581 0.715039 
-0.019724 0.77441 -0.632377 0.0801775 0.799766 -0.594934 0.250914 0.493929 0.832512 
-0.261967 0.955193 0.137763 0.124948 0.985603 0.113903 -0.246296 -0.635214 -0.732012 
-0.808384 -0.558395 -0.186307 0.844482 -0.451292 -0.288418 0.9813 -0.160689 0.105969 
0.933267 0.0443117 0.356441 -0.807336 -0.576932 0.123925 -0.835528 -0.378241 0.39853 
0.820595 0.143804 0.553123 -0.668446 -0.0734845 0.740121 -0.808609 -0.268077 0.523724 
-0.0393694 0.93131 0.362093 -0.428107 0.224853 0.875309 0.080325 0.97614 -0.201741 
-0.0496083 0.941791 0.332519 0.0295061 0.999265 -0.0244695 0.178586 0.919921 0.349073 
-0.221417 0.737557 0.637953 -0.0366058 0.834768 0.549384 -0.623535 -0.705675 -0.336493 
-0.802418 -0.596761 0.00140056 -0.440501 -0.749502 -0.494171 -0.90309 -0.41704 -0.102502 
-0.839052 -0.544023 0.0055439 -0.865471 -0.482853 0.133468 0.920682 0.110021 0.374487 
-0.13982 0.791659 0.594749 -0.64858 0.00434533 0.761134 0.789263 -0.551258 -0.270515 
-0.570863 -0.711631 -0.409508 -0.410734 -0.715222 -0.565468 0.068725 -0.796482 -0.600744 
0.894832 -0.401529 -0.195063 -0.906167 -0.388994 0.165968 0.960705 0.00870522 0.277435 
0.775814 0.286387 0.562224 0.0992056 0.54412 0.833122 0.579475 0.421365 0.69761 
-0.640763 -0.68564 -0.345428 -0.804147 -0.567523 0.176821 0.942596 -0.24901 0.222499 
-0.850809 -0.395152 0.34638 -0.837625 -0.20304 0.507108 0.903402 0.239867 0.355427 
0.811508 0.167035 0.559959 0.682448 0.39119 0.617442 0.307864 0.445001 0.840948 
0.530038 0.441242 0.724131 0.672846 0.388779 0.629388 -0.19261 0.515095 0.835212 
-0.297172 0.334142 0.894448 0.0326325 0.640587 0.767192 0.836164 -0.533775 -0.12615 
0.430342 -0.8329 -0.34797 0.799591 -0.387292 0.458976 -0.614339 -0.76379 -0.19802 
-0.408335 -0.751089 -0.518775 -0.292889 -0.791173 -0.5369 0.0507786 -0.943038 -0.328786 
0.590068 -0.638962 -0.493505 0.934454 -0.283125 0.215952 0.927328 -0.303355 0.219178 
-0.807634 -0.137754 0.573369 -0.755865 -0.314625 0.574177 0.766589 0.102132 0.633964 
0.398346 0.388738 0.830784 -0.367019 0.358963 0.858162 -0.173314 -0.850991 -0.495759 
-0.040596 -0.954163 -0.29652 0.200317 -0.979688 -0.00917651 -0.607322 -0.762956 -0.221489 
0.184413 -0.978247 -0.0950029 0.260148 -0.872576 0.413442 0.528902 -0.795943 0.294512 
-0.726676 -0.685001 0.0521142 0.188378 -0.981851 -0.0219662 0.790602 -0.21517 0.573281 
-0.807815 -0.54681 0.220076 0.741085 -0.017797 0.671175 -0.755202 -0.0916317 0.649056 
-0.660909 -0.107842 0.742678 -0.0486487 0.468181 0.882293 0.385593 0.41332 0.824915 
-0.466848 0.267093 0.843039 -0.514404 0.256632 0.818247 -0.753574 -0.634511 0.171819 
-0.35001 -0.935914 0.0394648 -0.000527501 -0.98369 0.179872 -0.641911 -0.611334 0.46284 
-0.114131 -0.853792 0.50795 0.150417 -0.794642 0.588148 0.26773 -0.919974 0.286303 
0.51495 -0.499102 0.696939 0.193791 -0.698769 0.688598 0.333469 -0.76391 0.552486 
0.340405 -0.559209 0.755916 0.334772 -0.643238 0.688601 0.499439 -0.355563 0.790023 
-0.810747 -0.440891 0.385104 0.651308 -0.179537 0.737268 -0.660041 0.124962 0.740763 
0.397775 0.239728 0.88561 0.591311 0.169191 0.788496 -0.404896 0.335145 0.850727 
-0.342623 -0.621161 0.704818 -0.647949 -0.489303 0.583734 -0.102926 -0.560716 0.821586 
-0.691899 -0.488774 0.53139 0.226162 -0.282126 0.932339 0.0127677 -0.467496 0.883903 
-0.668414 -0.143358 0.729844 0.28278 -0.500068 0.818515 0.422408 -0.64989 0.631834 
0.450574 -0.464548 0.762351 0.34194 -0.170742 0.92408 0.518332 -0.0864301 0.850801 
-0.478792 0.170647 0.861184 -0.591545 -0.414088 0.691813 -0.443781 -0.383003 0.810165 
-0.155689 -0.288893 0.944617 -0.442225 -0.0273256 0.896488 0.259825 -0.0631776 0.963587 
0.0913427 0.088988 0.991835 -0.0943819 0.349487 0.932175 0.219818 0.284737 0.933062 
-0.0253773 0.616364 0.787052 -0.243967 0.105106 0.964071 0.0953974 -0.0376722 0.994726 
-0.238798 0.0481307 -0.969876 -0.41907 -0.40993 -0.810147 -0.624394 0.0580055 -0.778953 
0.0523904 -0.214308 -0.97536 -0.267849 -0.555662 -0.787081 -0.450418 -0.596557 -0.664261 
-0.0373938 -0.404698 -0.913686 -0.546179 -0.375012 -0.749036 -0.162878 -0.299106 -0.940216 
0.224862 -0.0972353 -0.969527 0.154467 -0.315644 -0.93622 -0.58553 -0.171871 -0.792222 
-0.629129 -0.150397 -0.762612 0.045189 0.0509337 -0.997679 -0.558726 0.087746 -0.824697 
-0.392359 0.264562 -0.880944 -0.318661 -0.942065 -0.104734 -0.594323 -0.721271 -0.355736 
-0.233966 -0.837377 -0.494023 -0.00888274 -0.999257 0.0375001 -0.689299 -0.569167 -0.448236 
-0.00888409 -0.732718 -0.680475 0.0923982 -0.481164 -0.871748 0.321428 -0.465481 -0.824628 
0.271164 0.0734616 -0.959726 -0.755735 0.0475255 -0.653151 -0.684338 -0.0103201 -0.729092 
0.521423 0.0385743 -0.852426 -0.365295 0.28471 -0.886285 -0.230091 0.299738 -0.925859 
0.00706742 0.390039 -0.920771 0.299682 0.158499 -0.940781 0.529389 0.315702 -0.787451 
-0.432677 -0.84638 0.310533 -0.655463 -0.752152 -0.0680829 0.236296 -0.927751 -0.288863 
0.0886856 -0.987306 0.131762 0.195437 -0.816327 -0.543521 0.193522 -0.981065 -0.00781251 
0.117788 -0.984334 -0.131197 0.189232 -0.754211 -0.628774 0.339725 -0.568156 -0.749523 
0.273737 -0.682487 -0.677702 0.328994 -0.302148 -0.894689 0.409375 -0.188247 -0.892735 
-0.831635 -0.395808 -0.389511 0.869307 0.1483 -0.4715 -0.568196 0.00517886 -0.822877 
-0.71279 -0.0405813 -0.700203 -0.326881 0.241774 -0.913616 -0.456345 0.337171 -0.823447 
-0.116169 -0.892036 0.436779 0.0411993 -0.918159 0.394065 0.706266 -0.148331 -0.692233 
0.206952 -0.974557 -0.0860848 0.900915 -0.222996 -0.372323 0.370434 -0.920503 -0.124313 
0.57786 -0.577706 0.576484 -0.653482 -0.724893 0.217924 0.915707 -0.140086 0.376638 
0.917541 -0.362563 0.163301 -0.853994 -0.447881 -0.264759 -0.884723 -0.406762 -0.227617 
0.223489 0.428686 -0.875374 0.462562 0.324805 -0.824947 -0.310116 0.271574 -0.911085 
0.474665 0.405585 -0.781149 0.707531 0.262468 -0.656133 0.438493 0.429751 -0.789327 
-0.526202 0.0560945 -0.848508 0.0925028 -0.796138 0.598003 0.222528 -0.692914 0.685822 
-0.258397 -0.801746 0.53892 0.0461381 -0.856605 0.513907 0.314274 -0.600139 0.735572 
-0.761217 -0.640578 0.101038 -0.114162 -0.743643 0.658758 -0.730473 -0.65307 0.19977 
0.954352 -0.0411303 -0.295838 -0.842677 -0.53841 -0.00314424 -0.614491 -0.024415 -0.788546 
-0.150369 0.400703 -0.903784 -0.91286 0.0445556 -0.405835 0.404803 0.436139 -0.80369 
-0.394119 -0.71262 0.580382 -0.713343 -0.649864 0.262335 -0.408139 -0.70672 0.5779 
0.610542 -0.509985 0.605932 0.712301 -0.41456 0.566362 0.804879 -0.345392 0.48257 
0.961967 -0.0659909 -0.265076 0.995302 -0.083748 -0.0485777 -0.845531 -0.212049 -0.490014 
-0.437885 0.425218 -0.792115 0.0411042 0.547553 -0.835761 -0.441302 0.291027 -0.848856 
0.281695 -0.747175 0.601978 -0.631658 -0.701023 0.331021 0.262031 -0.753986 0.602366 
-0.447538 -0.767628 0.458756 -0.323031 -0.703019 0.633573 0.782349 -0.416084 0.46347 
0.952127 -0.234481 -0.196146 0.0695688 0.612729 -0.787225 0.809425 0.17843 -0.559458 
-0.732591 -0.182822 -0.655657 0.0216618 0.671919 -0.740308 0.495942 -0.546254 0.675017 
0.00669498 -0.722259 0.691591 -0.453304 -0.607373 0.65239 -0.762966 -0.61399 0.202235 
0.956402 -0.264571 -0.123682 0.856109 0.0852314 -0.509719 0.899895 0.0315212 -0.434965 
-0.0269574 0.807165 -0.58971 -0.0523073 0.908298 -0.41504 -0.177388 0.883228 -0.434099 
-0.424912 0.354301 -0.833019 -0.222106 0.656477 -0.720907 0.784791 -0.571649 0.239419 
0.972655 -0.178969 -0.14803 -0.774316 -0.626037 0.0922603 0.918819 -0.33869 0.202635 
-0.821634 -0.556517 -0.123315 -0.851638 -0.501122 -0.15359 -0.80735 -0.585209 0.0756035 
0.242724 0.485033 -0.840136 0.710196 0.201069 -0.67468 -0.690758 -0.282426 -0.665649 
0.111607 0.972545 0.204205 0.0220259 0.987456 -0.15635 -0.0495976 0.922457 -0.382901 
-0.195256 0.936652 -0.290788 -0.0436955 0.993387 -0.106176 0.521283 0.374507 -0.766817 
0.611301 0.30157 -0.731687 -0.124739 0.82828 -0.546253 0.00133365 0.961011 -0.276508 
-0.206562 -0.477138 0.854208 0.416691 -0.67084 0.613468 0.822018 -0.423922 0.380232 
-0.633506 -0.653067 0.414938 -0.37173 -0.614013 0.696279 0.959447 -0.27055 0.0791474 
-0.883184 -0.45666 -0.106999 0.943774 0.01725 -0.330142 -0.546191 -0.69353 -0.469778 
-0.32891 -0.596543 -0.732089 -0.0364371 0.892937 -0.448705 -0.259148 0.429798 0.864937 
0.0293152 0.640721 0.767214 -0.621902 -0.496705 -0.605411 -0.298695 0.912025 0.281055 
-0.329127 -0.883502 0.333316 0.296042 0.703246 0.646377 -0.084427 0.930562 0.356266 
-0.206644 0.95858 0.196017 0.755768 0.238249 -0.60996 0.864252 0.0884913 -0.495215 
-0.368187 0.65605 -0.658814 0.0771775 0.995076 -0.0621827 -0.0047842 0.625979 -0.779825 
-0.471838 -0.631517 0.615269 -0.247733 -0.469966 0.847207 -0.158075 0.113423 -0.980891 
-0.578377 -0.793882 0.1877 -0.589773 -0.763015 -0.264529 -0.127086 -0.146113 0.981071 
-0.38601 0.55356 0.737948 -0.302632 0.0783705 0.94988 0.881595 -0.435315 0.182459 
-0.24839 0.0622374 0.966659 0.337443 0.923365 0.183109 0.525359 0.848742 0.0602824 
-0.149249 0.388326 0.909356 0.95142 -0.250191 -0.179455 0.935968 -0.117083 -0.332048 
0.272946 0.698694 0.661307 0.331991 0.805892 0.490224 -0.456903 0.868227 0.193449 
-0.567597 0.791446 0.226819 0.861593 -0.0117496 -0.507463 -0.119093 0.674885 -0.728249 
-0.405421 0.81348 -0.416995 0.0684515 0.553909 -0.829759 -0.219703 -0.088015 0.971588 
0.566518 -0.609664 0.554406 -0.313582 -0.484697 0.816538 0.234639 0.466129 0.853035 
0.777782 -0.544817 0.313417 0.881274 -0.420108 -0.216485 0.965136 -0.26022 -0.028239 
0.752799 -0.520638 0.402778 0.891466 0.0738016 -0.447037 0.974582 0.0376586 -0.220844 
-0.624929 0.776777 0.0779892 0.0070642 0.539112 -0.842204 0.537381 0.237972 -0.809068 
-0.165711 0.646621 -0.744595 0.187737 0.514085 -0.836941 0.626182 0.141772 -0.766679 
0.688053 0.285518 -0.66713 -0.341562 0.034492 0.939226 -0.219722 -0.308106 0.925631 
0.0890113 -0.617231 0.781731 0.399581 -0.637947 0.6583 -0.343039 -0.152476 0.926863 
-0.533833 0.29617 0.792027 0.972471 -0.114262 0.203086 0.777641 -0.309562 0.547216 
-0.631396 0.491762 0.599591 -0.733863 0.473659 0.486922 -0.761824 0.637742 0.11362 
0.86566 -0.0983486 -0.490878 -0.801787 0.59627 -0.039989 0.850799 0.0916029 -0.517446 
-0.842056 0.521803 -0.136616 -0.530415 0.680462 -0.5056 0.339667 0.4726 -0.813189 
-0.627593 0.661407 -0.410693 -0.46291 0.0469949 0.885159 -0.239471 -0.312819 0.919129 
-0.548522 0.063112 0.833751 -0.812808 0.271756 0.515259 0.957355 -0.163051 -0.238509 
0.758784 0.173858 -0.627711 -0.510867 0.666873 -0.54249 0.661216 0.262021 -0.702949 
-0.261634 0.636543 -0.725507 0.0495163 0.565416 -0.823318 0.435405 0.441444 -0.78457 
0.430279 -0.557329 0.710101 -0.15311 -0.425107 0.892099 0.113356 -0.501796 0.857526 
-0.359245 -0.247454 0.899839 0.897685 -0.427345 0.107417 0.98233 -0.0379838 -0.183263 
0.991641 -0.0757281 -0.104471 0.751622 0.321059 -0.576182 -0.305112 0.620811 -0.72215 