# vtk DataFile Version 4.2
vtk output
ASCII
DATASET POLYDATA
POINTS 2535 float
339.281 108.23 53.1031 339.15 107.954 53.2093 339.364 108.406 53.0352 
339.208 108.07 53.1644 339.424 108.533 52.986 339.349 108.368 53.0498 
339.425 108.533 52.9861 339.3 108.265 53.0899 339.37 108.414 53.0325 
339.393 108.468 53.0112 339.446 108.582 52.9672 339.462 108.615 52.9545 
339.431 108.548 52.9805 339.463 108.617 52.9537 339.464 108.621 52.9522 
339.48 108.655 52.9393 339.484 108.663 52.9362 338.093 106.004 53.9545 
338.085 105.978 53.9656 338.127 106.052 53.9371 338.417 106.536 53.7537 
338.536 106.742 53.6733 338.65 106.74 53.6816 338.568 106.809 53.6499 
338.711 107.073 53.5498 338.735 107.12 53.5292 338.816 107.128 53.5311 
338.926 107.382 53.4321 338.859 107.362 53.4378 339.029 107.697 53.3092 
338.986 107.613 53.3402 338.991 107.538 53.371 339.214 108.064 53.1671 
339.377 108.427 53.0271 339.072 107.729 53.297 339.262 108.175 53.125 
339.392 108.459 53.0149 339.439 108.563 52.9746 339.467 108.626 52.9501 
338.088 105.88 54.0113 338.384 106.002 53.9749 338.074 105.936 53.9846 
338.07 105.923 53.9911 338.268 106.244 53.8651 338.504 106.349 53.8381 
338.092 105.99 53.9627 338.175 106.113 53.917 338.31 106.333 53.8343 
338.676 106.796 53.663 338.831 107.223 53.4961 338.897 107.314 53.4592 
338.977 107.508 53.3839 339.102 107.81 53.2666 338.128 105.645 54.1144 
338.244 105.626 54.1252 338.291 105.699 54.0963 338.269 105.642 54.1196 
338.282 105.673 54.108 338.098 105.758 54.0649 338.315 105.803 54.0531 
338.32 105.801 54.0571 338.386 106.025 53.9691 338.002 102.002 56.0178 
338.002 102.002 56.0178 338.001 102.002 56.0178 338.007 102.002 56.0176 
338.006 102.002 56.0176 338.013 102.002 56.0174 338.011 102.002 56.0174 
338.018 102.001 56.0172 338.017 102.001 56.0172 338.02 102.001 56.0171 
338.02 102.001 56.0171 338.02 102.001 56.0171 338.001 102.002 56.0178 
338.003 102.002 56.0177 338.008 102.002 56.0176 338.014 102.002 56.0173 
338.019 102.001 56.0172 338.26 105.633 54.1239 337.113 100.233 57.0152 
337.114 100.233 57.0152 337.105 100.232 57.0152 337.139 100.237 57.0152 
337.139 100.237 57.0152 337.186 100.243 57.015 337.186 100.243 57.015 
337.245 100.252 57.0149 337.244 100.252 57.0149 337.311 100.261 57.0146 
337.302 100.26 57.0147 337.361 100.268 57.0145 337.342 100.266 57.0145 
337.367 100.269 57.0145 337.114 100.233 57.0152 337.139 100.237 57.0152 
337.186 100.244 57.015 337.245 100.252 57.0149 337.303 100.26 57.0146 
337.342 100.265 57.0145 337.353 100.267 57.0145 337.38 100.271 57.0144 
337.377 100.27 57.0144 337.384 100.271 57.0144 338.001 102.002 56.0178 
338.004 102.002 56.0177 338.01 102.002 56.0175 338.015 102.001 56.0173 
337.363 100.268 57.0145 337.375 100.27 57.0144 338.019 102.001 56.0172 
336.609 97.696 58.5281 336.604 97.7107 58.5202 336.591 97.7637 58.4913 
336.627 97.589 58.5866 336.793 96.7917 59.0183 336.865 96.9221 58.9463 
336.593 97.7628 58.4917 336.584 97.7899 58.477 336.621 97.6687 58.5428 
336.715 97.3252 58.7292 336.772 97.1544 58.8213 336.86 97.0182 58.8939 
336.881 96.9854 58.9116 337.114 100.233 57.0152 336.586 97.7886 58.4777 
336.602 97.7412 58.5034 337.14 100.237 57.0152 336.637 97.6245 58.5668 
337.186 100.244 57.015 336.685 97.449 58.6622 337.245 100.252 57.0149 
336.741 97.244 58.7735 337.309 100.261 57.0146 336.811 97.0757 58.8641 
337.347 100.266 57.0145 337.357 100.268 57.0145 337.375 100.27 57.0144 
335.369 95.203 59.928 336.485 95.8938 59.5104 335.455 95.305 59.8726 
336.578 96.2058 59.3429 336.595 97.7521 58.4976 335.689 95.5157 59.7516 
336.62 97.6454 58.5558 335.889 95.6897 59.6491 336.647 97.4458 58.6649 
336.151 95.9784 59.4823 336.643 97.0902 58.8603 336.483 96.5251 59.1732 
336.715 96.6187 59.1158 336.825 96.8527 58.9854 336.59 97.7752 58.485 
336.26 95.2302 59.8667 335.279 95.0683 60.0019 336.327 95.4481 59.7541 
336.415 95.684 59.6281 335.331 95.1606 59.9562 335.387 95.2363 59.9144 
334.996 94.7871 60.1669 334.976 94.7834 60.1691 335.075 94.811 60.1502 
335.222 94.8532 60.1194 335.424 94.9019 60.0816 335.649 94.9462 60.045 
335.862 94.9821 60.014 336.037 95.0065 59.992 336.214 95.0805 59.9449 
336.157 95.0208 59.9793 336.218 95.0232 59.9759 335.003 94.8051 60.1557 
335.023 94.8247 60.145 335.135 94.8881 60.1031 336.223 95.0902 59.943 
335.069 94.8616 60.1239 335.165 94.9415 60.0793 335.324 95.1079 59.9878 
334.259 91.399 62.0188 334.261 91.399 62.0188 334.209 91.3969 62.0192 
334.353 91.4029 62.0181 334.373 91.4036 62.018 334.571 91.4118 62.0165 
334.565 91.4116 62.0165 334.845 91.4231 62.0143 334.806 91.4215 62.0146 
335.144 91.4354 62.0119 335.061 91.432 62.0126 335.366 91.4445 62.0099 
335.295 91.4416 62.0105 335.526 91.451 62.0085 335.475 91.4489 62.009 
335.622 91.4549 62.0076 335.582 91.4533 62.008 335.63 91.4553 62.0075 
334.222 91.3975 62.0191 334.197 91.3964 62.0193 334.256 91.3989 62.0188 
334.371 91.4036 62.018 334.567 91.4117 62.0165 334.781 91.4205 62.0149 
334.93 91.4266 62.0137 335.018 91.4302 62.0129 335.247 91.4396 62.011 
335.435 91.4474 62.0093 335.572 91.4529 62.0081 335.655 91.4563 62.0073 
335.641 91.4557 62.0074 335.652 91.4562 62.0073 334.99 94.7959 60.1627 
334.207 91.3968 62.0192 335.353 94.9021 60.0914 335.03 91.4307 62.0129 
335.145 91.4354 62.0119 335.326 91.4429 62.0103 335.98 95.0099 59.9984 
335.491 91.4496 62.0088 336.105 95.0143 59.9879 335.605 91.4542 62.0078 
336.187 95.0281 59.9765 335.051 94.8422 60.1366 334.155 90.0057 63.0221 
334.15 90.0057 63.0222 334.129 90.006 63.0225 334.232 90.0047 63.0211 
334.21 90.005 63.0214 334.351 90.0032 63.0196 334.319 90.0036 63.02 
334.493 90.0013 63.0177 334.457 90.0018 63.0182 334.638 89.9994 63.0158 
334.602 89.9999 63.0163 334.763 89.9978 63.0142 334.734 89.9982 63.0146 
334.85 89.9967 63.0131 334.831 89.9969 63.0133 334.887 89.9962 63.0126 
334.881 89.9963 63.0127 334.891 89.9961 63.0126 334.229 91.3978 62.019 
334.133 90.006 63.0224 334.171 90.0055 63.0219 334.353 91.4028 62.0181 
334.259 90.0043 63.0208 334.561 91.4114 62.0166 334.385 90.0027 63.0191 
334.807 91.4215 62.0146 334.53 90.0008 63.0172 335.023 91.4304 62.0129 
334.671 89.999 63.0154 335.238 91.4393 62.011 334.788 89.9974 63.0139 
335.428 91.447 62.0094 334.864 89.9965 63.0129 335.563 91.4525 62.0081 
334.247 91.3985 62.0189 335.023 91.4304 62.0129 335.195 91.4375 62.0115 
335.38 91.4451 62.0098 335.532 91.4513 62.0084 335.625 91.4551 62.0076 
330.218 86.2107 65.9221 332.172 86.3757 65.5932 333.25 86.7224 65.4427 
333.498 86.679 65.5249 330.53 86.3777 65.8585 330.899 86.5336 65.7632 
330.924 86.5063 65.7171 331.369 86.6062 65.6257 333.131 86.7971 65.4231 
333.53 86.8645 65.381 333.566 86.8757 65.3799 331.146 86.6093 65.6829 
331.381 86.662 65.6573 334.14 90.0059 63.0223 334.19 90.0052 63.0217 
334.289 90.004 63.0204 334.421 90.0022 63.0187 332.985 86.8087 65.4685 
334.566 90.0003 63.0168 333.296 86.8393 65.4271 334.703 89.9986 63.015 
333.492 86.867 65.3928 334.81 89.9972 63.0136 334.87 89.9964 63.0128 
328.427 85.2468 66.6218 328.734 85.477 66.5229 329.437 85.654 66.2132 
333.541 86.2587 65.8171 329.212 85.727 66.3505 329.642 85.9537 66.2069 
329.728 85.9311 66.1086 333.55 86.496 65.6537 333.563 86.39 65.7494 
330.052 86.1619 66.0305 332.378 86.7294 65.625 328.982 84.7188 66.6374 
331.238 84.4461 66.6356 333.009 85.2436 66.3845 333.035 85.0161 66.5974 
326.41 84.4313 67.3873 326.875 84.623 67.2909 327.48 84.8042 67.0093 
333.269 85.5501 66.3177 328.204 85.1969 66.8024 333.413 85.9921 65.9884 
333.5 86.203 65.8971 326.08 83.9224 67.6344 325.322 83.8054 67.959 
332.42 84.1067 67.0426 332.707 83.7356 67.5058 323.69 83.8928 68.1377 
323.164 83.8464 68.2578 324.247 83.9423 68.0127 324.215 83.9213 68.0437 
325.13 83.996 67.8212 324.798 83.9535 67.9292 332.917 84.6097 66.9577 
333.122 85.1701 66.6333 323.552 83.8821 68.171 324.26 83.9359 68.0208 
325.353 84.1414 67.7264 326.091 84.3267 67.5778 333.364 85.9149 66.1243 
332.705 82.5018 68.3562 332.6 82.1998 68.5553 332.727 82.3979 68.4717 
324.266 83.0945 68.502 323.85 82.8306 68.7827 325.31 82.5893 68.5436 
332.551 83.0285 67.9145 332.741 82.6543 68.3003 321.757 83.7028 68.6133 
324.012 83.4588 68.3642 324.931 83.3447 68.2313 332.677 83.0664 68.0764 
332.713 83.9313 67.5462 321.075 83.9543 68.5709 321.412 83.8557 68.5731 
323.806 83.7502 68.2247 324.54 83.9707 67.9654 323.935 83.5585 68.3634 
324.618 83.5295 68.3026 325.19 84.049 67.849 326.16 84.1458 67.7969 
328.736 84.1387 68.0168 332.784 84.6462 67.1204 320.976 84.0142 68.5479 
320.963 84.0279 68.5407 322.141 83.85 68.44 322.75 83.8162 68.3582 
321.009 84.0216 68.5357 321.16 83.9888 68.5288 321.445 83.9383 68.5088 
321.757 83.8923 68.4824 324.096 82.239 69.1448 332.295 81.4637 69.1219 
323.927 82.5136 69.0393 332.525 81.9525 68.817 332.673 82.2054 68.6088 
322.014 83.3466 68.8161 323.492 82.7386 68.9915 332.688 82.2799 68.5941 
332.717 82.555 68.4222 321.362 83.7507 68.6601 321.198 83.8553 68.6174 
321.558 83.638 68.7002 321.346 83.8332 68.6034 321.584 83.8377 68.5557 
321.546 83.72 68.6458 331.443 79.7681 70.1428 331.642 79.7308 70.26 
331.652 79.4084 70.5618 330.913 80.2777 69.6217 331.757 79.9641 70.196 
323.146 82.4089 69.2531 323.799 82.2108 69.2452 331.986 80.8432 69.5932 
332.267 81.4821 69.2153 322.781 82.7133 69.1107 322.496 82.956 68.9962 
323.486 82.4813 69.1517 323.818 82.3398 69.2307 323.416 82.6075 69.1042 
324.156 82.5297 69.1317 322.337 83.0867 68.9427 326.339 79.4573 70.959 
329.15 78.9476 70.7588 331.616 78.8945 70.965 331.521 78.7087 71.1242 
331.622 78.8853 70.9992 326.035 80.1759 70.397 325.53 80.7027 70.075 
331.64 79.0755 70.8517 331.64 79.451 70.6621 323.81 81.8428 69.5367 
323.53 82.0562 69.4283 324.147 81.6338 69.623 324.663 81.3277 69.7501 
323.376 82.1871 69.3795 331.029 80.3656 70.3974 331.822 80.9138 69.765 
322.757 82.7601 69.0949 323.204 82.3876 69.2797 327.145 78.3876 71.7276 
331.342 78.3204 71.4192 331.281 78.034 71.7038 325.757 78.4293 71.8171 
[...]
POINT_DATA 2535
SCALARS scalars float
LOOKUP_TABLE default
1 1 1 1 1 1 1 1 1 
1 1 1 1 1 1 1 1 1 
1 1 1 1 1 1 1 1 1 
1 1 1 1 1 1 1 1 1 
1 1 1 1 1 1 1 1 1 
1 1 1 1 1 1 1 1 1 
1 1 1 1 1 1 1 1 1 
1 1 1 1 1 1 1 1 1 
1 1 1 1 1 1 1 1 1 
1 1 1 1 1 1 1 1 1 
1 1 1 1 1 1 1 1 1 
1 1 1 1 1 1 1 1 1 
1 1 1 1 1 1 1 1 1 
1 1 1 1 1 1 1 1 1 
1 1 1 1 1 1 1 1 1 
1 1 1 1 1 1 1 1 1 
1 1 1 1 1 1 1 1 1 
1 1 1 1 1 1 1 1 1 
1 1 1 1 1 1 1 1 1 
1 1 1 1 1 1 1 1 1 
1 1 1 1 1 1 1 1 1 
1 1 1 1 1 1 1 1 1 
1 1 1 1 1 1 1 1 1 
1 1 1 1 1 1 1 1 1 
1 1 1 1 1 1 1 1 1 
1 1 1 1 1 1 1 1 1 
1 1 1 1 1 1 1 1 1 
1 1 1 1 1 1 1 1 1 
1 1 1 1 1 1 1 1 1 
1 1 1 1 1 1 1 1 1 
1 1 1 1 1 1 1 1 1 
1 1 1 1 1 1 1 1 1 
1 1 1 1 1 1 1 1 1 
1 1 1 1 1 1 1 1 1 
1 1 1 1 1 1 1 1 1 
1 1 1 1 1 1 1 1 1 
1 1 1 1 1 1 1 1 1 
1 1 1 1 1 1 1 1 1 
1 1 1 1 1 1 1 1 1 
1 1 1 1 1 1 1 1 1 
1 1 1 1 1 1 1 1 1 
1 1 1 1 1 1 1 1 1 
1 1 1 1 1 1 1 1 1 
1 1 1 1 1 1 1 1 1 
1 1 1 1 1 1 1 1 1 
1 1 1 1 1 1 1 1 1 
1 1 1 1 1 1 1 1 1 
1 1 1 1 1 1 1 1 1 
1 1 1 1 1 1 1 1 1 
1 1 1 1 1 1 1 1 1 
1 1 1 1 1 1 1 1 1 
1 1 1 1 1 1 1 1 1 
1 1 1 1 1 1 1 1 1 
1 1 1 1 1 1 1 1 1 
1 1 1 1 1 1 1 1 1 
1 1 1 1 1 1 1 1 1 
1 1 1 1 1 1 1 1 1 
1 1 1 1 1 1 1 1 1 
1 1 1 1 1 1 1 1 1 
1 1 1 1 1 1 1 1 1 
1 1 1 1 1 1 1 1 1 
1 1 1 1 1 1 1 1 1 
1 1 1 1 1 1 1 1 1 
1 1 1 1 1 1 1 1 1 
1 1 1 1 1 1 1 1 1 
1 1 1 1 1 1 1 1 1 
1 1 1 1 1 1 1 1 1 
1 1 1 1 1 1 1 1 1 
1 1 1 1 1 1 1 1 1 
1 1 1 1 1 1 1 1 1 
1 1 1 1 1 1 1 1 1 
1 1 1 1 1 1 1 1 1 
1 1 1 1 1 1 1 1 1 
1 1 1 1 1 1 1 1 1 
1 1 1 1 1 1 1 1 1 
1 1 1 1 1 1 1 1 1 
1 1 1 1 1 1 1 1 1 
1 1 1 1 1 1 1 1 1 
1 1 1 1 1 1 1 1 1 
1 1 1 1 1 1 1 1 1 
1 1 1 1 1 1 1 1 1 
1 1 1 1 1 1 1 1 1 
1 1 1 1 1 1 1 1 1 
1 1 1 1 1 1 1 1 1 
1 1 1 1 1 1 1 1 1 
1 1 1 1 1 1 1 1 1 
1 1 1 1 1 1 1 1 1 
1 1 1 1 1 1 1 1 1 
1 1 1 1 1 1 1 1 1 
1 1 1 1 1 1 1 1 1 
1 1 1 1 1 1 1 1 1 
1 1 1 1 1 1 1 1 1 
1 1 1 1 1 1 1 1 1 
1 1 1 1 1 1 1 1 1 
1 1 1 1 1 1 1 1 1 
1 1 1 1 1 1 1 1 1 
1 1 1 1 1 1 1 1 1 
1 1 1 1 1 1 1 1 1 
1 1 1 1 1 1 1 1 1 
1 1 1 1 1 1 1 1 1 
1 1 1 1 1 1 1 1 1 
1 1 1 1 1 1 1 1 1 
1 1 1 1 1 1 1 1 1 
1 1 1 1 1 1 1 1 1 
1 1 1 1 1 1 1 1 1 
1 1 1 1 1 1 1 1 1 
1 1 1 1 1 1 1 1 1 
1 1 1 1 1 1 1 1 1 
1 1 1 1 1 1 1 1 1 
1 1 1 1 1 1 1 1 1 
1 1 1 1 1 1 1 1 1 
1 1 1 1 1 1 1 1 1 
1 1 1 1 1 1 1 1 1 
1 1 1 1 1 1 1 1 1 
1 1 1 1 1 1 1 1 1 
1 1 1 1 1 1 1 1 1 
1 1 1 1 1 1 1 1 1 
1 1 1 1 1 1 1 1 1 
1 1 1 1 1 1 1 1 1 
1 1 1 1 1 1 1 1 1 
1 1 1 1 1 1 1 1 1 
1 1 1 1 1 1 1 1 1 
1 1 1 1 1 1 1 1 1 
1 1 1 1 1 1 1 1 1 
1 1 1 1 1 1 1 1 1 
1 1 1 1 1 1 1 1 1 
1 1 1 1 1 1 1 1 1 
1 1 1 1 1 1 1 1 1 
1 1 1 1 1 1 1 1 1 
1 1 1 1 1 1 1 1 1 
1 1 1 1 1 1 1 1 1 
1 1 1 1 1 1 1 1 1 
1 1 1 1 1 1 1 1 1 
1 1 1 1 1 1 1 1 1 
1 1 1 1 1 1 1 1 1 
1 1 1 1 1 1 1 1 1 
1 1 1 1 1 1 1 1 1 
1 1 1 1 1 1 1 1 1 
1 1 1 1 1 1 1 1 1 
1 1 1 1 1 1 1 1 1 
1 1 1 1 1 1 1 1 1 
1 1 1 1 1 1 1 1 1 
1 1 1 1 1 1 1 1 1 
1 1 1 1 1 1 1 1 1 
1 1 1 1 1 1 1 1 1 
1 1 1 1 1 1 1 1 1 
1 1 1 1 1 1 1 1 1 
1 1 1 1 1 1 1 1 1 
1 1 1 1 1 1 1 1 1 
1 1 1 1 1 1 1 1 1 
1 1 1 1 1 1 1 1 1 
1 1 1 1 1 1 1 1 1 
1 1 1 1 1 1 1 1 1 
1 1 1 1 1 1 1 1 1 
1 1 1 1 1 1 1 1 1 
1 1 1 1 1 1 1 1 1 
1 1 1 1 1 1 1 1 1 
1 1 1 1 1 1 1 1 1 
1 1 1 1 1 1 1 1 1 
1 1 1 1 1 1 1 1 1 
1 1 1 1 1 1 1 1 1 
1 1 1 1 1 1 1 1 1 
1 1 1 1 1 1 1 1 1 
1 1 1 1 1 1 1 1 1 
1 1 1 1 1 1 1 1 1 
1 1 1 1 1 1 1 1 1 
1 1 1 1 1 1 1 1 1 
1 1 1 1 1 1 1 1 1 
1 1 1 1 1 1 1 1 1 
1 1 1 1 1 1 1 1 1 
1 1 1 1 1 1 1 1 1 
1 1 1 1 1 1 1 1 1 
1 1 1 1 1 1 1 1 1 
1 1 1 1 1 1 1 1 1 
1 1 1 1 1 1 1 1 1 
1 1 1 1 1 1 1 1 1 
1 1 1 1 1 1 1 1 1 
1 1 1 1 1 1 1 1 1 
1 1 1 1 1 1 1 1 1 
1 1 1 1 1 1 1 1 1 
1 1 1 1 1 1 1 1 1 
1 1 1 1 1 1 1 1 1 
1 1 1 1 1 1 1 1 1 
1 1 1 1 1 1 1 1 1 
1 1 1 1 1 1 1 1 1 
1 1 1 1 1 1 1 1 1 
1 1 1 1 1 1 1 1 1 
1 1 1 1 1 1 1 1 1 
1 1 1 1 1 1 1 1 1 
1 1 1 1 1 1 1 1 1 
1 1 1 1 1 1 1 1 1 
1 1 1 1 1 1 1 1 1 
1 1 1 1 1 1 1 1 1 
1 1 1 1 1 1 1 1 1 
1 1 1 1 1 1 1 1 1 
1 1 1 1 1 1 1 1 1 
1 1 1 1 1 1 1 1 1 
1 1 1 1 1 1 1 1 1 
1 1 1 1 1 1 1 1 1 
1 1 1 1 1 1 1 1 1 
1 1 1 1 1 1 1 1 1 
1 1 1 1 1 1 1 1 1 
1 1 1 1 1 1 1 1 1 
1 1 1 1 1 1 1 1 1 
1 1 1 1 1 1 1 1 1 
1 1 1 1 1 1 1 1 1 
1 1 1 1 1 1 1 1 1 
1 1 1 1 1 1 1 1 1 
1 1 1 1 1 1 1 1 1 
1 1 1 1 1 1 1 1 1 
1 1 1 1 1 1 1 1 1 
1 1 1 1 1 1 1 1 1 
1 1 1 1 1 1 1 1 1 
1 1 1 1 1 1 1 1 1 
1 1 1 1 1 1 1 1 1 
1 1 1 1 1 1 1 1 1 
1 1 1 1 1 1 1 1 1 
1 1 1 1 1 1 1 1 1 
1 1 1 1 1 1 1 1 1 
1 1 1 1 1 1 1 1 1 
1 1 1 1 1 1 1 1 1 
1 1 1 1 1 1 1 1 1 
1 1 1 1 1 1 1 1 1 
1 1 1 1 1 1 1 1 1 
1 1 1 1 1 1 1 1 1 
1 1 1 1 1 1 1 1 1 
1 1 1 1 1 1 1 1 1 
1 1 1 1 1 1 1 1 1 
1 1 1 1 1 1 1 1 1 
1 1 1 1 1 1 1 1 1 
1 1 1 1 1 1 1 1 1 
1 1 1 1 1 1 1 1 1 
1 1 1 1 1 1 1 1 1 
1 1 1 1 1 1 1 1 1 
1 1 1 1 1 1 1 1 1 
1 1 1 1 1 1 1 1 1 
1 1 1 1 1 1 1 1 1 
1 1 1 1 1 1 1 1 1 
1 1 1 1 1 1 1 1 1 
1 1 1 1 1 1 1 1 1 
1 1 1 1 1 1 1 1 1 
1 1 1 1 1 1 1 1 1 
1 1 1 1 1 1 1 1 1 
1 1 1 1 1 1 1 1 1 
1 1 1 1 1 1 1 1 1 
1 1 1 1 1 1 1 1 1 
1 1 1 1 1 1 1 1 1 
1 1 1 1 1 1 1 1 1 
1 1 1 1 1 1 1 1 1 
1 1 1 1 1 1 1 1 1 
1 1 1 1 1 1 1 1 1 
1 1 1 1 1 1 1 1 1 
1 1 1 1 1 1 1 1 1 
1 1 1 1 1 1 1 1 1 
1 1 1 1 1 1 1 1 1 
1 1 1 1 1 1 1 1 1 
1 1 1 1 1 1 1 1 1 
1 1 1 1 1 1 1 1 1 
1 1 1 1 1 1 1 1 1 
1 1 1 1 1 1 1 1 1 
1 1 1 1 1 1 1 1 1 
1 1 1 1 1 1 1 1 1 
1 1 1 1 1 1 1 1 1 
1 1 1 1 1 1 1 1 1 
1 1 1 1 1 1 1 1 1 
1 1 1 1 1 1 1 1 1 
1 1 1 1 1 1 1 1 1 
1 1 1 1 1 1 1 1 1 
1 1 1 1 1 1 1 1 1 
1 1 1 1 1 1 1 1 1 
1 1 1 1 1 1 1 1 1 
1 1 1 1 1 1 1 1 1 
1 1 1 1 1 1 1 1 1 
1 1 1 1 1 1 1 1 1 
1 1 1 1 1 1 1 1 1 
1 1 1 1 1 1 1 1 1 
1 1 1 1 1 1 1 1 1 
1 1 1 1 1 1 1 1 1 
1 1 1 1 1 1 1 1 1 
1 1 1 1 1 1 1 1 1 
1 1 1 1 1 1 1 1 1 
1 1 1 1 1 1 
NORMALS Normals float
-0.123858 0.406178 0.905361 -0.236371 0.446264 0.863121 -0.43524 -0.139277 -0.889476 
-0.096174 -0.317477 -0.943376 -0.031408 -0.346461 -0.937539 0.0353496 -0.373494 -0.926959 
0.0847852 -0.39154 -0.916247 -0.0974963 0.397219 0.91253 -0.011756 0.365754 0.930637 
-0.423237 0.491468 0.761137 -0.0876153 -0.322136 -0.94263 0.0572988 -0.380658 -0.922939 
-0.0155429 0.366811 0.930166 0.117195 0.311587 0.942963 -0.253875 0.448862 0.856779 
0.0628824 -0.382556 -0.92179 0.00242149 0.360767 0.932653 0.164608 -0.432687 -0.88639 
0.164608 -0.432687 -0.88639 0.164608 -0.432687 -0.88639 -0.412781 -0.126807 -0.90196 
-0.103688 -0.306789 -0.946113 0.372173 -0.46729 -0.801952 -0.518552 0.534079 0.66773 
-0.484219 0.523139 0.701325 -0.837418 0.251805 -0.485103 0.498705 -0.492211 -0.713458 
0.613022 -0.497771 -0.613538 -0.602133 0.534305 0.593257 -0.25653 0.456455 0.851963 
-0.699649 0.532911 0.475917 0.0419133 -0.377215 -0.925177 0.703942 -0.505093 -0.499346 
0.514965 -0.500957 -0.695596 0.0489571 -0.378608 -0.924261 0.12664 0.309657 0.942377 
0.575706 0.0551943 0.815792 0.627291 -0.510312 -0.588293 0.862983 -0.464546 -0.198639 
0.0290698 -0.412602 -0.910447 0.134508 -0.411117 -0.901605 0.00394443 -0.431607 -0.902053 
-0.0508828 -0.442149 -0.895497 -0.11206 -0.302635 -0.946496 0.187849 -0.422599 -0.886635 
-0.458334 0.499916 0.734856 -0.171823 0.450755 0.875955 -0.453214 -0.0931816 -0.886518 
0.644102 -0.492474 -0.585322 -0.0163436 0.370541 0.928672 0.546866 0.0894646 0.832426 
0.423564 0.169424 0.889882 0.313151 0.223018 0.923146 0.0263997 -0.388834 -0.920929 
0.0842128 -0.451375 -0.888352 0.511822 -0.45675 -0.727611 0.283356 -0.51577 -0.808511 
0.215284 0.298196 0.92991 0.0326518 -0.397516 -0.917014 0.154897 -0.413151 -0.897393 
0.773246 0.0198801 0.633795 0.186669 0.311991 0.931567 0.0356915 0.999363 0 
0.0037667 -0.714772 0.699347 0.0606817 0.720582 0.690709 0.0379305 0.161204 0.986192 
0.0379305 0.161204 0.986192 0.0299527 0.942749 -0.332155 0.0144222 0.755902 -0.654526 
0.0306663 0.970115 -0.240702 0.0538658 0.75657 0.651691 0.00631423 -0.782461 0.622668 
0.0339944 -0.402366 0.914848 0.0646208 0.487679 0.870628 0.0381324 -0.213541 0.976189 
0.0119136 0.818383 -0.57455 -0.00466483 0.554458 -0.832199 -0.0152305 0.396781 -0.917787 
-0.0291857 0.262302 -0.964544 0.223825 -0.622853 -0.749638 0.0102456 -0.0585462 0.998232 
0.0255684 -0.167423 0.985554 0.00867386 -0.0495649 0.998733 0.00735333 -0.0698773 -0.997528 
0.0170591 -0.139461 -0.990081 0.00802264 -0.0372117 0.999275 0.0162107 -0.0944958 0.995393 
-0.0300275 0.190931 -0.981144 -0.0372912 0.242593 -0.969411 0.00282439 0.0034281 0.99999 
-0.009759 0.0928453 0.995633 -0.0449304 0.339651 0.939478 -0.0452999 0.343537 0.938046 
-0.0704534 0.519534 0.85154 -0.0153587 0.0949449 -0.995364 -0.0143826 0.12026 0.992638 
-0.0365584 0.24092 -0.969856 -0.020679 0.169799 0.985262 0.0974325 -0.710559 -0.696859 
0.105982 -0.768233 -0.631336 0.11786 -0.849507 -0.514243 -0.0576536 0.425628 0.90306 
-0.00354402 0.00647568 -0.999973 -0.0186589 0.116821 -0.992978 0.0340062 -0.171924 0.984523 
0.00560679 -0.59682 0.802356 0.00574882 -0.514696 0.857354 0.005962 -0.512732 0.858528 
0.0923121 -0.67199 -0.734784 0.125762 -0.887155 0.444004 -0.0504983 -0.858642 -0.510083 
-0.0309311 -0.483693 -0.874691 -0.0383835 -0.484843 -0.873759 -0.0348229 -0.484664 -0.874007 
-0.0213536 -0.481502 -0.876185 0.0323098 -0.498721 -0.86616 0.00208684 -0.472491 -0.881333 
-0.0194913 -0.481564 -0.876194 -0.0249724 -0.482764 -0.875394 -0.0151549 -0.480782 -0.876709 
-0.00148385 -0.476761 -0.879032 0.00178468 -0.472513 -0.881322 -0.0272924 -0.479613 -0.877055 
-0.0110807 -0.479143 -0.877667 0.0137037 -0.113072 -0.993492 -0.013034 -0.480108 -0.877113 
-0.00529517 -0.478451 -0.878098 0.0364777 -0.242867 0.969374 -0.0139851 -0.480602 -0.876827 
0.0118538 -0.105081 -0.994393 0.00970234 -0.474728 -0.880079 -0.0190459 0.160261 0.986891 
0.423667 0.53482 0.731077 -0.0440288 0.290774 -0.955778 0.0246619 -0.465079 -0.884925 
-0.0826823 0.6062 0.791003 -0.071101 0.52402 0.848733 -0.056261 0.416303 0.907484 
0.380998 0.20819 0.900832 0.201668 0.417871 0.885841 0.110508 0.405971 0.90718 
0.156898 0.435522 0.886399 0.00845906 0.480106 0.87717 0.047031 0.457544 0.887942 
-0.00562223 0.478959 0.877819 0.0421273 0.468601 0.882405 -0.0268701 -0.481763 -0.87589 
0.0322344 0.477867 0.877841 -0.0266241 -0.479295 -0.87725 -0.0225551 -0.481699 -0.876046 
-0.0282122 -0.476454 -0.878747 0.248913 -0.558323 -0.791402 0.0265772 0.483955 0.874689 
0.00622569 -0.470816 -0.882209 0.140431 0.403332 0.904213 -0.0559289 -0.444901 -0.893832 
0.137768 -0.51068 -0.848661 0.534535 0.0833789 0.841023 0.517775 0.0610754 0.853334 
0.0113877 0.522974 0.852272 0.306783 0.193868 0.931826 0.0285738 0.50842 0.860635 
0.0384093 0.480574 0.876112 0.0518654 0.467906 0.882255 0.0508723 0.466119 0.883258 
0.04919 0.455953 0.888643 0.0480491 0.452571 0.890433 0.156159 -0.480394 -0.863038 
0.0750143 -0.942551 -0.32553 0.0623441 -0.456222 -0.88768 0.207889 0.317714 0.925116 
0.248239 0.254823 0.934581 0.144204 0.384014 0.911997 0.111778 -0.473889 -0.873461 
0.160825 0.328945 0.930554 0.306865 0.237305 0.921694 0.0802247 -0.535651 -0.84062 
-0.00560724 -0.0457588 -0.998937 -0.00589199 -0.0390424 -0.99922 0.00278071 -0.24851 -0.968625 
0.00816599 -0.366953 -0.930204 0.00966465 -0.400239 -0.91636 0.0217024 -0.668005 -0.743841 
0.0216171 -0.66465 -0.746842 0.00270161 -0.254032 -0.967192 0.0296856 -0.829501 -0.557716 
0.0170747 -0.212995 0.976904 0.0344554 -0.689074 0.723871 -0.00762064 0.383591 0.923472 
0.00275196 0.143932 0.989584 0.0152219 -0.556685 -0.830584 0.0359439 -0.948411 -0.315 
0.0124547 -0.501651 -0.86498 0.0357354 -0.946311 -0.321277 -0.0307796 0.866904 0.497524 
-0.00886634 0.0303076 -0.999501 0.00566468 -0.315223 -0.949001 0.010777 -0.0800082 0.996736 
-0.00613228 0.321717 0.946816 -0.0209875 0.651922 0.757995 -0.0177809 0.585784 0.810273 
-0.0356414 0.934854 0.353238 -0.0410335 0.999056 0.0142785 -0.0289584 0.523444 -0.851568 
-0.01413 0.127732 -0.991708 -0.0068472 -0.0576604 -0.998313 -0.0373596 0.768439 -0.638831 
0.00433015 0.123873 0.992289 0.00406797 0.129246 0.991604 0.0209077 -0.507842 -0.861196 
-0.0108623 0.432208 0.901708 -0.102842 -0.229021 -0.967974 -0.0375792 0.964651 0.260837 
-0.041344 0.923401 -0.381604 -0.0234786 0.371162 -0.928271 -0.0991652 -0.18638 -0.97746 
0.00871814 0.00884989 0.999923 0.181873 -0.877331 0.444086 0.023977 -0.377668 0.925631 
0.131939 -0.167873 0.976939 0.109819 -0.591572 -0.798738 0.00162475 0.770143 -0.637869 
-0.0012256 0.660924 -0.750452 -0.0148236 -0.151629 -0.988326 0.00368221 0.840821 -0.541301 
0.00026619 0.725358 -0.688372 -0.00589973 0.444288 -0.895865 -0.0103298 0.189575 -0.981812 
-0.00188534 0.629027 -0.777381 -0.0106574 0.165458 -0.986159 0.0123487 -0.0464958 0.998842 
0.012369 -0.0488964 0.998727 0.00847893 -0.301901 0.953302 0.009578 0.972918 -0.230953 
-0.00966316 -0.976978 0.213122 -0.0111231 -0.992765 0.119559 0.0146021 0.158268 0.987288 
0.00656148 -0.410927 0.911645 -0.0117018 0.0562896 -0.998346 -0.005627 0.31291 0.949766 
0.0157042 0.279281 0.960081 -0.0157651 -0.275009 -0.961312 -0.0105522 0.420424 0.907266 
0.0117431 -0.0911239 0.99577 0.00776138 -0.362333 -0.932016 0.0130898 0.00830925 0.99988 
0.0388654 -0.981763 -0.186092 0.00999526 -0.209161 0.97783 0.0388313 -0.981489 -0.18754 
0.00702135 -0.383081 0.923688 0.0405849 -0.893873 0.446479 -0.00558753 -0.895474 0.44508 
0.0166493 -0.194161 0.980828 -0.0177055 -0.816808 -0.576638 -0.0121157 0.493246 0.869805 
-0.00717942 0.346624 0.937977 0.0408783 -0.998495 -0.0365583 0.0334631 -0.903734 -0.426784 
0.0353931 -0.71203 0.701257 -0.0291772 0.525318 -0.850406 0.00389361 0.129883 0.991522 
-0.460366 0.414297 -0.785125 -0.0373612 -0.49051 -0.870634 -0.00455189 -0.658241 -0.752794 
0.164532 -0.576093 -0.800654 -0.461892 0.784215 -0.414321 -0.200102 0.886701 0.416798 
-0.232032 -0.0153276 -0.972587 -0.186247 0.0938661 -0.978009 -0.212819 0.0693417 -0.974628 
-0.119677 0.233053 -0.965072 0.057454 -0.307413 -0.94984 -0.309315 0.898999 -0.31004 
-0.162876 0.965348 -0.2039 -0.0102273 0.227186 -0.973798 0.00723581 0.933201 -0.359281 
0.00310759 0.816082 -0.577928 -0.0117441 0.0916167 -0.995725 -0.136943 0.905299 -0.402096 
-0.0109251 0.147961 -0.988933 -0.0732073 0.990795 0.11387 -0.010122 0.203126 -0.9791 
-0.212784 0.556042 -0.803455 -0.000135593 0.709897 -0.704306 -0.00246244 0.609058 -0.793122 
-0.464831 0.21266 -0.859481 -0.559761 0.609662 -0.561231 -0.187866 -0.237538 -0.953038 
0.905612 -0.380567 -0.187177 -0.453248 0.891384 0.000670003 -0.434786 0.896203 0.0882079 
-0.388843 0.145925 -0.909674 0.299609 -0.597608 -0.743706 0.483281 0.526908 0.699147 
-0.492647 0.847457 -0.197778 0.0166999 0.721871 0.691826 -0.136608 -0.4094 -0.90207 
0.0125184 -0.595242 -0.803449 0.134314 -0.588705 -0.797111 0.495688 -0.614181 -0.614065 
-0.154521 -0.175852 -0.972214 -0.367018 0.930115 -0.0135887 -0.458286 0.370264 -0.808008 
0.947368 -0.319933 0.0116711 -0.425904 0.904049 0.036066 0.829783 -0.495048 -0.257659 
0.832233 0.0609477 0.551065 -0.0389195 -0.532761 -0.84537 -0.504717 -0.237995 -0.829831 
0.277087 -0.644697 -0.712453 0.594297 -0.543852 -0.592484 -0.0608295 -0.808735 -0.585019 
-0.189951 -0.290178 -0.937932 -0.0679538 -0.81127 -0.58071 -0.0858305 -0.722159 -0.686381 
-0.166451 -0.58675 -0.792476 -0.0965959 -0.775269 -0.624201 0.90195 -0.407309 -0.143476 
0.604951 0.318984 0.729578 -0.0237198 0.978571 0.20454 0.0718103 0.736733 0.67236 
-0.203217 -0.305301 -0.930319 -0.176255 0.908204 0.379604 0.639365 0.291145 0.711651 
0.472704 -0.52858 -0.705091 0.418078 -0.640807 -0.643876 0.945932 -0.278332 -0.166565 
-0.25626 -0.46366 -0.848145 -0.390182 -0.521019 -0.759142 -0.0805359 -0.543884 -0.835287 
0.491663 -0.459716 -0.739546 0.966681 -0.100454 -0.235452 0.153795 0.570428 0.80682 
-0.167189 -0.338041 -0.926162 -0.197341 -0.290704 -0.936241 0.938076 0.203313 0.280495 
0.732209 0.283822 0.619125 0.161752 0.577094 0.800499 0.156726 0.567044 0.80864 
-0.115064 -0.553728 -0.824709 -0.0995551 -0.600855 -0.793134 0.28518 0.651596 0.702919 
-0.186031 0.950982 0.247034 0.0157093 0.644497 0.764445 -0.110061 0.777793 0.618809 
0.0102527 0.589122 0.807979 0.486208 0.408493 0.772487 0.165391 0.579445 0.798053 
0.165391 0.579445 0.798053 0.139928 0.579682 0.802738 0.141365 0.568545 0.810415 
0.165391 0.579445 0.798053 0.161229 0.573951 0.802861 0.155476 0.565221 0.810156 
0.151635 0.561255 0.813634 -0.354724 -0.450306 -0.819387 0.848157 -0.511793 -0.136743 
-0.436988 -0.598009 -0.671883 0.902686 -0.426169 0.0594801 0.864112 -0.478512 -0.156004 
0.148842 0.570652 0.80759 -0.265792 -0.51307 -0.816158 0.774386 0.152525 0.614054 
0.638082 0.408455 0.652699 0.166044 0.579727 0.797713 0.162643 0.579153 0.79883 
0.163765 0.57475 0.801775 0.163024 0.586611 0.793291 -0.149831 -0.59124 -0.792456 
-0.158374 -0.562737 -0.811323 0.179257 -0.650462 -0.738083 0.498089 -0.538876 -0.679353 
0.602007 -0.579795 -0.549023 0.0841448 -0.604075 -0.792472 0.893055 -0.371991 -0.253131 
-0.23721 -0.615858 -0.751299 -0.154558 -0.344605 -0.925937 0.86241 -0.457905 -0.215807 
0.768257 0.0996155 0.632343 0.121097 0.536378 0.835245 0.64654 0.756994 -0.0945805 
-0.047361 -0.423324 -0.904739 -0.122785 -0.27493 -0.953592 0.0964378 -0.303151 -0.94805 
-0.0815492 0.480852 0.873001 0.542907 0.803892 0.242919 -0.815994 0.0896604 0.571065 
-0.0616802 -0.681563 -0.729155 0.599667 -0.577406 -0.554078 0.859584 -0.504416 -0.0817272 
0.956482 -0.0942293 0.276156 -0.680432 -0.670688 -0.295279 -0.437353 -0.794845 -0.420647 
0.988241 0.0257875 0.150713 0.855499 0.235582 0.46111 -0.554891 -0.496093 0.667824 
-0.417889 -0.686913 -0.594575 -0.554631 -0.80238 0.220389 -0.464827 -0.838276 -0.285008 
-0.299301 0.136101 0.944402 0.167314 0.503666 0.847542 0.467699 0.42866 0.772986 
0.417686 0.101366 -0.902919 -0.140489 0.399617 0.905853 -0.248635 -0.744495 -0.619603 
0.716481 -0.565245 -0.408844 0.971269 -0.116473 0.207533 -0.0577071 -0.63039 -0.77413 
-0.0232382 -0.900602 -0.434024 -0.237518 -0.966472 -0.0975518 0.852449 0.108214 0.511488 
0.387341 0.436768 0.811912 -0.0623838 -0.627048 -0.776478 -0.0526946 -0.632923 -0.77242 
-0.181346 -0.513199 -0.838893 -0.467721 0.161376 0.869019 -0.188144 -0.543853 -0.817818 
-0.336961 -0.345439 -0.875859 -0.314143 0.0514688 0.94798 -0.196726 0.185869 0.962679 
-0.0769499 -0.625085 -0.776754 -0.107417 0.756024 0.645669 -0.055333 0.713529 0.698438 
-0.461314 -0.183255 0.868106 0.484103 0.507961 0.712475 -0.2088 -0.78594 -0.58198 
0.552801 -0.664483 -0.502866 0.937189 -0.176219 0.301036 0.0626741 0.644686 0.761874 
0.0626741 0.644686 0.761874 -0.0645949 -0.626015 -0.777131 -0.0638143 -0.677461 -0.732786 
-0.0726045 -0.631204 -0.772211 -0.238054 -0.873351 -0.424956 -0.0695377 -0.625884 -0.77681 
-0.0599604 -0.62301 -0.779912 0.0521119 0.718164 0.69392 0.0849985 0.565734 0.820195 
-0.0707232 -0.58194 -0.810151 -0.00587693 0.597438 0.801894 0.244512 0.541589 0.804298 
-0.0199312 -0.988688 -0.148656 -0.0905788 -0.570905 -0.816004 0.000196663 -0.643233 -0.765671 
0.177722 -0.739286 -0.649516 0.350079 0.344631 0.871019 0.181099 0.546003 0.817976 
-0.00724457 0.704992 0.709178 0.205687 0.514762 0.832294 -0.0627311 -0.656583 -0.751641 
-0.068876 -0.660292 -0.747844 -0.0773203 -0.696872 -0.713015 0.0453604 -0.998162 0.0401777 
0.671503 -0.701419 -0.238946 0.51536 0.373816 0.771146 0.0626741 0.644686 0.761874 
-0.425838 -0.263037 -0.865721 -0.268156 -0.46017 -0.846366 -0.0511325 -0.664626 -0.745425 
0.017293 0.412286 0.910891 -0.0714118 -0.656563 -0.750884 -0.0193107 0.596708 0.802226 
-0.0632642 -0.62729 -0.776212 0.0650654 0.526451 0.847712 0.303696 -0.59401 0.74493 
-0.0229018 0.741727 0.67031 0.00874377 0.664391 0.747334 -0.13602 0.93392 0.330594 
0.000247303 0.692405 0.721509 -0.068631 0.841825 0.53537 -0.210361 0.974759 0.0747833 
0 -0.707107 -0.707107 0.100911 0.438222 0.893185 0.274154 -0.245297 0.929876 
0.286685 -0.329593 0.899544 0.190754 0.161037 0.968339 0.193298 0.115246 0.974348 
0.115103 -0.24194 0.96344 0.156968 0.156803 0.975076 0.234932 0.136995 0.962309 