# vtk DataFile Version 4.2
vtk output
ASCII
DATASET POLYDATA
POINTS 1046 float
341.905 102.397 35.8501 341.86 102.339 35.8669 341.894 102.447 35.8619 
341.901 102.264 35.8846 341.916 102.402 35.8728 341.307 101.199 36.1751 
341.759 100.99 36.0777 341.88 101.401 35.9687 341.905 101.302 35.9828 
341.707 101.831 35.9301 341.823 101.661 35.943 341.896 101.481 36.024 
341.907 101.293 36.0162 341.599 102.108 35.9755 341.733 102.201 35.9165 
341.831 102.063 35.8999 341.898 101.915 35.9821 341.743 102.383 35.9359 
341.83 102.464 35.9141 341.902 102.462 35.9046 340.522 99.5128 36.831 
341.083 99.5719 36.5605 341.813 100.013 36.4827 341.704 100.562 36.2233 
341.805 100.409 36.3123 341.84 100.216 36.4058 341.271 101.548 36.2367 
341.867 100.967 36.1925 341.53 102.103 36.0408 341.794 102.522 35.9818 
341.882 102.528 35.9382 341.839 102.539 35.9954 341.884 102.542 35.9735 
339.463 96.9905 37.8387 340.003 98.0174 37.3127 340.387 98.3198 37.0993 
341.212 98.2897 37.0815 340.205 99.2407 37.0967 341.115 101.399 36.4411 
341.739 102.491 36.092 341.694 102.437 36.3026 341.808 102.471 36.1408 
341.87 102.508 36.0332 339.09 94.9953 38.6399 339.005 96.3448 38.2882 
339.018 96.472 38.2865 341.507 96.8079 38.093 341.665 98.0155 37.8084 
339.8 98.8521 37.5091 340.496 100.137 37.1337 341.839 100.475 36.8611 
341.835 101.635 36.5441 341.269 101.801 36.571 341.4 102.042 36.5617 
341.542 102.293 36.3893 341.784 102.272 36.3538 341.618 102.393 36.4464 
341.677 102.467 36.4154 341.655 102.437 36.4736 341.683 102.461 36.4509 
340.061 94.0927 38.6017 341.573 94.9955 38.6 341.576 94.8974 38.6324 
341.584 94.9223 38.6506 341.447 95.1574 38.5304 341.291 94.4899 38.841 
341.563 95.1073 38.5924 341.583 95.0309 38.6383 338.951 96.3193 38.3645 
338.897 96.2513 38.5601 341.537 95.25 38.6548 339.146 97.6956 38.2485 
339.532 98.5475 38.0024 341.742 99.0692 37.7464 340.593 100.206 37.3695 
341.65 100.052 37.4633 341.505 102.097 36.6705 341.64 102.225 36.5968 
341 92.1289 39.9428 341.078 91.6754 40.3008 338.551 93.1892 39.6328 
341.455 94.8112 39.1494 341.521 94.885 38.7591 338.988 97.2934 38.6969 
341.632 97.7957 38.4968 340.844 100.287 37.552 341.218 99.9535 37.8173 
338.086 89.1128 41.2467 338.775 89.7254 40.7176 340.796 89.4672 41.2317 
340.994 89.7418 41.2558 337.625 90.0948 41.3638 339.215 90.2848 40.4054 
340.301 90.5194 40.3787 340.97 90.5292 40.7723 341.076 90.2453 41.0736 
340.663 91.0259 40.2526 338.058 92.8473 40.5025 341.296 92.8181 40.2517 
338.391 94.4523 40.1689 341.403 95.6918 39.5777 339.386 97.7291 38.8586 
339.875 97.9964 38.9662 341.447 98.3908 38.4734 339.621 98.5007 38.3084 
340.242 98.8093 38.4664 340.34 98.451 38.7671 341.318 98.9944 38.2518 
337.452 88.7003 41.9084 338.73 88.6342 41.2403 339.161 89.1325 40.935 
340.079 89.1727 41.0395 341.275 92.1206 40.9232 338.347 94.0551 40.6305 
338.705 95.1325 40.231 338.94 95.6272 40.0406 341.076 96.9209 39.5217 
338.317 85.4782 42.946 339.309 85.5444 42.9366 337.625 86.7819 42.5206 
337.235 86.2724 42.9508 341.031 87.3314 42.7918 340.786 88.1439 42.1432 
341.086 87.7857 42.7889 337.2 89.3986 42.2047 341.118 89.436 41.7183 
341.19 89.7899 41.7174 341.199 89.6796 42.1415 341.193 90.4287 42.0488 
341.132 91.1822 41.9378 340.788 95.1859 40.5665 341.069 95.2592 40.3058 
336.723 83.9848 44.0715 336.411 83.4761 44.4375 337.151 83.8998 43.9195 
337.949 83.881 43.7843 340.67 84.8298 43.9172 336.245 85.4362 44.0533 
337.735 85.1965 43.2077 340.237 85.5058 43.2865 340.983 85.1116 43.9992 
340.679 86.0015 43.2926 341.027 86.6157 43.4007 341.03 85.8952 43.6926 
337.029 89.0716 42.726 337.698 91.4192 42.4007 341.054 91.9939 41.7408 
338.523 93.5238 41.3568 338.884 93.4576 41.6473 339.508 92.7456 42.2584 
336.036 82.1192 45.1942 338.278 82.1084 44.7164 335.963 83.2429 44.8394 
337.576 83.295 44.112 340.982 84.7361 44.3556 341.16 87.5542 43.7528 
337.022 89.0709 43.1564 340.683 90.3091 43.0301 337.467 80.3931 45.688 
335.648 81.6199 45.6257 340.19 81.3331 46.1101 340.779 83.6445 45.2903 
337.626 89.6367 43.6459 334.184 79.8842 47.2894 338.034 79.6536 46.1964 
339.675 79.4674 46.9927 334.794 82.5723 46.3838 334.857 83.0983 46.1703 
334.957 83.2723 46.0709 340.662 85.8387 45.2554 339.371 88.3762 44.875 
339.946 88.2146 44.7559 340.204 87.513 44.9898 335.197 77.1485 47.8033 
339.787 78.8398 47.7287 334.351 80.5011 47.0176 334.482 81.9057 46.9369 
334.599 82.2936 46.9328 334.893 82.9885 46.7424 340.513 83.8403 46.3292 
335.472 84.5548 46.3874 337.616 86.1504 46.3964 337.987 86.5716 46.1505 
333.024 77.7051 48.7058 332.975 78.242 48.6259 340.279 80.6065 47.8178 
340.362 83.0847 46.8948 340.314 83.5919 46.8014 340.014 83.7062 47.0761 
337.623 84.2697 47.675 339.763 84.5808 46.8489 336.858 85.4641 46.6626 
338.347 84.612 47.4479 339.046 85.4515 46.7564 337.694 74.4919 49.7834 
332.367 74.6749 49.8426 335.97 75.2759 48.8306 338.407 75.0408 49.7624 
338.89 75.824 49.6168 332.812 78.1584 49.0596 332.943 78.7273 48.9386 
339.927 78.9162 48.4011 333.635 79.969 48.8714 337.878 83.6843 48.0434 
339.105 83.298 47.9598 342.004 84.0131 49.0087 342.004 84.0132 49.0087 
342.004 84.0132 49.0087 342.004 84.0131 49.0088 338.937 84.0141 47.6226 
342.004 84.0132 49.0088 338.01 73.5336 50.8269 330.335 73.8243 51.0233 
338.714 74.8689 50.2873 330.661 74.9095 50.9873 339.196 75.7673 50.4542 
331.973 76.6685 49.9675 339.527 77.3083 49.8597 333.026 78.7256 49.5279 
333.322 79.3576 49.4245 339.538 80.662 49.0376 334.655 81.4397 48.4964 
342.004 84.0131 49.0088 327.536 70.8906 52.4698 336.868 71.9615 51.4423 
337.131 73.08 50.6451 330.597 75.2584 51.3072 331.372 76.162 50.7161 
339.459 77.2876 50.3613 339.43 77.7641 50.3835 332.496 77.716 50.3809 
333.388 79.2891 49.5651 334.544 79.2733 50.5871 339.374 79.8276 49.621 
338.258 80.5358 49.9344 338.805 80.4237 49.7599 326.525 70.4455 52.9117 
330.243 70.8842 51.8393 328.177 72.8287 52.5201 339.256 76.0544 51.0346 
330.901 75.7348 51.7607 333.41 78.4174 50.6767 336.033 78.9547 51.279 
336.692 78.2547 51.8091 317.068 69.9761 55.1083 322.698 69.048 54.1496 
331.854 68.997 52.7219 336.763 69.5949 53.5164 337.216 69.8671 53.6277 
316.704 70.4164 54.9347 316.489 70.5462 54.9634 317.015 70.3562 54.8669 
317.85 70.1302 54.7791 318.531 69.9739 54.7469 319.748 69.8452 54.5423 
323.116 69.6231 53.9737 323.842 70.1641 53.8076 324.457 69.9538 53.6389 
337.81 70.7258 53.5378 316.525 70.5927 54.9037 316.427 70.6572 54.9336 
325.239 70.5976 53.4354 316.485 70.6949 54.8901 316.406 70.7462 54.9463 
316.577 70.7206 54.8665 316.748 70.6934 54.8582 316.491 70.7816 54.9029 
338.581 73.3867 52.856 338.503 73.5606 53.2389 328.994 74.0635 53.1025 
338.804 76.1171 51.9217 334.245 77.645 52.0155 338.369 77.7884 51.5682 
324.475 68.1707 54.0583 334.833 68.4327 53.6336 317.265 69.7291 55.2689 
316.944 70.0233 55.2271 316.492 70.4934 55.042 317.395 70.4246 54.7848 
320.406 69.7499 54.4984 338.003 70.8984 53.7297 316.414 70.6388 55.0271 
321.545 70.4038 54.4264 338.117 71.2318 53.749 338.1 71.2069 54.2667 
316.392 70.7825 55.0269 316.93 70.76 54.9106 323.757 70.9022 54.0731 
338.241 71.7585 53.7071 316.444 70.8302 54.9664 316.608 70.8315 54.9368 
325.563 71.7927 53.8753 324.768 71.6056 54.2515 338.461 73.0648 53.3884 
328.202 73.4663 54.2206 338.13 74.5806 53.4046 338.009 75.43 53.0647 
337.757 68.4409 55.7789 319.067 68.7371 55.173 317.405 69.5249 55.6499 
337.85 69.6427 54.9804 337.874 69.1454 55.3935 317.53 69.4456 55.8422 
316.468 70.5781 55.1474 320.248 70.4678 54.6666 316.433 70.7005 55.1266 
318.223 70.7178 55.0382 321.39 70.8015 54.7108 316.434 70.8581 55.0342 
316.446 70.8214 55.1173 322.238 71.1182 54.8604 323.368 71.4271 54.9642 
338.282 72.6788 53.865 316.519 70.886 55.0903 329.881 73.8288 54.7236 
331.858 73.9284 55.2257 334.696 74.8484 54.5763 335.976 74.652 54.5177 
337.28 75.0577 53.7574 319.991 66.5562 56.8863 320.491 66.1273 56.9715 
319.53 67.369 56.2507 319.441 67.1886 56.6677 337.757 68.3403 55.9873 
317.95 69.0898 56.152 337.884 68.995 55.6825 337.866 69.2644 55.7628 
316.54 70.8118 55.2067 316.94 70.8835 55.0989 318.683 70.8077 55.5775 
330.559 72.8744 56.109 316.529 70.8656 55.1581 319.059 70.8829 55.4629 
328.285 72.6753 55.7894 325.571 63.5866 57.0555 320.99 65.3395 57.7229 
322.919 64.7354 56.8815 330.804 63.4255 56.9735 319.692 66.8053 57.0175 
319.348 67.2396 56.9084 337.233 67.0906 56.8027 318.905 68.0997 57.0752 
337.754 68.4267 56.1286 318.633 68.5755 56.9254 317.92 69.5095 56.2772 
317.301 70.0963 55.8257 318.72 70.5635 56.0369 335.694 71.9928 56.4789 
336.936 71.4491 56.1933 325.275 71.4591 56.6821 336.139 71.7767 56.4643 
332.165 62.5392 58.0351 322.609 63.6779 58.6683 320.825 65.4365 57.8808 
336.531 65.1974 58.1072 336.859 65.6462 58.1928 337.042 66.3081 57.9368 
318.611 68.8049 56.951 337.416 68.2431 57.1117 318.468 69.1472 56.7767 
318.582 69.9818 56.4748 319.797 69.7832 57.1489 327.525 70.9392 57.748 
337.349 69.7484 56.8093 317.859 70.4614 55.8436 337.272 69.6901 56.976 
324.555 62.225 59.0834 326.69 61.4755 58.9988 335.292 62.951 59.2018 
336.51 64.5377 58.9903 321.026 65.2768 58.7581 336.862 65.3755 59.0068 
319.807 66.8098 57.8671 320.126 66.5968 58.3544 336.97 65.7881 58.686 
320.484 66.4804 58.8299 336.969 66.18 58.6957 334.818 68.7932 58.9877 
319.545 68.7341 57.6571 336.428 68.5645 58.2391 325.632 60.5851 61.1007 
324.161 61.8779 60.147 323.999 61.8808 60.4896 324.835 61.4596 60.1591 
326.006 61.0172 59.8986 327.547 60.2209 60.3377 336.581 64.5524 59.3808 
336.454 64.3573 59.9231 336.789 65.4004 59.283 336.785 66.5531 58.8814 
336.872 66.0713 58.9818 324.349 67.8712 60.0464 320.031 68.0382 58.3194 
328.545 59.9176 60.6091 323.774 62.0665 60.6118 335.757 61.0288 61.6949 
324.156 61.763 61.2455 335.887 61.3234 61.6299 335.974 61.6944 61.5598 
336.148 63.1523 60.4943 336.417 65.456 59.8807 332.815 66.7099 61.1112 
335.532 65.9849 60.4447 320.662 67.7709 58.819 330.874 59.3192 61.8794 
[...]
POINT_DATA 1046
SCALARS scalars float
LOOKUP_TABLE default
1 1 1 1 1 1 1 1 1 
1 1 1 1 1 1 1 1 1 
1 1 1 1 1 1 1 1 1 
1 1 1 1 1 1 1 1 1 
1 1 1 1 1 1 1 1 1 
1 1 1 1 1 1 1 1 1 
1 1 1 1 1 1 1 1 1 
1 1 1 1 1 1 1 1 1 
1 1 1 1 1 1 1 1 1 
1 1 1 1 1 1 1 1 1 
1 1 1 1 1 1 1 1 1 
1 1 1 1 1 1 1 1 1 
1 1 1 1 1 1 1 1 1 
1 1 1 1 1 1 1 1 1 
1 1 1 1 1 1 1 1 1 
1 1 1 1 1 1 1 1 1 
1 1 1 1 1 1 1 1 1 
1 1 1 1 1 1 1 1 1 
1 1 1 1 1 1 1 1 1 
1 1 1 1 1 1 1 1 1 
1 1 1 1 1 1 1 1 1 
1 1 1 1 1 1 1 1 1 
1 1 1 1 1 1 1 1 1 
1 1 1 1 1 1 1 1 1 
1 1 1 1 1 1 1 1 1 
1 1 1 1 1 1 1 1 1 
1 1 1 1 1 1 1 1 1 
1 1 1 1 1 1 1 1 1 
1 1 1 1 1 1 1 1 1 
1 1 1 1 1 1 1 1 1 
1 1 1 1 1 1 1 1 1 
1 1 1 1 1 1 1 1 1 
1 1 1 1 1 1 1 1 1 
1 1 1 1 1 1 1 1 1 
1 1 1 1 1 1 1 1 1 
1 1 1 1 1 1 1 1 1 
1 1 1 1 1 1 1 1 1 
1 1 1 1 1 1 1 1 1 
1 1 1 1 1 1 1 1 1 
1 1 1 1 1 1 1 1 1 
1 1 1 1 1 1 1 1 1 
1 1 1 1 1 1 1 1 1 
1 1 1 1 1 1 1 1 1 
1 1 1 1 1 1 1 1 1 
1 1 1 1 1 1 1 1 1 
1 1 1 1 1 1 1 1 1 
1 1 1 1 1 1 1 1 1 
1 1 1 1 1 1 1 1 1 
1 1 1 1 1 1 1 1 1 
1 1 1 1 1 1 1 1 1 
1 1 1 1 1 1 1 1 1 
1 1 1 1 1 1 1 1 1 
1 1 1 1 1 1 1 1 1 
1 1 1 1 1 1 1 1 1 
1 1 1 1 1 1 1 1 1 
1 1 1 1 1 1 1 1 1 
1 1 1 1 1 1 1 1 1 
1 1 1 1 1 1 1 1 1 
1 1 1 1 1 1 1 1 1 
1 1 1 1 1 1 1 1 1 
1 1 1 1 1 1 1 1 1 
1 1 1 1 1 1 1 1 1 
1 1 1 1 1 1 1 1 1 
1 1 1 1 1 1 1 1 1 
1 1 1 1 1 1 1 1 1 
1 1 1 1 1 1 1 1 1 
1 1 1 1 1 1 1 1 1 
1 1 1 1 1 1 1 1 1 
1 1 1 1 1 1 1 1 1 
1 1 1 1 1 1 1 1 1 
1 1 1 1 1 1 1 1 1 
1 1 1 1 1 1 1 1 1 
1 1 1 1 1 1 1 1 1 
1 1 1 1 1 1 1 1 1 
1 1 1 1 1 1 1 1 1 
1 1 1 1 1 1 1 1 1 
1 1 1 1 1 1 1 1 1 
1 1 1 1 1 1 1 1 1 
1 1 1 1 1 1 1 1 1 
1 1 1 1 1 1 1 1 1 
1 1 1 1 1 1 1 1 1 
1 1 1 1 1 1 1 1 1 
1 1 1 1 1 1 1 1 1 
1 1 1 1 1 1 1 1 1 
1 1 1 1 1 1 1 1 1 
1 1 1 1 1 1 1 1 1 
1 1 1 1 1 1 1 1 1 
1 1 1 1 1 1 1 1 1 
1 1 1 1 1 1 1 1 1 
1 1 1 1 1 1 1 1 1 
1 1 1 1 1 1 1 1 1 
1 1 1 1 1 1 1 1 1 
1 1 1 1 1 1 1 1 1 
1 1 1 1 1 1 1 1 1 
1 1 1 1 1 1 1 1 1 
1 1 1 1 1 1 1 1 1 
1 1 1 1 1 1 1 1 1 
1 1 1 1 1 1 1 1 1 
1 1 1 1 1 1 1 1 1 
1 1 1 1 1 1 1 1 1 
1 1 1 1 1 1 1 1 1 
1 1 1 1 1 1 1 1 1 
1 1 1 1 1 1 1 1 1 
1 1 1 1 1 1 1 1 1 
1 1 1 1 1 1 1 1 1 
1 1 1 1 1 1 1 1 1 
1 1 1 1 1 1 1 1 1 
1 1 1 1 1 1 1 1 1 
1 1 1 1 1 1 1 1 1 
1 1 1 1 1 1 1 1 1 
1 1 1 1 1 1 1 1 1 
1 1 1 1 1 1 1 1 1 
1 1 1 1 1 1 1 1 1 
1 1 1 1 1 1 1 1 1 
1 1 1 1 1 1 1 1 1 
1 1 1 1 1 1 1 1 1 
1 1 
NORMALS Normals float
0.413916 0.00680829 -0.91029 -0.305059 -0.00461546 -0.952322 0.192309 0.55104 -0.812017 
0.539873 -0.199906 -0.817664 0.972622 0.0985236 -0.210476 -0.66435 -0.00238498 -0.747417 
0.035292 -0.317362 -0.947648 0.5201 -0.00445415 -0.854094 0.796995 -0.198806 -0.570329 
-0.306631 -0.127361 -0.943269 0.472646 -0.052883 -0.879664 0.980493 0.0302725 -0.194209 
0.998098 0.0505934 -0.0352362 -0.52958 0.0290566 -0.847762 -0.377153 -0.000249957 -0.926151 
0.150631 -0.121437 -0.981103 0.980749 -0.0549095 -0.187394 -0.659077 0.324308 -0.678558 
-0.382183 0.501115 -0.776415 0.751296 0.575552 -0.322946 -0.558225 -0.0549199 -0.82787 
-0.0927031 -0.299877 -0.949463 0.817707 -0.29569 -0.493884 0.112018 -0.325685 -0.938819 
0.432594 -0.295893 -0.851651 0.646823 -0.319279 -0.69259 -0.649696 0.012673 -0.760088 
0.929371 -0.179922 -0.322331 -0.839013 0.345121 -0.420654 -0.54027 0.711419 -0.449435 
0.395067 0.711855 -0.580677 -0.132532 0.991021 -0.0176942 0.538271 0.833 0.127966 
-0.662109 -0.0101902 -0.749339 -0.584984 -0.0621827 -0.808657 -0.318246 -0.238856 -0.917424 
0.412813 -0.361618 -0.835954 -0.326003 0.826764 0.458459 -0.875437 0.267166 -0.402781 
-0.580976 0.813733 -0.0174668 0.0423443 0.995905 0.0798768 0.349937 0.802829 0.482711 
0.870294 0.334733 0.361305 -0.449939 -0.254107 -0.856145 -0.801348 -0.0676421 -0.594362 
0.199711 -0.218795 -0.955115 0.976361 -0.118168 -0.180984 0.945643 -0.223022 -0.236686 
-0.833584 0.240795 -0.497147 -0.907005 0.338681 -0.250276 0.968759 0.054552 0.241931 
0.963665 0.0986844 0.248214 -0.843248 0.490171 0.220602 -0.869572 0.492864 0.030496 
-0.809043 0.58773 0.00477179 0.864686 0.268361 0.424617 -0.809753 0.586448 0.0194777 
-0.449386 0.893035 -0.0232541 -0.538116 0.723764 0.431968 0.52564 0.660314 0.536366 
0.037554 -0.398058 -0.916591 0.786703 -0.0812959 -0.611955 0.758083 -0.483073 -0.438122 
0.987074 -0.141837 0.0746133 0.467387 -0.207633 -0.859324 0.725978 -0.477949 -0.49449 
0.813273 0.184737 -0.551778 0.990829 0.0955631 0.0955292 -0.887115 0.0212694 -0.461058 
-0.944387 0.26816 -0.190323 0.993571 0.102865 -0.0472792 -0.889745 0.159342 -0.427743 
-0.809456 0.560814 0.173978 0.950697 0.0721886 0.301603 -0.757355 0.557542 0.339942 
0.740169 0.272914 0.614547 -0.503253 0.56554 0.653376 0.609559 0.30026 0.733677 
0.680713 -0.34467 -0.6464 0.861621 -0.25299 -0.440006 -0.593222 -0.224909 -0.772984 
0.98717 -0.151773 0.0495947 0.915446 -0.213114 0.341383 -0.92539 0.346125 0.154438 
0.914772 0.155485 0.372849 -0.380929 0.54937 0.743697 0.15204 0.48947 0.858663 
-0.481379 -0.246427 -0.841159 -0.24693 -0.29615 -0.92267 0.589694 -0.431799 -0.682503 
0.799355 -0.331053 -0.501434 -0.899985 0.0829855 -0.42795 -0.0810963 -0.386876 -0.918559 
0.25186 -0.448635 -0.857492 0.769504 -0.259099 -0.583722 0.894939 -0.130701 -0.426616 
0.404565 -0.39959 -0.82259 -0.96376 0.0978128 -0.248192 0.99183 -0.0919699 -0.0884034 
-0.860978 0.426337 0.277404 0.925457 0.15951 0.343635 -0.570185 0.561768 0.599422 
-0.234757 0.573322 0.784978 0.76017 0.323736 0.563327 -0.614542 0.663559 0.426646 
-0.407298 0.638955 0.652568 -0.116564 0.565438 0.816512 0.575409 0.387583 0.720197 
-0.630533 -0.194494 -0.751399 -0.157269 -0.481699 -0.86211 -0.0662225 -0.427012 -0.901818 
0.261435 -0.468816 -0.84372 0.998998 0.0125638 0.0429504 -0.804748 0.481463 0.347238 
-0.600012 0.553801 0.577313 -0.686247 0.49032 0.537263 0.434753 0.40595 0.803862 
-0.162377 -0.459209 -0.873362 0.170764 -0.512017 -0.84183 -0.434867 -0.275309 -0.857377 
-0.468277 -0.307998 -0.828163 0.843544 -0.269397 -0.464606 0.664178 -0.378652 -0.644585 
0.946693 -0.162012 -0.278432 -0.932638 0.209585 -0.293703 0.904332 -0.266036 -0.333779 
0.986679 -0.0609196 -0.150843 0.997638 -0.0619019 -0.0297905 0.998394 0.0449909 0.0344115 
0.951505 0.158091 0.263905 0.454741 0.462016 0.761415 0.676101 0.398922 0.619474 
-0.451185 -0.191999 -0.871532 -0.411861 -0.433617 -0.801466 -0.259946 -0.0763562 -0.962599 
-0.0651403 -0.321811 -0.944561 0.54344 -0.466306 -0.69802 -0.687043 -0.161752 -0.708384 
-0.201261 -0.489044 -0.848723 0.442524 -0.431916 -0.785889 0.682265 -0.449956 -0.576242 
0.563888 -0.405786 -0.719283 0.96416 -0.152167 -0.217347 0.813221 -0.275949 -0.512371 
-0.920766 0.390111 0.00196631 -0.689169 0.475826 0.546475 0.935201 0.163122 0.31431 
-0.556269 0.495671 0.66699 -0.382455 0.470397 0.79527 -0.213287 0.505173 0.836247 
-0.454196 -0.359967 -0.814941 0.025671 -0.499888 -0.86571 -0.610013 -0.269083 -0.745304 
-0.251964 -0.475518 -0.84285 0.9919 -0.126568 -0.0107501 0.973608 0.0717755 0.216645 
-0.834078 0.535672 0.131792 0.668791 0.334057 0.664173 -0.0301628 -0.563841 -0.825332 
-0.474969 -0.358694 -0.803582 0.542903 -0.474664 -0.692784 0.963508 -0.24438 -0.109229 
-0.6514 0.584307 0.484008 -0.655683 -0.135209 -0.742831 0.15195 -0.583183 -0.798003 
0.687026 -0.465511 -0.557938 -0.852313 0.00460742 -0.523012 -0.943088 0.173285 -0.283826 
-0.935398 0.172131 -0.308872 0.917027 0.188287 0.351581 0.0608305 0.544713 0.836414 
0.690766 0.41627 0.591237 0.591852 0.4331 0.679806 -0.137258 -0.43574 -0.889546 
0.77334 -0.470041 -0.425449 -0.78682 -0.0259109 -0.616639 -0.967253 0.195589 0.161761 
-0.950758 0.247369 -0.186729 -0.937079 0.324271 -0.129346 0.855504 0.23235 0.462738 
-0.858309 0.480843 0.179152 -0.132921 0.596251 0.791718 0.0742937 0.708493 0.701797 
-0.769754 -0.0207186 -0.638005 -0.864182 0.021624 -0.502714 0.952262 0.0182944 0.304735 
0.832206 0.164109 0.529623 0.767156 0.287564 0.573392 0.641925 0.339058 0.687729 
-0.143289 0.463327 0.874527 0.596071 0.455186 0.661441 -0.377524 0.572277 0.727994 
0.117137 0.51954 0.846379 0.370404 0.622249 0.689642 0.317462 -0.549185 -0.773055 
-0.42664 -0.238462 -0.872419 0.0884819 -0.53446 -0.84055 0.60675 -0.491598 -0.624649 
0.661291 -0.476317 -0.579497 -0.937049 0.251051 -0.242719 -0.9399 0.283067 -0.190947 
0.953874 -0.259188 -0.151481 -0.718493 0.589068 0.36982 -0.113157 0.529994 0.840418 
0.46429 0.404611 0.787861 0.082057 -0.715173 -0.694114 -0.318822 0.575813 -0.752856 
0.273709 0.611257 -0.742596 0.340805 -0.473443 0.812221 0.304806 0.469989 0.828374 
-0.048729 0.697205 0.715214 0.426797 -0.599156 -0.67739 -0.582688 0.0670522 -0.809925 
0.781296 -0.468608 -0.412291 -0.77457 0.234208 -0.587527 0.932134 -0.316554 -0.175839 
-0.837539 0.412064 -0.358792 0.983719 -0.178278 0.0226586 -0.847808 0.461442 0.26133 
-0.768148 0.545676 0.334942 0.649979 0.390196 0.65213 -0.503795 0.596697 0.624615 
-0.208275 -0.519492 0.828703 -0.356966 -0.190886 -0.914406 0.270718 -0.58467 -0.76477 
0.397251 -0.571766 -0.717827 -0.788707 0.472329 -0.393505 -0.789995 0.556172 -0.258032 
0.969069 0.0349864 0.244296 0.822041 0.21916 0.525564 -0.762231 0.626775 0.161732 
-0.624793 0.597163 0.503021 -0.357719 0.61442 0.703224 0.78888 0.216965 0.574973 
0.319012 0.476661 0.819162 0.436232 0.425969 0.792623 -0.322289 -0.0752025 -0.943649 
-0.162965 -0.413873 -0.895629 -0.593551 0.446638 -0.669486 0.955536 -0.0776478 0.284467 
-0.691719 0.711927 0.121178 -0.576716 0.652301 0.491834 0.00501322 0.569625 0.821889 
0.040528 0.605451 0.79485 -0.365144 -0.61607 -0.697945 -0.194166 -0.171539 -0.965854 
-0.00921956 -0.523287 -0.852107 0.484698 -0.582126 -0.652838 0.587633 -0.581308 -0.562821 
-0.311898 -0.457323 -0.832812 -0.627562 -0.603741 -0.491593 -0.129746 -0.234058 -0.963526 
-0.145123 -0.291066 -0.945632 -0.164811 -0.245384 -0.955314 -0.122015 0.0456291 -0.991479 
-0.251875 -0.000830324 -0.967759 -0.270269 0.212545 -0.939031 -0.208068 0.0115912 -0.978046 
0.694367 -0.466043 -0.548323 -0.335763 -0.366041 -0.867915 -0.730776 -0.331214 -0.596878 
-0.29724 0.0126781 -0.954719 -0.357825 -0.103392 -0.928047 -0.820144 0.123507 -0.558667 
-0.128654 0.110221 -0.985545 -0.0386912 0.0287312 -0.998838 -0.199693 0.466388 -0.861745 
0.969018 -0.245003 0.0312663 0.930303 0.0630648 0.36133 -0.592174 0.803871 -0.0558704 
0.760715 0.263914 0.593011 -0.283757 0.697838 0.65765 0.463186 0.476018 0.747573 
-0.190004 -0.353245 -0.916033 0.242015 -0.612531 -0.752486 -0.570351 -0.773358 -0.276798 
-0.742409 -0.669938 0.00350395 -0.800787 -0.594932 -0.0692553 -0.141928 -0.13737 -0.980299 
-0.100227 0.301429 -0.948206 0.853748 -0.345314 -0.389708 -0.94709 -0.320956 -0.00269018 
-0.222362 0.425374 -0.877275 0.931578 -0.239815 -0.273224 0.940923 0.0344325 0.336865 
-0.973359 0.222443 0.0555956 0.0483437 0.634427 -0.77147 -0.351616 0.409609 -0.841776 
0.97423 -0.211786 -0.0776041 -0.523425 0.663003 -0.535213 -0.00712251 0.849309 -0.527849 
-0.501411 0.728364 -0.466983 -0.383503 0.627905 -0.677245 0.938886 -0.0764376 0.335635 
-0.368951 0.88025 0.298387 0.621689 0.300727 0.723234 0.720606 0.330749 0.60937 
0.823097 -0.4262 -0.37532 -0.264646 -0.556798 -0.787362 -0.777072 -0.585933 0.229874 
0.87509 -0.378884 -0.301106 0.971653 -0.144807 -0.186873 -0.719151 -0.644003 0.260925 
-0.788067 -0.308231 0.532863 -0.0700242 0.402596 -0.912696 -0.83949 -0.0258233 0.542762 
-0.0241003 0.926096 -0.376517 -0.167578 0.548906 -0.818914 -0.549158 0.831564 -0.0832261 
-0.716312 0.474925 0.511217 -0.128582 0.74892 -0.650066 -0.307561 0.83555 -0.455261 
0.911635 -0.076216 0.403872 -0.176387 0.984012 -0.02466 -0.29932 0.805385 0.511628 
-0.0233874 0.649279 0.760191 0.0121473 0.658933 0.752103 0.237646 0.495152 0.835673 
0.395773 0.50649 0.766049 -0.456415 -0.702733 -0.545758 -0.570459 -0.723183 -0.389336 
-0.567277 -0.650223 -0.505379 -0.766613 -0.562718 -0.309279 0.969881 -0.238648 0.0487588 
-0.793579 -0.404188 0.454824 0.993091 -0.11691 0.0101448 0.976615 -0.0043646 0.214949 
-0.520921 0.287122 0.803867 0.0200021 0.999799 0.0014125 -0.0977098 0.955582 0.278057 
-0.163495 0.69799 0.697194 -0.279952 0.799534 0.531386 -0.113329 0.982312 0.149061 
-0.216832 0.736644 0.640577 -0.15148 -0.688751 -0.708997 -0.580087 -0.767176 -0.273753 
-0.337629 -0.651989 -0.678909 0.0890947 -0.676563 -0.730976 -0.707191 -0.697798 -0.113838 
-0.832824 -0.552881 -0.026952 0.886071 -0.438416 -0.150564 -0.821528 -0.371871 0.432208 
0.949082 0.0494449 0.311124 -0.78771 -0.160362 0.594809 -0.701156 -0.0661571 0.709932 
-0.455838 0.2501 0.854202 -0.177309 0.723895 0.666736 0.281394 0.636989 0.717678 
0.638554 0.493351 0.590638 -0.176508 0.837346 0.517394 0.486183 0.56472 0.666871 
0.2098 -0.676626 -0.705806 -0.530203 -0.758809 -0.378278 -0.717374 -0.6928 -0.0735013 
0.712384 -0.548516 -0.437766 0.921261 -0.323021 -0.216644 0.94796 -0.297492 -0.113449 
-0.633126 0.122748 0.764254 0.950857 0.0960998 0.294339 -0.67094 0.0612813 0.738975 
-0.370214 0.425448 0.825794 -0.2553 0.607097 0.752499 -0.126867 0.727597 0.674172 
0.833593 0.180294 0.522128 -0.18295 0.681642 0.708444 0.784027 0.232724 0.575449 
-0.449887 -0.736992 -0.504425 -0.130683 -0.784431 -0.606292 0.522573 -0.605421 -0.600319 
0.837729 -0.498545 -0.222851 -0.775858 -0.608613 0.166236 0.916527 -0.395556 0.0592796 
-0.856252 -0.39224 0.336125 -0.845365 -0.420287 0.329722 0.993191 -0.0864558 0.0780884 
-0.764937 -0.0778333 0.639385 0.970743 0.0591175 0.232731 0.189078 0.592219 0.783279 
-0.607651 0.275071 0.745048 0.75288 0.28097 0.59517 -0.422993 -0.879899 -0.216461 
-0.562779 -0.774214 -0.289607 -0.544978 -0.825774 -0.145246 -0.447904 -0.802595 -0.393984 
-0.175491 -0.867236 -0.465946 -0.22217 -0.858096 -0.462939 0.941318 -0.314338 0.122935 
0.951352 -0.239303 0.19407 0.81561 -0.188877 0.546907 0.803803 0.26123 0.534471 
0.900563 0.102664 0.42243 -0.196624 0.530365 0.824653 -0.589999 0.254399 0.766279 
-0.0233749 -0.871719 -0.489449 -0.784705 -0.619417 -0.0236695 0.750138 -0.505852 -0.425918 
-0.657966 -0.748563 0.0820569 0.950002 -0.286312 0.124584 0.971603 -0.0980727 0.215337 
0.935921 -0.314501 -0.158562 0.813373 0.143741 0.563704 0.149061 0.582029 0.799389 
0.414182 0.54778 0.726905 -0.480326 0.271474 0.83402 0.0953128 -0.946348 -0.308774 
0.136359 -0.799491 -0.584997 0.391646 -0.699691 -0.597533 0.511143 -0.764939 -0.39192 
0.674542 -0.714009 -0.187576 -0.696621 -0.706348 0.125662 -0.766165 -0.195325 0.612242 
0.586996 0.426468 0.688157 -0.445701 0.268015 0.854118 0.481154 0.519055 0.706451 
-0.400919 0.351249 0.846102 -0.116749 -0.947635 -0.297251 -0.339709 -0.940279 -0.0217426 
0.0297739 -0.999008 -0.033127 0.127873 -0.979073 -0.158319 0.172401 -0.979843 0.100923 
0.168985 -0.985613 0.00347879 0.155207 -0.963443 -0.218375 -0.747828 -0.499545 0.437274 
-0.775785 -0.371284 0.510202 0.893744 0.0589515 0.444686 0.736106 0.266763 0.622081 
-0.0708846 0.5416 0.837643 0.24778 0.544188 0.801538 0.409511 0.412465 0.81374 
0.525897 0.421508 0.738758 -0.395277 -0.847321 0.354689 -0.0221749 -0.943343 0.331078 
-0.36369 -0.784396 0.502447 0.109316 -0.957902 0.265467 0.0668702 -0.778098 0.624574 
0.186124 -0.765348 0.616118 0.297091 -0.601841 0.741299 -0.628399 -0.692159 0.355008 
0.391544 -0.833405 0.390037 0.361751 -0.873665 0.32534 0.421633 -0.902028 -0.0925827 
0.866988 -0.498272 0.00750352 -0.568246 -0.464252 0.679387 0.514011 -0.406359 0.755424 
0.914142 -0.120511 0.387067 -0.713331 -0.475944 0.514428 0.668759 0.0714021 0.740043 
0.679086 -0.132075 0.722079 -0.673938 -0.142008 0.725011 -0.490056 0.200978 0.848206 
0.431522 0.354072 0.829712 -0.0702277 -0.537856 0.840107 -0.292486 -0.594014 0.749399 
0.172558 -0.578007 0.797579 0.589106 -0.728504 0.349623 -0.554109 -0.306388 0.774009 
0.183591 -0.380141 0.906525 0.435789 -0.259232 0.861909 0.758962 -0.436261 0.483376 
0.595636 0.0433154 0.802086 -0.654948 -0.186273 0.732356 0.135308 0.35647 0.924457 
-0.412849 0.214973 0.885066 0.509402 0.178003 0.841918 -0.26895 -0.464883 0.843534 
-0.380539 -0.309483 0.871441 -0.418416 -0.193054 0.887501 0.0926272 -0.234089 0.967793 
0.317992 -0.0922571 0.943594 -0.413914 0.111553 0.903455 -0.145511 0.130171 0.980756 
-0.0986056 -0.217011 -0.971176 -0.142273 -0.235051 -0.961514 -0.442818 -0.174192 -0.879528 
-0.16548 0.0360943 -0.985552 -0.106609 0.081035 -0.990993 0.138967 -0.0522404 -0.988918 
0.267532 -0.0953492 -0.95882 0.377676 -0.133089 -0.916323 -0.0183932 0.219416 -0.975458 
0.128593 0.0240002 -0.991407 -0.34169 -0.629701 -0.697657 -0.263365 -0.390574 -0.882095 
-0.553192 -0.409646 -0.725375 0.566139 -0.337515 -0.752044 -0.604251 -0.235953 -0.761056 
0.290345 -0.200628 -0.935654 0.582245 0.0268038 -0.812572 -0.62275 -0.0747467 -0.778842 
-0.52537 0.184353 -0.830662 -0.42019 0.107901 -0.900998 0.266646 0.364348 -0.892273 
0.429242 0.256147 -0.866106 -0.128077 -0.752957 -0.645485 -0.0613173 -0.983682 -0.169143 
-0.104902 -0.992138 0.0682471 0.16506 -0.925805 -0.340058 -0.301678 -0.774998 -0.555309 
-0.346355 -0.832295 -0.432809 0.228547 -0.891092 -0.392072 0.0649493 -0.781735 -0.62022 
0.125013 -0.717941 -0.684786 -0.511941 -0.597346 -0.617328 0.213504 -0.377245 -0.901167 
0.331546 -0.431661 -0.838896 0.193614 -0.718661 -0.667862 0.344712 -0.645877 -0.681187 
0.399127 -0.496682 -0.770717 -0.616448 -0.526819 -0.585195 -0.680775 -0.615866 -0.396553 
0.137913 -0.370022 -0.918729 0.772265 -0.272325 -0.573974 0.67678 -0.393655 -0.622098 
-0.688068 -0.394122 -0.609286 -0.686362 -0.211577 -0.695803 0.761637 0.0940943 -0.641136 
-0.680664 -0.0351455 -0.731752 -0.0570085 0.335393 -0.940352 0.581515 0.35839 -0.73034 
-0.42111 -0.906583 -0.0278096 -0.136918 -0.986904 -0.0852885 0.130006 -0.982777 0.131334 
-0.570003 -0.799956 -0.18753 -0.555575 -0.755115 -0.348048 0.114452 -0.992624 -0.0399797 
0.285112 -0.929702 -0.233165 0.0963316 -0.991272 -0.089998 0.502154 -0.699208 -0.50887 
0.252815 -0.963197 -0.0912985 0.354612 -0.933686 0.0498068 0.601579 -0.722638 -0.340436 
-0.717725 -0.643209 -0.266746 0.65272 -0.698668 -0.292951 0.91318 -0.212866 -0.347548 
-0.763943 -0.306055 -0.568086 0.879323 0.125091 -0.459503 -0.216392 0.426583 -0.878181 
-0.600788 0.130684 -0.788654 0.468986 0.463205 -0.751992 -0.240204 -0.904305 0.352893 
-0.428242 -0.814251 0.391924 0.00336792 -0.93591 0.352224 0.093191 -0.988635 0.117968 
0.437821 -0.888518 0.137291 0.758166 -0.549864 -0.350477 0.77597 -0.618811 0.122242 
0.540474 -0.840868 -0.0287793 0.383573 -0.848829 0.363814 -0.726127 -0.643598 -0.241912 
-0.745549 -0.572883 -0.34053 -0.822937 -0.501953 -0.266116 -0.789529 -0.228388 -0.569635 
-0.821033 -0.1953 -0.536435 -0.329494 0.493969 -0.80463 -0.242375 0.607546 -0.756401 
-0.506662 0.324224 -0.798857 0.0284442 0.648739 -0.76048 -0.0165847 -0.922629 0.385331 
-0.348269 -0.81276 0.467044 0.139367 -0.837537 0.528307 0.311447 -0.79602 0.518992 
-0.62415 -0.779314 0.0557397 0.624347 -0.608048 0.490375 -0.700074 -0.668605 -0.250725 
-0.642189 -0.759063 -0.106851 -0.786705 -0.580302 -0.210582 0.933062 -0.35491 0.0586063 
-0.841885 -0.448889 -0.299547 0.97777 -0.149341 -0.147185 0.984609 -0.0276095 -0.172575 
0.941998 0.0678281 -0.328692 -0.731872 -0.0714644 -0.677684 0.92301 0.123854 -0.364298 
-0.666501 -0.179522 -0.723566 -0.716587 0.078457 -0.693071 0.174776 0.585408 -0.791676 
0.755976 0.314838 -0.573914 -0.553623 0.341677 -0.759446 -0.338542 0.463849 -0.818678 
-0.620517 -0.783741 0.0266326 -0.462568 -0.791278 0.399888 0.613145 -0.52376 0.591378 
-0.752069 -0.655296 0.070568 0.886797 -0.283142 0.365269 0.906077 -0.321207 0.27541 
-0.842496 -0.538588 -0.0111605 0.869171 -0.424904 0.252979 0.964636 0.0482755 -0.259125 
-0.514235 -0.0391043 -0.856757 -0.6234 -0.305607 -0.719706 0.989828 -0.0289387 -0.139295 
-0.760469 -0.170948 -0.62647 -0.435319 0.272987 -0.85789 -0.575306 0.375007 -0.726906 
0.809384 0.248215 -0.532246 -0.568427 -0.748009 0.342597 -0.460789 -0.765509 0.449076 