# vtk DataFile Version 4.2
vtk output
ASCII
DATASET POLYDATA
POINTS 1227 float
326.885 131.593 29.1286 327.204 131.6 29.2969 325.519 132.487 29.0045 
326.05 132.273 29.0663 327.024 131.916 29.3888 325.071 132.951 29.0779 
326.641 132.261 29.4375 324.412 133.326 29.0697 324.79 133.244 29.1906 
324.131 133.564 29.1208 324.276 133.488 29.2323 323.942 133.634 29.116 
329.842 127.123 29.5124 329.004 128.451 29.3667 330.274 127.905 29.6447 
330.75 127.422 29.7398 321.45 130.425 28.8481 330.421 128.281 29.8228 
317.749 131.683 29.0317 330.854 128.181 30.1407 329.12 129.699 29.6771 
329.681 129.306 29.9215 321.608 132.216 28.8264 328.431 130.46 29.6448 
327.882 131.12 29.6142 327.543 131.467 29.7226 326.229 132.571 29.4305 
325.946 132.706 29.5117 322.712 133.64 29.1707 325.324 132.96 29.534 
316.948 135.247 29.3907 320.018 134.535 29.3674 322.698 133.849 29.4981 
323.566 133.651 29.3259 323.933 133.631 29.1758 313.064 136.212 29.8979 
318.969 135.062 29.4954 312.855 136.617 30.2273 316.367 135.896 29.7171 
316.932 135.855 29.8019 317.629 135.685 29.8547 318.293 135.54 29.7624 
318.239 135.453 29.6338 318.686 135.373 29.6484 319.061 135.222 29.7236 
313.619 136.55 30.1683 314.422 136.425 30.0762 316.363 136.045 29.9339 
318.472 135.49 29.689 333.392 123.204 30.5327 329.031 124.017 29.8845 
334.337 122.745 30.8365 334.966 122.768 31.1724 332.854 124.437 30.339 
333.981 123.997 30.7281 323.187 126.232 29.4207 331.909 125.343 30.0753 
334.62 123.979 31.196 334.053 125.087 31.0368 331.926 126.497 30.1295 
331.515 127.179 30.0559 332.644 126.469 30.548 331.51 127.526 30.21 
331.895 127.29 30.4187 330.168 128.864 30.2708 311.63 133.797 29.7256 
327.129 131.84 29.728 311.971 134.901 29.7378 324.651 133.252 29.5533 
311.728 136.158 30.0865 307.729 136.632 30.7294 309.147 136.613 30.5781 
309.931 136.691 30.5761 316.389 136.025 30.1432 318.605 135.447 29.7436 
308.239 136.968 30.8844 307.742 137.056 31.0424 309.586 136.974 30.8209 
311.702 136.919 30.7577 312.105 136.797 30.4981 312.98 136.729 30.4788 
312.437 136.86 30.5741 315.671 136.211 30.1274 309.077 137.079 30.9643 
324.378 120.693 31.0531 325.825 120.914 30.7586 335.696 120.65 31.6177 
317.712 123.669 31.0701 335.852 121.581 31.7643 335.753 122.092 31.8282 
335.485 122.667 31.7725 334.439 124.497 31.2342 334.262 124.818 31.3311 
334.737 123.944 31.5606 335.201 123.212 31.7529 334.143 125.181 31.1569 
334.121 125.253 31.1008 334.107 125.298 31.136 333.331 125.951 30.8689 
333.703 125.6 31.0437 334.029 125.336 31.0996 332.85 126.393 30.7941 
333.241 126.028 31.0132 332.365 126.849 30.8012 322.326 131.73 31.0972 
307.013 133.347 30.4185 300.833 134.458 31.2484 317.915 134.792 30.7159 
323.847 133.151 29.9782 321.663 134.024 29.9863 298.601 136.833 31.9144 
300.99 136.744 31.5785 302.728 136.585 31.3378 301.549 137.08 31.6784 
307.104 136.664 30.8527 301.22 137.393 31.937 309.554 137.071 31.0118 
310.897 136.915 31.0108 300.002 137.652 32.3496 303.469 137.391 31.8492 
307.452 137.157 31.3131 308.2 137.17 31.3051 312.056 136.901 30.7864 
326.808 117.143 32.6423 328.04 116.495 32.6162 324.577 118.687 32.5118 
327.426 117.583 32.0604 323.993 119.311 32.0994 323.243 119.526 32.3496 
322.11 120.192 32.2223 324.308 119.671 31.6558 327.579 118.645 31.4851 
337.092 116.93 32.8383 337.272 117.034 32.929 321.496 120.592 32.1553 
321.06 120.902 32.0249 322.449 120.685 31.5606 335.87 118.644 32.0304 
337.437 117.454 33.1014 318.689 122.132 32.0412 318.295 122.387 31.9218 
319.401 121.765 32.1041 320.399 121.269 32.0782 315.883 123.609 31.894 
316.168 123.445 31.8746 336.525 119.528 32.2803 336.832 119.358 32.6148 
314.965 124.292 31.77 316.904 123.113 31.9588 317.208 123.16 31.6489 
312.358 125.798 31.656 312.08 125.716 32.0102 336.129 121.505 32.2867 
306.115 126.95 32.3227 309.518 126.351 32.2879 310.635 126.159 32.1638 
331.642 125.221 32.1501 334.645 123.825 31.8934 305.543 127.867 31.7848 
329.096 125.925 32.1355 332.014 125.938 31.7476 333.982 125.312 31.2109 
333.108 125.48 31.6876 332.046 126.715 31.2282 332.685 126.383 31.1152 
294.365 136.398 32.5391 310.833 136.517 31.5269 313.377 136.1 31.1449 
294.178 137.237 32.8928 296.839 137.126 32.405 310.629 136.774 31.3376 
315.531 135.989 30.5782 293.227 137.472 33.2201 297.583 137.474 32.5247 
309.354 137.062 31.2691 298.182 137.713 32.7705 298.967 137.777 32.7851 
308.555 137.104 31.4424 327.673 116.324 33.1531 328.839 115.353 33.3491 
328.625 116.201 32.6314 330.873 115.599 32.5253 325.265 118.123 32.7879 
323.605 119.289 32.5299 324.117 119.057 32.6874 322.411 119.915 32.3458 
322.721 119.743 32.4339 323.273 119.551 32.6204 337.463 116.894 33.137 
319.504 121.671 32.2723 319.355 121.754 32.3118 319.236 121.812 32.2544 
321.657 120.509 32.4111 318.83 122.07 32.2029 320.063 121.48 32.3056 
317.521 122.775 32.071 336.86 119.491 32.8829 315.11 124.183 32.0051 
325.136 122.074 33.0458 333.272 121.649 33.3048 313.103 125.28 32.1777 
314.342 124.688 32.1344 335.455 121.656 32.8959 311.5 125.896 32.1794 
335.673 122.27 32.3084 304.731 126.511 33.2207 307.134 126.4 32.8465 
308.941 126.348 32.642 311.048 126.128 32.4888 335.296 122.766 32.2538 
307.292 126.354 32.9068 314.986 126.438 32.7027 298.545 127.802 32.7226 
310.498 131.145 33.1276 308.602 134.727 32.801 293.03 135.207 32.591 
289.479 136.31 33.4633 310.329 136.252 31.8176 287.577 137.42 34.4308 
304.519 137.269 32.3256 307.178 137.056 31.8885 297.57 137.763 33.1978 
299.349 137.768 32.9684 300.051 137.745 32.8297 300.831 137.655 32.8284 
303.716 137.396 32.328 333.364 111.302 34.8047 330.825 113.434 34.0031 
329.733 114.41 33.748 333.957 111.882 34.1574 335.516 111.786 34.1672 
329.247 114.838 33.6968 336.645 112.633 33.9898 338.37 112.591 34.766 
338.557 112.12 35.1294 327.996 116.003 33.4334 328.401 115.734 33.7525 
337.998 113.503 34.1871 327.73 116.301 33.4254 325.142 118.422 32.9972 
322.736 119.837 32.6579 322.286 120.047 32.5587 324.127 119.617 32.9362 
326.615 118.706 33.4774 329.027 118.226 33.9958 322.111 120.26 32.6019 
322.732 120.227 32.7879 323.08 120.542 32.8624 318.437 122.503 32.3275 
321.026 121.286 32.5255 331.365 119.218 34.0731 337.258 118.43 33.3524 
315.217 124.388 32.2744 320.319 122.774 32.6479 326.97 121.936 33.1705 
336.458 119.827 33.3052 296.981 125.371 34.5015 314.985 124.834 32.4426 
308.022 126.427 33.0753 317.293 124.562 32.5849 306.948 126.504 33.1582 
309.643 126.444 32.8316 311.909 127.001 32.9293 311.477 128.119 33.1126 
303.291 132.639 34.4655 303.161 135.563 33.7726 284.361 135.958 34.9605 
301.969 136.496 33.6775 303.687 136.52 33.2078 284.846 136.636 35.0771 
302.313 137.163 33.1051 285.863 137.199 35.1035 286.46 137.419 35.0227 
300.69 137.525 33.1686 303.064 137.31 32.7197 288.967 137.78 34.6007 
335.346 109.486 35.4999 331.815 112.479 34.7729 332.975 111.434 35.0609 
338.708 110.258 35.7885 330.633 113.513 34.422 328.875 115.194 34.1009 
324 115.009 35.0174 324 115.009 35.0175 324 115.009 35.0175 
324 115.009 35.0175 327.55 116.807 33.5558 324 115.009 35.0175 
338.122 115.293 34.6624 337.305 117.521 33.9202 291.351 124.336 35.264 
289.362 125.624 34.9141 308.882 126.711 33.1443 304.137 128.148 34.4914 
287.224 128.876 34.4853 307.387 129.048 33.8644 281.968 132.882 35.7862 
281.662 135.032 36.1555 281.871 135.733 36.1599 282.032 136.037 36.1669 
283.629 136.35 35.5042 284.114 136.747 35.6251 286.707 137.528 35.131 
289.508 137.812 34.9263 287.246 137.621 35.1478 294.864 137.698 34.1765 
335.417 108.616 36.3144 335.894 108.497 36.107 334.472 109.729 35.9543 
336.798 108.026 36.2576 337.418 108.073 36.262 338.941 108.476 36.7243 
334.088 110.158 35.8252 338.525 109.272 36.0593 339.074 109.028 36.6572 
332.173 112.157 35.0428 332.458 111.974 35.2198 332.119 112.362 35.121 
324 115.009 35.0175 336.982 114.681 35.4799 337.377 114.459 35.4997 
338.153 114.557 35.0929 290.31 122.668 36.4402 289.604 123.063 36.0836 
295.121 124.598 35.7086 297.505 125.391 35.2939 299.875 126.013 34.9026 
303.196 127.141 34.4815 298.684 128.291 35.963 298.514 130.299 35.9333 
280.82 132.375 36.9104 296.82 135.398 35.3497 281.574 135.443 36.4035 
281.685 135.624 36.2839 281.748 135.804 36.3503 281.814 136.013 36.3943 
281.968 136.174 36.3637 281.909 136.086 36.299 282.406 136.428 36.1703 
282.644 136.544 36.1568 283.627 136.716 35.9323 285.968 137.255 35.6326 
295.253 137.44 34.4706 337.205 106.612 37.233 336.671 107.018 37.164 
338.302 106.196 37.6256 338.292 106.79 37.2644 338.775 107.202 37.2979 
338.888 107.498 37.254 334.945 109.316 36.4598 339.06 109.352 36.7351 
332.695 112.595 35.5294 333.818 112.583 35.9234 335.028 112.363 36.2344 
335.555 112.36 36.2972 336.219 112.256 36.3697 337.238 112.717 36.1743 
338.413 112.131 35.9995 290.375 122.185 37.0861 293.508 123.948 36.4309 
295.839 125.109 36.0575 297.567 126.404 36.0214 299.278 126.4 35.3866 
281.347 126.211 37.0329 279.674 128.72 37.6265 279.769 128.281 37.6332 
279.752 128.884 37.5776 279.804 129.132 37.6666 280.012 129.103 37.37 
281.121 133.907 37.0507 281.469 135.223 36.5224 281.612 135.427 36.6284 
290.22 134.832 36.8195 281.776 135.812 36.5559 281.863 136.005 36.4807 
286.637 136.23 36.6515 285.776 136.695 36.3269 288.957 136.649 36.1731 
282.224 136.342 36.3273 282.454 136.491 36.2513 282.442 136.435 36.3463 
287.284 137.131 35.9358 289.643 137.073 35.7792 282.682 136.54 36.258 
338.06 104.961 38.2648 338.23 105.108 38.2496 338.314 105.549 38.1049 
335.961 107.944 37.0863 336.659 106.957 37.4984 338.506 106.288 37.7425 
338.722 106.772 37.5885 336.016 107.989 37.1796 338.816 107.014 37.5486 
338.894 107.319 37.4198 335.064 109.557 36.5932 338.965 107.801 37.2895 
334.108 110.776 36.1273 339.069 108.723 37.073 336.331 110.252 36.9487 
338.049 109.85 37.0987 339.04 109.107 36.936 338.669 109.737 36.912 
285.71 120.373 37.6382 290.405 122.078 37.5112 291.693 123.12 37.2996 
280.559 122.634 38.3184 293.171 123.934 36.8538 294.04 124.583 36.782 
[...]
POINT_DATA 1227
SCALARS scalars float
LOOKUP_TABLE default
1 1 1 1 1 1 1 1 1 
1 1 1 1 1 1 1 1 1 
1 1 1 1 1 1 1 1 1 
1 1 1 1 1 1 1 1 1 
1 1 1 1 1 1 1 1 1 
1 1 1 1 1 1 1 1 1 
1 1 1 1 1 1 1 1 1 
1 1 1 1 1 1 1 1 1 
1 1 1 1 1 1 1 1 1 
1 1 1 1 1 1 1 1 1 
1 1 1 1 1 1 1 1 1 
1 1 1 1 1 1 1 1 1 
1 1 1 1 1 1 1 1 1 
1 1 1 1 1 1 1 1 1 
1 1 1 1 1 1 1 1 1 
1 1 1 1 1 1 1 1 1 
1 1 1 1 1 1 1 1 1 
1 1 1 1 1 1 1 1 1 
1 1 1 1 1 1 1 1 1 
1 1 1 1 1 1 1 1 1 
1 1 1 1 1 1 1 1 1 
1 1 1 1 1 1 1 1 1 
1 1 1 1 1 1 1 1 1 
1 1 1 1 1 1 1 1 1 
1 1 1 1 1 1 1 1 1 
1 1 1 1 1 1 1 1 1 
1 1 1 1 1 1 1 1 1 
1 1 1 1 1 1 1 1 1 
1 1 1 1 1 1 1 1 1 
1 1 1 1 1 1 1 1 1 
1 1 1 1 1 1 1 1 1 
1 1 1 1 1 1 1 1 1 
1 1 1 1 1 1 1 1 1 
1 1 1 1 1 1 1 1 1 
1 1 1 1 1 1 1 1 1 
1 1 1 1 1 1 1 1 1 
1 1 1 1 1 1 1 1 1 
1 1 1 1 1 1 1 1 1 
1 1 1 1 1 1 1 1 1 
1 1 1 1 1 1 1 1 1 
1 1 1 1 1 1 1 1 1 
1 1 1 1 1 1 1 1 1 
1 1 1 1 1 1 1 1 1 
1 1 1 1 1 1 1 1 1 
1 1 1 1 1 1 1 1 1 
1 1 1 1 1 1 1 1 1 
1 1 1 1 1 1 1 1 1 
1 1 1 1 1 1 1 1 1 
1 1 1 1 1 1 1 1 1 
1 1 1 1 1 1 1 1 1 
1 1 1 1 1 1 1 1 1 
1 1 1 1 1 1 1 1 1 
1 1 1 1 1 1 1 1 1 
1 1 1 1 1 1 1 1 1 
1 1 1 1 1 1 1 1 1 
1 1 1 1 1 1 1 1 1 
1 1 1 1 1 1 1 1 1 
1 1 1 1 1 1 1 1 1 
1 1 1 1 1 1 1 1 1 
1 1 1 1 1 1 1 1 1 
1 1 1 1 1 1 1 1 1 
1 1 1 1 1 1 1 1 1 
1 1 1 1 1 1 1 1 1 
1 1 1 1 1 1 1 1 1 
1 1 1 1 1 1 1 1 1 
1 1 1 1 1 1 1 1 1 
1 1 1 1 1 1 1 1 1 
1 1 1 1 1 1 1 1 1 
1 1 1 1 1 1 1 1 1 
1 1 1 1 1 1 1 1 1 
1 1 1 1 1 1 1 1 1 
1 1 1 1 1 1 1 1 1 
1 1 1 1 1 1 1 1 1 
1 1 1 1 1 1 1 1 1 
1 1 1 1 1 1 1 1 1 
1 1 1 1 1 1 1 1 1 
1 1 1 1 1 1 1 1 1 
1 1 1 1 1 1 1 1 1 
1 1 1 1 1 1 1 1 1 
1 1 1 1 1 1 1 1 1 
1 1 1 1 1 1 1 1 1 
1 1 1 1 1 1 1 1 1 
1 1 1 1 1 1 1 1 1 
1 1 1 1 1 1 1 1 1 
1 1 1 1 1 1 1 1 1 
1 1 1 1 1 1 1 1 1 
1 1 1 1 1 1 1 1 1 
1 1 1 1 1 1 1 1 1 
1 1 1 1 1 1 1 1 1 
1 1 1 1 1 1 1 1 1 
1 1 1 1 1 1 1 1 1 
1 1 1 1 1 1 1 1 1 
1 1 1 1 1 1 1 1 1 
1 1 1 1 1 1 1 1 1 
1 1 1 1 1 1 1 1 1 
1 1 1 1 1 1 1 1 1 
1 1 1 1 1 1 1 1 1 
1 1 1 1 1 1 1 1 1 
1 1 1 1 1 1 1 1 1 
1 1 1 1 1 1 1 1 1 
1 1 1 1 1 1 1 1 1 
1 1 1 1 1 1 1 1 1 
1 1 1 1 1 1 1 1 1 
1 1 1 1 1 1 1 1 1 
1 1 1 1 1 1 1 1 1 
1 1 1 1 1 1 1 1 1 
1 1 1 1 1 1 1 1 1 
1 1 1 1 1 1 1 1 1 
1 1 1 1 1 1 1 1 1 
1 1 1 1 1 1 1 1 1 
1 1 1 1 1 1 1 1 1 
1 1 1 1 1 1 1 1 1 
1 1 1 1 1 1 1 1 1 
1 1 1 1 1 1 1 1 1 
1 1 1 1 1 1 1 1 1 
1 1 1 1 1 1 1 1 1 
1 1 1 1 1 1 1 1 1 
1 1 1 1 1 1 1 1 1 
1 1 1 1 1 1 1 1 1 
1 1 1 1 1 1 1 1 1 
1 1 1 1 1 1 1 1 1 
1 1 1 1 1 1 1 1 1 
1 1 1 1 1 1 1 1 1 
1 1 1 1 1 1 1 1 1 
1 1 1 1 1 1 1 1 1 
1 1 1 1 1 1 1 1 1 
1 1 1 1 1 1 1 1 1 
1 1 1 1 1 1 1 1 1 
1 1 1 1 1 1 1 1 1 
1 1 1 1 1 1 1 1 1 
1 1 1 1 1 1 1 1 1 
1 1 1 1 1 1 1 1 1 
1 1 1 1 1 1 1 1 1 
1 1 1 1 1 1 1 1 1 
1 1 1 1 1 1 1 1 1 
1 1 1 1 1 1 1 1 1 
1 1 1 
NORMALS Normals float
0.279769 0.191286 -0.940818 0.446567 0.423451 -0.788205 0.369378 0.491734 -0.788516 
0.268993 0.317613 -0.909266 0.620098 0.620477 -0.48009 0.329169 0.450087 -0.830102 
0.555418 0.735946 -0.387162 0.274366 0.507463 -0.816826 0.479417 0.814261 -0.327319 
0.423788 0.867868 -0.259246 0.400119 0.912664 0.0833637 0.115236 0.779178 -0.616119 
0.202342 -0.0625933 -0.977313 0.227527 0.112356 -0.967268 0.389581 0.174775 -0.904257 
0.390849 0.134964 -0.910506 0.00856061 1.73461e-05 -0.999963 0.50639 0.334553 -0.79476 
-0.136094 0.00214739 -0.990694 0.625264 0.486942 -0.609862 0.56359 0.587519 -0.580678 
0.64696 0.729113 -0.223243 0.0173787 0.0710792 -0.997319 0.638348 0.497353 -0.587496 
0.736015 0.656871 -0.163714 0.700962 0.713084 0.0127792 0.482056 0.83955 -0.250556 
0.452304 0.803984 0.386046 0.125333 0.588499 -0.798724 0.370191 0.827835 0.421484 
-0.0289537 0.36115 -0.932058 0.0710517 0.415774 -0.906688 0.269166 0.95144 -0.149373 
0.169406 0.97878 0.115292 0.266165 0.939592 0.215229 -0.0122775 0.423016 -0.906039 
0.10582 0.464334 -0.879316 -0.0320431 0.731158 -0.681455 -0.00330308 0.501339 -0.865245 
0.197572 0.760508 -0.618541 0.164763 0.833448 -0.527464 0.214222 0.975318 0.0535081 
-0.0315796 0.506253 -0.861807 0.306515 0.719126 -0.623624 0.401971 0.910216 -0.0996273 
0.0790795 0.884297 -0.460179 0.106572 0.862127 -0.495359 0.254524 0.933921 -0.251017 
0.223541 0.85974 -0.459214 0.267603 -0.0227081 -0.963262 0.0661807 -0.194941 -0.97858 
0.274852 -0.226995 -0.934307 0.525176 0.0524884 -0.849373 0.312661 -0.0120441 -0.949788 
0.391376 0.0452055 -0.91912 -0.112533 -0.237347 -0.964885 0.288636 -0.0059369 -0.95742 
0.771028 0.295019 -0.564339 0.639524 0.234203 -0.732228 0.506427 0.205499 -0.837438 
0.418012 0.158941 -0.894429 0.566274 0.306598 -0.76507 0.662162 0.655167 -0.363728 
0.653068 0.684522 -0.323932 0.660707 0.744161 0.098442 -0.138473 -0.0986951 -0.985436 
0.46191 0.668405 0.582988 -0.140714 0.118343 -0.982952 0.329309 0.773861 0.541013 
-0.203927 0.313133 -0.927557 -0.0498336 0.356151 -0.933099 -0.0849295 0.399103 -0.912964 
-0.0782537 0.553163 -0.82939 0.31683 0.876596 0.362213 0.385241 0.907287 0.168583 
-0.0222629 0.674344 -0.738081 -0.124426 0.757629 -0.640715 0.0160675 0.862822 -0.505252 
0.00138535 0.958621 -0.284683 -0.015071 0.822412 -0.568692 0.136584 0.954765 -0.264137 
0.0875447 0.957051 -0.276387 0.197843 0.980189 0.00933575 -0.0297573 0.803304 -0.594826 
-0.266386 -0.466802 -0.843288 0.0443726 -0.452103 -0.890861 0.394989 -0.112842 -0.911729 
-0.257472 -0.495727 -0.829435 0.73509 0.115054 -0.668136 0.823205 0.286833 -0.48996 
0.848174 0.387682 -0.360975 0.873591 0.420997 -0.244133 0.818713 0.501042 0.280475 
0.87195 0.489393 -0.0140448 0.818362 0.549944 0.166867 0.966968 0.241436 0.0817375 
0.757754 0.29593 -0.581579 0.72899 0.660622 0.179307 0.706031 0.615846 -0.349649 
0.705099 0.708327 -0.0332799 0.525709 0.728938 -0.438497 0.685804 0.727645 -0.0143367 
0.623525 0.734639 0.267435 0.537637 0.754458 0.376483 0.208085 0.365818 0.907126 
-0.104504 0.0592353 -0.992759 -0.140676 0.0406343 -0.989221 0.313479 0.65228 0.690117 
0.307947 0.470918 0.826683 0.259727 0.651956 0.712386 -0.210994 0.246046 -0.946014 
-0.111244 0.441565 -0.890306 -0.0857407 0.384813 -0.919003 -0.0750732 0.427352 -0.900963 
-0.132382 0.483415 -0.865324 -0.0518902 0.658403 -0.750875 0.0844691 0.981727 -0.170519 
0.096621 0.982786 0.157469 -0.135977 0.694888 -0.706145 0.0480076 0.973693 -0.222749 
-0.042824 0.955496 -0.29188 0.0214578 0.998622 -0.047885 0.183229 0.906749 0.37978 
-0.493737 -0.696762 -0.520333 -0.345553 -0.575519 -0.741196 -0.518929 -0.821011 -0.238018 
-0.325969 -0.537031 -0.778038 -0.304942 -0.688729 -0.657771 -0.42909 -0.875111 -0.223744 
-0.495788 -0.776269 -0.38936 -0.0755542 -0.66511 -0.742913 -0.211813 -0.417301 -0.883739 
0.517169 -0.0938645 -0.850721 0.568453 -0.0322322 -0.822084 -0.486312 -0.833606 -0.261919 
-0.391681 -0.696747 -0.60094 -0.302405 -0.616665 -0.726825 0.356717 -0.190382 -0.914608 
0.836667 0.127931 -0.532562 -0.40652 -0.835167 -0.370456 -0.365427 -0.778507 -0.510284 
-0.423103 -0.869973 -0.25324 -0.466643 -0.815257 -0.34293 -0.48243 -0.770656 -0.416353 
-0.446639 -0.8563 0.259352 0.734129 0.140619 -0.66429 0.841727 0.23082 -0.488075 
-0.452375 -0.732505 -0.508718 -0.47725 -0.85221 0.214407 -0.329728 -0.649603 -0.685052 
-0.284715 -0.708871 -0.645321 -0.411413 -0.874486 -0.256932 0.922733 0.34369 -0.174475 
0.0022509 -0.676445 -0.73649 -0.143681 -0.888944 -0.434896 -0.234036 -0.946988 -0.220095 
0.0587407 0.290891 0.954951 0.258012 0.470887 0.84362 -0.120305 -0.485508 -0.865915 
0.0822077 0.232357 0.96915 0.185634 0.527358 0.829116 0.499965 0.631658 0.592489 
0.395834 0.541779 0.741479 0.313236 0.609308 0.728441 0.489301 0.649028 0.582535 
-0.0594331 0.161172 -0.985135 0.246901 0.470385 0.847218 0.222523 0.595858 0.771645 
-0.148734 0.565794 -0.811021 -0.177965 0.200111 -0.963475 0.146699 0.775084 0.614593 
0.22389 0.590691 0.775214 -0.176063 0.54737 -0.818161 -0.116907 0.677408 -0.726258 
0.130651 0.869496 0.476347 -0.0727554 0.925225 -0.372377 -0.0265405 0.915158 -0.402222 
0.131358 0.855267 0.501262 -0.594494 -0.734016 -0.328324 -0.526639 -0.756251 -0.388248 
-0.285229 -0.592989 -0.753 0.00893527 -0.35998 -0.932917 -0.622184 -0.776771 0.0975429 
-0.457333 -0.887423 -0.0576848 -0.501688 -0.788107 0.356647 -0.457901 -0.807774 -0.371252 
-0.444691 -0.885996 0.13138 -0.433857 -0.775142 0.459264 0.884061 -0.0339485 -0.466137 
-0.399254 -0.916597 0.0211219 -0.355829 -0.612592 0.705774 -0.500693 -0.86544 -0.0179015 
-0.484272 -0.512148 0.709355 -0.509953 -0.81442 0.27689 -0.417865 -0.855048 0.307054 
-0.494435 -0.810996 0.312761 0.900261 0.432374 0.0508338 -0.453672 -0.751906 0.478351 
-0.122071 -0.013417 0.992431 -0.0398089 0.502607 0.863598 -0.292025 -0.753822 0.58862 
-0.398583 -0.743053 0.537591 0.331198 0.39696 0.855997 -0.345107 -0.931527 -0.114712 
0.709241 0.495953 0.501008 0.0816076 -0.99291 0.0864291 -0.0542841 -0.774425 -0.630333 
-0.0449283 -0.989103 0.140205 -0.111856 -0.706654 0.698662 0.496612 0.547266 0.673703 
-0.0364266 -0.996217 0.0789014 0.00693675 -0.19331 0.981113 -0.15258 -0.342048 -0.927212 
0.228528 0.188017 0.955209 0.269746 0.195825 0.94281 -0.0324087 -0.0513706 -0.998154 
-0.278145 0.156615 -0.947685 0.249018 0.496095 0.831793 -0.245971 0.737281 -0.629218 
0.168011 0.899121 0.40417 0.167686 0.817953 0.550303 0.0504074 0.97364 0.222451 
0.0208655 0.978005 0.207533 0.0894652 0.995221 -0.0391285 0.185439 0.951823 0.244225 
0.0358394 0.998686 0.0366421 -0.528065 -0.618346 -0.582062 -0.403996 -0.730624 -0.550433 
-0.547983 -0.733438 -0.402223 -0.183016 -0.378973 -0.90713 0.148242 -0.421042 -0.894845 
-0.603807 -0.760408 -0.23916 0.140907 -0.192568 -0.971114 0.579904 -0.276437 -0.766351 
0.943253 0.0605201 -0.326513 -0.680235 -0.726334 0.0985918 -0.714925 -0.657956 0.236593 
0.452584 -0.0977243 -0.886351 -0.676323 -0.643532 0.358405 -0.488617 -0.39282 0.779067 
-0.273813 -0.488535 0.828469 -0.514731 -0.753711 0.408621 -0.288002 -0.256434 0.922657 
-0.164747 -0.0230519 0.986066 -0.179313 0.196881 0.96389 -0.39074 -0.23698 0.889473 
-0.168098 -0.184435 0.968363 -0.18858 0.00773737 0.982027 -0.333959 -0.455887 0.825008 
-0.146844 -0.341564 0.928316 -0.166324 0.341764 0.924951 0.850493 0.390423 0.352464 
-0.224997 -0.498452 0.837211 -0.0648442 -0.130553 0.989319 -0.040868 0.112017 0.992866 
0.606497 0.446187 0.658087 0.0869359 -0.839148 -0.53691 -0.0892807 -0.356786 0.92991 
0.0734027 -0.703251 0.707142 -0.0633407 -0.0646518 0.995896 0.0617887 -0.738542 0.67137 
0.152978 -0.587595 0.794563 0.161528 -0.190177 0.968371 0.284128 -0.0645305 0.956612 
0.224051 0.131355 0.965685 0.276482 0.35991 0.891079 -0.214533 0.110977 -0.970392 
0.225771 0.520239 0.823638 0.240408 0.491734 0.8369 -0.321888 0.521049 -0.790504 
0.108649 0.759088 0.641858 -0.338574 0.62888 -0.699913 -0.313487 0.860686 -0.401181 
0.164884 0.847149 0.505125 0.0601808 0.902165 0.427174 -0.072192 0.972766 -0.220259 
-0.30046 -0.61631 -0.727933 -0.619851 -0.783467 -0.0443199 -0.70554 -0.697475 -0.125465 
0.569815 -0.257984 -0.780228 -0.695097 -0.659263 0.286726 -0.597277 -0.355283 0.71905 
0 -0.146205 -0.989254 0 -0.995053 -0.0993498 -0.672545 -0.733586 -0.0976431 
0.672545 -0.733586 -0.0976431 -0.437256 -0.20855 0.874822 0 0.447214 -0.894427 
0.864399 0.332769 0.376933 0.227948 0.491281 0.840644 -0.0174977 -0.400751 -0.91602 
-0.146397 -0.300587 -0.942452 0.175621 -0.317676 0.931793 0.146558 -0.221363 0.964116 
-0.136951 -0.243327 -0.960227 0.188156 -0.0817655 0.97873 -0.436613 -0.0325532 -0.89906 
-0.569958 0.111783 -0.814035 -0.52284 0.276178 -0.806452 -0.468096 0.300083 -0.831166 
-0.415267 0.435196 -0.798848 -0.351212 0.838554 -0.416506 -0.257147 0.956255 -0.139467 
0.000729396 0.889556 0.456827 -0.130911 0.990417 0.0440091 -0.00434591 0.773402 0.633901 
-0.657307 -0.67079 -0.343495 -0.261446 -0.581639 -0.770287 -0.722867 -0.674088 -0.151883 
0.00301872 -0.50585 -0.862616 0.141459 -0.436529 -0.8885 0.661037 -0.358267 -0.659298 
-0.788213 -0.59325 0.163634 0.464739 -0.340637 -0.817303 0.913764 -0.144213 -0.379786 
-0.666167 -0.730123 0.152123 -0.587383 -0.425269 0.688569 -0.644174 -0.383082 0.662033 
0 -0.310325 0.95063 0.170163 0.425759 0.888692 0.294387 0.42715 0.854915 
0.489657 0.421334 0.763357 0.265042 -0.739536 -0.61874 -0.138009 -0.521415 -0.842069 
0.411265 -0.817732 0.402711 0.33404 -0.474296 0.814531 0.275784 -0.477039 0.834492 
0.199326 -0.428098 0.881477 0.314918 -0.0127971 0.949033 0.322399 0.0486951 0.94535 
-0.898148 0.146308 -0.414637 0.0789991 0.259605 0.962478 -0.91925 0.353787 -0.17267 
-0.76927 0.22966 -0.596221 -0.837517 0.39206 -0.380598 -0.845157 0.52892 0.0771548 
-0.631969 0.767746 0.10574 -0.662081 0.558663 -0.499544 -0.466248 0.668524 -0.579387 
-0.298211 0.898741 -0.321459 -0.306885 0.751277 -0.584299 -0.119927 0.901677 0.415446 
-0.0210553 0.635629 0.771708 -0.168106 -0.573394 -0.801848 -0.601603 -0.638593 -0.479868 
0.555705 -0.4531 -0.69706 0.315776 -0.471763 -0.823241 0.639037 -0.406603 -0.65292 
0.764067 -0.332074 -0.553108 -0.724307 -0.295137 0.623116 0.921736 0.233819 0.309404 
-0.45952 -0.236312 0.856153 -0.265799 0.0959689 0.95924 -0.159508 0.295557 0.941915 
-0.0823728 0.347444 0.934076 -0.0318897 0.232842 0.971992 0.132901 0.366759 0.920774 
0.471269 0.29867 0.829881 0.516279 -0.723043 -0.458983 0.528326 -0.607993 0.592635 
0.317698 -0.318857 0.892972 0.297978 -0.325161 0.897485 0.387786 -0.280027 0.878184 
-0.472608 -0.26436 -0.840688 -0.805484 0.0401302 -0.591258 -0.663792 -0.120101 -0.738212 
-0.823066 0.281727 -0.493145 -0.900105 0.30646 -0.309665 -0.550482 -0.0140501 -0.834729 
-0.921698 0.260302 0.287603 -0.935303 0.261896 -0.237946 -0.895123 0.426582 0.129552 
0.13058 0.317348 0.939276 -0.565801 0.498041 0.657134 -0.461958 0.610388 0.643445 
0.0499151 0.576839 0.815331 -0.0319087 0.56395 0.825192 0.125554 0.54733 0.827446 
-0.50914 0.827138 0.237948 -0.389559 0.916875 0.0870849 -0.213476 0.736865 0.64145 
0.0563085 0.655084 0.753455 0.166946 0.532151 0.830026 -0.100069 0.842081 0.529986 
0.419501 -0.531537 -0.735858 0.782094 -0.434893 -0.446315 0.969559 -0.182708 0.163014 
-0.863337 -0.30263 0.403813 -0.869584 -0.405073 0.282381 0.820898 -0.434003 -0.37117 
0.758303 -0.465239 -0.456651 -0.796664 -0.098515 0.596339 0.945861 -0.311993 -0.0894858 
0.930502 -0.0744664 0.358638 -0.363365 0.0742393 0.928684 0.989809 -0.123171 0.0714654 
-0.580504 -0.18746 0.792385 0.732991 0.188702 0.65354 -0.0897393 0.396377 0.913691 
0.235943 0.508102 0.82835 0.735616 0.324322 0.594714 0.451141 0.493359 0.743686 
0.0192284 -0.464754 -0.885231 0.715315 -0.688835 0.117607 0.586993 -0.59964 0.54394 
-0.453353 -0.189292 -0.870999 0.574943 -0.602735 0.553309 0.488346 -0.494213 0.719216 
0.420871 -0.628784 0.653834 -0.805907 -0.110538 -0.581631 -0.93921 0.277169 -0.202639 
-0.930221 0.156763 -0.331835 0.216136 0.0801742 0.973066 -0.952645 0.263646 -0.151522 
-0.652196 0.353772 0.670437 0.163401 0.274702 0.947544 -0.933195 0.286236 0.217294 
-0.811166 0.478011 0.336919 -0.140387 0.525214 0.83931 -0.659562 0.346028 0.667265 
-0.139696 0.56068 0.816164 -0.390497 -0.520086 -0.75962 0.0515477 -0.566916 -0.822161 
0.482133 -0.62269 -0.616283 -0.257349 -0.519401 -0.814858 -0.67568 -0.467686 -0.569848 
0.8065 -0.535246 -0.251138 0.0246404 -0.298942 -0.953953 -0.81114 -0.425805 -0.400926 
-0.862482 -0.447007 -0.237295 0.94768 -0.30247 0.102054 0.965647 -0.251373 0.0658658 
-0.859184 -0.122307 0.496834 0.913855 -0.122614 0.387084 0.896475 -0.443094 0.000768336 
0.777083 0.118044 0.618229 -0.693143 -0.076281 0.716752 0.758074 0.0232332 0.651755 
0.909293 -0.152454 0.387226 0.629991 0.109587 0.768831 -0.483764 0.212175 0.84909 
0.494993 -0.641539 -0.586012 0.789299 -0.592622 0.160647 -0.415201 -0.298984 -0.859195 
-0.653806 -0.140166 -0.743567 0.537108 -0.390141 0.747867 0.319265 0.0355653 0.946998 
-0.871313 0.0305734 -0.489775 -0.97962 0.161967 -0.118787 -0.00546903 0.269242 0.963057 
-0.38098 0.344291 0.85809 -0.49511 0.42631 0.75705 -0.709781 -0.553469 -0.435756 
0.455714 -0.880443 -0.130939 -0.473159 -0.614071 0.631694 -0.9706 -0.199892 0.134089 
0.258371 -0.0420556 0.96513 0.713298 -0.136711 0.687398 0.473504 0.123104 0.872146 
0.585407 0.173943 0.79186 -0.753318 0.0454113 0.656087 0.495014 0.182962 0.849404 
0.254677 0.215952 0.942605 -0.145853 0.327323 0.933588 -0.157669 0.253343 0.954441 
0.161633 0.368851 0.915327 0.540027 -0.589845 -0.600378 -0.024327 -0.45647 -0.889406 
0.511322 -0.566623 -0.646134 0.582403 -0.191356 0.790057 -0.919323 -0.0140768 -0.393252 
-0.945891 0.0583076 -0.319203 -0.886544 -0.0151256 -0.462397 -0.940235 0.2903 0.178002 
-0.953123 0.302246 0.0142791 -0.923982 0.319658 0.209941 -0.748919 0.40515 0.524379 
-0.532689 0.341809 0.774215 -0.252259 0.348314 0.902797 -0.349941 0.383472 0.854687 
-0.784 -0.207848 0.58493 -0.473966 -0.048444 0.87921 -0.947833 -0.255056 0.191202 
-0.0928808 0.207954 0.973719 -0.351584 0.289961 0.890119 -0.711904 0.111205 0.693416 
-0.44614 0.219331 0.867671 -0.240581 0.127965 0.962157 0.259988 0.0742507 0.962753 
0.488725 -0.539836 -0.685365 0.0890925 -0.659037 -0.746815 0.824454 -0.561378 -0.071628 
0.236018 -0.542617 -0.80614 0.883934 -0.453663 0.113359 -0.168464 -0.481796 -0.859937 
-0.39189 -0.366322 -0.843937 0.782243 -0.200427 0.589851 -0.714182 -0.155688 -0.682426 
-0.903218 -0.0477229 -0.426521 -0.993534 0.111707 0.0202986 -0.960389 0.215008 0.177267 
-0.830052 0.341327 0.441033 -0.720792 0.342186 0.602799 -0.457594 0.351441 0.81676 
-0.227119 0.277913 0.933371 -0.702103 0.110109 0.70351 0.133767 0.219148 0.966478 
-0.1357 -0.83264 -0.536932 0.111013 -0.925399 -0.36237 0.479174 -0.863095 -0.159556 
-0.165607 -0.668474 -0.725063 0.914371 -0.377335 0.146775 -0.983049 0.0656831 -0.171174 
-0.942526 0.225048 0.246977 0.0332868 0.414777 0.909314 -0.75397 0.336382 0.564249 
-0.194348 0.494615 0.847104 -0.4052 0.493183 0.769795 -0.184393 -0.972546 -0.141965 
-0.301513 -0.946443 0.115476 -0.099955 -0.848707 -0.519331 0.159493 -0.847652 0.506011 
0.0214168 -0.987012 0.159211 0.180181 -0.983138 -0.031225 0.585114 -0.772492 0.246774 
-0.0653201 -0.989092 0.132023 0.843966 -0.421683 0.331518 -0.299162 -0.82112 -0.486071 
-0.2305 -0.972309 0.0385219 0.906219 -0.232027 0.353454 0.659387 -0.138686 0.738901 
-0.375726 -0.627608 -0.681864 0.688848 -0.00101713 0.724905 -0.629613 -0.424775 -0.650502 
-0.799411 -0.161516 -0.578666 -0.593299 -0.241747 -0.767825 0.523153 0.0452096 0.851039 
-0.8595 0.0137277 -0.510952 0.391527 0.111903 0.913337 -0.956724 0.265425 -0.119284 
-0.926529 0.375696 0.0199079 -0.925532 0.186154 0.329752 -0.576052 0.236969 0.78231 
0.219038 0.282817 0.933829 -0.183799 0.0735249 0.98021 -0.982624 0.144081 0.117003 
-0.84422 0.33884 0.415307 -0.0207578 -0.74262 0.669391 0.481047 -0.84574 0.230905 
-0.0806089 -0.830884 0.550577 0.0474239 -0.687257 0.724865 0.0758433 -0.67487 0.734029 
0.081975 -0.835498 0.543344 0.149743 -0.930777 0.333514 0.481331 -0.828451 -0.286339 
0.650688 -0.595981 -0.470544 0.402694 -0.86107 -0.310476 -0.345491 -0.912932 -0.217236 
-0.238874 -0.930174 0.278776 0.0992049 -0.466416 0.878985 0.368444 -0.0526109 0.92816 
-0.491801 -0.636282 -0.594371 -0.712699 -0.669689 -0.208751 -0.528765 -0.793865 -0.30031 
-0.382476 -0.879535 -0.283075 0.24814 -0.143635 0.958017 -0.960061 -0.145765 -0.238819 
-0.994134 0.106398 0.0194159 0.173539 0.110785 0.978576 -0.940834 0.298305 0.160766 
-0.823976 0.341784 0.451938 -0.943881 0.329702 0.0196103 -0.85813 0.383555 0.341317 
-0.898938 0.409966 0.154394 -0.637455 0.398989 0.659135 -0.222997 0.130251 -0.966078 
0.489909 -0.0970097 -0.866359 -0.187565 0.362425 0.912944 -0.0832215 0.438808 0.894719 
0.0380168 0.309592 0.950109 -0.8574 0.267068 0.439933 -0.049954 0.382846 0.92246 
-0.515247 0.462447 0.72157 -0.300235 0.365611 0.881015 0.191228 -0.854917 0.482233 
0.0292669 -0.520584 0.853309 -0.890814 -0.395366 -0.223911 -0.835618 -0.527493 0.153277 
-0.353131 -0.934695 0.040538 -0.193246 -0.922581 0.333917 -0.946119 -0.122198 0.299879 