# vtk DataFile Version 4.2
vtk output
ASCII
DATASET POLYDATA
POINTS 1151 float
332.485 127.866 42.1072 330.591 129.326 41.5477 332.237 128.423 42.1652 
331.507 129.149 41.9697 330.053 130.289 41.6515 326.323 132.311 41.3319 
327.998 131.85 41.5108 325.412 133.265 41.5909 327.429 132.21 41.4573 
323.017 133.976 41.5548 323.524 133.923 41.5848 323.194 134.226 41.7046 
332.098 125.607 41.856 333.077 125.834 42.071 327.47 127.523 41.3036 
330.312 127.752 41.3814 334.031 126.315 42.6145 332.701 127.987 42.3704 
331.885 128.953 42.2357 330.548 130.057 41.8182 330.918 129.859 41.9973 
328.894 131.453 41.824 326.428 132.883 41.7194 327.469 132.283 41.5941 
327.953 132.037 41.7591 327.789 132.092 41.5718 319.369 134.201 41.8788 
326.134 133.119 41.9094 321.774 134.38 41.8929 325.119 133.673 41.8831 
318.398 135.392 42.3769 319.273 135.3 42.3714 322.676 134.5 42.061 
322.997 134.348 41.8075 319.046 135.717 42.6647 335.056 123.482 43.0699 
335.246 123.78 43.2012 335.539 123.507 43.4709 335.239 124.311 43.3159 
334.574 125.82 42.9947 334.859 125.433 43.1927 333.835 126.675 42.6309 
330.179 130.619 42.2527 328.949 131.485 42.008 328.681 131.661 42.1503 
329.166 131.324 42.2508 318.69 133.245 41.7868 324.325 134.177 42.5062 
325.529 133.516 42.052 315.886 135.085 42.445 319.673 135.857 43.1358 
311.849 136.907 43.6175 312.538 137.268 43.9009 334.925 121.002 43.4284 
336.082 120.794 44.0732 328.278 123.466 42.3985 329.045 123.217 42.4096 
330.662 122.766 42.465 335.997 122.323 43.946 334.966 125.356 43.444 
333.375 127.476 43.1051 315.647 131.115 42.5132 331.173 129.705 42.8314 
326.609 132.883 42.4153 326.325 132.942 42.7166 311.359 135.42 43.2004 
316.917 136.662 43.5194 318.9 136.07 43.2207 319.82 135.906 43.2954 
319.663 135.917 43.4218 319.88 135.895 43.3638 310.759 137.555 44.256 
330.004 119.082 44.092 327.173 120.413 44.0893 334.473 119.073 43.89 
335.9 118.653 44.3735 336.788 118.588 44.9076 325.995 121.735 43.6571 
327.325 121.344 43.4831 336.484 121.424 44.6861 336.003 122.856 44.1628 
336.279 122.222 44.6277 333.029 127.81 43.398 331.153 129.608 43.0242 
329.585 130.772 42.8554 329.17 130.775 43.2216 326.788 132.582 42.8481 
305.021 136.021 44.5856 318.749 135.964 44.0042 303.807 137.954 45.4618 
310.896 137.738 44.4634 311.21 137.775 44.6065 311.854 137.678 44.6882 
304.525 138.418 45.7965 310.641 137.901 44.7526 334.705 115.145 45.4757 
330.533 116.743 45.5815 331.369 116.417 45.4532 332.977 116.193 45.1172 
334.382 115.826 45.1509 336.454 114.663 45.7677 337.515 115.167 45.9766 
337.351 114.65 46.0449 330.323 117.349 45.1601 338.026 115.225 46.4075 
337.282 118.316 45.6073 323.597 121.655 44.9978 336.919 119.942 45.3249 
335.684 123.612 44.5582 312.75 126.848 45.9031 332.51 126.698 44.6704 
333.258 126.95 44.0463 334.299 125.673 44.3492 327.72 130.461 44.2654 
331.394 128.897 43.6042 325.317 131.754 44.4455 328.884 130.5 43.6639 
322.402 133.49 44.6358 304.849 134.474 44.5312 302.728 137.537 45.4184 
298.9 138.989 46.6799 298.749 139.07 46.8238 299.065 138.851 46.5625 
309.669 138.135 45.2786 299.17 139.036 46.7451 333.081 113.816 47.0418 
336.625 112.439 46.9085 338.266 112.694 47.1893 330.332 116.239 46.3751 
338.412 114.413 46.8653 327.086 118.628 46.1539 326.243 119.186 45.8482 
326.328 119.068 46.0297 326.621 118.889 46.2011 326.22 119.137 46.1812 
337.459 118.208 46.0453 337.614 117.673 46.4963 323.088 121.688 45.8014 
316.294 125.23 45.9012 336.367 121.774 45.3056 313.805 126.371 45.9048 
314.206 126.14 46.373 331.61 125.848 45.4549 306.242 128.678 46.0411 
324.424 129.316 45.8102 319.389 134.272 45.3671 299.906 135.468 45.5299 
318.802 135.404 44.7255 293.818 136.98 46.74 291.55 138.205 47.4413 
294.322 138.245 47.0395 293.845 138.656 47.3294 299.08 138.387 46.3016 
308.362 138.347 46.2289 293.303 139.094 47.7377 294.987 139.129 47.4806 
295.389 139.305 47.6224 299.554 138.823 46.5131 301.573 138.906 46.519 
308.607 138.319 45.8571 298.887 139.219 47.1442 300.615 139.181 47.0694 
337.447 111.169 47.7693 338.082 111.394 47.884 335.282 112.346 47.17 
338.256 111.771 47.7822 333.023 113.745 47.3772 332.112 114.66 47.0101 
338.578 113.037 47.2821 338.648 113.565 47.3491 338.603 113.976 47.2699 
338.633 113.755 47.4727 325.048 120.135 46.475 337.173 119.044 46.2767 
337.4 118.302 46.5973 321.886 122.595 45.9937 322.481 122.361 46.2528 
336.785 119.531 46.5037 319.489 123.934 46.1034 323.071 124.621 46.8764 
321.653 126.18 46.9346 310.421 127.15 47.115 312.079 126.894 46.8862 
314.07 126.285 46.6471 307.84 127.357 47.4939 295.136 134.638 46.4131 
290.242 136.548 47.2667 285.598 137.446 48.7019 287.516 138.006 48.2244 
286.667 138.419 48.7329 304.743 138.941 47.0953 287.83 138.977 48.7617 
289.314 139.034 48.4836 302.191 139.1 47.4408 303.499 138.973 47.2519 
288.452 138.972 48.4894 299.74 139.305 47.457 336.961 109.789 48.697 
336.744 109.861 48.6906 337.049 109.487 48.9498 336.527 110.114 48.5672 
336.219 110.429 48.4577 337.729 110.514 48.4101 337.817 110.403 48.6414 
338.045 110.924 48.4392 338.128 111.127 48.1912 338.216 111.28 48.1827 
338.308 111.579 48.0249 332.749 114.027 47.5505 333.251 113.585 47.7294 
338.664 112.933 47.7389 338.616 112.695 47.9191 331.625 115.102 47.3295 
332.36 114.534 47.6379 329.446 117.151 47.0801 326.92 119.153 46.9086 
337.569 116.944 47.3826 324.819 120.361 46.5353 337.246 117.352 47.5129 
328.588 120.68 47.3587 332.038 120.111 47.5361 336.945 118.674 46.9649 
337.288 118.174 46.9487 323.625 121.592 46.513 299.355 126.642 48.6371 
298.885 126.183 49.1667 314.875 126.1 46.7773 298.095 127.097 48.2334 
302.662 126.83 48.664 311.494 127.074 47.3154 311.817 127.259 47.6774 
295.74 129.687 47.2429 287.472 133.957 47.8961 284.344 135.494 49.0535 
283.703 137.245 50.0286 284.206 137.577 49.6774 307.781 138.049 47.4522 
284.286 137.932 49.8183 284.116 138.007 50.0782 306.899 138.383 47.465 
307.371 138.184 47.7148 284.538 138.233 49.9341 285.699 138.812 49.6999 
286.802 139.037 49.2769 289.327 139.379 48.9342 298.531 139.474 48.3145 
298.963 139.38 48.7505 300.185 139.336 47.8512 301.063 139.17 48.3829 
304.859 138.678 47.874 337.055 109.223 49.1675 337.008 109.313 49.1009 
337.118 109.239 49.1814 336.86 109.487 49.0549 336.611 109.823 48.8502 
337.358 109.557 49.0879 335.684 110.892 48.6767 335.374 111.263 48.7122 
334.28 112.619 48.2983 338.544 112.365 48.0075 332.343 114.823 48.0132 
332.977 114.384 48.1818 338.32 113.847 48.0456 337.823 115.336 47.9513 
327.702 118.785 47.1517 329.384 118.547 47.549 335.924 117.506 47.9889 
324.811 121.39 46.8916 318.715 124.719 46.656 300.555 126.22 49.4524 
302.449 126.545 49.5129 317.527 125.849 47.0661 304.585 126.941 48.9111 
313.893 126.944 47.4257 314.597 127.23 47.6053 308.659 127.47 48.4519 
315.197 127.819 47.7734 283.771 132.276 49.5385 282.64 133.129 50.48 
282.7 134.308 50.3595 283.039 135.642 50.3076 283.424 137.191 50.3577 
283.603 137.639 50.3905 306.041 138.107 48.2966 286.86 139.289 49.6971 
289.004 139.531 49.3559 298.908 139.229 49.3273 301.545 138.985 48.6797 
303.281 138.754 48.3268 287.397 139.506 49.5972 293.093 139.81 49.3224 
293.916 139.8 49.2987 337.065 109.204 49.216 336.99 109.277 49.1855 
337.107 109.223 49.2337 336.901 109.406 49.254 336.63 109.723 49.1261 
337.184 109.345 49.2348 336.379 110.021 49.1021 337.728 110.151 49.0254 
335.237 111.511 48.7643 335.033 111.932 48.7611 334.649 112.345 48.6036 
337.963 111.389 48.9717 332.546 114.685 48.2204 332.526 114.697 48.2776 
332.48 114.738 48.2636 332.639 114.687 48.2749 338.195 113.281 48.3931 
332.049 115.413 48.0323 332.411 114.888 48.2069 332.814 114.869 48.3072 
334.604 113.72 48.7887 335.033 113.79 48.8996 335.691 114.148 48.9477 
337.509 114.142 48.6824 337.863 114.55 48.2966 337.644 114.459 48.5168 
336.434 116.036 48.3957 327.926 118.876 47.295 325.758 120.079 46.9401 
290.381 123.048 50.5319 291.372 122.464 50.9773 293.297 122.789 51.2642 
292.367 124.236 49.9718 299.368 125.771 50.1297 300.353 126.036 50.0482 
303.502 126.846 49.7524 305.083 127.097 49.362 287.478 127.013 49.4162 
282.471 130.323 50.9263 307.535 132.385 50.1919 282.354 132.923 50.9184 
282.407 133.375 50.7905 282.378 133.7 50.9075 282.658 134.577 50.4797 
282.617 134.816 50.7515 282.682 135.491 50.6995 305.525 135.793 49.99 
283.119 136.708 50.9118 303.914 138.155 49.0133 286.439 139.339 50.4037 
289.703 139.688 49.7639 290.285 139.754 50.1452 292.07 139.779 50.1488 
337.053 109.264 49.2568 336.938 109.426 49.3787 337.064 109.355 49.3455 
337.192 109.422 49.3458 337.129 109.416 49.4026 337.717 110.21 49.1573 
337.754 110.418 49.19 337.866 110.796 49.1244 336.102 111.831 49.212 
337.904 111.021 49.1547 337.909 111.116 49.1498 337.876 111.013 49.202 
336.871 111.547 49.3464 337.408 112.123 49.1287 338.087 112.159 48.7376 
336.662 112.891 49.1274 337.651 112.771 48.9012 332.56 114.841 48.2788 
292.072 121.022 52.2549 294.398 123.135 51.4741 294.474 122.915 51.8906 
299.95 125.952 51.124 304.638 127.407 50.1566 282.36 133.878 51.2833 
286.487 139.453 50.7376 286.263 139.395 50.7605 286.359 139.452 50.8336 
285.846 139.184 50.9059 286.959 139.471 50.7907 288.851 139.669 50.323 
300.811 138.523 49.7643 291.074 139.659 50.7499 293.292 139.683 50.2309 
336.506 106.004 52.0175 336.506 106.004 52.0175 336.506 106.004 52.0175 
336.507 106.004 52.0174 336.507 106.004 52.0174 336.507 106.004 52.0174 
336.902 109.515 49.4337 336.506 106.004 52.0175 336.507 106.004 52.0175 
336.951 109.589 49.4895 337.085 109.626 49.4923 337.08 109.809 49.5115 
337.405 110.142 49.3971 337.37 110.535 49.3978 337.801 110.875 49.23 
290.845 119.018 53.2991 292.388 120.595 52.9598 285.56 121.403 51.733 
293.001 121.088 53.0711 282.834 122.244 52.5959 293.501 121.897 52.4931 
295.429 123.445 52.2068 295.925 123.764 52.4535 282.173 124.399 52.7343 
298.331 125.234 51.566 302.128 126.974 51.0876 301.798 127.075 51.4136 
[...]
POINT_DATA 1151
SCALARS scalars float
LOOKUP_TABLE default
1 1 1 1 1 1 1 1 1 
1 1 1 1 1 1 1 1 1 
1 1 1 1 1 1 1 1 1 
1 1 1 1 1 1 1 1 1 
1 1 1 1 1 1 1 1 1 
1 1 1 1 1 1 1 1 1 
1 1 1 1 1 1 1 1 1 
1 1 1 1 1 1 1 1 1 
1 1 1 1 1 1 1 1 1 
1 1 1 1 1 1 1 1 1 
1 1 1 1 1 1 1 1 1 
1 1 1 1 1 1 1 1 1 
1 1 1 1 1 1 1 1 1 
1 1 1 1 1 1 1 1 1 
1 1 1 1 1 1 1 1 1 
1 1 1 1 1 1 1 1 1 
1 1 1 1 1 1 1 1 1 
1 1 1 1 1 1 1 1 1 
1 1 1 1 1 1 1 1 1 
1 1 1 1 1 1 1 1 1 
1 1 1 1 1 1 1 1 1 
1 1 1 1 1 1 1 1 1 
1 1 1 1 1 1 1 1 1 
1 1 1 1 1 1 1 1 1 
1 1 1 1 1 1 1 1 1 
1 1 1 1 1 1 1 1 1 
1 1 1 1 1 1 1 1 1 
1 1 1 1 1 1 1 1 1 
1 1 1 1 1 1 1 1 1 
1 1 1 1 1 1 1 1 1 
1 1 1 1 1 1 1 1 1 
1 1 1 1 1 1 1 1 1 
1 1 1 1 1 1 1 1 1 
1 1 1 1 1 1 1 1 1 
1 1 1 1 1 1 1 1 1 
1 1 1 1 1 1 1 1 1 
1 1 1 1 1 1 1 1 1 
1 1 1 1 1 1 1 1 1 
1 1 1 1 1 1 1 1 1 
1 1 1 1 1 1 1 1 1 
1 1 1 1 1 1 1 1 1 
1 1 1 1 1 1 1 1 1 
1 1 1 1 1 1 1 1 1 
1 1 1 1 1 1 1 1 1 
1 1 1 1 1 1 1 1 1 
1 1 1 1 1 1 1 1 1 
1 1 1 1 1 1 1 1 1 
1 1 1 1 1 1 1 1 1 
1 1 1 1 1 1 1 1 1 
1 1 1 1 1 1 1 1 1 
1 1 1 1 1 1 1 1 1 
1 1 1 1 1 1 1 1 1 
1 1 1 1 1 1 1 1 1 
1 1 1 1 1 1 1 1 1 
1 1 1 1 1 1 1 1 1 
1 1 1 1 1 1 1 1 1 
1 1 1 1 1 1 1 1 1 
1 1 1 1 1 1 1 1 1 
1 1 1 1 1 1 1 1 1 
1 1 1 1 1 1 1 1 1 
1 1 1 1 1 1 1 1 1 
1 1 1 1 1 1 1 1 1 
1 1 1 1 1 1 1 1 1 
1 1 1 1 1 1 1 1 1 
1 1 1 1 1 1 1 1 1 
1 1 1 1 1 1 1 1 1 
1 1 1 1 1 1 1 1 1 
1 1 1 1 1 1 1 1 1 
1 1 1 1 1 1 1 1 1 
1 1 1 1 1 1 1 1 1 
1 1 1 1 1 1 1 1 1 
1 1 1 1 1 1 1 1 1 
1 1 1 1 1 1 1 1 1 
1 1 1 1 1 1 1 1 1 
1 1 1 1 1 1 1 1 1 
1 1 1 1 1 1 1 1 1 
1 1 1 1 1 1 1 1 1 
1 1 1 1 1 1 1 1 1 
1 1 1 1 1 1 1 1 1 
1 1 1 1 1 1 1 1 1 
1 1 1 1 1 1 1 1 1 
1 1 1 1 1 1 1 1 1 
1 1 1 1 1 1 1 1 1 
1 1 1 1 1 1 1 1 1 
1 1 1 1 1 1 1 1 1 
1 1 1 1 1 1 1 1 1 
1 1 1 1 1 1 1 1 1 
1 1 1 1 1 1 1 1 1 
1 1 1 1 1 1 1 1 1 
1 1 1 1 1 1 1 1 1 
1 1 1 1 1 1 1 1 1 
1 1 1 1 1 1 1 1 1 
1 1 1 1 1 1 1 1 1 
1 1 1 1 1 1 1 1 1 
1 1 1 1 1 1 1 1 1 
1 1 1 1 1 1 1 1 1 
1 1 1 1 1 1 1 1 1 
1 1 1 1 1 1 1 1 1 
1 1 1 1 1 1 1 1 1 
1 1 1 1 1 1 1 1 1 
1 1 1 1 1 1 1 1 1 
1 1 1 1 1 1 1 1 1 
1 1 1 1 1 1 1 1 1 
1 1 1 1 1 1 1 1 1 
1 1 1 1 1 1 1 1 1 
1 1 1 1 1 1 1 1 1 
1 1 1 1 1 1 1 1 1 
1 1 1 1 1 1 1 1 1 
1 1 1 1 1 1 1 1 1 
1 1 1 1 1 1 1 1 1 
1 1 1 1 1 1 1 1 1 
1 1 1 1 1 1 1 1 1 
1 1 1 1 1 1 1 1 1 
1 1 1 1 1 1 1 1 1 
1 1 1 1 1 1 1 1 1 
1 1 1 1 1 1 1 1 1 
1 1 1 1 1 1 1 1 1 
1 1 1 1 1 1 1 1 1 
1 1 1 1 1 1 1 1 1 
1 1 1 1 1 1 1 1 1 
1 1 1 1 1 1 1 1 1 
1 1 1 1 1 1 1 1 1 
1 1 1 1 1 1 1 1 1 
1 1 1 1 1 1 1 1 1 
1 1 1 1 1 1 1 1 1 
1 1 1 1 1 1 1 1 1 
1 1 1 1 1 1 1 1 1 
1 1 1 1 1 1 1 1 
NORMALS Normals float
0.402454 0.180594 -0.89745 0.386097 0.154222 -0.909475 0.610024 0.50396 -0.611469 
0.534347 0.151629 -0.831554 0.272053 0.311756 -0.910382 0.133675 0.347004 -0.928288 
0.375909 0.416975 -0.827541 0.326141 0.662677 -0.67416 0.292697 0.594767 -0.748719 
-0.0623593 0.148565 -0.986935 0.238115 0.630979 -0.738354 0.602897 0.381382 0.700759 
0.202503 -0.106916 -0.973428 0.274023 -0.12011 -0.954193 -0.0715287 -0.0940844 -0.992991 
0.0964044 -0.0538674 -0.993884 0.335758 0.0900732 -0.937632 0.709702 0.589185 -0.386245 
0.645108 0.439279 -0.625195 0.55467 0.593201 -0.583484 0.640535 0.604768 -0.473256 
0.563365 0.720987 -0.403481 0.408862 0.757329 -0.5092 0.443848 0.844717 -0.299084 
0.505194 0.861223 -0.0554326 0.508581 0.722086 -0.468976 -0.132897 0.378588 -0.915974 
0.486192 0.870665 -0.0745668 -0.0040419 0.610163 -0.792266 0.344621 0.790717 -0.505967 
-0.0704021 0.405192 -0.911517 0.0676437 0.623749 -0.778692 0.138019 0.885977 -0.442713 
0.270656 0.880111 -0.390063 0.156692 0.74021 -0.653863 0.42627 -0.0126662 -0.904507 
0.585192 0.0977141 -0.804986 0.753074 0.0433204 -0.656508 0.763318 0.21537 -0.609066 
0.770926 0.355403 -0.528546 0.848341 0.329129 -0.41472 0.647107 0.448524 -0.616505 
0.597036 0.801991 0.0189412 0.606478 0.770535 -0.196114 0.441924 0.886509 0.137128 
0.597041 0.801207 0.0401088 -0.165146 0.134533 -0.977051 0.382004 0.923295 -0.0399929 
0.508232 0.838613 -0.196032 -0.0672065 0.353763 -0.932917 0.188847 0.866182 -0.462672 
-0.09655 0.59752 -0.79602 -0.0146069 0.738363 -0.674245 0.41764 -0.172679 -0.892053 
0.660743 -0.0869359 -0.745561 -0.0819606 -0.200638 -0.976231 -0.0200723 -0.314898 -0.948913 
0.0749156 -0.181005 -0.980625 0.801909 0.0608731 -0.594337 0.868781 0.488993 -0.0781326 
0.766835 0.625917 0.142101 -0.205874 -0.166166 -0.964368 0.668953 0.715657 0.200842 
0.529203 0.844574 0.0814777 0.426176 0.801093 0.420267 -0.227836 0.102154 -0.968326 
0.152053 0.954677 -0.255872 0.223235 0.958881 -0.175253 0.152226 0.968008 -0.199471 
0.111447 0.993728 -0.0092033 0.256696 0.950565 0.174738 -0.061652 0.696448 -0.714954 
-0.203265 -0.484593 -0.850795 -0.199793 -0.506073 -0.839031 0.108999 -0.258212 -0.959919 
0.256224 -0.159835 -0.953311 0.680358 0.0664039 -0.729866 -0.325292 -0.546749 -0.771525 
-0.190439 -0.524941 -0.82956 0.943498 0.158576 -0.290973 0.932058 0.316785 -0.175825 
0.948556 0.296731 -0.110416 0.681282 0.687036 0.252656 0.534679 0.696892 0.477974 
0.510665 0.708725 0.486755 0.405642 0.716705 0.567264 0.508501 0.778772 0.367343 
-0.296091 0.154914 -0.942514 0.357645 0.818925 0.448835 -0.188512 0.355826 -0.915342 
0.0840023 0.793835 -0.602304 0.166144 0.930996 -0.325028 0.113259 0.870181 -0.479539 
-0.0558449 0.848013 -0.527025 -0.000854474 0.900633 -0.434581 0.0338135 -0.359529 -0.932521 
-0.393292 -0.560418 -0.728871 -0.328367 -0.649087 -0.686193 -0.132973 -0.477275 -0.868635 
-0.13235 -0.535807 -0.833903 0.18051 -0.333559 -0.925286 0.416172 -0.185673 -0.890127 
0.298767 -0.368104 -0.880476 -0.350547 -0.610066 -0.710589 0.76323 -0.0525897 -0.643983 
0.924405 0.143304 -0.353467 -0.47534 -0.772461 -0.421136 0.956399 0.22706 -0.183698 
0.821836 0.493773 0.284208 -0.338655 -0.78739 -0.515103 0.440105 0.455237 0.773994 
0.59053 0.479809 0.64889 0.51876 0.498574 0.694487 0.377946 0.417515 0.826341 
0.469465 0.591676 0.655379 0.286737 0.608542 0.739904 0.42495 0.500906 0.753996 
0.360448 0.502303 0.785983 -0.207199 -0.143705 -0.967687 -0.114216 0.432993 -0.894132 
-0.316967 0.508355 -0.800692 -0.273272 0.726955 -0.629968 -0.264981 0.447388 -0.854183 
0.107386 0.971943 -0.209272 0.089961 0.851141 -0.517171 -0.459883 -0.703156 -0.542291 
0.0818239 -0.448466 -0.890046 0.378364 -0.427061 -0.821255 -0.535578 -0.731278 -0.422361 
0.863617 0.0450213 -0.502135 -0.549137 -0.809447 0.207954 -0.504905 -0.773269 -0.38357 
-0.508822 -0.837792 -0.198002 -0.445298 -0.868786 0.216613 -0.611725 -0.788331 0.0657772 
0.95901 0.244145 -0.143848 0.974796 0.219425 0.0403078 -0.623854 -0.776415 0.0893615 
-0.408641 -0.912434 -0.0218584 0.871968 0.402336 0.278924 -0.450849 -0.883515 -0.12703 
-0.403434 -0.893228 0.198454 0.35404 0.397195 0.846695 -0.139848 -0.703657 -0.696641 
0.175404 0.301245 0.937275 0.40778 0.565459 0.716918 -0.135817 0.0132215 -0.990646 
0.347353 0.717555 0.603706 -0.228537 0.143674 -0.962875 -0.144299 0.495525 -0.856523 
-0.0968843 0.410965 -0.906489 -0.270513 0.581297 -0.767409 -0.148348 0.396346 -0.906037 
0.218776 0.955114 0.199733 -0.177205 0.569539 -0.802635 -0.106733 0.675729 -0.729382 
-0.0898259 0.804185 -0.587552 0.0469334 0.793139 -0.60723 0.0042342 0.843582 -0.536983 
0.0796405 0.991145 -0.106248 0.039262 0.949618 -0.310942 0.061447 0.967085 -0.246923 
0.173179 -0.550591 -0.816614 0.548424 -0.51416 -0.659447 -0.174738 -0.529043 -0.83041 
0.55689 -0.448323 -0.6992 -0.647495 -0.751812 -0.124615 -0.588045 -0.721159 -0.366242 
0.81642 -0.225121 -0.531769 0.977878 0.00552288 -0.209103 0.973655 0.226907 -0.0225548 
0.955463 0.203239 0.213973 -0.564153 -0.717902 0.407857 0.903362 0.395124 0.166775 
0.883642 0.372734 0.283277 -0.53621 -0.838124 0.100139 -0.420169 -0.583426 0.695034 
0.759943 0.442766 0.475862 -0.438007 -0.826557 0.353488 -0.048408 -0.0319545 0.998316 
0.0678762 0.0131813 0.997607 -0.131343 -0.990857 0.0308466 -0.259189 -0.96182 0.0878868 
-0.320734 -0.902319 0.288009 0.0174048 -0.983717 -0.178878 -0.26481 -0.0286056 -0.963876 
-0.191636 0.211959 -0.958305 -0.394759 0.282324 -0.874333 -0.260082 0.447835 -0.855454 
-0.496676 0.57411 -0.650931 0.132327 0.989969 0.0495034 -0.265645 0.733011 -0.6262 
-0.160888 0.662801 -0.731307 0.128389 0.991632 0.0134931 0.131903 0.979807 0.150267 
-0.157534 0.64555 -0.747294 0.0379282 0.974291 -0.222078 -0.110793 -0.661737 -0.741505 
-0.309781 -0.714563 -0.627244 -0.00393768 -0.633798 -0.773489 -0.491215 -0.642997 -0.587591 
-0.649263 -0.705231 -0.284793 0.513687 -0.596841 -0.616365 0.862686 -0.463084 -0.203285 
0.921211 -0.388358 0.023429 0.664345 -0.581806 -0.469199 0.876219 -0.420499 -0.235416 
0.962633 -0.269954 0.021529 -0.731945 -0.66853 0.13162 -0.62628 -0.77894 -0.0320293 
0.981401 0.0176399 0.191158 0.930891 -0.0400777 0.363091 -0.668803 -0.66541 0.33156 
-0.702993 -0.669342 0.240377 -0.48927 -0.478091 0.729413 -0.337868 -0.40515 0.849529 
0.682938 0.284701 0.672712 -0.550937 -0.542506 0.634157 0.640001 0.322199 0.697557 
-0.205132 0.214473 0.954946 0.0201934 0.26966 0.962744 0.615637 0.45492 0.643459 
0.809236 0.353089 0.469538 -0.591166 -0.58242 0.557951 0.0446959 -0.713833 -0.698888 
-0.258828 -0.875482 -0.408092 -0.216909 -0.771937 0.597547 -0.0797851 -0.61355 -0.785615 
0.097716 -0.933581 -0.344787 -0.181615 -0.95964 0.214724 -0.0188254 -0.814451 0.579928 
-0.159314 -0.239646 -0.9577 -0.296289 -0.0879807 -0.951038 -0.589598 0.0903781 -0.802625 
-0.738697 0.219863 -0.637172 -0.51477 0.389442 -0.763771 0.410979 0.745997 0.524007 
-0.453555 0.507615 -0.73254 -0.634095 0.648334 -0.421409 0.191562 0.951699 0.239944 
0.419701 0.661285 0.621734 -0.422796 0.707994 -0.565676 -0.429125 0.739487 -0.518663 
-0.478983 0.662171 -0.576286 -0.0720296 0.872873 -0.482602 0.000364239 0.999738 -0.0229036 
0.133029 0.977492 0.163748 0.0963307 0.991425 0.0883038 0.105919 0.973774 0.201358 
0.185864 0.834388 0.518894 -0.190015 -0.802094 -0.566161 -0.475774 -0.63958 -0.603802 
0.572763 -0.726536 -0.37959 -0.613204 -0.664035 -0.42783 -0.598941 -0.688167 -0.409507 
0.815332 -0.577762 -0.0377343 -0.761866 -0.634558 0.129984 -0.782988 -0.533373 0.320066 
-0.743121 -0.545301 0.387836 0.973285 -0.220626 0.0635694 -0.705475 -0.578694 0.409168 
-0.526367 -0.589064 0.613141 0.74659 0.287857 0.599785 0.444727 0.400542 0.801114 
-0.516269 -0.362848 0.775762 -0.204967 -0.0849109 0.975079 0.316671 0.334609 0.887557 
-0.20174 -0.0071248 0.979413 -0.266699 -0.498328 0.824949 0.0728585 -0.93604 -0.344267 
0.260213 -0.965345 -0.019977 -0.148824 -0.512417 0.845742 0.190348 -0.957017 0.21883 
-0.0984484 -0.548743 0.830174 -0.0805827 -0.399781 0.913062 0.124139 -0.904159 0.408762 
0.0413338 -0.34305 0.938407 -0.462964 -0.131768 -0.876528 -0.766733 -0.0891607 -0.635745 
-0.817373 0.0316731 -0.575237 -0.785769 0.207542 -0.582661 -0.850946 0.151383 -0.502965 
-0.823396 0.53448 -0.190658 0.200066 0.792253 0.576463 -0.435307 0.827251 -0.355194 
-0.167068 0.93037 -0.326344 0.140524 0.842222 0.520495 0.230646 0.879619 0.41602 
0.236469 0.89248 0.384137 -0.237951 0.908315 -0.344011 -0.00799643 0.990021 -0.14069 
0.0794925 0.993118 -0.0860138 -0.18167 -0.968813 0.168517 -0.739639 -0.672847 -0.0145212 
0.485226 -0.702954 0.520011 -0.701213 -0.676509 0.225024 -0.779084 -0.613451 -0.129252 
0.671761 -0.58642 0.452601 -0.772757 -0.467495 0.429297 0.9287 -0.356121 0.103411 
-0.602357 -0.318274 0.73203 -0.698989 -0.357127 0.619576 -0.556576 -0.226477 0.799332 
0.957384 -0.200331 -0.208046 -0.598866 -0.787047 0.14804 -0.316774 -0.37751 0.870138 
-0.710287 -0.650728 -0.268411 -0.110855 -0.447356 0.887459 0.722102 0.18511 0.66656 
-0.499115 -0.200628 0.842991 -0.612804 -0.027968 0.78974 -0.25262 0.00868628 0.967527 
-0.346702 0.021849 0.937721 -0.254276 0.0334816 0.966552 0.0132969 0.225861 0.974069 
0.270515 0.333098 0.903254 0.830367 0.229938 0.507562 0.343543 0.386859 0.855756 
0.242481 0.271323 0.931444 -0.352068 -0.138951 0.925603 -0.344711 -0.387819 0.854852 
0.0317344 -0.455019 -0.889916 0.168638 -0.562132 -0.809672 0.274685 -0.645881 -0.712311 
0.0859594 -0.514287 -0.8533 0.251294 -0.946859 -0.200772 0.155049 -0.965033 -0.211357 
0.293939 -0.9411 0.167124 0.120677 -0.961884 0.245391 -0.212475 -0.306035 -0.928007 
-0.841727 -0.0624041 -0.536284 0.336428 0.200938 0.920022 -0.821772 -0.216868 -0.526933 
-0.93002 0.0358463 -0.365756 -0.923901 0.105922 -0.367677 -0.868952 0.118704 -0.480449 
-0.976549 0.111982 -0.183879 -0.947417 0.227209 -0.225337 0.313153 0.413285 0.855062 
-0.926339 0.307247 -0.217932 0.299005 0.769286 0.564619 -0.289909 0.916238 -0.276514 
-0.083636 0.996352 0.0169354 -0.123349 0.989654 0.0732793 0.034843 0.982051 0.18537 
-0.229072 -0.604395 0.763042 -0.479143 -0.679469 0.555648 0.0430407 -0.799953 0.598517 
0.671164 -0.526707 0.52165 0.143901 -0.559488 0.816251 0.812279 -0.34167 0.472719 
0.907992 -0.236136 0.346108 0.959985 -0.252338 0.121464 -0.172608 0.0845177 0.981358 
0.916834 -0.169748 0.361387 0.931101 -0.0365513 0.362926 0.6727 0.00392874 0.739905 
0.0838709 0.141878 0.986325 0.249035 0.204417 0.946676 0.856047 0.0394293 0.515392 
0.0245492 0.22752 0.973464 0.501959 0.207593 0.839609 -0.171524 0.171628 0.970115 
0.390177 -0.615119 -0.685121 0.338772 -0.747475 -0.571414 0.469697 -0.826105 -0.311345 
0.389862 -0.881084 0.267767 0.29111 -0.727175 0.621668 -0.984718 0.160998 -0.0664143 
-0.145709 0.957302 -0.249684 -0.386839 0.880917 -0.272657 -0.248585 0.967633 0.0434851 
-0.408483 0.911258 -0.0524458 -0.0945961 0.994454 0.0459691 -0.183501 0.981092 -0.0615295 
0.171773 0.856661 0.486442 -0.0960611 0.899657 0.425898 0.117531 0.952477 0.281024 
-0.0153555 0.40986 -0.912019 -0.1239 0.0465519 -0.991202 -0.00170271 0.498415 -0.866937 
-0.110941 0.0176494 -0.99367 -0.123897 -0.0471593 -0.991174 -0.124035 0 -0.992278 
-0.444864 -0.485485 0.752596 0.0381319 0.594172 -0.803434 -0.0541302 0.277613 -0.959167 
-0.250935 -0.280123 0.926587 0.451492 -0.215649 0.865824 0.0561559 0.00543665 0.998407 
0.340539 -0.0414198 0.939318 0.270067 0.0185583 0.962663 0.588329 -0.10408 0.801895 
0.397551 -0.5558 -0.730096 0.602862 -0.65149 -0.460563 -0.240076 -0.351295 -0.904962 
0.677646 -0.612276 -0.407325 -0.525469 -0.21665 -0.822767 0.51046 -0.709463 -0.485894 
0.481094 -0.875265 -0.0496049 0.63983 -0.755069 0.143136 -0.750321 -0.100502 -0.653389 
0.552657 -0.825942 0.111307 0.321784 -0.811265 0.488163 0.373833 -0.643233 0.668207 
0.33749 -0.545416 0.767217 0.285749 -0.433073 0.854866 0.261819 0.0142275 0.965012 
-0.995029 0.0577379 -0.0811375 -0.986436 0.163191 -0.0177032 -0.974614 -0.00902452 -0.223711 
0.276315 0.430634 0.859188 -0.831067 0.374412 0.41127 0.230398 0.661841 0.71336 
-0.819164 0.392389 0.418331 -0.765287 0.585756 0.266882 -0.652498 0.755696 -0.0563063 
-0.49202 0.869494 0.0435518 -0.164977 0.93769 0.305812 -0.0479124 0.983861 0.1724 
0.0540403 -0.312116 0.948506 0.0826404 -0.0944002 0.992098 -0.500686 -0.202533 0.841602 
0.444817 -0.698748 -0.560258 0.342251 -0.662412 -0.666389 -0.239661 -0.690154 -0.682825 
-0.0206667 -0.571048 -0.820657 -0.394399 -0.475091 -0.786599 0.741997 -0.596256 -0.306463 
0.760099 -0.603698 -0.240412 -0.830365 -0.104841 -0.547268 0.629709 -0.614476 0.475275 
0.525644 -0.650887 0.547763 0.325863 -0.629761 0.705134 0.336336 -0.415294 0.845227 
0.248334 -0.300309 0.920948 0.404416 0.0548346 0.91293 0.473627 -0.22652 0.851097 
0 -0.121763 -0.992559 0 -0.992432 -0.122797 -0.849089 -0.520497 -0.0901731 
0.849089 -0.520497 -0.0901731 0 0.184289 -0.982872 0.146025 0.404445 0.90283 
-0.858468 0.317979 0.402396 0.148027 0.62121 0.769536 -0.70428 0.535829 0.4657 
-0.693555 0.691753 0.201144 -0.11104 0.907071 0.406071 -0.0752323 0.880717 0.46763 
0.146004 0.874512 0.462506 -0.448986 0.834891 0.318386 -0.201709 0.913717 0.352753 
-0.00680508 0.897546 0.440868 0.0840634 0.828948 0.552972 0.1063 -0.695561 -0.71056 
0.125403 -0.91678 -0.379194 -0.278528 -0.835002 -0.474545 -0.127602 -0.898038 -0.421006 
0.470126 -0.830627 -0.298396 -0.33914 -0.782304 -0.522479 -0.391157 -0.69441 -0.603979 
-0.722673 -0.411376 -0.55544 -0.902461 -0.217724 -0.3717 0.610821 -0.644072 -0.46051 
0.731551 -0.671573 -0.117573 -0.975719 -0.0770576 -0.205026 0.689543 -0.614219 0.383753 
-0.982287 -0.00410914 -0.187338 0.621048 -0.592629 0.512923 0.387421 -0.265862 0.882736 
0.418979 -0.19279 0.887293 -0.988279 0.13164 0.0772975 -0.964585 0.178277 0.194402 
-0.878687 0.27035 0.393471 -0.932537 0.174484 0.316116 0 -0.229113 0.9734 
-0.84956 0.300058 0.433835 0.219802 0.233638 0.947154 0.00016519 0.640388 0.768051 
-0.641271 0.39752 0.656315 -0.0345097 0.840162 0.541237 -0.00301284 0.634228 0.77314 
-0.232203 0.775077 0.587654 -0.136494 0.709886 0.690964 0.0795785 0.669283 0.738733 
-0.476772 0.62768 0.615391 -0.0702453 -0.992327 -0.101752 -0.371591 -0.905388 -0.205408 
-0.364898 -0.928284 -0.071685 -0.187934 -0.97964 -0.0706135 0.0442614 -0.996826 -0.0661673 
-0.481077 -0.869675 0.110593 -0.536521 -0.766376 -0.353289 -0.462846 -0.880286 -0.104262 
-0.419316 -0.907776 0.0108274 -0.90252 -0.393791 -0.174315 -0.547004 -0.534262 -0.644478 
-0.947168 -0.251254 -0.199358 0.68776 -0.63254 -0.3562 0.842002 -0.529312 0.104219 
-0.995838 -0.00747708 -0.0908365 0.793382 -0.604208 -0.0740162 0.712593 -0.495458 0.496721 
0.591308 -0.610597 0.526808 0.57572 -0.411658 0.706459 0.730697 -0.491012 0.47433 
-0.997748 0.066672 0.00729524 0.512416 -0.129939 0.84885 -0.962972 0.192164 0.189097 
-0.725601 0.25179 0.640394 0.21433 0.286367 0.93384 -0.00873891 0.386258 0.922349 
-0.420862 0.386926 0.820466 0.306613 -0.923198 -0.23172 0.242955 -0.961267 0.130152 
0.432258 -0.895494 0.106034 0.0151231 -0.983167 0.182081 -0.732029 -0.599854 0.322969 
-0.574243 -0.685045 0.448284 -0.369327 -0.918603 0.14059 -0.220693 -0.919835 0.324343 
0.658624 -0.742804 -0.12024 -0.897968 -0.295143 0.32641 -0.495967 -0.81294 0.305197 
0.902274 -0.430909 -0.0148187 0.836339 -0.513643 0.191591 0.841962 -0.397426 0.3649 
-0.999342 0.0337863 0.0131733 -0.982192 -0.146932 0.11709 0.744575 -0.319246 0.586251 
0.641555 -0.278615 0.71469 -0.981265 0.0382003 0.188839 0.647366 -0.38187 0.659615 
-0.929665 0.20348 0.307114 -0.706555 0.296509 0.642543 -0.749614 0.268079 0.605155 
-0.623713 0.298532 0.722399 0.0622323 0.333787 0.940592 -0.0526442 0.366242 0.929029 
-0.32641 0.396347 0.858118 0.0997584 -0.988784 0.111155 -0.258465 -0.947846 0.186505 
-0.66437 -0.621635 0.414949 0.805932 -0.577873 0.128595 0.924935 -0.327827 0.192419 
0.846247 -0.321535 0.42483 -0.918771 -0.143759 0.367687 0.802215 -0.0243816 0.596538 
0.554054 -0.245599 0.795428 -0.730599 0.186322 0.656894 0.412625 0.0572356 0.909101 
0.105682 0.326014 0.939439 0.0785223 0.423577 0.902451 -0.136311 0.344483 0.928844 
-0.428587 0.19765 0.881616 -0.0596604 0.45339 0.889313 0.253977 -0.905031 0.341195 
0.566223 -0.776899 0.275352 0.674263 -0.564521 0.476115 -0.311087 -0.672236 0.671806 
0.710807 -0.108284 0.695003 -0.937641 0.0382479 0.345495 -0.743172 0.226092 0.629744 
0.416216 -0.747562 0.517606 -0.141954 -0.749455 0.646658 0.101622 -0.79632 0.596278 
-0.201769 -0.689606 0.695509 0.115945 -0.665487 0.73735 -0.719425 -0.324093 0.614322 
0.504954 -0.112162 0.855828 0.434859 0.201537 0.877656 0.134861 0.17955 0.974461 
-0.691034 0.0219141 0.72249 -0.32285 0.277818 0.904757 -0.0445281 -0.772349 0.633636 
0.274585 -0.644089 0.71397 0.474721 -0.420478 0.7732 -0.204239 -0.582755 0.786564 
-0.241451 -0.341707 0.908261 -0.0470535 -0.483813 0.873905 -0.0227447 -0.49667 0.867641 
0.226165 -0.268795 0.936268 0.591526 -0.288109 0.753054 -0.481235 -0.613349 0.626271 
-0.0271602 -0.390005 0.920412 0.0495669 -0.0683185 0.996431 0.325634 -0.0697935 0.942916 
0.202329 -0.53137 0.822623 0.045707 -0.148044 0.987924 -0.136035 -0.353549 0.925472 
-0.166841 -0.151557 0.974266 -0.556693 0.120634 0.821912 -0.256826 0.127489 0.958012 