# vtk DataFile Version 4.2
vtk output
ASCII
DATASET POLYDATA
POINTS 442 float
200.788 246.399 192.013 201.756 246.729 192.033 202.425 246.587 192.278 
200.588 247.349 191.891 201.658 247.239 191.929 202.562 246.891 192.184 
200.952 247.967 191.892 202.233 247.659 192.004 201.201 248.736 192.083 
201.031 248.957 192.213 201.859 248.946 192.242 200.049 244.443 192.674 
200.919 244.735 192.633 201.246 244.771 192.699 201.52 244.92 192.748 
197.442 245.584 192.701 198.233 245.178 192.564 202.929 246.858 192.489 
197.987 246.305 192.427 199.978 247.747 192.007 202.854 247.598 192.144 
203.051 247.561 192.306 199.476 248.243 192.241 203.139 248.523 192.461 
203.388 248.371 192.587 199.525 248.723 192.467 203.171 248.902 192.706 
203.438 248.848 192.835 203.551 248.703 192.852 202.385 249.428 192.824 
198.986 243.15 193.773 200.115 243.623 193.493 201.344 244.626 192.889 
201.594 244.771 192.952 199.143 244.564 192.679 202.458 245.715 193.069 
197.108 246.196 192.809 197.556 247.218 192.718 203.392 247.3 192.824 
203.337 247.77 192.541 203.499 248.095 192.707 203.665 248.283 192.994 
203.545 248.847 192.987 200.639 249.493 192.715 203.573 248.911 193.224 
200.063 250.04 193.362 196.201 243.288 193.981 198.991 242.783 194.272 
202.853 245.982 193.625 203.64 247.764 193.101 203.636 247.979 192.95 
203.681 248.726 193.354 203.305 249.343 193.613 198.397 250.317 194.349 
201.43 250.167 193.585 201.444 250.391 194.117 202.498 250.004 194.089 
200.051 243.133 194.356 193.902 246.124 194.784 203.579 247.433 193.618 
199.714 250.906 194.938 201.643 244.236 194.65 201.902 244.499 194.859 
202.696 245.629 194.499 203.46 248.022 194.84 194.832 249.003 195.599 
195.487 249.817 195.962 203.236 249.381 194.58 197.079 250.664 195.935 
200.141 251.082 195.354 200.813 251.05 195.636 195.571 239.741 197.235 
196.634 240.258 196.747 199.363 242.118 195.811 192.556 242.014 196.248 
200.852 243.37 195.293 201.911 244.576 195.688 191.5 246.154 196.965 
202.976 246.595 195.534 203.261 249.099 195.026 202.278 250.185 195.456 
201.438 250.753 195.877 199.84 251.321 196.371 202.122 245.12 196.352 
195.475 250.318 197.173 191.576 238.643 199.079 198.509 240.893 198.101 
189.955 244.653 198.219 190.645 247.352 198.744 196.33 250.815 197.957 
196.236 250.78 198.494 198.491 251.288 197.479 199.426 251.311 197.173 
192.279 238.173 199.304 196.53 238.968 199.648 188.641 241.867 199.854 
189.151 245.039 199.401 190.035 247.303 199.853 191.82 248.825 199.357 
197.183 250.959 198.502 200.196 251.058 197.446 192.282 237.073 200.858 
190.305 238.03 200.496 188.755 239.426 200.92 188.229 243.39 200.314 
192.405 249.415 200.568 197.665 250.768 199.159 198.56 250.511 199.335 
200.128 250.631 198.219 187.04 241.716 202.501 200.251 246.184 200.405 
188.574 246.443 201.653 199.484 249.977 199.53 199.116 249.946 199.823 
197.682 250.018 200.495 193.717 236.479 202.307 187.66 238.842 203.035 
187.299 244.57 202.81 198.212 249.198 201.295 191.903 249.226 202.072 
195.152 249.97 201.311 195.854 250.04 201.031 192.682 235.866 203.503 
195.872 237.922 203.426 188.346 246.659 203.002 198.572 246.926 202.637 
189.749 247.995 203.452 197.131 249.361 201.79 193.477 249.647 202.238 
191.067 235.602 205.093 189.285 236.55 204.159 194.8 236.91 203.555 
187.771 237.862 204.102 186.338 240.356 204.725 186.677 239.449 204.549 
186.286 242.285 204.4 193.381 249.255 203.404 194.102 249.243 203.368 
194.451 249.496 202.722 191.977 235.503 205.417 192.936 235.718 204.773 
189.258 236.278 205.381 197.146 239.957 204.073 186.315 243.557 205.42 
187.468 245.806 205.348 191.471 248.688 204.437 195.324 248.553 204.109 
190.257 235.741 205.901 190.924 235.532 206.567 192.41 235.59 205.78 
193.408 236.001 205.73 186.442 244.072 206.326 193.532 248.359 205.262 
191.265 235.517 206.913 193.892 236.339 205.929 188.94 236.492 206.929 
186.729 238.842 206.55 186.357 243.678 207.71 196.36 245.302 206.205 
190.13 247.7 206.43 193.99 247.587 206.285 193.1 236.242 207.382 
194.974 237.839 206.863 186.109 242.536 208.069 195.211 244.332 208.035 
195.468 245.116 207.406 189.221 246.821 207.705 192.147 247.784 206.695 
192.142 235.825 207.807 188.902 236.778 208.222 194.94 238.13 207.286 
195.39 240.998 208.261 186.978 244.664 208.453 194.226 245.352 208.439 
188.176 245.761 208.598 192.977 246.714 207.962 190.896 235.946 208.575 
191.777 235.996 208.593 189.614 236.601 208.896 188.704 237.324 209.006 
194.611 240.298 209.222 186.98 244.065 209.524 191.502 235.99 208.695 
192.641 236.672 208.937 189.908 237.03 209.752 188.387 238.2 209.923 
187.238 239.112 209.474 194.444 240.082 209.296 186.4 241.697 209.581 
186.976 243.451 210.077 188.402 245.139 209.868 189.362 245.812 209.536 
189.637 245.67 209.792 191.115 245.953 209.431 189.424 237.503 209.968 
190.726 237.428 210.33 187.107 239.742 210.037 186.749 241.042 210.192 
193.051 239.933 210.461 191.861 241.638 211.359 192.517 241.456 211.033 
186.732 242.711 210.242 186.899 242.694 210.442 192.47 243.015 210.778 
190.946 244.515 210.686 188.945 244.725 210.595 190.183 238.194 210.798 
190.824 237.913 210.637 189.22 239.278 211.268 187.519 240.092 210.759 
187.884 240.084 211.068 190.102 239.228 211.361 190.358 239.47 211.424 
187.143 241.214 210.832 187.38 240.877 210.999 190.94 241.255 211.54 
186.91 242.287 210.563 187.212 242.102 210.875 189.996 242.628 211.519 
187.804 243.103 210.929 188.869 242.96 211.392 189.633 243.808 211.26 
190.364 243.979 211.156 188.14 240.533 211.386 187.981 242.094 211.334 
189.1 244.2 211.049 189.187 239.787 244.888 189.42 239.694 244.877 
190.266 240.076 244.897 190.167 239.751 244.941 188.209 241.488 245.077 
188.01 241.522 245.226 188.391 241.543 245.032 190.563 237.958 245.846 
188.857 238.884 245.495 189.675 239.102 245.181 191.691 238.283 245.848 
188.746 240.926 244.994 187.123 242.027 246.006 189.189 242.402 245.252 
190.593 242.971 245.485 190.638 237.184 246.52 188.351 238.563 246.066 
192.746 238.17 246.451 187.089 239.955 246.158 186.942 239.801 246.488 
187.612 239.488 245.855 186.706 241.297 246.386 191.915 241.792 245.603 
193.571 241.949 246.386 187.116 243.104 246.562 188.751 244.873 246.671 
190.17 236.708 247.213 189.587 237.013 247.145 192.988 236.861 247.522 
193.229 237.148 247.449 194.063 242.338 246.883 186.956 243.937 247.512 
188.896 237.029 247.878 193.631 237.052 248.044 187.359 238.422 247.89 
186.14 241.253 247.82 186.283 242.892 248.24 193.321 245.39 247.505 
192.677 245.997 247.635 189.95 246.889 248.46 191.919 246.964 248.39 
190.987 235.822 248.625 191.957 235.885 248.45 191.823 235.692 248.918 
190.122 236.056 248.539 193.134 236.406 248.245 186.664 239.385 248.064 
186.114 240.746 248.337 195.074 239.538 248.482 185.989 241.127 248.192 
185.958 241.119 248.399 185.931 241.216 248.281 185.974 241.321 248.188 
186.034 241.709 248.315 195.165 244.247 248.427 194.055 245.915 248.384 
190.27 235.74 249.934 191.387 235.52 249.667 188.048 237.262 249.371 
194.867 237.74 249.681 185.943 241.313 248.395 185.984 241.218 248.849 
196.294 244.164 249.81 194.568 247.001 249.654 193.31 248.128 250.296 
191.748 235.475 250.021 187.176 238.294 250.206 186.053 240.857 249.628 
185.958 241.49 249.659 185.945 242.13 249.83 194.43 247.758 250.262 
190.979 248.418 251.049 189.842 235.907 250.973 191.687 235.445 250.592 
193.074 235.866 250.675 196.902 240.819 251.217 197.513 243.884 251.498 
196.695 246.437 251.172 192.9 248.947 251.572 190.292 235.752 251.747 
192.554 235.63 250.958 194.568 236.981 251.218 187.56 238.187 252.03 
187.099 245.561 252.092 197.109 247.229 252.139 188.265 246.872 252.293 
196.73 247.961 252.318 191.399 249.097 253.058 194.588 249.103 252.127 
196.207 248.446 252.321 190.809 235.688 252.194 191.163 235.598 252.016 
193.73 236.278 252.001 187.51 238.56 252.602 186.99 239.822 252.927 
186.138 243.107 251.992 192.651 249.776 254.304 193.94 249.769 253.377 
193.272 249.929 254.196 190.136 236.471 253.614 189.434 237.142 254.086 
186.729 241.219 253.354 199.344 244.872 254.516 195.709 249.69 253.666 
195.239 250.155 254.573 187.57 239.996 254.317 197.776 240.279 255.771 
186.814 243.598 253.893 199.77 249.1 256.131 192.482 236.371 254.168 
191.704 236.777 255.06 198.99 249.795 256.034 195.827 250.628 256.165 
194.249 237.294 255.335 195.51 238.213 256.302 190.551 238.524 256.743 
188.333 240.685 255.931 199.926 242.939 257.499 200.442 244.354 256.83 
193.359 250.062 257.179 194.448 250.482 256.905 199.203 250.58 257.221 
200.572 250.619 258.203 192.345 237.708 256.541 190.294 239.716 257.43 
188.584 243.568 256.956 190.4 247.218 257.812 190.386 247.886 256.973 
193.949 250.198 257.957 197.373 251.198 258.249 198.643 251.29 258.397 
191.456 238.31 257.024 193.484 238.222 257.307 192.689 238.621 257.735 
189.365 245.006 257.777 202.571 249.315 259.828 201.538 250.269 258.972 
197.63 251.359 259.383 200.71 251.07 259.422 192.641 239.383 258.46 
196.321 239.997 259.071 193.967 249.741 259.186 202.366 249.922 260.023 
196.213 250.745 259.856 200.666 243.323 260.792 202.841 246.227 261.124 
193.394 248.202 260.439 203.178 249.257 261.352 202.183 250.306 260.464 
202.513 250.063 260.842 201.181 250.975 260.403 194.568 240.394 259.845 
194.395 240.82 260.192 193.578 243.316 261.319 195.029 248.97 261.541 
197.344 250.768 261.196 201.109 251.035 261.021 202.099 250.492 261.632 
199.538 242.86 261.881 200.589 243.406 261.743 202.395 245.384 262.412 
202.715 245.769 262.118 203.582 247.797 262.401 203.652 248.689 262.903 
203.501 249.2 262.611 197.524 250.439 261.888 200.517 251.134 261.6 
196.52 242.972 262.392 197.688 243.044 262.609 196.154 244.561 263.166 
203.395 247.034 262.85 195.822 247.027 263.013 203.51 249.077 263.306 
198.806 249.897 263.17 203.378 249.373 263.238 198.621 250.442 262.476 
202.385 250.259 262.715 202.443 250.071 263.314 201.432 244.785 263.364 
197.484 244.919 263.677 202.7 245.973 263.127 196.325 245.947 263.452 
[...]
POINT_DATA 442
SCALARS scalars float
LOOKUP_TABLE default
1 1 1 1 1 1 1 1 1 
1 1 1 1 1 1 1 1 1 
1 1 1 1 1 1 1 1 1 
1 1 1 1 1 1 1 1 1 
1 1 1 1 1 1 1 1 1 
1 1 1 1 1 1 1 1 1 
1 1 1 1 1 1 1 1 1 
1 1 1 1 1 1 1 1 1 
1 1 1 1 1 1 1 1 1 
1 1 1 1 1 1 1 1 1 
1 1 1 1 1 1 1 1 1 
1 1 1 1 1 1 1 1 1 
1 1 1 1 1 1 1 1 1 
1 1 1 1 1 1 1 1 1 
1 1 1 1 1 1 1 1 1 
1 1 1 1 1 1 1 1 1 
1 1 1 1 1 1 1 1 1 
1 1 1 1 1 1 1 1 1 
1 1 1 1 1 1 1 1 1 
1 1 1 1 1 1 1 1 1 
1 1 1 1 1 1 1 1 1 
1 1 1 1 1 1 1 1 1 
1 1 1 1 1 1 1 1 1 
1 1 1 1 1 1 1 1 1 
1 1 1 1 1 1 1 1 1 
1 1 1 1 1 1 1 1 1 
1 1 1 1 1 1 1 1 1 
1 1 1 1 1 1 1 1 1 
1 1 1 1 1 1 1 1 1 
1 1 1 1 1 1 1 1 1 
1 1 1 1 1 1 1 1 1 
1 1 1 1 1 1 1 1 1 
1 1 1 1 1 1 1 1 1 
1 1 1 1 1 1 1 1 1 
1 1 1 1 1 1 1 1 1 
1 1 1 1 1 1 1 1 1 
1 1 1 1 1 1 1 1 1 
1 1 1 1 1 1 1 1 1 
1 1 1 1 1 1 1 1 1 
1 1 1 1 1 1 1 1 1 
1 1 1 1 1 1 1 1 1 
1 1 1 1 1 1 1 1 1 
1 1 1 1 1 1 1 1 1 
1 1 1 1 1 1 1 1 1 
1 1 1 1 1 1 1 1 1 
1 1 1 1 1 1 1 1 1 
1 1 1 1 1 1 1 1 1 
1 1 1 1 1 1 1 1 1 
1 1 1 1 1 1 1 1 1 
1 
NORMALS Normals float
-0.0133897 -0.281564 -0.959449 0.14926 -0.24658 -0.957559 0.363945 -0.390575 -0.845574 
0.0649417 -0.113727 -0.991387 0.132133 -0.0344023 -0.990635 0.407587 -0.366976 -0.836183 
0.0545628 0.113409 -0.992049 0.148331 0.0138745 -0.98884 0.194318 0.534078 -0.822801 
-0.0298199 0.515409 -0.856425 0.207187 0.320764 -0.924221 0.0285051 -0.524692 -0.850815 
0.172363 -0.434896 -0.88383 0.304375 -0.483328 -0.820822 0.431336 -0.450009 -0.781947 
-0.413116 -0.275574 -0.867983 -0.23503 -0.263514 -0.935586 0.660733 -0.405729 -0.631519 
-0.303395 -0.0210609 -0.952632 -0.18452 0.0802271 -0.979549 0.515144 -0.162389 -0.84158 
0.608531 -0.359359 -0.707496 -0.250967 0.336317 -0.907693 0.411021 0.314952 -0.855492 
0.65808 0.104642 -0.745641 -0.330107 0.509491 -0.794637 0.423301 0.659135 -0.621576 
0.535877 0.625868 -0.566679 0.792315 0.277112 -0.543549 0.276739 0.738512 -0.61483 
0.0974846 -0.730983 -0.675396 0.289602 -0.757397 -0.585219 0.395144 -0.700212 -0.594613 
0.65673 -0.654552 -0.374522 -0.145971 -0.442198 -0.884959 0.705754 -0.57434 -0.414783 
-0.39504 0.00759001 -0.918632 -0.42671 0.264692 -0.864787 0.803287 -0.45872 -0.379878 
0.718884 -0.0832112 -0.690132 0.818263 -0.0825731 -0.568882 0.950664 0.0280539 -0.308951 
0.668081 0.662859 -0.338062 0.0685584 0.734942 -0.674655 0.879611 0.444378 -0.169743 
-0.118171 0.797317 -0.591879 -0.157701 -0.575789 -0.802245 0.23947 -0.836069 -0.493602 
0.868534 -0.485899 -0.0977255 0.931461 -0.219762 -0.289973 0.948453 -0.14374 -0.282447 
0.984858 0.173351 0.00187759 0.655499 0.721978 -0.221516 -0.322393 0.818872 -0.474881 
0.145773 0.852553 -0.5019 0.21571 0.924305 -0.314847 0.461936 0.860445 -0.215057 
0.382581 -0.847853 -0.36712 -0.601174 0.172005 -0.780387 0.954974 -0.293999 0.03986 
-0.0281172 0.906671 -0.4209 0.672981 -0.724425 -0.14935 0.82817 -0.560463 -0.0040557 
0.81797 -0.573105 -0.0497514 0.966191 0.0276109 0.256345 -0.534158 0.593095 -0.602423 
-0.431941 0.793755 -0.428229 0.845793 0.520696 0.116233 -0.321459 0.855187 -0.406594 
0.0975549 0.924289 -0.369017 0.323944 0.915907 -0.237013 0.108152 -0.808601 -0.578331 
0.276136 -0.81626 -0.507413 0.568565 -0.795502 -0.209548 -0.467983 -0.347794 -0.812424 
0.594508 -0.790059 -0.149556 0.765412 -0.638169 0.0829797 -0.743131 0.268146 -0.61307 
0.906101 -0.328221 0.266931 0.796478 0.245458 0.552606 0.61188 0.778528 0.139634 
0.578483 0.747258 0.327054 0.0470505 0.99635 -0.0712191 0.923789 -0.197144 0.328249 
-0.490137 0.827559 -0.273702 -0.437244 -0.572701 -0.69342 0.679678 -0.730693 -0.0642361 
-0.729728 0.23208 -0.643145 -0.680972 0.615786 -0.39634 -0.304677 0.922957 -0.235206 
-0.209289 0.959601 0.188056 0.00564718 0.983648 0.180015 -0.10934 0.980301 -0.164482 
-0.103688 -0.733043 -0.672233 0.581942 -0.788091 -0.20064 -0.732614 -0.155686 -0.6626 
-0.764718 0.27025 -0.584954 -0.76068 0.50608 -0.406509 -0.639836 0.739715 -0.208401 
-0.048423 0.979318 0.196447 0.321695 0.885852 0.334334 -0.140382 -0.850913 -0.506201 
-0.441167 -0.744815 -0.500621 -0.749989 -0.340586 -0.567025 -0.881523 0.0346878 -0.470864 
-0.497496 0.865502 -0.0583325 0.0384807 0.890399 0.453551 0.214961 0.86483 0.453718 
0.540331 0.670448 0.50847 -0.888378 0.00684706 -0.459061 0.834739 0.398972 0.379516 
-0.788648 0.470453 -0.395865 0.505826 0.627191 0.59226 0.35923 0.700562 0.616577 
0.132774 0.853364 0.504124 0.341215 -0.88724 -0.310447 -0.756341 -0.45466 -0.470354 
-0.893059 0.33178 -0.303922 0.38043 0.701358 0.602802 -0.273189 0.944161 0.184198 
-0.0165367 0.939127 0.343172 0.147307 0.894993 0.421055 -0.0400618 -0.950496 -0.308142 
0.747648 -0.640587 0.175132 -0.75836 0.647071 -0.0786701 0.668753 0.427963 0.607961 
-0.572481 0.817556 -0.0621896 0.307008 0.788231 0.533328 -0.215016 0.932426 0.29043 
-0.195237 -0.950505 -0.241707 -0.625812 -0.758296 -0.182611 0.660456 -0.745282 0.0913923 
-0.744141 -0.663756 -0.0753761 -0.975549 -0.166789 -0.143126 -0.83884 -0.536915 -0.0898304 
-0.962285 0.0934877 -0.255476 0.00266027 0.939976 0.341229 0.0264532 0.936527 0.349596 
-0.0316493 0.91414 0.404162 0.0813958 -0.994696 -0.0628813 0.324198 -0.940508 -0.101688 
-0.525092 -0.848852 -0.0610643 0.810198 -0.528524 0.253462 -0.962783 0.234235 -0.134842 
-0.813322 0.581774 -0.00686473 -0.201158 0.937841 0.282824 0.298493 0.739478 0.603385 
-0.341536 -0.939787 0.0124288 -0.153447 -0.986257 0.0612522 0.270157 -0.953624 0.132726 
0.418368 -0.903326 0.0947088 -0.909378 0.415912 -0.00707477 0.311729 0.792624 0.523997 
0.0972956 -0.984944 0.142891 0.58833 -0.778661 0.218072 -0.704871 -0.709227 0.0124038 
-0.851366 -0.514292 0.103344 -0.924077 0.363184 0.119074 0.666851 0.511803 0.541635 
-0.39618 0.861694 0.317057 0.429649 0.75154 0.500589 0.489733 -0.841253 0.229031 
0.801462 -0.515899 0.302501 -0.994332 0.020618 0.104299 0.685387 0.175474 0.70672 
0.745667 0.310379 0.589615 -0.40785 0.850195 0.332907 0.0417247 0.855868 0.515509 
0.32109 -0.913599 0.249476 -0.589495 -0.753169 0.291945 0.729279 -0.475656 0.491838 
0.827858 -0.0592813 0.557797 -0.790212 0.58407 0.185546 0.534517 0.449733 0.715564 
-0.541945 0.756838 0.365364 0.272767 0.731339 0.625094 -0.309767 -0.909672 0.27666 
0.292948 -0.839124 0.458315 -0.454942 -0.787282 0.41619 -0.664725 -0.666896 0.336734 
0.751671 -0.192953 0.630682 -0.676604 0.509073 0.532026 0.0881875 -0.856674 0.508264 
0.512338 -0.599701 0.614711 -0.331269 -0.739861 0.585548 -0.526308 -0.606579 0.595871 
-0.762091 -0.574661 0.298298 0.717545 -0.328437 0.614214 -0.947301 -0.0551481 0.315562 
-0.87861 0.331435 0.343795 -0.487071 0.653678 0.579195 -0.231974 0.81723 0.527563 
-0.127293 0.73978 0.660699 0.134384 0.733897 0.665835 -0.340297 -0.633962 0.694471 
0.000545031 -0.636776 0.771049 -0.872879 -0.355192 0.334547 -0.859951 -0.156289 0.485858 
0.544615 -0.327056 0.772288 0.293332 0.0993865 0.95083 0.531691 -0.0683481 0.844176 
-0.804391 0.311746 0.505737 -0.640439 0.352991 0.682082 0.508675 0.310877 0.802873 
0.284539 0.433693 0.854955 -0.0797303 0.640072 0.764167 -0.124344 -0.550546 0.825493 
0.119261 -0.511378 0.85104 -0.246154 -0.397917 0.883782 -0.626588 -0.382568 0.678991 
-0.45209 -0.433183 0.779723 -0.00437988 -0.367201 0.930131 0.162125 -0.242329 0.956552 
-0.660237 -0.0143319 0.75092 -0.677586 -0.212596 0.704045 0.184393 -0.120006 0.975499 
-0.733821 0.0821497 0.674357 -0.643893 0.0867039 0.760187 0.102418 0.110086 0.988631 
-0.506985 0.402586 0.762162 -0.231466 0.2114 0.949596 0.0142747 0.409256 0.912308 
0.185136 0.402632 0.896444 -0.335681 -0.147972 0.930281 -0.370375 0.146687 0.917227 
-0.341098 0.4778 0.809542 -0.260235 -0.140238 -0.955307 -0.0472184 -0.309774 -0.949637 
0.154703 0.0187882 -0.987782 0.260886 -0.31192 -0.913589 -0.453726 0.0613167 -0.88903 
-0.532625 0.111735 -0.838944 -0.233397 0.356466 -0.904687 0.0339581 -0.547921 -0.83584 
-0.356912 -0.469031 -0.807851 -0.104908 -0.62453 -0.773923 0.323629 -0.406503 -0.854412 
-0.282028 -0.0903825 -0.95514 -0.684139 0.219132 -0.695655 -0.0846253 0.371266 -0.924662 
0.139401 0.365005 -0.92051 0.036402 -0.6898 -0.723084 -0.419645 -0.733321 -0.534919 
0.593179 -0.320913 -0.738345 -0.777966 -0.194084 -0.597579 -0.799948 -0.469396 -0.373833 
-0.584815 -0.409573 -0.700173 -0.862471 0.105354 -0.49502 0.397098 0.112577 -0.910846 
0.548284 0.107871 -0.829306 -0.615109 0.409656 -0.673664 -0.311278 0.606132 -0.731922 
-0.245113 -0.830842 -0.499621 -0.44729 -0.71225 -0.540955 0.393186 -0.673979 -0.625425 
0.59342 -0.420015 -0.686615 0.59129 0.167866 -0.788795 -0.787133 0.554632 -0.269824 
-0.537377 -0.788118 -0.300158 0.707187 -0.517696 -0.481536 -0.692099 -0.671229 -0.265425 
-0.910361 -0.0877719 -0.404399 -0.958379 0.245888 -0.14508 0.368165 0.384557 -0.846505 
0.16745 0.533242 -0.829225 -0.289925 0.769884 -0.568526 0.110815 0.772347 -0.62546 
-0.119257 -0.916166 -0.382646 0.0832771 -0.843994 -0.529847 0.114347 -0.962287 -0.246838 
-0.428659 -0.853898 -0.295142 0.536842 -0.781564 -0.317739 -0.909381 -0.41504 -0.0277093 
-0.917049 -0.369356 -0.150324 0.804339 -0.239598 -0.543721 -0.897656 -0.282705 -0.338071 
-0.961799 -0.273351 0.0148854 -0.983581 -0.0818702 -0.16083 -0.937604 0.119031 -0.326696 
-0.959157 0.218477 -0.17968 0.728496 0.0701189 -0.681452 0.504544 0.534197 -0.678283 
-0.267879 -0.957109 -0.11038 -0.129516 -0.977522 -0.166361 -0.697288 -0.710746 -0.0929008 
0.815916 -0.384839 -0.431486 -0.993096 0.11541 0.0209737 -0.993659 -0.0953309 0.0596127 
0.743879 0.172887 -0.645565 0.477942 0.538636 -0.693861 0.15611 0.77398 -0.613665 
-0.0607783 -0.99691 -0.049761 -0.829141 -0.550948 0.0947723 -0.95442 -0.249975 0.163079 
-0.99744 -0.031617 0.0641324 -0.986204 0.0982145 0.13325 0.35443 0.703393 -0.616132 
-0.389217 0.867898 -0.308646 -0.4984 -0.86536 0.0524434 0.054939 -0.997114 -0.0523952 
0.421637 -0.90291 -0.083518 0.852207 -0.40761 -0.32802 0.822357 -0.0549019 -0.566317 
0.670038 0.393808 -0.629257 0.0167833 0.908335 -0.417907 -0.352427 -0.926366 0.132824 
0.352143 -0.930852 0.097515 0.69568 -0.717184 -0.0409356 -0.810159 -0.5516 0.198445 
-0.855319 0.507301 0.105234 0.706813 0.377397 -0.59832 -0.700777 0.711327 0.0540911 
0.633735 0.515107 -0.5771 -0.350123 0.913186 -0.208581 0.141565 0.888058 -0.437393 
0.446501 0.66447 -0.599264 -0.189194 -0.933293 0.305239 -0.0473367 -0.987866 0.147918 
0.535757 -0.84117 0.0734681 -0.790103 -0.496726 0.359167 -0.90322 -0.346231 0.253611 
-0.98651 0.112499 0.118922 -0.325091 0.943065 -0.070319 -0.0115507 0.910567 -0.413201 
-0.183936 0.97684 -0.109321 -0.371801 -0.858698 0.352708 -0.621183 -0.641373 0.450303 
-0.915244 -0.165694 0.367251 0.863807 0.0042159 -0.503805 0.355271 0.766254 -0.535385 
0.0357562 0.974721 -0.220546 -0.79637 -0.332639 0.505119 0.72737 -0.686189 -0.0087841 
-0.875628 0.221673 0.429111 0.643571 0.445403 -0.62244 0.0870674 -0.925665 0.36819 
-0.20293 -0.834167 0.512821 0.295243 0.800319 -0.521844 -0.0840447 0.943008 -0.321981 
0.396984 -0.885195 0.242557 0.47964 -0.829979 0.284745 -0.463579 -0.659254 0.592012 
-0.758222 -0.276451 0.590487 0.827959 -0.494581 -0.264336 0.869186 -0.347645 -0.351652 
-0.510615 0.854454 0.0958199 -0.235152 0.971637 -0.0249911 0.429707 0.633026 -0.643918 
0.480534 0.683042 -0.550037 -0.0683255 -0.841447 0.536002 -0.525561 -0.41742 0.741314 
-0.786032 -0.0784199 0.613192 -0.68103 0.557032 0.475303 -0.716686 0.660603 0.223526 
-0.253401 0.932304 0.258066 -0.294172 0.955689 -0.011045 0.0956801 0.958352 -0.269085 
-0.26025 -0.701172 0.663798 0.0474344 -0.803557 0.593334 -0.200763 -0.683342 0.701953 
-0.736181 0.147279 0.660566 0.880412 0.160166 -0.446342 0.680842 0.534617 -0.500638 
-0.162219 0.985672 0.0462069 0.395311 0.890205 -0.226416 -0.219991 -0.626844 0.747442 
0.365469 -0.794469 0.485027 -0.429072 0.838803 0.335122 0.728384 0.60121 -0.32864 
-0.469817 0.81453 0.340313 0.727407 -0.68613 0.0102153 0.864 -0.432546 -0.257696 
-0.626437 0.48767 0.608075 0.86099 0.471725 -0.190192 0.621478 0.754158 -0.212158 
0.721183 0.681246 -0.125699 0.377855 0.919981 -0.104211 -0.303276 -0.637745 0.708029 
-0.23147 -0.690882 0.684911 -0.628438 -0.332157 0.703376 -0.517159 0.509671 0.687591 
-0.387841 0.869934 0.304623 0.403163 0.91507 -0.0103104 0.574775 0.817735 0.0307067 
0.270377 -0.85077 0.450651 0.539269 -0.786326 0.301464 0.736424 -0.674638 0.0504318 
0.847139 -0.527887 -0.0607505 0.974584 -0.160158 -0.156637 0.996133 0.0856651 0.019487 
0.883128 0.460017 -0.0920248 -0.382845 0.749828 0.539618 0.0540221 0.951183 0.303864 
-0.158175 -0.666665 0.728381 -0.0421581 -0.674655 0.736929 -0.44506 -0.236551 0.863693 
0.90723 -0.383525 0.172749 -0.576542 0.162285 0.800788 0.88949 0.391829 0.235111 
-0.303766 0.684158 0.663064 0.754973 0.639811 0.143728 -0.365338 0.721264 0.588478 
0.504918 0.855695 0.11333 0.529665 0.839535 0.120982 0.585375 -0.689442 0.426621 
-0.20034 -0.333439 0.92124 0.763723 -0.541212 0.351876 -0.467776 -0.0601851 0.881796 
0.805378 -0.324856 0.495817 -0.345125 0.0767115 0.935416 -0.37794 0.215918 0.9003 
0.926905 -0.119845 0.355646 0.963878 -0.0607821 0.259316 0.875243 0.188052 0.44563 
0.643615 0.491733 0.58648 0.295562 0.932474 0.207691 -0.0176816 0.877432 0.479376 
0.800698 0.552936 0.230532 0.637903 0.548695 0.540383 0.330198 0.73173 0.596272 
0.201684 -0.667948 0.716358 0.620595 -0.515695 0.590696 -0.150608 -0.400752 0.903723 
-0.351945 -0.00507312 0.936007 -0.116396 -0.158484 0.980477 0.7044 -0.411301 0.578491 
-0.387244 0.430447 0.815327 0.614046 -0.0732433 0.785864 0.673178 0.178924 0.717508 
-0.0580702 0.597445 0.799804 0.327163 0.540215 0.775327 0.45889 -0.496358 0.736919 
-0.109225 -0.127574 0.985797 -0.0978373 0.292284 0.951314 0.130239 0.18182 0.974669 
0.315746 0.169575 0.933568 0.301066 0.197771 0.93287 -0.196598 0.477599 0.856299 
0.306956 0.303432 0.902057 0.275109 0.425617 0.86207 0.040105 -0.0461057 0.998131 
0.368833 -0.234419 0.89945 
