# vtk DataFile Version 4.2
vtk output
ASCII
DATASET POLYDATA
POINTS 408 float
247.385 274.541 146.601 247.298 274.567 146.629 247.498 274.499 146.627 
247.473 274.391 146.602 246.979 274.795 146.751 246.987 274.71 146.761 
246.94 274.764 146.819 247.375 274.616 146.707 247.042 274.75 146.732 
247.009 274.822 146.814 249.199 271.585 147.189 249.207 271.513 147.23 
249.11 271.617 147.223 249.203 271.679 147.205 247.506 273.769 146.744 
247.47 273.358 146.88 247.28 273.622 146.866 248.152 273.539 146.776 
246.976 273.882 147.004 248.022 273.854 146.747 246.771 274.22 147.23 
247.147 274.517 146.726 246.906 274.563 146.929 247.16 274.747 146.758 
248.017 274.284 146.968 247.004 274.861 146.956 247.143 274.839 146.897 
249.243 271.324 147.406 249.253 270.916 147.658 249.895 270.925 147.857 
248.765 271.593 147.315 249.405 271.633 147.342 247.987 272.338 147.127 
249.019 272.026 147.196 249.933 271.871 147.604 249.593 272.523 147.485 
249.964 272.348 147.719 246.759 273.038 147.702 249.372 273.283 147.632 
246.617 274.227 147.66 246.724 274.58 147.433 246.83 274.741 147.232 
246.942 274.842 147.101 247.105 274.863 147.115 248.367 270.328 148.163 
250.272 270.91 148.107 251.112 270.676 148.877 247.497 270.789 148.213 
251.01 271.168 148.701 246.96 272.09 147.91 250.282 272.286 148.03 
249.601 273.267 147.982 246.379 273.854 148.335 246.438 274.053 148.357 
249.223 273.694 148.061 246.711 274.526 147.704 246.803 274.702 147.454 
246.956 274.812 147.335 248.039 269.635 148.897 251.032 269.929 149.11 
247.114 270.694 148.712 246.987 270.486 149.111 251.578 270.98 149.552 
246.379 273.17 148.668 246.343 273.604 148.501 246.314 273.448 148.767 
248.448 274.257 148.004 248.475 274.186 148.505 246.578 274.232 148.396 
246.792 274.477 148.086 250.036 268.535 149.785 248.55 269.208 149.127 
251.705 270.056 149.932 246.895 269.981 149.96 251.833 270.944 150.162 
246.491 271.813 149.426 251.327 271.707 149.264 246.405 272.587 149.4 
246.328 273.168 149.03 246.339 273.444 149.019 246.419 273.696 149.006 
249.588 273.523 149.037 246.599 274.124 148.711 247.775 274.451 148.429 
250.228 268.034 150.532 248.165 268.331 150.883 251.06 268.546 150.429 
247.473 268.829 150.803 251.979 269.677 150.781 246.813 269.873 150.395 
252.065 270.915 150.939 251.441 272.075 149.974 251.558 271.972 150.122 
251.131 272.332 149.794 251.356 272.173 150.154 251.512 272.044 150.144 
250.502 272.828 149.951 247.262 274.017 149.277 248.292 273.967 149.389 
248.503 268.03 151.7 250.648 268.036 150.827 251.693 269.05 150.816 
246.752 269.922 150.814 246.603 270.554 150.703 252.19 270.038 151.469 
252.028 271.078 151.034 251.574 271.894 150.344 251.632 271.702 150.87 
251.33 272.117 150.536 251.025 272.346 150.631 247.075 273.237 150.274 
248.466 268.019 152.362 249.791 267.675 151.949 247.271 268.939 151.867 
247.056 269.264 151.852 252.005 269.242 151.663 252.153 269.624 151.873 
246.72 271.63 151.23 252.083 270.928 151.808 246.951 272.153 151.227 
247.094 272.92 150.704 247.265 272.777 151.015 250.464 272.547 150.985 
249.788 267.632 152.495 251.04 267.943 152.216 247.745 268.587 152.724 
246.888 269.678 151.822 252.146 269.61 152.484 246.706 270.697 151.651 
252.186 270.116 152.671 252.252 270.467 152.367 252.247 270.567 152.379 
252.176 270.635 152.396 247.84 272.424 151.668 248.69 272.017 152.299 
249.967 272.087 152.083 250.819 271.521 152.42 248.647 268.034 153.487 
249.366 267.712 153.179 250.541 267.706 152.632 251.307 268.116 152.979 
247.276 269.281 152.619 246.971 270.034 152.345 252.031 269.5 153.219 
252.188 269.878 153.031 252.215 269.986 152.966 252.202 269.933 153.062 
246.993 270.885 152.258 251.995 270.582 152.617 252.138 270.011 153.032 
247.253 271.453 152.246 247.422 271.275 152.546 250.614 271.255 152.862 
248.78 268.06 153.865 251.009 267.892 153.164 248.125 268.553 153.527 
247.924 268.892 153.499 247.571 269.573 153.209 251.85 268.842 153.573 
251.947 269.062 153.568 251.962 269.128 153.672 251.877 269.949 153.291 
251.699 269.519 153.701 252.121 269.854 153.145 247.147 270.76 152.567 
249.4 270.687 153.531 248.844 270.61 153.532 247.911 270.894 153.071 
249.369 271.194 153.121 248.66 268.195 153.956 248.864 268.13 154.076 
249.086 268.023 154.061 249.409 267.904 154.009 250.801 267.893 153.835 
248.5 268.405 153.909 247.826 269.742 153.452 248.522 269.218 154.063 
251.769 268.843 153.797 251.898 269.043 153.749 251.116 269.581 154.036 
248.069 270.464 153.375 249.139 269.722 154.128 249.388 268.062 154.236 
249.786 267.997 154.265 250.166 267.888 154.139 248.783 268.523 154.17 
249.194 268.454 154.373 249.593 268.283 154.441 249.963 268.156 154.483 
251.134 268.179 154.07 251.234 268.368 154.163 249.892 268.612 154.592 
250.256 268.462 154.61 250.894 268.652 154.446 250.62 268.537 154.571 
250.771 268.41 154.508 251.004 268.396 154.37 249.539 268.918 154.497 
249.855 268.81 154.641 250.029 268.792 154.649 250.395 268.826 154.539 
250.032 268.913 154.618 250.457 268.528 154.608 250.864 268.909 154.405 
249.858 268.932 154.609 249.908 269.212 154.439 250.235 268.229 154.555 
250.447 268.147 154.478 250.742 268.204 154.404 251.011 268.218 154.256 
249.947 268.852 154.665 249.391 268.473 302.277 249.092 268.503 302.377 
249.792 268.443 302.231 250.915 268.317 302.365 250.831 268.101 302.44 
251.056 268.238 302.464 249.082 268.863 302.246 250.452 268.638 302.228 
251.093 268.418 302.448 248.841 269.036 302.334 248.773 269.334 302.38 
249.445 269.091 302.165 251.122 268.627 302.489 248.798 269.646 302.447 
249.409 269.379 302.235 249.759 269.42 302.237 250.081 269.324 302.257 
250.847 269.182 302.502 248.983 268.116 302.901 248.838 268.043 303.241 
249.853 267.994 302.56 249.701 267.853 302.878 250.61 267.945 302.49 
250.499 267.825 302.674 250.796 267.939 302.525 250.737 267.865 302.618 
250.939 267.939 302.663 251.108 268.121 302.609 251.288 268.215 302.794 
251.413 268.498 302.89 247.821 269.488 302.989 247.788 269.677 303.025 
248.461 269.627 302.601 247.961 270.235 303.078 249.042 270.173 302.657 
250.022 267.713 303.104 250.763 267.798 302.868 251.027 267.883 302.915 
247.764 268.738 303.582 251.388 268.196 303.141 247.851 268.889 303.264 
251.555 268.466 303.211 251.652 268.604 303.421 247.368 269.251 303.73 
247.311 269.577 303.743 247.243 270.127 303.891 251.699 269.184 303.637 
251.04 270.062 303.266 250.408 270.812 303.519 251.206 270.233 303.635 
250.342 267.663 303.343 250.652 267.715 303.178 251.185 267.957 303.089 
251.445 268.183 303.539 247.372 269.111 303.916 247.293 269.174 304.288 
246.999 270.251 304.398 251.468 270.143 304.029 247.34 271.077 304.123 
247.559 271.26 303.986 250.811 270.928 303.937 247.711 271.614 304.18 
248.497 271.744 304.018 249.182 272.031 304.313 248.978 267.835 304.486 
251.037 267.829 303.579 251.199 267.934 303.748 251.36 268.083 303.738 
247.086 269.574 304.488 251.677 268.812 304.271 251.759 269.174 304.315 
251.766 269.456 304.531 251.644 270.03 304.335 246.846 271.471 305.173 
251.018 271.032 304.333 255.004 272.013 304.009 255.004 272.013 304.009 
255.004 272.013 304.009 255.004 272.013 304.009 247.398 271.968 304.79 
248.762 272.133 304.424 249.979 271.884 304.383 255.004 272.013 304.009 
247.105 272.307 305.377 248.168 272.601 305.08 248.583 272.51 304.913 
248.174 268.379 305.266 249.352 267.748 304.709 250.183 267.657 304.276 
250.779 267.808 304.362 247.753 268.755 305.38 247.099 269.566 305.294 
251.538 268.555 304.461 251.697 270.093 305.06 255.004 272.013 304.009 
247.202 272.721 305.701 250.084 272.617 305.817 248.414 268.231 305.503 
250.905 268.045 304.867 246.771 270.399 305.773 251.604 269.541 305.426 
251.434 270.917 305.714 251.574 270.574 305.713 250.651 272.176 305.86 
246.945 273.791 307.165 247.555 273.662 306.707 248.254 273.575 306.521 
247.735 273.94 307.108 248.134 268.824 306.256 248.674 268.379 306.09 
251.167 268.682 305.485 251.427 269.327 305.74 251.487 270.375 306.126 
246.226 273.813 307.859 250.86 271.994 306.536 246.195 274.051 308.077 
248.45 273.761 306.934 249.626 273.233 306.981 246.283 274.191 308.103 
248.083 274.053 307.416 249.447 268.189 305.98 250.239 268.293 305.857 
249.529 268.675 306.575 250.495 268.7 306.19 250.847 268.858 306.086 
251.005 269.638 306.577 250.852 271.788 306.977 246.142 274.096 308.249 
249.538 273.388 307.542 246.246 274.497 308.585 246.755 274.769 308.659 
248.86 269.142 307.059 247.981 269.99 307.434 250.555 269.904 307.131 
247.485 270.865 307.799 246.572 272.059 307.649 250.678 271.351 307.414 
250.048 272.794 307.578 246.21 274.312 308.683 249.36 273.516 307.97 
246.198 274.769 308.955 247.926 274.432 308.338 246.329 274.95 309.03 
246.279 274.979 309.204 247.99 274.449 308.677 246.361 275.092 309.204 
249.154 269.892 307.653 250.453 270.774 307.6 250.046 271.499 308.063 
249.803 272.943 307.952 246.789 275.058 309.257 246.998 274.972 309.321 
247.747 274.566 308.981 246.327 275.155 309.34 246.335 275.139 309.433 
246.548 275.172 309.376 246.358 275.22 309.432 246.418 275.238 309.447 
249.884 270.81 307.988 248.504 271.09 308.501 248.752 271.283 308.605 
249.097 271.502 308.563 247.266 273.258 309.292 248.206 272.639 309.172 
248.895 272.679 308.984 249.234 272.563 308.719 248.887 273.024 308.987 
246.497 274.024 309.165 246.573 274.194 309.351 248.874 273.684 308.694 
248.345 274.007 309.191 246.382 275.062 309.521 246.911 275.025 309.512 
246.408 275.173 309.547 246.405 275.223 309.503 246.548 275.163 309.565 
246.465 275.228 309.49 246.759 275.079 309.585 248.533 271.409 308.715 
247.59 273.215 309.382 247.827 273.853 309.617 247.023 274.277 309.665 
247.908 274.112 309.566 246.607 274.826 309.632 246.96 274.556 309.731 
247.627 274.447 309.575 247.723 274.289 309.624 246.552 275.035 309.67 
246.73 274.983 309.674 246.54 275.11 309.658 246.891 274.839 309.731 
247.037 274.823 309.679 247.314 274.063 309.671 247.014 274.692 309.747 
[...]
POINT_DATA 408
SCALARS scalars float
LOOKUP_TABLE default
1 1 1 1 1 1 1 1 1 
1 1 1 1 1 1 1 1 1 
1 1 1 1 1 1 1 1 1 
1 1 1 1 1 1 1 1 1 
1 1 1 1 1 1 1 1 1 
1 1 1 1 1 1 1 1 1 
1 1 1 1 1 1 1 1 1 
1 1 1 1 1 1 1 1 1 
1 1 1 1 1 1 1 1 1 
1 1 1 1 1 1 1 1 1 
1 1 1 1 1 1 1 1 1 
1 1 1 1 1 1 1 1 1 
1 1 1 1 1 1 1 1 1 
1 1 1 1 1 1 1 1 1 
1 1 1 1 1 1 1 1 1 
1 1 1 1 1 1 1 1 1 
1 1 1 1 1 1 1 1 1 
1 1 1 1 1 1 1 1 1 
1 1 1 1 1 1 1 1 1 
1 1 1 1 1 1 1 1 1 
1 1 1 1 1 1 1 1 1 
1 1 1 1 1 1 1 1 1 
1 1 1 1 1 1 1 1 1 
1 1 1 1 1 1 1 1 1 
1 1 1 1 1 1 1 1 1 
1 1 1 1 1 1 1 1 1 
1 1 1 1 1 1 1 1 1 
1 1 1 1 1 1 1 1 1 
1 1 1 1 1 1 1 1 1 
1 1 1 1 1 1 1 1 1 
1 1 1 1 1 1 1 1 1 
1 1 1 1 1 1 1 1 1 
1 1 1 1 1 1 1 1 1 
1 1 1 1 1 1 1 1 1 
1 1 1 1 1 1 1 1 1 
1 1 1 1 1 1 1 1 1 
1 1 1 1 1 1 1 1 1 
1 1 1 1 1 1 1 1 1 
1 1 1 1 1 1 1 1 1 
1 1 1 1 1 1 1 1 1 
1 1 1 1 1 1 1 1 1 
1 1 1 1 1 1 1 1 1 
1 1 1 1 1 1 1 1 1 
1 1 1 1 1 1 1 1 1 
1 1 1 1 1 1 1 1 1 
1 1 1 
NORMALS Normals float
0.112645 0.455399 -0.883133 -0.419316 0.163422 -0.89301 0.535133 0.550671 -0.64062 
-0.00852353 -0.0812089 -0.996661 -0.528116 0.450104 -0.720069 -0.635005 -0.207392 -0.744149 
-0.856387 0.412872 -0.310061 0.188552 0.819363 -0.54138 0.00476844 0.330407 -0.943826 
-0.0906226 0.910563 -0.403315 0.374328 -0.180533 -0.909553 -0.537407 -0.547176 -0.64171 
-0.341239 -0.305012 -0.889114 0.204271 0.132423 -0.969916 -0.25656 -0.227712 -0.939321 
-0.397026 -0.38381 -0.833703 -0.503906 -0.292936 -0.812568 0.378159 0.0457915 -0.924607 
-0.717662 -0.247476 -0.650936 0.248735 -0.0366056 -0.96788 -0.922173 -0.066847 -0.380958 
-0.421352 0.0378516 -0.906107 -0.841995 -0.125183 -0.524761 0.180384 0.589045 -0.78771 
0.649677 0.600271 -0.466471 -0.277773 0.948913 -0.149691 0.388384 0.897481 -0.209011 
0.344651 -0.45815 -0.819337 0.00639674 -0.652479 -0.75778 0.459127 -0.360699 -0.811849 
-0.179099 -0.430753 -0.88452 0.485415 0.00843275 -0.874243 -0.187086 -0.32566 -0.926792 
0.194393 -0.0289763 -0.980496 0.605649 -0.0894001 -0.790694 0.554226 0.34168 -0.759004 
0.581973 0.252265 -0.773091 -0.759948 -0.300197 -0.576508 0.577345 0.368639 -0.728545 
-0.957632 0.0696449 -0.279448 -0.930368 0.348565 -0.113657 -0.890193 0.415245 -0.187423 
-0.481371 0.876502 -0.00517029 0.090422 0.992747 0.0792331 -0.270206 -0.640554 -0.718804 
0.440316 -0.488677 -0.753205 0.723805 -0.134101 -0.676848 -0.376381 -0.473832 -0.796129 
0.641986 -0.0436412 -0.765473 -0.799299 -0.310918 -0.514249 0.766616 0.50059 -0.402132 
0.791858 0.541154 -0.283044 -0.951173 -0.0293966 -0.307254 -0.885537 0.456706 0.0851144 
0.676699 0.730474 -0.0921261 -0.759878 0.629871 0.160773 -0.651607 0.737835 0.176094 
-0.309742 0.914668 0.259698 -0.377799 -0.773443 -0.508973 0.581693 -0.392717 -0.712325 
-0.730154 -0.557221 -0.395449 -0.858848 -0.34305 -0.380391 0.868191 -0.0404304 -0.494581 
-0.926803 -0.239662 -0.289132 -0.99042 0.12573 -0.0571045 -0.99927 0.0143947 -0.0353938 
0.485584 0.873807 -0.0258894 0.363095 0.906507 0.215421 -0.705074 0.68712 0.175318 
-0.446008 0.846828 0.289757 0.221572 -0.684162 -0.694859 -0.331595 -0.814505 -0.476053 
0.858494 -0.237049 -0.454748 -0.793492 -0.48299 -0.370258 0.943367 0.195982 -0.267673 
-0.982264 -0.154888 -0.105671 0.862575 0.200422 -0.464538 -0.991479 -0.126006 -0.0330489 
-0.946568 -0.0352632 0.320571 -0.886409 0.229541 0.401983 -0.776849 0.406621 0.480796 
0.592021 0.80572 0.0180793 -0.577093 0.714298 0.395908 0.192229 0.943026 0.27157 
0.121803 -0.926765 -0.355345 -0.398377 -0.87999 -0.258678 0.563233 -0.641866 -0.520362 
-0.693715 -0.672632 -0.257537 0.933342 -0.22348 -0.280943 -0.896705 -0.42511 -0.123294 
0.959177 0.164628 -0.22995 0.784196 0.545738 -0.295308 0.901004 0.403881 -0.158342 
0.57903 0.814443 -0.0375088 0.61949 0.779795 0.0902899 0.746564 0.664653 0.029638 
0.566209 0.822938 0.046691 -0.146467 0.84914 0.507453 0.22259 0.901011 0.372335 
-0.30607 -0.926882 -0.217282 0.539813 -0.804404 -0.248064 0.836036 -0.475556 -0.273661 
-0.972093 -0.232612 -0.0304404 -0.983667 -0.140862 -0.112059 0.988831 -0.118368 -0.0905675 
0.902443 0.411922 -0.126163 0.837025 0.530157 0.135361 0.709973 0.674224 0.203372 
0.627599 0.759232 0.172296 0.550179 0.803422 0.227633 -0.491849 0.681012 0.542501 
-0.431908 -0.901853 0.0108201 -0.0619287 -0.990156 -0.125519 -0.710493 -0.702497 0.0412069 
-0.886909 -0.447077 0.116253 0.84686 -0.517873 -0.120978 0.984963 -0.155591 -0.0750895 
-0.922571 0.249163 0.294584 0.977625 0.205275 -0.0459523 -0.734258 0.516614 0.440426 
-0.297633 0.815374 0.496569 -0.57383 0.691349 0.439039 0.39202 0.845318 0.362984 
0.0668291 -0.993337 -0.0938917 0.420025 -0.893058 -0.161328 -0.666522 -0.723405 0.180093 
-0.948494 -0.265788 0.172383 0.969928 -0.243271 0.00761122 -0.962445 0.0425678 0.268118 
0.999518 -0.016471 0.026325 0.939313 -0.2208 -0.262562 0.871285 0.356784 0.336999 
0.602043 0.692409 0.397635 -0.181234 0.790389 0.585183 -0.0761794 0.774023 0.628558 
0.25675 0.800234 0.541945 0.341198 0.781646 0.522124 -0.581121 -0.786109 0.210548 
-0.207428 -0.966413 0.151724 0.238313 -0.971161 0.00727383 0.714032 -0.700068 0.00802121 
-0.850104 -0.379291 0.365323 -0.91188 -0.108246 0.395927 0.961069 -0.108065 0.254299 
0.931596 -0.358403 0.0606247 0.951114 0.265993 0.15694 0.842853 0.165213 0.512156 
-0.879947 0.204745 0.428687 0.577656 0.608638 0.543942 0.561004 0.60792 0.561879 
-0.648231 0.500033 0.57425 -0.534904 0.514794 0.669974 0.275883 0.654974 0.70349 
-0.489071 -0.832269 0.261033 0.556907 -0.822863 0.112918 -0.774876 -0.462203 0.431203 
-0.777369 -0.242297 0.580508 -0.833531 -0.0691943 0.548123 0.869872 -0.486255 0.0829335 
0.911135 -0.404717 0.0776992 0.907628 0.0207749 0.419261 0.560371 0.417996 0.715027 
0.62829 0.357705 0.690869 0.689122 0.104572 0.717061 -0.712282 0.233429 0.66194 
-0.0148973 0.709731 0.704315 -0.258499 0.638732 0.724706 -0.359746 0.492435 0.792522 
0.0122558 0.697934 0.716057 -0.68078 -0.597632 0.423527 -0.443478 -0.510518 0.736681 
-0.329773 -0.626921 0.705847 -0.178614 -0.909308 0.37584 0.334678 -0.909148 0.247871 
-0.721326 -0.418445 0.551899 -0.550311 0.214045 0.807058 -0.554294 -0.000305726 0.832321 
0.81033 -0.461804 0.360696 0.729199 -0.108052 0.675717 0.408161 0.407031 0.817148 
-0.386361 0.543465 0.745233 -0.261104 0.374609 0.889659 -0.250633 -0.667157 0.701487 
-0.0943642 -0.824302 0.558231 0.0894854 -0.905069 0.415743 -0.451151 -0.237077 0.860382 
-0.376266 -0.133084 0.916904 -0.28504 -0.435282 0.85398 -0.161487 -0.463604 0.871202 
0.595725 -0.740679 0.310655 0.729939 -0.526931 0.435354 -0.145841 -0.208625 0.967061 
-0.060638 -0.0628815 0.996177 0.468488 0.138983 0.87247 0.286244 0.101701 0.952744 
0.348862 -0.234444 0.907376 0.600147 -0.137377 0.788005 -0.35521 0.16517 0.920079 
-0.277499 -0.0870635 0.956773 0.157459 -0.136312 0.978072 0.200474 0.22485 0.953547 
0.192096 0.440104 0.877159 0.157845 -0.159083 0.974565 0.441097 0.290666 0.849086 
-0.196191 0.43741 0.8776 0.0553142 0.513384 0.856374 0.0178895 -0.557984 0.829659 
0.188577 -0.604833 0.773703 0.321171 -0.600053 0.732656 0.448276 -0.728998 0.51731 
-0.0207156 0.192742 0.981031 -0.193043 -0.508325 -0.83925 -0.493677 -0.604079 -0.625597 
-0.0322285 -0.429049 -0.902706 0.258244 -0.198666 -0.945432 0.348065 -0.505205 -0.789695 
0.587524 -0.370443 -0.719435 -0.284905 -0.0262711 -0.958196 0.231667 0.0600323 -0.970941 
0.659141 -0.0737151 -0.748398 -0.519163 -0.11011 -0.847553 -0.354825 0.129894 -0.925866 
-0.0571925 0.0314206 -0.997869 0.661847 0.163336 -0.731628 -0.225387 0.34537 -0.910999 
-0.170877 0.28038 -0.944557 0.0314223 0.398382 -0.916681 0.224855 0.358318 -0.906117 
0.45186 0.350585 -0.820312 -0.520553 -0.701151 -0.487249 -0.546795 -0.776322 -0.313591 
-0.207298 -0.731218 -0.649883 -0.33192 -0.906978 -0.25927 -0.0497801 -0.683727 -0.728038 
-0.037706 -0.925362 -0.377206 0.325948 -0.679114 -0.657694 0.199401 -0.882019 -0.426944 
0.514619 -0.738285 -0.436007 0.592189 -0.584808 -0.554357 0.794874 -0.421073 -0.43689 
0.885346 -0.095705 -0.454977 -0.628731 -0.079845 -0.773513 -0.778241 -0.00328818 -0.627957 
-0.471076 0.23247 -0.850908 -0.484909 0.329131 -0.810269 -0.0979897 0.568152 -0.817068 
-0.395906 -0.899218 -0.186184 0.268278 -0.946667 -0.178463 0.514385 -0.825817 -0.23116 
-0.676003 -0.695516 -0.243471 0.82278 -0.541219 -0.173535 -0.768895 -0.394681 -0.503018 
0.896834 -0.326169 -0.298836 0.95405 -0.276635 -0.115159 -0.870499 -0.298925 -0.390994 
-0.918833 -0.125567 -0.374136 -0.835558 0.121342 -0.535836 0.92932 0.163339 -0.331187 
0.640778 0.460127 -0.614563 0.307028 0.695487 -0.649639 0.672003 0.523341 -0.523953 
-0.0346105 -0.998127 0.0504378 0.226563 -0.966328 -0.121984 0.569878 -0.815022 -0.104777 
0.790057 -0.611307 -0.0459775 -0.843823 -0.50112 -0.191944 -0.879444 -0.469237 -0.0799641 
-0.961185 -0.0324324 -0.273992 0.795034 0.486243 -0.362614 -0.771058 0.348858 -0.532698 
-0.50684 0.479024 -0.716693 0.516394 0.71433 -0.472303 -0.549603 0.574447 -0.606587 
-0.0771434 0.669671 -0.73864 0.12147 0.770054 -0.626309 -0.400392 -0.914876 -0.0518484 
0.512776 -0.858089 -0.0272741 0.604092 -0.792205 0.0865162 0.783255 -0.614186 0.0963759 
-0.939289 -0.315171 -0.135659 0.95242 -0.283663 0.111497 0.998575 -0.0473513 -0.0246288 
0.976279 -0.131952 0.171659 0.930148 0.32098 -0.178314 -0.845482 0.310703 -0.434309 
0.657362 0.666567 -0.351516 0.428453 -0.693747 -0.578916 -0.901196 0.154696 -0.404865 
0.636041 0.498968 -0.588628 0.897334 -0.157585 0.41226 -0.41248 0.640671 -0.647611 
-0.030031 0.807731 -0.588786 0.373475 0.710667 -0.596212 -0.412061 0.68568 0.60004 
-0.644552 0.546377 -0.534813 -0.24455 0.726088 -0.642644 0.00238097 0.780934 -0.624608 
-0.645538 -0.740062 0.18865 -0.0408981 -0.965689 0.256462 0.0477169 -0.987823 0.148086 
0.455073 -0.867508 0.200842 -0.71982 -0.687833 0.0935146 -0.865315 -0.463861 0.189902 
0.816827 -0.512423 0.264983 0.924839 0.372954 -0.0746906 -0.614221 -0.504233 0.607026 
-0.494675 0.667146 -0.556968 0.39343 0.847762 -0.355685 -0.419036 -0.864911 0.276295 
0.407934 -0.831962 0.376071 -0.925792 -0.353116 0.134975 0.931899 -0.251876 0.261002 
0.918906 0.38656 0.0786338 0.972466 0.0659344 0.223524 0.702605 0.67491 -0.225483 
-0.460574 0.67923 -0.571418 -0.0347956 0.823503 -0.566244 0.0846725 0.850353 -0.519356 
-0.0487382 0.837845 -0.543728 -0.514586 -0.698845 0.496807 -0.384618 -0.752552 0.534541 
0.718531 -0.569104 0.399793 0.858774 -0.316088 0.403231 0.913847 0.039449 0.404137 
-0.792324 0.347677 -0.501341 0.785137 0.617925 0.0415801 -0.785525 0.418279 -0.456063 
0.207474 0.880468 -0.426299 0.49095 0.843216 -0.218984 -0.541728 0.647846 -0.535562 
0.239827 0.877676 -0.414931 0.0261792 -0.866406 0.498654 0.310759 -0.819178 0.482054 
0.0130883 -0.701774 0.712279 0.364819 -0.640455 0.675814 0.592389 -0.572132 0.567222 
0.682701 -0.365606 0.632655 0.852363 0.301555 0.427249 -0.994401 0.0499704 -0.0931119 
0.637857 0.77 0.0154572 -0.853458 0.418824 -0.310153 0.0876494 0.884943 -0.457378 
-0.0500388 -0.661147 0.748586 -0.574537 -0.583485 0.573979 0.548918 -0.417051 0.724402 
-0.507224 -0.529132 0.680252 -0.836042 -0.427266 0.344206 0.796457 -0.000407528 0.604695 
0.815013 0.512754 0.269882 -0.958087 -0.123923 0.258286 0.645047 0.7393 0.193264 
-0.963083 0.258733 -0.0743515 0.417339 0.89776 -0.140911 -0.556169 0.677388 -0.481478 
-0.943751 0.326087 -0.0547885 0.592478 0.800218 0.0928447 -0.312953 0.802513 -0.507969 
0.0428978 -0.585996 0.809177 0.665037 -0.167666 0.727745 0.69449 0.0441946 0.718144 
0.788529 0.398053 0.468802 0.373852 0.898853 -0.228688 0.449719 0.886962 -0.105127 
0.439238 0.898227 -0.0160913 -0.715919 0.637433 -0.284848 -0.920196 0.162446 0.35616 
0.319083 0.918524 -0.233453 -0.691772 0.71686 0.0869597 -0.0367634 0.971281 -0.235078 
0.4349 -0.327655 0.838752 0.060783 -0.63442 0.770595 0.341036 -0.611081 0.714335 
0.403987 -0.379057 0.832532 -0.358289 -0.46234 0.811092 0.0244979 -0.37908 0.92504 
0.446402 -0.170161 0.878505 0.582381 -0.0536983 0.81114 0.680131 0.185563 0.709216 
-0.80783 -0.3446 0.478185 -0.630229 -0.39324 0.669457 0.739514 0.607777 0.289355 
0.688541 0.529703 0.495304 -0.845706 -0.15776 0.509796 0.507084 0.829992 0.232333 
-0.591843 0.45132 0.667856 -0.383635 0.755445 0.531156 0.193853 0.845096 0.498231 
0.271577 0.942436 0.19509 0.377585 0.880289 0.287264 -0.0401368 -0.44882 0.89272 
-0.197273 -0.396902 0.896411 0.180884 -0.144068 0.972895 -0.23389 -0.324485 0.916518 
0.600809 0.288154 0.745651 -0.421058 -0.209085 0.882606 -0.281363 -0.218062 0.934497 
0.599553 0.672502 0.433909 0.388337 0.21838 0.895268 -0.130361 -0.0411275 0.990613 
0.144102 0.418572 0.896678 0.0883318 0.549623 0.83073 0.00626594 0.242389 0.970159 
0.400962 0.584825 0.70513 -0.209179 -0.33396 0.919084 0.0446426 -0.000838541 0.999003 
0.339214 0.341585 0.876501 -0.44223 0.263126 0.857437 0.972957 -0.0259634 -0.229523 

