# vtk DataFile Version 4.2
vtk output
ASCII
DATASET POLYDATA
POINTS 565 float
300.112 246.172 81.7888 296.92 246.507 81.5486 298.763 246.845 81.2742 
301.168 246.805 81.7602 301.012 246.588 81.8429 301.241 246.748 81.9817 
301.377 246.949 81.8759 293.899 247.697 81.4528 296.093 247.84 81.0707 
301.377 247.221 81.6906 301.341 247.5 81.5866 301.618 247.525 81.8371 
298.052 248.723 80.7966 301.6 247.671 81.6643 301.659 247.792 81.6605 
301.528 248.179 81.6684 299.48 250.821 80.9848 298.085 245.788 82.3244 
299.406 245.937 82.0829 300.623 246.234 82.0015 300.613 246.191 82.2489 
293.43 246.642 82.2116 301.708 247.806 81.7541 301.838 248.176 82.0071 
293.865 249.509 81.1492 300.429 249.33 81.2609 302.007 248.91 82.2391 
301.946 249.632 82.2528 293.086 250.911 81.1668 302.277 250.29 82.7473 
299.427 251.349 81.1369 300.134 252.596 81.6021 294.519 253.84 81.2651 
297.021 254.979 81.5725 295.842 245.77 82.4278 292.315 246.444 82.7736 
301.722 247.278 82.6049 301.903 247.595 82.8382 301.996 248.018 82.4085 
288.098 248.591 82.8423 291.74 252.21 81.4667 292.591 252.204 81.3004 
294.527 252.248 81.0336 300.394 254.304 82.1707 301.847 254.03 82.9716 
298.908 256.966 82.6225 295.841 245.416 83.466 295.414 245.475 83.1302 
299.684 245.857 82.6941 294.336 245.645 83.0309 289.675 247.065 83.1945 
302.044 248.08 83.2594 302.988 251.589 84.0673 302.996 252.505 84.0879 
302.847 252.963 83.9081 302.445 254.268 83.7609 290.616 256.463 82.413 
299.309 258.783 83.6999 300.043 258.669 84.0014 293.393 260.56 83.4665 
296.102 260.172 83.4687 293.805 245.369 84.3581 293.38 245.461 83.9349 
297.74 245.608 84.1434 292.52 245.708 83.6862 299.337 245.924 83.759 
289.806 246.214 84.0158 301.407 247.153 83.715 303.083 252.631 84.4657 
302.868 253.568 84.197 284.144 254.535 84.0873 301.845 256.842 84.4164 
297.897 261.199 84.5261 291.567 245.469 84.7937 291.038 245.404 85.451 
290.382 245.76 84.5262 296.655 245.591 84.948 300.86 246.608 83.659 
283.614 247.203 85.5619 288.642 246.087 84.7163 282.093 248.326 85.4917 
281.061 249.204 85.6727 280.993 249.654 85.5871 281.601 251.814 85.0499 
303.025 251.741 84.6788 302.331 257.073 85.4532 302.484 256.83 85.8521 
301.532 258.538 85.1741 301.682 258.858 85.6718 298.042 262.92 85.8687 
290.212 264.286 85.7201 296.239 263.901 86.0781 288.902 245.449 86.3885 
288.458 245.571 85.9103 290.214 245.494 85.3754 297.661 245.99 85.4239 
281.026 248.129 86.16 302.11 249.459 85.1903 302.732 251.782 85.7563 
302.976 253.965 85.5742 302.548 256.868 86.5291 301.096 260.582 86.3596 
298.56 246.975 86.4868 299.942 246.982 85.4112 302.653 254.772 86.7526 
300.084 262.152 86.7278 299.175 262.95 86.7313 296.549 264.863 87.3352 
289.454 245.464 87.4279 281.915 246.173 87.7007 279.043 247.159 88.1707 
295.57 266.053 88.5373 292.986 266.917 88.919 279.275 246.424 89.2067 
274.937 248.037 90.5238 302.087 258.934 88.6974 301.729 260.103 88.7426 
299.147 263.938 88.7362 297.402 265.166 88.5034 289.425 267.304 88.9399 
280.441 245.904 89.6095 281.593 245.678 89.565 276.849 246.843 90.5025 
273.872 248.61 90.8862 272.27 249.655 91.3862 300.461 262.468 89.5205 
294.508 266.96 89.9942 294.679 267.006 90.5288 280.587 245.835 90.0177 
288.848 246.971 90.9813 272.935 248.96 91.4331 298.678 264.621 90.1662 
297.214 265.741 90.3782 276.574 246.586 91.9335 281.283 245.928 91.2167 
281.983 245.977 91.4242 300.131 262.687 90.8051 294.191 267.191 91.8559 
284.602 269.72 92.7219 276.985 246.459 92.5835 280.084 246.184 92.1626 
270.892 249.436 93.7521 288.892 249.152 93.4802 269.006 251.07 93.8699 
299.958 261.282 92.3911 300.348 261.546 91.5923 299.172 263.743 91.6095 
296.006 266.285 92.1726 274.774 247.22 93.4053 277.926 246.629 93.6666 
282.681 247.102 93.5138 285.763 248.358 93.9867 298.18 257.906 93.9401 
299.042 259.746 93.4851 299.278 261.239 93.2404 299.006 261.92 93.3645 
298.347 263.751 93.1004 275.201 247.113 94.0957 276.611 246.981 94.4796 
272.646 248.235 94.7505 297.993 261.029 94.5315 295.25 265.847 94.395 
273.468 268.409 95.3866 269.783 249.725 96.39 294.477 255.161 95.4698 
269.016 265.365 96.2717 292.068 267.402 95.1979 286.089 270.014 95.7268 
277.944 247.981 96.4912 267.034 251.762 97.0012 265.582 254.927 96.8933 
265.735 257.516 96.4639 267.534 265.502 97.842 269.294 267.277 97.485 
286.088 269.976 96.1912 282.945 270.95 96.9852 266.081 252.653 98.6596 
265.879 252.979 98.5001 266 252 98 266 252 98 
266 252 98 266 252 98 266 252 98 
265.079 254.768 98.2193 292.349 264.636 98.0214 269.086 268.345 98.815 
273.604 270.573 98.3763 278.79 271.579 98.7876 269.938 249.935 98.3485 
266.613 252.078 98.8834 280.022 250.263 98.9343 266 252 98.0001 
264.474 255.899 99.5139 290.495 265.25 99.1417 269.322 269.212 99.8404 
286.954 268.922 98.1926 271.805 270.502 99.8194 278.935 271.663 99.3803 
271.181 249.548 98.6341 267.005 251.904 99.5096 264.996 254.803 100.193 
264.084 257.018 100.137 288.095 255.721 99.9874 286.317 268.103 100.148 
268.589 268.996 100.579 276.972 271.776 100.022 278.67 271.706 100.267 
270.836 250.861 100.479 267.201 252.127 100.192 265.91 253.665 100.7 
264.112 257.269 100.789 263.947 258.071 100.078 263.982 259.74 101.09 
267.23 267.941 101.037 280.058 271.258 100.654 268.08 252.936 101.698 
266.375 254.284 101.801 263.945 259.862 101.767 263.908 260.105 101.746 
263.931 260.314 101.824 288.834 261.456 101.674 264.007 260.547 101.765 
269.448 270.174 102.481 269.077 254.465 103.323 265.273 256.439 102.203 
264.368 257.837 101.744 264.224 259.071 102.062 263.959 260.182 101.94 
264.437 261.992 102.637 271.514 271.125 103.069 264.553 261.094 103.177 
264.573 262.405 103.631 272.624 271.333 104.289 275.079 253.687 103.7 
265.385 265.309 103.99 280.174 256.574 105.195 282.931 263.388 105.82 
265.316 264.07 104.899 272.265 271.249 105.604 265.736 263.094 105.534 
268.618 269.798 106.265 275.176 270.729 105.63 281.094 260.36 106.846 
266.623 266.104 106.935 279.557 265.992 107.478 266.805 267.531 106.712 
276.939 267.775 108.06 267.668 268.78 106.836 273.47 270.571 106.8 
279.981 259.518 107.063 268.351 263.495 107.907 268.191 268.642 107.853 
269.675 269.8 107.843 272.533 270.066 107.988 272.87 269.858 108.196 
270.065 263.539 108.846 279.035 263.904 108.441 268.089 267.101 108.378 
268.546 267.683 108.724 276.278 266.871 109.009 270.165 269.559 108.511 
270.969 269.858 108.364 268.97 266.463 109.043 275.323 266.279 109.6 
269.419 267.539 109.469 269.369 267.684 109.488 269.365 267.76 109.478 
269.38 268.122 109.333 269.096 268.74 108.717 269.508 268.318 109.268 
272.16 268.68 109.328 272.208 265.877 109.998 273.659 265.512 110.048 
269.505 267.719 109.516 271.903 267.513 109.743 270.741 268.707 109.456 
271.316 268.665 109.517 271.504 268.845 109.378 271.088 269.01 109.315 
270.946 268.841 109.44 270.949 267.061 346.678 271.052 268.113 346.934 
274.013 263.629 347.097 276.286 264.597 347.202 270.908 266.185 346.877 
269.859 267.276 347.377 270.346 267.833 347.181 270.238 268.805 347.667 
271.81 269.04 347.355 271.432 269.606 347.826 277.234 261.586 347.953 
270.283 264.28 347.561 278.327 264.807 347.849 277.176 265.72 347.497 
268.324 267.228 348.548 275.37 268.477 347.738 269.058 269.184 348.935 
270.139 270.298 349.32 268.229 265.871 348.401 276.985 266.921 347.709 
272.936 269.937 348.132 268.927 269.777 349.896 281.481 260.018 349.811 
270.508 260.394 349.11 282.303 262.209 349.857 281.248 264.501 349.464 
267.05 267.679 350.518 268.392 269.6 350.735 274.186 270.448 349.111 
266.001 263.796 350.671 271.603 271.428 350.839 282.336 257.53 351.635 
266.506 260.137 351.485 265.862 261.44 351.629 268.632 270.042 351.885 
272.096 271.59 351.324 272.163 271.566 350.996 283.442 258.837 351.538 
265.574 259.583 352.641 285.99 261.758 352.609 265.38 262.446 352.112 
276.46 271.031 351.397 280.955 255.139 352.81 265.008 259.885 353.255 
264.974 260.34 353.341 268.631 270.035 353.513 280.514 270.135 352.873 
275.376 252.372 354.072 269.29 253.213 354.282 267.778 269.105 354.36 
273.958 271.918 354.355 267.645 252.698 355.715 290.969 260.317 356.203 
289.853 262.765 355.477 288.885 263.952 355.078 265.409 264.824 354.991 
281.91 270.893 355.692 272.831 250.025 356.853 276.118 249.67 357.097 
267.929 251.528 357.382 265.774 253.486 356.479 265.604 253.449 356.744 
265.903 253.088 356.86 265.071 254.72 356.248 264.82 255.52 356.051 
264.551 256.086 356.425 268.072 268.755 355.8 269.574 269.915 355.746 
268.302 251.145 357.99 265.854 252.919 357.134 265.775 252.952 357.201 
265.752 253.039 357.108 266.516 252.47 357.25 265.849 252.892 357.238 
266.119 252.736 357.291 265.15 253.977 357.027 264.7 255.645 356.833 
264.467 256.659 356.545 286.441 269.026 356.869 271.435 270.588 356.618 
279.162 271.848 356.408 273.91 248.766 358.602 267.527 251.541 358.206 
265.75 253.045 357.346 266.844 251.978 358.848 266.691 252.117 358.486 
265.839 253.108 358.346 266.178 264.222 357.655 267.479 266.674 357.56 
290.497 266.894 358.229 269.897 269.12 357.584 283.684 270.874 357.843 
272.143 248.878 359.254 266.245 252.534 358.639 288.336 253.361 358.381 
270.814 268.594 359.062 279.703 271.635 358.678 272.881 248.138 360.798 
295.675 259.022 359.851 294.857 264.512 359.812 293.907 265.99 360.251 
272.064 248.462 361.458 267.133 252.154 360.227 265.905 258.305 359.919 
294.048 266.618 361.253 275.687 270.134 360.565 267.033 252.761 360.701 
298.96 260.393 362.525 298.847 261.875 362.519 273.095 267.187 361.933 
297.635 265.203 363.397 291.178 268.584 361.989 274.746 247.217 362.975 
272.03 248.583 362.915 266.742 255.382 361.254 300.072 261.496 363.904 
299.687 262.61 363.935 296.227 266.487 363.959 280.286 246.171 364.159 
275.16 247.127 363.782 275.884 246.917 364.024 281.444 246.516 363.4 
271.55 248.965 363.097 269.129 251.913 363.016 267.946 253.191 362.189 
268.704 254.472 363.171 299.174 263.748 364.346 293.138 267.996 364.206 
[...]
POINT_DATA 565
SCALARS scalars float
LOOKUP_TABLE default
1 1 1 1 1 1 1 1 1 
1 1 1 1 1 1 1 1 1 
1 1 1 1 1 1 1 1 1 
1 1 1 1 1 1 1 1 1 
1 1 1 1 1 1 1 1 1 
1 1 1 1 1 1 1 1 1 
1 1 1 1 1 1 1 1 1 
1 1 1 1 1 1 1 1 1 
1 1 1 1 1 1 1 1 1 
1 1 1 1 1 1 1 1 1 
1 1 1 1 1 1 1 1 1 
1 1 1 1 1 1 1 1 1 
1 1 1 1 1 1 1 1 1 
1 1 1 1 1 1 1 1 1 
1 1 1 1 1 1 1 1 1 
1 1 1 1 1 1 1 1 1 
1 1 1 1 1 1 1 1 1 
1 1 1 1 1 1 1 1 1 
1 1 1 1 1 1 1 1 1 
1 1 1 1 1 1 1 1 1 
1 1 1 1 1 1 1 1 1 
1 1 1 1 1 1 1 1 1 
1 1 1 1 1 1 1 1 1 
1 1 1 1 1 1 1 1 1 
1 1 1 1 1 1 1 1 1 
1 1 1 1 1 1 1 1 1 
1 1 1 1 1 1 1 1 1 
1 1 1 1 1 1 1 1 1 
1 1 1 1 1 1 1 1 1 
1 1 1 1 1 1 1 1 1 
1 1 1 1 1 1 1 1 1 
1 1 1 1 1 1 1 1 1 
1 1 1 1 1 1 1 1 1 
1 1 1 1 1 1 1 1 1 
1 1 1 1 1 1 1 1 1 
1 1 1 1 1 1 1 1 1 
1 1 1 1 1 1 1 1 1 
1 1 1 1 1 1 1 1 1 
1 1 1 1 1 1 1 1 1 
1 1 1 1 1 1 1 1 1 
1 1 1 1 1 1 1 1 1 
1 1 1 1 1 1 1 1 1 
1 1 1 1 1 1 1 1 1 
1 1 1 1 1 1 1 1 1 
1 1 1 1 1 1 1 1 1 
1 1 1 1 1 1 1 1 1 
1 1 1 1 1 1 1 1 1 
1 1 1 1 1 1 1 1 1 
1 1 1 1 1 1 1 1 1 
1 1 1 1 1 1 1 1 1 
1 1 1 1 1 1 1 1 1 
1 1 1 1 1 1 1 1 1 
1 1 1 1 1 1 1 1 1 
1 1 1 1 1 1 1 1 1 
1 1 1 1 1 1 1 1 1 
1 1 1 1 1 1 1 1 1 
1 1 1 1 1 1 1 1 1 
1 1 1 1 1 1 1 1 1 
1 1 1 1 1 1 1 1 1 
1 1 1 1 1 1 1 1 1 
1 1 1 1 1 1 1 1 1 
1 1 1 1 1 1 1 1 1 
1 1 1 1 1 1 1 
NORMALS Normals float
0.206382 -0.5873 -0.782614 -0.0904786 -0.622045 -0.777736 0.0306774 -0.439326 -0.897804 
0.373126 -0.467687 -0.801278 0.582511 -0.749075 -0.315542 0.716329 -0.682133 -0.146861 
0.789658 -0.545236 -0.281349 -0.302222 -0.33803 -0.89129 -0.0807157 -0.144694 -0.986179 
0.614317 -0.327309 -0.717971 0.374056 -0.219761 -0.900993 0.845543 -0.366291 -0.388443 
0.124732 -0.10295 -0.986835 0.690704 -0.427224 -0.583444 0.666111 -0.0687598 -0.742676 
0.462163 0.0951768 -0.881673 0.120645 0.190211 -0.974302 0.0241777 -0.948615 -0.315509 
0.0743624 -0.938267 -0.337825 0.294619 -0.817464 -0.494926 0.435168 -0.898873 0.0515383 
-0.185462 -0.690156 -0.699492 0.899937 -0.286418 -0.328752 0.886743 -0.0500263 -0.459547 
-0.177722 -0.102799 -0.978697 0.448701 0.115393 -0.886201 0.776762 0.0462781 -0.628091 
0.756351 0.0473307 -0.652452 -0.0537701 0.0274082 -0.998177 0.764112 0.0751049 -0.640697 
0.183097 0.18895 -0.964766 0.445381 0.13876 -0.884523 0.0260985 0.17481 -0.984256 
0.0721755 0.253663 -0.964596 -0.106481 -0.788406 -0.60587 -0.303864 -0.605173 -0.735821 
0.783253 -0.614064 0.0971553 0.875268 -0.481024 0.0502106 0.942743 -0.217743 -0.252632 
-0.330121 -0.273257 -0.903522 -0.26331 0.155994 -0.952015 0.010922 0.334927 -0.942181 
-0.0070337 0.251567 -0.967814 0.376825 0.369519 -0.849387 0.641033 0.165068 -0.749553 
0.318487 0.374555 -0.870789 0.0283357 -0.996094 -0.0836242 -0.0862906 -0.906725 -0.412799 
0.1414 -0.989759 -0.0195502 -0.134707 -0.922716 -0.361179 -0.238542 -0.650631 -0.720956 
0.874728 -0.430274 0.222969 0.953638 -0.210781 -0.214817 0.902784 -0.0036939 -0.430079 
0.853795 0.118512 -0.506941 0.744843 0.361964 -0.560528 -0.159104 0.263777 -0.951371 
0.374763 0.578859 -0.724207 0.464945 0.589958 -0.660134 -0.0160896 0.578301 -0.815664 
0.131223 0.411025 -0.90213 -0.0756732 -0.993294 -0.087415 -0.194662 -0.927461 -0.319253 
0.237144 -0.954509 0.180765 -0.219071 -0.893312 -0.39243 0.248174 -0.948585 0.196461 
-0.194481 -0.807718 -0.556569 0.749436 -0.579303 0.320553 0.984171 0.0739927 -0.161035 
0.910965 0.190442 -0.365888 -0.415211 0.147645 -0.897664 0.726179 0.301855 -0.617695 
0.288581 0.553707 -0.781108 -0.01575 -0.979691 -0.199895 0.142803 -0.989725 0.00726553 
-0.156593 -0.873581 -0.460799 0.0931032 -0.959599 0.265523 0.627128 -0.75957 0.172525 
-0.169977 -0.773328 -0.610796 -0.232992 -0.782945 -0.576812 -0.335049 -0.438678 -0.833849 
-0.441027 -0.249238 -0.862192 -0.528793 -0.252256 -0.810398 -0.469164 0.0820714 -0.879289 
0.970053 -0.232089 0.0716345 0.915227 0.292733 -0.276886 0.962093 0.18789 -0.197672 
0.682082 0.490477 -0.542399 0.88611 0.351824 -0.30171 0.361502 0.663298 -0.65525 
-0.246625 0.554915 -0.79451 0.180405 0.714307 -0.67618 -0.153089 -0.982282 -0.108104 
-0.178579 -0.973008 -0.14617 -0.152452 -0.956734 -0.247828 0.256886 -0.857664 0.445446 
-0.530792 -0.439037 -0.724918 0.754175 -0.391518 0.527194 0.845421 -0.327835 0.421648 
0.992926 0.0547136 0.105381 0.988731 0.14567 0.0345026 0.824978 0.453834 -0.336817 
0.348954 -0.737015 0.578827 0.4573 -0.758716 0.463926 0.960498 0.0012692 0.278283 
0.634845 0.579314 -0.511241 0.580221 0.711053 -0.397174 0.124789 0.774275 -0.620424 
0.0726358 -0.969273 0.235019 -0.213954 -0.857381 -0.468105 -0.349073 -0.737617 -0.577987 
0.258796 0.807331 -0.530321 0.158928 0.910729 -0.381202 -0.333212 -0.85224 -0.403306 
-0.519171 -0.627481 -0.580284 0.979132 0.145574 0.141802 0.908292 0.418113 0.0136594 
0.678482 0.712596 -0.178521 0.503265 0.770577 -0.39107 -0.047207 0.716323 -0.69617 
-0.154449 -0.96445 -0.214435 -0.073611 -0.989154 -0.127106 -0.317796 -0.897234 -0.306557 
-0.527719 -0.667145 -0.525767 -0.591915 -0.463244 -0.659577 0.83299 0.552872 -0.0214367 
0.209394 0.955218 -0.209077 0.374525 0.921871 -0.0994185 0.0415981 -0.996156 -0.077095 
0.272835 -0.780722 0.562168 -0.588194 -0.727394 -0.353448 0.675566 0.73689 -0.0245673 
0.533489 0.845355 -0.027641 -0.411238 -0.882195 -0.22938 0.0842949 -0.981497 0.171925 
0.123741 -0.914624 0.384905 0.826913 0.53322 0.178581 0.307056 0.950051 0.0558645 
-0.0418095 0.918921 -0.39222 -0.184584 -0.982744 0.011921 -0.0871185 -0.971624 0.219902 
-0.505477 -0.844952 -0.174782 0.334038 -0.722422 0.605413 -0.742207 -0.377414 -0.553793 
0.82963 0.132423 0.542382 0.871401 -0.0129102 0.490401 0.758365 0.561353 0.331309 
0.515229 0.836306 0.187434 -0.307655 -0.951489 -0.0040196 0.0472997 -0.903105 0.426808 
0.106339 -0.844462 0.524954 0.251569 -0.759062 0.600448 0.714898 -0.245835 0.654588 
0.778263 -0.115388 0.617246 0.751092 0.189215 0.632502 0.733917 0.220848 0.642333 
0.616504 0.330985 0.714403 -0.232434 -0.955925 0.179393 -0.139567 -0.938685 0.315263 
-0.465579 -0.884806 -0.0188159 0.603039 -0.0295357 0.797165 0.530459 0.787842 0.312919 
-0.322387 0.582042 -0.746521 -0.482684 -0.875453 -0.0244512 0.504995 -0.457025 0.732194 
-0.556499 0.444612 -0.701875 0.487739 0.678791 0.548957 0.371495 0.928435 -3.97027e-06 
0.0307268 -0.87765 0.478316 -0.689114 -0.717121 -0.104207 -0.850963 -0.243337 -0.465455 
-0.743663 0.0834136 -0.663331 -0.810695 0.38465 -0.441382 -0.411776 0.639978 -0.648744 
0.394483 0.885608 0.245115 0.2018 0.978867 0.0331171 -0.800673 -0.578178 0.156949 
-0.873024 -0.433136 -0.224104 0 0 1 0 -0.3188 0.947822 
0.283998 -0.305673 0.908795 -0.283998 -0.305673 0.908795 0 -0.6 0.8 
-0.925132 -0.227454 -0.303966 0.586314 0.395343 0.707064 -0.59383 0.608981 -0.52584 
-0.310166 0.811199 -0.495734 0.10507 0.973925 -0.201071 -0.439727 -0.858371 0.264271 
-0.666501 -0.737898 0.106222 0.229311 -0.757071 0.611768 0 0.44225 -0.896892 
-0.910758 -0.357545 -0.206594 0.56687 0.424822 0.705822 -0.419777 0.799186 -0.430219 
0.487812 0.792517 0.366001 -0.359871 0.883937 -0.298576 0.246352 0.963122 -0.108198 
-0.187333 -0.906522 0.378317 -0.557934 -0.778391 0.287781 -0.850472 -0.488907 0.194081 
-0.965597 -0.259848 0.0100276 0.414619 -0.543344 0.729979 0.415821 0.769234 0.485152 
-0.57619 0.732158 -0.36325 -0.0857678 0.977186 -0.194295 0.0840596 0.993754 0.0734022 
-0.246875 -0.784254 0.569209 -0.463348 -0.709672 0.53073 -0.744433 -0.638515 0.195238 
-0.922903 -0.256563 0.287098 -0.992447 -0.00757073 -0.122441 -0.992299 0.0171477 -0.122676 
-0.769953 0.609059 -0.190312 0.285824 0.955586 0.0718281 -0.259651 -0.65359 0.710916 
-0.499574 -0.570423 0.651954 -0.937949 -0.208307 0.277236 -0.98955 0.0964894 -0.107151 
-0.954039 0.226168 0.196616 0.603066 -0.00196077 0.797689 -0.958031 0.285676 0.0238067 
-0.450846 0.886256 -0.106243 -0.326732 -0.501127 0.801323 -0.673725 -0.364775 0.642677 
-0.861058 -0.212894 0.461795 -0.924596 -0.200811 0.323725 -0.90736 0.0522754 0.417092 
-0.973218 0.229657 -0.0101934 -0.322943 0.93668 -0.135421 -0.797485 -0.185578 0.57409 
-0.948048 0.0538093 0.313543 -0.0788637 0.990557 0.112149 -0.000426628 -0.69621 0.717838 
-0.911095 0.376583 0.167606 0.328993 -0.569347 0.753397 0.460321 0.174774 0.870378 
-0.683919 0.327504 0.651918 -0.081621 0.97302 0.215803 -0.703536 -0.0300519 0.710024 
-0.693162 0.699569 0.17358 0.320983 0.8293 0.457417 0.454026 -0.231398 0.860416 
-0.755888 0.0522436 0.652613 0.523833 0.424284 0.738635 -0.860249 0.466002 0.206914 
0.349462 0.647034 0.67766 -0.746185 0.635485 0.198409 0.108628 0.919546 0.37767 
0.144497 -0.30684 0.940728 -0.55483 -0.300115 0.775948 -0.677022 0.4917 0.547606 
-0.376559 0.883043 0.280067 0.0895853 0.783016 0.615517 0.254422 0.698023 0.669352 
-0.357138 -0.325446 0.875522 0.476263 0.100217 0.873573 -0.711497 -0.00693734 0.702654 
-0.686006 0.187271 0.703083 0.3147 0.475094 0.821736 -0.415579 0.64878 0.637479 
-0.04831 0.848965 0.526236 -0.361512 -0.246335 0.899237 0.248505 0.290054 0.924183 
-0.212565 -0.331233 0.919294 -0.654083 -0.0459099 0.755029 -0.628621 0.196725 0.75242 
-0.582589 0.389788 0.713201 -0.545246 0.528273 0.650873 -0.449044 0.53251 0.71749 
0.210297 0.455131 0.865235 -0.0352688 0.0362949 0.998719 0.0613658 -0.152355 0.986419 
-0.0600098 0.0379055 0.997478 0.110917 0.222694 0.968558 -0.231107 0.436556 0.869487 
0.066617 0.374111 0.924988 0.178852 0.564419 0.80588 -0.0830225 0.682122 0.72651 
-0.158742 0.548741 0.820783 -0.146814 0.0779727 -0.986086 -0.212908 0.363831 -0.906806 
0.0659069 -0.39919 -0.914496 0.154214 -0.0652458 -0.985881 -0.255066 -0.203823 -0.945197 
-0.561043 0.265862 -0.783932 -0.535587 0.107499 -0.83761 -0.484149 0.458508 -0.745232 
0.132224 0.378717 -0.916019 -0.154372 0.775402 -0.612308 0.14959 -0.346283 -0.926127 
-0.414556 -0.174724 -0.893093 0.445027 0.115701 -0.888011 0.281993 0.143149 -0.948677 
-0.581905 0.268835 -0.767538 0.31008 0.506113 -0.804798 -0.62127 0.530036 -0.577135 
-0.47439 0.871156 -0.126655 -0.643837 0.0384076 -0.764198 0.38173 0.309376 -0.870959 
0.220924 0.599308 -0.76943 -0.629923 0.692426 -0.351771 0.24431 -0.391033 -0.887359 
-0.205664 -0.515218 -0.832017 0.506192 -0.0834417 -0.858375 0.509905 0.208283 -0.834635 
-0.815684 0.415143 -0.402884 -0.711951 0.690207 -0.129384 0.233222 0.832239 -0.502976 
-0.730306 -0.12895 -0.670839 -0.293715 0.920263 -0.258551 0.594284 -0.599428 -0.536202 
-0.676921 -0.408843 -0.612067 -0.854696 -0.30377 -0.420973 -0.557534 0.82672 -0.0754292 
-0.260869 0.935499 0.238306 0.0931583 0.969797 -0.225422 0.636595 -0.402137 -0.658052 
-0.67026 -0.323022 -0.668138 0.667637 -0.0814586 -0.740018 -0.964797 -0.00675754 -0.262908 
0.281455 0.868469 -0.408098 0.359635 -0.618557 -0.698606 -0.833532 -0.211069 -0.510562 
-0.939147 0.0469665 -0.340291 -0.519429 0.851865 0.0672318 0.479378 0.664374 -0.573415 
0.0121802 -0.688953 -0.724704 -0.240604 -0.632257 -0.736451 -0.725786 0.666289 0.171153 
-0.0780527 0.996183 -0.0390877 -0.375421 -0.756204 -0.535923 0.501252 -0.154192 -0.851452 
0.552419 0.27752 -0.786013 0.513702 0.231157 -0.826242 -0.937629 0.316165 0.144542 
0.294476 0.911831 -0.286089 -0.200651 -0.75859 -0.619904 0.0798413 -0.818178 -0.569395 
-0.383869 -0.82581 -0.413137 -0.581366 -0.528358 -0.61875 -0.697523 -0.55672 -0.451136 
-0.490694 -0.710678 -0.504139 -0.810926 -0.400637 -0.426484 -0.895943 -0.327544 -0.300003 
-0.966917 -0.216555 -0.134819 -0.728795 0.590324 0.346952 -0.382342 0.877477 0.289565 
-0.297832 -0.862438 -0.409263 -0.506396 -0.764314 -0.399233 -0.764189 -0.637377 -0.0988206 
-0.772929 -0.562786 -0.293007 -0.505781 -0.806842 -0.305273 -0.582086 -0.807781 0.093091 
-0.574368 -0.813594 -0.0903686 -0.885116 -0.443593 -0.140697 -0.953964 -0.21233 0.211824 
-0.996066 0.02493 0.0850402 0.535264 0.641811 -0.549155 -0.386371 0.877321 0.284648 
0.0353272 0.99936 0.00558666 -0.129724 -0.860496 -0.492664 -0.53463 -0.824331 -0.186143 
-0.780526 -0.597777 0.182873 -0.598741 -0.798087 0.0675819 -0.680113 -0.732694 0.0246137 
-0.856323 -0.450189 0.253061 -0.668828 0.310419 0.675507 -0.668019 0.504386 0.547125 
0.514845 0.673735 -0.53011 -0.500412 0.739326 0.450538 0.358081 0.914106 -0.190231 
-0.570065 -0.795228 -0.20649 -0.733771 -0.675198 0.0754238 0.438653 -0.563466 -0.700064 
-0.469062 0.643757 0.604614 0.0478147 0.988717 0.141959 -0.293591 -0.939094 -0.178623 
0.623763 -0.273747 -0.732108 0.63043 0.485342 -0.605806 0.5175 0.619031 -0.590758 
-0.630134 -0.776116 -0.0239906 -0.781693 -0.538435 0.314711 -0.84221 0.114684 0.52681 
0.53642 0.73948 -0.406721 -0.278275 0.835346 0.474089 -0.832809 -0.250974 0.493397 
0.693613 -0.176261 -0.69845 0.67842 0.126292 -0.723738 -0.487411 0.412484 0.769602 
0.68041 0.693806 -0.235957 0.407279 0.887335 -0.21624 -0.365992 -0.929084 0.0534098 
-0.679758 -0.70945 0.186038 -0.819774 -0.082464 0.566718 0.882387 0.313687 -0.350704 
0.820656 0.331374 -0.465527 0.548067 0.795569 -0.25825 -0.0978688 -0.977132 -0.188771 
-0.346416 -0.93619 0.0595409 -0.302989 -0.946927 0.107362 0.203406 -0.856193 -0.474932 
-0.57909 -0.795324 0.179205 -0.694789 -0.277822 0.663388 -0.820067 -0.295783 0.4899 
-0.675533 0.0587501 0.734985 0.839415 0.490874 -0.233294 0.370881 0.9283 -0.0265703 
0.102241 0.974648 0.19902 -0.0964672 0.811222 0.576726 0.120245 0.969353 0.214232 
-0.460959 -0.856556 0.23201 -0.646017 -0.615385 0.451622 0.888605 0.10982 -0.445333 
0.831381 0.457524 -0.3154 0.215977 0.945596 0.243316 -0.0710461 -0.997355 0.0153514 
0.0956372 -0.978152 -0.184585 -0.489196 -0.749895 0.445359 0.739587 -0.195088 -0.644167 
0.945957 0.206933 -0.249689 0.913952 0.403621 -0.0422018 -0.0314008 0.89475 0.445461 
0.277578 0.925097 0.259127 -0.169726 -0.979331 0.110021 -0.37195 -0.861616 0.345355 
-0.282164 -0.923955 0.258246 0.162209 -0.877394 -0.451517 -0.571833 -0.204226 0.794543 
-0.545918 -0.160839 0.822256 -0.517316 0.0319109 0.855199 -0.484476 0.167979 0.858526 
0.902382 -0.102214 -0.418639 -0.43446 0.406314 0.803837 0.522314 0.838818 0.153533 
0.163193 0.897896 0.408841 -0.0573791 -0.98413 0.167917 -0.0984228 -0.980498 0.170105 
-0.279953 -0.832404 0.478256 -0.448558 -0.649225 0.614249 0.322458 -0.671685 -0.666978 
-0.528061 -0.520603 0.670913 0.985688 0.153725 -0.0691973 0.739354 0.673291 0.00587827 
-0.324653 0.50438 0.800126 -0.0479724 0.766496 0.640455 0.026669 -0.996938 -0.0735079 
-0.259792 -0.927366 0.269259 -0.317817 -0.797501 0.51282 0.202597 -0.812946 -0.545961 
-0.58438 -0.281323 0.761156 -0.440141 -0.540683 0.716895 0.643471 -0.447223 -0.621238 
-0.649991 -0.00688964 0.759911 0.687458 -0.340556 -0.641423 0.922 -0.0874304 -0.37719 
0.884558 0.465543 0.028749 0.884023 0.426775 0.190698 0.688101 0.67877 0.256493 
0.515508 0.729742 0.449141 0.0985449 -0.945368 -0.310755 0.358564 -0.715747 -0.599281 
-0.205866 -0.842815 0.497275 -0.581652 -0.289487 0.760183 -0.348104 -0.25242 0.902833 
-0.581769 -0.068242 0.810486 -0.47223 0.130351 0.871784 0.887708 -0.151726 -0.434689 
0.790294 0.577264 0.205431 0.759295 0.52251 0.387885 0.662579 0.637787 0.392703 
0.500435 0.719642 0.481333 0.260921 0.755496 0.600954 -0.0699984 -0.971275 0.227431 
-0.203196 -0.873958 0.441485 0.500167 -0.593391 -0.630651 0.691367 -0.494718 -0.52656 
0.528518 -0.470444 -0.706648 -0.290742 -0.096244 0.951949 0.955428 -0.123211 -0.268284 
-0.470339 0.218645 0.854971 0.645563 0.582262 0.494186 0.837231 0.438002 0.327411 
0.50929 0.624929 0.591682 0.0381081 0.683517 0.728939 0.224068 -0.94995 -0.217687 
0.631861 -0.75787 -0.16243 -0.212729 -0.729913 0.649595 -0.143763 -0.925547 0.350279 
-0.240692 -0.72813 0.641789 0.892021 -0.352438 -0.282993 0.984122 -0.133586 -0.116867 
0.999027 0.0149961 0.0414737 0.98784 0.110152 0.109719 0.836645 0.324671 0.441151 
0.00901558 0.526382 0.850201 0.275316 0.634433 0.722285 -0.216556 0.511762 0.831386 
-0.0365957 -0.987096 0.155892 -0.0011483 -0.987159 0.159737 0.0298243 -0.984209 0.174477 
0.388445 -0.887953 -0.246273 0.338062 -0.938592 -0.0689808 -0.107393 -0.926432 0.360821 
0.811393 -0.551157 -0.194597 -0.274402 -0.694891 0.664703 -0.415073 -0.48478 0.769872 
-0.449009 -0.235072 0.862051 0.968538 -0.23839 -0.0714438 0.990981 -0.12256 0.0541818 
-0.413565 -0.0868444 0.906323 -0.377539 0.204412 0.90315 -0.130741 0.294755 0.946587 
0.300837 0.437277 0.847517 0.305286 0.522558 0.796074 -0.0560455 -0.943283 0.327225 
0.526576 -0.84911 -0.0416001 0.536763 -0.822559 0.187834 -0.145485 -0.853768 0.499914 
-0.262964 -0.436488 0.860423 -0.297258 -0.440636 0.84704 0.960828 -0.203796 0.187821 
0.86682 0.100777 0.488331 0.423765 0.372104 0.82581 0.0741775 -0.879787 0.469546 
0.239404 -0.952014 0.190671 0.576734 -0.784247 0.228767 0.737499 -0.524543 0.425383 
0.902165 -0.379716 0.204728 0.916734 -0.312472 0.248918 0.747081 0.0569093 0.662293 
-0.28354 0.0272077 0.958574 0.586383 0.280106 0.760063 -0.0560885 -0.780413 0.622744 
-0.0315031 -0.765958 0.642119 0.359881 -0.813666 0.456544 0.281547 -0.661105 0.695466 
0.368432 -0.651481 0.663197 0.657862 -0.618888 0.429179 0.705728 -0.428179 0.564456 
-0.302104 -0.249193 0.920128 0.587723 -0.323593 0.741531 0.594629 -0.0638955 0.801457 
-0.147637 0.00810388 0.989008 0.0958305 0.163038 0.981955 0.427261 0.137335 0.893637 
0.191346 -0.723164 0.663642 0.00741444 -0.646294 0.763052 0.0406725 -0.560851 0.826917 
-0.0335881 -0.25262 0.966982 0.420619 -0.449177 0.788238 -0.269174 -0.392271 0.879584 
0.0547373 -0.482036 0.87444 0.360216 -0.563062 0.743778 0.452398 -0.421611 0.785863 
0.452673 -0.222394 0.863498 -0.188602 -0.101855 0.976757 0.277063 -0.0170408 0.9607 
0.0888973 -0.36552 0.926549 0.275647 -0.294877 0.914913 -0.131776 -0.654394 0.744583 
0 0.894427 -0.447214 0.268495 0.426011 -0.863959 -0.268495 0.426011 -0.863959 
0 -0.164399 -0.986394 
