# vtk DataFile Version 4.2
vtk output
ASCII
DATASET POLYDATA
POINTS 836 float
268.883 244.682 101.559 271.603 245.946 102.107 266.161 247.351 100.999 
268.526 247.594 101.068 271.663 247.931 101.78 264.967 248.752 101.188 
266.597 243.74 101.771 270.924 243.949 102.742 265.191 245.223 101.366 
262.792 246.741 101.876 270.311 249.944 101.719 267.471 250.58 101.478 
266.238 241.287 103.132 266.271 241.854 102.717 269.743 243.023 102.682 
263.684 243.261 102.555 260.846 247.682 102.859 273.628 247.457 103.14 
260.487 248.756 102.897 260.427 249.922 102.722 261.903 249.848 102.12 
265.912 252.207 101.969 267.731 252.306 102.116 264.948 240.589 104.224 
265.983 240.338 104.251 266.881 240.528 103.983 264.155 241.04 104.089 
263.693 241.835 103.601 262.736 242.707 103.632 272.206 244.068 104.114 
261.13 244.917 103.735 273.645 246.332 103.885 259.321 248.581 103.857 
274.532 248.83 103.896 259.212 249.946 103.427 274.403 249.206 103.801 
258.664 252.178 103.325 270.341 253.099 103.023 256.799 254.082 103.854 
256.789 254.515 103.833 260.502 254.183 102.919 256.941 255.054 103.814 
267.286 239.929 104.941 267.039 239.81 105.074 267.428 240.187 104.622 
262.707 241.49 104.9 269.039 241.113 104.303 261.671 242.928 104.676 
259.1 247.64 104.604 274.793 248.535 104.443 274.62 248.747 104.06 
257.138 250.402 104.954 275.043 250.671 104.773 255.195 253.029 104.881 
264.093 239.893 106.333 268.233 240.171 105.276 260.746 243.043 106.312 
258.782 247.571 105.128 257.767 249.088 105.3 275.443 249.218 105.261 
253.329 253.35 105.81 253.065 254.276 105.498 265.833 257.998 104.49 
254.198 258.473 105.289 266.444 239.43 106.231 258.648 247.435 105.514 
275.63 248.913 105.661 252.866 252.843 106.545 249.132 254.606 107.248 
277.024 254.185 107.044 262.228 240.744 107.572 261.078 242.188 107.427 
254.732 250.975 107.194 251.791 252.482 107.766 247.567 253.803 108.401 
246.708 254.476 108.204 248.071 255.834 107.335 250.458 257.859 106.486 
267.666 261.46 106.938 259.808 262.962 106.373 271.992 241.806 108.255 
273.483 243.249 108.109 258.217 246.957 107.974 247.967 252.779 109.354 
242.445 254.271 109.091 244.011 254.239 108.883 278.814 252.978 108.857 
243.435 256.414 108.705 278.616 256.524 108.881 243.417 257.216 108.815 
278.423 257.623 109.035 246.067 258.672 108.197 266.152 264.305 108.294 
259.716 265.806 108.421 262.833 240.163 108.751 239.768 252.311 109.777 
241.704 252.045 109.876 238.669 253.003 109.796 246.051 252.176 110.204 
248.477 252.403 109.76 238.634 254.305 109.833 279.94 257.162 110.364 
251.24 263.815 108.948 258.574 266.739 109.46 262.824 267.173 110.033 
264.574 239.338 109.871 239.032 247.343 111.801 238.233 248.821 110.84 
235.464 251.307 110.559 242.75 250.703 110.693 237.514 252.182 110.077 
235.787 252.898 110.485 280.495 256.216 111.14 279.938 259.01 111.145 
260.19 268.008 111.139 265.457 239.195 110.318 262.891 240.506 110.833 
232.981 249.093 111.689 232.96 249.852 111.483 279.128 250.614 110.507 
235.102 254.556 111.021 237.693 256.221 110.519 239.176 259.568 111.299 
274.763 262.603 110.729 246.881 264.499 111.356 247.707 265.152 111.693 
267.718 266.301 110.918 253.145 266.949 111.372 257.048 267.934 111.422 
261.916 268.181 111.617 267.243 239.375 111.627 235.238 246.372 113.028 
231.563 247.567 113.094 230.688 250.951 112.318 279.602 260.179 111.802 
280.135 259.87 112.518 278.751 261.506 112.601 263.715 240.369 112.495 
228.808 248.349 113.953 227.841 249.527 113.98 228.246 252.186 113.597 
281.383 255.559 113.467 280.73 258.667 112.91 238.866 261.461 112.809 
280.583 259.096 112.995 240.296 262.533 112.959 276.336 263.015 112.297 
247.894 266.572 113.931 250.153 267.338 114.283 257.992 268.693 113.013 
259.54 268.701 112.861 233.913 245.324 114.812 239.662 245.025 114.58 
241.076 245.682 114.067 227.654 247.971 115.158 247.579 250.391 113.054 
229.159 253.975 113.518 229.207 256.421 114.559 234.516 259.944 114.118 
279.922 260.389 113.796 238.404 262.568 114.263 276.317 263.605 113.977 
243.887 265.457 114.724 270.342 266.495 114.446 255.895 268.628 114.182 
264.286 268.418 113.51 261.481 268.8 113.939 270.562 240.607 115.015 
241.494 244.982 115.185 226.317 248.455 116.055 257.591 247.224 114.46 
280.92 251.542 114.872 226.555 254.645 115.31 236.807 262.149 114.908 
280.011 260.324 115.608 246.985 266.766 115.544 263.996 268.463 114.994 
265.221 240.189 114.889 263.803 241.202 115.543 262.681 242.208 115.56 
237.351 243.708 117.4 233.824 244.654 116.257 225.881 248.377 116.876 
259.347 245.745 116.205 225.593 248.612 117.025 225.587 249.172 116.368 
224.799 250.572 116.592 253.644 249.172 115.248 224.45 252.558 116.593 
278.844 261.737 115.757 267.825 267.439 115.605 259.799 268.687 115.88 
261.965 268.453 116.309 266.117 240.219 115.867 267.311 240.23 116.16 
264.607 240.716 115.633 240.544 243.604 117.856 241.477 243.982 117.041 
227.353 247.086 117.348 223.889 250.796 117.719 252.179 249.061 116.089 
281.035 251.228 116.864 226.08 256.809 116.878 226.689 258.187 117.617 
229.854 260.264 117.64 234.803 262.617 117.331 277.607 262.753 116.429 
273.394 265.161 116.371 247.667 267.064 117.237 252.145 267.829 116.823 
232.335 244.698 117.841 277.891 245.883 117.064 279.787 248.451 116.567 
223.63 250.337 118.849 278.62 261.432 118.141 277.417 262.357 118.515 
265.504 241.162 117.748 274.648 243.549 118.454 276.51 244.849 118.339 
225.252 248.411 118.974 280.148 249.508 118.334 222.631 251.377 120.095 
221.92 252.726 120.416 222.722 255.27 119.077 279.797 259.735 118.967 
232.307 262.419 120.007 275.027 263.832 118.793 273.515 264.316 119.293 
239.261 264.546 119.291 267.336 266.757 118.318 268.465 241.856 119.523 
235.182 243.742 120.139 232.304 244.659 120.09 229.944 245.628 120.197 
252.572 247.142 119.405 221.436 253.41 121.449 221.349 253.927 121.31 
221.688 253.72 120.404 281.293 253.963 118.782 222.877 256.612 119.795 
223.946 258.42 120.822 279.469 259.648 120.082 270.222 265.101 120.14 
243.223 265.559 119.99 245.692 266.24 119.634 265.875 242.269 120.13 
239.245 243.241 121.151 259.581 245.733 120.574 278.275 247.516 120.364 
253.084 246.518 120.675 256.912 246.87 119.803 255.552 247.109 119.891 
280.518 251.722 120.06 221.601 252.89 121.72 221.563 254.379 120.635 
280.868 255.524 120.122 246.261 243.407 121.618 249.648 244.326 121.695 
260.796 245.243 121.457 260.21 245.463 121.053 252.879 246.136 121.239 
256.135 246.841 120.538 279.551 258.775 121.086 224.973 259.566 122.089 
241.956 264.601 122.119 229.015 246.737 122.779 256.664 246.442 121.929 
258.163 246.205 122.079 224.58 249.541 122.754 278.996 251.61 122.583 
220.961 255.082 123.279 221.124 255.584 122.567 222.67 258.292 123.468 
278.587 258.996 122.326 276.401 260.879 122.662 231.697 262.244 122.954 
246.953 243.362 122.797 240.61 243.476 123.49 250.698 244.364 123.423 
266.518 244.056 122.672 269.153 245.798 123.985 273.804 246.967 123.386 
255.82 246.264 122.688 257.383 246.266 122.711 278.159 250.651 123.037 
221.052 254.39 124.148 264.351 244.576 122.871 235.618 244.772 124.611 
259.721 246.145 124.134 261.325 246.032 124.273 254.557 245.714 124.402 
255.244 246.035 123.381 257.365 246.218 123.508 223.82 251.2 125.14 
221.427 253.726 124.683 278.621 256.977 123.547 221.563 257.307 124.559 
223.858 259.222 125.405 276.478 259.431 123.983 277.179 258.448 124.185 
226.292 260.37 125.265 249.222 244.077 125 242.208 243.927 125.315 
257.04 246.381 125.446 275.918 249.872 124.182 270.004 250.622 126.383 
276.68 254.971 125.16 221.044 256.1 125.29 277.542 256.591 124.56 
221.332 256.99 125.551 277.1 257.782 124.634 235.088 261.977 125.573 
258.012 246.717 126.02 223.38 252.837 126.926 221.257 255.742 126.186 
221.117 256.296 125.826 221.179 256.606 125.959 221.279 256.765 126.202 
221.877 257.566 126.386 226.009 260.099 126.29 260.543 262.435 126.541 
241.257 245.204 127.404 245.433 245.118 127.712 255.09 246.467 127.119 
258.692 247.52 127.178 259.984 247.849 127.166 262.935 247.862 126.518 
230.842 248.509 127.246 260.914 248.998 127.926 261.095 249.577 128.244 
222.114 254.483 126.893 267.845 253.669 127.73 221.466 255.697 126.619 
274.916 254.696 125.952 274.26 256.035 126.147 221.364 256.944 126.204 
222.103 257.647 126.769 223.788 258.757 127.339 267.342 259.813 127.037 
250.682 245.398 127.599 242.067 246.858 129.34 262.667 250.385 128.195 
237.248 254.311 130.596 221.63 256.298 127.037 222.172 255.695 127.627 
265.893 258.691 128.024 224.267 258.707 127.958 225.222 259.229 127.717 
226.544 259.433 127.953 235.654 260.531 127.752 243.676 260.773 129.258 
238.902 246.769 128.616 251.529 246.815 129.233 245.135 246.863 129.747 
239.624 248.179 129.829 255.8 249.283 129.909 227.369 251.686 128.559 
225.86 252.601 128.663 258.6 252.271 130.346 232.926 254.328 130.26 
238.608 254.358 130.855 239.176 254.435 130.988 236.228 255.159 130.384 
239.651 254.467 131.119 240.075 255.351 131.153 222.342 256.679 127.909 
234.71 257.381 129.806 263.491 257.691 128.997 222.91 257.255 128.3 
239.852 259.539 129.426 235.917 248.305 129.008 233.658 251.862 129.999 
234.901 252.415 130.258 227.653 253.503 129.824 230.247 254.413 130.314 
258.844 254.711 130.817 225.036 254.743 129.466 228.826 255.909 130.426 
223.538 256.312 128.957 260.081 256.514 130.402 223.203 257.036 128.637 
223.666 257.252 128.872 228.508 257.849 129.799 234.147 258.481 129.319 
242.718 257.92 131.412 249.766 260.301 130.771 250.065 248.875 131.378 
237.157 250.751 130.33 238.677 251.126 130.715 226.25 254.397 129.926 
228.418 254.464 130.268 224.051 256.103 129.28 227.394 255.95 130.433 
227.516 256.615 130.373 227.909 256.697 130.403 228.204 256.661 130.404 
224.731 256.886 129.62 227.769 257.105 130.224 227.944 256.875 130.383 
224.093 257.503 128.984 224.811 257.181 129.544 245.181 259.31 131.426 
244.169 250.79 132.111 257.063 255.236 131.538 228.031 256.786 130.418 
[...]
POINT_DATA 836
SCALARS scalars float
LOOKUP_TABLE default
1 1 1 1 1 1 1 1 1 
1 1 1 1 1 1 1 1 1 
1 1 1 1 1 1 1 1 1 
1 1 1 1 1 1 1 1 1 
1 1 1 1 1 1 1 1 1 
1 1 1 1 1 1 1 1 1 
1 1 1 1 1 1 1 1 1 
1 1 1 1 1 1 1 1 1 
1 1 1 1 1 1 1 1 1 
1 1 1 1 1 1 1 1 1 
1 1 1 1 1 1 1 1 1 
1 1 1 1 1 1 1 1 1 
1 1 1 1 1 1 1 1 1 
1 1 1 1 1 1 1 1 1 
1 1 1 1 1 1 1 1 1 
1 1 1 1 1 1 1 1 1 
1 1 1 1 1 1 1 1 1 
1 1 1 1 1 1 1 1 1 
1 1 1 1 1 1 1 1 1 
1 1 1 1 1 1 1 1 1 
1 1 1 1 1 1 1 1 1 
1 1 1 1 1 1 1 1 1 
1 1 1 1 1 1 1 1 1 
1 1 1 1 1 1 1 1 1 
1 1 1 1 1 1 1 1 1 
1 1 1 1 1 1 1 1 1 
1 1 1 1 1 1 1 1 1 
1 1 1 1 1 1 1 1 1 
1 1 1 1 1 1 1 1 1 
1 1 1 1 1 1 1 1 1 
1 1 1 1 1 1 1 1 1 
1 1 1 1 1 1 1 1 1 
1 1 1 1 1 1 1 1 1 
1 1 1 1 1 1 1 1 1 
1 1 1 1 1 1 1 1 1 
1 1 1 1 1 1 1 1 1 
1 1 1 1 1 1 1 1 1 
1 1 1 1 1 1 1 1 1 
1 1 1 1 1 1 1 1 1 
1 1 1 1 1 1 1 1 1 
1 1 1 1 1 1 1 1 1 
1 1 1 1 1 1 1 1 1 
1 1 1 1 1 1 1 1 1 
1 1 1 1 1 1 1 1 1 
1 1 1 1 1 1 1 1 1 
1 1 1 1 1 1 1 1 1 
1 1 1 1 1 1 1 1 1 
1 1 1 1 1 1 1 1 1 
1 1 1 1 1 1 1 1 1 
1 1 1 1 1 1 1 1 1 
1 1 1 1 1 1 1 1 1 
1 1 1 1 1 1 1 1 1 
1 1 1 1 1 1 1 1 1 
1 1 1 1 1 1 1 1 1 
1 1 1 1 1 1 1 1 1 
1 1 1 1 1 1 1 1 1 
1 1 1 1 1 1 1 1 1 
1 1 1 1 1 1 1 1 1 
1 1 1 1 1 1 1 1 1 
1 1 1 1 1 1 1 1 1 
1 1 1 1 1 1 1 1 1 
1 1 1 1 1 1 1 1 1 
1 1 1 1 1 1 1 1 1 
1 1 1 1 1 1 1 1 1 
1 1 1 1 1 1 1 1 1 
1 1 1 1 1 1 1 1 1 
1 1 1 1 1 1 1 1 1 
1 1 1 1 1 1 1 1 1 
1 1 1 1 1 1 1 1 1 
1 1 1 1 1 1 1 1 1 
1 1 1 1 1 1 1 1 1 
1 1 1 1 1 1 1 1 1 
1 1 1 1 1 1 1 1 1 
1 1 1 1 1 1 1 1 1 
1 1 1 1 1 1 1 1 1 
1 1 1 1 1 1 1 1 1 
1 1 1 1 1 1 1 1 1 
1 1 1 1 1 1 1 1 1 
1 1 1 1 1 1 1 1 1 
1 1 1 1 1 1 1 1 1 
1 1 1 1 1 1 1 1 1 
1 1 1 1 1 1 1 1 1 
1 1 1 1 1 1 1 1 1 
1 1 1 1 1 1 1 1 1 
1 1 1 1 1 1 1 1 1 
1 1 1 1 1 1 1 1 1 
1 1 1 1 1 1 1 1 1 
1 1 1 1 1 1 1 1 1 
1 1 1 1 1 1 1 1 1 
1 1 1 1 1 1 1 1 1 
1 1 1 1 1 1 1 1 1 
1 1 1 1 1 1 1 1 1 
1 1 1 1 1 1 1 1 
NORMALS Normals float
0.188865 -0.324364 -0.926886 0.509039 -0.239175 -0.826846 -0.0602874 -0.0940017 -0.993745 
0.112189 0.0945114 -0.989182 0.289971 0.0641017 -0.954886 -0.0738061 0.185397 -0.979888 
0.115916 -0.38209 -0.916826 0.502383 -0.488218 -0.71362 -0.208069 -0.291408 -0.933696 
-0.415261 -0.230833 -0.879929 0.3091 0.265509 -0.913215 0.0846786 0.226663 -0.970285 
-0.0587166 -0.675846 -0.734701 -0.128848 -0.505527 -0.853136 0.383238 -0.608688 -0.694714 
-0.36109 -0.42355 -0.830794 -0.575904 -0.187462 -0.795734 0.6422 -0.204166 -0.738847 
-0.58183 -0.235404 -0.778498 -0.477844 -0.102176 -0.872482 -0.327139 0.0171424 -0.944821 
0.0431197 0.380401 -0.923816 0.0395423 0.416027 -0.908492 -0.287879 -0.743882 -0.60313 
-0.0869226 -0.839783 -0.535918 0.192045 -0.699232 -0.688617 -0.446258 -0.763428 -0.466938 
-0.352937 -0.560251 -0.749369 -0.55235 -0.497052 -0.669215 0.656784 -0.593039 -0.465768 
-0.680214 -0.370745 -0.632342 0.791937 -0.419271 -0.4439 -0.667373 -0.277038 -0.691277 
0.776685 -0.223276 -0.58899 -0.564314 -0.232874 -0.792035 0.61455 0.170428 -0.770248 
-0.386237 -0.160108 -0.908398 0.305935 0.427994 -0.850426 -0.286116 -0.0534049 -0.956706 
-0.35598 -0.0905564 -0.930095 -0.223346 0.139134 -0.964758 -0.139129 0.20219 -0.969413 
0.252198 -0.854705 -0.453735 0.0892836 -0.899609 -0.427471 0.294144 -0.732343 -0.614128 
-0.628669 -0.652857 -0.422555 0.471323 -0.737836 -0.483169 -0.675617 -0.514655 -0.527894 
-0.651428 -0.548196 -0.524521 0.793233 -0.285046 -0.538081 0.831849 -0.128581 -0.539903 
-0.601065 -0.399421 -0.692231 0.766923 0.108859 -0.632438 -0.5077 -0.319067 -0.800273 
-0.379178 -0.890876 -0.250128 0.462249 -0.818699 -0.340672 -0.818431 -0.501248 -0.280931 
-0.744463 -0.403354 -0.532054 -0.708068 -0.489256 -0.509184 0.866914 -0.109643 -0.48625 
-0.46389 -0.446678 -0.765039 -0.438671 -0.36153 -0.822717 0.0876271 0.427056 -0.899969 
-0.287323 0.22881 -0.930103 0.0111954 -0.977215 -0.211955 -0.584562 -0.727674 -0.358858 
0.85809 -0.2215 -0.463271 -0.46265 -0.583651 -0.667313 -0.372805 -0.545234 -0.750824 
0.609761 0.100265 -0.786217 -0.662844 -0.731311 -0.160693 -0.773451 -0.625747 -0.101066 
-0.569395 -0.677761 -0.46522 -0.327971 -0.800966 -0.500888 -0.209732 -0.593612 -0.776941 
-0.209795 -0.565805 -0.797402 -0.319365 -0.137184 -0.937649 -0.322711 0.198321 -0.925487 
0.280404 0.503446 -0.817261 -0.0428041 0.491495 -0.869828 0.599879 -0.782794 -0.165465 
0.725462 -0.620528 -0.297743 -0.702187 -0.675673 -0.2245 -0.126194 -0.701497 -0.70141 
-0.170574 -0.194254 -0.966007 -0.137886 -0.371808 -0.918012 0.783098 -0.152516 -0.602906 
-0.317717 -0.0111398 -0.94812 0.567419 0.165716 -0.806582 -0.311653 0.2649 -0.912524 
0.367129 0.389247 -0.84481 -0.304121 0.351773 -0.885306 0.139444 0.573302 -0.807391 
0.019287 0.681223 -0.731822 -0.560694 -0.828013 0.00416442 0.00311767 -0.224672 -0.974429 
0.0435034 -0.225157 -0.973351 -0.198845 0.0388433 -0.979261 -0.00229575 -0.699664 -0.714468 
-0.13093 -0.749856 -0.648517 -0.254527 -0.0165497 -0.966924 0.785254 0.134722 -0.60434 
-0.280625 0.583032 -0.762446 -0.126291 0.744247 -0.655856 0.114323 0.823018 -0.556392 
-0.318651 -0.946289 0.0547619 0.069273 -0.620975 -0.780763 -0.0728449 -0.397386 -0.914756 
-0.286741 -0.0600895 -0.956122 0.173611 -0.537773 -0.825021 -0.177944 -0.0173798 -0.983887 
-0.293655 0.111085 -0.949435 0.879315 0.0471806 -0.473897 0.800365 0.327269 -0.502306 
-0.0273208 0.792039 -0.609859 -0.19663 -0.966209 0.166663 -0.632592 -0.750121 0.192733 
-0.275055 -0.409691 -0.869769 -0.344316 -0.225492 -0.911372 0.810445 -0.389049 -0.437972 
-0.334428 0.165822 -0.927718 -0.383429 0.235983 -0.892913 -0.475454 0.468053 -0.744896 
0.319979 0.611948 -0.723279 -0.282382 0.640439 -0.714212 -0.24894 0.722751 -0.644717 
0.385621 0.753037 -0.533134 -0.257592 0.835374 -0.485589 -0.112388 0.874574 -0.471687 
0.0752196 0.922322 -0.37903 0.0329616 -0.991829 0.12324 -0.0867557 -0.743201 -0.663419 
-0.408238 -0.643943 -0.647054 -0.40816 -0.0532711 -0.911355 0.643414 0.637511 -0.423789 
0.827969 0.504594 -0.244648 0.608565 0.729672 -0.311813 -0.412042 -0.882321 0.227447 
-0.449912 -0.491653 -0.745558 -0.568157 -0.259583 -0.780906 -0.542512 0.138679 -0.828522 
0.980371 -0.0203917 -0.196104 0.958937 0.273321 -0.0757296 -0.457345 0.522315 -0.719737 
0.926926 0.364864 -0.0876487 -0.331978 0.701878 -0.630205 0.453287 0.820822 -0.347538 
-0.241903 0.914204 -0.325137 -0.248524 0.912201 -0.325769 -0.0860387 0.95332 -0.289444 
0.00250122 0.965638 -0.259879 -0.193395 -0.846556 -0.495924 0.019592 -0.854335 -0.519354 
0.202583 -0.747325 -0.632823 -0.492444 -0.665407 -0.56101 0.156547 -0.789667 -0.593227 
-0.422974 0.292198 -0.857737 -0.473452 0.453048 -0.755375 -0.407537 0.631341 -0.65979 
0.822541 0.568469 -0.0164357 -0.473407 0.725577 -0.499424 0.524615 0.834516 -0.168411 
-0.35057 0.881003 -0.317703 0.369377 0.921687 -0.118544 -0.155453 0.98237 -0.103841 
0.177691 0.976202 -0.124322 0.0728367 0.994869 -0.0702131 0.365662 -0.921506 0.130835 
0.248876 -0.820521 -0.514593 -0.625123 -0.586711 -0.514773 -0.689717 -0.719318 -0.0829018 
0.945906 -0.294876 -0.135317 -0.512688 0.359557 -0.779661 -0.540759 0.553929 -0.633042 
0.852399 0.505467 0.133864 -0.290961 0.950072 -0.112714 0.193068 0.977803 0.0814025 
-0.360466 -0.925041 0.119849 -0.585711 -0.756694 0.290443 -0.611412 -0.717344 0.334054 
-0.0803439 -0.959834 -0.26882 -0.206658 -0.932459 -0.296332 -0.665316 -0.666754 -0.335848 
-0.608658 -0.784461 0.118981 -0.76251 -0.602843 -0.23486 -0.768222 -0.438437 -0.466484 
-0.73992 -0.316795 -0.59343 -0.275409 -0.904313 -0.32614 -0.707902 0.0943973 -0.699975 
0.731359 0.681238 0.0320759 0.322009 0.936608 0.138116 0.00898817 0.988571 0.150491 
0.0479575 0.943195 0.328761 -0.171072 -0.929424 0.326965 0.0429563 -0.967681 0.248493 
-0.444054 -0.779322 0.442124 0.118807 -0.967843 -0.221732 0.142386 -0.931803 -0.33387 
-0.505926 -0.841776 -0.188286 -0.810137 -0.313724 -0.495232 0.0338045 -0.879047 -0.475536 
0.956014 -0.289246 0.0487259 -0.554871 0.441345 -0.705218 -0.465899 0.644345 -0.60643 
-0.419293 0.744295 -0.519825 -0.37005 0.827772 -0.42173 0.633881 0.768865 0.0839173 
0.386788 0.921597 -0.0324625 -0.215625 0.975946 -0.0321806 -0.0587221 0.936475 0.345784 
-0.39025 -0.897851 -0.203884 0.749289 -0.653374 -0.108022 0.853115 -0.520433 -0.0366797 
-0.797652 -0.49744 -0.341036 0.663724 0.743421 0.0824318 0.586297 0.741465 0.326321 
-0.383359 -0.840349 0.383209 0.473794 -0.816009 0.331134 0.620615 -0.74972 0.229688 
-0.717265 -0.69411 -0.0611637 0.886291 -0.445883 0.125203 -0.831467 -0.531673 -0.161202 
-0.918003 -0.285313 -0.27544 -0.717129 0.28736 -0.634942 0.815756 0.518535 0.256248 
-0.363467 0.91506 -0.174803 0.496814 0.848227 0.183542 0.414229 0.78863 0.454398 
-0.256563 0.963447 -0.0771108 0.244868 0.905779 0.345839 0.0792031 -0.858663 0.506383 
-0.149694 -0.987775 0.0435095 -0.29931 -0.939739 0.16524 -0.446305 -0.893111 -0.0562576 
0.128997 -0.86343 -0.487696 -0.967778 -0.220409 -0.121761 -0.988806 -0.115567 -0.0943726 
-0.87158 -0.18534 -0.45387 0.958372 -0.0834774 0.273046 -0.707721 0.498817 -0.500313 
-0.569403 0.757043 -0.320415 0.720055 0.587163 0.369812 0.264732 0.846721 0.461499 
-0.191741 0.977351 0.0895516 -0.236772 0.952681 0.190626 -0.184226 -0.838908 0.512146 
-0.0141211 -0.999552 0.0263809 -0.281817 -0.945141 -0.165187 0.702314 -0.585202 0.405332 
0.218528 -0.854578 -0.471107 -0.351764 -0.916315 -0.191386 -0.0238135 -0.926704 -0.375036 
0.875335 -0.306992 0.373556 -0.906665 -0.413898 0.0815348 -0.92142 0.0230083 -0.387886 
0.948857 0.189943 0.252174 0.218068 -0.954647 -0.202718 0.308966 -0.870702 -0.382646 
-0.374844 -0.91217 0.165642 -0.272096 -0.961921 -0.0259073 0.179724 -0.917601 -0.354552 
-0.180313 -0.958002 -0.222978 0.829738 0.365706 0.421656 -0.473139 0.846789 -0.243077 
-0.161422 0.939804 0.301183 -0.447452 -0.85449 0.263883 -0.113234 -0.967735 -0.225092 
-0.178647 -0.98369 0.0209532 -0.606403 -0.749265 0.26623 0.764964 -0.142376 0.628139 
-0.994471 0.0745551 -0.0739516 -0.93426 0.257893 -0.246269 -0.663773 0.722782 -0.192331 
0.66147 0.512644 0.547407 0.467905 0.669246 0.577214 -0.241871 0.927556 0.284848 
0.0750411 -0.976434 0.20235 -0.097506 -0.968259 0.230146 0.301377 -0.929124 -0.214244 
-0.0115339 -0.737628 0.675109 0.158159 -0.598806 0.785122 0.406163 -0.607171 0.682916 
-0.0235439 -0.94851 -0.315871 0.104062 -0.994484 -0.013114 0.609563 -0.383117 0.694013 
-0.932567 -0.3606 0.016935 -0.124244 -0.786969 0.604353 -0.227107 -0.896929 0.379394 
-0.0558319 -0.943862 0.325587 -0.222028 -0.894222 0.388677 0.337053 -0.940842 0.0348136 
0.163135 -0.979088 -0.121548 0.180606 -0.983212 -0.0259827 -0.66431 -0.692426 0.281493 
-0.896757 -0.397801 0.193861 0.750025 0.189926 0.633553 -0.759146 0.64791 -0.0625253 
-0.517349 0.854082 0.0538003 0.403383 0.549049 0.732002 0.538327 0.481786 0.691438 
-0.264371 0.958281 0.108652 0.236294 -0.967575 0.0892415 -0.0140468 -0.894987 0.445872 
0.18196 -0.957808 0.222474 0.367949 -0.388279 0.844898 0.195133 -0.295083 0.935334 
0.538778 -0.103597 0.836054 -0.994118 0.0828906 0.0696979 0.573363 0.050292 0.817756 
-0.905085 0.425059 -0.012123 0.467635 0.265604 0.843073 -0.180047 0.823411 0.538124 
0.175589 -0.947866 0.265929 -0.553998 -0.629529 0.544775 -0.916127 -0.215825 0.337832 
-0.976811 0.0383151 0.210647 -0.950382 0.293252 0.103818 -0.917002 0.164161 0.363536 
-0.730849 0.632127 0.25744 -0.228025 0.929233 0.290741 0.142281 0.726175 0.672626 
-0.106004 -0.830682 0.546562 0.0325581 -0.825939 0.562819 0.273722 -0.887663 0.370311 
0.189037 -0.727367 0.659698 0.173574 -0.688789 0.703876 0.123629 -0.689308 0.713842 
-0.351382 -0.730901 0.585077 0.212198 -0.598275 0.772683 0.124332 -0.51634 0.84731 
-0.744055 -0.411788 0.526129 0.261995 -0.19974 0.944173 -0.882036 -0.117264 0.456357 
0.380971 -0.0753955 0.921508 0.292116 0.0893756 0.952198 -0.819042 0.506481 0.269533 
-0.622816 0.742432 0.24677 -0.534154 0.771916 0.34471 0.268778 0.508078 0.8183 
0.0917032 -0.839905 0.53493 -0.0766556 -0.689325 0.720385 0.331833 -0.456573 0.825486 
-0.170668 0.0038063 0.985321 -0.834105 0.0916237 0.543943 -0.65301 -0.245587 0.716425 
0.239164 0.31582 0.918182 -0.432412 0.69342 0.576358 -0.309467 0.829808 0.46438 
-0.124366 0.821324 0.556741 -0.0817651 0.717242 0.692011 -0.116927 0.809092 0.575933 
-0.246717 -0.628364 0.73776 0.190515 -0.732612 0.65344 -0.0267792 -0.65187 0.757858 
-0.265973 -0.475758 0.838399 0.293955 -0.62989 0.718908 -0.277713 -0.619143 0.734532 
-0.457896 -0.512456 0.726444 0.316427 -0.331371 0.888857 -0.0334635 0.0681793 0.997112 
-0.226027 -0.00918724 0.974078 -0.290322 0.177604 0.940303 -0.09755 0.0763532 0.992297 
-0.102543 0.0889621 0.990743 -0.242713 0.119492 0.962711 -0.705924 0.0867401 0.702957 
-0.0668764 0.364683 0.928727 0.290182 0.303067 0.907714 -0.710606 0.30615 0.633492 
-0.22187 0.462522 0.858398 -0.209474 -0.50247 0.838835 -0.14264 -0.262848 0.954235 
-0.159448 -0.153731 0.975163 -0.19329 -0.510352 0.837961 -0.0302144 -0.27424 0.961187 
0.422356 -0.154224 0.893214 -0.495321 -0.416753 0.762216 0.0693704 0.105076 0.992042 
-0.625897 -0.0717711 0.776596 0.369701 -0.0273701 0.928748 -0.631137 0.154408 0.760147 
-0.516073 0.402496 0.756085 0.0483279 0.529373 0.847011 0.0260513 0.385892 0.922176 
-0.309212 0.497391 0.810549 0.0427537 0.7941 0.606282 0.12673 -0.56586 0.814704 
-0.190876 -0.164331 0.967761 -0.199602 -0.237524 0.950653 -0.337326 -0.186428 0.922744 
-0.0655367 -0.19471 0.978669 -0.511417 0.044361 0.858187 -0.185458 0.00442399 0.982642 
-0.214509 0.127894 0.968313 -0.194639 0.0725716 0.978187 0.0848103 0.047004 0.995288 
-0.436155 0.137351 0.889327 -0.0713887 0.496437 0.865133 -0.0690751 0.433003 0.898742 
-0.330195 0.554015 0.764224 -0.463579 0.422257 0.778969 -0.326134 0.60903 0.722993 
-0.219309 -0.377978 0.899464 0.333408 0.0181091 0.942609 0.142151 0.359599 0.922215 
0.290445 0.0660837 0.954607 -0.225898 0.4294 0.874406 0.265738 0.337048 0.903207 
0.11925 0.6713 0.73153 -0.0716871 0.739575 0.669246 0.0564746 -0.540975 0.83914 
0.258594 -0.261175 0.930009 -0.394699 0.152453 0.906074 0.212099 0.510453 0.833338 
0.265114 0.388012 0.882701 0.175921 0.611326 0.771578 -0.394012 -0.11895 0.911376 
-0.0159426 -0.224328 0.974383 0.243113 -0.104469 0.964356 0.235479 0.289707 0.927696 
-0.290613 0.534911 0.793356 0.0718808 0.536809 0.840636 -0.240942 -0.0285852 0.970118 
0.175849 0.0930884 0.980006 -0.409101 0.215634 0.886644 0.0245185 0.161591 0.986553 
-0.140984 0.449981 0.881839 0.0744605 0.0271184 -0.996855 -0.313958 0.252075 -0.915362 
-0.00899497 0.206889 -0.978323 -0.0228301 0.227366 -0.973542 0.0349101 0.358344 -0.932937 
-0.146635 0.0173654 -0.989038 0.0985719 -0.141635 -0.984999 -0.0769615 0.589144 -0.804355 
-0.229933 -0.239335 -0.943318 -0.374485 0.105117 -0.921255 -0.319836 0.507461 -0.800117 
0.234111 0.247091 -0.940286 -0.267874 -0.452634 -0.850509 -0.125381 -0.547916 -0.827084 
0.0721177 -0.378104 -0.92295 0.270954 0.0566324 -0.960925 0.312552 0.3602 -0.878958 
0.147576 0.584862 -0.797594 0.255673 0.264332 -0.929925 0.0137146 0.701206 -0.712827 
0.203461 0.578303 -0.790044 0.142055 0.64044 -0.754756 0.283986 -0.409834 -0.866826 
-0.439807 0.0172439 -0.897927 0.292681 -0.211763 -0.932467 0.310907 -0.0701771 -0.947846 
-0.262325 0.526165 -0.80891 0.322593 0.285205 -0.902547 0.0695617 -0.714065 -0.696615 
-0.120412 -0.283885 -0.951268 -0.248746 -0.349814 -0.903192 -0.197966 -0.331917 -0.922302 
-0.190407 -0.292571 -0.937095 0.366345 -0.132457 -0.921003 -0.170105 0.0312218 -0.984931 
-0.324952 -0.0932535 -0.941122 -0.412149 0.0524393 -0.909606 -0.143055 0.2259 -0.963589 
0.012639 0.128241 -0.991663 0.398737 -0.0446629 -0.915977 -0.625032 0.220053 -0.748941 
-0.2962 0.323465 -0.898686 -0.192853 0.277274 -0.941237 -0.0951531 0.614903 -0.782841 
-0.0514065 0.638972 -0.76751 -0.0126326 0.768576 -0.639634 -0.156339 -0.599171 -0.785208 
-0.302797 -0.502115 -0.810058 -0.157206 -0.164252 -0.973811 -0.325655 0.052611 -0.944024 
-0.529619 -0.225307 -0.817765 0.0930178 0.427053 -0.89943 -0.302287 0.752139 -0.585585 
-0.178671 0.319145 -0.930711 -0.167625 0.474896 -0.86393 0.175708 0.347343 -0.921129 
0.305465 0.37576 -0.874926 -0.00361525 0.635505 -0.772088 0.0207196 0.655517 -0.754896 
0.242749 -0.680579 -0.691292 -0.385838 -0.578391 -0.718744 0.278601 -0.311202 -0.908589 
0.345448 -0.321768 -0.88155 -0.659909 -0.127526 -0.740444 -0.749483 0.0512889 -0.660034 
-0.0123007 0.0976705 -0.995143 -0.202789 0.0774335 -0.976156 0.290851 0.0839611 -0.953077 
-0.620003 0.538011 -0.571087 -0.773471 0.406918 -0.485963 0.273595 0.239996 -0.931422 
-0.0928469 0.395514 -0.913755 -0.100284 0.682015 -0.72443 0.113668 0.732781 -0.670904 
0.323914 0.510631 -0.796452 0.40252 0.408633 -0.819144 0.255712 -0.871419 -0.418617 
-0.583554 -0.498787 -0.640841 0.349566 -0.136119 -0.926971 0.292898 -0.142513 -0.945463 
0.266117 0.211747 -0.940396 -0.510782 0.765019 -0.392234 -0.433841 0.825031 -0.362086 
-0.167978 0.816078 -0.552993 -0.102155 0.731404 -0.67425 -0.165315 0.762228 -0.625843 
-0.0292598 0.712699 -0.700859 -0.0963733 -0.795626 -0.598073 -0.078511 -0.70695 -0.702892 
-0.730281 -0.485268 -0.480837 -0.752201 -0.297656 -0.587873 -0.859469 0.0570448 -0.507995 
-0.734031 -0.0576762 -0.676662 0.318784 0.14624 -0.936478 -0.794449 0.531251 -0.294319 
0.254625 0.296068 -0.920603 0.376776 0.354028 -0.855981 -0.770685 0.628159 -0.107055 
-0.273469 0.848905 -0.4523 -0.189458 0.861759 -0.470613 -0.340444 0.833902 -0.434401 
0.287156 0.524482 -0.801536 -0.0702361 0.811764 -0.579746 0.206776 0.738988 -0.641202 
0.0591254 -0.940044 -0.33589 0.282169 -0.881884 -0.377707 -0.276934 -0.865172 -0.418073 
0.226299 -0.934304 -0.275435 0.0131574 -0.940024 -0.340853 0.214195 -0.613554 -0.760048 
0.299795 -0.280725 -0.911766 0.241474 -0.026231 -0.970053 -0.877877 -0.133924 -0.459779 
0.2493 -0.207496 -0.945936 -0.946072 0.141276 -0.291528 0.212346 0.123904 -0.969307 
0.46975 0.0701531 -0.880008 -0.820173 0.496747 -0.283827 0.356949 0.273869 -0.893075 
0.237052 0.329563 -0.91389 -0.556788 0.815051 -0.160248 0.242785 0.498333 -0.832298 
0.0124552 -0.979956 -0.198826 0.222725 -0.964145 -0.144284 0.303281 -0.951839 0.0449824 
-0.0818187 -0.82565 -0.558219 0.125864 -0.654444 -0.745561 -0.059048 -0.836438 -0.544871 
0.479293 -0.292473 -0.827489 -0.765386 -0.392786 -0.509807 -0.981957 0.0881478 -0.167305 
-0.866324 0.481541 -0.132671 0.645396 0.109976 -0.75589 0.34024 0.633252 -0.695147 
-0.259552 0.931998 -0.253006 -0.0591363 0.819714 -0.569712 0.230993 -0.972334 -0.0347629 
0.172935 -0.653698 -0.736731 0.0982567 -0.995137 -0.00698485 -0.390462 -0.851873 -0.349074 
0.329153 -0.376905 -0.865795 -0.985101 -0.111642 -0.130811 -0.877603 -0.451181 -0.162014 
0.715554 -0.0670887 -0.695328 -0.964688 0.260388 0.0396834 0.543816 0.456779 -0.704001 
-0.351006 0.922201 -0.162299 0.26719 0.66604 -0.69642 -0.00512599 -0.78135 -0.624072 
-0.269179 -0.863096 -0.427327 -0.23058 -0.924566 -0.303334 -0.193644 -0.980396 -0.0364172 
0.203444 -0.477307 -0.854861 -0.571991 -0.749386 -0.333536 0.589317 -0.222417 -0.776682 
0.844154 -0.217284 -0.490093 0.851354 0.229959 -0.471503 -0.564019 0.825761 0.00109936 
-0.344687 0.938715 0.00231435 0.131 -0.991116 -0.0229647 0.439049 -0.771169 -0.461015 
0.035488 -0.955548 0.292693 0.530226 -0.481094 -0.698146 -0.703523 -0.678751 -0.210598 
-0.867262 -0.490928 0.0827455 -0.988055 0.0366652 0.149673 -0.652019 0.662895 0.368023 
0.592277 0.636863 -0.493572 -0.0852262 -0.991596 -0.0973344 0.280054 -0.926479 0.251409 
0.24873 -0.744759 -0.619247 0.29558 -0.93971 0.171983 -0.487989 -0.860273 -0.147637 
-0.937232 -0.266499 0.224887 -0.930378 -0.106537 0.350779 -0.825912 0.457608 0.329338 
-0.801759 0.597104 0.025471 -0.420861 0.887489 0.187721 0.00266242 -0.857251 -0.514891 
0.626164 -0.539331 -0.563063 -0.69396 -0.690733 -0.203243 0.980131 -0.0251508 -0.19675 
-0.9518 0.105245 0.288098 -0.262182 0.951671 -0.159945 -0.178825 0.938702 -0.294719 