# vtk DataFile Version 4.2
vtk output
ASCII
DATASET POLYDATA
POINTS 5068 float
306.152 134.383 65.9283 306.39 140.357 65.4125 305.871 142.473 65.6372 
305.432 143.845 65.9491 306.913 144.796 65.3746 306.02 145.569 65.7477 
307.326 145.792 65.3908 306.004 147.871 65.9846 307.868 147.473 65.4689 
306.116 148.795 66.0523 306.836 149.776 65.8697 305.566 132.679 66.41 
306.815 135.425 65.7288 306.918 137.016 65.4925 307.87 138.597 65.3856 
304.871 139.42 66.027 307.916 140.001 65.3235 308.372 140.732 65.3942 
306.921 142.859 65.37 307.626 149.084 65.6059 306.246 150.902 66.3049 
308.003 150.66 65.7444 306.194 152.894 66.6168 307.185 152.286 66.1014 
306.293 156.495 67.1024 307.634 155.728 66.468 307.008 157.352 66.9179 
305.984 127.308 67.6818 307.861 130.138 67.0394 307.391 132.612 66.3891 
303.881 133.266 67.1832 304.269 138.617 66.4704 304.329 139.954 66.4506 
304.007 140.085 66.7823 304.033 141.852 66.9207 310.013 141.892 65.7598 
305.091 146.206 66.3706 305.109 147.714 66.5968 308.471 153.581 66.0845 
309.311 156.939 66.5587 308.579 158.497 66.7912 307.317 161.843 67.5968 
307.539 161.874 67.4858 307.755 162.056 67.4974 307.671 162.406 67.6181 
304.32 126.779 68.3839 305.202 126.151 68.1789 312.323 145.016 66.4686 
304.37 149.335 67.6761 305.19 151.621 67.1702 311.058 155.085 66.592 
304.964 156.879 68.3235 308.017 161.68 67.4192 307.399 164.927 68.4682 
304.774 125.166 68.7169 305.327 125.599 68.3648 306.56 125.449 68.3485 
303.407 126.263 69.1772 306.926 126.065 68.1227 310.383 129.255 67.9746 
314.323 134.423 68.323 302.807 140.96 68.5503 312.893 153.68 66.9555 
304.921 159.822 69.0803 305.95 162.92 68.8187 308.265 166.566 68.6955 
307.526 167.139 69.0962 309.276 167.131 68.7402 307.017 168.099 69.6341 
307.382 169.212 69.8041 307.721 169.34 69.7173 305.029 121.765 70.1814 
305.853 122.491 69.7197 304.31 123.416 69.6917 302.185 133.366 69.0189 
304.066 154.602 69.0994 315.392 161.699 68.8262 305.582 165.171 69.869 
305.938 167.039 70.1572 311.041 167.824 69.1344 306.952 169.26 70.0892 
305.258 119.628 71.26 307.254 119.593 71.2203 303.708 121.637 70.8636 
301.996 126.685 70.4722 317.651 131.2 70.4557 319.179 146.722 69.2894 
319.951 157.925 69.8272 305.554 168.194 70.9994 312.436 169.654 70.071 
310.05 171.451 70.3403 307.846 171.983 70.8078 309.072 121.207 70.7756 
302.043 123.214 71.6136 312.181 124.206 70.4771 301.057 131.527 71.0076 
301.25 138.148 70.9892 306.049 172.626 72.3932 311.01 172.797 70.975 
309.084 173.791 71.3142 309.836 173.485 71.1657 308.429 174.203 71.6106 
308.739 176.134 72.3324 307.987 176.872 72.883 304.9 116.381 72.9485 
302.727 120.524 72.0597 316.014 124.373 72.1308 321.531 132.224 72.2119 
322.745 140.855 71.5185 324.872 150.907 71.6967 322.711 161.154 71.4268 
303.568 162.666 72.5811 304.603 168.071 72.4765 306.653 175.55 73.1069 
309.968 176.835 72.5792 310.675 176.483 72.4954 307.845 178.282 73.6173 
306.163 115.934 73.1108 310.071 117.601 73.1411 302.899 158.551 72.8439 
304.849 171.7 73.783 308.985 177.787 73.0689 307.058 178.747 74.3406 
308.867 178.619 73.4907 307.792 179.791 74.4144 303.203 112.861 75.1874 
303.875 112.628 75.1496 302.844 112.961 75.2965 305.8 114.34 74.0431 
312.124 118.134 73.7162 324.003 133.036 73.6446 329.807 158.202 74.5605 
328.669 162.343 74.3464 326.584 164.644 73.822 318.646 172.747 73.4558 
305.619 175.981 74.5647 310.493 179.743 74.0745 303.058 110.587 76.4541 
303.07 111.618 75.9201 303.775 110.989 76.0989 304.508 112.649 75.0933 
301.75 114.466 75.3318 324.163 128.479 75.2447 299.339 134.825 75.047 
303.383 166.847 75.2369 303.958 169.437 74.8026 304.496 173.637 75.6449 
306.185 178.383 75.0747 312.123 179.907 74.5614 307.768 182.753 76.1594 
307.45 183.245 76.7135 308.518 183.281 76.1377 302.105 111.124 76.5823 
320.227 122.087 75.6505 298.835 127.978 76.1264 305.469 179.003 76.6274 
309.077 183.552 76.1957 308.284 185.858 77.7915 302.452 106.909 78.5331 
302.724 107.848 77.9997 301.77 109.035 77.6841 301.672 110.413 77.1338 
299.885 114.114 77.2763 301.845 157.36 76.4993 332.062 166.477 77.4256 
329.462 170.703 77.0662 306.257 182.139 77.2605 306.661 183.965 77.9024 
310.363 184.054 76.5189 308.789 186.796 78.2151 301.079 107.271 78.8548 
304.326 108.232 77.7643 309.598 111.107 77.4225 313.292 114.208 76.986 
320.498 119.367 77.7469 298.218 132.06 78.1944 306.94 185.783 78.7209 
312.777 185.186 77.7878 301.068 105.894 79.5804 299.043 109.962 79.4321 
297.711 126.267 79.1601 331.736 141.662 77.2684 333.519 149.773 77.2301 
340.382 152.525 79.8591 340.513 152.493 79.8862 340.581 152.416 79.9158 
335.016 158.748 78.4764 333.371 168.894 79.2336 332.641 172.147 79.7413 
326.982 176.071 78.4017 316.298 184.18 78.7134 307.886 189.866 80.3591 
308.962 189.443 79.7805 308.059 190.515 80.6404 308.776 190.137 80.2061 
301.788 102.791 81.5176 303.686 103.845 80.9285 299.154 108.046 79.9284 
297.477 130.025 80.3582 336.168 137.297 79.6406 340.786 144.003 80.1045 
340.332 151.955 79.8154 335.864 154.097 78.416 341.426 153.465 80.4135 
302.356 164.953 79.8478 330.545 176.461 80.323 306.042 186.232 80.0496 
306.542 187.98 80.3888 310.172 190.257 80.2392 306.863 191.335 81.8067 
308.129 191.354 81.1173 309.469 191.097 80.7163 300.142 102.974 81.7406 
305.443 103.033 82.1557 299.555 104.118 81.3622 298.456 107.263 80.9633 
328.69 126.55 80.1916 297.539 132.724 81.3947 340.214 135.749 81.6371 
298.624 139.338 81.4244 301.627 158.578 81.2937 302.831 169.409 80.5433 
332.285 175.249 80.87 322.811 180.772 79.5589 305.208 185.089 80.823 
320.116 184.367 80.7094 306.227 191.695 82.6221 307.888 194.28 82.9255 
299.054 102.825 82.4016 298.28 105.379 81.8289 296.792 120.983 81.4551 
343.267 140.956 81.9724 344.396 147.449 81.9762 343.725 153.97 81.6537 
342.76 158.076 81.8972 337.625 161.825 80.7949 326.842 182.297 82.2969 
304.645 184.285 81.722 311.571 192.342 81.8646 308.708 194.078 82.5755 
300.445 99.0093 84.4692 301.853 100.324 83.4935 313.243 107.25 82.5686 
296.444 110.003 83.0268 317.201 110.581 82.5527 327.438 121.588 82.1113 
340.212 131.6 83.1839 343.832 138.416 83.0416 337.504 167.696 82.4638 
303.784 180.212 82.6558 303.946 182.864 83.2724 304.074 185.087 83.741 
321.264 186.981 83.1191 305.185 189.754 83.2032 309.36 194.956 83.192 
310.604 194.635 83.1325 307.518 196.062 84.5015 308.108 196.552 84.5436 
300.276 98.4035 84.9207 297.128 101.159 84.6443 332.663 123.331 83.593 
336.08 123.746 84.6467 296.607 128.906 84.0878 298.017 136.077 84.3697 
346.34 143.525 84.2032 346.599 152.989 83.8531 302.807 169.7 84.1881 
330.792 182.687 84.4152 316.388 192.244 84.1068 306.491 195.69 85.0819 
309.299 197.578 85.086 308.002 197.79 85.5139 298.532 96.7695 86.4218 
301.405 97.8503 85.5999 295.697 123.879 85.2496 338.566 124.75 85.3536 
297.945 135.381 85.1763 347.571 148.548 85.0725 345.69 162.965 85.0673 
302.449 165.536 83.9025 328.854 184.575 84.8774 303.746 186.816 85.6873 
304.135 188.261 85.0386 296.912 96.0104 87.631 329.93 118.507 85.1678 
332.443 118.214 86.2112 327.549 118.276 84.2875 341.503 125.43 86.9262 
347.344 139.944 86.2487 299.46 142.076 85.1563 348.759 152.45 86.6766 
348.325 156.836 86.3372 344.906 166.392 85.7027 346.641 165.667 86.7587 
338.455 172.362 85.021 337.136 174.803 85.245 303.225 182.006 86.7319 
306.261 197.28 86.5527 311.955 197.956 86.1207 307.01 199.629 87.4953 
308.712 199.48 86.5363 309.67 199.343 86.4993 307.413 201.232 88.4039 
295.469 99.413 86.9576 294.294 115.293 87.3721 346.307 134.613 86.8717 
298.645 137.39 86.4971 299.45 140.562 86.4928 348.92 156.327 87.3745 
302.53 161.554 85.7834 347.54 163.098 86.8499 347.529 164.633 87.3339 
344.696 169.123 86.6185 333.472 184.199 87.546 304.021 190.846 86.8864 
305.342 197.168 87.9445 306.969 200.731 88.3568 307.329 202.074 89.142 
295.487 96.3201 88.332 294.897 97.2502 88.4372 304.056 97.0072 87.688 
315.244 104.196 87.4529 320.84 109.382 87.4415 325.661 113.539 86.9364 
335.624 116.827 88.6149 336.497 117.6 88.6053 294.826 121.341 88.2786 
341.458 122.067 89.1976 345.014 128.273 88.6586 344.794 129.511 87.6442 
347.37 134.417 88.6922 298.951 136.453 88.0672 348.543 141.175 87.9933 
301.289 147.441 86.9762 349.226 146.3 88.4376 302.496 154.116 86.976 
349.576 152.998 88.8976 303.4 160.999 87.7776 347.556 166.641 88.0619 
303.316 174.075 87.4572 329.684 187.303 87.5311 307.751 203.265 89.8809 
293.422 107.578 89.0084 340.368 120.225 89.8018 297.12 129.761 88.8766 
346.908 132.847 88.7027 348.457 138.418 88.9253 300.404 140.909 88.3611 
301.181 143.131 88.5932 349.661 150.347 89.4686 303.68 155.223 88.6167 
349.73 155.049 89.7073 349.713 156.997 89.8521 303.965 160.202 88.7024 
348.402 165.669 88.9197 347.432 169.01 88.8592 303.55 170.772 88.0436 
345.631 172.41 88.7411 308.676 203.365 89.7184 307.62 203.651 90.2805 
307.298 204.017 90.8425 309.201 204.215 90.4762 294.879 93.6742 90.509 
298.171 93.1937 90.0404 294.113 94.4744 90.6192 293.546 95.3931 90.7077 
307.401 97.6461 89.0724 292.834 99.8285 90.4162 333.29 112.488 90.9291 
337.222 115.935 90.9401 294.085 118.33 90.3966 341.87 121.522 90.3194 
297.365 129.771 89.6401 299.339 134.783 89.7935 300.034 137.466 89.4137 
349.079 140.799 89.9414 301.767 143.239 89.3179 303.836 147.618 89.9389 
349.772 160.752 90.9921 349.473 164.655 90.9846 304.444 167.786 89.6748 
348.216 169.657 90.2021 324.816 193.665 90.6646 303.633 193.704 90.7494 
305.012 199.173 90.2422 306.667 203.657 91.1216 308.247 204.431 90.7308 
308.896 204.822 90.9985 307.962 205.488 91.7585 308.424 205.806 91.8882 
333.83 112.024 91.7628 335.399 113.503 91.5797 342.981 122.864 90.5898 
345.171 126.602 90.8599 345.681 127.588 90.9047 346.686 129.723 90.9668 
347.13 130.992 90.6335 300.334 136.935 90.0349 349.321 142.086 90.5714 
303.017 144.074 90.2129 349.466 143.594 90.5606 347.812 173.479 91.5161 
346.664 176.514 91.9577 344.006 178.005 91.1104 305.862 203.419 92.084 
[...]
POINT_DATA 5068
SCALARS scalars float
LOOKUP_TABLE default
1 1 1 1 1 1 1 1 1 
1 1 1 1 1 1 1 1 1 
1 1 1 1 1 1 1 1 1 
1 1 1 1 1 1 1 1 1 
1 1 1 1 1 1 1 1 1 
1 1 1 1 1 1 1 1 1 
1 1 1 1 1 1 1 1 1 
1 1 1 1 1 1 1 1 1 
1 1 1 1 1 1 1 1 1 
1 1 1 1 1 1 1 1 1 
1 1 1 1 1 1 1 1 1 
1 1 1 1 1 1 1 1 1 
1 1 1 1 1 1 1 1 1 
1 1 1 1 1 1 1 1 1 
1 1 1 1 1 1 1 1 1 
1 1 1 1 1 1 1 1 1 
1 1 1 1 1 1 1 1 1 
1 1 1 1 1 1 1 1 1 
1 1 1 1 1 1 1 1 1 
1 1 1 1 1 1 1 1 1 
1 1 1 1 1 1 1 1 1 
1 1 1 1 1 1 1 1 1 
1 1 1 1 1 1 1 1 1 
1 1 1 1 1 1 1 1 1 
1 1 1 1 1 1 1 1 1 
1 1 1 1 1 1 1 1 1 
1 1 1 1 1 1 1 1 1 
1 1 1 1 1 1 1 1 1 
1 1 1 1 1 1 1 1 1 
1 1 1 1 1 1 1 1 1 
1 1 1 1 1 1 1 1 1 
1 1 1 1 1 1 1 1 1 
1 1 1 1 1 1 1 1 1 
1 1 1 1 1 1 1 1 1 
1 1 1 1 1 1 1 1 1 
1 1 1 1 1 1 1 1 1 
1 1 1 1 1 1 1 1 1 
1 1 1 1 1 1 1 1 1 
1 1 1 1 1 1 1 1 1 
1 1 1 1 1 1 1 1 1 
1 1 1 1 1 1 1 1 1 
1 1 1 1 1 1 1 1 1 
1 1 1 1 1 1 1 1 1 
1 1 1 1 1 1 1 1 1 
1 1 1 1 1 1 1 1 1 
1 1 1 1 1 1 1 1 1 
1 1 1 1 1 1 1 1 1 
1 1 1 1 1 1 1 1 1 
1 1 1 1 1 1 1 1 1 
1 1 1 1 1 1 1 1 1 
1 1 1 1 1 1 1 1 1 
1 1 1 1 1 1 1 1 1 
1 1 1 1 1 1 1 1 1 
1 1 1 1 1 1 1 1 1 
1 1 1 1 1 1 1 1 1 
1 1 1 1 1 1 1 1 1 
1 1 1 1 1 1 1 1 1 
1 1 1 1 1 1 1 1 1 
1 1 1 1 1 1 1 1 1 
1 1 1 1 1 1 1 1 1 
1 1 1 1 1 1 1 1 1 
1 1 1 1 1 1 1 1 1 
1 1 1 1 1 1 1 1 1 
1 1 1 1 1 1 1 1 1 
1 1 1 1 1 1 1 1 1 
1 1 1 1 1 1 1 1 1 
1 1 1 1 1 1 1 1 1 
1 1 1 1 1 1 1 1 1 
1 1 1 1 1 1 1 1 1 
1 1 1 1 1 1 1 1 1 
1 1 1 1 1 1 1 1 1 
1 1 1 1 1 1 1 1 1 
1 1 1 1 1 1 1 1 1 
1 1 1 1 1 1 1 1 1 
1 1 1 1 1 1 1 1 1 
1 1 1 1 1 1 1 1 1 
1 1 1 1 1 1 1 1 1 
1 1 1 1 1 1 1 1 1 
1 1 1 1 1 1 1 1 1 
1 1 1 1 1 1 1 1 1 
1 1 1 1 1 1 1 1 1 
1 1 1 1 1 1 1 1 1 
1 1 1 1 1 1 1 1 1 
1 1 1 1 1 1 1 1 1 
1 1 1 1 1 1 1 1 1 
1 1 1 1 1 1 1 1 1 
1 1 1 1 1 1 1 1 1 
1 1 1 1 1 1 1 1 1 
1 1 1 1 1 1 1 1 1 
1 1 1 1 1 1 1 1 1 
1 1 1 1 1 1 1 1 1 
1 1 1 1 1 1 1 1 1 
1 1 1 1 1 1 1 1 1 
1 1 1 1 1 1 1 1 1 
1 1 1 1 1 1 1 1 1 
1 1 1 1 1 1 1 1 1 
1 1 1 1 1 1 1 1 1 
1 1 1 1 1 1 1 1 1 
1 1 1 1 1 1 1 1 1 
1 1 1 1 1 1 1 1 1 
1 1 1 1 1 1 1 1 1 
1 1 1 1 1 1 1 1 1 
1 1 1 1 1 1 1 1 1 
1 1 1 1 1 1 1 1 1 
1 1 1 1 1 1 1 1 1 
1 1 1 1 1 1 1 1 1 
1 1 1 1 1 1 1 1 1 
1 1 1 1 1 1 1 1 1 
1 1 1 1 1 1 1 1 1 
1 1 1 1 1 1 1 1 1 
1 1 1 1 1 1 1 1 1 
1 1 1 1 1 1 1 1 1 
1 1 1 1 1 1 1 1 1 
1 1 1 1 1 1 1 1 1 
1 1 1 1 1 1 1 1 1 
1 1 1 1 1 1 1 1 1 
1 1 1 1 1 1 1 1 1 
1 1 1 1 1 1 1 1 1 
1 1 1 1 1 1 1 1 1 
1 1 1 1 1 1 1 1 1 
1 1 1 1 1 1 1 1 1 
1 1 1 1 1 1 1 1 1 
1 1 1 1 1 1 1 1 1 
1 1 1 1 1 1 1 1 1 
1 1 1 1 1 1 1 1 1 
1 1 1 1 1 1 1 1 1 
1 1 1 1 1 1 1 1 1 
1 1 1 1 1 1 1 1 1 
1 1 1 1 1 1 1 1 1 
1 1 1 1 1 1 1 1 1 
1 1 1 1 1 1 1 1 1 
1 1 1 1 1 1 1 1 1 
1 1 1 1 1 1 1 1 1 
1 1 1 1 1 1 1 1 1 
1 1 1 1 1 1 1 1 1 
1 1 1 1 1 1 1 1 1 
1 1 1 1 1 1 1 1 1 
1 1 1 1 1 1 1 1 1 
1 1 1 1 1 1 1 1 1 
1 1 1 1 1 1 1 1 1 
1 1 1 1 1 1 1 1 1 
1 1 1 1 1 1 1 1 1 
1 1 1 1 1 1 1 1 1 
1 1 1 1 1 1 1 1 1 
1 1 1 1 1 1 1 1 1 
1 1 1 1 1 1 1 1 1 
1 1 1 1 1 1 1 1 1 
1 1 1 1 1 1 1 1 1 
1 1 1 1 1 1 1 1 1 
1 1 1 1 1 1 1 1 1 
1 1 1 1 1 1 1 1 1 
1 1 1 1 1 1 1 1 1 
1 1 1 1 1 1 1 1 1 
1 1 1 1 1 1 1 1 1 
1 1 1 1 1 1 1 1 1 
1 1 1 1 1 1 1 1 1 
1 1 1 1 1 1 1 1 1 
1 1 1 1 1 1 1 1 1 
1 1 1 1 1 1 1 1 1 
1 1 1 1 1 1 1 1 1 
1 1 1 1 1 1 1 1 1 
1 1 1 1 1 1 1 1 1 
1 1 1 1 1 1 1 1 1 
1 1 1 1 1 1 1 1 1 
1 1 1 1 1 1 1 1 1 
1 1 1 1 1 1 1 1 1 
1 1 1 1 1 1 1 1 1 
1 1 1 1 1 1 1 1 1 
1 1 1 1 1 1 1 1 1 
1 1 1 1 1 1 1 1 1 
1 1 1 1 1 1 1 1 1 
1 1 1 1 1 1 1 1 1 
1 1 1 1 1 1 1 1 1 
1 1 1 1 1 1 1 1 1 
1 1 1 1 1 1 1 1 1 
1 1 1 1 1 1 1 1 1 
1 1 1 1 1 1 1 1 1 
1 1 1 1 1 1 1 1 1 
1 1 1 1 1 1 1 1 1 
1 1 1 1 1 1 1 1 1 
1 1 1 1 1 1 1 1 1 
1 1 1 1 1 1 1 1 1 
1 1 1 1 1 1 1 1 1 
1 1 1 1 1 1 1 1 1 
1 1 1 1 1 1 1 1 1 
1 1 1 1 1 1 1 1 1 
1 1 1 1 1 1 1 1 1 
1 1 1 1 1 1 1 1 1 
1 1 1 1 1 1 1 1 1 
1 1 1 1 1 1 1 1 1 
1 1 1 1 1 1 1 1 1 
1 1 1 1 1 1 1 1 1 
1 1 1 1 1 1 1 1 1 
1 1 1 1 1 1 1 1 1 
1 1 1 1 1 1 1 1 1 
1 1 1 1 1 1 1 1 1 
1 1 1 1 1 1 1 1 1 
1 1 1 1 1 1 1 1 1 
1 1 1 1 1 1 1 1 1 
1 1 1 1 1 1 1 1 1 
1 1 1 1 1 1 1 1 1 
1 1 1 1 1 1 1 1 1 
1 1 1 1 1 1 1 1 1 
1 1 1 1 1 1 1 1 1 
1 1 1 1 1 1 1 1 1 
1 1 1 1 1 1 1 1 1 
1 1 1 1 1 1 1 1 1 
1 1 1 1 1 1 1 1 1 
1 1 1 1 1 1 1 1 1 
1 1 1 1 1 1 1 1 1 
1 1 1 1 1 1 1 1 1 
1 1 1 1 1 1 1 1 1 
1 1 1 1 1 1 1 1 1 
1 1 1 1 1 1 1 1 1 
1 1 1 1 1 1 1 1 1 
1 1 1 1 1 1 1 1 1 
1 1 1 1 1 1 1 1 1 
1 1 1 1 1 1 1 1 1 
1 1 1 1 1 1 1 1 1 
1 1 1 1 1 1 1 1 1 
1 1 1 1 1 1 1 1 1 
1 1 1 1 1 1 1 1 1 
1 1 1 1 1 1 1 1 1 
1 1 1 1 1 1 1 1 1 
1 1 1 1 1 1 1 1 1 
1 1 1 1 1 1 1 1 1 
1 1 1 1 1 1 1 1 1 
1 1 1 1 1 1 1 1 1 
1 1 1 1 1 1 1 1 1 
1 1 1 1 1 1 1 1 1 
1 1 1 1 1 1 1 1 1 
1 1 1 1 1 1 1 1 1 
1 1 1 1 1 1 1 1 1 
1 1 1 1 1 1 1 1 1 
1 1 1 1 1 1 1 1 1 
1 1 1 1 1 1 1 1 1 
1 1 1 1 1 1 1 1 1 
1 1 1 1 1 1 1 1 1 
1 1 1 1 1 1 1 1 1 
1 1 1 1 1 1 1 1 1 
1 1 1 1 1 1 1 1 1 
1 1 1 1 1 1 1 1 1 
1 1 1 1 1 1 1 1 1 
1 1 1 1 1 1 1 1 1 
1 1 1 1 1 1 1 1 1 
1 1 1 1 1 1 1 1 1 
1 1 1 1 1 1 1 1 1 
1 1 1 1 1 1 1 1 1 
1 1 1 1 1 1 1 1 1 
1 1 1 1 1 1 1 1 1 
1 1 1 1 1 1 1 1 1 
1 1 1 1 1 1 1 1 1 
1 1 1 1 1 1 1 1 1 
1 1 1 1 1 1 1 1 1 
1 1 1 1 1 1 1 1 1 
1 1 1 1 1 1 1 1 1 
1 1 1 1 1 1 1 1 1 
1 1 1 1 1 1 1 1 1 
1 1 1 1 1 1 1 1 1 
1 1 1 1 1 1 1 1 1 
1 1 1 1 1 1 1 1 1 
1 1 1 1 1 1 1 1 1 
1 1 1 1 1 1 1 1 1 
1 1 1 1 1 1 1 1 1 
1 1 1 1 1 1 1 1 1 
1 1 1 1 1 1 1 1 1 
1 1 1 1 1 1 1 1 1 
1 1 1 1 1 1 1 1 1 
1 1 1 1 1 1 1 1 1 
1 1 1 1 1 1 1 1 1 
1 1 1 1 1 1 1 1 1 
1 1 1 1 1 1 1 1 1 
1 1 1 1 1 1 1 1 1 
1 1 1 1 1 1 1 1 1 
1 1 1 1 1 1 1 1 1 
1 1 1 1 1 1 1 1 1 
1 1 1 1 1 1 1 1 1 
1 1 1 1 1 1 1 1 1 
1 1 1 1 1 1 1 1 1 
1 1 1 1 1 1 1 1 1 
1 1 1 1 1 1 1 1 1 
1 1 1 1 1 1 1 1 1 
1 1 1 1 1 1 1 1 1 
1 1 1 1 1 1 1 1 1 
1 1 1 1 1 1 1 1 1 
1 1 1 1 1 1 1 1 1 
1 1 1 1 1 1 1 1 1 
1 1 1 1 1 1 1 1 1 
1 1 1 1 1 1 1 1 1 
1 1 1 1 1 1 1 1 1 
1 1 1 1 1 1 1 1 1 
1 1 1 1 1 1 1 1 1 
1 1 1 1 1 1 1 1 1 
1 1 1 1 1 1 1 1 1 
1 1 1 1 1 1 1 1 1 
1 1 1 1 1 1 1 1 1 
1 1 1 1 1 1 1 1 1 
1 1 1 1 1 1 1 1 1 
1 1 1 1 1 1 1 1 1 
1 1 1 1 1 1 1 1 1 
1 1 1 1 1 1 1 1 1 
1 1 1 1 1 1 1 1 1 
1 1 1 1 1 1 1 1 1 
1 1 1 1 1 1 1 1 1 
1 1 1 1 1 1 1 1 1 
1 1 1 1 1 1 1 1 1 
1 1 1 1 1 1 1 1 1 
1 1 1 1 1 1 1 1 1 
1 1 1 1 1 1 1 1 1 
1 1 1 1 1 1 1 1 1 
1 1 1 1 1 1 1 1 1 
1 1 1 1 1 1 1 1 1 
1 1 1 1 1 1 1 1 1 
1 1 1 1 1 1 1 1 1 
1 1 1 1 1 1 1 1 1 
1 1 1 1 1 1 1 1 1 
1 1 1 1 1 1 1 1 1 
1 1 1 1 1 1 1 1 1 
1 1 1 1 1 1 1 1 1 
1 1 1 1 1 1 1 1 1 
1 1 1 1 1 1 1 1 1 
1 1 1 1 1 1 1 1 1 
1 1 1 1 1 1 1 1 1 
1 1 1 1 1 1 1 1 1 
1 1 1 1 1 1 1 1 1 
1 1 1 1 1 1 1 1 1 
1 1 1 1 1 1 1 1 1 
1 1 1 1 1 1 1 1 1 
1 1 1 1 1 1 1 1 1 
1 1 1 1 1 1 1 1 1 
1 1 1 1 1 1 1 1 1 
1 1 1 1 1 1 1 1 1 
1 1 1 1 1 1 1 1 1 
1 1 1 1 1 1 1 1 1 
1 1 1 1 1 1 1 1 1 
1 1 1 1 1 1 1 1 1 
1 1 1 1 1 1 1 1 1 
1 1 1 1 1 1 1 1 1 
1 1 1 1 1 1 1 1 1 
1 1 1 1 1 1 1 1 1 
1 1 1 1 1 1 1 1 1 
1 1 1 1 1 1 1 1 1 
1 1 1 1 1 1 1 1 1 
1 1 1 1 1 1 1 1 1 
1 1 1 1 1 1 1 1 1 
1 1 1 1 1 1 1 1 1 
1 1 1 1 1 1 1 1 1 
1 1 1 1 1 1 1 1 1 
1 1 1 1 1 1 1 1 1 
1 1 1 1 1 1 1 1 1 
1 1 1 1 1 1 1 1 1 
1 1 1 1 1 1 1 1 1 
1 1 1 1 1 1 1 1 1 
1 1 1 1 1 1 1 1 1 
1 1 1 1 1 1 1 1 1 
1 1 1 1 1 1 1 1 1 
1 1 1 1 1 1 1 1 1 
1 1 1 1 1 1 1 1 1 
1 1 1 1 1 1 1 1 1 
1 1 1 1 1 1 1 1 1 
1 1 1 1 1 1 1 1 1 
1 1 1 1 1 1 1 1 1 
1 1 1 1 1 1 1 1 1 
1 1 1 1 1 1 1 1 1 
1 1 1 1 1 1 1 1 1 
1 1 1 1 1 1 1 1 1 
1 1 1 1 1 1 1 1 1 
1 1 1 1 1 1 1 1 1 
1 1 1 1 1 1 1 1 1 
1 1 1 1 1 1 1 1 1 
1 1 1 1 1 1 1 1 1 
1 1 1 1 1 1 1 1 1 
1 1 1 1 1 1 1 1 1 
1 1 1 1 1 1 1 1 1 
1 1 1 1 1 1 1 1 1 
1 1 1 1 1 1 1 1 1 
1 1 1 1 1 1 1 1 1 
1 1 1 1 1 1 1 1 1 
1 1 1 1 1 1 1 1 1 
1 1 1 1 1 1 1 1 1 
1 1 1 1 1 1 1 1 1 
1 1 1 1 1 1 1 1 1 
1 1 1 1 1 1 1 1 1 
1 1 1 1 1 1 1 1 1 
1 1 1 1 1 1 1 1 1 
1 1 1 1 1 1 1 1 1 
1 1 1 1 1 1 1 1 1 
1 1 1 1 1 1 1 1 1 
1 1 1 1 1 1 1 1 1 
1 1 1 1 1 1 1 1 1 
1 1 1 1 1 1 1 1 1 
1 1 1 1 1 1 1 1 1 
1 1 1 1 1 1 1 1 1 
1 1 1 1 1 1 1 1 1 
1 1 1 1 1 1 1 1 1 
1 1 1 1 1 1 1 1 1 
1 1 1 1 1 1 1 1 1 
1 1 1 1 1 1 1 1 1 
1 1 1 1 1 1 1 1 1 
1 1 1 1 1 1 1 1 1 
1 1 1 1 1 1 1 1 1 
1 1 1 1 1 1 1 1 1 
1 1 1 1 1 1 1 1 1 
1 1 1 1 1 1 1 1 1 
1 1 1 1 1 1 1 1 1 
1 1 1 1 1 1 1 1 1 
1 1 1 1 1 1 1 1 1 
1 1 1 1 1 1 1 1 1 
1 1 1 1 1 1 1 1 1 
1 1 1 1 1 1 1 1 1 
1 1 1 1 1 1 1 1 1 
1 1 1 1 1 1 1 1 1 
1 1 1 1 1 1 1 1 1 
1 1 1 1 1 1 1 1 1 
1 1 1 1 1 1 1 1 1 
1 1 1 1 1 1 1 1 1 
1 1 1 1 1 1 1 1 1 
1 1 1 1 1 1 1 1 1 
1 1 1 1 1 1 1 1 1 
1 1 1 1 1 1 1 1 1 
1 1 1 1 1 1 1 1 1 
1 1 1 1 1 1 1 1 1 
1 1 1 1 1 1 1 1 1 
1 1 1 1 1 1 1 1 1 
1 1 1 1 1 1 1 1 1 
1 1 1 1 1 1 1 1 1 
1 1 1 1 1 1 1 1 1 
1 1 1 1 1 1 1 1 1 
1 1 1 1 1 1 1 1 1 
1 1 1 1 1 1 1 1 1 
1 1 1 1 1 1 1 1 1 
1 1 1 1 1 1 1 1 1 
1 1 1 1 1 1 1 1 1 
1 1 1 1 1 1 1 1 1 
1 1 1 1 1 1 1 1 1 
1 1 1 1 1 1 1 1 1 
1 1 1 1 1 1 1 1 1 
1 1 1 1 1 1 1 1 1 
1 1 1 1 1 1 1 1 1 
1 1 1 1 1 1 1 1 1 
1 1 1 1 1 1 1 1 1 
1 1 1 1 1 1 1 1 1 
1 1 1 1 1 1 1 1 1 
1 1 1 1 1 1 1 1 1 
1 1 1 1 1 1 1 1 1 
1 1 1 1 1 1 1 1 1 
1 1 1 1 1 1 1 1 1 
1 1 1 1 1 1 1 1 1 
1 1 1 1 1 1 1 1 1 
1 1 1 1 1 1 1 1 1 
1 1 1 1 1 1 1 1 1 
1 1 1 1 1 1 1 1 1 
1 1 1 1 1 1 1 1 1 
1 1 1 1 1 1 1 1 1 
1 1 1 1 1 1 1 1 1 
1 1 1 1 1 1 1 1 1 
1 1 1 1 1 1 1 1 1 
1 1 1 1 1 1 1 1 1 
1 1 1 1 1 1 1 1 1 
1 1 1 1 1 1 1 1 1 
1 1 1 1 1 1 1 1 1 
1 1 1 1 1 1 1 1 1 
1 1 1 1 1 1 1 1 1 
1 1 1 1 1 1 1 1 1 
1 1 1 1 1 1 1 1 1 
1 1 1 1 1 1 1 1 1 
1 1 1 1 1 1 1 1 1 
1 1 1 1 1 1 1 1 1 
1 1 1 1 1 1 1 1 1 
1 1 1 1 1 1 1 1 1 
1 1 1 1 1 1 1 1 1 
1 1 1 1 1 1 1 1 1 
1 1 1 1 1 1 1 1 1 
1 1 1 1 1 1 1 1 1 
1 1 1 1 1 1 1 1 1 
1 1 1 1 1 1 1 1 1 
1 1 1 1 1 1 1 1 1 
1 1 1 1 1 1 1 1 1 
1 1 1 1 1 1 1 1 1 
1 1 1 1 1 1 1 1 1 
1 1 1 1 1 1 1 1 1 
1 1 1 1 1 1 1 1 1 
1 1 1 1 1 1 1 1 1 
1 1 1 1 1 1 1 1 1 
1 1 1 1 1 1 1 1 1 
1 1 1 1 1 1 1 1 1 
1 1 1 1 1 1 1 1 1 
1 1 1 1 1 1 1 1 1 
1 1 1 1 1 1 1 1 1 
1 1 1 1 1 1 1 1 1 
1 1 1 1 1 1 1 1 1 
1 1 1 1 1 1 1 1 1 
1 1 1 1 1 1 1 1 1 
1 1 1 1 1 1 1 1 1 
1 1 1 1 1 1 1 1 1 
1 1 1 1 1 1 1 1 1 
1 1 1 1 1 1 1 1 1 
1 1 1 1 1 1 1 1 1 
1 1 1 1 1 1 1 1 1 
1 1 1 1 1 1 1 1 1 
1 1 1 1 1 1 1 1 1 
1 1 1 1 1 1 1 1 1 
1 1 1 1 1 1 1 1 1 
1 1 1 1 1 1 1 1 1 
1 1 1 1 1 1 1 1 1 
1 1 1 1 1 1 1 1 1 
1 1 1 1 1 1 1 1 1 
1 1 1 1 1 1 1 1 1 
1 1 1 1 1 1 1 1 1 
1 1 1 1 1 1 1 1 1 
1 1 1 1 1 1 1 1 1 
1 1 1 1 1 1 1 1 1 
1 1 1 1 1 1 1 1 1 
1 1 1 1 1 1 1 1 1 
1 1 1 1 1 1 1 1 1 
1 1 1 1 1 1 1 1 1 
1 1 1 1 1 1 1 1 1 
1 1 1 1 1 1 1 1 1 
1 1 1 1 1 1 1 1 1 
1 1 1 1 1 1 1 1 1 
1 1 1 1 1 1 1 1 1 
1 1 1 1 1 1 1 1 1 
1 1 1 1 1 1 1 1 1 
1 1 1 1 1 1 1 1 1 
1 1 1 1 1 1 1 1 1 
1 1 1 1 1 1 1 1 1 
1 1 1 1 1 1 1 1 1 
1 1 1 1 1 1 1 1 1 
1 1 1 1 1 1 1 1 1 
1 1 1 1 1 1 1 1 1 
1 1 1 1 1 1 1 1 1 
1 1 1 1 1 1 1 1 1 
1 1 1 1 1 1 1 1 1 
1 1 1 1 1 1 1 1 1 
1 1 1 1 1 1 1 1 1 
1 1 1 1 1 1 1 1 1 
1 1 1 1 1 1 1 1 1 
1 1 1 1 1 1 1 1 1 
1 1 1 1 1 1 1 1 1 
1 1 1 1 1 1 1 1 1 
1 1 1 1 1 1 1 1 1 
1 1 1 1 1 1 1 1 1 
1 1 1 1 1 1 1 1 1 
1 1 1 1 1 1 1 1 1 
1 1 1 1 1 1 1 1 1 
1 1 1 1 1 1 1 1 1 
1 1 1 1 1 1 1 1 1 
1 1 1 1 1 1 1 1 1 
1 1 1 1 1 1 1 1 1 
1 1 1 1 1 1 1 1 1 
1 1 1 1 1 1 1 1 1 
1 1 1 1 1 1 1 1 1 
1 1 1 1 1 1 1 1 1 
1 1 1 1 1 1 1 1 1 
1 1 1 1 1 1 1 1 1 
1 1 1 1 1 1 1 1 1 
1 1 1 1 1 1 1 1 1 
1 1 1 1 1 1 1 1 1 
1 1 1 1 1 1 1 1 1 
1 1 1 1 1 1 1 1 1 
1 1 1 1 1 1 1 1 1 
1 1 1 1 1 1 1 1 1 
1 1 1 1 1 1 1 1 1 
1 
NORMALS Normals float
-0.18305 -0.143673 -0.972549 -0.35295 0.0673291 -0.933216 -0.36534 -0.0193188 -0.930674 
-0.603754 0.0684495 -0.794227 -0.348621 0.000188324 -0.937264 -0.499911 -0.0512745 -0.864557 
-0.12221 0.0234433 -0.992227 -0.439793 0.0937668 -0.893191 -0.00236378 0.0691353 -0.997604 
-0.471517 0.14715 -0.869493 -0.400597 0.142127 -0.905164 -0.212746 -0.219395 -0.952158 
0.16831 -0.21845 -0.961224 0.0305369 -0.130589 -0.990966 0.151765 -0.0967491 -0.98367 
-0.551327 -0.0382333 -0.833412 0.105035 -0.0126911 -0.994388 0.0337447 0.0185518 -0.999258 
-0.0430727 0.0237691 -0.998789 -0.0497287 0.0760495 -0.995863 -0.46586 0.114091 -0.877472 
-0.0958039 0.144157 -0.984906 -0.496163 0.150568 -0.855074 -0.229771 0.107213 -0.967321 
-0.43002 0.0694607 -0.900143 -0.214513 0.125149 -0.96867 -0.388404 0.106388 -0.915327 
-0.0524588 -0.269753 -0.9615 0.164074 -0.239642 -0.956897 0.139523 -0.193725 -0.971084 
-0.623665 -0.0729525 -0.77828 -0.696673 -0.0365469 -0.716458 -0.601901 0.19069 -0.775469 
-0.698486 0.0835256 -0.710733 -0.701425 0.127232 -0.701295 0.263043 -0.0215992 -0.964542 
-0.664272 -0.0502606 -0.745799 -0.608884 0.149023 -0.779136 -0.0793541 0.0696649 -0.994409 
0.187952 0.238729 -0.952724 0.0542029 0.138765 -0.988841 -0.466558 0.228623 -0.854433 
-0.312333 0.184123 -0.931959 -0.148681 0.348449 -0.92546 -0.223907 0.294868 -0.928934 
-0.566593 -0.175447 -0.805103 -0.249978 -0.319806 -0.913912 0.281507 0.0106305 -0.9595 
-0.747418 0.193675 -0.635497 -0.851862 0.0913931 -0.515732 0.283313 0.192552 -0.939498 
-0.739591 0.168774 -0.651552 0.0393842 0.235084 -0.971177 -0.40017 0.250691 -0.881486 
-0.292919 -0.391165 -0.872461 -0.139448 -0.424358 -0.894693 0.0935103 -0.450684 -0.887772 
-0.579085 -0.247814 -0.776691 0.136985 -0.372826 -0.917734 0.302239 -0.332218 -0.893467 
0.342412 -0.156161 -0.926481 -0.833375 0.103919 -0.542851 0.290961 0.10452 -0.951009 
-0.716024 0.117723 -0.688078 -0.651914 0.221363 -0.725263 -0.172068 0.28073 -0.944237 
-0.356672 0.305901 -0.882728 -0.0696167 0.270673 -0.960151 -0.425198 0.287695 -0.85816 
-0.442288 0.316236 -0.839271 -0.165087 0.383777 -0.908549 -0.275904 -0.424069 -0.862579 
0.00459302 -0.437744 -0.899088 -0.428371 -0.379098 -0.820233 -0.7863 -0.0509652 -0.61574 
-0.845883 0.0119459 -0.533235 0.268625 0.19677 -0.942933 -0.781188 0.191807 -0.594101 
-0.652322 0.229613 -0.722325 0.199988 0.293149 -0.934916 -0.612565 0.35262 -0.707406 
-0.161886 -0.406081 -0.899384 0.0717845 -0.432968 -0.898547 -0.480367 -0.293777 -0.826403 
-0.770822 -0.105497 -0.628254 0.431509 -0.262045 -0.863211 0.399571 -0.0401043 -0.915824 
0.356223 0.142377 -0.92349 -0.784367 0.271894 -0.557532 0.194175 0.318396 -0.927858 
0.0731059 0.342352 -0.936723 -0.334375 0.387111 -0.859267 0.181646 -0.422911 -0.887779 
-0.727334 -0.218438 -0.650592 0.350028 -0.370043 -0.860551 -0.849941 -0.0509 -0.524413 
-0.919057 0.118402 -0.375919 -0.70184 0.302775 -0.644786 0.0945282 0.254194 -0.962523 
-0.0712318 0.35828 -0.930893 -0.0218667 0.371294 -0.928258 -0.295518 0.445283 -0.845217 
-0.181823 0.363754 -0.913577 -0.406012 0.394838 -0.824171 -0.212403 -0.436176 -0.874434 
-0.50391 -0.372334 -0.779386 0.409791 -0.419999 -0.809736 0.496658 -0.219958 -0.839613 
0.478442 -0.094491 -0.87302 0.465507 -0.0225004 -0.884758 0.377381 0.156267 -0.912778 
-0.930506 0.1545 -0.332096 -0.863665 0.194585 -0.464994 -0.60787 0.318608 -0.727312 
-0.00324982 0.44708 -0.894488 0.158022 0.41822 -0.894495 -0.424951 0.382132 -0.820605 
0.179437 -0.57255 -0.799993 0.291683 -0.571573 -0.766958 -0.948438 0.0434093 -0.313977 
-0.868189 0.235715 -0.436677 -0.0706965 0.460063 -0.885067 -0.523711 0.397733 -0.753349 
-0.0882875 0.441591 -0.892862 -0.463677 0.465584 -0.753814 -0.257038 -0.449596 -0.85545 
-0.202756 -0.557158 -0.805273 -0.462397 -0.51892 -0.718965 0.0833531 -0.521755 -0.849014 
0.372866 -0.529884 -0.761705 0.553601 -0.237769 -0.798118 0.477906 0.071577 -0.87549 
0.486842 0.126447 -0.864289 0.393577 0.19898 -0.897499 0.330366 0.342899 -0.879362 
-0.762534 0.298209 -0.574119 0.0635664 0.430585 -0.900309 -0.107447 -0.561306 -0.820604 
-0.322771 -0.444788 -0.835454 -0.0832333 -0.551159 -0.830239 -0.015819 -0.470285 -0.882373 
-0.499323 -0.331056 -0.800674 0.566991 -0.350263 -0.745545 -0.942938 0.0844822 -0.322072 
-0.948353 0.136297 -0.286445 -0.913306 0.244102 -0.326015 -0.947605 0.188064 -0.258219 
-0.689822 0.340914 -0.638689 0.286982 0.376755 -0.880737 -0.386017 0.30298 -0.871317 
-0.548888 0.460322 -0.697729 -0.280978 0.526866 -0.802162 -0.391235 -0.403813 -0.826964 
0.489431 -0.415138 -0.766889 -0.919888 -0.0548724 -0.388323 -0.899792 0.31219 -0.304815 
-0.132844 0.502907 -0.854071 -0.488359 0.469984 -0.735269 -0.123945 -0.519494 -0.845437 
-0.079146 -0.468319 -0.880007 -0.37104 -0.344443 -0.862373 -0.43025 -0.358273 -0.828568 
-0.713314 -0.221231 -0.665011 -0.971725 0.1475 -0.184376 0.568576 0.201163 -0.797656 
0.466075 0.309812 -0.828728 -0.705772 0.370336 -0.603934 -0.881485 0.23498 -0.409595 
0.0905769 0.619737 -0.779565 -0.244555 0.533159 -0.809898 -0.408256 -0.398969 -0.821067 
-0.0515446 -0.500236 -0.864354 0.27932 -0.585126 -0.76132 0.372224 -0.540062 -0.754839 
0.501041 -0.492464 -0.711644 -0.962118 0.12661 -0.241451 -0.635798 0.442855 -0.632171 
0.273343 0.498431 -0.822709 -0.416195 -0.458051 -0.785476 -0.682631 -0.236493 -0.691438 
-0.939585 -0.00695693 -0.342244 0.454013 -0.0761067 -0.887738 0.415844 -0.0374714 -0.908664 
0.27702 0.0534779 -0.959375 0.29207 0.0247656 -0.956076 0.406579 -0.0927696 -0.908893 
0.530783 0.143828 -0.835214 0.653258 0.262335 -0.710235 0.572351 0.325506 -0.752635 
0.380883 0.426579 -0.820341 0.365892 0.452716 -0.813124 -0.401699 0.404578 -0.821556 
-0.24009 0.450592 -0.859839 -0.319454 0.495085 -0.807985 -0.160567 0.539355 -0.826628 
-0.0614249 -0.60882 -0.790927 0.0801018 -0.586645 -0.805873 -0.652203 -0.275583 -0.706177 
-0.979721 0.0643176 -0.189764 0.424692 -0.206749 -0.881415 0.40273 -0.0949033 -0.910386 
0.430388 -0.00674029 -0.902619 0.429907 0.0753168 -0.899726 0.438615 0.0902181 -0.894135 
-0.994105 0.0853756 -0.0668234 0.44078 0.425304 -0.790461 -0.818973 0.335861 -0.465275 
-0.592968 0.363008 -0.718759 0.0913789 0.525144 -0.846093 -0.570819 0.435663 -0.695962 
-0.361207 0.518481 -0.775053 -0.0404299 0.507674 -0.8606 -0.257806 -0.606039 -0.752498 
0.310554 -0.668457 -0.675812 -0.342717 -0.421863 -0.839391 -0.69723 -0.253863 -0.67039 
0.468028 -0.36839 -0.803267 -0.985146 0.146456 -0.0896492 0.422835 -0.240757 -0.87364 
-0.982192 0.17995 -0.0540087 -0.989575 0.14288 0.0180921 -0.980606 0.157574 -0.116545 
0.636836 0.370098 -0.676363 0.366475 0.510505 -0.777869 -0.854649 0.325134 -0.4048 
0.560207 0.425806 -0.710533 -0.71111 0.415302 -0.567316 -0.365376 0.539461 -0.758605 
-0.328463 -0.562701 -0.758604 -0.706647 -0.240888 -0.665299 -0.930783 -0.00184285 -0.365567 
0.569972 -0.174814 -0.802852 0.594925 -0.0388843 -0.80284 0.560103 0.0951302 -0.822942 
0.433709 0.206445 -0.877084 0.473031 0.256375 -0.84292 0.333627 0.52717 -0.781528 
-0.931726 0.224304 -0.28561 0.221684 0.519988 -0.824905 -0.0397586 0.543676 -0.838353 
0.0760831 -0.642606 -0.76241 0.0620148 -0.664604 -0.744618 0.477616 -0.612312 -0.630046 
-0.833564 -0.111284 -0.541097 0.491946 -0.588063 -0.642005 0.445539 -0.46227 -0.766682 
0.48072 -0.328768 -0.812909 0.571254 -0.227154 -0.788714 0.558308 0.266895 -0.785531 
-0.967153 0.12211 -0.222946 -0.963532 0.0941163 -0.250497 -0.935105 0.161242 -0.315564 
0.526073 0.449482 -0.721951 -0.83095 0.258797 -0.49249 -0.0798954 0.605507 -0.791819 
0.173255 0.576549 -0.798482 -0.400832 0.578955 -0.710031 -0.296884 0.596215 -0.745914 
-0.0612134 -0.609943 -0.790078 -0.600839 -0.370477 -0.708336 0.347749 -0.366916 -0.862811 
0.393139 -0.410001 -0.823007 -0.983521 0.147942 -0.103917 -0.97393 0.226837 0.00233082 
0.747613 -0.110317 -0.654909 0.735725 0.0468201 -0.67566 -0.989651 0.0160812 0.142591 
0.480542 0.501085 -0.719717 0.386161 0.525073 -0.758405 -0.630436 0.472492 -0.615875 
0.0119269 0.599747 -0.800101 -0.295523 0.561388 -0.772987 -0.255725 -0.577933 -0.774982 
0.167091 -0.688406 -0.705817 -0.977835 0.122712 -0.16965 0.438711 -0.372021 -0.818005 
-0.975938 0.170228 0.136261 0.827299 -0.0538776 -0.559172 0.554326 0.233139 -0.79898 
-0.989768 0.0724563 0.12292 0.167494 0.657239 -0.734836 -0.960081 0.142621 -0.240632 
-0.951005 0.138922 -0.276208 -0.41912 -0.423514 -0.803103 0.324287 -0.430132 -0.842511 
0.347049 -0.493253 -0.797658 0.444764 -0.477187 -0.757943 0.627763 -0.419213 -0.655877 
0.791455 -0.179094 -0.584401 -0.934156 0.252644 0.25204 0.887562 -0.0114601 -0.460545 