# vtk DataFile Version 4.2
vtk output
ASCII
DATASET POLYDATA
POINTS 1315 float
283.127 206.502 85.8703 283.267 206.431 85.9303 282.505 205.827 86.1371 
278.201 206.129 86.1864 283.719 206.613 86.0304 284.744 205.855 86.4102 
278.491 207.379 85.8445 285.239 207.029 86.3103 270.587 208.608 86.2497 
274.714 208.532 85.9217 277.864 208.73 85.7852 278.741 208.64 85.7881 
284.724 208.37 86.3067 265.246 210.33 86.4011 259.832 211.224 86.7977 
259.689 211.634 86.7079 261.618 210.703 86.7005 266.837 210.801 86.3008 
270.101 210.811 86.2068 279.318 210.07 86.0743 258.913 212.016 86.7656 
262.074 211.828 86.5243 273.093 210.898 86.1829 276.6 210.926 86.1997 
260.868 212.579 86.6506 280.15 204.385 86.9434 286.052 204.838 87.188 
287.955 205.475 87.4772 273.089 206.363 86.7338 289.517 206.138 88.0333 
268.651 207.249 87.0327 262.38 209.501 87.0511 257.887 211.607 87.1503 
268.358 211.745 86.455 273.577 212.018 86.6079 278.834 211.349 86.4998 
258.29 213.143 86.9124 252.606 213.941 87.6659 251.05 215.103 87.8574 
288.175 204.202 88.4106 289.272 205.077 88.2822 290.378 206.55 88.5753 
290.629 206.466 88.8267 265.458 207.466 87.6368 289.911 207.034 88.2209 
253.535 212.53 88.0109 250.617 213.895 88.4117 273.256 213.3 87.3447 
253.238 216.485 87.7588 281.104 202.595 88.4957 285.732 203.483 88.1608 
288.795 204.177 88.9307 289.705 205.119 88.6896 290.406 205.865 88.8214 
254.151 210.945 88.9503 282.458 212.128 87.5331 287.788 210.979 88.7577 
246.927 217.904 89.6492 249.052 218.235 88.935 282.153 202.299 88.9069 
284.657 202.407 89.1592 289.078 204.217 89.2053 290.732 206.029 89.2525 
290.987 208.611 90.146 245.717 217.397 90.627 245.598 218.464 90.622 
246.849 218.902 89.8479 246.861 220.104 90.2158 285.454 201.682 90.7493 
287.532 202.782 90.3489 289.164 203.92 90.1465 291.174 206.927 90.4863 
291.207 207.985 90.5634 290.538 209.434 90.1461 284.802 213.791 89.6202 
272.735 215.471 88.9515 244.407 219.879 91.8003 245.278 220.936 91.3303 
279.767 201.023 91.1459 282.563 200.87 91.4376 290.23 204.925 90.498 
260.159 206.817 90.63 288.566 212.646 91.2321 245.761 215.649 91.3876 
286.763 202.081 91.4063 269.399 202.708 91.4567 290.879 206.151 91.5034 
291.245 208.322 91.9295 286.525 214.717 91.6178 243.689 219.409 92.6542 
250.647 222.898 91.5047 244.277 223.575 93.1746 283.525 200.655 92.5916 
282.311 200.588 92.8637 286.705 202.007 92.2915 290.902 206.404 92.1228 
291.13 207.734 92.6872 290.458 210.569 93.4056 282.589 200.526 93.3638 
283.102 200.674 93.2379 285.158 201.285 92.9694 287.68 215.145 93.3703 
242.858 223.517 94.2528 287.141 202.814 94.2553 260.979 203.952 94.6192 
289.651 204.897 93.5945 290.299 210.661 95.3045 288.87 214.636 94.7046 
241.759 222.885 95.3146 271.727 200.056 95.8252 290.261 208.561 95.2711 
240.698 224.513 97.0171 241.29 225.407 96.5119 240.955 226.146 97.2346 
269.613 200.212 97.2734 276.184 200.346 96.5594 277.7 200.938 97.3761 
288.757 205.777 96.1296 290.021 211.053 96.5744 240.535 223.665 97.2635 
241.014 227.093 97.7119 245.653 229.663 97.0979 270.823 199.951 97.2009 
271.674 199.977 97.6082 263.962 201.697 97.6454 278.171 201.427 98.0784 
260.641 202.619 98.4308 247.845 207.857 97.9614 289.232 215.83 98.493 
288.563 217.368 97.9909 289.04 216.555 98.4844 283.841 220.269 96.6997 
287.705 218.615 98.1467 249.35 230.34 97.2181 278.633 201.888 98.5349 
289.112 208.868 97.6352 289.538 210.679 97.7723 289.577 213.008 98.208 
239.936 221.185 99.1044 286.28 220.698 99.3581 242.116 230.384 99.1504 
254.59 204.192 100.425 245.807 207.59 100.616 239.418 227.152 100.285 
270.302 228.972 100.541 246.101 233.572 100.254 256.91 203.428 101.335 
284.744 208.097 100.958 243.262 209.166 101.609 241.708 211.514 100.956 
289.047 212.471 99.3998 288.924 215.686 100.195 287.948 219.452 101.145 
287.747 219.849 101.405 286.49 221.363 101.1 282.511 223.635 100.542 
264.592 202.277 101.404 288.405 212.831 100.411 240.116 214.028 102.662 
287.837 219.572 101.573 285.519 222.317 101.419 243.618 234.06 101.458 
258.844 203.047 102.193 287.01 212.897 101.809 287.969 217.899 101.986 
287.535 219.186 102.498 286.64 221.447 102.227 286.83 221.127 102.472 
285.471 222.78 102.868 284.338 223.845 103.064 243.688 236.464 103.796 
248.732 236.462 103.407 259.098 203.112 102.545 265.471 204.163 103.865 
266.76 203.837 103.231 242.668 209.424 103.951 246.157 207.136 104.859 
285.4 222.847 103.436 285.712 222.357 103.553 284.462 223.857 103.431 
284.689 223.685 103.585 263.195 204.178 104.425 266.023 205.627 105.025 
266.135 206.751 105.755 243.838 208.556 105.094 284.355 215.409 104.315 
284.732 223.611 103.893 283.674 224.551 104.532 284.658 221.664 105.255 
284.95 222.77 104.562 284.727 223.326 104.522 280.53 226.786 106.035 
260.846 235.935 105.641 239.219 236.004 106.648 240.891 237.597 106.523 
251.779 205.455 106.516 266.775 211.912 108.151 281.869 220.258 106.731 
282.448 221.139 106.651 283.394 224.137 105.755 282.569 225.026 105.887 
282.367 224.9 106.301 281.281 225.952 106.419 282.058 222.817 107.002 
282.455 224.119 106.628 281.867 224.947 106.717 279.501 227.312 107.13 
237.284 230.062 107.407 277.881 228.572 107.53 275.901 230.052 107.226 
252.058 205.978 108.412 251.401 206.103 108.32 242.35 210.697 109.348 
238.846 216.809 107.94 265.197 215.577 110.291 264.846 215.956 110.615 
268.261 215.734 109.471 265.016 216.155 110.544 265.795 215.948 110.207 
266.061 216.234 110.318 266.661 215.988 110.083 265.329 216.649 110.596 
280.039 223.535 108.045 278.281 228.013 107.931 277.049 229.04 108.304 
275.96 229.943 108.175 272.956 232.411 108.547 268.084 235.85 108.712 
263.127 237.385 109.351 239.081 238.607 109.858 241.134 239.791 109.637 
245.668 239.876 109.288 267.852 215.975 109.76 267.834 215.971 109.761 
264.671 215.436 110.713 264.618 214.713 110.604 267.838 215.955 109.741 
267.786 215.998 109.786 267.994 215.94 109.682 267.432 216.099 109.934 
266.049 216.347 110.529 265.737 216.993 110.748 277.202 226.364 109.575 
274.806 230.581 109.417 273.051 232.38 109.32 273.902 231.54 109.372 
239.612 239.667 111.13 241.854 240.455 110.845 254.271 207.269 110.738 
264.627 214.809 110.751 264.808 215.31 110.77 265.08 215.481 110.765 
264.889 215.311 110.855 267.887 216.064 109.784 264.095 216.272 111.487 
264.691 215.692 111.013 265.348 215.746 110.759 265.643 215.983 110.671 
265.791 216.103 110.683 265.536 216.072 110.731 266.542 216.403 110.447 
264.239 218.258 111.41 265.877 216.898 110.82 263.73 219.212 111.815 
263.532 219.57 111.994 237.358 219.747 110.222 263.477 219.889 112.02 
264.302 219.132 111.685 264.473 219.381 111.888 265.282 219.015 111.756 
262.997 221.056 112.405 262.815 221.439 112.563 263.134 220.844 112.307 
263.349 220.548 112.191 277.119 227.982 109.316 236.091 231.071 110.698 
273.139 232.071 110.409 236.336 233.575 110.955 243.145 240.546 111.088 
239.374 214.258 112.121 264.09 215.514 111.473 238.018 216.333 111.849 
264.995 215.805 110.974 263.693 217.667 112.098 265.674 216.407 110.826 
263.676 218.72 111.982 266.275 217.292 110.897 263.464 219.594 112.134 
263.563 219.135 112.222 264.696 219.482 112.596 264.306 219.516 112.497 
264.836 219.473 112.336 266.529 218.224 111.202 263.126 220.595 112.393 
264.65 219.471 112.141 264.131 219.761 112.305 266.433 219.365 111.808 
262.641 221.781 112.764 264.181 219.767 112.152 263.916 220.012 112.134 
263.078 221.237 112.512 262.574 222.05 112.789 262.731 221.776 112.671 
274.604 229.879 110.572 273.913 231.025 110.441 272.847 232.125 111.037 
272.465 232.58 111.164 236.814 236.563 112.546 237.703 238.239 112.439 
239.222 239.823 112.477 240.147 213.298 113.244 263.62 218.542 112.726 
263.362 219.984 112.362 263.603 219.388 112.449 263.893 219.313 112.631 
264.152 219.283 113.069 264.992 219.631 112.722 263.041 220.921 112.553 
263.386 220.269 112.467 263.784 219.845 112.442 263.439 220.468 112.463 
263.735 220.205 112.33 262.319 222.503 113.071 262.474 222.22 112.96 
262.572 222.07 112.896 262.526 222.195 112.937 262.765 221.732 112.775 
263.195 221.008 112.531 262.197 222.785 113.149 262.44 222.368 112.93 
262.445 222.389 113.007 262.753 221.826 112.775 261.602 223.972 113.763 
262.18 222.885 113.172 262.215 222.85 113.16 262.354 222.599 113.051 
261.3 224.566 114.085 261.684 223.847 113.677 261.896 223.46 113.464 
261.933 223.41 113.435 262.081 223.131 113.301 261.273 224.635 114.121 
261.518 224.187 113.861 261.708 223.84 113.664 272.618 230.502 112.285 
268.213 236.038 112.115 240.271 240.391 113.401 241.348 240.613 113.483 
263.27 218.222 113.508 264.468 220.523 114.068 265.674 221 113.407 
234.301 221.948 113.628 262.181 222.826 113.213 262.325 222.576 113.097 
261.819 223.543 113.555 261.971 223.275 113.417 262.108 223.041 113.294 
261.893 223.479 113.496 262.448 222.415 112.997 261.447 224.271 113.929 
261.16 224.819 114.235 261.425 224.317 113.957 261.95 223.385 113.436 
261.226 224.697 114.163 260.994 225.132 114.414 261.729 223.811 113.654 
261.759 223.751 113.62 260.848 225.413 114.584 261.115 224.949 114.305 
261.424 224.378 113.971 271.552 229.826 113.114 271.789 232.329 112.498 
271.363 232.476 112.916 270.895 233.246 112.88 237.952 238.849 114.034 
258.178 212.431 114.984 239.271 213.91 115.277 261.57 224.055 113.815 
261.821 223.593 113.565 261.123 224.893 114.281 261.266 224.644 114.135 
261.56 224.106 113.83 232.131 224.884 115.468 260.736 225.596 114.698 
260.786 225.513 114.645 260.627 225.804 114.824 260.909 225.302 114.519 
261.16 224.857 114.256 261.475 224.282 113.92 260.252 226.474 115.24 
259.89 227.076 115.627 260.19 226.553 115.299 260.579 225.936 114.901 
260.61 225.844 114.851 260.777 225.558 114.675 260.616 225.879 114.873 
260.957 225.243 114.486 260.161 226.717 115.396 260.095 226.841 115.497 
260.493 226.098 115.017 259.037 228.5 116.597 259.315 228.021 116.26 
259.432 227.934 116.184 259.862 227.292 115.769 259.852 227.318 115.791 
[...]
POINT_DATA 1315
SCALARS scalars float
LOOKUP_TABLE default
1 1 1 1 1 1 1 1 1 
1 1 1 1 1 1 1 1 1 
1 1 1 1 1 1 1 1 1 
1 1 1 1 1 1 1 1 1 
1 1 1 1 1 1 1 1 1 
1 1 1 1 1 1 1 1 1 
1 1 1 1 1 1 1 1 1 
1 1 1 1 1 1 1 1 1 
1 1 1 1 1 1 1 1 1 
1 1 1 1 1 1 1 1 1 
1 1 1 1 1 1 1 1 1 
1 1 1 1 1 1 1 1 1 
1 1 1 1 1 1 1 1 1 
1 1 1 1 1 1 1 1 1 
1 1 1 1 1 1 1 1 1 
1 1 1 1 1 1 1 1 1 
1 1 1 1 1 1 1 1 1 
1 1 1 1 1 1 1 1 1 
1 1 1 1 1 1 1 1 1 
1 1 1 1 1 1 1 1 1 
1 1 1 1 1 1 1 1 1 
1 1 1 1 1 1 1 1 1 
1 1 1 1 1 1 1 1 1 
1 1 1 1 1 1 1 1 1 
1 1 1 1 1 1 1 1 1 
1 1 1 1 1 1 1 1 1 
1 1 1 1 1 1 1 1 1 
1 1 1 1 1 1 1 1 1 
1 1 1 1 1 1 1 1 1 
1 1 1 1 1 1 1 1 1 
1 1 1 1 1 1 1 1 1 
1 1 1 1 1 1 1 1 1 
1 1 1 1 1 1 1 1 1 
1 1 1 1 1 1 1 1 1 
1 1 1 1 1 1 1 1 1 
1 1 1 1 1 1 1 1 1 
1 1 1 1 1 1 1 1 1 
1 1 1 1 1 1 1 1 1 
1 1 1 1 1 1 1 1 1 
1 1 1 1 1 1 1 1 1 
1 1 1 1 1 1 1 1 1 
1 1 1 1 1 1 1 1 1 
1 1 1 1 1 1 1 1 1 
1 1 1 1 1 1 1 1 1 
1 1 1 1 1 1 1 1 1 
1 1 1 1 1 1 1 1 1 
1 1 1 1 1 1 1 1 1 
1 1 1 1 1 1 1 1 1 
1 1 1 1 1 1 1 1 1 
1 1 1 1 1 1 1 1 1 
1 1 1 1 1 1 1 1 1 
1 1 1 1 1 1 1 1 1 
1 1 1 1 1 1 1 1 1 
1 1 1 1 1 1 1 1 1 
1 1 1 1 1 1 1 1 1 
1 1 1 1 1 1 1 1 1 
1 1 1 1 1 1 1 1 1 
1 1 1 1 1 1 1 1 1 
1 1 1 1 1 1 1 1 1 
1 1 1 1 1 1 1 1 1 
1 1 1 1 1 1 1 1 1 
1 1 1 1 1 1 1 1 1 
1 1 1 1 1 1 1 1 1 
1 1 1 1 1 1 1 1 1 
1 1 1 1 1 1 1 1 1 
1 1 1 1 1 1 1 1 1 
1 1 1 1 1 1 1 1 1 
1 1 1 1 1 1 1 1 1 
1 1 1 1 1 1 1 1 1 
1 1 1 1 1 1 1 1 1 
1 1 1 1 1 1 1 1 1 
1 1 1 1 1 1 1 1 1 
1 1 1 1 1 1 1 1 1 
1 1 1 1 1 1 1 1 1 
1 1 1 1 1 1 1 1 1 
1 1 1 1 1 1 1 1 1 
1 1 1 1 1 1 1 1 1 
1 1 1 1 1 1 1 1 1 
1 1 1 1 1 1 1 1 1 
1 1 1 1 1 1 1 1 1 
1 1 1 1 1 1 1 1 1 
1 1 1 1 1 1 1 1 1 
1 1 1 1 1 1 1 1 1 
1 1 1 1 1 1 1 1 1 
1 1 1 1 1 1 1 1 1 
1 1 1 1 1 1 1 1 1 
1 1 1 1 1 1 1 1 1 
1 1 1 1 1 1 1 1 1 
1 1 1 1 1 1 1 1 1 
1 1 1 1 1 1 1 1 1 
1 1 1 1 1 1 1 1 1 
1 1 1 1 1 1 1 1 1 
1 1 1 1 1 1 1 1 1 
1 1 1 1 1 1 1 1 1 
1 1 1 1 1 1 1 1 1 
1 1 1 1 1 1 1 1 1 
1 1 1 1 1 1 1 1 1 
1 1 1 1 1 1 1 1 1 
1 1 1 1 1 1 1 1 1 
1 1 1 1 1 1 1 1 1 
1 1 1 1 1 1 1 1 1 
1 1 1 1 1 1 1 1 1 
1 1 1 1 1 1 1 1 1 
1 1 1 1 1 1 1 1 1 
1 1 1 1 1 1 1 1 1 
1 1 1 1 1 1 1 1 1 
1 1 1 1 1 1 1 1 1 
1 1 1 1 1 1 1 1 1 
1 1 1 1 1 1 1 1 1 
1 1 1 1 1 1 1 1 1 
1 1 1 1 1 1 1 1 1 
1 1 1 1 1 1 1 1 1 
1 1 1 1 1 1 1 1 1 
1 1 1 1 1 1 1 1 1 
1 1 1 1 1 1 1 1 1 
1 1 1 1 1 1 1 1 1 
1 1 1 1 1 1 1 1 1 
1 1 1 1 1 1 1 1 1 
1 1 1 1 1 1 1 1 1 
1 1 1 1 1 1 1 1 1 
1 1 1 1 1 1 1 1 1 
1 1 1 1 1 1 1 1 1 
1 1 1 1 1 1 1 1 1 
1 1 1 1 1 1 1 1 1 
1 1 1 1 1 1 1 1 1 
1 1 1 1 1 1 1 1 1 
1 1 1 1 1 1 1 1 1 
1 1 1 1 1 1 1 1 1 
1 1 1 1 1 1 1 1 1 
1 1 1 1 1 1 1 1 1 
1 1 1 1 1 1 1 1 1 
1 1 1 1 1 1 1 1 1 
1 1 1 1 1 1 1 1 1 
1 1 1 1 1 1 1 1 1 
1 1 1 1 1 1 1 1 1 
1 1 1 1 1 1 1 1 1 
1 1 1 1 1 1 1 1 1 
1 1 1 1 1 1 1 1 1 
1 1 1 1 1 1 1 1 1 
1 1 1 1 1 1 1 1 1 
1 1 1 1 1 1 1 1 1 
1 1 1 1 1 1 1 1 1 
1 1 1 1 1 1 1 1 1 
1 1 1 1 1 1 1 1 1 
1 1 1 1 1 1 1 1 1 
1 1 1 1 1 1 1 1 1 
1 
NORMALS Normals float
0.140109 -0.167931 -0.975791 0.292213 -0.485737 -0.823815 0.109361 -0.484747 -0.867791 
-0.0931812 -0.28491 -0.954014 0.296643 -0.268048 -0.916599 0.109267 -0.427827 -0.897232 
0.0706692 -0.152687 -0.985745 0.303034 -0.0143787 -0.952871 -0.124047 -0.118673 -0.985154 
-0.0226923 -0.0376862 -0.999032 -0.076649 0.0311665 -0.996571 0.17188 0.0791528 -0.981933 
0.192889 0.135101 -0.971875 -0.101381 -0.129533 -0.986379 -0.174713 -0.364028 -0.914855 
-0.0544231 -0.0727528 -0.995864 -0.0658812 -0.181253 -0.981227 -0.0838846 0.18386 -0.979367 
-0.0538571 0.0817447 -0.995197 0.241463 0.233468 -0.941907 -0.198774 -0.132069 -0.971106 
-0.0408457 -0.0645813 -0.997076 -0.026173 0.240712 -0.970244 0.0576551 0.561557 -0.825427 
-0.032526 0.0781419 -0.996411 -0.0366841 -0.579014 -0.814492 0.239872 -0.436805 -0.866985 
0.330792 -0.32912 -0.884453 -0.129252 -0.613335 -0.779175 0.532115 -0.215989 -0.818659 
-0.162122 -0.412935 -0.896215 -0.191008 -0.492743 -0.848953 -0.272048 -0.364419 -0.890611 
-0.00174176 0.415429 -0.909624 0.232139 0.412657 -0.880809 0.04199 0.361936 -0.931257 
-0.117907 0.0644733 -0.990929 -0.333703 -0.359128 -0.87159 -0.284454 -0.0271065 -0.958306 
0.343789 -0.740431 -0.577556 0.514442 -0.536002 -0.669367 0.605478 -0.108012 -0.788498 
0.841684 0.0697721 -0.535444 -0.2229 -0.582583 -0.781609 0.537272 0.0935367 -0.838206 
-0.30834 -0.460739 -0.832254 -0.509761 -0.420596 -0.750495 0.168991 0.498263 -0.850397 
0.0505822 0.385225 -0.921436 -0.0881357 -0.748142 -0.657659 0.185826 -0.67935 -0.709896 
0.41919 -0.804302 -0.421163 0.643354 -0.519263 -0.562549 0.691731 -0.461983 -0.55505 
-0.401669 -0.626701 -0.667763 0.145104 0.678547 -0.720083 0.451227 0.423486 -0.785528 
-0.410442 -0.248605 -0.877344 -0.287474 0.0849731 -0.954012 0.121577 -0.768358 -0.628367 
0.180219 -0.798464 -0.574436 0.606444 -0.704292 -0.369051 0.891085 -0.384764 -0.240673 
0.821718 0.33799 -0.458849 -0.608277 -0.254676 -0.751757 -0.722409 0.00179216 -0.691464 
-0.48137 0.147826 -0.863962 -0.386574 0.337481 -0.858293 0.328983 -0.889197 -0.317959 
0.510149 -0.822049 -0.252947 0.556616 -0.806722 -0.198438 0.984 -0.141317 -0.108503 
0.966758 0.225296 -0.120916 0.755991 0.51964 -0.398061 0.0721254 0.794089 -0.603508 
0.271914 0.6301 -0.727349 -0.682993 0.180493 -0.707773 -0.522293 0.404127 -0.750927 
-0.129779 -0.896199 -0.424246 0.105412 -0.928083 -0.357142 0.768312 -0.640073 -0.00176026 
-0.321206 -0.726535 -0.607432 0.683548 0.565539 -0.461441 -0.827499 -0.321518 -0.460295 
0.449237 -0.862288 -0.233764 -0.221107 -0.786444 -0.57673 0.928577 -0.365826 0.0625798 
0.998605 -0.0016964 0.0527761 0.425637 0.702823 -0.569976 -0.82886 0.013407 -0.559295 
-0.0767719 0.561929 -0.823615 -0.512736 0.320163 -0.796616 0.213699 -0.9729 -0.0883123 
0.0256686 -0.992312 -0.121071 0.597427 -0.799403 0.0635274 0.914289 -0.369066 0.166933 
0.941728 -0.143673 0.30415 0.947957 0.317983 -0.0162712 0.169335 -0.972448 0.16022 
0.266664 -0.953735 0.13885 0.371193 -0.919075 0.132353 0.461821 0.764826 -0.44918 
-0.654047 0.0958565 -0.750356 0.505738 -0.78111 0.366192 -0.392149 -0.816348 -0.424022 
0.790241 -0.526121 0.31419 0.970342 -0.0199997 0.240909 0.80619 0.463435 -0.367813 
-0.815991 -0.096823 -0.569898 -0.083238 -0.961745 -0.260996 0.93484 -0.11116 0.337221 
-0.877421 0.108935 -0.46719 -0.644259 0.266696 -0.716801 -0.815348 0.263433 -0.515569 
-0.225246 -0.969549 0.0961194 0.0195466 -0.917268 0.397791 0.31103 -0.87659 0.36722 
0.721743 -0.453866 0.522583 0.978108 0.0681449 0.196624 -0.848504 -0.0614162 -0.525613 
-0.747148 0.381366 -0.544362 -0.214984 0.630932 -0.745457 -0.116999 -0.991733 0.0526882 
-0.00901231 -0.937223 0.348614 -0.252511 -0.909118 -0.331274 0.117636 -0.800949 0.587063 
-0.268207 -0.963214 0.0168701 -0.410065 -0.708759 -0.574027 0.972658 0.229584 -0.0350442 
0.773407 0.501484 -0.387758 0.896248 0.436786 -0.0771941 0.387841 0.686149 -0.61545 
0.726232 0.604895 -0.326634 0.0906096 0.707732 -0.700646 0.245916 -0.681993 0.688775 
0.802336 -0.245402 0.54409 0.841572 -0.242132 0.482834 0.941814 0.020146 0.33553 
-0.935744 -0.100185 -0.338151 0.628408 0.692274 -0.354768 -0.38315 0.576681 -0.72155 
-0.300724 -0.942992 -0.142587 -0.453752 -0.873989 -0.173932 -0.927807 0.13447 -0.347981 
0.170307 0.726461 -0.665771 -0.027078 0.680548 -0.732203 -0.289842 -0.957021 -0.0100967 
0.491623 -0.452035 0.744292 -0.660298 -0.675528 -0.328128 -0.76531 -0.497804 -0.408035 
0.867127 -0.0732034 0.492678 0.911005 0.0415428 0.410297 0.957136 0.258877 0.129902 
0.845695 0.532468 0.0357475 0.710665 0.642976 -0.285547 0.380009 0.803408 -0.458398 
-0.0594614 -0.875679 0.479219 0.77022 -0.202158 0.604891 -0.951077 -0.258445 -0.169286 
0.912002 0.279454 0.300264 0.580762 0.755278 -0.303759 -0.253865 0.681649 -0.686227 
-0.167714 -0.966781 0.192891 0.629859 -0.217933 0.745509 0.88388 0.0585065 0.464039 
0.808344 0.106815 0.57894 0.780283 0.623716 -0.0462238 0.866264 0.432929 0.249318 
0.688965 0.712605 -0.132369 0.564684 0.786792 -0.24918 -0.335759 0.687774 -0.643609 
0.0468126 0.768825 -0.637743 -0.149951 -0.92467 0.35 0.0411463 -0.696339 0.716533 
0.28541 -0.655554 0.699135 -0.73773 -0.674534 -0.0275321 -0.397415 -0.913811 0.0837314 
0.775783 0.630212 0.0315025 0.829785 0.463533 0.310797 0.634129 0.762498 -0.128364 
0.687588 0.724568 -0.0471553 0.0472771 -0.864147 0.501014 0.100987 -0.588512 0.802157 
0.330683 -0.546667 0.769288 -0.524732 -0.828876 0.193963 0.297177 -0.364441 0.882535 
0.754799 0.633441 0.170385 0.620966 0.781143 0.0649376 0.684852 0.0815966 0.724099 
0.806221 0.385396 0.448864 0.768129 0.447698 0.45776 0.560429 0.796163 0.228132 
0.1667 0.751279 -0.638585 -0.738962 0.409512 -0.53501 -0.363151 0.741839 -0.563735 
-0.22411 -0.956282 0.187882 0.439173 -0.391117 0.808798 0.257241 -0.303306 0.917515 
0.532361 -0.104774 0.840008 0.702968 0.433798 0.563609 0.656596 0.600071 0.456944 
0.654666 0.495309 0.571036 0.346647 0.539083 0.76761 0.444211 0.0569025 0.894113 
0.628927 0.217696 0.746364 0.428394 0.428712 0.795415 0.608787 0.440468 0.659823 
-0.914285 0.0788639 -0.397321 0.627464 0.717993 0.301288 0.585593 0.810575 -0.00705351 
-0.165926 -0.924476 0.343237 -0.319571 -0.886288 0.335215 -0.681986 -0.725934 0.0889646 
-0.937609 -0.306582 -0.163999 0.420582 -0.242521 0.87424 0.640994 -0.179039 0.746372 
0.245434 -0.50312 0.828633 0.512265 -0.342215 0.787701 0.205193 -0.306318 0.929551 
-0.166474 -0.62803 0.760174 0.135691 -0.516675 0.845361 0.287867 -0.421037 0.860152 
0.376538 -0.0382499 0.925611 0.667302 0.567616 0.482203 0.622641 0.706437 0.33655 
0.631476 0.702726 0.327742 0.457457 0.762882 -0.456885 -0.193821 -0.228929 -0.953952 
0.164119 0.862339 -0.478996 -0.670608 0.631131 -0.389819 -0.200353 0.867524 -0.455259 
0.130682 0.974275 -0.183603 0.23988 -0.474497 0.846942 0.143679 -0.59539 0.790486 
0.671051 -0.116081 0.732267 0.775773 -0.374344 0.507979 0.121159 -0.67292 0.729725 
0.150685 -0.551393 0.820524 0.311439 -0.497606 0.809564 0.232416 -0.494832 0.837331 
-0.420816 -0.704528 0.571449 -0.193423 -0.414559 0.889229 0.636442 0.208001 0.742749 
0.682576 0.699812 0.210602 0.627897 0.770096 0.112685 0.728324 0.661184 0.179945 
-0.421395 0.861537 -0.283161 -0.253596 0.92432 -0.28517 0.070228 -0.806555 0.586973 
0.682385 -0.471952 0.558223 0.479546 0.220291 -0.849416 -0.282971 0.251135 -0.925667 
0.603102 -0.462215 0.650096 0.313443 -0.340027 0.886643 0.642188 -0.0837334 0.76196 
-0.0969791 0.820589 -0.56323 0.599387 -0.552861 0.578861 0.597198 -0.707678 0.377552 
0.507902 -0.536039 0.674313 -0.587138 0.446107 -0.675468 0.333268 -0.45791 0.824167 
0.09303 -0.30284 0.94849 -0.852977 0.152316 0.49923 0.687263 0.0103219 0.726336 
0.861076 0.197302 0.468637 -0.818668 -0.310211 -0.483271 0.592817 -0.0190297 0.805113 
-0.153717 -0.341193 0.927339 -0.405129 -0.598979 0.69072 -0.0723483 -0.644767 0.760948 
0.541234 -0.0741145 0.8376 0.75069 0.0674768 0.6572 0.309601 -0.184793 0.932737 
-0.177438 -0.423568 0.888316 0.639221 0.483396 0.598102 -0.887914 0.157808 -0.432093 
0.763283 0.550124 0.338766 -0.915876 0.250863 -0.313432 0.191155 0.9792 -0.068025 
-0.828853 -0.54442 -0.128876 0.557993 -0.215119 0.801478 -0.774261 -0.499413 -0.388725 
-0.455902 0.870139 -0.187113 0.855306 -0.118254 0.504448 -0.0541656 -0.05924 0.996773 
0.97539 0.188297 0.114711 -0.0289711 -0.141484 0.989516 0.944961 0.242931 0.219166 
0.899006 0.340824 -0.275005 0.184898 -0.982617 -0.0166098 -0.136373 -0.904764 -0.40349 
0.0120161 -0.952963 0.302849 0.305403 -0.349788 0.885651 0.936023 0.350787 -0.0284404 
-0.408827 -0.899075 0.156604 -0.549016 -0.680644 -0.485083 0.32768 -0.589127 0.738617 
0.92274 0.385355 0.00729778 -0.642049 -0.760532 0.0967647 -0.677846 -0.655801 0.332339 
-0.792761 -0.552599 0.257225 0.344832 -0.23436 0.908937 -0.146516 -0.439471 0.886227 
0.698132 0.471678 0.538639 0.732267 0.565112 0.380043 0.766457 0.525134 0.369835 
0.714033 0.577864 0.395259 -0.887843 0.412954 -0.20299 -0.79306 0.569588 -0.21593 
-0.532792 0.829675 -0.166649 -0.797894 -0.592091 -0.113106 0.956819 -0.254261 -0.140882 
0.845104 0.307651 -0.437207 0.662413 0.0971948 -0.742807 0.444089 -0.466025 -0.765249 
0.605907 -0.795518 0.00526317 0.328321 -0.85874 0.39341 0.454894 0.388957 -0.801114 
0.111283 0.134063 -0.984705 -0.187254 -0.302391 -0.93461 -0.35491 -0.103075 -0.929201 
-0.692794 -0.479509 -0.538617 0.922208 0.350729 0.162855 -0.342091 0.174001 -0.923416 
-0.383136 0.140583 -0.912931 -0.268106 0.218402 -0.938307 -0.338757 0.112641 -0.934107 
-0.701847 -0.260381 -0.663033 0.835883 0.148674 0.52839 -0.176152 -0.478642 0.860158 
-0.522787 0.0697575 -0.849604 -0.836792 -0.272503 -0.474892 0.884404 0.234579 0.403487 
0.336278 -0.26877 0.902596 -0.225807 -0.51368 0.827734 -0.78141 -0.542175 0.308941 
0.4975 -0.218639 0.839458 0.525028 -0.183271 0.831118 0.331455 -0.297749 0.895256 
-0.236597 -0.537563 0.80935 -0.720368 -0.567335 0.398999 0.262216 -0.375971 0.888757 
0.191671 -0.405504 0.893772 -0.123743 -0.527143 0.840719 0.706864 0.28448 0.647622 
0.501464 0.861019 0.084736 -0.436344 0.896827 -0.0728418 -0.0858487 0.996307 0.00131218 
0.771756 -0.463512 0.435373 0.55571 -0.570074 0.605146 0.519891 -0.336767 0.785049 
-0.828347 -0.221341 -0.514636 -0.248561 0.290965 -0.923881 -0.389097 0.188973 -0.901606 
0.426271 0.563637 -0.707536 -0.447824 0.193137 -0.873013 -0.555386 0.0975013 -0.825857 
-0.682716 0.0063849 -0.730656 -0.832345 -0.205269 -0.514845 0.892321 0.451018 0.0186036 
0.891229 0.452005 0.037458 0.499492 0.600156 -0.624756 -0.907114 -0.374991 -0.191116 
0.640829 -0.100472 0.76108 0.372437 -0.314839 0.873022 -0.891241 -0.452025 -0.0369121 
-0.684223 -0.591027 0.427232 0.0729749 -0.484291 0.871858 -0.39235 -0.616126 0.682972 
-0.669087 -0.605981 0.430242 0.540963 -0.161992 0.825299 0.733765 0.317772 0.600508 
0.679128 0.394528 0.618978 0.628208 0.711429 0.314996 -0.731496 0.68136 -0.0257226 
0.578888 -0.460404 0.672991 -0.551992 -0.833725 0.0143805 -0.410878 0.252783 -0.875945 
-0.624094 0.0720679 -0.778019 -0.0129295 0.492719 -0.870093 -0.324596 0.330857 -0.886099 
-0.631091 0.0870795 -0.770806 -0.807402 -0.121318 -0.577394 0.639037 -0.302783 0.707074 
-0.261024 0.390125 -0.882989 0.211676 0.600887 -0.770797 0.0537653 0.534215 -0.843637 
-0.0765614 0.472177 -0.878173 -0.427125 0.267274 -0.863788 0.207719 -0.432563 0.87735 
0.406303 -0.315925 0.857385 0.877644 0.471899 0.0839796 -0.239269 -0.600047 0.763344 
0.186412 0.595119 -0.781718 0.203223 0.59118 -0.780517 -0.902093 -0.419867 -0.0996975 
-0.567765 0.182263 -0.80276 -0.450651 -0.63868 0.623701 -0.70252 0.0985362 -0.704809 
-0.289084 0.399861 -0.869794 0.473049 -0.313311 0.823445 0.534773 -0.23221 0.812463 
0.00656006 -0.564342 0.825515 -0.386618 -0.653305 0.650937 -0.857103 -0.509272 0.0775642 
0.508837 -0.218122 0.832771 -0.820946 -0.551781 0.146923 0.509286 -0.14075 0.84901 
0.628833 0.142021 0.76446 -0.88899 0.44656 -0.101391 -0.862547 0.501107 0.0700279 
0.668639 0.569915 0.477618 0.163968 0.984315 -0.0650984 -0.283892 0.937564 0.200946 
-0.747457 -0.56876 -0.34325 -0.117518 0.480608 -0.869025 0.868479 0.240624 0.43341 
0.683222 0.646111 -0.340218 0.329972 0.645441 -0.688857 0.209396 0.608411 -0.765499 
0.200668 0.601046 -0.773612 -0.0918688 0.518631 -0.850048 0.843926 0.159443 0.512217 
-0.354636 0.417741 -0.836496 0.833029 0.126059 0.538676 -0.85444 -0.0777885 -0.513693 
-0.512973 -0.66521 0.542544 -0.886771 -0.462073 -0.0112345 0.760986 -0.040167 0.647523 
0.487164 -0.17283 0.856038 -0.72409 0.407284 -0.556608 -0.452242 -0.643803 0.617248 
0.599061 0.722353 0.345444 -0.743925 0.662692 0.0861167 -0.496865 0.850248 0.173795 
0.733954 0.645585 -0.211024 0.271737 0.66436 -0.696265 0.88003 0.233549 0.413524 
0.889539 0.428123 0.159468 0.132942 0.672984 -0.727612 -0.91723 -0.188501 -0.350937 
-0.638161 0.247809 -0.728931 -0.962962 -0.226301 -0.146602 -0.406909 -0.583515 0.702805 
-0.528087 0.630951 -0.568353 -0.668835 0.696576 -0.259694 0.699332 0.215467 0.681549 
0.723157 0.435088 0.536417 -0.791563 0.0697815 -0.60709 -0.347898 0.565703 -0.747628 
0.880819 0.438354 0.178896 0.860118 0.436869 0.263331 -0.772103 0.356522 -0.526069 
-0.694387 0.574847 -0.432871 0.63291 -0.183271 0.752221 0.100172 -0.535172 0.838783 
0.512793 -0.0554526 0.85672 0.589597 0.242559 0.770416 -0.677642 0.699693 0.226343 
0.572492 0.381589 0.725702 -0.633226 0.704561 0.320341 0.107911 0.992075 0.0643552 
-0.461319 0.814803 0.351114 0.578632 -0.519157 0.629016 0.768397 0.639333 0.0286215 
0.648382 0.729643 -0.217306 0.557294 0.811568 -0.175446 0.0210854 0.901214 -0.432861 
-0.706129 0.590627 -0.390566 0.717813 0.00622852 0.696208 -0.994511 -0.0593239 0.0861853 
-0.332852 -0.414155 0.847163 -0.7774 0.208864 0.593317 0.321721 -0.312811 0.893669 
0.5798 0.0935603 0.809369 -0.659296 0.736183 0.152847 -0.129109 0.949627 0.28555 
0.483035 0.772252 0.412679 0.511005 0.0569282 0.857691 0.817582 0.475294 0.325048 
0.736235 0.676507 0.0172281 -0.0628571 0.997584 -0.0295924 -0.87063 0.446925 -0.205576 
-0.953006 -0.200443 -0.227161 0.374572 0.134402 0.917405 0.77514 0.366124 0.514889 
-0.842762 0.48374 -0.23611 -0.52331 0.480826 -0.703529 0.598155 -0.119118 0.792478 
0.602086 0.00382719 0.798422 -0.35019 0.90043 -0.258055 -0.150276 0.640186 0.753378 
-0.208771 -0.0292537 0.977527 0.309185 -0.0334107 0.950415 0.0497567 -0.344807 0.937354 
0.367436 -0.111385 0.923355 0.598296 0.212978 0.772452 0.60195 0.512683 0.612219 
0.379067 0.842022 0.383806 0.552589 0.552653 0.623875 0.296242 0.897344 0.327129 
-0.873481 0.034736 -0.485617 0.422913 0.27832 0.86237 0.640936 0.324418 0.695668 
0.314868 0.421366 0.850475 0.899466 0.425842 0.0980773 0.118156 0.0946645 0.988473 
0.708885 0.61349 -0.34801 0.256745 -0.00652312 -0.966457 0.772486 -0.583142 0.251417 
0.274588 -0.320854 0.906451 0.599254 0.791744 -0.11847 0.0665448 0.596515 -0.799838 
0.480392 0.264154 0.836329 0.245125 0.965799 -0.0845307 0.282787 0.732774 0.618929 
0 -0.116042 -0.993244 0 -0.99336 -0.11505 -0.897652 -0.431672 -0.0887646 
0.897652 -0.431672 -0.0887646 0 0.447214 -0.894427 0.591949 0.214814 0.776821 
0.228846 -0.150842 0.961705 0.441405 0.0989174 0.891839 0.480321 0.372752 0.793944 
-0.0357382 0.884912 0.464384 -0.290134 -0.899548 0.326552 -0.748725 -0.656556 -0.0913537 
-0.807557 0.379497 -0.45148 0.74392 0.0642511 0.665172 0.629351 0.0211683 0.776832 
0.558923 0.442858 0.701058 0.557932 0.0744608 0.826539 0.703939 0.43623 0.560512 
0.69004 0.422659 0.58754 0 -0.271731 0.962373 0.494228 0.22168 0.840593 
0.270414 -0.0191251 0.962554 0.382896 0.0474757 0.922571 0.363316 0.143139 0.920605 
0.376452 0.374964 0.847164 0.389045 0.568824 0.724626 -0.0757935 0.900983 0.427182 
0.0784102 0.805125 0.587899 0.1446 0.825413 0.545696 -0.524554 -0.843508 0.115484 
-0.683485 -0.729746 0.0178865 -0.894581 0.27953 -0.348695 0.661863 0.46071 0.59134 
0 -0.116042 -0.993244 0 -0.99336 -0.11505 -0.897652 -0.431672 -0.0887646 
0.897652 -0.431672 -0.0887646 -0.530551 0.753775 0.387734 0.175929 -0.152799 0.972472 
0 0.447214 -0.894427 0.223224 0.0126437 0.974685 0.340771 0.463704 0.817835 
0.109011 0.619737 0.777202 -0.035922 0.680282 0.73207 -0.215591 -0.902953 0.371748 
-0.843179 -0.374114 -0.386119 -0.979675 -0.175563 -0.097025 -0.922231 -0.119189 -0.367811 
-0.695288 0.652144 -0.302131 0.596069 0.437325 0.673386 0.163812 -0.750206 -0.640591 
-0.573974 0.22433 -0.787547 0.333264 0.488647 -0.806324 0.51087 -0.379782 0.771218 
0 -0.271731 0.962373 -0.308961 0.742014 0.594944 0.170459 0.309703 0.935429 
0.679533 -0.0558055 0.731519 -0.933893 0.192565 -0.301267 0.557405 0.385457 0.735339 
-0.495465 -0.601661 0.626513 0.202271 0.530417 0.823252 -0.846664 -0.516692 0.127239 
-0.978719 0.0817155 0.188232 -0.974752 0.20881 -0.0790991 -0.776566 0.596684 -0.20227 
-0.442891 0.896107 0.0289616 -0.295004 0.865146 0.405579 0.0733262 -0.790721 0.60777 