# vtk DataFile Version 4.2
vtk output
ASCII
DATASET POLYDATA
POINTS 1387 float
283.134 206.644 85.8282 282.991 206.726 85.8323 280.174 206.055 86.1376 
278.919 206.891 85.9403 280.826 206.876 85.8503 282.541 206.604 85.8906 
284.72 206.625 86.1937 274.263 207.405 86.2559 286.068 206.714 86.4932 
277.299 208.302 85.7935 280.854 207.906 85.7782 286.36 207.484 86.5889 
266.441 209.649 86.4291 273.317 209.23 85.9817 284.705 208.425 86.2803 
263.407 210.416 86.57 277.649 209.443 85.8529 281.252 209.259 85.9901 
261.211 211.273 86.6319 264.078 211.128 86.4179 270.799 210.7 86.1786 
262.079 211.846 86.5262 276.604 210.94 86.2006 280.34 205.082 86.7295 
283.906 204.966 86.858 287.099 205.603 87.1059 289.326 206.274 87.849 
271.668 206.714 87.0953 273.227 206.825 86.7031 267.351 208.057 86.9877 
272.347 207.657 86.4035 263.17 209.406 87.0137 262.722 209.196 87.2619 
265.144 209.414 86.6648 261.169 210.367 86.9181 286.802 209.085 87.0665 
268.986 211.307 86.322 282.791 210.44 86.5978 255.821 212.771 87.3021 
264.014 212.087 86.5163 254.372 214.135 87.3235 251.428 214.888 87.7689 
252.592 214.825 87.5225 251.03 215.386 87.8639 284.586 204.508 87.4485 
287.989 205.243 87.6731 288.298 205.269 87.897 278.839 205.05 86.9574 
287.78 205.372 87.4734 288.96 205.704 87.8549 290.364 206.992 88.4229 
266.956 207.473 87.6035 289.724 207.344 87.9735 289.529 208.354 88.1209 
257.497 210.938 87.6645 284.629 210.825 87.1856 251.791 213.55 88.1377 
264.965 213.128 86.8741 281.909 204.189 87.9634 278.622 204.746 87.4337 
288.359 205.225 88.1253 289.32 205.856 88.1639 272.31 206.068 87.6828 
272.333 205.887 88.1347 290.092 206.506 88.3757 268.31 206.699 88.1976 
290.409 206.87 88.5522 290.547 207.042 88.7804 263.806 207.586 88.8474 
290.663 207.385 88.8765 261.575 208.337 88.6987 259.629 209.113 88.6243 
290.698 208.099 88.982 289.764 209.462 88.9116 251.36 212.871 88.867 
249.238 214.406 89.1424 247.851 216.548 89.2727 254.482 216.875 87.8873 
247.527 217.706 89.3551 248.033 218.648 89.3391 279.123 204.498 88.123 
283.772 204.18 88.222 286.196 204.619 88.1215 286.179 204.621 88.3113 
286.467 204.721 88.3627 280.919 204.654 89.0434 285.188 204.467 88.2139 
286.21 204.635 87.8608 288.551 205.324 88.2916 272.423 205.781 88.5888 
280.324 204.945 89.2675 281.92 204.966 89.3606 283.459 204.904 89.2194 
269.213 206.377 88.9846 280.674 205.36 89.6088 290.4 206.786 88.6948 
290.432 206.895 88.9237 266.367 206.748 89.1849 290.725 207.577 89.1562 
290.767 207.896 89.2769 290.441 208.635 88.938 290.745 208.218 89.2611 
290.546 208.8 89.205 290.671 208.643 89.3717 251.743 211.998 89.604 
289.807 209.935 89.508 249.562 213.398 89.8106 247.04 215.815 90.3564 
271.564 215.184 88.625 245.992 217.548 90.6555 245.976 219.077 90.4762 
254.232 219.11 89.1328 275.504 202.004 90.0174 275.504 202.004 90.0175 
275.504 202.004 90.0174 275.505 202.004 90.0174 275.505 202.004 90.0175 
275.505 202.004 90.0175 279.65 204.576 88.719 281.046 204.472 88.7729 
281.923 204.375 88.6415 284.026 204.208 88.377 284.209 204.191 88.2943 
275.504 202.004 90.0174 275.505 202.005 90.0175 281.798 204.545 88.9376 
284.194 204.297 88.472 284.505 204.592 88.7014 286.819 204.972 88.6378 
270.677 206.298 89.5612 273.102 205.769 89.2172 278.804 205.3 89.3789 
289.068 206.021 89.0938 267.817 206.552 90.0537 289.486 206.221 89.0533 
290.637 207.438 89.2989 257.757 209.236 89.8435 253.795 210.871 89.769 
290.598 208.915 89.6542 251.998 211.501 90.3711 290.114 209.619 89.5098 
290.468 209.186 89.6229 287.681 212.288 90.3077 288.254 211.85 90.4409 
288.813 211.224 90.2274 286.855 212.961 90.2799 286.16 213.52 90.3676 
286.43 213.34 90.4053 286.255 213.529 90.4457 245.673 217.665 91.0591 
245.384 220.973 91.3583 275.504 202.004 90.0175 275.505 202.004 90.0175 
270 203.009 91.0174 270 203.009 91.0175 270 203.009 91.0175 
270 203.009 91.0175 267.982 206.532 90.4158 267.596 206.612 90.4789 
267.985 206.503 90.5122 270 203.009 91.0175 268.045 206.508 90.5343 
265.083 206.896 90.4663 268.561 206.643 90.4109 270.116 206.698 90.2612 
268.59 207.186 91.0072 289.057 206.798 89.8222 290.517 207.548 89.5797 
290.589 208.068 89.7813 271.983 207.931 91.2314 290.652 208.43 89.7887 
256.399 209.546 90.9139 290.561 208.845 89.9328 253.269 210.866 90.4539 
251.419 211.784 90.4117 252.545 211.142 90.7156 288.139 212.15 90.8933 
289.112 211.081 90.6845 246.368 216.07 91.3887 285.754 214.003 90.9847 
286.218 213.58 90.5546 283.443 215.247 91.1678 244.853 218.422 92.1005 
244.295 220.183 92.4043 248.054 221.672 90.7621 244.573 221.954 92.3394 
244.783 222.319 92.3127 245.239 222.432 92.0933 270 203.009 91.0175 
267 204.009 92.0174 267 204.009 92.0175 267 204.009 92.0175 
267 204.009 92.0175 264.645 207.185 91.001 267 204.009 92.0175 
268.013 206.74 90.6841 263.214 207.432 91.1375 262.673 207.753 91.3354 
290.289 207.458 89.7748 259.736 208.333 91.0664 261.288 208.149 91.3956 
290.387 208.22 90.0857 269.103 208.799 91.9818 288.927 208.64 90.995 
290.426 208.957 90.2193 290.202 209.285 90.4751 290.298 208.886 90.3647 
250.872 211.981 90.9687 289.673 210.341 90.8296 289.843 209.968 90.8145 
248.031 214.119 91.5806 286.134 213.922 91.5638 287.261 213.014 91.6009 
283.797 215.79 92.3825 243.928 220.352 93.0045 243.672 221.142 93.2747 
246.359 223.349 92.1964 247.753 223.524 92.0361 244.876 223.526 92.8801 
265 204.009 93.0174 265 204.009 93.0175 265 204.009 93.0175 
265 204.009 93.0175 267 204.009 92.0175 263 205.009 93.0174 
263 205.009 93.0175 263 205.009 93.0175 263 205.009 93.0175 
265 204.009 93.0175 265.936 207.066 91.0214 263 207.498 91.3122 
263.156 207.437 91.3131 263.046 207.463 91.3544 263.398 207.422 91.2687 
263 205.009 93.0175 259.16 208.541 91.9585 258.68 208.78 92.0635 
262.98 207.538 91.3736 263.375 208.056 91.7325 257.101 209.335 92.1105 
256.582 209.717 92.2992 257.777 209.145 92.0684 290.212 208.57 90.3504 
263.654 209.343 92.5665 288.567 209.315 91.4032 253.503 210.71 91.921 
289.101 210.152 91.496 289.807 209.634 90.8659 288.751 210.339 91.7526 
289.347 210.671 91.2253 249.959 212.551 91.8152 288.087 212.225 91.6619 
246.569 215.737 92.8865 246.141 216.164 92.5786 284.692 215.187 92.4208 
244.866 217.89 93.0889 244.223 219.116 93.1548 283.551 216.17 93.0213 
265 204.009 93.0175 261 205.009 94.0174 261 205.009 94.0175 
261 205.009 94.0175 261 205.009 94.0175 263 205.009 93.0175 
260 206.009 94.0174 260 206.009 94.0175 260 206.009 94.0175 
261 205.009 94.0175 263.104 207.482 91.3793 260 206.009 94.0175 
258.904 208.575 92.1128 259.004 208.538 92.1429 258.904 208.544 92.1673 
260 206.009 94.0175 256.937 209.386 92.3546 258.849 208.602 92.1648 
257.437 209.434 92.4161 259.004 208.968 92.371 256.874 209.47 92.3697 
257.262 209.983 92.7698 289.348 210.216 91.3472 252.833 211.888 93.3711 
288.73 210.724 91.8456 286.501 211.77 92.9533 287.898 211.269 92.4308 
284.127 213.014 93.845 285.985 214.035 92.7513 245.731 216.775 93.4881 
283.982 215.862 93.218 282.688 216.839 93.3751 244.15 218.84 94.1488 
242.865 221.616 94.5099 272.387 220.65 93.6706 275.734 219.995 94.0916 
260.297 224.38 93.886 242.548 225.078 95.2341 242.787 225.425 95.2004 
245.335 225.381 93.9147 261 205.009 94.0175 260 206.009 94.0175 
255 207.009 95.0174 255 207.009 95.0175 255 207.009 95.0175 
255 207.009 95.0175 258.922 208.563 92.1929 256.993 209.402 92.3846 
255 207.009 95.0175 287.398 212.024 92.8072 287.688 211.893 92.6646 
286.78 212.539 93.165 287.16 212.353 93.0138 287.545 212.253 92.6504 
287.107 212.565 93.0583 287.761 211.974 92.6378 286.665 212.963 93.069 
286.948 212.655 93.1552 246.24 216.337 93.6995 267.158 215.978 95.5077 
284.386 215.419 93.7736 243.917 219.086 94.9192 282.905 216.741 93.9137 
283.281 216.4 94.0554 277.396 219.887 95.1293 241.941 223.124 95.8628 
271.78 221.879 95.0023 268.687 222.976 94.9668 241.667 225.156 96.1547 
264.935 224.58 95.4468 242.007 226.27 96.2691 248.514 227.476 94.9718 
255 207.009 95.0175 287.117 212.525 93.1456 287.051 212.519 93.1662 
287.074 212.585 93.1734 284.424 214.127 94.2457 287.008 212.58 93.1941 
247.101 216.295 94.7097 243.714 218.899 95.4835 243.666 218.893 95.4974 
243.684 218.907 95.4659 243.699 218.923 95.5226 248.946 216.24 95.6266 
283.979 215.55 94.2299 243.809 218.934 95.3759 243.689 218.982 95.4538 
243.845 218.946 95.541 244.264 218.794 95.4374 276.15 216.926 96.165 
243.668 219.277 95.3643 243.474 219.815 95.4611 282.39 217.021 94.4986 
243.039 220.653 96.0668 242.682 221.199 95.7976 279.966 218.623 95.176 
273.049 221.454 95.041 275.525 220.715 95.4651 276.96 220.141 95.5554 
278.353 219.52 95.523 271.464 222.247 95.4467 276.448 220.367 95.8474 
268.705 223.625 95.894 240.88 226.102 97.4476 241.477 225.566 96.486 
266.504 224.541 96.2208 242.485 227.219 96.487 243.593 227.539 96.0822 
287.083 212.56 93.1932 284.875 214.512 94.1012 284.656 214.582 94.3026 
284.207 214.86 94.4191 283.448 215.342 94.8518 243.669 218.931 95.505 
282.041 215.704 95.5452 243.726 219.05 95.5716 282.653 216.151 95.1824 
243.674 219.377 95.6505 244.003 219.192 95.8409 281.807 217 95.2625 
243.642 219.905 96.1892 280.798 217.667 95.6159 242.765 221.123 96.6387 
244.688 219.786 97.1437 279.127 219 95.6662 277.671 219.757 95.8864 
276.103 220.439 96.2328 272.458 222.136 96.3264 273.766 221.601 96.3805 
269.672 223.411 96.6075 267.566 224.311 96.6299 263.869 226.017 97.3248 
267.288 224.478 97.1467 241.135 227.191 97.67 264.51 225.801 97.4964 
284.688 214.51 94.3136 282.011 215.869 95.725 281.981 215.925 95.7738 
281.984 215.939 95.7341 281.768 215.949 95.7456 281.999 216.053 95.6464 
280.955 216.593 95.8167 281.648 216.254 95.765 252.14 218.292 97.6436 
275.879 218.117 96.6839 250.778 218.879 98.0163 277.644 219.576 96.1773 
277.268 219.463 96.4922 278.573 219.209 95.901 266.223 221.292 98.3344 
273.918 221.297 96.9305 241.025 223.842 97.9522 273.018 221.843 96.8763 
269.179 223.564 97.3653 265.729 225.267 97.4367 265.982 225.129 97.5913 
[...]
POINT_DATA 1387
SCALARS scalars float
LOOKUP_TABLE default
1 1 1 1 1 1 1 1 1 
1 1 1 1 1 1 1 1 1 
1 1 1 1 1 1 1 1 1 
1 1 1 1 1 1 1 1 1 
1 1 1 1 1 1 1 1 1 
1 1 1 1 1 1 1 1 1 
1 1 1 1 1 1 1 1 1 
1 1 1 1 1 1 1 1 1 
1 1 1 1 1 1 1 1 1 
1 1 1 1 1 1 1 1 1 
1 1 1 1 1 1 1 1 1 
1 1 1 1 1 1 1 1 1 
1 1 1 1 1 1 1 1 1 
1 1 1 1 1 1 1 1 1 
1 1 1 1 1 1 1 1 1 
1 1 1 1 1 1 1 1 1 
1 1 1 1 1 1 1 1 1 
1 1 1 1 1 1 1 1 1 
1 1 1 1 1 1 1 1 1 
1 1 1 1 1 1 1 1 1 
1 1 1 1 1 1 1 1 1 
1 1 1 1 1 1 1 1 1 
1 1 1 1 1 1 1 1 1 
1 1 1 1 1 1 1 1 1 
1 1 1 1 1 1 1 1 1 
1 1 1 1 1 1 1 1 1 
1 1 1 1 1 1 1 1 1 
1 1 1 1 1 1 1 1 1 
1 1 1 1 1 1 1 1 1 
1 1 1 1 1 1 1 1 1 
1 1 1 1 1 1 1 1 1 
1 1 1 1 1 1 1 1 1 
1 1 1 1 1 1 1 1 1 
1 1 1 1 1 1 1 1 1 
1 1 1 1 1 1 1 1 1 
1 1 1 1 1 1 1 1 1 
1 1 1 1 1 1 1 1 1 
1 1 1 1 1 1 1 1 1 
1 1 1 1 1 1 1 1 1 
1 1 1 1 1 1 1 1 1 
1 1 1 1 1 1 1 1 1 
1 1 1 1 1 1 1 1 1 
1 1 1 1 1 1 1 1 1 
1 1 1 1 1 1 1 1 1 
1 1 1 1 1 1 1 1 1 
1 1 1 1 1 1 1 1 1 
1 1 1 1 1 1 1 1 1 
1 1 1 1 1 1 1 1 1 
1 1 1 1 1 1 1 1 1 
1 1 1 1 1 1 1 1 1 
1 1 1 1 1 1 1 1 1 
1 1 1 1 1 1 1 1 1 
1 1 1 1 1 1 1 1 1 
1 1 1 1 1 1 1 1 1 
1 1 1 1 1 1 1 1 1 
1 1 1 1 1 1 1 1 1 
1 1 1 1 1 1 1 1 1 
1 1 1 1 1 1 1 1 1 
1 1 1 1 1 1 1 1 1 
1 1 1 1 1 1 1 1 1 
1 1 1 1 1 1 1 1 1 
1 1 1 1 1 1 1 1 1 
1 1 1 1 1 1 1 1 1 
1 1 1 1 1 1 1 1 1 
1 1 1 1 1 1 1 1 1 
1 1 1 1 1 1 1 1 1 
1 1 1 1 1 1 1 1 1 
1 1 1 1 1 1 1 1 1 
1 1 1 1 1 1 1 1 1 
1 1 1 1 1 1 1 1 1 
1 1 1 1 1 1 1 1 1 
1 1 1 1 1 1 1 1 1 
1 1 1 1 1 1 1 1 1 
1 1 1 1 1 1 1 1 1 
1 1 1 1 1 1 1 1 1 
1 1 1 1 1 1 1 1 1 
1 1 1 1 1 1 1 1 1 
1 1 1 1 1 1 1 1 1 
1 1 1 1 1 1 1 1 1 
1 1 1 1 1 1 1 1 1 
1 1 1 1 1 1 1 1 1 
1 1 1 1 1 1 1 1 1 
1 1 1 1 1 1 1 1 1 
1 1 1 1 1 1 1 1 1 
1 1 1 1 1 1 1 1 1 
1 1 1 1 1 1 1 1 1 
1 1 1 1 1 1 1 1 1 
1 1 1 1 1 1 1 1 1 
1 1 1 1 1 1 1 1 1 
1 1 1 1 1 1 1 1 1 
1 1 1 1 1 1 1 1 1 
1 1 1 1 1 1 1 1 1 
1 1 1 1 1 1 1 1 1 
1 1 1 1 1 1 1 1 1 
1 1 1 1 1 1 1 1 1 
1 1 1 1 1 1 1 1 1 
1 1 1 1 1 1 1 1 1 
1 1 1 1 1 1 1 1 1 
1 1 1 1 1 1 1 1 1 
1 1 1 1 1 1 1 1 1 
1 1 1 1 1 1 1 1 1 
1 1 1 1 1 1 1 1 1 
1 1 1 1 1 1 1 1 1 
1 1 1 1 1 1 1 1 1 
1 1 1 1 1 1 1 1 1 
1 1 1 1 1 1 1 1 1 
1 1 1 1 1 1 1 1 1 
1 1 1 1 1 1 1 1 1 
1 1 1 1 1 1 1 1 1 
1 1 1 1 1 1 1 1 1 
1 1 1 1 1 1 1 1 1 
1 1 1 1 1 1 1 1 1 
1 1 1 1 1 1 1 1 1 
1 1 1 1 1 1 1 1 1 
1 1 1 1 1 1 1 1 1 
1 1 1 1 1 1 1 1 1 
1 1 1 1 1 1 1 1 1 
1 1 1 1 1 1 1 1 1 
1 1 1 1 1 1 1 1 1 
1 1 1 1 1 1 1 1 1 
1 1 1 1 1 1 1 1 1 
1 1 1 1 1 1 1 1 1 
1 1 1 1 1 1 1 1 1 
1 1 1 1 1 1 1 1 1 
1 1 1 1 1 1 1 1 1 
1 1 1 1 1 1 1 1 1 
1 1 1 1 1 1 1 1 1 
1 1 1 1 1 1 1 1 1 
1 1 1 1 1 1 1 1 1 
1 1 1 1 1 1 1 1 1 
1 1 1 1 1 1 1 1 1 
1 1 1 1 1 1 1 1 1 
1 1 1 1 1 1 1 1 1 
1 1 1 1 1 1 1 1 1 
1 1 1 1 1 1 1 1 1 
1 1 1 1 1 1 1 1 1 
1 1 1 1 1 1 1 1 1 
1 1 1 1 1 1 1 1 1 
1 1 1 1 1 1 1 1 1 
1 1 1 1 1 1 1 1 1 
1 1 1 1 1 1 1 1 1 
1 1 1 1 1 1 1 1 1 
1 1 1 1 1 1 1 1 1 
1 1 1 1 1 1 1 1 1 
1 1 1 1 1 1 1 1 1 
1 1 1 1 1 1 1 1 1 
1 1 1 1 1 1 1 1 1 
1 1 1 1 1 1 1 1 1 
1 1 1 1 1 1 1 1 1 
1 1 1 1 1 1 1 1 1 
1 1 1 1 1 1 1 1 1 
1 1 1 1 1 1 1 1 1 
1 1 1 1 1 1 1 1 1 
1 1 1 1 1 1 1 1 1 
1 
NORMALS Normals float
0.0733494 -0.183991 -0.980187 -0.0886024 0.182369 -0.97923 -0.0161872 -0.447075 -0.89435 
-0.0796144 -0.21301 -0.973801 0.135089 -0.22776 -0.964301 0.00204157 -0.0491761 -0.998788 
0.214834 -0.115944 -0.969744 -0.101692 -0.518197 -0.849194 0.30484 -0.110027 -0.946027 
-0.0470001 -0.00567066 -0.998879 0.149403 0.0241445 -0.988482 0.316392 0.0535399 -0.947116 
-0.163448 -0.24863 -0.954708 -0.0982519 -0.166868 -0.981072 0.0878779 0.248321 -0.964684 
-0.155507 -0.256665 -0.953908 0.00458493 0.0928376 -0.995671 0.13745 0.142174 -0.980252 
-0.0793524 -0.199634 -0.976652 -0.0259852 0.0589772 -0.997921 -0.0337353 0.143814 -0.98903 
-0.0510217 0.0425948 -0.997789 0.0653794 0.486541 -0.871208 -0.0301515 -0.628715 -0.777051 
0.108202 -0.586907 -0.802392 0.283748 -0.386024 -0.877765 0.436365 -0.15761 -0.885858 
-0.194986 -0.677387 -0.709315 -0.0484145 -0.558641 -0.827995 -0.208532 -0.591711 -0.778712 
-0.095088 -0.390193 -0.91581 -0.117317 -0.623569 -0.772916 -0.163697 -0.624728 -0.76349 
-0.17601 -0.268391 -0.947094 -0.228567 -0.472619 -0.85111 0.38326 0.433879 -0.81539 
-0.024052 0.239798 -0.970525 0.183992 0.343918 -0.920797 -0.237588 -0.182086 -0.954147 
-0.0290229 0.135547 -0.990346 -0.249541 -0.237773 -0.938719 -0.40801 -0.322042 -0.854293 
-0.148195 0.129208 -0.980481 -0.336714 -0.00840158 -0.941569 0.103447 -0.890908 -0.442247 
0.37718 -0.688347 -0.619608 0.478111 -0.760991 -0.438523 -0.0881071 -0.752474 -0.652702 
0.354224 -0.496639 -0.792386 0.535943 -0.641571 -0.548772 0.751403 -0.0583909 -0.657255 
-0.256181 -0.695087 -0.671733 0.480051 0.0527103 -0.875656 0.396341 0.277042 -0.875307 
-0.360139 -0.608779 -0.706886 0.206737 0.510274 -0.834794 -0.305868 -0.518135 -0.798737 
0.0440158 0.325548 -0.944501 -0.0592035 -0.991444 -0.116331 -0.134741 -0.854027 -0.502477 
0.368291 -0.929593 -0.0147805 0.651931 -0.725367 -0.220973 -0.143044 -0.790879 -0.59502 
-0.202339 -0.957446 -0.205805 0.709662 -0.538226 -0.454635 -0.183025 -0.891396 -0.414627 
0.842242 -0.376816 -0.385537 0.92467 -0.364563 -0.109906 -0.315052 -0.924351 -0.215213 
0.956355 -0.20081 -0.212274 -0.229282 -0.860903 -0.454176 -0.358803 -0.764362 -0.535735 
0.907269 0.115149 -0.404479 0.515798 0.560543 -0.647877 -0.525941 -0.603138 -0.599675 
-0.521554 -0.406122 -0.750364 -0.510396 -0.145978 -0.847459 -0.0827119 0.384669 -0.919341 
-0.434204 0.186104 -0.881381 -0.231199 0.274644 -0.933337 -0.0995017 -0.990273 -0.0972576 
-0.130856 -0.890752 0.435244 0.40881 -0.898774 -0.158367 0.191067 -0.894233 0.404773 
0.518946 -0.852582 -0.0616374 -0.0602479 -0.747778 0.66121 0.205711 -0.953795 0.218991 
0.250424 -0.899491 -0.358055 0.422346 -0.881597 0.210739 -0.109051 -0.990806 -0.0800746 
-0.237282 -0.65866 0.714048 0.0684663 -0.670899 0.738382 0.094774 -0.703215 0.704632 
-0.110821 -0.988295 0.104844 -0.131184 -0.498248 0.857053 0.764136 -0.644732 0.0204068 
0.724632 -0.61219 0.316436 -0.277776 -0.915289 -0.291697 0.98087 -0.194601 -0.00495035 
0.974231 -0.121606 0.189964 0.688413 0.354993 -0.632509 0.959403 0.202236 -0.196587 
0.826253 0.414593 -0.381337 0.960398 0.259271 -0.102046 -0.390055 -0.777948 -0.4926 
0.627045 0.718787 -0.300265 -0.561966 -0.642714 -0.520684 -0.690296 -0.437099 -0.576572 
0.0900454 0.611543 -0.78607 -0.731494 -0.270391 -0.625943 -0.663679 -0.0455207 -0.746631 
0.0339811 0.522591 -0.851906 -0.161672 -0.402658 -0.90096 -0.317921 -0.835551 0.448085 
-0.995539 0.00501182 -0.0942194 0.265249 0.431973 -0.861999 0.36558 -0.810239 -0.45811 
0.996432 0.0305437 0.0786784 -0.170127 -0.819214 0.547672 -0.0753007 -0.866052 0.494251 
0.0623931 -0.871134 0.487066 -0.0111869 -0.756794 0.653557 0.155513 -0.983727 0.0899851 
-0.218258 0.841261 -0.494615 0.145912 0.837055 0.527303 0.104666 -0.780821 0.615925 
-0.141059 -0.537216 0.831566 0.0368355 -0.716703 0.696405 0.285067 -0.830072 0.479288 
-0.123997 -0.934694 0.333124 -0.0806418 -0.928148 0.363371 -0.0343878 -0.563089 0.825681 
0.2087 -0.740685 0.638616 -0.075912 -0.997063 -0.0101121 0.52444 -0.738427 0.423897 
0.809727 -0.463507 0.359867 -0.35571 -0.775209 -0.522035 -0.327231 -0.874859 -0.357129 
0.933989 0.352951 0.0555926 -0.466151 -0.868679 -0.16763 0.715451 0.611294 -0.338304 
0.84434 0.535004 0.0293495 0.555007 0.73253 -0.394166 0.700813 0.608882 -0.37165 
0.641829 0.67201 -0.369404 0.569975 0.710025 -0.413513 0.349562 0.755991 -0.553429 
0.694807 0.697948 -0.17353 0.501707 0.774986 -0.3843 -0.815939 -0.194935 -0.544284 
-0.599602 0.224774 -0.768085 -0.307414 0.380381 0.872242 0.189217 -0.432036 0.881783 
0 -0.116042 -0.993244 0 -0.99336 -0.11505 -0.897652 -0.431672 -0.0887646 
0.897652 -0.431672 -0.0887646 0.0246311 -0.979822 -0.198349 -0.199811 -0.958798 0.201944 
-0.112575 -0.990644 0.0771464 0 0.447214 -0.894427 0.0560537 -0.916279 0.3966 
-0.259896 -0.965303 0.0253554 0.167396 -0.926656 0.336581 0.0658454 -0.799591 0.596924 
0.100841 -0.639582 0.76208 0.206924 -0.603169 0.770305 0.781929 -0.359058 0.509573 
0.783217 -0.228395 0.578279 0.00973487 -0.573632 0.819055 0.954737 0.0387716 0.294912 
-0.381983 -0.919645 0.0913394 0.857616 -0.0423201 0.512546 -0.343037 -0.917116 -0.203037 
-0.529519 -0.801968 -0.276508 -0.448877 -0.880138 -0.154488 0.697643 0.705314 -0.125803 
0.784467 0.619198 0.0347218 -0.806792 -0.539359 -0.241201 0.565554 0.806009 -0.174638 
0.592015 0.798625 -0.108244 0.321791 0.795535 -0.513395 -0.852211 -0.42366 -0.306999 
-0.834232 -0.0670285 -0.547325 -0.204769 0.473726 -0.856536 -0.687878 0.18184 -0.70268 
-0.501218 0.41207 -0.760907 -0.366115 0.407123 -0.836786 0 -0.271731 0.962373 
0 -0.116042 -0.993244 0 -0.99336 -0.11505 -0.897652 -0.431672 -0.0887646 
0.897652 -0.431672 -0.0887646 -0.241781 -0.969964 0.0266727 0 0.447214 -0.894427 
0.104411 -0.567477 0.816742 -0.288327 -0.955638 -0.0601966 -0.349895 -0.673192 0.651449 
0.558097 -0.507404 0.656559 -0.30266 -0.953001 -0.0136584 -0.150184 -0.856584 0.493668 
0.573346 -0.314637 0.756491 0.0426575 -0.518705 0.853888 0.307006 -0.403561 0.861908 
0.893724 0.220629 0.390616 0.718907 0.0185344 0.694859 0.714229 -0.198439 0.671192 
-0.549617 -0.809594 -0.206102 0.865045 0.475682 0.159452 0.816145 0.205912 0.539914 
-0.673449 -0.737403 -0.0520028 0.519259 0.846417 -0.118104 0.681025 0.731571 0.0317806 
0.482147 0.808942 -0.336373 -0.881837 -0.0719337 -0.466036 -0.867306 -0.103256 -0.486948 
-0.279728 0.526111 -0.803094 -0.1099 0.507685 -0.854504 -0.389603 0.477118 -0.787761 
0 -0.116042 -0.993244 0 -0.99336 -0.11505 -0.897652 -0.431672 -0.0887646 
0.897652 -0.431672 -0.0887646 0 -0.271731 0.962373 0 -0.116042 -0.993244 
0 -0.99336 -0.11505 -0.897652 -0.431672 -0.0887646 0.897652 -0.431672 -0.0887646 
0 0.447214 -0.894427 -0.0312537 -0.727537 0.685356 -0.543708 -0.835439 -0.0801451 
-0.150347 -0.974849 0.164519 -0.378663 -0.83832 0.392216 -0.01082 -0.869869 0.493164 
0 0.447214 -0.894427 -0.328129 -0.919989 -0.214365 -0.594044 -0.751256 0.28762 
-0.450813 -0.498473 0.740467 -0.0740187 -0.550363 0.831638 -0.420243 -0.906138 0.0480527 
-0.504149 -0.659957 0.557037 -0.146843 -0.855557 0.496447 0.590086 -0.21655 0.777756 
0.0129125 -0.517459 0.85561 0.0974914 -0.414461 0.90483 -0.391756 -0.912448 0.118181 
0.52013 -0.161209 0.838735 0.535809 -0.262704 0.802431 0.220246 -0.376617 0.899806 
0.757785 0.325311 0.565628 -0.506024 -0.798021 0.327265 0.729915 0.682073 0.0447236 
-0.656109 -0.735719 0.168042 -0.773241 -0.633365 0.0307948 0.602887 0.776247 -0.184304 
-0.798242 -0.589681 -0.122825 -0.904455 -0.304598 -0.298632 0.508281 0.82986 -0.230178 
0 -0.271731 0.962373 0 -0.116042 -0.993244 0 -0.99336 -0.11505 
-0.897652 -0.431672 -0.0887646 0.897652 -0.431672 -0.0887646 0 -0.271731 0.962373 
0 -0.116042 -0.993244 0 -0.99336 -0.11505 -0.897652 -0.431672 -0.0887646 
0 0.447214 -0.894427 -0.0367115 -0.49892 0.86587 0.897652 -0.431672 -0.0887646 
-0.45265 -0.790858 -0.411887 -0.0251754 -0.936988 0.348452 -0.411329 -0.901781 0.132664 
0 0.447214 -0.894427 -0.350053 -0.837071 0.420445 -0.740597 -0.55815 0.374144 
0.140462 -0.690679 0.709389 -0.13784 -0.513987 0.846651 -0.330458 -0.226848 0.916153 
-0.0758235 -0.537631 0.839764 0.690618 0.102937 0.715856 -0.2892 -0.73968 0.607648 
0.376665 -0.239409 0.894878 0.0120929 -0.460826 0.887408 0.444209 -0.238087 0.863709 
0.117491 -0.460881 0.87965 0.678661 0.707962 0.195471 -0.77672 -0.624843 0.0792359 
0.639388 0.768797 0.0115539 0.510266 0.837397 -0.195948 -0.879747 -0.450112 -0.153114 
-0.886359 -0.274265 -0.373024 0.106526 0.754008 -0.648169 0.28146 0.810416 -0.513815 
0.22418 0.662302 -0.714912 -0.609615 0.264993 -0.747093 -0.530555 0.373798 -0.76078 
-0.294341 0.478911 -0.827047 0 -0.271731 0.962373 0 -0.271731 0.962373 
0 -0.0274327 -0.999624 0 -0.99068 -0.136212 -0.987129 -0.138962 -0.0791535 
0.987129 -0.138962 -0.0791535 -0.197823 -0.376728 0.904954 -0.151623 -0.426985 0.891456 
0 0.447214 -0.894427 0.636339 0.108972 0.763674 0.402089 -0.00568327 0.915583 
-0.142409 -0.170906 0.974942 0.584141 -0.187971 0.789586 0.668441 0.425709 0.609884 
0.784479 0.564016 0.257836 0.672994 0.249451 0.696314 0.48258 0.440005 0.757306 
0.251038 0.633908 0.731533 -0.662385 -0.675902 0.323113 0.0436674 -0.4423 0.895803 
0.6811 0.700482 0.213137 -0.746457 -0.595772 -0.29641 0.60194 0.798537 0.00277335 
0.66511 0.739192 0.105945 0.387989 0.895634 -0.217494 -0.867994 -0.108883 -0.48449 
0.202848 0.824983 -0.5275 0.31837 0.746779 -0.583919 -0.838113 0.0417678 -0.543895 
0.206226 0.731798 -0.649571 -0.615378 0.393029 -0.683256 -0.0417886 0.609035 -0.792042 
0 -0.180982 0.983486 0.863446 0.0127334 0.50428 0.0732591 -0.578027 0.812722 
0.572567 0.698296 0.429593 0.292304 -0.395823 0.870565 0.0119734 0.148021 0.988912 
-0.489063 -0.691545 0.531585 0.135105 -0.987708 0.0786147 -0.54956 -0.790797 0.269487 
-0.632679 -0.465857 -0.618623 -0.179925 -0.518522 0.83592 -0.29 -0.62583 0.724042 
0.660039 0.564065 0.496165 -0.266594 -0.898397 -0.349014 -0.956838 -0.154927 -0.245885 
-0.0809067 -0.829241 0.553004 -0.518379 -0.821775 0.236579 -0.00904942 -0.494601 0.869073 
-0.961602 -0.22236 -0.160864 -0.915734 -0.400956 -0.0257903 0.620533 0.70008 0.353309 
-0.828237 -0.560352 -0.00534384 -0.859535 -0.505955 -0.0721721 0.459942 0.881573 -0.106217 
0.338126 0.867453 -0.364961 0.358436 0.894336 -0.267745 0.388007 0.917662 0.0857091 
0.466334 0.857661 0.216682 0.170362 0.806935 -0.565537 0.406271 0.912003 -0.0565203 
0.393985 0.86043 -0.323166 -0.832283 0.127461 -0.539498 -0.75291 0.312285 -0.579313 
0.379262 0.848442 -0.369196 -0.604752 0.500292 -0.619664 -0.332199 0.590219 -0.735721 
0.419845 -0.00728184 0.907567 0.696248 0.213106 0.685437 0.580423 0.514113 0.631504 
0.396923 0.126178 0.909138 0.594116 0.285914 0.751851 -0.970805 0.0586119 0.232599 
0.520973 -0.252739 0.815298 -0.650677 -0.248954 0.717385 0.597928 0.330381 0.730294 
-0.869724 -0.319945 0.375786 -0.452311 -0.61395 0.646901 0.5107 0.488688 0.707368 
-0.730737 -0.560411 0.389824 0.518053 0.522741 0.677025 -0.773654 -0.594735 0.218517 
-0.394578 -0.721814 0.568588 0.490372 0.710923 0.504107 0.401551 0.875462 0.268929 
0.441448 0.814292 0.376898 0.427866 0.874566 -0.228176 0.41198 0.902169 0.127922 
0.404504 0.899326 -0.1661 0.438631 0.854199 -0.279191 0.192077 0.94623 -0.260299 
0.41152 0.908719 0.069868 -0.65791 0.477526 -0.582343 0.502541 0.859227 -0.0958202 
0.515489 -0.0103438 0.856834 0.933278 0.359103 -0.00611847 0.272784 -0.273641 0.922339 
0.841904 0.414281 0.345787 -0.129755 -0.533092 0.836048 0.70837 0.299366 0.639212 
0.127907 -0.0524279 0.990399 0.378337 0.424058 0.822822 -0.0859927 -0.660827 0.745596 
0.0119087 -0.306651 0.951747 -0.116715 -0.615888 0.77914 0.442123 0.67989 0.585044 
0.427588 0.489926 0.759698 0.467682 0.745063 0.475558 -0.00447513 -0.343847 0.939015 
0.396505 0.595943 0.698309 -0.904617 -0.395 -0.160138 0.431197 0.894046 0.121452 
0.481646 0.784057 0.3915 0.395541 0.909843 -0.125432 0.490626 0.861104 0.133361 
0.430682 0.878342 0.207435 0.440533 0.895705 0.0603555 0.119423 0.669946 -0.732741 
0.2109 0.700178 -0.682109 0.441062 0.862401 -0.248453 0.254437 0.784167 -0.565989 
0.234344 0.162313 0.958508 0 -0.116042 -0.993244 0 -0.99336 -0.11505 
-0.897652 -0.431672 -0.0887646 0.897652 -0.431672 -0.0887646 0.513587 0.433821 0.740289 
-0.0389401 0.401421 -0.915066 -0.204244 0.0559294 -0.977321 -0.0833319 0.307313 -0.947953 
0.337043 0.889037 -0.309862 -0.324461 -0.24233 -0.914331 0.302107 0.950738 -0.0694881 
0.267346 0.186413 0.945397 0.132259 -0.15857 0.978449 0 0.447214 -0.894427 
-0.216246 0.0859535 -0.972548 -0.255397 0.0137122 -0.966739 -0.266086 0.106525 -0.958045 
-0.223635 0.00597143 -0.974655 -0.228526 -0.0210447 -0.97331 -0.125489 0.23139 -0.964734 
-0.242536 0 -0.970143 0.173519 -0.128702 0.976385 0.242536 0 0.970143 
0.124384 -0.186396 0.974569 -0.184891 0.231081 -0.955205 -0.186917 0.121839 -0.974791 
0.174591 -0.112602 0.978181 0.109492 -0.301029 0.947308 0.1801 0.0212938 0.983418 
0.355937 0.238965 0.90344 -0.578239 -0.754829 0.309633 -0.14508 -0.730295 0.667548 
-0.307525 -0.819476 0.48362 0.371205 0.505681 0.778777 0.0742465 -0.312036 0.947165 
0.396122 0.301028 0.86745 0.471081 0.623673 0.623791 0.356616 0.36773 0.858836 
0.499466 0.852154 0.156105 0.464015 0.730463 0.501113 0.354881 0.929043 -0.10459 
-0.354652 0.608957 -0.709503 0 -0.271731 0.962373 -0.242252 -0.048337 -0.969008 
-0.414581 -0.617527 -0.668418 -0.103864 -0.709381 0.69713 0.208622 -0.0652238 0.975819 
0.200737 -0.0812073 0.976274 0.204109 -0.0305998 0.97847 0.321176 0.317075 0.892362 
0.20169 -0.0356349 0.978801 0.0995245 -0.0398824 0.994236 0.256685 -0.0478077 0.965312 
0.215862 0.0557239 0.974833 0.0721173 -0.128402 0.989097 -0.810718 -0.577543 0.0958125 
0.248528 -0.166617 0.954187 0.310603 0.113964 0.943683 -0.931239 -0.346721 -0.112156 
0.442467 0.604118 0.662771 0.330134 0.347771 0.877535 0.576678 0.759604 0.300739 
-0.682057 0.387933 -0.619925 -0.474211 0.530662 -0.702511 0.00710134 0.652386 -0.757853 
0.0625828 -0.351368 0.934144 -0.208057 -0.817174 0.53753 -0.189259 -0.783049 0.592466 
0.276674 0.00225237 0.960961 0.187658 -0.120082 0.974867 -0.90858 -0.416005 -0.0377111 
0.298545 0.258817 0.918632 0.339408 0.239275 0.909698 -0.915552 -0.398734 0.0526789 
0.359044 0.402294 0.842168 -0.970077 -0.0742476 -0.231168 0.481203 0.348055 0.804551 
0.631511 0.711266 0.308699 0.390479 0.782835 -0.484454 0.227369 0.803231 -0.550566 
-0.138996 0.708643 -0.69174 0.30001 0.76861 -0.565007 -0.711395 -0.658264 0.246183 
0.626106 0.66481 0.407455 0.409477 0.860269 -0.303753 0 -0.116042 -0.993244 
0 -0.99336 -0.11505 -0.897652 -0.431672 -0.0887646 0.897652 -0.431672 -0.0887646 
-0.859847 -0.460734 0.219969 0 0.447214 -0.894427 0.585255 0.233053 0.776636 
0.634828 0.407045 0.65674 0.698424 0.70226 0.137968 0.191108 0.841183 -0.505854 
0.28116 0.828632 -0.484064 0 -0.271731 0.962373 -0.147697 -0.780612 0.607314 
0.450367 -0.0797207 0.889278 0.705216 0.329723 0.627657 -0.651695 0.489597 -0.5793 
0.667624 0.734843 0.119521 0.488809 0.848021 -0.204761 -0.187593 0.755126 -0.628167 
0 -0.0274327 -0.999624 0 -0.99068 -0.136212 -0.987129 -0.138962 -0.0791535 
0.987129 -0.138962 -0.0791535 -0.216956 -0.672911 0.707192 0 0.447214 -0.894427 
0.276297 -0.204638 0.939033 0.245636 -0.411419 0.877723 0.681137 0.163819 0.713594 
0.848466 0.439068 0.295509 0.714997 0.404537 0.570202 0.721154 0.686895 0.0900614 
0 -0.180982 0.983486 0.0358107 -0.646979 0.761666 -0.887818 -0.441703 0.129143 
0.380755 -0.260799 0.887136 0.491892 -0.0940042 0.865567 0.730444 0.181816 0.658328 
0.819334 0.309722 0.482456 0.767229 0.628402 0.128336 -0.461643 0.668838 -0.582702 
0.587135 0.802544 -0.105811 0.158764 -0.562482 0.811423 0.257935 -0.560827 0.786729 
-0.626902 -0.60536 0.490442 -0.563832 -0.651448 0.507651 0.497375 -0.272841 0.823514 
0.519557 -0.0640416 0.852032 0.561814 0.0438236 0.826102 -0.56103 0.677203 -0.476068 
0.625497 0.776934 -0.0716062 0.216506 0.90136 -0.375068 0.727997 0.10275 0.677837 
0.810122 0.421148 0.407843 0.798587 0.486619 0.354204 -0.628544 0.617971 -0.472276 
-0.220302 0.850404 -0.477786 0.47101 0.882052 -0.0115287 0.515851 0.856502 -0.0173798 
0.793559 0.154927 0.58844 0.669714 0.705074 0.23314 0.819034 0.505692 0.271033 
-0.62877 0.638957 -0.44315 0.485605 0.873038 0.0446364 -0.30011 0.862811 -0.406806 
0.425034 0.899486 -0.101343 0.213287 0.961181 -0.175041 -0.883625 -0.452944 0.118524 
-0.989799 -0.0640183 -0.127277 0.730755 0.0619803 0.67982 -0.921239 0.283212 -0.266665 
0.791642 0.313598 0.524366 0.725675 0.488016 0.485011 -0.520863 0.792424 -0.317437 
-0.217733 0.957419 -0.189582 0.104272 0.974988 -0.196281 -0.689618 -0.589678 0.420365 
-0.831337 -0.517623 0.20235 -0.975792 -0.218621 -0.00591071 -0.985818 -0.153991 0.0667015 