# vtk DataFile Version 4.2
vtk output
ASCII
DATASET POLYDATA
POINTS 1367 float
439.652 116.006 174.669 439.652 116.006 174.669 439.652 116.006 174.669 
439.653 116.006 174.669 439.652 116.006 174.669 443 113.009 175.017 
443 113.009 175.017 443 113.009 175.017 443 113.009 175.017 
442 114.009 175.017 442 114.009 175.017 442 114.009 175.017 
443 113.009 175.017 442 114.009 175.017 441 115.009 175.017 
441 115.009 175.017 441 115.009 175.017 442 114.009 175.017 
441 115.009 175.017 439.652 116.006 174.67 439.652 116.006 174.67 
439.652 116.006 174.67 439.652 116.006 174.669 439.652 116.006 174.669 
441 115.009 175.017 439.652 116.006 174.67 439.652 116.006 174.67 
426.135 112.291 177.326 426.049 112.215 177.377 425.959 112.342 177.382 
426.166 112.144 177.413 426.192 112.558 177.243 441.763 112.575 179.05 
441.716 112.578 179.071 441.731 112.605 179.068 441.747 112.564 179.096 
440.176 113.804 178.416 441.762 112.591 179.094 443 113.009 175.017 
438.129 114.381 177.845 442 114.009 175.017 425.17 115.498 176.982 
429.878 114.824 176.599 441 115.009 175.017 437.855 115.919 178.056 
439.652 116.006 174.67 438.228 116.289 178.476 439.652 116.006 174.67 
423.951 116.591 177.379 425.059 117.164 176.896 436.589 116.925 177.635 
424.397 119.474 177.333 436.006 119.915 177.727 436.927 120.107 178.564 
425.495 120.149 177.161 436.341 120.657 178.077 426.783 110.989 178.228 
426.329 111.864 177.66 425.579 112.269 177.682 429.169 111.446 177.826 
442.542 111.933 179.966 442.5 111.934 179.974 442.511 111.959 179.966 
442.515 111.935 180.018 433.093 112.266 177.782 441.613 112.547 179.206 
441.612 112.65 179.088 441.768 112.576 179.211 442.525 111.96 180.01 
433.507 112.656 177.638 440.438 113.136 178.654 441.686 112.679 179.19 
423.749 114.137 177.886 433.345 114.279 177.114 436.918 113.787 177.698 
440.244 114.609 178.842 435.261 116.292 177.166 422.635 117.339 178.284 
438.056 117.451 179.735 437.514 118.641 179.518 435.127 119.279 177.344 
437.254 119.561 179.06 428.485 121.821 177.313 432.969 121.352 177.371 
425.882 122.141 177.798 436.138 122.976 178.951 425.805 109.971 179.251 
431.888 110.706 178.642 434.594 111.046 178.82 437.04 111.302 179.03 
442.378 111.932 180.08 442.415 111.981 179.969 442.491 111.984 180.183 
436.399 112.158 178.289 441.204 112.883 179.049 441.126 112.412 179.22 
441.627 112.244 179.544 441.921 112.547 179.609 442.434 112.054 180.039 
422.935 113.59 178.603 439.127 116.321 179.877 438.342 117.164 180.16 
421.803 118.502 179.26 437.554 118.297 180.359 421.853 121.104 179.881 
429.884 123.865 178.15 425.185 123.842 178.926 436.035 123.989 179.623 
427.067 109.185 179.717 436.693 110.332 180.063 423.702 111.651 178.96 
442.123 112.089 179.906 442.024 111.8 180.313 442.509 111.999 180.537 
442.288 112.287 180.022 442.497 112.202 180.388 422.494 112.72 179.363 
441.68 113.225 179.594 440.981 114.223 179.373 437.313 118.203 181.346 
437.582 117.811 181.424 438.047 117.434 181.106 437.414 120.982 179.985 
437.017 122.877 179.988 423.15 124.233 180.421 434.816 124.445 179.14 
426.331 125.066 179.342 429.415 125.643 179.3 425.706 125.948 180.326 
423.607 110.414 179.901 442.047 111.596 180.911 442.636 112.136 181.002 
440.23 115.586 180.549 436.987 118.482 181.795 434.669 125.886 180.169 
436.561 124.537 180.731 433.122 108.244 181.815 441.868 111.339 181.399 
442.806 112.148 181.581 442.843 111.994 181.947 442.474 113.149 181.014 
436.7 118.035 183.039 437.039 117.813 182.879 436.881 119.531 181.931 
437.019 124.703 182.029 433.161 126.913 180.566 436.116 126.406 181.882 
428.249 128.459 182.1 440.781 110.666 181.686 442.266 111.389 182.059 
420.533 113.634 181.515 440.99 115.556 182.487 425.769 127.359 181.824 
432.742 128.571 182.142 435.457 127.68 182.554 442.871 111.727 182.809 
443.008 111.817 182.977 419.716 112.733 183.038 443.118 113.013 183.017 
443.236 112.785 183.538 441.955 114.839 182.918 439.537 116.615 183.868 
440.044 116.338 183.515 440.582 116.006 183.247 436.112 117.936 184.467 
436.562 117.766 184.17 436.074 118.866 183.592 419.399 120.434 183.293 
437.389 123.617 183.143 437.325 125.15 183.703 427.272 104.426 185.184 
421.094 108.166 184.06 436.848 117.564 184.622 435.408 118.402 185 
437.255 122.495 183.649 437.221 127.249 184.922 429.165 104.32 185.958 
419.245 109.433 185.509 442.252 115.303 185.005 443.102 114.401 185.244 
434.54 118.162 186.412 436.042 128.869 184.452 434.118 130.251 184.34 
423.292 103.878 186.571 443.385 113.963 185.42 443.665 113.418 186.219 
433.78 117.597 188.14 435.87 117.491 187.149 438.249 117.199 186.519 
434.417 118.73 186.53 435.247 130.35 185.077 425.539 102.07 187.983 
441.645 110.395 186.147 443.308 112.053 187.232 417.062 113.246 187.599 
443.745 113.591 187.013 443.199 115.147 187.116 433.08 117.688 188.509 
435.539 117.461 187.93 433.119 117.909 188.277 433.389 118.102 187.906 
418.552 123.405 186.837 437.919 125.488 187.473 438.176 127.411 187.445 
424.312 130.73 187.346 434.545 134.051 187.576 442.579 111.157 187.136 
443.716 112.934 187.769 443.799 113.262 188.148 443.602 114.915 188.069 
431.725 117.326 190.071 431.616 117.571 190.14 434.44 117.383 188.979 
442.878 115.878 188.255 432.962 118.466 188.649 417.164 119.684 187.601 
437.552 131.86 188.085 435.834 133.556 187.709 436.866 133.409 188.218 
418.953 104.949 189.521 442.968 111.766 189.13 443.908 113.981 189.286 
431.254 117.127 190.651 430.78 117.048 191.214 431.08 116.959 190.985 
443.715 114.982 188.859 443.285 115.765 189.087 440.614 117.375 189.612 
437.233 123.672 188.329 438.906 129.649 189.415 438.36 130.884 188.702 
435.723 137.119 189.653 423.396 100.678 190.342 433.139 104.142 190.267 
430.681 116.769 191.579 430.272 116.673 192.022 443.95 114.039 190.007 
430.09 116.699 192.21 430.381 116.993 191.723 434.464 117.357 190.136 
442.882 116.555 189.996 430.891 117.555 191.241 437.191 123.716 189.117 
437.8 124.83 189.859 419.457 127.465 189.512 439.491 130.342 190.65 
438.998 132.549 190.037 438.744 135.427 190.563 435.35 138.894 190.6 
426.173 99.3663 191.739 428.51 100.696 191.007 429.833 116.631 192.692 
429.908 116.464 192.89 443.355 116.446 190.797 439.206 118.052 191.29 
431.714 118.995 191.896 416.547 122.812 191.282 438.03 125.282 191.108 
442.557 111.691 191.731 443.868 114.007 191.763 429.617 116.492 193.182 
429.792 116.354 193.42 430.795 116.529 192.971 429.349 116.621 193.633 
443.924 115.715 191.884 433.054 117.139 192.082 443.502 116.481 191.358 
443.153 117.169 191.904 441.284 118.346 192.626 442.701 117.757 192.456 
439.042 127.12 191.742 440.102 129.791 192.498 440.652 134.355 192.611 
440.448 136.894 192.752 439.713 138.038 192.302 438.917 139.323 192.16 
420.417 99.4816 193.882 422.996 98.7112 193.287 443.433 113.11 192.197 
429.234 116.306 194.38 443.799 114.186 193.079 429.248 116.684 193.962 
444.055 115.352 192.666 435.918 118.13 192.972 437.122 118.568 193.465 
441.024 132.258 193.672 439.429 142.919 194.286 426.24 98.0332 194.376 
421.707 98.2589 194.475 430.238 100.134 194.077 418.625 101.418 193.776 
429.132 116.388 194.535 429.053 116.541 194.779 429.97 116.343 194.124 
443.75 117.173 193.855 443.191 118.127 194.005 415.102 119.271 194.05 
431.661 119.78 194.178 439.749 128.155 194.241 441.629 134.388 194.6 
434.592 144.446 195.11 437.547 106.682 194.37 414.846 110.452 194.918 
441.491 111.086 194.939 429.032 116.415 195.116 429.064 117.022 195.378 
429.44 117.619 195.085 442.237 119.544 195.802 440.665 129.851 195.25 
439.992 143.922 195.301 416.571 102.561 196.456 439.007 108.171 195.525 
429.048 116.388 196.023 443.146 113.778 195.641 443.907 115.629 195.698 
444.03 116.576 195.774 433.965 118.328 196.03 443.403 118.395 195.052 
442.577 119.344 195.649 443.075 118.993 195.631 441.562 120.109 196.632 
441.905 133.235 195.973 442.365 141.487 196.467 434.828 145.806 196.543 
438.018 146.543 197.016 423.406 95.8493 197.613 425.111 96.0112 197.644 
421.573 96.4146 197.375 428.926 116.513 196.401 428.874 116.662 196.782 
430.06 116.651 196.573 443.105 114.197 196.868 444.01 117.458 196.623 
437.393 120.129 197.21 443.269 119.006 196.198 443.55 118.621 196.254 
442.241 133.256 197.434 422.582 135.081 197.464 441.761 145.199 197.951 
441.047 145.945 197.913 419.913 96.8961 198.194 429.024 116.547 197.212 
414.072 115.299 197.822 428.905 117.024 197.73 443.819 117.056 198.23 
443.845 118.205 197.018 443.549 119.034 197.773 440.756 121.507 199.342 
440.794 129.935 197.868 443.941 139.609 198.89 439.111 147.677 198.865 
414.338 106.252 199.835 441.179 111.444 198.811 429.051 116.642 197.663 
429.167 116.713 197.94 428.949 117.155 198.373 443.542 116.498 199.351 
443.698 118.851 198.632 442.517 120.653 198.632 438.16 121.404 199.668 
442.699 120.779 199.216 441.258 121.717 199.998 436.582 124.858 198.454 
434.336 147.148 199.151 441.481 146.812 199.241 435.931 148.155 200.077 
440.292 147.785 199.697 423.121 94.6463 199.742 423.539 94.2191 200.525 
443.713 117.835 200.14 443.784 118.435 199.06 439.852 122.187 200.936 
442.12 121.768 200.692 440.334 129.254 199.497 442.562 133.155 199.618 
444.183 144.006 200.748 422.338 94.0026 201.162 424.44 94.0407 201.112 
421.122 94.7105 200.621 426.258 94.3576 201.898 428.001 95.8558 200.85 
413.585 109.642 201.347 429.195 117.878 200.216 430.391 119.869 201.119 
443.46 120.163 200.841 442.358 121.805 201.069 442.853 121.369 201.113 
441.972 122.28 201.94 442.859 146.549 200.896 434.957 148.432 201.622 
440.403 148.238 200.819 433.606 100.897 201.643 429.187 117.536 200.378 
429.259 117.555 200.608 443.069 121.383 201.96 415.666 126.146 201.288 
432.598 147.201 201.786 424.116 92.6488 203.763 417.9 96.1606 202.538 
415.065 101.091 202.916 442.403 114.934 203.077 429.492 118.077 202.056 
429.403 118.321 202.215 429.774 118.065 202.106 429.453 118.633 202.811 
429.55 118.853 202.42 413.65 119.617 203.432 435.494 149.083 203.217 
[...]
POINT_DATA 1367
SCALARS scalars float
LOOKUP_TABLE default
1 1 1 1 1 1 1 1 1 
1 1 1 1 1 1 1 1 1 
1 1 1 1 1 1 1 1 1 
1 1 1 1 1 1 1 1 1 
1 1 1 1 1 1 1 1 1 
1 1 1 1 1 1 1 1 1 
1 1 1 1 1 1 1 1 1 
1 1 1 1 1 1 1 1 1 
1 1 1 1 1 1 1 1 1 
1 1 1 1 1 1 1 1 1 
1 1 1 1 1 1 1 1 1 
1 1 1 1 1 1 1 1 1 
1 1 1 1 1 1 1 1 1 
1 1 1 1 1 1 1 1 1 
1 1 1 1 1 1 1 1 1 
1 1 1 1 1 1 1 1 1 
1 1 1 1 1 1 1 1 1 
1 1 1 1 1 1 1 1 1 
1 1 1 1 1 1 1 1 1 
1 1 1 1 1 1 1 1 1 
1 1 1 1 1 1 1 1 1 
1 1 1 1 1 1 1 1 1 
1 1 1 1 1 1 1 1 1 
1 1 1 1 1 1 1 1 1 
1 1 1 1 1 1 1 1 1 
1 1 1 1 1 1 1 1 1 
1 1 1 1 1 1 1 1 1 
1 1 1 1 1 1 1 1 1 
1 1 1 1 1 1 1 1 1 
1 1 1 1 1 1 1 1 1 
1 1 1 1 1 1 1 1 1 
1 1 1 1 1 1 1 1 1 
1 1 1 1 1 1 1 1 1 
1 1 1 1 1 1 1 1 1 
1 1 1 1 1 1 1 1 1 
1 1 1 1 1 1 1 1 1 
1 1 1 1 1 1 1 1 1 
1 1 1 1 1 1 1 1 1 
1 1 1 1 1 1 1 1 1 
1 1 1 1 1 1 1 1 1 
1 1 1 1 1 1 1 1 1 
1 1 1 1 1 1 1 1 1 
1 1 1 1 1 1 1 1 1 
1 1 1 1 1 1 1 1 1 
1 1 1 1 1 1 1 1 1 
1 1 1 1 1 1 1 1 1 
1 1 1 1 1 1 1 1 1 
1 1 1 1 1 1 1 1 1 
1 1 1 1 1 1 1 1 1 
1 1 1 1 1 1 1 1 1 
1 1 1 1 1 1 1 1 1 
1 1 1 1 1 1 1 1 1 
1 1 1 1 1 1 1 1 1 
1 1 1 1 1 1 1 1 1 
1 1 1 1 1 1 1 1 1 
1 1 1 1 1 1 1 1 1 
1 1 1 1 1 1 1 1 1 
1 1 1 1 1 1 1 1 1 
1 1 1 1 1 1 1 1 1 
1 1 1 1 1 1 1 1 1 
1 1 1 1 1 1 1 1 1 
1 1 1 1 1 1 1 1 1 
1 1 1 1 1 1 1 1 1 
1 1 1 1 1 1 1 1 1 
1 1 1 1 1 1 1 1 1 
1 1 1 1 1 1 1 1 1 
1 1 1 1 1 1 1 1 1 
1 1 1 1 1 1 1 1 1 
1 1 1 1 1 1 1 1 1 
1 1 1 1 1 1 1 1 1 
1 1 1 1 1 1 1 1 1 
1 1 1 1 1 1 1 1 1 
1 1 1 1 1 1 1 1 1 
1 1 1 1 1 1 1 1 1 
1 1 1 1 1 1 1 1 1 
1 1 1 1 1 1 1 1 1 
1 1 1 1 1 1 1 1 1 
1 1 1 1 1 1 1 1 1 
1 1 1 1 1 1 1 1 1 
1 1 1 1 1 1 1 1 1 
1 1 1 1 1 1 1 1 1 
1 1 1 1 1 1 1 1 1 
1 1 1 1 1 1 1 1 1 
1 1 1 1 1 1 1 1 1 
1 1 1 1 1 1 1 1 1 
1 1 1 1 1 1 1 1 1 
1 1 1 1 1 1 1 1 1 
1 1 1 1 1 1 1 1 1 
1 1 1 1 1 1 1 1 1 
1 1 1 1 1 1 1 1 1 
1 1 1 1 1 1 1 1 1 
1 1 1 1 1 1 1 1 1 
1 1 1 1 1 1 1 1 1 
1 1 1 1 1 1 1 1 1 
1 1 1 1 1 1 1 1 1 
1 1 1 1 1 1 1 1 1 
1 1 1 1 1 1 1 1 1 
1 1 1 1 1 1 1 1 1 
1 1 1 1 1 1 1 1 1 
1 1 1 1 1 1 1 1 1 
1 1 1 1 1 1 1 1 1 
1 1 1 1 1 1 1 1 1 
1 1 1 1 1 1 1 1 1 
1 1 1 1 1 1 1 1 1 
1 1 1 1 1 1 1 1 1 
1 1 1 1 1 1 1 1 1 
1 1 1 1 1 1 1 1 1 
1 1 1 1 1 1 1 1 1 
1 1 1 1 1 1 1 1 1 
1 1 1 1 1 1 1 1 1 
1 1 1 1 1 1 1 1 1 
1 1 1 1 1 1 1 1 1 
1 1 1 1 1 1 1 1 1 
1 1 1 1 1 1 1 1 1 
1 1 1 1 1 1 1 1 1 
1 1 1 1 1 1 1 1 1 
1 1 1 1 1 1 1 1 1 
1 1 1 1 1 1 1 1 1 
1 1 1 1 1 1 1 1 1 
1 1 1 1 1 1 1 1 1 
1 1 1 1 1 1 1 1 1 
1 1 1 1 1 1 1 1 1 
1 1 1 1 1 1 1 1 1 
1 1 1 1 1 1 1 1 1 
1 1 1 1 1 1 1 1 1 
1 1 1 1 1 1 1 1 1 
1 1 1 1 1 1 1 1 1 
1 1 1 1 1 1 1 1 1 
1 1 1 1 1 1 1 1 1 
1 1 1 1 1 1 1 1 1 
1 1 1 1 1 1 1 1 1 
1 1 1 1 1 1 1 1 1 
1 1 1 1 1 1 1 1 1 
1 1 1 1 1 1 1 1 1 
1 1 1 1 1 1 1 1 1 
1 1 1 1 1 1 1 1 1 
1 1 1 1 1 1 1 1 1 
1 1 1 1 1 1 1 1 1 
1 1 1 1 1 1 1 1 1 
1 1 1 1 1 1 1 1 1 
1 1 1 1 1 1 1 1 1 
1 1 1 1 1 1 1 1 1 
1 1 1 1 1 1 1 1 1 
1 1 1 1 1 1 1 1 1 
1 1 1 1 1 1 1 1 1 
1 1 1 1 1 1 1 1 1 
1 1 1 1 1 1 1 1 1 
1 1 1 1 1 1 1 1 1 
1 1 1 1 1 1 1 1 1 
1 1 1 1 1 1 1 1 1 
1 1 1 1 1 1 1 1 1 
1 1 1 1 1 1 1 1 
NORMALS Normals float
-0.182314 0.0236869 -0.982955 -0.280329 -0.81464 -0.507718 -0.473345 0.126491 -0.871748 
0.983322 -0.153125 0.0981348 0.260699 0.963461 -0.061474 0 -0.970142 -0.242536 
0 -1 0 -0.351123 -0.936329 0 0.351123 -0.936329 0 
0 -0.970142 -0.242536 0 -1 0 -0.351123 -0.936329 0 
0 1 0 0.351123 -0.936329 0 0 -0.970142 -0.242536 
0 -1 0 -0.351123 -0.936329 0 0 1 0 
0.351123 -0.936329 0 -0.54425 -0.361819 -0.756888 -0.0465872 -0.938608 0.341826 
-0.859849 0.250999 -0.444589 0.370059 -0.739816 0.561897 0.534329 0.538231 0.651767 
0 1 0 -0.253626 0.926635 -0.277526 0.364709 0.730427 0.577463 
0.0824151 -0.357517 -0.930263 -0.334006 -0.533323 -0.777178 -0.482643 -0.148335 -0.863164 
0.10648 -0.563299 -0.819364 -0.219647 -0.227131 -0.948771 0.533118 -0.304161 -0.789475 
-0.347917 -0.576084 -0.739649 0.219528 0.645174 -0.731818 0.382235 -0.91698 -0.114209 
0.523358 0.139739 -0.840577 0.941486 0.3202 -0.105239 0 -0.970142 0.242536 
0.269226 -0.114712 -0.956221 0 -0.970142 0.242536 -0.284402 -0.175362 -0.942531 
0.0480016 -0.222696 -0.973705 0 -0.970142 0.242536 0.36736 0.226566 -0.902061 
0.297007 0.573731 0.763295 0.684395 0.517193 -0.513922 0.440412 0.112031 0.890779 
-0.505243 -0.0507055 -0.861486 -0.209806 0.0631069 -0.975704 0.453091 0.146913 -0.879275 
-0.49583 0.210071 -0.842629 0.541003 0.0973604 -0.835366 0.784953 0.0972751 -0.611871 
-0.30198 0.297142 -0.905823 0.517013 0.303652 -0.800308 -0.154399 -0.562988 -0.811915 
0.0632401 -0.591051 -0.804152 -0.491214 -0.417528 -0.764447 0.0131042 -0.546064 -0.837641 
0.787265 -0.436545 -0.43548 -0.16954 -0.800577 -0.574746 0.305376 0.447356 -0.840606 
0.46821 -0.847058 0.25154 -0.0113389 -0.417845 -0.908448 0.0373012 -0.845995 -0.531885 
-0.104866 0.0676329 -0.992184 0.908305 -0.39735 -0.130751 0.919671 0.38743 0.0640654 
0.100607 -0.416779 -0.903423 0.369873 -0.210961 -0.904814 0.632777 0.668661 -0.390494 
-0.437916 -0.30269 -0.846527 0.0420864 -0.267902 -0.962527 0.180007 -0.110731 -0.977413 
0.522933 0.413925 -0.745122 0.142386 -0.0534066 -0.988369 -0.61981 0.035883 -0.783931 
0.871566 0.489591 0.0259602 0.960911 0.27101 0.0566011 0.216653 0.177521 -0.959973 
0.885773 0.201287 -0.418198 -0.0799312 0.353913 -0.931857 0.124421 0.237632 -0.963354 
-0.234653 0.407528 -0.88253 0.574239 0.366224 -0.732209 -0.205823 -0.652087 -0.729671 
0.0499092 -0.560824 -0.82643 0.170075 -0.63435 -0.754105 0.186081 -0.632696 -0.751711 
0.0376975 -0.982876 -0.180369 -0.059972 -0.190574 -0.979839 0.955399 -0.288237 0.0642853 
0.143361 -0.503497 -0.85202 0.371327 0.0676113 -0.926037 0.199763 -0.53773 -0.81911 
0.235577 -0.774085 -0.587619 0.791543 -0.146193 -0.593369 0.64748 0.571488 -0.504154 
-0.672213 -0.188807 -0.715878 0.653025 0.705342 -0.275775 0.701951 0.690306 -0.175336 
-0.767302 0.0519789 -0.639176 0.904291 0.398553 0.153015 -0.73039 0.384444 -0.564565 
0.0318659 0.481494 -0.87587 -0.361371 0.444195 -0.819818 0.598617 0.526948 -0.60331 
-0.0412377 -0.73564 -0.676116 0.122946 -0.760617 -0.637453 -0.42073 -0.418933 -0.804662 
0.326634 -0.395231 -0.858547 0.103179 -0.924346 -0.36734 0.782348 -0.604808 -0.14879 
0.769006 0.248138 -0.589116 0.947914 0.182833 -0.260827 -0.618901 -0.392202 -0.680543 
0.744322 0.373227 -0.553793 0.697585 0.44035 -0.565214 0.892425 0.292932 0.343173 
0.681698 0.7033 0.201634 0.700566 0.712864 0.0321377 0.977296 0.12448 -0.171457 
0.854896 0.311676 -0.414743 -0.444848 0.543875 -0.711555 0.322719 0.533522 -0.781797 
-0.197491 0.648325 -0.735304 -0.10382 0.634489 -0.765927 -0.307977 0.657047 -0.688069 
-0.539172 -0.553638 -0.634648 0.290754 -0.910257 -0.294779 0.967678 -0.0628424 -0.244235 
0.64923 0.707519 -0.279138 0.904997 0.199741 0.375612 0.486837 0.707889 -0.511744 
0.520977 0.608053 -0.599045 0.17255 -0.77741 -0.604864 0.452273 -0.826348 -0.335557 
0.983548 0.0567591 -0.171497 0.854244 -0.478512 -0.203208 0.851347 0.40711 -0.330862 
0.590332 0.789043 0.170058 0.499701 0.863684 0.0659524 0.92447 -0.0635769 0.375917 
0.908477 0.347749 -0.231821 0.16594 0.734199 -0.658343 0.730352 0.529851 -0.431095 
-0.113787 0.758907 -0.64118 0.372585 -0.861633 -0.344628 0.568804 -0.801071 -0.186405 
-0.81712 -0.166605 -0.551867 0.506331 0.799532 -0.323075 -0.557129 0.669992 -0.49063 
0.21829 0.710332 -0.669163 0.593493 0.543738 -0.593393 0.879354 -0.428725 -0.2072 
0.913428 -0.375365 -0.157322 -0.805388 -0.246364 -0.539125 0.92966 0.266806 -0.254061 
0.961539 -0.0142616 -0.274299 0.715938 0.651915 -0.249879 0.49793 0.863249 -0.0828646 
0.376055 0.897772 -0.22932 0.546938 0.830854 -0.102665 0.521897 0.743786 0.41762 
0.75491 0.478091 0.448931 0.89599 -0.0449169 0.441796 -0.829929 0.243786 -0.501783 
0.995692 0.0769876 -0.0516735 0.981647 0.0967145 -0.164364 0.0365393 -0.762095 -0.646433 
-0.664916 -0.484881 -0.568134 0.222893 0.955216 0.19463 0.788018 0.235205 0.568953 
0.934003 -0.224244 0.278124 0.877746 0.315888 -0.360244 0.289122 -0.814098 -0.50364 
-0.795885 -0.320804 -0.51347 0.596107 0.773134 -0.216612 0.827729 0.522717 -0.204035 
0.724352 0.406584 0.55678 0.65109 0.55331 -0.519548 0.12094 0.678647 -0.724439 
-0.405072 -0.695434 -0.593538 0.972363 0.209534 -0.102985 0.97636 0.181311 -0.117673 
0.260213 0.917365 0.301215 0.130591 0.991219 0.0207644 0.220489 0.975388 -0.0016712 
0.846474 -0.0256906 0.531809 0.655963 0.422226 -0.62565 -0.0704176 -0.793855 -0.604017 
0.560031 -0.825845 -0.0659226 0.816538 -0.560485 0.138287 -0.870944 -0.0929209 -0.482516 
0.985635 0.106332 -0.131215 0.763281 0.59569 -0.250111 0.512105 0.63795 0.575125 
0.00809174 0.99812 0.0607549 0.72729 0.215061 0.651765 0.7892 0.0726101 0.609829 
-0.80641 0.400207 -0.435359 0.967579 -0.219841 -0.124339 0.909848 0.140624 -0.390386 
-0.377699 0.688379 -0.619255 0.193038 0.585884 -0.787068 0.714976 -0.689991 0.112789 
0.931693 -0.359127 0.0545569 0.997606 -0.0527347 -0.0447387 0.93691 0.310395 -0.160792 
0.611132 0.471011 0.636134 0.796339 -0.208353 0.567833 -0.0806371 0.996379 0.0269359 
0.610886 0.740431 -0.280323 0.788693 -0.499208 0.358824 -0.909658 0.0970531 -0.40386 
0.662694 0.335243 -0.669663 0.42582 0.483524 -0.764775 0.630738 0.330104 -0.702283 
-0.626741 -0.575715 -0.525116 0.766031 -0.636299 0.0912128 0.970449 -0.241307 0.000581019 
0.612829 0.47771 0.62947 0.739003 0.234599 0.631536 0.324297 0.814496 0.48107 
0.900202 0.403912 -0.16276 0.665334 0.699284 -0.261405 0.216585 0.910145 -0.353167 
0.909682 -0.413078 0.0429484 0.933475 -0.119333 -0.338207 0.802236 0.168871 -0.572625 
0.253646 0.439203 -0.861838 -0.298038 -0.73692 -0.60673 0.625006 -0.721329 -0.298416 
0.375173 0.772004 0.513083 0.26382 0.884911 0.383838 0.998105 -0.0124984 -0.0602473 
0.775035 0.266993 0.572744 0.851195 -0.245285 0.464007 -0.134571 0.990803 0.0141237 
0.617425 0.728995 -0.295554 0.795083 -0.399282 0.456527 0.852881 -0.51229 0.100763 
0.87472 -0.480648 0.0619828 -0.778967 0.501135 -0.376927 0.9078 -0.124727 -0.400427 
0.821978 0.127894 -0.554974 0.588509 0.320931 -0.742065 0.0456334 0.580537 -0.812954 
0.133665 -0.850879 -0.508074 0.36189 -0.795187 -0.486532 0.721164 0.516013 0.462227 
0.155238 0.949289 0.273409 0.842979 0.490754 -0.220335 -0.0482372 0.876118 -0.479678 
0.709964 -0.628611 0.317489 -0.916109 0.350831 -0.194066 0.888015 -0.454846 -0.0674146 
0.754214 -0.646499 0.114891 0.937664 -0.347054 0.0184023 0.6006 0.74008 0.302592 
0.0785631 0.981685 0.173556 -0.259293 0.965581 0.0204767 0.912321 -0.12526 0.389846 
0.956578 0.251146 -0.147935 -0.228308 0.973165 -0.0287364 0.787846 0.582454 -0.200114 
0.692291 0.659968 -0.29185 0.158211 0.898049 -0.410461 0.381166 0.831799 -0.403512 
0.896097 -0.429584 -0.111661 0.909458 -0.22243 -0.351299 0.864125 -0.0167109 -0.503 
0.825541 0.209483 -0.524021 0.678396 0.350317 -0.645799 0.589793 0.403324 -0.699624 
-0.544259 -0.658739 -0.519466 -0.254096 -0.753148 -0.606797 0.856793 -0.500149 0.125524 
0.54523 0.825518 0.145757 0.896095 -0.400956 0.190391 0.947164 0.166166 0.274352 
0.998213 -0.0413664 0.0431245 -0.227084 0.953436 -0.198476 -0.176523 0.884408 -0.432044 
0.932711 -0.167385 -0.319426 0.402981 0.492097 -0.771652 0.235274 -0.864201 -0.444751 
-0.409596 -0.799918 -0.438591 0.508897 -0.788153 -0.346178 -0.712947 -0.546957 -0.4388 
0.90181 0.371199 0.221247 0.984988 -0.0533108 0.164187 -0.242904 0.96969 -0.026441 
0.931037 0.34673 -0.113794 0.608694 0.708847 -0.356409 -0.96478 0.245886 -0.0934816 
0.647238 -0.739369 0.185514 0.878396 -0.456566 -0.141306 0.913655 -0.0553488 -0.402705 
-0.131427 0.678339 -0.722899 0.738363 -0.664329 -0.116131 -0.931957 -0.143103 -0.333133 
0.779915 -0.623515 0.0544205 0.838212 0.539799 0.0775758 0.933914 -0.33191 0.132817 
0.824035 -0.534745 0.187119 0.389981 0.86115 -0.326091 0.905745 -0.412297 -0.0981653 
0.272043 0.6124 -0.742266 -0.872262 -0.274186 -0.404945 0.748389 -0.657581 -0.0866079 
-0.0753937 0.992933 -0.091656 0.898083 -0.413048 0.151126 0.946056 -0.265864 0.185187 
0.979004 -0.137305 0.15066 -0.390798 0.901476 -0.186059 0.848034 0.491094 -0.199162 
0.49125 0.809086 -0.322571 0.664468 0.684699 -0.299448 0.19069 0.903096 -0.384778 
0.93827 -0.18705 -0.290966 0.771681 0.237957 -0.589818 -0.231416 0.749774 -0.619907 
0.188897 0.693116 -0.695635 -0.160329 -0.816834 -0.554145 0.0967554 -0.825538 -0.55599 
-0.215014 -0.792544 -0.570651 0.818741 0.574106 -0.00812208 0.974699 0.218495 -0.0471384 
-0.296831 0.949516 -0.101546 0.916664 -0.365132 0.162498 0.995934 0.0812212 -0.0389728 
-0.193007 0.909928 -0.367123 0.676387 0.712156 -0.187975 0.859244 0.481369 -0.173159 
0.945992 -0.293403 -0.137893 -0.725093 0.61873 -0.302345 0.667252 0.435353 -0.604354 
0.553781 0.563845 -0.612704 -0.561883 -0.720972 -0.405569 0.32237 0.931003 -0.171203 
-0.987201 0.141463 -0.0736398 0.95638 -0.291526 0.0186876 0.996284 -0.0290123 0.0810932 
0.939003 0.343902 -0.00213116 0.940579 0.330516 -0.0779148 0.111573 0.912359 -0.393893 
0.851771 -0.523914 -0.00102824 0.935331 0.00935767 -0.353651 0.113889 0.898695 -0.423528 
-0.940924 -0.139578 -0.308513 0.776309 -0.618438 0.121978 0.61969 0.747103 -0.240461 
-0.18204 0.948876 -0.257867 0.993477 -0.09918 -0.0562666 0.967829 -0.232059 0.0972365 
0.92005 0.386585 -0.0637193 0.60225 0.74579 -0.284767 -0.260584 0.916546 -0.303381 
0.595875 0.726169 -0.342945 0.128609 0.910587 -0.392799 0.726317 -0.67356 0.137042 
-0.547061 0.722312 -0.423072 0.553026 0.672853 -0.491356 -0.18771 0.900653 -0.391906 
0.394967 0.77611 -0.491584 -0.0741984 -0.877489 -0.473822 0.11691 -0.841997 -0.526662 
0.989595 0.0776983 0.1211 0.994628 0.0912039 0.0489638 0.0129618 0.94892 -0.315251 
0.373636 0.864357 -0.336574 0.841752 -0.539811 -0.00760637 0.90388 -0.411314 -0.117567 
0.844565 0.363592 -0.393079 -0.206715 -0.889956 -0.406507 0.200257 -0.832 -0.517372 
-0.336751 -0.836696 -0.431901 0.396708 -0.76861 -0.501857 0.505038 -0.792204 -0.342562 
-0.957255 -0.0693792 -0.2808 0.980239 -0.191637 -0.0490512 0.780712 -0.622477 0.0548722 
0.96594 0.242588 -0.0900581 0.463308 0.837831 -0.288765 0.723871 0.631993 -0.276758 
0.362091 0.886933 -0.286777 0.653726 0.696069 -0.296869 -0.293697 0.912283 -0.285452 
0.336251 0.906674 -0.25471 0.73526 -0.662169 -0.144654 0.928357 0.303981 -0.21389 
0.364004 0.87056 -0.331099 0.77117 0.613668 -0.169435 -0.920613 0.357445 -0.15718 
-0.515346 0.810487 -0.278441 0.151547 -0.902495 -0.403158 -0.670303 -0.653404 -0.351793 
-0.887277 -0.387539 -0.250108 0.904465 -0.338535 0.259495 0.741954 0.61438 -0.268406 
0.982673 0.164679 -0.0850512 -0.0347667 0.970323 -0.2393 0.952546 -0.298595 -0.0591342 
0.85696 -0.512169 -0.0574648 -0.980334 0.152813 -0.124871 -0.147295 0.953233 -0.263915 
0.673092 0.725192 -0.145065 0.9667 -0.217627 0.134644 0.962875 -0.211239 0.16808 
0.942081 -0.312748 0.121127 0.955352 0.274333 -0.109744 -0.3133 -0.830648 -0.46029 
0.753406 -0.641273 -0.145426 -0.991652 -0.0724592 -0.106659 0.84334 0.533075 -0.067884 
0.988316 -0.0983976 0.1164 0.928948 0.347594 -0.127411 0.100287 0.957137 -0.27172 
0.620709 0.75117 -0.224641 -0.700258 0.672128 -0.240588 0.791161 0.573692 -0.211992 
0.17052 0.974679 -0.144653 -0.267031 -0.839788 -0.472705 -0.455475 -0.799703 -0.391175 
-0.0685349 -0.878957 -0.47195 -0.601725 -0.716355 -0.353217 0.51368 -0.802483 -0.303569 
0.496035 0.864033 -0.0860062 0.999743 -0.0112708 0.0196687 0.921466 0.380376 -0.0788283 
0.353535 0.909222 -0.219838 -0.829597 0.529625 -0.176825 -0.141478 -0.826866 -0.544312 
0.0277208 -0.8611 -0.507679 -0.733004 -0.637406 -0.237525 -0.884249 -0.427675 -0.187612 
0.931103 0.360703 0.0542223 0.837393 0.539162 -0.0898755 0.963262 -0.179887 -0.199416 
0.956581 0.204032 -0.208142 0.785473 0.616322 -0.0563836 -0.298999 0.946775 -0.119234 
0.0899644 -0.939323 -0.331027 -0.444122 -0.789646 -0.423338 -0.22968 -0.888171 -0.397995 
0.249177 -0.860314 -0.444715 0.815998 0.54967 0.178913 0.0751327 0.996426 -0.0386104 
-0.37165 0.913752 -0.164114 0.798569 0.577091 -0.171037 0.898444 -0.435553 0.0556136 
0.521727 0.844823 -0.11864 0.60522 0.795962 -0.0123709 -0.116332 -0.930142 -0.348284 
-0.346049 -0.884339 -0.31336 -0.503217 -0.808171 -0.305993 -0.598829 -0.752818 -0.273258 
-0.90493 -0.413725 -0.0996644 0.774544 -0.632049 -0.0244086 0.990115 0.0312278 0.136736 
0.102458 0.990233 0.0945606 -0.246873 0.968944 -0.0141494 -0.10005 0.972641 -0.209666 
0.747854 -0.620537 0.235899 0.967501 -0.208504 -0.143067 0.633086 0.773878 -0.0177478 
-0.296119 -0.917463 -0.265659 0.988703 0.106021 -0.105952 0.472672 0.853601 -0.218967 
-0.511925 0.849309 -0.128865 0.977205 -0.211943 -0.0122934 0.807398 -0.558487 0.190266 
-0.948165 0.30953 -0.0719324 0.251243 0.960097 -0.122843 -0.192248 0.969002 -0.155163 
-0.97148 -0.232757 -0.0452813 0.477032 0.795808 -0.373001 0.903965 0.303123 -0.301602 
-0.264477 0.920485 -0.287681 -0.193982 0.932565 -0.304455 0.850526 -0.515821 0.102633 
0.993178 0.11629 -0.00865427 0.405311 0.897797 -0.172293 0.840346 -0.520534 -0.151206 
0.971424 -0.15615 -0.178751 0.272199 0.962086 -0.0172938 -0.181247 -0.930597 -0.318024 
0.0151038 -0.93283 -0.360001 0.502649 -0.843616 -0.188826 0.634001 0.6727 -0.381467 
-0.993894 0.107824 -0.0234373 0.989726 0.0777599 -0.11998 0.986314 -0.155774 0.0540253 
0.992056 0.115919 -0.0488668 0.666382 -0.738473 0.102923 -0.857696 0.505441 -0.0942709 
0.929808 0.322203 -0.17788 -0.566024 0.684999 -0.458687 -0.892905 -0.443919 -0.0752077 
0.580837 0.774909 -0.249286 -0.223816 0.949609 -0.219429 0.837884 -0.533623 0.114878 
0.676671 -0.731398 0.0846979 0.683962 -0.710729 -0.164501 0.983725 -0.0159387 -0.178975 
0.988457 0.123954 -0.0871142 -0.637506 0.706092 -0.308254 -0.367772 -0.899872 -0.234466 
0.989981 -0.0122722 -0.140665 0.971312 -0.172827 -0.163352 -0.463327 0.880404 -0.101083 
0.670891 -0.728222 -0.139992 -0.992737 -0.116128 0.03141 0.534108 0.817534 -0.21533 
0.0266924 0.967564 -0.251212 0.977764 -0.207231 -0.0321385 0.936758 -0.34808 -0.0363836 
-0.493854 0.846335 -0.199561 0.846593 0.463039 -0.262441 0.133528 0.932159 -0.336526 
-0.727223 0.659231 -0.191208 -0.20927 -0.964042 -0.163793 0.135847 -0.958621 -0.250183 
-0.617981 -0.766063 -0.176767 0.625075 0.73784 -0.254701 0.932035 0.318666 -0.17252 
0.199085 0.945711 -0.256896 -0.42219 0.887294 -0.185645 0.410334 0.896645 -0.166294 
0.498009 0.848644 -0.178301 0.776263 0.608907 -0.163243 0.03572 0.967927 -0.24868 
0.800601 -0.591651 -0.0947997 0.972799 -0.181861 -0.143484 0.347764 0.937581 -0.00148347 
0.418025 0.869274 -0.26385 -0.269764 0.92885 -0.253901 0.869986 -0.493076 0.000167613 
-0.230632 0.947716 -0.220554 0.732973 0.506979 -0.453567 0.393857 0.850978 -0.347439 
0.791133 0.416026 -0.448365 -0.502804 0.845973 -0.177532 0.100551 -0.985225 -0.138642 
-0.623106 -0.774619 -0.108187 -0.781645 -0.621082 -0.0573442 0.842557 0.496647 -0.20842 
0.505049 0.8096 -0.299121 0.985808 -0.132471 -0.10312 0.971608 -0.222142 -0.0814274 
0.906009 0.215645 -0.364205 0.726876 0.592418 -0.347408 0.898563 0.291214 -0.328297 
-0.94657 0.322487 0.00260083 0.698372 -0.71569 -0.00797198 0.700217 0.650968 -0.293151 
0.406656 0.86256 -0.301034 -0.655884 0.749176 -0.0924741 -0.115889 0.989436 -0.0871026 
0.0761607 -0.996132 -0.0438288 0.35756 -0.931692 -0.0640365 0.886627 -0.462362 -0.0106766 
0.765894 0.572863 -0.291949 0.93843 0.258334 -0.229372 0.992103 -0.0686351 -0.104983 
-0.535519 0.806605 -0.250216 0.159576 0.96308 -0.216821 0.966006 0.15641 -0.205838 
-0.149705 -0.986849 -0.0609677 0.96457 -0.26223 -0.0289908 -0.0328302 0.981637 -0.187912 
0.98058 0.0950653 -0.171539 0.719127 0.688972 -0.0904116 -0.841692 0.530767 -0.0991997 
0.910189 -0.333652 -0.245423 0.981834 -0.0171897 -0.188961 0.345473 0.934694 -0.0836399 
-0.429467 0.900226 -0.0717769 -0.441054 -0.889578 -0.118839 0.988441 0.136667 0.0656322 
-0.205837 0.977903 -0.0365661 0.840594 0.541229 0.0217458 0.298255 0.954351 0.0160523 