# vtk DataFile Version 4.2
vtk output
ASCII
DATASET POLYDATA
POINTS 3438 float
424.951 150.372 133.722 424.928 150.274 133.763 424.972 150.456 133.746 
425.106 149.965 133.91 424.92 150.707 133.805 424.71 151.549 133.95 
424.097 153.469 134.346 424.102 153.253 134.351 424.198 153.35 134.328 
424.088 153.617 134.378 426.154 145.95 134.812 426.017 146.057 134.794 
424.969 151.714 134.155 424.235 152.772 134.288 424.5 152.306 134.148 
424.434 152.939 134.312 424.14 153.724 134.426 423.931 154.104 134.59 
423.928 154.277 134.662 426.734 146.423 135.281 425.315 148.442 134.394 
424.861 148.665 134.465 426.396 147.381 134.979 425.555 149.166 134.353 
425.382 150.504 134.2 425.276 151.309 134.359 423.843 154.506 134.82 
427.639 140.774 136.776 427.582 140.415 136.891 427.188 141.408 136.46 
427.849 140.922 136.879 427.238 142.214 136.206 426.485 143.431 135.721 
426.404 144.479 135.383 426.264 148.56 135.111 424.062 149.322 134.997 
426.327 148.856 135.389 425.183 151.858 134.682 423.613 154.798 135.088 
423.597 155.061 135.151 423.711 154.858 135.003 423.896 154.585 134.969 
423.639 155.083 135.076 423.619 155.11 135.148 423.671 155.072 135.062 
423.728 154.952 135.105 423.642 155.136 135.086 427.612 143.408 136.277 
426.899 147.482 135.894 426.189 149.676 135.803 423.424 152.777 135.531 
423.489 154.745 135.46 423.562 154.949 135.331 423.646 155.048 135.209 
423.657 155.106 135.11 427.755 139.267 137.534 428.041 138.996 137.788 
426.92 139.938 137.258 426.272 141.347 136.725 425.225 143.611 136.332 
423.357 149.225 136.197 426.836 148.262 136.486 423.228 151.579 136.032 
423.156 152.442 136.439 423.374 154.064 135.811 424.26 153.69 135.727 
423.47 154.608 135.714 423.564 154.827 135.54 423.686 154.907 135.391 
428.69 136.128 139.365 428.636 136.988 138.946 428.821 136.555 139.261 
428.862 137.998 138.804 426.058 140.168 137.522 426.272 139.746 137.637 
424.105 144.207 137.145 426.18 149.898 137.042 423.139 152.556 136.949 
425.141 151.968 136.246 423.27 153.13 136.887 423.233 153.217 137.123 
423.185 153.483 136.953 424.269 153.196 136.337 423.193 153.651 136.9 
423.252 153.924 136.688 423.387 154.217 136.244 423.551 154.593 135.791 
423.598 154.277 136.057 423.271 154.051 136.574 428.465 135.967 139.363 
428.276 135.802 139.447 429.196 140.036 138.931 422.797 151.862 138.347 
422.954 152.024 137.492 422.953 152.483 137.999 423.052 152.625 137.555 
423.3 152.636 137.545 423.168 152.967 137.436 423.542 153.072 137.095 
423.069 153.05 137.427 423.026 152.914 137.667 423.22 153.328 137.166 
423.469 153.527 136.81 423.058 153.11 137.485 423.13 153.309 137.271 
423.279 153.71 136.837 425.874 138.428 138.887 429.453 140.137 139.521 
422.711 143.777 139.458 422.111 148.825 139.232 422.031 148.945 139.648 
422.685 151.158 139.078 423.063 152.734 137.842 423.204 152.349 138.186 
423.065 153.052 137.557 423.121 153.055 137.5 428.931 134.395 140.689 
427.351 135.276 140.257 429.7 134.469 141.207 429.703 140.901 140.644 
422.011 145.15 140.227 428.443 145.181 140.492 421.745 147.233 140.47 
422.139 149.509 140.337 422.477 150.343 139.895 423.082 151.092 139.65 
423.186 151.462 139.267 424.104 151.51 138.887 429.197 132.15 142.194 
421.507 144.938 141.597 421.893 148.68 141.104 422.018 149.206 141.14 
425.913 148.811 140.877 422.131 149.43 140.891 424.893 150.126 140.146 
429.826 130.375 143.43 428.591 131.387 142.697 430.066 131.929 142.808 
427.858 132.034 142.454 430.659 133.035 142.96 430.495 134.449 142.224 
430.455 136.019 141.796 429.107 143.507 142.333 421.265 145.091 142.45 
421.392 146.233 142.155 421.981 148.555 141.835 422.017 149.112 141.322 
425.955 148.356 141.712 422.099 149.28 141.192 422.612 149.646 141.159 
424.161 150.067 140.773 429.716 129.615 143.833 430.891 129.86 144.349 
430.896 130.708 144.018 430.982 131.581 143.867 430.967 133.869 143.214 
430.107 140.545 142.635 421.916 140.583 142.64 421.5 146.74 143.703 
426.888 147.337 142.024 421.613 147.507 142.915 422.131 149.091 141.459 
423.614 149.133 142.112 425.221 148.509 142.358 430.362 128.621 144.708 
431.379 130.014 144.745 431.361 132.281 144.344 421.31 146 144.462 
421.39 146.409 144.235 421.408 146.407 144.356 427 146.379 143.872 
422.853 147.697 143.924 424.114 148.317 143.282 423.782 148.334 143.287 
431.44 127.157 145.883 431.463 127.038 145.93 431.387 127.05 145.931 
431.51 127.048 145.965 431.17 127.368 145.743 431.341 126.81 146.176 
431.495 127.407 145.866 431.574 130.705 144.886 431.735 131.252 145.17 
431.308 135.715 144.452 422.34 136.089 144.909 420.309 142.742 145.85 
422.528 147.283 144.323 423.98 147.653 144.222 430.775 125.651 146.812 
430.406 125.754 146.711 431.467 126.974 146.008 431.575 126.122 146.836 
431.888 126.981 146.59 432.733 124.498 148.419 431.692 125.117 147.53 
433.093 124.546 148.7 429.439 124.982 147.357 432.693 125.558 148.032 
432.416 126.724 147.346 420.988 136.84 146.631 420.072 139.172 147.457 
420.181 142.473 147.181 420.478 143.175 147.135 420.759 143.765 146.875 
421.415 144.681 146.661 426.049 145.815 146.129 432.171 122.815 149.01 
433.127 125.579 148.513 419.701 139.436 149.064 419.936 141.783 147.577 
419.966 141.778 147.931 420.042 142.277 147.824 420.047 142.229 147.723 
420.149 142.415 147.787 425.708 144.971 147.641 422.327 145.285 146.738 
423.478 145.016 147.614 424.686 145.461 147.113 433.593 121.2 150.314 
434.368 123.142 150.306 433.527 125.801 149.037 419.62 138.952 149.781 
419.756 140.856 148.945 419.729 141.063 148.969 419.846 141.258 148.772 
420.054 142.272 147.893 419.72 141.099 149.005 420.104 142.202 148.07 
428.976 141.991 149.016 420.608 143.005 147.917 428.077 143.251 148.26 
422.941 144.117 148.684 426.12 144.155 148.819 434.803 120.198 151.299 
429.944 120.946 150.334 423.996 127.133 149.357 420.144 134.807 149.934 
419.637 138.961 149.939 419.703 138.433 150.404 420.091 140.332 150.251 
419.96 141.187 149.257 430.222 140.057 149.939 420.215 142.223 148.362 
422.035 142.998 149.678 425.499 143.689 149.907 427.02 143.541 149.185 
436.477 118.237 152.678 436.867 118.788 152.86 436.878 119.376 152.903 
436.252 120.009 152.385 426.962 122.569 150.412 434.972 124.482 151.406 
419.789 135.755 151.361 420.709 141.127 150.828 420.644 141.082 150.702 
420.74 141.204 150.823 420.738 141.252 150.779 422.658 142.748 150.552 
425.884 143.382 150.274 438.264 116.833 154.008 433.431 117.456 152.366 
437.28 119.459 153.374 427.644 120.465 151.612 436.219 121.871 152.694 
434.702 127.065 151.992 420.858 129.16 152.378 432.404 135.734 151.456 
420.348 139.126 151.633 420.812 141.112 150.94 422.004 142.013 152.009 
422.004 142.013 152.009 422.004 142.013 152.009 422.004 142.013 152.009 
422.004 142.013 152.009 438.775 115.447 154.567 436.437 115.873 153.546 
439.117 116.21 154.764 421.92 124.301 153.884 433.27 133.621 152.707 
420.257 136.997 153.358 422.004 142.013 152.009 440.674 113.847 155.913 
435.839 114.643 154.134 440.865 114.529 156.218 439.645 115.93 155.304 
438.951 116.931 154.704 439.04 117.213 154.984 437.442 120.122 153.99 
424.421 121.515 153.053 420.792 126.885 154.262 419.882 131.418 154.239 
419.772 133.612 153.929 419.893 134.957 153.984 422.567 140.079 153.845 
426.519 141.1 153.683 441.534 111.828 156.707 441.929 111.795 156.995 
441.966 112.383 156.902 437.853 113.199 155.126 440.803 115.018 156.373 
420.846 125.643 155.232 420.361 135.289 155.374 421.737 138.158 155.27 
428.514 139.818 154.822 426.864 140.6 154.405 427.503 140.288 154.698 
443.195 109.336 158.339 443.153 109.231 158.369 443.062 109.424 158.273 
443.301 109.251 158.468 443.185 109.479 158.339 440.755 110.765 156.826 
442.339 111.969 157.358 442.212 112.313 157.093 442.156 112.389 157 
442.219 112.403 157.069 442.147 112.48 157.025 439.076 118.433 156.317 
438.321 119.601 155.781 421.01 136.411 156.068 430.226 138.079 155.959 
443.227 109.024 158.538 443.456 109.019 158.722 442.802 109.952 158.086 
442.997 110.723 158.15 442.879 111.473 158.044 442.28 112.451 157.245 
427.005 113.275 157.463 442.136 113.464 157.621 420.061 130.801 157.016 
421.608 136.558 157.094 424.891 139.571 156.008 443.249 108.493 158.896 
444.286 107.87 159.809 444.532 108.795 159.717 444.298 109.724 159.481 
442.532 113.453 158.544 441.781 114.766 158.41 438.69 119.745 158.29 
433.642 132.989 157.954 445.056 107.596 160.542 444.387 110.522 159.913 
425.546 112.617 159.537 423.702 115.714 159.402 424.907 138.11 158.322 
441.797 105.573 160.203 443.472 105.748 160.567 443.194 106.352 160.102 
430.316 107.042 160.233 445.47 107.613 160.915 445.156 109.136 160.47 
428.087 110.254 159.126 424.976 112.359 160.748 443.656 112.362 160.227 
442.105 114.638 159.788 420.408 126.502 159.077 420.904 131.38 160.461 
426.083 137.48 159.706 432.262 104.553 161.055 428.817 107.196 160.879 
427.476 107.801 161.503 445.721 108.85 161.296 423.483 115.013 161.044 
420.67 124.926 160.695 421.819 132.866 161.263 430.978 135.881 160.391 
437.726 103.993 160.881 446.854 106.285 162.897 446.412 108.922 162.738 
425.15 110.669 162.382 445.623 109.737 161.766 443.109 113.549 161.722 
441.727 115.337 162.023 420.807 128.641 161.841 421.726 131.23 162.733 
422.928 134.144 161.752 426.054 136.196 161.695 429.175 136.466 161.176 
430.189 99.9234 164.441 447.429 107.164 163.679 447.577 107.749 164.342 
445.851 110.3 163.451 421.225 129.634 162.785 421.403 130.198 162.88 
422.508 132.529 162.93 422.868 132.707 163.328 431.195 98.4087 164.724 
440.856 98.8459 163.919 428.031 102.059 165.069 427.861 103.032 164.584 
426.985 104.816 164.427 448.422 105.79 164.961 447.072 108.915 164.867 
424.839 133.921 164.268 428.138 135.323 163.655 431.162 96.2463 165.96 
438.572 95.0145 165.342 426.444 104.381 165.814 426.387 105.835 164.634 
425.646 107.219 165.069 423.169 114.176 164.717 422.207 117.318 164.464 
429.243 135.336 163.479 432.85 92.961 166.908 435.218 93.8949 165.853 
[...]
POINT_DATA 3438
SCALARS scalars float
LOOKUP_TABLE default
1 1 1 1 1 1 1 1 1 
1 1 1 1 1 1 1 1 1 
1 1 1 1 1 1 1 1 1 
1 1 1 1 1 1 1 1 1 
1 1 1 1 1 1 1 1 1 
1 1 1 1 1 1 1 1 1 
1 1 1 1 1 1 1 1 1 
1 1 1 1 1 1 1 1 1 
1 1 1 1 1 1 1 1 1 
1 1 1 1 1 1 1 1 1 
1 1 1 1 1 1 1 1 1 
1 1 1 1 1 1 1 1 1 
1 1 1 1 1 1 1 1 1 
1 1 1 1 1 1 1 1 1 
1 1 1 1 1 1 1 1 1 
1 1 1 1 1 1 1 1 1 
1 1 1 1 1 1 1 1 1 
1 1 1 1 1 1 1 1 1 
1 1 1 1 1 1 1 1 1 
1 1 1 1 1 1 1 1 1 
1 1 1 1 1 1 1 1 1 
1 1 1 1 1 1 1 1 1 
1 1 1 1 1 1 1 1 1 
1 1 1 1 1 1 1 1 1 
1 1 1 1 1 1 1 1 1 
1 1 1 1 1 1 1 1 1 
1 1 1 1 1 1 1 1 1 
1 1 1 1 1 1 1 1 1 
1 1 1 1 1 1 1 1 1 
1 1 1 1 1 1 1 1 1 
1 1 1 1 1 1 1 1 1 
1 1 1 1 1 1 1 1 1 
1 1 1 1 1 1 1 1 1 
1 1 1 1 1 1 1 1 1 
1 1 1 1 1 1 1 1 1 
1 1 1 1 1 1 1 1 1 
1 1 1 1 1 1 1 1 1 
1 1 1 1 1 1 1 1 1 
1 1 1 1 1 1 1 1 1 
1 1 1 1 1 1 1 1 1 
1 1 1 1 1 1 1 1 1 
1 1 1 1 1 1 1 1 1 
1 1 1 1 1 1 1 1 1 
1 1 1 1 1 1 1 1 1 
1 1 1 1 1 1 1 1 1 
1 1 1 1 1 1 1 1 1 
1 1 1 1 1 1 1 1 1 
1 1 1 1 1 1 1 1 1 
1 1 1 1 1 1 1 1 1 
1 1 1 1 1 1 1 1 1 
1 1 1 1 1 1 1 1 1 
1 1 1 1 1 1 1 1 1 
1 1 1 1 1 1 1 1 1 
1 1 1 1 1 1 1 1 1 
1 1 1 1 1 1 1 1 1 
1 1 1 1 1 1 1 1 1 
1 1 1 1 1 1 1 1 1 
1 1 1 1 1 1 1 1 1 
1 1 1 1 1 1 1 1 1 
1 1 1 1 1 1 1 1 1 
1 1 1 1 1 1 1 1 1 
1 1 1 1 1 1 1 1 1 
1 1 1 1 1 1 1 1 1 
1 1 1 1 1 1 1 1 1 
1 1 1 1 1 1 1 1 1 
1 1 1 1 1 1 1 1 1 
1 1 1 1 1 1 1 1 1 
1 1 1 1 1 1 1 1 1 
1 1 1 1 1 1 1 1 1 
1 1 1 1 1 1 1 1 1 
1 1 1 1 1 1 1 1 1 
1 1 1 1 1 1 1 1 1 
1 1 1 1 1 1 1 1 1 
1 1 1 1 1 1 1 1 1 
1 1 1 1 1 1 1 1 1 
1 1 1 1 1 1 1 1 1 
1 1 1 1 1 1 1 1 1 
1 1 1 1 1 1 1 1 1 
1 1 1 1 1 1 1 1 1 
1 1 1 1 1 1 1 1 1 
1 1 1 1 1 1 1 1 1 
1 1 1 1 1 1 1 1 1 
1 1 1 1 1 1 1 1 1 
1 1 1 1 1 1 1 1 1 
1 1 1 1 1 1 1 1 1 
1 1 1 1 1 1 1 1 1 
1 1 1 1 1 1 1 1 1 
1 1 1 1 1 1 1 1 1 
1 1 1 1 1 1 1 1 1 
1 1 1 1 1 1 1 1 1 
1 1 1 1 1 1 1 1 1 
1 1 1 1 1 1 1 1 1 
1 1 1 1 1 1 1 1 1 
1 1 1 1 1 1 1 1 1 
1 1 1 1 1 1 1 1 1 
1 1 1 1 1 1 1 1 1 
1 1 1 1 1 1 1 1 1 
1 1 1 1 1 1 1 1 1 
1 1 1 1 1 1 1 1 1 
1 1 1 1 1 1 1 1 1 
1 1 1 1 1 1 1 1 1 
1 1 1 1 1 1 1 1 1 
1 1 1 1 1 1 1 1 1 
1 1 1 1 1 1 1 1 1 
1 1 1 1 1 1 1 1 1 
1 1 1 1 1 1 1 1 1 
1 1 1 1 1 1 1 1 1 
1 1 1 1 1 1 1 1 1 
1 1 1 1 1 1 1 1 1 
1 1 1 1 1 1 1 1 1 
1 1 1 1 1 1 1 1 1 
1 1 1 1 1 1 1 1 1 
1 1 1 1 1 1 1 1 1 
1 1 1 1 1 1 1 1 1 
1 1 1 1 1 1 1 1 1 
1 1 1 1 1 1 1 1 1 
1 1 1 1 1 1 1 1 1 
1 1 1 1 1 1 1 1 1 
1 1 1 1 1 1 1 1 1 
1 1 1 1 1 1 1 1 1 
1 1 1 1 1 1 1 1 1 
1 1 1 1 1 1 1 1 1 
1 1 1 1 1 1 1 1 1 
1 1 1 1 1 1 1 1 1 
1 1 1 1 1 1 1 1 1 
1 1 1 1 1 1 1 1 1 
1 1 1 1 1 1 1 1 1 
1 1 1 1 1 1 1 1 1 
1 1 1 1 1 1 1 1 1 
1 1 1 1 1 1 1 1 1 
1 1 1 1 1 1 1 1 1 
1 1 1 1 1 1 1 1 1 
1 1 1 1 1 1 1 1 1 
1 1 1 1 1 1 1 1 1 
1 1 1 1 1 1 1 1 1 
1 1 1 1 1 1 1 1 1 
1 1 1 1 1 1 1 1 1 
1 1 1 1 1 1 1 1 1 
1 1 1 1 1 1 1 1 1 
1 1 1 1 1 1 1 1 1 
1 1 1 1 1 1 1 1 1 
1 1 1 1 1 1 1 1 1 
1 1 1 1 1 1 1 1 1 
1 1 1 1 1 1 1 1 1 
1 1 1 1 1 1 1 1 1 
1 1 1 1 1 1 1 1 1 
1 1 1 1 1 1 1 1 1 
1 1 1 1 1 1 1 1 1 
1 1 1 1 1 1 1 1 1 
1 1 1 1 1 1 1 1 1 
1 1 1 1 1 1 1 1 1 
1 1 1 1 1 1 1 1 1 
1 1 1 1 1 1 1 1 1 
1 1 1 1 1 1 1 1 1 
1 1 1 1 1 1 1 1 1 
1 1 1 1 1 1 1 1 1 
1 1 1 1 1 1 1 1 1 
1 1 1 1 1 1 1 1 1 
1 1 1 1 1 1 1 1 1 
1 1 1 1 1 1 1 1 1 
1 1 1 1 1 1 1 1 1 
1 1 1 1 1 1 1 1 1 
1 1 1 1 1 1 1 1 1 
1 1 1 1 1 1 1 1 1 
1 1 1 1 1 1 1 1 1 
1 1 1 1 1 1 1 1 1 
1 1 1 1 1 1 1 1 1 
1 1 1 1 1 1 1 1 1 
1 1 1 1 1 1 1 1 1 
1 1 1 1 1 1 1 1 1 
1 1 1 1 1 1 1 1 1 
1 1 1 1 1 1 1 1 1 
1 1 1 1 1 1 1 1 1 
1 1 1 1 1 1 1 1 1 
1 1 1 1 1 1 1 1 1 
1 1 1 1 1 1 1 1 1 
1 1 1 1 1 1 1 1 1 
1 1 1 1 1 1 1 1 1 
1 1 1 1 1 1 1 1 1 
1 1 1 1 1 1 1 1 1 
1 1 1 1 1 1 1 1 1 
1 1 1 1 1 1 1 1 1 
1 1 1 1 1 1 1 1 1 
1 1 1 1 1 1 1 1 1 
1 1 1 1 1 1 1 1 1 
1 1 1 1 1 1 1 1 1 
1 1 1 1 1 1 1 1 1 
1 1 1 1 1 1 1 1 1 
1 1 1 1 1 1 1 1 1 
1 1 1 1 1 1 1 1 1 
1 1 1 1 1 1 1 1 1 
1 1 1 1 1 1 1 1 1 
1 1 1 1 1 1 1 1 1 
1 1 1 1 1 1 1 1 1 
1 1 1 1 1 1 1 1 1 
1 1 1 1 1 1 1 1 1 
1 1 1 1 1 1 1 1 1 
1 1 1 1 1 1 1 1 1 
1 1 1 1 1 1 1 1 1 
1 1 1 1 1 1 1 1 1 
1 1 1 1 1 1 1 1 1 
1 1 1 1 1 1 1 1 1 
1 1 1 1 1 1 1 1 1 
1 1 1 1 1 1 1 1 1 
1 1 1 1 1 1 1 1 1 
1 1 1 1 1 1 1 1 1 
1 1 1 1 1 1 1 1 1 
1 1 1 1 1 1 1 1 1 
1 1 1 1 1 1 1 1 1 
1 1 1 1 1 1 1 1 1 
1 1 1 1 1 1 1 1 1 
1 1 1 1 1 1 1 1 1 
1 1 1 1 1 1 1 1 1 
1 1 1 1 1 1 1 1 1 
1 1 1 1 1 1 1 1 1 
1 1 1 1 1 1 1 1 1 
1 1 1 1 1 1 1 1 1 
1 1 1 1 1 1 1 1 1 
1 1 1 1 1 1 1 1 1 
1 1 1 1 1 1 1 1 1 
1 1 1 1 1 1 1 1 1 
1 1 1 1 1 1 1 1 1 
1 1 1 1 1 1 1 1 1 
1 1 1 1 1 1 1 1 1 
1 1 1 1 1 1 1 1 1 
1 1 1 1 1 1 1 1 1 
1 1 1 1 1 1 1 1 1 
1 1 1 1 1 1 1 1 1 
1 1 1 1 1 1 1 1 1 
1 1 1 1 1 1 1 1 1 
1 1 1 1 1 1 1 1 1 
1 1 1 1 1 1 1 1 1 
1 1 1 1 1 1 1 1 1 
1 1 1 1 1 1 1 1 1 
1 1 1 1 1 1 1 1 1 
1 1 1 1 1 1 1 1 1 
1 1 1 1 1 1 1 1 1 
1 1 1 1 1 1 1 1 1 
1 1 1 1 1 1 1 1 1 
1 1 1 1 1 1 1 1 1 
1 1 1 1 1 1 1 1 1 
1 1 1 1 1 1 1 1 1 
1 1 1 1 1 1 1 1 1 
1 1 1 1 1 1 1 1 1 
1 1 1 1 1 1 1 1 1 
1 1 1 1 1 1 1 1 1 
1 1 1 1 1 1 1 1 1 
1 1 1 1 1 1 1 1 1 
1 1 1 1 1 1 1 1 1 
1 1 1 1 1 1 1 1 1 
1 1 1 1 1 1 1 1 1 
1 1 1 1 1 1 1 1 1 
1 1 1 1 1 1 1 1 1 
1 1 1 1 1 1 1 1 1 
1 1 1 1 1 1 1 1 1 
1 1 1 1 1 1 1 1 1 
1 1 1 1 1 1 1 1 1 
1 1 1 1 1 1 1 1 1 
1 1 1 1 1 1 1 1 1 
1 1 1 1 1 1 1 1 1 
1 1 1 1 1 1 1 1 1 
1 1 1 1 1 1 1 1 1 
1 1 1 1 1 1 1 1 1 
1 1 1 1 1 1 1 1 1 
1 1 1 1 1 1 1 1 1 
1 1 1 1 1 1 1 1 1 
1 1 1 1 1 1 1 1 1 
1 1 1 1 1 1 1 1 1 
1 1 1 1 1 1 1 1 1 
1 1 1 1 1 1 1 1 1 
1 1 1 1 1 1 1 1 1 
1 1 1 1 1 1 1 1 1 
1 1 1 1 1 1 1 1 1 
1 1 1 1 1 1 1 1 1 
1 1 1 1 1 1 1 1 1 
1 1 1 1 1 1 1 1 1 
1 1 1 1 1 1 1 1 1 
1 1 1 1 1 1 1 1 1 
1 1 1 1 1 1 1 1 1 
1 1 1 1 1 1 1 1 1 
1 1 1 1 1 1 1 1 1 
1 1 1 1 1 1 1 1 1 
1 1 1 1 1 1 1 1 1 
1 1 1 1 1 1 1 1 1 
1 1 1 1 1 1 1 1 1 
1 1 1 1 1 1 1 1 1 
1 1 1 1 1 1 1 1 1 
1 1 1 1 1 1 1 1 1 
1 1 1 1 1 1 1 1 1 
1 1 1 1 1 1 1 1 1 
1 1 1 1 1 1 1 1 1 
1 1 1 1 1 1 1 1 1 
1 1 1 1 1 1 1 1 1 
1 1 1 1 1 1 1 1 1 
1 1 1 1 1 1 1 1 1 
1 1 1 1 1 1 1 1 1 
1 1 1 1 1 1 1 1 1 
1 1 1 1 1 1 1 1 1 
1 1 1 1 1 1 1 1 1 
1 1 1 1 1 1 1 1 1 
1 1 1 1 1 1 1 1 1 
1 1 1 1 1 1 1 1 1 
1 1 1 1 1 1 1 1 1 
1 1 1 1 1 1 1 1 1 
1 1 1 1 1 1 1 1 1 
1 1 1 1 1 1 1 1 1 
1 1 1 1 1 1 1 1 1 
1 1 1 1 1 1 1 1 1 
1 1 1 1 1 1 1 1 1 
1 1 1 1 1 1 1 1 1 
1 1 1 1 1 1 1 1 1 
1 1 1 1 1 1 1 1 1 
1 1 1 1 1 1 1 1 1 
1 1 1 1 1 1 1 1 1 
1 1 1 1 1 1 1 1 1 
1 1 1 1 1 1 1 1 1 
1 1 1 1 1 1 1 1 1 
1 1 1 1 1 1 1 1 1 
1 1 1 1 1 1 1 1 1 
1 1 1 1 1 1 1 1 1 
1 1 1 1 1 1 1 1 1 
1 1 1 1 1 1 1 1 1 
1 1 1 1 1 1 1 1 1 
1 1 1 1 1 1 1 1 1 
1 1 1 1 1 1 1 1 1 
1 1 1 1 1 1 1 1 1 
1 1 1 1 1 1 1 1 1 
1 1 1 1 1 1 1 1 1 
1 1 1 1 1 1 1 1 1 
1 1 1 1 1 1 1 1 1 
1 1 1 1 1 1 1 1 1 
1 1 1 1 1 1 1 1 1 
1 1 1 1 1 1 1 1 1 
1 1 1 1 1 1 1 1 1 
1 1 1 1 1 1 1 1 1 
1 1 1 1 1 1 1 1 1 
1 1 1 1 1 1 1 1 1 
1 1 1 1 1 1 1 1 1 
1 1 1 1 1 1 1 1 1 
1 1 1 1 1 1 1 1 1 
1 1 1 1 1 1 1 1 1 
1 1 1 1 1 1 1 1 1 
1 1 1 1 1 1 1 1 1 
1 1 1 1 1 1 1 1 1 
1 1 1 1 1 1 1 1 1 
1 1 1 1 1 1 1 1 1 
1 1 1 1 1 1 1 1 1 
1 1 1 1 1 1 1 1 1 
1 1 1 1 1 1 1 1 1 
1 1 1 1 1 1 1 1 1 
1 1 1 1 1 1 1 1 1 
1 1 1 1 1 1 1 1 1 
1 1 1 1 1 1 1 1 1 
1 1 1 1 1 1 1 1 1 
1 1 1 1 1 1 1 1 1 
1 1 1 1 1 1 1 1 1 
1 1 1 1 1 1 1 1 1 
1 1 1 1 1 1 1 1 1 
1 1 1 1 1 1 1 1 1 
1 1 1 1 1 1 1 1 1 
1 1 1 1 1 1 1 1 1 
1 1 1 1 1 1 1 1 1 
1 1 1 1 1 1 1 1 1 
1 1 1 1 1 1 1 1 1 
1 1 1 1 1 1 1 1 1 
1 1 1 1 1 1 1 1 1 
1 1 1 1 1 1 1 1 1 
1 1 1 1 1 1 1 1 1 
1 1 1 1 1 1 1 1 1 
1 1 1 1 1 1 1 1 1 
1 1 1 1 1 1 1 1 1 
1 1 1 1 1 1 1 1 1 
1 1 1 1 1 1 1 1 1 
1 1 1 1 1 1 1 1 1 
1 1 1 1 1 1 1 1 1 
1 1 1 1 1 1 1 1 1 
1 1 1 1 1 1 1 1 1 
1 1 1 1 1 1 1 1 1 
1 1 1 1 1 1 1 1 1 
1 1 1 1 1 1 1 1 1 
1 1 1 1 1 1 1 1 1 
1 1 1 1 1 1 1 1 1 

NORMALS Normals float
0.0639679 0.0277032 -0.997567 -0.569015 -0.211278 -0.794722 0.548472 0.200077 -0.811879 
0.323002 -0.248601 -0.913163 0.501682 0.28401 -0.8171 0.405261 0.223514 -0.886456 
-0.471816 0.0677109 -0.879093 -0.714364 -0.0362137 -0.698836 0.0652834 0.153401 -0.986005 
-0.430567 0.217244 -0.876023 0.288973 -0.196544 -0.936945 -0.205699 -0.269489 -0.940778 
0.630396 0.306412 -0.713241 -0.566654 4.50263e-05 -0.823956 -0.043397 0.224719 -0.973457 
0.54111 0.338697 -0.76973 0.550423 0.407176 -0.728863 -0.692965 0.170567 -0.700504 
0.187253 0.512567 -0.83798 0.697815 0.00286753 -0.716272 0.0244431 -0.232961 -0.972179 
-0.521841 -0.360542 -0.773105 0.806854 0.144541 -0.572795 0.503585 -0.0611593 -0.861778 
0.770443 0.146467 -0.620455 0.864785 0.259604 -0.429828 -0.120854 0.490224 -0.863177 
0.433554 -0.253768 -0.864658 0.0675886 -0.415095 -0.907264 0.116677 -0.306427 -0.944716 
0.593957 -0.227217 -0.771743 0.17804 -0.294705 -0.938856 -0.224742 -0.355078 -0.90742 
-0.373853 -0.327301 -0.867818 0.825702 0.204075 -0.525898 -0.789032 -0.220463 -0.573432 
0.909945 0.268887 -0.315753 0.89009 0.373548 -0.261155 -0.823434 0.067617 -0.563369 
-0.942816 0.254885 -0.214781 0.124138 0.387803 -0.913345 0.863402 0.476005 -0.1672 
-0.717762 0.174173 -0.674152 -0.426855 0.853077 0.300091 0.597376 0.437764 -0.671941 
0.916633 0.397176 -0.045116 -0.705555 0.176755 -0.686258 0.796811 0.00174749 -0.604227 
0.914812 0.203925 -0.348616 0.910705 0.327337 -0.251925 -0.939365 0.0378495 -0.340823 
-0.971598 0.230371 -0.0541063 -0.687502 0.639481 0.344101 0.526453 0.674465 0.517633 
0.795834 0.546921 0.259857 0.0929968 -0.595603 -0.797878 0.249212 -0.498985 -0.830005 
-0.304193 -0.53793 -0.786192 -0.376261 -0.410965 -0.830382 -0.553072 -0.285363 -0.782738 
-0.84981 -0.155344 -0.503677 0.908263 0.3268 -0.261268 -0.953717 -0.00194617 -0.300699 
-0.982255 0.126549 -0.138424 -0.966467 0.082598 -0.243144 0.75485 0.485367 0.441157 
-0.705094 0.601815 0.375048 -0.200669 0.784399 0.586899 0.649685 0.614463 0.447598 
0.451009 -0.409696 -0.792931 0.384 -0.354603 -0.852526 0.612492 -0.316077 -0.724534 
0.863334 -0.123636 -0.489253 -0.561849 -0.404443 -0.721631 -0.398369 -0.511113 -0.761621 
-0.740487 -0.260369 -0.619586 0.879887 0.467588 0.0846206 -0.972183 0.233274 -0.0210796 
0.880264 0.448596 0.154586 -0.998122 -0.0128598 0.0598996 -0.822181 -0.500537 -0.271074 
-0.918867 -0.19625 -0.342302 0.634516 0.579259 0.511712 -0.806839 0.477988 0.347186 
0.34466 0.594947 0.726118 0.184908 0.727668 0.660536 0.249321 0.705364 0.663551 
0.587193 0.474777 0.655584 -0.98648 0.124868 -0.106136 0.229505 -0.449779 -0.863149 
-0.0345002 -0.523368 -0.851408 0.881905 0.0454923 -0.469228 -0.967263 0.253666 0.00742445 
-0.921289 0.208061 -0.328539 -0.808185 0.458673 0.369399 -0.517298 -0.158169 -0.841062 
-0.0150588 0.988269 0.151976 0.997084 -0.016907 -0.0744125 0.204212 0.701239 0.683053 
-0.966816 -0.00565098 -0.255412 -0.791984 0.46274 0.398288 0.79518 0.273805 0.541035 
0.610318 0.438713 0.659578 -0.870001 0.439231 0.223996 -0.0712168 0.743418 0.665024 
0.472513 0.567025 0.674695 -0.522006 -0.51995 -0.676137 0.954968 -0.010761 -0.296513 
-0.843084 -0.329366 -0.42512 -0.954824 0.101742 -0.279212 -0.961446 0.169146 -0.216819 
-0.61299 0.614487 0.496637 0.0163117 0.697929 0.715981 0.460117 0.699406 0.546922 
0.0229534 0.702644 0.711172 0.707593 0.493594 0.505646 0.494871 -0.463632 -0.734947 
-0.462038 -0.547907 -0.697366 0.710753 -0.307109 -0.632862 0.960487 0.125304 -0.248523 
-0.926301 -0.0540586 -0.372885 0.885905 0.463738 0.0109361 -0.98031 0.0655484 -0.186267 
-0.92459 0.372664 -0.0790853 -0.765957 0.568576 0.300052 -0.165828 0.770559 0.615418 
-0.139425 0.737028 0.661325 0.432002 0.718239 0.545442 0.128912 -0.531819 -0.836989 
-0.933269 -0.222449 -0.282002 -0.970464 0.239422 0.0296105 -0.880452 0.45394 0.136903 
0.703199 0.665646 0.249851 -0.604219 0.727744 0.324511 0.574169 0.727746 0.375121 
0.391377 -0.421406 -0.818072 -0.161885 -0.569448 -0.805929 0.637219 -0.307151 -0.706831 
-0.284159 -0.56963 -0.771217 0.830227 -0.302299 -0.468336 0.86547 -0.130418 -0.483686 
0.878609 -0.0497886 -0.47494 0.920988 0.389503 -0.00831448 -0.96991 -0.0428492 -0.239664 
-0.987469 0.109742 -0.113413 -0.908103 0.373403 0.189523 -0.801435 0.479828 0.357025 
0.685394 0.681359 0.256874 -0.416179 0.787968 0.453763 -0.379086 0.739216 0.556645 
0.15949 0.803076 0.574136 0.119787 -0.548957 -0.827223 0.525137 -0.296851 -0.797565 
0.678374 -0.207406 -0.704834 0.71899 -0.179585 -0.671419 0.919241 -0.24077 -0.31149 
0.967049 0.208681 -0.145835 -0.770301 -0.334152 -0.54312 -0.851536 0.49178 0.181767 
0.718157 0.656822 0.22986 -0.914028 0.379089 0.144376 -0.432879 0.733814 0.523577 
-0.0504338 0.793539 0.606426 0.393212 0.782925 0.482092 0.294039 -0.481629 -0.825575 
0.843155 -0.172924 -0.509105 0.853421 -0.0918433 -0.513067 -0.925031 0.347763 0.1529 
-0.950323 0.306284 0.0554652 -0.691816 0.510533 0.510634 0.662148 0.660376 0.354208 
-0.308093 0.7589 0.573716 0.0864572 0.827836 0.554268 -0.028683 0.839698 0.542295 
0.339597 -0.280489 -0.897775 0.258009 -0.546799 -0.796518 -0.0954296 -0.607674 -0.788433 
0.760343 -0.410935 -0.503001 0.161073 -0.488063 -0.857817 0.233326 -0.641515 -0.730765 
0.689301 -0.188247 -0.699591 0.836118 -0.116085 -0.536126 0.929332 -0.0137349 -0.368988 
0.969347 0.0675986 -0.236212 -0.720568 -0.35016 -0.598474 -0.980417 0.131103 -0.146948 
-0.362653 0.646291 0.67141 0.0771779 0.747236 0.660062 0.162267 -0.559373 -0.812878 
-0.0494582 -0.387882 -0.920381 0.403123 -0.776757 -0.48388 0.473042 -0.448725 -0.758207 
0.796148 -0.227067 -0.560882 0.520117 -0.301517 -0.799103 0.39027 -0.492519 -0.777891 
0.66852 -0.246837 -0.701535 -0.117507 -0.568428 -0.814298 0.593083 -0.207225 -0.778017 
0.770383 -0.117302 -0.626698 -0.892971 -0.227254 -0.388533 -0.940739 -0.139491 -0.309115 
-0.94503 0.318226 -0.0751703 -0.828122 0.495928 0.261282 -0.853796 0.477482 0.207466 
-0.552401 0.663507 0.50459 0.391474 0.77716 0.492717 0.306406 -0.455314 -0.835946 
0.735779 -0.0612923 -0.674442 -0.993968 0.109593 0.00405735 -0.975963 0.165482 -0.141818 
-0.967226 0.242296 0.0759416 -0.964435 0.260448 0.0450722 -0.93581 0.313902 -0.16039 
-0.79316 0.595154 0.129188 0.272587 0.787143 0.553265 -0.423478 0.706679 0.566809 
-0.185614 0.767006 0.614205 0.0113199 0.820841 0.571044 0.287914 -0.410286 -0.865315 
0.694105 -0.128795 -0.708258 0.824473 0.048017 -0.56386 -0.996026 -0.0693501 -0.0558855 
-0.99706 0.0275786 -0.0714932 -0.931889 -0.000505793 -0.362742 -0.930812 0.361127 -0.0563647 
-0.871135 0.39406 0.292987 -0.959888 0.263931 0.0946347 -0.903651 0.283871 0.320675 
0.610007 0.725962 0.3176 -0.736228 0.586488 0.337639 0.680654 0.699824 0.216693 
-0.168199 0.815873 0.553227 0.249571 0.861947 0.441318 0.516417 -0.198859 -0.832928 
-0.171719 -0.556726 -0.812754 -0.536541 -0.490684 -0.686551 -0.915146 -0.238964 -0.324661 
-0.965967 0.196885 0.167759 -0.99828 -0.0158758 0.056433 -0.892645 0.246016 0.377706 
-0.732125 0.550399 0.401316 0.844621 0.531766 0.0619746 -0.833236 0.461471 0.304568 
-0.495054 0.748384 0.441409 0.0181862 0.848315 0.529179 0.442821 0.766048 0.465918 
0.473823 -0.143413 -0.868864 0.627314 -0.0029684 -0.778761 0.647523 0.153808 -0.746362 
0.683407 0.0847495 -0.725101 -0.391485 -0.489301 -0.77931 0.926905 0.151507 -0.343355 
-0.999815 0.0160049 0.0106377 -0.832855 0.132666 0.537357 -0.844028 0.321109 0.429541 
-0.638518 0.454085 0.621371 -0.711844 0.534108 0.456077 -0.258754 0.778854 0.571343 
0.234687 0.786619 0.571097 0.65382 0.143803 -0.742859 -0.00149539 -0.613096 -0.790007 
0.807552 0.247163 -0.535509 -0.406195 -0.664278 -0.627487 0.821516 0.161826 -0.546739 
0.933905 0.129912 -0.333083 -0.899954 -0.279086 -0.334953 0.922962 0.384727 0.0112425 
-0.821639 0.392991 0.412877 -0.724942 0.179 0.665145 0.171783 -0.854697 -0.489881 
-0.670207 0.395566 -0.627974 0.478624 0.617613 -0.624078 0.670207 -0.395566 0.627974 
-0.171783 0.854697 0.489881 0.471112 -0.187046 -0.862013 0.0666259 -0.574397 -0.815861 
0.713404 0.0706516 -0.697182 -0.770294 -0.405521 -0.492138 0.946072 0.313192 -0.0828194 
-0.920286 0.24456 0.305393 -0.478624 -0.617613 0.624078 0.57089 0.0395916 -0.820071 
-0.0321655 -0.613965 -0.788677 0.714047 0.282515 -0.640564 0.761804 0.17936 -0.622483 
0.689837 0.166377 -0.704588 0.77663 0.220911 -0.589953 0.830067 0.350566 -0.433695 
-0.671367 -0.462326 -0.579242 -0.866126 -0.204967 -0.455867 -0.977202 -0.178295 -0.115268 
-0.999654 -0.0262887 -0.000684171 -0.941319 0.253403 0.222948 -0.602671 0.555192 0.573192 
0.079049 0.851763 0.517929 0.434615 -0.261222 -0.861901 0.565131 -0.213807 -0.796815 
0.531882 -0.189086 -0.825438 -0.0570741 -0.537079 -0.841599 0.765204 0.413615 -0.493342 
-0.940152 -0.308507 -0.144698 -0.920509 0.23966 0.308588 -0.722093 0.524952 0.450564 
0.484287 0.803591 0.345987 0.263767 0.873468 0.409245 0.25393 0.84902 0.46334 
0.531441 -0.183883 -0.826896 0.156796 -0.533519 -0.831127 -0.0602008 -0.412408 -0.909008 
0.725948 -0.189078 -0.661248 0.70934 0.0644517 -0.701914 0.302162 -0.444516 -0.84327 
0.837635 -0.0175877 -0.545947 0.741992 -0.290991 -0.603964 0.61422 -0.0750594 -0.785557 
0.840075 0.0993737 -0.533291 0.647337 0.308755 -0.696868 0.878136 0.397263 -0.26657 
0.854304 0.438211 -0.279527 -0.86674 0.389834 0.311114 0.706928 0.655366 0.265986 
0.204486 -0.569204 -0.796362 0.708616 -0.204089 -0.675433 0.374844 -0.282178 -0.883101 
0.693253 0.0280685 -0.720148 0.786373 0.147184 -0.599962 0.932509 0.162692 -0.322425 
-0.479364 -0.5376 -0.693684 0.811416 0.357462 -0.462413 -0.997341 -0.0544283 0.0484614 
-0.720006 0.506471 0.474425 -0.263195 0.788014 0.556563 0.184827 -0.53835 -0.822203 
0.339304 -0.287352 -0.895713 0.633195 -0.135032 -0.762122 0.754099 0.045916 -0.655153 
0.890581 0.36582 -0.270261 0.753689 0.529642 -0.389142 0.886079 0.447686 -0.120175 
0.921878 0.382507 -0.0618834 0.644416 -0.310787 -0.698669 0.823909 0.233881 -0.516211 
-0.713224 -0.502039 -0.489151 -0.873155 -0.339693 -0.349583 -0.158165 0.851113 0.50059 
0.167761 -0.564971 -0.807876 0.36596 -0.506846 -0.7805 0.304176 -0.453851 -0.837554 
-0.286656 -0.407022 -0.867272 0.728194 -0.220703 -0.648863 0.79877 0.103717 -0.592628 
-0.471459 -0.540828 -0.696585 -0.783871 -0.470096 -0.405655 0.828123 0.477011 -0.294403 
0.866919 0.494722 -0.0608442 -0.995009 -0.0683821 0.0726722 -0.954815 0.168156 0.245054 
-0.165808 0.848878 0.50191 -0.393839 -0.485923 -0.780237 -0.473133 -0.429311 -0.769309 
-0.62416 -0.460565 -0.631113 0.882963 0.208552 -0.420573 -0.917096 -0.299353 -0.263293 
-0.995978 -0.0412655 0.0795356 -0.795328 0.436908 0.420197 0.627283 0.726385 0.280859 
0.0328034 -0.533183 -0.845364 0.728456 -0.190759 -0.657999 0.86204 0.259312 -0.435482 
-0.844063 -0.39727 -0.360186 0.86304 0.390064 -0.320956 0.7847 0.615268 -0.0754367 
0.853277 0.520989 0.0220853 -0.971306 0.131551 0.19814 -0.877605 0.333968 0.343912 
-0.563548 0.650083 0.509712 -0.242983 0.828566 0.504418 0.160027 0.888456 0.430159 
-0.553337 -0.437362 -0.708896 0.815798 0.244607 -0.524063 0.793303 0.434131 -0.42685 
0.815291 0.565625 -0.123973 -0.913455 0.2966 0.278617 -0.869451 0.314784 0.380744 
-0.712837 0.587447 0.383104 -0.724271 0.527304 0.444277 -0.308872 -0.412326 -0.85708 
0.135437 -0.473143 -0.870513 -0.714894 -0.416007 -0.562018 -0.714865 -0.451665 -0.533823 
-0.758729 -0.468041 -0.453064 0.801235 -0.146084 -0.580243 0.821641 0.515022 -0.244251 
-0.500592 0.71875 0.482501 -0.0818263 0.868923 0.488136 -0.464745 -0.288931 -0.836977 
0.114269 -0.385487 -0.91561 -0.897579 -0.297451 -0.325383 -0.850893 -0.453231 -0.265637 
-0.893847 -0.399507 -0.20355 -0.939883 -0.278051 -0.198263 -0.960514 -0.263601 -0.0890365 
0.228883 0.842843 0.487062 -0.366987 -0.41374 -0.833151 -0.0681662 -0.260255 -0.963131 
-0.245328 -0.245221 -0.937913 0.878036 0.365705 -0.308727 0.728238 0.672842 0.130204 
0.925729 0.377522 0.022435 0.880823 0.466486 -0.0808779 -0.975584 -0.205901 0.0764176 
-0.74039 0.491925 0.458074 -0.201196 0.805772 0.557002 -0.414617 -0.50606 -0.756304 
-0.119746 -0.384615 -0.915277 -0.132339 -0.422219 -0.896782 0.0509149 -0.274976 -0.960102 