# vtk DataFile Version 4.2
vtk output
ASCII
DATASET POLYDATA
POINTS 2786 float
424.951 150.372 133.722 424.928 150.274 133.763 424.972 150.456 133.746 
425.106 149.965 133.91 424.92 150.707 133.805 424.71 151.549 133.95 
424.097 153.469 134.346 424.102 153.253 134.351 424.198 153.35 134.328 
424.088 153.617 134.378 426.154 145.95 134.812 426.017 146.057 134.794 
424.969 151.714 134.155 424.235 152.772 134.288 424.5 152.306 134.148 
424.434 152.939 134.312 424.14 153.724 134.426 423.931 154.104 134.59 
423.928 154.277 134.662 426.734 146.423 135.281 425.315 148.442 134.394 
424.861 148.665 134.465 426.396 147.381 134.979 425.555 149.166 134.353 
425.382 150.504 134.2 425.276 151.309 134.359 423.843 154.506 134.82 
427.639 140.774 136.776 427.582 140.415 136.891 427.188 141.408 136.46 
427.849 140.922 136.879 427.238 142.214 136.206 426.485 143.431 135.721 
426.404 144.479 135.383 426.264 148.56 135.111 424.062 149.322 134.997 
426.327 148.856 135.389 425.183 151.858 134.682 423.613 154.798 135.088 
423.597 155.061 135.151 423.711 154.858 135.003 423.896 154.585 134.969 
423.639 155.083 135.076 423.619 155.11 135.148 423.671 155.072 135.062 
423.728 154.952 135.105 423.642 155.136 135.086 427.612 143.408 136.277 
426.899 147.482 135.894 426.189 149.676 135.803 423.424 152.777 135.531 
423.489 154.745 135.46 423.562 154.949 135.331 423.646 155.048 135.209 
423.657 155.106 135.11 427.755 139.267 137.534 428.041 138.996 137.788 
426.92 139.938 137.258 426.272 141.347 136.725 425.225 143.611 136.332 
423.357 149.225 136.197 426.836 148.262 136.486 423.228 151.579 136.032 
423.156 152.442 136.439 423.374 154.064 135.811 424.26 153.69 135.727 
423.47 154.608 135.714 423.564 154.827 135.54 423.686 154.907 135.391 
428.69 136.128 139.365 428.636 136.988 138.946 428.821 136.555 139.261 
428.862 137.998 138.804 426.058 140.168 137.522 424.105 144.207 137.145 
426.18 149.898 137.042 423.139 152.556 136.949 425.141 151.968 136.246 
423.27 153.13 136.887 423.233 153.217 137.123 423.185 153.483 136.953 
424.269 153.196 136.337 423.193 153.651 136.9 423.252 153.924 136.688 
423.387 154.217 136.244 423.551 154.593 135.791 423.598 154.277 136.057 
423.271 154.051 136.574 428.465 135.967 139.363 428.276 135.802 139.447 
422.797 151.862 138.347 422.954 152.024 137.492 422.953 152.483 137.999 
423.052 152.625 137.555 423.3 152.636 137.545 423.168 152.967 137.436 
423.542 153.072 137.095 423.069 153.05 137.427 423.026 152.914 137.667 
423.22 153.328 137.166 423.469 153.527 136.81 423.058 153.11 137.485 
423.13 153.309 137.271 423.279 153.71 136.837 429.453 140.137 139.521 
422.711 143.777 139.458 422.111 148.825 139.232 422.031 148.945 139.648 
422.685 151.158 139.078 423.063 152.734 137.842 423.204 152.349 138.186 
423.065 153.052 137.557 423.121 153.055 137.5 428.931 134.395 140.689 
427.351 135.276 140.257 429.703 140.901 140.644 422.011 145.15 140.227 
428.443 145.181 140.492 422.139 149.509 140.337 422.477 150.343 139.895 
423.082 151.092 139.65 423.186 151.462 139.267 424.104 151.51 138.887 
429.197 132.15 142.194 421.507 144.938 141.597 422.018 149.206 141.14 
425.913 148.811 140.877 422.131 149.43 140.891 424.893 150.126 140.146 
429.826 130.375 143.43 428.591 131.387 142.697 430.066 131.929 142.808 
430.659 133.035 142.96 430.455 136.019 141.796 429.107 143.507 142.333 
421.265 145.091 142.45 421.981 148.555 141.835 422.017 149.112 141.322 
425.955 148.356 141.712 422.099 149.28 141.192 429.716 129.615 143.833 
430.896 130.708 144.018 430.982 131.581 143.867 430.967 133.869 143.214 
421.916 140.583 142.64 421.5 146.74 143.703 426.888 147.337 142.024 
422.131 149.091 141.459 425.221 148.509 142.358 431.244 129.736 144.707 
431.379 130.014 144.745 431.361 132.281 144.344 421.31 146 144.462 
421.39 146.409 144.235 421.408 146.407 144.356 427 146.379 143.872 
422.853 147.697 143.924 424.114 148.317 143.282 423.782 148.334 143.287 
431.44 127.157 145.883 431.463 127.038 145.93 431.387 127.05 145.931 
431.51 127.048 145.965 431.17 127.368 145.743 431.341 126.81 146.176 
431.495 127.407 145.866 431.507 128.48 145.481 431.574 130.705 144.886 
431.735 131.252 145.17 431.308 135.715 144.452 422.34 136.089 144.909 
430.649 139.355 144.606 420.309 142.742 145.85 422.528 147.283 144.323 
423.98 147.653 144.222 430.775 125.651 146.812 430.406 125.754 146.711 
431.467 126.974 146.008 431.575 126.122 146.836 431.888 126.981 146.59 
431.692 125.117 147.53 429.439 124.982 147.357 432.416 126.724 147.346 
420.988 136.84 146.631 420.072 139.172 147.457 420.181 142.473 147.181 
420.478 143.175 147.135 420.759 143.765 146.875 421.415 144.681 146.661 
426.049 145.815 146.129 433.382 123.231 149.43 419.701 139.436 149.064 
419.936 141.783 147.577 419.966 141.778 147.931 420.042 142.277 147.824 
420.047 142.229 147.723 420.149 142.415 147.787 425.708 144.971 147.641 
422.327 145.285 146.738 423.478 145.016 147.614 435.142 121.205 151.203 
419.62 138.952 149.781 419.756 140.856 148.945 419.729 141.063 148.969 
419.846 141.258 148.772 420.054 142.272 147.893 419.72 141.099 149.005 
420.104 142.202 148.07 428.976 141.991 149.016 420.608 143.005 147.917 
428.077 143.251 148.26 422.941 144.117 148.684 426.12 144.155 148.819 
433.429 120.094 150.842 434.803 120.198 151.299 429.944 120.946 150.334 
423.996 127.133 149.357 420.144 134.807 149.934 419.637 138.961 149.939 
419.703 138.433 150.404 420.091 140.332 150.251 419.96 141.187 149.257 
430.222 140.057 149.939 420.215 142.223 148.362 422.035 142.998 149.678 
425.499 143.689 149.907 427.02 143.541 149.185 436.477 118.237 152.678 
436.867 118.788 152.86 436.878 119.376 152.903 436.252 120.009 152.385 
435.902 121.328 152.032 420.709 141.127 150.828 420.644 141.082 150.702 
420.74 141.204 150.823 420.738 141.252 150.779 422.658 142.748 150.552 
425.884 143.382 150.274 438.264 116.833 154.008 433.431 117.456 152.366 
437.698 118.344 153.573 437.28 119.459 153.374 427.644 120.465 151.612 
420.812 141.112 150.94 422.004 142.013 152.009 422.004 142.013 152.009 
422.004 142.013 152.009 422.004 142.013 152.009 422.004 142.013 152.009 
438.775 115.447 154.567 436.437 115.873 153.546 439.117 116.21 154.764 
437.718 119.106 153.863 422.004 142.013 152.009 440.674 113.847 155.913 
435.839 114.643 154.134 440.865 114.529 156.218 439.645 115.93 155.304 
440.113 115.493 155.691 438.951 116.931 154.704 439.04 117.213 154.984 
419.893 134.957 153.984 431.387 137.429 153.674 422.567 140.079 153.845 
426.519 141.1 153.683 441.534 111.828 156.707 441.929 111.795 156.995 
441.966 112.383 156.902 440.803 115.018 156.373 438.02 119.728 155.004 
435.896 125.18 154.606 428.514 139.818 154.822 426.864 140.6 154.405 
427.503 140.288 154.698 443.195 109.336 158.339 443.153 109.231 158.369 
443.062 109.424 158.273 443.301 109.251 158.468 443.185 109.479 158.339 
440.755 110.765 156.826 442.339 111.969 157.358 442.212 112.313 157.093 
442.156 112.389 157 442.219 112.403 157.069 442.147 112.48 157.025 
427.112 114.789 156.226 423.351 118.33 157.104 439.076 118.433 156.317 
430.226 138.079 155.959 443.227 109.024 158.538 443.456 109.019 158.722 
442.802 109.952 158.086 442.28 112.451 157.245 442.136 113.464 157.621 
425.998 113.802 157.872 441.648 114.543 157.595 424.891 139.571 156.008 
443.249 108.493 158.896 444.286 107.87 159.809 444.532 108.795 159.717 
444.298 109.724 159.481 438.69 119.744 158.29 434.535 130.996 157.635 
445.056 107.596 160.542 444.387 110.522 159.913 425.089 113.097 159.753 
423.702 115.715 159.402 423.37 116.242 159.564 420.242 127.656 158.001 
420.751 132.355 159.248 424.907 138.11 158.322 443.194 106.352 160.102 
445.47 107.613 160.915 445.156 109.136 160.47 443.538 112.265 159.698 
424.977 112.359 160.748 422.387 118.266 159.942 426.083 137.48 159.706 
432.262 104.553 161.055 424.244 113.357 161.259 443.532 112.906 161.337 
421.034 122.672 161.279 433.979 132.219 160.512 421.819 132.866 161.263 
430.978 135.881 160.391 437.726 103.993 160.881 446.994 107.732 163.166 
446.412 108.922 162.738 425.513 110.172 162.186 421.593 120.104 161.862 
438.683 119.917 161.576 420.666 125.933 161.549 435.663 128.942 162.023 
422.928 134.144 161.752 426.054 136.196 161.695 429.175 136.466 161.176 
430.189 99.9234 164.441 445.88 103.428 163.228 447.429 107.164 163.679 
447.662 107.304 164.149 447.577 107.749 164.342 445.851 110.3 163.451 
443.116 113.61 162.633 422.508 132.529 162.929 440.856 98.8459 163.919 
427.861 103.032 164.584 448.187 105.124 164.707 422.843 115.528 163.507 
422.743 115.637 164.218 421.076 127.842 163.448 433.172 132.98 163.352 
424.84 133.92 164.268 428.138 135.323 163.655 447.511 108.38 165.348 
446.258 110.028 165.475 441.062 115.893 164.739 431.785 134.021 164.2 
449.346 105.485 166.461 433.839 89.6527 168.227 441.483 92.5811 166.872 
449.578 104.929 166.976 449.332 105.967 167.282 449.455 105.59 167.006 
431.912 133.2 166.304 446.873 93.7197 168.25 450.201 103.564 168.184 
450.482 103.025 168.627 425.23 106.035 167.99 449.455 105.981 168.052 
449.368 106.233 167.975 445.565 110.487 167.225 437.627 87.4656 168.608 
448.43 93.6797 169.149 449.922 95.4374 169.627 450.556 103.842 169.311 
450.526 104.115 169.77 447.016 108.497 169.066 443.319 112.236 168.206 
437.72 124.896 168.626 431.623 132.648 168.09 436.016 82.2992 171.5 
436.883 83.3303 170.695 429.967 93.4023 169.323 450.513 104.309 170.501 
438.475 122.078 170.012 423.002 128.011 169.613 436.557 80.6413 172.309 
437.381 80.3638 172.194 440.52 82.4552 171.051 448.238 87.127 171.682 
427.442 97.4798 170.543 451.343 98.6372 170.253 451.932 100.354 171.17 
449.47 105.578 170.823 448.067 107.101 170.333 442.574 108.175 172.699 
442.488 108.447 172.629 442.685 108.703 172.421 421.969 117.798 170.893 
421.511 121.668 170.075 424.408 128.882 171.192 435.813 128.674 171.096 
434.469 82.9406 172.245 449.54 88.417 171.97 449.333 105.489 171.699 
[...]
POINT_DATA 2786
SCALARS scalars float
LOOKUP_TABLE default
1 1 1 1 1 1 1 1 1 
1 1 1 1 1 1 1 1 1 
1 1 1 1 1 1 1 1 1 
1 1 1 1 1 1 1 1 1 
1 1 1 1 1 1 1 1 1 
1 1 1 1 1 1 1 1 1 
1 1 1 1 1 1 1 1 1 
1 1 1 1 1 1 1 1 1 
1 1 1 1 1 1 1 1 1 
1 1 1 1 1 1 1 1 1 
1 1 1 1 1 1 1 1 1 
1 1 1 1 1 1 1 1 1 
1 1 1 1 1 1 1 1 1 
1 1 1 1 1 1 1 1 1 
1 1 1 1 1 1 1 1 1 
1 1 1 1 1 1 1 1 1 
1 1 1 1 1 1 1 1 1 
1 1 1 1 1 1 1 1 1 
1 1 1 1 1 1 1 1 1 
1 1 1 1 1 1 1 1 1 
1 1 1 1 1 1 1 1 1 
1 1 1 1 1 1 1 1 1 
1 1 1 1 1 1 1 1 1 
1 1 1 1 1 1 1 1 1 
1 1 1 1 1 1 1 1 1 
1 1 1 1 1 1 1 1 1 
1 1 1 1 1 1 1 1 1 
1 1 1 1 1 1 1 1 1 
1 1 1 1 1 1 1 1 1 
1 1 1 1 1 1 1 1 1 
1 1 1 1 1 1 1 1 1 
1 1 1 1 1 1 1 1 1 
1 1 1 1 1 1 1 1 1 
1 1 1 1 1 1 1 1 1 
1 1 1 1 1 1 1 1 1 
1 1 1 1 1 1 1 1 1 
1 1 1 1 1 1 1 1 1 
1 1 1 1 1 1 1 1 1 
1 1 1 1 1 1 1 1 1 
1 1 1 1 1 1 1 1 1 
1 1 1 1 1 1 1 1 1 
1 1 1 1 1 1 1 1 1 
1 1 1 1 1 1 1 1 1 
1 1 1 1 1 1 1 1 1 
1 1 1 1 1 1 1 1 1 
1 1 1 1 1 1 1 1 1 
1 1 1 1 1 1 1 1 1 
1 1 1 1 1 1 1 1 1 
1 1 1 1 1 1 1 1 1 
1 1 1 1 1 1 1 1 1 
1 1 1 1 1 1 1 1 1 
1 1 1 1 1 1 1 1 1 
1 1 1 1 1 1 1 1 1 
1 1 1 1 1 1 1 1 1 
1 1 1 1 1 1 1 1 1 
1 1 1 1 1 1 1 1 1 
1 1 1 1 1 1 1 1 1 
1 1 1 1 1 1 1 1 1 
1 1 1 1 1 1 1 1 1 
1 1 1 1 1 1 1 1 1 
1 1 1 1 1 1 1 1 1 
1 1 1 1 1 1 1 1 1 
1 1 1 1 1 1 1 1 1 
1 1 1 1 1 1 1 1 1 
1 1 1 1 1 1 1 1 1 
1 1 1 1 1 1 1 1 1 
1 1 1 1 1 1 1 1 1 
1 1 1 1 1 1 1 1 1 
1 1 1 1 1 1 1 1 1 
1 1 1 1 1 1 1 1 1 
1 1 1 1 1 1 1 1 1 
1 1 1 1 1 1 1 1 1 
1 1 1 1 1 1 1 1 1 
1 1 1 1 1 1 1 1 1 
1 1 1 1 1 1 1 1 1 
1 1 1 1 1 1 1 1 1 
1 1 1 1 1 1 1 1 1 
1 1 1 1 1 1 1 1 1 
1 1 1 1 1 1 1 1 1 
1 1 1 1 1 1 1 1 1 
1 1 1 1 1 1 1 1 1 
1 1 1 1 1 1 1 1 1 
1 1 1 1 1 1 1 1 1 
1 1 1 1 1 1 1 1 1 
1 1 1 1 1 1 1 1 1 
1 1 1 1 1 1 1 1 1 
1 1 1 1 1 1 1 1 1 
1 1 1 1 1 1 1 1 1 
1 1 1 1 1 1 1 1 1 
1 1 1 1 1 1 1 1 1 
1 1 1 1 1 1 1 1 1 
1 1 1 1 1 1 1 1 1 
1 1 1 1 1 1 1 1 1 
1 1 1 1 1 1 1 1 1 
1 1 1 1 1 1 1 1 1 
1 1 1 1 1 1 1 1 1 
1 1 1 1 1 1 1 1 1 
1 1 1 1 1 1 1 1 1 
1 1 1 1 1 1 1 1 1 
1 1 1 1 1 1 1 1 1 
1 1 1 1 1 1 1 1 1 
1 1 1 1 1 1 1 1 1 
1 1 1 1 1 1 1 1 1 
1 1 1 1 1 1 1 1 1 
1 1 1 1 1 1 1 1 1 
1 1 1 1 1 1 1 1 1 
1 1 1 1 1 1 1 1 1 
1 1 1 1 1 1 1 1 1 
1 1 1 1 1 1 1 1 1 
1 1 1 1 1 1 1 1 1 
1 1 1 1 1 1 1 1 1 
1 1 1 1 1 1 1 1 1 
1 1 1 1 1 1 1 1 1 
1 1 1 1 1 1 1 1 1 
1 1 1 1 1 1 1 1 1 
1 1 1 1 1 1 1 1 1 
1 1 1 1 1 1 1 1 1 
1 1 1 1 1 1 1 1 1 
1 1 1 1 1 1 1 1 1 
1 1 1 1 1 1 1 1 1 
1 1 1 1 1 1 1 1 1 
1 1 1 1 1 1 1 1 1 
1 1 1 1 1 1 1 1 1 
1 1 1 1 1 1 1 1 1 
1 1 1 1 1 1 1 1 1 
1 1 1 1 1 1 1 1 1 
1 1 1 1 1 1 1 1 1 
1 1 1 1 1 1 1 1 1 
1 1 1 1 1 1 1 1 1 
1 1 1 1 1 1 1 1 1 
1 1 1 1 1 1 1 1 1 
1 1 1 1 1 1 1 1 1 
1 1 1 1 1 1 1 1 1 
1 1 1 1 1 1 1 1 1 
1 1 1 1 1 1 1 1 1 
1 1 1 1 1 1 1 1 1 
1 1 1 1 1 1 1 1 1 
1 1 1 1 1 1 1 1 1 
1 1 1 1 1 1 1 1 1 
1 1 1 1 1 1 1 1 1 
1 1 1 1 1 1 1 1 1 
1 1 1 1 1 1 1 1 1 
1 1 1 1 1 1 1 1 1 
1 1 1 1 1 1 1 1 1 
1 1 1 1 1 1 1 1 1 
1 1 1 1 1 1 1 1 1 
1 1 1 1 1 1 1 1 1 
1 1 1 1 1 1 1 1 1 
1 1 1 1 1 1 1 1 1 
1 1 1 1 1 1 1 1 1 
1 1 1 1 1 1 1 1 1 
1 1 1 1 1 1 1 1 1 
1 1 1 1 1 1 1 1 1 
1 1 1 1 1 1 1 1 1 
1 1 1 1 1 1 1 1 1 
1 1 1 1 1 1 1 1 1 
1 1 1 1 1 1 1 1 1 
1 1 1 1 1 1 1 1 1 
1 1 1 1 1 1 1 1 1 
1 1 1 1 1 1 1 1 1 
1 1 1 1 1 1 1 1 1 
1 1 1 1 1 1 1 1 1 
1 1 1 1 1 1 1 1 1 
1 1 1 1 1 1 1 1 1 
1 1 1 1 1 1 1 1 1 
1 1 1 1 1 1 1 1 1 
1 1 1 1 1 1 1 1 1 
1 1 1 1 1 1 1 1 1 
1 1 1 1 1 1 1 1 1 
1 1 1 1 1 1 1 1 1 
1 1 1 1 1 1 1 1 1 
1 1 1 1 1 1 1 1 1 
1 1 1 1 1 1 1 1 1 
1 1 1 1 1 1 1 1 1 
1 1 1 1 1 1 1 1 1 
1 1 1 1 1 1 1 1 1 
1 1 1 1 1 1 1 1 1 
1 1 1 1 1 1 1 1 1 
1 1 1 1 1 1 1 1 1 
1 1 1 1 1 1 1 1 1 
1 1 1 1 1 1 1 1 1 
1 1 1 1 1 1 1 1 1 
1 1 1 1 1 1 1 1 1 
1 1 1 1 1 1 1 1 1 
1 1 1 1 1 1 1 1 1 
1 1 1 1 1 1 1 1 1 
1 1 1 1 1 1 1 1 1 
1 1 1 1 1 1 1 1 1 
1 1 1 1 1 1 1 1 1 
1 1 1 1 1 1 1 1 1 
1 1 1 1 1 1 1 1 1 
1 1 1 1 1 1 1 1 1 
1 1 1 1 1 1 1 1 1 
1 1 1 1 1 1 1 1 1 
1 1 1 1 1 1 1 1 1 
1 1 1 1 1 1 1 1 1 
1 1 1 1 1 1 1 1 1 
1 1 1 1 1 1 1 1 1 
1 1 1 1 1 1 1 1 1 
1 1 1 1 1 1 1 1 1 
1 1 1 1 1 1 1 1 1 
1 1 1 1 1 1 1 1 1 
1 1 1 1 1 1 1 1 1 
1 1 1 1 1 1 1 1 1 
1 1 1 1 1 1 1 1 1 
1 1 1 1 1 1 1 1 1 
1 1 1 1 1 1 1 1 1 
1 1 1 1 1 1 1 1 1 
1 1 1 1 1 1 1 1 1 
1 1 1 1 1 1 1 1 1 
1 1 1 1 1 1 1 1 1 
1 1 1 1 1 1 1 1 1 
1 1 1 1 1 1 1 1 1 
1 1 1 1 1 1 1 1 1 
1 1 1 1 1 1 1 1 1 
1 1 1 1 1 1 1 1 1 
1 1 1 1 1 1 1 1 1 
1 1 1 1 1 1 1 1 1 
1 1 1 1 1 1 1 1 1 
1 1 1 1 1 1 1 1 1 
1 1 1 1 1 1 1 1 1 
1 1 1 1 1 1 1 1 1 
1 1 1 1 1 1 1 1 1 
1 1 1 1 1 1 1 1 1 
1 1 1 1 1 1 1 1 1 
1 1 1 1 1 1 1 1 1 
1 1 1 1 1 1 1 1 1 
1 1 1 1 1 1 1 1 1 
1 1 1 1 1 1 1 1 1 
1 1 1 1 1 1 1 1 1 
1 1 1 1 1 1 1 1 1 
1 1 1 1 1 1 1 1 1 
1 1 1 1 1 1 1 1 1 
1 1 1 1 1 1 1 1 1 
1 1 1 1 1 1 1 1 1 
1 1 1 1 1 1 1 1 1 
1 1 1 1 1 1 1 1 1 
1 1 1 1 1 1 1 1 1 
1 1 1 1 1 1 1 1 1 
1 1 1 1 1 1 1 1 1 
1 1 1 1 1 1 1 1 1 
1 1 1 1 1 1 1 1 1 
1 1 1 1 1 1 1 1 1 
1 1 1 1 1 1 1 1 1 
1 1 1 1 1 1 1 1 1 
1 1 1 1 1 1 1 1 1 
1 1 1 1 1 1 1 1 1 
1 1 1 1 1 1 1 1 1 
1 1 1 1 1 1 1 1 1 
1 1 1 1 1 1 1 1 1 
1 1 1 1 1 1 1 1 1 
1 1 1 1 1 1 1 1 1 
1 1 1 1 1 1 1 1 1 
1 1 1 1 1 1 1 1 1 
1 1 1 1 1 1 1 1 1 
1 1 1 1 1 1 1 1 1 
1 1 1 1 1 1 1 1 1 
1 1 1 1 1 1 1 1 1 
1 1 1 1 1 1 1 1 1 
1 1 1 1 1 1 1 1 1 
1 1 1 1 1 1 1 1 1 
1 1 1 1 1 1 1 1 1 
1 1 1 1 1 1 1 1 1 
1 1 1 1 1 1 1 1 1 
1 1 1 1 1 1 1 1 1 
1 1 1 1 1 1 1 1 1 
1 1 1 1 1 1 1 1 1 
1 1 1 1 1 1 1 1 1 
1 1 1 1 1 1 1 1 1 
1 1 1 1 1 1 1 1 1 
1 1 1 1 1 1 1 1 1 
1 1 1 1 1 1 1 1 1 
1 1 1 1 1 1 1 1 1 
1 1 1 1 1 1 1 1 1 
1 1 1 1 1 1 1 1 1 
1 1 1 1 1 1 1 1 1 
1 1 1 1 1 1 1 1 1 
1 1 1 1 1 1 1 1 1 
1 1 1 1 1 1 1 1 1 
1 1 1 1 1 1 1 1 1 
1 1 1 1 1 1 1 1 1 
1 1 1 1 1 1 1 1 1 
1 1 1 1 1 1 1 1 1 
1 1 1 1 1 1 1 1 1 
1 1 1 1 1 1 1 1 1 
1 1 1 1 1 1 1 1 1 
1 1 1 1 1 1 1 1 1 
1 1 1 1 1 1 1 1 1 
1 1 1 1 1 1 1 1 1 
1 1 1 1 1 1 1 1 1 
1 1 1 1 1 1 1 1 1 
1 1 1 1 1 1 1 1 1 
1 1 1 1 1 1 1 1 1 
1 1 1 1 1 1 1 1 1 
1 1 1 1 1 1 1 1 1 
1 1 1 1 1 1 1 1 1 
1 1 1 1 1 1 1 1 1 
1 1 1 1 1 1 1 1 1 
1 1 1 1 1 1 1 1 1 
1 1 1 1 1 1 1 1 1 
1 1 1 1 1 1 1 1 1 
1 1 1 1 1 1 1 1 1 
1 1 1 1 1 1 1 1 1 
1 1 1 1 1 1 1 1 1 
1 1 1 1 1 1 1 1 1 
1 1 1 1 1 1 1 1 1 
1 1 1 1 1 1 1 1 1 
1 1 1 1 1 1 1 1 1 
1 1 1 1 1 1 1 1 1 
1 1 1 1 1 
NORMALS Normals float
0.0639679 0.0277032 -0.997567 -0.569015 -0.211278 -0.794722 0.548472 0.200077 -0.811879 
0.323002 -0.248601 -0.913163 0.501682 0.28401 -0.8171 0.405261 0.223514 -0.886456 
-0.471816 0.0677109 -0.879093 -0.714364 -0.0362137 -0.698836 0.0652834 0.153401 -0.986005 
-0.430567 0.217244 -0.876023 0.288973 -0.196544 -0.936945 -0.205699 -0.269489 -0.940778 
0.630396 0.306412 -0.713241 -0.566654 4.50263e-05 -0.823956 -0.043397 0.224719 -0.973457 
0.54111 0.338697 -0.76973 0.550423 0.407176 -0.728863 -0.692965 0.170567 -0.700504 
0.187253 0.512567 -0.83798 0.697815 0.00286753 -0.716272 0.0244431 -0.232961 -0.972179 
-0.521841 -0.360542 -0.773105 0.806854 0.144541 -0.572795 0.503585 -0.0611593 -0.861778 
0.770443 0.146467 -0.620455 0.864785 0.259604 -0.429828 -0.120854 0.490224 -0.863177 
0.433554 -0.253768 -0.864658 0.0675886 -0.415095 -0.907264 0.116677 -0.306427 -0.944716 
0.603367 -0.222224 -0.765875 0.17804 -0.294705 -0.938856 -0.224742 -0.355078 -0.90742 
-0.373853 -0.327301 -0.867818 0.825702 0.204075 -0.525898 -0.789032 -0.220463 -0.573432 
0.909945 0.268887 -0.315753 0.89009 0.373548 -0.261155 -0.823434 0.067617 -0.563369 
-0.942816 0.254885 -0.214781 0.124138 0.387803 -0.913345 0.863402 0.476005 -0.1672 
-0.717762 0.174173 -0.674152 -0.426855 0.853077 0.300091 0.597376 0.437764 -0.671941 
0.916633 0.397176 -0.045116 -0.705555 0.176755 -0.686258 0.802064 0.0081925 -0.597181 
0.914812 0.203925 -0.348616 0.910705 0.327337 -0.251925 -0.939365 0.0378495 -0.340823 
-0.971598 0.230371 -0.0541063 -0.687502 0.639481 0.344101 0.526453 0.674465 0.517633 
0.795834 0.546921 0.259857 0.0929968 -0.595603 -0.797878 0.249212 -0.498985 -0.830005 
-0.309368 -0.540359 -0.782499 -0.376261 -0.410965 -0.830382 -0.553072 -0.285363 -0.782738 
-0.84981 -0.155344 -0.503677 0.908263 0.3268 -0.261268 -0.953717 -0.00194617 -0.300699 
-0.982255 0.126549 -0.138424 -0.966467 0.082598 -0.243144 0.75485 0.485367 0.441157 
-0.705094 0.601815 0.375048 -0.200669 0.784399 0.586899 0.649685 0.614463 0.447598 
0.451009 -0.409696 -0.792931 0.384 -0.354603 -0.852526 0.619908 -0.310415 -0.720664 
0.860363 -0.103958 -0.498968 -0.55696 -0.42803 -0.711748 -0.740487 -0.260369 -0.619586 
0.879887 0.467588 0.0846206 -0.972183 0.233274 -0.0210796 0.880264 0.448596 0.154586 
-0.998122 -0.0128598 0.0598996 -0.822181 -0.500537 -0.271074 -0.918867 -0.19625 -0.342302 
0.634516 0.579259 0.511712 -0.806839 0.477988 0.347186 0.34466 0.594947 0.726118 
0.184908 0.727668 0.660536 0.249321 0.705364 0.663551 0.587193 0.474777 0.655584 
-0.98648 0.124868 -0.106136 0.229505 -0.449779 -0.863149 0.022623 -0.517845 -0.855175 
-0.967263 0.253666 0.00742445 -0.921289 0.208061 -0.328539 -0.808185 0.458673 0.369399 
-0.517298 -0.158169 -0.841062 -0.0150588 0.988269 0.151976 0.997084 -0.016907 -0.0744125 
0.204212 0.701239 0.683053 -0.966816 -0.00565098 -0.255412 -0.791984 0.46274 0.398288 
0.79518 0.273805 0.541035 0.610318 0.438713 0.659578 -0.870001 0.439231 0.223996 
-0.0712168 0.743418 0.665024 0.472513 0.567025 0.674695 0.927359 -0.043303 -0.371659 
-0.843084 -0.329366 -0.42512 -0.954824 0.101742 -0.279212 -0.97253 0.187207 -0.138342 
-0.61299 0.614487 0.496637 0.0163117 0.697929 0.715981 0.460117 0.699406 0.546922 
0.0229534 0.702644 0.711172 0.707593 0.493594 0.505646 0.498633 -0.455378 -0.737561 
-0.424714 -0.541302 -0.725679 0.971577 0.0944896 -0.21705 -0.923146 -0.057153 -0.380178 
0.885905 0.463738 0.0109361 -0.948806 0.300486 -0.0973462 -0.775707 0.563149 0.284855 
-0.227061 0.760392 0.608479 -0.139425 0.737028 0.661325 0.432002 0.718239 0.545442 
0.187389 -0.530609 -0.826643 -0.933269 -0.222449 -0.282002 -0.925228 0.36617 0.0993617 
0.703199 0.665646 0.249851 -0.628228 0.722944 0.287545 0.553559 0.731401 0.398278 
0.400462 -0.416497 -0.816187 -0.161476 -0.568456 -0.806711 0.637219 -0.307151 -0.706831 
0.836541 -0.270697 -0.476363 0.89038 -0.0277979 -0.454369 0.919422 0.393269 -0.00179455 
-0.9755 -0.0131515 -0.219604 -0.969315 0.228364 0.0909816 -0.755912 0.522299 0.394717 
0.685394 0.681359 0.256874 -0.416179 0.787968 0.453763 0.18365 -0.547068 -0.816694 
0.709079 -0.191017 -0.678763 0.71899 -0.179585 -0.671419 0.966618 -0.202451 -0.157046 
-0.771026 -0.322319 -0.549208 -0.885637 0.444557 0.134224 0.718157 0.656822 0.22986 
-0.478723 0.719757 0.502766 0.420667 0.780555 0.462356 0.575428 -0.161983 -0.801651 
0.738944 -0.115341 -0.663821 0.853421 -0.0918433 -0.513067 -0.912833 0.371785 0.168854 
-0.950323 0.306284 0.0554652 -0.691816 0.510533 0.510634 0.662148 0.660376 0.354208 
-0.26823 0.773118 0.574753 0.0864572 0.827836 0.554268 0.0133119 0.827502 0.561305 
0.339597 -0.280489 -0.897775 0.258009 -0.546799 -0.796518 -0.0954296 -0.607674 -0.788433 
0.760343 -0.410935 -0.503001 -0.0254835 -0.395293 -0.918202 0.233326 -0.641515 -0.730765 
0.629024 -0.239997 -0.739412 0.429622 -0.352906 -0.831193 0.716633 -0.0192112 -0.697185 
0.905327 -0.0628428 -0.420039 0.973363 0.0865424 -0.21231 -0.720568 -0.35016 -0.598474 
0.966205 0.227497 -0.121211 -0.980417 0.131103 -0.146948 -0.362653 0.646291 0.67141 
0.0560181 0.746982 0.66248 0.162267 -0.559373 -0.812878 -0.0494582 -0.387882 -0.920381 
0.403123 -0.776757 -0.48388 0.473042 -0.448725 -0.758207 0.691065 -0.433733 -0.57819 
0.380897 -0.487538 -0.785636 -0.190151 -0.522489 -0.831172 0.758936 -0.227619 -0.610087 
-0.892971 -0.227254 -0.388533 -0.940739 -0.139491 -0.309115 -0.94503 0.318226 -0.0751703 
-0.828122 0.495928 0.261282 -0.853796 0.477482 0.207466 -0.552401 0.663507 0.50459 
0.34132 0.788413 0.511767 0.557805 -0.265187 -0.786467 -0.993968 0.109593 0.00405735 
-0.975963 0.165482 -0.141818 -0.967226 0.242296 0.0759416 -0.964435 0.260448 0.0450722 
-0.93581 0.313902 -0.16039 -0.79316 0.595154 0.129188 0.295067 0.796901 0.527147 
-0.494051 0.657934 0.568363 -0.153518 0.778906 0.608061 0.570037 -0.214161 -0.793217 
-0.996026 -0.0693501 -0.0558855 -0.99706 0.0275786 -0.0714932 -0.931889 -0.000505793 -0.362742 
-0.930812 0.361127 -0.0563647 -0.871135 0.39406 0.292987 -0.959888 0.263931 0.0946347 
-0.903651 0.283871 0.320675 0.610007 0.725962 0.3176 -0.736228 0.586488 0.337639 
0.680654 0.699824 0.216693 -0.168199 0.815873 0.553227 0.249571 0.861947 0.441318 
0.238078 -0.442104 -0.864791 0.475544 -0.264975 -0.838836 -0.225412 -0.569918 -0.790179 
-0.538351 -0.493852 -0.682853 -0.921396 -0.249177 -0.298228 -0.965967 0.196885 0.167759 
-0.99732 -0.0731321 -0.00196284 -0.891769 0.267937 0.364634 -0.732125 0.550399 0.401316 
0.849648 0.524796 0.051842 -0.833236 0.461471 0.304568 -0.495054 0.748384 0.441409 
0.0181862 0.848315 0.529179 0.442821 0.766048 0.465918 0.451938 -0.171216 -0.875464 
0.648827 0.0420482 -0.759773 0.595004 0.338408 -0.729006 0.702114 0.0576855 -0.709724 
0.774318 0.000619364 -0.632797 -0.832855 0.132666 0.537357 -0.844028 0.321109 0.429541 
-0.638518 0.454085 0.621371 -0.711844 0.534108 0.456077 -0.258754 0.778854 0.571343 
0.234687 0.786619 0.571097 0.596881 -0.00466768 -0.802316 -0.00240998 -0.617842 -0.786299 
0.783199 0.140469 -0.605697 0.693668 0.439672 -0.570538 -0.373504 -0.619717 -0.69025 
-0.724942 0.179 0.665145 0.171783 -0.854697 -0.489881 -0.670207 0.395566 -0.627974 
0.478624 0.617613 -0.624078 0.670207 -0.395566 0.627974 -0.171783 0.854697 0.489881 
0.494022 -0.157123 -0.855134 0.134121 -0.519234 -0.844042 0.713404 0.0706509 -0.697183 
0.826527 0.195056 -0.528021 -0.478624 -0.617613 0.624078 0.574998 0.0436652 -0.816988 
-0.0246287 -0.545756 -0.837582 0.686379 0.272592 -0.674223 0.772641 0.166497 -0.612621 
0.785285 0.465925 -0.407727 0.689838 0.166373 -0.704588 0.796184 0.287736 -0.532259 
-0.971798 0.145768 0.185364 0.864668 0.498834 0.059284 -0.57194 0.580034 0.580039 
0.079049 0.851763 0.517929 0.478403 -0.243308 -0.843761 0.56514 -0.213803 -0.796809 
0.531883 -0.189088 -0.825437 0.694296 0.394995 -0.601608 0.797199 0.488381 -0.354904 
0.942178 0.245581 -0.228016 0.532408 0.785869 0.314566 0.263767 0.873468 0.409245 
0.25393 0.84902 0.463341 0.531441 -0.183883 -0.826896 0.156796 -0.533519 -0.831127 
-0.0602008 -0.412408 -0.909008 0.725948 -0.189078 -0.661248 0.70934 0.0644517 -0.701914 
0.291439 -0.429105 -0.854946 0.822159 0.0116184 -0.569139 0.741991 -0.290997 -0.603962 
0.614219 -0.0750438 -0.785559 0.840074 0.0993842 -0.53329 0.720182 0.267965 -0.639947 
-0.395908 -0.604258 -0.691469 -0.836109 -0.349796 -0.422568 0.885172 0.372727 -0.278471 
0.561522 0.750752 0.347943 0.204486 -0.569204 -0.796362 0.708616 -0.204089 -0.675433 
0.332455 -0.315271 -0.888863 0.932522 0.16268 -0.322395 0.884279 0.328211 -0.332157 
-0.619895 -0.499973 -0.604779 0.777621 0.549312 -0.30588 -0.177345 0.820141 0.543983 
0.184827 -0.53835 -0.822203 0.339304 -0.287352 -0.895713 0.633198 -0.135032 -0.76212 
0.760946 0.0404078 -0.647556 0.746439 0.659579 -0.0882263 0.906576 0.421932 -0.00965497 
0.644424 -0.310785 -0.698663 0.847926 0.246505 -0.469316 -0.789672 -0.389756 -0.473822 
-0.815754 -0.402053 -0.415811 -0.891336 -0.349116 -0.289203 -0.993489 -0.113926 -0.00013538 
-0.913216 0.26625 0.30846 -0.158181 0.851107 0.500595 0.331404 -0.462388 -0.822416 
0.751829 -0.159662 -0.639735 0.866023 0.268725 -0.421653 0.866234 0.39207 -0.309709 
-0.788365 -0.525837 -0.319336 -0.932247 -0.303618 -0.196804 -0.165823 0.84887 0.501919 
-0.270649 -0.482784 -0.832868 -0.856548 -0.427367 -0.289281 0.790104 0.608024 -0.0777262 
-0.988444 -0.141335 -0.0547921 0.84124 0.540626 0.0062225 -0.769446 0.478343 0.423251 
0.659819 0.722255 0.207333 0.0889714 -0.535275 -0.839979 0.843544 0.248078 -0.47633 
0.881301 0.326155 -0.341951 -0.790067 -0.455442 -0.410325 -0.959414 -0.261702 -0.105053 
0.86375 0.494506 -0.0969546 -0.998005 0.000226373 0.0631366 0.923153 0.373753 -0.0899785 
-0.630384 0.614575 0.474251 -0.24301 0.828513 0.504493 0.182409 0.885253 0.427848 
-0.592119 -0.442434 -0.673533 0.427957 -0.388425 -0.816076 0.828209 0.163769 -0.535956 
0.881937 0.180853 -0.435292 0.839249 0.418959 -0.346605 0.773842 0.608048 -0.177332 
0.777044 0.628531 -0.0339267 -0.844298 0.417823 0.335536 0.149262 -0.437405 -0.886791 
-0.707527 -0.412277 -0.573963 0.771493 -0.113676 -0.626 -0.909625 -0.396502 -0.123971 
-0.964163 -0.256832 -0.0665405 -0.973733 0.141048 0.178744 0.74381 0.655837 0.12894 
-0.501865 0.695522 0.514179 -0.0323389 0.880773 0.472432 0.840644 0.534852 -0.0851591 
0.794503 0.59299 -0.130875 0.885192 0.460645 0.0651274 0.508132 0.822556 0.255348 
0.8902 0.182751 -0.417308 -0.380946 -0.376455 -0.844489 0.168794 -0.456226 -0.873709 
0.956908 0.169429 -0.23584 0.914221 0.37024 -0.164689 0.953604 0.283995 -0.0999334 
0.392314 0.861194 0.323164 0.393276 -0.432759 -0.811205 0.869671 0.472935 -0.141442 
0.928646 0.186241 -0.320829 -0.956592 -0.256668 -0.138034 0.930783 0.362787 -0.0450441 
0.850808 0.524312 0.0349545 0.705672 0.699372 0.113606 0.103419 -0.370952 -0.922875 
0.51328 -0.376657 -0.77115 0.688304 -0.255118 -0.679082 0.916633 0.320643 -0.23869 
0.857468 0.495734 -0.137824 0.647972 0.693131 0.315755 0.725123 0.632016 0.27341 
0.926737 0.374268 0.032886 0.366099 0.874422 0.318367 -0.424627 -0.416045 -0.804113 
-0.279428 -0.427758 -0.859618 -0.700298 -0.28482 -0.654569 0.865976 0.493367 -0.0816991 
0.977007 0.200379 0.0728348 -0.920173 0.317646 0.228873 -0.476921 -0.529728 -0.701381 
-0.147585 -0.450321 -0.880585 0.0642073 -0.444374 -0.893537 0.476882 -0.438408 -0.761828 
-0.766479 -0.32674 -0.552948 0.848148 -0.119764 -0.516044 0.918199 0.167702 -0.358869 
0.655806 0.745026 0.12188 0.641611 0.7135 0.281521 0.360345 0.426809 0.829449 
0.704702 0.234891 0.669494 0.44919 0.382382 0.807473 -0.963884 -0.246483 0.100869 
-0.994778 -0.0258025 0.0987425 -0.581567 0.68863 0.433092 0.795994 0.573461 0.193744 
-0.63121 -0.47797 -0.610835 0.65135 -0.39216 -0.64958 0.643402 0.760978 0.0833488 
0.39277 0.455399 0.798964 0.877517 0.401228 0.262641 0.357982 0.452708 0.816642 
0.969714 0.240802 -0.040864 0.417325 0.47908 0.772219 0.899549 0.225698 0.373995 
0.468999 0.604884 0.643549 0.860508 0.0678489 0.504898 0.779127 0.371058 0.505249 
0.968156 0.125187 0.2168 -0.930871 -0.239445 0.275944 0.881751 0.36536 0.298373 
0.954807 0.213318 0.206977 -0.822024 0.456859 0.339935 -0.29589 0.86345 0.408539 
0.0885769 0.925995 0.366998 -0.160514 -0.559962 -0.812821 0.303301 -0.510247 -0.804771 
0.390275 -0.407487 -0.825615 -0.720076 -0.513137 -0.467098 -0.774498 -0.453127 -0.441394 
0.89969 0.0380133 -0.434871 0.688221 0.724446 -0.0391046 0.273519 0.598485 0.752996 
0.430485 0.829025 0.356931 0.218505 0.446585 0.867651 0.98943 0.0665132 -0.128857 
0.298499 0.625637 0.720747 0.995459 0.0393628 -0.0866767 0.790463 0.527149 0.311901 
-0.562998 0.716861 0.41127 0.496791 0.814218 0.300412 0.103867 -0.586752 -0.803078 
0.828043 0.51795 -0.214646 0.314404 0.612733 0.725058 0.108242 0.77939 0.617118 
0.599331 0.541844 0.589243 0.198025 0.573249 0.795093 0.452294 0.859978 0.236363 
0.51064 0.859079 0.0350769 0.976243 0.21195 0.0450253 0.146262 0.880762 0.450406 
0.177467 0.820542 0.543338 -0.947896 -0.0883811 0.306075 0.985958 0.11659 -0.11956 
0.975319 0.177367 -0.131503 0.929128 0.366685 -0.0475689 -0.827697 -0.0508754 0.558865 
0.884364 0.428305 0.185621 -0.977058 -0.140514 0.160044 0.824713 0.240245 0.511986 
0.902982 0.119069 0.412852 0.903226 0.18267 0.388349 0.861078 0.446151 0.243913 
-0.0421147 0.892803 0.448475 0.40793 0.841352 0.35457 -0.518275 -0.561897 -0.64472 
0.90023 -0.206908 -0.383112 0.245993 0.615112 0.749083 0.838243 0.434405 -0.329608 
0.617091 0.59959 0.509599 0.960228 -0.196158 -0.198708 0.969752 -0.133304 -0.204476 
0.0523051 0.731051 0.680315 0.962576 0.260842 0.0735485 -0.722129 -0.261401 0.640467 