# vtk DataFile Version 4.2
vtk output
ASCII
DATASET POLYDATA
POINTS 1251 float
255.617 156.945 172.335 256.233 156.774 172.145 257.404 156.932 171.931 
255.738 157.924 172.351 256.518 157.717 172.068 256.544 158.156 172.153 
257.548 158.043 172.039 258.727 155.989 172.283 258.56 155.544 172.454 
255.975 156.142 172.551 254.873 158.051 172.934 255.323 158.657 172.92 
257.556 158.897 172.393 260.097 154.762 172.999 256.762 155.201 172.831 
254.777 157.105 172.942 259.085 160.761 173.742 262.842 155.522 173.508 
253.848 156.422 174.225 253.68 156.92 174.37 253.806 158.096 174.321 
262.85 158.187 173.45 253.482 158.639 175.11 261.317 159.24 173.237 
260.579 160.567 173.732 259.493 161.317 174.372 257.137 153.008 174.321 
254.189 155.106 174.472 254.612 159.824 174.744 255.936 160.997 175.207 
260.673 151.237 175.078 266.235 152.03 175.36 267.104 160.05 174.83 
275.128 159.03 175.935 266.117 160.796 174.959 272.818 160.572 175.849 
269.884 161.516 175.774 254.405 152.623 176.105 252.907 154.883 176.131 
276.449 155.121 176.325 278.1 159.659 176.735 256.036 161.707 176.895 
274.313 162.107 176.779 263.866 163.219 176.958 267.163 163.01 176.571 
270.305 162.771 176.597 252.267 155.811 176.697 277.996 157.36 176.5 
282.522 157.5 178.01 282.1 158.355 178.022 282.803 159.346 178.782 
259.475 162.621 177.273 267.761 163.492 177.105 269.574 163.877 177.604 
272.573 163.818 177.748 264.734 146.062 178.169 284.948 151.523 179.14 
251.315 152.716 178.798 251.687 156.673 177.506 284.663 155.352 179.058 
252.998 160.402 178.857 253.721 160.806 178.409 260.212 162.867 177.879 
261.18 163.029 177.702 266.009 164.105 178.228 286.166 146.951 180.555 
286.311 154.008 180.515 284.768 157.436 179.651 284.121 158.796 179.768 
281.298 161.667 179.548 264.033 163.969 179.27 264.529 164.117 179.188 
266.796 164.578 179.236 270.536 165.109 179.354 275.623 164.698 179.642 
277.503 164.203 179.925 284.102 144.584 180.683 287.071 151.093 181.231 
287.001 151.962 181.271 286.516 154.707 181.092 285.768 156.2 180.539 
286.455 155.049 181.322 252.616 160.699 180.622 258.631 162.506 179.789 
260.836 163.024 179.255 257.929 162.502 179.753 270.503 165.485 180.369 
286.981 144.075 182.321 287.593 147.024 182.352 287.344 150.412 181.765 
286.69 154.527 181.854 285.714 156.813 181 284.558 158.663 180.566 
251.525 160.138 181.452 254.327 161.366 181.115 252.396 160.703 181.5 
281.958 161.608 180.68 261.763 163.072 180.223 280.346 162.906 180.694 
263.874 163.757 180.353 278.627 164.019 180.779 268.026 165.065 181.123 
272.044 165.765 181.107 272.449 165.852 181.541 285.062 141.855 182.522 
287.382 151.399 182.401 286.856 153.88 182.403 285.92 156.595 181.795 
249.563 158.404 181.97 283.96 159.686 181.518 283.105 160.607 181.685 
252.699 160.816 181.871 254.967 161.462 181.429 260.603 162.247 180.978 
281.522 162.053 181.414 279.083 163.829 181.303 269.621 165.525 181.59 
287.962 146.356 183.645 287.372 151.512 183.003 286.225 155.858 182.437 
269.621 158.155 183.357 285.176 157.765 182.091 257.418 159.448 183.27 
249.144 159.176 184.242 249.933 159.259 182.815 257.762 159.904 182.975 
284.197 159.148 182.341 250.595 159.762 183.05 262.11 161.311 182.057 
252.09 160.495 182.677 252.589 160.681 182.416 255.796 161.554 181.627 
255.809 161.346 181.989 257.096 161.577 181.591 280.256 162.993 181.776 
263.11 163.085 181.054 279.638 163.374 181.997 264.903 163.807 181.07 
267.983 164.732 182.013 268.565 165.157 182.18 269.657 165.502 182.085 
275.33 165.413 182.306 273.689 165.868 182.51 251.782 135.589 184.828 
286.763 139.936 184.677 287.066 140.402 184.628 287.716 141.895 184.666 
288.058 144.634 184.41 263.152 149.612 184.953 274.597 153.662 184.675 
285.962 155.953 183.079 285.304 157.019 183.03 256.958 160.406 182.818 
250.317 159.661 183.929 254.273 160.732 182.831 262.828 162.429 181.55 
279.522 163.26 182.492 268.575 164.496 182.505 268.596 164.996 182.377 
270.417 164.304 183.076 268.751 165.226 182.399 270.075 165.363 182.453 
271.057 165.334 182.744 275.094 165.439 182.554 269.147 165.408 182.337 
273.406 165.751 182.708 252.684 132.532 185.891 253.588 133.141 185.431 
251.647 134.626 185.316 250.218 136.983 185.444 250.864 138.038 184.274 
249.082 140.039 185.606 287.826 141.016 185.47 287.032 151.699 184.163 
286.759 152.5 184.145 245.669 154.265 185.795 282.875 158.284 184.271 
283.488 159.66 182.952 251.564 159.97 183.88 253.36 160.012 183.89 
256.272 160.905 182.498 281.434 161.703 182.779 279.944 162.799 182.771 
276.854 163.108 183.713 268.892 165.011 182.541 268.861 165.203 182.508 
271.359 165.021 183.023 271.451 165.292 182.919 274.262 165.2 183.054 
275.658 164.725 183.049 268.9 165.312 182.477 269.06 165.361 182.482 
271.581 165.423 182.843 272.592 165.531 182.857 273.772 165.656 182.784 
253.153 130.461 186.955 253.47 130.338 186.977 252.48 131.394 186.682 
251.943 132.458 186.588 255.774 132.961 185.563 250.609 135.043 186.414 
250.453 135.451 186.259 249.496 138.334 186.104 288.146 142.953 185.911 
271.71 147.739 186.35 246.564 147.997 186.112 272.146 149.203 185.731 
287.112 149.942 184.961 282.083 152.44 185.766 245.656 155.726 186.289 
281.171 156.683 184.852 283.836 157.693 184.086 246.54 158.129 186.711 
250.408 159.438 184.997 279.298 161.642 183.824 278.899 162.706 183.432 
272.2 164.968 183.169 268.998 165.307 182.544 269.136 165.318 182.561 
272.293 165.329 183.007 253.281 128.896 188.044 252.983 129.554 187.717 
254.016 129.251 187.697 252.627 130.427 187.315 252.408 130.853 187.268 
252.852 130.483 187.079 252.179 131.57 187.081 249.925 136.882 186.71 
248.139 141.789 186.613 287.434 146.671 186.179 246.374 148.156 186.904 
286.603 149.354 185.814 285.92 149.766 186.069 286.948 148.583 185.879 
284.927 150.555 186.11 286.705 151.178 185.071 286.379 151.6 185.226 
246.627 158.568 187.406 247.288 158.711 187.036 253.439 128.436 188.275 
253.381 128.462 188.259 253.557 128.453 188.296 253.312 128.573 188.204 
253.36 128.506 188.274 253.314 128.572 188.249 253.965 128.415 188.475 
253.019 129.403 187.94 253.247 129.008 188.199 254.955 128.607 188.532 
252.847 129.815 187.939 252.383 130.903 187.516 251.884 132.584 187.477 
252.288 131.99 187.867 261.944 131.757 187.474 250.821 135.688 187.903 
250.419 136.142 187.513 249.339 138.97 187.217 288.12 137.38 188.532 
247.689 142.69 187.904 287.894 143.155 187.171 246.959 144.612 187.342 
286.09 146.765 187.207 287.102 146.398 186.729 246.052 149.882 187.674 
249.698 153.73 188.085 247.775 158.71 187.072 246.49 158.646 187.977 
246.772 158.714 187.863 253.521 128.463 188.343 254.02 128.167 188.688 
253.98 128.23 188.639 254.154 128.255 188.714 253.708 128.576 188.509 
254 128.367 188.679 254.621 128.405 188.77 253.354 129.67 188.479 
252.575 130.26 187.788 277.679 132.569 188.659 252.021 136.967 189.01 
249.849 138.738 188.081 288.185 138.334 188.467 249.171 140.016 187.986 
249.734 140.121 188.689 288.05 140.24 188.291 247.961 142.297 188.155 
286.103 142.555 189.202 287.01 143.682 188.237 287.519 144.18 187.428 
246.436 147.369 188.294 246.489 148.635 188.402 246.284 149.556 188.205 
249.272 149.896 188.671 248.445 151 188.719 245.598 152.517 187.991 
248.982 152.443 188.486 245.263 155.17 188.122 247.919 157.683 187.971 
245.875 158.057 188.502 246.176 158.467 188.368 246.866 158.705 188.034 
246.342 158.592 188.222 254.055 128.154 188.731 254.015 128.18 188.712 
254.137 128.218 188.777 254.419 128.485 188.909 255.409 128.505 188.941 
255.685 128.564 189.103 256.569 128.743 189.444 260.922 129.377 189.978 
265.495 130.647 189.55 275.209 131.659 189.827 281.18 130.922 189.753 
254.984 133.248 189.799 288.328 136.422 189.972 288.24 137.344 189.891 
287.077 140.906 189.452 287.59 141.271 188.718 247.45 143.526 188.442 
250.415 142.091 189.434 286.88 142.436 188.842 287.327 142.819 188.277 
248.947 145.073 189.522 246.482 147.405 188.828 246.446 149.904 188.383 
246.666 147.569 189.072 247.172 149.395 188.784 247.985 149.475 188.884 
247.075 150.591 188.765 247.404 151.327 188.827 247.167 153.837 188.92 
247.013 156.721 188.801 246.583 157.031 188.947 245.512 157.302 188.723 
245.746 157.724 188.814 246.011 158.283 188.543 246.148 158.379 188.57 
246.64 158.553 188.285 246.311 158.535 188.398 254.058 128.16 188.75 
257.432 128.794 189.993 257.686 128.776 189.942 258.033 128.888 190.111 
259.056 128.926 189.929 259.541 128.977 190.08 259.804 129.035 190.227 
256.775 129.172 189.998 260.978 129.354 190.257 261.886 129.599 190.512 
280.929 129.961 190.811 280.47 130.075 191.197 284.774 128.93 190.856 
284.467 128.46 191.151 270.361 131.039 190.725 276.72 131.35 190.689 
279.84 130.52 190.569 279.319 130.657 190.862 275.407 131.499 190.879 
280.818 130.597 190.093 288.023 128.917 191.731 258.926 131.226 191.011 
288.395 132.476 191.064 288.44 133.522 190.888 288.153 137.3 190.392 
284.666 139.999 190.708 286.279 140.111 190.25 287.355 139.21 190.164 
250.121 141.145 189.249 280.02 140.831 190.577 247.701 143.622 189.041 
247.446 143.847 188.822 248.04 143.3 189.122 248.122 143.552 189.311 
248.575 143.83 189.462 246.737 145.702 189.158 246.658 145.951 189.161 
247.744 145.026 189.55 246.514 146.742 189.302 246.526 146.841 189.397 
247.121 147.312 189.292 246.577 147.18 189.313 246.545 146.996 189.4 
246.349 151.59 188.569 246.585 147.087 189.399 246.581 151.992 188.748 
246.617 152.821 188.86 245.845 154.981 189.132 245.358 155.701 188.943 
245.284 156.892 189.299 245.804 157.33 189.118 245.464 157.07 189.355 
245.45 157.182 189.162 245.952 157.875 188.891 245.988 158.122 188.833 
245.91 158.06 188.818 246.165 158.169 188.731 246.017 158.199 188.798 
246.002 158.221 188.731 246.297 158.423 188.538 284.164 127.642 191.902 
283.647 127.906 192.18 260.344 129.247 190.482 261.954 129.646 190.736 
261.983 129.692 190.817 261.676 129.641 190.757 262.278 129.77 190.799 
281.205 129.494 191.541 283.119 128.461 191.586 263.003 129.913 190.704 
[...]
POINT_DATA 1251
SCALARS scalars float
LOOKUP_TABLE default
1 1 1 1 1 1 1 1 1 
1 1 1 1 1 1 1 1 1 
1 1 1 1 1 1 1 1 1 
1 1 1 1 1 1 1 1 1 
1 1 1 1 1 1 1 1 1 
1 1 1 1 1 1 1 1 1 
1 1 1 1 1 1 1 1 1 
1 1 1 1 1 1 1 1 1 
1 1 1 1 1 1 1 1 1 
1 1 1 1 1 1 1 1 1 
1 1 1 1 1 1 1 1 1 
1 1 1 1 1 1 1 1 1 
1 1 1 1 1 1 1 1 1 
1 1 1 1 1 1 1 1 1 
1 1 1 1 1 1 1 1 1 
1 1 1 1 1 1 1 1 1 
1 1 1 1 1 1 1 1 1 
1 1 1 1 1 1 1 1 1 
1 1 1 1 1 1 1 1 1 
1 1 1 1 1 1 1 1 1 
1 1 1 1 1 1 1 1 1 
1 1 1 1 1 1 1 1 1 
1 1 1 1 1 1 1 1 1 
1 1 1 1 1 1 1 1 1 
1 1 1 1 1 1 1 1 1 
1 1 1 1 1 1 1 1 1 
1 1 1 1 1 1 1 1 1 
1 1 1 1 1 1 1 1 1 
1 1 1 1 1 1 1 1 1 
1 1 1 1 1 1 1 1 1 
1 1 1 1 1 1 1 1 1 
1 1 1 1 1 1 1 1 1 
1 1 1 1 1 1 1 1 1 
1 1 1 1 1 1 1 1 1 
1 1 1 1 1 1 1 1 1 
1 1 1 1 1 1 1 1 1 
1 1 1 1 1 1 1 1 1 
1 1 1 1 1 1 1 1 1 
1 1 1 1 1 1 1 1 1 
1 1 1 1 1 1 1 1 1 
1 1 1 1 1 1 1 1 1 
1 1 1 1 1 1 1 1 1 
1 1 1 1 1 1 1 1 1 
1 1 1 1 1 1 1 1 1 
1 1 1 1 1 1 1 1 1 
1 1 1 1 1 1 1 1 1 
1 1 1 1 1 1 1 1 1 
1 1 1 1 1 1 1 1 1 
1 1 1 1 1 1 1 1 1 
1 1 1 1 1 1 1 1 1 
1 1 1 1 1 1 1 1 1 
1 1 1 1 1 1 1 1 1 
1 1 1 1 1 1 1 1 1 
1 1 1 1 1 1 1 1 1 
1 1 1 1 1 1 1 1 1 
1 1 1 1 1 1 1 1 1 
1 1 1 1 1 1 1 1 1 
1 1 1 1 1 1 1 1 1 
1 1 1 1 1 1 1 1 1 
1 1 1 1 1 1 1 1 1 
1 1 1 1 1 1 1 1 1 
1 1 1 1 1 1 1 1 1 
1 1 1 1 1 1 1 1 1 
1 1 1 1 1 1 1 1 1 
1 1 1 1 1 1 1 1 1 
1 1 1 1 1 1 1 1 1 
1 1 1 1 1 1 1 1 1 
1 1 1 1 1 1 1 1 1 
1 1 1 1 1 1 1 1 1 
1 1 1 1 1 1 1 1 1 
1 1 1 1 1 1 1 1 1 
1 1 1 1 1 1 1 1 1 
1 1 1 1 1 1 1 1 1 
1 1 1 1 1 1 1 1 1 
1 1 1 1 1 1 1 1 1 
1 1 1 1 1 1 1 1 1 
1 1 1 1 1 1 1 1 1 
1 1 1 1 1 1 1 1 1 
1 1 1 1 1 1 1 1 1 
1 1 1 1 1 1 1 1 1 
1 1 1 1 1 1 1 1 1 
1 1 1 1 1 1 1 1 1 
1 1 1 1 1 1 1 1 1 
1 1 1 1 1 1 1 1 1 
1 1 1 1 1 1 1 1 1 
1 1 1 1 1 1 1 1 1 
1 1 1 1 1 1 1 1 1 
1 1 1 1 1 1 1 1 1 
1 1 1 1 1 1 1 1 1 
1 1 1 1 1 1 1 1 1 
1 1 1 1 1 1 1 1 1 
1 1 1 1 1 1 1 1 1 
1 1 1 1 1 1 1 1 1 
1 1 1 1 1 1 1 1 1 
1 1 1 1 1 1 1 1 1 
1 1 1 1 1 1 1 1 1 
1 1 1 1 1 1 1 1 1 
1 1 1 1 1 1 1 1 1 
1 1 1 1 1 1 1 1 1 
1 1 1 1 1 1 1 1 1 
1 1 1 1 1 1 1 1 1 
1 1 1 1 1 1 1 1 1 
1 1 1 1 1 1 1 1 1 
1 1 1 1 1 1 1 1 1 
1 1 1 1 1 1 1 1 1 
1 1 1 1 1 1 1 1 1 
1 1 1 1 1 1 1 1 1 
1 1 1 1 1 1 1 1 1 
1 1 1 1 1 1 1 1 1 
1 1 1 1 1 1 1 1 1 
1 1 1 1 1 1 1 1 1 
1 1 1 1 1 1 1 1 1 
1 1 1 1 1 1 1 1 1 
1 1 1 1 1 1 1 1 1 
1 1 1 1 1 1 1 1 1 
1 1 1 1 1 1 1 1 1 
1 1 1 1 1 1 1 1 1 
1 1 1 1 1 1 1 1 1 
1 1 1 1 1 1 1 1 1 
1 1 1 1 1 1 1 1 1 
1 1 1 1 1 1 1 1 1 
1 1 1 1 1 1 1 1 1 
1 1 1 1 1 1 1 1 1 
1 1 1 1 1 1 1 1 1 
1 1 1 1 1 1 1 1 1 
1 1 1 1 1 1 1 1 1 
1 1 1 1 1 1 1 1 1 
1 1 1 1 1 1 1 1 1 
1 1 1 1 1 1 1 1 1 
1 1 1 1 1 1 1 1 1 
1 1 1 1 1 1 1 1 1 
1 1 1 1 1 1 1 1 1 
1 1 1 1 1 1 1 1 1 
1 1 1 1 1 1 1 1 1 
1 1 1 1 1 1 1 1 1 
1 1 1 1 1 1 1 1 1 
1 1 1 1 1 1 1 1 1 
1 1 1 1 1 1 1 1 1 
1 1 1 1 1 1 1 1 1 

NORMALS Normals float
-0.490978 -0.135628 -0.86055 -0.237279 -0.227335 -0.944467 0.0502567 -0.0591957 -0.996981 
-0.378524 0.280878 -0.881945 -0.15442 0.14689 -0.977025 -0.192988 0.379871 -0.904684 
0.107305 0.313171 -0.943615 0.0550868 -0.307007 -0.950112 -0.0201839 -0.452096 -0.891741 
-0.384133 -0.498207 -0.777324 -0.651414 0.24583 -0.717794 -0.450723 0.559502 -0.695561 
-0.097612 0.492996 -0.864539 0.155691 -0.309206 -0.938164 -0.282327 -0.530508 -0.799283 
-0.689243 -0.257766 -0.677127 -0.135746 0.735665 -0.663604 0.259514 -0.174721 -0.949803 
-0.803303 -0.140705 -0.578711 -0.844421 -0.0870698 -0.528556 -0.782631 0.121081 -0.610596 
0.276576 0.210185 -0.937725 -0.783168 0.375409 -0.495697 0.302285 0.171987 -0.937574 
0.183368 0.54785 -0.816233 -0.0723631 0.802643 -0.592053 -0.249448 -0.601728 -0.758749 
-0.654079 -0.416902 -0.631168 -0.528028 0.662246 -0.531618 -0.381232 0.804434 -0.455575 
-0.0705339 -0.641767 -0.763649 0.186842 -0.286249 -0.939762 0.234853 0.126776 -0.963728 
0.140985 0.0971419 -0.985234 0.138083 0.526702 -0.83876 0.133981 0.368649 -0.919863 
0.117124 0.206768 -0.971354 -0.46756 -0.649323 -0.599806 -0.778846 -0.345367 -0.523565 
0.097055 -0.202442 -0.974473 0.272519 0.279451 -0.920674 -0.291427 0.921645 -0.256202 
0.231394 0.501175 -0.833834 -0.110917 0.850293 -0.514489 0.0609814 0.687797 -0.723337 
0.0562481 0.578577 -0.813686 -0.883681 -0.177738 -0.433032 0.233606 0.0517402 -0.970954 
0.350284 0.000962699 -0.936643 0.46159 0.237027 -0.854841 0.556234 0.503844 -0.660867 
-0.225142 0.948084 -0.224607 0.0540729 0.771507 -0.633919 -0.0711641 0.739131 -0.669792 
0.110677 0.679068 -0.725684 0.0205171 -0.511793 -0.858864 0.540175 -0.0838407 -0.837366 
-0.586461 -0.36367 -0.723745 -0.87525 -0.0465494 -0.481426 0.615572 0.180973 -0.76702 
-0.738927 0.583776 -0.336441 -0.439267 0.87082 -0.220719 -0.223104 0.952054 -0.209328 
-0.226883 0.962266 -0.150225 -0.137248 0.87974 -0.455215 0.610055 -0.178133 -0.772076 
0.724684 0.197498 -0.660173 0.748173 0.338358 -0.570746 0.629991 0.505771 -0.589328 
0.542222 0.669032 -0.508323 -0.255914 0.961225 -0.102733 -0.251549 0.962152 -0.104821 
-0.173022 0.965069 -0.196734 0.0803918 0.844318 -0.529777 0.238929 0.829561 -0.50472 
0.22243 0.944337 -0.24239 0.144599 -0.359292 -0.921955 0.853959 0.0076656 -0.520283 
0.912026 0.161994 -0.376785 0.884444 0.265409 -0.383818 0.860341 0.262212 -0.437103 
0.86995 0.384318 -0.309009 -0.540674 0.825209 -0.163406 -0.13224 0.969606 0.205854 
-0.196844 0.970444 0.139612 -0.179795 0.972763 0.146304 -0.172201 0.952511 -0.251135 
0.713905 -0.299243 -0.633082 0.918323 -0.0515385 -0.392462 0.907854 -0.0375483 -0.417602 
0.943016 0.327666 0.0579238 0.876656 0.427939 -0.219871 0.780631 0.591752 -0.201109 
-0.607804 0.778977 -0.154174 -0.298504 0.941593 0.155878 -0.598716 0.798815 -0.058601 
0.66623 0.705031 -0.24304 -0.288917 0.888141 0.357396 0.585283 0.80678 -0.0809235 
-0.21883 0.894321 0.39026 0.351309 0.923983 -0.151121 -0.354564 0.930501 0.0919329 
0.113811 0.931927 -0.344323 0.202676 0.933841 -0.294726 0.194304 -0.525217 -0.828488 
0.973729 0.165018 -0.156911 0.960826 0.271953 0.0534416 0.895167 0.444724 0.0299576 
-0.69375 0.582534 -0.423514 0.763623 0.645636 0.00588022 0.726966 0.686524 0.0143404 
-0.258581 0.954329 0.149638 -0.222625 0.941232 0.254007 -0.189884 0.818672 0.54196 
0.599413 0.800425 -0.00487111 0.332073 0.941882 0.0508563 -0.240599 0.965894 -0.0957141 
0.975696 -0.0283704 -0.217286 0.981257 0.152504 0.117802 0.921341 0.366194 0.13051 
-0.0751958 0.181792 0.980458 0.810804 0.55276 0.192491 0.127815 0.457553 0.879948 
-0.49116 0.860931 -0.132512 -0.524945 0.792455 -0.310562 0.166886 0.485015 0.858434 
0.801292 0.532089 0.273519 -0.55777 0.807057 -0.193785 -0.106025 0.453854 0.884746 
-0.279384 0.940565 0.193086 -0.298863 0.926926 0.22691 -0.139787 0.952267 0.27138 
-0.0535824 0.842013 0.53679 0.0218093 0.809679 0.586467 0.609975 0.775863 0.161144 
-0.131499 0.706648 0.695239 0.541287 0.81863 0.191974 -0.324044 0.878418 0.351252 
-0.533785 0.631735 0.562125 -0.502162 0.857946 0.10845 -0.128228 0.967854 0.216371 
0.430557 0.884931 0.177531 0.109508 0.939427 0.324785 -0.365047 -0.34084 -0.866354 
0.52794 -0.471004 -0.706707 0.670251 -0.372965 -0.641608 0.83997 -0.193858 -0.506822 
0.974262 -0.0220323 -0.22434 0.164578 0.225742 0.960185 -0.133951 0.298165 0.945069 
0.781226 0.444981 0.43781 0.748823 0.530127 0.39778 0.17054 0.651819 0.73895 
-0.323779 0.918385 0.227454 -0.0105135 0.831242 0.555811 -0.239944 0.676071 0.696674 
0.387655 0.7856 0.48224 -0.328921 0.300147 0.89539 -0.597689 0.329682 0.730806 
-0.126209 0.20225 0.971168 -0.656206 0.518196 0.548513 -0.0757959 0.736771 0.671881 
-0.252104 0.606693 0.753901 0.323841 0.7938 0.51479 -0.178636 0.977234 0.114472 
-0.0490196 0.72689 0.685002 -0.378211 -0.459474 -0.803642 -0.0714223 -0.395665 -0.915614 
-0.563971 -0.418782 -0.711729 -0.792554 -0.337765 -0.507712 -0.469875 -0.192552 -0.861476 
-0.860399 -0.221961 -0.458745 0.918211 -0.255617 -0.30257 0.886863 0.237251 0.396467 
0.83171 0.357846 0.424506 -0.89832 -0.0570259 -0.435625 0.214565 0.409942 0.886515 
0.644109 0.593699 0.482334 -0.189828 0.861579 0.470794 0.14161 0.668185 0.730394 
0.117424 0.673155 0.730119 0.560809 0.692478 0.453838 0.499645 0.674196 0.543889 
0.182886 0.428026 0.885069 -0.30347 0.0902577 0.948557 -0.447712 0.206983 0.869892 
-0.126606 0.38667 0.913487 -0.101489 0.477116 0.872961 0.128724 0.452541 0.882404 
0.333788 0.54978 0.76572 -0.476325 0.779161 0.407458 -0.14853 0.904373 0.40006 
-0.0996471 0.6159 0.781497 -0.046274 0.734137 0.677423 0.169307 0.712428 0.681015 
-0.243409 -0.564079 -0.789029 -0.0338687 -0.536181 -0.843423 -0.334656 -0.483458 -0.808872 
-0.810705 -0.422047 -0.40575 0.00328726 -0.457573 -0.889166 -0.900719 -0.419963 -0.111073 
-0.903786 -0.413861 -0.109044 -0.947142 -0.307785 -0.0905022 0.996946 0.0639101 0.0448878 
-0.103872 0.412089 0.905203 -0.93473 -0.199115 -0.294335 -0.111341 0.363189 0.925039 
0.822428 0.189919 0.53623 0.0388368 0.219616 0.974813 -0.882654 0.207532 -0.421725 
0.00632455 0.289399 0.957188 0.542252 0.401525 0.738066 -0.728166 0.588286 -0.351702 
-0.0488473 0.936689 0.346739 0.193788 0.385069 0.902313 0.198492 0.482773 0.852954 
-0.0200258 0.287136 0.95768 -0.292194 0.529608 0.796328 -0.0678431 0.535627 0.841725 
-0.00407327 0.498882 0.86666 -0.633757 -0.50071 -0.589611 -0.619964 -0.558431 -0.55118 
0.0621995 -0.592324 -0.803295 -0.756672 -0.477202 -0.446907 -0.880178 -0.383978 -0.27901 
-0.409607 -0.592599 -0.693576 -0.909259 -0.347036 -0.229812 -0.940831 -0.329353 0.0797691 
-0.906943 -0.27189 -0.321761 0.777486 0.336179 0.531506 -0.98578 -0.163535 -0.038653 
0.59213 0.386574 0.707066 0.326377 0.263351 0.907813 0.735921 0.25923 0.625476 
0.214812 0.265397 0.939904 0.833001 0.180434 0.523023 0.563599 0.316986 0.762808 
-0.509237 0.812116 -0.284862 -0.283001 0.951379 -0.12161 -0.0908477 -0.99579 0.0121867 
-0.457063 -0.810973 -0.365262 0.161546 -0.66729 -0.727067 -0.851994 -0.484037 -0.199537 
-0.732789 -0.404119 0.547456 -0.840484 -0.194975 0.50554 -0.196773 -0.869791 -0.452486 
-0.905761 -0.366477 0.212816 -0.802181 -0.106481 0.587509 0.262036 -0.771027 -0.580392 
-0.89271 -0.321981 0.315273 -0.952288 -0.267032 0.147788 -0.852108 -0.281006 0.441528 
-0.769392 -0.113734 0.62857 0.186241 -0.664372 -0.723826 -0.814762 -0.293381 0.50009 
-0.823262 -0.306017 0.478114 -0.903965 -0.31644 0.287597 0.905103 -0.17113 -0.389234 
-0.901037 -0.392834 0.183885 0.907924 0.101641 0.406623 -0.958071 -0.285128 -0.0283021 
0.428721 0.402224 0.808959 0.589779 0.434751 0.680553 -0.958224 -0.117166 0.260919 
0.389441 0.132591 0.911458 0.25458 0.868297 0.425734 -0.253845 0.967079 0.0179336 
-0.189244 0.981911 -0.00613933 -0.346869 -0.617467 0.705986 -0.185652 -0.858605 -0.47784 
-0.941075 -0.338178 -0.00375128 0.555263 -0.757202 -0.343989 -0.531715 -0.340485 0.775467 
-0.726417 -0.0689393 0.683788 0.239531 -0.911757 -0.333652 -0.656946 -0.127078 0.743151 
-0.905949 -0.333467 0.260876 0.0273435 -0.706581 -0.707104 -0.462394 -0.169183 0.870384 
-0.700478 -0.331228 0.632154 0.963508 0.077291 -0.256279 -0.839481 -0.400415 0.367341 
-0.605274 -0.414901 0.679338 0.981329 0.147311 0.123667 -0.855971 -0.442635 0.267184 
0.390371 0.394193 0.831999 0.652104 0.308292 0.692616 0.859752 0.264466 0.436904 
-0.974258 -0.210156 -0.0815838 -0.892309 0.0192781 0.451014 -0.861534 0.00171472 0.507697 
0.163893 0.0129463 0.986393 0.238273 0.0217039 0.970956 -0.966943 -0.177173 0.183389 
0.389204 0.13362 0.911409 -0.998291 0.00487132 -0.0582381 0.424096 0.480916 0.767374 
-0.872644 0.425895 -0.238968 -0.679605 0.733577 -0.0013431 0.348813 0.803371 0.482622 
-0.669161 0.683614 -0.291368 0.147103 -0.988801 -0.0251751 -0.808389 -0.415621 0.416853 
0.593316 -0.786381 0.17199 -0.166241 -0.477146 0.862957 0.302204 -0.886989 -0.349174 
0.165899 -0.974994 0.147863 0.101679 -0.994376 -0.0296147 0.238464 -0.930175 -0.279123 
0.261565 -0.688453 -0.676473 -0.182195 -0.903521 -0.387884 -0.0982749 -0.641559 -0.760752 
-0.460637 0.00076337 0.887588 0.995707 -0.0653048 -0.0655887 0.991833 0.0986022 0.0808955 
0.543298 0.374661 0.751303 0.841417 0.224701 0.491454 -0.908045 -0.376492 0.183598 
0.0115633 0.125278 0.992054 0.689375 0.246319 0.681241 0.741914 0.156846 0.651891 
0.067093 0.0729591 0.995076 -0.951504 0.158675 0.263558 -0.667718 -0.0195268 0.744158 
-0.528091 0.348032 0.774592 -0.404618 0.0963923 0.909391 0.121497 0.109997 0.986478 
-0.156054 -0.0094341 0.987703 -0.03927 -0.0501794 0.997968 0.185249 0.047454 0.981545 
0.43496 0.222639 0.872492 0.397902 0.296609 0.868157 -0.910076 0.34956 -0.222642 
-0.723799 0.494729 0.480997 -0.757485 0.644353 0.105 -0.286405 0.793231 0.537362 
0.483672 0.439148 0.757107 -0.112365 0.909356 0.400556 -0.312636 -0.503513 0.80544 
-0.100853 -0.618126 0.779583 -0.000607608 -0.944162 0.32948 0.125424 -0.963759 0.235452 
0.141387 -0.973934 -0.177379 0.165054 -0.985412 -0.0414883 0.125568 -0.949541 0.287409 
-0.233265 -0.547705 0.803496 0.262852 -0.93269 0.246979 0.228439 -0.968278 0.101261 
-0.277489 -0.783682 -0.555736 -0.565109 -0.819579 0.0945674 0.0516554 -0.54692 -0.83559 
0.000905051 -0.606141 -0.795357 0.0843266 -0.983423 0.160524 -0.216731 -0.931739 0.291359 
-0.308622 -0.844427 -0.43783 -0.343623 -0.924808 0.163261 0.00932707 -0.974512 0.224143 
-0.193013 -0.665254 -0.721237 0.584257 -0.211131 -0.783625 -0.207945 -0.170491 0.963167 
0.879562 -0.105279 -0.46399 0.904973 -0.114462 -0.409782 0.900642 0.28206 0.330586 
0.165812 0.399735 0.901509 0.285866 0.416178 0.863178 0.581451 0.391243 0.713333 
-0.275627 -0.244107 0.929753 -0.00188891 0.317356 0.948305 -0.631816 -0.464703 0.62037 
-0.826868 -0.452469 0.334009 -0.551927 -0.475537 0.685012 -0.300163 -0.414256 0.85924 
-0.0912392 -0.25641 0.962252 -0.93894 -0.291042 0.183539 -0.931018 -0.269297 0.246342 
-0.166774 -0.0833516 0.982466 -0.991568 -0.120229 0.048353 -0.945095 0.0362876 0.324776 
0.119421 0.279605 0.952659 -0.701893 0.475563 0.530271 -0.767721 0.214567 0.603793 
-0.53619 -0.162171 0.828372 -0.247316 0.495005 0.83295 -0.199749 -0.13654 0.970287 
-0.119754 -0.134527 0.983647 0.0355574 -0.042259 0.998474 -0.872743 -0.212081 0.439706 
-0.976552 0.145761 -0.158427 -0.0810346 0.553607 0.828826 0.239856 0.568273 0.787105 
-0.551314 0.783021 0.287975 0.108856 0.329754 0.93777 0.0737127 0.253021 0.964649 
-0.770053 0.429143 0.472075 0.441517 0.37865 0.813442 0.167438 0.702212 0.691999 
-0.427032 0.845934 0.319436 0.13433 0.659643 0.739477 -0.368184 -0.758507 -0.537688 
-0.64713 -0.750085 0.136363 0.210375 -0.781988 0.586717 0.174704 -0.937449 0.301113 
0.108764 -0.734667 0.669653 -0.0118574 -0.734581 0.678417 0.26096 -0.84265 0.470999 
-0.48516 -0.867692 0.10831 -0.361549 -0.706273 -0.608655 0.198894 -0.872321 0.44665 
-0.489786 -0.831581 -0.261884 -0.590846 -0.762077 0.264838 0.658183 -0.227586 -0.717635 
0.202247 -0.956429 -0.210571 0.0343774 -0.964023 -0.263587 0.122881 -0.992409 -0.00500889 
0.174588 -0.932795 0.315298 -0.165535 -0.613257 0.772343 -0.347054 -0.598437 0.722099 
-0.356996 -0.331361 0.873358 0.038404 -0.445943 0.894237 0.0554923 -0.290794 0.955175 
-0.22716 -0.397251 0.889151 -0.122236 -0.251956 0.959988 -0.34852 -0.0329757 0.936721 
-0.048433 -0.155981 0.986572 0.0578397 0.0254192 0.998002 -0.159025 -0.0313505 0.986777 
-0.0461488 -0.0170533 0.998789 -0.138624 -0.0342327 0.989753 -0.0307682 0.0607699 0.997677 
0.962266 0.0663658 0.263893 -0.129959 0.268142 0.954573 0.885124 0.22522 0.407224 
-0.0855826 0.149491 0.985052 -0.0444962 0.250697 0.967042 -0.507847 -0.349116 0.787534 
-0.263222 -0.233201 0.936126 -0.669072 -0.259762 0.696323 -0.295697 -0.0595728 0.953422 
-0.127487 -0.172783 0.976674 -0.882875 -0.284466 0.373645 0.184628 0.0871851 0.978934 
-0.0645271 0.820255 -0.568346 0 0.83205 -0.5547 -0.0612493 0.791997 -0.607445 
0.0911229 -0.753784 0.650774 -0.516757 0.131418 0.845985 -0.218673 0.786006 -0.578253 
-0.06773 0.718548 -0.692171 0.589812 -0.597472 0.543276 -0.0288638 0.35484 0.934482 
0.347487 0.775116 -0.527682 -0.911022 -0.201002 0.360051 0.37956 0.209811 0.901063 
-0.972315 -0.0318338 0.231496 0.172219 0.755659 0.631918 -0.789084 0.585705 0.185192 
-0.442092 0.604923 0.662286 -0.774206 -0.561041 0.29298 0.0278364 -0.593118 0.804635 
0 -0.970142 -0.242536 0 -1 0 -0.351123 -0.936329 0 
0.351123 -0.936329 0 0 -0.970142 -0.242536 0 -1 0 
-0.351123 -0.936329 0 0.351123 -0.936329 0 -0.569036 -0.583168 0.579752 
-0.520352 -0.257278 0.814274 0 1 0 0 1 0 
-0.447457 -0.14777 0.882013 0.956602 -0.0585793 -0.28545 0.0141593 -0.46 0.887806 
0.068034 -0.469629 0.880239 -0.0338752 -0.751474 0.658893 0.0518766 -0.808037 0.586843 
-0.368562 -0.0353752 0.92893 0.861597 0.00663435 -0.50755 0.0472531 -0.626797 0.777748 
-0.21731 0.0833293 0.972539 -0.0674101 -0.155846 0.985478 0.571219 0.407398 0.712556 
-0.585592 -0.286199 0.758401 -0.494508 -0.119491 0.86092 0.126929 -0.785387 0.605851 
0.0151702 -0.699594 0.71438 0.0426417 -0.709992 0.702917 0.554949 -0.506438 0.659964 
0.237183 0.687196 -0.686663 -0.296022 -0.279791 0.913284 -0.342986 -0.176836 0.922545 
-0.219121 0.311028 0.924796 -0.17226 -0.490695 -0.854134 -0.741452 -0.658691 -0.127965 
-0.954443 0.0866852 -0.285524 0.588471 -0.220309 -0.777924 0.892718 -0.0794534 -0.443556 
-0.458991 -0.136105 0.877954 0 -0.970142 0.242536 0 -0.970142 0.242536 
0.981159 0.0432359 -0.188302 0.480963 0.351006 0.803411 -0.0352752 -0.526826 0.849241 
-0.21002 -0.441151 -0.872512 -0.613693 -0.552135 -0.564382 0.357742 -0.237065 -0.903228 
-0.635622 -0.635588 -0.438192 -0.16255 -0.506615 -0.846711 -0.767187 -0.575071 -0.284108 
-0.810478 -0.579572 0.0849808 0.964429 0.00682684 -0.264253 -0.756196 -0.352132 0.551516 
-0.231773 -0.0295958 0.97232 0.993092 0.0804488 0.085422 0.99349 0.0474199 -0.10358 
0.880348 0.189734 0.434728 0.778826 0.321216 0.538749 0.187857 0.205482 0.960462 
0.233791 0.193955 0.952745 0.86404 0.0458111 0.501335 -0.850344 -0.455355 -0.263754 
-0.465971 -0.428032 -0.774377 0.239673 -0.219995 -0.9456 0.935752 0.191628 -0.296051 
-0.0671651 -0.528895 -0.846025 0.516739 0.261863 0.815113 -0.0366877 -0.337468 -0.940622 
-0.716181 -0.454305 -0.529804 0.655263 -0.0280189 -0.754881 -0.793821 -0.487998 -0.362914 
0.971774 0.232137 -0.0420534 -0.883845 -0.458925 0.0905892 0.579012 -0.112399 -0.807534 
-0.854425 -0.429882 0.291819 -0.623906 -0.109429 0.7738 -0.570771 -0.0928859 0.815839 
0.936652 0.0443608 0.34744 0.882851 0.193746 0.427827 -0.0689146 0.0560273 0.996048 
0.243466 0.230948 0.942012 0.870687 0.200215 0.449242 0.30171 0.310301 0.90149 
0.630406 0.242 0.73758 -0.916797 -0.399279 -0.00773771 -0.62275 -0.0803054 0.778289 
-0.623629 -0.0975882 0.775605 -0.907291 -0.311327 0.282661 0.410093 0.307037 0.858809 
-0.802793 -0.230939 0.549719 0.604848 0.294712 0.7398 -0.545295 -0.0743442 0.834941 
-0.436873 0.00817569 0.899486 -0.26943 0.0811607 0.959594 0.763201 0.204296 0.613015 
0.158387 0.22717 0.960889 0.414435 0.268051 0.869708 0.539983 0.247242 0.804543 
-0.147168 0.131919 0.980275 -0.0336219 0.134897 0.990289 -0.0098349 0.175623 0.984408 
0.75475 0.233828 -0.612926 -0.394135 -0.152358 -0.906336 -0.00634613 0.249374 -0.968386 
0.831292 -0.542592 0.120613 0.458935 0.332385 -0.823953 0.83184 0.327665 -0.44797 
-0.521094 -0.438031 -0.732523 0.540703 -0.431157 0.722319 0.781403 -0.0752169 0.619477 
-0.300391 0.15099 -0.94179 -0.400342 0.0798408 -0.912881 0.356191 0.322247 -0.877089 
0.967421 0.225776 -0.114552 0.80355 0.271367 -0.52978 0.867102 0.265222 -0.421654 
-0.687534 -0.217351 -0.69286 -0.134104 -0.942744 0.305368 -0.835597 -0.35015 -0.423289 
0.608862 -0.446755 0.655513 -0.826522 -0.545871 0.137427 -0.789194 -0.571521 0.224803 
-0.766627 -0.209922 -0.606808 -0.857679 -0.442078 -0.262589 -0.309905 -0.590262 0.745352 
0.427306 -0.288491 0.856844 -0.249059 -0.522856 0.815225 -0.156427 -0.490007 0.857568 
0.143544 -0.355278 0.923673 -0.868745 -0.491269 -0.062748 -0.655558 -0.596129 0.463546 