# vtk DataFile Version 4.2
vtk output
ASCII
DATASET POLYDATA
POINTS 605 float
263.088 181.285 203.587 262.913 181.3 203.612 264.206 180.979 203.626 
265.138 181.355 203.544 262.98 181.371 203.629 270.411 181.612 203.405 
270.437 181.569 203.415 270.289 181.577 203.449 270.512 181.602 203.437 
269.706 182.124 203.578 269.594 182.025 203.566 270.408 181.687 203.466 
264.091 180.623 203.817 260.786 180.767 204.416 262.444 181.25 203.951 
262.697 180.934 203.886 267.412 180.725 203.759 270.094 181.352 203.559 
266.524 181.713 203.684 268.993 181.553 203.581 269.848 181.752 203.542 
270.535 181.47 203.517 270.77 181.654 203.559 263.172 181.845 204.169 
264.299 182.086 204.084 265.38 181.952 203.824 265.934 182.233 204.079 
267.074 182.024 203.837 269.042 181.995 203.674 270.62 181.897 203.618 
270.234 182.115 203.665 273.318 182.402 204.178 274.072 182.121 204.282 
274.398 182.263 204.406 272.515 182.544 204.146 274.101 182.669 204.521 
274.511 182.505 204.559 257.736 180.206 205.416 259.323 180.34 204.987 
260.84 180.39 204.579 270.832 180.238 204.388 257.179 180.615 205.676 
258.198 180.725 205.334 260.116 180.696 204.734 261.648 180.816 204.287 
259.054 181.186 205.248 260.787 181.124 204.64 274.555 181.634 204.476 
277.279 181.717 205.226 277.231 181.477 205.238 276.946 181.713 205.129 
277.542 181.536 205.337 277.812 181.506 205.499 272.258 182.229 204.002 
276.648 182.067 205.128 277.636 181.853 205.479 265.008 182.492 204.682 
268.326 182.777 204.467 269.341 182.811 204.37 271.611 183.005 204.578 
275.735 182.697 205.159 275.875 182.69 205.156 275.898 182.583 205.106 
266.811 179.487 204.783 275.119 179.774 205.58 256.343 180.255 205.976 
256.592 179.973 205.853 257.058 179.834 205.705 275.996 181.056 205.034 
257.646 181.209 205.819 258.204 181.406 205.743 275.988 182.268 205.055 
276.845 182.506 205.676 276.209 182.684 205.425 268.94 183.283 205.197 
274.459 183.248 205.333 273.762 183.631 205.783 256.133 179.42 206.219 
279.63 179.853 206.84 280.623 179.788 207.401 280.671 179.461 207.561 
280.924 179.658 207.649 254.234 179.865 206.946 259.581 179.029 205.673 
277.316 180.267 205.696 278.068 180.339 205.949 280.349 180.14 207.212 
253.985 180.009 207.108 253.988 180.267 207.223 256.536 181.247 206.435 
257.382 181.681 206.48 278.903 181.091 206.312 280.009 180.892 207.166 
268.892 183.46 205.71 280.107 179.122 207.535 253.903 179.786 207.15 
281.099 179.974 207.805 281.047 180.488 208.068 254.149 180.663 207.408 
255.645 181.613 207.495 257.84 182.116 207.04 278.268 182.327 206.695 
253.849 178.513 207.725 262.286 177.879 207.084 281.203 179.193 208.124 
281.116 179.035 208.231 281.666 179.578 208.533 281.783 179.416 208.783 
252.69 180.585 208.535 280.358 181.336 207.948 254.733 177.341 208.606 
282.075 179.673 209.525 251.245 177.061 210.15 250.158 177.314 210.533 
255.024 176.568 209.563 250.526 178.117 209.973 250.048 178.316 210.289 
281.858 179.046 209.242 250.083 179.368 210.415 251.759 175.961 210.949 
255.875 175.884 210.703 277.233 184.178 210.458 251.576 175.217 211.965 
247.696 176.32 212.511 247.468 176.684 212.453 246.94 177.404 212.61 
281.771 178.086 210.63 247.956 177.89 211.95 281.117 177.846 210.804 
282.669 178.933 211.254 247.372 178.059 212.364 282.786 179.115 211.41 
282.866 178.956 211.785 282.6 179.967 211.128 248.933 180.053 212.241 
246.832 175.515 213.386 282.431 178.114 211.964 282.945 178.695 212.476 
247.126 178.764 212.852 249.675 174.591 213.853 258.158 174.914 213.673 
243.625 176.766 214.609 282.796 178.322 212.547 282.695 178.089 212.849 
250.798 182.031 214.512 281.018 182.654 213.177 242.943 174.869 215.901 
241.73 175.498 216.095 242.038 176.138 215.629 283.088 178.283 214.092 
242.035 177.091 215.612 241.974 177.41 215.768 283.343 178.592 214.559 
245.712 179.179 214.589 282.775 180.801 213.386 282.014 181.821 213.553 
248.298 173.752 215.781 241.652 176.257 215.869 281.832 177.288 214.227 
242.386 178.177 215.971 283.607 179.238 215.28 246.065 179.815 215.128 
279.984 183.664 214.853 231.031 186.761 218.447 231.017 186.716 218.494 
230.977 186.776 218.489 231.07 186.74 218.49 231.058 186.707 218.496 
231.091 186.684 218.578 230.997 186.807 218.484 230.956 186.814 218.538 
231.04 186.792 218.519 230.958 186.86 218.654 249.267 173.485 216.735 
239.019 176.772 218.126 239.803 176.793 217.385 239.466 176.496 217.735 
278.554 176.321 215.461 282.726 177.455 215.648 283.441 178.153 216.17 
283.708 178.505 216.349 283.838 178.6 216.759 283.905 178.862 216.897 
242.349 178.93 216.809 246.2 180.405 216.168 230.963 186.734 218.539 
231.054 186.61 218.692 231.141 186.606 218.797 230.879 186.789 218.707 
230.712 186.888 218.999 230.699 186.986 219.086 230.726 187.089 219.285 
238.242 177.945 219.214 238.915 178.494 218.906 283.857 179.627 217.072 
238.965 178.924 219.318 230.557 186.982 219.323 230.286 187.25 220.008 
230.578 187.258 219.636 242.444 173.268 218.947 240.2 174.487 218.495 
283.764 178.24 217.608 283.942 178.546 218.016 284.003 179.272 217.799 
237.946 178.627 219.898 231.361 186.331 219.55 276.968 184.909 217.413 
230.525 186.746 219.42 230.344 186.755 219.715 275.196 184.955 218.36 
230.107 187.243 220.386 230.198 187.48 220.575 237.386 177.7 220.12 
237.386 178.246 220.2 237.237 178.636 220.529 237.22 179.179 220.95 
237.902 179.428 220.749 230.993 185.531 220.407 231.389 185.643 220.206 
279.782 184.094 219.204 230.183 186.502 220.279 230.31 186.23 220.28 
231.674 186.082 220.583 229.974 187.012 220.64 229.947 187.693 221.298 
230.183 187.675 221.014 230.429 187.594 220.903 238.844 174.98 219.567 
236.598 178.166 220.961 284.095 179.386 219.507 230.914 185.015 221.099 
231.776 185.295 220.911 231.025 187.362 221.536 229.847 187.615 221.461 
229.716 187.523 221.981 229.911 187.737 221.751 235.5 179.579 222.088 
284.034 179.9 220.724 235.756 180.397 222.397 235.19 180.961 222.752 
237.218 180.357 222.16 267.398 183.561 220.498 230.221 184.876 222.062 
230.471 185.347 221.151 231.779 184.687 221.337 232.283 184.758 221.791 
230.111 185.801 221.235 229.833 185.621 222.079 232.151 185.887 222.098 
229.533 187.217 222.463 283.317 177.438 221.744 234.291 180.058 222.64 
233.544 181.147 222.817 244.226 181.309 222.298 234.22 181.89 222.97 
235.515 181.65 223.399 234.768 182.128 223.39 236.616 181.192 223.269 
232.175 183.147 222.313 233.095 182.811 222.626 233.71 182.887 223.007 
282.908 181.877 222.146 230.958 183.514 222.487 231.476 183.747 222.02 
232.369 183.863 222.077 232.774 184.713 222.631 229.721 187.75 223.233 
236.78 174.318 223.818 235.353 176.448 223.072 235.171 177.806 222.419 
231.69 181.031 223.748 232.322 181.294 223.126 238.06 180.9 223.04 
238.482 180.983 223.306 235.78 182.139 224.3 244.406 181.465 223.139 
277.626 184.698 223.019 229.44 187.574 224.439 230.191 187.901 223.362 
238.032 172.921 225.078 234.902 175.637 224.639 229.29 185.466 224.146 
239.957 171.946 225.296 259.762 173.225 225.043 232.233 177.952 226.123 
283.845 178.224 223.66 283.809 180.296 224.784 235.316 182.953 225.389 
244.971 181.765 224.997 233.357 185.056 225.15 277.074 184.664 224.729 
231.884 186.862 225.329 280.54 175.917 225.554 283.982 178.719 224.648 
278.233 184.402 226.15 231.111 187.508 225.888 229.573 187.781 226.095 
236.524 173.317 227.379 283.908 179.706 225.757 238.007 181.935 227.085 
280.195 183.679 227.446 229.955 187.874 226.376 230.378 187.773 227.374 
282.357 176.786 227.53 283.231 177.626 227.611 283.742 178.636 227.559 
282.438 182.159 228.594 234.525 183.988 228.284 280.726 183.39 228.005 
230.263 187.736 228.132 232.872 176.596 228.956 231.227 178.911 228.904 
283.534 178.123 228.166 277.525 184.408 229.034 229.02 186.411 229.657 
230.577 187.633 228.924 242.208 171 229.333 281.811 176.42 229.018 
229.544 187.551 230.833 283.272 177.539 231.026 231.79 178.535 230.594 
283.846 179.821 230.471 239.302 181.658 230.452 236.394 182.326 231.072 
245.329 181.894 230.421 277.231 184.479 231.577 229.504 187.7 231.74 
229.438 187.707 232.173 229.581 187.811 232.231 283.594 177.877 231.721 
231.769 179.149 231.25 283.986 178.827 232.203 229.084 186.502 232.392 
231.131 187.316 232.352 229.312 187.543 233.064 236.903 173.593 232.167 
284.005 179.319 232.598 230.456 181.966 231.789 235.502 182.003 232.893 
233.148 184.472 232.438 229.862 187.927 232.95 230.4 187.797 233.125 
231.585 180.339 232.064 283.916 179.864 233.86 234.631 182.072 233.3 
236.296 181.439 233.44 230.925 183.224 233.603 233.523 182.936 233.382 
232.714 184.567 233.341 232.072 185.89 233.722 229.316 187.453 234.351 
236.578 175.907 235.284 233.386 180.697 233.667 234.842 179.664 234.47 
232.412 181.923 233.595 233.311 181.727 233.721 234.305 181.158 233.861 
232.106 182.847 233.896 232.779 182.766 233.789 233.705 182.127 233.623 
235.586 181.043 234.032 230.728 183.981 234.166 232.639 183.814 233.835 
282.033 182.54 234.929 282.496 182.079 235.31 232.201 184.861 234.259 
280.472 183.607 234.733 232.085 185.381 234.338 229.574 186.356 234.887 
229.348 187.204 234.753 229.463 187.798 235.302 235.491 178.843 235.122 
235.956 178.839 235.534 236.427 180.524 234.731 231.3 183.934 234.462 
232.171 183.808 234.235 282.66 181.883 236.375 231.664 184.788 235.049 
229.91 185.552 234.777 229.469 186.924 235.172 231.462 186.765 234.97 
231.523 186.502 235.438 229.444 187.387 235.519 229.443 187.675 235.571 
241.828 172.769 236.638 236.583 177.581 236.241 236.981 177.06 236.629 
236.467 178.257 236.106 242.647 180.679 236.751 282.044 182.444 237.269 
230.983 185.476 235.886 231.417 185.239 235.528 231.584 185.889 235.662 
231.093 187.187 235.908 229.549 187.874 236.163 229.583 187.94 236.009 
237.455 177.919 237.263 236.967 178.756 236.459 278.788 184.318 238.153 
230.353 187.809 236.497 229.684 187.92 236.657 229.775 187.962 236.539 
241.352 173.963 239.002 239.558 174.642 238.158 231.164 186.203 236.802 
[...]
POINT_DATA 605
SCALARS scalars float
LOOKUP_TABLE default
1 1 1 1 1 1 1 1 1 
1 1 1 1 1 1 1 1 1 
1 1 1 1 1 1 1 1 1 
1 1 1 1 1 1 1 1 1 
1 1 1 1 1 1 1 1 1 
1 1 1 1 1 1 1 1 1 
1 1 1 1 1 1 1 1 1 
1 1 1 1 1 1 1 1 1 
1 1 1 1 1 1 1 1 1 
1 1 1 1 1 1 1 1 1 
1 1 1 1 1 1 1 1 1 
1 1 1 1 1 1 1 1 1 
1 1 1 1 1 1 1 1 1 
1 1 1 1 1 1 1 1 1 
1 1 1 1 1 1 1 1 1 
1 1 1 1 1 1 1 1 1 
1 1 1 1 1 1 1 1 1 
1 1 1 1 1 1 1 1 1 
1 1 1 1 1 1 1 1 1 
1 1 1 1 1 1 1 1 1 
1 1 1 1 1 1 1 1 1 
1 1 1 1 1 1 1 1 1 
1 1 1 1 1 1 1 1 1 
1 1 1 1 1 1 1 1 1 
1 1 1 1 1 1 1 1 1 
1 1 1 1 1 1 1 1 1 
1 1 1 1 1 1 1 1 1 
1 1 1 1 1 1 1 1 1 
1 1 1 1 1 1 1 1 1 
1 1 1 1 1 1 1 1 1 
1 1 1 1 1 1 1 1 1 
1 1 1 1 1 1 1 1 1 
1 1 1 1 1 1 1 1 1 
1 1 1 1 1 1 1 1 1 
1 1 1 1 1 1 1 1 1 
1 1 1 1 1 1 1 1 1 
1 1 1 1 1 1 1 1 1 
1 1 1 1 1 1 1 1 1 
1 1 1 1 1 1 1 1 1 
1 1 1 1 1 1 1 1 1 
1 1 1 1 1 1 1 1 1 
1 1 1 1 1 1 1 1 1 
1 1 1 1 1 1 1 1 1 
1 1 1 1 1 1 1 1 1 
1 1 1 1 1 1 1 1 1 
1 1 1 1 1 1 1 1 1 
1 1 1 1 1 1 1 1 1 
1 1 1 1 1 1 1 1 1 
1 1 1 1 1 1 1 1 1 
1 1 1 1 1 1 1 1 1 
1 1 1 1 1 1 1 1 1 
1 1 1 1 1 1 1 1 1 
1 1 1 1 1 1 1 1 1 
1 1 1 1 1 1 1 1 1 
1 1 1 1 1 1 1 1 1 
1 1 1 1 1 1 1 1 1 
1 1 1 1 1 1 1 1 1 
1 1 1 1 1 1 1 1 1 
1 1 1 1 1 1 1 1 1 
1 1 1 1 1 1 1 1 1 
1 1 1 1 1 1 1 1 1 
1 1 1 1 1 1 1 1 1 
1 1 1 1 1 1 1 1 1 
1 1 1 1 1 1 1 1 1 
1 1 1 1 1 1 1 1 1 
1 1 1 1 1 1 1 1 1 
1 1 1 1 1 1 1 1 1 
1 1 
NORMALS Normals float
-0.098627 -0.11484 -0.988476 -0.385003 0.0434773 -0.921891 -0.0389948 -0.425264 -0.904229 
0.0250161 -0.0232218 -0.999417 -0.192438 0.575891 -0.794555 -0.0136756 0.227585 -0.973662 
0.0852401 -0.444597 -0.891666 -0.222507 -0.190044 -0.956229 0.388256 0.0704449 -0.918855 
-0.0294036 0.436033 -0.89945 -0.125709 0.116597 -0.985192 0.0443178 0.527903 -0.848147 
-0.0634209 -0.591891 -0.803519 -0.295106 0.0528324 -0.954003 -0.478513 0.305839 -0.823097 
-0.261028 -0.4432 -0.857577 0.0183316 -0.362113 -0.931954 -0.0301156 -0.345266 -0.938021 
-0.0084844 0.356685 -0.934186 -0.0515502 0.0970105 -0.993947 -0.0591157 0.145535 -0.987585 
0.223068 -0.536143 -0.81412 0.321848 0.0148313 -0.946675 -0.286438 0.768589 -0.572035 
-0.141676 0.808896 -0.570627 -0.0530675 0.685952 -0.725709 -0.0144337 0.777069 -0.62925 
-0.0332765 0.641779 -0.766168 -0.139822 0.406286 -0.902985 0.114333 0.46558 -0.877589 
0.109411 0.513539 -0.851062 0.136003 0.490633 -0.860687 0.219188 0.179295 -0.959067 
0.321333 0.257178 -0.911375 0.0583364 0.654444 -0.753857 0.209456 0.589121 -0.780426 
0.257981 0.539443 -0.801528 -0.239207 -0.115688 -0.964052 -0.272295 -0.150584 -0.950358 
-0.173855 -0.432613 -0.884658 0.144984 -0.651588 -0.744588 -0.390521 0.30538 -0.868468 
-0.273857 0.302701 -0.912893 -0.359591 0.0854409 -0.92919 -0.161165 -0.447936 -0.87942 
-0.267699 0.298957 -0.915949 -0.31232 0.457895 -0.832339 0.261197 -0.198126 -0.944734 
0.363519 0.146181 -0.920046 0.299275 -0.301395 -0.905315 0.195375 -0.0634841 -0.978672 
0.454134 -0.0826154 -0.887095 0.593299 -0.0014218 -0.804981 0.102693 0.261365 -0.959762 
0.344679 0.504604 -0.791563 0.528283 0.432519 -0.730647 -0.095437 0.899598 -0.426163 
-0.134211 0.842354 -0.521945 0.0169532 0.823134 -0.567594 0.0315134 0.700137 -0.713313 
0.115547 0.399617 -0.909371 0.236633 0.557971 -0.795408 0.261437 0.343817 -0.901909 
0.0153511 -0.804534 -0.593709 0.155645 -0.692954 -0.703981 -0.451924 0.173229 -0.875075 
-0.396933 -0.32613 -0.857953 -0.346735 -0.400243 -0.848281 0.215277 -0.246505 -0.944929 
-0.317451 0.641311 -0.69853 -0.2945 0.638296 -0.71123 0.287411 0.248092 -0.925119 
0.397341 0.752671 -0.524982 0.487959 0.656489 -0.575256 0.0268161 0.918577 -0.394332 
0.210591 0.811889 -0.544506 0.0908364 0.924975 -0.369013 -0.371843 -0.374983 -0.849188 
0.441829 -0.343667 -0.828662 0.44527 -0.222048 -0.867427 0.371461 -0.432935 -0.821331 
0.648457 -0.143588 -0.747587 -0.433682 -0.0979133 -0.89573 -0.10055 -0.714602 -0.692268 
0.222974 -0.486653 -0.84466 0.387875 -0.398873 -0.830935 0.561621 0.0207908 -0.827133 
-0.602016 0.225842 -0.76588 -0.536598 0.398019 -0.744072 -0.2724 0.746727 -0.606792 
-0.339557 0.760546 -0.553417 0.600672 0.197458 -0.774728 0.657734 0.405885 -0.634542 
-0.0329481 0.960598 -0.275981 0.236074 -0.742866 -0.626434 -0.653167 -0.0390805 -0.756205 
0.745273 0.0944254 -0.660039 0.783642 0.44717 -0.431212 -0.411457 0.711828 -0.569213 
-0.408009 0.670094 -0.620082 -0.184643 0.930544 -0.31622 0.517562 0.705533 -0.4841 
-0.422326 -0.544927 -0.724358 0.00772693 -0.819803 -0.572594 0.633658 -0.452162 -0.627716 
0.538222 -0.701969 -0.466429 0.832949 -0.206426 -0.513404 0.905188 -0.0136403 -0.424792 
-0.578322 0.5371 -0.614057 0.677301 0.631414 -0.377597 -0.136847 -0.757502 -0.638329 
0.936365 0.0753227 -0.342853 -0.362142 -0.602856 -0.710928 -0.588916 -0.47631 -0.652921 
-0.139618 -0.769402 -0.623319 -0.551341 -0.165161 -0.817769 -0.854008 -0.0600521 -0.516783 
0.665235 -0.588863 -0.459023 -0.73044 0.122827 -0.671842 -0.206323 -0.759794 -0.616558 
0.0376286 -0.907769 -0.41778 0.349299 0.912719 -0.211978 -0.260391 -0.791232 -0.553307 
-0.439995 -0.389157 -0.809297 -0.417881 -0.276792 -0.86531 -0.650017 -0.0576756 -0.757728 
0.589244 -0.740987 -0.32207 -0.57411 0.151496 -0.80464 0.213119 -0.925449 -0.313248 
0.862403 -0.307533 -0.4021 -0.431225 0.0640212 -0.89997 0.930588 -0.0525219 -0.362281 
0.962306 -0.136578 -0.235189 0.916206 0.248442 -0.314393 -0.562987 0.628109 -0.537145 
-0.335508 -0.591376 -0.733286 0.737484 -0.611555 -0.286562 0.903388 -0.380039 -0.198649 
-0.593449 0.421186 -0.685872 -0.10625 -0.855297 -0.507128 0.0274513 -0.943428 -0.330439 
-0.492118 0.0127861 -0.870435 0.854727 -0.478292 -0.201688 0.556552 -0.811762 -0.176898 
-0.25133 0.943916 -0.214139 0.625814 0.730629 -0.273018 -0.330056 -0.722867 -0.607064 
-0.555012 -0.428234 -0.713146 -0.481466 -0.242584 -0.842226 0.84446 -0.459677 -0.274927 
-0.524856 0.189084 -0.829924 -0.581902 0.391649 -0.712742 0.910736 -0.27154 -0.311167 
-0.579445 0.550259 -0.601214 0.856934 0.457312 -0.237762 0.72594 0.686466 -0.0421368 
-0.128141 -0.922433 -0.364275 -0.642462 -0.0651517 -0.763543 0.40331 -0.887341 -0.223531 
-0.457654 0.541205 -0.705443 0.961552 -0.0358658 -0.272271 -0.57225 0.690428 -0.442536 
0.491301 0.860954 -0.13184 0.156894 0.0178023 -0.987455 -0.444085 -0.694255 -0.566391 
-0.784784 -0.0940386 -0.612593 0.92138 0.0442424 -0.386137 0.351161 -0.708703 -0.611903 
0.730842 -0.555175 -0.397053 -0.154358 0.792541 -0.589959 -0.733022 0.522798 -0.435156 
0.59124 0.774807 -0.22385 -0.219279 0.902751 -0.370078 -0.0118508 -0.966093 -0.257921 
-0.72602 -0.144287 -0.672366 -0.653623 -0.118456 -0.747493 -0.63613 -0.10811 -0.763971 
0.180151 -0.965314 -0.188983 0.599328 -0.790578 -0.125672 0.83473 -0.516532 -0.19084 
0.938034 -0.204958 -0.279438 0.933069 -0.34016 -0.116938 0.975855 -0.0254177 -0.216936 
-0.494358 0.645159 -0.582564 -0.402849 0.83765 -0.368857 -0.6824 -0.578743 -0.446528 
0.112793 -0.856993 -0.502833 0.809155 -0.426835 -0.403831 -0.899488 0.0530008 -0.433719 
-0.861837 -0.102324 -0.496757 -0.65298 0.577809 -0.489647 0.0199974 0.941128 -0.337458 
-0.646972 0.333945 -0.685498 -0.577428 0.526892 -0.623668 0.94468 0.291138 -0.151056 
-0.378625 0.745899 -0.547977 -0.785293 0.405685 -0.467691 -0.803218 0.397908 -0.443296 
-0.144434 0.907842 -0.393652 -0.193561 -0.937914 -0.287839 -0.554735 -0.616789 -0.558426 
0.803612 -0.58483 -0.110372 0.930457 -0.366392 -0.00240292 0.993315 -0.0659069 -0.0947697 
-0.590553 0.418836 -0.689799 0.961057 0.0879162 -0.261993 0.0221289 0.994392 -0.103415 
-0.851756 -0.234333 -0.468615 -0.859036 -0.198485 -0.47187 -0.0279367 0.996441 -0.0795348 
-0.892265 0.316404 -0.322106 -0.538626 0.761516 -0.360521 -0.736369 0.0462706 -0.674997 
-0.69697 0.188047 -0.692006 -0.65142 0.381927 -0.655579 -0.471666 0.531829 -0.703342 
-0.367707 0.696209 -0.616509 -0.538097 -0.684306 -0.492114 0.170563 -0.766553 -0.619116 
0.537157 0.831611 0.141015 -0.915766 -0.329229 -0.230177 -0.794657 -0.494654 -0.351906 
0.923085 0.239666 -0.30079 -0.962452 0.00778338 -0.27134 -0.640193 0.704446 -0.306446 
0.154041 0.98188 -0.110381 0.221251 0.953127 -0.206389 -0.590627 -0.684354 -0.427574 
-0.666131 0.196608 -0.719455 0.972585 0.231618 -0.0207687 -0.325367 -0.604115 -0.727448 
0.775555 -0.34757 -0.526982 0.672897 0.738712 -0.0389052 -0.925599 0.309074 -0.218494 
-0.798557 0.601775 0.0131616 -0.504101 0.863497 -0.0159664 -0.346798 0.390438 -0.852813 
0.99085 0.132518 0.025611 -0.0435582 0.595646 -0.802065 0.0509452 0.393628 -0.917857 
-0.181965 0.715328 -0.674681 -0.126629 0.991497 -0.0299727 -0.757311 -0.537798 -0.370476 
-0.614214 -0.411314 -0.67347 0.366145 -0.543997 -0.754987 0.791147 -0.0342339 -0.610667 
-0.724153 -0.400249 -0.561608 -0.928721 -0.243297 -0.279793 0.888317 0.457736 -0.0370142 
-0.952466 0.289735 -0.0941335 0.578626 -0.812782 0.0676597 -0.18852 0.338914 -0.921736 
-0.0643691 -0.165654 -0.984081 -0.0619728 0.965074 -0.25454 0.335895 0.316113 -0.88727 
0.255482 0.634292 -0.729659 0.503341 0.562661 -0.65579 0.0988391 0.684602 -0.722185 
-0.123473 -0.407741 -0.904711 0.365495 -0.0443197 -0.929757 0.659934 0.244358 -0.710476 
0.727529 0.681725 -0.077151 -0.564332 -0.590744 -0.576672 -0.0822364 -0.590403 -0.802908 
0.356946 -0.308463 -0.881726 0.875024 0.459063 -0.153607 -0.466806 0.882153 -0.0624363 
-0.554844 -0.724339 -0.409245 -0.743143 -0.408733 -0.529789 -0.704922 -0.215951 -0.675611 
-0.646393 -0.368521 -0.668108 -0.373314 -0.538039 -0.755745 -0.0120875 0.849743 -0.527058 
0.0626523 0.892643 -0.446388 0.548664 0.767708 -0.331047 -0.0826014 0.986156 -0.14378 
0.294869 0.946911 0.128111 -0.888876 0.454824 -0.0550847 0.0372495 0.998575 -0.0382078 
-0.510972 -0.808058 -0.293173 -0.704652 -0.613391 -0.356676 -0.968852 -0.238163 -0.067853 
-0.355916 -0.894397 -0.270884 0.0714574 -0.997429 -0.00547863 -0.803837 -0.53957 -0.250422 
0.823586 -0.549649 0.139973 0.948575 0.309765 0.0652013 0.799047 0.589007 -0.120811 
-0.122086 0.989248 -0.0805224 0.742832 0.581116 -0.332423 0.0837069 0.994381 0.0648053 
0.656033 0.751003 -0.0749314 0.398274 -0.914668 -0.068992 0.920094 -0.367767 0.134815 
0.114877 0.991646 0.0586651 0.507152 0.861605 0.0208133 -0.492739 0.869688 0.0291632 
-0.538575 -0.839729 -0.0692276 0.990906 -0.0305961 -0.131031 0.238316 0.968175 -0.0764327 
0.433644 0.900688 -0.0267118 -0.00869949 0.997591 0.0688221 0.041309 0.994922 0.0917841 
0.624246 -0.774759 -0.10033 0.772863 -0.634565 -0.00314149 0.911781 -0.405004 -0.0680172 
0.696511 0.716747 0.0338604 0.691941 0.720493 0.0459062 0.475759 0.866282 0.152345 
0.196115 0.978447 0.0646553 -0.635746 -0.730422 0.249621 -0.915152 -0.403018 0.00850696 
0.920163 -0.391075 -0.0189708 0.235878 0.968189 0.0834946 -0.967086 0.249791 -0.0484628 
0.335858 0.941881 0.00775431 -0.140359 -0.989655 0.0296938 0.411053 -0.908222 0.078536 
-0.363674 0.930771 -0.0374976 0.759246 -0.650299 -0.0256336 -0.730262 -0.569848 0.376816 
0.991766 0.126974 0.0166614 0.272778 0.95075 0.147197 0.459649 0.86648 0.194771 
-0.153932 0.98746 0.035041 0.155664 0.986426 0.0522813 -0.634665 0.752339 -0.176597 
-0.800371 0.594644 -0.0761859 -0.265522 0.959797 -0.0910366 0.677007 -0.735212 0.033539 
-0.705005 -0.512029 0.490708 0.979119 -0.19767 -0.047461 -0.975017 -0.189506 0.115887 
0.695409 0.718202 0.0243426 -0.927104 0.373428 -0.0320807 -0.550878 -0.794564 0.255346 
0.961466 0.272636 -0.035384 -0.844092 -0.428679 0.322093 0.371639 0.731112 0.572154 
0.72047 0.569681 0.395457 0.079705 0.989141 -0.123477 0.434367 0.899951 -0.0376109 
-0.546628 -0.440848 0.711935 0.951038 0.300438 0.072546 0.273629 0.507842 0.816837 
0.0694703 0.851721 0.51937 -0.512517 -0.514486 0.687481 0.475802 0.374778 0.79571 
0.888542 0.352659 0.293469 0.916781 0.376259 0.133943 -0.993398 -0.112964 -0.0199664 
-0.780246 -0.360309 0.511267 -0.383083 -0.116513 0.916336 -0.498495 0.122986 0.858124 
-0.266828 -0.309509 0.912692 -0.0597835 0.00041523 0.998211 -0.0574667 0.29922 0.952452 
-0.119618 -0.454408 0.882726 0.269414 -0.0454092 0.961953 0.253502 0.279097 0.926197 
-0.013101 0.641181 0.767278 -0.611387 -0.624769 0.485664 0.74407 0.15587 0.649665 
0.716022 0.698032 -0.00792648 0.696312 0.71595 0.050651 0.863183 0.124604 0.489274 
0.406699 0.904398 0.129074 0.933471 0.154306 0.323761 -0.941186 -0.320041 0.108364 
-0.965439 -0.258304 -0.0347305 -0.947973 0.316261 0.0364117 -0.661623 0.106118 0.742289 
-0.69765 0.143415 0.701938 -0.185698 0.638064 0.747255 -0.129955 -0.609346 0.782182 
0.549932 -0.216402 0.806688 0.829695 0.514291 0.217049 0.875325 -0.00744512 0.483478 
-0.810436 -0.478156 0.338468 -0.869808 -0.467959 0.156361 0.845914 0.529563 0.063191 
0.949597 0.26507 0.167341 -0.954212 -0.207939 0.215038 -0.993673 0.0923952 0.0638467 
-0.262542 -0.903756 0.338078 -0.802828 -0.0717804 0.591874 -0.783352 -0.109824 0.611799 
-0.803971 -0.0386743 0.59341 -0.0806627 0.972418 0.218851 0.607118 0.683493 0.405271 
0.0956487 -0.702799 0.704929 0.582907 -0.483204 0.653248 0.941061 -0.00879933 0.338121 
0.832867 0.531741 0.153569 -0.948699 0.277409 0.151702 -0.593074 0.804884 0.0205982 
-0.322906 0.724838 0.608557 -0.591642 0.26969 0.759755 0.353954 0.935261 0.00198327 
0.488753 0.869299 0.0737538 -0.620098 0.758168 0.201644 0.0610484 0.996643 0.0545472 
-0.405687 -0.784767 0.46857 -0.596621 -0.654881 0.463869 0.413817 -0.681532 0.603547 
-0.111115 0.992223 -0.0560911 -0.715289 -0.49716 0.491115 -0.824668 -0.37771 0.421019 
-0.838631 -0.229113 0.494172 -0.940114 -0.11267 0.3217 -0.896865 0.267807 0.352013 
-0.683642 0.568773 0.457309 -0.128019 0.957467 0.258589 0.958104 -0.276794 0.0736369 
0.994208 0.0718685 0.0799049 0.828374 0.556554 0.0635958 0.294699 -0.712794 0.636457 
-0.632292 -0.368943 0.68124 0.6523 0.63853 0.408393 -0.78661 0.115806 0.606494 
-0.790019 -0.130917 0.598941 -0.780562 0.33402 0.528351 -0.257715 0.834179 0.487574 
0.223839 0.951112 0.212794 -0.494974 -0.587712 0.639996 0.317237 -0.945509 0.0732986 
-0.750745 -0.190422 0.632551 0.85042 -0.497783 0.170288 0.937229 -0.285405 0.200363 
-0.247751 -0.750339 0.612871 0.650083 -0.405838 0.642408 0.909131 0.00986681 0.416394 
0.859851 0.255512 0.442007 -0.347305 -0.12407 0.929508 0.0121148 0.33421 0.942421 
0.11779 0.25424 0.959942 0.47713 0.454791 0.752006 -0.199966 -0.0832935 0.976256 
-0.563146 0.332198 0.756645 0.672769 0.671916 0.309696 -0.0482641 0.961269 0.271353 
-0.229824 -0.918511 0.321744 -0.192051 -0.935394 0.296909 -0.61783 -0.43632 0.654149 
0.747266 -0.640571 0.176812 -0.732822 0.0111875 0.680329 -0.619402 0.0497936 0.783494 
-0.796539 0.183307 0.576128 -0.46642 0.581854 0.666257 -0.633886 0.285043 0.718984 
0.993336 0.083047 0.0799236 0.652936 0.752807 0.0834003 -0.142719 -0.466677 0.872836 
0.553713 -0.285838 0.782112 -0.387285 -0.268641 0.881954 0.51173 0.0515646 0.857597 
0.416889 0.560363 0.71568 0.0474125 -0.962746 0.266219 -0.558774 -0.157734 0.814182 
-0.55498 0.0458807 0.830597 0.649569 -0.759873 -0.0255581 -0.478704 0.54605 0.687512 
-0.546754 0.0700325 0.83436 0.989657 0.00192478 0.143444 0.804777 0.562566 0.18935 
-0.0690551 0.99575 -0.0609335 -0.344767 0.924254 0.163984 0.126028 0.983411 0.130455 
0.146974 0.982861 0.111283 -0.354614 -0.757626 0.547953 -0.499753 -0.54495 0.673258 
-0.396151 -0.666018 0.632048 -0.277896 -0.811924 0.513375 -0.615319 -0.31716 0.721659 
-0.383825 -0.215649 0.897872 -0.621542 0.10351 0.776512 -0.497001 -0.118996 0.859552 
0.469164 -0.85875 0.205993 0.815601 -0.577066 -0.0423179 0.949798 -0.308499 0.0520801 
-0.530676 0.510662 0.676467 -0.0376657 -0.859864 0.509132 0.873086 -0.453389 0.17933 
0.963213 0.134887 0.232433 0.420062 0.882159 0.212941 -0.2645 -0.637479 0.723643 
-0.212273 -0.553019 0.805673 -0.325154 -0.626785 0.708107 -0.049354 -0.806799 0.588761 
-0.428267 -0.492241 0.757817 0.0453386 -0.923238 0.381545 0.0258053 -0.9732 0.228508 
0.94764 -0.20253 0.246902 -0.488016 0.77888 0.393937 -0.33418 0.920865 0.200825 
-0.420568 -0.542179 0.727437 -0.33969 -0.508205 0.791415 0.622044 -0.748333 0.230346 
0.787868 -0.534795 0.305382 0.913326 0.155469 0.376384 -0.518736 -0.205598 0.829845 
-0.33275 -0.281187 0.900117 0.442339 -0.832854 0.332702 0.658762 -0.619413 0.427036 
-0.302706 -0.129083 0.944302 -0.197976 0.955303 0.219548 0.6595 -0.560004 0.501452 
0.824764 -0.268494 0.497669 -0.587335 0.240616 0.77275 -0.174584 -0.76546 0.619347 
-0.332722 -0.629382 0.702263 -0.146196 -0.771047 0.619768 0.21935 -0.847296 0.483709 
-0.505762 -0.537264 0.674946 -0.589116 -0.290638 0.753971 -0.620323 -0.367042 0.693166 
0.853928 0.305133 0.421546 -0.373218 0.752255 0.542974 0.627448 0.652672 0.424652 
-0.463173 0.828066 0.315876 -0.067243 0.965557 0.251352 0.221554 0.954838 0.197984 
-0.516686 -0.406848 0.753332 0.563369 -0.551496 0.615198 0.804831 0.182211 0.564841 
0.614686 0.4864 0.620948 0.681839 0.233545 0.693219 -0.21534 0.914728 0.34191 
0.38326 0.821388 0.422415 -0.357898 -0.42621 0.830815 -0.186706 -0.584211 0.789834 
-0.10016 -0.82014 0.563329 0.19775 -0.751013 0.62998 -0.586634 -0.239836 0.773524 
-0.34111 -0.251549 0.905741 0.0716916 -0.906809 0.415401 0.392593 -0.570013 0.721773 
0.679013 -0.194217 0.70797 0.529341 0.24098 0.813466 0.494498 0.590576 0.637725 
0.17614 -0.737377 0.652112 0.457491 -0.446784 0.768821 -0.289108 -0.338679 0.895384 
0.154439 -0.913413 0.376597 0.115304 -0.827439 0.54959 0.489226 -0.410898 0.769299 
0.568367 -0.0308656 0.822196 -0.378611 0.209528 0.901527 -0.361548 0.555344 0.748917 
-0.375278 0.211682 0.902417 -0.401682 0.564166 0.721366 0.397618 0.375638 0.837136 
0.325375 0.570183 0.754336 0.152407 0.8118 0.563696 0.0348752 -0.728663 0.683984 
-0.391273 -0.0888752 0.915973 -0.282452 -0.564984 0.775251 0.0445192 -0.562796 0.825396 
0.289989 -0.59155 0.752313 0.281545 -0.475585 0.833398 0.350794 -0.204316 0.913892 
-0.571166 0.175394 0.801877 -0.441887 0.18158 0.878501 0.271443 -0.0684566 0.960017 
-0.147609 0.874453 0.462107 -0.129311 0.802976 0.581814 0.361081 0.440096 0.822153 
0.200333 0.622994 0.756138 -0.142555 -0.485202 0.862704 0.226178 -0.551066 0.803224 
0.243539 -0.384936 0.890232 0.175772 -0.32233 0.930166 -0.371536 -0.217994 0.902463 
-0.282038 -0.168272 0.944531 0.0474333 -0.381453 0.923171 0.0371871 -0.492668 0.869423 
0.221979 -0.0986557 0.970048 -0.274561 0.623925 0.731665 -0.261189 0.386059 0.884725 
0.19833 0.122479 0.972453 0.307307 0.202202 0.92988 -0.012034 0.679277 0.733784 
0.151929 0.462524 0.873492 0.0555951 0.0132254 0.998366 -0.384728 0.28542 0.877792 
-0.336161 -0.145256 0.930536 -0.361012 -0.0934516 0.927867 -0.267701 -0.407034 0.873304 
0.0251268 -0.252565 0.967254 0.0147841 0.104639 0.9944 -0.225951 0.425604 0.876246 
0.0302235 0.408352 0.912324 -0.0959717 0.13477 0.986218 0.011686 0.206545 0.978367 
0.082784 0.440122 0.894114 0.0601114 0.4318 0.899964 -0.10225 0.454922 0.884642 
-0.253672 0.0356757 0.966632 -0.157675 -0.173318 0.972162 0.042939 -0.240009 0.969821 
-0.012228 0.384877 0.922887 0.104348 0.0392671 0.993765 -0.1128 -0.0459925 0.992553 
0.764552 0.401662 0.50411 -0.049428 -0.856656 -0.513515 
