# vtk DataFile Version 4.2
vtk output
ASCII
DATASET POLYDATA
POINTS 803 float
264.732 274.103 114.535 265.991 273.622 114.839 267.551 272.404 115.643 
260.383 274.568 114.721 264.207 276.841 115.013 267.382 270.339 116.206 
258.236 271.376 115.85 269.192 272.129 116.439 268.369 273.311 115.984 
268.919 273.694 116.305 267.217 276.57 115.954 259.108 278.094 115.453 
265.399 278.028 115.8 264.269 269.309 116.604 270.691 270.258 117.333 
267.086 278.267 116.643 269.686 275.181 117.117 257.529 282.828 117.357 
264.001 267.709 118.183 273.001 268.027 119.547 243.997 269.481 118.69 
272.845 269.561 118.928 242.092 270.612 118.663 244.253 274.335 118.212 
265.182 282.256 117.875 254.914 284.078 118.408 271.658 266.338 120.018 
273.37 266.276 120.727 274.297 266.715 121.055 269.816 267.328 118.742 
274.488 267.976 120.835 238.686 269.753 119.56 273.834 270.939 119.734 
242.258 272.971 118.583 273.801 273.131 120.072 250.137 281.298 118.387 
250.141 283.934 119.484 263.621 285.157 119.314 257.207 286.013 119.327 
236.439 267.071 120.913 235.983 269.509 120.419 274.911 271.81 120.973 
239.046 274.74 119.945 254.623 286.976 120.638 259.733 286.691 120.052 
261.723 287.093 121.052 273.403 264.704 122.083 236.804 265.788 121.643 
236.424 266.368 121.319 275.314 266.685 122.271 275.04 271.702 121.068 
275.018 271.52 121.06 275.087 271.662 121.133 266.753 284.568 121.267 
249.745 286.197 121.307 264.4 286.297 121.157 263.982 286.557 121.396 
255.112 288.133 122.066 273.623 264.193 122.863 238.953 264.863 122.366 
271.855 263.924 122.67 230.713 265.877 122.89 229.809 266.156 123 
275.148 271.613 121.296 273.118 277.44 121.753 238.623 279.257 121.857 
269.39 282.328 122.184 244.068 284.235 122.111 244.882 285.444 122.828 
265.622 285.669 121.659 247.166 286.384 122.735 257.44 288.211 122.466 
261.233 287.502 122.144 257.071 288.323 122.644 274.061 264.17 123.373 
237.242 263.903 123.717 238.283 263.955 123.592 274.752 264.946 123.217 
244.114 264.486 122.928 227.588 266.213 123.796 228.183 267.639 123.412 
276.002 272.735 123.487 275.674 273.402 123.017 264.512 286.484 122.441 
263.19 287.044 122.645 253.54 288.363 123.548 256.781 288.429 123.587 
256.973 288.389 123.024 228.089 263.602 125.162 227.649 263.102 125.839 
272.577 263.295 124.063 274.186 263.848 124.392 227.242 263.998 124.956 
226.514 263.659 125.383 231.73 263.265 125.07 226.862 264.648 124.63 
275.186 265.185 124.044 225.764 265.454 124.621 227.391 265.256 124.187 
276.398 269.137 124.825 274.642 277.924 124.386 239.893 283.916 124.179 
263.777 286.746 124.033 243.558 286.271 124.986 247.644 287.382 124.286 
257.097 288.313 124.787 259.028 288.078 123.824 272.557 262.904 125.279 
223.18 263.177 126.367 224.922 263.132 126.156 223.759 263.86 125.813 
236.264 262.993 125.512 239.127 263.018 125.305 221.657 264.094 126.215 
221.666 263.966 126.279 221.838 264.057 126.197 223.472 264.291 125.653 
221.641 264.315 126.206 223.184 264.945 125.533 223.123 266.089 125.455 
224.237 265.735 125.046 275.885 266.504 125.078 234.305 280.976 125.277 
269.003 262.508 126.345 269.993 262.555 126.112 223.231 262.309 127.259 
229.099 262.598 126.833 273.332 263.244 125.603 238.043 262.799 126.045 
263.805 262.845 125.821 221.315 264.029 126.452 224.083 269.783 125.568 
276.724 273.602 126.36 274.724 278.755 125.984 273.439 279.857 125.377 
233.425 281.743 126.689 270.26 282.43 125.427 260.96 287.427 125.416 
245.039 287.179 126.519 220.506 262.112 128.209 222.826 261.744 128.114 
219.083 262.378 128.549 271.327 262.698 126.624 218.716 263.188 128.191 
233.921 262.71 127.408 274.038 263.765 126.358 274.816 264.466 126.062 
217.843 263.856 128.587 274.258 279.347 126.376 234.106 282.991 128.064 
218.807 262.025 129.552 218.532 262.27 129.249 220.175 261.622 129.329 
218.225 262.441 129.341 217.99 262.741 129.282 223.331 261.438 128.885 
230.476 262.535 128.085 240.107 262.422 128.024 242.553 262.21 128.044 
252.2 262.2 127.711 217.226 267.18 128.801 220.023 270.277 127.74 
276.082 277.029 127.715 231.131 280.972 127.884 230.909 281.461 129.033 
270.071 282.428 127.487 238.475 285.208 128.42 240.633 286.028 128.286 
260.061 286.881 127.697 243.348 286.862 128.137 218.783 261.909 130.06 
220.555 261.462 129.68 264.074 262.41 128.879 264.228 262.446 128.935 
232.486 262.758 128.614 239.212 262.606 128.917 265.008 262.524 128.699 
269.908 262.973 128.425 271.406 263.169 128.041 273.565 263.71 127.134 
216.773 264.314 129.903 216.317 265.178 130.172 216.233 266.632 129.829 
216.216 267.832 129.957 221.824 272.963 127.916 276.68 274.869 128.866 
275.778 277.524 129.148 229.855 280.592 128.656 272.609 280.522 128.722 
266.63 283.893 128.58 247.936 287.602 128.979 217.57 262.877 130.239 
225.296 261.633 129.684 262.983 262.429 129.373 216.858 263.826 130.714 
234.555 263.206 129.804 275.366 267.692 129.553 216.096 268.286 130.369 
216.326 270.075 130.808 217.012 272.062 131.197 276.111 276.934 129.381 
224.667 278.658 130.641 231.955 282.458 130.531 238.046 285.045 130.44 
254.723 287.56 128.744 218.291 262.072 130.667 218.444 262.021 130.829 
220.789 261.39 130.589 218.182 262.192 130.896 260.971 262.431 130.4 
217.667 262.717 131.11 217.287 263.243 131.105 239.724 263.024 130.568 
264.252 262.927 130.148 216.305 264.841 131.59 273.842 265.046 128.976 
272.334 265.106 130.182 215.664 267.363 131.364 215.628 268.582 131.692 
276.329 275.374 130.076 225.661 279.675 131.672 271.35 280.504 130.55 
221.57 261.405 131.201 249.997 261.51 131.695 227.02 262.761 131.944 
241.303 263.12 131.723 228.591 263.333 131.876 239.039 263.84 131.574 
240.412 264.221 132.619 239.537 264.957 132.893 236.604 265.735 132.702 
274.161 267.371 130.919 215.529 268.181 132.042 276.034 271.283 130.865 
216.309 271.938 132.971 275.211 276.799 131.445 274.314 278.047 131.222 
225.819 279.902 132.269 238.924 284.924 132.605 262.823 264.029 132.303 
268.926 267.237 133.255 215.716 270.071 132.66 275.171 275.344 132.499 
219.528 276.408 133.783 274.223 276.806 132.698 230.24 281.707 133.385 
221.748 262.341 133.652 216.83 264.708 133.757 216.813 264.779 134.004 
216.731 264.884 133.982 216.999 264.705 134.135 217.853 263.699 133.653 
216.27 265.523 133.561 216.588 265.227 134.024 263.622 266.594 134.295 
231.26 267.466 134.537 239.137 267.24 134.422 231.793 268.558 135.116 
275.289 270.715 132.108 216.49 272.735 134.424 274.41 274.989 133.472 
249.547 286.277 133.071 250.535 261.879 133.642 230.46 269.011 135.931 
271.467 270.117 134.365 235.67 270.029 135.625 237.252 270.046 135.8 
233.091 270.778 136.286 271.684 276.431 134.524 226.697 280.217 134.918 
246.389 262.703 134.944 220.864 263.131 134.925 254.595 263.198 135.104 
244.082 264.188 135.102 216.067 267.714 134.829 230.072 269.197 136.258 
273.65 270.73 133.788 240.532 269.876 136.864 274.407 271.796 133.649 
273.823 273.401 134.231 221.637 278.076 136.154 265.719 279.788 135.389 
223.895 279.084 136.033 227.714 280.138 135.837 231.337 281.283 135.377 
234.004 282.289 135.154 251.468 262.491 134.897 255.216 264.937 136.808 
262.973 271.044 137.373 269.623 271.928 135.545 273.657 272.056 134.242 
216.702 272.412 136.368 235.558 273.036 137.307 269.304 275.472 136.002 
266.794 278.179 136.146 223.682 278.886 136.625 231.288 280.881 135.899 
223.536 264.441 136.616 220.797 264.837 137.089 230.648 273.394 138.215 
233.191 273.465 137.591 268.896 273.98 136.259 232.034 276.394 138.253 
234.538 275.719 138.116 266.26 276.763 137.1 224.796 278.709 137.679 
260.968 279.988 137.896 227.507 279.329 136.982 232.345 280.477 136.673 
256.134 282.252 137.852 244.572 284.196 137.184 218.954 267.676 138.541 
217.092 269.577 137.541 239.519 274.626 138.964 240.982 274.371 139.618 
265.875 275.356 137.546 229.224 276.016 138.917 229.326 275.58 138.946 
220.035 276.222 138.641 228.805 276.962 138.747 230.318 276.716 138.482 
237.73 276.984 138.874 228.666 277.685 138.404 263.406 277.956 138.048 
229.194 278.419 137.849 234 278.92 137.847 228.162 278.836 137.553 
238.263 278.904 139.056 237.471 279.889 138.472 237.481 281.357 137.679 
251.918 266.132 139.171 221.494 266.184 138.612 253.089 266.644 139.169 
223.953 267.869 139.547 218.45 269.231 139.031 227.328 270.103 138.667 
217.932 271.621 138.95 227.21 271.78 139.548 227.389 272.827 139.751 
242.367 273.903 140.296 219.183 274.953 139.206 227.183 275.911 139.768 
241.158 276.208 140.325 223.68 277.576 139.355 226.407 277.651 138.913 
227.827 277.753 138.528 222.132 266.906 139.28 260.298 275.008 140.399 
226.033 275.812 140.427 240.991 276.965 140.378 260.94 276.525 140.05 
249.185 267.703 140.498 223.187 269.086 140.686 247.749 268.43 140.588 
224.257 270.084 140.859 219.576 271.116 140.67 219.978 270.548 140.811 
258.69 275.017 141.292 220.084 274.917 140.51 225.024 275.919 140.95 
221.912 276.376 140.607 223.255 276.705 140.594 224.045 276.147 141.17 
258.873 277.364 141.042 242.47 278.227 141.42 250.931 281.245 141.284 
250.045 281.84 140.781 221.625 269.273 140.804 249.727 270.17 142.046 
220.092 272.337 141.227 224.673 273.654 141.841 255.596 273.971 142.553 
220.775 275.047 141.072 244.954 275.812 142.645 243.343 278.76 141.906 
243.639 280.108 141.583 244.432 280.468 141.754 246.28 281.457 141.427 
221.591 271.265 141.708 220.982 272.219 141.744 252.578 272.309 142.94 
220.592 273.26 141.606 224.044 274.81 142.164 246.735 275.398 143.624 
221.945 275.181 141.959 223.158 275.571 141.987 244.194 278.012 142.503 
249.382 279.957 142.933 245.265 280.018 142.447 222.595 271.695 142.072 
222.051 272.361 142.204 223.58 273.195 142.443 222.01 273.011 142.36 
223.306 274.051 142.618 221.996 274.484 142.293 223.214 274.509 142.587 
222.948 274.283 142.681 223.06 274.125 142.684 253.306 274.844 143.604 
222.737 274.434 142.609 222.903 274.877 142.477 223.193 274.864 142.551 
223.357 274.849 142.529 247.253 276.416 143.897 244.888 279.136 142.718 
[...]
POINT_DATA 803
SCALARS scalars float
LOOKUP_TABLE default
1 1 1 1 1 1 1 1 1 
1 1 1 1 1 1 1 1 1 
1 1 1 1 1 1 1 1 1 
1 1 1 1 1 1 1 1 1 
1 1 1 1 1 1 1 1 1 
1 1 1 1 1 1 1 1 1 
1 1 1 1 1 1 1 1 1 
1 1 1 1 1 1 1 1 1 
1 1 1 1 1 1 1 1 1 
1 1 1 1 1 1 1 1 1 
1 1 1 1 1 1 1 1 1 
1 1 1 1 1 1 1 1 1 
1 1 1 1 1 1 1 1 1 
1 1 1 1 1 1 1 1 1 
1 1 1 1 1 1 1 1 1 
1 1 1 1 1 1 1 1 1 
1 1 1 1 1 1 1 1 1 
1 1 1 1 1 1 1 1 1 
1 1 1 1 1 1 1 1 1 
1 1 1 1 1 1 1 1 1 
1 1 1 1 1 1 1 1 1 
1 1 1 1 1 1 1 1 1 
1 1 1 1 1 1 1 1 1 
1 1 1 1 1 1 1 1 1 
1 1 1 1 1 1 1 1 1 
1 1 1 1 1 1 1 1 1 
1 1 1 1 1 1 1 1 1 
1 1 1 1 1 1 1 1 1 
1 1 1 1 1 1 1 1 1 
1 1 1 1 1 1 1 1 1 
1 1 1 1 1 1 1 1 1 
1 1 1 1 1 1 1 1 1 
1 1 1 1 1 1 1 1 1 
1 1 1 1 1 1 1 1 1 
1 1 1 1 1 1 1 1 1 
1 1 1 1 1 1 1 1 1 
1 1 1 1 1 1 1 1 1 
1 1 1 1 1 1 1 1 1 
1 1 1 1 1 1 1 1 1 
1 1 1 1 1 1 1 1 1 
1 1 1 1 1 1 1 1 1 
1 1 1 1 1 1 1 1 1 
1 1 1 1 1 1 1 1 1 
1 1 1 1 1 1 1 1 1 
1 1 1 1 1 1 1 1 1 
1 1 1 1 1 1 1 1 1 
1 1 1 1 1 1 1 1 1 
1 1 1 1 1 1 1 1 1 
1 1 1 1 1 1 1 1 1 
1 1 1 1 1 1 1 1 1 
1 1 1 1 1 1 1 1 1 
1 1 1 1 1 1 1 1 1 
1 1 1 1 1 1 1 1 1 
1 1 1 1 1 1 1 1 1 
1 1 1 1 1 1 1 1 1 
1 1 1 1 1 1 1 1 1 
1 1 1 1 1 1 1 1 1 
1 1 1 1 1 1 1 1 1 
1 1 1 1 1 1 1 1 1 
1 1 1 1 1 1 1 1 1 
1 1 1 1 1 1 1 1 1 
1 1 1 1 1 1 1 1 1 
1 1 1 1 1 1 1 1 1 
1 1 1 1 1 1 1 1 1 
1 1 1 1 1 1 1 1 1 
1 1 1 1 1 1 1 1 1 
1 1 1 1 1 1 1 1 1 
1 1 1 1 1 1 1 1 1 
1 1 1 1 1 1 1 1 1 
1 1 1 1 1 1 1 1 1 
1 1 1 1 1 1 1 1 1 
1 1 1 1 1 1 1 1 1 
1 1 1 1 1 1 1 1 1 
1 1 1 1 1 1 1 1 1 
1 1 1 1 1 1 1 1 1 
1 1 1 1 1 1 1 1 1 
1 1 1 1 1 1 1 1 1 
1 1 1 1 1 1 1 1 1 
1 1 1 1 1 1 1 1 1 
1 1 1 1 1 1 1 1 1 
1 1 1 1 1 1 1 1 1 
1 1 1 1 1 1 1 1 1 
1 1 1 1 1 1 1 1 1 
1 1 1 1 1 1 1 1 1 
1 1 1 1 1 1 1 1 1 
1 1 1 1 1 1 1 1 1 
1 1 1 1 1 1 1 1 1 
1 1 1 1 1 1 1 1 1 
1 1 1 1 1 1 1 1 1 
1 1 
NORMALS Normals float
0.0375231 -0.162725 -0.985958 0.315793 -0.026907 -0.948446 0.290523 -0.276776 -0.915965 
-0.198446 -0.0291276 -0.979679 0.26292 0.269019 -0.926554 0.191643 -0.439407 -0.877607 
-0.172094 -0.314613 -0.933489 0.488867 -0.0671893 -0.869767 0.445824 0.0963605 -0.889919 
0.528036 0.0261961 -0.848818 0.421813 0.25254 -0.870803 -0.126445 0.225872 -0.965916 
0.199532 0.396051 -0.896287 0.0118545 -0.503495 -0.863917 0.493789 -0.14286 -0.857767 
0.495358 0.385518 -0.778457 0.577877 0.272814 -0.769175 -0.0454902 0.415118 -0.90863 
-0.0158243 -0.747129 -0.664491 0.534281 -0.341911 -0.773072 -0.143456 -0.366808 -0.919169 
0.634998 -0.141842 -0.75938 -0.17942 -0.330624 -0.926551 -0.263026 0.156417 -0.952025 
0.4061 0.526175 -0.747143 -0.118678 0.479211 -0.869639 0.0826577 -0.727556 -0.681051 
0.316935 -0.53873 -0.780591 0.562861 -0.389923 -0.728799 0.247894 -0.533298 -0.80879 
0.799172 -0.113754 -0.590241 -0.139276 -0.279567 -0.949971 0.67076 -0.0340598 -0.740892 
-0.23081 0.123415 -0.96514 0.747712 0.241251 -0.618647 -0.328838 0.330274 -0.884751 
-0.345462 0.466062 -0.81452 0.275074 0.669161 -0.690332 0.00013054 0.641498 -0.767125 
-0.30009 -0.405521 -0.863423 -0.432603 0.027949 -0.901151 0.779986 0.40747 -0.474963 
-0.361819 0.247016 -0.898927 -0.121085 0.763135 -0.634794 0.0853114 0.761253 -0.642819 
0.197943 0.890214 -0.410289 0.390446 -0.655063 -0.646873 -0.0851568 -0.655645 -0.750252 
-0.316476 -0.494343 -0.80961 0.867103 -0.283598 -0.409517 0.787129 0.262296 -0.558238 
0.787723 -0.0724702 -0.611752 0.878873 0.367736 -0.303897 0.661185 0.706082 -0.25354 
-0.235907 0.729216 -0.642333 0.436183 0.810761 -0.390399 0.325199 0.905016 -0.274211 
-0.0992 0.876532 -0.471012 0.372853 -0.815956 -0.44181 0.0660644 -0.745765 -0.662926 
0.0378427 -0.827583 -0.560066 -0.19222 -0.392814 -0.899304 -0.239419 -0.146432 -0.95981 
0.91242 0.170501 -0.372048 0.742966 0.4004 -0.53636 -0.196411 0.194233 -0.961091 
0.63778 0.67362 -0.37346 -0.290422 0.500239 -0.81573 -0.324756 0.779521 -0.535613 
0.617248 0.735259 -0.279999 -0.312585 0.522466 -0.793297 0.181782 0.947041 -0.264705 
0.168123 0.978149 -0.122305 -0.0819 0.934002 -0.347755 0.605055 -0.721009 -0.337718 
-0.148808 -0.802098 -0.578355 -0.0169801 -0.848018 -0.529695 0.671439 -0.579907 -0.461386 
-0.0603173 -0.789685 -0.61054 -0.151066 -0.308084 -0.939289 -0.22798 -0.0694345 -0.971187 
0.912079 0.119947 -0.392077 0.865286 0.267213 -0.424119 0.476233 0.877851 -0.050786 
0.311394 0.946586 -0.0837147 -0.112776 0.986926 -0.115143 -0.00379176 0.998774 -0.0493496 
-0.022687 0.991765 -0.126048 -0.0809392 -0.679379 -0.72931 -0.19925 -0.875928 -0.439373 
0.232026 -0.911611 -0.339306 0.635208 -0.761966 -0.126171 -0.119086 -0.617182 -0.777757 
-0.274544 -0.720009 -0.637348 -0.0509027 -0.88255 -0.467454 -0.225514 -0.445394 -0.866468 
0.825358 -0.538901 -0.168433 -0.323923 -0.157359 -0.932905 -0.150236 -0.426652 -0.89185 
0.977078 -0.0836357 -0.195765 0.728089 0.551489 -0.407119 -0.412473 0.7568 -0.507069 
0.471797 0.869982 0.143315 -0.35337 0.849597 -0.391555 -0.252839 0.890661 -0.377883 
0.130818 0.983094 0.128113 0.175331 0.984336 -0.018476 0.130076 -0.967757 -0.215702 
-0.255961 -0.594937 -0.761928 -0.0948554 -0.666829 -0.739149 -0.0549295 -0.527071 -0.848044 
-0.0759551 -0.90543 -0.417644 0.046519 -0.919831 -0.389548 -0.338617 -0.261014 -0.903997 
-0.309093 -0.545045 -0.77935 -0.193072 -0.321445 -0.927036 -0.188799 -0.304132 -0.933734 
-0.422202 -0.0636866 -0.904262 -0.225613 -0.238361 -0.944607 -0.343838 0.118091 -0.931574 
-0.183491 -0.179631 -0.96647 0.929275 -0.369378 -0.0027397 -0.482239 0.515763 -0.708121 
-0.0408607 -0.982207 -0.183302 0.0507878 -0.998626 -0.012907 -0.0192064 -0.778203 -0.627719 
-0.0230068 -0.952624 -0.303278 0.420521 -0.905685 -0.0538145 -0.0478359 -0.972497 -0.227952 
-0.00193896 -0.96537 -0.260877 -0.468223 -0.422246 -0.776193 -0.418823 0.169375 -0.892132 
0.964118 0.166821 -0.206511 0.81661 0.515654 -0.259324 0.627481 0.756622 -0.183821 
-0.425925 0.710157 -0.560593 0.523505 0.834133 -0.173681 0.259449 0.948656 0.180934 
-0.253228 0.942167 -0.219537 -0.206052 -0.770467 -0.60326 -0.105032 -0.893567 -0.43647 
-0.257247 -0.822967 -0.506507 0.183749 -0.965353 0.185281 -0.502646 -0.264697 -0.822972 
-0.0387248 -0.999171 0.0125626 0.565599 -0.801745 0.19314 0.803479 -0.571351 0.167273 
-0.731228 -0.259807 -0.630718 0.694637 0.710374 -0.11335 -0.393533 0.905414 -0.15924 
-0.312706 -0.914357 -0.257227 -0.520176 -0.688237 -0.505715 -0.255515 -0.94664 -0.19643 
-0.601053 -0.732834 -0.318888 -0.695366 -0.562777 -0.446932 0.0971386 -0.977878 -0.185251 
0.155954 -0.983094 0.095943 -0.0578828 -0.998269 0.0104113 -0.00384706 -0.979445 -0.201672 
-0.0059189 -0.955357 -0.295396 -0.615344 0.062468 -0.78578 -0.517073 0.236847 -0.82252 
0.867459 0.494742 -0.0524037 -0.478752 0.7277 -0.491172 -0.455334 0.83109 -0.319311 
0.485711 0.842869 0.231638 -0.327756 0.936102 -0.127627 -0.334888 0.941896 -0.0261218 
0.252714 0.896418 0.364102 -0.27419 0.960974 0.036737 -0.195911 -0.970177 -0.142745 
-0.136792 -0.965322 -0.222354 0.111187 -0.993797 0.00208072 0.213139 -0.948592 0.233975 
0.0404177 -0.997743 0.0536315 -0.0639159 -0.991336 0.114753 0.153525 -0.952151 0.26427 
0.127758 -0.925399 0.356812 0.295366 -0.894047 0.336806 0.469515 -0.817237 0.334184 
-0.831567 -0.476533 -0.285329 -0.908722 -0.243879 -0.338744 -0.828432 -0.039879 -0.558668 
-0.841038 0.153521 -0.518736 -0.471281 0.391205 -0.790476 0.99449 0.0542638 0.0896911 
0.833139 0.54269 0.106618 -0.542847 0.710215 -0.448232 0.606874 0.761569 0.22741 
0.409446 0.868346 0.279875 -0.128699 0.963179 0.236057 -0.803616 -0.56498 -0.187079 
0.146131 -0.984214 0.0998457 0.110855 -0.936384 0.333011 -0.818069 -0.559645 -0.132517 
0.0338458 -0.889364 0.455946 0.878141 -0.35753 0.317869 -0.828283 0.256379 -0.498214 
-0.788134 0.299381 -0.537788 -0.664843 0.481035 -0.57148 0.834618 0.457175 0.307252 
-0.549614 0.711289 -0.438169 -0.364317 0.920811 -0.139213 -0.367423 0.92332 0.111714 
0.13839 0.926165 0.350807 -0.608919 -0.790018 -0.0713389 -0.314522 -0.899208 0.30414 
-0.198534 -0.974148 0.1078 -0.477663 -0.756013 0.44753 0.106435 -0.935719 0.336307 
-0.672217 -0.686122 0.27814 -0.805498 -0.591532 0.0355502 -0.16519 -0.928822 0.331667 
0.167794 -0.85705 0.487145 -0.914574 -0.403915 0.0201719 0.593544 -0.646616 0.479159 
0.398585 -0.669406 0.626918 -0.980097 -0.120004 -0.158145 -0.986422 0.0859607 -0.139936 
0.934753 0.0540737 0.351159 -0.550984 0.726769 -0.41015 0.435395 0.738423 0.514939 
0.0573626 -0.970907 0.232483 0.00573857 -0.999242 0.0385 0.285109 -0.839035 0.463393 
-0.301907 -0.729126 0.614188 0.235066 -0.812235 0.533871 -0.353043 -0.719824 0.597674 
-0.100591 -0.617324 0.780252 -0.391571 -0.64921 0.652072 -0.108255 -0.672524 0.732115 
0.543442 -0.531063 0.65011 -0.999489 -0.000577433 -0.0319714 0.938163 -0.118471 0.325292 
-0.935811 0.312483 -0.163131 0.736382 0.446108 0.508654 0.568566 0.677209 0.467034 
-0.467415 0.875078 -0.125548 -0.28659 0.921134 0.263399 0.0913526 -0.758945 0.644715 
0.24282 -0.606903 0.756774 -0.974499 0.202695 -0.0962686 0.840952 0.0697156 0.5366 
-0.627975 0.768093 -0.12522 0.575401 0.508771 0.640364 -0.2744 0.92579 0.260032 
0.000489942 -0.925631 0.378428 -0.767659 -0.64018 0.0294913 -0.678707 -0.636893 0.365684 
-0.807738 -0.451374 0.379237 -0.579155 -0.592036 0.560422 -0.577697 -0.764664 0.285578 
-0.909894 -0.405662 0.0867787 -0.816378 -0.401632 0.414992 0.210194 -0.555258 0.804678 
0.288245 -0.604824 0.742363 -0.157283 -0.558532 0.814435 0.17605 -0.548467 0.817429 
0.807956 -0.250736 0.533234 -0.855085 0.518229 -0.0163841 0.637327 0.288168 0.714684 
0.0806556 0.908172 0.410752 0.1356 -0.960223 0.244099 0.423695 -0.466673 0.776337 
0.177553 -0.525865 0.83183 -0.034819 -0.585652 0.809815 -0.140111 -0.574478 0.806439 
0.000547418 -0.524014 0.851709 0.437317 0.467958 0.767964 -0.331931 0.918185 0.216237 
-0.193593 -0.817397 0.542572 -0.287157 -0.772137 0.566873 0.220968 -0.792111 0.568976 
-0.510253 -0.54035 0.669077 -0.900861 -0.201035 0.384753 0.451432 -0.428304 0.782793 
0.486747 -0.401486 0.775814 -0.32284 -0.499391 0.803979 0.691347 -0.215122 0.689755 
0.551527 0.0444736 0.832971 -0.458282 0.859695 0.225615 0.358531 0.686655 0.632425 
-0.329198 0.941945 0.066087 -0.180407 0.851169 0.492914 -0.317917 0.789854 0.524461 
-0.272188 0.874988 0.400388 0.176797 -0.85714 0.483791 0.311319 -0.633304 0.708524 
0.384501 -0.44366 0.809521 0.267342 -0.264465 0.926599 0.512353 -0.154445 0.844773 
-0.95394 0.159141 0.254309 -0.0578778 -0.41113 0.909738 0.447207 0.148411 0.882032 
0.392544 0.50345 0.769706 -0.315905 0.884982 0.34207 -0.254422 0.795902 0.549372 
0.244385 -0.729757 0.638538 -0.140254 -0.751055 0.645171 0.327043 -0.197477 0.924146 
0.0816034 -0.333888 0.939074 0.456235 -0.0731777 0.886845 0.106018 0.0533595 0.992932 
-0.0974046 -0.179303 0.97896 0.389075 0.401562 0.829077 -0.130082 0.859925 0.493567 
0.370583 0.673201 0.639898 -0.096405 0.794034 0.600181 -0.181025 0.681048 0.70951 
0.284645 0.750717 0.596155 -0.149229 0.873459 0.463465 -0.579343 -0.497617 0.645553 
-0.829613 -0.183328 0.527383 -0.353891 -0.217234 0.909709 -0.453034 -0.180661 0.872996 
0.312979 -0.210839 0.926062 0.188891 0.235669 0.9533 0.28657 0.128593 0.94939 
-0.590365 0.741095 0.319762 0.217154 0.351663 0.910592 0.250259 0.223536 0.94202 
-0.355185 -0.0587848 0.932946 0.245853 0.500841 0.829888 0.480535 0.295086 0.825839 
0.0776712 0.446242 0.891535 -0.130454 0.302385 0.944217 -0.0356955 0.673843 0.738011 
-0.4018 0.164904 0.900757 -0.279494 0.28926 0.915539 -0.286721 0.595559 0.7504 
0.104261 -0.679924 0.725833 -0.231483 -0.583852 0.778159 0.261234 -0.575025 0.775308 
0.300879 -0.588267 0.750609 -0.588661 -0.324889 0.74022 0.587936 -0.359308 0.724727 
-0.766273 0.0543539 0.640212 0.544769 -0.219916 0.809237 0.451256 -0.259871 0.853718 
-0.472716 -0.27292 0.837887 -0.748526 0.571483 0.336328 0.342796 0.444767 0.82745 
-0.48488 -0.235408 0.842303 -0.138899 0.848835 0.510085 0.175492 0.692533 0.699715 
0.107318 0.622387 0.775317 0.102751 -0.664133 0.74052 0.436152 -0.25764 0.862202 
0.431215 0.158926 0.888142 -0.504332 -0.143965 0.851424 0.51745 0.18302 0.835912 
-0.0479866 -0.578846 0.814024 0.128313 -0.494248 0.859799 -0.416933 -0.483645 0.769581 
0.330243 -0.409639 0.850374 -0.599668 -0.177279 0.780366 -0.516586 -0.350129 0.781376 
0.458401 -0.306533 0.83421 -0.676562 0.426563 0.600257 0.394821 0.534817 0.747052 
-0.376063 0.76674 0.520276 -0.00623375 0.807907 0.589277 0.232368 0.754157 0.614209 
0.412154 0.284212 0.865652 -0.490639 -0.0194696 0.871145 0.175215 0.760643 0.625078 
0.10363 0.787442 0.607614 -0.0938233 -0.489278 0.867066 -0.117206 -0.435984 0.89229 
-0.597698 -0.107217 0.79452 0.579914 -0.0122383 0.814586 0.407357 -0.255164 0.876899 
-0.600254 0.509631 0.616418 -0.498525 -0.109643 0.859913 -0.517931 0.195095 0.832878 
-0.463862 0.511652 0.723218 -0.394476 0.594364 0.7008 -0.16128 0.780198 0.604383 
-0.276956 -0.339798 0.898795 -0.402028 -0.218981 0.889056 0.215244 -0.452364 0.865469 
-0.565152 0.0703588 0.821981 0.530123 0.145492 0.835345 -0.308051 -0.269281 0.912465 
-0.42642 0.512828 0.7451 0.0358059 0.705284 0.70802 -0.483945 -0.0258302 0.874717 
0.0825173 0.644569 0.760081 -0.324479 0.509444 0.796982 -0.0741502 -0.383148 0.920706 
-0.256616 -0.232892 0.938035 0.25232 -0.221633 0.94192 -0.253498 -0.218202 0.942405 
0.309403 -0.00923397 0.950886 -0.459522 0.287936 0.840198 0.0781816 0.184744 0.979672 
-0.123944 0.0817177 0.988919 -0.00358501 -0.0147368 0.999885 0.208025 -0.163849 0.964302 
-0.250152 0.240899 0.937759 -0.209345 0.361577 0.908535 -0.0409324 0.187224 0.981464 
0.324243 0.202896 0.923959 -0.30483 -0.0111961 0.952341 -0.39561 0.18463 0.899669 
-0.109573 -0.135778 0.984661 -0.304946 0.106431 0.946404 0.0498441 0.491888 0.869231 
-0.380262 0.25992 0.887605 -0.0379137 -0.100306 0.994234 0.0552661 -0.0455489 0.997432 
0.206176 0.384348 0.899871 -0.125735 0.57078 0.811419 -0.162567 0.300667 0.939772 
0.0694301 0.199065 -0.977524 0.245128 0.165473 -0.955265 0.0661201 -0.301415 -0.951198 
-0.273589 0.0451952 -0.960784 0.113287 0.233319 -0.965779 0.203727 0.0759113 -0.97608 
-0.0413216 0.382231 -0.923142 0.20398 0.186569 -0.961033 0.0117579 -0.0807409 -0.996666 
-0.238712 -0.0144597 -0.970983 -0.332049 0.172567 -0.927342 0.156819 0.410251 -0.898388 
-0.107775 0.413933 -0.903905 0.195378 -0.414614 -0.888776 0.0573208 -0.337399 -0.939615 
0.464482 0.00490753 -0.885569 -0.185827 -0.337012 -0.92298 -0.378201 0.277995 -0.882996 
-0.0734355 0.205166 -0.975968 0.248274 -0.221012 -0.94314 -0.529252 0.442095 -0.724186 
0.343922 0.26432 -0.901029 -0.249599 -0.100366 -0.963134 0.155337 0.582973 -0.797504 
-0.155744 0.612148 -0.775254 0.386605 0.248403 -0.888162 -0.536871 -0.0587706 -0.841615 
0.177736 0.538272 -0.823816 -0.136955 -0.477222 -0.868045 -0.66364 0.170641 -0.728329 
-0.434297 -0.253966 -0.864226 0.393902 -0.264673 -0.880221 0.501165 -0.00772695 -0.865317 
0.333907 0.424206 -0.841757 -0.484433 0.211129 -0.848969 -0.465139 0.310185 -0.829114 
-0.115984 -0.545492 -0.830052 -0.510981 -0.351979 -0.784225 0.53967 -0.397261 -0.742253 
-0.0946306 -0.517172 -0.850634 -0.353534 -0.236988 -0.904904 -0.669285 -0.162809 -0.724949 
0.528497 -0.0557063 -0.847106 -0.484543 0.62534 -0.611692 0.378693 0.501245 -0.778039 
-0.35161 0.732635 -0.582766 0.0533366 0.724407 -0.687306 0.280732 0.575709 -0.767951 
-0.266119 0.615007 -0.742258 -0.39775 0.7848 -0.475273 -0.491028 0.0523935 -0.869567 
-0.475951 0.51111 -0.715707 -0.410415 0.568139 -0.713287 -0.24074 0.738268 -0.630083 
0.123622 -0.755852 -0.642967 0.17846 -0.641538 -0.746044 0.438716 -0.634379 -0.636468 
-0.35717 -0.557697 -0.749269 0.322429 -0.500739 -0.803305 0.421364 -0.201846 -0.884144 
0.385985 0.470443 -0.793536 0.438115 0.192508 -0.878063 -0.379721 0.83833 -0.391172 
0.397208 0.65115 -0.646707 -0.539681 0.306005 -0.784286 0.337615 0.688908 -0.641422 
-0.0358091 0.777611 -0.627725 0.198257 0.802385 -0.562914 0.051646 -0.692562 -0.719508 
-0.0722906 -0.737886 -0.671043 -0.202504 -0.603099 -0.771533 -0.606846 -0.366845 -0.705098 
0.398693 0.0220058 -0.91682 -0.700114 0.561 -0.441723 0.0492761 0.738798 -0.672123 
0.164207 0.551192 -0.818061 -0.323911 0.294604 -0.89905 -0.320587 0.704939 -0.632681 
-0.0863995 -0.756351 -0.648435 -0.071764 -0.758815 -0.64734 -0.398495 -0.576912 -0.713004 
-0.810786 -0.213237 -0.545119 -0.863892 0.0787941 -0.497475 -0.837176 0.436051 -0.330144 
0.149533 0.208404 -0.966544 0.448147 0.509465 -0.734581 0.431797 0.511436 -0.742957 
-0.272237 0.602667 -0.75012 -0.271026 -0.754111 -0.598216 -0.575252 -0.540798 -0.613696 
-0.861156 0.022225 -0.507854 0.318646 -0.471146 -0.822488 0.0737825 -0.234199 -0.969385 
0.270604 -0.147811 -0.951276 -0.197338 -0.18521 -0.962681 -0.289421 -0.356987 -0.888142 
-0.0514886 -0.00845239 -0.998638 -0.449189 0.870336 -0.201855 -0.115256 0.852671 -0.509577 
-0.0539096 0.698003 -0.714062 -0.209582 0.59764 -0.773888 -0.323935 0.737472 -0.592622 
-0.148519 0.84742 -0.509727 0.35818 -0.740138 -0.569125 -0.447972 -0.696523 -0.560515 
-0.865653 -0.140262 -0.480596 0.487881 -0.165052 -0.857164 -0.880024 0.42794 -0.205971 
0.503648 0.158776 -0.849193 -0.649231 0.744509 -0.155582 -0.241824 0.929371 -0.278911 
-0.249901 0.794899 -0.552888 -0.272728 0.849026 -0.452519 -0.226738 0.896721 -0.380107 
-0.107801 -0.93481 -0.338393 -0.720188 -0.535219 -0.441441 -0.760023 -0.391605 -0.518662 
0.337048 -0.292228 -0.894987 0.0812236 -0.465543 -0.88129 -0.798561 0.583256 -0.148703 
-0.32855 0.872688 -0.361206 0.113736 -0.905114 -0.409674 -0.0905326 -0.874509 -0.476485 
0.292418 -0.707727 -0.643128 0.296989 -0.73385 -0.610952 -0.951726 -0.244956 -0.184971 
-0.980995 0.0151913 -0.193439 -0.945819 0.215265 -0.243079 0.775993 -0.0157425 -0.630544 
-0.555756 0.799451 0.228066 -0.504633 0.86328 0.00962011 -0.215206 0.896504 -0.387255 
-0.229755 0.856138 -0.46286 -0.303522 0.870094 -0.388344 0.19211 0.846473 -0.496565 
0.16114 -0.832884 -0.529469 0.192383 -0.883485 -0.427133 -0.733497 -0.603823 -0.312057 
-0.0499318 -0.490394 -0.870069 0.297545 -0.51634 -0.803032 0.742917 -0.289694 -0.60345 
-0.944418 0.325097 0.0488443 -0.700912 0.713092 -0.014914 0.749581 0.349455 -0.562147 
-0.370766 0.928117 0.0336373 -0.334486 0.877023 -0.344891 0.354996 0.800701 -0.482551 
0.114095 -0.926532 -0.358499 -0.356004 -0.8459 -0.397132 0.336645 -0.802636 -0.492389 
-0.253765 -0.820205 -0.512706 0.0905368 -0.618857 -0.780269 0.291728 -0.699694 -0.652167 
-0.202727 -0.605704 -0.769431 0.543738 -0.472345 -0.693714 -0.991769 0.0856909 0.0951374 
0.911677 0.177758 -0.370469 0.513055 0.572546 -0.639504 -0.362379 0.914711 0.178844 
-0.301361 -0.944466 -0.131014 -0.503561 -0.855926 -0.117547 0.319005 -0.688786 -0.651007 
-0.053811 -0.992672 -0.108194 0.211136 -0.83647 -0.505707 -0.935926 -0.343211 0.0790521 
0.194609 -0.791948 -0.578744 0.154733 -0.658028 -0.736924 -0.06677 -0.752869 -0.654775 
0.237454 -0.570504 -0.786219 0.472689 -0.548541 -0.689686 -0.74866 0.553115 0.365475 
-0.577444 0.661571 0.478416 -0.259002 -0.96107 0.0962376 -0.0592166 -0.992232 -0.109407 
0.124967 -0.987825 -0.0926569 -0.0142853 -0.971321 0.237341 -0.731666 -0.677274 -0.0772274 
0.11929 -0.922282 -0.367649 0.138163 -0.915843 -0.377019 -0.0183972 -0.856296 -0.516158 
0.0412664 -0.73973 -0.671637 0.141515 -0.673001 -0.725977 0.517559 -0.622604 -0.586938 
0.658215 -0.503233 -0.559919 -0.963986 -0.0109724 0.265727 -0.84609 0.259051 0.465858 
0.91256 -0.287759 -0.290565 -0.85934 0.460305 0.222833 0.978476 0.0079887 -0.206206 
0.854236 0.443983 -0.270481 -0.479291 0.76109 0.43706 0.726076 0.598462 -0.338611 
0.0258298 0.937604 -0.346744 0.00510304 -0.993485 0.113846 0.198766 -0.926883 -0.318401 
0.0482484 -0.917826 -0.394041 -0.0433841 -0.916302 -0.398132 -0.0657873 -0.986924 -0.147149 
0.251269 -0.799362 -0.545788 0.420782 -0.855559 -0.301598 0.656032 -0.569457 -0.495319 
-0.934046 -0.034654 0.355468 -0.877779 -0.112722 0.465615 0.817698 -0.456507 -0.350673 