# vtk DataFile Version 4.2
vtk output
ASCII
DATASET POLYDATA
POINTS 735 float
365.91 190.419 205.257 365.46 187.236 206.171 364.796 196.69 205.25 
368.2 197.16 205.197 363.462 199.915 205.812 365.791 200.143 205.58 
367.859 183.164 208.014 369.931 183.082 207.844 369.268 184.389 207.135 
376.662 183.876 207.226 379.533 183.261 207.468 371.934 184.932 206.892 
380.245 183.811 207.405 374.509 185.537 206.798 376.129 186.175 206.793 
381.173 184.798 207.407 382.532 185.467 207.635 379.15 188.217 207.056 
359.845 195.327 206.844 355.2 203.13 209.119 356.193 203.831 208.387 
355.661 205.013 208.872 355.808 205.535 208.885 356.691 206.176 208.511 
357.141 206.074 208.298 357.533 206.824 208.4 384.398 179.433 209.601 
384.9 179.087 210.011 385.697 179.394 209.69 380.134 179.936 209.655 
379.628 180.366 209.209 379.532 180.885 208.725 385.982 180.064 209.31 
367.473 182.051 209.2 381.778 181.149 208.446 365.504 182.894 208.867 
367.711 182.556 208.534 380.638 181.894 208.062 385.603 181.266 208.793 
380.383 182.557 207.784 384.902 183.59 208.259 358.703 191.04 208.627 
354.818 202.389 209.535 372.608 206.523 207.791 358.806 208.317 208.677 
382.424 179.255 209.945 383.859 178.813 210.526 387.887 179.137 210.495 
379.328 179.926 209.971 388.106 179.347 210.331 387.945 180.208 209.757 
388.638 179.728 210.239 372.557 181.432 209.489 364.806 182.396 209.75 
369.761 182.173 208.707 358.336 188.971 209.793 356.114 195.612 209.422 
381.433 196.35 208.444 354.133 202.731 210.526 354.402 203.343 210.091 
355.486 208.029 210.333 356.079 208.915 210.298 357.792 209.722 209.883 
381.843 179.101 210.382 364.941 181.627 211.167 368.018 181.281 210.967 
373.306 181.03 211.099 358.395 186.779 210.998 378.449 207.319 209.664 
355.908 210.442 211.478 355.981 210.514 211.403 356.127 210.57 211.393 
382.082 178.817 211.15 383.356 178.531 211.633 388.598 178.668 211.545 
391.509 179.925 211.563 392.306 181.682 211.036 360.767 183.388 211.862 
359.138 185.056 211.651 394.925 184.875 211.504 358.226 186.583 211.559 
390.92 196.962 211.32 354.477 207.505 211.585 355.915 209.97 211.211 
355.667 210.328 211.845 370.946 212.09 210.209 377.146 212.703 211.506 
387.73 178.286 212.248 391.834 179.457 212.214 392.577 179.128 213.04 
393.391 180.199 212.302 364.795 181.108 212.712 358.968 184.658 212.865 
356.641 189.601 212.002 354.519 195.587 212.66 353.525 202.209 212.32 
379.379 213.352 212.548 374.958 214.279 212.169 397.888 185.297 212.831 
356.814 188.273 212.941 394.284 198.473 212.729 358.316 214.004 213.764 
389.373 177.896 214.574 393.231 178.528 214.514 397.847 179.778 215.007 
399.296 180.327 215.271 400.491 181.353 215.375 399.518 182.596 214.309 
400.645 182.245 215.182 400.89 182.046 215.44 400.481 186.329 214.528 
354.849 193.348 213.943 396.926 196.562 213.258 353.873 197.307 214.038 
398.645 198.821 214.855 396.765 200.121 214.186 353.991 208.788 214.484 
378.755 216.999 215.271 395.871 178.905 215.326 398.561 179.795 215.392 
367.094 180.475 215.065 400.014 180.476 215.628 399.813 180.293 215.716 
400.036 180.654 215.47 401.038 182.176 215.592 401.129 182.155 215.89 
358.483 184.833 215.41 401.362 187.809 215.828 401.208 191.551 215.871 
399.516 200.228 216.113 361.472 215.999 215.336 373.023 216.602 214.501 
381.284 216.51 215.816 392.986 177.997 216.09 398.772 179.572 216.159 
399.784 180.176 216.066 400.893 181.146 216.282 368.339 180.592 215.653 
360.904 182.436 216.465 401.332 183.073 216.331 401.481 187.272 216.285 
401.455 189.1 216.309 401.359 190.95 216.314 400.317 197.374 216.264 
400.186 199.239 216.781 399.316 201.375 216.402 385.692 211.674 215.789 
354.64 211.662 217.402 370.019 217.521 216.341 376.604 217.555 215.747 
400.525 180.711 216.304 400.653 180.837 216.101 401.121 182.011 216.704 
370.872 181.169 216.265 401.408 190.386 216.765 401.113 194.524 217.167 
399.309 202.006 216.821 399.845 201.654 217.378 398.86 204.636 218.171 
391.374 207.581 216.467 394.845 206.559 217.257 391.084 209.103 218.009 
387.118 211.521 217.214 388.1 210.735 217.373 388.594 210.935 218.217 
400.25 180.723 217.354 369.953 180.441 218.073 401.277 183.652 217.218 
401.39 186.182 217.201 356.462 188.081 218.061 401.349 189.803 217.191 
401.184 192.543 217.338 400.171 201.721 218.205 388.522 211.382 218.939 
379.033 218.976 219.136 381.927 217.604 218.582 392.679 177.736 218.589 
370.072 180.242 219.103 400.966 182.467 217.599 361.533 182.265 218.609 
401.148 184.761 217.672 396.2 188.102 220.223 400.536 195.775 218.193 
400.311 200.505 218.926 399.955 203.715 219.318 399.384 204.946 219.192 
353.576 207.655 219.337 390.233 210.313 219.278 386.978 212.928 219.239 
357.461 216.355 219.593 361.457 217.676 219.207 380.06 218.792 219.37 
398.803 179.715 218.575 400.352 181.987 218.422 400.046 185.668 218.866 
400.534 189.71 218.356 399.693 197.894 219.639 400.015 199.032 219.447 
391.017 210.168 220.396 390.725 177.811 220.59 366.771 180.224 220.534 
398.601 179.898 219.315 398.435 180.639 220.177 399.175 180.826 219.454 
394.995 182.323 222.129 399.486 181.513 219.343 399.037 183.533 219.704 
392.321 189.517 222.369 394.696 189.965 220.987 393.363 192.298 221.966 
398.714 198.015 220.522 399.876 202.84 220.757 399.085 206.078 220.521 
388.145 212.279 220.789 384.042 216.228 220.087 358.135 217.095 221.321 
362.458 218.034 220.643 363.442 218.162 221.16 378.753 219.402 221.253 
379.177 219.311 221.34 396.723 178.634 219.755 396.786 179.929 221.501 
397.195 179.827 221.093 397.392 179.57 220.665 398.628 180.2 219.714 
369.22 180.063 222.287 396.31 181.325 221.712 396.817 181.057 221.445 
359.66 184.528 221.573 391.274 188.545 223.405 392.321 195.42 223.461 
399.093 201.916 221.701 399.625 202.937 221.399 398.61 206.736 221.418 
396.528 207.959 221.653 390.326 210.718 221.524 391.016 210.298 222.111 
388.995 211.621 222.012 377.521 219.451 222.309 395.307 178.308 220.871 
396.804 179.096 220.882 392.889 181.855 224.255 390.997 185.741 224.169 
391.113 193.79 224.32 398.127 202.339 222.871 399.417 205.724 222.124 
397.092 207.661 222.45 355.382 213.352 222.732 357.634 216.636 222.109 
359.035 217.304 222.07 381.974 217.777 222.247 394.549 179.526 223.253 
393.014 181.399 224.551 391.096 184.823 224.461 390.532 189.597 224.323 
391.408 195.394 224.865 393.482 199.08 224.34 396.227 202.298 224.106 
399.078 204.117 222.891 399.19 206.143 222.3 397.52 207.366 222.827 
390.52 210.264 223.504 356.516 215.122 222.931 357.79 216.645 222.353 
360.337 217.112 223.156 361.61 217.537 222.775 379.614 218.716 223.158 
395.523 178.618 221.714 396.041 178.929 221.745 394.099 179.809 223.775 
393.4 180.208 224.708 366.333 181.413 224.915 391.549 183.027 225.61 
390.153 189.889 225.11 393.12 198.893 224.664 395.871 203.367 224.766 
395.82 203.884 224.955 399.148 206.147 222.689 399.213 205.906 222.865 
398.672 206.499 223.127 396.784 207.569 223.335 355.697 212.703 223.944 
356.876 215.077 223.535 357.55 215.601 223.551 359.098 216.211 223.888 
366.374 217.645 223.81 392.698 178.938 224.325 393.028 179.623 225.192 
375.701 179.607 225.712 393.036 180.24 225.396 389.944 189.862 226.28 
390.084 190.761 225.811 393.236 201.446 225.818 393.688 202.828 225.801 
354.469 205.794 225.833 396.455 204.821 224.82 399.067 205.469 223.365 
398.906 205.597 223.55 399.03 205.706 223.378 399.025 205.934 223.232 
398.463 206.481 223.435 391.334 209.229 224.452 395.832 207.437 224.002 
385.273 213.462 224.426 368.257 216.239 225.579 371.293 217.292 225.137 
375.07 217.31 225.383 377.825 216.987 225.36 381.638 216.717 224.163 
379.851 217.421 224.509 392.803 179.517 225.818 390.215 186.286 227.22 
390.156 191.158 227.32 391.697 197.393 226.819 392.087 199.552 226.933 
392.448 201.871 226.754 392.211 203.184 226.92 395.097 204.905 225.312 
393.221 205.846 225.853 394.82 205.568 225.32 397.747 205.592 224.258 
355.983 207.951 226.752 388.591 208.141 227.17 391.355 207.08 226.217 
393.685 206.411 225.478 396.814 205.969 224.546 356.544 210.489 225.669 
360.448 210.365 227.574 391.226 208.154 225.597 393.752 207.534 224.809 
396.954 206.809 224.07 370.485 212.536 227.71 378.899 212.535 227.618 
392.599 179.889 227.078 390.598 184.735 227.73 391.855 200.152 227.785 
354.373 203.775 227.99 391.751 203.317 227.364 390.227 205.992 227.537 
370.539 212.13 228.165 377.021 212.415 228.247 380.049 212.003 228.058 
382.034 211.433 228.021 389.36 178.472 227.755 390.754 178.72 227.994 
392.162 179.382 227.498 392.164 179.319 228.975 392.521 179.855 228.273 
392.639 180.118 227.654 392.638 180.005 227.812 392.679 180.067 227.834 
392.691 180.08 227.894 392.613 180.247 227.927 391.053 194.27 228.587 
391.346 195.205 228.625 391.34 195.102 228.69 391.337 195.154 228.74 
354.395 196.121 228.462 391.497 196.637 227.293 391.702 199.992 228.795 
391.621 201.481 228.771 391.764 201.465 229.456 391.313 202.952 228.716 
391.696 201.872 227.992 355.505 206.163 228.277 390.104 205.53 228.452 
391.024 204.215 227.894 389.983 205.88 227.941 357.179 207.856 228.656 
388.213 207.699 228.334 359.923 209.518 228.499 360.463 209.772 228.376 
387.109 208.641 228.31 388.391 207.658 227.876 361.43 210.211 228.243 
362.517 210.569 228.396 385.26 209.965 228.486 363.334 210.874 228.588 
363.56 210.926 228.279 368.001 211.775 228.264 369.72 211.96 228.278 
369.95 211.981 228.403 370.174 212.012 228.317 370.522 212.098 228.424 
381.145 211.692 228.415 372.284 212.298 228.227 374.234 212.444 228.228 
374.891 212.496 228.453 379.003 212.231 228.454 392.741 179.276 230.37 
392.676 178.843 231.032 393.331 179.528 230.959 392.81 180.025 229.885 
392.563 180.341 228.555 393.622 179.919 231.341 392.627 180.094 228.077 
392.676 180.062 227.918 361.569 184.321 230.093 357.663 188.306 229.412 
391.282 195.142 228.916 391.65 198.585 229.621 391.828 198.861 230.385 
391.843 202.485 229.689 390.871 205.14 229.32 393.541 202.477 231.045 
[...]
POINT_DATA 735
SCALARS scalars float
LOOKUP_TABLE default
1 1 1 1 1 1 1 1 1 
1 1 1 1 1 1 1 1 1 
1 1 1 1 1 1 1 1 1 
1 1 1 1 1 1 1 1 1 
1 1 1 1 1 1 1 1 1 
1 1 1 1 1 1 1 1 1 
1 1 1 1 1 1 1 1 1 
1 1 1 1 1 1 1 1 1 
1 1 1 1 1 1 1 1 1 
1 1 1 1 1 1 1 1 1 
1 1 1 1 1 1 1 1 1 
1 1 1 1 1 1 1 1 1 
1 1 1 1 1 1 1 1 1 
1 1 1 1 1 1 1 1 1 
1 1 1 1 1 1 1 1 1 
1 1 1 1 1 1 1 1 1 
1 1 1 1 1 1 1 1 1 
1 1 1 1 1 1 1 1 1 
1 1 1 1 1 1 1 1 1 
1 1 1 1 1 1 1 1 1 
1 1 1 1 1 1 1 1 1 
1 1 1 1 1 1 1 1 1 
1 1 1 1 1 1 1 1 1 
1 1 1 1 1 1 1 1 1 
1 1 1 1 1 1 1 1 1 
1 1 1 1 1 1 1 1 1 
1 1 1 1 1 1 1 1 1 
1 1 1 1 1 1 1 1 1 
1 1 1 1 1 1 1 1 1 
1 1 1 1 1 1 1 1 1 
1 1 1 1 1 1 1 1 1 
1 1 1 1 1 1 1 1 1 
1 1 1 1 1 1 1 1 1 
1 1 1 1 1 1 1 1 1 
1 1 1 1 1 1 1 1 1 
1 1 1 1 1 1 1 1 1 
1 1 1 1 1 1 1 1 1 
1 1 1 1 1 1 1 1 1 
1 1 1 1 1 1 1 1 1 
1 1 1 1 1 1 1 1 1 
1 1 1 1 1 1 1 1 1 
1 1 1 1 1 1 1 1 1 
1 1 1 1 1 1 1 1 1 
1 1 1 1 1 1 1 1 1 
1 1 1 1 1 1 1 1 1 
1 1 1 1 1 1 1 1 1 
1 1 1 1 1 1 1 1 1 
1 1 1 1 1 1 1 1 1 
1 1 1 1 1 1 1 1 1 
1 1 1 1 1 1 1 1 1 
1 1 1 1 1 1 1 1 1 
1 1 1 1 1 1 1 1 1 
1 1 1 1 1 1 1 1 1 
1 1 1 1 1 1 1 1 1 
1 1 1 1 1 1 1 1 1 
1 1 1 1 1 1 1 1 1 
1 1 1 1 1 1 1 1 1 
1 1 1 1 1 1 1 1 1 
1 1 1 1 1 1 1 1 1 
1 1 1 1 1 1 1 1 1 
1 1 1 1 1 1 1 1 1 
1 1 1 1 1 1 1 1 1 
1 1 1 1 1 1 1 1 1 
1 1 1 1 1 1 1 1 1 
1 1 1 1 1 1 1 1 1 
1 1 1 1 1 1 1 1 1 
1 1 1 1 1 1 1 1 1 
1 1 1 1 1 1 1 1 1 
1 1 1 1 1 1 1 1 1 
1 1 1 1 1 1 1 1 1 
1 1 1 1 1 1 1 1 1 
1 1 1 1 1 1 1 1 1 
1 1 1 1 1 1 1 1 1 
1 1 1 1 1 1 1 1 1 
1 1 1 1 1 1 1 1 1 
1 1 1 1 1 1 1 1 1 
1 1 1 1 1 1 1 1 1 
1 1 1 1 1 1 1 1 1 
1 1 1 1 1 1 1 1 1 
1 1 1 1 1 1 1 1 1 
1 1 1 1 1 1 1 1 1 
1 1 1 1 1 1 
NORMALS Normals float
-0.0521496 -0.197397 -0.978935 -0.375671 -0.384279 -0.843327 -0.106996 0.0146306 -0.994152 
0.0933138 0.0673471 -0.993356 -0.158185 0.196628 -0.967634 -0.0988949 0.164827 -0.981352 
-0.211879 -0.508604 -0.834524 -0.107432 -0.614487 -0.781578 -0.130307 -0.479457 -0.867837 
-0.0142466 -0.1966 -0.98038 -0.0422547 -0.21682 -0.975297 -0.00319676 -0.272584 -0.962127 
0.120856 -0.156907 -0.980191 -0.108313 -0.274015 -0.955607 0.0676806 -0.0810092 -0.994413 
0.0477163 0.0287704 -0.998446 0.251959 0.1529 -0.955583 0.241835 0.0877228 -0.966344 
-0.386376 -0.0900862 -0.917931 -0.668844 0.0385388 -0.742404 -0.5148 0.0339249 -0.856639 
-0.704067 0.150525 -0.693997 -0.563348 0.217707 -0.797022 -0.523238 0.345057 -0.779203 
-0.191064 0.162177 -0.968087 -0.258878 0.331481 -0.90725 0.00682887 -0.647648 -0.761909 
0.119972 -0.843701 -0.523236 0.183511 -0.854042 -0.486761 -0.115222 -0.802593 -0.585294 
-0.226088 -0.731466 -0.643305 -0.119101 -0.598596 -0.792147 0.270342 -0.398107 -0.876599 
-0.345325 -0.768477 -0.538696 0.0406188 -0.453216 -0.890475 -0.250366 -0.749471 -0.61287 
-0.325309 -0.711944 -0.622342 0.0807739 -0.37774 -0.922382 0.359943 -0.244241 -0.900437 
0.0776596 -0.359178 -0.930032 0.468486 0.0345266 -0.882796 -0.680755 -0.250682 -0.688281 
-0.750234 -0.164035 -0.6405 0.116602 0.300313 -0.946687 -0.159208 0.379009 -0.911595 
-0.120282 -0.817832 -0.562746 0.0752902 -0.967234 -0.242465 0.117509 -0.76631 -0.631633 
-0.241613 -0.809431 -0.535205 0.22607 -0.659413 -0.716985 0.274008 -0.378021 -0.884319 
0.442854 -0.440663 -0.780831 -0.104755 -0.891854 -0.440027 -0.432265 -0.708635 -0.557659 
-0.122403 -0.706523 -0.697024 -0.739491 -0.331048 -0.58614 -0.788197 -0.190605 -0.585162 
0.378231 0.280117 -0.882313 -0.907467 -0.0520421 -0.416889 -0.799433 0.113066 -0.590019 
-0.633122 0.313767 -0.707606 -0.533881 0.392358 -0.749016 -0.301904 0.513154 -0.803447 
-0.188983 -0.834468 -0.517637 -0.231032 -0.89698 -0.376897 -0.144154 -0.936259 -0.320374 
-0.117987 -0.990191 -0.0748351 -0.644439 -0.470055 -0.603114 0.247182 0.305636 -0.919504 
-0.734344 0.657949 -0.16686 -0.599395 0.675016 -0.430209 -0.550704 0.753861 -0.358356 
-0.18366 -0.957811 -0.221057 -0.0362115 -0.988273 -0.148342 0.276314 -0.833641 -0.47822 
0.422209 -0.410541 -0.808205 0.403205 -0.363082 -0.839999 -0.554145 -0.735596 -0.389644 
-0.660526 -0.569087 -0.48974 0.366476 0.0395643 -0.929586 -0.850003 -0.435188 -0.296826 
0.25133 0.254394 -0.933872 -0.850544 0.255299 -0.45978 -0.740499 0.356445 -0.569744 
-0.702882 0.695533 -0.148966 -0.0130911 0.549513 -0.835383 0.145803 0.434919 -0.888587 
0.0405731 -0.96443 -0.261205 0.333429 -0.75821 -0.560306 0.21451 -0.856874 -0.468777 
0.400238 -0.570028 -0.717549 -0.280122 -0.937203 -0.207802 -0.784196 -0.577185 -0.2278 
-0.891063 -0.263868 -0.369298 -0.988078 -0.119713 -0.0968066 -0.993031 -0.0440534 -0.109307 
0.33284 0.493193 -0.803728 0.0935117 0.583497 -0.806714 0.432265 -0.141081 -0.890642 
-0.874617 -0.394334 -0.282038 0.305633 0.263372 -0.914999 -0.3072 0.739079 -0.599492 
0.0600432 -0.970385 -0.233984 0.227065 -0.870814 -0.436032 0.36726 -0.824657 -0.430188 
0.3712 -0.65979 -0.653367 0.68832 -0.388715 -0.612468 0.517021 -0.0935461 -0.850846 
0.572785 -0.0202911 -0.819454 0.767852 -0.337853 -0.544296 0.712233 0.0907205 -0.696056 
-0.950207 -0.230473 -0.209736 0.494896 0.126277 -0.859728 -0.998134 -0.0610586 0.000949929 
0.598013 0.200412 -0.776026 0.374189 0.44146 -0.815534 -0.902715 0.406471 -0.141021 
0.195484 0.782617 -0.591013 0.339132 -0.918744 -0.202234 0.366003 -0.808693 -0.460496 
-0.0223362 -0.986652 -0.161307 0.573255 -0.733389 -0.365403 0.402862 -0.789365 -0.463255 
0.472193 -0.497945 -0.727382 0.829993 -0.0122517 -0.55764 0.914716 -0.323455 -0.242223 
-0.743244 -0.668962 0.00883959 0.960462 -0.00218041 -0.278401 0.953924 0.255683 -0.157018 
0.725069 0.262335 -0.636754 -0.134196 0.862174 -0.488515 -0.0671175 0.815214 -0.575258 
0.52149 0.66072 -0.539905 0.136433 -0.988003 -0.0723595 0.365519 -0.902899 -0.226204 
0.522631 -0.843836 -0.121645 0.886719 -0.462206 0.00975715 0.145062 -0.971368 -0.188152 
-0.49894 -0.860458 -0.103306 0.996957 -0.076916 -0.0126548 0.981196 -0.0513325 -0.186062 
0.9664 0.0414414 -0.25368 0.968765 0.0262105 -0.246591 0.889954 0.131656 -0.436634 
0.849282 0.182367 -0.495442 0.755362 0.192761 -0.626316 0.600852 0.450228 -0.660508 
-0.920259 0.39053 -0.0246967 -0.0934604 0.898196 -0.429545 0.0410171 0.791368 -0.609963 
0.662926 -0.748453 0.0186366 0.732685 -0.600132 -0.320958 0.961129 -0.242761 0.131522 
0.178477 -0.963618 -0.198963 0.268617 -0.586869 -0.763825 0.989282 0.133317 -0.0595545 
0.617952 0.47993 -0.622737 0.888459 0.146547 -0.434931 0.684917 0.47013 -0.556657 
0.328892 0.613033 -0.718345 0.410611 0.686955 -0.599575 0.3856 0.733199 -0.560118 
0.641397 0.519741 -0.56434 0.467557 0.653501 -0.595254 0.212035 0.836386 -0.505471 
0.746339 -0.599228 0.289662 0.0725531 -0.981743 -0.175834 0.907801 -0.0853534 0.410625 
0.923642 -0.0277599 0.382251 -0.943053 -0.316083 0.103647 0.992609 -0.0413233 0.114106 
0.979172 0.047406 0.197419 0.956352 0.17075 -0.237141 0.390678 0.865979 -0.312172 
0.0859829 0.938241 -0.335129 0.452973 0.836078 -0.309496 0.174522 -0.983662 -0.0441712 
0.0347237 -0.983927 -0.175162 0.8903 -0.222226 0.39747 -0.576592 -0.800373 0.164148 
0.950682 -0.061508 0.304008 0.435429 0.0629677 0.898018 0.903053 0.0237922 0.428871 
0.9971 -0.0289237 0.0703898 0.926093 0.287664 -0.244132 0.75608 0.544882 -0.362557 
-0.992895 0.0968632 0.0691157 0.47082 0.783621 -0.405297 0.69057 0.675037 -0.25969 
-0.55207 0.800332 -0.233856 -0.122845 0.956067 -0.266166 0.355216 0.903047 -0.241512 
0.585875 -0.794295 0.160768 0.79484 -0.281597 0.537524 0.670707 0.00131701 0.741721 
0.723402 0.0377004 0.689397 0.860107 -0.191978 0.472611 0.904858 -0.185297 0.383272 
0.585945 0.799264 -0.133584 -0.059103 -0.997131 0.0472905 -0.270806 -0.957798 0.0963682 
0.610001 -0.663375 0.433396 0.596349 -0.326021 0.733538 0.73224 -0.307564 0.607642 
0.613015 0.2941 0.733292 0.66114 -0.0940983 0.744338 0.586532 0.0378681 0.80904 
0.615952 0.0348962 0.787011 0.380555 0.019653 0.924549 0.49359 -0.207481 0.844583 
0.648606 -0.161135 0.743872 0.933578 -0.0882961 0.347327 0.686669 0.672287 -0.276616 
0.502789 0.807272 -0.309057 0.653678 0.746684 -0.123157 -0.415473 0.909137 0.029196 
-0.198156 0.980151 -0.00619607 -0.0649465 0.995777 -0.0648868 0.123547 0.991733 0.034678 
0.382618 0.923873 0.0078752 0.484731 -0.859907 0.159987 0.627287 -0.253519 0.736369 
0.646169 -0.293985 0.7043 0.63207 -0.591623 0.500468 0.460975 -0.641299 0.613382 
-0.132986 -0.990888 0.0213485 0.603694 0.182205 0.776116 0.57757 0.136384 0.804868 
-0.670736 -0.725829 0.152595 0.695059 0.188686 0.693751 0.681686 -0.306031 0.664567 
0.678002 -0.375791 0.631739 0.853923 -0.19603 0.482066 0.627304 0.768389 -0.126757 
0.461798 0.872188 -0.161339 0.539 0.842185 -0.0142904 0.672783 0.734652 0.0874641 
0.654543 0.749048 0.102466 -0.0381245 0.9935 0.107259 0.270029 -0.940262 0.207343 
0.584728 -0.713419 0.386169 0.713693 0.433672 0.550065 0.893897 0.179593 0.410725 
0.850717 -0.181792 0.493186 0.612093 -0.407154 0.677914 0.964638 0.237595 0.114118 
0.3545 0.92479 0.138176 -0.929878 0.306654 0.203199 -0.704346 0.688616 0.172351 
-0.262386 0.92877 0.261802 0.603977 0.771858 0.198613 0.540149 -0.392284 0.744549 
0.751739 0.451214 0.480931 0.793029 0.283474 0.539211 0.87203 -0.0959871 0.479949 
0.948602 -0.263364 0.175482 0.595335 -0.361596 0.717512 0.519099 -0.391038 0.760017 
0.70714 -0.244073 0.663612 0.811656 0.584003 -0.0124401 0.559887 0.808785 0.179984 
0.469407 0.769278 0.433438 -0.75398 0.592271 0.284128 -0.428276 0.802274 0.415856 
-0.0620212 0.764922 0.64113 -0.130067 0.83317 0.537504 0.211005 0.843569 0.493831 
0.383377 -0.800606 0.460492 0.57766 -0.57852 0.575868 0.671775 -0.277596 0.686774 
0.851718 0.163392 0.497874 -0.288984 -0.946695 0.142325 0.932369 0.330403 0.1467 
0.962518 0.0312735 0.269408 0.800041 -0.375151 0.468184 0.447366 -0.267586 0.853382 
0.303464 0.00229447 0.95284 0.769391 0.614256 0.175291 0.910461 0.265949 0.316753 
0.591299 0.68642 0.423312 0.324669 0.859165 0.395507 -0.825615 0.297481 0.479442 
-0.56792 0.515026 0.64204 -0.504726 0.618438 0.602317 -0.168227 0.582545 0.795199 
-0.118653 0.8107 0.573312 0.394589 -0.876259 0.276532 0.845859 -0.344779 0.407002 
-0.112434 -0.993416 -0.0219714 0.884784 0.223085 0.409133 0.99786 -0.0507529 0.0412293 
0.959147 -0.170349 0.225871 0.756705 -0.125119 0.641672 0.5268 -0.0559224 0.848148 
-0.874358 0.372135 0.31147 0.406839 -0.117622 0.905896 0.856278 -0.0684262 0.511962 
0.608627 0.260317 0.749539 0.815492 0.240628 0.526375 0.781822 0.398069 0.479892 
0.531713 0.605921 0.591727 0.522115 0.733437 0.435277 0.264799 0.73046 0.629532 
0.523291 0.704368 0.479616 -0.103858 0.569028 0.815733 -0.0632679 0.492018 0.868283 
-0.0117801 0.661561 0.749799 0.0776112 0.441878 0.893712 0.3537 0.637809 0.684175 
0.281246 0.602458 0.746957 0.806032 -0.541623 0.238657 0.989656 0.12487 0.0706346 
0.990805 -0.133236 -0.0235337 0.951682 -0.282555 0.120264 0.938083 -0.170325 0.301646 
0.76246 0.0730852 0.642894 0.699373 0.111001 0.706086 0.354901 0.0378702 0.934136 
0.425563 0.25666 0.867769 0.410829 0.247125 0.877581 0.485567 -0.0212224 0.873942 
-0.670978 0.552486 0.494517 0.452913 0.700607 0.551379 0.601626 0.344456 0.720692 
0.279004 0.328941 0.902194 0.248035 0.321984 0.913677 -0.293194 0.554786 0.77862 
-0.34722 0.739364 0.57687 0.480856 0.596472 0.64265 0.311232 0.495159 0.811143 
0.409945 0.599327 0.687569 0.0135804 0.586323 0.809964 0.0976533 0.77638 0.622654 
0.997823 -0.0513522 0.0413764 0.932234 0.360122 -0.0353869 0.953477 0.000527134 0.301465 
-0.975233 0.210612 0.0675547 0.81271 0.249293 0.526646 0.743369 0.360072 0.563694 
-0.111051 0.980531 0.161946 0.07279 0.990283 0.118492 0.179274 0.912638 0.367359 
0.368794 0.733915 0.570403 0.0953857 -0.995276 0.0180966 0.350066 -0.935909 -0.0390972 
0.682799 -0.727056 0.071937 0.71398 -0.682267 -0.157302 0.904036 -0.426662 0.026055 
0.950677 0.192866 -0.242931 0.871943 -0.489028 0.023835 0.89542 -0.423731 -0.136661 
0.997352 -0.0291368 0.0666379 0.884341 0.463494 -0.0557976 0.95765 -0.286921 -0.0241368 
0.998835 -0.00530493 0.0479539 0.974153 -0.211799 0.0785362 0.967435 0.109859 0.228038 
-0.977827 -0.208034 -0.024006 0.988817 -0.14741 0.0225932 0.999517 0.0199089 -0.0238735 
0.988936 0.114901 -0.0938207 0.878881 0.00590477 -0.477004 0.953203 0.302283 -0.00533975 
0.889216 0.168997 0.425129 -0.789914 0.588328 0.172935 0.79403 0.600251 0.0960004 
0.714882 0.34685 0.607156 0.687261 0.501406 0.525608 -0.640377 0.767814 -0.0194712 
0.695637 0.708546 -0.118544 -0.437056 0.855618 -0.277307 -0.425062 0.881437 0.205891 
0.593131 0.79474 -0.128779 0.587272 0.656613 0.473256 -0.342081 0.901003 0.266786 
-0.313031 0.937469 0.152199 0.386389 0.59443 -0.705235 -0.281983 0.838272 -0.466676 
-0.253394 0.929727 0.267207 -0.146199 0.985213 -0.0893347 -0.0917324 0.89484 0.43686 
-0.131727 0.971526 -0.19694 -0.182585 0.978556 0.0953439 -0.196448 0.906176 -0.374504 
0.33833 0.886678 -0.315175 -0.106578 0.942698 -0.316167 -0.0392534 0.97832 -0.203346 
-0.00542322 0.895908 -0.444207 0.149223 0.968016 -0.201686 0.549765 -0.684206 -0.479188 
0.14313 -0.874209 -0.463974 0.748883 -0.252704 -0.612629 0.932402 -0.120445 -0.340763 
0.985329 0.167086 -0.0347646 0.777699 0.2313 -0.584538 0.94258 -0.217757 0.253228 
0.763032 -0.624132 0.168051 -0.517777 -0.855117 0.026107 -0.806113 -0.588664 0.0604637 
0.987798 -0.110834 0.109409 0.98373 -0.161273 -0.0791638 0.943923 -0.24902 -0.21679 
0.838674 0.140186 -0.526283 0.638457 0.324201 -0.698045 0.510785 -0.102011 -0.853635 
-0.86833 0.495606 0.0194402 0.36386 -0.0512857 -0.930041 -0.936742 0.304148 -0.173228 
-0.82689 0.464136 -0.31754 0.332433 -0.208406 -0.919812 0.234074 0.046559 -0.971103 
0.253551 -0.130269 -0.95851 0.496703 -0.217834 -0.840139 0.528865 0.543883 -0.651531 
0.54292 0.468786 -0.696762 0.293719 0.393632 -0.871082 0.258968 0.345292 -0.902058 
0.630866 0.202833 -0.74891 0.579012 0.635607 -0.510636 0.943009 0.231838 -0.238716 
-0.574272 0.528416 -0.625291 0.237293 0.336016 -0.911474 0.262614 0.506662 -0.821174 
0.786525 0.584549 -0.1992 -0.141328 0.777507 -0.612788 -0.119525 0.797279 -0.591658 
0.273654 0.72676 -0.630026 0.39264 0.47184 -0.789431 0.303187 0.604162 -0.73693 
-0.391166 0.567521 -0.724506 0.390269 0.678506 -0.62235 0.207025 0.766132 -0.608426 
0.162851 0.668837 -0.725353 -0.66339 0.484622 -0.570136 0.104305 0.658903 -0.744961 
0.13184 -0.968799 -0.209874 0.537635 -0.448739 -0.71385 0.307389 -0.833136 -0.459778 
0.473846 0.13762 -0.869788 0.216293 -0.757294 -0.616217 0.547408 0.250876 -0.798377 
0.233124 -0.785564 -0.573186 0.602904 -0.694639 -0.392406 0.650332 -0.0107316 -0.759574 
0.514252 0.0388736 -0.856757 0.797377 0.182441 -0.575244 -0.553237 -0.809174 -0.197906 
0.998442 0.0546396 0.0112794 0.984946 -0.151797 -0.0827018 0.871451 -0.23907 -0.428274 
0.774002 -0.265318 -0.574915 0.417094 -0.417401 -0.807347 0.790859 -0.279758 -0.544315 
0.640187 0.745204 -0.186631 0.859544 0.506684 -0.066742 0.236519 0.688352 -0.685733 
0.384047 0.773625 -0.503996 0.421698 0.764571 -0.487443 0.371441 0.785231 -0.495422 
0.283588 0.806228 -0.519206 0.30451 0.816137 -0.491115 -0.771163 0.349357 -0.532219 
-0.349087 0.484043 -0.802397 0.225654 0.567125 -0.792117 0.43072 0.553405 -0.712898 
-0.011764 0.663263 -0.748294 0.221538 0.801185 -0.555899 0.638704 0.394718 -0.660496 
0.97643 0.150555 -0.154655 0.878115 -0.0667425 -0.473772 0.969748 -0.08259 -0.229713 
0.263064 0.897561 -0.35381 0.342069 0.89995 -0.270329 -0.810807 0.371391 -0.452395 
-0.764211 0.46395 -0.448031 0.500492 0.779679 -0.376308 0.60472 0.644689 -0.467643 
-0.352512 0.739049 -0.574058 -0.125059 0.713883 -0.689008 -0.132489 0.893923 -0.428191 
0.262732 -0.962035 -0.073902 0.84688 -0.0280629 -0.531044 -0.220827 -0.965404 -0.138678 
0.909824 -0.186978 -0.370486 0.576173 -0.442357 -0.687274 0.8976 0.440102 -0.0249665 
0.803259 0.586742 0.10251 0.647224 0.762185 -0.0132543 0.271637 0.911875 -0.30773 
0.475158 0.632031 -0.612178 -0.6572 0.549309 -0.516089 -0.213068 0.765717 -0.60686 
0.545976 0.753345 -0.366582 -0.0300461 0.946686 -0.320753 -0.167378 0.933278 -0.317768 
0.694722 -0.688863 -0.206954 -0.157046 -0.985122 0.0697887 0.871857 0.214612 -0.440236 
0.875072 -0.152866 -0.459218 0.896997 -0.260946 -0.356795 -0.961472 0.125592 -0.244535 
0.468391 0.88216 0.0490277 0.419911 0.873492 -0.246345 0.341188 0.932499 -0.118474 
-0.892022 0.420047 -0.166905 -0.52124 0.776269 -0.354565 -0.0758855 0.997114 -0.00220143 
-0.0564403 0.992333 -0.109956 -0.122453 0.963893 -0.236464 -0.138483 0.989091 0.0502087 
0.0438582 0.988122 -0.147282 0.707941 -0.00957379 -0.706206 0.595646 0.36669 -0.714664 
0.600279 0.313836 -0.735644 0.650177 0.158657 -0.743033 0.705261 0.391779 -0.590861 
-0.841556 -0.53074 -0.100497 0.660275 -0.090352 -0.745569 0.372305 0.928029 -0.0122781 
0.426878 0.901847 0.0666823 -0.7696 0.590042 -0.244063 -0.241429 0.94714 -0.211276 
-0.461336 0.872919 -0.158686 -0.317846 0.888682 -0.330481 -0.100208 0.987601 -0.120841 
0.62324 0.781053 -0.0390885 0.153361 0.988165 -0.00306757 0.74831 0.248846 -0.614905 
-0.297818 -0.946429 -0.124804 0.648963 -0.0119119 -0.760726 0.591391 -0.16431 -0.789468 
0.58386 -0.358493 -0.728416 0.664354 0.747408 -0.00378208 -0.852277 0.523084 0.00268387 
0.346106 0.93383 -0.0903956 -0.0253959 -0.999228 0.0299753 0.47125 -0.879628 -0.0646414 
0.752895 -0.257536 -0.605661 0.761944 -0.460715 -0.455173 -0.494227 -0.853534 -0.16498 
0.622179 0.221583 -0.750863 0.623902 0.132916 -0.770117 0.855369 -0.143492 -0.497749 
0.566667 0.105494 -0.817165 0.961797 0.263185 0.0753616 0.741971 0.644075 0.186133 
0.465251 0.832482 0.300857 0.42663 0.857624 0.287171 -0.720226 0.693069 0.0304974 
-0.208767 0.971965 0.108166 -0.219197 0.971562 0.0895534 -0.0396285 0.984357 0.171672 
0.316357 0.922095 0.222842 -0.124308 -0.992221 -0.00668184 0.755895 -0.633434 -0.16548 
0.897007 -0.406081 -0.174575 -0.190191 -0.975417 0.111305 0.903726 -0.109608 -0.413843 
-0.81746 -0.572117 -0.0666461 0.865598 0.0346479 -0.499539 0.669625 0.101277 -0.735762 
0.887827 0.043739 -0.458094 0.644205 -0.0296578 -0.764277 0.707501 -0.0501673 -0.70493 
0.472256 -0.234259 -0.849763 0.60592 -0.102822 -0.788852 0.709511 -0.0553967 -0.702513 
0.87202 -0.0120641 -0.489322 0.679659 -0.192965 -0.707692 0.654401 -0.0550208 -0.754143 
0.852321 0.123586 -0.508208 0.996695 -0.00372948 -0.0811456 0.628639 0.699292 0.340299 
-0.480003 0.85729 0.186146 0.0381209 0.964636 0.260816 -0.247233 -0.962549 -0.111248 
0.687828 -0.709828 -0.151781 0.915614 -0.3859 -0.112837 0.938142 -0.342754 -0.0490828 
0.986761 -0.160541 -0.0230207 0.945137 -0.0325667 -0.325047 -0.992304 -0.123245 0.0119879 
0.924777 0.0780677 -0.372415 0.956795 0.0376763 -0.28831 0.987651 0.116912 0.104294 
0.502953 0.621402 0.600747 0.432448 0.797624 0.420457 -0.968951 0.245349 0.0306282 
-0.799211 0.568647 0.194688 0.261897 -0.952718 0.154072 0.823818 -0.557532 0.102376 
-0.242025 -0.969652 0.0346329 0.969939 -0.235759 0.0602978 0.98545 -0.0860126 -0.146595 
0.993333 -0.114066 -0.0166934 0.980055 0.0491911 -0.192545 0.979364 0.200135 -0.0281581 
0.94517 0.132268 0.298596 0.791358 0.385959 0.474119 0.666834 0.621429 0.411288 
-0.38911 0.81643 0.426657 -0.158819 0.92542 0.344056 -0.114417 0.958215 0.262168 
0.273642 0.885251 0.376099 -0.102118 -0.994017 0.0387516 0.620899 -0.716841 0.317211 
-0.388414 -0.920803 0.0354405 0.868813 -0.422942 0.257458 0.995877 -0.0825698 -0.037577 
0.992271 0.0505935 0.113304 0.973642 0.207858 0.0938994 0.83792 0.377699 0.393996 
0.947304 0.184651 0.261762 0.885715 0.196026 0.420811 0.727267 0.336608 0.598145 
0.835959 0.320463 0.445507 0.439752 0.486577 0.754891 0.607387 0.613309 0.504909 
0.675509 0.620236 0.398742 0.530444 0.768973 0.356804 0.411885 -0.845908 0.338807 
0.890153 -0.325679 0.318686 -0.771188 -0.635157 0.0429442 0.966698 -0.182537 0.179376 
0.969774 -0.0230636 0.242913 0.860782 0.188291 0.472865 0.829073 0.188405 0.526442 