# vtk DataFile Version 4.2
vtk output
ASCII
DATASET POLYDATA
POINTS 6289 float
416.597 153.397 102.813 416.534 153.456 102.858 416.661 153.317 102.84 
416.244 153.304 102.892 416.124 153.538 103.009 416.595 153.156 102.879 
416.923 153.21 102.986 414.402 152.11 103.225 414.228 152.763 103.162 
415.62 152.273 102.992 416.971 152.796 103.026 417.878 152.555 103.339 
414.844 153.518 103.152 415.894 153.92 103.338 413.46 151.999 103.576 
419.889 150.696 104.206 415.801 151.698 103.171 413.409 154.254 103.731 
414.641 154.221 103.471 414.89 154.796 103.892 421.59 149.66 105.35 
421.838 149.785 105.564 419.417 150.972 104.036 419.997 150.128 104.467 
420.988 150.572 105.015 420.963 150.97 105.14 412.044 153.155 104.053 
420.689 151.328 105.104 412.768 154.048 103.889 415.94 154.601 104.015 
412.34 154.868 104.49 415.357 155.06 104.294 413.231 155.343 104.575 
414.627 155.321 104.461 421.682 148.98 105.642 412.428 150.21 104.772 
415.792 150.156 104.134 411.823 152.312 104.23 418.745 153.295 104.872 
410.969 154.386 104.928 411.462 155.45 105.261 412.386 156.327 105.889 
415.331 155.582 105.363 423.206 148.172 106.921 419.134 148.879 105.047 
422.19 150.435 106.418 410.381 151.736 105.147 418.971 153.354 105.352 
408.862 154.541 106.012 408.84 154.599 106.046 410.894 156.368 106.216 
412.562 156.51 106.13 421.505 147.308 106.654 424.699 146.741 108.36 
424.703 146.664 108.388 424.573 146.767 108.291 424.786 146.659 108.498 
422.579 147.563 106.863 424.624 146.866 108.355 412.672 149.029 105.489 
408.557 154.375 106.386 417.425 154.703 106.236 408.947 155.146 106.417 
413.109 156.844 106.902 415.142 156.022 106.63 411.893 157.409 107.392 
424.65 146.483 108.492 420.825 147.038 106.743 424.063 147.077 107.967 
424.621 147.165 108.512 423.541 148.808 107.476 407.868 150.18 107.159 
406.895 152.819 107.722 421.282 152.007 107.92 409.842 157.998 108.289 
408.219 146.013 108.736 419.192 145.796 107.745 424.216 148.371 108.589 
408.246 157.081 108.211 409.883 145.114 108.735 422.944 144.455 109.269 
425.896 144.917 110.32 425.848 144.586 110.383 425.29 146.69 109.432 
405.744 147.727 109.809 405.604 152.854 109.409 406.94 156.588 109.068 
414.387 157.049 109.27 407.33 158.522 110.323 407.652 158.955 110.494 
408.573 159.254 110.22 409.171 159.791 110.593 409.052 159.846 110.758 
409.199 159.884 110.732 409.318 159.992 111.006 425.522 143.437 110.786 
426.248 143.249 111.322 426.686 143.3 111.679 426.187 144.094 110.894 
426.327 144.844 110.988 426.255 145.309 111.003 405.359 146.668 110.611 
424.505 148.518 110.046 404.737 151.374 110.61 421.106 152.218 110.174 
405.67 156.166 110.475 408.826 160.07 111.295 408.146 141.582 111.362 
409.309 141.991 110.819 424.532 142.332 111.267 426.892 143.114 112.118 
405.69 144.09 111.48 425.902 146.402 111.156 423.677 149.559 111.247 
405.074 156.618 111.856 413.486 157.902 110.455 406.083 158.607 112.022 
409.044 160.786 112.613 409.607 160.628 112.291 407.022 140.688 112.44 
423.435 141.278 111.977 426.723 142.076 112.592 427.028 142.25 112.76 
427.044 141.828 113.103 427.132 142.624 112.709 404.252 145.926 112.522 
426.609 145.26 112.414 406.139 159.33 112.916 410.235 160.693 112.723 
407.474 137.104 114.439 415.652 140.418 112.136 404.905 142.141 113.464 
426.745 145.113 113.212 403.079 151.295 113.868 417.867 154.211 112.589 
407.319 160.564 113.416 411.409 160.417 113.295 425.872 139.601 114.112 
405.52 139.694 114.22 426.214 140.23 113.791 427.56 141.408 114.147 
427.679 141.827 114.07 427.36 143.823 113.682 423.987 148.554 114.15 
403.608 155.635 114.449 405.82 159.853 114.282 411.047 160.941 113.987 
408.044 161.486 114.714 408.771 161.627 114.7 405.122 138.394 115.573 
427.091 139.268 115.095 428.406 139.929 116.27 427.792 141.725 114.553 
403.817 142.292 115.197 428.04 141.939 115.868 427.58 143.326 115.326 
426.624 145.013 115.518 417.088 154.485 114.086 416.228 155.283 115.2 
413.744 159.036 114.885 407.738 161.775 115.544 410.068 161.915 115.549 
408.758 134.225 116.046 405.629 136.526 116.377 423.583 136.932 115.431 
421.695 137.368 114.813 404.277 139.33 116.23 428.403 138.626 117.019 
402.629 146.212 116.126 416.888 154.213 115.93 416.13 155.517 116.069 
404.414 158.873 116.129 412.87 160.121 115.112 405.903 161.192 116.752 
408.214 162.245 116.248 408.96 162.308 116.19 407.029 162.173 116.996 
407.465 162.434 117.057 407.989 162.577 117.037 410.139 162.536 116.89 
408.288 133.351 116.823 405.505 135.607 117.278 403.426 140.034 117.716 
426.612 144.38 117.498 402.795 155.165 117.474 415.945 156.707 117.475 
414.033 159.666 116.679 410.613 162.371 116.786 411.034 162.316 117.006 
406.582 162.248 118.143 409.232 162.96 117.642 407.089 162.566 117.955 
408.386 131.09 118.37 410.16 131.24 117.918 410.816 131.807 117.491 
418.782 132.04 117.777 427.894 135.587 118.091 404.135 137.438 118.029 
429.039 138.918 118.286 421.549 148.798 117.804 417.135 153.501 117.338 
417.012 153.864 117.953 413.752 160.276 117.096 404.58 160.12 118.433 
405.476 161.419 119.057 407.188 130.582 119.617 428.725 140.6 119.413 
402.044 149.766 119.11 417.948 150.891 119.003 417.518 152.438 119.157 
417.245 153.985 119.115 417.34 154.538 119.56 417.65 154.173 120.101 
403.948 159.184 119.32 406.323 162.429 120.039 409.259 163.686 119.44 
407.647 163.341 120.086 407.729 129.495 120.171 409.255 128.73 120.055 
412.779 127.797 120.027 406.326 131.146 120.182 405.419 132.672 120.139 
427.883 131.829 120.144 429.489 138.72 120.006 427.956 141.768 119.791 
418.01 150.442 119.879 418.187 150.044 120.107 418.824 149.557 119.509 
417.845 151.01 119.832 417.855 151.807 120.171 417.992 152.684 120.537 
403.386 157.801 120.02 416.104 159.26 120.175 411.353 163.218 119.278 
409.821 163.899 120.261 410.452 163.925 120.643 408.097 127.383 121.781 
408.285 127.79 121.3 409.908 126.824 121.242 406.844 129.334 121.106 
415.153 127.72 119.984 406.454 130.1 121.038 404.799 133.231 120.766 
404.185 134.491 121.17 430.177 133.973 121.023 430.246 135.019 120.765 
430.6 134.917 121.444 430.488 136.576 121.573 429.253 139.311 121.452 
427.24 142.284 120.666 418.951 148.524 120.894 418.973 148.339 121.339 
419.54 147.655 121.207 419.89 147.682 120.764 418.487 149.614 121.092 
418.398 150.084 121.061 418.067 151.369 120.57 402.335 153.516 120.952 
415.602 160.253 120.414 414.584 161.438 120.362 412.778 162.958 120.463 
409.227 164.1 121.502 423.534 124.805 122.151 420.537 125.529 121.354 
409.062 125.805 122.505 426.773 125.81 122.553 407.767 127.21 122.358 
428.711 128.204 122.372 429.441 129.333 122.297 430.019 130.22 122.319 
431.442 133.253 122.952 402.883 139.541 121.639 429.653 138.523 122.054 
428.857 139.898 121.581 426.485 142.653 121.382 424.857 143.833 121.612 
419.287 147.655 121.835 402.026 147.498 121.429 419.053 148.237 121.828 
418.346 151.103 121.061 418.182 157.364 122.149 404.687 160.502 121.72 
405.936 162.103 121.932 406.114 162.167 122.644 410.259 164.386 122.714 
412.116 122.941 123.144 413.22 123.326 122.65 423.734 123.858 122.619 
405.59 130.152 122.785 430.988 131.295 122.78 431.415 131.345 123.246 
428.226 140.101 122.933 419.833 145.971 123.32 420.932 145.448 122.451 
419.655 146.889 123.193 419.954 148.649 123.534 419.99 153.427 123.446 
404.062 158.928 123.037 416.828 160.713 123.192 411.146 164.389 122.945 
419.159 120.496 123.732 410.23 122.436 124.354 424.256 121.999 123.601 
410.3 122.995 123.899 406.366 128.011 123.716 405.494 129.438 124.225 
432.243 129.644 124.523 432.148 132.405 124.233 431.946 133.276 124.066 
427.527 140.149 123.968 402.382 143.065 123.916 419.929 143.522 124.729 
419.896 143.567 124.743 419.925 143.441 124.843 420.01 143.294 124.87 
424.805 142.663 123.163 419.98 144.062 124.466 420.148 144.412 124.008 
407.352 162.991 124.027 414.297 162.863 122.979 408.967 164.148 123.795 
413.71 119.267 124.937 411.626 119.897 125.342 409.466 121.546 125.813 
429.609 122.898 125.013 406.416 127.146 124.929 433.071 130.834 125.705 
431.619 134.777 124.768 402.989 138.606 124.459 429.79 137.543 124.704 
428.429 139.131 124.356 420.163 142.48 125.389 420.101 142.641 125.4 
420.243 142.15 125.715 420.018 143.211 125.126 420.239 146.532 124.344 
402.41 148.797 124.913 421.548 150.446 125.318 403.504 155.86 124.934 
403.695 156.46 125.01 420.573 155.921 125.13 419.147 158.284 124.489 
411.152 164.37 124.512 424.119 116.668 125.878 411.724 117.489 126.914 
412.552 117.478 126.453 410.328 118.994 127.086 411.136 119.296 126.076 
409.965 120.354 126.3 429.66 119.38 126.312 406.952 125.342 126.005 
432.903 132.441 126.431 427.012 139.657 125.197 420.687 141.32 126.131 
404.548 158.271 125.418 405.552 159.441 126.136 407.287 161.845 126.108 
417.666 160.943 125.543 415.979 162.242 125.582 409.351 163.463 125.962 
413.134 163.684 125.781 410.757 164.036 125.773 412.729 116.157 127.213 
416.154 116.596 125.924 409.611 119.495 127.671 433.33 122.675 127.342 
407.306 124.108 127.222 434.04 123.183 127.767 432.889 125.953 126.158 
433.516 126.785 126.57 434.32 127.35 127.44 434.388 128.818 127.838 
434.057 129.814 127.675 420.547 140.935 126.839 422.582 144.927 127.52 
422.783 146.931 127.378 403.224 151.363 127.196 403.708 153.881 126.951 
418.487 160.565 126.846 409.855 163.221 126.806 413.328 163.501 126.59 
411.393 163.952 126.147 412.011 164.164 125.22 423.807 111.554 128.065 
417.225 112.492 127.991 434.637 123.867 128.141 406.674 125.246 127.743 
405.399 128.819 128.095 434.485 128.216 127.798 433.677 131.098 128.122 
404.326 132.81 128.114 432.736 132.691 127.681 430.961 134.768 127.633 
421.067 138.754 128.258 421.163 138.492 128.331 420.96 139.324 127.747 
420.794 139.942 127.621 420.694 140.482 127.316 420.824 140.104 127.668 
402.778 142.725 127.141 423.064 150.662 127.823 422.528 154.244 128.094 
421.751 156.035 127.671 419.574 159.622 127.405 411.402 163.487 127.238 
412.486 163.418 127.416 423.052 109.453 129.029 425.076 109.747 128.956 
[...]
POINT_DATA 6289
SCALARS scalars float
LOOKUP_TABLE default
1 1 1 1 1 1 1 1 1 
1 1 1 1 1 1 1 1 1 
1 1 1 1 1 1 1 1 1 
1 1 1 1 1 1 1 1 1 
1 1 1 1 1 1 1 1 1 
1 1 1 1 1 1 1 1 1 
1 1 1 1 1 1 1 1 1 
1 1 1 1 1 1 1 1 1 
1 1 1 1 1 1 1 1 1 
1 1 1 1 1 1 1 1 1 
1 1 1 1 1 1 1 1 1 
1 1 1 1 1 1 1 1 1 
1 1 1 1 1 1 1 1 1 
1 1 1 1 1 1 1 1 1 
1 1 1 1 1 1 1 1 1 
1 1 1 1 1 1 1 1 1 
1 1 1 1 1 1 1 1 1 
1 1 1 1 1 1 1 1 1 
1 1 1 1 1 1 1 1 1 
1 1 1 1 1 1 1 1 1 
1 1 1 1 1 1 1 1 1 
1 1 1 1 1 1 1 1 1 
1 1 1 1 1 1 1 1 1 
1 1 1 1 1 1 1 1 1 
1 1 1 1 1 1 1 1 1 
1 1 1 1 1 1 1 1 1 
1 1 1 1 1 1 1 1 1 
1 1 1 1 1 1 1 1 1 
1 1 1 1 1 1 1 1 1 
1 1 1 1 1 1 1 1 1 
1 1 1 1 1 1 1 1 1 
1 1 1 1 1 1 1 1 1 
1 1 1 1 1 1 1 1 1 
1 1 1 1 1 1 1 1 1 
1 1 1 1 1 1 1 1 1 
1 1 1 1 1 1 1 1 1 
1 1 1 1 1 1 1 1 1 
1 1 1 1 1 1 1 1 1 
1 1 1 1 1 1 1 1 1 
1 1 1 1 1 1 1 1 1 
1 1 1 1 1 1 1 1 1 
1 1 1 1 1 1 1 1 1 
1 1 1 1 1 1 1 1 1 
1 1 1 1 1 1 1 1 1 
1 1 1 1 1 1 1 1 1 
1 1 1 1 1 1 1 1 1 
1 1 1 1 1 1 1 1 1 
1 1 1 1 1 1 1 1 1 
1 1 1 1 1 1 1 1 1 
1 1 1 1 1 1 1 1 1 
1 1 1 1 1 1 1 1 1 
1 1 1 1 1 1 1 1 1 
1 1 1 1 1 1 1 1 1 
1 1 1 1 1 1 1 1 1 
1 1 1 1 1 1 1 1 1 
1 1 1 1 1 1 1 1 1 
1 1 1 1 1 1 1 1 1 
1 1 1 1 1 1 1 1 1 
1 1 1 1 1 1 1 1 1 
1 1 1 1 1 1 1 1 1 
1 1 1 1 1 1 1 1 1 
1 1 1 1 1 1 1 1 1 
1 1 1 1 1 1 1 1 1 
1 1 1 1 1 1 1 1 1 
1 1 1 1 1 1 1 1 1 
1 1 1 1 1 1 1 1 1 
1 1 1 1 1 1 1 1 1 
1 1 1 1 1 1 1 1 1 
1 1 1 1 1 1 1 1 1 
1 1 1 1 1 1 1 1 1 
1 1 1 1 1 1 1 1 1 
1 1 1 1 1 1 1 1 1 
1 1 1 1 1 1 1 1 1 
1 1 1 1 1 1 1 1 1 
1 1 1 1 1 1 1 1 1 
1 1 1 1 1 1 1 1 1 
1 1 1 1 1 1 1 1 1 
1 1 1 1 1 1 1 1 1 
1 1 1 1 1 1 1 1 1 
1 1 1 1 1 1 1 1 1 
1 1 1 1 1 1 1 1 1 
1 1 1 1 1 1 1 1 1 
1 1 1 1 1 1 1 1 1 
1 1 1 1 1 1 1 1 1 
1 1 1 1 1 1 1 1 1 
1 1 1 1 1 1 1 1 1 
1 1 1 1 1 1 1 1 1 
1 1 1 1 1 1 1 1 1 
1 1 1 1 1 1 1 1 1 
1 1 1 1 1 1 1 1 1 
1 1 1 1 1 1 1 1 1 
1 1 1 1 1 1 1 1 1 
1 1 1 1 1 1 1 1 1 
1 1 1 1 1 1 1 1 1 
1 1 1 1 1 1 1 1 1 
1 1 1 1 1 1 1 1 1 
1 1 1 1 1 1 1 1 1 
1 1 1 1 1 1 1 1 1 
1 1 1 1 1 1 1 1 1 
1 1 1 1 1 1 1 1 1 
1 1 1 1 1 1 1 1 1 
1 1 1 1 1 1 1 1 1 
1 1 1 1 1 1 1 1 1 
1 1 1 1 1 1 1 1 1 
1 1 1 1 1 1 1 1 1 
1 1 1 1 1 1 1 1 1 
1 1 1 1 1 1 1 1 1 
1 1 1 1 1 1 1 1 1 
1 1 1 1 1 1 1 1 1 
1 1 1 1 1 1 1 1 1 
1 1 1 1 1 1 1 1 1 
1 1 1 1 1 1 1 1 1 
1 1 1 1 1 1 1 1 1 
1 1 1 1 1 1 1 1 1 
1 1 1 1 1 1 1 1 1 
1 1 1 1 1 1 1 1 1 
1 1 1 1 1 1 1 1 1 
1 1 1 1 1 1 1 1 1 
1 1 1 1 1 1 1 1 1 
1 1 1 1 1 1 1 1 1 
1 1 1 1 1 1 1 1 1 
1 1 1 1 1 1 1 1 1 
1 1 1 1 1 1 1 1 1 
1 1 1 1 1 1 1 1 1 
1 1 1 1 1 1 1 1 1 
1 1 1 1 1 1 1 1 1 
1 1 1 1 1 1 1 1 1 
1 1 1 1 1 1 1 1 1 
1 1 1 1 1 1 1 1 1 
1 1 1 1 1 1 1 1 1 
1 1 1 1 1 1 1 1 1 
1 1 1 1 1 1 1 1 1 
1 1 1 1 1 1 1 1 1 
1 1 1 1 1 1 1 1 1 
1 1 1 1 1 1 1 1 1 
1 1 1 1 1 1 1 1 1 
1 1 1 1 1 1 1 1 1 
1 1 1 1 1 1 1 1 1 
1 1 1 1 1 1 1 1 1 
1 1 1 1 1 1 1 1 1 
1 1 1 1 1 1 1 1 1 
1 1 1 1 1 1 1 1 1 
1 1 1 1 1 1 1 1 1 
1 1 1 1 1 1 1 1 1 
1 1 1 1 1 1 1 1 1 
1 1 1 1 1 1 1 1 1 
1 1 1 1 1 1 1 1 1 
1 1 1 1 1 1 1 1 1 
1 1 1 1 1 1 1 1 1 
1 1 1 1 1 1 1 1 1 
1 1 1 1 1 1 1 1 1 
1 1 1 1 1 1 1 1 1 
1 1 1 1 1 1 1 1 1 
1 1 1 1 1 1 1 1 1 
1 1 1 1 1 1 1 1 1 
1 1 1 1 1 1 1 1 1 
1 1 1 1 1 1 1 1 1 
1 1 1 1 1 1 1 1 1 
1 1 1 1 1 1 1 1 1 
1 1 1 1 1 1 1 1 1 
1 1 1 1 1 1 1 1 1 
1 1 1 1 1 1 1 1 1 
1 1 1 1 1 1 1 1 1 
1 1 1 1 1 1 1 1 1 
1 1 1 1 1 1 1 1 1 
1 1 1 1 1 1 1 1 1 
1 1 1 1 1 1 1 1 1 
1 1 1 1 1 1 1 1 1 
1 1 1 1 1 1 1 1 1 
1 1 1 1 1 1 1 1 1 
1 1 1 1 1 1 1 1 1 
1 1 1 1 1 1 1 1 1 
1 1 1 1 1 1 1 1 1 
1 1 1 1 1 1 1 1 1 
1 1 1 1 1 1 1 1 1 
1 1 1 1 1 1 1 1 1 
1 1 1 1 1 1 1 1 1 
1 1 1 1 1 1 1 1 1 
1 1 1 1 1 1 1 1 1 
1 1 1 1 1 1 1 1 1 
1 1 1 1 1 1 1 1 1 
1 1 1 1 1 1 1 1 1 
1 1 1 1 1 1 1 1 1 
1 1 1 1 1 1 1 1 1 
1 1 1 1 1 1 1 1 1 
1 1 1 1 1 1 1 1 1 
1 1 1 1 1 1 1 1 1 
1 1 1 1 1 1 1 1 1 
1 1 1 1 1 1 1 1 1 
1 1 1 1 1 1 1 1 1 
1 1 1 1 1 1 1 1 1 
1 1 1 1 1 1 1 1 1 
1 1 1 1 1 1 1 1 1 
1 1 1 1 1 1 1 1 1 
1 1 1 1 1 1 1 1 1 
1 1 1 1 1 1 1 1 1 
1 1 1 1 1 1 1 1 1 
1 1 1 1 1 1 1 1 1 
1 1 1 1 1 1 1 1 1 
1 1 1 1 1 1 1 1 1 
1 1 1 1 1 1 1 1 1 
1 1 1 1 1 1 1 1 1 
1 1 1 1 1 1 1 1 1 
1 1 1 1 1 1 1 1 1 
1 1 1 1 1 1 1 1 1 
1 1 1 1 1 1 1 1 1 
1 1 1 1 1 1 1 1 1 
1 1 1 1 1 1 1 1 1 
1 1 1 1 1 1 1 1 1 
1 1 1 1 1 1 1 1 1 
1 1 1 1 1 1 1 1 1 
1 1 1 1 1 1 1 1 1 
1 1 1 1 1 1 1 1 1 
1 1 1 1 1 1 1 1 1 
1 1 1 1 1 1 1 1 1 
1 1 1 1 1 1 1 1 1 
1 1 1 1 1 1 1 1 1 
1 1 1 1 1 1 1 1 1 
1 1 1 1 1 1 1 1 1 
1 1 1 1 1 1 1 1 1 
1 1 1 1 1 1 1 1 1 
1 1 1 1 1 1 1 1 1 
1 1 1 1 1 1 1 1 1 
1 1 1 1 1 1 1 1 1 
1 1 1 1 1 1 1 1 1 
1 1 1 1 1 1 1 1 1 
1 1 1 1 1 1 1 1 1 
1 1 1 1 1 1 1 1 1 
1 1 1 1 1 1 1 1 1 
1 1 1 1 1 1 1 1 1 
1 1 1 1 1 1 1 1 1 
1 1 1 1 1 1 1 1 1 
1 1 1 1 1 1 1 1 1 
1 1 1 1 1 1 1 1 1 
1 1 1 1 1 1 1 1 1 
1 1 1 1 1 1 1 1 1 
1 1 1 1 1 1 1 1 1 
1 1 1 1 1 1 1 1 1 
1 1 1 1 1 1 1 1 1 
1 1 1 1 1 1 1 1 1 
1 1 1 1 1 1 1 1 1 
1 1 1 1 1 1 1 1 1 
1 1 1 1 1 1 1 1 1 
1 1 1 1 1 1 1 1 1 
1 1 1 1 1 1 1 1 1 
1 1 1 1 1 1 1 1 1 
1 1 1 1 1 1 1 1 1 
1 1 1 1 1 1 1 1 1 
1 1 1 1 1 1 1 1 1 
1 1 1 1 1 1 1 1 1 
1 1 1 1 1 1 1 1 1 
1 1 1 1 1 1 1 1 1 
1 1 1 1 1 1 1 1 1 
1 1 1 1 1 1 1 1 1 
1 1 1 1 1 1 1 1 1 
1 1 1 1 1 1 1 1 1 
1 1 1 1 1 1 1 1 1 
1 1 1 1 1 1 1 1 1 
1 1 1 1 1 1 1 1 1 
1 1 1 1 1 1 1 1 1 
1 1 1 1 1 1 1 1 1 
1 1 1 1 1 1 1 1 1 
1 1 1 1 1 1 1 1 1 
1 1 1 1 1 1 1 1 1 
1 1 1 1 1 1 1 1 1 
1 1 1 1 1 1 1 1 1 
1 1 1 1 1 1 1 1 1 
1 1 1 1 1 1 1 1 1 
1 1 1 1 1 1 1 1 1 
1 1 1 1 1 1 1 1 1 
1 1 1 1 1 1 1 1 1 
1 1 1 1 1 1 1 1 1 
1 1 1 1 1 1 1 1 1 
1 1 1 1 1 1 1 1 1 
1 1 1 1 1 1 1 1 1 
1 1 1 1 1 1 1 1 1 
1 1 1 1 1 1 1 1 1 
1 1 1 1 1 1 1 1 1 
1 1 1 1 1 1 1 1 1 
1 1 1 1 1 1 1 1 1 
1 1 1 1 1 1 1 1 1 
1 1 1 1 1 1 1 1 1 
1 1 1 1 1 1 1 1 1 
1 1 1 1 1 1 1 1 1 
1 1 1 1 1 1 1 1 1 
1 1 1 1 1 1 1 1 1 
1 1 1 1 1 1 1 1 1 
1 1 1 1 1 1 1 1 1 
1 1 1 1 1 1 1 1 1 
1 1 1 1 1 1 1 1 1 
1 1 1 1 1 1 1 1 1 
1 1 1 1 1 1 1 1 1 
1 1 1 1 1 1 1 1 1 
1 1 1 1 1 1 1 1 1 
1 1 1 1 1 1 1 1 1 
1 1 1 1 1 1 1 1 1 
1 1 1 1 1 1 1 1 1 
1 1 1 1 1 1 1 1 1 
1 1 1 1 1 1 1 1 1 
1 1 1 1 1 1 1 1 1 
1 1 1 1 1 1 1 1 1 
1 1 1 1 1 1 1 1 1 
1 1 1 1 1 1 1 1 1 
1 1 1 1 1 1 1 1 1 
1 1 1 1 1 1 1 1 1 
1 1 1 1 1 1 1 1 1 
1 1 1 1 1 1 1 1 1 
1 1 1 1 1 1 1 1 1 
1 1 1 1 1 1 1 1 1 
1 1 1 1 1 1 1 1 1 
1 1 1 1 1 1 1 1 1 
1 1 1 1 1 1 1 1 1 
1 1 1 1 1 1 1 1 1 
1 1 1 1 1 1 1 1 1 
1 1 1 1 1 1 1 1 1 
1 1 1 1 1 1 1 1 1 
1 1 1 1 1 1 1 1 1 
1 1 1 1 1 1 1 1 1 
1 1 1 1 1 1 1 1 1 
1 1 1 1 1 1 1 1 1 
1 1 1 1 1 1 1 1 1 
1 1 1 1 1 1 1 1 1 
1 1 1 1 1 1 1 1 1 
1 1 1 1 1 1 1 1 1 
1 1 1 1 1 1 1 1 1 
1 1 1 1 1 1 1 1 1 
1 1 1 1 1 1 1 1 1 
1 1 1 1 1 1 1 1 1 
1 1 1 1 1 1 1 1 1 
1 1 1 1 1 1 1 1 1 
1 1 1 1 1 1 1 1 1 
1 1 1 1 1 1 1 1 1 
1 1 1 1 1 1 1 1 1 
1 1 1 1 1 1 1 1 1 
1 1 1 1 1 1 1 1 1 
1 1 1 1 1 1 1 1 1 
1 1 1 1 1 1 1 1 1 
1 1 1 1 1 1 1 1 1 
1 1 1 1 1 1 1 1 1 
1 1 1 1 1 1 1 1 1 
1 1 1 1 1 1 1 1 1 
1 1 1 1 1 1 1 1 1 
1 1 1 1 1 1 1 1 1 
1 1 1 1 1 1 1 1 1 
1 1 1 1 1 1 1 1 1 
1 1 1 1 1 1 1 1 1 
1 1 1 1 1 1 1 1 1 
1 1 1 1 1 1 1 1 1 
1 1 1 1 1 1 1 1 1 
1 1 1 1 1 1 1 1 1 
1 1 1 1 1 1 1 1 1 
1 1 1 1 1 1 1 1 1 
1 1 1 1 1 1 1 1 1 
1 1 1 1 1 1 1 1 1 
1 1 1 1 1 1 1 1 1 
1 1 1 1 1 1 1 1 1 
1 1 1 1 1 1 1 1 1 
1 1 1 1 1 1 1 1 1 
1 1 1 1 1 1 1 1 1 
1 1 1 1 1 1 1 1 1 
1 1 1 1 1 1 1 1 1 
1 1 1 1 1 1 1 1 1 
1 1 1 1 1 1 1 1 1 
1 1 1 1 1 1 1 1 1 
1 1 1 1 1 1 1 1 1 
1 1 1 1 1 1 1 1 1 
1 1 1 1 1 1 1 1 1 
1 1 1 1 1 1 1 1 1 
1 1 1 1 1 1 1 1 1 
1 1 1 1 1 1 1 1 1 
1 1 1 1 1 1 1 1 1 
1 1 1 1 1 1 1 1 1 
1 1 1 1 1 1 1 1 1 
1 1 1 1 1 1 1 1 1 
1 1 1 1 1 1 1 1 1 
1 1 1 1 1 1 1 1 1 
1 1 1 1 1 1 1 1 1 
1 1 1 1 1 1 1 1 1 
1 1 1 1 1 1 1 1 1 
1 1 1 1 1 1 1 1 1 
1 1 1 1 1 1 1 1 1 
1 1 1 1 1 1 1 1 1 
1 1 1 1 1 1 1 1 1 
1 1 1 1 1 1 1 1 1 
1 1 1 1 1 1 1 1 1 
1 1 1 1 1 1 1 1 1 
1 1 1 1 1 1 1 1 1 
1 1 1 1 1 1 1 1 1 
1 1 1 1 1 1 1 1 1 
1 1 1 1 1 1 1 1 1 
1 1 1 1 1 1 1 1 1 
1 1 1 1 1 1 1 1 1 
1 1 1 1 1 1 1 1 1 
1 1 1 1 1 1 1 1 1 
1 1 1 1 1 1 1 1 1 
1 1 1 1 1 1 1 1 1 
1 1 1 1 1 1 1 1 1 
1 1 1 1 1 1 1 1 1 
1 1 1 1 1 1 1 1 1 
1 1 1 1 1 1 1 1 1 
1 1 1 1 1 1 1 1 1 
1 1 1 1 1 1 1 1 1 
1 1 1 1 1 1 1 1 1 
1 1 1 1 1 1 1 1 1 
1 1 1 1 1 1 1 1 1 
1 1 1 1 1 1 1 1 1 
1 1 1 1 1 1 1 1 1 
1 1 1 1 1 1 1 1 1 
1 1 1 1 1 1 1 1 1 
1 1 1 1 1 1 1 1 1 
1 1 1 1 1 1 1 1 1 
1 1 1 1 1 1 1 1 1 
1 1 1 1 1 1 1 1 1 
1 1 1 1 1 1 1 1 1 
1 1 1 1 1 1 1 1 1 
1 1 1 1 1 1 1 1 1 
1 1 1 1 1 1 1 1 1 
1 1 1 1 1 1 1 1 1 
1 1 1 1 1 1 1 1 1 
1 1 1 1 1 1 1 1 1 
1 1 1 1 1 1 1 1 1 
1 1 1 1 1 1 1 1 1 
1 1 1 1 1 1 1 1 1 
1 1 1 1 1 1 1 1 1 
1 1 1 1 1 1 1 1 1 
1 1 1 1 1 1 1 1 1 
1 1 1 1 1 1 1 1 1 
1 1 1 1 1 1 1 1 1 
1 1 1 1 1 1 1 1 1 
1 1 1 1 1 1 1 1 1 
1 1 1 1 1 1 1 1 1 
1 1 1 1 1 1 1 1 1 
1 1 1 1 1 1 1 1 1 
1 1 1 1 1 1 1 1 1 
1 1 1 1 1 1 1 1 1 
1 1 1 1 1 1 1 1 1 
1 1 1 1 1 1 1 1 1 
1 1 1 1 1 1 1 1 1 
1 1 1 1 1 1 1 1 1 
1 1 1 1 1 1 1 1 1 
1 1 1 1 1 1 1 1 1 
1 1 1 1 1 1 1 1 1 
1 1 1 1 1 1 1 1 1 
1 1 1 1 1 1 1 1 1 
1 1 1 1 1 1 1 1 1 
1 1 1 1 1 1 1 1 1 
1 1 1 1 1 1 1 1 1 
1 1 1 1 1 1 1 1 1 
1 1 1 1 1 1 1 1 1 
1 1 1 1 1 1 1 1 1 
1 1 1 1 1 1 1 1 1 
1 1 1 1 1 1 1 1 1 
1 1 1 1 1 1 1 1 1 
1 1 1 1 1 1 1 1 1 
1 1 1 1 1 1 1 1 1 
1 1 1 1 1 1 1 1 1 
1 1 1 1 1 1 1 1 1 
1 1 1 1 1 1 1 1 1 
1 1 1 1 1 1 1 1 1 
1 1 1 1 1 1 1 1 1 
1 1 1 1 1 1 1 1 1 
1 1 1 1 1 1 1 1 1 
1 1 1 1 1 1 1 1 1 
1 1 1 1 1 1 1 1 1 
1 1 1 1 1 1 1 1 1 
1 1 1 1 1 1 1 1 1 
1 1 1 1 1 1 1 1 1 
1 1 1 1 1 1 1 1 1 
1 1 1 1 1 1 1 1 1 
1 1 1 1 1 1 1 1 1 
1 1 1 1 1 1 1 1 1 
1 1 1 1 1 1 1 1 1 
1 1 1 1 1 1 1 1 1 
1 1 1 1 1 1 1 1 1 
1 1 1 1 1 1 1 1 1 
1 1 1 1 1 1 1 1 1 
1 1 1 1 1 1 1 1 1 
1 1 1 1 1 1 1 1 1 
1 1 1 1 1 1 1 1 1 
1 1 1 1 1 1 1 1 1 
1 1 1 1 1 1 1 1 1 
1 1 1 1 1 1 1 1 1 
1 1 1 1 1 1 1 1 1 
1 1 1 1 1 1 1 1 1 
1 1 1 1 1 1 1 1 1 
1 1 1 1 1 1 1 1 1 
1 1 1 1 1 1 1 1 1 
1 1 1 1 1 1 1 1 1 
1 1 1 1 1 1 1 1 1 
1 1 1 1 1 1 1 1 1 
1 1 1 1 1 1 1 1 1 
1 1 1 1 1 1 1 1 1 
1 1 1 1 1 1 1 1 1 
1 1 1 1 1 1 1 1 1 
1 1 1 1 1 1 1 1 1 
1 1 1 1 1 1 1 1 1 
1 1 1 1 1 1 1 1 1 
1 1 1 1 1 1 1 1 1 
1 1 1 1 1 1 1 1 1 
1 1 1 1 1 1 1 1 1 
1 1 1 1 1 1 1 1 1 
1 1 1 1 1 1 1 1 1 
1 1 1 1 1 1 1 1 1 
1 1 1 1 1 1 1 1 1 
1 1 1 1 1 1 1 1 1 
1 1 1 1 1 1 1 1 1 
1 1 1 1 1 1 1 1 1 
1 1 1 1 1 1 1 1 1 
1 1 1 1 1 1 1 1 1 
1 1 1 1 1 1 1 1 1 
1 1 1 1 1 1 1 1 1 
1 1 1 1 1 1 1 1 1 
1 1 1 1 1 1 1 1 1 
1 1 1 1 1 1 1 1 1 
1 1 1 1 1 1 1 1 1 
1 1 1 1 1 1 1 1 1 
1 1 1 1 1 1 1 1 1 
1 1 1 1 1 1 1 1 1 
1 1 1 1 1 1 1 1 1 
1 1 1 1 1 1 1 1 1 
1 1 1 1 1 1 1 1 1 
1 1 1 1 1 1 1 1 1 
1 1 1 1 1 1 1 1 1 
1 1 1 1 1 1 1 1 1 
1 1 1 1 1 1 1 1 1 
1 1 1 1 1 1 1 1 1 
1 1 1 1 1 1 1 1 1 
1 1 1 1 1 1 1 1 1 
1 1 1 1 1 1 1 1 1 
1 1 1 1 1 1 1 1 1 
1 1 1 1 1 1 1 1 1 
1 1 1 1 1 1 1 1 1 
1 1 1 1 1 1 1 1 1 
1 1 1 1 1 1 1 1 1 
1 1 1 1 1 1 1 1 1 
1 1 1 1 1 1 1 1 1 
1 1 1 1 1 1 1 1 1 
1 1 1 1 1 1 1 1 1 
1 1 1 1 1 1 1 1 1 
1 1 1 1 1 1 1 1 1 
1 1 1 1 1 1 1 1 1 
1 1 1 1 1 1 1 1 1 
1 1 1 1 1 1 1 1 1 
1 1 1 1 1 1 1 1 1 
1 1 1 1 1 1 1 1 1 
1 1 1 1 1 1 1 1 1 
1 1 1 1 1 1 1 1 1 
1 1 1 1 1 1 1 1 1 
1 1 1 1 1 1 1 1 1 
1 1 1 1 1 1 1 1 1 
1 1 1 1 1 1 1 1 1 
1 1 1 1 1 1 1 1 1 
1 1 1 1 1 1 1 1 1 
1 1 1 1 1 1 1 1 1 
1 1 1 1 1 1 1 1 1 
1 1 1 1 1 1 1 1 1 
1 1 1 1 1 1 1 1 1 
1 1 1 1 1 1 1 1 1 
1 1 1 1 1 1 1 1 1 
1 1 1 1 1 1 1 1 1 
1 1 1 1 1 1 1 1 1 
1 1 1 1 1 1 1 1 1 
1 1 1 1 1 1 1 1 1 
1 1 1 1 1 1 1 1 1 
1 1 1 1 1 1 1 1 1 
1 1 1 1 1 1 1 1 1 
1 1 1 1 1 1 1 1 1 
1 1 1 1 1 1 1 1 1 
1 1 1 1 1 1 1 1 1 
1 1 1 1 1 1 1 1 1 
1 1 1 1 1 1 1 1 1 
1 1 1 1 1 1 1 1 1 
1 1 1 1 1 1 1 1 1 
1 1 1 1 1 1 1 1 1 
1 1 1 1 1 1 1 1 1 
1 1 1 1 1 1 1 1 1 
1 1 1 1 1 1 1 1 1 
1 1 1 1 1 1 1 1 1 
1 1 1 1 1 1 1 1 1 
1 1 1 1 1 1 1 1 1 
1 1 1 1 1 1 1 1 1 
1 1 1 1 1 1 1 1 1 
1 1 1 1 1 1 1 1 1 
1 1 1 1 1 1 1 1 1 
1 1 1 1 1 1 1 1 1 
1 1 1 1 1 1 1 1 1 
1 1 1 1 1 1 1 1 1 
1 1 1 1 1 1 1 1 1 
1 1 1 1 1 1 1 1 1 
1 1 1 1 1 1 1 1 1 
1 1 1 1 1 1 1 1 1 
1 1 1 1 1 1 1 1 1 
1 1 1 1 1 1 1 1 1 
1 1 1 1 1 1 1 1 1 
1 1 1 1 1 1 1 1 1 
1 1 1 1 1 1 1 1 1 
1 1 1 1 1 1 1 1 1 
1 1 1 1 1 1 1 1 1 
1 1 1 1 1 1 1 1 1 
1 1 1 1 1 1 1 1 1 
1 1 1 1 1 1 1 1 1 
1 1 1 1 1 1 1 1 1 
1 1 1 1 1 1 1 1 1 
1 1 1 1 1 1 1 1 1 
1 1 1 1 1 1 1 1 1 
1 1 1 1 1 1 1 1 1 
1 1 1 1 1 1 1 1 1 
1 1 1 1 1 1 1 1 1 
1 1 1 1 1 1 1 1 1 
1 1 1 1 1 1 1 1 1 
1 1 1 1 1 1 1 1 1 
1 1 1 1 1 1 1 1 1 
1 1 1 1 1 1 1 1 1 
1 1 1 1 1 1 1 1 1 
1 1 1 1 1 1 1 1 1 
1 1 1 1 1 1 1 1 1 
1 1 1 1 1 1 1 1 1 
1 1 1 1 1 1 1 1 1 
1 1 1 1 1 1 1 1 1 
1 1 1 1 1 1 1 1 1 
1 1 1 1 1 1 1 1 1 
1 1 1 1 1 1 1 1 1 
1 1 1 1 1 1 1 1 1 
1 1 1 1 1 1 1 1 1 
1 1 1 1 1 1 1 1 1 
1 1 1 1 1 1 1 1 1 
1 1 1 1 1 1 1 1 1 
1 1 1 1 1 1 1 1 1 
1 1 1 1 1 1 1 1 1 
1 1 1 1 1 1 1 1 1 
1 1 1 1 1 1 1 1 1 
1 1 1 1 1 1 1 1 1 
1 1 1 1 1 1 1 1 1 
1 1 1 1 1 1 1 1 1 
1 1 1 1 1 1 1 1 1 
1 1 1 1 1 1 1 1 1 
1 1 1 1 1 1 1 1 1 
1 1 1 1 1 1 1 1 1 
1 1 1 1 1 1 1 1 1 
1 1 1 1 1 1 1 1 1 
1 1 1 1 1 1 1 1 1 
1 1 1 1 1 1 1 1 1 
1 1 1 1 1 1 1 1 1 
1 1 1 1 1 1 1 1 1 
1 1 1 1 1 1 1 1 1 
1 1 1 1 1 1 1 1 1 
1 1 1 1 1 1 1 1 1 
1 1 1 1 1 1 1 1 1 
1 1 1 1 1 1 1 1 1 
1 1 1 1 1 1 1 1 1 
1 1 1 1 1 1 1 1 1 
1 1 1 1 1 1 1 1 1 
1 1 1 1 1 1 1 1 1 
1 1 1 1 1 1 1 1 1 
1 1 1 1 1 1 1 1 1 
1 1 1 1 1 1 1 1 1 
1 1 1 1 1 1 1 1 1 
1 1 1 1 1 1 1 1 1 
1 1 1 1 1 1 1 1 1 
1 1 1 1 1 1 1 1 1 
1 1 1 1 1 1 1 1 1 
1 1 1 1 1 1 1 1 1 
1 1 1 1 1 1 1 1 1 
1 1 1 1 1 1 1 1 1 
1 1 1 1 1 1 1 1 1 
1 1 1 1 1 1 1 1 1 
1 1 1 1 1 1 1 1 1 
1 1 1 1 1 1 1 1 1 
1 1 1 1 1 1 1 1 1 
1 1 1 1 1 1 1 1 1 
1 1 1 1 1 1 1 1 1 
1 1 1 1 1 1 1 1 1 
1 1 1 1 1 1 1 1 1 
1 1 1 1 1 1 1 1 1 
1 1 1 1 1 1 1 1 1 
1 1 1 1 1 1 1 1 1 
1 1 1 1 1 1 1 1 1 
1 1 1 1 1 1 1 1 1 
1 1 1 1 1 1 1 1 1 
1 1 1 1 1 1 1 1 1 
1 1 1 1 1 1 1 1 1 
1 1 1 1 1 1 1 1 1 
1 1 1 1 1 1 1 1 1 
1 1 1 1 1 1 1 1 1 
1 1 1 1 1 1 1 1 1 
1 1 1 1 1 1 1 1 1 
1 1 1 1 1 1 1 1 1 
1 1 1 1 1 1 1 1 1 
1 1 1 1 1 1 1 1 1 
1 1 1 1 1 1 1 1 1 
1 1 1 1 1 1 1 1 1 
1 1 1 1 1 1 1 1 1 
1 1 1 1 1 1 1 1 1 
1 1 1 1 1 1 1 1 1 
1 1 1 1 1 1 1 1 1 
1 1 1 1 1 1 1 1 1 
1 1 1 1 1 1 1 1 1 
1 1 1 1 1 1 1 1 1 
1 1 1 1 1 1 1 
NORMALS Normals float
0.192904 0.34339 -0.919169 -0.0359738 0.638963 -0.768396 0.329986 -0.165095 -0.929437 
-0.233692 -0.107908 -0.966304 -0.345666 0.422544 -0.837838 0.0662548 -0.32181 -0.944483 
0.485705 0.129573 -0.864466 -0.17136 -0.282435 -0.943857 -0.272894 0.074605 -0.959147 
-0.0725278 -0.137819 -0.987798 0.131145 -0.262236 -0.956051 0.596624 0.142828 -0.789709 
-0.127166 0.21059 -0.969268 -0.184892 0.503203 -0.844157 -0.32555 -0.293888 -0.898692 
0.479224 0.0203833 -0.877456 0.065201 -0.349038 -0.934837 -0.208905 0.496581 -0.842476 
-0.00166846 0.496043 -0.868296 0.0729555 0.640691 -0.764325 0.338111 -0.286287 -0.896505 
0.698938 0.0254496 -0.714729 0.246764 -0.220891 -0.943565 0.299773 -0.344898 -0.889484 
0.618124 0.159184 -0.769794 0.666726 0.35175 -0.657075 -0.457245 0.086817 -0.885093 
0.612674 0.481978 -0.626361 -0.356873 0.339078 -0.870441 0.277467 0.760119 -0.587564 
-0.338907 0.493021 -0.801294 0.292179 0.721369 -0.6279 -0.0637474 0.777931 -0.625107 
0.0220675 0.807003 -0.590136 0.321543 -0.383667 -0.865684 -0.337299 -0.448304 -0.8278 
-0.0943318 -0.539607 -0.836616 -0.475985 -0.114278 -0.871997 0.648475 0.571029 -0.503394 
-0.442296 0.371672 -0.816232 -0.309722 0.574706 -0.757486 0.0519948 0.69315 -0.718916 
0.276665 0.898132 -0.341783 0.706732 -0.0757753 -0.703412 0.0856457 -0.572313 -0.81555 
0.789578 0.497423 -0.359356 -0.520801 -0.248137 -0.816819 0.788315 0.468441 -0.398901 
-0.620842 0.151715 -0.769115 -0.621341 0.37234 -0.689419 -0.253072 0.691569 -0.676526 
0.241561 0.71214 -0.65917 0.0899519 -0.617979 -0.781032 0.708827 0.0838032 -0.700386 
0.546052 -0.391749 -0.740514 0.418676 -0.19107 -0.887808 0.845613 -0.00177251 -0.533794 
0.413612 -0.530309 -0.740066 0.701706 0.331659 -0.630564 -0.236831 -0.564879 -0.790457 
-0.7655 0.314616 -0.561272 0.540043 0.826437 -0.15923 -0.563398 0.482231 -0.670847 
0.396892 0.756425 -0.519901 0.316747 0.901442 -0.295083 0.150855 0.854741 -0.496649 
0.481538 -0.461348 -0.745171 0.192843 -0.73346 -0.651803 0.378776 -0.399577 -0.834785 
0.785287 0.243265 -0.569339 0.820685 0.416622 -0.391029 -0.573758 -0.246983 -0.780897 
-0.74339 0.122713 -0.657505 0.706061 0.671216 -0.225712 -0.184331 0.712056 -0.677494 
-0.416808 -0.408815 -0.811875 0.057586 -0.679248 -0.731646 0.849928 0.34746 -0.396097 
-0.402261 0.587295 -0.702333 -0.151635 -0.520199 -0.840476 0.20476 -0.491589 -0.846412 
0.696594 -0.169605 -0.697131 0.484243 -0.31145 -0.817623 0.882223 0.379585 -0.278562 
-0.742856 -0.198049 -0.639486 -0.812795 0.0294861 -0.581803 -0.644906 0.415905 -0.641185 
0.534293 0.823744 -0.189674 -0.606783 0.53471 -0.588132 -0.478343 0.722387 -0.499345 
-0.396818 0.678255 -0.61847 0.0407127 0.790313 -0.611349 -0.320281 0.809089 -0.492743 
0.0286414 0.879748 -0.474576 0.148689 0.866974 -0.475655 0.325674 -0.444197 -0.834641 
0.539273 -0.495728 -0.680763 0.763727 -0.275778 -0.583667 0.735436 -0.175245 -0.654541 
0.864618 -0.0159881 -0.502176 0.908577 0.107386 -0.403678 -0.742896 -0.224937 -0.630483 
0.829368 0.55312 -0.0787889 -0.858188 0.0511441 -0.510781 0.690065 0.722861 0.0358169 
-0.803836 0.290184 -0.519269 -0.263831 0.853391 -0.449575 -0.382333 -0.501093 -0.776355 
-0.114961 -0.568723 -0.814456 0.193604 -0.590545 -0.783437 0.918211 -0.00784401 -0.396014 
-0.635872 -0.369711 -0.677481 0.843234 0.527962 -0.101051 0.684595 0.717575 0.128125 
-0.826768 0.340023 -0.44815 0.526086 0.79731 -0.295856 -0.710463 0.54926 -0.439949 
-0.169456 0.897565 -0.407015 0.170341 0.84167 -0.512421 -0.432585 -0.499014 -0.750903 
0.256245 -0.627607 -0.735151 0.493971 -0.527975 -0.690822 0.704008 -0.356554 -0.6142 
0.718662 -0.432239 -0.544697 0.774826 -0.288401 -0.562555 -0.848194 -0.195655 -0.492225 
0.895383 0.432997 -0.103933 -0.678717 0.601795 -0.420936 0.264893 0.854989 -0.445898 
-0.358838 -0.534072 -0.765508 0.0336575 -0.582092 -0.812426 -0.731715 -0.310348 -0.606858 
0.880509 0.461843 -0.106795 -0.921525 -0.00246664 -0.388311 0.665285 0.724527 0.180154 
-0.476428 0.766063 -0.431468 0.446772 0.77545 -0.446176 0.403115 -0.561121 -0.722939 
-0.692661 -0.395445 -0.603195 0.421665 -0.579816 -0.697145 0.78936 -0.402673 -0.463428 
0.938037 -0.0765164 -0.337981 0.943468 0.298085 -0.14496 0.741891 0.654361 0.146321 
-0.899533 0.280161 -0.335187 -0.621651 0.691857 -0.367267 0.338684 0.861268 -0.378827 
-0.299411 0.895927 -0.328127 0.00684744 0.947137 -0.320756 -0.689295 -0.481591 -0.541242 
0.565038 -0.468141 -0.679394 0.884308 -0.155901 -0.440107 0.974381 -0.104044 -0.199389 
-0.895255 -0.216716 -0.389297 0.98114 0.162393 -0.104848 0.94401 0.329611 -0.0142307 
0.802119 0.590082 0.0916942 0.73836 0.632753 0.23334 0.837995 0.54564 0.00642617 
0.724598 0.645159 -0.242339 -0.32613 0.838437 -0.436649 0.00286038 0.908264 -0.418388 
-0.242153 -0.557096 -0.794359 -0.711692 -0.422191 -0.56147 0.168633 -0.67238 -0.720742 
0.254448 -0.693496 -0.674032 -0.825438 -0.381157 -0.41638 0.840908 -0.233639 -0.488146 
-0.964138 -0.104658 -0.243893 0.859861 0.508147 0.0492431 0.927929 0.362158 -0.0882638 
-0.876251 0.423771 -0.229355 0.587568 0.741343 -0.324306 -0.721723 0.590575 -0.361022 
-0.182346 0.851541 -0.491556 0.00882098 0.883422 -0.468495 -0.470562 0.766968 -0.436269 
-0.397465 0.795291 -0.457748 -0.162219 0.881273 -0.443896 0.135775 0.916489 -0.376316 
-0.226653 -0.516689 -0.825628 -0.651699 -0.479964 -0.587301 -0.901204 -0.307344 -0.305567 
0.781527 0.580287 0.229092 -0.97266 0.188477 -0.135681 0.903936 0.370691 -0.21328 
0.736384 0.598075 -0.316298 0.281752 0.864143 -0.41698 0.406549 0.829023 -0.383977 
-0.605574 0.76143 -0.231313 0.0307435 0.937187 -0.34747 -0.363386 0.893429 -0.264074 
-0.387603 -0.529539 -0.754555 -0.121099 -0.583689 -0.802896 -0.0570553 -0.501678 -0.863171 
0.108167 -0.554403 -0.825189 0.499472 -0.506929 -0.702532 -0.869802 -0.327286 -0.369227 
0.966379 -0.0202258 -0.256327 0.545088 0.706804 0.450895 0.924496 0.369707 -0.0928693 