# vtk DataFile Version 4.2
vtk output
ASCII
DATASET POLYDATA
POINTS 373 float
523.202 182.257 185.378 523.398 182.218 185.394 523.58 182.183 185.524 
523.082 182.379 185.242 522.898 182.529 185.197 523.278 182.33 185.27 
522.055 183.197 185.029 521.997 183.14 185.144 521.885 183.288 185.081 
521.913 183.383 185.019 522.262 183.096 185.007 522.729 183.091 184.995 
522.065 183.667 184.999 522.338 183.609 185 522.824 183.265 185.011 
523.099 183.629 185.167 522.944 183.875 185.218 523.824 182.261 185.615 
523.741 182.112 185.802 524.004 182.137 185.862 522.577 182.672 185.287 
522.127 182.978 185.371 522.815 182.804 185.091 524.209 183.056 185.704 
520.875 184.312 185.271 520.925 184.286 185.309 520.875 184.341 185.311 
521.622 183.955 185.108 521.941 183.929 185.086 523.957 183.619 185.616 
520.914 184.314 185.268 521.017 184.399 185.284 520.966 184.408 185.294 
520.989 184.45 185.298 524.06 184.209 185.905 520.987 184.486 185.337 
523.785 184.632 185.991 523.085 185.038 186.087 524.163 182.125 186.013 
524.058 182.076 186.097 524.538 182.353 186.205 521.927 183.176 185.935 
524.927 182.683 186.444 521.026 184.191 185.421 521.136 184.234 185.274 
524.654 183.775 186.254 524.999 183.762 186.621 520.923 184.369 185.304 
520.903 184.415 185.399 520.944 184.474 185.372 521.083 184.585 185.459 
521.382 184.681 185.526 521.254 184.719 185.617 524.482 184.917 186.685 
522.548 185.256 186.267 521.897 185.017 185.855 523.894 182.075 186.708 
524.977 182.431 186.734 525.052 182.609 186.683 521.329 183.959 185.908 
521.186 184.32 185.938 520.998 184.538 185.529 521.118 184.656 185.599 
521.121 184.642 185.693 525.278 184.779 187.461 522.641 185.507 186.667 
522.428 185.399 186.722 522.875 185.643 186.806 524.436 186.111 187.635 
523.975 182.147 187.303 524.673 182.136 186.831 524.542 182.092 186.939 
525.41 182.952 187.496 525.538 183.358 187.686 522.766 185.7 187.23 
525.381 185.795 188.342 525.153 186.559 188.745 523.541 182.615 188.189 
522.396 185.066 187.61 522.785 185.619 188.029 525.843 185.569 189.115 
523.049 185.975 187.895 525.496 186.655 189.341 523.417 182.867 188.375 
523.568 183.104 188.82 525.988 184.863 189.296 522.773 185.359 188.328 
525.434 187.651 190.243 524.906 188.138 190.52 525.091 188.3 190.797 
525.112 182.459 188.873 524.133 182.836 189.149 525.92 184.114 189.474 
523.366 184.037 189.232 523.154 184.942 189.206 523.186 186.028 188.922 
525.697 187.671 190.615 525.92 187.442 190.901 524.525 188.017 190.811 
524.859 188.474 191.22 525.016 182.464 189.161 525.007 182.381 188.967 
525.109 182.449 189.121 525.181 182.71 189.37 525.107 182.473 189.207 
525.262 183.065 189.867 526.069 184.925 190.291 523.572 186.232 190.027 
526.133 187.204 191.353 524.633 188.47 191.702 525.072 182.407 189.126 
525.112 183.302 190.158 525.546 183.765 190.461 524.542 184.156 190.688 
524.182 184.158 190.347 526.215 186.411 191.448 524.636 188.643 192.3 
525.996 189.159 193.033 525.35 189.501 193.04 525.593 189.527 193.05 
525.139 183.748 190.614 526.245 187.337 192.345 524.697 188.699 192.651 
524.772 188.7 193.135 524.867 188.973 193.203 525.592 189.801 193.551 
525.742 185.122 191.845 525.241 185.233 192.022 525.88 185.411 191.925 
526.052 185.887 192.015 524.788 188.419 193.226 526.042 190.4 194.906 
525.634 185.072 191.877 526.014 186.447 192.69 525.13 186.299 192.721 
526.166 187.47 193.179 526.259 189.135 194.12 525.2 189.045 194.171 
525.339 189.663 194.47 525.595 190.165 194.837 525.823 190.416 194.915 
525.962 190.57 195.213 525.599 185.96 192.665 525.917 186.659 193.071 
525.74 186.935 193.402 526.077 187.872 193.719 526.163 188.632 194.198 
525.404 187.921 193.909 525.443 189.727 194.755 525.701 190.242 195.241 
525.962 188.432 194.304 525.784 188.892 194.696 525.656 189.78 195.165 
525.87 190.531 195.582 526.072 190.802 195.876 526.133 190.81 195.857 
525.902 189.908 195.521 526.243 190.192 195.526 525.923 190.201 195.712 
525.932 190.501 195.824 526.078 190.782 196.077 526.114 190.866 196.1 
526.158 190.902 196.095 526.103 190.092 195.722 526.105 190.521 196.013 
526.168 190.531 196.026 526.177 190.746 196.146 526.149 190.86 196.2 
526.207 190.957 196.317 526.221 190.936 196.283 526.213 190.952 196.241 
526.192 190.971 196.278 526.167 190.235 195.81 526.185 190.4 195.921 
526.234 191.031 196.377 526.233 191.031 196.392 526.229 191.037 196.376 
526.227 191.037 196.39 526.238 191.06 196.417 526.355 189.708 260.69 
526.326 189.596 260.715 526.312 189.726 260.691 526.384 189.559 260.803 
526.36 189.844 260.725 526.439 190.21 260.728 526.404 190.183 260.732 
526.421 190.234 260.775 526.443 190.101 260.77 526.445 190.184 260.8 
526.294 189.05 260.924 526.246 188.89 260.973 526.194 189.09 260.916 
526.377 189.102 261.02 526.251 189.828 260.753 526.308 190.089 260.774 
526.291 190.223 260.843 526.354 190.238 260.846 526.414 190.188 260.965 
525.989 186.996 261.805 525.944 186.848 261.872 525.908 187.145 261.758 
526.033 187.193 261.77 526.168 188.618 261.113 526.012 188.35 261.257 
526.224 188.156 261.428 525.769 189.457 261.289 525.775 189.63 261.309 
525.791 189.812 261.387 526.273 190.261 260.955 525.929 186.605 262.024 
526.012 187.747 261.546 526.175 187.267 261.948 525.791 188.13 261.488 
525.637 189.831 261.718 525.691 190.057 261.865 525.696 185.862 262.541 
525.81 186.039 262.422 525.758 185.711 262.677 525.883 185.806 262.7 
525.662 186.245 262.329 525.13 186.507 262.775 525.299 186.883 262.369 
526.082 190.301 261.735 525.432 185.539 262.954 525.725 185.356 263.056 
524.902 187.037 262.987 526.432 187.064 262.982 525.672 190.166 262.478 
525.856 190.264 262.257 525.944 190.25 262.457 525.337 184.64 263.802 
525.539 184.879 263.522 525.737 184.98 263.49 524.492 185.638 264.141 
524.281 186.606 264.277 524.505 188.257 263.962 524.732 188.933 263.771 
525.25 189.723 263.154 525.423 189.955 263.117 525.578 190.091 262.91 
525.905 190.173 262.773 525.614 183.036 265.58 525.593 182.972 265.655 
525.516 183.051 265.566 525.634 183.203 265.481 524.579 184.324 264.84 
524.508 188.628 264.343 524.456 188.704 264.741 525.492 189.995 263.256 
525.5 189.916 263.519 525.977 189.777 263.313 525.962 190.066 262.918 
524.983 182.553 266.374 525.201 182.621 266.177 524.92 182.867 265.882 
525.53 182.883 265.856 525.008 183.635 265.016 525.57 183.545 265.127 
525.747 183.487 265.526 523.899 187.27 265.434 524.247 188.354 265.396 
524.489 182.716 266.56 525.316 182.6 266.601 524.141 183.507 266.119 
526.1 187.533 265.502 524.132 188.077 265.923 525.728 188.797 265.055 
524.47 188.734 265.221 525.465 189.288 264.796 525.52 189.042 265.095 
525.064 182.447 266.936 523.416 183.964 266.828 523.864 187.605 266.761 
524.626 188.3 266.482 524.733 188.111 266.853 525.114 188.37 266.408 
525.271 189.061 265.301 524.087 182.39 268.133 523.566 183.086 267.472 
525.978 184.907 267.189 525.13 188.066 266.769 525.075 189.25 265.169 
523.279 182.618 268.704 524.083 182.301 268.628 524.371 182.303 268.274 
524.958 182.501 268.161 522.096 184.574 269.032 521.665 184.552 269.759 
522.233 185.142 269.047 522.41 185.619 269.363 523.564 187.111 267.924 
524.371 187.383 267.899 523.164 182.516 269.15 522.884 182.587 269.461 
523.587 182.331 269.381 523.941 182.301 269.087 524.38 182.314 268.707 
524.725 182.402 268.508 521.404 183.868 270.238 521.406 184.138 270.165 
525.456 185.427 268.495 521.414 184.507 270.383 521.995 185.261 269.986 
522.057 185.454 270.101 522.238 185.561 269.923 522.672 185.766 269.753 
523.08 186.297 268.945 522.094 185.522 270.055 524.711 186.978 268.287 
523.425 182.377 269.794 524.921 182.93 269.277 521.76 183.176 270.528 
521.449 183.413 270.787 521.277 183.616 270.702 521.827 183.364 269.936 
525.311 184.374 269.029 521.067 183.846 270.832 521.013 183.904 270.933 
521.017 184.017 270.947 521.122 184.163 270.809 522.14 185.36 270.247 
522.375 185.22 270.538 522.049 185.479 270.191 523.509 185.973 269.835 
523.95 186.145 269.598 524.288 185.71 269.792 524.843 186.03 269.109 
522.046 185.51 270.147 523.288 182.444 270.163 524.086 182.622 269.993 
522.057 182.924 270.635 524.534 182.956 269.905 524.727 183.508 269.921 
521.127 183.671 271.059 521.155 183.701 271.139 521.057 183.772 271.094 
521.341 183.526 271.076 521.054 183.773 270.974 521.016 183.899 271.054 
524.104 183.993 270.611 521.019 184.024 271.044 521.613 184.526 270.956 
521.532 184.254 271.129 522.098 184.703 270.974 524.001 184.503 270.573 
524.492 184.774 270.075 521.059 184.115 270.97 521.211 184.261 270.922 
522.808 185.163 270.669 522.041 185.51 270.184 522.591 182.706 270.802 
522.884 182.613 270.672 523.294 182.567 270.451 521.86 183.23 271.188 
521.713 183.342 271.234 523.659 183.299 270.797 521.105 183.832 271.153 
521.307 183.733 271.213 521.083 183.983 271.118 521.683 183.836 271.325 
521.093 184.102 271.049 521.252 184.119 271.109 523.217 184.893 270.81 
522.741 182.776 270.904 522.6 183.011 271.092 522.146 183.379 271.318 
521.992 183.543 271.362 522.201 184.063 271.31 525.139 183.748 190.614 
526.238 191.06 196.417 525.944 186.848 261.872 525.614 183.036 265.58 
525.593 182.972 265.655 
POLYGONS 728 2912
3 0 1 2 
3 1 0 5 
3 5 0 3 
3 5 2 1 
3 6 7 8 
3 3 4 5 
3 9 6 8 
3 10 7 6 
3 12 6 9 
3 12 13 6 
3 6 13 10 
3 14 11 10 
3 14 10 13 
3 16 14 13 
3 15 14 16 
3 20 3 0 
3 2 17 18 
3 2 18 0 
3 18 17 19 
3 3 20 4 
3 2 5 17 
3 38 19 17 
3 38 17 40 
3 7 21 8 
3 7 10 20 
3 7 20 21 
3 4 22 5 
3 4 20 22 
3 20 10 22 
3 17 5 23 
3 23 40 17 
3 8 41 43 
3 11 22 10 
3 11 14 22 
3 14 5 22 
3 23 5 14 
3 24 25 26 
3 43 44 8 
3 9 44 27 
3 9 8 44 
3 9 28 12 
3 27 28 9 
3 23 14 15 
3 23 15 29 
3 24 26 30 
3 31 32 33 
3 37 28 27 
3 13 28 37 
3 13 12 28 
3 37 16 13 
3 29 15 16 
3 29 16 34 
3 33 32 35 
3 34 16 37 
3 36 34 37 
3 18 39 0 
3 19 38 39 
3 19 39 18 
3 39 38 40 
3 21 41 8 
3 21 20 41 
3 41 20 0 
3 46 58 42 
3 25 43 26 
3 25 44 43 
3 25 24 44 
3 23 29 34 
[...]
POINT_DATA 373
SCALARS scalars float
LOOKUP_TABLE default
1 1 1 1 1 1 1 1 1 
1 1 1 1 1 1 1 1 1 
1 1 1 1 1 1 1 1 1 
1 1 1 1 1 1 1 1 1 
1 1 1 1 1 1 1 1 1 
1 1 1 1 1 1 1 1 1 
1 1 1 1 1 1 1 1 1 
1 1 1 1 1 1 1 1 1 
1 1 1 1 1 1 1 1 1 
1 1 1 1 1 1 1 1 1 
1 1 1 1 1 1 1 1 1 
1 1 1 1 1 1 1 1 1 
1 1 1 1 1 1 1 1 1 
1 1 1 1 1 1 1 1 1 
1 1 1 1 1 1 1 1 1 
1 1 1 1 1 1 1 1 1 
1 1 1 1 1 1 1 1 1 
1 1 1 1 1 1 1 1 1 
1 1 1 1 1 1 1 1 1 
1 1 1 1 1 1 1 1 1 
1 1 1 1 1 1 1 1 1 
1 1 1 1 1 1 1 1 1 
1 1 1 1 1 1 1 1 1 
1 1 1 1 1 1 1 1 1 
1 1 1 1 1 1 1 1 1 
1 1 1 1 1 1 1 1 1 
1 1 1 1 1 1 1 1 1 
1 1 1 1 1 1 1 1 1 
1 1 1 1 1 1 1 1 1 
1 1 1 1 1 1 1 1 1 
1 1 1 1 1 1 1 1 1 
1 1 1 1 1 1 1 1 1 
1 1 1 1 1 1 1 1 1 
1 1 1 1 1 1 1 1 1 
1 1 1 1 1 1 1 1 1 
1 1 1 1 1 1 1 1 1 
1 1 1 1 1 1 1 1 1 
1 1 1 1 1 1 1 1 1 
1 1 1 1 1 1 1 1 1 
1 1 1 1 1 1 1 1 1 
1 1 1 1 1 1 1 1 1 
1 1 1 1 
NORMALS Normals float
-0.378754 -0.922104 -0.0791789 0.0756 -0.833083 -0.547957 0.239724 -0.826535 -0.509287 
-0.271149 -0.695291 -0.665619 -0.212964 -0.453886 -0.865236 0.235524 -0.392241 -0.889199 
-0.274573 -0.341245 -0.898978 -0.568713 -0.718085 -0.401148 -0.700499 -0.566529 -0.433988 
-0.3168 -0.0929221 -0.943929 -0.190146 -0.361687 -0.912703 0.137296 -0.131928 -0.981705 
-0.080272 0.0905201 -0.992654 0.0665822 0.245477 -0.967113 0.244818 0.0429635 -0.968617 
0.381192 0.212629 -0.899712 0.263988 0.420967 -0.867812 0.509765 -0.498525 -0.701151 
0.0123707 -0.977673 -0.209769 0.300873 -0.83062 -0.468557 -0.497933 -0.771515 -0.396015 
-0.68545 -0.727113 -0.0382731 -0.0078422 -0.372506 -0.927997 0.592303 0.00931975 -0.805661 
-0.530548 -0.477954 -0.700056 -0.537236 -0.841607 -0.0554615 -0.995929 -0.0773235 -0.0463317 
-0.0509217 0.380075 -0.923553 -0.0245132 0.373101 -0.927467 0.511952 0.267706 -0.816234 
-0.0999839 0.458987 -0.882799 0.128706 0.23963 -0.962295 -0.464969 0.276431 -0.841065 
0.0155066 0.592901 -0.805126 0.476545 0.358019 -0.802949 -0.4803 0.68565 -0.546988 
0.509726 0.483183 -0.711838 0.148245 0.609256 -0.778993 0.516374 -0.747408 -0.418019 
0.108716 -0.992872 -0.0488474 0.673532 -0.488539 -0.554694 -0.677 -0.693031 0.247747 
0.750917 -0.178457 -0.635827 -0.713492 -0.690517 -0.118812 -0.14854 -0.112259 -0.982514 
0.693185 0.213546 -0.688398 0.840708 0.142061 -0.522522 -0.440426 0.496269 -0.748159 
-0.928881 0.339799 0.147365 -0.688199 0.639442 -0.342778 -0.326676 0.844524 -0.424338 
0.0298112 0.647447 -0.761527 -0.278972 0.88092 -0.382303 0.497588 0.500115 -0.708725 
-0.128634 0.853674 -0.504672 -0.207394 0.906501 -0.367755 -0.189814 -0.981318 0.0313843 
0.755943 -0.585093 -0.293625 0.883023 -0.220186 -0.414473 -0.732856 -0.491121 0.470873 
-0.81421 -0.203533 0.543724 -0.779873 0.619353 0.0905594 -0.532226 0.843999 -0.0663388 
-0.732271 0.635066 0.245907 0.768248 0.284069 -0.573672 -0.39932 0.859097 -0.32015 
-0.364737 0.893526 -0.261875 -0.122802 0.876717 -0.465066 0.451729 0.620537 -0.640995 
-0.225627 -0.954549 0.194752 0.413842 -0.894649 -0.168337 0.218875 -0.975688 0.0112203 
0.933878 -0.309938 -0.178354 0.960463 -0.203193 -0.190322 -0.602391 0.79586 -0.061085 
0.790293 0.347291 -0.504803 0.67267 0.53478 -0.511395 -0.56819 -0.757273 0.322022 
-0.881613 0.26228 0.392388 -0.792285 0.555856 0.251613 0.904493 0.251275 -0.344605 
-0.696139 0.717103 0.0339628 0.682331 0.50703 -0.526636 -0.653071 -0.569986 0.498613 
-0.604549 -0.648303 0.462843 0.956951 0.060736 -0.283823 -0.855949 0.356102 0.374891 
0.583717 0.549101 -0.598132 0.0102601 0.854335 -0.519621 0.0877069 0.853906 -0.512983 
0.764944 -0.644018 0.010072 -0.505497 -0.698415 0.506645 0.949162 -0.314336 0.0168598 
-0.786127 -0.28461 0.548636 -0.849265 -0.066741 0.523731 -0.874511 0.422499 0.23817 
0.759824 0.474023 -0.444937 0.90794 0.253891 -0.333444 -0.691883 0.687532 -0.22045 
-0.379647 0.826796 -0.415062 -0.297252 -0.722718 0.623954 -0.076658 -0.963012 0.258324 
0.819873 -0.572169 0.020777 0.627923 -0.641446 0.440749 0.344592 -0.718964 0.603612 
0.318242 -0.732178 0.602193 0.997068 -0.0761889 -0.00709778 -0.912597 0.323197 0.25042 
0.949376 0.206743 -0.236523 -0.626098 0.75602 -0.190881 0.215442 -0.914753 0.341776 
0.115203 -0.748275 0.653309 0.799826 -0.517319 0.304399 -0.61527 -0.402045 0.678088 
-0.581739 -0.482166 0.655054 0.994636 -0.0889001 -0.0528764 -0.932665 0.354979 0.064238 
0.847264 0.425631 -0.317776 -0.379101 0.852994 -0.358726 0.255339 0.829294 -0.497064 
-0.419286 -0.675362 0.6067 0.999374 0.01653 0.0312683 -0.865253 0.500097 0.035217 
-0.942682 0.144863 0.300608 -0.909302 0.365211 0.199476 -0.046575 0.901708 -0.429829 
0.591947 -0.54142 0.597045 -0.0921755 -0.650452 0.753933 0.633921 -0.419647 0.649647 
0.855924 -0.342984 0.386983 -0.933273 -0.061441 0.353874 0.485014 0.763805 -0.425868 
0.333097 -0.575391 0.746975 0.900236 -0.31115 0.304566 -0.741656 -0.323768 0.58747 
0.950241 -0.184803 0.250779 0.994944 0.0123227 0.0996699 -0.846185 -0.0925342 0.524793 
-0.954325 0.162688 0.25059 -0.859525 0.511063 0.00562837 -0.6196 0.757213 -0.206699 
-0.086253 0.927917 -0.36267 -0.0921322 -0.597104 0.796856 0.681112 -0.478508 0.554181 
0.334465 -0.547705 0.766911 0.878329 -0.284676 0.384053 0.789856 -0.201197 0.57935 
-0.59967 -0.378785 0.704924 -0.919359 0.0556215 0.389469 -0.911353 0.379717 0.158905 
0.554492 -0.452845 0.698191 -0.268863 -0.553999 0.787907 -0.750399 -0.306446 0.585655 
-0.858321 0.512328 0.0283819 -0.603257 0.777365 -0.178279 0.335417 0.861517 -0.381161 
-0.768691 -0.208564 0.604662 0.985722 -0.0967367 0.137817 -0.757805 -0.247566 0.603691 
-0.928151 0.00918127 0.37209 -0.915144 0.195959 0.352294 -0.862564 0.495575 0.101929 
-0.251515 0.923584 -0.289365 0.0167731 -0.607236 0.794344 -0.281429 -0.501046 0.818383 
0.476016 -0.475061 0.740085 0.273209 -0.553964 0.786436 -0.781403 -0.135195 0.609205 
-0.47498 -0.492593 0.729209 0.887491 -0.359518 0.28828 0.681605 0.624929 -0.380629 
-0.798916 0.601348 -0.0106363 0.674647 -0.491967 0.550291 0.845641 -0.306867 0.436721 
0.969176 0.144414 -0.199608 0.335425 -0.672189 0.660039 -0.120529 0.880015 -0.459398 
-0.937107 0.033836 0.347399 0.962601 0.168389 -0.212236 0.510463 -0.0742463 -0.856688 
0.103949 -0.327441 -0.939136 -0.329014 0.0682334 -0.941857 0.950648 -0.116313 -0.287644 
0.633233 0.110826 -0.765986 0.669612 0.344745 -0.657853 -0.313422 0.306436 -0.898812 
0.282724 0.942499 -0.178221 0.918467 -0.213541 -0.332894 0.970144 0.226269 0.0873114 
0.587984 -0.390556 -0.708337 0.256161 -0.42762 -0.866904 -0.478466 -0.198225 -0.85544 
0.965876 -0.146454 -0.213623 -0.682857 0.112439 -0.721847 -0.48511 0.289927 -0.824991 
-0.589343 0.527207 -0.61215 -0.0662144 0.935039 -0.348306 0.941109 0.289951 0.173901 
0.48389 -0.36876 -0.793641 -0.480463 -0.366062 -0.796965 -0.528811 -0.322536 -0.785066 
0.709136 -0.306991 -0.634731 0.381641 -0.416906 -0.824948 -0.472496 -0.257549 -0.842862 
0.799917 -0.2993 -0.520147 -0.907242 -0.019103 -0.420175 -0.854437 0.095617 -0.510681 
-0.869746 0.322876 -0.373221 -0.463069 0.842072 -0.276552 0.124888 -0.564132 -0.816185 
0.187612 -0.410225 -0.892478 0.806469 -0.332521 -0.488914 -0.702652 -0.194995 -0.684293 
-0.906283 0.303122 -0.294564 -0.742996 0.623314 -0.243795 -0.172399 -0.624501 -0.761759 
0.196933 -0.588062 -0.784474 0.27904 -0.66803 -0.689835 0.769383 -0.48514 -0.415558 
-0.503157 -0.387934 -0.772231 -0.812595 -0.301895 -0.498547 -0.745971 -0.212899 -0.631032 
0.0695822 0.997575 0.00176617 -0.669153 -0.42541 -0.609311 0.253188 -0.713377 -0.653444 
-0.893743 -0.0850446 -0.440445 0.957386 -0.210753 -0.197474 -0.71455 0.695109 -0.0790043 
-0.361089 0.932257 0.0226127 0.587032 0.788584 0.183111 -0.434412 -0.617007 -0.656193 
0.0301873 -0.738321 -0.673773 0.465118 -0.689447 -0.555273 -0.799964 -0.307856 -0.515056 
-0.90044 -0.0898776 -0.425594 -0.944257 0.150581 -0.292751 -0.913526 0.269985 -0.304267 
-0.818771 0.570789 -0.061764 -0.749696 0.658643 0.0643845 -0.441675 0.893364 0.0826005 
0.0861376 0.93754 0.337046 0.0107516 -0.644363 -0.764644 -0.169624 -0.80764 -0.564752 
-0.0296608 -0.74747 -0.663633 0.792433 -0.434713 -0.427873 -0.749203 -0.391998 -0.533884 
-0.989063 0.100205 -0.108231 -0.934996 0.354323 -0.0153997 -0.469842 0.858881 0.203891 
-0.281718 0.906994 0.313044 0.869573 0.355964 0.342247 0.701191 0.628645 0.336359 
-0.24772 -0.913402 -0.323005 0.170106 -0.916144 -0.362964 -0.42987 -0.69972 -0.570617 
0.83618 -0.546627 -0.0447371 -0.199095 -0.692894 -0.693007 0.43645 -0.632871 -0.63952 
0.911615 -0.357456 -0.202936 -0.945416 0.0930973 -0.312285 -0.910937 0.37964 -0.161457 
-0.589732 -0.71387 -0.377632 0.722205 -0.691275 0.023644 -0.7502 -0.404679 -0.522909 
0.887016 0.276914 0.369488 -0.832143 0.545005 0.102506 0.72953 0.492796 0.474277 
-0.921874 0.387377 0.00937596 0.62739 0.642562 0.439882 0.62119 0.580201 0.526773 
0.270024 -0.960019 -0.0738258 -0.796639 -0.355076 -0.48917 -0.797158 0.601233 0.0552896 
-0.42373 0.801091 0.422735 -0.0992944 0.840511 0.532618 0.308024 0.775748 0.55076 
0.503006 0.666 0.550844 -0.396358 -0.885668 -0.241852 -0.615727 -0.718949 -0.322478 
0.97577 -0.0171097 0.218127 0.603745 0.581748 0.545033 -0.231607 0.897883 0.374387 
-0.574561 -0.743834 -0.341455 -0.164374 -0.983454 -0.0761476 0.0282258 -0.996978 -0.0723756 
0.633465 -0.759737 0.146705 -0.882842 0.246734 -0.399641 -0.819675 0.291511 -0.493107 
-0.860071 0.454402 -0.231942 -0.701885 0.692528 -0.16662 -0.468737 0.808111 0.356709 
0.00285473 0.781461 0.623948 -0.477424 -0.832786 -0.280239 -0.454523 -0.871187 -0.185587 
-0.0667982 -0.996937 0.0406732 -0.170886 -0.984224 -0.0458327 0.206005 -0.975507 0.0771258 
0.493706 -0.847643 0.19431 -0.787597 -0.419468 -0.451373 -0.866766 -0.0326965 -0.497642 
0.848441 0.291518 0.441776 -0.800522 0.565023 -0.199783 -0.908157 0.417985 -0.0232204 
-0.999083 -0.0407167 -0.0132576 -0.137101 0.965862 0.219806 -0.335925 0.865506 0.371555 
-0.616859 0.768044 0.172029 -0.654812 0.733819 -0.180914 0.236297 0.712976 0.660173 
-0.00628212 -0.987281 0.158862 0.805246 -0.463848 0.369357 -0.678106 -0.714535 -0.172084 
-0.644968 -0.743093 -0.178406 -0.781538 -0.498415 -0.375207 -0.744455 -0.486238 -0.457557 
0.875162 0.0591507 0.4802 -0.853839 -0.26388 -0.448695 -0.970754 -0.139822 -0.195157 
-0.958363 0.19131 -0.211992 -0.83108 0.514603 -0.210928 -0.524795 0.64678 0.553413 
-0.090092 0.709471 0.698952 -0.932211 -0.277125 0.232777 -0.0816545 0.777756 0.623239 
0.160104 0.740717 0.65246 0.51262 0.448761 0.732007 0.583832 0.577281 0.570865 
-0.956816 0.214207 -0.196517 -0.026056 -0.976381 0.21448 0.449414 -0.768997 0.454611 
-0.482051 -0.87614 -0.00231938 0.660174 -0.404625 0.63281 0.833277 -0.153336 0.531166 
-0.69725 -0.716307 0.0273308 -0.50069 -0.508257 0.700703 -0.817928 -0.397798 0.415633 
-0.538027 -0.766194 0.351389 -0.868755 -0.476459 -0.135098 -0.94343 -0.0697936 0.324142 
0.551793 0.0133622 0.833874 -0.850351 0.346242 0.396257 -0.350812 0.708662 0.612152 
-0.145859 0.419401 0.896007 -0.073379 0.539859 0.838551 0.500333 0.281201 0.818897 
0.67995 0.256385 0.686975 -0.791077 0.60335 0.100824 -0.560576 0.784647 0.264731 
-0.0136402 0.712761 0.701275 -0.473083 0.775007 0.418995 -0.230438 -0.849561 0.474495 
0.143135 -0.879411 0.454036 0.356622 -0.757386 0.54698 -0.343621 -0.764537 0.545352 
-0.279074 -0.470231 0.837258 0.452922 -0.292277 0.84228 -0.436308 0.0331742 0.899186 
-0.353774 -0.314588 0.880839 -0.518426 0.270535 0.8112 -0.163377 0.186568 0.968762 
-0.507672 0.620895 0.597292 -0.307255 0.498896 0.810369 0.322933 0.393285 0.860837 
0.319977 -0.571954 0.755304 0.273857 -0.425673 0.862441 0.118806 -0.273089 0.954624 
-0.0509098 -0.122532 0.991158 0.18086 0.224753 0.957484 0.987033 -0.140711 0.0772463 
-0.939705 0.049211 0.338428 0.916181 -0.311804 -0.251776 0.941795 0.0751377 0.327684 
0.942522 0.0721564 0.32626 
