# vtk DataFile Version 4.2
vtk output
ASCII
DATASET POLYDATA
POINTS 807 float
232.471 91.1452 200.838 232.482 91.1225 200.83 232.418 91.149 200.873 
232.505 91.1118 200.902 231.189 91.6314 201.122 232.21 91.24 200.973 
232.128 91.37 201.019 232.516 91.1348 200.91 230.342 92.1459 200.943 
230.179 92.1531 201.008 230.609 92.1127 200.923 231.152 91.8718 201.032 
228.05 93.414 201.16 230.219 92.3162 200.932 230.447 92.2793 200.93 
230.735 92.149 200.962 226.767 94.0345 201.367 226.278 94.3088 201.505 
227.355 93.8267 201.263 227.084 93.77 201.354 227.934 93.6334 201.184 
228.817 93.1882 201.103 226.726 94.1806 201.392 226.267 94.4355 201.558 
227.092 94.1019 201.373 228.648 93.3737 201.168 226.641 94.3492 201.528 
231.754 91.4559 201.062 232.433 91.0983 201.078 232.571 91.1 201.13 
229.212 92.5208 201.339 231.773 91.6239 201.122 232.52 91.2102 201.23 
227.491 93.4391 201.402 229.335 92.8123 201.111 231.463 91.9267 201.281 
225.813 94.4569 201.687 229.815 92.8602 201.318 224.839 94.9162 202.132 
224.687 95.107 202.125 225.718 94.6504 201.731 225.088 94.9739 201.974 
224.641 95.2319 202.21 224.924 95.1385 202.175 234.525 89.833 203.097 
234.425 89.8934 203.047 234.599 89.7755 203.28 234.502 89.8772 203.052 
234.384 89.9677 203.044 234.573 89.8378 203.132 232.712 90.9451 201.576 
232.714 91.0758 201.5 234.515 89.9115 203.112 227.321 93.2214 201.946 
225.332 94.5668 202.123 224.232 95.2589 202.35 224.8 94.9049 202.357 
223.446 95.5285 202.785 223.264 95.6932 202.867 224.166 95.4344 202.424 
225.258 94.9865 202.193 225.786 94.8496 202.252 223.299 95.8002 202.893 
223.665 95.713 202.718 223.95 95.661 202.653 224.833 95.2381 202.408 
234.899 89.5591 203.88 234.189 90.0037 203.057 234.772 89.7266 203.482 
234.975 89.6375 203.865 233.109 90.4877 202.539 234.641 89.8485 203.287 
234.815 89.7771 203.55 233.048 90.9215 202.079 225.452 94.3743 202.334 
224.273 95.0751 202.681 223.701 95.3259 202.791 225.004 94.9627 202.471 
224.522 94.9571 202.765 225.166 94.7399 202.486 221.911 96.2253 203.865 
221.855 96.23 203.973 221.906 96.2825 203.961 221.972 96.1694 203.838 
223.266 95.5155 202.984 224.83 94.9997 202.63 224.933 95.1219 202.51 
225.573 94.9866 202.65 222.014 96.2012 203.816 224.705 95.4382 202.799 
222.945 96.2058 203.546 235.066 89.4905 204.259 233.689 90.1088 203.139 
235.15 89.5422 204.191 235.138 89.5952 204.113 235.217 89.5651 204.313 
233.716 90.4131 202.8 234.896 89.8205 203.794 235.128 89.6847 204.195 
224.958 94.6715 202.783 221.785 96.3197 204.154 222.253 96.0506 203.704 
224.719 94.8641 202.809 225.035 95.0711 202.746 222.142 96.2557 203.862 
225.047 95.5149 203.239 235.235 89.3872 204.866 224.417 94.5802 203.386 
225.266 94.2006 202.875 221.626 96.2719 204.563 221.817 96.086 204.358 
224.023 96.3153 204.1 222.397 95.2279 205.083 222.385 95.2287 205.155 
222.392 95.2537 205.102 221.464 96.4402 204.941 221.724 95.925 205.108 
222.438 95.2278 205.031 219.922 97.5327 206.914 219.895 97.5481 206.978 
219.988 97.4761 206.929 221.341 97.0019 205.597 235.678 89.3529 205.976 
231.312 90.5377 205.373 222.411 95.2133 205.237 222.367 95.2502 205.318 
222.582 95.2265 204.892 222.28 95.3777 205.218 228.591 94.8872 205.532 
220.893 96.8738 206.106 220.162 97.5078 206.863 220.013 97.691 207.198 
220.311 97.2456 206.79 220.699 97.3396 206.444 221.284 97.5995 206.451 
235.87 89.0586 206.97 235.024 90.6414 206.349 219.849 97.5347 207.31 
219.845 97.6602 207.391 219.898 97.8502 207.664 236.04 89.0476 207.274 
236.224 89.3327 207.63 222.97 94.8626 206.678 219.773 97.7865 207.932 
223.345 97.8504 207.709 219.837 98.1583 208.343 221.522 98.0041 207.284 
236.266 88.8485 208.639 236.275 88.9592 208.125 220.34 96.778 207.967 
219.583 97.9312 208.771 222.583 98.0536 207.712 224.173 97.616 207.923 
219.251 98.3258 209.627 219.253 98.6185 209.696 220.008 98.5721 208.809 
220.663 98.7833 209.038 236.388 88.914 208.603 236.401 88.8697 208.916 
236.482 88.9389 209.107 217.54 99.9689 212.078 217.583 99.9402 212.133 
217.544 99.9735 212.129 219.54 99.0152 209.866 219.85 99.1302 209.9 
221.075 98.8902 209.383 220.161 99.2947 210.239 236.592 88.9741 209.871 
235.998 88.9809 209.538 236.183 89.5775 210.047 236.455 89.2354 210.467 
219.109 97.946 210.577 218.651 98.8611 211.039 217.711 99.8074 212.255 
217.575 99.9623 212.292 217.709 99.9215 212.141 217.583 99.9859 212.196 
236.663 88.9333 210.541 236.732 88.993 210.797 236.141 89.3042 210.648 
236.615 89.047 211.193 235.721 89.4245 210.972 235.897 89.6159 211.279 
236.018 89.7791 210.801 236.631 89.1088 211.226 235.43 90.9963 210.729 
235.731 90.6693 211.331 233.991 92.567 211.048 219.154 97.5631 211.869 
223.653 98.5815 210.856 217.78 99.4785 212.583 217.533 99.9567 212.747 
218.233 99.5399 211.806 217.642 100.063 212.463 217.972 100.043 212.324 
218.501 99.9938 212.083 236.853 88.9736 211.55 236.891 89.0449 212.175 
236.881 89.0464 211.946 235.849 89.7513 212.059 236.866 89.0616 212.072 
234.007 89.7696 212.257 235.947 90.398 212.073 218.328 98.3618 212.694 
217.258 100.281 213.582 217.934 100.784 213.495 236.99 89.0253 212.482 
236.942 89.0283 212.331 237.027 89.0511 212.693 237.002 89.1376 213.064 
237.04 89.0996 212.905 235.942 89.7788 212.948 235.571 89.6322 212.38 
237.02 89.1353 212.989 235.973 90.7791 212.894 217.03 99.9397 214.134 
216.088 100.98 215.517 219.767 100.629 213.254 216.244 101.083 215.322 
218.89 101.037 213.827 216.316 101.342 215.45 237.081 89.0855 213.253 
237.024 89.126 213.315 237.163 89.1588 213.826 236.974 89.2833 213.766 
237.162 89.256 213.909 236.161 89.6609 213.85 236.304 90.0331 213.571 
237.042 89.3196 213.809 235.308 92.037 213.912 215.836 101.045 215.993 
217.002 101.63 215.349 217.571 101.577 215.011 218.311 101.744 215.341 
237.218 89.233 214.99 236.94 89.2883 214.363 237.378 89.3503 215.084 
236.44 89.4325 214.773 236.772 89.6281 214.281 237.216 89.5723 214.846 
235.266 89.5637 214.636 215.346 101.616 216.856 215.127 101.797 217.28 
215.783 101.968 216.573 218.959 101.735 215.61 215.344 102.059 217.135 
237.644 89.425 216.079 233.447 90.064 215.701 217.063 102.184 216.492 
237.775 89.2685 217.1 238.027 89.4387 217.347 215.759 102.378 217.242 
219.572 101.916 217.153 237.189 89.14 217.37 237.509 89.103 217.898 
237.934 89.1461 218.188 238.357 89.5438 218.133 238.573 89.9222 218.697 
238.726 90.0883 219.239 237.082 91.6563 218.444 214.831 100.999 218.808 
215.35 100.271 218.584 214.443 102.164 219.223 215.562 102.738 218.404 
241.184 88.1051 222.313 241.162 88.1236 222.314 241.183 88.1201 222.364 
236.777 89.0872 219.249 236.128 89.2535 218.526 214.063 101.996 220.179 
213.922 103.007 220.829 214.473 103.026 220.084 216.247 103.143 219.531 
214.395 103.304 220.594 215.203 103.399 220.307 241.136 88.1545 222.473 
241.092 88.1799 222.354 241.197 88.1771 222.481 239.003 89.2493 219.811 
241.137 88.1693 222.349 214.836 100.449 220.96 214.2 101.392 220.565 
214.031 101.778 220.449 213.884 103.251 221.178 214.319 103.697 221.47 
241.068 88.1639 222.761 240.89 88.287 222.418 238.86 88.667 221.442 
239.473 89.0768 220.765 240.997 88.3164 222.37 239.857 89.3608 221.28 
220.631 101.993 220.521 213.289 103.312 222.341 216.713 103.494 221.185 
214.287 103.947 222.143 240.612 88.3006 222.642 241.377 88.0964 223.164 
241.739 88.1452 223.496 240.363 88.6934 222.026 241.04 88.7519 222.701 
241.152 89.3992 223.461 213.272 103.792 222.803 213.374 104.146 223.196 
242.079 87.9488 224.071 242.123 87.8306 224.322 242.321 87.9075 224.332 
242.26 87.855 224.341 242.375 87.8598 224.493 242.334 88.0165 224.284 
242.447 87.9406 224.548 241.949 88.3681 223.717 242.241 88.2604 224.065 
243.253 88.5536 225.683 243.225 88.5545 225.736 212.545 103.248 223.888 
212.243 103.989 224.272 211.331 104.59 225.32 211.169 104.719 225.526 
212.813 104.184 223.751 211.12 104.877 225.663 211.276 104.939 225.541 
212.978 104.827 224.631 213.435 104.727 224.343 242.564 87.9971 224.912 
243.121 88.5443 225.641 243.037 88.6056 225.71 243.168 88.5264 225.781 
243.121 88.5858 225.895 213.855 104.73 224.399 242.504 87.8925 225.188 
241.876 87.764 225.02 242.863 88.281 225.653 242.735 88.5713 225.31 
243.03 88.4569 225.73 243.096 88.4815 226.084 240.523 90.4309 224.299 
242.864 88.7686 226.066 238.958 91.6544 224.381 210.845 105.008 226.284 
210.774 104.989 226.523 210.806 105.092 226.459 211.689 105.217 225.706 
214.84 104.685 225.11 207.002 107.011 225.517 207.002 107.011 225.517 
207.002 107.011 225.517 210.952 105.121 226.274 207.002 107.011 225.517 
207.002 107.011 225.517 211.678 105.411 226.481 242.375 87.8171 225.36 
242.515 87.9138 225.806 242.774 88.1043 226.046 243.025 88.3515 226.389 
213.889 100.814 225.849 210.761 105.092 226.65 207.002 107.011 225.518 
207.002 107.011 225.518 207.002 107.011 225.518 207.002 107.011 225.518 
211.916 105.496 226.945 237.721 92.6969 226.721 211.821 102.932 227.253 
210.811 104.582 227.606 207.002 107.011 225.518 223.3 101.453 228.189 
210.78 104.982 227.816 211.057 105.265 228.545 212.552 105.55 228.031 
211.654 105.56 228.343 242.588 89.2989 229.391 210.776 104.851 228.086 
210.847 104.695 228.641 210.919 105.008 229.156 212.017 105.621 228.772 
242.599 87.9547 229.931 211.675 105.596 229.545 211.909 105.634 229.822 
212.246 105.615 229.861 242.264 87.7294 230.913 241.313 87.7365 230.43 
210.658 104.92 231.937 210.656 105.024 231.773 207.004 107.012 232.517 
207.004 107.012 232.517 207.004 107.012 232.517 207.004 107.012 232.517 
211.726 105.596 230.059 207.004 107.012 232.517 211.322 105.432 230.782 
242.898 88.2221 231.044 227.23 94.0099 231.581 210.694 104.934 232.227 
207.003 107.012 232.517 207.004 107.012 232.517 207.004 107.012 232.517 
207.004 107.012 232.517 242.741 87.8641 232.237 211.035 104.581 232.752 
210.705 105.057 232.291 213.422 105.2 232.115 207.003 107.012 232.518 
207.003 107.012 232.518 207.003 107.012 232.518 210.74 105.144 232.127 
[...]
POINT_DATA 807
SCALARS scalars float
LOOKUP_TABLE default
1 1 1 1 1 1 1 1 1 
1 1 1 1 1 1 1 1 1 
1 1 1 1 1 1 1 1 1 
1 1 1 1 1 1 1 1 1 
1 1 1 1 1 1 1 1 1 
1 1 1 1 1 1 1 1 1 
1 1 1 1 1 1 1 1 1 
1 1 1 1 1 1 1 1 1 
1 1 1 1 1 1 1 1 1 
1 1 1 1 1 1 1 1 1 
1 1 1 1 1 1 1 1 1 
1 1 1 1 1 1 1 1 1 
1 1 1 1 1 1 1 1 1 
1 1 1 1 1 1 1 1 1 
1 1 1 1 1 1 1 1 1 
1 1 1 1 1 1 1 1 1 
1 1 1 1 1 1 1 1 1 
1 1 1 1 1 1 1 1 1 
1 1 1 1 1 1 1 1 1 
1 1 1 1 1 1 1 1 1 
1 1 1 1 1 1 1 1 1 
1 1 1 1 1 1 1 1 1 
1 1 1 1 1 1 1 1 1 
1 1 1 1 1 1 1 1 1 
1 1 1 1 1 1 1 1 1 
1 1 1 1 1 1 1 1 1 
1 1 1 1 1 1 1 1 1 
1 1 1 1 1 1 1 1 1 
1 1 1 1 1 1 1 1 1 
1 1 1 1 1 1 1 1 1 
1 1 1 1 1 1 1 1 1 
1 1 1 1 1 1 1 1 1 
1 1 1 1 1 1 1 1 1 
1 1 1 1 1 1 1 1 1 
1 1 1 1 1 1 1 1 1 
1 1 1 1 1 1 1 1 1 
1 1 1 1 1 1 1 1 1 
1 1 1 1 1 1 1 1 1 
1 1 1 1 1 1 1 1 1 
1 1 1 1 1 1 1 1 1 
1 1 1 1 1 1 1 1 1 
1 1 1 1 1 1 1 1 1 
1 1 1 1 1 1 1 1 1 
1 1 1 1 1 1 1 1 1 
1 1 1 1 1 1 1 1 1 
1 1 1 1 1 1 1 1 1 
1 1 1 1 1 1 1 1 1 
1 1 1 1 1 1 1 1 1 
1 1 1 1 1 1 1 1 1 
1 1 1 1 1 1 1 1 1 
1 1 1 1 1 1 1 1 1 
1 1 1 1 1 1 1 1 1 
1 1 1 1 1 1 1 1 1 
1 1 1 1 1 1 1 1 1 
1 1 1 1 1 1 1 1 1 
1 1 1 1 1 1 1 1 1 
1 1 1 1 1 1 1 1 1 
1 1 1 1 1 1 1 1 1 
1 1 1 1 1 1 1 1 1 
1 1 1 1 1 1 1 1 1 
1 1 1 1 1 1 1 1 1 
1 1 1 1 1 1 1 1 1 
1 1 1 1 1 1 1 1 1 
1 1 1 1 1 1 1 1 1 
1 1 1 1 1 1 1 1 1 
1 1 1 1 1 1 1 1 1 
1 1 1 1 1 1 1 1 1 
1 1 1 1 1 1 1 1 1 
1 1 1 1 1 1 1 1 1 
1 1 1 1 1 1 1 1 1 
1 1 1 1 1 1 1 1 1 
1 1 1 1 1 1 1 1 1 
1 1 1 1 1 1 1 1 1 
1 1 1 1 1 1 1 1 1 
1 1 1 1 1 1 1 1 1 
1 1 1 1 1 1 1 1 1 
1 1 1 1 1 1 1 1 1 
1 1 1 1 1 1 1 1 1 
1 1 1 1 1 1 1 1 1 
1 1 1 1 1 1 1 1 1 
1 1 1 1 1 1 1 1 1 
1 1 1 1 1 1 1 1 1 
1 1 1 1 1 1 1 1 1 
1 1 1 1 1 1 1 1 1 
1 1 1 1 1 1 1 1 1 
1 1 1 1 1 1 1 1 1 
1 1 1 1 1 1 1 1 1 
1 1 1 1 1 1 1 1 1 
1 1 1 1 1 1 1 1 1 
1 1 1 1 1 1 
NORMALS Normals float
0.270911 0.402277 -0.874517 -0.465872 -0.749194 -0.47082 -0.57937 -0.587365 -0.565095 
0.726642 -0.591088 -0.350152 -0.277989 -0.723225 -0.632193 -0.540787 -0.571652 -0.61706 
0.16026 0.749711 -0.642067 0.908746 0.241961 -0.340051 -0.22713 -0.542501 -0.808768 
-0.389891 -0.785489 -0.480616 0.00953621 -0.263214 -0.96469 0.22179 0.180186 -0.958302 
-0.287041 -0.500438 -0.816805 -0.217791 -0.130817 -0.967189 0.295501 0.629441 -0.718667 
0.370145 0.773996 -0.513734 -0.294253 -0.159202 -0.942374 -0.326643 -0.0238803 -0.944846 
-0.128477 0.0807975 -0.988416 -0.402725 -0.473641 -0.783248 0.0426946 0.341794 -0.938804 
0.119558 0.264665 -0.9569 -0.040315 0.402302 -0.914619 -0.00809379 0.576971 -0.816725 
0.156876 0.633569 -0.757615 0.38718 0.791919 -0.472183 0.266079 0.858346 -0.438685 
-0.17781 -0.278631 -0.943795 -0.246735 -0.957598 -0.148755 0.875324 -0.329582 -0.353813 
-0.46205 -0.646449 -0.607135 0.379835 0.649143 -0.659044 0.597174 0.79551 -0.102699 
-0.410164 -0.729915 -0.546799 0.0444097 0.187441 -0.981271 0.464936 0.871766 -0.154462 
-0.529621 -0.556264 -0.640369 0.422564 0.832848 -0.357495 -0.54435 -0.694735 -0.470134 
-0.374262 0.0744501 -0.92433 0.0144782 0.643028 -0.765706 -0.00923134 0.625372 -0.780272 
0.0461003 0.74625 -0.664068 0.30542 0.889651 -0.33947 -0.00433782 -0.871989 -0.489506 
-0.159569 -0.49985 -0.851286 0.200043 -0.8767 -0.437469 0.483986 -0.000891971 -0.875075 
0.331754 0.405622 -0.85171 0.81286 -0.171848 -0.556532 0.0212433 -0.934912 -0.354243 
0.764933 0.591663 -0.254582 0.648551 0.685455 -0.330957 -0.427331 -0.848644 -0.311755 
-0.601184 -0.781156 -0.168443 -0.518082 -0.255368 -0.81632 -0.435809 -0.877594 0.199746 
-0.594552 -0.481237 -0.644142 -0.487808 0.114851 -0.865362 -0.0205994 0.698479 -0.715334 
0.501922 0.861355 0.0783727 0.255558 0.951488 -0.171352 -0.201251 0.724628 -0.6591 
-0.166738 0.638837 -0.751057 0.169775 0.920871 -0.35096 0.488442 0.861553 -0.138386 
0.131834 -0.941301 -0.31076 -0.301125 -0.757186 -0.579649 0.708942 -0.417082 -0.568721 
0.808518 -0.295198 -0.509074 -0.133104 -0.900234 -0.414563 0.824857 0.398116 -0.40139 
0.83422 0.367972 -0.410698 0.802578 0.515075 -0.300941 -0.69843 -0.631753 -0.33628 
-0.297089 -0.951837 -0.075788 -0.470041 -0.831496 -0.296102 0.264126 -0.181376 0.94728 
-0.217268 -0.922081 -0.320251 -0.893185 -0.442086 -0.082342 -0.63784 0.26901 -0.72166 
-0.868608 -0.30906 -0.387301 -0.328068 0.821618 -0.466171 -0.597965 -0.504259 -0.623025 
-0.555966 -0.766572 -0.321355 0.520829 -0.85314 -0.0298237 0.904348 0.351681 0.241817 
-0.291299 -0.15036 0.944742 -0.238102 0.50154 -0.831724 0.522742 0.774289 -0.356676 
-0.0145256 0.90702 -0.420837 0.296694 -0.903641 -0.308879 -0.255166 -0.903976 -0.3431 
0.57376 -0.728902 -0.373498 0.887519 -0.0407669 -0.458965 0.939157 -0.141014 -0.313208 
0.602339 0.745628 -0.285004 0.769185 0.573209 -0.282464 0.785129 0.557904 -0.268915 
-0.562678 -0.251465 -0.787502 -0.741019 0.469719 -0.47985 -0.630238 -0.494137 -0.598856 
-0.223435 -0.643002 -0.732547 0.259553 0.225678 -0.93899 -0.14011 0.830638 -0.538897 
0.276778 0.886263 -0.371392 0.0591016 -0.984969 -0.162306 -0.478534 -0.810193 -0.338515 
-0.604576 -0.625214 -0.493555 -0.898362 -0.35335 -0.26094 -0.701024 -0.673903 -0.233278 
0.154548 0.912516 -0.378722 -0.61843 -0.745214 -0.249399 -0.854373 -0.512549 -0.0856756 
-0.90864 0.035035 -0.416108 -0.868731 -0.441032 -0.225383 -0.74983 -0.638597 -0.173059 
-0.662529 0.463367 -0.588511 -0.564046 0.21336 -0.797703 -0.951896 0.0680049 -0.298779 
-0.584286 -0.648199 -0.488311 -0.622628 0.545856 -0.560692 0.764725 -0.562918 -0.313559 
-0.394968 -0.904113 -0.163035 -0.439149 -0.895326 -0.0744285 -0.832947 -0.552501 0.0306918 
-0.596268 -0.702764 -0.388057 -0.828774 -0.540147 -0.146204 0.424447 0.879001 -0.217261 
-0.871961 -0.164831 -0.460994 -0.164105 0.621915 -0.765697 -0.164592 0.917311 -0.362561 
-0.717729 -0.386393 -0.57928 -0.554972 0.508909 -0.65804 -0.262143 0.839111 -0.476628 
0.315001 -0.921685 -0.226434 0.723417 0.674667 -0.146603 -0.874109 -0.470592 -0.120321 
-0.83395 0.486776 -0.259954 -0.4023 0.845435 -0.351275 0.859691 -0.411724 -0.30235 
0.971846 0.074083 -0.223666 -0.568359 -0.82235 0.0266194 -0.97817 0.104126 -0.179838 
0.293307 0.698449 -0.652794 -0.562562 0.666107 -0.48972 0.0111382 0.8693 -0.494159 
-0.00554957 -0.998533 -0.0538598 0.795331 -0.54713 -0.260955 -0.75525 -0.647062 -0.104448 
-0.954025 -0.115834 -0.276439 0.20096 0.947031 -0.250495 0.384847 0.858457 -0.339035 
-0.949135 0.0177877 -0.314367 -0.886544 0.186568 -0.423357 -0.184008 0.886795 -0.423953 
-0.135072 0.917809 -0.37334 0.767273 -0.612935 -0.188688 0.629312 -0.771495 -0.0936071 
0.979241 -0.102073 -0.175126 -0.410684 -0.89947 -0.149306 -0.494578 -0.847844 -0.19119 
-0.651272 -0.752719 0.0962218 -0.417808 0.783044 -0.460736 -0.193949 0.910031 -0.366371 
0.0475238 0.965177 -0.257246 0.0996707 0.932185 -0.347989 0.983045 0.144143 -0.113342 
-0.307898 -0.935335 0.174204 0.855763 0.515406 0.0450262 0.472078 0.877218 0.0873502 
-0.925632 -0.320249 -0.201609 -0.895857 -0.295117 -0.332185 -0.693117 -0.635522 -0.340147 
-0.998743 -0.023773 0.0441378 -0.0581353 0.369152 -0.927549 -0.214547 0.970789 -0.107416 
0.117153 -0.992587 0.0323549 0.963538 0.216428 -0.157331 0.459255 -0.182379 0.869381 
-0.821182 -0.456515 0.342423 0.382724 -0.83381 0.397848 0.766978 -0.558454 0.316029 
0.989214 0.0782338 0.123838 -0.889509 -0.00438607 0.456896 0.660689 0.741294 -0.118208 
0.874312 0.485308 -0.00741798 0.702587 0.68486 -0.193232 -0.740596 -0.670376 -0.0459787 
0.307188 0.923687 -0.228992 -0.869913 -0.381413 -0.312692 -0.959119 -0.177406 -0.220496 
-0.695607 0.228554 -0.681097 -0.535731 0.77487 -0.335514 -0.12773 0.799009 -0.587596 
-0.201613 0.816473 -0.541039 0.476531 -0.878269 -0.039528 -0.926498 -0.325682 0.1885 
0.418419 0.906492 -0.0565547 0.84092 -0.539753 0.0389896 -0.9693 0.0257375 0.244531 
-0.172046 -0.972275 0.158372 0.902151 0.426335 -0.0660458 -0.798213 -0.584091 -0.147288 
-0.839314 0.269566 -0.472108 -0.283425 0.791691 -0.541198 0.323702 -0.946043 0.0148155 
-0.650736 -0.747806 0.131639 0.990548 0.0377239 -0.131874 -0.925115 0.378065 -0.0350533 
0.751173 0.639605 -0.163233 0.321398 -0.945918 -0.0440847 0.19322 -0.967558 0.162779 
0.0228728 0.987022 -0.158949 0.948006 0.283338 -0.144928 -0.904073 -0.269491 -0.331702 
-0.886824 -0.214142 -0.409496 0.209273 0.884385 -0.417214 -0.729546 0.373123 -0.573185 
0.163907 0.890815 -0.423772 -0.435862 0.692774 -0.574533 0.116644 -0.991256 0.0616939 
-0.798503 -0.59678 0.0790312 0.950063 -0.297787 -0.0932959 -0.948461 0.202088 -0.244095 
0.816128 0.537755 -0.211554 0.285066 -0.897208 -0.337277 0.903591 -0.190426 -0.383746 
0.125272 0.937019 -0.326039 0.807501 0.536017 -0.246228 -0.891722 -0.151076 -0.426623 
-0.240659 0.85152 -0.46583 -0.0750526 0.795739 -0.600972 0.100346 0.888391 -0.447986 
0.237892 -0.965256 -0.108113 -0.696208 -0.71193 -0.0919241 0.971795 -0.14976 -0.182173 
-0.184614 -0.904199 -0.385151 0.0570927 -0.325974 -0.943653 0.823559 0.443864 -0.353179 
-0.173297 -0.979697 -0.10081 -0.877879 0.0390415 -0.477288 -0.888042 0.0237473 -0.459148 
-0.545588 0.604847 -0.580081 0.312061 0.80598 -0.503005 -0.647314 0.625889 -0.435026 
0.892026 -0.374353 -0.253278 -0.506275 -0.843181 0.180916 -0.0113447 0.941251 -0.337516 
0.555257 -0.808324 -0.195708 0.85232 -0.441276 -0.280762 -0.256544 0.87999 -0.399754 
0.441448 0.870373 -0.218116 -0.0399772 -0.998975 -0.0212186 -0.144342 -0.987324 0.0659986 
0.14928 -0.980845 -0.125137 0.892803 -0.287772 -0.34654 0.933587 0.119969 -0.337672 
0.817391 0.454668 -0.353764 0.632311 0.748523 -0.199742 -0.877356 -0.395195 -0.272153 
-0.726858 -0.662483 -0.181089 -0.853747 0.308283 -0.419616 -0.416186 0.835447 -0.35891 
0.387929 -0.895073 -0.219898 -0.654304 -0.750188 -0.0954153 0.385894 -0.869601 0.308027 
-0.502789 -0.814812 0.28859 -0.250934 -0.963797 0.0901549 -0.923755 -0.193358 -0.33059 
-0.842938 0.338529 -0.418156 -0.456929 0.745845 -0.484696 -0.0163511 0.953277 -0.301655 
-0.436423 0.813576 -0.384225 -0.194146 0.909627 -0.367268 -0.11949 -0.992365 0.0305531 
-0.54354 -0.476876 -0.690764 0.928304 -0.0875122 -0.361378 0.625781 -0.697606 -0.348918 
0.418448 0.615525 -0.667855 -0.762831 -0.644742 0.0489617 -0.905378 -0.424511 0.00899153 
-0.970247 -0.233111 -0.0654249 -0.530839 0.759786 -0.375413 -0.272713 0.885217 -0.376853 
-0.300002 -0.951972 -0.0612182 -0.366654 -0.82773 -0.424767 -0.156281 -0.979034 -0.13065 
0.60403 -0.617938 -0.503289 0.304475 0.152252 -0.940273 0.844991 -0.0862063 -0.527786 
0.461435 0.869633 -0.175546 -0.766111 0.424585 -0.482495 0.181833 0.960578 -0.210303 
-0.159292 0.929552 -0.332506 -0.0192338 -0.871733 -0.489604 0.165161 -0.928313 -0.333101 
0.62564 -0.62665 -0.464634 0.383912 -0.569708 -0.726666 0.731829 0.328224 -0.59724 
0.767264 0.493914 -0.40909 -0.536557 0.674629 -0.506934 -0.192041 0.880916 -0.432559 
0.507534 -0.661662 -0.551917 0.17143 -0.965257 -0.197209 0.688911 -0.516495 -0.508561 
0.376627 -0.838513 -0.393761 0.568675 -0.796252 -0.206377 0.767545 -0.290544 -0.571366 
0.898055 -0.253217 -0.359693 0.825547 0.260033 -0.500854 0.837071 0.271484 -0.474983 
0.9481 0.317966 -0.00221787 0.81776 -0.271148 0.507689 -0.896056 -0.220799 -0.385138 
-0.744775 0.206001 -0.634724 -0.695596 0.210004 -0.687055 -0.878164 -0.27575 -0.390884 
-0.552026 0.605264 -0.573518 -0.709378 0.40254 -0.578571 -0.542351 0.601117 -0.586952 
-0.134777 0.897012 -0.420956 0.0169916 0.968115 -0.249928 0.8882 -0.41616 -0.194707 
0.241891 0.852611 -0.463189 0.308046 0.910315 -0.276468 0.667343 -0.732254 0.135861 
0.818385 0.524874 0.233995 0.0401176 0.966822 -0.25228 0.473466 -0.879259 -0.0522758 
0.0373407 -0.998504 -0.0399317 0.829446 -0.49064 -0.267003 0.75892 0.316138 -0.569295 
0.5782 -0.75614 -0.306492 0.905426 -0.418752 0.069651 0.677469 0.685231 -0.267385 
0.526677 0.826942 -0.196919 0.537262 0.811222 -0.230799 -0.899687 0.149299 -0.410211 
-0.966291 -0.152435 -0.207474 -0.807153 0.517628 -0.283839 -0.238961 0.924816 -0.295996 
0.220082 0.970774 -0.0957138 0.0326245 -0.809893 -0.58567 0.119548 -0.915801 -0.383428 
-0.276265 -0.736707 -0.617204 -0.428763 0.867339 -0.252755 0.576945 -0.806564 -0.128798 
-0.0422413 0.917782 0.394832 0.00154953 0.96491 -0.262574 0.253108 -0.9674 0.00858302 
0.496351 -0.863263 0.0917227 0.662551 -0.748435 0.029516 0.92606 -0.310714 0.214172 
-0.734832 -0.674611 -0.0701527 -0.900512 0.432375 -0.0461604 0.0399882 -0.9395 -0.340206 
-0.126984 -0.877294 -0.462851 0.508625 -0.860982 0.00319293 -0.0108817 0.911938 0.410184 
-0.00158001 0.979348 -0.202174 0.48283 0.875608 0.013594 -0.818834 -0.572246 0.0452252 
-0.899256 -0.432357 -0.0663806 0 -0.894427 -0.447214 0.516689 0.854426 -0.0546657 
-0.914001 0.391003 0.108252 -0.515765 0.85673 -0.000864985 0.258741 0.956148 -0.137236 
-0.229598 0.972949 -0.0255933 0.816406 0.577272 0.0154647 -0.987584 -0.11292 0.109212 
-0.9554 -0.164192 0.245464 -0.953337 0.293227 0.0718738 -0.0155636 0.999788 -0.0134911 
0.419747 -0.905944 -0.0554844 -0.206425 0.977353 -0.0465769 -0.0234714 0.999724 -0.000168523 
0.105931 0.99267 0.0581727 -0.00256647 -0.999316 -0.0368883 -0.189021 -0.981809 0.0179628 
-0.907907 -0.414519 0.0622851 -0.898802 0.437418 -0.0286417 0 0 0 
0 0 0 0 0 0 0 0 0 
-0.320585 0.942149 0.0978848 0 0 0 -0.262452 0.964357 0.0336869 
0.943104 -0.332498 -0.000845763 -0.482293 -0.875174 0.0382753 -0.937474 -0.232259 0.259226 
0.447214 -0.894427 0 0.447214 -0.894427 0 -0.447214 0.894427 0 
0 0 0 0.607647 -0.790614 -0.0754577 -0.868379 -0.227238 0.440773 
-0.933176 0.30227 0.194462 0.238738 0.968773 0.066954 -0.447214 0.894427 0 
0.447214 -0.894427 0 -0.447214 0.894427 0 -0.477597 0.868998 0.129398 
-0.0178928 0.988845 0.147869 0.447214 -0.894427 0 0.014174 -0.994558 -0.103215 
-0.337612 -0.931497 0.135394 0.711606 -0.693718 -0.111231 0.938194 -0.298002 0.17603 
0.730397 0.679896 0.0652805 0.593068 0.732606 0.334003 0.518381 0.817726 0.250211 
-0.62391 0.427391 0.654273 -0.860342 0.192243 0.472075 -0.447214 0.894427 0 
0.447214 -0.894427 0 -0.447214 0.894427 0 -0.385653 0.849204 0.360728 
0.0836829 0.956764 0.278566 0.447214 -0.894427 0 -0.446608 -0.864119 0.232033 
0.710217 -0.665696 -0.229 0.994018 -0.0894988 0.0626016 0.102985 -0.594062 0.7978 
-0.0655577 -0.920145 0.386051 0.444807 0.360667 0.819797 0.580966 -0.419082 0.697746 
0.710475 -0.055558 0.701525 0.697099 0.254932 0.670121 0.719694 -0.685538 0.109902 
0.614234 -0.582189 0.532702 0.996541 0.0798566 -0.0230095 0.512401 0.530409 0.67536 
0.387771 0.316323 0.865779 0.706723 0.702875 0.0806812 0.448381 0.794942 0.408682 
-0.641398 -0.764804 -0.0606933 0.356434 0.926007 0.124364 -0.660271 0.376635 0.64976 
-0.198093 0.844531 0.497521 -0.161016 0.848218 0.504578 -0.694105 0.463898 0.550469 
0.447214 -0.894427 0 0.765453 -0.478348 -0.430423 -0.409983 -0.911956 -0.0157986 
0.892929 0.34555 0.28857 0.73928 0.638214 0.214821 0.434895 -0.663829 0.608438 
-0.180367 0.0755439 0.980694 0.876036 -0.46935 0.110775 0.592861 -0.162844 0.788668 
0.609962 0.603221 0.513878 0.305405 0.595628 0.742937 -0.569976 -0.821634 0.00674153 
-0.831512 -0.54043 -0.128541 0.976144 0.0684724 -0.206046 -0.180182 -0.932246 -0.313771 
0.160267 0.633805 0.756707 0.243584 -0.882321 0.402711 0.656505 -0.464599 0.594263 
-0.750117 -0.51223 0.418264 -0.128526 -0.970654 0.203252 0.75296 -0.108488 0.649063 
0 -0.970142 -0.242536 0 -1 0 -0.6 -0.8 0 
0.6 -0.8 0 0 1 0 0.764821 0.521264 0.378592 
0.754227 0.308812 0.579463 -0.805232 -0.561448 0.190726 -0.905348 -0.383155 0.183131 
-0.893687 0.134687 0.427999 -0.581494 0.652326 0.486143 -0.181736 0.882706 0.433362 
-0.501927 -0.855727 0.125698 0.508074 -0.682634 0.525235 0.622559 -0.286088 0.728405 
0.461022 -0.581873 0.669987 0.783322 -0.17303 0.597048 0 -0.970142 0.242536 
0.662531 0.643739 0.382951 0.813232 0.430195 0.3919 -0.781738 -0.615464 0.100447 
-0.888212 -0.128481 0.441103 -0.783311 -0.271552 0.559181 -0.91602 0.0103107 0.401 
-0.766248 0.495105 0.409554 -0.305919 0.845727 0.437218 0.305432 -0.762424 0.570456 
0.197793 -0.933258 0.299846 0.883068 0.0299917 0.468286 0.662008 0.58626 0.466952 
0.780555 0.37974 0.496518 -0.829348 -0.511331 0.225218 -0.943698 -0.241088 0.226517 
-0.946475 -0.0959924 0.308174 -0.426028 0.248233 0.869989 -0.890091 -0.319614 0.32494 
-0.476428 0.60109 0.641644 -0.0286865 0.895595 0.443945 0.315856 0.911305 0.264118 
-0.623013 0.722716 0.299225 -0.314942 -0.93886 0.139117 0.637071 0.598244 0.486049 
0.708558 0.65723 0.256894 -0.942163 -0.152332 0.298534 -0.699244 -0.621398 0.353445 
0.0088003 0.922914 0.384905 0.207168 0.925829 0.316104 0.645154 -0.700442 0.305218 
-0.503443 -0.850267 -0.153591 -0.0366271 -0.999293 0.00844469 -0.111885 -0.964552 0.239 
-0.420826 0.906323 -0.0385348 0.94285 -0.245509 0.225299 0.881774 0.247254 0.401672 
0.895585 0.334863 0.292907 0.00330338 0.913913 0.405897 -0.846508 -0.494423 0.197411 
-0.410819 0.798592 0.439862 -0.210911 -0.971226 -0.110622 -0.229857 -0.962237 -0.145826 
0.890807 -0.422177 0.168015 0.546584 -0.403557 -0.733749 0.575347 0.780655 0.244036 
0.630088 0.775901 0.0311069 0.8842 0.433046 0.175104 -0.918989 -0.226733 0.322571 
-0.901411 -0.0849911 0.424541 -0.883345 -0.335678 0.327142 -0.847281 0.24879 0.469274 
0.316215 0.919081 0.235155 -0.538766 0.717923 0.440815 0.0900187 -0.99498 -0.0437274 
0.980258 -0.0763801 0.182375 -0.338118 -0.940892 0.01996 0.835904 0.50636 0.211812 
0.702621 0.639695 0.311632 -0.244483 -0.969294 0.0264013 0.689618 0.70165 0.179207 
-0.642632 0.487109 0.591395 -0.462773 0.707243 0.534461 -0.150941 0.895138 0.419457 
0.118428 0.938391 0.32465 -0.0346823 -0.998124 -0.0504448 -0.827981 -0.557345 -0.0617613 
0.451214 -0.823805 0.343151 -0.0753578 -0.199883 0.976918 -0.967479 -0.252416 -0.0164425 
0.842743 0.137823 0.520374 0.890338 0.357124 0.28242 0.690242 0.706454 0.156486 
-0.836455 -0.439891 0.326862 -0.737622 -0.657044 0.155588 -0.930821 -0.320323 0.175967 
-0.671715 -0.658309 0.339748 0.445274 -0.894154 0.0471187 -0.538125 -0.83375 -0.12362 
0.926852 0.321326 0.194154 -0.883716 -0.447135 -0.138262 0.502779 0.845447 0.180091 
-0.155384 -0.987849 -0.00316695 0.962021 -0.140612 0.233976 -0.990885 -0.0993307 -0.0909947 
0.783025 0.570295 0.248264 -0.441508 -0.730241 0.521362 -0.970468 -0.224946 0.0871315 
-0.455721 0.166623 0.874389 0.119758 0.472828 0.872979 -0.714721 0.320116 0.621851 
-0.371469 0.836565 0.402703 -0.330742 0.708731 0.623145 -0.0259676 0.890674 0.453901 
-0.127359 -0.989299 -0.0711783 -0.822441 -0.532368 -0.200436 0.854433 -0.495608 0.155936 
-0.527018 0.803749 -0.276116 0.868719 0.464803 0.171132 0.769955 -0.636227 -0.0488292 
0.0143169 -0.981578 -0.190523 0.994051 -0.000931271 0.108908 -0.917469 -0.36444 -0.159482 
-0.0486095 0.963877 0.261873 -0.102744 -0.270674 0.957173 -0.672102 -0.734782 0.0915075 
0.129857 0.91833 0.373908 -0.849016 0.527683 -0.0268789 -0.168232 -0.982797 -0.0762118 
-0.654315 -0.716608 -0.241546 0.873707 -0.448077 0.189375 -0.268264 -0.925905 -0.265958 
-0.168217 0.919487 -0.355312 0.505322 -0.7423 -0.440045 0.950988 0.293819 -0.0963971 
0.383049 0.912419 -0.144105 -0.645152 -0.74857 0.153044 -0.902563 -0.0467405 0.428012 
-0.801908 0.239916 0.54716 -0.314177 0.89732 0.310016 -0.382259 0.743932 0.548127 
-0.280217 0.806502 0.520608 -0.684936 -0.724509 0.077137 -0.502882 0.722323 0.47472 
-0.418393 -0.861794 -0.286808 0.173185 -0.984568 0.0251605 0.938131 -0.232179 0.25691 
0.40554 0.195154 -0.893002 0.802807 0.59412 -0.0502221 -0.766768 -0.588644 0.256056 
0.501801 0.850196 0.159254 -0.679026 0.454298 0.576661 -0.607408 0.551224 0.572021 
0.772576 -0.585185 0.246344 0.243089 -0.955415 0.167598 0.729419 -0.60397 0.321197 
0.951472 0.235633 0.197933 -0.669451 -0.720577 0.180568 -0.810217 -0.547339 0.209687 
0.102106 0.913825 0.393062 0.497008 -0.839708 0.218803 0.591151 -0.766965 0.249611 
0.865101 0.384982 0.321541 0.805007 0.582519 0.112404 0.730879 0.645809 0.220785 