# vtk DataFile Version 4.2
vtk output
ASCII
DATASET POLYDATA
POINTS 523 float
269.765 223.94 192.615 269.703 223.724 192.732 269.977 224.052 192.572 
270.637 223.386 193 271.647 225.185 192.747 266.908 226.236 192.75 
266.764 226.551 192.782 267.284 227.235 192.568 271.539 226.58 192.644 
268.871 227.817 192.296 270.899 222.691 193.696 271.704 222.983 193.773 
268.438 223.535 193.321 272.356 223.663 193.696 266.803 225.294 193.136 
266.168 225.416 193.426 272.676 224.463 193.605 265.791 226.648 193.498 
266.186 228.315 193.367 270.547 228.873 192.562 266.442 230.395 193.905 
271.826 230.3 193.214 268.048 231.036 193.318 270.697 231.034 193.086 
269.269 231.6 193.26 267.84 223.12 193.99 272.006 222.848 194.07 
265.677 225.453 193.867 265.845 228.094 193.596 273.166 228.633 193.667 
265.995 229.318 193.847 272.442 229.778 193.361 268.438 232.304 193.77 
271.769 232.083 193.697 268.344 233.412 194.45 269.526 221.744 195.139 
270.706 221.873 194.98 272.26 222.974 194.145 272.528 222.751 194.774 
266.796 223.106 194.743 265.12 224.914 194.909 274.365 229.519 194.646 
267.15 233.658 195.363 272.637 233.956 194.764 272.501 234.478 195.016 
271.089 221.459 195.916 266.064 222.998 195.739 264.945 230.496 195.894 
265.946 232.41 195.708 267.117 233.859 195.623 270.04 236.214 196.663 
267.973 221.455 196.474 276.259 232.277 196.68 275.144 235.998 196.873 
273.546 237.039 197.158 265.827 222.35 197.482 266.326 234.034 197.272 
268.155 235.845 197.691 264.767 223.092 198.292 274.246 223.28 197.613 
264.373 223.949 197.84 275.181 224.46 197.918 269.384 220.224 199.268 
263.583 225.421 199.134 279.156 234.794 200.123 269.111 237.288 199.608 
272.588 238.842 199.674 270.953 220.226 199.918 279.654 233.472 201.219 
278.788 237.556 200.034 271.596 220.297 200.989 265.977 220.896 201.502 
276.601 241.457 202.539 281.233 241.21 202.915 269.165 219.582 202.936 
280.979 235.804 202.446 272.442 239.607 201.888 281.898 241.927 203.685 
263.499 231.811 203.239 279.806 242.985 204.253 270.198 219.3 205.061 
271.849 220.028 204.017 264.859 221.334 203.313 263.216 223.45 203.725 
268.31 237.329 203.535 283.502 242.482 205.235 281.333 243.185 204.627 
280.163 243.849 205.372 283.26 243.506 205.67 270.358 219.251 205.772 
265.24 220.682 205.024 275.652 242.072 205.321 281.681 244.844 206.773 
283.598 244.325 206.563 282.942 244.733 206.762 267.583 219.327 206.5 
275.552 223.009 206.076 262.007 225.104 206.26 284.357 241.598 205.825 
279.589 244.388 206.847 268.767 219.077 206.8 261.748 228.774 207.422 
285.316 239.609 207.554 285.065 244.616 208.161 264.3 220.979 207.919 
262.511 223.009 208.19 276.065 223.499 207.52 283.764 245.779 208.655 
284.412 245.594 208.74 270.541 219.084 208.961 274.3 221.41 208.765 
261.315 227.026 208.856 275.932 242.802 208.518 282.641 246.166 209.222 
269.137 218.898 210.28 267.122 219.185 210.326 264.723 220.34 210.321 
265.931 219.657 209.956 261.859 223.714 209.901 278.751 226.886 210.19 
284.626 235.871 209.544 263.06 232.692 211.014 268.384 218.897 211.435 
274.314 221.367 211.869 261.023 229.623 212.808 263.819 233.657 212.626 
260.767 225.57 213.176 288.467 245.156 213.225 283.028 248.118 213.632 
262.565 222.037 213.549 260.906 224.884 213.946 282.801 231.782 213.626 
289.299 243.023 214.38 289.127 244.59 214.177 282.431 248.107 214.314 
268.003 219.002 214.113 270.298 219.116 213.995 264.068 220.861 215.09 
279.199 227.198 214.356 260.331 228.465 215.65 286.586 236.232 215.149 
268.155 237.01 214.792 284.356 248.698 215.544 287.629 248.24 215.901 
266.052 219.954 216.093 271.426 219.617 214.999 260.299 227.015 216.393 
289.613 245.751 216.084 289.183 247.092 216.502 271.898 220.092 216.255 
279.627 228.061 217.035 282.045 230.769 216.713 261.66 231.301 217.177 
282.177 248.23 217.329 288.62 248.136 217.431 288.274 248.406 217.477 
269.101 219.428 216.727 263.236 222.083 217.287 261.068 230.218 217.895 
289.882 241.615 217.296 290.109 244.441 218.029 288.934 247.98 218.498 
286.489 249.027 218.179 287.634 248.755 218.08 270.309 219.702 217.011 
265.853 220.602 217.737 268.69 219.747 217.341 272.683 220.936 217.371 
260.604 227.095 217.932 263.418 232.852 218.249 285.189 234.506 218.346 
288.909 239.367 218.004 272.388 239.666 218.244 275.775 242.751 218.732 
277.229 244.317 218.463 289.469 247.39 218.964 270.673 220.205 217.781 
274.321 222.743 218.229 261.868 225.185 218.779 260.994 229.343 218.948 
261.331 230.24 218.979 261.875 231.113 219.021 262.907 232.198 218.989 
286.888 236.605 219.024 272.43 239.288 219.211 279.82 246.732 218.97 
289.583 247.025 219.345 283.266 248.593 219.208 288.284 248.339 219.17 
289.013 247.744 219.56 284.295 248.73 219.66 272.219 221.677 218.65 
271.289 222.366 219.586 261.907 230.951 219.292 262.847 232.003 219.305 
285.026 234.793 219.577 287.924 238.115 219.325 277.537 244.155 219.9 
289.558 246.041 220.176 280.635 247.144 220.09 289.183 247.408 219.928 
287.676 248.377 219.83 285.232 248.68 219.953 274.085 223.196 219.039 
270.13 224.561 220.973 274.975 224.39 219.386 262.73 226.542 220.089 
268.131 226.225 221.443 265.277 227.347 221.185 264.03 232.17 220.11 
264.404 232.47 220.069 283.096 233.384 220.219 263.46 232.129 219.753 
265.056 233.301 219.771 266.705 234.422 219.79 268.121 235.119 220.072 
287.019 237.252 219.879 271.514 237.626 220.287 272.352 238.522 220.18 
289.497 241.579 219.84 276.393 242.369 220.714 289.546 242.611 220.247 
278.262 244.414 220.768 281.153 247.246 220.624 289.21 247.057 220.276 
288.283 247.657 220.542 283.21 248.222 220.426 284.248 248.357 220.476 
271.518 229.426 222.109 276.125 230.419 221.956 263.838 230.942 220.566 
262.997 231.309 220.026 275.108 232.178 222.414 274.068 233.081 222.452 
274.914 234.92 222.501 285.092 235.546 220.357 278.7 235.781 222.708 
284.239 236.074 221.351 283.32 236.78 222.109 286.693 237.42 220.437 
282.369 237.601 222.612 273.273 238.456 220.937 275.866 238.671 222.171 
288.744 240.884 220.747 275.391 240.808 221.071 277.33 243.251 220.833 
289.128 244.829 220.992 279.002 245.184 220.923 279.904 246.219 220.73 
288.704 246.527 221.067 281.194 247.092 220.92 288.965 247.121 220.542 
281.472 247.312 220.811 285.21 248.075 220.848 288.257 239.882 220.784 
288.37 241.016 221.168 276.925 242.075 221.379 277.105 242.689 221.127 
278.671 243.045 221.887 284.707 242.797 222.835 282.035 244.555 222.486 
284.56 244.43 222.67 288.127 244.911 221.758 285.973 245.805 222.199 
287.401 245.66 221.934 281.043 246.775 221.125 285.71 247.093 221.612 
279.578 242.434 233.912 287.884 241.91 234.405 278.198 242.946 234.739 
277.696 242.954 235.094 284.66 244.51 233.608 285.503 244.448 233.676 
280.069 245.465 234.934 280.47 246.145 235.121 286.06 245.863 234.085 
288.859 245.093 234.919 281.151 246.763 235.274 282.067 247.067 235.12 
286.183 247.387 234.82 288.012 246.764 234.915 288.952 246.433 235.262 
272.46 232.247 234.104 265.223 231.995 235.923 268.487 233.044 234.986 
267.359 233.729 235.724 283.885 234.803 235.48 270.691 236.685 235.668 
277.991 236.978 233.618 286.786 237.263 235.929 271.579 237.519 235.706 
271.871 237.317 235.413 285.453 238.072 234.57 287.966 239.12 235.614 
286.109 239.707 234.231 288.706 241.144 235.338 289.328 243.645 235.275 
279.306 245.43 235.67 280.466 246.529 235.7 289.495 246.968 235.89 
289.68 246.894 236.06 284.288 248.129 235.638 285.566 248.01 235.352 
289.618 247.111 236.104 268.906 225.813 235.244 274.379 226.724 235.586 
276.781 226.793 236.653 262.965 227.561 236.184 273.223 228.207 234.786 
263.98 228.947 235.72 272.044 229.006 234.493 261.426 229.116 237.291 
262.375 229.417 236.621 267.975 230.626 234.695 262.479 230.857 237.135 
266.646 234.251 236.558 286.192 236.297 236.221 287.065 237.402 236.11 
287.351 237.544 236.434 270.782 237.33 236.194 288.291 238.998 236.127 
288.352 238.892 236.394 271.729 238.169 236.232 289.828 244.115 236.137 
279.629 246.192 236.555 289.924 245.608 236.372 288.406 248.059 236.034 
285.534 248.656 236.411 286.2 248.571 236.258 286.929 248.426 236.098 
288.233 248.28 236.259 270.916 221.634 237.52 272.276 222.276 237.428 
267.031 223.143 236.535 264.623 224.216 236.479 261.679 226.681 237.341 
260.963 228.832 237.854 263.068 231.842 237.474 266.181 234.189 236.941 
270.903 238.015 237.028 288.793 239.594 236.789 283.678 248.649 237.186 
288.839 248.145 236.545 288.546 248.327 236.619 267.902 220.296 238.87 
269.842 220.688 238.223 261.709 225.239 237.923 260.729 227.53 238.256 
263.886 232.895 237.948 289.013 239.835 237.308 273.644 240.622 237.553 
289.992 246.943 237.142 287.968 248.616 237.168 264.881 221.339 239.043 
272.238 220.948 238.812 262.953 222.829 238.855 261.787 224.012 239.018 
288.722 239.062 238.09 289.818 241.904 237.739 289.976 247.143 237.648 
288.876 248.328 237.478 289.54 247.875 237.724 284.643 248.986 238.515 
287.852 248.697 237.777 269.039 219.568 239.841 270.539 219.786 239.719 
260.446 226.58 239.671 288.455 238.555 238.984 289.689 241.398 238.358 
289.894 247.177 238.809 289.731 247.673 238.039 289.171 248.143 238.335 
262.213 222.736 240.711 260.853 225.242 239.927 260.283 227.542 239.909 
262.44 232.351 240.557 273.513 241.166 240.463 289.794 247.114 239.376 
289.848 247.276 239.133 289.793 247.332 239.242 289.616 247.638 238.856 
266.039 219.718 241.519 262.124 222.635 241.539 261.142 224.27 240.633 
260.219 227.521 241.192 284.158 233.081 240.725 289.82 244.655 240.607 
279.181 246.215 240.658 289.53 247.182 239.843 289.619 247.458 239.35 
282.249 247.959 241.858 285.143 248.94 240.23 288.653 248.011 239.925 
287.542 248.524 239.795 260.242 227.749 241.739 273.95 241.651 242.009 
289.792 243.256 240.495 285.719 248.813 240.708 263.875 220.769 243.138 
260.491 225.71 242.742 272.231 240.306 243.331 272.799 240.74 242.891 
288.8 244.996 242.9 288.682 245.643 242.819 288.097 246.602 242.911 
282.94 247.952 243.215 284.657 248.326 242.325 273.215 220.502 244.23 
[...]
POINT_DATA 523
SCALARS scalars float
LOOKUP_TABLE default
1 1 1 1 1 1 1 1 1 
1 1 1 1 1 1 1 1 1 
1 1 1 1 1 1 1 1 1 
1 1 1 1 1 1 1 1 1 
1 1 1 1 1 1 1 1 1 
1 1 1 1 1 1 1 1 1 
1 1 1 1 1 1 1 1 1 
1 1 1 1 1 1 1 1 1 
1 1 1 1 1 1 1 1 1 
1 1 1 1 1 1 1 1 1 
1 1 1 1 1 1 1 1 1 
1 1 1 1 1 1 1 1 1 
1 1 1 1 1 1 1 1 1 
1 1 1 1 1 1 1 1 1 
1 1 1 1 1 1 1 1 1 
1 1 1 1 1 1 1 1 1 
1 1 1 1 1 1 1 1 1 
1 1 1 1 1 1 1 1 1 
1 1 1 1 1 1 1 1 1 
1 1 1 1 1 1 1 1 1 
1 1 1 1 1 1 1 1 1 
1 1 1 1 1 1 1 1 1 
1 1 1 1 1 1 1 1 1 
1 1 1 1 1 1 1 1 1 
1 1 1 1 1 1 1 1 1 
1 1 1 1 1 1 1 1 1 
1 1 1 1 1 1 1 1 1 
1 1 1 1 1 1 1 1 1 
1 1 1 1 1 1 1 1 1 
1 1 1 1 1 1 1 1 1 
1 1 1 1 1 1 1 1 1 
1 1 1 1 1 1 1 1 1 
1 1 1 1 1 1 1 1 1 
1 1 1 1 1 1 1 1 1 
1 1 1 1 1 1 1 1 1 
1 1 1 1 1 1 1 1 1 
1 1 1 1 1 1 1 1 1 
1 1 1 1 1 1 1 1 1 
1 1 1 1 1 1 1 1 1 
1 1 1 1 1 1 1 1 1 
1 1 1 1 1 1 1 1 1 
1 1 1 1 1 1 1 1 1 
1 1 1 1 1 1 1 1 1 
1 1 1 1 1 1 1 1 1 
1 1 1 1 1 1 1 1 1 
1 1 1 1 1 1 1 1 1 
1 1 1 1 1 1 1 1 1 
1 1 1 1 1 1 1 1 1 
1 1 1 1 1 1 1 1 1 
1 1 1 1 1 1 1 1 1 
1 1 1 1 1 1 1 1 1 
1 1 1 1 1 1 1 1 1 
1 1 1 1 1 1 1 1 1 
1 1 1 1 1 1 1 1 1 
1 1 1 1 1 1 1 1 1 
1 1 1 1 1 1 1 1 1 
1 1 1 1 1 1 1 1 1 
1 1 1 1 1 1 1 1 1 
1 
NORMALS Normals float
-0.106771 -0.368449 -0.923496 -0.225687 -0.51015 -0.829947 0.222872 -0.201514 -0.953793 
0.0949722 -0.598322 -0.795607 0.597671 0.0187453 -0.801522 -0.302467 -0.233613 -0.924088 
-0.526364 0.00449531 -0.850248 -0.192301 -0.109436 -0.975215 0.347161 -0.0740039 -0.934881 
-0.0459965 0.0558911 -0.997377 0.133096 -0.789951 -0.598551 0.267265 -0.556954 -0.786366 
-0.265703 -0.557066 -0.786816 0.62915 -0.431928 -0.646226 -0.261692 -0.500766 -0.825076 
-0.555224 -0.396902 -0.730887 0.5334 -0.169483 -0.82871 -0.725484 -0.0726265 -0.684396 
-0.601131 0.203331 -0.772851 0.180185 0.166855 -0.969377 -0.607735 0.362655 -0.706499 
0.378057 0.178932 -0.908326 -0.304357 0.305113 -0.902371 0.084834 0.25437 -0.963379 
-0.0557868 0.391844 -0.918339 -0.304099 -0.72739 -0.615165 0.259158 -0.822147 -0.506864 
-0.72758 -0.272301 -0.629666 -0.766552 0.12857 -0.62918 0.503234 -0.0817298 -0.860277 
-0.648735 0.242073 -0.721487 0.408503 0.119414 -0.904912 -0.186255 0.513646 -0.837542 
0.195952 0.432861 -0.879906 -0.325642 0.564765 -0.758286 -0.085101 -0.859785 -0.503516 
0.10702 -0.826798 -0.552225 0.594463 -0.571931 -0.56525 0.466756 -0.802134 -0.372452 
-0.471888 -0.701762 -0.533716 -0.811937 -0.299257 -0.501202 0.673836 0.0680181 -0.735744 
-0.615501 0.529094 -0.584139 0.169963 0.432279 -0.885577 0.193155 0.480076 -0.855697 
0.209151 -0.916008 -0.342323 -0.556412 -0.730545 -0.395865 -0.85556 0.233459 -0.462075 
-0.686147 0.44396 -0.576283 -0.511324 0.686667 -0.516756 -0.238857 0.689023 -0.684248 
-0.313717 -0.91725 -0.245427 0.646136 0.155266 -0.747262 0.391861 0.456274 -0.798911 
0.0771835 0.784729 -0.615014 -0.581226 -0.803953 -0.125841 -0.699377 0.613882 -0.366088 
-0.595756 0.734009 -0.326046 -0.731119 -0.675617 -0.0949035 0.767317 -0.585006 -0.262664 
-0.823831 -0.479741 -0.30191 0.840485 -0.331564 -0.428546 -0.0496312 -0.9805 -0.19015 
-0.960997 -0.141613 -0.23755 0.799144 0.00642357 -0.601106 -0.543568 0.800481 -0.252517 
-0.155161 0.916244 -0.369355 0.201627 -0.967267 -0.154079 0.900394 -0.199089 -0.386853 
0.749555 0.0785319 -0.657267 0.476779 -0.86985 -0.126656 -0.564153 -0.792858 -0.230452 
-0.20292 0.870308 -0.448762 0.61016 0.212989 -0.763112 -0.124585 -0.979495 -0.158328 
0.81954 -0.194306 -0.539073 -0.220154 0.929951 -0.29449 0.39396 0.501164 -0.770474 
-0.871226 0.450171 -0.195731 -0.0460193 0.762589 -0.645245 0.270647 -0.956719 -0.106955 
0.394667 -0.912206 -0.11008 -0.730477 -0.654643 -0.194543 -0.86992 -0.441521 -0.219771 
-0.60608 0.790322 -0.0897628 0.582714 0.416897 -0.697597 0.202073 0.686847 -0.698146 
-0.141092 0.830389 -0.539024 0.440442 0.515818 -0.734808 0.136046 -0.981596 -0.134016 
-0.565894 -0.812356 -0.140859 -0.2996 0.900211 -0.316005 -0.0653871 0.829412 -0.554797 
0.428163 0.598164 -0.677404 0.119506 0.769827 -0.626964 -0.266669 -0.954938 -0.130316 
0.814971 -0.554575 -0.168134 -0.923577 -0.271077 -0.271152 0.742215 0.06882 -0.666619 
-0.305919 0.866559 -0.394321 -0.0416577 -0.991725 -0.121431 -0.964687 0.155253 -0.212782 
0.825886 -0.242845 -0.50886 0.577349 0.553448 -0.600303 -0.63847 -0.752006 -0.163842 
-0.806548 -0.550918 -0.214403 0.778319 -0.627608 -0.0181007 0.281452 0.816998 -0.503288 
0.286151 0.850983 -0.440392 0.251555 -0.9677 0.016652 0.626012 -0.777282 -0.0627795 
-0.985408 -0.051548 -0.162214 -0.385626 0.894666 -0.225533 -0.0256991 0.9245 -0.380314 
-0.019207 -0.999793 -0.00669972 -0.352057 -0.935751 -0.0206308 -0.591987 -0.805719 0.0192074 
-0.407274 -0.907878 -0.0994208 -0.875295 -0.471297 -0.108345 0.82648 -0.561824 0.0358308 
0.81796 -0.503408 -0.278426 -0.771794 0.627594 -0.102277 -0.089894 -0.99437 0.0560976 
0.613326 -0.788864 0.0390502 -0.859879 0.496994 -0.116645 -0.706551 0.706509 0.0403718 
-0.979884 -0.150835 -0.130675 0.821345 0.261919 -0.506745 -0.0602439 0.93783 -0.341828 
-0.744227 -0.667883 -0.00770141 -0.919859 -0.389008 0.0503284 0.808676 -0.58687 0.0403306 
0.917318 -0.106584 -0.383624 0.89465 0.135189 -0.425824 -0.402269 0.896686 -0.184752 
-0.0562386 -0.987468 0.147459 0.329286 -0.94161 0.0702954 -0.49889 -0.863481 0.0742224 
0.777738 -0.623348 0.0810029 -0.989867 0.141489 -0.0120193 0.832182 -0.527466 -0.171036 
-0.609232 0.792682 0.0221675 -0.0188138 0.977293 -0.211054 0.476712 0.778168 -0.408901 
-0.379709 -0.895787 0.231055 0.491021 -0.856892 0.156955 -0.986464 -0.1481 0.0703961 
0.911268 0.250682 -0.326724 0.770227 0.523356 -0.364484 0.368933 -0.881983 0.293249 
0.785658 -0.609729 0.104749 0.798579 -0.592093 0.108157 -0.752726 0.656478 -0.0494019 
-0.441184 0.896644 -0.0372441 0.650338 0.751088 -0.113696 0.512866 0.851701 -0.107584 
-0.00565658 -0.955661 0.294414 -0.642097 -0.600597 0.476439 -0.889851 0.435714 0.135344 
0.973944 -0.209401 -0.0870866 0.996767 0.0801572 0.00553887 0.648426 0.760998 0.0206236 
-0.0362654 0.999171 0.0185119 0.36152 0.929901 0.0677221 0.206271 -0.928717 0.30812 
-0.37354 -0.87753 0.300681 -0.150337 -0.681284 0.716415 0.591294 -0.765473 0.253815 
-0.959947 -0.0782031 0.269047 -0.611296 0.743823 0.270267 0.742928 -0.648667 0.165192 
0.880716 -0.462655 0.101443 -0.67084 0.69671 0.254103 -0.686074 0.665913 0.293022 
-0.69295 0.707824 0.137134 0.848454 0.529125 -0.0123192 0.163853 -0.754986 0.63494 
0.57088 -0.659336 0.489257 -0.647749 -0.483837 0.588492 -0.690635 0.109653 0.714843 
-0.897393 0.369847 0.240621 -0.725541 0.605845 0.326406 -0.596727 0.782353 0.178439 
0.709539 -0.654496 0.261132 -0.673382 0.609324 0.418665 -0.498679 0.86629 -0.0293397 
0.93579 0.297968 0.188447 -0.277589 0.946876 0.162386 0.446302 0.884495 0.135953 
0.601733 0.72886 0.32662 -0.0931287 0.94335 0.318461 0.350217 -0.703787 0.618087 
0.232136 -0.587031 0.775569 -0.676299 0.405619 0.614893 -0.59878 0.634434 0.488832 
0.659977 -0.594762 0.459008 0.803284 -0.5265 0.278448 -0.720013 0.629516 0.292046 
0.91462 0.164876 0.369169 -0.407269 0.899142 0.160235 0.769275 0.519953 0.371301 
0.303885 0.869367 0.389684 0.163321 0.893044 0.419283 0.427186 -0.633884 0.644751 
0.0174823 -0.459393 0.888061 0.500296 -0.525443 0.688196 -0.500628 -0.283004 0.818095 
-0.153159 -0.239814 0.958661 -0.299349 -0.174274 0.938093 -0.39239 0.469441 0.790983 
-0.36625 0.640474 0.675022 0.500921 -0.597389 0.626262 -0.46967 0.621589 0.626927 
-0.416265 0.612037 0.672409 -0.488105 0.802529 0.343076 -0.491012 0.75509 0.43445 
0.660089 -0.590036 0.464908 -0.53067 0.574508 0.623161 -0.661339 0.591572 0.461165 
0.887803 -0.264748 0.37645 -0.623888 0.589661 0.512897 0.933749 -0.0791355 0.34907 
-0.631978 0.600235 0.490227 -0.511088 0.782586 0.355454 0.794389 0.310712 0.521923 
0.316846 0.671186 0.670163 -0.176226 0.642141 0.746056 -0.113684 0.868366 0.482717 
-0.0343055 -0.124042 0.991684 0.158779 -0.265749 0.950877 -0.288717 0.23109 0.929107 
-0.550705 0.415665 0.723842 0.0343724 -0.157289 0.986954 -0.227657 -0.0464969 0.972631 
-0.0332418 0.030647 0.998977 0.664204 -0.55185 0.504276 0.187444 -0.194328 0.962861 
0.508659 -0.333482 0.793761 0.478215 -0.129971 0.868572 0.620536 -0.560118 0.548819 
0.256896 -0.0698067 0.963915 -0.492593 0.492936 0.717193 -0.333246 0.311712 0.889822 
0.772519 -0.222474 0.594743 -0.597007 0.541997 0.591457 -0.559903 0.559037 0.611544 
0.680509 0.0487519 0.731116 -0.608047 0.56214 0.560605 -0.590743 0.641266 0.489694 
0.502116 0.326446 0.80082 -0.446936 0.68093 0.580157 0.548219 0.520896 0.654312 
-0.259826 0.883061 0.390761 0.0674667 0.761597 0.644529 0.72394 -0.419035 0.548015 
0.597581 -0.179049 0.781561 -0.268077 0.262138 0.927048 -0.379708 0.605645 0.699297 
-0.404688 0.311763 0.85967 0.217291 -0.0558244 0.974509 -0.106507 0.228368 0.967731 
-0.0137395 0.301549 0.953352 0.496143 -0.0102829 0.86818 0.0388313 0.310111 0.949907 
0.315804 0.342572 0.884823 -0.421455 0.586997 0.691238 0.135845 0.573421 0.80792 
-0.330704 0.184222 -0.925579 0.415712 -0.127149 -0.900565 -0.544389 0.29155 -0.786536 
-0.551905 0.327021 -0.76711 -0.000477078 0.0799411 -0.996799 0.0221632 0.175187 -0.984286 
-0.460168 0.509125 -0.727349 -0.492284 0.567815 -0.659729 0.155909 0.247916 -0.956154 
0.591097 0.0997302 -0.800411 -0.338697 0.803797 -0.489075 -0.272343 0.668987 -0.691582 
0.0231855 0.600589 -0.799222 0.392144 0.407549 -0.824698 0.618359 0.197542 -0.760664 
-0.034264 0.0572533 -0.997772 -0.433452 0.328055 -0.839345 -0.0595168 0.613429 -0.787504 
-0.376834 0.511617 -0.772168 0.624879 -0.674722 -0.392781 -0.593833 0.36572 -0.716667 
-0.179416 0.0721282 -0.981126 0.590492 -0.568781 -0.572545 -0.636898 0.581773 -0.505867 
-0.414833 0.474021 -0.776671 0.276429 -0.325011 -0.904409 0.688393 -0.25188 -0.680199 
0.379278 -0.299607 -0.875433 0.834976 -0.302487 -0.459692 0.755396 -0.0809614 -0.650248 
-0.663604 0.631504 -0.401038 -0.591265 0.74688 -0.304264 0.593462 0.340991 -0.729059 
0.877441 0.190236 -0.440349 -0.132062 0.832995 -0.537288 0.0117656 0.77365 -0.633504 
0.825511 0.466216 -0.318078 -0.053761 -0.304174 -0.951098 0.265262 -0.460986 -0.846834 
0.424553 -0.450978 -0.785094 -0.436252 -0.170377 -0.883547 0.158313 -0.296633 -0.941778 
-0.354306 0.146743 -0.923544 -0.0167603 -0.297229 -0.954659 -0.707433 0.15089 -0.690486 
-0.549322 0.120046 -0.826943 -0.257125 0.088648 -0.962304 -0.611082 0.444362 -0.655074 
-0.298788 0.603681 -0.739118 0.635698 -0.678415 -0.368296 0.611631 -0.593177 -0.523496 
0.721761 -0.63713 -0.270421 -0.702652 0.481828 -0.523566 0.849145 -0.354043 -0.391925 
0.881811 -0.397903 -0.253145 -0.730064 0.578834 -0.363261 0.942563 -0.0710716 -0.326381 
-0.540995 0.82304 -0.173002 0.933983 0.0408295 -0.354977 0.380006 0.647773 -0.660291 
-0.0484833 0.931704 -0.359967 0.0900127 0.916228 -0.390414 0.0993185 0.916761 -0.386891 
0.249096 0.824161 -0.508635 0.142316 -0.608434 -0.780739 0.32627 -0.545643 -0.771895 
-0.133211 -0.563066 -0.815605 -0.388979 -0.472959 -0.790573 -0.71081 -0.181343 -0.679605 
-0.90538 0.369141 -0.209815 -0.625827 0.588455 -0.511919 -0.591319 0.578093 -0.562272 
-0.62899 0.695439 -0.34747 0.89469 -0.0751257 -0.440324 -0.377776 0.917496 -0.124443 
0.531512 0.745244 -0.402625 0.323364 0.918982 -0.225628 -0.149215 -0.795107 -0.587827 
0.00709988 -0.67069 -0.741704 -0.711374 -0.375417 -0.594146 -0.895108 -0.131038 -0.426157 
-0.649861 0.742899 -0.160565 0.962698 -0.154245 -0.222309 -0.584734 0.71772 -0.378106 
0.963692 0.215139 -0.158155 0.279524 0.952803 -0.118457 -0.38371 -0.724252 -0.572911 
0.558787 -0.704324 -0.437819 -0.581166 -0.724282 -0.371027 -0.726003 -0.531432 -0.436463 
0.90899 -0.405593 -0.0960772 0.982375 -0.168114 -0.0817129 0.977175 0.208439 -0.0410043 
0.438518 0.89867 -0.00973262 0.671465 0.73739 -0.0734231 -0.0299528 0.995011 -0.0951651 
0.242303 0.970071 0.0158358 -0.0500954 -0.94194 -0.332024 0.222761 -0.914963 -0.336483 
-0.926555 -0.26972 -0.262198 0.854819 -0.508781 0.102108 0.943774 -0.328455 -0.0375206 
0.9339 0.351279 0.066581 0.808077 0.587373 0.0447731 0.547654 0.821208 0.160293 
-0.729682 -0.670987 -0.131683 -0.942378 -0.320352 -0.096427 -0.997557 -0.0123685 -0.0687522 
-0.750369 0.655486 -0.085355 -0.698633 0.708296 -0.101138 0.899554 0.224391 0.374768 
0.917528 0.378073 0.123299 0.780576 0.581469 0.229333 0.562357 0.791021 0.240915 
-0.354671 -0.914406 -0.195118 -0.70716 -0.703889 -0.0668149 -0.837592 -0.526508 -0.145705 
-0.9994 0.034563 0.00218837 0.798331 -0.573991 0.18221 0.972002 0.0689881 0.224615 
-0.60797 0.789229 0.0865422 0.694362 0.567282 0.442778 0.473934 0.72417 0.500964 
-0.306631 0.937836 0.162609 -0.180431 0.97271 0.14588 0.485871 0.820152 0.302125 
0.349368 0.881729 0.317012 -0.994362 0.0905801 0.0551267 -0.662875 0.721706 -0.199343 
0.961403 -0.150528 0.230318 0.111359 0.974513 0.194741 -0.595909 -0.791329 -0.136716 
-0.947938 -0.311071 0.0681848 0.23649 0.521766 0.819654 -0.624611 0.780265 -0.0323659 
0.866944 0.154932 0.473714 0.750101 0.293826 0.592465 0.622841 0.592535 0.510854 
-0.32366 0.894687 0.307861 0.0597551 0.938717 0.339471 0.618956 -0.781639 -0.0770347 
-0.635559 0.766896 -0.0890794 0.964385 -0.119771 0.235832 0.947119 0.107215 0.302442 
0.962334 0.150591 0.226351 -0.344147 0.897364 0.276226 -0.095813 -0.994406 -0.0444484 
0.256913 -0.966434 -0.000942452 0.715878 -0.433684 0.547208 0.315299 0.842047 0.437656 
0.419589 0.780331 0.463712 -0.707954 0.706037 0.0177054 0.759219 0.355254 0.545327 
0.0239827 0.913119 0.406986 -0.291867 -0.956278 0.0185845 -0.640086 -0.76598 0.0597057 
-0.714842 0.697774 -0.0459623 0.749379 0.0634917 0.659091 0.578013 0.643011 0.502432 
0.449461 0.794202 0.408936 0.0919292 0.896591 0.433213 -0.538249 -0.835001 0.114288 
-0.686562 -0.725548 0.0470389 -0.307821 0.887904 0.341866 0.10182 -0.994678 0.0157561 
-0.205252 -0.974485 0.090834 -0.360914 -0.916023 0.175053 -0.881796 -0.457264 0.115519 
0.540441 0.597861 0.592019 -0.794374 -0.581596 0.175259 0.81546 -0.576527 0.051386 
-0.921168 0.3263 0.212079 -0.288965 0.876929 0.38405 0.188646 -0.980836 0.0487162 
-0.642026 -0.739768 0.20136 -0.958295 -0.193013 0.210751 0.874308 0.00227491 0.485366 
0.0397703 0.846469 0.530951 -0.252131 -0.943465 0.215183 -0.885963 -0.39357 0.245299 
-0.954864 0.0185528 0.296465 -0.823319 0.548321 0.14659 -0.377556 0.904553 0.19808 
0.72064 0.256338 0.644181 0.2264 0.709702 0.667133 0.8417 -0.173638 0.511264 
0.725554 0.00678627 0.688132 0.744239 0.202607 0.636442 -0.107717 0.819662 0.562629 
-0.443909 0.856661 0.262825 0.55844 0.314433 0.767644 -0.125124 0.879129 0.459866 
0.433508 0.557217 0.708223 -0.069049 -0.983389 0.167867 0.43676 -0.892959 0.108924 
0.590322 -0.785756 0.184683 0.817549 -0.549575 0.171991 0.6224 0.158547 0.766473 
0.214281 0.570697 0.79271 -0.0459207 0.849133 0.52618 -0.527931 -0.8114 0.250836 
0.858985 -0.280797 0.428134 -0.5725 0.798483 0.186194 -0.11607 0.774487 0.621851 
-0.796763 0.58227 0.161648 0.344607 0.474957 0.80973 0.0871582 -0.970436 0.225071 
0.268213 -0.922316 0.2782 0.810917 -0.39382 0.432803 0.166343 0.588787 0.790987 
-0.866677 -0.376431 0.32737 -0.901936 0.375477 0.213374 -0.734576 0.542236 0.407895 
-0.477627 0.775013 0.413797 -0.170509 0.808984 0.562558 -0.139656 -0.919585 0.367233 
-0.638596 -0.600839 0.48082 -0.961613 0.105818 0.253185 0.613639 0.263145 0.744447 
-0.388787 0.740705 0.547906 -0.379153 -0.773444 0.507964 -0.528455 0.657176 0.537453 
-0.146198 0.688475 0.710372 0.045047 -0.881553 0.469931 0.498488 -0.780784 0.376678 
-0.839651 0.210297 0.500762 0.698653 0.0983192 0.708673 -0.0962153 -0.796658 0.596723 
-0.483489 -0.664609 0.569678 0.450066 -0.682029 0.576435 0.614117 -0.431661 0.660703 
-0.56938 0.15111 0.808067 0.634968 -0.05337 0.770693 -0.624374 0.446626 0.640845 
0.161384 0.570236 0.805473 -0.267799 -0.644951 0.715767 0.111146 -0.725983 0.678672 
-0.306589 -0.469646 0.827911 -0.54453 -0.411112 0.731077 -0.76722 -0.18772 0.613298 
0.571923 -0.182367 0.799779 -0.726299 -0.179806 0.663445 0.305633 0.110981 0.94566 
0.36356 0.446228 0.817744 -0.421576 0.352924 0.835295 -0.310454 0.432933 0.846278 
-0.27443 -0.240203 0.931123 -0.491047 -0.181104 0.852099 0.242314 -0.0213522 0.969963 
-0.319026 0.393022 0.862413 0.0271412 0.298941 0.953886 0.131148 0.461722 0.877276 
0.151403 -0.44699 0.881633 -0.135447 0.147945 0.979677 0.304785 0.72576 0.616748 
-0.62711 0.0363924 -0.77808 
