# vtk DataFile Version 4.2
vtk output
ASCII
DATASET POLYDATA
POINTS 1040 float
474.466 197.765 193.671 474.079 197.776 193.698 474.892 197.691 193.698 
475.208 197.55 193.804 473.689 198.052 193.643 473.504 198.027 193.715 
473.495 198.171 193.702 474.033 197.979 193.626 475.219 197.766 193.744 
476.014 197.175 194.147 472.741 198.105 194.122 475.404 197.29 194.016 
472.586 198.215 194.111 473.205 198.161 193.838 475.682 197.957 193.881 
476.602 197.759 194.147 472.584 198.419 194.036 472.433 198.479 194.109 
473.43 198.416 193.824 476.163 198.185 194.06 472.564 198.606 194.122 
473.425 198.688 193.992 473.652 198.846 194.135 474.425 198.726 194.028 
476.374 196.838 194.449 476.188 196.853 194.443 476.57 196.857 194.505 
474.335 197.227 194.397 473.952 197.336 194.472 477.258 197.28 194.572 
473.056 197.773 194.669 477.849 197.488 194.767 472.124 198.521 194.402 
477.162 198.126 194.425 472.281 198.533 194.24 472.099 198.666 194.427 
472.287 198.71 194.302 477.192 198.638 194.654 473.104 199.007 194.464 
474.177 199.228 194.719 474.979 199.199 194.683 472.616 198.084 195.058 
478.826 197.324 195.275 472.025 198.59 194.567 478.265 197.788 194.934 
478.709 197.63 195.164 472.007 198.693 194.556 477.64 198.478 194.76 
472.187 198.789 194.452 472.081 198.787 194.597 472.328 198.906 194.617 
472.651 199.036 194.76 476.419 199.377 195.19 477.246 199.3 195.356 
475.199 199.621 195.522 479.088 196.247 196.119 472.412 198.235 195.073 
479.979 197.074 195.976 479.87 197.458 195.846 472.013 198.602 194.747 
478.816 197.994 195.272 472.033 198.673 194.86 471.997 198.709 194.695 
472.062 198.811 194.767 472.191 198.885 194.771 472.205 198.871 194.971 
473.436 199.311 195.664 476.227 199.613 195.561 474.078 199.506 195.789 
475.235 199.732 196.028 480.985 195.15 197.814 481.824 195.616 197.628 
476.868 196.052 197.015 482.094 196.376 197.349 472.807 198.129 195.631 
473.539 197.745 196.128 474.549 197.128 196.597 472.259 198.476 195.184 
472.722 198.302 195.703 472.053 198.766 194.865 472.179 198.733 195.084 
472.325 198.871 195.22 479.488 198.984 196.149 472.439 198.968 195.196 
472.835 199.093 195.451 476.682 199.908 196.636 481.24 194.838 198.149 
481.187 194.781 198.195 481.029 194.873 198.105 480.577 194.963 198.128 
481.695 194.761 198.463 476.349 196.239 197.068 479.034 195.443 197.536 
474.898 197.139 197.286 473.399 197.968 196.324 472.629 198.571 195.717 
473.026 198.406 196.178 472.767 198.792 195.872 472.539 198.948 195.415 
473.159 198.92 196.285 473.578 199.145 196.653 482.223 199.284 197.906 
473.902 199.339 196.69 475.863 199.86 197.18 481.175 194.759 198.336 
485.51 196.543 198.802 473.366 198.383 196.634 473.675 198.213 196.928 
473.572 198.945 196.848 473.779 199.13 197.003 502.024 200.723 200.704 
502.403 200.77 200.857 475.05 199.571 197.544 499.321 201.174 200.63 
500.567 201.311 200.641 499.62 201.429 200.773 482.532 193.938 199.957 
486.339 197.483 199.009 487.127 197.978 199.267 488.39 197.601 199.585 
501.49 199.919 200.626 501.349 199.948 200.612 486.952 199.237 199.605 
487.878 199.121 199.748 488.828 198.499 199.723 497.805 199.998 200.58 
501.23 200.159 200.593 501.038 199.796 200.688 501.585 200.296 200.633 
498.475 200.456 200.582 501.263 200.675 200.616 502.809 200.691 200.988 
502.686 200.356 201.002 476.533 199.805 198.51 480.309 200.196 198.748 
502.972 200.943 201.089 496.441 201.46 201.26 496.529 201.142 200.985 
497.989 201.508 201.134 500.213 201.762 200.993 496.848 201.449 201.152 
483.964 193.764 200.591 484.37 193.811 200.562 484.892 193.848 200.686 
483.016 193.784 200.909 486.264 194.942 199.849 478.068 195.693 199.452 
489.421 197.023 200.004 498.464 198.924 200.853 499.693 198.72 201.055 
496.03 198.618 200.693 501.708 199.503 200.98 475.46 199.276 198.6 
503.563 200.398 201.369 478.184 200.008 199.419 480.109 200.243 199.571 
489.996 200.487 200.926 504.418 201.44 201.778 489.155 200.77 201.397 
497.272 201.614 201.284 498.691 201.953 201.523 503.158 201.71 201.495 
504.946 201.801 202.101 500.011 202.294 201.765 501.395 202.216 201.622 
481.689 194.233 201.305 488.31 194.324 201.241 491.937 196.092 201.106 
476.077 197.777 199.599 476.321 198.025 199.983 497.734 197.703 201.414 
501.97 198.492 201.713 476.36 198.363 200.051 475.544 198.874 199.07 
507.215 200.919 202.924 479.012 199.999 200.257 485.298 200.627 201.658 
507.679 201.736 203.079 490.668 201.083 201.845 495.744 201.831 202.219 
503.524 202.182 201.963 508.705 202.297 203.554 500.573 202.551 202.216 
505.327 202.824 202.955 508.014 202.616 203.377 507.404 203.022 203.498 
480.294 195.128 201.909 477.049 197.704 200.688 477.948 197.085 201.314 
478.334 196.509 201.293 480.724 200.13 201.081 489.563 201.156 202.313 
509.61 202.337 204.049 502.144 202.853 202.859 505.754 203.447 203.848 
510.217 203.083 204.536 485.537 193.229 203.052 484.471 193.472 203.339 
480.906 194.972 202.555 493.293 194.453 203.098 479.892 195.731 202.475 
497.484 195.483 203.462 477.309 198.621 200.969 477.756 198.18 201.514 
508.474 200.263 204.029 510.446 201.865 204.72 502.837 203.296 203.869 
510.654 202.933 204.791 509.676 203.788 204.828 510.21 203.658 204.883 
511.01 203.565 205.226 510.679 203.915 205.331 491.031 193.266 203.999 
481.331 195.101 203.439 479.396 196.324 202.438 500.997 195.943 204.356 
479.72 196.607 202.959 478.721 198.318 202.276 478.877 198.906 202.058 
507.989 199.194 204.542 480.709 199.322 202.794 486.698 200.632 204.459 
488.055 200.962 204.293 511.281 202.788 205.229 512.131 202.613 205.943 
504.775 203.71 204.523 511.74 203.213 205.656 512.322 203.07 206.109 
488.913 193.057 204.73 493.848 193.434 205.199 479.215 197.585 202.776 
506.529 197.865 204.987 479.863 198.469 203.05 480.817 198.517 203.659 
510.47 200.485 205.61 488.541 200.872 205.648 499.345 203.105 204.8 
513.185 203.417 206.931 507.635 204.462 205.728 512.601 203.917 206.629 
483.988 194.386 205.574 484.589 194.193 205.748 505.486 196.796 206.03 
480.094 197.465 203.539 480.6 197.657 203.903 509.638 199.007 206.563 
511.5 204.828 206.943 512.018 204.67 206.986 488.81 193.173 206.201 
483.099 195.436 205.686 481.908 196.283 204.929 509.083 198.433 206.937 
484.033 198.48 206.111 495.633 202.541 207.104 510.061 205.234 207.495 
487.696 193.443 206.58 491.626 193.267 207.11 494.566 193.388 207.338 
486.966 193.877 207.02 503.363 195.575 207.021 483.488 196.226 206.327 
483.56 197.12 206.408 483.882 197.304 206.627 484.009 197.668 206.581 
487.368 199.42 208.075 515.057 203.647 208.873 488.143 193.846 207.582 
495.091 193.681 208.669 486.684 194.746 207.879 484.003 195.976 206.713 
485.532 195.184 207.529 503.476 195.496 209.431 484.517 196.204 207.16 
484.995 195.9 207.461 485.404 196.897 207.828 516.069 203.634 209.924 
517.788 204.232 211.121 517.779 204.161 211.143 517.623 204.17 211.017 
516.275 204.819 209.988 516.872 204.811 210.461 516.926 206.01 210.92 
489.62 199.792 209.644 515.488 202.54 209.978 518.713 204.601 211.899 
518.809 205.184 211.837 517.728 205.678 211.219 519.608 205.762 212.375 
517.004 206.675 211.428 492.943 194.472 209.996 489.282 196.268 210.267 
489.263 199.126 210.237 515.069 201.437 210.951 518.351 203.664 212.195 
519.729 206.364 212.552 519.204 206.904 212.534 492.129 195.471 210.993 
489.989 196.067 210.561 488.259 198.037 210.006 490.422 199.197 211.015 
514.412 200.514 212.092 519.726 204.456 213.099 520.095 205.283 212.916 
517.84 207.758 212.904 520.948 207.702 214.03 492.046 196.533 211.801 
490.016 197.231 211.064 490.964 196.838 211.467 488.891 197.861 210.462 
513.711 199.928 212.651 513.715 199.901 212.818 490.114 198.781 211.078 
490.609 198.834 211.374 499.268 203.322 213.431 520.985 205.661 213.753 
521.985 206.356 214.647 521.519 207 214.165 517.598 208.074 213.37 
518.841 208.499 214.082 520.539 208.302 214.276 491.091 197.375 211.706 
492.414 197.394 212.364 504.922 196.93 213.304 490.379 198.148 211.378 
510.767 198.706 213.964 490.355 198.541 211.319 491.716 198.357 212.183 
513.655 199.876 213.011 518.198 202.528 213.993 502.162 204.4 213.404 
521.664 205.589 214.667 503.805 197.213 214.092 510.562 198.747 214.575 
509.693 198.629 215.051 493.795 199.676 213.214 513.715 199.983 214.899 
494.247 199.923 213.457 494.578 200.234 213.565 495.501 200.971 213.712 
498.707 202.818 214.359 500.016 203.418 214.755 507.567 206.06 215.152 
523.658 208.695 216.318 524.235 208.534 216.728 502.967 198.334 215.691 
495.724 198.819 214.263 507.27 198.554 215.827 508.936 198.762 215.828 
494.827 200.315 213.708 517.044 201.537 216.071 496.345 200.859 214.512 
497.513 201.756 214.79 500.13 203.269 215.478 521.473 204.613 215.847 
524.372 207.366 217.059 524.913 208.182 217.369 524.751 209.392 217.424 
524.915 210.061 218.025 513.493 200.153 216.885 495.828 200.373 214.351 
499.166 200.532 216.276 497.69 201.437 215.466 524.831 207.643 217.558 
516.001 208.994 216.592 525.368 208.661 218.228 523.392 210.334 217.218 
525.222 210.226 218.581 509.458 199.777 217.677 499.026 201.036 216.309 
516.985 201.637 217.7 499.216 202.319 216.067 499.609 202.271 216.452 
524.329 206.678 217.922 519.11 210.498 218.058 525.667 209.79 219.299 
523.345 212.372 219.485 523.578 211.954 218.972 524.024 212.515 219.689 
524.094 212.235 219.402 525.012 211.919 219.767 500.036 201.306 216.891 
501.465 200.852 217.341 504.046 200.784 218.066 499.473 201.844 216.533 
525.322 207.93 218.896 514.889 208.873 218.474 508.353 201.028 219.111 
502.183 202.373 218.099 501.459 202.797 217.687 501.866 203.214 217.67 
502.218 203.192 217.931 502.935 203.677 217.991 523.171 205.499 219.621 
524.881 207.104 219.629 513.926 208.489 219.401 525.878 209.684 220.316 
522.61 212.447 219.793 525.844 211.503 221.048 522.102 212.481 220.417 
525.408 212.727 221.136 524.974 213.364 221.511 525.177 213.187 221.418 
525.155 213.375 221.811 509.994 201.258 219.523 505.489 202.212 219.205 
[...]
POINT_DATA 1040
SCALARS scalars float
LOOKUP_TABLE default
1 1 1 1 1 1 1 1 1 
1 1 1 1 1 1 1 1 1 
1 1 1 1 1 1 1 1 1 
1 1 1 1 1 1 1 1 1 
1 1 1 1 1 1 1 1 1 
1 1 1 1 1 1 1 1 1 
1 1 1 1 1 1 1 1 1 
1 1 1 1 1 1 1 1 1 
1 1 1 1 1 1 1 1 1 
1 1 1 1 1 1 1 1 1 
1 1 1 1 1 1 1 1 1 
1 1 1 1 1 1 1 1 1 
1 1 1 1 1 1 1 1 1 
1 1 1 1 1 1 1 1 1 
1 1 1 1 1 1 1 1 1 
1 1 1 1 1 1 1 1 1 
1 1 1 1 1 1 1 1 1 
1 1 1 1 1 1 1 1 1 
1 1 1 1 1 1 1 1 1 
1 1 1 1 1 1 1 1 1 
1 1 1 1 1 1 1 1 1 
1 1 1 1 1 1 1 1 1 
1 1 1 1 1 1 1 1 1 
1 1 1 1 1 1 1 1 1 
1 1 1 1 1 1 1 1 1 
1 1 1 1 1 1 1 1 1 
1 1 1 1 1 1 1 1 1 
1 1 1 1 1 1 1 1 1 
1 1 1 1 1 1 1 1 1 
1 1 1 1 1 1 1 1 1 
1 1 1 1 1 1 1 1 1 
1 1 1 1 1 1 1 1 1 
1 1 1 1 1 1 1 1 1 
1 1 1 1 1 1 1 1 1 
1 1 1 1 1 1 1 1 1 
1 1 1 1 1 1 1 1 1 
1 1 1 1 1 1 1 1 1 
1 1 1 1 1 1 1 1 1 
1 1 1 1 1 1 1 1 1 
1 1 1 1 1 1 1 1 1 
1 1 1 1 1 1 1 1 1 
1 1 1 1 1 1 1 1 1 
1 1 1 1 1 1 1 1 1 
1 1 1 1 1 1 1 1 1 
1 1 1 1 1 1 1 1 1 
1 1 1 1 1 1 1 1 1 
1 1 1 1 1 1 1 1 1 
1 1 1 1 1 1 1 1 1 
1 1 1 1 1 1 1 1 1 
1 1 1 1 1 1 1 1 1 
1 1 1 1 1 1 1 1 1 
1 1 1 1 1 1 1 1 1 
1 1 1 1 1 1 1 1 1 
1 1 1 1 1 1 1 1 1 
1 1 1 1 1 1 1 1 1 
1 1 1 1 1 1 1 1 1 
1 1 1 1 1 1 1 1 1 
1 1 1 1 1 1 1 1 1 
1 1 1 1 1 1 1 1 1 
1 1 1 1 1 1 1 1 1 
1 1 1 1 1 1 1 1 1 
1 1 1 1 1 1 1 1 1 
1 1 1 1 1 1 1 1 1 
1 1 1 1 1 1 1 1 1 
1 1 1 1 1 1 1 1 1 
1 1 1 1 1 1 1 1 1 
1 1 1 1 1 1 1 1 1 
1 1 1 1 1 1 1 1 1 
1 1 1 1 1 1 1 1 1 
1 1 1 1 1 1 1 1 1 
1 1 1 1 1 1 1 1 1 
1 1 1 1 1 1 1 1 1 
1 1 1 1 1 1 1 1 1 
1 1 1 1 1 1 1 1 1 
1 1 1 1 1 1 1 1 1 
1 1 1 1 1 1 1 1 1 
1 1 1 1 1 1 1 1 1 
1 1 1 1 1 1 1 1 1 
1 1 1 1 1 1 1 1 1 
1 1 1 1 1 1 1 1 1 
1 1 1 1 1 1 1 1 1 
1 1 1 1 1 1 1 1 1 
1 1 1 1 1 1 1 1 1 
1 1 1 1 1 1 1 1 1 
1 1 1 1 1 1 1 1 1 
1 1 1 1 1 1 1 1 1 
1 1 1 1 1 1 1 1 1 
1 1 1 1 1 1 1 1 1 
1 1 1 1 1 1 1 1 1 
1 1 1 1 1 1 1 1 1 
1 1 1 1 1 1 1 1 1 
1 1 1 1 1 1 1 1 1 
1 1 1 1 1 1 1 1 1 
1 1 1 1 1 1 1 1 1 
1 1 1 1 1 1 1 1 1 
1 1 1 1 1 1 1 1 1 
1 1 1 1 1 1 1 1 1 
1 1 1 1 1 1 1 1 1 
1 1 1 1 1 1 1 1 1 
1 1 1 1 1 1 1 1 1 
1 1 1 1 1 1 1 1 1 
1 1 1 1 1 1 1 1 1 
1 1 1 1 1 1 1 1 1 
1 1 1 1 1 1 1 1 1 
1 1 1 1 1 1 1 1 1 
1 1 1 1 1 1 1 1 1 
1 1 1 1 1 1 1 1 1 
1 1 1 1 1 1 1 1 1 
1 1 1 1 1 1 1 1 1 
1 1 1 1 1 1 1 1 1 
1 1 1 1 1 1 1 1 1 
1 1 1 1 1 1 1 1 1 
1 1 1 1 1 1 1 1 1 
1 1 1 1 1 1 1 1 1 
1 1 1 1 1 1 1 1 1 
1 1 1 1 1 
NORMALS Normals float
-0.0849671 -0.542955 -0.835452 -0.212953 -0.651576 -0.72808 0.0496446 -0.379102 -0.924022 
0.246512 -0.407845 -0.879144 -0.137358 0.0386906 -0.989765 -0.352815 -0.476434 -0.805315 
-0.310821 0.142964 -0.939655 0.0354507 0.177637 -0.983457 0.257021 -0.0637781 -0.964299 
0.169616 -0.482981 -0.859046 -0.512248 -0.733253 -0.44715 0.122651 -0.538674 -0.833539 
-0.563889 -0.584047 -0.583882 -0.407854 -0.146949 -0.901144 0.25191 0.0451982 -0.966694 
0.32038 -0.144071 -0.936269 -0.322557 0.147878 -0.934927 -0.5647 -0.0109486 -0.825224 
-0.119289 0.41716 -0.90097 0.225521 0.480167 -0.847691 -0.25079 0.57928 -0.775589 
-0.0913005 0.627144 -0.773534 -0.0557309 0.780813 -0.622274 0.0775038 0.661311 -0.746097 
0.0780207 -0.887019 -0.455093 -0.146834 -0.926858 -0.345505 0.218688 -0.767713 -0.602323 
-0.210106 -0.953711 -0.215153 0.160647 -0.111996 0.980637 0.407405 -0.303144 -0.861467 
-0.468532 -0.8635 0.186669 0.416103 -0.250903 -0.874017 -0.745728 -0.548069 -0.378826 
0.406334 0.134946 -0.903705 -0.597251 0.180641 -0.781448 -0.724085 0.273078 -0.633348 
-0.405816 0.550945 -0.729227 0.293116 0.541776 -0.787757 -0.12819 0.910784 -0.392478 
-0.0730329 0.898614 -0.432619 -0.0714803 0.86677 -0.493559 -0.612561 -0.773684 0.161809 
0.484243 -0.222037 -0.846291 -0.917067 -0.315073 -0.244372 0.429934 0.115103 -0.895493 
0.539834 -0.017664 -0.841586 -0.893617 0.269296 -0.359067 0.421661 0.366621 -0.829332 
-0.289775 0.802355 -0.521782 -0.590993 0.751096 -0.294249 -0.30828 0.923429 -0.228566 
-0.203193 0.956047 -0.211392 0.162588 0.822568 -0.544929 0.223605 0.795193 -0.563621 
-0.204556 0.912806 -0.35347 0.256841 -0.605713 -0.753089 -0.641 -0.73106 0.233818 
0.367409 -0.352297 -0.860754 0.444181 -0.0599469 -0.893929 -0.858043 -0.494643 0.138169 
0.522983 0.190606 -0.830758 -0.919829 -0.0200815 0.391805 -0.971639 0.234648 0.0293086 
-0.686405 0.726571 0.0307113 -0.418867 0.906154 -0.058609 -0.636517 0.720688 0.274691 
-0.398356 0.91223 0.0956514 0.0505003 0.953433 -0.297347 -0.19323 0.967758 -0.161575 
-0.247622 0.962374 -0.111893 0.126584 -0.667186 -0.734056 0.257811 -0.596827 -0.759823 
-0.238486 -0.969356 0.0589388 0.3222 -0.301914 -0.897237 -0.634401 -0.682999 0.362004 
-0.588997 -0.774708 0.230021 -0.5621 -0.810212 0.16613 -0.761358 -0.391711 0.516621 
-0.739349 -0.478402 0.473808 -0.839843 0.422259 0.341118 -0.798116 0.200416 0.568193 
-0.707953 0.526056 0.471241 0.370287 0.600874 -0.708405 -0.431962 0.892056 0.132839 
-0.361744 0.924221 0.1223 0.0366344 0.986066 -0.16227 0.208932 -0.658023 -0.723431 
-0.0115114 -0.888577 -0.458584 -0.153012 -0.820777 -0.550375 -0.213082 -0.916154 -0.339498 
0.277872 -0.76362 -0.582813 -0.366692 -0.926984 0.0789833 -0.13119 -0.938562 -0.319204 
-0.614118 -0.590917 0.52314 -0.693315 -0.575319 0.433961 -0.805012 -0.0199544 0.592923 
-0.772968 -0.303446 0.557173 -0.731303 0.363515 0.577108 -0.673727 0.513239 0.531675 
-0.709835 0.529156 0.464896 -0.646416 0.678302 0.349361 0.15708 0.84381 -0.513139 
-0.447329 0.856072 0.258917 -0.181414 0.981424 0.0624224 -0.189428 -0.950624 -0.245829 
0.314836 -0.142751 -0.93835 -0.737928 -0.147946 0.658464 -0.687334 -0.444435 0.574499 
-0.736857 0.240257 0.631917 -0.689431 0.325509 0.647093 0.24884 0.156647 -0.955793 
0.315395 0.146082 -0.937649 -0.420942 0.866173 0.269356 -0.0854902 0.129801 -0.987848 
0.0755318 0.489296 -0.868841 -0.243813 0.713267 -0.65712 -0.0396599 -0.940946 -0.336225 
0.21879 0.0143012 -0.975667 0.219801 0.01613 -0.975411 0.202771 0.00700139 -0.979201 
0.217827 -0.281122 -0.934624 -0.0213783 -0.225416 -0.974028 0.279572 0.312331 -0.907904 
0.113708 0.428934 -0.896151 0.135537 0.15091 -0.979212 0.0309919 0.00256096 -0.999516 
-0.0823222 -0.0232564 -0.996334 -0.0644049 -0.334429 -0.940218 0.295373 -0.105951 -0.949489 
-0.145148 0.374448 -0.915817 -0.00782133 0.155028 -0.987879 0.506404 -0.107567 -0.855561 
0.422676 -0.25839 -0.868666 -0.269706 0.922606 0.275784 -0.00540161 0.990995 -0.133789 
0.438773 0.106064 -0.892316 -0.304739 0.703166 -0.642412 -0.108913 0.529713 -0.841155 
-0.01003 0.550567 -0.834731 -0.0202111 0.756839 -0.653289 -0.0564795 0.610665 -0.789872 
0.0526775 -0.998145 -0.0305161 0.150466 -0.934962 -0.321256 0.116279 -0.931035 -0.34591 
-0.107047 -0.993514 0.0383401 0.273458 -0.627155 -0.729313 -0.484428 -0.857375 0.173889 
0.243754 -0.312738 -0.91803 0.0754687 -0.259709 -0.962733 0.131421 -0.506278 -0.852297 
0.168851 -0.452199 -0.875788 0.343738 -0.453508 -0.822299 -0.511683 0.701287 0.496363 
0.46071 -0.356603 -0.812761 -0.228134 0.944078 0.238057 -0.0780289 0.996951 -0.000764263 
-0.0242889 0.770038 -0.637536 0.384481 0.257528 -0.886484 0.057841 0.815092 -0.576437 
-0.075137 0.632514 -0.770896 -0.112136 0.791491 -0.600806 0.192716 0.551291 -0.811751 
0.411547 0.283749 -0.866092 -0.12507 0.866436 -0.48337 0.107175 0.850987 -0.514134 
-0.376901 -0.915352 0.141693 0.210221 -0.715232 -0.666521 0.134416 -0.692661 -0.708627 
-0.78317 -0.312746 0.537434 -0.745543 -0.191291 0.638415 0.0597026 -0.508354 -0.859076 
0.326389 -0.584511 -0.742844 -0.755137 0.0765007 0.651088 -0.610649 0.555588 0.564295 
0.434988 -0.241156 -0.867542 -0.214678 0.960622 0.176402 0.0231758 0.96868 -0.247228 
0.39012 0.026921 -0.92037 -0.0963244 0.971093 -0.218404 -0.21381 0.885337 -0.412873 
0.12871 0.69853 -0.70391 0.403255 0.196504 -0.89374 0.0500335 0.927953 -0.369324 
0.216042 0.736568 -0.640932 0.255371 0.39179 -0.883904 0.142238 0.717955 -0.681402 
-0.583381 -0.774221 0.245456 -0.727785 -0.199104 0.656268 -0.69522 -0.426135 0.578858 
-0.684701 -0.503563 0.526887 -0.239563 0.926891 0.288933 -0.0618311 0.985212 -0.159796 
0.532804 -0.0530288 -0.844576 -0.0147721 0.874879 -0.484117 0.316729 0.792334 -0.52143 
0.496336 0.257539 -0.82905 -0.0985388 -0.995119 -0.00535667 -0.311679 -0.932051 0.184762 
-0.457007 -0.849064 0.265018 0.0437128 -0.789486 -0.612211 -0.646674 -0.599536 0.471561 
0.201162 -0.771272 -0.603882 -0.584893 0.497704 0.640462 -0.677759 0.065971 0.732319 
0.540565 -0.392651 -0.744053 0.600232 -0.270697 -0.752625 -0.0519264 0.953264 -0.297643 
0.502999 0.19972 -0.840895 0.245148 0.715808 -0.653851 0.273858 0.70131 -0.658153 
0.510518 0.43462 -0.741941 0.329308 0.631867 -0.701641 0.126598 -0.949997 -0.285445 
-0.526433 -0.747507 0.405094 -0.698016 -0.523713 0.488364 0.329755 -0.773346 -0.541477 
-0.638624 -0.315568 0.701838 -0.517562 0.313872 0.795999 -0.478968 0.535104 0.695883 
0.512097 -0.629733 -0.584117 -0.438572 0.736426 0.515102 -0.256084 0.935461 0.243587 
-0.251857 0.956643 0.146292 0.678058 -0.0541969 -0.733007 0.710904 -0.261214 -0.65298 
0.0180354 0.902409 -0.430502 0.68956 0.0387709 -0.72319 0.639727 0.208745 -0.739713 
-0.042191 -0.998763 0.0263093 0.0867459 -0.952794 -0.290961 -0.654454 -0.0535692 0.754202 
0.370042 -0.754507 -0.542023 -0.552149 0.475722 0.684704 -0.485242 0.427823 0.762567 
0.540517 -0.569482 -0.619299 -0.224911 0.958177 0.176953 -0.0857944 0.97741 -0.193157 
0.735744 0.161746 -0.657662 0.0127691 0.91332 -0.407042 0.537288 0.513265 -0.669239 
-0.50996 -0.635884 0.579303 -0.321218 -0.895796 0.307194 0.447482 -0.856502 -0.257223 
-0.611588 -0.0295836 0.790623 -0.546598 0.0966414 0.8318 0.57005 -0.681608 -0.458751 
0.27323 0.806691 -0.524018 0.4563 0.71247 -0.533083 -0.0472958 -0.965855 0.25473 
-0.663474 -0.327922 0.67251 -0.669506 -0.0434957 0.741532 0.433459 -0.773412 -0.462545 
-0.543546 0.52167 0.657585 -0.221126 0.974535 0.0372085 -0.0243266 0.949785 -0.311958 
-0.204291 -0.913019 0.353074 -0.0600006 -0.971021 0.231338 0.122134 -0.983835 0.130962 
-0.315257 -0.756686 0.572747 0.28139 -0.913625 -0.293442 -0.670833 -0.227226 0.70594 
-0.691838 0.0962847 0.715604 -0.391006 0.142619 0.909271 -0.541599 0.301822 0.784585 
-0.44561 0.779573 0.440111 0.633785 0.101762 -0.766786 -0.223715 -0.79575 0.562791 
0.0598537 -0.949982 0.306517 -0.330704 -0.599285 0.729035 -0.562747 -0.110168 0.819255 
-0.518629 -0.471676 0.713123 0.299009 -0.945648 0.127843 -0.64415 -0.143959 0.75123 
-0.539407 -0.226695 0.810956 -0.610077 0.146049 0.778765 0.699358 -0.363311 -0.615551 
0.666133 -0.296044 -0.684562 0.618527 -0.44622 -0.64677 0.545073 -0.606064 -0.579293 
0.47703 0.273788 -0.835154 0.635721 0.0602056 -0.769567 0.422507 0.512197 -0.747758 
-0.473084 0.767065 0.433362 0.729233 -0.443728 -0.520888 0.65816 -0.240984 -0.713269 
0.578026 0.220068 -0.785784 0.632958 0.193257 -0.749677 0.659735 -0.198536 -0.724799 
0.216849 0.66472 -0.714929 -0.120071 -0.867281 0.483121 -0.451365 -0.529753 0.718075 
-0.576982 0.506271 0.640922 0.601698 -0.717677 -0.35057 0.654557 -0.527211 -0.541853 
0.562327 0.228748 -0.794646 0.33181 0.639129 -0.693842 -0.196864 -0.743118 0.639547 
-0.419003 -0.612539 0.670249 -0.639607 0.164952 0.750795 -0.463728 0.543922 0.69936 
0.622387 -0.777911 -0.0865375 0.65345 -0.518118 -0.551867 0.707278 -0.292487 -0.643591 
0.222422 0.809629 -0.543166 0.601444 0.522035 -0.604768 -0.256104 -0.47994 0.839088 
-0.541506 -0.207057 0.8148 -0.434339 -0.356862 0.827043 -0.573165 0.047576 0.818058 
0.403633 -0.896086 -0.18469 0.440477 -0.895858 -0.0584712 -0.577522 0.24669 0.778211 
-0.439059 0.270933 0.856634 -0.47728 0.864125 0.159659 0.704597 -0.296755 -0.644577 
0.785714 -0.272564 -0.555304 0.69664 0.185315 -0.693074 0.0852262 0.864196 -0.495885 
0.0130895 0.832519 -0.553842 0.424026 0.591006 -0.686232 -0.460248 -0.160336 0.873192 
-0.312638 -0.314328 0.896357 0.191957 -0.879561 0.435345 -0.521365 -0.000819837 0.853333 
0.427408 -0.887647 0.17148 -0.516478 0.16302 0.840639 -0.475585 0.119644 0.871495 
0.432984 -0.90137 -0.00751029 0.60989 -0.773197 -0.173783 -0.283009 0.958832 0.0234158 
0.767464 -0.481677 -0.423068 0.0564993 -0.860063 0.507049 0.411138 -0.882793 0.227249 
0.147071 -0.979764 0.13577 -0.57739 0.417612 0.701584 0.496819 -0.856618 0.1392 
-0.642768 0.42682 0.63614 -0.659317 0.661821 0.356782 -0.608101 0.696907 0.380176 
-0.503739 0.823634 0.260527 -0.455961 0.862658 0.218907 -0.335317 0.936659 0.101159 
0.555011 0.252065 -0.792733 0.650871 -0.0492718 -0.757588 -0.0599404 -0.72369 0.687517 
-0.392619 -0.247693 0.88572 0.120353 -0.950766 0.285586 0.133638 -0.872546 0.469898 
-0.527307 0.294156 0.797132 0.522601 -0.85101 -0.051673 -0.556674 0.343527 0.756375 
-0.576869 0.715215 0.394575 -0.409346 0.855166 0.318004 0.672893 -0.679549 -0.292282 
0.729959 -0.286526 -0.620534 0.834664 -0.0511257 -0.548381 0.688175 0.298633 -0.661236 
0.696653 0.432307 -0.572525 0.389841 -0.89896 0.199736 -0.495114 0.224066 0.839438 
-0.398121 -0.278645 0.873989 -0.594907 0.343175 0.726854 0.811605 -0.403517 -0.42246 
-0.29497 0.918952 -0.261764 0.934265 -0.0428586 -0.353995 0.379831 0.629198 -0.678114 
0.712259 0.468818 -0.522395 0.218102 -0.849021 0.481244 -0.526191 0.0311196 0.849797 
0.423415 -0.884955 0.193843 -0.594332 0.574764 0.562509 -0.521345 0.460355 0.718521 
0.751573 -0.638786 -0.164591 -0.324766 0.91618 -0.234823 0.918715 0.148746 -0.365839 
-0.0383903 0.797149 -0.602561 0.14482 0.71166 -0.687435 0.129129 0.846504 -0.516485 
0.27103 0.672093 -0.689082 0.694176 0.494274 -0.523271 -0.444533 -0.0196869 0.895546 
-0.327605 -0.368543 0.869972 -0.17507 -0.518491 0.836969 -0.520352 0.141141 0.842207 
0.932291 -0.350142 -0.0907443 -0.42474 0.903082 -0.0635469 -0.104244 -0.70124 0.705263 
-0.432239 -0.0639631 0.899488 -0.567879 0.218574 0.793561 -0.416681 0.726101 0.54695 
-0.38687 0.57983 0.717028 -0.465657 0.642007 0.60909 0.483575 -0.873921 0.0491713 
0.799614 -0.59957 -0.0336671 -0.447167 0.893663 0.0375198 0.987466 -0.0444692 -0.151438 
-0.217025 0.891037 -0.398689 0.935695 0.187827 -0.298657 -0.409752 0.88727 -0.211789 
0.729175 0.479102 -0.488636 0.259024 0.821398 -0.508146 0.616657 0.632273 -0.469005 
0.533582 0.829799 -0.163475 -0.143042 -0.670399 0.728082 -0.205177 -0.460089 0.863841 
0.082381 -0.765554 0.638075 0.249319 -0.840788 0.480536 -0.477911 0.244812 0.843604 
-0.358288 -0.00645325 0.933589 -0.203587 -0.578109 0.790154 -0.55084 0.0296075 0.834085 
0.159901 0.237997 0.958013 -0.400655 0.406965 0.820887 0.578151 -0.798413 0.16816 
-0.320272 0.901147 0.292166 -0.449552 0.738385 0.502682 -0.425565 0.882823 -0.19879 
0.996884 0.0138437 -0.0776599 -0.391166 0.909101 -0.143263 -0.271419 0.938145 -0.214977 
0.00840486 0.962812 -0.270041 0.0171028 0.974521 -0.223643 0.763397 0.604694 -0.227092 
0.847476 0.496447 -0.187946 -0.361697 -0.0422706 0.931337 -0.0831268 0.520414 0.849858 
-0.530937 -0.137323 0.836211 0.0653031 0.988673 0.135136 -0.512325 0.283412 0.810679 
0.270761 -0.947066 0.172496 -0.731397 0.544419 0.41069 -0.455827 0.533497 0.712462 
0.753898 -0.629441 0.188259 0.737579 -0.634187 0.231913 -0.478459 0.624178 0.617639 
0.988466 -0.145207 -0.0430196 -0.44699 0.880216 0.159437 -0.510313 0.859964 0.0065014 
0.958335 0.259285 -0.119857 0.291972 0.945383 -0.144928 0.805388 0.592385 -0.020711 
-0.364324 0.111911 0.924524 -0.284532 -0.334879 0.898275 -0.514142 0.623011 0.589504 
0.166104 -0.892277 0.419823 -0.371115 0.29054 0.881964 -0.456097 0.359674 0.814009 
-0.440134 0.838048 0.322423 -0.399472 0.823209 0.403423 0.993655 -0.0221664 0.110269 
-0.547989 0.822742 0.151009 0.957425 0.187089 0.219853 -0.314554 0.946977 -0.065495 
0.340795 0.939782 0.0258737 0.617591 0.786478 0.0058061 -0.185252 -0.409276 0.893406 
-0.105335 -0.493052 0.8636 -0.391309 0.110177 0.91364 -0.157888 -0.41173 0.897524 
0.0266779 -0.464651 0.885092 0.0806326 -0.35454 0.931558 0.0823397 -0.601823 0.794373 
0.515479 -0.73766 0.436049 0.0829338 -0.742087 0.665153 -0.00492326 -0.845447 0.534036 
-0.522282 0.66921 0.528563 0.956817 -0.199921 0.211029 -0.382022 0.916403 0.119438 
0.814783 0.53447 0.224657 0.354651 0.913542 0.199156 -0.326933 -0.0449295 0.943979 
-0.23301 -0.137729 0.962672 -0.421177 0.276529 0.863795 0.131545 -0.549729 0.82492 
0.860605 -0.465222 0.207189 -0.462488 0.396272 0.793141 -0.365313 0.600916 0.710948 
0.948117 -0.149179 0.280747 -0.467107 0.842178 0.269346 -0.479128 0.805434 0.348873 
-0.544508 0.780664 0.306716 0.649158 0.657545 0.382398 0.0103882 0.92174 0.38767 
0.390603 0.828437 0.4014 -0.0347362 0.0220383 0.999153 0.338967 -0.63115 0.697675 
-0.225871 0.357652 0.906128 -0.0688522 -0.195629 0.978258 0.51517 -0.638829 0.571399 
0.783946 -0.354444 0.509705 0.892883 0.0117821 0.450135 0.907575 0.0967617 0.408588 
0.711647 0.425757 0.558829 -0.181222 0.713269 0.677057 0.306321 0.712165 0.631655 
0.427773 -0.519246 0.73986 0.777454 -0.430178 0.458816 0.12032 -0.493419 0.86143 
-0.0214688 -0.41876 0.907843 -0.301625 0.0135516 0.95333 -0.191939 -0.270704 0.943334 
-0.204508 0.481549 0.852225 0.601322 0.290638 0.744273 0.731196 0.229104 0.642545 
-0.428148 0.581493 0.691777 -0.186572 0.518477 0.834489 0.363009 0.441979 0.820292 
0.176582 0.549261 0.816781 0.291584 -0.485804 0.823998 -0.0232971 -0.287072 0.957626 
-0.399861 0.0604505 0.91458 0.393238 0.50544 0.768045 -0.362353 0.464645 0.807964 
0.277276 -0.263078 0.924072 0.705456 -0.263046 0.658133 0.112085 0.181955 0.976898 
0.630219 0.0698713 0.773267 0.113977 -0.599775 -0.79201 0.089794 -0.433893 -0.896478 
0.639641 -0.327736 -0.695305 0.268844 -0.597653 -0.755337 0.652419 -0.61182 -0.447243 
-0.124661 -0.181049 -0.975541 0.202661 -0.248754 -0.947127 0.0277546 0.149404 -0.988387 
0.654804 -0.0269313 -0.755319 0.8689 -0.174467 -0.463221 0.165691 0.182415 -0.96916 
-0.269933 0.122215 -0.955092 -0.127985 0.169735 -0.977144 -0.298981 0.233992 -0.925126 
-0.301102 0.438506 -0.846788 0.123641 0.258799 -0.957985 0.6364 0.100846 -0.764738 
-0.369111 0.68749 -0.625392 0.39965 0.27729 -0.873722 0.77997 0.129353 -0.612303 
-0.238257 0.691933 -0.681515 0.0104921 0.457043 -0.889383 0.547862 0.307136 -0.778149 
0.1489 0.841172 -0.519865 0.155582 0.713658 -0.682998 0.425552 0.610242 -0.668214 
0.791314 0.266477 -0.550284 0.455856 0.666199 -0.590232 0.679915 0.423443 -0.598674 
-0.0627639 -0.526739 -0.847707 0.147497 -0.638605 -0.755267 0.869949 -0.435524 -0.231317 
0.924485 -0.118447 -0.36235 -0.503506 0.0894587 -0.859348 -0.310744 -0.101128 -0.945099 
-0.51973 0.363582 -0.773103 -0.459507 0.302568 -0.835049 0.914736 -0.0528842 -0.400576 
-0.582572 0.57556 -0.573882 0.876668 0.148792 -0.457508 -0.295246 0.882929 -0.365055 
-0.00975832 0.952889 -0.303162 0.344827 0.832693 -0.433262 0.680509 0.619815 -0.390817 
0.188582 -0.851168 -0.489847 -0.589269 0.578867 -0.563627 -0.49515 0.849276 -0.183184 
-0.0873083 0.9841 -0.154674 0.879975 0.381029 -0.283657 0.469178 0.844216 -0.259172 
-0.0932623 -0.653392 -0.751253 0.258363 -0.671158 -0.694834 -0.130385 -0.12449 -0.983617 
-0.151842 -0.219976 -0.963615 0.164659 -0.488831 -0.856698 0.104425 -0.594082 -0.797598 
0.0910447 -0.704349 -0.703991 -0.315682 0.14834 -0.937198 -0.0758464 -0.513478 -0.854745 
0.284942 -0.761091 -0.582708 0.40449 -0.825815 -0.392959 -0.427284 0.440508 -0.789545 
-0.344141 0.256158 -0.9033 -0.426424 0.147563 -0.892406 -0.0795429 -0.351206 -0.932913 
-0.5816 0.197778 -0.789066 -0.390807 0.519602 -0.759792 -0.613111 0.400503 -0.68095 
-0.451738 0.772416 -0.446437 -0.367745 0.742939 -0.559289 -0.381109 0.592568 -0.709661 
-0.444886 0.177571 -0.877807 0.974212 0.0317077 -0.223397 0.937371 0.322567 -0.131478 
-0.00659117 0.996374 -0.0848211 0.66335 0.748223 -0.0113917 -0.0313155 -0.368831 -0.928969 
0.0803858 -0.584686 -0.807267 -0.437864 0.239331 -0.8666 -0.51205 0.637535 -0.575634 
-0.441004 0.791709 -0.422744 -0.464769 0.82602 -0.318875 -0.569212 0.774506 -0.275931 
0.986031 0.166562 -0.000446101 0.774348 0.619743 0.127686 0.039135 -0.575859 -0.816612 