# vtk DataFile Version 4.2
vtk output
ASCII
DATASET POLYDATA
POINTS 837 float
131.042 154.376 185.142 130.997 154.312 185.18 131.035 154.642 185.077 
130.836 154.782 185.129 131.227 154.314 185.203 130.584 155.142 185.196 
130.932 155.817 184.846 129.617 157.536 185.015 129.229 157.279 185.397 
130.062 157.549 184.799 131.33 156.948 184.711 130.036 158.576 184.724 
128.745 159.96 184.958 128.041 161.042 185.058 129.096 160.449 184.844 
128.374 161.27 184.923 128.283 162.027 184.989 134.773 147.595 186.384 
134.743 147.543 186.408 134.769 147.795 186.351 134.9 147.564 186.452 
134.718 148.086 186.329 133.456 150.395 186.232 132.235 152.046 186.161 
130.982 154.25 185.291 131.194 153.814 185.627 132.456 153.626 185.388 
126.726 160.572 186.062 127.824 160.082 185.384 127.211 161.069 185.491 
128.844 162.129 185.016 138.47 139.565 187.782 138.43 139.471 187.809 
138.304 139.92 187.8 138.454 140.419 187.761 136 142.009 185.017 
136 142.009 185.017 136 142.009 185.017 136 142.009 185.017 
136 142.009 185.017 135.826 145.393 187.133 138.424 143.745 187.396 
138.417 143.637 187.407 138.245 143.86 187.4 134.896 147.082 186.802 
135.296 147.532 186.535 133.716 149.154 186.788 134.405 149.39 186.295 
132.812 150.439 186.753 131.24 152.963 186.339 133.675 154.923 185.485 
127.869 158.254 186.4 133.967 157.088 186.016 132.62 160.141 186.012 
125.554 161.986 186.565 124.24 164.624 186.455 129.268 164.18 185.926 
123.242 165.452 186.694 125.362 164.827 186.089 126.168 164.588 185.923 
124.331 165.746 186.288 122.272 167.101 186.844 123.433 166.601 186.497 
124.685 166.202 186.242 122.384 167.602 186.84 124.305 167.579 186.542 
140.457 134.987 189.732 140.455 135.018 189.764 140.465 135.018 189.765 
140.462 135.001 189.774 140.472 135.001 189.776 138.453 139.366 187.876 
138.436 139.327 187.934 138.272 139.697 187.896 137.971 140.71 187.895 
137.677 140.998 188.019 137.797 141.469 187.822 136 142.009 185.017 
138.085 142.036 187.667 136.787 143.891 187.518 138.48 142.508 187.62 
137.307 144.437 187.286 138.467 143.321 187.502 137.206 145.398 187.107 
136.141 149.455 186.558 136.747 149.016 186.831 135.435 153.062 186.33 
130.347 153.622 187.015 132.995 161.523 187.164 121.159 166.478 187.435 
129.775 165.918 187.073 128.058 166.318 186.507 128.942 166.533 186.968 
125.452 167.601 186.568 123.195 169.636 187.416 140.458 135.074 189.876 
140.467 135.116 189.854 140.501 135.03 189.902 140.51 135.072 189.88 
139.539 137.38 189.249 139.521 137.27 189.339 139.418 137.524 189.228 
138.409 139.308 188.051 139.568 137.547 189.189 138.248 139.501 188.157 
138.887 138.958 188.402 139.449 141.807 188.091 138.622 145.256 187.637 
134.705 145.921 187.908 132.405 149.728 188.029 136.701 153.45 187.527 
135.316 157.691 187.695 121.117 164.857 188.424 127.38 169.524 188.025 
140.494 135.081 190.13 140.407 135.323 190.039 140.646 135.074 190.179 
140.543 135.313 190.005 139.962 136.823 189.643 139.345 138.103 188.977 
138.678 138.425 189.084 137.215 140.725 188.778 134.285 145.732 188.915 
116.94 166.64 189.832 117.889 166.145 189.638 117.79 165.802 190.056 
131.162 165.951 188.422 116.393 167.526 189.855 118.538 166.972 188.777 
128.401 169.71 188.773 117.614 170.021 189.313 141.004 134.836 190.7 
140.629 134.904 190.577 140.357 135.207 190.399 140.876 135.432 190.28 
140.384 135.977 189.986 140.189 135.636 190.244 139.768 136.341 190.132 
140.481 136.923 189.696 140.904 137.424 189.764 140.818 138.295 189.509 
139.768 148.056 189.274 133.591 162.673 189.06 116.302 166.601 190.391 
116.113 168.918 190.202 130.514 168.129 189.709 116.711 170.024 189.999 
118.783 171.112 189.32 142.375 133.563 192.034 142.442 133.364 192.193 
142.282 133.491 192.098 142.528 133.383 192.209 142.011 133.921 191.77 
142.114 133.484 192.206 142.642 133.934 192.075 141.973 136.623 190.727 
141.843 137.456 190.488 137.467 139.151 190.266 142.195 138.972 190.758 
138.991 152.34 190.551 122.122 162.989 190.224 116.073 165.961 191.607 
115.449 167.541 191.292 116.99 172.026 191.223 125.904 172.357 189.998 
142.551 133.267 192.335 115.5 166.769 191.585 116.187 171.224 191.482 
120.803 174.304 191.35 143.594 132.516 193.72 143.499 132.612 193.597 
142.26 132.885 193.424 142.858 133.008 193.052 143.315 133.499 193.009 
138.748 153.751 191.548 115.641 166.11 192.447 115.307 166.804 192.159 
133.243 164.979 192.018 114.97 169.594 193.028 131.406 168.321 192.68 
125.749 173.496 191.453 124.476 174.683 192.359 143.647 132.464 193.869 
115.763 165.78 193.658 114.972 167.318 192.977 116.975 165.003 193.738 
120.846 176.042 193.968 143.654 132.424 194.083 143.867 132.392 194.58 
143.454 132.412 194.227 144.412 132.732 194.983 140.614 133.801 194.105 
115.007 166.894 193.513 115.251 172.39 194.747 117.877 175.364 194.898 
124.177 175.762 194.16 122.969 176.485 195.144 143.641 132.27 194.846 
144.803 132.68 195.827 143.292 132.123 195.762 145.092 136.755 195.286 
143.99 144.002 195.749 115.318 166.169 194.618 114.9 166.949 194.25 
114.595 167.969 194.666 126.186 174.992 195.336 145.016 132.049 197.089 
141.89 132.623 195.806 145.564 132.591 197.2 145.415 133.41 196.328 
145.606 135.172 196.318 136.839 138.417 195.974 116.131 174.82 197.39 
121.394 176.935 196.653 124.615 159.753 197.039 114.646 167.482 195.971 
114.259 169.25 196.952 127.825 173.756 197.228 123.03 176.812 196.881 
145.488 131.739 198.643 145.722 131.949 198.47 146.023 132.148 198.769 
115.201 166.42 196.818 115.481 166.153 197.385 126.616 174.918 198.512 
123.712 176.675 197.751 145.219 131.504 199.356 114.85 167.182 197.657 
114.267 168.58 198.627 113.754 170.988 200.017 116.086 175.212 199.925 
117.585 176.206 199.018 120.943 177.059 198.698 146.358 131.888 200.177 
142.39 132.1 199.684 147.012 134.886 200.257 118.199 176.488 199.689 
125.429 175.77 200.234 124.255 176.413 199.829 146.492 131.706 200.97 
145.325 131.29 201.054 142.584 132.029 201.105 147.174 132.548 201.465 
122.78 176.778 200.74 147.821 130.801 204.378 147.789 130.824 204.367 
147.793 130.848 204.355 147.8 130.814 204.418 145.834 131.265 201.673 
147.02 131.861 201.923 147.805 130.838 204.406 147.244 132.134 202.177 
114.71 167.251 201.465 126.563 174.815 202.462 147.716 130.856 204.431 
147.697 130.944 204.293 147.754 130.89 204.546 146.454 131.086 203.307 
147.739 130.975 204.371 147.719 132.71 203.374 139.158 134.814 203.073 
145.734 142.953 202.643 147.615 130.872 204.659 147.505 130.963 204.343 
147.698 130.933 204.856 147.032 131.028 204.057 147.506 131.357 203.934 
147.749 131.134 204.73 146.783 141.025 204.736 113.45 170.182 204.266 
121.286 176.739 204.494 142.473 132.084 205.674 114.474 166.751 205.967 
147.535 130.908 205.693 146.885 130.782 205.645 148.263 133.345 205.935 
114.166 167.102 205.93 113.967 172.799 207.53 114.679 173.939 207.43 
141.305 132.857 208.492 113.93 167.484 206.509 126.438 174.605 207.85 
125.189 175.459 207.947 148.525 134.461 209.378 113.718 172.171 210.139 
127.59 173.413 208.604 148.199 131.712 209.45 144.129 131.291 209.657 
118.314 176.199 210.292 146.007 130.857 210.266 144.727 131.095 210.034 
148.073 131.434 210.807 146.05 130.905 211.181 141.42 150.811 212.192 
146.535 131.074 212.605 148.078 131.74 211.853 148.191 132.406 212.243 
136.786 138.331 213.262 114.011 168.109 212.334 114.7 166.97 212.8 
148.037 131.176 211.712 147.926 131.141 211.782 148.021 131.265 211.877 
147.056 131.314 213.134 147.705 131.347 212.226 147.97 131.161 211.963 
148.273 135.432 213.263 148.247 134.716 213.777 114.367 167.404 214.062 
148.069 131.113 211.878 148.049 131.088 211.858 148.055 131.11 211.928 
147.217 131.687 214.133 148.035 131.086 211.908 124.251 159.782 215.19 
113.522 169.445 215.023 148.073 131.071 211.912 148.058 133.937 214.664 
113.929 168.107 215.633 113.351 170.869 216.57 114.564 174.121 217.256 
115.621 175.06 216.508 116.795 175.74 216.756 147.012 132.019 216.251 
142.372 132.335 217.338 141.29 133.024 217.234 147.686 136.565 216.489 
144.951 144.686 217.178 146.652 131.809 217.086 146.497 131.704 216.887 
143.46 131.846 217.404 139.77 134.382 217.497 114.577 166.958 218.027 
115.714 165.779 218.008 146.692 131.907 217.309 146.82 132.103 217.361 
145.843 131.734 217.844 144.94 131.634 217.944 116.724 165.02 218.514 
145.397 131.683 218.079 145.538 131.865 218.547 146.41 132.435 218.608 
141.369 133.281 219.87 146.766 138.1 219.056 135.845 140.469 220.166 
144.958 143.591 219.738 119.43 176.503 219.554 145.092 131.981 219.115 
113.329 172.983 222.321 145.753 133.051 220.35 143.126 132.657 220.7 
141.512 133.597 221.452 146.11 136.42 220.992 113.032 171.029 222.415 
113.002 171.646 222.325 140.811 149.779 222.635 144.133 133.024 221.665 
144.232 133.19 221.857 142.67 133.653 222.668 143.727 140.948 223.775 
143.059 143.971 223.358 113.267 169.613 223.677 139.44 136.225 223.391 
144.284 137.959 223.525 135.708 142.226 224.184 115.106 166.329 224.805 
114.63 174.582 224.803 116.361 175.685 224.907 123.714 176.091 224.564 
121.641 176.608 225.149 142.595 134.288 223.587 143.505 134.447 223.472 
143.419 136.95 224.301 137.255 139.818 224.485 135.651 143.114 225.145 
113.717 173.612 225.407 114.041 174.019 225.31 142.331 134.697 223.894 
142.824 134.48 223.744 143.149 134.69 223.793 141.943 136.36 224.834 
143.046 135.797 224.284 140.174 137.241 225.238 142.32 137.598 225.104 
138.015 139.625 225.375 140.926 140.438 226.162 142.138 140.705 225.42 
139.389 147.794 226.446 139.166 150.369 226.017 114.683 174.213 226.991 
125.226 175.313 226.048 140.739 139.284 226.145 139.001 144.475 226.869 
133.665 146.965 226.865 138.503 147.542 227.497 138.394 152.173 227.511 
113.748 172.733 227.197 113.875 173.14 227.038 126.307 174.483 227.268 
140.217 138.064 225.841 139.65 138.858 226.035 138.21 140.582 226.051 
139.55 140.383 226.427 138.333 141.913 226.549 137.521 142.998 226.656 
138.14 142.68 226.713 139.41 142.001 226.594 135.581 145.2 226.954 
[...]
POINT_DATA 837
SCALARS scalars float
LOOKUP_TABLE default
1 1 1 1 1 1 1 1 1 
1 1 1 1 1 1 1 1 1 
1 1 1 1 1 1 1 1 1 
1 1 1 1 1 1 1 1 1 
1 1 1 1 1 1 1 1 1 
1 1 1 1 1 1 1 1 1 
1 1 1 1 1 1 1 1 1 
1 1 1 1 1 1 1 1 1 
1 1 1 1 1 1 1 1 1 
1 1 1 1 1 1 1 1 1 
1 1 1 1 1 1 1 1 1 
1 1 1 1 1 1 1 1 1 
1 1 1 1 1 1 1 1 1 
1 1 1 1 1 1 1 1 1 
1 1 1 1 1 1 1 1 1 
1 1 1 1 1 1 1 1 1 
1 1 1 1 1 1 1 1 1 
1 1 1 1 1 1 1 1 1 
1 1 1 1 1 1 1 1 1 
1 1 1 1 1 1 1 1 1 
1 1 1 1 1 1 1 1 1 
1 1 1 1 1 1 1 1 1 
1 1 1 1 1 1 1 1 1 
1 1 1 1 1 1 1 1 1 
1 1 1 1 1 1 1 1 1 
1 1 1 1 1 1 1 1 1 
1 1 1 1 1 1 1 1 1 
1 1 1 1 1 1 1 1 1 
1 1 1 1 1 1 1 1 1 
1 1 1 1 1 1 1 1 1 
1 1 1 1 1 1 1 1 1 
1 1 1 1 1 1 1 1 1 
1 1 1 1 1 1 1 1 1 
1 1 1 1 1 1 1 1 1 
1 1 1 1 1 1 1 1 1 
1 1 1 1 1 1 1 1 1 
1 1 1 1 1 1 1 1 1 
1 1 1 1 1 1 1 1 1 
1 1 1 1 1 1 1 1 1 
1 1 1 1 1 1 1 1 1 
1 1 1 1 1 1 1 1 1 
1 1 1 1 1 1 1 1 1 
1 1 1 1 1 1 1 1 1 
1 1 1 1 1 1 1 1 1 
1 1 1 1 1 1 1 1 1 
1 1 1 1 1 1 1 1 1 
1 1 1 1 1 1 1 1 1 
1 1 1 1 1 1 1 1 1 
1 1 1 1 1 1 1 1 1 
1 1 1 1 1 1 1 1 1 
1 1 1 1 1 1 1 1 1 
1 1 1 1 1 1 1 1 1 
1 1 1 1 1 1 1 1 1 
1 1 1 1 1 1 1 1 1 
1 1 1 1 1 1 1 1 1 
1 1 1 1 1 1 1 1 1 
1 1 1 1 1 1 1 1 1 
1 1 1 1 1 1 1 1 1 
1 1 1 1 1 1 1 1 1 
1 1 1 1 1 1 1 1 1 
1 1 1 1 1 1 1 1 1 
1 1 1 1 1 1 1 1 1 
1 1 1 1 1 1 1 1 1 
1 1 1 1 1 1 1 1 1 
1 1 1 1 1 1 1 1 1 
1 1 1 1 1 1 1 1 1 
1 1 1 1 1 1 1 1 1 
1 1 1 1 1 1 1 1 1 
1 1 1 1 1 1 1 1 1 
1 1 1 1 1 1 1 1 1 
1 1 1 1 1 1 1 1 1 
1 1 1 1 1 1 1 1 1 
1 1 1 1 1 1 1 1 1 
1 1 1 1 1 1 1 1 1 
1 1 1 1 1 1 1 1 1 
1 1 1 1 1 1 1 1 1 
1 1 1 1 1 1 1 1 1 
1 1 1 1 1 1 1 1 1 
1 1 1 1 1 1 1 1 1 
1 1 1 1 1 1 1 1 1 
1 1 1 1 1 1 1 1 1 
1 1 1 1 1 1 1 1 1 
1 1 1 1 1 1 1 1 1 
1 1 1 1 1 1 1 1 1 
1 1 1 1 1 1 1 1 1 
1 1 1 1 1 1 1 1 1 
1 1 1 1 1 1 1 1 1 
1 1 1 1 1 1 1 1 1 
1 1 1 1 1 1 1 1 1 
1 1 1 1 1 1 1 1 1 
1 1 1 1 1 1 1 1 1 
1 1 1 1 1 1 1 1 1 
1 1 1 1 1 1 1 1 1 

NORMALS Normals float
-0.0364069 -0.355503 -0.933966 -0.405733 -0.495519 -0.768011 -0.145072 -0.212564 -0.966318 
-0.774084 -0.327471 -0.541809 0.0175624 -0.504826 -0.863042 -0.595711 -0.302704 -0.743975 
-0.282279 -0.197918 -0.938694 -0.454536 -0.217078 -0.863872 -0.546787 -0.327557 -0.770539 
-0.309161 -0.226056 -0.923752 0.185414 0.0229747 -0.982392 -0.182652 -0.0297181 -0.982728 
-0.438654 -0.185488 -0.879305 -0.418902 -0.168346 -0.89229 -0.142029 0.00725356 -0.989836 
-0.180567 -0.0523105 -0.982171 -0.211797 0.165471 -0.963204 0.112034 -0.305666 -0.945525 
-0.399711 -0.418547 -0.815506 0.0636187 -0.11059 -0.991828 0.356534 -0.337743 -0.871099 
-0.0247402 -0.094219 -0.995244 -0.514117 -0.459741 -0.724101 -0.535786 -0.505748 -0.67613 
-0.901652 -0.413026 -0.128194 -0.562427 -0.614148 -0.553622 -0.121006 -0.352048 -0.928127 
-0.618843 -0.356307 -0.700056 -0.433816 -0.239049 -0.868711 -0.486586 -0.171335 -0.856667 
0.367307 0.248 -0.896427 0.196147 -0.219114 -0.95578 -0.485259 -0.380313 -0.787328 
-0.627824 -0.0925341 -0.772835 0.0495441 -0.0708982 -0.996252 0 0 -1 
-0.894427 -0.447214 0 -1 0 0 1 0 0 
0 0.447214 -0.894427 -0.391764 -0.415268 -0.821019 0.400869 -0.0130456 -0.916042 
0.449062 -0.176067 -0.875981 -0.0018586 -0.127385 -0.991852 -0.351799 -0.535303 -0.767911 
0.105083 -0.243019 -0.964313 -0.598801 -0.298049 -0.743373 -0.188942 -0.213475 -0.958504 
-0.547893 -0.501026 -0.669915 -0.557558 -0.565318 -0.607902 0.508093 0.0682363 -0.858595 
-0.702855 -0.43568 -0.562297 0.62761 0.235709 -0.741988 0.640056 0.264498 -0.721367 
-0.639169 -0.406567 -0.652814 -0.357659 -0.200557 -0.912062 0.305081 0.330941 -0.892974 
-0.399884 -0.165862 -0.901434 -0.154117 0.0148141 -0.987941 -0.135291 0.126404 -0.98271 
-0.22247 -0.0179189 -0.974775 -0.386616 -0.0169049 -0.922086 -0.206726 0.0609244 -0.9765 
-0.146984 0.05834 -0.987417 -0.317151 0.170531 -0.932917 -0.0718575 0.233481 -0.969703 
0.59452 0.510221 -0.621466 -0.870027 0.332414 -0.36408 0.629841 0.476899 -0.613081 
-0.640703 -0.707741 0.297661 0.806147 -0.57984 -0.11795 0.0448614 -0.644513 -0.763276 
-0.6504 -0.623771 -0.433463 -0.887119 -0.231096 -0.399517 -0.640844 -0.260522 -0.722113 
-0.697625 -0.34949 -0.625441 -0.339475 -0.13339 -0.931109 0 0 1 
-0.0540405 -0.102308 -0.993284 0.0102031 -0.194434 -0.980863 0.448136 -0.13602 -0.883557 
0.25948 -0.167351 -0.951138 0.186464 -0.138224 -0.97269 0.342927 -0.127127 -0.93072 
0.426147 0.0691721 -0.902005 0.558183 0.0972429 -0.824 0.466313 0.00564338 -0.884602 
-0.753609 -0.510761 -0.413759 0.657844 0.459117 -0.597037 -0.464507 -0.199546 -0.862795 
0.606543 0.367525 -0.705004 0.230624 0.380842 -0.895417 0.396305 0.500617 -0.769627 
0.0706882 0.317143 -0.94574 -0.0793752 0.493898 -0.86589 -0.957386 -0.280173 0.070107 
-0.137644 0.578239 -0.804173 0.035644 -0.993982 0.103586 0.892287 0.0451282 -0.449207 
-0.116629 -0.475162 -0.872135 -0.427128 -0.606573 -0.670546 -0.525596 -0.503448 -0.685776 
-0.608377 -0.687683 -0.396194 0.183658 -0.317861 -0.93018 -0.892268 -0.316207 -0.32229 
-0.0968174 -0.754131 -0.649548 0.521014 -0.04995 -0.852085 0.685243 0.0342952 -0.727507 
-0.72661 -0.490622 -0.480965 -0.744925 -0.486875 -0.456112 0.7497 0.191919 -0.633338 
0.761685 0.280673 -0.584002 -0.520434 -0.617378 -0.589909 0.339976 0.510252 -0.789974 
-0.646466 -0.76184 -0.0410188 -0.832987 -0.110478 -0.542151 0.563927 -0.661276 -0.494673 
0.490316 0.157306 -0.857231 -0.0150261 -0.514015 -0.85765 -0.0439988 -0.444387 -0.894754 
-0.477781 -0.650774 -0.5901 -0.733335 -0.395456 -0.553024 -0.767426 -0.493995 -0.408688 
-0.471372 -0.461839 -0.751341 -0.273388 -0.535594 -0.798998 -0.389336 -0.681226 -0.619959 
0.695487 0.425072 -0.57932 -0.611292 -0.160962 -0.774863 -0.363377 -0.365081 -0.857131 
0.559167 0.602503 -0.569494 -0.458055 0.199427 -0.866264 0.39053 -0.585567 -0.71035 
-0.517008 -0.825108 -0.227816 -0.860993 -0.497355 -0.106436 0.609783 -0.170994 -0.773903 
-0.0213507 -0.244981 -0.969293 -0.695466 -0.35905 -0.622422 -0.70708 -0.568257 -0.420859 
0.377127 -0.333094 -0.86419 0.535683 -0.192239 -0.822246 0.510251 -0.224843 -0.830114 
0.789052 0.200032 -0.580848 0.78173 0.412186 -0.467975 -0.648565 -0.512581 -0.562694 
-0.773005 0.0891262 -0.628108 0.682753 0.557147 -0.47269 -0.611902 0.414123 -0.673853 
-0.410428 0.517821 -0.750606 0.268137 -0.472406 -0.839604 -0.0202975 -0.74939 -0.661818 
-0.278503 -0.762847 -0.583524 0.519798 -0.478333 -0.707819 0.128723 -0.56754 -0.813221 
-0.26508 -0.809335 -0.524127 0.69115 -0.270547 -0.670162 0.61451 -0.227041 -0.755533 
0.666061 -0.142874 -0.732086 -0.772195 -0.527934 -0.353554 0.769007 0.02456 -0.638768 
0.873542 0.17129 -0.455615 -0.648875 -0.655983 -0.385548 -0.605767 -0.733695 -0.307796 
-0.880475 -0.113225 -0.460373 -0.536164 0.598876 -0.594875 0.380742 0.705798 -0.597398 
0.192033 -0.819939 -0.53928 -0.871553 -0.253267 -0.419822 -0.774517 0.435573 -0.458694 
-0.0868357 0.764418 -0.638846 0.174892 -0.862107 -0.475588 0.361385 -0.627113 -0.690021 
-0.303987 -0.902656 -0.304637 0.140078 -0.843041 -0.519289 0.7889 -0.186001 -0.585697 
0.884102 0.45084 -0.122911 -0.805117 -0.573484 -0.151338 -0.873143 -0.424877 -0.238958 
0.802125 0.537032 -0.261136 -0.955984 0.125905 -0.265035 0.846591 0.532015 -0.0156428 
0.307643 0.744245 -0.592837 0.304942 0.805471 -0.50816 0.377029 -0.87404 -0.306436 
-0.725274 -0.675554 -0.132682 -0.936321 -0.270737 -0.223617 -0.511248 -0.856235 -0.0740793 
-0.135076 0.898036 -0.418671 -0.0633212 -0.984454 -0.163834 0.417997 -0.881359 -0.220193 
-0.16424 -0.956451 -0.241302 0.838541 -0.294584 -0.458334 -0.64208 -0.747988 -0.168067 
-0.894366 -0.408402 -0.18253 -0.875214 0.423039 -0.234602 -0.475328 0.821714 -0.314403 
0.389589 0.883478 -0.260168 0.137656 0.922434 -0.360785 0.0347702 -0.985547 -0.165798 
0.803152 -0.33219 -0.494568 0.0478044 -0.987567 -0.149753 0.899698 0.0610395 -0.432225 
0.906378 0.242685 -0.345808 -0.786726 -0.615623 0.0455027 -0.899903 -0.43479 -0.0336494 
-0.965742 -0.246995 -0.0796024 0.620302 0.739261 -0.262143 0.539811 -0.763456 -0.354597 
-0.547767 -0.833946 -0.066974 0.845849 -0.373928 -0.380419 0.845105 -0.185383 -0.501429 
0.894589 -0.0901232 -0.437708 -0.831591 -0.552764 -0.0539362 -0.720114 0.664852 -0.198512 
-0.0647197 0.988376 -0.137563 -0.770786 -0.623288 -0.131916 -0.933071 -0.356589 0.0471576 
-0.991914 -0.0162263 -0.125867 0.756558 0.653629 -0.0197124 0.243981 0.963333 -0.111639 
0.382237 -0.900923 -0.205503 0.647486 -0.734449 -0.20334 0.812486 -0.492577 -0.311824 
-0.816899 -0.575081 0.0442365 -0.773767 -0.614711 0.153018 0.585777 0.810455 0.00532265 
0.292072 0.956135 -0.0223753 0.209994 -0.969835 -0.123783 -0.903323 -0.421587 0.0791957 
-0.91946 -0.391211 -0.0393376 -0.987081 0.116604 -0.109884 -0.707343 0.703768 -0.0661541 
-0.4594 0.881952 -0.10541 -0.0961511 0.995047 -0.0252374 0.648425 -0.698663 -0.302349 
-0.476435 -0.878201 0.0421168 0.960643 0.00483012 -0.277744 -0.301567 0.953442 0.00235132 
0.537634 0.830355 0.146491 0.479283 0.877609 0.00944692 0.663476 -0.683836 -0.303592 
0.0298927 -0.997118 -0.0697341 -0.599611 -0.800283 -0.00359464 0.909253 -0.291328 -0.2973 
0.171127 0.977553 0.122907 0.791729 -0.472031 -0.387753 -0.35559 -0.769797 -0.530065 
0.716266 0.101176 -0.690454 -0.479139 -0.873549 0.0856633 0.0273621 -0.994863 -0.0974626 
0.752849 -0.604509 -0.260358 0.944194 0.29304 0.150414 0.917264 -0.315348 -0.243273 
-0.643662 -0.765309 -0.00116399 0.651608 0.755626 0.0666021 -0.33227 -0.938788 -0.0909552 
0.156895 -0.548659 -0.821193 0.824243 -0.49035 0.283162 0.152845 -0.970609 -0.185894 
0.932303 0.288892 -0.217608 0.966091 -0.168465 -0.195673 -0.712105 -0.701886 -0.0162184 
0.910554 0.405158 -0.0820822 0.0689762 -0.997575 -0.00932559 -0.110718 -0.871285 -0.478125 
0.702731 -0.705397 0.0926474 0.165173 -0.922794 -0.348094 0.761138 -0.442469 -0.474225 
0.997689 0.000278578 -0.067938 0.928705 0.369755 -0.0280818 -0.99341 -0.107787 -0.0389578 
0.158621 0.987201 0.0165602 -0.473857 -0.879699 -0.0398643 -0.726797 -0.686836 -0.00472484 
0.486064 -0.873806 0.0143286 0.017989 -0.999376 -0.0303826 0.988321 -0.0733098 -0.133595 
-0.872368 -0.484045 -0.0683657 -0.942681 0.332789 -0.0245719 -0.697236 0.714186 0.0616553 
-0.664866 -0.740856 0.095318 -0.914542 -0.401754 0.0469734 0.554052 0.83147 0.0410511 
0.527477 0.849252 0.0232313 0.980508 0.195822 -0.016042 -0.940012 0.341104 0.00508581 
0.752961 0.653162 0.0801849 0.940962 -0.338247 0.0133711 -0.375787 -0.924916 0.0575685 
-0.487839 0.872929 -0.00286213 -0.0533151 -0.997811 -0.0391151 -0.342459 -0.933976 0.102035 
0.977806 -0.20915 -0.0123376 0.0407479 -0.98956 0.138239 0.864353 0.500019 0.0536234 
0.0540875 -0.987598 0.147397 0.945357 -0.171971 0.276994 0.951591 -0.246396 0.183749 
-0.803261 -0.594582 -0.0352788 -0.977221 -0.20953 -0.0337177 -0.789134 -0.61422 -0.0013566 
0.887319 -0.439857 -0.13853 -0.123278 -0.991534 0.0407756 0.880854 0.171879 0.441083 
0.296212 -0.940596 0.165946 0.535131 -0.693279 0.482699 0.0618245 -0.540951 0.838779 
0.948613 0.284252 0.139049 0.9943 0.000163485 0.106619 -0.821 -0.566791 -0.0686053 
0.996863 0.0392395 -0.0687333 0.24708 -0.881821 -0.401675 0.573451 -0.028098 0.818758 
0.584427 -0.775244 0.23967 -0.373783 -0.849905 0.371414 -0.708142 -0.698629 -0.102238 
-0.965005 -0.254792 -0.0620239 0.607744 -0.74341 0.279266 0.947018 -0.136291 0.290828 
-0.914277 -0.404691 -0.0179904 -0.995429 0.0662141 -0.068829 -0.756269 0.653863 -0.0228006 
-0.59694 0.802239 0.00866263 -0.436712 0.898816 0.037572 0.786859 -0.599313 0.14723 
-0.515259 -0.85702 0.00499409 -0.584535 -0.804164 -0.107885 0.954951 0.264775 0.134023 
0.897069 0.421669 0.132147 0.502939 -0.831684 0.235275 0.348242 -0.917843 0.190502 
-0.264653 -0.964082 -0.022485 -0.671233 -0.730214 0.127414 -0.757638 -0.649894 0.0601834 
-0.705368 -0.708339 0.0266959 0.585438 -0.745229 0.31921 0.854305 -0.457879 0.245986 
0.302701 -0.925067 0.229397 0.0432709 -0.984478 0.170093 -0.64056 -0.767284 0.0309524 
0.120978 -0.968565 0.217363 0.263526 -0.892485 0.366094 0.569367 -0.697468 0.435154 
-0.476984 -0.878141 0.0367977 0.943517 0.130188 0.304675 -0.929866 -0.362332 0.0637528 
0.875697 0.308561 0.371409 -0.173059 0.984482 -0.0290926 0.144448 -0.910499 0.387461 
-0.932668 0.337426 0.127567 0.686459 -0.504525 0.523668 -0.288215 -0.932065 0.219514 
-0.60499 -0.746234 0.277708 0.869233 -0.0208723 0.493961 -0.968401 -0.0405085 0.246087 
-0.948368 0.113986 0.295982 0.799335 0.556078 0.227687 0.16049 -0.857919 0.488076 
0.278178 -0.739933 0.612467 -0.153492 -0.847091 0.508799 0.781344 0.135185 0.609283 
0.761963 0.274143 0.586735 -0.980471 -0.176507 0.0867235 -0.672522 -0.592297 0.443732 
0.774989 -0.0183698 0.631707 -0.87463 -0.382993 0.297217 -0.810569 -0.581524 -0.0693343 
-0.622782 0.78099 -0.0468786 -0.415553 0.908097 0.0517159 0.559312 0.81378 -0.157898 
0.104923 0.994388 0.0135469 -0.00856129 -0.785526 0.618769 0.56149 -0.408541 0.719599 
0.577234 -0.166936 0.799333 -0.813469 -0.54031 0.215249 -0.888535 -0.366988 0.275363 
-0.860358 0.509624 0.00822721 -0.698688 0.704957 0.121947 -0.148159 -0.596408 0.788889 
0.205422 -0.658375 0.724117 0.304684 -0.547821 0.77914 0.20246 -0.381413 0.901961 
0.47633 -0.300474 0.826332 -0.382816 -0.562675 0.732699 0.544328 -0.0967809 0.833271 
-0.603414 -0.423221 0.675851 0.2843 -0.0277403 0.958334 0.575712 0.0743028 0.81427 
0.793985 0.0851964 0.601938 0.865113 0.332639 0.375406 -0.731 0.624194 0.275719 
0.370281 0.922329 0.110463 0.298766 -0.180829 0.937038 0.266756 -0.0572815 0.96206 
-0.667579 -0.724115 0.173191 0.745233 -0.161708 0.646899 0.983352 0.168954 0.0668905 
-0.859964 0.366155 0.355517 -0.847536 0.440021 0.296757 0.669817 0.720174 -0.180815 
-0.236503 -0.419739 0.876291 -0.401475 -0.433393 0.806839 -0.554837 -0.278056 0.784118 
-0.0404325 -0.178076 0.983186 -0.245548 -0.184752 0.951616 -0.115044 -0.276196 0.954191 
-0.208943 -0.232729 0.949832 0.210059 -0.0561336 0.976076 -0.528481 -0.623552 0.576099 
-0.543308 -0.750691 0.375872 -0.253001 -0.679707 0.688469 -0.053732 -0.48282 0.87407 
-0.26227 -0.853414 0.450444 0.165979 -0.701926 0.69264 0.458268 -0.260992 0.849631 
-0.472415 -0.841919 0.26076 -0.305412 -0.951209 0.0438713 0.0639938 -0.971752 0.22716 
0.483069 -0.801367 0.352782 0.64279 -0.482097 0.595318 0.778286 -0.596429 0.196326 
0.868979 -0.312635 0.383581 0.921702 -0.381238 -0.0715712 0.985488 -0.122558 -0.117443 
0.93122 -0.0832896 0.354812 0.912947 0.328057 -0.242705 -0.929621 0.310833 0.197961 
-0.878664 0.469793 0.0851123 0.155763 0.98767 0.0156979 -0.0141429 -0.981851 -0.189126 
0.409724 -0.893106 -0.185712 0.712275 -0.629492 -0.31049 -0.66289 -0.742011 -0.0999798 
0.952542 0.304214 0.01082 0.868757 0.473511 -0.145081 -0.993009 0.117878 -0.00618604 
-0.905853 0.419228 0.0606473 -0.801124 0.570483 0.180968 -0.690753 0.721371 0.0498475 
-0.0108824 -0.524494 -0.851344 -0.19853 -0.762654 -0.615585 0.175436 -0.72991 -0.660646 
-0.155147 -0.400841 -0.902915 0.457635 -0.309163 -0.83366 -0.508896 -0.369239 -0.777617 
-0.0194339 -0.230662 -0.97284 0.315367 -0.195299 -0.928656 -0.443929 -0.35282 -0.823678 
0.10799 -0.0502807 -0.99288 0.435344 0.136532 -0.889851 -0.411176 -0.405235 -0.816528 
-0.363671 -0.375583 -0.852456 -0.542273 -0.422628 -0.726172 -0.393161 -0.618067 -0.680748 
-0.177833 -0.338023 -0.924184 0.167866 -0.472888 -0.864984 0.00866173 -0.833866 -0.551899 
0.396512 -0.645976 -0.652298 0.308257 -0.315916 -0.897315 -0.598343 -0.786901 -0.150902 
-0.180527 -0.821652 -0.540646 0.738991 -0.42698 -0.521133 0.869341 -0.123268 -0.478593 
-0.832624 -0.43666 -0.340682 0.870235 -0.0819764 -0.485768 0.958148 0.101557 -0.267653 
0.719241 0.694186 -0.0282587 -0.832945 0.533003 -0.148697 -0.413559 -0.77573 -0.476667 
-0.503244 -0.499153 -0.705402 0.628852 -0.102927 -0.770682 -0.757744 -0.392662 -0.521191 
0.44807 0.0370341 -0.893231 0.582922 0.286168 -0.760467 0.664669 0.119259 -0.737559 
-0.779951 -0.625049 -0.0314653 0.839436 0.20511 -0.503266 -0.929231 -0.368701 -0.0242646 
-0.984768 -0.122333 -0.123558 -0.742451 0.659148 -0.119546 -0.555526 0.823811 -0.112806 
-0.821412 -0.410936 -0.395492 -0.799098 -0.601062 -0.012945 -0.702824 -0.708519 0.063554 
-0.986765 0.0716282 -0.145477 -0.938719 0.344355 -0.0150611 -0.206757 0.977886 0.0314768 
0.192092 0.979084 0.0670377 0.432888 -0.566615 -0.701111 -0.712695 -0.568603 -0.4108 
0.793767 -0.0315955 -0.607401 0.783529 0.218147 -0.581803 -0.576153 -0.813585 0.0782772 
-0.690692 0.723012 0.0140566 0.178059 0.983513 0.0315758 0.69564 -0.389069 -0.603912 
0.868686 0.416011 -0.268923 -0.724929 -0.687768 -0.0381266 -0.993527 -0.0374948 -0.107233 
-0.691787 0.719558 0.06056 0.654743 -0.62949 -0.418395 0.8746 -0.00338049 -0.484833 
0.826663 0.428917 -0.364224 -0.477653 -0.855169 0.201332 -0.914528 -0.383451 -0.128856 
-0.977061 -0.188345 -0.099391 -0.405243 0.913497 -0.0360764 0.427733 -0.80315 -0.414721 
-0.217909 -0.944426 -0.246119 0.871407 -0.326922 -0.365748 0.891686 0.429004 -0.144402 
-0.987914 0.148184 0.0454643 0.236474 -0.909875 -0.340892 0.683054 -0.593432 -0.425765 
0.536339 -0.722675 -0.435983 -0.495648 -0.864106 -0.0874904 0.954536 0.21589 -0.205556 
-0.996691 0.0764183 0.0276963 0.310896 -0.907383 -0.282843 0.891172 -0.349375 -0.289395 
-0.784194 -0.583671 -0.210635 -0.777811 -0.620634 0.0991128 -0.341774 0.938849 0.0418752 
-0.10488 0.993041 0.0535667 -0.0292827 0.998429 0.0477602 0.632686 -0.733138 -0.249432 
0.135721 -0.966067 -0.219761 -0.789719 -0.613394 -0.00955905 -0.0573855 -0.983257 -0.172954 
-0.776959 0.628093 0.0428294 0.966513 -0.186497 -0.176273 -0.785714 0.618562 -0.00580251 
-0.533092 0.84494 -0.04347 0.73105 -0.635639 -0.24805 -0.556023 -0.82672 0.085864 
-0.838484 0.542558 0.0507437 -0.564573 0.82528 0.0130174 0.405892 -0.903163 -0.139813 
0.563731 -0.788106 -0.247177 0.767533 -0.616438 -0.175775 0.295443 -0.946885 -0.126975 
0.853613 -0.501609 -0.140476 -0.0903143 -0.993885 -0.0635316 -0.681292 -0.727144 0.0842797 
-0.948871 -0.310518 -0.0567604 0.45943 -0.885797 -0.0654872 0.997966 -0.00408948 -0.0636186 
-0.604383 -0.794447 0.059797 -0.993928 -0.0727038 -0.0825865 -0.957495 0.283661 0.0523338 
-0.180524 0.982596 -0.0437751 0.855397 -0.514671 -0.058391 -0.153691 -0.988119 -0.000573913 
0.970264 -0.238149 -0.0432817 0.00965262 0.995149 -0.0979052 0.308937 -0.950692 -0.0272369 
0.992245 -0.0989352 0.0752418 0.966276 0.252406 0.0510036 0.843313 0.533427 0.065423 
-0.997668 -0.0327289 0.0598928 -0.523942 0.851005 0.0357018 -0.269371 0.962902 0.0160678 
0.255289 0.966233 -0.0349563 0.950312 -0.30963 0.0321878 -0.996123 -0.0251581 0.0842948 
-0.147886 0.988223 0.039315 0.31837 -0.947383 0.0332554 0.774477 -0.628091 0.0754125 
0.906952 0.420617 0.0227859 -0.762822 0.644586 -0.0510979 -0.482653 0.873273 -0.0666377 
-0.0888054 -0.994947 -0.0468429 -0.826823 -0.559321 -0.0593579 -0.606455 0.793634 -0.0485512 
-0.21275 -0.975901 -0.0485226 -0.870626 0.490714 0.034802 -0.172491 -0.983244 0.0589796 
-0.494693 -0.865311 -0.0807146 0.986234 0.0261191 0.163278 -0.833921 -0.550676 0.0364882 
-0.668192 -0.743566 0.0250596 0.259334 -0.954214 0.149071 0.919968 -0.363506 0.146704 
-0.197436 -0.977882 0.0690274 -0.67166 -0.740825 -0.00714034 -0.90781 0.418064 0.0332084 
-0.533497 0.845223 0.0313016 -0.271272 0.962109 0.0275389 0.947383 -0.192156 0.256012 
-0.829961 -0.556922 -0.031661 -0.699217 -0.711206 0.0726788 -0.873006 -0.482323 -0.0722892 
0.673452 -0.709995 0.205837 -0.32462 -0.944068 0.0579372 -0.939812 -0.325813 -0.10295 
0.806214 0.578731 -0.122836 0.0673799 0.997726 -0.0014676 0.343388 -0.92161 0.180888 
0.599592 -0.766962 0.228603 -0.0718457 -0.991709 0.106546 0.911973 -0.290955 0.289224 
-0.342147 -0.939028 0.0340962 0.938379 0.163705 0.304378 -0.99676 0.0139805 -0.0792135 
0.390312 -0.899587 0.195959 0.719445 -0.63909 0.271962 0.0756191 -0.980676 0.180432 
-0.987069 -0.150258 0.0558405 -0.989305 0.143151 0.0279728 0.559703 -0.77231 0.300449 