# vtk DataFile Version 4.2
vtk output
ASCII
DATASET POLYDATA
POINTS 1216 float
347 162.009 219.017 347 162.009 219.017 347 162.009 219.017 
347 162.009 219.017 343.685 163.101 220.443 343.885 163.009 220.433 
347 162.009 219.017 343.796 163.05 220.437 344.104 162.88 220.461 
347 162.009 219.017 342.505 163.665 220.468 343.905 162.991 220.445 
341.013 164.363 220.504 340.909 164.41 220.507 341.237 164.26 220.497 
341.544 164.117 220.489 343.168 163.349 220.454 343.611 163.135 220.447 
343.274 163.299 220.452 340.825 164.449 220.509 341.095 164.326 220.501 
341.941 163.935 220.478 342.212 163.808 220.472 342.614 163.615 220.464 
343.031 163.416 220.457 340.781 164.47 220.51 341.635 164.079 220.485 
341.869 163.97 220.48 340.837 164.445 220.508 340.982 164.379 220.504 
341.202 164.279 220.497 341.413 164.182 220.491 349 160.009 221.017 
349 160.009 221.017 349 160.009 221.017 349 160.009 221.017 
344.333 162.755 220.476 344.467 162.681 220.486 344.456 162.687 220.485 
344.524 162.65 220.49 349 160.009 221.017 344.54 162.641 220.491 
344.506 162.659 220.49 340.987 164.375 220.505 340.881 164.423 220.508 
341.173 164.289 220.5 341.475 164.149 220.492 341.849 163.975 220.483 
336.587 163.369 221.907 336.593 163.365 221.908 336.584 163.37 221.907 
336.631 163.341 221.911 340.807 164.458 220.51 336.613 163.352 221.909 
340.777 164.472 220.511 341.566 164.111 220.487 340.787 164.468 220.51 
340.871 164.43 220.507 341.046 164.351 220.502 341.291 164.238 220.495 
346.046 158.634 222.009 346.064 158.624 222.009 346.001 158.658 222.009 
346.115 158.598 222.008 346.115 158.598 222.008 346.151 158.579 222.008 
346.15 158.579 222.008 346.159 158.575 222.008 345.806 158.761 222.01 
345.819 158.754 222.01 345.733 158.799 222.011 345.934 158.693 222.01 
345.914 158.704 222.01 345.989 158.664 222.009 346.036 158.639 222.009 
346.113 158.599 222.008 346.146 158.581 222.008 345.565 158.888 222.012 
345.568 158.887 222.012 345.52 158.912 222.012 345.665 158.835 222.012 
345.645 158.846 222.012 345.746 158.793 222.011 345.836 158.745 222.01 
345.911 158.706 222.01 345.97 158.674 222.009 346.046 158.634 222.009 
346.11 158.6 222.008 345.509 158.918 222.012 345.49 158.928 222.013 
345.551 158.896 222.012 345.656 158.84 222.012 345.78 158.775 222.011 
345.82 158.754 222.01 345.89 158.717 222.01 349 160.009 221.017 
354.114 159.974 224.682 354.077 159.965 224.671 354.074 160.024 224.652 
354.123 159.884 224.795 337.329 162.918 221.957 337.36 162.9 221.959 
337.265 162.957 221.953 337.432 162.857 221.963 337.412 162.868 221.962 
337.464 162.837 221.965 345.486 158.93 222.013 345.475 158.936 222.013 
345.5 158.923 222.013 345.554 158.894 222.012 345.625 158.857 222.012 
345.721 158.806 222.011 353.855 160.451 224.584 353.843 160.397 224.584 
353.797 160.481 224.566 354.088 160.035 224.726 353.913 160.377 224.688 
337.169 163.014 221.946 337.178 163.009 221.947 337.077 163.07 221.941 
337.259 162.96 221.952 337.336 162.914 221.957 337.503 162.814 221.967 
337.468 162.835 221.965 337.528 162.799 221.969 337.534 162.796 221.969 
337.55 162.786 221.97 345.476 158.936 222.013 343.708 163.072 220.467 
344.094 162.875 220.475 344.388 162.721 220.485 353.2 160.964 224.611 
353.197 160.873 224.591 353.055 160.995 224.651 353.305 160.942 224.632 
353.338 160.807 224.584 353.789 160.527 224.626 353.473 160.795 224.618 
336.964 163.139 221.933 336.972 163.134 221.934 336.869 163.196 221.927 
337.078 163.069 221.941 337.178 163.009 221.947 337.252 162.964 221.952 
337.366 162.896 221.959 337.474 162.831 221.966 337.532 162.797 221.969 
342.245 163.787 220.475 342.766 163.537 220.468 343.268 163.291 220.465 
352.377 161.666 224.867 352.353 161.611 224.853 352.257 161.741 224.929 
353.069 161.144 224.758 352.494 161.549 224.842 336.754 163.266 221.919 
336.775 163.254 221.92 336.718 163.288 221.916 336.828 163.221 221.924 
337.001 163.116 221.935 340.909 164.411 220.507 337.125 163.041 221.944 
337.033 163.096 221.938 341.37 164.199 220.494 341.783 164.006 220.484 
336.647 163.332 221.912 336.605 163.357 221.909 336.695 163.303 221.915 
336.752 163.267 221.919 336.861 163.201 221.926 336.965 163.138 221.933 
341.004 164.368 220.504 336.613 163.352 221.909 336.671 163.317 221.913 
340.814 164.455 220.509 340.929 164.403 220.506 344.505 157.005 223.517 
344.505 157.005 223.517 344.505 157.005 223.518 344.505 157.005 223.517 
344.505 157.005 223.517 344.505 157.005 223.517 346.009 158.654 222.009 
346.098 158.607 222.009 346.144 158.583 222.008 343.002 158.011 223.517 
343.002 158.011 223.517 343.002 158.011 223.517 344.505 157.005 223.517 
343.002 158.011 223.517 344.505 157.005 223.517 345.75 158.79 222.011 
345.893 158.715 222.01 345.98 158.669 222.009 346.054 158.63 222.009 
346.131 158.59 222.008 353.961 159.438 224.833 353.899 159.558 224.746 
354.033 159.433 224.927 339.814 159.446 223.959 339.814 159.446 223.959 
339.813 159.446 223.959 339.815 159.446 223.959 339.814 159.446 223.959 
339.815 159.446 223.959 345.533 158.906 222.012 343.002 158.011 223.517 
345.629 158.854 222.012 345.731 158.801 222.011 345.822 158.753 222.011 
345.936 158.692 222.01 353.852 159.812 224.675 353.76 159.604 224.728 
353.649 159.833 224.667 354.034 159.83 224.725 339.814 159.446 223.959 
339.813 159.446 223.96 339.813 159.446 223.96 339.814 159.446 223.959 
339.815 159.446 223.959 339.815 159.446 223.959 345.498 158.924 222.013 
345.562 158.89 222.012 345.672 158.832 222.012 345.798 158.765 222.011 
353.44 159.957 224.687 353.93 160.131 224.644 336.339 161.338 224.328 
336.338 161.338 224.328 336.339 161.338 224.328 337.325 162.921 221.956 
336.339 161.338 224.328 337.417 162.866 221.962 339.814 159.446 223.959 
339.814 159.446 223.959 345.498 158.924 222.013 352.789 160.791 224.774 
353.63 160.528 224.591 354.03 160.182 224.778 336.337 161.339 224.328 
336.337 161.339 224.328 336.337 161.339 224.328 336.338 161.338 224.328 
337.187 163.004 221.948 336.337 161.339 224.328 337.287 162.944 221.954 
337.379 162.888 221.96 337.487 162.824 221.966 337.537 162.794 221.97 
352.622 161.251 224.8 353.631 160.71 224.691 335.004 163.012 224.017 
335.003 163.012 224.017 335.003 163.012 224.017 336.337 161.339 224.328 
336.993 163.121 221.935 335.004 163.012 224.017 337.115 163.047 221.943 
337.225 162.981 221.95 351.686 161.831 225.078 352.056 161.749 224.964 
352.709 161.445 224.871 334.004 164.012 224.017 334.003 164.012 224.017 
334.003 164.012 224.017 335.004 163.012 224.017 336.804 163.236 221.922 
334.004 164.012 224.017 336.9 163.177 221.929 337.05 163.086 221.939 
351.143 162.343 225.077 351.071 162.418 225.068 351.342 162.183 225.081 
351.613 162.059 225.049 352.112 161.895 225.136 352.696 161.575 225.068 
336.675 163.314 221.914 334.004 164.012 224.017 336.766 163.259 221.92 
351.169 162.36 225.079 351.359 162.26 225.106 344.505 157.005 223.518 
344.505 157.005 223.518 344.505 157.005 223.518 344.505 157.005 223.517 
343.002 158.011 223.518 343.002 158.011 223.518 343.002 158.011 223.518 
344.505 157.005 223.518 344.505 157.005 223.518 354.064 159.305 225.202 
339.813 159.445 223.96 339.813 159.446 223.96 339.814 159.446 223.959 
339.815 159.446 223.959 343.002 158.011 223.518 339.812 159.446 223.96 
339.812 159.446 223.96 339.814 159.446 223.959 339.815 159.446 223.959 
354.178 159.835 225.315 336.338 161.339 224.328 336.338 161.339 224.328 
336.337 161.339 224.328 336.338 161.338 224.328 336.338 161.338 224.328 
339.813 159.446 223.96 339.814 159.446 223.96 352.933 160.219 224.872 
336.337 161.339 224.329 336.338 161.339 224.328 336.337 161.339 224.328 
351.839 161.275 225.447 335.003 163.012 224.018 335.003 163.012 224.018 
335.003 163.012 224.017 336.337 161.339 224.328 351.523 161.658 225.614 
334.003 164.012 224.018 334.003 164.012 224.018 334.003 164.012 224.017 
335.003 163.012 224.017 351.059 162.411 225.153 351.041 162.441 225.091 
351.134 162.301 225.253 351.951 162.047 225.486 333.002 165.01 225.017 
333.002 165.01 225.017 333.002 165.01 225.017 334.003 164.012 224.017 
333.002 165.01 225.017 351.078 162.43 225.091 333.002 165.01 225.017 
353.673 158.562 225.443 353.653 158.502 225.525 353.595 158.578 225.496 
353.758 158.562 225.473 353.706 158.495 225.521 353.736 158.517 225.618 
353.561 158.738 225.379 353.473 158.696 225.577 353.719 158.695 225.345 
353.812 158.583 225.576 353.884 158.682 225.642 344.505 157.005 223.518 
344.505 157.005 223.518 353.288 158.846 225.818 353.784 158.868 225.236 
353.92 159.005 225.258 341 158.009 225.017 341 158.009 225.017 
341 158.009 225.017 341 158.009 225.017 343.002 158.011 223.518 
353.735 159.155 225.034 339.812 159.445 223.96 339.812 159.445 223.96 
339.812 159.446 223.96 339.813 159.446 223.96 341 158.009 225.017 
339.814 159.446 223.959 339.814 159.446 223.96 353.006 159.55 225.224 
353.213 159.433 225.099 339.812 159.446 223.96 339.813 159.446 223.96 
339.814 159.446 223.96 339.813 159.446 223.96 352.827 159.85 225.2 
336.337 161.339 224.329 336.338 161.338 224.329 336.338 161.338 224.328 
339.813 159.446 223.96 352.371 160.453 225.382 336.336 161.339 224.329 
336.337 161.339 224.329 336.338 161.339 224.329 353.986 160.494 225.81 
335.002 163.011 224.018 335.002 163.011 224.018 335.003 163.011 224.018 
336.336 161.339 224.329 334.002 164.011 224.018 334.002 164.011 224.018 
334.003 164.011 224.018 335.003 163.011 224.018 351.126 162.366 225.277 
351.195 162.223 225.56 352.607 161.729 225.788 333.001 165.01 225.018 
333.001 165.01 225.018 333.002 165.01 225.017 334.003 164.011 224.018 
351.283 162.311 225.485 333.001 165.01 225.017 353.67 158.495 225.608 
353.633 158.571 225.809 353.783 158.593 225.789 353.707 158.601 225.946 
353.877 158.706 225.877 341 158.009 225.017 352.729 159.467 225.924 
339.812 159.446 223.96 339.813 159.446 223.96 339.812 159.446 223.96 
336.337 161.339 224.329 336.336 161.339 224.329 336.337 161.339 224.329 
[...]
POINT_DATA 1216
SCALARS scalars float
LOOKUP_TABLE default
1 1 1 1 1 1 1 1 1 
1 1 1 1 1 1 1 1 1 
1 1 1 1 1 1 1 1 1 
1 1 1 1 1 1 1 1 1 
1 1 1 1 1 1 1 1 1 
1 1 1 1 1 1 1 1 1 
1 1 1 1 1 1 1 1 1 
1 1 1 1 1 1 1 1 1 
1 1 1 1 1 1 1 1 1 
1 1 1 1 1 1 1 1 1 
1 1 1 1 1 1 1 1 1 
1 1 1 1 1 1 1 1 1 
1 1 1 1 1 1 1 1 1 
1 1 1 1 1 1 1 1 1 
1 1 1 1 1 1 1 1 1 
1 1 1 1 1 1 1 1 1 
1 1 1 1 1 1 1 1 1 
1 1 1 1 1 1 1 1 1 
1 1 1 1 1 1 1 1 1 
1 1 1 1 1 1 1 1 1 
1 1 1 1 1 1 1 1 1 
1 1 1 1 1 1 1 1 1 
1 1 1 1 1 1 1 1 1 
1 1 1 1 1 1 1 1 1 
1 1 1 1 1 1 1 1 1 
1 1 1 1 1 1 1 1 1 
1 1 1 1 1 1 1 1 1 
1 1 1 1 1 1 1 1 1 
1 1 1 1 1 1 1 1 1 
1 1 1 1 1 1 1 1 1 
1 1 1 1 1 1 1 1 1 
1 1 1 1 1 1 1 1 1 
1 1 1 1 1 1 1 1 1 
1 1 1 1 1 1 1 1 1 
1 1 1 1 1 1 1 1 1 
1 1 1 1 1 1 1 1 1 
1 1 1 1 1 1 1 1 1 
1 1 1 1 1 1 1 1 1 
1 1 1 1 1 1 1 1 1 
1 1 1 1 1 1 1 1 1 
1 1 1 1 1 1 1 1 1 
1 1 1 1 1 1 1 1 1 
1 1 1 1 1 1 1 1 1 
1 1 1 1 1 1 1 1 1 
1 1 1 1 1 1 1 1 1 
1 1 1 1 1 1 1 1 1 
1 1 1 1 1 1 1 1 1 
1 1 1 1 1 1 1 1 1 
1 1 1 1 1 1 1 1 1 
1 1 1 1 1 1 1 1 1 
1 1 1 1 1 1 1 1 1 
1 1 1 1 1 1 1 1 1 
1 1 1 1 1 1 1 1 1 
1 1 1 1 1 1 1 1 1 
1 1 1 1 1 1 1 1 1 
1 1 1 1 1 1 1 1 1 
1 1 1 1 1 1 1 1 1 
1 1 1 1 1 1 1 1 1 
1 1 1 1 1 1 1 1 1 
1 1 1 1 1 1 1 1 1 
1 1 1 1 1 1 1 1 1 
1 1 1 1 1 1 1 1 1 
1 1 1 1 1 1 1 1 1 
1 1 1 1 1 1 1 1 1 
1 1 1 1 1 1 1 1 1 
1 1 1 1 1 1 1 1 1 
1 1 1 1 1 1 1 1 1 
1 1 1 1 1 1 1 1 1 
1 1 1 1 1 1 1 1 1 
1 1 1 1 1 1 1 1 1 
1 1 1 1 1 1 1 1 1 
1 1 1 1 1 1 1 1 1 
1 1 1 1 1 1 1 1 1 
1 1 1 1 1 1 1 1 1 
1 1 1 1 1 1 1 1 1 
1 1 1 1 1 1 1 1 1 
1 1 1 1 1 1 1 1 1 
1 1 1 1 1 1 1 1 1 
1 1 1 1 1 1 1 1 1 
1 1 1 1 1 1 1 1 1 
1 1 1 1 1 1 1 1 1 
1 1 1 1 1 1 1 1 1 
1 1 1 1 1 1 1 1 1 
1 1 1 1 1 1 1 1 1 
1 1 1 1 1 1 1 1 1 
1 1 1 1 1 1 1 1 1 
1 1 1 1 1 1 1 1 1 
1 1 1 1 1 1 1 1 1 
1 1 1 1 1 1 1 1 1 
1 1 1 1 1 1 1 1 1 
1 1 1 1 1 1 1 1 1 
1 1 1 1 1 1 1 1 1 
1 1 1 1 1 1 1 1 1 
1 1 1 1 1 1 1 1 1 
1 1 1 1 1 1 1 1 1 
1 1 1 1 1 1 1 1 1 
1 1 1 1 1 1 1 1 1 
1 1 1 1 1 1 1 1 1 
1 1 1 1 1 1 1 1 1 
1 1 1 1 1 1 1 1 1 
1 1 1 1 1 1 1 1 1 
1 1 1 1 1 1 1 1 1 
1 1 1 1 1 1 1 1 1 
1 1 1 1 1 1 1 1 1 
1 1 1 1 1 1 1 1 1 
1 1 1 1 1 1 1 1 1 
1 1 1 1 1 1 1 1 1 
1 1 1 1 1 1 1 1 1 
1 1 1 1 1 1 1 1 1 
1 1 1 1 1 1 1 1 1 
1 1 1 1 1 1 1 1 1 
1 1 1 1 1 1 1 1 1 
1 1 1 1 1 1 1 1 1 
1 1 1 1 1 1 1 1 1 
1 1 1 1 1 1 1 1 1 
1 1 1 1 1 1 1 1 1 
1 1 1 1 1 1 1 1 1 
1 1 1 1 1 1 1 1 1 
1 1 1 1 1 1 1 1 1 
1 1 1 1 1 1 1 1 1 
1 1 1 1 1 1 1 1 1 
1 1 1 1 1 1 1 1 1 
1 1 1 1 1 1 1 1 1 
1 1 1 1 1 1 1 1 1 
1 1 1 1 1 1 1 1 1 
1 1 1 1 1 1 1 1 1 
1 1 1 1 1 1 1 1 1 
1 1 1 1 1 1 1 1 1 
1 1 1 1 1 1 1 1 1 
1 1 1 1 1 1 1 1 1 
1 1 1 1 1 1 1 1 1 
1 1 1 1 1 1 1 1 1 
1 1 1 1 1 1 1 1 1 
1 1 1 1 1 1 1 1 1 
1 1 1 1 1 1 1 1 1 
1 
NORMALS Normals float
0 -0.178885 -0.98387 0 -1 0 -0.961524 -0.274721 3.6843e-08 
0.961524 -0.274721 3.6843e-08 -0.330974 -0.646635 -0.687255 -0.364244 -0.731581 -0.576294 
0 0.447214 -0.894427 -0.240298 -0.421876 -0.874229 -0.368375 -0.742326 -0.559689 
0 -0.178885 0.98387 -0.37368 -0.763731 -0.526383 -0.36906 -0.746258 -0.553979 
-0.417399 -0.90868 0.00889818 -0.366477 -0.76381 -0.531308 -0.394304 -0.830671 -0.393077 
-0.363449 -0.752514 -0.549207 -0.24251 -0.47336 -0.846829 0.383395 0.776805 0.499583 
-0.150941 -0.279127 -0.948317 -0.384392 -0.80076 -0.459376 -0.181657 -0.336614 -0.923955 
-0.253827 -0.499253 -0.828443 -0.152093 -0.278689 -0.948262 -0.0966083 -0.163576 -0.981789 
-0.0586812 -0.0839411 -0.994741 -0.247348 -0.453662 -0.85616 0.184141 0.442399 -0.87771 
-0.114711 -0.196296 -0.973812 0.0310013 0.141176 -0.989499 0.160899 0.414756 -0.895594 
0.290153 0.678348 -0.675023 0.217221 0.520417 -0.825821 0 -0.178885 -0.98387 
0 -1 0 -0.961524 -0.274721 3.6843e-08 0.961524 -0.274721 3.6843e-08 
-0.368961 -0.743602 -0.557605 0.425153 0.823147 0.376396 0.426124 0.824594 0.372106 
0.416447 0.811905 0.409124 0 0.447214 -0.894427 0.375925 0.753978 0.538701 
0.375773 0.754613 0.537916 -0.121733 -0.321901 0.938915 -0.344341 -0.779946 0.522603 
-0.220619 -0.526298 0.821181 -0.409478 -0.866467 -0.285592 -0.422966 -0.890201 -0.169241 
-0.401734 -0.575377 0.712427 0.357939 0.660527 0.659988 0.503993 0.785052 -0.360117 
-0.384286 -0.545899 0.744525 -0.239001 -0.560237 0.793103 -0.520044 -0.853603 -0.0302767 
0.0511793 0.062335 0.996742 0.339808 0.69474 0.63393 0.321539 0.774358 -0.544961 
0.404743 0.905487 -0.127575 0.365576 0.767903 0.526003 0.365823 0.764194 0.531206 
-0.229897 -0.426047 -0.875004 -0.454444 -0.862577 0.222353 -0.466452 -0.882449 -0.0608711 
-0.311692 -0.582963 -0.750335 -0.402333 -0.756878 -0.515038 -0.276743 -0.515566 -0.810928 
-0.0969445 -0.171354 -0.980428 -0.355997 -0.666745 -0.654765 -0.272492 -0.503511 -0.819893 
-0.466065 -0.880994 -0.081439 -0.457067 -0.861225 -0.22222 -0.236863 -0.436941 -0.867743 
-0.466469 -0.882735 -0.0564416 -0.415775 -0.792624 0.445957 0.0391849 0.0851921 -0.995594 
-0.382175 -0.718038 -0.581691 -0.393708 -0.741242 -0.543649 -0.352725 -0.659466 -0.663845 
-0.457022 -0.866778 0.199568 -0.463038 -0.876765 0.129921 -0.0558557 -0.0931264 -0.994086 
-0.449604 -0.853274 0.264158 0.16797 0.331702 -0.92831 0.202637 0.396718 -0.895295 
0.430019 0.818249 -0.381513 0.466829 0.883162 0.0457738 0.448236 0.845224 0.290999 
-0.409753 -0.770955 -0.487577 -0.394649 -0.739186 -0.545762 -0.459038 -0.870103 0.179456 
0.316523 0.606766 -0.729142 0.437784 0.832578 -0.339351 0.462635 0.873102 0.153823 
0.445715 0.838912 0.312354 0.460556 0.874149 -0.154115 0 -0.178885 0.98387 
0.839842 -0.0594698 -0.539564 0.227944 -0.451046 -0.862902 0.54787 0.25372 -0.79716 
0.949363 -0.142942 -0.279781 -0.0626951 -0.206591 -0.976417 0.296532 0.403423 -0.865632 
-0.112266 -0.286685 -0.951424 -0.13843 -0.328185 -0.934415 -0.170641 -0.379833 -0.90918 
-0.329842 -0.6254 -0.707162 -0.100934 -0.198978 0.974792 -0.265651 -0.498555 -0.82515 
0.435583 0.820902 0.369306 0.465912 0.880345 0.088985 0.457761 0.868024 -0.192325 
0.460878 0.869453 0.177886 0.720564 0.34316 -0.602519 0.351305 -0.157611 -0.9229 
0.216291 0.347849 -0.912261 0.845479 0.50913 -0.161096 0.90778 0.35088 -0.229823 
-0.329907 -0.623031 -0.70922 -0.389223 -0.708483 -0.588691 -0.262342 -0.522 -0.811599 
0.0849808 0.0347082 -0.995778 -0.222873 -0.461188 -0.858856 -0.444007 -0.791106 -0.420724 
-0.118532 -0.296254 -0.947726 0.446148 0.688994 -0.571173 -0.34851 -0.654867 -0.67059 
0.397688 0.594569 -0.698808 0.279822 0.522331 0.805524 -0.368375 -0.742326 -0.559689 
0.373889 0.751991 0.542878 0.37317 0.750387 0.545586 0.0599754 0.44665 -0.892696 
-0.211475 0.0211332 -0.977155 -0.263765 0.214565 -0.94042 0.420658 0.637687 -0.645292 
0.107272 0.167646 -0.979994 0.65124 0.739028 -0.172408 0.430429 0.451549 -0.781559 
-0.127635 -0.313893 -0.94084 -0.107655 -0.282345 -0.953253 -0.12196 -0.305 -0.944511 
-0.0200732 0.0759023 0.996913 -0.038497 -0.169745 -0.984736 -0.386828 -0.706066 -0.593156 
-0.347269 -0.649868 -0.676074 -0.137316 -0.327221 -0.934917 0.501782 0.810777 -0.301421 
0.14026 0.252156 0.957468 -0.360301 -0.728949 -0.58208 -0.369632 -0.747267 -0.552235 
0.347108 0.751801 -0.560635 -0.16737 0.196162 -0.966182 -0.0430365 0.641849 -0.765623 
0.366018 0.740345 -0.563844 0.156197 0.288637 -0.944612 -0.484238 -0.826261 -0.28776 
-0.223545 -0.462035 -0.858226 -0.240335 -0.486966 -0.839704 -0.434672 -0.644657 0.628871 
-0.372787 -0.530111 0.761585 0.00384101 -0.0527459 0.998601 0.244598 0.495496 0.83346 
0.314607 0.599186 0.736206 0.0988853 0.158947 0.982323 0.0635331 0.0873834 0.994147 
-0.302389 -0.580161 -0.75629 0.357419 0.495803 -0.791474 -0.496883 -0.769926 0.400401 
0.343331 0.639668 0.687713 0.363204 0.668864 0.648617 0.360912 0.665804 0.65303 
0.128132 0.220408 0.966955 0.437763 0.645577 -0.625775 0.520373 0.853717 0.0194535 
0.301244 0.620941 0.72366 0.287369 0.582689 0.760193 -0.302307 -0.0993051 -0.948024 
-0.350871 -0.814817 -0.461479 -0.71915 0.176281 -0.672123 0.115931 0.282311 -0.952292 
0.0542614 -0.74144 -0.668822 0.975002 -0.158216 -0.156006 -0.452985 -0.860262 0.233998 
0.305212 0.570078 0.762795 0.372264 0.69953 0.609981 0.0739459 -0.555921 -0.82794 
0.109824 -0.752495 -0.649377 -0.235825 -0.471651 -0.849666 -0.238615 0.782457 -0.575174 
0.922388 -0.0582994 0.381841 0.515387 0.850933 -0.101434 -0.408764 -0.779825 0.474115 
-0.29311 -0.566698 0.770026 0.247299 0.456553 0.854636 0.371002 0.695414 0.615433 
0.430471 0.811443 0.395292 0.455114 -0.518311 -0.724034 0.28597 -0.34213 -0.89508 
0.825723 -0.381472 -0.415525 -0.335234 -0.10638 -0.93611 -0.0433618 -0.857781 -0.512183 
-0.425561 -0.221296 -0.877454 -0.279161 -0.0474426 -0.959072 -0.323079 -0.120161 -0.938713 
-0.163363 -0.139521 -0.97665 -0.434143 -0.824637 0.362621 0.168625 0.786954 0.593522 
-0.415057 -0.790224 0.450859 -0.418197 -0.796735 0.436261 -0.379111 -0.726384 0.573273 
-0.139261 -0.277974 0.95044 0.217304 -0.12359 -0.968248 -0.168971 -0.445778 -0.879051 
-0.0808623 -0.128876 -0.988358 0.457641 -0.333745 -0.824123 -0.454414 0.189753 -0.870346 
-0.563348 0.0615222 -0.823926 -0.517189 0.195172 -0.83332 -0.396842 0.161326 -0.903598 
-0.0981521 0.692434 -0.714774 -0.174854 -0.0706595 -0.982056 -0.254737 -0.475012 -0.842302 
0.347156 0.664873 -0.661382 0.423072 0.805511 -0.414925 0.466939 0.884168 -0.0146617 
-0.31053 -0.21829 -0.92516 0.299833 0.0332617 -0.953412 -0.687642 -0.642457 -0.338227 
-0.629791 -0.602043 -0.490824 -0.698577 -0.566991 -0.436477 0.108444 0.280435 0.953728 
-0.495153 -0.820637 -0.285268 0.200022 0.42617 0.882253 -0.419826 0.546948 -0.724289 
-0.183084 0.922795 -0.339014 0.386209 0.735003 -0.557327 -0.516068 -0.239778 -0.822302 
0.0815456 0.145052 -0.986058 0.873799 0.485592 -0.0260046 -0.203244 -0.812976 -0.545675 
-0.277503 -0.711043 -0.646073 -0.294724 -0.862793 -0.410762 0.653034 0.623347 0.430099 
0.298931 0.577302 0.759844 -0.204558 -0.537263 -0.818233 0.331003 0.625325 0.706686 
0.17882 0.392396 0.902247 0.0133118 0.124327 0.992152 -0.322946 -0.457468 0.82851 
-0.152185 0.100113 -0.983269 0.587498 0.690867 -0.421366 -0.117342 0.833409 0.540055 
-0.152009 0.848964 0.506116 -0.223364 0.893456 0.389673 0.379113 0.735838 0.561084 
0.373563 0.684463 0.626068 0 -0.707107 -0.707107 -0.255204 -0.511407 -0.820569 
0.258036 0.515562 0.817076 -0.566006 -0.386564 -0.728152 -0.179096 0.270109 -0.946026 
0.335132 0.553162 -0.762692 -0.117342 0.833409 0.540055 -0.152009 0.848964 0.506116 
-0.223364 0.893456 0.389673 0.166589 -0.851088 -0.497893 0.000209726 0.110261 0.993903 
0 -0.707107 -0.707107 -0.317576 -0.602911 -0.731876 -0.0516421 0.023867 0.99838 
-0.474553 -0.548136 -0.688728 0.055446 0.351127 -0.934685 -0.240391 -0.213225 -0.946967 
0.0358916 0.26674 -0.9631 0.322315 0.839815 -0.436834 0.550978 0.790424 -0.267681 
0.24853 0.304134 -0.919639 0.166589 -0.851088 -0.497893 0.482625 0.739954 -0.468553 
0.295296 0.36279 -0.883846 0.396272 0.739738 -0.543835 -0.0228092 -0.73109 0.681899 
-0.888109 -0.317582 0.33227 0.36387 -0.791243 0.491459 0.662777 0.169538 0.729372 
-0.00215908 -0.946667 -0.322208 -0.284635 -0.613461 -0.736647 0.57653 -0.229307 0.784239 
-0.529023 0.803892 0.271831 0.211411 0.735247 0.643986 0.889101 -0.408351 -0.20676 
0.255432 -0.930835 0.261343 -0.422273 -0.478121 -0.770121 0.51079 -0.601052 0.614679 
0.653802 -0.224332 0.722647 -0.166493 0.764883 0.622281 -0.577324 -0.0894183 -0.811604 
-0.644968 0.218134 -0.732416 0.4319 0.685146 0.586547 0.688374 0.165383 0.70625 
0.996655 0.0713546 -0.0398545 -0.482016 -0.564553 -0.67003 -0.527086 -0.639914 -0.559187 
-0.431365 -0.727654 -0.533333 -0.428627 -0.836232 -0.342046 0.689221 -0.281419 0.667666 
-0.480727 0.662263 -0.574726 -0.0389005 0.984642 0.170195 -0.587143 -0.352274 -0.728812 
-0.0457261 -0.938235 -0.342963 0.578417 0.64643 0.497557 0.388328 0.77945 0.491588 
-0.809814 -0.564002 -0.161564 0 0 0 0.327644 0.254571 0.909859 
-0.162976 -0.515374 -0.841325 0.597566 0.673558 0.435011 -0.808075 -0.579049 -0.108249 
0 0 0 0.327644 0.254571 0.909859 -0.162976 -0.515374 -0.841325 
0.187874 -0.867827 -0.459978 -0.9273 -0.0251373 0.373473 -0.730088 -0.662867 -0.166066 
-0.819181 -0.566895 -0.0870179 0.432934 0.892195 -0.12867 0 0 0 
0 0 0 0.0615842 -0.771638 -0.633074 0.187874 -0.867827 -0.459978 
0 0 0 0.335758 0.92198 -0.192923 0 0 0 
-0.180678 -0.673667 -0.716609 -0.55596 -0.801189 -0.221371 -0.656809 -0.592558 -0.466345 
0.607424 -0.626493 -0.488408 0.231359 -0.925646 -0.299421 0.486026 -0.86426 0.12974 
-0.547238 -0.531356 -0.646677 -0.7511 -0.623854 -0.215995 -0.041487 -0.572777 -0.81866 
0.752558 -0.654584 -0.0719424 0.861184 -0.493176 -0.123046 -0.081131 0.191262 0.97818 
0.286724 -0.134646 0.948504 -0.75028 -0.653274 -0.101553 0.419632 -0.534391 -0.733714 
0.675043 -0.52111 -0.522265 0 -0.178885 -0.98387 0 -1 0 
-0.961524 -0.274721 3.6843e-08 0.961524 -0.274721 3.6843e-08 -0.173088 -0.280962 0.943981 
0.0254526 -0.576329 -0.816822 -0.360955 -0.887531 -0.286358 0.302311 -0.554109 0.77561 
-0.920774 -0.382547 0.0763706 0.421331 -0.560192 0.713207 0 0.447214 -0.894427 
0.587578 -0.091346 0.803995 0.478332 -0.268185 0.836227 -0.682819 -0.477573 -0.552885 
-0.548731 -0.510428 -0.662086 -0.806548 0.544795 0.229519 0.328926 0.127889 0.935656 
0.412422 0.397571 0.819662 0.0920492 0.724984 0.682587 -0.71342 -0.450216 -0.536971 
-0.504018 -0.625556 -0.595521 -0.0662048 -0.97687 0.203327 0.604102 0.175369 0.777371 
-0.515872 0.854216 -0.0647314 -0.838865 -0.460712 -0.289914 -0.53483 -0.64058 -0.551012 
0.434666 0.727282 0.531156 0.488633 0.581444 0.650508 0.725683 0.687638 -0.0232167 
0.447214 0 0.894427 0.447214 0 0.894427 -0.447214 0 -0.894427 
0.254197 -0.955595 -0.149067 0.447214 0 0.894427 0.447214 0 0.894427 
-0.447214 0 -0.894427 0.447214 0 0.894427 -0.556262 0.678677 0.479552 
-0.993582 -0.102685 -0.0474449 0.508274 0.861069 -0.0147667 0 0 0 
0.27387 -0.903572 -0.329475 -0.295674 0.903017 0.311668 0.447214 0 0.894427 
-0.0276992 0.99681 0.0748548 0.164874 -0.846939 -0.50548 -0.103623 -0.982496 0.154801 
-0.372231 -0.888478 0.268422 0.542245 -0.815933 0.200558 0.259966 -0.923895 0.280776 
0.843312 -0.520558 0.13358 0 -0.178885 0.98387 -0.807763 -0.589495 0.00389682 
0.11023 -0.111654 0.987615 0.382013 -0.207301 0.900606 0.0566668 0.389659 0.919214 
-0.485693 -0.587848 -0.646944 -0.635458 -0.492794 -0.59443 0.472138 0.335755 0.81508 
0.576721 0.366847 0.729943 0.954388 0.298498 0.00658148 0.607248 0.484703 0.629534 
0.520854 0.606225 0.601001 0 0 0 -0.911717 -0.355933 0.205144 
0 0 0 -0.840357 -0.534722 0.0887334 -0.650982 0.140811 0.745918 
-0.431874 0.900281 0.0545756 -0.811524 -0.536073 -0.232498 -0.819472 -0.258787 0.511366 
0.300791 0.952163 0.053957 0.319749 0.942813 0.0941493 -0.447214 0.894427 0 
0 0 0 -0.325951 0.90959 0.257687 -0.654903 -0.378875 -0.653878 
-0.296865 0.845155 -0.444504 0.27303 -0.898077 -0.344836 -0.215475 -0.960318 0.177087 
-0.771394 -0.635805 0.0265201 0.563174 -0.796899 0.218601 0.876232 -0.476506 0.071829 
0.919588 0.383661 0.0846313 -0.666655 -0.497876 -0.554699 0.390939 0.918443 -0.0602443 
-0.166032 0.767835 0.618759 -0.50579 0.766281 0.396218 0 0 0 
0.543035 -0.837239 0.0643726 0.995508 -0.0944219 0.00691544 0.98149 0.191482 0.00338395 
-0.989433 0.0162913 0.144072 0.349448 0.936692 -0.022254 -0.370926 -0.928329 -0.0248893 
0.900649 -0.434111 0.0194578 0.718043 0.695992 -0.00292906 -0.586044 0.809369 -0.0383939 
0.114361 0.993384 0.0105101 -0.434241 -0.89758 0.076056 0.237385 -0.967595 -0.0860708 
0.924256 -0.381446 0.0157814 -0.654341 -0.755834 0.0235387 0.954468 0.298276 0.00463386 
-0.979019 -0.200562 -0.0360062 -0.848211 0.369282 -0.379697 -0.908766 -0.360156 -0.210788 
-0.769786 0.267083 -0.579738 -0.137521 0.961923 -0.236205 0.215844 0.940817 -0.261293 
0.535846 0.739579 -0.407299 0.664598 0.71955 -0.20139 -0.817621 -0.21184 -0.535369 
-0.438428 0.679088 -0.588745 -0.193965 0.658918 -0.726777 -0.116727 0.884247 -0.452197 
0.625313 -0.780373 0.00157283 -0.956392 -0.137639 -0.257625 -0.972753 0.054913 -0.225246 
0.885182 -0.441151 0.147779 0.0518936 0.85572 -0.51483 0.940585 0.219528 0.25905 
-0.228649 -0.962405 0.146615 -0.172872 -0.979324 -0.105071 0.444022 -0.886525 -0.130069 
0.402142 -0.911712 0.0840441 0.809005 -0.575557 0.119354 -0.539923 -0.825606 0.163883 
-0.825018 -0.56126 0.065825 0.00990495 -0.14659 -0.989148 -0.251179 -0.853633 -0.45631 
-0.68324 0.345565 -0.643248 0.710583 -0.497429 -0.497631 0.336164 0.760744 -0.555214 
0.998032 0.0559009 0.0284052 -0.895198 -0.0909109 -0.436297 -0.880108 -0.420652 -0.22014 
-0.548062 0.400221 -0.734473 0.333742 0.90747 -0.255176 -0.898339 0.367842 -0.240166 
-0.80872 0.566083 -0.159759 0.788194 -0.600323 0.135511 0.134296 0.938552 -0.317938 
0.478452 0.839097 0.258844 -0.134667 -0.899249 0.416193 0.468827 -0.775195 0.423407 
0.306218 -0.836674 0.454101 -0.678163 -0.545505 0.492462 0.694252 0.39245 0.603323 
-0.301605 0.775626 0.554472 -0.00684647 0.107838 0.994145 -0.00575318 0.108568 0.994072 
-0.150789 -0.0818003 0.985176 -0.0768316 0.0602504 0.995222 -0.149676 -0.0827926 0.985263 
-0.743124 -0.650703 0.156049 0.764507 0.644515 0.0113314 -0.336945 -0.334203 0.880214 
-0.378088 -0.400751 0.834534 -0.133719 -0.0373873 0.990314 -0.5287 -0.650136 0.54571 
-0.862565 -0.388796 -0.323757 -0.830299 -0.557225 0.0101437 0.398007 0.917335 0.00934143 
-0.780381 0.603987 -0.161881 -0.722382 0.67864 -0.132712 0.925337 -0.268732 0.267459 
0.42452 0.476448 -0.769922 -0.323314 0.779972 -0.535828 0 -0.178885 -0.98387 
0 -1 0 -0.961524 -0.274721 3.6843e-08 0.149163 0.962015 0.228641 
0.961524 -0.274721 3.6843e-08 0 0.447214 -0.894427 0 -0.178885 -0.98387 
0 -1 0 -0.961524 -0.274721 3.6843e-08 0.961524 -0.274721 3.6843e-08 
0 0.447214 -0.894427 -0.136629 -0.4434 -0.885849 -0.388575 -0.841749 0.374791 
-0.985777 -0.00462645 -0.167994 0.398807 0.396334 -0.826966 0.411251 -0.81681 -0.404591 
0.995401 0.0817561 0.0499237 -0.339138 -0.802583 0.49076 0.186339 -0.755415 0.628192 
-0.136629 -0.4434 -0.885849 -0.388575 -0.841749 0.374791 -0.985777 -0.00462645 -0.167994 
0.398807 0.396334 -0.826966 0.411251 -0.81681 -0.404591 0.995401 0.0817561 0.0499237 
-0.215556 0.822193 -0.526814 0.183694 0.905125 0.383412 -0.499796 -0.700696 0.509145 
-0.252479 -0.706559 0.661082 0.192507 -0.735671 0.649407 0.756518 -0.514406 0.403816 
0.568827 -0.503249 0.65052 0 -0.178885 -0.98387 0 -1 0 
-0.961524 -0.274721 3.6843e-08 -0.215556 0.822193 -0.526814 0.961524 -0.274721 3.6843e-08 
0.183694 0.905125 0.383412 -0.699803 -0.557195 0.447 -0.115453 -0.607626 0.785787 
0.243836 -0.570241 0.784455 -0.0239846 -0.098275 0.99487 0 0.447214 -0.894427 
-0.333754 -0.520359 0.786025 0.96428 -0.0555859 0.258986 -0.727359 -0.521352 0.446253 
0.941244 0.29334 0.167367 0.00939422 0.129839 0.991491 -0.257069 -0.562068 -0.786126 
-0.5369 -0.40637 0.739325 0.845492 0.524701 0.0991566 -0.633065 -0.663268 0.399128 
-0.5991 -0.588751 0.542634 0.683436 0.70626 0.184694 -0.14725 -0.079509 0.985898 
-0.113845 -0.0117469 0.993429 -0.641823 -0.682615 0.349427 0.519473 0.801062 0.297403 
-0.399463 -0.43965 0.804448 -0.155203 -0.0698753 0.985408 -0.498962 -0.602377 0.623041 
0.10748 0.0190077 -0.994026 -0.67149 -0.712962 0.201957 0.456279 0.692417 0.558899 
0.447214 -0.894427 0 0.447214 -0.894427 0 0.593639 0.729586 0.339554 
0.42319 0.482026 -0.767177 0 -0.178885 0.98387 -0.299381 -0.925073 -0.233691 
0 -0.178885 0.98387 -0.46409 0.457452 0.758523 0.18337 -0.382116 0.905739 
-0.46409 0.457452 0.758523 0.18337 -0.382116 0.905739 -0.421269 -0.869285 -0.258604 
-0.425842 -0.878543 -0.21638 -0.422124 -0.870948 -0.251517 -0.424937 -0.876493 -0.22625 
-0.430891 -0.88879 -0.156159 -0.416334 -0.857576 0.302041 -0.334917 -0.688681 0.643078 
-0.423783 -0.87122 -0.247758 0 -0.178885 0.98387 -0.42666 -0.8799 -0.209133 
-0.418645 -0.863455 -0.281393 -0.409913 -0.847254 -0.337835 -0.394636 -0.818448 -0.417618 