# vtk DataFile Version 4.2
vtk output
ASCII
DATASET POLYDATA
POINTS 1744 float
343.43 147.121 25.816 343.186 147.198 25.8236 343.191 147.778 25.6827 
342.146 148.582 25.5806 339.645 149.414 25.7176 338.152 150.357 25.7748 
339.936 150.21 25.4283 340.537 150.728 25.3198 346.626 143.978 26.4105 
346.521 143.738 26.5661 346.433 143.926 26.4761 346.872 143.628 26.5069 
348.242 143.241 26.37 346.601 144.618 26.2472 349.882 144.078 26.2763 
343.961 145.987 26.357 345.163 146.597 25.9302 346.568 146.84 25.9075 
339.658 148.532 26.3938 338.933 149.344 26.0632 346.157 148.436 25.8865 
342.624 150.953 25.4632 344.464 150.374 25.6774 342.409 151.42 25.5161 
340.267 152.589 25.4892 327.915 154.891 26.3046 327.539 154.503 26.6105 
323.371 155.797 26.7867 321.861 156.852 26.4989 331.28 155.85 25.5601 
311.394 158.187 27.3085 311.176 158.399 27.2678 314.636 158.056 26.9728 
313.767 157.938 27.1381 315.319 157.475 27.2546 333.401 156.909 25.7596 
317.33 158.302 26.5399 320.8 158.014 26.2545 314.442 159.111 26.6001 
319.319 158.948 26.2359 322.976 158.749 26.1293 352.027 139.761 27.343 
352.814 139.43 27.4769 347.969 141.878 27.2826 348.966 141.809 26.9343 
346.068 143.869 26.7741 344.94 144.648 26.8488 342.197 146.973 26.4299 
349.412 146.14 26.3387 347.933 148.218 26.3469 321.192 155.962 27.1608 
322.501 155.267 27.4798 343.135 153.662 26.7535 336.566 157.095 26.4221 
309.86 159.781 27.2322 315.993 160.404 26.529 326.405 159.805 26.4546 
330.634 159.212 26.522 355.124 136.432 28.4621 351.653 138.296 28.2 
354.573 137.367 28.168 352.327 138.733 27.7545 354.814 139.487 28.0957 
344.326 144.649 27.4035 340.317 147.672 27.0488 331.235 152.302 27.4885 
328.005 153.627 27.4155 322.613 154.978 27.8128 322.325 154.944 28.0569 
344.651 152.993 27.0611 321.781 155.321 27.6796 342.968 154.666 27.5038 
311.411 157.836 27.5977 342.868 155.142 27.9913 310.315 158.066 28.1153 
306.845 159.509 28.4815 336.577 158.116 27.1751 320.182 160.316 26.453 
323.115 160.428 26.5371 337.015 158.622 27.8792 300.75 162.042 28.9624 
300.222 162.491 28.7263 301.986 162.207 28.4053 328.666 160.895 27.3287 
299.069 163.182 28.5944 298.815 162.948 28.9153 333.187 160.79 28.4576 
333.01 160.722 28.3042 297.74 164.12 28.5051 299.822 163.524 28.0889 
300.232 163.475 28.096 295.197 165.333 28.4106 291.431 165.829 29.0301 
287.736 167.543 28.8498 289.254 167.321 28.5469 291.575 166.948 28.2639 
285.667 168.663 28.9112 285.451 168.473 29.2094 286.825 168.286 28.6709 
292.819 167.054 28.0378 294.256 167.561 27.7702 285.116 169.208 28.9567 
286.171 169.306 28.4581 284.988 169.889 28.8415 356.509 133.048 29.6091 
356.445 132.966 29.657 356.579 132.826 29.7486 356.428 133.43 29.4832 
357.247 134.02 29.3184 354.638 135.853 28.7377 355.597 136.377 28.5684 
357.889 135.431 29.5289 355.888 137.032 28.5733 357.068 136.996 29.2144 
355.682 139.725 28.7386 347.953 141.226 28.144 344.523 144.094 28.3171 
343.711 144.878 28.0376 341.754 146.427 28.048 340.217 147.44 28.0163 
351.489 147.429 28.6223 336.552 149.701 27.9189 347.741 151.607 28.2532 
348.432 151.015 28.4869 347.393 152.595 29.0428 316.767 156.322 28.2498 
310.204 157.884 28.5555 302.963 160.798 29.3794 302.377 161.202 29.1221 
330.819 160.614 27.5606 337.149 159.118 28.6992 335.962 159.76 28.8511 
296.242 164.086 29.0736 297.602 163.257 29.3016 299.744 163.43 28.1184 
315.116 163.024 27.3046 329.402 161.906 28.5675 333.911 160.737 28.9711 
331.523 161.562 28.9807 297.318 165.682 28.0717 326.42 163.27 29.1322 
287.918 166.923 29.4626 297.044 166.531 27.9476 285.14 168.692 29.2935 
285.653 168.092 29.5409 297.7 168.141 27.9089 291.366 169.47 27.8117 
312.37 169.27 29.6255 283.976 171.39 29.4365 283.826 172.315 29.4018 
284.289 172.409 29.1028 303.891 172.078 29.0918 283.883 172.564 29.2856 
284.216 173.144 29.2959 284.972 174.165 29.0593 283.938 172.609 29.2237 
285.416 176.001 29.3917 358.619 130.778 30.5322 358.276 130.95 30.5249 
357.529 131.434 30.4737 356.833 132.312 30.1454 359.168 131.866 30.1909 
357.893 133.261 29.6752 358.532 132.998 29.8847 357.633 133.92 29.451 
359.684 133.241 30.4566 353.238 135.621 29.5384 358.635 134.181 29.8886 
351.606 137.303 29.1989 358.708 134.736 30.0316 358.196 136.219 30.0498 
348.441 140.421 29.282 347.501 141.327 29.1266 344.247 144.391 28.9577 
354.669 143.404 29.6717 341.464 146.723 29.0034 339.222 148.053 28.1029 
353.3 145.435 29.3983 352.807 146.372 29.7778 351.631 147.872 29.7938 
350.84 148.913 29.8877 331.135 152.07 28.5439 331.963 151.842 29.0624 
348.604 151.204 29.0754 349.076 150.758 29.3935 323.232 154.575 28.706 
324.303 154.325 28.826 313.925 156.837 28.9374 309.614 157.969 29.0193 
307.337 158.854 29.7008 301.678 161.222 29.6612 338.75 158.27 29.1935 
300.09 161.779 29.9303 299.467 162.155 29.6583 337.057 159.333 29.1417 
298.067 162.856 29.5734 296.447 163.521 29.7349 333.186 161.166 29.4103 
294.355 164.277 29.7747 331.374 161.798 29.4175 291.664 165.175 29.8587 
315.98 164.971 28.2116 287.332 167.089 29.6361 318.365 165.424 28.8789 
324.579 164.454 29.942 316.965 166.075 29.0168 322.509 165.405 30.1198 
315.799 166.831 29.2077 283.737 171.095 30.0007 283.763 171.502 29.6953 
303.432 170.221 28.3956 283.963 172.739 29.2651 283.961 176.436 30.6537 
291.4 175.85 29.2555 284.14 178.469 31.1501 360.613 127.851 31.6707 
360.186 128.382 31.4891 361.03 127.895 31.6404 360.504 128.902 31.2511 
358.859 130.169 30.8607 359.625 130.06 30.8449 360.215 129.693 30.9981 
360.955 128.91 31.2711 357.882 130.056 31.3619 361.134 129.635 31.1992 
359.756 131.182 30.5426 359.517 131.791 30.3374 360.006 133.278 30.7693 
359.264 134.578 30.5003 351.73 136.875 29.6558 358.81 136.2 30.8858 
349.16 139.698 30.209 357.852 137.814 30.7684 347.951 140.911 29.7369 
345.775 142.982 29.3127 354.36 144.184 30.4589 340.343 147.431 28.9195 
340.268 147.619 29.2778 352.385 146.976 30.378 351.399 148.189 30.1544 
348.17 151.936 30.1296 321.6 155.174 29.8242 346.383 153.695 29.8646 
313.873 156.957 30.0949 344.7 154.756 30.153 310.243 157.684 29.7744 
309.916 157.801 29.8668 343.159 155.835 29.9449 343.754 155.419 29.7479 
307.229 158.935 30.3057 305.146 159.685 30.407 301.492 161.184 30.1573 
336.508 159.789 30.1405 298.929 162.149 30.549 333.997 160.943 29.9545 
290.824 165.308 30.5383 324.47 164.812 30.4996 323.119 165.3 30.2441 
284.461 169.21 30.2334 319.645 166.749 30.4867 312.193 170.488 30.4889 
283.527 172.043 30.0707 283.588 174.002 30.5574 302.6 175.087 31.2977 
299.619 175.983 31.1388 283.706 177.538 31.3307 284.022 178.913 31.4387 
289.382 178.938 30.8343 284.194 179.091 31.4432 284.592 180.338 32.1326 
285.969 180.49 31.7344 287.591 180.328 31.6745 362.33 128.22 31.8892 
362.696 127.901 32.104 362.485 128.79 31.94 362.866 128.514 32.196 
357.071 130.481 31.7607 361.72 130.389 31.5927 362.323 129.929 32.0101 
361.418 131.665 31.6578 360.843 132.716 31.5158 352.432 135.936 30.2423 
352.588 135.716 30.5955 360.032 134.41 31.5091 351.024 137.498 30.2171 
349.913 138.996 30.5943 349.039 139.923 30.5049 348.485 140.799 30.5671 
356.29 140.795 31.2932 356.015 141.398 31.092 355.882 141.676 30.8203 
354.644 143.667 30.8107 342.895 146.101 29.8822 353.76 145.108 30.8645 
341.7 147.511 30.3612 351.685 147.583 30.9172 350.738 148.741 30.7093 
333.499 151.713 30.0368 324.578 154.422 29.8884 348.21 151.809 30.4627 
322.558 155.118 30.3684 345.661 153.918 31.0699 313.7 157.197 30.7588 
343.409 155.647 30.4366 343.196 155.893 30.2671 343.154 155.944 30.1933 
343.135 155.968 30.2919 309.64 158.006 30.1713 343.078 155.987 30.2447 
342.68 156.206 30.4622 301.273 161.252 30.9013 337.413 159.185 30.1957 
299.806 161.731 30.7627 333.38 161.178 30.5618 295.837 163.465 30.9745 
292.685 164.572 30.8411 289.265 165.864 31.3346 286.099 167.438 30.8547 
288.141 166.367 31.2667 325.26 164.654 31.2763 323.843 165.337 31.2382 
284.648 168.685 31.1082 320.515 166.762 31.047 283.65 170.611 31.1182 
303.2 175.227 31.7925 306.991 173.935 31.8009 283.354 176.509 31.6353 
283.253 176.117 31.86 283.51 177.785 31.7721 283.957 178.938 31.6241 
283.561 178.271 31.9448 284.377 180.688 32.7662 286.158 180.726 31.9852 
361.522 125.126 33.3955 359.684 127.382 32.4968 363.463 126.275 32.8403 
358.87 128.146 32.4516 358.457 128.306 32.8236 363.22 128.615 32.5521 
363.534 129.416 33.2784 352.723 135.627 30.994 360.583 133.79 31.982 
360.658 133.893 32.5147 351.455 137.158 31.0224 359.917 135 32.4645 
351.006 137.941 31.2809 358.802 136.586 31.8863 358.293 137.321 31.7762 
349.232 139.93 30.7706 349.752 139.601 31.0514 357.493 138.428 31.9292 
346.881 142.79 30.609 356.398 140.511 31.6108 355.994 140.946 31.7104 
354.864 142.925 31.4518 342.591 147.244 30.6823 352.847 146.127 31.3138 
340.301 149.411 31.0641 342.671 149.514 31.8934 349.566 149.74 31.1442 
348.849 150.311 31.4162 322.71 155.311 30.9361 325.858 154.506 30.6545 
320.533 155.807 30.817 321.928 155.434 30.7521 345.765 153.826 31.2714 
345.661 153.788 31.3611 346.228 153.416 31.2091 343.927 154.963 31.066 
345.805 153.773 31.3306 343.061 155.953 30.4345 306.533 159.44 31.3228 
309.769 158.25 30.8454 302.033 161.119 31.5685 337.821 158.448 31.257 
299.958 161.705 31.0604 336.029 159.941 30.7492 335.067 160.259 31.1751 
295.153 163.849 31.8227 331.708 161.821 30.9132 332.318 161.462 31.2401 
329.189 162.966 31.4591 329.852 162.566 31.5639 291.237 165.176 31.4724 
325.158 164.706 31.8628 322.843 165.925 31.9341 318.154 168.187 32.0721 
313.475 170.599 31.7738 283.23 173.126 31.6774 283.242 172.735 31.9738 
300.323 176.48 32.147 301.032 176.203 32.0423 283.324 177.894 32.4389 
289.834 180.073 32.2523 284.098 180.698 33.3373 286.424 181.075 32.6154 
364.372 122.021 34.6154 364.267 121.653 34.8192 364.629 121.91 34.6992 
363.707 122.426 34.5127 363.161 122.725 34.5262 362.934 123.286 34.1801 
364.096 123.339 34.0485 364.501 123 34.2754 362.605 123.465 34.1824 
364.726 125.932 33.7233 365.013 125.636 33.9879 357.987 128.719 33.2588 
[...]
POINT_DATA 1744
SCALARS scalars float
LOOKUP_TABLE default
1 1 1 1 1 1 1 1 1 
1 1 1 1 1 1 1 1 1 
1 1 1 1 1 1 1 1 1 
1 1 1 1 1 1 1 1 1 
1 1 1 1 1 1 1 1 1 
1 1 1 1 1 1 1 1 1 
1 1 1 1 1 1 1 1 1 
1 1 1 1 1 1 1 1 1 
1 1 1 1 1 1 1 1 1 
1 1 1 1 1 1 1 1 1 
1 1 1 1 1 1 1 1 1 
1 1 1 1 1 1 1 1 1 
1 1 1 1 1 1 1 1 1 
1 1 1 1 1 1 1 1 1 
1 1 1 1 1 1 1 1 1 
1 1 1 1 1 1 1 1 1 
1 1 1 1 1 1 1 1 1 
1 1 1 1 1 1 1 1 1 
1 1 1 1 1 1 1 1 1 
1 1 1 1 1 1 1 1 1 
1 1 1 1 1 1 1 1 1 
1 1 1 1 1 1 1 1 1 
1 1 1 1 1 1 1 1 1 
1 1 1 1 1 1 1 1 1 
1 1 1 1 1 1 1 1 1 
1 1 1 1 1 1 1 1 1 
1 1 1 1 1 1 1 1 1 
1 1 1 1 1 1 1 1 1 
1 1 1 1 1 1 1 1 1 
1 1 1 1 1 1 1 1 1 
1 1 1 1 1 1 1 1 1 
1 1 1 1 1 1 1 1 1 
1 1 1 1 1 1 1 1 1 
1 1 1 1 1 1 1 1 1 
1 1 1 1 1 1 1 1 1 
1 1 1 1 1 1 1 1 1 
1 1 1 1 1 1 1 1 1 
1 1 1 1 1 1 1 1 1 
1 1 1 1 1 1 1 1 1 
1 1 1 1 1 1 1 1 1 
1 1 1 1 1 1 1 1 1 
1 1 1 1 1 1 1 1 1 
1 1 1 1 1 1 1 1 1 
1 1 1 1 1 1 1 1 1 
1 1 1 1 1 1 1 1 1 
1 1 1 1 1 1 1 1 1 
1 1 1 1 1 1 1 1 1 
1 1 1 1 1 1 1 1 1 
1 1 1 1 1 1 1 1 1 
1 1 1 1 1 1 1 1 1 
1 1 1 1 1 1 1 1 1 
1 1 1 1 1 1 1 1 1 
1 1 1 1 1 1 1 1 1 
1 1 1 1 1 1 1 1 1 
1 1 1 1 1 1 1 1 1 
1 1 1 1 1 1 1 1 1 
1 1 1 1 1 1 1 1 1 
1 1 1 1 1 1 1 1 1 
1 1 1 1 1 1 1 1 1 
1 1 1 1 1 1 1 1 1 
1 1 1 1 1 1 1 1 1 
1 1 1 1 1 1 1 1 1 
1 1 1 1 1 1 1 1 1 
1 1 1 1 1 1 1 1 1 
1 1 1 1 1 1 1 1 1 
1 1 1 1 1 1 1 1 1 
1 1 1 1 1 1 1 1 1 
1 1 1 1 1 1 1 1 1 
1 1 1 1 1 1 1 1 1 
1 1 1 1 1 1 1 1 1 
1 1 1 1 1 1 1 1 1 
1 1 1 1 1 1 1 1 1 
1 1 1 1 1 1 1 1 1 
1 1 1 1 1 1 1 1 1 
1 1 1 1 1 1 1 1 1 
1 1 1 1 1 1 1 1 1 
1 1 1 1 1 1 1 1 1 
1 1 1 1 1 1 1 1 1 
1 1 1 1 1 1 1 1 1 
1 1 1 1 1 1 1 1 1 
1 1 1 1 1 1 1 1 1 
1 1 1 1 1 1 1 1 1 
1 1 1 1 1 1 1 1 1 
1 1 1 1 1 1 1 1 1 
1 1 1 1 1 1 1 1 1 
1 1 1 1 1 1 1 1 1 
1 1 1 1 1 1 1 1 1 
1 1 1 1 1 1 1 1 1 
1 1 1 1 1 1 1 1 1 
1 1 1 1 1 1 1 1 1 
1 1 1 1 1 1 1 1 1 
1 1 1 1 1 1 1 1 1 
1 1 1 1 1 1 1 1 1 
1 1 1 1 1 1 1 1 1 
1 1 1 1 1 1 1 1 1 
1 1 1 1 1 1 1 1 1 
1 1 1 1 1 1 1 1 1 
1 1 1 1 1 1 1 1 1 
1 1 1 1 1 1 1 1 1 
1 1 1 1 1 1 1 1 1 
1 1 1 1 1 1 1 1 1 
1 1 1 1 1 1 1 1 1 
1 1 1 1 1 1 1 1 1 
1 1 1 1 1 1 1 1 1 
1 1 1 1 1 1 1 1 1 
1 1 1 1 1 1 1 1 1 
1 1 1 1 1 1 1 1 1 
1 1 1 1 1 1 1 1 1 
1 1 1 1 1 1 1 1 1 
1 1 1 1 1 1 1 1 1 
1 1 1 1 1 1 1 1 1 
1 1 1 1 1 1 1 1 1 
1 1 1 1 1 1 1 1 1 
1 1 1 1 1 1 1 1 1 
1 1 1 1 1 1 1 1 1 
1 1 1 1 1 1 1 1 1 
1 1 1 1 1 1 1 1 1 
1 1 1 1 1 1 1 1 1 
1 1 1 1 1 1 1 1 1 
1 1 1 1 1 1 1 1 1 
1 1 1 1 1 1 1 1 1 
1 1 1 1 1 1 1 1 1 
1 1 1 1 1 1 1 1 1 
1 1 1 1 1 1 1 1 1 
1 1 1 1 1 1 1 1 1 
1 1 1 1 1 1 1 1 1 
1 1 1 1 1 1 1 1 1 
1 1 1 1 1 1 1 1 1 
1 1 1 1 1 1 1 1 1 
1 1 1 1 1 1 1 1 1 
1 1 1 1 1 1 1 1 1 
1 1 1 1 1 1 1 1 1 
1 1 1 1 1 1 1 1 1 
1 1 1 1 1 1 1 1 1 
1 1 1 1 1 1 1 1 1 
1 1 1 1 1 1 1 1 1 
1 1 1 1 1 1 1 1 1 
1 1 1 1 1 1 1 1 1 
1 1 1 1 1 1 1 1 1 
1 1 1 1 1 1 1 1 1 
1 1 1 1 1 1 1 1 1 
1 1 1 1 1 1 1 1 1 
1 1 1 1 1 1 1 1 1 
1 1 1 1 1 1 1 1 1 
1 1 1 1 1 1 1 1 1 
1 1 1 1 1 1 1 1 1 
1 1 1 1 1 1 1 1 1 
1 1 1 1 1 1 1 1 1 
1 1 1 1 1 1 1 1 1 
1 1 1 1 1 1 1 1 1 
1 1 1 1 1 1 1 1 1 
1 1 1 1 1 1 1 1 1 
1 1 1 1 1 1 1 1 1 
1 1 1 1 1 1 1 1 1 
1 1 1 1 1 1 1 1 1 
1 1 1 1 1 1 1 1 1 
1 1 1 1 1 1 1 1 1 
1 1 1 1 1 1 1 1 1 
1 1 1 1 1 1 1 1 1 
1 1 1 1 1 1 1 1 1 
1 1 1 1 1 1 1 1 1 
1 1 1 1 1 1 1 1 1 
1 1 1 1 1 1 1 1 1 
1 1 1 1 1 1 1 1 1 
1 1 1 1 1 1 1 1 1 
1 1 1 1 1 1 1 1 1 
1 1 1 1 1 1 1 1 1 
1 1 1 1 1 1 1 1 1 
1 1 1 1 1 1 1 1 1 
1 1 1 1 1 1 1 1 1 
1 1 1 1 1 1 1 1 1 
1 1 1 1 1 1 1 1 1 
1 1 1 1 1 1 1 1 1 
1 1 1 1 1 1 1 1 1 
1 1 1 1 1 1 1 1 1 
1 1 1 1 1 1 1 1 1 
1 1 1 1 1 1 1 1 1 
1 1 1 1 1 1 1 1 1 
1 1 1 1 1 1 1 1 1 
1 1 1 1 1 1 1 1 1 
1 1 1 1 1 1 1 1 1 
1 1 1 1 1 1 1 1 1 
1 1 1 1 1 1 1 1 1 
1 1 1 1 1 1 1 1 1 
1 1 1 1 1 1 1 1 1 
1 1 1 1 1 1 1 1 1 
1 1 1 1 1 1 1 1 1 
1 1 1 1 1 1 1 1 1 
1 1 1 1 1 1 1 1 1 
1 1 1 1 1 1 1 1 1 
1 1 1 1 1 1 1 1 1 
1 1 1 1 1 1 1 1 1 
1 1 1 1 1 1 1 1 1 
1 1 1 1 1 1 1 
NORMALS Normals float
-0.155405 -0.439914 -0.884491 -0.289241 -0.40105 -0.869195 -0.117169 -0.202594 -0.972228 
-0.0812256 -0.186871 -0.979021 -0.21008 -0.413654 -0.885865 -0.397936 -0.305471 -0.865063 
-0.165733 -0.250432 -0.953843 -0.0257237 -0.0789171 -0.996549 -0.167927 -0.358826 -0.918175 
-0.333372 -0.656954 -0.676221 -0.336619 -0.466864 -0.817757 -0.209364 -0.463527 -0.860993 
-0.101751 -0.324743 -0.940313 -0.061804 -0.187103 -0.980394 0.173663 -0.0130018 -0.984719 
-0.20359 -0.478078 -0.854396 0.0307097 -0.258423 -0.965544 0.0927604 -0.147604 -0.984687 
-0.496165 -0.750313 -0.436865 -0.55654 -0.518749 -0.648971 0.227645 0.140291 -0.963585 
0.00956433 0.0412418 -0.999103 0.192122 0.115879 -0.974505 0.144606 0.216834 -0.965439 
0.090999 0.255862 -0.962421 -0.173727 -0.453115 -0.87436 -0.16496 -0.554322 -0.815791 
-0.129623 -0.512388 -0.848915 -0.122511 -0.449559 -0.88481 -0.115938 -0.0796203 -0.99006 
-0.227572 -0.51725 -0.825023 -0.302925 -0.44845 -0.84091 -0.224015 -0.613997 -0.756852 
-0.111434 -0.443329 -0.889405 -0.240282 -0.628194 -0.740025 0.118221 0.413282 -0.902896 
-0.112297 -0.179833 -0.977266 -0.0956924 -0.157219 -0.982917 -0.0879722 -0.106784 -0.990383 
-0.06542 0.0855651 -0.994183 -0.0627758 -0.0397815 -0.997234 -0.0478576 -0.246677 -0.967915 
0.195741 -0.215033 -0.95679 -0.455419 -0.590345 -0.666399 -0.0808647 -0.329223 -0.940783 
-0.456122 -0.683155 -0.570309 -0.522943 -0.507277 -0.684982 -0.406264 -0.635077 -0.656983 
0.388634 0.176884 -0.904254 0.396612 0.307214 -0.865054 -0.15533 -0.58228 -0.798011 
-0.231319 -0.714004 -0.660825 0.494924 0.487705 -0.719162 0.318642 0.534318 -0.782925 
-0.202897 -0.250929 -0.946503 -0.0153559 0.192035 -0.981268 0.0335731 0.511344 -0.85872 
0.109166 0.462012 -0.88013 0.126 -0.282889 -0.950841 -0.285548 -0.592007 -0.753651 
-0.0305426 -0.304761 -0.951939 -0.0110579 -0.397644 -0.917473 0.292913 -0.0472403 -0.954971 
-0.640371 -0.644454 -0.417857 -0.518519 -0.783803 -0.341747 -0.351525 -0.931129 -0.0971052 
-0.268623 -0.841677 -0.468424 -0.229686 -0.847301 -0.478878 -0.267525 -0.90701 -0.325213 
0.424921 0.493732 -0.75873 -0.178505 -0.728592 -0.661279 0.544098 0.544774 -0.638106 
-0.287675 -0.797089 -0.530936 0.534092 0.724529 -0.435664 -0.188774 -0.856014 -0.481253 
-0.385133 -0.785882 -0.483799 0.275854 0.634767 -0.721786 -0.0161158 0.345025 -0.938455 
0.0085491 0.340755 -0.940113 0.335414 0.738176 -0.585315 -0.308652 -0.741817 -0.595349 
-0.25642 -0.682007 -0.68492 -0.210246 -0.460467 -0.862419 0.0637139 0.681972 -0.728598 
-0.344419 -0.620823 -0.70424 -0.407602 -0.719997 -0.561663 0.313628 0.771007 -0.554244 
0.264979 0.743513 -0.613982 -0.19912 -0.368984 -0.907856 -0.054817 0.149007 -0.987316 
-0.0361377 -0.197561 -0.979624 -0.139202 -0.305258 -0.942041 -0.188325 -0.632905 -0.750976 
-0.257474 -0.562098 -0.785972 -0.256395 -0.58764 -0.767425 0.00474242 -0.243256 -0.969951 
-0.404713 -0.52028 -0.752008 -0.566004 -0.709208 -0.420314 -0.294234 -0.542579 -0.786787 
-0.0582759 -0.450155 -0.891047 -0.0659127 -0.181807 -0.981123 -0.634065 -0.330746 -0.698976 
-0.210357 -0.162186 -0.964078 -0.660649 -0.216268 -0.718867 0.146829 -0.348757 -0.92564 
-0.249494 -0.577778 -0.777126 0.234656 -0.474768 -0.848252 0.110535 -0.358433 -0.926989 
0.21459 -0.188226 -0.958396 -0.128677 -0.394144 -0.909996 0.24916 -0.229503 -0.940876 
0.565098 0.134191 -0.814037 0.383399 -0.0534389 -0.922036 0.516351 0.0509077 -0.854862 
0.662634 0.268604 -0.699119 -0.646457 -0.714555 -0.267403 -0.673848 -0.718435 -0.172569 
-0.653502 -0.642201 -0.400642 -0.584513 -0.809325 -0.0577695 -0.586901 -0.802508 -0.107369 
0.684889 0.546806 -0.481592 -0.448854 -0.892986 -0.0332634 0.632294 0.554987 -0.540549 
0.656591 0.64032 -0.398597 0.628863 0.674873 -0.386107 -0.260592 -0.873708 -0.410763 
-0.108853 -0.94635 -0.304257 -0.317607 -0.898446 -0.303184 -0.314235 -0.701178 -0.640005 
0.11173 0.730195 -0.674041 0.412819 0.841908 -0.347522 0.372157 0.83388 -0.407607 
-0.295189 -0.703931 -0.646022 -0.334943 -0.781325 -0.526634 -0.214214 -0.502107 -0.837855 
0.108693 0.335756 -0.935657 0.130483 0.726393 -0.674779 0.431877 0.789223 -0.436587 
0.306033 0.87115 -0.383981 0.0205378 -0.260479 -0.965261 0.237127 0.766163 -0.597298 
-0.347262 -0.854585 -0.386127 -0.0902274 -0.0593591 -0.994151 -0.667172 -0.569604 -0.480034 
-0.510704 -0.736271 -0.443944 0.0283091 -0.00993767 -0.99955 0.321918 0.0341163 -0.946153 
0.284641 0.520638 -0.804932 -0.726146 -0.158787 -0.668954 -0.851877 -0.0590496 -0.520402 
-0.298302 0.0438475 -0.953464 0.190879 0.576044 -0.79482 -0.903069 0.236386 -0.358592 
-0.652144 0.387646 -0.65149 -0.446719 0.199159 -0.872226 -0.581513 0.0717693 -0.810365 
-0.143241 0.405086 -0.902988 0.000676938 -0.365821 -0.930685 -0.340177 -0.509256 -0.79053 
-0.183285 -0.465001 -0.86613 -0.348305 -0.643207 -0.681886 0.211858 -0.250556 -0.944636 
0.161632 -0.323033 -0.932483 0.178142 -0.184609 -0.966532 0.321218 -0.130936 -0.93791 
0.621383 0.0992326 -0.777198 -0.450268 -0.575681 -0.682532 0.495454 0.0784619 -0.865083 
-0.495494 -0.696521 -0.518983 0.5853 0.367531 -0.722735 0.756945 0.333236 -0.562128 
-0.672945 -0.739536 -0.0152312 -0.683791 -0.703266 -0.194542 -0.683531 -0.720043 0.119676 
0.825646 0.48125 -0.294461 -0.523912 -0.788397 0.322406 -0.561455 -0.82322 0.0841292 
0.800722 0.461167 -0.382322 0.741815 0.636887 -0.209963 0.750681 0.649828 -0.119171 
0.718961 0.686718 0.107302 -0.36794 -0.927068 0.0718716 -0.434182 -0.853681 0.287601 
0.732106 0.646887 -0.213442 0.769395 0.626087 -0.126674 -0.241664 -0.970312 -0.00969796 
-0.208863 -0.977164 0.0390719 -0.307842 -0.951203 0.0211461 -0.420663 -0.901845 -0.0985824 
-0.393191 -0.915532 -0.084865 -0.392755 -0.806579 -0.441786 0.524089 0.847852 -0.0804886 
-0.321356 -0.907425 -0.270757 -0.358588 -0.806059 -0.470833 0.403307 0.86746 -0.291301 
-0.395999 -0.732761 -0.553394 -0.407379 -0.775641 -0.482102 0.250511 0.947796 -0.197301 
-0.315505 -0.915028 -0.251357 0.340109 0.889006 -0.306584 -0.350887 -0.854286 -0.383501 
0.193034 0.387071 -0.901617 -0.402594 -0.803384 -0.43874 0.201034 0.537649 -0.818852 
0.347044 0.819023 -0.456905 0.26204 0.479079 -0.837746 0.285684 0.830008 -0.479031 
0.197759 0.556914 -0.806683 -0.900978 -0.282105 -0.32963 -0.846999 -0.128169 -0.515913 
0.0666288 0.310835 -0.948126 -0.842576 0.449825 -0.296183 -0.785658 0.155506 -0.598798 
0.0987111 0.25443 -0.96204 -0.620389 0.308061 -0.72126 -0.100382 -0.283954 -0.953569 
-0.193675 -0.466086 -0.863281 0.000834138 -0.392369 -0.919808 0.00597634 -0.361975 -0.932169 
-0.127783 -0.559035 -0.819238 -0.0109844 -0.461698 -0.886969 -0.00282963 -0.346724 -0.937963 
0.146476 -0.311002 -0.939054 -0.388597 -0.593116 -0.705128 0.325525 -0.0949404 -0.940755 
0.298146 -0.167453 -0.939717 0.442657 -0.112592 -0.889594 0.699508 0.207519 -0.683831 
0.671799 0.430951 -0.602468 -0.549091 -0.746941 -0.374939 0.779726 0.515452 -0.355439 
-0.615155 -0.787889 0.0285542 0.832502 0.503468 -0.231217 -0.678916 -0.719994 0.143814 
-0.669075 -0.737988 0.0878161 0.796437 0.595806 0.103457 -0.57565 -0.770255 0.274471 
-0.618209 -0.697338 0.362682 0.743996 0.666184 0.0516605 0.746905 0.656517 0.105445 
0.728883 0.671602 -0.132966 -0.297312 -0.94727 0.119517 0.631621 0.77403 0.043957 
-0.166194 -0.894442 0.415154 0.533763 0.843428 0.0610444 -0.146117 -0.987527 0.0586482 
-0.385922 -0.912374 0.13652 0.53161 0.80058 -0.276519 0.602444 0.793854 -0.0828043 
-0.304069 -0.90449 0.299065 -0.40633 -0.887176 0.218666 -0.365638 -0.912436 -0.183762 
0.446261 0.894802 -0.0134399 -0.41249 -0.906369 -0.0913607 0.437911 0.898972 0.00914345 
-0.396084 -0.91621 -0.0606353 0.350833 0.888799 -0.294878 0.302924 0.858656 -0.413458 
-0.804789 -0.531683 -0.26387 0.337716 0.686602 -0.643837 0.406901 0.701577 -0.584997 
-0.934621 -0.0374 -0.353672 -0.873995 0.106155 -0.474198 0.205008 0.807867 -0.552561 
0.164659 0.748218 -0.642695 -0.898158 0.0265201 -0.438872 -0.747913 0.38497 -0.540762 
0.205153 0.621982 -0.755679 -0.500946 0.55839 -0.661251 -0.367289 0.559545 -0.742972 
-0.0565782 0.667827 -0.742163 0.10731 0.716799 -0.688973 0.274991 -0.0964702 -0.956595 
0.511051 -0.132512 -0.849275 0.553933 0.156901 -0.817643 0.609109 0.0169123 -0.792906 
-0.545406 -0.613834 -0.570736 0.619134 0.159472 -0.768923 0.591569 0.16411 -0.789376 
0.763254 0.388465 -0.516273 0.785173 0.324085 -0.527705 -0.734382 -0.648988 -0.19874 
-0.710711 -0.695124 -0.108126 0.795428 0.487695 -0.359789 -0.760989 -0.648758 -0.00296883 
-0.676368 -0.585114 0.447402 -0.722369 -0.614957 0.316243 -0.686864 -0.539074 0.48746 
0.882502 0.460163 0.0971653 0.7953 0.507963 0.330865 0.887386 0.45387 -0.0809165 
0.800018 0.567387 0.195048 -0.602602 -0.69263 0.396401 0.818534 0.563976 0.109233 
-0.418879 -0.660496 0.623126 0.678606 0.72072 0.141623 0.678314 0.634914 0.369831 
-0.389209 -0.716918 0.578399 -0.184122 -0.93696 0.296994 0.744407 0.613981 0.262462 
-0.141213 -0.934305 0.327311 0.566387 0.805942 0.172229 -0.196775 -0.911917 0.36012 
0.604511 0.707846 0.365405 0.802165 0.593283 0.0674258 0.611624 0.768599 -0.187539 
0.571841 0.809117 0.135376 -0.361023 -0.922306 0.137888 0.343433 0.933078 -0.106858 
0.552509 0.803609 0.221238 -0.310437 -0.942214 0.125946 0.615086 0.718648 0.324367 
-0.424889 -0.905004 0.0209259 0.424014 0.890384 0.165612 -0.426611 -0.879856 -0.209419 
-0.273885 -0.961494 0.0227139 -0.40683 -0.911654 0.0581008 -0.535006 -0.843498 -0.0477431 
-0.469714 -0.866459 0.169169 0.419751 0.898802 -0.126349 0.3373 0.899844 -0.276605 
-0.677191 -0.720796 0.147871 0.37526 0.773998 -0.510007 -0.901254 -0.41645 -0.119628 
0.227703 0.832781 -0.504607 0.363429 0.813636 -0.45378 -0.937351 0.101661 -0.333224 
-0.976184 0.0241461 -0.215598 -0.910825 0.0986664 -0.400826 -0.855556 0.382921 -0.348419 
-0.881743 0.307077 -0.358096 -0.448899 0.765044 -0.461734 0.0956571 0.751619 -0.652624 
-0.496226 -0.655366 -0.569434 -0.400408 -0.678734 -0.615624 0.472357 -0.189826 -0.860723 
-0.602715 -0.497718 -0.623708 -0.737606 -0.599306 -0.311078 0.721849 0.167819 -0.671394 
0.801223 0.317016 -0.507487 -0.723311 -0.679385 0.123522 0.817413 0.473627 -0.327893 
0.843867 0.505665 -0.179421 -0.755213 -0.613816 0.229962 0.8406 0.540503 -0.0353259 
-0.750772 -0.496108 0.436141 0.815662 0.577236 -0.0386622 0.815644 0.578536 0.00465601 
-0.649725 -0.566536 0.506847 -0.519671 -0.501095 0.691987 0.779194 0.605904 0.160426 
-0.548487 -0.474183 0.688704 0.789102 0.517719 0.330582 0.61449 0.485495 0.621849 
0.741469 0.505052 0.441753 -0.493325 -0.553824 0.670753 0.731426 0.553925 0.397722 
-0.385801 -0.476858 0.789788 -0.292742 -0.269545 0.917414 0.644657 0.579929 0.498096 
0.666972 0.566023 0.484527 -0.0815082 -0.856229 0.510126 -0.18236 -0.856473 0.482907 
-0.186434 -0.799445 0.571078 -0.237105 -0.827325 0.509229 0.463283 0.841073 0.279222 
0.309501 0.690483 0.65379 0.608175 0.642252 0.466513 0.462942 0.755684 0.463277 
0.614014 0.657237 0.437065 0.527615 0.72907 0.435981 -0.41813 -0.832064 0.364469 
-0.214287 -0.850368 0.480577 -0.283556 -0.90727 0.310575 0.497338 0.793468 0.350803 
-0.37051 -0.916933 0.148173 0.502443 0.751335 0.42784 0.447514 0.724023 0.524901 
-0.350692 -0.906983 0.233231 0.409437 0.911293 0.043665 0.333567 0.884895 0.325105 
0.432673 0.90132 0.0204115 0.552555 0.766231 0.327981 -0.340901 -0.914293 0.21876 
0.449229 0.893266 -0.0163986 0.453851 0.891076 -0.00168626 0.453922 0.864645 -0.215276 
0.442732 0.774002 -0.452669 -0.975437 -0.110225 -0.190718 -0.981691 -0.169526 0.0868523 
0.275819 0.880978 -0.384449 0.272565 0.828685 -0.488865 -0.971583 0.175572 -0.158746 
0.369953 0.862834 -0.34446 -0.833049 0.53349 -0.146345 0.0243814 0.933971 -0.356517 
0.0458371 -0.240264 -0.969625 -0.186664 -0.568083 -0.801522 0.307483 -0.218055 -0.926232 
-0.104049 -0.360454 -0.926956 -0.373539 -0.559266 -0.740061 -0.170954 -0.448837 -0.877109 
0.105707 -0.348485 -0.931334 0.298484 -0.281982 -0.911808 -0.405464 -0.55791 -0.72411 
0.732926 -0.04517 -0.678807 0.736893 -0.0259833 -0.67551 -0.814406 -0.568385 -0.116963 
0.840676 0.249953 -0.480403 0.885438 0.355759 -0.299056 0.833522 0.522171 -0.180498 
0.813783 0.580419 -0.0295296 -0.668557 -0.58527 0.458793 0.81847 0.573415 -0.0360987 
-0.585499 -0.255512 0.769354 0.754683 0.637233 0.156168 0.823806 0.566632 -0.0164855 
-0.558279 -0.34949 0.75245 -0.481156 -0.294031 0.825854 0.803374 0.527467 0.276349 
-0.472103 -0.128783 0.872086 -0.299427 -0.0270014 0.953737 0.535231 0.379307 0.754754 
0.593657 0.392404 0.70256 -0.142088 -0.0861437 0.986099 0.583105 0.584791 0.563922 
0.530891 0.454834 0.715039 0.113093 -0.0533574 0.992151 0.587942 0.550666 0.592529 
-0.063123 -0.225041 0.972302 0.249967 -0.145303 0.95729 0.588767 0.592704 0.549596 
-0.184373 -0.791677 0.582455 -0.102844 -0.701751 0.70496 0.606426 0.634933 0.478651 
0.285454 0.492632 0.822089 0.445071 0.46888 0.76293 -0.0444545 -0.277742 0.959627 
-0.0394065 -0.497534 0.866549 0.491539 0.650095 0.579453 -0.254506 -0.753482 0.60621 
-0.00570159 -0.622907 0.782275 -0.282322 -0.852025 0.440848 -0.284873 -0.797172 0.532319 
0.428097 0.777679 0.460378 -0.203272 -0.945978 0.2526 -0.176355 -0.822575 0.540619 
0.605999 0.613531 0.506304 -0.295917 -0.872879 0.387963 0.409544 0.80867 0.422287 
-0.751121 -0.651597 0.106014 -0.922691 -0.384274 0.0312074 -0.891119 -0.382947 0.243431 
0.449371 0.874438 -0.182821 -0.994514 0.0941391 0.0455989 0.136494 0.958667 -0.249653 
0.263809 0.943065 -0.202567 -0.9553 0.293811 -0.032805 -0.86622 0.382434 -0.321571 
0.208293 0.905821 -0.368921 -0.521199 0.773355 -0.360936 0.624356 -0.267195 -0.734021 
-0.196755 -0.693297 -0.693272 0.854983 -0.488765 -0.173531 0.588405 -0.161129 -0.792349 
0.460168 -0.317703 -0.829042 -0.0319432 -0.438795 -0.898019 0.897277 -0.246836 -0.366013 
-0.297917 -0.554231 -0.777222 0.654706 -0.201301 -0.728587 0.784126 -0.264524 -0.561404 
0.899275 -0.238896 -0.366379 0.628268 -0.184083 -0.755905 -0.563959 -0.700088 -0.437981 
0.829085 -0.170597 -0.532461 -0.776254 -0.591412 -0.218316 0.712749 -0.126512 -0.689915 
0.92307 0.107062 -0.369431 0.905377 0.229447 -0.357276 -0.798862 -0.358825 0.482767 
0.87721 0.473747 -0.0778897 0.750752 0.516918 0.411299 -0.558972 -0.281133 0.780074 
0.837841 0.542627 0.0598257 0.699495 0.588524 0.405397 0.716516 0.617501 0.324496 
-0.368441 0.0347136 0.929003 0.587589 0.624455 0.514583 -0.264467 -0.0959801 0.959607 
-0.228139 0.130772 0.964806 0.58709 0.427245 0.687595 -0.0818308 -0.0232439 0.996375 
0.418515 0.375991 0.826726 0.504743 0.41901 0.754762 0.641921 0.407207 0.649707 
0.285037 -0.091079 0.954179 0.497922 0.218914 0.839137 0.210867 0.083342 0.973955 
0.461898 0.496035 0.735255 0.273971 0.41035 0.869801 0.14931 0.17817 0.972606 
0.523012 0.33655 0.783066 0.0234572 0.15557 0.987546 0.438618 0.486656 0.7555 
0.281183 0.521098 0.805849 0.175532 0.445453 0.87793 -0.1714 -0.782579 0.598491 
-0.00372676 -0.455345 0.890307 0.109828 -0.279734 0.953775 0.152159 -0.65841 -0.737118 
-0.447235 0.35268 -0.821947 0.292413 0.444738 -0.846583 0.447235 -0.35268 0.821947 
-0.135973 -0.620546 0.772291 -0.0820141 -0.320041 0.943847 -0.0900706 -0.221791 0.970925 
0.290087 0.25727 0.921771 -0.152159 0.65841 0.737118 -0.126786 -0.100473 0.986829 
0.124372 0.243351 0.961931 -0.375682 -0.816203 0.438948 0.199161 -0.0620985 0.977997 
0.150077 0.144723 0.978024 -0.174738 -0.685513 0.70678 0.28027 0.643821 0.711999 
0.362571 0.552221 0.750729 0.0599631 0.0689467 0.995817 0.643231 0.41311 0.644666 
0.523191 0.454728 0.720759 0.422716 0.564511 0.70897 -0.327529 -0.700762 0.633764 
0.162771 0.51426 0.842046 0.0621189 0.607413 0.791954 0.212251 0.898954 0.383186 
-0.0827293 0.614294 0.784729 0.52778 0.843263 0.101764 -0.339481 -0.775762 0.531926 
0.16136 0.97888 -0.125524 -0.624182 -0.683128 0.379121 -0.77183 -0.521174 0.36422 
0.557333 0.828535 0.0539423 0.466165 0.869512 0.163213 0.568129 0.749076 0.340754 
0.470706 0.87363 0.123318 0.455447 0.878961 0.141404 -0.958474 0.113255 0.261727 