# vtk DataFile Version 4.2
vtk output
ASCII
DATASET POLYDATA
POINTS 1580 float
339.547 146.748 33.1549 341.835 146.7 32.535 340.421 147.463 32.519 
336.837 149.043 32.8106 337.783 148.593 32.7436 335.256 149.815 32.9272 
336.66 149.556 32.6272 334.404 150.67 32.8154 333.756 151.09 32.8645 
337.194 150.14 32.4081 335.657 150.654 32.5282 334.445 151.481 32.6136 
348.801 140.012 33.8042 347.511 142.626 33.0731 348.182 143.397 33.0278 
339.966 146.192 33.4389 347.908 144.565 33.0598 338.946 146.966 33.3073 
346.373 145.479 32.8488 345.998 146.927 32.9475 335.271 149.2 33.4593 
333.003 150.733 33.3938 333.6 150.231 33.4986 326.693 153.351 33.8896 
326.683 153.299 33.9736 326.603 153.435 33.886 326.881 153.307 33.925 
330.949 152.047 33.3613 334.783 152.022 32.5571 335.697 151.754 32.4682 
325.732 154.05 33.7574 328.583 154.165 33.2585 350.741 138.083 34.5 
350.472 137.618 34.847 348.95 139.611 34.0825 349.488 138.646 34.5447 
350.451 139.675 33.9523 352.155 139.23 34.2213 345.049 142.34 33.8877 
351.424 142.536 34.1662 338.814 146.595 33.9559 335.856 148.707 33.6462 
334.695 149.338 33.8367 329.487 152.277 33.8438 326.458 153.394 34.0471 
325.132 153.719 34.417 326.59 153.781 33.7617 327.433 153.266 33.8311 
320.306 155.345 34.9183 319.792 155.744 34.7081 323.446 155.29 33.9569 
318.585 156.55 34.4685 320.423 156.3 34.1674 328.521 154.863 33.2278 
338.284 154.538 33.406 330.984 155.805 33.1336 317.074 157.73 34.2893 
318.13 157.469 34.126 320.391 157.151 33.8689 328.734 156.445 33.298 
314.21 158.634 34.4555 313.918 158.803 34.4946 317.647 157.912 34.1091 
318.948 158.02 33.8675 321.07 157.979 33.6952 353.317 134.524 36.0829 
353.169 136.784 35.0097 352.249 138.018 34.4834 353.696 136.834 35.0848 
347.186 140.037 34.6816 353.28 139.34 34.753 352.405 141.109 34.4452 
343.643 142.752 34.4665 338.781 146.468 34.3957 338.349 146.75 34.5935 
339.323 146.054 34.6403 349.406 147.378 34.625 333.933 149.667 34.4759 
335.126 148.961 34.2578 347.228 149.947 34.7585 327.877 152.907 34.0191 
328.7 152.303 34.4244 324.813 153.607 34.8444 343.316 152.975 34.5913 
313.48 157.724 35.3043 338.382 155.57 34.0232 309.709 158.679 35.6591 
313.336 158.17 34.9967 338.745 155.978 34.5265 310.366 159.334 35.1091 
315.591 158.692 34.3098 313.838 159.347 34.4303 335.825 157.647 34.5779 
308.57 160.568 34.9546 319.96 159.646 33.8197 334.754 158.402 34.8213 
306.399 161.325 35.0487 320.371 161.21 34.0664 325.043 161.891 34.4803 
354.193 133.408 36.7309 352.558 134.797 36.1141 354.593 134.43 36.053 
352.112 135.095 36.1013 355.525 134.402 36.1513 355.614 134.754 36.0827 
350.554 136.704 35.6128 349.691 137.525 35.4057 356.112 136.254 36.2844 
354.296 138.078 35.3027 346.585 140.101 35.2794 354.604 139.407 35.7448 
339 144.009 35.0174 339 144.009 35.0175 339 144.009 35.0175 
339 144.009 35.0175 339 144.009 35.0175 335.335 148.818 34.6751 
331.906 150.771 34.2703 325.429 153.288 35.0953 346.774 151.567 35.7947 
319.211 155.304 35.562 321.486 154.557 35.5141 317.02 155.935 35.9027 
342.642 154.241 35.7145 309.815 158.163 36.1174 306.512 159.247 36.3193 
338.659 156.64 35.1127 304.726 159.725 36.6058 337.336 157.667 35.381 
338.565 156.907 35.4664 336.943 158.057 35.5966 333.562 159.572 35.5447 
335.362 159.052 35.7984 335.36 158.901 35.5266 335.862 158.687 35.4997 
297.655 163.322 36.6851 328.209 161.326 34.9672 335.927 158.811 35.7202 
329.749 161.478 35.6386 327.842 162.97 36.1316 320.828 164.926 35.4423 
315.025 166.297 35.2432 352.658 134.227 36.7067 357.268 133.32 36.8981 
351.413 135.457 36.3506 350.052 136.86 35.9182 356.813 135.377 36.6913 
348.157 138.319 36.553 356.486 136.829 36.7779 342.98 143.022 35.6236 
339 144.009 35.0175 353.651 143.125 36.592 340.14 145.52 35.593 
336.736 148.049 35.3946 333.201 150.143 35.0704 350.439 147.736 36.1446 
351.878 146.167 36.5323 329.095 152.065 35.0098 347.917 150.548 36.1831 
326.077 153.067 35.3539 347.5 151.08 36.0908 347.436 151.234 36.1524 
322.797 154.036 36.1445 322.138 154.259 35.8224 324.859 153.337 35.7974 
347.099 151.491 36.1549 347.355 151.316 36.1653 346.147 152.319 36.1194 
316.872 155.824 36.4856 313.681 156.697 36.8067 341.259 155.226 36.2286 
303.639 160.005 36.833 338.163 157.337 35.9093 337.034 158.146 36.0092 
335.753 158.935 35.9012 297.359 163.66 36.8228 331.299 161.319 36.4242 
329.451 162.516 36.754 298.045 165.806 35.9872 327.563 163.354 36.4134 
291.662 167.407 36.8188 320.496 165.657 35.7729 327.805 163.45 36.7685 
284.845 169.481 37.8669 286.791 169.125 37.254 292.979 169.063 36.1887 
284.968 170.5 37.3988 314.228 169.335 36.4088 285.804 170.908 37.0229 
284.311 172.032 37.6067 308.118 170.943 36.3003 358.287 128.78 38.5122 
359.115 130.783 38.0346 358.961 131.83 37.925 352.434 134.209 37.0214 
352.308 134.152 37.3938 350.336 136.115 37.1597 348.894 137.551 37.3215 
357.264 136.625 37.652 346.44 140.047 36.7232 356.06 138.903 37.4507 
354.034 142.739 36.9026 352.92 144.387 36.5918 337.547 147.852 36.0707 
336.296 148.752 35.9579 334.882 149.659 35.9117 350.341 148.004 36.467 
350.299 148.094 36.7623 348.341 150.256 36.5486 348.616 150.009 36.7929 
325.29 153.345 36.2428 325.919 153.127 35.829 347.469 151.194 36.2934 
318.362 155.335 36.6691 321.223 154.535 36.5934 316.747 155.835 37.1075 
343.981 153.721 36.8954 340.495 155.75 36.3022 305.997 158.938 37.2207 
306.225 158.743 37.7251 301.339 160.781 37.9727 336.393 158.559 36.5227 
297.356 163.008 37.5537 333.84 159.962 36.8742 295.545 164.237 37.6657 
292.384 165.239 38.3433 330.056 162.273 37.1208 328.874 163.051 37.3454 
284.87 168.928 38.345 283.279 171.546 38.5406 283.28 171.863 38.3951 
283.215 172.127 38.4291 287.796 172.581 36.6482 315.069 171.163 37.8195 
283.29 172.443 38.3796 311.272 172.117 37.3804 283.1 173.716 38.7913 
284.161 173.599 37.9322 285.653 173.83 37.3019 312.216 172.842 38.154 
283.14 174.95 38.9278 283.407 175.2 38.702 283.304 175.411 38.8951 
283.624 175.497 38.6315 304.591 175.395 37.7139 283.45 175.45 38.7269 
292.396 177.384 37.5237 360.476 126.863 39.5326 357.844 128.471 38.8728 
357.376 128.713 38.9794 360.607 129.687 39.0434 360.96 129.429 39.309 
359.884 130.855 38.5397 360.459 130.424 38.9708 360.48 131.931 39.393 
350.381 136.034 37.5695 348.673 137.978 37.9478 356.655 138.425 38.1952 
346.624 140.481 37.7567 342.495 143.79 36.6481 354.25 142.425 37.0441 
341.144 145.667 37.0639 338.215 147.838 36.6383 336.754 149.305 36.8143 
335.652 150.117 36.8294 332.798 151.458 36.6596 338.264 149.972 37.765 
349.948 148.435 37.2576 335.54 151.065 37.3657 348.502 150.134 37.1501 
326.792 153.391 36.728 321.916 154.451 36.9386 335.938 152.332 37.9576 
318.958 155.336 37.548 327.739 154.194 37.7064 330.793 153.781 37.7286 
344.514 153.411 37.0741 346.13 152.254 37.4582 317.514 155.699 37.4927 
328.749 154.517 37.9616 343.75 153.752 37.1751 343.874 153.562 37.39 
313.449 156.678 37.944 342.778 154.101 37.3138 308.942 157.787 37.7846 
340.361 155.585 37.1807 339.194 156.506 36.9572 338.163 157.307 36.7028 
335.71 158.739 37.0894 336.123 158.344 37.2479 336.909 158.015 36.9644 
336.654 158.343 36.7139 337.653 157.536 36.9542 299.913 161.413 38.4242 
294.689 164.177 38.4817 289.613 166.245 38.7044 326.159 164.728 38.0973 
283.958 169.735 38.787 320.252 168.475 37.8509 283.111 172.319 38.6043 
282.914 172.259 39.044 316.924 170.921 38.4872 283.427 175.905 39.0642 
284.985 177.008 38.4293 283.792 178.68 39.9477 287.04 178.771 38.3714 
285.42 179.201 39.0434 286.631 180.183 39.083 360.159 125.397 40.5382 
359.637 126.052 40.2044 361.223 125.489 40.3202 361.495 125.793 40.2646 
358.28 127.366 39.7182 357.519 128.177 39.4308 361.797 126.742 40.1854 
361.967 127.618 40.25 361.245 130.152 39.7306 355.988 139.504 38.6363 
343.645 143.463 37.4329 354.911 141.184 38.5323 343.549 146.059 38.5555 
341.782 146.79 37.9864 341.957 148.148 38.3881 344.208 147.69 38.8958 
350.1 147.647 38.0487 349.907 148.262 37.6517 349.533 148.492 37.9898 
343.988 149.263 38.8394 349.025 149.395 37.5396 338.776 151.414 38.2274 
321.461 155.145 38.041 323.563 154.559 37.6321 318.295 155.6 37.7979 
345.508 152.237 37.8922 334.846 154.46 38.3073 343.653 153.503 37.5549 
346.265 152.112 37.7569 311.017 157.233 38.4224 332.515 156.319 38.5479 
333.614 156.532 38.4949 340.067 155.562 37.4285 306.099 158.89 38.9591 
332.112 156.745 38.611 339.598 155.868 37.4093 304.021 159.69 39.0209 
301.123 160.901 39.2774 299.117 161.782 39.268 297.398 162.67 38.4611 
332.129 160.488 38.0826 288.586 166.384 39.4612 325.554 165.147 38.4506 
326.734 164.297 38.3026 286.874 167.118 39.5863 322.682 167.51 38.9698 
324 169.009 39.0174 324 169.009 39.0175 324 169.009 39.0175 
324 169.009 39.0175 319.755 169.554 38.8806 324 169.009 39.0175 
282.741 171.691 39.6851 282.451 173.931 39.6486 313.804 173.346 39.3938 
283.34 178.057 40.1794 283.466 178.475 40.1061 283.415 178.523 40.1673 
284.46 180.101 40.2268 284.152 180.553 41.0167 291.466 181.57 40.1464 
294.857 180.553 39.9912 284.469 180.936 40.9883 284.896 181.153 40.8085 
289.635 181.839 39.9319 289.889 181.652 39.8403 283 184.009 39.0174 
283 184.009 39.0175 283 184.009 39.0175 283 184.009 39.0175 
285.794 181.98 40.972 287.617 182.291 40.6232 289.744 181.791 39.8911 
283 184.009 39.0175 361.811 123.579 41.5384 361.788 123.257 41.7782 
361.412 124.051 41.2647 361 124.04 41.4042 362.175 123.962 41.3884 
360.092 124.98 41.0064 359.642 125.336 40.972 356.89 128.453 40.2834 
355.777 130.071 40.2822 361.477 130.952 40.6072 360.881 131.903 40.1117 
351.556 135.062 38.8226 359.638 134.062 40.0774 349.085 137.987 38.602 
357.994 136.516 39.2908 348.004 139.873 38.8944 356.573 138.425 39.4827 
347.395 141.932 38.9836 348.905 141.035 39.5183 355.347 139.906 39.4076 
345.004 143.704 38.4005 347.88 142.469 39.2598 349.11 142.667 39.5656 
348.196 143.821 39.3938 353.782 142.605 38.7153 353.058 143.644 38.5191 
[...]
POINT_DATA 1580
SCALARS scalars float
LOOKUP_TABLE default
1 1 1 1 1 1 1 1 1 
1 1 1 1 1 1 1 1 1 
1 1 1 1 1 1 1 1 1 
1 1 1 1 1 1 1 1 1 
1 1 1 1 1 1 1 1 1 
1 1 1 1 1 1 1 1 1 
1 1 1 1 1 1 1 1 1 
1 1 1 1 1 1 1 1 1 
1 1 1 1 1 1 1 1 1 
1 1 1 1 1 1 1 1 1 
1 1 1 1 1 1 1 1 1 
1 1 1 1 1 1 1 1 1 
1 1 1 1 1 1 1 1 1 
1 1 1 1 1 1 1 1 1 
1 1 1 1 1 1 1 1 1 
1 1 1 1 1 1 1 1 1 
1 1 1 1 1 1 1 1 1 
1 1 1 1 1 1 1 1 1 
1 1 1 1 1 1 1 1 1 
1 1 1 1 1 1 1 1 1 
1 1 1 1 1 1 1 1 1 
1 1 1 1 1 1 1 1 1 
1 1 1 1 1 1 1 1 1 
1 1 1 1 1 1 1 1 1 
1 1 1 1 1 1 1 1 1 
1 1 1 1 1 1 1 1 1 
1 1 1 1 1 1 1 1 1 
1 1 1 1 1 1 1 1 1 
1 1 1 1 1 1 1 1 1 
1 1 1 1 1 1 1 1 1 
1 1 1 1 1 1 1 1 1 
1 1 1 1 1 1 1 1 1 
1 1 1 1 1 1 1 1 1 
1 1 1 1 1 1 1 1 1 
1 1 1 1 1 1 1 1 1 
1 1 1 1 1 1 1 1 1 
1 1 1 1 1 1 1 1 1 
1 1 1 1 1 1 1 1 1 
1 1 1 1 1 1 1 1 1 
1 1 1 1 1 1 1 1 1 
1 1 1 1 1 1 1 1 1 
1 1 1 1 1 1 1 1 1 
1 1 1 1 1 1 1 1 1 
1 1 1 1 1 1 1 1 1 
1 1 1 1 1 1 1 1 1 
1 1 1 1 1 1 1 1 1 
1 1 1 1 1 1 1 1 1 
1 1 1 1 1 1 1 1 1 
1 1 1 1 1 1 1 1 1 
1 1 1 1 1 1 1 1 1 
1 1 1 1 1 1 1 1 1 
1 1 1 1 1 1 1 1 1 
1 1 1 1 1 1 1 1 1 
1 1 1 1 1 1 1 1 1 
1 1 1 1 1 1 1 1 1 
1 1 1 1 1 1 1 1 1 
1 1 1 1 1 1 1 1 1 
1 1 1 1 1 1 1 1 1 
1 1 1 1 1 1 1 1 1 
1 1 1 1 1 1 1 1 1 
1 1 1 1 1 1 1 1 1 
1 1 1 1 1 1 1 1 1 
1 1 1 1 1 1 1 1 1 
1 1 1 1 1 1 1 1 1 
1 1 1 1 1 1 1 1 1 
1 1 1 1 1 1 1 1 1 
1 1 1 1 1 1 1 1 1 
1 1 1 1 1 1 1 1 1 
1 1 1 1 1 1 1 1 1 
1 1 1 1 1 1 1 1 1 
1 1 1 1 1 1 1 1 1 
1 1 1 1 1 1 1 1 1 
1 1 1 1 1 1 1 1 1 
1 1 1 1 1 1 1 1 1 
1 1 1 1 1 1 1 1 1 
1 1 1 1 1 1 1 1 1 
1 1 1 1 1 1 1 1 1 
1 1 1 1 1 1 1 1 1 
1 1 1 1 1 1 1 1 1 
1 1 1 1 1 1 1 1 1 
1 1 1 1 1 1 1 1 1 
1 1 1 1 1 1 1 1 1 
1 1 1 1 1 1 1 1 1 
1 1 1 1 1 1 1 1 1 
1 1 1 1 1 1 1 1 1 
1 1 1 1 1 1 1 1 1 
1 1 1 1 1 1 1 1 1 
1 1 1 1 1 1 1 1 1 
1 1 1 1 1 1 1 1 1 
1 1 1 1 1 1 1 1 1 
1 1 1 1 1 1 1 1 1 
1 1 1 1 1 1 1 1 1 
1 1 1 1 1 1 1 1 1 
1 1 1 1 1 1 1 1 1 
1 1 1 1 1 1 1 1 1 
1 1 1 1 1 1 1 1 1 
1 1 1 1 1 1 1 1 1 
1 1 1 1 1 1 1 1 1 
1 1 1 1 1 1 1 1 1 
1 1 1 1 1 1 1 1 1 
1 1 1 1 1 1 1 1 1 
1 1 1 1 1 1 1 1 1 
1 1 1 1 1 1 1 1 1 
1 1 1 1 1 1 1 1 1 
1 1 1 1 1 1 1 1 1 
1 1 1 1 1 1 1 1 1 
1 1 1 1 1 1 1 1 1 
1 1 1 1 1 1 1 1 1 
1 1 1 1 1 1 1 1 1 
1 1 1 1 1 1 1 1 1 
1 1 1 1 1 1 1 1 1 
1 1 1 1 1 1 1 1 1 
1 1 1 1 1 1 1 1 1 
1 1 1 1 1 1 1 1 1 
1 1 1 1 1 1 1 1 1 
1 1 1 1 1 1 1 1 1 
1 1 1 1 1 1 1 1 1 
1 1 1 1 1 1 1 1 1 
1 1 1 1 1 1 1 1 1 
1 1 1 1 1 1 1 1 1 
1 1 1 1 1 1 1 1 1 
1 1 1 1 1 1 1 1 1 
1 1 1 1 1 1 1 1 1 
1 1 1 1 1 1 1 1 1 
1 1 1 1 1 1 1 1 1 
1 1 1 1 1 1 1 1 1 
1 1 1 1 1 1 1 1 1 
1 1 1 1 1 1 1 1 1 
1 1 1 1 1 1 1 1 1 
1 1 1 1 1 1 1 1 1 
1 1 1 1 1 1 1 1 1 
1 1 1 1 1 1 1 1 1 
1 1 1 1 1 1 1 1 1 
1 1 1 1 1 1 1 1 1 
1 1 1 1 1 1 1 1 1 
1 1 1 1 1 1 1 1 1 
1 1 1 1 1 1 1 1 1 
1 1 1 1 1 1 1 1 1 
1 1 1 1 1 1 1 1 1 
1 1 1 1 1 1 1 1 1 
1 1 1 1 1 1 1 1 1 
1 1 1 1 1 1 1 1 1 
1 1 1 1 1 1 1 1 1 
1 1 1 1 1 1 1 1 1 
1 1 1 1 1 1 1 1 1 
1 1 1 1 1 1 1 1 1 
1 1 1 1 1 1 1 1 1 
1 1 1 1 1 1 1 1 1 
1 1 1 1 1 1 1 1 1 
1 1 1 1 1 1 1 1 1 
1 1 1 1 1 1 1 1 1 
1 1 1 1 1 1 1 1 1 
1 1 1 1 1 1 1 1 1 
1 1 1 1 1 1 1 1 1 
1 1 1 1 1 1 1 1 1 
1 1 1 1 1 1 1 1 1 
1 1 1 1 1 1 1 1 1 
1 1 1 1 1 1 1 1 1 
1 1 1 1 1 1 1 1 1 
1 1 1 1 1 1 1 1 1 
1 1 1 1 1 1 1 1 1 
1 1 1 1 1 1 1 1 1 
1 1 1 1 1 1 1 1 1 
1 1 1 1 1 1 1 1 1 
1 1 1 1 1 1 1 1 1 
1 1 1 1 1 1 1 1 1 
1 1 1 1 1 1 1 1 1 
1 1 1 1 1 1 1 1 1 
1 1 1 1 1 1 1 1 1 
1 1 1 1 1 1 1 1 1 
1 1 1 1 1 1 1 1 1 
1 1 1 1 1 1 1 1 1 
1 1 1 1 1 1 1 1 1 
1 1 1 1 1 1 1 1 1 
1 1 1 1 1 1 1 1 1 
1 1 1 1 1 
NORMALS Normals float
-0.360787 -0.594641 -0.718495 -0.0325511 -0.150948 -0.988006 -0.207956 -0.34887 -0.913808 
-0.263776 -0.454448 -0.850823 -0.156986 -0.414384 -0.89646 -0.354176 -0.536729 -0.765821 
-0.14816 -0.253447 -0.955936 -0.197751 -0.295117 -0.934773 -0.321644 -0.294901 -0.899766 
-0.0283718 -0.15946 -0.986797 -0.207582 -0.243273 -0.947485 -0.142746 -0.10642 -0.984021 
-0.221074 -0.468504 -0.855354 -0.068139 -0.211341 -0.975034 0.240106 -0.00742468 -0.970718 
-0.444405 -0.734498 -0.512852 0.186813 0.054937 -0.980858 -0.372856 -0.542941 -0.752458 
0.283736 0.155625 -0.946189 0.22812 0.205682 -0.95166 -0.464863 -0.720095 -0.515136 
-0.469304 -0.695721 -0.543807 -0.459752 -0.644932 -0.610484 -0.229111 -0.569232 -0.789609 
-0.358233 -0.804578 -0.473627 -0.523043 -0.497451 -0.692076 -0.104107 -0.566919 -0.817169 
-0.31911 -0.472319 -0.821634 -0.0969586 0.00170572 -0.995287 -0.0424744 0.0356798 -0.99846 
-0.33918 -0.240258 -0.909523 -0.134705 -0.158831 -0.978073 -0.23593 -0.381827 -0.893614 
-0.286556 -0.549852 -0.784569 -0.462972 -0.685781 -0.561571 -0.277825 -0.470789 -0.83736 
0.112724 -0.18812 -0.975656 0.318155 -0.0606611 -0.946096 -0.372597 -0.5551 -0.743664 
0.510795 0.206233 -0.8346 -0.550608 -0.71964 -0.423023 -0.442527 -0.745928 -0.497756 
-0.583773 -0.742466 -0.328563 -0.336036 -0.725599 -0.600488 -0.38506 -0.787387 -0.481405 
-0.533299 -0.593467 -0.602818 -0.212506 -0.223405 -0.951279 -0.238512 -0.434506 -0.868514 
-0.168508 -0.754937 -0.633778 -0.28879 -0.579705 -0.761933 -0.167914 -0.348885 -0.922 
-0.264337 -0.536986 -0.801106 -0.17063 -0.420719 -0.891 -0.115473 -0.0771452 -0.99031 
0.227617 0.373226 -0.899385 0.108082 0.345618 -0.93213 -0.294214 -0.205168 -0.933458 
-0.257798 -0.189661 -0.947401 -0.141896 -0.258184 -0.955618 -0.0569783 0.0696881 -0.99594 
-0.163039 -0.3455 -0.924147 -0.275125 -0.168199 -0.946581 -0.279197 -0.156432 -0.947406 
-0.182409 -0.123693 -0.975411 0.023589 -0.0494663 -0.998497 -0.18842 -0.496413 -0.847391 
0.103721 -0.251648 -0.962245 0.136224 -0.256448 -0.95691 0.266647 -0.12542 -0.955599 
-0.418614 -0.73457 -0.534012 0.428519 0.293858 -0.854412 0.416534 0.109052 -0.902556 
-0.537138 -0.713022 -0.450646 -0.559074 -0.826404 -0.0670265 -0.591886 -0.80534 -0.0331399 
-0.698806 -0.709853 0.0881998 0.538157 0.431514 -0.724005 -0.615683 -0.782612 -0.0919384 
-0.538812 -0.826174 -0.164672 0.516412 0.483742 -0.70662 -0.358041 -0.846889 -0.393175 
-0.418489 -0.883648 -0.209841 -0.455167 -0.724656 -0.517394 0.44363 0.643044 -0.624249 
-0.219617 -0.673762 -0.705559 0.37143 0.542574 -0.753427 -0.303903 -0.599781 -0.740207 
-0.388644 -0.330497 -0.860074 0.307242 0.534314 -0.787471 -0.0898188 -0.356093 -0.930124 
-0.190939 -0.390442 -0.900609 -0.453914 0.00720851 -0.891017 0.34057 0.539377 -0.77012 
-0.230587 -0.365887 -0.901641 -0.131766 0.05418 -0.989799 0.134737 0.66125 -0.737967 
-0.264871 -0.376716 -0.887653 0.0228276 0.249928 -0.967995 0.0857203 0.293645 -0.952063 
-0.258199 -0.634986 -0.728098 -0.325543 -0.472455 -0.819029 0.0195576 -0.256192 -0.966428 
-0.43916 -0.387328 -0.810627 0.23823 -0.338936 -0.910148 0.346285 -0.184128 -0.919882 
-0.509109 -0.681191 -0.526105 -0.583387 -0.646323 -0.49186 0.595695 0.12563 -0.793325 
0.420505 0.0178274 -0.907115 -0.527451 -0.764914 -0.369731 0.617298 0.353634 -0.70277 
0 -0.121763 -0.992559 0 -0.992432 -0.122797 -0.849089 -0.520497 -0.0901731 
0.849089 -0.520497 -0.0901731 0 0.184289 -0.982872 -0.56328 -0.816678 0.125511 
-0.44436 -0.825478 -0.348036 -0.270383 -0.943819 -0.189997 0.547865 0.588254 -0.594811 
-0.254007 -0.872916 -0.41653 -0.22226 -0.914339 -0.338504 -0.438457 -0.825284 -0.355896 
0.49086 0.795445 -0.35542 -0.278263 -0.719718 -0.636063 -0.328395 -0.73691 -0.590864 
0.43144 0.729041 -0.531374 -0.227011 -0.687611 -0.689679 0.392047 0.716641 -0.576823 
0.563309 0.797994 -0.214215 0.368955 0.728617 -0.577052 0.320884 0.773305 -0.546839 
0.236477 0.860851 -0.450571 0.204457 0.823583 -0.529064 0.374387 0.713483 -0.592263 
-0.438077 -0.664591 -0.605315 0.229856 0.570498 -0.788479 0.524826 0.75961 -0.384122 
0.384137 0.639014 -0.666408 0.367944 0.708368 -0.602355 0.170303 0.472077 -0.864951 
-0.0379514 0.233874 -0.971526 -0.402082 -0.777451 -0.483631 0.279751 -0.225886 -0.933121 
-0.521651 -0.618116 -0.588059 -0.574788 -0.677792 -0.458494 0.582355 0.0310726 -0.81234 
-0.720651 -0.693285 -0.0041885 0.680671 0.471987 -0.560281 -0.67044 -0.741625 0.0224119 
0 -0.229113 0.9734 0.734261 0.271922 -0.622028 -0.714054 -0.565661 0.412498 
-0.447549 -0.649304 0.614902 -0.536502 -0.837185 0.10624 0.753174 0.574033 -0.321271 
0.787213 0.513701 -0.341185 -0.322673 -0.908862 0.264294 0.697522 0.477984 -0.533849 
-0.229197 -0.97051 -0.0746877 0.680853 0.491669 -0.542864 0.735094 0.593489 -0.327732 
-0.197937 -0.930292 0.308832 -0.250172 -0.940061 -0.231729 -0.27775 -0.958902 0.0579852 
0.613694 0.785342 -0.0813505 0.607497 0.731468 -0.30968 0.572071 0.779868 -0.254048 
-0.543351 -0.831197 -0.117817 -0.191303 -0.959143 -0.208443 0.517903 0.843258 -0.143847 
-0.361365 -0.758124 -0.542829 0.552748 0.797417 -0.242064 0.550212 0.832417 -0.0659455 
0.385016 0.898839 -0.209405 -0.588826 -0.386112 -0.710071 0.401994 0.702941 -0.586749 
0.425598 0.752213 -0.503033 -0.345371 -0.310386 -0.885652 0.310978 0.700528 -0.642303 
-0.283534 -0.538296 -0.793629 0.172943 0.479228 -0.860483 0.51342 0.80946 -0.284909 
-0.563418 -0.4287 -0.706241 -0.250601 -0.387867 -0.886994 -0.101805 -0.00580218 -0.994787 
-0.479016 -0.0945077 -0.872704 0.230757 0.51977 -0.822551 -0.322886 0.0251256 -0.946104 
-0.509996 -0.0355972 -0.85944 0.0572337 0.431214 -0.900433 -0.119114 -0.443713 -0.888217 
0.368324 -0.0368719 -0.928966 0.498177 0.0182823 -0.866883 -0.531753 -0.74291 -0.406599 
-0.616882 -0.755926 -0.219165 -0.666042 -0.712419 -0.221015 -0.6902 -0.722482 0.0405276 
0.776094 0.39507 -0.491525 -0.676976 -0.729025 0.101127 0.785812 0.387155 -0.482297 
0.841728 0.502456 -0.197565 0.808281 0.574605 -0.128494 -0.593568 -0.601235 0.534971 
-0.255218 -0.699073 0.667952 -0.460583 -0.721451 0.517079 0.722828 0.663455 -0.193253 
0.80957 0.585667 0.0398889 0.750187 0.616093 -0.240101 0.800394 0.564279 -0.202382 
-0.0765319 -0.928967 0.362164 -0.0657583 -0.939456 0.336302 0.726988 0.686644 -0.00280564 
-0.239478 -0.970778 -0.0154916 -0.286047 -0.946303 0.150624 -0.430844 -0.883189 0.18534 
0.444049 0.884609 0.142432 0.551181 0.833842 0.0301177 -0.421982 -0.858517 -0.291342 
-0.355254 -0.920237 -0.164192 -0.354647 -0.929895 -0.0975718 0.449894 0.867513 0.212172 
-0.48219 -0.760485 -0.43492 0.476578 0.877098 0.0597667 -0.45738 -0.630674 -0.62694 
-0.397827 -0.813171 -0.424838 0.556374 0.827032 -0.0804141 0.523408 0.841716 -0.132508 
-0.487146 -0.718486 -0.496454 -0.783155 -0.304915 -0.541936 -0.801089 -0.186209 -0.568843 
-0.756046 -0.0281118 -0.653915 -0.21709 0.0752198 -0.973249 0.279869 0.654355 -0.70249 
-0.744395 0.154696 -0.649573 0.261928 0.504236 -0.822885 -0.553751 0.181443 -0.812674 
-0.466674 0.229902 -0.854026 -0.346047 0.287772 -0.892994 0.283095 0.586446 -0.758906 
-0.81033 0.217507 -0.54411 -0.621391 0.142084 -0.77051 -0.744487 0.463068 -0.480943 
-0.465829 0.369929 -0.803838 0.121749 0.539166 -0.833353 -0.61218 0.530315 -0.586517 
0.0801245 0.454402 -0.887186 0.238935 -0.29103 -0.926397 -0.379038 -0.591642 -0.711541 
-0.544369 -0.576823 -0.609047 0.544394 0.0266019 -0.838408 0.781167 -0.049836 -0.62233 
0.576901 0.0762308 -0.813249 0.512788 0.00996545 -0.858457 0.772572 0.284636 -0.567552 
-0.715205 -0.690777 0.106347 -0.713495 -0.616226 0.333453 0.842565 0.515824 -0.154949 
-0.678449 -0.530509 0.5082 -0.67496 -0.530465 0.512871 0.887044 0.418926 -0.194048 
-0.620641 -0.538726 0.569718 -0.365814 -0.435279 0.822625 -0.407998 -0.450289 0.794215 
-0.15726 -0.520251 0.83941 -0.314461 -0.571179 0.758201 -0.13212 -0.356303 0.924982 
0.721357 0.664558 0.194954 -0.239969 -0.493415 0.836036 0.679669 0.703024 0.209301 
-0.079612 -0.881148 0.46609 -0.188758 -0.931317 0.311479 -0.146218 -0.291484 0.945334 
-0.199337 -0.923094 0.32888 -0.0370905 -0.562534 0.825942 -0.1118 -0.43651 0.892726 
0.498445 0.768208 0.401758 0.543674 0.832864 0.103713 -0.273801 -0.911098 0.308111 
-0.114238 -0.460474 0.880292 0.373385 0.819806 0.434167 0.420498 0.729023 0.5401 
-0.2172 -0.901247 0.374937 0.446 0.868529 0.216197 -0.304518 -0.948923 -0.0825529 
0.489094 0.700531 0.519658 0.416527 0.768102 0.486339 0.617636 0.709639 0.339025 
0.469152 0.702191 0.535559 0.447174 0.639917 0.624933 0.329829 0.625647 0.70695 
0.413694 0.798282 0.437724 0.531738 0.639099 0.555704 -0.411764 -0.909551 0.0562814 
-0.419107 -0.799752 -0.429821 -0.286889 -0.808744 -0.513447 0.573824 0.813605 0.0936618 
-0.765475 -0.554516 -0.326435 0.415636 0.687714 -0.595228 -0.897688 0.106768 -0.4275 
-0.91705 -0.0271068 -0.39785 0.422735 0.679455 -0.599697 -0.727284 0.352323 -0.589004 
-0.447792 0.263417 -0.854455 -0.559841 0.278327 -0.780456 -0.0775119 0.385916 -0.919272 
-0.353245 0.53826 -0.765176 -0.18978 0.541579 -0.818948 -0.197884 -0.62415 -0.75583 
-0.384187 -0.624724 -0.679794 0.062984 -0.398216 -0.915127 0.322368 -0.25832 -0.910686 
-0.496885 -0.683385 -0.534875 -0.644509 -0.644205 -0.411834 0.399898 -0.13598 -0.906417 
0.673662 0.00524718 -0.739021 0.867089 0.0394598 -0.496588 0.858356 0.494788 -0.135686 
-0.577552 -0.428839 0.694644 0.828614 0.485639 0.278484 -0.358693 -0.197105 0.912408 
-0.416218 -0.216566 0.883098 -0.326116 -0.169733 0.929967 -0.16369 -0.121103 0.97905 
0.711972 0.375332 0.593483 0.788294 0.56403 0.24589 0.631122 0.673053 0.385597 
-0.0952075 0.0281663 0.995059 0.717324 0.648803 0.253972 -0.126648 -0.200262 0.971522 
-0.102201 -0.804391 0.585244 -0.0988278 -0.811335 0.576167 -0.25337 -0.88326 0.394531 
0.216671 0.74012 0.636613 -0.0473729 -0.168987 0.984479 0.340846 0.632066 0.695928 
0.47624 0.756898 0.447549 -0.296743 -0.946779 0.124708 0.0640539 -0.0980057 0.993122 
0.0801911 -0.0315676 0.996279 0.478766 0.479752 0.735269 -0.351727 -0.901689 0.251487 
0.063267 -0.0894865 0.993977 0.321931 0.70836 0.628162 -0.416148 -0.879736 0.229968 
-0.354399 -0.916281 0.186629 -0.32693 -0.920957 0.212025 -0.412247 -0.892137 -0.184783 
0.593668 0.637566 0.490987 -0.375266 -0.900586 -0.219362 0.571908 0.811384 0.120735 
0.535142 0.828416 0.165378 -0.522556 -0.842598 -0.130248 0.583961 0.807374 -0.0844811 
0 -0.121763 -0.992559 0 -0.992432 -0.122797 -0.849089 -0.520497 -0.0901731 
0.849089 -0.520497 -0.0901731 0.522619 0.699501 -0.487408 0 0.184289 -0.982872 
-0.87038 -0.267222 -0.413558 -0.915282 0.0482749 -0.399909 0.358624 0.595863 -0.718565 
-0.718122 0.189698 -0.669564 -0.588395 0.13902 -0.796533 -0.756623 0.312101 -0.574557 
-0.542072 0.560682 -0.625934 -0.540398 0.593629 -0.596301 0.164574 0.757734 -0.63147 
0.33667 0.745934 -0.574661 -0.617686 0.747711 -0.243704 -0.553799 0.702194 -0.44747 
-0.0709568 0.589016 -0.805001 0.0850797 0.428529 -0.899514 0 -0.097798 -0.995206 
0 -0.447214 -0.894427 -0.200259 -0.0958169 -0.975046 0.200259 -0.0958169 -0.975046 
-0.474895 0.701833 -0.530947 -0.101431 0.790512 -0.603989 0.0576471 0.540649 -0.839271 
0 0.242536 -0.970142 0.0761578 -0.55568 -0.827901 -0.214828 -0.655257 -0.724215 
-0.154763 -0.510595 -0.845779 -0.360245 -0.606846 -0.708493 0.298089 -0.432691 -0.850836 
-0.468627 -0.753881 -0.460491 -0.583252 -0.726496 -0.363346 -0.745401 -0.648518 -0.154276 
-0.817881 -0.457215 0.349321 0.907256 0.125916 -0.401287 0.858382 0.442476 -0.259606 
-0.65952 -0.547482 0.51507 0.800987 0.589344 -0.105324 -0.64065 -0.542066 0.543812 
0.807925 0.577939 -0.115082 -0.590702 -0.346166 0.728862 0.728202 0.601529 0.328458 
-0.435589 -0.197297 0.878257 -0.280229 -0.0564486 0.958272 0.71134 0.522836 0.469722 
-0.401888 -0.251057 0.8806 -0.322162 -0.108653 0.940429 -0.180787 -0.0563173 0.981908 
-0.215489 0.0131711 0.976417 0.69049 0.599101 0.405341 0.705873 0.614673 0.352024 
0.511697 0.557418 0.653797 0.0988203 -0.138932 0.985359 0.683308 -0.232253 -0.692206 
0.0966505 0.245638 0.964531 0.512992 0.551903 0.657451 0.0775543 0.305158 0.949138 
0.595868 0.636864 0.489229 0.0700177 0.236994 0.968985 -0.148611 -0.721393 0.676392 
-0.0923353 -0.70743 0.700726 0.220284 0.501136 0.836862 0.40139 0.750098 0.525584 
0.410607 0.717299 0.562924 -0.0781762 -0.790026 0.608068 -0.0184004 -0.513386 0.857961 
0.179492 0.594412 0.783873 -0.196053 -0.897958 0.393999 -0.329719 -0.909284 0.253946 
0.307543 0.480786 0.821135 0.240764 0.0930936 0.966109 0.320599 0.375742 0.869503 
0.182191 0.111336 0.976939 0.276919 0.195443 0.940807 0.198594 -0.0960327 0.975366 
0.297797 0.210324 0.931172 0.590557 0.738164 0.326122 0.523577 0.422062 0.740088 
0.281375 0.411286 0.86699 -0.348494 -0.897749 -0.269441 0.495054 0.594672 0.633473 
0.583393 0.732725 0.350381 0.468872 0.465873 0.750414 0.541172 0.794773 0.274716 
0.454164 0.544094 0.705476 -0.451897 -0.891621 0.0283211 0.706155 0.582707 0.402241 
0.564871 0.599156 0.567392 0.589436 0.794259 0.147368 0 -0.229113 0.9734 
0.666803 0.687423 0.287789 -0.886193 -0.411437 -0.213029 -0.96416 -0.248093 -0.0940528 
0.457798 0.743698 -0.487169 -0.979351 -0.0279554 -0.200228 -0.999634 0.0259528 0.00762014 
-0.939588 0.202385 -0.276068 -0.875933 0.251333 -0.411794 -0.935506 0.252461 -0.247167 
0.2108 0.70837 -0.673629 0.37324 0.796376 -0.475897 0.197258 0.744325 -0.63802 
0.196076 0.839183 -0.507273 0 -0.220158 0.975464 0.519669 -0.480166 -0.706672 
-0.0945318 -0.766172 -0.635644 0.681675 -0.644383 -0.346538 0.342602 -0.500948 -0.79478 
0.838077 -0.42925 -0.336707 0.628656 -0.424157 -0.65183 0.892937 -0.358918 -0.271739 
-0.654964 -0.68257 -0.324224 -0.462924 -0.664689 -0.586421 0.963538 -0.242453 -0.113189 
0.730146 -0.347398 -0.588389 0.891798 -0.377773 -0.248964 -0.644342 -0.706527 -0.29265 
0.686638 -0.429211 -0.586777 0.887476 -0.356533 -0.29201 0.691345 -0.110374 -0.714045 
0.702009 -0.32281 -0.634805 0.968327 -0.0101234 -0.249479 -0.76795 -0.633341 -0.0955561 
-0.748227 -0.646607 -0.148511 0.964659 0.204112 -0.166645 -0.790383 -0.612575 -0.00680544 
0.896579 0.259009 -0.359249 0.923219 0.28259 -0.260403 0.906618 0.12361 -0.403441 
0.870518 0.487904 -0.0644106 0.967057 0.165365 -0.193532 -0.764144 -0.471583 0.440106 
0.862359 0.504885 -0.0377953 0.853019 0.515177 -0.0833668 -0.600841 -0.508431 0.616836 
0.822964 0.567663 0.0221108 0.761546 0.6289 0.156627 -0.417566 -0.199372 0.886504 
-0.194096 0.116302 0.974064 -0.151586 0.0349439 0.987826 -0.243285 0.115449 0.96306 
0.0968741 0.26409 0.959621 0.459888 0.451868 0.764407 0.0422859 0.272637 0.961187 
0.000594936 0.352024 0.935991 0.518738 0.480848 0.706892 0.208683 0.102704 0.972576 
0.251671 0.247766 0.935561 0.400675 0.262098 0.877932 0.177966 0.243945 0.95332 
0.329218 0.437761 0.836649 -0.196864 -0.828204 0.524712 -0.174249 -0.537655 0.824963 
-0.002135 -0.522231 0.852802 -0.176819 -0.81866 0.546379 0.034214 -0.350165 0.936063 
-0.375182 -0.890944 0.255845 0.419648 0.468748 0.777285 -0.0825226 -0.84532 0.527849 
0.256596 0.215456 0.942198 -0.349452 -0.857774 0.376971 -0.360144 -0.917865 0.166795 
0.540437 0.462864 0.702627 -0.587794 -0.805944 0.0703724 -0.367827 -0.904431 0.216119 
0.743037 0.393472 0.541364 -0.823639 -0.566934 0.0142749 0.621942 0.557046 0.550353 
0.595623 0.787536 -0.158177 0.681785 0.731365 0.0165583 0.59296 0.794013 -0.133946 
0.568512 0.777517 -0.268814 -0.829761 0.539033 -0.144706 0.214708 0.782914 -0.583906 
-0.809582 0.570149 -0.139669 -0.0510291 0.876275 -0.479102 -0.404791 0.855732 -0.322284 
0.114289 -0.984753 -0.131144 -0.479025 -0.874504 -0.0760146 0.712041 -0.673034 0.20006 
-0.507374 -0.759986 -0.406194 0.925832 -0.372202 -0.0655832 -0.668338 -0.720718 -0.184094 
0.951972 -0.174095 0.251875 -0.749636 -0.64816 -0.133921 -0.739523 -0.672305 -0.0333428 
0.986408 0.10949 0.122522 -0.825278 -0.402762 0.395852 0.86168 0.401005 -0.310971 
0.962144 0.220477 -0.160215 0.909392 0.387216 0.151888 0.867145 0.419938 0.267789 
0.851273 0.491712 0.183177 0.7681 0.470416 0.434431 -0.436773 -0.21568 0.873333 
-0.454092 -0.025346 0.890594 0.695645 0.600261 0.394671 -0.0906842 0.266173 0.95965 
0.345466 0.524074 0.77846 0.211066 0.368929 0.905176 0.560786 0.599524 0.571043 
0.172192 0.328213 0.928777 0.368311 0.518212 0.771883 -0.281301 -0.674108 0.682971 