# vtk DataFile Version 4.2
vtk output
ASCII
DATASET POLYDATA
POINTS 2773 float
348.639 161.935 44.6546 348.631 161.87 44.7391 348.866 161.812 44.675 
350.359 160.953 44.5493 350.224 161.278 44.49 341.797 166.322 44.4238 
342.743 166.217 44.1565 341.481 166.759 44.2298 339.21 167.625 44.643 
339.041 167.916 44.4884 341.273 167.284 44.0578 338.777 168.363 44.4026 
340.409 167.839 44.0702 357.681 149.349 46.0282 357.08 150.609 45.8746 
357.118 150.525 45.9271 356.989 150.839 45.9113 357.182 150.495 45.871 
350.313 160.501 45.0063 351.291 159.697 45.0949 352.822 159.834 44.69 
348.532 161.888 44.8897 349.088 161.51 44.8884 347.694 162.676 44.8184 
347.221 163.184 44.6933 346.542 163.602 44.7643 347.216 164.324 44.2063 
343.987 165.764 44.2108 350.14 164.203 44.0473 340.105 166.974 44.6937 
345.622 166.054 43.9615 337.617 168.594 44.9185 337.045 169.05 44.7862 
341.481 168.355 43.8351 333.827 169.923 45.2743 333.683 170.019 45.3072 
337.77 169.486 44.3377 332.711 170.71 45.3372 332.206 171.04 45.2995 
333.016 170.652 45.1623 335.53 170.586 44.5018 332.011 171.364 45.1432 
333.29 170.693 45.0313 337.804 170.663 44.1149 329.715 172.492 45.3972 
329.998 172.45 45.3003 330.052 172.227 45.4499 334.791 171.749 44.389 
328.128 173.406 45.5904 359.205 146.093 46.618 359.564 146.938 46.2212 
357.466 149.626 46.2057 357.161 150.32 46.0915 357.49 150.263 45.8907 
357.064 151.205 45.8284 356.726 151.406 46.0514 356.043 153.41 45.8228 
355.566 153.836 46.0254 355.241 154.524 45.8306 354.847 155.318 45.8283 
354.331 156.66 45.4738 353.256 157.586 45.5003 352.363 158.29 45.8006 
351.965 158.698 45.6199 351.718 159.04 45.3943 350.011 160.599 45.3468 
348.122 162.212 44.9938 343.428 165.415 45.0528 340.649 166.697 45.0186 
338.235 168.14 45.0866 337.413 168.587 45.3617 333.571 170.093 45.4805 
333.43 170.329 45.2466 330.873 171.608 45.6961 331.498 171.224 45.8006 
351.69 169.861 44.3405 329.083 172.686 45.6907 328.252 173.021 45.9141 
328.918 173.311 45.444 330.934 173.11 44.9006 326.706 173.785 46.1531 
322.149 175.292 46.7475 323.01 174.985 46.6683 324.667 174.715 46.2776 
321.699 175.632 46.7086 323.853 174.967 46.3747 322.228 176.11 46.444 
362.189 132.539 48.1781 362.209 132.409 48.3002 362.13 132.577 48.2254 
362.4 132.451 48.2215 362.134 132.633 48.1379 362.137 132.697 48.1106 
362.6 134.808 47.5795 362.657 134.736 47.5741 362.234 136.072 47.4977 
362.147 136.687 47.4338 360.812 140.001 47.4234 360.701 142.662 46.945 
360.211 144.203 46.8326 362.316 142.638 46.6472 359.979 147.371 46.0913 
358.039 148.185 46.8074 357.488 149.446 46.5917 356.709 151.199 46.3277 
360.859 150.221 45.8698 356.668 151.354 46.5869 355.734 153.391 46.1955 
356.006 152.879 46.3928 352.881 157.78 46.0916 350.499 160.208 45.6734 
348.461 162.183 45.7742 341.67 166.281 45.2705 332.064 170.904 45.8756 
328.282 172.738 46.2676 323.121 174.72 46.962 324.169 174.696 46.4469 
321.484 175.634 46.7973 321.866 176.792 46.5199 325.579 177.695 45.7565 
362.346 131.899 48.5312 362.101 132.641 48.4523 362.298 133.091 48.1022 
362.653 134.09 47.8002 361.969 135.103 47.9294 362.468 134.98 47.6456 
363.199 134.77 47.6313 363.983 135.235 47.6266 360.753 139.054 47.873 
360.083 141.921 47.9617 359.9 142.666 47.6587 359.849 142.654 47.8275 
359.77 142.95 47.6835 359.696 143.245 47.6491 359.659 143.587 47.5527 
359.546 144.144 47.6401 357.821 148.812 46.9602 354.899 155.102 46.4855 
353.246 157.518 46.4406 343.615 166.275 46.118 332.014 171.019 46.3173 
332.819 170.837 46.5001 329.947 172.058 46.6171 328.013 172.758 46.5887 
319.649 176.611 47.5248 318.337 178.224 47.4514 364.646 126.256 49.5536 
364.888 126.351 49.5687 363.864 128.649 49.1738 365.26 128.206 49.1515 
362.914 129.907 49.1138 362.272 130.961 49.0813 362.051 133.816 48.2048 
361.749 134.433 48.4434 360.695 138.994 48.231 359.648 143.506 47.7271 
358.37 148.459 47.8018 356.605 152.173 47.1247 354.287 156.562 46.9251 
355.556 156.946 48.0909 326.937 173.208 47.4285 320.871 175.432 48.2161 
319.755 175.958 47.9889 310.21 180.675 49.2639 309.879 180.819 49.3479 
310.764 180.635 49.0733 319.898 180.405 47.0431 364.633 126.199 49.6294 
365.024 125.543 50.0294 365.621 125.318 50.1764 364.87 125.969 49.7921 
364.412 126.296 49.7582 363.798 126.651 49.9689 361.466 135.05 49.1493 
360.813 138.401 48.6862 360.274 141.09 48.5553 360.405 140.997 48.8593 
359.428 149.713 49.2648 325.505 174.003 48.3071 326.834 173.618 48.1317 
323.156 174.613 48.1443 320.934 175.462 48.8366 315.458 177.478 49.1191 
312.721 178.911 49.4492 314.127 178.254 49.2551 308.383 181.526 49.7661 
305.788 183.002 49.7744 307.656 182.717 49.4039 309.957 182.775 48.873 
306.211 184.954 49.3901 313.752 187.838 48.9275 364.901 124.076 51.0144 
365.935 123.613 51.0634 364.541 124.596 50.8445 362.323 129.051 50.4913 
362.246 129.587 50.0721 362.167 129.602 50.176 368.928 129.273 50.0659 
362.14 130.381 50.0436 320.464 175.661 49.1767 321.191 175.641 49.3599 
326.453 174.443 48.9058 321.695 175.431 49.094 314.618 177.903 49.7925 
314.165 178.108 49.6027 311.623 179.407 49.6887 310.455 180.223 49.9424 
307.772 181.678 50.1481 303.008 183.656 50.3966 302.21 183.746 50.6481 
303.819 183.156 50.455 336.055 179.928 50.6961 302.392 184.644 50.212 
304.259 184.228 49.8211 299.827 185.215 50.6429 302.484 186.553 50.0504 
366.872 121.083 52.394 365.102 123.155 51.6772 364.316 124.016 51.5775 
364.071 124.505 51.3406 362.344 128.787 51.0232 361.969 133.305 50.5034 
362.251 134.345 51.1599 361.459 137.268 50.08 317.747 176.547 49.5457 
320.78 176.194 49.8167 314.02 178.223 49.8249 313.713 178.498 49.986 
311.752 179.42 49.8802 311.644 179.662 50.1541 313.104 178.891 50.0579 
310.745 180.22 50.2211 308.449 181.437 50.3317 305.926 182.352 50.5849 
301.524 183.796 51.0036 302.912 183.358 50.9641 298.769 184.617 51.5242 
296.715 185.487 51.4714 296.143 185.431 51.7571 297.222 185.166 51.6219 
292.947 186.791 51.9245 297.57 188.253 50.8865 303.837 190.618 50.747 
304.674 191.381 51.0509 305.693 191.447 50.8271 304.224 191.801 51.3829 
304.936 191.837 51.5346 305.491 192.21 51.7536 305.566 191.994 51.2439 
306.062 192.691 51.3448 306.96 193.664 51.276 368.582 117.632 53.7915 
367.821 118.727 53.4372 368.599 118.951 53.1869 369.103 118.148 53.5044 
368.971 119.442 53.0267 366.746 120.855 52.5962 366.449 120.807 52.8798 
369.603 119.924 52.9711 363.729 124.86 51.6512 362.855 136.231 51.955 
374.964 140.963 51.1458 357.739 173.161 51.9755 316.243 177.515 50.1641 
313.835 178.764 50.3012 311.904 179.879 50.4328 310.962 180.532 50.556 
316.358 179.376 51.0671 305.677 182.559 50.8382 305.122 182.652 50.7411 
307.539 182.41 50.9822 306.492 182.782 51.1203 298.611 184.557 51.7375 
298.002 184.863 51.7956 299.441 184.473 51.623 306.958 183.697 51.5458 
308.808 183.305 51.4889 295.428 185.598 51.7876 295.976 185.438 51.9249 
296.674 185.346 51.918 291.616 187.028 52.3915 290.835 187.345 52.4524 
293.098 186.433 52.1343 289.78 187.583 52.6797 291.528 187.651 52.1644 
288.818 188.157 52.6995 294.516 187.608 51.3958 292.728 188.438 51.8627 
288.702 188.904 52.8004 290.111 189.018 52.6044 291.484 189.423 52.4252 
292.589 190.079 52.3092 292.688 189.893 52.0998 305.087 189.984 52.2542 
293.121 190.694 52.1316 293.135 190.661 52.2496 293.288 191.056 52.1687 
304.405 191.117 52.128 306.38 190.382 52.347 293.386 191.289 52.0916 
293.425 191.447 52.1398 305.027 191.577 51.9252 304.623 192.014 51.8853 
305.65 191.43 52.1171 293.471 191.717 52.0782 293.476 191.785 52.109 
298.547 191.858 51.5256 304.121 192.455 51.563 305.023 192.597 51.7429 
305.316 192.42 52.0817 306.1 192.12 52.2794 306.91 191.932 52.5103 
293.442 191.928 52.0821 293.442 192.002 52.0812 304.859 193.271 51.6467 
305.714 193.157 51.5603 293.458 192.004 52.0743 293.541 192.002 52.0657 
293.707 192.005 52.0574 293.895 192.023 52.051 293.864 191.963 52.0254 
303.636 193.984 51.8457 294.055 192.01 52.028 294.819 191.984 52.0099 
296.156 192.098 52.0097 296.991 192.277 52.0304 297.932 192.599 52.0792 
299.037 193.227 52.1898 300.182 194.035 52.2824 302.155 194.201 52.1363 
303.684 195.237 52.451 304.912 196.574 52.861 304.829 195.863 52.3752 
306.026 197.683 52.719 368.467 116.704 54.353 368.374 116.891 54.2383 
368.133 117.589 53.9899 367.794 118.09 53.8614 366.71 119.853 53.5223 
364.257 123.604 52.6935 364.053 123.984 52.6737 364.512 123.304 52.476 
363.202 165.154 53.312 305.867 182.698 51.0075 302.352 183.829 51.4295 
298.307 184.566 51.8155 298.467 184.506 51.8267 298.324 184.51 51.8427 
298.818 184.554 51.8079 299.319 184.759 51.8713 301.341 184.44 51.7325 
294.24 185.858 52.1072 293.87 186.028 52.1953 294.678 185.717 52.015 
294.714 185.763 52.1347 298.25 184.594 51.8448 298.517 185.116 52.0001 
298.368 184.689 51.8814 293.786 186.073 52.0992 293.381 186.298 52.2544 
294.322 185.867 51.9778 292.52 186.707 52.3651 286.55 188.028 53.3716 
286.224 188.166 53.3352 288.504 187.775 53.053 285.957 189.04 53.137 
288.146 189.021 52.98 289.121 188.969 52.8569 290.449 189.083 52.6931 
291.896 189.445 52.5518 293.291 190.308 52.4038 286.35 189.388 53.1827 
287.452 189.147 53.1182 284.751 190.032 53.4271 297.8 191.344 52.5151 
303.779 191.595 52.2818 308.759 191.959 52.8642 283.302 190.89 53.7718 
284.061 190.51 53.6509 284.544 190.319 53.6044 284.54 190.257 53.5245 
304.761 192.669 52.362 284.841 190.176 53.5041 285.105 190.057 53.4601 
293.497 192.006 52.0821 293.613 192.006 52.0793 293.833 191.975 52.089 
302.455 193.371 52.5547 294.507 191.982 52.0749 295.681 192.014 52.1086 
297.274 192.323 52.1828 298.175 192.657 52.2556 299.031 193.098 52.3661 
299.645 194.237 52.4497 300.99 194.165 52.4223 299.079 196.01 52.7433 
299.16 195.865 52.7162 299.425 195.304 52.615 300 194.784 52.5022 
302.564 194.601 52.4355 303.609 195.022 52.6313 286.352 197.662 53.0131 
286.352 197.662 53.0131 286.352 197.662 53.0131 286.352 197.662 53.0131 
[...]
POINT_DATA 2773
SCALARS scalars float
LOOKUP_TABLE default
1 1 1 1 1 1 1 1 1 
1 1 1 1 1 1 1 1 1 
1 1 1 1 1 1 1 1 1 
1 1 1 1 1 1 1 1 1 
1 1 1 1 1 1 1 1 1 
1 1 1 1 1 1 1 1 1 
1 1 1 1 1 1 1 1 1 
1 1 1 1 1 1 1 1 1 
1 1 1 1 1 1 1 1 1 
1 1 1 1 1 1 1 1 1 
1 1 1 1 1 1 1 1 1 
1 1 1 1 1 1 1 1 1 
1 1 1 1 1 1 1 1 1 
1 1 1 1 1 1 1 1 1 
1 1 1 1 1 1 1 1 1 
1 1 1 1 1 1 1 1 1 
1 1 1 1 1 1 1 1 1 
1 1 1 1 1 1 1 1 1 
1 1 1 1 1 1 1 1 1 
1 1 1 1 1 1 1 1 1 
1 1 1 1 1 1 1 1 1 
1 1 1 1 1 1 1 1 1 
1 1 1 1 1 1 1 1 1 
1 1 1 1 1 1 1 1 1 
1 1 1 1 1 1 1 1 1 
1 1 1 1 1 1 1 1 1 
1 1 1 1 1 1 1 1 1 
1 1 1 1 1 1 1 1 1 
1 1 1 1 1 1 1 1 1 
1 1 1 1 1 1 1 1 1 
1 1 1 1 1 1 1 1 1 
1 1 1 1 1 1 1 1 1 
1 1 1 1 1 1 1 1 1 
1 1 1 1 1 1 1 1 1 
1 1 1 1 1 1 1 1 1 
1 1 1 1 1 1 1 1 1 
1 1 1 1 1 1 1 1 1 
1 1 1 1 1 1 1 1 1 
1 1 1 1 1 1 1 1 1 
1 1 1 1 1 1 1 1 1 
1 1 1 1 1 1 1 1 1 
1 1 1 1 1 1 1 1 1 
1 1 1 1 1 1 1 1 1 
1 1 1 1 1 1 1 1 1 
1 1 1 1 1 1 1 1 1 
1 1 1 1 1 1 1 1 1 
1 1 1 1 1 1 1 1 1 
1 1 1 1 1 1 1 1 1 
1 1 1 1 1 1 1 1 1 
1 1 1 1 1 1 1 1 1 
1 1 1 1 1 1 1 1 1 
1 1 1 1 1 1 1 1 1 
1 1 1 1 1 1 1 1 1 
1 1 1 1 1 1 1 1 1 
1 1 1 1 1 1 1 1 1 
1 1 1 1 1 1 1 1 1 
1 1 1 1 1 1 1 1 1 
1 1 1 1 1 1 1 1 1 
1 1 1 1 1 1 1 1 1 
1 1 1 1 1 1 1 1 1 
1 1 1 1 1 1 1 1 1 
1 1 1 1 1 1 1 1 1 
1 1 1 1 1 1 1 1 1 
1 1 1 1 1 1 1 1 1 
1 1 1 1 1 1 1 1 1 
1 1 1 1 1 1 1 1 1 
1 1 1 1 1 1 1 1 1 
1 1 1 1 1 1 1 1 1 
1 1 1 1 1 1 1 1 1 
1 1 1 1 1 1 1 1 1 
1 1 1 1 1 1 1 1 1 
1 1 1 1 1 1 1 1 1 
1 1 1 1 1 1 1 1 1 
1 1 1 1 1 1 1 1 1 
1 1 1 1 1 1 1 1 1 
1 1 1 1 1 1 1 1 1 
1 1 1 1 1 1 1 1 1 
1 1 1 1 1 1 1 1 1 
1 1 1 1 1 1 1 1 1 
1 1 1 1 1 1 1 1 1 
1 1 1 1 1 1 1 1 1 
1 1 1 1 1 1 1 1 1 
1 1 1 1 1 1 1 1 1 
1 1 1 1 1 1 1 1 1 
1 1 1 1 1 1 1 1 1 
1 1 1 1 1 1 1 1 1 
1 1 1 1 1 1 1 1 1 
1 1 1 1 1 1 1 1 1 
1 1 1 1 1 1 1 1 1 
1 1 1 1 1 1 1 1 1 
1 1 1 1 1 1 1 1 1 
1 1 1 1 1 1 1 1 1 
1 1 1 1 1 1 1 1 1 
1 1 1 1 1 1 1 1 1 
1 1 1 1 1 1 1 1 1 
1 1 1 1 1 1 1 1 1 
1 1 1 1 1 1 1 1 1 
1 1 1 1 1 1 1 1 1 
1 1 1 1 1 1 1 1 1 
1 1 1 1 1 1 1 1 1 
1 1 1 1 1 1 1 1 1 
1 1 1 1 1 1 1 1 1 
1 1 1 1 1 1 1 1 1 
1 1 1 1 1 1 1 1 1 
1 1 1 1 1 1 1 1 1 
1 1 1 1 1 1 1 1 1 
1 1 1 1 1 1 1 1 1 
1 1 1 1 1 1 1 1 1 
1 1 1 1 1 1 1 1 1 
1 1 1 1 1 1 1 1 1 
1 1 1 1 1 1 1 1 1 
1 1 1 1 1 1 1 1 1 
1 1 1 1 1 1 1 1 1 
1 1 1 1 1 1 1 1 1 
1 1 1 1 1 1 1 1 1 
1 1 1 1 1 1 1 1 1 
1 1 1 1 1 1 1 1 1 
1 1 1 1 1 1 1 1 1 
1 1 1 1 1 1 1 1 1 
1 1 1 1 1 1 1 1 1 
1 1 1 1 1 1 1 1 1 
1 1 1 1 1 1 1 1 1 
1 1 1 1 1 1 1 1 1 
1 1 1 1 1 1 1 1 1 
1 1 1 1 1 1 1 1 1 
1 1 1 1 1 1 1 1 1 
1 1 1 1 1 1 1 1 1 
1 1 1 1 1 1 1 1 1 
1 1 1 1 1 1 1 1 1 
1 1 1 1 1 1 1 1 1 
1 1 1 1 1 1 1 1 1 
1 1 1 1 1 1 1 1 1 
1 1 1 1 1 1 1 1 1 
1 1 1 1 1 1 1 1 1 
1 1 1 1 1 1 1 1 1 
1 1 1 1 1 1 1 1 1 
1 1 1 1 1 1 1 1 1 
1 1 1 1 1 1 1 1 1 
1 1 1 1 1 1 1 1 1 
1 1 1 1 1 1 1 1 1 
1 1 1 1 1 1 1 1 1 
1 1 1 1 1 1 1 1 1 
1 1 1 1 1 1 1 1 1 
1 1 1 1 1 1 1 1 1 
1 1 1 1 1 1 1 1 1 
1 1 1 1 1 1 1 1 1 
1 1 1 1 1 1 1 1 1 
1 1 1 1 1 1 1 1 1 
1 1 1 1 1 1 1 1 1 
1 1 1 1 1 1 1 1 1 
1 1 1 1 1 1 1 1 1 
1 1 1 1 1 1 1 1 1 
1 1 1 1 1 1 1 1 1 
1 1 1 1 1 1 1 1 1 
1 1 1 1 1 1 1 1 1 
1 1 1 1 1 1 1 1 1 
1 1 1 1 1 1 1 1 1 
1 1 1 1 1 1 1 1 1 
1 1 1 1 1 1 1 1 1 
1 1 1 1 1 1 1 1 1 
1 1 1 1 1 1 1 1 1 
1 1 1 1 1 1 1 1 1 
1 1 1 1 1 1 1 1 1 
1 1 1 1 1 1 1 1 1 
1 1 1 1 1 1 1 1 1 
1 1 1 1 1 1 1 1 1 
1 1 1 1 1 1 1 1 1 
1 1 1 1 1 1 1 1 1 
1 1 1 1 1 1 1 1 1 
1 1 1 1 1 1 1 1 1 
1 1 1 1 1 1 1 1 1 
1 1 1 1 1 1 1 1 1 
1 1 1 1 1 1 1 1 1 
1 1 1 1 1 1 1 1 1 
1 1 1 1 1 1 1 1 1 
1 1 1 1 1 1 1 1 1 
1 1 1 1 1 1 1 1 1 
1 1 1 1 1 1 1 1 1 
1 1 1 1 1 1 1 1 1 
1 1 1 1 1 1 1 1 1 
1 1 1 1 1 1 1 1 1 
1 1 1 1 1 1 1 1 1 
1 1 1 1 1 1 1 1 1 
1 1 1 1 1 1 1 1 1 
1 1 1 1 1 1 1 1 1 
1 1 1 1 1 1 1 1 1 
1 1 1 1 1 1 1 1 1 
1 1 1 1 1 1 1 1 1 
1 1 1 1 1 1 1 1 1 
1 1 1 1 1 1 1 1 1 
1 1 1 1 1 1 1 1 1 
1 1 1 1 1 1 1 1 1 
1 1 1 1 1 1 1 1 1 
1 1 1 1 1 1 1 1 1 
1 1 1 1 1 1 1 1 1 
1 1 1 1 1 1 1 1 1 
1 1 1 1 1 1 1 1 1 
1 1 1 1 1 1 1 1 1 
1 1 1 1 1 1 1 1 1 
1 1 1 1 1 1 1 1 1 
1 1 1 1 1 1 1 1 1 
1 1 1 1 1 1 1 1 1 
1 1 1 1 1 1 1 1 1 
1 1 1 1 1 1 1 1 1 
1 1 1 1 1 1 1 1 1 
1 1 1 1 1 1 1 1 1 
1 1 1 1 1 1 1 1 1 
1 1 1 1 1 1 1 1 1 
1 1 1 1 1 1 1 1 1 
1 1 1 1 1 1 1 1 1 
1 1 1 1 1 1 1 1 1 
1 1 1 1 1 1 1 1 1 
1 1 1 1 1 1 1 1 1 
1 1 1 1 1 1 1 1 1 
1 1 1 1 1 1 1 1 1 
1 1 1 1 1 1 1 1 1 
1 1 1 1 1 1 1 1 1 
1 1 1 1 1 1 1 1 1 
1 1 1 1 1 1 1 1 1 
1 1 1 1 1 1 1 1 1 
1 1 1 1 1 1 1 1 1 
1 1 1 1 1 1 1 1 1 
1 1 1 1 1 1 1 1 1 
1 1 1 1 1 1 1 1 1 
1 1 1 1 1 1 1 1 1 
1 1 1 1 1 1 1 1 1 
1 1 1 1 1 1 1 1 1 
1 1 1 1 1 1 1 1 1 
1 1 1 1 1 1 1 1 1 
1 1 1 1 1 1 1 1 1 
1 1 1 1 1 1 1 1 1 
1 1 1 1 1 1 1 1 1 
1 1 1 1 1 1 1 1 1 
1 1 1 1 1 1 1 1 1 
1 1 1 1 1 1 1 1 1 
1 1 1 1 1 1 1 1 1 
1 1 1 1 1 1 1 1 1 
1 1 1 1 1 1 1 1 1 
1 1 1 1 1 1 1 1 1 
1 1 1 1 1 1 1 1 1 
1 1 1 1 1 1 1 1 1 
1 1 1 1 1 1 1 1 1 
1 1 1 1 1 1 1 1 1 
1 1 1 1 1 1 1 1 1 
1 1 1 1 1 1 1 1 1 
1 1 1 1 1 1 1 1 1 
1 1 1 1 1 1 1 1 1 
1 1 1 1 1 1 1 1 1 
1 1 1 1 1 1 1 1 1 
1 1 1 1 1 1 1 1 1 
1 1 1 1 1 1 1 1 1 
1 1 1 1 1 1 1 1 1 
1 1 1 1 1 1 1 1 1 
1 1 1 1 1 1 1 1 1 
1 1 1 1 1 1 1 1 1 
1 1 1 1 1 1 1 1 1 
1 1 1 1 1 1 1 1 1 
1 1 1 1 1 1 1 1 1 
1 1 1 1 1 1 1 1 1 
1 1 1 1 1 1 1 1 1 
1 1 1 1 1 1 1 1 1 
1 1 1 1 1 1 1 1 1 
1 1 1 1 1 1 1 1 1 
1 1 1 1 1 1 1 1 1 
1 1 1 1 1 1 1 1 1 
1 1 1 1 1 1 1 1 1 
1 1 1 1 1 1 1 1 1 
1 1 1 1 1 1 1 1 1 
1 1 1 1 1 1 1 1 1 
1 1 1 1 1 1 1 1 1 
1 1 1 1 1 1 1 1 1 
1 1 1 1 1 1 1 1 1 
1 1 1 1 1 1 1 1 1 
1 1 1 1 1 1 1 1 1 
1 1 1 1 1 1 1 1 1 
1 1 1 1 1 1 1 1 1 
1 1 1 1 1 1 1 1 1 
1 1 1 1 1 1 1 1 1 
1 1 1 1 1 1 1 1 1 
1 1 1 1 1 1 1 1 1 
1 1 1 1 1 1 1 1 1 
1 1 1 1 1 1 1 1 1 
1 1 1 1 1 1 1 1 1 
1 1 1 1 1 1 1 1 1 
1 1 1 1 1 1 1 1 1 
1 1 1 1 1 1 1 1 1 
1 1 1 1 1 1 1 1 1 
1 1 1 1 1 1 1 1 1 
1 1 1 1 1 1 1 1 1 
1 1 1 1 1 1 1 1 1 
1 1 1 1 1 1 1 1 1 
1 1 1 1 1 1 1 1 1 
1 1 1 1 1 1 1 1 1 
1 1 1 1 1 1 1 1 1 
1 1 1 1 1 1 1 1 1 
1 1 1 1 1 1 1 1 1 
1 1 1 1 1 1 1 1 1 
1 1 1 1 1 1 1 1 1 
1 1 1 1 1 1 1 1 1 
1 1 1 1 1 1 1 1 1 
1 1 1 1 1 1 1 1 1 
1 1 1 1 1 1 1 1 1 
1 1 1 1 1 1 1 1 1 
1 1 1 1 1 1 1 1 1 
1 1 1 1 1 1 1 1 1 
1 1 1 1 1 1 1 1 1 
1 1 1 1 1 1 1 1 1 
1 1 1 1 1 1 1 1 1 
1 
NORMALS Normals float
-0.454367 -0.541574 -0.707282 -0.511938 -0.70214 -0.494892 -0.345383 -0.5834 -0.735088 
-0.293048 -0.400575 -0.868138 -0.331166 -0.344336 -0.8785 -0.352107 -0.736554 -0.577502 
-0.127033 -0.361992 -0.923485 -0.206486 -0.42301 -0.882285 -0.628571 -0.643192 -0.437267 
-0.46354 -0.403265 -0.788992 -0.0688386 -0.275755 -0.95876 -0.442638 -0.460561 -0.769386 
-0.269595 -0.285814 -0.919581 -0.537894 -0.328006 -0.776584 -0.500329 -0.227224 -0.835488 
-0.750231 -0.576952 -0.322924 -0.84708 -0.280732 -0.451271 -0.447196 -0.501458 -0.740645 
-0.565965 -0.635359 -0.52536 -0.590826 -0.662067 -0.461077 0.168123 -0.12949 -0.977224 
-0.654064 -0.727884 -0.205878 -0.589673 -0.792949 -0.153358 -0.548577 -0.607852 -0.57409 
-0.461556 -0.569335 -0.680312 -0.347531 -0.559903 -0.752151 -0.189383 -0.264625 -0.945573 
-0.158813 -0.26072 -0.952262 -0.00885364 -0.122975 -0.99237 -0.429226 -0.783127 -0.449975 
-0.132008 -0.0978028 -0.986412 -0.44835 -0.689795 -0.568476 -0.466041 -0.5574 -0.687103 
-0.0875475 -0.122002 -0.988661 -0.42891 -0.764055 -0.481929 -0.636963 -0.709718 -0.300963 
-0.317326 -0.327597 -0.889935 -0.447633 -0.563333 -0.694464 -0.462662 -0.727356 -0.506851 
-0.439525 -0.385989 -0.811067 -0.326269 -0.447245 -0.832779 -0.352964 -0.501549 -0.789851 
-0.356184 -0.381688 -0.852906 -0.153926 -0.0829532 -0.984594 -0.474793 -0.535566 -0.698385 
-0.22372 -0.42689 -0.876193 -0.353959 -0.671201 -0.651309 -0.140178 -0.09483 -0.985575 
-0.425498 -0.47644 -0.769387 -0.456088 -0.407153 -0.791334 -0.0991641 -0.229855 -0.96816 
-0.84381 -0.417735 -0.336873 -0.843831 -0.447178 -0.296616 -0.318174 -0.299999 -0.899314 
-0.313163 -0.103796 -0.94401 -0.812592 -0.328721 -0.481286 -0.406058 -0.226226 -0.885403 
-0.724304 -0.457757 -0.515599 -0.605801 -0.367436 -0.705688 -0.815446 -0.475173 -0.330542 
-0.569186 -0.51579 -0.640303 -0.640033 -0.615459 -0.459965 -0.524703 -0.738777 -0.42296 
-0.732622 -0.661885 -0.158658 -0.570866 -0.676824 -0.464781 -0.633659 -0.755808 -0.165017 
-0.630342 -0.76909 -0.105688 -0.466363 -0.881468 0.0742905 -0.462473 -0.879552 -0.111835 
-0.529485 -0.791315 -0.305722 -0.508386 -0.817282 -0.27128 -0.507784 -0.855251 -0.10345 
-0.513063 -0.651241 -0.559152 -0.459294 -0.86167 -0.215809 -0.476695 -0.830505 -0.288137 
0.1002 0.211485 -0.972231 -0.406632 -0.731449 -0.547387 -0.461876 -0.616498 -0.637653 
-0.313958 -0.33521 -0.888293 -0.212373 -0.219879 -0.95213 -0.331211 -0.460684 -0.82345 
-0.373489 -0.659919 -0.65193 -0.0957325 -0.333564 -0.937854 -0.205973 -0.59036 -0.780417 
-0.338858 -0.217595 -0.915329 -0.240794 -0.434584 -0.867845 0.0128015 -0.0892487 -0.995927 
-0.33498 -0.567437 -0.752199 -0.669733 -0.551835 -0.496927 -0.918716 -0.33169 -0.214342 
0.000322575 -0.362169 -0.932112 -0.716635 -0.397743 -0.572918 -0.653469 -0.13691 -0.744469 
-0.262768 0.00574068 -0.964842 -0.0814601 -0.167557 -0.982491 -0.545861 -0.110472 -0.830561 
-0.0919701 -0.148037 -0.984696 -0.821434 -0.245527 -0.514745 -0.508121 -0.238169 -0.827701 
-0.57033 -0.243236 -0.784576 -0.0604474 -0.150896 -0.9867 -0.0691941 -0.210636 -0.975113 
-0.912871 -0.406 -0.0427833 -0.913769 -0.398327 0.0797631 -0.943323 -0.324687 -0.0686953 
-0.0174976 -0.105556 -0.994259 -0.914696 -0.316124 0.251786 -0.852139 -0.491121 -0.180718 
-0.87962 -0.456 -0.135395 -0.704309 -0.708356 -0.0466839 -0.701821 -0.710807 0.0469092 
-0.531716 -0.551361 0.642868 -0.354369 -0.81315 0.461746 -0.436164 -0.899564 0.0233545 
-0.455974 -0.778921 -0.430545 -0.318653 -0.864436 -0.388859 -0.169192 -0.620564 -0.765686 
-0.467427 -0.578868 -0.668149 -0.148141 0.00719688 -0.98894 -0.165974 -0.000841231 -0.98613 
-0.40632 -0.508761 -0.75899 -0.944266 -0.161894 -0.286623 -0.532241 -0.0486738 -0.845193 
-0.241336 -0.276036 -0.930355 -0.70753 -0.143288 -0.692004 -0.154883 0.0414226 -0.987064 
0.114315 -0.031509 -0.992945 0.126041 -0.020744 -0.991808 -0.871151 -0.221744 -0.438094 
-0.865488 -0.320525 -0.384959 -0.74693 -0.324305 -0.58045 -0.967047 -0.242883 0.0763467 
-0.935853 -0.287352 -0.20398 -0.853225 -0.246868 -0.459417 -0.885783 -0.17111 -0.431405 
-0.958324 -0.273197 -0.0835393 -0.904908 -0.378885 0.193873 -0.823896 -0.507738 0.251788 
-0.677264 -0.540065 0.499644 -0.419706 -0.635703 0.647864 -0.385159 -0.88428 0.26401 
-0.306832 -0.854592 0.418958 -0.371218 -0.900343 0.227112 -0.404058 -0.880416 -0.248203 
-0.462827 -0.372667 -0.804308 -0.328727 -0.263603 -0.906891 -0.172335 -0.395918 -0.90197 
0.153271 -0.325128 -0.933166 -0.447779 -0.292977 -0.844783 0.0408757 -0.195782 -0.979795 
-0.465053 -0.373895 -0.802452 -0.546936 -0.453572 -0.703658 -0.78245 -0.213455 -0.584986 
-0.918483 -0.19167 -0.345907 -0.996589 -0.0685077 0.046018 -0.976482 -0.174976 0.12596 
-0.82812 -0.262539 0.495269 -0.868116 -0.310181 0.387509 -0.681817 -0.3126 0.661367 
-0.653217 -0.189693 0.733024 -0.405812 -0.901088 0.152832 -0.303502 -0.952771 0.0106291 
-0.438388 -0.822085 -0.363308 -0.415514 -0.643742 -0.642607 -0.405007 -0.501713 -0.764364 
-0.312338 -0.403836 -0.859861 -0.110951 0.169311 -0.979298 -0.480008 -0.717926 -0.504157 
-0.210783 -0.501612 -0.839021 0.0843788 -0.432335 -0.897757 -0.208027 -0.655424 -0.726047 
-0.538663 -0.552547 -0.63603 -0.688166 -0.441868 -0.575482 -0.98292 -0.178857 0.0433478 
-0.979981 -0.101006 0.171563 -0.939162 -0.33738 0.0644169 -0.953224 -0.200923 0.225817 
-0.742903 -0.12486 0.657651 -0.173135 -0.77213 0.611425 -0.257149 -0.777057 0.574505 
-0.308118 -0.926626 0.21547 -0.174895 -0.957426 0.229669 -0.442656 -0.792335 -0.419834 
-0.449519 -0.835389 -0.31632 -0.422337 -0.802485 -0.421485 -0.413479 -0.680961 -0.604423 
-0.266366 -0.469306 -0.841903 -0.281062 -0.408867 -0.868235 -0.139361 -0.0486392 -0.989046 
-0.126652 -0.185237 -0.974498 -0.0869069 0.169855 -0.98163 -0.406892 -0.554233 -0.72613 
-0.0389345 -0.460262 -0.886929 -0.336719 -0.488034 -0.80526 -0.673488 -0.490972 -0.552594 
-0.668683 -0.398977 -0.62744 -0.943563 -0.226262 -0.241857 0.277466 -0.2056 -0.938478 
-0.971974 -0.133989 -0.193165 -0.27259 -0.908328 0.31723 -0.0682507 -0.799779 0.596403 
-0.142448 -0.671336 0.727335 -0.10842 -0.872455 0.476515 -0.397555 -0.882747 0.250416 
-0.481351 -0.876384 0.0159049 -0.484011 -0.874942 -0.0144606 -0.439377 -0.666106 0.602703 
-0.411955 -0.910472 -0.0365311 -0.187334 -0.549877 -0.813966 -0.301397 -0.635551 -0.710799 
-0.326649 -0.794904 -0.511301 -0.110662 -0.462388 0.879745 -0.150317 -0.234607 -0.960398 
-0.082129 -0.245241 -0.965977 -0.254516 -0.328423 -0.909593 -0.137361 0.0391473 -0.989747 
-0.250812 -0.452075 -0.855991 -0.487853 -0.608002 -0.626365 -0.700824 -0.576947 -0.419498 
-0.68598 -0.502093 -0.526625 -0.960449 -0.278405 0.00532685 -0.929108 -0.0556959 0.365591 
-0.895967 -0.130312 0.424572 -0.960849 -0.108672 0.254873 -0.297278 -0.896478 0.328563 
-0.0591418 -0.610221 0.790021 -0.466904 -0.798924 0.379106 -0.480112 -0.774774 0.41136 
-0.37462 -0.820237 0.432286 -0.272181 -0.715684 0.643206 -0.370649 -0.615169 0.695836 
-0.457779 -0.649435 0.607184 -0.173594 -0.683066 0.709427 -0.240842 -0.899508 0.364528 
-0.317235 -0.823915 -0.469602 -0.262462 -0.913557 0.310688 -0.313422 -0.907339 -0.280184 
-0.273297 -0.628349 -0.728345 -0.220496 -0.934102 -0.280775 -0.310576 -0.91397 -0.261155 
-0.282995 -0.390095 -0.876207 -0.125921 0.0064406 -0.992019 -0.0245674 0.299882 -0.95366 
-0.180776 0.632353 -0.753292 -0.284717 0.441838 -0.850715 0.251574 0.591931 -0.765721 
-0.121974 0.957032 -0.263083 -0.98351 0.179266 0.0239034 -0.46891 0.662792 -0.583807 
-0.556524 0.350739 -0.753169 -0.199788 0.247433 -0.948083 -0.158996 -0.423202 -0.891975 
-0.320168 -0.442958 -0.837425 -0.00635376 -0.353478 -0.935421 -0.0321809 -0.410008 -0.911514 
0.0190346 -0.329121 -0.944096 -0.535862 -0.478256 -0.69579 -0.676733 -0.539237 -0.501255 
0.23291 -0.288606 -0.928687 -0.933644 -0.343627 -0.101143 -0.707877 0.0942895 0.700014 
0.339841 0.0471468 -0.9393 -0.355935 -0.320988 0.877654 -0.137028 -0.590201 0.795541 
-0.300119 -0.534249 0.790258 -0.233088 -0.60177 0.7639 -0.253448 -0.421062 0.870902 
-0.137695 -0.356487 0.924098 -0.121342 -0.761923 0.636199 -0.255434 -0.850452 0.459875 
0.0958988 -0.431916 0.896801 -0.100128 -0.543614 0.833342 -0.18244 -0.846964 -0.499367 
-0.513729 -0.849158 0.122531 -0.0861785 -0.926733 0.365703 -0.0145326 -0.303787 0.952629 
-0.0427306 -0.241807 0.969383 -0.252308 -0.824999 -0.505685 -0.180449 -0.977518 0.109068 
-0.149755 -0.76775 0.623003 -0.336433 -0.719141 -0.607988 -0.330578 -0.23064 -0.915163 
-0.446026 -0.815375 -0.369086 -0.286766 -0.700565 -0.653432 -0.37578 -0.187837 -0.907473 
-0.204713 -0.0805617 -0.975501 -0.183351 -0.0375229 -0.982331 -0.260778 0.117291 -0.958247 
-0.0303581 0.723791 -0.689351 -0.201871 0.795614 -0.571179 -0.401596 0.785749 -0.470446 
-0.599914 0.735437 0.315018 -0.454771 0.32433 -0.829453 0.0325844 -0.044508 0.998478 
-0.797192 0.454732 -0.39712 -0.570056 0.440108 0.693788 -0.795474 0.382304 0.470175 
0.126403 0.270253 0.954456 -0.123471 -0.00327271 0.992343 -0.800422 0.23277 -0.552396 
-0.824778 0.229889 0.516617 -0.019696 0.564321 0.82532 0.965464 0.056376 0.254364 
-0.269636 0.276061 0.922544 -0.667425 -0.0199527 -0.744409 -0.440092 0.0862979 0.893796 
-0.11216 0.491388 -0.863688 0.35392 0.104665 -0.929401 0.0148454 -0.430269 -0.902579 
-0.123415 -0.689592 0.713605 -0.380479 -0.0380343 0.924007 -0.158454 0.0191186 0.987181 
-0.771019 -0.0637142 0.633617 -0.605381 0.608539 0.513024 -0.0724492 0.11947 -0.990191 
-0.252833 -0.0813211 -0.964086 -0.200373 0.649545 -0.733445 -0.0479906 0.709071 -0.703503 
-0.0848815 0.708586 -0.7005 -0.0400308 0.993666 -0.104999 -0.0646479 0.150255 -0.986531 
-0.0491274 0.337433 -0.940067 -0.122153 0.480009 -0.868718 -0.0197788 0.999268 -0.0327591 
-0.129851 0.925471 -0.355868 -0.222771 0.917665 -0.329036 -0.342777 0.866029 -0.364002 
-0.485725 0.694101 -0.531314 -0.057116 0.412627 -0.909107 -0.190562 0.624698 -0.757257 
-0.411396 0.714362 -0.566074 -0.889426 0.448577 0.0877521 -0.329694 0.411126 -0.849869 
-0.271562 0.328694 -0.904552 -0.578641 -0.570921 -0.582429 -0.594788 -0.531301 -0.60328 
-0.621165 -0.416678 -0.663727 -0.628452 -0.486056 -0.607287 -0.660647 -0.637545 -0.396336 
-0.8589 -0.510542 -0.0404626 -0.888459 -0.446415 -0.106556 -0.773572 -0.580509 -0.254157 
-0.547057 -0.147956 0.823916 -0.125772 -0.680462 0.721909 -0.116182 -0.601095 0.790687 
-0.353562 -0.531032 -0.770065 -0.00238792 -0.994249 -0.107064 -0.352101 -0.487738 -0.798834 
0.098001 -0.652438 0.751479 0.0579741 -0.373827 0.925685 -0.0441003 -0.39824 0.91622 
-0.340925 -0.935678 0.0909723 -0.325347 -0.814568 0.480238 -0.264472 -0.96313 -0.0493513 
-0.01578 -0.5387 0.84235 -0.573335 -0.556612 -0.601223 -0.0273462 -0.215924 0.976027 
-0.0864377 -0.143937 0.985804 -0.446623 -0.843397 -0.298678 -0.267452 -0.70888 0.652655 
-0.338717 -0.706264 -0.621661 -0.271822 -0.889282 0.367817 -0.211369 -0.926961 -0.309945 
-0.260508 -0.610019 -0.74834 -0.225938 -0.804973 -0.548608 -0.184928 -0.0259956 -0.982408 
0.111504 0.991099 -0.0727237 0.0115981 0.991981 0.125855 0.0590514 0.579557 0.81279 
-0.113391 0.399516 0.909687 -0.00996231 0.141808 0.989844 0.140688 0.750145 -0.646134 
0.206353 0.967015 -0.149333 0.00563747 0.369308 -0.92929 -0.0918943 0.138577 0.986079 
0.244844 -0.0702502 0.967014 -0.171246 -0.136646 0.975706 0.214689 0.586326 -0.781108 
0.237129 0.754575 -0.611871 0.347008 0.89493 -0.280511 0.0972771 0.578837 -0.80962 
0.215196 -0.401216 0.890346 0.221499 0.775272 -0.591516 0.227796 0.708167 -0.668288 
-0.0226893 0.900179 0.434929 0.0225247 0.844767 0.53466 -0.0749486 0.389937 0.917786 
-0.160642 -0.0421922 0.98611 0.0161387 0.81898 0.573596 -0.129289 0.890956 0.435296 
-0.238873 0.70318 0.669685 -0.375517 0.644939 0.665613 -0.289226 0.262118 0.920675 
-0.824668 0.496589 0.270779 -0.0233863 -0.0634732 0.99771 -0.0944004 -0.243992 0.965172 
0.0113234 -0.180774 0.983459 -0.0469549 0.150513 -0.987492 0.0139514 -0.163271 0.986483 
-0.417068 0.77283 0.478318 -0.472794 0.392703 0.788828 -0.018652 0.0984199 -0.99497 
0.0744218 -0.996074 -0.0479285 -0.253706 0.520514 -0.815291 0.397808 -0.917022 -0.0286349 
0.0105958 -0.174838 0.98454 0.0346633 -0.153756 0.987501 0.0213094 -0.164384 0.986166 
-0.00451573 -0.186261 0.98249 0.029017 -0.160834 0.986555 -0.288919 -0.35901 0.88749 
-0.135567 -0.267054 0.954098 -0.98844 0.14817 0.0321391 -0.265332 0.626657 -0.732735 
-0.319477 0.699766 -0.638954 0.370409 -0.463692 -0.804852 -0.125916 0.505606 -0.853527 
0.563297 -0.138392 -0.814582 0.0136131 -0.171157 0.98515 0.0194538 -0.165869 0.985956 
0.0140111 -0.170773 0.985211 -0.0164412 0.169071 -0.985467 -0.0216025 0.165558 -0.985963 
-0.0308138 0.160225 -0.986599 -0.664602 0.221367 -0.713653 -0.643589 0.306555 -0.701297 
-0.235391 0.643523 -0.728333 -0.181237 0.664534 -0.724946 0.0438436 -0.893193 -0.447531 
-0.12244 -0.37229 0.920005 -0.292042 -0.439239 0.849577 0.0820327 -0.332073 -0.93968 
0.127351 -0.857938 0.497719 -0.0342085 0.346955 -0.937258 0.195308 -0.787028 -0.585185 
-0.0160359 0.939146 -0.343144 0.25219 -0.151403 -0.95576 0.449298 -0.159555 -0.879018 
-0.0162827 0.168616 -0.985547 -0.0152929 0.170202 -0.98529 -0.0213907 0.166214 -0.985858 
-0.0315588 0.15947 -0.986698 0.00367712 0.190572 -0.981666 0.0562873 0.229207 -0.971749 
0.039849 0.218596 -0.975001 -0.977521 -0.0463565 0.205677 -0.993557 0.0730199 0.086674 
-0.837567 0.127884 -0.531156 0.104061 0.392837 -0.913701 -0.128449 0.191093 -0.973131 
-0.180494 0.818427 -0.545527 -0.144429 0.774271 0.616153 0.000356079 0.223784 0.974639 
-0.630963 0.329103 -0.70255 -0.948651 0.287498 -0.131936 -0.625346 0.360594 -0.692036 
0 -0.146205 -0.989254 0 -0.995053 -0.0993498 -0.672545 -0.733586 -0.0976431 