# vtk DataFile Version 4.2
vtk output
ASCII
DATASET POLYDATA
POINTS 2649 float
338.525 172.152 24.4528 335.364 173.358 24.6471 337.463 173.75 23.9024 
328.791 176.072 24.7471 328.194 176.413 24.5754 330.057 175.721 24.5084 
331.147 175.306 24.5684 330.743 175.669 24.3281 332.552 175.315 24.1451 
328.604 176.85 24.1119 330.276 175.81 24.339 330.462 176.183 24.0942 
334.285 176.267 23.5835 323.506 178.575 24.2696 319.248 179.651 24.6379 
322.108 178.68 24.5261 319.091 180.386 24.1644 319.746 181.03 23.8289 
313.523 182.221 25.0434 314.795 182.15 24.4864 312.252 183.251 24.8332 
311.987 183.235 24.9949 312.124 183.734 24.6958 314.755 183.273 24.1221 
346.769 168.419 24.8968 341.533 170.376 25.0121 338.118 171.586 24.9001 
337.963 171.46 25.0725 339.988 171.461 24.6503 342.268 171.336 24.4218 
335.281 173.131 25.0229 341.552 172.834 24.0113 331.216 175.102 24.9158 
327.427 176.508 24.9622 337.678 176.689 23.4124 320.418 179.006 25.0243 
320.998 178.825 24.8519 318.46 179.721 25.117 317.883 180.031 24.9368 
329.255 179.29 23.4426 342.413 178.633 23.6235 312.889 182.531 25.1024 
312.494 182.695 25.2614 322.38 182.567 23.516 309.021 184.894 25.4706 
310.553 184.106 25.2931 315.282 183.817 23.9633 305.639 186.667 25.6554 
306.53 186.415 25.4768 306.113 186.218 25.7665 309.17 186.018 24.874 
324.678 185.01 23.6929 304.279 187.076 26.0322 313.238 186.104 24.1724 
308.823 187.263 24.7254 347.528 166.169 25.9863 347.893 168.116 24.9346 
341.772 169.798 25.3786 338.088 171.254 25.2924 337.635 171.59 25.1857 
339.718 170.601 25.275 338.738 171.084 25.1323 349.18 171.533 24.2834 
328.023 176.26 25.249 326.82 176.75 25.0696 326.252 177.043 25.2867 
323.869 177.909 25.2031 322.046 178.4 25.0112 314.145 181.718 25.5249 
307.43 185.453 25.7848 306.925 185.566 25.9875 308.265 184.881 26.0269 
304.726 186.586 26.2041 336.774 184.974 24.164 300.754 188.644 26.6288 
304.37 188.071 25.592 304.037 189.461 25.4701 346.079 166.577 26.4885 
341.862 169.246 26.1213 338.966 170.718 25.5614 339.495 170.385 25.8434 
340.617 170.01 25.6136 340.169 170.146 25.6587 338.849 170.892 25.2956 
337.285 171.698 25.6891 336.645 172.163 25.5973 334.69 173.459 25.5692 
335.963 172.64 25.7063 331.737 175 25.5808 324.62 177.746 25.4873 
317.961 179.925 25.5708 318.389 179.819 25.7222 316.511 180.567 25.5999 
315.52 181.108 25.8418 312.8 182.629 26.2763 308.78 184.596 26.1973 
310.164 183.949 26.1839 304.058 186.657 26.7403 305.372 186.056 26.7755 
305.972 185.821 26.5543 302.592 187.525 26.6457 300.493 188.507 26.8701 
300.556 188.282 27.1591 296.427 190.547 27.5989 299.54 190.247 26.4667 
302.468 191.457 25.8012 295.046 192.818 27.2256 296.002 192.503 26.9838 
361.094 155.587 27.3113 362.175 155.493 27.2785 351.228 161.487 27.4989 
352.706 161.114 26.9438 350.299 162.412 27.5438 346.269 166.216 26.929 
343.63 168.206 26.9844 338.214 171.203 26.2069 339.37 170.51 26.3269 
339.953 170.154 26.2674 340.685 169.726 26.3316 337.751 171.42 25.945 
335.783 173.168 26.2641 336.039 172.745 26.0508 334.262 174.193 26.1519 
319.337 179.795 26.1158 311.529 183.433 26.6238 310.849 183.662 26.4091 
309.393 184.524 26.9099 308.689 184.669 26.6171 357.54 182.727 26.3015 
307.963 185.031 26.8512 302.386 187.421 26.9989 301.898 187.584 27.2434 
303.326 186.97 27.3042 294.808 191.475 27.7576 293.309 192.898 27.8392 
290.254 194.024 28.7136 292.1 193.917 27.9961 294.782 194.98 27.2542 
356.534 156.019 28.1229 359.549 156.13 27.3786 352.503 159.274 28.4424 
351.206 160.961 28.2201 350.684 161.718 27.9222 349.133 163.522 27.7715 
346.219 166.269 27.2658 343.918 168.194 27.3753 368.004 167.178 26.8967 
340.824 169.803 26.9798 341.929 169.388 27.1674 337.276 172.104 26.4152 
337.105 172.5 26.6539 334.381 174.812 26.5959 333.114 175.917 26.7832 
335.057 175.403 27.025 325.996 178.165 26.4205 338.997 178.114 28.0525 
317.732 181.339 27.0064 321.121 181.649 27.6421 337.406 181.507 28.3403 
308.976 184.91 27.271 306.542 185.633 27.0803 336.154 183.278 28.5864 
299.537 188.628 27.7715 301.02 188.017 27.8975 294.72 190.838 28.447 
293.323 191.496 28.609 292.944 191.755 28.5276 291.898 192.388 28.7261 
289.675 194.106 29.0633 288.641 195.885 28.9226 295.351 196.2 27.3265 
365.939 143.755 29.864 365.476 144.838 29.5715 365.488 144.722 29.6135 
365.371 144.925 29.6042 366.25 146.431 29.0625 362.755 147.908 29.516 
362.571 149.667 28.8969 360.674 150.053 29.4785 373.755 149.651 28.9159 
353.783 157.644 28.7712 352.989 158.464 28.9285 351.209 160.915 28.6756 
348.717 164.113 28.1131 347.406 165.396 27.8187 345.224 167.55 27.7595 
341.222 169.599 27.196 341.126 169.587 27.279 341.085 169.617 27.2637 
340.596 170.295 27.1396 340.996 169.774 27.2313 341.528 169.745 27.3703 
342.65 169.704 27.6276 350.143 169.893 29.3542 337.776 172.814 27.1063 
373.918 171.82 28.6428 330.825 175.938 26.3621 348.474 180.686 29.1203 
316.719 183.009 27.7686 309.441 185.137 27.6409 303.447 187.231 28.0652 
364.012 185.149 28.279 307.912 186.765 28.583 314.116 186.189 28.7787 
309.937 187.566 29.131 341.112 186.432 29.4862 296.846 189.813 28.5825 
298.312 189.272 28.6821 294.574 190.828 28.7314 294.109 191.029 28.9641 
292.222 192.024 28.8265 292.251 191.927 28.9844 290.313 193.215 29.2288 
289.056 194.319 29.419 286.895 196.676 29.5976 286.196 199.699 29.567 
344.404 199.306 28.8915 318.763 201.877 28.3004 305.052 204.179 28.9575 
368.879 139.886 30.4835 368.99 141.407 30.0647 365.606 144.419 29.7334 
366.016 144.966 29.4753 370.457 143.493 29.5621 362.287 147.543 30.0703 
359.822 150.654 29.7526 353.303 158.103 29.1222 353.547 157.996 29.4448 
379.577 160.55 30.0166 347 162.009 30.0175 347 162.009 30.0175 
347 162.009 30.0175 349.893 163.325 28.7341 347 162.009 30.0175 
347 162.009 30.0175 349.656 164.156 28.8818 348.618 165.379 28.6896 
344.898 168.062 27.8962 348.604 166.933 28.962 379.644 165.387 30.1924 
341.093 169.634 27.2936 341.17 169.719 27.3202 298.882 189.09 28.7631 
299.706 189.086 29.0738 301.11 188.668 28.9434 297.964 189.611 29.0659 
292.323 191.891 29.2522 291.496 192.483 30.1169 289.404 193.697 29.9261 
285.334 196.933 30.3166 284.77 196.956 30.7193 286.217 196.01 30.6767 
283.49 197.712 30.9092 289.416 203.268 29.8735 373.549 132.7 31.9235 
371.712 134.122 31.7599 368.923 137.553 31.5362 371.105 137.684 30.8357 
367.378 139.73 31.3927 365.057 143.441 30.6672 364.762 143.769 30.7162 
362.782 146.523 30.9325 361.49 148.34 30.3439 359.719 150.615 30.3103 
358.779 151.715 30.0478 357.994 152.638 30.1681 357.426 153.445 30.1011 
356.567 154.481 29.9983 356.067 155.012 29.776 356.112 155.072 30.0111 
355.041 156.441 29.7637 358.213 155.121 30.9993 356.313 156.469 30.528 
357.292 157.094 30.842 352.603 159.186 29.4915 356.04 159.303 30.6202 
352.877 160.222 29.8954 347 162.009 30.0175 361.235 164.45 30.9938 
379.76 173.475 31.0662 296.576 191.049 30.1977 288.226 194.677 30.7455 
285.588 196.327 31.1897 281.945 197.965 31.7392 277.899 200.778 32.5837 
279.547 200.872 31.8081 279.144 201.935 32.0057 348.587 203.317 30.7748 
296.207 208.08 31.0552 374.708 129.155 33.001 370.38 135.15 31.9216 
369.651 135.702 32.2093 368.32 137.902 32.2602 367.862 138.826 32.227 
373.14 137.273 30.873 364.858 143.636 31.4625 364.43 144.341 31.4934 
363.477 145.465 31.1395 363.127 145.962 31.2369 363.087 146.075 31.3277 
362.171 147.697 31.0162 364.751 147.716 32.1757 362.916 148.719 31.6682 
383.525 149.324 31.8415 358.515 152.266 30.5349 357.864 153.084 30.4474 
356.336 155.048 30.2075 356.529 155.336 30.4321 353.718 158.486 29.8864 
355.177 158 30.3405 367.271 164.372 31.719 372.566 167.353 32.7537 
293.768 191.818 30.3488 357.893 189.115 32.4227 290.26 193.307 30.6678 
291.043 193.235 30.9638 288.556 194.69 31.1383 293.728 193.705 31.6505 
287.09 195.665 31.4858 282.35 197.763 32.237 295.494 195.302 32.1859 
279.959 198.877 32.4448 330.278 198.423 32.4364 277.889 200.579 32.6907 
276.603 201.725 33.3152 276.377 201.581 33.4986 279.562 202.84 32.1044 
281.376 203.159 31.5909 290.049 206.807 31.3268 307.741 210.715 31.5924 
376.86 126.892 33.5687 374.286 128.235 33.6038 373.383 129.105 33.6231 
371.862 131.622 33.0777 370.944 132.887 33.109 369.314 136.392 32.9513 
368.969 136.879 32.7612 383.08 138.37 32.8211 367.283 141.199 32.5743 
365.461 142.987 31.8109 368.185 141.361 32.9857 366.202 142.959 32.3197 
365.341 144.185 32.1212 385.203 143.292 33.0146 358.134 153.059 30.6527 
386.211 158.486 32.9516 292.034 193.642 31.4678 288.758 195.077 31.6163 
370.31 193.343 32.3898 284.553 196.931 32.0143 286.237 196.599 32.2564 
282.436 197.85 32.6018 288.012 196.824 32.7008 277.728 200.426 32.9807 
276.652 201.057 33.5193 275.703 203.062 34.2908 279.58 204.436 32.9415 
282.517 204.975 32.1369 280.03 205.296 33.4652 283.035 206.523 33.1031 
284.55 207.411 33.4139 287.738 207.876 32.693 286.348 208.112 33.5875 
286.543 207.986 33.2799 288.278 208.747 33.5427 291.674 209.544 33.0444 
299.231 210.731 32.2474 304.335 211.133 31.9671 292.468 210.183 33.5807 
297.999 211.145 32.8084 307.85 212.607 32.5795 306.567 212.994 32.9555 
377.686 123.291 34.8138 378.204 123.932 34.5174 375.784 125.022 34.7272 
374.017 128.128 33.8182 374.017 127.915 34.0402 373.522 128.731 33.8429 
373.098 129.421 33.8171 372.78 129.9 34.0726 372.371 130.705 34.0992 
371.889 131.543 33.9869 371.112 132.608 33.4295 370.985 132.948 33.6426 
368.66 137.899 32.8749 365.733 144.726 32.3675 372.768 145.145 33.8544 
379.401 154.133 34.7036 376.467 173.387 34.5192 284.249 197.512 32.7262 
283.412 197.92 33.0016 279.426 199.222 33.6188 284.702 198.218 33.39 
288.118 199.344 33.7639 276.399 201.124 33.7613 276.311 201.076 34.031 
275.679 201.777 34.1928 274.934 202.73 34.7979 274.941 202.861 34.9058 
278.013 204.388 33.7829 278.826 205.186 34.3716 278.772 205.075 34.1437 
280.645 206.007 34.3048 282.3 206.524 33.5481 282.673 206.902 34.2454 
283.481 207.286 34.1512 283.8 207.405 34.0475 286.513 208.278 33.9589 
[...]
POINT_DATA 2649
SCALARS scalars float
LOOKUP_TABLE default
1 1 1 1 1 1 1 1 1 
1 1 1 1 1 1 1 1 1 
1 1 1 1 1 1 1 1 1 
1 1 1 1 1 1 1 1 1 
1 1 1 1 1 1 1 1 1 
1 1 1 1 1 1 1 1 1 
1 1 1 1 1 1 1 1 1 
1 1 1 1 1 1 1 1 1 
1 1 1 1 1 1 1 1 1 
1 1 1 1 1 1 1 1 1 
1 1 1 1 1 1 1 1 1 
1 1 1 1 1 1 1 1 1 
1 1 1 1 1 1 1 1 1 
1 1 1 1 1 1 1 1 1 
1 1 1 1 1 1 1 1 1 
1 1 1 1 1 1 1 1 1 
1 1 1 1 1 1 1 1 1 
1 1 1 1 1 1 1 1 1 
1 1 1 1 1 1 1 1 1 
1 1 1 1 1 1 1 1 1 
1 1 1 1 1 1 1 1 1 
1 1 1 1 1 1 1 1 1 
1 1 1 1 1 1 1 1 1 
1 1 1 1 1 1 1 1 1 
1 1 1 1 1 1 1 1 1 
1 1 1 1 1 1 1 1 1 
1 1 1 1 1 1 1 1 1 
1 1 1 1 1 1 1 1 1 
1 1 1 1 1 1 1 1 1 
1 1 1 1 1 1 1 1 1 
1 1 1 1 1 1 1 1 1 
1 1 1 1 1 1 1 1 1 
1 1 1 1 1 1 1 1 1 
1 1 1 1 1 1 1 1 1 
1 1 1 1 1 1 1 1 1 
1 1 1 1 1 1 1 1 1 
1 1 1 1 1 1 1 1 1 
1 1 1 1 1 1 1 1 1 
1 1 1 1 1 1 1 1 1 
1 1 1 1 1 1 1 1 1 
1 1 1 1 1 1 1 1 1 
1 1 1 1 1 1 1 1 1 
1 1 1 1 1 1 1 1 1 
1 1 1 1 1 1 1 1 1 
1 1 1 1 1 1 1 1 1 
1 1 1 1 1 1 1 1 1 
1 1 1 1 1 1 1 1 1 
1 1 1 1 1 1 1 1 1 
1 1 1 1 1 1 1 1 1 
1 1 1 1 1 1 1 1 1 
1 1 1 1 1 1 1 1 1 
1 1 1 1 1 1 1 1 1 
1 1 1 1 1 1 1 1 1 
1 1 1 1 1 1 1 1 1 
1 1 1 1 1 1 1 1 1 
1 1 1 1 1 1 1 1 1 
1 1 1 1 1 1 1 1 1 
1 1 1 1 1 1 1 1 1 
1 1 1 1 1 1 1 1 1 
1 1 1 1 1 1 1 1 1 
1 1 1 1 1 1 1 1 1 
1 1 1 1 1 1 1 1 1 
1 1 1 1 1 1 1 1 1 
1 1 1 1 1 1 1 1 1 
1 1 1 1 1 1 1 1 1 
1 1 1 1 1 1 1 1 1 
1 1 1 1 1 1 1 1 1 
1 1 1 1 1 1 1 1 1 
1 1 1 1 1 1 1 1 1 
1 1 1 1 1 1 1 1 1 
1 1 1 1 1 1 1 1 1 
1 1 1 1 1 1 1 1 1 
1 1 1 1 1 1 1 1 1 
1 1 1 1 1 1 1 1 1 
1 1 1 1 1 1 1 1 1 
1 1 1 1 1 1 1 1 1 
1 1 1 1 1 1 1 1 1 
1 1 1 1 1 1 1 1 1 
1 1 1 1 1 1 1 1 1 
1 1 1 1 1 1 1 1 1 
1 1 1 1 1 1 1 1 1 
1 1 1 1 1 1 1 1 1 
1 1 1 1 1 1 1 1 1 
1 1 1 1 1 1 1 1 1 
1 1 1 1 1 1 1 1 1 
1 1 1 1 1 1 1 1 1 
1 1 1 1 1 1 1 1 1 
1 1 1 1 1 1 1 1 1 
1 1 1 1 1 1 1 1 1 
1 1 1 1 1 1 1 1 1 
1 1 1 1 1 1 1 1 1 
1 1 1 1 1 1 1 1 1 
1 1 1 1 1 1 1 1 1 
1 1 1 1 1 1 1 1 1 
1 1 1 1 1 1 1 1 1 
1 1 1 1 1 1 1 1 1 
1 1 1 1 1 1 1 1 1 
1 1 1 1 1 1 1 1 1 
1 1 1 1 1 1 1 1 1 
1 1 1 1 1 1 1 1 1 
1 1 1 1 1 1 1 1 1 
1 1 1 1 1 1 1 1 1 
1 1 1 1 1 1 1 1 1 
1 1 1 1 1 1 1 1 1 
1 1 1 1 1 1 1 1 1 
1 1 1 1 1 1 1 1 1 
1 1 1 1 1 1 1 1 1 
1 1 1 1 1 1 1 1 1 
1 1 1 1 1 1 1 1 1 
1 1 1 1 1 1 1 1 1 
1 1 1 1 1 1 1 1 1 
1 1 1 1 1 1 1 1 1 
1 1 1 1 1 1 1 1 1 
1 1 1 1 1 1 1 1 1 
1 1 1 1 1 1 1 1 1 
1 1 1 1 1 1 1 1 1 
1 1 1 1 1 1 1 1 1 
1 1 1 1 1 1 1 1 1 
1 1 1 1 1 1 1 1 1 
1 1 1 1 1 1 1 1 1 
1 1 1 1 1 1 1 1 1 
1 1 1 1 1 1 1 1 1 
1 1 1 1 1 1 1 1 1 
1 1 1 1 1 1 1 1 1 
1 1 1 1 1 1 1 1 1 
1 1 1 1 1 1 1 1 1 
1 1 1 1 1 1 1 1 1 
1 1 1 1 1 1 1 1 1 
1 1 1 1 1 1 1 1 1 
1 1 1 1 1 1 1 1 1 
1 1 1 1 1 1 1 1 1 
1 1 1 1 1 1 1 1 1 
1 1 1 1 1 1 1 1 1 
1 1 1 1 1 1 1 1 1 
1 1 1 1 1 1 1 1 1 
1 1 1 1 1 1 1 1 1 
1 1 1 1 1 1 1 1 1 
1 1 1 1 1 1 1 1 1 
1 1 1 1 1 1 1 1 1 
1 1 1 1 1 1 1 1 1 
1 1 1 1 1 1 1 1 1 
1 1 1 1 1 1 1 1 1 
1 1 1 1 1 1 1 1 1 
1 1 1 1 1 1 1 1 1 
1 1 1 1 1 1 1 1 1 
1 1 1 1 1 1 1 1 1 
1 1 1 1 1 1 1 1 1 
1 1 1 1 1 1 1 1 1 
1 1 1 1 1 1 1 1 1 
1 1 1 1 1 1 1 1 1 
1 1 1 1 1 1 1 1 1 
1 1 1 1 1 1 1 1 1 
1 1 1 1 1 1 1 1 1 
1 1 1 1 1 1 1 1 1 
1 1 1 1 1 1 1 1 1 
1 1 1 1 1 1 1 1 1 
1 1 1 1 1 1 1 1 1 
1 1 1 1 1 1 1 1 1 
1 1 1 1 1 1 1 1 1 
1 1 1 1 1 1 1 1 1 
1 1 1 1 1 1 1 1 1 
1 1 1 1 1 1 1 1 1 
1 1 1 1 1 1 1 1 1 
1 1 1 1 1 1 1 1 1 
1 1 1 1 1 1 1 1 1 
1 1 1 1 1 1 1 1 1 
1 1 1 1 1 1 1 1 1 
1 1 1 1 1 1 1 1 1 
1 1 1 1 1 1 1 1 1 
1 1 1 1 1 1 1 1 1 
1 1 1 1 1 1 1 1 1 
1 1 1 1 1 1 1 1 1 
1 1 1 1 1 1 1 1 1 
1 1 1 1 1 1 1 1 1 
1 1 1 1 1 1 1 1 1 
1 1 1 1 1 1 1 1 1 
1 1 1 1 1 1 1 1 1 
1 1 1 1 1 1 1 1 1 
1 1 1 1 1 1 1 1 1 
1 1 1 1 1 1 1 1 1 
1 1 1 1 1 1 1 1 1 
1 1 1 1 1 1 1 1 1 
1 1 1 1 1 1 1 1 1 
1 1 1 1 1 1 1 1 1 
1 1 1 1 1 1 1 1 1 
1 1 1 1 1 1 1 1 1 
1 1 1 1 1 1 1 1 1 
1 1 1 1 1 1 1 1 1 
1 1 1 1 1 1 1 1 1 
1 1 1 1 1 1 1 1 1 
1 1 1 1 1 1 1 1 1 
1 1 1 1 1 1 1 1 1 
1 1 1 1 1 1 1 1 1 
1 1 1 1 1 1 1 1 1 
1 1 1 1 1 1 1 1 1 
1 1 1 1 1 1 1 1 1 
1 1 1 1 1 1 1 1 1 
1 1 1 1 1 1 1 1 1 
1 1 1 1 1 1 1 1 1 
1 1 1 1 1 1 1 1 1 
1 1 1 1 1 1 1 1 1 
1 1 1 1 1 1 1 1 1 
1 1 1 1 1 1 1 1 1 
1 1 1 1 1 1 1 1 1 
1 1 1 1 1 1 1 1 1 
1 1 1 1 1 1 1 1 1 
1 1 1 1 1 1 1 1 1 
1 1 1 1 1 1 1 1 1 
1 1 1 1 1 1 1 1 1 
1 1 1 1 1 1 1 1 1 
1 1 1 1 1 1 1 1 1 
1 1 1 1 1 1 1 1 1 
1 1 1 1 1 1 1 1 1 
1 1 1 1 1 1 1 1 1 
1 1 1 1 1 1 1 1 1 
1 1 1 1 1 1 1 1 1 
1 1 1 1 1 1 1 1 1 
1 1 1 1 1 1 1 1 1 
1 1 1 1 1 1 1 1 1 
1 1 1 1 1 1 1 1 1 
1 1 1 1 1 1 1 1 1 
1 1 1 1 1 1 1 1 1 
1 1 1 1 1 1 1 1 1 
1 1 1 1 1 1 1 1 1 
1 1 1 1 1 1 1 1 1 
1 1 1 1 1 1 1 1 1 
1 1 1 1 1 1 1 1 1 
1 1 1 1 1 1 1 1 1 
1 1 1 1 1 1 1 1 1 
1 1 1 1 1 1 1 1 1 
1 1 1 1 1 1 1 1 1 
1 1 1 1 1 1 1 1 1 
1 1 1 1 1 1 1 1 1 
1 1 1 1 1 1 1 1 1 
1 1 1 1 1 1 1 1 1 
1 1 1 1 1 1 1 1 1 
1 1 1 1 1 1 1 1 1 
1 1 1 1 1 1 1 1 1 
1 1 1 1 1 1 1 1 1 
1 1 1 1 1 1 1 1 1 
1 1 1 1 1 1 1 1 1 
1 1 1 1 1 1 1 1 1 
1 1 1 1 1 1 1 1 1 
1 1 1 1 1 1 1 1 1 
1 1 1 1 1 1 1 1 1 
1 1 1 1 1 1 1 1 1 
1 1 1 1 1 1 1 1 1 
1 1 1 1 1 1 1 1 1 
1 1 1 1 1 1 1 1 1 
1 1 1 1 1 1 1 1 1 
1 1 1 1 1 1 1 1 1 
1 1 1 1 1 1 1 1 1 
1 1 1 1 1 1 1 1 1 
1 1 1 1 1 1 1 1 1 
1 1 1 1 1 1 1 1 1 
1 1 1 1 1 1 1 1 1 
1 1 1 1 1 1 1 1 1 
1 1 1 1 1 1 1 1 1 
1 1 1 1 1 1 1 1 1 
1 1 1 1 1 1 1 1 1 
1 1 1 1 1 1 1 1 1 
1 1 1 1 1 1 1 1 1 
1 1 1 1 1 1 1 1 1 
1 1 1 1 1 1 1 1 1 
1 1 1 1 1 1 1 1 1 
1 1 1 1 1 1 1 1 1 
1 1 1 1 1 1 1 1 1 
1 1 1 1 1 1 1 1 1 
1 1 1 1 1 1 1 1 1 
1 1 1 1 1 1 1 1 1 
1 1 1 1 1 1 1 1 1 
1 1 1 1 1 1 1 1 1 
1 1 1 1 1 1 1 1 1 
1 1 1 1 1 1 1 1 1 
1 1 1 1 1 1 1 1 1 
1 1 1 1 1 1 1 1 1 
1 1 1 1 1 1 1 1 1 
1 1 1 1 1 1 1 1 1 
1 1 1 1 1 1 1 1 1 
1 1 1 1 1 1 1 1 1 
1 1 1 1 1 1 1 1 1 
1 1 1 1 1 1 1 1 1 
1 1 1 1 1 1 1 1 1 
1 1 1 1 1 1 1 1 1 
1 1 1 1 1 1 1 1 1 
1 1 1 1 1 1 1 1 1 
1 1 1 1 1 1 1 1 1 
1 1 1 1 1 1 1 1 1 
1 1 1 1 1 1 1 1 1 
1 1 1 1 1 1 1 1 1 
1 1 1 1 1 1 1 1 1 
1 1 1 1 1 1 1 1 1 
1 1 1 1 1 1 1 1 1 
1 1 1 1 1 1 1 1 1 
1 1 1 
NORMALS Normals float
-0.199732 -0.45885 -0.865774 -0.394998 -0.669313 -0.629282 -0.0713294 -0.274834 -0.958842 
-0.304168 -0.823191 -0.479415 -0.334181 -0.753986 -0.565534 -0.320587 -0.736441 -0.595716 
-0.133381 -0.593815 -0.793469 -0.0771497 -0.562005 -0.823528 -0.224411 -0.513816 -0.828029 
-0.228271 -0.521919 -0.821884 -0.313623 -0.503925 -0.804798 -0.129321 -0.263775 -0.955876 
-0.157335 -0.162082 -0.974154 -0.211326 -0.529584 -0.821512 -0.241237 -0.709552 -0.662073 
-0.232122 -0.498849 -0.835026 -0.186763 -0.505972 -0.842088 -0.12852 -0.213694 -0.96841 
-0.402027 -0.645781 -0.649107 -0.236336 -0.407796 -0.881957 -0.318768 -0.509462 -0.799272 
-0.483965 -0.598703 -0.638226 -0.279925 -0.350806 -0.893631 -0.229112 -0.28482 -0.930798 
-0.205794 -0.44063 -0.873781 -0.178404 -0.519488 -0.835646 -0.312616 -0.574669 -0.756325 
-0.347899 -0.687103 -0.637852 -0.102716 -0.538633 -0.836256 -0.102669 -0.377211 -0.920419 
-0.564524 -0.773811 -0.287279 -0.0545691 -0.271942 -0.960765 -0.344202 -0.897692 -0.275091 
-0.35475 -0.930405 -0.0921952 -0.0132204 0.0425905 -0.999005 -0.372913 -0.856555 -0.356722 
-0.345146 -0.676076 -0.650996 -0.35475 -0.924098 -0.142109 -0.388872 -0.792847 -0.469225 
-0.020235 -0.0296908 -0.999354 0.0732033 0.00520907 -0.997303 -0.331205 -0.632943 -0.699776 
-0.491833 -0.81398 -0.30909 -0.12234 0.107931 -0.986602 -0.428042 -0.515958 -0.742002 
-0.44694 -0.686788 -0.573207 -0.0527571 -0.0326774 -0.998073 -0.434226 -0.476683 -0.764344 
-0.246992 -0.424719 -0.870981 -0.464874 -0.717997 -0.518048 -0.355577 -0.251601 -0.900146 
0.00768736 0.216209 -0.976317 -0.36321 -0.554566 -0.748689 -0.0978694 0.0448422 -0.994188 
-0.284042 -0.16454 -0.944588 -0.309382 -0.5845 -0.750095 -0.189183 -0.379516 -0.905636 
-0.25433 -0.701281 -0.665974 -0.426091 -0.836089 -0.345546 -0.501498 -0.707498 -0.497942 
-0.234956 -0.75444 -0.612875 -0.359639 -0.688302 -0.63 0.104667 -0.06665 -0.992271 
-0.351236 -0.935975 -0.0241752 -0.379719 -0.915621 -0.132105 -0.316712 -0.813067 0.488482 
-0.30604 -0.768274 0.562222 -0.301211 -0.952901 -0.0353875 -0.451801 -0.890927 0.0461057 
-0.239786 -0.779814 -0.578267 -0.353439 -0.808064 -0.471289 -0.397213 -0.836334 -0.377846 
-0.360032 -0.675027 -0.643985 0.0471318 0.1844 -0.981721 -0.310838 -0.586612 -0.74784 
-0.369618 -0.414385 -0.831665 -0.135455 -0.00582866 -0.990766 -0.496524 -0.718953 -0.486386 
-0.479167 -0.877537 -0.0180925 -0.523897 -0.826744 -0.205003 -0.442176 -0.879227 -0.177314 
-0.32093 -0.820785 -0.472563 -0.26959 -0.802124 -0.53284 -0.426885 -0.722139 -0.54432 
-0.60617 -0.770649 0.196617 -0.537388 -0.841339 -0.0579943 -0.544977 -0.820045 0.174715 
-0.585094 -0.777829 0.229449 -0.331805 -0.772936 0.54081 -0.338447 -0.763817 0.549578 
-0.453619 -0.83621 0.308192 -0.344978 -0.860238 0.375473 -0.364786 -0.874198 0.320483 
-0.355629 -0.719795 0.596173 -0.241902 -0.684383 0.687825 -0.398522 -0.915779 0.050291 
-0.462281 -0.87376 0.151128 -0.454225 -0.862037 -0.22488 -0.410203 -0.895342 -0.173485 
-0.389356 -0.909554 -0.145303 -0.398775 -0.657114 -0.639672 -0.389003 -0.732797 -0.558288 
-0.362414 -0.795975 -0.484851 -0.39974 -0.65841 -0.637734 -0.260636 -0.224976 -0.938858 
-0.111499 0.138563 -0.984057 -0.207917 -0.029933 -0.977688 -0.263041 -0.143172 -0.954102 
-0.133299 -0.605331 -0.784733 0.0168157 -0.358387 -0.933422 -0.532242 -0.608479 -0.588619 
-0.401143 -0.519645 -0.754356 -0.647005 -0.630632 -0.428588 -0.680006 -0.728958 -0.0788163 
-0.572239 -0.780314 0.252295 -0.505878 -0.574705 0.643274 -0.536616 -0.782411 0.316031 
-0.449243 -0.893409 -0.00134135 -0.439401 -0.891501 -0.110238 -0.58119 -0.791579 0.188733 
-0.514998 -0.589945 0.621886 -0.561876 -0.70282 0.436279 -0.321111 -0.581932 0.747156 
-0.196457 -0.637791 0.744733 -0.428558 -0.698957 0.572536 -0.484968 -0.750313 0.449263 
-0.232884 -0.867494 0.439566 -0.374986 -0.901616 0.215578 0.178804 0.167785 -0.969473 
-0.373577 -0.864672 0.335832 -0.357002 -0.933705 0.0272885 -0.39231 -0.893678 -0.217788 
-0.418885 -0.907621 0.0275508 -0.363429 -0.443148 -0.819475 -0.351522 -0.260787 -0.899123 
-0.514887 -0.258297 -0.817419 -0.344986 -0.0824546 -0.934979 -0.208664 0.0233343 -0.977709 
-0.375531 -0.579477 -0.723313 -0.0896109 -0.223735 -0.970522 -0.688383 -0.622022 -0.373119 
-0.663889 -0.64254 -0.382615 -0.788326 -0.579875 -0.205642 -0.730323 -0.658664 0.181081 
-0.681033 -0.71652 0.150974 -0.504079 -0.654782 0.563174 0.180231 -0.03969 -0.982823 
-0.583538 -0.73165 0.352381 -0.322324 -0.752275 0.574621 -0.448711 -0.64882 0.614565 
-0.409948 -0.423194 0.807991 -0.21957 -0.36996 0.902728 -0.213179 -0.437631 0.873518 
-0.256795 -0.324225 0.910458 -0.210206 -0.559718 0.801579 -0.161983 -0.119981 0.979472 
-0.25472 -0.585944 0.769277 -0.0832437 -0.408109 0.90913 -0.0537753 -0.179878 0.982218 
-0.298907 -0.746359 0.594645 -0.326315 -0.871227 0.366719 -0.141548 -0.18444 0.972597 
-0.435792 -0.893655 -0.107083 -0.273698 -0.898495 0.343215 -0.411053 -0.810442 -0.417396 
-0.5076 -0.850316 -0.138941 -0.467142 -0.750039 -0.46821 -0.524504 -0.538228 -0.659702 
-0.53259 -0.347691 -0.77166 -0.392125 -0.180586 -0.902012 -0.17115 0.188058 -0.967131 
-0.244917 -0.359651 -0.900371 -0.282988 -0.195608 -0.938965 -0.390667 -0.415066 -0.821645 
-0.515924 -0.412119 -0.750987 -0.00423693 -0.18399 -0.982919 -0.406856 -0.343598 -0.846409 
-0.146319 -0.207087 -0.967319 -0.516214 -0.406693 -0.75374 0.199338 -0.0962346 -0.975194 
-0.704276 -0.675656 -0.217909 -0.771754 -0.635793 -0.0127951 -0.824323 -0.555019 0.111557 
-0.742698 -0.461895 0.484822 -0.607928 -0.593974 0.526894 -0.499571 -0.585313 0.638622 
-0.358941 -0.931248 0.0627633 -0.220468 -0.781617 0.583497 -0.718713 -0.684535 -0.121914 
-0.390662 -0.222858 0.89315 -0.753369 -0.473404 0.456426 -0.0997522 -0.43147 0.896595 
-0.290107 -0.29006 0.911978 -0.140372 -0.0565181 0.988484 -0.381113 -0.412343 0.827481 
0.271225 0.131957 -0.953428 -0.193958 -0.506004 0.840441 -0.118602 -0.0853787 0.989264 
-0.191816 -0.52599 0.828578 -0.203073 -0.686335 0.698359 -0.21576 -0.648708 0.729812 
0.24244 0.170185 -0.955123 -0.145697 -0.557039 0.817607 -0.0965035 -0.406274 0.908641 
-0.0828293 -0.365752 0.927019 -0.0850276 -0.209936 0.974011 -0.410675 -0.910506 0.0482154 
-0.177562 -0.775262 0.606169 -0.363901 -0.926652 0.0942985 -0.404242 -0.903461 0.142641 
-0.54962 -0.70548 -0.447454 -0.54398 -0.803727 -0.241057 -0.562141 -0.618618 -0.548916 
-0.589272 -0.541738 -0.599398 -0.4632 -0.324839 -0.824576 -0.251663 0.19034 -0.948913 
0.102635 0.31061 -0.94498 0.0235731 0.340723 -0.939868 -0.00662403 0.310968 -0.950397 
-0.249866 -0.300944 -0.920326 -0.202232 -0.276038 -0.93963 -0.445698 -0.420527 -0.79026 
-0.0638742 -0.249455 -0.966278 0.0741001 -0.145595 -0.986565 -0.629669 -0.577256 -0.519896 
-0.636217 -0.522006 -0.5681 -0.685034 -0.720908 -0.104978 -0.692372 -0.587588 0.418762 
0.363063 0.0060218 -0.931745 0 -0.0445519 -0.999007 0 -0.184289 -0.982872 
-0.0954145 -0.0443486 -0.994449 -0.504804 -0.28318 0.815464 0.0954145 -0.0443486 -0.994449 
0 0.0933407 -0.995634 -0.317205 -0.226491 0.920914 -0.565406 -0.188633 0.802953 
-0.36796 -0.325987 0.870826 -0.473795 -0.240908 0.847043 0.372566 0.0507296 -0.926618 
-0.526508 -0.325626 0.785339 -0.247824 -0.109333 0.962616 -0.290766 -0.84166 0.455043 
-0.215793 -0.630126 0.745905 -0.128642 -0.68968 0.712596 0.0201861 -0.682641 0.730475 
-0.428297 -0.903631 -0.00344075 -0.370832 -0.853034 0.367174 -0.611793 -0.777969 -0.143084 
-0.486198 -0.621528 -0.61426 -0.41571 -0.558626 -0.71772 -0.555128 -0.672268 -0.489785 
-0.443389 -0.467398 -0.764817 -0.1761 0.335557 -0.925413 -0.209764 -0.477934 -0.852982 
-0.364636 -0.461 -0.809024 -0.527415 -0.486451 -0.696562 -0.129331 -0.423534 -0.8966 
-0.661653 -0.490782 -0.566876 -0.762399 -0.608185 -0.221042 -0.713467 -0.564348 -0.415303 
-0.838641 -0.539322 0.076246 -0.733372 -0.633046 -0.247827 -0.779414 -0.615244 0.118279 
-0.754748 -0.638981 -0.148522 -0.756405 -0.586106 0.290398 -0.800872 -0.48273 0.354366 
-0.668508 -0.519747 0.53194 -0.712077 -0.63336 0.302988 -0.623773 -0.642388 0.445247 
-0.640759 -0.42144 0.64173 -0.221141 -0.0329793 0.974684 -0.364482 -0.067793 0.928739 
-0.272049 0.00861219 0.962245 -0.685868 -0.430729 0.586564 -0.176395 -0.0716164 0.981711 
-0.335824 -0.0903798 0.937579 0 -0.132243 0.991217 -0.0980749 -0.00035474 0.995179 
0.444997 0.17315 -0.878633 -0.0662052 -0.687827 0.722849 -0.623607 -0.716147 0.313446 
-0.482973 -0.866752 -0.124412 -0.46398 -0.808896 -0.361123 -0.572617 -0.150165 -0.805953 
-0.319426 -0.0427333 -0.946647 -0.409488 0.185296 -0.8933 0.177465 0.334313 -0.925603 
-0.118917 0.480172 -0.869076 -0.17289 -0.354314 -0.919005 -0.528106 -0.502883 -0.684261 
-0.796276 -0.498724 -0.342372 -0.864451 -0.498383 -0.0658681 -0.863372 -0.488473 0.126421 
0.128904 -0.22289 -0.966284 -0.799569 -0.485663 0.3533 -0.533331 -0.212833 0.818694 
-0.775125 -0.588719 0.229328 -0.824296 -0.542335 0.162506 -0.816626 -0.521604 0.247086 
-0.542217 -0.299739 0.784957 -0.331379 -0.0731322 0.940659 -0.317927 -0.129353 0.93925 
0.332779 -0.0868825 -0.938994 -0.554175 -0.400877 0.729512 -0.664611 -0.356225 0.656808 
-0.547949 -0.51675 0.657816 -0.421407 -0.231205 0.876904 -0.436719 -0.235732 0.868163 
-0.202311 -0.202437 0.95817 -0.156875 -0.00973375 0.987571 -0.21268 0.0100208 0.977071 
-0.19672 -0.728939 0.655705 -0.207536 -0.254433 0.94456 -0.410169 -0.700051 0.584543 
-0.235437 -0.626242 0.743229 -0.529795 -0.688309 0.495527 -0.0472777 -0.445822 0.893872 
-0.401764 -0.80354 0.439215 -0.364219 -0.918274 0.155295 0.0590284 -0.274415 0.959798 
-0.528221 -0.763972 -0.37058 -0.0166751 -0.257969 0.966009 -0.594914 -0.439146 -0.673222 
-0.546228 -0.0069454 -0.837608 -0.665633 -0.190094 -0.721663 -0.39567 0.307178 -0.865498 
-0.294091 0.401971 -0.867139 -0.166348 0.516793 -0.839793 0.0377033 0.43629 -0.899016 
-0.0062915 -0.304009 -0.952648 -0.384487 -0.486625 -0.784453 -0.585225 -0.496134 -0.641375 
-0.764072 -0.538393 -0.355426 -0.817967 -0.528608 -0.226943 -0.860496 -0.379139 0.340295 
-0.794864 -0.388475 0.466131 0.365246 -0.169639 -0.915324 -0.433927 -0.018572 0.900757 
-0.609557 -0.149525 0.778513 -0.338875 0.0711331 0.938138 -0.434069 0.183675 0.881957 
-0.450519 -0.239576 0.860021 0.433605 -0.0775307 -0.897762 -0.535743 -0.326131 0.778857 
0.474912 0.0303795 -0.879509 -0.0543775 -0.452951 0.889876 -0.354942 -0.612004 0.70673 
0.310653 0.206204 -0.927887 -0.225107 -0.831134 0.508471 -0.136435 -0.616444 0.775488 
-0.174126 -0.883992 0.433865 -0.159183 -0.530705 0.832474 -0.61181 -0.56218 -0.556455 
-0.601954 -0.563584 -0.565707 -0.566864 0.434871 -0.69968 -0.353774 0.564058 -0.746112 
-0.281011 0.502695 -0.817515 -0.354038 0.733243 -0.580527 -0.324488 0.713945 -0.620475 
-0.302633 0.764883 -0.568654 -0.247102 0.697616 -0.672512 -0.213476 0.8943 -0.393263 
-0.223895 0.744461 -0.629006 -0.273271 0.848857 -0.452509 -0.211203 0.789444 -0.576343 
-0.0858169 0.556309 -0.826533 -0.191232 0.538817 -0.820431 -0.201593 0.87541 -0.439338 
-0.103079 0.709435 -0.697192 -0.015283 0.557657 -0.829931 -0.110091 0.594203 -0.796745 
-0.275305 -0.482776 -0.831345 0.202663 -0.314833 -0.927258 -0.741777 -0.54263 -0.394106 
-0.487384 -0.54918 -0.678866 -0.693361 -0.573959 -0.435685 -0.704127 -0.52151 -0.481905 
-0.849085 -0.509327 -0.140141 -0.887492 -0.384687 0.253719 -0.869295 -0.454081 0.195285 
-0.837066 -0.455018 0.303773 -0.837209 -0.503269 0.214014 -0.798357 -0.430437 0.421129 
-0.606189 -0.206122 0.768147 -0.37959 -0.0998144 0.919755 -0.310338 0.0930679 0.946059 
-0.337959 0.0370711 0.940431 -0.290881 -0.146648 0.945454 -0.101299 -0.770699 0.629096 
-0.122122 -0.805919 0.579293 -0.400421 -0.837058 0.372823 -0.0112103 -0.561852 0.827162 
0.167824 -0.279045 0.945499 -0.689848 -0.559245 -0.459733 -0.613949 -0.743311 -0.265623 
-0.681885 -0.568594 -0.460145 -0.705659 0.248266 -0.663634 -0.736811 0.551126 -0.391624 
-0.486911 0.667158 -0.563753 -0.453609 0.888597 -0.0680783 -0.443178 0.763387 -0.469929 
-0.408841 0.912202 -0.0271406 -0.414492 0.778351 -0.471557 -0.391145 0.875656 0.283252 
-0.387116 0.904864 -0.177093 -0.329105 0.943941 0.0258023 -0.2724 0.93628 -0.221762 
-0.347758 0.937462 -0.015117 -0.34539 0.936931 0.0535244 -0.336108 0.938766 -0.0758273 
-0.390014 0.912608 0.12262 -0.313788 0.883311 -0.34828 -0.116904 0.787539 -0.605075 
-0.274979 0.955933 -0.102848 -0.0447633 0.613837 -0.788163 -0.31001 0.920364 0.238377 
-0.137421 0.910566 -0.389852 -0.281147 0.954641 0.0980679 -0.297315 0.779069 -0.551955 
-0.0257895 0.61874 -0.785172 -0.285432 0.958278 -0.015212 -0.15208 0.772993 -0.615916 
-0.272821 0.77809 -0.565814 -0.220539 0.926458 -0.305021 -0.189689 0.881837 -0.431719 
0.0776654 0.357268 -0.930767 -0.141893 0.914323 -0.379315 -0.110955 -0.420869 -0.90031 
-0.270884 -0.461433 -0.844809 0.0415723 -0.301203 -0.952653 0.0858287 -0.334477 -0.938487 
-0.749923 -0.472832 -0.462651 0 -0.146205 -0.989254 0 -0.995053 -0.0993498 
-0.672545 -0.733586 -0.0976431 0.672545 -0.733586 -0.0976431 0 0.447214 -0.894427 
-0.856992 -0.471754 0.207395 -0.901069 -0.431274 0.0455693 -0.853041 -0.437246 0.284844 
-0.685357 -0.271694 0.675624 -0.580999 -0.127278 0.803891 -0.461373 -0.0164294 0.887054 
-0.468252 -0.0336559 0.882954 -0.52124 -0.0444778 0.85225 -0.419451 0.0455934 0.906632 
-0.403128 -0.0473803 0.913916 -0.0536193 -0.66174 0.747813 -0.424795 -0.902461 0.0715055 
-0.182131 -0.660305 0.728578 -0.457662 -0.720937 0.520379 -0.18935 -0.767224 0.612791 
-0.0797858 -0.546058 0.83394 -0.289497 -0.748857 0.596158 -0.103888 -0.612741 0.783425 
0.0159804 -0.570416 0.821201 -0.543131 -0.839024 0.0323674 -0.628517 -0.73183 -0.263422 
-0.654764 -0.746977 -0.115366 0.0321793 -0.286868 0.95743 0.191963 -0.18875 0.96308 
-0.726433 -0.279195 -0.627969 -0.836277 0.0907305 -0.540748 0.0579647 -0.0109598 0.998258 
-0.528622 0.830983 0.173281 -0.501717 0.864759 0.0217195 -0.355069 0.65795 0.664099 