# vtk DataFile Version 4.2
vtk output
ASCII
DATASET POLYDATA
POINTS 2559 float
391.255 142.451 56.2475 390.986 143.221 56.2788 391.394 144.738 56.1256 
391.783 144.364 56.1373 391.464 146.745 56.055 391.879 146.973 56.0301 
392.122 147.442 56.0672 391.311 149.304 56.0808 391.669 148.631 56.0506 
391.112 157.549 55.9422 391.603 162.497 56.3312 391.035 163.32 56.3542 
390.449 137.556 56.9423 391.573 137.562 56.8803 390.831 139.129 56.7183 
391.359 138.94 56.6756 390.274 140.303 56.8513 392.099 139.512 56.7244 
390.664 141.242 56.5659 392.016 142.932 56.3009 390.685 146.344 56.3458 
392.71 145.033 56.3287 392.636 146.549 56.2605 390.722 147.962 56.3009 
390.658 150.333 56.4305 390.782 154.752 56.198 390.576 156.203 56.1775 
390.409 155.767 56.3378 393.03 155.491 56.5272 392.348 158.654 56.2753 
390.276 164.067 56.5913 391.768 163.281 56.4962 390.434 167.423 56.9444 
389.813 167.942 57.0824 390.917 167.132 56.9445 391.218 166.685 56.9567 
390.225 168.526 57.0787 389.868 169.627 57.2302 390.491 169.112 57.2023 
390.078 169.854 57.2523 390.186 170.206 57.3582 389.463 172.135 57.6788 
389.794 172.286 57.8028 389.615 172.729 57.8476 389.314 133.037 57.8701 
389.658 133.83 57.6187 389.489 134.609 57.6025 390.281 135.798 57.1926 
389.892 136.25 57.2877 389.917 140.015 57.1459 389.68 140.995 57.504 
389.943 141.788 57.1199 390.254 141.739 56.7805 389.908 142.479 57.164 
392.899 142.837 56.6942 393.402 145.691 56.7672 389.912 147.732 57.3008 
389.913 148.595 57.3021 390.062 151.256 57.1134 390.135 153.47 56.9289 
393.13 152.941 56.5163 389.961 159.502 56.6302 392.835 159.962 56.7179 
392.886 160.729 56.8489 392.34 164.85 57.2137 389.503 167.23 57.1511 
389.417 168.617 57.2716 389.021 171.888 57.6273 389.064 172.327 57.7297 
390.248 171.728 57.8875 388.536 177.626 59.2551 388.591 177.747 59.355 
388.314 121.025 59.2901 389.004 125.034 58.7642 388.935 126.84 58.592 
389.388 126.775 58.4818 390.048 126.04 58.5613 388.618 127.79 58.6506 
388.924 132.254 58.2133 389.197 135.741 57.848 389.565 136.555 57.5176 
389.622 137.594 57.5024 389.435 139.111 57.8256 393.796 142.385 57.4217 
389.707 145.948 57.8285 389.682 147.144 57.8648 389.635 152.221 57.985 
393.902 151.74 57.1031 389.534 154.465 57.8753 389.509 156.411 57.4587 
389.475 157.346 57.3453 393.715 157.656 57.3284 389.271 158.802 57.5452 
389.187 158.273 57.8106 393.349 161.961 57.6089 392.327 165.621 57.4325 
388.701 168.337 57.7409 391.286 170.579 58.2604 388.051 171.658 58.2331 
388.265 171.886 58.0191 389.183 176.378 59.1971 387.686 111.9 60.5078 
388.063 112.16 60.4661 387.819 118.009 59.8722 388.237 118.914 59.6149 
387.889 119.399 59.6644 387.663 120.551 59.7538 389.68 121.805 59.2173 
389.202 122.921 58.9825 388.171 126.382 59.1622 390.311 125.071 58.7206 
388.441 128.035 58.7833 391.64 130.308 58.263 388.447 132.085 58.8085 
393.766 134.373 58.9292 389.082 139.447 58.8921 389.442 142.911 58.4953 
389.533 147.23 58.3251 389.617 148.584 57.996 389.257 154.452 58.756 
389.336 155.975 57.9721 388.934 159.928 58.2487 387.775 171.228 58.5661 
387.682 172.811 58.6706 388.475 172.566 57.9817 387.99 173.372 58.454 
390.46 173.586 58.8831 388.297 174.046 58.4097 389.505 176.425 59.4512 
387.778 178.107 59.6047 389.045 177.864 59.8139 387.467 107.221 61.4756 
387.608 106.714 61.6022 387.889 108.331 61.2705 387.514 110.715 60.7911 
388.799 112.739 60.5379 386.977 113.565 60.549 389.173 116.357 60.0808 
387.117 117.787 60.4012 389.4 118.117 59.8448 390.452 121.086 59.6676 
391.212 124.168 59.3764 387.85 126.19 59.5447 387.84 128.505 59.7241 
388.305 129.911 58.9955 392.932 131.634 58.8137 393.404 131.533 59.2965 
388.205 132.252 59.5691 395.419 151.743 59.5885 394.667 158.326 58.8702 
388.771 159.374 58.958 392.588 169.72 59.9975 390.976 174.034 60.0016 
387.139 175.934 59.3201 390.378 175.236 59.8449 386.746 177.545 59.888 
386.506 177.09 60.0322 389.948 176.77 60.2598 386.613 184.144 61.6535 
387.216 104.829 62.0671 387.537 104.98 62.0286 387.755 105.863 61.8496 
386.787 107.358 61.7031 388.695 109.828 61.1256 386.785 114.939 60.6629 
390.096 117.384 60.2778 391.066 117.595 60.9199 387.03 120.581 60.5658 
387.449 125.447 60.297 387.624 128.214 60.2489 388.356 134.195 59.8714 
389.194 141.459 59.8197 395.422 155.612 60.0381 388.695 158.967 59.5352 
395.329 158.04 60.3619 394.908 161.344 60.5783 386.124 178.925 60.5439 
385.952 183.21 61.3692 385.547 183.681 61.6254 385.504 184.554 61.8196 
385.854 185.617 62.1133 386.271 185.682 62.2713 386.602 185.23 62.2124 
385.703 186.656 62.5305 386.353 91.7243 64.1546 386.444 96.2865 63.4051 
386.379 95.7881 63.5019 386.538 95.7202 63.5439 386.386 97.2137 63.3029 
386.532 96.5686 63.4018 386.575 97.4518 63.2667 386.61 98.8801 63.0421 
386.741 98.5834 63.1295 386.758 99.9318 62.8799 386.672 99.9902 62.9148 
386.722 99.6347 62.9416 386.936 100.771 62.7263 386.814 100.888 62.7096 
386.824 100.411 62.8627 387.08 100.716 62.771 386.85 101.529 62.6054 
387.669 101.644 62.7271 386.79 104.306 62.3067 388.668 105.129 62.3689 
386.205 107.118 62.2444 389.495 108.722 61.8798 386.25 113.084 61.5021 
386.486 116.96 61.3257 387.363 126.696 60.9962 387.54 127.838 61.0906 
394.65 131.75 60.7804 395.698 137.333 61.0143 396.337 144.062 61.5855 
395.397 159.951 61.7424 385.052 181.557 61.7195 386.703 186.163 62.9133 
385.558 187.045 62.7086 385.271 187.288 62.7888 384.556 189.351 63.5722 
384.591 189.565 63.7235 386.489 90.0956 64.6131 386.401 89.7791 64.7496 
386.845 91.623 64.2812 386.256 96.4988 63.4784 386.696 96.0087 63.6147 
386.33 97.4046 63.4049 386.518 96.9714 63.4265 386.707 97.7349 63.3068 
386.296 99.239 63.3004 386.702 99.6855 63.0411 386.735 100.298 62.843 
386.614 100.294 63.0234 387.114 100.053 63.0114 386.713 101.159 62.732 
386.373 103.918 62.6075 389.593 106.288 62.6571 391.941 117.089 61.9425 
386.435 119.067 62.0139 392.68 118.883 62.2829 387.544 127.439 62.4402 
384.652 184.77 62.2886 383.93 186.2 63.0874 384.662 186.149 62.5132 
384.01 187.704 63.3092 384.842 188.005 63.1533 386.542 88.9054 65.2039 
386.031 90.3207 64.6519 385.794 91.7084 64.434 387.06 91.1878 64.4896 
385.821 95.2958 63.8682 387.561 94.5651 64.163 386.054 95.8458 63.6593 
385.91 95.8194 63.7516 387.02 96.2562 63.7469 386.045 96.1361 63.6337 
386.264 96.5814 63.6339 386.087 96.2876 63.6099 386.397 97.0812 63.4609 
386.459 97.0555 63.5618 387.511 96.7451 63.8594 386.031 96.1886 63.617 
386.504 97.3601 63.4688 386.123 97.9699 63.598 386.967 97.7315 63.4262 
385.903 98.8622 63.7328 385.959 101.019 63.4346 385.888 103.047 63.2627 
395.563 129.314 63.7885 396.286 134.717 63.6287 396.634 143.589 63.0654 
389.359 148.261 63.1531 396.269 154.06 63.2725 385.988 169.824 63.0865 
392.828 170.705 62.9482 389.418 181.116 63.5575 383.191 185.437 63.8958 
384.738 185.527 62.261 385.862 188.558 64.0641 383.233 190.376 64.5156 
382.822 191.514 65.0289 383.591 190.973 64.6457 384.7 190.307 64.4203 
382.896 192.07 65.2065 385.754 89.6803 65.0978 385.655 90.0957 64.9948 
385.509 91.0922 64.7834 387.697 91.1889 64.9419 385.49 92.205 64.6567 
387.594 93.1367 64.4283 388.346 94.8567 64.7253 385.915 96.0456 63.7964 
385.602 98.9938 64.0939 385.501 99.5364 64.2009 385.632 101.089 63.8809 
385.421 104.885 63.8632 385.169 105.995 64.7684 391.372 107.449 64.3058 
385.66 111.657 64.0281 396.283 133.287 64.4894 396.799 141.467 64.2464 
388.768 154.656 64.0058 382.868 183.623 64.9501 382.447 191.307 65.1756 
383.992 191.764 65.1343 381.502 198.06 67.0478 381.374 198.288 67.1228 
381.552 198.19 67.1268 386.82 87.1535 66.3011 385.374 90.8963 65.0371 
389.256 95.4241 65.5831 385.371 101.484 64.3244 394.456 120.177 65.2069 
388.054 128.827 65.2384 396.164 154.914 64.7903 382.058 194.391 66.2267 
382.31 195.361 66.5883 382.999 194.955 66.7365 382.251 196.393 66.9443 
381.098 197.361 66.9989 381.461 197.31 66.9418 381.728 198.255 67.3216 
380.816 200.282 67.8016 380.685 200.403 67.8609 380.787 200.492 67.8891 
354.187 223.258 68.6046 354.195 223.131 68.7034 354.07 223.28 68.671 
354.111 223.378 68.6294 354.113 223.541 68.6839 387.359 84.4682 68.087 
387.283 84.3739 68.1506 387.254 84.5643 68.0003 387.383 84.3013 68.2627 
386.886 85.4115 67.5037 387.578 84.8977 68.0179 386.42 86.7301 66.7329 
384.855 102.692 66.5061 391.705 104.41 66.0322 385.101 106.326 65.9094 
389.015 137.389 65.6489 396.811 140.869 65.2273 380.895 193.244 66.7435 
385.174 192.072 66.8061 380.663 195.385 67.0488 379.983 199.891 68.0611 
381.063 199.333 67.5945 355 223.035 68.633 355.521 223.161 68.6858 
354.254 223.811 68.7661 354.661 223.639 68.6375 354.002 223.949 68.9851 
385.629 86.5523 67.4301 384.765 87.7543 67.758 388.611 134.259 67.0967 
396.488 140.5 66.9671 396.014 150.475 66.6054 392.706 170.21 66.4042 
380.205 191.798 68.4293 383.454 195.851 67.8956 379.74 199.166 68.152 
382.802 197.579 68.3015 380.072 200.463 68.1409 380.053 201.097 68.3966 
379.684 203.462 69.4387 353.96 223.172 69.1075 354.495 222.731 69.1256 
356.585 222.807 69.139 353.787 223.455 69.2906 356.126 223.517 68.9412 
353.672 223.785 69.4958 354.484 223.87 68.7078 354.656 223.95 68.7348 
387.783 83.7348 69.2825 389.017 87.8457 67.8894 395.609 154.129 67.3521 
359.31 222.867 69.9525 353.669 223.535 69.6939 354.523 224.429 69.0517 
354.851 225.016 69.4395 387.303 82.9606 69.8633 386.785 83.6798 69.1103 
384.192 87.9455 69.1588 392.89 105.083 69.0297 395.741 127.654 68.3489 
386.384 161.544 67.8699 383.084 198.087 69.6095 378.009 207.068 71.039 
377.416 207.726 71.2713 377.409 208.391 71.4303 377.581 208.597 71.5221 
377.546 209.033 71.7375 354.564 222.405 69.8791 357.315 222.073 69.7547 
362.737 222.371 71.2403 361.94 222.986 70.9653 353.447 224.112 70.3484 
356.249 225.379 69.9075 353.704 225.402 70.4449 354.838 225.709 70.0484 
387.22 81.2739 71.5147 386.696 82.0265 70.8355 384.151 87.1351 70.3337 
383.979 89.158 69.4747 383.946 91.2051 70.7639 395.575 128.369 69.6327 
[...]
POINT_DATA 2559
SCALARS scalars float
LOOKUP_TABLE default
1 1 1 1 1 1 1 1 1 
1 1 1 1 1 1 1 1 1 
1 1 1 1 1 1 1 1 1 
1 1 1 1 1 1 1 1 1 
1 1 1 1 1 1 1 1 1 
1 1 1 1 1 1 1 1 1 
1 1 1 1 1 1 1 1 1 
1 1 1 1 1 1 1 1 1 
1 1 1 1 1 1 1 1 1 
1 1 1 1 1 1 1 1 1 
1 1 1 1 1 1 1 1 1 
1 1 1 1 1 1 1 1 1 
1 1 1 1 1 1 1 1 1 
1 1 1 1 1 1 1 1 1 
1 1 1 1 1 1 1 1 1 
1 1 1 1 1 1 1 1 1 
1 1 1 1 1 1 1 1 1 
1 1 1 1 1 1 1 1 1 
1 1 1 1 1 1 1 1 1 
1 1 1 1 1 1 1 1 1 
1 1 1 1 1 1 1 1 1 
1 1 1 1 1 1 1 1 1 
1 1 1 1 1 1 1 1 1 
1 1 1 1 1 1 1 1 1 
1 1 1 1 1 1 1 1 1 
1 1 1 1 1 1 1 1 1 
1 1 1 1 1 1 1 1 1 
1 1 1 1 1 1 1 1 1 
1 1 1 1 1 1 1 1 1 
1 1 1 1 1 1 1 1 1 
1 1 1 1 1 1 1 1 1 
1 1 1 1 1 1 1 1 1 
1 1 1 1 1 1 1 1 1 
1 1 1 1 1 1 1 1 1 
1 1 1 1 1 1 1 1 1 
1 1 1 1 1 1 1 1 1 
1 1 1 1 1 1 1 1 1 
1 1 1 1 1 1 1 1 1 
1 1 1 1 1 1 1 1 1 
1 1 1 1 1 1 1 1 1 
1 1 1 1 1 1 1 1 1 
1 1 1 1 1 1 1 1 1 
1 1 1 1 1 1 1 1 1 
1 1 1 1 1 1 1 1 1 
1 1 1 1 1 1 1 1 1 
1 1 1 1 1 1 1 1 1 
1 1 1 1 1 1 1 1 1 
1 1 1 1 1 1 1 1 1 
1 1 1 1 1 1 1 1 1 
1 1 1 1 1 1 1 1 1 
1 1 1 1 1 1 1 1 1 
1 1 1 1 1 1 1 1 1 
1 1 1 1 1 1 1 1 1 
1 1 1 1 1 1 1 1 1 
1 1 1 1 1 1 1 1 1 
1 1 1 1 1 1 1 1 1 
1 1 1 1 1 1 1 1 1 
1 1 1 1 1 1 1 1 1 
1 1 1 1 1 1 1 1 1 
1 1 1 1 1 1 1 1 1 
1 1 1 1 1 1 1 1 1 
1 1 1 1 1 1 1 1 1 
1 1 1 1 1 1 1 1 1 
1 1 1 1 1 1 1 1 1 
1 1 1 1 1 1 1 1 1 
1 1 1 1 1 1 1 1 1 
1 1 1 1 1 1 1 1 1 
1 1 1 1 1 1 1 1 1 
1 1 1 1 1 1 1 1 1 
1 1 1 1 1 1 1 1 1 
1 1 1 1 1 1 1 1 1 
1 1 1 1 1 1 1 1 1 
1 1 1 1 1 1 1 1 1 
1 1 1 1 1 1 1 1 1 
1 1 1 1 1 1 1 1 1 
1 1 1 1 1 1 1 1 1 
1 1 1 1 1 1 1 1 1 
1 1 1 1 1 1 1 1 1 
1 1 1 1 1 1 1 1 1 
1 1 1 1 1 1 1 1 1 
1 1 1 1 1 1 1 1 1 
1 1 1 1 1 1 1 1 1 
1 1 1 1 1 1 1 1 1 
1 1 1 1 1 1 1 1 1 
1 1 1 1 1 1 1 1 1 
1 1 1 1 1 1 1 1 1 
1 1 1 1 1 1 1 1 1 
1 1 1 1 1 1 1 1 1 
1 1 1 1 1 1 1 1 1 
1 1 1 1 1 1 1 1 1 
1 1 1 1 1 1 1 1 1 
1 1 1 1 1 1 1 1 1 
1 1 1 1 1 1 1 1 1 
1 1 1 1 1 1 1 1 1 
1 1 1 1 1 1 1 1 1 
1 1 1 1 1 1 1 1 1 
1 1 1 1 1 1 1 1 1 
1 1 1 1 1 1 1 1 1 
1 1 1 1 1 1 1 1 1 
1 1 1 1 1 1 1 1 1 
1 1 1 1 1 1 1 1 1 
1 1 1 1 1 1 1 1 1 
1 1 1 1 1 1 1 1 1 
1 1 1 1 1 1 1 1 1 
1 1 1 1 1 1 1 1 1 
1 1 1 1 1 1 1 1 1 
1 1 1 1 1 1 1 1 1 
1 1 1 1 1 1 1 1 1 
1 1 1 1 1 1 1 1 1 
1 1 1 1 1 1 1 1 1 
1 1 1 1 1 1 1 1 1 
1 1 1 1 1 1 1 1 1 
1 1 1 1 1 1 1 1 1 
1 1 1 1 1 1 1 1 1 
1 1 1 1 1 1 1 1 1 
1 1 1 1 1 1 1 1 1 
1 1 1 1 1 1 1 1 1 
1 1 1 1 1 1 1 1 1 
1 1 1 1 1 1 1 1 1 
1 1 1 1 1 1 1 1 1 
1 1 1 1 1 1 1 1 1 
1 1 1 1 1 1 1 1 1 
1 1 1 1 1 1 1 1 1 
1 1 1 1 1 1 1 1 1 
1 1 1 1 1 1 1 1 1 
1 1 1 1 1 1 1 1 1 
1 1 1 1 1 1 1 1 1 
1 1 1 1 1 1 1 1 1 
1 1 1 1 1 1 1 1 1 
1 1 1 1 1 1 1 1 1 
1 1 1 1 1 1 1 1 1 
1 1 1 1 1 1 1 1 1 
1 1 1 1 1 1 1 1 1 
1 1 1 1 1 1 1 1 1 
1 1 1 1 1 1 1 1 1 
1 1 1 1 1 1 1 1 1 
1 1 1 1 1 1 1 1 1 
1 1 1 1 1 1 1 1 1 
1 1 1 1 1 1 1 1 1 
1 1 1 1 1 1 1 1 1 
1 1 1 1 1 1 1 1 1 
1 1 1 1 1 1 1 1 1 
1 1 1 1 1 1 1 1 1 
1 1 1 1 1 1 1 1 1 
1 1 1 1 1 1 1 1 1 
1 1 1 1 1 1 1 1 1 
1 1 1 1 1 1 1 1 1 
1 1 1 1 1 1 1 1 1 
1 1 1 1 1 1 1 1 1 
1 1 1 1 1 1 1 1 1 
1 1 1 1 1 1 1 1 1 
1 1 1 1 1 1 1 1 1 
1 1 1 1 1 1 1 1 1 
1 1 1 1 1 1 1 1 1 
1 1 1 1 1 1 1 1 1 
1 1 1 1 1 1 1 1 1 
1 1 1 1 1 1 1 1 1 
1 1 1 1 1 1 1 1 1 
1 1 1 1 1 1 1 1 1 
1 1 1 1 1 1 1 1 1 
1 1 1 1 1 1 1 1 1 
1 1 1 1 1 1 1 1 1 
1 1 1 1 1 1 1 1 1 
1 1 1 1 1 1 1 1 1 
1 1 1 1 1 1 1 1 1 
1 1 1 1 1 1 1 1 1 
1 1 1 1 1 1 1 1 1 
1 1 1 1 1 1 1 1 1 
1 1 1 1 1 1 1 1 1 
1 1 1 1 1 1 1 1 1 
1 1 1 1 1 1 1 1 1 
1 1 1 1 1 1 1 1 1 
1 1 1 1 1 1 1 1 1 
1 1 1 1 1 1 1 1 1 
1 1 1 1 1 1 1 1 1 
1 1 1 1 1 1 1 1 1 
1 1 1 1 1 1 1 1 1 
1 1 1 1 1 1 1 1 1 
1 1 1 1 1 1 1 1 1 
1 1 1 1 1 1 1 1 1 
1 1 1 1 1 1 1 1 1 
1 1 1 1 1 1 1 1 1 
1 1 1 1 1 1 1 1 1 
1 1 1 1 1 1 1 1 1 
1 1 1 1 1 1 1 1 1 
1 1 1 1 1 1 1 1 1 
1 1 1 1 1 1 1 1 1 
1 1 1 1 1 1 1 1 1 
1 1 1 1 1 1 1 1 1 
1 1 1 1 1 1 1 1 1 
1 1 1 1 1 1 1 1 1 
1 1 1 1 1 1 1 1 1 
1 1 1 1 1 1 1 1 1 
1 1 1 1 1 1 1 1 1 
1 1 1 1 1 1 1 1 1 
1 1 1 1 1 1 1 1 1 
1 1 1 1 1 1 1 1 1 
1 1 1 1 1 1 1 1 1 
1 1 1 1 1 1 1 1 1 
1 1 1 1 1 1 1 1 1 
1 1 1 1 1 1 1 1 1 
1 1 1 1 1 1 1 1 1 
1 1 1 1 1 1 1 1 1 
1 1 1 1 1 1 1 1 1 
1 1 1 1 1 1 1 1 1 
1 1 1 1 1 1 1 1 1 
1 1 1 1 1 1 1 1 1 
1 1 1 1 1 1 1 1 1 
1 1 1 1 1 1 1 1 1 
1 1 1 1 1 1 1 1 1 
1 1 1 1 1 1 1 1 1 
1 1 1 1 1 1 1 1 1 
1 1 1 1 1 1 1 1 1 
1 1 1 1 1 1 1 1 1 
1 1 1 1 1 1 1 1 1 
1 1 1 1 1 1 1 1 1 
1 1 1 1 1 1 1 1 1 
1 1 1 1 1 1 1 1 1 
1 1 1 1 1 1 1 1 1 
1 1 1 1 1 1 1 1 1 
1 1 1 1 1 1 1 1 1 
1 1 1 1 1 1 1 1 1 
1 1 1 1 1 1 1 1 1 
1 1 1 1 1 1 1 1 1 
1 1 1 1 1 1 1 1 1 
1 1 1 1 1 1 1 1 1 
1 1 1 1 1 1 1 1 1 
1 1 1 1 1 1 1 1 1 
1 1 1 1 1 1 1 1 1 
1 1 1 1 1 1 1 1 1 
1 1 1 1 1 1 1 1 1 
1 1 1 1 1 1 1 1 1 
1 1 1 1 1 1 1 1 1 
1 1 1 1 1 1 1 1 1 
1 1 1 1 1 1 1 1 1 
1 1 1 1 1 1 1 1 1 
1 1 1 1 1 1 1 1 1 
1 1 1 1 1 1 1 1 1 
1 1 1 1 1 1 1 1 1 
1 1 1 1 1 1 1 1 1 
1 1 1 1 1 1 1 1 1 
1 1 1 1 1 1 1 1 1 
1 1 1 1 1 1 1 1 1 
1 1 1 1 1 1 1 1 1 
1 1 1 1 1 1 1 1 1 
1 1 1 1 1 1 1 1 1 
1 1 1 1 1 1 1 1 1 
1 1 1 1 1 1 1 1 1 
1 1 1 1 1 1 1 1 1 
1 1 1 1 1 1 1 1 1 
1 1 1 1 1 1 1 1 1 
1 1 1 1 1 1 1 1 1 
1 1 1 1 1 1 1 1 1 
1 1 1 1 1 1 1 1 1 
1 1 1 1 1 1 1 1 1 
1 1 1 1 1 1 1 1 1 
1 1 1 1 1 1 1 1 1 
1 1 1 1 1 1 1 1 1 
1 1 1 1 1 1 1 1 1 
1 1 1 1 1 1 1 1 1 
1 1 1 1 1 1 1 1 1 
1 1 1 1 1 1 1 1 1 
1 1 1 1 1 1 1 1 1 
1 1 1 1 1 1 1 1 1 
1 1 1 1 1 1 1 1 1 
1 1 1 1 1 1 1 1 1 
1 1 1 1 1 1 1 1 1 
1 1 1 1 1 1 1 1 1 
1 1 1 1 1 1 1 1 1 
1 1 1 1 1 1 1 1 1 
1 1 1 1 1 1 1 1 1 
1 1 1 1 1 1 1 1 1 
1 1 1 1 1 1 1 1 1 
1 1 1 1 1 1 1 1 1 
1 1 1 1 1 1 1 1 1 
1 1 1 1 1 1 1 1 1 
1 1 1 1 1 1 1 1 1 
1 1 1 1 1 1 1 1 1 
1 1 1 1 1 1 1 1 1 
1 1 1 1 1 1 1 1 1 
1 1 1 1 1 1 1 1 1 
1 1 1 1 1 1 1 1 1 
1 1 1 1 1 1 1 1 1 
1 1 1 1 1 1 1 1 1 
1 1 1 
NORMALS Normals float
-0.238731 -0.0630149 -0.969039 -0.350444 -0.0648863 -0.934333 -0.0436767 -0.0155857 -0.998924 
0.126417 -0.0443207 -0.990987 -0.113483 -0.0191737 -0.993355 0.0801008 -0.0750834 -0.993955 
0.233465 0.127073 -0.964026 -0.389115 -0.00690299 -0.921163 0.22453 0.00578451 -0.97445 
-0.0726564 0.0533187 -0.995931 0.0851171 -0.00779143 -0.99634 -0.109082 0.0446625 -0.993029 
-0.367236 -0.05263 -0.928638 0.260604 -0.246616 -0.933416 -0.272258 -0.0420507 -0.961305 
-0.0049569 -0.0538718 -0.998536 -0.365446 -0.064545 -0.928592 0.180132 -0.102199 -0.978319 
-0.524672 -0.113035 -0.843767 0.29904 -0.209318 -0.931 -0.68509 -0.0201282 -0.72818 
0.35114 -0.0327378 -0.935751 0.346758 -0.0300108 -0.937474 -0.476431 0.000970567 -0.879211 
-0.542249 0.152506 -0.826261 -0.608886 -0.0825206 -0.788954 -0.585232 -0.0234217 -0.810528 
-0.727856 -0.0899806 -0.679801 0.549235 0.0110265 -0.835595 0.395802 0.113261 -0.911325 
-0.391067 -0.0273088 -0.919957 0.387365 0.170216 -0.906076 -0.0565327 0.0238767 -0.998115 
-0.363199 0.128693 -0.922781 0.339299 0.205073 -0.918053 0.271964 0.137188 -0.952478 
-0.214993 0.233745 -0.948231 -0.32115 0.0983445 -0.941908 0.145898 0.20531 -0.967761 
-0.00502785 0.220746 -0.975318 0.239461 0.277063 -0.930535 0.226543 -0.0330671 -0.97344 
0.561153 0.0670387 -0.824993 0.314139 0.349123 -0.882853 0.0143273 -0.324809 -0.945671 
-0.539795 -0.16224 -0.826014 -0.370904 -0.317515 -0.872705 -0.305737 -0.317244 -0.897709 
-0.61034 -0.245474 -0.753145 -0.741248 0.0104104 -0.671151 -0.868891 0.054617 -0.491982 
-0.865191 -0.0656647 -0.497125 -0.637401 -0.042142 -0.769379 -0.754023 0.00851965 -0.656793 
0.444834 -0.208445 -0.871019 0.677834 0.0428296 -0.733966 -0.911932 0.0269854 -0.409454 
-0.853957 -0.18719 -0.485508 -0.699766 0.238286 -0.673459 -0.799695 -0.0668603 -0.596672 
0.681934 0.066354 -0.728398 -0.660408 -0.0414832 -0.74976 0.58115 0.142665 -0.801194 
0.537478 0.103834 -0.836861 0.73948 0.179651 -0.648764 -0.496531 0.00119497 -0.868018 
-0.345873 0.0865486 -0.934281 0.010721 0.0286307 -0.999533 -0.227273 0.24746 -0.941866 
0.472006 0.30487 -0.827203 0.260272 0.383537 -0.886091 0.448785 0.530714 -0.718981 
-0.125055 -0.138543 -0.982429 -0.154475 -0.12446 -0.980126 -0.48097 -0.229914 -0.846054 
-0.172807 -0.115275 -0.978187 0.188377 -0.115681 -0.97526 -0.4141 -0.00531094 -0.910216 
-0.749469 0.11804 -0.651431 -0.830854 0.031594 -0.555594 -0.808766 -0.0307854 -0.587324 
-0.748035 -0.00460433 -0.663643 -0.908261 0.0580896 -0.414351 0.726893 -0.189064 -0.660213 
-0.949313 -0.0262993 -0.31323 -0.879557 0.258905 -0.399185 -0.884841 0.105457 -0.453802 
0.680977 0.0457917 -0.730872 -0.945109 0.088997 -0.314402 -0.867793 -0.0319454 -0.495897 
-0.898872 -0.0953975 -0.427701 0.792046 0.0119886 -0.610344 -0.917768 -0.0731839 -0.390315 
-0.926009 -0.0706606 -0.37083 0.831499 0.135844 -0.538661 0.719141 0.257387 -0.645436 
-0.683561 -0.0433357 -0.728606 0.674713 0.323218 -0.663546 -0.689197 -0.0120176 -0.724475 
-0.546354 -0.00197098 -0.837552 0.585501 0.426019 -0.689707 -0.221396 -0.145415 -0.964281 
0.0563141 -0.15982 -0.985539 -0.388122 -0.145206 -0.910097 -0.139579 -0.118091 -0.983144 
-0.513667 -0.0499513 -0.856534 -0.557314 -0.00279592 -0.830297 0.219406 -0.199728 -0.954971 
-0.278158 -0.0577255 -0.958799 -0.613994 -0.142635 -0.776316 0.25709 -0.129951 -0.95761 
-0.730257 -0.0414425 -0.681915 0.517979 -0.257096 -0.815843 -0.854786 0.242008 -0.4591 
0.722656 -0.15926 -0.67261 -0.959672 0.0700815 -0.272246 -0.975323 0.0576141 -0.213132 
-0.90038 0.367682 -0.232648 -0.932688 -0.247947 -0.261946 -0.946828 0.173036 -0.271248 
-0.982554 0.0485287 -0.179535 -0.968884 0.0632955 -0.239284 -0.72605 -0.1098 -0.678819 
-0.792343 0.0757859 -0.60535 -0.556185 0.168846 -0.813726 -0.596903 0.265222 -0.757208 
0.769605 0.338659 -0.541311 -0.404317 0.328168 -0.853717 0.575553 0.484594 -0.658716 
-0.1785 0.397245 -0.900186 0.641845 0.461567 -0.612366 -0.279503 -0.331743 -0.901013 
-0.000282704 -0.286031 -0.95822 0.141088 -0.220254 -0.965185 0.0142437 -0.227205 -0.973743 
0.443866 -0.209872 -0.87117 -0.499409 -0.0776478 -0.86288 0.305127 -0.225686 -0.925183 
-0.740797 -0.101929 -0.663951 0.301914 -0.133739 -0.943908 0.434954 -0.216405 -0.874061 
0.600835 -0.144012 -0.786293 -0.885475 -0.0147478 -0.464453 -0.944418 0.28843 -0.157741 
-0.574326 -0.0450096 -0.817389 0.65469 -0.113208 -0.747372 0.72605 -0.22186 -0.650869 
-0.949335 0.159083 -0.271027 0.903574 0.0512691 -0.425354 0.86152 0.0491682 -0.505337 
-0.986653 -0.0281703 -0.160383 0.910078 0.258793 -0.323704 0.892744 0.338171 -0.29774 
-0.512941 0.1606 -0.843267 0.695492 0.341928 -0.631962 -0.399225 0.0362237 -0.916137 
-0.658152 -0.0299192 -0.75229 0.710939 0.420977 -0.563333 0.180263 0.328211 -0.927245 
-0.197897 -0.191992 -0.961237 0.112924 -0.276365 -0.954396 -0.145877 -0.111329 -0.983019 
-0.465241 -0.211602 -0.85952 0.473574 -0.127457 -0.871483 -0.848632 0.0492151 -0.526689 
0.5096 -0.174472 -0.842537 0.607202 -0.214814 -0.764957 -0.923204 0.062585 -0.379179 
-0.937383 -0.0362127 -0.346413 -0.933983 0.352736 -0.0570306 -0.980549 0.154264 -0.12135 
-0.984267 0.140068 -0.107704 0.91658 0.0777754 -0.392214 -0.991026 -0.0150204 -0.132823 
0.943439 0.0681739 -0.32446 0.931521 0.130984 -0.339283 -0.553463 0.200427 -0.808398 
-0.27099 0.204013 -0.940714 -0.355397 0.206191 -0.91169 -0.325103 0.181759 -0.928047 
0.134915 0.423818 -0.895643 0.324995 0.536402 -0.778878 0.52897 0.386035 -0.755756 
0.123592 0.411984 -0.90277 -0.11075 -0.184199 -0.976629 0.118116 -0.160668 -0.979916 
-0.216336 -0.180267 -0.959532 0.355736 -0.199442 -0.913058 -0.699908 -0.143157 -0.699739 
0.681213 -0.101122 -0.725068 0.681244 -0.187837 -0.707547 0.0583722 -0.151754 -0.986693 
0.509334 -0.145162 -0.848237 0.576408 -0.248455 -0.778476 -0.471541 -0.0959406 -0.87661 
0.967596 -0.0997587 -0.231962 -0.00859105 -0.163513 -0.986504 -0.282061 -0.156275 -0.946583 
0.838911 -0.0956772 0.535793 0.352531 -0.0147855 0.935683 -0.0782788 -0.132501 -0.988087 
0.341433 -0.205825 -0.917093 -0.384028 -0.155142 -0.910194 0.556778 -0.277265 -0.783022 
-0.7219 -0.186786 -0.666312 0.623476 -0.130769 -0.770829 -0.871191 -0.00508322 -0.490918 
-0.91474 -0.0411374 -0.401944 -0.998586 -0.0293131 -0.0443501 -0.897586 0.439699 0.0316902 
0.838088 -0.163789 -0.520367 0.949077 -0.135539 -0.284399 0.925846 -0.14808 -0.347681 
0.969501 0.15669 -0.188459 -0.672018 0.0436466 -0.739247 0.6837 0.500088 -0.531476 
0.463968 0.632916 -0.619799 0.22673 0.548913 -0.804542 -0.0297661 0.40497 -0.913845 
0.417913 0.489592 -0.765277 0.206419 -0.304133 -0.929997 -0.26298 -0.410195 -0.873259 
0.58468 -0.270718 -0.764762 -0.848427 0.0352055 -0.528141 0.686668 0.0583191 -0.724629 
-0.777825 -0.10287 0.620004 0.835005 0.014347 0.550055 0.738322 -0.324762 -0.591109 
-0.865156 0.365663 -0.343213 -0.598044 0.198736 -0.776432 -0.201745 0.261644 0.943844 
-0.442797 -0.230471 -0.866495 0.121121 -0.266597 -0.956167 -0.562399 -0.136511 -0.815519 
-0.600615 -0.129318 -0.789011 0.539666 -0.253005 -0.802963 0.719763 -0.23987 -0.651463 
-0.969293 0.118533 -0.215455 0.768022 -0.170745 -0.617243 -0.959485 0.121596 0.254171 
-0.641619 0.0766284 -0.763186 -0.691894 0.00493066 -0.721982 -0.434896 0.255135 -0.863581 
-0.532209 0.209702 -0.820231 0.139477 0.40507 -0.903584 0.146426 -0.475128 -0.867648 
-0.421401 -0.241501 -0.874127 -0.678809 -0.00997026 -0.734247 0.39394 -0.274864 -0.877075 
-0.74698 -0.0507285 -0.662908 0.429287 -0.149737 -0.890669 -0.516801 -0.0474481 -0.85479 
-0.647844 -0.0686966 -0.758669 0.407634 -0.052858 -0.911614 0.0902396 -0.216782 -0.97204 
-0.552996 -0.00451248 -0.833172 0.42959 -0.256523 -0.865822 0.165208 0.110174 0.980086 
0.232344 -0.237033 -0.943309 0.405129 -0.191159 -0.894052 -0.701793 0.171465 -0.691438 
0.0406202 -0.137903 0.989612 -0.84091 -0.204013 -0.501248 0.280428 -0.323409 -0.903752 
-0.800569 0.155785 -0.578637 -0.730805 -0.0954663 -0.675877 -0.783036 -0.143063 -0.6053 
0.980605 -0.0825322 -0.177771 0.981325 -0.0541881 -0.184566 0.98989 -0.019793 -0.140448 
-0.989957 0.0105817 -0.140974 0.998204 0.052971 -0.027984 -0.910276 -0.152674 -0.384823 
0.961017 0.272872 -0.0445864 0.876798 0.407073 -0.255964 -0.803346 -0.0183128 -0.595232 
-0.389643 0.240398 -0.889037 0.551162 0.510456 -0.660042 -0.418056 0.311458 -0.85336 
-0.23781 0.32398 -0.915688 -0.11895 0.433952 -0.893049 0.536727 0.506919 -0.674505 
-0.312739 0.291005 -0.904163 -0.580323 -0.431003 -0.690986 -0.617566 -0.320459 -0.718275 
-0.55777 -0.111446 -0.822479 0.619925 -0.244844 -0.745483 -0.72289 -0.0521481 -0.688993 
0.587447 -0.225753 -0.777137 0.792637 -0.191974 -0.578681 -0.814695 0.163479 -0.55637 
-0.816463 -0.023198 -0.576931 -0.880873 -0.0628252 -0.469165 -0.877838 -0.203219 -0.433708 
-0.937946 -0.0629352 -0.341024 -0.979752 0.0893914 -0.179151 0.776596 -0.183472 -0.602691 
-0.986384 0.0805811 -0.143361 0.99086 -0.0775999 -0.110339 0.995174 0.0968367 0.0158261 
-0.95633 -0.0422926 -0.289214 -0.865964 -0.130002 -0.482913 -0.578054 0.146879 -0.802671 
0.294355 0.498329 -0.81549 0.247603 0.246459 -0.93699 0.0982702 0.451593 -0.886796 
0.478166 0.448947 -0.754854 0.0796643 -0.52586 -0.846832 -0.852253 -0.141754 -0.503557 
0.639839 -0.214351 -0.73801 -0.930312 -0.143628 -0.337478 0.91961 -0.167193 -0.355477 
-0.994233 -0.00489955 0.107129 0.989135 0.134324 0.0597466 0.0110001 0.321667 -0.946789 
0.412037 0.376346 -0.829813 0.412885 0.469172 -0.780643 0.403783 0.263514 -0.876082 
-0.229744 0.164401 -0.959265 -0.0523071 0.0417371 -0.997758 0.645948 0.459277 -0.609768 
0.0316061 0.243609 -0.969359 -0.271599 0.328944 -0.90445 0.105775 0.486527 -0.867239 
-0.167631 -0.342439 -0.924465 -0.463106 -0.723772 -0.511554 -0.806071 -0.222539 -0.548384 
-0.433561 0.136263 -0.890762 -0.594237 0.290863 -0.749854 0.391762 -0.499427 -0.772719 
-0.105306 -0.695203 -0.711058 -0.11217 -0.575902 -0.809787 0.401244 -0.690051 -0.602357 
-0.107792 -0.546022 -0.830807 0.622538 -0.430963 -0.653236 -0.47531 -0.478768 -0.738148 
-0.991652 -0.06148 -0.113341 0.852414 -0.175566 -0.492512 -0.992976 0.0899688 -0.076839 
-0.990283 0.0410507 -0.132873 0.995603 -0.0475702 0.0806913 -0.733089 0.0236626 -0.679721 
0.818922 0.428796 -0.381446 -0.654258 0.0691152 -0.753107 -0.536015 0.154166 -0.830012 
0.417999 0.432644 -0.798809 0.02449 -0.541503 -0.840342 0.233911 0.0338392 -0.971669 
-0.294828 0.45206 -0.841854 -0.0316534 0.204123 -0.978433 -0.634609 0.412772 -0.653369 
-0.60125 -0.464004 -0.650536 -0.83132 -0.30685 -0.463411 -0.978638 0.172812 -0.111367 
0.980028 0.0476496 0.193066 0.94942 0.0330855 0.31226 0.953612 0.284306 0.0989635 
-0.922586 -0.123093 -0.365628 0.714588 0.454162 -0.532073 -0.640172 0.0425503 -0.767053 
0.849862 0.325478 -0.414486 -0.461738 0.273107 -0.843926 -0.500685 0.258934 -0.825995 
0.171027 0.465368 -0.868437 -0.775159 -0.59431 -0.214301 -0.168928 -0.816869 -0.551532 
0.212368 -0.404647 -0.889472 -0.906302 -0.371808 -0.200935 0.304159 0.327402 -0.894592 
-0.941148 0.0302858 -0.336636 -0.273315 0.417936 -0.866388 0.124832 0.408762 -0.904063 
0.513202 -0.648732 -0.561934 0.791551 -0.28112 -0.542604 0.943775 0.0166544 0.330167 
0.297741 -0.101966 -0.949186 -0.916164 -0.380424 -0.126178 -0.12707 0.569372 -0.8122 
-0.065548 0.587754 -0.80638 0.180813 -0.773171 -0.607876 -0.0665992 -0.764875 -0.640727 
-0.975107 -0.20103 -0.0935548 0.984447 -0.175276 -0.0119042 0.987613 -0.0844131 0.132269 
-0.915315 -0.11633 -0.385572 0.837542 0.398103 -0.374215 -0.0248847 0.308748 -0.950818 
-0.248624 0.205773 -0.94649 -0.182483 0.296308 -0.937497 0.320729 0.399414 -0.858837 
0.251742 0.490995 -0.833996 -0.674144 -0.728793 -0.119962 0.106781 -0.631024 -0.768379 
0.440373 0.0279708 -0.897379 0.417635 0.275613 -0.865805 -0.985373 -0.0367429 -0.166404 
0.172937 0.634981 -0.752922 -0.623853 0.491861 -0.607355 -0.145931 0.724151 -0.674025 
-0.140269 -0.786073 -0.602008 -0.188146 -0.709874 -0.678734 -0.951557 -0.267411 -0.151761 
-0.967425 0.00134367 -0.253154 -0.999001 -0.036439 -0.0258861 0.963545 0.000751446 0.267546 
-0.911343 0.201053 -0.359209 -0.822622 -0.0772618 -0.563315 -0.562452 0.0751913 -0.823404 
0.61878 0.445788 -0.646826 -0.0256128 0.343203 -0.938912 0.551124 0.522065 -0.650931 
-0.0767587 -0.886469 -0.456378 -0.100064 -0.844135 -0.526709 0.234788 -0.329965 -0.914329 
0.209107 -0.217472 -0.953405 -0.511344 -0.846249 0.149633 -0.289788 -0.935995 -0.199843 
-0.00694032 -0.767606 -0.640884 0.0741119 -0.589922 -0.804052 0.278947 0.0199506 -0.960099 
0.425183 0.151823 -0.892283 -0.930584 -0.36599 -0.00801578 0.554382 0.199237 -0.808062 
0.411831 0.456184 -0.788854 -0.986249 0.0409635 -0.160107 -0.252112 0.693053 -0.675365 
-0.155384 0.648799 -0.744927 -0.565089 -0.633287 -0.528793 -0.681811 -0.570624 -0.457736 
-0.59664 -0.574218 -0.56062 0 -0.894427 -0.447214 0 -1 0 
-0.437612 -0.733084 0.520657 0.437612 -0.733084 0.520657 0 0.640184 -0.768221 
0 -0.894427 -0.447214 0 -1 0 -0.437612 -0.733084 0.520657 
0.437612 -0.733084 0.520657 0 0.640184 -0.768221 -0.978675 0.0661029 -0.194486 
0.166764 -0.784244 -0.597621 -0.589017 0.387296 -0.709267 0.419745 0.566519 -0.709133 
0.589017 -0.387296 0.709267 -0.166764 0.784244 0.597621 0.882605 0.111178 0.456779 
0.704874 0.455889 -0.543432 -0.460294 0.0654505 -0.885351 0.152071 0.30286 -0.940824 
-0.173906 0.241117 -0.954788 0.424672 0.446038 -0.787848 0.0746119 0.398819 -0.913989 
0.165397 0.359695 -0.918294 -0.222909 -0.920024 -0.322285 -0.102696 -0.685758 -0.720548 
-0.129963 -0.877033 -0.462517 -0.252748 -0.966699 -0.040153 -0.214316 -0.932795 -0.289763 
0.0500273 -0.669572 -0.74106 -0.0537353 -0.489813 -0.87017 0.145413 -0.337704 -0.929952 
-0.314517 -0.947534 0.057082 -0.249949 -0.963702 -0.093827 -0.270052 -0.954504 -0.126471 
0.265843 -0.113736 -0.957283 0.416346 0.152386 -0.896345 0.280601 -0.19387 -0.940041 
-0.714493 -0.629945 0.304415 -0.952989 -0.299566 0.0455305 -0.960725 -0.263479 0.0870951 
0.503694 0.455194 -0.734228 0.92478 -0.224435 -0.307265 0.974908 -0.22247 -0.00777144 
0 -0.293812 0.955863 -0.981918 0.0686855 -0.176406 0 -0.293812 0.955863 