# vtk DataFile Version 4.2
vtk output
ASCII
DATASET POLYDATA
POINTS 910 float
266.939 83.9104 207.811 266.843 83.8728 207.864 267.134 83.915 207.798 
266.964 83.9977 207.874 268.208 84.6519 207.646 268.575 84.6165 207.515 
268.811 84.3985 207.467 266.652 83.7294 208.059 267.521 83.785 207.765 
266.416 84.1567 208.358 267.551 84.3042 207.8 267.972 84.0205 207.647 
268.518 84.0184 207.551 272.544 85.0489 207.492 274.44 84.9417 207.509 
274.918 85.0189 207.545 274.286 85.3795 207.538 274.829 85.2671 207.515 
274.721 85.4011 207.554 274.894 85.3498 207.526 281 86.0087 206.017 
281 86.0087 206.017 281 86.0088 206.017 281 86.0088 206.017 
268.064 85.4838 208.226 275.167 85.4697 207.709 274.961 85.3902 207.566 
281 86.0088 206.017 271.358 86.1001 207.932 265.817 83.1659 208.688 
265.94 82.7656 208.674 265.759 83.4906 208.775 266.127 83.5963 208.447 
269.64 83.7061 207.541 276 84.0087 207.017 276 84.0087 207.017 
276 84.0088 207.017 276 84.0088 207.017 287 84.0087 207.017 
287 84.0087 207.017 287 84.0088 207.017 287 84.0088 207.017 
265.641 84.0516 209.288 276 84.0088 207.017 285.266 83.7364 208.742 
287 84.0088 207.017 266.531 84.7902 208.749 275.509 85.0624 207.662 
276.506 85.166 207.863 281 86.0087 206.017 267.341 85.454 208.702 
281.138 85.2135 208.709 280.895 85.2978 208.771 281.125 85.2902 208.783 
279.549 85.5039 208.697 268.338 81.3874 208.524 288.133 81.6671 208.763 
291.439 81.5602 209.584 281.976 83.2234 208.235 288.048 81.7156 208.768 
288.178 81.7955 208.828 289.746 82.2689 209.3 291.43 81.84 209.648 
276 84.0087 207.017 276.612 83.315 207.98 287 84.0087 207.017 
287.441 82.868 208.906 290.365 82.6623 209.788 290.904 82.3324 209.709 
288.291 83.3126 209.38 281.244 84.9546 208.592 287.956 83.6499 209.504 
280.384 85.2953 208.66 287.595 83.8543 209.608 269.608 86.6189 208.883 
277.442 86.185 208.955 271.443 87.0506 209.158 271.759 87.1549 209.275 
273.057 86.9399 209.267 261 77.0087 209.517 261 77.0087 209.517 
261 77.0088 209.517 261 77.0087 209.517 261 77.0088 209.517 
264.4 79.2832 211.227 269.237 79.0217 210.114 272.462 78.5354 210.234 
263.989 80.0407 211.056 265.558 79.8888 210.173 272.885 79.0149 209.803 
273.215 79.2735 209.618 268.574 80.1654 209.269 264.12 80.9351 210.618 
289.732 81.0993 209.165 264.089 81.7831 210.692 277.209 81.1943 208.665 
292.984 81.2338 210.034 293.232 81.2215 210.135 293.374 81.1576 210.196 
270.573 81.499 208.331 286.272 81.5847 208.727 291.534 82.0701 209.814 
293.349 81.2105 210.2 286.417 82.6966 208.727 264.979 84.0042 210.647 
291.82 82.2916 210.277 292.697 81.839 210.359 288.484 83.6121 209.829 
268.345 86.399 209.451 271.002 87.1191 209.389 270.717 87.0855 209.474 
270.888 87.1467 209.517 277.617 86.2375 209.194 278.831 86.0062 209.463 
279.671 85.7959 209.385 281.477 85.4301 209.695 271.357 87.155 209.58 
277.477 86.3195 209.517 272.118 87.1785 209.568 297.578 72.1333 212.452 
296.21 73.6019 211.791 282.364 75.4766 211.398 282.186 76.0267 210.935 
295.111 75.3208 211.156 295.769 75.9964 211.199 261 77.0087 209.518 
261 77.0087 209.518 261 77.0088 209.518 261 77.0088 209.518 
277.918 79.631 209.325 291.401 82.5415 210.863 292.858 81.7845 210.614 
286.307 84.3278 210.614 283.919 84.9001 210.06 286.932 84.1902 210.274 
287.284 84.0763 210.562 288.546 83.6645 210.49 279.854 85.7536 210.567 
281.063 85.5091 210.26 281.928 85.2649 210.55 278.245 86.1695 209.825 
271.891 87.1603 209.818 299.27 71.2497 213 299.668 71.3108 213.089 
298.142 72.1169 212.528 299.664 71.4835 212.973 286.806 74.0991 212.249 
299.136 72.4077 212.583 291.896 74.3507 211.738 287.136 74.9042 211.38 
298.189 75.483 212.209 296.733 76.3199 211.576 261 77.0087 209.518 
264.052 78.4259 212.852 265.478 78.2562 211.916 270.73 77.7709 211.381 
263.442 79.2417 212.423 294.925 78.6471 210.972 263.277 80.4365 212.112 
294.575 79.7205 211.131 291.441 82.3728 211.456 287.887 83.6495 211.28 
288.707 83.5663 210.88 289.049 83.3982 211.083 289.705 83.2089 210.845 
284.004 86.0131 211.009 284.004 86.0131 211.009 284.004 86.0132 211.009 
284.004 86.0131 211.009 266.247 85.5344 211.893 279.797 85.8251 210.207 
284.004 86.0132 211.009 267.243 86.0449 211.483 269.35 86.723 211.17 
273.378 86.815 211.336 299.705 71.6198 212.967 294.932 72.5509 212.839 
299.735 72.0881 212.985 281.937 74.5087 212.932 284.638 73.8214 213.14 
298.794 73.271 212.279 299.134 73.0093 212.524 284.997 74.0847 212.487 
294.074 74.762 211.294 298.991 75.5245 212.714 299.122 75.4378 212.783 
299.185 75.4534 212.846 299.061 75.641 212.87 299.172 75.5173 212.902 
271.482 76.9695 212.712 293.207 77.1129 210.361 298.72 75.9719 212.888 
294.109 80.4775 211.946 283.675 83.8932 212.552 287.321 83.5922 211.664 
284.004 86.0131 211.009 299.534 70.322 214.197 300.223 70.4061 214.177 
300.491 70.3766 214.337 300.549 70.249 214.55 299.174 70.4864 213.995 
300.637 70.358 214.486 300.61 70.5245 214.356 300.708 70.447 214.548 
300.367 71.3702 213.794 287.685 73.3276 213.441 289.376 73.3248 213.118 
289.871 73.0884 213.504 293.32 72.3944 213.715 299.179 74.9709 212.954 
299.219 75.4011 212.923 299.199 75.4302 213.017 290.762 82.2014 212.307 
292.004 83.0131 213.009 292.004 83.0132 213.009 292.004 83.0132 213.009 
292.004 83.0131 213.009 287.765 82.8854 212.659 292.004 83.0132 213.009 
266.701 85.61 213.201 299.569 70.1757 214.483 299.78 70.0902 214.663 
300.376 70.1538 214.629 300.675 70.3219 214.673 297.992 70.611 214.386 
300.77 70.7691 214.776 291.025 73.1624 213.139 299.459 73.3127 212.894 
300.495 72.4006 214.573 278.432 74.8556 214.68 299.22 75.2579 213.027 
263.203 78.6784 214.8 265.984 77.3005 214.669 292.004 83.0131 213.009 
264.181 83.5666 214.232 265.474 84.7197 214.456 300.121 70.0263 215.049 
299.843 70.038 214.927 298.62 70.3019 214.897 299.59 70.0686 215.179 
300.738 70.5771 215.043 294.921 71.677 214.361 293.161 72.0603 215.01 
294.704 71.6403 214.824 281.502 73.9629 215.011 285.419 73.227 215.306 
299.446 74.4247 214.43 270.326 76.4279 215.257 295.37 78.8826 213.794 
264.695 83.9298 215.392 269.17 85.4287 215.18 300.297 70.0891 215.261 
299.824 70.0695 215.425 300.617 70.3935 215.266 300.669 71.1499 215.554 
300.689 71.5561 215.327 293.73 71.8656 215.536 300.306 72.7218 215.375 
300.051 73.0836 215.469 298.473 75.0812 215.57 263.176 78.5664 216.564 
262.74 80.4327 215.969 263.024 81.4395 216.592 280.635 81.828 216.551 
265.985 84.7257 215.58 300.286 70.1518 215.517 300.09 70.0995 215.506 
300.318 70.2735 215.664 298.204 70.4655 216.245 299.206 70.3035 216.028 
299.77 70.2255 215.802 300.471 70.47 215.657 300.552 70.8015 215.826 
300.575 71.0609 215.923 300.501 71.1268 216.086 295.181 71.4238 216.003 
300.368 72.2764 215.796 279.769 74.2871 216.759 263.45 78.2123 216.72 
263.656 78.0447 217.115 292.694 78.0836 216.665 264.57 83.3398 216.961 
296.498 71.0958 216.871 300.294 70.9286 216.26 290.686 72.6346 217.226 
294.261 71.8762 216.712 298.37 73.2391 217.173 298.177 74.4464 216.45 
265.297 77.3133 218.15 263.425 78.3512 218.002 298.392 70.6797 217 
298.927 70.6604 216.805 299.854 70.6975 216.387 298.707 71.1827 217.404 
296.17 71.4687 217.349 298.276 72.0179 217.621 299.224 71.6442 217.148 
294.026 72.2684 217.423 297.777 72.8598 217.623 298.856 72.277 217.274 
286.747 73.3321 218.198 295.677 74.8614 217.672 263.793 78.1006 218.514 
280.949 80.3167 218.409 263.051 80.8701 218.854 298.195 70.8432 217.313 
298.597 70.9983 217.376 298.385 71.3619 217.583 296.45 71.578 217.577 
289.454 73.0938 218.317 289.952 73.2559 218.713 295.245 72.273 217.742 
297.163 72.7394 217.835 297.459 72.1782 217.817 294.449 73.3211 218.271 
282.725 73.961 219.171 295.105 73.4017 218.207 295.897 73.7967 218.029 
274.286 75.7468 219.723 291.126 75.8594 218.805 263.096 79.1649 219.268 
281.608 78.4647 220.187 262.926 79.5353 218.781 263.024 80.4202 219.355 
263.36 81.2873 219.616 263.47 81.554 219.311 266.628 82.5674 221.043 
266.837 82.7491 220.716 266.592 82.8249 220.464 266.393 83.3257 219.247 
298.006 71.0117 217.495 297.542 71.3866 217.678 290.424 73.3765 219.082 
290.222 73.4571 219.112 295.92 72.5432 217.959 284.537 73.9353 219.538 
286.132 73.9691 219.448 290.188 73.6331 219.179 290.335 73.6316 219.311 
289.988 73.677 219.286 290.627 73.6615 219.289 290.784 73.8185 219.282 
281.124 74.6283 220.092 290.239 73.8648 219.348 290.757 74.2248 219.298 
290.171 74.1504 219.481 279.668 74.7885 219.929 289.741 74.7637 219.614 
289.865 74.4806 219.62 263.338 80.7701 220.379 263.697 81.4171 220.414 
267.871 82.3733 221.091 290.085 73.5555 219.311 290.744 73.5796 219.26 
285.989 74.5618 220.029 287.105 74.2303 219.696 289.461 73.693 219.405 
290.021 73.7017 219.35 290.123 73.8417 219.492 283.358 74.2904 220.142 
286.445 75.1004 220.103 291.768 73.9471 219.127 283.837 75.3121 220.827 
287.155 75.1738 219.973 289.633 74.3551 219.701 271.816 76.5511 220.822 
264.875 78.1478 220.799 265.946 77.9282 221.087 282.113 76.92 221.025 
263.758 78.782 220.683 264.073 81.5429 221.045 265.153 82.1566 220.887 
284.301 74.3448 220.335 284.815 74.5431 220.421 289.367 73.9143 219.608 
289.862 73.8286 219.564 281.17 75.2063 220.96 283.129 74.795 220.654 
283.486 74.5216 220.463 284.469 74.8611 220.677 289.62 74.0936 219.667 
277.875 75.5786 221.517 281.57 75.7517 221.259 280.673 75.9613 221.699 
283.987 75.0639 220.853 275.789 75.9903 221.507 280.977 76.4419 221.621 
280.312 76.646 221.977 284.04 74.9757 220.841 266.01 78.2297 221.548 
271.009 77.0859 221.621 263.674 79.2203 221.127 263.636 80.6798 221.245 
273.761 80.7601 221.812 266.272 81.9063 221.648 264.681 78.9009 221.63 
263.555 79.3832 221.077 266.637 78.3834 221.896 263.728 80.1909 221.409 
264.037 80.3346 221.69 273.934 79.929 222.504 266.546 81.2479 222.115 
270.23 80.5074 222.543 271.099 80.5498 222.501 264.438 81.3463 221.706 
279.732 76.0773 222.208 274.081 77.0685 222.61 279.471 76.455 222.376 
279.501 76.2249 222.336 265.641 78.8095 221.916 269.093 78.2756 222.482 
[...]
POINT_DATA 910
SCALARS scalars float
LOOKUP_TABLE default
1 1 1 1 1 1 1 1 1 
1 1 1 1 1 1 1 1 1 
1 1 1 1 1 1 1 1 1 
1 1 1 1 1 1 1 1 1 
1 1 1 1 1 1 1 1 1 
1 1 1 1 1 1 1 1 1 
1 1 1 1 1 1 1 1 1 
1 1 1 1 1 1 1 1 1 
1 1 1 1 1 1 1 1 1 
1 1 1 1 1 1 1 1 1 
1 1 1 1 1 1 1 1 1 
1 1 1 1 1 1 1 1 1 
1 1 1 1 1 1 1 1 1 
1 1 1 1 1 1 1 1 1 
1 1 1 1 1 1 1 1 1 
1 1 1 1 1 1 1 1 1 
1 1 1 1 1 1 1 1 1 
1 1 1 1 1 1 1 1 1 
1 1 1 1 1 1 1 1 1 
1 1 1 1 1 1 1 1 1 
1 1 1 1 1 1 1 1 1 
1 1 1 1 1 1 1 1 1 
1 1 1 1 1 1 1 1 1 
1 1 1 1 1 1 1 1 1 
1 1 1 1 1 1 1 1 1 
1 1 1 1 1 1 1 1 1 
1 1 1 1 1 1 1 1 1 
1 1 1 1 1 1 1 1 1 
1 1 1 1 1 1 1 1 1 
1 1 1 1 1 1 1 1 1 
1 1 1 1 1 1 1 1 1 
1 1 1 1 1 1 1 1 1 
1 1 1 1 1 1 1 1 1 
1 1 1 1 1 1 1 1 1 
1 1 1 1 1 1 1 1 1 
1 1 1 1 1 1 1 1 1 
1 1 1 1 1 1 1 1 1 
1 1 1 1 1 1 1 1 1 
1 1 1 1 1 1 1 1 1 
1 1 1 1 1 1 1 1 1 
1 1 1 1 1 1 1 1 1 
1 1 1 1 1 1 1 1 1 
1 1 1 1 1 1 1 1 1 
1 1 1 1 1 1 1 1 1 
1 1 1 1 1 1 1 1 1 
1 1 1 1 1 1 1 1 1 
1 1 1 1 1 1 1 1 1 
1 1 1 1 1 1 1 1 1 
1 1 1 1 1 1 1 1 1 
1 1 1 1 1 1 1 1 1 
1 1 1 1 1 1 1 1 1 
1 1 1 1 1 1 1 1 1 
1 1 1 1 1 1 1 1 1 
1 1 1 1 1 1 1 1 1 
1 1 1 1 1 1 1 1 1 
1 1 1 1 1 1 1 1 1 
1 1 1 1 1 1 1 1 1 
1 1 1 1 1 1 1 1 1 
1 1 1 1 1 1 1 1 1 
1 1 1 1 1 1 1 1 1 
1 1 1 1 1 1 1 1 1 
1 1 1 1 1 1 1 1 1 
1 1 1 1 1 1 1 1 1 
1 1 1 1 1 1 1 1 1 
1 1 1 1 1 1 1 1 1 
1 1 1 1 1 1 1 1 1 
1 1 1 1 1 1 1 1 1 
1 1 1 1 1 1 1 1 1 
1 1 1 1 1 1 1 1 1 
1 1 1 1 1 1 1 1 1 
1 1 1 1 1 1 1 1 1 
1 1 1 1 1 1 1 1 1 
1 1 1 1 1 1 1 1 1 
1 1 1 1 1 1 1 1 1 
1 1 1 1 1 1 1 1 1 
1 1 1 1 1 1 1 1 1 
1 1 1 1 1 1 1 1 1 
1 1 1 1 1 1 1 1 1 
1 1 1 1 1 1 1 1 1 
1 1 1 1 1 1 1 1 1 
1 1 1 1 1 1 1 1 1 
1 1 1 1 1 1 1 1 1 
1 1 1 1 1 1 1 1 1 
1 1 1 1 1 1 1 1 1 
1 1 1 1 1 1 1 1 1 
1 1 1 1 1 1 1 1 1 
1 1 1 1 1 1 1 1 1 
1 1 1 1 1 1 1 1 1 
1 1 1 1 1 1 1 1 1 
1 1 1 1 1 1 1 1 1 
1 1 1 1 1 1 1 1 1 
1 1 1 1 1 1 1 1 1 
1 1 1 1 1 1 1 1 1 
1 1 1 1 1 1 1 1 1 
1 1 1 1 1 1 1 1 1 
1 1 1 1 1 1 1 1 1 
1 1 1 1 1 1 1 1 1 
1 1 1 1 1 1 1 1 1 
1 1 1 1 1 1 1 1 1 
1 1 1 1 1 1 1 1 1 
1 1 1 1 1 1 1 1 1 
1 
NORMALS Normals float
-0.319908 -0.00894945 -0.947406 -0.662431 0.253182 -0.705042 -0.119348 0.26137 -0.957832 
-0.467679 0.527209 -0.709455 -0.323337 0.307626 -0.894885 -0.036847 0.420181 -0.906692 
-0.0159303 0.127543 -0.991705 -0.635352 0.040764 -0.771146 -0.052922 -0.269002 -0.961685 
-0.660618 0.333856 -0.672402 -0.299359 0.282567 -0.91134 -0.125227 -0.253025 -0.959321 
-0.167105 -0.216475 -0.961881 0.00708027 0.0363072 -0.999316 0.0188816 -0.256106 -0.966464 
0.00274356 -0.260107 -0.965576 0.0388156 0.587989 -0.807937 -0.191844 -0.0543636 -0.979919 
-0.0933718 0.417239 -0.903988 0.254083 0.148798 -0.955668 0 -0.970142 -0.242536 
0 -1 0 -0.351123 -0.936329 0 0.351123 -0.936329 0 
-0.324006 0.616406 -0.71768 0.210512 0.596047 -0.774863 0.311921 0.45763 -0.832634 
0 1 0 -0.0755229 0.664976 -0.743036 -0.864841 -0.137414 -0.482874 
-0.404375 -0.381339 -0.831301 -0.878454 0.113565 -0.464135 -0.680812 0.185755 -0.708512 
0.0760832 -0.127927 -0.988861 0 -0.970143 -0.242536 0 -1 0 
-0.447214 -0.894427 0 0.447214 -0.894427 0 0 -0.970143 -0.242536 
0 -1 0 -0.447214 -0.894427 0 0.447214 -0.894427 0 
-0.749345 0.521137 -0.408532 0 1 0 0.164984 0.329209 -0.929732 
0 1 0 -0.59451 0.551653 -0.58501 0.23126 -0.0570695 -0.971217 
0.156332 0.300742 -0.940805 0 -0.970142 0.242536 -0.551444 0.734028 -0.396375 
0.284587 0.590223 -0.755412 0.0423871 0.795482 -0.604493 0.386555 0.808947 -0.442923 
0.176597 0.829342 -0.530099 -0.0524298 -0.422719 -0.904743 0.151225 0.095208 -0.983904 
0.383079 0.168033 -0.908303 0.0676286 -0.114477 -0.991121 0.052875 0.39543 -0.916973 
0.190383 0.319491 -0.928267 0.360283 0.362207 -0.859652 0.243138 0.231737 -0.941903 
0 -0.970143 0.242536 0.154213 -0.166833 -0.973851 0 -0.970143 0.242536 
0.147493 0.294821 -0.944101 0.319704 0.4943 -0.808367 0.273737 0.661657 -0.698054 
0.221627 0.492909 -0.841381 0.22978 0.491891 -0.839788 0.287873 0.855014 -0.431369 
0.162867 0.798246 -0.579894 0.24364 0.771107 -0.588246 -0.227997 0.760154 -0.608426 
0.13524 0.887596 -0.440322 -0.150498 0.84845 -0.507428 0.00945764 0.932886 -0.360049 
0.167134 0.950395 -0.262327 0.0304798 -0.0896759 -0.995504 -0.165137 -0.912265 -0.374837 
-0.62285 0.479895 -0.617867 0.699837 -0.510044 -0.500083 0.25798 0.870791 -0.418532 
-0.481622 -0.619384 -0.620003 -0.0445693 -0.624789 -0.77952 -0.048844 -0.687115 -0.724905 
-0.718957 -0.284127 -0.634329 -0.320475 -0.539984 -0.778276 -0.0572288 -0.640705 -0.765651 
0.0405181 -0.546823 -0.836267 -0.133632 -0.578924 -0.804356 -0.715551 -0.0144474 -0.698411 
0.218474 -0.0285435 -0.975425 -0.824035 0.102126 -0.557258 0.0508872 -0.338015 -0.939764 
0.355635 0.183862 -0.916362 0.423478 0.373045 -0.825532 0.72552 0.331869 -0.602897 
-0.0176204 -0.35811 -0.933513 0.0472084 -0.0387712 -0.998132 0.449431 0.508509 -0.734459 
0.464465 0.463909 -0.754361 0.105228 0.262402 -0.959204 -0.821362 0.501858 -0.271116 
0.399714 0.855142 -0.330092 0.547854 0.743832 -0.382845 0.387327 0.854801 -0.345388 
-0.372549 0.907521 -0.19394 -0.124281 0.903741 -0.409642 -0.247178 0.888975 -0.385521 
-0.128288 0.990982 -0.0386753 0.20438 0.949512 -0.238025 0.108213 0.971612 -0.210383 
0.361926 0.904229 -0.226671 0.295155 0.937039 -0.186658 -0.0702216 0.9974 -0.0161894 
0.144265 0.989448 0.0134055 0.148485 0.98817 0.038379 -0.0628587 -0.626645 -0.776765 
0.0576542 -0.350026 -0.934964 -0.205072 -0.744919 -0.634856 -0.17061 -0.643203 -0.746447 
0.139321 -0.132063 -0.981402 0.211904 -0.0600748 -0.975442 0.276461 -0.899964 0.337096 
-0.622095 -0.629394 0.465683 0.645431 0.503415 0.574449 -0.23227 0.865685 0.443442 
0.0270565 -0.408763 -0.912239 0.366735 0.929925 -0.0272797 0.589965 0.797849 0.124011 
0.227736 0.931811 0.282603 0.194893 0.96481 0.176517 0.286245 0.956876 0.0495136 
0.200573 0.942874 0.266006 0.265526 0.964094 0.00432773 0.285556 0.927992 0.239351 
0.201702 0.960925 0.189578 0.365481 0.923267 0.118331 0.0495672 0.99695 -0.0602857 
0.0581695 0.985145 0.161574 0.0212074 -0.632331 -0.774408 0.443275 -0.462346 -0.767948 
0.0340313 -0.503923 -0.863078 0.359061 -0.386474 -0.849537 -0.0589523 -0.830464 -0.553944 
0.362505 -0.199337 -0.910415 -0.044835 -0.668909 -0.741991 -0.0131482 -0.573447 -0.819137 
0.539272 0.21139 -0.815169 0.425525 0.0206256 -0.904712 -0.0172296 -0.0524742 0.998474 
-0.502772 -0.819466 -0.27513 -0.266949 -0.792749 -0.547985 -0.167163 -0.826204 -0.537999 
-0.734486 -0.529401 -0.424577 0.519832 0.150887 -0.840837 -0.976978 -0.00164248 -0.213331 
0.768444 0.541955 -0.340262 0.404414 0.836178 0.370479 0.144986 0.953907 0.262757 
0.27838 0.915095 0.291728 0.39036 0.897713 0.20428 0.34257 0.89968 0.270596 
0.0756955 -0.916019 -0.393928 -0.437428 0.543368 -0.716525 0.321489 0.617249 -0.718087 
0.434965 -0.58086 0.688046 -0.633565 0.77342 -0.0204143 0.537742 0.842993 -0.014058 
-0.0841098 0.922008 0.377925 -0.328783 0.931547 0.155313 -0.215025 0.952579 0.215308 
0.048601 0.946014 0.320462 0.677739 -0.165897 -0.716343 -0.315111 -0.75298 -0.57769 
0.750794 0.0918432 -0.65412 -0.309889 -0.867514 -0.389086 -0.130615 -0.911491 -0.390031 
0.412405 -0.0558406 -0.909288 0.669175 0.0135809 -0.742981 -0.0597653 -0.888414 -0.455136 
-0.0975512 -0.457161 -0.884018 0.534685 0.222591 -0.815209 0.576925 -0.0297274 -0.816256 
0.7633 0.20092 -0.614007 0.654639 0.602916 -0.456005 0.799113 0.594112 0.0919177 
-0.146993 -0.920264 -0.362639 0.17604 -0.210535 -0.961605 0.699754 0.632045 -0.332962 
0.665284 0.74342 0.0687235 0.221002 0.83312 0.50702 0.120779 0.921007 0.370349 
-0.338162 -0.649578 0.680951 -0.0688015 -0.871055 -0.486343 0.280978 -0.676104 -0.681127 
0.416904 -0.630521 -0.654701 0.477174 -0.805837 -0.350616 -0.123399 -0.842791 -0.523905 
0.705522 -0.531201 -0.46911 0.754394 -0.204455 -0.623769 0.930965 -0.160835 -0.327776 
0.782492 -0.136773 -0.607454 -0.0601168 -0.919079 -0.389461 -0.119647 -0.903566 -0.411403 
-0.143508 -0.916382 -0.373696 -0.218613 -0.883792 -0.413666 0.659492 -0.0443522 -0.750402 
0.981867 0.122194 -0.144933 0.919609 0.361894 0.152817 0.337411 0.81612 0.46915 
0.0736612 -0.884665 -0.460372 -0.493174 0.579504 -0.64881 0.378234 0.661142 -0.647944 
0.477794 -0.549632 0.685287 0.225179 0.798908 0.557711 -0.0790186 0.878927 0.470365 
-0.477343 0.857637 0.191319 -0.202412 -0.94454 -0.258599 -0.00126892 -0.931333 -0.364166 
0.243058 -0.923031 -0.298224 0.760888 -0.648838 -0.00757187 -0.259196 -0.891011 -0.372716 
0.997118 -0.0298904 -0.069736 -0.100814 -0.8663 -0.489245 0.729727 0.110583 -0.674737 
0.945093 0.269723 -0.184524 -0.271076 -0.952778 -0.136868 0.948823 0.0789248 -0.305786 
-0.8652 -0.486559 -0.121201 -0.168703 -0.975997 -0.137727 -0.386749 -0.624097 0.678917 
-0.741848 0.669316 0.0409563 -0.503041 0.853293 0.137263 0.212085 -0.977249 0.00216603 
-0.0843836 -0.993272 -0.0793064 -0.265281 -0.955134 -0.131699 -0.138529 -0.988618 0.05869 
0.976718 -0.161116 0.141647 -0.333843 -0.877518 -0.344253 -0.322417 -0.943918 -0.0711725 
-0.395689 -0.901993 -0.17274 -0.246491 -0.96061 -0.128335 -0.120979 -0.976017 -0.180984 
0.812235 0.539927 0.220803 -0.181617 -0.972652 -0.144788 0.470884 0.752224 0.460898 
-0.668358 0.730631 0.139552 -0.0329323 0.930417 0.365021 0.396529 -0.908168 0.134147 
-0.0670514 -0.97837 0.195695 0.858624 -0.429394 0.279975 0.964828 -0.0226516 0.261906 
0.980925 0.138609 0.136283 -0.2722 -0.953302 -0.130856 0.881054 0.446187 0.157036 
0.765179 0.52119 0.377971 0.604731 0.630359 0.486773 -0.922277 -0.383694 0.0467224 
-0.999053 -0.000461 -0.0435081 -0.914092 0.40459 0.0272431 0.401718 0.717399 0.569176 
-0.435177 0.870307 0.230623 0.570299 -0.751689 0.331244 0.103 -0.957276 0.270211 
0.435806 -0.69336 0.573868 -0.163212 -0.958125 0.235284 -0.0210927 -0.940992 0.337771 
0.032561 -0.882602 0.468992 0.720565 -0.493403 0.487176 0.855902 -0.302844 0.419186 
0.941355 -0.00804615 0.337321 0.764236 -0.1413 0.629268 -0.29483 -0.948718 0.114055 
0.831606 0.294998 0.47054 -0.296483 -0.955005 0.0078973 -0.556431 -0.827324 -0.0769322 
-0.716382 -0.697258 0.0250709 0.356644 0.603917 0.712804 -0.659824 0.717376 0.223617 
-0.372707 -0.905171 0.204342 0.598196 -0.256507 0.759188 -0.149855 -0.982246 0.112856 
-0.221985 -0.93816 0.265666 0.483292 0.391375 0.783106 0.525449 0.495633 0.691557 
-0.279455 -0.95997 0.0190219 -0.757101 -0.65219 0.0380235 0.0545294 -0.895526 0.441655 
0.295016 -0.721755 0.626127 0.311084 -0.678799 0.665176 0.507054 -0.145735 0.849504 
-0.326023 -0.716155 0.617115 0.355949 0.086604 0.930484 0.633077 -0.144832 0.760419 
-0.022443 -0.725943 0.687388 0.338097 0.293623 0.894134 0.587121 0.29434 0.754091 
-0.0346192 -0.810538 0.584662 0.329023 0.440132 0.835481 -0.596871 -0.783429 0.173158 
0.363503 0.687123 0.629068 -0.932804 0.345197 0.103514 -0.208689 -0.825673 0.524131 
0.358837 -0.586957 0.725753 0.245931 -0.221971 0.943529 -0.222081 -0.566258 0.793746 
-0.190643 -0.804677 0.562273 -0.477634 -0.523199 0.705782 -0.264898 -0.718523 0.643081 
0.102051 -0.00596488 0.994761 0.116234 -0.017034 0.993076 0.172597 -0.259827 0.950105 
-0.126978 -0.933757 0.334625 0.017753 -0.254453 0.966922 0.237439 0.230703 0.94361 
-0.166685 -0.975455 0.143889 0.256939 0.52553 0.811049 -0.898103 -0.38374 0.214837 
0.348716 0.604821 0.715953 -0.98142 -0.188192 0.0373889 -0.962897 0.17985 0.201204 
-0.892034 0.409646 0.190958 -0.841416 0.520073 0.146777 -0.0608745 0.790229 0.60978 
0.117719 0.943972 0.308316 -0.0412024 0.947781 0.316249 -0.24578 0.895485 0.371077 
-0.0554731 -0.631002 0.773795 -0.159606 -0.416213 0.895149 -0.0850134 -0.785457 0.61305 
-0.764197 -0.57994 0.282262 -0.0976208 -0.384987 0.917745 0.0480887 -0.895258 0.442946 
0.0312902 -0.879934 0.474064 -0.168068 -0.424273 0.889801 -0.618208 -0.381703 0.687111 
0.270655 -0.859863 0.432876 0.0220593 0.204066 0.978709 -0.0190455 0.0217748 0.999582 
-0.129014 -0.884736 0.447882 0.419712 -0.583702 0.695078 0.258118 -0.0872841 0.962162 
0.52786 -0.112617 0.841832 -0.212698 -0.943484 0.25416 0.330223 0.206251 0.921093 
0.418098 0.0527429 0.906869 -0.908361 0.291306 0.300035 -0.712006 0.652336 0.259818 
0.132823 0.839302 0.527191 -0.434039 -0.89177 0.127889 0.161586 -0.395663 0.904069 
0.18471 -0.529589 0.827899 0.0443676 -0.632632 0.773181 -0.0277102 -0.819403 0.572547 
0.398193 -0.353419 -0.846485 0.823667 0.391969 0.409797 -0.180471 -0.823823 0.537351 
0.232568 0.0941248 0.968015 0.268334 0.0730983 0.960549 0.217766 0.0684071 0.973601 
0.126254 0.0535985 0.990549 0.144525 -0.0374025 0.988794 -0.185635 -0.886561 0.423732 
-0.36334 -0.816828 0.44808 -0.207633 -0.909509 0.360113 0.318903 0.261293 0.911058 
-0.665854 -0.644842 0.375256 -0.666744 0.640769 0.380615 -0.354008 0.840442 0.410288 
0.0508759 -0.773208 0.632109 0.164822 -0.64945 0.742327 -0.0676709 -0.484177 0.872349 
0.116074 -0.488957 0.864551 -0.0501387 -0.701436 0.710967 -0.123099 -0.632818 0.764453 
-0.0292942 -0.709548 0.704048 0.299707 -0.192588 0.93439 0.203215 -0.142541 0.968703 
-0.10432 -0.875456 0.471905 0.255573 -0.276553 0.926391 0.23744 -0.541028 0.806791 
0.855535 0.51326 -0.0679978 -0.163328 -0.893463 0.418386 0.433965 0.126262 0.892038 
0.407542 0.30064 0.862279 0.855535 0.51326 -0.0679978 -0.30708 -0.725551 0.615855 
-0.195394 -0.85251 0.484818 -0.63208 -0.439899 0.637937 -0.766759 0.227172 0.600395 
0.192634 0.768545 0.610108 -0.118185 0.681216 0.72248 -0.470763 -0.47014 0.746559 
-0.842081 -0.228064 0.48876 -0.190522 -0.574531 0.796 -0.745824 -0.0285416 0.665531 
-0.604755 -0.0794767 0.792436 0.279332 0.524725 0.804138 -0.0491767 0.429113 0.901911 
-0.0315903 0.551134 0.833819 0.00522677 0.614974 0.78853 -0.399857 0.571473 0.716613 
0.287849 -0.417 0.862122 -0.169288 -0.749098 0.640463 0.313417 -0.0347903 0.948978 
0.210608 -0.312634 0.926231 -0.314657 -0.573311 0.756509 -0.230818 -0.652977 0.721349 
-0.117449 -0.695027 0.709326 0.270729 0.255579 0.928108 -0.401832 -0.248787 0.88127 
-0.272169 -0.142764 0.9516 -0.282264 -0.103691 0.953716 -0.177492 -0.334082 0.925681 
-0.276737 -0.102647 0.955448 -0.286635 0.0473266 0.95687 -0.0634032 -0.0284683 0.997582 
0.22172 0.286483 0.932077 -0.357474 0.0705146 0.931257 -0.198046 0.15359 0.968085 
-0.208655 0.31185 0.926937 -0.150162 0.115948 0.981839 -0.409505 0.205598 0.888839 
-0.188217 0.151708 0.97034 -0.00232087 -0.735463 0.677561 -0.132029 -0.464731 0.875553 
-0.0314513 -0.514326 0.857018 0.0629538 -0.206679 0.976381 0.0973321 -0.301335 0.948538 
-0.0165736 -0.301507 0.95332 0.0313177 0.0280159 0.999117 0.113387 0.0650561 0.991419 
0.120188 0.415889 0.901439 -0.039466 0.278217 0.959707 -0.199508 -0.457455 -0.866563 
0.291837 0.0817241 -0.95297 -0.129913 -0.867174 -0.480761 0.333109 -0.548693 -0.766795 
0.581792 0.0793195 -0.809461 -0.207987 -0.712842 -0.669775 0.49713 -0.523848 -0.691698 
-0.0829968 -0.19783 -0.976716 -0.123951 -0.106737 -0.986531 -0.056407 -0.175913 -0.982788 
-0.0455245 0.133027 -0.990066 0.0992677 0.234358 -0.967069 -0.0630907 0.0286825 -0.997595 
0.0871057 0.174666 -0.980767 0.127748 -0.517401 -0.846154 0.452283 0.0284519 -0.891421 
-0.271816 -0.794119 -0.54359 -0.472634 -0.60863 0.637328 0.447774 0.272675 -0.851555 
-0.237284 -0.631157 -0.738469 -0.239714 -0.542583 -0.805072 0.278077 0.382195 -0.881249 
-0.153164 -0.242978 -0.957863 -0.114497 -0.0401992 -0.99261 0.119663 0.507898 -0.853065 
-0.159462 0.25519 -0.953651 0.0378494 0.464754 -0.88463 -0.0878636 0.315205 -0.944947 
0.127115 0.694814 -0.707867 -0.168164 -0.557247 -0.81314 0.198905 -0.582333 -0.788241 
-0.0704669 -0.807083 -0.586218 0.282125 -0.455358 -0.844426 0.0755085 -0.444079 -0.8928 
0.293677 -0.312638 -0.903333 -0.0362178 -0.725414 -0.687359 0.194249 -0.0243232 -0.980651 
0.250127 -0.132451 -0.959111 -0.0346272 -0.814704 -0.578842 0.210215 0.148228 -0.966353 
0.191539 0.049589 -0.980232 -0.285973 -0.604241 -0.743716 -0.250707 -0.779436 -0.57413 
-0.264597 -0.752606 -0.60297 -0.233696 -0.775895 -0.585981 -0.443695 -0.594946 -0.670204 
-0.771432 -0.263049 -0.579395 -0.284067 -0.271634 -0.919522 -0.373507 -0.329312 -0.867206 
-0.470882 -0.0275738 -0.881765 -0.21324 -0.452093 -0.866107 -0.352627 -0.0282962 -0.935336 
-0.236232 -0.127142 -0.963343 -0.289501 0.209626 -0.933941 -0.470097 0.459323 -0.753679 
-0.583484 0.536913 -0.60932 -0.234517 0.566846 -0.789739 0.043611 0.519886 -0.853122 
-0.194208 -0.706208 -0.680848 -0.274986 -0.552341 -0.786957 -0.0452613 -0.664911 -0.74555 
0.277027 -0.306636 -0.910621 -0.078035 -0.325215 -0.942415 -0.10109 -0.662515 -0.742196 
0.119275 0.146101 -0.982053 -0.0356543 -0.480741 -0.876137 0.0178817 -0.708453 -0.705532 
-0.0732098 -0.473028 -0.878 -0.170881 -0.446738 -0.878194 0.176094 0.541032 -0.82236 
0.212094 0.060372 -0.975383 0.101621 -0.00030098 -0.994823 0.14337 -0.379766 -0.913905 
0.249713 0.240801 -0.937901 0.0796576 0.0604083 -0.99499 0.0684167 -0.0444712 -0.996665 
0.132449 0.102357 -0.985891 -0.215527 -0.609903 -0.762605 -0.248515 -0.891451 -0.378888 
-0.283103 -0.871423 -0.400593 -0.223159 -0.813795 -0.536599 -0.00210415 0.00940869 -0.999954 
-0.818047 -0.468091 -0.3342 -0.288533 -0.837118 -0.464739 -0.698109 0.0656682 -0.712974 
0.322758 0.648461 -0.689438 -0.73256 0.227388 -0.6416 -0.744467 0.484427 -0.459455 
-0.474019 0.750017 -0.461281 -0.347051 0.722254 -0.598251 -0.317146 -0.844408 -0.431734 
-0.104498 -0.835582 -0.539336 -0.295089 -0.695213 -0.65544 0.377315 -0.153017 -0.913356 
-0.0735568 -0.698048 -0.712263 -0.157761 -0.838536 -0.521507 0.295389 -0.0336619 -0.954784 
0.125816 -0.342938 -0.930894 -0.0326937 -0.848913 -0.527521 0.0547236 -0.237695 -0.969797 
0.227552 -0.128536 -0.965245 -0.0917351 -0.142549 -0.985527 0.124526 0.0533341 -0.990782 
0.0970884 0.202516 -0.974454 -0.278411 -0.923213 -0.264888 -0.162388 -0.942845 -0.290987 
0.237268 0.4335 -0.869357 0.0672542 0.261489 -0.96286 0.185496 0.495184 -0.848754 
-0.337216 -0.891464 -0.302618 0.145622 0.528336 -0.836454 0.0268286 0.500192 -0.865499 
-0.700582 -0.709545 -0.0757015 -0.904755 -0.0619177 -0.421409 0.144885 0.69688 -0.702401 
-0.0771062 0.664603 -0.743208 0.478092 -0.406197 -0.778737 0.181472 -0.866892 -0.464292 
0.240448 -0.411581 -0.879082 0.600108 -0.601317 -0.527531 0.151486 -0.690591 -0.707203 
0.529584 -0.140041 -0.836618 0.762752 -0.198464 -0.615484 -0.409428 -0.861099 -0.301458 
0.521276 0.0363249 -0.852615 0.520361 0.151323 -0.840432 0.664763 0.0855092 -0.742145 
0.529049 0.262605 -0.806936 -0.206426 -0.966428 -0.152987 -0.205631 -0.952209 -0.225864 
-0.912716 -0.360666 -0.192013 -0.950394 0.101718 -0.293948 -0.90383 0.364612 -0.223939 
-0.695075 0.635115 -0.336897 -0.587891 0.71306 -0.382008 -0.192402 0.810031 -0.553923 
0.0175958 -0.818312 -0.574505 -0.0636873 -0.935294 -0.348094 0.356949 -0.901422 -0.245001 
-0.216782 -0.876988 -0.428832 -0.0644421 -0.931675 -0.357532 0.697118 0.210325 -0.685413 
-0.120081 -0.933338 -0.338322 -0.135036 -0.939917 -0.313564 0.723909 0.104657 -0.681911 
-0.206035 -0.947448 -0.244729 0.428725 0.414337 -0.80282 0.65134 0.549099 -0.523685 
-0.22995 -0.968742 -0.0930686 0.20666 0.436551 -0.875623 0.362053 0.683564 -0.633765 
0.201439 0.591415 -0.780801 -0.78102 0.580928 -0.229195 0.665917 -0.712304 -0.22176 
-0.0410245 -0.945959 -0.321681 0.835294 -0.388033 -0.389504 0.871588 -0.44638 -0.20268 
-0.285982 -0.941689 -0.1773 0.886117 0.03545 -0.462104 -0.208042 -0.972283 -0.106701 
0.836978 0.233117 -0.4951 -0.166757 -0.98117 -0.0974605 0.880805 0.256541 -0.397956 
0.744211 0.484973 -0.459295 -0.949169 -0.313747 -0.0253235 -0.583037 0.682152 -0.44129 
-0.435762 0.76548 -0.473446 0.138247 -0.990254 -0.016902 0.585682 -0.808833 -0.0525883 
0.963024 -0.20302 -0.177107 -0.393049 -0.918222 0.0488021 0.964873 -0.262434 -0.012203 
-0.177774 -0.983903 0.0181943 0.983323 0.110055 -0.144787 0.836636 0.461014 -0.295814 
-0.224025 -0.974582 0.00136745 -0.326303 -0.94379 -0.0527784 -0.207438 -0.977067 0.0480558 