# vtk DataFile Version 4.2
vtk output
ASCII
DATASET POLYDATA
POINTS 1243 float
424.371 195.599 73.829 425.408 199.383 73.9868 426.244 191.403 74.187 
425.42 191.785 74.0218 423.192 192.056 74.2294 428.21 193.661 73.8945 
422.774 194.909 74.3488 431.067 196.653 74.209 428.838 197.832 73.664 
421.036 188.068 75.5828 427.696 187.998 76.0563 424.255 204.354 76.0802 
432.265 204.851 75.7616 424.045 185.511 76.4911 434.579 203.87 76.1473 
426.065 207.812 77.4349 417.314 186.235 77.7797 433.194 189.463 78.3166 
417.737 191.891 77.1874 424.743 207.433 77.8547 428.858 207.684 76.7535 
427.753 209.071 77.8154 416.091 188.991 78.4063 437.718 193.835 78.9022 
417.862 195.553 77.8396 439.226 198.091 78.731 418.033 180.25 79.6571 
416.953 182.03 79.28 439.394 203.975 78.9351 421.895 178.711 80.6185 
434.157 211.806 79.7308 427.366 212.384 80.9889 432.352 213.065 80.3919 
424.684 179.558 81.0338 413.231 189.576 81.2685 441.883 198.878 81.5664 
441.618 203.238 80.9784 433.342 214.462 81.8058 418.806 175.864 82.5624 
439.089 211.826 81.9393 432.155 215.033 82.4313 428.36 180.46 83.3316 
412.362 182.758 82.7091 412.966 192.972 82.2122 440.54 193.633 82.6404 
442.342 197.234 82.8472 421.015 208.409 83.1024 422.988 209.773 82.3772 
429.315 215.517 84.4715 430.529 215.941 84.2619 434.143 215.851 83.4512 
418.709 172.972 84.8397 414.782 174.48 84.3948 416.277 203.695 83.7622 
444.243 205.549 84.7941 427.792 214.36 83.8712 432.199 216.776 85.2747 
415.663 172.076 85.6575 420.731 172.686 85.8799 410.835 194.719 84.8911 
420.623 209.124 84.5555 426.82 214.151 85.5303 427.912 214.93 85.3757 
433.398 216.843 84.9675 415.062 170.574 86.9288 412.715 173.545 85.976 
415.603 205.443 85.5271 441.245 214.782 85.8647 435.144 217.48 86.4251 
437.787 217.091 86.1928 415.816 168.857 88.475 409.507 196.001 86.4795 
443.584 212.559 86.8216 426.487 214.076 87.5941 427.094 214.493 87.1396 
426.613 214.205 87.3733 440.235 216.231 86.5515 438.948 216.865 86.4573 
434.821 217.735 87.6929 411.819 169.976 88.3367 408.382 196.881 87.7105 
412.4 206.351 88.6462 445.433 209.643 88.2626 422.322 211.51 87.7791 
424.334 212.649 88.1732 432.387 217.231 87.8489 434.04 217.635 88.399 
439.143 217.401 87.726 415.268 166.969 90.5799 412.443 167.472 90.0132 
446.157 201.609 89.0016 444.945 212.217 88.9978 443.644 213.907 88.1633 
433.858 217.524 88.9615 435.23 217.833 88.9577 437.618 217.925 88.7152 
416.925 167.495 90.6463 419.657 169.369 89.9971 421.467 170.693 89.8042 
427.234 194.481 93.1989 427.822 194.729 93.135 427.597 194.979 93.133 
408.169 204.807 90.7556 417.088 209.49 89.328 419.254 210.431 89.8366 
442.986 215.51 89.2395 432.636 217.136 89.0886 426.049 193.256 93.7903 
426.605 193.453 93.6264 426.248 193.926 93.6613 427.058 193.957 93.3989 
431.141 197.526 93.424 407.48 205.42 92.1654 410.714 207.55 91.839 
446.403 209.573 91.1119 417.061 209.869 90.8823 445.581 212.09 90.911 
430.655 215.471 90.4822 433.372 217.014 90.1272 442.818 216.38 91.064 
437.346 218.005 89.8877 437.288 217.969 90.245 438.426 217.901 90.3322 
419.176 168.383 91.6966 407.397 169.989 91.805 405.103 178.853 91.8959 
423.788 191.805 94.9672 423.591 191.454 95.0929 429.595 195.233 93.4222 
427.177 195.227 93.4504 430.036 197.667 93.3956 418.281 210.1 91.5854 
418.821 210.293 91.6374 422.405 211.196 91.2491 424.025 211.836 91.1077 
424.415 211.811 91.3202 444.664 214.512 92.0537 436.922 217.723 90.7402 
437.452 217.867 90.5908 441.614 216.947 91.53 413.172 165.373 92.9229 
407.74 166.789 93.8045 418.074 167.281 93.1436 422.368 190.42 96.0489 
423.296 190.508 95.6221 422.623 190.703 95.771 422.666 190.88 95.7417 
425.489 191.321 95.0389 422.847 191.124 95.6454 425.83 192.036 94.4577 
423.861 192.091 95.018 433.549 197.592 94.1039 434.948 198.888 94.3977 
407.529 205.883 92.9561 409.668 207.411 93.3331 409.96 207.627 93.4049 
410.052 207.695 93.3045 411.617 208.175 93.2225 419.543 210.026 92.4236 
446.407 210.403 93.6097 436.119 215.988 92.6359 444.322 215.061 92.7687 
437.589 216.729 92.4399 443.822 215.795 92.3828 442.816 216.338 92.3383 
441.317 216.934 92.0233 409.851 164.867 95.2518 408.171 166.104 94.2618 
404.125 173.213 94.6141 422.607 189.875 96.2938 423.25 190.143 95.9768 
423.761 190.321 95.7954 422.434 190.668 95.9553 423.04 191.629 95.7966 
429.052 193.47 94.3426 428.981 198.503 94.2012 429.585 200.249 94.4986 
434.887 201.809 94.45 430.095 207.803 94.5153 410.683 207.814 93.8259 
424.723 209.947 93.3804 426.492 210.084 93.439 421.201 209.518 93.4736 
424.352 210.383 92.9682 423.19 210.794 92.2767 444.821 214.018 93.1376 
442.76 215.905 93.3851 443.874 215.62 92.9033 443.654 215.78 92.962 
440.195 216.961 92.3625 441.661 216.662 92.5342 442.253 216.475 92.6054 
421.548 189.476 97.0631 421.542 189.044 97.2414 433.949 195.891 95.1084 
401.301 196.447 95.0887 402.78 202.328 96.2877 428.249 203.604 95.2821 
427.256 205.789 95.1782 406.872 205.834 94.9665 412.646 208.193 94.1893 
416.53 208.559 94.3414 418.64 208.068 95.0291 446.567 209.137 94.9407 
445.897 210.779 94.9626 443.697 214.669 94.0014 444.144 214.804 93.4976 
441.27 215.287 94.2081 443.523 215.7 93.2032 405.845 167.229 96.0229 
420.739 187.751 98.3661 420.851 188.302 97.9617 420.407 188.229 98.2303 
425.914 190.134 96.6812 427.203 197.699 95.3233 426.742 201.683 96.165 
427.399 204.911 95.3431 405.831 205.126 95.8844 406.168 205.452 95.7271 
406.151 205.419 95.9091 406.227 205.511 95.8153 409.782 206.978 95.4475 
411.727 207.642 95.0947 411.826 207.493 95.3896 446.569 208.437 95.4948 
438.116 210.699 95.3091 445.408 211.797 94.7612 446.016 210.343 95.3327 
440.917 213.072 95.1634 409.744 163.927 97.7375 409.895 164.08 97.2222 
419.286 168.003 96.3985 420.182 186.638 99.4982 421.094 187.231 98.8765 
419.912 187.605 99.0178 419.791 187.15 99.3454 419.973 188.091 98.8619 
420.42 188.673 98.2031 420.922 189.587 97.9577 447.626 193.754 97.2735 
447.728 196.911 96.5302 447.732 198.004 96.3872 447.356 203.954 96.2301 
423.28 204.834 96.696 446.745 206.724 96.1517 407.497 205.777 96.6261 
411.599 206.906 96.1626 443.765 211.202 95.7731 444.81 211.434 95.3616 
446.039 210.155 95.4066 445.453 212.292 94.4381 410.264 163.901 97.7583 
411.161 163.869 98.2454 419.183 168.187 98.0133 427.253 172.565 98.1973 
443.915 184.765 97.506 419.626 186.127 100.167 420.137 186.421 99.6426 
420.068 186.285 99.8233 419.198 186.831 100.055 420.148 186.35 99.704 
398.879 188.748 98.1729 434.553 192.793 97.8892 436.03 193.121 98.3437 
399.055 194.44 98.1009 447.876 194.539 98.1652 447.84 195.346 98.5632 
399.727 197.664 98.0451 447.596 199.073 97.0905 400.297 199.813 98.4793 
401.147 201.338 98.4394 447.284 203.167 96.8087 419.935 204.363 97.9341 
446.918 204.887 96.7938 446.165 207.48 96.5452 445.915 207.276 96.8061 
446.128 206.924 96.8199 445.548 207.382 96.8911 409.699 163.665 99.0588 
409.613 163.614 99.6792 410.912 163.65 99.1898 407.581 164.594 99.061 
403.471 169.185 99.1088 401.021 174.354 99.3823 398.944 181.774 99.1469 
443.308 183.229 98.3072 418.525 185.248 101.333 418.99 186.882 100.337 
419.482 188.072 99.7959 447.139 190.28 97.8811 421.314 191.001 99.2072 
447.878 192.725 99.0166 424.171 195.126 97.9774 447.887 194.377 99.1081 
400.071 199.849 99.7687 444.301 200.895 98.5164 401.093 201.454 99.1098 
401.892 201.945 99.5969 402.238 202.198 99.1968 445.509 202.631 98.3924 
401.54 201.782 98.9786 409.064 204.801 98.4526 412.986 205.415 97.9221 
445.27 204.825 97.8101 446.305 205.529 97.2754 445.766 205.402 97.593 
445.957 205.881 97.332 408.763 163.871 100.482 409.236 163.693 100.476 
403.322 169.267 100.109 401.057 173.624 100.61 400.617 174.871 100.126 
433.178 175.101 99.4694 418.404 183.896 102.201 398.224 183.374 100.251 
418.445 184.669 101.68 397.952 184.582 100.797 398.32 195.557 100.646 
446.955 199.485 98.3007 445.479 199.631 99.0041 400.112 199.944 100.325 
446.139 200.882 98.62 446.062 201.653 98.543 401.378 201.461 99.8466 
401.832 201.908 99.8442 401.76 201.784 99.9488 445.852 202.728 98.3882 
446.82 203.204 97.7021 401.834 201.885 99.9336 446.552 203.783 97.7755 
446.227 203.771 98.0181 408.365 164.114 100.758 410.028 163.614 100.541 
410.942 163.703 100.063 407.277 164.869 100.321 411.951 164.236 100.536 
419.322 168.905 100.15 421.443 170.122 101.114 398.969 178.361 101.257 
397.972 183.145 101.38 417.27 184.654 102.479 446.259 185.192 100.089 
417.345 185.118 102.42 420.082 189.481 100.168 421.754 193.068 100.054 
442.394 193.647 100.862 443.239 193.196 101.425 422.189 194.443 99.863 
447.43 195.079 100.13 445.465 196.905 99.9379 447.307 195.637 100.081 
445.861 198.986 99.1067 447.226 196.173 99.9437 419.368 199.132 100.652 
446.602 201.169 98.3156 446.302 202.285 98.37 446.12 203.346 98.199 
403.529 169.202 101.315 401.4 173.05 101.813 399.818 176.267 101.742 
438.367 177.179 100.649 398.736 178.868 102.468 420.271 184.26 102.083 
417.65 186.408 102.419 436.203 188.957 102.179 447.886 191.042 100.935 
447.818 190.471 101.538 397.725 192.614 102.305 419.398 194.241 102.065 
419.924 195.544 101.458 421.201 194.831 100.717 447.28 194.397 100.649 
446.933 195.272 100.559 447.136 195.581 100.296 401.075 200.771 101.013 
402.135 201.251 101.144 410.027 163.856 101.442 408.245 164.648 102.002 
411.727 164.48 101.531 408.211 165.266 102.577 406.041 166.502 101.869 
406.061 166.734 102.229 417.854 171.261 104.419 419.89 170.653 103.369 
401.022 173.926 102.272 399.56 177.062 102.55 399.285 177.75 102.744 
398.289 180.583 102.731 398.12 182.252 103.135 397.996 182.658 102.547 
416.284 182.659 103.766 397.903 183.678 102.663 416.961 185.777 103.195 
419.557 189.754 101.518 445.108 192.035 102.49 446.13 194.473 101.179 
446.611 194.871 100.878 408.62 164.505 102.136 409.372 164.317 102.209 
410.83 164.205 101.808 408.9 164.708 102.479 408.671 165.044 102.644 
409.268 164.811 102.657 409.464 165.062 102.82 408.167 165.815 102.921 
[...]
POINT_DATA 1243
SCALARS scalars float
LOOKUP_TABLE default
1 1 1 1 1 1 1 1 1 
1 1 1 1 1 1 1 1 1 
1 1 1 1 1 1 1 1 1 
1 1 1 1 1 1 1 1 1 
1 1 1 1 1 1 1 1 1 
1 1 1 1 1 1 1 1 1 
1 1 1 1 1 1 1 1 1 
1 1 1 1 1 1 1 1 1 
1 1 1 1 1 1 1 1 1 
1 1 1 1 1 1 1 1 1 
1 1 1 1 1 1 1 1 1 
1 1 1 1 1 1 1 1 1 
1 1 1 1 1 1 1 1 1 
1 1 1 1 1 1 1 1 1 
1 1 1 1 1 1 1 1 1 
1 1 1 1 1 1 1 1 1 
1 1 1 1 1 1 1 1 1 
1 1 1 1 1 1 1 1 1 
1 1 1 1 1 1 1 1 1 
1 1 1 1 1 1 1 1 1 
1 1 1 1 1 1 1 1 1 
1 1 1 1 1 1 1 1 1 
1 1 1 1 1 1 1 1 1 
1 1 1 1 1 1 1 1 1 
1 1 1 1 1 1 1 1 1 
1 1 1 1 1 1 1 1 1 
1 1 1 1 1 1 1 1 1 
1 1 1 1 1 1 1 1 1 
1 1 1 1 1 1 1 1 1 
1 1 1 1 1 1 1 1 1 
1 1 1 1 1 1 1 1 1 
1 1 1 1 1 1 1 1 1 
1 1 1 1 1 1 1 1 1 
1 1 1 1 1 1 1 1 1 
1 1 1 1 1 1 1 1 1 
1 1 1 1 1 1 1 1 1 
1 1 1 1 1 1 1 1 1 
1 1 1 1 1 1 1 1 1 
1 1 1 1 1 1 1 1 1 
1 1 1 1 1 1 1 1 1 
1 1 1 1 1 1 1 1 1 
1 1 1 1 1 1 1 1 1 
1 1 1 1 1 1 1 1 1 
1 1 1 1 1 1 1 1 1 
1 1 1 1 1 1 1 1 1 
1 1 1 1 1 1 1 1 1 
1 1 1 1 1 1 1 1 1 
1 1 1 1 1 1 1 1 1 
1 1 1 1 1 1 1 1 1 
1 1 1 1 1 1 1 1 1 
1 1 1 1 1 1 1 1 1 
1 1 1 1 1 1 1 1 1 
1 1 1 1 1 1 1 1 1 
1 1 1 1 1 1 1 1 1 
1 1 1 1 1 1 1 1 1 
1 1 1 1 1 1 1 1 1 
1 1 1 1 1 1 1 1 1 
1 1 1 1 1 1 1 1 1 
1 1 1 1 1 1 1 1 1 
1 1 1 1 1 1 1 1 1 
1 1 1 1 1 1 1 1 1 
1 1 1 1 1 1 1 1 1 
1 1 1 1 1 1 1 1 1 
1 1 1 1 1 1 1 1 1 
1 1 1 1 1 1 1 1 1 
1 1 1 1 1 1 1 1 1 
1 1 1 1 1 1 1 1 1 
1 1 1 1 1 1 1 1 1 
1 1 1 1 1 1 1 1 1 
1 1 1 1 1 1 1 1 1 
1 1 1 1 1 1 1 1 1 
1 1 1 1 1 1 1 1 1 
1 1 1 1 1 1 1 1 1 
1 1 1 1 1 1 1 1 1 
1 1 1 1 1 1 1 1 1 
1 1 1 1 1 1 1 1 1 
1 1 1 1 1 1 1 1 1 
1 1 1 1 1 1 1 1 1 
1 1 1 1 1 1 1 1 1 
1 1 1 1 1 1 1 1 1 
1 1 1 1 1 1 1 1 1 
1 1 1 1 1 1 1 1 1 
1 1 1 1 1 1 1 1 1 
1 1 1 1 1 1 1 1 1 
1 1 1 1 1 1 1 1 1 
1 1 1 1 1 1 1 1 1 
1 1 1 1 1 1 1 1 1 
1 1 1 1 1 1 1 1 1 
1 1 1 1 1 1 1 1 1 
1 1 1 1 1 1 1 1 1 
1 1 1 1 1 1 1 1 1 
1 1 1 1 1 1 1 1 1 
1 1 1 1 1 1 1 1 1 
1 1 1 1 1 1 1 1 1 
1 1 1 1 1 1 1 1 1 
1 1 1 1 1 1 1 1 1 
1 1 1 1 1 1 1 1 1 
1 1 1 1 1 1 1 1 1 
1 1 1 1 1 1 1 1 1 
1 1 1 1 1 1 1 1 1 
1 1 1 1 1 1 1 1 1 
1 1 1 1 1 1 1 1 1 
1 1 1 1 1 1 1 1 1 
1 1 1 1 1 1 1 1 1 
1 1 1 1 1 1 1 1 1 
1 1 1 1 1 1 1 1 1 
1 1 1 1 1 1 1 1 1 
1 1 1 1 1 1 1 1 1 
1 1 1 1 1 1 1 1 1 
1 1 1 1 1 1 1 1 1 
1 1 1 1 1 1 1 1 1 
1 1 1 1 1 1 1 1 1 
1 1 1 1 1 1 1 1 1 
1 1 1 1 1 1 1 1 1 
1 1 1 1 1 1 1 1 1 
1 1 1 1 1 1 1 1 1 
1 1 1 1 1 1 1 1 1 
1 1 1 1 1 1 1 1 1 
1 1 1 1 1 1 1 1 1 
1 1 1 1 1 1 1 1 1 
1 1 1 1 1 1 1 1 1 
1 1 1 1 1 1 1 1 1 
1 1 1 1 1 1 1 1 1 
1 1 1 1 1 1 1 1 1 
1 1 1 1 1 1 1 1 1 
1 1 1 1 1 1 1 1 1 
1 1 1 1 1 1 1 1 1 
1 1 1 1 1 1 1 1 1 
1 1 1 1 1 1 1 1 1 
1 1 1 1 1 1 1 1 1 
1 1 1 1 1 1 1 1 1 
1 1 1 1 1 1 1 1 1 
1 1 1 1 1 1 1 1 1 
1 1 1 1 1 1 1 1 1 
1 1 1 1 1 1 1 1 1 
1 1 1 1 1 1 1 1 1 
1 1 1 1 1 1 1 1 1 
1 1 1 1 1 1 1 1 1 
1 
NORMALS Normals float
-0.151893 -0.000903099 -0.988396 -0.30791 0.220373 -0.925541 0.126588 -0.400832 -0.907364 
-0.0854639 -0.208323 -0.974319 -0.266621 -0.20575 -0.941584 0.151131 -0.165863 -0.974499 
-0.366907 0.0624432 -0.92816 0.406628 -0.0967263 -0.908459 0.205342 0.111107 -0.972363 
-0.246047 -0.247905 -0.937019 0.254761 -0.452599 -0.854547 -0.447541 0.385563 -0.806875 
0.230935 0.487694 -0.841917 0.184118 -0.524037 -0.831556 0.40679 0.201267 -0.891074 
-0.300295 0.366848 -0.880481 -0.460789 -0.214673 -0.861155 0.455818 -0.455592 -0.764635 
-0.591829 0.0875526 -0.801295 -0.465358 0.503721 -0.727809 -0.0607458 0.409048 -0.910489 
-0.0251084 0.704336 -0.709423 -0.631957 -0.0688374 -0.77194 0.604107 -0.43242 -0.669378 
-0.658926 0.263761 -0.704448 0.580085 -0.0866337 -0.809936 -0.269117 -0.467702 -0.841921 
-0.544474 -0.297174 -0.78437 0.528185 0.282712 -0.800684 0.151126 -0.60752 -0.779795 
0.183201 0.547252 -0.816672 -0.249094 0.660749 -0.70807 -0.0271765 0.591555 -0.805806 
0.374677 -0.635862 -0.674757 -0.770687 0.0539079 -0.63493 0.799242 -0.168051 -0.577037 
0.802838 0.0518301 -0.59394 0.0677077 0.676658 -0.733178 0.0801008 -0.646408 -0.758776 
0.536245 0.444311 -0.717655 -0.135852 0.758001 -0.637949 0.581206 -0.668847 -0.463511 
-0.702044 -0.195308 -0.684828 -0.770738 0.0711334 -0.633169 0.759179 -0.426699 -0.491503 
0.874504 -0.199448 -0.442113 -0.54294 0.680749 -0.491729 -0.588902 0.694038 -0.414132 
-0.416855 0.885926 -0.203387 -0.278959 0.841941 -0.461862 0.081855 0.787613 -0.610709 
-0.0475635 -0.648693 -0.759562 -0.330451 -0.457583 -0.825482 -0.64553 0.433215 -0.62898 
0.812482 0.142236 -0.565369 -0.506897 0.787976 -0.349497 -0.210354 0.914268 -0.346216 
-0.113505 -0.641996 -0.758259 0.292365 -0.716366 -0.633516 -0.713609 0.126793 -0.688974 
-0.483541 0.736636 -0.472817 -0.60622 0.782095 -0.144311 -0.551079 0.824079 -0.131169 
-0.0927034 0.908251 -0.408026 -0.118269 -0.616808 -0.778177 -0.538913 -0.332007 -0.774173 
-0.533201 0.598824 -0.597584 0.609797 0.564296 -0.556523 0.0772052 0.947089 -0.311547 
0.251041 0.791288 -0.557532 0.184141 -0.721973 -0.666968 -0.71355 0.112516 -0.69151 
0.708094 0.448428 -0.54545 -0.537052 0.831422 0.142522 -0.468987 0.882346 0.038936 
-0.597522 0.801095 0.0348427 0.494773 0.667016 -0.557036 0.241932 0.851979 -0.464328 
-0.143536 0.98296 -0.114838 -0.342656 -0.546398 -0.764222 -0.664538 0.255363 -0.702267 
-0.457905 0.639413 -0.617636 0.904238 0.236584 -0.355502 -0.43786 0.884574 -0.160648 
-0.474937 0.879904 0.0142599 -0.395302 0.918132 0.0277474 -0.252827 0.966616 -0.0416187 
0.29945 0.903861 -0.305558 0.135701 -0.817088 -0.560314 -0.24761 -0.696362 -0.673624 
0.932072 -0.11281 -0.344261 0.852301 0.366923 -0.372761 0.768275 0.473722 -0.430512 
-0.185385 0.964904 0.18599 -0.0781126 0.996924 -0.00640461 0.140906 0.979994 -0.140563 
0.391117 -0.812612 -0.432076 0.556231 -0.749655 -0.358642 0.523858 -0.757893 -0.388808 
0.28015 0.0473358 0.958789 -0.128497 0.257426 0.957716 0.301586 -0.290206 0.9082 
-0.569282 0.596702 -0.565565 -0.368506 0.8723 -0.321396 -0.284743 0.957662 -0.0424793 
0.652049 0.654065 -0.383447 -0.385015 0.916087 0.112019 0.210575 0.424688 0.88051 
0.0428794 0.466074 0.883706 0.515412 -0.0797331 0.853225 0.00887331 0.393633 0.919225 
-0.0822496 -0.0470117 0.995502 -0.585787 0.659623 -0.470904 -0.42361 0.829637 -0.363671 
0.974123 0.189734 -0.122827 -0.262441 0.964936 -0.00488067 0.888538 0.409709 -0.206492 
-0.437267 0.827908 0.351234 -0.30426 0.725975 0.616754 0.616371 0.760945 -0.202607 
0.181442 0.981707 0.0577044 -0.0473657 0.974862 0.217716 0.162079 0.981909 0.0979046 
0.584512 -0.74957 -0.310628 -0.563253 -0.406856 -0.719176 -0.766673 -0.0795186 -0.637094 
0.652294 -0.169362 0.738803 0.568152 -0.0141689 0.822802 -0.255708 0.278842 0.925668 
0.507427 -0.386096 0.770355 -0.0057505 -0.246924 0.969018 -0.299942 0.952233 0.0573299 
-0.150677 0.939057 0.30898 -0.205211 0.905942 0.370349 -0.311914 0.906868 0.283373 
-0.193007 0.758399 0.622559 0.845017 0.520905 -0.120844 -0.190574 0.864508 0.465089 
0.0486028 0.960783 0.273008 0.292521 0.951996 0.0901958 0.0620895 -0.915194 -0.398203 
-0.647992 -0.408894 -0.642583 0.381066 -0.924536 0.00477218 0.0711405 0.666245 0.742332 
0.184799 0.5068 0.842023 0.408586 0.356974 0.840016 0.669693 -0.143862 0.728571 
0.00893691 0.635033 0.772433 0.688546 -0.277456 0.670016 -0.0733399 0.613627 0.786182 
0.733827 -0.382918 0.561134 -0.347613 0.298486 0.888859 -0.421457 0.24971 0.871791 
-0.568675 0.789065 -0.232349 -0.593145 0.804961 -0.0147262 -0.534121 0.77389 0.340306 
-0.442797 0.895965 -0.0343177 -0.24179 0.964914 0.102363 -0.118797 0.905199 0.408046 
0.959115 0.280193 -0.0398819 -0.346065 0.559018 0.753484 0.792269 0.538473 0.286979 
-0.181209 0.617762 0.765201 0.654784 0.755061 0.0337648 0.382321 0.903732 0.192611 
0.0921973 0.917281 0.38742 -0.257116 -0.900656 -0.350301 -0.374083 -0.738754 -0.560629 
-0.805466 -0.288478 -0.517692 0.0916969 0.696471 0.711702 0.100885 0.710427 0.696502 
-0.085722 0.774987 0.626136 0.868402 -0.307949 0.388647 0.821222 -0.479356 0.309536 
-0.2853 0.632277 0.720299 0.355842 -0.392832 0.847974 0.287436 -0.161187 0.944139 
-0.271397 0.0434798 0.961485 0.104921 0.0630757 0.992478 -0.355052 0.862286 0.36111 
-0.0778856 0.718678 0.690968 -0.0497138 0.555553 0.829993 -0.0453891 0.740695 0.670306 
-0.0495987 0.786837 0.615165 -0.105063 0.806063 0.582429 0.86201 0.442206 0.247776 
0.266888 0.777573 0.569343 0.731641 0.618443 0.286758 0.469231 0.810794 0.349908 
0.0441623 0.892723 0.448436 0.179909 0.9049 0.385732 0.212309 0.868167 0.448565 
0.563886 0.27494 0.778743 0.285598 0.539116 0.792331 -0.438432 0.489653 0.753669 
-0.780502 0.12317 -0.612899 -0.74318 0.465289 -0.480822 0.132348 -0.0214301 0.990972 
0.217516 0.272977 0.937107 -0.42164 0.906705 0.0102824 -0.0464323 0.910456 0.41099 
-0.121634 0.864309 0.488032 -0.078322 0.751822 0.654698 0.922158 0.272476 0.274558 
0.837301 0.394208 0.37885 0.402212 0.501232 0.766154 0.687217 0.501414 0.525658 
0.0237812 0.672921 0.739332 0.53612 0.616731 0.576384 -0.628956 -0.707662 -0.321916 
0.279106 0.569139 0.773422 0.177303 0.559474 0.809662 0.62251 0.267925 0.735322 
-0.261234 0.747155 0.61116 0.625134 -0.354565 0.695336 0.574486 -0.0550355 0.816662 
0.309076 0.156965 0.937995 -0.661608 0.747367 0.0609714 -0.692033 0.718196 -0.0726981 
-0.62412 0.706636 0.333375 -0.557243 0.828215 0.0595012 -0.31036 0.878433 0.363363 
-0.264746 0.874045 0.407376 -0.0256023 0.828949 0.558738 0.968895 0.158914 0.189708 
-0.204658 0.290961 0.934589 0.373177 0.565 0.735876 0.687438 0.419767 0.592641 
-0.0731571 0.369037 0.926531 -0.239882 -0.946961 -0.213826 -0.149695 -0.914377 -0.376174 
0.620211 -0.784434 -0.000996671 0.303034 0.560669 0.770597 -0.0318968 0.672705 0.739223 
0.728275 0.266938 0.631158 0.665399 0.301213 0.683019 0.876303 -0.144389 0.459613 
0.783125 -0.0732981 0.617529 0.840774 -0.367039 0.397972 0.957539 -0.0990109 -0.270769 
0.999569 0.0160336 -0.0245771 0.997132 0.00554052 -0.0754727 0.0121097 -0.0256284 -0.999598 
0.199445 0.428256 0.881373 0.95195 0.225721 0.206982 -0.362376 0.828216 0.427483 
-0.141221 0.802601 0.579559 0.168705 0.447708 0.878121 0.367122 0.547048 0.752303 
0.891205 0.282906 0.354567 0.672287 0.481421 0.562373 0.0405591 -0.969846 -0.240321 
0.205992 -0.960218 -0.188542 0.198559 -0.953474 0.226853 0.441172 -0.886191 -0.141541 
0.648965 -0.553337 -0.522171 0.440364 0.546967 0.711974 0.404368 0.53183 0.744072 
0.492596 0.579834 0.648954 0.735489 0.297459 0.608748 -0.00661522 0.714437 0.699668 
-0.879901 -0.0252897 -0.474483 -0.440064 0.602725 0.665632 -0.292895 0.610013 0.736272 
-0.875411 0.0748118 -0.477555 0.982284 0.0250072 -0.185722 0.984301 0.166945 0.057284 
-0.911022 0.273088 -0.308969 0.935201 -0.0194497 0.353581 -0.896208 0.323925 -0.303122 
-0.683149 0.692853 -0.230786 0.909354 0.153996 0.386472 0.139412 0.529193 0.83697 
0.817775 0.32515 0.474891 0.529658 0.390922 0.752757 0.386928 0.377718 0.841199 
0.569864 0.288455 0.769447 0.205758 0.357544 0.910948 -0.19132 -0.972582 -0.132217 
-0.365262 -0.910434 -0.194147 0.249481 -0.967037 -0.0509729 -0.529228 -0.825026 -0.198118 
-0.80898 -0.518407 -0.27714 -0.818775 -0.42056 -0.390815 -0.880794 -0.180238 -0.437853 
0.574519 -0.534299 -0.620042 0.648459 0.173914 0.741118 0.854091 -0.0513494 0.517583 
0.893427 -0.340676 0.292794 0.870574 -0.312359 -0.380176 0.828108 -0.407653 0.384782 
0.958357 -0.183944 -0.218439 0.769197 -0.36217 0.526468 0.992312 0.0396679 0.117228 
-0.89393 0.445942 -0.0449979 -0.317623 0.14478 0.937099 -0.748584 0.662512 0.026453 
-0.541327 0.836571 0.0843424 -0.46211 0.878545 0.120886 -0.0921391 0.225963 0.969769 
-0.555095 0.831117 -0.0333819 -0.0758597 0.750238 0.656802 -0.0335918 0.675591 0.736511 
-0.0978751 0.291259 0.951624 0.645268 0.438338 0.625691 0.259218 0.374777 0.89014 
0.394344 0.472739 0.788042 -0.507235 -0.852765 -0.124518 -0.208982 -0.967432 0.142833 
-0.869136 -0.484788 0.0978975 -0.761889 -0.618777 -0.191416 -0.923562 -0.235463 -0.30264 
0.431468 -0.743641 -0.510718 -0.0547605 0.660713 0.748639 -0.947735 -0.00198811 -0.319052 
0.289313 0.503745 0.813965 -0.936401 -0.0100335 -0.350787 -0.950331 0.253416 -0.180695 
0.73774 0.170662 0.653158 0.0712458 0.139637 0.987636 -0.78496 0.617806 0.0463983 
0.309204 0.115914 0.943905 0.242168 0.13344 0.961014 -0.600943 0.754716 0.263195 
-0.568128 0.816702 0.101134 -0.764181 0.607318 0.217236 0.0566691 0.167826 0.984187 
0.775477 0.18443 0.603839 -0.406958 0.862562 0.30062 0.691866 0.259425 0.67381 
0.230609 0.320185 0.918859 -0.525725 -0.846986 0.0789139 0.144082 -0.974486 0.172094 
0.251602 -0.967539 0.0237518 -0.668729 -0.74208 0.0460356 0.457877 -0.850494 0.258861 
0.315049 -0.874756 0.368167 0.18769 -0.960477 0.205562 -0.944336 -0.296974 -0.141551 
-0.973468 -0.171281 -0.151735 0.669252 0.150318 0.727672 0.762491 -0.383954 -0.520757 
0.748699 -0.187187 0.635933 0.85989 -0.410085 0.304004 0.741493 -0.17275 0.64834 
-0.30281 0.434501 0.848243 -0.355079 0.318697 0.878835 0.706002 -0.0291604 0.70761 
0.864512 0.218666 0.452552 -0.0141485 0.430695 0.902386 0.782024 0.185429 0.595024 
0.133621 0.222413 0.965753 0.671622 0.363504 0.645591 0.375461 0.326261 0.867515 
0.650922 0.113157 0.750664 0.396836 0.153053 0.905039 0.226711 0.289683 0.929885 
-0.764033 -0.613851 0.198598 -0.745386 -0.665796 0.0334116 -0.930856 -0.296802 0.213108 
0.324235 -0.709004 -0.626247 -0.925146 -0.337644 0.173498 0.0211856 0.756475 0.653679 
0.8127 -0.126122 0.568869 -0.147634 0.687951 0.710583 0.989841 0.00403189 0.142119 
0.955796 0.112346 0.271722 -0.99598 0.0785572 -0.0430473 0.604538 0.0969603 0.790653 
0.525354 0.0993691 0.845062 0.597755 0.0684387 0.798752 0.76695 0.25462 0.589031 
0.446836 0.387366 0.806403 0.656964 0.243063 0.713665 -0.620151 0.740736 0.258308 
-0.372813 0.736387 0.564575 -0.0489732 -0.930889 0.362006 -0.5969 -0.641028 0.482486 
0.467532 -0.776231 0.422941 -0.536359 -0.418825 0.732738 -0.628813 -0.667159 0.399366 
-0.554063 -0.605745 0.571041 0.00767208 -0.638013 0.769988 0.0340905 -0.851755 0.522831 
-0.881082 -0.392996 0.263151 -0.961728 -0.27323 -0.0206144 -0.9122 -0.282429 0.296858 
-0.97014 -0.220896 0.100166 -0.9733 -0.195619 0.120083 -0.980935 -0.174218 0.0861061 
0.660887 -0.008022 0.750442 -0.998358 -0.0309271 0.0482208 0.792421 -0.204114 0.57481 
0.774176 -0.341942 0.532661 -0.0265656 0.434133 0.900457 0.00384457 0.505143 0.863027 
0.305346 0.446597 0.84102 -0.337196 -0.825544 0.452523 -0.0366521 -0.76208 0.646445 
0.281628 -0.799578 0.530434 -0.30681 -0.580722 0.754075 -0.313942 -0.499051 0.807706 
-0.106501 -0.566129 0.817408 -0.0154389 -0.46081 0.887365 -0.525314 -0.530687 0.665144 
0.483534 -0.685515 0.544302 -0.596325 -0.480393 0.643132 0.215335 -0.531579 0.819179 
0.0840811 -0.994415 -0.063796 -0.9559 -0.277318 0.0966919 0.254672 0.347246 0.902531 
0.522418 0.0170221 0.852519 0.817306 -0.260861 0.513773 0.991103 -0.0457143 -0.125 
0.703061 -0.171322 0.690185 -0.968356 -0.00207211 0.249566 0.653381 -0.123182 0.74694 
0.558353 0.392194 0.731044 -0.940706 0.184538 0.284637 -0.918889 0.294591 0.262409 
0.036977 0.58745 0.808415 -0.804104 0.544467 0.238691 -0.445997 -0.501615 0.741262 
-0.666993 -0.447735 0.595528 -0.145082 -0.898537 0.414224 -0.0688777 -0.583864 0.808925 
-0.21735 -0.664306 0.715162 0.275194 -0.759725 -0.58914 -0.833975 -0.280207 0.475363 
0.52539 -0.550096 -0.649122 -0.751885 -0.350004 0.558718 -0.847177 -0.207452 0.489136 
0.104772 0.0490319 0.993287 0.397714 0.0269874 0.917113 -0.892496 -0.0908747 0.441806 
0.728642 -0.217426 0.649467 0.758268 -0.14066 0.636587 0.538869 -0.310471 0.783088 
0.770901 -0.210527 0.601157 0.467423 0.391816 0.792462 0.17506 0.330879 0.927293 
-0.0462383 0.392739 0.918487 -0.740799 0.508999 0.438333 -0.251804 -0.478933 0.840963 
-0.49907 -0.46217 0.733027 -0.314958 -0.404869 0.858418 -0.0214995 -0.243193 0.96974 
-0.121535 -0.987739 0.0979861 0.124996 -0.979054 -0.160713 -0.109414 -0.364592 0.924717 
-0.2093 -0.282553 0.93614 -0.204536 -0.302042 0.931094 -0.032518 -0.239848 0.970266 
-0.621642 -0.22047 0.751634 -0.672312 -0.331452 0.661918 -0.313326 0.401371 0.860656 
0.997979 -0.0201722 -0.0602601 -0.165758 0.710788 0.683597 0.727255 -0.199956 0.656596 
0.718536 -0.107429 0.687143 0.699293 0.346293 0.625356 0.202721 0.47543 0.856079 
0.613035 0.0538444 0.788219 0.43349 0.407924 0.803545 -0.869207 0.102769 0.48365 
-0.656257 0.404502 0.63695 -0.382352 0.574888 0.723402 -0.189854 0.634001 0.749665 
-0.0776419 -0.380154 0.921659 -0.105018 -0.962662 0.249507 0.184954 -0.903303 -0.387087 
-0.162467 0.0425446 0.985796 -0.234711 -0.304121 0.923267 -0.406638 0.103023 0.907762 
-0.390565 0.243616 0.887756 -0.596934 -0.179825 0.781878 0.901919 -0.260086 -0.344814 
0.161421 -0.16713 0.972631 -0.064544 0.550741 0.832177 0.923564 0.211295 0.319975 
0.831786 0.345859 0.434182 0.595497 -0.215066 0.774034 0.225735 0.502684 0.834478 
0.303983 0.0631861 0.95058 -0.725529 -0.0105483 0.688111 0.194572 0.34673 0.917562 
-0.66657 0.169654 0.72588 -0.370163 0.36131 0.855824 -0.272479 -0.955788 0.110568 
-0.118462 -0.985473 0.121695 0.149057 -0.98448 -0.0926327 -0.437133 -0.383652 0.813466 
0.446835 -0.53196 -0.719275 0.563981 -0.460091 -0.685741 0.778858 -0.318094 -0.540552 
-0.304951 0.112991 0.945641 0.982054 -0.139673 -0.126735 -0.462141 -0.283716 0.840197 
-0.349046 0.445765 0.824294 -0.065891 -0.0626414 0.995859 0.0841134 0.403904 0.910926 
-0.553406 0.0530161 0.831223 -0.540751 0.109264 0.834056 -0.260104 0.114527 0.958765 
0.0267069 0.26806 0.963032 -0.219268 0.324968 0.919955 -0.369277 -0.829133 0.419729 
-0.249752 -0.889803 0.381934 -0.00260593 -0.971207 0.238223 -0.491247 -0.717394 0.493986 
0.00905316 -0.974693 0.223365 0.138783 -0.984553 -0.106744 -0.462622 -0.24038 0.853346 
0.756245 -0.468044 -0.457196 -0.398131 -0.138663 0.906788 0.854601 -0.359603 -0.374623 
0.987739 -0.155785 -0.0101106 0.267172 0.282487 0.921314 0.973982 0.0461323 0.221882 
0.983103 0.0484363 0.17653 -0.106315 0.573409 0.812342 0.394219 -0.142394 0.907918 
-0.32951 -0.00616173 0.944132 -0.347759 -0.775176 0.527415 -0.414071 -0.73027 0.543369 
0.0109689 -0.962479 0.271136 0.0676941 -0.945835 0.317512 0.182766 -0.978774 0.0927214 
0.10934 -0.993927 -0.012422 0.158713 -0.987263 0.0110784 0.116346 -0.993157 -0.0101779 
-0.432337 -0.35241 0.829995 0.0770918 -0.978297 0.192331 0.069432 -0.997586 -0.00101198 
0.217127 -0.963806 -0.154703 0.377289 -0.86279 -0.336522 0.237884 -0.9185 -0.315862 
0.457221 -0.681406 -0.571519 0.756741 -0.53556 -0.374859 -0.570076 -0.206785 0.795144 
0.822901 -0.377933 -0.424264 -0.587426 0.122145 0.800007 -0.385404 0.0790606 0.919355 
-0.387643 0.211351 0.897253 0.225666 0.131478 0.965292 -0.222441 0.321269 0.920492 
0.330455 0.284087 0.900052 0.321273 0.267646 0.908377 0.832815 0.113701 0.541748 
0.608842 0.322545 0.72476 -0.504311 -0.595522 0.625319 -0.246827 -0.668559 0.701502 
-0.481356 -0.464216 0.743506 0.0566696 -0.960719 0.271677 0.131478 -0.990727 0.0342441 
0.173601 -0.969429 -0.173406 0.192645 -0.948 0.253344 0.261076 -0.769595 0.58272 
-0.519405 -0.310245 0.79622 0.0227328 -0.944512 0.327691 0.230009 -0.648928 0.725251 
0.247568 -0.959203 -0.136529 0.274143 -0.936179 -0.220032 0.209669 -0.857996 0.468915 
0.913216 -0.312556 0.261429 0.56827 -0.816396 0.102795 0.60848 -0.154801 0.778324 
0.226059 -0.911598 0.343347 0.949307 -0.306883 -0.0681025 0.752788 0.0862178 0.652592 
-0.511398 -0.167287 0.842904 -0.352521 -0.101067 0.93033 0.190099 0.0924823 0.977399 
0.608858 0.123648 0.783584 0.436312 0.0485328 0.898486 -0.00501021 0.466652 0.884427 
-0.260115 -0.321454 0.910498 -0.167644 -0.49555 0.852247 -0.0427563 -0.783784 0.61956 
-0.0312684 -0.863511 0.503359 0.229311 -0.898346 0.374689 0.180483 -0.915151 0.360449 
0.196537 -0.878155 0.43614 -0.0244141 -0.607632 0.793843 0.159688 -0.708891 0.687003 
0.226204 -0.737963 0.6358 0.36937 -0.359623 0.856876 -0.0669407 -0.392272 0.91741 
0.156147 -0.579975 0.799529 0.18334 -0.469021 0.863947 0.0189006 -0.466723 0.884202 