# vtk DataFile Version 4.2
vtk output
ASCII
DATASET POLYDATA
POINTS 2068 float
275.907 143.318 198.075 275.669 143.294 198.18 276.606 143.173 197.966 
275.702 143.424 198.175 275.907 143.591 198.156 276.098 143.503 198.016 
277.225 143.398 197.737 277.215 143.637 197.745 278.747 143.957 197.528 
279.317 143.682 197.521 281.199 144.197 197.365 280.944 144.049 197.407 
276.345 143.734 198.082 276.882 143.793 197.9 278.772 144.224 197.582 
279.094 144.41 197.629 279.819 144.247 197.447 281.956 144.708 197.393 
281.792 144.712 197.414 281.935 144.791 197.407 282.114 144.805 197.438 
275.472 143.26 198.359 269 144.005 196.516 269 144.005 196.517 
269 144.006 196.517 269.001 144.006 196.516 269 144.005 196.516 
269.001 144.006 196.516 275.44 143.423 198.393 275.274 143.304 198.532 
275.249 143.409 198.659 275.656 143.55 198.297 280.485 144.204 197.41 
281.211 143.725 197.57 282.012 144.517 197.458 269 144.006 196.516 
269 144.006 196.516 275.496 143.565 198.542 277.477 144.208 198.07 
278.012 144.287 197.907 281.188 144.603 197.468 282.794 145.072 197.585 
279.207 144.652 197.876 281.869 145.558 197.995 288.777 146.776 197.677 
289.43 147.961 197.667 286.941 147.258 197.543 289.393 148.933 197.779 
275.259 143.17 198.62 277.57 142.644 198.348 268.999 144.005 196.517 
269 144.005 196.517 268.999 144.005 196.517 269 144.005 196.516 
269.001 144.005 196.516 269 144.006 196.516 269 144.006 196.517 
269 144.006 196.517 277.669 144.529 198.694 282.628 146.344 198.576 
292.483 148.508 198.596 287.445 148.479 197.909 287.699 148.808 198.029 
288.234 149.132 198.049 288.387 149.598 198.269 292.788 149.864 198.314 
289.447 150.255 198.279 291.96 150.998 198.178 295.046 153.697 198.441 
295.513 153.675 198.586 293.952 154.398 198.483 295.67 154.343 198.583 
296.786 155.923 198.68 297.5 162.953 199.022 298.537 162.943 198.688 
300.159 166.098 198.485 301.711 165.965 198.558 302.971 166.126 198.904 
302.811 165.668 198.969 303.165 165.913 199.096 299.775 167.333 198.608 
300.11 166.999 198.516 302.416 166.751 198.619 300.336 168.155 198.559 
300.875 168.019 198.485 300.163 168.41 198.659 301.137 169.637 198.66 
300.989 170.388 198.894 301.986 171.3 198.807 304.74 170.715 198.996 
303.157 173.279 198.992 305.526 173.043 199.178 304.05 173.728 198.964 
305.459 173.904 199.131 306.029 175.852 199.255 306.381 175.986 199.273 
306.061 176.479 199.365 306.696 176.229 199.402 306.397 176.79 199.426 
283.205 142.401 198.861 274.882 142.958 199.475 268.999 144.006 196.517 
269 144.005 196.517 274.926 143.286 199.451 275.111 143.465 199.205 
276.891 144.367 199.439 280.584 145.483 198.614 282.444 146.492 198.91 
282.682 146.553 198.795 282.553 146.531 198.832 288.321 149.959 198.577 
287.844 150.223 199.232 289.83 151.868 199.116 296.133 152.313 199.396 
296.488 155.328 198.754 298.133 155.331 199.838 297.743 157.846 198.92 
299.101 157.84 199.471 299.748 158.462 199.605 300.088 159.005 199.736 
298.953 161.891 198.772 299.796 161.793 198.914 301.92 162.702 199.617 
298.897 166.835 198.967 299.862 167.904 198.676 299.452 168.592 199.192 
305.011 169.549 199.36 300.402 170.459 199.378 302.951 173.445 199.155 
303.853 174.416 199.219 304.756 176.249 199.674 307.53 176.234 199.881 
306.695 178.725 200.071 307.739 178.598 200.007 307.145 179.111 200.071 
307.689 179.338 200.1 308.787 178.783 200.471 309.29 180.34 200.564 
307.954 180.667 200.441 308.854 180.797 200.414 309.998 182.084 200.875 
286.775 142.389 199.964 274.845 143.114 199.487 274.731 143.028 199.96 
275.616 142.193 199.662 274.914 143.359 200.011 275.182 143.575 199.753 
280.962 145.892 199.652 294.399 148.7 199.891 290.818 153.763 199.853 
298.038 154.547 200.283 299.115 156.287 200.372 293.304 157.275 200.024 
302.266 163.042 199.737 302.629 163.314 200.01 297.278 164.973 199.732 
303.053 164.706 199.545 304.302 166.379 200.092 298.733 167.585 199.352 
298.509 167.655 199.65 305.133 168.302 200.004 305.684 169.752 200.011 
301.687 172.889 199.845 303.968 175.402 199.665 303.834 176.051 200.276 
305.516 178.187 200.509 309.144 179.206 200.634 309.476 183.711 201.318 
310.198 184.612 201.555 311.059 184.211 201.827 288.768 142.991 200.434 
274.412 142.683 200.735 277.283 144.527 200.648 292.151 145.535 200.43 
293.964 147.53 200.681 283.537 147.323 200.24 299.814 156.879 201.162 
300.518 158.176 201.116 300.384 158.655 200.279 294.15 160.141 201.159 
301.975 161.357 200.87 302.046 161.936 200.322 304.343 166.042 200.512 
304.922 167.347 200.378 305.592 168.564 200.741 305.846 169.418 200.503 
300.939 172.491 200.566 309.476 178.815 201.142 308.127 182.529 201.401 
310.773 183.024 201.547 311.298 184.831 202.02 311.331 186.179 202.327 
311.651 186.572 202.613 273.253 141.976 202.322 270.898 142.107 203.907 
270.966 142.062 203.866 270.752 142.061 203.991 273.943 142.234 201.544 
270.836 142.143 204.006 274.062 142.748 201.658 296.028 150.144 201.274 
287.724 150.983 201.098 298.218 154.153 201.194 299.957 156.935 201.509 
297.488 167.342 201.275 307.022 171.501 201.309 304.946 178.337 201.435 
304.686 178.202 201.939 309.763 178.195 201.981 311.565 184.902 202.243 
310.89 186.542 202.496 310.823 187.448 203.165 311.861 188.026 203.192 
311.769 188.296 203.307 311.728 188.611 203.509 283.431 140.175 201.986 
287.644 141.731 201.797 271.178 141.92 203.799 272.438 142.002 203.065 
271.841 141.507 203.542 269.697 141.949 204.515 270.303 141.949 204.23 
271.743 142.222 203.745 272.889 142.447 203.084 270.434 142.119 204.276 
270.812 142.193 204.161 274.157 142.988 202.479 275.766 143.739 202.119 
279.907 145.257 202.188 295.407 148.95 202.05 295.8 149.483 201.77 
287.203 150.54 202.071 288.517 152.015 201.988 289.712 153.422 201.705 
300.672 158.072 201.869 301.884 160.827 201.874 304.101 164.804 202.112 
309.998 178.68 202.11 312.005 184.331 203.05 312.494 187.412 203.38 
310.714 187.729 203.525 313.09 187.851 203.906 311.481 188.877 203.975 
311.87 189.069 203.845 313.383 189.774 204.251 312.615 189.961 204.259 
313.42 190.474 204.467 313.654 191.152 204.835 313.84 190.876 204.706 
314.109 191.237 204.995 268.71 141.845 205.002 268.437 141.966 205.096 
268.791 142.002 204.999 271.146 142.242 204.194 278.49 144.576 202.643 
301.208 159.463 202.736 303.847 164.29 202.641 296.583 166.158 202.546 
305.35 167.1 202.812 306.845 170.306 203.108 299.435 171.059 203.335 
310.049 178.209 202.727 305.693 179.903 203.121 310.416 187.853 204.313 
310.826 188.331 204.212 314.046 189.135 204.818 313.283 191.041 204.897 
313.535 191.195 204.933 314.539 191.045 205.123 314.486 191.329 205.203 
314.345 191.569 205.319 314.298 191.765 205.549 314.613 191.626 205.45 
314.794 191.739 205.669 285.366 139.692 203.963 267.726 141.987 205.397 
267.164 142.166 205.465 267.564 142.116 205.419 268.116 142.042 205.267 
273.158 142.594 204.059 290.241 143.122 203.412 266.869 142.259 205.455 
266.787 142.284 205.46 266.903 142.257 205.486 267.218 142.193 205.531 
268.5 142.088 205.366 266.806 142.285 205.452 283.731 146.729 203.871 
287.42 150.55 203.447 296.903 151.946 203.473 290.606 154.685 203.856 
299.043 155.658 203.553 301.406 160.358 203.952 294.469 161.919 203.146 
303.787 164.329 203.558 297.02 167.056 203.868 299.522 171.029 204.035 
313.584 187.808 204.525 313.831 187.894 204.939 310.78 188.443 204.657 
311.766 189.585 204.672 314.703 190.986 205.256 314.12 191.805 205.672 
314.799 192.042 206.095 314.921 191.9 205.975 287.04 140.374 204.523 
287.803 140.972 204.433 267.207 141.824 206.118 266.81 142.262 205.525 
266.814 142.2 205.71 270.747 142.193 205.185 273.99 142.577 204.868 
266.795 142.285 205.466 266.89 142.248 205.619 278.694 144.002 204.242 
293.364 146.348 204.015 284.685 147.335 204.183 295.277 149.096 203.61 
290.037 153.75 204.243 292.27 157.257 204.677 294.622 162.111 204.252 
304.441 177.697 204.443 310.092 177.794 204.373 307.57 183.055 204.546 
312.594 183.861 205.099 315.146 191.151 205.926 313.334 191.622 206.356 
314.527 192.254 206.59 285.111 138.822 205.763 287.923 141.034 205.405 
266.952 142.042 206.048 267.088 141.701 206.75 266.662 142.261 205.776 
266.829 142.189 205.91 267.271 141.987 206.272 267.208 141.685 207.067 
278.268 142.887 205.92 266.668 142.295 205.684 266.808 142.264 205.727 
294.152 147.89 204.778 286.695 148.864 204.938 289.594 152.727 204.832 
302.037 162.11 204.819 296.389 165.002 204.98 297.008 166.433 204.97 
306.745 170.445 205.028 300.122 171.369 204.943 309.737 177.14 205.43 
313.826 186.83 205.8 309.88 187.227 205.539 314.979 192.469 207.127 
315.25 192.324 206.961 282.088 137.684 206.578 285.74 139.001 206.099 
286.342 139.409 206.718 288.324 141.805 206.364 267.014 141.367 207.37 
266.555 142.324 205.728 266.545 142.329 205.711 266.632 142.289 205.774 
266.823 141.421 207.786 270.015 141.776 206.773 281.898 143.245 206.725 
266.554 142.334 205.692 295.753 151.697 205.433 295.883 152.328 205.64 
290.233 152.922 205.548 292.605 156.577 205.905 298.567 156.652 205.311 
293.214 158.018 205.724 299.565 159.079 205.607 294.216 160.405 205.423 
294.303 159.851 205.881 294.403 161.125 205.111 294.862 161.905 205.219 
295.177 161.909 205.722 301.894 162.649 205.374 296.961 165.1 205.842 
297.258 165.271 206.05 303.948 165.835 205.251 297.605 166.922 205.493 
298.418 168.883 204.993 306.202 170.02 205.6 306.568 170.286 205.363 
306.601 170.435 205.504 300.269 170.972 205.53 306.794 170.895 205.511 
306.705 170.567 205.485 307.28 171.814 205.537 307.287 171.58 205.429 
301.977 173.165 205.578 303.144 175.12 205.355 309.926 177.79 205.82 
311.159 180.604 206.155 311.763 181.773 206.123 308.417 183.902 206.164 
313.533 185.864 206.702 310.223 187.465 206.543 310.889 188.583 206.542 
315.204 189.535 206.611 315.486 190.783 206.626 315.747 191.553 207.11 
314.787 192.747 208.006 315.143 192.749 207.848 283.046 137.476 208.209 
287.168 140.56 207.072 267.296 140.767 208.157 287.919 141.577 206.775 
[...]
POINT_DATA 2068
SCALARS scalars float
LOOKUP_TABLE default
1 1 1 1 1 1 1 1 1 
1 1 1 1 1 1 1 1 1 
1 1 1 1 1 1 1 1 1 
1 1 1 1 1 1 1 1 1 
1 1 1 1 1 1 1 1 1 
1 1 1 1 1 1 1 1 1 
1 1 1 1 1 1 1 1 1 
1 1 1 1 1 1 1 1 1 
1 1 1 1 1 1 1 1 1 
1 1 1 1 1 1 1 1 1 
1 1 1 1 1 1 1 1 1 
1 1 1 1 1 1 1 1 1 
1 1 1 1 1 1 1 1 1 
1 1 1 1 1 1 1 1 1 
1 1 1 1 1 1 1 1 1 
1 1 1 1 1 1 1 1 1 
1 1 1 1 1 1 1 1 1 
1 1 1 1 1 1 1 1 1 
1 1 1 1 1 1 1 1 1 
1 1 1 1 1 1 1 1 1 
1 1 1 1 1 1 1 1 1 
1 1 1 1 1 1 1 1 1 
1 1 1 1 1 1 1 1 1 
1 1 1 1 1 1 1 1 1 
1 1 1 1 1 1 1 1 1 
1 1 1 1 1 1 1 1 1 
1 1 1 1 1 1 1 1 1 
1 1 1 1 1 1 1 1 1 
1 1 1 1 1 1 1 1 1 
1 1 1 1 1 1 1 1 1 
1 1 1 1 1 1 1 1 1 
1 1 1 1 1 1 1 1 1 
1 1 1 1 1 1 1 1 1 
1 1 1 1 1 1 1 1 1 
1 1 1 1 1 1 1 1 1 
1 1 1 1 1 1 1 1 1 
1 1 1 1 1 1 1 1 1 
1 1 1 1 1 1 1 1 1 
1 1 1 1 1 1 1 1 1 
1 1 1 1 1 1 1 1 1 
1 1 1 1 1 1 1 1 1 
1 1 1 1 1 1 1 1 1 
1 1 1 1 1 1 1 1 1 
1 1 1 1 1 1 1 1 1 
1 1 1 1 1 1 1 1 1 
1 1 1 1 1 1 1 1 1 
1 1 1 1 1 1 1 1 1 
1 1 1 1 1 1 1 1 1 
1 1 1 1 1 1 1 1 1 
1 1 1 1 1 1 1 1 1 
1 1 1 1 1 1 1 1 1 
1 1 1 1 1 1 1 1 1 
1 1 1 1 1 1 1 1 1 
1 1 1 1 1 1 1 1 1 
1 1 1 1 1 1 1 1 1 
1 1 1 1 1 1 1 1 1 
1 1 1 1 1 1 1 1 1 
1 1 1 1 1 1 1 1 1 
1 1 1 1 1 1 1 1 1 
1 1 1 1 1 1 1 1 1 
1 1 1 1 1 1 1 1 1 
1 1 1 1 1 1 1 1 1 
1 1 1 1 1 1 1 1 1 
1 1 1 1 1 1 1 1 1 
1 1 1 1 1 1 1 1 1 
1 1 1 1 1 1 1 1 1 
1 1 1 1 1 1 1 1 1 
1 1 1 1 1 1 1 1 1 
1 1 1 1 1 1 1 1 1 
1 1 1 1 1 1 1 1 1 
1 1 1 1 1 1 1 1 1 
1 1 1 1 1 1 1 1 1 
1 1 1 1 1 1 1 1 1 
1 1 1 1 1 1 1 1 1 
1 1 1 1 1 1 1 1 1 
1 1 1 1 1 1 1 1 1 
1 1 1 1 1 1 1 1 1 
1 1 1 1 1 1 1 1 1 
1 1 1 1 1 1 1 1 1 
1 1 1 1 1 1 1 1 1 
1 1 1 1 1 1 1 1 1 
1 1 1 1 1 1 1 1 1 
1 1 1 1 1 1 1 1 1 
1 1 1 1 1 1 1 1 1 
1 1 1 1 1 1 1 1 1 
1 1 1 1 1 1 1 1 1 
1 1 1 1 1 1 1 1 1 
1 1 1 1 1 1 1 1 1 
1 1 1 1 1 1 1 1 1 
1 1 1 1 1 1 1 1 1 
1 1 1 1 1 1 1 1 1 
1 1 1 1 1 1 1 1 1 
1 1 1 1 1 1 1 1 1 
1 1 1 1 1 1 1 1 1 
1 1 1 1 1 1 1 1 1 
1 1 1 1 1 1 1 1 1 
1 1 1 1 1 1 1 1 1 
1 1 1 1 1 1 1 1 1 
1 1 1 1 1 1 1 1 1 
1 1 1 1 1 1 1 1 1 
1 1 1 1 1 1 1 1 1 
1 1 1 1 1 1 1 1 1 
1 1 1 1 1 1 1 1 1 
1 1 1 1 1 1 1 1 1 
1 1 1 1 1 1 1 1 1 
1 1 1 1 1 1 1 1 1 
1 1 1 1 1 1 1 1 1 
1 1 1 1 1 1 1 1 1 
1 1 1 1 1 1 1 1 1 
1 1 1 1 1 1 1 1 1 
1 1 1 1 1 1 1 1 1 
1 1 1 1 1 1 1 1 1 
1 1 1 1 1 1 1 1 1 
1 1 1 1 1 1 1 1 1 
1 1 1 1 1 1 1 1 1 
1 1 1 1 1 1 1 1 1 
1 1 1 1 1 1 1 1 1 
1 1 1 1 1 1 1 1 1 
1 1 1 1 1 1 1 1 1 
1 1 1 1 1 1 1 1 1 
1 1 1 1 1 1 1 1 1 
1 1 1 1 1 1 1 1 1 
1 1 1 1 1 1 1 1 1 
1 1 1 1 1 1 1 1 1 
1 1 1 1 1 1 1 1 1 
1 1 1 1 1 1 1 1 1 
1 1 1 1 1 1 1 1 1 
1 1 1 1 1 1 1 1 1 
1 1 1 1 1 1 1 1 1 
1 1 1 1 1 1 1 1 1 
1 1 1 1 1 1 1 1 1 
1 1 1 1 1 1 1 1 1 
1 1 1 1 1 1 1 1 1 
1 1 1 1 1 1 1 1 1 
1 1 1 1 1 1 1 1 1 
1 1 1 1 1 1 1 1 1 
1 1 1 1 1 1 1 1 1 
1 1 1 1 1 1 1 1 1 
1 1 1 1 1 1 1 1 1 
1 1 1 1 1 1 1 1 1 
1 1 1 1 1 1 1 1 1 
1 1 1 1 1 1 1 1 1 
1 1 1 1 1 1 1 1 1 
1 1 1 1 1 1 1 1 1 
1 1 1 1 1 1 1 1 1 
1 1 1 1 1 1 1 1 1 
1 1 1 1 1 1 1 1 1 
1 1 1 1 1 1 1 1 1 
1 1 1 1 1 1 1 1 1 
1 1 1 1 1 1 1 1 1 
1 1 1 1 1 1 1 1 1 
1 1 1 1 1 1 1 1 1 
1 1 1 1 1 1 1 1 1 
1 1 1 1 1 1 1 1 1 
1 1 1 1 1 1 1 1 1 
1 1 1 1 1 1 1 1 1 
1 1 1 1 1 1 1 1 1 
1 1 1 1 1 1 1 1 1 
1 1 1 1 1 1 1 1 1 
1 1 1 1 1 1 1 1 1 
1 1 1 1 1 1 1 1 1 
1 1 1 1 1 1 1 1 1 
1 1 1 1 1 1 1 1 1 
1 1 1 1 1 1 1 1 1 
1 1 1 1 1 1 1 1 1 
1 1 1 1 1 1 1 1 1 
1 1 1 1 1 1 1 1 1 
1 1 1 1 1 1 1 1 1 
1 1 1 1 1 1 1 1 1 
1 1 1 1 1 1 1 1 1 
1 1 1 1 1 1 1 1 1 
1 1 1 1 1 1 1 1 1 
1 1 1 1 1 1 1 1 1 
1 1 1 1 1 1 1 1 1 
1 1 1 1 1 1 1 1 1 
1 1 1 1 1 1 1 1 1 
1 1 1 1 1 1 1 1 1 
1 1 1 1 1 1 1 1 1 
1 1 1 1 1 1 1 1 1 
1 1 1 1 1 1 1 1 1 
1 1 1 1 1 1 1 1 1 
1 1 1 1 1 1 1 1 1 
1 1 1 1 1 1 1 1 1 
1 1 1 1 1 1 1 1 1 
1 1 1 1 1 1 1 1 1 
1 1 1 1 1 1 1 1 1 
1 1 1 1 1 1 1 1 1 
1 1 1 1 1 1 1 1 1 
1 1 1 1 1 1 1 1 1 
1 1 1 1 1 1 1 1 1 
1 1 1 1 1 1 1 1 1 
1 1 1 1 1 1 1 1 1 
1 1 1 1 1 1 1 1 1 
1 1 1 1 1 1 1 1 1 
1 1 1 1 1 1 1 1 1 
1 1 1 1 1 1 1 1 1 
1 1 1 1 1 1 1 1 1 
1 1 1 1 1 1 1 1 1 
1 1 1 1 1 1 1 1 1 
1 1 1 1 1 1 1 1 1 
1 1 1 1 1 1 1 1 1 
1 1 1 1 1 1 1 1 1 
1 1 1 1 1 1 1 1 1 
1 1 1 1 1 1 1 1 1 
1 1 1 1 1 1 1 1 1 
1 1 1 1 1 1 1 1 1 
1 1 1 1 1 1 1 1 1 
1 1 1 1 1 1 1 1 1 
1 1 1 1 1 1 1 1 1 
1 1 1 1 1 1 1 1 1 
1 1 1 1 1 1 1 1 1 
1 1 1 1 1 1 1 1 1 
1 1 1 1 1 1 1 1 1 
1 1 1 1 1 1 1 1 1 
1 1 1 1 1 1 1 1 1 
1 1 1 1 1 1 1 1 1 
1 1 1 1 1 1 1 1 1 
1 1 1 1 1 1 1 1 1 
1 1 1 1 1 1 1 1 1 
1 1 1 1 1 1 1 1 1 
1 1 1 1 1 1 1 1 1 
1 1 1 1 1 1 1 1 1 
1 1 1 1 1 1 1 1 1 
1 1 1 1 1 1 1 1 1 
1 1 1 1 1 1 1 1 1 
1 1 1 1 1 1 1 1 1 
1 1 1 1 1 1 1 1 1 
1 1 1 1 1 1 1 1 1 
1 1 1 1 1 1 1 1 1 
1 1 1 1 1 1 1 
NORMALS Normals float
-0.299239 -0.587846 -0.751594 -0.46249 -0.44886 -0.76461 -0.17781 -0.626357 -0.758986 
-0.526189 0.253869 -0.811588 -0.318654 0.823305 -0.469711 -0.321041 0.285678 -0.902951 
-0.148761 -0.28538 -0.946799 -0.196269 0.22728 -0.953846 -0.0678232 0.0750548 -0.99487 
-0.0318132 -0.213195 -0.976492 0.046347 -0.0953386 -0.994365 -0.0625198 -0.385113 -0.920749 
-0.343651 0.78884 -0.509544 -0.311527 0.652073 -0.691195 -0.203822 0.433231 -0.877934 
-0.166764 0.653092 -0.738688 -0.0992547 0.362542 -0.926667 0.0764998 -0.0603859 -0.995239 
-0.175199 0.138715 -0.974712 -0.056434 0.389305 -0.919378 0.181582 0.222714 -0.957824 
-0.644543 -0.187667 -0.741178 -0.451099 -0.09467 -0.887439 -0.410938 0.328459 -0.850438 
-0.464873 -0.0247924 -0.88503 -0.359316 0.0542668 -0.931637 -0.530941 0.240508 -0.812562 
-0.393757 0.3915 -0.831675 -0.668984 0.405312 -0.623043 -0.850793 0.0728342 -0.52043 
-0.7731 0.515353 -0.369766 -0.50644 0.671147 -0.541368 -0.067727 -0.110018 -0.991619 
0.126977 -0.550053 -0.82542 0.195997 -0.263938 -0.944416 -0.455896 0.230668 -0.859622 
0.36988 0.813355 0.449046 -0.422967 0.874969 -0.235646 -0.316409 0.689417 -0.651605 
-0.282296 0.774416 -0.566206 -0.0746001 0.270969 -0.959693 0.122403 -0.0626737 -0.9905 
-0.220128 0.755185 -0.617446 -0.238775 0.684904 -0.688399 0.209043 -0.302546 -0.929929 
0.123459 -0.0145642 -0.992243 -0.0122064 0.176484 -0.984228 -0.0574616 0.277796 -0.95892 
-0.593405 -0.599188 -0.537443 -0.0962962 -0.782172 -0.615576 -0.311054 0.375332 -0.873139 
0.369808 0.762611 0.530723 -0.258935 0.464519 -0.846862 0.289513 0.632055 0.718811 
0.21192 0.446058 0.869553 0.476621 0.023083 0.878806 -0.458383 0.14023 -0.877622 
0.408018 0.391746 0.824655 -0.341704 0.899346 -0.272791 -0.420115 0.707126 -0.56875 
0.390772 -0.350195 -0.85127 -0.329775 0.606346 -0.723597 -0.203733 0.447504 -0.870766 
-0.314347 0.490744 -0.812623 -0.392734 0.474396 -0.787851 0.275797 -0.179461 -0.944314 
-0.17553 0.539156 -0.823711 0.119189 -0.0339746 -0.99229 0.217985 -0.107753 -0.969985 
0.408634 -0.217547 -0.886392 -0.064074 0.116879 -0.991077 0.317914 -0.0389137 -0.947321 
0.338347 -0.167456 -0.926002 -0.463348 0.173763 -0.868974 -0.200631 -0.0581309 -0.977941 
-0.137194 0.0105617 -0.990488 0.237249 -0.218978 -0.946447 0.637535 0.0638795 -0.767768 
0.354937 -0.306533 -0.883209 0.692636 -0.203713 -0.691922 -0.38969 0.138866 -0.910416 
-0.15802 0.0280234 -0.987038 0.211672 0.0193017 -0.97715 -0.179274 0.123245 -0.976049 
-0.065021 0.0812994 -0.994567 -0.339058 0.272335 -0.900485 -0.224577 0.16694 -0.96005 
-0.490759 0.290028 -0.821608 -0.378531 0.309713 -0.872234 0.483711 -0.0874968 -0.870843 
-0.278533 0.24189 -0.929467 0.48265 -0.0119514 -0.875732 -0.0654246 0.216885 -0.974002 
0.426261 -0.00752197 -0.904569 -0.0700746 0.243576 -0.967347 0.286544 0.0476516 -0.956881 
-0.124655 0.285259 -0.95031 0.211827 0.221378 -0.951904 0.0337014 0.27477 -0.960919 
0.12288 -0.771925 -0.623725 -0.894986 -0.195916 -0.400771 0.453576 -0.0992241 0.885677 
0.443697 -0.0561769 0.894414 -0.82854 0.535362 -0.164041 -0.612284 0.765588 -0.197443 
-0.384951 0.922937 -0.000709489 -0.340253 0.915808 -0.213364 -0.428787 0.876686 -0.218091 
-0.324444 0.90289 -0.282002 -0.376394 0.871528 -0.314272 -0.455083 0.597062 -0.660619 
-0.565408 0.629932 -0.532446 -0.338328 0.583413 -0.738352 0.552488 -0.363937 -0.749871 
0.404463 -0.24124 -0.882163 0.636433 -0.359979 -0.682179 0.308036 -0.114197 -0.944496 
0.687579 -0.365843 -0.627211 0.556529 -0.28361 -0.780923 0.529191 -0.225196 -0.818073 
0.021505 -0.0771553 -0.996787 0.273118 -0.142282 -0.9514 0.557018 -0.417893 -0.717702 
-0.5171 0.10573 -0.849369 -0.356978 0.148092 -0.922299 -0.64763 0.393106 -0.65272 
0.644233 -0.277989 -0.712521 -0.608984 0.399785 -0.685063 -0.461359 0.533446 -0.708931 
-0.354375 0.400553 -0.844971 -0.426476 0.428847 -0.796372 0.600771 -0.10035 -0.793097 
-0.199822 0.269281 -0.942103 0.275153 0.0899959 -0.957179 -0.247652 0.312535 -0.917055 
0.112814 0.103405 -0.988221 0.596316 -0.219656 -0.772113 0.516031 -0.117572 -0.848463 
-0.106916 0.271352 -0.956523 0.0983718 0.0453785 -0.994115 0.341484 0.151962 -0.927522 
0.268852 -0.625243 -0.732659 -0.931744 0.0982272 -0.349578 -0.93985 0.279532 -0.196325 
-0.433314 -0.696287 -0.572209 -0.672009 0.739288 -0.0430868 -0.566665 0.823496 0.0273017 
-0.437031 0.880666 -0.18284 0.670973 -0.495618 -0.551506 -0.664806 0.55707 -0.4977 
0.742968 -0.392014 -0.542516 0.804478 -0.463526 -0.371427 -0.700832 0.400808 -0.590075 
0.545693 -0.329615 -0.770437 0.7993 -0.463513 -0.38246 -0.709992 0.285897 -0.643563 
0.5795 -0.378453 -0.721771 0.798256 -0.389141 -0.459736 -0.620083 0.262029 -0.739485 
-0.777935 0.318788 -0.541471 0.786112 -0.376952 -0.489831 0.761936 -0.197268 -0.616878 
-0.620488 0.517207 -0.589484 -0.411695 0.428109 -0.804506 -0.659745 0.507365 -0.554362 
-0.514572 0.517781 -0.683461 0.680051 -0.0818073 -0.728586 -0.105231 0.360666 -0.92674 
-0.084753 0.393615 -0.91536 0.540319 0.0591298 -0.83938 0.469756 -0.719585 -0.511397 
-0.894692 0.351013 -0.276253 -0.367123 0.925752 0.0905775 0.583015 -0.625253 -0.518799 
0.741874 -0.635692 -0.213352 -0.536048 0.836121 -0.116422 0.83595 -0.45182 -0.311523 
0.828041 -0.425239 -0.365402 0.823011 -0.393793 -0.409365 -0.813249 0.369224 -0.449777 
0.796354 -0.500248 -0.339957 0.755302 -0.482317 -0.443721 0.783553 -0.465084 -0.411998 
0.772844 -0.398314 -0.494022 0.854088 -0.359914 -0.375495 0.84762 -0.389828 -0.359965 
-0.720394 0.58273 -0.376109 0.7789 -0.247493 -0.576247 -0.666295 0.538272 -0.516056 
0.832724 -0.18816 -0.520737 0.578611 0.019858 -0.815362 0.364077 0.275005 -0.889843 
0.291469 0.316613 -0.902664 -0.670797 -0.206703 -0.712253 -0.154108 0.800747 -0.578839 
-0.496794 -0.157594 -0.85344 -0.531319 0.246126 -0.810631 -0.852774 0.097682 -0.513065 
-0.31189 0.817256 -0.484579 -0.770114 0.48212 -0.417713 0.852028 -0.507455 -0.128599 
-0.719692 0.68244 -0.127747 0.874206 -0.445496 -0.193126 0.844635 -0.465411 -0.264544 
-0.830203 0.461158 -0.313203 0.910774 -0.327581 -0.25136 -0.655204 0.687436 -0.313272 
-0.746324 0.661769 -0.0711475 0.803004 -0.333125 -0.494178 0.730248 -0.12711 -0.671254 
-0.264315 0.484673 -0.833805 -0.473533 0.564457 -0.676132 0.2678 0.376858 -0.886714 
0.00218831 0.485082 -0.874466 -0.392781 0.579373 -0.714178 0.082209 -0.870315 -0.485585 
0.372625 -0.841872 -0.390387 -0.350829 0.159669 -0.922727 -0.607907 0.321825 -0.725864 
-0.46559 -0.363424 -0.806938 -0.422548 0.262825 -0.867396 -0.4491 0.184595 -0.874204 
-0.272856 0.903383 -0.330831 -0.472238 0.832673 -0.289218 -0.305057 0.872979 -0.38059 
-0.112271 0.969069 -0.219776 -0.434283 0.90074 -0.00815979 -0.348915 0.917073 0.192963 
-0.452718 0.88593 0.100869 0.765397 -0.638112 -0.0835488 0.805097 -0.546564 -0.230404 
-0.727051 0.685229 0.0431152 -0.755148 0.641733 -0.133905 -0.753335 0.645097 -0.127811 
0.921479 -0.387025 0.0329819 0.91263 -0.405427 -0.0522997 0.838196 -0.537593 -0.0917639 
0.878136 -0.171951 -0.446441 0.836124 -0.206522 -0.508178 0.656507 0.0372178 -0.753401 
-0.606968 0.556139 -0.567714 0.742142 0.0215054 -0.669897 -0.64789 0.664042 -0.373213 
-0.138316 0.612031 -0.778644 0.380775 0.217116 -0.898816 -0.239269 0.55185 -0.798881 
0.196559 0.308385 -0.930733 -0.0821544 0.638922 -0.764872 0.309206 0.34073 -0.88786 
0.118334 0.651131 -0.749683 -0.419379 -0.51892 -0.744878 -0.334379 0.252624 -0.907949 
-0.303736 0.61981 -0.723588 -0.105214 0.990128 -0.0926137 -0.399579 0.894825 0.19906 
0.907146 -0.420234 -0.0221342 0.865767 -0.495312 -0.0715062 -0.913964 0.389016 -0.115483 
0.90038 -0.424135 -0.0970822 0.91318 -0.406346 -0.031404 -0.801813 0.591226 0.0868817 
0.956004 -0.212329 -0.202419 -0.789942 0.577719 -0.205506 -0.810293 0.564762 -0.156427 
-0.615512 0.645321 -0.452445 0.864435 -0.29357 -0.408128 -0.467709 0.718002 -0.515482 
-0.259322 0.831683 -0.490974 0.53145 0.167578 -0.830348 0.500979 0.397811 -0.768614 
0.138275 0.713353 -0.687029 -0.0208213 0.810529 -0.585328 0.350578 0.61164 -0.709219 
0.656824 0.479557 -0.581899 0.376488 -0.80369 -0.460802 -0.335617 -0.437465 -0.834257 
-0.0273647 0.292966 -0.955731 -0.14793 0.335984 -0.930178 -0.210225 0.58628 -0.782357 
-0.275854 0.956132 0.0985753 0.684141 -0.728641 -0.032148 -0.272261 -0.819419 -0.504406 
-0.922763 -0.196714 -0.331378 0.239705 0.96757 -0.0796894 0.140797 0.973957 -0.17772 
-0.00671393 0.999903 -0.0122057 -0.259889 -0.713983 -0.650143 -0.479736 0.806458 0.345658 
-0.741521 0.627479 0.237522 0.81842 -0.493936 0.293624 -0.783755 0.614911 0.0872542 
0.838536 -0.537875 0.0868771 0.792771 -0.466072 0.392798 -0.904887 0.412895 -0.103426 
0.891232 -0.422656 0.16452 -0.864357 0.484893 0.133285 -0.783914 0.558 0.272241 
0.794552 -0.213153 -0.568554 0.882246 -0.0616812 -0.46673 -0.723202 0.678894 -0.126817 
-0.688248 0.667662 -0.2838 0.733885 0.128744 -0.666962 -0.250358 0.872053 -0.420529 
0.277968 0.880332 -0.384381 0.496894 0.82139 -0.280028 0.537293 -0.79568 -0.279659 
0.725231 -0.685544 -0.0637872 -0.542219 -0.78966 -0.287117 -0.557647 0.765981 0.319848 
-0.454877 -0.805487 -0.379839 -0.061717 0.995844 0.0669798 -0.190365 0.964924 0.180782 
-0.0117411 0.975899 0.217905 0.0887365 0.991547 0.0946625 -0.328464 0.839017 0.433776 
0.768188 -0.619018 0.16341 -0.582533 0.674176 0.454028 0.852479 -0.489891 0.182443 
-0.77873 0.5781 0.24368 -0.83816 0.464544 0.285809 -0.837538 0.501265 0.217402 
-0.780864 0.620336 0.0737251 0.97176 -0.224461 0.0728048 -0.86009 0.492037 0.134704 
0.919698 -0.367516 -0.138161 0.879344 0.0791787 -0.469558 -0.623285 0.758183 -0.191507 
0.0735366 0.954957 -0.287487 0.353953 -0.900785 -0.2516 0.755275 -0.652915 0.0571177 
-0.556262 -0.807265 -0.197222 -0.830816 -0.480661 -0.280554 -0.60818 -0.772574 0.182337 
-0.2105 0.667097 0.714613 -0.130596 0.888603 0.439692 -0.106444 0.944689 0.310213 
-0.130549 0.836017 0.532946 -0.300015 -0.653807 -0.694642 0.242155 0.960959 0.133861 
0.759366 -0.487305 0.431157 -0.677303 0.577096 0.456312 -0.76672 0.462712 0.445015 
0.817402 -0.48597 0.309334 -0.810197 0.436229 0.391516 -0.85341 0.394035 0.341216 
0.904665 -0.414787 0.0976338 -0.692369 0.598244 0.403397 0.898513 -0.37811 0.222951 
0.90722 -0.334396 -0.255208 -0.844088 0.526822 0.0998708 -0.02418 0.928701 -0.370041 
0.493132 0.729796 -0.473517 0.0974869 -0.906498 -0.410802 0.500578 -0.851266 -0.15738 
0.733712 -0.651989 0.19125 0.810904 -0.465979 0.353974 -0.670614 -0.60824 -0.424643 
-0.664414 -0.672896 0.325216 -0.582357 -0.802875 -0.127485 -0.613176 -0.613318 0.497852 
0.0400877 0.958381 0.282662 0.0634465 0.97543 0.210975 -0.278426 0.636635 0.719149 
-0.390396 -0.794189 -0.465676 0.711193 -0.433006 0.553814 0.627511 -0.341585 0.699679 
-0.684345 0.424514 0.59284 -0.67643 0.302344 0.671588 0.707457 -0.373902 0.599752 
-0.434965 0.335747 0.835511 0.691408 -0.326688 0.644383 -0.81204 0.36514 0.455262 
-0.699977 0.260129 0.665106 -0.868891 0.371059 0.327632 -0.760934 0.471312 0.445919 
-0.724763 0.455181 0.517232 0.717903 -0.490288 0.494199 -0.640325 0.324507 0.696188 
-0.65103 0.324278 0.686297 0.830207 -0.425417 0.360246 -0.686535 0.402678 0.605409 
-0.800233 0.497291 0.335154 0.63037 -0.497394 0.596014 0.801193 -0.553816 0.226666 
0.557904 -0.41055 0.721244 -0.567528 0.366726 0.737173 0.666994 -0.355793 0.654622 
0.866764 -0.365947 0.338826 0.804933 -0.246937 0.539542 0.935287 -0.212462 0.283015 
-0.627894 0.458288 0.629064 -0.723078 0.44724 0.526435 0.921055 -0.301137 0.246929 
0.827234 -0.4821 0.288555 0.902185 -0.37154 0.219133 -0.817302 0.307308 0.487421 
0.907755 -0.414504 -0.0645507 -0.851946 0.439171 0.285163 -0.824908 0.5513 0.124881 
0.866494 -0.397716 -0.301679 0.914892 -0.0173259 -0.403327 0.897819 0.0590576 -0.436388 
-0.298723 0.911 -0.28433 0.0968016 0.899746 -0.425543 0.36545 -0.925585 -0.0986846 
0.776024 -0.469627 0.420995 -0.449181 -0.821754 -0.350653 0.736846 -0.439674 0.513562 
-0.772982 -0.258799 -0.579243 -0.37468 -0.871511 -0.31636 -0.522148 -0.667804 -0.530472 
0.211772 0.834323 0.508978 0.137135 0.874886 0.46451 -0.121957 0.718452 0.684802 
0.238808 0.953859 0.181998 -0.0876843 0.994732 0.0531096 0.668617 -0.45215 0.590349 
0.529576 -0.19166 0.826326 -0.188901 0.360194 0.913552 -0.357597 0.4222 0.83299 
0.636543 -0.504025 0.583757 0.388553 -0.305505 0.869306 -0.434328 0.380805 0.816301 
0.449196 -0.189058 0.873201 -0.534697 0.39736 0.745791 -0.51506 0.177963 0.838476 
-0.49652 0.189831 0.847014 0.423469 -0.257928 0.868417 0.40639 -0.259156 0.876177 
0.100996 -0.115637 0.988144 -0.575949 0.153469 0.802951 -0.4677 0.409706 0.783197 
-0.60619 0.201452 0.769384 0.287714 -0.145434 0.94661 0.0202617 0.0360766 0.999144 
0.110146 -0.0676093 0.991613 0.472901 -0.185145 0.861444 -0.546274 0.272869 0.791913 
0.283134 -0.0847279 0.95533 -0.639985 0.296208 0.709 -0.0557059 -6.27111e-05 0.998447 
-0.359255 0.225357 0.905622 -0.504882 0.28856 0.813528 0.513513 -0.371756 0.773371 
0.820635 -0.496563 0.282813 -0.524372 0.371299 0.766271 -0.417587 0.184985 0.889607 
0.929146 -0.333362 0.159867 -0.443729 0.245862 0.861775 0.650162 -0.293755 0.700712 
-0.358593 0.136389 0.923477 0.858636 -0.386312 0.336907 -0.704158 0.29025 0.64801 
-0.800685 0.399404 0.446521 -0.773554 0.396648 0.494251 -0.856897 0.362543 0.366456 
-0.814043 0.363681 0.452847 -0.836099 0.481043 0.263695 0.888921 0.102604 -0.446421 
-0.773848 0.625812 0.0975654 0.592848 0.642863 -0.485034 -0.569431 0.816643 -0.0940346 
-0.369924 0.892601 -0.257721 0.607361 0.583827 -0.538756 0.368976 -0.91305 0.173769 
-0.192558 -0.787443 -0.585538 -0.0109931 -0.83962 -0.543063 0.0965705 -0.948871 -0.30053 
0.638736 -0.631165 0.440052 0.558955 -0.635775 0.532315 0.457724 -0.851065 0.25725 
-0.228469 -0.810259 -0.539706 0.574416 -0.807143 0.136257 -0.531451 -0.772386 -0.347822 
-0.555688 -0.769258 -0.315362 -0.349932 -0.923384 0.157829 -0.731615 -0.55512 -0.395703 
0.224615 0.938713 0.26147 0.0978133 0.558934 0.823423 -0.0182926 0.544042 0.838859 
-0.0839543 0.637215 0.7661 0.112438 0.256724 0.959922 0.216737 0.180917 0.95932 
0.730865 -0.202878 0.651672 -0.609429 0.1718 -0.774003 -0.496608 -0.595307 -0.631657 
-0.29802 0.766626 -0.568744 -0.228237 -0.949245 -0.216432 -0.581559 -0.669807 0.46168 
0.434806 -0.0989709 0.895069 0.111333 0.989688 0.0901267 0.18622 0.0463599 0.981414 
0.0549851 0.25043 0.966572 0.424148 -0.264334 0.866156 0.485857 -0.253485 0.836474 
-0.174878 0.165529 0.970576 -0.039121 0.120916 0.991892 -0.317144 0.15073 0.936323 
0.000121416 -0.0287841 0.999586 -0.33092 0.181287 0.926082 -0.217125 0.163707 0.962318 
-0.1763 0.0469426 0.983217 -0.366937 0.144456 0.918961 -0.134337 0.109324 0.984887 
-0.494846 0.253631 0.831143 -0.285719 0.125795 0.950021 0.204469 -0.0677875 0.976523 
-0.329253 0.177793 0.927352 0.0858726 -0.00370043 0.996299 0.430077 -0.237744 0.870926 
0.603817 -0.318003 0.730944 0.210258 -0.250112 0.945111 -0.145324 0.119389 0.982154 
-0.370415 0.277476 0.886453 0.662773 -0.357298 0.658081 0.583508 -0.359993 0.727959 
-0.302906 0.00586589 0.953002 0.709062 -0.50441 0.492749 -0.63928 0.183087 0.74686 
0.800174 -0.329753 0.500983 0.803221 -0.478379 0.354951 -0.786497 0.266959 0.556916 
-0.733198 0.0701933 0.676382 0.830267 -0.540424 0.136374 -0.824449 0.323163 0.464596 