# vtk DataFile Version 4.2
vtk output
ASCII
DATASET POLYDATA
POINTS 829 float
97.466 106.288 159.685 97.1533 106.27 159.737 103.205 107.283 159.7 
104.86 107.603 160.232 102.487 107.563 159.656 104.651 107.801 160.137 
104.43 107.896 160.088 104.812 107.831 160.265 105.024 107.645 160.461 
104.849 107.948 160.393 95.2576 105.207 160.002 102.741 106.436 159.811 
102.694 105.849 159.985 104.941 106.161 160.431 105.339 106.242 160.712 
92.1699 106.335 161.037 92.0914 106.193 161.123 92.1136 106.412 161.134 
92.2707 106.228 161.003 95.3588 106.372 159.992 98.1146 106.639 159.727 
104.521 106.262 160.219 105.375 106.493 160.763 92.2928 106.446 161.014 
96.1455 107.739 160.123 96.5483 108.029 160.188 97.7079 107.592 159.909 
99.5288 107.926 159.914 105.172 107.558 160.767 102.113 108.227 159.94 
104.108 108.318 160.236 100.606 108.666 160.308 103.345 108.503 160.215 
104.362 108.524 160.542 104.604 108.399 160.595 104.845 108.224 160.707 
104.387 108.549 160.758 104.686 108.39 160.831 92.5419 102.578 161.539 
92.4637 102.191 161.746 92.78 102.298 161.554 92.5843 103.201 161.338 
97.9742 103.281 160.649 91.7922 104.032 161.631 100.318 104.214 160.428 
105.272 105.987 160.756 92.201 105.732 161.134 98.9276 105.495 159.853 
101.581 105.558 159.924 105.447 106.212 160.886 91.8124 106.189 161.463 
92.7026 106.362 160.859 92.3089 106.818 161.183 105.313 107.197 161.11 
98.404 108.241 160.086 91.9272 108.247 162.09 96.7494 108.49 160.456 
98.6651 108.667 160.374 96.2054 109.271 161.293 102.546 108.799 160.519 
104.876 108.245 160.895 104.931 108.152 161.037 94.3341 108.795 161.006 
99.946 109.189 161.073 93.9386 101.844 161.54 93.3893 102.857 161.104 
102.906 103.54 161.398 105.237 105.2 161.355 105.433 105.793 161.122 
105.479 106.002 161.12 105.488 106.161 161.397 105.367 106.999 161.538 
91.6527 108.138 162.34 104.338 108.31 161.887 101.714 109.084 161.201 
93.187 100.486 162.608 104.923 104.252 161.951 105.167 104.081 162.509 
105.409 104.977 161.923 105.434 104.846 162.293 105.493 105.652 161.94 
105.104 106.969 162.492 91.2582 108.388 163.507 92.2876 109.005 162.51 
92.559 109.359 162.694 93.107 109.345 162.257 102.042 109.089 161.811 
102.802 108.953 161.779 92.7647 109.524 162.706 92.9934 109.526 162.512 
93.3503 109.54 162.592 92.857 109.551 162.59 93.7348 99.4101 163.388 
90.8111 100.738 163.842 89.713 102.978 164.234 104.728 103.127 163.067 
105.197 103.682 162.942 105.322 104.35 162.863 90.0211 104.346 163.673 
101.964 108.953 162.909 104.21 108.071 162.734 91.3626 108.766 164.016 
92.1677 109.184 163.023 92.7597 109.516 163.119 92.9287 109.563 162.69 
92.0643 109.473 163.795 97.9214 99.2418 163.974 104.67 102.297 163.982 
105.039 102.795 163.852 105.052 102.654 164.006 105.101 103.309 163.575 
105.062 102.728 164.017 90.112 106.653 164.559 90.4133 107.346 164.635 
91.0292 108.356 164.605 92.6757 109.557 163.8 91.8841 109.41 164.242 
92.2598 97.6854 165.278 89.8231 100.294 165.19 104.816 101.839 164.78 
104.944 102.363 164.524 104.853 101.778 165.001 104.846 105.676 164.701 
99.3746 108.85 164.918 91.8436 109.154 164.79 92.003 109.365 164.452 
92.8156 96.5185 166.341 104.111 100.649 165.518 104.814 101.549 165.576 
104.536 105.811 165.353 89.931 106.561 166.678 103.471 106.732 165.871 
94.7495 109.126 165.65 101.438 98.045 167.024 103.595 99.4353 166.781 
104.761 100.763 166.544 89.0277 104.726 167.456 103.437 105.783 167.171 
104.211 106.042 165.73 90.9759 107.665 166.861 91.4742 108.13 166.611 
92.6785 108.537 166.705 88.5213 98.4908 168.369 104.313 99.6703 167.597 
104.445 99.7823 167.684 104.641 100.517 167.216 104.501 99.9088 167.739 
88.4541 102.322 167.786 88.6497 103.919 168.992 91.1268 93.8194 169.887 
89.8135 94.241 170.106 88.9436 95.6548 169.714 104.378 99.648 167.896 
91.8002 93.1265 170.697 87.8796 98.3138 170.145 104.733 101.007 169.058 
88.6964 103.861 170.452 89.346 104.932 170.068 99.173 105.906 170.147 
89.9275 105.494 170.115 89.5379 91.9565 172.735 90.3023 91.9913 172.298 
101.751 96.427 170.501 104.02 98.4652 169.858 102.41 103.835 170.953 
103.656 97.9278 170.115 103.928 98.1368 170.778 87.3333 97.5171 172.121 
104.254 98.7137 171.654 87.5391 100.319 171.953 103.872 101.292 171.889 
102.879 103.095 171.381 88.919 103.653 172.136 94.8915 92.0447 173.542 
87.0379 95.0074 173.965 102.965 96.825 171.839 104.298 99.0439 171.926 
104.122 99.435 172.592 103.955 100.064 172.73 88.7609 103.064 172.971 
90.05 89.9492 175.537 91.9131 90.4433 174.932 88.2179 91.5845 174.488 
103.653 97.4938 172.391 103.937 97.9375 172.064 104 98.673 173.064 
103.969 98.1344 172.799 87.4395 100.251 173.566 88.8702 102.765 173.932 
88.2727 90.9048 175.316 103.765 97.6555 172.969 87.49 100.34 174.275 
90.7747 103.438 174.889 89.0057 89.4402 177.22 86.2464 95.6787 176.738 
102.004 100.869 175.841 88.8316 101.996 175.386 95.4532 103.194 175.561 
90.1689 103.329 174.725 90.8615 102.9 175.832 89.4678 102.916 174.754 
90.2341 102.542 176.112 88.8092 88.866 178.782 89.2853 88.559 179.218 
86.016 93.9991 178.303 103.1 95.9669 176.931 86.4592 97.1585 178.837 
102.996 98.2962 177.605 86.0079 92.4267 179.365 102.597 94.9347 177.989 
102.697 94.9274 178.828 85.9457 95.0825 179.35 102.825 95.2754 178.819 
103.011 97.0776 178.815 102.493 94.6165 178.999 86.7445 89.8257 180.779 
85.7396 91.7456 181.194 102.859 95.8018 179.985 88.2246 98.9362 181.168 
100.871 99.0669 181.485 85.4722 92.7503 182.739 102.597 95.0542 181.116 
102.628 96.1382 182.065 102.43 97.0395 182.211 101.362 98.4741 182.292 
98.9947 99.8328 181.495 86.083 89.9525 182.678 87.0287 97.1398 183.37 
87.5169 97.6579 183.481 98.2271 99.4841 183.538 88.9455 98.7658 182.834 
85.5909 94.1416 184.943 102.454 95.7836 183.739 87.7605 97.7112 184.103 
91.092 99.2255 183.632 97.5167 99.4234 184.316 99.4491 99.0651 184.442 
86.2285 95.5139 186.335 86.8072 96.3793 185.775 89.2546 98.2508 185.43 
101.461 97.804 184.616 102.199 95.7364 185.312 102.143 95.2429 185.566 
100.788 98.2146 185.833 102.05 94.9082 185.636 101.724 96.9163 186.808 
88.7285 97.6774 187.684 87.5513 87.3448 188.375 98.1995 91.2327 187.606 
101.877 94.7916 186.117 101.962 95.6109 187.591 101.957 95.7136 187.635 
88.3057 86.9303 189.19 88.2023 86.8925 189.547 87.1865 87.5577 188.721 
88.7481 86.9553 189.029 86.4143 88.3574 188.419 101.085 94.3834 188.308 
101.805 95.7048 188.173 101.788 95.9999 188.505 86.7657 87.9523 189.871 
98.806 92.328 189.34 87.0444 96.5855 190.614 98.3733 98.9896 189.608 
87.6629 87.1277 190.618 87.7982 87.0707 190.661 88.1436 87.0027 190.662 
89.6722 87.053 190.496 86.4063 88.4463 190.155 85.5334 93.7304 191.342 
100.465 98.4513 191.009 100.573 98.4184 190.932 87.6774 87.1928 190.833 
88.2498 87.0195 191.721 88.4534 87.0207 191.814 91.7043 87.9302 191.445 
85.3813 91.7259 191.478 85.3794 92.4289 191.715 86.1401 95.1336 192.909 
86.4681 95.6827 192.863 100.886 96.4292 190.892 100.703 97.2413 191.38 
100.812 97.5045 191.061 87.8742 87.4666 192.442 86.4835 88.6922 191.959 
85.5078 91.1711 192.138 85.6634 93.8664 193.112 98.8782 94.4464 192.475 
99.8526 96.3523 192.444 103 101.009 193.017 103 101.009 193.017 
103 101.009 193.017 103 101.009 193.017 103 101.009 193.017 
88.2872 87.1912 192.281 88.8652 87.3554 192.892 85.9024 89.943 192.53 
96.6732 93.447 194.333 86.16 94.9647 194.645 99.5842 97.331 193.033 
95.5563 98.8408 193.1 103 101.009 193.017 87.1056 88.6056 194.133 
97.2304 95.3251 195.041 98.3435 96.1904 194.229 99.1779 98.1467 193.042 
98.8313 98.2336 193.319 87.9972 88.1184 194.69 86.8787 95.6792 196.537 
97.113 96.4222 195.486 97.2036 96.8733 195.38 98.0271 96.9197 194.6 
97.8886 97.8009 194.524 95.4563 98.5531 194.875 96.3378 98.4576 194.827 
88.4134 88.298 195.36 87.6466 88.9826 195.726 88.929 88.5645 195.827 
85.9176 92.7112 195.828 86.1693 94.3838 196.337 97.0054 97.3849 195.445 
96.4847 97.9942 195.482 95.2013 98.2273 196.134 90.1443 89.759 197.098 
90.7809 90.4584 197.475 91.9958 91.3264 197.385 86.3126 92.4088 197.073 
86.3164 93.6884 197.238 96.0849 97.4898 196.214 95.7587 97.8676 196.224 
94.4641 98.1272 197.017 95.014 98.1327 196.766 88.7111 89.7079 197.496 
86.8372 92.2299 198.235 87.1936 95.4344 198.704 94.6155 96.8927 197.758 
94.3746 97.7945 197.548 92.3833 98.1783 198.221 93.4371 98.0719 197.885 
94.0137 98.0562 197.691 89.0701 90.6234 198.59 93.7876 97.6364 198.144 
91.721 98.0443 198.983 92.925 98.0067 198.647 92.6313 98.0666 198.942 
88.6575 91.1331 199.121 87.8047 91.6028 199.074 87.5217 92.0885 199.203 
87.1601 93.7172 199.502 87.0836 94.3801 199.347 92.0543 97.7631 199.539 
92.4079 97.9772 199.277 92.326 98.0081 199.282 92.6436 97.8981 199.076 
92.5244 98.0388 199.152 89.0776 92.5062 200.435 87.6151 93.3907 200.116 
90.1759 94.0684 200.963 90.6539 95.2331 201.151 89.3255 97.246 201.13 
90.0458 97.7032 200.698 90.1453 97.6855 200.984 92.4368 98.0497 199.23 
90.9454 97.5961 200.754 90.3917 97.6702 200.999 88.6953 92.8597 200.705 
89.6295 93.3236 200.848 88.1065 95.4398 201.118 88.6654 96.2202 201.457 
90.4025 96.4863 201.602 90.9936 97.2977 201.015 89.8817 97.6031 201.079 
90.6026 97.4624 201.228 90.3796 97.5347 201.272 88.1845 93.4562 200.778 
88.6451 93.837 201.318 88.1128 94.0677 201.001 88.8662 94.0291 201.448 
88.2161 95.025 201.347 88.957 96.4839 201.634 89.0843 96.3459 201.772 
89.0668 96.7605 201.54 90.1414 96.8698 201.697 89.9559 97.2817 201.659 
90.4194 97.0704 201.529 89.6914 97.2922 201.623 90.1539 97.4151 201.503 
89.9611 97.4333 201.553 89.8145 97.4342 201.512 88.3668 94.3811 201.36 
88.6313 94.6772 201.601 88.6583 95.1762 201.723 89.7439 97.1608 201.711 
89.8301 97.3443 201.64 88.739 95.4326 201.815 88.5082 94.595 254.999 
88.3036 94.6347 255.118 88.609 94.3204 255.064 88.3284 95.1994 255.101 
88.6129 95.4052 254.888 89.2542 96.2114 254.624 89.1648 96.238 254.638 
89.2698 96.3445 254.607 89.4595 96.3552 254.67 89.233 96.5172 254.643 
89.5325 97.7392 254.462 89.5527 97.8875 254.45 89.5262 97.9982 254.463 
[...]
POINT_DATA 829
SCALARS scalars float
LOOKUP_TABLE default
1 1 1 1 1 1 1 1 1 
1 1 1 1 1 1 1 1 1 
1 1 1 1 1 1 1 1 1 
1 1 1 1 1 1 1 1 1 
1 1 1 1 1 1 1 1 1 
1 1 1 1 1 1 1 1 1 
1 1 1 1 1 1 1 1 1 
1 1 1 1 1 1 1 1 1 
1 1 1 1 1 1 1 1 1 
1 1 1 1 1 1 1 1 1 
1 1 1 1 1 1 1 1 1 
1 1 1 1 1 1 1 1 1 
1 1 1 1 1 1 1 1 1 
1 1 1 1 1 1 1 1 1 
1 1 1 1 1 1 1 1 1 
1 1 1 1 1 1 1 1 1 
1 1 1 1 1 1 1 1 1 
1 1 1 1 1 1 1 1 1 
1 1 1 1 1 1 1 1 1 
1 1 1 1 1 1 1 1 1 
1 1 1 1 1 1 1 1 1 
1 1 1 1 1 1 1 1 1 
1 1 1 1 1 1 1 1 1 
1 1 1 1 1 1 1 1 1 
1 1 1 1 1 1 1 1 1 
1 1 1 1 1 1 1 1 1 
1 1 1 1 1 1 1 1 1 
1 1 1 1 1 1 1 1 1 
1 1 1 1 1 1 1 1 1 
1 1 1 1 1 1 1 1 1 
1 1 1 1 1 1 1 1 1 
1 1 1 1 1 1 1 1 1 
1 1 1 1 1 1 1 1 1 
1 1 1 1 1 1 1 1 1 
1 1 1 1 1 1 1 1 1 
1 1 1 1 1 1 1 1 1 
1 1 1 1 1 1 1 1 1 
1 1 1 1 1 1 1 1 1 
1 1 1 1 1 1 1 1 1 
1 1 1 1 1 1 1 1 1 
1 1 1 1 1 1 1 1 1 
1 1 1 1 1 1 1 1 1 
1 1 1 1 1 1 1 1 1 
1 1 1 1 1 1 1 1 1 
1 1 1 1 1 1 1 1 1 
1 1 1 1 1 1 1 1 1 
1 1 1 1 1 1 1 1 1 
1 1 1 1 1 1 1 1 1 
1 1 1 1 1 1 1 1 1 
1 1 1 1 1 1 1 1 1 
1 1 1 1 1 1 1 1 1 
1 1 1 1 1 1 1 1 1 
1 1 1 1 1 1 1 1 1 
1 1 1 1 1 1 1 1 1 
1 1 1 1 1 1 1 1 1 
1 1 1 1 1 1 1 1 1 
1 1 1 1 1 1 1 1 1 
1 1 1 1 1 1 1 1 1 
1 1 1 1 1 1 1 1 1 
1 1 1 1 1 1 1 1 1 
1 1 1 1 1 1 1 1 1 
1 1 1 1 1 1 1 1 1 
1 1 1 1 1 1 1 1 1 
1 1 1 1 1 1 1 1 1 
1 1 1 1 1 1 1 1 1 
1 1 1 1 1 1 1 1 1 
1 1 1 1 1 1 1 1 1 
1 1 1 1 1 1 1 1 1 
1 1 1 1 1 1 1 1 1 
1 1 1 1 1 1 1 1 1 
1 1 1 1 1 1 1 1 1 
1 1 1 1 1 1 1 1 1 
1 1 1 1 1 1 1 1 1 
1 1 1 1 1 1 1 1 1 
1 1 1 1 1 1 1 1 1 
1 1 1 1 1 1 1 1 1 
1 1 1 1 1 1 1 1 1 
1 1 1 1 1 1 1 1 1 
1 1 1 1 1 1 1 1 1 
1 1 1 1 1 1 1 1 1 
1 1 1 1 1 1 1 1 1 
1 1 1 1 1 1 1 1 1 
1 1 1 1 1 1 1 1 1 
1 1 1 1 1 1 1 1 1 
1 1 1 1 1 1 1 1 1 
1 1 1 1 1 1 1 1 1 
1 1 1 1 1 1 1 1 1 
1 1 1 1 1 1 1 1 1 
1 1 1 1 1 1 1 1 1 
1 1 1 1 1 1 1 1 1 
1 1 1 1 1 1 1 1 1 
1 1 1 1 1 1 1 1 1 
1 
NORMALS Normals float
-0.0751584 -0.0161382 -0.997041 -0.104322 0.0154654 -0.994423 0.195403 0.156568 -0.968145 
0.690419 0.0136013 -0.723282 -0.064016 0.0299772 -0.997499 0.375959 0.0293968 -0.92617 
0.319481 0.476108 -0.8193 0.610029 0.419732 -0.672079 0.846443 0.164833 -0.506324 
0.70748 0.492967 -0.506414 -0.1058 -0.167885 -0.980113 0.0783842 -0.257538 -0.963084 
0.147366 -0.392543 -0.907851 0.427815 -0.379636 -0.820275 0.690923 -0.0591014 -0.720508 
-0.569623 0.114465 -0.813896 -0.696251 -0.0704432 -0.714333 -0.717611 0.303971 -0.626608 
-0.382927 -0.0878808 -0.919589 -0.28637 0.092713 -0.953623 -0.00751516 0.164632 -0.986326 
0.368035 -0.110469 -0.923226 0.954729 0.140056 -0.262443 -0.402418 0.287339 -0.869193 
-0.141815 0.35414 -0.924377 -0.123009 0.387796 -0.9135 -0.132557 0.383336 -0.914047 
-0.0147872 0.397978 -0.917276 0.927734 0.217114 -0.303598 0.053066 0.534772 -0.843328 
0.248542 0.581592 -0.774582 -0.0718947 0.626702 -0.775935 0.117325 0.599847 -0.791466 
0.340849 0.772881 -0.535235 0.560162 0.750171 -0.351372 0.797771 0.541665 -0.264876 
0.260871 0.961904 0.0817743 0.538642 0.838599 0.0813408 -0.405837 -0.285273 -0.868283 
-0.558696 -0.356886 -0.74866 -0.237405 -0.374744 -0.896217 -0.527775 -0.133599 -0.838812 
0.0550151 -0.463372 -0.884454 -0.506105 -0.133612 -0.85206 -0.0279186 -0.325019 -0.945295 
0.711637 -0.370298 -0.597037 -0.509261 -0.170028 -0.843649 0.0227055 -0.196281 -0.980285 
0.00626302 -0.29284 -0.956141 0.921366 -0.10518 -0.374195 -0.77324 0.0982903 -0.626449 
-0.289751 0.0424572 -0.95616 -0.525666 0.349604 -0.775533 0.933596 0.356862 0.0323631 
-0.13026 0.442124 -0.887445 -0.596617 0.522124 -0.609455 -0.160366 0.570185 -0.805712 
-0.0864748 0.660617 -0.745726 -0.0718268 0.853022 -0.516909 0.0972706 0.904786 -0.41461 
0.751501 0.659548 -0.0155731 0.805389 0.57823 0.130383 -0.266885 0.580368 -0.76938 
0.0277375 0.960138 -0.278145 -0.12117 -0.462957 -0.87806 -0.312675 -0.189122 -0.930842 
0.301052 -0.658344 -0.689892 0.752742 -0.459059 -0.471852 0.910025 -0.308366 -0.277066 
0.990107 -0.10672 -0.0910945 0.999575 0.0163966 0.0241109 0.958383 0.272473 0.0852064 
-0.827397 0.317587 -0.463199 0.437069 0.845891 0.305677 0.0595407 0.995075 -0.0792518 
-0.196775 -0.621636 -0.758187 0.584376 -0.619924 -0.523641 0.746225 -0.52262 -0.412331 
0.888283 -0.333846 -0.315436 0.975336 -0.213092 -0.057548 0.990702 0.0506781 0.126258 
0.852917 0.430842 0.2948 -0.872221 0.379812 -0.308177 -0.706795 0.529294 -0.46935 
-0.57756 0.733417 -0.358502 -0.31061 0.70613 -0.636319 0.132083 0.975697 0.174842 
0.226441 0.971129 0.0750479 -0.433175 0.899514 -0.0568737 -0.00866294 0.915707 -0.401754 
-0.0028062 0.97179 -0.235831 -0.328571 0.863095 -0.383546 -0.0160772 -0.661253 -0.749991 
-0.57771 -0.470206 -0.667202 -0.86667 -0.0637821 -0.494787 0.572964 -0.641025 -0.510684 
0.850887 -0.438461 -0.289384 0.983582 -0.0389615 0.176208 -0.878475 0.0182307 -0.477439 
0.12409 0.974409 0.187427 0.359596 0.856978 0.369161 -0.753975 0.655433 -0.0439245 
-0.728434 0.617635 -0.296498 -0.281871 0.957106 -0.0670614 -0.0569973 0.997765 -0.0348733 
-0.419107 0.890834 -0.175396 0.18847 -0.734527 -0.651881 0.582923 -0.644436 -0.494877 
0.738572 -0.49076 -0.46224 0.875734 -0.417077 -0.243182 0.963068 -0.24862 -0.103388 
0.9972 -0.0718311 0.0208156 -0.930339 0.280062 -0.236716 -0.854076 0.51263 -0.0881202 
-0.908184 0.414032 -0.061484 0.014228 0.990419 0.137358 -0.664908 0.742618 -0.0801063 
-0.314364 -0.647649 -0.694065 -0.712586 -0.417169 -0.564084 0.647339 -0.627925 -0.432044 
0.980788 -0.195062 -0.00220137 0.850403 -0.487059 -0.19897 0.950825 0.1453 0.273531 
0.231546 0.867467 0.440327 -0.235062 0.881437 0.409651 0.00499416 0.898028 0.43991 
-0.0125119 -0.751707 -0.659378 0.572709 -0.68957 -0.44328 0.97055 -0.238864 -0.0312376 
0.84624 0.348586 0.402946 -0.906952 0.413883 -0.0783513 0.58512 0.696485 0.415382 
0.0302654 0.945318 0.324742 0.373905 -0.802283 -0.465336 0.497247 -0.761768 -0.415276 
0.930871 -0.35334 -0.0929003 -0.922736 0.343728 -0.174381 0.685796 0.472223 0.553795 
0.734572 0.561608 0.38079 -0.627044 0.72228 0.291766 -0.394632 0.780787 0.484393 
-0.13925 0.841747 0.521604 -0.824437 -0.26998 -0.497407 0.726687 -0.544333 -0.419079 
0.824996 -0.361842 -0.43411 0.894584 -0.433975 -0.106701 0.920082 -0.287798 -0.265746 
-0.943958 0.0676029 -0.323069 -0.971942 0.234893 0.0123982 -0.112138 -0.721546 -0.683225 
-0.463538 -0.586092 -0.664551 -0.721894 -0.412073 -0.555936 0.740388 -0.651657 -0.164831 
0.0561597 -0.696099 -0.715746 -0.969928 -0.0203216 -0.242543 0.992498 -0.0376709 0.116312 
-0.917786 0.304559 0.25478 -0.795737 0.571586 0.200228 0.241784 0.792202 0.560318 
-0.5582 0.728612 0.39691 -0.371229 -0.701348 -0.608523 -0.0982872 -0.829951 -0.549109 
0.434765 -0.809535 -0.394504 0.810121 -0.542964 -0.221121 0.603597 0.661859 0.444537 
0.618683 -0.711674 -0.332793 0.783024 -0.60998 -0.121646 -0.927633 -0.165556 -0.334796 
0.932665 -0.34523 0.104649 -0.979238 0.16607 -0.116253 0.859782 0.415503 0.296871 
0.637909 0.610432 0.469516 -0.916376 0.325986 0.232355 0.372555 -0.837775 -0.399169 
-0.935688 -0.1841 -0.30099 0.68456 -0.712823 -0.152513 0.945514 -0.201487 0.255745 
0.96145 -0.0771007 0.26395 0.868093 0.317298 0.381755 -0.660395 0.70311 0.263655 
-0.174325 -0.86253 -0.47503 0.171999 -0.9118 -0.372876 -0.606325 -0.603171 -0.518223 
0.815461 -0.578467 -0.0199899 0.901694 -0.432365 0.00286173 0.958809 -0.0736574 0.274336 
0.954829 -0.279021 0.102217 -0.971144 0.23318 -0.0500716 -0.727169 0.639581 0.249321 
-0.694566 -0.598739 -0.39886 0.912545 -0.393203 0.112488 -0.885584 0.44941 0.117354 
-0.326562 0.843969 0.425527 -0.297768 -0.882745 -0.36345 -0.984062 0.0473225 -0.171413 
0.553398 0.722933 0.413665 -0.59121 0.718328 0.366709 0.0987208 0.829524 0.549677 
-0.39652 0.834668 0.382232 -0.215688 0.829566 0.515071 -0.633916 0.688481 0.352342 
-0.191971 0.87964 0.435179 -0.471098 -0.840852 -0.266522 -0.0437308 -0.976812 -0.209584 
-0.982337 -0.000266662 -0.187123 0.958624 -0.282834 0.0323211 -0.926932 0.372455 0.0455394 
0.933683 0.269755 0.235517 -0.951031 -0.199052 -0.236469 0.830604 -0.542685 -0.12486 
0.899565 -0.42839 0.0852349 -0.984293 0.170855 -0.0444439 0.96331 -0.261239 0.061543 
0.987596 0.089116 0.129274 0.750304 -0.660787 0.0201246 -0.719626 -0.645469 -0.255944 
-0.947606 -0.0160494 -0.319039 0.977285 -0.157374 0.141942 -0.575935 0.769233 0.27673 
0.542414 0.773847 0.327028 -0.964874 0.168408 -0.201637 0.992287 -0.0994823 0.0739605 
0.996373 0.0534854 0.0661892 0.938302 0.332027 0.0966798 0.658185 0.716307 0.231726 
0.251688 0.912768 0.321727 -0.864492 -0.489699 -0.113352 -0.795907 0.592388 0.124933 
-0.604307 0.794209 0.0636095 0.0373772 0.946524 0.32046 -0.483519 0.863361 0.144283 
-0.918874 0.389977 -0.0599044 0.988103 0.0975493 0.118901 -0.688386 0.702783 0.179502 
-0.162395 0.943017 0.290426 0.0300173 0.925297 0.378054 0.30018 0.912287 0.27861 
-0.816806 0.575994 0.0325246 -0.739153 0.6673 0.0914542 -0.399992 0.893988 0.201967 
0.796854 0.581004 0.165704 0.99979 -0.0123578 0.0163426 0.969273 -0.244337 0.0284429 
0.332996 0.909181 0.250007 0.908655 -0.414692 0.0487476 0.925811 0.357158 0.123742 
-0.430962 0.897989 0.0888107 -0.464345 -0.862617 -0.200689 0.602161 -0.785627 0.142104 
0.912907 -0.377161 0.156045 0.923809 -0.361825 0.12514 0.989885 0.0390142 0.136403 
-0.442764 -0.884739 -0.145595 -0.232074 -0.97109 -0.0559031 -0.659692 -0.75024 -0.0441145 
0.160036 -0.978613 -0.129248 -0.788115 -0.607819 -0.0971136 0.793271 -0.533692 0.293075 
0.95987 -0.105057 0.260024 0.908562 -0.213668 0.358973 -0.690099 -0.723714 0.000905565 
0.656308 -0.630324 0.41467 -0.683926 0.725825 0.0736466 0.0716462 0.99313 0.0925186 
-0.58405 -0.810852 -0.0374759 -0.294061 -0.953016 0.0727237 -0.207221 -0.976977 0.0507516 
0.287295 -0.95215 0.104272 -0.854739 -0.514215 0.0707457 -0.959486 0.281728 0.00406928 
0.317238 0.922956 0.217975 0.724693 0.620632 0.299394 -0.503981 -0.820845 0.268731 
-0.470654 -0.864862 0.174636 0.0151913 -0.985036 0.171676 0.461796 -0.880209 0.109442 
-0.995782 -0.0890544 -0.0220718 -0.993669 0.100253 0.0507166 -0.89646 0.392883 0.204945 
-0.642909 0.654685 0.397561 0.869044 -0.189219 0.457121 0.862391 0.11081 0.493966 
0.932201 0.188291 0.309109 -0.547924 -0.795733 0.258048 -0.83401 -0.544388 0.0898263 
-0.978773 -0.188857 0.0795977 -0.946375 0.220648 0.235985 0.733473 -0.44299 0.515535 
0.746376 -0.265178 0.610412 0 0.268207 -0.963361 -0.83205 -0.5547 0 
-0.987175 0.159641 0 0.987175 0.159641 0 0 1 0 
-0.433595 -0.851716 0.294236 0.0321467 -0.936029 0.350451 -0.900815 -0.383825 0.203004 
0.630203 -0.566313 0.531163 -0.846067 0.509525 0.156701 0.76119 0.0619085 0.645568 
-0.0574045 0.99241 0.108752 0 0.268207 0.963361 -0.725865 -0.601607 0.33345 
0.679864 -0.21216 0.701977 0.762218 -0.172333 0.623959 0.411753 0.855933 0.312791 
0.496291 0.735186 0.461732 -0.413996 -0.831934 0.369449 -0.732496 0.650904 0.199434 
0.644 -0.125855 0.754602 0.711644 0.0553487 0.700356 0.741973 0.022948 0.670037 
0.657348 0.338058 0.673506 0.000124172 0.953204 0.302329 0.264529 0.922241 0.281949 
-0.304017 -0.817984 0.48834 -0.492144 -0.699899 0.517626 0.285014 -0.850016 0.44299 
-0.98298 -0.0191515 0.182712 -0.951818 0.206339 0.226864 0.638515 0.427247 0.640124 
0.482089 0.708367 0.515564 0.151952 0.947251 0.282179 0.420219 -0.764242 0.489235 
0.387213 -0.653363 0.650525 0.583383 -0.638733 0.501682 -0.916696 -0.277693 0.287323 
-0.944466 0.11303 0.308557 0.61664 0.246407 0.747689 0.536627 0.662054 0.523178 
0.220056 0.925228 0.309077 0.432324 0.761654 0.482679 -0.0592589 -0.768973 0.636529 
-0.844248 -0.359747 0.397275 -0.778174 0.601529 0.180577 0.661586 0.20564 0.721122 
0.566128 0.50143 0.654268 0.0271154 0.990839 0.132297 0.23569 0.910763 0.33906 
0.419995 0.717944 0.555122 0.00413521 -0.745749 0.666214 0.535493 0.478375 0.695992 
-0.0506971 0.971841 0.23012 0.519667 0.708512 0.477448 0.477601 0.814378 0.329675 
-0.0216947 -0.701259 0.712576 -0.580596 -0.614442 0.5342 -0.729665 -0.399987 0.554616 
-0.873683 -0.125577 0.470008 -0.899205 0.107398 0.424141 0.28285 0.713436 0.641096 
0.515881 0.274668 0.811434 -0.0102544 0.83403 0.551623 0.634525 0.446451 0.630919 
0.672731 0.447176 0.589464 0.233261 -0.659101 0.714965 -0.724921 -0.284785 0.627205 
0.519598 -0.428011 0.739476 0.627576 -0.231521 0.743335 -0.686826 0.707534 0.166332 
-0.246559 0.967899 0.0487784 -0.0693143 0.956139 0.284593 0.257239 0.821841 0.508336 
0.328895 0.860741 0.388527 0.14754 0.938569 0.311961 -0.362229 -0.578987 0.730454 
0.364119 -0.580659 0.728184 -0.895702 0.137926 0.422722 -0.761709 0.399931 0.50976 
0.499079 -0.069246 0.863785 0.581249 0.429197 0.691332 -0.351428 0.901834 0.251382 
0.437897 0.637334 0.634076 0.307629 0.703425 0.640748 -0.766834 -0.350565 0.537652 
-0.250932 -0.464902 0.849058 -0.842846 -0.210265 0.495378 -0.03424 -0.342151 0.939021 
-0.770202 -0.0793758 0.632841 -0.599979 0.368872 0.709901 -0.353915 0.242907 0.903183 
-0.601121 0.514295 0.611681 0.216453 0.0807281 0.97295 0.2279 0.371842 0.899886 
0.512722 0.235033 0.825757 -0.503012 0.668117 0.548269 0.163891 0.822712 0.544321 
0.0862387 0.81623 0.571255 -0.233225 0.912871 0.335071 -0.659468 -0.241727 0.711808 
-0.416498 -0.222599 0.881464 -0.484697 -0.0973685 0.869246 -0.0806777 0.295663 0.95188 
-0.125988 0.608839 0.783225 -0.146052 -0.0771185 0.986266 -0.412887 -0.227327 -0.881956 
-0.652294 -0.155218 -0.741903 0.0760061 -0.313441 -0.946561 -0.636641 0.0694476 -0.768027 
-0.503376 0.0656488 -0.86157 0.0959012 -0.231928 -0.967994 -0.375293 -0.0598722 -0.924971 
0.0122405 0.0275706 -0.999545 0.375428 -0.191629 -0.906825 -0.264099 0.122563 -0.956676 
0.00879352 -0.107936 -0.994119 0.14449 0.00816762 -0.989473 -0.515344 0.0139879 -0.856869 
0.582661 0.0920732 -0.807483 -0.406043 -0.355648 -0.841809 -0.605319 -0.383874 -0.697302 
-0.823369 0.260298 -0.504289 0.0649228 -0.273808 -0.959591 -0.546513 0.0691417 -0.834591 
-0.108944 -0.0891708 -0.99004 -0.811712 0.259952 -0.523018 0.502894 -0.084807 -0.860177 
-0.946287 0.323309 0.00352835 -0.843377 -0.0138789 -0.537143 -0.173224 0.0514748 -0.983536 
0.675994 0.20507 -0.707798 0.330095 -0.0666516 -0.941592 0.819159 0.489027 -0.299718 
0.598335 0.658721 -0.45616 0.670513 0.433806 -0.601852 -0.301993 -0.623576 -0.721078 
0.154949 -0.612232 -0.775347 0.334377 -0.38458 -0.860402 0.470736 -0.386633 -0.793047 
-0.762443 0.637116 0.112979 0.655005 0.359578 -0.664584 -0.911413 0.329967 0.245861 
-0.105832 0.957817 0.267181 0.794639 0.606442 0.0278666 -0.28387 0.958854 0.00399442 
0.685393 0.277897 -0.67306 -0.799359 -0.139875 -0.584346 -0.684286 0.728019 -0.0417262 
0.442896 0.890122 -0.107359 0.404525 0.832273 -0.379053 0.576451 0.719576 -0.387188 
0.456485 0.618592 -0.639504 0.232404 -0.859597 -0.455062 -0.787595 0.303416 -0.536314 
0.628779 0.536423 -0.562928 0.826159 -0.308067 0.471759 -0.17812 0.885356 0.429439 
-0.29379 -0.725815 -0.621997 -0.161073 -0.761869 -0.627384 -0.666521 -0.489795 -0.562006 
0.692175 -0.398964 -0.601432 -0.864667 0.47721 -0.156916 0.603494 -0.0272239 -0.796903 
0.470541 0.587488 -0.658368 0.528869 0.532081 -0.661201 0.589166 0.526915 -0.612571 
-0.59295 -0.59295 0.544812 0.160898 -0.860357 -0.48363 -0.742521 -0.47282 -0.474451 
0.458723 -0.733056 -0.502196 0.614184 -0.611787 -0.498493 -0.743094 0.657292 -0.125613 
0.218047 0.904309 -0.36699 0.297391 0.927748 -0.225481 -0.186371 -0.777291 -0.600903 
0.0694463 -0.7631 -0.642538 -0.528738 -0.669845 -0.52129 0.704216 -0.209215 -0.67846 
-0.827554 0.530545 -0.183508 -0.51741 0.854483 -0.0463185 0.354885 0.865198 -0.354245 
0.232529 -0.873627 -0.427441 -0.815294 0.314024 -0.486502 0.642736 0.55512 -0.527951 
0.83905 -0.313342 0.44476 -0.179629 0.888592 0.422064 0.0968238 -0.803028 -0.588023 
-0.958821 -0.110884 -0.261471 -0.629014 0.775706 -0.0512054 -0.307534 0.951304 -0.0210516 
0.0189595 0.99561 -0.0916626 -0.599545 -0.599545 0.530181 0.320573 0.842619 -0.432695 
0.58646 0.396877 -0.706083 -0.25067 -0.848476 -0.466104 -0.0122551 -0.932279 -0.361533 
0.10699 -0.906886 -0.407568 0.289529 -0.828195 -0.47986 0.673191 -0.375575 -0.63699 
-0.560985 0.827826 0.000947179 -0.19616 0.978213 0.0679718 0.639328 0.250614 -0.726948 
0.00940145 0.993169 -0.116302 0.575028 0.55037 -0.605339 -0.256274 -0.956623 -0.138547 
-0.982269 0.0968374 -0.160534 -0.892279 0.433912 -0.124736 0.742028 -0.0608399 -0.667603 
0.208976 0.908681 -0.361424 0.571808 0.504944 -0.646581 0.324046 0.885504 -0.332982 
0.249493 -0.89909 -0.359708 0.488328 -0.771342 -0.408126 -0.901308 0.409857 -0.140219 
-0.679094 0.719968 -0.143096 -0.350309 0.936481 -0.0169252 -0.056048 0.997186 0.0497824 
0.122269 0.989506 -0.0769937 0.674347 0.172342 -0.718021 -0.0795639 -0.965275 -0.248824 
-0.184091 -0.932459 -0.310856 -0.689162 -0.694569 -0.206468 0.68797 -0.503362 -0.522805 
-0.872827 0.483803 -0.064089 -0.709782 0.687408 -0.153884 -0.48283 0.871946 -0.0811494 
0.756571 -0.0572307 -0.651402 0.726719 0.301716 -0.617128 0.301435 0.885478 -0.353645 
0.484589 0.604721 -0.632049 0.413548 0.785148 -0.461 -0.419327 -0.905571 -0.0640771 
0.117673 -0.983325 -0.138652 -0.794632 -0.596241 -0.114266 -0.997483 0.0510657 -0.0491939 
0.726964 -0.394307 -0.562179 -0.205726 0.975668 0.0758151 0.129373 0.981414 -0.141736 
0.297692 0.917494 -0.263789 0.682888 0.317066 -0.658129 -0.0547497 0.972549 -0.226164 
0.665345 0.416319 -0.619673 0.837555 -0.345972 -0.422853 0.699669 0.712053 0.058686 
0.57743 -0.719779 -0.385348 0.809296 -0.307392 -0.50055 -0.332954 0.936001 0.114213 
0.421521 0.407445 -0.810129 0.907797 -0.0398955 -0.417509 0.155673 0.971093 -0.180951 
0.993161 -0.0662138 -0.0961556 -0.231807 -0.97257 -0.0193387 -0.940658 -0.327962 -0.0872016 
-0.973158 -0.226642 0.0399698 -0.997823 0.0634315 -0.0180742 0.883503 -0.212309 -0.41755 
0.94024 -0.129004 -0.315131 -0.606552 0.792118 0.0681436 0.889895 0.455186 0.0298868 
0.413825 0.899089 0.142786 -0.810795 -0.57312 0.118927 0.31586 -0.945765 -0.0759031 
-0.994365 -0.10594 -0.00378075 -0.942571 0.331874 -0.0376818 0.979107 0.118879 -0.164975 
-0.969542 -0.241126 0.0429801 0.602258 -0.760069 -0.244089 -0.996498 0.0780623 0.0299574 
-0.918434 0.395107 0.0192203 0.961596 -0.152633 -0.228114 -0.985388 -0.122459 0.118382 
0.840666 -0.483392 -0.244157 0.924963 0.379585 -0.0189416 -0.300999 -0.945908 0.121067 
0.886565 0.445888 -0.123232 0.283533 0.958898 -0.011126 0.256373 -0.962245 0.091416 
0.574495 -0.818501 0.00335603 0.990357 0.000264732 -0.138537 -0.463506 0.874935 -0.140178 
0.581259 0.813328 -0.0252139 -0.13992 -0.986509 0.0849813 0.154274 -0.963713 0.217845 
0.993494 0.0146612 -0.11294 0.991315 0.0229481 -0.129495 0.923743 0.370457 -0.0972687 
-0.489974 -0.857005 0.159587 -0.272411 -0.948692 0.16055 -0.985265 0.169327 0.0240909 
-0.962803 0.266401 0.0451776 -0.799276 0.587042 -0.128609 0.693327 0.69498 -0.190529 
-0.378561 0.872919 -0.307741 0.353154 0.905434 -0.235523 0.49529 0.832535 -0.248141 
0.0025765 -0.969185 0.246321 -0.97322 -0.142802 0.180141 0.735671 -0.671554 -0.0883392 
0.678088 0.727806 -0.102446 -0.708124 0.676434 -0.202479 -0.0429254 0.973874 -0.222996 
0.744392 -0.667202 -0.0268666 -0.980945 0.171861 0.0906154 0.945832 -0.309386 -0.0984005 
0.889457 0.355777 -0.28686 0.920218 0.239477 -0.309595 -0.409828 0.852303 -0.324994 
-0.535992 -0.807976 0.244718 0.882661 -0.466462 -0.0576435 0.980933 -0.0357992 -0.191021 
-0.111116 0.899229 -0.423132 0.660061 0.72481 -0.197408 0.44827 -0.879105 0.16195 
0.806932 -0.574806 0.135863 0.985532 -0.144666 -0.0883118 0.986822 0.110324 -0.11837 
0.988537 0.00315172 -0.150948 -0.33488 0.876251 -0.346468 -0.292432 -0.917724 0.268825 
0.0826296 -0.951108 0.297599 0.954493 -0.298234 0.000478929 0.332127 0.858833 -0.389996 
-0.676551 0.687487 -0.263894 -0.475451 0.800077 -0.365818 -0.448739 0.82754 -0.337359 
0.769828 0.558835 -0.308332 -0.910221 0.391049 -0.136304 -0.4785 0.815265 -0.32616 