# vtk DataFile Version 4.2
vtk output
ASCII
DATASET POLYDATA
POINTS 783 float
110.763 108.016 160.245 110.667 107.76 160.333 113.443 108.415 160.286 
113.09 108.238 160.285 113 108.478 160.355 118.121 108.828 160.383 
110.28 108.33 160.319 110.066 108.211 160.402 110.068 108.369 160.424 
113.22 108.713 160.525 118.278 109.303 160.372 118.846 109.387 160.401 
110.304 108.501 160.393 110.631 108.586 160.416 118.137 109.526 160.467 
119.617 109.966 160.453 119.488 109.974 160.489 119.63 110.045 160.475 
119.771 110.043 160.494 121.719 110.435 160.676 122.443 110.563 160.785 
119.675 110.148 160.598 122.06 110.676 160.695 111.968 106.932 160.611 
109.614 107.438 161.016 110.331 107.567 160.514 112.239 108.187 160.323 
115.954 107.869 160.521 119.808 109.294 160.609 109.578 108.215 160.916 
111.791 108.513 160.452 119.611 109.752 160.496 109.603 108.49 160.843 
109.999 108.511 160.553 110.837 108.71 160.59 111.677 108.793 160.836 
115.141 109.142 160.873 117.215 109.747 160.999 118.946 109.896 160.595 
120.355 110.245 160.618 110.493 108.754 160.686 117.781 109.879 160.94 
121.386 110.637 160.765 124.534 111.602 161.265 123.057 111.294 161.002 
124.476 111.696 161.216 124.342 111.7 161.198 124.703 111.621 161.377 
124.856 111.645 161.576 123.414 111.479 161.149 124.508 111.779 161.237 
124.596 111.816 161.31 124.518 111.821 161.265 110.572 106.289 161.159 
109.822 106.432 161.417 115.251 106.898 160.942 109.342 107.318 161.479 
119.959 108.637 160.997 122.596 109.606 161.35 122.781 109.449 161.599 
109.551 108.378 161.176 109.54 108.56 160.903 109.534 108.566 160.942 
109.548 108.614 160.871 112.473 109.048 161.473 117.621 109.994 161.435 
123.495 110.419 161.357 109.62 108.616 160.821 118.142 110.095 161.266 
120.372 110.725 161.265 124.772 111.515 161.493 124.657 111.346 161.497 
122.877 111.436 161.265 123.991 111.584 161.214 124.355 111.788 161.533 
124.857 111.841 161.68 124.965 111.763 161.754 110.223 104.79 162.356 
110.7 104.804 162.188 109.948 105.165 162.217 111.053 104.7 162.2 
109.419 106.096 162.026 109.009 106.622 162.363 119.805 107.648 161.814 
122.207 108.583 162.103 109.188 107.423 161.876 109.37 107.872 162.27 
112.642 109.129 161.988 112.942 109.153 162.34 109.533 108.201 161.756 
109.825 108.631 161.074 114.354 109.336 161.911 117.51 109.985 161.89 
118.59 110.278 161.657 125.366 111.467 162.288 125.347 111.654 162.398 
125.047 111.833 162.072 110.049 104.018 163.121 108.833 105.561 163.252 
118.568 107.131 161.746 108.939 106.855 163.061 121.677 111.135 162.303 
125.515 111.315 162.572 125.627 111.27 162.77 125.659 111.182 162.915 
125.599 111.329 162.87 125.474 111.532 162.684 109.066 103.85 164.164 
108.851 104.329 164.026 108.94 106.789 163.789 109.225 107.286 163.721 
111.011 108.532 163.344 124.862 109.974 162.941 108.452 104.83 164.747 
108.501 105.479 164.696 125.663 110.829 163.288 125.687 110.693 163.713 
123.111 111.181 163.904 125.636 111.12 163.649 108.291 104.089 165.602 
117.502 104.226 165.231 108.432 105.402 165.542 120.182 109.977 165.304 
125.655 110.337 164.244 125.625 110.674 164.599 108.066 103.971 166.479 
108.693 105.679 166.53 125.632 110.174 165.267 125.003 110.869 165.072 
109.419 100.931 167.865 109.127 101.034 167.885 108.837 101.356 167.683 
107.892 103.203 167.334 124.695 108.113 166.03 125.103 108.486 166.531 
125.432 109.149 166.417 125.523 109.779 166.164 124.844 110.685 165.651 
125.06 110.364 166.224 125.563 109.474 167.066 125.551 109.471 167.422 
124.528 110.229 166.972 125.326 109.945 166.796 107.532 102.102 169.081 
108.016 103.984 169.641 122.452 109.417 168.314 108.127 100.172 170.428 
110.008 99.7441 170.061 107.454 100.709 170.719 112.815 100.508 169.263 
107.581 101.184 169.9 107.32 101.391 170.434 107.423 102.688 170.491 
108.726 104.546 169.965 123.428 106.57 168.73 125.486 109.084 168 
125.424 109.077 168.325 123.971 109.278 169.167 125.154 109.473 168.36 
107.583 99.6029 171.929 107.412 100.093 171.565 107.17 101.968 171.521 
123.751 106.883 169.319 125.3 109.085 168.629 125.091 109.147 168.879 
124.417 109.067 169.534 107.648 99.2589 172.398 106.933 101.236 172.242 
116.022 101.217 171.556 106.927 101.515 173.21 107.274 102.223 172.381 
107.932 103.189 171.905 121.089 104.695 171.199 124.437 107.91 169.743 
124.178 108.113 170.384 124.727 108.779 169.532 124.495 108.785 169.936 
124.396 108.884 169.984 124.46 108.88 169.959 124.432 108.839 170.08 
108.148 98.0349 174.121 106.811 100.093 173.046 106.601 100.064 173.889 
106.661 100.766 173.887 107.222 101.944 174.087 107.492 102.284 173.915 
122.05 105.587 171.414 123.06 106.5 170.946 124.17 108.558 170.311 
124.411 108.762 170.124 107.361 97.9171 174.96 106.702 101.117 175.327 
108.184 102.813 173.83 120.257 106.75 172.611 123.162 107.404 171.335 
121.722 107.126 172.223 122.403 107.281 171.84 107.244 97.3013 176.402 
106.666 98.2431 175.499 108.315 97.3742 175.732 117.666 102.307 173.96 
121.55 105.85 172.866 121.552 106.116 172.974 120.681 106.484 173.12 
121.8 106.504 172.739 122.058 106.842 172.421 107.944 97.2168 176.219 
108.436 97.1145 176.651 110.294 97.8567 175.647 106.024 98.607 176.576 
105.844 99.5497 176.919 106.213 100.447 177.13 106.818 101.247 176.25 
107.707 101.957 176.146 118.191 105.115 174.626 119.165 105.366 174.468 
120.768 105.349 173.537 119.71 105.731 174.051 120.456 106.173 173.519 
106.241 97.2467 177.887 108.811 97.1119 177.384 110.371 97.7309 176.998 
105.616 98.9066 177.53 108.575 102.258 177.046 118.121 103.822 175.62 
118.901 104.798 174.831 119.48 105.273 174.552 119.327 105.258 174.621 
119.894 105.405 174.181 119.656 105.478 174.409 120.315 105.902 173.771 
119.629 105.55 174.413 119.572 105.502 174.506 121.004 108.013 177.009 
121.004 108.013 177.009 121.004 108.013 177.009 121.004 108.013 177.009 
121.004 108.013 177.009 106.35 97.0059 178.288 107.806 96.861 178.146 
106.046 100.309 178.554 117.062 102.486 176.38 117.361 102.884 176.297 
117.627 103.53 176.261 119.522 105.39 174.559 119 107.009 178.017 
119 107.009 178.017 119 107.009 178.017 119.588 105.477 174.516 
119 107.009 178.017 119 107.009 178.017 121.004 108.013 177.009 
106.157 96.8699 179.425 105.396 97.878 178.971 111.513 98.4476 178.707 
114.953 101.36 178.246 116.156 101.947 177.15 117.241 103.045 176.588 
116.892 103.079 176.951 115.703 103.449 177.484 117.42 103.779 176.373 
119 107.009 178.017 106.329 96.6968 180.085 104.876 98.4335 181.048 
105.047 99.0535 181.582 106.114 100.288 180.535 107.594 101.345 179.888 
115.366 101.884 178.176 115.337 102.505 178.454 116.174 103.041 177.535 
114.885 103.143 178.262 115.472 103.198 178.036 115.345 103.167 178.184 
105.065 97.5156 180.898 111.191 98.4627 179.741 112.411 99.6879 180.133 
113.966 101.074 179.42 114.473 102.397 179.232 113.465 102.805 179.186 
116 105.009 181.017 116 105.009 181.017 116 105.009 181.017 
116 105.009 181.017 115.247 103.04 178.307 116 105.009 181.017 
107.939 96.9687 181.445 104.839 97.7136 181.734 109.119 101.488 181.662 
114.115 102.137 179.597 113.633 102.378 179.758 116 105.009 181.017 
105.649 96.6642 182.268 105.577 96.6683 182.393 105.478 96.7774 182.262 
105.244 96.976 182.31 104.896 97.4027 182.619 107.695 97.0694 182.606 
104.773 97.6821 183.045 104.705 97.9931 182.737 104.689 98.3304 183.096 
109.517 98.1209 182.011 110.869 99.0166 181.585 111.58 100.087 181.87 
105.051 99.2773 183.513 112.766 101.743 180.778 111.896 101.755 181.617 
105.588 96.7139 182.589 106.018 96.8241 183.531 105.147 97.0848 183.206 
106.442 96.8 183.178 108.105 97.5396 183.129 108.95 98.2457 183.057 
111.658 100.689 182.04 111.328 101.484 182.158 104.965 97.4889 184.049 
104.825 97.8286 184.42 104.692 98.4273 184.478 108.178 98.2904 184.127 
108.814 99.4799 184.232 109.584 99.8905 183.61 110.295 99.8809 182.975 
109.807 100.604 183.372 108.45 100.608 183.748 110.387 101.023 182.839 
110.881 100.831 182.654 110.852 101.269 182.618 110.778 101.308 182.6 
111.052 101.213 182.491 104.88 97.9635 185.036 106.909 97.6142 184.773 
104.763 98.7596 185.418 104.972 99.244 185.241 105.362 99.5386 185.595 
105.779 99.7349 185.323 110.926 101.358 182.552 105.752 97.2946 184.981 
104.807 98.2941 185.396 106.423 97.757 185.482 104.999 99.2033 185.78 
105.157 99.3503 186.098 108.054 99.5711 184.959 108.051 99.8506 184.813 
105.419 97.7955 185.615 106.033 97.6548 185.583 104.915 98.2901 185.77 
105.115 98.1527 185.868 106.382 98.0619 185.951 104.894 98.7629 186.14 
106.602 99.0206 186.498 104.938 98.9883 186.133 105.104 99.1272 186.612 
106.992 99.5188 185.882 105.442 99.515 186.659 108.004 102.013 188.009 
108.004 102.013 188.009 108.004 102.013 188.009 108.004 102.013 188.009 
108.004 102.013 188.009 105.702 97.9053 185.966 106 98.2289 186.398 
105.829 98.3225 186.565 104.984 98.6555 186.297 106.021 98.7151 186.885 
106.346 99.2789 186.747 105.273 99.3603 186.951 105.344 99.4336 187.227 
105.98 99.5476 186.92 105.607 99.512 187.291 108.004 102.013 188.009 
105.658 98.422 186.65 105.394 98.6605 186.812 105.665 98.8996 187.217 
105.269 99.1975 187.385 105.596 99.3448 187.53 105.289 99.3087 187.478 
105.911 99.4488 187.132 105.483 99.4453 187.494 106 102.009 190.017 
106 102.009 190.017 106 102.009 190.017 106 102.009 190.017 
106 102.009 190.017 105.379 99.3319 187.714 105.314 99.3287 187.659 
105.448 99.3736 187.645 105.369 99.3716 187.721 105.36 99.3818 187.633 
105 102.009 191.017 105 102.009 191.017 105 102.009 191.017 
106 102.009 190.017 105 102.009 191.017 105 102.009 191.017 
105.331 99.312 187.7 105.339 99.3554 187.725 105 102.009 191.017 
105.583 99.4674 268.991 105.549 99.4039 269.039 105.607 99.4313 268.976 
105.635 99.0705 269.107 105.553 98.7966 269.331 105.711 98.9202 269.155 
105.587 99.287 269.058 105.481 99.3085 269.285 105.831 99.0864 269.055 
105.76 99.2755 268.991 105.939 99.2847 268.999 105.573 99.51 269.363 
105.727 99.4352 268.988 105.922 99.4452 269.001 105.721 99.6002 269.222 
[...]
POINT_DATA 783
SCALARS scalars float
LOOKUP_TABLE default
1 1 1 1 1 1 1 1 1 
1 1 1 1 1 1 1 1 1 
1 1 1 1 1 1 1 1 1 
1 1 1 1 1 1 1 1 1 
1 1 1 1 1 1 1 1 1 
1 1 1 1 1 1 1 1 1 
1 1 1 1 1 1 1 1 1 
1 1 1 1 1 1 1 1 1 
1 1 1 1 1 1 1 1 1 
1 1 1 1 1 1 1 1 1 
1 1 1 1 1 1 1 1 1 
1 1 1 1 1 1 1 1 1 
1 1 1 1 1 1 1 1 1 
1 1 1 1 1 1 1 1 1 
1 1 1 1 1 1 1 1 1 
1 1 1 1 1 1 1 1 1 
1 1 1 1 1 1 1 1 1 
1 1 1 1 1 1 1 1 1 
1 1 1 1 1 1 1 1 1 
1 1 1 1 1 1 1 1 1 
1 1 1 1 1 1 1 1 1 
1 1 1 1 1 1 1 1 1 
1 1 1 1 1 1 1 1 1 
1 1 1 1 1 1 1 1 1 
1 1 1 1 1 1 1 1 1 
1 1 1 1 1 1 1 1 1 
1 1 1 1 1 1 1 1 1 
1 1 1 1 1 1 1 1 1 
1 1 1 1 1 1 1 1 1 
1 1 1 1 1 1 1 1 1 
1 1 1 1 1 1 1 1 1 
1 1 1 1 1 1 1 1 1 
1 1 1 1 1 1 1 1 1 
1 1 1 1 1 1 1 1 1 
1 1 1 1 1 1 1 1 1 
1 1 1 1 1 1 1 1 1 
1 1 1 1 1 1 1 1 1 
1 1 1 1 1 1 1 1 1 
1 1 1 1 1 1 1 1 1 
1 1 1 1 1 1 1 1 1 
1 1 1 1 1 1 1 1 1 
1 1 1 1 1 1 1 1 1 
1 1 1 1 1 1 1 1 1 
1 1 1 1 1 1 1 1 1 
1 1 1 1 1 1 1 1 1 
1 1 1 1 1 1 1 1 1 
1 1 1 1 1 1 1 1 1 
1 1 1 1 1 1 1 1 1 
1 1 1 1 1 1 1 1 1 
1 1 1 1 1 1 1 1 1 
1 1 1 1 1 1 1 1 1 
1 1 1 1 1 1 1 1 1 
1 1 1 1 1 1 1 1 1 
1 1 1 1 1 1 1 1 1 
1 1 1 1 1 1 1 1 1 
1 1 1 1 1 1 1 1 1 
1 1 1 1 1 1 1 1 1 
1 1 1 1 1 1 1 1 1 
1 1 1 1 1 1 1 1 1 
1 1 1 1 1 1 1 1 1 
1 1 1 1 1 1 1 1 1 
1 1 1 1 1 1 1 1 1 
1 1 1 1 1 1 1 1 1 
1 1 1 1 1 1 1 1 1 
1 1 1 1 1 1 1 1 1 
1 1 1 1 1 1 1 1 1 
1 1 1 1 1 1 1 1 1 
1 1 1 1 1 1 1 1 1 
1 1 1 1 1 1 1 1 1 
1 1 1 1 1 1 1 1 1 
1 1 1 1 1 1 1 1 1 
1 1 1 1 1 1 1 1 1 
1 1 1 1 1 1 1 1 1 
1 1 1 1 1 1 1 1 1 
1 1 1 1 1 1 1 1 1 
1 1 1 1 1 1 1 1 1 
1 1 1 1 1 1 1 1 1 
1 1 1 1 1 1 1 1 1 
1 1 1 1 1 1 1 1 1 
1 1 1 1 1 1 1 1 1 
1 1 1 1 1 1 1 1 1 
1 1 1 1 1 1 1 1 1 
1 1 1 1 1 1 1 1 1 
1 1 1 1 1 1 1 1 1 
1 1 1 1 1 1 1 1 1 
1 1 1 1 1 1 1 1 1 
1 1 1 1 1 1 1 1 1 

NORMALS Normals float
-0.0598701 -0.108195 -0.992325 -0.154472 -0.376576 -0.913416 -0.00392243 0.252672 -0.967544 
-0.000937771 -0.0302091 -0.999543 -0.118104 0.469512 -0.874991 -0.0286934 -0.160454 -0.986626 
-0.182655 0.138933 -0.973311 -0.626292 -0.0905297 -0.774315 -0.519628 0.297536 -0.800911 
-0.0967226 0.74773 -0.65692 -0.0427903 -0.0335499 -0.998521 0.0506446 0.0871595 -0.994906 
-0.227461 0.663164 -0.713074 -0.000714972 0.667448 -0.744656 -0.156976 0.462682 -0.872516 
-0.0091011 0.0442069 -0.998981 -0.300634 0.319741 -0.898546 -0.118232 0.55487 -0.823493 
0.167605 0.292543 -0.941449 0.0640038 -0.189603 -0.979772 0.24966 -0.346009 -0.904405 
-0.181727 0.755787 -0.629095 0.0685714 0.197275 -0.977947 0.0304504 -0.404632 -0.913972 
-0.722679 -0.231133 -0.651393 -0.308899 -0.37569 -0.87375 0.021837 0.273559 -0.961607 
0.15158 -0.454109 -0.877957 0.179339 -0.4134 -0.892714 -0.931584 0.0652908 -0.357615 
0.158449 0.615889 -0.771735 0.0790601 -0.084066 -0.993319 -0.790805 -0.0674035 -0.608346 
-0.5207 0.431565 -0.736629 -0.0356963 0.850769 -0.524326 0.0323934 0.881761 -0.470583 
-0.157819 0.892869 -0.421756 -0.286007 0.875796 -0.388822 -0.161735 0.464503 -0.870677 
0.0819508 0.207091 -0.974883 -0.13677 0.949964 -0.280826 -0.120471 0.788709 -0.602848 
-0.13603 0.600969 -0.787612 0.416712 -0.364329 -0.832836 -0.0886445 0.644258 -0.759654 
0.327789 -0.079085 -0.941435 -0.0338264 0.310926 -0.949832 0.669648 -0.150489 -0.727272 
0.834325 -0.161088 -0.527211 -0.124022 0.826869 -0.548549 0.317371 0.308998 -0.896546 
0.608977 0.445571 -0.656211 -0.0677605 0.853285 -0.517024 -0.280194 -0.543592 -0.791201 
-0.475486 -0.475103 -0.740399 0.212715 -0.673344 -0.708068 -0.835463 -0.159912 -0.525766 
0.102291 -0.565652 -0.818276 0.296528 -0.529836 -0.794572 0.577544 -0.534652 -0.61692 
-0.918178 0.376293 0.123903 -0.865092 -0.236806 -0.442198 -0.9841 -0.102941 -0.144745 
-0.834656 -0.191956 -0.516239 -0.0594836 0.971217 -0.230648 -0.295403 0.938094 -0.18088 
0.50546 -0.514864 -0.692405 -0.519868 0.535664 -0.665433 -0.0414977 0.923672 -0.380929 
-0.332876 0.93624 -0.112466 0.793566 -0.39671 -0.461382 0.564976 -0.576505 -0.590292 
-0.209105 0.907452 -0.364425 -0.0831801 0.61096 -0.787279 -0.186363 0.982011 0.030379 
0.342496 0.9123 -0.224513 0.778022 0.408357 -0.477416 -0.492049 -0.681617 -0.54156 
-0.13311 -0.351748 -0.926582 -0.471507 -0.424448 -0.772997 -0.024099 -0.612867 -0.789819 
-0.722632 -0.47075 -0.50616 -0.935074 -0.0826423 -0.344684 0.146284 -0.697591 -0.701404 
0.404524 -0.683666 -0.607421 -0.963717 0.163784 -0.210769 -0.633558 0.729261 0.258424 
-0.116895 0.991305 -0.0604209 -0.0532836 0.997957 0.0352454 -0.679558 0.696522 0.230342 
-0.279432 0.922099 0.267677 -0.150007 0.986746 0.0618915 -0.263059 0.963097 -0.0569593 
-0.116463 0.959805 -0.255363 0.863457 -0.0466013 -0.502265 0.764712 0.606855 -0.216663 
0.279308 0.958303 0.0603484 -0.388271 -0.662425 -0.640655 -0.874811 -0.234721 -0.423807 
0.268586 -0.719512 -0.64044 -0.953258 0.298939 -0.0439784 -0.203894 0.974167 0.0970897 
0.851475 -0.0715333 -0.519493 0.933938 0.0222093 -0.356744 0.994765 0.0829036 -0.0597396 
0.877659 0.468788 -0.099767 0.660808 0.745959 0.0829276 -0.687207 -0.55815 -0.464989 
-0.79147 -0.369003 -0.487249 -0.939271 0.343127 0.00587171 -0.773124 0.600532 0.204059 
-0.281899 0.908883 0.307351 0.613943 -0.605403 -0.506519 -0.970018 -0.00667611 -0.242943 
-0.947732 0.317211 -0.0343642 0.749773 -0.513203 -0.417687 0.968843 -0.223864 -0.105965 
-0.160607 0.942026 0.294605 0.763028 0.609253 0.21587 -0.949011 -0.190408 -0.251243 
0.3528 -0.796871 -0.490437 -0.927188 0.37459 0.00233356 -0.242472 0.917224 0.316082 
0.941525 -0.311453 -0.128562 0.967167 0.218448 0.129879 -0.964873 -0.136246 -0.224628 
-0.58844 0.75822 0.280787 0.99148 0.0651229 0.112809 0.177505 0.952372 0.247951 
-0.209406 -0.812549 -0.543979 -0.467269 -0.764455 -0.444149 -0.59468 -0.646651 -0.477701 
-0.961308 -0.110865 -0.252181 0.633157 -0.738898 -0.230526 0.828747 -0.557967 -0.0430216 
0.940057 -0.328738 -0.0906887 0.985669 0.153003 0.071045 0.275453 0.898731 0.341186 
0.30947 0.888604 0.338541 0.982575 -0.185035 -0.0175414 0.91929 0.353223 0.173605 
0.185453 0.905644 0.381335 0.661878 0.689321 0.294541 -0.850938 -0.381575 -0.360977 
-0.759462 0.60628 0.235885 -0.241662 0.82645 0.508507 -0.529724 -0.694058 -0.48752 
-0.0551241 -0.924352 -0.377538 -0.849866 -0.416893 -0.322378 0.199265 -0.874372 -0.442456 
-0.762324 -0.471569 -0.443266 -0.971317 -0.137191 -0.194223 -0.941483 0.336234 0.0235991 
-0.629545 0.72165 0.287915 0.698907 -0.71293 -0.0570923 0.947255 -0.300952 0.110164 
0.955825 0.0711865 0.285188 -0.0331575 0.905199 0.423692 0.42992 0.785934 0.444384 
-0.485485 -0.733092 -0.476321 -0.856448 -0.393379 -0.33429 -0.982494 0.0892774 -0.163511 
0.769758 -0.638026 0.0199052 0.823171 0.402178 0.400801 0.570393 0.599995 0.560944 
0.192965 0.844436 0.499693 -0.523447 -0.723383 -0.450245 -0.975993 0.113403 -0.185951 
0.447702 -0.879699 -0.160287 -0.944735 0.319701 -0.0725701 -0.841479 0.538875 0.0390646 
-0.613137 0.764659 0.198393 0.620367 -0.780385 0.078388 0.875781 -0.398297 0.272704 
0.723816 -0.007184 0.689955 0.723736 0.429043 0.540488 0.815877 0.485881 0.313471 
-0.175871 0.896357 0.406956 0.774537 0.537389 0.333626 0.376805 0.662136 0.64776 
-0.192957 -0.843183 -0.501807 -0.937185 -0.155834 -0.312089 -0.972638 -0.0155816 -0.231802 
-0.962898 0.261616 -0.0662111 -0.764483 0.624088 0.161491 -0.702203 0.684209 0.196898 
0.764782 -0.572025 0.296472 0.74366 -0.615901 0.26007 0.0906507 0.632653 0.769112 
0.815961 0.142796 0.560194 -0.453319 -0.755747 -0.472598 -0.870736 0.491542 -0.0143109 
-0.508458 0.8181 0.268669 -0.21131 0.894302 0.394427 0.533135 0.315291 0.785085 
0.0497895 0.840294 0.53984 0.169117 0.771299 0.613594 -0.312 -0.895843 -0.316418 
-0.719579 -0.595576 -0.357064 0.0922297 -0.940597 -0.326759 0.641676 -0.752679 0.147396 
0.71401 -0.656264 0.243939 0.723031 -0.0746274 0.686773 0.247617 0.695743 0.67426 
0.598267 0.172895 0.782422 0.518498 0.434302 0.736574 -0.107869 -0.956022 -0.272739 
0.112132 -0.973823 -0.197725 0.376054 -0.908163 -0.183912 -0.866874 -0.439656 -0.235015 
-0.951172 0.259826 -0.166618 -0.77883 0.627045 0.0154172 -0.734104 0.674445 0.0788417 
-0.496295 0.86367 0.0881201 -0.000950447 0.823266 0.567654 -0.229684 0.762871 0.604378 
-0.10368 -0.734886 -0.670219 0.0922715 0.804248 0.587087 0.236003 0.673736 0.700274 
-0.714155 -0.621536 -0.321986 0.378155 -0.92072 -0.0963003 0.403259 -0.915001 -0.0124503 
-0.974896 -0.118181 -0.188708 -0.43844 0.893235 0.0995079 0.790444 -0.352076 0.501239 
0.327779 0.321518 0.888362 0.618809 -0.217728 0.754765 0.0583548 0.335178 0.940346 
0.565327 0.183179 0.80427 0.824799 0.0752505 0.560397 0.379385 0.492968 0.782975 
0.609243 0.579399 0.541405 -0.00988215 0.694297 0.719621 0.232404 -0.859597 -0.455062 
-0.787595 0.303416 -0.536314 0.628779 0.536423 -0.562928 0.826159 -0.308067 0.471759 
-0.17812 0.885356 0.429439 -0.360752 -0.904438 -0.227704 0.180112 -0.983543 -0.0142429 
-0.825833 0.562435 -0.0408309 0.759662 -0.53934 0.363354 0.754906 -0.459372 0.468075 
0.759815 -0.0556737 0.647751 0.483659 -0.00968146 0.875203 0 0.268207 -0.963361 
-0.83205 -0.5547 0 -0.987175 0.159641 0 0.624849 0.265067 0.734373 
0.987175 0.159641 0 0 1 0 -0.59295 -0.59295 0.544812 
-0.624626 -0.760086 -0.179199 -0.874774 -0.40679 -0.263236 0.61387 -0.768556 0.180239 
0.673368 -0.52536 0.520165 0.712628 -0.537582 0.45074 0.707915 -0.357646 0.609053 
0.688052 -0.152915 0.709367 0.370072 0.674642 0.638674 0.532167 0.38967 0.751635 
0 0.268207 0.963361 -0.294945 -0.952324 -0.0780151 -0.975095 0.160191 -0.153388 
-0.915147 0.384782 -0.120202 -0.645481 0.762948 0.0355602 -0.36809 0.910245 0.18964 
0.686816 -0.351547 0.636159 0.678057 0.08957 0.729531 0.552237 0.421899 0.719052 
0.180546 0.80285 0.568186 0.490653 0.614303 0.617974 0.335054 0.685264 0.646647 
-0.806139 -0.57398 -0.143829 0.576381 -0.793345 0.195933 0.72303 -0.569127 0.391564 
0.730377 -0.459471 0.505407 0.483425 0.549832 0.681164 -0.0132573 0.940966 0.338242 
0 0.268207 -0.963361 -0.83205 -0.5547 0 -0.987175 0.159641 0 
0.987175 0.159641 0 0.48037 0.462399 0.745273 0 1 0 
0.385884 -0.911669 0.141254 -0.813904 -0.530817 -0.236204 -0.254895 0.932912 0.254371 
0.643757 0.129864 0.75413 0.402869 0.613049 0.679609 0 0.268207 0.963361 
-0.299323 -0.926997 -0.226013 -0.233624 -0.969492 0.0742018 -0.645455 -0.728098 -0.230781 
-0.717689 -0.692561 -0.0726785 -0.85087 -0.525229 -0.0124354 0.431311 -0.86266 0.264174 
-0.935249 -0.348119 0.064211 -0.997632 -0.0661743 -0.0187404 -0.991276 0.130158 -0.0207585 
0.593313 -0.710436 0.378498 0.648211 -0.657822 0.383526 0.709227 -0.421582 0.565036 
-0.748126 0.663556 0.000913266 0.633286 0.289098 0.717893 0.336906 0.710829 0.617427 
-0.603431 -0.783745 0.147022 -0.149353 -0.957692 0.246009 -0.63818 -0.755607 0.147595 
0.29109 -0.913648 0.28375 0.526732 -0.763933 0.372772 0.645216 -0.602562 0.469697 
0.711853 -0.0908738 0.696424 0.192342 0.822885 0.534663 -0.900376 -0.414246 0.133129 
-0.726357 -0.659044 0.195109 -0.999302 -0.0366889 0.00702552 0.595445 -0.631973 0.49604 
0.695951 -0.162054 0.699565 0.639773 -0.181925 0.746722 0.638716 -0.391796 0.662222 
0.459646 0.364259 0.809963 0.177425 0.818563 0.546329 0.153739 0.653927 0.740772 
0.559907 0.083437 0.824344 0.331874 0.291941 0.897012 -0.299556 0.887625 0.349839 
0.587751 0.122269 0.799749 -0.85995 -0.481837 0.168285 0.441849 -0.801283 0.403378 
-0.995054 0.0399518 0.0909465 -0.769633 0.638077 -0.0228812 -0.543491 0.838378 0.0417192 
-0.333377 0.937739 0.0974969 0.302836 0.595805 0.743846 -0.244748 -0.891896 0.380289 
-0.911683 -0.364616 0.189447 0.354235 -0.759553 0.545524 -0.856041 0.511113 0.0771841 
-0.67583 0.725537 0.129805 0.697043 0.0904798 0.711297 0.52394 0.464674 0.713838 
-0.534817 -0.654937 0.533881 0.243012 -0.822069 0.514926 -0.769602 -0.549375 0.325424 
-0.519146 -0.758167 0.394551 0.537765 -0.604528 0.587669 -0.971244 0.0627422 0.229669 
0.725053 -0.111769 0.679563 -0.922786 0.300189 0.241563 -0.895462 0.415217 0.160445 
0.62533 0.413563 0.661761 -0.48216 0.874515 0.0523994 0.232404 -0.859597 -0.455062 
-0.787595 0.303416 -0.536314 0.628779 0.536423 -0.562928 0.826159 -0.308067 0.471759 
-0.17812 0.885356 0.429439 -0.0580016 -0.770757 0.634483 -0.258055 -0.842302 0.473217 
-0.0878139 -0.839936 0.535534 -0.910018 -0.211267 0.356698 0.41222 -0.569074 0.711498 
0.711358 0.32842 0.621377 -0.857978 0.512413 0.0361559 -0.623276 0.777871 0.0802702 
0.323184 0.849192 0.417643 0.00532934 0.963082 0.269155 -0.59295 -0.59295 0.544812 
-0.340072 -0.875757 0.342637 -0.501552 -0.771482 0.391485 0.167372 -0.680802 0.713089 
-0.96451 0.234176 0.121994 0.678019 0.0436038 0.73375 -0.957974 0.264645 0.110672 
0.564398 0.612952 0.552942 -0.0311342 0.941855 0.334573 0 0.268207 -0.963361 
-0.83205 -0.5547 0 -0.987175 0.159641 0 0.987175 0.159641 0 
0 1 0 0.399521 -0.474274 0.784504 -0.957777 0.231111 0.171028 
0.608473 0.282126 0.741732 0.189666 0.66408 0.723205 -0.458466 0.878314 0.135547 
0 0.268207 -0.963361 -0.83205 -0.5547 0 -0.987175 0.159641 0 
0 0.268207 0.963361 0.987175 0.159641 0 0 1 0 
-0.596963 -0.575806 0.558644 -0.615634 0.273574 0.739021 0 0.268207 0.963361 
-0.482329 0.597029 -0.641027 -0.850641 -0.108 -0.514535 -0.335503 -0.156514 -0.928946 
-0.400657 -0.376525 -0.835286 -0.304621 -0.62923 -0.715035 -0.22364 -0.538311 -0.812531 
-0.653357 -0.268905 -0.707682 -0.944237 0.239695 -0.225749 0.0390732 -0.417538 -0.907819 
-0.13092 -0.179773 -0.974957 0.228289 -0.218637 -0.948727 -0.69665 0.717249 0.0152514 
-0.0143715 0.0348085 -0.999291 0.111144 0.239556 -0.9645 -0.367734 0.914323 -0.169664 
-0.587842 -0.559397 -0.584393 -0.821133 -0.270546 -0.502538 -0.0592502 -0.694315 -0.717228 
0.102794 -0.707966 -0.698726 -0.820418 0.566677 0.0761005 0.264218 0.0941431 -0.959857 
0.596231 -0.126711 -0.79275 0.318578 0.383405 -0.866896 0.0756893 0.742994 -0.665004 
0.607282 0.221665 -0.762937 0.417193 0.654996 -0.630024 0.18077 -0.754101 -0.631391 
-0.954467 0.0878614 -0.285085 0.403961 -0.569483 -0.715894 0.64159 -0.414662 -0.645304 
-0.758471 0.647853 0.0707698 -0.140201 0.979304 -0.14597 0.063964 0.9027 -0.425489 
0.246072 0.857387 -0.452036 -0.548031 -0.773336 -0.318771 -0.492547 -0.685636 -0.536005 
-0.118847 -0.872868 -0.473263 -0.753406 -0.541 -0.373762 -0.822599 -0.366457 -0.434788 
0.529435 -0.652067 -0.542684 -0.919699 0.356444 -0.164628 0.73634 -0.222865 -0.638854 
-0.496197 0.793089 0.353268 0.725726 0.201616 -0.657779 0.54838 0.436205 -0.713446 
0.624711 0.086609 -0.776038 0.0770997 0.859426 -0.505413 -0.913074 -0.305853 -0.269723 
-0.993696 0.11156 -0.0110779 -0.591047 0.806584 -0.00926618 0.0710719 0.830684 -0.552189 
0.665029 -0.139718 -0.733632 0.452083 0.443967 -0.773637 -0.778757 -0.604295 -0.16842 
-0.621632 -0.770847 -0.139174 0.290978 -0.877725 -0.380697 -0.994064 -0.092704 0.0569471 
-0.338069 0.918785 -0.203824 -0.026408 0.895079 -0.445125 -0.0611503 0.870863 -0.487708 
0.483929 0.39677 -0.779991 -0.276138 -0.937303 -0.212629 0.040998 -0.986694 -0.157335 
-0.75543 -0.654261 0.035595 -0.958608 -0.27149 0.0858155 -0.85611 0.516445 -0.0190007 
0.655947 -0.351641 -0.667893 -0.666315 0.744368 -0.0440423 0.635271 -0.21989 -0.740324 
-0.191761 0.932951 -0.304681 0.53008 0.285405 -0.798473 0.0999565 0.841065 -0.531618 
0.607754 0.0892421 -0.789095 0.0696841 0.865609 -0.495848 0.459243 0.280596 -0.842829 
0.460996 0.501486 -0.732116 -0.312293 -0.949974 0.00480194 -0.520107 0.85292 -0.0449066 
0.62357 -0.363395 -0.692174 -0.249408 0.955762 -0.155931 -0.19225 0.957095 -0.216817 
0.7175 -0.108185 -0.688106 0.638659 0.18841 -0.746067 0.245284 0.812852 -0.528307 
0.562399 0.374756 -0.737065 -0.324762 -0.944143 0.0558872 0.143073 -0.985842 -0.0874424 
0.41387 -0.905247 -0.096122 0.655799 -0.5156 -0.551439 0.699351 -0.419242 -0.578917 
0.0875188 0.855257 -0.510761 0.262117 0.859905 -0.438015 0.395883 0.605508 -0.690389 
0.00184747 -0.999992 -0.00356309 0.244775 -0.969228 0.0261035 0.592457 -0.71205 -0.376802 
-0.995598 0.0870592 0.0347165 -0.895713 0.442085 0.0475306 0.70713 -0.411105 -0.57529 
0.666182 -0.0388982 -0.744774 0.4364 0.482981 -0.759134 -0.330636 -0.929458 0.163668 
-0.125363 -0.98678 0.102709 0.251163 -0.960908 0.116508 -0.80995 -0.550137 0.203298 
-0.991524 -0.102058 0.0803986 0.738208 -0.516401 -0.434026 0.24475 0.893055 -0.377559 
-0.0219291 0.927288 -0.373706 0.716236 -0.0865106 -0.692475 0.757793 0.00459186 -0.652479 
0.253818 0.746856 -0.61464 -0.986988 -0.0259796 0.158684 0.541343 -0.791827 -0.282769 
0.00675926 0.959473 -0.281719 0.67949 -0.0735238 -0.729992 0.273379 0.806218 -0.524668 
-0.427343 0.903929 0.0170464 0.235601 0.797355 -0.555623 0.524029 0.295305 -0.798867 
0.754606 0.0879764 -0.650254 0.59899 0.463437 -0.653022 -0.91563 -0.283274 0.285269 
-0.964697 0.226484 0.134407 0.213475 0.875201 -0.43411 -0.0129537 0.865923 -0.500009 
0.640869 0.260231 -0.722196 0.844769 -0.294552 -0.44677 0.717298 0.49066 -0.494707 
-0.544223 -0.784193 0.2981 -0.893467 -0.355009 0.275109 -0.983176 0.0692886 0.169009 
-0.940676 0.253134 0.225946 -0.87525 0.46147 0.144851 -0.770111 0.632755 0.0809379 
-0.251549 0.934496 -0.251873 0.494568 0.376584 -0.783318 0.812336 -0.055651 -0.580529 
0.880427 0.278581 -0.383721 0.223118 0.859729 -0.459439 -0.729127 -0.613002 -0.304306 
0.701467 0.540329 -0.464746 0.632843 -0.763724 0.127419 0.732742 0.633931 0.247427 
-0.473929 0.874029 -0.107075 -0.634763 -0.674219 0.377497 -0.294712 -0.901258 0.317614 
-0.768476 -0.506744 0.390712 -0.0638184 -0.926643 0.370485 0.0863077 -0.977611 0.191907 
-0.93892 -0.151342 0.30907 0.482855 -0.875698 -0.00177586 -0.645167 0.753015 -0.129335 
0.71372 -0.501544 -0.488935 0.0483088 0.84748 -0.528624 0.641554 0.0785971 -0.76304 
0.551567 0.572886 -0.606279 0.694339 -0.251147 -0.674403 0.708332 -0.136568 -0.692542 
-0.606668 -0.40939 0.681435 0.52288 0.307268 -0.795099 0.430551 0.443078 -0.786325 
-0.712201 -0.613326 0.341469 -0.191852 -0.898886 0.39395 0.129129 -0.959519 0.250298 
-0.879031 -0.318177 0.355062 0.776974 -0.328295 -0.537153 0.732226 0.0094567 -0.680996 
0.235454 0.555494 -0.797488 -0.24346 0.891375 -0.382333 0.773453 0.0595553 -0.63105 
0.52731 0.439514 -0.727167 -0.604488 -0.718407 0.344217 -0.140423 -0.898767 0.415329 
0.168152 -0.905704 0.389134 -0.940438 0.336344 -0.0494827 0.681661 -0.654362 -0.327335 
0.703288 -0.628685 -0.331876 0.328009 0.710744 -0.622297 0.66899 0.475359 -0.57139 
0.232529 -0.873627 -0.427441 -0.815294 0.314024 -0.486502 0.642736 0.55512 -0.527951 
0.83905 -0.313342 0.44476 -0.179629 0.888592 0.422064 -0.312338 -0.858404 0.406924 
-0.804409 -0.494358 0.329449 -0.949255 0.303967 0.0807422 0.576746 -0.813152 -0.0784137 
0.755765 -0.558356 -0.342137 0.790757 -0.36971 -0.48787 -0.599545 -0.599545 0.530181 
0.521373 0.414537 -0.745875 -0.605384 -0.673932 0.42347 -0.827989 -0.396046 0.396966 
-0.815124 0.559745 -0.14919 0.646123 -0.755705 -0.106932 -0.618535 0.734856 -0.278212 
0.779196 -0.0140693 -0.626623 0.456373 0.520225 -0.721866 -0.86861 0.483285 -0.109326 
0.581601 -0.812172 0.0460117 0.605662 -0.795407 -0.0224075 0.801036 -0.0326287 -0.597727 
0.548427 0.525515 -0.650432 0.214715 0.796623 -0.565058 0.401418 0.733168 -0.548933 
-0.863274 -0.376544 0.336115 -0.978274 0.1267 0.164097 0.793193 -0.57793 -0.191942 
-0.114325 0.802446 -0.585671 0.672594 0.364968 -0.643751 0.929365 -0.0280918 -0.368092 
0.650761 0.642352 -0.404839 -0.936158 0.351159 -0.0171812 -0.50819 0.807289 -0.300045 
0.804395 -0.593862 0.016617 0.884038 -0.45544 -0.105119 0.964294 -0.128063 -0.231813 
0.99471 -0.027045 -0.0990941 0.909202 0.339443 -0.241101 -0.532672 -0.734329 0.420738 
-0.937392 -0.222788 0.267699 0.850934 -0.515249 0.102123 -0.978834 -0.0265288 0.202931 
-0.988465 0.113494 0.100276 -0.88765 0.444327 -0.12104 0.974316 0.189246 -0.122045 
-0.427945 -0.776854 0.461911 -0.861912 -0.29523 0.412246 0.369778 -0.87171 0.321537 
-0.137256 0.922313 -0.361248 0.986703 -0.157794 0.0389617 0.634142 0.705146 -0.317227 