# vtk DataFile Version 4.2
vtk output
ASCII
DATASET POLYDATA
POINTS 1252 float
97.4256 106.292 159.62 103.104 107.126 159.457 103.347 106.914 159.496 
103.753 107.356 159.462 106.42 108.006 159.487 106.799 107.814 159.528 
109.792 108.136 159.745 102.837 107.631 159.488 106.416 108.23 159.525 
113.214 108.458 160.169 112.694 108.545 160.216 114.1 108.337 160.221 
117.779 108.976 160.345 117.702 108.615 160.42 108.606 108.727 159.826 
118.843 109.394 160.397 118.125 109.536 160.461 119.622 109.977 160.453 
119.491 109.985 160.488 119.635 110.057 160.475 119.777 110.057 160.494 
121.754 110.467 160.671 122.497 110.608 160.772 119.68 110.164 160.599 
122.105 110.718 160.689 79.7222 101.345 161.065 79.6932 103.019 160.952 
90 104.009 159.017 90 104.009 159.017 90 104.009 159.017 
90 104.009 159.017 81.0045 105.511 159.011 81.0044 105.511 159.011 
81.0045 105.511 159.011 81.0045 105.511 159.011 90 104.009 159.017 
97.163 105.269 159.773 100.428 105.287 159.87 81.0044 105.511 159.011 
81.0043 105.511 159.011 81.0044 105.511 159.011 106.478 106.215 159.907 
81.0043 105.511 159.011 98.1011 106.647 159.666 117.321 107.832 160.768 
96.4364 108.079 160.075 97.671 107.618 159.835 107.387 108.32 159.638 
115.898 107.868 160.476 116.166 108.359 160.41 99.6668 108.424 160.034 
106.018 108.83 159.889 105.381 108.988 160.052 112.066 108.736 160.384 
114.654 108.799 160.44 115.963 108.94 160.496 119.616 109.762 160.494 
121.227 110.018 160.656 111.036 109.029 160.694 117.185 109.765 160.992 
118.944 109.909 160.593 120.37 110.266 160.618 121.419 110.677 160.767 
122.92 111.111 160.881 120.592 110.731 161.05 122.686 111.396 161.152 
123.164 111.396 160.998 124.731 111.9 161.155 124.583 111.896 161.153 
125 111.857 161.28 125.239 111.946 161.459 123.558 111.616 161.15 
124.782 111.999 161.185 124.656 111.994 161.24 124.908 112.064 161.259 
125.109 112.121 161.454 124.806 112.053 161.223 79.3064 98.3342 162.079 
80.6214 99.0401 161.146 80.9258 98.899 161.131 81.9346 103.951 160.46 
90 104.009 159.017 96.4918 103.986 160.161 100.412 104.153 160.377 
81.0044 105.511 159.011 103.806 105.062 160.193 80.493 105.01 161.072 
81.0043 105.511 159.011 83.2774 104.88 160.383 116.635 107.135 161.038 
79.6464 105.618 161.843 119.964 108.64 160.993 98.4077 108.279 160.028 
122.643 109.635 161.336 122.833 109.478 161.587 86.3951 108.458 161.408 
98.6893 108.721 160.316 91.175 109.048 161.227 94.219 108.897 160.687 
123.601 110.499 161.322 120.475 110.843 161.573 124.062 111.408 161.105 
125.073 111.759 161.376 120.966 110.953 161.409 122.98 111.554 161.285 
123.153 111.654 161.504 124.198 111.762 161.193 124.671 112.062 161.541 
125.575 112.2 161.67 126.302 112.603 161.874 125.588 112.337 161.82 
126.284 112.613 161.874 126.375 112.657 161.888 126.433 112.667 161.926 
126.436 112.606 162 126.407 112.67 161.935 126.442 112.651 161.998 
82.12 96.0057 162.328 85.1911 98.831 161.411 100.983 102.374 161.625 
80.8384 104.972 160.91 116.255 106.466 161.509 81.9027 107.262 161.509 
121.354 108.675 161.544 122.238 108.592 162.1 89.3036 109.42 161.849 
91.1401 109.414 161.577 111.043 109.302 161.652 115.298 109.553 161.915 
96.8362 109.647 161.87 123.8 111.883 161.985 126.185 112.361 161.97 
126.066 112.466 161.89 126.404 112.461 162.189 125.843 112.429 162.106 
126.18 112.54 162.088 126.451 112.595 162.079 92.5863 100.203 161.911 
77.9618 101.195 162.988 78.223 105.029 163.325 87.6367 109.425 162.189 
89.0031 109.739 162.338 91.6239 109.953 162.312 92.403 109.775 161.928 
120.053 110.721 162.496 92.1255 110.031 162.303 125.092 112.182 162.716 
126.27 112.403 162.52 126.309 112.247 162.749 80.0572 92.5169 164.527 
79.9956 91.9121 164.983 79.5559 93.2003 164.309 81.5224 93.6705 163.736 
77.661 102.169 163.547 120.804 107.116 162.962 80.9524 109.284 163.642 
125.365 110.264 163.171 87.2366 109.733 162.77 93.8413 109.985 163.023 
96.3401 109.814 162.619 91.2312 110.239 163.449 126.089 111.517 162.786 
126.295 111.97 163.143 125.672 112.284 162.851 79.3339 91.1534 165.78 
79.5647 91.5214 165.389 77.8383 105.912 164.661 118.916 109.999 164.247 
78.8082 108.669 165.592 81.1548 109.923 164.443 95.998 109.77 163.804 
126.13 111.276 163.266 80.0814 109.661 165.192 80.0043 112.013 164.009 
80.0043 112.013 164.009 80.0044 112.013 164.009 80.0044 112.013 164.009 
90.3926 110.347 164.276 126.269 111.55 163.9 80.0043 112.013 164.009 
126.198 111.977 163.448 125.998 112.139 163.29 80.0647 89.5007 167.065 
79.7653 89.885 166.711 79.4047 90.1822 166.593 78.9817 90.8473 166.292 
80.4862 90.4045 166.152 82 91.0087 165.017 82 91.0087 165.017 
82 91.0088 165.017 82 91.0088 165.017 82 91.0088 165.017 
77.7217 93.9358 165.495 77.1455 95.1292 165.842 77.9036 107.581 166.514 
126.315 110.957 164.903 80.0043 112.013 164.009 126.142 111.502 164.822 
79.3132 88.7505 168.004 79.8194 88.4598 168.192 81.7265 90.8691 165.972 
82 91.0087 165.017 113.185 102.225 165.557 124.475 108.024 165.427 
88.1589 110.29 165.637 126.463 110.68 166.03 79.2277 109.837 166.936 
80.5565 110.286 166.029 81.7129 110.519 165.895 84.3767 110.61 166.083 
126.424 110.85 166.027 125.673 111.617 164.987 79.8416 88.0096 168.642 
78.837 88.9217 168.134 76.7457 93.2932 167.505 119.259 104.273 167.011 
89.4948 109.828 166.923 126.443 110.464 166.249 79.995 110.494 167.398 
79.3711 87.3357 169.54 79.3597 87.7281 169.097 80.4989 87.8963 168.859 
119.936 104.386 167.788 123.633 106.853 167.508 77.4594 107.186 168.681 
125.736 108.853 167.132 78.6655 109.379 168.232 126.416 110.484 166.944 
126.372 110.648 167.017 79.9975 110.503 167.632 79.7361 86.6601 170.505 
120.217 104.478 168.059 118.39 107.819 169.204 125.901 109.107 167.802 
78.9616 109.514 169.185 126.291 110.159 167.477 125.743 110.455 167.821 
126.057 110.559 167.665 126.301 110.522 167.437 80.4997 110.439 168.423 
126.088 110.723 167.314 79.1519 86.2081 171.324 80.9801 86.5869 170.869 
76.7843 89.3139 170.247 121.72 105.198 169.796 125.519 108.693 168.526 
126.011 109.349 167.966 78.3389 108.415 170.517 126.088 110.292 167.914 
125.754 109.912 168.676 126.294 110.366 167.554 80.6485 110.098 169.479 
126.22 110.502 167.759 126.191 110.518 167.754 126.229 110.576 167.575 
79.187 85.6748 172.335 79.9075 85.6225 172.212 77.5714 87.3005 171.292 
123.843 106.922 169.338 124.75 107.917 169.24 125.486 109.111 169.044 
78.6923 108.832 170.447 79.3075 109.069 170.828 124.742 109.376 169.525 
125.613 109.742 169.006 125.454 109.789 169.057 126.239 110.563 167.699 
125.649 109.85 168.948 125.59 109.845 169.007 81.2163 85.4818 172.876 
91.442 91.0884 171.959 109.696 98.0976 172.137 76.0606 102.262 172.559 
121.397 107.621 171.43 124.351 108.262 170.403 125.067 109.055 169.564 
124.755 109.026 169.951 124.641 109.127 169.99 124.565 108.997 170.152 
125.351 109.574 169.224 124.714 109.127 169.967 124.665 109.069 170.09 
125.559 109.772 169.074 79.1455 84.8775 174.117 78.4166 85.4399 173.561 
83.1496 86.0342 173.342 90.5065 90.0807 172.996 75.2782 91.3416 173.848 
123.112 106.537 170.957 123.639 107.361 170.889 78.4745 107.344 173.011 
122.6 107.956 171.131 123.896 108.368 170.675 124.637 108.983 170.137 
79.7334 84.4805 174.727 75.573 89.3819 174.267 122.458 106.293 171.963 
123.24 107.48 171.345 79.2344 107.714 173.254 122.451 107.335 171.844 
78.4946 84.3793 175.746 81.5997 84.4737 175.347 76.9874 85.7044 175.281 
77.3163 85.1337 175.735 76.3525 86.8992 174.918 75.1022 94.1829 174.647 
113.48 99.413 174.912 120.689 106.497 173.122 121.82 106.528 172.743 
122.086 106.875 172.425 80.0418 107.577 173.89 79.1548 83.5955 176.945 
116.087 101.147 175.077 120.423 105.086 173.749 118.19 105.12 174.628 
119.166 105.37 174.469 119.712 105.736 174.052 120.462 106.182 173.521 
79.953 106.911 174.906 111.581 98.2623 177.037 118.12 103.823 175.62 
118.901 104.801 174.832 119.481 105.276 174.552 119.327 105.26 174.622 
119.897 105.41 174.182 119.658 105.482 174.41 120.319 105.91 173.772 
119.631 105.553 174.413 119.573 105.505 174.507 121.004 108.013 177.009 
121.004 108.013 177.009 121.004 108.013 177.009 121.004 108.013 177.009 
121.004 108.013 177.009 78.7231 82.9346 179.191 76.7625 84.7302 178.406 
116.397 101.846 176.566 117.062 102.484 176.378 117.361 102.884 176.296 
117.626 103.53 176.261 119.523 105.392 174.56 119 107.009 178.017 
119 107.009 178.017 119 107.009 178.017 119.589 105.48 174.517 
119 107.009 178.017 119 107.009 178.017 121.004 108.013 177.009 
82.3501 83.439 179.146 111.461 98.3224 178.622 114.95 101.353 178.24 
116.155 101.944 177.146 116.423 102.322 177.165 117.241 103.045 176.588 
116.891 103.079 176.951 78.1791 103.502 178.064 79.1887 104.415 177.758 
115.698 103.454 177.485 117.42 103.78 176.374 117.028 103.662 176.705 
119 107.009 178.017 77.6186 83.3629 180.078 76.9465 84.0074 179.946 
115.336 102.505 178.453 116.362 102.619 177.374 79.7328 103.669 178.791 
80.2531 103.196 179.477 116.172 103.042 177.535 114.879 103.151 178.264 
115.468 103.202 178.037 115.341 103.171 178.185 111.146 98.326 179.678 
101.982 100.813 182.099 112.401 99.6437 180.114 112.235 102.452 180.096 
114.477 102.071 179.266 114.469 102.4 179.232 116 105.009 181.017 
116 105.009 181.017 116 105.009 181.017 116 105.009 181.017 
115.243 103.044 178.308 116 105.009 181.017 79.0861 82.1092 182.84 
79.4601 82.0482 182.959 77.9632 82.8083 181.647 82.9853 82.9975 182.255 
74.61 91.0839 181.115 75.6912 96.8411 182.048 77.4112 99.7313 182.178 
108.899 101.689 181.656 114.111 102.139 179.596 112.076 102.038 180.933 
113.624 102.387 179.759 116 105.009 181.017 76.5116 98.2479 182.785 
110.845 98.9009 181.576 111.573 100.049 181.87 112.756 101.75 180.779 
111.88 101.769 181.618 78.2531 82.3492 184.18 105.726 100.967 183.138 
111.649 100.672 182.043 108.211 101.005 183.283 110.627 101.42 182.451 
77.3372 82.9591 184.997 75.6951 95.8098 184.962 108.058 97.3666 183.668 
108.482 98.6545 184.313 109.514 99.8096 183.66 105.989 100.8 183.806 
[...]
POINT_DATA 1252
SCALARS scalars float
LOOKUP_TABLE default
1 1 1 1 1 1 1 1 1 
1 1 1 1 1 1 1 1 1 
1 1 1 1 1 1 1 1 1 
1 1 1 1 1 1 1 1 1 
1 1 1 1 1 1 1 1 1 
1 1 1 1 1 1 1 1 1 
1 1 1 1 1 1 1 1 1 
1 1 1 1 1 1 1 1 1 
1 1 1 1 1 1 1 1 1 
1 1 1 1 1 1 1 1 1 
1 1 1 1 1 1 1 1 1 
1 1 1 1 1 1 1 1 1 
1 1 1 1 1 1 1 1 1 
1 1 1 1 1 1 1 1 1 
1 1 1 1 1 1 1 1 1 
1 1 1 1 1 1 1 1 1 
1 1 1 1 1 1 1 1 1 
1 1 1 1 1 1 1 1 1 
1 1 1 1 1 1 1 1 1 
1 1 1 1 1 1 1 1 1 
1 1 1 1 1 1 1 1 1 
1 1 1 1 1 1 1 1 1 
1 1 1 1 1 1 1 1 1 
1 1 1 1 1 1 1 1 1 
1 1 1 1 1 1 1 1 1 
1 1 1 1 1 1 1 1 1 
1 1 1 1 1 1 1 1 1 
1 1 1 1 1 1 1 1 1 
1 1 1 1 1 1 1 1 1 
1 1 1 1 1 1 1 1 1 
1 1 1 1 1 1 1 1 1 
1 1 1 1 1 1 1 1 1 
1 1 1 1 1 1 1 1 1 
1 1 1 1 1 1 1 1 1 
1 1 1 1 1 1 1 1 1 
1 1 1 1 1 1 1 1 1 
1 1 1 1 1 1 1 1 1 
1 1 1 1 1 1 1 1 1 
1 1 1 1 1 1 1 1 1 
1 1 1 1 1 1 1 1 1 
1 1 1 1 1 1 1 1 1 
1 1 1 1 1 1 1 1 1 
1 1 1 1 1 1 1 1 1 
1 1 1 1 1 1 1 1 1 
1 1 1 1 1 1 1 1 1 
1 1 1 1 1 1 1 1 1 
1 1 1 1 1 1 1 1 1 
1 1 1 1 1 1 1 1 1 
1 1 1 1 1 1 1 1 1 
1 1 1 1 1 1 1 1 1 
1 1 1 1 1 1 1 1 1 
1 1 1 1 1 1 1 1 1 
1 1 1 1 1 1 1 1 1 
1 1 1 1 1 1 1 1 1 
1 1 1 1 1 1 1 1 1 
1 1 1 1 1 1 1 1 1 
1 1 1 1 1 1 1 1 1 
1 1 1 1 1 1 1 1 1 
1 1 1 1 1 1 1 1 1 
1 1 1 1 1 1 1 1 1 
1 1 1 1 1 1 1 1 1 
1 1 1 1 1 1 1 1 1 
1 1 1 1 1 1 1 1 1 
1 1 1 1 1 1 1 1 1 
1 1 1 1 1 1 1 1 1 
1 1 1 1 1 1 1 1 1 
1 1 1 1 1 1 1 1 1 
1 1 1 1 1 1 1 1 1 
1 1 1 1 1 1 1 1 1 
1 1 1 1 1 1 1 1 1 
1 1 1 1 1 1 1 1 1 
1 1 1 1 1 1 1 1 1 
1 1 1 1 1 1 1 1 1 
1 1 1 1 1 1 1 1 1 
1 1 1 1 1 1 1 1 1 
1 1 1 1 1 1 1 1 1 
1 1 1 1 1 1 1 1 1 
1 1 1 1 1 1 1 1 1 
1 1 1 1 1 1 1 1 1 
1 1 1 1 1 1 1 1 1 
1 1 1 1 1 1 1 1 1 
1 1 1 1 1 1 1 1 1 
1 1 1 1 1 1 1 1 1 
1 1 1 1 1 1 1 1 1 
1 1 1 1 1 1 1 1 1 
1 1 1 1 1 1 1 1 1 
1 1 1 1 1 1 1 1 1 
1 1 1 1 1 1 1 1 1 
1 1 1 1 1 1 1 1 1 
1 1 1 1 1 1 1 1 1 
1 1 1 1 1 1 1 1 1 
1 1 1 1 1 1 1 1 1 
1 1 1 1 1 1 1 1 1 
1 1 1 1 1 1 1 1 1 
1 1 1 1 1 1 1 1 1 
1 1 1 1 1 1 1 1 1 
1 1 1 1 1 1 1 1 1 
1 1 1 1 1 1 1 1 1 
1 1 1 1 1 1 1 1 1 
1 1 1 1 1 1 1 1 1 
1 1 1 1 1 1 1 1 1 
1 1 1 1 1 1 1 1 1 
1 1 1 1 1 1 1 1 1 
1 1 1 1 1 1 1 1 1 
1 1 1 1 1 1 1 1 1 
1 1 1 1 1 1 1 1 1 
1 1 1 1 1 1 1 1 1 
1 1 1 1 1 1 1 1 1 
1 1 1 1 1 1 1 1 1 
1 1 1 1 1 1 1 1 1 
1 1 1 1 1 1 1 1 1 
1 1 1 1 1 1 1 1 1 
1 1 1 1 1 1 1 1 1 
1 1 1 1 1 1 1 1 1 
1 1 1 1 1 1 1 1 1 
1 1 1 1 1 1 1 1 1 
1 1 1 1 1 1 1 1 1 
1 1 1 1 1 1 1 1 1 
1 1 1 1 1 1 1 1 1 
1 1 1 1 1 1 1 1 1 
1 1 1 1 1 1 1 1 1 
1 1 1 1 1 1 1 1 1 
1 1 1 1 1 1 1 1 1 
1 1 1 1 1 1 1 1 1 
1 1 1 1 1 1 1 1 1 
1 1 1 1 1 1 1 1 1 
1 1 1 1 1 1 1 1 1 
1 1 1 1 1 1 1 1 1 
1 1 1 1 1 1 1 1 1 
1 1 1 1 1 1 1 1 1 
1 1 1 1 1 1 1 1 1 
1 1 1 1 1 1 1 1 1 
1 1 1 1 1 1 1 1 1 
1 1 1 1 1 1 1 1 1 
1 1 1 1 1 1 1 1 1 
1 1 1 1 1 1 1 1 1 
1 1 1 1 1 1 1 1 1 
1 1 1 1 1 1 1 1 1 
1 1 1 1 1 1 1 1 1 
1 
NORMALS Normals float
-0.134575 -0.00885152 -0.990864 0.0243167 -0.124322 -0.991944 0.0966449 -0.124144 -0.987546 
0.0449379 -0.0261902 -0.998646 -0.0978161 0.114009 -0.988653 0.179552 -0.0667164 -0.981484 
0.079247 0.421914 -0.903166 0.00457885 0.162249 -0.986739 -0.0339393 0.223695 -0.974068 
0.055608 0.223994 -0.973003 0.0875251 0.867598 -0.489503 0.0526783 0.042959 -0.997687 
-0.111302 -0.00572133 -0.99377 0.11406 -0.441393 -0.890035 0.060082 0.72864 -0.682257 
0.0825739 0.039048 -0.99582 -0.158808 0.563549 -0.810674 -0.00931432 0.0494776 -0.998732 
-0.295705 0.319573 -0.90024 -0.118415 0.551306 -0.825857 0.163016 0.292672 -0.942215 
0.123279 -0.0848841 -0.988735 0.306887 -0.280551 -0.909457 -0.171404 0.742776 -0.647229 
0.0339082 0.200822 -0.979041 -0.331473 -0.111931 -0.936802 -0.541072 0.100912 -0.8349 
0 0.268207 -0.963361 -0.83205 -0.5547 0 -0.987175 0.159641 0 
0.987175 0.159641 0 -0.843753 -0.293461 -0.449401 -0.89153 -0.232334 -0.388837 
0.641433 0.726745 -0.245776 0.912961 0.320537 0.252505 0 1 0 
0.150013 -0.286674 -0.94621 0.0540499 -0.178006 -0.982544 -0.499871 0.648587 -0.57399 
-0.852649 -0.504774 -0.134881 0.906101 0.207384 0.368744 0.12797 -0.338725 -0.932142 
-0.542844 -0.827671 0.142414 0.158898 -0.121765 -0.979758 0.125015 -0.492454 -0.861313 
-0.0483998 0.469726 -0.881485 -0.11234 0.343255 -0.9325 0.158535 0.0108291 -0.987294 
0.120107 -0.345626 -0.930654 0.111715 -0.17605 -0.978021 -0.029531 0.512963 -0.857903 
-0.181204 0.469222 -0.864289 -0.0305224 0.633436 -0.773193 0.183776 0.836459 -0.516297 
-0.0436759 0.650409 -0.758327 -0.0547689 0.38373 -0.92182 0.13729 -0.193208 -0.971505 
0.188729 -0.236824 -0.953045 0.169179 0.970146 -0.173767 -0.196296 0.786144 -0.586042 
-0.204392 0.555391 -0.80608 0.000478084 0.376379 -0.926466 -0.143075 0.626045 -0.766549 
0.0850243 0.299067 -0.950437 -0.22604 0.854092 -0.468436 -0.292668 0.852415 -0.433283 
-0.0819368 0.618841 -0.781231 0.244397 -0.132507 -0.960579 -0.170063 0.423202 -0.889932 
0.502206 -0.143912 -0.852689 0.581505 0.067548 -0.810734 -0.0510853 0.65564 -0.753343 
0.0281593 0.479316 -0.877191 -0.345246 0.880663 -0.324404 0.280233 0.674071 -0.683445 
0.183289 0.758949 -0.624822 -0.157307 0.867955 -0.471072 -0.570969 -0.30257 -0.763182 
-0.293435 -0.281116 -0.913712 -0.138039 -0.307539 -0.94147 -0.183429 -0.0185379 -0.982858 
0 0.268207 0.963361 0.018383 -0.354284 -0.934957 0.142605 -0.399383 -0.905625 
-0.721865 -0.69202 -0.0043112 0.149198 -0.583377 -0.79838 -0.39926 0.241084 -0.884573 
-0.0338911 -0.856439 0.515135 -0.0515603 0.221335 -0.973834 0.237783 -0.517433 -0.822024 
-0.620902 0.383604 -0.683614 0.266615 -0.611274 -0.745158 -0.0528815 0.359082 -0.931807 
0.410953 -0.525057 -0.745274 0.565767 -0.538398 -0.624528 -0.00260225 0.53996 -0.841687 
-0.0740288 0.718752 -0.691314 -0.0695137 0.587471 -0.806254 -0.0551343 0.70339 -0.708663 
0.505765 -0.527069 -0.682935 -0.37506 0.918151 -0.127782 0.190994 -0.0484817 -0.980393 
0.528663 -0.383538 -0.757241 -0.258781 0.936637 -0.236101 -0.224389 0.899343 -0.375275 
-0.276014 0.940464 -0.19835 -0.171351 0.599926 -0.78149 -0.250586 0.95055 -0.183472 
0.370946 0.27228 -0.887841 0.396684 -0.445544 -0.802579 -0.190913 0.951129 -0.242704 
-0.456446 0.835237 -0.306653 0.0766542 0.619366 -0.781352 0.817602 0.220496 -0.531891 
0.81101 -0.467598 -0.351589 -0.22394 0.964352 0.140983 0.309402 0.900456 0.305696 
-0.0018166 -0.468577 -0.883421 0.0946913 -0.276436 -0.956356 0.269368 -0.602839 -0.751016 
-0.352067 0.344948 -0.870092 0.242778 -0.682107 -0.689775 -0.195235 0.547581 -0.813657 
0.28427 -0.549537 -0.785621 0.457366 -0.709146 -0.53659 -0.104174 0.797488 -0.594273 
-0.0506487 0.677736 -0.733559 -0.0197145 0.989362 0.144134 -0.198247 0.970359 -0.138206 
0.111205 0.96441 -0.239889 -0.258582 0.965903 -0.012935 0.556621 -0.376414 -0.740598 
-0.126564 0.606186 -0.785188 0.787701 -0.527596 -0.318071 -0.279022 0.957874 0.0680019 
-0.36006 0.922578 0.138588 0.942968 0.263157 0.20386 0.0723052 -0.45688 -0.886585 
-0.875019 -0.0555037 -0.480897 -0.901778 0.0795104 -0.424822 0.160118 0.697127 -0.698839 
-0.0982623 0.839655 -0.534158 -0.0946436 0.838916 -0.535968 0.0105347 0.866504 -0.49906 
-0.322966 0.938877 0.119172 0.00089467 0.92443 -0.38135 -0.247772 0.950472 0.18765 
0.140407 0.909904 0.390333 0.651131 0.637626 0.411657 -0.103399 -0.553233 -0.826584 
-0.107543 -0.616213 -0.780203 -0.436215 -0.431476 -0.789649 0.141013 -0.561758 -0.815195 
-0.985911 -0.0820468 -0.145768 0.365845 -0.741807 -0.562032 -0.492034 0.600979 -0.629862 
0.757337 -0.558067 -0.339119 -0.027815 0.899774 -0.435468 0.0987809 0.992202 -0.0760171 
0.18176 0.982252 -0.0463072 0.0622397 0.996975 -0.046542 0.754786 -0.511599 -0.410566 
0.996659 0.0171335 0.0798532 -0.200417 0.953301 0.225943 -0.320566 -0.596098 -0.736142 
-0.416341 -0.511999 -0.751344 -0.88181 0.283165 -0.377133 -0.363014 0.914824 0.176968 
-0.759832 0.550681 -0.345551 -0.138743 0.869741 -0.473604 0.17284 0.967179 0.186256 
0.89152 -0.428731 -0.146224 -0.487917 0.778989 -0.393844 0.232176 -0.864453 -0.445888 
-0.796999 0.307012 -0.520131 0.633214 0.543036 -0.551501 0.830523 -0.309892 0.462816 
0.0493031 0.99135 -0.121628 0.999731 -0.00924579 0.0212935 -0.178737 0.886608 0.426591 
0.72746 0.610434 0.313324 0.126479 0.921345 0.367595 -0.127061 -0.747064 -0.652496 
-0.108564 -0.755847 -0.645685 -0.415695 -0.619211 -0.666165 -0.636449 -0.446131 -0.629206 
-0.04131 -0.676911 -0.734904 0 0.268207 -0.963361 -0.83205 -0.5547 0 
-0.987175 0.159641 0 0.987175 0.159641 0 0 1 0 
-0.692883 -0.330587 -0.640801 -0.872553 -0.0906894 -0.480029 -0.886357 0.423189 -0.187836 
0.956734 -0.222613 -0.187356 -0.595361 -0.595361 0.539529 0.621154 0.74408 0.245994 
-0.321235 -0.754144 -0.572778 -0.112835 -0.744702 -0.65779 0.224751 -0.703684 -0.674029 
0 0.268207 0.963361 0.296709 -0.845636 -0.443693 0.614833 -0.749268 -0.246126 
0.0281968 0.991811 -0.124567 0.996557 -0.0523955 -0.0642484 -0.726043 0.649974 -0.224486 
-0.317167 0.878532 -0.357192 -0.144277 0.964863 -0.219597 0.0422964 0.996955 -0.0655096 
0.942178 0.33169 0.0477787 -0.0677206 0.940129 0.334023 -0.0361719 -0.764115 -0.644065 
-0.536687 -0.631729 -0.559362 -0.862417 -0.271706 -0.427098 0.447261 -0.812117 -0.374732 
0.14996 0.933308 0.326263 0.934777 -0.335517 -0.116706 -0.396389 0.911281 -0.111551 
-0.0756904 -0.809901 -0.581662 -0.17698 -0.754689 -0.631761 0.17867 -0.771601 -0.610498 
0.374184 -0.924898 -0.0674583 0.584383 -0.796291 -0.156262 -0.970176 0.242388 -0.0024889 
0.850573 -0.519197 -0.0834315 -0.766993 0.641598 0.00857363 0.991082 -0.0904907 0.0978144 
0.903881 0.381001 0.19452 -0.327169 0.940606 0.0906666 0.0724446 -0.823983 -0.561964 
0.429713 -0.896376 -0.108887 -0.196569 0.908622 0.368465 0.872343 -0.470092 0.134283 
-0.614911 0.761774 0.203922 0.954235 -0.221982 0.2004 -0.0389336 0.879868 0.473622 
-0.0957029 0.809272 0.579586 0.898399 0.245461 0.364181 -0.050171 0.982963 0.176823 
0.171694 0.931492 0.320693 -0.340326 -0.812223 -0.473784 0.154285 -0.823335 -0.546182 
-0.785524 -0.416294 -0.457877 0.51806 -0.842417 0.148145 0.777814 -0.612527 0.140771 
0.93816 -0.259576 0.229075 -0.757747 0.589122 0.280634 0.714277 0.28887 0.637466 
0.818784 0.340277 0.46239 0.943218 0.0705399 0.324597 -0.165482 0.890205 0.424441 
0.85428 0.0616585 0.516144 -0.0034573 0.676596 0.736346 0.875702 0.442992 0.192102 
-0.0536923 -0.877496 -0.476568 0.014594 -0.85888 -0.51197 -0.643767 -0.568029 -0.512744 
0.703504 -0.701028 0.116802 0.784442 -0.590408 0.189918 0.860251 -0.276123 0.428631 
-0.618108 0.693159 0.370774 -0.419338 0.785853 0.454523 0.0943285 0.805528 0.585002 
0.81205 -0.0648551 0.579973 -0.0512471 0.747219 0.662599 0.463895 0.759166 0.456583 
0.754169 0.350135 0.555549 0.267817 0.780565 0.564794 0.205642 -0.84405 -0.495269 
0.481588 -0.821678 -0.304826 0.368154 -0.867193 -0.335318 -0.932529 0.344433 0.108425 
-0.202764 0.856769 0.474167 0.758209 -0.126594 0.639604 0.663974 0.194229 0.72209 
0.827377 0.21602 0.518442 -0.178046 0.870346 0.459126 -0.102882 0.702593 0.704115 
0.3773 0.339861 0.861475 0.698695 0.516165 0.495377 0.348334 0.622964 0.700414 
0.48947 0.33946 0.803235 -0.151651 -0.919634 -0.36232 -0.45038 -0.836525 -0.312064 
0.386703 -0.761263 -0.520519 0.541591 -0.79538 -0.27212 -0.877365 -0.19004 -0.440585 
0.688084 -0.703177 0.179116 0.788252 -0.370072 0.491636 -0.606984 0.633884 0.479333 
-0.152267 0.837966 0.52405 0.334667 0.412711 0.847153 0.66649 0.163027 0.72747 
-0.204308 -0.909717 -0.361487 -0.935791 -0.249038 -0.249549 0.733778 -0.514893 0.443233 
0.596491 0.153352 0.787834 -0.410681 0.750451 0.517846 0.288834 0.608564 0.73907 
-0.439352 -0.816924 -0.373637 0.37754 -0.837563 -0.394907 -0.665788 -0.664216 -0.339916 
-0.701532 -0.665997 -0.253575 -0.845464 -0.417708 -0.332734 -0.999622 0.00488545 -0.0270449 
0.56506 -0.824869 0.0172561 0.148072 0.738278 0.658043 0.677239 0.0257724 0.735311 
0.608711 0.3093 0.730619 0.0671908 0.794604 0.603398 -0.171275 -0.92833 -0.329952 
0.585859 -0.809074 0.0465765 0.705068 -0.353931 0.614501 -0.0649229 0.814432 0.576616 
-0.208177 0.715588 0.66678 0.150511 0.780797 0.606384 0.0951503 0.734997 0.671362 
-0.30881 0.720574 0.620814 0.448571 -0.893273 0.0291033 0.815286 -0.263675 0.515542 
0.410795 0.226242 0.883211 0.617731 -0.216496 0.756001 0.0586892 0.335023 0.94038 
0.606149 0.100104 0.789026 0.822525 0.0769526 0.563499 0.365209 0.503515 0.783004 
0.6062 0.579337 0.544876 -0.00938514 0.69279 0.721078 0.232404 -0.859597 -0.455062 
-0.787595 0.303416 -0.536314 0.628779 0.536423 -0.562928 0.826159 -0.308067 0.471759 
-0.17812 0.885356 0.429439 -0.344105 -0.891479 -0.294716 -0.832247 -0.530891 -0.159747 
0.649275 -0.681188 0.338268 0.768931 -0.547992 0.329318 0.754718 -0.459581 0.468174 
0.737534 -0.0172964 0.675088 0.483002 -0.00896276 0.875574 0 0.268207 -0.963361 
-0.83205 -0.5547 0 -0.987175 0.159641 0 0.622548 0.265742 0.736081 
0.987175 0.159641 0 0 1 0 -0.59295 -0.59295 0.544812 
0.298313 -0.909518 -0.28946 0.644165 -0.74375 0.17857 0.671058 -0.569222 0.475045 
0.640115 -0.576257 0.508114 0.704648 -0.435744 0.559999 0.707579 -0.358057 0.609201 
0.691092 -0.178963 0.70026 -0.555475 0.671571 0.490346 -0.532001 0.724225 0.438718 
0.167684 0.835844 0.522731 0.48588 0.495566 0.719955 0.503961 0.404446 0.763182 
0 0.268207 0.963361 -0.517513 -0.822768 -0.235017 -0.730787 -0.65763 -0.18296 
0.685902 0.109144 0.719463 0.677001 -0.217231 0.703193 -0.0662935 0.724202 0.686394 
-0.435961 0.668721 0.602287 0.600643 0.302333 0.74015 0.0935062 0.864711 0.493489 
0.493898 0.610397 0.619258 0.341302 0.68009 0.648838 0.569116 -0.781304 0.256264 
-0.0131017 0.973038 0.230272 0.724446 -0.61353 0.314259 0.136825 0.890237 0.434462 
0.669076 -0.204776 0.714426 0.555912 0.420717 0.716909 0 0.268207 -0.963361 
-0.83205 -0.5547 0 -0.987175 0.159641 0 0.987175 0.159641 0 
0.483197 0.458627 0.745776 0 1 0 -0.307555 -0.930242 -0.20015 
0.0248244 -0.989926 -0.139392 -0.733474 -0.65982 -0.163259 0.636084 -0.765943 -0.0934243 
-0.994519 -0.094298 0.0451673 -0.935118 0.341966 0.0928044 -0.719395 0.612282 0.327997 
0.148676 0.928313 0.34078 0.630479 0.0246798 0.775814 0.42502 0.738026 0.524094 
0.41326 0.615175 0.671399 0 0.268207 0.963361 -0.801648 0.565668 0.193339 
0.684727 -0.583559 0.436587 0.71312 -0.407876 0.570173 0.629912 0.386565 0.673631 
0.49068 0.609597 0.622595 -0.430358 -0.90094 -0.0556721 -0.227204 0.94466 0.236634 
0.711934 -0.0585171 0.699804 0.135343 0.93105 0.338863 0.117568 0.887818 0.444924 
-0.80403 -0.570689 -0.166882 -0.962001 0.229863 0.147366 0.639199 -0.684188 0.351156 
0.674695 -0.492811 0.549476 0.675305 -0.288507 0.678769 -0.137391 0.912261 0.38588 
0.302238 0.393715 0.868125 0.547971 0.153941 0.82221 0.414774 0.173009 0.893325 
0.565643 0.102383 0.81827 0.336909 -0.940226 -0.049664 -0.480655 0.808954 0.338473 
-0.0606598 0.932399 0.356305 0.34101 0.704899 0.621956 0.28746 0.709519 0.643389 
0.0594897 -0.998191 -0.00868706 -0.852702 -0.520982 -0.0384185 0.625369 -0.627878 0.463339 
0.689636 0.0572758 0.721888 0.122995 0.95457 0.27142 0.342595 0.766536 0.543187 
-0.910446 0.402234 0.0964196 0.232404 -0.859597 -0.455062 -0.787595 0.303416 -0.536314 
0.628779 0.536423 -0.562928 0.826159 -0.308067 0.471759 -0.17812 0.885356 0.429439 
0.63088 -0.481607 0.608314 -0.421532 0.904394 0.0661903 0.535998 0.636263 0.554865 
0.299172 0.834127 0.463389 0.53295 0.689173 0.490922 -0.59295 -0.59295 0.544812 
-0.684885 -0.722012 0.0981361 0.725332 -0.206317 0.656755 0.495496 0.653914 0.571735 
0 0.268207 -0.963361 -0.83205 -0.5547 0 -0.987175 0.159641 0 
0.987175 0.159641 0 0 1 0 -0.427373 -0.90279 0.0481857 
0.668991 -0.259373 0.696547 0.699631 0.231651 0.67591 0.404054 0.695234 0.594466 
0.542714 0.562236 0.623981 0.485328 0.7157 0.502224 0 0.268207 -0.963361 
-0.83205 -0.5547 0 -0.987175 0.159641 0 0 0.268207 0.963361 
0.987175 0.159641 0 0 1 0 -0.0728761 -0.993536 0.0870313 
-0.765827 0.641313 -0.0471884 0.688642 -0.37482 0.62071 0.673986 -0.160909 0.721007 
-0.0240824 0.978254 0.206008 0.578298 0.328513 0.74676 0 0.268207 0.963361 
0.696806 -0.593114 0.403332 0.713963 -0.537578 0.448628 -0.658539 0.74555 -0.10238 
0.673712 0.137166 0.726153 0 0.268207 -0.963361 -0.83205 -0.5547 0 
-0.987175 0.159641 0 0.987175 0.159641 0 0 1 0 
-0.587405 -0.801509 0.111978 0.515791 -0.853365 0.0756836 0.626226 -0.690295 0.362401 
-0.840234 0.542066 -0.0130643 0.713676 -0.0758758 0.696355 0.631447 0.257458 0.73143 
-0.479906 0.870519 -0.109024 0.602759 0.411271 0.683767 0.394118 0.779018 0.487649 
0 0.268207 0.963361 -0.0742449 -0.994797 0.0697641 -0.941642 -0.334528 0.0374468 
0.670784 -0.3427 0.657728 0.708066 -0.135766 0.692972 -0.737165 0.642424 0.209474 
-0.662575 0.747753 -0.0431272 0.641465 0.0127619 0.767046 0.0284734 0.998252 0.0517931 
0.0610159 0.980251 0.188109 0.157738 0.916963 0.366468 0.575455 0.425182 0.698621 
-0.324113 -0.935584 0.140119 0.0475456 -0.973526 0.223575 0.361631 -0.898569 0.248591 
0.619663 0.162196 0.767926 0.590046 0.242139 0.770204 -0.556012 0.829573 0.0515782 
-0.133562 0.976469 -0.16932 0.123126 0.986188 0.110787 -0.172564 -0.952551 0.250735 
-0.0668224 -0.878964 0.472184 0.0800432 -0.924012 0.373891 -0.709125 -0.688179 0.153463 
-0.831036 -0.528439 0.173583 -0.994508 -0.0948563 0.0442186 -0.918789 0.389903 0.0616569 
0.25837 0.823749 0.504661 0.387415 0.740322 0.549393 0.4573 0.570851 0.681913 
-0.300498 -0.867076 0.397342 0.249515 -0.855233 0.454223 -0.45026 -0.783312 0.428588 
-0.642251 -0.672597 0.367597 -0.586622 -0.71202 0.385877 0.691694 0.258116 0.674489 
0.0524453 0.985326 -0.162425 0.449325 0.748162 0.488222 0.511141 0.660565 0.549899 
0.0827099 -0.880433 0.466902 -0.862988 -0.48316 0.147673 0.646478 -0.347641 0.679126 
0.702307 -0.117384 0.70213 0.68212 0.149383 0.715819 0.629599 0.250644 0.73538 
0.0545095 0.992326 -0.110989 0.311674 0.869037 0.384231 0.369233 0.721778 0.585409 
0.643999 -0.0298423 0.764444 0.662843 0.0825333 0.744196 0.624038 0.0605961 0.779041 
0.565323 0.405307 0.718426 -0.610665 0.77178 -0.177324 -0.25782 0.947003 -0.191607 
-0.296338 0.924949 -0.238018 0.337693 -0.861913 0.378246 0.731257 -0.210901 0.648678 
0.439111 0.644641 0.625795 0.55357 0.192358 0.810283 0.633005 0.314667 0.707311 
0.00284356 0.977548 -0.210693 -0.260924 -0.908859 0.325412 0.662906 -0.416466 0.622183 
0.702415 -0.119816 0.701611 0.671832 0.428533 0.604154 -0.00102093 0.995826 0.0912641 
0.10999 0.988769 0.101183 0.0911735 0.947617 -0.30612 0.211413 0.976346 -0.0453195 
0.373694 0.740788 0.558199 -0.0119958 0.993038 0.117182 0.0877817 0.993924 -0.0664045 
-0.525809 -0.788097 0.320043 -0.115161 -0.920568 0.373218 0.711747 0.182301 0.678368 
0.193474 0.961635 0.194489 0.576379 0.608657 0.545274 -0.152183 0.981839 -0.113279 
0.443815 0.755023 0.482668 -0.566069 -0.760113 0.319052 0.252169 -0.83292 0.4926 
-0.819351 -0.508562 0.264629 -0.687714 -0.633604 0.354395 -0.943649 -0.231679 0.236328 
0.584354 0.274721 0.763583 0.531096 0.466981 0.707012 -0.974581 0.2186 -0.04905 
0.544176 0.452446 0.706516 0.471034 0.627447 0.62003 0.651753 -0.020064 0.758166 
0.620024 0.00737676 0.784548 0.389249 0.843099 0.371037 -0.545484 0.826694 -0.137925 
-0.245848 0.96852 -0.0390947 -0.287757 -0.838047 0.463543 -0.505444 -0.704407 0.498334 
0.245677 -0.832793 0.496083 0.618928 -0.501821 0.604239 -0.985584 0.149947 0.0783645 
-0.808149 0.563645 -0.17088 -0.660634 0.743494 -0.103823 -0.277311 0.956318 0.0924898 
-0.223245 -0.791261 0.569269 -0.678745 -0.601296 0.421601 -0.0254637 0.998887 0.0397027 
0.403923 0.886381 0.226217 -0.441209 0.891939 0.0988926 -0.498524 -0.675138 0.543749 
0.42358 -0.624643 0.65605 0.614389 -0.408655 0.674928 -0.920817 0.330535 0.206985 
-0.674125 0.73832 0.0209515 -0.711722 0.700617 -0.0508656 -0.0643979 -0.7222 0.68868 
0.374149 -0.505962 0.777184 -0.742672 -0.465542 0.481362 -0.985199 -0.0361923 0.16755 
0.536125 0.461365 0.706903 -0.792912 0.511448 0.331225 -0.821596 0.410892 0.395156 
0.657277 0.441141 0.61105 0.565257 0.64265 0.517191 -0.613656 0.690978 0.382068 