# vtk DataFile Version 4.2
vtk output
ASCII
DATASET POLYDATA
POINTS 1485 float
224.429 233.392 102.635 224.245 233.317 102.675 224.371 233.429 102.627 
224.518 233.433 102.727 224.496 233.467 102.64 225.534 233.954 102.778 
225.393 233.88 102.793 225.48 233.992 102.78 225.549 233.949 102.826 
229.958 228.857 104.745 229.896 228.829 104.869 229.904 228.865 104.817 
229.99 228.861 104.749 229.961 228.836 104.78 229.945 228.894 104.78 
229.984 228.899 104.778 229.994 228.961 104.923 220.261 232.585 103.236 
219.814 232.619 103.334 220.556 232.489 103.289 222.938 233.067 102.71 
223.453 233.122 102.702 223.058 232.944 102.786 220.783 232.944 102.998 
224.586 233.684 102.689 225.004 233.674 102.9 225.203 233.926 102.774 
225.648 234.05 102.985 225.084 234.191 102.79 225.532 234.215 102.867 
225.737 234.234 102.985 229.793 228.86 105.028 229.776 228.95 105.091 
230.02 228.989 105.142 229.957 229.089 105.164 217.819 232.14 104.187 
219.546 232.213 103.797 220.207 232.307 103.603 222.894 232.823 102.952 
217.51 232.55 104.035 224.116 233.179 103.164 221.914 233.755 102.864 
225.881 234.559 103.129 226.337 234.905 103.584 226.332 235.996 103.483 
226.657 235.577 103.65 229.495 228.682 105.691 229.4 228.841 105.676 
230.109 229.177 105.663 215.831 231.808 104.938 217.157 231.733 104.883 
229.792 229.222 105.439 215.189 231.865 105.133 222.176 232.588 103.441 
230.083 229.53 105.942 223.903 233.114 103.389 223.614 233.026 103.656 
225.903 234.304 103.715 227.132 235.581 104.123 227.672 237.138 104.208 
227.814 237.659 104.311 228.429 237.809 104.57 229.581 237.624 105.275 
229.775 238.075 105.249 229.752 238.48 105.177 230.049 238.945 105.358 
230.361 238.98 105.581 229.463 239.281 105.279 229.241 228.695 105.943 
229.018 228.656 106.257 229.373 228.529 106.096 229.117 228.795 106.074 
215.601 231.533 105.399 212.612 231.87 106.231 212.522 232.173 106.115 
214.887 231.646 105.417 212.907 232.337 105.905 213.52 232.804 105.679 
217.666 234.067 104.335 226.882 234.973 104.637 224.585 237.125 104.065 
226.149 237.62 104.205 227.557 237.831 104.309 229.829 237.536 105.542 
230.331 238.389 105.613 226.626 238.983 105.249 229.535 239.615 105.501 
230.187 239.809 105.851 228.825 228.497 106.629 229.426 228.461 106.372 
216.419 231.515 105.546 211.412 231.984 106.722 217.913 231.748 105.61 
229.8 230.015 106.469 211.155 232.063 106.809 210.943 232.185 106.914 
212.038 232.385 106.337 211.111 232.559 106.846 228.124 235.782 105.243 
230.044 237.655 105.709 230.236 237.718 106.005 230.494 238.57 105.766 
229.007 239.77 105.733 229.849 240.129 106.121 230.16 240.066 106.089 
230.675 240.071 106.357 228.754 228.237 107.051 229.469 228.381 106.797 
228.302 228.405 107.282 229.873 228.698 106.576 230.177 229.205 107.056 
230.288 230.005 107.159 210.244 231.894 107.43 216.163 231.47 106.371 
229.399 230.249 106.867 230.24 230.477 107.421 230.024 230.873 107.467 
230.032 237.116 106.269 230.831 239.052 106.594 228.356 240.172 106.775 
228.823 240.309 107.068 229.351 240.24 106.478 230.868 239.805 106.632 
230.36 240.311 106.675 230.618 240.309 106.56 230.639 240.325 106.704 
230.721 240.231 106.501 230.819 240.059 106.562 230.74 240.308 106.617 
230.808 240.239 106.624 227.528 228.775 108.072 228.119 229.446 107.52 
228.768 230.072 107.192 230.335 229.649 107.667 211.775 231.309 107.433 
207.35 231.971 108.961 207.089 232.09 109.084 217.794 231.98 107.394 
229.666 231.154 107.556 229.965 231.895 108.085 227.015 234.655 106.879 
228.676 235.28 106.908 229.102 235.501 106.935 229.649 236.076 106.826 
230.671 238.015 106.877 229.193 240.352 107.225 230.759 240.271 106.757 
227.41 227.227 109.237 226.814 228.673 108.897 206.705 231.474 109.834 
206.326 231.755 109.722 207.886 231.705 108.887 228.297 230.744 108.031 
205.413 232.124 109.991 206.287 232.143 109.544 229.313 231.585 107.874 
205.433 232.442 109.938 229.537 232.45 108.174 230.033 232.773 108.383 
229.725 233.288 108.279 230.337 232.135 108.578 229.82 234.018 108.226 
230.41 234.077 108.737 226.847 234.392 107.554 229.872 235.751 107.391 
224.697 240.152 108.854 228.699 240.221 108.072 229.281 240.302 107.587 
229.451 240.141 108.065 230.245 239.979 107.83 230.804 239.948 107.155 
230.398 240.152 107.384 227.644 226.743 109.856 228.419 227.09 109.545 
210.246 231.005 109.534 227.364 230.149 108.639 205.857 231.349 110.476 
205.5 231.581 110.321 203.935 232.076 110.847 203.826 231.937 110.987 
205.432 233.201 110.058 220.21 233.106 109.227 229.359 233.7 108.2 
228.922 233.688 108.245 221.248 233.357 109.264 229.538 234.276 108.065 
226.448 234.045 108.281 228.559 234.541 107.758 229.499 234.724 107.845 
230.736 239.549 107.632 227.439 240.213 108.816 230.707 239.803 107.49 
227.585 226.203 110.75 225.17 226.842 111.097 203.012 231.769 111.674 
212.898 231.272 110.034 202.77 231.882 111.725 202.599 232.033 111.777 
227.649 233.007 108.902 228.627 232.932 108.451 221.678 233.463 110.278 
228.102 233.699 108.429 225.14 233.712 109.168 213.133 237.123 109.634 
229.059 239.785 109.416 224.279 240.209 110.022 226.743 225.499 111.688 
211.753 231.103 110.255 200.971 232.11 112.849 204.767 233.992 110.863 
230.729 233.23 110.398 227.134 233.494 108.891 216.277 239.246 112.008 
224.871 240.111 110.805 229.533 239.408 109.659 228.244 225.916 112.323 
223.027 225.712 113.218 230.038 228.779 111.636 200.697 232.883 112.923 
201.596 233.443 112.464 221.011 233.286 111.415 221.918 233.352 111.221 
223.989 233.28 110.61 230.295 237.088 110.923 227.826 225.245 113.142 
230.3 230.54 112.473 199.141 232.017 114.412 202.513 230.959 113.518 
198.708 232.24 114.566 198.515 232.593 114.555 201.233 233.959 112.913 
224.426 232.552 111.299 219.75 232.972 112.116 220.757 233.171 111.864 
221.78 233.207 111.69 229.277 237.697 112.102 221.186 239.86 112.87 
222.339 223.111 115.018 220.74 223.784 115.401 221.011 224.806 114.889 
228.619 226.182 113.122 197.975 231.951 115.397 197.208 232.216 115.752 
196.926 232.871 115.753 213.926 231.805 114.256 197.996 233.51 114.94 
220.852 232.841 112.593 228.775 236.693 113.567 226.084 222.255 115.825 
225.911 222.358 115.471 224.917 222.508 115.01 227.317 223.999 115.022 
220.856 225.945 114.793 228.871 226.955 114.554 196.562 232.036 116.551 
202.003 230.685 114.762 222.508 230.676 113.275 196.256 232.254 116.691 
196.173 232.617 116.611 197.126 234.119 115.722 198.202 234.187 114.972 
214.653 231.813 114.931 221.105 232.26 113.331 221.753 231.985 113.314 
199.417 235.061 114.707 219.607 232.539 113.309 228.633 235.144 114.72 
203.81 236.958 114.332 208.621 238.726 114.922 224.073 238.976 114.375 
225.242 221.472 116.416 225.783 221.883 116.125 225.093 221.983 115.645 
226.715 222.95 115.648 222.276 222.135 115.811 228.169 225.55 115.103 
229.269 229.877 115.05 229.238 231.428 115.029 221.364 231.285 113.913 
195.762 232.972 117.076 197.208 235.732 116.593 226.094 237.106 115.76 
225.097 221.234 116.981 225.76 221.633 116.854 221.285 221.123 117.161 
225.985 221.884 116.853 222.782 221.277 116.591 228.017 227.217 116.729 
195.363 232.15 118.08 196.478 231.148 117.992 218.718 231.527 115.032 
219.973 231.481 114.579 194.647 233.666 118.737 215.296 231.51 115.922 
197.969 236.852 117.079 223.451 220.711 117.641 225.536 221.455 117.116 
225.428 221.455 117.386 218.88 220.82 118.736 217.62 221.412 119.069 
216.832 222.292 119.406 226.815 223.805 117.387 227.354 224.489 116.741 
213.572 231.175 116.973 194.275 234.417 119.536 225.258 235.907 117.505 
201.44 238.939 117.95 203.126 239.132 117.709 223.215 220.515 118.565 
223.129 220.506 118.915 225.078 221.258 117.575 224.855 221.427 118.155 
224.402 221.536 118.844 225.478 221.976 117.926 226.06 224.557 118.599 
216.128 230.167 117.58 225.271 233.092 118.848 199.352 239.392 119.289 
201.401 239.985 119.51 221.473 219.895 119.431 221.386 219.852 119.54 
221.489 219.88 119.528 220.794 219.953 119.566 216.869 221.213 120.074 
225.48 226.562 119.467 195.39 230.621 120.89 197.53 229.87 120.354 
209.216 230.082 119.362 223.884 231.376 120.425 212.512 230.437 118.492 
220.999 237.213 119.406 220.238 219.898 120.375 220.441 219.946 120.324 
220.972 219.995 119.951 222.151 220.255 119.584 217.019 220.636 120.899 
218.369 220.206 121.089 221.386 220.787 120.651 212.299 229.705 119.662 
221.031 236.164 120.415 195.683 239.629 121.749 203.513 241.125 121.665 
205.116 240.93 121.484 220.116 219.983 120.559 218.32 220.268 121.713 
219.691 220.074 120.827 219.192 220.312 121.367 220.595 221.939 121.912 
194.061 231.269 122.157 212.295 228.445 121.144 209.989 229.537 120.486 
194.458 239.714 123.197 194.735 240.346 123.474 217.227 220.365 122.629 
217.908 220.637 122.753 219.748 221.011 121.87 210.498 228.382 122.129 
193.388 231.588 123.504 207.48 229.054 121.776 192.847 233.031 123.644 
219.887 234.065 122.577 193.231 237.804 123.638 203.545 241.457 122.8 
215.957 220.696 123.385 215.721 220.871 123.347 216.304 220.548 123.1 
216.819 220.522 123.292 219.902 223.49 122.99 192.647 234.642 123.734 
195.352 242.03 124.789 196.855 242.309 124.35 198.18 242.404 124.243 
198.612 242.715 124.916 215.572 221.059 123.263 216.694 222.647 124.697 
211.472 225.707 124.568 193.319 231.069 124.953 192.122 235.53 125.775 
193.592 242.049 126.877 215.908 220.824 123.845 216.155 220.797 123.862 
215.46 221.229 123.989 216.038 221.245 124.294 215.115 221.687 124.084 
214.449 222.564 124.543 216.159 222.223 124.754 213.486 223.478 124.99 
203.55 241.655 125.933 195.645 243.645 126.899 196.392 243.785 126.929 
215.683 221.076 124.055 215.783 221.256 124.27 213.188 223.416 126.287 
213.172 223.415 126.33 213.148 223.446 126.314 213.217 223.446 126.296 
215.867 221.617 124.512 213.224 223.483 126.142 213.021 223.594 126.375 
213.415 223.464 126.156 215.409 222.189 124.832 212.718 223.889 126.687 
212.227 224.176 126.744 213.917 223.267 125.6 214.19 223.7 126.033 
[...]
POINT_DATA 1485
SCALARS scalars float
LOOKUP_TABLE default
1 1 1 1 1 1 1 1 1 
1 1 1 1 1 1 1 1 1 
1 1 1 1 1 1 1 1 1 
1 1 1 1 1 1 1 1 1 
1 1 1 1 1 1 1 1 1 
1 1 1 1 1 1 1 1 1 
1 1 1 1 1 1 1 1 1 
1 1 1 1 1 1 1 1 1 
1 1 1 1 1 1 1 1 1 
1 1 1 1 1 1 1 1 1 
1 1 1 1 1 1 1 1 1 
1 1 1 1 1 1 1 1 1 
1 1 1 1 1 1 1 1 1 
1 1 1 1 1 1 1 1 1 
1 1 1 1 1 1 1 1 1 
1 1 1 1 1 1 1 1 1 
1 1 1 1 1 1 1 1 1 
1 1 1 1 1 1 1 1 1 
1 1 1 1 1 1 1 1 1 
1 1 1 1 1 1 1 1 1 
1 1 1 1 1 1 1 1 1 
1 1 1 1 1 1 1 1 1 
1 1 1 1 1 1 1 1 1 
1 1 1 1 1 1 1 1 1 
1 1 1 1 1 1 1 1 1 
1 1 1 1 1 1 1 1 1 
1 1 1 1 1 1 1 1 1 
1 1 1 1 1 1 1 1 1 
1 1 1 1 1 1 1 1 1 
1 1 1 1 1 1 1 1 1 
1 1 1 1 1 1 1 1 1 
1 1 1 1 1 1 1 1 1 
1 1 1 1 1 1 1 1 1 
1 1 1 1 1 1 1 1 1 
1 1 1 1 1 1 1 1 1 
1 1 1 1 1 1 1 1 1 
1 1 1 1 1 1 1 1 1 
1 1 1 1 1 1 1 1 1 
1 1 1 1 1 1 1 1 1 
1 1 1 1 1 1 1 1 1 
1 1 1 1 1 1 1 1 1 
1 1 1 1 1 1 1 1 1 
1 1 1 1 1 1 1 1 1 
1 1 1 1 1 1 1 1 1 
1 1 1 1 1 1 1 1 1 
1 1 1 1 1 1 1 1 1 
1 1 1 1 1 1 1 1 1 
1 1 1 1 1 1 1 1 1 
1 1 1 1 1 1 1 1 1 
1 1 1 1 1 1 1 1 1 
1 1 1 1 1 1 1 1 1 
1 1 1 1 1 1 1 1 1 
1 1 1 1 1 1 1 1 1 
1 1 1 1 1 1 1 1 1 
1 1 1 1 1 1 1 1 1 
1 1 1 1 1 1 1 1 1 
1 1 1 1 1 1 1 1 1 
1 1 1 1 1 1 1 1 1 
1 1 1 1 1 1 1 1 1 
1 1 1 1 1 1 1 1 1 
1 1 1 1 1 1 1 1 1 
1 1 1 1 1 1 1 1 1 
1 1 1 1 1 1 1 1 1 
1 1 1 1 1 1 1 1 1 
1 1 1 1 1 1 1 1 1 
1 1 1 1 1 1 1 1 1 
1 1 1 1 1 1 1 1 1 
1 1 1 1 1 1 1 1 1 
1 1 1 1 1 1 1 1 1 
1 1 1 1 1 1 1 1 1 
1 1 1 1 1 1 1 1 1 
1 1 1 1 1 1 1 1 1 
1 1 1 1 1 1 1 1 1 
1 1 1 1 1 1 1 1 1 
1 1 1 1 1 1 1 1 1 
1 1 1 1 1 1 1 1 1 
1 1 1 1 1 1 1 1 1 
1 1 1 1 1 1 1 1 1 
1 1 1 1 1 1 1 1 1 
1 1 1 1 1 1 1 1 1 
1 1 1 1 1 1 1 1 1 
1 1 1 1 1 1 1 1 1 
1 1 1 1 1 1 1 1 1 
1 1 1 1 1 1 1 1 1 
1 1 1 1 1 1 1 1 1 
1 1 1 1 1 1 1 1 1 
1 1 1 1 1 1 1 1 1 
1 1 1 1 1 1 1 1 1 
1 1 1 1 1 1 1 1 1 
1 1 1 1 1 1 1 1 1 
1 1 1 1 1 1 1 1 1 
1 1 1 1 1 1 1 1 1 
1 1 1 1 1 1 1 1 1 
1 1 1 1 1 1 1 1 1 
1 1 1 1 1 1 1 1 1 
1 1 1 1 1 1 1 1 1 
1 1 1 1 1 1 1 1 1 
1 1 1 1 1 1 1 1 1 
1 1 1 1 1 1 1 1 1 
1 1 1 1 1 1 1 1 1 
1 1 1 1 1 1 1 1 1 
1 1 1 1 1 1 1 1 1 
1 1 1 1 1 1 1 1 1 
1 1 1 1 1 1 1 1 1 
1 1 1 1 1 1 1 1 1 
1 1 1 1 1 1 1 1 1 
1 1 1 1 1 1 1 1 1 
1 1 1 1 1 1 1 1 1 
1 1 1 1 1 1 1 1 1 
1 1 1 1 1 1 1 1 1 
1 1 1 1 1 1 1 1 1 
1 1 1 1 1 1 1 1 1 
1 1 1 1 1 1 1 1 1 
1 1 1 1 1 1 1 1 1 
1 1 1 1 1 1 1 1 1 
1 1 1 1 1 1 1 1 1 
1 1 1 1 1 1 1 1 1 
1 1 1 1 1 1 1 1 1 
1 1 1 1 1 1 1 1 1 
1 1 1 1 1 1 1 1 1 
1 1 1 1 1 1 1 1 1 
1 1 1 1 1 1 1 1 1 
1 1 1 1 1 1 1 1 1 
1 1 1 1 1 1 1 1 1 
1 1 1 1 1 1 1 1 1 
1 1 1 1 1 1 1 1 1 
1 1 1 1 1 1 1 1 1 
1 1 1 1 1 1 1 1 1 
1 1 1 1 1 1 1 1 1 
1 1 1 1 1 1 1 1 1 
1 1 1 1 1 1 1 1 1 
1 1 1 1 1 1 1 1 1 
1 1 1 1 1 1 1 1 1 
1 1 1 1 1 1 1 1 1 
1 1 1 1 1 1 1 1 1 
1 1 1 1 1 1 1 1 1 
1 1 1 1 1 1 1 1 1 
1 1 1 1 1 1 1 1 1 
1 1 1 1 1 1 1 1 1 
1 1 1 1 1 1 1 1 1 
1 1 1 1 1 1 1 1 1 
1 1 1 1 1 1 1 1 1 
1 1 1 1 1 1 1 1 1 
1 1 1 1 1 1 1 1 1 
1 1 1 1 1 1 1 1 1 
1 1 1 1 1 1 1 1 1 
1 1 1 1 1 1 1 1 1 
1 1 1 1 1 1 1 1 1 
1 1 1 1 1 1 1 1 1 
1 1 1 1 1 1 1 1 1 
1 1 1 1 1 1 1 1 1 
1 1 1 1 1 1 1 1 1 
1 1 1 1 1 1 1 1 1 
1 1 1 1 1 1 1 1 1 
1 1 1 1 1 1 1 1 1 
1 1 1 1 1 1 1 1 1 
1 1 1 1 1 1 1 1 1 
1 1 1 1 1 1 1 1 1 
1 1 1 1 1 1 1 1 1 
1 1 1 1 1 1 1 1 1 
1 1 1 1 1 1 1 1 1 
1 1 1 1 1 1 1 1 1 
1 1 1 1 1 1 1 1 1 
1 1 1 1 1 1 1 1 1 
1 1 1 1 1 1 1 1 1 

NORMALS Normals float
0.352732 -0.592987 -0.723842 0.212097 -0.860788 -0.462665 0.00904764 -0.10183 -0.994761 
0.611161 -0.715388 -0.338676 0.526567 -0.217518 -0.821835 0.590358 -0.240705 -0.770414 
0.27536 -0.750825 -0.600365 0.0275079 0.122885 -0.99204 0.603726 -0.794883 -0.0606368 
-0.469725 -0.132246 -0.872851 -0.645556 -0.621028 -0.444502 -0.848045 -0.0181489 -0.529614 
0.895416 -0.207281 -0.394037 0.105654 -0.947039 -0.303238 -0.514423 0.648179 -0.561455 
0.249503 0.765155 -0.593537 0.834967 0.498084 -0.233969 -0.149607 -0.576132 -0.803548 
-0.277164 -0.351723 -0.894131 -0.0497651 -0.745483 -0.664664 -0.0820685 -0.00468196 -0.996616 
0.139441 -0.629046 -0.76476 0.0193094 -0.7422 -0.6699 -0.195549 -0.182871 -0.963493 
0.256861 -0.0320304 -0.965917 0.498699 -0.843206 -0.200754 0.103476 -0.110858 -0.988435 
0.763325 -0.640945 -0.080774 0.0631601 0.288653 -0.955348 0.228384 0.311202 -0.922494 
0.812266 -0.11856 -0.57111 -0.865445 0.0766108 -0.495111 -0.720264 0.333374 -0.608343 
0.967855 0.166398 -0.188595 0.286755 0.834559 -0.470407 0.00879826 -0.901181 -0.433353 
-0.0363681 -0.914576 -0.402776 -0.00973615 -0.88912 -0.457571 0.197827 -0.926538 -0.319986 
-0.295258 -0.263004 -0.918505 0.368161 -0.92773 -0.0614409 -0.219988 0.302617 -0.927377 
0.651216 0.0300347 -0.758298 0.739526 -0.363139 -0.566773 0.300307 0.210114 -0.930413 
0.601784 -0.03015 -0.79809 -0.441221 -0.759245 -0.478404 -0.778774 -0.294797 -0.55372 
0.973364 -0.212279 -0.0866026 -0.148749 -0.746281 -0.648798 0.115219 -0.977402 -0.177231 
-0.315461 0.783325 -0.535618 -0.31112 -0.44324 -0.84068 0.144658 -0.987776 -0.0580824 
0.63263 0.588033 -0.503982 0.352968 -0.934675 0.0423903 0.371209 -0.926085 0.0676078 
0.649455 -0.757931 -0.0612227 0.665956 -0.288579 -0.687914 0.346514 0.0807349 -0.934564 
0.194183 0.188997 -0.962587 0.419777 0.0525785 -0.906103 0.564213 -0.427989 -0.706038 
0.546027 -0.237977 -0.803257 0.403404 0.027254 -0.914616 0.506955 0.207747 -0.836563 
0.693516 0.108694 -0.712195 0.235815 0.369968 -0.898619 -0.696242 -0.427339 -0.57674 
-0.744629 -0.393856 -0.538892 -0.102425 -0.959605 -0.262043 -0.796855 -0.214043 -0.564985 
-0.0794271 -0.914575 -0.39654 -0.36525 -0.522895 -0.770178 -0.480313 -0.120506 -0.86878 
-0.227711 -0.754502 -0.615528 -0.411699 -0.114079 -0.904152 -0.4298 0.238129 -0.870957 
-0.312677 0.489755 -0.813863 0.571887 -0.785132 -0.237724 -0.265813 0.620992 -0.737369 
0.00732207 0.398676 -0.917063 0.0914709 0.443101 -0.891793 0.615565 -0.597123 -0.514318 
0.709687 -0.215037 -0.670898 -0.269179 0.777428 -0.568462 0.0803556 0.669312 -0.738624 
0.369038 0.535302 -0.759778 -0.679783 -0.48566 -0.549571 0.00332052 -0.971632 -0.236474 
0.0812073 -0.970571 -0.22671 -0.401054 -0.254744 -0.879921 0.174146 -0.984517 -0.0199884 
-0.233945 0.712291 -0.661748 -0.404408 -0.359029 -0.841161 -0.439352 0.116302 -0.890754 
-0.464031 -0.110548 -0.878894 -0.48666 0.146534 -0.861214 0.606134 -0.695528 -0.3858 
0.703815 -0.424648 -0.569489 0.835178 -0.467937 -0.288986 0.889478 -0.143393 -0.433898 
-0.123842 0.815353 -0.565564 -0.00114754 0.868173 -0.49626 0.162806 0.784679 -0.598142 
0.625522 0.375884 -0.683691 -0.240375 -0.853429 -0.462469 0.147754 -0.957941 -0.246004 
-0.673635 -0.35704 -0.6471 0.709508 -0.703165 -0.0464465 0.940063 -0.323645 0.107406 
0.992375 0.100521 -0.0713278 -0.463205 -0.415388 -0.782875 0.0979096 -0.987267 0.125371 
-0.376554 0.545875 -0.748483 0.925198 0.222407 -0.30748 0.528998 0.552597 -0.644048 
0.785574 -0.512147 -0.347246 0.994704 -0.084457 -0.0585752 -0.254103 0.947854 -0.192366 
-0.168267 0.97978 -0.108243 -0.106709 0.927228 -0.358974 0.967284 0.0488356 -0.248953 
-0.00453103 0.991235 -0.132029 0.0997688 0.886694 -0.451463 0.111843 0.987781 0.108532 
0.553907 0.543983 -0.630293 0.860324 0.16226 -0.483232 0.443933 0.874647 -0.19472 
0.903824 0.39805 -0.157032 -0.778099 0.249641 -0.576404 -0.834314 0.271007 -0.480078 
-0.619449 0.575615 -0.533807 0.955786 -0.293794 -0.0126166 -0.163474 -0.913759 -0.371915 
-0.496341 -0.49155 -0.715558 -0.481904 -0.471936 -0.738272 0.0693064 -0.958072 0.27802 
-0.0408409 0.540075 -0.840625 0.47983 0.391264 -0.785287 0.405396 -0.851446 -0.332706 
0.418025 -0.690041 -0.590846 0.442643 -0.65888 -0.60823 0.611541 -0.526768 -0.590367 
0.838455 -0.350086 -0.417652 0.158545 0.987048 0.0244862 0.593514 0.742975 0.309403 
-0.183677 -0.749491 -0.636023 -0.707654 -0.0507032 -0.704737 -0.318533 -0.780141 -0.53844 
-0.414594 -0.580103 -0.701137 -0.386398 -0.74374 -0.545479 -0.624932 0.462248 -0.629117 
-0.423902 -0.399183 -0.812994 -0.433628 0.0276321 -0.900668 -0.493451 0.379007 -0.782854 
-0.525769 0.06672 -0.848007 0.114501 0.20714 -0.971588 0.476535 0.0802189 -0.875488 
0.135154 -0.0625716 -0.988847 0.819739 0.161077 -0.549621 0.308118 -0.250776 -0.917701 
0.799074 -0.170402 -0.576579 0.238505 -0.898176 -0.369318 0.536749 -0.524827 -0.660649 
-0.0356775 0.999341 0.00661986 -0.00762583 0.987449 0.157756 0.203376 0.972498 0.113515 
0.345466 0.897779 0.273213 0.51744 0.702314 0.488887 0.937098 0.247907 0.245741 
0.28902 0.892998 0.344997 0.208634 -0.83257 -0.513126 0.202649 -0.891167 -0.405901 
-0.0543156 -0.996359 -0.0657134 -0.666948 0.291936 -0.685532 -0.115746 -0.919601 -0.375415 
-0.277164 -0.689095 -0.669573 -0.545881 -0.17764 -0.818815 -0.468701 -0.507449 -0.72306 
-0.415534 0.280239 -0.865331 0.203488 -0.958548 0.199446 0.0473046 -0.214582 -0.97556 
-0.147918 -0.122726 -0.981356 0.133738 -0.990335 0.0367579 0.0503711 -0.354853 -0.933564 
0.0418569 -0.920882 -0.387588 0.149901 -0.715643 -0.682191 0.221418 -0.519215 -0.825464 
0.87023 0.310138 0.382772 0.0246709 0.977521 0.209388 0.671688 0.554947 0.490784 
0.386639 -0.825995 -0.410173 -0.564362 -0.418142 -0.711796 -0.35948 -0.558872 -0.747286 
0.177401 -0.957716 0.226515 -0.474144 -0.56938 -0.671561 -0.468886 -0.120758 -0.874965 
-0.456378 -0.196045 -0.86792 -0.377276 -0.010368 -0.926043 0.0763304 -0.994826 -0.0670425 
-0.0617493 -0.420041 -0.905402 0.213171 -0.965851 -0.147277 -0.332867 0.642148 -0.69054 
0.223062 0.894763 0.386835 -0.0309843 0.995602 0.0884074 0.297507 -0.818765 -0.491033 
0.14494 -0.972768 0.180874 -0.538751 -0.260506 -0.801177 -0.42029 0.592624 -0.687134 
0.998999 0.0292029 -0.033886 -0.224448 -0.747602 -0.625071 -0.23469 0.899106 -0.369498 
0.0593426 0.985804 0.157063 0.494824 0.721594 0.484201 0.610173 -0.747535 -0.262453 
-0.519111 -0.322643 -0.79147 0.920254 -0.38312 0.0797009 -0.571118 -0.00595967 -0.820846 
-0.512689 0.162322 -0.843091 0.0895915 -0.983274 -0.158576 -0.0599631 -0.938076 -0.341201 
-0.128366 -0.938371 -0.320908 0.912511 0.224257 0.3421 0.688209 -0.681596 -0.248585 
0.970975 -0.0884606 0.222221 -0.520944 -0.603612 -0.603547 -0.365526 -0.82403 -0.432856 
-0.514946 -0.646269 -0.563176 -0.581253 -0.160798 -0.797677 -0.418434 0.501944 -0.756944 
-0.353962 -0.678183 -0.644033 0.147721 -0.941979 -0.301419 -0.00925847 -0.945303 -0.326063 
-0.0486619 -0.93672 -0.346679 0.685924 0.481065 0.545972 0.0392523 0.993908 0.10299 
-0.217058 -0.521847 -0.824961 -0.539823 -0.364139 -0.758943 -0.380287 -0.206031 -0.901628 
0.884281 -0.466596 -0.0182905 -0.51752 -0.604709 -0.605393 -0.525308 -0.656057 -0.541886 
-0.659661 -0.141118 -0.738196 0.165435 -0.977986 -0.127179 -0.537107 0.143246 -0.831262 
-0.125544 -0.8519 -0.508434 0.568756 0.605201 0.556999 0.536629 -0.752523 -0.381758 
0.445318 -0.74273 -0.500043 0.0310084 -0.744839 -0.666523 0.783308 -0.585355 -0.209257 
-0.529727 -0.162701 -0.832417 0.947113 -0.262194 0.185018 -0.503334 -0.635631 -0.585345 
-0.269032 -0.920096 -0.284684 -0.618367 -0.118859 -0.77685 -0.683578 -0.413249 -0.60162 
-0.724931 -0.24702 -0.643005 -0.640506 0.281679 -0.714429 -0.474095 0.291548 -0.830803 
0.151814 -0.945416 -0.288341 -0.197231 -0.749682 -0.631726 -0.452762 -0.496115 -0.740862 
-0.430757 0.466056 -0.772813 -0.0166581 -0.879734 -0.475174 0.70862 0.26647 0.653339 
-0.241202 0.743312 -0.623947 -0.053326 0.927048 -0.37113 0.237305 0.867975 0.436241 
0.137205 -0.881682 -0.451455 0.512873 -0.782607 -0.352827 0.0607684 -0.814955 -0.576329 
0.809335 -0.579219 -0.0973797 -0.262504 -0.621755 -0.737911 0.890421 -0.439003 0.120111 
0.935238 -0.146632 0.322225 0.883825 0.120318 0.452082 -0.483631 -0.20902 -0.849948 
-0.795615 0.0814402 -0.600304 -0.643373 0.461828 -0.610562 0.562696 0.55226 0.615128 
0.316554 -0.931386 -0.179762 0.705793 -0.704717 0.0723184 -0.185525 -0.805075 -0.563414 
0.782892 -0.618575 0.0666803 -0.0379155 -0.769823 -0.637131 0.810897 -0.0642644 0.581649 
-0.798292 -0.446503 -0.404185 -0.401588 -0.809011 -0.429218 -0.10568 -0.765591 -0.634588 
-0.326842 -0.445137 -0.833683 -0.903769 -0.113613 -0.412666 0.000172049 -0.886009 -0.463668 
-0.395379 0.671393 -0.626822 0.148855 -0.951001 -0.270995 0.58687 -0.802722 0.105936 
0.654371 -0.697314 0.292491 -0.333265 -0.791979 -0.51157 -0.549453 -0.565304 -0.61525 
-0.739827 -0.32621 -0.588424 0.834569 -0.371467 0.406825 0.870835 -0.253386 0.421238 
0.107278 -0.944884 -0.309331 -0.852995 0.217479 -0.47445 0.50992 0.528895 0.678419 
-0.170541 0.801834 -0.572694 -0.166665 0.821921 -0.544674 0.377894 -0.923672 0.0634579 
0.504933 -0.824231 0.256291 0.504098 -0.822129 0.264554 0.624466 -0.548167 0.556377 
0.586165 -0.613619 0.52904 0.70762 -0.489342 0.509723 0.688259 -0.228195 0.688641 
-0.4488 -0.53103 -0.718739 0.676228 0.230173 0.699812 -0.234492 0.777804 -0.583125 
-0.110156 0.857665 -0.502271 0.0906013 -0.937492 -0.336007 0.0522023 -0.998477 0.0178566 
0.372455 -0.878315 0.299733 -0.135543 -0.966898 -0.216186 -0.706266 -0.539688 -0.458177 
0.645226 -0.0573137 0.761839 -0.559204 -0.785361 -0.265519 -0.185377 -0.928451 -0.321891 
0.0558221 -0.923011 -0.380703 0.566034 0.23609 0.789852 -0.133623 -0.867752 -0.478697 
0.367428 0.723536 0.584374 0.0413212 -0.988888 0.142803 0.466859 -0.590648 0.658162 
0.236604 -0.890255 0.389185 0.42299 -0.873106 0.242417 -0.466274 -0.822451 -0.325826 
-0.108941 -0.991442 0.0719311 0.514055 -0.48715 0.705997 -0.259722 -0.803743 -0.535295 
0.447597 0.521195 0.726645 -0.470779 0.673121 -0.570329 0.309226 0.902319 -0.300333 
0.106511 0.926446 -0.361045 0.281261 -0.706553 0.649365 0.0336912 -0.988009 0.150675 
0.359246 -0.663626 0.656158 0.211954 -0.878397 0.428362 0.571903 -0.419099 0.705183 
-0.697384 -0.670459 -0.25326 -0.326536 -0.73533 -0.593855 -0.0253598 -0.829173 -0.558417 
-0.738459 0.475262 -0.478336 -0.49017 0.627611 -0.604846 0.0297171 -0.983373 0.17915 
0.402683 -0.640074 0.654333 0.465301 -0.631923 0.619813 -0.18212 -0.802053 -0.568809 
-0.827301 -0.405108 -0.38918 -0.104459 -0.918302 -0.381851 -0.76776 -0.137243 -0.625867 
0.480369 0.309445 0.820664 -0.785615 0.195085 -0.587155 0.344634 0.903871 -0.253466 
-0.334045 -0.930453 0.150567 -0.668925 -0.739496 -0.075396 -0.354438 -0.928396 -0.111598 
0.0584632 -0.915746 0.397481 0.596919 -0.221781 0.771039 -0.926624 -0.0522841 -0.372336 
-0.55298 0.665236 -0.501672 -0.181115 0.771519 -0.609882 -0.164479 0.802932 -0.572929 
0.05857 0.922459 -0.381626 -0.745259 -0.64934 -0.151482 0.365478 -0.378333 0.850465 
-0.610397 -0.623245 -0.488857 -0.872108 -0.459549 -0.168055 -0.975678 -0.0323239 -0.21681 
-0.77326 0.491652 -0.400434 -0.478078 -0.843946 0.243303 0.090236 -0.808233 0.581908 
-0.738941 -0.67367 -0.0116409 0.105878 -0.611848 0.783857 -0.775751 -0.630837 0.0159732 
-0.697262 -0.697162 0.166709 0.245405 -0.324874 0.913363 -0.592723 -0.80506 -0.0236277 
0.471495 0.873937 0.118013 -0.299279 0.836653 -0.458741 0.017764 0.897337 -0.440988 
-0.479117 -0.65992 0.578751 -0.387558 -0.532725 0.752332 7.04983e-05 -0.973182 -0.230038 
-0.0970878 -0.901318 0.422136 -0.774264 -0.620142 -0.126252 0.619733 -0.652255 0.436457 
0.0132222 -0.469693 0.882731 -0.3217 -0.924161 -0.205998 -0.565371 -0.782904 0.259646 
0.282039 -0.797085 0.533957 0.126076 -0.387693 0.913126 -0.0877943 -0.829296 0.55187 
-0.53922 -0.840026 0.0599827 -0.297909 -0.836378 0.460132 0.239087 -0.581705 0.777468 
-0.431916 -0.878192 -0.205493 -0.483781 -0.836538 -0.257218 0.602646 0.223431 0.766092 
0.0554249 0.930616 -0.361776 0 0 -1 -0.83205 -0.5547 0 
-1 0 2.78775e-08 1 0 2.78775e-08 -0.13845 -0.546516 0.825925 
0 0.5547 -0.83205 -0.157809 -0.823772 0.544515 0.248065 -0.517124 0.819174 
0.307783 -0.542239 0.781823 0.309569 -0.509168 0.803066 -0.285219 -0.828755 0.481473 
0.526795 0.532953 0.662154 0.33847 0.927182 -0.160537 0 0 1 
0.142855 -0.525374 0.838794 0.081433 -0.900341 0.427497 0.215626 -0.60207 0.768777 
0.486355 -0.200392 0.850471 0.584294 -0.0998103 0.805381 -0.978892 0.178748 -0.0990946 
0.00493724 0.972283 -0.233755 0 0 -1 -0.83205 -0.5547 0 
-1 0 2.78775e-08 1 0 2.78775e-08 0 0.5547 -0.83205 
0.401461 -0.555458 0.728214 -0.752003 -0.626071 -0.206221 -0.891061 0.42331 -0.163768 
-0.558761 0.762001 -0.327324 -0.632777 0.749332 -0.195177 0 0 -1 
-0.83205 -0.5547 0 -1 0 2.78775e-08 0 0 1 
1 0 2.78775e-08 0 0.5547 -0.83205 0.0735134 -0.978341 0.193506 
-0.0427303 -0.931863 0.360286 0.346172 -0.830524 0.436342 0.150996 -0.948037 0.280047 
-0.790855 0.60485 -0.0932939 0 0 1 0.398257 -0.882751 0.249284 
0.136804 -0.973379 0.183897 -0.188803 -0.980987 0.0449232 0.534349 -0.602668 0.592674 
-0.160432 -0.845605 0.50913 0.517247 -0.554206 0.652159 0.405439 -0.818766 0.406499 
0.230821 -0.723233 0.650888 -0.092469 -0.994853 -0.0414473 0.598037 -0.345873 0.722996 
-0.846685 -0.49888 -0.185053 -0.803891 0.593557 0.0380639 -0.213523 0.973257 -0.0847316 
-0.385177 0.921308 -0.0532018 -0.00988739 -0.884706 0.466044 0.605606 -0.566606 0.558748 
0.323605 -0.564833 0.759107 0.0154739 -0.998787 0.0467505 0.289215 -0.918606 0.269291 
0.551535 -0.324064 0.76863 0.502539 -0.140026 0.85314 0.59836 0.0199755 0.800978 
0.575492 0.2724 0.771108 0.491422 0.518704 0.699607 0.592566 0.636342 0.493897 
0.499764 -0.701748 0.507725 0.172496 -0.94417 0.280693 0.101984 -0.993419 0.052132 
0.311649 -0.921419 0.232083 0.626662 -0.174392 0.759528 -0.884486 -0.397752 -0.243881 
-0.937587 0.34722 0.0192098 -0.202259 0.977665 0.0571219 0.281117 0.955748 0.0867123 
0.493375 -0.811602 0.312863 0.581134 -0.495112 0.64587 -0.0374845 -0.969808 -0.240972 
0.697366 -0.497461 0.515959 0.734543 -0.441506 0.515285 0.789982 -0.342442 0.508588 
0.605217 0.697892 0.38296 0.239382 0.944993 0.222901 0 0 -1 
-0.83205 -0.5547 0 -1 0 2.78775e-08 1 0 2.78775e-08 
0 0.5547 -0.83205 -0.740273 0.630924 0.232229 -0.55126 0.764223 0.334776 
0.330588 0.874065 0.355979 -0.337809 0.888785 0.309751 0 0 1 
0.741379 -0.574649 0.346604 -0.498479 -0.750375 -0.434116 -0.10006 -0.895883 -0.432876 
-0.92031 -0.280365 -0.272808 -0.92822 0.303852 0.214667 0.111944 0.81427 0.56959 
0.0763901 0.881317 0.466309 0.395618 -0.915348 -0.0749949 0.567296 -0.817859 -0.0963412 
0.859162 -0.383077 0.339253 0.722987 -0.651865 0.228826 0.805888 -0.522849 0.277802 
-0.208499 0.844299 0.493648 0 0 -1 -0.83205 -0.5547 0 
-1 0 2.78775e-08 1 0 2.78775e-08 0 0.5547 -0.83205 
0.765622 -0.434585 0.474297 0.812355 -0.455472 0.364176 0.838879 -0.14535 0.524553 
0.420502 0.657441 0.62526 -0.43415 0.749221 0.500182 0 0 1 
0.654424 -0.75327 0.065684 -0.689702 0.573909 0.441521 -0.135003 -0.758294 -0.637781 
0.115714 -0.880408 -0.459882 0.622653 -0.780962 0.0490067 0.832038 -0.424851 0.356671 
0.878678 -0.30794 0.364826 0.888744 -0.0585744 0.454646 0.697533 0.376843 0.609456 
-0.574239 0.653167 0.493581 -0.0449892 0.741792 0.669119 -0.216985 0.767368 0.603376 
-0.384148 -0.677945 -0.626754 -0.474205 -0.743596 -0.471374 0.280034 -0.931535 -0.231998 
0.780718 -0.624879 -0.00257168 -0.666752 -0.612812 -0.424149 0.885932 -0.379549 0.266584 
-0.966886 -0.0465348 -0.250932 0.0896377 0.707918 0.700584 -0.148108 -0.920103 -0.362593 
-0.130077 -0.879912 -0.456984 0.356455 -0.882528 -0.306733 0.598765 -0.80048 -0.0266751 
0.79599 -0.588682 0.140899 0.755433 0.314214 0.574969 -0.790423 0.374811 0.484507 
0.570929 0.415224 0.708258 0.426286 0.575692 0.697752 -0.459123 0.569479 0.681835 
-0.0776938 0.681435 0.727743 -0.280972 -0.759005 -0.587338 -0.0329311 -0.837932 -0.54478 
0.753427 -0.636953 0.163214 0.917615 -0.21237 0.335978 -0.99476 0.102025 0.00655768 
0.440865 0.40018 0.803426 0.361226 0.409244 0.837875 0.184192 0.507846 0.841526 
0.48851 -0.841939 -0.22912 0.820976 -0.567472 0.0630391 0.898723 -0.416656 0.136728 
0.795458 0.170058 0.581658 -0.94165 -0.209132 -0.26374 -0.95451 0.243862 -0.171586 
-0.703099 0.388932 0.595302 0.325071 0.46413 0.823961 0.262052 0.404166 0.876344 
-0.166077 0.496411 0.852053 -0.289414 0.543631 0.787848 0.0971693 -0.878245 -0.468235 