# vtk DataFile Version 4.2
vtk output
ASCII
DATASET POLYDATA
POINTS 2057 float
244.866 228.997 180.568 249.227 233.023 180.02 250.029 234.714 179.907 
249.319 234.272 180.002 253.685 235.708 179.988 253.377 235.237 180.107 
253.959 235.608 180.07 249.99 235.021 179.982 250.167 235.293 180.057 
251.037 235.401 179.915 254.095 236.43 180.007 244.125 228.151 180.907 
243.735 228.582 180.861 244.557 230.962 180.848 245.629 230.865 180.402 
245.755 231.456 180.449 245.289 231.826 180.784 245.199 231.995 180.978 
251.107 233.374 180.472 249.189 233.749 179.967 249.433 234.954 180.231 
250.007 235.521 180.339 252.921 237.832 180.664 255.766 238.165 180.381 
262.703 238.929 180.808 282.817 239.22 181.655 282.637 239.284 181.65 
263.211 239.589 180.702 239.641 224.448 182.017 240.193 223.95 182.007 
240.838 224.126 181.995 240.756 224.939 181.756 241.146 224.937 181.751 
242.153 226.215 181.499 243.963 226.685 181.67 242.33 227.217 181.325 
242.908 227.428 181.172 244.314 227.487 181.276 245.438 228.571 181.006 
247.747 230.605 180.897 243.582 230.574 181.354 243.789 230.986 181.446 
250.888 233.003 180.741 244.821 231.946 181.344 252.579 233.977 180.884 
245.612 232.445 181.07 246.93 233.244 180.685 255.478 235.917 180.549 
255.81 235.71 181.069 255.911 236.312 180.459 249.89 235.96 180.938 
250.743 236.268 180.505 260.542 237.662 181.095 261.903 237.943 181.285 
251.737 237.194 180.711 259.627 237.591 180.86 262.714 238.394 181.116 
252.366 237.8 181.022 264.427 239.303 180.989 282.234 239.25 181.68 
260.374 239.79 180.61 264.318 240.195 180.802 273.56 240.317 181.408 
274.112 239.908 181.553 282.554 239.491 181.725 255.083 239.522 181.423 
259.053 240.053 180.783 273.014 240.738 181.33 279.812 240.26 181.623 
257.077 240.332 181.499 257.932 240.256 181.122 262.683 240.893 180.915 
272.472 241.152 181.315 276.503 240.908 181.571 281.22 240.309 181.851 
281.926 240.297 182.017 276.933 241.223 181.753 236.457 221.601 182.748 
237.703 221.66 182.608 238.502 221.832 182.615 239.846 222.825 182.415 
240.761 222.88 182.643 237.447 222.725 182.525 236.8 222.946 182.81 
242.685 225.629 181.817 243.412 225.84 182.037 241.518 226.07 181.609 
244.194 226.75 181.759 244.444 226.884 181.878 240.347 226.704 182.242 
241.211 227.373 181.893 247.929 230.554 181.469 242.867 230.4 182.084 
251.271 233.133 180.958 251.332 233.117 181.233 255.24 235.346 181.415 
257.988 236.53 181.488 249.515 235.804 181.387 259.698 237.071 181.425 
284.466 238.168 182.751 251.314 237.111 181.075 267.663 239.123 181.706 
284.083 238.794 182.161 284.989 238.746 182.371 286.898 238.111 182.996 
288.536 238.136 183.536 252.107 237.714 181.206 271.135 239.259 182.016 
274.667 239.527 181.757 277.054 239.007 182.075 284.912 239.06 182.282 
286.998 238.633 182.946 253.99 238.894 181.299 284.255 239.504 182.197 
254.654 239.446 181.704 256.748 240.305 181.652 256.771 240.362 181.786 
282.803 240.447 182.552 258.064 240.722 181.763 258.588 240.819 181.607 
260.437 241.385 181.581 273.338 241.83 181.655 275.34 241.682 181.856 
280.461 241.08 182.366 260.988 241.749 181.938 264.674 242.008 181.66 
267.86 242.22 181.528 274.72 241.989 182.037 279.383 241.423 182.413 
271.594 242.44 182.055 229.955 213.56 184.632 230.427 214.247 184.376 
231.765 216.132 183.921 233.598 216.519 183.671 234.37 216.789 183.692 
234.572 216.511 183.891 231.536 216.48 184.079 234.999 217.478 183.56 
235.846 217.305 184.083 236.361 218.479 183.528 236.702 218.355 183.78 
238.041 220.527 183.1 234.171 219.966 183.464 234.772 221.163 183.513 
235.767 221.26 182.97 240.834 222.643 182.955 235.539 222.283 183.51 
236.079 222.662 183.225 242.286 224.561 182.325 236.489 223.331 183.322 
238.043 224.908 182.927 239.093 226.44 183.156 243.736 231.344 182.169 
252.585 233.936 181.631 246.295 233.384 181.978 257.073 236.19 182.02 
278.643 238.4 183.054 281.452 238.18 183.078 283.396 238.021 183.106 
285.189 237.877 183.175 287.764 237.64 183.569 271.831 239.034 182.38 
272.625 238.888 182.745 251.577 237.375 181.611 252.059 237.659 181.872 
285.821 239.112 182.632 287.233 238.796 183.099 287.861 238.728 183.397 
252.854 238.216 181.734 254.408 239.318 181.823 286 239.593 183.118 
287.125 239.286 183.463 255.407 239.82 182.068 255.868 240.08 182.063 
255.769 240.03 182.162 256.538 240.289 182.091 258.924 240.993 181.995 
260.323 241.554 182.083 275.538 242.121 182.505 278.362 241.685 182.635 
268.343 242.666 182.13 270.863 242.564 182.085 271.124 242.575 182.294 
228.776 210.707 185.658 227.895 211.116 185.627 229.017 211.747 185.221 
229.052 213.473 185.043 230.886 214.329 184.314 232.008 214.074 184.569 
230.714 215.492 184.384 234.994 216.681 183.968 235.548 216.737 184.381 
231.266 217.151 184.59 236.457 217.662 184.304 232.22 218.268 184.207 
231.866 218.125 184.594 237.666 219.145 183.957 238.806 220.529 183.512 
238.981 220.336 183.992 239.509 220.868 183.866 233.813 220.467 184.163 
239.723 221.245 183.571 240.828 222.252 183.573 236.482 223.62 183.648 
237.583 224.634 183.183 244.917 227.067 182.745 238.356 226.021 183.619 
239.891 227.505 183.428 241.422 229.189 183.223 248.503 231.171 182.249 
242.458 230.247 182.871 244.083 231.716 182.81 246.571 233.439 182.684 
255.662 235.736 182.261 259.671 236.893 182.293 289.865 236.979 184.74 
290.719 237.228 184.638 290.694 236.947 184.878 263.579 237.947 182.479 
268.261 238.575 182.801 279.461 238.246 183.531 282.237 237.999 183.559 
284.215 237.799 183.595 292.342 237.13 185.266 250.296 236.259 182.085 
271.402 238.811 183.246 290.959 237.737 184.622 290.236 238.187 184.501 
288.279 238.897 183.825 289.397 238.466 184.187 254.826 239.512 182.113 
255.722 239.91 182.291 257.444 240.413 182.492 282.804 240.753 183.142 
286.234 239.747 183.682 258.382 240.758 182.377 261.035 241.651 182.604 
282.165 240.964 183.311 261.9 241.822 182.723 265.017 242.277 182.721 
270.976 242.566 182.673 270.145 242.587 182.831 274.661 242.215 183.152 
276.573 241.991 183.144 262.201 241.95 182.509 226.456 209.804 186.447 
234.311 215.295 184.891 230.905 217.046 184.999 236.608 217.488 184.796 
232.641 219.349 184.934 234.492 221.624 184.552 237.043 224.443 183.825 
238.206 226.029 184.167 247.557 230.759 183.063 241.939 229.738 183.574 
249.427 232.214 182.502 243.94 231.482 183.23 250.18 233.88 183.021 
245.337 232.535 183.03 246.524 233.164 183.087 245.953 232.7 183.302 
246.361 232.806 183.377 247.158 233.479 183.074 251.643 234.808 182.914 
247.59 233.96 182.78 288.223 237.04 184.856 290.053 236.783 185.112 
250.145 236.015 182.326 268.27 238.639 183.535 293.793 236.924 186.103 
293.579 237.061 186.015 293.82 236.98 186.12 293.957 236.901 186.24 
252.692 237.538 182.622 272.273 238.873 183.581 292.496 237.338 185.389 
293.842 237.032 186.187 252.587 237.852 182.27 257.773 239.426 183.335 
258.391 240.232 183.056 287.512 239.382 184.18 259.341 240.618 183.062 
283.415 240.653 183.727 284.08 240.439 184.145 286.748 239.659 184.152 
262.826 241.424 183.395 279.099 241.617 183.429 281.277 241.176 183.727 
266.519 242.111 183.334 270.478 242.228 183.563 274.27 242.113 183.522 
276.348 241.929 183.53 225.586 209.718 187.004 227.766 212.712 185.928 
227.657 213.016 186.332 236.418 216.99 185.425 231.172 217.709 185.592 
233.494 220.556 185.329 237.704 225.412 184.661 238.463 226.218 184.632 
245.353 228.04 183.776 245.609 228.506 183.828 239.482 227.175 184.474 
241.387 229.017 184.149 242.345 229.913 184.058 248.446 232.334 183.224 
245.54 231.989 183.744 248.256 232.838 183.36 246.6 232.607 183.542 
253.971 235.774 182.859 294.067 236.411 186.434 294.309 236.255 186.674 
260.544 237.533 182.949 287.926 237.044 185.108 293.704 236.757 186.107 
294.436 236.347 186.658 294.303 236.521 186.512 294.538 236.515 186.674 
294.557 236.416 186.698 294.681 236.426 186.822 250.807 236.089 182.623 
259.45 237.766 183.285 263.981 238.214 183.138 264.747 238.5 183.411 
278.229 238.45 184.228 282.773 237.932 184.533 285.028 237.608 184.665 
294.34 236.719 186.579 253.513 237.246 183.024 257.045 237.92 183.376 
270.436 239.066 184.045 273.144 238.98 183.912 292.971 237.413 185.798 
258.243 239.178 183.532 292.697 237.661 185.854 293.026 237.557 186.022 
259.525 239.318 183.743 290.029 238.555 184.953 288.995 238.947 185.153 
264.947 240.985 184.006 265.935 241.027 184.121 282.753 240.786 184.168 
274.395 241.652 184.178 275.789 241.823 183.873 277.02 241.583 184.111 
279.097 241.463 183.966 229.767 210.231 186.774 227.743 213.476 186.732 
236.131 216.588 185.967 229.854 216.179 186.171 237.135 217.781 185.807 
237.922 218.738 185.71 238.894 220.125 185.786 234.35 221.559 185.708 
235.501 222.63 185.985 235.781 223.052 185.609 237.658 225.283 184.994 
244.104 226.931 184.5 238.976 226.496 185.039 244.707 228.33 184.489 
239.263 226.836 184.882 240.098 227.608 184.772 240.4 227.715 184.89 
244.929 228.907 184.479 245.776 229.068 183.93 240.863 228.252 184.686 
241.265 228.727 184.493 243.596 230.839 184.024 249.635 234.202 183.147 
293.464 235.775 187.06 249.521 234.473 183.072 291.073 236.38 186.119 
294.527 236.234 186.82 294.406 236.128 186.933 294.662 236.19 187.004 
290.353 236.568 186.113 263.071 238.529 183.543 280.499 238.393 184.802 
282.485 238.076 184.913 284.155 237.829 185.131 284.914 237.711 185.177 
294.532 236.795 186.915 260.94 238.766 183.703 270.13 239.264 184.22 
271.942 239.268 184.238 277.723 238.828 184.74 279.605 238.639 184.929 
283.193 238.135 185.341 293.596 237.349 186.37 264.705 239.444 183.98 
270.738 239.58 184.416 273.771 239.472 184.501 278.266 238.997 185.009 
293.225 237.541 186.321 267.612 239.933 184.373 274.583 239.773 184.729 
290.495 238.486 185.663 264.6 240.601 184.092 265.68 240.581 184.218 
266.346 240.678 184.287 287.109 239.54 184.927 268.981 241.402 184.249 
278.57 240.977 184.679 281.73 240.86 184.448 283.334 240.342 184.946 
273.044 241.383 184.418 223.207 204.45 189.322 221.779 205.342 189.173 
[...]
POINT_DATA 2057
SCALARS scalars float
LOOKUP_TABLE default
1 1 1 1 1 1 1 1 1 
1 1 1 1 1 1 1 1 1 
1 1 1 1 1 1 1 1 1 
1 1 1 1 1 1 1 1 1 
1 1 1 1 1 1 1 1 1 
1 1 1 1 1 1 1 1 1 
1 1 1 1 1 1 1 1 1 
1 1 1 1 1 1 1 1 1 
1 1 1 1 1 1 1 1 1 
1 1 1 1 1 1 1 1 1 
1 1 1 1 1 1 1 1 1 
1 1 1 1 1 1 1 1 1 
1 1 1 1 1 1 1 1 1 
1 1 1 1 1 1 1 1 1 
1 1 1 1 1 1 1 1 1 
1 1 1 1 1 1 1 1 1 
1 1 1 1 1 1 1 1 1 
1 1 1 1 1 1 1 1 1 
1 1 1 1 1 1 1 1 1 
1 1 1 1 1 1 1 1 1 
1 1 1 1 1 1 1 1 1 
1 1 1 1 1 1 1 1 1 
1 1 1 1 1 1 1 1 1 
1 1 1 1 1 1 1 1 1 
1 1 1 1 1 1 1 1 1 
1 1 1 1 1 1 1 1 1 
1 1 1 1 1 1 1 1 1 
1 1 1 1 1 1 1 1 1 
1 1 1 1 1 1 1 1 1 
1 1 1 1 1 1 1 1 1 
1 1 1 1 1 1 1 1 1 
1 1 1 1 1 1 1 1 1 
1 1 1 1 1 1 1 1 1 
1 1 1 1 1 1 1 1 1 
1 1 1 1 1 1 1 1 1 
1 1 1 1 1 1 1 1 1 
1 1 1 1 1 1 1 1 1 
1 1 1 1 1 1 1 1 1 
1 1 1 1 1 1 1 1 1 
1 1 1 1 1 1 1 1 1 
1 1 1 1 1 1 1 1 1 
1 1 1 1 1 1 1 1 1 
1 1 1 1 1 1 1 1 1 
1 1 1 1 1 1 1 1 1 
1 1 1 1 1 1 1 1 1 
1 1 1 1 1 1 1 1 1 
1 1 1 1 1 1 1 1 1 
1 1 1 1 1 1 1 1 1 
1 1 1 1 1 1 1 1 1 
1 1 1 1 1 1 1 1 1 
1 1 1 1 1 1 1 1 1 
1 1 1 1 1 1 1 1 1 
1 1 1 1 1 1 1 1 1 
1 1 1 1 1 1 1 1 1 
1 1 1 1 1 1 1 1 1 
1 1 1 1 1 1 1 1 1 
1 1 1 1 1 1 1 1 1 
1 1 1 1 1 1 1 1 1 
1 1 1 1 1 1 1 1 1 
1 1 1 1 1 1 1 1 1 
1 1 1 1 1 1 1 1 1 
1 1 1 1 1 1 1 1 1 
1 1 1 1 1 1 1 1 1 
1 1 1 1 1 1 1 1 1 
1 1 1 1 1 1 1 1 1 
1 1 1 1 1 1 1 1 1 
1 1 1 1 1 1 1 1 1 
1 1 1 1 1 1 1 1 1 
1 1 1 1 1 1 1 1 1 
1 1 1 1 1 1 1 1 1 
1 1 1 1 1 1 1 1 1 
1 1 1 1 1 1 1 1 1 
1 1 1 1 1 1 1 1 1 
1 1 1 1 1 1 1 1 1 
1 1 1 1 1 1 1 1 1 
1 1 1 1 1 1 1 1 1 
1 1 1 1 1 1 1 1 1 
1 1 1 1 1 1 1 1 1 
1 1 1 1 1 1 1 1 1 
1 1 1 1 1 1 1 1 1 
1 1 1 1 1 1 1 1 1 
1 1 1 1 1 1 1 1 1 
1 1 1 1 1 1 1 1 1 
1 1 1 1 1 1 1 1 1 
1 1 1 1 1 1 1 1 1 
1 1 1 1 1 1 1 1 1 
1 1 1 1 1 1 1 1 1 
1 1 1 1 1 1 1 1 1 
1 1 1 1 1 1 1 1 1 
1 1 1 1 1 1 1 1 1 
1 1 1 1 1 1 1 1 1 
1 1 1 1 1 1 1 1 1 
1 1 1 1 1 1 1 1 1 
1 1 1 1 1 1 1 1 1 
1 1 1 1 1 1 1 1 1 
1 1 1 1 1 1 1 1 1 
1 1 1 1 1 1 1 1 1 
1 1 1 1 1 1 1 1 1 
1 1 1 1 1 1 1 1 1 
1 1 1 1 1 1 1 1 1 
1 1 1 1 1 1 1 1 1 
1 1 1 1 1 1 1 1 1 
1 1 1 1 1 1 1 1 1 
1 1 1 1 1 1 1 1 1 
1 1 1 1 1 1 1 1 1 
1 1 1 1 1 1 1 1 1 
1 1 1 1 1 1 1 1 1 
1 1 1 1 1 1 1 1 1 
1 1 1 1 1 1 1 1 1 
1 1 1 1 1 1 1 1 1 
1 1 1 1 1 1 1 1 1 
1 1 1 1 1 1 1 1 1 
1 1 1 1 1 1 1 1 1 
1 1 1 1 1 1 1 1 1 
1 1 1 1 1 1 1 1 1 
1 1 1 1 1 1 1 1 1 
1 1 1 1 1 1 1 1 1 
1 1 1 1 1 1 1 1 1 
1 1 1 1 1 1 1 1 1 
1 1 1 1 1 1 1 1 1 
1 1 1 1 1 1 1 1 1 
1 1 1 1 1 1 1 1 1 
1 1 1 1 1 1 1 1 1 
1 1 1 1 1 1 1 1 1 
1 1 1 1 1 1 1 1 1 
1 1 1 1 1 1 1 1 1 
1 1 1 1 1 1 1 1 1 
1 1 1 1 1 1 1 1 1 
1 1 1 1 1 1 1 1 1 
1 1 1 1 1 1 1 1 1 
1 1 1 1 1 1 1 1 1 
1 1 1 1 1 1 1 1 1 
1 1 1 1 1 1 1 1 1 
1 1 1 1 1 1 1 1 1 
1 1 1 1 1 1 1 1 1 
1 1 1 1 1 1 1 1 1 
1 1 1 1 1 1 1 1 1 
1 1 1 1 1 1 1 1 1 
1 1 1 1 1 1 1 1 1 
1 1 1 1 1 1 1 1 1 
1 1 1 1 1 1 1 1 1 
1 1 1 1 1 1 1 1 1 
1 1 1 1 1 1 1 1 1 
1 1 1 1 1 1 1 1 1 
1 1 1 1 1 1 1 1 1 
1 1 1 1 1 1 1 1 1 
1 1 1 1 1 1 1 1 1 
1 1 1 1 1 1 1 1 1 
1 1 1 1 1 1 1 1 1 
1 1 1 1 1 1 1 1 1 
1 1 1 1 1 1 1 1 1 
1 1 1 1 1 1 1 1 1 
1 1 1 1 1 1 1 1 1 
1 1 1 1 1 1 1 1 1 
1 1 1 1 1 1 1 1 1 
1 1 1 1 1 1 1 1 1 
1 1 1 1 1 1 1 1 1 
1 1 1 1 1 1 1 1 1 
1 1 1 1 1 1 1 1 1 
1 1 1 1 1 1 1 1 1 
1 1 1 1 1 1 1 1 1 
1 1 1 1 1 1 1 1 1 
1 1 1 1 1 1 1 1 1 
1 1 1 1 1 1 1 1 1 
1 1 1 1 1 1 1 1 1 
1 1 1 1 1 1 1 1 1 
1 1 1 1 1 1 1 1 1 
1 1 1 1 1 1 1 1 1 
1 1 1 1 1 1 1 1 1 
1 1 1 1 1 1 1 1 1 
1 1 1 1 1 1 1 1 1 
1 1 1 1 1 1 1 1 1 
1 1 1 1 1 1 1 1 1 
1 1 1 1 1 1 1 1 1 
1 1 1 1 1 1 1 1 1 
1 1 1 1 1 1 1 1 1 
1 1 1 1 1 1 1 1 1 
1 1 1 1 1 1 1 1 1 
1 1 1 1 1 1 1 1 1 
1 1 1 1 1 1 1 1 1 
1 1 1 1 1 1 1 1 1 
1 1 1 1 1 1 1 1 1 
1 1 1 1 1 1 1 1 1 
1 1 1 1 1 1 1 1 1 
1 1 1 1 1 1 1 1 1 
1 1 1 1 1 1 1 1 1 
1 1 1 1 1 1 1 1 1 
1 1 1 1 1 1 1 1 1 
1 1 1 1 1 1 1 1 1 
1 1 1 1 1 1 1 1 1 
1 1 1 1 1 1 1 1 1 
1 1 1 1 1 1 1 1 1 
1 1 1 1 1 1 1 1 1 
1 1 1 1 1 1 1 1 1 
1 1 1 1 1 1 1 1 1 
1 1 1 1 1 1 1 1 1 
1 1 1 1 1 1 1 1 1 
1 1 1 1 1 1 1 1 1 
1 1 1 1 1 1 1 1 1 
1 1 1 1 1 1 1 1 1 
1 1 1 1 1 1 1 1 1 
1 1 1 1 1 1 1 1 1 
1 1 1 1 1 1 1 1 1 
1 1 1 1 1 1 1 1 1 
1 1 1 1 1 1 1 1 1 
1 1 1 1 1 1 1 1 1 
1 1 1 1 1 1 1 1 1 
1 1 1 1 1 1 1 1 1 
1 1 1 1 1 1 1 1 1 
1 1 1 1 1 1 1 1 1 
1 1 1 1 1 1 1 1 1 
1 1 1 1 1 1 1 1 1 
1 1 1 1 1 1 1 1 1 
1 1 1 1 1 1 1 1 1 
1 1 1 1 1 1 1 1 1 
1 1 1 1 1 1 1 1 1 
1 1 1 1 1 1 1 1 1 
1 1 1 1 1 1 1 1 1 
1 1 1 1 1 1 1 1 1 
1 1 1 1 1 1 1 1 1 
1 1 1 1 1 1 1 1 1 
1 1 1 1 1 1 1 1 1 
1 1 1 1 1 1 1 1 1 
1 1 1 1 1 1 1 1 1 
1 1 1 1 1 1 1 1 1 
1 1 1 1 1 1 1 1 1 
1 1 1 1 1 1 1 1 1 
1 1 1 1 1 1 1 1 1 
1 1 1 1 1 
NORMALS Normals float
0.117533 -0.276477 -0.953806 0.0988115 -0.221884 -0.970053 -0.16416 0.160839 -0.973233 
-0.297825 0.168909 -0.939559 0.114279 -0.120149 -0.986156 0.136446 -0.383463 -0.913422 
0.278691 -0.323633 -0.904209 -0.333421 0.382739 -0.861592 -0.22189 0.458636 -0.860475 
-0.0919076 0.253895 -0.962855 -0.153865 0.256317 -0.954268 -0.0594934 -0.458691 -0.886602 
-0.307326 -0.117782 -0.944287 -0.495717 0.285844 -0.820097 -0.0707927 -0.0583645 -0.995782 
-0.228183 0.387063 -0.893373 -0.410968 0.523578 -0.746305 -0.374404 0.612731 -0.695975 
0.550118 -0.576531 -0.604137 -0.346787 0.118178 -0.930469 -0.545236 0.450316 -0.70706 
-0.475904 0.587374 -0.654605 -0.344316 0.621689 -0.703526 -0.0595857 0.340634 -0.938306 
0.15026 -0.500816 -0.852412 0.232178 0.169405 -0.957808 0.00580269 0.163285 -0.986562 
0.188458 -0.116377 -0.975162 -0.146132 -0.0753172 -0.986394 0.11774 -0.484422 -0.866875 
0.147342 -0.499875 -0.853473 -0.192796 -0.0581092 -0.979517 0.117301 -0.29479 -0.948335 
0.0765348 -0.312751 -0.946747 0.391125 -0.360641 -0.846734 -0.19254 -0.120291 -0.973888 
-0.170814 -0.170759 -0.970394 0.143804 -0.508456 -0.848995 0.417761 -0.579712 -0.699578 
0.614922 -0.636442 -0.465631 -0.574594 0.301544 -0.760863 -0.655587 0.531201 -0.536685 
0.460953 -0.750734 -0.473203 -0.618957 0.630728 -0.468054 0.473371 -0.795703 -0.377858 
-0.531701 0.675696 -0.510617 -0.362257 0.428106 -0.827947 0.380231 -0.611395 -0.693989 
0.385838 -0.836452 -0.389201 0.283068 -0.413087 -0.865581 -0.573791 0.739312 -0.352395 
-0.386137 0.648457 -0.65605 0.299481 -0.785678 -0.541314 0.19785 -0.768436 -0.608573 
-0.465231 0.737776 -0.489128 0.285674 -0.725535 -0.626091 0.210806 -0.561148 -0.800421 
-0.544831 0.702528 -0.457836 0.130029 -0.198424 -0.971453 -0.0210864 -0.357845 -0.933543 
-0.0726067 0.0658489 -0.995184 0.0453759 0.0412518 -0.998118 0.255705 0.132482 -0.957634 
-0.0449377 -0.418032 -0.90732 0.143135 0.373812 -0.916394 -0.365876 0.779117 -0.509029 
-0.0904976 0.27281 -0.957802 -0.362572 -0.578832 -0.730408 0.113117 0.235589 -0.965247 
-0.223598 0.835541 -0.501872 -0.178149 0.77521 -0.606063 0.00990884 0.317194 -0.948309 
0.148656 0.26235 -0.953454 0.104661 0.30302 -0.947219 0.249061 0.495384 -0.832204 
0.273681 0.522001 -0.807845 0.145769 0.577704 -0.803125 -0.236771 -0.0660868 -0.969315 
0.0290638 -0.262426 -0.964514 0.225011 -0.298179 -0.92761 0.101098 -0.455313 -0.884573 
0.319529 -0.554921 -0.768091 -0.27114 0.100648 -0.957263 -0.487746 0.366559 -0.7923 
0.174993 -0.42066 -0.890181 0.469056 -0.56131 -0.681848 -0.145774 -0.145797 -0.978516 
0.576059 -0.548824 -0.605762 0.567827 -0.570293 -0.593581 -0.505771 0.307143 -0.806138 
-0.528152 0.276566 -0.802849 0.72304 -0.674615 -0.148688 -0.731073 0.598563 -0.327498 
0.759849 -0.549129 -0.347974 0.646388 -0.75976 -0.0703392 0.426466 -0.896814 -0.117695 
0.323482 -0.896263 -0.303435 -0.614149 0.767736 -0.182763 0.31991 -0.869743 -0.375771 
-0.0471543 -0.746271 -0.66397 -0.567211 0.791798 -0.226556 0.140938 -0.624585 -0.768134 
0.150773 -0.493141 -0.856784 0.208264 -0.162585 -0.964465 0.223659 -0.394591 -0.891221 
0.405969 0.0200886 -0.913666 -0.624364 0.723137 -0.29537 0.0504711 -0.517063 -0.854458 
0.15465 -0.464385 -0.872026 0.0192181 -0.76797 -0.640198 0.217773 -0.0505673 -0.974689 
0.305067 0.22868 -0.924467 -0.51571 0.788121 -0.336019 0.261145 0.290884 -0.920429 
-0.455456 0.842835 -0.286684 -0.344506 0.871359 -0.349356 -0.244694 0.957471 -0.152887 
0.289179 0.774216 -0.562996 -0.287502 0.935346 -0.206082 -0.234722 0.841735 -0.486196 
-0.195729 0.760625 -0.618983 0.0789614 0.62336 -0.777938 0.164926 0.686122 -0.708545 
0.230131 0.857385 -0.46036 -0.193585 0.96461 -0.17903 -0.0533104 0.75628 -0.652072 
-0.0355432 0.712353 -0.700921 0.121117 0.700893 -0.702908 0.206942 0.763217 -0.612107 
0.161994 0.949881 -0.267365 -0.235104 -0.166898 -0.957534 -0.300127 -0.0396155 -0.953076 
-0.291413 0.119829 -0.949063 0.0947333 -0.234868 -0.9674 0.0923209 -0.287586 -0.953295 
0.287743 -0.639706 -0.712727 -0.618507 0.234698 -0.749911 0.245657 -0.354273 -0.902299 
0.544115 -0.594381 -0.592157 0.357409 -0.488539 -0.795983 0.457358 -0.554233 -0.695449 
0.396914 -0.5183 -0.757512 -0.616485 0.372504 -0.693676 -0.634293 0.401039 -0.660939 
-0.300506 0.0117138 -0.953708 0.467833 -0.662383 -0.585133 -0.66882 0.490612 -0.558552 
-0.669258 0.503631 -0.546306 0.415677 -0.585942 -0.695618 -0.508159 0.588732 -0.628625 
-0.578377 0.476275 -0.662301 -0.602566 0.554373 -0.574096 -0.721784 0.662082 -0.201681 
0.483255 -0.839954 0.246863 -0.578542 0.811956 0.0775657 0.329908 -0.934376 0.134546 
0.0392335 -0.922132 -0.384882 -0.130822 -0.985586 -0.107262 -0.18219 -0.847975 -0.497741 
-0.00259093 -0.868013 -0.496535 0.0797282 -0.78268 -0.617297 0.105907 -0.895154 -0.432993 
0.0578424 -0.907151 -0.41681 -0.660608 0.746425 -0.0802936 -0.577629 0.780677 0.238512 
0.354971 0.256979 -0.898865 0.34304 0.447658 -0.825788 0.43669 0.585272 -0.683197 
-0.544482 0.83689 0.0561653 -0.570113 0.807859 -0.149448 0.354759 0.824023 -0.441737 
0.370632 0.683236 -0.629143 -0.485304 0.873619 -0.0356453 -0.353611 0.933912 -0.0526166 
-0.339671 0.895786 0.286689 -0.334703 0.927438 0.166832 -0.300179 0.952995 0.0411466 
-0.357063 0.932572 0.0530613 0.17285 0.973471 -0.149923 0.115574 0.980787 -0.157163 
-0.0508448 0.974477 -0.218652 0.0534758 0.935726 -0.348651 0.155064 0.987558 -0.0261502 
0.128295 -0.478595 -0.868612 -0.376995 -0.138074 -0.915866 -0.143358 -0.252526 -0.956911 
-0.562797 0.183136 -0.806053 -0.131359 -0.193679 -0.972231 0.368208 -0.572019 -0.732951 
-0.545728 0.212678 -0.810524 0.415159 -0.520482 -0.746151 0.533452 -0.62296 -0.572144 
-0.716389 0.425166 -0.553192 0.591096 -0.565322 -0.57534 -0.60005 0.356104 -0.716331 
-0.795411 0.507262 -0.331672 0.615768 -0.601678 -0.508736 0.468084 -0.591171 -0.656821 
0.612 -0.716656 -0.334455 0.702146 -0.578424 -0.415231 -0.756341 0.529657 -0.383943 
0.677131 -0.63544 -0.371093 0.644924 -0.665365 -0.375982 -0.670809 0.641669 -0.371855 
-0.591045 0.486388 -0.6435 0.75446 -0.655505 0.0332137 -0.722657 0.610035 -0.324999 
-0.692197 0.652207 -0.309015 -0.738196 0.667911 0.0946689 0.668867 -0.710285 0.219344 
-0.688047 0.725429 0.0185554 -0.620812 0.782162 -0.0530603 -0.483913 0.791193 0.373955 
0.294797 -0.765439 0.572012 0.269574 -0.937971 0.218035 -0.0026939 -0.715559 -0.698547 
0.171629 -0.439424 -0.881731 0.101843 -0.829289 -0.549461 0.209216 -0.974343 0.0829744 
0.137316 -0.970003 -0.200595 0.0545124 -0.984896 -0.164345 -0.26705 -0.925799 -0.267544 
-0.105119 -0.976046 -0.190483 0.477786 -0.107102 -0.871923 -0.555069 0.742413 0.375129 
-0.0652545 -0.98893 0.133261 0.36866 0.163185 -0.915129 0.475605 0.704689 -0.52651 
0.394661 0.801907 -0.44854 0.436273 0.668027 -0.602831 -0.44038 0.817796 0.370506 
-0.358847 0.721213 0.592521 -0.293762 0.866198 0.404233 0.302406 0.92501 -0.230017 
0.282176 0.942738 -0.177824 -0.252943 0.867688 0.427946 -0.230862 0.811763 0.536417 
0.222642 0.945477 -0.237705 -0.155942 0.847597 0.507209 -0.116207 0.987735 0.104285 
0.0896455 0.981677 0.16815 -0.0297579 0.943999 0.328605 0.206204 0.943944 0.25778 
0.215472 0.969241 -0.118924 -0.14541 0.9472 0.285776 -0.530041 0.139635 -0.836396 
0.44807 -0.686636 -0.572507 -0.779945 0.477965 -0.404024 0.713718 -0.595043 -0.3695 
-0.84618 0.509255 -0.156966 -0.74393 0.611417 -0.2697 -0.732274 0.595774 -0.329892 
-0.676961 0.733905 -0.0557424 0.685375 -0.489949 0.538713 -0.780983 0.622463 0.0510431 
0.490656 -0.632409 0.599429 -0.659477 0.736296 0.151519 0.244995 -0.0637732 0.967425 
-0.475771 0.779753 0.406974 -0.288479 0.704928 0.647963 -0.403592 0.698352 0.591116 
-0.195866 0.583045 0.788476 -0.219362 0.64748 0.729828 -0.0174249 0.0949437 0.99533 
-0.314343 0.699777 0.641482 -0.111939 -0.976436 -0.184505 -0.269814 -0.927444 -0.258938 
-0.483155 0.705768 0.518124 0.0499312 -0.973227 0.224357 0.488469 -0.124738 -0.863619 
0.491296 0.332859 -0.804881 0.595428 0.27386 -0.755292 0.680901 0.0286595 -0.731814 
-0.339817 0.502465 0.795018 -0.117601 -0.96502 0.234321 0.531469 0.409717 -0.741399 
0.626327 0.554889 -0.547552 -0.54141 0.714427 0.443249 -0.277021 0.401086 0.873149 
-0.246374 0.595857 0.764365 0.368018 0.90688 -0.20526 -0.226213 0.717996 0.658262 
0.320288 0.945674 -0.0558293 0.25234 0.967539 0.0138569 0.323486 0.933029 -0.15752 
-0.162066 0.635606 0.754811 0.143345 0.989351 0.0252242 0.0686397 0.97263 0.221989 
-0.0784641 0.65218 0.753992 -0.0169146 0.844969 0.534547 0.0521038 0.836957 0.544783 
0.0875567 0.956387 0.278672 -0.642012 0.192714 -0.742079 -0.629441 0.397482 -0.667691 
-0.458495 0.616941 -0.639661 0.703566 -0.66936 -0.238646 -0.742026 0.663527 -0.0955446 
-0.79534 0.601102 0.0781759 -0.786312 0.616384 0.042244 -0.612123 0.748081 0.256279 
0.670132 -0.399934 0.625281 0.702643 -0.449341 0.551712 -0.571962 0.711376 0.408416 
-0.579271 0.714096 0.393079 -0.603417 0.678791 0.418486 0.495509 -0.365361 0.788024 
-0.19092 0.537137 0.821604 0.156404 0.090041 0.98358 -0.07761 0.449978 0.889661 
0.183467 -0.36385 0.91321 0.264745 -0.625357 -0.734056 0.197073 -0.780727 -0.592983 
0.11199 -0.733009 0.670937 -0.16702 -0.979392 0.113557 0.494513 -0.196123 -0.846754 
0.469087 -0.522916 -0.7117 0.52338 -0.137052 -0.841005 0.679323 0.155275 -0.717224 
0.597871 -0.300083 -0.743304 0.785506 -0.171701 -0.594558 -0.289715 0.46024 0.839193 
0.115131 -0.643366 0.756852 0.120086 -0.785079 0.607644 0.0347373 -0.795226 0.605318 
-0.133372 -0.916032 0.378281 -0.153823 -0.983529 0.0949212 -0.12279 -0.992046 0.0277102 
0.720403 0.304406 -0.623183 -0.143011 0.173698 0.97436 -0.0733406 -0.102388 0.992037 
-0.0387429 -0.708752 0.704393 -0.0669336 -0.772976 0.630895 0.580089 0.5241 -0.623551 
-0.15135 0.245567 0.957492 0.40982 0.841829 -0.351243 0.570999 0.69755 -0.432879 
-0.0810436 0.0862823 0.992969 0.301058 0.952339 -0.049148 0.353687 0.933523 -0.0586494 
-0.0453688 0.329126 0.943196 -0.211146 0.429412 0.878079 0.209233 0.949491 0.233857 
0.103117 0.824586 0.55626 0.0293706 0.823336 0.566793 0.0924102 0.827673 0.553551 
0.0663684 0.920043 0.386155 0.554214 -0.703759 -0.444488 -0.680505 0.592308 -0.431375 
0.727363 -0.685964 0.019906 -0.792386 0.605391 -0.0750107 0.786155 -0.591444 -0.179315 
0.790705 -0.595248 0.14306 0.782694 -0.593625 0.187079 -0.714922 0.688372 0.122597 
-0.521924 0.488677 0.699135 -0.684992 0.710672 0.160414 -0.695247 0.65325 0.299828 
0.673367 -0.352299 0.649971 -0.580032 0.656959 0.481631 0.448246 -0.125019 0.885125 
-0.508777 0.751373 0.42022 -0.636174 0.627485 0.448938 -0.4069 0.488385 0.771954 
0.499557 -0.176754 0.848057 0.515958 -0.219742 0.82795 -0.554897 0.67149 0.491111 
-0.390446 0.708524 0.587831 -0.422002 0.682977 0.596202 0.188558 0.207606 0.959868 
0.0574585 -0.923201 -0.379998 -0.0509145 0.349055 0.935718 -0.148878 -0.981441 -0.12087 
0.450741 -0.674161 -0.585099 0.229132 -0.912633 -0.338527 0.498759 -0.768807 -0.40022 
-0.351202 -0.934239 0.0620882 0.0221703 -0.355238 0.934513 -0.19801 -0.842611 0.500799 
-0.238555 -0.926064 0.292398 -0.199387 -0.904653 0.376626 -0.0704048 -0.957905 0.278318 
0.640099 0.706475 -0.301938 0.0104098 -0.29792 0.954534 -0.0522523 -0.547896 0.834913 
-0.041964 -0.613803 0.788343 -0.164264 -0.747007 0.644203 -0.109755 -0.854585 0.507581 
-0.178764 -0.852138 0.491838 0.527986 0.76654 -0.365579 -0.11954 -0.200414 0.972391 
-0.038725 -0.513428 0.857258 -0.106385 -0.430422 0.896337 -0.1306 -0.552012 0.823545 
0.464352 0.871175 -0.159472 -0.0848514 -0.294568 0.951856 -0.193254 -0.4379 0.878007 
0.319515 0.947479 -0.0138834 -0.0517826 0.0731923 0.995973 -0.294424 0.177875 0.938975 
-0.0423741 0.239564 0.969955 0.262004 0.95666 0.127103 -0.065965 0.554869 0.829318 
0.0608839 0.722087 0.689118 -0.00517975 0.904728 0.425958 0.161667 0.872918 0.460303 
-0.03741 0.554507 0.831338 0.260523 -0.720052 -0.643158 -0.441983 -0.148455 -0.884654 
0.0550448 -0.525934 -0.848742 -0.465731 0.238235 -0.852255 -0.348119 -0.109634 -0.931017 
0.412155 -0.726259 -0.55016 -0.71291 0.322054 -0.622928 -0.77255 0.466657 -0.430579 
0.648487 -0.731966 -0.209024 -0.739616 0.672866 -0.0148301 -0.680306 0.63259 -0.370153 
0.694039 -0.6986 0.173976 -0.752357 0.658725 0.00626819 0.809172 -0.571687 0.135699 
0.660934 -0.332376 0.672824 -0.547514 0.754515 0.361849 -0.386585 0.598234 0.701903 
-0.579576 0.614009 0.535803 -0.405479 0.552207 0.72846 0.329412 -0.00256782 0.944183 
-0.401495 0.717186 0.569602 -0.353991 0.453406 0.817994 -0.423032 0.621348 0.659523 
0.0842443 0.19064 0.978038 0.402424 -0.0349919 0.914784 -0.225777 0.511029 0.829382 
0.405297 -0.105371 0.908092 -0.102234 -0.991671 -0.0783352 0.0602432 -0.994022 -0.0910515 
-0.231637 -0.96902 -0.0856987 0.738775 -0.569094 -0.361031 -0.292331 -0.874327 0.38742 
0.905 0.254875 -0.340607 -0.215973 -0.702576 0.678043 -0.182871 -0.298405 0.936756 
-0.171105 -0.316738 0.932952 -0.136772 -0.333867 0.932645 0.416293 0.909227 -0.00271964 
0.56671 0.8085 -0.158642 -0.0939521 0.178364 0.979469 -0.0223769 -0.0875194 0.995911 
-0.137879 0.175602 0.974758 -0.15498 -0.106673 0.982141 -0.226535 0.0481392 0.972813 
0.214843 0.89764 0.384819 0.0623659 0.898802 0.433897 0.124585 0.951036 0.282858 
-0.109901 0.205498 0.972467 -0.0471316 0.680856 0.730899 -0.00947691 0.486405 0.873682 
-0.0756261 -0.460782 -0.884285 -0.326931 -0.209846 -0.921456 -0.656118 0.36748 -0.659142 
0.792587 -0.327748 0.514186 -0.10458 0.437763 0.892987 0.371192 -0.0700728 0.925908 
-0.0265213 0.240059 0.970396 0.211317 -0.0551123 0.975863 0.509756 -0.0902479 0.855573 
0.35945 0.0709118 0.930466 -0.209275 0.39846 0.892991 0.109985 0.214771 0.970452 
0.0676881 0.36802 0.927351 -0.119477 0.43229 0.893784 -0.0423188 0.31671 0.947578 
0.104012 0.229692 0.96769 -0.343186 -0.927499 0.148218 -0.214613 -0.965399 0.148143 
0.174148 -0.980303 -0.0931598 0.550321 -0.775498 -0.309435 0.85185 0.5104 -0.117658 
-0.211473 -0.823213 0.526877 -0.131597 -0.558174 0.819222 -0.223566 -0.408729 0.88485 
-0.157544 -0.328948 0.931114 -0.09704 0.175594 0.979668 -0.155465 0.212668 0.964678 
-0.114144 0.183197 0.976427 -0.0978499 0.365288 0.925737 -0.0915963 -0.485888 -0.869208 
-0.314155 -0.252571 -0.915158 -0.50472 0.0475996 -0.86197 -0.656965 0.239823 -0.71476 
-0.822382 0.564107 -0.0739588 0.80545 -0.458188 0.375919 0.734862 -0.525625 0.428598 
0.76216 -0.294201 0.576678 -0.600374 0.670114 0.436461 0.650128 -0.141107 0.746607 
0.312741 0.175417 0.9335 0.219822 0.109225 0.969406 -0.210228 -0.934759 0.286408 
-0.210336 -0.959974 0.184956 0.361894 -0.924535 -0.119446 -0.392819 -0.462598 0.794793 
-0.475476 -0.468176 0.744804 -0.424817 -0.711524 0.5597 0.937757 -0.307762 -0.160915 
-0.46771 -0.312126 0.826937 -0.303939 -0.211252 0.928975 -0.423615 -0.0703202 0.903109 
0.458396 0.883175 0.0993739 -0.183961 0.420422 0.888484 0.239868 0.944869 0.222905 
-0.067191 0.768434 0.636391 0.0780635 0.852916 0.516178 -0.0267202 -0.38411 -0.922901 
0.161901 -0.610552 -0.775251 0.340361 -0.684424 -0.644762 -0.522366 0.219329 -0.824032 
-0.813577 0.57663 0.0747633 -0.634272 0.716122 0.291321 0.760637 -0.304166 0.57351 
-0.357142 0.533918 0.766408 0.369126 0.223177 0.902185 -0.322919 0.627311 0.708664 
0.352456 0.110551 0.929276 0.559433 -0.046033 0.827596 -0.000791875 0.468803 0.883302 