# vtk DataFile Version 4.2
vtk output
ASCII
DATASET POLYDATA
POINTS 1377 float
226.099 193.809 41.8319 226.553 194.084 41.716 226.41 193.974 41.7604 
226.571 194.071 41.7258 226.638 194.135 41.7059 226.7 194.196 41.7011 
226.665 194.215 41.7049 226.734 194.238 41.6929 226.569 194.203 41.7488 
226.681 194.232 41.7208 222.77 191.514 42.419 222.909 191.605 42.3986 
224.686 192.691 42.1702 224.514 193.006 42.1429 225.72 193.498 41.9486 
226.183 193.795 41.8499 226.46 193.982 41.773 226.35 193.9 41.8491 
224.381 193.582 42.3856 226.528 194.066 41.8451 225.308 193.877 42.2131 
226.731 194.231 41.706 218.171 188.632 43.5285 218.772 188.786 43.5611 
218.367 189.188 43.3603 221.251 190.293 42.9027 222.619 191.338 42.5042 
222.161 190.853 42.6762 222.761 191.156 42.6441 223.246 191.456 42.5588 
223.328 191.906 42.3599 225.271 193.05 42.1048 224.845 192.723 42.2331 
225.206 192.983 42.1747 225.556 193.293 42.0309 221.955 193.065 42.9362 
225.845 193.527 42.0163 226.393 193.974 41.9461 226.577 194.086 41.884 
226.624 194.116 41.8856 226.592 194.09 41.8967 226.623 194.113 41.893 
222.547 193.516 43.0338 224.397 193.697 42.5745 226.403 194.091 41.9086 
226.546 194.096 41.8929 223.441 193.644 42.8834 226.071 194.048 42.0024 
215.025 186.251 44.3589 214.411 185.873 44.5896 214.743 186.6 44.2929 
215.933 186.554 44.2498 216.423 186.799 44.1833 215.717 187.118 44.0362 
217.051 187.204 44.091 217.397 187.588 43.9583 218.632 188.492 43.9404 
221.687 190.479 42.861 222.563 190.944 42.7661 222.444 190.854 42.8575 
222.769 191.086 42.7774 223.388 191.524 42.5733 220.125 192.584 43.4159 
225.982 193.689 42.0701 220.222 193.225 43.8358 226.335 194.008 41.983 
225.913 193.841 42.1563 220.779 193.407 43.8308 223.377 193.636 43.0127 
223.62 193.564 43.0228 224.811 193.647 42.575 221.757 193.499 43.4226 
222.94 193.609 43.1253 211.989 184.675 45.3981 211.895 184.584 45.4821 
212.161 184.74 45.3869 212.765 185.638 44.9906 215.178 185.971 44.6046 
215.597 186.245 44.4545 216.095 186.543 44.3413 216.926 187.065 44.1942 
216.532 186.799 44.3075 213.359 186.895 44.685 214.748 187.015 44.2578 
220.569 189.969 43.9021 217.211 191.099 44.0107 223.902 192.805 43.0959 
225.095 193.243 42.4691 218.749 193.039 44.3496 224.402 193.223 42.8614 
218.66 193.214 44.552 218.788 193.321 44.6371 221.573 193.486 43.6677 
222.374 193.515 43.4524 223.017 193.566 43.2209 219.698 193.449 44.4755 
208.262 183.036 46.7295 208.083 182.996 46.8342 208.343 183.072 46.7429 
208.376 183.11 46.6792 209.351 183.529 46.3378 211.593 184.486 45.5623 
211.546 184.4 45.6249 211.316 184.371 45.7111 211.738 184.473 45.5804 
210.831 184.284 45.8618 210.429 184.453 45.8817 212.707 185.12 45.1823 
212.12 184.646 45.5948 214.378 185.551 44.8909 219.273 189.756 44.8121 
215.796 191.74 44.988 217.267 191.927 44.3625 222.856 192.326 43.5842 
216.848 192.672 45.1256 219.623 193.438 44.6662 218.038 193.267 45.0878 
219.191 193.418 44.7726 208.591 183.148 46.7601 208.649 183.354 46.5791 
210.043 183.902 46.18 212.47 184.747 45.848 214.278 185.555 45.1717 
213.962 185.621 45.7122 213.589 185.547 45.9771 215.397 186.76 45.6313 
213.048 189.79 45.4562 220.787 192.534 44.7091 220.11 192.791 45.0127 
215.458 192.965 46.4612 216.841 193.085 45.8411 218.657 193.313 45.1322 
218.967 193.174 45.2318 219.272 193.367 44.9058 219.725 193.09 45.0099 
216.173 193.11 46.1664 204.499 181.522 48.4291 204.708 181.709 48.3167 
205.954 182.472 47.7324 206.531 182.548 47.5693 209.095 183.311 46.8519 
205.527 183.089 47.748 213.961 186.856 46.7969 211.778 191.573 47.071 
218.325 192.065 45.963 213.47 192.781 47.4962 214.142 192.872 47.079 
214.727 192.941 46.981 215.882 192.966 46.5659 216.256 193.102 46.1912 
216.925 192.955 46.2052 214.226 192.972 47.1704 201.983 179.941 49.617 
202.475 180.154 49.4657 202.91 180.428 49.2948 203.126 180.699 49.0682 
205.449 182.064 48.076 204.879 181.607 48.5039 205.797 182.023 48.2896 
207.652 182.798 47.5826 211.979 192.125 47.448 216.708 192.358 46.7032 
215.702 192.587 47.1279 211.582 192.519 48.3558 214.054 192.86 47.4502 
214.297 192.97 47.2014 201.372 179.556 49.9425 201.807 179.757 49.8258 
202.705 180.246 49.4728 202.669 180.217 49.5711 204.127 181.164 49.1954 
206.655 182.591 48.5254 203.603 185.56 49.0105 213.571 189.422 48.1368 
214.043 190.724 48.1682 214.432 191.519 48.0034 213.308 192.506 48.2495 
214.356 192.576 47.7345 211.245 192.52 48.7857 212.076 192.563 48.491 
213.81 192.669 47.8689 198.467 177.985 51.2303 199.564 178.503 50.7908 
200.01 178.798 50.5328 201.067 179.298 50.269 201.626 179.665 50.1064 
203.309 180.941 49.9794 202.487 186.439 49.9139 206.933 192.09 50.417 
212.725 192.188 48.6435 211.85 192.175 49.0826 213.66 192.023 48.2783 
207.444 192.333 50.4736 208.537 192.314 49.8959 208.447 192.399 50.2682 
195.933 176.966 52.0887 197.37 177.209 51.8725 199.366 178.362 51.0252 
202.085 180.416 50.6514 201.829 180.866 51.2639 202.952 181.033 50.4244 
203.17 190.107 51.1294 206.072 191.522 50.3869 209.896 191.884 50.1762 
208.892 192.392 50.179 208.414 192.328 50.5379 209.457 192.199 50.1777 
206.702 192.342 50.9902 207.242 192.375 50.7955 194.617 175.608 52.9667 
195.478 175.982 52.6594 195.167 175.726 52.8733 195.518 175.934 52.815 
195.995 176.281 52.7912 194.566 176.752 52.6274 201.386 181.816 52.1598 
207.612 192.094 51.2408 205.626 192.249 51.775 204.575 192.243 52.2167 
204.853 192.295 52.1279 195.604 176.104 53.1534 194.044 177.468 52.8498 
197.735 178.663 53.1815 202.918 186.992 53.2602 202.634 191.86 53.1717 
204.617 192.264 52.3254 205.023 192.297 52.1194 190.07 172.95 55.3808 
190.662 173.724 54.7722 192.372 174.187 54.4589 191.287 174.347 54.3685 
193.761 174.974 53.8568 194.876 175.557 53.2975 194.341 175.593 54.0784 
198.88 190.39 54.0682 200.028 191.489 54.4343 201.111 191.509 53.66 
204.801 191.712 52.8656 206.251 191.821 52.0841 203.482 191.966 53.2073 
191.421 173.614 55.166 196.149 188.924 54.9777 199.141 191.352 54.9034 
204.356 191.788 53.0435 202.632 191.815 53.6844 186.188 170.509 57.2486 
185.7 170.244 57.6169 186.721 170.505 57.17 187.345 170.875 56.8619 
187.062 170.657 57.0297 187.535 171.197 56.6464 187.774 171.164 56.7687 
188.887 172.022 56.2596 194.665 187.474 55.2221 199.02 189.005 55.8146 
199.355 190.081 55.6948 197.495 190.603 55.3684 201.131 191.344 54.6931 
202.636 191.267 54.0358 197.397 190.743 55.87 197.883 190.939 55.7167 
199.342 191.418 54.9007 200.709 191.507 54.7065 198.805 191.244 55.3669 
200.2 191.484 54.8373 184.731 170.387 57.972 185.417 170.031 57.9281 
185.869 170.098 57.7589 186.421 170.318 57.4342 186.891 170.543 57.2487 
187.905 171.292 57.0262 189.087 172.471 56.7393 193.601 189.272 57.2401 
196.391 190.277 56.6264 198.28 190.88 55.8927 198.606 190.938 55.8467 
199.293 191.021 55.5294 198.909 191.086 55.6815 198.302 191.046 55.6726 
198.706 191.057 55.7537 198.932 191.165 55.5266 183.285 169.389 59.2155 
184.447 169.619 58.6611 185.853 169.977 57.9331 185.999 170.068 57.8892 
183.362 170.076 58.7789 185.122 169.867 58.3131 186.356 170.282 57.6628 
186.611 170.584 57.7883 195.168 188.973 57.6785 192.435 189.063 58.069 
193.993 189.698 57.6842 194.276 189.806 57.6893 195.391 190.001 57.1223 
198.765 191.044 55.7736 182.197 169.36 59.6469 190.702 188.526 58.9967 
191.561 188.886 58.9543 192.813 189.241 58.4894 194.258 189.64 57.8829 
193.935 189.641 57.937 180.403 168.493 60.8425 181.307 168.657 60.5105 
180.893 168.461 60.8479 181.893 168.866 60.2416 181.422 168.641 60.6092 
181.875 168.855 60.551 182.779 169.157 59.8865 181.504 169.391 59.9516 
192.563 187.892 59.0446 189.39 187.955 59.4266 188.979 188.101 60.051 
190.101 188.502 59.6581 191.04 188.731 59.3935 192.008 188.924 58.9894 
179.423 169.346 60.981 179.898 172.53 60.7571 187.464 187.514 60.7957 
187.062 187.404 60.9394 190.309 188.249 60.058 186.897 187.339 61.0069 
190.658 188.454 59.8401 189.204 188.234 60.2529 178.788 167.742 62.0146 
178.318 167.507 62.3361 179.319 175.028 61.5792 180.095 177.511 61.694 
187.309 185.616 61.7245 185.928 186.802 61.4183 186.629 187.145 61.3754 
186.937 187.35 61.0554 188.307 187.791 60.8102 189.295 188.173 60.3657 
175.886 166.629 63.5865 176.855 166.998 63.076 176.995 167.009 63.2132 
175.6 167.341 63.2018 180.295 168.884 62.2485 172.638 165.828 64.9003 
176.602 166.894 63.5739 172.987 167.299 64.377 179.843 181.961 63.6045 
184.401 186.256 62.5791 171.89 165.365 65.4753 171.534 165.14 65.8037 
173.135 165.69 64.8928 172.949 165.581 65.2227 173.694 165.795 64.8911 
176.572 167.342 64.211 180.694 183.67 64.493 182.565 184.521 63.8629 
169.466 164.422 66.8083 169.179 164.226 67.0375 169.888 164.495 66.6484 
170.404 164.676 66.4071 170.563 164.636 66.496 171.939 165.251 65.9378 
172.945 165.64 65.5621 175.905 179.394 65.1802 178.793 182.592 65.1249 
181.325 183.903 64.4204 179.477 183.216 65.3182 168.504 163.859 67.6649 
168.23 163.922 67.6924 168.895 163.963 67.4674 169.203 164.095 67.4494 
167.571 164.262 67.7823 170.966 164.828 66.4561 167.868 164.882 67.3945 
175.073 180.61 66.5276 175.773 181.49 66.8694 179.309 182.083 65.9239 
176.452 181.926 66.9341 177.166 182.123 66.4288 178.14 182.469 66.0071 
177.504 182.214 66.4736 176.79 182.05 66.7421 177.089 182.132 66.6638 
179.395 183.152 65.4376 168.388 163.79 67.8463 168.722 163.887 67.6708 
166.758 163.797 68.5337 167.229 163.627 68.485 170.256 165.464 67.7223 
169.552 175.967 67.9764 175.536 178.882 67.9569 176.602 180.063 67.4241 
172.964 180.075 68.1697 176.663 180.805 67.3551 176.235 180.816 67.5583 
173.496 180.419 68.0594 175.103 181.307 67.4171 177.899 182.093 66.4749 
177.177 181.965 66.8644 175.463 181.492 67.3681 175.793 181.62 67.3209 
167.189 163.352 68.6744 167.133 163.313 68.7051 167.131 163.343 68.692 
167.262 163.456 68.6039 167.002 163.44 68.7437 167.295 163.491 68.6553 
166.308 163.577 69.1231 167.744 163.714 68.3803 169.244 177.439 68.9496 
[...]
POINT_DATA 1377
SCALARS scalars float
LOOKUP_TABLE default
1 1 1 1 1 1 1 1 1 
1 1 1 1 1 1 1 1 1 
1 1 1 1 1 1 1 1 1 
1 1 1 1 1 1 1 1 1 
1 1 1 1 1 1 1 1 1 
1 1 1 1 1 1 1 1 1 
1 1 1 1 1 1 1 1 1 
1 1 1 1 1 1 1 1 1 
1 1 1 1 1 1 1 1 1 
1 1 1 1 1 1 1 1 1 
1 1 1 1 1 1 1 1 1 
1 1 1 1 1 1 1 1 1 
1 1 1 1 1 1 1 1 1 
1 1 1 1 1 1 1 1 1 
1 1 1 1 1 1 1 1 1 
1 1 1 1 1 1 1 1 1 
1 1 1 1 1 1 1 1 1 
1 1 1 1 1 1 1 1 1 
1 1 1 1 1 1 1 1 1 
1 1 1 1 1 1 1 1 1 
1 1 1 1 1 1 1 1 1 
1 1 1 1 1 1 1 1 1 
1 1 1 1 1 1 1 1 1 
1 1 1 1 1 1 1 1 1 
1 1 1 1 1 1 1 1 1 
1 1 1 1 1 1 1 1 1 
1 1 1 1 1 1 1 1 1 
1 1 1 1 1 1 1 1 1 
1 1 1 1 1 1 1 1 1 
1 1 1 1 1 1 1 1 1 
1 1 1 1 1 1 1 1 1 
1 1 1 1 1 1 1 1 1 
1 1 1 1 1 1 1 1 1 
1 1 1 1 1 1 1 1 1 
1 1 1 1 1 1 1 1 1 
1 1 1 1 1 1 1 1 1 
1 1 1 1 1 1 1 1 1 
1 1 1 1 1 1 1 1 1 
1 1 1 1 1 1 1 1 1 
1 1 1 1 1 1 1 1 1 
1 1 1 1 1 1 1 1 1 
1 1 1 1 1 1 1 1 1 
1 1 1 1 1 1 1 1 1 
1 1 1 1 1 1 1 1 1 
1 1 1 1 1 1 1 1 1 
1 1 1 1 1 1 1 1 1 
1 1 1 1 1 1 1 1 1 
1 1 1 1 1 1 1 1 1 
1 1 1 1 1 1 1 1 1 
1 1 1 1 1 1 1 1 1 
1 1 1 1 1 1 1 1 1 
1 1 1 1 1 1 1 1 1 
1 1 1 1 1 1 1 1 1 
1 1 1 1 1 1 1 1 1 
1 1 1 1 1 1 1 1 1 
1 1 1 1 1 1 1 1 1 
1 1 1 1 1 1 1 1 1 
1 1 1 1 1 1 1 1 1 
1 1 1 1 1 1 1 1 1 
1 1 1 1 1 1 1 1 1 
1 1 1 1 1 1 1 1 1 
1 1 1 1 1 1 1 1 1 
1 1 1 1 1 1 1 1 1 
1 1 1 1 1 1 1 1 1 
1 1 1 1 1 1 1 1 1 
1 1 1 1 1 1 1 1 1 
1 1 1 1 1 1 1 1 1 
1 1 1 1 1 1 1 1 1 
1 1 1 1 1 1 1 1 1 
1 1 1 1 1 1 1 1 1 
1 1 1 1 1 1 1 1 1 
1 1 1 1 1 1 1 1 1 
1 1 1 1 1 1 1 1 1 
1 1 1 1 1 1 1 1 1 
1 1 1 1 1 1 1 1 1 
1 1 1 1 1 1 1 1 1 
1 1 1 1 1 1 1 1 1 
1 1 1 1 1 1 1 1 1 
1 1 1 1 1 1 1 1 1 
1 1 1 1 1 1 1 1 1 
1 1 1 1 1 1 1 1 1 
1 1 1 1 1 1 1 1 1 
1 1 1 1 1 1 1 1 1 
1 1 1 1 1 1 1 1 1 
1 1 1 1 1 1 1 1 1 
1 1 1 1 1 1 1 1 1 
1 1 1 1 1 1 1 1 1 
1 1 1 1 1 1 1 1 1 
1 1 1 1 1 1 1 1 1 
1 1 1 1 1 1 1 1 1 
1 1 1 1 1 1 1 1 1 
1 1 1 1 1 1 1 1 1 
1 1 1 1 1 1 1 1 1 
1 1 1 1 1 1 1 1 1 
1 1 1 1 1 1 1 1 1 
1 1 1 1 1 1 1 1 1 
1 1 1 1 1 1 1 1 1 
1 1 1 1 1 1 1 1 1 
1 1 1 1 1 1 1 1 1 
1 1 1 1 1 1 1 1 1 
1 1 1 1 1 1 1 1 1 
1 1 1 1 1 1 1 1 1 
1 1 1 1 1 1 1 1 1 
1 1 1 1 1 1 1 1 1 
1 1 1 1 1 1 1 1 1 
1 1 1 1 1 1 1 1 1 
1 1 1 1 1 1 1 1 1 
1 1 1 1 1 1 1 1 1 
1 1 1 1 1 1 1 1 1 
1 1 1 1 1 1 1 1 1 
1 1 1 1 1 1 1 1 1 
1 1 1 1 1 1 1 1 1 
1 1 1 1 1 1 1 1 1 
1 1 1 1 1 1 1 1 1 
1 1 1 1 1 1 1 1 1 
1 1 1 1 1 1 1 1 1 
1 1 1 1 1 1 1 1 1 
1 1 1 1 1 1 1 1 1 
1 1 1 1 1 1 1 1 1 
1 1 1 1 1 1 1 1 1 
1 1 1 1 1 1 1 1 1 
1 1 1 1 1 1 1 1 1 
1 1 1 1 1 1 1 1 1 
1 1 1 1 1 1 1 1 1 
1 1 1 1 1 1 1 1 1 
1 1 1 1 1 1 1 1 1 
1 1 1 1 1 1 1 1 1 
1 1 1 1 1 1 1 1 1 
1 1 1 1 1 1 1 1 1 
1 1 1 1 1 1 1 1 1 
1 1 1 1 1 1 1 1 1 
1 1 1 1 1 1 1 1 1 
1 1 1 1 1 1 1 1 1 
1 1 1 1 1 1 1 1 1 
1 1 1 1 1 1 1 1 1 
1 1 1 1 1 1 1 1 1 
1 1 1 1 1 1 1 1 1 
1 1 1 1 1 1 1 1 1 
1 1 1 1 1 1 1 1 1 
1 1 1 1 1 1 1 1 1 
1 1 1 1 1 1 1 1 1 
1 1 1 1 1 1 1 1 1 
1 1 1 1 1 1 1 1 1 
1 1 1 1 1 1 1 1 1 
1 1 1 1 1 1 1 1 1 
1 1 1 1 1 1 1 1 1 
1 1 1 1 1 1 1 1 1 
1 1 1 1 1 1 1 1 1 
1 1 1 1 1 1 1 1 1 
1 1 1 1 1 1 1 1 1 
1 1 1 1 1 1 1 1 1 
1 1 1 1 1 1 1 1 1 
1 1 1 1 1 1 1 1 1 

NORMALS Normals float
-0.137877 -0.146344 -0.979578 -0.0784627 -0.15819 -0.984286 0.145347 -0.560371 -0.815389 
0.598918 -0.77284 -0.209801 0.316189 -0.483858 -0.816031 0.45918 -0.520932 -0.719572 
-0.334007 0.461309 -0.821969 0.272507 0.60961 -0.744389 -0.35858 0.810494 -0.463163 
-0.0913178 0.968598 0.231255 -0.200566 -0.0424133 -0.978762 0.135007 -0.358227 -0.923822 
0.200095 -0.489641 -0.848654 -0.165276 0.0459047 -0.985178 0.198928 -0.513495 -0.834716 
0.345838 -0.738869 -0.578333 0.470953 -0.804924 -0.360972 0.626062 -0.768851 0.130054 
-0.321147 0.641536 -0.696632 0.689126 -0.64786 0.324627 -0.31306 0.915643 -0.252172 
0.760727 -0.0970461 0.641776 0.0119637 -0.403787 -0.914775 0.240663 -0.610218 -0.754795 
-0.265286 -0.0639727 -0.962045 0.270986 -0.770866 -0.576482 -0.00512493 -0.335139 -0.942155 
0.172094 -0.606852 -0.77596 0.354467 -0.693612 -0.6271 0.258065 -0.581941 -0.771198 
0.0637887 -0.278885 -0.958204 0.464687 -0.742158 -0.482978 0.534775 -0.787321 -0.306826 
0.639257 -0.76252 0.0995682 0.465218 -0.688382 -0.556509 -0.354436 0.39967 -0.845363 
0.600191 -0.789047 -0.131053 0.584115 -0.66493 0.465487 0.46087 -0.468901 -0.75348 
0.48035 -0.24921 -0.840927 0.569796 -0.793536 0.213617 0.364209 0.381949 0.849392 
-0.262419 0.746554 -0.611387 -0.076728 0.992029 0.0999538 0.190927 0.705722 0.682278 
-0.110268 0.987493 -0.11269 -0.141295 0.961602 -0.235283 0.0557444 0.766538 0.639775 
0.0282417 -0.382551 -0.923503 -0.125616 -0.442495 -0.88793 -0.219084 -0.160258 -0.962455 
0.0913124 -0.528284 -0.844144 0.280248 -0.64702 -0.709102 -0.140854 -0.0182407 -0.989862 
0.488901 -0.698523 -0.522534 0.278847 -0.56161 -0.778998 0.577672 -0.816202 0.0104026 
0.176134 -0.723901 -0.667041 0.44014 -0.796639 -0.414298 0.537471 -0.836158 0.109384 
0.630784 -0.713818 0.304263 0.502332 -0.788415 -0.355055 -0.320008 0.464208 -0.825897 
0.592807 -0.544459 0.593417 -0.354814 0.647612 -0.674319 0.239683 0.294938 0.924967 
0.378586 0.0447079 0.924486 -0.250968 0.803209 -0.540251 0.073977 0.935419 0.345716 
0.293474 0.518724 0.802993 0.206857 0.491528 0.845938 -0.189183 0.945244 -0.26594 
-0.0568292 0.994764 0.0849378 -0.208695 -0.383252 -0.899758 0.0318307 -0.68184 -0.730809 
0.246728 -0.718767 -0.65 -0.35617 -0.116116 -0.927178 -0.336943 -0.000617318 -0.941525 
0.270177 -0.770793 -0.57696 0.445669 -0.849872 -0.281242 0.610942 -0.787121 -0.0847978 
0.550794 -0.832651 0.0575996 -0.359288 0.222893 -0.906218 -0.22426 0.011778 -0.974458 
0.550734 -0.505944 0.663862 -0.438643 0.300384 -0.846972 0.398531 0.0283402 0.916717 
0.504245 -0.264656 0.822006 -0.350366 0.577022 -0.73776 0.430759 -0.0310634 0.901932 
-0.351717 0.692932 -0.629397 -0.219305 0.841236 -0.494193 0.0151256 0.991222 0.131339 
0.162367 0.817916 0.551951 0.158103 0.786357 0.597198 -0.218187 0.913398 -0.343656 
0.40589 -0.913784 -0.0158746 -0.0901799 -0.785969 -0.611654 0.419954 -0.890466 -0.17524 
0.535732 -0.817567 -0.211127 -0.0192586 -0.583897 -0.811599 -0.194464 -0.404149 -0.893783 
-0.107784 -0.547425 -0.829885 0.21185 -0.969215 0.125466 0.322899 -0.934109 -0.152241 
0.104781 -0.87282 -0.476661 -0.236902 -0.229543 -0.944027 0.0642831 -0.605177 -0.793491 
0.337159 -0.926583 -0.166638 0.187281 -0.936609 -0.296123 0.492329 -0.359038 0.792908 
-0.4434 0.397386 -0.803418 -0.442504 0.491264 -0.750233 0.510109 -0.255951 0.821144 
-0.472264 0.602622 -0.643283 0.166981 0.887345 0.429809 -0.331404 0.855467 -0.397929 
-0.0659524 0.993984 0.0874415 0.349085 -0.920043 -0.177934 -0.211222 -0.245871 -0.946009 
0.167802 -0.741119 -0.650066 0.428179 -0.840228 0.332686 0.447704 -0.854315 0.26402 
0.35916 -0.833335 0.420188 0.451644 -0.723204 0.522488 0.581137 -0.541937 0.607111 
-0.432677 0.310361 -0.846443 0.484632 0.133401 0.864486 0.431265 0.397992 0.809699 
-0.31649 0.834742 -0.450599 -0.17093 0.976805 -0.128974 0.0834158 0.891217 0.445841 
0.283733 0.613244 0.737175 0.151473 0.847001 0.509554 0.323238 0.623707 0.711693 
-0.132808 0.989651 -0.0543483 0.0548231 -0.642505 -0.764318 -0.277919 -0.259189 -0.924977 
-0.160421 -0.413484 -0.896268 -0.0874452 -0.428476 -0.899312 0.351255 -0.923654 -0.153244 
-0.376839 -0.0028382 -0.926274 0.476442 -0.49642 0.725652 -0.399758 0.620341 -0.674811 
0.401959 0.116303 0.908242 -0.316839 0.861628 -0.396497 -0.340827 0.750227 -0.566565 
0.131134 0.958259 0.254055 0.124301 0.901096 0.415422 0.164422 0.91463 0.369346 
0.242729 0.772682 0.586554 -0.168967 0.978503 -0.118249 0.27191 -0.811408 -0.51738 
0.230732 -0.80806 -0.542034 0.500871 -0.766569 -0.401871 0.149572 -0.66143 -0.734942 
0.101698 -0.727041 -0.67902 0.338783 -0.862616 -0.375658 0.349786 -0.914062 -0.205283 
0.424668 -0.902503 0.071738 -0.346817 0.657731 -0.668661 0.376975 0.259636 0.889089 
0.371049 0.448425 0.813165 -0.265114 0.929489 -0.256446 0.0490444 0.927467 0.370675 
0.115639 0.935263 0.334529 0.243066 -0.826575 -0.507634 0.591189 -0.805357 -0.0435441 
0.453376 -0.876108 -0.163964 0.580664 -0.79607 0.17059 0.521612 -0.838723 0.156413 
0.535381 -0.717191 0.446098 -0.39519 0.247183 -0.884718 0.580411 -0.244793 0.776659 
0.495977 -0.0275189 0.867899 0.555288 -0.0483241 0.830253 0.326527 0.601413 0.729166 
0.344981 0.550267 0.760391 0.00353646 0.993214 0.116249 0.076964 0.934434 0.347719 
0.355201 0.589375 0.725582 0.128281 -0.766502 -0.6293 0.235031 -0.835776 -0.496225 
0.227706 -0.81332 -0.535407 0.511146 -0.859004 0.0290051 0.569535 -0.783068 0.24987 
0.641728 -0.480471 0.597773 -0.527315 0.185084 -0.829267 -0.342523 0.7639 -0.546933 
0.470484 0.119927 0.874221 0.375306 0.456681 0.80659 0.379985 0.243642 0.892328 
-0.226194 0.908931 -0.350257 -0.224082 0.876754 -0.425546 0.00938369 0.995938 0.0895483 
-0.144978 -0.44832 -0.882038 0.266639 -0.803469 -0.532297 0.498585 -0.866807 -0.00770584 
0.665991 -0.508772 0.545534 0.647897 -0.494961 0.579002 0.657593 -0.431953 0.617243 
-0.431509 0.552906 -0.712808 -0.43188 0.559142 -0.7077 0.427623 0.248515 0.869125 
0.100098 0.973177 0.207142 0.207899 0.824889 0.525676 0.275028 0.741516 0.611976 
-0.307363 0.873941 -0.376503 -0.129347 0.98309 -0.129625 -0.236967 -0.472895 -0.848656 
0.0521377 -0.636633 -0.769402 0.299753 -0.869986 -0.3915 0.515617 -0.855306 -0.0509036 
0.607389 -0.766265 0.209563 -0.388371 -0.228542 -0.892713 0.671367 -0.198048 0.714173 
0.2355 0.782828 0.575951 -0.00805343 0.996658 0.0812906 -0.294068 0.894961 -0.335514 
-0.163125 0.950817 -0.263321 0.60758 -0.651522 0.454275 -0.51961 0.173896 -0.83652 
0.575695 -0.470507 0.668729 0.479552 -0.239317 0.84425 -0.353016 0.823708 -0.443718 
0.127208 0.882523 0.452738 -0.0112352 0.99989 -0.0096944 0.237033 -0.786853 -0.569805 
-0.336519 -0.232331 -0.912567 0.512851 -0.858243 0.0200998 -0.200022 -0.454175 -0.868168 
0.53111 -0.830366 0.168566 0.578608 -0.725861 0.37194 0.585722 -0.509404 0.630426 
-0.465889 0.48882 -0.737565 -0.31351 0.869984 -0.380578 -0.330393 0.835464 -0.439136 
0.377403 0.57523 0.725725 0.405228 0.386869 0.828326 0.0959673 0.930803 0.352698 
0.648366 -0.585937 0.486107 -0.56667 0.521765 -0.637689 -0.409504 0.830393 -0.377828 
0.392426 0.458967 0.797089 0.0194792 0.945886 0.323915 -0.210182 -0.515435 -0.830753 
-0.349331 -0.571445 -0.742575 0.112036 -0.832969 -0.541858 0.243848 -0.718957 -0.650875 
0.202154 -0.789075 -0.580082 0.0902564 -0.644927 -0.758896 0.513845 -0.819955 -0.252265 
0.532732 -0.838384 -0.115362 -0.554367 0.404665 -0.727271 0.400882 -0.131704 0.906613 
0.260623 0.0969881 0.960557 -0.506927 0.725839 -0.464955 0.391018 0.271002 0.879581 
0.402855 0.324572 0.855781 -0.272999 0.9481 0.163029 -0.334892 0.941608 0.0349487 
-0.202764 0.97915 0.0123478 0.235534 0.682201 0.692189 -0.12884 0.946024 0.297387 
0.0922578 0.833818 0.544275 -0.436581 -0.297865 -0.848925 -0.439936 -0.580611 -0.685089 
0.024227 -0.866675 -0.498285 0.147234 -0.898566 -0.413402 0.520492 -0.85222 0.0529966 
0.658274 -0.643233 0.391058 0.660306 -0.38156 0.646844 -0.497047 0.669806 -0.551638 
0.0350666 0.801141 0.597447 0.00479167 0.73126 0.682082 0.191299 0.116085 0.974643 
0.324958 0.287583 0.900943 0.207023 0.792521 0.573631 -0.121494 0.87784 0.463288 
-0.0823376 0.841726 0.533589 0.0285086 0.872441 0.487888 -0.122037 -0.784687 -0.607761 
-0.0160012 -0.85582 -0.517026 0.273312 -0.948347 -0.161054 0.592441 -0.699061 0.400409 
-0.401999 -0.33985 -0.850235 -0.126676 -0.875418 -0.466472 0.494393 -0.868735 0.0295636 
0.622552 -0.604287 0.497259 0.423168 0.0692646 0.9034 -0.459376 0.817173 -0.348141 
-0.309919 0.950762 -0.000909798 -0.158247 0.960628 0.228366 -0.0125978 0.920024 0.39166 
0.206511 0.550592 0.808827 -0.360471 -0.199932 -0.911092 -0.498255 0.668852 -0.551705 
-0.320638 0.947147 -0.010221 -0.159199 0.922261 0.352264 0.149109 0.709056 0.689206 
-0.0225143 0.859722 0.510265 -0.235354 -0.58485 -0.776247 0.0135381 -0.831734 -0.555008 
0.210492 -0.955861 -0.204994 0.0224009 -0.862599 -0.505392 0.31557 -0.944367 -0.0926614 
0.477776 -0.829363 0.289633 0.40575 -0.897537 0.172609 -0.371594 -0.317049 -0.872581 
0.409648 0.0433218 0.911215 -0.480729 0.661514 -0.575586 -0.391951 0.855467 -0.338454 
-0.374888 0.89936 -0.224968 -0.236636 0.961253 0.14141 -0.135536 0.941291 0.309194 
-0.515231 -0.172618 -0.839488 -0.420001 0.103365 -0.901618 -0.453164 0.840446 -0.297142 
-0.218985 -0.378344 -0.899389 0.132129 0.591449 0.795443 -0.535114 0.689116 -0.488643 
0.0826257 0.737872 0.669864 -0.212892 0.964503 0.156242 -0.216507 -0.61684 -0.756725 
0.267108 -0.947855 -0.173851 -0.487303 0.105147 -0.86688 -0.454936 0.203656 -0.866924 
0.499792 -0.103193 0.859976 -0.593842 0.623873 -0.508069 -0.334761 0.929106 0.157155 
-0.237134 0.933084 0.27041 -0.0604078 0.803577 0.592128 0.208277 0.431626 0.877679 
0.248299 -0.953395 -0.17142 -0.132387 -0.660523 -0.739042 0.436317 -0.888662 0.141094 
-0.276788 -0.29821 -0.913487 0.568163 -0.475969 0.6713 -0.169004 -0.683534 -0.710084 
0.428219 -0.889173 0.161247 -0.46466 -0.0062282 -0.885467 -0.397752 0.482298 -0.780501 
-0.185881 0.851297 0.490654 -0.171598 -0.624142 -0.762234 0.217277 -0.914971 -0.340029 
0.00647885 -0.866145 -0.499751 0.171607 -0.969476 -0.175122 0.367068 -0.924743 0.100559 
0.539617 -0.497181 0.67943 -0.449265 0.828377 -0.334594 0.13926 0.534614 0.833543 
-0.0889593 -0.730786 -0.676785 -0.174804 -0.686562 -0.705745 0.021852 -0.886871 -0.461501 
-0.137773 -0.635562 -0.759658 0.241371 -0.947043 -0.211777 0.346273 -0.936246 -0.0594803 
0.451138 -0.844954 0.287274 -0.598526 0.31631 -0.736012 -0.515935 0.745606 -0.421762 
-0.0712343 0.801731 0.593426 -0.428727 0.903244 -0.0185052 -0.0510375 -0.886915 -0.459105 
-0.319718 -0.685828 -0.653773 0.184766 -0.930817 -0.315342 0.526147 -0.717064 0.457153 
-0.424512 -0.571318 -0.702414 0.468187 -0.858378 0.209734 -0.50083 -0.146373 -0.853079 
-0.532313 0.589498 -0.607564 -0.466555 0.732708 -0.495445 0.418097 0.17857 0.890678 
-0.362266 0.924496 -0.118623 -0.329004 0.938519 -0.104587 -0.301484 0.931661 0.202769 
0.00780144 0.904021 0.427416 -0.358877 0.926467 -0.11343 -0.0836461 0.913953 0.397106 
-0.0549093 0.816439 0.574815 0.0595403 -0.996249 -0.0627929 0.343615 -0.936185 0.0740664 
-0.297279 -0.717152 -0.630331 -0.261349 -0.713102 -0.650524 0.549078 -0.512759 0.659994 
-0.55998 0.202157 -0.803464 0.249338 -0.0104156 0.968361 0.488014 0.0294812 0.872338 
-0.598114 0.610018 -0.519747 0.486144 -0.0507502 0.872404 0.363762 0.134831 0.921682 
-0.502629 0.861447 -0.0726189 -0.494996 0.867969 -0.0401167 0.182408 0.665542 0.723728 
0.353984 0.454491 0.817394 -0.414373 0.907213 0.0725254 -0.100692 0.667891 0.737416 
0.419563 -0.766797 -0.485788 -0.469621 -0.382736 -0.795594 -0.460621 -0.400765 -0.79197 
0.0528488 -0.707883 -0.70435 -0.553223 -0.734634 -0.392755 0.574568 -0.677721 0.458876 
-0.0673556 -0.991599 -0.110427 0.46033 -0.863464 0.20622 -0.561549 0.508739 -0.65257 
-0.518408 0.854944 -0.0179955 0.134603 0.0614184 0.988994 -0.355155 0.872914 0.334494 
-0.252123 0.826236 0.503754 -0.0506304 0.680297 0.731186 0.177117 0.537711 0.824316 
-0.656383 -0.743318 0.128997 -0.379582 -0.350509 -0.85619 -0.346541 -0.420669 -0.838419 
0.0376147 -0.801225 0.59718 -0.50173 0.848099 -0.170279 -0.308866 0.880473 0.359678 
0.124165 0.350316 0.928365 -0.102693 -0.945215 -0.309874 -0.35274 -0.642221 -0.680534 
-0.100271 -0.927252 -0.360763 0.258472 -0.965845 -0.0183509 0.453831 -0.853361 0.256538 
-0.249774 -0.780666 -0.572865 0.508414 -0.764258 0.396768 -0.46637 -0.142947 -0.872963 
0.460985 -0.643394 0.611177 0.574497 -0.128714 0.808323 -0.165304 0.874381 0.456216 
0.192561 -0.904681 -0.380096 -0.30225 -0.552656 -0.77667 0.607935 -0.781852 0.138286 
0.50114 -0.689164 0.523366 0.391897 -0.808248 0.43949 0.423927 -0.797736 0.42884 
0.496515 -0.618854 0.60868 -0.500289 0.00421609 -0.865848 0.532898 -0.487599 0.691568 
-0.609924 0.333334 -0.718944 -0.227742 -0.91679 -0.328069 -0.500553 0.810427 -0.304393 
-0.538493 0.78862 -0.296822 0.266552 0.407179 0.873587 0.207602 0.536867 0.817725 
-0.441616 0.89669 -0.0303704 -0.148636 0.911422 0.383689 -0.504745 -0.354654 -0.787053 
-0.447345 0.304759 -0.840836 -0.446361 -0.320436 -0.835513 0.39791 -0.900945 0.173107 
0.51166 -0.802229 0.307624 0.050716 -0.98078 -0.188413 0.622741 0.115356 0.773878 
0.283275 -0.901663 0.326739 -0.178133 -0.598848 -0.780801 0.160055 -0.984604 -0.0702698 
0.533487 -0.248232 0.808562 0.515945 -0.0428845 0.855547 -0.579668 0.428669 -0.692985 
-0.519296 0.766688 -0.37752 -0.71046 0.454273 -0.537479 -0.510086 0.777499 -0.367843 
-0.203323 0.930225 0.305518 0.0907805 0.673491 0.7336 0.133938 0.618023 0.774666 
-0.29738 0.923775 0.241258 0.0527117 -0.933845 -0.353771 -0.248885 -0.663663 -0.705413 
-0.211527 -0.705444 -0.676465 -0.285726 -0.679247 -0.676006 0.239698 -0.95515 -0.173878 
-0.0142743 -0.944707 -0.327605 0.622741 0.115356 0.773878 0.461911 -0.68521 0.563139 
0.555697 -0.341038 0.758218 0.335975 0.226782 0.914161 -0.57989 0.742797 -0.334634 
-0.57475 0.785343 -0.229995 0.436932 0.226524 0.870504 -0.362323 0.922351 0.134128 
-0.395533 -0.400986 -0.826295 0.0741917 -0.929886 -0.360288 0.376761 -0.925486 0.0390683 
-0.491535 -0.192298 -0.849362 -0.492234 -0.196876 -0.847906 -0.564312 0.0259872 -0.825153 
-0.553713 0.345183 -0.757794 -0.534423 0.565454 -0.628215 -0.492931 0.773676 -0.39805 
-0.298807 0.944551 0.136157 -0.387124 0.903849 0.182186 0.261199 0.497579 0.827158 
-0.0822915 0.863453 0.497672 -0.31901 -0.55967 -0.764854 0.612861 -0.42409 0.666745 
-0.283261 0.954165 0.0966082 -0.0670912 0.818067 0.571196 -0.00366584 -0.872237 -0.489069 
-0.336977 -0.50138 -0.79691 0.0148652 -0.861356 -0.507784 0.0424376 -0.875633 -0.481109 
0.525098 0.0740111 0.847817 -0.568759 0.794159 -0.214065 -0.503507 0.766873 -0.397979 
0.108327 0.737309 0.666814 -0.401282 0.900875 -0.165521 -0.243257 0.953345 0.178774 
-0.117974 0.933501 0.338613 -0.38656 -0.447069 -0.80666 0.168964 -0.938716 -0.300437 
0.280122 -0.949189 -0.143426 0.44436 0.382143 0.810253 0.309913 0.53474 0.786134 
0.0855826 0.734829 0.672832 0.266497 0.644424 0.716727 -0.220046 -0.654118 -0.723677 
-0.213766 -0.721152 -0.658972 0.246116 -0.928068 -0.279494 -0.238412 -0.649227 -0.722263 
-0.547752 0.277653 -0.789225 -0.537303 0.788945 -0.298112 -0.363151 0.927904 0.0843571 
-0.380899 -0.424784 -0.821264 -0.167189 -0.751641 -0.638031 -0.508153 -0.168624 -0.844598 
0.47318 0.219882 0.853084 -0.490435 0.871429 0.00920374 -0.61442 0.645822 -0.453212 
0.148974 -0.906596 -0.394831 -0.535511 -0.342149 -0.772115 -0.354001 -0.497781 -0.791769 
0.324367 -0.934534 -0.146396 -0.649787 -0.134831 -0.748062 -0.627513 -0.0863795 -0.773799 
-0.652676 0.340621 -0.676751 -0.223476 0.857561 0.4633 -0.307635 0.928782 0.206699 
-0.11298 0.830671 0.54518 0.173883 0.605938 0.776276 0.113461 0.764628 0.634406 
-0.375802 -0.580266 -0.72254 -0.272306 -0.712104 -0.647115 0.540068 -0.837683 0.0813298 
-0.511039 -0.416242 -0.752052 0.61278 -0.695779 0.37469 -0.665898 0.641048 -0.381625 
-0.482871 0.853969 -0.193836 0.232466 0.517072 0.82377 -0.0767016 0.815286 0.573955 
-0.0944726 -0.790464 -0.605179 0.379487 -0.900445 -0.212574 -0.630059 0.207772 -0.748235 
-0.683631 0.525024 -0.50695 -0.663708 0.736905 -0.128305 -0.0836818 0.876676 0.473748 
-0.324927 -0.570952 -0.753947 0.0807136 -0.817701 -0.569957 0.468823 -0.858269 -0.208757 
0.695017 -0.621527 0.361463 0.71474 -0.618016 0.327419 0.678169 -0.688113 0.258046 
-0.750217 -0.295308 -0.59158 -0.807004 -0.118571 -0.57852 -0.63135 -0.171834 -0.756221 
-0.766778 0.130506 -0.628506 -0.711216 0.283342 -0.643342 -0.613463 0.451917 -0.647637 
-0.772388 0.516789 -0.36925 -0.64633 0.545852 -0.533201 -0.513486 0.516432 -0.685296 
-0.224837 0.79246 0.56697 -0.26902 0.82684 0.493926 -0.617675 0.785397 -0.0403654 
-0.57392 0.814608 0.0838491 0.208132 0.555705 0.804906 -0.289885 -0.58444 -0.75789 