# vtk DataFile Version 4.2
vtk output
ASCII
DATASET POLYDATA
POINTS 1643 float
226.333 191.376 45.2278 227.063 191.428 45.345 227.699 191.979 45.2966 
227.576 192.656 45.1021 228.153 192.695 45.2758 227.104 192.741 45.0879 
227.218 192.869 45.1347 228.004 192.986 45.2136 221.317 187.684 45.9681 
222.111 189.592 45.5182 223.562 189.61 45.5018 225.608 190.328 45.4962 
227.396 191.516 45.4496 227.973 192.073 45.4318 228.205 192.555 45.3721 
228.304 192.676 45.5024 228.27 193.013 45.275 228.343 192.911 45.2989 
228.415 193.047 45.2834 228.423 193.025 45.2645 228.466 193.048 45.2674 
226.147 192.806 45.4989 227.932 193.068 45.2505 227.825 193.093 45.2876 
227.996 193.066 45.3724 228.291 193.014 45.3949 228.436 193.03 45.3059 
217.614 185.042 46.8238 217.343 185.001 46.8871 217.81 185.109 46.8137 
218.626 185.88 46.53 219.644 186.174 46.5336 219.913 188.011 45.9329 
223.588 188.936 45.8025 223.057 188.453 46.0034 224.257 189.105 45.9584 
221.125 190.387 45.841 226.428 190.681 45.6021 228.083 192.107 45.5431 
228.137 192.103 45.7224 222.139 191.662 46.1989 228.329 192.48 45.8445 
222.41 192.102 46.6255 228.384 192.937 45.3815 228.27 192.874 45.5916 
228.271 192.666 45.8451 228.445 193.009 45.2871 227.49 193.106 45.4789 
228.021 192.99 45.6645 227.12 193.055 45.4846 218.209 185.459 46.7086 
218.626 185.47 46.7724 218.891 185.43 46.9325 220.885 186.823 46.4832 
219.165 188.887 46.1098 225.889 190.145 45.8356 226.902 190.787 46.0009 
219.105 190.721 46.7057 228.135 192.854 45.8297 227.929 192.908 45.9552 
223.256 192.45 47.0481 212.114 183.42 48.2701 213.307 183.546 48.0392 
215.302 183.75 47.8868 217.271 184.503 47.3161 214.009 184.69 47.4945 
218.323 184.992 47.1559 220.543 186.273 47.0794 214.451 186.653 47.2112 
225.582 189.832 46.3234 225.907 190.064 46.4337 227.072 190.895 46.0908 
227.146 190.98 46.1878 217.858 190.455 47.0376 227.77 191.579 46.1385 
228.176 192.056 46.058 217.997 191.541 47.9168 228.255 192.435 46.2202 
228.235 192.381 46.2986 218.633 191.734 47.9032 220.138 192.058 47.9588 
211.227 182.451 48.933 212.411 182.368 49.0331 213.73 182.832 48.634 
213.745 182.673 48.8727 211.435 183.056 48.5866 215.707 183.67 48.1134 
218.865 185.024 47.5709 219.007 185.174 47.3994 220.832 186.469 47.3433 
224.787 189.365 46.8135 227.262 191.289 46.5529 217.177 190.82 47.5863 
228.171 192.331 46.3689 217.379 191.659 48.384 222.742 192.359 48.0304 
226.347 192.834 46.8945 226.912 192.837 46.6892 227.757 192.395 46.6182 
205.996 179.844 50.7037 205.805 179.907 50.7134 206.237 179.886 50.6895 
210.694 181.689 49.5462 211.902 181.932 49.4863 213.613 182.555 49.1566 
216.068 183.698 48.3952 216.802 184.007 48.2593 217.904 184.552 48.1519 
209.516 184.158 48.9078 219.41 185.421 47.88 220.275 186.213 48.0381 
221.773 187.797 48.3568 225.829 190.52 47.2345 224.284 190.534 48.3532 
226.402 191.066 47.1814 227.477 191.823 46.761 219.816 192.085 49.0282 
224.45 192.331 48.1488 225.799 192.528 47.6936 226.653 192.456 47.3094 
215.753 191.897 49.692 216.87 191.964 49.3376 204.416 178.693 51.4609 
204.114 178.383 51.7133 204.891 178.595 51.6173 204.323 178.998 51.3129 
205.274 179.194 51.1542 204.318 179.93 51.0298 207.168 179.931 50.8508 
206.04 180.475 50.5076 213.277 182.387 49.6802 217.093 184.214 48.7461 
217.25 184.501 49.152 218.593 185.779 49.423 209.335 188.916 50.2462 
220.869 189.142 49.6995 210.451 190.443 50.6221 213.618 190.36 48.9248 
221.535 190.145 49.5572 221.623 190.638 49.5114 222.356 191.093 49.1869 
214.124 191.2 49.4108 222.663 191.736 48.8932 223.82 191.907 48.7082 
224.24 191.946 48.625 224.426 191.858 48.4844 224.412 192.096 48.4785 
224.906 191.918 48.3707 224.682 192.078 48.4403 226.608 192.216 47.4567 
226.328 192.269 47.6259 223.985 192.122 48.5255 224.85 192.246 48.2686 
225.42 192.367 48.0393 202.03 177.568 52.3797 202.172 177.349 52.541 
201.505 177.994 52.2838 202.094 179.741 51.7503 207.619 179.907 51.1588 
211.894 181.641 50.2426 211.857 181.638 50.4038 210.116 181.057 50.8142 
212.134 181.787 50.3256 212.438 182.026 50.372 213.776 182.692 49.919 
216.09 184.78 50.4743 206.111 185.34 50.5217 216.906 185.918 50.729 
210.741 191.419 51.4122 224.502 192.107 48.592 224.273 192.06 48.6454 
224.562 192.101 48.4853 224.709 192.104 48.488 225.259 192.257 48.2447 
225.982 192.191 47.8507 211.674 191.862 51.5893 224.243 192.101 48.6114 
224.581 192.174 48.4909 212.769 191.892 51.1601 215.283 192.005 50.5852 
201.052 176.666 53.0959 202.793 177.355 52.7423 204.812 178.321 52.2554 
205.754 178.81 51.8404 205.875 178.853 52.0616 201.344 179.153 52.0877 
213.526 182.986 50.6123 214.757 185.156 51.5017 217.264 186.915 50.9769 
216.438 188.29 51.8186 207.832 190.718 52.3044 221.602 192.005 52.6165 
221.602 192.004 52.6165 221.602 192.004 52.6166 221.602 192.005 52.6165 
221.602 192.004 52.6165 221.602 192.005 52.6164 208.347 191.409 52.706 
221.602 192.005 52.6165 221.602 192.005 52.6165 224.48 192.144 48.589 
224.725 192.184 48.5035 211.258 192.032 52.5158 214.632 191.98 51.2384 
197.882 174.358 54.7247 198.111 175.126 54.2311 200.534 175.834 53.8946 
202.562 177.061 53.2347 205.005 178.352 52.459 204.944 178.318 52.5819 
205.134 178.442 52.5568 198.69 178.298 53.1873 207.256 179.667 51.8675 
199.412 180.728 52.9422 214.492 189.257 52.9575 221.601 192.004 52.6167 
221.601 192.004 52.6167 221.601 192.004 52.6167 221.602 192.004 52.6167 
221.602 192.004 52.6166 221.602 192.004 52.6165 221.602 192.004 52.6165 
221.602 192.004 52.6165 214.159 191.705 52.2569 221.601 192.004 52.6167 
221.602 192.004 52.6166 221.602 192.005 52.6165 208.873 191.948 53.2627 
210.118 192.094 53.0084 209.207 191.98 53.0774 197.116 173.727 55.2893 
198.786 174.643 54.5522 199.459 174.634 54.8406 199.861 174.838 54.8609 
200.226 175.39 54.3895 200.858 175.757 54.3005 201.517 176.206 54.3883 
203.475 177.561 53.2664 206.329 179.343 52.5813 207.575 180.607 52.9509 
206.968 181.213 53.9775 199.186 183.574 53.7393 218.504 192.004 54.0174 
218.504 192.004 54.0175 218.504 192.004 54.0175 218.505 192.004 54.0174 
218.505 192.004 54.0175 221.601 192.004 52.6167 218.505 192.004 54.0175 
221.602 192.004 52.6167 221.602 192.004 52.6166 211.621 191.884 53.3357 
213.208 191.204 53.2422 218.504 192.004 54.0174 218.505 192.005 54.0175 
208.544 191.974 53.9601 211.025 191.989 53.387 207.522 191.871 54.3202 
200.201 175.007 54.8825 199.764 174.718 54.9961 200.481 175.202 54.8204 
200.218 174.983 54.8996 200.433 175.162 54.8688 200.023 174.958 55.0568 
200.31 175.108 54.8881 200.543 175.351 54.7396 200.684 175.431 54.6827 
200.823 175.563 54.7855 200.384 175.353 54.9393 202.899 177.258 53.8351 
203.9 178.477 54.32 206.746 181.92 54.6026 210.959 189.192 54.8514 
212.366 190.381 54.0499 218.504 192.004 54.0175 218.505 192.004 54.0175 
210.56 191.872 53.9158 207.981 191.953 54.2594 207.126 191.835 54.6737 
195.967 172.811 56.2989 199.062 174.304 55.4288 199.919 174.825 55.081 
200.435 175.235 54.9068 200.839 175.755 55.0278 203.619 179.165 55.2584 
210.296 188.516 55.1044 211.398 190.787 54.4137 203.075 190.982 56.3956 
202.896 190.813 56.0668 210.268 191.318 54.7061 206.549 191.689 55.3931 
189.767 169.16 58.9223 190.554 169.645 58.4977 192.636 170.509 58.007 
192.51 170.841 57.6403 193.031 170.712 58.0461 192.13 171.01 57.5219 
193.577 171.286 57.6004 194.495 171.876 57.2969 197.496 173.362 56.3355 
199.419 190.066 57.6066 198.909 190.01 58.0387 202.925 190.97 56.8773 
203.675 191.135 56.3671 205.096 191.404 56.1573 205.825 191.399 56.2234 
188.196 168.599 59.6155 190.622 169.108 59.0494 192.289 170.109 58.488 
193.702 171.125 58.2409 196.196 172.746 57.0267 198.969 174.728 56.4301 
204.906 188.144 57.8405 196.752 189.161 58.6415 206.454 189.688 57.036 
206.869 190.067 56.7782 199.116 190.188 58.2415 199.315 190.287 58.4768 
200.403 190.652 57.8765 204.163 191.03 57.0205 205.747 191.095 56.5988 
187.069 168.625 59.9101 188.835 168.302 59.815 189.496 168.361 59.8832 
189.532 168.497 59.5986 190.009 168.626 59.6264 186.298 169.148 59.926 
190.56 168.928 59.3942 191.355 169.449 58.9352 191.884 169.777 58.8544 
192.876 170.439 58.5674 192.993 170.547 58.6876 194.782 172.107 58.377 
198.491 176.077 58.0348 193.319 187.515 59.3496 194.012 188.259 59.5441 
194.205 188.579 59.8125 204.731 189.21 57.9089 205.459 190.091 57.3733 
204.873 190.139 57.6047 195.175 189.129 60.0614 196.239 189.385 59.6345 
187.076 167.696 60.6639 188.647 168.003 60.3049 190.273 168.699 59.6983 
191.484 169.477 59.6154 194.717 172.782 59.2987 190.772 186.367 60.3653 
191.577 187.471 60.6284 201.685 187.137 59.4884 192.619 188.374 60.7647 
196.563 189.556 59.9901 198.147 189.915 59.5335 199.628 190.291 58.9839 
201.754 190.215 58.7305 204.664 190.422 57.5195 201.015 190.446 58.5954 
187.06 167.386 61.0293 188.541 167.752 60.7532 188.281 167.582 61.0048 
188.955 167.974 60.6896 190.362 168.757 60.1887 191.765 170.111 60.2859 
192.898 171.879 60.5519 200.105 188.398 60.274 197.514 189.661 60.3008 
201.105 189.728 59.3079 194.723 189.185 61.1147 196.4 189.505 60.4859 
187.165 167.133 62.0392 186.992 167.07 61.8793 188.194 167.517 61.3636 
188.212 167.496 61.6542 188.394 167.618 61.7101 181.503 167.224 62.8624 
186.644 167.043 61.7646 187.846 167.445 61.1357 181.722 169.653 62.2129 
185.991 183.559 62.3618 194.956 189.062 61.6784 192.497 188.755 61.8334 
195.23 189.236 61.2666 181.118 166.528 63.407 181.757 166.078 63.5915 
187.927 167.483 62.0893 188.144 167.498 61.8452 184.006 166.507 62.7637 
189.097 187.207 63.2267 191.977 188.591 62.5218 191.688 188.602 62.4938 
198.777 188.73 60.7596 191.604 188.546 62.3717 196.174 188.874 61.6077 
196.066 189.165 61.3259 183.967 166.282 63.6778 188.106 170.183 63.809 
181.165 177.556 63.7659 187.303 186.365 63.8343 188.482 187.001 63.4808 
194.118 187.505 63.1334 194.232 187.972 62.8945 191.581 188.585 62.4992 
193.746 188.461 62.6996 196.936 188.394 61.6485 192.848 188.503 62.8169 
[...]
POINT_DATA 1643
SCALARS scalars float
LOOKUP_TABLE default
1 1 1 1 1 1 1 1 1 
1 1 1 1 1 1 1 1 1 
1 1 1 1 1 1 1 1 1 
1 1 1 1 1 1 1 1 1 
1 1 1 1 1 1 1 1 1 
1 1 1 1 1 1 1 1 1 
1 1 1 1 1 1 1 1 1 
1 1 1 1 1 1 1 1 1 
1 1 1 1 1 1 1 1 1 
1 1 1 1 1 1 1 1 1 
1 1 1 1 1 1 1 1 1 
1 1 1 1 1 1 1 1 1 
1 1 1 1 1 1 1 1 1 
1 1 1 1 1 1 1 1 1 
1 1 1 1 1 1 1 1 1 
1 1 1 1 1 1 1 1 1 
1 1 1 1 1 1 1 1 1 
1 1 1 1 1 1 1 1 1 
1 1 1 1 1 1 1 1 1 
1 1 1 1 1 1 1 1 1 
1 1 1 1 1 1 1 1 1 
1 1 1 1 1 1 1 1 1 
1 1 1 1 1 1 1 1 1 
1 1 1 1 1 1 1 1 1 
1 1 1 1 1 1 1 1 1 
1 1 1 1 1 1 1 1 1 
1 1 1 1 1 1 1 1 1 
1 1 1 1 1 1 1 1 1 
1 1 1 1 1 1 1 1 1 
1 1 1 1 1 1 1 1 1 
1 1 1 1 1 1 1 1 1 
1 1 1 1 1 1 1 1 1 
1 1 1 1 1 1 1 1 1 
1 1 1 1 1 1 1 1 1 
1 1 1 1 1 1 1 1 1 
1 1 1 1 1 1 1 1 1 
1 1 1 1 1 1 1 1 1 
1 1 1 1 1 1 1 1 1 
1 1 1 1 1 1 1 1 1 
1 1 1 1 1 1 1 1 1 
1 1 1 1 1 1 1 1 1 
1 1 1 1 1 1 1 1 1 
1 1 1 1 1 1 1 1 1 
1 1 1 1 1 1 1 1 1 
1 1 1 1 1 1 1 1 1 
1 1 1 1 1 1 1 1 1 
1 1 1 1 1 1 1 1 1 
1 1 1 1 1 1 1 1 1 
1 1 1 1 1 1 1 1 1 
1 1 1 1 1 1 1 1 1 
1 1 1 1 1 1 1 1 1 
1 1 1 1 1 1 1 1 1 
1 1 1 1 1 1 1 1 1 
1 1 1 1 1 1 1 1 1 
1 1 1 1 1 1 1 1 1 
1 1 1 1 1 1 1 1 1 
1 1 1 1 1 1 1 1 1 
1 1 1 1 1 1 1 1 1 
1 1 1 1 1 1 1 1 1 
1 1 1 1 1 1 1 1 1 
1 1 1 1 1 1 1 1 1 
1 1 1 1 1 1 1 1 1 
1 1 1 1 1 1 1 1 1 
1 1 1 1 1 1 1 1 1 
1 1 1 1 1 1 1 1 1 
1 1 1 1 1 1 1 1 1 
1 1 1 1 1 1 1 1 1 
1 1 1 1 1 1 1 1 1 
1 1 1 1 1 1 1 1 1 
1 1 1 1 1 1 1 1 1 
1 1 1 1 1 1 1 1 1 
1 1 1 1 1 1 1 1 1 
1 1 1 1 1 1 1 1 1 
1 1 1 1 1 1 1 1 1 
1 1 1 1 1 1 1 1 1 
1 1 1 1 1 1 1 1 1 
1 1 1 1 1 1 1 1 1 
1 1 1 1 1 1 1 1 1 
1 1 1 1 1 1 1 1 1 
1 1 1 1 1 1 1 1 1 
1 1 1 1 1 1 1 1 1 
1 1 1 1 1 1 1 1 1 
1 1 1 1 1 1 1 1 1 
1 1 1 1 1 1 1 1 1 
1 1 1 1 1 1 1 1 1 
1 1 1 1 1 1 1 1 1 
1 1 1 1 1 1 1 1 1 
1 1 1 1 1 1 1 1 1 
1 1 1 1 1 1 1 1 1 
1 1 1 1 1 1 1 1 1 
1 1 1 1 1 1 1 1 1 
1 1 1 1 1 1 1 1 1 
1 1 1 1 1 1 1 1 1 
1 1 1 1 1 1 1 1 1 
1 1 1 1 1 1 1 1 1 
1 1 1 1 1 1 1 1 1 
1 1 1 1 1 1 1 1 1 
1 1 1 1 1 1 1 1 1 
1 1 1 1 1 1 1 1 1 
1 1 1 1 1 1 1 1 1 
1 1 1 1 1 1 1 1 1 
1 1 1 1 1 1 1 1 1 
1 1 1 1 1 1 1 1 1 
1 1 1 1 1 1 1 1 1 
1 1 1 1 1 1 1 1 1 
1 1 1 1 1 1 1 1 1 
1 1 1 1 1 1 1 1 1 
1 1 1 1 1 1 1 1 1 
1 1 1 1 1 1 1 1 1 
1 1 1 1 1 1 1 1 1 
1 1 1 1 1 1 1 1 1 
1 1 1 1 1 1 1 1 1 
1 1 1 1 1 1 1 1 1 
1 1 1 1 1 1 1 1 1 
1 1 1 1 1 1 1 1 1 
1 1 1 1 1 1 1 1 1 
1 1 1 1 1 1 1 1 1 
1 1 1 1 1 1 1 1 1 
1 1 1 1 1 1 1 1 1 
1 1 1 1 1 1 1 1 1 
1 1 1 1 1 1 1 1 1 
1 1 1 1 1 1 1 1 1 
1 1 1 1 1 1 1 1 1 
1 1 1 1 1 1 1 1 1 
1 1 1 1 1 1 1 1 1 
1 1 1 1 1 1 1 1 1 
1 1 1 1 1 1 1 1 1 
1 1 1 1 1 1 1 1 1 
1 1 1 1 1 1 1 1 1 
1 1 1 1 1 1 1 1 1 
1 1 1 1 1 1 1 1 1 
1 1 1 1 1 1 1 1 1 
1 1 1 1 1 1 1 1 1 
1 1 1 1 1 1 1 1 1 
1 1 1 1 1 1 1 1 1 
1 1 1 1 1 1 1 1 1 
1 1 1 1 1 1 1 1 1 
1 1 1 1 1 1 1 1 1 
1 1 1 1 1 1 1 1 1 
1 1 1 1 1 1 1 1 1 
1 1 1 1 1 1 1 1 1 
1 1 1 1 1 1 1 1 1 
1 1 1 1 1 1 1 1 1 
1 1 1 1 1 1 1 1 1 
1 1 1 1 1 1 1 1 1 
1 1 1 1 1 1 1 1 1 
1 1 1 1 1 1 1 1 1 
1 1 1 1 1 1 1 1 1 
1 1 1 1 1 1 1 1 1 
1 1 1 1 1 1 1 1 1 
1 1 1 1 1 1 1 1 1 
1 1 1 1 1 1 1 1 1 
1 1 1 1 1 1 1 1 1 
1 1 1 1 1 1 1 1 1 
1 1 1 1 1 1 1 1 1 
1 1 1 1 1 1 1 1 1 
1 1 1 1 1 1 1 1 1 
1 1 1 1 1 1 1 1 1 
1 1 1 1 1 1 1 1 1 
1 1 1 1 1 1 1 1 1 
1 1 1 1 1 1 1 1 1 
1 1 1 1 1 1 1 1 1 
1 1 1 1 1 1 1 1 1 
1 1 1 1 1 1 1 1 1 
1 1 1 1 1 1 1 1 1 
1 1 1 1 1 1 1 1 1 
1 1 1 1 1 1 1 1 1 
1 1 1 1 1 1 1 1 1 
1 1 1 1 1 1 1 1 1 
1 1 1 1 1 1 1 1 1 
1 1 1 1 1 1 1 1 1 
1 1 1 1 1 1 1 1 1 
1 1 1 1 1 1 1 1 1 
1 1 1 1 1 1 1 1 1 
1 1 1 1 1 1 1 1 1 
1 1 1 1 1 1 1 1 1 
1 1 1 1 1 1 1 1 1 
1 1 1 1 1 1 1 1 1 
1 1 1 1 1 1 1 1 1 
1 1 1 1 1 1 1 1 1 
1 1 1 1 1 1 1 1 1 
1 1 1 1 1 1 1 1 1 
1 1 1 1 1 
NORMALS Normals float
0.146209 -0.196574 -0.969526 0.253888 -0.161791 -0.953606 0.453526 -0.454123 -0.766868 
0.12188 0.0145608 -0.992438 0.544354 -0.293301 -0.785909 -0.136003 0.283114 -0.949394 
-0.167463 0.602648 -0.780238 0.252319 0.450946 -0.856144 0.139838 -0.392664 -0.908989 
-0.154883 0.0517131 -0.986578 0.0996122 -0.343001 -0.934039 0.219016 -0.4392 -0.871284 
0.518827 -0.426803 -0.740714 0.602546 -0.610765 -0.513716 0.811954 -0.334305 -0.47851 
0.972535 -0.170118 -0.158859 0.00990793 0.705149 -0.70899 0.479428 -0.381323 -0.790406 
-0.0650246 0.987312 -0.144869 0.087179 -0.0352885 -0.995568 0.778265 0.521453 -0.349842 
-0.29035 0.720287 -0.629987 0.17911 0.698644 -0.692688 -0.00521863 0.977541 -0.210682 
0.212664 0.974287 -0.0744237 0.285656 0.869949 0.401983 0.585921 0.450654 0.673504 
-0.0579484 -0.316524 -0.946813 -0.146348 -0.229492 -0.962245 0.116974 -0.376066 -0.91918 
0.101552 -0.403397 -0.909372 0.263048 -0.609017 -0.748267 -0.0694777 -0.161403 -0.98444 
0.220596 -0.486664 -0.845279 0.152713 -0.448155 -0.880815 0.414883 -0.70816 -0.571298 
-0.269841 0.37591 -0.886497 0.432731 -0.592673 -0.679325 0.724298 -0.590305 -0.356276 
0.779386 -0.581307 -0.233754 -0.214924 0.656591 -0.722977 0.987218 -0.151729 -0.0487775 
-0.184956 0.891199 -0.414194 0.917936 -0.0532208 0.393142 0.749974 0.497666 0.435738 
0.83604 0.419656 0.353447 0.824983 -0.545601 -0.147386 -0.0281266 0.975691 0.21734 
0.211973 0.907755 0.362006 -0.217613 0.97411 -0.0612701 0.25605 -0.700206 -0.666445 
0.221945 -0.671305 -0.707171 0.294606 -0.713166 -0.636083 0.423381 -0.708251 -0.564915 
-0.354946 0.201819 -0.912843 0.452763 -0.789915 -0.413569 0.572915 -0.809875 -0.125977 
-0.298002 0.436861 -0.848732 0.557997 0.677748 0.47885 0.448037 0.721663 0.527698 
-0.200983 0.930063 -0.307553 -0.13989 -0.417416 -0.897883 -0.173793 -0.417827 -0.891749 
0.0852883 -0.701774 -0.707276 0.21589 -0.811808 -0.542549 -0.230149 -0.17755 -0.956822 
0.326423 -0.782774 -0.529822 0.560312 -0.805059 -0.194758 -0.338269 0.0344209 -0.94042 
0.519566 -0.852666 0.0548812 0.57864 -0.760099 0.295678 0.646288 -0.73115 -0.218477 
0.56783 -0.751518 0.335843 -0.411029 0.380273 -0.828521 0.732205 -0.673786 0.0994421 
0.885687 -0.443622 0.136963 -0.268978 0.846805 -0.458881 0.842164 0.350791 0.409518 
0.819962 0.126319 0.558307 -0.276985 0.856687 -0.435163 -0.168817 0.976585 -0.133353 
-0.101133 -0.571751 -0.81417 0.139828 -0.791769 -0.5946 0.045607 -0.786871 -0.61543 
0.0815587 -0.890221 -0.448168 -0.175241 -0.443773 -0.878838 0.213088 -0.81876 -0.533128 
0.412816 -0.877487 -0.244132 0.410144 -0.81637 -0.406597 0.609237 -0.792747 0.019574 
0.564523 -0.795629 0.219747 0.612622 -0.54042 0.57675 -0.46515 0.500912 -0.729878 
0.70828 -0.292649 0.642414 -0.351726 0.780565 -0.516728 -0.0802156 0.972049 0.220649 
-0.237903 0.964836 0.111774 0.231168 0.869827 0.435847 0.502329 0.444728 0.741541 
-0.0616087 -0.36292 -0.929781 -0.239332 -0.204846 -0.949083 0.105995 -0.580552 -0.807294 
0.0268271 -0.776346 -0.629735 0.184001 -0.817837 -0.54524 0.160212 -0.94396 -0.28857 
0.380042 -0.923264 -0.0561365 0.371786 -0.894294 -0.249025 0.449903 -0.89307 -0.00364309 
-0.329493 0.0422792 -0.943211 0.557258 -0.766447 0.319409 0.534138 -0.72674 0.43191 
0.51498 -0.456215 0.725715 0.526615 -0.541673 0.655185 0.45242 -0.327553 0.829473 
0.564254 -0.538029 0.626213 0.566949 -0.281373 0.774208 0.0352417 0.975464 0.217321 
0.192353 0.811115 0.552352 0.0153451 0.890715 0.454302 0.417196 0.573019 0.705405 
-0.197415 0.920136 -0.338197 -0.228581 0.884343 -0.407047 0.03409 -0.525939 -0.849839 
-0.159647 -0.54582 -0.822553 0.260378 -0.761274 -0.593856 -0.169735 -0.417941 -0.892477 
-0.0552643 -0.510631 -0.858022 -0.313498 -0.209046 -0.926293 0.359844 -0.306522 -0.881224 
-0.137511 -0.150073 -0.979065 0.417314 -0.905452 0.0774926 0.424436 -0.863561 0.272244 
0.497493 -0.733535 0.463064 0.546959 -0.602993 0.58072 -0.450466 0.43152 -0.781582 
0.420548 -0.18555 0.888094 -0.407615 0.626474 -0.664365 -0.376727 0.482192 -0.790928 
0.464308 -0.134178 0.875451 0.319258 0.0579642 0.945893 0.375354 0.0267692 0.926495 
-0.334219 0.653141 -0.679489 0.19558 0.494594 0.846832 0.0451263 0.275749 0.96017 
0.344949 -0.197635 0.917579 0.368591 0.217998 0.903669 0.498039 0.822298 0.275286 
0.383372 -0.319613 0.86653 -0.717742 0.217018 -0.661627 0.524377 -0.113435 0.843897 
0.55238 -0.0255604 0.8332 -0.0404687 0.943421 0.329119 -0.35196 0.902976 0.246492 
0.0632571 0.901849 0.427395 -0.0823773 -0.466998 -0.880413 0.02004 -0.722081 -0.691518 
-0.292874 -0.390694 -0.872687 -0.310383 -0.141547 -0.940014 0.299453 -0.820632 -0.486715 
0.390191 -0.906015 -0.163976 0.439384 -0.861448 0.254655 0.394584 -0.918852 -0.00374928 
0.578839 -0.794901 0.181873 0.549071 -0.749403 0.370022 0.458498 -0.808932 0.36798 
0.43254 -0.499711 0.750465 -0.424658 0.179138 -0.887455 0.425624 -0.469564 0.773533 
-0.334944 0.751089 -0.568927 0.326224 -0.111875 0.938649 0.116281 0.206099 0.971598 
-0.192294 0.492438 -0.848839 -0.0228912 0.994423 -0.102948 0.422141 0.32541 0.846112 
0.492634 0.27751 0.824803 -0.185351 0.935596 -0.300507 -0.110442 0.804567 0.583502 
-0.338818 0.0115757 -0.940781 -0.243855 0.842439 -0.48045 -0.0222433 0.999741 -0.00470186 
0.0132161 -0.700076 -0.713946 0.279855 -0.821442 -0.496904 0.466252 -0.834564 -0.293448 
0.455844 -0.810907 -0.366927 0.674694 -0.733233 -0.0845966 -0.30422 -0.00675173 -0.952578 
0.425107 -0.685613 0.590947 0.45609 -0.417728 0.785802 0.40309 -0.315309 0.859127 
0.44367 -0.00743167 0.89616 -0.454609 0.642664 -0.616696 -0.264999 0.00159958 -0.964247 
-0.254016 -0.0136021 -0.967104 -0.244995 -0.00153796 -0.969523 -0.330862 0.00275268 -0.943675 
-0.288621 -0.00987337 -0.957392 -0.325571 -0.0115887 -0.945447 -0.409363 0.774725 -0.481895 
-0.256709 0.00955648 -0.966441 0.298662 -0.0175863 0.954197 0.0414712 0.708188 0.704805 
0.22338 0.560979 0.797122 -0.0383934 0.992938 -0.112249 0.0277179 0.998742 0.0417943 
-0.0702552 -0.725542 -0.684582 -0.263211 -0.430888 -0.863166 0.237804 -0.717555 -0.654648 
0.412124 -0.865669 -0.284202 0.567338 -0.781242 -0.260364 0.562635 -0.781619 0.269281 
0.57306 -0.818404 0.0426227 -0.531075 -0.028488 -0.846846 0.44267 -0.884387 0.147996 
-0.450552 0.140805 -0.881577 0.484053 -0.105214 0.86869 0.256668 0 0.9665 
0.261103 0.00209363 0.965309 0.242536 0 0.970143 -0.265557 -0.0175188 -0.963936 
-0.258288 -0.0198877 -0.965863 -0.247449 -0.0349922 -0.968269 0.323707 -0.00303989 0.946152 
0.266404 -0.00184085 0.96386 0.227115 0.869663 0.438298 -0.2703 -0.00500031 -0.962763 
-0.274265 -0.00173936 -0.961653 0.254315 -0.00103618 0.967121 -0.291784 0.927059 -0.235424 
-0.0851564 0.982002 -0.168581 -0.212824 0.872073 -0.440676 -0.0244305 -0.597362 -0.8016 
0.176281 -0.67026 -0.720886 0.317331 -0.826509 -0.464957 0.572155 -0.72899 -0.375783 
0.639867 -0.739161 -0.210263 0.309293 -0.814969 -0.490064 0.6491 -0.760703 0.000388973 
0.515168 -0.856777 0.0231393 0.577524 -0.782484 0.232778 0.507677 -0.696934 0.506505 
0.483011 -0.5629 0.670704 -0.479687 0.324251 -0.815329 -0.206748 -0.311375 -0.927524 
-0.433334 -0.754352 0.493127 -0.996837 0.00803561 -0.0790707 0.291625 0.319754 -0.901506 
0.468021 -0.716225 -0.517667 0.265603 0.0125166 0.964001 0.997654 0.0541105 0.0419429 
0.268399 0.0138717 0.963208 0.247576 0.0226247 0.968604 0.290306 0.801394 0.522963 
0.416479 0.433344 0.799224 -0.348002 0.762347 -0.545639 0.219216 0.797287 0.562386 
-0.219889 0.975405 -0.0153084 0.21546 0.920893 0.324859 -0.311268 0.870638 -0.380921 
0.270559 -0.649601 -0.710504 0.433168 -0.846457 -0.309638 0.580538 -0.746957 -0.324086 
0.506175 -0.813788 -0.285546 0.658938 -0.616492 0.430974 -0.523176 0.792942 -0.312298 
-0.650137 0.715608 -0.255397 -0.613976 -0.21647 -0.759062 0.447065 -0.757489 -0.475756 
0.71416 -0.638732 0.286352 0.638415 -0.738676 0.216296 0.610734 -0.750996 0.251016 
0.636086 -0.613404 0.468113 0.450103 -0.48265 0.751303 0.467038 -0.056232 0.882447 
0.52325 0.171423 0.83476 -0.335167 0.308803 0.890115 0.233104 -0.296964 0.925999 
0.181189 0.88641 0.425967 -0.119424 0.986975 -0.107791 -0.265009 0.950579 -0.161772 
0.365885 -0.880353 -0.301839 0.494697 -0.868966 -0.0131636 0.624796 -0.646207 0.438232 
-0.815933 0.467402 -0.340278 0.621441 -0.601695 0.501772 0.61972 -0.49208 0.611396 
0.472654 -0.0965155 0.875947 0.386754 0.344145 0.855561 -0.345994 0.920869 -0.179691 
-0.358532 0.863778 -0.354037 0.36556 0.625655 0.689146 0.0951031 0.927977 0.360296 
0.0217554 -0.715519 -0.698254 0.0312767 -0.628588 -0.777109 0.263222 -0.783008 -0.563572 
0.170385 -0.648031 -0.74231 0.515955 -0.767329 -0.380785 0.020765 -0.622975 -0.781966 
0.335401 -0.716515 -0.611647 0.430347 -0.856505 -0.284958 0.546782 -0.801299 0.242796 
-0.379849 0.830204 -0.408015 -0.49532 0.85792 -0.136495 -0.22675 0.973945 -0.00389485 
-0.194941 0.978931 -0.0607549 -0.11536 0.973379 0.198056 0.131326 0.829838 0.54233 
-0.186306 -0.590217 -0.785452 0.159707 -0.803255 -0.573825 0.456727 -0.870034 -0.185584 
0.660481 -0.733546 0.160234 0.521232 -0.846932 0.104993 0.646643 -0.610978 0.456682 
0.526286 -0.0510438 0.848774 -0.414329 0.738841 -0.531456 0.497842 0.128114 0.857753 
0.485948 0.101253 0.868103 -0.537499 0.842798 -0.0280436 -0.41746 0.908486 0.0195029 
-0.200178 0.976635 -0.0781802 0.0297669 0.903447 0.427665 0.257437 0.637 0.726607 
-0.225481 -0.602614 -0.765516 -0.00100514 -0.822001 -0.569485 0.332976 -0.904649 -0.265963 
0.102803 -0.794052 -0.599094 0.311245 -0.89585 -0.317143 -0.367703 -0.230257 -0.900986 
0.327309 -0.878026 -0.349197 0.393378 -0.81951 -0.416721 0.450512 -0.823677 -0.344376 
0.555869 -0.824438 -0.106353 0.654189 -0.728995 0.201503 0.615795 -0.741159 0.267357 
0.602472 -0.388623 0.697137 -0.519243 0.418779 -0.74499 -0.415661 0.692951 -0.589106 
-0.422154 0.786099 -0.45148 0.380675 0.219082 0.898381 0.417991 0.317386 0.851205 
0.257072 0.354819 0.898898 -0.319835 0.886036 -0.335627 -0.334944 0.90401 -0.265666 
-0.12644 -0.70901 -0.69377 0.069245 -0.850591 -0.521248 0.422646 -0.900485 -0.102455 
0.650951 -0.73269 0.198566 0.641215 -0.540457 0.544746 -0.428785 0.371743 -0.823378 
-0.525508 0.640307 -0.560222 0.432446 -0.204986 0.87805 -0.41055 0.726523 -0.55101 
-0.264091 0.961138 -0.0804291 -0.152331 0.965313 0.212052 -0.054209 0.905966 0.419865 
0.243436 0.731737 0.636631 0.250342 0.520207 0.816525 0.127556 0.881497 0.454634 
0.0655333 -0.874199 -0.481125 0.375169 -0.894879 -0.241745 0.32444 -0.924641 -0.199445 
0.48026 -0.865827 -0.140333 0.467095 -0.883005 0.0460906 0.688209 -0.554942 0.46734 
0.699738 -0.417216 0.579912 0.390271 0.116929 0.913245 -0.0270673 0.94659 0.321301 
0.225363 0.632872 0.740733 -0.198405 0.974632 -0.103573 -0.201503 0.975979 0.0828379 
0.222522 -0.972133 0.0737719 0.231922 -0.970331 -0.0683305 0.365439 -0.929119 -0.0565033 
0.303465 -0.952563 0.0230557 0.59061 -0.782164 0.198493 -0.393224 -0.410658 -0.822639 
0.0877883 -0.991892 -0.0918877 0.167088 -0.906289 -0.38823 -0.527472 -0.0371501 -0.84876 
-0.548702 0.344159 -0.761893 0.0512327 0.855975 0.514473 -0.26034 0.96472 -0.0392246 
-0.00765658 0.999598 0.0273033 -0.248882 -0.636509 -0.730009 -0.0148083 -0.793098 -0.608914 
0.438092 -0.824264 0.358697 0.424433 -0.870238 0.250084 0.0591572 -0.92969 -0.363562 
-0.457874 0.885372 -0.0804282 -0.0920093 0.880507 0.465018 -0.0580256 0.998273 0.00918783 
0.355381 0.259757 0.897904 -0.311249 0.889584 -0.334312 0.285185 0.605139 0.743288 
0.157342 0.860794 0.484022 0.388904 -0.911472 0.134061 0.577487 -0.314382 0.753441 
-0.549137 0.291524 -0.783239 -0.540801 0.69361 -0.475856 -0.399039 0.899538 -0.177764 
0.28552 0.286996 0.914391 0.243369 0.528844 0.813078 -0.257818 0.913194 0.315605 
0.195352 0.615935 0.763192 0.381198 0.414573 0.826328 -0.0621516 0.845145 0.530912 
-0.097066 -0.558227 -0.823991 -0.248627 -0.338438 -0.907549 -0.142843 -0.446367 -0.883376 
0.349064 -0.933734 -0.0793452 0.102213 -0.910711 -0.400197 0.526195 -0.653455 0.544164 
0.480403 -0.224034 0.847951 0.0249818 0.716008 0.697645 0.0101286 0.694851 0.719083 
-0.268251 -0.671241 -0.690997 -0.214494 -0.650209 -0.728849 0.330438 -0.940831 0.075148 
0.287769 -0.953259 0.0921179 0.405509 -0.764874 0.500531 -0.33628 -0.248589 -0.90836 
0.0372938 -0.857415 -0.513273 0.480297 -0.624596 0.615787 0.433635 -0.360209 0.82596 
0.428539 -0.0968649 0.898316 -0.660549 0.564979 -0.494443 0.435047 0.0974721 0.895117 
-0.287251 0.734723 0.614548 -0.224582 0.745694 0.627299 -0.495553 0.868238 0.0242863 
-0.254772 0.918717 0.301744 -0.189299 0.9602 0.205383 0.0464277 0.511024 0.858312 
-0.300503 -0.498472 -0.813157 -0.0190827 -0.827224 -0.561549 0.0110013 -0.922548 -0.385724 
-0.255357 -0.528206 -0.809809 0.145077 -0.886354 -0.439693 -0.466034 -0.288974 -0.836245 
0.218828 -0.278216 0.93526 -0.570109 0.556114 -0.604742 -0.631347 0.709129 -0.313905 
0.321174 0.347553 0.880939 -0.476738 0.819339 0.31844 0.00293852 0.752366 0.658738 
-0.141924 0.965043 0.220338 0.136062 0.717564 0.683073 -0.117951 -0.688558 -0.715524 
-0.24954 -0.540852 -0.803249 -0.423471 -0.357976 -0.832181 0.0513122 -0.870413 -0.489641 
0.226697 -0.942656 -0.244966 -0.338376 -0.34997 -0.873512 0.52917 -0.573306 0.625539 
0.450802 -0.553208 0.700527 -0.486729 -0.028931 -0.873074 0.499495 -0.477141 0.723077 
0.143493 -0.244359 0.959009 -0.62542 0.599762 -0.499134 -0.621891 0.737072 -0.264532 
0.441064 -0.0742979 0.894395 0.348715 0.2287 0.908897 -0.512294 0.719403 -0.469057 
-0.467985 0.850133 -0.241381 -0.592211 0.736428 -0.327048 -0.621337 0.75816 -0.197823 
-0.00928483 0.616261 0.787487 0.0304313 0.675311 0.736905 -0.32472 -0.590228 -0.739045 
0.235558 -0.910027 -0.341121 0.224422 -0.908982 -0.351263 0.312144 -0.947225 0.073016 
0.558254 -0.583827 0.58949 -0.43282 0.547449 -0.716217 -0.405925 0.545258 -0.73343 
-0.541819 0.624008 -0.563069 0.357054 -0.0431883 0.933085 -0.0130113 0.627649 0.778388 
0.201963 0.484599 0.851102 -0.0107064 -0.832633 -0.553722 0.274238 -0.957573 -0.0885883 
0.417203 -0.882174 -0.218427 0.472072 -0.865448 0.167774 -0.507565 0.343026 -0.790387 
-0.66857 0.598599 -0.44124 -0.404403 0.641358 -0.652011 -0.495593 0.864687 -0.0818737 
0.276781 0.267555 0.922934 -0.558409 0.801364 0.214466 -0.382254 0.876104 0.293809 
-0.0211343 0.666561 0.74515 0.256223 0.375926 0.890522 -0.157696 -0.849689 -0.503151 
0.642428 -0.746019 0.175335 -0.347922 -0.569833 -0.744474 0.406424 0.0971993 0.9085 
-0.73596 0.644272 -0.20803 -0.48701 0.819207 -0.302856 -0.601938 0.795842 -0.0656249 
-0.470986 0.867649 -0.159241 0.239018 0.29592 0.924825 0.214658 -0.0336889 0.976108 
-0.470885 0.686781 0.553714 -0.17105 0.675153 0.717573 0.0308277 0.546235 0.837065 
0.19957 0.407044 0.89134 0.0764912 -0.966374 -0.245501 0.263414 -0.961917 0.0729977 
-0.0689321 -0.932009 -0.355819 0.59672 -0.713591 0.367033 0.533907 -0.259291 0.804805 
-0.561515 0.67084 -0.484432 0.382184 0.200709 0.902026 -0.481889 0.874075 0.0614548 
-0.209488 0.894237 0.395544 -0.26373 0.940235 0.215418 -0.253668 0.835762 0.486985 
-0.234637 0.603757 0.761855 -0.0340342 0.507455 0.861006 0.0364431 -0.999307 0.00760794 
0.478746 -0.795221 0.372057 0.446025 -0.686753 0.573962 -0.115117 -0.840925 -0.528766 
0.410175 -0.864908 0.289292 0.603954 -0.464369 0.647766 -0.617124 0.270523 -0.738901 
-0.52699 0.656334 -0.539914 0.346377 0.194441 0.917723 -0.41653 0.901694 -0.115975 
-0.195926 0.928347 0.315888 -0.381224 0.919605 0.0948379 -0.091035 0.826397 0.55568 
0.0344003 0.63437 0.772264 0.108227 0.427949 0.8973 0.213329 0.437451 0.873572 
-0.0961854 0.749344 0.655158 0.217985 -0.97386 0.0638733 0.081823 -0.968999 0.23312 
-0.324568 -0.575924 -0.750311 -0.112302 -0.829905 -0.546485 -0.0635351 -0.87757 -0.47522 
-0.395128 -0.584635 -0.708573 -0.561189 -0.367174 -0.741788 -0.509978 -0.293828 -0.808448 
-0.523117 -0.055635 -0.850443 -0.581927 0.524213 -0.621741 -0.611881 0.642534 -0.46125 
-0.386085 0.918557 0.0848033 -0.463726 0.866299 -0.185697 -0.150071 0.881467 0.447766 
0.0677103 0.682914 0.727354 0.0679339 0.663174 0.745376 -0.0395877 0.664941 0.745846 
0.135779 0.58333 0.800806 0.410739 -0.760601 0.502772 -0.485444 -0.508048 -0.711499 