# vtk DataFile Version 4.2
vtk output
ASCII
DATASET POLYDATA
POINTS 2628 float
226.216 189.435 49.435 227.223 190.029 49.2724 226.992 189.984 49.3149 
228.01 190.39 49.1385 227.713 190.37 49.2078 228.152 190.465 49.1126 
228.238 190.508 49.1035 227.872 190.443 49.1992 228.051 190.482 49.1471 
228.279 190.538 49.0981 228.287 190.548 49.1032 228.027 190.483 49.1727 
228.213 190.531 49.126 220.962 185.778 50.6211 221.124 185.939 50.5885 
222.95 187.365 50.1847 222.317 187.175 50.2409 223.947 187.892 49.945 
224.35 188.253 49.8031 224.607 188.343 49.7849 225.066 188.645 49.7203 
225.759 189.076 49.516 226.681 189.736 49.372 226.774 189.745 49.4034 
225.454 189.412 49.5931 227.928 190.349 49.1689 225.164 189.591 49.7258 
226.778 190.027 49.3897 228.117 190.443 49.1291 227.551 190.348 49.2695 
228.27 190.53 49.1064 226.489 190.11 49.5779 227.147 190.257 49.4076 
216.827 183.366 51.487 217.192 183.471 51.4498 218.373 184.287 51.0975 
218.954 184.519 51.0435 218.452 184.152 51.1949 217.62 184.28 51.1258 
219.859 185.008 50.944 220.705 185.587 50.7966 221.078 185.865 50.7224 
221.359 186.126 50.6102 222.245 186.867 50.4696 224.143 187.995 49.9299 
224.122 187.995 49.9871 224.485 188.238 49.874 227.076 189.943 49.3914 
227.617 190.206 49.2485 227.614 190.333 49.312 223.389 189.693 50.5305 
223.954 189.775 50.2912 224.509 189.851 50.1906 225.887 189.996 49.8136 
226.665 190.126 49.5839 224.044 189.852 50.3161 215.346 182.871 51.9057 
215.363 182.635 52.0984 216.875 183.157 51.7361 216.87 183.201 51.6175 
217.295 183.352 51.615 216.581 183.17 51.6248 218.671 184.19 51.3176 
219.102 184.5 51.2803 216.83 185.563 51.3086 222.562 187.194 50.6261 
223.23 187.73 50.5288 221.109 189.236 51.0946 220.616 189.299 51.4279 
221.471 189.399 51.2305 222.24 189.498 51.0497 223.805 189.736 50.4927 
224.1 189.849 50.3286 212.239 180.924 53.1645 212.734 181.146 53.0706 
213.534 181.791 52.6523 214.559 182.154 52.5158 216.533 183.045 51.7599 
216.202 182.919 52.0248 218.036 183.891 51.648 212.828 184.364 52.5437 
220.023 185.962 51.7271 222.199 187.833 51.1984 222.232 189.223 51.283 
223.935 189.305 50.6202 221.738 189.387 51.3293 221.06 189.298 51.5919 
221.366 189.274 51.5532 223.219 189.539 50.7952 208.11 178.766 54.5241 
209.111 179.147 54.2681 208.84 179.54 54.0388 210.09 179.748 53.9048 
208.906 180.348 53.8156 210.263 180.33 53.5584 212.97 181.249 53.1226 
213.601 181.632 53.0072 215.9 183.104 52.6695 217.7 184.697 52.5419 
211.958 184.824 52.9857 218.276 186.933 53.0639 220.241 187.436 52.1215 
221.09 188.582 51.8228 216.209 189.122 53.5573 218.978 189.124 52.4217 
205.966 177.8 55.4223 207.172 178.236 54.9975 208.179 178.656 54.6885 
210.836 179.918 53.8818 210.766 179.842 53.9677 210.598 179.776 54.0165 
210.924 179.942 53.9428 210.08 179.609 54.1872 211.14 180.167 53.6562 
211.981 180.656 53.5905 217.706 188.071 53.4623 218.586 188.927 52.7958 
214.311 189.31 54.5161 216.39 189.046 53.7649 217.128 188.945 53.4875 
214.701 189.307 54.4622 203.796 176.429 56.4337 203.881 177.262 55.9838 
205.353 177.384 55.8143 203.981 178.146 55.7988 208.495 178.79 54.8235 
209.529 179.28 54.4283 212.581 189.151 55.2193 215.326 189.174 54.3398 
214.371 189.281 54.7714 201.443 174.919 57.4036 203.105 175.666 56.9079 
202.85 175.455 57.0285 203.534 176.014 56.8503 205.771 177.499 55.9853 
210.7 184.327 56.2649 212.407 187.426 55.9727 210.312 188.501 55.6179 
211.252 189.018 55.7924 211.14 189.084 56.1444 211.993 189.158 55.6775 
212.806 189.203 55.3787 212.325 189.162 55.6959 213.296 189.206 55.2794 
214.087 189.199 54.9993 199.448 173.48 58.5336 199.626 173.558 58.5029 
202.267 175.081 57.3913 203.481 176.048 57.2275 202.339 180.215 56.8198 
208.902 185.509 57.437 212.656 188.977 55.6928 211.952 189.007 56.0367 
210.757 188.983 56.5037 198.631 173.07 58.9279 200.154 173.977 58.2581 
200.666 174.185 58.2656 199.53 174.034 58.3079 201.365 174.613 58.0493 
202.884 183.635 57.6046 203.816 186.47 58.2691 205.375 187.98 58.1512 
209.62 188.529 57.2607 208.022 188.698 57.2552 210.065 188.826 56.935 
209.234 188.991 57.2717 211.568 188.902 56.2602 207.983 188.855 57.6899 
208.734 189.021 57.4527 208.446 188.966 57.6489 208.959 189.13 57.4869 
208.862 189.106 57.5297 199.241 173.164 59.1378 208.053 188.715 57.8953 
208.827 188.802 57.5749 205.401 188.586 58.889 205.887 188.663 58.761 
206.112 188.704 58.5162 206.858 188.761 58.2328 194.777 170.898 60.9111 
195.387 170.915 60.8755 195.947 171.23 60.6435 196.493 171.557 60.5152 
195.358 171.477 60.5216 199.43 173.747 59.5835 198.554 180.661 59.8491 
200.294 183.215 60.1808 200.736 183.844 60.037 200.715 183.482 59.628 
201.156 183.441 59.0352 200.822 184.281 60.1071 202.735 187.644 59.9029 
203.216 188.013 59.7983 204.597 188.409 59.2925 205.293 188.472 59.093 
194.289 170.37 61.3755 193.915 170.078 61.7452 195.227 170.722 61.1134 
194.866 170.512 61.371 195.719 171.042 60.9281 196.091 171.339 60.935 
198.441 175.745 61.0569 198.02 181.453 60.9651 198.995 182.109 60.6112 
199.521 182.521 60.3471 199.473 182.563 60.5248 200.706 183.01 60.3116 
200.285 183.108 60.4046 199.949 183.107 60.3878 200.397 183.678 60.3186 
200.25 183.651 60.4031 200.78 183.595 60.2066 200.473 183.712 60.3455 
201.353 183.773 60.2099 200.62 184.237 60.2946 200.473 184.191 60.4105 
200.852 184.083 60.2602 200.669 184.85 60.4081 200.584 185.516 60.6122 
202.498 186.445 60.2236 200.873 186.372 60.6856 201.121 186.772 60.6652 
203.159 187.24 60.0427 203.384 187.615 59.9511 202.073 187.414 60.3298 
202.862 187.808 59.993 203.48 188.187 59.7316 203.291 188.056 59.8518 
204.539 188.221 59.4594 204.163 188.265 59.5739 203.663 188.244 59.693 
203.949 188.283 59.6126 191.043 169.091 62.7724 193.396 169.788 62.2362 
195.986 171.487 61.2659 194.923 180.63 62.5917 195.607 181.32 62.346 
198.417 181.07 61.1379 197.443 181.121 61.5466 196.484 181.674 61.8227 
197.04 181.546 61.4736 199.133 182.082 60.7342 197.191 181.899 61.6467 
196.237 182.34 62.2496 196.667 182.693 62.0839 197.063 182.529 61.7908 
197.176 182.784 61.8403 199.816 182.961 60.5181 199.843 182.653 60.5737 
197.043 183.166 61.9897 197.447 183.632 61.8728 197.46 183.539 61.8495 
200.301 183.664 60.4488 197.619 184.381 61.9731 197.875 184.237 61.7959 
198.175 184.618 61.7285 200.573 184.491 60.4614 198.949 185.284 61.4827 
200.699 185.214 60.582 197.911 185.215 62.0216 198.658 185.641 61.7296 
200.021 185.714 61.0255 201.034 186.033 60.6517 200.323 186.151 60.9802 
199.194 185.98 61.5298 199.671 186.33 61.3646 200.325 186.358 61.0056 
201.29 186.654 60.6298 200.495 186.502 60.9635 199.9 186.522 61.2931 
200.905 186.803 60.8321 201.856 187.122 60.4749 201.086 187.125 60.8223 
200.492 186.882 61.0653 200.569 187.01 61.0679 203 187.747 60.0338 
200.702 187.131 61.0321 200.737 187.167 61.0264 203.523 188.123 59.802 
189.865 167.892 63.7087 189.334 167.84 63.8902 190.482 167.937 63.6284 
191.117 168.155 63.4936 189.363 168.071 63.7418 191.384 168.321 63.3693 
189.761 168.742 63.3758 196.33 173.987 62.0128 195.368 180.273 62.5868 
194.845 180.507 62.8278 193.967 180.655 63.2092 194.992 181.232 62.7319 
194.938 181.391 62.8117 195.63 181.092 62.4177 195.114 181.178 62.6836 
195.378 181.931 62.6743 195.576 181.614 62.4922 195.694 182.432 62.5929 
195.973 182.55 62.4471 196.721 182.664 62.078 196.122 182.796 62.4244 
195.979 182.888 62.5257 196.188 183.225 62.4818 196.287 183.231 62.428 
197.32 183.526 61.9385 196.393 183.524 62.4377 196.714 184.004 62.375 
196.692 183.885 62.3587 197.669 184.421 61.9585 197.392 184.585 62.1462 
197.318 185.272 62.3504 198.766 185.685 61.6854 197.479 185.402 62.2967 
197.353 185.537 62.3967 197.325 185.487 62.3992 197.389 185.583 62.3886 
197.351 185.673 62.4314 199.62 186.278 61.3821 197.327 185.651 62.4381 
197.325 185.731 62.4595 197.331 185.736 62.4576 200.087 186.652 61.2276 
200.273 186.747 61.1566 197.326 185.747 62.463 200.603 187.033 61.0603 
188.836 167.63 64.2174 189.678 167.652 64.105 190.268 167.841 63.9103 
190.854 168.06 63.6967 190.584 168.031 63.9527 189.731 171.907 63.278 
190.868 179.411 64.6388 191.519 180.569 64.6574 192.003 181.235 64.4955 
192.829 180.645 63.8045 194.913 181.22 62.8408 192.855 181.055 63.9914 
192.029 181.887 64.6378 192.553 181.486 64.2039 192.593 182.067 64.3404 
195.532 182.128 62.6332 192.617 182.559 64.4198 192.753 182.995 64.4444 
195.864 182.685 62.5519 192.178 183.077 64.8101 192.723 183.506 64.5786 
193.03 183.598 64.4157 196.252 183.306 62.4694 193.115 183.964 64.4526 
193.521 184.546 64.3518 193.44 184.391 64.363 193.435 184.351 64.3552 
196.744 184.086 62.3783 193.853 185.052 64.2818 193.752 184.899 64.3024 
193.741 184.861 64.2995 193.952 185.201 64.261 197.147 184.827 62.3356 
194.016 185.3 64.2478 194.073 185.396 64.239 194.345 185.82 64.1881 
194.289 185.732 64.1989 194.278 185.713 64.2002 194.543 186.128 64.1531 
194.489 186.044 64.1624 194.507 186.072 64.1595 194.613 186.238 64.1411 
194.692 186.361 64.1275 194.66 186.312 64.1327 194.76 186.467 64.1158 
194.737 186.432 64.1198 194.788 186.51 64.1115 194.791 186.515 64.1109 
194.83 186.576 64.1044 194.807 186.541 64.1081 194.842 186.596 64.1024 
194.838 186.589 64.1031 194.855 186.615 64.1004 194.866 186.632 64.0986 
185.884 166.846 65.658 186.704 166.793 65.6009 190.563 173.485 65.0747 
188.578 174.876 65.0264 188.75 175.594 65.4082 189.132 176.277 65.2226 
190.945 180.621 64.9877 192.042 181.139 64.5125 191.04 180.944 65.0593 
190.527 181.221 65.4309 190.968 181.865 65.2912 191.022 181.437 65.1529 
191.148 181.524 65.1061 192.082 181.897 64.6245 191.567 182.159 64.9849 
191.499 183.063 65.2282 192.024 183.59 65.0161 191.955 183.643 65.0707 
192.785 183.519 64.547 192.106 183.624 64.9728 192.111 183.922 65.0361 
192.208 184.004 64.994 192.299 184.272 65.0003 193.381 184.315 64.3798 
192.27 184.254 65.0142 192.391 184.526 65.003 192.345 184.408 65.0036 
[...]
POINT_DATA 2628
SCALARS scalars float
LOOKUP_TABLE default
1 1 1 1 1 1 1 1 1 
1 1 1 1 1 1 1 1 1 
1 1 1 1 1 1 1 1 1 
1 1 1 1 1 1 1 1 1 
1 1 1 1 1 1 1 1 1 
1 1 1 1 1 1 1 1 1 
1 1 1 1 1 1 1 1 1 
1 1 1 1 1 1 1 1 1 
1 1 1 1 1 1 1 1 1 
1 1 1 1 1 1 1 1 1 
1 1 1 1 1 1 1 1 1 
1 1 1 1 1 1 1 1 1 
1 1 1 1 1 1 1 1 1 
1 1 1 1 1 1 1 1 1 
1 1 1 1 1 1 1 1 1 
1 1 1 1 1 1 1 1 1 
1 1 1 1 1 1 1 1 1 
1 1 1 1 1 1 1 1 1 
1 1 1 1 1 1 1 1 1 
1 1 1 1 1 1 1 1 1 
1 1 1 1 1 1 1 1 1 
1 1 1 1 1 1 1 1 1 
1 1 1 1 1 1 1 1 1 
1 1 1 1 1 1 1 1 1 
1 1 1 1 1 1 1 1 1 
1 1 1 1 1 1 1 1 1 
1 1 1 1 1 1 1 1 1 
1 1 1 1 1 1 1 1 1 
1 1 1 1 1 1 1 1 1 
1 1 1 1 1 1 1 1 1 
1 1 1 1 1 1 1 1 1 
1 1 1 1 1 1 1 1 1 
1 1 1 1 1 1 1 1 1 
1 1 1 1 1 1 1 1 1 
1 1 1 1 1 1 1 1 1 
1 1 1 1 1 1 1 1 1 
1 1 1 1 1 1 1 1 1 
1 1 1 1 1 1 1 1 1 
1 1 1 1 1 1 1 1 1 
1 1 1 1 1 1 1 1 1 
1 1 1 1 1 1 1 1 1 
1 1 1 1 1 1 1 1 1 
1 1 1 1 1 1 1 1 1 
1 1 1 1 1 1 1 1 1 
1 1 1 1 1 1 1 1 1 
1 1 1 1 1 1 1 1 1 
1 1 1 1 1 1 1 1 1 
1 1 1 1 1 1 1 1 1 
1 1 1 1 1 1 1 1 1 
1 1 1 1 1 1 1 1 1 
1 1 1 1 1 1 1 1 1 
1 1 1 1 1 1 1 1 1 
1 1 1 1 1 1 1 1 1 
1 1 1 1 1 1 1 1 1 
1 1 1 1 1 1 1 1 1 
1 1 1 1 1 1 1 1 1 
1 1 1 1 1 1 1 1 1 
1 1 1 1 1 1 1 1 1 
1 1 1 1 1 1 1 1 1 
1 1 1 1 1 1 1 1 1 
1 1 1 1 1 1 1 1 1 
1 1 1 1 1 1 1 1 1 
1 1 1 1 1 1 1 1 1 
1 1 1 1 1 1 1 1 1 
1 1 1 1 1 1 1 1 1 
1 1 1 1 1 1 1 1 1 
1 1 1 1 1 1 1 1 1 
1 1 1 1 1 1 1 1 1 
1 1 1 1 1 1 1 1 1 
1 1 1 1 1 1 1 1 1 
1 1 1 1 1 1 1 1 1 
1 1 1 1 1 1 1 1 1 
1 1 1 1 1 1 1 1 1 
1 1 1 1 1 1 1 1 1 
1 1 1 1 1 1 1 1 1 
1 1 1 1 1 1 1 1 1 
1 1 1 1 1 1 1 1 1 
1 1 1 1 1 1 1 1 1 
1 1 1 1 1 1 1 1 1 
1 1 1 1 1 1 1 1 1 
1 1 1 1 1 1 1 1 1 
1 1 1 1 1 1 1 1 1 
1 1 1 1 1 1 1 1 1 
1 1 1 1 1 1 1 1 1 
1 1 1 1 1 1 1 1 1 
1 1 1 1 1 1 1 1 1 
1 1 1 1 1 1 1 1 1 
1 1 1 1 1 1 1 1 1 
1 1 1 1 1 1 1 1 1 
1 1 1 1 1 1 1 1 1 
1 1 1 1 1 1 1 1 1 
1 1 1 1 1 1 1 1 1 
1 1 1 1 1 1 1 1 1 
1 1 1 1 1 1 1 1 1 
1 1 1 1 1 1 1 1 1 
1 1 1 1 1 1 1 1 1 
1 1 1 1 1 1 1 1 1 
1 1 1 1 1 1 1 1 1 
1 1 1 1 1 1 1 1 1 
1 1 1 1 1 1 1 1 1 
1 1 1 1 1 1 1 1 1 
1 1 1 1 1 1 1 1 1 
1 1 1 1 1 1 1 1 1 
1 1 1 1 1 1 1 1 1 
1 1 1 1 1 1 1 1 1 
1 1 1 1 1 1 1 1 1 
1 1 1 1 1 1 1 1 1 
1 1 1 1 1 1 1 1 1 
1 1 1 1 1 1 1 1 1 
1 1 1 1 1 1 1 1 1 
1 1 1 1 1 1 1 1 1 
1 1 1 1 1 1 1 1 1 
1 1 1 1 1 1 1 1 1 
1 1 1 1 1 1 1 1 1 
1 1 1 1 1 1 1 1 1 
1 1 1 1 1 1 1 1 1 
1 1 1 1 1 1 1 1 1 
1 1 1 1 1 1 1 1 1 
1 1 1 1 1 1 1 1 1 
1 1 1 1 1 1 1 1 1 
1 1 1 1 1 1 1 1 1 
1 1 1 1 1 1 1 1 1 
1 1 1 1 1 1 1 1 1 
1 1 1 1 1 1 1 1 1 
1 1 1 1 1 1 1 1 1 
1 1 1 1 1 1 1 1 1 
1 1 1 1 1 1 1 1 1 
1 1 1 1 1 1 1 1 1 
1 1 1 1 1 1 1 1 1 
1 1 1 1 1 1 1 1 1 
1 1 1 1 1 1 1 1 1 
1 1 1 1 1 1 1 1 1 
1 1 1 1 1 1 1 1 1 
1 1 1 1 1 1 1 1 1 
1 1 1 1 1 1 1 1 1 
1 1 1 1 1 1 1 1 1 
1 1 1 1 1 1 1 1 1 
1 1 1 1 1 1 1 1 1 
1 1 1 1 1 1 1 1 1 
1 1 1 1 1 1 1 1 1 
1 1 1 1 1 1 1 1 1 
1 1 1 1 1 1 1 1 1 
1 1 1 1 1 1 1 1 1 
1 1 1 1 1 1 1 1 1 
1 1 1 1 1 1 1 1 1 
1 1 1 1 1 1 1 1 1 
1 1 1 1 1 1 1 1 1 
1 1 1 1 1 1 1 1 1 
1 1 1 1 1 1 1 1 1 
1 1 1 1 1 1 1 1 1 
1 1 1 1 1 1 1 1 1 
1 1 1 1 1 1 1 1 1 
1 1 1 1 1 1 1 1 1 
1 1 1 1 1 1 1 1 1 
1 1 1 1 1 1 1 1 1 
1 1 1 1 1 1 1 1 1 
1 1 1 1 1 1 1 1 1 
1 1 1 1 1 1 1 1 1 
1 1 1 1 1 1 1 1 1 
1 1 1 1 1 1 1 1 1 
1 1 1 1 1 1 1 1 1 
1 1 1 1 1 1 1 1 1 
1 1 1 1 1 1 1 1 1 
1 1 1 1 1 1 1 1 1 
1 1 1 1 1 1 1 1 1 
1 1 1 1 1 1 1 1 1 
1 1 1 1 1 1 1 1 1 
1 1 1 1 1 1 1 1 1 
1 1 1 1 1 1 1 1 1 
1 1 1 1 1 1 1 1 1 
1 1 1 1 1 1 1 1 1 
1 1 1 1 1 1 1 1 1 
1 1 1 1 1 1 1 1 1 
1 1 1 1 1 1 1 1 1 
1 1 1 1 1 1 1 1 1 
1 1 1 1 1 1 1 1 1 
1 1 1 1 1 1 1 1 1 
1 1 1 1 1 1 1 1 1 
1 1 1 1 1 1 1 1 1 
1 1 1 1 1 1 1 1 1 
1 1 1 1 1 1 1 1 1 
1 1 1 1 1 1 1 1 1 
1 1 1 1 1 1 1 1 1 
1 1 1 1 1 1 1 1 1 
1 1 1 1 1 1 1 1 1 
1 1 1 1 1 1 1 1 1 
1 1 1 1 1 1 1 1 1 
1 1 1 1 1 1 1 1 1 
1 1 1 1 1 1 1 1 1 
1 1 1 1 1 1 1 1 1 
1 1 1 1 1 1 1 1 1 
1 1 1 1 1 1 1 1 1 
1 1 1 1 1 1 1 1 1 
1 1 1 1 1 1 1 1 1 
1 1 1 1 1 1 1 1 1 
1 1 1 1 1 1 1 1 1 
1 1 1 1 1 1 1 1 1 
1 1 1 1 1 1 1 1 1 
1 1 1 1 1 1 1 1 1 
1 1 1 1 1 1 1 1 1 
1 1 1 1 1 1 1 1 1 
1 1 1 1 1 1 1 1 1 
1 1 1 1 1 1 1 1 1 
1 1 1 1 1 1 1 1 1 
1 1 1 1 1 1 1 1 1 
1 1 1 1 1 1 1 1 1 
1 1 1 1 1 1 1 1 1 
1 1 1 1 1 1 1 1 1 
1 1 1 1 1 1 1 1 1 
1 1 1 1 1 1 1 1 1 
1 1 1 1 1 1 1 1 1 
1 1 1 1 1 1 1 1 1 
1 1 1 1 1 1 1 1 1 
1 1 1 1 1 1 1 1 1 
1 1 1 1 1 1 1 1 1 
1 1 1 1 1 1 1 1 1 
1 1 1 1 1 1 1 1 1 
1 1 1 1 1 1 1 1 1 
1 1 1 1 1 1 1 1 1 
1 1 1 1 1 1 1 1 1 
1 1 1 1 1 1 1 1 1 
1 1 1 1 1 1 1 1 1 
1 1 1 1 1 1 1 1 1 
1 1 1 1 1 1 1 1 1 
1 1 1 1 1 1 1 1 1 
1 1 1 1 1 1 1 1 1 
1 1 1 1 1 1 1 1 1 
1 1 1 1 1 1 1 1 1 
1 1 1 1 1 1 1 1 1 
1 1 1 1 1 1 1 1 1 
1 1 1 1 1 1 1 1 1 
1 1 1 1 1 1 1 1 1 
1 1 1 1 1 1 1 1 1 
1 1 1 1 1 1 1 1 1 
1 1 1 1 1 1 1 1 1 
1 1 1 1 1 1 1 1 1 
1 1 1 1 1 1 1 1 1 
1 1 1 1 1 1 1 1 1 
1 1 1 1 1 1 1 1 1 
1 1 1 1 1 1 1 1 1 
1 1 1 1 1 1 1 1 1 
1 1 1 1 1 1 1 1 1 
1 1 1 1 1 1 1 1 1 
1 1 1 1 1 1 1 1 1 
1 1 1 1 1 1 1 1 1 
1 1 1 1 1 1 1 1 1 
1 1 1 1 1 1 1 1 1 
1 1 1 1 1 1 1 1 1 
1 1 1 1 1 1 1 1 1 
1 1 1 1 1 1 1 1 1 
1 1 1 1 1 1 1 1 1 
1 1 1 1 1 1 1 1 1 
1 1 1 1 1 1 1 1 1 
1 1 1 1 1 1 1 1 1 
1 1 1 1 1 1 1 1 1 
1 1 1 1 1 1 1 1 1 
1 1 1 1 1 1 1 1 1 
1 1 1 1 1 1 1 1 1 
1 1 1 1 1 1 1 1 1 
1 1 1 1 1 1 1 1 1 
1 1 1 1 1 1 1 1 1 
1 1 1 1 1 1 1 1 1 
1 1 1 1 1 1 1 1 1 
1 1 1 1 1 1 1 1 1 
1 1 1 1 1 1 1 1 1 
1 1 1 1 1 1 1 1 1 
1 1 1 1 1 1 1 1 1 
1 1 1 1 1 1 1 1 1 
1 1 1 1 1 1 1 1 1 
1 1 1 1 1 1 1 1 1 
1 1 1 1 1 1 1 1 1 
1 1 1 1 1 1 1 1 1 
1 1 1 1 1 1 1 1 1 
1 1 1 1 1 1 1 1 1 
1 1 1 1 1 1 1 1 1 
1 1 1 1 1 1 1 1 1 
1 1 1 1 1 1 1 1 1 
1 1 1 1 1 1 1 1 1 
1 1 1 1 1 1 1 1 1 
1 1 1 1 1 1 1 1 1 
1 1 1 1 1 1 1 1 1 
1 1 1 1 1 1 1 1 1 
1 1 1 1 1 1 1 1 1 
1 1 1 1 1 1 1 1 1 
1 1 1 1 1 1 1 1 1 
1 1 1 1 1 1 1 1 1 
1 1 1 1 1 1 1 1 1 
1 1 1 1 1 1 1 1 1 
1 1 1 1 1 1 1 1 1 
1 1 1 1 1 1 1 1 1 
1 1 1 1 1 1 1 1 1 
1 1 1 1 1 1 1 1 1 

NORMALS Normals float
-0.139442 0.025799 -0.989894 -0.142305 -0.0250311 -0.989506 -0.165651 0.067881 -0.983846 
0.274135 -0.762717 -0.585759 -0.308025 0.391727 -0.866989 -0.00413382 -0.250949 -0.967992 
0.462447 -0.824911 -0.325061 -0.317885 0.893274 -0.317822 -0.319789 0.684888 -0.654724 
0.24381 -0.244751 -0.938431 -0.319887 0.754584 -0.572952 -0.18268 0.953298 0.240521 
0.0125059 0.74876 0.662723 0.556658 -0.748687 -0.360001 0.66852 -0.733941 -0.120048 
0.176705 -0.658715 -0.731348 0.160866 -0.457104 -0.874744 0.257886 -0.660623 -0.705034 
-0.0174819 -0.301107 -0.95343 0.308876 -0.655206 -0.689421 0.562267 -0.820336 0.104423 
0.146976 -0.598944 -0.787188 0.115331 -0.410066 -0.904735 0.458869 -0.854395 -0.243821 
-0.337603 0.0245089 -0.94097 0.464703 -0.842615 0.272123 -0.32622 0.265705 -0.907183 
-0.284118 0.357161 -0.889783 0.477051 -0.872007 0.10966 -0.34041 0.786744 -0.514932 
0.522186 -0.577944 0.627138 -0.235812 0.949551 -0.206751 -0.219319 0.973994 0.0568744 
-0.17315 -0.318956 -0.931819 0.116821 -0.579271 -0.806721 -0.00761803 -0.276481 -0.960989 
0.229167 -0.586696 -0.776705 0.204587 -0.656451 -0.726096 -0.0770091 -0.273883 -0.958675 
0.340903 -0.697755 -0.630018 0.627573 -0.742029 0.235682 0.636141 -0.764596 0.103521 
0.532077 -0.724865 -0.437568 0.563124 -0.823768 0.0655559 0.46597 -0.873581 -0.140459 
0.523261 -0.775646 0.352945 0.586704 -0.809788 0.00468881 0.514113 -0.669209 0.536513 
0.467163 -0.68799 0.555364 0.335352 -0.042488 0.941135 -0.301605 0.878603 -0.370259 
-0.294489 0.733624 -0.612431 -0.0255018 0.998997 0.0368182 0.0262164 0.881882 0.470741 
-0.00534009 0.813549 0.581472 -0.168364 0.98084 -0.0980087 -0.14642 -0.363182 -0.920141 
0.152852 -0.803758 -0.574986 0.368762 -0.927477 -0.0616546 0.192412 -0.78508 -0.588751 
0.465647 -0.883849 -0.044545 -0.0564064 -0.537061 -0.841656 0.519709 -0.846604 -0.114737 
0.586618 -0.721173 0.368495 -0.298515 0.103843 -0.948739 0.45752 -0.615541 0.641705 
0.52945 -0.542213 0.652447 -0.308527 0.726739 -0.613728 -0.1932 0.934111 -0.300183 
-0.106507 0.994037 -0.0233812 0.0988077 0.840731 0.532361 0.11301 0.741883 0.660937 
0.0895839 0.851864 0.516045 0.251895 -0.762804 -0.595549 0.257912 -0.763707 -0.591805 
-0.0685257 -0.447361 -0.891724 0.292433 -0.851998 -0.43426 0.214757 -0.899677 -0.38008 
0.41415 -0.907267 0.0731166 0.534692 -0.535995 0.653309 -0.300001 0.159028 -0.94059 
0.515135 -0.417615 0.748487 0.450996 -0.311273 0.836488 0.389698 0.20252 0.898399 
0.27255 0.296459 0.91533 0.110223 0.843124 0.526301 0.15394 0.742367 0.652069 
0.251512 0.48757 0.836072 0.25836 0.363539 0.895036 -0.0959854 -0.534871 -0.839464 
0.194971 -0.766652 -0.611744 -0.116949 -0.384331 -0.915758 0.0673821 -0.618809 -0.782646 
-0.337782 -0.0275784 -0.94082 -0.158419 -0.278857 -0.947176 0.439949 -0.880466 -0.176705 
0.495174 -0.868775 -0.00579448 0.480477 -0.533624 0.695979 0.546089 -0.395653 0.738407 
-0.357146 0.209175 -0.910325 0.480716 -0.204204 0.852768 0.443265 -0.193138 0.875336 
0.395254 0.0421532 0.917604 0.00503109 0.993562 -0.11318 0.107206 0.91252 0.394734 
0.0124616 -0.75057 -0.660674 0.0598544 -0.766637 -0.639285 0.330128 -0.908691 -0.255531 
0.250012 -0.800696 -0.544408 0.441083 -0.89549 -0.0595203 0.369947 -0.695238 0.616266 
0.561775 -0.69826 0.443669 0.217109 -0.829665 -0.514314 0.202233 -0.760901 -0.616549 
0.537902 -0.759939 0.364903 0.429113 0.0638517 0.900991 0.406159 0.306903 0.860723 
-0.174806 0.915961 -0.361191 0.388811 0.670026 0.63237 0.29497 0.716352 0.632323 
0.07736 0.989875 0.119011 0.227587 -0.709082 -0.667388 -0.244079 -0.301497 -0.921697 
0.0683782 -0.672541 -0.736894 -0.304255 -0.167509 -0.937747 0.527014 -0.73557 0.425668 
0.362715 -0.894151 -0.26255 -0.17477 0.961569 -0.211757 0.388196 0.679098 0.623 
0.20665 0.880885 0.425838 -0.18627 -0.403248 -0.895932 0.220954 -0.665475 -0.712967 
0.42788 -0.841265 -0.330442 0.569273 -0.808528 -0.149036 0.421868 -0.88952 -0.175448 
0.39236 -0.268928 0.87962 0.43091 -0.0233623 0.902093 -0.35379 0.620744 -0.69965 
-0.18188 0.928355 -0.324156 0.0436229 0.974033 0.222164 -0.16215 0.959463 -0.230518 
0.0485342 0.973274 0.224461 0.148713 0.881327 0.448495 0.118221 0.887396 0.445592 
0.39748 0.384497 0.83317 0.0364701 -0.623098 -0.781293 0.247975 -0.793312 -0.556026 
0.572897 -0.80541 0.152001 0.615653 -0.735065 0.283989 -0.526632 0.11911 -0.841708 
0.41468 -0.14247 0.898745 0.349516 0.502265 0.790929 0.351736 0.492079 0.796329 
0.301395 0.708909 0.637659 -0.226508 -0.482027 -0.846371 0.191313 -0.769482 -0.609341 
0.525678 -0.838676 -0.142426 -0.272863 -0.281706 -0.919884 0.56211 -0.822005 0.0913196 
-0.577581 0.359758 -0.732785 -0.506459 0.404873 -0.761299 -0.431876 0.600169 -0.673261 
0.475877 0.138807 0.86849 -0.331835 0.77404 -0.53921 0.450468 0.274187 0.849647 
0.325039 0.783288 0.529915 0.328127 0.457401 0.826509 -0.167342 0.983065 0.0746967 
-0.260085 0.904085 -0.339096 -0.229117 0.943115 0.240913 -0.298328 0.787044 -0.539965 
-0.0172507 0.822342 0.568731 0.533036 -0.794677 0.29045 0.134116 0.684882 0.716205 
0.413553 0.180013 0.892507 -0.196632 0.980361 0.0150791 0.26235 0.714424 0.648669 
-0.246806 0.930926 -0.26919 0.0997075 0.927936 0.359157 -0.26409 -0.412403 -0.871883 
0.130677 -0.759612 -0.637113 0.295287 -0.847617 -0.440853 0.611729 -0.772315 0.171223 
-0.118118 -0.535122 -0.836476 0.550774 -0.609861 0.569839 -0.577995 0.459988 -0.674042 
-0.439559 0.87007 -0.223082 -0.903636 0.428117 -0.0125286 -0.64071 0.649231 -0.409866 
-0.620995 0.499278 -0.604224 -0.838087 0.0284774 -0.544792 -0.551094 0.527052 -0.646925 
-0.574102 0.748596 -0.331678 0.0692331 0.855946 0.512409 0.0733409 0.800296 0.595103 
-0.10396 -0.686957 -0.719224 0.176364 -0.857887 -0.482623 0.353924 -0.878603 -0.320617 
0.419938 -0.900276 -0.114697 0.545679 -0.836448 0.0508876 0.644218 -0.662937 0.381442 
0.429399 -0.155159 0.889687 -0.143774 0.965297 0.218017 -0.662625 0.744188 -0.0843297 
-0.688549 0.559552 -0.461304 -0.734499 0.677293 0.0422601 0.14431 0.200915 0.968921 
0.623103 0.130231 0.771221 -0.698251 0.492696 -0.519323 -0.199979 0.0850251 -0.976104 
-0.842919 0.438853 -0.311282 -0.350715 0.18561 0.917904 0.90246 -0.33839 0.266569 
0.105149 -0.120411 0.98714 -0.557675 0.0453547 -0.828819 -0.937145 0.32247 -0.133314 
-0.643685 -0.648716 0.406001 -0.922361 0.139723 -0.360177 -0.673231 0.170609 -0.71948 
0.26471 -0.0258677 0.963981 -0.467726 0.262376 -0.844033 -0.533707 0.0651834 -0.843153 
0.311254 0.0399924 0.949485 0.247487 0.132978 0.959723 -0.558578 0.704695 -0.437488 
-0.429471 0.879723 0.204063 -0.429266 0.813917 -0.391496 -0.211494 0.77221 0.599134 
0.382116 0.225223 0.896249 0.307843 0.361657 0.880021 0.0069531 0.670538 0.741843 
0.00674738 0.912416 0.409208 -0.285858 -0.32586 -0.901166 0.552123 -0.830102 0.0780509 
0.625691 -0.558574 0.544523 -0.467812 0.254727 -0.846325 -0.782721 0.267952 -0.561739 
0.316807 0.270542 0.909088 0.469456 0.163009 0.867778 -0.509541 0.249943 -0.823345 
-0.364691 0.373903 -0.852758 -0.0551237 0.366765 0.928679 -0.0123962 0.360809 -0.932557 
-0.451749 0.303217 -0.839036 -0.512081 0.239543 -0.824859 -0.217502 0.219489 -0.951061 
0.860546 -0.26046 0.437747 -0.642339 0.559648 0.523637 0.205643 0.0428687 0.977688 
-0.513219 0.240987 -0.82373 0.589689 -0.304047 0.748213 0.923219 -0.342984 0.173289 
-0.175937 0.180107 0.967785 0.494707 -0.22536 0.839332 -0.456256 0.21303 -0.863973 
-0.507895 0.254801 -0.822873 -0.961969 0.272442 -0.0197826 0.469002 -0.225957 0.853804 
0.247801 -0.197428 0.948481 0.462546 -0.211649 0.860962 -0.467164 0.229427 -0.853886 
-0.540277 0.0844623 -0.837238 0.328536 -0.122826 0.936471 0.475075 -0.178803 0.861588 
-0.474719 0.251294 -0.8435 -0.474052 0.248689 -0.844647 -0.476023 0.243096 -0.845167 
0.268331 -0.0952917 0.958602 -0.482945 0.329944 -0.811111 -0.484957 0.274091 -0.830476 
-0.53858 0.0524431 -0.840941 0.34841 -0.0135959 0.937244 0.441209 -0.137149 0.886862 
-0.485694 0.307117 -0.818401 -0.484796 0.294281 -0.823633 0.164074 0.322045 0.932398 
-0.577114 0.430928 -0.693715 -0.623641 0.511786 -0.590886 0.157167 0.446836 0.880702 
-0.15659 -0.628901 -0.761553 -0.124976 -0.631053 -0.765606 0.0992499 -0.813176 -0.573493 
0.486335 -0.868582 0.0950992 -0.404921 -0.297373 -0.864644 0.534615 -0.844081 -0.0413967 
-0.31375 -0.29101 -0.903811 0.463942 -0.0157635 0.885725 0.417697 0.218502 0.881922 
0.586058 0.018669 0.810054 -0.509205 0.245013 -0.825032 -0.451804 0.192763 -0.871043 
-0.525374 0.232947 -0.818363 0.219975 0.030975 0.975013 -0.319418 0.118492 -0.940177 
-0.537063 0.188655 -0.822176 -0.666062 0.106149 -0.738305 -0.517486 0.195803 -0.832988 
-0.471408 0.231851 -0.850893 0.276507 -0.00229576 0.961009 -0.440839 0.184474 -0.878425 
-0.512035 0.203156 -0.834594 -0.475929 0.194317 -0.857749 -0.455866 0.188691 -0.869817 
0.474114 -0.183926 0.861038 -0.169347 -0.0186966 -0.985379 -0.182001 -0.00466379 -0.983287 
-0.464429 0.196468 -0.863543 -0.421812 0.208536 -0.882376 0.463948 -0.212089 0.860099 
-0.457275 0.205217 -0.865324 0.445767 -0.190788 0.874581 0.460723 -0.207976 0.862832 
-0.460096 0.211534 -0.862302 -0.459749 0.210901 -0.862642 -0.460124 0.211633 -0.862263 
-0.462572 0.212025 -0.860856 0.378789 -0.0967033 0.920417 -0.459188 0.21283 -0.862467 
-0.460354 0.213573 -0.861661 -0.460205 0.213089 -0.861861 -0.504586 0.324312 -0.800134 
0.31508 0.0117266 0.948993 0.46085 -0.214379 0.861197 0.375627 -0.100767 0.921277 
-0.294726 -0.550816 -0.780858 0.0697969 -0.917953 -0.390502 0.3229 -0.941726 0.0942747 
0.511762 -0.778054 0.364324 0.568604 -0.524059 0.634075 -0.521334 0.0931939 -0.848249 
-0.562327 0.214157 -0.798702 -0.572813 0.351216 -0.74063 -0.594483 0.28126 -0.753314 
-0.404084 0.289984 -0.86754 0.352179 0.00835607 0.935895 -0.266304 0.356045 -0.89572 
-0.52608 0.194006 -0.828011 -0.203191 0.261304 -0.943628 0.135978 0.184701 -0.973343 
0.289985 -0.0077694 0.957 -0.519715 0.191871 -0.832515 -0.368543 0.166107 -0.91465 
0.381087 -0.10338 0.918741 -0.510789 0.189946 -0.83846 -0.504545 0.193152 -0.841503 
-0.512598 0.203179 -0.834243 0.361196 -0.106364 0.926404 -0.497551 0.199266 -0.844237 
-0.462993 0.178923 -0.868115 -0.515937 0.21696 -0.828696 -0.538309 0.229186 -0.810985 
0.481155 -0.210038 0.851101 -0.27946 0.0580154 -0.958403 0.519288 -0.228845 0.823389 
-0.61807 0.299087 -0.727005 -0.619679 0.30499 -0.723173 -0.457275 0.205217 -0.865324 
-0.701395 0.371419 -0.608353 0.202983 -0.246644 -0.94761 0.785076 -0.455287 0.419965 
-0.00847339 -0.113257 -0.99353 -0.0453366 -0.0879809 -0.99509 0.843302 -0.535635 0.0440072 
-0.0494116 0.142878 0.988506 -0.209115 0.0245545 -0.977583 -0.669191 0.356579 -0.651947 
-0.0856716 -0.0539685 -0.994861 0.075243 0.0612314 0.995283 0.843241 -0.533218 0.0679893 
0.832971 -0.544578 -0.0979484 -0.837468 0.517833 -0.174633 -0.828245 0.504546 -0.243809 
-0.843241 0.534815 -0.0540116 0.803972 -0.478675 0.352844 0.446482 -0.195504 0.873174 
0.842958 -0.534609 0.0601274 0.802799 -0.540949 -0.250775 0.415408 -0.173359 0.892963 
-0.214459 -0.519184 -0.827318 0.212301 -0.955898 -0.202948 0.505842 0.00322526 0.86262 
-0.554073 0.463012 -0.691826 -0.240417 0.913742 0.327528 -0.863367 0.216907 -0.455575 
-0.422697 0.258487 -0.868626 0.155302 -0.112461 0.981445 -0.274496 0.228115 -0.934139 
-0.507524 0.24046 -0.827405 -0.542298 0.188024 -0.818877 -0.404407 0.179315 -0.896829 
-0.418819 0.121869 -0.899855 0.463272 -0.217498 0.859112 -0.519477 0.185599 -0.834084 
-0.523566 0.184652 -0.831734 -0.524898 0.188898 -0.82994 -0.51754 0.182928 -0.835877 
0.415771 -0.103445 0.903567 -0.516623 0.183583 -0.836301 -0.508709 0.184898 -0.840849 
-0.542185 0.198231 -0.816542 -0.559156 0.209837 -0.802068 0.369804 -0.0977657 0.923952 
-0.495511 0.183358 -0.849028 -0.457022 0.172554 -0.872557 -0.519432 0.1972 -0.831446 
-0.568826 0.221603 -0.792041 0.287737 -0.062675 0.955657 0.7031 -0.364005 0.61086 
-0.445022 0.169883 -0.879258 -0.458995 0.175681 -0.870896 -0.607594 0.240313 -0.75702 
-0.655043 0.261111 -0.709041 -0.680939 0.274251 -0.67905 0.178715 0.0033859 0.983895 
-0.42046 0.161222 -0.892872 -0.347373 0.131113 -0.928516 -0.513343 0.201875 -0.834101 
-0.64286 0.259145 -0.720815 -0.70421 0.506338 0.497705 0.687945 -0.498186 -0.527771 
-0.486365 0.191183 -0.852583 0.268847 -0.767831 -0.581513 -0.808138 0.214326 -0.548614 
0.550569 0.550569 -0.627493 0.775133 -0.25573 0.577729 -0.793249 0.538771 0.283693 
0.720473 -0.511837 -0.467912 -0.265189 0.72041 0.640846 -0.81331 0.543222 0.208414 
-0.186295 -0.650827 -0.736015 -0.442272 -0.293945 -0.847344 0.557301 -0.7458 0.364964 
0.476724 -0.746225 0.464631 0.457628 -0.702861 0.544576 -0.493028 -0.0541059 -0.868329 
0.0367247 0.99922 -0.0144889 -0.862574 0.479815 -0.16045 0.332058 0.450205 0.828887 
0.498598 0.243114 0.832043 0.433451 0.315049 0.844313 -0.938472 0.24802 -0.240324 
-0.381676 0.437757 -0.814059 -0.144196 0.0546471 0.988039 -0.261546 0.514566 -0.816588 
-0.716643 -0.0103135 -0.697364 -0.487263 0.0941872 -0.868161 -0.561423 0.109245 -0.820287 
-0.550369 0.226977 -0.803477 -0.554343 0.196746 -0.8087 -0.511843 0.230186 -0.827666 
0.526901 -0.178073 0.831063 -0.485558 0.243319 -0.83966 -0.540598 0.196783 -0.817943 
-0.532962 0.188334 -0.824913 -0.55128 0.177168 -0.815293 -0.530789 0.193266 -0.825173 
-0.531073 0.191379 -0.82543 -0.529324 0.196718 -0.825299 -0.542816 0.202964 -0.814957 
-0.535984 0.202712 -0.81953 -0.525981 0.200235 -0.826589 -0.510913 0.200274 -0.835977 
-0.583677 0.211016 -0.784088 -0.582741 0.214799 -0.783756 0.465599 -0.17616 0.867286 
-0.500864 0.201687 -0.841699 -0.517412 0.207284 -0.830252 -0.519804 0.206702 -0.828902 
-0.551027 0.21539 -0.806211 0.381669 -0.142721 0.913214 0.597787 -0.236389 0.766009 
-0.496029 0.2048 -0.843808 -0.486791 0.202892 -0.849629 -0.496742 0.205576 -0.8432 
-0.553626 0.217049 -0.803983 -0.519011 0.210566 -0.828426 0.487498 -0.190811 0.852019 
-0.459446 0.197802 -0.8659 -0.465705 0.199603 -0.862136 -0.502747 -0.572343 0.647818 