# vtk DataFile Version 4.2
vtk output
ASCII
DATASET POLYDATA
POINTS 1461 float
226.861 193.831 42.332 227.367 194.018 42.2242 227.441 193.985 42.2871 
227.34 194.112 42.1975 227.454 194.075 42.2393 227.034 194.131 42.2791 
227.492 194.161 42.2415 227.411 194.214 42.1996 227.488 194.23 42.2078 
227.331 194.235 42.2659 227.451 194.244 42.2581 223.565 190.994 42.9564 
226.246 192.515 42.9071 224.681 192.82 42.7192 226.211 192.937 42.6959 
225.258 193.219 42.6586 226.911 193.267 42.6723 227.44 193.866 42.4101 
225.088 193.478 42.7486 225.735 193.653 42.6537 227.652 193.95 42.8264 
225.824 193.955 42.8433 227.517 194.217 42.2626 227.496 194.217 42.3534 
226.803 194.181 42.5877 223.479 190.556 43.2004 224.258 191.281 43.047 
223.137 192.26 42.9215 227.084 192.954 42.9789 222.148 192.799 43.1492 
223.967 192.926 42.8595 227.721 193.57 43.0577 223.023 193.432 43.2143 
227.856 193.872 43.2511 223.514 193.728 43.3033 225.481 194.122 43.347 
227.516 194.155 42.5414 227.438 194.15 42.8118 223.737 193.985 43.5385 
226.689 194.216 42.8733 215.769 185.304 44.8951 217.733 185.542 44.9539 
215.618 186.299 44.4669 216.542 187.488 44.0839 220.044 191.079 43.2446 
227.76 193.151 43.4169 228.148 193.058 43.9892 220.51 193.186 43.9211 
221.277 193.515 43.9039 228.156 193.806 44.1157 222.052 193.957 44.1328 
227.257 194.182 43.1031 213.574 186.536 44.8446 218.849 190.759 43.5163 
228.689 193.054 45.1166 218.416 193.033 44.7099 228.46 193.629 44.5001 
228.592 193.431 44.6114 228.622 193.584 44.6461 228.636 193.555 44.6021 
228.679 193.56 44.647 219.089 193.341 44.6409 228.016 193.912 44.2046 
227.853 193.976 44.2615 228.12 193.808 44.5936 228.516 193.57 44.8322 
228.66 193.541 44.7189 219.055 193.587 44.8987 219.259 193.767 45.0573 
208.841 181.961 47.1286 211.966 183.41 45.9493 210.838 184.371 45.9588 
212.808 188.414 45.2545 228.653 193.418 44.8597 228.607 193.335 45.2804 
228.674 193.512 44.6749 218.036 193.282 45.1722 218.096 193.742 45.8306 
219.917 194.078 45.433 209.234 182.332 46.9573 211.644 182.867 46.3969 
216.511 183.708 46.3939 228.963 191.922 46.4928 214.416 192.797 46.7319 
216.343 192.656 45.5307 221.953 194.329 46.4513 217.496 193.783 46.4727 
220.193 194.184 45.7527 229.177 192.096 47.3113 229.102 192.552 46.9363 
215.418 193.706 47.5653 214.839 193.659 47.6565 203.945 178.687 49.8242 
203.999 179.253 49.4989 204.196 180.12 49.0752 208.333 180.579 48.4126 
204.129 182.565 48.5425 206.457 185.148 47.5741 207.311 188.511 47.9858 
228.686 190.394 47.5125 212.31 192.478 47.6686 224.711 193.893 48.3228 
228.771 192.702 47.6062 211.846 192.884 48.5102 213.259 193.364 48.4448 
204.101 178.057 50.3011 221.911 184.105 49.3954 225.678 186.97 48.6423 
209.085 192.344 49.5683 213.834 193.738 49.2701 212.231 193.395 49.3913 
199.365 176.391 51.657 199.989 176.489 51.5347 202.374 177.06 51.0082 
199.077 178.012 50.9966 200.443 181.749 50.07 206.679 190.473 49.3638 
222.215 193.604 50.3969 219.148 193.923 49.8894 207.906 192.703 50.7025 
211.533 193.349 49.9122 200.523 176.07 51.8471 201.696 188.043 51.0455 
205.017 191.712 51.4313 195.742 178.268 52.1825 229.977 190.446 51.9555 
196.514 173.001 54.3021 200.412 190.561 53.3804 229.719 190.806 52.7905 
230.007 190.489 52.9139 202.511 192.158 53.9741 191.433 172.099 55.2186 
190.595 172.781 55.1171 190.987 173.85 54.685 208.04 176.422 53.9885 
192.261 177.74 53.9018 193.295 179.115 53.501 228.462 186.368 53.6599 
230.406 189.247 53.835 230.344 189.648 53.5168 230.56 189.274 54.4168 
230.579 189.432 54.6573 230.216 190.068 53.5376 192.379 171.505 55.493 
192.728 170.959 55.9684 189.506 173.97 55.2694 230.689 188.742 55.2643 
230.208 189.962 55.3081 230.534 189.603 55.37 186.344 169.486 57.6795 
187.847 169.765 57.1648 191.39 170.245 56.5149 203.38 174.045 55.3043 
230.627 188.236 55.5176 230.703 189.313 55.7828 197.075 190.522 55.8739 
197.865 191.046 55.8305 198.286 191.456 56.1634 202.226 192.545 56.2621 
198.911 191.777 56.2457 186.055 168.544 58.3856 187.368 168.405 58.2279 
185.001 170.076 58.0132 187.705 174.945 56.1773 192.827 188.433 57.3405 
230.998 188.595 57.1803 230.837 188.975 56.3049 199.053 191.939 57.706 
197.406 170.804 57.2694 186.193 178.687 57.7886 231.37 188.124 58.5172 
192.689 189.356 58.6233 193.488 190.007 59.0428 200.867 192.236 57.9544 
192.206 168.182 59.0174 188.95 185.702 58.3853 231.27 187.188 58.788 
231.435 187.476 59.0595 230.318 189.28 58.3957 192.628 189.839 60.1215 
193.468 190.117 59.7312 184.067 166.736 60.5218 231.244 186.554 59.5533 
231.505 187.59 59.8663 189.228 188.383 60.5974 189.618 188.792 60.9474 
199.659 191.533 60.2461 180.869 167.568 61.0387 196.355 167.983 61.575 
180.35 168.97 60.7654 221.608 178.961 60.8448 231.485 186.731 60.1199 
186.198 186.979 61.6953 231.51 187.627 60.441 231.57 187.39 60.9121 
186.986 187.586 61.6919 188.116 188.23 61.6702 187.656 188.057 61.7241 
231.207 187.97 60.9017 187.481 187.981 61.7759 190.037 189.168 61.4993 
190.573 189.356 61.4059 181.554 165.439 62.5324 183.144 183.32 61.6369 
184.149 185.672 62.4591 185.147 186.864 62.8226 187.501 188.073 62.5084 
190.508 189.389 62.2996 191.915 189.778 61.8455 176.494 165.744 63.7183 
182.353 165.001 62.9894 194.01 166.157 63.4687 179.243 179.001 62.7939 
226.887 181.731 62.1078 181.965 183.854 63.3138 231.074 185.206 62.072 
231.536 186.093 62.2952 231.618 186.509 61.6256 231.594 186.414 62.0686 
231.44 186.992 62.1917 184.698 186.772 63.5289 189.641 188.977 63.1205 
230.002 188.069 62.4897 191.777 189.614 62.9719 191.302 189.579 62.8552 
191.942 189.504 63.5558 195.684 190.171 63.2457 174.134 164.102 65.3233 
183.228 163.869 64.8093 174.45 170.074 63.7538 224.287 179.787 63.0473 
181.155 183.944 64.4924 231.36 186.519 62.8354 230.491 187.021 63.5226 
230.883 186.975 63.2152 231.286 186.935 62.6812 191.143 189.553 62.8451 
220.597 177.828 64.2639 224.849 179.971 64.162 229.921 183.859 63.383 
230.724 184.608 63.3157 230.755 184.683 63.5368 181.949 184.986 65.6852 
183.892 186.158 65.6246 231.112 186.426 63.3533 228.463 187.689 64.0262 
212.717 190.027 64.5864 169.625 162.703 67.5245 170.384 162.907 67.1445 
172.989 162.559 66.733 202.556 168.63 66.1286 174.766 179.834 66.4173 
225.587 180.49 64.8964 227.154 181.905 64.7801 230.618 184.633 63.8001 
230.908 185.189 63.8021 231.103 185.416 63.5978 231.034 185.49 63.7493 
230.998 185.758 63.7682 185.521 186.922 66.0237 229.62 186.431 64.6128 
229.222 186.085 65.0488 230.661 185.736 64.1274 168.017 164.8 67.4275 
196.382 165.446 67.2845 209.153 171.826 66.1087 174.704 180.818 67.4463 
227.41 182.427 65.2681 229.483 184.252 64.8069 230.021 184.401 64.3426 
177.695 182.904 67.7315 229.435 185.027 65.1956 229.494 185.363 65.1215 
230.369 185.298 64.4125 221.914 188.305 65.7077 173.402 161.221 68.424 
222.091 178.841 66.2143 223.813 179.791 66.1277 224.699 180.828 66.6085 
225.789 181.503 66.2262 174.086 181.003 68.6753 226.899 183.035 66.2572 
228.612 184.577 65.6395 226.972 184.978 66.5009 186.705 186.521 67.8266 
215.91 188.56 66.9615 168.406 160.726 69.8445 190.887 163.085 69.5153 
165.492 164.71 68.8371 167.197 172.89 68.5881 217.963 176.57 67.4144 
220.668 178.502 67.4083 222.871 179.41 66.4678 169.468 177.709 69.2077 
223.31 181.273 67.8248 222.961 182.311 68.3692 175.85 181.903 69.9082 
223.591 183.91 68.1647 225.875 184.289 67.0667 222.544 185.521 68.0762 
220.242 187.295 67.4775 201.204 188.581 68.7001 162.962 162.802 70.8847 
198.687 165.548 70.1859 209.612 171.96 69.4553 211.522 172.899 69.2134 
212.863 173.571 69.5477 212.827 173.545 69.6125 212.78 173.54 69.5536 
212.832 173.583 69.6326 212.597 173.442 69.341 212.956 173.689 69.5276 
168.2 177.753 70.6608 169.775 178.705 70.3349 223.4 184.831 68.0607 
206.276 187.892 69.8792 210.251 172.53 70.0209 212.789 173.559 69.6511 
213.007 173.898 69.9129 213.103 174.013 69.9132 212.674 173.637 69.744 
213.079 173.858 69.6209 214.464 175.047 69.3663 166.912 177.172 71.4217 
167.425 177.312 70.9599 168.497 178.214 71.3704 169.801 178.909 71.3914 
217.009 182.076 70.7324 217.368 183.802 70.3666 219.002 186.511 71.0152 
219.002 186.511 71.0152 219.002 186.511 71.0152 219.002 186.511 71.0153 
213.527 186.384 70.0553 219.002 186.511 71.0152 219.002 186.511 71.0153 
219.002 186.511 71.0153 219.002 186.511 71.0153 159.537 160.517 73.5957 
159.65 160.499 73.602 189.572 161.904 72.3709 197.177 164.67 71.2439 
205.627 169.523 70.6562 212.652 174.134 70.2565 213.166 174.265 70.0374 
163.596 174.435 71.9866 213.973 175.3 70.1565 163.709 174.933 72.2595 
164.049 175.451 72.4475 213.719 176.253 70.9206 213.883 177.102 71.2082 
214.068 180.453 71.824 179.137 182.217 71.8101 219.002 186.511 71.0153 
219.002 186.511 71.0153 158.54 160.895 74.0327 161.846 160.283 72.9932 
162.36 159.598 73.5043 159.841 160.963 73.3357 158.698 162.834 73.3431 
199.825 165.856 72.557 201.977 167.311 71.7861 201.98 167.368 72.2239 
211.079 173.69 70.9711 162.458 175 73.6468 164.208 176.328 73.9416 
167.537 177.805 73.2094 213.459 181.313 72.0274 213.467 182.25 71.9272 
211.516 182.961 72.4905 213.186 183.093 71.8482 157.042 161.726 74.6234 
204.413 169.373 72.5368 207.588 172.362 72.5378 159.762 172.739 74.2696 
162.27 175.302 74.4975 209.239 184.147 72.9011 204.739 186.143 72.6744 
162.768 158.615 74.731 199.884 166.062 73.6408 156.194 165.639 74.9103 
203.044 168.621 73.2205 161.83 175.233 75.4547 163.045 175.858 75.1953 
164.628 176.441 75.4108 191.296 183.7 75.1702 198.015 185.343 74.5473 
207.422 184.523 73.3652 195.174 163.83 75.0391 200.875 167.112 74.1288 
201.912 168.202 74.1765 202.178 171.515 75.9315 157.237 172.604 76.4992 
158.667 173.696 76.374 204.164 182.67 75.2613 199.251 167.772 76.391 
155.444 170.449 76.7727 157.449 173.299 77.2861 158.404 173.84 77.1755 
200.844 178.305 77.3007 184.436 180.62 77.1724 201.433 183.46 75.785 
155.698 157.415 78.0813 153.705 166.774 76.9976 153.518 168.953 77.8779 
[...]
POINT_DATA 1461
SCALARS scalars float
LOOKUP_TABLE default
1 1 1 1 1 1 1 1 1 
1 1 1 1 1 1 1 1 1 
1 1 1 1 1 1 1 1 1 
1 1 1 1 1 1 1 1 1 
1 1 1 1 1 1 1 1 1 
1 1 1 1 1 1 1 1 1 
1 1 1 1 1 1 1 1 1 
1 1 1 1 1 1 1 1 1 
1 1 1 1 1 1 1 1 1 
1 1 1 1 1 1 1 1 1 
1 1 1 1 1 1 1 1 1 
1 1 1 1 1 1 1 1 1 
1 1 1 1 1 1 1 1 1 
1 1 1 1 1 1 1 1 1 
1 1 1 1 1 1 1 1 1 
1 1 1 1 1 1 1 1 1 
1 1 1 1 1 1 1 1 1 
1 1 1 1 1 1 1 1 1 
1 1 1 1 1 1 1 1 1 
1 1 1 1 1 1 1 1 1 
1 1 1 1 1 1 1 1 1 
1 1 1 1 1 1 1 1 1 
1 1 1 1 1 1 1 1 1 
1 1 1 1 1 1 1 1 1 
1 1 1 1 1 1 1 1 1 
1 1 1 1 1 1 1 1 1 
1 1 1 1 1 1 1 1 1 
1 1 1 1 1 1 1 1 1 
1 1 1 1 1 1 1 1 1 
1 1 1 1 1 1 1 1 1 
1 1 1 1 1 1 1 1 1 
1 1 1 1 1 1 1 1 1 
1 1 1 1 1 1 1 1 1 
1 1 1 1 1 1 1 1 1 
1 1 1 1 1 1 1 1 1 
1 1 1 1 1 1 1 1 1 
1 1 1 1 1 1 1 1 1 
1 1 1 1 1 1 1 1 1 
1 1 1 1 1 1 1 1 1 
1 1 1 1 1 1 1 1 1 
1 1 1 1 1 1 1 1 1 
1 1 1 1 1 1 1 1 1 
1 1 1 1 1 1 1 1 1 
1 1 1 1 1 1 1 1 1 
1 1 1 1 1 1 1 1 1 
1 1 1 1 1 1 1 1 1 
1 1 1 1 1 1 1 1 1 
1 1 1 1 1 1 1 1 1 
1 1 1 1 1 1 1 1 1 
1 1 1 1 1 1 1 1 1 
1 1 1 1 1 1 1 1 1 
1 1 1 1 1 1 1 1 1 
1 1 1 1 1 1 1 1 1 
1 1 1 1 1 1 1 1 1 
1 1 1 1 1 1 1 1 1 
1 1 1 1 1 1 1 1 1 
1 1 1 1 1 1 1 1 1 
1 1 1 1 1 1 1 1 1 
1 1 1 1 1 1 1 1 1 
1 1 1 1 1 1 1 1 1 
1 1 1 1 1 1 1 1 1 
1 1 1 1 1 1 1 1 1 
1 1 1 1 1 1 1 1 1 
1 1 1 1 1 1 1 1 1 
1 1 1 1 1 1 1 1 1 
1 1 1 1 1 1 1 1 1 
1 1 1 1 1 1 1 1 1 
1 1 1 1 1 1 1 1 1 
1 1 1 1 1 1 1 1 1 
1 1 1 1 1 1 1 1 1 
1 1 1 1 1 1 1 1 1 
1 1 1 1 1 1 1 1 1 
1 1 1 1 1 1 1 1 1 
1 1 1 1 1 1 1 1 1 
1 1 1 1 1 1 1 1 1 
1 1 1 1 1 1 1 1 1 
1 1 1 1 1 1 1 1 1 
1 1 1 1 1 1 1 1 1 
1 1 1 1 1 1 1 1 1 
1 1 1 1 1 1 1 1 1 
1 1 1 1 1 1 1 1 1 
1 1 1 1 1 1 1 1 1 
1 1 1 1 1 1 1 1 1 
1 1 1 1 1 1 1 1 1 
1 1 1 1 1 1 1 1 1 
1 1 1 1 1 1 1 1 1 
1 1 1 1 1 1 1 1 1 
1 1 1 1 1 1 1 1 1 
1 1 1 1 1 1 1 1 1 
1 1 1 1 1 1 1 1 1 
1 1 1 1 1 1 1 1 1 
1 1 1 1 1 1 1 1 1 
1 1 1 1 1 1 1 1 1 
1 1 1 1 1 1 1 1 1 
1 1 1 1 1 1 1 1 1 
1 1 1 1 1 1 1 1 1 
1 1 1 1 1 1 1 1 1 
1 1 1 1 1 1 1 1 1 
1 1 1 1 1 1 1 1 1 
1 1 1 1 1 1 1 1 1 
1 1 1 1 1 1 1 1 1 
1 1 1 1 1 1 1 1 1 
1 1 1 1 1 1 1 1 1 
1 1 1 1 1 1 1 1 1 
1 1 1 1 1 1 1 1 1 
1 1 1 1 1 1 1 1 1 
1 1 1 1 1 1 1 1 1 
1 1 1 1 1 1 1 1 1 
1 1 1 1 1 1 1 1 1 
1 1 1 1 1 1 1 1 1 
1 1 1 1 1 1 1 1 1 
1 1 1 1 1 1 1 1 1 
1 1 1 1 1 1 1 1 1 
1 1 1 1 1 1 1 1 1 
1 1 1 1 1 1 1 1 1 
1 1 1 1 1 1 1 1 1 
1 1 1 1 1 1 1 1 1 
1 1 1 1 1 1 1 1 1 
1 1 1 1 1 1 1 1 1 
1 1 1 1 1 1 1 1 1 
1 1 1 1 1 1 1 1 1 
1 1 1 1 1 1 1 1 1 
1 1 1 1 1 1 1 1 1 
1 1 1 1 1 1 1 1 1 
1 1 1 1 1 1 1 1 1 
1 1 1 1 1 1 1 1 1 
1 1 1 1 1 1 1 1 1 
1 1 1 1 1 1 1 1 1 
1 1 1 1 1 1 1 1 1 
1 1 1 1 1 1 1 1 1 
1 1 1 1 1 1 1 1 1 
1 1 1 1 1 1 1 1 1 
1 1 1 1 1 1 1 1 1 
1 1 1 1 1 1 1 1 1 
1 1 1 1 1 1 1 1 1 
1 1 1 1 1 1 1 1 1 
1 1 1 1 1 1 1 1 1 
1 1 1 1 1 1 1 1 1 
1 1 1 1 1 1 1 1 1 
1 1 1 1 1 1 1 1 1 
1 1 1 1 1 1 1 1 1 
1 1 1 1 1 1 1 1 1 
1 1 1 1 1 1 1 1 1 
1 1 1 1 1 1 1 1 1 
1 1 1 1 1 1 1 1 1 
1 1 1 1 1 1 1 1 1 
1 1 1 1 1 1 1 1 1 
1 1 1 1 1 1 1 1 1 
1 1 1 1 1 1 1 1 1 
1 1 1 1 1 1 1 1 1 
1 1 1 1 1 1 1 1 1 
1 1 1 1 1 1 1 1 1 
1 1 1 1 1 1 1 1 1 
1 1 1 1 1 1 1 1 1 
1 1 1 1 1 1 1 1 1 
1 1 1 1 1 1 1 1 1 
1 1 1 1 1 1 1 1 1 
1 1 1 1 1 1 1 1 1 
1 1 1 1 1 1 1 1 1 
1 1 1 1 1 1 1 1 1 
1 1 1 1 1 1 1 1 1 
1 1 1 1 1 1 1 1 1 
1 1 1 
NORMALS Normals float
-0.022257 -0.393353 -0.919118 0.218647 -0.501335 -0.837172 0.748239 -0.422749 -0.511294 
0.00929099 -0.0986368 -0.99508 0.496248 -0.296914 -0.815831 -0.335942 0.562616 -0.755385 
0.630184 -0.299742 -0.716256 -0.135362 0.501458 -0.854528 0.512015 0.493105 -0.70334 
-0.247582 0.878159 -0.409316 0.0870834 0.995987 -0.0206264 -0.0929505 -0.285518 -0.953855 
0.187451 -0.493136 -0.849517 -0.142532 -0.00961038 -0.989744 0.0763314 -0.38337 -0.920435 
-0.0634736 -0.0970713 -0.993251 0.33312 -0.55507 -0.762187 0.351088 -0.654078 -0.670014 
-0.248724 0.435762 -0.865013 -0.245749 0.1588 -0.956237 0.91731 0.324326 -0.230988 
-0.349342 0.73131 -0.585786 0.886313 0.446631 -0.122353 0.339402 0.918607 0.202403 
-0.270386 0.900248 -0.34124 -0.0182999 -0.374615 -0.927 0.139683 -0.320948 -0.93674 
-0.214449 -0.0206283 -0.976517 0.446197 -0.611366 -0.653559 -0.231542 0.240651 -0.94259 
-0.166749 0.152831 -0.974083 0.719201 -0.404492 -0.564922 -0.237002 0.536479 -0.809951 
0.661396 0.732795 -0.159897 -0.207944 0.624022 -0.75323 -0.208132 0.872576 -0.441918 
0.515292 0.830773 0.210451 0.423532 0.902547 0.0776503 -0.193485 0.871746 -0.450136 
-0.0372064 0.998602 -0.0375456 -0.0408834 -0.445501 -0.894347 0.249495 -0.591096 -0.767045 
-0.244089 -0.101764 -0.964399 -0.218138 -0.113354 -0.969312 -0.193951 0.0582032 -0.979283 
0.709589 -0.419526 -0.566111 0.75252 -0.437313 -0.492413 -0.31601 0.580684 -0.750296 
-0.29395 0.671541 -0.680166 0.472458 0.855452 -0.212098 -0.208973 0.866312 -0.453689 
0.249454 0.967069 0.0505064 -0.238561 -0.137211 -0.961385 -0.403187 0.250836 -0.880069 
0.9741 -0.037086 -0.223056 -0.397223 0.577397 -0.713321 0.603996 0.756287 -0.251432 
0.859729 -0.139991 -0.49119 0.37947 0.9252 0.00276854 0.683951 0.16492 -0.710642 
0.860131 0.485683 -0.155844 -0.32416 0.607691 -0.725005 0.384546 0.892303 -0.236475 
0.188312 0.978801 0.0805409 0.316405 0.90978 0.268679 0.446321 0.845114 0.294245 
0.728981 0.574329 0.37247 -0.321657 0.719618 -0.615375 -0.273685 0.84822 -0.453453 
-0.0944992 -0.417209 -0.903884 -0.0847479 -0.512822 -0.854302 -0.262983 -0.188306 -0.946246 
-0.342409 0.133854 -0.929967 0.972772 0.193368 0.127762 0.609622 0.731324 0.305819 
0.943043 -0.256596 -0.211728 -0.414223 0.598571 -0.685662 -0.307745 0.833678 -0.458557 
-0.170842 0.963115 -0.207901 0.125624 -0.681397 -0.721053 -0.0663651 -0.669688 -0.739671 
0.203447 -0.793794 -0.573149 0.809346 -0.394857 -0.434796 -0.371334 0.626073 -0.68567 
-0.391608 0.619867 -0.680006 -0.0345923 0.998213 -0.0487293 -0.0865183 0.995172 -0.0463393 
-0.198275 0.970174 -0.139465 0.995092 0.0705163 -0.0694272 0.952044 0.305012 -0.0240811 
-0.172476 0.951067 -0.256365 -0.221437 0.921001 -0.320505 -0.0132114 -0.633405 -0.773707 
-0.0450979 -0.475074 -0.87879 -0.275443 -0.381621 -0.882325 0.223794 -0.698352 -0.679869 
-0.407974 -0.0728532 -0.910082 -0.454676 0.213502 -0.864689 -0.441362 0.388673 -0.808785 
0.813035 -0.432178 -0.390124 -0.362427 0.73455 -0.573658 0.196055 0.944163 0.264798 
0.603552 0.759554 0.242494 -0.340967 0.776822 -0.529423 -0.286461 0.910979 -0.296745 
-0.0142962 -0.656674 -0.754039 0.447395 -0.794033 -0.41152 0.489643 -0.675301 -0.551561 
-0.350051 0.679585 -0.644692 -0.162701 0.98223 -0.0935585 -0.251401 0.899914 -0.356304 
-0.0856381 -0.622738 -0.77773 0.121174 -0.373642 -0.919624 -0.142259 -0.476702 -0.867478 
-0.10438 -0.265052 -0.958568 -0.375286 0.004453 -0.926898 -0.509368 0.462245 -0.72586 
0.132956 0.956999 0.257828 -0.017086 0.988113 0.15278 -0.345304 0.776391 -0.52724 
-0.220507 0.95872 -0.179535 0.0629609 -0.629989 -0.774048 -0.464708 0.371235 -0.803885 
-0.474475 0.57075 -0.670162 -0.409472 0.0778187 -0.908998 0.95978 0.251448 -0.124882 
0.0571836 -0.693565 -0.718121 -0.410891 0.630386 -0.658621 0.62494 0.767725 0.141591 
0.854733 0.518983 0.00939652 -0.278872 0.911855 -0.301248 -0.0332261 -0.404839 -0.913784 
-0.225474 -0.277893 -0.933775 -0.290158 -0.200223 -0.935799 0.540187 -0.730172 -0.418386 
-0.465167 0.0889707 -0.88074 -0.405744 0.132245 -0.904369 0.705274 -0.613819 -0.354703 
0.975183 -0.0769328 -0.207606 0.972931 0.222287 -0.0631978 0.948321 -0.178385 -0.262422 
0.937894 0.324281 -0.123275 0.896848 0.44162 0.0251869 0.0244675 -0.372561 -0.927685 
-0.00882399 -0.697772 -0.716266 -0.428414 -0.0434689 -0.902537 0.959804 -0.128955 -0.249293 
0.766504 0.637136 0.0808069 0.796706 0.604316 0.00785412 -0.262077 -0.444985 -0.856332 
-0.18412 -0.44877 -0.874474 -0.0698221 -0.639327 -0.765759 0.151847 -0.8224 -0.548271 
0.927336 -0.237466 -0.289237 0.900952 0.432677 0.0328 -0.516447 0.695428 -0.499662 
-0.52357 0.786419 -0.32775 -0.548549 0.822626 -0.149602 -0.0445155 0.996605 0.0692664 
-0.315597 0.904919 -0.285519 -0.232538 -0.735574 -0.636283 -0.0880838 -0.779727 -0.619893 
-0.432298 -0.244083 -0.868068 -0.480818 -0.100636 -0.871026 -0.496888 0.642276 -0.583596 
0.957148 0.264688 -0.117506 0.962592 0.270666 -0.0124748 -0.38353 0.923094 0.0283343 
0.207876 -0.829519 -0.518349 -0.503737 0.206912 -0.838712 0.961057 0.257482 -0.10036 
-0.494152 0.802342 -0.334754 -0.332714 0.904525 -0.266712 -0.0506769 0.988324 0.14369 
0.104772 -0.836433 -0.537961 -0.540826 0.370925 -0.754932 0.931619 -0.297362 -0.208954 
0.961289 -0.229622 -0.152309 0.344021 0.899976 0.267756 -0.37781 0.919626 -0.107457 
-0.275753 0.953937 -0.118171 -0.0766423 -0.761982 -0.643047 0.761963 -0.574042 -0.299813 
0.994947 0.0513289 -0.0862929 -0.382779 0.775926 -0.501417 -0.472194 0.856466 -0.208564 
0.00650117 0.952203 0.305396 -0.193311 -0.496115 -0.846464 0.264425 -0.847323 -0.460568 
-0.46184 -0.104118 -0.880831 0.435464 -0.864895 -0.249656 0.97031 -0.183284 -0.157816 
-0.536333 0.785786 -0.308038 0.94606 0.323954 -0.00496467 0.96442 0.254277 0.0723671 
-0.49406 0.673894 -0.549338 -0.416607 0.864296 -0.281836 -0.407188 0.801117 -0.438645 
0.740097 0.643696 0.194709 -0.496722 0.859833 -0.118127 -0.502255 0.864605 0.0140594 
-0.350191 0.862408 -0.365538 -0.0956311 -0.714676 -0.692887 -0.635482 0.336531 -0.694916 
-0.59832 0.54442 -0.587894 -0.545709 0.721953 -0.425423 -0.405408 0.913918 -0.0199528 
-0.36124 0.932473 0.000831469 -0.247709 0.96882 -0.00526949 -0.291335 -0.451297 -0.843478 
-0.0706691 -0.758366 -0.647987 0.293358 -0.861611 -0.414207 -0.577764 0.349812 -0.737442 
0.572159 -0.789601 -0.22173 -0.699259 0.540967 -0.467324 0.834035 -0.531191 -0.149073 
0.9722 -0.114451 0.204274 0.996061 -0.0886399 -0.00213497 0.992862 -0.106894 0.0529048 
0.917538 0.301629 0.259123 -0.502076 0.856704 -0.118228 -0.326303 0.910793 0.252948 
0.423189 0.814438 0.39699 -0.120822 0.980021 0.157989 -0.14032 0.966741 0.213827 
-0.142442 0.951403 0.273025 -0.102847 0.974934 0.197296 -0.128987 -0.568666 -0.812392 
0.0376931 -0.870784 -0.49022 -0.481261 0.0236048 -0.87626 0.516465 -0.850573 -0.0989438 
-0.638714 0.576403 -0.50971 0.890961 0.214735 0.400096 0.498396 0.609153 0.616875 
0.60367 0.604884 0.519323 0.737246 0.543439 0.401426 -0.233197 0.944403 0.231779 
0.54181 -0.830715 0.12789 0.490328 -0.871355 -0.017848 0.631107 -0.772638 -0.0688116 
0.773673 -0.631308 0.0536618 0.819456 -0.52732 0.224558 -0.551329 0.798719 -0.241009 
-0.472097 0.869045 0.147937 0.795776 0.245101 0.553775 0.282477 0.788845 0.54583 
0.0892107 0.933982 0.346004 -0.368178 -0.511965 -0.776103 -0.235348 -0.586641 -0.774896 
-0.0639175 -0.72223 -0.688693 0.511245 -0.840133 -0.181121 -0.558143 0.392363 -0.731114 
0.640222 -0.765534 0.0638202 0.621777 -0.716035 0.317313 0.701925 -0.62436 0.342748 
0.748666 -0.253083 0.612738 0.93431 -0.231499 0.271058 0.766899 -0.061742 0.638791 
0.740944 0.164792 0.651034 -0.356719 0.904523 0.233643 0.524869 0.434847 0.731724 
0.414888 0.396895 0.818744 0.675917 0.144422 0.722688 -0.482597 -0.130192 -0.866112 
0.276324 -0.909671 -0.31007 0.477989 -0.852347 -0.212206 -0.569801 0.641375 -0.513775 
0.534879 -0.647933 0.542298 0.554666 -0.545068 0.628686 0.69089 -0.374767 0.61824 
-0.390398 0.920555 -0.0129718 0.645652 -0.136669 0.751302 0.581492 0.0721631 0.810345 
0.648657 0.0170191 0.76089 0.227644 0.764342 0.603291 0.0221498 -0.843547 -0.536599 
0.463445 -0.842678 0.274067 0.494199 -0.782232 0.379315 0.509711 -0.541189 0.668811 
0.608628 -0.588859 0.531805 -0.566361 0.782495 -0.258723 0.527455 -0.36159 0.768794 
0.418066 -0.19256 0.887773 0.41116 0.059246 0.909636 -0.231999 0.892074 0.38779 
0.153719 0.849576 0.504571 -0.250683 -0.698071 -0.670712 0.23442 -0.911091 -0.339059 
-0.496874 -0.177059 -0.849568 -0.540578 0.170586 -0.823818 0.494357 -0.774923 0.393834 
0.489652 -0.739549 0.461853 0.386375 -0.684234 0.618497 -0.655506 0.498819 -0.567001 
0.463514 -0.466338 0.753448 0.457057 -0.141286 0.878144 -0.348652 0.881618 0.318107 
0.399942 0.020687 0.916307 0.441898 0.115586 0.889588 0.30269 0.431101 0.850018 
0.215977 0.723146 0.656059 -0.00368079 0.89575 0.444543 -0.405821 -0.342002 -0.847552 
0.474113 -0.838625 -0.268189 0.538242 -0.833837 0.122522 0.403685 -0.8679 0.289461 
0.634708 -0.737987 0.229175 0.485714 -0.809421 0.330031 0.0170549 -0.985263 0.170192 
0.693895 -0.315453 0.647302 0.338963 -0.925558 0.168661 0.673935 -0.467732 0.571873 
-0.532187 0.781784 -0.324949 -0.669353 0.674565 -0.311333 0.323194 0.280617 0.90377 
0.0640834 0.88472 0.461696 0.502257 -0.820589 0.27271 0.140305 -0.788171 0.59925 
0.516688 -0.675934 0.525496 0.71252 -0.483977 0.508018 0.30688 -0.730251 0.610375 
0.682565 -0.628987 0.372128 0.67172 -0.529418 0.518178 -0.63684 0.612824 -0.467848 
-0.630112 0.607042 -0.48421 -0.532419 0.822426 -0.200364 -0.503566 0.86294 -0.0419107 
0.297723 0.117721 0.947366 0.233994 0.324948 0.916327 0.381158 -0.327793 -0.864448 
-0.0836822 -0.993677 -0.0748598 -0.832704 -0.135898 -0.536783 0.619094 -0.569749 0.54047 
0.274432 0.50692 0.817141 -0.330057 0.527411 -0.782879 -0.705875 0.433928 0.559863 
0.923452 0.341832 -0.174318 0.114977 0.951568 0.285129 -0.281857 -0.505762 -0.815329 
-0.171379 -0.643976 -0.745604 0.288086 -0.920142 -0.265228 0.328781 -0.94158 -0.0730116 
0.497274 -0.84687 0.188495 0.393915 -0.569766 0.721247 0.683325 -0.481088 0.5492 
-0.573825 0.36929 -0.730992 0.613033 -0.474913 0.631386 -0.576902 0.601684 -0.552413 
-0.563257 0.681307 -0.467506 0.38395 -0.364324 0.84844 0.436696 -0.278357 0.855461 
0.260057 -0.152047 0.953547 -0.16078 0.926873 0.339199 -0.354086 -0.442058 0.824141 
0.371837 0.102723 0.922597 -0.503845 -0.264423 -0.822327 -0.306169 -0.628425 -0.715082 
-0.307851 -0.698328 -0.646193 -0.340505 -0.366407 -0.865911 -0.513936 -0.101348 -0.85182 
0.531974 -0.845445 0.0471868 0.634428 -0.772814 0.0161395 0.715152 -0.681506 0.155265 
0.432922 -0.498448 0.751085 -0.630054 0.625061 -0.460793 -0.442693 0.877295 -0.185409 
-0.462654 0.885327 -0.0463388 0.231867 0.0454752 0.971684 0.371926 0.193492 0.907872 
0.246009 0.132735 0.960136 0.356594 0.255457 0.898656 -0.496708 -0.269768 -0.824928 
0.521683 -0.766674 0.374243 0.52726 -0.679659 0.509961 -0.579182 0.384434 -0.718859 
-0.530954 0.807444 -0.257141 0.322885 0.282245 0.903373 0.182897 0.71912 0.670384 
-0.214309 -0.82767 -0.518685 0.505363 -0.814841 0.283976 -0.551112 0.00853861 -0.834388 
0.664016 -0.668319 0.335309 -0.493435 0.869163 -0.0328352 -0.392137 0.917197 -0.0705536 
-0.282984 0.953179 0.106633 -0.228057 0.766111 0.600887 -0.11646 0.806178 0.580099 
0.254861 0.580276 0.773515 0.427899 -0.902274 0.0529529 0.595047 -0.697115 0.399937 
0.612038 -0.58359 0.533697 0.551759 -0.303588 0.776786 -0.564261 0.454851 -0.688999 
-0.475773 0.792921 -0.380679 0.282267 0.379691 0.881 0.54971 -0.577693 0.603399 
-0.613061 0.393307 -0.685175 -0.563291 0.771705 -0.295255 -0.439434 0.89151 -0.110039 
0.425728 0.0970297 0.899634 -0.21206 0.849547 0.483013 0.296506 0.437357 0.849001 
-0.178896 -0.737899 -0.65077 -0.615934 0.172652 -0.768646 -0.643143 0.37051 -0.670141 
-0.641994 0.45033 -0.620521 -0.371717 0.926862 -0.0524803 -0.0995824 0.775044 0.624011 
-0.136926 0.684424 0.716111 0.280187 0.405894 0.869911 0.114543 0.705557 0.699335 
0.161642 -0.922999 -0.349205 0.293473 -0.8878 -0.35452 0.473743 -0.879926 -0.0360238 
0.615324 -0.619141 0.487895 -0.714251 0.516943 -0.471821 -0.68775 0.638322 -0.345753 
-0.617018 0.705898 -0.347846 -0.613829 0.782997 -0.10064 -0.283962 0.917737 0.277713 
-0.384756 0.903813 -0.187308 -0.223066 0.890981 0.395466 -0.104261 0.825543 0.554624 
0.0978432 0.637852 0.763918 0.0345138 0.637755 0.769465 -0.556861 -0.148005 -0.817313 
-0.574413 0.818519 -0.00873987 -0.308524 0.94889 0.0664875 -0.0259103 0.763491 0.645298 
-0.46279 -0.551374 -0.694127 -0.262637 -0.697794 -0.666412 -0.240822 -0.644866 -0.725364 
0.610073 -0.786353 -0.0972587 0.569756 -0.819109 0.0666304 0.394745 -0.918005 0.0379954 
0.667212 -0.694074 0.270351 0.437154 0.146616 0.887356 -0.317366 0.63212 0.706897 
0.537927 0.683166 0.493881 0.275352 0.592158 0.757317 -0.223318 0.864072 0.45112 
-0.245798 0.377069 0.892974 0.380557 0.803522 0.457744 -0.0367775 0.599066 0.799855 
0.37024 -0.901435 -0.22436 0.377587 -0.912166 -0.159312 0.477121 -0.844241 -0.244157 
0.523072 -0.851388 -0.0391728 0.402669 -0.828723 0.388685 0.545982 -0.763937 0.343953 
0.654348 -0.738832 0.161111 -0.682247 0.528605 -0.50509 -0.595395 0.747944 -0.293401 
-0.166778 0.799845 0.57657 -0.0476529 0.71146 0.701109 0.179279 0.445095 0.877354 
0.239525 0.484178 0.841546 0.546755 0.22715 0.805892 -0.363487 -0.670703 -0.646556 
-0.163114 -0.813773 -0.557824 0.649782 -0.671266 0.356631 0.695917 -0.452646 0.557504 
-0.587124 0.310191 -0.747708 0.499725 0.091219 0.861367 -0.196032 0.938125 0.285471 
0.355368 0.344893 0.868771 -0.116857 0.69641 0.708066 -0.319356 -0.853299 -0.412179 
0.134536 -0.827338 -0.545355 0.641876 -0.759592 0.104952 0.643984 -0.647216 0.407917 
-0.736943 0.0359388 -0.674998 0.698642 -0.435794 0.567435 -0.598218 0.54249 -0.58978 
-0.657421 0.655949 -0.370848 -0.665699 0.711831 -0.223922 -0.589234 0.807625 -0.0233468 
-0.280946 0.91089 0.302239 -0.131113 0.754457 0.64312 0.0347904 0.552145 0.833022 
0.123252 0.517605 0.846696 -0.632337 -0.644847 -0.429328 -0.779029 -0.560285 -0.281414 
-0.712696 -0.331071 -0.61843 -0.873975 -0.380833 -0.301885 -0.903713 -0.207463 -0.374515 
0.606743 -0.772822 0.186034 0.661148 -0.25304 0.706296 -0.803762 0.183098 -0.566075 
-0.76033 0.370001 -0.533851 -0.702732 0.705568 -0.0913283 -0.544476 0.833937 0.0899706 
-0.53826 0.838886 -0.0809097 -0.0928856 0.795385 0.598945 0.494558 0.207253 0.844073 
0.218788 0.33318 0.917128 0.107649 0.438179 0.892419 -0.65636 -0.731194 -0.185866 
-0.811634 -0.525386 -0.255382 -0.862317 -0.495954 -0.102177 0.0663595 -0.936812 -0.343483 
0.493597 -0.869595 -0.012922 -0.92314 -0.26095 -0.282342 0.619524 -0.777918 0.10504 
0.713603 -0.383608 0.586188 -0.759082 0.604201 -0.242356 -0.595349 0.803152 0.0224934 
-0.299884 0.880043 0.368231 -0.425173 0.862946 0.273043 -0.435053 0.873667 0.217793 
0.362469 0.253076 0.896978 0.0762505 0.652791 0.753691 0.341276 0.420023 0.840899 
-0.556137 -0.785647 0.271056 -0.435167 -0.90016 -0.0184833 -0.723055 -0.669888 0.168647 
0.616541 -0.785906 0.047213 -0.920398 -0.370934 0.123598 -0.973713 0.0514781 -0.221886 
-0.919996 0.1838 -0.346158 -0.900508 0.376209 -0.218066 0.521998 0.0980579 0.847292 
-0.666172 0.736687 0.11622 -0.420954 0.878478 0.225996 -0.413526 0.847058 0.3339 
-0.101906 0.808102 0.58016 -0.405473 -0.911379 0.0705744 -0.329978 -0.943687 -0.0238422 
-0.160343 -0.89072 -0.425333 0.474515 -0.863656 0.170098 -0.735365 -0.524293 0.429366 
0.675201 -0.699754 0.233341 0.763659 -0.546432 0.343857 -0.507296 0.7791 0.368312 
0.219763 -0.86671 -0.447792 -0.531094 -0.774764 0.343045 0.354648 -0.932396 -0.0697296 
-0.692401 -0.55634 0.45942 0.57278 -0.757889 0.312294 0.716893 -0.593399 0.365981 
-0.819715 -0.358276 0.446884 0.718594 -0.505928 0.477137 0.719804 -0.225117 0.656661 
-0.94863 -0.154106 0.276319 -0.99201 0.0892349 0.0891785 -0.925902 0.092651 0.366225 
-0.958406 0.285375 0.00423325 -0.79411 0.605531 0.0521671 0.0745935 0.575209 0.814598 
-0.202928 -0.931576 -0.301639 -0.640122 -0.468372 0.608992 -0.789765 -0.188806 0.58363 
-0.831217 0.291683 0.473286 -0.669658 0.442978 0.596095 -0.433767 0.696091 0.572105 
-0.63358 0.668665 0.389183 -0.447087 -0.894473 -0.00555876 -0.409799 -0.911984 0.0186827 
-0.0713781 -0.941683 -0.328844 -0.770473 0.00483868 0.637455 -0.621028 0.301942 0.723294 
-0.154728 0.745286 0.648543 0.450733 0.27412 0.849528 0.258953 0.59628 0.759864 
-0.438547 -0.875486 0.202983 0.123302 -0.96946 -0.211998 0.644771 -0.711522 0.279297 
-0.625733 0.151605 0.765163 -0.231939 0.68244 0.693166 -0.58782 -0.798805 0.127976 