# vtk DataFile Version 4.2
vtk output
ASCII
DATASET POLYDATA
POINTS 382 float
429.416 193.596 194.136 430.293 193.271 194.352 430.638 193.487 194.227 
430.755 193.934 194.042 427.006 194.276 194.182 426.583 194.302 194.382 
433.323 194.581 194.311 426.806 194.525 194.227 426.905 194.787 194.222 
434.022 195.235 194.307 428.442 195.33 193.905 428.97 195.329 193.843 
433.247 195.952 194.055 434.532 196.256 194.358 434.812 196.273 194.51 
431.026 196.099 193.944 433.33 196.469 194.101 433.646 196.778 194.227 
434.33 196.488 194.313 434.564 196.82 194.482 428.016 192.998 194.907 
431.109 193.238 194.49 432.495 193.706 194.553 426.003 194.194 194.808 
432.703 193.993 194.415 433.574 194.59 194.412 425.875 194.638 194.848 
434.333 195.318 194.432 434.475 195.209 194.602 426.143 195.127 194.858 
427.543 195.488 194.245 435.292 196.429 194.929 427.541 195.87 194.457 
434.973 196.933 194.747 435.333 196.775 194.988 431.619 197.21 194.375 
434.286 197.713 194.833 434.813 197.73 195.064 427.348 192.86 195.554 
428.444 192.703 195.214 429.938 192.495 195.362 430.785 192.75 195.158 
425.739 194 195.224 425.648 193.973 195.442 425.603 194.128 195.308 
433.464 193.977 195.116 434.019 194.471 194.983 434.676 194.995 195.032 
425.536 194.642 195.475 434.96 195.221 195.285 435.613 196.375 195.46 
426.483 195.784 195.185 435.606 196.976 195.359 435.744 196.726 195.616 
428.871 197.259 195.26 432.517 198.189 195.107 433.808 198.146 195.062 
435.668 197.68 195.719 435.347 198.221 195.779 426.742 192.987 196.147 
425.667 193.885 195.806 433.547 193.804 195.731 425.445 194.397 195.695 
435.173 195.305 195.69 425.578 194.947 195.699 435.918 196.853 196.115 
433.584 198.866 195.852 425.398 194.69 196.174 435.509 195.644 196.484 
425.488 194.927 196.1 435.674 196.036 196.174 427.289 196.877 196.236 
436.181 197.902 197.175 433.616 199.398 196.728 435.424 199.205 197.072 
435.796 199.121 197.41 435.944 199.203 197.821 429.002 192.208 197.033 
430.149 192.234 196.78 426.106 193.455 197.221 425.47 194.244 196.386 
425.662 193.969 196.768 425.424 194.569 196.471 435.241 199.886 198.072 
435.131 200.01 198.328 435.523 199.778 198.075 435.958 199.431 198.302 
435.673 199.854 198.41 426.865 192.864 197.627 435.523 195.661 197.564 
430.495 198.998 198.436 436.141 199.183 198.722 434.885 200.048 198.446 
435.845 199.741 198.599 435.479 200.061 198.839 429.402 192.311 198.075 
426.098 193.812 198.027 433.51 193.684 197.802 425.744 194.712 197.947 
425.947 195.477 198.454 426.137 195.812 198.719 435.948 199.641 199.441 
435.37 200.118 199.152 427.695 192.693 198.769 429.386 192.534 198.883 
431.691 193.004 198.996 426.774 193.757 199.189 432.608 193.391 198.881 
426.167 194.554 198.945 425.985 195.186 198.75 435.363 196.015 199.444 
426.228 195.812 199.082 427.276 196.89 199.324 429.975 198.546 200.105 
436.208 198.588 199.633 430.479 198.958 199.254 431.148 199.049 200.165 
433.673 199.895 199.926 435.75 199.897 199.489 435.8 199.727 199.986 
435.521 200.057 199.5 430.564 193.123 199.753 428.108 193.348 199.874 
428.565 193.199 199.854 426.162 194.94 199.101 434.515 195.254 200.025 
426.253 195.662 199.271 435.596 196.728 200.343 435.932 197.165 199.833 
436.019 199.089 200.35 434.719 200.002 200.23 435.38 200.049 199.875 
435.526 199.892 200.222 427.622 193.829 200.054 426.798 195.256 200.119 
434.078 195.303 200.776 426.753 195.574 200.075 426.914 195.877 200.223 
426.937 196.089 200.124 428.372 197.034 200.797 429.536 197.905 200.973 
435.591 199.626 200.926 435.611 199.421 201.244 428.942 194.432 201.092 
430.317 194.342 201.246 428.031 195.916 201.288 428.168 196.192 201.313 
429.145 196.827 201.708 435.118 197.142 201.718 429.74 197.625 201.518 
431.481 198.461 201.701 433.854 199.299 201.764 434.625 199.729 201.168 
435.441 199.622 201.147 435.242 199.678 201.198 427.914 195.249 201.107 
428.224 195.75 201.431 428.622 195.929 201.665 428.644 196.157 201.67 
433.336 196.349 202.537 434.627 196.603 201.781 429.599 196.948 201.937 
429.836 196.74 202.099 434.172 196.961 202.519 430.283 197.4 202.056 
431.786 197.833 202.413 435.436 198.28 201.986 434.083 199.119 202.122 
435.588 199.114 201.797 435.445 199.102 201.951 435.55 199.025 201.93 
435.22 199.24 201.897 432.394 196.102 202.55 432.106 196.289 202.68 
431.477 196.753 202.597 432.082 196.547 202.765 432.03 197.351 202.724 
434.741 198.02 202.663 434.968 198.329 202.543 435.435 198.875 202.069 
435.194 198.777 202.315 434.6 198.869 202.448 432.593 196.733 202.923 
433.099 196.926 202.999 432.802 196.988 203.039 433.447 197.345 203.089 
432.936 197.218 203.077 433.604 197.735 203.189 433.962 197.736 203.131 
433.455 197.961 203.074 434.974 198.586 202.513 432.996 197.067 203.093 
433.955 197.912 203.268 433.835 197.851 203.267 433.727 197.911 203.248 
433.87 197.947 203.292 433.957 198.006 203.261 433.29 196.731 253.681 
433.513 196.62 253.762 432.725 197.246 253.641 432.828 197.438 253.697 
433.736 197.107 253.692 433.627 197.402 253.74 434.087 197.607 253.868 
428.88 195.063 254.684 428.633 195.126 254.795 430.255 195.373 254.327 
430.122 195.641 254.306 431.908 196.02 253.989 434.228 196.791 253.91 
434.124 196.549 254.039 435.303 198.68 254.837 428.366 195.035 254.982 
428.214 194.774 255.156 428.832 194.583 254.951 431.376 195.566 254.263 
428.494 195.366 254.942 431.202 197.07 254.114 435.382 197.705 254.486 
432.925 198.322 254.297 435.776 198.322 254.991 433.917 199.054 254.934 
434.879 199.059 255.12 435.298 198.896 255.118 427.845 194.653 255.524 
427.685 195.263 255.657 427.655 195.67 255.878 428.267 196.019 255.475 
428.489 196.583 255.76 430.997 197.638 254.594 431.37 197.982 254.663 
435.872 197.616 255.073 436.06 197.96 255.457 433.402 199.254 255.44 
436.034 198.338 255.568 435.595 198.961 255.52 435.906 198.705 255.693 
428.099 193.648 256.287 428.966 193.694 255.832 430.359 193.411 256.082 
427.773 194.108 255.964 427.452 194.416 256.052 432.633 194.469 255.471 
427.23 194.756 256.132 426.934 194.79 256.525 434.409 195.362 255.61 
427.501 195.974 256.257 435.948 197.438 255.343 429.026 197.204 255.909 
430.865 198.074 255.182 436.107 197.598 255.75 434.213 199.754 256.363 
436.014 198.85 256.208 427.121 193.576 257.204 431.881 193.07 257.152 
426.973 193.884 256.97 426.57 194.177 257.218 433.47 194.541 255.902 
426.347 194.382 257.469 435.57 196.446 255.802 426.694 195.582 257.182 
426.975 195.892 256.937 431.423 198.847 256.155 435.641 199.622 257.02 
435.336 199.955 257.347 429.388 192.386 258.222 426.596 193.526 257.924 
433.343 193.782 257.296 426.318 194.078 257.695 436.31 197.641 257.104 
429.127 197.991 257.503 429.865 198.292 257.117 431.039 198.843 256.861 
436.283 198.566 257.37 435.917 199.458 257.562 435.557 199.9 257.62 
430.892 192.407 258.412 426.668 193.151 258.871 426.133 193.761 258.395 
425.968 193.931 258.619 425.89 194.323 258.603 435.286 195.378 257.622 
436.034 196.638 256.988 428.304 197.72 258.892 435.762 199.741 257.863 
435.267 200.031 258.195 426.27 193.417 258.928 426.061 193.576 259.182 
425.623 194.44 259.397 425.791 195.403 259.422 433.593 199.803 258.687 
435.753 199.746 258.331 435.892 199.544 258.593 434.862 200.036 258.695 
435.512 199.9 258.511 427.183 192.765 259.817 428.59 192.324 259.907 
429.646 192.219 259.569 425.443 194.366 259.914 425.348 194.465 260.202 
425.428 194.646 259.884 425.339 194.726 260.275 425.831 195.647 260.26 
429.207 198.006 260.065 432.089 199.122 259.295 435.482 199.436 259.707 
435.461 199.832 259 435.227 199.926 259.065 435.313 199.826 259.271 
429.091 192.329 260.215 430.846 192.413 259.891 430.753 192.478 260.244 
431.898 192.772 260.025 425.469 194.153 260.259 435.988 196.879 259.654 
436.097 197.468 259.694 427.321 196.924 260.355 436.024 198.45 259.776 
430.036 198.243 260.168 435.377 199.205 260.122 428.445 192.54 260.756 
431.528 192.807 260.582 432.517 193.202 260.59 425.35 194.616 260.792 
425.381 194.811 260.911 426.002 195.771 260.93 428.908 197.462 260.972 
431.383 198.382 260.633 435.675 198.743 260.321 435.132 199.056 260.412 
428.053 192.888 261.297 429.212 192.725 261.177 426.633 193.615 261.34 
430.368 192.848 261.156 425.57 194.358 261.072 433.073 194.004 261.36 
425.702 194.484 261.302 434.29 194.709 261.005 434.759 195.024 260.781 
425.484 194.846 261.131 425.468 194.999 261.018 435.183 195.801 261.037 
435.516 196.556 261.009 425.969 195.533 261.35 426.857 196.102 261.491 
429.677 197.365 261.459 429.937 197.201 261.681 431.034 197.735 261.387 
433.383 198.208 261.254 435.328 198.403 260.863 435.484 198.661 260.603 
428.416 193.409 261.83 431.798 193.412 261.403 426.638 194.126 261.759 
432.243 193.851 261.639 434.445 195.088 261.28 434.173 195.184 261.544 
426.249 194.845 261.785 426.278 195.127 261.813 426.54 195.288 261.92 
426.557 195.492 261.856 435.08 196.526 261.457 427.466 196.157 261.821 
428.093 196.074 262.074 428.348 196.403 261.92 429.032 196.567 261.947 
431.308 197.317 261.773 432.506 197.381 261.825 435.414 197.668 261.066 
435.047 197.535 261.366 434.65 197.604 261.484 430.137 194.686 262.32 
432.763 194.765 261.911 427.594 195.176 262.202 429.899 195.212 262.372 
428.049 195.674 262.192 430.479 195.768 262.323 430.193 196.271 262.199 
431.895 196.448 262.151 434.914 196.787 261.55 435.55 199.025 201.93 
435.988 196.879 259.654 
POLYGONS 752 3008
3 4 0 20 
3 1 0 3 
3 2 1 3 
3 3 22 21 
3 2 3 21 
3 3 0 11 
3 22 12 24 
3 24 12 6 
3 4 5 7 
3 7 8 4 
3 0 4 8 
3 10 0 8 
3 11 0 10 
3 12 22 3 
3 25 6 12 
3 25 12 9 
3 12 3 15 
3 27 9 12 
3 27 12 13 
3 16 12 35 
3 16 17 12 
3 12 17 13 
3 18 13 17 
3 18 14 13 
3 14 18 19 
3 0 39 20 
3 1 2 41 
3 1 41 0 
3 41 2 21 
3 5 4 23 
3 23 26 5 
3 7 5 8 
3 9 27 28 
3 26 29 5 
3 5 29 8 
3 8 30 10 
3 10 30 11 
3 27 13 28 
3 13 14 28 
3 8 29 51 
3 30 8 51 
3 32 30 51 
3 30 32 11 
3 11 15 3 
3 15 35 12 
3 31 14 33 
3 33 34 31 
3 15 11 32 
3 35 15 54 
3 16 35 17 
[...]
POINT_DATA 382
SCALARS scalars float
LOOKUP_TABLE default
1 1 1 1 1 1 1 1 1 
1 1 1 1 1 1 1 1 1 
1 1 1 1 1 1 1 1 1 
1 1 1 1 1 1 1 1 1 
1 1 1 1 1 1 1 1 1 
1 1 1 1 1 1 1 1 1 
1 1 1 1 1 1 1 1 1 
1 1 1 1 1 1 1 1 1 
1 1 1 1 1 1 1 1 1 
1 1 1 1 1 1 1 1 1 
1 1 1 1 1 1 1 1 1 
1 1 1 1 1 1 1 1 1 
1 1 1 1 1 1 1 1 1 
1 1 1 1 1 1 1 1 1 
1 1 1 1 1 1 1 1 1 
1 1 1 1 1 1 1 1 1 
1 1 1 1 1 1 1 1 1 
1 1 1 1 1 1 1 1 1 
1 1 1 1 1 1 1 1 1 
1 1 1 1 1 1 1 1 1 
1 1 1 1 1 1 1 1 1 
1 1 1 1 1 1 1 1 1 
1 1 1 1 1 1 1 1 1 
1 1 1 1 1 1 1 1 1 
1 1 1 1 1 1 1 1 1 
1 1 1 1 1 1 1 1 1 
1 1 1 1 1 1 1 1 1 
1 1 1 1 1 1 1 1 1 
1 1 1 1 1 1 1 1 1 
1 1 1 1 1 1 1 1 1 
1 1 1 1 1 1 1 1 1 
1 1 1 1 1 1 1 1 1 
1 1 1 1 1 1 1 1 1 
1 1 1 1 1 1 1 1 1 
1 1 1 1 1 1 1 1 1 
1 1 1 1 1 1 1 1 1 
1 1 1 1 1 1 1 1 1 
1 1 1 1 1 1 1 1 1 
1 1 1 1 1 1 1 1 1 
1 1 1 1 1 1 1 1 1 
1 1 1 1 1 1 1 1 1 
1 1 1 1 1 1 1 1 1 
1 1 1 1 
NORMALS Normals float
-0.0688042 -0.498957 -0.863891 -0.0111988 -0.644397 -0.764609 0.0797435 -0.604393 -0.792686 
0.0913944 -0.288244 -0.953185 -0.277392 -0.436837 -0.855703 -0.554568 -0.0570412 -0.830181 
0.33681 -0.571607 -0.748214 -0.458199 0.0387091 -0.888007 -0.368608 0.219554 -0.903285 
0.356458 -0.304843 -0.883181 -0.169628 0.206033 -0.963731 -0.0892498 0.260926 -0.961224 
0.116995 -0.0350769 -0.992513 0.372745 -0.0608015 -0.92594 0.589746 -0.0309265 -0.806996 
-0.068598 0.31934 -0.945154 0.085102 0.172635 -0.981303 0.165222 0.219829 -0.961445 
0.275465 0.211704 -0.93771 0.365845 0.296901 -0.882047 -0.356685 -0.656505 -0.664663 
0.177754 -0.655602 -0.733886 0.249675 -0.661404 -0.707253 -0.568847 -0.445286 -0.691472 
0.142548 -0.440718 -0.886255 0.363195 -0.522577 -0.771364 -0.728793 0.101536 -0.677164 
0.453213 -0.21402 -0.865329 0.603674 -0.42752 -0.672907 -0.626123 0.411919 -0.662037 
-0.331325 0.51847 -0.788298 0.741432 -0.230672 -0.630135 -0.331185 0.606587 -0.72275 
0.5394 0.293063 -0.789406 0.742849 0.0961227 -0.662522 -0.0624143 0.451612 -0.890029 
0.198994 0.514261 -0.834229 0.491542 0.454257 -0.742992 -0.366783 -0.887456 -0.279092 
-0.120009 -0.904119 -0.410081 0.123472 -0.933444 -0.336805 0.155258 -0.881557 -0.445815 
-0.501955 -0.733323 -0.458562 -0.715363 -0.660518 -0.227973 -0.884269 -0.259433 -0.388282 
0.678238 -0.605777 -0.415966 0.518974 -0.762453 -0.386434 0.666954 -0.702535 -0.248229 
-0.871265 0.300961 -0.387711 0.792261 -0.397524 -0.462923 0.847262 -0.250136 -0.468592 
-0.643382 0.625384 -0.441537 0.79491 0.179054 -0.579705 0.930656 -0.125675 -0.343635 
-0.300025 0.760131 -0.576355 -0.104314 0.714037 -0.692293 0.158514 0.69123 -0.705035 
0.780046 0.353111 -0.516567 0.440378 0.629842 -0.639817 -0.635651 -0.744758 -0.203184 
-0.765406 -0.639725 -0.0700352 0.504171 -0.862134 -0.0503607 -0.985221 -0.0357612 -0.167512 
0.754039 -0.640102 -0.147287 -0.870233 0.423115 -0.252326 0.978566 -0.119116 -0.167985 
0.0694585 0.806982 -0.586478 -0.995078 0.0990156 0.00384979 0.888659 -0.458568 9.47577e-06 
-0.886935 0.459595 -0.0460296 0.88182 -0.407121 -0.238004 -0.573217 0.785951 -0.23174 
0.985535 0.0528714 -0.161016 -0.141299 0.932311 -0.332912 0.358364 0.774154 -0.521786 
0.734271 0.535176 -0.417651 0.715766 0.567075 -0.407559 -0.179728 -0.983677 0.00880015 
0.151426 -0.98729 -0.0482574 -0.761705 -0.621081 0.184565 -0.910096 -0.409574 0.0630521 
-0.930538 -0.35052 0.105999 -0.975737 0.0298531 0.216903 0.193124 0.833195 -0.51816 
0.154422 0.937681 -0.3113 0.413158 0.716026 -0.562679 0.860783 0.47987 -0.169636 
0.545005 0.778585 -0.311088 -0.453927 -0.887469 0.079681 0.819609 -0.570067 0.0571367 
-0.413791 0.908687 -0.0553563 0.947482 0.317039 -0.0420087 -0.0862365 0.967391 -0.238157 
0.764948 0.633472 -0.116478 0.381004 0.915282 -0.130748 0.184802 -0.970449 0.155165 
-0.85476 -0.416621 0.309535 0.703522 -0.704569 0.0929411 -0.968292 -0.134605 0.210458 
-0.90333 0.427683 0.0328979 -0.750609 0.653883 -0.0949891 0.899795 0.430816 0.0690383 
0.221542 0.975093 -0.0106101 -0.425746 -0.850563 0.308679 -0.0753158 -0.897457 0.434624 
0.318286 -0.861372 0.395894 -0.650418 -0.516488 0.556953 0.401652 -0.909883 0.103868 
-0.851776 -0.285769 0.439106 -0.939001 -0.00231447 0.343907 0.774329 -0.582605 0.246954 
-0.821048 0.453852 0.346264 -0.63064 0.772065 0.0787899 -0.596761 0.776842 0.200979 
0.986863 0.0384046 0.156926 -0.668788 0.736423 -0.102002 -0.311807 0.924467 0.219401 
-0.215221 0.974711 0.0601452 0.710927 0.702831 0.0247111 0.837545 0.507471 0.202462 
0.451205 0.889268 0.0749467 0.11338 -0.848437 0.517011 -0.307299 -0.731957 0.608117 
-0.119297 -0.707162 0.696914 -0.871719 -0.16277 0.462183 0.668425 -0.667206 0.3287 
-0.870735 0.13583 0.472621 0.800457 -0.501286 0.328604 0.932096 -0.304643 0.195935 
0.924324 0.275455 0.264102 -0.001721 0.969301 0.24587 0.208883 0.966803 0.147172 
0.517329 0.799497 0.305245 -0.429848 -0.524974 0.734597 -0.736807 -0.185914 0.65004 
0.536495 -0.70046 0.470668 -0.798982 0.172759 0.576005 -0.760152 0.230459 0.607501 
-0.742919 0.446994 0.498265 -0.623416 0.590936 0.512004 -0.695652 0.663128 0.276276 
0.538381 0.798327 0.26985 0.664666 0.614017 0.425678 -0.183349 -0.591236 0.785381 
0.02961 -0.614903 0.788047 -0.688345 0.163139 0.7068 -0.62534 0.272488 0.731232 
-0.52188 0.401527 0.752607 0.828997 -0.358788 0.428993 -0.444273 0.702598 0.555858 
-0.272817 0.650087 0.709195 -0.198469 0.877614 0.436352 -0.0524472 0.89521 0.442548 
0.435375 0.774257 0.45932 0.284978 0.861572 0.420097 -0.533199 -0.297712 0.791876 
-0.479906 -0.116612 0.869535 -0.357206 -0.16101 0.920043 -0.517582 0.272567 0.811058 
0.347701 -0.666684 0.65927 0.509148 -0.702624 0.497079 -0.520509 0.467662 0.714397 
-0.276599 0.0354602 0.960331 0.449276 -0.525656 0.722383 -0.211045 0.354733 0.910837 
-0.371566 0.410453 0.832747 0.867247 -0.165577 0.46954 -0.0924046 0.812967 0.574931 
0.886545 0.305399 0.347519 0.458544 0.581645 0.671883 0.562355 -0.751284 -0.345441 
0.224845 0.774477 0.591295 0.189976 -0.65428 0.732002 -0.147473 -0.368303 0.917935 
-0.338698 -0.000356579 0.940895 -0.0160765 -0.495312 0.868566 -0.361676 0.184079 0.91395 
0.609239 -0.227651 0.759607 0.662932 -0.110872 0.740425 0.813302 -0.0396608 0.580489 
0.532792 0.322919 0.782212 0.0788394 0.748134 0.658848 -0.276591 -0.232596 0.932414 
0.179541 -0.598814 0.780504 -0.277353 -0.191495 0.941491 0.219062 -0.350517 0.910576 
-0.311345 0.136794 0.9404 -0.146485 -0.198331 0.969127 0.190659 -0.554583 0.809992 
-0.343236 0.559251 0.754604 0.470356 0.219898 0.854641 -0.0167367 -0.231137 0.972777 
0.389048 -0.278608 0.878077 0.00870709 -0.397477 0.917571 -0.370417 0.09006 0.924489 
-0.110245 0.213727 0.970653 0.130779 0.496831 0.857937 0.040287 -0.160863 -0.986154 
0.21723 -0.535151 -0.816348 -0.196377 0.159832 -0.967414 -0.160349 0.465576 -0.87036 
0.239544 -0.0938699 -0.966337 0.0550273 0.29213 -0.954794 0.194218 0.466026 -0.863191 
-0.316953 -0.0902684 -0.944136 -0.475088 -0.114 -0.872522 -0.0455088 -0.448711 -0.892517 
-0.225508 -0.0586279 -0.972476 0.112125 -0.508163 -0.853931 0.541205 -0.448232 -0.711467 
0.331826 -0.55473 -0.762998 0.419214 0.627126 -0.656485 -0.714118 0.064462 -0.697051 
-0.653322 -0.0298134 -0.756493 -0.296053 -0.565714 -0.769624 0.0614315 -0.59391 -0.802183 
-0.581741 0.277221 -0.764674 -0.51013 0.396407 -0.763301 0.562197 0.0171226 -0.826826 
-0.204639 0.628118 -0.750727 0.690232 0.314297 -0.651764 0.0115684 0.767196 -0.641309 
0.186504 0.822112 -0.537911 0.359845 0.705881 -0.610118 -0.563642 -0.433114 -0.703363 
-0.686262 0.0715832 -0.723823 -0.683352 0.340343 -0.645908 -0.632444 0.3894 -0.669614 
-0.608971 0.624478 -0.489062 -0.762733 0.334722 -0.553353 -0.35617 0.704909 -0.613389 
0.819492 -0.170019 -0.54729 0.82103 0.107133 -0.560743 -0.213084 0.904385 -0.369707 
0.862825 0.269914 -0.42741 0.504877 0.761519 -0.406432 0.690176 0.475755 -0.545265 
-0.379313 -0.787126 -0.486368 -0.14325 -0.724558 -0.674162 0.0258409 -0.83842 -0.544411 
-0.499026 -0.620431 -0.605011 -0.683105 -0.406947 -0.606434 0.262859 -0.73238 -0.628113 
-0.766876 -0.0895256 -0.635521 -0.811732 0.0524841 -0.581667 0.52853 -0.70059 -0.479405 
-0.702771 0.496709 -0.509306 0.884854 -0.304751 -0.352363 -0.59002 0.667876 -0.453672 
-0.620946 0.656243 -0.428685 0.976236 -0.135315 -0.169272 -0.0811301 0.957394 -0.277153 
0.846548 0.452299 -0.280682 -0.499984 -0.745781 -0.440257 0.267437 -0.874136 -0.405419 
-0.654282 -0.493182 -0.573311 -0.768611 -0.339135 -0.542425 0.407053 -0.702576 -0.58369 
-0.944374 0.0370197 -0.326784 0.752333 -0.536454 -0.382377 -0.89211 0.325992 -0.312841 
-0.766851 0.510709 -0.388735 -0.321664 0.906208 -0.274444 0.672579 0.663481 -0.327767 
0.193438 0.943122 -0.270376 -0.14949 -0.95099 -0.270688 -0.50564 -0.769952 -0.389233 
0.531098 -0.816696 -0.225702 -0.910202 -0.227273 -0.346237 0.949702 -0.312977 -0.0105655 
-0.621098 0.753418 -0.215865 -0.517637 0.834388 -0.189339 -0.396542 0.909786 -0.122651 
0.98017 0.195252 -0.0338029 0.844595 0.520786 -0.124264 0.597141 0.790325 -0.137147 
0.315164 -0.935956 -0.157031 -0.487626 -0.852407 -0.188742 -0.772292 -0.529647 -0.35077 
-0.886862 -0.404593 -0.223117 -0.942601 -0.0889955 -0.321844 0.806497 -0.591219 -0.00465834 
0.872358 -0.479822 -0.0936102 -0.535644 0.839267 -0.0933629 0.659134 0.751478 -0.0286842 
0.309598 0.950634 0.0210896 -0.684388 -0.707647 -0.175641 -0.792956 -0.60256 -0.0902315 
-0.917097 -0.201379 -0.344063 -0.843759 0.469459 -0.260151 -0.225935 0.953666 0.198684 
0.744244 0.665551 0.0560642 0.82234 0.523163 0.223738 0.0697781 0.993845 0.0860382 
0.481048 0.867643 0.125648 -0.413604 -0.910401 0.0101203 -0.262579 -0.961509 0.080954 
0.0287794 -0.995138 0.0941938 -0.905623 -0.306869 -0.292707 -0.978518 -0.168451 -0.118856 
-0.94796 0.149377 -0.281172 -0.952266 0.300194 -0.0554412 -0.747125 0.663298 -0.0429041 
-0.337875 0.894325 0.293296 -0.268201 0.953623 0.136646 0.702077 0.574917 0.420188 
0.504806 0.841651 0.19182 0.0481436 0.938043 0.343159 0.358897 0.807575 0.46799 
-0.0156922 -0.979402 0.20131 0.0565202 -0.988473 0.140452 -0.0482062 -0.937984 0.343311 
0.43933 -0.883119 0.164593 -0.800186 -0.599581 0.0142914 0.897771 -0.0942645 0.430258 
0.877093 -0.0842868 0.472868 -0.58055 0.794806 0.176761 0.873147 0.193478 0.447414 
-0.284005 0.918856 0.273943 0.483822 0.731683 0.480163 -0.140351 -0.899363 0.414063 
0.303722 -0.877499 0.371144 0.519697 -0.829892 0.202964 -0.957087 -0.183861 0.224009 
-0.960286 0.161409 0.227592 -0.703413 0.698697 0.130509 -0.322182 0.772598 0.547075 
-0.115866 0.820957 0.55911 0.728326 0.420304 0.541189 0.204593 0.739709 0.641071 
-0.300621 -0.844053 0.444074 0.0310782 -0.784404 0.619471 -0.507555 -0.654868 0.559943 
-0.0152702 -0.866169 0.499518 -0.762272 -0.462958 0.452339 0.437842 -0.607787 0.662487 
-0.63734 -0.253963 0.727531 0.544676 -0.655131 0.523575 0.772413 -0.617824 0.147211 
-0.816694 0.0351369 0.576 -0.867081 0.435774 0.241395 0.780929 -0.430401 0.452663 
0.878859 -0.370085 0.301072 -0.661068 0.501525 0.558088 -0.47553 0.781853 0.403208 
-0.204979 0.779418 0.592023 -0.122384 0.654672 0.74594 -0.124148 0.75269 0.646564 
-0.0918997 0.769428 0.632087 0.529937 0.367779 0.764137 0.559411 0.49368 0.665838 
-0.0990321 -0.459732 0.882519 0.27036 -0.783405 0.559627 -0.396538 -0.402121 0.825261 
0.20479 -0.569405 0.79614 0.549736 -0.539478 0.637773 0.403338 -0.343151 0.848272 
-0.424955 -0.208086 0.880973 -0.587776 0.142656 0.796347 -0.294297 0.0629895 0.953636 
-0.452452 0.449939 0.769962 0.60067 -0.133891 0.788206 -0.302514 0.532956 0.790217 
-0.114362 0.387831 0.914608 -0.189808 0.615047 0.765304 -0.166359 0.456243 0.874167 
-0.0389468 0.53467 0.844163 0.0545832 0.375743 0.925115 0.666489 0.241148 0.705436 
0.478099 0.266078 0.837033 0.242054 0.396738 0.885443 0.0887115 -0.195439 0.976695 
0.307402 -0.360247 0.880753 -0.197878 0.0351961 0.979594 -0.0551706 0.0254761 0.998152 
-0.107159 0.277966 0.954595 -0.000907899 0.156776 0.987634 -0.0637607 0.345907 0.9361 
0.0926255 0.138297 0.98605 0.292041 0.0441788 0.955385 0.509795 0.510038 0.692799 
-0.248965 -0.918966 -0.305806 
