# vtk DataFile Version 4.2
vtk output
ASCII
DATASET POLYDATA
POINTS 1487 float
238.107 230.992 90.0528 238.008 231.022 90.1288 237.866 231.07 90.2389 
238.235 230.949 89.9531 238.199 230.96 89.9807 238.319 230.921 89.8865 
238.316 230.921 89.8881 238.347 230.91 89.8633 238.046 231.014 90.1031 
238.204 230.96 89.9787 238.307 230.924 89.8954 237.986 231.029 90.1474 
237.704 231.112 90.3581 238.187 230.965 89.991 237.917 231.057 90.2071 
238.305 230.925 89.897 237.74 231.119 90.3447 237.38 231.219 90.5975 
237.633 231.162 90.4407 237.536 231.195 90.5214 237.431 231.238 90.6099 
235.765 231.418 91.4489 235.518 231.389 91.5839 236.249 231.378 91.2322 
236.601 231.332 91.0681 236.271 231.35 91.2507 237.688 231.118 90.3755 
236.041 231.472 91.345 236.701 231.362 91.0124 237.098 231.271 90.8026 
237.056 231.376 90.921 236.928 231.401 90.9545 236.994 231.46 91.0095 
236.778 231.52 91.1405 236.945 231.477 91.041 232.812 231.319 92.6447 
232.38 231.351 92.7372 234.377 231.426 92.0229 236.246 231.359 91.3132 
234.214 231.524 92.0818 234.127 231.847 92.2952 236.895 231.488 91.0875 
236.656 231.548 91.2976 236.6 231.604 91.3264 235.53 231.932 91.989 
236.318 231.716 91.5473 231.673 231.257 92.9789 231.47 231.2 93.0587 
231.251 231.211 93.1393 231.577 231.206 93.0565 230.421 231.29 93.3588 
230.034 231.216 93.5091 230.62 231.201 93.3509 233.865 231.364 92.4082 
230.69 231.432 93.2837 235.176 231.517 92.1086 231.814 231.666 93.0057 
236.135 231.69 91.7451 231.253 231.838 93.3186 236.354 231.653 91.5699 
236.371 231.686 91.5455 236.042 231.812 91.79 229.083 231.113 93.9174 
228.926 231.065 94.0489 228.457 231.078 94.1878 230.007 231.11 93.6744 
231.384 231.189 93.1199 229.379 231.229 93.7476 231.239 231.204 93.2786 
228.072 231.28 94.2074 235.028 231.638 92.3563 233.958 232.201 92.7471 
235.567 231.952 92.1933 235.059 232.106 92.6485 236.07 231.768 91.8058 
235.039 232.162 92.5959 234.661 232.295 92.872 224.46 230.959 95.3744 
227.173 231.025 94.6302 226.783 230.977 94.783 224.052 231.045 95.49 
225.052 231.095 95.1679 227.968 231.064 94.5193 224.64 231.146 95.3019 
234.147 231.71 92.8975 234.503 231.902 92.9073 226.101 231.6 95.063 
234.808 232.064 92.8334 234.5 232.219 93.1185 234.726 232.205 92.9415 
234.731 232.258 92.9021 234.341 232.381 93.153 223.357 230.885 95.8905 
222.91 230.909 96.0425 223.979 230.893 95.674 222.843 230.984 96.0078 
223.612 231.006 95.681 227.574 231.164 94.9752 222.536 231.164 96.1584 
231.565 231.755 94.1662 226.877 231.896 95.0559 233.859 232.475 93.5468 
233.404 232.558 93.923 234.404 232.321 93.1828 230.529 232.521 94.5739 
233.333 232.629 93.9026 233.011 232.7 94.1125 288.717 221.473 97.9813 
288.858 221.397 98.0325 289.121 221.417 97.9711 289.099 221.372 98.0148 
289.244 221.409 98.0183 289.222 221.492 98.0017 221.03 230.913 96.8206 
220.695 230.948 96.9598 221.743 230.926 96.526 221.345 230.908 96.6966 
219.633 231.03 97.3868 219.316 231.083 97.5263 220.604 231.02 96.9622 
222.543 230.922 96.3048 220.081 231.138 97.1913 219.803 231.238 97.3502 
223.209 231.426 96.0585 223.9 231.683 96.0611 232.352 232.442 94.4113 
231.234 232.581 94.5732 231.815 232.643 94.5249 233.12 232.601 94.1291 
233.122 232.66 94.1096 232.253 232.707 94.4041 232.506 232.703 94.3692 
232.819 232.701 94.2566 288.144 221.613 98.1896 287.662 221.841 98.2685 
288.449 221.489 98.1985 289.282 221.397 98.0984 287.355 222.169 98.1578 
288.837 221.802 97.9915 289.225 221.712 98.0475 289.603 221.543 98.2835 
289.672 221.704 98.2602 289.814 221.708 98.3945 285.613 222.956 98.4147 
285.042 223.097 98.5521 286.221 222.508 98.4887 287.103 222.558 98.1267 
289.286 222.361 98.2345 289.848 222.161 98.4526 284.112 223.678 98.6971 
285.238 223.561 98.3554 219.132 231.031 97.6986 218.774 231.069 97.8428 
220.851 230.925 96.924 218.053 231.139 98.2056 220.548 230.975 97.1268 
217.687 231.261 98.3218 218.971 231.186 97.7015 219.445 231.445 97.689 
221.301 231.618 97.1232 229.304 232.249 95.2627 225.663 231.964 95.8982 
229.676 232.33 95.1484 230.376 232.408 94.9198 231.42 232.501 94.6586 
229.184 232.375 95.1645 232.918 232.653 94.2409 257.372 249.285 99.0712 
258.997 249.733 99.0574 258.829 249.875 99.0815 259.138 249.796 99.1103 
258.825 249.999 99.2116 259.035 250.017 99.115 259.019 249.969 99.0931 
259.136 249.948 99.1267 259.096 250.006 99.099 287.948 221.676 98.3052 
286.791 222.199 98.4287 287.77 221.789 98.5005 289.794 221.643 98.4557 
290.214 222.042 98.7608 290.277 221.987 98.7886 290.194 221.953 98.7797 
290.283 222.05 98.8296 284.842 223.001 98.9257 285.321 222.776 98.9274 
289.999 221.865 98.6113 290.073 222.26 98.6925 290.251 222.27 98.9197 
283.823 223.521 99.2933 281.91 224.887 99.3557 281.261 225.04 99.6293 
287.33 223.626 98.3023 290.211 222.987 99.0936 280.9 225.518 99.5173 
279.42 226.241 99.9434 279.781 225.892 99.9635 281.903 225.73 99.1126 
288.763 224.322 98.8824 279.121 226.714 99.9187 279.92 226.546 99.6018 
281.273 226.266 99.2318 282.029 226.427 99.1391 282.364 225.999 99.0435 
283.124 225.849 98.9615 286.321 225.569 98.9934 224.371 231.703 96.4537 
226.204 231.733 95.9305 225.905 231.903 95.9919 220.984 231.65 97.3641 
222.219 231.707 97.0023 226.996 232.095 95.708 249.127 243.724 99.6381 
254.248 245.323 99.4701 254.506 244.934 99.6679 250.416 245.736 99.3855 
253.035 245.769 99.2508 256.965 247.806 99.3765 258.631 249.029 99.2913 
254.175 248.054 99.3291 258.419 249.244 99.1462 259.141 249.234 99.4468 
259.254 249.375 99.4638 254.913 248.868 99.4914 257.911 249.381 99.1197 
256.208 249.654 99.7567 259.243 249.858 99.2216 259.335 249.756 99.3357 
258.722 250.104 99.4141 259.144 250.008 99.3072 259.076 250.014 99.1508 
259.309 249.893 99.3521 289.801 221.714 98.7194 290.278 221.993 98.8172 
287.188 222.193 99.1456 289.977 221.899 98.8499 290.225 222.068 98.9003 
283.676 223.56 99.6044 284.875 223.022 99.4375 284.417 223.314 99.8042 
285.44 222.843 99.5126 281.631 224.622 99.8793 290.225 223.196 99.2128 
280.572 225.243 100.016 289.962 223.71 99.148 280.82 226.809 99.3647 
287.763 226.428 99.9834 274.979 229.313 100.945 275.623 229.175 100.671 
274.177 229.744 101.199 274.727 229.728 100.883 281.997 228.228 99.8475 
215.624 231.295 99.3629 215.559 231.298 99.3836 216.005 231.276 99.1635 
275.366 229.899 100.652 276.041 230.159 100.596 276.328 229.688 100.448 
277.923 229.278 100.204 215.516 231.315 99.4112 215.181 231.376 99.6266 
219.316 231.316 98.0625 215.909 231.471 99.3072 217.836 231.551 98.5324 
222.612 231.693 96.9564 217.246 231.59 98.8786 219.409 231.622 98.0571 
221.229 231.659 97.39 246.566 241.918 100.785 247.588 241.799 100.567 
246.611 242.453 100.47 247.872 242.026 100.374 252.864 242.959 100.061 
257.682 247.38 100.017 258.263 248.218 99.7626 258.984 248.916 99.67 
252.672 248.625 99.9762 259.328 249.471 99.5888 253.498 249.061 100.055 
259.376 249.67 99.4718 253.998 249.392 100.268 259.371 249.813 99.4749 
257.149 250.024 99.9537 259.04 250.1 99.4711 259.161 250.049 99.5207 
259.291 249.947 99.5095 257.959 250.169 100.048 288.412 222.207 99.4947 
290.217 222.565 99.3092 281.43 224.708 100.015 283.177 223.887 100.06 
286.577 222.953 100.113 281.263 224.83 100.246 290.064 224.038 99.6125 
278.43 226.601 100.684 277.558 227.107 101.083 289.899 225.035 100.361 
290.047 224.703 100.24 288.665 226.089 100.177 288.24 226.664 100.462 
273.097 230.399 101.943 272.926 230.659 101.842 215.468 231.316 99.4461 
273.009 230.91 101.677 273.775 230.548 101.303 213.755 231.495 100.391 
213.648 231.503 100.466 272.473 231.302 101.913 272.14 231.546 102.127 
274.73 230.827 101.038 275.954 230.9 100.915 280.407 230.32 100.876 
213.116 231.529 100.711 214.034 231.496 100.244 214.797 231.46 99.8467 
218.655 231.565 98.4593 220.612 231.511 97.6849 272.332 231.661 101.993 
272.024 231.858 102.217 272.587 231.885 101.949 274.37 231.346 101.321 
218.266 231.611 98.5856 218.345 231.592 98.5816 219.681 231.606 98.0081 
221.264 231.606 97.4451 217.712 231.609 98.7746 247.58 241.424 100.924 
248.08 240.953 101.336 245.037 242.167 101.382 249.72 241.606 100.54 
251.955 241.44 100.916 244.931 242.981 101.108 246.149 244.443 100.491 
254.352 243.389 100.423 256.283 245.344 100.4 259.093 249.012 100.04 
259.233 249.334 100.028 259.332 249.483 99.7817 259.351 249.843 99.6195 
259.172 249.985 99.7337 259.3 249.908 99.6672 257.676 250.173 100.514 
282.733 224.322 100.649 290.066 224.383 100.34 290.015 224.863 100.394 
277.701 227.046 101.664 289.699 225.452 100.722 289.906 225.015 100.584 
273.494 229.949 102.288 272.264 231.192 102.15 272.081 231.42 102.314 
212.841 231.538 100.854 215.798 231.416 99.514 271.901 231.769 102.385 
280.727 230.618 101.17 212.624 231.549 100.957 212.852 231.546 100.845 
212.61 231.555 100.966 216.932 231.562 99.1673 271.828 232.026 102.43 
277.861 231.728 101.612 278.762 231.621 101.624 217.127 231.593 99.0702 
216.548 231.597 99.3022 216.618 231.58 99.2926 217.829 231.593 98.786 
216.154 231.598 99.4367 243.989 241.95 102.373 244.859 241.254 102.545 
243.705 243.967 101.916 245.025 244.732 101.191 257.169 245.723 101.036 
246.466 246.412 101.093 257.917 246.859 101.091 258.522 248.134 101.223 
259.262 249.787 99.8588 259.111 249.744 100.173 254.727 250.198 101.827 
256.273 250.214 101.081 259.074 249.908 100.039 258.966 249.817 100.31 
257.624 250.105 100.968 284.01 224.341 101.221 286.972 224.041 101.192 
289.803 224.024 100.554 289.606 224.234 100.796 289.943 224.29 100.516 
289.714 224.738 100.871 289.619 225.294 100.997 278.017 226.99 101.995 
288.968 226.611 101.405 288.003 227.648 101.525 288.336 227.354 101.586 
273.159 230.395 102.946 286.299 229.223 102.253 287.568 228.116 101.841 
212.458 231.554 101.044 212.278 231.561 101.133 213.613 231.55 100.54 
212.354 231.558 101.092 212.435 231.558 101.052 212.312 231.562 101.114 
215.16 231.555 99.8745 214.587 231.57 100.118 271.625 232.133 102.953 
[...]
POINT_DATA 1487
SCALARS scalars float
LOOKUP_TABLE default
1 1 1 1 1 1 1 1 1 
1 1 1 1 1 1 1 1 1 
1 1 1 1 1 1 1 1 1 
1 1 1 1 1 1 1 1 1 
1 1 1 1 1 1 1 1 1 
1 1 1 1 1 1 1 1 1 
1 1 1 1 1 1 1 1 1 
1 1 1 1 1 1 1 1 1 
1 1 1 1 1 1 1 1 1 
1 1 1 1 1 1 1 1 1 
1 1 1 1 1 1 1 1 1 
1 1 1 1 1 1 1 1 1 
1 1 1 1 1 1 1 1 1 
1 1 1 1 1 1 1 1 1 
1 1 1 1 1 1 1 1 1 
1 1 1 1 1 1 1 1 1 
1 1 1 1 1 1 1 1 1 
1 1 1 1 1 1 1 1 1 
1 1 1 1 1 1 1 1 1 
1 1 1 1 1 1 1 1 1 
1 1 1 1 1 1 1 1 1 
1 1 1 1 1 1 1 1 1 
1 1 1 1 1 1 1 1 1 
1 1 1 1 1 1 1 1 1 
1 1 1 1 1 1 1 1 1 
1 1 1 1 1 1 1 1 1 
1 1 1 1 1 1 1 1 1 
1 1 1 1 1 1 1 1 1 
1 1 1 1 1 1 1 1 1 
1 1 1 1 1 1 1 1 1 
1 1 1 1 1 1 1 1 1 
1 1 1 1 1 1 1 1 1 
1 1 1 1 1 1 1 1 1 
1 1 1 1 1 1 1 1 1 
1 1 1 1 1 1 1 1 1 
1 1 1 1 1 1 1 1 1 
1 1 1 1 1 1 1 1 1 
1 1 1 1 1 1 1 1 1 
1 1 1 1 1 1 1 1 1 
1 1 1 1 1 1 1 1 1 
1 1 1 1 1 1 1 1 1 
1 1 1 1 1 1 1 1 1 
1 1 1 1 1 1 1 1 1 
1 1 1 1 1 1 1 1 1 
1 1 1 1 1 1 1 1 1 
1 1 1 1 1 1 1 1 1 
1 1 1 1 1 1 1 1 1 
1 1 1 1 1 1 1 1 1 
1 1 1 1 1 1 1 1 1 
1 1 1 1 1 1 1 1 1 
1 1 1 1 1 1 1 1 1 
1 1 1 1 1 1 1 1 1 
1 1 1 1 1 1 1 1 1 
1 1 1 1 1 1 1 1 1 
1 1 1 1 1 1 1 1 1 
1 1 1 1 1 1 1 1 1 
1 1 1 1 1 1 1 1 1 
1 1 1 1 1 1 1 1 1 
1 1 1 1 1 1 1 1 1 
1 1 1 1 1 1 1 1 1 
1 1 1 1 1 1 1 1 1 
1 1 1 1 1 1 1 1 1 
1 1 1 1 1 1 1 1 1 
1 1 1 1 1 1 1 1 1 
1 1 1 1 1 1 1 1 1 
1 1 1 1 1 1 1 1 1 
1 1 1 1 1 1 1 1 1 
1 1 1 1 1 1 1 1 1 
1 1 1 1 1 1 1 1 1 
1 1 1 1 1 1 1 1 1 
1 1 1 1 1 1 1 1 1 
1 1 1 1 1 1 1 1 1 
1 1 1 1 1 1 1 1 1 
1 1 1 1 1 1 1 1 1 
1 1 1 1 1 1 1 1 1 
1 1 1 1 1 1 1 1 1 
1 1 1 1 1 1 1 1 1 
1 1 1 1 1 1 1 1 1 
1 1 1 1 1 1 1 1 1 
1 1 1 1 1 1 1 1 1 
1 1 1 1 1 1 1 1 1 
1 1 1 1 1 1 1 1 1 
1 1 1 1 1 1 1 1 1 
1 1 1 1 1 1 1 1 1 
1 1 1 1 1 1 1 1 1 
1 1 1 1 1 1 1 1 1 
1 1 1 1 1 1 1 1 1 
1 1 1 1 1 1 1 1 1 
1 1 1 1 1 1 1 1 1 
1 1 1 1 1 1 1 1 1 
1 1 1 1 1 1 1 1 1 
1 1 1 1 1 1 1 1 1 
1 1 1 1 1 1 1 1 1 
1 1 1 1 1 1 1 1 1 
1 1 1 1 1 1 1 1 1 
1 1 1 1 1 1 1 1 1 
1 1 1 1 1 1 1 1 1 
1 1 1 1 1 1 1 1 1 
1 1 1 1 1 1 1 1 1 
1 1 1 1 1 1 1 1 1 
1 1 1 1 1 1 1 1 1 
1 1 1 1 1 1 1 1 1 
1 1 1 1 1 1 1 1 1 
1 1 1 1 1 1 1 1 1 
1 1 1 1 1 1 1 1 1 
1 1 1 1 1 1 1 1 1 
1 1 1 1 1 1 1 1 1 
1 1 1 1 1 1 1 1 1 
1 1 1 1 1 1 1 1 1 
1 1 1 1 1 1 1 1 1 
1 1 1 1 1 1 1 1 1 
1 1 1 1 1 1 1 1 1 
1 1 1 1 1 1 1 1 1 
1 1 1 1 1 1 1 1 1 
1 1 1 1 1 1 1 1 1 
1 1 1 1 1 1 1 1 1 
1 1 1 1 1 1 1 1 1 
1 1 1 1 1 1 1 1 1 
1 1 1 1 1 1 1 1 1 
1 1 1 1 1 1 1 1 1 
1 1 1 1 1 1 1 1 1 
1 1 1 1 1 1 1 1 1 
1 1 1 1 1 1 1 1 1 
1 1 1 1 1 1 1 1 1 
1 1 1 1 1 1 1 1 1 
1 1 1 1 1 1 1 1 1 
1 1 1 1 1 1 1 1 1 
1 1 1 1 1 1 1 1 1 
1 1 1 1 1 1 1 1 1 
1 1 1 1 1 1 1 1 1 
1 1 1 1 1 1 1 1 1 
1 1 1 1 1 1 1 1 1 
1 1 1 1 1 1 1 1 1 
1 1 1 1 1 1 1 1 1 
1 1 1 1 1 1 1 1 1 
1 1 1 1 1 1 1 1 1 
1 1 1 1 1 1 1 1 1 
1 1 1 1 1 1 1 1 1 
1 1 1 1 1 1 1 1 1 
1 1 1 1 1 1 1 1 1 
1 1 1 1 1 1 1 1 1 
1 1 1 1 1 1 1 1 1 
1 1 1 1 1 1 1 1 1 
1 1 1 1 1 1 1 1 1 
1 1 1 1 1 1 1 1 1 
1 1 1 1 1 1 1 1 1 
1 1 1 1 1 1 1 1 1 
1 1 1 1 1 1 1 1 1 
1 1 1 1 1 1 1 1 1 
1 1 1 1 1 1 1 1 1 
1 1 1 1 1 1 1 1 1 
1 1 1 1 1 1 1 1 1 
1 1 1 1 1 1 1 1 1 
1 1 1 1 1 1 1 1 1 
1 1 1 1 1 1 1 1 1 
1 1 1 1 1 1 1 1 1 
1 1 1 1 1 1 1 1 1 
1 1 1 1 1 1 1 1 1 
1 1 1 1 1 1 1 1 1 
1 1 1 1 1 1 1 1 1 
1 1 1 1 1 1 1 1 1 
1 1 1 1 1 1 1 1 1 
1 1 1 1 1 1 1 1 1 
1 1 1 1 1 1 1 1 1 
1 1 1 1 1 1 1 1 1 
1 1 
NORMALS Normals float
-0.42221 0.501173 -0.755357 -0.635328 -0.224192 -0.738983 -0.429138 0.47716 -0.766915 
-0.251064 0.732674 -0.632578 -0.614353 -0.566347 -0.549383 -0.210008 0.774366 -0.59687 
-0.576241 0.169034 -0.799608 -0.579162 0.163879 -0.798571 0.0989579 0.952821 -0.286948 
0.646499 0.450913 0.615399 0.469725 -0.431923 0.769935 -0.00486508 -0.930373 0.366583 
-0.138164 -0.97234 0.188323 0.308238 -0.673803 0.67155 0.618044 -0.0354867 0.785342 
-0.128891 -0.961256 0.243668 -0.0291763 0.897162 -0.440738 -0.51268 0.219158 -0.830138 
0.0272178 0.923898 -0.381671 0.429888 -0.510632 0.744615 -0.0329879 0.897698 -0.439375 
-0.462637 -0.030291 -0.88603 -0.395009 -0.416845 -0.818662 -0.43187 -0.273961 -0.859322 
-0.372095 -0.699557 -0.610053 -0.239525 -0.886743 -0.395366 0.227908 -0.769641 0.596415 
-0.359529 0.450944 -0.816939 -0.460313 0.0359866 -0.887027 -0.0538358 -0.987464 0.148381 
0.477211 -0.476557 0.738352 -0.193724 0.72941 -0.656073 0.163683 0.907646 -0.386506 
-0.042255 0.880855 -0.471497 0.193019 0.968896 -0.154871 0.0609993 -0.998057 0.0126583 
-0.341359 -0.169385 -0.924545 -0.281795 -0.582004 -0.7628 0.0344837 -0.992648 0.116021 
-0.445172 0.231334 -0.865047 -0.526221 0.468583 -0.709592 0.629542 0.556837 0.541857 
0.662632 -0.030374 0.748329 0.511583 0.834695 0.203879 -0.132654 0.808254 -0.573697 
0.16736 0.956457 -0.239124 -0.249455 -0.305006 -0.919099 -0.129161 -0.812592 -0.568341 
-0.317877 -0.489292 -0.812126 0.0203392 -0.957241 -0.288575 -0.307914 -0.192209 -0.931797 
-0.31202 -0.399478 -0.86201 -0.154331 -0.812099 -0.562741 0.155229 -0.957341 0.243728 
-0.326231 0.203155 -0.923202 0.343608 -0.730595 0.590055 -0.371084 0.236989 -0.897849 
0.506412 -0.41974 0.753236 -0.323452 0.519774 -0.790705 0.646375 -0.0422816 0.761847 
0.65348 0.545913 0.524349 0.477929 0.84717 0.232135 -0.223349 -0.697701 -0.680682 
-0.0101745 -0.994965 -0.0997047 -0.211324 -0.777198 -0.592711 -0.0251537 -0.977002 -0.211742 
-0.0388134 -0.995332 -0.0883571 -0.310548 -0.394785 -0.864699 0.0879611 -0.985796 0.143068 
-0.325662 -0.0872522 -0.941452 0.458355 -0.620908 0.635912 -0.245748 0.799658 -0.547864 
0.664266 0.286637 0.690355 0.689536 0.267111 0.673196 0.657403 0.235988 0.715633 
0.424928 0.900901 0.0883935 0.162822 0.968393 -0.188954 -0.268665 -0.518862 -0.811542 
-0.153108 -0.771513 -0.617516 0.0184433 -0.994226 -0.105709 -0.365028 0.105712 -0.924976 
-0.205507 -0.13669 -0.969063 0.0643435 -0.996041 0.0613373 -0.325128 0.341626 -0.881807 
0.310142 -0.751906 0.581764 0.344364 -0.69299 0.633386 -0.211168 0.476415 -0.853485 
0.57968 -0.332496 0.743921 0.570223 -0.139579 0.809545 0.652543 0.0895457 0.752442 
0.570101 0.702046 0.426752 0.253877 0.967023 0.0203303 -0.123015 -0.945868 -0.300335 
-0.237382 -0.77687 -0.583201 -0.0679937 -0.963625 -0.258462 -0.435859 -0.284034 -0.854021 
-0.386888 0.0195544 -0.921919 0.207468 -0.803162 0.558469 -0.480703 0.154727 -0.863125 
0.261751 -0.728612 0.632939 -0.238068 0.581179 -0.778174 0.616182 0.336335 0.712179 
0.636189 0.242525 0.732424 0.605261 0.429781 0.670035 -0.138121 0.978993 -0.149981 
0.357397 0.917611 0.173949 0.0903557 0.995709 -0.0199914 -0.14516 -0.336335 -0.930488 
-0.200243 -0.942123 -0.268898 0.133394 -0.327505 -0.935386 0.0166157 -0.949019 -0.314782 
0.53651 -0.438993 -0.720724 0.336762 0.154054 -0.928902 -0.128486 -0.95969 -0.249975 
-0.253271 -0.886551 -0.387145 -0.299856 -0.597008 -0.744089 -0.0783903 -0.981633 -0.173929 
-0.311328 -0.752997 -0.579716 -0.432409 -0.181892 -0.883141 -0.383061 -0.159235 -0.909895 
0.0519935 -0.98578 0.159797 -0.322752 0.372933 -0.869915 -0.298885 0.51745 -0.801818 
-0.273296 0.643935 -0.714603 -0.217792 0.746499 -0.628733 0.319148 -0.222873 0.921126 
-0.0395252 0.910411 0.411813 0.0495443 0.72209 0.690023 0.481419 -0.306076 0.821312 
0.486587 0.639006 0.595738 -0.0608026 0.995729 0.0694712 0.2071 0.584591 0.784451 
0.290811 0.785559 0.546192 -0.345401 -0.826565 -0.444396 -0.450462 -0.816885 -0.360252 
-0.214962 -0.963235 0.16115 0.175133 -0.969142 0.173468 -0.31874 -0.44838 -0.835081 
0.106125 0.19817 -0.974405 0.367985 0.160929 -0.915799 0.584472 -0.747927 -0.31464 
0.588536 -0.0791909 -0.804583 0.755638 -0.253302 -0.604027 -0.335352 -0.493115 -0.802731 
-0.414746 -0.668685 -0.617128 -0.400937 -0.588938 -0.701713 -0.200983 -0.201661 -0.958613 
0.398084 0.349682 -0.848087 0.561563 0.221378 -0.797269 -0.415315 -0.45408 -0.788242 
-0.186761 -0.0294961 -0.981963 -0.0110877 -0.989858 0.141628 -0.335326 -0.772702 -0.53897 
0.0112987 -0.981137 0.192985 -0.0762927 -0.996534 0.0331606 0.0360303 -0.956774 0.288592 
-0.409799 0.325686 -0.852052 -0.36465 0.502432 -0.78396 -0.234968 0.750511 -0.617675 
-0.342141 0.678579 -0.649976 0.233765 0.0519959 0.970902 -0.15058 0.972068 -0.180029 
0.236608 0.282273 0.929698 0.106919 0.747189 0.655955 0.161703 0.393009 0.905205 
0.0242042 0.888064 0.459082 0.410934 0.19053 0.891533 -0.021328 0.117228 -0.992876 
0.181176 -0.144947 -0.97271 -0.320773 0.517779 -0.793102 0.573823 -0.146678 -0.805737 
-0.179754 0.883858 -0.431838 -0.126151 0.864722 -0.48615 -0.00792662 0.26621 -0.963882 
0.701452 0.382659 -0.60128 0.370573 0.665788 -0.647613 -0.333601 -0.937372 0.100222 
-0.423326 -0.858269 -0.29012 -0.217885 -0.916453 0.33562 0.650279 -0.755942 -0.0754261 
0.611393 0.103679 -0.784506 0.790487 -0.315438 -0.525005 0.455193 -0.890384 0.00385039 
0.996746 0.0779643 -0.0204876 -0.463201 -0.859059 -0.217858 -0.408275 -0.881479 -0.237288 
0.762269 -0.55233 -0.337457 0.663359 0.220783 -0.71499 0.991727 0.0916778 -0.0898466 
-0.505033 -0.831315 -0.232071 -0.346713 -0.44889 -0.823582 -0.53515 -0.686379 -0.492441 
0.0573139 0.303061 -0.951246 0.692934 0.284218 -0.662618 -0.405378 -0.351786 -0.843751 
-0.452513 -0.417472 -0.788004 -0.445429 -0.497687 -0.744245 -0.194146 -0.121787 -0.973383 
0.236926 0.446824 -0.862679 -0.39505 -0.242729 -0.886013 -0.360095 -0.16025 -0.919049 
-0.212693 0.0791738 -0.973906 -0.0789662 0.218276 -0.972687 -0.0313384 0.058195 -0.997813 
0.0290789 0.219859 -0.975098 0.0732043 0.597218 -0.798732 0.284905 -0.0503121 0.957234 
0.258161 -0.310173 0.914957 0.163553 0.540949 0.825 -0.0925202 0.982287 -0.16295 
-0.0767814 0.995694 -0.0519463 0.0431783 0.778925 0.625629 -0.00464516 -0.230904 -0.972965 
0.230115 -0.320234 -0.918966 0.207579 -0.377715 -0.902354 -0.222758 0.146776 -0.963761 
0.053673 -0.153029 -0.986763 0.274838 -0.473774 -0.836662 0.283593 -0.451945 -0.845766 
-0.0826466 0.255999 -0.963138 0.16865 -0.290455 -0.941909 0.631071 -0.54716 -0.549878 
0.785369 -0.446561 -0.428694 -0.138329 0.445315 -0.884624 -0.111803 0.474691 -0.873022 
-0.203558 0.818987 -0.536492 0.771896 0.321379 -0.548537 0.867694 -0.110772 -0.484599 
-0.236738 0.857291 -0.457174 0.489022 0.833223 -0.258064 0.328068 0.94465 0.00264237 
0.798037 0.503303 -0.331396 0.311663 -0.837822 0.448242 0.655781 -0.596779 0.462391 
-0.183633 -0.905629 0.382251 0.334862 -0.773147 0.53862 0.584116 -0.478553 0.655587 
-0.409795 -0.89428 0.179808 -0.336349 -0.900228 0.276512 -0.349148 -0.90296 0.250517 
-0.267129 -0.846033 0.461379 -0.44371 -0.890563 -0.100096 0.880111 0.235142 -0.412448 
-0.524098 -0.753738 -0.396485 0.592138 0.429382 -0.681912 -0.183193 0.131042 -0.974304 
0.0465224 0.809677 -0.585029 -0.428092 -0.421754 -0.799288 -0.368693 -0.25525 -0.893819 
-0.604652 -0.500429 -0.61965 -0.40894 -0.113464 -0.90548 0.181374 0.442146 -0.878413 
0.16812 -0.863903 0.474771 0.319744 -0.697638 0.641144 -0.140717 -0.979684 -0.142895 
-0.247919 0.0515412 -0.967409 -0.0644013 0.301743 -0.951212 -0.212878 0.0581326 -0.975348 
-0.0559549 0.277746 -0.959024 0.505124 -0.16109 0.847879 -0.418626 0.348943 -0.838446 
0.119004 -0.864168 0.488929 -0.326669 0.635156 -0.699903 -0.23511 0.835446 -0.496742 
0.166058 0.752298 0.637552 -0.177869 0.912872 -0.367461 0.0380712 0.993392 0.108269 
0.0805731 0.943031 0.322801 -0.319164 -0.641596 -0.697488 -0.177727 -0.608908 -0.773075 
-0.250639 -0.206441 -0.945813 -0.00841909 -0.422674 -0.906243 0.244432 -0.411646 -0.877953 
0.324219 -0.738293 -0.591444 0.629314 -0.626615 -0.459692 0.727788 -0.646351 -0.22925 
-0.320037 0.617312 -0.718681 0.913941 -0.397868 -0.0800782 -0.274745 0.645359 -0.71276 
0.985423 -0.133962 -0.104858 -0.279046 0.800222 -0.530828 0.954995 0.275562 -0.109771 
-0.143935 0.897962 -0.415868 0.21019 0.977655 0.00319076 0.505525 0.862663 0.0160476 
0.718654 0.695367 -0.00100833 -0.172898 0.919447 -0.353162 -0.0120688 -0.788606 0.614781 
0.492653 -0.512054 0.703629 -0.535382 -0.841273 -0.075008 -0.402841 -0.886826 0.226404 
-0.0817931 -0.748799 0.657731 -0.471971 -0.879542 0.060415 0.902467 0.355461 -0.243314 
-0.59527 -0.703613 -0.388051 -0.487856 -0.861634 -0.139939 0.759078 0.568363 -0.317433 
0.892795 0.338817 -0.296849 0.458431 0.572985 -0.679359 0.331786 0.765094 -0.551859 
-0.760512 -0.627634 -0.166424 -0.524417 -0.483854 -0.700623 0.459962 -0.363888 0.809951 
-0.471914 -0.248903 -0.84578 -0.431451 -0.0220708 -0.901866 -0.319004 -0.7811 -0.536767 
0.167437 -0.885811 0.432787 -0.498544 -0.0972794 -0.861389 -0.719127 -0.177511 -0.671823 
-0.223125 0.299902 -0.92751 -0.0582094 0.473392 -0.878926 0.0620071 0.558946 -0.826882 
-0.421672 -0.429036 -0.798825 -0.41667 0.343125 -0.841814 -0.378125 0.525172 -0.762375 
0.265242 -0.556758 0.787189 0.384441 -0.207433 0.899542 -0.463726 0.104631 -0.879779 
-0.597232 0.170033 -0.783838 -0.270579 0.358464 -0.893471 -0.123974 0.441733 -0.88854 
0.144824 0.919382 0.365735 0.301953 0.599465 0.741259 0.198636 0.817386 0.540763 
0.342497 0.111651 0.932861 -0.0098572 0.99995 0.00178653 -0.155003 -0.672961 -0.723254 
-0.132826 -0.812444 -0.567708 -0.458333 -0.526736 -0.715877 0.0554982 -0.364037 -0.929729 
0.150682 -0.660774 -0.735305 -0.532224 -0.19697 -0.823371 -0.408174 0.22168 -0.88558 
0.484877 -0.458629 -0.744684 0.535532 -0.426702 -0.728787 0.833162 -0.551808 -0.0367186 
0.92064 -0.0894465 0.380027 0.974359 -0.157536 0.160648 0.953446 0.204703 0.221445 
0.523825 0.7929 0.311314 0.738043 0.605466 0.297832 0.116195 0.991558 0.057554 
-0.349872 -0.823084 0.44735 0.952363 -0.0689804 0.297063 0.928494 0.114623 0.353214 
-0.488751 -0.834776 0.253517 0.878389 0.474177 0.0599102 0.914184 0.226806 0.335895 
-0.589178 -0.80432 0.0770627 -0.723136 -0.478659 -0.497955 -0.825258 -0.557694 -0.0890305 
-0.034613 -0.999196 0.0202109 0.220787 -0.795993 0.563603 -0.858317 -0.240192 -0.45343 
0.313874 0.66616 -0.676546 -0.420113 -0.409458 -0.809846 -0.334554 0.620612 -0.709164 
-0.335612 0.615942 -0.712727 0.375592 0.0483638 0.925523 -0.79463 0.136462 -0.591559 
0.175194 0.786683 -0.591978 0.100108 0.653112 -0.750615 0.159731 0.905135 0.393974 
0.178587 0.86671 0.465747 0.3332 0.446272 0.830554 0.274803 0.666997 0.69253 
0.040262 0.991309 0.12524 -0.615999 -0.599354 -0.511194 -0.410423 -0.8238 -0.391034 
-0.652151 0.137956 -0.745431 -0.514992 0.260435 -0.816674 0.739071 -0.529185 -0.416817 
-0.431062 0.435098 -0.790491 0.799693 -0.501546 -0.330066 0.921183 -0.381747 0.0754422 
0.81704 0.383272 0.430753 0.788231 0.286919 0.544398 0.0106839 0.99922 -0.0380273 
-0.0481084 0.994841 -0.089312 0.421889 0.817444 0.392166 0.773088 0.226025 0.592661 
0.259175 0.934407 0.244361 -0.194173 -0.809226 0.554482 0.0113376 -0.642034 0.766592 
0.588108 -0.445393 0.675096 0.489737 -0.345729 0.800393 0.776445 -0.172529 0.606108 
0.67467 -0.131649 0.726284 0.815737 0.00410474 0.578409 -0.390199 -0.882175 0.263651 
0.83595 0.529747 0.143372 0.643356 0.730078 -0.230388 0.705625 0.667086 -0.238934 
-0.845131 -0.491824 0.209436 0.500528 0.762861 -0.409286 0.681719 0.689975 -0.2433 
-0.0105254 -0.998232 0.058508 0.0168814 -0.991301 0.130529 0.379162 -0.291203 0.878315 
-0.37883 -0.596471 -0.707608 -0.386888 0.453583 -0.802857 -0.347815 0.597442 -0.722557 
0.375571 0.188716 0.907377 0.311451 0.619737 0.720364 -0.831465 -0.554409 0.0359954 
-0.132536 0.952249 -0.275057 0.141308 0.925739 0.350769 0.151853 0.90054 0.407392 
0.298762 0.559561 0.773067 -0.543356 0.500855 -0.673727 -0.369651 0.572366 -0.731953 
0.172104 0.820742 -0.544759 -0.199384 0.767405 -0.609374 0.0486581 0.727939 -0.683913 
0.0727916 -0.876427 -0.476002 -0.307132 -0.896386 -0.319629 -0.226072 -0.888257 -0.399863 
0.232769 -0.822331 -0.51922 0.539391 -0.668436 -0.512104 -0.737743 -0.375951 -0.560711 
-0.828814 -0.536943 -0.157353 0.983221 -0.0823771 0.162757 0.907666 0.124432 0.400823 
0.683222 0.55584 0.47355 0.586454 0.617959 0.523639 0.141326 0.915412 0.376893 
0.448444 0.817229 0.361986 0.279702 -0.490627 0.825259 -0.271189 -0.844512 0.461796 
0.54631 -0.156695 0.822795 0.773481 0.165096 0.611939 0.777529 0.600819 0.185648 
0.818527 0.447463 0.360265 0.731492 0.681164 0.0305946 0.241851 -0.784023 0.571678 
0.321201 -0.60449 0.728987 0.396888 0.119655 0.910034 0.402947 -0.216098 0.889345 
0.416265 0.832335 -0.365981 0.555795 0.817211 -0.152507 -0.473414 -0.126427 -0.87172 
0.124457 -0.92459 0.36006 0.366962 0.453459 0.812228 0.28784 0.730576 0.619198 
0.117412 0.960119 0.253743 -0.105351 0.964234 -0.243216 -0.737082 -0.632445 0.238166 
-0.505076 0.556438 -0.659754 -0.97055 -0.209109 -0.119606 -0.940394 0.152618 -0.303919 
-0.484354 0.604624 -0.632321 -0.80077 0.509095 -0.31558 -0.421389 0.810821 -0.406204 
-0.101641 0.813216 -0.573017 -0.0993475 0.932102 -0.348306 -0.0530751 -0.994974 -0.084906 
0.338896 -0.857417 -0.38728 0.248958 -0.939848 -0.233891 -0.259726 -0.961315 -0.0917422 
-0.808419 -0.567566 -0.155972 -0.908849 -0.394366 -0.135901 -0.85595 -0.169829 -0.488372 
-0.854464 0.00909588 -0.519431 -0.480248 0.564345 -0.671474 0.825604 0.459529 0.327432 
0.410113 0.813617 0.41211 -0.151953 -0.618978 0.770569 0.40242 -0.268365 0.875236 
0.73721 0.150235 0.65875 0.787408 0.560656 0.256229 0.267962 -0.719268 0.640975 
0.616219 0.787221 -0.0236063 0.711058 0.701487 0.0480804 -0.131064 0.970585 -0.20196 
-0.0489774 0.993516 -0.102602 -0.0183293 0.999048 -0.0395861 0.605829 0.762946 0.225576 
-0.929011 -0.309764 0.202447 -0.622635 -0.629613 0.464664 0.358047 0.885009 -0.297594 
-0.97903 0.127288 0.159054 -0.90617 -0.118642 0.40593 -0.507226 0.861328 -0.0289007 
0.122918 0.92695 -0.354477 -0.143151 0.916963 -0.372407 -0.0335509 0.964086 -0.263462 
0.177491 0.879953 -0.440658 -0.886538 -0.449583 0.109204 -0.61874 -0.783266 -0.0604643 
0.782356 -0.475746 -0.401976 -0.940907 -0.332167 -0.0660314 -0.921817 -0.0994662 -0.374647 
-0.966821 -0.00669062 -0.255367 -0.818641 0.283351 -0.499539 0.951399 -0.197579 -0.236225 
0.994463 -0.0271348 -0.101523 0.99649 0.0830026 -0.0108421 -0.669264 0.5234 -0.527388 
-0.304279 -0.749731 0.587637 0.124936 -0.462756 0.877638 0.448354 -0.258246 0.855738 
0.692121 0.120613 0.711633 0.698588 0.442726 0.56211 -0.608382 -0.6419 0.466729 
-0.775212 -0.321313 0.543879 -0.727036 0.636943 0.256363 -0.809531 0.362822 0.461541 
-0.670303 -0.296168 0.680425 -0.285062 0.957802 -0.0368114 -0.463348 -0.880418 0.10086 
0.928406 -0.240231 -0.283464 -0.965413 -0.260725 -0.000699863 -0.575082 0.725905 -0.377282 
0.151044 -0.360598 0.92041 0.472966 -0.178308 0.862849 0.494702 -0.0436792 0.867964 
0.524598 -0.0172114 0.851176 0.608638 0.266783 0.747253 0.65866 0.71077 0.246926 
-0.795681 -0.179824 0.578407 0.419118 -0.848059 -0.324247 0.544456 -0.770673 -0.331104 
0.781911 0.599631 0.170462 0.559142 0.794325 0.237505 0.0329435 -0.658602 0.75177 
0.357854 -0.318679 0.877715 0.592552 0.109849 0.798007 -0.546295 -0.66501 0.509238 
-0.663589 -0.578717 0.474063 -0.838551 0.274858 0.470409 -0.200355 0.974843 -0.0976691 
0.0933977 0.960803 -0.261027 0.291935 -0.914955 -0.278623 0.702823 -0.617479 -0.353214 
-0.875697 0.438106 -0.203023 -0.796894 0.597577 -0.0886677 0.365848 0.92809 0.069307 
-0.422855 0.868471 -0.258751 -0.116636 0.986975 -0.110802 0.475214 -0.336005 0.813187 
0.759242 0.405184 0.509291 0.819465 0.425117 0.384387 -0.737378 -0.285568 0.612148 
0.645647 0.763526 -0.0129781 -0.597722 0.77351 0.210739 0.222297 0.955778 -0.192539 
-0.221893 0.974217 -0.0407953 0.273242 -0.961853 0.0133247 -0.760389 -0.56767 0.315531 
-0.388302 -0.812624 0.434586 0.929553 -0.14971 -0.336923 -0.860736 -0.430818 0.271164 
-0.992743 0.0632863 0.102256 -0.693946 0.720021 -0.00294929 0.751381 -0.483314 -0.449261 
0.935504 0.344489 -0.0784874 -0.958521 0.198403 0.204629 -0.79613 0.541711 0.269677 
0.102931 0.994578 -0.0148367 -0.908257 0.206672 0.363808 -0.632128 0.77216 0.0646848 
0.668159 -0.680731 -0.300279 0.885734 -0.385701 -0.258282 -0.635247 -0.60398 0.48132 
-0.833425 -0.281094 0.475804 -0.906578 -0.0046541 0.422013 -0.838319 0.214766 0.501096 