# vtk DataFile Version 4.2
vtk output
ASCII
DATASET POLYDATA
POINTS 267 float
246.963 182.587 210.819 246.909 182.493 210.867 246.831 182.575 210.825 
247.067 182.596 210.882 247.031 182.519 210.873 247.099 182.518 210.975 
246.829 182.677 210.832 246.971 182.686 210.863 247.067 182.693 210.993 
247.123 182.598 210.989 246.949 182.782 210.958 246.617 182.366 211.053 
246.819 182.39 210.987 246.369 182.659 211.002 247.092 182.445 211.132 
246.391 182.991 211.091 246.808 182.902 211.061 244.778 183.85 211.637 
244.575 183.749 211.629 245.382 183.754 211.55 245.609 183.606 211.491 
245.557 183.783 211.643 245.932 182.119 211.663 246.69 182.196 211.396 
246.908 182.252 211.337 247.017 182.345 211.221 244.008 183.357 211.748 
243.334 183.198 211.972 245.877 183.238 211.336 246.282 183.427 211.715 
246.71 183.155 211.624 245.627 183.93 211.942 246.568 182.063 211.824 
246.991 182.282 211.452 243.819 182.59 211.938 241.513 183.741 212.682 
243.055 182.895 212.109 246.637 183.404 212.279 240.913 184.532 213.101 
243.388 184.423 212.509 243.679 184.805 212.929 243.613 181.42 213.39 
245.587 181.51 213.109 241.541 181.933 213.519 246.772 182.103 212.072 
241.646 182.536 212.932 241.335 182.991 212.864 242.688 182.698 212.347 
246.937 183.118 212.369 247.062 182.919 212.705 237.329 184.732 214.66 
237.301 184.944 214.816 237.907 184.908 214.247 238.856 184.765 213.783 
239.089 184.438 213.62 244.715 184.697 212.812 237.52 185.12 214.667 
237.4 185.18 214.947 237.821 185.153 214.47 239.559 185.213 213.869 
240.873 185.33 213.73 242.503 185.23 213.563 243.319 185.12 213.451 
242.708 181.365 213.757 244.637 181.286 213.626 247.065 182.461 213.144 
247.102 182.737 213.27 237.104 184.148 214.984 237.817 183.952 214.282 
238.933 183.666 213.749 238.695 184.113 213.761 237.175 184.996 215.182 
245.366 184.694 213.513 241.608 185.64 214.088 240.721 185.764 214.401 
245.484 181.287 214.374 240.061 181.698 214.893 236.594 184.301 215.969 
236.618 184.562 216.201 236.971 184.931 215.791 237.662 185.496 215.428 
244.948 181.117 214.721 246.369 181.704 214.27 236.561 184.051 216.047 
236.482 183.885 216.362 236.466 184.515 216.868 246.369 184.265 214.755 
246.559 184.127 215.173 246.799 183.773 215.37 245.862 184.736 215.479 
239.498 186.087 215.989 244.617 180.932 215.74 236.486 183.466 217.131 
236.328 184.145 217.201 236.796 185.102 217.778 236.289 184.416 218.424 
246.571 184.214 216.726 245.754 184.95 217.26 237.118 185.352 218.311 
242.709 186.045 217.029 244.657 185.48 216.731 243.379 180.713 217.47 
237.022 182.407 218.886 236.686 182.867 218.362 241.622 180.647 218.849 
247.012 183.156 218.647 236.199 183.985 219.763 236.281 184.37 220.21 
245.129 185.348 218.171 246.959 182.813 219.459 236.237 183.555 220.286 
246.804 183.996 220.3 236.655 184.98 220.689 246.973 183.554 220.79 
246.829 183.934 221.912 245.936 184.851 221.814 246.23 181.884 222.371 
246.74 184.025 222.842 240.055 181.03 223.932 243.208 181.031 224.304 
246.496 184.331 223.297 241.448 180.943 224.423 236.805 182.362 226.23 
237.723 181.747 225.491 246.071 184.624 224.432 238.852 181.323 225.848 
236.252 183.101 226.9 238.055 185.184 228.483 236.088 183.263 229.852 
246.7 183.562 228.526 236.273 184.018 230.471 243.379 185.444 228.829 
245.552 181.712 229.543 241.186 180.92 231.22 246.006 181.842 231.034 
246.139 182.058 230.183 246.681 182.812 229.881 244.694 185.084 230.545 
246.221 184.239 231.151 236.033 183.735 233.692 245.98 184.435 232.401 
242.333 185.74 233.285 236.587 182.338 234.427 241.967 180.695 234.975 
236.121 183.001 235.432 246.927 182.706 233.721 244.084 185.399 235.165 
240.742 185.916 235.095 241.06 180.63 236.193 246.603 182.033 234.933 
246.934 182.609 234.379 246.823 182.34 234.692 236.003 183.398 235.932 
236.725 184.923 236.51 246.532 181.927 235.549 236.092 184.286 237.967 
246.065 184.469 236.169 236.299 184.594 237.445 240.701 180.588 238.653 
242.026 180.46 237.905 238.118 181.371 238.361 236.213 184.566 238.859 
237.04 185.23 238.791 236.142 183.082 238.851 246.853 183.399 238.835 
236.895 185.152 239.421 242.72 185.906 239.063 243.05 180.452 239.16 
244.76 180.778 239.766 236.299 182.877 239.225 246.886 182.492 239.12 
236.015 183.665 239.457 236.019 184.01 239.769 246.666 183.798 240.216 
240.628 186.027 239.707 245.25 180.984 240.8 237.289 182.151 240.523 
237.003 182.346 240.446 236.255 183.398 240.569 246.857 183.386 240.886 
236.259 184.572 240.837 245.021 185.161 240.368 236.872 185.078 240.848 
237.616 182.303 241.428 236.408 183.404 241.008 236.175 183.978 240.838 
246.333 184.154 241.468 236.328 184.564 241.36 245.333 184.806 241.972 
241.032 185.997 240.977 239.894 181.286 241.826 243.362 180.854 241.981 
245.152 181.082 242.324 237.528 182.554 241.73 236.4 184.549 241.695 
244.871 184.879 242.619 238.99 185.374 242.052 238.32 185.361 241.994 
245.544 181.292 242.959 236.943 183.688 242.051 239.094 183.122 243.497 
236.91 184.049 242.217 239.089 183.644 243.666 236.487 184.361 241.828 
237.113 184.238 242.413 245.974 184.197 243.273 236.492 184.554 241.897 
236.492 184.65 241.833 236.592 184.637 241.971 243.753 185.196 242.687 
242.52 181.484 243.457 246.449 181.697 243.73 246.425 181.678 244.113 
246.641 181.93 243.47 240.794 182.418 243.891 239.269 183.379 243.713 
246.802 183.265 244.12 239.405 183.903 243.775 246.161 183.743 244.341 
246.197 181.594 244.074 246.68 181.883 244.396 246.778 182.072 244.315 
246.962 182.761 244.328 239.688 183.318 243.869 241.715 182.813 244.463 
246.897 182.985 244.5 240.481 183.918 244.127 239.602 184.537 243.657 
240.259 184.272 243.953 241.262 184.843 243.553 246.653 181.918 244.619 
246.564 181.942 244.85 243.21 182.29 244.716 246.717 182.094 244.864 
243.686 182.496 244.968 246.898 182.43 244.886 242.204 183.05 244.701 
244.818 182.643 245.264 242.914 183.358 244.906 246.708 183.168 244.95 
242.653 183.585 244.79 244.839 183.907 244.703 246.205 183.346 245.08 
240.207 184.576 243.754 246.414 181.893 244.853 245.576 182.095 245.106 
246.436 182.062 245.06 246.766 182.327 245.242 246.815 182.496 245.235 
245.454 182.616 245.403 246.758 182.808 245.39 245.243 183.244 245.237 
245.671 183.013 245.405 246.238 183.101 245.363 246.42 182.926 245.475 
243.76 183.808 244.803 246.612 182.345 245.367 246.401 182.489 245.527 
246.631 182.476 245.566 246.73 182.67 245.462 246.673 182.586 245.59 
245.786 182.76 245.478 246.602 182.55 245.61 246.492 182.703 245.555 
246.682 182.524 245.608 244.575 183.749 211.629 236.328 184.564 241.36 

POLYGONS 526 2104
3 0 1 2 
3 0 3 4 
3 1 0 4 
3 4 3 5 
3 2 6 0 
3 0 6 7 
3 8 9 3 
3 8 3 7 
3 7 3 0 
3 5 3 9 
3 8 7 10 
3 11 12 25 
3 2 11 13 
3 1 12 2 
3 12 11 2 
3 12 4 25 
3 12 1 4 
3 14 4 5 
3 2 13 6 
3 6 13 15 
3 5 9 14 
3 16 7 6 
3 16 6 15 
3 7 16 10 
3 17 19 18 
3 18 19 28 
3 28 19 20 
3 20 19 21 
3 13 11 22 
3 22 11 32 
3 11 23 32 
3 23 11 25 
3 24 23 25 
3 25 4 14 
3 26 27 39 
3 34 27 26 
3 34 26 18 
3 13 34 18 
3 28 13 18 
3 13 28 15 
3 48 9 8 
3 17 26 39 
3 265 26 17 
3 15 28 29 
3 29 28 20 
3 16 15 30 
3 15 29 30 
3 8 10 16 
3 30 8 16 
3 19 17 31 
3 17 55 31 
3 21 19 31 
3 31 20 21 
3 24 33 23 
3 23 33 32 
3 24 25 33 
3 33 25 14 
3 35 39 47 
3 39 27 47 
3 47 27 36 
3 29 20 31 
3 31 37 29 
3 37 30 29 
3 48 8 30 
3 37 48 30 
3 39 35 38 
3 39 55 17 
3 40 39 38 
3 55 39 40 
3 64 22 42 
3 43 45 63 
3 22 41 13 
3 22 64 41 
3 32 44 22 
3 22 44 42 
3 33 44 32 
3 65 44 33 
3 46 45 43 
3 63 45 47 
3 13 63 34 
3 41 63 13 
3 33 14 65 
3 47 45 35 
3 35 45 46 
3 36 63 47 
3 34 36 27 
3 63 36 34 
3 14 9 65 
3 65 9 66 
3 35 46 38 
3 48 49 9 
3 9 49 66 
3 48 37 49 
3 49 37 86 
3 56 50 51 
3 56 52 50 
3 53 59 54 
3 59 38 54 
3 31 55 37 
3 57 56 51 
3 52 56 58 
3 38 59 60 
3 38 60 73 
3 38 73 61 
3 40 38 62 
3 38 61 62 
3 59 52 58 
3 53 52 59 
3 43 69 46 
3 46 69 38 
3 50 68 67 
3 71 50 67 
3 69 68 70 
3 54 69 70 
3 69 54 38 
3 50 71 51 
3 68 50 52 
3 53 68 52 
3 70 68 53 
3 54 70 53 
3 72 37 55 
3 72 86 37 
3 51 71 57 
3 40 62 72 
3 62 61 72 
3 55 40 72 
3 58 56 59 
3 73 60 74 
3 76 43 63 
3 41 81 63 
3 64 81 41 
3 75 64 42 
3 44 82 42 
3 82 44 65 
3 68 69 76 
3 76 69 43 
3 66 49 88 
3 71 67 77 
3 49 86 88 
3 79 77 78 
3 80 79 78 
3 77 79 71 
3 79 80 71 
3 61 73 72 
3 71 80 57 
3 56 57 80 
3 56 80 59 
3 59 80 90 
3 60 59 90 
3 60 90 74 
3 102 76 104 
3 63 81 76 
3 81 64 75 
3 42 82 75 
3 82 65 116 
3 116 65 66 
3 67 68 83 
3 77 67 83 
3 77 83 84 
3 77 84 78 
3 78 84 85 
3 87 88 86 
3 78 85 80 
3 86 100 89 
3 72 100 86 
3 87 86 89 
3 72 73 100 
3 81 101 76 
3 76 101 104 
3 81 91 101 
3 82 91 81 
3 75 82 81 
3 76 92 68 
3 84 83 92 
3 83 68 92 
3 84 93 85 
3 88 87 96 
3 96 66 88 
3 93 94 85 
3 80 85 98 
3 85 94 98 
3 80 98 90 
3 90 99 73 
3 99 100 73 
3 73 74 90 
3 91 82 101 
3 84 92 93 
3 111 66 96 
3 93 95 94 
3 87 97 96 
3 94 95 98 
3 100 87 89 
3 76 102 103 
3 92 76 103 
3 93 106 95 
3 103 93 92 
3 106 93 103 
3 116 66 105 
3 66 111 105 
3 96 97 111 
3 98 95 112 
3 97 87 100 
3 99 97 100 
3 82 116 101 
3 103 102 110 
3 110 106 103 
3 95 106 112 
3 106 107 112 
3 97 108 111 
3 90 98 112 
3 97 99 108 
3 101 116 104 
3 109 116 105 
3 106 110 107 
3 111 109 105 
3 99 90 108 
3 122 110 102 
3 110 130 107 
3 113 109 111 
3 107 130 112 
3 109 113 114 
3 113 120 114 
3 111 108 115 
3 115 113 111 
3 90 112 127 
3 108 90 131 
3 104 118 102 
3 110 122 126 
3 110 126 130 
3 117 114 120 
3 117 109 114 
3 112 130 127 
3 115 108 131 
3 115 131 120 
3 120 113 115 
3 116 119 104 
3 104 119 118 
3 131 90 127 
3 119 121 118 
3 102 123 122 
3 118 123 102 
3 120 131 124 
3 124 117 120 
3 121 125 118 
3 121 119 125 
3 123 125 122 
3 118 125 123 
3 129 109 117 
3 129 117 124 
3 119 116 133 
3 116 132 133 
3 116 109 136 
3 126 128 130 
3 124 131 138 
3 119 133 125 
3 125 133 122 
3 132 116 136 
3 136 109 129 
3 138 129 124 
3 131 127 137 
3 138 131 137 
3 135 133 132 
3 132 136 135 
3 134 133 135 
3 126 144 128 
3 144 126 122 
3 136 145 135 
3 129 145 136 
3 128 139 130 
3 127 130 162 
3 137 127 141 
3 127 162 141 
3 137 141 156 
3 139 155 130 
3 140 129 138 
3 137 156 140 
3 140 138 137 
3 142 144 122 
3 150 134 135 
3 128 144 152 
3 135 145 150 
3 128 152 139 
3 156 141 146 
3 133 143 122 
3 133 134 143 
3 134 150 149 
3 150 145 129 
3 140 156 129 
3 130 155 153 
3 162 130 153 
3 162 147 141 
3 146 141 147 
3 122 160 142 
3 122 148 160 
3 143 148 122 
3 143 134 148 
3 149 154 134 
3 150 151 149 
3 152 144 142 
3 129 156 186 
3 146 181 156 
3 148 159 160 
3 134 159 148 
3 163 142 160 
3 149 151 154 
3 154 151 150 
3 163 152 142 
3 152 163 139 
3 163 172 139 
3 139 172 155 
3 153 155 157 
3 146 166 181 
3 156 181 186 
3 159 158 160 
3 159 134 167 
3 170 154 150 
3 150 129 170 
3 172 161 155 
3 164 129 186 
3 157 155 161 
3 157 161 162 
3 153 157 162 
3 147 162 174 
3 146 147 174 
3 159 167 158 
3 160 177 163 
3 154 168 134 
3 134 168 167 
3 162 161 165 
3 162 165 174 
3 146 174 166 
3 168 154 213 
3 177 169 163 
3 163 169 171 
3 163 171 172 
3 129 164 170 
3 170 164 173 
3 164 186 173 
3 161 180 165 
3 166 174 181 
3 158 190 160 
3 158 210 190 
3 158 167 210 
3 168 175 167 
3 176 177 160 
3 176 160 183 
3 213 175 168 
3 178 169 177 
3 171 169 172 
3 169 185 172 
3 170 173 179 
3 172 185 161 
3 180 161 185 
3 165 180 182 
3 165 182 197 
3 189 181 174 
3 176 183 193 
3 160 190 183 
3 175 213 192 
3 177 193 178 
3 176 193 177 
3 178 193 184 
3 178 184 185 
3 178 185 169 
3 170 179 216 
3 179 186 216 
3 173 186 179 
3 185 194 180 
3 194 187 180 
3 186 181 188 
3 180 266 207 
3 180 207 182 
3 182 208 197 
3 174 165 196 
3 165 197 196 
3 174 196 189 
3 181 189 209 
3 167 191 210 
3 175 191 167 
3 175 192 191 
3 183 190 193 
3 170 213 154 
3 193 199 203 
3 184 193 203 
3 184 203 194 
3 185 184 194 
3 186 205 216 
3 181 195 188 
3 186 188 195 
3 195 205 186 
3 266 194 207 
3 182 207 208 
3 189 196 227 
3 189 227 209 
3 213 198 192 
3 193 202 199 
3 193 200 202 
3 203 199 201 
3 204 201 199 
3 202 204 199 
3 201 208 203 
3 204 208 201 
3 206 207 194 
3 206 194 203 
3 206 208 207 
3 209 195 181 
3 195 242 205 
3 197 227 196 
3 209 227 229 
3 210 191 192 
3 190 200 193 
3 190 214 200 
3 210 232 190 
3 192 245 210 
3 211 219 198 
3 211 213 212 
3 211 198 213 
3 214 190 232 
3 232 224 214 
3 170 216 222 
3 202 200 215 
3 208 204 227 
3 227 204 202 
3 202 215 217 
3 216 205 218 
3 203 208 206 
3 227 197 208 
3 217 227 202 
3 209 255 195 
3 219 211 212 
3 219 212 244 
3 244 212 220 
3 198 245 192 
3 245 198 219 
3 212 221 220 
3 213 221 212 
3 221 213 170 
3 222 221 170 
3 200 223 215 
3 223 200 214 
3 222 216 225 
3 215 223 217 
3 217 223 214 
3 224 217 214 
3 225 216 239 
3 226 217 224 
3 242 218 205 
3 242 239 218 
3 216 218 239 
3 217 228 227 
3 226 228 217 
3 241 242 195 
3 229 227 243 
3 230 231 244 
3 230 244 220 
3 210 245 234 
3 232 210 234 
3 244 245 219 
3 230 233 231 
3 235 247 233 
3 221 235 233 
3 221 233 230 
3 221 230 220 
3 221 222 235 
3 245 237 234 
3 232 236 224 
3 232 238 236 
3 234 238 232 
3 237 238 234 
3 222 225 235 
3 235 225 250 
3 236 240 224 
3 240 236 238 
3 237 251 238 
3 239 250 225 
3 224 240 226 
3 242 241 251 
3 227 228 243 
3 243 228 226 
3 229 226 240 
3 229 255 209 
3 255 241 195 
3 229 243 226 
3 244 246 245 
3 231 246 244 
3 231 233 246 
3 233 247 246 
3 245 249 237 
3 235 248 247 
3 250 248 235 
3 249 251 237 
3 249 252 251 
3 239 254 250 
3 240 238 255 
3 251 255 238 
3 241 255 251 
3 251 252 242 
3 253 254 242 
3 253 242 252 
3 239 242 254 
3 255 229 240 
3 246 257 245 
3 246 247 256 
3 257 246 256 
3 245 257 249 
3 258 256 264 
3 258 257 256 
3 259 260 264 
3 248 259 264 
3 248 264 256 
3 248 256 247 
3 248 250 259 
3 257 263 249 
3 263 261 249 
3 262 257 258 
3 262 263 257 
3 260 263 262 
3 259 263 260 
3 259 250 263 
3 252 249 261 
3 252 261 253 
3 253 261 263 
3 254 253 263 
3 250 254 263 
3 258 264 262 
3 260 262 264 

POINT_DATA 267
SCALARS scalars float
LOOKUP_TABLE default
1 1 1 1 1 1 1 1 1 
1 1 1 1 1 1 1 1 1 
1 1 1 1 1 1 1 1 1 
1 1 1 1 1 1 1 1 1 
1 1 1 1 1 1 1 1 1 
1 1 1 1 1 1 1 1 1 
1 1 1 1 1 1 1 1 1 
1 1 1 1 1 1 1 1 1 
1 1 1 1 1 1 1 1 1 
1 1 1 1 1 1 1 1 1 
1 1 1 1 1 1 1 1 1 
1 1 1 1 1 1 1 1 1 
1 1 1 1 1 1 1 1 1 
1 1 1 1 1 1 1 1 1 
1 1 1 1 1 1 1 1 1 
1 1 1 1 1 1 1 1 1 
1 1 1 1 1 1 1 1 1 
1 1 1 1 1 1 1 1 1 
1 1 1 1 1 1 1 1 1 
1 1 1 1 1 1 1 1 1 
1 1 1 1 1 1 1 1 1 
1 1 1 1 1 1 1 1 1 
1 1 1 1 1 1 1 1 1 
1 1 1 1 1 1 1 1 1 
1 1 1 1 1 1 1 1 1 
1 1 1 1 1 1 1 1 1 
1 1 1 1 1 1 1 1 1 
1 1 1 1 1 1 1 1 1 
1 1 1 1 1 1 1 1 1 
1 1 1 1 1 1 
NORMALS Normals float
0.231697 -0.064005 -0.97068 0.0231552 -0.624416 -0.780749 -0.214175 -0.367596 -0.904988 
0.745216 0.135458 -0.652919 0.470547 -0.646343 -0.600688 0.830694 -0.410726 -0.375834 
-0.0649108 0.393335 -0.917101 0.369348 0.585419 -0.721711 0.694842 0.658168 -0.289843 
0.983 0.116548 -0.141873 0.475427 0.756914 -0.448386 -0.172752 -0.807928 -0.563391 
0.0244271 -0.825235 -0.564261 -0.336871 -0.2271 -0.913752 0.818589 -0.554838 -0.148549 
0.0267454 0.692116 -0.721291 0.293697 0.818082 -0.494453 -0.138161 0.799475 -0.584594 
-0.120394 0.169765 -0.978103 0.0465441 0.6097 -0.791265 0.361255 0.623659 -0.693213 
0.359529 0.747248 -0.558892 -0.129456 -0.898994 -0.418391 0.0930953 -0.938112 -0.333586 
0.296059 -0.920504 -0.254992 0.360532 -0.864771 -0.349554 -0.408189 0.311819 -0.857992 
-0.460009 0.125858 -0.878949 0.0256256 0.506275 -0.861991 0.391487 0.781244 -0.486206 
0.507963 0.809438 -0.29459 0.353908 0.824011 -0.442442 0.0418616 -0.984658 -0.169402 
0.562522 -0.823473 -0.0738909 -0.273947 -0.345327 -0.897609 -0.317176 -0.00118609 -0.948366 
-0.375386 -0.363514 -0.85261 0.597774 0.779144 -0.188685 -0.202812 0.469842 -0.859137 
-0.251073 0.518936 -0.817109 0.0128756 0.872796 -0.487916 -0.150462 -0.886688 -0.437201 
0.22232 -0.947637 -0.229256 -0.404394 -0.646503 -0.646915 0.393599 -0.918178 -0.0450388 
-0.33419 -0.486753 -0.807087 -0.437395 -0.263223 -0.859883 -0.417335 -0.184261 -0.889876 
0.767156 0.638965 -0.0565229 0.873833 0.486085 -0.0117376 -0.775333 0.152267 -0.612922 
-0.804929 0.396634 -0.441329 -0.472537 0.346882 -0.810174 -0.372621 0.261135 -0.890484 
-0.277599 0.150975 -0.94876 0.197967 0.874848 -0.442097 -0.503053 0.714027 -0.486931 
-0.664888 0.678012 -0.313406 -0.302635 0.813152 -0.497189 -0.188668 0.767785 -0.612299 
-0.157048 0.756957 -0.634312 0.0597498 0.893005 -0.446063 0.065189 0.916679 -0.394271 
-0.205073 -0.815836 -0.5407 0.0404532 -0.965189 -0.258407 0.893442 -0.448039 0.0319671 
0.998594 0.0318691 0.0423591 -0.85485 -0.119076 -0.505027 -0.603613 -0.352494 -0.715122 
-0.40135 -0.32742 -0.855403 -0.427464 -0.00990525 -0.903978 -0.852551 0.429934 -0.297176 
0.310186 0.932401 -0.185508 0.0929934 0.905218 -0.414648 -0.184924 0.88023 -0.437035 
0.299785 -0.952125 -0.0598882 -0.387373 -0.858313 -0.336513 -0.925097 0.212873 -0.314453 
-0.86898 0.483202 -0.106717 -0.764864 0.63257 -0.121811 -0.506997 0.848351 -0.152496 
0.0627821 -0.993459 -0.0953868 0.521812 -0.851563 0.0505233 -0.723285 -0.52883 -0.444069 
-0.959512 -0.108192 -0.260061 -0.782843 0.573144 -0.242204 0.62771 0.745577 -0.223819 
0.719394 0.693372 -0.0413168 0.934351 0.35467 -0.0345988 0.46943 0.870133 -0.150016 
-0.168858 0.984208 -0.0531094 0.304658 -0.952091 0.0265781 -0.702037 -0.644381 -0.303177 
-0.996055 0.0529058 -0.071236 -0.663507 0.727843 -0.173213 -0.883354 0.468641 -0.007865 
0.867341 0.497329 0.0195769 0.520303 0.853959 -0.0061421 -0.427852 0.898737 -0.0959902 
0.159347 0.978094 0.133942 0.354341 0.928424 -0.111676 0.127085 -0.991638 -0.0224423 
-0.570266 -0.81754 -0.0801511 -0.848431 -0.513603 -0.127969 -0.0745195 -0.996905 -0.0250482 
0.931069 -0.353463 -0.0904057 -0.987015 0.117327 -0.109708 -0.92271 0.370833 -0.105308 
0.343875 0.928066 0.142977 0.968269 -0.24984 0.00591464 -0.962268 -0.271974 -0.00835133 
0.868517 0.495436 0.0148437 -0.622261 0.781637 -0.0428342 0.863896 0.503268 -0.020126 
0.935384 0.352679 0.0259473 0.640806 0.766093 0.049691 0.518886 -0.854797 0.00888242 
0.933315 0.346355 0.094661 -0.185737 -0.981616 -0.0439509 0.102291 -0.994045 0.0375536 
0.475674 0.876515 -0.0738624 0.00288909 -0.997336 0.0728837 -0.566049 -0.824364 0.00372329 
-0.414746 -0.909683 0.0215152 0.603132 0.797605 0.00758648 -0.218956 -0.967941 0.123079 
-0.954502 -0.296631 -0.0306041 -0.231916 0.972439 0.024036 -0.998258 -0.0488058 -0.0331377 
0.923807 0.381566 0.031439 -0.835089 0.548822 -0.0376923 0.198271 0.980127 -0.00625239 
0.490944 -0.871187 -0.00275043 0.0369792 -0.999221 0.0137517 0.432397 -0.90004 -0.0544188 
0.629725 -0.77215 -0.0850323 0.881693 -0.467857 -0.0610543 0.315859 0.948172 -0.0346873 
0.724644 0.689097 -0.00603625 -0.962718 0.270498 0.00200275 0.749715 0.660874 0.0342617 
0.0490482 0.973831 -0.221915 -0.589564 -0.793078 0.153107 0.0965814 -0.993943 0.0524254 
-0.755173 -0.641005 0.137208 0.990859 -0.131143 -0.031631 0.27829 0.956286 -0.0898429 
-0.179249 0.964404 -0.194407 0.0168465 -0.999576 0.0237459 0.719155 -0.678014 -0.152028 
0.958075 -0.284309 -0.0355128 0.862456 -0.503711 -0.0494454 -0.955131 -0.191477 0.225968 
-0.662853 0.713959 -0.225583 0.780809 -0.624186 0.0270137 -0.938647 0.329256 -0.102625 
0.569111 0.820126 -0.0592115 -0.840343 0.519516 -0.154682 -0.158271 -0.985217 0.0655535 
-0.0644749 -0.993297 -0.09594 -0.420918 -0.906173 0.0409778 -0.822839 0.568163 0.0112653 
-0.428516 0.896287 -0.11421 -0.919136 -0.3504 -0.180026 0.859636 0.507633 -0.0577439 
-0.390084 0.920549 0.0205931 0.163011 0.985264 0.051791 0.013124 -0.997349 0.0715703 
0.494174 -0.865553 -0.0813022 -0.840388 -0.533883 0.0933662 0.995927 -0.0899569 -0.00612145 
-0.9962 -0.0859824 -0.0138757 -0.990022 0.140382 0.012232 0.834976 0.546767 -0.0621341 
-0.0516475 0.99767 0.0445847 0.38735 -0.921883 0.00956509 -0.531425 -0.804891 0.264077 
-0.567475 -0.818303 0.0913898 -0.849118 -0.46779 0.245296 0.940031 0.341067 0.00374814 
-0.89784 0.432668 0.0817445 0.351752 0.933047 0.0754589 -0.442628 0.884837 0.145408 
-0.451872 -0.827903 0.332248 -0.84312 -0.378399 0.382052 -0.983444 -0.0244308 0.17956 
0.660599 0.749027 0.050665 -0.323062 -0.945956 0.0282464 0.525832 0.827093 0.198538 
0.0254996 0.973188 0.228594 -0.335682 -0.835933 0.434204 -0.0216289 -0.979428 0.20063 
0.181408 -0.960141 0.212649 -0.648043 -0.593184 0.477674 -0.943225 -0.100938 0.316446 
0.326293 0.890228 0.317847 -0.117803 0.967679 0.22298 -0.207974 0.938445 0.275804 
0.27248 -0.95803 0.0890686 -0.647023 -0.4216 0.635306 -0.487935 -0.476266 0.731499 
-0.651806 -0.226383 0.723809 -0.551334 -0.109767 0.827032 -0.78278 -0.294851 0.548014 
-0.538913 -0.0391424 0.841452 0.344978 0.898637 0.271 -0.790502 0.0599858 0.609515 
-0.718659 0.631401 0.291311 -0.575026 0.40888 0.708635 0.107086 0.951682 0.287808 
-0.119825 -0.906951 0.403835 0.541758 -0.837863 -0.0669696 0.593799 -0.803812 0.0358982 
0.71519 -0.695143 -0.0726543 -0.286417 -0.459204 0.840891 -0.410366 -0.191894 0.891502 
0.858287 0.506237 0.0840657 -0.303701 0.0851548 0.948954 0.299646 0.88783 0.349243 
0.159144 -0.965203 0.2075 0.650725 -0.75496 0.0811857 0.883924 -0.467631 0.000796549 
0.998918 0.0421604 0.0196122 -0.247316 -0.177291 0.952577 -0.368776 -0.15814 0.915967 
0.94486 0.2932 0.145851 -0.132659 0.326573 0.935816 -0.268679 0.698351 0.663413 
-0.130195 0.417493 0.899304 -0.0885966 0.797731 0.596469 0.644572 -0.733359 0.216129 
0.45102 -0.764468 0.46062 -0.239298 -0.556649 0.795537 0.727097 -0.608956 0.31702 
-0.182461 -0.530368 0.8279 0.971696 -0.169336 0.164719 -0.342519 -0.0350659 0.938856 
-0.196548 -0.170624 0.965534 -0.211515 0.0612003 0.975457 0.626216 0.690645 0.36175 
-0.264511 0.345699 0.900292 0.0697572 0.788932 0.610508 0.131081 0.800412 0.584943 
0.00354309 0.638885 0.769294 0.213553 -0.902518 0.373974 -0.111818 -0.779868 0.615876 
0.225071 -0.757528 0.612776 0.688793 -0.541794 0.481688 0.900881 -0.173051 0.398078 
-0.211109 -0.126057 0.9693 0.788217 0.337491 0.514601 -0.0900502 0.418414 0.903781 
-0.116804 0.419742 0.900096 -0.0259267 0.507948 0.860998 0.247632 0.612822 0.750418 
-0.00378891 0.684424 0.729074 0.335218 -0.720804 0.606688 -0.153348 -0.520621 0.839904 
-0.0347324 -0.711701 0.701623 0.7473 0.302851 0.591459 0.355534 0.447956 0.820324 
-0.11479 0.158554 0.980655 -0.1213 -0.0869583 0.9888 0.00845066 0.271643 0.962361 
0.589604 -0.309847 0.745897 -0.378297 0.721686 0.579708 -0.767046 0.623112 0.152878 

