# vtk DataFile Version 4.2
vtk output
ASCII
DATASET POLYDATA
POINTS 2435 float
383.396 98.5503 137.764 382.167 101.032 137.494 378.919 102.693 137.442 
376.07 103.135 137.945 376.908 104.524 137.557 376.682 105.381 137.548 
375.226 106.524 137.786 373.5 107.222 138.324 380.368 106.387 137.71 
381.745 105.749 137.79 376.146 107.703 137.719 372.643 109.029 138.757 
378.932 108.671 138.106 372.943 110.283 138.763 374.727 109.889 138.282 
372.624 110.982 139.101 376.121 110.686 138.615 373.692 111.278 138.973 
380.727 96.6296 138.651 385.251 97.5072 138.011 388.271 97.1014 138.323 
379.513 99.3064 137.996 376.294 100.721 138.554 386.349 101.196 138.064 
386.034 104.54 138.494 372.739 105.385 138.985 384.538 105.625 138.385 
371.607 108.566 139.481 381.561 108.545 138.631 371.141 110.654 140.003 
379.995 110.512 139.181 371.567 111.579 139.987 371.567 111.976 140.179 
371.744 112.236 140.264 373.858 112.42 139.722 372.796 112.693 140.258 
395.599 87.3311 139.514 391.356 88.1761 139.572 388.947 92.0698 138.965 
390.367 92.518 138.867 392.474 93.6172 138.917 383.627 95.2994 138.566 
377.476 97.2067 139.646 375.422 99.7167 139.446 388.942 100.044 138.552 
373.029 103.527 139.401 372.41 103.911 139.745 388.693 103.22 138.99 
386.182 107.853 139.824 371.019 111.875 140.709 377.084 112.163 139.605 
374.974 113.498 140.604 401.575 82.203 140.615 400.227 83.6913 140.322 
393.852 84.9734 140.181 388.991 86.5431 140.558 399.258 90.0472 139.813 
380.838 93.5392 140.127 399.264 93.8581 140.104 396.015 95.1057 139.541 
394.581 97.0317 139.488 374.72 98.7593 140.688 392.729 98.9834 139.328 
372.193 103.149 140.429 371.889 103.535 140.609 392.305 103.189 140.15 
390.055 104.219 139.706 391.276 104.155 140.108 370.309 108.834 140.845 
370.389 110.052 140.85 383.51 109.98 140.144 370.546 111.473 141.167 
371.996 113.452 141.822 390.988 83.62 141.344 405.723 83.7104 141.107 
406.914 84.8869 141.345 405.235 85.7779 140.926 385.428 88.2888 140.985 
382.518 90.5722 141.032 376.018 96.3144 141.412 399.622 97.5213 140.929 
395.849 102.29 141.042 370.984 105.621 140.896 370.562 106.974 140.9 
387.243 108.886 140.916 379.383 112.724 140.882 376.14 113.861 141.23 
374.833 114.412 142.295 403.365 77.4585 142.324 398.433 78.8009 141.957 
409.14 78.1965 142.599 410.564 78.4298 142.83 393.641 81.0896 141.935 
404.816 82.1377 141.165 408.461 81.663 141.972 384.556 87.144 142.122 
409.135 87.1109 142.173 380.412 90.4717 142.524 405.022 92.8769 141.756 
377.628 93.5243 142.577 402.182 98.3516 142.085 371.517 102.139 142.537 
370.975 103.683 142.401 398.148 103.311 142.322 370.204 106.018 142.433 
389.933 108.528 141.766 386.318 110.577 142.095 391.538 109 142.976 
369.646 111.16 142.832 380.326 112.856 141.461 371.229 113.552 143.188 
407.418 76.4872 142.842 397.839 77.479 142.742 412.422 82.3891 143.13 
383.404 86.663 143.284 381.51 89.0503 142.778 407.992 90.3571 142.286 
378.237 91.8746 143.696 378.754 92.0044 142.793 376.321 94.9206 142.721 
373.505 98.2141 143.927 400.064 101.93 142.52 393.824 106.767 142.294 
369.412 109.234 143.547 369.383 109.658 143.339 388.277 110.278 142.767 
369.505 111.145 143.657 381.703 112.946 142.414 382.172 113.121 143 
373.033 114.818 143.821 378.165 114.503 143.363 398.917 74.6026 144.047 
410.763 74.2448 143.89 413.722 79.275 143.713 387.5 82.8632 143.512 
385.47 84.1283 143.932 412.82 84.5763 143.392 379.526 89.5226 144.751 
378.693 90.606 144.796 379.83 89.972 143.664 411.184 91.0977 143.902 
375.722 94.8186 144.373 407.031 96.4339 143.62 371.731 101.108 143.874 
397.066 106.362 143.566 398.186 106.565 144.314 394.449 108.938 144.386 
386.293 111.823 143.833 369.69 111.711 144.096 371.509 114.123 144.643 
372.466 114.789 145.194 413.474 69.3825 145.515 414.704 69.3001 145.657 
402.028 71.2091 145.326 406.261 72.1294 144.454 412.38 72.4314 144.624 
416.279 73.2107 145.345 395.078 74.9124 145.158 391.309 78.7128 144.432 
389.384 79.8572 144.77 416.523 80.7899 145.005 382.913 85.4425 145.092 
381.252 86.8771 145.645 415.617 86.6808 145.186 380.749 87.8422 145.018 
379 89.7188 145.724 376.584 93.2531 145.305 411.029 94.1668 144.866 
372.371 99.8181 145.215 371.437 101.854 144.73 405.921 100.442 144.679 
404.879 103.143 145.665 369.958 106.331 144.278 400.385 105.833 145.037 
369.553 110.981 144.467 369.606 110.554 144.94 391.13 110.689 145.14 
370.869 113.583 145.221 374.319 115.29 144.973 377.119 115.19 145.15 
378.927 114.879 145.051 372.985 115.025 145.835 417.773 66.8191 146.705 
407.137 68.6585 145.952 417.706 68.9603 146.34 394.564 73.001 146.756 
391.625 76.7425 145.735 387.289 80.7754 145.608 417.582 82.9794 145.868 
379.966 88.0296 146.784 415.845 89.4314 146.149 377.31 92.0354 146.228 
413.773 92.7894 145.985 374.823 95.9017 145.978 409.797 98.84 146.189 
369.905 107.247 145.341 400.791 106.382 145.838 398.524 107.664 145.641 
392.724 110.237 145.359 388.991 111.904 146.18 370.409 112.74 145.911 
370.623 113.175 145.879 381.729 114.37 145.707 371.446 114.153 146.458 
376.167 115.454 146.012 372.215 114.717 146.56 417.554 62.7246 147.559 
420.611 62.35 148.227 415.267 64.4305 147.015 399.467 69.4919 147.115 
419.866 74.3205 146.955 419.378 79.7773 146.824 381.327 85.971 147.626 
380.979 86.3871 147.847 375.385 94.9753 146.593 371.933 101.404 146.585 
408.649 101.408 146.886 370.128 108.824 146.519 400.011 107.704 146.974 
397.268 108.987 146.641 394.882 109.914 146.448 390.968 111.383 146.723 
370.532 112.115 146.874 384.652 113.557 146.398 371.399 114.131 146.918 
371.729 114.313 147.222 372.094 114.599 147.297 371.295 114.02 146.981 
372.595 114.853 147.453 419.494 59.4982 148.721 414.461 60.9897 148.267 
419.746 61.4042 148.158 421.867 63.7337 148.652 410.224 65.461 147.027 
400.302 67.9939 147.866 421.488 68.9008 148.078 397.219 69.6443 147.995 
388.67 76.9962 148.022 421.367 76.851 148.115 385.297 80.6786 148.392 
383.527 82.9153 148.334 379.909 87.8911 148.644 419.022 88.1979 148.356 
418.551 89.2861 148.29 417.175 92.7517 148.59 371.017 105.052 147.361 
407.411 104.576 148.691 400.115 108.232 148.122 387.773 112.771 147.682 
371.296 113.581 147.507 377.346 115.485 147.366 372.526 114.705 148.033 
372.776 114.916 148.157 372.853 114.994 147.982 373.329 115.069 148.228 
372.798 114.984 148.073 418.963 56.6542 149.642 421.948 58.0427 149.725 
422.054 58.236 149.69 415.701 58.3212 149.178 421.667 59.1049 149.425 
422.323 58.5554 149.772 422.89 59.9218 149.806 387.538 77.2275 149.457 
383.048 83.1773 149.817 420.922 82.7451 148.648 419.206 90.0521 149.232 
377.61 91.7434 148.899 376.346 93.7939 148.283 374.621 97.099 148.382 
416.102 95.6043 149.167 373.303 99.6673 148.163 412.918 99.7623 149.056 
406.044 105.446 148.662 408.517 104.369 149.306 371.194 108.207 148.596 
397.908 109.414 148.759 394.018 110.773 149.187 380.36 115.111 148.239 
382.616 114.575 148.415 373.014 114.831 148.522 373.436 115.117 148.544 
373.411 115.036 148.653 374.026 115.086 148.831 373.495 115.116 148.655 
416.318 54.9239 150.603 417.871 54.2198 150.701 421.873 54.1408 151.052 
414 56.0087 150.017 414 56.0087 150.017 414 56.0087 150.017 
414 56.0087 150.017 422.193 56.143 150.444 414 56.0088 150.017 
421.937 56.9787 150.06 424.861 62.1692 150.828 396.11 67.7217 150.272 
394.198 69.387 150.216 424.291 69.5118 150.293 393.625 71.238 148.878 
391.003 71.7918 151.14 390.712 72.659 150.462 422.742 82.233 150.424 
381.741 85.0618 150.279 380.737 87.0461 150.698 378.609 90.5007 149.977 
411.363 102.444 149.857 408.809 104.848 150.175 406.065 105.713 149.057 
371.585 110.23 149.21 372.101 112.236 149.549 372.094 113.224 149.062 
384.499 114.068 149.206 387.984 112.901 149.379 372.583 114.165 148.955 
373.046 114.428 149.163 373.619 115.068 148.787 374.84 114.991 149.555 
377.578 115.243 149.631 420.698 52.0287 151.709 420.13 51.8455 151.754 
421.315 52.1187 151.76 418.347 52.3138 151.512 421.013 53.5167 151.129 
422.419 54.3901 151.195 412.591 56.6633 150.834 414 56.0087 150.017 
424.954 64.1162 150.85 425.257 67.5174 151.163 424.132 76.9936 151.044 
385.688 79.0385 151.588 423.355 81.7929 150.992 382.537 84.0238 151.423 
421.002 89.7398 151.308 419.614 91.0177 150.18 419.515 92.5858 150.938 
375.663 98.0565 151 375.002 99.1513 150.702 373.331 103.328 150.42 
372.475 106.488 150.204 406.537 106.408 150.753 405.088 107.125 150.906 
394.844 110.508 150.499 396.556 109.972 150.871 373.097 113.337 150.242 
373.435 114.047 150.08 379.998 115.075 150.048 419.876 50.4843 152.481 
419.322 51.633 151.866 421.587 51.3578 152.166 422.534 52.3361 151.969 
423.369 53.4266 151.925 423.699 53.0864 152.228 425.756 57.0471 152.501 
425.612 60.9473 151.665 391.199 70.8139 152.072 388.974 73.57 152.818 
383.339 82.8014 151.784 424.02 81.5054 151.892 422.888 85.3539 151.772 
422.054 87.2892 151.482 380.468 88.7154 152.252 379.536 89.9679 151.488 
377.14 94.5429 150.956 377.405 94.9251 151.635 417.372 97.3489 151.771 
413.001 102.574 151.863 411.663 103.783 151.846 373.835 110.317 151.783 
383.595 114.198 151.389 375.34 114.29 151.048 378.773 114.695 151.444 
379.112 114.944 150.81 421.268 48.3652 153.688 424.407 50.9224 153.387 
414.117 51.7105 153.083 425.784 55.7986 152.808 427.114 63.3763 153.171 
396.04 65.0109 152.822 393.337 66.9216 153.741 384.242 81.654 152.829 
378.355 94.5629 152.816 375.019 103.711 152.404 374.339 107.079 152.347 
394.261 110.279 152.992 397.417 109.622 152.486 390.782 111.601 152.094 
374.639 112.335 151.927 388.878 112.218 152.531 386.591 113.135 152.308 
377.238 114.04 152.222 376.756 113.988 152.079 377.119 113.648 152.582 
374.826 114.063 151.027 423 46.0087 154.017 423 46.0087 154.017 
423 46.0087 154.017 423 46.0087 154.017 423 46.0088 154.017 
418.396 47.76 154.067 425.49 48.1778 154.902 414.764 48.749 154.659 
426.661 49.3457 155.138 427.712 60.1975 154.123 398.189 61.8714 154.1 
427.608 69.0244 154.419 426.53 75.7343 154.248 385.305 79.933 153.479 
[...]
POINT_DATA 2435
SCALARS scalars float
LOOKUP_TABLE default
1 1 1 1 1 1 1 1 1 
1 1 1 1 1 1 1 1 1 
1 1 1 1 1 1 1 1 1 
1 1 1 1 1 1 1 1 1 
1 1 1 1 1 1 1 1 1 
1 1 1 1 1 1 1 1 1 
1 1 1 1 1 1 1 1 1 
1 1 1 1 1 1 1 1 1 
1 1 1 1 1 1 1 1 1 
1 1 1 1 1 1 1 1 1 
1 1 1 1 1 1 1 1 1 
1 1 1 1 1 1 1 1 1 
1 1 1 1 1 1 1 1 1 
1 1 1 1 1 1 1 1 1 
1 1 1 1 1 1 1 1 1 
1 1 1 1 1 1 1 1 1 
1 1 1 1 1 1 1 1 1 
1 1 1 1 1 1 1 1 1 
1 1 1 1 1 1 1 1 1 
1 1 1 1 1 1 1 1 1 
1 1 1 1 1 1 1 1 1 
1 1 1 1 1 1 1 1 1 
1 1 1 1 1 1 1 1 1 
1 1 1 1 1 1 1 1 1 
1 1 1 1 1 1 1 1 1 
1 1 1 1 1 1 1 1 1 
1 1 1 1 1 1 1 1 1 
1 1 1 1 1 1 1 1 1 
1 1 1 1 1 1 1 1 1 
1 1 1 1 1 1 1 1 1 
1 1 1 1 1 1 1 1 1 
1 1 1 1 1 1 1 1 1 
1 1 1 1 1 1 1 1 1 
1 1 1 1 1 1 1 1 1 
1 1 1 1 1 1 1 1 1 
1 1 1 1 1 1 1 1 1 
1 1 1 1 1 1 1 1 1 
1 1 1 1 1 1 1 1 1 
1 1 1 1 1 1 1 1 1 
1 1 1 1 1 1 1 1 1 
1 1 1 1 1 1 1 1 1 
1 1 1 1 1 1 1 1 1 
1 1 1 1 1 1 1 1 1 
1 1 1 1 1 1 1 1 1 
1 1 1 1 1 1 1 1 1 
1 1 1 1 1 1 1 1 1 
1 1 1 1 1 1 1 1 1 
1 1 1 1 1 1 1 1 1 
1 1 1 1 1 1 1 1 1 
1 1 1 1 1 1 1 1 1 
1 1 1 1 1 1 1 1 1 
1 1 1 1 1 1 1 1 1 
1 1 1 1 1 1 1 1 1 
1 1 1 1 1 1 1 1 1 
1 1 1 1 1 1 1 1 1 
1 1 1 1 1 1 1 1 1 
1 1 1 1 1 1 1 1 1 
1 1 1 1 1 1 1 1 1 
1 1 1 1 1 1 1 1 1 
1 1 1 1 1 1 1 1 1 
1 1 1 1 1 1 1 1 1 
1 1 1 1 1 1 1 1 1 
1 1 1 1 1 1 1 1 1 
1 1 1 1 1 1 1 1 1 
1 1 1 1 1 1 1 1 1 
1 1 1 1 1 1 1 1 1 
1 1 1 1 1 1 1 1 1 
1 1 1 1 1 1 1 1 1 
1 1 1 1 1 1 1 1 1 
1 1 1 1 1 1 1 1 1 
1 1 1 1 1 1 1 1 1 
1 1 1 1 1 1 1 1 1 
1 1 1 1 1 1 1 1 1 
1 1 1 1 1 1 1 1 1 
1 1 1 1 1 1 1 1 1 
1 1 1 1 1 1 1 1 1 
1 1 1 1 1 1 1 1 1 
1 1 1 1 1 1 1 1 1 
1 1 1 1 1 1 1 1 1 
1 1 1 1 1 1 1 1 1 
1 1 1 1 1 1 1 1 1 
1 1 1 1 1 1 1 1 1 
1 1 1 1 1 1 1 1 1 
1 1 1 1 1 1 1 1 1 
1 1 1 1 1 1 1 1 1 
1 1 1 1 1 1 1 1 1 
1 1 1 1 1 1 1 1 1 
1 1 1 1 1 1 1 1 1 
1 1 1 1 1 1 1 1 1 
1 1 1 1 1 1 1 1 1 
1 1 1 1 1 1 1 1 1 
1 1 1 1 1 1 1 1 1 
1 1 1 1 1 1 1 1 1 
1 1 1 1 1 1 1 1 1 
1 1 1 1 1 1 1 1 1 
1 1 1 1 1 1 1 1 1 
1 1 1 1 1 1 1 1 1 
1 1 1 1 1 1 1 1 1 
1 1 1 1 1 1 1 1 1 
1 1 1 1 1 1 1 1 1 
1 1 1 1 1 1 1 1 1 
1 1 1 1 1 1 1 1 1 
1 1 1 1 1 1 1 1 1 
1 1 1 1 1 1 1 1 1 
1 1 1 1 1 1 1 1 1 
1 1 1 1 1 1 1 1 1 
1 1 1 1 1 1 1 1 1 
1 1 1 1 1 1 1 1 1 
1 1 1 1 1 1 1 1 1 
1 1 1 1 1 1 1 1 1 
1 1 1 1 1 1 1 1 1 
1 1 1 1 1 1 1 1 1 
1 1 1 1 1 1 1 1 1 
1 1 1 1 1 1 1 1 1 
1 1 1 1 1 1 1 1 1 
1 1 1 1 1 1 1 1 1 
1 1 1 1 1 1 1 1 1 
1 1 1 1 1 1 1 1 1 
1 1 1 1 1 1 1 1 1 
1 1 1 1 1 1 1 1 1 
1 1 1 1 1 1 1 1 1 
1 1 1 1 1 1 1 1 1 
1 1 1 1 1 1 1 1 1 
1 1 1 1 1 1 1 1 1 
1 1 1 1 1 1 1 1 1 
1 1 1 1 1 1 1 1 1 
1 1 1 1 1 1 1 1 1 
1 1 1 1 1 1 1 1 1 
1 1 1 1 1 1 1 1 1 
1 1 1 1 1 1 1 1 1 
1 1 1 1 1 1 1 1 1 
1 1 1 1 1 1 1 1 1 
1 1 1 1 1 1 1 1 1 
1 1 1 1 1 1 1 1 1 
1 1 1 1 1 1 1 1 1 
1 1 1 1 1 1 1 1 1 
1 1 1 1 1 1 1 1 1 
1 1 1 1 1 1 1 1 1 
1 1 1 1 1 1 1 1 1 
1 1 1 1 1 1 1 1 1 
1 1 1 1 1 1 1 1 1 
1 1 1 1 1 1 1 1 1 
1 1 1 1 1 1 1 1 1 
1 1 1 1 1 1 1 1 1 
1 1 1 1 1 1 1 1 1 
1 1 1 1 1 1 1 1 1 
1 1 1 1 1 1 1 1 1 
1 1 1 1 1 1 1 1 1 
1 1 1 1 1 1 1 1 1 
1 1 1 1 1 1 1 1 1 
1 1 1 1 1 1 1 1 1 
1 1 1 1 1 1 1 1 1 
1 1 1 1 1 1 1 1 1 
1 1 1 1 1 1 1 1 1 
1 1 1 1 1 1 1 1 1 
1 1 1 1 1 1 1 1 1 
1 1 1 1 1 1 1 1 1 
1 1 1 1 1 1 1 1 1 
1 1 1 1 1 1 1 1 1 
1 1 1 1 1 1 1 1 1 
1 1 1 1 1 1 1 1 1 
1 1 1 1 1 1 1 1 1 
1 1 1 1 1 1 1 1 1 
1 1 1 1 1 1 1 1 1 
1 1 1 1 1 1 1 1 1 
1 1 1 1 1 1 1 1 1 
1 1 1 1 1 1 1 1 1 
1 1 1 1 1 1 1 1 1 
1 1 1 1 1 1 1 1 1 
1 1 1 1 1 1 1 1 1 
1 1 1 1 1 1 1 1 1 
1 1 1 1 1 1 1 1 1 
1 1 1 1 1 1 1 1 1 
1 1 1 1 1 1 1 1 1 
1 1 1 1 1 1 1 1 1 
1 1 1 1 1 1 1 1 1 
1 1 1 1 1 1 1 1 1 
1 1 1 1 1 1 1 1 1 
1 1 1 1 1 1 1 1 1 
1 1 1 1 1 1 1 1 1 
1 1 1 1 1 1 1 1 1 
1 1 1 1 1 1 1 1 1 
1 1 1 1 1 1 1 1 1 
1 1 1 1 1 1 1 1 1 
1 1 1 1 1 1 1 1 1 
1 1 1 1 1 1 1 1 1 
1 1 1 1 1 1 1 1 1 
1 1 1 1 1 1 1 1 1 
1 1 1 1 1 1 1 1 1 
1 1 1 1 1 1 1 1 1 
1 1 1 1 1 1 1 1 1 
1 1 1 1 1 1 1 1 1 
1 1 1 1 1 1 1 1 1 
1 1 1 1 1 1 1 1 1 
1 1 1 1 1 1 1 1 1 
1 1 1 1 1 1 1 1 1 
1 1 1 1 1 1 1 1 1 
1 1 1 1 1 1 1 1 1 
1 1 1 1 1 1 1 1 1 
1 1 1 1 1 1 1 1 1 
1 1 1 1 1 1 1 1 1 
1 1 1 1 1 1 1 1 1 
1 1 1 1 1 1 1 1 1 
1 1 1 1 1 1 1 1 1 
1 1 1 1 1 1 1 1 1 
1 1 1 1 1 1 1 1 1 
1 1 1 1 1 1 1 1 1 
1 1 1 1 1 1 1 1 1 
1 1 1 1 1 1 1 1 1 
1 1 1 1 1 1 1 1 1 
1 1 1 1 1 1 1 1 1 
1 1 1 1 1 1 1 1 1 
1 1 1 1 1 1 1 1 1 
1 1 1 1 1 1 1 1 1 
1 1 1 1 1 1 1 1 1 
1 1 1 1 1 1 1 1 1 
1 1 1 1 1 1 1 1 1 
1 1 1 1 1 1 1 1 1 
1 1 1 1 1 1 1 1 1 
1 1 1 1 1 1 1 1 1 
1 1 1 1 1 1 1 1 1 
1 1 1 1 1 1 1 1 1 
1 1 1 1 1 1 1 1 1 
1 1 1 1 1 1 1 1 1 
1 1 1 1 1 1 1 1 1 
1 1 1 1 1 1 1 1 1 
1 1 1 1 1 1 1 1 1 
1 1 1 1 1 1 1 1 1 
1 1 1 1 1 1 1 1 1 
1 1 1 1 1 1 1 1 1 
1 1 1 1 1 1 1 1 1 
1 1 1 1 1 1 1 1 1 
1 1 1 1 1 1 1 1 1 
1 1 1 1 1 1 1 1 1 
1 1 1 1 1 1 1 1 1 
1 1 1 1 1 1 1 1 1 
1 1 1 1 1 1 1 1 1 
1 1 1 1 1 1 1 1 1 
1 1 1 1 1 1 1 1 1 
1 1 1 1 1 1 1 1 1 
1 1 1 1 1 1 1 1 1 
1 1 1 1 1 1 1 1 1 
1 1 1 1 1 1 1 1 1 
1 1 1 1 1 1 1 1 1 
1 1 1 1 1 1 1 1 1 
1 1 1 1 1 1 1 1 1 
1 1 1 1 1 1 1 1 1 
1 1 1 1 1 1 1 1 1 
1 1 1 1 1 1 1 1 1 
1 1 1 1 1 1 1 1 1 
1 1 1 1 1 1 1 1 1 
1 1 1 1 1 1 1 1 1 
1 1 1 1 1 1 1 1 1 
1 1 1 1 1 1 1 1 1 
1 1 1 1 1 1 1 1 1 
1 1 1 1 1 1 1 1 1 
1 1 1 1 1 1 1 1 1 
1 1 1 1 1 1 1 1 1 
1 1 1 1 1 1 1 1 1 
1 1 1 1 1 1 1 1 1 
1 1 1 1 1 1 1 1 1 
1 1 1 1 1 1 1 1 1 
1 1 1 1 1 1 1 1 1 
1 1 1 1 1 1 1 1 1 
1 1 1 1 1 1 1 1 1 
1 1 1 1 1 1 1 1 1 
1 1 1 1 1 1 1 1 1 
1 1 1 1 1 1 1 1 1 
1 1 1 1 1 1 1 1 1 
1 1 1 1 1 1 1 1 1 
1 1 1 1 1 
NORMALS Normals float
-0.0152613 -0.165705 -0.986057 0.0749437 0.00473588 -0.997177 -0.0831638 -0.0577429 -0.994862 
-0.393497 -0.287725 -0.87314 -0.165542 -0.0230756 -0.985933 -0.120041 -0.0370329 -0.992078 
-0.283164 -0.10155 -0.95368 -0.375234 0.00390666 -0.926922 0.0940521 0.186253 -0.97799 
0.201683 0.199823 -0.958851 -0.0693223 0.159871 -0.984701 -0.454306 0.076834 -0.887526 
0.109496 0.254695 -0.960802 -0.304088 0.224988 -0.925695 -0.150826 0.222005 -0.963309 
-0.467233 0.201834 -0.860788 0.0415362 0.459098 -0.887414 -0.153204 0.466924 -0.870925 
-0.229461 -0.350082 -0.908179 0.0717614 -0.0952236 -0.992866 0.128281 -0.0179576 -0.991575 
-0.19759 -0.260773 -0.944963 -0.228362 -0.43039 -0.873279 0.176395 0.0567443 -0.982682 
0.237691 0.217609 -0.946652 -0.602898 -0.183598 -0.776405 0.223639 0.273862 -0.935407 
-0.642596 0.00843489 -0.766159 0.269658 0.351866 -0.896367 -0.682037 0.0830597 -0.726585 
0.253289 0.544562 -0.79956 -0.504902 0.379051 -0.775497 -0.44066 0.456302 -0.77305 
-0.399604 0.816824 -0.416071 -0.139578 0.680388 -0.719437 -0.248 0.615952 -0.747729 
0.0583351 -0.103305 -0.992938 -0.104734 -0.234323 -0.966501 -0.0745414 -0.125126 -0.989337 
-0.0378131 0.0347425 -0.998681 0.0738292 0.0301351 -0.996816 -0.161443 -0.326109 -0.931444 
-0.424831 -0.43653 -0.79307 -0.330076 -0.52129 -0.786961 0.241077 0.120069 -0.96305 
-0.49518 -0.305465 -0.813319 -0.756297 -0.234339 -0.61082 0.292936 0.220582 -0.93034 
0.298896 0.440719 -0.846421 -0.698347 0.563571 -0.441247 0.143453 0.603432 -0.784405 
-0.0511695 0.738504 -0.672305 0.0798235 -0.195506 -0.977449 -0.00621704 -0.223492 -0.974686 
-0.108649 -0.327307 -0.938651 -0.294881 -0.420165 -0.858199 0.206647 0.0522807 -0.977018 
-0.431534 -0.490801 -0.756897 0.277888 0.145038 -0.949601 0.196933 0.106658 -0.974598 
0.225831 0.1387 -0.964242 -0.592902 -0.585316 -0.553058 0.233575 0.131984 -0.96334 
-0.684936 -0.428973 -0.588935 -0.791057 -0.272218 -0.547837 0.295767 0.277815 -0.91397 
0.338537 0.3542 -0.871743 0.310606 0.294278 -0.903839 -0.868757 -0.0929289 -0.486441 
-0.800892 0.0117517 -0.598693 0.331421 0.5838 -0.741173 -0.768234 0.54351 -0.338249 
-0.45302 0.769018 -0.450981 -0.257756 -0.426235 -0.867114 0.250431 -0.130344 -0.95932 
0.30972 -0.071641 -0.948125 0.199563 0.00780262 -0.979854 -0.310236 -0.398951 -0.862897 
-0.42043 -0.4631 -0.780242 -0.663688 -0.548403 -0.508696 0.301443 0.244195 -0.921684 
0.307732 0.296845 -0.903982 -0.818024 -0.267023 -0.509446 -0.833029 -0.192672 -0.518594 
0.308702 0.5691 -0.762121 0.24568 0.743271 -0.622245 0.130045 0.831926 -0.539432 
-0.0979303 0.902267 -0.419909 9.38977e-05 -0.370062 -0.929007 -0.105268 -0.365981 -0.924649 
0.140985 -0.25097 -0.957673 0.254173 -0.143868 -0.956398 -0.277773 -0.450039 -0.848709 
0.207506 -0.212234 -0.954934 0.220655 -0.0974428 -0.970472 -0.42533 -0.554998 -0.714892 
0.337616 0.0852551 -0.937415 -0.608327 -0.503497 -0.613538 0.323901 0.181738 -0.928472 
-0.664971 -0.564545 -0.488981 0.364518 0.296446 -0.882749 -0.909798 -0.356718 -0.212177 
-0.91398 -0.287492 -0.286338 0.369344 0.41119 -0.833371 -0.93551 -0.292014 -0.198869 
0.358563 0.546247 -0.756998 0.308553 0.715541 -0.626735 0.339045 0.674729 -0.655583 
-0.90655 0.303799 -0.29304 0.295044 0.742455 -0.601423 -0.704027 0.661909 -0.257337 
0.117905 -0.278503 -0.953171 -0.228314 -0.479848 -0.847124 0.341449 -0.00662528 -0.939877 
-0.530608 -0.620688 -0.577236 -0.544746 -0.555729 -0.628026 0.341379 0.193347 -0.919825 
-0.757049 -0.539124 -0.369082 -0.635092 -0.525444 -0.566187 -0.665532 -0.564284 -0.488519 
-0.825042 -0.545793 -0.146341 0.377396 0.381515 -0.843812 0.33416 0.467075 -0.818644 
-0.992609 -0.121352 0.00126967 -0.992185 0.0142275 -0.12396 0.306884 0.750405 -0.585418 
-0.946743 0.30882 -0.0911502 0.320679 0.814781 -0.483008 0.323518 0.830274 -0.453852 
-0.340557 0.898559 -0.27679 0.188754 0.89938 -0.394318 -0.210426 -0.489316 -0.846339 
0.170177 -0.244116 -0.954697 0.352825 -0.091975 -0.931158 -0.457904 -0.570844 -0.681514 
-0.541849 -0.635937 -0.549531 0.42147 0.107063 -0.9005 -0.730222 -0.56365 -0.386103 
-0.73449 -0.554453 -0.391287 -0.712419 -0.524944 -0.465717 0.444368 0.23243 -0.865167 
-0.7954 -0.56167 -0.227742 0.422859 0.316018 -0.849308 -0.88149 -0.45973 -0.107818 
0.371224 0.555397 -0.744129 0.363443 0.6107 -0.70353 0.360708 0.714211 -0.599827 
0.331214 0.822659 -0.462092 -0.901928 0.427608 0.0606364 -0.582428 0.804144 -0.118871 
-0.458532 0.886681 -0.0595384 0.0668418 -0.293601 -0.953588 0.10972 -0.232188 -0.966463 
-0.162292 -0.490128 -0.856408 0.0128072 -0.370748 -0.928645 0.129653 -0.252643 -0.958833 
0.280997 -0.130883 -0.950742 -0.328266 -0.498141 -0.802557 -0.411057 -0.536752 -0.736838 
-0.532497 -0.493708 -0.687532 0.480163 0.0406152 -0.876238 -0.640629 -0.648125 -0.411738 
-0.686465 -0.649779 -0.326426 0.525039 0.173887 -0.833125 -0.682738 -0.596799 -0.421546 
-0.790733 -0.540519 -0.287368 -0.805746 -0.553597 -0.210486 0.466572 0.328975 -0.821027 
-0.854763 -0.506074 0.115189 -0.956183 -0.289119 0.0461018 0.42853 0.39559 -0.812324 
0.429807 0.510085 -0.745036 -0.942144 -0.331171 0.051866 0.420311 0.588688 -0.690496 
-0.966285 0.17678 0.187194 -0.957321 0.12187 0.262078 0.327671 0.849589 -0.413316 
-0.763415 0.645103 -0.0322345 -0.134413 0.979034 -0.153053 0.118067 0.968601 -0.218799 
0.215106 0.932789 -0.289196 -0.287761 0.957429 -0.0228813 0.254977 -0.160589 -0.953519 
-0.102348 -0.439213 -0.892534 0.309762 -0.133505 -0.941395 -0.424651 -0.55152 -0.717981 
-0.45009 -0.536485 -0.713865 -0.568805 -0.545454 -0.615581 0.590809 0.134114 -0.795587 
-0.771549 -0.612425 -0.172187 0.563165 0.257323 -0.785258 -0.829421 -0.551765 -0.0872663 
0.541385 0.327806 -0.774239 -0.872108 -0.487364 0.04363 0.508344 0.412226 -0.756079 
-0.962305 -0.156787 0.222231 0.443952 0.726478 -0.524535 0.403687 0.760534 -0.508552 
0.315847 0.860149 -0.40048 0.336899 0.872917 -0.352867 -0.909033 0.376709 0.178182 
-0.86159 0.48239 0.157996 0.26787 0.932149 -0.243605 -0.631372 0.775209 -0.0205273 
-0.022624 0.998153 -0.0563788 -0.500271 0.865157 -0.0351056 0.08362 -0.252938 -0.963862 
0.32898 -0.189188 -0.925192 0.00921394 -0.280803 -0.959721 -0.29783 -0.558293 -0.774342 
0.52146 -0.0115786 -0.853197 0.621994 0.0874378 -0.778125 -0.788029 -0.571838 -0.228061 
-0.817661 -0.561631 -0.126496 -0.854015 -0.518913 0.0372493 -0.888885 -0.342066 0.304751 
0.49142 0.481649 -0.725618 -0.930563 -0.0311094 0.364809 0.443029 0.741094 -0.504486 
0.374701 0.807699 -0.455216 0.327222 0.86458 -0.381349 0.351014 0.924344 -0.14959 
-0.891443 0.216908 0.397844 0.324695 0.91555 -0.237364 -0.626927 0.7762 0.0669067 
-0.614677 0.734551 0.287414 -0.593136 0.776022 0.214429 -0.761179 0.619681 0.191318 
-0.396777 0.917912 0.00236417 0.168682 -0.277803 -0.945713 -0.0961838 -0.366659 -0.92537 
0.232685 -0.240734 -0.942287 0.511456 -0.0611597 -0.857131 -0.0943746 -0.388318 -0.91668 
-0.299719 -0.554822 -0.776106 0.504153 -0.0583934 -0.861638 -0.382438 -0.576082 -0.722407 
-0.602757 -0.546467 -0.581428 0.658098 0.0767017 -0.749015 -0.729647 -0.583796 -0.356086 
-0.721985 -0.626695 -0.293242 -0.847972 -0.517405 0.115049 0.697058 0.219806 -0.682492 
0.599106 0.33108 -0.729012 0.644758 0.356473 -0.676177 -0.927214 -0.265616 0.26405 
0.465104 0.670475 -0.57805 0.411716 0.873701 -0.259107 0.345359 0.910024 -0.229311 
-0.780593 0.449576 0.43423 0.0369971 0.999315 0.000672204 -0.671587 0.661873 0.333009 
-0.626093 0.627745 0.46254 -0.170231 0.978929 -0.11278 -0.170012 0.985381 0.0109288 
-0.464025 0.858643 0.217746 0.0504798 -0.35879 -0.932052 0.341764 -0.333831 -0.878495 
0.445697 -0.296563 -0.844633 -0.120443 -0.373833 -0.919643 0.228972 -0.175553 -0.957472 
0.534133 -0.248138 -0.808164 0.503027 -0.172575 -0.846866 -0.717075 -0.567586 -0.404536 
-0.784887 -0.618162 -0.0427442 0.68865 0.163046 -0.706525 0.665732 0.33143 -0.668547 
-0.83376 -0.482239 0.268868 -0.89275 -0.391733 0.222583 -0.856396 -0.433174 0.280973 
0.587818 0.401034 -0.702597 -0.850019 -0.424225 0.31225 0.603061 0.501353 -0.620454 
0.390205 0.710859 -0.585166 0.468108 0.662114 -0.585218 -0.837928 -0.05621 0.542878 
0.393404 0.903728 -0.168849 0.29825 0.947209 -0.117652 0.132771 0.990197 -0.0433857 
0.259098 0.964415 -0.0526533 -0.528595 0.729387 0.43426 -0.403139 0.908601 0.109191 
-0.595632 0.689552 0.411997 -0.0915046 0.960146 0.264094 -0.130062 0.960613 0.245574 
-0.182925 -0.441669 -0.878332 -0.104482 -0.423808 -0.899705 0.340651 -0.46552 -0.816852 
0 -0.992278 -0.124035 0 -1 0 -0.184289 -0.982872 0 
0.184289 -0.982872 0 0.340272 -0.305748 -0.889232 0 1 0 
0.179573 -0.309301 -0.933856 0.640763 -0.0688697 -0.764644 -0.441338 -0.601453 -0.665939 
-0.53219 -0.591932 -0.605302 0.726841 0.0626534 -0.683941 -0.542356 -0.585126 -0.602891 
-0.681567 -0.575357 -0.452141 -0.640493 -0.573176 -0.511114 0.749622 0.25258 -0.611776 
-0.847503 -0.528033 0.0540347 -0.853718 -0.477096 0.208675 -0.84587 -0.471494 0.249393 
0.559519 0.571278 -0.600483 0.492208 0.741028 -0.456737 0.369928 0.786319 -0.49483 
-0.834054 0.0515672 0.549267 -0.75594 0.226918 0.614054 -0.72637 0.356132 0.587841 
0.303188 0.952647 -0.0232671 0.365986 0.92916 -0.0521258 -0.664588 0.5323 0.524384 
-0.434168 0.714137 0.549096 -0.303484 0.711409 0.633873 -0.216144 0.905272 0.365739 
-0.0424629 0.966943 0.251433 0.0169151 -0.273508 -0.961721 0.00884014 -0.306994 -0.951671 
0.16948 -0.454186 -0.874638 -0.0759642 -0.442584 -0.893504 0.186119 -0.398434 -0.898115 
0.500576 -0.305138 -0.810132 -0.289003 -0.473579 -0.831986 0 -0.992278 0.124035 
0.7074 0.0223375 -0.706461 0.691914 0.00729445 -0.721943 0.752119 0.112116 -0.64942 
-0.835063 -0.550135 -0.00449385 0.783354 0.272772 -0.558526 -0.858856 -0.475932 0.189352 
0.785881 0.300575 -0.540412 0.69339 0.33211 -0.639464 0.726693 0.371678 -0.57773 
-0.78842 -0.34391 0.510019 -0.782725 -0.268018 0.5617 -0.796814 -0.241168 0.554009 
-0.783703 -0.104197 0.612334 0.425649 0.797991 -0.426653 0.339027 0.858851 -0.383972 
0.323556 0.93876 0.118492 0.372926 0.927791 0.0113769 -0.674722 0.353534 0.647892 
-0.516506 0.60584 0.605127 0.137025 0.972325 0.189231 0.0726805 -0.497517 -0.864404 
-0.0374776 -0.288736 -0.956675 0.21869 -0.515031 -0.828805 0.344935 -0.40941 -0.844632 
0.448765 -0.23141 -0.863168 0.487661 -0.357803 -0.796344 0.604641 -0.170358 -0.778066 
0.684016 -0.174272 -0.708344 -0.695381 -0.57058 -0.436901 -0.844158 -0.504293 -0.181898 
-0.823392 -0.558638 0.0997434 0.832801 0.231173 -0.502992 0.774068 0.237116 -0.587022 
0.784532 0.275753 -0.5554 -0.851622 -0.377303 0.363845 -0.814487 -0.398255 0.421905 
-0.874524 -0.253837 0.413248 -0.879214 -0.205882 0.429646 0.706273 0.468375 -0.530851 
0.626171 0.60914 -0.486682 0.542859 0.724891 -0.424073 -0.712578 0.0677726 0.698312 
0.243252 0.955716 0.165636 -0.353401 0.660327 0.662628 -0.0462397 0.885565 0.462208 
0.0439513 0.970401 0.237468 0.0760134 -0.492374 -0.867058 0.391548 -0.329003 -0.859329 
-0.361048 -0.493533 -0.791246 0.671487 -0.154873 -0.724651 0.774748 -0.00096961 -0.632269 
-0.516464 -0.601122 -0.609851 -0.742483 -0.522797 -0.418811 -0.828901 -0.495819 0.259011 
-0.774163 -0.311429 0.551074 -0.684574 -0.152937 0.712719 -0.670851 -0.050316 0.739883 
0.429451 0.881904 0.194469 0.347823 0.934301 -0.0781083 0.299526 0.941352 0.155374 
-0.54949 0.332713 0.766396 0.372375 0.913381 0.164534 0.31014 0.926432 0.213396 
-0.131105 0.780088 0.611779 -0.257028 0.795474 0.548779 -0.253411 0.638149 0.727013 
-0.378454 0.642892 0.66593 0 -0.992278 -0.124035 0 -1 0 
-0.184289 -0.982872 0 0.184289 -0.982872 0 0 1 0 
-0.106767 -0.532825 -0.839463 0.400087 -0.381137 -0.833466 -0.303717 -0.49881 -0.811754 
0.566957 -0.209423 -0.796682 0.756781 -0.113385 -0.64376 -0.490986 -0.605119 -0.626708 
0.821974 0.0878751 -0.562705 0.844357 0.129132 -0.519988 -0.841919 -0.521652 0.138028 
-0.893529 -0.405833 0.192108 -0.839898 -0.487213 0.239154 0.776007 0.400388 -0.487342 
-0.759822 -0.264343 0.593964 -0.691867 -0.19737 0.694525 0.648531 0.579756 -0.493244 
-0.594453 0.0933442 0.798695 -0.485797 0.439053 0.7558 -0.221093 0.715582 0.662616 
0.117763 0.914512 0.387041 0.0553342 0.811045 0.582361 0.283962 -0.487997 -0.825363 
-0.208861 -0.572028 -0.793197 -0.0241236 -0.550379 -0.834567 0 -0.992278 0.124035 
0.202093 -0.454123 -0.867716 0.63389 -0.157126 -0.757294 -0.442784 -0.548684 -0.709146 
-0.416251 -0.609115 -0.675066 0.827908 0.0711797 -0.556329 -0.809197 -0.554648 -0.19382 
-0.895874 -0.394385 0.204622 -0.823026 -0.45779 0.336238 -0.838522 -0.378436 0.392005 
0.814824 0.382488 -0.43562 -0.757047 -0.210593 0.618491 0.644602 0.662843 -0.380956 
0.594833 0.70721 -0.382136 0.530795 0.787846 -0.312338 0.143065 0.985329 -0.0930559 
-0.55871 0.0557216 0.827489 0.0728644 0.98309 0.168 0.00401352 0.996941 0.0780529 
0.264329 0.904367 0.335039 0.201267 0.955628 -0.215097 -0.436535 0.400185 0.805785 
-0.454688 0.37706 0.806898 0.269718 0.86172 0.429756 -0.151293 0.704238 0.693657 
-0.0373487 0.774791 0.631114 0.0181597 0.853819 0.520252 -0.284604 -0.561894 -0.776709 
0.585231 -0.329038 -0.741106 0.667638 -0.179955 -0.722409 0.809866 -0.0419282 -0.585114 
-0.668685 -0.542067 -0.508944 0.878909 0.142985 -0.455055 0.856548 0.255598 -0.448326 
0.72844 0.592933 -0.343228 -0.582314 -0.0711231 0.809847 -0.618008 -0.0786651 0.782226 
-0.172082 0.984349 0.0380072 0.306138 0.902451 -0.303086 0.242604 0.862308 0.444487 
-0.171335 0.73403 0.657149 -0.0530828 0.768871 0.637197 0.22809 -0.570646 -0.788884 
-0.244919 -0.601116 -0.760706 0.069311 -0.575444 -0.814899 0.467532 -0.522737 -0.712854 
0.433155 -0.331878 -0.837994 0.552115 -0.249462 -0.795574 0.882062 -0.00624711 -0.471092 
-0.686366 -0.540274 -0.486832 -0.892648 -0.436242 -0.113454 -0.907544 -0.240173 0.344501 
-0.834405 -0.356504 0.420324 0.86948 0.306414 -0.387446 0.773572 0.498494 -0.391267 
-0.640128 -0.135693 0.75619 -0.680702 -0.135877 0.719849 -0.589607 0.0474457 0.806296 
-0.470274 0.0484326 0.881191 -0.117243 0.945705 0.303144 0.421861 0.857263 -0.295185 
-0.115201 0.992017 0.0512851 -0.448713 0.206356 0.869525 -0.157298 0.987548 0.00242802 
0.176819 0.761792 0.623224 -0.375136 0.49233 0.78542 0.123426 0.730598 0.67156 
-0.174907 0.687687 0.704623 0.096017 -0.712896 -0.694665 0.125383 -0.63286 -0.764047 
-0.122605 -0.637552 -0.760589 -0.0235697 -0.658475 -0.752233 0.248834 -0.6955 -0.674063 
-0.385875 -0.59831 -0.702229 -0.473929 -0.543419 -0.692883 0.681849 -0.136035 -0.718733 