# vtk DataFile Version 4.2
vtk output
ASCII
DATASET POLYDATA
POINTS 892 float
235.785 73.8062 221.607 235.721 73.7891 221.639 235.678 73.858 221.602 
235.747 73.8631 221.623 235.571 73.965 221.675 235.854 73.7945 221.697 
235.762 73.9053 221.749 235.482 73.8818 221.677 235.966 73.6726 221.905 
234.319 74.4057 221.698 234.132 74.281 221.777 233.889 74.5332 221.747 
234.741 74.2474 221.683 235.143 74.1658 221.717 235.052 74.0007 221.714 
233.48 74.8117 221.8 234.532 74.5447 221.76 235.016 74.4014 221.864 
235.515 74.1289 221.933 233.07 75.1414 221.88 233.99 74.9075 221.832 
234.317 74.8354 221.891 233.565 75.2432 222.012 236.168 73.5366 222.206 
236.287 73.366 222.448 236.088 73.7175 222.16 236.373 73.4782 222.54 
232.024 75.0747 222.079 231.682 75.3835 222.088 231.519 75.8203 222.133 
234.317 74.9759 222.105 234.739 74.8152 222.303 229.887 76.7343 222.319 
229.325 76.9592 222.391 229.318 77.4877 222.568 221.124 82.7015 222.837 
221.097 82.6872 222.849 221.075 82.7266 222.861 219.921 83.473 223.029 
219.904 83.3929 223.032 219.813 83.5467 223.083 219.964 83.5019 223.101 
209.785 90.4972 222.679 210.211 90.1671 222.785 208.78 91.3518 222.632 
209.015 91.2253 222.653 207.055 92.6093 222.562 206.854 92.7459 222.59 
207.266 92.5513 222.605 207.234 92.395 222.579 207.623 92.1929 222.639 
207.168 92.7481 222.674 205.108 94.2999 222.782 205.127 94.2586 222.807 
205.073 94.3096 222.826 205.134 94.2796 222.796 203.15 95.6247 222.958 
203.119 95.5243 222.969 203 95.7522 223.008 203.257 95.551 222.975 
171.473 120.286 222.061 172.591 120.192 222.461 168.185 123.846 222.117 
168.605 123.943 222.227 168.593 123.604 222.169 168.108 124.422 222.19 
167.873 124.602 222.196 168.384 124.31 222.258 166.101 126.297 222.21 
166.001 126.633 222.256 164.488 127.787 222.449 166.057 126.888 222.354 
165.295 127.845 222.478 164.443 128.552 222.495 163.217 130.178 222.809 
163.27 129.782 222.78 236.183 73.1765 222.638 236.579 73.1979 222.863 
235.202 74.6048 222.575 230.868 75.4881 222.293 230.524 75.8754 222.248 
228.835 76.8883 222.505 224.675 79.7639 222.895 225.322 79.6114 222.883 
226.59 79.1219 222.953 227.773 78.5953 222.962 224.504 80.2479 222.965 
227.026 79.351 223.281 223.566 80.9287 223.08 224.148 80.6752 223.076 
221.121 82.5887 222.929 220.99 82.715 222.9 221.376 82.5623 223.042 
219.272 83.6185 223.2 220.021 83.1322 223.044 220.206 83.2597 223.066 
221.013 82.7861 222.986 219.614 83.783 223.294 215.948 86.1919 223.206 
214.104 86.9821 222.971 216.25 86.1908 223.344 213.576 88.0063 223.185 
211.096 89.3269 222.88 210.82 89.3894 222.97 209.148 90.9497 222.657 
209.322 90.5189 222.775 210.242 89.9687 222.852 211.049 89.6426 222.999 
211.558 89.4563 223.248 208.265 91.5538 222.648 209.324 91.0109 222.733 
209.837 90.6173 222.883 210.471 90.0416 222.933 208.15 92.0259 222.777 
205.04 94.2482 222.882 205.201 94.2107 222.889 202.207 96.0323 223.011 
201.726 96.221 222.991 203.432 95.1251 222.992 203.533 95.3852 223.088 
204.992 94.3814 222.985 202.917 96.0531 223.245 200.163 97.6907 223.223 
198.627 98.878 223.148 195.6 100.423 223 196.187 100.775 223.136 
196.368 100.269 223.071 194.573 101.657 222.976 194.314 101.641 222.937 
196.083 101.077 223.225 194.435 102.036 223.085 195.891 101.384 223.368 
192.244 103.898 223.123 192.344 103.5 223.046 188.386 105.33 222.882 
189.402 105.492 222.922 187.988 107.575 223.27 178.489 113.236 222.561 
181.915 111.895 223.086 181.596 112.413 223.223 176.391 114.704 222.488 
178.855 114.116 222.845 172.892 117.552 222.331 174.112 117.718 222.423 
172.024 119.349 222.157 170.33 119.676 222.238 171.785 121.161 222.454 
171.247 121.899 222.742 167.759 123.929 222.142 169.192 123.835 222.572 
165.409 125.066 222.451 166.572 125.223 222.2 167.624 125.339 222.421 
165.565 126.843 222.331 166.774 126.577 222.484 164.969 128.672 222.633 
237.148 72.7404 223.536 237.347 72.6007 223.776 237.514 72.5715 223.959 
237.342 72.8637 223.764 231.282 74.5514 222.894 235.723 74.455 223.53 
227.902 76.4678 222.991 222.351 80.5206 223.208 221.443 82.1153 223.061 
220.647 82.7424 223.024 222.198 82.0578 223.234 216.603 84.1442 223.352 
220.68 83.0926 223.156 216.183 84.8864 223.221 213.547 86.3963 223.119 
217.413 85.2374 223.476 216.731 86.0277 223.589 215.318 87.1991 223.515 
210.934 88.8078 223.119 214.264 88.032 223.624 214.816 87.8147 223.874 
210.752 89.4876 223.139 208.298 90.6164 222.959 209.876 90.0548 222.995 
210.665 89.7987 223.056 211.052 89.7861 223.459 210.167 90.288 223.149 
207.466 91.5843 222.73 205.483 93.7941 222.953 204.359 94.5479 223.045 
205.362 94.2443 223.207 201.299 96.3496 223.042 200.537 97.0843 223.166 
199.753 96.9939 223.214 199.218 98.027 223.171 201.53 97.1194 223.528 
196.605 99.1009 223.086 199.479 98.4047 223.401 194.103 101.478 222.954 
196.674 100.844 223.466 195.161 102.131 223.581 193.047 103.657 223.494 
185.558 106.598 222.915 177.234 113.448 222.59 175.925 113.86 222.721 
175.182 115.073 222.533 179.7 114.034 223.173 172.249 117.401 222.462 
165.25 123.807 222.86 162.905 127.632 223.179 166.568 127.176 222.762 
165.668 128.224 222.817 163.664 130.994 223.344 161.032 134.009 223.916 
157.273 140.2 224.113 157.9 140.276 224.014 157.843 139.791 224.048 
157.021 140.572 224.18 157.007 141.065 224.163 157.19 141.475 224.095 
157.035 141.98 224.178 157.21 154.98 224.292 157.002 156.216 224.424 
157.124 156.944 224.426 157.541 156.185 224.376 157.144 157.551 224.488 
157.348 157.813 224.478 157.552 157.66 224.491 157.482 158.218 224.555 
236.741 72.4212 223.903 237.46 72.4343 224.085 237.749 72.615 224.494 
217.13 83.3692 223.541 218.148 82.785 223.514 215.546 84.2662 223.538 
212.923 86.0733 223.488 210.293 89.6201 223.225 206.461 90.5468 223.784 
210.518 90.2603 223.551 203.041 93.2271 223.681 202.526 94.4877 223.249 
199.526 95.9854 223.578 204.295 95.3264 223.754 197.18 98.1241 223.282 
196.346 98.7782 223.225 192.596 100.743 223.467 193.406 100.91 223.181 
193.949 103.404 224.097 185.8 106.021 223.082 186.683 105.567 223.068 
191.449 105.434 223.845 191.768 105.298 224.067 187.067 108.931 223.744 
177.055 111.296 223.599 175.338 112.639 223.605 176.211 113.144 222.928 
183.17 112.103 224.315 175.272 113.929 222.904 171.072 116.071 223.783 
178.671 115.595 223.94 168.335 118.597 223.822 167.648 120.74 222.876 
162.785 126.857 223.549 160.433 135.496 224.173 157.864 138.6 224.211 
158.698 138.931 224.173 159.5 139.075 224.462 156.537 141.115 224.596 
157.071 143.686 224.381 157.25 145.486 224.46 157.599 145.294 224.452 
156.781 146.752 224.615 156.363 148.033 224.832 156.657 148.745 224.66 
156.575 149.863 224.671 156.23 149.705 224.868 157.002 149.43 224.562 
155.982 150.67 225.108 156.62 151.135 224.594 156.074 153.102 224.978 
157.79 155.674 224.464 156.993 157.848 224.615 157.82 157.372 224.588 
157.806 159.041 224.787 157.296 161.037 225.038 157.68 160.531 224.922 
157.511 162.162 225.064 157.71 162.841 225.121 237.959 72.2372 224.756 
237.918 72.1736 224.798 238.007 72.1748 224.931 235.162 72.3915 224.473 
217.435 82.236 224.138 221.957 83.006 224.171 211.701 86.0557 224.286 
217.163 86.3832 224.658 211.976 90.0592 224.833 202.717 92.3666 224.545 
200.452 93.9592 224.573 199.509 95.0024 224.228 206.242 94.3709 224.683 
194.473 97.8841 224.656 195.593 97.8763 223.959 191.638 100.59 223.939 
195.982 102.179 224.849 192.47 105.017 224.872 180.679 107.857 224.273 
188.348 108.246 224.298 175.2 111.916 224.381 185.114 110.884 224.715 
172.447 114.056 224.573 180.918 113.866 224.217 161.464 128.306 224.278 
161.472 135.404 224.554 157.729 137.632 224.483 156.97 139.544 224.438 
159.948 138.906 224.721 156.596 140.041 224.687 156.348 140.944 224.948 
158.226 144.831 224.618 158.667 145.323 225.009 157.867 146.705 224.626 
155.794 148.615 225.443 156.022 149.219 225.095 157.849 151.269 224.62 
158.055 151.996 224.692 158.666 154.527 225.098 158.386 154.801 224.804 
156.762 157.856 224.819 158.137 159.92 225.222 157.276 161.941 225.29 
157.642 163.31 225.191 157.576 163.305 225.298 157.666 163.596 225.235 
157.733 163.639 225.206 157.714 163.81 225.244 157.766 163.934 225.24 
238.027 72.1652 225.179 236.697 73.873 225.235 217.352 81.2867 225.169 
215.195 83.3011 224.525 219.84 84.6735 224.972 210.438 86.709 224.564 
203.605 90.7982 225.79 195.381 96.5332 225.651 187.419 102.374 225.108 
184.666 103.986 225.397 181.137 106.272 225.926 175.229 111.037 225.616 
173.616 112.424 225.493 160.535 129.286 225.064 159.344 131.425 225.499 
161.759 135.936 225.219 155.843 154.373 225.52 156.589 158.226 225.159 
157.108 161.459 225.48 157.738 163.963 225.299 157.78 164.072 225.26 
157.783 164.093 225.283 157.806 164.021 225.263 157.796 164.109 225.266 
237.706 72.8857 225.827 217.143 80.774 226.173 214.372 82.3638 226.977 
211.366 84.7744 226.367 210.567 85.4939 226.08 204.981 89.5644 226.31 
213.632 89.2765 225.918 193.964 96.9652 226.726 188.076 101.176 226.421 
186.749 101.929 226.639 188.643 108.431 225.51 168.89 116.361 226.33 
159.674 144.268 226.425 159.054 147.054 225.818 155.417 148.124 226.361 
155.412 153.803 226.713 156.161 158.327 226.387 156.474 159.424 226.136 
157.172 161.814 226.076 157.986 162.622 225.849 157.706 163.829 225.415 
157.718 163.919 225.359 157.743 163.92 225.386 157.809 163.968 225.365 
157.779 164.016 225.339 232.461 72.4944 226.589 217.994 79.8768 226.983 
212.068 83.9 227.427 209.452 85.8408 227.128 201.823 91.5435 227.123 
197.649 94.3945 227.252 187.575 101.274 227.143 194.833 103.585 227.275 
178.651 107.568 227.302 189.149 108.19 226.752 159.902 128.862 227.21 
156.71 136.466 226.447 159.39 147.781 226.783 156.203 158.923 227.343 
157.296 161.393 227.351 157.502 161.94 226.76 157.587 162.703 226.054 
157.775 161.812 227.112 157.816 162.343 226.42 157.978 162.354 226.182 
157.761 163.075 225.88 157.757 163.517 225.622 157.784 163.811 225.459 
234.529 71.7864 227.92 237.911 72.1663 226.538 237.69 72.5979 227.787 
[...]
POINT_DATA 892
SCALARS scalars float
LOOKUP_TABLE default
1 1 1 1 1 1 1 1 1 
1 1 1 1 1 1 1 1 1 
1 1 1 1 1 1 1 1 1 
1 1 1 1 1 1 1 1 1 
1 1 1 1 1 1 1 1 1 
1 1 1 1 1 1 1 1 1 
1 1 1 1 1 1 1 1 1 
1 1 1 1 1 1 1 1 1 
1 1 1 1 1 1 1 1 1 
1 1 1 1 1 1 1 1 1 
1 1 1 1 1 1 1 1 1 
1 1 1 1 1 1 1 1 1 
1 1 1 1 1 1 1 1 1 
1 1 1 1 1 1 1 1 1 
1 1 1 1 1 1 1 1 1 
1 1 1 1 1 1 1 1 1 
1 1 1 1 1 1 1 1 1 
1 1 1 1 1 1 1 1 1 
1 1 1 1 1 1 1 1 1 
1 1 1 1 1 1 1 1 1 
1 1 1 1 1 1 1 1 1 
1 1 1 1 1 1 1 1 1 
1 1 1 1 1 1 1 1 1 
1 1 1 1 1 1 1 1 1 
1 1 1 1 1 1 1 1 1 
1 1 1 1 1 1 1 1 1 
1 1 1 1 1 1 1 1 1 
1 1 1 1 1 1 1 1 1 
1 1 1 1 1 1 1 1 1 
1 1 1 1 1 1 1 1 1 
1 1 1 1 1 1 1 1 1 
1 1 1 1 1 1 1 1 1 
1 1 1 1 1 1 1 1 1 
1 1 1 1 1 1 1 1 1 
1 1 1 1 1 1 1 1 1 
1 1 1 1 1 1 1 1 1 
1 1 1 1 1 1 1 1 1 
1 1 1 1 1 1 1 1 1 
1 1 1 1 1 1 1 1 1 
1 1 1 1 1 1 1 1 1 
1 1 1 1 1 1 1 1 1 
1 1 1 1 1 1 1 1 1 
1 1 1 1 1 1 1 1 1 
1 1 1 1 1 1 1 1 1 
1 1 1 1 1 1 1 1 1 
1 1 1 1 1 1 1 1 1 
1 1 1 1 1 1 1 1 1 
1 1 1 1 1 1 1 1 1 
1 1 1 1 1 1 1 1 1 
1 1 1 1 1 1 1 1 1 
1 1 1 1 1 1 1 1 1 
1 1 1 1 1 1 1 1 1 
1 1 1 1 1 1 1 1 1 
1 1 1 1 1 1 1 1 1 
1 1 1 1 1 1 1 1 1 
1 1 1 1 1 1 1 1 1 
1 1 1 1 1 1 1 1 1 
1 1 1 1 1 1 1 1 1 
1 1 1 1 1 1 1 1 1 
1 1 1 1 1 1 1 1 1 
1 1 1 1 1 1 1 1 1 
1 1 1 1 1 1 1 1 1 
1 1 1 1 1 1 1 1 1 
1 1 1 1 1 1 1 1 1 
1 1 1 1 1 1 1 1 1 
1 1 1 1 1 1 1 1 1 
1 1 1 1 1 1 1 1 1 
1 1 1 1 1 1 1 1 1 
1 1 1 1 1 1 1 1 1 
1 1 1 1 1 1 1 1 1 
1 1 1 1 1 1 1 1 1 
1 1 1 1 1 1 1 1 1 
1 1 1 1 1 1 1 1 1 
1 1 1 1 1 1 1 1 1 
1 1 1 1 1 1 1 1 1 
1 1 1 1 1 1 1 1 1 
1 1 1 1 1 1 1 1 1 
1 1 1 1 1 1 1 1 1 
1 1 1 1 1 1 1 1 1 
1 1 1 1 1 1 1 1 1 
1 1 1 1 1 1 1 1 1 
1 1 1 1 1 1 1 1 1 
1 1 1 1 1 1 1 1 1 
1 1 1 1 1 1 1 1 1 
1 1 1 1 1 1 1 1 1 
1 1 1 1 1 1 1 1 1 
1 1 1 1 1 1 1 1 1 
1 1 1 1 1 1 1 1 1 
1 1 1 1 1 1 1 1 1 
1 1 1 1 1 1 1 1 1 
1 1 1 1 1 1 1 1 1 
1 1 1 1 1 1 1 1 1 
1 1 1 1 1 1 1 1 1 
1 1 1 1 1 1 1 1 1 
1 1 1 1 1 1 1 1 1 
1 1 1 1 1 1 1 1 1 
1 1 1 1 1 1 1 1 1 
1 1 1 1 1 1 1 1 1 
1 1 1 1 1 1 1 1 1 
1 
NORMALS Normals float
0.404176 -0.238396 -0.883068 -0.25064 -0.808846 -0.531928 -0.119297 0.0515899 -0.991517 
0.45807 0.680571 -0.571834 0.179246 0.665195 -0.724836 0.863994 0.417493 -0.28145 
0.628349 0.765348 -0.139351 -0.310811 -0.438196 -0.843434 0.306567 -0.749284 -0.587018 
-0.0581675 0.0264274 -0.997957 -0.30178 -0.491926 -0.816663 -0.259399 -0.271112 -0.926936 
0.0416293 0.0835699 -0.995632 0.188779 0.395689 -0.898773 -0.190279 -0.572267 -0.797687 
-0.246826 -0.244351 -0.937747 0.31407 0.560015 -0.766644 0.476577 0.792196 -0.381182 
0.569953 0.812998 -0.119108 -0.0263388 0.272162 -0.961891 0.185753 0.562577 -0.805607 
0.398843 0.69192 -0.601807 0.285772 0.854505 -0.433769 0.832239 -0.0353863 -0.553287 
0.61596 -0.483116 -0.622248 0.767318 0.591395 -0.247944 0.849782 0.269782 -0.452868 
-0.215091 -0.237096 -0.947376 -0.238258 -0.257171 -0.936534 -0.0424007 0.141748 -0.988994 
0.431666 0.79871 -0.419198 0.428852 0.87244 -0.23438 -0.126335 -0.020522 -0.991775 
-0.154835 0.151109 -0.976316 0.0116822 0.36456 -0.931107 0.240959 0.19289 -0.951174 
-0.357134 -0.311514 -0.880576 -0.259843 0.543626 -0.798093 0.151201 0.428079 -0.891003 
-0.145704 0.0100982 -0.989277 -0.0195791 0.551078 -0.834224 0.501476 0.781266 -0.371678 
0.222563 0.0918389 -0.970583 0.412712 0.408456 -0.814146 0.113985 0.173316 -0.978248 
0.374907 0.374299 -0.848142 0.0150403 0.0645328 -0.997802 0.0686662 0.276675 -0.958507 
0.327081 0.372399 -0.868526 0.0840782 -0.0409508 -0.995617 0.25181 0.177587 -0.951344 
0.431819 0.582785 -0.6884 0.0199403 0.594304 -0.803993 -0.101737 -0.470737 -0.876388 
-0.775642 -0.0718118 -0.627075 0.283895 -0.511032 -0.811326 0.295249 0.465386 -0.834412 
-0.0821077 -0.0752294 -0.99378 0.07601 0.400422 -0.913173 0.33062 0.0935625 -0.939115 
0.171305 0.169711 -0.970491 0.464641 0.370522 -0.804253 0.114814 0.0474256 -0.992254 
0.371622 0.221301 -0.901622 0.209996 0.087468 -0.973782 0.183637 0.238107 -0.95372 
0.302873 0.444437 -0.843056 0.434277 0.491547 -0.754841 0.120825 0.135061 -0.983443 
0.107788 0.241103 -0.964495 -0.235533 -0.0855184 -0.968096 0.274573 0.33509 -0.901291 
0.0498229 0.183911 -0.981679 0.13006 0.218722 -0.967081 -0.00994586 0.191626 -0.981418 
-0.0991998 0.0981213 -0.990218 0.17124 -0.792871 -0.584835 0.641127 -0.354866 -0.68046 
0.502823 0.849514 -0.159669 -0.334274 -0.380719 -0.862157 -0.317562 -0.32736 -0.889938 
-0.127214 0.00375483 -0.991868 -0.0779581 0.0237446 -0.996674 0.120679 0.208733 -0.970498 
0.156996 0.309235 -0.937937 0.116599 0.415798 -0.901952 0.082026 0.287157 -0.954365 
0.35729 0.675501 -0.645013 0.190722 0.315925 -0.929417 0.0871478 0.317622 -0.944204 
-0.0791131 -0.511644 -0.855547 -0.438766 0.119717 -0.890591 0.51575 0.430638 -0.740644 
-0.230874 -0.0748926 -0.970097 -0.226591 -0.301195 -0.92625 0.397378 0.484048 -0.779608 
0.195563 0.82978 -0.522705 0.377329 0.73683 -0.560986 0.327383 0.250356 -0.911121 
0.0431967 0.00177188 -0.999065 0.561653 0.541135 -0.625875 0.412058 0.522067 -0.746763 
-0.137748 -0.204819 -0.969059 -0.82067 -0.457229 -0.342698 -0.0617053 -0.0923156 -0.993816 
-0.24388 -0.503796 -0.828681 -0.370176 -0.676657 -0.636478 0.515781 0.854018 -0.0679888 
0.457312 0.794519 -0.399507 0.0236504 0.035876 -0.999076 0.564681 0.534231 -0.629072 
0.672012 0.616191 -0.410742 0.645103 0.763624 0.0268347 0.457017 0.57692 -0.676977 
-0.549834 -0.186846 -0.814108 0.753546 0.567236 -0.332282 0.0533914 0.151466 -0.987019 
0.0906734 0.214472 -0.972512 0.115057 0.0952816 -0.988779 0.475402 0.436154 -0.764044 
0.159017 0.805865 -0.570347 0.393064 0.6496 -0.650785 0.380215 0.47914 -0.791114 
0.416918 0.452045 -0.788565 -0.000437576 -0.0547373 -0.998501 0.127459 0.278192 -0.952031 
0.135871 0.0853895 -0.98704 0.260127 0.215757 -0.94116 -0.0389194 0.157699 -0.98672 
0.346209 0.553911 -0.75718 0.20934 0.457618 -0.864154 0.277998 0.492345 -0.824811 
0.385278 0.413293 -0.825076 0.321764 0.239035 -0.91615 0.0248969 0.111728 -0.993427 
0.0765938 0.134047 -0.988011 0.335409 0.487253 -0.806279 0.135968 0.120297 -0.983382 
0.490228 0.539265 -0.684741 0.509286 0.504462 -0.697241 -0.0438442 -0.00174466 -0.999037 
0.270755 0.356834 -0.89407 0.0290736 -0.449605 -0.892754 0.138611 -0.138798 -0.980572 
0.062924 -0.0443719 -0.997031 -0.195618 -0.218415 -0.956048 0.432587 0.490458 -0.756518 
0.572504 0.540138 -0.616839 -0.122623 -0.109319 -0.986414 0.507997 0.451778 -0.733373 
-0.30742 -0.120468 -0.943917 -0.0638701 0.0305914 -0.997489 0.385806 0.340592 -0.857409 
-0.199643 0.0689913 -0.977437 0.408728 0.378902 -0.830286 0.318606 0.301395 -0.898694 
0.36694 -0.573536 -0.732401 0.421832 -0.650016 -0.632089 0.776126 -0.194794 -0.599737 
0.825822 0.251754 -0.504617 -0.385144 -0.711595 -0.587619 0.561211 0.823111 -0.0867822 
-0.342177 -0.482081 -0.806544 -0.201418 -0.232104 -0.951608 0.0793158 -0.0484874 -0.99567 
-0.213139 -0.0955787 -0.972336 0.397379 0.464516 -0.7914 -0.0771395 -0.354036 -0.932045 
0.268798 0.601091 -0.75262 0.0971679 -0.0999731 -0.990234 -0.295106 -0.278592 -0.913947 
0.34137 0.391394 -0.854562 0.543576 0.474487 -0.692378 0.492146 0.610339 -0.620708 
-0.439499 -0.286442 -0.851347 0.484481 0.67855 -0.552131 0.560281 0.692989 -0.453709 
-0.885129 0.033134 -0.464165 -0.249157 -0.390997 -0.886026 -0.195289 -0.804982 -0.560237 
-0.683722 -0.513634 0.518367 -0.72186 -0.0172726 0.691823 -0.188304 -0.364656 0.911903 
-0.257415 -0.276009 -0.926044 0.586826 0.586504 -0.558255 0.272653 0.556419 -0.784893 
0.474696 0.680209 -0.558552 -0.186172 -0.279681 -0.94187 0.0829857 0.184853 -0.979256 
-0.00139125 -0.249103 -0.968476 0.0843195 0.0829852 -0.992977 0.425875 0.636147 -0.643388 
-0.0370637 -0.105959 -0.99368 0.496994 0.55985 -0.662996 -0.0864143 -0.032465 -0.99573 
0.501896 0.530652 -0.683014 0.486422 0.613837 -0.62177 0.573003 0.465541 -0.674491 
-0.268344 -0.367567 -0.890441 -0.0696423 -0.156376 -0.985239 -0.18741 -0.254524 -0.948733 
-0.245955 0.00391673 -0.969273 0.436191 0.476236 -0.763503 -0.239812 -0.428002 -0.871381 
-0.502016 -0.364567 -0.784265 -0.513271 -0.11144 -0.85096 0.520674 0.478989 -0.706731 
0.478277 0.43374 -0.763623 0.454771 0.422879 -0.783809 -0.0080772 0.186849 -0.982355 
-0.383689 -0.131882 -0.913997 0.0591723 0.0507847 -0.996955 -0.149445 -0.104793 -0.983201 
-0.409476 -0.0694028 -0.909677 -0.640964 -0.101663 -0.760809 -0.303364 0.0598213 -0.950995 
-0.167296 0.105557 -0.98024 -0.132361 -0.0448874 -0.990185 -0.445882 -0.0332211 -0.894475 
-0.319487 0.0644155 -0.945399 0.293665 0.0559491 -0.95427 -0.362339 0.192555 -0.911939 
0.0383898 0.0203016 -0.999057 0.0917627 -0.126404 -0.987725 0.157756 0.134195 -0.978317 
-0.0143206 -0.859611 -0.510749 0.277987 -0.804157 -0.525408 0.866394 0.452391 -0.211434 
-0.0983353 -0.249985 -0.963243 -0.208999 -0.454945 -0.865647 -0.327584 -0.526212 -0.784722 
-0.441475 -0.33927 -0.83066 0.0656024 -0.0397671 -0.997053 -0.468834 -0.488293 -0.736047 
0.627331 0.428069 -0.650548 -0.278997 -0.499408 -0.820215 -0.354327 -0.294389 -0.887574 
-0.0765882 -0.505966 -0.859146 0.484206 0.717264 -0.501076 -0.116154 -0.333663 -0.935509 
-0.270462 -0.286479 -0.919119 -0.186689 -0.55251 -0.81233 -0.128827 -0.588476 -0.798185 
0.564667 0.634379 -0.527934 -0.380675 -0.482051 -0.789122 -0.248029 -0.334933 -0.909011 
0.556908 0.741199 -0.374802 0.570004 0.709227 -0.414841 0.392445 0.667331 -0.632974 
-0.369414 -0.556812 -0.743972 -0.519442 -0.523939 -0.675032 -0.241633 -0.432143 -0.86883 
0.598055 0.781439 -0.177997 -0.459811 -0.307603 -0.833039 -0.610329 -0.604827 -0.511549 
0.601831 0.737187 -0.307173 -0.58923 -0.500133 -0.634566 -0.673404 -0.472898 -0.568238 
-0.694388 -0.454148 -0.558189 0.165768 0.216117 -0.962193 -0.256691 -0.12817 -0.957957 
0.277745 0.00666665 -0.960632 0.451713 0.0538359 -0.890538 -0.734609 -0.0367711 -0.677493 
-0.596569 0.114687 -0.794325 -0.248872 0.0792901 -0.965285 0.170231 0.106721 -0.979608 
-0.317541 -0.0105731 -0.948186 -0.457069 -0.15027 -0.876645 -0.218815 -0.131284 -0.966894 
-0.451203 -0.0484659 -0.891104 -0.558414 -0.0618796 -0.827251 -0.0739296 -0.0429465 -0.996338 
-0.736346 0.0020004 -0.676602 -0.293081 -0.0107715 -0.956027 -0.845672 0.00175593 -0.5337 
0.58145 0.0875708 -0.808856 -0.522466 0.184239 -0.832518 0.398206 -0.0496474 -0.915952 
0.609852 -0.0322317 -0.79186 -0.72999 0.153339 -0.666034 0.0871172 0.104248 -0.990729 
-0.353572 0.147245 -0.923745 0.370804 0.101186 -0.923182 0.939188 0.0584201 -0.338397 
0.175866 -0.958529 -0.22426 0.778937 -0.574302 -0.251861 -0.189957 -0.890246 -0.413978 
-0.441328 -0.587616 -0.678187 0.474504 0.736416 -0.482222 -0.486367 -0.553369 -0.676188 
0.552329 0.720974 -0.418484 0.571324 0.720666 -0.39272 -0.459845 -0.631547 -0.624252 
-0.404474 -0.512608 -0.757386 -0.0824081 -0.55936 -0.824819 0.554453 0.786941 -0.270751 
-0.441448 -0.614437 -0.653905 -0.385611 -0.609581 -0.692615 -0.339245 -0.689538 -0.639883 
0.603489 0.717571 -0.347697 0.590704 0.762881 -0.262834 -0.56278 -0.636359 -0.527566 
0.612687 0.645083 -0.4566 -0.513819 -0.656028 -0.552827 0.335576 0.861873 -0.380214 
-0.594288 -0.607562 -0.526963 0.618713 0.678488 -0.39604 -0.741339 -0.28782 -0.606281 
0.359154 0.452049 -0.816493 -0.554117 -0.186542 -0.811268 -0.543436 -0.227455 -0.808048 
0.511209 0.0764951 -0.856046 -0.801508 -0.179728 -0.570336 -0.825928 -0.0782301 -0.558321 
0.469218 0.102462 -0.877118 0.650822 0.0836548 -0.754607 0.336902 0.0797762 -0.938154 
-0.834337 -0.01699 -0.550993 -0.725988 -0.0260956 -0.687212 0.44664 -0.0375598 -0.893925 
0.37396 -0.0240147 -0.927134 0.909095 0.0366144 -0.414977 0.508294 0.0349113 -0.860476 
-0.753951 0.084597 -0.651461 0.860286 0.029209 -0.508975 -0.891647 0.184272 -0.413532 
-0.528492 0.148199 -0.835903 -0.954802 0.209803 -0.210562 -0.833471 0.205922 -0.512759 
-0.176292 0.130825 -0.975605 -0.70969 0.221731 -0.668712 -0.343496 0.192923 -0.919125 
0.963275 -0.268513 0.00095131 0.639111 0.767943 -0.0424229 -0.341446 -0.719568 -0.604679 
-0.448283 -0.648585 -0.615126 0.507703 0.788375 -0.347422 -0.45415 -0.546928 -0.70329 
-0.483414 -0.664704 -0.569631 -0.486954 -0.72778 -0.48292 -0.47478 -0.706542 -0.524768 
-0.491973 -0.668389 -0.557869 -0.658396 -0.690426 -0.299711 -0.609201 -0.681744 -0.405093 
-0.650981 -0.69143 -0.313285 -0.786096 -0.361541 -0.501339 -0.880633 -0.341347 -0.328584 
0.632581 0.414646 -0.654148 -0.930131 0.10154 -0.352912 -0.854507 0.23835 -0.461527 
-0.966964 0.180436 -0.180063 -0.92121 0.383672 -0.06456 -0.562946 0.281656 -0.777021 
-0.801215 0.548688 0.238738 0.551396 0.0801105 -0.830389 0.727748 0.641695 0.242095 
0.826715 0.562058 -0.0251697 -0.581497 -0.708381 -0.400071 -0.656992 -0.727577 -0.197469 
-0.572005 -0.730976 -0.372135 -0.494713 -0.79637 -0.347928 -0.593499 -0.772994 -0.22414 
0.56629 0.809511 -0.154945 -0.505061 -0.776141 -0.377517 -0.536149 -0.804784 -0.254689 
-0.579414 -0.790319 -0.199185 0.607927 0.793976 0.00527495 -0.791364 -0.579099 -0.19593 
0.901345 0.206426 -0.380743 0.804851 0.104037 -0.584287 -0.985978 -0.00758884 -0.166702 
-0.981353 0.192047 0.00806855 -0.934783 0.272767 -0.22755 -0.923941 0.371198 -0.0924425 
-0.909459 0.335978 0.244954 0.847868 0.381432 0.36828 -0.809647 0.393392 0.435561 
-0.892215 0.421966 0.160927 -0.508187 0.551062 0.661873 0.510825 0.458695 0.727088 
-0.251447 0.573967 0.779318 -0.315243 -0.946703 -0.0661456 -0.380852 -0.898425 -0.218599 
-0.596201 -0.779176 -0.193465 -0.525857 -0.792216 -0.309626 -0.583053 -0.777244 -0.236518 
-0.360836 -0.92799 0.092909 -0.503506 -0.836486 -0.216272 0.608895 0.793238 0.00450703 
-0.603487 -0.785988 -0.134264 0.655081 0.747628 -0.109183 -0.85452 -0.485483 -0.18467 
-0.918579 -0.314188 -0.23979 0.961766 0.123865 -0.244261 -0.928848 0.362762 -0.0751348 
-0.863577 0.479718 0.15526 -0.562465 0.691267 0.453634 -0.499534 0.535123 0.681255 
-0.0368264 0.864509 0.501266 0.24187 0.720275 0.650156 0.620551 0.544684 0.564124 
3.01758e-05 0.531988 0.846752 -0.138815 0.484406 0.86376 0.0526378 0.48923 0.870565 
-0.0881437 -0.99609 -0.00597801 0.928288 -0.345053 0.138634 0.893751 0.448016 0.0221454 
-0.658058 -0.751397 -0.0485959 -0.591755 -0.805807 -0.0223879 -0.58788 -0.808907 -0.00814538 
-0.516509 -0.84359 0.146886 -0.690269 -0.722862 -0.0316066 -0.663521 -0.738591 -0.119263 
0.520783 0.853689 -0.000834348 -0.726397 -0.677675 0.11447 -0.939525 -0.334436 0.0737867 
0.984317 0.0585941 -0.166391 -0.987955 -0.118237 -0.0998246 -0.499061 0.843608 0.198152 
-0.0950121 0.955905 0.277882 0.543899 0.77022 0.333069 0.390655 -0.9205 0.00833105 
0.897269 -0.435521 0.0723116 0.447872 -0.891422 0.0691229 -0.439558 -0.885565 -0.150213 
-0.417597 -0.908628 -0.00271288 -0.552155 -0.800522 0.233 -0.58716 -0.807294 -0.0593281 
-0.452469 -0.887154 0.0907205 -0.473149 -0.871749 0.127216 -0.642055 -0.76661 -0.00856265 
-0.580485 -0.811963 -0.0612615 -0.700726 -0.710796 0.0612623 0.843048 0.537828 0.00345533 
-0.989265 -0.141535 -0.0363716 0.991512 0.124271 -0.0382308 -0.993243 0.104418 0.0506568 
-0.831405 0.555654 0.00380672 -0.629882 0.770379 -0.0988171 0.787004 0.527899 0.319292 
0.881515 0.467133 0.0686877 0.133725 0.990847 -0.0184546 -0.235276 -0.967458 0.0931127 
0.981744 0.176714 -0.0703562 0.711482 0.701425 -0.0423751 -0.574539 -0.793376 0.201147 
0.531629 0.834916 0.14243 -0.572872 -0.794392 0.201887 -0.530681 -0.816022 0.229099 
-0.576092 -0.794429 0.192356 0.617056 0.780077 0.103545 -0.352854 -0.802245 0.481557 
-0.634329 -0.690426 0.347762 0.574737 0.816115 0.0602775 -0.59381 -0.714051 0.370838 
0.660223 0.748684 0.0598166 0.558234 0.827735 0.0568259 -0.692948 -0.65342 0.304738 
-0.749146 -0.614411 0.247548 -0.960266 -0.08529 0.265735 -0.934989 0.266632 0.233888 
0.956709 0.0906472 0.276569 -0.925113 0.334586 0.179493 -0.927201 0.367898 -0.0703556 
-0.687958 0.654112 -0.314407 0.780266 0.595803 -0.190274 -0.0511438 0.870785 -0.488997 
0.5987 0.495095 -0.629634 -0.176864 0.609926 -0.77247 -0.875643 0.368241 -0.312487 
0.0767727 0.505866 -0.859189 -0.640171 0.448904 -0.623431 0.822141 0.250519 -0.5112 
0.410024 -0.909096 -0.0736608 0.944179 -0.275201 -0.181083 0.9338 0.308179 -0.181779 
-0.47315 -0.830297 0.294509 -0.436115 -0.776651 0.454551 -0.566324 -0.744915 0.352674 
-0.586036 -0.741651 0.326368 -0.57818 -0.723066 0.377998 -0.561148 -0.69344 0.451944 
0.529123 0.81607 0.232506 0.473265 0.832375 0.288397 0.591582 0.772246 0.231661 
0.54728 0.768545 0.331397 -0.810286 -0.574143 0.117458 0.714574 0.681627 0.157381 
-0.927253 -0.357541 0.111201 0.751716 0.532915 0.388491 -0.162479 -0.0379134 -0.985983 
-0.866843 -0.29158 0.404432 -0.943186 -0.132116 0.304868 0.808948 0.371033 0.456001 
-0.941153 -0.00920593 0.337854 0.86502 -0.0278774 0.500963 -0.847912 0.198369 0.491624 
-0.873935 0.138933 0.465763 -0.957347 0.105947 0.268815 -0.985345 0.121647 0.119575 
0.987706 0.152327 -0.0351125 -0.944701 0.196719 0.262377 0.115807 0.449297 -0.885845 
0.711003 0.271431 -0.648691 -0.422654 0.488214 -0.763551 0.391032 0.410746 -0.82364 
0.945409 0.100542 -0.309989 0.947885 -0.091584 -0.305167 0.731427 -0.64992 -0.206443 
0.973187 0.201949 -0.110109 -0.420197 -0.854532 0.305303 -0.480103 -0.699001 0.529999 
-0.514787 -0.68643 0.513623 -0.508022 -0.671208 0.539809 -0.58341 -0.733912 0.34786 
-0.532146 -0.715851 0.452082 -0.55275 -0.747877 0.367625 -0.417723 -0.571889 0.70601 
-0.545508 -0.758949 0.355551 -0.44265 -0.604234 0.662542 0.597597 0.71235 0.368016 
-0.427195 -0.629169 0.649347 0.641714 0.670708 0.37196 0.575818 0.751531 0.321923 
0.707119 0.688352 0.161724 -0.657429 -0.547851 0.517346 -0.839438 -0.476027 0.262186 
-0.688419 -0.186087 0.701036 0.761842 0.474932 0.440496 -0.551289 -0.185133 0.813515 
0.800369 0.161226 0.577421 -0.857682 0.124618 0.498851 0.978273 0.182248 0.0988316 
-0.947229 0.0297065 0.319177 0.98939 0.0718299 -0.126286 0.973882 0.105222 -0.201204 
0.875111 0.210881 -0.435557 -0.942189 0.330269 0.0565843 -0.672626 0.376002 0.637336 
0.83754 0.284715 -0.466331 0.268483 0.963278 0.00349368 -0.396961 -0.887091 0.235568 
0.759974 0.647653 0.0546409 -0.406924 -0.819485 0.403556 0.524619 0.843175 0.117602 
-0.464127 -0.6907 0.554544 -0.345779 -0.553464 0.757703 -0.506204 -0.45208 0.734425 
0.460267 0.817154 0.347007 -0.491851 -0.588307 0.641854 -0.513141 -0.558882 0.651412 
0.545122 0.763481 0.346321 0.568647 0.687908 0.451025 -0.44858 -0.701913 0.553258 
-0.48778 -0.645381 0.587838 -0.34396 -0.593425 0.727694 -0.48007 -0.594952 0.644643 
-0.479065 -0.560003 0.675939 -0.38203 -0.547809 0.744284 0.500463 0.789105 0.35616 
0.590945 0.687663 0.421786 -0.30136 -0.479004 0.824462 0.543625 0.763073 0.34956 
0.595961 0.601337 0.532188 -0.400507 -0.517985 0.755834 0.536968 0.727972 0.426289 
-0.566946 -0.6132 0.550053 0.614705 0.61678 0.491651 -0.628079 -0.459756 0.627807 
0.634649 0.739179 0.225467 -0.751603 -0.258677 0.606778 -0.606336 -0.203031 0.768853 
-0.424286 -0.0838736 0.901635 -0.563683 -0.161357 0.810077 -0.670103 -0.110547 0.73399 
-0.492266 -0.167047 0.854266 0.42449 0.270801 0.863988 -0.866487 -0.0739197 0.493697 
-0.740493 -0.0162638 0.671867 0.469129 -0.0109008 0.883062 -0.786259 0.156084 0.597859 
-0.609921 0.155064 0.777143 0.916408 0.10351 0.386629 -0.833419 0.101415 0.543256 
0.989759 0.0498771 0.133752 -0.732068 0.100139 0.673831 0.994697 0.0623007 0.0818307 
0.982874 0.0705376 0.170245 -0.296484 0.077876 0.951857 -0.840835 0.265044 0.471963 
-0.414619 0.290038 0.862536 0.91476 0.0815077 0.395689 0.0814055 0.24016 0.967314 
0.559961 -0.827617 0.0386364 -0.304037 -0.467566 0.830026 -0.362588 -0.531004 0.765875 
-0.440431 -0.491895 0.751039 -0.517727 -0.485479 0.704463 0.446046 0.786062 0.427961 
0.331673 0.808477 0.486166 -0.43762 -0.457449 0.774098 -0.334382 -0.58032 0.742575 
0.475084 0.623005 0.621417 0.561187 0.641182 0.523407 -0.416986 -0.475318 0.774723 
-0.471901 -0.536796 0.6994 0.584796 0.674524 0.450589 0.500825 0.73857 0.451319 