# vtk DataFile Version 4.2
vtk output
ASCII
DATASET POLYDATA
POINTS 454 float
366.147 140.04 216.265 366.936 140.114 216.398 366.855 139.825 216.513 
365.54 140.457 216.149 365.228 140.275 216.205 365.028 140.592 216.173 
366.497 140.428 216.239 367.156 140.289 216.469 365.365 140.733 216.144 
366.254 140.691 216.23 365.422 141.017 216.214 364.127 139.678 216.731 
365.221 139.374 216.853 366.007 139.519 216.581 366.719 139.358 216.863 
362.184 140.127 216.856 363.209 140.239 216.552 365.21 139.95 216.354 
365.927 139.795 216.391 359.756 141.026 216.972 362.153 140.884 216.488 
363.756 140.536 216.365 367.68 140.19 216.823 367.804 140.282 216.996 
359.11 141.701 216.9 363.371 141.09 216.342 359.493 142.145 216.781 
359.895 141.827 216.688 366.103 141.467 216.554 363.822 142.077 216.524 
364.097 142.319 216.665 366.781 139.207 217.044 366.746 139.147 217.165 
366.619 139.178 217.046 366.955 139.256 217.17 361.354 139.803 217.529 
363.123 139.644 217.078 367.269 139.618 216.873 359.239 140.579 217.542 
367.739 140.088 216.929 357.668 141.131 217.828 357.046 141.712 217.646 
367.958 140.604 217.399 352.775 143.725 218.53 352.574 143.997 218.411 
353.25 143.551 218.35 354.299 143.434 217.977 354.739 142.86 218.08 
356.031 143.195 217.568 359.356 142.666 216.928 367.782 141.284 217.459 
352.368 144.144 218.481 352.263 144.357 218.521 359.798 143.206 217.082 
365.234 142.751 217.229 366.449 142.347 217.435 367.405 141.794 217.49 
353.362 144.52 218.048 353.622 144.675 218.031 353.862 144.309 217.938 
354.399 144.375 217.88 366.769 139.131 217.395 362.057 139.311 218.28 
364.902 139.067 217.621 360.074 139.881 218.13 367.879 140.119 217.456 
357.233 141.046 218.278 356.549 141.415 218.28 356.012 141.533 218.641 
355.431 141.941 218.492 354.134 142.52 218.867 352.432 143.853 218.858 
352.212 144.196 218.691 367.796 141.476 217.788 351.995 144.588 218.776 
363.593 143.252 217.333 351.712 144.901 218.983 351.574 145.222 219.119 
352.281 145.103 218.566 357.449 144.47 217.842 359.983 144.114 217.664 
364.841 143.303 217.767 356.955 145.078 218.241 351.608 145.731 219.162 
351.687 145.873 219.182 354.249 145.721 218.59 367.12 139.284 217.909 
363.296 139.121 218.391 364.72 139.021 218.068 357.145 140.881 218.793 
367.983 140.898 218.056 367.926 141.204 218.189 352.277 143.868 219.389 
351.732 144.679 219.09 351.627 144.659 219.429 366.433 143.005 218.383 
351.364 145.31 219.47 362.283 144.254 218.16 365.173 143.497 218.297 
351.264 145.617 219.68 356.666 145.749 218.888 351.577 146.212 219.638 
361.088 139.367 219.325 363.872 139.075 218.728 367.568 139.641 218.079 
357.729 140.57 219.094 367.908 141.024 218.422 367.819 141.396 218.514 
351.383 145.027 219.659 367.154 142.552 218.808 366.156 143.326 218.981 
358.58 145.52 218.994 362.778 144.561 219.043 364.383 144.155 219.249 
351.168 146.175 220.305 351.392 146.348 220.03 351.514 146.604 220.217 
351.794 146.739 220.194 352.216 146.842 220.165 366.379 139.188 218.543 
360.386 139.547 219.596 364.993 139.084 218.816 367.217 139.611 218.655 
356.474 141.163 220.022 367.644 141.61 218.902 367.525 141.941 218.939 
351.274 145.122 220.109 367.12 142.531 219.18 351.125 145.519 220.301 
366.065 143.481 219.465 364.097 144.377 220.056 351.823 146.993 220.919 
352.562 147.125 220.812 366.701 139.281 218.654 362.287 139.458 220.146 
365.665 139.308 219.246 358.422 140.464 220.433 365.901 139.495 219.458 
367.169 140.181 219.279 367.27 140.611 219.388 367.484 141.434 219.247 
367.134 141.758 219.693 351.357 145 220.829 366.872 142.703 219.565 
366.117 143.448 219.732 366.316 143.263 219.815 351.018 145.998 220.814 
365.129 143.884 220.109 365.762 143.598 219.927 351.043 146.25 220.994 
357.665 146.18 220.199 363.767 144.462 220.412 351.118 146.521 221.191 
358.651 145.995 220.841 351.228 146.727 221.402 353.478 147.115 221.202 
359.376 140.349 220.806 366.454 140.014 219.724 363.1 140.221 221.269 
366.307 140.411 220.165 366 140.69 220.662 355.676 141.966 221.231 
366.358 141.828 220.655 366.149 142.827 220.52 365.697 143.099 220.896 
351.113 145.65 221.15 365.091 143.632 220.959 366.254 143.125 220.102 
351.094 146.307 221.358 355.444 146.837 221.005 356.435 146.585 221.317 
359.915 145.605 221.299 351.257 146.725 221.635 351.43 146.777 221.859 
351.639 146.946 221.702 364.303 140.584 221.368 365.547 140.599 220.882 
356.655 141.96 221.763 354.522 142.873 221.824 351.635 144.943 221.626 
365.421 143.026 221.252 351.779 145.053 221.946 351.219 146.385 221.699 
351.386 146.147 221.929 351.268 146.613 221.755 356.954 146.262 221.971 
351.586 146.748 222.16 355.132 146.8 221.874 360.037 141.262 222.07 
365.337 140.944 221.233 356.5 142.202 221.962 360.561 141.607 222.369 
364.235 141.688 222.155 365.677 141.263 221.184 354.823 143.041 222.12 
364.484 141.85 222.08 365.543 141.746 221.38 352.407 144.517 222.201 
364.342 142.547 222.147 352.476 144.695 222.393 364.006 142.762 222.24 
360.891 144.641 222.311 362.57 144.249 221.902 360.03 145.101 222.197 
351.681 146.573 222.318 357.36 145.946 222.296 351.727 146.749 222.341 
352.942 147.044 222.154 353.276 146.915 222.402 351.73 146.844 222.262 
359.022 142.815 222.78 354.98 143.975 222.812 358.706 143.393 222.916 
363.389 142.388 222.486 352.83 144.98 222.751 354.094 144.531 222.937 
356.485 144.468 223.141 360.939 143.413 222.787 352.405 145.418 222.691 
354.348 144.869 223.156 356.303 144.896 223.219 359.01 144.275 222.909 
360.554 143.864 222.77 352.419 145.742 222.778 352.823 145.692 222.992 
353.122 145.528 223.075 355.604 145.678 223.127 355.843 145.408 223.202 
357.14 145.413 222.862 357.895 145.094 222.831 359.551 144.493 222.756 
354.095 146.31 222.988 354.428 146.061 223.101 352.622 146.319 222.904 
353.85 146.641 222.69 353.378 146.561 222.871 354.559 146.601 222.573 
351.859 146.81 222.387 354.836 145.304 223.287 355.255 145.126 223.299 
353.573 145.84 223.193 356.924 142.745 233.98 361.53 142.302 233.775 
362.624 142.616 233.8 354.939 143.636 234.076 357.099 143.755 233.509 
362.523 142.883 233.768 354.532 144.716 233.713 354.223 145.091 233.726 
359.427 144.12 233.454 361.733 143.703 233.737 353.434 145.472 233.916 
353.484 145.713 233.934 354.533 145.408 233.692 353.871 146.03 233.98 
355.508 145.705 233.775 358.166 145.138 233.733 359.722 144.906 233.855 
354.779 146.01 233.915 356.929 145.79 234.015 359.361 145.151 233.973 
357.297 142.3 234.207 360.481 141.893 233.996 362.002 141.934 234.031 
355.256 142.998 234.417 353.145 144.451 234.348 352.256 145.284 234.576 
363.135 143.593 234.237 351.962 145.383 234.802 351.901 146.043 234.798 
352.783 146.046 234.328 360.436 145.02 234.229 351.51 146.336 235.164 
355.517 146.293 234.204 352.423 146.572 234.796 355.139 146.496 234.474 
352.559 146.79 234.981 359.702 141.091 234.782 365.256 141.092 235.338 
355.604 142.276 234.902 365.625 141.509 235.369 352.324 144.208 235.179 
353.132 144.101 234.629 353.67 143.204 235.202 365.18 142.434 235.121 
364.382 143.59 235.025 363.786 144.156 235.073 364.655 143.742 235.339 
351.313 146.026 235.366 351.245 145.834 235.513 360.681 145.122 234.579 
351.347 146.311 235.388 351.19 146.404 235.784 356.176 146.408 234.544 
358.041 146.059 234.979 351.549 146.72 235.422 351.452 146.759 235.62 
352.958 146.844 235.019 354.126 146.762 234.948 352.156 146.954 235.438 
362.643 140.171 235.614 362.381 139.802 236.127 364.078 139.842 236.09 
365.172 140.367 235.79 366.614 140.222 236.397 357.398 141.075 235.637 
358.724 140.501 235.875 355.776 141.653 235.927 366.663 141.105 236.111 
367.369 141.247 236.677 365.706 142.846 235.602 366.118 142.812 235.979 
366.923 142.177 236.499 351.376 145.06 235.81 351.253 145.341 235.832 
365.981 143.124 236.1 366.812 142.468 236.585 364.046 144.17 235.318 
351.092 146.092 235.999 364.683 144.011 235.828 351.298 146.661 235.776 
351.447 146.83 235.896 361.997 139.32 237.268 365.357 139.554 236.6 
366.84 139.545 237.019 366.743 139.319 237.277 358.742 140.278 236.341 
367.475 140.132 236.922 367.605 140.079 237.137 367.492 140.317 236.824 
355.233 141.711 236.548 353.42 142.931 235.943 367.45 141.759 237.025 
367.481 141.922 237.327 365.963 143.29 236.392 366.837 142.621 236.919 
351.093 145.786 236.273 354.715 146.828 235.853 355.917 146.577 236.31 
358.197 146.086 236.068 353.336 146.992 235.991 366.785 139.16 237.509 
366.942 139.215 237.649 361.378 139.336 237.683 363.471 139.119 237.557 
364.945 139.1 237.409 367.287 139.602 237.31 357.905 140.49 236.772 
367.746 140.218 237.296 355.106 141.715 237.216 367.862 140.837 237.616 
352.621 143.473 236.783 365.688 143.561 236.685 365.439 143.732 237.064 
364.9 143.98 237.12 351.116 146.175 236.716 351.159 146.474 236.72 
351.238 146.692 236.703 353.707 146.898 236.287 351.291 146.802 236.515 
351.476 146.901 236.45 366.479 139.055 237.675 362.605 139.134 238.162 
367.494 139.63 237.96 357.699 140.513 237.428 367.861 140.948 238.016 
352.33 143.921 237.585 367.64 141.774 238.085 351.641 144.768 237.287 
367.2 142.42 237.769 365.903 143.363 237.907 351.256 146.24 237.06 
352.705 146.776 236.948 354.881 146.346 237.312 367.006 139.242 238.377 
360.966 139.46 238.715 362.428 139.21 238.635 365.906 138.994 238.107 
358.361 140.318 238.289 367.666 139.909 238.127 353.168 143.074 237.702 
352.46 143.982 238.075 367.382 142.154 238.372 365.351 143.52 238.14 
351.423 146.171 237.348 351.44 146.415 237.214 355.1 145.826 238.034 
351.423 146.626 237.031 351.675 146.372 237.398 351.693 146.587 237.18 
366.686 139.154 238.547 360.226 139.7 238.789 361.03 139.548 239.056 
367.225 139.447 238.554 353.729 142.845 238.325 352.296 144.23 238.12 
352.899 143.772 238.509 353.974 142.916 238.692 351.968 144.808 237.959 
360.898 143.787 239.279 365.409 142.96 239.099 366.697 142.451 238.972 
363.275 143.423 239.283 352.008 145.77 237.884 354.497 145.566 238.337 
366.837 139.405 238.967 361.304 139.603 239.267 362.878 139.465 239.428 
[...]
POINT_DATA 454
SCALARS scalars float
LOOKUP_TABLE default
1 1 1 1 1 1 1 1 1 
1 1 1 1 1 1 1 1 1 
1 1 1 1 1 1 1 1 1 
1 1 1 1 1 1 1 1 1 
1 1 1 1 1 1 1 1 1 
1 1 1 1 1 1 1 1 1 
1 1 1 1 1 1 1 1 1 
1 1 1 1 1 1 1 1 1 
1 1 1 1 1 1 1 1 1 
1 1 1 1 1 1 1 1 1 
1 1 1 1 1 1 1 1 1 
1 1 1 1 1 1 1 1 1 
1 1 1 1 1 1 1 1 1 
1 1 1 1 1 1 1 1 1 
1 1 1 1 1 1 1 1 1 
1 1 1 1 1 1 1 1 1 
1 1 1 1 1 1 1 1 1 
1 1 1 1 1 1 1 1 1 
1 1 1 1 1 1 1 1 1 
1 1 1 1 1 1 1 1 1 
1 1 1 1 1 1 1 1 1 
1 1 1 1 1 1 1 1 1 
1 1 1 1 1 1 1 1 1 
1 1 1 1 1 1 1 1 1 
1 1 1 1 1 1 1 1 1 
1 1 1 1 1 1 1 1 1 
1 1 1 1 1 1 1 1 1 
1 1 1 1 1 1 1 1 1 
1 1 1 1 1 1 1 1 1 
1 1 1 1 1 1 1 1 1 
1 1 1 1 1 1 1 1 1 
1 1 1 1 1 1 1 1 1 
1 1 1 1 1 1 1 1 1 
1 1 1 1 1 1 1 1 1 
1 1 1 1 1 1 1 1 1 
1 1 1 1 1 1 1 1 1 
1 1 1 1 1 1 1 1 1 
1 1 1 1 1 1 1 1 1 
1 1 1 1 1 1 1 1 1 
1 1 1 1 1 1 1 1 1 
1 1 1 1 1 1 1 1 1 
1 1 1 1 1 1 1 1 1 
1 1 1 1 1 1 1 1 1 
1 1 1 1 1 1 1 1 1 
1 1 1 1 1 1 1 1 1 
1 1 1 1 1 1 1 1 1 
1 1 1 1 1 1 1 1 1 
1 1 1 1 1 1 1 1 1 
1 1 1 1 1 1 1 1 1 
1 1 1 1 1 1 1 1 1 
1 1 1 1 
NORMALS Normals float
0.0947526 -0.352607 -0.930962 0.333791 -0.295034 -0.895287 0.166252 -0.482175 -0.860156 
0.0407486 -0.148812 -0.988026 -0.149399 -0.320196 -0.935497 -0.191094 -0.122095 -0.973949 
0.297839 0.0874021 -0.950607 0.500827 -0.142172 -0.853791 0.014096 0.133065 -0.991007 
0.176036 0.172279 -0.969191 0.0324608 0.348233 -0.936846 -0.159107 -0.558774 -0.813914 
-0.238325 -0.795485 -0.557139 0.0377401 -0.757269 -0.652012 0.16448 -0.665922 -0.727664 
-0.21007 -0.664292 -0.717347 -0.167466 -0.432299 -0.886043 -0.139154 -0.472945 -0.870034 
0.0321484 -0.519787 -0.853691 -0.26114 -0.532874 -0.804892 -0.156469 -0.180869 -0.970981 
-0.087816 -0.106255 -0.990453 0.67176 0.0419195 -0.739582 0.845454 0.109827 -0.522633 
-0.316563 -0.251424 -0.914644 -0.0688547 -0.0198007 -0.99743 -0.239585 0.125265 -0.96276 
-0.115726 0.0414901 -0.992414 0.279898 0.529199 -0.801003 -0.00697486 0.330413 -0.943811 
0.146941 0.555511 -0.818423 0.348463 -0.781182 -0.518004 0.231066 -0.947153 -0.222507 
-0.0042961 -0.805431 -0.592674 0.592908 -0.766261 -0.247598 -0.247866 -0.843502 -0.476516 
-0.191475 -0.810211 -0.553981 0.499932 -0.606929 -0.617823 -0.3407 -0.702405 -0.624941 
0.77881 -0.543314 -0.313472 -0.323752 -0.762593 -0.560033 -0.405441 -0.531557 -0.743683 
0.924266 0.062389 -0.376617 -0.523071 -0.632429 -0.571341 -0.440204 -0.388439 -0.809528 
-0.450908 -0.645118 -0.616851 -0.30964 -0.251067 -0.917109 -0.364542 -0.503277 -0.783467 
-0.170956 0.112056 -0.978886 -0.151669 0.227578 -0.961876 0.693107 0.37084 -0.618126 
-0.551536 -0.300528 -0.778133 -0.635752 -0.0551817 -0.769918 -0.0506791 0.437841 -0.897623 
0.289833 0.707855 -0.644157 0.337672 0.669607 -0.661516 0.547842 0.507053 -0.665407 
-0.305581 0.158421 -0.938894 -0.126365 0.395807 -0.909598 -0.100479 0.142785 -0.98464 
-0.0810945 0.199515 -0.976533 0.232511 -0.972527 0.011436 -0.197524 -0.916813 -0.347042 
-0.139801 -0.952196 -0.271621 -0.288463 -0.87591 -0.386744 0.938536 -0.343418 -0.034851 
-0.368025 -0.79907 -0.475442 -0.46226 -0.725688 -0.5096 -0.468341 -0.749723 -0.467517 
-0.433672 -0.772822 -0.463331 -0.526218 -0.753749 -0.393646 -0.673313 -0.705372 -0.221583 
-0.822273 -0.454899 -0.341956 0.88979 0.436006 -0.134805 -0.788802 -0.517495 -0.331647 
0.15283 0.760302 -0.631336 -0.794039 -0.232384 -0.561694 -0.829518 -0.127136 -0.543817 
-0.345099 0.252731 -0.903899 0.0754595 0.589793 -0.804021 0.0335918 0.70422 -0.709187 
0.196824 0.778619 -0.595829 0.0735855 0.579936 -0.811332 -0.700999 0.227368 -0.675946 
-0.472906 0.505577 -0.721631 -0.0364847 0.619692 -0.783997 0.486781 -0.870424 0.0735273 
-0.0993148 -0.98866 -0.112638 -0.342776 -0.911967 -0.225433 -0.381446 -0.887606 -0.258175 
0.996949 -0.0268594 0.0732937 0.965381 0.252966 0.0636218 -0.685214 -0.727544 0.0340756 
-0.823262 -0.432056 -0.368195 -0.804933 -0.548521 -0.22629 0.468393 0.789434 -0.396739 
-0.89869 -0.0857291 -0.430124 0.154248 0.84461 -0.512681 0.344869 0.879056 -0.329128 
-0.91787 0.134392 -0.373435 0.160196 0.821377 -0.547428 -0.53307 0.626997 -0.568076 
-0.209774 -0.965203 0.156134 -0.104641 -0.99427 -0.0218471 0.81035 -0.472884 0.345997 
-0.347562 -0.92921 -0.125576 0.865672 -0.0735386 0.49518 0.909819 0.1537 0.385495 
-0.871497 -0.471195 -0.135896 0.704394 0.702282 -0.1031 0.425257 0.884914 -0.189956 
0.167834 0.837452 -0.520102 0.225283 0.912974 -0.340185 0.270387 0.919797 -0.284366 
-0.883254 0.378962 -0.276133 -0.673144 0.554516 -0.489274 -0.588138 0.749034 -0.305026 
-0.362586 0.797137 -0.482808 -0.0759277 0.867094 -0.492323 0.14597 -0.965128 0.217302 
-0.27109 -0.952576 0.138233 0.0379688 -0.950135 0.30952 0.579277 -0.694805 0.426245 
-0.473286 -0.86816 0.149324 0.900151 0.180222 0.396545 0.879833 0.387324 0.275453 
-0.759804 -0.634867 -0.140152 0.819197 0.493378 0.292395 -0.979392 -0.163703 -0.118289 
0.455809 0.882731 -0.114122 0.399296 0.916635 0.0185386 -0.356844 0.911831 -0.203044 
-0.0507113 0.998312 -0.0283219 0.362506 -0.830561 0.422797 -0.106897 -0.925151 0.364237 
-0.0191211 -0.914982 0.40304 -0.316543 -0.867539 0.383637 0.249502 -0.758993 0.601397 
0.608523 -0.539322 0.582092 0.741988 -0.27511 0.611366 0.83503 -0.0544788 0.5475 
0.786022 0.164656 0.595867 -0.811295 -0.583491 0.0365862 0.764659 0.523121 0.376351 
0.554945 0.788918 0.263903 0.800409 0.532785 0.274746 -0.995623 -0.0828639 -0.0432184 
0.496709 0.828192 0.259573 0.364517 0.930297 0.0409173 -0.989533 0.143582 0.0144533 
0.244932 0.955656 -0.163495 0.283287 0.954951 0.0884153 -0.920122 0.391106 -0.0202671 
0.301909 0.953043 0.0236489 -0.645011 0.760824 -0.0714697 0.141682 0.986373 -0.0836342 
-0.180245 -0.877573 0.444272 0.493816 -0.567276 0.659047 0.00693323 -0.772166 0.635384 
0.559525 -0.445245 0.699063 0.657994 -0.339741 0.672027 -0.320224 -0.811947 0.488055 
0.721147 0.171764 0.671152 0.871507 0.207135 0.44449 0.64022 0.58177 0.501659 
-0.939846 -0.232698 0.250082 0.484341 0.711541 0.509042 0.762556 0.489375 0.423109 
-0.964202 0.0202286 0.264398 0.0889341 0.984396 -0.151836 0.294053 0.9343 0.201534 
0.304999 0.918303 0.252379 -0.875905 0.415343 0.245523 -0.733948 0.469064 0.491222 
-0.393849 0.917738 0.0513863 0.222112 -0.545978 0.807821 0.364438 -0.630104 0.685677 
-0.093179 -0.681103 0.726234 -0.430149 -0.677105 0.597077 -0.683689 -0.680382 0.263913 
0.594191 0.389033 0.703981 -0.712808 -0.326963 0.620484 -0.849111 0.0133988 0.528045 
-0.81606 -0.150778 0.557954 -0.792812 0.173158 0.58435 0.250863 0.893974 0.37132 
-0.798219 0.29387 0.525819 0.0359665 0.982085 0.184977 -0.289264 -0.704842 0.647707 
0.356268 -0.384091 0.85179 -0.108635 -0.624069 0.773781 0.0276723 -0.392326 0.91941 
0.244056 -0.399756 0.883534 0.583135 -0.287433 0.759827 -0.234658 -0.614403 0.753289 
0.459107 -0.0497358 0.886988 0.562604 -0.0864091 0.822198 -0.623607 -0.600163 0.500918 
0.485094 0.23214 0.843087 -0.431161 -0.466022 0.772608 0.344822 0.282968 0.895001 
0.307415 0.562025 0.76787 0.328606 0.670727 0.664939 0.196348 0.663516 0.721938 
-0.761097 -0.00193396 0.648635 0.259755 0.791432 0.55332 -0.599558 0.277915 0.750529 
-0.012696 0.972321 0.233305 0.101123 0.901016 0.421834 -0.425956 0.807524 0.408002 
-0.204629 -0.386877 0.89914 -0.180289 -0.480177 0.858444 -0.109341 -0.134119 0.984915 
0.18466 -0.0287012 0.982383 -0.442044 -0.418002 0.793645 -0.131759 -0.558833 0.818746 
-0.0137521 -0.357907 0.933656 0.156123 0.0847023 0.984099 -0.587174 -0.381405 0.713973 
-0.0162079 -0.379337 0.925117 0.321065 0.216447 0.921991 0.109128 0.159077 0.981216 
0.221196 0.351805 0.909563 -0.543579 -0.108547 0.83231 -0.418565 -0.0878282 0.90393 
-0.287318 -0.320273 0.902703 0.274654 0.531457 0.801323 0.175239 0.224797 0.958518 
0.222028 0.440808 0.869708 0.192515 0.486544 0.852181 0.129446 0.513577 0.848223 
0.133536 0.596485 0.791438 0.138392 0.490951 0.860125 -0.223211 0.367874 0.902688 
0.131253 0.774381 0.618956 -0.0237203 0.627802 0.778012 0.152892 0.849405 0.50511 
-0.222069 0.676706 0.701964 -0.00620005 -0.289849 0.957052 -0.00478206 0.0211493 0.999765 
-0.082622 0.250359 0.964621 -0.181686 -0.478516 -0.859076 0.0302412 -0.379232 -0.924807 
0.291642 -0.23829 -0.926371 -0.0878051 -0.469884 -0.87835 -0.104527 -0.277329 -0.955072 
0.196512 -0.0375272 -0.979783 -0.0441237 -0.198562 -0.979095 -0.260731 -0.0570937 -0.963722 
0.0793735 0.199783 -0.97662 0.191388 0.300046 -0.934528 -0.377066 -0.0435926 -0.92516 
-0.29138 0.280715 -0.914493 -0.0411972 0.124229 -0.991398 -0.142644 0.478293 -0.866538 
0.0917804 0.327192 -0.94049 0.0918836 0.557468 -0.825098 0.32501 0.672283 -0.665134 
-0.0199403 0.654139 -0.756111 0.138412 0.482768 -0.864741 0.237748 0.709591 -0.663292 
-0.199921 -0.648717 -0.734301 -0.033137 -0.398472 -0.916582 0.0158973 -0.551443 -0.834061 
-0.178201 -0.516573 -0.837494 -0.389589 -0.441271 -0.808394 -0.560955 -0.238321 -0.792801 
0.437631 0.374443 -0.817478 -0.724783 -0.251884 -0.641283 -0.599389 0.125638 -0.790536 
-0.399177 0.283539 -0.871931 0.320372 0.743576 -0.586905 -0.705121 0.313467 -0.636036 
0.133252 0.805036 -0.578066 -0.270241 0.618603 -0.737767 0.122309 0.905887 -0.405473 
-0.161213 0.785396 -0.597632 -0.064796 -0.758232 -0.648758 0.287113 -0.482875 -0.827284 
-0.377475 -0.754663 -0.536653 0.457779 -0.14584 -0.877023 -0.652121 -0.603501 -0.458829 
-0.497004 -0.59263 -0.633859 -0.418698 -0.689062 -0.591511 0.356643 0.102559 -0.928594 
0.396311 0.365115 -0.842394 0.308126 0.849365 -0.42853 0.551387 0.552746 -0.624855 
-0.769798 -0.101807 -0.630117 -0.913695 -0.109974 -0.391238 0.326727 0.840073 -0.433044 
-0.865104 0.247661 -0.436187 -0.908395 0.263797 -0.324392 0.187218 0.94009 -0.284921 
0.294725 0.885991 -0.357991 -0.413439 0.721354 -0.555622 -0.69731 0.575486 -0.427287 
-0.025441 0.837655 -0.545607 0.0747574 0.960549 -0.267875 -0.198793 0.937418 -0.285883 
-0.0639541 -0.732089 -0.678201 -0.101426 -0.862115 -0.496458 0.0897663 -0.729437 -0.678132 
0.171446 -0.634849 -0.753375 0.401796 -0.427476 -0.80983 -0.363991 -0.84597 -0.389674 
-0.230188 -0.865782 -0.444336 -0.322009 -0.884989 -0.336311 0.618501 0.0342593 -0.785037 
0.755724 0.056511 -0.652447 0.611374 0.313943 -0.726403 0.709442 0.395378 -0.583411 
0.786964 0.393987 -0.474829 -0.800289 -0.440412 -0.406909 -0.930515 -0.302026 -0.207177 
0.467419 0.737339 -0.4877 0.757489 0.517298 -0.398262 0.340918 0.875673 -0.342011 
-0.984599 0.15904 -0.072605 0.49891 0.831127 -0.245594 -0.838865 0.515934 -0.173546 
-0.412836 0.892719 -0.180606 -0.117876 -0.984002 -0.133589 0.04895 -0.767111 -0.639644 
0.233985 -0.670011 -0.704512 0.228732 -0.771868 -0.593213 -0.208081 -0.928906 -0.306325 
0.553498 -0.526749 -0.645116 0.76287 -0.465652 -0.448551 0.644043 -0.297727 -0.704675 
-0.416871 -0.868228 -0.269071 -0.563205 -0.786005 -0.254945 0.848788 0.281779 -0.447392 
0.848207 0.496047 -0.185694 0.660695 0.685736 -0.305366 0.727137 0.653083 -0.211554 
-0.933143 -0.356576 0.0457981 0.164531 0.98616 -0.0204364 0.214495 0.938248 0.271446 
0.237586 0.967298 0.0888152 0.0372236 0.983973 0.174391 0.337836 -0.915277 -0.219398 
0.563466 -0.78397 -0.26057 -0.230692 -0.964573 -0.127988 -0.0669081 -0.959898 -0.272249 
-0.0394598 -0.90993 -0.412881 0.61922 -0.7049 -0.345952 -0.369853 -0.909954 -0.187594 
0.925379 -0.292804 -0.240707 -0.427667 -0.901997 0.0591852 0.969527 0.116287 -0.215627 
-0.736498 -0.674646 0.0492294 0.377053 0.882323 -0.281669 0.259487 0.956986 -0.129785 
0.275261 0.959131 0.0655727 -0.976745 -0.0318934 0.212018 -0.935007 0.285122 0.210873 
-0.382858 0.833562 0.39824 0.106721 0.960635 0.256497 -0.723861 0.688596 -0.0431395 
-0.214083 0.94851 0.233448 0.0507461 -0.960656 -0.273067 -0.0457702 -0.998834 0.0153756 
0.757529 -0.651319 -0.0439679 -0.449508 -0.888863 0.0886816 0.981534 -0.0196442 0.190276 
-0.751246 -0.641985 0.153245 0.944703 0.327528 0.0161745 -0.905854 -0.254866 0.338337 
0.746359 0.658402 -0.0972339 0.522768 0.831023 0.190038 -0.885091 0.0688662 0.460295 
0.0278268 0.921723 0.386849 0.0823414 0.883346 0.461433 0.545481 -0.831724 0.103368 
-0.134092 -0.971631 0.194814 -0.121528 -0.980795 0.152555 0.0401811 -0.998213 0.0442274 
-0.361744 -0.909375 0.205375 0.864004 -0.465586 0.191642 -0.667094 -0.702944 0.24669 
-0.777656 -0.591588 0.212778 0.751788 0.63301 0.184698 0.291754 0.867111 0.403731 
-0.698664 0.203065 0.686027 -0.566515 0.506141 0.650294 0.166276 0.695008 0.699512 
-0.589952 0.600358 0.539932 -0.294678 0.579597 0.759758 -0.0914836 0.817598 0.568476 
0.242869 -0.948958 0.201231 -0.345509 -0.875358 0.338189 -0.254865 -0.837707 0.483002 
0.635611 -0.724306 0.26717 -0.586376 -0.70045 0.406858 -0.774277 -0.369476 0.513792 
-0.708679 -0.581218 0.39995 -0.491792 -0.713585 0.498936 -0.877101 -0.301061 0.374241 
0.0633747 0.656177 0.751941 0.277146 0.712738 0.644357 0.507995 0.70798 0.490618 
0.0785152 0.7209 0.688577 -0.245273 0.503937 0.828184 0.0421702 0.687562 0.7249 
0.36041 -0.789258 0.497168 -0.176105 -0.7549 0.631754 -0.0628482 -0.891535 0.44857 
0.0771486 -0.929712 0.360115 0.647822 -0.635504 0.420073 0.600402 -0.534987 0.594396 
0.860725 -0.294425 0.415291 -0.379479 -0.660552 0.647817 0.801434 0.404827 0.440248 
-0.631544 0.00552443 0.775321 -0.774369 -0.298662 0.557811 -0.567422 -0.706718 0.422589 
0.428527 0.507752 0.747364 0.559949 0.484771 0.671903 -0.507977 0.24059 0.827089 
-0.119558 0.354923 0.927219 -0.168207 0.131238 0.976976 -0.0824502 0.339185 0.937099 
0.0312555 0.614193 0.788536 -0.65261 0.0952425 0.751684 -0.241724 0.425495 0.87208 
0.181345 -0.745766 0.641052 0.0183562 -0.707597 0.706378 -0.311296 -0.560291 0.767574 
-0.120929 -0.499445 0.857864 0.00303382 -0.485651 0.874147 0.81908 -0.16948 0.548073 
0.589064 0.0596534 0.805882 -0.18989 -0.164559 0.967916 -0.24301 -0.160042 0.95673 
-0.141211 -0.0137955 0.989883 0.240974 0.34581 0.906834 0.659285 0.242882 0.711584 
-0.413275 -0.68541 0.599514 -0.681893 -0.481435 0.550674 -0.246597 0.207532 0.946637 
-0.0611025 0.349341 0.935001 -0.0631595 0.318303 0.945883 0.201265 0.475056 0.856629 
-0.651189 -0.0355093 0.758084 0.457255 -0.598928 0.657422 -0.120074 -0.210208 0.970255 
0.0708864 -0.264747 0.961709 0.518007 -0.350667 0.780193 -0.0857833 0.00122641 0.996313 
0.136194 0.184689 0.973315 -0.396474 -0.0984128 0.912756 -0.223927 -0.376603 0.898903 
0.209954 -0.330286 0.920234 
