# vtk DataFile Version 4.2
vtk output
ASCII
DATASET POLYDATA
POINTS 6066 float
339.738 198.688 156.612 339.671 198.645 156.628 339.602 198.957 156.669 
339.814 198.57 156.638 339.789 198.388 156.627 339.88 198.306 156.716 
339.737 198.881 156.687 339.955 197.539 156.811 339.922 197.469 156.849 
339.917 197.61 156.768 339.95 197.41 156.921 339.881 198.032 156.697 
339.779 198.096 156.673 339.948 197.908 156.879 339.566 199.288 156.738 
339.32 199.429 156.831 339.272 199.878 156.874 339.548 199.536 156.829 
339.331 199.96 156.884 339.286 200.145 157 339.878 197.292 157.047 
339.951 197.279 157.133 339.662 198.133 156.743 338.968 200.496 157.166 
338.252 202.058 157.754 338.28 201.927 157.728 338.21 202.055 157.776 
338.332 201.952 157.766 338.153 202.191 157.872 339.755 197.086 157.324 
339.769 198.997 157.517 338.657 200.706 157.389 337.922 201.692 158.088 
338.443 201.5 157.631 338.802 200.943 157.406 338.991 200.822 157.516 
338.587 201.547 157.734 338.01 202.46 158.056 338.178 202.276 157.983 
337.97 202.58 158.17 339.892 196.253 157.999 339.837 195.99 158.189 
339.915 196.006 158.222 339.89 196.608 157.726 339.934 196.482 158.008 
338.771 201.295 157.843 337.276 203.065 158.851 336.902 203.682 159.306 
337.069 203.575 159.149 337.292 203.383 158.985 339.925 195.565 158.456 
339.921 195.495 158.498 339.896 195.555 158.463 339.914 195.541 158.541 
339.902 195.722 158.355 339.84 195.718 158.39 336.782 203.358 159.643 
336.663 203.976 159.621 336.963 203.705 159.358 339.895 195.496 158.54 
339.862 195.511 158.651 339.817 195.588 158.557 336.482 202.093 160.03 
336.524 203.071 159.927 336.224 203.377 160.294 336.63 203.764 159.783 
336.52 203.481 160.128 336.996 203.392 159.661 336.847 203.301 160.03 
336.546 203.836 159.933 336.222 204.193 160.14 336.618 203.818 159.899 
336.285 204.35 160.029 335.966 204.623 160.342 339.706 195.493 158.954 
339.665 195.537 159.07 339.779 195.434 158.901 339.742 195.459 159.005 
339.827 195.489 158.812 339.795 195.452 158.935 339.768 195.509 158.779 
336.238 201.892 160.387 337.902 201.871 160.014 336.269 203.874 160.252 
336.402 203.762 160.369 336.597 203.46 160.465 336.356 204.052 160.237 
335.388 205.259 160.843 335.722 204.866 160.682 335.059 205.722 161.04 
335.096 205.707 161.028 334.942 205.933 161.109 339.551 195.734 159.191 
339.76 195.515 159.019 339.356 196.06 159.449 339.568 195.862 159.293 
339.118 196.392 159.841 339.066 196.351 159.573 339.395 196.291 159.621 
339.173 196.505 159.976 338.883 198.265 160.544 336.427 200.336 160.989 
336.194 201.895 160.467 336.095 201.873 160.703 335.61 202.507 161.308 
336.499 203.456 160.811 334.806 205.99 161.245 334.801 206.111 161.19 
334.778 206.135 161.209 334.782 206.155 161.195 334.828 206.092 161.175 
338.864 196.674 160.149 339.015 196.584 160.116 339.029 196.693 160.201 
338.834 197.998 160.65 334.775 204.856 161.941 334.795 205.746 161.4 
334.75 205.951 161.356 334.742 206.007 161.338 334.784 206.118 161.219 
334.755 206.026 161.309 334.779 206.04 161.279 338.323 197.756 161.099 
334.167 204.164 163.354 334.482 204.382 162.624 334.169 204.333 163.227 
334.179 204.38 163.18 334.323 204.403 162.952 334.809 205.518 161.562 
334.545 204.52 162.611 334.391 204.386 162.962 334.9 205.122 161.77 
334.789 204.677 162.265 334.217 204.396 163.121 334.77 205.908 161.371 
339.184 189.024 166.369 339.166 189.043 166.394 339.16 189.052 166.404 
339.191 189.015 166.359 339.183 189.024 166.37 339.191 189.015 166.359 
339.127 189.091 166.452 339.179 189.029 166.376 337.409 198.5 161.93 
337.674 198.277 161.752 337.682 198.413 161.894 336.675 199.273 162.439 
337.745 198.709 161.95 336.198 199.699 163.016 337.419 199.469 162.239 
337.101 200.531 162.305 333.964 203.255 164.304 334.017 203.729 163.89 
334.038 203.832 163.821 334.092 203.972 163.646 334.294 204.242 163.222 
339.123 189.093 166.455 339.093 189.129 166.499 339.14 189.075 166.433 
339.027 189.203 166.592 338.995 189.248 166.641 338.933 189.306 166.719 
339.018 189.224 166.611 339.033 189.202 166.589 338.927 189.334 166.743 
338.929 189.328 166.74 338.821 189.457 166.89 338.835 189.441 166.874 
338.741 189.548 167.001 337.428 198.601 162.081 335.854 199.947 163.702 
335.655 200.131 163.886 336.856 199.21 162.598 337.168 198.957 162.38 
336.929 199.478 162.711 335.578 200.905 164.103 335.593 201.154 163.986 
334.014 203.613 164.067 333.761 203.049 164.963 339.028 189.2 166.589 
338.788 189.457 166.911 338.76 189.492 166.948 338.885 189.356 166.785 
338.54 189.719 167.224 338.695 189.595 167.064 338.591 189.705 167.193 
335.839 199.996 163.78 335.011 200.758 164.446 335.658 200.232 164.021 
335.378 200.459 164.306 335.461 200.446 164.258 335.578 200.487 164.154 
334.303 201.582 164.977 334.12 201.918 165.117 333.94 202.005 165.487 
333.745 202.239 165.62 333.626 202.434 165.687 333.631 202.968 165.296 
333.73 202.991 165.155 333.956 203.169 164.677 333.55 202.891 165.498 
338.706 189.541 167.02 338.585 189.663 167.167 338.755 189.496 166.963 
338.614 189.636 167.142 338.315 189.922 167.495 338.211 190.036 167.612 
337.911 190.318 167.946 338.049 190.205 167.8 338.312 189.974 167.523 
337.953 190.308 167.916 338.465 189.841 167.359 338.57 189.734 167.23 
337.725 190.502 168.142 337.792 190.451 168.08 338.517 189.793 167.3 
335.177 200.627 164.45 334.63 201.107 164.921 334.298 201.417 165.216 
334.906 200.922 164.702 335.234 200.692 164.456 334.081 201.656 165.427 
333.938 201.832 165.589 334.113 201.701 165.385 333.879 201.895 165.674 
334.315 201.727 165.156 333.642 202.174 165.891 333.767 202.092 165.769 
334.141 202.109 165.253 333.547 202.401 165.89 333.721 202.322 165.691 
333.632 202.209 165.905 333.557 202.447 165.867 333.488 202.616 165.813 
333.488 202.737 165.732 333.606 202.926 165.402 333.505 202.82 165.639 
333.548 202.85 165.563 338.53 189.716 167.241 338.121 190.105 167.727 
338.376 189.872 167.436 338.513 189.754 167.282 337.711 190.488 168.162 
338.39 189.898 167.442 338.198 190.077 167.661 338.26 190.01 167.59 
338.036 190.235 167.834 338.48 189.822 167.34 337.381 190.817 168.485 
337.534 190.688 168.339 337.672 190.568 168.209 337.818 190.436 168.068 
336.987 191.189 168.85 337.214 190.984 168.645 337.407 190.811 168.468 
333.979 201.671 165.635 334.224 201.504 165.363 333.541 202.276 166.003 
333.477 202.435 165.993 333.508 202.635 165.797 333.507 202.77 165.692 
337.837 190.367 168.045 338.133 190.112 167.73 337.992 190.236 167.89 
337.872 190.351 168.019 337.951 190.297 167.932 337.815 190.434 168.077 
337.5 190.726 168.385 337.679 190.56 168.215 336.445 191.707 169.318 
336.869 191.308 168.955 337.107 191.088 168.748 333.768 201.841 165.895 
333.667 201.923 166.024 333.502 202.05 166.228 333.468 202.084 166.265 
333.467 202.12 166.241 333.46 202.183 166.209 337.354 190.803 168.555 
337.255 190.893 168.658 337.204 190.94 168.704 337.317 190.841 168.594 
337.081 191.059 168.813 336.987 191.153 168.885 337.575 190.613 168.328 
337.567 190.654 168.328 336.194 191.942 169.53 335.823 192.309 169.822 
335.599 192.527 169.997 335.959 192.18 169.717 336.124 192.021 169.586 
336.608 191.556 169.185 335.468 192.657 170.096 335.404 192.718 170.143 
335.221 192.899 170.276 335.524 192.603 170.056 335.667 192.464 169.948 
335.789 192.346 169.856 335.327 192.796 170.202 335.406 192.72 170.146 
333.549 202.016 166.169 336.889 191.253 168.974 336.489 191.653 169.299 
335.757 192.371 169.876 335.975 192.158 169.709 335.624 192.502 169.98 
336.239 191.903 169.5 336.162 191.983 169.559 335.393 192.729 170.151 
335.42 192.704 170.135 335.177 192.943 170.311 335.835 192.301 169.821 
335.071 193.046 170.383 334.979 193.137 170.45 334.86 193.253 170.53 
335.382 192.743 170.167 335.467 192.66 170.105 335.289 192.834 170.233 
335.592 192.538 170.011 335.64 192.491 169.974 334.913 193.201 170.493 
334.738 193.373 170.612 335.096 193.023 170.367 334.811 193.302 170.563 
334.739 193.372 170.611 335.646 192.483 169.966 335.949 192.187 169.732 
335.337 192.786 170.198 335.533 192.595 170.055 335.775 192.359 169.869 
334.862 193.251 170.529 335.024 193.093 170.421 335.139 192.98 170.34 
335.175 192.946 170.315 334.719 193.391 170.626 334.729 193.382 170.619 
334.709 193.402 170.632 335.027 193.09 170.418 334.667 193.442 170.66 
334.659 193.45 170.666 334.68 193.43 170.652 334.64 193.468 170.678 
335.074 193.045 170.387 334.67 193.439 170.658 334.649 193.46 170.672 
312.698 123.007 209.327 312.662 122.939 209.365 312.733 122.977 209.361 
312.776 123.068 209.353 310 122.009 207.017 310 122.009 207.017 
310 122.009 207.017 310 122.009 207.017 310 122.009 207.017 
312.61 122.795 209.518 312.668 122.866 209.416 312.701 123.021 209.493 
312.938 123.095 209.429 312.909 123.211 209.44 314.591 125.333 209.384 
314.418 125.233 209.447 315.542 125.465 209.193 315.459 126.137 209.283 
315.588 126.499 209.438 315.938 126.924 209.556 316.853 127.599 209.21 
317.144 128.036 209.285 317.209 128.186 209.457 317.53 128.382 209.29 
308.168 119.29 209.449 308.192 119.293 209.464 308.158 119.29 209.443 
308.239 119.295 209.494 308.225 119.294 209.485 309.495 119.587 210.055 
309.447 119.56 210.052 309.461 119.579 210.034 309.585 119.618 210.113 
309.787 119.676 210.26 327.654 121.172 210.744 327.599 120.936 210.798 
327.716 120.833 210.947 309.518 119.6 210.073 309.657 119.648 210.172 
310.004 121.013 208.009 310.004 121.013 208.009 310.004 121.013 208.009 
310.004 121.013 208.009 311.961 121.469 210.33 310 122.009 207.017 
310.004 121.013 208.009 312.62 122.418 209.787 312.471 122.521 209.777 
327.705 121.848 210.75 312.557 122.792 209.686 313.35 123.461 209.509 
313.183 123.548 209.617 313.485 123.987 209.931 314.04 124.325 209.539 
314.151 124.906 209.801 327.025 125.652 209.749 326.632 127.034 209.431 
327.027 126.687 209.752 316.383 127.413 209.685 326.836 127.689 209.509 
326.766 127.957 209.476 326.586 128.275 209.406 319.456 129.841 209.264 
[...]
POINT_DATA 6066
SCALARS scalars float
LOOKUP_TABLE default
1 1 1 1 1 1 1 1 1 
1 1 1 1 1 1 1 1 1 
1 1 1 1 1 1 1 1 1 
1 1 1 1 1 1 1 1 1 
1 1 1 1 1 1 1 1 1 
1 1 1 1 1 1 1 1 1 
1 1 1 1 1 1 1 1 1 
1 1 1 1 1 1 1 1 1 
1 1 1 1 1 1 1 1 1 
1 1 1 1 1 1 1 1 1 
1 1 1 1 1 1 1 1 1 
1 1 1 1 1 1 1 1 1 
1 1 1 1 1 1 1 1 1 
1 1 1 1 1 1 1 1 1 
1 1 1 1 1 1 1 1 1 
1 1 1 1 1 1 1 1 1 
1 1 1 1 1 1 1 1 1 
1 1 1 1 1 1 1 1 1 
1 1 1 1 1 1 1 1 1 
1 1 1 1 1 1 1 1 1 
1 1 1 1 1 1 1 1 1 
1 1 1 1 1 1 1 1 1 
1 1 1 1 1 1 1 1 1 
1 1 1 1 1 1 1 1 1 
1 1 1 1 1 1 1 1 1 
1 1 1 1 1 1 1 1 1 
1 1 1 1 1 1 1 1 1 
1 1 1 1 1 1 1 1 1 
1 1 1 1 1 1 1 1 1 
1 1 1 1 1 1 1 1 1 
1 1 1 1 1 1 1 1 1 
1 1 1 1 1 1 1 1 1 
1 1 1 1 1 1 1 1 1 
1 1 1 1 1 1 1 1 1 
1 1 1 1 1 1 1 1 1 
1 1 1 1 1 1 1 1 1 
1 1 1 1 1 1 1 1 1 
1 1 1 1 1 1 1 1 1 
1 1 1 1 1 1 1 1 1 
1 1 1 1 1 1 1 1 1 
1 1 1 1 1 1 1 1 1 
1 1 1 1 1 1 1 1 1 
1 1 1 1 1 1 1 1 1 
1 1 1 1 1 1 1 1 1 
1 1 1 1 1 1 1 1 1 
1 1 1 1 1 1 1 1 1 
1 1 1 1 1 1 1 1 1 
1 1 1 1 1 1 1 1 1 
1 1 1 1 1 1 1 1 1 
1 1 1 1 1 1 1 1 1 
1 1 1 1 1 1 1 1 1 
1 1 1 1 1 1 1 1 1 
1 1 1 1 1 1 1 1 1 
1 1 1 1 1 1 1 1 1 
1 1 1 1 1 1 1 1 1 
1 1 1 1 1 1 1 1 1 
1 1 1 1 1 1 1 1 1 
1 1 1 1 1 1 1 1 1 
1 1 1 1 1 1 1 1 1 
1 1 1 1 1 1 1 1 1 
1 1 1 1 1 1 1 1 1 
1 1 1 1 1 1 1 1 1 
1 1 1 1 1 1 1 1 1 
1 1 1 1 1 1 1 1 1 
1 1 1 1 1 1 1 1 1 
1 1 1 1 1 1 1 1 1 
1 1 1 1 1 1 1 1 1 
1 1 1 1 1 1 1 1 1 
1 1 1 1 1 1 1 1 1 
1 1 1 1 1 1 1 1 1 
1 1 1 1 1 1 1 1 1 
1 1 1 1 1 1 1 1 1 
1 1 1 1 1 1 1 1 1 
1 1 1 1 1 1 1 1 1 
1 1 1 1 1 1 1 1 1 
1 1 1 1 1 1 1 1 1 
1 1 1 1 1 1 1 1 1 
1 1 1 1 1 1 1 1 1 
1 1 1 1 1 1 1 1 1 
1 1 1 1 1 1 1 1 1 
1 1 1 1 1 1 1 1 1 
1 1 1 1 1 1 1 1 1 
1 1 1 1 1 1 1 1 1 
1 1 1 1 1 1 1 1 1 
1 1 1 1 1 1 1 1 1 
1 1 1 1 1 1 1 1 1 
1 1 1 1 1 1 1 1 1 
1 1 1 1 1 1 1 1 1 
1 1 1 1 1 1 1 1 1 
1 1 1 1 1 1 1 1 1 
1 1 1 1 1 1 1 1 1 
1 1 1 1 1 1 1 1 1 
1 1 1 1 1 1 1 1 1 
1 1 1 1 1 1 1 1 1 
1 1 1 1 1 1 1 1 1 
1 1 1 1 1 1 1 1 1 
1 1 1 1 1 1 1 1 1 
1 1 1 1 1 1 1 1 1 
1 1 1 1 1 1 1 1 1 
1 1 1 1 1 1 1 1 1 
1 1 1 1 1 1 1 1 1 
1 1 1 1 1 1 1 1 1 
1 1 1 1 1 1 1 1 1 
1 1 1 1 1 1 1 1 1 
1 1 1 1 1 1 1 1 1 
1 1 1 1 1 1 1 1 1 
1 1 1 1 1 1 1 1 1 
1 1 1 1 1 1 1 1 1 
1 1 1 1 1 1 1 1 1 
1 1 1 1 1 1 1 1 1 
1 1 1 1 1 1 1 1 1 
1 1 1 1 1 1 1 1 1 
1 1 1 1 1 1 1 1 1 
1 1 1 1 1 1 1 1 1 
1 1 1 1 1 1 1 1 1 
1 1 1 1 1 1 1 1 1 
1 1 1 1 1 1 1 1 1 
1 1 1 1 1 1 1 1 1 
1 1 1 1 1 1 1 1 1 
1 1 1 1 1 1 1 1 1 
1 1 1 1 1 1 1 1 1 
1 1 1 1 1 1 1 1 1 
1 1 1 1 1 1 1 1 1 
1 1 1 1 1 1 1 1 1 
1 1 1 1 1 1 1 1 1 
1 1 1 1 1 1 1 1 1 
1 1 1 1 1 1 1 1 1 
1 1 1 1 1 1 1 1 1 
1 1 1 1 1 1 1 1 1 
1 1 1 1 1 1 1 1 1 
1 1 1 1 1 1 1 1 1 
1 1 1 1 1 1 1 1 1 
1 1 1 1 1 1 1 1 1 
1 1 1 1 1 1 1 1 1 
1 1 1 1 1 1 1 1 1 
1 1 1 1 1 1 1 1 1 
1 1 1 1 1 1 1 1 1 
1 1 1 1 1 1 1 1 1 
1 1 1 1 1 1 1 1 1 
1 1 1 1 1 1 1 1 1 
1 1 1 1 1 1 1 1 1 
1 1 1 1 1 1 1 1 1 
1 1 1 1 1 1 1 1 1 
1 1 1 1 1 1 1 1 1 
1 1 1 1 1 1 1 1 1 
1 1 1 1 1 1 1 1 1 
1 1 1 1 1 1 1 1 1 
1 1 1 1 1 1 1 1 1 
1 1 1 1 1 1 1 1 1 
1 1 1 1 1 1 1 1 1 
1 1 1 1 1 1 1 1 1 
1 1 1 1 1 1 1 1 1 
1 1 1 1 1 1 1 1 1 
1 1 1 1 1 1 1 1 1 
1 1 1 1 1 1 1 1 1 
1 1 1 1 1 1 1 1 1 
1 1 1 1 1 1 1 1 1 
1 1 1 1 1 1 1 1 1 
1 1 1 1 1 1 1 1 1 
1 1 1 1 1 1 1 1 1 
1 1 1 1 1 1 1 1 1 
1 1 1 1 1 1 1 1 1 
1 1 1 1 1 1 1 1 1 
1 1 1 1 1 1 1 1 1 
1 1 1 1 1 1 1 1 1 
1 1 1 1 1 1 1 1 1 
1 1 1 1 1 1 1 1 1 
1 1 1 1 1 1 1 1 1 
1 1 1 1 1 1 1 1 1 
1 1 1 1 1 1 1 1 1 
1 1 1 1 1 1 1 1 1 
1 1 1 1 1 1 1 1 1 
1 1 1 1 1 1 1 1 1 
1 1 1 1 1 1 1 1 1 
1 1 1 1 1 1 1 1 1 
1 1 1 1 1 1 1 1 1 
1 1 1 1 1 1 1 1 1 
1 1 1 1 1 1 1 1 1 
1 1 1 1 1 1 1 1 1 
1 1 1 1 1 1 1 1 1 
1 1 1 1 1 1 1 1 1 
1 1 1 1 1 1 1 1 1 
1 1 1 1 1 1 1 1 1 
1 1 1 1 1 1 1 1 1 
1 1 1 1 1 1 1 1 1 
1 1 1 1 1 1 1 1 1 
1 1 1 1 1 1 1 1 1 
1 1 1 1 1 1 1 1 1 
1 1 1 1 1 1 1 1 1 
1 1 1 1 1 1 1 1 1 
1 1 1 1 1 1 1 1 1 
1 1 1 1 1 1 1 1 1 
1 1 1 1 1 1 1 1 1 
1 1 1 1 1 1 1 1 1 
1 1 1 1 1 1 1 1 1 
1 1 1 1 1 1 1 1 1 
1 1 1 1 1 1 1 1 1 
1 1 1 1 1 1 1 1 1 
1 1 1 1 1 1 1 1 1 
1 1 1 1 1 1 1 1 1 
1 1 1 1 1 1 1 1 1 
1 1 1 1 1 1 1 1 1 
1 1 1 1 1 1 1 1 1 
1 1 1 1 1 1 1 1 1 
1 1 1 1 1 1 1 1 1 
1 1 1 1 1 1 1 1 1 
1 1 1 1 1 1 1 1 1 
1 1 1 1 1 1 1 1 1 
1 1 1 1 1 1 1 1 1 
1 1 1 1 1 1 1 1 1 
1 1 1 1 1 1 1 1 1 
1 1 1 1 1 1 1 1 1 
1 1 1 1 1 1 1 1 1 
1 1 1 1 1 1 1 1 1 
1 1 1 1 1 1 1 1 1 
1 1 1 1 1 1 1 1 1 
1 1 1 1 1 1 1 1 1 
1 1 1 1 1 1 1 1 1 
1 1 1 1 1 1 1 1 1 
1 1 1 1 1 1 1 1 1 
1 1 1 1 1 1 1 1 1 
1 1 1 1 1 1 1 1 1 
1 1 1 1 1 1 1 1 1 
1 1 1 1 1 1 1 1 1 
1 1 1 1 1 1 1 1 1 
1 1 1 1 1 1 1 1 1 
1 1 1 1 1 1 1 1 1 
1 1 1 1 1 1 1 1 1 
1 1 1 1 1 1 1 1 1 
1 1 1 1 1 1 1 1 1 
1 1 1 1 1 1 1 1 1 
1 1 1 1 1 1 1 1 1 
1 1 1 1 1 1 1 1 1 
1 1 1 1 1 1 1 1 1 
1 1 1 1 1 1 1 1 1 
1 1 1 1 1 1 1 1 1 
1 1 1 1 1 1 1 1 1 
1 1 1 1 1 1 1 1 1 
1 1 1 1 1 1 1 1 1 
1 1 1 1 1 1 1 1 1 
1 1 1 1 1 1 1 1 1 
1 1 1 1 1 1 1 1 1 
1 1 1 1 1 1 1 1 1 
1 1 1 1 1 1 1 1 1 
1 1 1 1 1 1 1 1 1 
1 1 1 1 1 1 1 1 1 
1 1 1 1 1 1 1 1 1 
1 1 1 1 1 1 1 1 1 
1 1 1 1 1 1 1 1 1 
1 1 1 1 1 1 1 1 1 
1 1 1 1 1 1 1 1 1 
1 1 1 1 1 1 1 1 1 
1 1 1 1 1 1 1 1 1 
1 1 1 1 1 1 1 1 1 
1 1 1 1 1 1 1 1 1 
1 1 1 1 1 1 1 1 1 
1 1 1 1 1 1 1 1 1 
1 1 1 1 1 1 1 1 1 
1 1 1 1 1 1 1 1 1 
1 1 1 1 1 1 1 1 1 
1 1 1 1 1 1 1 1 1 
1 1 1 1 1 1 1 1 1 
1 1 1 1 1 1 1 1 1 
1 1 1 1 1 1 1 1 1 
1 1 1 1 1 1 1 1 1 
1 1 1 1 1 1 1 1 1 
1 1 1 1 1 1 1 1 1 
1 1 1 1 1 1 1 1 1 
1 1 1 1 1 1 1 1 1 
1 1 1 1 1 1 1 1 1 
1 1 1 1 1 1 1 1 1 
1 1 1 1 1 1 1 1 1 
1 1 1 1 1 1 1 1 1 
1 1 1 1 1 1 1 1 1 
1 1 1 1 1 1 1 1 1 
1 1 1 1 1 1 1 1 1 
1 1 1 1 1 1 1 1 1 
1 1 1 1 1 1 1 1 1 
1 1 1 1 1 1 1 1 1 
1 1 1 1 1 1 1 1 1 
1 1 1 1 1 1 1 1 1 
1 1 1 1 1 1 1 1 1 
1 1 1 1 1 1 1 1 1 
1 1 1 1 1 1 1 1 1 
1 1 1 1 1 1 1 1 1 
1 1 1 1 1 1 1 1 1 
1 1 1 1 1 1 1 1 1 
1 1 1 1 1 1 1 1 1 
1 1 1 1 1 1 1 1 1 
1 1 1 1 1 1 1 1 1 
1 1 1 1 1 1 1 1 1 
1 1 1 1 1 1 1 1 1 
1 1 1 1 1 1 1 1 1 
1 1 1 1 1 1 1 1 1 
1 1 1 1 1 1 1 1 1 
1 1 1 1 1 1 1 1 1 
1 1 1 1 1 1 1 1 1 
1 1 1 1 1 1 1 1 1 
1 1 1 1 1 1 1 1 1 
1 1 1 1 1 1 1 1 1 
1 1 1 1 1 1 1 1 1 
1 1 1 1 1 1 1 1 1 
1 1 1 1 1 1 1 1 1 
1 1 1 1 1 1 1 1 1 
1 1 1 1 1 1 1 1 1 
1 1 1 1 1 1 1 1 1 
1 1 1 1 1 1 1 1 1 
1 1 1 1 1 1 1 1 1 
1 1 1 1 1 1 1 1 1 
1 1 1 1 1 1 1 1 1 
1 1 1 1 1 1 1 1 1 
1 1 1 1 1 1 1 1 1 
1 1 1 1 1 1 1 1 1 
1 1 1 1 1 1 1 1 1 
1 1 1 1 1 1 1 1 1 
1 1 1 1 1 1 1 1 1 
1 1 1 1 1 1 1 1 1 
1 1 1 1 1 1 1 1 1 
1 1 1 1 1 1 1 1 1 
1 1 1 1 1 1 1 1 1 
1 1 1 1 1 1 1 1 1 
1 1 1 1 1 1 1 1 1 
1 1 1 1 1 1 1 1 1 
1 1 1 1 1 1 1 1 1 
1 1 1 1 1 1 1 1 1 
1 1 1 1 1 1 1 1 1 
1 1 1 1 1 1 1 1 1 
1 1 1 1 1 1 1 1 1 
1 1 1 1 1 1 1 1 1 
1 1 1 1 1 1 1 1 1 
1 1 1 1 1 1 1 1 1 
1 1 1 1 1 1 1 1 1 
1 1 1 1 1 1 1 1 1 
1 1 1 1 1 1 1 1 1 
1 1 1 1 1 1 1 1 1 
1 1 1 1 1 1 1 1 1 
1 1 1 1 1 1 1 1 1 
1 1 1 1 1 1 1 1 1 
1 1 1 1 1 1 1 1 1 
1 1 1 1 1 1 1 1 1 
1 1 1 1 1 1 1 1 1 
1 1 1 1 1 1 1 1 1 
1 1 1 1 1 1 1 1 1 
1 1 1 1 1 1 1 1 1 
1 1 1 1 1 1 1 1 1 
1 1 1 1 1 1 1 1 1 
1 1 1 1 1 1 1 1 1 
1 1 1 1 1 1 1 1 1 
1 1 1 1 1 1 1 1 1 
1 1 1 1 1 1 1 1 1 
1 1 1 1 1 1 1 1 1 
1 1 1 1 1 1 1 1 1 
1 1 1 1 1 1 1 1 1 
1 1 1 1 1 1 1 1 1 
1 1 1 1 1 1 1 1 1 
1 1 1 1 1 1 1 1 1 
1 1 1 1 1 1 1 1 1 
1 1 1 1 1 1 1 1 1 
1 1 1 1 1 1 1 1 1 
1 1 1 1 1 1 1 1 1 
1 1 1 1 1 1 1 1 1 
1 1 1 1 1 1 1 1 1 
1 1 1 1 1 1 1 1 1 
1 1 1 1 1 1 1 1 1 
1 1 1 1 1 1 1 1 1 
1 1 1 1 1 1 1 1 1 
1 1 1 1 1 1 1 1 1 
1 1 1 1 1 1 1 1 1 
1 1 1 1 1 1 1 1 1 
1 1 1 1 1 1 1 1 1 
1 1 1 1 1 1 1 1 1 
1 1 1 1 1 1 1 1 1 
1 1 1 1 1 1 1 1 1 
1 1 1 1 1 1 1 1 1 
1 1 1 1 1 1 1 1 1 
1 1 1 1 1 1 1 1 1 
1 1 1 1 1 1 1 1 1 
1 1 1 1 1 1 1 1 1 
1 1 1 1 1 1 1 1 1 
1 1 1 1 1 1 1 1 1 
1 1 1 1 1 1 1 1 1 
1 1 1 1 1 1 1 1 1 
1 1 1 1 1 1 1 1 1 
1 1 1 1 1 1 1 1 1 
1 1 1 1 1 1 1 1 1 
1 1 1 1 1 1 1 1 1 
1 1 1 1 1 1 1 1 1 
1 1 1 1 1 1 1 1 1 
1 1 1 1 1 1 1 1 1 
1 1 1 1 1 1 1 1 1 
1 1 1 1 1 1 1 1 1 
1 1 1 1 1 1 1 1 1 
1 1 1 1 1 1 1 1 1 
1 1 1 1 1 1 1 1 1 
1 1 1 1 1 1 1 1 1 
1 1 1 1 1 1 1 1 1 
1 1 1 1 1 1 1 1 1 
1 1 1 1 1 1 1 1 1 
1 1 1 1 1 1 1 1 1 
1 1 1 1 1 1 1 1 1 
1 1 1 1 1 1 1 1 1 
1 1 1 1 1 1 1 1 1 
1 1 1 1 1 1 1 1 1 
1 1 1 1 1 1 1 1 1 
1 1 1 1 1 1 1 1 1 
1 1 1 1 1 1 1 1 1 
1 1 1 1 1 1 1 1 1 
1 1 1 1 1 1 1 1 1 
1 1 1 1 1 1 1 1 1 
1 1 1 1 1 1 1 1 1 
1 1 1 1 1 1 1 1 1 
1 1 1 1 1 1 1 1 1 
1 1 1 1 1 1 1 1 1 
1 1 1 1 1 1 1 1 1 
1 1 1 1 1 1 1 1 1 
1 1 1 1 1 1 1 1 1 
1 1 1 1 1 1 1 1 1 
1 1 1 1 1 1 1 1 1 
1 1 1 1 1 1 1 1 1 
1 1 1 1 1 1 1 1 1 
1 1 1 1 1 1 1 1 1 
1 1 1 1 1 1 1 1 1 
1 1 1 1 1 1 1 1 1 
1 1 1 1 1 1 1 1 1 
1 1 1 1 1 1 1 1 1 
1 1 1 1 1 1 1 1 1 
1 1 1 1 1 1 1 1 1 
1 1 1 1 1 1 1 1 1 
1 1 1 1 1 1 1 1 1 
1 1 1 1 1 1 1 1 1 
1 1 1 1 1 1 1 1 1 
1 1 1 1 1 1 1 1 1 
1 1 1 1 1 1 1 1 1 
1 1 1 1 1 1 1 1 1 
1 1 1 1 1 1 1 1 1 
1 1 1 1 1 1 1 1 1 
1 1 1 1 1 1 1 1 1 
1 1 1 1 1 1 1 1 1 
1 1 1 1 1 1 1 1 1 
1 1 1 1 1 1 1 1 1 
1 1 1 1 1 1 1 1 1 
1 1 1 1 1 1 1 1 1 
1 1 1 1 1 1 1 1 1 
1 1 1 1 1 1 1 1 1 
1 1 1 1 1 1 1 1 1 
1 1 1 1 1 1 1 1 1 
1 1 1 1 1 1 1 1 1 
1 1 1 1 1 1 1 1 1 
1 1 1 1 1 1 1 1 1 
1 1 1 1 1 1 1 1 1 
1 1 1 1 1 1 1 1 1 
1 1 1 1 1 1 1 1 1 
1 1 1 1 1 1 1 1 1 
1 1 1 1 1 1 1 1 1 
1 1 1 1 1 1 1 1 1 
1 1 1 1 1 1 1 1 1 
1 1 1 1 1 1 1 1 1 
1 1 1 1 1 1 1 1 1 
1 1 1 1 1 1 1 1 1 
1 1 1 1 1 1 1 1 1 
1 1 1 1 1 1 1 1 1 
1 1 1 1 1 1 1 1 1 
1 1 1 1 1 1 1 1 1 
1 1 1 1 1 1 1 1 1 
1 1 1 1 1 1 1 1 1 
1 1 1 1 1 1 1 1 1 
1 1 1 1 1 1 1 1 1 
1 1 1 1 1 1 1 1 1 
1 1 1 1 1 1 1 1 1 
1 1 1 1 1 1 1 1 1 
1 1 1 1 1 1 1 1 1 
1 1 1 1 1 1 1 1 1 
1 1 1 1 1 1 1 1 1 
1 1 1 1 1 1 1 1 1 
1 1 1 1 1 1 1 1 1 
1 1 1 1 1 1 1 1 1 
1 1 1 1 1 1 1 1 1 
1 1 1 1 1 1 1 1 1 
1 1 1 1 1 1 1 1 1 
1 1 1 1 1 1 1 1 1 
1 1 1 1 1 1 1 1 1 
1 1 1 1 1 1 1 1 1 
1 1 1 1 1 1 1 1 1 
1 1 1 1 1 1 1 1 1 
1 1 1 1 1 1 1 1 1 
1 1 1 1 1 1 1 1 1 
1 1 1 1 1 1 1 1 1 
1 1 1 1 1 1 1 1 1 
1 1 1 1 1 1 1 1 1 
1 1 1 1 1 1 1 1 1 
1 1 1 1 1 1 1 1 1 
1 1 1 1 1 1 1 1 1 
1 1 1 1 1 1 1 1 1 
1 1 1 1 1 1 1 1 1 
1 1 1 1 1 1 1 1 1 
1 1 1 1 1 1 1 1 1 
1 1 1 1 1 1 1 1 1 
1 1 1 1 1 1 1 1 1 
1 1 1 1 1 1 1 1 1 
1 1 1 1 1 1 1 1 1 
1 1 1 1 1 1 1 1 1 
1 1 1 1 1 1 1 1 1 
1 1 1 1 1 1 1 1 1 
1 1 1 1 1 1 1 1 1 
1 1 1 1 1 1 1 1 1 
1 1 1 1 1 1 1 1 1 
1 1 1 1 1 1 1 1 1 
1 1 1 1 1 1 1 1 1 
1 1 1 1 1 1 1 1 1 
1 1 1 1 1 1 1 1 1 
1 1 1 1 1 1 1 1 1 
1 1 1 1 1 1 1 1 1 
1 1 1 1 1 1 1 1 1 
1 1 1 1 1 1 1 1 1 
1 1 1 1 1 1 1 1 1 
1 1 1 1 1 1 1 1 1 
1 1 1 1 1 1 1 1 1 
1 1 1 1 1 1 1 1 1 
1 1 1 1 1 1 1 1 1 
1 1 1 1 1 1 1 1 1 
1 1 1 1 1 1 1 1 1 
1 1 1 1 1 1 1 1 1 
1 1 1 1 1 1 1 1 1 
1 1 1 1 1 1 1 1 1 
1 1 1 1 1 1 1 1 1 
1 1 1 1 1 1 1 1 1 
1 1 1 1 1 1 1 1 1 
1 1 1 1 1 1 1 1 1 
1 1 1 1 1 1 1 1 1 
1 1 1 1 1 1 1 1 1 
1 1 1 1 1 1 1 1 1 
1 1 1 1 1 1 1 1 1 
1 1 1 1 1 1 1 1 1 
1 1 1 1 1 1 1 1 1 
1 1 1 1 1 1 1 1 1 
1 1 1 1 1 1 1 1 1 
1 1 1 1 1 1 1 1 1 
1 1 1 1 1 1 1 1 1 
1 1 1 1 1 1 1 1 1 
1 1 1 1 1 1 1 1 1 
1 1 1 1 1 1 1 1 1 
1 1 1 1 1 1 1 1 1 
1 1 1 1 1 1 1 1 1 
1 1 1 1 1 1 1 1 1 
1 1 1 1 1 1 1 1 1 
1 1 1 1 1 1 1 1 1 
1 1 1 1 1 1 1 1 1 
1 1 1 1 1 1 1 1 1 
1 1 1 1 1 1 1 1 1 
1 1 1 1 1 1 1 1 1 
1 1 1 1 1 1 1 1 1 
1 1 1 1 1 1 1 1 1 
1 1 1 1 1 1 1 1 1 
1 1 1 1 1 1 1 1 1 
1 1 1 1 1 1 1 1 1 
1 1 1 1 1 1 1 1 1 
1 1 1 1 1 1 1 1 1 
1 1 1 1 1 1 1 1 1 
1 1 1 1 1 1 1 1 1 
1 1 1 1 1 1 1 1 1 
1 1 1 1 1 1 1 1 1 
1 1 1 1 1 1 1 1 1 
1 1 1 1 1 1 1 1 1 
1 1 1 1 1 1 1 1 1 
1 1 1 1 1 1 1 1 1 
1 1 1 1 1 1 1 1 1 
1 1 1 1 1 1 1 1 1 
1 1 1 1 1 1 1 1 1 
1 1 1 1 1 1 1 1 1 
1 1 1 1 1 1 1 1 1 
1 1 1 1 1 1 1 1 1 
1 1 1 1 1 1 1 1 1 
1 1 1 1 1 1 1 1 1 
1 1 1 1 1 1 1 1 1 
1 1 1 1 1 1 1 1 1 
1 1 1 1 1 1 1 1 1 
1 1 1 1 1 1 1 1 1 
1 1 1 1 1 1 1 1 1 
1 1 1 1 1 1 1 1 1 
1 1 1 1 1 1 1 1 1 
1 1 1 1 1 1 1 1 1 
1 1 1 1 1 1 1 1 1 
1 1 1 1 1 1 1 1 1 
1 1 1 1 1 1 1 1 1 
1 1 1 1 1 1 1 1 1 
1 1 1 1 1 1 1 1 1 
1 1 1 1 1 1 1 1 1 
1 1 1 1 1 1 1 1 1 
1 1 1 1 1 1 1 1 1 
1 1 1 1 1 1 1 1 1 
1 1 1 1 1 1 1 1 1 
1 1 1 1 1 1 1 1 1 
1 1 1 1 1 1 1 1 1 
1 1 1 1 1 1 1 1 1 
1 1 1 1 1 1 1 1 1 
1 1 1 1 1 1 1 1 1 
1 1 1 1 1 1 1 1 1 
1 1 1 1 1 1 1 1 1 
1 1 1 1 1 1 1 1 1 
1 1 1 1 1 1 1 1 1 
1 1 1 1 1 1 1 1 1 
1 1 1 1 1 1 1 1 1 
1 1 1 1 1 1 1 1 1 
1 1 1 1 1 1 1 1 1 
1 1 1 1 1 1 1 1 1 
1 1 1 1 1 1 1 1 1 
1 1 1 1 1 1 1 1 1 
1 1 1 1 1 1 1 1 1 
1 1 1 1 1 1 1 1 1 
1 1 1 1 1 1 1 1 1 
1 1 1 1 1 1 1 1 1 
1 1 1 1 1 1 1 1 1 
1 1 1 1 1 1 1 1 1 
1 1 1 1 1 1 1 1 1 
1 1 1 1 1 1 1 1 1 
1 1 1 1 1 1 1 1 1 
1 1 1 1 1 1 1 1 1 
1 1 1 1 1 1 1 1 1 
1 1 1 1 1 1 1 1 1 
1 1 1 1 1 1 1 1 1 
1 1 1 1 1 1 1 1 1 
1 1 1 1 1 1 1 1 1 
1 1 1 1 1 1 1 1 1 
1 1 1 1 1 1 1 1 1 
1 1 1 1 1 1 1 1 1 
1 1 1 1 1 1 1 1 1 
1 1 1 1 1 1 1 1 1 
1 1 1 1 1 1 1 1 1 
1 1 1 1 1 1 1 1 1 
1 1 1 1 1 1 1 1 1 
1 1 1 1 1 1 1 1 1 
1 1 1 1 1 1 1 1 1 
1 1 1 1 1 1 1 1 1 
1 1 1 1 1 1 1 1 1 
1 1 1 1 1 1 1 1 1 
1 1 1 1 1 1 1 1 1 
1 1 1 1 1 1 1 1 1 
1 1 1 1 1 1 1 1 1 
1 1 1 1 1 1 1 1 1 
1 1 1 1 1 1 1 1 1 
1 1 1 1 1 1 1 1 1 
1 1 1 1 1 1 1 1 1 
1 1 1 1 1 1 1 1 1 
1 1 1 1 1 1 1 1 1 
1 1 1 1 1 1 1 1 1 
1 1 1 1 1 1 1 1 1 
1 1 1 1 1 1 1 1 1 
1 1 1 1 1 1 1 1 1 
1 1 1 1 1 1 1 1 1 
1 1 1 1 1 1 1 1 1 
1 1 1 1 1 1 1 1 1 
1 1 1 1 1 1 1 1 1 
1 1 1 1 1 1 1 1 1 
1 1 1 1 1 1 1 1 1 
1 1 1 1 1 1 1 1 1 
1 1 1 1 1 1 1 1 1 
1 1 1 1 1 1 1 1 1 
1 1 1 1 1 1 1 1 1 
1 1 1 1 1 1 1 1 1 
1 1 1 1 1 1 1 1 1 
1 1 1 1 1 1 1 1 1 
1 1 1 1 1 1 1 1 1 
1 1 1 1 1 1 1 1 1 
1 1 1 1 1 1 1 1 1 
1 1 1 1 1 1 1 1 1 
1 1 1 1 1 1 1 1 1 
1 1 1 1 1 1 1 1 1 
1 1 1 1 1 1 1 1 1 
1 1 1 1 1 1 1 1 1 
1 1 1 1 1 1 1 1 1 
1 1 1 1 1 1 1 1 1 
1 1 1 1 1 1 1 1 1 
1 1 1 1 1 1 1 1 1 
1 1 1 1 1 1 1 1 1 

NORMALS Normals float
0.186709 0.133397 -0.973316 -0.642369 -0.107975 -0.758751 -0.0977008 0.173039 -0.980057 
0.9443 0.211506 -0.252116 0.250121 -0.0676086 -0.965851 0.923996 0.113027 -0.365317 
0.650077 0.322238 -0.688159 0.828448 -0.226419 -0.512258 -0.0685162 -0.627368 -0.775703 
-0.28853 -0.378946 -0.87929 0.569602 -0.62902 -0.529044 0.664531 -0.0415259 -0.746106 
-0.349274 -0.252631 -0.902322 0.99084 0.11501 0.0707664 0.144418 0.248413 -0.957828 
-0.451186 0.0226878 -0.892142 -0.531843 -0.00852532 -0.8468 0.877383 0.373876 -0.300693 
0.167907 0.34746 -0.922539 0.681323 0.555607 -0.47655 -0.149518 -0.706531 -0.691707 
0.9625 -0.230339 -0.143307 -0.839508 -0.216964 -0.498149 -0.185065 0.383935 -0.904624 
0.127921 0.459612 -0.878859 -0.0596834 0.182478 -0.981397 -0.585008 0.137529 -0.799281 
0.633912 0.496319 -0.593147 0.345499 0.67733 -0.649504 -0.728632 -0.416295 -0.54387 
0.942059 0.272883 0.195089 -0.606554 0.0347266 -0.794283 -0.800761 -0.160566 -0.577062 
-0.164958 0.233184 -0.958339 0.211149 0.51358 -0.831656 0.872875 0.475051 -0.111425 
0.699968 0.531559 -0.476958 -0.0411342 0.587456 -0.80821 0.701274 0.62207 -0.348202 
0.654259 0.715782 -0.244132 0.706376 -0.430862 -0.561597 -0.166892 -0.588037 -0.791429 
0.983213 -0.126522 -0.131473 0.479235 -0.580981 -0.657872 0.99673 -0.0655233 -0.0472867 
0.885266 0.461018 0.0613716 -0.748635 0.0707459 -0.659197 -0.68341 0.146831 -0.715117 
-0.0665092 0.699143 -0.711882 0.727267 0.685803 0.0275305 0.768646 -0.315707 -0.556339 
0.560995 -0.748449 -0.353708 -0.476037 -0.55685 -0.680666 0.935553 0.0241571 0.35236 
0.652317 -0.335376 -0.679709 -0.716736 -0.423051 -0.554362 -0.857689 0.0177924 -0.513861 
0.45883 0.838828 -0.29299 0.774558 0.601374 0.195985 -0.743402 -0.577523 -0.337373 
-0.524851 -0.814939 -0.245775 -0.770888 -0.529064 -0.354715 -0.842546 0.0612901 -0.535127 
-0.7811 0.0916999 -0.617635 -0.729012 0.0592064 -0.681935 -0.815437 -0.578243 -0.0263882 
0.16459 0.782421 -0.600607 0.5538 0.376203 0.742817 0.56142 0.804956 0.191974 
-0.615752 -0.787873 -0.0103001 -0.813688 -0.394494 -0.42695 0.697635 -0.195288 0.689324 
0.488973 0.826268 -0.27962 -0.517888 0.295389 -0.802831 -0.834817 -0.510408 -0.206312 
-0.587345 -0.718793 0.371971 -0.0859806 -0.985251 -0.147946 0.0900464 -0.766932 0.63538 
0.764397 -0.64217 -0.0575794 0.778691 -0.524674 0.344031 -0.494588 -0.78381 -0.375533 
-0.837174 -0.230306 -0.496083 0.840182 0.431945 0.327898 -0.445022 -0.379019 -0.811357 
0.897951 0.336019 -0.28421 0.747166 0.661671 0.0627321 0.939311 0.25427 0.230308 
-0.658388 -0.105059 -0.745311 0.771208 0.604032 0.200958 -0.5839 -0.0800609 -0.807868 
-0.210738 0.22608 -0.95104 -0.397648 0.0795845 -0.91408 -0.356037 -0.68748 0.632936 
0.861173 -0.0411718 0.506641 -0.163452 -0.718865 0.67566 0.348416 -0.459601 0.816929 
-0.175671 -0.836342 0.519299 -0.698577 -0.695068 0.169916 0.5287 -0.463045 0.711383 
0.511631 -0.521512 0.682832 0.812515 0.175323 0.555951 -0.846659 -0.400219 -0.350705 
-0.902816 0.0243917 -0.429334 -0.883954 -0.175155 -0.433527 -0.842542 -0.178234 -0.508287 
0.816116 0.460231 0.349489 -0.870866 -0.226734 -0.4361 -0.653706 -0.157809 -0.740111 
-0.998825 -0.0320102 0.0363815 -0.667039 -0.198285 -0.718152 -0.521866 -0.0613897 -0.850816 
-0.366588 -0.786097 0.49766 -0.0305807 -0.74444 0.666989 0.51597 -0.393319 0.76097 
0.877406 0.0198665 0.479337 -0.825556 0.493562 0.273593 -0.949303 -0.17898 -0.258437 
-0.718762 0.0496384 0.693482 -0.807429 -0.26682 -0.52618 -0.068615 0.442928 0.893928 
-0.810722 -0.116195 -0.573784 -0.857037 -0.11743 -0.501695 0.416351 -0.404943 0.814048 
-0.977784 0.174571 -0.116036 -0.900766 -0.0451036 -0.431955 -0.712326 -0.415112 -0.565927 
-0.848197 -0.0255674 -0.529064 -0.564415 0.798172 -0.210611 0.203377 0.517391 0.831231 
-0.439731 0.884847 0.153892 0.418609 0.785225 0.456277 0.450164 0.558132 0.697024 
0.37094 0.731812 0.571712 -0.847899 0.0422572 -0.528472 0.396597 0.372207 0.83915 
-0.542334 0.424349 -0.725122 -0.74108 0.162602 -0.65143 -0.463944 0.499915 -0.731328 
-0.0629575 0.741874 -0.667577 -0.77135 0.105906 -0.627538 -0.763213 0.11884 -0.635125 
0.37362 0.824213 -0.425537 0.792719 -0.0756948 0.604869 -0.504526 -0.79291 0.341684 
-0.321954 -0.823052 0.4679 0.356927 -0.437465 0.825365 -0.745142 -0.661403 -0.0854907 
0.763695 0.0896844 0.639317 -0.712554 -0.697292 -0.0777811 0.683171 0.0290878 0.729679 
0.801548 0.270463 0.533264 -0.911067 -0.214171 -0.352261 -0.982194 0.019508 -0.186856 
-0.805789 0.520238 0.282942 -0.375663 0.793405 0.478943 0.508054 0.604901 0.613169 
-0.831172 -0.0363216 -0.554828 -0.67124 0.264666 -0.692379 0.513145 -0.457329 0.726314 
0.308283 -0.62258 0.719275 -0.344355 0.590702 -0.729719 -0.769641 0.0776645 -0.633736 
-0.166067 0.698291 -0.696284 0.575307 -0.391448 0.718185 0.200792 0.816412 -0.541437 
0.585088 -0.372267 0.720479 0.0626464 0.789497 -0.610549 0.874281 0.325949 0.35971 
0.688919 0.720865 -0.0757903 -0.126823 -0.72257 0.679565 -0.64914 -0.760591 0.0108895 
-0.475753 -0.821095 0.315376 -0.176344 -0.810562 0.558474 0.0842438 -0.592864 0.800884 
0.593602 -0.183092 0.783654 0.798527 0.150402 0.582867 0.764014 0.267984 0.586914 
0.377653 0.661667 0.647747 -0.869454 -0.298271 -0.393807 -0.834897 -0.0704182 -0.545883 
-0.849357 -0.414734 -0.326478 -0.572376 0.360067 -0.736708 -0.334896 -0.846093 0.414694 
-0.640624 0.245731 -0.727473 0.811915 0.0278359 0.583112 -0.0124538 0.765561 -0.643243 
0.24356 -0.639427 0.729254 -0.785711 -0.5916 -0.18074 0.169072 -0.678125 0.715235 
0.149013 -0.608591 0.779367 0.557435 -0.241839 0.794217 0.761572 -0.0174951 0.647844 
-0.867222 -0.308364 -0.390946 -0.845519 -0.441204 -0.300727 -0.813292 -0.424429 -0.398015 
-0.880086 -0.356525 -0.313589 -0.847153 -0.427339 -0.315774 -0.821743 -0.356683 -0.444427 
0.434575 0.783697 0.443805 0.616676 0.610687 0.496761 -0.754041 -0.454996 -0.473711 
-0.482682 -0.830253 0.278744 -0.845515 -0.372052 -0.382989 0.299088 -0.625847 0.720321 
0.0782292 -0.750167 0.656605 -0.80745 -0.513683 -0.290095 -0.551341 0.33548 -0.763856 
-0.68935 0.0991404 -0.717613 -0.387305 0.4898 -0.781083 0.448249 0.842843 -0.297805 
0.145293 0.810675 -0.567182 -0.000704395 0.77113 -0.636677 0.0938301 0.799563 -0.593207 
-0.592535 0.222162 -0.774304 -0.183014 0.63958 -0.746622 -0.139637 0.703164 -0.697181 
-0.27119 -0.790206 0.549573 -0.383722 -0.847493 0.366761 -0.710897 -0.698852 -0.0789374 