# vtk DataFile Version 4.2
vtk output
ASCII
DATASET POLYDATA
POINTS 827 float
122 162.009 205.017 122 162.009 205.017 122 162.009 205.017 
122 162.009 205.017 122 162.009 205.017 121.781 159.942 209.783 
121.76 159.924 209.828 121.793 159.945 209.837 121.789 159.892 209.805 
121.822 159.913 209.814 122 162.009 205.017 121.758 159.793 209.905 
121.73 159.934 209.992 121.872 159.776 209.875 121.919 159.898 209.948 
121.407 160.812 210.316 121.403 160.768 210.348 121.411 160.787 210.361 
121.428 160.766 210.328 121.436 160.785 210.34 121.294 158.365 210.538 
123.687 157.741 210.152 124.263 157.656 210.335 121.525 158.678 210.317 
122.502 157.991 210.104 122.542 158.478 210.053 123.893 158.322 210.195 
124.357 157.849 210.379 124.233 158.208 210.358 121.864 159.43 210.011 
122.313 159.122 210.012 122.896 158.927 210.043 123.253 159.049 210.115 
123.585 158.978 210.221 121.501 160.021 210.309 122.129 159.601 209.976 
124.109 158.712 210.448 121.85 160.126 210.218 122.294 159.832 210.154 
121.428 160.634 210.386 121.398 160.668 210.489 121.521 160.66 210.384 
121.468 160.732 210.446 124.281 157.241 210.433 124.659 157.061 210.629 
120.893 157.602 211.013 124.86 157.468 210.818 121.203 159.065 210.561 
123.303 159.285 210.225 124.604 158.279 210.898 124.105 158.86 210.622 
121.558 160.4 210.359 121.335 160.342 210.572 121.775 160.443 210.446 
121.484 160.658 210.678 125.024 156.207 211.062 124.36 158.66 210.919 
123.115 159.678 210.561 121.913 160.488 210.776 128.329 151.472 213.14 
128.461 151.276 213.267 128.282 151.591 213.184 123.072 155.41 211.025 
122.734 154.968 211.286 126.588 154.968 212.478 125.25 157.442 211.61 
124.993 157.935 211.673 122.276 160.365 211.283 123.146 159.798 211.289 
121.202 160.244 211.83 121.591 160.559 211.382 135.453 119.326 214.245 
137.983 119.615 214.198 137.936 119.496 214.277 137.83 119.534 214.199 
138.105 119.641 214.258 138.063 119.555 214.266 138.128 119.599 214.324 
137.554 119.648 214.125 138.064 119.771 214.236 138.158 119.752 214.364 
137.57 119.825 214.105 137.789 119.864 214.131 137.942 120.001 214.218 
138.111 119.943 214.332 130.303 146.964 214.272 130.241 146.966 214.253 
130.254 147.016 214.282 130.287 146.885 214.294 128.96 149.529 213.498 
130.3 146.934 214.323 129.155 149.497 213.682 127.917 150.591 213.015 
127.774 151.789 212.918 128.247 151.959 213.373 127.024 154.476 212.879 
125.684 156.935 212.545 120.491 158.718 212.359 120.941 159.855 211.694 
131.484 119.262 215.064 133.278 119.508 214.647 134.466 119.276 214.634 
137.717 119.449 214.294 138.044 119.516 214.369 138.137 119.619 214.451 
133.589 119.916 214.376 137.022 119.593 214.234 138.189 119.777 214.536 
137.508 120.565 214.188 137.219 122.089 214.479 130.114 146.835 214.258 
130.088 147.066 214.238 130.323 146.657 214.441 130.183 147.083 214.397 
129.024 150.846 214.123 124.941 157.971 212.688 121.219 159.767 212.737 
121.43 160.273 212.23 121.585 160.208 212.438 121.788 160.444 211.909 
131.427 118.942 215.603 136.046 119.274 214.636 137.305 119.343 214.525 
137.844 119.427 214.657 134.046 120.365 214.176 136.219 119.705 214.251 
138.196 119.902 214.747 138.231 120.236 214.841 138.2 121.111 215.059 
136.147 123.049 214.362 136.433 124.578 214.841 136.918 124.292 215.156 
132.704 128.838 213.865 135.873 128.403 215.101 136.203 128.961 215.54 
135.286 134.263 215.365 133.671 138.36 215.15 118.365 145.02 215.695 
128.4 143.709 213.983 125.882 145.114 213.82 131.67 143.46 215.174 
130.099 144.85 214.353 122.483 146.542 213.981 130.064 145.988 214.339 
119.11 148.022 215.127 129.503 147.367 214.072 122.107 148.392 213.706 
130.119 147.655 214.723 121.131 149.415 213.797 119.183 151.315 214.748 
120.174 157.619 214.165 121.411 159.618 213.174 121.724 159.909 212.969 
120.244 117.789 216.43 122.539 118.257 216.234 122.044 117.847 216.564 
126.246 118.594 216.303 128.52 118.665 216.371 131.136 118.806 216.037 
137.357 119.303 214.992 138.086 119.75 214.925 118.344 119.901 215.74 
122.846 120.004 215.249 138.232 120.422 215.173 137.998 122.134 215.48 
137.249 123.959 215.442 136.724 126.568 215.8 136.432 129.478 216.028 
135.571 135.485 216.014 134.323 139.156 216.146 132.623 142.504 215.82 
131.589 144.73 215.615 118.23 147.865 216.005 128.842 151.52 214.713 
119.175 154.239 215.497 124.642 157.935 213.582 122.188 158.963 214.153 
123.693 158.656 213.694 121.555 159.327 213.614 114.922 116.686 217.646 
117.54 116.564 217.048 118.702 116.654 217.072 118.276 116.442 217.218 
118.666 116.458 217.34 114.785 117.259 217.429 117.097 117.278 216.658 
119.158 117.371 216.577 114.927 117.828 217.223 128.331 118.489 216.845 
131.69 118.758 216.366 137.162 119.293 215.331 136.462 119.123 215.235 
136.698 127.98 216.416 117.908 131.752 216.284 136.557 129.959 216.553 
136.5 130.931 216.602 115.981 133.875 217.683 116.838 133.469 216.989 
116.257 134.857 217.49 116.66 136.358 217.247 117.904 137.301 216.434 
136.005 135.337 216.898 116.554 138.54 217.485 134.416 139.441 216.66 
117.048 142.263 217.13 132.392 143.62 216.435 131.684 145.019 216.125 
117.545 147.039 217.062 118.011 148.512 216.473 118.495 150.892 216.122 
128.479 151.952 215.364 119.839 156.339 215.549 120.134 156.976 215.3 
115.368 116.328 217.982 117.604 116.232 217.54 114.439 116.952 217.897 
119.83 116.716 217.695 114.256 117.31 217.902 122.345 117.495 217.264 
125.717 118.142 217.248 131.463 118.755 216.833 136.746 119.185 215.43 
114.19 119.398 217.799 115.105 119.713 216.954 114.268 121.601 217.895 
137.971 120.865 216.128 115.561 130.998 218 136.538 131.372 217.143 
115.726 133.73 218.013 115.871 136.396 218.156 116.149 138.491 217.971 
116.943 145.45 218.024 131.293 145.938 216.79 117.538 147.56 217.584 
118 149.146 216.91 128.847 150.141 217.034 125.772 154.801 216.155 
123.157 156.001 216.844 119.867 155.96 216.328 120.21 156.624 215.955 
122.114 157.035 216.233 123.132 157.569 215.414 114.471 116.725 218.207 
115.749 116.257 218.189 117.465 116.181 217.856 119.17 116.502 217.842 
114.076 118.055 217.94 128.136 118.432 217.646 136.515 119.191 215.683 
136.264 119.314 216.048 137.798 120.156 215.951 113.894 121.486 218.62 
114.045 122.239 218.33 114.264 124.865 218.802 114.861 129.146 218.733 
136.551 128.832 217.571 136.523 130.825 217.637 115.624 134.964 218.353 
136.127 135.09 217.71 115.86 137.845 218.387 115.895 138.99 218.562 
134.948 138.35 217.442 134.026 140.363 217.351 116.815 144.499 217.983 
131.916 144.583 217.092 130.595 147.008 217.237 117.834 148.569 217.985 
118.228 150.163 217.368 128.432 150.494 217.276 124.568 154.303 217.469 
119.773 155.303 217.118 120.479 156.562 216.376 120.594 156.308 216.737 
122.118 156.283 216.902 114.357 116.688 218.551 114.842 116.558 218.653 
115.177 116.466 218.584 116.796 116.249 218.301 117.963 116.264 218.072 
118.494 116.432 218.285 114.319 116.757 218.434 114.229 117.059 218.377 
120.445 117.013 218.345 114.046 117.878 218.11 123.602 117.886 218.353 
127.13 118.409 217.97 137.086 119.761 216.251 114.052 123.441 218.941 
115.017 130.649 218.859 136.28 133.166 218.184 136.193 134.001 218.142 
135.245 137.264 218.087 134.41 139.204 218.003 116.721 144.525 218.444 
131.626 144.687 217.707 128.827 148.002 218.592 118.343 150.252 217.979 
126.32 150.308 218.938 119.904 155.27 217.353 120.219 155.688 217.191 
120.353 155.476 217.436 121.173 155.152 217.791 121.59 156.139 217.042 
114.517 116.789 218.753 114.384 116.757 218.655 114.765 116.736 218.799 
116.165 116.51 218.723 114.289 116.881 218.574 119.573 117.016 218.73 
121.157 117.393 218.63 121.955 117.539 218.519 122.615 117.886 218.755 
127.014 118.602 218.385 134.319 119.955 217.751 136.869 120.195 216.77 
113.972 121.277 219.219 134.663 122.607 218.903 113.974 122.88 219.213 
114.285 126.188 219.421 114.337 126.4 219.622 114.874 130.145 219.147 
114.842 129.992 219.603 114.952 130.868 219.783 114.968 131.315 219.483 
136.045 132.251 218.87 115.192 133.31 219.464 135.534 132.634 219.433 
135.281 133.847 219.435 135.898 134.441 218.565 135.073 135.446 219.196 
133.675 137.776 219.603 133.233 139.444 219.299 134.192 138.987 218.513 
129.881 143.221 220.132 116.677 144.085 219.447 117.338 146.313 219.095 
118.272 149.507 218.529 119.726 152.423 218.903 119.99 155.062 217.562 
114.409 116.997 218.752 118.02 116.654 218.714 114.542 117.492 218.938 
118.165 117.076 219.059 114.5 118.178 219.065 119.984 117.535 219.088 
114.857 118.703 219.402 115.404 118.567 219.587 116.734 118.366 219.77 
117.487 118.295 219.776 123.021 118.394 219.13 127.842 119.402 219.035 
117.441 119.752 220.263 130.595 120.019 218.969 114.049 122.407 219.75 
114.501 125.519 220.108 114.62 127.253 220.103 135.841 129.896 219.111 
115.139 131.318 220.265 115.147 132.427 220.05 134.544 134.479 219.868 
116.412 142.706 219.88 117.092 144.723 220.049 117.489 145.401 220.182 
118.868 150.27 219.059 119.397 151.501 219.099 121.401 151.444 219.743 
119.745 152.04 219.15 114.311 122.821 220.039 130.873 130.874 221.199 
134.082 133.999 220.18 129.273 139.359 221.336 116.726 142.7 220.765 
118.911 144.885 221.498 120.265 144.647 221.86 118.264 145.446 220.935 
119.835 148.949 220.292 122.418 149.596 220.37 119.98 151.849 219.345 
114.065 122.238 219.94 115.086 125.7 220.731 116.69 125.738 221.466 
117.423 129.351 222.013 115.81 130.829 221.213 116.856 130.577 221.908 
120.433 129.557 222.415 116.255 131.462 221.564 115.833 132.929 221.132 
116.842 142.258 221.08 117.198 143.801 220.899 117.606 144.579 220.938 
117.588 132.298 222.308 125.084 134.122 222.579 116.814 136.074 221.919 
117.925 137.559 222.399 120 137.924 222.903 117.372 139.838 221.88 
117.921 140.434 222.127 117.462 141.602 221.735 117.682 144.278 221.161 
115.203 127.846 236.661 116.027 127.731 236.151 117.346 128.489 235.624 
115.73 132.294 236.694 117.133 132.252 235.697 119.432 135.053 234.967 
116.123 136.211 236.768 121.9 136.799 234.7 116.642 139.802 236.721 
[...]
POINT_DATA 827
SCALARS scalars float
LOOKUP_TABLE default
1 1 1 1 1 1 1 1 1 
1 1 1 1 1 1 1 1 1 
1 1 1 1 1 1 1 1 1 
1 1 1 1 1 1 1 1 1 
1 1 1 1 1 1 1 1 1 
1 1 1 1 1 1 1 1 1 
1 1 1 1 1 1 1 1 1 
1 1 1 1 1 1 1 1 1 
1 1 1 1 1 1 1 1 1 
1 1 1 1 1 1 1 1 1 
1 1 1 1 1 1 1 1 1 
1 1 1 1 1 1 1 1 1 
1 1 1 1 1 1 1 1 1 
1 1 1 1 1 1 1 1 1 
1 1 1 1 1 1 1 1 1 
1 1 1 1 1 1 1 1 1 
1 1 1 1 1 1 1 1 1 
1 1 1 1 1 1 1 1 1 
1 1 1 1 1 1 1 1 1 
1 1 1 1 1 1 1 1 1 
1 1 1 1 1 1 1 1 1 
1 1 1 1 1 1 1 1 1 
1 1 1 1 1 1 1 1 1 
1 1 1 1 1 1 1 1 1 
1 1 1 1 1 1 1 1 1 
1 1 1 1 1 1 1 1 1 
1 1 1 1 1 1 1 1 1 
1 1 1 1 1 1 1 1 1 
1 1 1 1 1 1 1 1 1 
1 1 1 1 1 1 1 1 1 
1 1 1 1 1 1 1 1 1 
1 1 1 1 1 1 1 1 1 
1 1 1 1 1 1 1 1 1 
1 1 1 1 1 1 1 1 1 
1 1 1 1 1 1 1 1 1 
1 1 1 1 1 1 1 1 1 
1 1 1 1 1 1 1 1 1 
1 1 1 1 1 1 1 1 1 
1 1 1 1 1 1 1 1 1 
1 1 1 1 1 1 1 1 1 
1 1 1 1 1 1 1 1 1 
1 1 1 1 1 1 1 1 1 
1 1 1 1 1 1 1 1 1 
1 1 1 1 1 1 1 1 1 
1 1 1 1 1 1 1 1 1 
1 1 1 1 1 1 1 1 1 
1 1 1 1 1 1 1 1 1 
1 1 1 1 1 1 1 1 1 
1 1 1 1 1 1 1 1 1 
1 1 1 1 1 1 1 1 1 
1 1 1 1 1 1 1 1 1 
1 1 1 1 1 1 1 1 1 
1 1 1 1 1 1 1 1 1 
1 1 1 1 1 1 1 1 1 
1 1 1 1 1 1 1 1 1 
1 1 1 1 1 1 1 1 1 
1 1 1 1 1 1 1 1 1 
1 1 1 1 1 1 1 1 1 
1 1 1 1 1 1 1 1 1 
1 1 1 1 1 1 1 1 1 
1 1 1 1 1 1 1 1 1 
1 1 1 1 1 1 1 1 1 
1 1 1 1 1 1 1 1 1 
1 1 1 1 1 1 1 1 1 
1 1 1 1 1 1 1 1 1 
1 1 1 1 1 1 1 1 1 
1 1 1 1 1 1 1 1 1 
1 1 1 1 1 1 1 1 1 
1 1 1 1 1 1 1 1 1 
1 1 1 1 1 1 1 1 1 
1 1 1 1 1 1 1 1 1 
1 1 1 1 1 1 1 1 1 
1 1 1 1 1 1 1 1 1 
1 1 1 1 1 1 1 1 1 
1 1 1 1 1 1 1 1 1 
1 1 1 1 1 1 1 1 1 
1 1 1 1 1 1 1 1 1 
1 1 1 1 1 1 1 1 1 
1 1 1 1 1 1 1 1 1 
1 1 1 1 1 1 1 1 1 
1 1 1 1 1 1 1 1 1 
1 1 1 1 1 1 1 1 1 
1 1 1 1 1 1 1 1 1 
1 1 1 1 1 1 1 1 1 
1 1 1 1 1 1 1 1 1 
1 1 1 1 1 1 1 1 1 
1 1 1 1 1 1 1 1 1 
1 1 1 1 1 1 1 1 1 
1 1 1 1 1 1 1 1 1 
1 1 1 1 1 1 1 1 1 
1 1 1 1 1 1 1 1 1 
1 1 1 1 1 1 1 1 
NORMALS Normals float
0 0.17597 -0.984396 -0.970143 -0.242536 0 -0.992625 0.121226 0 
0.992625 0.121226 0 0 0.447214 -0.894427 -0.139134 0.521538 -0.841808 
-0.914572 0.237718 -0.327182 0.0968628 0.989741 -0.105027 -0.248947 -0.450757 -0.85723 
0.693622 0.231312 -0.68219 0 0.17597 0.984396 -0.673219 -0.295172 -0.677975 
-0.60646 0.656267 -0.44891 0.246225 -0.247393 -0.937107 0.50122 0.632262 -0.590782 
-0.353278 0.685439 -0.636685 -0.954341 -0.104095 -0.279997 -0.365613 0.796247 0.481993 
0.0678968 -0.218765 -0.973413 0.745176 0.647953 -0.1577 -0.697883 -0.128082 -0.704666 
0.148252 -0.18233 -0.971996 0.398696 -0.062729 -0.914935 -0.413813 -0.159508 -0.896279 
-0.182799 -0.222573 -0.957625 -0.00671541 -0.130681 -0.991402 0.368602 0.133007 -0.920023 
0.675684 0.0660978 -0.734222 0.513056 0.125148 -0.849183 -0.267431 -0.261868 -0.927311 
0.064845 0.010957 -0.997835 0.156149 0.0505059 -0.986441 0.227753 0.192145 -0.954573 
0.358174 0.177272 -0.916671 -0.637317 0.288871 -0.714409 0.357455 0.0579596 -0.93213 
0.700092 0.418824 -0.578323 0.0422861 0.667179 -0.743696 0.42545 0.502389 -0.752727 
-0.611832 -0.20536 -0.763865 -0.818722 0.56917 0.0757672 0.536326 0.272459 -0.798824 
0.348648 0.922232 0.167127 0.396301 -0.219116 -0.89159 0.534778 -0.0749016 -0.841666 
-0.661825 -0.174577 -0.729048 0.78238 0.168095 -0.599688 -0.780465 -0.0176439 -0.624951 
0.325411 0.460906 -0.825635 0.820285 0.505118 -0.268304 0.684833 0.667678 -0.291908 
-0.216789 0.176907 -0.960055 -0.849751 0.0538787 -0.524424 0.508064 0.642279 -0.573889 
0.0320991 0.985103 0.168942 0.391656 -0.294839 -0.871594 0.773762 0.610601 -0.168697 
0.553424 0.72827 -0.40416 0.547909 0.82488 -0.139171 0.62222 0.159194 -0.766485 
0.745432 0.174696 -0.643283 0.713875 0.425098 -0.556484 -0.0563449 -0.429167 -0.901466 
-0.0605662 -0.366472 -0.928456 0.779754 0.232711 -0.581231 0.894884 0.38616 -0.223746 
0.839353 0.516643 -0.169016 0.501529 0.864856 0.0221907 0.526076 0.84203 0.119289 
-0.739561 0.628717 0.240344 -0.0764363 0.980827 0.179265 0.0427097 -0.723934 -0.688546 
0.340714 -0.231999 -0.911093 0.267166 -0.822262 -0.502502 0.142111 -0.462246 -0.875291 
0.72157 -0.141858 -0.677652 0.53626 -0.637982 -0.552635 0.862197 -0.454338 -0.224038 
-0.21533 -0.433111 -0.875242 0.612757 0.123131 -0.78062 0.943642 -0.00803418 -0.330871 
-0.0454336 0.0789281 -0.995844 0.181124 0.0667237 -0.981194 0.377257 0.264802 -0.887444 
0.770828 0.314008 -0.554277 0.820166 0.182347 -0.54229 0.257622 0.0275003 -0.965854 
0.613874 0.70387 -0.357386 0.637594 -0.313748 -0.703588 0.575178 -0.0018992 -0.818026 
0.94922 0.26693 0.166524 0.766953 0.154924 -0.622722 0.243677 -0.0867433 -0.96597 
0.386533 0.00765314 -0.922244 0.789685 0.324821 -0.520471 0.87013 0.432164 -0.236872 
0.889623 0.443801 -0.107761 -0.957524 0.221209 -0.184973 -0.866948 0.468456 0.170146 
-0.0675759 -0.817968 -0.57128 0.0194325 -0.668498 -0.74346 -0.118856 -0.766754 -0.630843 
0.0817948 -0.91303 -0.399607 0.492113 -0.868675 -0.0568123 0.855114 -0.505171 0.116545 
-0.0324646 -0.425428 -0.90441 -0.0823716 -0.596993 -0.798006 0.995448 -0.0546599 -0.0780685 
0.0198697 0.160816 -0.986784 0.335423 0.249867 -0.908327 0.289068 -0.194383 -0.937366 
0.349791 0.450431 -0.821436 0.832324 0.0701786 -0.549828 0.752623 0.632675 -0.182429 
0.889742 0.334522 -0.31057 0.75111 0.653812 0.0914457 -0.69991 0.593986 0.39662 
-0.481896 0.794398 0.369741 -0.117733 0.877886 0.464171 0.221543 0.910485 0.349192 
-0.0744737 -0.900145 -0.429176 0.140834 -0.832152 -0.536367 0.00957685 -0.946761 -0.321795 
0.415988 -0.903364 0.104342 -0.0375045 -0.317091 -0.947653 0.0616307 -0.162317 -0.984812 
0.980419 -0.174034 0.0921476 0.989737 0.130042 -0.0592487 0.978175 0.17074 -0.118414 
0.388523 0.161721 -0.907136 0.490111 0.026865 -0.871246 0.674709 0.0405656 -0.736968 
0.138934 0.0678792 -0.987972 0.610304 0.203315 -0.765631 0.716241 0.232783 -0.657883 
0.609653 0.102927 -0.785957 0.615007 0.225037 -0.755728 -0.586008 -0.075066 -0.80682 
0.0378863 -0.0840214 -0.995743 0.0364526 -0.155985 -0.987087 0.678031 0.0166023 -0.734846 
0.399048 -0.036968 -0.916184 -0.298122 -0.236743 -0.924703 0.406257 -0.0543183 -0.912143 
-0.592167 -0.100434 -0.799532 0.383823 0.100229 -0.917951 -0.124351 -0.0470217 -0.991124 
0.838834 0.250823 -0.483162 -0.310452 -0.145799 -0.939341 -0.811395 -0.0186697 -0.584199 
-0.765848 0.568414 0.300636 -0.400501 0.711511 0.577366 -0.0306404 0.843933 0.535573 
0.046163 -0.588854 -0.80692 0.0638654 -0.666749 -0.742541 0.0637068 -0.700727 -0.71058 
0.0538887 -0.795426 -0.60365 0.249505 -0.9497 -0.189255 -0.04873 -0.965718 -0.25498 
0.15369 -0.988119 -0.000523638 0.799853 -0.501132 0.330306 -0.159228 -0.243275 -0.956799 
-0.0751945 -0.371508 -0.92538 0.994386 0.017049 0.104426 0.900743 0.273034 -0.337809 
0.636018 0.179367 -0.750539 0.874521 0.17491 -0.45235 0.947252 0.0794065 -0.310495 
0.825031 0.239772 -0.511696 0.803526 0.37819 -0.459694 0.713977 0.191075 -0.673593 
0.810457 0.19609 -0.552004 -0.831212 0.0459012 -0.554057 0.899077 0.435012 -0.04925 
-0.970423 0.228244 -0.078642 0.641078 0.570859 0.51297 0.0551557 0.778571 0.625128 
0.409787 0.817239 0.405211 -0.471242 0.67731 0.564963 -0.28413 -0.521644 -0.804461 
-0.0381231 -0.656014 -0.753786 0.133203 -0.62967 -0.765358 0.123781 -0.923228 -0.36377 
0.274533 -0.895967 -0.349105 -0.45382 -0.304637 -0.837403 -0.147898 -0.382981 -0.91184 
0.138263 -0.60148 -0.786832 -0.144309 -0.218148 -0.965187 0.307289 -0.950942 -0.03581 
0.111227 -0.989034 0.09716 0.360468 -0.904029 0.229771 0.0831218 -0.981345 -0.173359 
0.988245 0.0604565 -0.140418 -0.423222 0.0235954 -0.905719 0.979053 0.0592292 -0.194799 
0.970467 0.109064 -0.215171 -0.694842 0.0414255 -0.717968 -0.617225 0.000355722 -0.786786 
-0.630801 0.065681 -0.77316 -0.685864 0.117695 -0.718149 -0.535834 0.0235466 -0.843995 
0.940371 0.217943 -0.261156 -0.748325 0.0252763 -0.66285 0.88313 0.440171 -0.162267 
-0.770387 0.0321012 -0.636768 0.9175 0.391806 -0.0684234 0.892239 0.361623 -0.27044 
-0.868785 0.0445975 -0.493177 -0.898607 0.169733 -0.404594 -0.964233 0.241864 -0.108431 
0.781146 0.532323 0.326256 -0.890057 0.434548 0.137718 -0.778487 0.580514 0.238666 
-0.233502 -0.951592 -0.199873 -0.00515446 -0.96142 -0.275036 -0.744158 -0.486144 -0.45814 
0.334699 -0.940131 0.0642615 -0.7451 -0.215434 -0.6312 0.205096 -0.917681 -0.34029 
0.105619 -0.991269 -0.0789355 0.142678 -0.980588 0.134499 0.358992 -0.869773 0.338554 
-0.812382 0.012782 -0.582985 -0.411489 0.0906323 -0.906897 -0.704478 0.202154 -0.680326 
0.861944 -0.0713578 0.501956 -0.831288 0.0746508 -0.550806 0.994284 0.100122 0.0370831 
-0.804602 -0.0407453 -0.592415 -0.753119 0.153881 -0.639634 -0.810718 0.11603 -0.573824 
-0.952053 0.205103 -0.226998 0.901132 0.430189 0.0538429 -0.959137 0.205754 -0.194223 
-0.947728 0.281217 -0.150758 0.753597 0.409389 0.514288 0.592741 0.553551 0.585012 
0.254899 0.577872 0.7753 -0.793555 0.504866 0.339676 -0.691614 0.571338 0.441864 
0.209701 0.611987 0.76256 0.402528 0.734892 0.545807 -0.640133 -0.68599 -0.3459 
-0.0802217 -0.980844 0.177509 -0.00651908 -0.999315 -0.0364371 0.215094 -0.973782 0.0740503 
-0.861604 -0.0680863 -0.502994 0.256319 -0.952808 0.16266 0.275043 -0.897875 0.343762 
0.308617 -0.771927 0.555773 0.696375 -0.501035 0.513834 -0.995883 0.0189287 -0.0886454 
-0.886426 0.169326 -0.430787 -0.89346 0.195146 -0.404534 -0.914239 0.0954695 -0.393768 
0.979839 0.0791753 0.18343 0.975431 -0.0652402 0.210426 -0.826379 0.0808762 -0.557277 
0.932494 0.250552 0.260152 -0.850494 0.0267398 -0.525304 -0.925649 0.136806 -0.352786 
0.911381 0.3732 0.173511 0.844854 0.49671 0.19875 -0.96149 0.0694837 -0.265911 
0.907969 0.382365 0.171434 0.806957 0.474755 0.351323 -0.958629 0.194271 0.208058 
-0.946981 0.311619 -0.0782389 0.632387 0.466414 0.618502 0.332835 0.492843 0.803945 
-0.828218 0.41856 0.372641 -0.338312 0.754261 0.562703 -0.427537 0.668367 0.608685 
0.229982 0.618619 0.751278 -0.553543 -0.784068 0.280762 -0.227471 -0.863382 0.450366 
-0.126877 -0.873763 0.469512 -0.0170583 -0.962685 0.270088 0.1587 -0.972947 0.167894 
0.210051 -0.81093 0.546142 -0.87144 -0.461063 -0.16737 -0.923643 -0.338315 -0.180075 
0.284075 -0.867838 0.407626 -0.990451 -0.0864432 -0.107398 0.232354 -0.891718 0.388394 
0.1582 -0.904777 0.395412 0.411095 -0.734539 0.539864 -0.89817 0.305836 -0.31584 
-0.963201 0.137672 -0.230849 0.95678 0.15325 0.247155 0.952897 0.0894453 0.289806 
0.85924 0.339719 0.38249 0.831003 0.438178 0.342688 -0.985043 0.171425 0.0174016 
0.803455 0.388576 0.451075 0.505184 0.437861 0.743684 -0.901659 0.342566 0.263929 
0.407721 0.385656 0.827667 -0.596427 0.505232 0.623711 -0.371454 0.690306 0.620886 
-0.24942 0.601078 0.759272 -0.0291727 0.554682 0.831551 0.000810747 0.635969 0.771714 
-0.331012 -0.511813 0.792766 -0.627714 -0.419115 0.655986 -0.175223 -0.467056 0.866693 
-0.0183754 -0.693474 0.720247 -0.903052 -0.203669 0.378174 0.184739 -0.802955 0.566688 
0.268435 -0.838305 0.474538 0.325712 -0.888584 0.323002 0.333971 -0.865867 0.372474 
0.182645 -0.885141 0.427978 0.261396 -0.755124 0.601216 0.454062 -0.491405 0.743202 
-0.872386 -0.132458 0.470528 0.278517 -0.222728 0.934249 -0.989393 0.132769 0.0589368 
-0.966184 0.150619 -0.20929 -0.950531 0.109626 0.290641 -0.959933 0.109892 -0.257783 
-0.989504 0.142461 0.0242171 -0.977409 0.0599793 0.202667 -0.989779 0.12917 -0.0604366 
0.897756 0.06401 0.435817 -0.99283 0.114435 -0.0345496 0.629842 0.0596081 0.774433 
0.708782 0.124841 0.694293 0.787735 0.201459 0.582141 0.623608 0.325508 0.710744 
0.502641 0.202927 0.840341 0.619328 0.398654 0.676394 0.765717 0.360078 0.532937 
0.512408 0.355392 0.781751 -0.973729 0.176658 0.143677 -0.861558 0.35581 0.3621 
-0.912902 0.175235 0.368649 -0.561574 0.458943 0.688482 -0.511269 0.419849 0.749887 
-0.553174 -0.165351 0.816491 0.108245 -0.764606 0.635343 -0.554656 -0.159984 0.816555 
0.106745 -0.634147 0.765809 -0.383165 -0.281654 0.879691 0.141879 -0.583284 0.799781 
-0.492457 -0.188414 0.849697 -0.229319 -0.073585 0.970566 -0.118601 -0.21661 0.969027 
0.033498 -0.230566 0.97248 0.134275 -0.501129 0.854892 0.203344 -0.582076 0.787299 
-0.0543822 -0.244495 0.968124 0.143496 -0.383498 0.912326 -0.940766 0.139893 0.308851 
-0.877648 -0.0658631 0.47476 -0.834467 0.0629617 0.547449 0.732949 -0.0314748 0.679556 
-0.917003 0.0414048 0.396726 -0.915925 0.128488 0.380226 0.487548 0.289432 0.823727 
-0.965755 0.17309 0.193278 -0.83132 0.347083 0.434097 -0.704356 0.418083 0.573663 
-0.739433 0.243813 0.62753 -0.663726 0.305305 0.68283 -0.0106092 0.429535 0.902988 
-0.488362 0.387058 0.782105 -0.724747 0.128993 0.676833 0.283106 -0.0335457 0.958502 
0.36229 0.177057 0.915094 0.192184 0.194071 0.961978 -0.814623 0.196888 0.54555 
-0.316504 0.379198 0.869502 -0.0722016 0.299736 0.951286 -0.468943 0.447977 0.761189 
-0.398595 0.306336 0.864454 0.0642548 0.318281 0.945816 -0.350441 0.363738 0.863068 
-0.792264 -0.0334393 0.609262 -0.640204 -0.146072 0.754189 -0.338393 -0.210299 0.917204 
-0.408605 -0.0553251 0.911033 -0.721697 -0.0292284 0.691591 -0.345694 0.0273511 0.937948 
-0.0546266 -0.0887479 0.994555 -0.440846 0.0243703 0.897252 -0.760865 0.0929726 0.642215 
-0.823575 0.0731135 0.562476 -0.816318 0.296981 0.495407 -0.626104 0.387154 0.676835 
-0.305728 -0.0510265 0.950751 0.143829 -0.0497939 0.988349 -0.493113 0.0106203 0.8699 
-0.601711 -0.050443 0.79712 -0.135284 0.0407814 0.989967 -0.648556 0.000333966 0.761167 
-0.395431 0.119391 0.910703 -0.557256 0.122346 0.821278 -0.580807 0.275214 0.766108 
-0.621328 0.0150026 -0.783407 -0.506118 -0.0517572 -0.86091 -0.303215 0.0231297 -0.952641 
-0.723702 0.244415 -0.64538 -0.3959 0.11135 -0.911518 -0.358186 0.00715827 -0.933623 
-0.761249 0.00799752 -0.648411 0.0820332 -0.0572438 -0.994984 -0.692002 0.041351 -0.720711 
-0.585486 0.187966 -0.788591 -0.875767 0.262506 -0.405121 -0.258993 0.0351201 -0.965241 
-0.477824 0.185139 -0.858725 -0.692415 0.230088 -0.683828 0.193983 0.181931 -0.963987 
-0.666722 0.281826 -0.689969 -0.410321 0.195134 -0.890819 -0.182934 0.235316 -0.954548 
-0.435456 0.279486 -0.855725 -0.246086 -0.837185 -0.48843 -0.459156 -0.481383 -0.746623 
-0.151729 -0.381072 -0.91201 0.160033 -0.653518 -0.7398 0.224193 -0.847855 -0.480499 
-0.165203 -0.256905 -0.952212 -0.0942357 -0.513305 -0.853017 -0.499226 -0.0923818 -0.861533 
0.311022 -0.573964 -0.757516 0.411052 -0.619186 -0.669062 -0.665276 -0.137647 -0.7338 
0.0399794 -0.1721 -0.984268 0.178426 -0.655005 -0.734257 -0.540904 -0.133786 -0.830376 
-0.248606 -0.128178 -0.960086 0.195757 -0.490154 -0.849369 0.143979 -0.534171 -0.833026 
-0.335285 0.0548197 -0.94052 0.113087 -0.229045 -0.966825 -0.429532 -0.0356141 -0.902349 
-0.780312 0.0646199 -0.622043 -0.793607 -0.0401718 -0.607103 -0.867041 0.103666 -0.487333 
-0.756743 0.111423 -0.644147 -0.886053 0.197349 -0.419479 -0.921289 0.0732108 -0.381925 
-0.802522 0.294257 -0.519009 -0.886559 0.175355 -0.428094 -0.514931 0.2903 -0.80658 
-0.00748052 0.273627 -0.961807 -0.0624854 0.328918 -0.942289 -0.3959 -0.917505 0.0380486 
-0.0352774 -0.86096 -0.507448 0.0476067 -0.860146 -0.507822 -0.735864 -0.278078 -0.617395 
0.26744 -0.857646 -0.439226 0.37747 -0.826024 -0.41857 0.256789 -0.855111 -0.450382 
0.168105 -0.83373 -0.525962 -0.841224 -0.0943915 -0.532384 0.260771 -0.60865 -0.749362 
0.232221 -0.64766 -0.725679 -0.801473 -0.0498739 -0.595948 0.231811 -0.2359 -0.943724 
0.205756 -0.385994 -0.899262 0.320731 -0.237394 -0.916938 -0.835908 0.0325484 -0.547903 
0.439766 0.0104842 -0.898051 -0.902345 0.0596524 -0.426866 -0.845659 0.114732 -0.521245 
-0.958413 0.173408 -0.226658 -0.937314 0.00312998 -0.348473 0.483596 0.0480432 -0.873972 
0.761791 0.0936934 -0.641011 0.807916 0.0869521 -0.582847 -0.962177 0.109311 -0.249533 
-0.924438 0.182123 -0.335031 0.685831 0.257477 -0.680692 0.418638 0.214168 -0.882538 
0.572347 0.333406 -0.749172 0.582942 0.368113 -0.724343 -0.936747 0.146951 -0.317663 
-0.984514 0.0654798 -0.162619 0.274948 0.366684 -0.888789 -0.782265 0.34157 -0.520953 
0.342875 0.489731 -0.801623 -0.838759 0.297509 -0.456039 -0.244523 0.384088 -0.890329 
-0.55329 0.566433 -0.610757 -0.208379 0.551425 -0.80778 -0.0277532 0.513687 -0.857529 
-0.618815 -0.740961 0.260854 -0.705995 -0.657738 -0.262587 -0.233888 -0.958206 0.164734 
0.118714 -0.965371 -0.232306 0.168549 -0.984381 -0.0508521 -0.87487 -0.316416 -0.366719 
-0.936986 -0.192984 -0.29123 0.234653 -0.966338 0.105498 0.23984 -0.93684 -0.254574 
0.205876 -0.857625 -0.471268 -0.998611 0.0253272 -0.0461937 0.163028 -0.85092 -0.499357 
0.213875 -0.948879 -0.232132 -0.994728 0.00925351 -0.102133 0.202716 -0.807261 -0.554288 
0.303094 -0.685428 -0.662059 0.843102 -0.175256 -0.508394 0.634433 0.144481 -0.759355 
0.819124 0.0640954 -0.570024 -0.978306 0.190315 -0.0818349 -0.95387 0.290479 0.075857 
-0.97861 0.145404 -0.145538 -0.975244 0.108615 -0.192616 -0.998971 0.0408251 -0.0197593 
-0.991896 0.0958679 0.083376 0.809329 0.232076 -0.539562 -0.990268 0.0980645 0.0987547 
-0.991813 0.125399 -0.024118 0.82066 0.35706 -0.446123 0.693248 0.430992 -0.577626 
-0.892729 0.320721 -0.316502 -0.807196 0.484666 -0.336949 -0.891467 -0.450835 0.0451051 
-0.828541 -0.496465 0.258927 -0.0254245 -0.999172 -0.0317559 -0.93642 -0.33372 0.108389 
-0.996733 -0.0137625 0.0795823 -0.89698 -0.0333526 0.440812 0.219278 -0.975644 0.00596431 
0.182372 -0.796197 -0.576898 0.308728 -0.883762 -0.351642 0.497568 -0.653521 -0.570383 
0.85318 -0.307412 -0.421405 0.783186 -0.575492 -0.235435 0.868951 -0.186321 -0.458485 
-0.980325 0.129201 0.149228 -0.983003 0.10055 0.153604 0.907777 -0.045583 -0.416968 
-0.917772 0.172048 0.357903 0.926013 0.0650112 -0.37185 0.932068 0.235618 -0.275198 
-0.975764 0.195224 0.0988575 -0.983269 0.165913 0.0752018 -0.908297 0.038531 0.416548 
-0.95512 0.132784 0.264791 0.918898 0.311832 -0.241637 -0.938428 0.164372 0.303867 
-0.994373 -0.0255643 -0.10281 -0.923672 0.2245 0.310531 -0.939456 0.294521 0.175158 
0.771946 0.399599 -0.494389 0.820862 0.419513 -0.38755 0.85859 0.405729 -0.313381 
0.893022 0.404746 -0.196702 -0.960578 0.273316 -0.050869 0.584448 0.424541 -0.691509 
-0.932076 0.323229 -0.163574 0.101155 0.61923 -0.778667 -0.430752 -0.75498 0.494427 
-0.1505 -0.838159 0.524251 0.173311 -0.949307 0.262259 -0.57049 -0.26484 0.777432 
0.144548 -0.8631 0.483905 -0.616477 -0.0822493 0.783065 0.169373 -0.979671 -0.107511 
0.910707 -0.34126 -0.23271 -0.884384 0.0980133 0.456353 0.139117 -0.965346 -0.220803 
0.987714 0.117817 0.102663 0.984356 0.176121 0.00498459 -0.904252 0.057988 0.423044 
0.947491 0.232751 -0.219292 0.895119 0.285474 -0.342442 0.971459 0.227718 -0.0664229 
0.863139 0.492301 0.112387 0.871869 0.477115 0.110479 0.894851 0.446284 0.00853788 
0.817028 0.447211 -0.363961 -0.95024 0.271611 0.152548 0.873777 0.422113 -0.241524 
0.943969 0.323982 -0.0629136 -0.983555 0.142915 0.110431 -0.959165 0.265466 -0.0976225 
-0.844171 0.456234 -0.281473 -0.356704 0.671499 -0.649501 -0.714468 -0.526043 0.461318 
-0.236875 -0.697834 0.675957 -0.0186783 -0.915133 0.402719 -0.38142 -0.388375 0.838859 
-0.145115 -0.77378 0.616608 0.150387 -0.906326 0.394914 -0.48847 -0.0465244 0.871339 
0.158982 -0.985148 0.0648729 0.275741 -0.957023 -0.0898607 0.506509 -0.858569 0.0794302 
0.497119 -0.85464 -0.149879 0.816155 -0.57507 0.056447 0.987818 -0.145773 -0.0544677 
0.967733 0.0971886 -0.232479 0.994196 0.107531 -0.00341884 0.978913 0.180888 -0.0949108 
-0.820767 0.0267764 0.570635 0.943937 0.162309 0.28747 -0.735496 0.0986241 0.670313 
0.981236 0.18429 0.0566828 -0.89479 0.0374913 0.444911 0.785771 0.437796 0.43692 
0.894072 0.447743 -0.012728 0.928493 0.359765 0.0920337 -0.919167 0.0974228 0.38163 
0.933362 0.337307 -0.122716 0.684581 0.541939 -0.487494 0.628155 0.531306 -0.568449 
0.203855 0.660438 -0.722679 -0.120318 -0.686259 0.717337 0.122055 -0.810043 0.573527 
-0.203898 -0.497745 0.843016 -0.0555292 -0.535458 0.842734 0.212327 -0.928687 0.304068 