# vtk DataFile Version 4.2
vtk output
ASCII
DATASET POLYDATA
POINTS 1002 float
129.915 121.268 180.461 130.079 121.358 180.391 130.298 121.4 180.44 
130.162 121.537 180.356 129.744 120.825 180.84 129.522 120.686 181.032 
129.515 120.942 180.837 129.291 121.188 180.87 130.479 121.372 180.545 
129.764 122.46 180.443 130.003 122.618 180.398 130.334 122.642 180.412 
130.077 123.093 180.493 129.495 120.472 181.301 129.809 120.351 181.506 
130.199 120.639 181.248 131.419 122.173 180.862 127.573 119.287 182.833 
128.156 120.096 182.115 129.804 120.016 182.065 134.12 122.99 182.091 
133.043 124.244 181.12 132.952 124.403 181.091 133.078 124.351 181.117 
131.024 126.881 181.015 132.052 127.591 181.239 127.834 119.167 183.223 
127.846 119.535 182.675 132.974 123.955 181.195 133.552 124.474 181.446 
133.349 127.044 181.529 130.412 129.838 181.91 127.044 120.135 183.021 
127.312 120.582 182.591 136.332 123.933 183.286 130.268 133.304 182.909 
131.012 138.189 183.768 130.787 138.602 183.898 126.906 119.084 183.966 
126.836 118.843 184.528 127.372 118.724 184.434 126.458 119.288 184.2 
130.151 119.29 183.967 136.375 122.955 183.907 136.864 125.244 183.419 
132.667 137.27 183.73 130.237 142.07 184.662 131.545 141.876 184.466 
130.227 144.772 184.894 130.72 145.311 184.909 131.083 145.192 184.936 
129.803 146.517 185.303 131.189 145.838 185.103 129.738 147.268 185.468 
130.594 146.725 185.229 130.042 147.566 185.453 130.433 148.06 185.626 
126.379 118.939 184.82 125.992 118.969 185.292 126.089 120.226 184.144 
135.987 121.893 184.711 137.632 124.517 184.082 140.274 123.947 185.827 
140.573 123.982 185.95 129.575 141.343 184.867 131.959 146.05 185.619 
131.277 146.874 185.5 131.458 148.149 186.368 130.91 149.18 186.569 
129.723 150.03 186.613 130.333 149.797 186.613 140.646 123.826 186.105 
128.407 136.92 184.92 134.238 137.032 184.391 128.628 140.59 185.418 
131.892 147.729 186.592 130.741 150.055 187.262 129.772 150.563 187.023 
124.587 118.499 187.345 124.623 118.774 187.089 142.016 123.461 187.427 
141.901 123.338 187.513 142.207 123.564 187.573 140.915 123.632 186.477 
140.779 124.974 185.962 128.52 143.122 185.805 128.161 149.491 186.976 
129.253 151.319 187.497 128.217 152.238 187.979 127.772 153.34 188.635 
128.03 153.505 188.677 128.078 153.808 188.921 124.363 118.221 187.972 
124.231 118.024 188.516 141.58 123.56 187.079 141.251 123.009 187.466 
141.683 124.479 186.773 142.603 124.24 187.642 142.52 124.467 187.518 
142.711 124.475 187.729 140.923 127.038 186.272 141.498 129.177 187.904 
131.414 149.746 188.151 127.019 153.504 189.125 127.002 154.762 189.72 
127.907 154.317 189.372 127.601 154.66 189.531 127.209 154.918 189.713 
127.22 155.146 189.912 123.323 118.602 188.963 131.432 119.232 188.3 
137.607 121.218 188.002 143.364 124.283 188.576 143.472 126.02 189.406 
140.915 131.168 188.943 127.393 155.185 190.047 123.425 117.82 189.926 
141.319 122.314 188.824 142.99 123.255 189.102 143.605 124.057 189.249 
143.613 123.826 189.504 143.636 124.518 189.148 142.303 128.958 189.697 
126.264 153.568 189.887 126.583 155.735 190.748 126.073 156.603 191.626 
126.107 156.643 191.699 122.885 117.961 190.438 123.937 117.483 190.394 
123.837 117.426 190.792 124.324 117.427 190.533 122.281 118.952 190.503 
139.973 121.748 189.391 142.362 122.69 189.454 143.529 124.563 188.727 
143.578 126.061 190.332 142.958 127.782 190.554 132.032 149.26 190.077 
128.771 154.22 190.617 126.265 156.069 191.263 127.194 155.828 191.204 
126.67 156.277 191.625 122.722 117.76 191.091 122.31 117.866 191.545 
124.506 117.428 191.11 122.177 118.372 191.119 122.207 121.089 190.439 
143.56 123.64 190.071 143.776 124.689 190.503 122.993 126.088 190.329 
143.725 124.926 190.716 141.802 130.099 190.822 124.422 136.476 190.628 
125.233 156.993 192.997 125.302 157.364 193.331 125.762 157.287 192.975 
125.549 157.403 193.213 121.898 117.697 192.472 122.91 117.403 192.078 
123.426 117.375 191.804 130.321 119.243 190.95 131.544 119.896 191.315 
134.7 121.071 191.308 143.378 123.421 190.225 143.341 124.878 191.625 
143.005 127.161 191.622 142.859 127.778 191.5 136.422 139.951 191.891 
124.858 145.773 191.226 128.901 154.378 192.147 121.255 117.246 193.661 
121.423 117.575 193.092 122.657 117.375 192.664 124.191 117.573 192.389 
125.666 117.891 192.009 121.338 118.599 192.739 142.278 122.608 191.564 
140.896 122.364 191.459 142.692 123.092 191.598 138.176 123.519 193.498 
122.424 127.18 192.238 130.035 152.727 192.857 124.265 154.082 193.294 
124.668 156.985 193.774 126.241 157.295 193.981 121.009 117.156 194.004 
121.627 117.236 193.723 121.944 117.306 193.491 121.263 117.983 193.07 
121.069 118.045 193.482 128.265 119.212 192.659 129.587 120.033 192.821 
131.701 120.865 192.657 141.987 122.577 191.804 142.122 122.649 191.865 
142.295 122.702 191.778 142.585 123.289 191.979 137.919 122.708 192.734 
142.723 124.316 192.362 142.4 127.343 192.976 141.937 128.85 193.138 
122.767 132.686 193.717 123.775 146.156 193.819 124.308 157.528 194.919 
124.989 158.218 194.968 124.5 158.526 195.469 124.512 158.659 195.621 
120.718 117.087 194.269 121.819 117.303 193.769 121.847 117.407 193.938 
120.866 117.396 193.904 120.835 117.651 194.178 121.2 119.295 194.079 
121.324 120.137 194.366 121.293 120.649 194.308 129.854 121.248 193.768 
142.188 122.84 191.997 121.286 121.229 193.7 130.983 122.054 193.891 
131.561 121.91 193.611 132.263 122.45 193.744 141.475 123.525 192.735 
128.605 123.544 195.152 139.782 123.951 193.552 141.378 124.747 193.483 
142.315 124.662 192.91 142.118 124.819 193.23 141.969 125.263 193.36 
141.504 126.05 193.887 141.945 126.951 193.637 122.227 128.986 194.333 
134.566 128.207 195.458 122.652 132.619 194.342 123.225 138.806 194.029 
124.776 158.527 195.424 124.357 158.669 195.972 124.608 158.683 195.669 
120.517 116.896 194.481 120.506 116.894 194.477 120.517 116.929 194.466 
120.806 117.105 194.351 120.686 117.234 194.328 121.001 117.889 194.34 
121.353 118.383 194.457 122.993 119.081 194.69 124.28 119.227 194.437 
125.188 120.251 194.755 121.406 121.048 194.529 121.398 121.453 194.451 
127.577 121.966 194.876 142.063 124.747 193.275 121.974 126.181 194.966 
141.141 128.906 194.396 122.328 130.138 195.108 140.167 131.099 194.583 
122.726 133.134 195.301 139.314 133.021 194.943 132.021 132.369 196.562 
122.91 137.41 195.156 135.716 139.631 195.542 123.36 144.781 195.72 
126.297 157.082 195.752 124.097 157.701 195.76 124.573 158.755 195.943 
124.436 158.776 196.079 120.529 116.93 194.48 120.583 117.038 194.442 
120.655 117.068 194.445 122.213 119.423 194.802 121.62 120.953 194.759 
122.149 122.308 195.171 140.674 126.559 194.534 122.222 127.746 195.836 
122.256 127.873 195.945 122.255 128.07 195.9 122.38 128.827 196.018 
139.028 129.443 195.64 139.596 131.326 195.253 122.616 131.046 196.108 
139.195 131.525 195.636 122.973 132.914 196.119 139.102 132.396 195.655 
139.067 132.981 195.52 123.156 134.709 196.464 123.055 135.394 196.557 
122.978 136.3 196.35 133.073 136.17 197.311 131.366 148.446 196.829 
123.576 150.3 196.275 123.601 151.235 196.266 129.914 151.725 196.375 
123.659 153.344 196.408 124.003 157.425 196.072 124.119 157.882 196.546 
124.696 158.686 196.081 124.408 158.773 196.291 123.451 124.58 195.984 
123.026 125.68 196.037 122.525 126.603 195.896 140.981 127.758 194.735 
122.642 128.163 196.223 122.466 129.473 196.379 122.479 129.708 196.394 
122.736 130.968 196.376 123.468 132.276 196.703 123.203 131.447 196.683 
137.974 131.853 196.262 138.719 132.497 196.058 138.771 133.237 195.993 
138.577 133.601 196.151 136.144 134.545 196.84 137.743 135.026 196.088 
138.064 134.309 196.238 123.112 136.993 196.891 127.285 136.252 197.802 
133.402 137.582 197.453 134.786 140.148 196.828 133.709 142.754 197.147 
133.995 141.961 197.35 132.609 144.872 197.352 132.914 143.975 197.64 
132.205 145.709 197.508 131.658 146.877 197.423 131.782 146.182 197.802 
123.634 149.761 196.741 123.787 153.666 197.097 124.131 157.523 196.8 
124.306 158.242 196.795 124.305 158.471 196.603 124.382 158.62 196.56 
124.479 158.757 196.381 124.404 158.727 196.445 122.775 130.572 196.504 
137.878 133.336 196.534 137.458 134.416 196.559 138.013 133.76 196.603 
138.455 133.551 196.405 138.07 133.966 196.516 123.671 136.891 197.302 
136.458 136.284 196.649 137.14 135.671 196.466 123.257 137.369 197.138 
123.45 137.838 197.22 123.808 138.745 197.47 134.388 139.007 197.232 
134.145 140.256 197.459 133.672 140.862 197.751 134.094 140.868 197.679 
134.359 140.77 197.48 134.453 141.081 197.311 133.366 142.066 197.838 
133.989 141.321 197.817 134.252 141.499 197.511 133.07 142.855 198.136 
133.263 142.903 198.086 134.022 141.616 197.724 132.188 144.186 198.144 
132.901 143.33 198.223 133.178 143.444 197.875 128.979 145.061 198.958 
131.937 145.391 198.321 132.926 143.619 198.081 131.092 146.148 198.37 
131.494 145.822 198.43 131.921 145.868 198.068 130.773 146.773 198.669 
131.183 146.632 198.461 131.353 146.949 198.092 131.599 146.154 198.305 
124.035 148.56 197.65 128.337 147.598 199.126 123.789 149.959 197.183 
123.929 151.483 197.261 124.074 153.255 197.524 123.97 154.348 197.375 
123.986 154.873 197.333 123.918 155.27 197.109 125.534 155.886 197.769 
126.611 155.601 197.404 124.765 157.85 197.09 124.994 157.463 197.236 
125.229 157.238 197.314 124.333 157.984 196.975 124.402 158.191 196.929 
124.451 158.414 196.754 124.485 158.648 196.537 138.345 133.481 196.545 
138.296 133.621 196.628 138.227 133.625 196.633 138.292 133.701 196.559 
138.186 133.746 196.621 123.257 137.188 197.166 137.092 135.506 196.588 
137.001 138.01 201.014 137.001 138.01 201.014 137.002 138.01 201.014 
137.002 138.01 201.014 137.002 138.01 201.014 125.834 141.663 198.492 
134.361 141.131 197.691 134.241 141.108 197.767 134.349 141.294 197.701 
134.241 141.292 197.902 134.255 141.425 197.799 133.26 143.167 198.275 
[...]
POINT_DATA 1002
SCALARS scalars float
LOOKUP_TABLE default
1 1 1 1 1 1 1 1 1 
1 1 1 1 1 1 1 1 1 
1 1 1 1 1 1 1 1 1 
1 1 1 1 1 1 1 1 1 
1 1 1 1 1 1 1 1 1 
1 1 1 1 1 1 1 1 1 
1 1 1 1 1 1 1 1 1 
1 1 1 1 1 1 1 1 1 
1 1 1 1 1 1 1 1 1 
1 1 1 1 1 1 1 1 1 
1 1 1 1 1 1 1 1 1 
1 1 1 1 1 1 1 1 1 
1 1 1 1 1 1 1 1 1 
1 1 1 1 1 1 1 1 1 
1 1 1 1 1 1 1 1 1 
1 1 1 1 1 1 1 1 1 
1 1 1 1 1 1 1 1 1 
1 1 1 1 1 1 1 1 1 
1 1 1 1 1 1 1 1 1 
1 1 1 1 1 1 1 1 1 
1 1 1 1 1 1 1 1 1 
1 1 1 1 1 1 1 1 1 
1 1 1 1 1 1 1 1 1 
1 1 1 1 1 1 1 1 1 
1 1 1 1 1 1 1 1 1 
1 1 1 1 1 1 1 1 1 
1 1 1 1 1 1 1 1 1 
1 1 1 1 1 1 1 1 1 
1 1 1 1 1 1 1 1 1 
1 1 1 1 1 1 1 1 1 
1 1 1 1 1 1 1 1 1 
1 1 1 1 1 1 1 1 1 
1 1 1 1 1 1 1 1 1 
1 1 1 1 1 1 1 1 1 
1 1 1 1 1 1 1 1 1 
1 1 1 1 1 1 1 1 1 
1 1 1 1 1 1 1 1 1 
1 1 1 1 1 1 1 1 1 
1 1 1 1 1 1 1 1 1 
1 1 1 1 1 1 1 1 1 
1 1 1 1 1 1 1 1 1 
1 1 1 1 1 1 1 1 1 
1 1 1 1 1 1 1 1 1 
1 1 1 1 1 1 1 1 1 
1 1 1 1 1 1 1 1 1 
1 1 1 1 1 1 1 1 1 
1 1 1 1 1 1 1 1 1 
1 1 1 1 1 1 1 1 1 
1 1 1 1 1 1 1 1 1 
1 1 1 1 1 1 1 1 1 
1 1 1 1 1 1 1 1 1 
1 1 1 1 1 1 1 1 1 
1 1 1 1 1 1 1 1 1 
1 1 1 1 1 1 1 1 1 
1 1 1 1 1 1 1 1 1 
1 1 1 1 1 1 1 1 1 
1 1 1 1 1 1 1 1 1 
1 1 1 1 1 1 1 1 1 
1 1 1 1 1 1 1 1 1 
1 1 1 1 1 1 1 1 1 
1 1 1 1 1 1 1 1 1 
1 1 1 1 1 1 1 1 1 
1 1 1 1 1 1 1 1 1 
1 1 1 1 1 1 1 1 1 
1 1 1 1 1 1 1 1 1 
1 1 1 1 1 1 1 1 1 
1 1 1 1 1 1 1 1 1 
1 1 1 1 1 1 1 1 1 
1 1 1 1 1 1 1 1 1 
1 1 1 1 1 1 1 1 1 
1 1 1 1 1 1 1 1 1 
1 1 1 1 1 1 1 1 1 
1 1 1 1 1 1 1 1 1 
1 1 1 1 1 1 1 1 1 
1 1 1 1 1 1 1 1 1 
1 1 1 1 1 1 1 1 1 
1 1 1 1 1 1 1 1 1 
1 1 1 1 1 1 1 1 1 
1 1 1 1 1 1 1 1 1 
1 1 1 1 1 1 1 1 1 
1 1 1 1 1 1 1 1 1 
1 1 1 1 1 1 1 1 1 
1 1 1 1 1 1 1 1 1 
1 1 1 1 1 1 1 1 1 
1 1 1 1 1 1 1 1 1 
1 1 1 1 1 1 1 1 1 
1 1 1 1 1 1 1 1 1 
1 1 1 1 1 1 1 1 1 
1 1 1 1 1 1 1 1 1 
1 1 1 1 1 1 1 1 1 
1 1 1 1 1 1 1 1 1 
1 1 1 1 1 1 1 1 1 
1 1 1 1 1 1 1 1 1 
1 1 1 1 1 1 1 1 1 
1 1 1 1 1 1 1 1 1 
1 1 1 1 1 1 1 1 1 
1 1 1 1 1 1 1 1 1 
1 1 1 1 1 1 1 1 1 
1 1 1 1 1 1 1 1 1 
1 1 1 1 1 1 1 1 1 
1 1 1 1 1 1 1 1 1 
1 1 1 1 1 1 1 1 1 
1 1 1 1 1 1 1 1 1 
1 1 1 1 1 1 1 1 1 
1 1 1 1 1 1 1 1 1 
1 1 1 1 1 1 1 1 1 
1 1 1 1 1 1 1 1 1 
1 1 1 1 1 1 1 1 1 
1 1 1 1 1 1 1 1 1 
1 1 1 1 1 1 1 1 1 
1 1 1 1 1 1 1 1 1 
1 1 1 
NORMALS Normals float
-0.250642 -0.390871 -0.885663 0.122875 -0.542694 -0.830894 0.364692 -0.364909 -0.856645 
0.0827623 -0.0666191 -0.99434 -0.0400487 -0.704939 -0.708136 -0.198328 -0.742151 -0.640217 
-0.558881 -0.477642 -0.677872 -0.556313 -0.303577 -0.773536 0.468817 -0.394924 -0.790093 
-0.531654 0.125684 -0.837584 -0.0824978 0.0221212 -0.996346 0.244546 0.0389372 -0.968856 
0.0627058 0.188713 -0.980028 -0.344832 -0.716747 -0.606107 0.37723 -0.845457 -0.378022 
0.384939 -0.792219 -0.473509 0.617562 -0.401761 -0.67617 -0.286098 -0.681956 -0.673116 
-0.344431 -0.583323 -0.735597 0.200881 -0.830906 -0.518886 0.511239 -0.429319 -0.744526 
0.3762 -0.237679 -0.895535 0.255663 0.0371878 -0.96605 0.584237 -0.0399149 -0.810601 
0.00602894 0.156229 -0.987702 0.212031 0.276741 -0.93726 0.0672874 -0.909935 -0.409256 
-0.237483 -0.582877 -0.777082 0.495413 -0.255756 -0.830153 0.517894 0.0437285 -0.854327 
0.336244 0.19425 -0.921524 -0.0734391 0.322386 -0.943755 -0.670198 -0.281563 -0.6867 
-0.688423 -0.128196 -0.71389 0.623425 -0.256428 -0.738638 -0.139555 0.19962 -0.969885 
0.0242309 0.255498 -0.966506 -0.258889 0.206641 -0.943544 -0.493438 -0.698832 -0.517835 
-0.374257 -0.869077 -0.323477 -0.167055 -0.934325 -0.314847 -0.640225 -0.560185 -0.525647 
0.343514 -0.869044 -0.356035 0.587718 -0.505687 -0.631561 0.592194 -0.0767065 -0.802136 
0.237113 0.191265 -0.952468 -0.428898 0.131635 -0.893711 0.0374627 0.133114 -0.990392 
-0.311634 0.216851 -0.925127 -0.206582 0.282433 -0.936779 0.247631 0.134689 -0.959447 
-0.255117 0.149556 -0.955274 0.211483 0.240115 -0.947428 -0.416912 0.296435 -0.85925 
0.102612 0.236592 -0.966175 -0.121233 0.400575 -0.908208 0.171181 0.466974 -0.867544 
-0.630241 -0.657374 -0.413105 -0.544685 -0.714436 -0.439204 -0.788328 -0.174225 -0.590071 
0.477479 -0.691136 -0.542535 0.567062 -0.249677 -0.784922 0.398247 -0.46038 -0.793379 
0.557442 -0.28003 -0.781564 -0.440382 0.170203 -0.88153 0.520544 0.266273 -0.811254 
0.398136 0.339978 -0.851999 0.503895 0.376313 -0.777482 0.552286 0.442732 -0.706377 
0.0699909 0.48439 -0.872048 0.33764 0.546099 -0.766665 0.549812 -0.453508 -0.701454 
-0.614094 0.187267 -0.766694 0.492061 0.22243 -0.841666 -0.493096 0.194994 -0.84784 
0.746485 0.411391 -0.522989 0.551377 0.68931 -0.469931 0.092611 0.601021 -0.79385 
-0.280506 -0.843934 -0.457264 -0.777463 -0.324014 -0.539042 0.567487 -0.555804 -0.607487 
0.483192 -0.851091 -0.205354 0.668747 -0.542546 -0.508352 0.271203 -0.773174 -0.573281 
0.600201 -0.0665868 -0.797072 -0.647148 0.145428 -0.748365 -0.555539 0.291138 -0.778855 
0.122648 0.536537 -0.834917 -0.0222472 0.448114 -0.893699 -0.468528 0.206285 -0.859027 
-0.0326739 0.580144 -0.813859 0.393271 0.613044 -0.685212 -0.501521 -0.722625 -0.4757 
-0.143571 -0.921918 -0.359799 0.527387 -0.482263 -0.699489 0.30505 -0.900853 -0.308883 
0.6593 -0.00017427 -0.75188 0.718935 -0.281727 -0.635422 0.659162 0.10191 -0.745064 
0.750421 0.225125 -0.621439 0.594376 0.197647 -0.779521 0.801543 0.386849 -0.455935 
0.731026 0.639466 -0.238085 -0.508031 0.222572 -0.832086 -0.523855 0.456458 -0.719181 
0.232584 0.627978 -0.742663 0.290589 0.651435 -0.700849 -0.219531 0.49601 -0.840107 
0.0208474 0.775285 -0.631267 -0.740679 -0.445345 -0.503054 0.288075 -0.952565 0.098149 
0.295572 -0.954502 -0.039529 0.788181 -0.163153 -0.593424 0.879866 0.273136 -0.388886 
0.80469 0.429791 -0.409577 0.50328 0.771945 -0.388342 -0.376215 -0.83442 -0.402747 
0.309292 -0.902146 -0.300784 0.680989 -0.617946 -0.392934 0.952 -0.211026 -0.22173 
0.829861 -0.539497 -0.142384 0.978948 -0.00319738 -0.204084 0.87816 0.455782 -0.145251 
-0.765839 0.100094 -0.635194 -0.363233 0.652415 -0.665143 -0.372366 0.643106 -0.669147 
0.347927 0.77038 -0.534285 -0.624276 -0.669397 -0.402724 -0.116134 -0.919789 -0.374834 
-0.197724 -0.972982 -0.119213 0.102735 -0.972425 -0.209369 -0.863124 -0.24654 -0.440721 
0.310457 -0.930173 -0.195944 0.486518 -0.871704 -0.0585932 0.812054 0.0775556 -0.578405 
0.964286 0.235095 0.121998 0.930457 0.359363 -0.0714693 0.833813 0.551303 -0.0286517 
0.716895 0.639161 -0.278452 -0.28179 0.595672 -0.752176 0.491556 0.818187 -0.298232 
0.394638 0.830069 -0.394012 -0.529189 -0.784595 -0.323063 -0.550486 -0.756316 -0.353485 
0.172471 -0.984478 0.0325146 -0.827262 -0.38801 -0.406308 -0.892974 0.0395428 -0.448367 
0.95242 -0.282743 0.113806 0.953161 -0.196862 0.229629 -0.878184 0.190766 -0.438636 
0.98708 0.1335 0.0886033 0.880572 0.472229 -0.0399114 -0.889545 0.0981975 -0.44617 
-0.648882 0.499796 -0.573721 -0.464453 0.684527 -0.561878 0.123157 0.882847 -0.453226 
-0.254113 0.801308 -0.541601 -0.518423 -0.703213 -0.486548 -0.284183 -0.922851 -0.259974 
-0.0771176 -0.9905 -0.113855 0.303516 -0.904564 0.299402 0.294032 -0.821475 0.488594 
0.279037 -0.833999 0.476008 0.767165 -0.631461 0.112758 0.886911 -0.0137974 0.461734 
0.928749 0.170532 0.329156 0.911529 0.367768 0.184013 0.871151 0.442096 0.213653 
-0.894057 0.0477226 -0.445404 0.712948 0.694856 -0.0942348 -0.268061 -0.875004 -0.403126 
-0.665932 -0.496112 -0.557141 -0.0596975 -0.992508 -0.106603 0.200394 -0.957949 0.205368 
0.340395 -0.924484 0.17164 -0.934379 -0.0893293 -0.344901 0.520182 -0.841824 0.144022 
0.185732 -0.898548 0.397636 0.799549 -0.527617 0.286953 0.024118 -0.619011 0.785012 
-0.940583 0.237167 -0.243013 0.836739 0.538217 0.100945 -0.895887 0.142795 -0.420709 
-0.883086 0.256784 -0.392709 0.576541 0.797817 -0.176322 -0.189095 -0.899127 -0.394733 
0.186415 -0.978265 0.0908123 0.358027 -0.911789 0.201139 -0.814763 -0.327943 -0.478137 
-0.933233 -0.0434929 -0.356629 0.303804 -0.782649 0.54329 0.327221 -0.693326 0.642048 
0.152632 -0.72879 0.667509 0.156985 -0.886636 0.435008 0.285888 -0.741547 0.60694 
0.573565 -0.696957 0.430434 0.648967 -0.419204 0.634909 0.0691992 -0.676458 0.733223 
0.766484 -0.270653 0.582451 0.862305 0.0545649 0.503441 0.865419 0.311805 0.39221 
-0.98003 0.0893025 -0.177668 -0.958149 0.0253995 -0.285142 -0.886824 0.268568 -0.376051 
0.113118 0.889917 -0.441874 -0.785047 0.461643 -0.413021 -0.35411 0.825383 -0.439715 
-0.278695 -0.809599 -0.516604 0.403597 -0.857089 0.320169 0.36585 -0.831434 0.418176 
-0.914338 0.0168008 -0.404603 -0.962368 0.253762 -0.0972212 -0.960845 0.12014 0.249685 
-0.907444 -0.0461489 0.41763 -0.937609 -0.00667656 0.347629 0.315675 -0.545233 0.776576 
0.336486 -0.559762 0.75726 -0.992706 0.0858155 -0.0846797 0.202733 -0.558907 0.804066 
0.310341 -0.503734 0.806189 0.226036 -0.531793 0.816152 0.321937 -0.563878 0.760525 
0.185224 -0.25562 0.948868 0.182342 -0.505028 0.843622 0.295388 -0.343643 0.891434 
0.759643 -0.228101 0.609026 0.78363 -0.0270273 0.62064 0.725081 -0.0336422 0.687842 
0.559367 -0.25377 0.789119 0.735403 -0.139796 0.663053 -0.984883 0.157035 -0.0731189 
0.0451855 -0.336846 0.940475 -0.984352 0.173045 -0.0332583 -0.910873 0.0950387 -0.401595 
0.405647 0.862516 -0.302519 -0.838969 0.512603 -0.182672 0.292914 0.914855 -0.277926 
0.453201 -0.636439 0.624143 -0.952694 -0.19786 0.230709 -0.917062 0.39858 -0.0114417 
0.513228 -0.769623 0.379839 -0.904061 0.194713 -0.380473 -0.670856 0.312133 0.6727 
-0.489231 0.0609558 0.870021 0.233186 -0.458238 0.857696 0.228899 -0.47659 0.848804 
0.222399 -0.415098 0.882175 -0.810506 0.011013 0.585626 -0.933086 0.106273 0.343593 
0.212329 -0.423103 0.880852 0.547274 -0.292707 0.784101 -0.910305 0.00627865 0.413891 
0.750864 0.18003 0.635447 -0.992318 0.059002 -0.108739 0.79431 0.371227 0.480898 
-0.974883 0.205531 0.0857964 0.874135 0.317642 0.367413 -0.0943261 -0.156724 0.983128 
-0.994892 0.0537729 -0.0854281 0.822517 0.324927 0.466786 -0.997996 0.0282967 0.0565936 
0.712441 0.638493 0.291126 -0.946518 0.272971 -0.17202 0.204724 0.972059 -0.114846 
-0.250461 0.959668 -0.127698 -0.355537 0.315598 0.879768 -0.739213 0.469084 0.483243 
0.0424404 -0.00012417 0.999099 -0.0535414 -0.180946 0.982035 -0.664922 -0.0376494 0.745963 
-0.588118 -0.0513714 0.807142 0.330736 -0.293845 0.89681 -0.990633 0.0234075 0.134533 
-0.786271 -0.0333148 0.616983 -0.937807 0.137933 0.318579 -0.984794 0.0527165 0.165533 
0.248307 -0.146645 0.957517 0.688756 0.243899 0.682736 -0.916818 0.177637 0.357618 
0.769545 0.20036 0.606347 -0.831938 0.102664 0.545289 0.652367 -0.042495 0.756711 
0.876095 0.273343 0.397168 -0.934557 -0.0164415 0.355433 -0.834095 -0.159521 0.528052 
-0.974657 -0.0827177 0.207848 -0.140859 -0.0308325 0.989549 0.873777 0.387152 0.294325 
-0.977859 0.0512374 0.202895 -0.992975 0.0133785 0.117568 0.809263 0.478379 0.340949 
-0.995835 0.0911454 0.00226893 -0.994469 0.0864227 -0.0596894 -0.958471 0.247335 0.141979 
0.638054 0.765322 0.0846707 -0.789523 0.609556 0.0713741 -0.259659 -0.173146 0.950051 
-0.268924 -0.145547 0.952101 -0.685573 -0.165583 0.708923 0.660733 0.0340624 0.749848 
-0.696503 -0.0821778 0.712833 -0.775738 -0.111222 0.621177 -0.835125 0.0509644 0.547694 
-0.799538 0.226416 0.556305 -0.577595 0.0162443 0.816162 -0.533885 0.125352 0.836214 
0.28054 -0.235982 0.930382 0.617885 -0.149656 0.771895 0.898246 0.27905 0.339538 
0.927699 0.237134 0.288344 0.0906893 -0.100127 0.990833 0.732256 0.406939 0.546079 
0.744667 0.538495 0.394328 -0.950284 0.108729 0.291785 -0.0746711 -0.106839 0.991468 
-0.0232467 -0.0468241 0.998633 0.740667 0.0368776 0.670859 0.861108 0.350173 0.368607 
0.783082 0.502353 0.366638 0.831801 0.330927 0.44564 0.742945 0.517399 0.424654 
0.835991 0.378933 0.3969 0.836662 0.132329 0.531494 0.632735 0.667786 0.392056 
-0.96757 0.0130708 0.252265 -0.898022 0.0522444 0.436837 -0.908153 0.144372 0.392956 
-0.808402 0.362435 0.463817 -0.899529 0.331443 0.284594 -0.561716 0.617877 0.550184 
0.266103 0.932167 0.245467 -0.300766 0.829116 0.471282 -0.5824 0.0477398 0.811499 
0.0702039 -0.193405 0.978604 0.389622 0.230908 0.891558 -0.0565374 0.119474 0.991226 
0.860338 -0.0633877 0.505767 0.374407 0.499634 0.781144 -0.413541 -0.0915377 0.905872 
0.420194 0.163142 0.892649 0.72505 0.364083 0.58459 -0.883863 0.206784 0.419556 
-0.585376 0.100744 0.804478 -0.727572 0.0536625 0.683929 0.358667 -0.0232308 0.933176 
0.512371 -0.192433 0.836926 0.14246 -0.172043 0.974734 0.239729 -0.338201 0.910028 
0.687011 -0.283663 0.668993 0.938204 0.23063 0.258036 0.624375 0.157247 0.765134 
-0.104398 -0.0895131 0.990499 0.809705 0.568875 0.14408 0.245644 -0.245108 0.93786 
0.611038 -0.317901 0.724963 0.414675 0.620141 0.665936 0.322523 0.0910822 0.942169 
-0.269813 -0.00745947 0.962884 0.82386 0.52658 0.209688 0.096637 -0.0685369 0.992957 
0.69512 -0.00612465 0.718867 0.472438 0.658336 0.586 0.537702 0.201139 0.818791 
0.0330085 0.00939811 0.999411 0.871351 0.472813 0.131127 0.215435 -0.229608 0.949141 
0.239211 -0.769366 0.592329 0.934959 -0.226094 0.273375 0.334774 0.88475 -0.324258 
-0.773298 -0.043269 0.632565 0.0164973 0.0152773 0.999747 -0.881632 0.0372793 0.470463 
-0.817732 0.0643071 0.571995 -0.776172 -0.00245358 0.630517 -0.867911 0.0563984 0.493507 
-0.758664 0.162753 0.630825 -0.824735 0.162172 0.541767 0.0586761 0.23448 0.970349 
0.599279 0.543989 0.587317 0.182765 0.486693 0.854241 0.00488688 0.46055 0.887621 
0.481248 0.575849 0.660907 -0.831513 0.19476 0.520245 -0.292536 0.531578 0.794888 
-0.183652 0.62806 0.756183 0.401962 0.696198 0.594756 0.642414 -0.225586 0.732404 
0.608876 -0.0261346 0.792835 -0.0517616 -0.200081 0.978411 0.744435 0.452163 0.491289 
0.172228 0.410379 0.895504 -0.702218 -0.0710083 0.708412 0.447962 0.196061 0.87229 
-0.579794 -0.3217 -0.748564 -0.356652 0.843882 -0.400826 0.245941 0.216546 -0.944786 
0.531277 -0.684951 -0.498585 0.836346 0.543387 -0.0724965 -0.0505627 -0.121871 0.991257 
0.869425 -0.304693 0.388925 0.156582 -0.561883 0.812262 0.93695 0.346308 0.0468631 
-0.374574 -0.395708 0.838516 0.602452 0.766984 0.220878 0.659148 -0.543716 0.519517 
-0.113874 -0.528684 0.841146 0.969752 0.180266 0.164576 -0.186274 0.530893 0.826713 
-0.510744 -0.120969 0.85118 0.750915 0.655385 0.0812227 0.553326 -0.226151 0.801677 
-0.363338 -0.310161 0.878513 0.966824 0.200479 0.158303 0.00885924 0.742355 0.669948 
-0.689577 -0.634519 0.349097 -0.48507 -0.36127 0.796362 -0.0962158 -0.453844 0.885871 
0.799259 0.551164 -0.239592 0.742075 0.462053 -0.485625 0.952965 0.222352 0.205956 
-0.711175 -0.0562271 0.700763 0.260857 0.145628 0.95433 0.710965 0.402602 0.576576 
-0.83067 0.0749055 0.551704 -0.590775 0.0775253 0.803104 -0.351587 -0.0384764 0.935364 
0.631661 0.440655 0.63783 -0.394583 0.0590418 0.916961 -0.1044 0.0897675 0.990476 
-0.557475 0.0613836 0.827921 -0.590281 0.152211 0.792717 -0.102961 0.171129 0.979854 
0.614046 0.488449 0.619972 -0.416217 0.224639 0.881079 -0.18697 0.178537 0.966006 
0.23957 0.405393 0.882192 -0.348931 0.259564 0.900486 0.1344 0.18675 0.973171 
-0.239118 0.329702 0.913301 0.527391 0.48327 0.698791 -0.393346 0.255655 0.88313 
0.0180909 0.630753 0.775773 -0.215213 0.375455 0.901508 0.381003 0.291791 0.877322 
-0.364763 -0.907867 -0.206703 -0.919266 0.352152 -0.175892 0.921016 -0.337237 0.194937 
0 0 -1 -0.894427 -0.447214 0 -1 0 0 
0.296215 0.934274 0.198465 1 0 0 0 0.447214 -0.894427 
0.988991 -0.0384134 0.142902 0.3599 -0.697225 0.61996 -0.00183008 -0.478082 0.878313 
0.184892 0.847742 0.49714 -0.111046 -0.627068 0.771008 -0.311976 0.216466 0.925102 
-0.179769 -0.017811 0.983548 0.653229 -0.0708518 0.753838 -0.218849 -0.341837 0.913922 
0.946694 0.319413 0.041782 -0.23974 0.538272 0.807953 0.554777 0.210328 0.804975 
0.126552 -0.0148991 0.991848 0.234823 0.18964 0.95336 0.316616 0.255623 0.913461 
0.602963 0.233147 0.76294 0.201224 0.173404 0.964075 0.450837 0.313063 0.835905 
0.0253978 0.232811 0.97219 0.357798 0.372086 0.856465 0.251834 0.463986 0.849292 
0.328801 -0.861761 0.38634 -0.872884 -0.483869 0.0628091 0.582544 0.383077 0.716864 
0 0 1 -0.584698 0.702784 0.405244 0.784916 -0.338568 0.518921 
0.727904 0.490537 0.479093 0.864146 -0.0413599 0.501539 0.490066 0.744812 0.452869 
0.556247 0.240283 0.795521 0.522087 0.283938 0.804242 0.438921 0.329579 0.835898 
0.531334 0.390487 0.751801 -0.340706 -0.189002 0.920976 0.518962 0.436328 -0.735048 
-0.494204 0.193094 -0.84763 0.302365 0.945479 -0.121014 0.316388 -0.494242 -0.809706 
0.966236 0.256608 -0.0232382 0.501503 0.473381 -0.724158 -0.499498 0.269972 -0.823175 
0.3074 0.946071 -0.102247 0.289901 -0.440389 -0.849715 0.969419 0.242906 -0.0349707 
0.223885 -0.148084 -0.9633 -0.303355 -0.838432 -0.452778 -0.70237 0.331417 -0.629951 
0.868419 -0.45557 -0.195714 0.529682 0.762783 -0.370943 0.199131 -0.151157 -0.968245 
-0.367096 -0.873694 -0.319217 -0.782305 0.380346 -0.493291 0.875977 -0.471261 -0.102849 
0.515846 0.813165 -0.269567 0 0.274721 -0.961524 -0.894427 -0.447214 0 
-0.98387 0.178885 0 0.98387 0.178885 0 0 1 0 
0.631545 0.0182323 -0.775125 0.0501738 -0.229588 -0.971994 0.152174 0.184598 -0.970962 
0.6182 0.45094 -0.643803 0.410642 0.476699 -0.777259 0.614314 0.0387882 -0.788107 
0.457623 -0.150857 -0.876256 -0.0314332 0.0817644 -0.996156 0.856987 0.445794 -0.258538 
0.509224 0.472415 -0.719385 0.178933 0.390244 -0.903157 -0.0891751 -0.27166 -0.958253 
-0.0733808 0.699901 -0.710461 0.880773 -0.0901624 -0.464876 0.763251 0.645575 -0.0261034 
-0.221287 -0.163267 -0.961445 -0.0960476 0.745958 -0.65903 0.786202 -0.0671836 -0.614307 
0.759716 0.649431 -0.0327229 0.342395 -0.822217 0.454669 -0.824968 -0.490131 0.281425 
0.713654 0.356371 0.603073 -0.475489 0.754763 0.451931 0.407189 -0.857458 0.314584 
-0.852172 -0.497723 0.161478 0.787436 0.408027 0.462016 -0.49296 0.807837 0.323094 
0.640445 0.249395 -0.726383 -0.14768 -0.120423 -0.981677 0.320738 0.723851 -0.610874 
0.164497 -0.585083 -0.794115 0.453608 0.239745 -0.858349 0.206502 -0.275919 -0.938736 
-0.0156407 0.395331 -0.918405 0.861048 -0.0248996 -0.507914 0 0.274721 0.961524 
0.755348 0.605231 -0.251286 0.295697 -0.183182 -0.937554 0.0395374 -0.0160429 -0.999089 
0.882977 0.229023 -0.409755 0.00925478 -0.0366703 -0.999285 0.772793 0.490854 -0.402309 
0.871407 0.295656 -0.391455 -0.117997 -0.317779 -0.940794 -0.252171 -0.00195656 -0.967681 
0.629886 0.54677 -0.551621 0.754594 0.0127867 -0.656067 0.178041 0.543792 -0.820117 
0.909124 0.34834 -0.228369 -0.00937216 0.0662842 -0.997757 0.108639 -0.0959754 -0.989437 
-0.148086 0.162258 -0.975573 0.599566 0.691811 -0.402391 0.124275 0.613563 -0.779805 
0.787371 0.437372 -0.434457 -0.548607 0.0430268 -0.834972 0.445369 0.30189 -0.842917 
0.518104 0.751522 -0.40839 0.542353 0.438065 -0.716904 -0.480432 0.089592 -0.872444 
-0.831676 -0.040403 -0.553789 -0.916927 0.170935 -0.360591 -0.469897 -0.231468 -0.851833 
0.542129 0.264371 -0.797624 0.364182 0.193405 -0.911025 0.734802 0.45647 -0.501698 
-0.125072 -0.126021 0.984112 -0.903711 0.146151 -0.402424 0.37833 0.406221 -0.831776 
0.712672 0.355797 -0.604572 0.350796 0.324782 -0.878328 0.685034 0.493198 -0.536175 
0.106531 0.5042 -0.856991 0.364068 0.193178 -0.911118 0.624989 0.347507 -0.699019 
-0.122191 -0.117863 0.985483 0.599469 0.168704 -0.782416 -0.0675953 -0.415199 -0.907216 
0.0672107 0.434163 -0.898324 0.796177 0.0521428 -0.602813 0.0437924 0.13723 -0.989571 
0.910354 0.194084 -0.365496 0.648218 0.692882 -0.315798 -0.668592 -0.0223758 -0.743293 
0.597011 0.578113 -0.556204 -0.704149 -0.148241 -0.694405 -0.682625 0.0203835 -0.730485 
-0.33607 -0.272878 -0.901441 -0.773703 -0.0764931 -0.628913 -0.206246 -0.186812 -0.960502 
-0.541767 -0.0658139 -0.837948 0.394412 0.127987 -0.909977 0.797742 0.271997 -0.538169 
0.149751 -0.09158 -0.984473 0.319917 0.120611 -0.939737 0.772367 0.365329 -0.519599 
0.23822 0.110488 -0.964906 0.835386 0.402457 -0.374377 0.0864156 0.0727713 -0.993598 