# vtk DataFile Version 4.2
vtk output
ASCII
DATASET POLYDATA
POINTS 914 float
130.51 121.504 179.559 130.473 121.385 179.687 130.626 121.522 179.584 
130.523 121.685 179.554 129.872 121.573 179.988 130.548 121.192 179.921 
131.181 122.168 179.499 132.459 122.1 179.79 132.332 122.002 179.834 
132.371 122.164 179.738 130.68 122.873 179.403 130.315 123.109 179.492 
132.554 122.217 179.819 130.614 123.953 179.382 131.624 123.977 179.315 
129.745 120.73 180.636 129.74 121.055 180.363 130.08 120.622 180.692 
130.884 121.176 180.053 129.883 122.082 179.821 132.062 122.159 179.696 
132.456 121.882 180.044 132.915 122.397 180.084 132.568 123.441 179.594 
130.386 124.213 179.471 130.547 125.041 179.546 131.961 125.832 179.582 
130.765 126.668 179.892 131.458 127.381 179.935 130.2 124.892 179.661 
129.846 125.022 179.921 127.591 119.282 182.771 128.448 119.755 182.163 
128.594 120.482 181.46 129.986 119.939 181.846 128.574 120.949 181.23 
131.103 120.545 181.183 129.09 124.619 180.452 129.546 126.755 180.568 
134.336 127.707 180.621 130.668 130.956 181.321 132.463 130.886 181.037 
131.03 133.63 181.965 127.865 119.15 183.161 127.877 119.532 182.583 
137.145 123.934 182.279 135.892 125.594 181.154 129.014 126.334 180.923 
135.241 127.062 180.909 136.478 129.65 182.095 132.949 133.479 181.849 
132.159 135.426 182.284 127.858 118.843 183.893 127.044 120.143 182.948 
139.598 124.23 183.777 138.51 125.479 182.701 128.454 129.174 182.48 
129.546 130.569 181.862 136.061 131.76 182.486 129.852 133.399 182.419 
134.566 134.738 182.71 132.616 135.869 182.435 130.696 137.35 183.061 
132.212 138.359 183.112 133.131 138.114 183.191 131.179 142.385 184.092 
126.577 119.083 184.297 126.401 122.126 183.451 138.044 123.073 183.558 
135.57 136.036 183.837 135.899 135.674 183.955 133.329 139.796 183.847 
132.502 141.025 183.937 130.393 143.535 184.507 131.698 143.382 184.378 
130.861 144.403 184.583 131.991 143.876 184.602 129.774 147.198 185.405 
130.676 146.637 185.133 130.083 147.508 185.395 130.474 148.023 185.578 
130.767 147.752 185.555 130.278 148.417 185.738 126.367 118.641 185.447 
125.987 119.641 184.557 126.083 120.226 184.114 134.491 139.608 184.6 
132.965 141.722 184.374 129.614 142.711 184.689 133.536 142.866 185.299 
132.741 145.068 185.63 132.093 146.028 185.52 131.37 146.829 185.417 
131.735 147.491 186.093 129.384 149.093 186.168 131.043 148.587 186.213 
130.061 150.072 186.691 128.462 118.389 185.616 137.857 121.815 185.127 
141.912 124.377 186 142.201 123.922 186.528 142.118 125.19 186.075 
138.448 133.524 185.896 134.575 140.638 185.224 135.289 140.719 186.35 
134.468 142.479 186.328 131.948 147.725 186.553 128.58 149.309 186.633 
129.783 150.558 187.013 124.857 118.47 187.14 124.59 118.469 187.377 
124.755 119.344 186.558 135.371 120.373 186.317 142.33 123.502 186.993 
142.074 125.778 186.081 140.669 129.782 186.223 135.911 139.848 186.881 
128.219 152.237 187.977 129.196 152.083 188.025 129.633 151.706 187.995 
127.774 153.341 188.636 128.586 152.931 188.402 128.034 153.506 188.678 
128.083 153.811 188.923 124.369 118.174 188.026 142.986 124.078 187.367 
143.58 124.084 188.191 143.506 123.78 188.221 143.335 124.466 187.751 
142.835 126.895 187.736 142.063 128.663 187.739 139.715 132.834 187.661 
127.247 148.557 187.674 131.437 149.751 188.141 126.994 151.985 188.642 
127.017 153.505 189.127 127.915 154.322 189.377 127.214 154.922 189.718 
127.228 155.153 189.919 124.251 126.908 188.132 134.881 142.977 188.062 
133.9 145.102 188.111 130.434 151.487 188.906 127.099 155.416 190.272 
122.906 118.138 190.045 143.29 123.072 188.795 143.782 123.562 189.234 
143.972 124.281 189.439 130.419 151.773 189.543 128.796 153.947 189.93 
126.592 155.747 190.765 126.086 156.622 191.657 126.066 156.499 191.613 
126.125 156.664 191.733 123.352 117.357 191.113 123.991 117.252 190.695 
124.986 117.106 190.93 122.394 120.383 189.821 140.654 121.424 189.076 
142.226 122.069 189.729 143.621 123.248 189.259 143.096 127.681 190.285 
125.635 149.44 190.008 126.274 156.086 191.289 125.834 156.843 192.257 
126.708 156.309 191.669 122.658 117.584 191.44 122.171 117.704 191.961 
122.007 118.31 191.383 143.985 124.414 190.448 143.692 126.077 190.427 
131.025 151.241 191.007 124.959 155.914 192.605 125.809 157.346 193.089 
125.585 157.468 193.35 126.552 117.122 192.578 143.492 123.051 190.289 
143.516 123.304 191.2 143.584 123.942 192.043 143.667 124.532 192.002 
143.83 124.775 191.257 141.884 130.183 191.441 124.384 152.952 192.556 
128.552 154.977 192.311 125.078 157.711 194.12 121.059 118.14 193.177 
120.591 120.635 193.197 141.714 121.447 192.075 143.081 122.933 192.583 
126.076 157.541 193.827 120.449 116.943 195.223 120.449 116.667 195.79 
120.283 117.162 195.111 120.271 117.483 194.808 141.438 130.703 193.417 
139.995 133.276 194.473 129.142 154.442 193.975 123.698 155.944 194.672 
125.064 158.401 195.469 124.757 158.625 195.806 124.402 158.751 196.146 
124.446 158.906 196.383 119.71 116.758 196.619 121.719 116.362 195.443 
121.81 116.235 195.99 119.709 117.318 195.875 139.716 120.243 194.471 
142.02 121.717 194.475 142.936 123.284 194.102 142.859 123.978 195.053 
142.762 124.926 195.413 123.843 157.955 195.991 126.244 157.887 195.692 
124.136 159.01 197.045 119.285 116.319 197.689 123.297 116.296 195.975 
142.518 122.889 195.494 142.661 123.474 195.558 141.685 128.998 195.789 
123.32 157.482 196.619 124.592 159.083 197.007 124.319 159.151 197.3 
118.741 116.387 198.563 141.396 121.128 196.501 141.236 120.829 197.308 
141.92 121.799 195.989 142.07 122.567 196.977 141.893 127.241 197.054 
124.851 159.056 197.303 118.416 115.868 199.736 118.321 115.985 199.594 
119.144 115.89 199.221 118.088 116.425 199.421 140.635 120.302 197.7 
141.096 120.635 197.579 141.168 120.784 197.729 117.983 120.596 198.229 
123.013 158.613 198.983 123.582 159.134 198.692 117.372 117.492 199.872 
139.661 119.865 197.775 141.019 120.763 198.272 141.748 122.661 198.823 
141.762 123.458 199.208 141.67 125.124 199.27 123.881 159.414 199.367 
117.436 116.044 201.431 122.523 115.729 200.242 141.152 121.31 199.525 
117.243 115.61 202.828 139.839 119.948 200.191 141.178 121.703 200.713 
120.941 151.194 200.526 122.87 159.354 201.574 116.486 121.382 201.935 
141.153 122.758 201.856 125.57 158.767 202.045 124.816 159.26 201.553 
123.22 159.712 202.484 122.585 159.994 203.448 116.52 115.556 204.287 
116.847 115.445 204.162 117.15 115.371 204.247 116.613 115.658 203.953 
115.976 116.754 204.077 140.9 123.102 203.328 117.921 132.164 202.754 
122.416 160.019 203.97 116.392 115.478 204.903 116.297 115.596 204.874 
116.654 115.558 204.416 116.41 115.42 205.189 116.474 115.538 204.627 
117.155 115.351 204.836 116.452 115.916 204.366 140.749 122.37 203.958 
139.906 128.758 204.208 121.711 159.176 204.197 122.464 160.076 204.319 
122.543 160.112 204.046 116.466 115.152 206.278 116.46 115.564 205.12 
115.824 116.057 205.371 137.976 118.851 204.105 140.392 121.088 204.405 
122.375 159.972 204.844 139.321 119.572 204.928 129.508 153.863 206.076 
122.583 160.035 205.882 115.804 114.954 207.818 114.376 117.823 207.665 
139.72 120.073 205.927 140.308 121.875 206.715 140.287 124.197 206.696 
135.254 142.635 207.36 120.749 158.724 207.177 123.477 160.09 206.613 
121.87 160.013 207.706 121.242 160.968 209.995 121.222 160.922 210.017 
121.241 160.95 210.057 121.257 160.923 209.97 121.277 160.951 210.009 
114.989 115.351 208.471 116.686 114.54 209.06 139.886 120.546 207.403 
138.752 132.872 207.848 120.865 159.445 208.467 121.694 160.295 208.912 
121.217 160.778 209.958 121.189 160.833 210.196 121.364 160.841 209.956 
121.313 160.921 210.155 115.784 114.633 209.992 114.718 115.421 209.111 
116.629 136.577 208.057 121.325 160.533 209.634 121.684 160.689 209.805 
115.025 114.947 210.351 114.348 115.856 209.72 139.29 119.742 207.977 
139.848 123.796 210.398 120.628 160.097 210.408 120.925 160.679 211.358 
137.71 118.717 209.401 139.704 121.677 210.624 125.18 159.36 210.555 
122.168 160.925 211.15 120.523 160.421 212.134 120.711 160.637 212.549 
121.477 160.986 211.87 136.407 118.147 211.198 120.098 159.681 211.565 
121.033 160.884 212.991 114.464 115.092 214.171 139.184 120.457 211.981 
114.93 133.367 212.876 124.137 160.233 212.567 120.201 160.299 213.965 
115.933 114.471 214.379 113.854 115.716 213.876 116.396 145.375 214.713 
115.279 114.596 215.625 118.36 114.411 215.221 138.017 119.095 213.55 
124.722 159.925 215.192 113.166 116.425 215.712 138.661 119.949 214.398 
118.283 156.96 216.315 112.486 117.642 217.085 136.244 118.179 215.459 
138.195 119.454 214.997 136.462 118.223 215.069 112.19 119.894 217.788 
138.996 121.022 216.321 139.261 121.836 215.908 139.277 123.07 216.766 
119.02 159.074 216.777 119.514 160.158 218.189 138.543 120.065 216.027 
119.325 159.914 218.642 119.966 160.625 218.59 122.193 161.211 218.191 
113.384 115.294 219.597 112.52 116.555 219.426 138.365 120.225 217.715 
137.905 135.423 219.836 120.744 161.079 219.447 115.633 114.326 220.258 
137.897 119.698 218.268 111.983 121.051 220.055 132.207 148.683 220.186 
116.954 153.03 220.579 119.581 160.141 220.946 111.988 117.562 221.351 
136.039 118.392 219.545 124.052 160.212 220.348 120.686 161.014 221.226 
121.126 161.147 220.802 135.676 141.185 221.561 120.279 160.757 222.26 
121.957 161.033 221.691 113.323 114.913 224.251 114.916 114.316 223.421 
111.732 117.766 223.406 136.598 118.792 221.183 122.359 160.829 222.139 
112.258 116.126 224.058 111.79 116.987 224.955 139.027 123.956 224.073 
132.663 146.589 223.824 129.969 151.751 223.504 125.067 158.537 223.257 
120.421 160.679 223.484 137.995 120.341 223.66 138.593 121.654 224.358 
121.346 160.836 223.321 120.979 160.817 223.531 137.568 119.771 224.233 
131.616 147.919 224.885 119.179 157.682 225.641 120.166 159.246 225.026 
120.489 160.481 224.338 121.532 160.434 224.101 120.499 160.588 224.187 
[...]
POINT_DATA 914
SCALARS scalars float
LOOKUP_TABLE default
1 1 1 1 1 1 1 1 1 
1 1 1 1 1 1 1 1 1 
1 1 1 1 1 1 1 1 1 
1 1 1 1 1 1 1 1 1 
1 1 1 1 1 1 1 1 1 
1 1 1 1 1 1 1 1 1 
1 1 1 1 1 1 1 1 1 
1 1 1 1 1 1 1 1 1 
1 1 1 1 1 1 1 1 1 
1 1 1 1 1 1 1 1 1 
1 1 1 1 1 1 1 1 1 
1 1 1 1 1 1 1 1 1 
1 1 1 1 1 1 1 1 1 
1 1 1 1 1 1 1 1 1 
1 1 1 1 1 1 1 1 1 
1 1 1 1 1 1 1 1 1 
1 1 1 1 1 1 1 1 1 
1 1 1 1 1 1 1 1 1 
1 1 1 1 1 1 1 1 1 
1 1 1 1 1 1 1 1 1 
1 1 1 1 1 1 1 1 1 
1 1 1 1 1 1 1 1 1 
1 1 1 1 1 1 1 1 1 
1 1 1 1 1 1 1 1 1 
1 1 1 1 1 1 1 1 1 
1 1 1 1 1 1 1 1 1 
1 1 1 1 1 1 1 1 1 
1 1 1 1 1 1 1 1 1 
1 1 1 1 1 1 1 1 1 
1 1 1 1 1 1 1 1 1 
1 1 1 1 1 1 1 1 1 
1 1 1 1 1 1 1 1 1 
1 1 1 1 1 1 1 1 1 
1 1 1 1 1 1 1 1 1 
1 1 1 1 1 1 1 1 1 
1 1 1 1 1 1 1 1 1 
1 1 1 1 1 1 1 1 1 
1 1 1 1 1 1 1 1 1 
1 1 1 1 1 1 1 1 1 
1 1 1 1 1 1 1 1 1 
1 1 1 1 1 1 1 1 1 
1 1 1 1 1 1 1 1 1 
1 1 1 1 1 1 1 1 1 
1 1 1 1 1 1 1 1 1 
1 1 1 1 1 1 1 1 1 
1 1 1 1 1 1 1 1 1 
1 1 1 1 1 1 1 1 1 
1 1 1 1 1 1 1 1 1 
1 1 1 1 1 1 1 1 1 
1 1 1 1 1 1 1 1 1 
1 1 1 1 1 1 1 1 1 
1 1 1 1 1 1 1 1 1 
1 1 1 1 1 1 1 1 1 
1 1 1 1 1 1 1 1 1 
1 1 1 1 1 1 1 1 1 
1 1 1 1 1 1 1 1 1 
1 1 1 1 1 1 1 1 1 
1 1 1 1 1 1 1 1 1 
1 1 1 1 1 1 1 1 1 
1 1 1 1 1 1 1 1 1 
1 1 1 1 1 1 1 1 1 
1 1 1 1 1 1 1 1 1 
1 1 1 1 1 1 1 1 1 
1 1 1 1 1 1 1 1 1 
1 1 1 1 1 1 1 1 1 
1 1 1 1 1 1 1 1 1 
1 1 1 1 1 1 1 1 1 
1 1 1 1 1 1 1 1 1 
1 1 1 1 1 1 1 1 1 
1 1 1 1 1 1 1 1 1 
1 1 1 1 1 1 1 1 1 
1 1 1 1 1 1 1 1 1 
1 1 1 1 1 1 1 1 1 
1 1 1 1 1 1 1 1 1 
1 1 1 1 1 1 1 1 1 
1 1 1 1 1 1 1 1 1 
1 1 1 1 1 1 1 1 1 
1 1 1 1 1 1 1 1 1 
1 1 1 1 1 1 1 1 1 
1 1 1 1 1 1 1 1 1 
1 1 1 1 1 1 1 1 1 
1 1 1 1 1 1 1 1 1 
1 1 1 1 1 1 1 1 1 
1 1 1 1 1 1 1 1 1 
1 1 1 1 1 1 1 1 1 
1 1 1 1 1 1 1 1 1 
1 1 1 1 1 1 1 1 1 
1 1 1 1 1 1 1 1 1 
1 1 1 1 1 1 1 1 1 
1 1 1 1 1 1 1 1 1 
1 1 1 1 1 1 1 1 1 
1 1 1 1 1 1 1 1 1 
1 1 1 1 1 1 1 1 1 
1 1 1 1 1 1 1 1 1 
1 1 1 1 1 1 1 1 1 
1 1 1 1 1 1 1 1 1 
1 1 1 1 1 1 1 1 1 
1 1 1 1 1 1 1 1 1 
1 1 1 1 1 1 1 1 1 
1 1 1 1 1 1 1 1 1 
1 1 1 1 1 1 1 1 1 
1 1 1 1 1 
NORMALS Normals float
-0.176512 -0.389351 -0.904018 -0.141431 -0.747288 -0.649274 0.228758 -0.520332 -0.822754 
-0.177349 -0.111321 -0.977832 -0.573643 -0.386349 -0.722266 -0.100023 -0.742265 -0.662599 
0.131539 -0.445169 -0.885732 0.471615 -0.491736 -0.731967 0.0575506 -0.716038 -0.695685 
0.259751 -0.272766 -0.926352 -0.221289 -0.0699927 -0.972693 -0.325074 -0.0315688 -0.945162 
0.463425 0.123503 -0.877488 -0.167452 0.0570411 -0.984229 -0.00364224 0.0294556 -0.999559 
-0.232809 -0.722954 -0.65049 -0.520236 -0.450589 -0.725482 0.0161252 -0.821852 -0.569473 
0.183682 -0.783716 -0.593338 -0.624051 -0.0996425 -0.775004 -0.0109618 -0.823109 -0.567778 
0.347972 -0.74705 -0.566419 0.624797 -0.364345 -0.690567 0.41022 -0.0745016 -0.908939 
-0.484295 0.0792259 -0.87131 -0.308085 0.200938 -0.929897 0.171367 0.142822 -0.9748 
-0.362872 0.231109 -0.902725 -0.0143612 0.274596 -0.961452 -0.355741 0.167608 -0.919433 
-0.553429 0.228569 -0.80092 -0.311661 -0.683209 -0.660373 -0.295499 -0.628818 -0.719213 
-0.384602 -0.592912 -0.707486 0.15977 -0.895934 -0.414458 -0.585232 -0.33094 -0.740258 
0.386412 -0.838231 -0.384779 -0.665083 0.0920384 -0.741076 -0.486716 0.215829 -0.846478 
0.322478 0.191245 -0.927056 -0.318148 0.21621 -0.923057 0.0766211 0.313902 -0.946359 
-0.278146 0.270436 -0.921683 0.0705498 -0.911272 -0.405718 -0.151817 -0.654618 -0.740558 
0.463593 -0.444778 -0.766325 0.45883 -0.0349651 -0.887836 -0.701442 0.13476 -0.699871 
0.432636 0.191403 -0.881017 0.495353 0.202371 -0.844791 0.112257 0.258604 -0.959439 
-0.0434405 0.27203 -0.961308 -0.0774054 -0.934119 -0.348468 -0.676835 -0.200792 -0.708221 
0.598643 -0.360343 -0.715387 0.628839 0.017184 -0.777346 -0.690776 0.218501 -0.689265 
-0.609379 0.219435 -0.76191 0.5944 0.198492 -0.779288 -0.505938 0.236866 -0.82941 
0.440855 0.264363 -0.857764 0.26853 0.284752 -0.920222 -0.142248 0.214759 -0.966253 
0.118958 0.208749 -0.970707 0.297489 0.203024 -0.932889 0.10228 0.189527 -0.976534 
-0.547591 -0.687093 -0.477543 -0.854127 0.0493315 -0.517719 0.422037 -0.669986 -0.61074 
0.556709 0.351315 -0.752763 0.724577 0.346832 -0.595563 0.424465 0.338161 -0.839926 
0.367614 0.300113 -0.880223 -0.268402 0.235664 -0.934036 0.261037 0.123512 -0.957394 
-0.138434 0.252602 -0.957616 0.460866 0.226653 -0.858039 -0.416196 0.264845 -0.869849 
0.168068 0.253231 -0.952695 -0.072581 0.376529 -0.923557 -0.118288 0.441931 -0.889216 
0.399008 0.435571 -0.806889 0.180865 0.470994 -0.863396 -0.363969 -0.860713 -0.35595 
-0.806162 -0.363436 -0.466923 -0.84654 -0.19202 -0.496486 0.632423 0.281733 -0.721573 
0.51514 0.279901 -0.810115 -0.579766 0.159529 -0.799013 0.72471 0.38047 -0.574489 
0.628051 0.348043 -0.696002 0.599429 0.331842 -0.7284 0.368743 0.350427 -0.860947 
0.656284 0.449171 -0.606248 -0.214364 0.423961 -0.879946 0.600846 0.533381 -0.595389 
0.288181 0.586431 -0.757001 0.136568 -0.959699 -0.245615 0.397708 -0.795319 -0.457488 
0.642716 -0.110192 -0.758139 0.625927 -0.520851 -0.580456 0.783404 -0.0507737 -0.619436 
0.74878 0.285886 -0.597995 0.650571 0.341482 -0.678341 0.81948 0.404259 -0.406235 
0.801934 0.395154 -0.448057 0.706583 0.472603 -0.526676 -0.624713 0.217411 -0.749977 
0.424262 0.649694 -0.630793 -0.45058 -0.745646 -0.490907 -0.667532 -0.512607 -0.540033 
-0.795839 -0.288574 -0.532321 0.211224 -0.966175 -0.147955 0.607037 -0.573072 -0.550541 
0.68841 0.17019 -0.705073 0.798937 0.281659 -0.531383 0.852287 0.465571 -0.238435 
-0.148473 0.397325 -0.905587 0.243238 0.443156 -0.862814 0.36411 0.620031 -0.694972 
-0.281433 0.435128 -0.855254 0.357975 0.596433 -0.718415 -0.0792621 0.57104 -0.817087 
0.335789 0.65963 -0.672409 -0.572124 -0.657623 -0.490109 0.764468 -0.135892 -0.630176 
0.903022 -0.0978186 -0.418309 0.818514 -0.347786 -0.457251 0.844887 0.0239966 -0.534406 
0.881019 0.233368 -0.411515 0.821956 0.310475 -0.477487 0.836847 0.454974 -0.304443 
-0.786436 -0.0684086 -0.613872 0.76142 0.548198 -0.346003 -0.644394 0.200087 -0.738053 
-0.592103 0.356122 -0.722905 0.361004 0.714492 -0.599314 -0.321284 0.564158 -0.760593 
0.320989 0.768983 -0.55284 -0.838154 0.179081 -0.515196 0.843513 0.449494 -0.29401 
0.878427 0.424784 -0.218917 0.777973 0.564499 -0.275861 0.0234598 0.80736 -0.589593 
-0.680406 -0.5514 -0.482707 0.663509 -0.679941 -0.312148 0.90649 -0.382149 -0.179548 
0.987126 0.0332376 -0.156456 0.734979 0.620733 -0.272941 0.675925 0.650668 -0.346059 
-0.332468 0.669402 -0.664353 -0.299883 0.660542 -0.688298 -0.704402 0.37048 -0.605444 
0.16332 0.81912 -0.54988 -0.425191 -0.843874 -0.327245 -0.189614 -0.960111 -0.205508 
-0.0586201 -0.986166 -0.155048 -0.847927 -0.138146 -0.511797 0.35551 -0.86477 -0.354664 
0.550674 -0.821411 -0.148464 0.841217 -0.5319 -0.0971428 0.934648 0.348221 0.0719443 
-0.85087 -0.0570117 -0.522273 -0.204027 0.58664 -0.783726 -0.496276 0.70313 -0.509233 
0.464855 0.79223 -0.395324 -0.54645 -0.761613 -0.348335 -0.50339 -0.780736 -0.370202 
-0.797261 -0.337949 -0.500166 0.996375 -0.0127447 0.0841125 0.957873 0.281297 0.0578924 
0.894491 0.44706 -0.00486256 -0.747941 0.289377 -0.597365 0.104673 0.901251 -0.420465 
-0.279061 0.811067 -0.514097 0.208412 -0.975139 -0.075287 0.703844 -0.709984 0.0229507 
0.89808 -0.427183 0.104724 0.937859 -0.194645 0.287288 0.962756 0.013479 0.270034 
0.98342 0.113616 0.141335 0.849719 0.516905 -0.103862 -0.841223 0.129977 -0.524833 
0.71695 0.681388 -0.147284 -0.499446 0.661569 -0.559357 -0.81634 -0.296723 -0.495525 
-0.882584 0.049414 -0.46755 0.585018 -0.810629 -0.0251881 0.857651 -0.443468 0.260328 
0.417862 0.863189 -0.283365 -0.551218 -0.683378 -0.478701 -0.480522 -0.81509 -0.323615 
-0.627167 -0.629421 -0.458793 -0.676698 -0.484324 -0.554536 0.880945 0.466296 0.0806506 
0.893427 0.448062 0.0320808 0.832193 0.552901 -0.0419 -0.801322 0.282814 -0.527162 
0.0347718 0.890513 -0.453626 0.0117506 0.866305 -0.499377 -0.549824 0.677345 -0.48877 
0.0260526 0.934454 -0.355129 -0.579687 -0.7015 -0.414561 -0.212089 -0.932783 -0.291433 
-0.169287 -0.967384 -0.188439 -0.802821 -0.371183 -0.466584 0.331895 -0.941145 -0.0639727 
0.773163 -0.633634 0.0269716 0.93343 -0.328764 0.143605 0.978934 -0.0991528 0.178487 
0.963943 0.0774537 0.254588 -0.720414 0.453106 -0.52507 0.5366 0.826784 -0.168785 
-0.610861 0.722509 -0.323774 -0.32397 -0.9076 -0.26703 0.0367384 -0.992449 -0.117025 
0.919451 -0.333958 0.207561 0.943445 -0.136748 0.302013 0.890787 0.369447 0.264589 
-0.901284 0.313969 -0.298513 0.207847 0.950728 -0.230035 -0.1372 0.972103 -0.19024 
-0.362924 -0.888246 -0.281611 0.8023 -0.595215 0.0450952 0.901008 -0.433238 0.0221376 
0.878098 -0.431897 0.205933 0.934422 -0.306406 0.181577 0.93694 0.217144 0.273846 
0.38544 0.912731 -0.135494 -0.301837 -0.923408 -0.237089 -0.616142 -0.688133 -0.3832 
-0.235781 -0.917602 -0.320023 -0.640377 -0.710747 -0.291128 0.537488 -0.842836 0.0270837 
0.699972 -0.71174 0.0588771 0.889848 -0.364749 0.274095 -0.892958 0.0454418 -0.44784 
-0.790815 0.562628 -0.24096 -0.562414 0.807398 -0.178321 -0.863848 -0.309437 -0.397512 
0.192344 -0.980214 -0.0467442 0.901023 -0.373891 0.219916 0.964276 -0.225411 0.139149 
0.983637 -0.0886897 0.156819 0.977413 0.0269209 0.209617 -0.221354 0.967094 -0.125425 
-0.814156 -0.42979 -0.390423 0.0680816 -0.996669 -0.0449064 0.883926 -0.431215 0.180908 
-0.212258 -0.948776 -0.234033 0.547294 -0.835515 0.0488136 0.928392 -0.356977 0.103224 
-0.957964 0.0668751 -0.278986 -0.532339 0.801355 -0.272846 -0.921913 0.136635 -0.362501 
0.986102 -0.0285954 0.163659 0.736617 0.676231 0.0103203 0.376281 0.925775 0.0367809 
0.113463 0.9887 -0.0979743 -0.436061 0.853282 -0.285939 -0.809205 -0.501015 -0.306873 
-0.317122 -0.942991 -0.100998 0.0123659 -0.999885 -0.00876701 -0.987117 -0.0640446 -0.146621 
-0.902195 -0.240996 -0.357722 0.988729 -0.0481543 0.141763 -0.912708 0.156628 -0.377403 
-0.686271 0.719109 -0.109157 -0.466181 -0.854684 -0.228454 -0.753474 -0.590546 -0.289021 
-0.0692897 -0.978045 -0.196535 0.423188 -0.892629 -0.155323 0.256483 0.96081 0.105172 
-0.0508842 -0.995855 -0.0753876 -0.780166 -0.619662 -0.085795 0.983032 -0.12621 0.133111 
0.971035 0.100419 0.216809 -0.815447 0.553405 -0.169674 -0.346689 0.934812 0.0770192 
0.0777816 0.994362 -0.0720683 -0.165278 -0.946061 -0.27866 0.531229 -0.577214 -0.620177 
-0.80939 -0.485047 -0.331084 0.365612 -0.930767 -0.000509102 0.922234 -0.375091 0.0937584 
-0.548911 0.83018 0.0974576 0.629874 -0.771561 0.0891793 0.848114 0.524282 -0.0763586 
-0.511405 0.85715 -0.0613108 -0.42592 -0.88462 -0.189843 -0.953632 -0.0512983 -0.296572 
0.78176 -0.610001 0.129422 0.957491 -0.0777366 0.27779 0.976939 0.0442427 0.208885 
0.911291 0.409118 -0.0465978 -0.902334 0.4111 -0.12958 0.227615 0.9654 -0.127254 
-0.334784 0.920055 -0.203515 -0.35577 0.85629 -0.374427 -0.928705 0.28732 -0.234423 
-0.394809 0.875238 0.279434 -0.17735 0.410478 -0.894458 0.508871 0.834342 -0.211952 
-0.654287 -0.710743 -0.258367 -0.137408 -0.981578 -0.132751 0.949095 -0.273924 0.155514 
0.970635 0.193908 0.142366 -0.798443 0.549555 -0.245923 -0.194378 0.903998 -0.380794 
-0.761651 0.390901 -0.516802 -0.836211 0.545491 0.0564825 0.21829 0.726644 -0.651413 
0.0199731 0.999797 -0.00250087 -0.30089 -0.951428 -0.0651977 -0.78795 -0.585394 -0.190917 
-0.920266 0.191534 -0.341211 -0.44319 0.715502 -0.540037 0.204239 0.885268 -0.417835 
-0.601244 -0.794773 -0.0827108 -0.892251 -0.406981 -0.195588 0.697637 -0.712864 0.0716132 
0.993104 0.0230751 0.114947 -0.850725 0.453488 -0.265736 -0.720018 0.687915 -0.0913603 
0.490374 -0.871409 0.0134124 0.975731 -0.11381 0.187075 0.677916 0.732937 -0.0568567 
0.210492 0.969472 -0.125769 -0.719454 0.693716 -0.0338235 -0.690142 0.72222 -0.045855 
-0.302889 0.952845 -0.018579 0.123573 -0.992299 -0.00855237 -0.876286 0.463323 -0.132116 
-0.349938 0.936492 0.0229391 -0.560684 -0.807143 -0.184805 0.911328 -0.396288 0.111522 
-0.970531 0.133425 -0.200665 0.596782 0.801319 -0.0416937 -0.658782 0.752333 -0.00106751 
-0.230368 -0.950011 -0.210735 -0.709577 -0.675329 -0.201077 -0.960705 0.181185 -0.210279 
-0.255105 -0.966606 -0.0243895 0.0948484 -0.995208 -0.0237766 0.639197 -0.765922 0.0692164 
0.698996 0.715117 0.00349344 -0.904823 -0.380012 -0.192058 0.793077 -0.60589 0.0626607 
-0.952373 0.294915 -0.0775226 -0.962814 -0.150788 -0.224169 0.162524 -0.981446 0.101731 
0.654927 -0.754028 0.0501241 0.526352 -0.845001 0.0944801 -0.979281 -0.00161387 -0.202497 
0.93696 -0.331643 0.110088 0.961618 -0.250552 0.11187 0.980498 -0.102575 0.167636 
-0.764049 0.638793 -0.0904049 -0.798573 0.588991 -0.123977 0.764916 -0.635358 0.105937 
-0.852382 0.522916 0.00173531 -0.553161 0.830014 -0.0713423 0.13034 0.991181 -0.0239055 
-0.734585 -0.672185 -0.0924758 -0.923192 -0.37161 -0.0980924 0.902107 -0.292201 0.317524 
0.954113 0.294696 0.0531222 -0.181466 0.982263 -0.0472139 -0.130242 -0.991113 -0.0270613 
0.820051 -0.55258 0.1489 -0.992873 0.0909658 -0.0769994 0.86122 0.505929 0.0483308 
-0.951936 0.306202 -0.00767253 -0.824543 0.561009 0.0734709 -0.932978 -0.328039 -0.148129 
0.151085 -0.984176 0.0925764 0.535696 0.838861 0.0966595 -0.431719 0.900981 0.0430351 
-0.236764 0.959121 0.155013 0.905645 0.393632 0.157671 -0.467198 0.878421 0.100512 
0.0737708 0.979242 0.188792 -0.647305 -0.760951 -0.0441518 -0.237122 -0.971148 -0.0253727 
-0.99001 -0.131529 -0.050805 0.372122 -0.92784 0.0252541 0.216268 0.896961 0.385603 
-0.856807 -0.509877 -0.076855 -0.952095 -0.305456 0.0145583 0.986209 -0.16486 -0.0145941 
0.840703 0.450746 0.300077 0.764513 0.518809 0.382567 0.638063 0.657649 0.400467 
-0.684189 0.710038 0.166527 0.872994 -0.486598 -0.0332376 0.9354 -0.350543 -0.0463369 
0.260602 0.919207 0.295204 -0.0437243 0.978111 0.203436 0.823241 -0.567417 0.0176744 
0.786772 0.473616 0.395824 -0.717813 0.624892 0.307009 -0.745935 0.50647 0.432516 
-0.482476 0.62471 0.613966 0.321963 0.719852 0.614941 -0.587564 0.744772 0.316359 
-0.0504873 0.953824 0.296092 -0.576276 -0.817254 -0.00177198 -0.69012 -0.723524 -0.0157227 
0.819599 -0.572263 -0.027805 0.954794 -0.296572 0.02031 0.53418 0.576033 0.618738 
-0.744213 0.638734 0.195361 -0.443831 0.75031 0.489948 -0.326161 0.659153 0.677596 
-0.13347 0.747042 0.651241 0.183335 0.701262 0.688926 -0.0185898 0.68425 0.72901 
0.615502 -0.787984 -0.0154241 0.790508 -0.612255 -0.015498 -0.928071 0.372366 0.00524074 
-0.249187 0.876127 0.412683 0.166937 0.757235 0.631449 -0.924314 -0.380965 0.0225799 
0.990844 0.130771 0.0335768 0.924331 0.381591 0.000285259 0.78513 0.558577 0.267514 
0.700734 0.634418 0.326323 0.697077 0.533129 0.479434 0.795038 0.573186 0.198425 
0.662609 0.486117 0.569771 0.719 0.557 0.41568 0.702508 0.666549 0.249388 
0.72178 0.666112 -0.187959 0.731513 0.673071 0.108921 0.712331 0.691576 -0.11961 
0.615079 0.584122 0.529602 0.511723 0.792089 0.332767 0.438686 0.898574 0.010904 
-0.626556 0.779376 1.63188e-05 0.184237 0.932176 0.311616 0.189264 0.980115 -0.0596105 
-0.180484 0.978461 0.100198 -0.330667 -0.942244 -0.0532485 0.149809 -0.988455 0.0226773 
0.218753 -0.961675 0.165312 0.850465 0.524681 -0.0376761 0.732086 0.681158 0.00857635 
0.70809 0.643368 -0.291007 0.717038 0.584151 -0.380294 0.564262 0.812976 -0.143798 
-0.754159 0.626956 -0.195373 0.358189 0.893843 -0.269714 -0.128905 0.924438 -0.358885 
-0.423234 -0.905702 -0.0240348 0.730654 0.587974 -0.347032 0.792912 0.464893 -0.393911 
0.728469 0.443966 -0.521754 0.5986 0.551047 -0.581399 0.500262 0.714721 -0.488786 
0.217806 0.734193 -0.643056 0.69827 0.487274 -0.524389 -0.442343 0.754905 -0.484202 
-0.0982989 0.691621 -0.71554 -0.742637 0.494613 -0.451496 0.415914 0.559285 -0.717089 
0.0623894 0.636045 -0.769126 -0.544086 0.552481 -0.631454 0.00999185 0.630678 -0.775981 
0.449277 0.673072 -0.587472 0.21874 0.67571 -0.703966 -0.494448 0.722092 -0.483844 
0.27962 0.767881 -0.576343 -0.064559 0.761197 -0.6453 -0.677127 -0.735156 -0.0323088 
0.833011 -0.547898 -0.0768172 0.901133 0.370375 -0.225346 -0.764007 0.594013 -0.251877 
-0.203456 0.915709 -0.34653 -0.0990096 0.889296 -0.446487 0.469134 -0.882847 0.0222433 
0.749246 -0.654834 -0.099114 0.936835 -0.349767 0.00167234 0.992409 -0.119517 -0.0289834 
-0.921956 0.387017 -0.0146857 0.669292 0.603776 -0.433015 0.279922 0.89123 -0.356865 
-0.280433 0.924985 -0.256437 -0.990562 -0.122804 0.0608755 0.504384 -0.862184 0.0472797 
0.865815 -0.498941 0.037718 0.968731 0.227277 -0.0995239 -0.455695 0.874271 -0.167309 
-0.414016 0.906732 -0.080173 -0.995151 0.0806731 0.0562736 0.91753 0.354596 -0.180002 
-0.965695 0.21548 0.14492 0.81754 0.540856 -0.197744 -0.948794 0.313061 0.0422073 
-0.903122 0.38191 -0.196256 0.725982 0.63217 -0.270759 -0.880644 0.473681 0.00955865 
0.503199 0.817537 -0.280041 -0.0485378 0.984057 -0.171101 -0.90633 -0.420203 0.0446679 
-0.972957 -0.229539 0.0258121 0.91613 -0.393636 -0.0758758 0.998903 -0.00225118 0.0467738 
0.93301 0.339986 -0.11791 0.850104 0.487631 -0.198844 -0.548303 0.832003 0.0844686 
-0.452737 0.888348 0.076596 0.844257 -0.523033 -0.116903 0.964194 -0.255086 0.0725364 
-0.826972 0.561804 -0.0222268 0.593623 0.796092 -0.117684 0.221084 0.974635 -0.0347543 
0.0265548 -0.999562 -0.0130909 0.927572 -0.372215 0.0326613 0.86397 0.472141 -0.175038 
-0.846102 -0.525796 0.0874659 -0.575669 -0.817674 0.00389298 0.121927 -0.991475 -0.0459424 
-0.957596 -0.211299 0.195863 0.730156 -0.675026 -0.105887 -0.983327 0.162683 0.0812587 
-0.944154 0.327032 0.0402963 0.669429 0.742436 -0.025567 -0.76831 0.615011 0.177373 
-0.681087 0.730247 0.0534718 -0.517854 0.854614 0.0382481 -0.409561 -0.906853 -0.0993854 
-0.818178 -0.541972 0.191966 0.948879 -0.313301 -0.0383469 0.954701 -0.289163 -0.0702233 
-0.951176 0.290687 0.103754 -0.70764 -0.681617 0.18613 -0.161518 -0.986663 -0.0201911 
0.3759 -0.924581 -0.0620511 0.738546 -0.667608 -0.0940711 -0.980518 0.183443 0.0702365 
-0.302024 -0.950679 0.0706492 0.202793 -0.979135 0.0130185 0.55111 -0.82848 -0.0994877 
-0.800843 0.573876 0.171223 -0.35715 0.932361 0.0561058 -0.407325 -0.909882 0.0787451 
-0.0266782 -0.999644 -0.00024664 0.938631 0.342166 -0.0435274 0.754729 0.655511 -0.0262491 
-0.680135 0.718385 0.146082 -0.270521 -0.959599 0.0773804 0.97647 -0.134125 -0.168869 
-0.67208 -0.739397 0.0399991 -0.790503 -0.612288 0.0144347 -0.293772 -0.955875 -0.000712949 
0.0762473 -0.995431 0.0574708 -0.971766 -0.183742 -0.148018 0.19391 -0.975936 0.0997391 
0.976651 -0.0856491 -0.197018 -0.996265 0.033889 0.0794228 0.993324 0.0433632 -0.106895 
0.487829 0.869179 0.0809368 0.229252 0.97311 0.0223792 -0.810277 -0.564772 0.156477 
-0.919156 -0.365241 0.147485 -0.943928 -0.190169 0.269881 0.454237 -0.890873 0.00375434 
0.961952 0.269467 -0.0451336 0.479513 0.87752 -0.00506788 -0.0677321 0.996825 0.041863 
0.236453 0.950864 0.199868 -0.429428 -0.893739 0.129705 0.0732556 -0.996815 0.0315145 
0.996933 -0.0623567 0.0472915 -0.865457 0.459188 0.200327 -0.734319 0.639878 0.226564 
-0.658466 0.705179 0.262953 -0.207083 0.976616 0.057777 -0.52042 0.851094 0.0693002 
0.656925 -0.649305 -0.383214 0.761452 -0.195613 -0.618001 -0.953363 0.091052 0.287764 
0.907829 -0.388107 -0.158805 -0.925874 0.29497 0.236114 -0.549278 -0.801193 0.237451 
-0.851795 -0.435919 0.29055 0.393115 -0.907203 -0.149813 -0.169319 0.959863 0.223594 
-0.739673 -0.594302 0.315735 -0.3997 -0.862249 0.311074 -0.884905 -0.272191 0.377962 
0.731839 -0.68023 -0.041216 0.322177 -0.946624 -0.0102233 -0.932395 -0.0308595 0.36012 
0.15357 0.98714 0.0443996 -0.808841 0.572865 0.132671 -0.319447 0.945386 0.0647997 
-0.413213 0.90561 0.0955331 -0.759949 -0.50809 0.405366 -0.634656 -0.676562 0.373465 
0.927748 -0.368822 -0.0570512 -0.922328 0.0783157 0.378387 0.694254 0.716376 0.0694017 
0.546066 0.826324 0.137844 -0.827377 0.557116 0.0711949 -0.71833 0.674823 0.169164 
0.0554642 0.995312 0.0792294 -0.943824 0.179051 0.277736 -0.858974 0.459356 0.226177 