# vtk DataFile Version 4.2
vtk output
ASCII
DATASET POLYDATA
POINTS 864 float
285.199 173.056 212.556 284.923 173.121 212.48 285.532 172.936 212.721 
284.642 173.298 212.473 285.589 173.233 212.794 284.682 173.873 212.568 
284.325 173.897 212.55 285.079 173.792 212.674 284.037 174.382 212.769 
284.037 174.153 212.654 285.038 174.085 212.796 284.88 174.272 212.886 
287.543 157.936 214.348 287.472 157.983 214.346 287.567 158.025 214.323 
287.628 157.994 214.395 287.626 158.129 214.366 286.03 170.716 213.203 
285.306 172.053 212.745 284.985 172.448 212.618 284.242 173.522 212.533 
286 172.978 213.18 283.405 174.302 212.92 283.703 174.069 212.726 
285.357 174.059 213.13 284.356 174.667 213.266 287.34 157.658 214.699 
287.248 157.998 214.476 287.745 158.17 214.507 287.06 169.228 214.163 
284.562 171.28 212.985 283.389 172.801 212.919 286.537 172.11 213.759 
286.244 172.814 213.541 281.466 174.39 213.841 280.856 174.342 214.124 
282.785 174.018 213.13 285.932 173.513 213.492 280.334 174.81 214.564 
279.963 174.688 214.733 282.097 174.667 213.661 285.197 174.266 213.247 
280.477 175.063 214.694 282.047 175.329 214.15 285.139 174.419 213.613 
285.666 156.318 215.435 286.215 156.152 215.725 286.981 157.243 214.974 
286.04 157.397 214.897 286.868 158.478 214.542 286.054 159.389 214.593 
287.549 158.941 214.545 288.376 159.061 215.014 286.345 159.807 214.524 
286.851 161.035 214.512 286.301 161.384 214.534 287.382 160.7 214.58 
288.299 160.159 214.971 286.803 161.986 214.515 287.277 162.559 214.595 
286.038 165.377 214.304 286.799 167.385 214.191 280.88 173.714 214.054 
285.522 174.224 214.043 285.969 173.9 214.548 280.014 175.22 215.151 
282.347 175.425 214.167 282.722 175.607 214.483 283.516 175.279 214.026 
283.03 175.448 214.178 286.263 155.86 216.192 284.75 158.652 215.144 
285.704 158.301 214.798 287.856 168.543 215.115 280.181 172.879 214.649 
278.199 174.512 215.841 277.726 174.281 216.152 277.926 174.784 216.091 
277.778 174.916 216.273 278.097 174.988 216.152 279.828 175.44 215.591 
281.672 175.708 215.232 282.856 175.686 214.794 284.144 154.603 216.837 
283.47 155.384 216.438 284.456 164.28 214.968 277.188 174.527 216.683 
277.436 174.801 216.514 277.593 174.909 216.433 280.5 175.825 215.935 
277.807 175.043 216.461 288.539 157.707 216.317 283.152 158.741 216.066 
289.089 158.609 216.625 288.428 168.77 216.434 276.327 173.639 217.129 
277.781 173.212 216.242 274.81 174.222 218.154 274.75 174.415 218.345 
276.313 174.756 217.62 277.151 174.994 217.203 283.3 175.994 216.808 
285.175 175.271 217.142 278.404 152.459 219.791 278.36 152.475 219.818 
278.417 152.504 219.773 278.404 152.462 219.857 278.462 152.491 219.811 
281.834 153.725 218.304 281.292 153.44 218.766 281.061 153.777 218.375 
264.348 173.209 220.575 264.29 173.166 220.593 264.31 173.207 220.627 
264.398 173.178 220.585 276.297 172.849 217.269 264.418 173.22 220.619 
265.005 175.009 217.513 265.004 175.009 217.513 265.005 175.009 217.513 
265.005 175.009 217.513 265.005 175.009 217.513 277.419 175.276 217.524 
280.375 176.012 216.826 274.75 151.919 220.73 274.676 151.872 220.8 
274.645 151.921 220.733 274.976 151.932 220.81 274.753 152.052 220.669 
278.231 152.464 219.997 278.377 152.6 219.787 278.598 152.532 219.976 
278.517 152.606 219.766 280.47 154.161 218.344 282.227 153.373 219.098 
281.422 155.898 217.288 288.639 157.348 217.706 289.561 159.693 217.697 
258 174.009 218.517 258 174.009 218.517 258 174.009 218.517 
258 174.009 218.517 260 174.009 218.017 260 174.009 218.017 
260 174.009 218.017 260 174.009 218.017 264.343 173.057 220.616 
264.082 173.103 220.713 264.62 173.165 220.669 258 174.009 218.517 
260 174.009 218.017 264.444 173.265 220.78 265.004 175.009 217.513 
265.004 175.009 217.513 265.004 175.009 217.513 271.083 174.004 220.237 
270.545 173.818 220.424 270.825 174.11 220.491 271.015 173.654 220.1 
273.425 174.1 219.275 265.004 175.009 217.513 271.411 174.375 220.407 
277.459 175.559 218.602 274.452 151.938 220.82 275.037 151.704 221.215 
270.347 152.263 221.828 270.283 152.277 221.898 270.347 152.336 221.807 
270.381 152.237 221.899 273.241 152.288 220.917 275.323 152.377 220.482 
276.325 152.53 220.334 278.016 152.676 219.912 277.673 152.322 220.425 
270.445 152.296 221.808 273.938 152.669 220.506 276.925 153.109 219.86 
278.762 153.007 219.583 279.528 152.733 220.025 279.804 153.278 219.263 
283.136 153.381 219.759 276.888 154.724 219.352 280.279 154.719 218.192 
286.668 155.162 219.401 289.452 166.618 219.451 252.009 171.84 222.311 
251.986 171.822 222.357 252.026 171.843 222.338 252 171.804 222.338 
256.381 172.381 222.212 256.286 172.33 222.236 256.351 172.398 222.266 
256.467 172.335 222.208 262.463 172.786 221.091 256.48 172.406 222.26 
255.004 174.013 219.009 255.004 174.013 219.009 255.004 174.013 219.009 
255.004 174.013 219.009 258 174.009 218.518 258 174.009 218.518 
258 174.009 218.518 260 174.009 218.017 262.897 173.088 221.042 
262.806 173.138 221.145 264.063 172.752 220.658 265.108 173.117 220.722 
265.826 173.007 220.813 272.658 172.992 219.276 255.004 174.013 219.009 
258 174.009 218.518 263.499 173.264 221.115 265.004 175.009 217.513 
265.411 173.212 220.756 265.421 173.288 220.835 269.727 173.62 220.724 
265.506 173.275 220.795 271.035 174.345 220.704 280.922 176.156 218.961 
284.683 175.688 219.506 267 151.009 220.017 267 151.009 220.017 
267 151.009 220.017 267 151.009 220.017 270.235 152.192 222.187 
270.187 152.471 221.885 270.676 152.271 221.887 273.614 151.774 221.335 
276.369 151.789 221.37 267 151.009 220.017 270.554 152.483 221.732 
278.867 162.914 218.805 274.78 169.399 219.35 269.416 171.627 220.348 
251.954 171.786 222.487 252.015 171.83 222.402 252.04 171.742 222.38 
251.946 171.709 222.459 252.068 171.571 222.458 256.078 172.234 222.337 
256.623 172.222 222.165 256.299 172.176 222.201 257.734 172.209 222.049 
262.372 172.904 221.188 262.019 172.781 221.404 262.852 172.221 220.871 
263.417 172.14 220.75 265.167 172.212 220.685 268.458 172.494 220.604 
252.099 171.814 222.437 252.162 171.723 222.453 255.004 174.013 219.009 
256.815 172.412 222.349 258 174.009 218.518 259.091 172.386 221.858 
259.051 172.514 222.01 259.378 172.483 221.889 259.827 172.586 222.01 
259.213 172.501 221.916 262.85 173.219 221.333 264.461 173.531 221.431 
265.13 173.548 221.377 265.898 173.398 221.109 267.127 173.534 221.279 
268.447 173.889 221.546 265.835 153.205 222.682 267 151.009 220.017 
269.41 152.604 222.222 271.369 152.592 221.541 271.164 151.954 222.287 
267.225 153.572 222.138 265.315 154.858 221.959 273.219 155.502 220.382 
268.21 156.794 221.31 272.787 157.174 220.564 288.36 156.678 220.547 
289.049 157.662 220.434 289.814 159.921 220.036 274.61 167.252 220.168 
261.958 169.338 221.217 261.134 170.501 221.186 242.055 170.378 223.289 
242.092 170.352 223.331 242.055 170.377 223.293 242.138 170.329 223.372 
251.374 171.302 222.78 251.797 171.426 222.579 252.088 171.2 222.504 
259.882 171.511 221.462 261.917 171.581 221.087 270.254 170.8 220.313 
242.066 170.373 223.298 251.814 171.683 222.827 252.412 171.523 222.549 
256.04 172.321 222.496 255.879 171.931 222.338 261.128 172.086 221.418 
263.868 171.958 220.724 252.337 171.768 222.722 256.244 172.426 222.617 
257.328 172.616 222.756 258.067 172.69 222.711 261.026 172.785 222.028 
262.14 173.12 221.882 265.895 152.667 223.239 270.017 151.662 223.394 
275.986 151.202 223.022 262.665 154.168 223.464 260.745 155.217 223.705 
259.197 157.251 223.104 260.524 160.355 222.188 272.199 160.054 221.06 
254.297 169.27 222.035 242.242 170.252 223.497 242.451 170.106 223.704 
242.44 170.1 223.765 242.635 170.011 223.825 242.677 169.911 223.964 
242.898 169.829 224.015 242.407 170.177 223.632 242.148 170.325 223.381 
242.886 169.958 223.967 246 172.009 222.017 246 172.009 222.017 
246 172.009 222.017 246 172.009 222.017 252.781 171.125 222.519 
255.226 171.254 222.267 246 172.009 222.017 250.627 171.341 223.424 
253.068 171.656 222.804 255.9 172.318 222.736 255.222 172.089 223.006 
262.681 173.528 222.787 269.973 174.592 222.401 266.564 152.247 223.651 
267.771 151.838 224.021 254.452 158.295 224.885 253.76 160.528 223.778 
255.775 161.598 222.842 272.633 164.377 221.258 242.8 168.109 225.215 
245.004 168.179 223.991 242.632 168.95 225.017 242.424 168.91 225.414 
243.973 168.907 224.247 242.4 169.152 225.641 242.745 169.352 224.745 
243.023 169.499 224.291 244.366 169.482 224.257 246.183 169.075 223.777 
242.55 169.396 225.486 242.726 169.563 225.102 242.411 170.154 223.718 
242.781 169.84 224.362 243.4 169.705 224.177 244.612 170.082 224.76 
242.82 170.019 224.061 243.315 169.929 224.269 246 172.009 222.017 
283.967 175.888 223.564 265.815 152.187 224.171 270.126 151.202 224.968 
263.26 153.026 224.46 283.996 153.395 223.73 257.211 156.223 224.942 
254.814 157.662 225.272 289.501 158.768 222.531 252.518 160.421 224.346 
247.297 167.017 223.56 243.271 169.975 224.586 244.552 170.219 224.962 
244.45 170.23 225.103 245.756 170.579 225.454 244.556 170.262 225.051 
254.979 172.597 224.518 262.023 153.239 225.788 260.536 154.059 225.556 
257.581 155.585 225.583 250.146 160.502 225.798 242.219 168.154 226.3 
242.415 169.354 226.436 243.741 170.142 225.929 262.936 173.849 225.324 
270.893 175.004 224.687 285.504 175.142 225.373 242.438 167.446 226.449 
289.47 166.685 226.263 242.131 168.312 226.608 242.126 168.654 226.795 
243.182 170.033 226.859 242.934 169.891 226.895 252.827 172.521 226.217 
285.999 174.753 226.036 264.088 152.205 226.657 259.288 154.068 227.354 
254.768 156.564 227.352 244.675 164.587 227.172 242.535 169.579 227.494 
265.954 151.569 227.706 242.256 167.388 228.213 245.809 163.322 228.839 
242.604 166.751 228.707 242.09 168.228 229.349 242.178 168.944 229.521 
242.524 169.557 228.865 258.773 154.169 230.339 255.077 156.22 229.645 
246.791 162.521 229.629 243.539 165.609 229.323 242.463 167.237 229.846 
[...]
POINT_DATA 864
SCALARS scalars float
LOOKUP_TABLE default
1 1 1 1 1 1 1 1 1 
1 1 1 1 1 1 1 1 1 
1 1 1 1 1 1 1 1 1 
1 1 1 1 1 1 1 1 1 
1 1 1 1 1 1 1 1 1 
1 1 1 1 1 1 1 1 1 
1 1 1 1 1 1 1 1 1 
1 1 1 1 1 1 1 1 1 
1 1 1 1 1 1 1 1 1 
1 1 1 1 1 1 1 1 1 
1 1 1 1 1 1 1 1 1 
1 1 1 1 1 1 1 1 1 
1 1 1 1 1 1 1 1 1 
1 1 1 1 1 1 1 1 1 
1 1 1 1 1 1 1 1 1 
1 1 1 1 1 1 1 1 1 
1 1 1 1 1 1 1 1 1 
1 1 1 1 1 1 1 1 1 
1 1 1 1 1 1 1 1 1 
1 1 1 1 1 1 1 1 1 
1 1 1 1 1 1 1 1 1 
1 1 1 1 1 1 1 1 1 
1 1 1 1 1 1 1 1 1 
1 1 1 1 1 1 1 1 1 
1 1 1 1 1 1 1 1 1 
1 1 1 1 1 1 1 1 1 
1 1 1 1 1 1 1 1 1 
1 1 1 1 1 1 1 1 1 
1 1 1 1 1 1 1 1 1 
1 1 1 1 1 1 1 1 1 
1 1 1 1 1 1 1 1 1 
1 1 1 1 1 1 1 1 1 
1 1 1 1 1 1 1 1 1 
1 1 1 1 1 1 1 1 1 
1 1 1 1 1 1 1 1 1 
1 1 1 1 1 1 1 1 1 
1 1 1 1 1 1 1 1 1 
1 1 1 1 1 1 1 1 1 
1 1 1 1 1 1 1 1 1 
1 1 1 1 1 1 1 1 1 
1 1 1 1 1 1 1 1 1 
1 1 1 1 1 1 1 1 1 
1 1 1 1 1 1 1 1 1 
1 1 1 1 1 1 1 1 1 
1 1 1 1 1 1 1 1 1 
1 1 1 1 1 1 1 1 1 
1 1 1 1 1 1 1 1 1 
1 1 1 1 1 1 1 1 1 
1 1 1 1 1 1 1 1 1 
1 1 1 1 1 1 1 1 1 
1 1 1 1 1 1 1 1 1 
1 1 1 1 1 1 1 1 1 
1 1 1 1 1 1 1 1 1 
1 1 1 1 1 1 1 1 1 
1 1 1 1 1 1 1 1 1 
1 1 1 1 1 1 1 1 1 
1 1 1 1 1 1 1 1 1 
1 1 1 1 1 1 1 1 1 
1 1 1 1 1 1 1 1 1 
1 1 1 1 1 1 1 1 1 
1 1 1 1 1 1 1 1 1 
1 1 1 1 1 1 1 1 1 
1 1 1 1 1 1 1 1 1 
1 1 1 1 1 1 1 1 1 
1 1 1 1 1 1 1 1 1 
1 1 1 1 1 1 1 1 1 
1 1 1 1 1 1 1 1 1 
1 1 1 1 1 1 1 1 1 
1 1 1 1 1 1 1 1 1 
1 1 1 1 1 1 1 1 1 
1 1 1 1 1 1 1 1 1 
1 1 1 1 1 1 1 1 1 
1 1 1 1 1 1 1 1 1 
1 1 1 1 1 1 1 1 1 
1 1 1 1 1 1 1 1 1 
1 1 1 1 1 1 1 1 1 
1 1 1 1 1 1 1 1 1 
1 1 1 1 1 1 1 1 1 
1 1 1 1 1 1 1 1 1 
1 1 1 1 1 1 1 1 1 
1 1 1 1 1 1 1 1 1 
1 1 1 1 1 1 1 1 1 
1 1 1 1 1 1 1 1 1 
1 1 1 1 1 1 1 1 1 
1 1 1 1 1 1 1 1 1 
1 1 1 1 1 1 1 1 1 
1 1 1 1 1 1 1 1 1 
1 1 1 1 1 1 1 1 1 
1 1 1 1 1 1 1 1 1 
1 1 1 1 1 1 1 1 1 
1 1 1 1 1 1 1 1 1 
1 1 1 1 1 1 1 1 1 
1 1 1 1 1 1 1 1 1 
1 1 1 1 1 1 1 1 1 
1 1 1 1 1 1 1 1 1 
1 1 1 1 1 1 1 1 1 

NORMALS Normals float
0.331887 0.0360225 -0.942631 0.0388364 -0.25714 -0.965594 0.517814 -0.19991 -0.831808 
0.0610321 0.0808345 -0.994857 0.627559 0.277994 -0.727248 0.139484 0.318336 -0.93766 
-0.0449395 0.199748 -0.978816 0.304439 0.307736 -0.901452 -0.0706845 0.614248 -0.785941 
-0.0677575 0.363744 -0.929031 0.535911 0.516918 -0.667529 0.27635 0.679676 -0.679464 
0.0691538 -0.621176 -0.780614 -0.371631 -0.147967 -0.916513 0.0876635 0.00461767 -0.996139 
0.778568 -0.426653 -0.460217 0.6514 0.0501919 -0.757073 0.323173 -0.148625 -0.934596 
0.206222 -0.210245 -0.955651 0.0246543 -0.2512 -0.967621 -0.294573 -0.0388448 -0.954839 
0.785473 0.101916 -0.610447 -0.459356 0.201571 -0.865079 -0.429178 0.110767 -0.896402 
0.695583 0.618981 -0.364729 0.223016 0.908432 -0.353576 0.475074 -0.793416 -0.38052 
-0.406784 -0.332087 -0.851026 0.754763 -0.494615 -0.430916 0.764856 0.0573687 -0.641641 
-0.323159 -0.341213 -0.88269 -0.306385 -0.243032 -0.920361 0.855116 0.172206 -0.489 
0.888055 0.131117 -0.440643 -0.389197 0.259611 -0.883815 -0.461336 0.276288 -0.84311 
-0.369842 0.205598 -0.906061 0.817896 0.459683 -0.346031 -0.398192 0.478825 -0.782413 
-0.531142 0.385013 -0.754753 -0.313213 0.323608 -0.892847 0.562138 0.744258 -0.360668 
-0.350299 0.651449 -0.672982 -0.216906 0.68682 -0.693707 0.49303 0.855001 -0.160919 
-0.179435 -0.51126 -0.840486 0.253781 -0.754437 -0.605326 0.194234 -0.580498 -0.790756 
-0.136642 -0.275503 -0.951539 -0.269695 -0.0806434 -0.959563 -0.216106 -0.0256598 -0.976033 
0.254026 0.0984313 -0.962176 0.722801 -0.0305875 -0.690379 -0.247908 0.0243607 -0.968477 
0.206544 0.190908 -0.959632 -0.251602 0.101332 -0.962511 0.328759 0.260356 -0.907817 
0.686286 0.145865 -0.712555 -0.087049 0.199393 -0.976046 0.225993 0.459589 -0.858898 
0.183244 -0.0401975 -0.982245 0.496937 -0.0911606 -0.862985 -0.463498 -0.0698921 -0.883337 
0.567209 0.818626 -0.0901438 0.811826 0.575557 -0.0983498 -0.414404 0.705463 -0.57497 
-0.203361 0.844387 -0.495636 -0.0823208 0.950716 -0.298934 0.30876 0.888867 -0.338499 
0.14555 0.812031 -0.565173 0.438166 -0.778525 -0.449344 -0.410764 -0.0211739 -0.911496 
-0.251837 -0.146547 -0.95661 0.854876 0.0619308 -0.515123 -0.562461 -0.179304 -0.807148 
-0.588272 0.0182174 -0.808458 -0.630817 0.054422 -0.774021 -0.571585 0.314108 -0.758041 
-0.473708 0.62481 -0.620656 -0.312153 0.825385 -0.470425 -0.416964 0.785458 -0.457381 
-0.101505 0.986168 -0.131036 -0.0436991 0.97433 -0.22084 0.184643 -0.83766 -0.514035 
-0.314283 -0.39283 -0.86424 -0.314763 -0.156422 -0.936192 -0.597544 0.131168 -0.791035 
-0.6107 0.613846 -0.500238 -0.639733 0.307522 -0.704395 -0.133168 0.925637 -0.354206 
-0.405547 0.861383 -0.30586 0.648862 -0.681617 -0.338196 -0.502028 -0.0280844 -0.864395 
0.909047 -0.248159 -0.33474 0.919654 0.242498 -0.308919 -0.538545 0.152494 -0.828682 
-0.562946 -0.215961 -0.79778 -0.515414 0.243166 -0.821717 -0.422537 0.693962 -0.582992 
-0.495739 0.649451 -0.57659 -0.548181 0.737599 -0.394266 0.165867 0.981234 -0.0983286 
0.557662 0.820392 -0.126374 0.031206 -0.857879 -0.512903 -0.599521 -0.556655 -0.575074 
-0.0793716 -0.277278 -0.957506 0.125134 -0.992043 0.0138739 0.551468 -0.715498 -0.428888 
-0.0838526 -0.641684 -0.762371 -0.0938253 -0.890913 -0.444377 -0.254245 -0.655004 -0.711569 
-0.120646 0.610464 -0.782802 -0.391304 0.0983652 -0.914989 -0.376917 0.887749 -0.264265 
0.220566 -0.00179737 -0.975371 -0.538678 -0.152596 -0.828578 0.186541 0.848688 -0.494904 
0.0658101 -0.897081 0.436937 -0.47257 -0.165444 -0.865624 -0.303387 -0.109193 -0.94659 
0.599865 -0.145098 0.786834 0.405703 0.850517 -0.334702 -0.352671 0.887808 -0.29567 
-0.179881 0.962108 -0.204917 0.119346 -0.671909 -0.730954 -0.0894253 -0.891752 -0.443601 
-0.210312 -0.586972 -0.781814 0.272029 -0.733207 -0.623223 -0.13922 -0.342228 -0.929246 
-0.272239 -0.873695 -0.403165 -0.429714 -0.212656 -0.877566 0.305023 -0.90372 -0.30042 
0.357923 -0.44008 -0.823542 -0.303642 -0.501518 -0.810112 0.107791 -0.963149 -0.246426 
-0.456477 -0.243812 -0.855678 0.771704 -0.615685 -0.159392 0.977626 -0.0574156 -0.202363 
0.00990495 -0.14659 -0.989148 -0.251179 -0.853633 -0.45631 -0.68324 0.345565 -0.643248 
0.710583 -0.497429 -0.497631 0 -0.159641 -0.987175 0 -1 0 
-0.963361 -0.268207 4.13429e-08 0.963361 -0.268207 4.13429e-08 -0.0241653 -0.25761 -0.965947 
-0.354903 0.528818 -0.770971 0.271535 0.258633 -0.927026 0.336164 0.760744 -0.555214 
0 0.5547 -0.83205 -0.0485601 0.935201 -0.350773 -0.106535 -0.768446 0.630984 
-0.59644 -0.786099 0.162197 0.574353 0.524487 0.628516 -0.318445 0.581671 -0.748499 
-0.510889 0.574483 -0.639501 -0.501367 0.723545 -0.474461 -0.29099 0.348946 -0.890821 
-0.307591 0.907975 -0.284549 -0.0146026 0.836835 -0.547261 -0.241785 0.700643 -0.671296 
-0.325393 0.936548 -0.130376 -0.44762 -0.351937 -0.822056 0.115374 -0.895173 -0.430528 
-0.304286 -0.687341 -0.659525 -0.64815 -0.611479 -0.453867 -0.420753 -0.226777 -0.878373 
-0.0685083 -0.947365 -0.312739 -0.255488 -0.586983 -0.768229 0.106901 -0.651671 -0.750931 
-0.120607 -0.60929 -0.783721 -0.282382 -0.484663 -0.827866 -0.117868 -0.794247 -0.596052 
0.0649656 -0.60798 -0.79129 -0.254288 -0.377714 -0.89032 -0.201387 -0.492498 -0.846693 
-0.0324486 -0.537968 -0.84234 0.124 -0.883586 -0.451552 -0.184032 -0.664849 -0.723953 
0.290145 -0.92492 -0.24564 -0.219417 -0.269912 -0.937552 -0.37344 -0.271231 -0.887117 
0.601908 -0.776684 -0.185659 0.969966 0.206905 -0.127893 0.217093 0.144404 -0.965411 
-0.831384 0.528247 -0.172499 0.0276262 0.999545 -0.0121055 -0.578642 -0.439305 -0.687156 
-0.139553 0.600314 -0.787495 -0.409767 0.357849 -0.839068 -0.362196 0.859883 -0.359744 
0.0401022 0.331783 -0.942503 -0.346651 0.270724 -0.898076 0.0565301 0.863472 -0.501219 
0.275951 -0.804241 -0.526353 -0.839861 0.219009 -0.496658 0.57735 0.57735 -0.57735 
0.815276 -0.250684 0.521999 0.306218 -0.836674 0.454101 -0.678163 -0.545505 0.492462 
0.694252 0.39245 0.603323 0 -0.159641 0.987175 -0.245777 0.68845 -0.682371 
-0.347889 0.832754 -0.43069 -0.0616579 -0.044595 -0.997101 -0.00998491 0.63592 -0.771691 
0.149254 0.314516 -0.937445 -0.372684 0.119932 -0.920176 -0.274792 0.771457 0.573884 
-0.301605 0.775626 0.554472 -0.157182 0.936149 -0.314513 -0.187464 -0.636402 0.748231 
0.00188786 0.446037 -0.895012 -0.281922 0.90801 -0.309901 -0.235032 0.602942 -0.762379 
0.131113 0.652348 -0.746493 -0.482139 0.774951 -0.408648 0.010382 0.999505 0.0297018 
0.282636 0.959022 0.0198722 0 -0.178885 -0.98387 0 -1 0 
-0.961524 -0.274721 3.6843e-08 0.961524 -0.274721 3.6843e-08 -0.246224 -0.888895 -0.386316 
-0.586461 -0.302661 -0.751305 0.0322574 -0.807168 -0.58944 -0.267886 -0.729549 -0.629282 
0.0307648 -0.857684 -0.513255 0 0.447214 -0.894427 -0.190667 -0.125263 -0.97363 
-0.453881 -0.10815 -0.884475 -0.418271 -0.231823 -0.878241 -0.422226 0.00180903 -0.906489 
-0.52944 0.840522 0.114957 -0.206391 0.950162 0.233655 -0.0108805 -0.530691 -0.847496 
-0.783154 -0.129943 -0.6081 -0.0345452 -0.251781 -0.967167 -0.573527 0.530558 -0.624159 
-0.0928363 0.282107 -0.954881 -0.264903 0.0845766 -0.960559 -0.128163 0.543892 -0.829311 
-0.479764 0.549393 -0.6841 -0.476511 0.654152 -0.587386 -0.235561 -0.0486169 -0.970643 
-0.178206 -0.00223728 -0.983991 0.0566222 -0.210178 -0.976022 -0.207082 -0.0648656 -0.976171 
0.496038 0.858345 -0.131116 0.615821 0.0970215 -0.78189 -0.54075 -0.592989 0.596619 
0.104198 0.720921 -0.685139 -0.0239846 -0.098275 0.99487 -0.126114 0.458406 -0.879749 
-0.14938 0.902353 -0.404283 0.083334 0.797842 -0.597079 -0.0397983 0.54233 -0.839223 
-0.108565 0.827588 -0.550738 -0.140361 0.957141 -0.253339 -0.13846 0.943266 -0.301792 
-0.0390357 0.922797 -0.383304 -0.0184218 0.87866 -0.477092 -0.0512264 0.67171 -0.739041 
-0.167288 0.894147 -0.41535 -0.20905 -0.625127 -0.752007 0 -0.178885 0.98387 
-0.3103 -0.404367 -0.860349 -0.291907 -0.347638 -0.891032 -0.172842 -0.847363 -0.502098 
-0.147305 -0.602561 -0.78436 -0.271937 -0.17497 -0.946275 -0.191975 0.00743237 -0.981372 
-0.270911 0.0158636 -0.962474 -0.0214685 0.0566346 -0.998164 0.744386 -0.667613 -0.013521 
0.85811 -0.50679 -0.0825308 0.981425 -0.186642 -0.0443773 -0.373748 -0.141054 -0.916742 
-0.156997 -0.131075 -0.978862 -0.237871 -0.0330203 -0.970735 0.0581731 -0.819859 -0.569603 
-0.2537 -0.910251 -0.327231 -0.44087 -0.885549 -0.146415 0.354237 -0.602109 -0.715528 
-0.424112 0.519528 -0.741768 -0.539114 0.0923833 -0.837151 -0.144869 0.033659 -0.988878 
-0.173983 0.106984 -0.97892 -0.127859 -0.199682 -0.971483 -0.398317 -0.337478 -0.852908 
0.162527 0.928337 0.334327 -0.605656 0.756788 -0.245872 0.292959 0.238368 -0.925935 
-0.526768 0.77704 -0.344565 -0.432803 0.274033 -0.858829 -0.290622 0.393302 -0.872268 
-0.0818621 -0.476534 -0.875336 0.132867 0.956099 -0.261192 -0.238508 0.96536 -0.105799 
-0.015178 0.969486 -0.244674 -0.157891 0.861266 -0.483003 -0.251297 0.670586 -0.697972 
-0.315625 0.887525 -0.335678 -0.307205 -0.836303 -0.454117 -0.079023 -0.91051 -0.405865 
0.063543 -0.986302 -0.152222 -0.414029 -0.610627 -0.675066 -0.393267 -0.592739 -0.702853 
-0.274053 -0.483009 -0.831623 -0.173805 -0.170451 -0.969917 -0.199064 0.164671 -0.966052 
-0.121595 0.0891094 -0.988572 -0.153451 -0.891317 -0.426623 -0.110281 -0.834953 -0.539158 
-0.722833 -0.682166 0.110282 0.151228 -0.643875 -0.750037 -0.417802 -0.835474 -0.356967 
0.105779 -0.569356 -0.815257 0.639899 0.239624 -0.730144 0.631622 -0.189361 -0.751795 
0.507767 0.250616 -0.824236 0 0 -1 -0.83205 -0.5547 0 
-1 0 2.78775e-08 1 0 2.78775e-08 0.0228281 0.348977 -0.936853 
-0.237807 0.359818 -0.902208 0 0.5547 -0.83205 -0.301882 0.928686 -0.215429 
0.102048 0.657656 -0.746374 -0.468147 0.869974 -0.154868 -0.336001 0.794419 -0.505966 
-0.222301 0.963998 -0.145911 -0.249462 0.92689 -0.280433 -0.0858558 -0.882889 -0.461666 
-0.200753 -0.885444 -0.419151 -0.352312 -0.613719 -0.706559 -0.248587 -0.370728 -0.894855 
-0.221481 -0.177551 -0.958865 -0.190735 -0.12802 -0.973258 -0.673056 -0.426783 -0.60403 
-0.327272 -0.1926 -0.925093 -0.650207 -0.348546 -0.67509 -0.929316 0.0187467 -0.368809 
-0.269807 -0.185293 -0.944918 -0.932602 0.303116 -0.195892 -0.932632 -0.0138473 -0.360563 
-0.412205 -0.666301 -0.621393 -0.0366021 0.298504 -0.953706 -0.201153 0.371107 -0.906541 
-0.848887 0.484942 -0.21029 -0.844206 0.536005 0.00387168 -0.333945 0.758744 0.559275 
-0.942276 0.276086 0.189451 0.192569 -0.106726 -0.975462 0.0327638 0.74516 -0.66608 
0.110686 0.988871 0.0994167 0.222361 0.856545 -0.465711 0 0 1 
0.177392 0.975004 0.133791 -0.251602 -0.927914 -0.275085 -0.0577668 -0.988995 -0.136208 
-0.381915 -0.856137 -0.348096 0.304977 -0.951525 -0.0398557 -0.391458 -0.651356 -0.649997 
-0.400305 -0.66589 -0.62956 0.956756 -0.288559 0.0367564 -0.399444 -0.388339 -0.830444 
-0.324971 -0.278574 -0.903765 -0.162448 0.986616 0.0141543 -0.262603 0.815836 -0.51522 
-0.319215 0.895389 -0.310453 -0.227714 0.950288 -0.212363 -0.140165 0.925199 -0.352648 
-0.0600408 0.974507 -0.216173 -0.421364 -0.901373 -0.0998933 -0.405419 -0.856662 -0.319007 
-0.424629 -0.764969 -0.484265 -0.541605 -0.658883 -0.522051 -0.934708 -0.154178 -0.320235 
-0.746569 0.652609 -0.129371 -0.403333 0.91409 -0.0419777 -0.164363 0.983991 -0.0688927 
-0.141676 0.987115 -0.0743793 0.188151 0.930426 0.314494 -0.849837 -0.462532 -0.252669 
0.992064 0.12567 0.00400971 -0.957552 -0.240224 -0.159331 -0.983104 0.155941 -0.0958641 
-0.432704 0.898526 -0.0736055 -0.568778 0.816259 -0.101056 -0.132023 0.990969 -0.023477 
0.556082 0.819318 0.139608 -0.311235 -0.946808 -0.0817741 -0.399865 -0.884192 -0.24148 
-0.561858 -0.811295 -0.161606 -0.651202 -0.710579 -0.266483 -0.80285 0.59618 -0.000863989 
-0.267672 -0.954869 0.128749 -0.94847 -0.314684 -0.0371403 -0.643304 -0.763828 0.0522204 
-0.840403 -0.541696 0.0169864 -0.994536 -0.0927256 0.04795 -0.90881 0.416751 0.0195804 
-0.8033 0.557588 0.209293 -0.407267 -0.909796 0.0800304 -0.536001 -0.843918 0.0224867 
-0.629423 -0.771177 0.09546 -0.741335 -0.656091 0.141306 -0.85473 -0.477668 0.203151 
-0.54578 0.833147 0.0893832 -0.301345 0.949306 0.0894989 -0.531028 -0.779704 0.33177 
-0.994775 0.0897306 0.0486868 -0.992637 0.117409 0.0297877 -0.690906 0.71636 0.0973549 
-0.862561 0.488373 -0.132214 -0.608532 0.792628 -0.0378092 0.788937 0.614207 -0.0181065 
-0.0538768 0.99223 -0.112147 -0.464233 -0.858459 0.218028 -0.564513 -0.777647 0.276749 
-0.66623 -0.611796 0.426431 -0.686139 -0.59867 0.413289 -0.89015 -0.354118 0.286765 
-0.781238 0.616135 -0.10022 -0.36812 0.929777 0.00149866 -0.0876438 0.99615 -0.00215046 
-0.364708 -0.920711 0.138852 -0.513058 -0.739749 0.435364 -0.715359 -0.45612 0.529355 
-0.502124 -0.64072 0.580818 -0.595832 -0.74207 0.307111 -0.747931 -0.574293 0.332847 
-0.573967 -0.354867 0.737991 -0.689247 -0.287737 0.664941 -0.601145 -0.522476 0.604685 
-0.617954 -0.232178 0.75115 -0.435044 -0.346338 0.831136 -0.363207 -0.345904 0.865119 
-0.411881 -0.287953 0.864545 -0.600425 -0.54257 0.587459 -0.974634 -0.187475 0.122233 
-0.552571 0.812195 -0.187096 -0.123491 0.986693 -0.105771 0.12722 0.989089 0.074288 
-0.556272 -0.0712407 0.827941 0.0107111 0.964385 -0.264285 -0.261703 0.956055 0.132173 
-0.487931 -0.811997 0.320287 -0.571934 -0.781286 0.249967 -0.624476 -0.366952 0.689475 
-0.387277 -0.871484 0.300884 -0.493096 -0.66411 0.561974 -0.357115 -0.290924 0.887599 
-0.539715 -0.824535 0.169854 -0.512425 -0.818384 0.260133 -0.294359 -0.703543 0.646823 
-0.767089 -0.61214 0.191988 -0.62126 -0.665077 0.414377 -0.797345 -0.390874 0.459846 
-0.760936 -0.136364 0.634335 -0.388897 -0.591613 0.706225 -0.509479 0.0324868 0.85987 
-0.372742 -0.193544 0.907526 -0.330045 -0.590633 0.736358 -0.332868 -0.352021 0.874803 
-0.308599 -0.216207 0.926294 -0.345235 -0.336136 0.876256 -0.230715 -0.152191 0.961046 
-0.5463 -0.531297 0.647518 -0.830917 -0.449051 0.328526 -0.245773 -0.386443 0.888964 
0.00683485 -0.105616 0.994383 -0.257702 0.00405277 0.966216 -0.307713 0.0414898 0.950574 
0.137307 0.285463 0.948503 0.503548 -0.683556 0.528384 -0.323974 0.121876 0.938183 
-0.205586 -0.0339165 0.978051 -0.998935 -0.0433908 0.0157073 0.0467537 -0.996455 -0.0699434 
0.219673 0.665228 -0.713593 -0.498107 -0.332558 0.800808 -0.0737367 0.901731 0.425963 
-0.155656 0.874735 -0.458922 -0.143617 0.788604 0.597894 -0.240799 0.876665 0.416502 
-0.131493 0.700484 0.70145 -0.323958 0.721084 0.612446 -0.439291 0.827467 0.349745 
-0.235308 0.958201 0.162728 -0.165831 0.974841 -0.148947 0.697681 0.709461 -0.0995332 
-0.0748 -0.954768 0.28779 -0.767153 -0.28947 0.572436 0.382173 -0.917852 0.107199 
-0.767898 -0.409836 0.492308 -0.740881 -0.305957 0.597901 -0.14756 -0.976275 -0.158472 
0.0392838 -0.932435 0.359195 -0.510652 0.033761 0.859125 -0.437847 -0.0550396 0.897363 
-0.345704 -0.80096 0.488826 -0.286869 -0.801895 0.524091 -0.249024 -0.371458 0.89443 
-0.281062 -0.0420618 0.958767 -0.605973 -0.246808 0.756229 -0.484585 -0.518601 0.704436 
-0.411268 -0.674864 0.612713 -0.520245 -0.101114 0.84801 -0.436622 -0.545725 0.715224 
-0.237248 -0.392333 0.8887 -0.185714 -0.115444 0.975799 -0.170552 0.0272932 0.984971 
-0.168885 -0.412934 0.894966 -0.344272 0.196753 0.918022 -0.285532 0.253735 0.92417 
-0.577702 -0.587707 0.566447 0.0503348 0.0503854 0.997461 0.0482679 0.0730374 0.996161 
0.0069862 -0.681795 0.73151 -0.200208 -0.148416 0.968447 -0.143244 0.366395 0.919367 
-0.0730064 0.662759 0.745265 -0.32935 0.448973 0.830633 -0.197617 0.49721 0.844825 
-0.324577 0.349071 0.87909 -0.87708 0.441197 -0.189937 -0.717378 -0.382012 0.582611 
-0.149181 0.89691 0.41629 -0.232955 -0.0177828 0.972325 -0.524893 0.79388 0.306987 
-0.343103 0.586721 0.733511 -0.182551 0.803958 0.565974 -0.135978 0.950014 0.281042 
0.723698 0.685661 -0.0782917 0.264904 0.961547 0.0724722 -0.0843031 -0.947314 0.309012 
-0.209542 -0.908613 0.361268 0.249138 -0.964453 0.0880983 -0.549494 -0.814043 0.188126 
0.00202713 -0.576918 -0.8168 -0.374693 -0.898426 0.228989 -0.27858 -0.21656 -0.935679 
-0.439392 -0.895277 0.0735827 -0.539872 -0.581154 0.608933 0.814158 -0.288915 -0.503662 
0.105344 -0.444845 0.88939 -0.124483 0.884961 0.448718 -0.389561 -0.12523 0.912447 
-0.373323 0.3276 0.867933 -0.305051 -0.0715339 0.949645 -0.408223 -0.498437 0.764797 
-0.517036 0.0414141 0.854961 -0.366245 -0.491178 0.790322 -0.204365 -0.324686 0.923479 
-0.336425 -0.111907 0.935037 0.984573 -0.168106 -0.0485402 -0.2112 0.0147398 0.977332 
-0.202537 -0.221318 0.953938 -0.102758 0.369 0.923731 -0.245843 0.31867 0.915429 
-0.104205 0.27914 0.95458 -0.122401 0.493301 0.861204 -0.421996 0.348342 0.837005 
-0.459997 0.354702 0.813996 -0.334508 0.0957373 0.937518 -0.48423 0.519139 0.704284 
-0.392326 0.663209 0.637365 -0.28937 0.820779 0.49253 -0.424373 0.721656 0.546919 
0.177858 0.928258 0.326655 -0.170676 0.904725 0.390311 0.265126 0.954428 0.137024 
-0.157325 -0.835632 0.526278 -0.116001 -0.765134 0.633336 -0.395977 -0.740721 0.54271 
-0.34801 -0.708898 0.613476 -0.27537 -0.114369 0.954511 -0.380975 -0.577138 0.722336 
-0.0804838 0.0513235 0.995434 -0.279317 0.0337431 0.959606 -0.1507 -0.132431 0.979669 
-0.259717 0.0673299 0.963335 -0.188433 -0.051831 0.980717 0 0 -1 
-0.83205 -0.5547 0 -1 0 2.78775e-08 1 0 2.78775e-08 
-0.316154 0.458628 0.830486 -0.199619 0.0320321 0.97935 -0.220058 0.105358 0.969781 
-0.0950408 -0.0394351 0.994692 0 0.5547 -0.83205 0.275951 -0.804241 -0.526353 
-0.839861 0.219009 -0.496658 0.57735 0.57735 -0.57735 0.815276 -0.250684 0.521999 
-0.336639 0.543032 0.769279 -0.372421 0.112508 0.921219 -0.0544205 -0.0973783 0.993758 
-0.000201443 0.335408 0.942073 0.809434 0.571548 -0.134716 -0.292333 0.126165 0.947958 
-0.274792 0.771457 0.573884 0.156439 0.982317 -0.102858 -0.182541 0.926508 0.329032 
-0.163834 0.868465 0.467896 -0.215858 0.942195 0.256271 -0.0122271 0.90352 0.428372 
-0.171205 0.982859 0.0683827 0.509798 0.859951 -0.0242923 -0.174963 -0.673308 0.718362 