# vtk DataFile Version 4.2
vtk output
ASCII
DATASET POLYDATA
POINTS 656 float
342.17 140.404 205.128 342.406 140.38 205.238 342.504 140.626 205.208 
340.76 141.682 204.834 341.182 142.194 204.75 342.543 141.683 205.259 
340.597 142.749 204.763 340.151 143.068 204.844 340.918 143.048 204.805 
341.62 142.942 204.975 341.566 139.528 205.591 342.527 140.163 205.455 
340.787 140.808 205.11 342.645 140.466 205.403 342.859 140.751 205.598 
338.918 143.37 205.193 342.851 142.404 205.749 337.713 144.12 205.471 
338.082 145.057 205.296 337.789 146.171 205.461 337.961 146.499 205.57 
338.514 146.51 205.63 331.423 150.821 205.97 331.383 150.818 205.996 
331.414 150.874 206 331.442 150.766 205.999 331.474 150.822 206.002 
320.926 159.22 206.211 321.681 158.64 206.064 322.102 158.962 206.165 
321.178 159.558 206.329 342.289 139.104 206.188 342.596 139.184 206.254 
342.772 139.213 206.409 340.853 139.533 205.948 342.099 139.76 205.503 
340.131 140.301 205.739 343.104 139.721 206.339 343.287 139.917 206.537 
337.242 142.467 206.59 343.549 141.519 206.599 336.991 143.565 206.007 
335.358 145.71 206.065 335.302 146.43 205.965 336.844 146.017 205.61 
340.537 145.855 205.797 332.397 149.446 206.192 333.917 149.466 206.208 
335.441 149.358 206.392 327.042 152.44 206.308 331.363 150.679 206.077 
331.293 150.949 206.079 331.591 150.686 206.088 326.08 153.459 206.114 
331.521 150.957 206.091 324.431 154.289 206.153 327.261 153.596 206.027 
324.309 155.048 205.992 326.279 154.477 205.927 327.743 154.08 206.045 
326.738 154.952 205.962 324.434 156.109 205.912 327.88 155.202 206.219 
321.71 158.142 206.101 319.636 158.968 206.854 319.498 159.02 206.983 
319.804 158.703 206.816 326.572 157.209 206.482 319.615 159.157 206.882 
323.522 159.172 206.685 320.125 160.009 206.816 320.065 160.084 206.929 
320.129 160.115 206.849 320.188 160.211 206.933 320.655 160.622 207.123 
320.633 160.721 207.296 320.728 160.71 207.191 320.895 160.784 207.332 
341.753 138.937 206.349 342.159 138.811 206.569 342.365 138.846 206.682 
341.524 139.05 206.223 340.853 139.278 206.373 343.29 139.72 206.805 
343.663 140.664 206.976 335.633 144.616 206.325 343.082 144.002 206.861 
334.176 146.147 206.487 331.651 149.15 206.437 328.82 150.307 206.767 
331.708 149.99 206.248 338.032 149.212 207.239 330.794 150.864 206.215 
332.067 150.901 206.277 323.226 153.255 207.078 331.305 151.498 206.262 
319.611 158.426 207.062 319.325 159.42 207.353 320.171 159.684 206.77 
324.609 159.086 206.962 319.811 160.049 207.202 320.538 160.342 206.999 
320.086 160.338 207.191 321.139 160.556 207.127 320.766 161.031 207.791 
341.706 138.821 206.876 341.961 138.758 206.876 342.154 138.767 206.778 
340.654 139.307 207.041 342.609 138.976 206.914 343.391 139.863 207.243 
338.341 141.102 207.08 338.075 141.149 207.498 343.809 140.704 207.361 
343.907 140.91 207.576 343.951 141.933 207.632 344.003 141.664 207.805 
343.873 142.405 207.784 331.854 146.39 208.051 342.854 144.861 207.251 
341.419 146.59 207.12 329.479 148.929 207.397 325.524 151.234 207.714 
321.612 153.63 208.024 322.416 153.363 207.459 333.882 152.501 207.587 
335.615 151.815 208.106 330.436 155.526 207.402 318.974 158.229 207.962 
328.868 156.991 207.445 326.327 158.858 207.61 318.63 159.959 208.402 
319.479 160.968 208.381 341.653 138.847 207.092 342.143 138.784 207.034 
342.785 139.161 207.433 342.986 139.409 207.565 339.127 140.391 207.691 
338.88 140.593 208.067 336.454 142.328 208.442 334.238 143.998 208.577 
343.835 142.755 208.236 332.67 145.252 208.93 340.55 148.118 208.257 
324.926 150.883 208.854 339.079 149.524 208.527 322.78 152.661 208.067 
337.009 151.286 208.827 321.292 153.601 208.694 318.868 157.575 208.633 
318.511 160.734 209.15 321.26 161.551 208.617 320.208 161.82 209.195 
342.338 139.031 207.578 339.915 139.868 207.922 340.427 139.774 208.351 
342.584 139.51 208.212 339.038 140.667 208.62 336.652 142.169 208.854 
343.921 141.346 208.427 343.826 141.155 208.505 336.163 142.597 209.081 
343.43 144.297 208.63 322.191 152.77 208.819 323.742 151.589 209.253 
318.523 157.997 209.264 318.232 158.962 209.606 318.15 159.776 209.472 
325.878 160.031 208.977 318.239 160.512 209.662 318.706 161.19 209.609 
319.376 161.676 209.678 320.111 162.002 209.898 341.535 139.518 208.492 
342.806 139.879 208.518 343.175 140.152 208.442 339.746 140.569 209.079 
337.225 141.912 209.262 335.364 143.285 209.906 333.057 144.902 209.795 
343.207 144.824 209.602 323.008 152.04 210.063 338.537 150.434 209.747 
339.34 149.791 210.091 320.578 154.278 209.817 334.353 153.756 209.948 
319.252 156.522 210.086 318.673 157.688 209.964 318.116 159.898 209.858 
327.79 159.164 209.982 318.139 160.286 209.947 318.352 160.85 209.957 
322.518 161.761 209.738 319.169 161.614 210.689 341.057 140.051 209.006 
342.596 140.038 208.854 341.084 140.489 209.424 342.231 140.434 209.356 
342.876 140.574 209.206 342.706 140.703 209.399 332.825 145.365 210.7 
327.371 149.052 210.562 341.981 146.938 210.007 336.57 152.173 210.688 
332.84 155.207 210.64 318.562 158.129 210.176 318.771 158.267 210.779 
318.291 159.392 210.441 318.233 160.665 210.303 325.349 160.676 210.909 
320.972 162.188 210.523 342.94 140.909 209.373 335.196 144.011 211.06 
341.461 142.705 210.975 342.773 143.201 210.557 342.941 145.022 210.414 
330.499 147.426 211.488 341.848 147.033 210.685 341.077 148.028 211.121 
339.201 149.767 211.701 321.621 153.283 210.771 333.353 154.758 211.764 
332.288 155.651 211.727 319.427 157.582 211.463 318.28 160.228 210.562 
318.468 159.972 210.908 318.312 160.586 210.536 318.532 160.84 210.733 
318.844 160.798 211.285 319.342 161.615 211.554 321.266 162.131 211.246 
342.222 143.701 211.134 342.426 145.115 211.111 326.385 150.661 212.285 
328.218 149.958 212.957 325.71 151.386 212.483 335.272 152.951 212.528 
321.333 155.095 212.342 327.251 159.466 212.101 319.35 161.328 211.886 
319.375 161.528 211.768 324.025 161.264 212.044 319.783 161.68 212.149 
320.259 161.941 211.911 334.674 145.458 212.332 341.69 144.485 211.674 
342.136 144.205 211.331 337.631 145.271 212.907 334.02 146.467 212.949 
340.941 145.822 212.511 329.495 149.477 213.228 340.161 148.164 212.678 
339.103 149.404 212.745 336.879 151.518 212.643 335.621 152.414 212.97 
323.545 154.891 213.926 332.66 155.047 212.727 320.768 157.494 213.005 
329.932 157.235 212.803 328.667 158.212 212.806 319.993 161.754 212.26 
340.954 146.225 212.649 339.782 146.825 213.221 340.913 146.443 212.685 
335.731 148.197 214.176 338.678 147.367 213.783 339.628 147.513 213.392 
333.831 148.927 214.206 338.645 149.506 213.23 338.785 149.075 213.533 
337.51 150.282 213.553 335.758 151.688 213.683 323.207 155.88 214.182 
332.449 154.951 213.201 327.795 158.453 213.408 321.433 159.895 213.787 
320.851 160.653 213.273 324.246 160.617 213.341 322.509 161.335 213.235 
322.832 161.122 213.474 320.155 161.669 212.428 321.029 161.606 212.695 
341.063 146.32 212.604 339.217 148.155 213.674 336.593 148.969 214.375 
338.889 148.697 213.703 338.981 148.395 213.771 336.366 149.796 214.346 
336.835 149.508 214.337 329.303 151.956 214.39 334.233 150.991 214.658 
336.615 150.253 214.106 337.743 149.912 213.714 333.682 151.565 214.891 
334.114 151.934 214.754 325.228 154.393 214.39 326.722 153.947 214.588 
331.533 152.806 214.795 333.017 152.016 214.984 333.733 152.5 214.705 
327.99 154.345 214.856 328.921 154.635 214.882 331.211 153.731 214.844 
331.743 153.601 214.786 332.628 153.188 214.608 331.997 153.853 214.585 
333.593 152.849 214.429 326.202 155.786 214.891 330.353 155.086 214.476 
330.762 154.549 214.68 328.518 156.823 214.337 326.854 158.069 214.299 
322.171 159.85 214.135 325.471 159.596 213.816 324.863 159.777 213.95 
321.755 160.552 213.823 323.535 160.452 213.881 322.419 161.154 213.52 
337.117 148.712 214.309 338.581 148.118 213.966 333.629 151.903 215.01 
333.866 152.073 214.922 333.263 152.111 215.056 333.599 152.399 214.903 
333.725 152.216 214.963 331.619 153.822 214.846 331.626 153.95 214.764 
333.325 152.452 214.965 331.394 153.969 214.833 331.367 154.189 214.726 
328.853 155.584 214.745 326.011 157.199 214.826 325.164 157.949 214.736 
325.726 157.725 214.739 323.7 158.765 214.543 326.132 158.148 214.507 
323.353 159.495 214.367 324.634 158.959 214.488 323.065 160.008 214.212 
324.562 159.489 214.232 322.089 160.693 213.887 322.458 160.535 214.003 
322.959 160.492 213.982 321.988 160.944 213.73 333.477 152.091 215.057 
333.691 152.073 215.011 331.548 153.895 214.853 325.861 157.592 241.714 
324.381 158.32 241.903 325.441 158.849 242.043 334.556 149.593 242.319 
337.611 148.635 242.853 338.092 148.673 243.024 330.873 151.264 242.175 
335.105 150.282 242.35 338.188 149.126 243.161 330.042 152.007 242.124 
332.534 151.095 242.157 330.563 152.561 242.041 335.119 151.12 242.528 
337.751 150.032 243.283 333.285 152.208 242.375 334.037 152.204 242.607 
330.63 153.741 242.127 334.689 152.527 243.066 333.302 153.418 242.883 
328.203 157.26 242.388 326.31 158.606 242.175 323.329 158.946 242.322 
322.909 160.226 242.825 323.178 160.38 242.893 323.622 160.335 242.905 
322.825 160.549 243.049 337.749 147.457 243.064 333.477 148.514 242.651 
338.995 147.806 243.368 339.489 148.225 243.665 339.404 148.774 243.805 
329.417 151.083 242.509 339.131 149.273 243.96 336.93 151.223 243.573 
325.318 155.613 242.044 331.401 155.774 243.425 321.529 158.863 243.068 
327.088 159.19 243.369 320.409 159.96 243.886 320.725 160.687 243.839 
320.473 161.37 244.365 320.608 161.618 244.541 321.884 161.449 244.077 
323.106 161.258 243.871 334.652 145.591 244.334 336.357 145.92 243.569 
340.531 145.17 244.204 341.798 145.158 244.735 339.464 145.932 243.746 
341.264 146.428 244.402 341.806 146.164 244.79 341.763 146.613 244.924 
340.553 148.159 244.552 327.904 150.751 243.369 323.882 153.452 243.758 
333.839 153.977 243.798 322.072 156.058 243.43 333.246 154.616 244.019 
[...]
POINT_DATA 656
SCALARS scalars float
LOOKUP_TABLE default
1 1 1 1 1 1 1 1 1 
1 1 1 1 1 1 1 1 1 
1 1 1 1 1 1 1 1 1 
1 1 1 1 1 1 1 1 1 
1 1 1 1 1 1 1 1 1 
1 1 1 1 1 1 1 1 1 
1 1 1 1 1 1 1 1 1 
1 1 1 1 1 1 1 1 1 
1 1 1 1 1 1 1 1 1 
1 1 1 1 1 1 1 1 1 
1 1 1 1 1 1 1 1 1 
1 1 1 1 1 1 1 1 1 
1 1 1 1 1 1 1 1 1 
1 1 1 1 1 1 1 1 1 
1 1 1 1 1 1 1 1 1 
1 1 1 1 1 1 1 1 1 
1 1 1 1 1 1 1 1 1 
1 1 1 1 1 1 1 1 1 
1 1 1 1 1 1 1 1 1 
1 1 1 1 1 1 1 1 1 
1 1 1 1 1 1 1 1 1 
1 1 1 1 1 1 1 1 1 
1 1 1 1 1 1 1 1 1 
1 1 1 1 1 1 1 1 1 
1 1 1 1 1 1 1 1 1 
1 1 1 1 1 1 1 1 1 
1 1 1 1 1 1 1 1 1 
1 1 1 1 1 1 1 1 1 
1 1 1 1 1 1 1 1 1 
1 1 1 1 1 1 1 1 1 
1 1 1 1 1 1 1 1 1 
1 1 1 1 1 1 1 1 1 
1 1 1 1 1 1 1 1 1 
1 1 1 1 1 1 1 1 1 
1 1 1 1 1 1 1 1 1 
1 1 1 1 1 1 1 1 1 
1 1 1 1 1 1 1 1 1 
1 1 1 1 1 1 1 1 1 
1 1 1 1 1 1 1 1 1 
1 1 1 1 1 1 1 1 1 
1 1 1 1 1 1 1 1 1 
1 1 1 1 1 1 1 1 1 
1 1 1 1 1 1 1 1 1 
1 1 1 1 1 1 1 1 1 
1 1 1 1 1 1 1 1 1 
1 1 1 1 1 1 1 1 1 
1 1 1 1 1 1 1 1 1 
1 1 1 1 1 1 1 1 1 
1 1 1 1 1 1 1 1 1 
1 1 1 1 1 1 1 1 1 
1 1 1 1 1 1 1 1 1 
1 1 1 1 1 1 1 1 1 
1 1 1 1 1 1 1 1 1 
1 1 1 1 1 1 1 1 1 
1 1 1 1 1 1 1 1 1 
1 1 1 1 1 1 1 1 1 
1 1 1 1 1 1 1 1 1 
1 1 1 1 1 1 1 1 1 
1 1 1 1 1 1 1 1 1 
1 1 1 1 1 1 1 1 1 
1 1 1 1 1 1 1 1 1 
1 1 1 1 1 1 1 1 1 
1 1 1 1 1 1 1 1 1 
1 1 1 1 1 1 1 1 1 
1 1 1 1 1 1 1 1 1 
1 1 1 1 1 1 1 1 1 
1 1 1 1 1 1 1 1 1 
1 1 1 1 1 1 1 1 1 
1 1 1 1 1 1 1 1 1 
1 1 1 1 1 1 1 1 1 
1 1 1 1 1 1 1 1 1 
1 1 1 1 1 1 1 1 1 
1 1 1 1 1 1 1 1 
NORMALS Normals float
0.211877 -0.323686 -0.922136 0.485228 -0.394193 -0.78049 0.531201 -0.118651 -0.838897 
-0.294484 -0.227837 -0.9281 0.121391 -0.0784751 -0.989498 0.709307 0.0538997 -0.702836 
-0.00105244 0.0195565 -0.999808 -0.163727 0.18552 -0.968904 0.0787284 0.286075 -0.954968 
0.416697 0.2128 -0.883787 -0.0996395 -0.654463 -0.7495 0.582974 -0.468455 -0.663846 
-0.187938 -0.35661 -0.915155 0.722301 -0.30805 -0.619182 0.815965 -0.145155 -0.559581 
-0.232806 0.00594249 -0.972505 0.765659 0.237711 -0.597712 -0.41859 -0.228779 -0.878887 
-0.16791 0.0472092 -0.984671 -0.0531635 0.241723 -0.968888 -0.0144995 0.265284 -0.964061 
0.179769 0.386233 -0.904714 0.00993405 0.0212838 -0.999724 -0.550864 -0.11782 -0.826237 
-0.0121468 0.5041 -0.86356 0.0521367 -0.464605 -0.883982 0.535936 0.140237 -0.83253 
-0.301287 0.149612 -0.941723 0.0196737 0.114084 -0.993276 0.132341 0.226131 -0.965065 
0.0151506 0.48194 -0.876073 0.217861 -0.812429 -0.540829 0.42015 -0.665708 -0.616691 
0.653401 -0.719425 -0.235571 -0.423863 -0.707656 -0.565299 0.353101 -0.562758 -0.74741 
-0.562329 -0.588478 -0.58093 0.69646 -0.437802 -0.568571 0.880907 -0.334863 -0.334469 
-0.550495 -0.54702 -0.630654 0.88784 0.0515106 -0.457261 -0.46711 -0.276189 -0.839957 
-0.246375 -0.35507 -0.90179 -0.111273 -0.00438362 -0.99378 -0.24017 0.0773543 -0.967644 
0.406289 0.479654 -0.777728 -0.0744562 -0.266839 -0.960861 0.0584016 0.0937303 -0.993883 
0.136201 0.38834 -0.911395 -0.102789 -0.371088 -0.922891 -0.293129 -0.358686 -0.886239 
-0.317236 0.256054 -0.913125 0.36278 -0.170118 -0.916216 -0.0664242 -0.217917 -0.973704 
0.321244 0.380303 -0.867279 -0.159844 -0.243849 -0.95655 0.0636528 -0.132846 -0.989091 
-0.1746 -0.176068 -0.96877 0.0241743 -0.02653 -0.999356 0.141559 0.0219615 -0.989686 
0.143282 0.136936 -0.980163 0.118761 0.0886889 -0.988954 0.261386 0.295325 -0.918945 
-0.170296 -0.133576 -0.976297 -0.504164 -0.064981 -0.86116 -0.762369 -0.0885764 -0.641051 
-0.42083 -0.2357 -0.875984 0.210843 0.359386 -0.909058 -0.532181 0.210323 -0.82009 
0.289758 0.717526 -0.633401 -0.508548 0.169922 -0.844101 -0.766297 0.364562 -0.529039 
-0.178575 0.514454 -0.838718 -0.424583 0.73215 -0.532622 -0.269634 0.602483 -0.751207 
-0.370842 0.779105 -0.505443 0.0504919 0.698062 -0.714255 0.144053 0.880142 -0.452327 
-0.338129 -0.841318 -0.421727 0.153809 -0.869183 -0.46996 0.418189 -0.897708 -0.138703 
-0.045935 -0.752665 -0.6568 -0.495475 -0.815935 -0.297918 0.846889 -0.508431 -0.155812 
0.900671 -0.155763 -0.405622 -0.322911 -0.30191 -0.896983 0.831049 0.352251 -0.430438 
-0.390666 -0.31473 -0.865058 -0.247155 -0.357551 -0.900595 -0.256344 -0.478398 -0.839894 
-0.0379091 -0.146709 -0.988453 0.441677 0.643817 -0.624836 -0.21411 -0.170473 -0.961819 
0.284707 0.200749 -0.937359 -0.347387 -0.525838 -0.776413 0.132019 0.305055 -0.94314 
-0.54245 -0.36308 -0.757575 -0.837886 0.274544 -0.471776 -0.347582 0.267356 -0.898725 
0.256527 0.559645 -0.78803 -0.741794 0.470217 -0.47816 -0.110093 0.55475 -0.824701 
-0.55181 0.679594 -0.483383 0.0672007 0.661283 -0.74712 0.0137176 0.873159 -0.487242 
-0.417792 -0.891332 -0.176004 -0.109925 -0.993629 -0.0248451 0.171644 -0.983113 -0.0634516 
-0.453004 -0.881521 0.133069 0.560415 -0.828126 0.0119477 0.83475 -0.539463 0.11033 
-0.568489 -0.774939 -0.276206 -0.615749 -0.784923 -0.0689083 0.911829 -0.405455 -0.064609 
0.969161 -0.222173 -0.106609 0.949295 0.141399 -0.280794 0.9951 0.0305267 -0.094048 
0.956593 0.220213 -0.190881 -0.549545 -0.598831 -0.582582 0.724178 0.486589 -0.488669 
0.652387 0.628526 -0.423493 -0.415236 -0.548543 -0.725727 -0.420428 -0.685456 -0.594466 
-0.721481 -0.523709 -0.452984 -0.541426 -0.480169 -0.690142 0.425635 0.581323 -0.693468 
0.373853 0.657623 -0.654038 0.52546 0.514367 -0.67773 -0.859708 -0.176526 -0.479313 
0.41317 0.559693 -0.718355 0.429258 0.683675 -0.590192 -0.836226 0.173716 -0.520142 
-0.38297 0.761984 -0.52222 -0.34226 -0.926944 0.153731 0.216149 -0.954656 0.204724 
0.580941 -0.784817 0.215801 0.681432 -0.654917 0.326703 -0.506873 -0.846147 0.164665 
-0.560905 -0.824474 0.0750226 -0.582446 -0.797078 -0.159445 -0.62906 -0.774583 -0.065611 
0.977707 0.209316 0.0166164 -0.641832 -0.760193 -0.100792 0.670054 0.695153 -0.260366 
-0.554206 -0.783844 -0.28008 0.551314 0.740803 -0.383749 -0.507834 -0.764866 -0.396339 
0.545952 0.76703 -0.337049 -0.739394 -0.654937 -0.156058 -0.815267 -0.45118 -0.363011 
-0.736817 0.471549 -0.484502 0.0973021 0.870007 -0.483342 -0.261616 0.85586 -0.446162 
0.212486 -0.854503 0.473999 -0.601922 -0.797667 -0.0376375 -0.385165 -0.785862 0.483806 
0.47717 -0.696041 0.536503 -0.46481 -0.844624 0.265636 -0.505857 -0.862341 0.0218269 
0.936244 -0.0733894 0.343599 0.822429 -0.435732 0.365715 -0.534637 -0.811949 0.234312 
0.945511 0.324697 -0.0241129 -0.59123 -0.759281 -0.271919 -0.522958 -0.842119 -0.131726 
-0.943116 -0.288325 -0.16553 -0.974415 -0.207114 0.0872916 -0.960181 -0.0440952 -0.275876 
0.384844 0.869813 -0.30874 -0.920408 0.328802 -0.211515 -0.641352 0.732845 -0.227172 
-0.39805 0.899683 -0.179242 -0.12854 0.97535 -0.179358 -0.0461129 -0.837066 0.545155 
0.469085 -0.717711 0.514637 0.69435 -0.563684 0.447369 -0.34586 -0.789267 0.507384 
-0.449938 -0.838205 0.308167 -0.563117 -0.792001 0.235868 -0.610179 -0.779915 0.139336 
0.932079 0.359407 0.0453297 -0.569178 -0.821754 0.0275162 0.6085 0.775982 -0.166072 
0.766717 0.640272 -0.0468817 -0.854655 -0.519094 -0.0102933 0.60324 0.771611 -0.201787 
-0.834419 -0.474557 0.280251 -0.887172 -0.422672 0.185134 -0.999629 -0.0140722 -0.0232993 
0.592492 0.786273 -0.175294 -0.993069 0.00726458 0.117309 -0.790554 0.61019 -0.0518892 
0.249123 0.946992 -0.202842 -0.659663 0.736137 0.151483 -0.111921 -0.717579 0.687426 
0.229539 -0.716177 0.659092 -0.270221 -0.626733 0.73088 0.14294 -0.51188 0.847082 
0.49201 -0.577161 0.651776 0.18625 -0.258882 0.947782 -0.570492 -0.726872 0.382355 
-0.547903 -0.743481 0.383456 0.812963 0.581444 -0.0318378 0.641166 0.7671 0.021551 
0.618916 0.773647 -0.135694 -0.931663 -0.283137 0.227679 -0.866495 -0.273985 0.417276 
-0.954109 -0.152022 0.258004 -0.875537 0.448266 0.180256 0.464696 0.884876 0.0324298 
-0.0481725 0.998245 -0.0344445 0.542492 -0.265499 0.797002 -0.418752 -0.775507 0.472477 
0.103988 -0.433075 0.895339 0.597714 -0.285061 0.749318 0.897704 0.109759 0.42671 
-0.533315 -0.707362 0.463911 0.812982 0.52295 0.256092 0.771294 0.578623 0.265145 
0.733423 0.652364 0.191084 -0.611861 -0.685002 0.395473 0.674901 0.720175 0.1608 
0.593901 0.785803 0.172613 -0.784954 -0.344145 0.515181 -0.909272 -0.000955536 0.416201 
-0.831463 -0.0626609 0.552035 -0.846533 0.209489 0.489384 -0.798081 0.353423 0.488015 
-0.834678 0.352512 0.42314 -0.547539 0.819958 0.166942 0.118048 0.985136 0.12479 
0.566479 -0.231324 0.790943 0.759219 0.0936185 0.644066 -0.502891 -0.655555 0.563336 
-0.304649 -0.539744 0.784771 -0.531485 -0.745232 0.402682 0.581821 0.72136 0.375664 
-0.681702 -0.448756 0.577841 0.513074 0.833891 0.203425 -0.755354 0.180104 0.630082 
-0.774126 0.476627 0.4166 0.351793 0.931058 0.0968141 -0.58031 0.634644 0.51036 
-0.193919 0.946561 0.257715 -0.207445 -0.565807 0.798016 0.270976 -0.301193 0.914251 
0.58996 -0.190023 0.784754 0.0657061 -0.472742 0.878748 -0.333175 -0.593518 0.732619 
0.164581 -0.331567 0.928965 -0.362396 -0.55611 0.747938 0.71802 0.320379 0.617903 
0.748884 0.547605 0.373231 0.621435 0.688808 0.373312 0.554981 0.720759 0.415334 
-0.453891 -0.524881 0.720058 0.639616 0.722021 0.263774 -0.653261 -0.227537 0.722134 
0.556823 0.707628 0.434985 0.580197 0.68265 0.444253 -0.506247 0.475992 0.719128 
0.149362 -0.232591 0.961037 0.418009 -0.134095 0.898492 0.380657 -0.00166303 0.924715 
-0.0643695 -0.290837 0.954605 0.145 -0.341196 0.928741 0.408898 -0.206803 0.888839 
-0.131505 -0.316429 0.939457 0.634734 0.5673 0.524675 0.643924 0.510313 0.570037 
0.493683 0.569038 0.657627 0.447434 0.500394 0.741221 -0.43233 -0.248536 0.866787 
0.542837 0.661065 0.517997 0.456461 0.652367 0.60503 -0.463041 0.0782367 0.882877 
-0.58281 0.192484 0.789483 0.37287 0.750409 0.545761 0.122692 0.896896 0.424882 
0.197483 0.726399 0.658289 -0.273747 0.678019 0.682168 -0.226541 0.728479 0.646528 
0.68119 0.0718266 0.728574 0.67802 0.307793 0.667497 -0.0230524 -0.153841 0.987827 
0.504007 0.362059 0.784149 0.369802 -0.0140184 0.929005 0.118019 0.178634 0.976812 
0.328296 0.292706 0.898078 -0.117985 -0.332878 0.93556 0.158546 -0.125768 0.979309 
0.38799 0.476926 0.788673 0.56392 0.509862 0.649642 0.132748 -0.3144 0.939963 
0.608035 0.31427 0.729059 -0.330014 -0.400554 0.854779 -0.0798295 -0.453814 0.887513 
-0.0655377 -0.15117 0.986333 -0.147281 -0.365254 0.919183 0.544271 0.615751 0.569754 
0.045292 -0.309588 0.949792 0.0955342 -0.0608883 0.993562 -0.0445396 0.0602664 0.997188 
0.254612 0.0333696 0.966467 0.246382 0.427845 0.869623 0.482145 0.566202 0.668544 
0.51322 0.624271 0.588975 -0.221605 -0.0926694 0.970723 0.294696 0.46666 0.833896 
0.324804 0.556592 0.764661 0.465587 0.515754 0.719184 0.359657 0.458685 0.81256 
-0.289299 0.0330988 0.956666 0.361851 0.590973 0.720982 0.262701 0.611652 0.746237 
-0.361806 0.30364 0.881419 0.310291 0.531997 0.787844 0.0521304 0.720501 0.691492 
0.100431 -0.165885 0.981018 0.311824 0.040641 0.94927 0.254474 -0.21312 0.943304 
0.591083 0.184648 0.785192 -0.0431234 0.135621 0.989822 0.482093 0.611393 0.627523 
0.329615 0.405983 0.852368 0.41284 0.13325 0.901004 0.482749 0.468537 0.739883 
0.213256 0.538621 0.815113 0.0124847 0.436268 0.89973 0.205757 0.571412 0.794451 
0.222059 0.276151 0.93511 0.108164 0.19682 0.974455 -0.0589433 0.230083 0.971384 
0.0313467 0.190969 0.981095 -0.092527 0.163845 0.982137 0.245584 0.459824 0.853376 
0.156644 0.370717 0.915441 -0.049268 0.256847 0.965195 0.0586438 0.352939 0.933807 
0.156186 0.491746 0.856616 -0.131686 0.512494 0.848533 -0.145545 0.335802 0.93062 
0.167249 0.560514 0.811081 -0.210629 0.665715 0.715862 0.0327477 -0.0876534 0.995613 
0.337805 0.051094 0.939828 0.0971404 0.151366 0.983693 0.112358 0.0889866 -0.989675 
-0.257829 0.0323925 -0.965648 0.136655 0.457202 -0.878801 0.011901 -0.0714251 -0.997375 
0.198751 -0.0126779 -0.979968 0.432786 0.071223 -0.898679 -0.0561858 -0.291726 -0.95485 
0.088596 0.111445 -0.989814 0.456175 0.240493 -0.856777 -0.208629 -0.164725 -0.964023 
0.0797531 0.00861963 -0.996777 0.0549012 0.068484 -0.99614 0.253697 0.293319 -0.921738 
0.521573 0.463751 -0.716168 0.174815 0.173787 -0.969143 0.333298 0.353252 -0.874143 
0.220415 0.269388 -0.937468 0.62214 0.593472 -0.510621 0.348958 0.450631 -0.821681 
0.367633 0.324958 -0.871349 0.348678 0.522667 -0.777974 -0.239213 0.132498 -0.961884 
-0.240342 0.369212 -0.897729 0.017497 0.565639 -0.824468 0.124041 0.615149 -0.778592 
-0.0761983 0.673525 -0.735227 0.209526 -0.255893 -0.943725 -0.184744 -0.422805 -0.88719 
0.346464 -0.0372142 -0.937325 0.308434 0.246282 -0.918811 0.548583 0.494142 -0.674448 
-0.244363 -0.501649 -0.829841 0.530852 0.440058 -0.724255 0.558953 0.600187 -0.572142 
-0.317722 -0.209006 -0.924861 0.53779 0.492805 -0.68405 -0.510585 -0.0524834 -0.858224 
0.470698 0.742646 -0.476361 -0.613058 0.143645 -0.776869 -0.438264 0.411153 -0.799299 
-0.447473 0.548101 -0.70665 -0.283306 0.80688 -0.518347 -0.0976132 0.759084 -0.643632 
0.283356 0.872229 -0.398655 -0.403312 -0.671294 -0.621855 -0.0703286 -0.521238 -0.850508 
0.301187 -0.233861 -0.924443 0.448218 -0.217322 -0.867106 0.212633 -0.205471 -0.955285 
0.558216 0.183112 -0.809237 0.649242 0.0922913 -0.754962 0.70302 0.401947 -0.586687 
0.75413 0.540179 -0.373489 -0.384904 -0.627849 -0.676501 -0.417243 -0.517384 -0.747143 
0.537689 0.671975 -0.509255 -0.572661 -0.365194 -0.733957 0.549314 0.665538 -0.505286 
0.531601 0.781667 -0.326185 -0.439471 0.72247 -0.533763 -0.0216643 0.764234 -0.644575 
0.164186 -0.429956 -0.887795 0.790884 0.324258 -0.518999 0.783211 0.047266 -0.619957 
0.836444 0.519756 -0.173824 0.735027 0.561065 -0.380711 0.686036 0.64815 -0.330541 
-0.491834 -0.705995 -0.509579 -0.514114 -0.741506 -0.431109 -0.621582 -0.630648 -0.464671 
0.589864 0.781447 -0.203473 -0.579985 -0.258022 -0.772685 0.624767 0.758782 -0.184164 
-0.79598 -0.0613637 -0.602205 -0.737475 0.448651 -0.504819 -0.552128 0.744499 -0.375335 
0.0996449 0.944578 -0.3128 -0.256351 0.921879 -0.290558 0.514491 -0.487507 -0.705434 
0.296335 -0.432813 -0.851386 0.85263 0.03471 -0.521361 -0.442759 -0.766639 -0.465005 
-0.509746 -0.742288 -0.434934 0.904352 0.302754 -0.300812 -0.496952 -0.843271 -0.204776 
0.869967 0.458179 -0.182291 0.71767 0.678826 -0.155387 0.63046 0.753492 -0.186468 
-0.788715 -0.535109 -0.302634 0.79757 0.595978 -0.0932299 -0.822027 -0.275146 -0.498565 
0.510145 0.857975 -0.0602549 -0.56461 0.796501 -0.216337 -0.271803 0.949415 -0.157273 
-0.061588 0.969109 -0.238818 0.0899247 -0.593295 -0.799946 0.698317 -0.252618 -0.66973 
-0.579596 -0.747377 -0.324802 0.922967 0.143549 -0.357107 0.881452 0.414762 -0.225867 
0.756514 0.64927 0.0783353 -0.557669 -0.811637 -0.173927 -0.654306 -0.756015 0.0180394 
0.625336 0.77981 0.029166 -0.87374 0.38477 -0.297541 0.314828 0.9379 -0.145696 
-0.674102 0.716326 -0.180177 -0.564091 0.810627 -0.157115 0.0407634 -0.713747 -0.699216 
-0.427466 -0.793645 -0.432899 0.516509 -0.582726 -0.627415 -0.484577 -0.744722 -0.458884 
0.904799 -0.187976 -0.382105 -0.477467 -0.8781 0.0310772 0.943638 -0.0310352 -0.329521 
0.925006 0.374033 0.0668116 -0.508245 -0.859361 0.0564424 -0.52379 -0.828126 0.199627 
-0.656109 -0.754395 0.0202386 -0.848062 -0.529412 0.0226696 0.595366 0.799499 0.0796326 
-0.854421 -0.426193 -0.297194 -0.864648 -0.481465 -0.143437 0.587002 0.806927 -0.0655595 
-0.976248 -0.0273244 -0.214925 0.531964 0.842184 0.087986 0.46061 0.858657 0.224828 
-0.798915 0.59409 -0.0937629 0.115965 0.99037 0.0756232 -0.394717 0.918395 -0.0273761 
-0.17574 0.98238 0.0635982 -0.117554 -0.751328 -0.649374 -0.364077 -0.744616 -0.55946 
0.444859 -0.738282 -0.506992 -0.404228 -0.73804 -0.540275 0.400988 -0.682549 -0.611012 
0.740186 -0.575169 -0.34829 -0.583741 -0.811329 0.031492 -0.57039 -0.797788 -0.195422 
0.8961 -0.343861 -0.280651 -0.589655 -0.783162 -0.197394 0.850091 -0.348064 -0.395218 
0.985502 -0.124863 -0.11487 -0.651555 -0.75815 -0.0261477 0.984989 0.12996 -0.11361 
0.794975 0.582159 0.170605 0.603895 0.727258 0.3262 -0.749686 -0.65167 0.115312 
-0.7761 -0.619666 0.116977 0.701014 0.684418 0.200379 -0.883685 -0.44039 0.158608 
0.590472 0.742656 0.315919 -0.982577 -0.123258 0.139105 0.266514 0.890099 0.369721 
0.498113 0.786272 0.365595 -0.968865 0.243616 -0.0441764 -0.570177 0.811265 0.129409 
-0.326304 0.928031 0.179678 -0.129373 -0.938005 -0.321574 0.201719 -0.887082 -0.415206 
0.482326 -0.857839 -0.17741 -0.200578 -0.859034 -0.470988 -0.483148 -0.788422 -0.380733 
0.714922 -0.6661 -0.212595 -0.596774 -0.789776 -0.141826 -0.598283 -0.795979 -0.0920586 
0.842038 -0.476023 -0.25372 0.938363 -0.345643 -0.00234059 -0.612337 -0.786801 0.0773791 
-0.598253 -0.774903 0.204006 0.99882 -0.0321396 -0.0363996 -0.448943 -0.753534 0.480246 
-0.567239 -0.759521 0.318381 -0.564937 -0.806948 0.17228 -0.497074 -0.855989 0.142128 
-0.499542 -0.660897 0.560065 -0.456795 -0.745542 0.485289 -0.435138 -0.825239 0.360049 
-0.513299 -0.676235 0.528423 -0.65903 -0.673186 0.33541 -0.765081 -0.555085 0.326391 
0.561927 0.696022 0.446979 -0.877387 -0.335583 0.342893 -0.943483 0.222852 0.24531 
-0.844794 0.508532 0.166492 -0.78117 0.608565 0.139366 -0.0173206 -0.993062 0.116306 
0.303108 -0.945221 0.12117 0.518763 -0.854916 -0.00195221 -0.431688 -0.89813 -0.083707 
0.810249 -0.486863 0.326284 -0.617012 -0.785749 -0.0435185 0.936036 -0.291591 0.197006 
-0.615457 -0.733091 0.289467 0.953241 -0.120811 0.277013 -0.676073 -0.655645 0.336236 
0.976459 -0.0506539 0.209673 -0.598829 -0.633088 0.490513 0.916454 0.240768 0.319598 
-0.450685 -0.674637 0.584593 0.72117 0.539153 0.435003 -0.435215 -0.737309 0.516685 
0.422322 0.637086 0.644799 0.643355 0.603879 0.470558 -0.632842 -0.567891 0.526318 
-0.707692 -0.434698 0.556966 -0.802151 -0.424745 0.419696 -0.688088 -0.242865 0.683777 
-0.729972 0.0147538 0.683318 -0.733225 0.128996 0.667639 -0.726998 0.384775 0.568703 
-0.619618 0.399677 0.675523 0.208225 0.88712 0.411898 -0.427282 0.761138 0.487953 
0.0856809 0.843814 0.529752 -0.0233468 0.917004 0.398195 -0.347715 -0.890396 0.293751 
0.640106 -0.732401 0.232063 0.429486 -0.672876 0.602312 0.887659 -0.421552 0.185354 
-0.633112 -0.579776 0.512864 0.855243 0.0250563 0.517621 -0.606232 -0.6147 0.504606 
-0.466733 -0.415812 0.780552 0.768077 0.407462 0.493996 -0.517429 -0.432228 0.738543 
-0.430228 -0.566012 0.703232 0.415586 0.555852 0.719942 -0.329128 -0.600298 0.728915 
-0.506897 -0.59949 0.619408 0.392207 0.494182 0.77586 -0.502221 -0.494848 0.709154 
0.482671 0.565435 0.668814 0.335164 0.55185 0.763627 0.168372 0.616182 0.769396 
-0.0277152 -0.773696 0.63295 -0.110643 -0.826 0.552705 0.247554 -0.836483 0.488889 
-0.265659 -0.632374 0.727687 0.692447 -0.506851 0.513438 -0.600285 -0.694139 0.397277 
0.817126 -0.288108 0.499299 -0.574213 -0.635341 0.516354 0.859541 -0.0676912 0.506563 
-0.501554 -0.477853 0.72118 -0.580205 -0.417107 0.69956 0.780739 0.169891 0.601319 
0.594825 0.329527 0.733209 -0.42293 -0.31365 0.850149 -0.243636 -0.0996257 0.964736 
0.479475 0.437303 0.760835 -0.0366766 -0.094698 0.99483 0.266329 0.359601 0.894291 
0.22165 0.41926 0.880393 -0.00343274 0.188914 0.981988 -0.14632 -0.386278 0.910703 
-0.306514 -0.420732 0.853835 0.29697 0.165897 0.940365 0.369389 0.306855 0.87715 
0.274071 0.324349 0.905364 0.401984 0.34322 0.848887 -0.328019 -0.258671 0.908566 
-0.433996 -0.321812 0.841478 0.253694 0.22752 0.940146 0.274888 0.429065 0.86043 
-0.544112 0.203318 0.814005 -0.406772 -0.0286273 0.913081 -0.247563 0.428043 0.86919 
-0.243489 0.584374 0.774093 -0.237075 0.574833 0.783174 0.163985 -0.607291 0.777372 
0.0883054 -0.532423 0.84186 0.257617 -0.457085 0.851297 0.560584 -0.367765 0.741953 
-0.272426 -0.371754 0.887459 0.735574 -0.0818764 0.672478 -0.170459 -0.315931 0.933344 
-0.323978 -0.220958 0.9199 0.607111 0.0433371 0.793434 -0.336709 -0.378527 0.862174 
0.395746 0.173624 0.901798 -0.230921 -0.103507 0.967451 -0.0552522 0.0702666 0.995997 
-0.0164662 0.0469775 0.99876 0.207769 0.261078 0.942693 0.213916 0.24534 0.945541 