# vtk DataFile Version 4.2
vtk output
ASCII
DATASET POLYDATA
POINTS 5801 float
280 147.009 77.0174 280 147.009 77.0175 280 147.009 77.0175 
280 147.009 77.0175 280 147.009 77.0175 280 147.009 77.0175 
279.507 150.511 78.0102 279.507 150.511 78.0103 279.507 150.512 78.0102 
279.507 150.511 78.0103 279.507 150.512 78.0102 279.508 150.512 78.0103 
279.507 150.512 78.0103 279.507 150.512 78.0102 279.508 150.512 78.0104 
279.508 150.512 78.0103 279.508 150.512 78.0104 279.508 150.512 78.0102 
279.508 150.512 78.0103 279.509 150.512 78.0104 279.509 150.512 78.0104 
279.509 150.512 78.0103 279.509 150.512 78.0103 279.509 150.512 78.0103 
281 154.009 78.0174 281 154.009 78.0175 281 154.009 78.0175 
281 154.009 78.0175 281 154.009 78.0175 282.004 155.013 78.0087 
282.004 155.013 78.0087 282.004 155.013 78.0087 282.004 155.013 78.0088 
282.004 155.013 78.0088 279.507 150.512 78.0104 279.508 150.512 78.0104 
279.507 150.512 78.0104 279.509 150.512 78.0104 279.508 150.512 78.0104 
279.509 150.512 78.0104 281 154.009 78.0175 282.004 155.013 78.0088 
281.61 157.853 79.0117 281.61 157.853 79.0118 281.61 157.853 79.0117 
281.61 157.853 79.0117 281.61 157.853 79.0118 281.61 157.853 79.0117 
281.61 157.853 79.0116 281.61 157.853 79.0117 281.61 157.853 79.0115 
281.611 157.853 79.0116 281.61 157.853 79.0116 281.61 157.853 79.0115 
281.61 157.853 79.0115 281.611 157.853 79.0115 281.611 157.853 79.0115 
283 161.009 79.0174 283 161.009 79.0175 283 161.009 79.0175 
283 161.009 79.0175 283 161.009 79.0175 272.068 143.776 80.6143 
272.077 143.764 80.6051 272.047 143.797 80.6345 271.995 143.856 80.6859 
271.976 143.867 80.7042 271.888 143.971 80.7912 271.771 144.09 80.9064 
271.649 144.219 81.0256 271.258 144.444 81.4117 271.541 144.352 81.1361 
271.633 144.285 81.0449 271.618 144.334 81.0609 271.636 144.32 81.0432 
271.644 144.329 81.0361 281.61 157.853 79.0118 281.61 157.853 79.0118 
281.61 157.853 79.0117 281.61 157.853 79.0117 281.611 157.853 79.0115 
279 160.009 80.0174 279 160.009 80.0175 279 160.009 80.0175 
279 160.009 80.0175 281.871 163.236 80.612 281.872 163.248 80.6183 
281.879 163.278 80.6367 281.876 163.265 80.6293 279 160.009 80.0175 
281.874 163.283 80.6367 281.875 163.294 80.6422 281.878 163.3 80.6471 
281.887 163.323 80.6633 281.874 163.267 80.6287 281.9 163.378 80.6975 
281.894 163.355 80.6838 283 161.009 79.0175 281.882 163.34 80.6695 
281.896 163.442 80.7289 281.93 163.518 80.7838 281.931 163.521 80.7867 
281.912 163.578 80.8083 281.968 163.671 80.8815 281.996 163.783 80.9535 
282.001 163.799 80.965 281.925 163.706 80.8836 282.057 163.985 81.091 
282.096 164.105 81.1737 270.002 139.511 81.0152 270.002 139.511 81.0152 
270.002 139.511 81.0152 270.002 139.511 81.0153 270.002 139.511 81.0152 
270.002 139.511 81.0153 270.002 139.511 81.0153 270.002 139.511 81.0153 
270.417 143.984 82.0296 270.416 143.992 82.0329 272.043 143.798 80.6379 
272.065 143.774 80.6163 270.393 144.041 82.0671 270.341 144.105 82.1418 
271.977 143.859 80.7023 270.372 144.163 82.1145 271.807 144.002 80.8677 
270.465 144.36 82.0753 270.45 144.413 82.1703 271.505 144.186 81.1585 
270.978 144.394 81.6582 270.674 144.79 81.9791 270.836 144.669 81.8473 
270.247 145.203 82.3993 270.356 145.106 82.3608 270.573 144.861 82.1345 
270.092 145.501 82.5864 270.151 145.404 82.5722 270.036 145.635 82.6583 
269.951 145.695 82.7513 270.021 145.672 82.6889 279 160.009 80.0175 
281.872 163.255 80.6224 281.881 163.344 80.6717 281.882 163.331 80.6663 
281.884 163.32 80.6615 278 162.009 81.0174 278 162.009 81.0175 
278 162.009 81.0175 278 162.009 81.0175 281.904 163.501 80.7655 
276.201 163.817 81.0105 276.201 163.817 81.0106 276.201 163.817 81.0106 
276.201 163.817 81.0105 276.201 163.817 81.0106 276.201 163.817 81.0106 
278 162.009 81.0175 281.92 163.661 80.8584 281.949 163.784 80.9405 
281.996 163.817 80.976 276.201 163.817 81.0105 276.201 163.817 81.0106 
276.201 163.817 81.0104 276.202 163.818 81.0104 276.202 163.818 81.0104 
276.202 163.818 81.0104 281.622 164.413 81.1732 281.935 163.816 80.951 
281.955 164.134 81.1409 282.048 164.16 81.1945 282.134 164.217 81.2552 
282.265 164.584 81.5275 276.202 163.818 81.0104 276.202 163.818 81.0105 
276.202 163.818 81.0104 276.203 163.818 81.0104 281.626 164.408 81.1715 
281.677 164.399 81.1855 281.812 164.365 81.2185 282.498 165.083 81.9213 
276.203 163.818 81.0104 282.451 165.097 81.9144 269.002 138.511 82.0152 
269.002 138.511 82.0152 269.002 138.511 82.0152 269.002 138.511 82.0153 
269.002 138.511 82.0152 269.002 138.511 82.0153 269.002 138.511 82.0153 
270.002 139.511 81.0153 269.002 138.511 82.0153 270.002 139.511 81.0153 
270.099 143.968 82.3142 270.396 144.005 82.054 270.104 144.023 82.3221 
270.02 144.041 82.3985 270.35 144.042 82.1089 269.757 144.147 82.6515 
270.205 144.097 82.2589 269.313 144.394 82.9703 269.52 145.898 83.2095 
269.689 145.831 83.0477 269.828 145.756 82.9221 274.003 163.011 82.0145 
274.003 163.011 82.0145 274.003 163.011 82.0145 274.003 163.011 82.0146 
278 162.009 81.0175 274.003 163.012 82.0145 274.003 163.012 82.0146 
274.003 163.012 82.0145 276.201 163.817 81.0106 276.201 163.817 81.0106 
274.003 163.012 82.0145 274.003 163.012 82.0146 274.003 163.012 82.0145 
276.202 163.818 81.0106 276.202 163.818 81.0105 281.656 164.421 81.1909 
274.003 163.012 82.0146 275.004 165.013 82.0087 275.004 165.013 82.0087 
275.004 165.013 82.0087 275.004 165.013 82.0088 276.203 163.818 81.0105 
278.013 166.518 82.0086 278.013 166.518 82.0086 278.012 166.518 82.0086 
278.013 166.518 82.0086 281.747 164.438 81.2358 281.921 164.496 81.3394 
282.263 164.822 81.6728 282.646 165.373 82.1585 282.759 165.593 82.3427 
275.004 165.013 82.0088 276.004 166.013 82.0087 276.004 166.013 82.0087 
276.004 166.013 82.0087 276.004 166.013 82.0088 278.012 166.518 82.0087 
278.012 166.518 82.0086 278.012 166.518 82.0087 278.012 166.518 82.0087 
278.012 166.518 82.0088 282.62 165.393 82.1671 282.644 165.433 82.1993 
282.714 165.548 82.2993 276.004 166.013 82.0088 278.011 166.518 82.0088 
278.011 166.519 82.0089 278.011 166.518 82.0088 278.011 166.518 82.0088 
278.011 166.518 82.0089 278.012 166.518 82.0088 282.772 165.662 82.3962 
282.86 165.823 82.5377 282.871 165.836 82.5465 282.846 165.783 82.501 
278.011 166.519 82.0089 278.011 166.519 82.009 278.011 166.519 82.0089 
278.011 166.519 82.0089 282.889 165.874 82.5803 278.01 166.519 82.009 
267.771 141.488 83.8859 267.772 141.475 83.8802 267.765 141.505 83.8945 
269.002 138.511 82.0153 267.756 141.512 83.9074 267.749 141.579 83.9354 
267.727 141.613 83.9543 267.722 141.59 83.9714 269.002 138.511 82.0153 
267.72 141.833 84.0291 267.606 141.812 84.0932 267.706 142.217 84.0528 
267.35 142.184 84.1899 267.679 141.912 84.1719 267.788 142.167 84.0869 
270.067 143.992 82.3505 267.775 142.793 83.9726 267.938 142.623 84.0413 
268.129 142.946 84.2147 269.984 144.05 82.4518 268.323 143.355 83.7923 
268.641 143.626 83.9079 269.765 144.11 82.7059 269.194 144.029 83.2451 
269.413 144.358 83.3649 269.849 144.842 83.0347 269.8 145.58 83.0936 
268.596 146.563 84.0473 269.113 146.202 83.7325 269.583 145.903 83.2227 
269 155.009 83.0174 269 155.009 83.0175 269 155.009 83.0175 
269 155.009 83.0175 269 155.009 83.0175 269.274 159.538 85.5253 
269.231 159.446 85.5252 269.033 159.635 85.5409 269.332 159.97 85.516 
270.455 161.687 85.234 270.466 161.74 85.2473 270.467 161.701 85.2391 
270.32 161.7 85.3751 270.477 161.737 85.3146 270.491 161.853 85.3 
270.528 161.856 85.3337 274.003 163.011 82.0146 270.458 162.069 85.4392 
270.524 161.923 85.3595 272.349 164.766 85.4412 272.457 164.817 85.4434 
274.003 163.012 82.0146 272.488 164.762 85.5445 272.555 165.033 85.4615 
272.065 164.744 85.4855 274.003 163.012 82.0146 273.036 165.479 85.6072 
275.004 165.013 82.0088 273.287 165.875 85.6671 278.012 166.518 82.0086 
282.761 165.594 82.3435 272.734 165.713 85.4401 273.093 165.986 85.4759 
273.495 166.27 85.5892 276.004 166.013 82.0088 273.652 166.507 85.6008 
278.012 166.518 82.0088 278.012 166.518 82.0088 282.826 165.752 82.4788 
282.836 165.741 82.469 282.875 165.822 82.5381 273.263 166.339 85.5703 
273.639 166.824 85.6276 273.842 166.801 85.6454 273.86 166.759 85.7154 
278.011 166.519 82.0089 278.011 166.518 82.0089 282.921 165.935 82.637 
282.909 165.901 82.6033 282.93 165.937 82.6366 273.812 167.001 85.6083 
273.95 167.218 85.6635 273.932 167.081 85.6575 278.011 166.519 82.009 
282.949 165.988 82.6813 282.989 166.066 82.752 282.956 165.998 82.6884 
282.957 165.996 82.6868 274.12 167.518 85.8212 283.012 166.108 82.7874 
279 171.009 83.0174 279 171.009 83.0175 279 171.009 83.0175 
279 171.009 83.0175 279 171.009 83.0175 266.804 138.938 84.4376 
266.811 138.897 84.4247 266.804 138.938 84.4373 266.803 138.939 84.4375 
264.11 137.875 85.8519 264.172 137.777 85.9128 266.78 139.06 84.4767 
266.783 139.055 84.4732 266.779 139.062 84.4771 266.739 139.29 84.5507 
266.741 139.275 84.5403 266.728 139.309 84.5613 266.698 139.548 84.6245 
266.653 139.71 84.7073 267.755 141.514 83.9049 266.644 140.008 84.7444 
266.505 140.139 84.8204 266.569 140.38 84.9945 267.71 141.598 83.9724 
264.949 139.868 85.3203 266.72 140.815 84.7552 266.239 140.839 84.8283 
266.898 141.199 85.0291 267.635 141.696 84.1016 267.326 141.703 84.4685 
264.341 142.062 85.002 265.219 141.421 84.8452 264.466 142.793 84.9123 
269.199 146.079 83.9792 268.15 147.401 84.6588 268.325 147.342 84.7587 
265.916 149.8 85.3786 268.129 147.57 84.7746 265.869 151.69 85.6632 
265.603 152.919 85.7718 267.445 155.174 85.9286 267.429 155.091 85.9273 
267.397 155.084 85.9361 267.334 155.213 85.949 269 155.009 83.0175 
268.312 157.312 86.042 268.374 157.473 86.0313 268.03 157.587 85.928 
269.018 159.111 85.7217 269.404 159.532 85.8522 269.692 160.698 85.554 
270.432 161.648 85.2918 269.941 161.51 85.4677 270.305 161.454 85.5319 
270.582 161.92 85.4887 270.789 163.077 85.5694 271.045 162.583 85.8318 
[...]
POINT_DATA 5801
SCALARS scalars float
LOOKUP_TABLE default
1 1 1 1 1 1 1 1 1 
1 1 1 1 1 1 1 1 1 
1 1 1 1 1 1 1 1 1 
1 1 1 1 1 1 1 1 1 
1 1 1 1 1 1 1 1 1 
1 1 1 1 1 1 1 1 1 
1 1 1 1 1 1 1 1 1 
1 1 1 1 1 1 1 1 1 
1 1 1 1 1 1 1 1 1 
1 1 1 1 1 1 1 1 1 
1 1 1 1 1 1 1 1 1 
1 1 1 1 1 1 1 1 1 
1 1 1 1 1 1 1 1 1 
1 1 1 1 1 1 1 1 1 
1 1 1 1 1 1 1 1 1 
1 1 1 1 1 1 1 1 1 
1 1 1 1 1 1 1 1 1 
1 1 1 1 1 1 1 1 1 
1 1 1 1 1 1 1 1 1 
1 1 1 1 1 1 1 1 1 
1 1 1 1 1 1 1 1 1 
1 1 1 1 1 1 1 1 1 
1 1 1 1 1 1 1 1 1 
1 1 1 1 1 1 1 1 1 
1 1 1 1 1 1 1 1 1 
1 1 1 1 1 1 1 1 1 
1 1 1 1 1 1 1 1 1 
1 1 1 1 1 1 1 1 1 
1 1 1 1 1 1 1 1 1 
1 1 1 1 1 1 1 1 1 
1 1 1 1 1 1 1 1 1 
1 1 1 1 1 1 1 1 1 
1 1 1 1 1 1 1 1 1 
1 1 1 1 1 1 1 1 1 
1 1 1 1 1 1 1 1 1 
1 1 1 1 1 1 1 1 1 
1 1 1 1 1 1 1 1 1 
1 1 1 1 1 1 1 1 1 
1 1 1 1 1 1 1 1 1 
1 1 1 1 1 1 1 1 1 
1 1 1 1 1 1 1 1 1 
1 1 1 1 1 1 1 1 1 
1 1 1 1 1 1 1 1 1 
1 1 1 1 1 1 1 1 1 
1 1 1 1 1 1 1 1 1 
1 1 1 1 1 1 1 1 1 
1 1 1 1 1 1 1 1 1 
1 1 1 1 1 1 1 1 1 
1 1 1 1 1 1 1 1 1 
1 1 1 1 1 1 1 1 1 
1 1 1 1 1 1 1 1 1 
1 1 1 1 1 1 1 1 1 
1 1 1 1 1 1 1 1 1 
1 1 1 1 1 1 1 1 1 
1 1 1 1 1 1 1 1 1 
1 1 1 1 1 1 1 1 1 
1 1 1 1 1 1 1 1 1 
1 1 1 1 1 1 1 1 1 
1 1 1 1 1 1 1 1 1 
1 1 1 1 1 1 1 1 1 
1 1 1 1 1 1 1 1 1 
1 1 1 1 1 1 1 1 1 
1 1 1 1 1 1 1 1 1 
1 1 1 1 1 1 1 1 1 
1 1 1 1 1 1 1 1 1 
1 1 1 1 1 1 1 1 1 
1 1 1 1 1 1 1 1 1 
1 1 1 1 1 1 1 1 1 
1 1 1 1 1 1 1 1 1 
1 1 1 1 1 1 1 1 1 
1 1 1 1 1 1 1 1 1 
1 1 1 1 1 1 1 1 1 
1 1 1 1 1 1 1 1 1 
1 1 1 1 1 1 1 1 1 
1 1 1 1 1 1 1 1 1 
1 1 1 1 1 1 1 1 1 
1 1 1 1 1 1 1 1 1 
1 1 1 1 1 1 1 1 1 
1 1 1 1 1 1 1 1 1 
1 1 1 1 1 1 1 1 1 
1 1 1 1 1 1 1 1 1 
1 1 1 1 1 1 1 1 1 
1 1 1 1 1 1 1 1 1 
1 1 1 1 1 1 1 1 1 
1 1 1 1 1 1 1 1 1 
1 1 1 1 1 1 1 1 1 
1 1 1 1 1 1 1 1 1 
1 1 1 1 1 1 1 1 1 
1 1 1 1 1 1 1 1 1 
1 1 1 1 1 1 1 1 1 
1 1 1 1 1 1 1 1 1 
1 1 1 1 1 1 1 1 1 
1 1 1 1 1 1 1 1 1 
1 1 1 1 1 1 1 1 1 
1 1 1 1 1 1 1 1 1 
1 1 1 1 1 1 1 1 1 
1 1 1 1 1 1 1 1 1 
1 1 1 1 1 1 1 1 1 
1 1 1 1 1 1 1 1 1 
1 1 1 1 1 1 1 1 1 
1 1 1 1 1 1 1 1 1 
1 1 1 1 1 1 1 1 1 
1 1 1 1 1 1 1 1 1 
1 1 1 1 1 1 1 1 1 
1 1 1 1 1 1 1 1 1 
1 1 1 1 1 1 1 1 1 
1 1 1 1 1 1 1 1 1 
1 1 1 1 1 1 1 1 1 
1 1 1 1 1 1 1 1 1 
1 1 1 1 1 1 1 1 1 
1 1 1 1 1 1 1 1 1 
1 1 1 1 1 1 1 1 1 
1 1 1 1 1 1 1 1 1 
1 1 1 1 1 1 1 1 1 
1 1 1 1 1 1 1 1 1 
1 1 1 1 1 1 1 1 1 
1 1 1 1 1 1 1 1 1 
1 1 1 1 1 1 1 1 1 
1 1 1 1 1 1 1 1 1 
1 1 1 1 1 1 1 1 1 
1 1 1 1 1 1 1 1 1 
1 1 1 1 1 1 1 1 1 
1 1 1 1 1 1 1 1 1 
1 1 1 1 1 1 1 1 1 
1 1 1 1 1 1 1 1 1 
1 1 1 1 1 1 1 1 1 
1 1 1 1 1 1 1 1 1 
1 1 1 1 1 1 1 1 1 
1 1 1 1 1 1 1 1 1 
1 1 1 1 1 1 1 1 1 
1 1 1 1 1 1 1 1 1 
1 1 1 1 1 1 1 1 1 
1 1 1 1 1 1 1 1 1 
1 1 1 1 1 1 1 1 1 
1 1 1 1 1 1 1 1 1 
1 1 1 1 1 1 1 1 1 
1 1 1 1 1 1 1 1 1 
1 1 1 1 1 1 1 1 1 
1 1 1 1 1 1 1 1 1 
1 1 1 1 1 1 1 1 1 
1 1 1 1 1 1 1 1 1 
1 1 1 1 1 1 1 1 1 
1 1 1 1 1 1 1 1 1 
1 1 1 1 1 1 1 1 1 
1 1 1 1 1 1 1 1 1 
1 1 1 1 1 1 1 1 1 
1 1 1 1 1 1 1 1 1 
1 1 1 1 1 1 1 1 1 
1 1 1 1 1 1 1 1 1 
1 1 1 1 1 1 1 1 1 
1 1 1 1 1 1 1 1 1 
1 1 1 1 1 1 1 1 1 
1 1 1 1 1 1 1 1 1 
1 1 1 1 1 1 1 1 1 
1 1 1 1 1 1 1 1 1 
1 1 1 1 1 1 1 1 1 
1 1 1 1 1 1 1 1 1 
1 1 1 1 1 1 1 1 1 
1 1 1 1 1 1 1 1 1 
1 1 1 1 1 1 1 1 1 
1 1 1 1 1 1 1 1 1 
1 1 1 1 1 1 1 1 1 
1 1 1 1 1 1 1 1 1 
1 1 1 1 1 1 1 1 1 
1 1 1 1 1 1 1 1 1 
1 1 1 1 1 1 1 1 1 
1 1 1 1 1 1 1 1 1 
1 1 1 1 1 1 1 1 1 
1 1 1 1 1 1 1 1 1 
1 1 1 1 1 1 1 1 1 
1 1 1 1 1 1 1 1 1 
1 1 1 1 1 1 1 1 1 
1 1 1 1 1 1 1 1 1 
1 1 1 1 1 1 1 1 1 
1 1 1 1 1 1 1 1 1 
1 1 1 1 1 1 1 1 1 
1 1 1 1 1 1 1 1 1 
1 1 1 1 1 1 1 1 1 
1 1 1 1 1 1 1 1 1 
1 1 1 1 1 1 1 1 1 
1 1 1 1 1 1 1 1 1 
1 1 1 1 1 1 1 1 1 
1 1 1 1 1 1 1 1 1 
1 1 1 1 1 1 1 1 1 
1 1 1 1 1 1 1 1 1 
1 1 1 1 1 1 1 1 1 
1 1 1 1 1 1 1 1 1 
1 1 1 1 1 1 1 1 1 
1 1 1 1 1 1 1 1 1 
1 1 1 1 1 1 1 1 1 
1 1 1 1 1 1 1 1 1 
1 1 1 1 1 1 1 1 1 
1 1 1 1 1 1 1 1 1 
1 1 1 1 1 1 1 1 1 
1 1 1 1 1 1 1 1 1 
1 1 1 1 1 1 1 1 1 
1 1 1 1 1 1 1 1 1 
1 1 1 1 1 1 1 1 1 
1 1 1 1 1 1 1 1 1 
1 1 1 1 1 1 1 1 1 
1 1 1 1 1 1 1 1 1 
1 1 1 1 1 1 1 1 1 
1 1 1 1 1 1 1 1 1 
1 1 1 1 1 1 1 1 1 
1 1 1 1 1 1 1 1 1 
1 1 1 1 1 1 1 1 1 
1 1 1 1 1 1 1 1 1 
1 1 1 1 1 1 1 1 1 
1 1 1 1 1 1 1 1 1 
1 1 1 1 1 1 1 1 1 
1 1 1 1 1 1 1 1 1 
1 1 1 1 1 1 1 1 1 
1 1 1 1 1 1 1 1 1 
1 1 1 1 1 1 1 1 1 
1 1 1 1 1 1 1 1 1 
1 1 1 1 1 1 1 1 1 
1 1 1 1 1 1 1 1 1 
1 1 1 1 1 1 1 1 1 
1 1 1 1 1 1 1 1 1 
1 1 1 1 1 1 1 1 1 
1 1 1 1 1 1 1 1 1 
1 1 1 1 1 1 1 1 1 
1 1 1 1 1 1 1 1 1 
1 1 1 1 1 1 1 1 1 
1 1 1 1 1 1 1 1 1 
1 1 1 1 1 1 1 1 1 
1 1 1 1 1 1 1 1 1 
1 1 1 1 1 1 1 1 1 
1 1 1 1 1 1 1 1 1 
1 1 1 1 1 1 1 1 1 
1 1 1 1 1 1 1 1 1 
1 1 1 1 1 1 1 1 1 
1 1 1 1 1 1 1 1 1 
1 1 1 1 1 1 1 1 1 
1 1 1 1 1 1 1 1 1 
1 1 1 1 1 1 1 1 1 
1 1 1 1 1 1 1 1 1 
1 1 1 1 1 1 1 1 1 
1 1 1 1 1 1 1 1 1 
1 1 1 1 1 1 1 1 1 
1 1 1 1 1 1 1 1 1 
1 1 1 1 1 1 1 1 1 
1 1 1 1 1 1 1 1 1 
1 1 1 1 1 1 1 1 1 
1 1 1 1 1 1 1 1 1 
1 1 1 1 1 1 1 1 1 
1 1 1 1 1 1 1 1 1 
1 1 1 1 1 1 1 1 1 
1 1 1 1 1 1 1 1 1 
1 1 1 1 1 1 1 1 1 
1 1 1 1 1 1 1 1 1 
1 1 1 1 1 1 1 1 1 
1 1 1 1 1 1 1 1 1 
1 1 1 1 1 1 1 1 1 
1 1 1 1 1 1 1 1 1 
1 1 1 1 1 1 1 1 1 
1 1 1 1 1 1 1 1 1 
1 1 1 1 1 1 1 1 1 
1 1 1 1 1 1 1 1 1 
1 1 1 1 1 1 1 1 1 
1 1 1 1 1 1 1 1 1 
1 1 1 1 1 1 1 1 1 
1 1 1 1 1 1 1 1 1 
1 1 1 1 1 1 1 1 1 
1 1 1 1 1 1 1 1 1 
1 1 1 1 1 1 1 1 1 
1 1 1 1 1 1 1 1 1 
1 1 1 1 1 1 1 1 1 
1 1 1 1 1 1 1 1 1 
1 1 1 1 1 1 1 1 1 
1 1 1 1 1 1 1 1 1 
1 1 1 1 1 1 1 1 1 
1 1 1 1 1 1 1 1 1 
1 1 1 1 1 1 1 1 1 
1 1 1 1 1 1 1 1 1 
1 1 1 1 1 1 1 1 1 
1 1 1 1 1 1 1 1 1 
1 1 1 1 1 1 1 1 1 
1 1 1 1 1 1 1 1 1 
1 1 1 1 1 1 1 1 1 
1 1 1 1 1 1 1 1 1 
1 1 1 1 1 1 1 1 1 
1 1 1 1 1 1 1 1 1 
1 1 1 1 1 1 1 1 1 
1 1 1 1 1 1 1 1 1 
1 1 1 1 1 1 1 1 1 
1 1 1 1 1 1 1 1 1 
1 1 1 1 1 1 1 1 1 
1 1 1 1 1 1 1 1 1 
1 1 1 1 1 1 1 1 1 
1 1 1 1 1 1 1 1 1 
1 1 1 1 1 1 1 1 1 
1 1 1 1 1 1 1 1 1 
1 1 1 1 1 1 1 1 1 
1 1 1 1 1 1 1 1 1 
1 1 1 1 1 1 1 1 1 
1 1 1 1 1 1 1 1 1 
1 1 1 1 1 1 1 1 1 
1 1 1 1 1 1 1 1 1 
1 1 1 1 1 1 1 1 1 
1 1 1 1 1 1 1 1 1 
1 1 1 1 1 1 1 1 1 
1 1 1 1 1 1 1 1 1 
1 1 1 1 1 1 1 1 1 
1 1 1 1 1 1 1 1 1 
1 1 1 1 1 1 1 1 1 
1 1 1 1 1 1 1 1 1 
1 1 1 1 1 1 1 1 1 
1 1 1 1 1 1 1 1 1 
1 1 1 1 1 1 1 1 1 
1 1 1 1 1 1 1 1 1 
1 1 1 1 1 1 1 1 1 
1 1 1 1 1 1 1 1 1 
1 1 1 1 1 1 1 1 1 
1 1 1 1 1 1 1 1 1 
1 1 1 1 1 1 1 1 1 
1 1 1 1 1 1 1 1 1 
1 1 1 1 1 1 1 1 1 
1 1 1 1 1 1 1 1 1 
1 1 1 1 1 1 1 1 1 
1 1 1 1 1 1 1 1 1 
1 1 1 1 1 1 1 1 1 
1 1 1 1 1 1 1 1 1 
1 1 1 1 1 1 1 1 1 
1 1 1 1 1 1 1 1 1 
1 1 1 1 1 1 1 1 1 
1 1 1 1 1 1 1 1 1 
1 1 1 1 1 1 1 1 1 
1 1 1 1 1 1 1 1 1 
1 1 1 1 1 1 1 1 1 
1 1 1 1 1 1 1 1 1 
1 1 1 1 1 1 1 1 1 
1 1 1 1 1 1 1 1 1 
1 1 1 1 1 1 1 1 1 
1 1 1 1 1 1 1 1 1 
1 1 1 1 1 1 1 1 1 
1 1 1 1 1 1 1 1 1 
1 1 1 1 1 1 1 1 1 
1 1 1 1 1 1 1 1 1 
1 1 1 1 1 1 1 1 1 
1 1 1 1 1 1 1 1 1 
1 1 1 1 1 1 1 1 1 
1 1 1 1 1 1 1 1 1 
1 1 1 1 1 1 1 1 1 
1 1 1 1 1 1 1 1 1 
1 1 1 1 1 1 1 1 1 
1 1 1 1 1 1 1 1 1 
1 1 1 1 1 1 1 1 1 
1 1 1 1 1 1 1 1 1 
1 1 1 1 1 1 1 1 1 
1 1 1 1 1 1 1 1 1 
1 1 1 1 1 1 1 1 1 
1 1 1 1 1 1 1 1 1 
1 1 1 1 1 1 1 1 1 
1 1 1 1 1 1 1 1 1 
1 1 1 1 1 1 1 1 1 
1 1 1 1 1 1 1 1 1 
1 1 1 1 1 1 1 1 1 
1 1 1 1 1 1 1 1 1 
1 1 1 1 1 1 1 1 1 
1 1 1 1 1 1 1 1 1 
1 1 1 1 1 1 1 1 1 
1 1 1 1 1 1 1 1 1 
1 1 1 1 1 1 1 1 1 
1 1 1 1 1 1 1 1 1 
1 1 1 1 1 1 1 1 1 
1 1 1 1 1 1 1 1 1 
1 1 1 1 1 1 1 1 1 
1 1 1 1 1 1 1 1 1 
1 1 1 1 1 1 1 1 1 
1 1 1 1 1 1 1 1 1 
1 1 1 1 1 1 1 1 1 
1 1 1 1 1 1 1 1 1 
1 1 1 1 1 1 1 1 1 
1 1 1 1 1 1 1 1 1 
1 1 1 1 1 1 1 1 1 
1 1 1 1 1 1 1 1 1 
1 1 1 1 1 1 1 1 1 
1 1 1 1 1 1 1 1 1 
1 1 1 1 1 1 1 1 1 
1 1 1 1 1 1 1 1 1 
1 1 1 1 1 1 1 1 1 
1 1 1 1 1 1 1 1 1 
1 1 1 1 1 1 1 1 1 
1 1 1 1 1 1 1 1 1 
1 1 1 1 1 1 1 1 1 
1 1 1 1 1 1 1 1 1 
1 1 1 1 1 1 1 1 1 
1 1 1 1 1 1 1 1 1 
1 1 1 1 1 1 1 1 1 
1 1 1 1 1 1 1 1 1 
1 1 1 1 1 1 1 1 1 
1 1 1 1 1 1 1 1 1 
1 1 1 1 1 1 1 1 1 
1 1 1 1 1 1 1 1 1 
1 1 1 1 1 1 1 1 1 
1 1 1 1 1 1 1 1 1 
1 1 1 1 1 1 1 1 1 
1 1 1 1 1 1 1 1 1 
1 1 1 1 1 1 1 1 1 
1 1 1 1 1 1 1 1 1 
1 1 1 1 1 1 1 1 1 
1 1 1 1 1 1 1 1 1 
1 1 1 1 1 1 1 1 1 
1 1 1 1 1 1 1 1 1 
1 1 1 1 1 1 1 1 1 
1 1 1 1 1 1 1 1 1 
1 1 1 1 1 1 1 1 1 
1 1 1 1 1 1 1 1 1 
1 1 1 1 1 1 1 1 1 
1 1 1 1 1 1 1 1 1 
1 1 1 1 1 1 1 1 1 
1 1 1 1 1 1 1 1 1 
1 1 1 1 1 1 1 1 1 
1 1 1 1 1 1 1 1 1 
1 1 1 1 1 1 1 1 1 
1 1 1 1 1 1 1 1 1 
1 1 1 1 1 1 1 1 1 
1 1 1 1 1 1 1 1 1 
1 1 1 1 1 1 1 1 1 
1 1 1 1 1 1 1 1 1 
1 1 1 1 1 1 1 1 1 
1 1 1 1 1 1 1 1 1 
1 1 1 1 1 1 1 1 1 
1 1 1 1 1 1 1 1 1 
1 1 1 1 1 1 1 1 1 
1 1 1 1 1 1 1 1 1 
1 1 1 1 1 1 1 1 1 
1 1 1 1 1 1 1 1 1 
1 1 1 1 1 1 1 1 1 
1 1 1 1 1 1 1 1 1 
1 1 1 1 1 1 1 1 1 
1 1 1 1 1 1 1 1 1 
1 1 1 1 1 1 1 1 1 
1 1 1 1 1 1 1 1 1 
1 1 1 1 1 1 1 1 1 
1 1 1 1 1 1 1 1 1 
1 1 1 1 1 1 1 1 1 
1 1 1 1 1 1 1 1 1 
1 1 1 1 1 1 1 1 1 
1 1 1 1 1 1 1 1 1 
1 1 1 1 1 1 1 1 1 
1 1 1 1 1 1 1 1 1 
1 1 1 1 1 1 1 1 1 
1 1 1 1 1 1 1 1 1 
1 1 1 1 1 1 1 1 1 
1 1 1 1 1 1 1 1 1 
1 1 1 1 1 1 1 1 1 
1 1 1 1 1 1 1 1 1 
1 1 1 1 1 1 1 1 1 
1 1 1 1 1 1 1 1 1 
1 1 1 1 1 1 1 1 1 
1 1 1 1 1 1 1 1 1 
1 1 1 1 1 1 1 1 1 
1 1 1 1 1 1 1 1 1 
1 1 1 1 1 1 1 1 1 
1 1 1 1 1 1 1 1 1 
1 1 1 1 1 1 1 1 1 
1 1 1 1 1 1 1 1 1 
1 1 1 1 1 1 1 1 1 
1 1 1 1 1 1 1 1 1 
1 1 1 1 1 1 1 1 1 
1 1 1 1 1 1 1 1 1 
1 1 1 1 1 1 1 1 1 
1 1 1 1 1 1 1 1 1 
1 1 1 1 1 1 1 1 1 
1 1 1 1 1 1 1 1 1 
1 1 1 1 1 1 1 1 1 
1 1 1 1 1 1 1 1 1 
1 1 1 1 1 1 1 1 1 
1 1 1 1 1 1 1 1 1 
1 1 1 1 1 1 1 1 1 
1 1 1 1 1 1 1 1 1 
1 1 1 1 1 1 1 1 1 
1 1 1 1 1 1 1 1 1 
1 1 1 1 1 1 1 1 1 
1 1 1 1 1 1 1 1 1 
1 1 1 1 1 1 1 1 1 
1 1 1 1 1 1 1 1 1 
1 1 1 1 1 1 1 1 1 
1 1 1 1 1 1 1 1 1 
1 1 1 1 1 1 1 1 1 
1 1 1 1 1 1 1 1 1 
1 1 1 1 1 1 1 1 1 
1 1 1 1 1 1 1 1 1 
1 1 1 1 1 1 1 1 1 
1 1 1 1 1 1 1 1 1 
1 1 1 1 1 1 1 1 1 
1 1 1 1 1 1 1 1 1 
1 1 1 1 1 1 1 1 1 
1 1 1 1 1 1 1 1 1 
1 1 1 1 1 1 1 1 1 
1 1 1 1 1 1 1 1 1 
1 1 1 1 1 1 1 1 1 
1 1 1 1 1 1 1 1 1 
1 1 1 1 1 1 1 1 1 
1 1 1 1 1 1 1 1 1 
1 1 1 1 1 1 1 1 1 
1 1 1 1 1 1 1 1 1 
1 1 1 1 1 1 1 1 1 
1 1 1 1 1 1 1 1 1 
1 1 1 1 1 1 1 1 1 
1 1 1 1 1 1 1 1 1 
1 1 1 1 1 1 1 1 1 
1 1 1 1 1 1 1 1 1 
1 1 1 1 1 1 1 1 1 
1 1 1 1 1 1 1 1 1 
1 1 1 1 1 1 1 1 1 
1 1 1 1 1 1 1 1 1 
1 1 1 1 1 1 1 1 1 
1 1 1 1 1 1 1 1 1 
1 1 1 1 1 1 1 1 1 
1 1 1 1 1 1 1 1 1 
1 1 1 1 1 1 1 1 1 
1 1 1 1 1 1 1 1 1 
1 1 1 1 1 1 1 1 1 
1 1 1 1 1 1 1 1 1 
1 1 1 1 1 1 1 1 1 
1 1 1 1 1 1 1 1 1 
1 1 1 1 1 1 1 1 1 
1 1 1 1 1 1 1 1 1 
1 1 1 1 1 1 1 1 1 
1 1 1 1 1 1 1 1 1 
1 1 1 1 1 1 1 1 1 
1 1 1 1 1 1 1 1 1 
1 1 1 1 1 1 1 1 1 
1 1 1 1 1 1 1 1 1 
1 1 1 1 1 1 1 1 1 
1 1 1 1 1 1 1 1 1 
1 1 1 1 1 1 1 1 1 
1 1 1 1 1 1 1 1 1 
1 1 1 1 1 1 1 1 1 
1 1 1 1 1 1 1 1 1 
1 1 1 1 1 1 1 1 1 
1 1 1 1 1 1 1 1 1 
1 1 1 1 1 1 1 1 1 
1 1 1 1 1 1 1 1 1 
1 1 1 1 1 1 1 1 1 
1 1 1 1 1 1 1 1 1 
1 1 1 1 1 1 1 1 1 
1 1 1 1 1 1 1 1 1 
1 1 1 1 1 1 1 1 1 
1 1 1 1 1 1 1 1 1 
1 1 1 1 1 1 1 1 1 
1 1 1 1 1 1 1 1 1 
1 1 1 1 1 1 1 1 1 
1 1 1 1 1 1 1 1 1 
1 1 1 1 1 1 1 1 1 
1 1 1 1 1 1 1 1 1 
1 1 1 1 1 1 1 1 1 
1 1 1 1 1 1 1 1 1 
1 1 1 1 1 1 1 1 1 
1 1 1 1 1 1 1 1 1 
1 1 1 1 1 1 1 1 1 
1 1 1 1 1 1 1 1 1 
1 1 1 1 1 1 1 1 1 
1 1 1 1 1 1 1 1 1 
1 1 1 1 1 1 1 1 1 
1 1 1 1 1 1 1 1 1 
1 1 1 1 1 1 1 1 1 
1 1 1 1 1 1 1 1 1 
1 1 1 1 1 1 1 1 1 
1 1 1 1 1 1 1 1 1 
1 1 1 1 1 1 1 1 1 
1 1 1 1 1 1 1 1 1 
1 1 1 1 1 1 1 1 1 
1 1 1 1 1 1 1 1 1 
1 1 1 1 1 1 1 1 1 
1 1 1 1 1 1 1 1 1 
1 1 1 1 1 1 1 1 1 
1 1 1 1 1 1 1 1 1 
1 1 1 1 1 1 1 1 1 
1 1 1 1 1 1 1 1 1 
1 1 1 1 1 1 1 1 1 
1 1 1 1 1 1 1 1 1 
1 1 1 1 1 1 1 1 1 
1 1 1 1 1 1 1 1 1 
1 1 1 1 1 1 1 1 1 
1 1 1 1 1 1 1 1 1 
1 1 1 1 1 1 1 1 1 
1 1 1 1 1 1 1 1 1 
1 1 1 1 1 1 1 1 1 
1 1 1 1 1 1 1 1 1 
1 1 1 1 1 1 1 1 1 
1 1 1 1 1 1 1 1 1 
1 1 1 1 1 1 1 1 1 
1 1 1 1 1 1 1 1 1 
1 1 1 1 1 1 1 1 1 
1 1 1 1 1 1 1 1 1 
1 1 1 1 1 1 1 1 1 
1 1 1 1 1 1 1 1 1 
1 1 1 1 1 1 1 1 1 
1 1 1 1 1 1 1 1 1 
1 1 1 1 1 1 1 1 1 
1 1 1 1 1 1 1 1 1 
1 1 1 1 1 1 1 1 1 
1 1 1 1 1 1 1 1 1 
1 1 1 1 1 1 1 1 1 
1 1 1 1 1 1 1 1 1 
1 1 1 1 1 1 1 1 1 
1 1 1 1 1 1 1 1 1 
1 1 1 1 1 1 1 1 1 
1 1 1 1 1 1 1 1 1 
1 1 1 1 1 1 1 1 1 
1 1 1 1 1 1 1 1 1 
1 1 1 1 1 1 1 1 1 
1 1 1 1 1 1 1 1 1 
1 1 1 1 1 1 1 1 1 
1 1 1 1 1 1 1 1 1 
1 1 1 1 1 1 1 1 1 
1 1 1 1 1 1 1 1 1 
1 1 1 1 1 1 1 1 1 
1 1 1 1 1 1 1 1 1 
1 1 1 1 1 1 1 1 1 
1 1 1 1 1 1 1 1 1 
1 1 1 1 1 1 1 1 1 
1 1 1 1 1 1 1 1 1 
1 1 1 1 1 1 1 1 1 
1 1 1 1 1 1 1 1 1 
1 1 1 1 1 1 1 1 1 
1 1 1 1 1 1 1 1 1 
1 1 1 1 1 1 1 1 1 
1 1 1 1 1 1 1 1 1 
1 1 1 1 1 1 1 1 1 
1 1 1 1 1 1 1 1 1 
1 1 1 1 1 1 1 1 1 
1 1 1 1 1 1 1 1 1 
1 1 1 1 1 1 1 1 1 
1 1 1 1 1 1 1 1 1 
1 1 1 1 1 1 1 1 1 
1 1 1 1 1 1 1 1 1 
1 1 1 1 1 1 1 1 1 
1 1 1 1 1 1 1 1 1 
1 1 1 1 1 1 1 1 1 
1 1 1 1 1 1 1 1 1 
1 1 1 1 1 1 1 1 1 
1 1 1 1 1 1 1 1 1 
1 1 1 1 1 1 1 1 1 
1 1 1 1 1 1 1 1 1 
1 1 1 1 1 1 1 1 1 
1 1 1 1 1 1 1 1 1 
1 1 1 1 1 1 1 1 1 
1 1 1 1 1 1 1 1 1 
1 1 1 1 1 1 1 1 1 
1 1 1 1 1 
NORMALS Normals float
0 -0.179267 -0.983801 0 -1 0 -0.884411 -0.466439 0.0158438 
0.884411 -0.466439 0.0158438 0 0.298275 -0.95448 0 -0.245744 0.969335 
-0.447214 0.894427 0 -0.392364 0.919539 0.0223006 -0.429711 0.890567 0.149127 
0.49082 -0.611384 -0.62073 -0.439769 0.881826 0.170255 -0.437901 0.880864 0.179783 
0.458748 -0.869517 -0.183005 0.448098 -0.880215 0.1563 0.43038 -0.839691 -0.331199 
-0.448363 0.879508 0.159489 -0.450019 0.889616 0.0778837 0.40498 -0.829443 -0.384729 
0.417424 -0.901911 -0.110964 -0.444716 0.886738 0.126186 -0.409418 0.905934 0.107984 
-0.326109 0.877739 -0.351036 0.426428 -0.733728 -0.528963 -0.337805 0.935459 0.10394 
0 -0.179267 -0.983801 0 -1 0 -0.884411 -0.466439 0.0158438 
0.884411 -0.466439 0.0158438 0 0.298275 -0.95448 0.166764 -0.784244 -0.597621 
-0.589017 0.387296 -0.709267 0.419745 0.566519 -0.709133 0.589017 -0.387296 0.709267 
-0.166764 0.784244 0.597621 -0.374597 0.919909 -0.115951 -0.447214 0.894427 0 
0.393408 -0.616573 -0.681959 -0.447214 0.894427 0 0.435964 -0.880345 -0.186888 
0.437652 -0.898319 -0.0385258 0 -0.245744 0.969335 -0.419745 -0.566519 0.709133 
-0.0876571 -0.472189 -0.877128 -0.297749 -0.938649 0.174023 -0.327277 -0.266428 -0.90659 
0.0857966 -0.575992 -0.812941 0.0536609 -0.923106 -0.380783 0.42231 -0.725575 0.543319 
-0.261315 -0.150369 -0.953469 -0.535645 0.0330908 -0.843795 -0.0150644 -0.312 -0.949962 
0.138912 -0.48158 -0.865323 -0.276786 0.149246 -0.949271 -0.156425 0.441708 -0.883417 
-0.0915544 0.037841 -0.995081 0.00286746 -0.231929 -0.972728 -0.0979769 0.145795 -0.984451 
0 -0.179267 -0.983801 0 -1 0 -0.884411 -0.466439 0.0158438 
0.884411 -0.466439 0.0158438 0 0.298275 -0.95448 -0.670209 0.0523135 -0.740326 
-0.670249 0.0524254 -0.740283 -0.67149 0.050298 -0.739304 -0.670951 0.0519673 -0.739678 
-0.674591 0.0463328 -0.736736 -0.675485 0.0466004 -0.7359 0.689241 -0.0221184 0.724195 
0.691076 -0.0249483 0.722351 0.684956 -0.0428475 0.727324 -0.69276 0.0268808 -0.720667 
-0.69276 0.0268808 -0.720667 -0.691247 0.030723 -0.721965 -0.689261 0.031921 -0.72381 
-0.687462 0.0362132 -0.725317 -0.0752114 0.24282 0.967151 0.0674175 -0.282907 0.956775 
0.00585443 0.476871 0.878954 0.153689 0.257826 0.95389 0.234324 0.303372 0.923611 
0 -0.179267 -0.983801 0 -1 0 -0.884411 -0.466439 0.0158438 
0.884411 -0.466439 0.0158438 0.2578 0.440376 -0.860005 0.184359 0.450395 -0.873588 
0.514853 0.361227 -0.777459 -0.203395 -0.477846 0.854572 0 0.298275 -0.95448 
0.393554 0.402233 -0.826634 0.284722 0.444804 -0.849166 0.402783 0.407708 -0.819475 
0.452724 0.390635 -0.801527 -0.279255 0.468817 -0.83799 0.952417 -0.279654 0.121223 
-0.158626 -0.490103 0.857109 0 -0.245744 0.969335 0.24447 0.462415 -0.852295 
-0.269331 0.512908 -0.815099 0.677554 0.271519 -0.683519 0.408936 -0.551504 0.727059 
0.33435 0.448737 -0.828761 0.21686 -0.563959 0.79682 -0.438793 -0.405516 0.801884 
0.472998 0.393004 -0.788556 0.248066 0.497391 -0.831303 0.580356 0.325473 -0.746495 
0.540723 0.359704 -0.760415 0.267945 -0.20282 -0.941844 0.0615306 -0.985218 -0.159871 
-0.67318 -0.43045 -0.601283 0.823122 -0.514003 0.241392 -0.275875 0.495376 -0.823708 
-0.637381 0.388666 0.665345 0.557018 0.57483 -0.599417 0.00253701 0.999222 0.0393548 
-0.599136 0.310707 -0.7379 -0.767084 0.104617 -0.63296 -0.672814 0.0482468 -0.738237 
0.671489 -0.0503041 0.739305 -0.795385 0.0652358 -0.602584 -0.740328 0.270772 -0.615303 
0.674425 -0.0467872 0.73686 -0.86611 0.257106 -0.42866 0.676708 -0.0444349 0.734909 
-0.779786 0.516359 -0.353987 -0.688536 0.486056 -0.538207 0.6726 -0.06094 0.737493 
0.667749 -0.085456 0.739465 0.641918 -0.118286 0.757595 -0.702603 -0.663184 -0.257945 
-0.66399 -0.69202 0.283242 -0.843969 -0.504036 -0.183476 -0.753333 -0.626861 -0.198833 
-0.857973 -0.486697 0.164344 -0.863633 -0.503919 0.0142774 -0.920575 -0.390351 0.0129316 
0.605738 -0.402456 0.686375 -0.704395 -0.703212 0.0965439 0 -0.245744 0.969335 
-0.870214 -0.18017 0.458548 -0.975643 0.195389 -0.09972 -0.477008 -0.399119 0.78305 
-0.364111 -0.428769 0.826789 0 -0.179267 -0.983801 0 -1 0 
-0.884411 -0.466439 0.0158438 0.884411 -0.466439 0.0158438 -0.887816 -0.146879 0.43613 
0.46126 -0.539032 0.704758 0.447214 -0.894427 0 0.447214 -0.894427 0 
0.467466 -0.846004 0.256425 0.453801 -0.889248 -0.0574614 0.417199 -0.895608 -0.154372 
0 0.298275 -0.95448 -0.891518 -0.160623 0.423551 -0.435239 -0.428526 0.791791 
-0.0715547 -0.532484 0.84341 -0.447214 0.894427 0 -0.447214 0.894427 0 
-0.330833 0.799038 0.502083 0.389089 -0.897845 -0.206117 0.393097 -0.81591 0.423988 
0.347581 -0.926429 -0.144626 -0.312788 -0.484699 0.816842 0.30795 0.474131 -0.824843 
-0.367136 -0.462136 0.807243 -0.258221 -0.507152 0.822264 0.411206 0.434489 -0.80133 
-0.0407616 -0.604362 0.795666 -0.42307 0.903212 -0.072252 -0.300593 0.928405 0.218424 
-0.373162 0.923069 -0.0932415 0.36074 -0.932666 -0.000579027 -0.312788 -0.484699 0.816842 
-0.313012 -0.484356 0.81696 -0.318788 -0.481081 0.816661 0.27079 0.519482 -0.810439 
-0.279972 0.959651 -0.026167 0.143908 0.588234 -0.795784 0.267945 -0.20282 -0.941844 
0.0655263 -0.988234 -0.1382 -0.670634 -0.463541 -0.57912 0.824812 -0.513215 0.237269 
-0.275875 0.495376 -0.823708 -0.604573 0.380117 0.700002 0.557018 0.57483 -0.599417 
-0.183108 -0.509735 0.84062 0.00253701 0.999222 0.0393548 0.387588 0.382668 0.838654 
0.721829 -0.0408023 0.690868 0.650553 -0.21267 0.729077 0.664934 -0.214211 0.715525 
0.698586 0.253253 0.669209 0.683255 -0.166727 0.71089 0.66406 0.282732 0.692162 
0.658454 -0.106509 0.745047 0.468688 0.115464 0.875785 0.285586 -0.598991 0.748098 
0.179737 -0.789363 0.587027 0.728265 0.0236414 0.684887 0.403715 -0.349434 -0.845523 
-0.0200096 -0.966738 -0.254983 -0.386504 -0.292112 -0.874806 0.404244 -0.599173 0.69107 
0 -0.245744 0.969335 -0.00763717 0.105373 -0.994403 -0.994377 -0.101083 -0.0315607 
0.972084 0.0885432 0.217287 -0.447214 0.894427 0 0.441593 -0.879209 0.178849 
-0.509698 0.635291 -0.580184 -0.471465 0.256749 0.843683 0.397865 0.808258 -0.434076 
-0.294668 0.782155 0.549003 0.42421 -0.891615 0.158331 -0.312788 -0.484699 0.816842 
-0.0986539 0.898858 0.426991 0.166764 -0.784244 -0.597621 -0.589017 0.387296 -0.709267 
0.419745 0.566519 -0.709133 0.589017 -0.387296 0.709267 0.450133 -0.622787 0.639935 
0.442916 0.890224 0.106428 0.447214 0.894427 0 0.447214 0.894427 0 
0.424835 0.894305 0.140479 -0.318788 -0.481081 0.816661 0.312652 0.487962 -0.814949 
0.269106 0.525765 -0.80694 0.191083 0.56871 -0.800035 0.130078 0.600936 -0.788641 
-0.166764 0.784244 0.597621 0.166764 -0.784244 -0.597621 -0.589017 0.387296 -0.709267 
0.419745 0.566519 -0.709133 0.589017 -0.387296 0.709267 -0.44664 -0.892579 0.0617709 
-0.447214 -0.894427 0 0.443875 0.885188 0.139347 0.435001 0.886037 0.160351 
0.458087 0.888277 -0.0334768 -0.121959 -0.594037 0.795139 -0.250115 0.70674 -0.661786 
0.188024 0.575359 -0.795995 -0.166764 0.784244 0.597621 -0.438905 -0.889487 0.127181 