# vtk DataFile Version 4.2
vtk output
ASCII
DATASET POLYDATA
POINTS 234 float
331.861 214.588 215.743 332.835 214.941 215.514 332.681 214.702 215.585 
331.592 215.3 215.642 332.377 215.312 215.484 328.726 215.573 217.316 
328.749 216.256 217.189 329.113 217.087 217.038 330.179 217.736 216.624 
332.343 217.64 215.862 332.973 218.281 215.956 330.124 218.956 217.237 
334.296 218.777 216.088 330.896 219.696 217.283 331.49 219.794 217.081 
333.563 219.506 216.401 335.564 219.12 216.428 331.715 220.336 217.398 
333.606 220.631 217.164 337.869 209.887 217.68 338.877 210.241 217.481 
339.154 210.845 217.308 332.557 213.732 216.16 337.493 212.614 216.739 
328.303 216.022 217.783 336.383 217.061 216.26 329.273 218.341 217.498 
329.443 218.727 217.658 331.038 220.355 217.87 336.129 220.045 216.991 
332.523 221.123 217.969 334.313 221.428 218.038 338.653 208.763 218.582 
329.235 214.148 217.656 328.089 215.37 218.505 328.279 216.401 217.8 
328.598 217.96 218.225 329.818 219.45 218.1 330.883 220.483 218.245 
333.06 221.77 218.92 337.328 221.175 218.41 339.988 208.234 219.128 
339.559 207.949 219.506 340.675 208.659 218.767 341.26 209.089 218.587 
336.204 209.227 218.987 341.544 210.221 218.23 328.314 214.671 218.725 
338.855 219.785 218.12 342.576 207.683 219.675 338.65 207.895 219.886 
343.765 208.988 219.154 349.978 208.927 221.084 343.803 210.36 218.818 
346.805 210.93 219.417 350.543 210.534 220.986 348.623 211.57 219.939 
348.983 213.052 220.375 334.988 222.45 219.917 344.152 207.094 220.612 
339.551 207.302 220.675 346.401 207.02 221.081 346.197 208.045 220.252 
350.701 209.838 221.341 330.488 211.807 220.76 350.586 211.92 221.22 
327.705 215.654 220.868 327.701 216.191 220.46 348.059 216.583 221.643 
345.144 218.238 221.002 342.083 219.801 220.321 331.037 221.267 220.906 
337.624 222.219 220.614 344.292 206.337 221.682 347.879 206.575 222.234 
349.519 207.315 222.209 349.094 207.833 221.384 333.894 209.41 221.305 
351.205 209.604 222.196 327.974 214.584 221.637 350.776 214.349 222.67 
327.909 217.854 221.209 348.63 206.638 222.568 337.816 207.309 222.332 
350.399 208.238 222.172 351.276 209.134 222.721 350.296 215.421 222.938 
349.064 216.554 222.485 347.819 217.575 222.366 344.965 205.676 223.403 
351.806 209.991 223.661 328.504 213.515 223.459 350.958 215.185 224.181 
327.555 215.574 224.428 327.501 216.654 224.431 348.717 217.701 223.907 
334.681 223.02 223.848 346.136 205.522 224.554 327.876 214.517 225.387 
327.571 217.205 224.93 328.919 219.808 225.536 331.481 221.903 225.42 
349.147 206.18 225.294 352.362 211.613 226.402 347.697 219.042 226.148 
329.823 220.755 226.622 327.661 215.05 226.857 351.786 214.631 227.223 
352.065 213.924 227.966 350.87 216.288 227.269 348.265 205.718 227.174 
327.694 217.778 227.411 349.434 217.919 228.067 351.268 207.65 228.621 
349.228 206.063 228.704 349.36 217.932 229.918 339.803 206.192 231.664 
352.282 210.516 230.362 341.473 222.079 230.587 350.454 207.093 231.28 
351.846 209.065 230.93 352.216 211.28 231.526 352.001 213.341 232.18 
327.453 216.651 232.213 350.156 216.751 231.988 328.263 218.978 232.263 
327.726 217.88 232.526 343.975 220.794 232.272 349.772 206.78 232.414 
350.666 207.601 232.456 351.222 208.735 233.08 328.147 213.976 233.723 
327.46 216.083 233.679 329.321 220.247 233.762 345.601 205.714 233.664 
351.319 213.405 234.401 350.157 215.752 234.131 348.274 206.422 234.12 
333.236 209.787 235.326 351.411 211.062 234.442 351.366 212.474 234.592 
350.292 214.73 235.002 328.262 218.606 236.12 341.275 207.142 236.726 
344.355 206.78 236.074 348.796 207.234 235.106 337.124 208.103 236.426 
351.133 211.253 235.021 350.709 211.981 235.604 328.514 213.592 236.964 
327.599 216.963 236.459 339.16 221.503 236.362 334.947 222.629 236.351 
337.134 208.36 236.983 349.44 208.487 235.842 350.044 209.244 235.766 
331.593 211.341 237.6 348.692 213.771 236.928 342.445 217.145 237.983 
328.415 218.384 237.933 340.968 219.654 237.265 333.147 221.946 237.586 
334.893 222.497 236.868 343.299 207.426 236.978 345.872 207.578 236.496 
340.495 208.701 238.447 337.547 208.512 237.508 340.256 209.21 238.813 
345.802 208.869 237.326 348.307 208.697 236.477 347.438 209.413 237.089 
346.592 210.242 237.569 348.152 210.048 237.043 330.732 212.244 238.793 
348.68 212.035 237.085 328.021 214.34 237.872 327.942 214.528 238.509 
327.67 215.338 238.279 327.987 217.502 238.373 339.527 218.711 238.866 
331.11 221.037 238.257 338.358 220.878 238.011 339.603 208.142 237.955 
338.75 208.347 237.937 337.832 208.852 238.037 336.008 210.139 238.648 
340.542 210.287 239.11 333.547 211.077 238.824 330.592 212.501 239.332 
328.231 214.203 239.358 328.61 213.817 239.364 329.496 219.333 239.16 
332.362 221.28 239.157 335.028 221.733 238.492 335.72 221.682 238.452 
329.488 213.222 239.541 331.959 212.533 239.89 337.566 213.804 240.351 
328.034 216.791 239.701 337.964 216.171 240.271 332.203 220.969 239.643 
336.439 221.223 238.819 329.907 213.803 240.769 330.21 213.746 240.742 
333.664 212.372 240.194 329.134 214.107 240.844 328.831 214.15 240.738 
330.693 213.436 240.468 328.266 214.509 240.685 328.139 214.701 240.866 
328.006 214.823 240.602 327.95 214.955 240.806 328.173 214.493 240.238 
328.443 216.996 240.251 329.557 218.325 240.374 334.392 220.346 240.137 
333.008 220.925 239.805 328.204 214.802 241.031 329.571 215.122 241.387 
330.71 214.659 241.259 334.134 213.793 240.923 328.111 214.964 241.023 
328.002 215.007 240.927 331.447 215.078 241.373 327.951 215.131 240.783 
330.745 215.934 241.489 332.131 216.288 241.489 328.704 216.851 240.65 
329.419 217.168 240.963 331.372 217.85 241.242 333.832 219.247 240.808 
329.022 214.597 241.188 328.353 215.03 241.133 328.691 215.317 241.236 

POLYGONS 464 1856
3 3 4 0 
3 0 4 2 
3 1 2 4 
3 33 5 0 
3 2 22 0 
3 22 2 1 
3 0 5 3 
3 3 5 8 
3 3 8 4 
3 5 6 7 
3 8 5 7 
3 4 8 9 
3 1 4 12 
3 8 7 27 
3 12 4 9 
3 10 9 8 
3 12 9 10 
3 8 27 11 
3 10 8 11 
3 10 11 14 
3 14 11 13 
3 12 10 15 
3 14 13 28 
3 17 14 28 
3 14 17 10 
3 15 10 18 
3 18 10 17 
3 12 15 18 
3 16 12 18 
3 21 20 19 
3 21 19 23 
3 22 33 0 
3 19 33 22 
3 19 22 23 
3 5 34 24 
3 5 33 34 
3 1 23 22 
3 12 23 1 
3 23 12 25 
3 5 24 35 
3 6 5 35 
3 6 35 7 
3 7 36 26 
3 27 7 26 
3 12 16 25 
3 16 29 25 
3 11 38 13 
3 13 38 28 
3 16 18 29 
3 18 17 30 
3 18 30 39 
3 18 39 31 
3 18 31 29 
3 33 19 45 
3 19 20 32 
3 47 34 33 
3 35 24 36 
3 36 24 34 
3 36 7 35 
3 25 29 48 
3 11 27 37 
3 38 11 37 
3 28 38 17 
3 38 30 17 
3 70 48 29 
3 70 29 40 
3 29 31 58 
3 40 29 58 
3 32 43 41 
3 32 41 50 
3 50 41 42 
3 49 41 43 
3 32 50 19 
3 43 32 20 
3 46 43 20 
3 49 43 44 
3 44 43 46 
3 46 20 21 
3 49 44 46 
3 46 53 49 
3 53 46 54 
3 21 23 54 
3 46 21 54 
3 79 47 33 
3 69 23 25 
3 69 54 23 
3 69 25 48 
3 26 36 37 
3 27 26 37 
3 30 38 71 
3 31 39 58 
3 40 58 70 
3 42 41 60 
3 41 49 60 
3 50 45 19 
3 54 52 62 
3 49 53 51 
3 52 54 56 
3 55 52 56 
3 55 63 52 
3 55 56 57 
3 57 65 55 
3 34 47 79 
3 34 79 67 
3 36 34 67 
3 37 36 81 
3 37 81 38 
3 69 48 70 
3 30 71 39 
3 39 71 58 
3 72 70 58 
3 49 59 60 
3 61 73 62 
3 62 73 59 
3 42 60 50 
3 51 59 49 
3 62 59 51 
3 50 83 45 
3 53 62 51 
3 54 62 53 
3 62 52 76 
3 45 77 33 
3 33 64 79 
3 56 54 69 
3 56 69 57 
3 57 86 65 
3 79 66 67 
3 65 86 80 
3 36 67 81 
3 68 57 69 
3 68 87 57 
3 86 57 87 
3 68 69 88 
3 81 71 38 
3 59 73 60 
3 62 74 61 
3 82 74 75 
3 60 83 50 
3 75 74 76 
3 84 75 76 
3 76 74 62 
3 84 76 52 
3 52 78 84 
3 52 63 78 
3 55 78 63 
3 55 90 78 
3 65 90 55 
3 90 65 92 
3 92 65 80 
3 67 66 81 
3 101 71 81 
3 71 101 58 
3 73 61 89 
3 89 61 74 
3 85 84 78 
3 85 78 90 
3 33 77 64 
3 64 91 79 
3 68 88 95 
3 87 68 95 
3 88 69 104 
3 95 88 104 
3 74 102 89 
3 82 102 74 
3 73 89 60 
3 116 83 60 
3 84 85 75 
3 98 91 64 
3 91 66 79 
3 80 86 92 
3 81 66 94 
3 94 100 81 
3 69 70 104 
3 81 100 101 
3 96 70 72 
3 89 102 97 
3 75 102 82 
3 45 83 116 
3 116 77 45 
3 66 91 93 
3 66 93 94 
3 87 95 109 
3 92 86 87 
3 109 92 87 
3 101 96 58 
3 72 58 96 
3 89 97 60 
3 75 113 102 
3 113 75 85 
3 85 90 103 
3 98 93 91 
3 100 94 99 
3 70 96 104 
3 113 85 103 
3 131 64 77 
3 90 92 103 
3 103 92 108 
3 92 107 108 
3 94 106 99 
3 98 94 93 
3 106 94 98 
3 92 109 107 
3 104 109 95 
3 100 99 111 
3 101 100 105 
3 101 105 96 
3 102 110 97 
3 64 131 98 
3 99 132 111 
3 100 111 105 
3 113 110 102 
3 113 103 120 
3 103 108 117 
3 106 98 132 
3 107 109 108 
3 132 99 106 
3 104 112 109 
3 125 105 111 
3 104 118 115 
3 97 134 116 
3 113 114 110 
3 120 103 117 
3 132 98 131 
3 122 108 109 
3 109 112 122 
3 112 104 115 
3 118 104 96 
3 110 114 97 
3 97 114 134 
3 60 97 116 
3 77 116 138 
3 138 131 77 
3 117 108 122 
3 115 122 112 
3 118 127 115 
3 113 119 114 
3 119 113 120 
3 111 123 125 
3 122 115 124 
3 125 133 105 
3 105 133 96 
3 114 119 134 
3 120 117 121 
3 117 122 121 
3 111 132 123 
3 146 138 116 
3 119 120 130 
3 120 121 139 
3 139 121 135 
3 121 122 135 
3 122 124 135 
3 123 132 126 
3 123 126 125 
3 115 160 124 
3 160 115 127 
3 96 133 152 
3 119 128 134 
3 134 128 137 
3 128 119 129 
3 129 119 130 
3 130 120 139 
3 125 126 150 
3 150 133 125 
3 96 152 118 
3 118 152 127 
3 134 144 116 
3 130 128 129 
3 131 138 149 
3 139 135 140 
3 132 131 150 
3 126 132 150 
3 124 160 136 
3 150 142 133 
3 146 116 166 
3 116 144 143 
3 134 137 144 
3 128 145 137 
3 145 128 130 
3 155 145 130 
3 155 130 139 
3 139 140 148 
3 131 177 150 
3 124 141 135 
3 141 124 136 
3 136 160 141 
3 133 180 161 
3 161 152 133 
3 151 127 152 
3 116 182 166 
3 143 182 116 
3 144 163 143 
3 138 187 156 
3 187 138 146 
3 147 155 139 
3 139 148 147 
3 157 148 140 
3 131 149 177 
3 140 135 157 
3 157 135 141 
3 141 160 157 
3 133 142 159 
3 180 133 159 
3 160 127 151 
3 137 164 144 
3 137 145 164 
3 145 155 154 
3 146 166 153 
3 185 146 153 
3 138 173 195 
3 149 138 195 
3 156 173 138 
3 147 148 155 
3 155 148 157 
3 149 175 177 
3 171 157 158 
3 159 142 150 
3 179 158 160 
3 157 160 158 
3 161 162 152 
3 166 182 183 
3 165 182 168 
3 182 143 168 
3 163 168 143 
3 144 168 163 
3 164 168 144 
3 165 186 167 
3 165 168 186 
3 145 170 164 
3 154 169 145 
3 169 170 145 
3 164 171 168 
3 170 171 164 
3 169 172 170 
3 154 155 169 
3 168 171 186 
3 171 158 186 
3 170 174 171 
3 172 174 170 
3 169 174 172 
3 155 174 169 
3 157 171 174 
3 155 157 174 
3 195 175 149 
3 176 175 195 
3 175 176 177 
3 178 159 150 
3 180 159 191 
3 160 151 179 
3 151 181 179 
3 192 161 180 
3 161 194 162 
3 162 194 152 
3 181 152 194 
3 151 152 181 
3 153 166 184 
3 182 165 167 
3 187 146 185 
3 184 185 153 
3 204 156 187 
3 173 188 195 
3 186 158 197 
3 176 190 189 
3 190 176 195 
3 176 224 177 
3 177 178 150 
3 198 178 177 
3 158 179 199 
3 178 213 159 
3 159 213 191 
3 161 192 193 
3 194 161 193 
3 201 181 194 
3 183 184 166 
3 183 182 184 
3 184 182 167 
3 185 184 167 
3 187 185 204 
3 167 204 185 
3 173 196 188 
3 204 173 156 
3 196 173 204 
3 204 167 197 
3 186 197 167 
3 195 189 190 
3 189 212 224 
3 176 189 224 
3 197 158 199 
3 177 224 198 
3 213 178 198 
3 201 179 181 
3 180 191 214 
3 200 192 214 
3 192 180 214 
3 192 216 193 
3 194 193 201 
3 195 205 206 
3 202 205 195 
3 202 207 203 
3 202 195 207 
3 195 188 207 
3 188 196 207 
3 208 217 209 
3 208 206 217 
3 204 197 220 
3 209 211 210 
3 209 210 208 
3 208 210 212 
3 195 212 189 
3 195 206 212 
3 206 208 212 
3 212 210 224 
3 210 211 224 
3 230 229 199 
3 199 179 230 
3 213 214 191 
3 215 230 201 
3 230 179 201 
3 216 215 193 
3 216 192 200 
3 201 193 215 
3 202 203 218 
3 202 218 205 
3 207 196 223 
3 203 207 223 
3 223 196 204 
3 203 219 218 
3 223 219 203 
3 211 221 222 
3 217 211 209 
3 221 211 217 
3 219 225 218 
3 223 225 219 
3 204 220 223 
3 211 222 224 
3 228 218 225 
3 220 226 223 
3 220 197 229 
3 198 224 227 
3 220 229 226 
3 197 199 229 
3 227 213 198 
3 223 229 225 
3 226 229 223 
3 228 214 213 
3 228 213 227 
3 228 229 214 
3 225 229 228 
3 230 214 229 
3 216 214 230 
3 215 216 230 
3 214 216 200 
3 205 231 206 
3 205 218 231 
3 217 206 231 
3 221 217 232 
3 221 232 222 
3 217 233 232 
3 233 222 232 
3 231 218 217 
3 218 233 217 
3 224 222 227 
3 233 228 222 
3 228 227 222 
3 218 228 233 

POINT_DATA 234
SCALARS scalars float
LOOKUP_TABLE default
1 1 1 1 1 1 1 1 1 
1 1 1 1 1 1 1 1 1 
1 1 1 1 1 1 1 1 1 
1 1 1 1 1 1 1 1 1 
1 1 1 1 1 1 1 1 1 
1 1 1 1 1 1 1 1 1 
1 1 1 1 1 1 1 1 1 
1 1 1 1 1 1 1 1 1 
1 1 1 1 1 1 1 1 1 
1 1 1 1 1 1 1 1 1 
1 1 1 1 1 1 1 1 1 
1 1 1 1 1 1 1 1 1 
1 1 1 1 1 1 1 1 1 
1 1 1 1 1 1 1 1 1 
1 1 1 1 1 1 1 1 1 
1 1 1 1 1 1 1 1 1 
1 1 1 1 1 1 1 1 1 
1 1 1 1 1 1 1 1 1 
1 1 1 1 1 1 1 1 1 
1 1 1 1 1 1 1 1 1 
1 1 1 1 1 1 1 1 1 
1 1 1 1 1 1 1 1 1 
1 1 1 1 1 1 1 1 1 
1 1 1 1 1 1 1 1 1 
1 1 1 1 1 1 1 1 1 
1 1 1 1 1 1 1 1 1 

NORMALS Normals float
-0.314508 -0.386847 -0.866853 0.154178 -0.223025 -0.962543 0.0181331 -0.378802 -0.9253 
-0.360901 -0.0484077 -0.931347 -0.119012 0.00129882 -0.992892 -0.588841 -0.196093 -0.784101 
-0.572454 -0.0190699 -0.819715 -0.47518 0.201972 -0.856395 -0.386367 0.249922 -0.88784 
-0.132938 0.203471 -0.970014 -0.210603 0.402118 -0.891037 -0.468752 0.502318 -0.7266 
0.108849 0.21228 -0.971128 -0.496785 0.585559 -0.640567 -0.315678 0.519227 -0.794198 
-0.122945 0.492585 -0.861536 0.206181 0.367012 -0.907079 -0.269603 0.678128 -0.683708 
-0.075007 0.641748 -0.763238 -0.182559 -0.570861 -0.800493 0.0969487 -0.456713 -0.884315 
0.127961 -0.275865 -0.952641 -0.06532 -0.555697 -0.828815 0.172718 -0.125131 -0.976991 
-0.985492 -0.0574308 -0.15971 0.33622 0.131274 -0.93259 -0.734048 0.467922 -0.492161 
-0.595491 0.476696 -0.646646 -0.442633 0.691913 -0.57038 0.26365 0.615758 -0.742517 
-0.306002 0.827995 -0.46988 0.0355813 0.810366 -0.584843 -0.0946276 -0.710801 -0.696999 
-0.569347 -0.649811 -0.503577 -0.931586 -0.194729 -0.306966 -0.907183 0.085168 -0.412026 
-0.923907 0.319833 -0.210005 -0.752568 0.613042 -0.240461 -0.550324 0.744568 -0.377838 
-0.22421 0.888654 -0.400029 0.287861 0.768394 -0.571583 -0.0423195 -0.760225 -0.64828 
-0.0955982 -0.798866 -0.593864 0.0631445 -0.539909 -0.839352 0.128039 -0.397675 -0.908549 
-0.436372 -0.814691 -0.381913 0.215465 -0.377474 -0.900604 -0.802166 -0.546166 -0.241314 
0.409327 0.524749 -0.746384 0.0945531 -0.587958 -0.803346 -0.273468 -0.809566 -0.519441 
0.142853 -0.416266 -0.897951 0.503343 -0.375272 -0.778342 0.184889 -0.324762 -0.927548 
0.274984 -0.152359 -0.9493 0.707694 -0.0167176 -0.706321 0.331818 0.04038 -0.942479 
0.507647 0.303337 -0.8064 -0.0052063 0.928311 -0.371768 0.115222 -0.741818 -0.660629 
-0.136747 -0.937376 -0.320355 0.174774 -0.763096 -0.622205 0.246122 -0.517539 -0.819498 
0.739141 -0.255752 -0.623106 -0.625468 -0.778205 -0.0564442 0.803274 0.204 -0.559585 
-0.975624 -0.183501 -0.120354 -0.950948 -0.0913258 -0.295563 0.541153 0.544733 -0.640639 
0.406616 0.45231 -0.793775 0.405592 0.81329 -0.417198 -0.507414 0.84868 -0.149243 
0.323226 0.909267 -0.262218 0.0501308 -0.836079 -0.546314 0.260425 -0.812735 -0.521192 
0.582852 -0.726708 -0.363565 0.391184 -0.614612 -0.685002 -0.494971 -0.853867 -0.160984 
0.838305 -0.248313 -0.485372 -0.821702 -0.537299 -0.19004 0.839977 0.311766 -0.444117 
-0.865632 0.493235 -0.0860275 0.349875 -0.868244 -0.351767 -0.43687 -0.883426 -0.169421 
0.682045 -0.557491 -0.473307 0.833577 -0.534548 -0.139314 0.675333 0.478394 -0.561306 
0.661746 0.598685 -0.451296 0.516666 0.726923 -0.452371 0.0403496 -0.962836 -0.267056 
0.960278 -0.0739219 -0.269076 -0.846593 -0.527517 0.0707611 0.904603 0.348223 -0.245834 
-0.974348 -0.224274 0.0186414 -0.993147 0.111019 -0.0365209 0.625946 0.700211 -0.343361 
0.0427101 0.997398 0.0580714 -0.0933268 -0.995042 0.0343754 -0.881695 -0.464958 0.0801721 
-0.968149 0.234299 -0.0882704 -0.791706 0.599842 -0.115724 -0.476811 0.878287 0.0355385 
0.395575 -0.89826 -0.191443 0.98411 -0.169104 -0.05415 0.485659 0.853987 -0.18666 
-0.613446 0.775309 0.15027 -0.983468 -0.180616 0.0129641 0.923778 0.372579 -0.0884236 
0.966024 0.257136 -0.0260732 0.795959 0.600739 -0.0745744 0.241864 -0.968249 0.06321 
-0.94742 0.319791 -0.0113571 0.731737 0.68157 0.00488055 0.76838 -0.637163 -0.0601264 
0.265669 -0.955812 0.125869 0.632136 0.765081 0.1227 -0.28354 -0.951775 0.117171 
0.998129 -0.0482266 0.0375749 0.338835 0.940466 0.0267403 0.65774 -0.747894 0.0896265 
0.930677 -0.344678 0.122632 0.978161 -0.0564742 0.200027 0.930798 0.351675 0.0996957 
-0.983596 0.130451 -0.124588 0.782022 0.582443 0.221815 -0.871886 0.487504 -0.0464115 
-0.955628 0.284764 -0.0753945 0.433076 0.857936 0.276388 0.510394 -0.824538 0.244202 
0.723215 -0.622776 0.298513 0.801458 -0.495862 0.334345 -0.831807 -0.554862 0.0150386 
-0.991714 -0.127011 0.0192666 -0.644897 0.763575 0.0325737 0.12247 -0.983556 0.132734 
0.903222 0.220978 0.367913 0.698371 0.590488 0.404477 0.28484 -0.865065 0.412952 
-0.59298 -0.802788 0.0624924 0.941464 -0.0952905 0.323367 0.866569 0.139208 0.479249 
0.731033 0.451895 0.511254 -0.876637 0.480237 0.0296725 -0.0784563 -0.764303 0.640067 
0.0697118 -0.821806 0.565487 0.458025 -0.686813 0.564359 -0.339334 -0.86406 0.371823 
0.847708 -0.0545609 0.52765 0.766652 0.0724139 0.637966 -0.79199 -0.610475 -0.00847919 
-0.970118 0.23723 0.050924 0.409423 0.782654 0.468855 0.0704926 0.978866 0.191971 
-0.465653 -0.724956 0.507549 0.531502 -0.50589 0.679398 0.700711 -0.276798 0.657561 
-0.591135 -0.754164 0.285999 0.532529 0.222531 0.816635 0.380385 0.194917 0.904054 
-0.798573 0.576278 0.173741 0.46817 0.660299 0.587215 -0.205693 0.958925 0.195327 
0.0294001 0.941017 0.337081 0.0621803 -0.524571 0.849093 0.246196 -0.596166 0.764182 
0.203053 -0.550822 0.809546 -0.285936 -0.843673 0.454376 0.00529949 -0.497582 0.867401 
0.191705 -0.491237 0.849668 0.378097 -0.401219 0.834306 0.20539 -0.375493 0.903781 
0.273524 -0.157558 0.948873 0.406564 -0.20272 0.890848 -0.462185 -0.854796 0.236028 
0.437724 -0.0848863 0.895094 -0.864427 -0.502364 -0.0199174 -0.816219 -0.57774 -0.00164638 
-0.991858 -0.126956 0.00995711 -0.901321 0.382017 0.204165 0.427721 0.463729 0.775893 
-0.53086 0.80253 0.272275 0.401767 0.765451 0.502661 -0.113824 -0.76732 0.631082 
-0.236219 -0.720723 0.651736 -0.301157 -0.591797 0.747717 -0.301449 -0.718848 0.626407 
0.283459 -0.20416 0.937 -0.354581 -0.772433 0.526896 -0.311633 -0.815287 0.488049 
-0.77201 -0.584821 0.248967 -0.637583 -0.749117 0.179755 -0.673469 0.634085 0.379967 
-0.285853 0.865517 0.411301 0.0580974 0.856864 0.512258 0.193517 0.901874 0.386232 
-0.512239 -0.797939 0.317655 -0.144488 -0.742969 0.653545 0.216555 -0.151001 0.964522 
-0.897154 0.27545 0.345314 0.30493 0.107969 0.946235 -0.318216 0.724256 0.611713 
0.29258 0.612788 0.73409 -0.136261 -0.681087 0.719412 0.0354458 -0.545834 0.837143 
-0.148769 -0.638734 0.754908 -0.164237 -0.675954 0.71841 -0.441674 -0.748215 0.495074 
-0.119829 -0.695912 0.708059 -0.605535 -0.729714 0.31756 -0.693274 -0.622209 0.36363 
-0.927182 -0.36683 -0.0759504 -0.87526 -0.341129 0.342858 -0.804275 -0.59099 0.062227 
-0.726083 0.486727 0.485695 -0.427739 0.581463 0.692055 0.177059 0.591867 0.786349 
-0.0466361 0.659707 0.750074 -0.385646 -0.463472 0.797791 -0.0796426 -0.229423 0.970063 
0.0245349 -0.351111 0.936012 0.232801 -0.137156 0.962804 -0.623004 -0.171635 0.763156 
-0.664299 0.199339 0.720397 0.0173858 -0.322748 0.946325 -0.990841 -0.00884754 0.134744 
-0.0417236 0.0147203 0.999021 0.213049 0.123128 0.969252 -0.687131 0.365151 0.628105 
-0.378532 0.349817 0.856938 0.0555657 0.224428 0.972905 0.127522 0.391279 0.911394 
-0.169514 -0.490821 0.854611 -0.335299 0.03411 0.941494 -0.259337 0.0291898 0.965346 

