# vtk DataFile Version 4.2
vtk output
ASCII
DATASET POLYDATA
POINTS 576 float
332.147 204.661 207.612 328.881 205.754 207.804 330.491 205.801 207.516 
332.589 205.146 207.581 329.135 206.494 207.773 332.3 206.039 207.671 
328.738 206.995 208.048 330.897 206.462 207.639 338.064 202.903 208.527 
342.634 203.29 209.198 328.367 205.015 208.184 331.16 203.915 208.057 
342.084 203.627 209.103 342.971 203.386 209.356 326.657 205.542 208.809 
326.486 206.074 208.704 327.852 205.498 208.233 342.943 203.693 209.412 
333.677 205.233 207.798 328.096 206.415 208.072 326.247 207.188 208.875 
332.303 206.688 207.948 326.537 207.34 208.865 328.76 207.362 208.313 
330.143 207.461 208.193 328.058 207.79 208.917 336.986 201.506 209.239 
338.211 201.992 208.914 331.057 202.917 208.839 328.679 204.118 208.643 
341.916 202.559 209.194 343.312 203.095 209.55 336.876 204.713 208.367 
327.072 204.978 208.891 337.518 205.179 208.687 342.616 204.191 209.517 
325.89 206.733 208.912 324.52 207.182 209.536 324.65 207.279 209.497 
331.281 207.465 208.34 327.305 207.842 209.382 328.586 208.125 209.348 
330.403 207.88 208.681 333.19 201.745 209.497 341.245 201.655 209.495 
343.488 201.506 210.234 340.888 202.052 209.159 344.392 202.078 210.272 
345.52 202.65 210.528 344.246 203.235 209.982 327.142 204.399 209.435 
345.98 203.565 210.673 342.729 204.521 209.8 343.602 204.491 210.089 
325.168 206.288 209.431 336.882 206.356 209.291 346.266 204.774 211.294 
324.478 206.895 209.665 324.306 207.178 209.688 324.101 207.356 209.773 
324.123 207.427 209.758 333.891 207.52 209.265 336.835 206.964 210.104 
324.554 207.503 209.728 327.713 207.968 209.686 329.02 208.257 209.772 
331.089 208.269 209.598 334.946 200.963 210.1 344.902 201.749 210.651 
346.106 201.958 211.103 326.612 204.446 210.201 326.303 204.744 210.029 
346.775 203.111 211.042 326.017 205.172 209.785 325.741 205.342 210.239 
325.009 206.144 209.95 347.112 204.118 211.345 343.294 205.207 210.692 
346.257 205.131 211.651 324.121 207.266 209.871 324.046 207.379 209.824 
324.056 207.423 209.801 324.145 207.459 209.804 324.352 207.494 209.818 
326.613 207.702 210.015 329.488 208.23 210.379 332.306 208.238 209.933 
343.643 200.71 210.961 345.099 201.003 211.373 326.079 204.886 210.399 
326.365 205.175 211.172 324.852 206.321 210.117 325.657 205.687 210.659 
325.906 205.212 210.777 326.663 205.293 211.379 347.633 203.983 211.878 
324.633 206.596 210.122 324.453 206.788 210.01 325.476 206.226 210.695 
325.223 206.479 210.569 326.543 205.772 211.317 324.275 207.071 210.004 
325.706 206.378 210.829 325.583 206.637 210.727 345.931 205.382 211.914 
346.777 205.172 211.984 347.092 205.033 212.037 324.109 207.245 209.972 
324.174 207.222 210.023 324.097 207.285 209.995 326.869 206.236 211.369 
337.392 207.024 210.763 324.073 207.408 209.853 324.085 207.309 209.958 
324.117 207.372 209.93 335.834 207.498 210.775 324.198 207.451 209.889 
337.073 199.871 212.155 342.286 200.045 211.509 344.218 200.214 211.899 
329.233 202.832 211.066 347.795 202.006 212.567 326.453 204.588 210.743 
326.193 204.77 210.639 348.214 202.624 212.759 326.104 204.874 210.75 
326.911 204.951 211.375 348.276 203.052 212.717 348.466 203.327 213.023 
326.023 205.002 210.79 348.314 203.705 212.831 347.996 204.239 212.558 
324.406 207.137 210.119 347.327 205.004 212.262 325.711 206.92 210.657 
326.856 206.776 211.157 346.797 205.44 212.67 347.416 205.08 212.575 
325.02 207.329 210.202 326.26 207.177 210.675 336.2 207.425 211.955 
329.938 207.951 211.292 332.231 208.375 210.785 330.208 208.151 211.08 
331.42 208.327 211.045 341.155 199.523 213.269 342.435 199.653 212.639 
343.046 199.577 213.237 344.244 199.771 212.845 345.948 199.95 213.302 
331.758 201.199 213.275 331.684 201.18 213.259 331.777 201.191 213.199 
347.791 200.756 213.896 329.732 202.9 211.893 331.681 201.21 213.219 
331.736 201.24 213.147 331.243 201.802 212.226 348.682 201.547 214.113 
330.429 203.325 212.741 348.822 202.682 213.704 349.028 202.558 214.119 
326.216 204.85 210.878 348.903 203.422 214.048 346.792 205.488 213.01 
327.407 207.242 211.035 336.259 207.303 212.559 335.933 200.039 213.409 
346.225 199.871 213.974 333.454 200.811 213.259 334.744 200.398 213.443 
337.832 199.922 214.087 331.696 201.208 213.275 331.788 201.418 212.868 
332.274 201.246 213.215 331.673 201.222 213.245 331.701 201.343 213.166 
331.629 201.714 213.079 348.91 201.662 214.436 331.532 203.229 213.386 
337.569 206.897 213.036 336.678 207.031 213.086 333.26 207.834 212.363 
342.434 199.58 214.237 347.099 199.957 214.792 347.653 200.077 215.038 
334.185 200.53 213.675 333.897 200.603 213.596 334.597 200.703 213.961 
334.117 200.597 213.791 339.244 199.956 214.589 344.848 199.791 215.027 
331.833 201.473 213.28 332.287 201.534 213.43 333.136 201.303 213.624 
333.892 200.781 213.747 334.815 201.977 214.816 333.652 202.995 214.385 
349.353 202.807 215.289 348.894 203.87 214.638 331.834 207.155 213.087 
347.102 199.936 215.053 347.32 199.995 215.248 334.025 200.524 213.749 
333.981 200.526 213.71 333.967 200.575 213.764 338.172 200.353 214.888 
343.5 199.919 215.372 344.953 199.944 215.564 346.979 199.98 215.304 
348.247 200.511 215.362 333.923 200.577 213.724 335.21 201.157 214.676 
337.879 200.729 215.165 348.936 201.368 215.15 349.475 202.75 215.728 
349.516 202.86 215.882 335.277 204.965 214.821 335.754 205.193 214.885 
336.382 206.466 214.009 347.712 200.238 215.588 333.958 200.526 213.748 
348.211 200.582 215.665 342.656 200.551 216.231 348.937 201.671 216.09 
342.932 200.827 216.583 349.473 202.708 215.987 349.498 202.875 216.041 
338.877 203.232 216.442 349.415 202.976 216.154 337.272 204.304 215.686 
338.98 203.905 216.421 338.402 204.687 215.945 348.655 204.067 216.173 
341.622 205.474 216.058 345.057 205.377 216.027 347.871 204.683 215.811 
345.516 200.459 216.434 347.436 200.949 216.859 347.777 201.038 216.825 
345.941 201.149 217.177 342.178 201.765 217.049 348.76 203.808 216.553 
339.041 204.809 216.099 340.802 204.749 216.765 347.022 204.903 216.313 
348.18 201.788 217.418 341.359 202.435 217.152 345.561 202.077 217.792 
344.366 204.937 217.108 344.729 204.719 217.432 345.226 204.66 217.5 
348.625 202.306 217.435 348.783 202.799 217.277 344.176 203.247 217.942 
345.319 202.738 218.008 342.497 203.817 217.541 344.168 203.55 217.961 
348.472 203.503 217.366 341.633 204.137 217.286 344.567 203.948 217.957 
344.371 204.219 217.792 348.219 203.641 217.498 344.902 204.423 217.709 
345.448 204.433 217.719 347.39 204.315 217.292 347.68 204.034 217.49 
346.742 202.772 218.053 347.917 202.556 217.812 348.323 202.66 217.684 
348.593 202.571 217.5 346.044 203.324 218.114 348.26 203.308 217.609 
347.257 203.677 217.882 345.912 204.319 217.749 348.008 202.508 239.097 
347.802 202.689 239.017 348.529 202.734 239.176 346.034 203.355 238.994 
345.676 203.115 239.055 345.565 203.357 239.06 348.17 203.09 239.05 
348.723 202.665 239.298 348.718 202.899 239.311 345.232 203.487 239.174 
346.09 203.675 239.029 348.333 203.254 239.149 345.899 203.885 239.145 
348.284 203.555 239.285 348.667 203.57 239.561 346.114 204.117 239.316 
347.585 203.921 239.261 348.383 203.81 239.516 348.743 202.137 239.686 
345.764 201.988 239.408 345.437 202.808 239.18 349.038 202.718 239.803 
344.859 203.668 239.393 349.102 202.991 239.891 348.878 203.465 239.702 
347.953 204.184 239.669 347.738 204.36 239.852 346.47 201.303 239.729 
348.113 201.524 239.912 348.803 202.069 239.979 344.676 202.859 239.411 
349.202 202.786 240.216 344.632 204.059 239.757 348.891 203.751 240.405 
347.69 204.553 240.296 348.13 204.434 240.402 347.618 200.352 240.768 
347.471 200.401 240.689 347.743 200.395 240.792 346.711 200.585 240.431 
347.41 200.636 240.455 341.134 201.085 240.868 342.246 200.635 240.935 
348.081 200.842 240.66 339.559 202.185 240.851 341.254 202.145 240.457 
349.152 202.465 240.557 339.705 203.018 240.758 349.304 202.709 240.44 
349.315 202.826 240.434 349.347 202.763 240.492 349.208 203.041 240.528 
349.308 202.81 240.572 348.351 204.37 240.728 347.639 200.317 240.877 
347.421 200.293 240.877 342.852 200.096 241.392 344.453 200.132 241.112 
344.09 199.871 241.58 337.338 201.7 241.675 348.666 201.598 240.812 
349.085 202.374 240.945 349.297 202.693 240.579 349.171 202.709 240.898 
337.102 204.113 241.665 348.747 203.976 241.488 333.652 206.406 243.064 
347.727 204.81 241.418 333.514 206.68 243.274 334.638 200.758 243.474 
342.435 199.748 242.069 347.4 200.273 241.492 336.156 200.769 242.671 
347.938 200.664 241.652 334.529 202.377 242.537 348.978 202.811 241.573 
333.948 205.097 242.561 341.126 205.941 243.094 345.479 205.494 242.104 
332.584 207.092 243.854 333.687 207.658 244.17 345.473 199.579 242.71 
345.255 199.565 242.637 336.515 199.81 243.868 336.361 199.923 243.548 
339.169 199.668 243.042 343.052 199.509 243.069 346.662 199.941 242.173 
346.753 200.011 242.423 336.561 199.972 243.296 336.005 200.36 243.084 
333.778 202.296 242.896 332.667 204.236 243.032 331.445 204.929 243.625 
348.695 203.797 242.296 331.276 205.479 243.754 341.028 206.124 243.866 
347.484 205.135 242.734 336.815 206.874 243.544 346.513 205.54 243.183 
347.292 205.27 243.005 338.453 199.568 244.003 340.259 199.495 243.774 
342.699 199.521 243.631 345.835 199.79 243.103 335.732 200.225 243.419 
345.494 199.807 243.534 346.494 200.402 243.765 347.561 200.731 242.576 
331.684 202.361 244.475 347.856 202.186 243.85 331.367 203.276 243.98 
332.499 203.275 243.304 331.003 203.76 243.996 348.314 203.524 243.342 
329.461 204.591 244.566 337.286 206.982 244.047 337.661 206.933 244.294 
338.399 206.73 244.407 331.688 207.92 245.039 331.726 208.164 245.415 
332.1 208.256 245.521 339.419 199.685 244.841 342.928 199.782 244.574 
328.761 203.044 245.802 329.623 202.628 246.01 347.136 201.384 244.287 
328.34 203.11 245.631 328.308 203.134 245.641 328.305 203.109 245.613 
[...]
POINT_DATA 576
SCALARS scalars float
LOOKUP_TABLE default
1 1 1 1 1 1 1 1 1 
1 1 1 1 1 1 1 1 1 
1 1 1 1 1 1 1 1 1 
1 1 1 1 1 1 1 1 1 
1 1 1 1 1 1 1 1 1 
1 1 1 1 1 1 1 1 1 
1 1 1 1 1 1 1 1 1 
1 1 1 1 1 1 1 1 1 
1 1 1 1 1 1 1 1 1 
1 1 1 1 1 1 1 1 1 
1 1 1 1 1 1 1 1 1 
1 1 1 1 1 1 1 1 1 
1 1 1 1 1 1 1 1 1 
1 1 1 1 1 1 1 1 1 
1 1 1 1 1 1 1 1 1 
1 1 1 1 1 1 1 1 1 
1 1 1 1 1 1 1 1 1 
1 1 1 1 1 1 1 1 1 
1 1 1 1 1 1 1 1 1 
1 1 1 1 1 1 1 1 1 
1 1 1 1 1 1 1 1 1 
1 1 1 1 1 1 1 1 1 
1 1 1 1 1 1 1 1 1 
1 1 1 1 1 1 1 1 1 
1 1 1 1 1 1 1 1 1 
1 1 1 1 1 1 1 1 1 
1 1 1 1 1 1 1 1 1 
1 1 1 1 1 1 1 1 1 
1 1 1 1 1 1 1 1 1 
1 1 1 1 1 1 1 1 1 
1 1 1 1 1 1 1 1 1 
1 1 1 1 1 1 1 1 1 
1 1 1 1 1 1 1 1 1 
1 1 1 1 1 1 1 1 1 
1 1 1 1 1 1 1 1 1 
1 1 1 1 1 1 1 1 1 
1 1 1 1 1 1 1 1 1 
1 1 1 1 1 1 1 1 1 
1 1 1 1 1 1 1 1 1 
1 1 1 1 1 1 1 1 1 
1 1 1 1 1 1 1 1 1 
1 1 1 1 1 1 1 1 1 
1 1 1 1 1 1 1 1 1 
1 1 1 1 1 1 1 1 1 
1 1 1 1 1 1 1 1 1 
1 1 1 1 1 1 1 1 1 
1 1 1 1 1 1 1 1 1 
1 1 1 1 1 1 1 1 1 
1 1 1 1 1 1 1 1 1 
1 1 1 1 1 1 1 1 1 
1 1 1 1 1 1 1 1 1 
1 1 1 1 1 1 1 1 1 
1 1 1 1 1 1 1 1 1 
1 1 1 1 1 1 1 1 1 
1 1 1 1 1 1 1 1 1 
1 1 1 1 1 1 1 1 1 
1 1 1 1 1 1 1 1 1 
1 1 1 1 1 1 1 1 1 
1 1 1 1 1 1 1 1 1 
1 1 1 1 1 1 1 1 1 
1 1 1 1 1 1 1 1 1 
1 1 1 1 1 1 1 1 1 
1 1 1 1 1 1 1 1 1 
1 1 1 1 1 1 1 1 1 

NORMALS Normals float
0.0392018 -0.267688 -0.962708 -0.252881 -0.212202 -0.943939 -0.0529375 0.0528232 -0.9972 
0.0880455 -0.012414 -0.996039 -0.179901 0.245371 -0.95259 0.0905461 0.245842 -0.965071 
-0.195416 0.396546 -0.896975 0.0581493 0.443527 -0.894373 0.0899946 -0.212115 -0.973092 
0.371191 -0.0921348 -0.923974 -0.312363 -0.328501 -0.891356 -0.146698 -0.468337 -0.871287 
0.14004 0.184734 -0.97276 0.479832 0.106511 -0.870871 -0.656833 -0.473722 -0.58665 
-0.366508 -0.130085 -0.921276 -0.375763 -0.395196 -0.838225 0.432966 0.313915 -0.844984 
0.218871 0.0980527 -0.970815 -0.3409 0.129675 -0.931113 -0.254586 0.18627 -0.948941 
0.207825 0.472861 -0.856278 -0.221452 0.4195 -0.880328 -0.221483 0.654947 -0.722489 
0.00934467 0.630507 -0.776127 -0.23702 0.809071 -0.537797 0.0563374 -0.754535 -0.653838 
0.135466 -0.753606 -0.643216 -0.259457 -0.754529 -0.6028 -0.327062 -0.679558 -0.656682 
0.296261 -0.35209 -0.887841 0.484624 -0.01501 -0.874594 0.21844 0.283 -0.933914 
-0.549066 -0.565187 -0.615703 0.223945 0.424687 -0.877205 0.230111 0.468391 -0.853029 
-0.449434 -0.377486 -0.809638 -0.484223 -0.011714 -0.874866 -0.333371 0.475397 -0.814163 
0.125074 0.692325 -0.710663 -0.225784 0.868522 -0.441238 -0.12844 0.908103 -0.398562 
0.0337351 0.814045 -0.579821 -0.248066 -0.853391 -0.458461 0.181149 -0.672306 -0.717767 
0.269989 -0.47538 -0.837329 0.0276876 -0.483293 -0.875021 0.348792 -0.381666 -0.855965 
0.41982 -0.30713 -0.854062 0.364141 -0.075336 -0.928292 -0.421756 -0.725483 -0.543871 
0.403834 0.0946822 -0.90992 0.229919 0.594 -0.77091 0.354939 0.424143 -0.833139 
-0.376997 -0.637004 -0.672383 0.248257 0.701117 -0.668434 0.359227 0.546185 -0.756729 
-0.722778 -0.475684 -0.501315 -0.696842 -0.284731 -0.658285 -0.647677 -0.315587 -0.693483 
-0.371674 0.516613 -0.771342 0.25136 0.850384 -0.462239 0.288028 0.887448 -0.359828 
-0.1549 0.91227 -0.379168 -0.212895 0.976463 -0.0345723 -0.191288 0.981403 0.0160512 
0.0560193 0.96783 -0.245291 -0.0104499 -0.953618 -0.300839 0.398525 -0.428558 -0.810874 
0.471013 -0.449209 -0.759183 -0.474757 -0.807707 -0.349593 -0.574405 -0.749946 -0.328085 
0.589378 -0.163999 -0.791036 -0.599067 -0.617313 -0.509945 -0.787869 -0.614107 0.0462016 
-0.676113 -0.690794 -0.256271 0.670346 0.21126 -0.71134 0.22031 0.783797 -0.580626 
0.208537 0.807119 -0.552333 -0.875192 -0.466664 -0.127534 -0.983349 -0.181579 0.00732089 
-0.778955 0.530223 -0.334804 -0.299619 0.953946 -0.0146486 -0.14122 0.985928 -0.089456 
-0.167555 0.931313 0.323392 -0.228577 0.941897 0.246134 0.129603 0.950598 -0.282074 
0.246428 -0.720006 -0.64874 0.387508 -0.67299 -0.630018 -0.723794 -0.686365 -0.0708837 
-0.569977 -0.250659 0.782493 -0.746551 -0.570104 0.342991 -0.773132 -0.392671 0.498073 
-0.848049 -0.406496 0.339962 -0.409443 -0.0707894 0.909585 0.758936 0.243073 -0.604096 
-0.756409 -0.519786 0.397075 -0.796005 -0.453165 0.401269 -0.517735 -0.162336 0.839999 
-0.559784 -0.0465836 0.827328 -0.503606 0.073718 0.860783 -0.759421 -0.609205 0.228363 
-0.271062 0.093846 0.957976 -0.415565 0.21454 0.8839 0.113625 0.904578 -0.410887 
0.363025 0.797437 -0.481983 0.5618 0.518358 -0.644737 -0.828521 -0.528663 0.184576 
-0.5551 -0.38934 0.735037 -0.556409 0.202804 0.805779 -0.327062 0.260258 0.908458 
0.287413 0.934504 -0.209991 -0.690366 0.4807 0.540669 -0.999747 0.0203079 0.00963676 
-0.747001 0.472319 0.467872 0.0363424 0.985024 -0.168544 -0.236756 0.814489 0.529674 
-0.182969 -0.973126 -0.139817 -0.00345892 -0.856253 -0.516546 0.213041 -0.868417 -0.447734 
-0.523869 -0.835382 0.166429 0.648118 -0.467534 -0.601128 -0.576176 -0.786673 0.221737 
-0.700369 -0.709958 0.0737766 0.79911 -0.209256 -0.563591 -0.775444 -0.622942 0.103104 
-0.493716 -0.504909 0.708033 0.770715 -0.0670297 -0.633644 0.894206 0.00677418 -0.447604 
-0.695315 -0.469711 0.543975 0.891562 0.268618 -0.364638 0.83469 0.340605 -0.432759 
-0.443865 -0.082348 0.892302 0.643129 0.575492 -0.505167 -0.304224 0.363919 0.880347 
-0.313454 0.224689 0.922638 0.319666 0.901908 -0.290476 0.740936 0.626193 -0.242685 
-0.229885 0.536446 0.812021 -0.245406 0.581873 0.775371 0.165708 0.983858 0.0675556 
-0.264236 0.835167 0.482365 0.113635 0.98604 0.121706 -0.182826 0.882684 0.432948 
-0.0553305 0.968787 0.24164 -0.0417656 -0.998704 -0.0290855 0.0805224 -0.960892 -0.264958 
0.0665627 -0.993897 -0.0879694 0.184957 -0.944786 -0.270501 0.414578 -0.787487 -0.456058 
0.0162456 -0.605504 0.795676 -0.53852 -0.83708 0.0963998 -0.0193064 -0.954379 -0.297974 
0.567874 -0.691716 -0.446148 -0.59617 -0.624319 0.504784 -0.81877 -0.335909 -0.465597 
-0.550481 -0.604617 -0.575681 -0.470896 -0.879041 -0.0744573 0.763293 -0.46635 -0.447103 
-0.482064 -0.266503 0.83462 0.881915 -0.0910487 -0.462532 0.936216 -0.0548635 -0.347117 
-0.5725 -0.62155 0.534715 0.912772 0.259087 -0.315785 0.231183 0.972532 -0.0271123 
-0.2585 0.634893 0.728072 0.0462653 0.970611 0.236167 -0.217984 -0.902103 0.372415 
0.301063 -0.914838 -0.269133 -0.470472 -0.834772 0.286027 -0.211611 -0.964758 0.156404 
-0.185213 -0.917722 0.351402 -0.426285 -0.0529925 0.903035 -0.551668 -0.793058 -0.258306 
-0.136173 -0.959265 0.247523 -0.953332 0.107166 0.282266 -0.995348 -0.0278792 -0.0922184 
-0.692115 -0.158889 0.704082 0.888341 -0.35426 -0.292147 -0.498774 -0.118617 0.858577 
0.106146 0.913065 0.393759 0.165158 0.911433 0.376846 0.0144618 0.885704 0.464024 
-0.0281502 -0.981644 0.188632 0.0945954 -0.994019 -0.0545722 0.488604 -0.867536 -0.0929872 
0.00566657 -0.981948 0.189066 -0.491799 -0.869685 -0.0422191 -0.166953 -0.741238 0.650149 
-0.0608396 -0.470455 0.880324 -0.136223 -0.799838 0.584553 0.112449 -0.984649 0.133497 
-0.50117 0.232346 0.833573 -0.29652 -0.198648 0.934138 -0.372183 -0.526573 0.76433 
-0.540585 -0.358446 0.761107 -0.351527 -0.13338 0.926627 -0.411985 -0.149195 0.898894 
0.945143 -0.202575 -0.256259 0.866648 0.478281 -0.142015 -0.200778 0.637525 0.743808 
-0.0215276 -0.999539 0.0213945 0.208915 -0.950782 0.22884 0.0390698 -0.81754 0.574545 
-0.305228 -0.925783 -0.223075 -0.348732 -0.204311 0.914682 -0.191544 -0.737322 0.647817 
-0.0208491 -0.926101 0.376698 0.103167 -0.908165 0.4057 -0.00948193 -0.95861 0.284566 
0.71002 -0.700087 0.0758325 -0.853095 -0.437307 0.284591 -0.276414 -0.60058 0.750266 
-0.231357 -0.584561 0.777665 0.82457 -0.540989 -0.165576 0.831845 -0.521219 -0.190695 
0.970417 0.236317 -0.0494366 -0.331734 0.230597 0.914755 -0.274696 0.361488 0.890993 
-0.0943928 0.718822 0.688756 0.368885 -0.85501 0.36453 -0.49373 -0.739864 0.456982 
0.533528 -0.766313 0.357927 -0.163978 -0.775237 0.610015 0.771528 -0.522047 0.36361 
-0.127265 -0.635925 0.761185 0.875328 -0.474145 0.0947984 0.924876 -0.0426098 0.377873 
-0.356248 -0.0348844 0.93374 0.874516 0.369001 0.314738 -0.313836 0.302229 0.900091 
-0.342749 0.195377 0.918886 -0.35657 0.343472 0.868841 0.721437 0.677484 0.143334 
0.0133157 0.915601 0.401868 0.162154 0.923121 0.348646 0.506307 0.83776 0.204479 
0.0461766 -0.820258 0.570127 0.179203 -0.762505 0.621669 0.429471 -0.681079 0.593031 
-0.00654547 -0.609482 0.792773 -0.220921 -0.449192 0.865691 0.679601 0.608596 0.409577 
-0.206695 0.590957 0.779773 -0.189234 0.590674 0.784407 0.314719 0.892675 0.322621 
0.304457 -0.540103 0.784598 -0.251127 -0.258351 0.93284 -0.0791569 -0.453093 0.887942 
-0.10853 0.764509 0.635412 -0.0617882 0.776582 0.626979 0.128268 0.80103 0.58472 
0.706504 -0.303174 0.639483 0.777121 0.161633 0.608242 -0.135219 -0.198181 0.970793 
-0.11105 -0.2184 0.96952 -0.190626 0.128111 0.973267 -0.175482 0.125346 0.976471 
0.686998 0.33641 0.644097 -0.236412 0.249491 0.939076 -0.0643467 0.231371 0.970735 
-0.164505 0.525747 0.834583 0.518507 0.675566 0.524177 -0.112999 0.593116 0.797148 
0.125972 0.634313 0.762744 0.344772 0.78095 0.520816 0.3471 0.586748 0.731607 
0.100475 -0.337846 0.935823 0.274728 -0.128995 0.95283 0.527081 0.043826 0.848684 
0.653007 0.0167977 0.757166 0.0287274 0.0927947 0.995271 0.415886 0.255789 0.872703 
0.221698 0.350359 0.909999 0.141917 0.696908 0.702978 0.222806 -0.399536 -0.889229 
0.031382 -0.226686 -0.973462 0.425265 -0.22581 -0.876447 -0.051235 -0.0640994 -0.996627 
-0.174883 -0.207246 -0.962531 -0.154883 0.327707 -0.931998 0.179989 0.143795 -0.973102 
0.66826 -0.292321 -0.684088 0.658367 0.146658 -0.738271 -0.28712 0.201741 -0.936409 
-0.098758 0.310088 -0.945565 0.452916 0.293231 -0.841952 -0.199643 0.482599 -0.852784 
0.382274 0.440785 -0.812142 0.593028 0.415983 -0.689403 -0.0279875 0.809012 -0.587125 
0.158683 0.589814 -0.791795 0.558812 0.719375 -0.412587 0.678692 -0.585816 -0.44294 
-0.16063 -0.483795 -0.860314 -0.162721 -0.277705 -0.946785 0.862265 -0.154087 -0.482448 
-0.350854 0.322591 -0.879111 0.914059 0.134716 -0.382555 0.799482 0.339202 -0.495753 
0.37783 0.745439 -0.549149 0.301348 0.867686 -0.395362 0.0712712 -0.588603 -0.805275 
0.412598 -0.634922 -0.653175 0.852654 -0.463103 -0.241903 -0.289173 -0.21159 -0.9336 
0.934574 -0.0543533 -0.351591 -0.220894 0.576687 -0.786535 0.875161 0.48381 0.00459727 
0.239407 0.931035 -0.275424 0.432907 0.861033 -0.266859 0.198423 -0.813706 -0.546361 
-0.138938 -0.775872 -0.615402 0.559932 -0.732985 -0.386276 -0.0786362 -0.805904 -0.586801 
0.140704 -0.67953 -0.720029 -0.220907 -0.47861 -0.849784 -0.172954 -0.654605 -0.735921 
0.675213 -0.629941 -0.383748 -0.219862 -0.175568 -0.959602 -0.2558 0.155431 -0.954153 
0.852308 -0.519796 -0.0581593 -0.163088 0.16035 -0.973494 0.844012 -0.423139 -0.329541 
0.917455 0.279831 -0.282793 0.996877 -0.0783969 -0.0094616 0.89729 0.440694 0.0256651 
0.914174 0.25808 0.312539 0.56826 0.811587 -0.135673 0.373548 -0.922851 -0.0938475 
-0.00436101 -0.931865 -0.362778 -0.0491734 -0.854519 -0.517088 -0.0261507 -0.809055 -0.58715 
-0.00946123 -0.887276 -0.461142 -0.312678 -0.331238 -0.890232 0.779833 -0.604219 -0.163646 
0.885549 -0.408366 0.221452 0.892884 -0.38254 0.237534 0.904981 -0.00861465 0.425365 
-0.302293 0.100397 -0.947913 0.780105 0.623549 0.051214 -0.145951 0.469831 -0.870607 
0.33413 0.924699 -0.182456 -0.096665 0.618743 -0.779623 -0.4752 -0.665892 -0.575128 
-0.116029 -0.906284 -0.406431 0.441031 -0.88833 0.12791 -0.347309 -0.56451 -0.748802 
0.769932 -0.578035 0.270334 -0.377687 -0.208832 -0.902076 0.955532 -0.0659322 0.287423 
-0.339748 0.059839 -0.938611 0.136342 0.950271 -0.279991 0.0954715 0.971807 -0.215584 
-0.292236 0.439271 -0.849493 0.0277659 0.832311 -0.553613 0.191279 -0.969067 0.155953 
0.0694734 -0.997499 0.0130248 -0.233681 -0.968381 -0.0873615 -0.302761 -0.883155 -0.358293 
-0.0820992 -0.975506 -0.204077 0.060269 -0.998111 -0.0119425 0.272347 -0.946648 -0.172293 
0.526939 -0.818516 0.228837 -0.195849 -0.793874 -0.57568 -0.369198 -0.696853 -0.614889 
-0.43307 -0.214828 -0.875385 -0.378525 0.0255272 -0.925239 -0.408186 -0.0123158 -0.912816 
0.935365 0.249976 0.250209 -0.398105 0.0449874 -0.916236 0.25822 0.963095 -0.0759625 
0.548702 0.834802 -0.0450739 0.154195 0.812224 -0.562597 0.178767 0.978725 -0.100699 
0.498869 0.864787 0.0572141 -0.0973764 -0.97887 0.17981 -0.0221579 -0.99884 0.0427501 
0.022929 -0.994804 0.099193 0.264661 -0.903471 0.337185 -0.439656 -0.810458 -0.387119 
0.245999 -0.88803 0.388441 0.493041 -0.751539 0.438293 0.667897 -0.6896 0.279939 
-0.509364 -0.62021 -0.596563 0.865444 -0.273206 0.419959 -0.502699 -0.364406 -0.783902 
-0.458574 -0.325926 -0.82673 -0.528794 -0.267183 -0.805599 0.920844 0.110457 0.373959 
-0.50498 -0.232229 -0.831303 0.244906 0.942322 -0.228144 0.235676 0.960039 -0.150939 
0.25545 0.962977 -0.0861425 -0.195317 0.853312 -0.483436 -0.278341 0.861091 -0.425498 
-0.0321764 0.918612 -0.393849 -0.0310283 -0.930176 0.365801 0.160981 -0.924479 0.345576 
-0.46431 -0.855096 0.230708 -0.398058 -0.917098 0.0219275 0.693294 -0.530403 0.487868 
-0.052278 -0.972688 0.226153 -0.851486 -0.256476 0.457374 -0.614511 -0.514279 -0.598241 
-0.238424 -0.826009 -0.510748 -0.395329 -0.65349 0.645496 0.0064191 -0.3863 -0.922351 
-0.402145 0.0718539 -0.912752 -0.581768 -0.264438 -0.769168 0 -0.159641 -0.987175 
0 -1 0 -0.963361 -0.268207 4.13429e-08 0.963361 -0.268207 4.13429e-08 
0.887135 0.121722 0.445169 0 0.5547 -0.83205 -0.135003 0.0193131 -0.990657 
-0.53365 -0.745136 -0.399987 -0.663194 -0.159864 -0.731175 -0.521412 -0.034245 -0.852618 
-0.762583 -0.617599 -0.192454 -0.741551 -0.258474 -0.619107 0.240507 0.956907 0.162745 
-0.289032 0.306028 -0.907087 -0.785384 0.205204 -0.584006 0.311671 0.933466 0.177487 
-0.209354 0.713232 -0.668933 -0.527363 0.794096 -0.30216 -0.231554 0.18308 -0.95544 
0.0260183 0.78971 -0.612928 0.0603367 0.982472 -0.176375 0.256054 0.96655 0.0147472 
-0.170475 0.977745 -0.122279 0.0304751 -0.874791 0.483541 0.257835 -0.835574 0.485115 
-0.271145 -0.934055 0.232427 -0.0532938 -0.874992 0.481195 -0.364652 -0.92912 -0.0613535 
0.481623 -0.566112 0.668997 -0.622776 0.335775 -0.706686 -0.982999 0.151274 -0.104065 
-0.828144 -0.560133 -0.0206958 -0.653015 -0.666262 -0.360092 -0.644294 -0.685458 -0.339164 
-0.690984 -0.375861 -0.61747 0.793064 -0.111563 0.598834 0 -0.159641 0.987175 
-0.396199 -0.467468 -0.790253 0.845403 0.210169 0.491042 -0.539969 -0.58047 -0.609499 
-0.306514 -0.340488 -0.888885 -0.57972 -0.411188 -0.703455 -0.4025 -0.476306 -0.781746 
-0.348057 -0.36403 -0.863909 0.800341 0.499115 0.332172 0.701567 0.572065 0.424906 
-0.882373 -0.467592 -0.0526891 0.201123 0.938942 0.279174 0.564379 0.700446 0.436867 
-0.98573 0.167436 -0.0173865 0.305478 0.909358 0.282401 -0.686823 0.68668 0.238211 
-0.155786 0.971528 -0.178507 -0.00482322 0.955029 -0.296474 -0.08236 -0.815917 0.572274 
0.144962 -0.679367 0.719337 -0.374313 -0.846382 0.378851 -0.476166 -0.805883 0.35188 
0.557913 -0.321264 0.765195 -0.684263 -0.728182 -0.0391665 -0.581811 -0.81187 -0.0486228 
-0.556534 -0.789481 0.258824 -0.693883 -0.719842 0.0188282 0.754991 0.266809 0.599001 
0.64169 0.215959 0.735932 -0.637684 -0.770209 -0.0117001 0.203211 0.838431 0.505707 
0.237159 0.846142 0.477283 -0.668913 -0.620739 0.408948 -0.889405 -0.163186 0.427 
0.207327 0.940889 0.267851 -0.520564 0.157858 0.839103 -0.338958 0.788648 0.512973 
-0.155422 0.908572 0.387738 -0.0389557 0.978019 -0.204846 -0.0626319 0.973459 -0.220122 
-0.0920519 0.989231 0.113796 0.0573067 0.984328 0.166776 -0.27596 -0.868708 0.411331 
0.394536 -0.525233 0.75397 -0.5246 -0.793974 0.307246 -0.503556 -0.737902 0.449368 
-0.720904 -0.606491 0.335361 -0.655613 -0.688991 0.308971 0.527893 -0.116984 0.841216 
0.0782191 0.722332 0.687109 0.0247427 0.692413 0.721077 0.316475 0.657447 0.683818 
0.209611 0.739396 0.639809 0.0966674 0.827414 0.553211 0.619667 0.542049 0.567622 
-0.61101 -0.537316 0.581342 0.395639 0.803612 0.44461 0.248454 0.812103 0.527976 
0.269059 0.721547 0.637948 0.396015 0.772949 0.495704 0.35252 0.876156 0.328755 
-0.334899 0.715527 0.613077 -0.330459 0.94347 0.0257029 -0.351862 0.622273 0.699264 
0.0217359 0.981636 0.189521 -0.154651 0.946115 0.284516 0.240832 0.921103 0.305892 
-0.135491 0.928769 0.345008 -0.00884502 0.963761 0.266621 -0.0807894 -0.784443 0.614917 
0.0232189 -0.699171 0.714577 -0.221532 -0.738847 0.636419 0.369048 -0.251036 0.894866 
-0.568111 -0.551689 0.610646 0.245391 0.305733 0.919952 0.109506 0.315422 0.942612 
0.409259 0.162211 0.897884 -0.513308 -0.347829 0.784557 0.242539 0.559584 0.79249 
0.259217 0.505872 0.822739 -0.00497395 0.533958 0.845497 0.0711092 0.588707 0.805212 
0.206479 0.578059 0.789439 0.298281 0.599426 0.742777 0.460647 0.441832 0.769798 
-0.532893 -0.424606 0.731939 0.222596 0.471079 0.853543 0.28793 0.569764 0.769718 
0.420781 0.598292 0.681902 -0.414178 -0.171116 0.893966 -0.170125 0.595658 0.785016 
-0.131691 0.915726 0.379608 -0.155835 0.823146 0.546028 -0.117675 0.876517 0.466765 
0.043169 -0.556367 0.829814 0.135571 -0.28165 0.949891 0.139455 -0.607997 0.781596 
-0.314412 -0.637279 0.703577 0.154317 -0.449259 0.879973 0.282204 -0.0567784 0.957673 
-0.398203 -0.335896 0.853585 0.0688387 0.329915 0.941497 0.375928 0.0948768 0.921779 
0.352607 0.406604 0.842818 0.257763 0.257015 0.931398 0.208006 0.366042 0.907054 
-0.373822 0.142782 0.916445 0.246417 0.688596 0.681993 -0.298923 0.195599 0.934016 
-0.31848 0.266542 0.909684 0.197338 0.73536 0.648308 -0.108454 0.714255 0.691432 
-0.0152095 0.819649 0.572664 0.00295665 0.763102 0.646271 -0.0502976 -0.460167 0.886407 
0.13513 -0.1163 0.983979 0.473283 -0.761958 -0.442067 0.273597 -0.308965 0.910871 
-0.23318 -0.377971 0.895972 0.124715 0.208854 0.969962 -0.329487 -0.164979 0.929635 
0.0787094 0.462838 0.882942 0.0226403 0.379356 0.924974 -0.134772 0.482723 0.865341 
0.0226564 0.581923 0.812928 -0.216773 0.612816 0.759912 -0.0185411 -0.0106413 0.999771 
-0.211509 0.140214 0.967266 0 0.5547 0.83205 -0.0266334 0.0571863 0.998008 

