# vtk DataFile Version 4.2
vtk output
ASCII
DATASET POLYDATA
POINTS 657 float
330.717 211.366 201.151 332.574 211.363 200.701 334.102 211.544 200.644 
335.137 210.217 201.134 329.574 210.326 201.59 330.392 209.77 201.394 
329.475 210.903 201.678 336.739 210.763 201.392 328.962 211.535 202.129 
334.897 211.996 200.854 329.819 211.925 201.728 331.192 209.206 201.402 
336.64 213.415 201.713 330.892 213.658 202.24 336.549 214.66 202.276 
327.237 206.542 203.383 326.423 207.174 203.421 326.142 207.296 203.617 
326.534 206.853 203.486 327.538 206.679 203.208 327.179 207.299 202.994 
327.634 207.26 202.851 325.877 208.102 203.759 326.569 207.85 203.2 
328.321 208.202 202.35 328.051 211.602 202.946 338.194 212.845 202.234 
335.224 216.126 203.338 338.439 215.436 203.348 326.265 206.378 204.246 
326.403 206.337 204.257 326.333 206.394 204.167 326.707 206.614 203.553 
340.145 206.711 204.395 333.379 207.327 202.605 326.612 210.132 203.579 
328.732 212.878 203.44 336.481 217.205 204.501 337.321 216.953 204.293 
326.279 206.462 204.503 326.656 206.339 204.111 328.298 206.047 204.156 
339.197 205.97 204.681 326.314 206.556 204.017 329.626 206.27 203.65 
338.351 205.985 204.427 341.054 206.689 205.016 325.614 207.337 204.385 
341.33 207.012 204.996 325.305 207.621 204.641 325.199 207.837 204.589 
325.12 208.039 204.646 325.189 208.34 204.587 341.445 215.377 204.944 
328.227 205.989 204.642 335.932 205.446 205.182 326.774 206.368 204.718 
333.982 205.757 204.687 333.657 205.74 205.097 336.296 205.536 204.785 
339.881 205.937 205.152 334.372 205.885 204.295 340.762 206.39 205.156 
325.495 207.381 204.721 324.939 208.27 204.963 325.164 208.629 204.74 
342.675 210.174 204.901 327.169 211.788 204.608 331.069 215.587 204.765 
343.436 214.414 205.916 340.219 216.894 205.343 336.257 205.456 205.737 
337.469 205.41 205.413 338.962 205.531 205.669 341.102 205.979 206.244 
340.971 205.835 206.435 332.838 205.917 205.553 341.873 206.175 206.943 
325.864 207.35 205.21 325.362 207.764 205.163 324.979 208.215 205.115 
324.924 208.261 205.06 324.982 208.423 205.068 325.095 208.681 205.172 
327.142 211.79 204.913 330.54 215.626 205.913 338.724 205.526 206.389 
339.152 205.644 206.83 340.005 205.635 206.559 336.389 205.801 206.582 
337.705 205.644 206.651 340.493 205.761 206.984 341.114 205.87 207.009 
341.594 206.016 207.081 327.404 206.933 205.57 343.546 206.994 207.721 
326.678 208.169 205.97 324.963 208.318 205.137 325.135 208.409 205.273 
344.629 208.967 206.936 345.004 208.397 207.642 345.575 208.846 207.783 
325.202 208.716 205.399 325.165 208.801 205.369 325.118 208.692 205.311 
326.793 209.591 206.301 345.32 209.408 207.376 327.007 210.264 206.385 
327.482 210.557 206.699 326.767 211.113 205.56 328.353 211.022 207.179 
328.413 213.516 205.846 329.133 214.337 205.857 339.356 205.891 207.352 
342.182 206.312 207.857 336.54 206.76 207.677 334.956 207.855 207.874 
334.049 208.928 208.097 346.274 209.332 208.359 346.47 210.509 208.214 
324.002 211.011 208.513 324.002 211.011 208.513 324.002 211.011 208.513 
324.003 211.011 208.513 327.331 211.44 206.371 324.002 211.011 208.513 
327.683 212.13 206.469 347.433 211.305 209.348 327.909 212.661 206.437 
332.818 211.694 208.66 347.129 213.006 209.227 329.192 214.435 206.225 
329.995 215.204 206.691 330.932 216.093 207.052 331.463 216.585 206.971 
338.417 219.427 208.475 342.834 206.652 208.385 343.281 206.826 208.319 
347.002 208.998 209.496 347.223 209.157 209.617 347.316 209.393 209.591 
324.002 211.011 208.513 324.002 211.011 208.513 324.002 211.011 208.513 
324.002 211.011 208.513 328.716 212.813 207.316 328.772 213.769 206.837 
332.415 214.348 209.1 330.321 215.377 207.296 345.354 216.33 209.204 
333.97 219.052 208.84 342.902 207.06 209.14 343.667 207.247 209.182 
347.117 208.926 209.883 347.32 209.094 210.033 347.477 209.372 210.045 
347.667 209.885 210.182 324.002 211.011 208.513 347.717 214.14 211.02 
331.264 216.017 208.014 332.483 217.691 208.845 333.553 218.784 209.846 
334.663 220.001 210.477 341.611 207.901 210.012 346.6 208.669 210.28 
347.822 210.119 210.789 347.908 210.563 210.866 347.958 211.479 210.712 
347.826 214.428 211.749 333.861 219.464 210.445 333.869 218.634 210.427 
335.135 217.942 211.323 334.07 219.753 210.581 339.734 220.203 211.109 
334.721 220.107 210.924 335.726 220.645 211.373 335.535 220.655 211.703 
336.803 220.807 211.432 345.478 208.417 210.572 346.79 209.027 210.858 
347.509 209.541 210.778 347.7 209.788 210.714 347.834 210.333 211.05 
347.879 214.209 212.247 347.709 215.044 211.996 347.207 215.86 211.595 
344.819 218.141 211.647 333.911 219.5 210.583 333.953 219.631 210.578 
334.073 219.751 210.714 334.212 219.85 210.764 335.029 220.216 211.468 
335.478 220.662 212.092 338.754 220.746 212.231 335.85 221.039 212.371 
344.769 208.569 210.911 344.454 209.38 211.594 347.234 209.527 211.186 
347.13 209.661 211.374 347.459 209.657 211.087 347.578 209.959 211.253 
334.035 219.636 210.732 334.202 219.581 210.902 341.808 219.685 212.561 
334.537 219.808 211.161 334.944 219.736 211.561 335.503 220.28 212.238 
335.396 221.465 213.034 335.409 221.426 213.003 335.47 221.318 212.922 
335.583 221.01 212.64 335.752 220.812 212.798 335.516 221.318 212.882 
335.689 221.288 212.808 345.585 210.321 212.146 346.198 210.224 211.999 
347.501 210.126 211.446 347.14 210.642 211.932 344.294 212.693 213.237 
346.857 212.777 213.207 347.01 216.652 213.024 343.092 219.116 213.807 
345.075 218.327 213.136 335.488 221.442 213.071 335.417 221.474 213.057 
335.423 221.476 213.04 335.543 221.429 213 335.699 221.433 213.063 
335.878 221.406 213.053 336.561 221.267 213.251 347.05 213.403 213.501 
347.549 215.55 213.571 342.204 219.297 214.118 342.733 219.031 214.121 
342.928 219.07 214.255 344.541 218.684 213.691 343.412 219.051 214.133 
335.471 221.47 213.062 335.625 221.419 213.089 335.871 221.385 213.133 
336.187 221.269 213.231 337.094 220.916 213.618 337.182 221.111 213.561 
347.143 213.266 213.423 347.417 215.122 213.845 347.28 215.325 214.023 
347.411 215.393 213.911 347.416 215.633 213.854 342.331 217.992 214.427 
341.792 218.757 214.44 342.54 218.619 214.384 342.974 218.704 214.496 
343.74 218.075 214.753 346.193 217.515 214.188 341.551 219.315 214.686 
342.172 219.152 214.577 342.685 219.099 214.393 342.662 219.028 214.536 
337.616 220.377 213.816 341.145 220.055 214.029 342.608 219.324 214.431 
344.56 218.609 214.211 339.651 220.677 214.309 337.876 220.711 214.003 
338.349 220.98 213.953 337.477 220.957 213.783 337.786 221.007 213.84 
346.125 215.897 214.592 347.002 215.478 214.2 345.722 216.851 214.827 
346.719 216.463 214.475 343.263 218.736 214.751 345.471 218.051 214.412 
345.615 217.882 214.522 346.328 217.261 214.394 342.16 219.335 214.792 
342.617 219.093 214.726 339.7 220.448 214.503 340.648 220.03 214.752 
341.255 219.796 214.855 344.392 218.585 214.524 338.805 220.75 214.269 
339.266 220.818 214.518 339.423 220.809 214.609 339.449 220.781 214.5 
340.616 220.201 214.682 339.005 223.013 217.513 339.004 223.013 217.513 
339.005 223.013 217.513 339.005 223.013 217.513 339.275 220.878 214.498 
339.005 223.013 217.513 345.778 217.148 214.794 346.587 216.681 214.532 
341.886 219.621 214.827 343.389 218.907 214.786 344.855 218.212 214.673 
341.204 219.954 214.924 341.401 219.871 214.896 341.397 219.917 214.811 
342.543 219.37 214.829 340.888 220.084 214.843 339.004 223.013 217.513 
339.004 223.013 217.513 339.004 223.013 217.513 339.328 220.899 214.623 
339.004 223.013 217.513 342.665 219.284 214.869 341.084 220.035 214.908 
341.232 219.986 214.904 339.362 220.915 214.672 339.004 223.013 217.513 
346.01 217.291 242.118 345.957 217.297 242.127 345.98 217.295 242.164 
345.99 217.257 242.137 346.013 217.255 242.174 340.446 220.381 242.334 
340.501 220.321 242.316 340.398 220.352 242.338 340.572 220.321 242.382 
339 223.009 239.017 339 223.009 239.017 339 223.009 239.017 
340.325 220.431 242.426 339 223.009 239.017 339 223.009 239.017 
345.85 217.242 242.183 345.838 217.326 242.193 346.004 217.131 242.24 
343.697 218.48 242.124 344.513 218.337 242.229 345.966 217.233 242.359 
341.692 219.197 242.169 341.39 219.486 242.202 343.442 218.854 242.252 
343.938 218.753 242.283 344.304 218.578 242.288 340.596 220.136 242.337 
342.959 219.3 242.522 344.101 218.78 242.395 339.745 220.496 242.603 
341.052 220.125 242.549 339 223.009 239.017 346.83 215.725 242.776 
346.722 215.425 242.769 344.165 217.136 242.134 345.849 216.867 242.3 
346.355 216.41 242.513 346.73 216.077 242.723 346.982 215.775 242.919 
343.651 217.345 242.135 345.326 217.492 242.28 346.215 216.85 242.462 
345.788 217.499 242.784 346.379 216.902 242.803 346.772 216.457 242.973 
341.228 219.297 242.22 344.525 218.63 242.645 342.893 219.494 242.907 
339.277 220.515 242.803 346.68 214.411 242.99 347.074 214.146 243.229 
347.334 213.904 243.464 347.298 214.956 243.272 344.12 216.524 242.26 
347.237 215.549 243.266 342.881 217.273 242.283 339.219 219.109 242.908 
336.762 221.034 243.618 336.664 221.043 243.703 336.718 221.084 243.641 
336.717 220.903 243.698 337.332 220.909 243.421 339.045 220.79 243.235 
336.836 221.068 243.609 337.899 220.929 243.33 345.852 211.412 243.998 
347.433 211.204 244.397 347.248 210.921 244.468 347 211.724 243.993 
347.6 211.146 244.549 346.704 212.766 243.488 346.235 213.544 243.16 
347.629 214.747 243.777 344.374 218.783 243.247 343.476 219.26 243.549 
335.423 220.831 244.594 335.345 220.802 244.684 335.365 220.881 244.625 
335.715 220.529 244.501 336.519 220.623 243.898 335.769 220.875 244.491 
336.133 220.926 244.329 336.702 221.077 243.706 336.538 220.97 243.944 
336.866 221.081 243.719 337.227 221.085 243.658 346.632 210.379 244.684 
347.473 210.609 244.852 344.003 211.268 244.351 347.641 210.946 244.765 
343.511 213.837 243.379 347.87 213.55 244.575 347.838 214.283 244.503 
347.333 215.95 244.074 346.991 216.568 244.284 343.51 219.105 244.386 
[...]
POINT_DATA 657
SCALARS scalars float
LOOKUP_TABLE default
1 1 1 1 1 1 1 1 1 
1 1 1 1 1 1 1 1 1 
1 1 1 1 1 1 1 1 1 
1 1 1 1 1 1 1 1 1 
1 1 1 1 1 1 1 1 1 
1 1 1 1 1 1 1 1 1 
1 1 1 1 1 1 1 1 1 
1 1 1 1 1 1 1 1 1 
1 1 1 1 1 1 1 1 1 
1 1 1 1 1 1 1 1 1 
1 1 1 1 1 1 1 1 1 
1 1 1 1 1 1 1 1 1 
1 1 1 1 1 1 1 1 1 
1 1 1 1 1 1 1 1 1 
1 1 1 1 1 1 1 1 1 
1 1 1 1 1 1 1 1 1 
1 1 1 1 1 1 1 1 1 
1 1 1 1 1 1 1 1 1 
1 1 1 1 1 1 1 1 1 
1 1 1 1 1 1 1 1 1 
1 1 1 1 1 1 1 1 1 
1 1 1 1 1 1 1 1 1 
1 1 1 1 1 1 1 1 1 
1 1 1 1 1 1 1 1 1 
1 1 1 1 1 1 1 1 1 
1 1 1 1 1 1 1 1 1 
1 1 1 1 1 1 1 1 1 
1 1 1 1 1 1 1 1 1 
1 1 1 1 1 1 1 1 1 
1 1 1 1 1 1 1 1 1 
1 1 1 1 1 1 1 1 1 
1 1 1 1 1 1 1 1 1 
1 1 1 1 1 1 1 1 1 
1 1 1 1 1 1 1 1 1 
1 1 1 1 1 1 1 1 1 
1 1 1 1 1 1 1 1 1 
1 1 1 1 1 1 1 1 1 
1 1 1 1 1 1 1 1 1 
1 1 1 1 1 1 1 1 1 
1 1 1 1 1 1 1 1 1 
1 1 1 1 1 1 1 1 1 
1 1 1 1 1 1 1 1 1 
1 1 1 1 1 1 1 1 1 
1 1 1 1 1 1 1 1 1 
1 1 1 1 1 1 1 1 1 
1 1 1 1 1 1 1 1 1 
1 1 1 1 1 1 1 1 1 
1 1 1 1 1 1 1 1 1 
1 1 1 1 1 1 1 1 1 
1 1 1 1 1 1 1 1 1 
1 1 1 1 1 1 1 1 1 
1 1 1 1 1 1 1 1 1 
1 1 1 1 1 1 1 1 1 
1 1 1 1 1 1 1 1 1 
1 1 1 1 1 1 1 1 1 
1 1 1 1 1 1 1 1 1 
1 1 1 1 1 1 1 1 1 
1 1 1 1 1 1 1 1 1 
1 1 1 1 1 1 1 1 1 
1 1 1 1 1 1 1 1 1 
1 1 1 1 1 1 1 1 1 
1 1 1 1 1 1 1 1 1 
1 1 1 1 1 1 1 1 1 
1 1 1 1 1 1 1 1 1 
1 1 1 1 1 1 1 1 1 
1 1 1 1 1 1 1 1 1 
1 1 1 1 1 1 1 1 1 
1 1 1 1 1 1 1 1 1 
1 1 1 1 1 1 1 1 1 
1 1 1 1 1 1 1 1 1 
1 1 1 1 1 1 1 1 1 
1 1 1 1 1 1 1 1 1 
1 1 1 1 1 1 1 1 1 

NORMALS Normals float
-0.282182 0.0584685 -0.957578 -0.165148 0.210527 -0.963537 0.0363481 0.0624336 -0.997387 
0.188023 -0.334462 -0.923462 -0.507751 -0.152995 -0.84781 -0.361984 -0.173749 -0.915849 
-0.379553 0.113041 -0.918238 0.36715 -0.256103 -0.89421 -0.583068 0.313148 -0.749647 
0.161892 0.238678 -0.957509 -0.381704 0.307191 -0.871743 -0.130706 -0.439399 -0.888732 
0.129483 0.373639 -0.918492 -0.355101 0.646547 -0.675189 0.165617 0.467942 -0.868102 
-0.205663 -0.837005 -0.507076 -0.573196 -0.405783 -0.71189 -0.698485 -0.297756 -0.650738 
-0.534933 -0.401305 -0.743506 -0.121371 -0.592316 -0.796511 -0.350092 -0.325155 -0.87847 
-0.229591 -0.304485 -0.924433 -0.651714 0.0911369 -0.752969 -0.461519 -0.0618065 -0.884975 
-0.293468 -0.16617 -0.941416 -0.598175 0.588433 -0.543998 0.45032 0.237963 -0.860573 
-0.0821496 0.624169 -0.776958 0.253182 0.527661 -0.810847 -0.620371 -0.781877 -0.0617033 
-0.188357 -0.975476 -0.113879 -0.315076 -0.789045 -0.527386 -0.379402 -0.617252 -0.689242 
0.388245 -0.539815 -0.746904 0.0487936 -0.659044 -0.75052 -0.817878 0.42272 -0.390364 
-0.612979 0.633342 -0.472371 -0.11212 0.799189 -0.59053 0.108255 0.789042 -0.604726 
-0.528571 -0.746721 0.403758 -0.212368 -0.921172 -0.326102 -0.054885 -0.934204 -0.352493 
0.212483 -0.76891 -0.603016 -0.556238 -0.604478 -0.570269 0.00264214 -0.88626 -0.463181 
0.129613 -0.728734 -0.672419 0.543371 -0.678182 -0.49479 -0.755301 -0.420873 -0.50238 
0.624911 -0.52238 -0.580178 -0.845702 -0.533541 -0.0110617 -0.789598 -0.261199 -0.555257 
-0.899504 -0.200518 -0.388182 -0.723893 0.0572235 -0.687535 0.478172 0.446173 -0.756493 
-0.12644 -0.988397 0.0841738 -0.163765 -0.986144 0.0264844 -0.273549 -0.84109 0.466625 
-0.00523039 -0.973662 -0.227938 0.0217688 -0.999589 0.0186546 0.0351884 -0.945676 -0.323202 
0.324881 -0.833692 -0.446554 0.0577626 -0.92356 -0.379078 0.567989 -0.740401 -0.359436 
-0.750328 -0.645819 0.141162 -0.933639 0.117175 -0.338508 -0.802368 0.429091 -0.414834 
0.562621 -0.214545 -0.798391 -0.593533 0.775532 -0.215104 -0.566861 0.749357 -0.342247 
0.649895 0.213993 -0.729276 0.430709 0.644323 -0.631931 -0.125693 -0.979217 0.159172 
0.0452977 -0.995553 -0.0825948 0.113824 -0.988534 -0.0992196 0.508667 -0.79349 -0.334114 
0.326881 -0.935343 -0.13521 -0.167289 -0.947661 0.271943 0.483178 -0.844113 -0.232404 
-0.54056 -0.549376 0.637166 -0.594857 -0.492675 0.635151 -0.693406 -0.429951 0.578213 
-0.975113 -0.137514 0.17391 -0.902703 0.387695 0.186601 -0.92846 0.371027 0.0173445 
-0.7716 0.635969 -0.0132962 -0.68043 0.717534 -0.148864 -0.0592445 -0.971588 0.229143 
0.0123386 -0.962407 0.27133 0.135123 -0.9886 0.0664179 -0.231544 -0.838899 0.492581 
-0.0868635 -0.933435 0.348072 0.124474 -0.958612 0.256063 0.299378 -0.949994 0.0887979 
0.366495 -0.926947 -0.0803147 -0.190518 -0.53662 0.822035 0.581179 -0.784994 -0.214513 
-0.303971 -0.388057 0.870065 -0.796917 0.084117 0.598204 -0.660614 -0.102581 0.743684 
0.578473 -0.16363 -0.799121 0.566552 -0.533959 -0.62762 0.664136 -0.435326 -0.607795 
-0.584761 -0.10657 0.804175 -0.84276 0.422681 0.33331 -0.891148 0.0150018 0.453464 
-0.459227 -0.110582 0.881409 0.582769 -0.176699 -0.793195 -0.618792 -0.0905448 0.78032 
-0.495117 0.0023676 0.868823 -0.855937 0.503019 0.119763 -0.303759 -0.271534 0.913236 
-0.73105 0.655001 -0.191152 -0.734686 0.665236 -0.133031 -0.0280689 -0.858671 0.511759 
0.27914 -0.937109 0.20954 -0.171729 -0.636297 0.752088 -0.228834 -0.510607 0.828803 
-0.201971 -0.315159 0.927299 0.662101 -0.475375 -0.579345 0.669315 -0.0391692 -0.741945 
-0.23621 -0.683282 -0.690891 -0.575805 0.566204 -0.589797 0.284379 0.280982 -0.916612 
0.913289 -0.306117 -0.268691 -0.747505 0.284585 0.600206 0.467247 0.878648 -0.0982791 
-0.742316 0.373624 0.556212 0.835578 -0.0575275 -0.546352 -0.77311 0.412229 0.482045 
-0.205037 -0.168966 0.964059 0.815583 0.243437 -0.52494 -0.721086 0.692554 0.0200999 
-0.726602 0.681909 -0.0839577 -0.656028 0.754166 0.0293313 -0.655728 0.754263 -0.0333024 
0.107707 0.878703 -0.465058 0.13406 -0.892726 0.430196 0.425273 -0.887716 0.176361 
0.545492 -0.554393 -0.628559 0.750759 -0.521385 -0.40561 0.791343 -0.296527 -0.534647 
0.259816 -0.906645 0.3324 -0.834544 -0.547873 0.0580652 0.574964 0.369659 0.729909 
-0.413431 0.769395 0.486936 -0.614868 0.198766 0.763171 -0.77912 0.547908 0.304581 
-0.323024 -0.170647 0.930879 -0.711821 0.636733 0.296448 0.538244 0.674229 -0.505676 
-0.354256 0.867618 -0.348915 0.104182 -0.842213 0.528984 0.267017 -0.888272 0.373732 
0.54067 -0.83238 -0.121737 0.753237 -0.65743 0.0205045 0.918205 -0.328496 -0.221335 
0.928119 -0.306233 -0.2117 -0.198039 -0.182262 0.9631 0.936869 0.192071 -0.292207 
-0.756423 0.562754 0.333364 -0.753918 0.648149 0.107284 -0.858122 0.508737 0.0693735 
-0.280959 0.920824 -0.270454 -0.222991 -0.590811 0.775382 0.415796 -0.868344 0.270355 
0.970942 -0.23386 -0.0508118 0.992724 -0.109045 0.0510621 0.996414 -0.00824758 -0.084211 
0.954041 0.211632 -0.212176 -0.968024 0.148846 0.201928 -0.732435 0.0548721 0.678622 
-0.547808 -0.236667 0.802431 -0.624539 0.754629 -0.201212 0.331118 0.897434 -0.291502 
-0.277636 0.954712 -0.10697 -0.338105 0.90915 -0.24317 -0.44712 0.866026 -0.223793 
-0.0527134 0.924081 -0.378543 0.187471 -0.723696 0.664167 0.437734 -0.790145 0.429023 
0.781499 -0.592684 0.194897 0.8703 -0.482379 0.099438 0.885746 -0.189247 0.423839 
0.996612 0.033159 0.0752647 0.942062 0.31354 -0.119212 0.811581 0.458544 -0.362042 
0.481407 0.837024 -0.260075 -0.827295 -0.153107 0.5405 -0.855107 0.488602 0.173379 
-0.725866 0.53071 0.437568 -0.572538 0.80112 0.174377 -0.676326 0.699114 0.231998 
-0.828296 0.560014 0.0175994 0.36601 0.909176 -0.198584 -0.372694 0.826208 -0.422468 
0.0304189 -0.710847 0.702689 -0.00249695 -0.625807 0.779974 0.469543 -0.690941 0.549664 
0.355821 -0.576651 0.735435 0.670097 -0.602827 0.433093 0.738277 -0.472565 0.48128 
-0.779862 0.224303 0.584383 -0.651987 -0.152575 0.742721 0.366546 0.920301 -0.136709 
-0.667866 0.199406 0.717072 -0.72079 0.0248172 0.692709 -0.868505 -0.00457603 0.495659 
-0.215709 0.697139 -0.683716 -0.588464 -0.610241 0.530392 -0.815071 0.0871063 -0.572776 
-0.903529 0.317714 -0.287564 -0.696021 -0.407213 0.591382 -0.337955 0.56766 -0.750699 
-0.170054 0.758558 -0.629024 0.113077 -0.469972 0.875408 0.206223 -0.505511 0.837813 
0.573855 -0.370104 0.730557 0.440046 -0.367114 0.819504 -0.150103 -0.376903 0.914009 
-0.00614578 -0.427205 0.904134 0.760705 0.641182 -0.101064 0.221943 0.966505 0.128873 
0.497654 0.85604 -0.13977 -0.280659 -0.250638 0.926505 -0.441094 0.301706 0.845228 
-0.0454217 0.958433 -0.281679 0.0735482 0.886119 -0.457585 0.0502419 0.983784 0.172174 
0.0966646 0.972356 -0.212556 0.0118913 0.896329 0.443229 0.017467 -0.364213 0.931152 
0.913795 0.358554 0.190833 0.853105 0.516892 0.0709551 -0.118189 0.726648 0.676768 
-0.571116 0.657699 -0.491181 0.320434 0.947115 -0.0171641 0.232186 0.953904 -0.19015 
0.130618 0.897357 0.421533 -0.130203 0.512067 0.84902 0.0368673 0.81246 0.581851 
-0.164367 0.471158 0.866599 -0.394978 0.153571 0.905764 -0.253825 0.558949 0.789398 
0.422843 -0.366271 0.828884 0.830995 -0.199781 0.519167 0.528682 -0.203545 0.824054 
0.768885 0.0476885 0.637606 0.855759 0.141185 0.497738 -0.116485 -0.0812106 0.989867 
0.147124 -0.232707 0.961354 -0.0614546 0.305666 0.950153 -0.765854 -0.233568 0.599094 
-0.214119 -0.131671 0.967892 0.691852 0.713545 0.110429 -0.227203 -0.542934 0.808456 
-0.0121809 -0.910952 0.412332 -0.30779 -0.447888 -0.839441 -0.425722 -0.90474 -0.0143673 
-0.404807 -0.1919 0.894039 0.43853 0.892606 -0.104625 0.264164 0.754094 -0.601299 
0.477082 0.866233 0.148437 0.7563 0.654103 -0.0126685 -0.329234 0.0225014 0.94398 
-0.066159 0.896634 0.437801 -0.323335 0.410225 0.852743 -0.209996 0.589575 0.779938 
0.111662 -0.247468 0.96244 0.324303 -0.227141 0.918278 0.110658 -0.0742259 0.991083 
0.6622 0.14891 0.734383 -0.394281 -0.570406 0.720541 0.522179 0.804676 0.282534 
0.526555 0.604562 0.597699 0.694054 0.516347 0.501672 -0.217283 -0.574446 0.789177 
-0.385145 -0.888446 0.249652 0.600074 0.784172 -0.158071 -0.34301 -0.201039 0.917566 
-0.149441 -0.381084 0.912383 0.376886 0.858339 0.348153 -0.359127 0.213894 0.908448 
-0.643362 -0.223273 0.73228 -0.430585 -0.591886 0.681372 0.71215 0.700328 0.0488146 
0.0446626 0.880989 0.471024 0.0306797 -0.694008 -0.719313 -0.51723 0.768036 -0.377616 
0.0318901 -0.484845 -0.874019 0.314829 -0.799943 -0.510856 -0.155933 0.950477 0.268847 
0.171038 0.705372 0.687893 0.27169 0.232551 0.933865 0.56864 0.206912 0.796139 
0.324933 0.612412 0.720673 0.208283 0.34622 0.91474 0.397893 0.64835 0.649094 
-0.115318 -0.131587 0.984574 0.298367 0.28246 0.911698 0.439466 0.897435 -0.0384589 
0.383329 0.874098 0.298348 -0.314379 0.147316 0.937797 0.0311608 -0.789784 -0.612593 
-0.601457 -0.131664 -0.787981 0.211379 -0.870907 -0.443666 -0.8473 0.373107 0.377987 
-0.310227 0.789074 0.530209 0.0963686 0.158426 0.982657 0.128761 0.778451 0.614357 
0.370761 0.713816 0.59414 -0.226914 0.784782 0.576738 0.049939 -0.754396 -0.654518 
0.724656 0.369794 -0.581487 -0.201113 0.39032 -0.898445 0.411965 0.892846 0.181961 
0.190361 -0.560311 -0.80611 0.993894 0.108971 -0.0173373 0.121366 0.686419 -0.717007 
0.218014 0.230918 -0.948234 -0.307497 0.149549 -0.939724 0.544404 0.678402 -0.493352 
0 -0.159641 -0.987175 0 -1 0 -0.963361 -0.268207 4.13429e-08 
0.116553 0.92885 -0.351643 0.963361 -0.268207 4.13429e-08 0 0.5547 -0.83205 
-0.20888 -0.262961 -0.941924 0.0579941 0.903623 -0.424384 0.678412 -0.253376 -0.689607 
0.0755021 0.211694 -0.974415 0.371322 0.366789 -0.852987 0.708637 0.70554 -0.00692701 
-0.0683482 -0.00445354 -0.997652 -0.0517872 0.200014 -0.978423 0.17441 0.605884 -0.776199 
0.224755 0.5962 -0.770734 0.384989 0.591476 -0.708477 0.0667036 0.0357025 -0.997134 
0.362366 0.780372 -0.509618 0.347297 0.794751 -0.49775 -0.327339 0.251887 -0.910715 
0.384211 0.907128 -0.171757 0 -0.159641 0.987175 0.604512 -0.119971 -0.78751 
0.375999 -0.153134 -0.913879 -0.185101 -0.170872 -0.96775 0.123514 -0.227275 -0.965966 
0.510735 0.0510924 -0.858219 0.717369 0.220734 -0.660802 0.787252 0.127331 -0.603342 
-0.0109959 -0.0353342 -0.999315 0.24662 0.356162 -0.901292 0.746682 0.171744 -0.642628 
0.648049 0.758606 -0.0674505 0.790903 0.526282 -0.312248 0.792402 0.391948 -0.467414 
-0.234093 -0.140916 -0.961948 0.566383 0.759157 -0.320765 0.383295 0.919146 -0.0908626 
-0.231463 0.460846 -0.856765 0.281551 -0.343093 -0.896112 0.519969 -0.280681 -0.806753 
0.605347 -0.258701 -0.752748 0.685908 -0.0669761 -0.724599 -0.0655576 -0.218274 -0.973683 
0.839738 0.141857 -0.524135 -0.209622 -0.236121 -0.948844 -0.331678 -0.185705 -0.924934 
-0.380944 -0.217345 -0.89869 -0.831808 0.178441 -0.525599 -0.502339 0.629769 -0.592492 
-0.525636 -0.269119 -0.80702 -0.381278 -0.0416992 -0.923519 0.134695 0.975513 -0.173872 
-0.0859495 0.695642 -0.713229 -0.0289803 0.79827 -0.601602 -0.00812013 -0.445323 -0.895333 
0.493377 -0.414291 -0.764815 0.372806 -0.511447 -0.774233 0.338104 -0.347906 -0.874441 
0.729723 -0.244106 -0.638683 0.0897629 -0.33661 -0.937356 0.099281 -0.306287 -0.946748 
0.91925 0.108398 -0.378456 0.55218 0.833115 0.0318798 0.44423 0.89518 -0.0362154 
-0.635695 -0.117866 -0.762889 -0.804158 -0.353131 -0.478151 -0.603099 0.431257 -0.671036 
-0.626994 -0.16678 -0.760962 -0.556391 -0.176766 -0.8119 -0.0967604 0.987137 -0.127275 
0.0583968 0.96971 0.237175 -0.267735 0.962331 0.0472966 -0.547626 0.774341 -0.317021 
-0.0778719 0.992269 0.0966325 0.0380655 0.999111 -0.0181112 0.105384 -0.574812 -0.811471 
0.516261 -0.588928 -0.621803 -0.20916 -0.443968 -0.871289 0.783978 -0.387593 -0.484923 
-0.325653 -0.35687 -0.875554 0.996066 -0.021685 -0.0859169 0.978479 0.078746 -0.190732 
0.879651 0.448902 -0.157166 0.795863 0.601915 0.0655783 0.443518 0.870983 0.211378 
-0.969409 0.114919 0.216886 -0.789171 0.599193 0.134823 -0.967626 -0.178487 -0.178445 
-0.847681 -0.219482 -0.482975 -0.137343 0.954286 0.265472 -0.142586 -0.598597 -0.788258 
0.197915 -0.859336 -0.471563 0.315171 -0.645393 -0.695798 0.774597 -0.479349 -0.412581 
0.834128 -0.424216 -0.352521 0.70929 0.665961 0.231091 -0.73692 -0.00510845 -0.67596 
-0.700679 0.695221 -0.160364 -0.521949 0.644759 0.55844 -0.899197 0.437447 -0.00923146 
-0.148773 0.929248 0.338178 0.314183 -0.920619 -0.231841 0.636354 -0.750452 -0.178537 
0.856695 -0.508391 -0.0872524 0.955816 -0.282231 0.0822232 0.992772 -0.119198 0.0140091 
0.933438 0.31163 0.177709 0.771371 0.4359 0.463657 0.756114 0.55431 0.347896 
-0.802646 0.538032 -0.257452 -0.780043 0.252375 -0.572572 0.528437 0.76292 0.372435 
0.509096 -0.853814 0.108735 0.779224 -0.433609 0.452541 0.915213 0.0553464 0.39915 
0.00990495 -0.14659 -0.989148 -0.251179 -0.853633 -0.45631 -0.68324 0.345565 -0.643248 
0.710583 -0.497429 -0.497631 0.939799 0.136983 0.313071 0.336164 0.760744 -0.555214 
-0.791785 0.24225 -0.560705 -0.796607 0.474096 -0.375032 -0.511304 0.241392 -0.824802 
-0.755757 0.377061 -0.535403 -0.602534 0.113635 -0.789962 -0.625584 0.779867 0.0212707 
-0.730729 0.561159 -0.388761 -0.717202 0.637278 -0.281955 -0.769172 0.246745 -0.589484 
0.571377 0.620951 0.536607 -0.764355 0.404047 -0.502501 -0.614545 0.787957 -0.0381922 
-0.235012 0.928881 0.286269 0.196957 0.904907 0.377294 0.101331 0.952567 0.286965 
0.88395 -0.0191904 0.467188 -0.249199 -0.436708 -0.864399 0.306218 -0.836674 0.454101 
-0.678163 -0.545505 0.492462 0.694252 0.39245 0.603323 -0.550814 0.171296 -0.816861 
-0.301605 0.775626 0.554472 -0.783838 0.231454 -0.576218 -0.878538 0.422538 -0.222786 
-0.645613 0.18909 -0.739884 -0.747587 0.66253 -0.0465592 -0.66197 0.538734 -0.521115 
-0.806972 0.4701 -0.357494 0.53072 0.630479 0.56642 0.722855 0.280988 0.63129 
-0.672191 0.734275 -0.0948653 0.430663 0.809024 0.400011 -0.04519 -0.849453 -0.525726 
-0.26811 -0.672753 -0.68958 -0.143091 -0.728904 -0.669495 0.298238 -0.927026 -0.227325 
-0.332855 -0.639689 -0.692824 -0.246654 -0.56169 -0.789725 0.504808 -0.857756 0.0970739 
-0.0309946 -0.431111 -0.901766 -0.68253 -0.564136 -0.464654 -0.323916 -0.493612 -0.807109 
-0.395908 -0.271335 -0.877288 -0.771146 -0.550898 -0.319132 -0.926013 0.10277 -0.363232 
0.0166959 -0.0136679 -0.999767 -0.860106 0.485425 0.15678 -0.769485 0.572638 0.282804 
-0.761903 0.0569951 -0.645179 -0.528349 0.606042 -0.594609 -0.686717 0.533654 -0.493593 
-0.597606 0.393193 -0.698761 -0.66882 0.371251 -0.644091 0.253215 0.701861 0.665788 
-0.0239846 -0.098275 0.99487 -0.804989 0.369464 -0.464207 -0.442143 -0.188395 -0.876936 
-0.746922 0.654882 0.115053 -0.732972 0.67542 0.0809911 -0.489916 0.843002 0.222102 
-0.391054 0.870115 0.299961 -0.110572 -0.985642 -0.127606 0.4966 0.202046 -0.844136 
-0.175147 -0.83982 -0.513834 0.0586232 -0.964458 -0.257651 -0.0323218 -0.963127 -0.267099 
-0.327712 -0.734628 -0.594076 -0.244453 -0.873913 -0.42014 0.293082 -0.946533 -0.134825 
-0.285587 -0.370689 -0.883759 -0.316279 -0.337706 -0.886522 -0.585227 -0.478367 -0.654733 
0.597665 -0.709839 0.372726 -0.280768 -0.457706 -0.843608 -0.611129 -0.540413 -0.578338 
-0.780969 -0.55047 -0.295078 -0.954022 -0.190406 -0.231491 -0.883567 -0.0401352 0.466582 
-0.921826 -0.164968 -0.350745 -0.962347 0.237039 0.133041 -0.223662 -0.000360325 -0.974667 
-0.175554 -0.295624 -0.939035 -0.644146 0.713179 -0.276501 -0.799301 0.577415 -0.16646 
-0.621787 0.514099 -0.590832 -0.609392 0.439807 -0.659705 -0.708311 0.671487 -0.217719 
-0.458444 -0.00811161 -0.888686 -0.397553 -0.299158 -0.867443 0.648506 0.395995 0.650099 
0.408688 0.716175 0.565745 -0.107694 0.899551 0.423332 -0.421217 -0.77344 -0.473674 
-0.191253 -0.470099 -0.861643 -0.499557 -0.829795 -0.248763 0.606149 -0.316141 -0.729821 
-0.13931 -0.404679 -0.903785 0.166557 -0.942536 0.289629 -0.218887 -0.968019 0.122587 
0.182177 -0.929391 0.321006 -0.394177 -0.917881 -0.0460314 0.362629 -0.257626 -0.895616 
0.811056 -0.549 -0.201957 0.806158 -0.564366 0.177763 -0.282981 -0.90617 -0.314289 
-0.231313 -0.953624 -0.192603 -0.430807 -0.576688 -0.694144 -0.553182 -0.67792 -0.484164 
0.170211 -0.441126 -0.881156 0.409506 -0.90371 -0.12495 -0.655788 -0.692042 -0.301695 
0.0763822 -0.70364 -0.70644 -0.258955 -0.734345 -0.627439 -0.342353 -0.701116 -0.625484 
-0.643577 -0.764371 -0.0392981 -0.0518445 -0.746449 -0.66342 -0.851308 -0.524647 0.0044818 
-0.857843 0.49926 0.121838 -0.447235 0.780784 0.436299 0.186404 0.880483 0.435894 
-0.232677 -0.97001 -0.0703081 -0.576773 -0.813456 -0.074981 -0.243422 -0.843665 0.478513 
-0.0802906 -0.945874 0.314445 0.121813 -0.918205 0.376909 -0.399178 -0.765812 -0.504171 
-0.154571 -0.95423 0.256031 -0.158579 -0.88487 0.438015 0.293039 -0.700088 0.651157 
-0.145802 -0.962433 0.229051 0.375726 -0.88459 0.276279 0.260976 -0.950144 -0.17064 
0.156834 -0.972379 0.172866 -0.0958052 -0.978805 -0.181005 0.00759181 -0.947398 0.319966 
0.497342 -0.675516 0.544361 0.14928 -0.924315 -0.351222 -0.73275 -0.61317 0.295128 
-0.851194 -0.239372 0.467086 -0.975894 -0.0478313 0.212939 -0.921521 0.272023 0.277134 
-0.758865 0.610605 0.226464 0.290292 0.680136 0.673161 -0.311042 -0.773395 0.552371 
-0.0247519 -0.893876 0.447631 -0.534798 -0.712247 0.454638 0.0343044 -0.841619 0.538981 
-0.0794455 -0.86379 0.497549 -0.60922 -0.682196 0.404302 0.229191 -0.75175 0.61834 
0.293372 -0.726608 0.621268 -0.628099 -0.650757 0.426622 -0.0243759 -0.787175 0.616248 
0.115165 -0.911998 0.393696 0.0226813 -0.852312 0.522542 0.592343 -0.288968 0.752082 
-0.566102 -0.440711 0.696636 0.0139601 -0.798895 0.601309 0.164684 -0.817526 0.551843 
0.112949 -0.80012 0.58911 -0.801781 0.254135 0.54089 0.0713514 0.75577 0.650938 
-0.159082 -0.715187 0.680589 -0.684455 -0.185079 0.705172 0.0308296 -0.682134 0.730577 
0.0802276 -0.665714 0.741882 -0.710438 0.213862 0.670477 -0.438715 0.630855 0.639962 
0.494264 0.37731 0.783161 -0.48068 -0.494855 0.723924 -0.449342 -0.414269 0.791501 
-0.298331 -0.559934 0.772963 -0.182103 -0.412104 0.892754 0.308436 -0.375091 0.874171 
-0.641217 0.492221 0.588693 0.451522 0.106601 0.885869 0.276002 0.398776 0.874529 
-0.441945 -0.240663 0.864156 -0.520494 -0.0504325 0.852374 -0.0454875 -0.415987 0.908232 
0.357444 0.0821425 0.930315 -0.588327 0.313349 0.745443 -0.542051 0.516951 0.662527 
-0.157016 0.637026 0.754681 0.230119 0.524205 0.819911 -0.438821 0.15897 0.884401 