# vtk DataFile Version 4.2
vtk output
ASCII
DATASET POLYDATA
POINTS 280 float
380.174 139.144 214.271 380.762 139.32 214.249 380.826 139.264 214.31 
380.214 139.606 214.2 379.978 139.556 214.234 380.507 139.56 214.206 
380.873 139.391 214.295 379.831 139.671 214.304 379.823 139.879 214.36 
380.67 139.772 214.283 380.905 139.533 214.329 380.238 140.076 214.327 
380.429 140.105 214.344 380.522 140.238 214.46 380.957 139.915 214.605 
380.856 140.155 214.639 379.613 138.818 214.67 379.472 138.982 214.721 
379.891 138.874 214.45 379.984 138.728 214.526 380.353 138.88 214.449 
379.671 139.216 214.432 380.914 139.322 214.4 380.908 139.262 214.546 
379.38 139.53 214.639 379.192 139.623 214.87 380.953 139.458 214.392 
379.108 139.925 215.028 379.591 139.757 214.495 380.056 140.29 214.495 
379.265 140.401 214.993 379.625 140.56 214.801 379.689 138.689 214.745 
379.634 138.677 214.909 379.871 138.631 214.676 380.056 138.618 214.646 
379.965 138.569 214.8 380.211 138.643 214.672 379.359 139.012 214.929 
380.468 138.777 214.856 379.166 139.418 214.988 381.037 139.573 214.888 
381.085 139.847 215.005 378.936 140.297 215.53 381.071 140.136 215.134 
379.009 140.6 215.596 379.262 140.659 215.166 379.577 140.765 214.984 
381.001 140.456 215.282 379.19 140.79 215.435 380.247 141.143 215.351 
380.667 141.027 215.464 380.856 140.811 215.463 380.315 141.317 215.645 
380.548 141.219 215.628 379.544 138.766 215.067 379.893 138.589 215.002 
379.82 138.684 215.257 380.033 138.628 215.157 380.404 138.772 215.108 
379.075 139.491 215.293 378.959 139.808 215.486 378.918 140.824 216.098 
379.36 141.062 215.604 380.909 140.963 215.872 380.207 138.724 215.294 
379.152 139.43 215.811 380.755 139.273 215.578 378.903 139.945 215.842 
378.84 140.269 216.025 381.066 140.146 215.717 378.825 140.594 216.236 
381.063 140.482 215.858 380.807 141.2 216.087 379.124 141.323 216.436 
379.413 141.455 216.289 380.211 141.644 216.279 380.407 141.565 216.21 
380.477 141.585 216.404 379.546 139.129 215.975 379.964 138.914 215.729 
380.188 138.856 215.575 378.809 140.724 216.586 380.847 141.128 216.484 
379.812 141.692 216.554 379.944 141.746 216.764 380.185 141.728 216.693 
380.393 141.646 216.622 379.659 139.204 216.116 379.912 139.134 216.035 
379.51 139.449 216.307 380.118 139.351 216.232 380.642 139.417 215.995 
380.554 139.559 216.248 379.176 140.022 216.628 380.841 139.823 216.172 
380.762 139.843 216.327 380.949 140.737 216.446 378.823 141.159 217.073 
380.88 140.952 216.576 380.655 141.333 216.671 378.927 141.436 217.092 
379.834 141.73 216.996 380.457 141.553 216.764 379.397 139.77 216.559 
379.655 139.719 216.592 379.799 140.003 216.83 378.922 140.754 217.029 
380.431 140.146 216.782 380.808 140.327 216.596 380.712 140.428 216.753 
378.838 141.276 217.287 380.772 140.995 216.749 380.671 140.915 216.853 
378.873 141.409 217.387 378.933 141.509 217.306 378.992 141.599 217.327 
378.977 141.58 217.399 379.059 141.62 217.315 379.549 141.656 217.139 
379.801 141.667 217.143 380.313 141.591 216.936 379.009 141.617 217.383 
379.966 141.705 217.06 379.341 140.521 217.114 379.661 140.361 217.051 
379.187 140.946 217.354 380.532 140.418 216.864 378.995 141.174 217.426 
379.103 141.197 217.515 379.178 141.159 217.509 379.382 141.14 217.423 
379.168 141.239 217.54 379.79 140.947 217.271 380.408 140.65 216.996 
378.881 141.309 217.431 379.117 141.348 217.499 378.944 141.41 217.522 
379.113 141.264 217.558 380.068 141.115 217.193 380.417 140.948 217.017 
378.892 141.415 217.49 378.971 141.488 217.458 379.1 141.508 217.457 
379.301 141.536 217.368 379.68 141.52 217.269 379.076 141.586 217.397 
379.126 141.225 217.56 378.896 141.382 217.514 379.583 139.97 239.267 
379.519 139.77 239.346 379.631 139.761 239.315 379.221 139.928 239.515 
379.614 140.249 239.234 380.092 140.465 239.189 380.707 140.236 239.312 
380.811 140.328 239.363 379.422 140.711 239.429 379.993 140.744 239.247 
380.841 140.479 239.41 380.947 140.539 239.594 379.156 140.848 239.761 
379.613 140.962 239.469 380.774 141.006 239.587 379.832 141.181 239.572 
380.365 141.229 239.541 380.618 141.178 239.579 379.449 139.242 239.811 
379.921 139.155 239.759 379.066 139.853 239.742 379.804 139.672 239.353 
380.315 139.334 239.673 380.283 139.518 239.51 380.956 140.143 239.594 
378.893 140.38 240.017 378.958 140.9 240.342 379.459 141.243 240.019 
380.392 141.426 239.735 380.541 141.503 239.891 380.701 141.419 239.884 
379.436 138.895 240.343 379.774 138.99 239.967 379.888 138.86 240.166 
379.114 139.291 240.105 378.975 139.452 240.157 380.649 139.387 239.861 
380.834 141.352 240.052 380.685 141.51 240.084 378.895 139.462 240.416 
380.519 138.944 240.503 380.866 139.32 240.289 380.91 139.258 240.527 
380.979 139.412 240.425 378.726 140.375 240.783 381.14 140.71 240.636 
378.846 140.907 241.042 380.955 141.219 240.322 378.982 141.074 240.863 
379.616 141.435 240.665 380.46 141.652 240.363 379.537 138.587 240.974 
380.398 138.768 240.801 380.13 138.594 241.015 380.418 138.718 241.083 
380.98 139.354 240.639 378.757 139.743 240.93 379.323 141.314 241.227 
380.256 141.597 240.761 380.421 141.658 240.565 380.477 141.612 240.729 
380.727 141.496 240.594 380.569 141.62 240.551 379.481 138.535 241.292 
379.28 138.697 241.38 379.642 138.45 241.496 379.898 138.456 241.214 
379.801 138.419 241.412 380.025 138.462 241.259 379.959 138.432 241.428 
380.108 138.495 241.359 380.562 138.818 241.516 381.114 139.822 241.386 
381.158 140.159 241.39 379.1 141.096 241.596 378.959 140.998 241.633 
378.881 140.936 241.559 379.574 141.242 241.644 380.111 141.384 241.451 
380.47 141.487 241.021 379.476 138.56 241.809 379.413 138.712 241.975 
380.828 139.239 241.797 381.027 140.49 241.81 378.914 140.88 241.717 
379.448 140.884 242.128 379.815 141.126 241.899 380.35 141.345 241.419 
380.747 140.905 241.854 379.587 138.578 241.957 379.45 138.853 242.246 
380.291 138.773 242.177 380.419 138.883 242.249 379.158 139.173 242.2 
380.61 139.094 242.253 380.781 139.359 242.386 380.913 139.569 242.267 
379.048 140.148 242.453 379.091 140.292 242.441 379.164 140.169 242.562 
380.994 140.202 242.142 378.993 140.544 242.122 379.087 140.451 242.315 
379.287 140.37 242.52 380.792 140.723 242.07 379.597 138.926 242.441 
379.903 138.94 242.545 379.196 139.33 242.417 379.386 139.28 242.61 
379.931 139.178 242.865 380.917 139.736 242.42 379.336 140.07 242.693 
380.863 140.194 242.441 379.477 140.21 242.728 380.771 140.376 242.453 
379.751 140.421 242.666 380.244 139.247 243.028 380.113 139.241 243.007 
380.415 139.406 243.031 379.987 139.388 243.043 380.835 139.77 242.6 
380 139.59 243.089 380.126 139.664 243.12 380.354 139.802 243.022 
380.775 139.952 242.654 379.649 140.233 242.778 380.193 139.349 243.105 
380.316 139.333 243.08 380.31 139.462 243.113 380.275 139.633 243.112 
381.071 140.136 215.134 
POLYGONS 550 2200
3 0 1 20 
3 20 1 2 
3 3 0 4 
3 1 0 5 
3 5 0 3 
3 10 1 5 
3 6 2 1 
3 10 6 1 
3 4 7 3 
3 3 7 11 
3 5 3 11 
3 10 5 9 
3 9 5 11 
3 11 7 8 
3 11 12 9 
3 10 9 15 
3 15 9 12 
3 14 26 10 
3 15 14 10 
3 15 12 13 
3 18 20 19 
3 16 18 19 
3 19 20 37 
3 17 38 24 
3 16 17 21 
3 18 16 21 
3 0 18 4 
3 0 20 18 
3 20 2 37 
3 2 22 23 
3 21 17 24 
3 18 21 4 
3 22 6 26 
3 2 6 22 
3 26 23 22 
3 21 24 28 
3 28 24 25 
3 7 28 8 
3 7 4 28 
3 4 21 28 
3 6 10 26 
3 28 25 30 
3 30 25 27 
3 8 28 29 
3 28 30 29 
3 8 29 11 
3 11 13 12 
3 29 13 11 
3 26 14 41 
3 27 43 30 
3 29 30 31 
3 13 29 31 
3 13 31 47 
3 50 13 47 
3 15 13 50 
3 51 15 50 
3 48 15 51 
3 32 34 33 
3 34 35 36 
3 33 34 36 
3 36 35 37 
3 16 32 33 
3 16 33 17 
3 17 33 38 
3 34 32 16 
3 19 34 16 
3 35 34 19 
3 37 35 19 
3 24 38 40 
3 2 39 37 
3 2 23 39 
3 24 40 25 
3 40 60 25 
3 23 26 41 
3 25 60 27 
3 60 43 27 
3 41 14 42 
3 42 14 44 
3 46 30 43 
3 46 43 45 
3 46 47 30 
3 47 31 30 
3 14 15 44 
3 44 15 48 
3 46 45 49 
3 52 48 51 
3 51 50 53 
3 54 51 53 
3 33 36 56 
3 56 36 37 
3 55 79 38 
3 55 38 33 
3 33 79 55 
3 57 79 33 
3 56 57 33 
3 58 57 56 
3 37 58 56 
3 59 37 39 
3 40 66 60 
3 66 40 38 
3 23 59 39 
3 41 59 23 
3 60 61 43 
3 42 279 48 
3 43 69 45 
3 69 62 45 
3 45 62 63 
3 49 45 63 
3 47 46 49 
3 47 49 63 
3 47 63 53 
3 47 53 50 
3 52 54 64 
3 51 54 52 
3 72 48 52 
3 64 72 52 
3 53 77 54 
3 38 79 66 
3 58 65 57 
3 37 65 58 
3 65 37 59 
3 81 65 59 
3 60 66 61 
3 41 67 59 
3 67 41 70 
3 70 41 42 
3 61 68 43 
3 68 69 43 
3 42 48 70 
3 70 48 72 
3 69 71 62 
3 71 82 62 
3 54 73 64 
3 73 72 64 
3 75 62 74 
3 63 62 75 
3 63 75 84 
3 53 63 76 
3 63 84 76 
3 77 53 76 
3 54 77 73 
3 76 86 87 
3 77 76 87 
3 78 77 87 
3 73 77 78 
3 65 80 57 
3 57 80 79 
3 65 81 80 
3 59 92 81 
3 92 59 67 
3 61 66 68 
3 66 69 68 
3 92 67 70 
3 72 73 97 
3 82 98 62 
3 98 114 62 
3 83 97 73 
3 62 114 74 
3 75 74 84 
3 84 86 76 
3 85 86 84 
3 83 73 78 
3 79 80 89 
3 88 79 89 
3 79 90 66 
3 88 90 79 
3 89 90 88 
3 91 90 89 
3 80 91 89 
3 92 91 80 
3 92 80 81 
3 66 94 107 
3 66 107 69 
3 92 95 93 
3 92 70 95 
3 69 107 71 
3 96 95 70 
3 96 70 109 
3 109 70 72 
3 71 107 82 
3 72 97 109 
3 82 107 98 
3 83 100 112 
3 99 97 83 
3 112 99 83 
3 74 114 101 
3 74 101 84 
3 102 85 84 
3 83 78 100 
3 100 78 103 
3 85 102 123 
3 86 85 123 
3 87 86 123 
3 103 78 87 
3 123 103 87 
3 90 104 66 
3 104 90 105 
3 90 91 105 
3 91 92 93 
3 105 91 93 
3 107 94 124 
3 104 94 66 
3 105 94 104 
3 106 94 105 
3 108 106 105 
3 105 93 108 
3 93 95 96 
3 93 96 108 
3 109 108 96 
3 110 109 99 
3 99 109 97 
3 107 135 98 
3 135 111 98 
3 112 113 99 
3 98 111 114 
3 112 100 113 
3 100 121 113 
3 101 114 115 
3 116 115 117 
3 116 101 115 
3 118 101 116 
3 118 84 101 
3 102 84 119 
3 84 118 119 
3 120 102 119 
3 100 103 121 
3 116 117 122 
3 118 116 122 
3 102 120 123 
3 121 103 123 
3 94 106 125 
3 124 94 125 
3 125 106 108 
3 124 126 107 
3 125 133 124 
3 133 126 124 
3 108 134 125 
3 108 109 127 
3 134 108 127 
3 109 110 127 
3 126 128 135 
3 107 126 135 
3 129 126 130 
3 129 128 126 
3 130 131 132 
3 130 126 131 
3 126 133 131 
3 110 113 127 
3 127 113 134 
3 110 99 113 
3 128 148 135 
3 148 136 137 
3 148 128 136 
3 138 136 129 
3 129 136 128 
3 132 136 138 
3 132 131 136 
3 131 145 136 
3 133 145 131 
3 125 139 133 
3 139 145 133 
3 134 140 125 
3 140 139 125 
3 113 140 134 
3 141 142 114 
3 141 114 135 
3 135 114 111 
3 137 142 141 
3 137 136 142 
3 136 143 142 
3 145 144 136 
3 144 143 136 
3 139 121 145 
3 140 121 139 
3 140 113 121 
3 114 142 115 
3 117 115 142 
3 117 142 146 
3 146 142 143 
3 118 146 144 
3 144 146 143 
3 119 118 144 
3 145 119 144 
3 120 119 145 
3 120 145 121 
3 117 146 122 
3 118 122 146 
3 120 121 123 
3 130 147 129 
3 130 132 147 
3 138 129 147 
3 132 138 147 
3 135 148 141 
3 137 141 148 
3 150 149 151 
3 150 152 153 
3 150 153 149 
3 151 149 153 
3 153 154 170 
3 151 153 170 
3 170 154 155 
3 157 153 152 
3 155 154 156 
3 162 153 157 
3 154 153 158 
3 158 153 162 
3 156 154 158 
3 159 156 163 
3 159 163 160 
3 162 157 161 
3 162 161 164 
3 158 162 164 
3 156 158 165 
3 166 156 165 
3 163 156 166 
3 150 170 167 
3 170 171 168 
3 167 170 168 
3 150 167 169 
3 151 170 150 
3 171 170 172 
3 171 172 185 
3 150 169 152 
3 155 172 170 
3 155 185 172 
3 152 169 157 
3 169 174 157 
3 156 173 155 
3 157 174 161 
3 174 175 161 
3 156 159 160 
3 156 160 173 
3 161 175 176 
3 164 161 176 
3 177 164 178 
3 177 165 164 
3 165 158 164 
3 165 179 166 
3 177 179 165 
3 166 179 163 
3 179 177 178 
3 167 181 182 
3 180 167 182 
3 168 181 167 
3 181 168 171 
3 181 171 182 
3 169 167 184 
3 184 167 183 
3 171 185 182 
3 184 174 169 
3 173 185 155 
3 173 160 194 
3 163 186 196 
3 194 160 163 
3 196 194 163 
3 164 176 199 
3 199 178 164 
3 163 179 186 
3 179 178 187 
3 187 186 179 
3 182 200 180 
3 180 200 213 
3 188 183 180 
3 183 167 180 
3 189 182 190 
3 189 190 191 
3 183 188 184 
3 182 185 190 
3 192 191 190 
3 192 190 185 
3 184 188 174 
3 188 193 174 
3 192 185 173 
3 174 193 175 
3 193 195 175 
3 175 195 197 
3 176 175 197 
3 176 197 198 
3 199 176 207 
3 176 198 207 
3 208 199 207 
3 196 186 211 
3 187 178 211 
3 178 199 211 
3 211 186 187 
3 189 201 202 
3 189 202 182 
3 182 202 200 
3 202 201 203 
3 213 188 180 
3 189 191 201 
3 191 204 201 
3 191 192 204 
3 204 192 221 
3 188 205 193 
3 192 173 221 
3 221 173 194 
3 205 195 193 
3 194 210 237 
3 196 210 194 
3 206 197 195 
3 197 206 198 
3 207 209 208 
3 196 211 210 
3 208 209 211 
3 208 211 199 
3 212 214 213 
3 212 215 214 
3 214 215 216 
3 215 217 218 
3 216 215 218 
3 218 217 219 
3 200 212 213 
3 215 212 200 
3 202 215 200 
3 217 215 202 
3 202 203 220 
3 202 220 219 
3 202 219 217 
3 203 201 220 
3 201 204 220 
3 221 220 204 
3 188 213 205 
3 221 194 222 
3 205 233 195 
3 223 224 233 
3 194 237 222 
3 233 225 195 
3 223 206 224 
3 223 226 206 
3 225 224 195 
3 206 195 224 
3 198 206 226 
3 227 198 226 
3 227 228 198 
3 198 228 207 
3 209 207 228 
3 209 228 210 
3 210 211 209 
3 214 229 213 
3 229 214 238 
3 216 238 214 
3 218 240 238 
3 218 238 216 
3 229 230 213 
3 220 240 218 
3 220 218 219 
3 231 220 221 
3 222 231 221 
3 250 223 233 
3 234 223 250 
3 232 222 237 
3 224 225 233 
3 223 234 235 
3 226 223 235 
3 227 226 235 
3 227 235 236 
3 235 237 236 
3 236 237 210 
3 227 236 228 
3 210 228 236 
3 213 230 239 
3 238 230 229 
3 238 239 230 
3 240 239 238 
3 239 242 213 
3 240 243 241 
3 220 243 240 
3 245 244 243 
3 245 243 231 
3 231 243 220 
3 231 222 245 
3 213 242 205 
3 242 246 205 
3 245 222 249 
3 246 248 247 
3 246 250 205 
3 247 251 246 
3 251 250 246 
3 252 247 248 
3 251 247 252 
3 222 232 249 
3 205 250 233 
3 250 264 234 
3 250 252 264 
3 250 251 252 
3 264 237 234 
3 237 263 253 
3 253 263 249 
3 253 249 237 
3 237 249 232 
3 237 235 234 
3 239 240 255 
3 254 239 255 
3 255 240 265 
3 240 241 265 
3 242 239 254 
3 242 254 256 
3 256 254 257 
3 258 255 265 
3 258 257 255 
3 257 254 255 
3 243 244 265 
3 243 265 241 
3 256 246 242 
3 257 246 256 
3 258 268 257 
3 244 269 267 
3 244 245 269 
3 245 259 269 
3 259 245 249 
3 260 248 246 
3 259 249 261 
3 248 260 252 
3 260 262 252 
3 261 249 263 
3 264 252 262 
3 237 264 263 
3 258 265 266 
3 265 244 267 
3 246 257 260 
3 257 268 270 
3 260 257 270 
3 258 266 268 
3 274 260 270 
3 271 274 270 
3 272 267 269 
3 273 272 269 
3 259 261 273 
3 269 259 273 
3 260 274 262 
3 272 274 271 
3 273 263 272 
3 273 261 263 
3 264 262 274 
3 272 264 274 
3 263 264 272 
3 265 275 266 
3 275 265 276 
3 265 267 276 
3 266 275 268 
3 276 277 275 
3 276 267 277 
3 268 275 270 
3 271 270 275 
3 271 275 278 
3 278 275 277 
3 267 272 278 
3 277 267 278 
3 272 271 278 

POINT_DATA 280
SCALARS scalars float
LOOKUP_TABLE default
1 1 1 1 1 1 1 1 1 
1 1 1 1 1 1 1 1 1 
1 1 1 1 1 1 1 1 1 
1 1 1 1 1 1 1 1 1 
1 1 1 1 1 1 1 1 1 
1 1 1 1 1 1 1 1 1 
1 1 1 1 1 1 1 1 1 
1 1 1 1 1 1 1 1 1 
1 1 1 1 1 1 1 1 1 
1 1 1 1 1 1 1 1 1 
1 1 1 1 1 1 1 1 1 
1 1 1 1 1 1 1 1 1 
1 1 1 1 1 1 1 1 1 
1 1 1 1 1 1 1 1 1 
1 1 1 1 1 1 1 1 1 
1 1 1 1 1 1 1 1 1 
1 1 1 1 1 1 1 1 1 
1 1 1 1 1 1 1 1 1 
1 1 1 1 1 1 1 1 1 
1 1 1 1 1 1 1 1 1 
1 1 1 1 1 1 1 1 1 
1 1 1 1 1 1 1 1 1 
1 1 1 1 1 1 1 1 1 
1 1 1 1 1 1 1 1 1 
1 1 1 1 1 1 1 1 1 
1 1 1 1 1 1 1 1 1 
1 1 1 1 1 1 1 1 1 
1 1 1 1 1 1 1 1 1 
1 1 1 1 1 1 1 1 1 
1 1 1 1 1 1 1 1 1 
1 1 1 1 1 1 1 1 1 
1 
NORMALS Normals float
-0.054423 -0.301564 -0.951892 0.260475 -0.214696 -0.941307 0.5933 -0.621565 -0.511519 
-0.0949151 0.112127 -0.989151 -0.382137 -0.135549 -0.914111 0.13056 0.0813497 -0.988097 
0.673843 -0.163091 -0.72065 -0.3918 0.122117 -0.91191 -0.428615 0.368649 -0.824856 
0.303026 0.306175 -0.902459 0.569822 0.206771 -0.795329 -0.064768 0.384989 -0.920646 
0.25788 0.447118 -0.856495 0.138026 0.661566 -0.737075 0.904064 0.202136 -0.376577 
0.62765 0.492237 -0.603124 -0.583185 -0.551074 -0.596836 -0.771653 -0.39801 -0.496124 
-0.272654 -0.432641 -0.859349 -0.101519 -0.661895 -0.742691 0.167391 -0.608837 -0.775434 
-0.565052 -0.19614 -0.801402 0.843639 -0.407345 -0.349776 0.838041 -0.543948 -0.0425256 
-0.760254 -0.11924 -0.638589 -0.832819 0.0372562 -0.55229 0.936845 -0.104454 -0.333784 
-0.891936 0.0579137 -0.448438 -0.632951 0.144621 -0.760564 -0.319854 0.514545 -0.795573 
-0.663446 0.30207 -0.684538 -0.294275 0.549717 -0.781802 -0.537269 -0.748925 -0.387884 
-0.557696 -0.828488 -0.0508313 -0.321661 -0.82354 -0.467243 0.0356903 -0.864952 -0.500584 
-0.0488603 -0.992017 -0.116251 0.365817 -0.910961 -0.190599 -0.842618 -0.515807 -0.154721 
0.631353 -0.773028 -0.0618136 -0.874824 -0.377621 -0.303457 0.953381 -0.301749 0.00354084 
0.990988 -0.0855893 0.103042 -0.931699 0.116934 -0.343895 0.890833 0.311649 -0.330591 
-0.863478 0.393875 -0.31507 -0.731385 0.447265 -0.51481 -0.351243 0.700231 -0.621534 
0.942938 0.307393 -0.127974 -0.680934 0.609205 -0.406445 0.196934 0.771686 -0.604746 
0.523831 0.672349 -0.523018 0.793972 0.527504 -0.302237 0.0723372 0.85642 -0.511187 
0.56294 0.726312 -0.394422 -0.665192 -0.726914 0.170635 -0.0412529 -0.984427 0.170884 
-0.18614 -0.900542 0.392907 0.146132 -0.951251 0.2716 0.6126 -0.753597 0.238354 
-0.941337 -0.249992 -0.226689 -0.9635 -0.225311 -0.144578 -0.853873 0.420732 -0.306408 
-0.469937 0.771189 -0.42945 0.845849 0.489761 -0.211362 0.248364 -0.903136 0.350228 
-0.786651 -0.555618 0.269201 0.799356 -0.537797 0.267964 -0.966405 -0.254222 0.0378396 
-0.997792 -0.0652142 -0.0125571 0.96308 -0.181555 0.198783 -0.994411 -0.100507 -0.0323277 
0.986342 0.159241 0.0420858 0.828052 0.547362 -0.121346 -0.741714 0.584063 -0.329743 
-0.497353 0.780335 -0.379102 0.0657503 0.941791 -0.329708 0.383314 0.871552 -0.305724 
0.669843 0.742092 -0.0246927 -0.41824 -0.794462 0.440347 0.104979 -0.835219 0.539804 
0.367132 -0.797976 0.477963 -0.991923 -0.11886 0.0442907 0.882008 0.436229 0.178231 
-0.247292 0.940407 -0.233414 -0.0113561 0.999794 -0.0167921 0.175661 0.983714 -0.038071 
0.433317 0.900378 0.0394357 -0.102188 -0.730148 0.675605 0.0356958 -0.749226 0.661352 
-0.267134 -0.673086 0.689634 0.188517 -0.714487 0.673773 0.580304 -0.66928 0.464017 
0.434126 -0.624691 0.649073 -0.409815 -0.574277 0.708702 0.813438 -0.424412 0.397736 
0.739896 -0.38752 0.549892 0.973704 0.110779 0.199068 -0.998103 -0.00416231 0.0614285 
0.872899 0.0252109 0.487249 0.754862 0.483393 0.443299 -0.736323 0.598258 -0.316094 
-0.104628 0.98167 0.159303 0.634269 0.736465 0.235208 -0.427548 -0.604018 0.672581 
-0.01826 -0.613931 0.789148 -0.0415745 -0.585748 0.809426 -0.779315 -0.456338 0.429445 
0.334031 -0.504956 0.795891 0.789029 -0.294799 0.539005 0.680994 -0.229131 0.695519 
-0.980462 -0.0612977 0.186916 0.783344 0.226741 0.578758 0.649926 0.0231585 0.759645 
-0.939736 0.341473 -0.0170831 -0.861911 0.505221 0.0431357 -0.642069 0.745051 -0.180683 
-0.63276 0.592715 0.498302 -0.0714899 0.997062 0.0275232 -0.0163958 0.91296 0.40772 
0.150288 0.687238 0.710716 0.548087 0.39658 0.736428 -0.237278 0.915349 0.325323 
0.28752 0.890919 0.351561 -0.197312 -0.532047 0.823403 0.10479 -0.421641 0.900687 
-0.253058 -0.605761 0.754331 0.485894 -0.344294 0.803348 -0.565711 -0.466575 0.67991 
-0.653136 -0.363738 0.664159 0.118972 -0.526921 0.841546 0.375813 -0.112665 0.919821 
0.480654 0.125523 0.86788 0.232638 -0.264265 0.935972 0.347947 -0.213917 0.912783 
-0.877127 -0.335056 0.344072 0.0732202 0.238462 0.968388 -0.128735 0.408278 0.903735 
-0.378933 0.199393 0.903688 0.405287 -0.050461 0.912796 0.413661 -0.0206682 0.910196 
-0.784803 0.44862 0.42758 -0.36897 0.622416 0.69026 0.124021 0.452218 0.883243 
0.251808 0.660759 0.7071 0.288384 0.353183 0.889998 0.125327 0.707052 0.695968 
-0.086857 -0.346311 0.93409 -0.500192 -0.176833 0.847666 -0.292098 -0.153516 -0.943987 
-0.501621 -0.413982 -0.759602 -0.0176554 -0.352349 -0.935702 -0.685669 -0.101469 -0.720807 
-0.268935 0.0287122 -0.96273 0.101832 0.0433464 -0.993857 0.404501 -0.29998 -0.863939 
0.452277 0.168288 -0.875856 -0.653004 0.211999 -0.727078 -0.0355376 0.377047 -0.925512 
0.609691 0.220602 -0.761323 0.904547 0.132389 -0.4053 -0.674232 0.533487 -0.510688 
-0.367008 0.497124 -0.78624 0.730461 0.362599 -0.578748 -0.294937 0.78889 -0.539133 
0.152182 0.56253 -0.812651 0.376276 0.482131 -0.79118 -0.445254 -0.646467 -0.61954 
-0.00643394 -0.714996 -0.699098 -0.778526 -0.237643 -0.580881 -0.00860625 -0.489344 -0.872049 
0.246785 -0.723494 -0.644713 0.309556 -0.527064 -0.791441 0.884657 -0.220285 -0.410922 
-0.918222 0.0541457 -0.392348 -0.845063 0.48333 -0.228604 -0.46077 0.848896 -0.258972 
0.0543079 0.807741 -0.587031 0.15263 0.934016 -0.322983 0.506824 0.67519 -0.535956 
-0.540426 -0.766123 -0.347845 -0.0746007 -0.839955 -0.537504 0.0854088 -0.886855 -0.454085 
-0.693614 -0.603617 -0.393123 -0.82559 -0.349562 -0.442953 0.590202 -0.581736 -0.559683 
0.796727 0.570724 -0.198746 0.527216 0.826018 -0.199341 -0.895348 -0.401132 -0.193507 
0.445236 -0.809278 -0.38319 0.636723 -0.650199 -0.414518 0.739497 -0.653683 -0.16076 
0.898706 -0.357188 -0.25445 -0.992961 0.0794238 -0.0878687 0.978277 0.20503 -0.0306086 
-0.915997 0.397045 0.0574944 0.86575 0.487409 -0.113615 -0.651788 0.753937 -0.0821625 
-0.280015 0.955302 0.0948106 -0.100067 0.978903 -0.178144 -0.300859 -0.892804 -0.335239 
0.612487 -0.773545 -0.162751 0.319554 -0.902211 -0.289657 0.571023 -0.816105 -0.08891 
0.853392 -0.52123 -0.00644332 -0.983888 -0.128638 0.124167 -0.470153 0.872089 0.135713 
-0.236115 0.960529 0.147085 0.00724924 0.995297 0.0965942 0.271026 0.910521 0.312244 
0.681565 0.68812 0.248916 0.504261 0.863548 -0.00241204 -0.440844 -0.887211 -0.136063 
-0.786394 -0.617382 0.0205789 -0.339914 -0.940377 0.0122035 -0.0551294 -0.955501 -0.28979 
-0.0673599 -0.997483 0.0221345 0.312642 -0.929698 -0.194721 0.261957 -0.957521 0.12055 
0.522132 -0.852486 -0.0254069 0.696277 -0.715608 0.0557068 0.971614 -0.236041 0.0158338 
0.98969 0.0602814 0.129926 -0.362819 0.769992 0.524857 -0.599429 0.753099 0.271157 
-0.906642 0.38805 0.165585 -0.182527 0.912689 0.365625 0.00666704 0.932236 0.361789 
0.182822 0.896383 0.403824 -0.54075 -0.806948 0.237538 -0.7378 -0.575793 0.352297 
0.88869 -0.426722 0.167743 0.897637 0.40558 0.172493 -0.851876 0.315174 0.418298 
-0.18539 0.70851 0.680914 -0.00226252 0.7867 0.617331 0.365173 0.795905 0.482891 
0.54635 0.689129 0.476029 -0.15899 -0.895935 0.414755 -0.479331 -0.731353 0.485145 
0.338022 -0.880103 0.333405 0.645964 -0.732456 0.21503 -0.831459 -0.425001 0.357841 
0.756517 -0.630457 0.173799 0.779628 -0.520021 0.34894 0.917413 -0.340182 0.206469 
-0.850796 0.0126267 0.525344 -0.65171 0.395471 0.647207 -0.578676 0.246629 0.777373 
0.931961 0.210578 0.295136 -0.628005 0.551465 0.549087 -0.615409 0.545278 0.569161 
-0.387166 0.591515 0.707257 0.642522 0.602542 0.473401 -0.465786 -0.649696 0.600781 
-0.14766 -0.817026 0.557373 -0.760276 -0.398496 0.513012 -0.556205 -0.382446 0.737815 
-0.292841 -0.710732 0.639612 0.929835 -0.0335873 0.36644 -0.515682 0.0931197 0.851705 
0.84928 0.222806 0.478624 -0.368671 0.416193 0.831183 0.489079 0.559406 0.669228 
-0.103584 0.676407 0.729208 0.313457 -0.772172 0.552716 -0.225158 -0.657937 0.718626 
0.711867 -0.240789 0.659746 -0.418869 -0.380361 0.824545 0.819274 -0.137626 0.556641 
-0.405548 -0.0131348 0.913979 -0.0693693 0.223396 0.972256 0.380747 0.355982 0.85341 
0.762265 0.194977 0.6172 -0.218256 0.374144 0.901322 -0.0923536 -0.293325 0.951542 
0.398025 -0.466472 0.789924 0.345229 -0.0758358 0.935449 0.301317 0.134647 0.943969 
0.0879688 -0.403181 0.910882 
