# vtk DataFile Version 4.2
vtk output
ASCII
DATASET POLYDATA
POINTS 812 float
404.749 127.867 186.04 404.609 127.875 186.03 404.933 127.86 186.06 
404.589 127.87 186.042 404.497 127.872 186.043 403.994 127.913 186.004 
405.478 127.833 186.125 405.293 127.832 186.11 406.243 127.838 186.227 
406.021 127.825 186.196 406.64 127.844 186.29 407.074 127.876 186.372 
403.684 127.966 185.996 403.089 128.047 185.989 404.285 127.9 186.018 
404.894 127.864 186.064 407.477 127.947 186.478 400.524 128.676 186.102 
401.574 128.39 186.036 402.657 128.148 185.998 403.3 128.034 185.992 
403.976 127.948 186.01 405.456 127.868 186.136 397.597 129.721 186.447 
397.428 129.789 186.476 397.085 129.937 186.533 398.353 129.424 186.338 
398.28 129.439 186.344 399.45 129.024 186.204 400.173 128.787 186.132 
400.965 128.556 186.071 401.908 128.318 186.022 402.889 128.115 185.998 
396.77 130.078 186.594 396.363 130.274 186.69 397.476 129.781 186.474 
397.956 129.584 186.396 398.632 129.323 186.303 399.559 128.991 186.194 
400.382 128.727 186.116 401.246 128.484 186.056 402.131 128.269 186.015 
402.826 128.128 186.001 396.615 130.168 186.646 403.613 127.96 185.997 
404.048 127.915 186.024 403.247 128.015 185.998 404.691 127.866 186.068 
407.298 127.904 186.425 407.581 127.966 186.514 402.629 128.113 185.992 
408.265 128.104 186.71 409.079 128.285 186.965 409.651 128.43 187.162 
399.047 129.138 186.242 398.539 129.329 186.305 399.811 128.879 186.161 
400.639 128.622 186.092 401.504 128.385 186.037 396.667 130.128 186.622 
397.062 129.95 186.549 396.316 130.29 186.699 397.902 129.587 186.401 
403.293 128.059 186.012 405.498 127.942 186.208 407.08 128.044 186.49 
408.297 128.224 186.781 395.671 130.602 186.854 395.785 130.54 186.822 
395.164 130.844 186.98 397.957 129.586 186.399 398.239 129.475 186.36 
398.935 129.214 186.27 399.801 128.912 186.172 400.564 128.673 186.106 
401.541 128.406 186.042 402.389 128.215 186.013 408.893 128.343 186.948 
394.568 131.145 187.146 394.535 131.154 187.156 394.011 131.419 187.311 
395.036 130.917 187.018 395.499 130.696 186.904 395.949 130.482 186.799 
396.684 130.142 186.641 397.595 129.741 186.466 392.927 131.973 187.68 
392.512 132.181 187.84 393.671 131.597 187.42 393.405 131.724 187.515 
394.072 131.399 187.291 394.424 131.226 187.191 394.742 131.07 187.105 
395.222 130.833 186.978 392.436 132.224 187.871 392.293 132.294 187.93 
392.053 132.418 188.043 392.672 132.107 187.778 393.115 131.884 187.611 
393.645 131.618 187.428 393.806 131.54 187.378 394.06 131.412 187.306 
392.703 132.096 187.774 393.117 131.888 187.615 393.355 131.769 187.532 
402.192 128.207 186.003 403.989 127.965 186.05 403.101 128.07 186.015 
408.935 128.248 186.923 409.447 128.37 187.091 398.928 129.185 186.26 
398.417 129.379 186.326 399.543 128.966 186.19 400.298 128.724 186.12 
401.144 128.481 186.06 403.625 128.021 186.036 402.806 128.125 186.013 
404.738 127.943 186.121 405.813 127.94 186.257 410.014 128.534 187.305 
410.465 128.675 187.483 410.992 128.861 187.711 411.531 129.075 187.958 
396.415 130.244 186.682 401.061 128.523 186.069 400.356 128.727 186.122 
400.682 128.623 186.095 401.374 128.433 186.051 401.867 128.322 186.029 
402.159 128.248 186.02 402.688 128.156 186.014 408.405 128.232 186.811 
408.875 128.34 186.948 409.104 128.388 187.019 395.283 130.783 186.951 
398.092 129.538 186.389 398.665 129.314 186.309 399.577 128.987 186.199 
409.668 128.545 187.216 410.426 128.778 187.503 410.415 128.776 187.503 
411.971 129.28 188.172 412.069 129.339 188.227 393.907 131.467 187.346 
394.049 131.395 187.311 393.567 131.638 187.464 394.798 131.023 187.089 
395.742 130.581 186.853 396.297 130.319 186.728 397.237 129.898 186.538 
410.901 128.94 187.706 411.412 129.124 187.936 394.523 131.178 187.171 
394.895 130.99 187.07 412.425 129.513 188.433 412.735 129.627 188.584 
391.702 132.594 188.214 391.23 132.836 188.441 393.573 131.66 187.46 
393.942 131.47 187.353 391.519 132.692 188.306 411.147 128.899 187.775 
411.169 128.906 187.787 411.015 128.852 187.718 411.396 129.005 187.905 
400.727 128.606 186.092 401.761 128.33 186.033 402.467 128.177 186.012 
410.649 128.738 187.568 412.05 129.284 188.219 411.724 129.143 188.062 
412.302 129.383 188.361 396.437 130.242 186.69 398.833 129.245 186.287 
399.908 128.865 186.164 409.151 128.389 187.036 409.418 128.464 187.123 
409.745 128.554 187.248 412.205 129.36 188.293 412.798 129.601 188.618 
395.549 130.658 186.892 395.85 130.521 186.826 396.867 130.058 186.611 
397.903 129.614 186.424 410.311 128.737 187.468 410.837 128.913 187.695 
413.108 129.75 188.779 395.061 130.896 187.022 395.34 130.763 186.947 
395.424 130.728 186.93 411.337 129.099 187.917 412.14 129.402 188.32 
394.255 131.305 187.262 394.828 131.017 187.088 412.653 129.611 188.571 
413.152 129.807 188.824 390.862 133.024 188.624 390.761 133.079 188.67 
390.278 133.328 188.904 390 133.473 189.042 390.092 133.426 188.996 
409.478 128.458 187.152 411.563 129.096 188.012 412.049 129.279 188.243 
412.031 129.277 188.243 412.869 129.626 188.68 410.433 128.763 187.53 
411.175 128.993 187.854 413.739 129.999 189.134 414.417 130.278 189.517 
414.212 130.187 189.408 414.598 130.347 189.624 411.335 129.086 187.932 
413.766 130.03 189.146 414.906 130.48 189.802 414.779 130.44 189.724 
393.788 131.532 187.415 394.547 131.153 187.171 395.037 130.911 187.027 
414.975 130.535 189.841 393.086 131.886 187.673 393.384 131.738 187.56 
393.557 131.656 187.497 412.942 129.727 188.741 413.909 130.125 189.257 
414.48 130.353 189.571 392.546 132.169 187.899 393.027 131.925 187.698 
389.794 133.58 189.146 389.832 133.561 189.127 413.15 129.762 188.855 
414.795 130.429 189.741 415.026 130.529 189.883 412.94 129.7 188.749 
415.466 130.718 190.139 413.6 129.983 189.113 415.402 130.715 190.096 
416.411 131.12 190.7 392.618 132.127 187.871 393.128 131.869 187.659 
413.735 130.054 189.179 414.309 130.296 189.498 416.077 131.008 190.508 
416.437 131.145 190.719 390.303 133.31 188.933 390.691 133.102 188.779 
391.329 132.774 188.478 391.947 132.467 188.174 391.409 132.736 188.439 
414.918 130.55 189.852 415.836 130.922 190.379 389.644 133.658 189.234 
389.918 133.514 189.106 389.42 133.777 189.335 389.566 133.7 189.261 
414.017 130.129 189.342 415.135 130.592 189.979 415.48 130.728 190.165 
416.443 131.126 190.726 415.056 130.582 189.949 417.173 131.422 191.156 
417.147 131.426 191.14 418.413 131.907 191.879 418.541 131.962 191.954 
390.983 132.944 188.673 390.851 133.012 188.736 391.142 132.867 188.584 
390.958 132.957 188.689 415.728 130.884 190.335 416.345 131.139 190.69 
416.364 131.153 190.711 417.614 131.633 191.429 418.682 132.031 192.043 
389.383 133.796 189.359 389.48 133.745 189.312 389.621 133.67 189.245 
416.692 131.286 190.901 416.992 131.404 191.075 389.33 133.824 189.383 
389.325 133.826 189.385 389.339 133.819 189.376 389.395 133.79 189.347 
416.929 131.329 191.025 418.204 131.822 191.759 418.513 131.942 191.939 
416.116 131.036 190.57 418.682 132.014 192.039 390.891 132.987 188.736 
416.632 131.264 190.871 416.756 131.31 190.945 417.265 131.507 191.234 
417.669 131.655 191.469 418.171 131.846 191.754 418.571 132.002 191.99 
416.921 131.377 191.038 418.767 132.078 192.103 418.949 132.148 192.209 
416.564 131.209 190.83 418.219 131.831 191.776 418.466 131.924 191.915 
418.686 132.012 192.044 418.869 132.09 192.154 390.853 133.005 188.759 
418.203 131.855 191.779 419.071 132.188 192.279 418.903 132.134 192.186 
419.129 132.226 192.321 418.532 131.955 191.963 418.844 132.079 192.142 
418.98 132.138 192.222 419.059 132.176 192.272 419.126 132.211 192.313 
418.964 132.156 192.224 419.206 132.252 192.364 419.234 132.27 192.383 
419.236 132.269 192.383 419.26 132.28 192.398 418.647 132.007 192.034 
419.163 132.233 192.34 419.242 132.271 192.388 418.571 131.814 264.323 
418.425 131.755 264.42 418.648 131.845 264.274 419.142 132.054 263.959 
419.057 132.017 264.012 419.084 132.028 263.996 419.144 132.058 263.961 
419.165 132.065 263.945 419.15 132.058 263.955 419.174 132.069 263.941 
418.05 131.605 264.668 417.715 131.469 264.893 418.271 131.689 264.522 
418.125 131.629 264.621 418.403 131.741 264.437 418.836 131.926 264.155 
418.656 131.846 264.271 418.983 131.985 264.06 418.857 131.93 264.142 
418.955 131.972 264.081 418.73 131.89 264.23 419.001 132 264.054 
419.091 132.036 263.996 419.149 132.06 263.958 417.151 131.245 265.273 
417.093 131.232 265.309 417.505 131.383 265.04 418.531 131.792 264.356 
418.283 131.692 264.52 417.711 131.487 264.898 418.203 131.683 264.581 
418.569 131.827 264.342 418.968 131.983 264.077 418.944 131.976 264.094 
419.081 132.031 264.004 416.654 131.041 265.609 416.55 130.995 265.688 
390.811 132.987 267.75 390.937 132.918 267.814 417.516 131.422 265.045 
417.891 131.563 264.797 418.3 131.719 264.523 418.684 131.871 264.267 
418.797 131.914 264.192 390.192 133.333 267.434 390.258 133.296 267.469 
390.856 132.966 267.773 390.162 133.35 267.421 414.793 130.27 266.835 
414.384 130.107 267.093 415.232 130.439 266.564 415.652 130.619 266.285 
416.82 131.117 265.518 414.517 130.218 267.016 415.341 130.554 266.48 
417.443 131.388 265.101 417.899 131.561 264.794 418.163 131.659 264.616 
390.486 133.169 267.594 391.116 132.822 267.9 391.183 132.782 267.943 
391.414 132.662 268.042 415.486 130.631 266.403 415.868 130.791 266.16 
416.676 131.113 265.615 390.779 133.015 267.746 390.4 133.221 267.552 
391.277 132.743 267.98 416.22 130.939 265.92 416.428 131.021 265.784 
389.938 133.475 267.326 390.018 133.43 267.359 390.097 133.386 267.395 
389.954 133.466 267.331 390.018 133.431 267.361 413.82 129.845 267.461 
413.805 129.861 267.454 414.333 130.059 267.155 415.302 130.471 266.534 
412.821 129.504 268.031 415.747 130.66 266.235 413.118 129.633 267.865 
416.238 130.9 265.92 391.723 132.493 268.193 392.409 132.136 268.476 
[...]
POINT_DATA 812
SCALARS scalars float
LOOKUP_TABLE default
1 1 1 1 1 1 1 1 1 
1 1 1 1 1 1 1 1 1 
1 1 1 1 1 1 1 1 1 
1 1 1 1 1 1 1 1 1 
1 1 1 1 1 1 1 1 1 
1 1 1 1 1 1 1 1 1 
1 1 1 1 1 1 1 1 1 
1 1 1 1 1 1 1 1 1 
1 1 1 1 1 1 1 1 1 
1 1 1 1 1 1 1 1 1 
1 1 1 1 1 1 1 1 1 
1 1 1 1 1 1 1 1 1 
1 1 1 1 1 1 1 1 1 
1 1 1 1 1 1 1 1 1 
1 1 1 1 1 1 1 1 1 
1 1 1 1 1 1 1 1 1 
1 1 1 1 1 1 1 1 1 
1 1 1 1 1 1 1 1 1 
1 1 1 1 1 1 1 1 1 
1 1 1 1 1 1 1 1 1 
1 1 1 1 1 1 1 1 1 
1 1 1 1 1 1 1 1 1 
1 1 1 1 1 1 1 1 1 
1 1 1 1 1 1 1 1 1 
1 1 1 1 1 1 1 1 1 
1 1 1 1 1 1 1 1 1 
1 1 1 1 1 1 1 1 1 
1 1 1 1 1 1 1 1 1 
1 1 1 1 1 1 1 1 1 
1 1 1 1 1 1 1 1 1 
1 1 1 1 1 1 1 1 1 
1 1 1 1 1 1 1 1 1 
1 1 1 1 1 1 1 1 1 
1 1 1 1 1 1 1 1 1 
1 1 1 1 1 1 1 1 1 
1 1 1 1 1 1 1 1 1 
1 1 1 1 1 1 1 1 1 
1 1 1 1 1 1 1 1 1 
1 1 1 1 1 1 1 1 1 
1 1 1 1 1 1 1 1 1 
1 1 1 1 1 1 1 1 1 
1 1 1 1 1 1 1 1 1 
1 1 1 1 1 1 1 1 1 
1 1 1 1 1 1 1 1 1 
1 1 1 1 1 1 1 1 1 
1 1 1 1 1 1 1 1 1 
1 1 1 1 1 1 1 1 1 
1 1 1 1 1 1 1 1 1 
1 1 1 1 1 1 1 1 1 
1 1 1 1 1 1 1 1 1 
1 1 1 1 1 1 1 1 1 
1 1 1 1 1 1 1 1 1 
1 1 1 1 1 1 1 1 1 
1 1 1 1 1 1 1 1 1 
1 1 1 1 1 1 1 1 1 
1 1 1 1 1 1 1 1 1 
1 1 1 1 1 1 1 1 1 
1 1 1 1 1 1 1 1 1 
1 1 1 1 1 1 1 1 1 
1 1 1 1 1 1 1 1 1 
1 1 1 1 1 1 1 1 1 
1 1 1 1 1 1 1 1 1 
1 1 1 1 1 1 1 1 1 
1 1 1 1 1 1 1 1 1 
1 1 1 1 1 1 1 1 1 
1 1 1 1 1 1 1 1 1 
1 1 1 1 1 1 1 1 1 
1 1 1 1 1 1 1 1 1 
1 1 1 1 1 1 1 1 1 
1 1 1 1 1 1 1 1 1 
1 1 1 1 1 1 1 1 1 
1 1 1 1 1 1 1 1 1 
1 1 1 1 1 1 1 1 1 
1 1 1 1 1 1 1 1 1 
1 1 1 1 1 1 1 1 1 
1 1 1 1 1 1 1 1 1 
1 1 1 1 1 1 1 1 1 
1 1 1 1 1 1 1 1 1 
1 1 1 1 1 1 1 1 1 
1 1 1 1 1 1 1 1 1 
1 1 1 1 1 1 1 1 1 
1 1 1 1 1 1 1 1 1 
1 1 1 1 1 1 1 1 1 
1 1 1 1 1 1 1 1 1 
1 1 1 1 1 1 1 1 1 
1 1 1 1 1 1 1 1 1 
1 1 1 1 1 1 1 1 1 
1 1 1 1 1 1 1 1 1 
1 1 1 1 1 1 1 1 1 
1 1 1 1 1 1 1 1 1 
1 1 
NORMALS Normals float
-0.0837444 -0.871412 0.48335 -0.0837444 -0.871412 0.48335 -0.0837444 -0.871412 0.48335 
0.0435916 -0.489099 -0.871138 -0.0801425 -0.979694 0.183783 -0.0236619 -0.516294 -0.856084 
0.103436 -0.203126 -0.973674 -0.00615634 -0.965987 -0.258517 0.130113 0.392945 -0.91031 
0.128095 0.28138 -0.951008 0.129191 0.394814 -0.909633 0.131682 0.51264 -0.848445 
0.0359479 0.107311 -0.993575 0.015656 0.0765644 -0.996942 -0.114095 -0.965146 0.235533 
0.0916503 0.0425434 -0.994882 0.253218 0.129451 -0.958709 -0.0964925 -0.0921698 -0.991057 
-0.0855821 -0.148812 -0.985155 0.0026359 0.130297 -0.991471 -0.174141 -0.984269 0.0298333 
0.0762106 0.369157 -0.926237 -0.0410982 -0.924307 0.379432 -0.255294 -0.260765 -0.931035 
-0.410036 -0.76315 -0.499472 -0.274496 -0.832943 0.480476 0.000963723 0.333869 -0.942619 
-0.156962 -0.0202719 -0.987397 -0.0247276 0.235741 -0.971501 -0.126098 -0.623295 0.771753 
-0.262876 -0.964815 -0.00528098 0.015359 0.225271 -0.974175 0.0608946 0.389104 -0.919179 
-0.350356 -0.886036 0.303628 -0.308515 -0.851878 0.423228 -0.186226 -0.712622 0.676381 
-0.153689 -0.658868 0.736392 -0.192734 -0.731874 0.653616 -0.157969 -0.676965 0.718863 
-0.106579 -0.575167 0.811063 -0.0869383 -0.519029 0.850324 -0.0925286 -0.54077 0.836066 
-0.168985 -0.921816 0.348854 -0.209253 -0.746825 0.631241 0.119101 0.9285 0.351715 
0.110637 0.823689 -0.556144 0.127773 0.783034 -0.608714 0.0896008 0.784487 -0.613638 
0.333059 -0.68685 -0.645994 0.101065 -0.94266 0.318086 0.10492 0.702151 0.704255 
0.27769 0.0337568 -0.960077 0.347834 -0.209226 -0.913912 0.290808 0.193041 -0.937105 
-0.0301794 0.213978 -0.976372 -0.192652 -0.157687 -0.968514 -0.0472551 0.147458 -0.987939 
-0.0708538 0.0070515 -0.997462 -0.111697 -0.202584 -0.972874 -0.44409 -0.880941 -0.163481 
-0.367292 -0.909485 0.194763 -0.357011 -0.897886 0.257572 -0.402894 -0.849864 -0.339717 
-0.133058 -0.817197 0.56079 0.116239 0.568523 -0.814414 0.119342 0.536075 -0.835692 
-0.177263 0.984127 -0.00845888 -0.0582085 -0.548716 0.83398 0.472551 0.828221 0.301239 
0.292093 0.0793444 0.953093 -0.267494 -0.847175 0.459065 -0.290742 -0.879181 0.377505 
-0.333119 -0.939883 0.0751833 -0.197747 -0.345102 -0.917497 -0.253109 -0.932608 0.257251 
-0.0273884 0.0765539 -0.996689 -0.188454 -0.948116 0.256048 0.0600003 0.710914 -0.700714 
0.107057 -0.327362 0.938815 0.495414 0.686173 0.532664 0.365282 0.15201 0.918402 
0.0675581 -0.36527 0.928447 -0.161202 -0.692533 0.703145 0.315095 0.861116 -0.398992 
-0.318264 -0.873205 0.36908 -0.282604 -0.848307 0.447784 0.425549 0.191976 0.884338 
0.54031 0.71372 0.445722 0.407381 0.223653 0.885449 0.50513 0.533127 0.67869 
0.226241 -0.136645 0.964439 0.00744695 -0.490557 0.871377 -0.45777 -0.88742 -0.054159 
-0.462513 -0.878538 -0.119389 0.000999746 -0.625549 0.780184 0.559108 0.633623 0.534715 
0.0241597 -0.658764 0.751962 -0.0543891 -0.680762 0.730482 0.133097 -0.390483 0.910938 
0.131166 -0.350129 0.927472 -0.200611 -0.774869 0.599444 -0.460424 -0.886849 -0.038826 
-0.307597 -0.885777 0.347537 -0.217079 -0.817658 0.53321 -0.215071 -0.805056 0.552837 
0.0320314 0.283808 -0.958346 0.0903404 0.443841 -0.89154 0.0636561 0.306127 -0.94986 
-0.0365365 -0.77929 0.625597 0.340734 -0.885659 -0.315451 0.199486 0.742434 -0.639529 
0.0923641 0.555718 -0.826224 -0.122537 -0.053096 -0.991043 -0.0673 0.0527394 -0.996338 
-0.25668 -0.853732 -0.453053 -0.115095 -0.768692 0.629178 0.0311129 0.161991 -0.986302 
-0.0641813 -0.881091 0.468571 0.113873 0.530551 -0.839969 0.211694 -0.957756 0.194653 
0.456178 -0.360972 -0.813389 0.385514 0.0788175 -0.919329 0.47627 -0.153071 -0.865873 
0.354384 0.894342 -0.273065 -0.0862644 -0.0949593 -0.991736 -0.0923121 -0.0212258 -0.995504 
-0.162899 -0.306571 -0.937805 -0.125922 -0.288699 -0.949103 -0.0686172 -0.117105 -0.990746 
-0.0224403 0.0204013 -0.99954 0.0273582 0.168734 -0.985282 -0.309164 0.345403 0.886067 
-0.350001 0.652791 0.671836 -0.283173 -0.0782482 0.955871 0.465247 0.873984 0.140347 
-0.376822 -0.926043 -0.0211864 -0.365022 -0.761663 -0.535377 -0.320698 -0.946246 0.0420943 
-0.41302 0.756396 0.507228 0.149511 0.56201 -0.813505 -0.333328 0.939814 0.0751119 
0.389828 0.144046 -0.909552 0.299298 0.353297 -0.886342 0.512237 0.681359 0.522842 
0.408028 0.902104 -0.140431 0.476214 0.87455 0.091555 0.343962 0.880787 -0.325429 
-0.270518 -0.0989197 -0.957619 -0.260988 -0.0890919 -0.961222 -0.393734 -0.919076 0.0165259 
-0.206903 0.939026 -0.274628 -0.102643 0.867291 -0.487105 -0.501018 -0.736855 -0.453902 
-0.372325 -0.255575 -0.892219 -0.0159351 0.805962 -0.591752 0.234641 0.523597 -0.819018 
0.569352 0.514582 0.641127 0.544442 0.334265 0.769317 -0.466443 -0.883032 -0.0518179 
-0.520614 -0.698342 -0.491202 -0.366555 -0.910755 0.190165 0.463113 -0.123145 -0.877702 
0.249343 -0.939477 0.234971 0.477921 -0.558885 -0.677671 0.525387 -0.730815 -0.435749 
-0.0732459 -0.0110495 -0.997253 0.043824 0.332674 -0.942023 0.0251597 0.195774 -0.980326 
0.0215732 -0.81597 0.577692 0.55228 -0.536891 -0.637758 0.518557 -0.72649 -0.4509 
0.468931 -0.860643 -0.198488 0.175665 0.696497 -0.695725 -0.0857262 0.110288 -0.990196 
-0.0959933 0.000565518 -0.995382 -0.34834 0.0460469 0.936237 0.332342 -0.0913866 -0.938721 
-0.434477 0.467711 0.769725 0.509846 -0.164238 -0.844442 0.558955 -0.632274 -0.536469 
0.257077 0.809017 -0.528585 0.170666 0.702987 -0.690422 -0.00675832 0.377875 -0.925832 
-0.357445 -0.579857 -0.73212 -0.459956 0.619654 0.635979 -0.463383 0.774778 0.43011 
0.493761 -0.0456163 -0.8684 0.228482 0.78366 -0.577644 -0.261547 -0.0333387 -0.964615 
-0.0429031 0.388756 -0.920341 -0.428232 0.876413 0.220269 -0.495795 0.785518 0.370336 
-0.388571 -0.212598 -0.896557 -0.115155 0.313897 -0.942448 -0.354576 0.934137 -0.0407985 
-0.010945 0.814451 -0.58013 0.541714 0.796769 0.267779 -0.359187 -0.907776 0.216628 
0.558066 0.375155 0.740149 0.546947 0.293504 0.784031 -0.349318 -0.904317 0.24533 
-0.348959 -0.0387219 0.936338 -0.0799136 -0.690071 0.719316 0.203581 -0.917239 0.342386 
-0.0887055 -0.692271 0.716165 0.162852 -0.903147 0.397245 -0.42756 0.163378 0.889101 
-0.273309 -0.394124 0.877478 0.567914 -0.399055 -0.719881 0.566471 -0.321759 -0.758671 
0.439582 -0.889131 -0.12733 0.504733 -0.812775 -0.290931 -0.517144 0.552268 0.653882 
0.414453 0.207419 -0.886119 0.582717 -0.581677 -0.567532 0.483613 0.0628451 -0.873023 
0.371468 0.896893 -0.239989 0.28368 0.843404 -0.456284 -0.220323 0.101427 -0.970139 
0.348742 0.370349 -0.860942 0.151862 0.770906 -0.618581 -0.322263 0.060526 -0.944713 
-0.281738 0.127961 -0.950921 -0.558649 0.592002 0.580899 -0.0942222 0.875288 -0.474334 
0.114852 0.701095 -0.703757 -0.552769 -0.66108 -0.507366 -0.515924 -0.450094 -0.72886 
0.571951 0.405302 0.713163 -0.147321 -0.818759 0.554914 -0.191653 -0.578952 0.792517 
0.469648 -0.866515 -0.169062 0.27091 -0.937603 0.217966 -0.47721 0.0277453 0.878351 
0.437665 -0.893831 -0.0975458 -0.531585 0.139155 0.835496 0.33953 0.403194 -0.849796 
0.577058 -0.287384 -0.764471 -0.0545325 0.570906 -0.819202 -0.206182 0.315227 -0.926348 
-0.505186 0.810244 0.297138 -0.257814 0.937853 -0.232303 0.133984 0.702811 -0.698645 
0.256632 0.544763 -0.798357 0.504432 0.85532 0.118222 0.511761 0.843659 0.162297 
0.345574 0.914523 -0.210302 -0.217421 0.401496 -0.889679 -0.580874 -0.517808 -0.62806 
-0.272679 0.941153 -0.199692 -0.0042292 0.825792 -0.563959 0.501518 0.858887 0.103885 
0.493841 0.865743 0.0813027 0.0236314 -0.673133 0.739144 0.577391 0.442074 0.686433 
-0.325072 -0.387733 0.862549 -0.082806 -0.728135 0.680413 0.0630442 -0.857689 0.510289 
0.422125 -0.902712 -0.0831976 -0.285891 -0.467603 0.836429 0.501718 -0.809403 -0.305198 
0.445981 0.178445 -0.877074 0.5603 -0.238946 -0.793076 0.354926 0.370772 -0.858228 
0.403517 0.911757 -0.0766364 0.517372 0.834409 0.189968 0.136977 0.854492 -0.501079 
0.280521 0.914439 -0.291736 -0.48983 0.838186 0.239815 0.0293765 0.794868 -0.60607 
-0.241062 0.936856 -0.253357 0.0665335 0.780997 -0.620981 0.310927 0.451272 -0.836468 
-0.50221 -0.858701 -0.102068 -0.495144 -0.86485 -0.0828655 -0.551283 -0.777569 -0.302447 
-0.0549292 0.865152 -0.498492 0.0165543 0.821486 -0.569989 -0.480172 -0.876257 -0.040118 
0.462006 0.88677 0.0137507 0.462006 0.88677 0.0137507 0.589487 0.568827 0.573534 
0.0540865 -0.864469 0.499767 0.51967 -0.762282 -0.385837 0.555752 -0.674585 -0.485876 
-0.518702 0.0453225 0.853753 0.541889 -0.0874456 -0.835889 0.494716 0.858646 0.1341 
-0.55323 0.693124 0.462077 -0.540672 0.16537 0.824819 -0.436674 0.878542 0.193596 
-0.538518 0.686748 0.488237 -0.193116 0.938048 -0.287701 -0.426782 0.895569 0.125751 
-0.46982 0.84697 0.24882 0.110435 0.722676 -0.682308 0.162054 0.665871 -0.728254 
-0.365923 -0.34313 0.865079 -0.0120671 -0.824146 0.566249 0.227987 -0.942817 0.243142 
0.399877 -0.915909 -0.0347603 0.576025 -0.662744 -0.478503 0.504349 0.849416 0.155322 
-0.572809 0.443143 0.689575 0.457543 0.18679 -0.869347 -0.301767 0.94469 -0.128443 
-0.0427889 0.852 -0.521791 -0.105023 -0.73014 0.675178 -0.0451115 -0.773013 0.632784 
0.508151 0.0637321 -0.858907 -0.197232 -0.582859 0.788274 0.551831 -0.0600306 -0.831792 
-0.512802 0.0309712 0.857948 0.562007 -0.0702597 -0.824143 0.199794 0.616486 -0.761595 
0.484455 0.14391 -0.862898 -0.442145 -0.197487 0.874932 -0.337017 -0.400625 0.852009 
-0.132947 -0.652406 0.746118 -0.381824 -0.301613 0.873636 -0.59493 0.230082 -0.770143 
-0.47161 -0.217677 -0.854518 -0.243732 -0.598968 -0.762779 -0.0389993 -0.771821 -0.634643 
-0.511075 -0.0797373 -0.85583 0.350036 -0.93283 -0.0854549 -0.415131 0.905545 -0.0874886 
-0.59062 0.607956 -0.530619 0.544874 -0.792671 0.273468 -0.402388 0.911698 -0.0830089 
-0.568866 0.0597084 -0.82026 -0.175455 -0.710806 -0.681153 -0.376628 -0.421782 -0.824773 
-0.0487402 -0.824524 -0.563723 -0.0549653 -0.808722 -0.585617 -0.584965 0.192088 -0.787983 
-0.203628 -0.648681 -0.733313 -0.191244 -0.652644 -0.733132 -0.059115 -0.789574 -0.610802 
0.471403 -0.868819 0.151438 -0.571455 0.682289 -0.455984 -0.442881 0.887245 -0.129042 
0.00202088 0.851373 0.524556 0.417318 0.369504 0.830248 -0.299716 -0.555396 -0.775697 
-0.540985 -0.045936 -0.839777 0.224282 -0.94667 -0.231331 0.446935 -0.886729 0.118153 
0.493185 -0.835809 0.241231 -0.6028 0.518449 -0.606501 -0.508441 0.809941 -0.292376 
-0.255912 0.949636 0.180833 0.612992 -0.50163 0.610417 0.370874 0.432495 0.821827 
0.590384 -0.147436 0.793542 -0.0580945 -0.80909 -0.584806 0.44224 -0.890387 0.107865 
-0.162633 -0.805251 -0.570194 0.00295062 -0.672698 -0.739911 -0.221509 0.953686 0.203512 
0.117216 0.778378 0.616756 0.240498 0.637107 0.732295 0.189202 0.690729 0.697923 
0.610025 -0.288654 0.737935 -0.477505 -0.877123 -0.0514272 -0.494063 -0.869273 0.0163175 
0.526196 0.230136 -0.81863 -0.473924 -0.878427 -0.0613363 -0.320858 -0.489472 -0.810843 
-0.469764 -0.175205 -0.865231 0.220621 -0.935945 -0.274467 0.227417 -0.939942 -0.254538 
0.619326 -0.324202 0.715073 -0.600269 0.508834 -0.617062 -0.608416 0.353322 -0.710629 
0.484638 0.230518 0.843794 0.576665 -0.0826227 0.812792 0.611275 -0.337035 0.716066 
-0.495179 -0.868439 0.0247077 0.196152 -0.431378 -0.880589 -0.417714 -0.897135 -0.143748 
0.0501722 -0.599327 -0.798931 -0.449109 0.884955 -0.12311 0.00314741 0.845233 0.534389 
-0.333028 0.9426 0.0244498 0.568438 0.764198 -0.304761 0.576736 0.756178 -0.309146 
0.576739 0.687303 -0.441573 -0.518513 0.802947 -0.293973 0.351447 0.490181 0.797626 
-0.612068 -0.763404 0.206369 -0.474259 -0.879625 -0.0365718 -0.485579 -0.874192 -0.00104501 
-0.403273 -0.888097 -0.220579 0.566921 0.754877 -0.32979 -0.140686 -0.696714 -0.703418 
-0.36749 -0.349988 -0.861661 0.412304 -0.910397 0.0343896 0.610675 -0.5475 0.572118 
-0.541612 0.301173 -0.784826 0.56254 -0.738677 0.371357 -0.559398 0.224403 -0.797946 
0.593803 -0.131445 0.793801 -0.31315 -0.880462 -0.355983 0.297265 -0.169612 -0.939609 
-0.327551 -0.880098 -0.343713 0.154112 -0.372629 -0.915094 -0.486841 0.842965 -0.2289 
-0.486319 0.849885 -0.202952 0.493444 0.19619 0.847362 0.36262 0.443394 0.8197 
0.452483 0.117587 -0.883987 0.545283 0.774315 -0.321096 0.545501 0.688228 -0.4783 
-0.149301 0.920467 0.361179 0.0787538 0.784927 0.614563 0.236935 0.633046 0.736963 
-0.600456 -0.722944 0.341767 0.532095 0.817423 -0.22067 -0.594668 -0.749807 0.290104 
-0.622956 -0.727233 0.288198 -0.672319 -0.211719 0.709339 0.407131 -0.115313 0.906061 
0.389015 -0.361832 0.847198 0.0792703 -0.92376 -0.374679 0.545533 -0.351833 0.760663 
-0.141112 -0.593045 -0.792707 0.259081 -0.935175 -0.241505 0.281624 -0.934638 -0.217117 
0.462231 -0.874898 0.144553 0.592816 -0.431794 0.679796 -0.120818 -0.688878 -0.714738 
0.60439 -0.420071 0.676944 -0.427511 -0.153017 -0.890966 -0.329372 -0.877326 -0.349016 
-0.23136 -0.808574 -0.541 -0.102159 -0.661272 -0.743157 -0.530193 0.705123 -0.470846 
0.553435 -0.0236473 0.832556 0.486815 0.129497 0.863853 0.316136 -0.0455716 -0.947619 
0.359836 0.107931 -0.926752 -0.0334986 0.857525 0.51335 0.248673 0.592311 0.766374 
0.540693 0.0357276 0.840461 0.523006 0.779133 -0.345567 0.210739 0.868907 0.447872 
-0.633448 -0.52846 0.56522 0.37381 0.903299 0.210518 0.355658 0.906352 0.228108 
0.362333 -0.0627954 0.929931 0.146361 -0.980925 -0.127928 0.473208 -0.15883 0.866514 
0.0518643 -0.826517 -0.560518 0.333026 -0.937414 -0.101728 0.565664 -0.426504 0.705775 
-0.0158229 -0.506554 -0.862063 -0.0332921 -0.517815 -0.854845 0.0169702 -0.418034 -0.908273 
-0.0537332 -0.544424 -0.837087 0.174267 -0.00535142 -0.984684 -0.0654704 -0.585933 -0.80771 
0.140531 -0.237162 -0.961252 0.00616746 -0.460474 -0.887652 0.413495 0.899353 -0.142078 
0.402139 0.881213 -0.248492 -0.220286 -0.426007 -0.877492 -0.366098 0.91714 -0.157564 
-0.485775 0.231271 -0.842933 0.25759 -0.0689639 -0.96379 0.477596 0.632075 -0.610232 
0.424661 0.905245 -0.0139264 0.429941 0.89121 -0.144551 -0.406898 0.901644 -0.146534 
0.454654 0.184079 0.871438 0.511982 0.742347 -0.432198 -0.277445 0.944371 0.1766 
0.186599 0.602812 0.775756 -0.0306487 0.846603 0.531342 -0.62438 -0.635224 0.454576 
0.113442 0.826894 0.550798 -0.0222724 -0.79619 -0.604637 -0.140686 -0.744318 -0.652839 
-0.0569602 -0.367113 -0.928431 -0.124708 -0.408364 -0.90426 0.175046 -0.984555 -0.00317191 
0.168918 -0.981051 -0.0948959 -0.0302118 -0.776242 -0.62971 0.358821 -0.632877 0.686087 
0.303179 -0.920157 0.247776 0.374186 -0.287458 0.881676 -0.427728 -0.852035 0.301802 
-0.0796331 -0.588335 -0.804687 -0.0656077 -0.542185 -0.837694 -0.0416017 -0.446412 -0.89386 
-0.0295487 -0.367939 -0.92938 -0.157954 -0.772861 -0.614603 -0.0158759 -0.246059 -0.969125 
-0.131372 -0.139592 -0.981456 -0.166758 0.270514 -0.948164 -0.189746 0.593353 -0.782259 
-0.230908 0.421493 -0.876941 -0.188566 -0.333309 -0.923768 0.486138 -0.0329876 0.873259 
-0.349815 -0.892873 -0.28356 -0.450899 -0.628194 0.634084 -0.442051 -0.496588 0.746988 
-0.281903 -0.856933 -0.431506 0.0959661 0.0472206 -0.994264 0.109706 0.218602 -0.969627 
-0.0512689 0.956717 0.286469 -0.165175 0.986264 0.00100789 -0.228242 0.915511 -0.331277 
-0.309819 0.196838 -0.930197 0.273875 0.359362 0.892105 -0.484708 -0.851748 0.198954 
0.421655 0.764555 -0.487506 0.249269 0.208235 -0.945782 0.00357312 -0.393775 -0.9192 
0.0190159 -0.285133 -0.958299 0.148615 0.28687 -0.946372 0.0691789 0.176977 -0.981781 
-0.262175 0.927274 -0.267258 -0.365163 0.723692 -0.585599 -0.227822 0.965302 0.127631 
0.426102 0.90465 0.00671321 0.409157 0.905108 0.115626 0.296756 0.858183 0.418876 
0.186546 0.746817 0.63833 0.313252 0.907021 0.281402 -0.0882412 0.867723 0.489152 
0.163935 0.584681 0.794527 -0.353347 0.305933 0.884054 -0.514045 -0.848895 0.123025 
0.278693 0.887465 0.367064 -0.150367 -0.959665 -0.237557 -0.188458 -0.923804 -0.333271 
-0.0796032 -0.93761 0.338454 -0.0934639 -0.743893 -0.661731 -0.057154 -0.886964 -0.458289 
0.03021 -0.992685 -0.11689 0.0868124 -0.99536 0.0414987 0.236015 -0.654448 0.718328 
-0.243855 -0.861744 0.444895 0.285262 -0.694597 0.660425 0.333254 -0.620777 0.709632 
0.29927 0.0454983 0.953083 0.237372 0.226237 0.944707 -0.0713569 -0.583605 -0.808896 
-0.121645 -0.671565 -0.730892 -0.124278 -0.679857 -0.722737 -0.307343 -0.951577 0.00640744 
-0.248188 -0.928596 -0.275883 -0.273664 -0.910497 0.310004 -0.034182 0.0513206 -0.998097 
-0.0901743 -0.14211 -0.985735 -0.137303 0.067181 -0.988248 0.295451 0.205568 0.932979 
0.302597 0.261749 0.916473 -0.418864 -0.514531 0.748205 -0.432698 -0.716987 0.546536 
-0.0436306 0.356957 0.933101 -0.0117664 0.390718 0.920435 0.0644838 0.375105 -0.924737 
-0.000570791 0.174186 -0.984713 -0.0475497 0.106405 -0.993185 -0.0778039 -0.0136423 -0.996875 
-0.126311 -0.0494805 -0.990756 -0.302832 0.395479 -0.867116 -0.150927 0.976964 0.150872 
0.0192021 0.769152 0.638778 0.0401392 0.726252 0.686255 -0.0828087 0.332379 0.939504 
-0.220112 0.0343474 0.97487 -0.313031 -0.240107 0.918891 0.183897 0.768956 0.612281 
0.184329 0.828455 0.528852 0.271919 0.911898 -0.307411 0.165688 0.464489 -0.869941 
0.152075 0.694257 -0.703478 -0.506916 -0.757825 0.410778 -0.505173 -0.719737 0.476212 
-0.425934 -0.438912 0.791161 0.319644 0.855139 0.408124 -0.566483 -0.679262 0.466583 
-0.476396 -0.209674 0.853864 -0.539575 -0.781012 0.314452 0.1025 0.628699 0.770864 
0.294905 0.823433 0.484756 -0.231445 0.367495 0.900767 0.213978 0.830919 0.513602 
0.130761 0.751246 0.646939 0.00427971 0.133965 0.990977 0.0266167 -0.0132347 0.999558 
0.073485 0.230769 0.97023 0.0726218 -0.56428 0.822383 0.10559 -0.793667 0.599119 
0.187421 -0.632487 0.751554 -0.0104731 0.118136 0.992942 0.0880033 0.539325 0.837487 
0.117766 0.405387 0.906528 0.149738 0.205409 0.967153 0.219007 -0.101112 0.97047 
0.239048 0.105947 0.96521 -0.0130717 0.356698 0.934128 -0.0905891 0.0959843 0.991252 
-0.252825 -0.660235 0.707227 -0.105009 -0.135179 0.985241 -0.0825497 0.0675788 0.994293 
-0.0284495 0.191699 0.981041 0.149119 0.928593 0.339821 0.171929 0.947333 0.270187 
0.0995998 0.597508 0.795653 0.0617945 0.556446 0.828583 0.129986 0.721663 0.679932 