# vtk DataFile Version 4.2
vtk output
ASCII
DATASET POLYDATA
POINTS 776 float
415.658 174.352 126.07 419.817 173.951 126.341 411.339 175.511 125.969 
412.435 174.855 125.99 417.026 174.781 126.171 409.655 176.427 125.98 
410.39 176.431 125.947 412.554 175.64 125.981 415.395 175.326 126.153 
408.326 177.595 126 415.082 175.72 126.249 418.064 175.825 126.63 
413.161 176.308 126.222 414.98 176.107 126.465 415.973 176.192 126.714 
416.92 176.078 126.742 405.6 179.88 126.336 407.042 179.552 126.174 
407.693 179.33 126.145 409.903 178.498 126.347 404.1 181.165 126.722 
405.541 180.503 126.421 406.728 180.158 126.319 403.896 181.662 126.799 
409.594 179.409 126.779 403.567 181.923 126.915 406.976 180.994 126.813 
408.164 180.317 126.797 404.15 182.395 127.039 413.426 172.296 126.568 
414.726 172.531 126.395 418.032 171.838 126.627 423.626 173.33 127.254 
411.305 174.175 126.224 414.047 176.004 126.269 419.628 176.48 127.228 
421.886 177.063 127.248 417.385 176.384 127.112 425.425 177.623 127.282 
426.097 177.493 127.416 415.335 176.878 127.323 424.837 178.71 127.41 
426.793 178.1 127.651 403.815 179.861 126.941 403.212 180.201 127.203 
424.511 179.662 127.81 426.251 179.208 127.533 426.806 178.965 127.647 
425.142 180.424 127.899 426.447 180.191 127.687 402.391 181.64 127.441 
409.316 179.768 126.971 427.473 180.779 127.992 407.678 180.936 127.142 
426.138 182.239 128.201 402.222 182.807 127.652 401.686 183.102 127.97 
426.464 183.327 128.455 401.696 183.559 128.126 403.169 183.105 127.517 
426.82 183.641 128.481 427.609 183.225 128.494 402.108 183.669 128.058 
426.733 184.194 128.729 426.949 184.557 128.91 422.759 171.45 127.715 
406.225 174.646 127.61 417.954 176.956 128.191 426.495 176.356 127.695 
415.223 177.256 128.042 427.722 178.618 128.119 427.353 179.552 127.871 
424.324 180.189 128.29 407.396 181.64 127.944 400.222 182.94 128.873 
426.144 183.065 128.521 425.814 183.006 128.827 399.564 184.204 129.567 
399.773 184.85 129.586 399.816 185.166 129.728 426.964 185.644 129.603 
426.81 185.911 129.951 427.447 186.014 129.795 423.323 170.26 128.631 
409.265 171.177 128.358 404.778 174.885 128.802 414.711 177.644 128.953 
422.7 178.745 128.471 423.097 179.234 128.739 428.866 178.809 129.089 
424.442 180.934 128.917 400.592 181.94 128.743 425.067 181.666 128.679 
399.722 182.715 129.522 400.232 182.443 128.933 428.386 184.063 129.128 
426.374 184.848 129.453 400.098 185.314 129.721 401.725 184.915 129.253 
399.766 185.416 129.971 399.964 185.55 129.972 426.583 186.007 130.296 
400.064 185.676 130.128 427.073 186.287 130.135 427.542 186.641 130.419 
410.36 169.043 129.693 424.662 169.968 129.667 408.395 170.578 129.578 
426.787 171.871 130.012 404.184 174.732 130.001 418.762 177.351 129.5 
399.726 181.941 130.173 399.761 182.26 129.758 424.798 181.987 129.577 
399.297 183.436 130.093 425.433 183.64 130.064 425.975 184.577 129.797 
398.901 184.922 130.571 398.795 185.062 130.842 402.758 184.733 129.305 
398.862 185.32 130.979 401.232 185.554 130.077 399.049 185.425 130.789 
428.278 186.127 130.254 426.806 186.608 130.848 427.31 187.035 131.016 
427.538 187.2 131.237 427.76 187.079 131.03 410.022 168.022 131.357 
423.305 167.528 131.017 407.785 170.152 130.997 400.942 179.509 130.247 
430.25 182.051 131.047 398.897 184.137 130.858 398.787 184.598 130.855 
398.718 184.865 131.038 429.456 185.279 131.208 399.262 185.766 131.388 
400.04 185.926 130.945 428.361 186.745 130.993 426.937 187.122 131.734 
428.076 186.994 131.121 416.844 165.295 131.535 411.594 167.031 131.418 
412.541 166.289 131.938 410.134 167.76 131.729 406.932 170.577 132.07 
426.73 170.499 131.511 400.552 179.802 131.124 424.248 181.705 130.788 
430.502 181.61 131.647 398.67 184.913 131.449 403.415 184.965 130.414 
425.379 184.504 131.303 430.156 183.673 131.591 398.974 185.63 131.593 
428.804 186.673 131.745 428.151 187.264 131.785 428.506 187.148 132.147 
427.844 187.497 132.119 414.94 164.884 132.579 430.664 181.544 132.107 
399.117 183.05 132.42 403.839 184.97 131.12 398.689 185.295 131.938 
425.366 184.976 132.23 398.937 185.634 132.031 400.724 186.134 132 
399.926 186.058 132.171 426.405 187.141 133.563 415.034 164.087 134.283 
412.038 165.79 133.869 429.749 175.373 132.732 418.362 177.487 132.711 
401.249 178.324 132.766 430.804 179.671 132.889 423.721 181.44 132.557 
398.692 184.941 132.352 398.801 185.423 132.43 401.149 186.058 132.847 
399.497 185.884 132.798 427.02 187.866 134.282 427.397 187.959 133.917 
416.642 163.444 134.705 418.103 163.13 134.854 418.084 163.687 133.799 
421.917 164.528 133.748 426.331 168.424 133.767 422.297 179.661 132.926 
403.971 185.191 133.008 404.253 185.025 133.796 399.719 185.819 133.432 
428.142 187.879 133.83 428.282 187.868 134.214 428.567 187.61 134.546 
427.649 188.089 134.277 418.384 162.824 135.724 422.372 164.204 134.75 
423.437 164.59 135.314 409.986 167.252 134.904 405.362 172.44 135.067 
430.298 177.274 135.147 430.585 181.894 134.518 407.043 183.281 134.015 
399.194 184.854 133.987 399.125 185.032 133.69 399.231 185.007 134.001 
399.235 185.118 133.925 399.379 185.469 133.669 400.05 185.87 133.527 
400.908 185.958 133.506 402.835 185.513 134.116 428.563 187.663 135.376 
427.242 188.19 135.164 427.445 188.251 135.083 427.691 188.2 134.857 
427.368 188.26 135.454 417.019 163.086 135.968 419.417 162.644 136.397 
419.988 162.729 136.129 422.128 163.499 135.992 422.368 163.528 136.328 
429.232 173.552 135.604 421.959 179.723 134.808 399.967 182.413 134.936 
424.366 183.983 135.974 399.35 185.093 134.089 400.509 185.203 134.89 
400.76 185.296 134.869 403.29 185.157 134.947 428.944 186.916 135.897 
428.73 187.404 135.729 427.557 188.255 135.701 417.009 163.056 136.801 
420.907 162.816 136.7 421.069 162.82 137.069 423.745 164.478 136.761 
425.303 166.077 136.584 404.523 174.429 137.167 416.225 178.033 135.542 
416.859 177.944 135.56 417.482 177.887 135.508 415.766 178.188 135.671 
430.227 180.124 136.488 423.294 181.925 135.971 399.756 184.359 134.855 
399.997 184.089 135.174 404.118 184.59 135.593 401.949 184.846 135.694 
402.439 184.845 135.696 426.309 187.261 136.984 428.494 187.615 136.433 
428.616 187.393 136.609 426.686 187.819 136.429 428.292 187.844 136.235 
428.117 171.457 138.302 418.535 178.38 136.969 401.838 179.574 137.001 
421.842 180.066 136.552 400.787 184.085 135.819 424.978 185.234 137.176 
401.896 184.294 136.225 402.523 184.158 136.481 404.193 184.336 136.004 
428.624 186.985 137.142 426.907 187.721 137.119 427.662 188.062 136.478 
427.981 187.731 137.024 419.406 162.819 138.109 420.842 162.851 137.827 
421.082 163.011 138.176 421.866 163.277 138.047 427.593 170.02 138.062 
428.677 173.257 138.372 429.553 176.952 137.947 401.937 180.613 137.49 
417.126 178.715 139.012 402.395 180.836 138.018 405.795 182.157 138.49 
409.783 181.069 138.423 426.466 186.905 138.055 427.673 187.339 137.859 
428.026 186.908 138.082 426.732 187.158 137.932 427.583 187.577 137.563 
419.784 163.142 138.873 414.324 165.445 139.09 405.255 174.604 138.87 
403 179.191 139.005 403.041 179.276 139.223 402.988 179.392 139.255 
403.03 179.637 139.089 414.693 178.928 139.767 429.317 180.985 138.542 
402.958 179.441 139.243 410.933 180.415 138.936 422.883 181.705 138.991 
424.99 184.713 139.003 425.318 184.963 139.238 427.483 186.267 138.945 
427.302 185.952 139.196 427.867 186.126 138.817 427.143 186.64 138.694 
426.859 186.954 138.3 415.927 165.289 140.229 408.88 171.11 140.507 
428.428 175.563 139.994 405.119 176.763 140.188 403.09 179.357 139.281 
403.364 179.333 139.482 402.986 179.466 139.235 417.519 178.62 140.357 
421.499 180.255 139.173 421.39 180.072 140.099 408.903 180.39 140.06 
410.323 179.757 140.403 404.171 180.284 140.063 409.623 180.684 139.389 
427.978 182.228 140.158 404.183 180.361 140.05 424.013 182.866 140.102 
427.435 183.872 140.09 424.75 183.744 140.043 424.362 183.54 139.674 
425.224 184.139 140.088 426.922 185.719 139.363 426.841 186.617 138.657 
416.672 165.942 141.327 426.113 168.614 140.593 427.382 171.845 140.72 
404.658 178.304 140.273 417.933 178.496 140.944 411.418 178.773 141.352 
420.405 179.384 140.448 404.568 179.858 140.263 421.937 180.196 140.914 
424.385 182.607 140.929 424.988 183.518 140.514 425.612 183.782 140.588 
423.453 165.77 141.211 423.954 166.097 141.08 421.702 166.142 142.234 
413.564 168.174 141.941 426.285 170.016 141.472 409.05 172.874 142.006 
406.978 175.01 141.157 427.028 174.882 141.921 412.485 176.77 142.935 
426.653 178.918 142.058 426.071 180.299 142.101 425.655 181.129 141.955 
424.497 182.228 141.335 425.005 182.547 141.287 425.615 182.643 141.248 
422.201 166.82 142.677 415.336 168.552 143.059 411.815 170.109 142.429 
425.556 170.998 142.664 425.452 172.426 143.067 418.43 177.61 142.522 
420.546 177.071 143.474 422.419 179.077 142.515 424.417 181.351 141.929 
423.627 169.185 143.434 423.928 169.122 143.303 423.964 169.338 143.417 
411.733 171.942 143.227 417.826 173.057 144.435 423.843 172.119 143.879 
410.192 173.641 142.947 409.389 174.969 142.718 410.475 174.526 143.197 
419.492 175.346 144.132 410.694 175.57 143.147 420.629 176.643 143.74 
424.513 178.118 143.118 423.966 179.168 142.791 423.857 169.262 143.433 
414.393 171.046 143.824 424.449 170.187 143.42 422.596 171.015 144.102 
412.598 172.731 143.694 411.777 174.649 143.519 421.534 174.691 144.251 
423.563 175.94 143.8 413.488 171.005 312.635 414.854 171.238 312.333 
411.928 173.472 312.622 413.075 173.904 312.482 423.29 167.097 313.834 
424.37 167.853 313.835 412.649 170.104 313.387 424.454 169.831 313.351 
412.042 171.828 312.812 423.719 170.819 312.93 410.382 173.98 313.308 
416.322 173.783 312.345 425.687 172.381 313.603 410.072 174.754 313.494 
422.471 174.636 312.612 424.734 174.113 313.149 410.501 174.931 313.325 
425.412 175.874 313.576 423.091 176.937 313.21 425.111 177.344 313.694 
424.147 178.575 313.936 421.836 167.145 313.54 424.765 167.11 314.532 
[...]
POINT_DATA 776
SCALARS scalars float
LOOKUP_TABLE default
1 1 1 1 1 1 1 1 1 
1 1 1 1 1 1 1 1 1 
1 1 1 1 1 1 1 1 1 
1 1 1 1 1 1 1 1 1 
1 1 1 1 1 1 1 1 1 
1 1 1 1 1 1 1 1 1 
1 1 1 1 1 1 1 1 1 
1 1 1 1 1 1 1 1 1 
1 1 1 1 1 1 1 1 1 
1 1 1 1 1 1 1 1 1 
1 1 1 1 1 1 1 1 1 
1 1 1 1 1 1 1 1 1 
1 1 1 1 1 1 1 1 1 
1 1 1 1 1 1 1 1 1 
1 1 1 1 1 1 1 1 1 
1 1 1 1 1 1 1 1 1 
1 1 1 1 1 1 1 1 1 
1 1 1 1 1 1 1 1 1 
1 1 1 1 1 1 1 1 1 
1 1 1 1 1 1 1 1 1 
1 1 1 1 1 1 1 1 1 
1 1 1 1 1 1 1 1 1 
1 1 1 1 1 1 1 1 1 
1 1 1 1 1 1 1 1 1 
1 1 1 1 1 1 1 1 1 
1 1 1 1 1 1 1 1 1 
1 1 1 1 1 1 1 1 1 
1 1 1 1 1 1 1 1 1 
1 1 1 1 1 1 1 1 1 
1 1 1 1 1 1 1 1 1 
1 1 1 1 1 1 1 1 1 
1 1 1 1 1 1 1 1 1 
1 1 1 1 1 1 1 1 1 
1 1 1 1 1 1 1 1 1 
1 1 1 1 1 1 1 1 1 
1 1 1 1 1 1 1 1 1 
1 1 1 1 1 1 1 1 1 
1 1 1 1 1 1 1 1 1 
1 1 1 1 1 1 1 1 1 
1 1 1 1 1 1 1 1 1 
1 1 1 1 1 1 1 1 1 
1 1 1 1 1 1 1 1 1 
1 1 1 1 1 1 1 1 1 
1 1 1 1 1 1 1 1 1 
1 1 1 1 1 1 1 1 1 
1 1 1 1 1 1 1 1 1 
1 1 1 1 1 1 1 1 1 
1 1 1 1 1 1 1 1 1 
1 1 1 1 1 1 1 1 1 
1 1 1 1 1 1 1 1 1 
1 1 1 1 1 1 1 1 1 
1 1 1 1 1 1 1 1 1 
1 1 1 1 1 1 1 1 1 
1 1 1 1 1 1 1 1 1 
1 1 1 1 1 1 1 1 1 
1 1 1 1 1 1 1 1 1 
1 1 1 1 1 1 1 1 1 
1 1 1 1 1 1 1 1 1 
1 1 1 1 1 1 1 1 1 
1 1 1 1 1 1 1 1 1 
1 1 1 1 1 1 1 1 1 
1 1 1 1 1 1 1 1 1 
1 1 1 1 1 1 1 1 1 
1 1 1 1 1 1 1 1 1 
1 1 1 1 1 1 1 1 1 
1 1 1 1 1 1 1 1 1 
1 1 1 1 1 1 1 1 1 
1 1 1 1 1 1 1 1 1 
1 1 1 1 1 1 1 1 1 
1 1 1 1 1 1 1 1 1 
1 1 1 1 1 1 1 1 1 
1 1 1 1 1 1 1 1 1 
1 1 1 1 1 1 1 1 1 
1 1 1 1 1 1 1 1 1 
1 1 1 1 1 1 1 1 1 
1 1 1 1 1 1 1 1 1 
1 1 1 1 1 1 1 1 1 
1 1 1 1 1 1 1 1 1 
1 1 1 1 1 1 1 1 1 
1 1 1 1 1 1 1 1 1 
1 1 1 1 1 1 1 1 1 
1 1 1 1 1 1 1 1 1 
1 1 1 1 1 1 1 1 1 
1 1 1 1 1 1 1 1 1 
1 1 1 1 1 1 1 1 1 
1 1 1 1 1 1 1 1 1 
1 1 
NORMALS Normals float
-0.00664841 -0.0283365 -0.999576 0.10473 -0.115764 -0.98774 -0.0130733 0.0192041 -0.99973 
0.0646162 -0.0550983 -0.996388 0.111364 0.14615 -0.982974 -0.0618655 -0.16333 -0.98463 
-0.0527348 -0.101688 -0.993418 0.0593174 0.0315062 -0.997742 0.111986 0.323759 -0.939489 
-0.136419 -0.0318273 -0.99014 0.0764406 0.314545 -0.94616 0.109778 0.489312 -0.865172 
0.172189 0.262221 -0.949522 0.186234 0.596132 -0.780989 0.193324 0.662952 -0.723271 
-0.0177879 0.690048 -0.723545 -0.190127 -0.156753 -0.969165 0.0334963 0.152489 -0.987737 
-0.106605 -0.0662667 -0.992091 0.160579 0.34687 -0.924065 -0.232514 0.0386779 -0.971824 
-0.0890885 0.215675 -0.972393 0.143044 0.366242 -0.919459 -0.166468 0.122144 -0.978452 
0.390961 0.686526 -0.613051 -0.270334 0.242871 -0.931629 0.287403 0.641372 -0.711366 
0.416626 0.615675 -0.668856 0.0713278 0.427296 -0.901294 -0.0710296 -0.483172 -0.872639 
0.0269198 -0.476649 -0.878681 0.0618303 -0.448465 -0.891659 0.408665 -0.287378 -0.86626 
-0.151377 -0.247247 -0.957055 0.120522 0.456497 -0.881524 -0.0111568 0.642002 -0.766621 
-0.0994757 0.333089 -0.937633 -0.071906 0.818395 -0.570139 0.131886 0.0145813 -0.991158 
0.330856 -0.0459855 -0.94256 0.261191 0.750054 -0.607616 0.0682265 0.159089 -0.984904 
0.347373 -0.0590362 -0.935867 -0.447051 -0.382548 -0.808581 -0.573489 -0.404105 -0.712608 
-0.337983 0.445759 -0.828895 0.101404 0.129162 -0.986425 0.285131 -0.0200859 -0.958278 
-0.37942 0.416367 -0.826244 0.0484541 0.222247 -0.973786 -0.437334 0.0143911 -0.899184 
0.423009 0.696075 -0.580123 0.287662 0.18203 -0.940274 0.399884 0.62778 -0.667821 
-0.327095 0.289101 -0.899683 -0.403455 0.154691 -0.901829 -0.404227 0.21557 -0.888893 
-0.372001 0.353825 -0.858151 -0.352151 0.422416 -0.835197 -0.057942 0.555619 -0.829416 
0.0703627 0.327544 -0.942212 0.222588 0.210171 -0.951989 -0.204702 0.505322 -0.8383 
-0.164252 0.450734 -0.877417 0.00520259 0.490447 -0.871455 0.172067 -0.504399 -0.846153 
-0.430033 -0.484315 -0.761913 -0.0412395 0.931303 -0.361904 0.50562 -0.284234 -0.814591 
0.174983 0.913469 -0.367362 0.54297 -0.117795 -0.831449 0.421056 0.0507127 -0.905616 
-0.687751 0.536565 -0.488976 0.537737 0.753503 -0.378249 -0.64517 0.037381 -0.763124 
-0.587305 0.406983 -0.699599 -0.681919 0.433468 -0.589145 -0.786824 0.0338053 -0.616251 
-0.493058 0.371419 -0.786728 -0.482944 0.483529 -0.730044 -0.444539 0.540177 -0.714558 
-0.476775 0.581531 -0.659171 -0.011833 0.642532 -0.766167 0.269714 -0.565135 -0.779665 
-0.0507575 -0.680831 -0.730679 -0.63153 -0.543779 -0.552697 0.290239 0.940999 -0.174019 
-0.466278 0.75411 -0.462497 -0.635508 0.655496 -0.407988 0.807553 -0.1844 -0.560228 
-0.734458 0.486455 -0.473215 -0.712849 -0.347094 -0.609403 -0.761434 0.418226 -0.495282 
-0.876779 -0.211218 -0.432025 -0.735538 -0.308332 -0.603254 0.602417 0.290331 -0.743506 
-0.632567 0.513323 -0.579964 -0.145321 0.633142 -0.760271 0.00766761 0.738876 -0.673798 
-0.570366 0.586988 -0.574567 -0.294694 0.744816 -0.59867 -0.751484 0.528843 -0.394459 
-0.207728 0.863639 -0.459322 -0.24533 0.718003 -0.651372 0.0666491 0.744615 -0.664159 
0.895711 0.216304 -0.388478 0.541917 -0.526152 -0.655355 -0.450542 -0.752891 -0.479757 
0.676488 -0.413531 -0.60939 -0.765402 -0.606118 -0.21629 -0.31073 0.918476 -0.24464 
-0.843917 -0.408335 -0.347947 -0.875463 -0.320084 -0.362092 -0.814348 0.492784 -0.306595 
-0.919258 -0.261291 -0.294437 -0.903404 0.305262 -0.301124 -0.758753 0.464603 -0.45655 
-0.821703 0.193882 -0.535924 -0.905317 0.261465 -0.334719 0.385916 0.779266 -0.493774 
-0.826705 0.49645 -0.264759 0.213556 0.918633 -0.332427 -0.567474 0.71731 -0.404277 
0.419397 0.559428 -0.714945 -0.556248 0.70699 -0.436752 -0.193137 0.896264 -0.399262 
-0.14691 0.937678 -0.314925 0.142422 0.84932 -0.508302 -0.594529 -0.732525 -0.331575 
0.294998 -0.659887 -0.691032 -0.470405 -0.775026 -0.421965 -0.824415 -0.478887 -0.301675 
0.912756 0.149213 -0.380279 -0.936105 -0.27402 -0.220501 -0.935538 -0.144123 -0.322486 
-0.981937 -0.116534 -0.149063 0.895575 0.40664 -0.180528 -0.40742 0.896707 -0.172991 
-0.166044 0.953089 -0.25308 0.644677 0.586891 -0.489847 -0.544992 0.817064 -0.188122 
0.448353 0.792285 -0.413841 -0.0545428 -0.755679 -0.652668 -0.175592 -0.795527 -0.579917 
-0.375142 -0.771585 -0.513737 -0.509377 -0.784556 -0.353564 -0.763496 -0.607974 -0.217809 
0.816921 -0.474637 -0.327658 -0.890625 -0.438143 -0.121732 -0.81094 0.535178 -0.236562 
0.928618 0.252916 -0.27148 -0.993762 -0.0854753 -0.0716371 0.460037 0.793025 -0.399347 
-0.887332 0.395221 -0.237578 0.926031 0.253917 -0.279272 -0.675428 0.72447 -0.137626 
0.765217 0.614796 -0.19097 0.400038 0.853658 -0.333524 0.73781 0.656884 -0.155367 
0.173251 0.951214 -0.255297 -0.223285 -0.834037 -0.504506 0.982746 0.103091 -0.153567 
-0.964686 -0.26195 0.02764 0.523175 0.82883 -0.198316 -0.923521 0.382759 -0.0246091 
-0.918977 0.387021 -0.0754688 -0.611164 0.789019 0.0626706 0.00888325 0.99704 -0.07637 
-0.210878 0.976425 0.0460843 -0.637149 0.770342 -0.0247802 -0.375764 -0.901237 -0.215809 
-0.546965 -0.832485 -0.0883089 0.9184 -0.321224 -0.230991 -0.179245 0.972679 -0.147531 
-0.849147 -0.522808 0.074974 0.987963 -0.099169 -0.118718 -0.796912 0.582549 -0.159895 
-0.958541 -0.249612 0.137449 -0.822491 0.51944 0.231712 0.245629 0.969251 0.0147647 
-0.442905 0.882217 0.159779 -0.635393 0.768498 -0.0754119 -0.195142 0.949262 -0.246621 
-0.282351 -0.911729 -0.298375 -0.0626336 -0.915585 -0.397216 0.100864 -0.87718 -0.469448 
0.280331 -0.78385 -0.55407 0.717065 -0.592459 -0.367165 -0.651779 0.735338 -0.185639 
0.367054 0.930172 0.00718737 0.565145 0.818601 0.102484 -0.444326 0.843463 0.301902 
0.298926 0.922444 -0.244418 0.543454 0.835213 -0.0841301 0.823215 0.555017 -0.119475 
0.109543 0.970573 -0.214449 -0.0370084 -0.983857 -0.175086 0.425383 -0.80404 -0.415414 
0.600149 -0.737391 -0.309962 -0.702343 -0.707793 0.0757847 -0.839288 -0.540828 0.0556866 
0.968612 -0.168045 0.183173 0.949835 0.303022 0.0774002 0.603347 0.782643 -0.153111 
-0.885134 0.0244 0.464695 -0.935685 0.193258 0.295203 -0.820617 0.246186 0.515733 
-0.784886 0.460576 0.414517 -0.598521 0.661675 0.451618 -0.23619 0.869324 0.434154 
0.0350359 0.963815 0.26426 0.189506 0.953047 0.236197 0.792806 0.608796 -0.028759 
-0.46068 0.858367 -0.225788 -0.149031 0.96666 -0.208227 -0.0452385 0.973974 -0.222097 
-0.276421 0.960302 0.0375719 -0.301433 -0.929479 -0.21262 0.0124129 -0.988259 -0.15228 
0.181454 -0.957699 -0.223353 0.43859 -0.861703 -0.25516 0.479644 -0.866207 -0.140098 
0.943988 -0.318508 0.0862473 -0.725147 0.676589 -0.128019 -0.900262 -0.237135 0.365096 
-0.859249 0.479874 -0.177233 -0.5612 0.550808 0.61779 -0.435758 0.588212 0.681265 
-0.21064 0.799778 0.562126 0.252683 0.897292 0.361963 0.929979 0.36188 0.0646766 
0.842677 0.537467 0.032001 0.161593 0.981949 0.0983005 -0.383796 -0.914451 0.128378 
0.331118 -0.901119 -0.279904 0.319278 -0.947595 0.0111612 0.62146 -0.779514 -0.0783913 
0.781659 -0.62361 0.0109621 -0.773361 -0.602086 0.198507 0.163877 0.981658 -0.0974247 
0.0806768 0.853639 -0.514579 0.0239463 0.948594 -0.315589 0.116809 0.912495 -0.392057 
0.971434 -0.0156283 0.236795 -0.841926 0.49394 -0.217217 -0.724965 0.201667 0.658602 
-0.72598 0.128447 0.675614 0.370944 0.832026 0.412473 -0.130462 0.770642 0.623771 
0.0427041 0.832533 0.552328 -0.699048 0.666791 0.258307 0.684627 0.653732 0.322368 
0.651682 0.620653 0.436006 -0.601886 0.79417 0.08383 0.511793 0.824173 0.2425 
0.921464 -0.26635 0.282776 -0.201786 0.938239 -0.281051 -0.828492 -0.269531 0.490871 
-0.689034 0.698281 -0.194002 -0.527633 0.347572 0.775111 -0.86266 0.49948 0.0796122 
-0.220166 0.580055 0.784259 -0.0447506 0.668515 0.742351 0.375856 0.830296 0.411511 
0.792015 0.436552 0.426773 -0.28256 0.879122 0.383803 0.0705739 0.95042 0.302856 
0.402655 0.806999 0.431996 -0.068015 -0.979419 0.190032 0.154968 -0.96011 0.232751 
0.300813 -0.881905 0.36298 0.463252 -0.854988 0.233223 0.899511 -0.421301 0.115691 
0.910873 -0.222231 0.347742 0.915686 -0.091149 0.391421 -0.7467 -0.0500205 0.663278 
-0.0778204 0.994733 -0.0667166 -0.850362 -0.127826 0.510435 0.0430027 0.686527 0.725832 
0.312717 0.892099 0.326141 -0.617811 0.666812 0.416739 0.294697 0.746611 0.596427 
0.515804 0.589614 0.621532 -0.275876 0.807036 0.522097 0.0331854 0.859669 0.509772 
0.0621521 -0.831382 0.552214 -0.502496 -0.756101 0.419296 -0.75771 -0.417356 0.501687 
-0.885303 -0.344854 0.311953 -0.684659 -0.411734 0.601429 -0.396249 -0.100999 0.912571 
-0.745316 0.264836 0.611854 0.17037 0.965175 0.198523 0.886964 0.109794 0.448597 
-0.841568 0.0338377 0.53909 0.273723 0.800877 0.532609 -0.693466 0.719483 -0.03807 
-0.943351 0.261414 0.204332 -0.574007 0.662759 0.480902 0.134726 0.602123 0.786954 
0.382308 0.224959 0.896233 0.582394 0.336961 0.73978 0.181889 0.724875 0.664434 
-0.0817214 0.81849 0.568679 -0.293755 -0.776123 0.55798 -0.667891 -0.609804 0.426686 
0.894284 -0.0869137 0.438979 -0.665622 -0.235254 0.70824 -0.306138 0.148501 0.940333 
-0.614052 0.048672 0.787763 -0.0639988 0.464767 0.883117 -0.0367914 0.962952 0.267151 
-0.784047 0.620478 0.0166645 -0.704739 0.708321 0.0403024 0.130767 0.763895 0.631953 
0.119432 0.748693 0.65207 -0.520297 0.122396 0.845169 0.220682 0.840376 0.495044 
0.683678 0.208951 0.699231 -0.413923 0.365415 0.833751 -0.747697 0.606704 0.269927 
0.501181 0.360467 0.78669 -0.655835 0.587558 0.473979 -0.707039 0.607915 0.361297 
-0.667926 0.565636 0.483664 0.171649 0.391188 0.904162 -0.303493 0.639878 0.706008 
-0.300758 -0.670103 0.678606 0.740848 -0.484146 0.465562 0.844421 -0.214326 0.490935 
-0.644964 -0.25536 0.720286 -0.199402 0.916984 0.345512 0.0726592 0.782578 0.618298 
-0.399107 0.893476 0.205949 -0.23649 0.298532 0.924636 -0.556909 0.758038 0.339457 
-0.521651 0.554186 0.648659 -0.544661 0.58218 0.603665 -0.111098 0.57197 0.812717 
0.414221 -0.67253 0.61329 0.596992 -0.622271 0.506339 0.0442468 -0.602157 0.797151 
-0.54189 -0.671192 0.505823 0.773405 -0.363604 0.519265 -0.59324 -0.357744 0.72117 
-0.632902 -0.176151 0.753927 0.727625 -0.0588531 0.683446 -0.0709464 0.537828 0.840064 
0.723296 0.131369 0.677927 0.460054 0.342097 0.819341 0.449339 0.373365 0.811599 
-0.480215 0.479956 0.734191 -0.175583 0.4718 0.864046 0.0725271 0.419274 0.904958 
0.141575 -0.476178 0.867877 -0.254886 -0.553043 0.793207 -0.422079 -0.479871 0.769138 
0.646757 -0.269632 0.713445 0.613525 -0.0928957 0.784192 -0.202523 0.802407 0.561362 
-0.158054 0.506843 0.847425 -0.251842 0.523857 0.813726 -0.13333 0.401416 0.906139 
0.132294 -0.225505 0.965218 0.53121 -0.4746 0.701834 0.326659 -0.168492 0.930002 
-0.363418 -0.256288 0.895681 -0.205507 0.148583 0.967311 0.313023 -0.0408356 0.948867 
-0.410623 -0.15762 0.898078 -0.479634 0.0528816 0.875874 -0.393274 -0.0445496 0.918341 
-0.134277 0.234127 0.962888 -0.351707 0.15103 0.923847 -0.0335027 0.433261 0.900645 
0.120302 0.279317 0.952633 -0.31716 0.368943 0.873665 0.210064 -0.280929 0.936457 
-0.162183 -0.258523 0.952293 0.463057 -0.215392 0.859758 0.0389588 -0.17711 0.98342 
-0.225754 -0.183599 0.956727 -0.172646 0.0719437 0.982353 0.0318969 0.0200761 0.99929 
0.229541 0.205577 0.951341 -0.205698 -0.386541 -0.899041 0.00506292 -0.284083 -0.958786 
-0.325932 0.075251 -0.942394 -0.0167592 0.125357 -0.99197 0.175198 -0.505652 -0.844761 
0.497312 -0.320321 -0.806272 -0.457729 -0.597156 -0.658703 0.355682 -0.248364 -0.901003 
-0.310599 -0.219101 -0.924945 0.27572 -0.135198 -0.951683 -0.531699 -0.0733418 -0.843752 
-0.0541737 0.296115 -0.953615 0.456744 -0.0526088 -0.888041 -0.504378 0.0817053 -0.859609 
0.125562 0.0738338 -0.989334 0.293553 0.0528064 -0.954483 -0.302534 0.230004 -0.924971 
0.541317 0.081622 -0.836847 0.106402 0.33312 -0.936861 0.28507 0.314066 -0.905592 
-0.0872025 0.422854 -0.901992 0.0355097 -0.464644 -0.884785 0.639131 -0.58884 -0.494751 
-0.641085 -0.388827 -0.661682 0.858429 -0.130844 -0.495964 -0.526794 -0.0420165 -0.848954 
-0.0112876 0.403167 -0.915057 -0.115241 0.498468 -0.859214 -0.119634 0.494915 -0.860666 
-0.472716 0.146266 -0.868991 -0.27089 0.320866 -0.907559 -0.121219 0.733126 -0.669202 
-0.102992 0.570996 -0.814467 -0.212985 0.698353 -0.683331 -0.225433 0.76256 -0.606368 
0.143328 0.378826 -0.914302 -0.196877 0.487819 -0.850454 -0.339061 0.478894 -0.809752 
-0.315668 -0.64302 -0.697768 -0.698696 -0.295796 -0.651405 0.0677092 0.580195 -0.811659 
-0.296925 0.790918 -0.535055 -0.216987 0.852799 -0.475027 -0.363095 0.677734 -0.639405 
0.327729 0.269818 -0.905424 -0.436538 0.448659 -0.779833 0.389515 0.244791 -0.887894 
-0.641732 0.485106 -0.594013 0.0414702 0.465611 -0.884017 -0.226416 0.547164 -0.805821 
0.299827 0.366828 -0.880648 -0.532913 0.616905 -0.579165 0.767182 -0.372835 -0.521944 
-0.702995 0.0212528 -0.710877 0.725344 0.0621207 -0.685578 -0.538218 0.136752 -0.831637 
0.195584 0.828503 -0.524719 0.0298445 0.9364 -0.349664 -0.433218 0.352117 -0.82966 
-0.287858 0.90836 -0.303347 -0.42437 0.864287 -0.270032 0.424333 0.390003 -0.817215 
0.685049 0.128311 -0.717108 -0.627081 0.711211 -0.317725 -0.23737 0.536529 -0.80981 
0.102936 0.478431 -0.872071 0.449752 0.263407 -0.853428 -0.494897 0.527586 -0.690457 
-0.292601 0.481877 -0.825941 -0.404779 0.6415 -0.651637 -0.184277 0.597149 -0.780676 
-0.244769 -0.795891 -0.553756 0.93385 -0.176032 -0.311346 0.840539 -0.170401 -0.514254 
-0.712686 -0.217527 -0.666903 0.43069 0.813775 -0.390226 -0.230718 0.949818 -0.211225 
-0.583597 0.796181 -0.159718 0.00106421 0.6771 -0.73589 -0.643717 0.764837 0.0255538 
0.633357 0.240724 -0.735466 0.136229 0.492131 -0.859796 -0.659214 0.46519 -0.590792 
0.0849039 0.499239 -0.862294 0.2303 0.564426 -0.792708 0.423366 0.469329 -0.774914 
-0.636709 0.629224 -0.445734 0.0207126 0.618971 -0.785141 -0.564803 0.57959 -0.587429 
-0.603233 0.613344 -0.509823 -0.247701 0.669525 -0.700272 0.148476 0.622141 -0.768698 
0.0333221 0.631967 -0.774279 0.463982 -0.760969 -0.453482 0.441412 -0.861346 -0.251474 
-0.0832925 -0.768761 -0.63409 -0.504115 -0.719722 -0.477356 -0.383794 0.923419 0.000459603 
-0.673014 0.00564043 -0.739608 0.0363729 0.969735 -0.241437 -0.478186 0.059195 -0.876261 
-0.36318 0.347225 -0.864601 0.186999 0.809344 -0.556771 0.847814 0.155043 -0.507123 
-0.582302 0.194414 -0.789385 0.605818 0.48496 -0.630712 -0.523319 0.65288 -0.547617 
-0.153929 0.727201 -0.668943 -0.477458 0.743775 -0.467796 0.457135 0.556803 -0.693541 
-0.0927996 0.837988 -0.537739 0.212504 0.799481 -0.561847 0.0246237 -0.999694 0.00226138 
0.0820033 -0.895446 -0.437553 0.312352 -0.93686 -0.157257 -0.284239 -0.821532 -0.494261 
0.631009 -0.741189 -0.229056 -0.274746 0.949213 0.153324 -0.0885549 0.995382 0.0370579 
0.473538 0.839341 -0.266961 0.179641 0.860229 -0.477216 0.880058 0.0251084 -0.474202 
-0.661713 0.257598 -0.704116 0.252582 0.808005 -0.532288 0.356303 0.878572 -0.318055 
-0.360125 0.493768 -0.79152 0.835206 0.32745 -0.441823 -0.814143 0.508214 -0.280873 
-0.752816 0.601616 -0.267069 -0.185555 0.91504 -0.358151 0.179519 -0.97825 0.103922 
-0.345928 -0.916831 -0.199384 -0.18523 -0.961628 -0.202387 0.735974 -0.674223 -0.0613703 
-0.575883 -0.751131 -0.322741 0.942256 -0.323745 -0.0856921 0.938686 -0.1944 -0.28474 
0.0393017 0.979207 0.199022 -0.874977 -0.339808 -0.344884 -0.69906 0.712151 0.064475 
-0.708528 -0.162815 -0.686644 -0.732268 0.167276 -0.660153 0.347327 0.865037 -0.362042 
-0.543041 0.371486 -0.753064 0.233228 0.834231 -0.499663 0.147446 0.743516 -0.65226 
0.651391 0.628275 -0.425395 0.494639 0.803212 -0.331939 -0.404163 0.876596 -0.26121 
0.513753 -0.855094 0.0697997 0.300915 0.939642 0.162859 -0.766365 -0.488314 -0.417413 
-0.780434 -0.0069759 -0.625199 0.387893 0.914996 -0.110998 0.965566 0.223791 -0.132663 
-0.715054 0.182795 -0.674747 -0.705439 0.315008 -0.634922 -0.44484 0.623707 -0.642734 
-0.559063 0.489821 -0.668972 -0.132969 0.677244 -0.723644 0.0135435 0.835163 -0.549835 
0.111018 0.822311 -0.558104 0.853095 0.46919 -0.228231 -0.657392 0.745217 -0.111743 
0.283703 0.927736 -0.242524 0.498404 0.845991 -0.189454 0.12612 0.964505 -0.232001 
-0.176879 0.979662 -0.0947455 -0.256264 -0.95817 -0.127436 -0.0327117 -0.983025 0.18053 
-0.00922899 -0.994512 -0.104213 -0.40422 -0.870914 0.279493 -0.449834 -0.893033 -0.0118794 
0.885623 -0.404031 0.228977 -0.419424 0.890483 0.176421 0.972022 -0.0368246 -0.231986 
-0.909599 -0.32723 -0.256027 -0.91111 0.0245045 -0.411435 -0.500746 0.605247 -0.618813 
-0.0522464 0.927807 -0.369385 -0.198159 0.834355 -0.514378 -0.206893 0.834342 -0.510949 
0.199488 0.938668 -0.281258 -0.846695 0.528373 0.0626884 0.198163 -0.879755 0.43216 
0.464222 -0.79495 0.39058 -0.901562 -0.395037 -0.176441 0.999374 0.014426 0.0323148 
-0.923826 0.173462 -0.341259 -0.768923 0.384719 -0.510635 -0.719578 0.543296 -0.432478 
-0.262006 0.870022 -0.417629 0.645178 0.754606 -0.119647 0.270118 0.962816 0.00455729 
-0.250573 -0.883722 0.395283 -0.461053 -0.861703 0.21189 0.715607 -0.65492 0.242873 
-0.82003 -0.571326 0.0337211 -0.404398 0.902564 0.147782 0.442036 0.886179 -0.13889 
-0.744739 0.490191 -0.452853 0.209351 0.970848 -0.116734 0.900692 0.433555 0.0279796 
0.693654 0.718276 0.0540777 -0.335584 -0.858088 0.388674 -0.630363 -0.76828 0.111299 
0.980857 -0.174715 0.0859941 0.0398361 0.988975 0.142621 -0.302389 0.945888 0.117716 
0.967678 -0.218339 0.126201 -0.93914 -0.338865 -0.0564494 -0.545754 0.795301 -0.263909 
-0.432401 0.785409 -0.442902 0.026011 0.96641 -0.255688 -0.25264 0.951871 -0.173534 
0.782993 0.587169 0.205316 0.485214 0.868426 0.102001 0.541608 0.820324 0.183655 
-0.248125 0.967221 0.0540202 -0.337183 -0.713038 0.614723 -0.00603816 -0.831757 0.555107 
-0.320292 0.942629 0.094144 -0.964708 -0.242266 -0.103181 -0.994544 0.020889 -0.102204 
0.456975 0.876964 0.148688 -0.942855 0.137867 -0.303343 -0.852456 0.439357 -0.283344 
-0.894173 0.431033 -0.121096 -0.570506 0.79991 -0.186191 0.081364 0.996025 -0.0362569 
-0.182273 0.982959 0.0238373 -0.452664 0.880466 0.14098 0.133257 0.977027 0.166316 
-0.207117 -0.666563 0.716098 0.420462 -0.667338 0.614712 -0.665001 -0.694087 0.275712 