# vtk DataFile Version 4.2
vtk output
ASCII
DATASET POLYDATA
POINTS 494 float
411.71 157.499 189.078 413.018 157.765 188.903 413.593 157.996 188.997 
412.437 159.75 189.157 411.609 160.382 189.551 411.809 160.674 189.727 
412.186 156.709 189.102 412.661 156.136 189.179 413.428 156.981 189.089 
414.136 157.251 189.265 410.457 158.214 189.69 410.554 159.878 189.904 
414.048 159.677 189.598 413.139 160.446 189.607 410.031 155.647 190.249 
413.257 155.172 189.556 410.56 160.878 190.621 414.778 159.925 190.263 
411.224 161.662 191.069 411.931 161.391 190.477 413.364 161.338 190.612 
413.635 153.07 190.213 411.088 153.399 190.409 414.828 153.527 190.323 
415.405 154.212 190.416 416.191 153.412 190.81 414.515 156.395 189.654 
415.004 156.967 189.871 416.225 157.399 190.874 414.332 161.097 191.036 
412.833 161.995 191.398 417.605 148.02 192.196 410.421 151.565 191.26 
419.431 151.341 192.796 417.206 154.92 191.444 408.284 155.998 191.752 
407.752 157.575 192.457 416.086 159.401 191.448 410.804 161.871 191.728 
413.197 145.841 192.311 413.815 145.037 192.632 412.386 146.549 192.138 
412.848 147.081 191.953 418.981 148.669 192.687 419.788 151.453 193 
409.86 161.589 192.43 413.186 162.404 192.229 409.434 142.103 193.87 
416.926 145.41 193.12 420.472 148.523 193.983 420.814 150.416 194.29 
419.275 154.668 193.376 410.939 163.026 194.103 405.495 141.347 195.207 
406.151 141.654 194.883 405.009 142.995 195.379 417.999 143.522 194.611 
406.683 144.156 194.198 408.108 146.622 193.348 421.131 147.727 194.915 
420.316 153.362 194.478 406.826 157.279 194.292 408.889 161.809 195.23 
410.614 163.205 195.257 411.302 163.276 194.528 406.272 139.55 195.846 
409.943 139.749 195.255 417.28 141.344 195.907 419.828 143.238 196.056 
419.635 143.227 195.892 419.975 143.374 196.111 420.693 145.476 195.31 
421.617 148.244 195.888 421.412 151.031 195.844 407.316 159.501 195.584 
408.42 161.313 195.69 411.996 163.404 194.893 413.952 138.927 196.573 
413.787 138.883 196.596 409.89 138.55 196.144 405.089 140.334 196.054 
417.74 141.219 196.448 404.105 140.55 196.815 419.903 143.197 196.231 
404.295 145.365 196.48 421.707 147.78 196.402 420.732 153.787 196.336 
418.865 157.872 196.147 409.451 162.584 196.03 410.477 163.185 196.266 
415.652 138.823 198.009 403.592 139.414 197.75 419.473 142.051 197.42 
408.423 161.329 197.275 416.468 160.854 196.527 417.04 160.317 196.98 
405.429 136.008 198.613 408.763 135.754 198.514 402.561 139.176 198.971 
418.847 141.289 198.261 419.448 141.912 197.786 421.831 150.263 197.723 
421.015 153.25 197.806 414.7 162.09 197.312 413.132 162.994 196.861 
413.692 136.863 199.099 417.478 139.917 198.89 419.98 142.448 198.532 
420.039 142.607 198.65 402.085 142.723 199.67 403.586 147.704 198.833 
416.669 160.338 198.868 409.053 161.774 198.311 409.97 162.524 197.903 
410.809 163.023 197.336 411.882 163.102 197.246 415.469 137.806 199.803 
421.78 149.074 198.859 421.451 151.053 199.275 405.975 156.156 200.089 
416.499 160.275 199.395 409.466 161.428 199.461 410.535 161.787 199.6 
411.694 162.291 198.876 402.352 133.681 202.331 420.478 144.405 200.37 
402.353 146.027 201.299 421.021 150.98 200.472 419.64 155.598 200.353 
415.599 160.365 200.313 410.533 161.538 200.016 410.595 161.67 199.907 
413.517 161.368 199.894 410.643 161.61 200.013 409.695 132.851 202.186 
401.213 134.333 203.083 412.972 135.044 201.532 400.271 138.361 203.25 
420.829 146.865 201.048 417.993 158.212 200.75 412.537 160.592 201.13 
410.775 161.488 200.133 405.449 131.61 203.278 401.513 133.178 203.809 
419.931 151.256 202.391 407.658 157.241 202.366 410.435 159.563 202.001 
404.976 130.653 204.822 410.809 132.594 203.878 401.115 132.971 204.701 
412.254 133.703 203.645 415.826 137.61 203.995 417.637 157.197 202.263 
409.592 158.476 202.639 415.987 157.765 203.014 415.435 158.574 202.534 
403.798 130.484 205.507 402.929 130.657 205.776 399.917 135.103 205.448 
401.69 144.773 204.295 418.81 147.554 204.222 402.85 147.081 205.069 
417.741 153.248 204.248 416.981 155.504 203.861 415.885 156.008 204.201 
400.356 133.615 205.781 399.677 136.926 206.009 416.537 139.683 205.384 
417.451 141.191 204.54 400.948 142.243 206.046 403.564 129.868 207.578 
402.462 130.587 207.303 407.608 130.195 206.739 410.821 131.913 206.441 
399.664 135.985 206.894 399.584 136.289 206.803 399.572 136.406 206.738 
401.086 142.329 206.548 416.703 142.952 206.201 416.701 145.109 206.309 
407.03 152.244 205.532 411.063 152.083 206.73 409.801 131.138 207.358 
400.293 133.61 207.713 399.623 136.457 206.895 401.395 142.262 207.433 
401.896 143.567 207.206 402.777 144.899 207.413 415.443 145.134 207.38 
414.358 145.589 208.042 403.904 129.675 209.034 402.524 130.526 208.825 
409.774 131.186 208.308 411.317 132.493 208.281 400.292 137.657 208.534 
401.164 140.771 208.237 403.101 144.799 207.954 404.054 146.266 207.878 
407.004 150.013 209.009 407.004 150.013 209.009 407.004 150.013 209.009 
407.004 150.013 209.009 407.004 150.013 209.009 403.434 130.029 209.747 
401.707 131.524 209.275 400.977 132.557 208.917 412.312 134.009 209.169 
414.19 139.035 208.82 413.537 140.22 209.529 402.058 142.64 208.266 
403.702 143.894 209.1 412.032 144.309 209.589 407.896 148.288 208.306 
407.004 150.013 209.009 403.887 129.934 210.1 404.698 129.632 209.712 
412.543 136.319 210.201 413.152 138.538 209.87 412.367 140.897 210.357 
411.984 141.191 210.517 406.22 144.076 210.203 407.465 144.006 210.44 
403.163 130.488 210.431 406.565 130.223 210.573 401.409 132.661 210.191 
410.345 133.352 211.262 403.984 130.301 210.867 402.458 131.356 210.776 
407.356 131.253 211.706 402.275 132.112 211.121 401.369 134.248 210.715 
410.428 136.384 212.083 408.393 138.842 212.535 404.132 130.887 211.493 
405.288 130.731 211.525 406.087 130.703 211.452 405.048 131.211 211.926 
406.814 131.541 212.145 402.357 133.197 211.546 408.964 132.964 212.271 
403.355 133.471 212.372 402.752 135.531 212.089 409.226 135.896 212.715 
405.463 139.708 212.188 406.872 138.726 212.722 404.662 132.398 212.563 
404.751 133.592 212.973 407.172 134.498 213.395 408.219 134.985 213.101 
403.72 137.195 212.366 406.754 136.369 213.182 407.278 136.904 213.078 
405.715 134.186 213.368 406.579 133.959 213.41 404.634 132.083 244.018 
404.085 133.115 243.931 405.802 132.81 243.582 405.056 133.508 243.511 
406.238 133.311 243.459 408.213 132.714 244.097 403.854 134.909 243.795 
405.253 136.146 243.461 405.233 130.689 244.916 404.055 131.277 244.726 
406.663 131.195 244.483 403.159 132.836 244.626 403.445 134.102 244.141 
403.523 136.692 244.26 404.775 137.141 243.772 408.832 136.98 243.848 
406.469 130.525 245.193 403.076 131.304 245.334 402.806 131.474 245.507 
402.599 131.916 245.541 408.745 132.003 244.767 402.506 133.964 245.039 
411.09 136.16 245.018 408.823 138.897 244.271 408.908 140.162 244.697 
404.167 129.956 246.166 404.067 129.818 246.527 403.058 130.839 245.808 
402.814 130.978 245.994 411.176 133.219 246.299 412.098 135.298 246.141 
410.594 139.665 245.015 412.009 139.975 245.865 407.579 141.784 245.292 
404.447 129.634 246.799 405.31 129.596 246.782 401.432 132.498 247.131 
405.579 144.035 246.697 406.107 144.001 246.529 411.05 143.756 246.567 
403.257 130.086 247.306 404.008 129.619 247.504 402.427 131.025 247.061 
408.163 130.394 247.21 409.354 131.104 247.093 413.901 137.431 247.736 
403.53 144.584 248.203 404.419 144.414 247.504 410.901 144.758 246.942 
403.529 129.845 248.062 400.307 134.05 248.826 412.696 134.025 248.091 
415.104 138.58 249.198 400.978 140.136 248.796 401.977 141.307 247.783 
412.204 146.857 248.104 403.498 129.908 248.474 404.247 129.595 248.254 
405.094 129.545 248.472 407.209 129.806 248.555 403.28 130.176 248.869 
412.097 133.086 249.427 400.093 135.603 249.024 400.039 136.7 249.489 
400.136 138.231 249.55 400.496 139.269 249.374 415.244 145.846 249.263 
411.054 148.56 248.54 406 150.009 249.017 406 150.009 249.017 
406 150.009 249.017 406 150.009 249.017 408.509 149.548 249.122 
406 150.009 249.017 403.247 130.41 249.657 400.307 133.789 249.985 
414.987 136.799 250.293 405.432 148.218 249.571 406 150.009 249.017 
407.385 150.745 250.06 416.698 149.257 250.582 407.169 151.992 250.828 
412.159 153.792 250.609 414.54 153.356 250.755 414.028 135.091 250.924 
400.177 139.342 251.185 400.457 140.425 251.747 418.174 145.787 251.662 
405.658 151.014 251.466 410.586 155.7 251.703 416.124 155.282 252.161 
409.083 131.349 251.664 411.572 132.867 251.949 416.082 138.223 252.446 
418.428 142.67 252.858 419.173 144.368 253.1 405.435 152.169 252.956 
415.17 157.603 253.299 402.089 132.221 251.97 413.52 134.761 252.962 
400.045 136.692 252.041 417.709 140.608 253.405 400.76 141.401 252.683 
420.045 148.737 253.622 417.696 156.839 254.183 410.546 158.64 253.924 
416.653 157.54 253.936 412.873 159.049 254.1 403.895 131.752 252.934 
408.071 132.269 253.993 414.312 135.72 253.472 400.382 136.222 252.859 
416.369 138.391 253.837 419.566 143.072 254.588 420.26 152.613 254.694 
406.156 155.016 254.547 411.679 133.775 254.268 418.635 141.214 254.973 
418.734 156.409 255.122 410.062 160.44 255.876 405.144 132.682 254.55 
402.117 133.985 254.066 407.554 133.225 255.425 414.532 136.63 255.599 
404.998 153.142 255.797 407.561 158.619 256.454 408.268 159.79 256.988 
416.891 159.018 255.943 421.575 146.107 257.38 421.419 151.79 256.883 
416.268 160.155 257 404.167 134.967 256.392 402.877 138.295 257.406 
416.697 139.287 257.458 419.049 141.422 257.382 421.594 146.057 258.132 
404.723 151.927 257.473 407.995 160.086 258.074 413.486 162.564 258.875 
411.189 163.095 259.411 411.666 162.993 258.946 405.245 136.522 258.083 
411.623 136.51 258.128 421.96 149.487 259.332 421.789 151.466 259.079 
416.181 160.9 259.044 409.264 162.07 259.596 409.202 162.048 259.929 
409.677 162.358 259.562 409.388 162.239 259.678 409.293 162.176 259.752 
412.902 163.174 259.895 416.269 139.932 259.344 403.193 141.118 258.715 
[...]
POINT_DATA 494
SCALARS scalars float
LOOKUP_TABLE default
1 1 1 1 1 1 1 1 1 
1 1 1 1 1 1 1 1 1 
1 1 1 1 1 1 1 1 1 
1 1 1 1 1 1 1 1 1 
1 1 1 1 1 1 1 1 1 
1 1 1 1 1 1 1 1 1 
1 1 1 1 1 1 1 1 1 
1 1 1 1 1 1 1 1 1 
1 1 1 1 1 1 1 1 1 
1 1 1 1 1 1 1 1 1 
1 1 1 1 1 1 1 1 1 
1 1 1 1 1 1 1 1 1 
1 1 1 1 1 1 1 1 1 
1 1 1 1 1 1 1 1 1 
1 1 1 1 1 1 1 1 1 
1 1 1 1 1 1 1 1 1 
1 1 1 1 1 1 1 1 1 
1 1 1 1 1 1 1 1 1 
1 1 1 1 1 1 1 1 1 
1 1 1 1 1 1 1 1 1 
1 1 1 1 1 1 1 1 1 
1 1 1 1 1 1 1 1 1 
1 1 1 1 1 1 1 1 1 
1 1 1 1 1 1 1 1 1 
1 1 1 1 1 1 1 1 1 
1 1 1 1 1 1 1 1 1 
1 1 1 1 1 1 1 1 1 
1 1 1 1 1 1 1 1 1 
1 1 1 1 1 1 1 1 1 
1 1 1 1 1 1 1 1 1 
1 1 1 1 1 1 1 1 1 
1 1 1 1 1 1 1 1 1 
1 1 1 1 1 1 1 1 1 
1 1 1 1 1 1 1 1 1 
1 1 1 1 1 1 1 1 1 
1 1 1 1 1 1 1 1 1 
1 1 1 1 1 1 1 1 1 
1 1 1 1 1 1 1 1 1 
1 1 1 1 1 1 1 1 1 
1 1 1 1 1 1 1 1 1 
1 1 1 1 1 1 1 1 1 
1 1 1 1 1 1 1 1 1 
1 1 1 1 1 1 1 1 1 
1 1 1 1 1 1 1 1 1 
1 1 1 1 1 1 1 1 1 
1 1 1 1 1 1 1 1 1 
1 1 1 1 1 1 1 1 1 
1 1 1 1 1 1 1 1 1 
1 1 1 1 1 1 1 1 1 
1 1 1 1 1 1 1 1 1 
1 1 1 1 1 1 1 1 1 
1 1 1 1 1 1 1 1 1 
1 1 1 1 1 1 1 1 1 
1 1 1 1 1 1 1 1 1 
1 1 1 1 1 1 1 1 
NORMALS Normals float
-0.246301 -0.0718703 -0.966525 0.0569382 0.0467396 -0.997283 0.356802 0.0749691 -0.931167 
-0.103663 0.230257 -0.967593 -0.286907 0.531043 -0.797294 -0.144013 0.660493 -0.736892 
-0.262038 -0.303414 -0.91612 0.0675096 -0.361309 -0.929999 0.136906 -0.187231 -0.972729 
0.42555 -0.172667 -0.888309 -0.541382 0.0565775 -0.838871 -0.563204 0.262781 -0.78342 
0.38674 0.290101 -0.875371 0.229718 0.592453 -0.772159 -0.443844 -0.187787 -0.876207 
-0.0557292 -0.365144 -0.929282 -0.551619 0.578093 -0.601269 0.601102 0.417253 -0.681599 
-0.339072 0.777715 -0.529329 -0.133015 0.78301 -0.60762 0.256951 0.757848 -0.599703 
0.0718969 -0.250726 -0.965384 -0.211434 -0.254781 -0.943601 0.222065 -0.185923 -0.957142 
0.328046 -0.0954358 -0.939829 0.459605 -0.108905 -0.881421 0.454448 -0.177399 -0.87293 
0.623832 0.0561281 -0.779541 0.680318 0.0501859 -0.731197 0.531305 0.705883 -0.468449 
0.119375 0.861022 -0.494359 0.428175 -0.356445 -0.830429 -0.360983 -0.263154 -0.894674 
0.572344 -0.142438 -0.807548 0.638239 0.0392322 -0.768838 -0.7424 -0.0395662 -0.668787 
-0.806401 0.278794 -0.521528 0.746491 0.377658 -0.547837 -0.446153 0.770042 -0.456051 
-0.0515996 -0.36578 -0.92927 0.0312929 -0.420625 -0.906695 -0.225511 -0.368788 -0.901743 
-0.0812945 -0.240155 -0.967324 0.515966 -0.175895 -0.838356 0.687828 0.0274375 -0.725355 
-0.654112 0.629706 -0.419055 0.285659 0.895147 -0.342215 -0.12282 -0.426507 -0.896107 
0.275487 -0.393254 -0.877188 0.740612 -0.22086 -0.634598 0.797072 -0.0415862 -0.602451 
0.781923 0.30029 -0.546281 -0.246281 0.884788 -0.395596 -0.479845 -0.297754 -0.825283 
-0.311677 -0.293695 -0.90366 -0.725395 -0.0340603 -0.68749 0.409393 -0.451213 -0.792972 
-0.51601 -0.0179879 -0.856394 -0.358182 -0.181848 -0.915771 0.811844 -0.170388 -0.55846 
0.916396 0.234989 -0.324036 -0.931384 0.185731 -0.313093 -0.733536 0.646229 -0.210509 
-0.402219 0.901634 -0.158984 -0.115416 0.941858 -0.315566 -0.368987 -0.558046 -0.743259 
0.0638951 -0.595387 -0.800895 0.319946 -0.571176 -0.755905 0.575386 -0.636065 -0.514153 
0.533834 -0.588597 -0.607104 0.739877 -0.404184 -0.537789 0.764833 -0.367154 -0.529366 
0.94863 -0.0265151 -0.315275 0.946538 0.106814 -0.304395 -0.884394 0.438001 -0.161254 
-0.769965 0.620095 -0.150454 0.177061 0.975177 -0.132962 0.201624 -0.681953 -0.703056 
0.218859 -0.700086 -0.679692 -0.0201899 -0.612227 -0.790424 -0.522701 -0.439743 -0.730349 
0.559743 -0.708271 -0.430162 -0.710153 -0.304932 -0.634586 0.838862 -0.508386 -0.194561 
-0.797347 0.101448 -0.594934 0.976557 -0.170486 -0.131422 0.917063 0.381632 -0.11555 
0.828041 0.54818 -0.117674 -0.610756 0.790706 0.0419773 -0.260706 0.95919 0.109487 
0.435234 -0.792706 -0.426836 -0.746579 -0.270685 -0.607741 0.66223 -0.657558 -0.359261 
-0.811429 0.551481 0.193524 0.667588 0.726873 -0.161191 0.747061 0.66436 0.0229315 
-0.204694 -0.639683 -0.740882 0.178268 -0.74367 -0.644341 -0.742504 -0.323314 -0.586648 
0.662725 -0.748863 0.000449205 0.810629 -0.498794 -0.306734 0.98974 0.138705 0.0342926 
0.957615 0.28361 0.0503852 0.481054 0.857232 0.183685 0.309508 0.916389 0.253844 
0.334655 -0.726388 -0.600306 0.711077 -0.687824 -0.145831 0.869525 -0.492278 -0.039859 
0.894742 -0.44642 -0.0120718 -0.89515 0.0914416 -0.436286 -0.933033 0.244531 -0.263921 
0.561277 0.796354 0.225363 -0.664465 0.733654 0.142257 -0.307457 0.888133 0.3416 
-0.39922 0.897727 0.186306 0.0226199 0.940465 0.339137 0.583886 -0.745678 -0.321002 
0.965518 -0.0566865 0.254092 0.951431 0.161574 0.262055 -0.91436 0.395649 0.086066 
0.52688 0.747313 0.404871 -0.579384 0.566255 0.586233 -0.225424 0.876358 0.425654 
0.123105 0.873912 0.470238 -0.372533 -0.684583 -0.62655 0.935944 -0.27129 0.224525 
-0.927466 0.314739 -0.201858 0.890799 0.22048 0.397323 0.866698 0.404264 0.292241 
0.357843 0.807855 0.468315 -0.479544 0.547378 0.685868 -0.220597 0.856986 0.465739 
0.146606 0.866747 0.476714 -0.0285738 0.811169 0.584114 0.352575 -0.778728 -0.518916 
-0.778693 -0.370746 -0.506147 0.509315 -0.787295 -0.347513 -0.948638 -0.0281032 -0.315114 
0.888875 -0.103164 0.446384 0.78263 0.52428 0.335591 0.0433709 0.728765 0.68339 
-0.196513 0.615798 0.763004 -0.0181181 -0.83135 -0.555454 -0.672267 -0.604961 -0.426707 
0.802634 0.132399 0.581593 -0.572737 0.57827 0.581013 -0.204987 0.707677 0.676147 
-0.108471 -0.841354 -0.529488 0.520588 -0.812728 -0.261651 -0.607919 -0.755439 -0.24443 
0.559988 -0.812347 -0.162806 0.786945 -0.610857 0.0870122 0.712109 0.373624 0.594395 
-0.329069 0.574063 0.749777 0.400283 0.604184 0.68901 0.275938 0.650307 0.707785 
-0.138359 -0.935557 -0.324947 -0.421414 -0.76917 -0.480404 -0.934307 -0.250621 -0.253497 
-0.93712 0.344145 0.0580594 0.761063 -0.0328786 0.647844 -0.851615 0.454767 0.260651 
0.605048 0.322595 0.727908 0.700882 0.240423 0.671536 0.290188 0.461506 0.838333 
-0.870247 -0.429865 -0.240595 -0.975354 0.214175 0.0530406 0.853156 -0.245448 0.460305 
0.863876 -0.367302 0.344684 -0.940945 0.288148 0.177744 -0.313275 -0.942598 -0.115623 
-0.619611 -0.773647 -0.132485 0.25765 -0.941906 -0.215475 0.65819 -0.746136 -0.100336 
-0.972349 -0.215107 0.0909252 -0.984042 -0.138657 0.111513 -0.98919 -0.0863513 -0.11852 
-0.898113 0.308064 0.31383 0.704526 -0.0716543 0.706051 0.729463 0.0759246 0.679793 
-0.408755 0.514544 0.753766 0.0254204 0.441053 0.897121 0.536761 -0.843606 -0.0147603 
-0.918392 -0.36795 0.145493 -0.935771 0.0989978 0.338425 -0.910875 0.249483 0.328733 
-0.806975 0.461341 0.368723 -0.810206 0.443001 0.383819 0.586171 0.0564781 0.808216 
0.483402 0.19501 0.853401 -0.27659 -0.959532 0.0528747 -0.702765 -0.71101 0.0242119 
0.495182 -0.833722 0.244339 0.694099 -0.69816 0.175495 -0.901353 0.153947 0.404799 
-0.78157 0.322545 0.533959 -0.625731 0.415605 0.660101 -0.671668 0.480745 0.56369 
0.170517 -0.837181 -0.519665 -0.650108 0.393343 -0.650108 0.465829 0.606501 -0.644329 
0.650108 -0.393343 0.650108 -0.170517 0.837181 0.519665 -0.505123 -0.841039 0.19366 
-0.766646 -0.588327 0.257147 -0.893077 -0.41524 0.173175 0.815988 -0.417922 0.399381 
0.725956 -0.12018 0.677159 0.700088 0.127157 0.702644 -0.727022 0.41125 0.549829 
-0.613246 0.406482 0.677275 0.434532 0.272288 0.858511 0.0169636 0.447637 0.894054 
-0.465829 -0.606501 0.644329 -0.326704 -0.878956 0.34742 0.0332504 -0.981859 0.186674 
0.71552 -0.157764 0.680545 0.753276 -0.0994394 0.650144 0.556883 0.0917835 0.825504 
0.539754 0.315364 0.78052 -0.271072 0.464595 0.843014 -0.127356 0.438674 0.889576 
-0.540244 -0.716734 0.440941 0.260615 -0.861395 0.43598 -0.828043 -0.312744 0.465335 
0.628635 -0.430107 0.64794 -0.228013 -0.792827 0.565187 -0.486362 -0.462123 0.741549 
0.389395 -0.725649 0.567279 -0.627115 -0.415353 0.658945 -0.825068 -0.0774907 0.559695 
0.561991 -0.04641 0.82584 0.196054 0.3045 0.932117 -0.328219 -0.555868 0.763729 
0.139408 -0.679423 0.720382 0.0728666 -0.73829 0.670536 -0.00804415 -0.395476 0.918441 
0.146982 -0.524179 0.838828 -0.5486 -0.243011 0.79999 0.470044 -0.514558 0.717139 
-0.518971 -0.189222 0.833585 -0.559868 0.111945 0.820985 0.337976 0.0421603 0.94021 
-0.342089 0.39087 0.854515 -0.0587555 0.286684 0.956222 -0.0463147 -0.428778 0.902222 
-0.282856 -0.105276 0.953367 0.235953 -0.0667594 0.969468 0.391513 -0.174227 0.903528 
-0.35517 0.244374 0.902295 -0.118683 0.147489 0.981917 0.164459 0.178275 0.97014 
-0.217284 -0.138249 0.966268 0.0344278 -0.179635 0.983131 -0.384626 -0.401432 -0.831213 
-0.442722 -0.214246 -0.870687 -0.0691349 -0.372 -0.925655 -0.231804 -0.117073 -0.965692 
0.118164 -0.129514 -0.984512 0.353699 -0.311473 -0.881976 -0.494781 0.0729281 -0.865952 
-0.166956 0.113645 -0.979393 -0.0934137 -0.715643 -0.692192 -0.417776 -0.521324 -0.744099 
0.174683 -0.563665 -0.807321 -0.597781 -0.252441 -0.760875 -0.544977 -0.114217 -0.830635 
-0.666057 0.177018 -0.724591 -0.257367 0.332587 -0.907275 0.135308 0.149032 -0.979531 
0.233199 -0.851556 -0.469542 -0.550263 -0.423678 -0.719519 -0.723198 -0.417982 -0.549796 
-0.749097 -0.313217 -0.583736 0.539339 -0.602617 -0.588188 -0.764831 -0.0590096 -0.641523 
0.540762 -0.0948215 -0.835814 0.16957 0.222077 -0.960171 0.264207 0.449265 -0.853437 
-0.232329 -0.832322 -0.503253 -0.403211 -0.861089 -0.309752 -0.550659 -0.660771 -0.510055 
-0.777289 -0.521976 -0.351231 0.669435 -0.541747 -0.508298 0.735175 -0.283641 -0.615683 
0.453092 0.175016 -0.874115 0.598198 0.175496 -0.781895 -0.0277139 0.395622 -0.917995 
-0.138647 -0.942708 -0.303446 0.0987402 -0.97038 -0.220485 -0.858238 -0.342635 -0.382138 
-0.405701 0.338181 -0.849141 0.0344128 0.648246 -0.760653 0.337801 0.368211 -0.866205 
-0.682948 -0.726233 -0.0785366 -0.292917 -0.95529 -0.0402475 -0.785658 -0.592962 -0.176458 
0.47345 -0.876327 -0.0888623 0.554129 -0.778634 -0.294398 0.75965 -0.165763 -0.628852 
-0.546189 0.510758 -0.663931 -0.225295 0.769732 -0.59729 0.31208 0.361224 -0.878705 
-0.530278 -0.847369 0.0277888 -0.925523 -0.284243 -0.250225 0.820906 -0.512843 -0.251208 
0.878506 -0.146119 -0.454836 -0.869844 0.298304 -0.392919 -0.727099 0.423933 -0.540007 
0.201699 0.342384 -0.917655 -0.494794 -0.854161 0.159963 -0.147508 -0.917425 0.369557 
-0.015862 -0.990185 0.138861 0.258151 -0.964473 0.0561293 -0.64087 -0.736284 0.21719 
0.659873 -0.748478 -0.0659416 -0.941836 0.0235732 -0.335246 -0.899807 0.0911398 -0.426663 
-0.955217 0.128655 -0.266475 -0.867079 0.232062 -0.440819 0.481208 0.232366 -0.845248 
0.168917 0.318766 -0.93266 0 -0.178885 -0.98387 0 -1 0 
-0.961524 -0.274721 3.6843e-08 0.961524 -0.274721 3.6843e-08 -0.230598 0.405695 -0.884441 
0 0.447214 -0.894427 -0.588272 -0.751384 0.298928 -0.889292 -0.445244 0.104484 
0.876262 -0.458208 -0.149031 -0.613545 0.487115 -0.621516 0 -0.178885 0.98387 
-0.475353 0.303794 -0.825681 0.499486 0.193273 -0.844488 -0.456069 0.513318 -0.726984 
0.0253182 0.393276 -0.919072 0.226175 0.292654 -0.929085 0.780158 -0.625567 -0.0043378 
-0.945257 0.323911 -0.0396354 -0.96823 0.249628 0.0146945 0.679898 -0.0937287 -0.727292 
-0.737902 0.323354 -0.592404 -0.0836862 0.535812 -0.84018 0.335071 0.426712 -0.840026 
0.443085 -0.870018 0.216204 0.618165 -0.761757 0.193901 0.920102 -0.360764 -0.152517 
0.717565 -0.339496 -0.608147 0.81095 -0.252118 -0.528012 -0.829316 0.383878 -0.406045 
0.275595 0.572745 -0.772017 -0.518561 -0.673549 0.526712 0.719832 -0.675511 0.159773 
-0.99205 -0.0180655 0.124541 0.78486 -0.503195 -0.361649 -0.94413 0.170452 0.282074 
0.860122 -0.0128664 -0.509926 0.554837 0.464481 -0.690227 -0.208331 0.734661 -0.645656 
0.494062 0.62836 -0.600888 0.0747758 0.712401 -0.697778 -0.243642 -0.819818 0.518206 
0.113606 -0.871176 0.477647 0.814045 -0.57479 0.0833473 -0.911853 -0.126269 0.390616 
0.881903 -0.464087 -0.0828924 0.874009 -0.349069 -0.338021 0.779477 0.241901 -0.57784 
-0.829732 0.508003 -0.231253 0.319454 -0.81519 0.48313 0.796598 -0.545872 -0.259722 
0.778853 0.489282 -0.392417 -0.355172 0.731967 -0.581444 -0.248879 -0.727926 0.638891 
-0.614194 -0.495185 0.614456 0.0611353 -0.736509 0.67366 0.674796 -0.699656 0.234803 
-0.923612 0.331659 -0.192207 -0.777764 0.499036 -0.382159 -0.606349 0.673172 -0.423297 
0.527637 0.708292 -0.468959 0.965472 -0.216576 -0.144773 0.935938 0.268717 -0.227619 
0.288829 0.812567 -0.506272 -0.260482 -0.629212 0.732285 -0.758987 -0.2238 0.611434 
0.684689 -0.712818 0.15196 0.816545 -0.575413 0.0464057 0.894473 -0.357359 0.268723 
-0.964951 0.2281 0.129767 -0.692804 0.686525 -0.220695 0.428229 0.852197 -0.300633 
-0.303597 0.882527 -0.359131 0.0377977 0.852513 -0.521337 -0.423409 -0.489281 0.762449 
0.192014 -0.773303 0.604262 0.999238 0.0374301 0.0110284 0.960768 0.277063 -0.012698 
0.709685 0.696387 -0.106738 -0.639218 0.580923 -0.503914 -0.657613 0.743654 0.120518 
-0.366935 0.92701 -0.0775249 -0.516676 0.844304 -0.142116 -0.540624 0.820725 0.184761 
0.211458 0.958638 -0.190524 0.442694 -0.699815 0.560608 -0.776811 -0.176468 0.604503 
-0.853189 0.107771 0.510346 -0.939877 0.0827624 0.331334 -0.859877 0.510063 0.0211536 
0.550406 0.827467 -0.11114 0.0354155 0.999016 0.0266928 0.0272449 -0.659718 0.751019 
0.654802 -0.632481 0.413767 0.971624 -0.0863807 0.220192 -0.894594 -0.00753706 0.446817 
0.930092 0.332618 0.155865 -0.954664 0.290791 0.0636977 -0.195992 0.975006 0.104646 
-0.192396 -0.476479 0.857876 -0.62567 -0.179222 0.759221 -0.142164 -0.409137 0.901331 
0.34426 -0.558462 0.754722 -0.775029 0.0502315 0.629926 0.901599 -0.0597502 0.428427 
0.880358 0.473288 0.0311275 0.580784 0.807742 0.101207 0.342142 0.935576 0.0873847 
-0.371382 -0.298265 0.879269 -0.417776 -0.238483 0.876692 0.0732871 -0.482528 0.872809 
-0.583419 -0.160924 0.796069 0.600887 -0.534122 0.594683 0.812816 -0.329033 0.480694 
-0.666663 -0.058354 0.743071 -0.781507 -0.143379 0.607197 -0.822775 -0.135639 0.551945 
-0.720663 -0.204913 0.662311 0.780965 0.0941769 0.617434 0.870651 0.4169 0.261078 
-0.849319 0.460102 0.258773 0.173776 0.95788 0.228622 -0.168566 -0.321852 0.931663 
0.0762393 -0.341444 0.936805 0.662741 -0.32952 0.672451 -0.708549 -0.0936622 0.699418 
0.886591 0.304507 0.348185 -0.729748 0.602255 0.323661 -0.437666 0.868446 0.232917 
0.360453 -0.461608 0.81055 0.383224 -0.257651 0.886993 0.641322 -0.0573286 0.765127 
-0.442834 -0.214309 0.870615 0.642898 0.163148 0.748375 -0.852939 0.189657 0.486338 
0.804679 0.35717 0.474259 0.713153 0.625314 0.316853 -0.609516 0.67527 0.415331 
0.491349 0.785646 0.375947 0.348132 -0.0807401 0.933962 0.357261 -0.0275237 0.933599 
0.742151 0.170908 0.648076 0.783606 0.302248 0.542777 -0.197319 0.887293 0.416864 
0.268601 0.882807 0.385364 0.357833 -0.108965 0.927406 0.488617 -0.205601 0.847928 
0.687181 0.156375 0.709457 0.596343 0.513263 0.6172 -0.736853 0.395648 0.548188 
-0.624473 0.671572 0.398779 -0.422714 -0.226647 0.877465 -0.781178 0.233422 0.57903 
-0.156271 0.727827 0.667718 0.263878 0.766618 0.585376 0.341637 -0.024577 0.939511 
-0.600939 -0.00797291 0.799255 -0.432467 0.467028 0.771269 0.360297 0.430323 0.827653 
-0.0339626 -0.228391 0.972977 -0.356226 0.0460873 0.933263 0.20869 0.0935588 0.973496 
-0.0957552 -0.085978 0.991685 -0.432215 0.260478 0.863332 -0.349287 0.0623817 0.934937 
0.136597 0.00207648 0.990624 0.258602 0.263963 0.929219 0.206664 0.470352 0.857939 
0.204317 0.0910878 0.974658 -0.290497 0.518823 0.804011 -0.00493161 0.599787 0.800144 
-0.0769781 0.284474 0.955588 0 0.447214 0.894427 
