# vtk DataFile Version 4.2
vtk output
ASCII
DATASET POLYDATA
POINTS 860 float
312.585 133 110.266 314.376 133.128 110.3 312.059 134.047 110.307 
316.394 135.829 110.144 318.447 138.563 110.682 319.157 138.565 110.751 
319.49 138.598 110.853 319.722 138.418 110.888 318.67 138.881 110.887 
317.56 132.814 110.861 320.708 135.679 111.427 319.335 135.439 110.728 
318.65 135.664 110.47 320.947 136.229 111.552 321.005 136.938 111.734 
317.691 137.655 110.408 320.03 138.254 111.06 318.231 139.735 111.425 
318.6 139.762 111.502 318.783 139.87 111.713 319.552 139.356 111.495 
319.917 139.258 111.664 306.226 130.996 111.471 319.601 134.418 111.081 
310.267 135.381 110.934 321.116 135.99 111.76 321.318 135.904 112.128 
312.993 137.381 110.935 320.735 138.336 111.74 317.155 139.682 111.379 
317.149 140.042 111.643 320.798 138.343 111.897 317.77 140.248 111.879 
317.96 140.417 112.208 318.694 140.088 112.115 319.637 139.628 112.075 
301.149 129.218 112.64 319.162 130.686 112.544 305.713 132.824 111.68 
320.957 132.979 112.701 305.831 134.025 111.881 320.653 134.032 111.941 
321.073 133.429 112.663 321.579 135.421 112.665 309.312 137.496 112.035 
320.772 138.508 112.512 319.908 139.475 112.301 317.373 140.638 112.525 
317.772 140.628 112.408 317.939 140.585 112.432 318.256 140.419 112.573 
317.822 140.661 112.462 299.219 131.092 113.101 321.214 132.378 113.419 
305.394 135.75 112.546 321.615 135.172 112.974 321.457 136.546 113.317 
321.23 137.427 113.151 310.908 140.188 113.308 317.789 140.623 113.082 
318.232 127.352 114.366 298.977 135.036 114.176 318.588 140.095 114.246 
310.553 140.902 114.166 314.483 141.215 113.721 312.685 141.634 114.894 
314.468 141.539 114.703 315.13 141.335 114.033 316.938 140.96 113.898 
314.853 141.474 114.443 315.289 141.412 114.425 289.5 124.232 115.74 
319.619 127.523 115.095 321.395 136.059 115.163 320.813 137.746 114.607 
305.053 140.276 115.407 308.488 141.039 115.082 309.895 141.396 115.177 
309.448 141.449 115.509 312.174 141.807 115.443 312.5 141.865 115.36 
312.747 141.807 115.245 313.223 141.714 115.338 315.639 141.339 114.692 
312.615 141.864 115.321 289.16 122.252 116.501 295.68 121.798 116.039 
285.484 123.59 117.493 285.392 123.559 117.556 285.661 123.571 117.43 
287.02 124.226 116.756 285.482 123.771 117.549 288.317 129.462 116.519 
290.517 132.755 116.393 321.938 133.198 115.852 321.764 134.177 116.188 
296.609 137.357 116.1 295.332 137.68 117.009 297.702 138.158 116.228 
297.38 138.488 116.617 298.184 138.969 116.672 298.655 138.841 116.398 
319.131 139.108 115.696 299.748 139.308 116.431 300 143.009 116.017 
300 143.009 116.017 300 143.009 116.017 300 143.009 116.017 
300 143.009 116.017 306.472 141.477 116.67 306.749 141.353 116.199 
307.293 141.462 116.274 310.623 141.751 116.08 311.224 141.857 115.915 
312.043 141.876 115.854 312.643 141.764 115.948 312.653 141.833 115.44 
306.661 141.471 116.476 311.481 141.906 116.015 311.75 141.91 115.995 
289.34 122.035 116.544 289.67 121.374 116.891 316.977 122.666 117.758 
320.987 125.455 118.208 287.318 130.502 117.835 321.939 130.191 117.019 
322.043 131.753 117.513 288.926 133.201 117.801 321.303 134.699 117.388 
289.998 134.986 118.564 292.978 137.253 118.4 296.841 138.666 117.233 
297.774 138.879 116.802 317.821 139.475 116.836 297.218 139.194 118.044 
299.067 139.801 117.522 299.572 139.893 117.348 299.44 139.971 117.662 
300 143.009 116.018 301.315 140.398 117.28 314.787 141.177 116.473 
306.892 141.536 116.654 311.091 141.758 116.569 311.581 141.871 116.222 
285.786 127.675 118.091 286.013 128.725 118.325 287.332 131.647 118.624 
321.907 132.286 117.907 289.52 134.723 119.251 294.188 137.782 118.563 
299.548 140.038 118.003 306.828 141.483 117.393 308.583 141.54 117.464 
284.732 119.274 119.529 291.821 118.306 119.151 282.712 120.613 120.002 
282.682 122.992 119.914 319.49 122.654 119.595 283.497 126.191 120.152 
288.065 132.981 119.068 289.129 134.315 119.583 319.07 136.629 119.028 
294.664 138.004 119.013 301.061 140.259 119.553 311.247 141.012 118.618 
285.405 117.409 120.801 281.34 122.955 121.275 281.697 124.4 121.424 
284 132.009 120.017 284 132.009 120.017 284 132.009 120.017 
284 132.009 120.017 284 132.009 120.017 292.874 137.077 119.829 
306.582 140.855 119.523 282.734 117.513 121.623 320.376 122.354 121.271 
321.478 124.643 120.303 284 132.009 120.018 321.153 132.179 120.601 
289.9 134.904 120.587 312.021 117.582 121.373 318.363 120.28 121.695 
319.947 121.556 121.934 281.663 125.352 122.296 282.361 126.608 122.771 
286.408 131.092 121.943 316.821 136.3 121.68 295.551 137.452 121.672 
280.372 116.7 123.67 315.358 116.881 123.866 276.883 120.208 124.957 
276.855 120.12 125.034 277.044 120.166 124.878 278.709 120.637 123.421 
276.891 120.259 124.947 278.386 121.506 123.767 321.025 122.86 122.068 
321.735 127.891 122.923 290.017 133.82 123.14 284.626 114.451 124.58 
297.02 114.564 124.217 278.021 117.967 124.838 277.485 119.551 124.707 
276.892 120.376 124.979 277.07 120.54 124.88 278.249 121.639 124.004 
278.641 122.724 124.159 321.789 124.727 123.323 280.029 124.491 124.071 
280.444 115.256 125.359 317.204 117.518 124.758 318.998 119.212 124.706 
278.404 123.229 124.964 279.9 125.015 125.418 284.189 128.635 125.279 
319.445 130.783 125.015 310.206 113.394 126.485 281.271 114.142 126.943 
318.151 117.875 125.552 318.544 118.425 125.499 275.981 119.663 126.348 
278.224 123.456 125.551 280.192 125.524 126.231 281.312 113.807 127.536 
313.64 113.865 127.239 315.51 115.237 126.74 317.796 117.356 126.283 
274.138 120.565 128.37 320.65 121.684 125.745 274.901 120.996 127.675 
278.379 124.625 127.761 320.783 127.44 125.933 280.299 113.969 128.084 
281.248 113.784 127.679 318.104 117.434 127.59 274.222 119.262 128.828 
274.641 120.634 127.92 320.755 122.316 126.631 289.219 112.513 128.931 
308.167 111.648 129.037 282.739 113.129 128.849 315.824 114.666 128.705 
317.16 116.108 128.617 318.407 117.871 128.581 274.117 118.068 129.965 
272.958 120.403 129.821 320.386 122.483 127.95 270.584 122.537 131.829 
270.574 122.483 131.879 274.475 122.403 129.03 270.647 122.563 131.823 
280.18 125.915 129.447 309.908 111.373 130.061 299.204 111.485 130.401 
313.418 112.862 128.882 318.336 117.964 129.388 271.631 121.464 131.12 
272.387 121.454 130.468 270.567 122.407 132.11 271.522 122.399 131.418 
272.891 122.062 130.27 320.083 123.264 128.797 270.714 122.642 132.107 
270.832 122.545 131.789 271.975 122.552 131.269 277.003 115.056 131.154 
319.147 120.761 130.081 270.768 121.988 131.877 271.048 122.332 131.646 
270.427 122.363 132.527 271.239 122.634 131.753 319.301 123.688 129.907 
271.538 123.01 132.191 304.992 133.044 130.983 311.139 111.331 131.719 
314.281 112.889 130.977 315.49 114.024 130.696 273.321 117.376 132.411 
270.612 120.576 132.503 271.655 123.339 132.848 318.331 123.864 131.04 
307.367 110.43 132.099 309.9 110.786 132.816 311.669 111.555 132.679 
310.431 110.867 132.845 312.962 112.252 132.294 317.586 117.736 131.294 
269.959 120.438 133.898 317.57 120.278 132.16 270.024 122.057 134.097 
279.293 125.617 133.083 307.301 131.168 132.572 308.736 110.457 133.691 
292.866 111.25 133.694 313.385 112.695 132.775 314.364 113.207 132.079 
269.658 120.924 134.728 315.785 121.425 133.752 270.353 122.704 134.709 
270.994 123.28 134.615 283.88 126.818 134.008 292.332 129.497 133.448 
312.072 127.657 133.56 303.762 109.97 135.385 309.249 110.789 134.348 
310.546 111.407 134.437 298.709 110.412 135.348 312.881 113.462 134.314 
314.753 114.523 133.195 274.796 115.783 134.471 315.711 116.725 133.383 
269.929 119.506 135.297 269.488 119.702 136.261 269.379 120.057 136.085 
269.818 119.935 134.879 269.418 120.382 135.743 269.51 120.912 135.437 
314.013 123.705 134.354 295.561 129.889 134.31 309.484 111.016 134.854 
309.66 111.171 135.018 311.639 111.912 133.987 312.098 112.946 134.627 
313.641 118.053 135.335 269.203 120.206 136.769 308.924 126.02 135.883 
306.453 110.366 135.719 309.473 111.208 135.215 294.41 110.818 136.375 
269.598 119.128 137.335 303.383 110.099 136.699 306.162 110.799 136.728 
274.46 115.718 137.554 269.339 119.295 138.069 269.233 119.595 138.052 
269.171 120.088 138.025 270.801 123.097 138.105 304.005 110.282 137.012 
306.903 112.684 138.502 308.827 116.014 138.296 269.303 119.346 138.414 
269.337 121.086 139.09 269.469 121.363 139.113 302.556 125.006 138.868 
289.174 126.873 137.803 304.974 111.499 138.607 270.722 117.778 139.886 
306.82 119.034 139.352 269.286 120.567 139.62 295.767 110.82 140.509 
302.204 110.624 138.695 298.509 110.915 140.557 304.087 111.72 139.378 
304.462 112.823 140.002 305.724 113.583 139.668 269.456 119.249 139.907 
269.64 118.994 140.124 269.897 118.771 140.401 270.367 118.41 140.659 
269.533 120.317 140.44 289.764 125.502 140.853 293.696 125.331 140.703 
298.572 111.085 141.058 300.073 111.046 140.307 302.97 113.715 141.32 
269.517 119.478 140.451 301.923 120.422 141.538 270.589 121.13 141.427 
271.888 122.384 141.258 282.238 124.881 141.145 297.147 111.276 141.798 
299.226 111.542 141.519 272.054 117.435 141.782 270.18 119.095 141.433 
270.002 119.394 141.325 270.365 119.901 141.844 270.764 120.654 142.026 
297.127 111.824 142.511 276.98 115.364 143.618 271.605 118.196 142.48 
277.301 123.023 143.361 286.985 124.13 143.436 286.55 113.214 144.359 
271.786 118.563 143.103 272.998 118.136 144.237 272.672 120.015 143.96 
294.946 112.256 143.592 295.883 112.524 143.638 289.648 112.966 144.518 
296.008 113.42 144.315 297.194 114.638 144.408 279.755 115.014 145.147 
273.479 117.864 144.821 275.059 116.747 145.011 273.954 119.07 145.389 
291.307 121.295 145.334 293.055 117.467 146.187 273.833 118.221 145.384 
273.811 118.46 145.38 277.575 119.751 146.681 281.553 120.22 146.893 
289.172 120.654 146.303 285.211 121.58 146.157 289.35 114.421 146.269 
289.096 114.731 146.546 283.435 114.962 146.327 290.418 114.839 146.423 
[...]
POINT_DATA 860
SCALARS scalars float
LOOKUP_TABLE default
1 1 1 1 1 1 1 1 1 
1 1 1 1 1 1 1 1 1 
1 1 1 1 1 1 1 1 1 
1 1 1 1 1 1 1 1 1 
1 1 1 1 1 1 1 1 1 
1 1 1 1 1 1 1 1 1 
1 1 1 1 1 1 1 1 1 
1 1 1 1 1 1 1 1 1 
1 1 1 1 1 1 1 1 1 
1 1 1 1 1 1 1 1 1 
1 1 1 1 1 1 1 1 1 
1 1 1 1 1 1 1 1 1 
1 1 1 1 1 1 1 1 1 
1 1 1 1 1 1 1 1 1 
1 1 1 1 1 1 1 1 1 
1 1 1 1 1 1 1 1 1 
1 1 1 1 1 1 1 1 1 
1 1 1 1 1 1 1 1 1 
1 1 1 1 1 1 1 1 1 
1 1 1 1 1 1 1 1 1 
1 1 1 1 1 1 1 1 1 
1 1 1 1 1 1 1 1 1 
1 1 1 1 1 1 1 1 1 
1 1 1 1 1 1 1 1 1 
1 1 1 1 1 1 1 1 1 
1 1 1 1 1 1 1 1 1 
1 1 1 1 1 1 1 1 1 
1 1 1 1 1 1 1 1 1 
1 1 1 1 1 1 1 1 1 
1 1 1 1 1 1 1 1 1 
1 1 1 1 1 1 1 1 1 
1 1 1 1 1 1 1 1 1 
1 1 1 1 1 1 1 1 1 
1 1 1 1 1 1 1 1 1 
1 1 1 1 1 1 1 1 1 
1 1 1 1 1 1 1 1 1 
1 1 1 1 1 1 1 1 1 
1 1 1 1 1 1 1 1 1 
1 1 1 1 1 1 1 1 1 
1 1 1 1 1 1 1 1 1 
1 1 1 1 1 1 1 1 1 
1 1 1 1 1 1 1 1 1 
1 1 1 1 1 1 1 1 1 
1 1 1 1 1 1 1 1 1 
1 1 1 1 1 1 1 1 1 
1 1 1 1 1 1 1 1 1 
1 1 1 1 1 1 1 1 1 
1 1 1 1 1 1 1 1 1 
1 1 1 1 1 1 1 1 1 
1 1 1 1 1 1 1 1 1 
1 1 1 1 1 1 1 1 1 
1 1 1 1 1 1 1 1 1 
1 1 1 1 1 1 1 1 1 
1 1 1 1 1 1 1 1 1 
1 1 1 1 1 1 1 1 1 
1 1 1 1 1 1 1 1 1 
1 1 1 1 1 1 1 1 1 
1 1 1 1 1 1 1 1 1 
1 1 1 1 1 1 1 1 1 
1 1 1 1 1 1 1 1 1 
1 1 1 1 1 1 1 1 1 
1 1 1 1 1 1 1 1 1 
1 1 1 1 1 1 1 1 1 
1 1 1 1 1 1 1 1 1 
1 1 1 1 1 1 1 1 1 
1 1 1 1 1 1 1 1 1 
1 1 1 1 1 1 1 1 1 
1 1 1 1 1 1 1 1 1 
1 1 1 1 1 1 1 1 1 
1 1 1 1 1 1 1 1 1 
1 1 1 1 1 1 1 1 1 
1 1 1 1 1 1 1 1 1 
1 1 1 1 1 1 1 1 1 
1 1 1 1 1 1 1 1 1 
1 1 1 1 1 1 1 1 1 
1 1 1 1 1 1 1 1 1 
1 1 1 1 1 1 1 1 1 
1 1 1 1 1 1 1 1 1 
1 1 1 1 1 1 1 1 1 
1 1 1 1 1 1 1 1 1 
1 1 1 1 1 1 1 1 1 
1 1 1 1 1 1 1 1 1 
1 1 1 1 1 1 1 1 1 
1 1 1 1 1 1 1 1 1 
1 1 1 1 1 1 1 1 1 
1 1 1 1 1 1 1 1 1 
1 1 1 1 1 1 1 1 1 
1 1 1 1 1 1 1 1 1 
1 1 1 1 1 1 1 1 1 
1 1 1 1 1 1 1 1 1 
1 1 1 1 1 1 1 1 1 
1 1 1 1 1 1 1 1 1 
1 1 1 1 1 1 1 1 1 
1 1 1 1 1 1 1 1 1 
1 1 1 1 1 1 1 1 1 
1 1 1 1 1 
NORMALS Normals float
-0.0374313 -0.30947 -0.950172 0.0253599 -0.240283 -0.970372 -0.150721 0.0589327 -0.986818 
0.0384589 -0.11668 -0.992425 -0.11578 0.266403 -0.956883 0.172275 0.219605 -0.960258 
0.394141 0.542034 -0.742194 0.354734 0.0601715 -0.933029 -0.00789605 0.616005 -0.787703 
0.222298 -0.312917 -0.923399 0.592442 -0.144437 -0.79256 0.365608 -0.180093 -0.91318 
0.278099 -0.0988953 -0.955448 0.661908 0.122447 -0.739517 0.682154 0.1256 -0.720341 
-0.0773754 0.335854 -0.938731 0.605964 0.344247 -0.717148 0.0799412 0.706074 -0.703611 
0.248565 0.707007 -0.662085 0.23606 0.821862 -0.518478 0.339712 0.690822 -0.638248 
0.616555 0.638819 -0.460185 -0.0566332 -0.126567 -0.99034 0.42275 -0.407901 -0.809259 
-0.260217 0.229047 -0.93799 0.809102 -0.110777 -0.577133 0.936182 0.136442 -0.323956 
-0.121756 0.283359 -0.951253 0.800616 0.411009 -0.435988 -0.101634 0.572433 -0.813628 
-0.104747 0.679167 -0.726472 0.86701 0.43594 -0.241349 0.0590992 0.775818 -0.628183 
0.241472 0.793566 -0.55852 0.300248 0.867596 -0.396394 0.463115 0.812332 -0.354459 
-0.125795 -0.163053 -0.978565 0.330045 -0.505565 -0.797166 -0.244191 0.157585 -0.956837 
0.522431 -0.477288 -0.706585 -0.233441 0.192264 -0.953174 0.617123 -0.289542 -0.731659 
0.763973 -0.296806 -0.572932 0.819495 -0.22303 -0.527907 -0.260925 0.446805 -0.855736 
0.773395 0.632164 -0.0472187 0.6441 0.764777 0.0158872 -0.00239366 0.921997 -0.387188 
0.0603127 0.759613 -0.647573 0.421776 0.770241 -0.478366 0.484463 0.866584 -0.1197 
0.241806 0.93745 -0.250433 -0.211673 0.158646 -0.964379 0.738668 -0.387186 -0.551775 
-0.303763 0.406324 -0.861759 0.990949 0.115774 -0.0679439 0.974009 0.222478 -0.0425521 
0.965314 0.245808 -0.0880205 -0.212251 0.605386 -0.76711 0.323519 0.945621 0.0337081 
0.385124 -0.567737 -0.727567 -0.257707 0.295871 -0.919808 0.534085 0.823124 0.192925 
-0.158641 0.83261 -0.530653 -0.0733284 0.848704 -0.523759 -0.00471481 0.88617 -0.463336 
0.0355163 0.970798 -0.237254 0.127317 0.931052 -0.341955 0.330376 0.943078 0.0381622 
0.113302 0.992211 -0.0517668 0.241043 0.955084 -0.172374 -0.207839 -0.128563 -0.969678 
0.64083 -0.464487 -0.611219 0.941649 0.280992 0.185311 0.798969 0.501763 0.331486 
-0.222102 0.719845 -0.657643 -0.319741 0.776395 -0.543117 -0.184518 0.900944 -0.392751 
-0.359008 0.918519 -0.165639 -0.0964668 0.961258 -0.258219 -0.11151 0.990328 -0.0825602 
0.263758 0.937919 -0.225254 0.198531 0.978909 -0.0481966 0.271879 0.962328 0.00267256 
0.0243257 0.937122 -0.348154 -0.379296 -0.382445 -0.842538 -0.0150724 -0.524856 -0.851058 
-0.44873 -0.019099 -0.893463 -0.55538 -0.170081 -0.814018 -0.382233 -0.176618 -0.90703 
-0.493385 0.0739217 -0.866664 -0.512896 0.254861 -0.819746 -0.490372 0.171536 -0.854465 
-0.433557 0.397028 -0.808948 0.9933 0.107923 0.0413308 0.943271 0.245148 0.223923 
-0.282019 0.477607 -0.83208 -0.414039 0.77128 -0.483424 -0.327215 0.444332 -0.833966 
-0.480571 0.61907 -0.621131 -0.310834 0.75941 -0.571558 -0.264291 0.625727 -0.733905 
0.57741 0.697622 0.424172 -0.233058 0.599704 -0.765532 0 -0.147947 -0.988995 
0 -0.992395 -0.123095 -0.905319 -0.41558 -0.0877036 0.905319 -0.41558 -0.0877036 
0 0.351123 -0.936329 -0.271 0.952428 -0.139423 -0.190582 0.84572 -0.498433 
-0.0523149 0.951232 -0.304006 -0.202127 0.974242 0.0999833 -0.144407 0.978308 -0.148528 
0.154365 0.962469 0.223213 0.131253 0.968635 0.210993 0.14436 0.97504 0.168694 
-0.195272 0.915998 -0.350452 -0.116356 0.992567 0.0356731 0.0439528 0.997998 -0.0454758 
-0.175795 -0.456862 -0.871994 -0.146841 -0.544811 -0.825602 0.279418 -0.671992 -0.685822 
0.800265 -0.382284 -0.461989 -0.671187 0.356455 -0.64996 0.970064 -0.202229 -0.134461 
0.977328 -0.0336568 0.209038 -0.690299 0.542302 -0.478953 0.908909 0.284116 0.305224 
-0.587861 0.726315 -0.356211 -0.486169 0.852873 -0.190388 -0.468372 0.652457 -0.595758 
-0.36578 0.679193 -0.636319 0.535162 0.682336 0.498015 -0.396683 0.898353 -0.188695 
-0.419401 0.87121 -0.255139 -0.220739 0.896166 -0.384917 -0.20971 0.955445 -0.207717 
0 -0.278862 0.960331 -0.242956 0.92035 -0.306476 0.265278 0.879059 0.396083 
-0.0258548 0.988252 -0.15063 -0.0723518 0.954479 0.289371 0.0300671 0.957271 0.287626 
-0.583833 0.207176 -0.784995 -0.652264 0.348829 -0.672957 -0.751274 0.534271 -0.387481 
0.964746 0.135814 0.22543 -0.695348 0.709233 -0.116099 -0.436196 0.899528 0.0241314 
-0.364415 0.929247 0.0608471 -0.0640666 0.978965 0.193709 -0.0222557 0.980381 0.195851 
-0.340905 -0.510318 -0.789531 0.0143233 -0.796299 -0.604734 -0.542082 -0.273057 -0.794724 
-0.622794 0.163242 -0.765166 0.609834 -0.607799 -0.508609 -0.715408 0.283087 -0.63879 
-0.774292 0.615989 -0.145013 -0.765569 0.641454 -0.0494045 0.575885 0.616027 0.537464 
-0.448584 0.893139 0.0327957 -0.274916 0.892548 0.357463 0.0394226 0.901262 0.431477 
-0.232438 -0.649202 -0.724231 -0.715895 0.0736199 -0.694316 -0.649961 0.424603 -0.630288 
0 -0.147947 -0.988995 0 -0.992395 -0.123095 -0.905319 -0.41558 -0.0877036 
0.905319 -0.41558 -0.0877036 0 0.351123 -0.936329 -0.422144 0.879149 0.221116 
-0.107846 0.919462 0.3781 -0.385429 -0.548031 -0.742365 0.744232 -0.538171 -0.39559 
0.907973 -0.321809 -0.268374 0 -0.278862 0.960331 0.806538 0.443292 0.391138 
-0.574455 0.782036 0.241704 0.115979 -0.771876 -0.625105 0.490564 -0.704477 -0.512893 
0.616413 -0.682168 -0.393296 -0.653888 0.495804 -0.571497 -0.75284 0.556243 -0.351889 
-0.693481 0.707524 0.135992 0.479358 0.660147 0.578292 -0.388492 0.852852 0.34888 
-0.431161 -0.629113 -0.646774 0.440454 -0.753795 -0.48764 -0.744902 -0.141804 -0.65193 
-0.635963 -0.353719 -0.685882 -0.456587 -0.0800725 -0.886068 -0.66201 -0.128188 -0.738452 
-0.611128 0.0934524 -0.785996 -0.733714 0.245496 -0.633558 0.845742 -0.482112 -0.228665 
0.930287 0.230242 0.285577 -0.575397 0.74053 0.347179 -0.110807 -0.846504 -0.520724 
-0.0142323 -0.883803 -0.467643 -0.62966 -0.402119 -0.664702 -0.606724 -0.220401 -0.763747 
-0.723453 0.188026 -0.664276 -0.631124 0.152947 -0.760454 -0.798358 0.223966 -0.558984 
-0.763287 0.336662 -0.551408 0.993984 -0.0848344 0.069277 -0.6643 0.59054 -0.458222 
-0.342943 -0.783729 -0.51784 0.569796 -0.703308 -0.425077 0.702246 -0.64038 -0.311071 
-0.706841 0.57856 -0.406994 -0.629658 0.733559 -0.255776 -0.45078 0.886915 0.10089 
0.688367 0.492848 0.532213 0.142922 -0.790054 -0.596145 -0.170462 -0.843016 -0.510163 
0.747127 -0.645126 -0.160042 0.778043 -0.607012 -0.161817 -0.753394 -0.316923 -0.576157 
-0.719463 0.477924 -0.503946 -0.655916 0.730088 -0.19169 -0.263202 -0.883717 -0.387 
0.39496 -0.806121 -0.440654 0.498741 -0.759251 -0.418086 0.59233 -0.766373 -0.248633 
-0.730641 0.0202035 -0.682463 0.880669 -0.465182 0.0895962 -0.694295 0.0657393 -0.716682 
-0.500439 0.809971 -0.305792 0.871091 0.227307 0.435353 -0.379162 -0.879251 -0.288364 
-0.357946 -0.879816 -0.312726 0.756214 -0.651137 -0.0645114 -0.682745 -0.3641 -0.633475 
-0.468063 -0.310473 -0.82736 0.928892 -0.294708 0.22429 -0.0490929 -0.919022 -0.391138 
-0.0386681 -0.897203 -0.439923 -0.117987 -0.973053 -0.19811 0.660169 -0.744821 -0.0970482 
0.754123 -0.656204 -0.0263631 0.857548 -0.500066 0.120603 -0.645626 -0.62352 -0.440897 
-0.716109 0.0306098 -0.697316 0.906659 -0.189761 0.376775 -0.700151 0.444914 -0.558426 
-0.963479 -0.159543 -0.215068 -0.655983 0.447132 -0.608078 -0.232868 0.677972 -0.697228 
-0.536654 0.843046 -0.0357133 0.252854 -0.913619 -0.318378 -0.0657309 -0.937451 -0.341857 
0.474902 -0.823722 -0.309757 0.837099 -0.494078 0.234846 -0.595527 0.0307173 -0.802748 
-0.657395 0.080571 -0.749227 -0.975967 0.030723 -0.215743 -0.367934 0.52297 -0.768848 
-0.525993 0.434563 -0.731085 0.86134 -0.0595035 0.504533 -0.643239 0.758721 -0.102889 
-0.162175 0.531032 -0.831688 -0.446439 0.526494 -0.72353 -0.555655 -0.777136 -0.295478 
0.88325 -0.202182 0.423074 -0.76828 -0.214018 -0.603277 -0.404362 0.248523 -0.880186 
-0.847941 0.501455 -0.17187 -0.232767 0.657418 -0.716673 0.803512 0.0195809 0.594966 
-0.316219 0.825949 -0.466706 0.187433 0.797065 0.57407 0.378556 -0.902908 -0.203597 
0.543242 -0.839511 0.0104747 0.726893 -0.686658 -0.0112867 -0.688937 -0.622378 -0.371499 
-0.79236 -0.28056 -0.541713 -0.339413 0.933233 -0.117792 0.683393 0.263806 0.680721 
0.0616721 -0.982472 -0.175914 0.217794 -0.973916 -0.0636579 0.580556 -0.789362 0.199653 
0.330951 -0.942048 0.0549255 0.481499 -0.869747 0.108163 0.834216 -0.364823 0.413506 
-0.905623 -0.216714 -0.364531 0.78566 -0.0236595 0.618206 -0.937624 0.285279 -0.19869 
-0.326317 0.943621 -0.0556427 0.232384 0.733649 0.638558 0.229724 -0.949709 0.212789 
-0.166241 -0.975627 -0.143234 0.534602 -0.765136 0.358843 0.730806 -0.59364 0.336918 
-0.960753 0.1862 -0.205628 0.567986 0.0894189 0.818166 -0.826985 0.559185 -0.0583756 
-0.471437 0.879897 -0.0593975 -0.228581 0.94803 0.221339 -0.195177 0.920668 0.338049 
0.468787 0.59324 0.65445 0.0285611 -0.999503 -0.0133093 0.300071 -0.91517 0.269111 
0.440174 -0.825365 0.353582 -0.0547472 -0.998261 0.0218381 0.578739 -0.540158 0.610975 
0.746556 -0.464252 0.476576 -0.455791 -0.878339 -0.144135 0.729846 -0.267477 0.629112 
-0.76374 -0.588274 -0.265772 -0.851987 -0.441888 -0.280806 -0.959094 -0.174551 -0.222869 
-0.864058 -0.382696 -0.327028 -0.929791 -0.230772 -0.286764 -0.967692 0.194756 -0.160134 
0.53723 0.271063 0.798692 -0.23296 0.843079 0.484714 0.284802 -0.89309 0.348249 
0.498827 -0.766845 0.403882 0.655824 -0.671191 0.345539 0.583197 -0.57772 0.571071 
0.554271 -0.0889522 0.82757 -0.983418 -0.132622 -0.123697 0.370186 0.366742 0.8535 
0.180761 -0.956454 0.229176 0.252423 -0.795356 0.551082 -0.20871 -0.977137 -0.0405316 
-0.687047 -0.718113 -0.110817 0.0574369 -0.961003 0.270507 0.324039 -0.798723 0.50699 
-0.418779 -0.908057 -0.00752757 -0.800681 -0.513538 -0.308526 -0.875222 -0.230461 -0.425292 
-0.985993 0.0266965 -0.164638 -0.412382 0.894415 0.173096 0.248161 -0.885585 0.392626 
0.503068 -0.518846 0.691173 0.550147 -0.0462043 0.833789 -0.849128 -0.524635 0.0611514 
-0.984563 0.173295 -0.0245722 -0.829272 0.544883 0.124137 0.301866 0.512532 0.803858 
-0.165826 0.914339 0.369439 0.426274 -0.668782 0.609115 -0.653381 -0.754666 0.0597645 
0.465275 0.101722 0.879302 -0.970884 0.155129 0.182537 -0.134436 -0.956182 0.260084 
0.214279 -0.812934 0.541501 0.11207 -0.962178 0.248301 0.254041 -0.73763 0.625591 
0.452179 -0.369263 0.811898 0.437394 -0.281853 0.853959 -0.937666 -0.342511 0.0588905 
-0.768667 -0.627548 0.123833 -0.769588 -0.572615 0.282571 -0.658944 -0.707997 0.254033 
-0.897492 0.193112 0.396505 -0.0329042 0.860853 0.507788 0.0827117 0.76014 0.644473 
0.223603 -0.898056 0.378811 0.164808 -0.906278 0.389229 0.400255 -0.482608 0.779028 
-0.902502 -0.265071 0.339451 0.355548 0.402044 0.843769 -0.74659 0.445518 0.494082 
-0.291496 0.886617 0.359083 -0.133031 0.907987 0.397318 0.015864 -0.915335 0.40238 
0.297447 -0.748657 0.592485 -0.518013 -0.797251 0.309924 -0.743788 -0.41852 0.521173 
-0.8573 -0.0875855 0.507312 -0.787563 -0.0140451 0.616074 -0.566566 0.480574 0.669366 
0.110999 -0.730431 0.673907 -0.296838 -0.923554 0.242767 -0.655714 -0.554311 0.512619 
-0.207239 0.777241 0.594095 0.0276519 0.824356 0.565396 -0.159978 -0.889041 0.428968 
-0.682781 -0.365486 0.632637 -0.784952 -0.272147 0.556584 -0.610543 0.316518 0.725984 
0.0969428 -0.762807 0.639318 0.254007 -0.714618 0.651769 -0.0284441 -0.79333 0.608127 
0.226075 -0.511082 0.829268 0.398453 -0.349555 0.847966 -0.245494 -0.876317 0.414489 
-0.723047 -0.430566 0.5402 -0.520565 -0.74658 0.414284 -0.618065 0.160392 0.769591 
0.23051 0.595703 0.769417 0.321741 0.0584728 0.94502 -0.705661 -0.168466 0.688231 
-0.722806 0.0127961 0.690933 -0.179946 0.48331 0.856756 -0.0629986 0.338258 0.938942 
0.186134 0.503096 0.843948 -0.036181 0.603202 0.796767 0.0953519 -0.631604 0.769405 
-0.0325401 -0.647194 0.761631 -0.0954637 -0.679385 0.727546 0.195112 -0.497802 0.845059 
-0.40395 -0.679308 0.61267 -0.573146 -0.288347 0.767046 -0.4579 0.146633 0.876828 
-0.0497282 0.221317 0.973933 -0.366211 0.548818 0.751458 0.171242 0.262016 0.949749 
-0.300296 0.239214 0.923363 -0.167145 -0.680272 0.713647 0.230198 -0.228083 0.946038 
-0.348728 -0.532669 0.771137 -0.233603 -0.648218 0.724737 -0.513061 -0.171569 0.841031 
-0.510144 -0.308755 0.80276 -0.351081 -0.200556 0.914614 -0.0136355 -0.283129 0.958985 
0.146782 0.00163412 0.989168 -0.14533 -0.0503721 0.9881 -0.0648061 0.0589702 0.996154 
-0.0256548 0.0418127 0.998796 -0.0157076 0.154759 0.987827 -0.0326771 0.374624 0.926601 
-0.00280448 -0.326904 0.945053 -0.0974783 -0.440304 0.892542 -0.175241 -0.21955 0.959734 
-0.107067 -0.0509523 0.992945 -0.112064 -0.0990265 0.988754 -0.197479 -0.510469 -0.836913 
0.0853085 -0.316569 -0.944726 -0.172142 -0.185597 -0.96743 -0.216127 -0.430271 -0.876445 
0.435189 -0.604401 -0.667316 -0.164362 -0.730187 -0.663183 0.151104 -0.451832 -0.879213 
-0.315637 -0.37761 -0.870508 -0.351829 -0.165703 -0.921281 -0.0867609 -0.394904 -0.914617 
-0.235211 -0.572221 -0.785646 -0.176884 -0.170679 -0.96932 0.0116209 -0.24194 -0.970222 
-0.085197 -0.260997 -0.961573 0.172862 0.116496 -0.978033 0.0243313 -0.0342822 -0.999116 
-0.0542157 -0.0509722 -0.997227 -0.0158547 -0.619886 -0.784531 -0.11556 -0.684301 -0.719984 
0.0769215 -0.530446 -0.844221 0.0318949 -0.233271 -0.971888 -0.0793333 -0.662026 -0.745271 
-0.181278 -0.744408 -0.642648 -0.336675 -0.392044 -0.856126 -0.436527 -0.181026 -0.881291 
-0.309949 -0.140123 -0.940371 -0.149092 -0.0783304 -0.985716 -0.13995 0.235567 -0.961729 
0.208608 0.0482933 -0.976806 -0.226416 0.111419 -0.967637 0.107251 0.139295 -0.984426 
0.172751 -0.466492 -0.867492 -0.462064 -0.597384 -0.65546 -0.494014 -0.421144 -0.76065 
-0.582142 -0.320354 -0.747318 -0.505794 -0.25231 -0.824931 -0.545038 -0.243873 -0.80216 
-0.551028 0.120965 -0.825672 -0.424624 -0.0137644 -0.905265 -0.368932 0.198743 -0.907959 
0.135333 0.511155 -0.848767 0.00316506 -0.720958 -0.692971 0.356181 -0.0884478 -0.930222 
-0.61032 -0.584586 -0.534572 -0.609674 -0.0108237 -0.792578 0.246321 0.539234 -0.805328 
-0.185418 0.588075 -0.787266 0.124857 -0.765034 -0.631771 -0.287441 -0.831311 -0.475709 
-0.46217 -0.82383 -0.328181 -0.638065 -0.491304 -0.592868 -0.665671 0.18109 -0.723939 
-0.385913 0.528222 -0.756342 -0.0807384 0.82195 -0.563808 0.0297402 -0.932305 -0.360448 
0.171319 -0.740179 -0.650219 -0.124962 -0.882916 -0.452596 0.476088 -0.401941 -0.782166 
-0.229911 -0.904338 -0.359601 -0.737255 -0.30654 -0.602071 -0.783157 -0.0967358 -0.614253 
-0.67131 0.327476 -0.664907 -0.54412 0.554298 -0.629831 0.150742 -0.842518 -0.517146 
0.332631 -0.678611 -0.654862 -0.711546 -0.49944 -0.494229 -0.619649 -0.682139 -0.38823 
-0.757224 -0.43809 -0.484448 -0.838799 -0.183569 -0.512561 -0.715842 0.453208 -0.5312 
0.0317043 -0.894705 -0.445531 0.259331 -0.730387 -0.631888 0.406916 0.140262 -0.902633 
-0.769198 0.190591 -0.609926 -0.895583 0.125413 -0.426851 -0.765132 0.369096 -0.527581 
-0.724468 0.505722 -0.468392 -0.517004 0.759248 -0.395284 -0.352414 0.762476 -0.542619 
-0.00845914 0.781381 -0.623997 0.273252 -0.753208 -0.59834 0.191527 -0.941191 -0.278345 
0.351256 -0.919193 -0.178053 0.0877996 -0.960877 -0.262692 0.282212 -0.888445 -0.361969 
-0.0463769 -0.986958 -0.154154 -0.765085 -0.575496 -0.288877 -0.911619 -0.194063 -0.362341 
-0.946936 -0.00112527 -0.32142 -0.853146 0.350633 -0.386263 0.254595 0.510287 -0.821455 
0.0247856 -0.980904 -0.192905 -0.614545 -0.783082 -0.0954814 -0.934895 -0.333665 -0.120992 
-0.960138 0.191023 -0.204074 -0.805703 0.534503 -0.255244 -0.630901 0.710134 -0.312528 
0.434684 -0.66381 -0.60861 -0.0863052 -0.994306 -0.0625034 -0.415065 -0.909547 0.021117 
0.516059 -0.00219751 -0.85655 -0.96281 -0.26449 -0.0551501 -0.937277 0.310112 -0.159194 
-0.680159 0.704836 -0.201471 -0.272864 0.949532 -0.154704 0.243969 -0.885052 -0.396438 
0.260866 -0.833534 -0.487 0.298079 -0.890336 -0.344166 -0.529521 -0.843682 0.0883582 
-0.795595 -0.605783 0.00740389 -0.92803 -0.342105 0.147394 -0.999488 0.0267014 0.0176174 
-0.425011 0.888713 -0.171917 0.315296 0.495799 -0.809179 0.505718 -0.68844 -0.519904 
-0.513187 -0.817334 0.261923 -0.952985 -0.284355 0.104701 0.492483 0.118016 -0.862283 
-0.857502 0.510392 -0.0647359 -0.605342 0.794162 -0.0535482 0.0636623 -0.997038 -0.0431634 
0.391574 -0.875014 -0.284641 0.533212 -0.653368 -0.537396 0.600186 -0.722393 -0.343401 
0.644646 -0.527177 -0.553639 -0.294607 -0.95102 -0.0936355 0.534097 -0.350519 -0.769335 
0.67261 -0.396334 -0.624912 -0.708876 -0.672699 0.212066 -0.823171 -0.438791 0.36035 
-0.912367 0.409274 -0.00900528 -0.489794 0.868778 -0.0729757 -0.043381 -0.999055 0.00263142 
0.320461 -0.941085 -0.107998 0.550247 -0.805594 -0.219651 0.597032 -0.0163 -0.802052 
-0.872102 0.487217 0.0453474 -0.766187 0.642519 0.0112856 -0.586846 0.809695 -0.00228101 
-0.331731 0.943334 0.00865684 -0.0355174 0.810677 -0.584416 0.261629 -0.960039 -0.0993745 
0.609461 -0.790572 0.0596075 0.444873 -0.894517 0.043891 0.646887 -0.64849 -0.401245 
0.799307 -0.509134 -0.319202 0.703812 -0.231729 -0.671529 -0.977749 0.161666 0.133683 
0.272049 0.58139 -0.766796 0.232907 -0.966956 0.10368 0.476193 -0.86883 0.135557 
-0.110194 -0.969488 0.218975 0.615779 -0.786524 0.0468659 0.784228 0.0267383 -0.619896 
-0.244852 0.956551 -0.158296 -0.0925724 -0.842327 0.530957 0.0365213 -0.980907 0.191017 
0.413889 -0.90913 0.0466786 -0.115965 -0.964368 0.237796 0.501475 -0.834933 0.226738 
0.781993 -0.615437 0.098613 -0.580967 -0.765183 0.27744 0.879238 -0.467565 -0.0912311 
0.868533 -0.463585 -0.175325 -0.84492 0.513532 0.149648 -0.726999 0.67938 0.0995751 
-0.502301 0.823045 0.265125 -0.383415 0.873691 0.299427 -0.314882 0.889535 -0.331023 
0.53017 0.488496 -0.693031 0.351779 -0.839862 0.413381 0.683178 -0.712331 0.160784 
0.856322 -0.516439 -0.00150144 -0.948629 0.0407418 0.313756 -0.945042 -0.00488098 0.326912 
0.950737 -0.164902 -0.262501 -0.96037 0.012357 0.278455 -0.804991 0.588515 0.0750953 