# vtk DataFile Version 4.2
vtk output
ASCII
DATASET POLYDATA
POINTS 1078 float
306.727 154.946 96.7836 302.459 157.45 97.2793 309.791 157.505 97.785 
304.563 142.628 98.3357 309.239 147.725 97.9457 296.046 155.788 98.3696 
297.485 158.305 98.6126 298.769 158.321 98.1832 305.024 160.814 98.4438 
299.802 139.75 99.4981 304.557 139.392 99.9243 296.292 157.24 98.7626 
295.901 159.604 100.203 297.392 160.548 99.8333 301.45 137.564 100.656 
291.091 151.001 100.519 290.642 151.967 100.93 290.679 153.458 101.131 
316.401 158.471 100.495 309.466 162.658 100.153 302.024 164.856 101.261 
314.6 142.197 102.241 313.578 143.609 100.923 316.494 145.865 101.401 
318.111 148.446 101.615 319.169 149.91 102.165 320.017 152.27 102.444 
289.805 152.604 102.004 319.474 151.982 101.888 319.759 153.75 102.038 
292.354 157.489 102.113 318.79 158.65 102.076 315.974 160.302 101.096 
299.078 164.455 102.066 299.776 165.029 102.237 302.349 165.528 102.104 
304.004 168.013 101.009 304.004 168.013 101.009 304.004 168.013 101.009 
304.004 168.013 101.009 304.004 168.013 101.009 303.718 135.462 103.332 
312.778 140.375 102.804 313.664 141.135 102.619 313.951 141.065 102.901 
314.894 141.839 102.829 315.652 142.59 102.979 317.469 144.978 102.956 
317.116 145.745 101.864 318.259 148.024 101.888 320.296 152.562 102.977 
320.408 153.639 103.055 320.11 155.816 102.729 319.772 157.173 102.55 
319.022 159.359 102.743 312.081 163.169 101.487 308.834 164.583 101.68 
303.816 165.337 101.667 307.096 165.494 102.37 299.671 165.188 102.908 
304.004 168.013 101.009 304.264 165.748 102.403 306.788 165.621 102.444 
298.331 135.561 102.77 307.559 137.032 103.321 311.714 139.325 103.295 
313.052 140.082 103.444 314.566 141.287 103.276 318.182 145.514 103.904 
318.438 145.9 104.15 288.402 146.097 103.664 319.107 147.979 103.099 
319.397 148.508 103.451 319.935 150.168 103.703 288.414 150.04 103.656 
320.544 153.942 103.482 320.551 154.723 103.529 319.978 158.767 103.733 
318.83 160.064 103.181 317.716 161.137 103.264 298.215 164.17 103.137 
298.33 164.315 103.565 311.807 164.876 103.376 302.083 165.879 103.461 
304.122 165.871 102.769 309.905 165.478 103.385 301.912 134.423 104.682 
305.358 135.405 104.303 305.651 135.603 104.119 306.035 135.842 104.158 
307.677 136.73 104.137 309.92 138.022 103.901 314.555 141.153 103.653 
288.616 141.696 104.439 320.595 156.509 104.307 319.796 159.493 104.299 
318.598 160.7 103.791 299.07 164.969 103.932 300.69 165.669 104.425 
305.098 166.052 104.139 306.728 165.955 103.709 311.293 165.379 104.013 
308.89 165.908 104.088 310.177 165.781 104.291 298.424 134.124 104.779 
299.188 133.799 105.617 303.154 134.612 105.268 306.669 136.123 104.429 
307.331 136.478 104.553 310.37 138.173 104.437 312.668 139.586 104.175 
318.802 146.732 104.909 319.029 147.265 104.917 320.337 151.426 105.142 
288.419 152.053 105.178 288.196 151.354 104.988 320.702 155.152 104.726 
320.594 156.815 104.755 292.619 158.627 104.704 293.39 159.33 105.36 
319.963 159.245 105.137 319.175 160.344 104.407 319.316 160.2 105.212 
316.921 162.382 104.984 313.178 164.518 104.148 314.155 164.042 104.485 
301.581 165.744 104.77 307.257 166 104.53 304.4 165.968 104.574 
309.704 165.921 104.775 297.62 133.468 106.155 300.567 133.951 105.944 
291.186 134.36 106.337 304.935 135.179 105.209 306.627 136.091 105.248 
311.852 139.137 104.895 314.59 141.096 104.639 314.36 141.01 105.049 
316.293 142.862 104.857 317.995 161.531 104.995 302.778 165.433 105.642 
299.641 165.118 105.416 312.783 164.701 104.994 300.903 165.437 105.48 
308.509 165.82 105.01 306.872 165.902 105.067 310.054 165.798 105.169 
310.825 165.609 105.015 310.231 165.809 105.119 297.643 133.142 107.276 
299.333 133.567 106.59 305.349 135.436 105.65 306.861 136.408 105.872 
310.042 138.173 105.534 311.454 139.063 105.497 315.893 143.566 106.42 
319.104 148.171 106.053 319.984 151.017 106.506 320.338 153.308 106.312 
320.256 155.626 106.589 319.826 158.167 106.474 317.297 161.42 106.485 
317.423 161.69 105.911 318.679 160.513 106.165 298.209 163.361 106.514 
309.253 164.52 106.594 312.948 164.099 105.991 300.516 165.045 106.093 
307.784 165.595 105.495 312.639 164.535 105.506 292.95 131.952 108.469 
296.563 132.772 108.3 297.151 132.971 107.857 288.229 133.352 108.418 
302.101 134.634 107.292 302.372 135.422 108.276 286.929 136.241 108.016 
286.107 138.106 108.463 286.047 139.07 108.445 308.186 139.005 107.925 
309.676 139.467 107.411 310.375 141.227 108.317 314.09 141.906 106.601 
316.28 145.825 107.811 318.621 148.427 107.065 319.153 149.873 107.257 
288.051 150.133 107.812 290.56 155.133 107.85 291.157 156.213 107.53 
292.461 157.646 107.815 293.58 159.081 106.979 318.647 159.951 106.923 
309.266 162.412 108.125 297.741 162.345 107.569 315.628 161.788 107.215 
297.859 162.674 107.381 297.907 162.792 107.286 299.881 163.429 107.529 
298.317 163.07 107.145 300.195 164.372 106.713 299.808 164.937 105.929 
290.329 131.602 109.301 289.221 131.661 109.414 296.599 132.796 108.595 
298.812 133.465 108.051 299.291 133.671 108.083 285.149 138.521 110.053 
318.556 150.336 108.252 299.923 161.685 109.024 293.332 131.799 109.594 
293.115 131.733 109.976 295.255 132.393 109.234 295.283 132.398 109.41 
295.169 132.366 109.438 295.437 132.507 109.435 294.318 132.185 109.714 
294.868 132.345 109.576 295.966 132.728 109.243 296.536 132.835 108.84 
297.157 133.502 109.434 284.728 134.372 110.575 302.803 138.991 110.017 
285.021 139.053 110.995 285.413 139.955 110.006 285.536 140.66 110.403 
286.764 145.215 109.277 287.659 147.602 109.628 318.211 150.264 108.552 
317.579 150.558 109.109 318.156 151.314 108.833 316.658 157.448 109.217 
317.906 157.249 108.722 297.411 160.249 109.327 297.732 161.239 108.798 
286.557 130.529 111.41 286.42 130.423 111.516 286.504 130.38 111.539 
288.02 130.354 111.468 291.13 131.107 110.736 286.683 130.308 111.646 
293.038 131.933 110.723 295.899 133.723 110.473 284.505 137.438 111.255 
286.03 141.88 110.798 289.173 151.137 109.431 291.323 153.367 110.363 
294.502 157.226 110.106 293.633 157.92 108.928 284.868 129.948 112.759 
284.313 130.075 112.932 285.364 130.569 111.989 285.982 130.241 111.967 
282.675 133.676 112.77 282.722 134.144 112.769 282.899 134.616 112.678 
283.692 136.471 112.679 284.868 138.746 112.305 286.871 142.646 111.988 
291.318 152.176 110.985 313.574 153.611 111.121 285.914 129.462 112.918 
288.593 129.959 112.861 288.996 130.213 113.124 289.661 130.72 113.012 
282.764 131.235 113.247 281.16 132.227 114.546 281.107 132.268 114.633 
282.157 133.01 113.385 282.515 134.857 113.706 292.319 136.246 113.791 
283.171 135.843 113.326 293.948 139.225 113.446 287.993 144.997 111.99 
289.159 148.06 111.483 295.566 151.623 112.972 294.135 153.143 112.057 
286.981 129.015 113.987 286.903 128.909 114.129 286.795 128.888 114.123 
286.463 128.874 114.179 287.423 129.28 114.027 282.519 128.782 114.946 
283.409 128.9 114.435 283.399 129.355 114.02 288.696 130.055 113.495 
281.622 129.594 114.889 281.218 131.287 114.611 281.583 133.044 114.296 
281.825 133.932 114.559 282.939 135.596 113.802 283.655 136.448 113.833 
284.173 137.038 113.843 285.9 139.564 113.281 293.783 142.268 113.75 
289.234 146.917 112.111 294.479 147.322 113.445 303.562 151.187 113.041 
284.027 128.438 114.883 287.765 129.838 114.709 288.051 130.265 114.821 
280.821 130.572 115.223 280.427 130.646 115.658 280.432 131.575 115.887 
281.274 133.184 115.55 282.052 134.369 114.94 282.926 135.524 114.232 
282.968 135.363 114.803 283.54 135.756 115.003 284.283 136.794 114.435 
286.406 139.383 113.929 288.253 141.931 113.752 290.058 142.448 114.05 
291.462 143.004 113.997 301.803 153.808 113.175 300.099 155.152 112.939 
283.984 127.621 116.54 283.348 127.55 116.637 284.498 127.976 116.367 
282.439 128.178 115.65 285.425 128.494 115.93 282.003 128.319 115.691 
279.922 128.692 116.796 279.937 129.694 116.392 289.097 133.993 115.452 
282.107 134.281 115.382 282.503 134.516 115.691 291 140.585 114.364 
283.37 127.371 116.981 283.454 127.398 116.955 282.034 127.76 116.435 
282.03 127.465 116.976 282.661 127.388 117.123 283.633 127.529 116.889 
284.515 128.096 116.767 286.727 130.516 116.411 278.413 129.707 117.975 
278.804 129.763 117.623 278.747 130.055 117.93 280.174 131.629 117.267 
281.452 133.11 116.682 284.312 135.601 115.836 285.051 135.81 115.922 
288.783 135.488 115.608 288.248 136.028 115.731 286.847 138.652 114.714 
288.202 138.708 114.986 281.106 127.042 118 281.015 126.845 118.443 
282.395 127.239 117.659 282.441 127.235 117.993 281.284 127.392 117.34 
283.077 127.432 117.449 284.533 128.538 117.4 277.519 128.313 119.165 
277.222 128.53 119.535 285.653 130.475 117.299 277.881 129.331 118.838 
278.366 129.767 118.257 279.834 131.246 117.834 281.241 132.675 117.141 
281.687 132.774 117.451 282.024 132.718 117.725 283.108 133.345 117.438 
287.912 136.61 115.675 280.525 126.517 119.17 280.266 126.476 119.25 
280.753 126.592 119.131 281.291 126.839 118.734 282.236 127.296 118.775 
278.695 127.026 118.981 276.376 127.61 120.467 277.732 129.334 119.191 
277.86 129.5 119.301 284.96 132.06 117.874 280.545 131.573 118.265 
281.103 131.93 118.169 281.99 132.371 118.093 283.791 133.222 117.557 
285.002 133.398 117.275 275.976 126.569 121.009 275.762 127.525 121.168 
282.683 128.326 119.288 283.316 129.686 119 284.18 132.155 118.062 
279.226 125.836 121.214 275.47 126.124 121.499 275.396 126.092 121.572 
275.439 126.036 121.599 279.854 126.255 120.971 275.355 127.38 121.725 
276.928 128.67 121.363 282.255 129.072 119.821 283.784 130.784 118.644 
277.1 124.849 122.597 277.533 124.958 122.608 278.417 125.432 122.283 
275.437 125.869 121.846 281.31 128.166 120.567 278.473 128.962 121.371 
281.835 129.133 120.085 280.616 130.198 119.971 281.678 130.117 119.784 
276.633 124.755 122.81 277.327 124.858 123.121 274.793 125.138 123.197 
[...]
POINT_DATA 1078
SCALARS scalars float
LOOKUP_TABLE default
1 1 1 1 1 1 1 1 1 
1 1 1 1 1 1 1 1 1 
1 1 1 1 1 1 1 1 1 
1 1 1 1 1 1 1 1 1 
1 1 1 1 1 1 1 1 1 
1 1 1 1 1 1 1 1 1 
1 1 1 1 1 1 1 1 1 
1 1 1 1 1 1 1 1 1 
1 1 1 1 1 1 1 1 1 
1 1 1 1 1 1 1 1 1 
1 1 1 1 1 1 1 1 1 
1 1 1 1 1 1 1 1 1 
1 1 1 1 1 1 1 1 1 
1 1 1 1 1 1 1 1 1 
1 1 1 1 1 1 1 1 1 
1 1 1 1 1 1 1 1 1 
1 1 1 1 1 1 1 1 1 
1 1 1 1 1 1 1 1 1 
1 1 1 1 1 1 1 1 1 
1 1 1 1 1 1 1 1 1 
1 1 1 1 1 1 1 1 1 
1 1 1 1 1 1 1 1 1 
1 1 1 1 1 1 1 1 1 
1 1 1 1 1 1 1 1 1 
1 1 1 1 1 1 1 1 1 
1 1 1 1 1 1 1 1 1 
1 1 1 1 1 1 1 1 1 
1 1 1 1 1 1 1 1 1 
1 1 1 1 1 1 1 1 1 
1 1 1 1 1 1 1 1 1 
1 1 1 1 1 1 1 1 1 
1 1 1 1 1 1 1 1 1 
1 1 1 1 1 1 1 1 1 
1 1 1 1 1 1 1 1 1 
1 1 1 1 1 1 1 1 1 
1 1 1 1 1 1 1 1 1 
1 1 1 1 1 1 1 1 1 
1 1 1 1 1 1 1 1 1 
1 1 1 1 1 1 1 1 1 
1 1 1 1 1 1 1 1 1 
1 1 1 1 1 1 1 1 1 
1 1 1 1 1 1 1 1 1 
1 1 1 1 1 1 1 1 1 
1 1 1 1 1 1 1 1 1 
1 1 1 1 1 1 1 1 1 
1 1 1 1 1 1 1 1 1 
1 1 1 1 1 1 1 1 1 
1 1 1 1 1 1 1 1 1 
1 1 1 1 1 1 1 1 1 
1 1 1 1 1 1 1 1 1 
1 1 1 1 1 1 1 1 1 
1 1 1 1 1 1 1 1 1 
1 1 1 1 1 1 1 1 1 
1 1 1 1 1 1 1 1 1 
1 1 1 1 1 1 1 1 1 
1 1 1 1 1 1 1 1 1 
1 1 1 1 1 1 1 1 1 
1 1 1 1 1 1 1 1 1 
1 1 1 1 1 1 1 1 1 
1 1 1 1 1 1 1 1 1 
1 1 1 1 1 1 1 1 1 
1 1 1 1 1 1 1 1 1 
1 1 1 1 1 1 1 1 1 
1 1 1 1 1 1 1 1 1 
1 1 1 1 1 1 1 1 1 
1 1 1 1 1 1 1 1 1 
1 1 1 1 1 1 1 1 1 
1 1 1 1 1 1 1 1 1 
1 1 1 1 1 1 1 1 1 
1 1 1 1 1 1 1 1 1 
1 1 1 1 1 1 1 1 1 
1 1 1 1 1 1 1 1 1 
1 1 1 1 1 1 1 1 1 
1 1 1 1 1 1 1 1 1 
1 1 1 1 1 1 1 1 1 
1 1 1 1 1 1 1 1 1 
1 1 1 1 1 1 1 1 1 
1 1 1 1 1 1 1 1 1 
1 1 1 1 1 1 1 1 1 
1 1 1 1 1 1 1 1 1 
1 1 1 1 1 1 1 1 1 
1 1 1 1 1 1 1 1 1 
1 1 1 1 1 1 1 1 1 
1 1 1 1 1 1 1 1 1 
1 1 1 1 1 1 1 1 1 
1 1 1 1 1 1 1 1 1 
1 1 1 1 1 1 1 1 1 
1 1 1 1 1 1 1 1 1 
1 1 1 1 1 1 1 1 1 
1 1 1 1 1 1 1 1 1 
1 1 1 1 1 1 1 1 1 
1 1 1 1 1 1 1 1 1 
1 1 1 1 1 1 1 1 1 
1 1 1 1 1 1 1 1 1 
1 1 1 1 1 1 1 1 1 
1 1 1 1 1 1 1 1 1 
1 1 1 1 1 1 1 1 1 
1 1 1 1 1 1 1 1 1 
1 1 1 1 1 1 1 1 1 
1 1 1 1 1 1 1 1 1 
1 1 1 1 1 1 1 1 1 
1 1 1 1 1 1 1 1 1 
1 1 1 1 1 1 1 1 1 
1 1 1 1 1 1 1 1 1 
1 1 1 1 1 1 1 1 1 
1 1 1 1 1 1 1 1 1 
1 1 1 1 1 1 1 1 1 
1 1 1 1 1 1 1 1 1 
1 1 1 1 1 1 1 1 1 
1 1 1 1 1 1 1 1 1 
1 1 1 1 1 1 1 1 1 
1 1 1 1 1 1 1 1 1 
1 1 1 1 1 1 1 1 1 
1 1 1 1 1 1 1 1 1 
1 1 1 1 1 1 1 1 1 
1 1 1 1 1 1 1 1 1 
1 1 1 1 1 1 1 1 1 
1 1 1 1 1 1 1 1 1 
1 1 1 1 1 1 1 1 1 
1 1 1 1 1 1 1 
NORMALS Normals float
0.172846 0.0613972 -0.983033 -0.0693995 0.14414 -0.987121 0.306218 0.0181489 -0.951788 
-0.0411628 -0.206693 -0.97754 0.347573 -0.245153 -0.905038 -0.409662 0.138642 -0.901641 
-0.350591 0.417853 -0.838144 -0.248506 0.402171 -0.881194 0.033423 0.457291 -0.888689 
-0.226516 -0.389809 -0.892603 0.24607 -0.497093 -0.832075 -0.395499 0.252922 -0.882956 
-0.511165 0.418567 -0.750675 -0.52379 0.619229 -0.584978 0.0854579 -0.63301 -0.769412 
-0.567326 -0.0334707 -0.822812 -0.602758 0.075035 -0.794388 -0.657782 0.286888 -0.696433 
0.540625 0.109519 -0.834105 0.212832 0.552653 -0.805777 -0.178851 0.716975 -0.673765 
0.451542 -0.542145 -0.708653 0.388053 -0.409671 -0.825581 0.466088 -0.400481 -0.788908 
0.620883 -0.205261 -0.756553 0.714136 -0.187073 -0.674546 0.878082 -0.196221 -0.436429 
-0.875731 0.320623 -0.360966 0.570346 -0.105309 -0.814626 0.770551 0.0584728 -0.63469 
-0.708242 0.640183 -0.297588 0.492342 0.19188 -0.848989 0.411753 0.525281 -0.744675 
-0.493974 0.716001 -0.493287 -0.316362 0.832361 -0.455071 -0.239194 0.879526 -0.411363 
0.163812 -0.750206 -0.640591 -0.549782 0.381596 -0.743051 0.385893 0.536203 -0.750715 
0.549782 -0.381596 0.743051 -0.163812 0.750206 0.64059 0.207854 -0.792803 -0.572939 
0.373694 -0.705697 -0.601951 0.416351 -0.586547 -0.694704 0.522214 -0.691788 -0.49872 
0.574339 -0.635535 -0.515975 0.679185 -0.536205 -0.501191 0.705243 -0.54739 -0.450551 
0.567187 -0.47774 -0.670868 0.688361 -0.277558 -0.670165 0.929579 -0.138956 -0.341429 
0.943562 -0.00570954 -0.331146 0.844862 0.0934907 -0.526752 0.829444 0.212217 -0.516707 
0.689123 0.470591 -0.551048 0.364544 0.672926 -0.643645 0.142282 0.715811 -0.683645 
-0.0273537 0.847531 -0.53004 0.15699 0.827591 -0.538932 -0.353622 0.91754 -0.181855 
-0.385893 -0.536203 0.750715 0.0429315 0.857079 -0.513393 0.108762 0.911216 -0.397312 
-0.188676 -0.66727 -0.720522 0.345162 -0.698228 -0.627169 0.469023 -0.809221 -0.353806 
0.459894 -0.767629 -0.446368 0.611252 -0.674763 -0.413601 0.822011 -0.493625 -0.283958 
0.827137 -0.543587 0.142683 -0.792497 -0.0755863 -0.605174 0.915113 -0.334342 -0.225352 
0.897372 -0.272123 -0.347379 0.93113 -0.27008 -0.245059 -0.904966 0.0930479 -0.415184 
0.961534 0.0343007 -0.272534 0.971241 0.0296616 -0.236242 0.881165 0.312909 -0.354453 
0.516969 0.629499 -0.580064 0.557122 0.659516 -0.504633 -0.65949 0.69287 -0.291555 
-0.690708 0.721356 0.0506794 0.2902 0.788043 -0.542929 -0.172895 0.967399 -0.185059 
-0.0638163 0.971433 -0.228574 0.21356 0.859734 -0.46395 0.187905 -0.958367 -0.215 
0.344325 -0.911856 -0.223515 0.493993 -0.828764 -0.262909 0.454987 -0.839203 -0.297868 
0.503779 -0.85638 -0.11323 0.47487 -0.867463 -0.148349 0.585869 -0.791091 -0.175875 
-0.691057 -0.16323 -0.704128 0.984601 0.116692 -0.130168 0.822727 0.505764 -0.259468 
0.495385 0.728631 -0.47296 -0.573966 0.817214 -0.0521824 -0.254918 0.964894 0.0632129 
0.0975446 0.99266 0.0714858 0.0733591 0.990546 -0.115916 0.326129 0.928669 -0.176674 
0.088393 0.967755 -0.235873 0.191213 0.959571 -0.206546 0.00718736 -0.894552 -0.446905 
0.0654954 -0.940842 -0.332457 0.242524 -0.964202 -0.107225 0.54225 -0.83516 -0.0920484 
0.504023 -0.860008 -0.0796673 0.456872 -0.889354 -0.0178149 0.545784 -0.832396 -0.0961083 
0.84495 -0.492763 0.207952 0.900364 -0.391618 0.189681 0.986331 -0.164729 -0.00403643 
-0.902787 0.430054 0.00541397 -0.950793 0.30952 0.0137946 0.998894 0.0382209 -0.0273951 
0.984202 0.176957 -0.00579185 -0.776401 0.629305 -0.0343014 -0.685762 0.727606 0.0178904 
0.905358 0.415252 0.0888368 0.733907 0.671731 -0.10079 0.770839 0.582418 0.258062 
0.515289 0.849424 0.113822 0.470355 0.803522 -0.364854 0.513234 0.848238 0.130705 
-0.118888 0.965269 0.232642 0.0509614 0.987945 0.146176 0.0561819 0.955283 0.290305 
0.109681 0.993936 0.00781693 0.0230425 -0.912372 -0.408712 0.258504 -0.955081 -0.144898 
-0.407465 -0.429145 -0.806106 0.421468 -0.893316 0.156049 0.550265 -0.833429 0.0510333 
0.55555 -0.830721 0.0355875 0.653882 -0.734099 0.183132 0.598756 -0.771067 0.216671 
0.781121 -0.611033 0.128411 0.633148 0.762076 0.135515 0.0537046 0.759238 0.648593 
-0.417449 0.87433 0.247557 0.398336 0.896913 0.19203 0.156081 0.801445 0.577343 
0.0290867 0.957111 0.288256 -0.0514249 0.882366 0.467746 0.129076 0.776579 0.616655 
0.391754 0.818673 0.419884 0.250403 0.919762 0.302217 0.221787 -0.963077 -0.152622 
0.145981 -0.976093 -0.161032 0.457258 -0.87323 0.168479 0.552791 -0.788234 0.270388 
0.4535 -0.828037 0.329685 0.543009 -0.702723 0.459698 0.682598 -0.519382 0.514104 
0.902416 -0.373462 0.214877 0.884749 -0.204145 0.418979 0.928436 -0.0537058 0.367591 
0.942685 0.0360349 0.331732 0.802508 0.276559 0.528674 0.492097 0.664234 0.562702 
0.580343 0.720068 0.3804 0.591624 0.741787 0.315807 -0.660273 0.678331 0.322347 
0.0489336 0.690339 0.72183 0.335496 0.748799 0.571614 0.0116232 0.794412 0.607268 
0.0301069 0.839171 0.543034 0.358453 0.819016 0.448023 0.143342 -0.949026 -0.280719 
0.331827 -0.942405 -0.0419997 0.243871 -0.969786 0.00649708 -0.371128 -0.494227 -0.786132 
0.346906 -0.909487 0.229107 0.362293 -0.66292 0.655195 -0.609232 -0.238835 -0.756171 
-0.82488 -0.0542739 -0.562696 -0.817707 -0.0258719 -0.575053 0.415445 -0.551561 0.723316 
0.437853 -0.54042 0.718492 0.38063 -0.441413 0.812573 0.585949 -0.586002 0.559701 
0.574887 -0.406881 0.709897 0.608566 -0.508089 0.609502 0.81519 -0.228116 0.532379 
-0.875547 0.387469 0.288591 -0.842745 0.437928 0.313049 -0.731764 0.531931 0.426111 
-0.700336 0.642336 0.311344 -0.544401 0.733571 0.406819 0.616557 0.479687 0.624306 
0.0625983 0.506639 0.859883 -0.640275 0.614074 0.461477 0.263061 0.508106 0.820138 
-0.501191 0.610853 0.612916 -0.774122 0.590959 0.226943 -0.060657 0.661356 0.747615 
-0.283955 0.70047 0.65476 -0.00746412 0.678052 0.734976 -0.363605 0.757813 0.541766 
-0.121694 -0.786649 -0.605289 -0.0981603 -0.790095 -0.605073 0.498086 -0.856577 0.134854 
0.307583 -0.871744 0.381385 0.334302 -0.893118 0.300969 -0.951744 0.142642 -0.271728 
0.722256 -0.180449 0.667671 -0.0517052 0.510264 0.858462 0.376635 -0.926243 0.0148448 
0.352289 -0.934085 0.0581198 0.308165 -0.951276 0.0104618 0.413905 -0.81851 0.398402 
0.228319 -0.954882 0.189923 0.493016 -0.80495 0.330137 0.333284 -0.932559 0.138765 
0.299133 -0.845319 0.442668 0.4039 -0.862652 0.30446 0.443934 -0.796826 0.409867 
0.484187 -0.752464 0.446499 -0.652149 -0.152868 -0.742518 0.347645 -0.385798 0.854578 
-0.931678 0.359489 0.0523886 -0.929933 0.145904 -0.337545 -0.949126 0.313576 -0.0287956 
-0.921312 0.29643 0.251622 -0.832027 0.333953 0.442952 0.594318 -0.312875 0.740875 
0.424632 -0.32538 0.844876 0.669539 0.00139881 0.742776 0.3436 0.330623 0.878992 
0.596367 0.183848 0.781374 -0.431067 0.554574 0.711779 -0.41675 0.606176 0.677399 
-0.175366 -0.641542 -0.746773 -0.349269 -0.748095 -0.564238 -0.17606 -0.853144 -0.491069 
0.0448848 -0.891063 -0.451655 0.179003 -0.962891 -0.201988 -0.116815 -0.909914 -0.398007 
0.482517 -0.833491 0.269203 0.489665 -0.572527 0.657602 -0.889583 0.221735 -0.399344 
-0.929064 0.356598 0.0983786 -0.793724 0.437046 0.423076 -0.604873 0.473359 0.640359 
-0.411086 0.554127 0.723845 -0.498637 0.639454 0.585201 -0.35524 -0.587637 -0.726971 
-0.375195 -0.576306 -0.726016 -0.420959 -0.531006 -0.735409 -0.120531 -0.843987 -0.522645 
-0.701786 -0.0174587 -0.712174 -0.810304 0.161715 -0.563254 -0.816142 0.252738 -0.51965 
-0.822138 0.568671 -0.0265044 -0.893025 0.449949 0.0072746 -0.75268 0.354003 0.555116 
-0.631274 0.381754 0.675098 0.239154 0.0155042 0.970858 -0.135174 -0.802072 -0.581729 
0.449152 -0.891981 -0.0512953 0.650751 -0.735054 0.190312 0.651959 -0.576056 0.49306 
-0.572588 -0.334611 -0.74845 -0.712183 0.0181528 -0.701759 -0.874893 0.150415 -0.460367 
-0.81036 0.0986481 -0.577568 -0.87325 0.414765 -0.255744 0.504318 -0.139777 0.85213 
-0.769795 0.627981 0.114259 0.458957 -0.00309169 0.888453 -0.408471 0.188528 0.893089 
-0.698941 0.344006 0.62701 -0.0489167 0.129574 0.990362 -0.311332 0.304198 0.900298 
0.220052 -0.862665 -0.455398 0.388742 -0.920597 0.0371478 0.0942709 -0.95453 -0.282816 
0.129144 -0.961051 -0.244341 0.61731 -0.781886 0.0870741 -0.334658 -0.674797 -0.657764 
-0.360987 -0.615685 -0.700442 -0.363808 -0.635602 -0.680922 0.628966 -0.738232 0.243753 
-0.544099 -0.425587 -0.723071 -0.707191 -0.129315 -0.695096 -0.806564 0.234708 -0.542556 
-0.88905 0.414985 -0.193332 -0.822813 0.553377 -0.129436 -0.806862 0.504497 0.307338 
-0.59715 0.70548 0.38172 -0.712754 0.508582 0.483039 0.266887 -0.112096 0.957186 
-0.523536 0.252345 0.813776 -8.73078e-05 0.120864 0.992669 0.00938367 -0.0571079 0.998324 
-0.0884245 -0.82152 -0.563282 0.645345 -0.637834 0.420354 0.724852 -0.535367 0.433557 
-0.766642 -0.119606 -0.630836 -0.772362 -0.0830038 -0.629736 -0.866577 0.250273 -0.43175 
-0.843846 0.536033 -0.0243452 -0.817083 0.568928 0.0932557 -0.670081 0.730996 0.128982 
-0.588338 0.762176 0.270087 -0.523134 0.731897 0.436644 -0.496136 0.664218 0.559163 
-0.495585 0.454076 0.740412 -0.43905 0.468567 0.766603 0.0167474 0.288819 0.957237 
-0.0897094 0.270122 0.958638 -0.000951741 0.0576706 0.998335 -0.128137 0.310511 0.941894 
0.303975 -0.949661 -0.0757865 0.0667336 -0.894354 -0.442356 0.727159 -0.599328 0.334733 
-0.186631 -0.794337 -0.578098 0.526083 -0.80149 0.284342 -0.468492 -0.657087 -0.590552 
-0.554773 -0.490926 -0.671727 -0.745616 -0.126371 -0.654284 0.518182 -0.149265 0.842144 
-0.770939 0.590428 0.238848 -0.562291 0.701888 0.437244 0.211556 0.238365 0.947853 
0.113873 -0.986479 -0.117862 0.443776 -0.89574 -0.026704 -0.366232 -0.798729 -0.477394 
-0.281931 -0.874316 -0.395078 -0.00723576 -0.947351 -0.320114 0.521856 -0.824138 0.220144 
0.789259 -0.563134 0.244846 0.651239 -0.31155 0.691971 -0.785544 0.362243 -0.501698 
-0.761101 0.136326 -0.634146 -0.72382 0.598406 -0.343503 -0.750026 0.66028 0.0386136 
-0.558202 0.746008 0.363155 -0.249831 0.668717 0.700287 -0.20397 0.717063 0.666496 
0.407243 0.150967 0.900756 0.323339 0.216722 0.921132 -0.409905 0.518518 0.750411 
-0.103959 0.388907 0.915393 -0.0892644 -0.87778 -0.470675 0.0484424 -0.913627 -0.403658 
0.0888724 -0.97925 -0.182128 0.315344 -0.936019 0.156292 -0.233307 -0.839014 -0.491552 
0.398448 -0.883136 0.247609 0.645091 -0.651909 0.398588 -0.750996 -0.0865755 -0.654606 
-0.836857 0.318593 -0.445162 0.631351 -0.254817 0.732437 -0.811159 0.376499 -0.447515 
-0.800465 0.514354 -0.307726 -0.640996 0.766312 0.0434859 -0.539656 0.649723 0.535379 
-0.460477 0.653737 0.60049 -0.389976 0.682822 0.617796 -0.176034 0.656873 0.733165 
0.313707 0.21132 0.925706 0.246794 -0.968346 -0.0374089 0.21944 -0.973131 -0.0697237 
0.402688 -0.777023 0.483815 0.303427 -0.939166 -0.16093 0.398545 -0.879948 0.258561 
-0.375554 -0.65169 -0.658984 -0.689758 -0.200502 -0.695725 -0.803211 0.565382 -0.187604 
-0.694582 0.716496 -0.0647245 0.396064 0.19573 0.897119 -0.355589 0.802712 0.478759 
-0.451999 0.761736 0.464172 -0.211578 0.668792 0.712707 0.0916546 0.532337 0.841556 
0.021835 0.47058 0.882087 -0.451088 -0.463044 -0.762961 -0.798966 0.314515 -0.512575 
0.696486 -0.399993 0.595746 0.614741 -0.0145511 0.788595 0.141082 0.429784 0.891842 
0.644481 -0.731434 0.222818 -0.451516 -0.379605 -0.807486 -0.649306 -0.385376 -0.655658 
-0.194202 -0.765421 -0.613527 0.62493 -0.709077 0.326607 -0.795591 0.231826 -0.559725 
-0.401344 0.846774 0.349138 0.545782 0.045154 0.83671 0.503061 0.0660892 0.86172 
0.204702 -0.943139 -0.26189 0.470463 -0.881287 -0.0446912 0.449289 -0.890763 -0.0684145 
-0.124499 -0.795201 -0.593427 0.611011 -0.120929 0.782331 0.0294184 0.805181 0.592299 
0.511132 0.0838952 0.855398 0.0480848 0.64122 0.765849 0.349588 0.371652 0.860037 
-0.106337 -0.893156 -0.436994 0.38531 -0.920187 0.0692246 -0.411637 -0.723787 -0.553793 
0.677676 -0.643767 0.355415 0.785213 -0.395125 0.476778 -0.715048 -0.147479 -0.683342 
0.737808 -0.322137 0.593184 -0.722093 0.465451 -0.511797 0.268897 0.629288 0.729172 
0.256201 0.670943 0.695842 0.332912 0.546439 0.768488 0.524877 0.259127 0.810776 
-0.327591 0.780761 0.532068 0.637254 -0.709952 0.299792 -0.633949 -0.266701 -0.725933 
-0.53853 -0.55407 -0.634816 -0.651245 0.272331 -0.708319 0.750765 -0.330438 0.571981 
-0.589947 0.757101 -0.280645 -0.50563 0.859968 -0.0692327 0.352113 0.607524 0.711991 
-0.014517 0.855602 0.517431 -0.145557 0.754568 0.639875 -0.139811 -0.980051 -0.141255 
0.269329 -0.962199 0.0404343 -0.193806 -0.957301 -0.214507 -0.420523 -0.768799 -0.481777 
0.656836 -0.490996 0.572266 -0.468214 -0.629882 -0.619697 -0.547942 -0.482836 -0.683103 
0.705249 -0.313015 0.636117 -0.492282 -0.3089 -0.813781 -0.62504 -0.557302 -0.546571 
-0.58845 0.435822 -0.681018 0.731042 -0.104451 0.674291 -0.360711 0.620947 -0.695925 
-0.490437 0.827051 -0.274696 -0.496108 0.862749 -0.0976827 -0.257015 0.956912 0.135138 
-0.100475 0.927644 0.359695 0.358406 -0.9134 0.192992 0.20526 -0.913753 0.350604 
0.558361 -0.694123 0.454341 -0.363175 -0.838117 -0.407018 -0.418532 -0.674997 -0.607627 
-0.857062 -0.0658037 -0.510994 -0.989605 -0.0798883 -0.119578 -0.630582 0.765544 -0.127708 
-0.536524 -0.761381 -0.363924 -0.50679 -0.0445727 -0.860916 -0.411023 0.801114 -0.43506 
0.601694 0.173671 0.779617 -0.0918399 0.980377 0.174432 -0.0910014 -0.995767 -0.0129435 
0.137322 -0.957755 0.25268 -0.358208 -0.691915 -0.62685 -0.445505 -0.859383 -0.25097 
-0.553447 -0.599742 -0.577932 -0.37346 -0.900928 -0.221035 -0.255092 -0.944018 -0.209185 
-0.919672 -0.324159 -0.22164 -0.721313 -0.691509 -0.0390257 -0.993758 0.0752696 -0.0823392 
0.686455 -0.403947 0.604654 0.860617 -0.156246 0.484691 -0.718905 0.650958 0.243782 
-0.776615 0.629944 0.00637078 0.74594 0.0962471 0.659022 -0.257268 0.958528 -0.12263 
-0.18745 0.981572 0.0371432 -0.275286 -0.961224 -0.0163036 -0.0668672 -0.961781 0.265531 
0.380771 -0.686748 0.619185 -0.464097 -0.882453 0.0767515 -0.364812 -0.930845 -0.0209675 
-0.193723 -0.97403 -0.117207 0.492949 -0.430075 0.756332 -0.694555 -0.706835 0.134082 
-0.974975 0.0258075 0.220812 0.406545 0.0900723 0.90918 0.446463 0.255808 0.857457 
0.430421 -0.226153 0.873838 0.533622 0.361794 0.764429 -0.860114 0.478283 0.177337 
0.40355 0.359553 0.841349 -0.487418 0.862407 0.136667 -0.0610435 0.977707 0.200905 
0.0349658 0.941354 0.335603 0.189779 0.848429 0.494117 0.251264 0.75726 0.602846 
-0.287212 0.950122 -0.121562 0.0760839 -0.915043 0.396116 0.218822 -0.719723 0.658874 
-0.671985 -0.655087 0.345394 -0.159256 -0.97751 0.138248 0.307864 -0.657365 0.687816 
0.455337 -0.243873 0.856268 -0.784507 -0.406087 0.46866 -0.912309 -0.0887781 0.399763 
0.590976 -0.157333 0.791198 -0.693154 0.505213 0.514099 -0.599935 0.768143 0.223683 
-0.529243 0.706842 0.469336 -0.577201 0.777939 0.248294 -0.622229 0.757803 -0.196381 
-0.292028 0.937516 0.189164 -0.194341 -0.97896 -0.0621982 -0.00219874 -0.910614 0.413253 
-0.410145 -0.806608 0.425635 0.0164171 -0.912353 0.409075 0.137097 -0.910474 0.390182 
-0.220258 -0.945847 0.238453 -0.679673 -0.680121 0.274736 -0.317016 -0.536945 0.781787 
-0.324188 -0.369534 0.870831 -0.429319 -0.659866 0.616654 -0.74133 -0.00401664 0.671129 
-0.677258 -0.0145197 0.735602 -0.571692 0.115906 0.81224 -0.261587 -0.544248 0.797099 
-0.0696455 0.909532 0.409758 -0.061163 -0.449421 0.891224 -0.580861 -0.56161 0.589232 
-0.0303278 -0.50609 0.861947 0.197071 -0.689828 0.696635 0.422915 -0.392503 0.816752 
0.479348 -0.153728 0.864056 -0.475243 0.613899 0.630295 -0.173508 0.815055 0.552792 
-0.430519 0.400158 0.809029 -0.390773 -0.365204 0.844939 0.378138 -0.111421 0.919019 
0.360579 0.0596022 0.930822 -0.0833103 0.737401 0.670298 -0.187384 0.411289 0.892036 
0.0834003 0.686938 0.721914 0.366536 0.512538 0.776503 0.0368275 -0.336133 0.941094 
-0.314963 -0.737682 -0.597179 -0.123316 -0.84832 -0.514923 -0.0908969 -0.280037 -0.955676 
-0.149177 0.227961 -0.962175 -0.515461 0.146742 -0.844255 0.0717677 0.294956 -0.952812 
0.281462 0.177172 -0.943074 -0.239486 0.501043 -0.831627 -0.176801 0.663657 -0.726843 
0.0796808 0.559282 -0.825139 0.135588 -0.69021 -0.710792 -0.548215 -0.53991 -0.638716 
-0.398435 -0.894585 -0.202404 0.317776 -0.338412 -0.885718 0.127086 0.612343 -0.780311 
0.201147 0.62004 -0.758347 -0.0831377 0.637815 -0.765689 0.128747 0.720481 -0.681419 
0.187168 -0.816844 -0.54565 -0.274462 -0.960994 -0.0340803 0.369078 -0.485192 -0.792698 
-0.55411 -0.707056 -0.439357 0.413644 -0.283477 -0.865182 -0.428839 0.155237 -0.889943 
0.13965 0.765973 -0.627522 0.255374 0.675387 -0.691836 -0.297322 0.846187 -0.442229 
-0.35149 0.665188 -0.658771 -0.454496 0.767955 -0.451307 0.0513018 0.794419 -0.605199 
-0.262482 -0.963233 0.057322 -0.341715 -0.929819 0.136627 -0.108122 -0.986277 -0.124768 
0.267065 -0.736728 -0.621215 0.122787 -0.891106 -0.436868 0.594876 -0.45301 -0.664007 
0.429719 -0.53671 -0.726143 0.520582 -0.731562 -0.44024 -0.675295 -0.73657 -0.0379571 
-0.430125 -0.332334 -0.839373 -0.346409 -0.933997 -0.0874648 -0.395144 -0.8867 0.24005 
-0.70868 0.0878227 -0.700043 -0.378077 -0.919716 -0.105736 0.633694 -0.121488 -0.763985 
0.48586 0.148966 -0.861248 0.116107 0.847757 -0.51752 0.0188739 0.923985 -0.381962 
-0.162467 0.958187 -0.235548 -0.199004 -0.970454 0.136441 -0.0313923 -0.998404 -0.0469511 
0.162417 -0.964673 -0.207429 0.4617 -0.819957 -0.338384 -0.321755 -0.907706 0.269339 
-0.603619 0.127158 -0.787068 -0.761052 -0.645662 0.062615 -0.16037 0.894228 -0.417896 