# vtk DataFile Version 4.2
vtk output
ASCII
DATASET POLYDATA
POINTS 1815 float
251.007 221.47 142.931 250.792 221.683 142.696 251.428 221.567 142.865 
250.375 222.04 142.504 251.242 222.063 142.484 250.562 222.301 142.412 
251.049 222.314 142.395 250.467 221.24 143.292 253.005 222.305 143.056 
249.657 222.614 142.586 250.012 222.949 142.455 251.695 222.998 142.408 
253.022 223.199 142.754 250.488 223.509 142.424 251.999 224.071 142.566 
248.369 221.477 143.612 249.749 221.447 143.185 251.063 220.999 143.711 
249.063 222.32 142.88 248.103 223.128 143.052 253.587 223.766 142.912 
249.414 223.667 142.698 255.373 223.882 143.589 251.891 224.961 142.794 
254.889 224.815 143.358 253.847 225.294 143.142 254.267 221.765 144.426 
256.007 223.848 143.939 256.89 223.8 144.478 248.125 225.279 143.328 
257.262 225.692 144.314 249.098 226.297 143.519 253.857 226.787 143.743 
243.885 222.02 145.022 256.2 222.648 144.839 245.14 224.906 144.175 
258.951 225.274 145.055 259.627 226.469 145.28 249.447 227.479 144.057 
256.251 228.015 144.798 242 220.009 145.017 242 220.009 145.017 
242 220.009 145.017 242 220.009 145.017 253.226 220.572 145.835 
242 220.009 145.017 241.23 223.242 145.656 241.104 224.354 145.575 
261.881 226.064 146.207 263.195 226.275 146.59 263.223 226.387 146.596 
241.406 227.52 145.617 258.632 228.045 145.392 260.105 228.29 145.913 
242 220.009 145.017 240.486 221.9 146.443 264.448 226.095 147.468 
264.779 226.292 147.557 261.963 227.273 146.211 264.136 226.88 146.967 
244.312 229.266 145.536 252.966 230.663 146.164 242.728 219.696 147.167 
238.722 222.563 146.95 262.688 224.536 147.997 265.53 225.883 148.453 
265.774 227.942 147.637 268.611 228.143 148.68 269.698 228.33 149.044 
269.051 228.651 148.739 246.062 231.958 146.74 240.91 218.871 148.283 
270.726 228.274 149.619 267.918 229.185 148.408 266.65 229.891 148.252 
271.181 229.749 149.42 271.853 229.75 149.664 270.382 230.361 149.236 
269.174 230.944 149.156 235.18 232.524 148.144 248.489 218.42 148.591 
268.326 226.121 150.227 270.297 227.913 149.588 274.097 228.801 151.049 
275.616 230.164 151.047 273.488 230.853 150.169 274.441 230.853 150.457 
276.13 231.027 151.001 248.206 234.801 148.965 234.827 236.356 149.121 
239.419 237.691 149.555 276.789 230.218 151.58 230.686 230.798 149.458 
277.31 230.707 151.59 268.462 232.287 149.692 271.857 232.098 150.053 
274.772 231.953 150.573 275.637 231.908 150.795 278.85 232.137 151.95 
273.663 232.756 150.564 276.685 232.427 151.176 276.195 233.001 151.144 
228.724 234.811 150.618 276.063 233.486 151.284 232.013 238.92 150.495 
225.217 223.513 152.119 228.234 222.899 150.711 276.247 229.446 151.804 
278.007 231.774 151.731 263.651 233.383 150.124 271.973 233.982 150.989 
273.703 233.812 151.021 279.689 233.793 152.534 227.274 235.08 151.455 
225.037 217.354 153.115 224.016 224.536 153.328 223.892 226.411 153.528 
275.745 228.629 152.274 276.2 228.556 152.734 281.132 232.597 153.202 
280.36 233.662 152.806 273.404 234.982 151.735 227.276 238.935 152.656 
228.281 241.011 152.897 234.448 242.255 152.33 238.024 242.175 152.828 
230.241 242.632 153.156 232.772 243.022 153.019 237.614 207.524 154.718 
234.86 207.718 154.662 235.912 207.758 154.503 241.617 208.808 154.007 
230.179 209.403 154.312 239.495 209.879 153.11 242.198 209.616 153.582 
250.868 209.763 154.685 252.387 209.535 154.944 253.719 209.884 154.799 
257.749 209.884 155.28 231.977 210.287 153.338 226.084 214.726 153.317 
246.042 214.328 152.188 247.865 216.065 151.562 223.873 218.624 153.894 
223.745 221.911 153.739 223.195 223.973 154.495 277.79 229.343 152.979 
278.987 229.862 153.342 281.66 231.985 153.692 261.84 235.331 151.879 
271.974 236.545 152.934 277.938 236.957 153.614 242.631 207.678 155.49 
233.688 207.593 155.193 236.269 207.565 154.75 243.497 208.291 154.933 
232.479 208.035 154.917 235.562 208.431 154.009 247.411 208.944 155.118 
250.53 209.111 155.257 256.714 209.451 155.451 259.984 209.953 155.89 
264.231 210.122 156.285 265.059 210.397 156.072 265.55 210.293 156.237 
267.112 210.215 156.405 267.364 210.227 156.442 251.938 210.72 154.319 
258.395 210.786 154.941 261.369 210.827 155.437 263.96 210.745 155.77 
255.271 211.34 154.411 262.067 211.242 155.382 265.187 210.885 155.893 
226.73 211.988 154.214 224.276 214.148 154.86 223.179 217.744 154.912 
254.934 217.88 152.62 258.9 220.126 152.364 259.297 220.03 152.738 
264.192 222.432 153.175 222.858 225.117 155.22 223.105 227.211 155.15 
277.399 228.07 154.468 280.312 236.113 153.686 224.594 236.077 154.649 
225.451 239.613 155.043 227.062 242.514 154.77 229.571 244.913 155.336 
231.582 207.915 155.397 245.564 207.985 156.059 250.967 208.714 155.97 
252.748 208.93 155.706 257.47 209.184 156.155 258.534 209.428 156.118 
268.101 210.083 156.895 268.11 209.898 157.064 251.32 208.843 155.712 
264.93 209.927 156.689 266.201 210.393 156.27 267.936 210.373 156.641 
268.668 210.668 156.896 264.362 211.393 155.671 266.034 211.464 156.019 
223.114 215.004 155.844 258.203 219.213 152.928 257.835 218.784 153.102 
260.782 220.563 153.099 284.753 232.401 155.467 260.055 237.428 153.933 
282.579 237.163 155.26 233.706 245.577 155.962 227.828 208.346 156.707 
228.098 208.12 156.925 243.444 207.439 156.748 246.022 207.884 156.629 
251.032 208.554 156.563 252.358 208.763 156.025 268.577 209.848 157.575 
259.307 209.271 157.068 267.394 209.801 157.174 270.104 210.828 157.949 
269.908 211.351 157.581 259.424 216.536 154.68 260.055 217.776 154.543 
261.336 218.235 154.85 222.377 219.576 156.523 259.57 219.113 153.658 
262.606 220.665 154.121 286.759 231.543 156.85 289.105 232.671 157.582 
288.412 234.503 157.249 224.556 239.786 157.336 225.784 242.769 157.016 
229.749 246.273 156.868 235.048 206.781 157.401 225.644 209.486 156.952 
225.735 209.226 157.246 259.377 209.204 157.575 269.023 209.908 158.068 
270.234 210.469 158.458 224.068 210.482 157.658 271.072 211.558 158.426 
262.582 216.128 155.494 222.271 216.761 157.29 263.325 218.929 155.327 
263.784 220.16 155.045 288.464 231.433 157.712 290.352 234 158.124 
223.268 233.958 157.691 283.517 239.004 157.149 270.184 240.414 156.923 
278.224 240.97 157.611 226.643 244.777 157.84 228.211 246.55 158.198 
231.317 247.459 158.402 230.988 207.043 157.961 233.905 206.748 158.265 
240.172 206.973 157.569 225.756 208.907 157.868 225.263 208.956 158.509 
254.991 208.739 158.319 259.881 209.261 158.578 263.051 209.462 158.26 
223.754 210.311 158.626 264.848 209.484 159.043 271.545 211.104 159.162 
222.656 212.131 158.782 222.179 215.013 158.128 270.096 216.918 158.275 
221.988 218.856 158.17 268.628 221.413 156.824 271.669 223.359 157.558 
290.495 235.465 158.647 256.218 241.039 157.686 224.845 242.142 158.926 
228.126 207.43 159.134 225.622 208.343 159.531 226.357 208.088 159.456 
260.538 209.588 160.352 261.603 209.508 159.711 271.401 210.443 159.971 
272.089 210.943 159.953 263.378 209.591 160.142 269.091 218.963 157.745 
268.305 219.978 157.187 221.969 223.667 158.979 271.52 222.035 158.461 
274.149 224.307 158.566 287.719 230.325 158.098 291.509 231.255 159.305 
237.589 246.293 158.905 227.592 207.547 159.855 225.558 208.37 159.657 
225.413 208.508 159.907 224.26 209.344 160.201 246.729 208.099 159.779 
268.016 209.536 159.955 270.676 209.957 160.494 222.456 212.189 159.771 
221.997 214.581 159.621 273.389 222.991 159.333 273.08 222.68 159.29 
273.785 223.078 159.581 272.387 222.73 158.686 274.039 223.581 159.342 
287.233 229.239 158.967 292.903 230.078 160.594 294.814 232.051 160.836 
293.278 235.074 160.324 288.97 238.426 159.953 281.887 241.537 159.593 
277.858 242.625 159.776 233.185 247.973 159.798 231.101 248.372 160.131 
228.977 248.58 161.352 252.202 209.086 161.091 270.093 209.765 161.358 
272.544 210.347 161.66 222.809 211.435 160.999 221.841 217.299 160.613 
294.947 229.749 161.711 296.143 230.9 161.853 285.148 241.25 161.266 
233.493 248.573 161.247 230.148 249.044 161.77 229.951 249.275 162.419 
228 207.517 161.454 236.901 207.347 161.249 223.667 210.163 161.472 
274.283 210.77 162.612 222.376 212.433 160.891 276.888 211.87 163.616 
275.954 212.935 162.308 222.016 214.874 161.116 221.915 216.51 161.342 
221.865 218.271 161.581 221.885 222.518 161.462 279.238 225.878 160.165 
298.073 229.287 163.527 298.187 231.388 163.215 294.21 235.989 161.626 
290.167 239.061 161.747 274.589 244.181 162.215 225.501 245.708 163.345 
226.566 247.562 163.373 229.248 249.437 163.314 276.756 211.362 163.998 
276.992 211.601 163.942 261.687 210.839 164.423 278.104 213.567 164.239 
292.155 227.367 162.844 294.243 227.592 163.155 222.448 227.974 163.046 
298.026 233.638 163.557 296.276 235.386 162.959 224.447 242.54 163.563 
265.345 244.967 163.399 227.421 208.392 163.57 276.114 210.798 164.495 
250.229 210.118 164.264 278.421 212.454 164.934 278.017 214.2 164.151 
277.352 215.127 163.617 277.82 214.621 164.002 280.232 223.72 163.76 
294.978 226.21 164.931 297.217 226.914 164.865 299.763 229.53 164.743 
300.024 231.32 164.775 298.035 234.712 164.209 297.714 235.742 164.761 
292.954 238.399 163.418 279.186 244.024 163.574 227.987 249.447 165.005 
228.311 249.783 165.482 229.859 207.962 163.821 275.265 210.212 165.467 
277.575 211.18 165.304 278.278 211.369 165.897 274.211 209.995 165.532 
279.089 213.526 165.374 276.806 220.204 163.311 278.639 221.823 164.139 
279.609 222.827 164.168 283.129 225.053 163.957 300.558 232.561 165.531 
299.667 233.878 165.263 288.983 240.869 165.147 274.132 244.951 164.996 
228.213 249.924 166.249 231.152 250.565 165.713 225.614 209.845 164.322 
272.681 209.976 166.175 224.001 212.301 164.821 222.883 214.038 163.984 
222.361 221.532 165.333 300.298 234.364 166.51 223.705 238.456 165.641 
295.059 238.264 165.736 291.65 239.964 166.043 286.708 241.866 166.117 
225.541 246.82 166.787 228.751 250.368 166.879 277.098 210.27 167.282 
278.679 210.931 167.231 226.485 210.843 166.13 280.266 212.556 167.301 
[...]
POINT_DATA 1815
SCALARS scalars float
LOOKUP_TABLE default
1 1 1 1 1 1 1 1 1 
1 1 1 1 1 1 1 1 1 
1 1 1 1 1 1 1 1 1 
1 1 1 1 1 1 1 1 1 
1 1 1 1 1 1 1 1 1 
1 1 1 1 1 1 1 1 1 
1 1 1 1 1 1 1 1 1 
1 1 1 1 1 1 1 1 1 
1 1 1 1 1 1 1 1 1 
1 1 1 1 1 1 1 1 1 
1 1 1 1 1 1 1 1 1 
1 1 1 1 1 1 1 1 1 
1 1 1 1 1 1 1 1 1 
1 1 1 1 1 1 1 1 1 
1 1 1 1 1 1 1 1 1 
1 1 1 1 1 1 1 1 1 
1 1 1 1 1 1 1 1 1 
1 1 1 1 1 1 1 1 1 
1 1 1 1 1 1 1 1 1 
1 1 1 1 1 1 1 1 1 
1 1 1 1 1 1 1 1 1 
1 1 1 1 1 1 1 1 1 
1 1 1 1 1 1 1 1 1 
1 1 1 1 1 1 1 1 1 
1 1 1 1 1 1 1 1 1 
1 1 1 1 1 1 1 1 1 
1 1 1 1 1 1 1 1 1 
1 1 1 1 1 1 1 1 1 
1 1 1 1 1 1 1 1 1 
1 1 1 1 1 1 1 1 1 
1 1 1 1 1 1 1 1 1 
1 1 1 1 1 1 1 1 1 
1 1 1 1 1 1 1 1 1 
1 1 1 1 1 1 1 1 1 
1 1 1 1 1 1 1 1 1 
1 1 1 1 1 1 1 1 1 
1 1 1 1 1 1 1 1 1 
1 1 1 1 1 1 1 1 1 
1 1 1 1 1 1 1 1 1 
1 1 1 1 1 1 1 1 1 
1 1 1 1 1 1 1 1 1 
1 1 1 1 1 1 1 1 1 
1 1 1 1 1 1 1 1 1 
1 1 1 1 1 1 1 1 1 
1 1 1 1 1 1 1 1 1 
1 1 1 1 1 1 1 1 1 
1 1 1 1 1 1 1 1 1 
1 1 1 1 1 1 1 1 1 
1 1 1 1 1 1 1 1 1 
1 1 1 1 1 1 1 1 1 
1 1 1 1 1 1 1 1 1 
1 1 1 1 1 1 1 1 1 
1 1 1 1 1 1 1 1 1 
1 1 1 1 1 1 1 1 1 
1 1 1 1 1 1 1 1 1 
1 1 1 1 1 1 1 1 1 
1 1 1 1 1 1 1 1 1 
1 1 1 1 1 1 1 1 1 
1 1 1 1 1 1 1 1 1 
1 1 1 1 1 1 1 1 1 
1 1 1 1 1 1 1 1 1 
1 1 1 1 1 1 1 1 1 
1 1 1 1 1 1 1 1 1 
1 1 1 1 1 1 1 1 1 
1 1 1 1 1 1 1 1 1 
1 1 1 1 1 1 1 1 1 
1 1 1 1 1 1 1 1 1 
1 1 1 1 1 1 1 1 1 
1 1 1 1 1 1 1 1 1 
1 1 1 1 1 1 1 1 1 
1 1 1 1 1 1 1 1 1 
1 1 1 1 1 1 1 1 1 
1 1 1 1 1 1 1 1 1 
1 1 1 1 1 1 1 1 1 
1 1 1 1 1 1 1 1 1 
1 1 1 1 1 1 1 1 1 
1 1 1 1 1 1 1 1 1 
1 1 1 1 1 1 1 1 1 
1 1 1 1 1 1 1 1 1 
1 1 1 1 1 1 1 1 1 
1 1 1 1 1 1 1 1 1 
1 1 1 1 1 1 1 1 1 
1 1 1 1 1 1 1 1 1 
1 1 1 1 1 1 1 1 1 
1 1 1 1 1 1 1 1 1 
1 1 1 1 1 1 1 1 1 
1 1 1 1 1 1 1 1 1 
1 1 1 1 1 1 1 1 1 
1 1 1 1 1 1 1 1 1 
1 1 1 1 1 1 1 1 1 
1 1 1 1 1 1 1 1 1 
1 1 1 1 1 1 1 1 1 
1 1 1 1 1 1 1 1 1 
1 1 1 1 1 1 1 1 1 
1 1 1 1 1 1 1 1 1 
1 1 1 1 1 1 1 1 1 
1 1 1 1 1 1 1 1 1 
1 1 1 1 1 1 1 1 1 
1 1 1 1 1 1 1 1 1 
1 1 1 1 1 1 1 1 1 
1 1 1 1 1 1 1 1 1 
1 1 1 1 1 1 1 1 1 
1 1 1 1 1 1 1 1 1 
1 1 1 1 1 1 1 1 1 
1 1 1 1 1 1 1 1 1 
1 1 1 1 1 1 1 1 1 
1 1 1 1 1 1 1 1 1 
1 1 1 1 1 1 1 1 1 
1 1 1 1 1 1 1 1 1 
1 1 1 1 1 1 1 1 1 
1 1 1 1 1 1 1 1 1 
1 1 1 1 1 1 1 1 1 
1 1 1 1 1 1 1 1 1 
1 1 1 1 1 1 1 1 1 
1 1 1 1 1 1 1 1 1 
1 1 1 1 1 1 1 1 1 
1 1 1 1 1 1 1 1 1 
1 1 1 1 1 1 1 1 1 
1 1 1 1 1 1 1 1 1 
1 1 1 1 1 1 1 1 1 
1 1 1 1 1 1 1 1 1 
1 1 1 1 1 1 1 1 1 
1 1 1 1 1 1 1 1 1 
1 1 1 1 1 1 1 1 1 
1 1 1 1 1 1 1 1 1 
1 1 1 1 1 1 1 1 1 
1 1 1 1 1 1 1 1 1 
1 1 1 1 1 1 1 1 1 
1 1 1 1 1 1 1 1 1 
1 1 1 1 1 1 1 1 1 
1 1 1 1 1 1 1 1 1 
1 1 1 1 1 1 1 1 1 
1 1 1 1 1 1 1 1 1 
1 1 1 1 1 1 1 1 1 
1 1 1 1 1 1 1 1 1 
1 1 1 1 1 1 1 1 1 
1 1 1 1 1 1 1 1 1 
1 1 1 1 1 1 1 1 1 
1 1 1 1 1 1 1 1 1 
1 1 1 1 1 1 1 1 1 
1 1 1 1 1 1 1 1 1 
1 1 1 1 1 1 1 1 1 
1 1 1 1 1 1 1 1 1 
1 1 1 1 1 1 1 1 1 
1 1 1 1 1 1 1 1 1 
1 1 1 1 1 1 1 1 1 
1 1 1 1 1 1 1 1 1 
1 1 1 1 1 1 1 1 1 
1 1 1 1 1 1 1 1 1 
1 1 1 1 1 1 1 1 1 
1 1 1 1 1 1 1 1 1 
1 1 1 1 1 1 1 1 1 
1 1 1 1 1 1 1 1 1 
1 1 1 1 1 1 1 1 1 
1 1 1 1 1 1 1 1 1 
1 1 1 1 1 1 1 1 1 
1 1 1 1 1 1 1 1 1 
1 1 1 1 1 1 1 1 1 
1 1 1 1 1 1 1 1 1 
1 1 1 1 1 1 1 1 1 
1 1 1 1 1 1 1 1 1 
1 1 1 1 1 1 1 1 1 
1 1 1 1 1 1 1 1 1 
1 1 1 1 1 1 1 1 1 
1 1 1 1 1 1 1 1 1 
1 1 1 1 1 1 1 1 1 
1 1 1 1 1 1 1 1 1 
1 1 1 1 1 1 1 1 1 
1 1 1 1 1 1 1 1 1 
1 1 1 1 1 1 1 1 1 
1 1 1 1 1 1 1 1 1 
1 1 1 1 1 1 1 1 1 
1 1 1 1 1 1 1 1 1 
1 1 1 1 1 1 1 1 1 
1 1 1 1 1 1 1 1 1 
1 1 1 1 1 1 1 1 1 
1 1 1 1 1 1 1 1 1 
1 1 1 1 1 1 1 1 1 
1 1 1 1 1 1 1 1 1 
1 1 1 1 1 1 1 1 1 
1 1 1 1 1 1 1 1 1 
1 1 1 1 1 1 1 1 1 
1 1 1 1 1 1 1 1 1 
1 1 1 1 1 1 1 1 1 
1 1 1 1 1 1 1 1 1 
1 1 1 1 1 1 1 1 1 
1 1 1 1 1 1 1 1 1 
1 1 1 1 1 1 1 1 1 
1 1 1 1 1 1 1 1 1 
1 1 1 1 1 1 1 1 1 
1 1 1 1 1 1 1 1 1 
1 1 1 1 1 1 1 1 1 
1 1 1 1 1 1 1 1 1 
1 1 1 1 1 1 1 1 1 
1 1 1 1 1 1 1 1 1 
1 1 1 1 1 1 1 1 1 
1 1 1 1 1 1 1 1 1 
1 1 1 1 1 1 1 1 1 
1 1 1 1 1 1 1 1 1 
1 1 1 1 1 1 1 1 1 
1 1 1 1 1 1 1 1 1 
1 1 1 1 1 1 
NORMALS Normals float
0.18899 -0.904866 -0.381444 -0.0683441 -0.58547 -0.807808 0.281593 -0.847069 -0.450755 
-0.225211 -0.356272 -0.906835 0.184194 -0.416384 -0.890335 -0.177142 -0.209305 -0.961672 
-0.00083737 -0.161555 -0.986863 0.0327315 -0.882956 -0.468313 0.410989 -0.652674 -0.636479 
0.0524705 -0.584879 -0.809421 -0.164169 -0.106764 -0.980637 0.155597 -0.0325198 -0.987285 
0.323118 -0.138173 -0.936217 -0.0770015 0.173772 -0.981771 0.0584007 0.234817 -0.970284 
-0.204826 -0.625678 -0.752711 -0.202254 -0.819508 -0.536191 0.0424095 -0.880314 -0.472493 
-0.356185 -0.175831 -0.917723 -0.339149 -0.104851 -0.934871 0.316646 0.00111231 -0.948543 
-0.219278 0.190275 -0.956929 0.506642 0.00982862 -0.8621 0.0819688 0.30208 -0.949752 
0.569346 0.266701 -0.777635 0.17711 0.226252 -0.957832 0.399832 -0.696028 -0.596389 
0.441431 -0.264715 -0.857359 0.457323 -0.357788 -0.814152 -0.252635 0.24668 -0.935588 
0.336578 0.085345 -0.93778 -0.112171 0.387326 -0.915093 0.276331 0.408385 -0.869979 
-0.354717 -0.336746 -0.872226 0.449514 -0.674361 -0.585811 -0.295848 0.143154 -0.944448 
0.341561 -0.0254319 -0.939515 0.287198 0.0800724 -0.954519 -0.0668912 0.471651 -0.879245 
0.190645 0.445436 -0.874781 0 0 -1 -0.83205 -0.5547 0 
-1 0 2.78775e-08 1 0 2.78775e-08 0.304664 -0.845587 -0.438363 
0 0.5547 -0.83205 -0.364486 -0.271526 -0.890743 -0.433239 -0.0725287 -0.898356 
0.36286 -0.154516 -0.918944 0.404091 -0.377723 -0.833088 0.3982 -0.0218739 -0.917038 
-0.329874 0.215078 -0.919198 0.246509 0.337792 -0.908367 0.243929 0.435622 -0.866448 
0 0 1 -0.363014 -0.378421 -0.85148 0.511081 -0.500403 -0.698851 
0.488316 -0.526079 -0.696267 0.333161 0.178858 -0.92575 0.379347 0.0205019 -0.925027 
-0.209054 0.393083 -0.895423 0.106869 0.622343 -0.775415 -0.183519 -0.623915 -0.759638 
-0.325102 -0.223034 -0.919002 0.423609 -0.717644 -0.552759 0.408443 -0.600017 -0.687862 
0.437037 -0.141336 -0.88827 0.290642 -0.225661 -0.929841 0.339037 -0.0917299 -0.936291 
0.355262 -0.146757 -0.923175 -0.074269 0.480365 -0.873919 -0.156984 -0.55183 -0.819048 
0.496533 -0.494637 -0.713295 0.262169 0.276881 -0.924448 0.201386 0.236494 -0.950534 
0.357279 -0.115855 -0.926784 0.329385 -0.110427 -0.937716 0.218438 0.215107 -0.951848 
0.201988 0.267685 -0.942096 -0.207117 0.190287 -0.959632 0.15044 -0.836429 -0.527025 
0.464334 -0.751826 -0.468137 0.380769 -0.641056 -0.66638 0.355152 -0.641851 -0.679629 
0.347606 -0.246412 -0.904683 0.286513 -0.00879552 -0.958036 0.27484 -0.0821249 -0.957976 
0.338964 -0.178484 -0.923714 0.123093 0.62092 -0.774149 -0.138673 0.321644 -0.936651 
0.0783324 0.519588 -0.850819 0.468669 -0.579678 -0.666576 -0.368171 0.0762623 -0.926625 
0.460152 -0.323027 -0.826991 0.132324 0.432193 -0.89202 0.202186 0.269386 -0.941569 
0.241186 0.0685898 -0.968052 0.280557 -0.0154059 -0.959714 0.402026 -0.146298 -0.903865 
0.0853177 0.304522 -0.948677 0.355602 0.0963747 -0.929655 0.267986 0.233544 -0.934687 
-0.427061 0.118294 -0.896452 0.250054 0.408953 -0.877628 -0.256795 0.366978 -0.894083 
-0.635299 -0.0468576 -0.770844 -0.425507 -0.0864668 -0.900815 0.496713 -0.519811 -0.695035 
0.397225 -0.118315 -0.910063 0.136278 0.637838 -0.758018 -0.000829354 0.564284 -0.82558 
0.000551223 0.420437 -0.907322 0.340674 0.217683 -0.914634 -0.600754 0.196348 -0.774947 
-0.605254 -0.178783 -0.775696 -0.817265 0.00547369 -0.576236 -0.698143 0.0871337 -0.710636 
0.469804 -0.75629 -0.455313 0.357441 -0.808415 -0.467654 0.567297 -0.0644491 -0.820988 
0.483664 0.226122 -0.84554 -0.00317163 0.535787 -0.844347 -0.567146 0.296902 -0.768241 
-0.474151 0.446468 -0.758846 0.0250892 0.605926 -0.795125 0.314307 0.746752 -0.586151 
-0.191511 0.619745 -0.761078 -0.0796808 0.655717 -0.750791 0.0393254 -0.823204 -0.566383 
-0.152042 -0.73453 -0.661323 0.0409345 -0.773825 -0.632075 0.114619 -0.602566 -0.789796 
-0.269093 -0.600946 -0.752631 0.0196177 -0.483597 -0.875071 0.157512 -0.535486 -0.829726 
0.0569995 -0.587689 -0.807077 0.0375236 -0.684639 -0.727915 0.0854311 -0.526649 -0.845779 
0.212442 -0.65259 -0.72732 -0.160326 -0.511512 -0.844186 -0.368031 -0.309695 -0.876723 
0.180049 -0.530774 -0.828167 0.364555 -0.699812 -0.614298 -0.773987 -0.0682638 -0.629511 
-0.771396 -0.082831 -0.630942 -0.874096 -0.0613312 -0.481865 0.408278 -0.655124 -0.635706 
0.470472 -0.526854 -0.70787 0.626919 -0.11425 -0.770662 0.0884006 0.732241 -0.675284 
-0.0703538 0.654325 -0.752933 0.188939 0.558554 -0.807663 0.184587 -0.883384 -0.430768 
-0.118468 -0.881382 -0.457309 0.046045 -0.795683 -0.603961 0.222034 -0.737812 -0.637443 
-0.180745 -0.805078 -0.56496 -0.049195 -0.556752 -0.82922 0.0814307 -0.65426 -0.751873 
-0.044303 -0.84886 -0.526758 0.0792467 -0.769143 -0.634145 0.189211 -0.788819 -0.584777 
0.0474991 -0.81619 -0.575828 0.103006 -0.559648 -0.822304 0.177333 -0.546649 -0.818369 
0.135842 -0.297823 -0.944907 0.197869 -0.643685 -0.739268 0.0608967 -0.320906 -0.945151 
0.166088 -0.369063 -0.914443 0.21294 -0.444371 -0.870167 0.0763497 -0.352749 -0.932598 
0.0917115 -0.186134 -0.978235 0.201043 -0.38463 -0.900911 0.203388 -0.28753 -0.935927 
-0.467923 -0.483665 -0.739673 -0.679735 -0.38952 -0.621477 -0.814725 -0.118076 -0.567698 
0.324487 -0.710198 -0.624761 0.432332 -0.733888 -0.523925 0.332823 -0.686869 -0.646096 
0.42381 -0.723188 -0.545329 -0.919083 0.0446072 -0.39153 -0.942004 0.110653 -0.316836 
0.371418 -0.782721 -0.499396 0.28183 0.428024 -0.858701 -0.861206 0.190135 -0.471353 
-0.765384 0.310233 -0.563865 -0.726724 0.407579 -0.552948 -0.324953 0.668615 -0.668849 
-0.180725 -0.821066 -0.541469 0.103907 -0.908492 -0.404779 -0.1271 -0.937995 -0.322507 
0.076461 -0.86987 -0.487319 0.144576 -0.922167 -0.358757 -0.042633 -0.968322 -0.24604 
0.318511 -0.620615 -0.716511 0.333074 -0.744256 -0.578917 0.0718319 -0.856559 -0.511025 
0.0515006 -0.891672 -0.449743 0.087507 -0.516495 -0.851807 0.289733 0.134761 -0.947573 
0.523022 -0.379138 -0.763349 0.103666 -0.150508 -0.983159 0.260156 -0.0523696 -0.964145 
-0.843579 -0.234818 -0.482944 0.416123 -0.591659 -0.690493 0.37391 -0.5877 -0.717496 
0.395868 -0.654951 -0.643683 0.450815 -0.31024 -0.836969 0.0469572 0.73867 -0.67243 
0.307587 0.561591 -0.768118 0.116321 0.801998 -0.585891 -0.409876 -0.755912 -0.510489 
-0.299324 -0.856097 -0.421312 0.166068 -0.961601 -0.218506 -0.0451341 -0.998567 -0.0287393 
0.0417369 -0.979148 -0.198816 0.0641704 -0.92343 -0.378364 0.357754 -0.868548 -0.342981 
0.183361 -0.964885 -0.188084 0.0573087 -0.936805 -0.345126 0.594214 -0.452159 -0.665178 
0.447837 0.0943593 -0.889122 0.250545 -0.271862 -0.929149 0.341596 -0.282211 -0.896476 
0.325485 -0.404102 -0.854845 -0.947253 0.0653583 -0.313752 0.358179 -0.491998 -0.793502 
0.41566 -0.585808 -0.695741 0.320934 -0.498883 -0.805057 0.492398 -0.223586 -0.841162 
0.451042 0.197104 -0.870466 -0.941335 0.260711 -0.214285 -0.857859 0.288812 -0.425049 
-0.159444 0.794341 -0.586174 0.005032 -0.994799 -0.101735 -0.613463 -0.636566 -0.467383 
-0.42614 -0.818533 -0.385238 -0.19959 -0.977813 0.0636095 0.37986 -0.903541 -0.198294 
0.555034 -0.689924 -0.464696 -0.701211 -0.517693 -0.490201 0.662252 -0.253216 -0.705198 
0.10892 -0.0422986 -0.99315 -0.971904 -0.0312048 -0.2333 0.0839955 -0.22864 -0.969881 
0.255206 -0.339901 -0.905173 0.517205 -0.458096 -0.722943 0.527539 -0.056441 -0.847654 
-0.960126 0.161744 -0.22803 0.347903 0.623586 -0.700074 -0.07942 0.744052 -0.663385 
0.0877642 0.75089 -0.65457 -0.715074 0.582872 -0.385913 -0.423845 0.76127 -0.490737 
-0.0781212 0.862883 -0.49933 -0.145441 -0.979276 -0.140948 -0.076796 -0.993925 -0.0788416 
0.100765 -0.994726 0.0191682 -0.474443 -0.801231 -0.364599 -0.572546 -0.748813 -0.333871 
0.128897 -0.990965 0.0370736 -0.241011 -0.951649 0.190467 0.0202238 -0.995542 -0.0921242 
-0.758217 -0.606215 -0.240024 0.0423436 -0.998724 0.027516 0.620355 -0.63235 -0.463997 
-0.865925 -0.439286 -0.23917 -0.954774 -0.171743 -0.242717 0.507529 0.0501908 -0.860171 
-0.983295 0.163843 -0.0792834 0.438026 -0.416038 -0.796898 0.474782 -0.72387 -0.500594 
0.483008 0.354927 -0.800456 0.0714222 0.749833 -0.65776 -0.932435 0.262465 -0.248349 
-0.341979 -0.918006 -0.200785 -0.604298 -0.769754 -0.205675 -0.325005 -0.933401 -0.152098 
-0.0942586 -0.968093 0.232189 0.116128 -0.983531 0.138496 0.508764 -0.816996 -0.271435 
0.596123 -0.589433 -0.545166 -0.0660074 -0.980224 0.186558 0.526507 -0.0819625 -0.846211 
0.467 -0.13108 -0.874488 -0.989294 0.0879958 -0.116426 0.496255 -0.324336 -0.805318 
0.538789 -0.726326 -0.426798 0.423883 -0.621933 -0.658424 0.37312 -0.442913 -0.815236 
0.433343 0.789087 -0.43538 -0.3454 -0.936808 0.0555943 -0.577189 -0.816608 -0.00191692 
-0.552086 -0.829796 0.081484 -0.700958 -0.708534 -0.0814661 0.0598974 -0.977515 0.202178 
0.0482852 -0.997893 0.043333 0.375603 -0.925906 -0.0402585 -0.980253 -0.188127 -0.0609277 
-0.997605 -0.0391329 -0.0570408 0.545994 -0.413492 -0.728639 0.575176 -0.389049 -0.719593 
0.619639 -0.392047 -0.67996 0.539834 -0.401454 -0.739875 0.515032 -0.581668 -0.629606 
0.410383 -0.56622 -0.714829 0.331302 -0.502484 -0.798592 0.545972 0.00496755 -0.837789 
0.558784 0.369475 -0.742461 0.428299 0.688531 -0.585223 0.216997 0.791541 -0.571293 
0.149237 0.872545 -0.465182 0.224372 0.861484 -0.455524 0.0249241 0.895703 -0.443954 
-0.393333 0.848499 -0.354033 0.164441 -0.948744 0.269898 0.305833 -0.951696 -0.027238 
0.350761 -0.904126 -0.243973 -0.869984 -0.486601 0.0796747 -0.98395 0.122666 0.129594 
0.379238 -0.491843 -0.783753 0.518823 -0.300076 -0.800486 0.334769 0.861434 -0.381918 
0.184951 0.922761 -0.338092 -0.186844 0.929941 -0.316701 -0.198105 0.91637 -0.347879 
-0.22443 -0.962564 0.151993 0.112157 -0.960511 0.254636 -0.79617 -0.512223 0.322087 
0.318008 -0.889534 -0.328026 -0.996664 -0.0539504 0.0612363 0.588236 -0.388265 -0.709386 
0.600823 -0.121484 -0.790097 -0.993965 -0.0670037 0.0868599 -0.960524 0.103536 0.258211 
-0.998201 0.0516553 0.0304276 -0.970833 0.208858 0.117735 0.332772 -0.854522 -0.398818 
0.536135 -0.341637 -0.771909 0.596218 -0.0949435 -0.797189 0.571613 0.521344 -0.633608 
0.367885 0.833454 -0.412329 0.0345447 0.891605 -0.451495 -0.915183 0.393111 -0.0889016 
-0.645027 0.709893 -0.282831 -0.162636 0.923302 -0.347942 0.426796 -0.743644 -0.514625 
0.691133 -0.620384 -0.370754 0.0173171 -0.953668 0.300362 0.757483 -0.0690715 -0.649191 
0.254005 -0.777823 -0.574867 0.279615 -0.648883 -0.707649 -0.993364 0.108628 0.0377781 
0.575951 0.318211 -0.753009 0.571478 0.487302 -0.660265 -0.965371 0.258432 0.0356728 
0.093269 0.884784 -0.456572 -0.430469 -0.834188 0.344713 0.360551 -0.854604 -0.373706 
0.137015 -0.896166 0.422035 0.758631 -0.356627 -0.545249 0.724425 -0.00293075 -0.689348 
0.733346 0.0676806 -0.676479 0.707077 0.123293 -0.696305 0.460876 -0.775688 -0.431164 
0.170881 -0.787294 -0.592425 0.356373 -0.647455 -0.673647 0.649219 -0.274507 -0.709338 
0.689284 0.0440479 -0.723151 0.672697 0.52741 -0.518958 0.626525 0.583405 -0.516823 
0.477556 0.752567 -0.453414 0.23764 0.958395 -0.158131 -0.525406 0.81491 -0.244685 
-0.512726 0.826392 -0.232783 -0.123006 -0.863593 0.488954 0.178555 -0.977439 -0.112829 
0.565446 -0.714014 -0.412861 0.576136 -0.704427 -0.414547 0.143493 -0.982709 -0.117016 
0.783132 0.00744882 -0.621811 0.665514 -0.151442 -0.73086 0.48872 -0.419401 -0.76502 
0.323962 -0.40535 -0.854833 0.344779 -0.696608 -0.629178 0.766139 0.291374 -0.572828 
0.650335 0.42674 -0.628456 0.34136 0.89253 -0.294727 0.114911 0.988674 -0.0965356 
-0.533588 0.827849 -0.173058 -0.136596 0.92944 -0.342758 -0.601173 -0.632522 0.488373 
0.0592269 -0.99746 0.0395683 -0.78245 -0.414773 0.464473 -0.942564 -0.0938204 0.320578 
-0.965484 0.0274184 0.259014 0.699985 0.51351 -0.496315 -0.982384 0.184369 0.0304811 
0.500961 0.797956 -0.335119 0.347217 0.930022 -0.120412 0.330151 0.942559 -0.0508149 
-0.876455 0.478814 -0.0506374 -0.48402 0.846188 -0.222913 0.286387 -0.928115 -0.237876 
0.487431 -0.774436 -0.40331 -0.480762 -0.628153 0.611794 0.756201 -0.397111 -0.520061 
-0.0527513 -0.900413 0.431826 0.772891 -0.185028 -0.606963 0.791727 -0.23951 -0.561964 
0.813512 0.1786 -0.553444 0.671465 0.632425 -0.386229 0.597781 0.742535 -0.302158 
0.704481 0.684147 -0.188814 0.163217 0.975943 0.144552 0.215445 0.910751 -0.352301 
-0.187761 0.935853 -0.298204 0.0638145 -0.872452 0.484515 -0.0689951 -0.976 0.20655 
-0.0471907 -0.983421 0.17509 0.647378 -0.609623 -0.457451 -0.21445 -0.925333 0.31268 
0.0148317 -0.826311 0.563018 0.700058 -0.274788 -0.659098 -0.886163 -0.158224 0.435523 
0.340478 -0.773471 -0.534619 0.378102 -0.746755 -0.547171 0.906636 0.0560319 -0.418177 
0.862114 0.390814 -0.322527 0.749943 0.571652 -0.332866 0.170619 0.977632 0.122985 
0.259092 0.961445 -0.0921639 0.195447 0.978681 -0.0631238 0.255575 0.94662 -0.196449 
0.106584 0.893601 -0.436023 -0.617202 0.756561 -0.216047 0.269227 -0.90837 -0.319971 
-0.452756 -0.586284 0.671776 -0.788004 -0.323927 0.523566 0.629872 -0.379891 -0.677454 
0.473866 -0.569192 -0.671916 0.247679 -0.765068 -0.594413 0.594624 -0.553282 -0.583353 
0.914225 -0.161357 -0.371695 0.462832 0.883428 -0.0730899 0.228634 0.958987 0.167542 
0.295841 0.911319 -0.286314 -0.540372 0.805684 -0.242636 0.322465 -0.913411 -0.248389 
-0.0297334 -0.999501 -0.0106388 0.0535191 -0.990954 -0.123072 0.526259 -0.759286 -0.382801 
0.078012 -0.868668 0.489214 -0.00514205 -0.831585 0.555373 0.604272 -0.244008 -0.758496 
0.461261 -0.774905 -0.432158 -0.945863 -0.0310995 0.323074 0.761545 0.636182 -0.123782 
0.304943 0.930955 -0.200831 0.320125 0.937081 -0.139284 0.232362 0.963141 -0.135528 
-0.533878 0.839656 -0.0997572 -0.188932 -0.731229 0.655446 0.611834 -0.584214 -0.533247 
-0.305663 -0.63103 0.713002 -0.690351 -0.314034 0.651765 0.56474 -0.314078 -0.763167 
0.733051 -0.54756 -0.403503 0.875295 -0.362574 -0.319999 0.986589 -0.0535538 -0.154188 
0.951821 0.29263 -0.0916763 -0.975685 0.0173158 0.218494 0.188197 0.934678 0.301593 
0.385817 0.909349 0.155656 0.288118 0.957436 0.017433 -0.229512 0.954511 -0.190347 
0.092089 -0.989423 -0.112083 0.606306 -0.650351 -0.457643 -0.278628 -0.637766 0.718067 
0.0648806 -0.777721 0.625252 -0.227111 -0.818798 0.527248 -0.33893 -0.800935 0.493588 
-0.473062 -0.434389 0.766498 0.608195 -0.335009 -0.71963 -0.810084 -0.190048 0.554658 
-0.827656 -0.20537 0.522311 0.290208 -0.742573 -0.603627 0.55502 -0.753435 -0.352545 
0.0251166 0.191135 0.981242 0.0113999 -0.0756929 0.997066 -0.205174 0.0566947 0.977082 
0.612196 0.790471 -0.0192654 0.285006 0.958136 0.0273387 0.381517 0.912863 0.145345 
0.161825 0.941799 -0.294666 0.345865 0.934877 0.079897 -0.0575215 -0.99786 -0.0310749 
-0.124346 -0.635138 0.762323 0.00622367 -0.80293 0.596041 0.700976 -0.391524 -0.596105 
-0.344469 -0.839686 0.419843 -0.30389 -0.497724 0.812356 0.20543 -0.779322 -0.591993 
0.969621 -0.239447 -0.050002 0.145972 0.246238 0.958154 -0.2158 0.183101 0.959117 
-0.116675 0.117419 0.986205 0.0775997 0.00616947 0.996966 -0.264036 0.221542 0.938725 
0.284069 -0.0578819 0.957055 -0.143656 -0.0909317 0.985441 -0.978994 0.164655 0.120246 
-0.947684 0.312942 0.0629491 0.370417 0.91579 0.155308 0.293785 0.952984 -0.0742429 
0.322225 0.946504 0.0173251 -0.755509 0.650808 -0.0752069 0.464861 -0.8047 -0.369272 
0.05124 -0.794805 0.604698 -0.582339 -0.303019 0.754361 0.677493 -0.684779 -0.268479 
-0.792221 -0.17613 0.584263 0.109081 0.263715 0.958413 0.866798 -0.446869 -0.221293 
-0.216369 0.400202 0.890518 0.992017 -0.0165793 0.125007 0.314836 0.000356801 0.949146 
-0.520646 0.242027 0.818749 0.792525 0.601742 0.0990507 -0.191341 -0.117499 0.974465 
0.25317 -0.323227 0.911827 0.158531 -0.370621 0.915154 0.434777 0.814043 0.385101 
-0.930286 0.364665 0.0398419 -0.508799 0.858718 -0.0610518 -0.0314268 0.977813 -0.207109 
0.276192 -0.954197 -0.115003 -0.292094 -0.944167 0.152416 0.558434 -0.788632 -0.257314 