# vtk DataFile Version 4.2
vtk output
ASCII
DATASET POLYDATA
POINTS 6676 float
390 160.009 122.017 390 160.009 122.017 390 160.009 122.017 
390 160.009 122.017 390 160.009 122.017 392.791 167.992 122.687 
389.329 180.296 123.215 385.494 181.763 122.397 384.306 183.507 122.708 
379.963 184.551 122.642 378.456 188.207 123.297 379.835 188.138 123.231 
380.009 188.619 123.399 390.495 151.922 123.759 389.278 155.906 123.175 
390 160.009 122.018 390.971 159.507 122.864 388.604 162.598 122.501 
382.923 164.237 123.439 384.533 167.495 122.501 395.071 167.569 123.679 
379.017 174.379 123.511 395.002 175.511 123.015 395.002 175.511 123.015 
395.002 175.511 123.015 395.002 175.511 123.015 392.706 175.242 123.756 
395.002 175.511 123.015 395.002 175.511 123.015 395.002 175.511 123.015 
395.002 175.511 123.015 388.406 181.526 123.221 389.239 181.019 123.459 
385.746 183.785 123.238 382.465 186.242 123.198 379.185 189.575 123.63 
379.624 190.383 123.882 379.705 190.303 123.874 379.728 190.388 123.88 
379.546 190.515 123.992 379.749 190.425 123.926 380.932 168.784 123.564 
395.35 168.936 124.015 394.478 170.174 123.551 394.577 172.913 124.362 
395.002 175.511 123.015 394.394 174.299 124.851 394.424 174.162 124.902 
393.302 175.194 124.238 395.002 175.511 123.015 394.24 174.546 124.892 
391.983 177.456 124.015 390.331 180.548 124.062 385.858 185.515 124.508 
383.265 186.79 123.776 380.006 190.389 124.058 379.804 190.388 123.916 
380.396 190.214 124.094 375.915 191.716 124.656 381.114 191.687 125.489 
392.977 146.622 125.261 384.116 153.475 124.914 398.261 162.228 125.751 
379.399 164.24 125.536 395.19 171.956 124.6 395.918 170.721 125.334 
395.759 171.035 125.332 395.909 170.782 125.4 394.143 174.425 124.705 
393.886 174.907 124.772 394.018 174.778 125.002 393.992 175.053 124.982 
393.934 175.086 124.982 394.165 174.715 124.999 393.78 175.215 124.931 
393.672 175.523 124.943 393.935 175.18 125.02 392.041 178.062 124.637 
390.59 180.395 124.249 389.961 182.017 124.991 385.299 186.727 125.048 
375.04 187.555 124.316 382.425 190.7 125.753 375.365 194.587 125.696 
378.119 194.724 126.22 393.14 139.872 126.929 389.078 143.817 126.217 
390.605 143.842 125.893 397.226 150.122 126.408 382.884 151.974 126.246 
381.374 155.166 126.383 378.924 162.332 126.436 399.155 161.68 126.946 
398.336 163.617 126.186 397.88 165.089 126.211 395.904 170.485 125.161 
395.936 170.408 125.637 395.005 172.664 124.944 394.829 172.973 125.247 
394.078 174.773 125.037 390.869 176.46 125.789 393.605 175.41 125.115 
393.901 175.147 125.031 392.707 176.915 125.023 393.249 175.928 125.146 
392.221 177.801 125.083 392.483 177.068 125.205 391.679 178.931 124.875 
392.008 178.785 125.242 391.081 179.854 124.973 391.522 179.187 125.186 
391.902 178.896 125.291 390.656 180.823 124.98 390.523 181.267 125.133 
390.377 181.554 125.151 389.4 182.743 125.254 389.113 183.06 125.223 
387.088 184.968 125.286 387.728 184.263 125.467 385.324 187.203 125.758 
371.745 195.387 126.214 372.582 195.914 126.246 373.524 196.089 126.299 
388.697 141.487 127.286 400 151.009 127.017 400 151.009 127.017 
400 151.009 127.017 400 151.009 127.017 400 151.009 127.017 
381.377 152.871 127.453 398.249 164.492 126.64 398.27 164.57 127.079 
397.039 167.343 126.221 395.283 171.651 125.728 393.405 174.783 125.444 
391.907 176.934 125.519 391.676 178.675 125.354 392.023 178.609 125.256 
392.067 178.802 125.316 390.794 179.773 125.428 392.05 178.872 125.33 
392.061 178.884 125.358 389.309 181.549 125.837 390.262 181.709 125.285 
382.004 185.013 127.009 382.004 185.013 127.009 382.004 185.013 127.009 
382.004 185.013 127.009 388.846 183.308 125.347 382.004 185.013 127.009 
370.587 187.51 126.782 386.446 185.691 125.627 386.737 185.293 125.702 
385.384 187.019 126.26 385.832 186.295 126.049 384.972 188.1 126.38 
383.376 190.071 126.351 381.63 192.624 127.054 377.247 196.442 126.969 
373.377 198.095 127.264 395.136 133.631 128.907 392.181 135.698 128.626 
385.347 146.029 127.085 400 151.009 127.018 380.096 155.315 128.111 
399.695 157.513 127.363 388.051 160.762 128.973 390.624 161.072 128.736 
399.047 163.083 128.011 386.216 165.98 128.249 397.121 166.232 127.256 
395.511 169.523 126.418 396.046 169.084 126.255 392.07 178.856 125.351 
382.004 185.013 127.009 388.447 183.278 125.744 377.025 185.568 128.84 
389 187.009 128.017 389 187.009 128.017 389 187.009 128.017 
389 187.009 128.017 384.752 187.12 126.783 385.208 188.363 126.956 
385.159 188.282 126.893 385.211 188.389 126.943 385.247 188.409 126.982 
389 187.009 128.017 385.246 188.423 126.984 385.006 188.026 126.782 
385.088 188.3 126.799 385.125 188.425 126.905 385.202 188.43 126.965 
384.903 188.501 126.803 382.899 190.739 126.867 375.299 192.816 129.556 
380.035 195.407 127.89 366.539 196.467 128.303 379.018 196.206 127.68 
367.308 198.59 128.357 368.488 199.461 128.368 396.668 135.193 128.691 
386.195 142.031 128.742 384.25 145.072 128.817 380.226 154.459 128.841 
400.596 153.612 129.156 379.567 155.657 129.044 386.892 157.81 129.761 
390.923 159.173 129.232 393.746 160.663 129.47 395.155 161.062 129.923 
400.331 160.889 129.512 385.431 163.099 129.293 399.966 161.774 129.626 
400.191 161.432 129.649 396.072 162.983 129.39 399.809 161.965 129.168 
399.488 162.384 128.904 396.265 163.4 129.207 398.553 163.147 129.149 
399.241 162.549 129.308 395.663 165.276 128.171 396.798 164.058 128.869 
389 187.009 128.017 385.102 188.341 126.931 385.208 188.413 126.975 
384.801 188.458 126.937 385.083 188.44 126.935 366.858 189.702 129.16 
381.776 190.099 127.91 382.318 190.28 127.697 381.992 191.022 127.808 
382.574 190.873 127.391 383.912 189.572 126.985 381.898 191.931 127.716 
381.389 192.867 128.034 380.823 194.672 128.64 380.296 195.598 128.424 
380.612 195.331 128.871 374.004 200.463 128.966 397.436 126.615 131.17 
395.543 128.358 130.939 395.215 128.599 130.958 393.956 129.935 130.967 
400.045 131.413 130.753 391.126 133.656 130.802 390.353 135.139 130.086 
389.612 135.736 130.445 388.994 136.816 130.072 388.888 136.786 130.436 
385.951 141.457 129.945 385.417 142.739 129.277 384.337 144.236 129.513 
383.635 145.682 129.564 384.112 144.539 129.626 389.468 148.794 130.83 
382.234 149.782 129.475 382 150.23 129.315 392.789 150.252 130.969 
380.675 153.739 129.587 395.037 154.073 131.459 378.721 156.642 130.019 
395.456 157.934 131.165 376.82 160.285 130.022 400.628 160.197 130.598 
396.176 160.565 130.799 400.366 161.161 130.255 396.859 161.985 130.337 
400.18 161.53 129.87 400.305 161.337 130.187 398.162 162.218 130.569 
400.066 161.609 130.08 400.205 161.426 130.284 398.325 162.686 129.915 
373.876 184.248 130.754 384.153 189.255 127.018 380.768 193.168 128.61 
384.005 193.511 130.013 384.004 193.511 130.013 384.004 193.511 130.013 
384.005 193.511 130.013 380.902 194.004 128.621 384.004 193.511 130.013 
384.004 193.511 130.013 384.005 193.511 130.013 380.851 194.575 128.796 
380.845 194.717 128.82 384.005 193.511 130.013 380.828 194.725 128.885 
380.554 195.418 129.221 380.781 194.858 128.917 379.913 197.176 129.524 
376.435 200.623 130.137 371.382 202.536 130.16 398.7 124.94 131.751 
394.115 128.305 132.015 393.703 128.94 132.066 391.185 133.387 131.238 
389.505 135.825 130.669 388.55 137.362 130.536 388.007 138.324 130.553 
386.903 140.011 130.539 385.761 141.732 130.13 385.759 141.828 130.306 
385.053 143.056 130.178 384.284 144.165 130.031 384.284 144.234 130.207 
383.637 145.899 129.974 382.856 148.761 129.879 385.383 148.897 130.795 
381.911 151 129.637 394.207 150.559 131.491 395.335 150.34 132.204 
381.254 152.949 129.862 382.381 154.474 130.87 395.912 153.205 132.43 
378.499 156.793 130.518 382.649 157.688 131.286 383.886 158.99 130.689 
396.553 160.554 131.144 397.81 161.209 131.859 400.02 161.351 130.71 
399.978 160.975 131.765 371.204 185.954 132.021 365.529 189.456 131.075 
364.613 190.479 131.667 365.128 190.432 131.05 369.739 192.574 131.042 
384.004 193.511 130.013 361.386 193.973 131.553 384.005 193.511 130.013 
380.739 194.71 128.961 384.004 195.013 131.009 384.004 195.013 131.009 
384.004 195.013 131.009 384.004 195.013 131.009 380.301 195.427 129.489 
380.479 195.689 129.466 380.438 195.641 129.484 384.004 195.013 131.009 
380.429 195.775 129.547 380.393 195.883 129.555 366.883 196.492 132.282 
380.036 197.066 129.914 379.83 197.97 130.153 378.505 199.051 129.852 
398.32 122.506 133.167 399.169 121.916 133.343 400.127 122.17 133.156 
396.813 123.671 133.101 401.08 123.013 133.08 390.758 134.031 131.38 
391.304 133.193 131.463 391.112 133.611 131.571 388.997 136.644 130.797 
393.076 136.333 133.555 384.204 144.509 130.274 385.282 143.084 130.531 
394.568 142.588 132.789 383.917 145.588 130.297 384.782 145.815 130.805 
386.003 145.682 131.064 394.85 145.401 132.466 383.869 146.689 130.431 
395.751 146.594 132.856 384.624 148.952 130.698 383.831 150.09 130.541 
381.918 152.096 130.078 382.158 152.568 130.37 381.441 153.979 130.566 
382.137 153.374 130.583 396.342 152.51 133.015 380.28 155.133 130.73 
378.628 156.78 131.405 381.388 156.128 131.444 381.9 156.569 131.426 
377.021 158.235 131.918 396.599 158.325 132.488 400.682 159.811 132.271 
397.581 160.532 132.671 398.999 161.308 132.285 381.06 164.875 132.034 
363.983 190.119 132.246 364.105 189.566 132.521 364.616 189.851 132.526 
365.15 189.807 132.079 364.794 190.179 132.078 367.594 190.343 132.493 
365.292 192.263 133.275 365.749 191.443 132.916 384.004 195.013 131.009 
379.559 197.291 130.375 380.327 198.472 130.987 380.294 198.513 130.965 
380.349 198.505 131.004 380.36 198.534 131.024 380.015 198.148 130.702 
380.095 198.406 130.75 380.194 198.584 130.95 380.314 198.546 131.014 
364.679 199.04 133.622 377.495 198.719 131.063 378.852 199.18 130.811 
379.513 198.841 130.75 358.554 202.368 132.671 376.413 201.47 131.404 
377.206 200.534 130.946 398.252 121.176 134.278 400.061 120.029 134.554 
[...]
POINT_DATA 6676
SCALARS scalars float
LOOKUP_TABLE default
1 1 1 1 1 1 1 1 1 
1 1 1 1 1 1 1 1 1 
1 1 1 1 1 1 1 1 1 
1 1 1 1 1 1 1 1 1 
1 1 1 1 1 1 1 1 1 
1 1 1 1 1 1 1 1 1 
1 1 1 1 1 1 1 1 1 
1 1 1 1 1 1 1 1 1 
1 1 1 1 1 1 1 1 1 
1 1 1 1 1 1 1 1 1 
1 1 1 1 1 1 1 1 1 
1 1 1 1 1 1 1 1 1 
1 1 1 1 1 1 1 1 1 
1 1 1 1 1 1 1 1 1 
1 1 1 1 1 1 1 1 1 
1 1 1 1 1 1 1 1 1 
1 1 1 1 1 1 1 1 1 
1 1 1 1 1 1 1 1 1 
1 1 1 1 1 1 1 1 1 
1 1 1 1 1 1 1 1 1 
1 1 1 1 1 1 1 1 1 
1 1 1 1 1 1 1 1 1 
1 1 1 1 1 1 1 1 1 
1 1 1 1 1 1 1 1 1 
1 1 1 1 1 1 1 1 1 
1 1 1 1 1 1 1 1 1 
1 1 1 1 1 1 1 1 1 
1 1 1 1 1 1 1 1 1 
1 1 1 1 1 1 1 1 1 
1 1 1 1 1 1 1 1 1 
1 1 1 1 1 1 1 1 1 
1 1 1 1 1 1 1 1 1 
1 1 1 1 1 1 1 1 1 
1 1 1 1 1 1 1 1 1 
1 1 1 1 1 1 1 1 1 
1 1 1 1 1 1 1 1 1 
1 1 1 1 1 1 1 1 1 
1 1 1 1 1 1 1 1 1 
1 1 1 1 1 1 1 1 1 
1 1 1 1 1 1 1 1 1 
1 1 1 1 1 1 1 1 1 
1 1 1 1 1 1 1 1 1 
1 1 1 1 1 1 1 1 1 
1 1 1 1 1 1 1 1 1 
1 1 1 1 1 1 1 1 1 
1 1 1 1 1 1 1 1 1 
1 1 1 1 1 1 1 1 1 
1 1 1 1 1 1 1 1 1 
1 1 1 1 1 1 1 1 1 
1 1 1 1 1 1 1 1 1 
1 1 1 1 1 1 1 1 1 
1 1 1 1 1 1 1 1 1 
1 1 1 1 1 1 1 1 1 
1 1 1 1 1 1 1 1 1 
1 1 1 1 1 1 1 1 1 
1 1 1 1 1 1 1 1 1 
1 1 1 1 1 1 1 1 1 
1 1 1 1 1 1 1 1 1 
1 1 1 1 1 1 1 1 1 
1 1 1 1 1 1 1 1 1 
1 1 1 1 1 1 1 1 1 
1 1 1 1 1 1 1 1 1 
1 1 1 1 1 1 1 1 1 
1 1 1 1 1 1 1 1 1 
1 1 1 1 1 1 1 1 1 
1 1 1 1 1 1 1 1 1 
1 1 1 1 1 1 1 1 1 
1 1 1 1 1 1 1 1 1 
1 1 1 1 1 1 1 1 1 
1 1 1 1 1 1 1 1 1 
1 1 1 1 1 1 1 1 1 
1 1 1 1 1 1 1 1 1 
1 1 1 1 1 1 1 1 1 
1 1 1 1 1 1 1 1 1 
1 1 1 1 1 1 1 1 1 
1 1 1 1 1 1 1 1 1 
1 1 1 1 1 1 1 1 1 
1 1 1 1 1 1 1 1 1 
1 1 1 1 1 1 1 1 1 
1 1 1 1 1 1 1 1 1 
1 1 1 1 1 1 1 1 1 
1 1 1 1 1 1 1 1 1 
1 1 1 1 1 1 1 1 1 
1 1 1 1 1 1 1 1 1 
1 1 1 1 1 1 1 1 1 
1 1 1 1 1 1 1 1 1 
1 1 1 1 1 1 1 1 1 
1 1 1 1 1 1 1 1 1 
1 1 1 1 1 1 1 1 1 
1 1 1 1 1 1 1 1 1 
1 1 1 1 1 1 1 1 1 
1 1 1 1 1 1 1 1 1 
1 1 1 1 1 1 1 1 1 
1 1 1 1 1 1 1 1 1 
1 1 1 1 1 1 1 1 1 
1 1 1 1 1 1 1 1 1 
1 1 1 1 1 1 1 1 1 
1 1 1 1 1 1 1 1 1 
1 1 1 1 1 1 1 1 1 
1 1 1 1 1 1 1 1 1 
1 1 1 1 1 1 1 1 1 
1 1 1 1 1 1 1 1 1 
1 1 1 1 1 1 1 1 1 
1 1 1 1 1 1 1 1 1 
1 1 1 1 1 1 1 1 1 
1 1 1 1 1 1 1 1 1 
1 1 1 1 1 1 1 1 1 
1 1 1 1 1 1 1 1 1 
1 1 1 1 1 1 1 1 1 
1 1 1 1 1 1 1 1 1 
1 1 1 1 1 1 1 1 1 
1 1 1 1 1 1 1 1 1 
1 1 1 1 1 1 1 1 1 
1 1 1 1 1 1 1 1 1 
1 1 1 1 1 1 1 1 1 
1 1 1 1 1 1 1 1 1 
1 1 1 1 1 1 1 1 1 
1 1 1 1 1 1 1 1 1 
1 1 1 1 1 1 1 1 1 
1 1 1 1 1 1 1 1 1 
1 1 1 1 1 1 1 1 1 
1 1 1 1 1 1 1 1 1 
1 1 1 1 1 1 1 1 1 
1 1 1 1 1 1 1 1 1 
1 1 1 1 1 1 1 1 1 
1 1 1 1 1 1 1 1 1 
1 1 1 1 1 1 1 1 1 
1 1 1 1 1 1 1 1 1 
1 1 1 1 1 1 1 1 1 
1 1 1 1 1 1 1 1 1 
1 1 1 1 1 1 1 1 1 
1 1 1 1 1 1 1 1 1 
1 1 1 1 1 1 1 1 1 
1 1 1 1 1 1 1 1 1 
1 1 1 1 1 1 1 1 1 
1 1 1 1 1 1 1 1 1 
1 1 1 1 1 1 1 1 1 
1 1 1 1 1 1 1 1 1 
1 1 1 1 1 1 1 1 1 
1 1 1 1 1 1 1 1 1 
1 1 1 1 1 1 1 1 1 
1 1 1 1 1 1 1 1 1 
1 1 1 1 1 1 1 1 1 
1 1 1 1 1 1 1 1 1 
1 1 1 1 1 1 1 1 1 
1 1 1 1 1 1 1 1 1 
1 1 1 1 1 1 1 1 1 
1 1 1 1 1 1 1 1 1 
1 1 1 1 1 1 1 1 1 
1 1 1 1 1 1 1 1 1 
1 1 1 1 1 1 1 1 1 
1 1 1 1 1 1 1 1 1 
1 1 1 1 1 1 1 1 1 
1 1 1 1 1 1 1 1 1 
1 1 1 1 1 1 1 1 1 
1 1 1 1 1 1 1 1 1 
1 1 1 1 1 1 1 1 1 
1 1 1 1 1 1 1 1 1 
1 1 1 1 1 1 1 1 1 
1 1 1 1 1 1 1 1 1 
1 1 1 1 1 1 1 1 1 
1 1 1 1 1 1 1 1 1 
1 1 1 1 1 1 1 1 1 
1 1 1 1 1 1 1 1 1 
1 1 1 1 1 1 1 1 1 
1 1 1 1 1 1 1 1 1 
1 1 1 1 1 1 1 1 1 
1 1 1 1 1 1 1 1 1 
1 1 1 1 1 1 1 1 1 
1 1 1 1 1 1 1 1 1 
1 1 1 1 1 1 1 1 1 
1 1 1 1 1 1 1 1 1 
1 1 1 1 1 1 1 1 1 
1 1 1 1 1 1 1 1 1 
1 1 1 1 1 1 1 1 1 
1 1 1 1 1 1 1 1 1 
1 1 1 1 1 1 1 1 1 
1 1 1 1 1 1 1 1 1 
1 1 1 1 1 1 1 1 1 
1 1 1 1 1 1 1 1 1 
1 1 1 1 1 1 1 1 1 
1 1 1 1 1 1 1 1 1 
1 1 1 1 1 1 1 1 1 
1 1 1 1 1 1 1 1 1 
1 1 1 1 1 1 1 1 1 
1 1 1 1 1 1 1 1 1 
1 1 1 1 1 1 1 1 1 
1 1 1 1 1 1 1 1 1 
1 1 1 1 1 1 1 1 1 
1 1 1 1 1 1 1 1 1 
1 1 1 1 1 1 1 1 1 
1 1 1 1 1 1 1 1 1 
1 1 1 1 1 1 1 1 1 
1 1 1 1 1 1 1 1 1 
1 1 1 1 1 1 1 1 1 
1 1 1 1 1 1 1 1 1 
1 1 1 1 1 1 1 1 1 
1 1 1 1 1 1 1 1 1 
1 1 1 1 1 1 1 1 1 
1 1 1 1 1 1 1 1 1 
1 1 1 1 1 1 1 1 1 
1 1 1 1 1 1 1 1 1 
1 1 1 1 1 1 1 1 1 
1 1 1 1 1 1 1 1 1 
1 1 1 1 1 1 1 1 1 
1 1 1 1 1 1 1 1 1 
1 1 1 1 1 1 1 1 1 
1 1 1 1 1 1 1 1 1 
1 1 1 1 1 1 1 1 1 
1 1 1 1 1 1 1 1 1 
1 1 1 1 1 1 1 1 1 
1 1 1 1 1 1 1 1 1 
1 1 1 1 1 1 1 1 1 
1 1 1 1 1 1 1 1 1 
1 1 1 1 1 1 1 1 1 
1 1 1 1 1 1 1 1 1 
1 1 1 1 1 1 1 1 1 
1 1 1 1 1 1 1 1 1 
1 1 1 1 1 1 1 1 1 
1 1 1 1 1 1 1 1 1 
1 1 1 1 1 1 1 1 1 
1 1 1 1 1 1 1 1 1 
1 1 1 1 1 1 1 1 1 
1 1 1 1 1 1 1 1 1 
1 1 1 1 1 1 1 1 1 
1 1 1 1 1 1 1 1 1 
1 1 1 1 1 1 1 1 1 
1 1 1 1 1 1 1 1 1 
1 1 1 1 1 1 1 1 1 
1 1 1 1 1 1 1 1 1 
1 1 1 1 1 1 1 1 1 
1 1 1 1 1 1 1 1 1 
1 1 1 1 1 1 1 1 1 
1 1 1 1 1 1 1 1 1 
1 1 1 1 1 1 1 1 1 
1 1 1 1 1 1 1 1 1 
1 1 1 1 1 1 1 1 1 
1 1 1 1 1 1 1 1 1 
1 1 1 1 1 1 1 1 1 
1 1 1 1 1 1 1 1 1 
1 1 1 1 1 1 1 1 1 
1 1 1 1 1 1 1 1 1 
1 1 1 1 1 1 1 1 1 
1 1 1 1 1 1 1 1 1 
1 1 1 1 1 1 1 1 1 
1 1 1 1 1 1 1 1 1 
1 1 1 1 1 1 1 1 1 
1 1 1 1 1 1 1 1 1 
1 1 1 1 1 1 1 1 1 
1 1 1 1 1 1 1 1 1 
1 1 1 1 1 1 1 1 1 
1 1 1 1 1 1 1 1 1 
1 1 1 1 1 1 1 1 1 
1 1 1 1 1 1 1 1 1 
1 1 1 1 1 1 1 1 1 
1 1 1 1 1 1 1 1 1 
1 1 1 1 1 1 1 1 1 
1 1 1 1 1 1 1 1 1 
1 1 1 1 1 1 1 1 1 
1 1 1 1 1 1 1 1 1 
1 1 1 1 1 1 1 1 1 
1 1 1 1 1 1 1 1 1 
1 1 1 1 1 1 1 1 1 
1 1 1 1 1 1 1 1 1 
1 1 1 1 1 1 1 1 1 
1 1 1 1 1 1 1 1 1 
1 1 1 1 1 1 1 1 1 
1 1 1 1 1 1 1 1 1 
1 1 1 1 1 1 1 1 1 
1 1 1 1 1 1 1 1 1 
1 1 1 1 1 1 1 1 1 
1 1 1 1 1 1 1 1 1 
1 1 1 1 1 1 1 1 1 
1 1 1 1 1 1 1 1 1 
1 1 1 1 1 1 1 1 1 
1 1 1 1 1 1 1 1 1 
1 1 1 1 1 1 1 1 1 
1 1 1 1 1 1 1 1 1 
1 1 1 1 1 1 1 1 1 
1 1 1 1 1 1 1 1 1 
1 1 1 1 1 1 1 1 1 
1 1 1 1 1 1 1 1 1 
1 1 1 1 1 1 1 1 1 
1 1 1 1 1 1 1 1 1 
1 1 1 1 1 1 1 1 1 
1 1 1 1 1 1 1 1 1 
1 1 1 1 1 1 1 1 1 
1 1 1 1 1 1 1 1 1 
1 1 1 1 1 1 1 1 1 
1 1 1 1 1 1 1 1 1 
1 1 1 1 1 1 1 1 1 
1 1 1 1 1 1 1 1 1 
1 1 1 1 1 1 1 1 1 
1 1 1 1 1 1 1 1 1 
1 1 1 1 1 1 1 1 1 
1 1 1 1 1 1 1 1 1 
1 1 1 1 1 1 1 1 1 
1 1 1 1 1 1 1 1 1 
1 1 1 1 1 1 1 1 1 
1 1 1 1 1 1 1 1 1 
1 1 1 1 1 1 1 1 1 
1 1 1 1 1 1 1 1 1 
1 1 1 1 1 1 1 1 1 
1 1 1 1 1 1 1 1 1 
1 1 1 1 1 1 1 1 1 
1 1 1 1 1 1 1 1 1 
1 1 1 1 1 1 1 1 1 
1 1 1 1 1 1 1 1 1 
1 1 1 1 1 1 1 1 1 
1 1 1 1 1 1 1 1 1 
1 1 1 1 1 1 1 1 1 
1 1 1 1 1 1 1 1 1 
1 1 1 1 1 1 1 1 1 
1 1 1 1 1 1 1 1 1 
1 1 1 1 1 1 1 1 1 
1 1 1 1 1 1 1 1 1 
1 1 1 1 1 1 1 1 1 
1 1 1 1 1 1 1 1 1 
1 1 1 1 1 1 1 1 1 
1 1 1 1 1 1 1 1 1 
1 1 1 1 1 1 1 1 1 
1 1 1 1 1 1 1 1 1 
1 1 1 1 1 1 1 1 1 
1 1 1 1 1 1 1 1 1 
1 1 1 1 1 1 1 1 1 
1 1 1 1 1 1 1 1 1 
1 1 1 1 1 1 1 1 1 
1 1 1 1 1 1 1 1 1 
1 1 1 1 1 1 1 1 1 
1 1 1 1 1 1 1 1 1 
1 1 1 1 1 1 1 1 1 
1 1 1 1 1 1 1 1 1 
1 1 1 1 1 1 1 1 1 
1 1 1 1 1 1 1 1 1 
1 1 1 1 1 1 1 1 1 
1 1 1 1 1 1 1 1 1 
1 1 1 1 1 1 1 1 1 
1 1 1 1 1 1 1 1 1 
1 1 1 1 1 1 1 1 1 
1 1 1 1 1 1 1 1 1 
1 1 1 1 1 1 1 1 1 
1 1 1 1 1 1 1 1 1 
1 1 1 1 1 1 1 1 1 
1 1 1 1 1 1 1 1 1 
1 1 1 1 1 1 1 1 1 
1 1 1 1 1 1 1 1 1 
1 1 1 1 1 1 1 1 1 
1 1 1 1 1 1 1 1 1 
1 1 1 1 1 1 1 1 1 
1 1 1 1 1 1 1 1 1 
1 1 1 1 1 1 1 1 1 
1 1 1 1 1 1 1 1 1 
1 1 1 1 1 1 1 1 1 
1 1 1 1 1 1 1 1 1 
1 1 1 1 1 1 1 1 1 
1 1 1 1 1 1 1 1 1 
1 1 1 1 1 1 1 1 1 
1 1 1 1 1 1 1 1 1 
1 1 1 1 1 1 1 1 1 
1 1 1 1 1 1 1 1 1 
1 1 1 1 1 1 1 1 1 
1 1 1 1 1 1 1 1 1 
1 1 1 1 1 1 1 1 1 
1 1 1 1 1 1 1 1 1 
1 1 1 1 1 1 1 1 1 
1 1 1 1 1 1 1 1 1 
1 1 1 1 1 1 1 1 1 
1 1 1 1 1 1 1 1 1 
1 1 1 1 1 1 1 1 1 
1 1 1 1 1 1 1 1 1 
1 1 1 1 1 1 1 1 1 
1 1 1 1 1 1 1 1 1 
1 1 1 1 1 1 1 1 1 
1 1 1 1 1 1 1 1 1 
1 1 1 1 1 1 1 1 1 
1 1 1 1 1 1 1 1 1 
1 1 1 1 1 1 1 1 1 
1 1 1 1 1 1 1 1 1 
1 1 1 1 1 1 1 1 1 
1 1 1 1 1 1 1 1 1 
1 1 1 1 1 1 1 1 1 
1 1 1 1 1 1 1 1 1 
1 1 1 1 1 1 1 1 1 
1 1 1 1 1 1 1 1 1 
1 1 1 1 1 1 1 1 1 
1 1 1 1 1 1 1 1 1 
1 1 1 1 1 1 1 1 1 
1 1 1 1 1 1 1 1 1 
1 1 1 1 1 1 1 1 1 
1 1 1 1 1 1 1 1 1 
1 1 1 1 1 1 1 1 1 
1 1 1 1 1 1 1 1 1 
1 1 1 1 1 1 1 1 1 
1 1 1 1 1 1 1 1 1 
1 1 1 1 1 1 1 1 1 
1 1 1 1 1 1 1 1 1 
1 1 1 1 1 1 1 1 1 
1 1 1 1 1 1 1 1 1 
1 1 1 1 1 1 1 1 1 
1 1 1 1 1 1 1 1 1 
1 1 1 1 1 1 1 1 1 
1 1 1 1 1 1 1 1 1 
1 1 1 1 1 1 1 1 1 
1 1 1 1 1 1 1 1 1 
1 1 1 1 1 1 1 1 1 
1 1 1 1 1 1 1 1 1 
1 1 1 1 1 1 1 1 1 
1 1 1 1 1 1 1 1 1 
1 1 1 1 1 1 1 1 1 
1 1 1 1 1 1 1 1 1 
1 1 1 1 1 1 1 1 1 
1 1 1 1 1 1 1 1 1 
1 1 1 1 1 1 1 1 1 
1 1 1 1 1 1 1 1 1 
1 1 1 1 1 1 1 1 1 
1 1 1 1 1 1 1 1 1 
1 1 1 1 1 1 1 1 1 
1 1 1 1 1 1 1 1 1 
1 1 1 1 1 1 1 1 1 
1 1 1 1 1 1 1 1 1 
1 1 1 1 1 1 1 1 1 
1 1 1 1 1 1 1 1 1 
1 1 1 1 1 1 1 1 1 
1 1 1 1 1 1 1 1 1 
1 1 1 1 1 1 1 1 1 
1 1 1 1 1 1 1 1 1 
1 1 1 1 1 1 1 1 1 
1 1 1 1 1 1 1 1 1 
1 1 1 1 1 1 1 1 1 
1 1 1 1 1 1 1 1 1 
1 1 1 1 1 1 1 1 1 
1 1 1 1 1 1 1 1 1 
1 1 1 1 1 1 1 1 1 
1 1 1 1 1 1 1 1 1 
1 1 1 1 1 1 1 1 1 
1 1 1 1 1 1 1 1 1 
1 1 1 1 1 1 1 1 1 
1 1 1 1 1 1 1 1 1 
1 1 1 1 1 1 1 1 1 
1 1 1 1 1 1 1 1 1 
1 1 1 1 1 1 1 1 1 
1 1 1 1 1 1 1 1 1 
1 1 1 1 1 1 1 1 1 
1 1 1 1 1 1 1 1 1 
1 1 1 1 1 1 1 1 1 
1 1 1 1 1 1 1 1 1 
1 1 1 1 1 1 1 1 1 
1 1 1 1 1 1 1 1 1 
1 1 1 1 1 1 1 1 1 
1 1 1 1 1 1 1 1 1 
1 1 1 1 1 1 1 1 1 
1 1 1 1 1 1 1 1 1 
1 1 1 1 1 1 1 1 1 
1 1 1 1 1 1 1 1 1 
1 1 1 1 1 1 1 1 1 
1 1 1 1 1 1 1 1 1 
1 1 1 1 1 1 1 1 1 
1 1 1 1 1 1 1 1 1 
1 1 1 1 1 1 1 1 1 
1 1 1 1 1 1 1 1 1 
1 1 1 1 1 1 1 1 1 
1 1 1 1 1 1 1 1 1 
1 1 1 1 1 1 1 1 1 
1 1 1 1 1 1 1 1 1 
1 1 1 1 1 1 1 1 1 
1 1 1 1 1 1 1 1 1 
1 1 1 1 1 1 1 1 1 
1 1 1 1 1 1 1 1 1 
1 1 1 1 1 1 1 1 1 
1 1 1 1 1 1 1 1 1 
1 1 1 1 1 1 1 1 1 
1 1 1 1 1 1 1 1 1 
1 1 1 1 1 1 1 1 1 
1 1 1 1 1 1 1 1 1 
1 1 1 1 1 1 1 1 1 
1 1 1 1 1 1 1 1 1 
1 1 1 1 1 1 1 1 1 
1 1 1 1 1 1 1 1 1 
1 1 1 1 1 1 1 1 1 
1 1 1 1 1 1 1 1 1 
1 1 1 1 1 1 1 1 1 
1 1 1 1 1 1 1 1 1 
1 1 1 1 1 1 1 1 1 
1 1 1 1 1 1 1 1 1 
1 1 1 1 1 1 1 1 1 
1 1 1 1 1 1 1 1 1 
1 1 1 1 1 1 1 1 1 
1 1 1 1 1 1 1 1 1 
1 1 1 1 1 1 1 1 1 
1 1 1 1 1 1 1 1 1 
1 1 1 1 1 1 1 1 1 
1 1 1 1 1 1 1 1 1 
1 1 1 1 1 1 1 1 1 
1 1 1 1 1 1 1 1 1 
1 1 1 1 1 1 1 1 1 
1 1 1 1 1 1 1 1 1 
1 1 1 1 1 1 1 1 1 
1 1 1 1 1 1 1 1 1 
1 1 1 1 1 1 1 1 1 
1 1 1 1 1 1 1 1 1 
1 1 1 1 1 1 1 1 1 
1 1 1 1 1 1 1 1 1 
1 1 1 1 1 1 1 1 1 
1 1 1 1 1 1 1 1 1 
1 1 1 1 1 1 1 1 1 
1 1 1 1 1 1 1 1 1 
1 1 1 1 1 1 1 1 1 
1 1 1 1 1 1 1 1 1 
1 1 1 1 1 1 1 1 1 
1 1 1 1 1 1 1 1 1 
1 1 1 1 1 1 1 1 1 
1 1 1 1 1 1 1 1 1 
1 1 1 1 1 1 1 1 1 
1 1 1 1 1 1 1 1 1 
1 1 1 1 1 1 1 1 1 
1 1 1 1 1 1 1 1 1 
1 1 1 1 1 1 1 1 1 
1 1 1 1 1 1 1 1 1 
1 1 1 1 1 1 1 1 1 
1 1 1 1 1 1 1 1 1 
1 1 1 1 1 1 1 1 1 
1 1 1 1 1 1 1 1 1 
1 1 1 1 1 1 1 1 1 
1 1 1 1 1 1 1 1 1 
1 1 1 1 1 1 1 1 1 
1 1 1 1 1 1 1 1 1 
1 1 1 1 1 1 1 1 1 
1 1 1 1 1 1 1 1 1 
1 1 1 1 1 1 1 1 1 
1 1 1 1 1 1 1 1 1 
1 1 1 1 1 1 1 1 1 
1 1 1 1 1 1 1 1 1 
1 1 1 1 1 1 1 1 1 
1 1 1 1 1 1 1 1 1 
1 1 1 1 1 1 1 1 1 
1 1 1 1 1 1 1 1 1 
1 1 1 1 1 1 1 1 1 
1 1 1 1 1 1 1 1 1 
1 1 1 1 1 1 1 1 1 
1 1 1 1 1 1 1 1 1 
1 1 1 1 1 1 1 1 1 
1 1 1 1 1 1 1 1 1 
1 1 1 1 1 1 1 1 1 
1 1 1 1 1 1 1 1 1 
1 1 1 1 1 1 1 1 1 
1 1 1 1 1 1 1 1 1 
1 1 1 1 1 1 1 1 1 
1 1 1 1 1 1 1 1 1 
1 1 1 1 1 1 1 1 1 
1 1 1 1 1 1 1 1 1 
1 1 1 1 1 1 1 1 1 
1 1 1 1 1 1 1 1 1 
1 1 1 1 1 1 1 1 1 
1 1 1 1 1 1 1 1 1 
1 1 1 1 1 1 1 1 1 
1 1 1 1 1 1 1 1 1 
1 1 1 1 1 1 1 1 1 
1 1 1 1 1 1 1 1 1 
1 1 1 1 1 1 1 1 1 
1 1 1 1 1 1 1 1 1 
1 1 1 1 1 1 1 1 1 
1 1 1 1 1 1 1 1 1 
1 1 1 1 1 1 1 1 1 
1 1 1 1 1 1 1 1 1 
1 1 1 1 1 1 1 1 1 
1 1 1 1 1 1 1 1 1 
1 1 1 1 1 1 1 1 1 
1 1 1 1 1 1 1 1 1 
1 1 1 1 1 1 1 1 1 
1 1 1 1 1 1 1 1 1 
1 1 1 1 1 1 1 1 1 
1 1 1 1 1 1 1 1 1 
1 1 1 1 1 1 1 1 1 
1 1 1 1 1 1 1 1 1 
1 1 1 1 1 1 1 1 1 
1 1 1 1 1 1 1 1 1 
1 1 1 1 1 1 1 1 1 
1 1 1 1 1 1 1 1 1 
1 1 1 1 1 1 1 1 1 
1 1 1 1 1 1 1 1 1 
1 1 1 1 1 1 1 1 1 
1 1 1 1 1 1 1 1 1 
1 1 1 1 1 1 1 1 1 
1 1 1 1 1 1 1 1 1 
1 1 1 1 1 1 1 1 1 
1 1 1 1 1 1 1 1 1 
1 1 1 1 1 1 1 1 1 
1 1 1 1 1 1 1 1 1 
1 1 1 1 1 1 1 1 1 
1 1 1 1 1 1 1 1 1 
1 1 1 1 1 1 1 1 1 
1 1 1 1 1 1 1 1 1 
1 1 1 1 1 1 1 1 1 
1 1 1 1 1 1 1 1 1 
1 1 1 1 1 1 1 1 1 
1 1 1 1 1 1 1 1 1 
1 1 1 1 1 1 1 1 1 
1 1 1 1 1 1 1 1 1 
1 1 1 1 1 1 1 1 1 
1 1 1 1 1 1 1 1 1 
1 1 1 1 1 1 1 1 1 
1 1 1 1 1 1 1 1 1 
1 1 1 1 1 1 1 1 1 
1 1 1 1 1 1 1 1 1 
1 1 1 1 1 1 1 1 1 
1 1 1 1 1 1 1 1 1 
1 1 1 1 1 1 1 1 1 
1 1 1 1 1 1 1 1 1 
1 1 1 1 1 1 1 1 1 
1 1 1 1 1 1 1 1 1 
1 1 1 1 1 1 1 1 1 
1 1 1 1 1 1 1 1 1 
1 1 1 1 1 1 1 1 1 
1 1 1 1 1 1 1 1 1 
1 1 1 1 1 1 1 1 1 
1 1 1 1 1 1 1 1 1 
1 1 1 1 1 1 1 1 1 
1 1 1 1 1 1 1 1 1 
1 1 1 1 1 1 1 1 1 
1 1 1 1 1 1 1 1 1 
1 1 1 1 1 1 1 1 1 
1 1 1 1 1 1 1 1 1 
1 1 1 1 1 1 1 1 1 
1 1 1 1 1 1 1 1 1 
1 1 1 1 1 1 1 1 1 
1 1 1 1 1 1 1 1 1 
1 1 1 1 1 1 1 1 1 
1 1 1 1 1 1 1 1 1 
1 1 1 1 1 1 1 1 1 
1 1 1 1 1 1 1 1 1 
1 1 1 1 1 1 1 1 1 
1 1 1 1 1 1 1 1 1 
1 1 1 1 1 1 1 1 1 
1 1 1 1 1 1 1 1 1 
1 1 1 1 1 1 1 1 1 
1 1 1 1 1 1 1 1 1 
1 1 1 1 1 1 1 1 1 
1 1 1 1 1 1 1 1 1 
1 1 1 1 1 1 1 1 1 
1 1 1 1 1 1 1 1 1 
1 1 1 1 1 1 1 1 1 
1 1 1 1 1 1 1 1 1 
1 1 1 1 1 1 1 1 1 
1 1 1 1 1 1 1 1 1 
1 1 1 1 1 1 1 1 1 
1 1 1 1 1 1 1 1 1 
1 1 1 1 1 1 1 1 1 
1 1 1 1 1 1 1 1 1 
1 1 1 1 1 1 1 1 1 
1 1 1 1 1 1 1 1 1 
1 1 1 1 1 1 1 1 1 
1 1 1 1 1 1 1 1 1 
1 1 1 1 1 1 1 1 1 
1 1 1 1 1 1 1 1 1 
1 1 1 1 1 1 1 1 1 
1 1 1 1 1 1 1 1 1 
1 1 1 1 1 1 1 1 1 
1 1 1 1 1 1 1 1 1 
1 1 1 1 1 1 1 1 1 
1 1 1 1 1 1 1 1 1 
1 1 1 1 1 1 1 1 1 
1 1 1 1 1 1 1 1 1 
1 1 1 1 1 1 1 1 1 
1 1 1 1 1 1 1 1 1 
1 1 1 1 1 1 1 1 1 
1 1 1 1 1 1 1 1 1 
1 1 1 1 1 1 1 1 1 
1 1 1 1 1 1 1 1 1 
1 1 1 1 1 1 1 1 1 
1 1 1 1 1 1 1 1 1 
1 1 1 1 1 1 1 1 1 
1 1 1 1 1 1 1 1 1 
1 1 1 1 1 1 1 1 1 
1 1 1 1 1 1 1 1 1 
1 1 1 1 1 1 1 1 1 
1 1 1 1 1 1 1 1 1 
1 1 1 1 1 1 1 1 1 
1 1 1 1 1 1 1 1 1 
1 1 1 1 1 1 1 1 1 
1 1 1 1 1 1 1 1 1 
1 1 1 1 1 1 1 1 1 
1 1 1 1 1 1 1 1 1 
1 1 1 1 1 1 1 1 1 
1 1 1 1 1 1 1 1 1 
1 1 1 1 1 1 1 1 1 
1 1 1 1 1 1 1 1 1 
1 1 1 1 1 1 1 1 1 
1 1 1 1 1 1 1 1 1 
1 1 1 1 1 1 1 1 1 
1 1 1 1 1 1 1 1 1 
1 1 1 1 1 1 1 1 1 
1 1 1 1 1 1 1 1 1 
1 1 1 1 1 1 1 1 1 
1 1 1 1 1 1 1 1 1 
1 1 1 1 1 1 1 1 1 
1 1 1 1 1 1 1 1 1 
1 1 1 1 1 1 1 1 1 
1 1 1 1 1 1 1 1 1 
1 1 1 1 1 1 1 1 1 
1 1 1 1 1 1 1 1 1 
1 1 1 1 1 1 1 1 1 
1 1 1 1 1 1 1 1 1 
1 1 1 1 1 1 1 1 1 
1 1 1 1 1 1 1 1 1 
1 1 1 1 1 1 1 1 1 
1 1 1 1 1 1 1 1 1 
1 1 1 1 1 1 1 1 1 
1 1 1 1 1 1 1 1 1 
1 1 1 1 1 1 1 1 1 
1 1 1 1 1 1 1 1 1 
1 1 1 1 1 1 1 1 1 
1 1 1 1 1 1 1 1 1 
1 1 1 1 1 1 1 1 1 
1 1 1 1 1 1 1 1 1 
1 1 1 1 1 1 1 1 1 
1 1 1 1 1 1 1 1 1 
1 1 1 1 1 1 1 1 1 
1 1 1 1 1 1 1 1 1 
1 1 1 1 1 1 1 1 1 
1 1 1 1 1 1 1 1 1 
1 1 1 1 1 1 1 1 1 
1 1 1 1 1 1 1 1 1 
1 1 1 1 1 1 1 1 1 
1 1 1 1 1 1 1 1 1 
1 1 1 1 1 1 1 1 1 
1 1 1 1 1 1 1 1 1 
1 1 1 1 1 1 1 1 1 
1 1 1 1 1 1 1 1 1 
1 1 1 1 1 1 1 1 1 
1 1 1 1 1 1 1 1 1 
1 1 1 1 1 1 1 1 1 
1 1 1 1 1 1 1 1 1 
1 1 1 1 1 1 1 1 1 
1 1 1 1 1 1 1 1 1 
1 1 1 1 1 1 1 1 1 
1 1 1 1 1 1 1 1 1 
1 1 1 1 1 1 1 1 1 
1 1 1 1 1 1 1 1 1 
1 1 1 1 1 1 1 1 1 
1 1 1 1 1 1 1 1 1 
1 1 1 1 1 1 1 1 1 
1 1 1 1 1 1 1 
NORMALS Normals float
0 -0.147947 -0.988995 0 -0.992395 -0.123095 -0.905319 -0.41558 -0.0877036 
0.905319 -0.41558 -0.0877036 0 0.351123 -0.936329 0.0893065 0.0450677 -0.994984 
0.491467 0.26411 -0.829884 0.308486 0.122908 -0.943255 -0.0870647 0.175681 -0.980589 
-0.119105 0.0683936 -0.990523 -0.155121 -0.0888972 -0.983888 -0.0221382 0.107408 -0.993968 
0.32044 0.382268 -0.866712 -0.0238179 -0.20092 -0.979318 0.00686472 -0.0911967 -0.995809 
0 -0.278862 0.960331 0.0667298 -0.0826268 -0.994344 0.00218035 -0.126535 -0.99196 
-0.397839 -0.155472 -0.904186 -0.232029 0.0403401 -0.971872 0.533695 0.0270309 -0.845245 
-0.537788 -0.137066 -0.831864 0.26236 -0.254714 -0.930746 0.0510703 -0.985653 -0.160871 
-0.673605 -0.40464 -0.618484 0.681582 -0.586552 0.437496 0.516517 0.232793 -0.824025 
-0.277638 0.494667 -0.823542 -0.668015 0.37652 0.641863 0.635005 0.600104 -0.486461 
-0.00648086 0.99345 0.114084 0.442769 0.452493 -0.774084 0.453052 0.359625 -0.815729 
0.464721 0.392099 -0.793909 0.285778 0.278943 -0.9168 0.0701169 0.27286 -0.959495 
-0.0579026 0.466028 -0.882873 0.340687 -0.0268031 -0.939794 0.185805 0.40783 -0.893953 
0.0461579 0.742723 -0.668006 0.203845 0.769084 -0.60577 -0.466252 0.0463864 -0.883435 
0.648551 0.0912884 -0.755678 0.428832 0.210365 -0.87855 0.696006 0.327633 -0.63893 
-0.22144 -0.517745 0.82638 0.730185 0.437488 -0.524819 0.932461 0.356568 0.0581032 
0.695493 0.331378 -0.637557 0.278197 0.274463 0.920476 0.726038 0.554881 -0.406172 
0.656581 0.374089 -0.654949 0.629326 0.46703 -0.621154 0.634305 0.492045 -0.596279 
0.442111 0.396729 -0.804452 0.395755 0.520141 -0.756856 0.475762 0.302855 -0.82579 
0.345445 0.392547 -0.852394 -0.092604 0.413409 -0.905824 0.536305 0.613604 -0.57954 
0.127391 -0.181365 -0.97513 -0.408717 -0.196712 -0.89121 0.69822 0.0716691 -0.712287 
-0.662117 -0.0917457 -0.743763 0.85195 0.211709 -0.478917 0.973016 0.170714 -0.15523 
0.888528 0.458273 0.0224556 0.934913 0.247171 0.254646 0.574209 0.46126 -0.676404 
0.723476 0.318975 -0.612239 0.467662 0.798387 -0.379303 0.447876 0.251155 -0.858096 
0.15237 -0.0173491 -0.988171 0.818028 0.394723 0.418359 0.862292 0.36999 -0.345775 
0.656621 0.404905 -0.636318 0.748119 0.418078 0.515295 0.845902 0.401255 -0.351346 
0.809163 0.41547 -0.4155 0.693775 0.613286 -0.377566 0.583686 0.539392 -0.606933 
-0.341866 -0.0504293 -0.938394 0.549366 0.541336 -0.636515 -0.0307441 0.371418 -0.927957 
0.308099 0.510725 -0.802642 0.104036 -0.223015 -0.969247 -0.294778 -0.279545 -0.913762 
-0.146351 -0.263421 -0.953515 0.55135 -0.101303 -0.828101 -0.628131 -0.273697 -0.728383 
-0.742803 -0.324363 -0.58569 -0.709857 -0.21611 -0.670373 0.835653 0.116704 -0.536717 
0.888302 0.231485 -0.396654 0.833069 0.306594 -0.46043 0.911482 0.0866382 -0.402112 
0.811018 0.35878 0.46209 0.954519 0.29309 -0.0546933 0.880886 0.341237 0.328021 
0.267579 0.405245 0.874172 0.315054 0.0430329 0.948098 0.351917 -0.0397368 0.935187 
-0.0763074 -0.201136 0.976587 0.850052 0.508389 0.137665 0.478315 0.308542 0.822202 
0.787253 0.250569 0.563426 0.59648 0.126982 0.792519 0.745439 0.491956 -0.449778 
0.815901 0.403494 -0.414124 0.847928 0.515633 0.123047 0.639864 0.619967 0.45411 
0.371381 0.928458 -0.00644204 0.903048 0.272656 0.331908 0.911908 0.410346 -0.00632471 
0.82778 0.523961 -0.200613 0.722189 0.675642 -0.148159 0.685086 0.694488 -0.21987 
0.721957 0.683493 -0.107775 0.682097 0.688049 0.247654 0.804795 0.548606 -0.226576 
-0.21368 0.203137 -0.95555 -0.0839273 0.305194 -0.948585 0.130951 0.33323 -0.933708 
-0.413819 -0.450596 -0.791023 0 -0.147947 -0.988995 0 -0.992395 -0.123095 
-0.905319 -0.41558 -0.0877036 0.905319 -0.41558 -0.0877036 0 0.351123 -0.936329 
-0.840552 -0.334644 -0.426012 0.935672 0.295754 -0.192475 0.903733 0.425142 0.0502019 
0.94462 0.31275 -0.0993985 0.599444 0.356896 0.716444 0.465014 0.426641 0.775719 
0.453777 -0.0129243 0.891021 0.327333 0.181502 0.927313 0.782879 -0.198471 0.58967 
0.916434 0.0895193 -0.390046 0.719676 0.420473 0.552512 0.605214 0.513184 -0.60857 
0.453326 0.789618 0.41352 0.377516 0.212902 0.901196 0.719494 0.419482 0.553501 
0.163812 -0.750206 -0.640591 -0.549782 0.381596 -0.743051 0.385893 0.536203 -0.750715 
0.549782 -0.381596 0.743051 0.664763 0.646509 0.374322 -0.163812 0.750206 0.64059 
-0.548568 -0.219688 -0.806728 0.799043 0.589189 0.119944 0.643245 0.473033 0.602059 
0.856707 0.285879 0.429333 0.728311 0.382764 0.568379 0.882612 0.392449 -0.258806 
0.730266 0.624669 -0.276587 0.778264 0.558772 -0.286493 0.328703 0.535764 -0.77776 
0.0285237 0.488047 -0.872351 0.012175 -0.289096 -0.957223 -0.227178 -0.362061 -0.904047 
-0.571638 -0.360058 -0.737284 0 -0.278862 0.960331 -0.659199 -0.493516 -0.567361 
0.896024 -0.0214317 -0.443489 0.168424 0.161227 0.97244 -0.015462 0.125722 0.991945 
0.859444 0.509974 -0.0358161 0.298611 0.170337 0.939051 0.523899 0.542057 0.657042 
0.571756 0.349846 0.742094 0.717836 0.296545 0.629899 0.894126 -0.0872876 0.439227 
-0.385893 -0.536203 0.750715 0.517627 0.442773 0.73213 0.370651 0.0767288 0.925597 