# vtk DataFile Version 4.2
vtk output
ASCII
DATASET POLYDATA
POINTS 454 float
307.558 232.508 173.543 306.066 233.684 173.229 306.188 234.419 173.058 
303.954 235.548 173.474 305.469 235.165 173.062 306.945 234.612 173.161 
303.656 236.269 173.576 303.406 236.432 173.732 304.979 236.153 173.245 
303.58 236.741 173.735 308.436 231.522 174.166 308.468 231.106 174.477 
309.1 231.177 174.566 307.514 231.518 174.2 308.321 232.066 173.874 
309.206 231.455 174.42 305.423 233.548 173.49 304.241 234.542 173.665 
307.337 235.391 173.488 303.161 236.126 173.921 302.675 237.379 174.595 
303.537 237.234 173.938 305.43 237.032 173.598 302.992 237.549 174.389 
308.209 230.814 174.75 307.309 230.881 174.83 302.206 236.374 175.049 
308.001 230.3 175.369 307.679 230.173 175.628 308.458 230.042 175.79 
306.692 230.603 175.458 310.311 231.972 175.068 310.802 233.195 175.375 
310.121 234.918 175.137 302.496 235.202 175.079 308.597 235.969 174.368 
301.794 237.053 175.657 302.146 237.719 175.4 306.66 237.988 174.729 
307.683 229.976 176.066 309.298 229.942 176.077 309.418 230.19 175.776 
310.65 234.884 175.684 301.404 236.428 176.474 308.397 237.129 175.103 
302.319 238.938 176.372 303.003 238.969 175.837 305.209 239.052 175.585 
303.539 239.501 176.412 308.607 229.49 177.249 309.415 229.753 176.485 
309.978 229.766 176.794 310.347 230.042 176.729 301.045 236.959 177.205 
302.453 239.465 177.145 309.689 229.462 177.523 312.054 231.719 177.542 
301.59 234.722 177.074 300.807 237.132 178.07 301.103 238.072 177.919 
307.348 238.923 176.572 305.063 239.997 177.314 307.875 229.243 179.044 
307.21 229.506 178.463 309.169 229.196 178.551 310.324 229.489 178.046 
311.908 230.547 178.297 300.927 235.345 178.414 311.832 235.692 178.345 
300.743 236.663 178.334 310.605 237.006 177.673 306.027 240.061 178.186 
302.548 240.091 179.011 302.395 240.072 179.537 303.411 240.402 178.742 
311.205 229.75 178.541 303.021 231.817 178.96 301.375 233.9 178.7 
300.596 237.119 179.519 300.681 237.697 179.837 310.512 237.835 179.006 
300.928 238.203 179.371 304.358 240.626 179.316 302.682 240.309 179.954 
310.49 229.166 179.811 311.697 229.584 180.161 312.169 230.052 179.791 
313.446 231.034 180.704 313.402 234.648 180.394 300.493 235.786 180.262 
309.036 238.974 179 305.723 240.48 180.011 309.957 228.952 180.981 
303.023 231.478 180.924 300.648 237.81 181.139 308.702 239.649 181.211 
302.278 239.908 181.449 302.746 240.248 181.439 304.462 240.706 180.75 
301.417 233.167 181.955 313.608 235.912 182.245 301.707 239.134 182.622 
303.287 240.372 181.959 315.374 232.604 183.605 300.478 235.687 182.571 
300.508 236.842 182.393 312.378 237.397 182.841 304.312 240.549 181.92 
312.692 229.388 183.816 306.874 229.943 183.998 303.82 231.332 183.825 
303.843 231.509 184.202 301.448 233.566 183.033 300.485 235.503 183.042 
300.47 235.534 183.173 300.514 235.684 183.142 301.378 238.094 183.697 
302.37 239.235 183.834 311.312 238.242 183.567 303.15 239.78 183.735 
305.428 240.25 183.143 303.991 231.559 184.496 303.893 231.635 184.544 
303.786 231.661 184.435 304.49 231.455 184.613 300.509 235.531 183.253 
300.675 235.488 183.44 315.692 234.002 184.98 314.068 235.982 184.054 
313.464 236.639 184.717 301.916 238.371 184.374 303.969 239.922 183.909 
309.723 229.391 184.961 310.906 229.305 185.078 313.799 229.905 185.002 
305.872 231.037 184.96 302.983 232.618 184.453 316.038 233.103 185.95 
301.037 235.291 183.915 316.055 233.314 186.219 302.311 237.87 185.179 
306.597 239.526 184.737 311.929 229.444 185.645 313.169 229.59 185.469 
312.772 229.478 185.461 309.737 229.817 185.695 309.517 230.223 186.027 
315.459 231.312 185.924 303.312 233.594 185.414 316.05 232.984 186.677 
304.276 234.188 186.217 315.888 234.019 186.405 302.011 236.85 185.32 
313.314 236.642 185.624 302.781 238.051 185.461 312.144 237.363 185.392 
304.927 239.367 185.109 307.745 238.908 185.437 310.753 230.064 186.341 
312.058 230.026 186.656 313.303 229.862 186.305 313.967 230.153 186.726 
310.876 232.85 187.766 310.492 234.053 187.782 302.901 236.486 185.975 
306.916 235.148 187.181 315.716 234.322 187.02 303.06 237.753 185.797 
305.218 238.692 185.858 306.965 238.719 185.828 311.112 237.413 186.116 
314.24 230.26 187.121 314.263 230.267 187.224 314.09 230.28 187.192 
314.335 230.297 187.207 314.449 230.428 187.111 315.375 231.388 187.223 
312.966 231.581 188 313.417 232.204 188.2 315.631 232.164 187.396 
313.726 233.268 188.213 315.765 234.005 187.473 303.306 236.8 186.174 
304.314 236.465 186.703 305.952 236.234 187.049 308.705 235.783 187.363 
311.094 234.969 187.753 315.53 234.523 187.106 305.937 237.034 186.954 
310.277 235.883 187.434 315.093 234.748 187.347 306.793 237.474 186.764 
309.24 236.825 187.006 314.014 235.322 187.315 306.529 237.849 186.557 
310.858 237.004 186.681 311.736 236.579 186.907 314.311 230.329 187.258 
312.85 230.54 187.43 314.326 230.487 187.415 314.521 230.694 187.594 
313.244 230.833 187.721 314.701 230.791 187.567 315.32 231.682 187.592 
314.295 232.183 188.201 314.927 232.59 188.066 314.98 233.171 188.081 
314.793 233.504 188.145 315.656 233.406 187.737 314.973 233.954 188.035 
315.67 234.008 187.679 315.508 234.123 187.768 315.58 233.894 187.805 
315.405 234.346 187.656 312.291 235.576 187.556 311.527 236.246 187.242 
314.276 230.75 187.682 314.456 231.07 187.851 316.004 233.013 191.009 
316.004 233.013 191.009 316.004 233.013 191.009 316.004 233.013 191.009 
316.004 233.013 191.009 315.527 233.634 187.864 316.004 233.013 191.009 
314.866 231.374 268.376 314.642 231.204 268.45 315.055 231.332 268.471 
315.076 231.174 268.632 314.865 231.626 268.285 314.669 231.714 268.239 
314.898 232.187 268.284 315.212 232.144 268.407 314.137 230.819 268.819 
314.01 230.567 269.159 314.578 230.974 268.651 314.866 231.012 268.667 
313.756 230.952 268.758 314.206 231.459 268.374 315.474 231.47 268.795 
314.72 232.635 268.313 314.932 232.999 268.426 315.884 233.033 269.075 
314.669 233.893 268.543 314.076 234.335 268.547 314.222 235.118 269.057 
314.57 234.706 268.871 314.877 234.733 269.059 315.102 230.947 269.217 
315.507 231.363 268.971 312.48 231.684 268.712 313.945 231.717 268.361 
313.674 232.173 268.351 315.967 232.09 269.206 312.828 232.709 268.405 
312.88 233.61 268.399 313.083 234.245 268.5 302 236.009 268.017 
302 236.009 268.017 302 236.009 268.017 302 236.009 268.017 
311.646 235.37 268.886 315.805 234.004 269.507 302 236.009 268.017 
303.606 236.485 270.244 305.802 236.248 269.612 313.007 235.417 269.012 
304.004 237.247 270.282 308.518 236.81 269.439 308.087 236.464 269.322 
314.124 235.739 269.694 305.928 237.822 270.158 310.552 237.257 269.754 
309.059 237.835 270.112 311.45 237.331 270.09 312.497 229.844 270.386 
312.054 234.135 268.57 302.428 236.401 271.049 302 236.009 268.018 
302.682 236.586 270.83 308.89 235.885 269.129 314.875 235.176 269.677 
312.417 237.017 270.193 307.066 238.659 270.797 311.576 229.827 270.549 
312.946 229.74 271.061 310.234 230.111 270.691 314.984 230.777 270.344 
316.086 232.048 269.785 307.059 232.642 270.115 302.134 234.393 271.754 
302.965 234.773 270.915 306.329 233.973 269.784 305.25 234.689 269.88 
316.038 233.948 270.575 316.173 233.644 270.534 306.5 235.142 269.485 
315.426 234.87 270.515 303.561 238.182 271.06 313.215 236.755 270.536 
311.129 237.911 270.876 308.62 239.022 271.403 311.285 229.507 271.532 
312.819 229.635 271.577 313.97 230.14 271.041 306.067 231.794 271.117 
316.245 232.733 270.421 302.493 233.354 272.095 316.217 233.416 270.629 
301.328 235.375 272.361 301.476 236.149 272.109 313.049 237.092 271.683 
311.958 237.785 271.771 308.527 229.449 272.896 309.69 229.457 272.184 
310.486 229.224 272.735 302.682 232.418 273.309 316.182 233.02 270.943 
300.986 235.959 272.881 315.067 235.126 272.169 301.364 236.724 272.435 
314.59 235.667 272.459 310.927 229.182 273.101 312.058 229.393 273.226 
312.686 229.603 272.915 304.972 230.574 273.728 315.205 231.287 271.963 
315.264 231.563 272.269 300.817 236.387 273.426 301.15 237.216 273.303 
311.909 237.911 273.066 302.868 239.228 272.928 309.422 239.152 272.391 
310.033 229.038 274.139 314.555 231.298 273.403 315.5 232.421 272.422 
314.629 234.676 273.776 314.903 234.236 273.509 314.113 235.526 273.999 
301.266 238.096 274.008 303.695 240.559 275.335 304.561 240.651 275.274 
307.863 229.159 274.912 308.692 228.998 275.581 311.678 229.424 274.761 
313.486 230.324 274.01 300.968 234.136 275.022 300.966 234.182 275.497 
313.167 236.337 274.755 310.308 229.068 275.261 313.772 231.799 275.605 
314.247 232.776 275.078 300.583 235.43 276.313 313.942 234.319 275.466 
300.473 236.82 276.259 310.452 238.557 275.556 306.818 240.208 275.767 
304.95 240.66 275.999 308.374 229.117 277.013 312.156 230.098 276.18 
313.505 232.46 276.52 300.709 238.004 276.421 303.114 240.562 277.077 
303.434 240.648 276.862 310.615 229.553 277.341 312.92 231.097 276.618 
302.05 233.222 278.087 311.69 236.746 277.605 301.109 238.92 277.652 
302.536 240.298 277.714 312.475 235.497 277.721 300.893 236.08 278.673 
309.217 238.455 278.607 302.26 240.009 278.501 302.787 240.383 278.024 
303.203 240.473 278.072 310.922 230.406 278.961 304.181 231.956 280.321 
301.483 235.038 279.314 300.819 237.418 279.09 300.898 238.447 278.878 
301.021 238.706 278.871 307.215 239.096 279.642 301.53 239.253 279.13 
304.822 240.069 279.232 302.516 240.127 278.642 302.725 240.11 278.906 
303.527 240.428 278.422 308.076 229.729 279.943 309.427 230.225 280.198 
311.09 231.838 280.26 301.066 237.599 279.994 301.206 238.455 279.794 
305.195 239.518 280.281 303.036 240.208 278.885 307.703 230.011 280.681 
308.951 230.016 280.29 308.723 230.04 280.537 310.5 231.11 280.35 
305.228 231.736 281.436 309.142 236.629 281.425 301.133 237.917 280.045 
306.205 239.006 280.706 308.973 230.568 281.198 308.751 230.693 281.499 
309.453 231.238 281.462 310.719 232.783 281.057 310.187 234.717 281.559 
[...]
POINT_DATA 454
SCALARS scalars float
LOOKUP_TABLE default
1 1 1 1 1 1 1 1 1 
1 1 1 1 1 1 1 1 1 
1 1 1 1 1 1 1 1 1 
1 1 1 1 1 1 1 1 1 
1 1 1 1 1 1 1 1 1 
1 1 1 1 1 1 1 1 1 
1 1 1 1 1 1 1 1 1 
1 1 1 1 1 1 1 1 1 
1 1 1 1 1 1 1 1 1 
1 1 1 1 1 1 1 1 1 
1 1 1 1 1 1 1 1 1 
1 1 1 1 1 1 1 1 1 
1 1 1 1 1 1 1 1 1 
1 1 1 1 1 1 1 1 1 
1 1 1 1 1 1 1 1 1 
1 1 1 1 1 1 1 1 1 
1 1 1 1 1 1 1 1 1 
1 1 1 1 1 1 1 1 1 
1 1 1 1 1 1 1 1 1 
1 1 1 1 1 1 1 1 1 
1 1 1 1 1 1 1 1 1 
1 1 1 1 1 1 1 1 1 
1 1 1 1 1 1 1 1 1 
1 1 1 1 1 1 1 1 1 
1 1 1 1 1 1 1 1 1 
1 1 1 1 1 1 1 1 1 
1 1 1 1 1 1 1 1 1 
1 1 1 1 1 1 1 1 1 
1 1 1 1 1 1 1 1 1 
1 1 1 1 1 1 1 1 1 
1 1 1 1 1 1 1 1 1 
1 1 1 1 1 1 1 1 1 
1 1 1 1 1 1 1 1 1 
1 1 1 1 1 1 1 1 1 
1 1 1 1 1 1 1 1 1 
1 1 1 1 1 1 1 1 1 
1 1 1 1 1 1 1 1 1 
1 1 1 1 1 1 1 1 1 
1 1 1 1 1 1 1 1 1 
1 1 1 1 1 1 1 1 1 
1 1 1 1 1 1 1 1 1 
1 1 1 1 1 1 1 1 1 
1 1 1 1 1 1 1 1 1 
1 1 1 1 1 1 1 1 1 
1 1 1 1 1 1 1 1 1 
1 1 1 1 1 1 1 1 1 
1 1 1 1 1 1 1 1 1 
1 1 1 1 1 1 1 1 1 
1 1 1 1 1 1 1 1 1 
1 1 1 1 1 1 1 1 1 
1 1 1 1 
NORMALS Normals float
-0.0870727 -0.384689 -0.91893 -0.213886 -0.412055 -0.8857 0.0180031 -0.00875956 -0.9998 
-0.502188 -0.195745 -0.842313 -0.082882 0.0112149 -0.996496 0.343636 0.0888229 -0.934893 
-0.162365 0.234497 -0.958462 -0.630445 0.130632 -0.765163 -0.120786 0.210322 -0.970142 
-0.391287 0.405444 -0.826141 0.0245641 -0.573187 -0.819057 0.104151 -0.619801 -0.777817 
0.322729 -0.667012 -0.671522 -0.221184 -0.563607 -0.79588 0.363081 -0.14058 -0.921091 
0.365395 -0.430154 -0.825502 -0.374013 -0.411 -0.83138 -0.544326 -0.413274 -0.730009 
0.291557 0.358712 -0.886747 -0.73039 0.0526424 -0.680999 -0.686008 0.195778 -0.700759 
-0.256174 0.400087 -0.879946 0.0794829 0.538771 -0.838694 -0.407913 0.580385 -0.704813 
-0.03579 -0.738592 -0.673202 -0.184112 -0.698793 -0.691225 -0.784192 -0.150799 -0.601915 
-0.00606129 -0.8132 -0.581953 -0.168716 -0.857631 -0.485802 -0.0202566 -0.902489 -0.430237 
-0.41425 -0.715712 -0.562276 0.650933 -0.333929 -0.681746 0.74302 0.0678348 -0.665823 
0.619776 0.366328 -0.694033 -0.792975 -0.331914 -0.510905 0.523624 0.259587 -0.811438 
-0.867827 -0.0483231 -0.494512 -0.79979 0.356365 -0.483052 0.319742 0.683431 -0.656268 
-0.1539 -0.925858 -0.34511 0.116258 -0.874517 -0.470854 0.411318 -0.666088 -0.622209 
0.741989 0.380357 -0.55207 -0.903216 -0.207089 -0.375919 0.530872 0.547872 -0.646538 
-0.649815 0.645798 -0.400855 -0.321927 0.715188 -0.620379 0.0971289 0.80466 -0.585738 
-0.187846 0.83809 -0.512171 -0.0304803 -0.960121 -0.277919 0.251121 -0.852288 -0.458849 
0.283503 -0.882802 -0.374549 0.546559 -0.648618 -0.529687 -0.929112 0.096505 -0.356985 
-0.633386 0.731105 -0.253591 0.0717316 -0.97056 -0.229931 0.850019 -0.130998 -0.510203 
-0.775027 -0.453841 -0.439729 -0.969888 -0.000167541 -0.243552 -0.825122 0.506718 -0.249822 
0.41643 0.828463 -0.37448 0.0649202 0.936491 -0.344631 -0.259591 -0.961805 0.0868531 
-0.323679 -0.943401 -0.0722911 0.00603525 -0.981972 -0.18893 0.380711 -0.874208 -0.301363 
0.687717 -0.516717 -0.50995 -0.944258 -0.193354 -0.266442 0.784223 0.415645 -0.460687 
-0.979571 0.0243979 -0.199615 0.644965 0.624737 -0.440141 0.341218 0.911053 -0.231414 
-0.773535 0.596141 -0.215081 -0.717759 0.681522 -0.142651 -0.270272 0.935932 -0.225798 
0.567491 -0.75032 -0.339078 -0.618037 -0.765639 -0.178403 -0.877193 -0.446002 -0.177804 
-0.986902 0.0899274 -0.133934 -0.940753 0.336684 -0.0403417 0.665908 0.698448 -0.262177 
-0.909018 0.400672 -0.114666 -0.0553374 0.992611 -0.107987 -0.520032 0.853579 -0.0311453 
0.254925 -0.950989 -0.175024 0.518181 -0.837991 -0.171052 0.578349 -0.760065 -0.296334 
0.754828 -0.585119 -0.296429 0.830025 0.380331 -0.407931 -0.996096 -0.0661715 -0.0584344 
0.516969 0.800022 -0.304479 0.277391 0.957563 -0.0782812 -0.205108 -0.974761 0.0881533 
-0.543922 -0.838905 -0.0196821 -0.941044 0.337516 0.0227701 0.367604 0.929964 0.00583803 
-0.630101 0.757542 0.170596 -0.335485 0.938155 0.0855282 -0.0220488 0.998855 0.0424643 
-0.814478 -0.578291 0.0469658 0.771287 0.539271 -0.338088 -0.805072 0.59106 0.0500746 
-0.353012 0.908442 0.223867 0.912444 -0.2364 -0.334008 -0.979103 -0.203255 0.00667692 
-0.957471 0.214521 0.192953 0.655586 0.715955 -0.240033 0.00632606 0.988807 0.149068 
0.234613 -0.971858 -0.0211853 -0.349447 -0.879605 0.322772 -0.532954 -0.800987 0.272726 
-0.523706 -0.781673 0.338702 -0.827701 -0.493033 0.26801 -0.988126 -0.136619 -0.0703052 
-0.933376 -0.279398 0.225267 -0.892096 0.274486 0.358918 -0.822993 0.395909 0.407355 
-0.605377 0.67723 0.418185 0.494405 0.866387 0.070265 -0.353264 0.819122 0.451934 
0.0384581 0.96679 0.252661 -0.392226 -0.830837 0.394802 -0.459629 -0.713216 0.52921 
-0.607613 -0.707955 0.360009 -0.314783 -0.881211 0.352674 -0.832512 -0.0272301 0.553337 
-0.781553 -0.176298 0.598409 0.871684 0.449849 -0.194431 0.780694 0.616199 -0.104004 
0.632289 0.772895 0.0533318 -0.603462 0.551377 0.576035 -0.147766 0.920852 0.360829 
-0.288165 -0.893794 0.343646 -0.0223395 -0.960127 0.278669 0.505903 -0.861457 -0.0441999 
-0.351952 -0.716139 0.602723 -0.644211 -0.559173 0.521841 0.98505 -0.0130849 -0.171771 
-0.763435 -0.168356 0.623557 0.987336 0.148612 -0.0555119 -0.623546 0.359443 0.694256 
0.0859659 0.858417 0.505698 0.0309312 -0.957287 0.287482 0.369986 -0.927008 0.0613683 
0.192924 -0.966324 0.170289 -0.286435 -0.794086 0.53608 -0.356525 -0.572389 0.738418 
0.880004 -0.472094 -0.0521624 -0.523939 -0.307666 0.794248 0.985713 -0.0732987 0.151645 
-0.346227 -0.353219 0.869117 0.922471 0.383356 -0.0456767 -0.766488 0.0780594 0.637497 
0.630478 0.75454 0.182118 -0.424507 0.584133 0.691797 0.413048 0.822863 0.390241 
-0.139467 0.802075 0.580711 0.238594 0.785455 0.571081 -0.208625 -0.640647 0.73895 
0.00893045 -0.839077 0.543939 0.24418 -0.919663 0.307564 0.261762 -0.948279 0.179578 
-0.23781 -0.224661 0.944973 -0.138392 0.0566256 0.988757 -0.516548 0.00674637 0.856232 
-0.154463 0.0797844 0.984772 0.805138 0.566501 0.175585 -0.373444 0.473109 0.797939 
-0.127058 0.59921 0.790446 0.0525986 0.686784 0.724956 0.329634 0.80684 0.490256 
0.319539 -0.946554 -0.0439349 0.154573 -0.867553 0.472714 -0.0575862 -0.819924 0.569568 
0.621806 -0.747366 0.234096 0.679722 -0.721824 0.130187 0.845835 -0.485203 0.22168 
-0.233871 -0.205227 0.950361 -0.156318 -0.121051 0.980261 0.838004 -0.280323 0.468155 
-0.0513208 0.0736748 0.995961 0.901924 0.319716 0.290369 -0.485282 0.0411768 0.873388 
-0.355817 0.0995819 0.929235 -0.100468 0.0141405 0.99484 -0.166946 0.18168 0.969083 
-0.0636724 0.170037 0.983378 0.677766 0.72013 0.14848 -0.100411 0.337887 0.935815 
0.0115251 0.473974 0.880463 0.209319 0.687073 0.695784 0.10005 0.399151 0.91141 
0.0354918 0.490427 0.87076 0.344796 0.73691 0.581446 -0.0427505 0.610866 0.790579 
0.207994 0.672154 0.710597 0.15666 0.724625 0.671101 0.393944 -0.564035 0.725722 
-0.12781 -0.655365 0.744421 0.316163 -0.748103 0.583424 0.305776 -0.622056 0.720797 
0.0477203 -0.668921 0.7418 0.524356 -0.605971 0.598206 0.760696 -0.296075 0.577651 
0.127956 -0.121572 0.9843 0.407377 -0.126055 0.904519 0.309878 -0.0836087 0.947093 
0.157376 0.101743 0.982284 0.757865 -0.0828309 0.647132 0.258244 0.270208 0.927522 
0.796212 0.219396 0.563836 0.477822 0.555865 0.680221 0.565763 0.172886 0.80624 
0.335367 0.635291 0.695654 0.100269 0.4347 0.894976 0.0594796 0.552884 0.831133 
0.0983794 -0.584938 0.80509 0.1933 -0.366573 0.910088 0.170517 -0.837181 -0.519665 
-0.650108 0.393343 -0.650108 0.465829 0.606501 -0.644329 0.650108 -0.393343 0.650108 
-0.170517 0.837181 0.519665 0.540804 0.0105113 0.841083 -0.465829 -0.606501 0.644329 
0.199148 -0.479367 -0.85472 0.0414553 -0.414038 -0.909315 0.467484 -0.447825 -0.762176 
0.562421 -0.645415 -0.516838 0.32286 -0.204999 -0.923979 -0.0137855 -0.156553 -0.987573 
0.173612 0.106403 -0.979049 0.577597 -0.00722469 -0.81629 -0.0228933 -0.737788 -0.674644 
0.119932 -0.885681 -0.448537 -0.0173848 -0.70237 -0.7116 0.293261 -0.808277 -0.510575 
-0.245985 -0.515819 -0.820623 -0.0894487 -0.398547 -0.912775 0.694634 -0.331287 -0.638539 
0.208544 0.165638 -0.963885 0.235759 0.193568 -0.952339 0.682684 0.199616 -0.70292 
0.221777 0.205679 -0.953158 0.21678 0.339084 -0.915439 0.260633 0.618839 -0.741019 
0.36684 0.416673 -0.831752 0.567652 0.486694 -0.664003 0.561316 -0.819254 -0.11725 
0.720158 -0.633315 -0.283345 -0.414549 -0.206923 -0.88619 -0.154418 -0.117883 -0.980948 
-0.161843 -0.000839221 -0.986816 0.905954 -0.133434 -0.4018 -0.093865 -0.0752551 -0.992737 
-0.152245 0.0235623 -0.988062 0.0820752 0.240422 -0.967192 0 -0.970142 -0.242536 
0 -1 0 -0.6 -0.8 0 0.6 -0.8 0 
-0.108262 0.262249 -0.958908 0.809967 0.455683 -0.369197 0 1 0 
-0.408105 0.0262172 -0.912559 -0.198312 0.093594 -0.97566 0.133807 0.524402 -0.840891 
-0.334043 0.360282 -0.870983 0.021964 0.456559 -0.889422 -0.12726 0.293774 -0.947366 
0.475417 0.757048 -0.44817 -0.0605124 0.497634 -0.865274 0.131133 0.659658 -0.740038 
0.0952513 0.607281 -0.788757 0.216889 0.68243 -0.698032 0.133874 -0.932618 -0.335113 
-0.280831 0.127087 -0.951306 -0.702499 0.317396 -0.636989 0 -0.970142 0.242536 
-0.605283 0.192011 -0.772505 0.00487458 0.237657 -0.971337 0.591794 0.742613 -0.313537 
0.370449 0.792397 -0.484639 -0.0436402 0.65222 -0.756772 -0.112767 -0.852658 -0.510155 
0.178149 -0.962559 -0.204313 -0.235886 -0.816629 -0.526759 0.524723 -0.850111 -0.0444613 
0.864627 -0.502261 -0.0124151 -0.29658 -0.493477 -0.817631 -0.697476 -0.326296 -0.638011 
-0.52764 -0.254599 -0.810417 -0.2389 -0.235489 -0.942057 -0.332694 -0.244408 -0.910813 
0.90393 0.396319 0.160756 0.943303 0.256591 -0.210572 -0.18189 -0.10009 -0.978212 
0.755106 0.607885 -0.245541 -0.400407 0.696214 -0.595786 0.574396 0.78866 -0.219281 
0.364949 0.884495 -0.290657 0.0997619 0.909741 -0.403013 0.0164015 -0.973641 -0.227493 
0.381947 -0.924171 0.00483166 0.432798 -0.899247 -0.0635694 -0.372665 -0.632439 -0.679074 
0.995102 -0.0982705 -0.0107169 -0.622864 -0.562563 -0.543657 0.933977 0.228884 0.274405 
-0.917104 -0.237164 -0.320427 -0.783022 -0.00768778 -0.621947 0.62141 0.783154 -0.0227705 
0.426322 0.889546 -0.164187 -0.229375 -0.947859 -0.221246 -0.26273 -0.817352 -0.512746 
-0.0243215 -0.982422 -0.185082 -0.661584 -0.749855 0.00500267 0.945582 -0.0910228 0.312393 
-0.946225 -0.0345615 -0.321658 0.789464 0.607072 0.0906138 -0.808208 0.267035 -0.524873 
0.762531 0.609527 0.216848 0.0258437 -0.999644 -0.00660932 0.288208 -0.956982 -0.0334969 
0.356915 -0.933599 0.0317018 -0.479697 -0.818208 -0.3169 0.787162 -0.570866 0.233428 
0.873528 -0.387171 0.29504 -0.988902 -0.0439979 -0.141907 -0.780692 0.43359 -0.450022 
0.476996 0.878737 0.0172001 -0.40487 0.798322 -0.445828 0.441147 0.89503 -0.0656592 
0.00377604 -0.999303 -0.037145 0.782847 -0.523628 0.3361 0.922559 -0.023546 0.385137 
0.85498 0.315782 0.411449 0.890825 0.310459 0.331732 0.781339 0.556753 0.282018 
-0.7568 0.575972 -0.309046 -0.407346 0.884256 -0.228388 0.00692438 0.96374 -0.266752 
-0.345392 -0.93697 0.0528303 -0.0534527 -0.99799 -0.0340434 0.329764 -0.92814 0.17266 
0.599895 -0.764783 0.235016 -0.921957 -0.371693 -0.108813 -0.917242 -0.397633 0.0235592 
0.750035 0.572154 0.331793 0.112687 -0.99189 0.0587822 0.818921 -0.41868 0.392524 
0.877198 -0.0423776 0.478255 -0.970033 -0.238251 0.0476812 0.869286 0.20854 0.448165 
-0.998319 0.0551265 -0.0179067 0.560441 0.814507 0.149946 0.346304 0.931175 0.113957 
0.163463 0.979575 0.117098 -0.018151 -0.985814 0.16686 0.584191 -0.77466 0.242119 
0.874298 -0.144136 0.463496 -0.941443 0.331043 -0.064005 -0.317205 0.94674 -0.0553555 
-0.106796 0.993565 0.0377172 0.396093 -0.862942 0.313754 0.678456 -0.644573 0.352453 
-0.803203 -0.562918 0.194906 0.702466 0.561685 0.437093 -0.832558 0.553854 -0.00963167 
-0.51175 0.858005 -0.044041 0.834818 0.286074 0.470362 -0.968947 -0.184331 0.164816 
0.523765 0.747175 0.409146 -0.58428 0.784026 0.209574 -0.353863 0.927492 0.120578 
-0.183521 0.973063 0.139527 0.403991 -0.890647 0.208658 -0.648475 -0.658226 0.382386 
-0.820482 -0.373822 0.432512 -0.976785 -0.0734054 0.201252 -0.948715 0.262511 0.176149 
-0.825522 0.506871 0.248183 0.434603 0.78506 0.441362 -0.667762 0.655515 0.352695 
0.121385 0.914018 0.387088 -0.342055 0.893074 0.292262 -0.268214 0.811939 0.518475 
-0.0656706 0.973571 0.218739 -0.105879 -0.981254 0.161031 0.365948 -0.88572 0.285625 
0.84469 -0.12191 0.521187 -0.942033 0.0215246 0.334828 -0.769369 0.485917 0.414676 
0.129627 0.847856 0.514136 -0.168528 0.875662 0.452564 -0.279369 -0.87194 0.402088 
0.347549 -0.916035 0.200224 0.33187 -0.831122 0.446205 0.62292 -0.534461 0.571246 
-0.533851 -0.649873 0.540988 0.562095 0.554913 0.613287 -0.819323 0.299728 0.488747 
0.275628 0.79157 0.545386 0.424662 -0.762394 0.48828 0.348896 -0.692719 0.631198 
0.58306 -0.572642 0.576301 0.720945 -0.232183 0.652939 0.708716 0.281862 0.646742 
-0.762939 -0.220895 0.60756 -0.806083 -0.0393143 0.590496 0.322096 0.682552 0.656032 
0.0372268 -0.744528 0.666553 0.591434 -0.35439 0.724302 -0.596358 -0.400603 0.695611 
0.129322 0.685686 0.716318 0.110661 0.52356 0.844771 -0.635904 0.366888 0.678984 
-0.50031 0.678164 0.538316 -0.234422 0.724582 0.648095 0.0347672 0.749397 0.661208 
0.465625 -0.493258 0.734772 0.29582 -0.477236 0.827488 -0.403051 -0.560868 0.723172 
-0.17062 -0.622454 0.763833 0.386292 -0.258722 0.885348 0.583409 -0.187012 0.790354 
0.470773 0.112575 0.875043 0.376613 0.226279 0.89831 -0.542459 -0.334253 0.770722 
0.344608 0.329102 0.879168 -0.558922 -0.256909 0.788419 0.11246 0.36771 0.923116 
-0.367093 -0.930164 -0.00618778 -0.161262 0.45987 0.873221 0.00512738 -0.425957 0.904729 
-0.443959 -0.287888 0.84854 0.360914 -0.132786 0.923098 -0.111175 -0.29456 0.949144 
-0.31215 -0.0458724 0.948925 0.0611088 0.107124 0.992366 0.242472 0.177306 0.953819 
-0.629823 0.136004 0.764739 -0.139939 0.201707 0.969397 0.172038 -0.0762282 0.982136 
-0.303185 -0.100712 0.947595 -0.110236 -0.165097 0.980097 -0.351135 0.0271709 0.935931 
0 0.8 -0.6 -0.242536 0.970142 0 0.242536 0.970142 0 
0 0.8 0.6 -0.367093 -0.930164 -0.00618778 -0.248171 0.596957 0.762925 
-0.367093 -0.930164 -0.00618778 
