# vtk DataFile Version 4.2
vtk output
ASCII
DATASET POLYDATA
POINTS 1083 float
219 219.009 152.017 219 219.009 152.017 219 219.009 152.017 
219 219.009 152.017 219 219.009 152.017 219.253 222.842 154.474 
219.349 222.557 154.57 219.227 223.583 154.556 219.642 227.789 154.48 
219.415 228.375 154.442 219.539 228.632 154.495 218.734 219.052 154.865 
219 219.009 152.017 218.81 219.211 154.805 219.476 219.052 155.151 
218.252 220.604 154.596 218.712 221.861 154.497 219.674 222.421 154.859 
219.495 224.625 154.716 218.815 227.363 154.499 219.406 217.84 155.859 
216.96 219.727 155.157 219.662 218.881 155.373 219.842 218.96 155.642 
218.601 225.972 154.543 221.111 226.269 155.792 218.556 236.663 155.995 
217.606 217.009 156.171 219.676 218.589 155.579 220.356 219.625 156.308 
217.681 226.872 154.833 221.755 231.476 156.758 217.513 234.907 155.922 
221.749 235.497 157.089 220.296 237.089 156.386 221.318 236.427 156.923 
221.731 235.961 157.226 220.136 237.812 156.549 216.281 216.553 156.945 
215.239 217.152 157.08 215.032 219.333 156.215 221.435 225.484 156.499 
216.308 231.467 156.219 216.325 234.833 156.602 222.026 234.921 157.339 
222.3 235.414 157.954 217.471 238.352 156.802 218.543 239.102 156.859 
217.716 215.076 158.006 218.396 215.436 157.58 218.793 215.477 157.611 
213.542 219.79 157.331 221.702 224.896 157.345 216.138 238.27 157.469 
222.444 237.139 158.85 217.559 240.229 157.614 220.948 240.359 158.436 
217.618 214.169 159.377 218.698 214.714 158.463 217.257 215.063 158.183 
219.241 215.496 157.918 219.101 215.129 158.219 219.799 215.999 158.348 
212.24 221.271 158.306 214.495 237.273 158.428 222.033 239.895 159.421 
218.494 213.943 159.568 218.708 213.889 159.753 218.773 214.179 159.352 
213.095 217.284 159.565 220.382 216.743 159.043 211.441 219.491 159.999 
221.531 220.881 159.264 214.406 234.228 158.115 218.004 213.17 161 
218.252 213.26 160.835 218.919 214.009 159.752 219.072 214.035 159.972 
214.776 215.327 160.463 211.902 218.293 160.39 221.076 218.383 159.911 
213.062 235.415 159.653 215.479 243.369 160.824 222.845 242.205 161.982 
220.836 243.814 160.932 222.177 243.724 162.108 217.745 213.207 161.02 
219.762 214.901 160.424 209.607 221.84 161.532 223.172 240.564 161.757 
218.597 244.529 161.108 220.083 244.337 161.131 218.113 213.037 161.553 
218.155 212.994 161.764 218.058 213.004 161.749 218.346 213.107 161.526 
218.267 213.043 161.715 217.867 213.126 161.801 218.716 213.422 161.694 
211.993 217.696 162.059 209.984 220.042 162.288 209.375 220.807 162.674 
209.12 221.444 162.618 223.518 240.442 162.74 220.551 245.733 162.811 
221.557 245.941 163.524 222.068 245.486 163.533 218.079 213.02 161.852 
218.23 213.076 161.917 218.062 213.101 161.994 218.17 213.184 162.135 
218.37 213.264 162.12 213.3 216.535 162.681 209.682 220.023 163.262 
223.673 239.789 163.134 215.301 245.857 163.57 222.766 245.907 164.95 
218.447 213.482 162.37 217.663 213.593 162.522 219.322 214.308 162.181 
210.074 219.483 164.144 208.348 221.678 164.131 208.37 242.92 165.538 
207.945 243.404 166.059 223.311 245.411 165.515 221.917 247.329 165.465 
218.319 213.734 162.714 218.237 214.501 163.608 220.231 216.178 163.119 
214.682 215.995 163.919 223.645 246.366 166.733 220.885 248.365 166.094 
223.169 247.547 166.919 219.263 214.937 163.515 218.603 215.108 164.312 
218.883 215.158 164.179 220.616 217.703 164.287 206.288 225.118 165.862 
206.133 226.253 165.779 208.872 244.976 166.431 218.606 248.823 166.879 
219.569 215.76 164.105 219.923 216.977 164.975 211.661 218.843 166.258 
210.69 219.427 166.304 205.601 225.039 167.258 207.591 244.808 167.336 
223.367 249.369 169.252 219.327 217.123 165.961 215.301 217.547 166.75 
215.635 218.383 167.926 224.314 247.597 169.38 221.693 250.5 169.187 
222.422 250.669 169.855 219.966 218.263 166.492 218.579 217.594 166.975 
216.862 218.079 167.78 220.352 219.391 167.103 210.191 220.512 168.266 
221.526 222.359 167.658 224.208 236.54 168.508 204.493 244.235 169.942 
222.237 251.148 170.627 220.386 220.541 168.393 218.116 219.944 169.47 
221.101 221.68 168.159 209.245 221.413 169.364 204.878 224.587 170.445 
224.166 235.836 169.707 205.052 246.145 170.728 219.641 220.158 168.837 
206.092 223.486 170.524 203.099 226.546 171.345 221.088 251.894 171.896 
219.603 220.979 169.647 220.113 221.811 169.925 212.221 222.368 172.353 
224.115 235.469 171.088 203.958 237.921 170.893 225.049 243.416 171.658 
201.75 246.447 173.609 203.222 225.853 173.001 224.761 251.16 174.905 
205.879 224.091 172.772 201.075 227.631 174.956 200.667 228.245 174.511 
200.573 228.215 174.902 225.085 242.549 173.486 201.044 246.867 174.494 
202.912 247.991 174.485 225.057 250.729 175.3 204.319 225.301 174.696 
201.566 227.15 175.155 200.111 228.829 175.534 222.218 229.423 173.466 
199.534 230.009 175.574 199.407 229.85 175.999 199.509 230.628 175.325 
223.596 234.158 174.001 225.303 249.942 175.552 203.791 225.664 175.575 
205.237 225.061 174.957 203.296 225.993 175.584 199.834 229.055 176.327 
198.609 231.036 176.709 198.496 230.883 177.061 199.122 234.114 175.514 
223.792 235.971 175.255 197.394 246.655 177.701 200.972 248.161 176.28 
203.847 248.989 175.611 224.245 252.735 177.478 223.48 253.506 177.405 
204.66 225.833 176.299 208.786 225.544 176.593 225.531 248.667 177.207 
225.526 249.262 177.052 224.609 252.309 178.017 199.634 229.22 177.861 
220.775 230.131 176.67 197.893 247.89 178.492 222.639 254.409 178.92 
200.288 228.86 178.696 198.88 230.028 178.724 225.351 247.187 178.826 
195.253 246.673 179.489 199.072 248.66 178.654 218.465 254.74 179.204 
208.076 229.232 180.139 195.657 233.244 180.118 196.77 248.729 180.611 
200.007 229.643 179.863 223.938 240.281 179.254 191.769 245.79 181.603 
224.958 246.605 180.426 190.626 247.586 182.564 191.725 247.617 182.238 
189.242 248.314 183.236 191.688 248.469 182.935 225.153 249.459 180.468 
200.685 250.085 180.472 224.427 252.747 180.707 218.417 255.292 181.212 
222.987 254.322 180.638 221.384 254.962 181.33 197.298 231.447 181.729 
194.695 232.811 182.23 207.525 231.787 181.87 192.355 241.963 181.379 
191.763 242.522 181.776 224.575 245.892 181.128 224.961 247.567 181.026 
190.942 248.721 183.297 188.449 249.392 183.865 186.963 249.741 183.966 
184.888 250.704 184.552 184.825 250.989 184.594 185.536 250.57 184.324 
185.274 250.499 184.389 185.008 251.074 184.567 184.659 251.223 184.75 
186.259 250.764 184.403 223.63 253.643 181.558 223.581 253.565 181.934 
199.343 231.367 182.591 193.699 232.354 184.445 194.663 232.266 183.928 
195.658 232.107 183.518 187.551 247.749 183.713 190.728 249.062 183.737 
192.135 249.163 183.842 186.635 249.209 183.944 185.944 249.312 184.19 
224.346 251.6 182.261 184.122 251.142 185.008 185.862 251.051 184.536 
208.107 252.897 182.214 184.073 251.525 185.185 183.778 251.611 185.436 
184.764 251.549 185.003 185.688 251.257 184.757 184.466 251.676 185.213 
219.441 255.462 182.684 193.342 232.11 185.432 192.291 232.535 185.229 
196.26 232.09 184.142 198.985 232.114 183.828 190.09 249.567 184.566 
191.981 249.399 184.421 185.232 248.911 184.695 189.312 249.86 184.932 
183.323 250.939 185.562 204.593 252.223 183.447 183.173 251.176 185.682 
186.007 251.212 184.867 183.449 251.527 185.622 183.124 251.641 185.982 
183.508 251.797 185.859 222.374 253.895 183.337 215.709 255.39 183.682 
221.338 254.385 183.821 216.958 255.511 183.847 218.555 255.411 184.079 
192.517 232.131 186.19 194.082 232.087 185.469 190.398 234.86 184.938 
205.267 238.38 185.73 222.912 245.131 183.434 185.96 246.646 184.968 
193.203 249.523 184.596 223.039 252.035 184.056 185.94 251.331 185.157 
185.705 251.45 185.491 186.386 251.181 185.37 182.738 251.55 186.304 
182.455 251.678 186.805 222.452 253.105 184.114 222.073 253.005 184.563 
183.658 251.959 186.067 219.46 255.132 184.201 216.974 255.378 184.978 
193.101 232.053 186.369 190.587 232.97 186.371 194.219 232.159 186.359 
196.312 232.437 185.555 197.736 232.963 185.77 201.032 235.199 186.004 
221.263 243.323 183.99 222.176 247.005 184.717 190.595 249.831 185.948 
222.385 250.324 184.954 182.159 250.523 186.689 223.073 251.029 184.291 
222.111 252.457 184.802 183.955 251.99 186.47 206.248 253.155 185.201 
207.664 253.612 185.382 182.714 251.96 186.942 183.023 252.101 186.753 
183.066 252.147 186.831 210.252 254.33 185.575 220.422 254.008 185.148 
217.978 255.112 185.212 193.272 232.152 187.42 195.298 232.465 186.527 
213.192 246.179 186.755 219.891 247.829 185.978 183.021 247.697 186.831 
187.89 250.471 187.158 181.191 251.105 188.061 181.374 251.352 188.059 
204.973 252.833 186.443 182.242 251.907 187.685 183.116 252.129 186.979 
219.573 253.859 185.803 208.491 253.738 186.261 210.348 254.226 186.329 
212.282 254.707 186.168 214.091 255.027 186.135 215.457 255.114 186.002 
216.823 255.117 185.744 189.336 232.523 188.728 211.233 249.394 187.715 
194.295 249.733 187.564 216.659 249.886 187.126 211.024 251.028 187.865 
199.086 250.698 187.134 217.849 251.263 187.016 180.569 250.961 189.138 
210.881 252.125 187.763 218.221 251.894 186.939 218.838 252.506 186.685 
181.375 251.634 188.652 203.907 252.285 187.15 218.415 253.262 186.638 
218.526 252.809 186.744 181.762 251.791 188.257 182.079 251.914 188.129 
182.434 251.969 188.064 205.612 252.83 187.157 206.035 253.095 186.77 
207.988 253.386 186.844 210.059 253.935 186.673 211.896 254.475 186.495 
213.363 254.698 186.548 217.249 254.628 186.314 213.812 254.856 186.423 
188.168 233.015 188.978 196.127 233.842 188.297 204.241 249.169 188.599 
190.219 249.596 188.648 203.077 249.37 188.703 205.115 249.693 188.481 
180.073 249.942 189.334 204.099 250.666 188.351 219.902 251.668 186.378 
180.654 251.169 189.269 210.416 252.668 187.604 181.182 251.543 189.196 
181.602 251.731 189.005 182.541 251.884 188.686 210.546 253.297 187.321 
206.812 252.655 187.529 207.459 253.028 187.244 209.445 253.487 187.039 
[...]
POINT_DATA 1083
SCALARS scalars float
LOOKUP_TABLE default
1 1 1 1 1 1 1 1 1 
1 1 1 1 1 1 1 1 1 
1 1 1 1 1 1 1 1 1 
1 1 1 1 1 1 1 1 1 
1 1 1 1 1 1 1 1 1 
1 1 1 1 1 1 1 1 1 
1 1 1 1 1 1 1 1 1 
1 1 1 1 1 1 1 1 1 
1 1 1 1 1 1 1 1 1 
1 1 1 1 1 1 1 1 1 
1 1 1 1 1 1 1 1 1 
1 1 1 1 1 1 1 1 1 
1 1 1 1 1 1 1 1 1 
1 1 1 1 1 1 1 1 1 
1 1 1 1 1 1 1 1 1 
1 1 1 1 1 1 1 1 1 
1 1 1 1 1 1 1 1 1 
1 1 1 1 1 1 1 1 1 
1 1 1 1 1 1 1 1 1 
1 1 1 1 1 1 1 1 1 
1 1 1 1 1 1 1 1 1 
1 1 1 1 1 1 1 1 1 
1 1 1 1 1 1 1 1 1 
1 1 1 1 1 1 1 1 1 
1 1 1 1 1 1 1 1 1 
1 1 1 1 1 1 1 1 1 
1 1 1 1 1 1 1 1 1 
1 1 1 1 1 1 1 1 1 
1 1 1 1 1 1 1 1 1 
1 1 1 1 1 1 1 1 1 
1 1 1 1 1 1 1 1 1 
1 1 1 1 1 1 1 1 1 
1 1 1 1 1 1 1 1 1 
1 1 1 1 1 1 1 1 1 
1 1 1 1 1 1 1 1 1 
1 1 1 1 1 1 1 1 1 
1 1 1 1 1 1 1 1 1 
1 1 1 1 1 1 1 1 1 
1 1 1 1 1 1 1 1 1 
1 1 1 1 1 1 1 1 1 
1 1 1 1 1 1 1 1 1 
1 1 1 1 1 1 1 1 1 
1 1 1 1 1 1 1 1 1 
1 1 1 1 1 1 1 1 1 
1 1 1 1 1 1 1 1 1 
1 1 1 1 1 1 1 1 1 
1 1 1 1 1 1 1 1 1 
1 1 1 1 1 1 1 1 1 
1 1 1 1 1 1 1 1 1 
1 1 1 1 1 1 1 1 1 
1 1 1 1 1 1 1 1 1 
1 1 1 1 1 1 1 1 1 
1 1 1 1 1 1 1 1 1 
1 1 1 1 1 1 1 1 1 
1 1 1 1 1 1 1 1 1 
1 1 1 1 1 1 1 1 1 
1 1 1 1 1 1 1 1 1 
1 1 1 1 1 1 1 1 1 
1 1 1 1 1 1 1 1 1 
1 1 1 1 1 1 1 1 1 
1 1 1 1 1 1 1 1 1 
1 1 1 1 1 1 1 1 1 
1 1 1 1 1 1 1 1 1 
1 1 1 1 1 1 1 1 1 
1 1 1 1 1 1 1 1 1 
1 1 1 1 1 1 1 1 1 
1 1 1 1 1 1 1 1 1 
1 1 1 1 1 1 1 1 1 
1 1 1 1 1 1 1 1 1 
1 1 1 1 1 1 1 1 1 
1 1 1 1 1 1 1 1 1 
1 1 1 1 1 1 1 1 1 
1 1 1 1 1 1 1 1 1 
1 1 1 1 1 1 1 1 1 
1 1 1 1 1 1 1 1 1 
1 1 1 1 1 1 1 1 1 
1 1 1 1 1 1 1 1 1 
1 1 1 1 1 1 1 1 1 
1 1 1 1 1 1 1 1 1 
1 1 1 1 1 1 1 1 1 
1 1 1 1 1 1 1 1 1 
1 1 1 1 1 1 1 1 1 
1 1 1 1 1 1 1 1 1 
1 1 1 1 1 1 1 1 1 
1 1 1 1 1 1 1 1 1 
1 1 1 1 1 1 1 1 1 
1 1 1 1 1 1 1 1 1 
1 1 1 1 1 1 1 1 1 
1 1 1 1 1 1 1 1 1 
1 1 1 1 1 1 1 1 1 
1 1 1 1 1 1 1 1 1 
1 1 1 1 1 1 1 1 1 
1 1 1 1 1 1 1 1 1 
1 1 1 1 1 1 1 1 1 
1 1 1 1 1 1 1 1 1 
1 1 1 1 1 1 1 1 1 
1 1 1 1 1 1 1 1 1 
1 1 1 1 1 1 1 1 1 
1 1 1 1 1 1 1 1 1 
1 1 1 1 1 1 1 1 1 
1 1 1 1 1 1 1 1 1 
1 1 1 1 1 1 1 1 1 
1 1 1 1 1 1 1 1 1 
1 1 1 1 1 1 1 1 1 
1 1 1 1 1 1 1 1 1 
1 1 1 1 1 1 1 1 1 
1 1 1 1 1 1 1 1 1 
1 1 1 1 1 1 1 1 1 
1 1 1 1 1 1 1 1 1 
1 1 1 1 1 1 1 1 1 
1 1 1 1 1 1 1 1 1 
1 1 1 1 1 1 1 1 1 
1 1 1 1 1 1 1 1 1 
1 1 1 1 1 1 1 1 1 
1 1 1 1 1 1 1 1 1 
1 1 1 1 1 1 1 1 1 
1 1 1 1 1 1 1 1 1 
1 1 1 1 1 1 1 1 1 
1 1 1 1 1 1 1 1 1 
1 1 1 1 1 1 1 1 1 
1 1 1 
NORMALS Normals float
0 0 -1 -0.83205 -0.5547 0 -1 0 2.78775e-08 
1 0 2.78775e-08 0 0.5547 -0.83205 0.355153 -0.00445379 -0.934798 
0.614728 -0.112757 -0.780638 0.267513 0.0430046 -0.962594 0.29959 -0.0179077 -0.9539 
-0.215222 0.192363 -0.957432 0.108921 0.183437 -0.976978 0.123015 -0.546162 -0.828598 
0 0 1 0.107178 -0.232303 -0.96672 0.621338 -0.214337 -0.753657 
0.00108376 -0.116371 -0.993205 0.0341894 -0.0919411 -0.995177 0.628358 -0.120448 -0.768543 
0.505448 -0.0658764 -0.860339 -0.326036 0.131506 -0.936166 0.771673 -0.466755 -0.432043 
-0.388374 -0.110872 -0.914807 0.614627 -0.366264 -0.698631 0.879123 -0.200131 -0.43254 
-0.0669049 -0.0269465 -0.997395 0.811476 0.0118098 -0.584266 -0.233905 0.235555 -0.943293 
-0.154354 -0.537068 -0.829297 0.666218 -0.447598 -0.596497 0.880059 -0.208554 -0.426615 
-0.39293 0.0516109 -0.918119 0.925701 -0.00473417 -0.378226 -0.441605 0.0179305 -0.89703 
0.651251 0.0611952 -0.756391 0.365293 0.0526689 -0.929402 0.698738 0.246012 -0.671747 
0.715844 0.180818 -0.674442 0.25793 0.395296 -0.881597 -0.380569 -0.645728 -0.661969 
-0.547832 -0.516314 -0.658256 -0.513359 -0.28442 -0.809672 0.858347 -0.0544635 -0.51017 
-0.57886 0.0704732 -0.812376 -0.528694 0.0270745 -0.848381 0.771786 -0.0787081 -0.630993 
0.918528 0.146575 -0.367181 -0.234316 0.348564 -0.907524 -0.0752205 0.482424 -0.872702 
-0.155363 -0.728077 -0.667657 -0.0629772 -0.673575 -0.736431 0.373006 -0.542746 -0.752524 
-0.63442 -0.0886125 -0.767893 0.955056 -0.0431013 -0.293276 -0.48248 0.318346 -0.816008 
0.887905 0.142905 -0.437268 -0.237664 0.517092 -0.822272 0.56582 0.449965 -0.690927 
-0.202316 -0.855583 -0.476494 0.198521 -0.793085 -0.575852 -0.290179 -0.74498 -0.600667 
0.552454 -0.505434 -0.66282 0.658738 -0.65504 -0.370116 0.643908 -0.545724 -0.536253 
-0.695045 -0.131059 -0.70692 -0.64352 0.201648 -0.73839 0.862566 0.144755 -0.484794 
7.99396e-05 -0.887032 -0.461708 0.192292 -0.901176 -0.388466 0.361421 -0.742585 -0.563863 
-0.688205 -0.584026 -0.43045 0.899464 -0.404552 -0.165233 -0.790035 -0.415923 -0.450392 
0.979706 -0.198578 -0.0272773 -0.656332 -0.0900784 -0.749075 0.0321961 -0.935706 -0.351307 
0.402793 -0.855704 -0.324851 0.5731 -0.711217 -0.407096 0.675551 -0.671397 -0.304725 
-0.576849 -0.779007 -0.245751 -0.761612 -0.487223 -0.427271 0.950589 -0.287756 -0.116519 
-0.734355 0.086607 -0.673218 -0.495958 0.508071 -0.704195 0.843197 0.36447 -0.395195 
0.451888 0.497953 -0.740162 0.617362 0.498495 -0.608578 -0.379827 -0.879866 -0.285599 
0.839244 -0.541726 -0.0469379 -0.822927 -0.191957 -0.534737 0.819139 0.237382 -0.522169 
0.0593943 0.659494 -0.749359 0.112589 0.744271 -0.658319 -0.0556304 -0.974251 -0.218497 
0.154529 -0.984685 0.0807175 -0.32956 -0.943983 -0.0169151 0.420835 -0.885432 -0.197248 
0.608065 -0.793446 0.0264586 -0.569178 -0.811577 0.131833 0.713587 -0.699867 0.0313123 
-0.757038 -0.652524 -0.0332457 -0.769354 -0.552942 -0.319922 -0.850168 -0.415753 -0.323054 
-0.881534 -0.338117 -0.329508 0.983041 0.1158 -0.142199 0.242852 0.711394 -0.659501 
0.491786 0.62823 -0.602887 0.621972 0.518612 -0.586679 -0.174237 -0.91744 0.357695 
0.30987 -0.863372 0.398208 -0.198502 -0.853058 0.482585 0.137434 -0.798349 0.586303 
0.650562 -0.690128 0.317004 -0.653625 -0.745362 0.131182 -0.807611 -0.563616 -0.173499 
0.979639 0.145877 -0.137939 -0.208261 0.764527 -0.610021 0.724809 0.522051 -0.449571 
0.608302 -0.679031 0.410957 -0.455038 -0.78867 0.413449 0.850625 -0.500291 0.161699 
-0.679707 -0.731399 0.0552668 -0.845472 -0.494235 -0.202258 -0.50604 0.431226 -0.746972 
-0.663007 0.229399 -0.712599 0.898183 0.29415 -0.326716 0.565142 0.620624 -0.543544 
0.0919349 -0.718924 0.688982 0.0254736 -0.792885 0.608838 0.888562 -0.410019 0.205772 
-0.447812 -0.761375 0.4688 0.854402 0.289566 -0.431449 0.163596 0.877952 -0.449929 
0.59382 0.589096 -0.548036 0.555991 -0.680912 0.47669 0.357017 -0.690739 0.628823 
0.481722 -0.62215 0.61715 0.899819 -0.303539 0.313353 -0.780801 -0.329869 -0.530599 
-0.808031 -0.125789 -0.575555 -0.389736 0.753083 -0.530068 -0.0906234 0.920573 -0.379911 
0.653105 -0.537392 0.533539 0.734112 -0.49323 0.466695 -0.457691 -0.784383 0.418643 
-0.504398 -0.77452 0.381708 -0.775384 -0.508303 -0.374709 -0.385457 0.749961 -0.53757 
0.739873 0.531523 -0.412396 0.636353 -0.558802 0.531785 -0.234014 -0.784315 0.574531 
-0.13537 -0.816106 0.561824 0.955601 0.189143 -0.225947 0.264718 0.777367 -0.570636 
0.352401 0.800324 -0.485072 0.832396 -0.408894 0.374063 0.0797262 -0.808688 0.58281 
0.0601673 -0.805259 0.589863 0.829733 -0.464155 0.310006 -0.520208 -0.817682 0.246536 
0.918072 -0.334386 0.212907 0.988011 -0.0976905 -0.119544 -0.663272 0.452947 -0.595743 
0.45091 0.803331 -0.389022 0.760671 -0.498877 0.415332 0.184543 -0.662778 0.72572 
0.817459 -0.422167 0.391837 -0.183282 -0.813342 0.552162 -0.677785 -0.724788 -0.123657 
0.97156 -0.233796 -0.0375491 -0.45392 0.644462 -0.615326 0.478043 -0.628474 0.613592 
-0.633366 -0.773167 0.0325562 -0.809671 -0.52234 -0.26757 -0.12079 0.887597 -0.444501 
0.500807 -0.520899 0.691271 0.584383 -0.512907 0.628827 0.0385777 -0.718391 0.694569 
0.97166 -0.236138 0.0107929 -0.765715 0.0539888 -0.64091 0.996838 -0.0351622 -0.0712578 
-0.610785 0.383856 -0.692529 -0.57122 -0.820423 -0.0247775 0.794173 0.503125 -0.340815 
-0.278602 -0.87522 0.395438 -0.718784 -0.678857 -0.150011 -0.759409 -0.545861 -0.354025 
-0.841072 -0.508306 -0.184993 0.998693 -0.0497329 -0.0118061 -0.382969 0.720217 -0.578466 
-0.427124 0.76939 -0.474978 0.927628 0.31159 -0.205957 -0.440437 -0.897454 0.0243304 
-0.650293 -0.756955 -0.0643262 -0.837273 -0.481445 -0.259199 0.907084 -0.343141 0.243829 
-0.824441 -0.3772 -0.42192 -0.854125 -0.391348 -0.342517 -0.837909 -0.172162 -0.517946 
0.893989 -0.393027 0.215205 0.958442 0.230923 -0.167519 -0.37986 -0.86127 0.33752 
-0.2363 -0.935543 0.26253 -0.506218 -0.819788 0.267752 -0.773371 -0.627165 -0.0925252 
-0.796578 -0.431716 -0.423184 -0.601051 -0.707207 -0.372285 -0.789135 0.0392812 -0.612962 
0.937234 -0.251978 0.241038 -0.461462 0.660819 -0.591922 -0.256854 0.817781 -0.515034 
-0.246597 0.906657 -0.342291 0.835452 0.541641 -0.092977 0.559865 0.79789 -0.223432 
-0.217137 -0.797996 0.562186 -0.0309223 -0.821794 0.568945 0.998438 -0.0506307 0.0236314 
0.98785 0.155316 0.00543172 0.869415 0.494056 -0.00507748 -0.651562 -0.754242 0.0811573 
0.458927 -0.469602 0.754228 -0.437685 0.724873 -0.531968 0.458062 0.871493 -0.175154 
-0.540329 -0.802238 0.253888 -0.693653 -0.70104 -0.165496 0.977355 -0.176831 0.116222 
-0.469253 0.634816 -0.613849 -0.412331 0.766781 -0.491966 -0.135814 0.944543 -0.298987 
0.109202 -0.671752 0.732683 -0.770367 -0.360768 -0.52572 -0.350569 0.797631 -0.490802 
-0.307706 -0.828085 0.468606 0.890767 -0.31987 0.322827 -0.562358 0.184519 -0.806044 
0.922501 -0.164498 0.349187 -0.346229 0.306595 -0.886637 -0.366121 0.490227 -0.79097 
-0.262974 0.00546172 -0.964788 -0.0834663 0.798115 -0.596696 0.955788 0.146582 0.254918 
-0.33434 0.888766 -0.313549 0.907391 0.40152 0.124191 -0.0275846 0.993819 -0.107529 
0.547293 0.828907 0.115689 0.261637 0.964717 -0.0294592 -0.422265 -0.899201 0.114587 
-0.45159 -0.816094 -0.360634 0.210752 -0.565232 0.797556 -0.566541 -0.023335 -0.823703 
-0.478842 0.0908494 -0.873188 0.911045 -0.175379 0.373147 0.936763 -0.0548308 0.345642 
0.013431 0.85029 -0.526143 0.0110878 0.575083 -0.81802 -0.12021 0.220869 -0.967867 
-0.458223 0.0100932 -0.88878 -0.305308 0.0596041 -0.950387 -0.201364 0.336189 -0.920016 
-0.339993 0.123341 -0.932305 -0.161332 0.445689 -0.88053 -0.390569 0.37924 -0.838828 
0.278791 0.732613 -0.62093 0.778782 0.620893 0.0893912 0.720716 0.598739 0.349399 
-0.0677614 -0.811167 0.580876 -0.229043 -0.930958 -0.284352 -0.138046 -0.986597 -0.0870028 
-0.275367 -0.960497 -0.0402284 -0.25465 -0.382314 -0.888251 -0.00519047 0.867823 -0.496846 
-0.0689125 0.854305 -0.515183 -0.317204 -0.113509 -0.94154 -0.362461 -0.0803479 -0.928529 
0.913898 0.187171 0.360218 -0.512339 -0.038302 -0.857929 0.00802861 0.506597 -0.862146 
-0.220685 0.934219 -0.280239 -0.354568 0.628126 -0.692632 -0.412036 0.653368 -0.635088 
0.0426886 0.822584 -0.567039 0.206799 0.879843 -0.427914 -0.0768814 0.827193 -0.556634 
0.203824 0.972172 0.115492 -0.124323 -0.982589 -0.138067 -0.312199 0.634467 -0.707095 
-0.00942324 -0.970297 0.241733 0.0830442 -0.858158 0.506624 0.149237 0.877818 -0.455152 
-0.0713424 0.896195 -0.437887 -0.469321 -0.331031 -0.818631 0.272189 0.954355 -0.122966 
-0.516811 -0.186872 -0.835455 -0.296739 0.903396 -0.30955 -0.70191 0.137779 -0.698812 
0.304323 0.862498 -0.404332 -0.535515 0.397838 -0.744949 -0.563214 0.582372 -0.586202 
-0.382324 0.780968 -0.49388 0.579802 0.72491 0.371935 -0.228287 0.96565 -0.124114 
0.428166 0.811587 0.397492 -0.0326295 0.999467 0.000907055 0.210942 0.943552 0.255369 
-0.2071 -0.962055 -0.177651 0.0562484 -0.997936 -0.0309708 -0.641704 -0.437986 -0.629591 
0.362617 -0.344353 0.865985 0.711377 -0.258706 0.653463 -0.491353 -0.218735 -0.843046 
0.0179782 0.934016 -0.356777 0.718754 0.270145 0.640636 0.254651 0.957923 -0.132426 
0.219953 0.958685 -0.180398 0.407346 0.895585 -0.178875 -0.672244 0.524609 -0.522373 
-0.73462 0.477557 -0.481946 0.691895 0.440162 0.57231 0.551547 0.486455 0.677612 
0.00181463 0.956824 -0.290662 0.180722 0.927651 0.326809 0.11203 0.959613 0.258054 
-0.0677911 -0.994736 -0.0768368 -0.312199 0.634467 -0.707095 0.201962 -0.955852 0.213445 
0.19279 -0.947801 0.253979 0.286477 -0.847318 0.447194 0.362488 -0.58833 0.722821 
0.328119 -0.36443 0.871509 0.592824 -0.19607 0.7811 0.0663089 0.983941 -0.16572 
0.567277 0.0262675 0.823108 -0.708747 -0.0714362 -0.701837 0.766979 0.0126046 0.641548 
0.616748 0.247188 0.747342 0.29915 0.944314 0.137039 -0.35577 0.924895 -0.134156 
-0.178308 0.978987 -0.0989473 -0.506684 0.79767 -0.327099 -0.451485 0.798877 -0.397438 
-0.217314 0.957756 -0.188358 -0.302759 0.952632 0.0287869 0.456621 0.582606 0.672359 
0.246449 0.891336 0.380504 0.120396 -0.976102 0.180913 0.246223 -0.916615 0.314947 
0.169041 -0.287207 0.942835 0.336466 -0.195439 0.921192 -0.539865 -0.387936 -0.747028 
0.295081 0.931954 0.210688 -0.790916 0.292454 -0.537515 -0.719422 0.56749 -0.400484 
-0.400287 0.916265 0.0151502 -0.405291 0.892254 -0.199053 0.188451 0.977717 0.0924938 
0.384243 0.603552 0.698629 -0.244879 0.950311 0.192206 -0.333192 0.889587 0.312438 
-0.183998 0.967837 0.17157 -0.0410861 0.916782 0.397269 -0.029798 0.982015 0.186436 
0.184282 0.84434 0.503121 -0.374687 -0.856674 -0.354569 0.161684 -0.0731884 0.984125 
-0.0429903 0.987109 0.154171 0.132684 -0.109741 0.985065 0.0794966 0.00797547 0.996803 
-0.210376 0.977139 -0.0306824 0.254274 -0.0511434 0.965779 -0.779423 0.418417 -0.46629 
0.0269095 0.280288 0.959539 0.2399 0.0731934 0.968034 0.411696 0.0913228 0.906734 
-0.594654 0.790714 -0.145459 -0.366076 0.900762 0.233702 0.310044 0.298814 0.902543 
0.240594 0.217429 0.945959 -0.406213 0.913142 -0.0341027 -0.206753 0.961266 0.182267 
-0.0809365 0.982905 0.16537 -0.228676 0.698432 0.67816 -0.197578 0.921379 0.334699 
-0.173127 0.821038 0.543989 -0.237001 0.82734 0.509254 -0.0820798 0.700625 0.708793 
-0.155037 0.809606 0.566128 0.289421 0.782513 0.551279 -0.057638 0.783125 0.619187 
-0.483566 -0.756904 -0.439614 0.388794 -0.750534 0.534358 0.0792165 -0.0846138 0.99326 
0.0759012 0.966502 0.245178 0.128659 -0.131368 0.982949 0.0803122 0.0686711 0.994401 
-0.811498 0.1543 -0.563616 -0.015053 0.391631 0.919999 0.484799 0.154321 0.860904 
-0.676999 0.709389 -0.196059 -0.0524447 0.323774 0.94468 -0.539459 0.842008 -0.00256863 
-0.220509 0.95412 0.202561 0.0695219 0.971529 0.226493 -0.0010556 0.522905 0.85239 
-0.13339 0.59785 0.790431 -0.139677 0.794494 0.590991 -0.103514 0.650941 0.752037 
0.181821 0.163143 0.969704 -0.0877618 0.643289 0.760577 0.0653186 0.438909 0.896154 
0.0370091 0.665725 0.745279 -0.167007 -0.970939 -0.171425 -0.556948 -0.262387 -0.788012 
0.263245 0.14175 0.954258 0.0255404 0.563225 0.825908 -0.794721 0.541061 -0.275085 
-0.770114 0.502672 -0.39274 -0.0772343 0.780679 0.620142 -0.505996 0.854382 0.118319 
0.163918 0.902269 0.398799 0.0366835 0.238365 0.970483 -0.0326608 0.430486 0.902006 
0.0946331 0.565277 0.819455 0.259149 0.577066 0.774491 -0.261461 -0.951095 -0.164488 
0.122065 -0.986498 0.109186 -0.514666 -0.776122 -0.364353 0.492577 -0.582663 0.64643 
0.68212 -0.269649 0.679708 -0.647192 -0.48244 -0.590249 -0.592206 -0.403306 -0.697593 
-0.696482 -0.420914 -0.581157 -0.694483 -0.16745 -0.699753 -0.773799 0.51161 -0.373483 
-0.553835 0.829354 -0.0737425 -0.238426 0.910747 0.337185 -0.442302 -0.893916 -0.0726786 
-0.604911 -0.766957 -0.214149 0.50871 -0.610588 0.606957 -0.707531 -0.61886 -0.341191 
0.488093 -0.502771 0.713432 -0.793711 0.556971 -0.244552 0.0679816 0.841664 0.535705 
-0.62541 0.779843 0.0265859 -0.626517 0.726281 -0.282829 -0.140117 0.929176 0.342052 
-0.0405471 0.889736 0.454671 -0.521829 0.84754 -0.096806 -0.159066 -0.959245 0.233551 
0.0794638 -0.968057 0.237804 0.0320675 -0.868058 0.495427 -0.252439 -0.95549 0.152687 
0.352191 -0.814479 0.46107 0.503749 -0.642695 0.577217 -0.648334 -0.760939 -0.0251971 
-0.74193 -0.663289 0.097918 -0.773713 -0.613555 -0.157855 -0.732792 -0.599563 -0.321778 
-0.746329 -0.518288 -0.417577 0.522409 -0.107 0.845955 0.370376 0.265555 0.890114 
0.179242 0.541499 0.821372 -0.816166 0.165445 -0.553626 -0.742106 0.669844 0.0242494 
-0.389034 0.897979 0.205635 -0.381721 -0.863908 0.32856 -0.194569 -0.871863 0.449441 
0.135731 -0.764633 0.630011 -0.319092 -0.903772 0.285265 -0.588777 -0.806088 -0.059693 
-0.611082 -0.737409 0.287761 0.437743 -0.319327 0.840482 -0.713661 -0.667635 -0.212016 
0.274086 0.75291 0.598334 -0.358992 0.9028 0.236805 -0.0647659 0.914582 0.399181 
-0.0341099 -0.796271 0.603977 -0.532837 -0.73624 0.417176 -0.219926 -0.818663 0.530494 
-0.57628 -0.711236 0.402547 -0.664819 -0.679767 -0.309729 -0.742111 -0.310228 -0.594163 
-0.835487 -0.0961184 -0.541038 -0.843781 0.471015 -0.257251 -0.515948 0.849231 0.112273 
0.0880274 0.903515 0.419418 0.508883 -0.370461 0.777043 -0.135148 -0.711342 0.68973 
-0.270548 -0.633097 0.725253 -0.220816 -0.57209 0.789907 0.103347 -0.570256 0.81494 
0.309837 -0.398453 0.86327 0.250311 -0.329131 0.910504 -0.673021 -0.705731 -0.221327 
-0.678919 -0.725996 -0.109539 0.238749 0.748681 0.618446 -0.23628 -0.515364 0.823755 
-0.0437683 -0.481621 0.875286 -0.437359 -0.778981 0.449338 0.173251 -0.271864 0.946612 
-0.478942 -0.85716 0.189451 -0.845665 -0.420979 -0.328067 -0.960445 -0.266985 -0.0791506 
-0.931953 0.0788455 -0.353904 -0.830211 0.546898 0.107947 -0.137243 0.896002 0.422309 
-0.205485 0.88259 0.422861 -0.0591893 -0.413424 0.908613 -0.0871463 -0.493792 0.865202 
0.131326 -0.217169 0.96726 -0.755811 -0.647284 0.098864 0.398896 0.0294774 0.916522 
0.460685 0.41483 0.784656 0.373952 0.526725 0.763361 0.289441 0.569351 0.769456 
-0.760999 0.592891 0.263365 0.04016 -0.545195 0.837346 -0.302888 -0.723803 0.619974 
-0.820335 -0.498988 0.279396 -0.40036 -0.390252 0.829105 -0.471116 -0.69448 0.543827 
-0.177746 -0.597251 0.782111 0.141166 -0.235187 0.961644 0.498348 0.00156134 0.866976 
-0.452083 -0.564735 0.690431 -0.974894 0.202778 0.0919946 0.11106 0.667777 0.736029 
-0.508359 0.782687 0.359126 -0.246954 0.872407 0.421806 -0.154451 0.785586 0.599165 
-0.867016 -0.197829 0.457326 -0.869131 -0.142352 0.473652 0.312119 0.227259 0.922461 
-0.725249 0.534219 0.434309 -0.583491 0.641772 0.497662 -0.506425 -0.35542 0.785628 
0.0445572 -0.29643 0.954015 0.223642 -0.214496 0.950777 -0.817298 0.0165459 0.575978 
-0.835421 0.22761 0.500266 0.271127 0.150026 0.95078 0.0929976 0.14583 0.984929 
-0.493317 0.581137 0.647238 -0.242764 0.610843 0.753616 -0.0696509 0.455994 0.887253 
-0.676552 -0.0636782 0.733636 -0.431939 -0.146886 0.889861 -0.0200301 -0.164386 0.986193 
-0.278191 -0.0301266 0.960053 -0.495256 -0.0585835 0.86677 -0.243916 0.194379 0.950117 
-0.587909 0.559497 0.584231 -0.256233 -0.322229 0.911325 -0.611442 0.150205 0.776902 
-0.264916 -0.221907 -0.938391 -0.608265 -0.362384 -0.706181 -0.86655 -0.174645 -0.467537 
-0.05927 -0.179165 -0.982032 0.130502 -0.241341 -0.961626 -0.607313 0.1619 -0.777791 
-0.871744 0.0479037 -0.487615 -0.242201 0.0469436 -0.96909 0.133884 0.191903 -0.972239 
-0.280507 0.427913 -0.85919 -0.181605 0.110546 -0.977138 -0.0959289 0.0124565 -0.99531 
-0.145461 -0.623278 -0.768352 -0.661156 -0.65825 -0.359971 -0.479717 -0.495629 -0.724033 
-0.293052 -0.503419 -0.812829 -0.781089 -0.411903 -0.469293 0.287592 -0.220179 -0.932101 
0.383441 0.0964818 -0.918512 -0.597628 0.212627 -0.773065 0.0892398 0.266733 -0.95963 
-0.662124 0.363248 -0.655472 -0.0182179 0.450275 -0.892704 -0.65411 0.526435 -0.543145 
0.205734 -0.328242 -0.921917 0.111185 -0.546004 -0.830372 -0.848993 -0.431576 -0.304881 
0.228897 -0.32611 -0.917202 -0.818688 0.256396 -0.51382 -0.89019 0.309187 -0.334613 
-0.436173 0.479401 -0.76153 0.0309479 0.543649 -0.838742 -0.59422 0.673002 -0.440421 
-0.741527 0.613025 -0.27265 -0.257565 0.701309 -0.6647 0.239005 0.479588 -0.844317 
-0.201754 -0.742933 -0.638236 0.0220803 -0.564766 -0.824955 0.0475437 -0.512941 -0.857106 
-0.366243 -0.798233 -0.478216 -0.0468352 -0.648116 -0.7601 -0.709685 -0.684476 -0.166849 
-0.492139 -0.77116 -0.40387 -0.910492 -0.386782 -0.146298 0.309213 -0.148771 -0.939284 
-0.988141 0.00732802 -0.153377 -0.0380465 0.736571 -0.67529 -0.599891 0.746165 -0.288737 