# vtk DataFile Version 4.2
vtk output
ASCII
DATASET POLYDATA
POINTS 1288 float
475.168 263.121 147.165 475.472 263.003 147.274 475.172 263.31 147.128 
475.365 263.482 147.165 476.767 262.219 148.037 477.88 262.59 148.023 
478.025 262.345 148.238 469.223 263.413 147.896 471.209 263.191 147.724 
470.768 262.85 148.009 466.573 263.691 148.272 470.694 263.675 147.63 
472.773 263.462 147.454 477.405 263.399 147.626 478.783 263.283 148.054 
479.289 263.212 148.277 465.515 264.085 148.548 465.46 263.99 148.648 
466.254 264.273 148.201 468.378 264.284 147.776 472.257 264.032 147.472 
477.91 263.797 147.746 467.489 264.7 147.918 467.987 264.662 147.847 
474.394 264.918 147.585 476.875 261.991 148.188 476.812 261.944 148.203 
469.713 262.6 148.508 477.157 261.957 148.409 478.439 262.168 148.632 
466.785 263.203 148.803 467.278 263.375 148.305 478.81 262.376 148.599 
480.032 262.872 148.873 464.816 264.327 149.18 465.278 264.65 148.651 
465.933 264.863 148.406 477.471 264.588 147.766 467.712 265.801 148.477 
477.293 261.808 148.673 477.207 261.763 148.709 477.1 261.803 148.635 
470.91 262.079 149.167 476.691 261.831 148.702 477.652 261.856 148.893 
478.308 262.002 148.892 480.715 262.335 149.689 465.096 263.915 149.421 
465.753 263.537 149.654 480.756 263.43 149.032 464.381 264.765 149.65 
482.538 263.741 149.872 464.672 264.838 149.132 464.509 264.919 149.29 
464.989 264.908 148.914 481.023 264.22 149.134 465.043 265.546 149.271 
465.748 265.513 148.873 473.132 265.954 148.094 479.203 265.53 148.815 
485.948 258.677 150.841 488.735 258.768 150.591 489.872 258.301 150.858 
489.164 259.202 150.485 490.688 258.64 150.784 492.573 259.366 151.105 
489.592 259.723 150.465 490.501 259.579 150.564 468.373 262.46 149.554 
478.67 261.844 149.644 484.096 261.084 150.466 484.827 261.481 150.446 
481.329 261.911 150.253 482.438 262.413 150.107 482.673 264.879 150.163 
464.33 265.223 149.675 464.335 265.438 149.843 466.466 266.419 149.538 
485.799 257.63 151.688 488.712 257.866 151.08 490.993 258.359 151.002 
492.741 259.98 151.109 478.28 261.756 149.834 490.033 260.524 150.587 
479.506 261.76 150.462 481.641 260.644 151.393 482.451 261.439 150.542 
480.673 261.461 150.944 464.179 264.89 150.405 464.253 264.834 150.638 
464.53 264.644 150.85 464.135 265.065 150.701 464.14 265.353 150.306 
471.817 267.745 149.901 479.406 267.289 150.333 480.898 266.694 150.333 
467.718 267.688 151.04 487.798 257.026 151.884 495.676 258.441 152.686 
497.488 259.276 153.008 470.125 262.074 150.621 495.984 260.897 152.219 
480.6 261.077 151.813 485.447 262.791 150.729 493.484 261.561 151.629 
486.622 263.35 151.284 464.107 265.287 150.907 467.658 267.878 151.527 
490.19 256.247 152.793 484.644 257.188 152.692 486.71 256.491 153.057 
490.638 256.282 153.023 492.725 256.987 152.84 495.948 258.154 152.931 
495.93 258.07 152.95 495.723 258.066 152.915 496.046 258.095 153.01 
482.474 258.183 153.117 496.304 258.185 153.211 498.006 259.131 153.373 
497.915 258.922 153.529 481.505 259.506 152.802 477.373 261.693 150.921 
481.225 260.012 152.638 499.549 260.873 153.726 472.245 262.041 151.67 
478.898 261.697 151.774 497.084 261.865 152.778 485.632 263.832 151.237 
493.222 263.205 152.509 464.106 265.442 150.869 465.977 267.211 151.869 
483.552 257.141 153.815 495.082 257.631 153.205 495.951 258.036 153.04 
497.829 258.633 153.894 500.837 261.244 154.75 480.256 261.027 152.947 
467.679 263.529 152.766 479.809 261.411 152.62 464.917 265.182 152.457 
479.754 261.451 152.844 486.041 264.674 151.983 485.984 264.804 152.107 
486.844 265.258 153.517 464.411 265.819 151.802 464.531 265.711 152.079 
465.63 266.947 152.46 467.104 267.884 152.53 467.689 268.186 152.611 
468.167 268.434 153.017 470.09 269.19 153.709 475.986 269.604 153.404 
492.384 256.242 154.144 480.657 260.05 154.473 479.936 261.571 154.493 
501.463 262.09 155.293 471.244 262.903 153.423 499.875 262.665 154.304 
486.06 264.676 152 496.502 264.023 153.808 464.888 265.582 152.744 
486.65 265.715 154.545 464.983 265.775 152.917 464.776 265.758 152.568 
486.372 265.878 154.602 486.114 266.164 154.45 497.482 264.629 154.556 
479.698 269.193 153.633 478.442 269.635 154.47 481.775 258.267 155.277 
497.426 257.897 155.264 501.42 260.422 155.88 501.615 260.644 155.969 
501.887 261.031 156.11 480.474 261.023 155.683 502.417 262.143 156.327 
476.732 262.923 154.358 478.958 262.654 154.852 480.131 262.217 155.713 
466.263 264.996 153.735 500.216 263.698 155.011 501.528 263.631 155.769 
465.526 265.583 153.502 486.288 265.902 155.204 486.598 265.88 154.734 
486.367 265.919 155.099 486.252 265.97 155.144 487.033 265.887 155.119 
486.144 266.252 155.06 485.708 266.598 154.9 485.428 267.004 154.81 
485.367 267.181 154.797 465.649 266.707 153.253 466.18 266.935 153.854 
485.317 267.246 154.743 484.619 267.546 154.337 468.316 268.518 154.196 
483.428 268.185 154.52 484.451 267.692 154.621 477.724 269.737 155.089 
484.728 256.192 156.296 494.033 256.364 156.627 501.564 260.439 156.146 
480.673 260.035 155.606 469.486 263.913 154.46 480.372 263.247 156.554 
502.901 263.555 156.814 481.752 264.4 157.445 485.928 265.983 155.828 
486.302 265.959 155.615 485.978 266.081 155.54 486.218 266.087 155.41 
486.555 265.916 156.04 485.673 266.27 155.657 496.781 265.754 155.543 
485.595 266.494 155.417 485.342 267.171 154.88 485.211 267.191 155.032 
484.99 267.399 154.927 484.672 267.59 154.869 467.737 268.037 154.744 
483.77 268.012 155.091 482.345 268.575 154.989 482.851 257.394 157.377 
481.11 259.512 156.569 501.526 260.301 156.425 471.807 264.126 155.336 
481.279 262.092 157.559 479.431 263.927 156.347 467.863 265.596 155.271 
503.823 264.839 157.859 467.965 265.851 155.444 483.173 265.106 157.585 
483.291 265.772 157.15 485.344 266.085 156.276 485.675 265.761 156.875 
503.136 265.723 157.829 504.778 265.2 158.611 467.066 266.783 155.04 
502.363 266.177 157.731 466.752 267.024 154.64 496.089 267.405 157.575 
467.522 267.546 155.136 467.913 267.884 155.319 484.314 267.666 155.317 
468.757 268.46 155.483 483.373 268.172 155.189 470.463 269.12 155.616 
474.212 269.575 156.27 480.53 268.973 155.618 482.28 268.447 155.452 
471.364 269.446 155.689 474.866 269.681 156.112 477.986 269.513 155.946 
486.672 255.549 157.929 490.447 255.451 157.527 481.659 258.656 157.044 
481.21 261.211 157.619 468.502 265.844 155.7 470.797 265.74 156.407 
474.101 265.172 156.578 468.825 266.223 155.982 469.953 266.184 156.381 
480.379 266.094 157.173 484.229 265.344 157.547 484.55 265.995 156.754 
485.126 265.21 158.078 467.861 266.859 155.567 469.148 266.587 156.206 
483.773 266.488 156.603 490.817 266.829 157.686 467.453 267.258 155.254 
483.746 267.201 156.191 468.43 268.011 155.644 484.095 267.631 155.559 
481.174 268.446 156.122 469.443 268.627 155.784 481.41 260.287 157.897 
482.507 263.272 158.5 471.254 266.175 156.725 472.862 266.481 157.107 
475.682 266.012 157.137 487.548 265.94 158.987 468.504 267.212 155.901 
471.3 267.066 156.983 469.92 267.598 156.498 470.722 267.498 156.816 
471.866 267.458 157.163 479.213 267.715 157.214 471.308 267.943 156.949 
478.998 268.087 157.13 480.598 267.729 156.84 471.644 268.527 156.815 
474.156 269.11 156.871 478.152 268.719 156.937 476.191 268.826 157.179 
476.345 269.119 156.888 482.217 258.993 158.774 481.668 260.466 158.395 
482.286 261.847 159.084 485.496 264.423 160.031 507.546 265.713 161.292 
475.137 267.264 157.459 472.645 267.999 157.267 472.452 268.291 157.138 
474.636 268.307 157.361 476.406 268.083 157.454 498.307 269.179 160.045 
485.742 256.537 159.831 483.992 257.5 159.649 483.16 258.781 159.839 
505.5 261.968 161.416 507.587 264.297 161.672 486.694 265.161 160.534 
507.636 267.537 161.829 492.777 256.73 161.105 483.853 261.724 160.684 
484.289 262.495 160.716 484.839 263.601 160.4 509.2 265.091 163.098 
509.199 267.843 163.361 490.215 257.306 162.497 484.716 259.489 161.411 
485.1 260.649 161.922 487.136 264.714 163.247 510.967 266.351 164.699 
510.192 267.439 164.089 489.643 268.004 162.815 492.059 257.566 163.157 
485.942 258.965 162.16 487.198 259.305 163.246 486.492 261.688 163.346 
486.759 263.372 163.558 488.09 266.511 163.936 491.063 269.616 163.979 
491.818 258.14 164.279 488.234 259.54 164.204 487.249 261.172 164.232 
487.798 261.13 165.087 487.214 263.031 164.92 510.516 264.29 164.836 
511.204 265.002 165.169 511.664 265.316 165.559 512.209 265.813 166.089 
511.414 267.743 165.575 489.771 259.888 166.358 488.478 261.03 166.345 
487.362 263.426 166.13 511.986 264.358 166.28 513.101 266.368 167.105 
511.465 268.196 165.994 512.32 267.734 166.716 490.767 270.253 165.496 
510.427 269.373 166.223 492.335 271.503 166.184 492.775 259.144 167.623 
488.22 261.527 166.755 487.367 263.291 167.017 487.383 263.011 167.677 
509.057 270.948 167.451 495.88 272.889 166.872 505.356 259.591 168.179 
487.066 263.576 168.166 487.172 267.407 168.261 514.035 266.849 168.548 
494.25 272.912 167.66 504.067 273.224 168.521 488.83 261.015 169.113 
511.834 261.587 168.832 515.027 263.577 170.014 513.142 268.491 168.933 
514.093 267.512 169.271 513.88 261.695 170.697 488.12 261.176 170.483 
515.684 264.489 170.566 511.344 259.951 171.85 486.121 262.916 170.778 
485.435 267.839 171.715 510.833 259.657 172.622 484.349 263.282 172.852 
516.862 263.437 172.898 517.135 264.225 173.113 516.82 265.062 172.631 
488.109 271.318 171.798 489.779 272.482 171.54 503.853 274.332 172.001 
489.009 259.784 172.784 516.973 263.136 173.391 517.505 264.438 174.065 
516.832 265.667 173.088 516.87 265.838 173.461 514.179 268.906 172.621 
492.589 274.276 173.566 484.134 260.316 174.853 485.404 260.097 174.235 
483.561 261.735 174.479 516.414 262.353 173.459 482.836 262.605 174.948 
482.693 263.138 175.078 517.589 263.77 174.492 517.608 264.186 174.43 
483.008 265.218 174.772 484.704 268.902 174.338 504.092 274.444 173.585 
483.464 259.297 175.912 512.424 259.91 175.061 487.891 259.026 174.555 
[...]
POINT_DATA 1288
SCALARS scalars float
LOOKUP_TABLE default
1 1 1 1 1 1 1 1 1 
1 1 1 1 1 1 1 1 1 
1 1 1 1 1 1 1 1 1 
1 1 1 1 1 1 1 1 1 
1 1 1 1 1 1 1 1 1 
1 1 1 1 1 1 1 1 1 
1 1 1 1 1 1 1 1 1 
1 1 1 1 1 1 1 1 1 
1 1 1 1 1 1 1 1 1 
1 1 1 1 1 1 1 1 1 
1 1 1 1 1 1 1 1 1 
1 1 1 1 1 1 1 1 1 
1 1 1 1 1 1 1 1 1 
1 1 1 1 1 1 1 1 1 
1 1 1 1 1 1 1 1 1 
1 1 1 1 1 1 1 1 1 
1 1 1 1 1 1 1 1 1 
1 1 1 1 1 1 1 1 1 
1 1 1 1 1 1 1 1 1 
1 1 1 1 1 1 1 1 1 
1 1 1 1 1 1 1 1 1 
1 1 1 1 1 1 1 1 1 
1 1 1 1 1 1 1 1 1 
1 1 1 1 1 1 1 1 1 
1 1 1 1 1 1 1 1 1 
1 1 1 1 1 1 1 1 1 
1 1 1 1 1 1 1 1 1 
1 1 1 1 1 1 1 1 1 
1 1 1 1 1 1 1 1 1 
1 1 1 1 1 1 1 1 1 
1 1 1 1 1 1 1 1 1 
1 1 1 1 1 1 1 1 1 
1 1 1 1 1 1 1 1 1 
1 1 1 1 1 1 1 1 1 
1 1 1 1 1 1 1 1 1 
1 1 1 1 1 1 1 1 1 
1 1 1 1 1 1 1 1 1 
1 1 1 1 1 1 1 1 1 
1 1 1 1 1 1 1 1 1 
1 1 1 1 1 1 1 1 1 
1 1 1 1 1 1 1 1 1 
1 1 1 1 1 1 1 1 1 
1 1 1 1 1 1 1 1 1 
1 1 1 1 1 1 1 1 1 
1 1 1 1 1 1 1 1 1 
1 1 1 1 1 1 1 1 1 
1 1 1 1 1 1 1 1 1 
1 1 1 1 1 1 1 1 1 
1 1 1 1 1 1 1 1 1 
1 1 1 1 1 1 1 1 1 
1 1 1 1 1 1 1 1 1 
1 1 1 1 1 1 1 1 1 
1 1 1 1 1 1 1 1 1 
1 1 1 1 1 1 1 1 1 
1 1 1 1 1 1 1 1 1 
1 1 1 1 1 1 1 1 1 
1 1 1 1 1 1 1 1 1 
1 1 1 1 1 1 1 1 1 
1 1 1 1 1 1 1 1 1 
1 1 1 1 1 1 1 1 1 
1 1 1 1 1 1 1 1 1 
1 1 1 1 1 1 1 1 1 
1 1 1 1 1 1 1 1 1 
1 1 1 1 1 1 1 1 1 
1 1 1 1 1 1 1 1 1 
1 1 1 1 1 1 1 1 1 
1 1 1 1 1 1 1 1 1 
1 1 1 1 1 1 1 1 1 
1 1 1 1 1 1 1 1 1 
1 1 1 1 1 1 1 1 1 
1 1 1 1 1 1 1 1 1 
1 1 1 1 1 1 1 1 1 
1 1 1 1 1 1 1 1 1 
1 1 1 1 1 1 1 1 1 
1 1 1 1 1 1 1 1 1 
1 1 1 1 1 1 1 1 1 
1 1 1 1 1 1 1 1 1 
1 1 1 1 1 1 1 1 1 
1 1 1 1 1 1 1 1 1 
1 1 1 1 1 1 1 1 1 
1 1 1 1 1 1 1 1 1 
1 1 1 1 1 1 1 1 1 
1 1 1 1 1 1 1 1 1 
1 1 1 1 1 1 1 1 1 
1 1 1 1 1 1 1 1 1 
1 1 1 1 1 1 1 1 1 
1 1 1 1 1 1 1 1 1 
1 1 1 1 1 1 1 1 1 
1 1 1 1 1 1 1 1 1 
1 1 1 1 1 1 1 1 1 
1 1 1 1 1 1 1 1 1 
1 1 1 1 1 1 1 1 1 
1 1 1 1 1 1 1 1 1 
1 1 1 1 1 1 1 1 1 
1 1 1 1 1 1 1 1 1 
1 1 1 1 1 1 1 1 1 
1 1 1 1 1 1 1 1 1 
1 1 1 1 1 1 1 1 1 
1 1 1 1 1 1 1 1 1 
1 1 1 1 1 1 1 1 1 
1 1 1 1 1 1 1 1 1 
1 1 1 1 1 1 1 1 1 
1 1 1 1 1 1 1 1 1 
1 1 1 1 1 1 1 1 1 
1 1 1 1 1 1 1 1 1 
1 1 1 1 1 1 1 1 1 
1 1 1 1 1 1 1 1 1 
1 1 1 1 1 1 1 1 1 
1 1 1 1 1 1 1 1 1 
1 1 1 1 1 1 1 1 1 
1 1 1 1 1 1 1 1 1 
1 1 1 1 1 1 1 1 1 
1 1 1 1 1 1 1 1 1 
1 1 1 1 1 1 1 1 1 
1 1 1 1 1 1 1 1 1 
1 1 1 1 1 1 1 1 1 
1 1 1 1 1 1 1 1 1 
1 1 1 1 1 1 1 1 1 
1 1 1 1 1 1 1 1 1 
1 1 1 1 1 1 1 1 1 
1 1 1 1 1 1 1 1 1 
1 1 1 1 1 1 1 1 1 
1 1 1 1 1 1 1 1 1 
1 1 1 1 1 1 1 1 1 
1 1 1 1 1 1 1 1 1 
1 1 1 1 1 1 1 1 1 
1 1 1 1 1 1 1 1 1 
1 1 1 1 1 1 1 1 1 
1 1 1 1 1 1 1 1 1 
1 1 1 1 1 1 1 1 1 
1 1 1 1 1 1 1 1 1 
1 1 1 1 1 1 1 1 1 
1 1 1 1 1 1 1 1 1 
1 1 1 1 1 1 1 1 1 
1 1 1 1 1 1 1 1 1 
1 1 1 1 1 1 1 1 1 
1 1 1 1 1 1 1 1 1 
1 1 1 1 1 1 1 1 1 
1 1 1 1 1 1 1 1 1 
1 1 1 1 1 1 1 1 1 
1 1 1 1 1 1 1 1 1 
1 1 1 1 1 1 1 1 1 
1 1 1 1 1 1 1 1 1 
1 
NORMALS Normals float
0.00722639 -0.412595 -0.910886 0.157017 -0.439033 -0.884644 0.0310886 -0.116559 -0.992697 
0.115999 0.151423 -0.981639 0.177255 -0.519995 -0.835575 0.243998 -0.441692 -0.86335 
0.263491 -0.701518 -0.662152 -0.168923 -0.236281 -0.956889 -0.118204 -0.355798 -0.927058 
-0.0528274 -0.637579 -0.768571 -0.307385 -0.526792 -0.792468 -0.20522 -0.208533 -0.956242 
-0.0680891 -0.0112092 -0.997616 0.227155 -0.170993 -0.958729 0.351056 -0.305699 -0.885046 
0.425363 -0.202296 -0.882124 -0.506985 -0.208283 -0.836412 -0.540051 -0.642901 -0.543161 
-0.247402 -0.0890289 -0.964814 -0.0658336 0.0357643 -0.997189 -0.0961395 0.189418 -0.977179 
0.337673 0.0684876 -0.938769 -0.194309 0.118064 -0.97381 0.0458492 0.361528 -0.931233 
0.117993 0.486517 -0.865667 0.390326 -0.497711 -0.774551 0.0506261 -0.843979 -0.533982 
-0.177751 -0.802016 -0.570242 0.254765 -0.745275 -0.616166 0.297519 -0.814042 -0.498816 
-0.412269 -0.899132 -0.146957 -0.197191 -0.548154 -0.8128 0.382922 -0.71195 -0.58864 
0.371711 -0.503364 -0.780036 -0.73406 -0.347914 -0.583191 -0.517822 0.196609 -0.83259 
-0.300188 0.356947 -0.884577 0.149289 0.30101 -0.941863 -0.0830687 0.58786 -0.804686 
0.265879 -0.802475 -0.534174 0.10982 -0.944337 -0.310107 -0.00224086 -0.849165 -0.528123 
0.110907 -0.937245 -0.330563 -0.0817032 -0.976616 -0.198861 0.300568 -0.85744 -0.417679 
0.244953 -0.895566 -0.37143 0.200315 -0.672 -0.712945 -0.635996 -0.762817 -0.116703 
-0.42643 -0.897729 0.110636 0.3697 -0.249899 -0.894915 -0.894728 -0.359698 -0.264726 
0.701324 -0.0441051 -0.711477 -0.640174 -0.0670162 -0.765301 -0.785298 0.120654 -0.607248 
-0.566131 0.189984 -0.802123 0.412412 0.0606746 -0.908975 -0.450139 0.579275 -0.67957 
-0.300833 0.557771 -0.773557 0.0594925 0.575632 -0.815542 0.302388 0.465792 -0.831624 
-0.19328 -0.417975 -0.887659 -0.0188983 -0.39042 -0.920443 0.0985042 -0.48288 -0.870129 
-0.00642924 -0.0934063 -0.995607 0.190393 -0.311203 -0.931076 0.400528 -0.15915 -0.902357 
-0.0318562 0.0042059 -0.999484 0.13553 -0.088846 -0.986782 -0.313599 -0.942171 -0.118198 
0.193572 -0.967061 -0.165295 -0.0338674 -0.0979052 -0.994619 -0.042604 -0.000273315 -0.999092 
-0.0136098 -0.696853 -0.717085 0.3313 -0.290668 -0.897637 0.465826 0.302666 -0.831504 
-0.870614 0.200396 -0.449303 -0.638332 0.692779 -0.335544 -0.29238 0.767717 -0.570197 
-0.216408 -0.65011 -0.728371 0.0316299 -0.561314 -0.826998 0.217648 -0.44951 -0.866355 
0.346828 -0.0685332 -0.935422 0.136439 -0.986389 -0.0917692 0.0577944 0.262667 -0.963154 
0.0423819 -0.907919 -0.416997 -0.389969 -0.658681 -0.643477 -0.120697 -0.454874 -0.882339 
-0.205232 -0.828827 -0.520504 -0.892072 -0.449806 -0.0433765 -0.742047 -0.635043 0.214678 
-0.644318 -0.690573 0.328577 -0.924187 -0.33359 0.185998 -0.967179 0.089312 -0.237883 
0.0228887 0.835722 -0.548675 0.158239 0.71417 -0.681852 0.343706 0.636722 -0.690255 
-0.195836 0.892964 -0.405294 -0.0350253 -0.765523 -0.642455 0.296594 -0.429975 -0.852733 
0.373047 -0.41705 -0.828797 -0.270286 -0.941407 0.201736 0.336878 -0.019381 -0.941349 
-0.500423 -0.81987 -0.27819 0.151642 0.219388 -0.963781 0.327172 0.260192 -0.908437 
0.267678 0.527148 -0.806513 -0.909966 -0.266391 0.3178 -0.193821 0.92617 -0.323486 
0.106741 -0.802817 -0.586594 -0.280259 -0.862619 -0.421121 -0.149249 -0.941659 -0.301667 
0.0800584 -0.977892 -0.19318 0.308312 -0.787859 -0.533125 0.443404 -0.237096 -0.864395 
0.308518 -0.638928 -0.70469 0.148726 -0.623376 -0.767648 0.545733 -0.563986 -0.619754 
-0.563826 -0.689768 -0.454225 0.539346 -0.627149 -0.561952 0.667389 -0.594975 -0.447879 
0.439455 -0.710331 -0.549826 -0.740539 -0.595765 -0.310911 -0.00720616 -0.985868 0.167369 
-0.767478 -0.619758 -0.163946 0.525286 -0.0772472 -0.847412 -0.0142088 -0.995763 0.0908472 
-0.232905 -0.972057 0.0293261 0.356891 0.297116 -0.885636 0.334247 0.482913 -0.809367 
0.135845 0.670622 -0.729254 -0.962217 0.267015 -0.0533127 -0.502111 0.863532 -0.0468789 
-0.485897 -0.844285 -0.226022 0.303759 -0.843094 -0.443759 0.325265 -0.881558 -0.342137 
0.597359 -0.717135 -0.358997 0.64704 -0.0549748 -0.760472 -0.753278 -0.653075 -0.0778867 
-0.368575 -0.847857 0.38117 -0.558684 -0.828912 -0.0278624 -0.739232 -0.489285 0.462748 
-0.511852 -0.846347 0.147321 0.336422 0.617412 -0.711071 0.397505 0.670768 -0.626147 
0.439345 0.803439 -0.401823 -0.942406 0.195427 0.27144 -0.914204 0.00818098 0.405173 
-0.591291 0.802597 0.0788231 -0.498883 0.855294 -0.139957 -0.2375 0.961184 -0.140424 
-0.305801 0.924374 -0.228075 -0.283129 0.958669 -0.0281362 -0.00934753 0.956688 -0.290967 
0.281109 -0.923593 -0.260681 -0.862894 -0.505332 0.00739172 -0.805039 -0.5579 0.201644 
0.655215 0.0488209 -0.753863 -0.130269 -0.88649 0.444033 0.454679 0.320099 -0.831146 
0.493844 0.59174 -0.637152 0.098468 0.637515 -0.76412 -0.743174 -0.327882 0.583254 
0.144993 0.907168 -0.394998 -0.750246 -0.145889 0.644862 -0.895779 0.0585134 0.440631 
0.833727 0.211977 -0.509867 0.739927 0.618467 -0.264586 0.283223 0.579784 -0.76396 
0.251027 0.926561 -0.280126 0.17669 0.974761 -0.136458 -0.728901 -0.680548 -0.0745454 
0.603449 -0.788832 -0.11659 0.635774 -0.438855 -0.634978 0.831521 -0.312684 -0.459131 
0.783599 -0.325538 -0.529149 -0.919136 -0.217111 0.328714 0.865319 -0.130648 -0.483895 
-0.211652 -0.850304 0.481858 -0.509987 -0.68087 0.52567 -0.761578 -0.410294 0.501655 
-0.54234 -0.644183 0.539347 0.42691 0.531365 -0.73171 0.49349 0.364453 -0.78971 
-0.658229 -0.329735 0.676764 0.23723 0.971171 0.0234431 0.284778 0.169195 -0.943544 
-0.690983 0.58708 -0.421759 0.668581 0.722691 0.175265 0.287872 0.925174 -0.247351 
0.502305 0.855922 0.12283 0.679273 0.656131 0.328756 0.828582 0.396072 0.395699 
0.874042 0.483636 0.0463191 -0.719548 0.5541 0.418597 -0.736016 0.52697 0.42495 
0.679726 0.729326 0.0778233 0.421723 0.856995 -0.296158 -0.499569 0.851959 0.156832 
0.383515 0.903006 -0.193642 0.420546 0.903796 -0.0793357 0.0692246 0.987586 0.141006 
-0.456461 -0.88972 0.00648212 0.347783 -0.93377 -0.08438 0.733579 -0.638439 -0.232932 
-0.931638 -0.312168 0.186015 -0.246714 -0.735871 0.630575 -0.681345 -0.199245 0.704323 
0.768 -0.000497448 -0.64045 -0.399917 0.0821665 0.912861 0.346872 0.907136 0.238293 
-0.58926 0.804199 0.0776961 0.718616 0.351102 0.600265 0.125953 0.399603 0.907994 
-0.151645 0.978488 0.139874 0.526564 0.640318 0.559216 0.152454 0.754724 -0.638083 
0.500422 0.716042 0.486684 0.744625 0.522075 0.415898 0.611291 0.645386 0.45804 
0.486383 0.856385 0.173308 0.432077 0.862296 0.264112 -0.564879 0.796424 0.215917 
0.39966 0.910612 0.105153 0.298006 0.935846 0.188108 -0.701159 -0.7061 0.0989929 
-0.881943 -0.463434 0.0860504 0.68289 -0.702103 -0.201774 -0.0559446 -0.785713 0.616056 
-0.813217 0.0786906 0.576616 -0.310692 -0.474315 0.823709 -0.449953 -0.49026 0.74645 
0.465001 0.281668 -0.839308 -0.394025 -0.376177 0.838591 -0.119004 0.518126 0.846985 
0.134004 0.570888 0.810018 0.347897 0.832278 0.431602 0.00574124 0.943616 0.330992 
0.409166 0.411117 -0.814596 0.557888 0.405374 -0.724178 -0.666526 0.0278552 0.744961 
0.354776 0.567912 -0.742705 -0.746044 0.291618 0.598646 0.000875319 0.811687 -0.584092 
-0.63937 0.470597 0.608066 -0.600563 0.503648 0.621018 0.468773 0.805686 0.362109 
-0.471657 0.814141 0.338695 0.338086 0.873076 0.351334 -0.247236 0.882739 0.399558 
-0.135654 0.827317 0.54511 0.246226 0.883197 0.399168 0.315931 0.874438 0.368165 
-0.186091 0.937856 0.29291 -0.00866748 0.950852 0.309523 0.217391 0.885718 0.410176 
-0.15493 -0.987599 0.0253972 0.0932137 -0.993303 0.0682607 -0.838104 -0.492081 0.235454 
-0.897076 -0.0592779 0.437882 -0.353889 -0.36849 0.859638 -0.217602 -0.554204 0.803435 
0.0478224 -0.646525 0.761392 -0.388751 -0.296009 0.872497 -0.29083 -0.395777 0.871079 
0.0623305 0.0439776 0.997086 -0.0407274 0.785523 0.61749 0.173085 0.774167 0.608857 
-0.351728 0.8469 0.398807 -0.502848 0.122448 0.855658 -0.353153 -0.00930191 0.935519 
0.370885 0.538639 0.756513 -0.17688 0.927543 -0.329207 -0.553027 0.311527 0.77273 
0.356149 0.629024 0.691004 -0.493603 0.497343 0.713447 0.45796 0.676315 0.57695 
0.232426 0.783697 0.576018 -0.386475 0.713089 0.584929 -0.847588 -0.151095 0.508689 
-0.457732 0.337201 0.822664 -0.23353 -0.3425 0.910032 -0.112131 -0.278111 0.953982 
0.0390964 -0.539237 0.841246 -0.370412 0.927357 0.0529486 -0.419394 0.0878507 0.903544 
-0.271488 -0.128637 0.953806 -0.357452 0.122089 0.925917 -0.397782 0.0725178 0.91461 
-0.211256 0.0792168 0.974215 0.237475 0.308388 0.921142 -0.312747 0.214009 0.925413 
0.327464 0.545229 0.771682 0.187709 0.488717 0.85201 -0.267507 0.518297 0.812286 
-0.0742257 0.641854 0.763226 0.153937 0.548136 0.822101 0.0218416 0.54808 0.83614 
0.0225578 0.792781 0.609089 -0.777898 -0.430462 0.457796 -0.81232 -0.103419 0.573969 
-0.598249 0.299498 0.743236 -0.504566 0.672971 0.540854 0.751805 0.10187 -0.651469 
-0.0507173 -0.163511 0.985237 -0.107661 0.17764 0.978189 -0.186904 0.597543 0.779749 
-0.0797016 0.308238 0.947964 0.0630902 0.129514 0.989568 0.0712049 0.793675 -0.60416 
-0.373103 -0.822718 0.428869 -0.538202 -0.661519 0.522237 -0.635566 -0.301623 0.710689 
0.670046 -0.617255 -0.412353 0.811221 -0.278606 -0.514101 -0.611136 0.760117 0.220759 
0.673717 0.314989 -0.668497 0.160176 -0.93239 0.324025 -0.733908 0.153385 0.661703 
-0.642883 0.356873 0.677749 -0.491169 0.575418 0.653947 0.699193 -0.243236 -0.672284 
0.515938 0.509168 -0.688881 -0.251014 -0.816715 0.519584 -0.632728 -0.42465 0.647555 
-0.663488 -0.0369276 0.747275 -0.792053 0.56277 0.236521 0.705046 -0.0300449 -0.708525 
0.617008 0.194397 -0.762569 -0.672636 0.726765 -0.139186 0.0232663 -0.883459 0.467931 
-0.536881 -0.583185 0.609635 -0.575695 -0.437703 0.690646 -0.798051 -0.115514 0.591415 
-0.921664 0.106176 0.373177 -0.806171 0.564402 -0.177592 -0.382892 0.817739 -0.429763 
-0.0406367 -0.915294 0.400731 -0.607205 -0.587267 0.535182 -0.764238 -0.30784 0.566723 
-0.837786 -0.395417 0.376509 -0.906092 -0.191027 0.377499 0.643636 -0.534841 -0.547429 
0.667121 -0.0700502 -0.741648 0.701656 -0.147892 -0.696998 0.692435 0.0425768 -0.720223 
0.717105 0.276774 -0.639654 -0.423845 -0.848177 0.317728 -0.734549 -0.612613 0.291792 
-0.952479 -0.264329 0.151375 0.652049 -0.415372 -0.63427 0.776661 0.204702 -0.595731 
0.674388 0.463326 -0.574917 0.714383 0.544061 -0.440062 -0.636433 0.70535 -0.312144 
0.577 0.648805 -0.496107 -0.437375 0.839566 -0.322231 -0.136656 -0.982946 0.123055 
-0.868176 -0.484775 0.106129 -0.958713 -0.254523 -0.126839 -0.871639 -0.456741 -0.177857 
0.471081 0.83747 -0.276996 -0.0920611 0.934192 -0.344687 0.280982 -0.944708 -0.169047 
-0.900332 -0.253286 -0.353905 -0.942526 0.201733 -0.26636 0.778886 0.33795 -0.528325 
-0.292583 0.899462 -0.324597 0.292896 0.851849 -0.434241 -0.646331 -0.758458 -0.0836481 
0.394782 -0.747265 -0.534548 0.763109 -0.445038 -0.468621 0.65994 0.65632 -0.365682 
0.753582 0.49859 -0.428394 0.592437 -0.711593 -0.377695 -0.538991 -0.749021 -0.385301 
0.832669 -0.206006 -0.514028 0.345875 -0.912406 -0.218829 -0.70874 -0.56898 -0.417072 
-0.757722 0.372649 -0.535714 0.16971 -0.985252 -0.0218378 -0.76583 -0.262118 -0.587196 
0.808494 -0.316101 -0.496405 0.923872 0.0385375 -0.380757 0.863683 0.142963 -0.483335 
-0.607481 0.622964 -0.492832 -0.525845 0.791433 -0.311641 0.230508 0.954805 -0.187651 
-0.266853 -0.880231 -0.392405 0.821879 -0.495182 -0.281622 0.953139 0.120525 -0.277488 
0.838352 0.449104 -0.308984 0.88226 0.414329 -0.223492 0.704997 0.701573 -0.103798 
-0.315911 0.939602 -0.131714 -0.455872 -0.576409 -0.678184 -0.450215 -0.702486 -0.551198 
-0.684063 -0.239926 -0.688835 0.664468 -0.660926 -0.348796 -0.775211 -0.12801 -0.618597 
-0.84572 -0.0916433 -0.525699 0.949513 -0.19792 -0.24342 0.985843 0.0180497 -0.166697 
-0.848712 0.234573 -0.473987 -0.745186 0.602676 -0.285445 0.261126 0.960959 -0.0914957 
-0.420144 -0.379427 -0.824326 0.418821 -0.870474 0.25858 -0.163581 -0.840437 -0.516631 
-0.738351 -0.307159 -0.600409 0.62932 -0.770831 -0.0988744 0.995282 -0.0786073 -0.0568657 
0.976867 0.201309 -0.0721411 0.899017 0.427223 0.0961702 0.734291 0.673749 -0.0829412 
-0.793259 0.594286 -0.132531 -0.102279 0.993071 -0.0578758 -0.0315295 -0.724768 -0.688272 
-0.0634697 -0.973923 -0.217821 -0.770964 -0.0482362 -0.63505 0.896587 -0.439761 0.0523623 
0.967443 0.154477 0.200477 0.847521 0.491178 0.201129 -0.653087 0.75002 -0.104634 
0.506174 0.862429 0.00178069 0.391385 0.914628 0.101359 0.957034 -0.00666798 0.289899 
0.321512 -0.935811 0.144525 0.482428 -0.809653 0.334252 0.822069 -0.435811 0.366432 
0.85452 -0.275357 0.440425 0.792452 0.394033 0.465573 0.89464 0.162523 0.416179 
0.65134 0.632887 0.418581 0.217182 0.93032 0.295528 -0.220209 -0.500714 -0.837134 
-0.107736 -0.492057 -0.863871 -0.25386 -0.378783 -0.889988 -0.389364 -0.153605 -0.908186 
0.10465 -0.713437 -0.692861 -0.533733 -0.279713 -0.798054 -0.719671 -0.138681 -0.680325 
-0.267094 0.0399433 -0.962842 -0.563737 0.0844412 -0.821627 -0.402215 0.420907 -0.813056 
-0.50132 0.537038 -0.678431 -0.441035 0.498399 -0.746383 -0.37446 0.303052 -0.876321 
-0.330121 -0.00691055 -0.943913 0.2459 -0.797068 -0.551557 0.647237 -0.711208 0.27435 
0.330747 -0.79047 0.515523 0.750948 -0.46615 0.467742 0.788956 -0.0680428 0.61067 
-0.720182 0.690882 -0.0633994 -0.438238 0.888428 0.136543 0.0376592 0.963266 0.265894 
-0.281424 -0.766025 -0.577933 -0.25774 -0.683728 -0.682705 -0.480543 -0.682962 -0.550129 
-0.744714 -0.489975 -0.453128 -0.405639 -0.396316 -0.823645 0.503803 -0.726268 -0.467671 
-0.571111 0.749522 -0.334738 0.28612 -0.94309 -0.169458 -0.492201 0.735156 -0.466136 
-0.61627 0.31298 -0.722672 0.628285 -0.568602 0.530989 0.755548 -0.235761 0.611199 
0.775308 0.337787 0.533664 0.62973 0.66729 0.397699 0.507809 0.668964 0.542786 
0.405969 0.875457 0.262229 0.450797 0.78545 0.424088 -0.307125 -0.856485 -0.414858 
-0.216314 -0.852863 -0.475219 -0.0255307 -0.825859 -0.563299 -0.534268 -0.801041 -0.269982 
-0.887775 -0.369023 -0.275094 -0.84507 0.208487 -0.492331 -0.69496 0.565957 -0.443536 
0.46988 -0.786866 -0.400068 -0.581036 0.746184 -0.324972 -0.61197 0.590316 -0.526326 
0.317564 -0.872202 0.372043 -0.754129 0.524502 -0.395204 0.61982 0.507484 0.598567 
-0.314144 -0.895743 -0.314575 -0.262736 -0.956121 -0.129623 -0.418589 -0.884217 -0.207228 
-0.712599 -0.677972 -0.180433 -0.9417 -0.332393 0.0521187 -0.996737 -0.0146226 -0.0793817 
-0.895616 0.430317 -0.112694 -0.741249 0.669403 -0.0494964 -0.716103 0.69688 -0.0394283 
0.279655 -0.866744 0.412974 0.60071 -0.282773 0.747788 0.735731 0.155331 0.659221 
0.504286 0.404861 0.762747 -0.624253 0.731619 0.273939 0.26978 0.805561 0.527532 
0.0382014 0.753517 0.656317 0.0132626 0.799645 0.600326 -0.500774 -0.861778 -0.0810222 
-0.692044 -0.721483 0.0231736 -0.652856 -0.743939 0.142598 -0.941733 0.260322 0.213008 
-0.899699 0.325949 0.290342 -0.597092 0.801482 0.0332784 0.429792 -0.902907 0.00613497 
0.37747 -0.874133 0.305627 -0.518301 0.795278 0.314479 0.406841 0.568091 0.715369 
0.352069 -0.826345 -0.439546 -0.545204 -0.827789 0.132351 -0.892525 -0.397319 0.213394 
-0.85214 -0.385883 0.353486 -0.911611 0.0377137 0.40932 -0.825445 0.424731 0.371813 
-0.775361 0.534757 0.335932 0.452253 -0.878031 -0.156616 -0.672866 0.737014 -0.0637329 
0.580282 -0.809307 0.0910827 0.31926 -0.764224 0.560389 0.289118 -0.62138 0.728216 
0.517768 -0.595994 0.613765 0.623865 -0.0659146 0.778747 0.519373 0.333843 0.786638 
-0.334564 0.779385 0.529742 0.0714297 0.654966 0.752275 -0.435604 -0.894655 0.0992053 
-0.68604 -0.68825 0.235926 -0.729494 -0.57529 0.369972 -0.709645 -0.591573 0.382682 
-0.781338 -0.0776983 0.619253 0.645217 -0.748264 -0.15426 -0.850821 0.110569 0.51369 
-0.736378 0.206814 0.644186 -0.679516 0.480816 0.554142 -0.710767 0.52536 0.467768 
0.549489 -0.743802 0.380552 0.345153 -0.677438 0.649575 0.403545 -0.639824 0.654047 
0.33992 -0.157802 0.927121 0.356458 0.330033 0.87408 0.162091 -0.955243 -0.247461 
0.456256 -0.862094 -0.22051 -0.560839 -0.780905 0.27504 0.638881 -0.768818 -0.0273827 
-0.732789 -0.495321 0.466559 -0.754934 0.530383 0.385705 -0.779929 0.604559 0.161923 
0.203072 0.30381 0.930839 -0.67978 -0.598944 0.42328 -0.851139 -0.0547014 0.522082 
-0.87465 0.362661 0.321658 0.814762 -0.579602 -0.0149768 0.711599 -0.564 0.418964 
0.632403 -0.593 0.498415 -0.471889 -0.808082 0.352596 -0.22436 -0.972158 0.0676183 
-0.746061 0.207128 0.632843 -0.798797 0.280358 0.532281 0.833923 -0.472294 0.285502 
0.257181 0.227418 0.939222 -0.567769 0.77745 0.270575 -0.348449 0.801387 0.486171 
0.475576 -0.879368 -0.0232364 -0.653877 -0.457449 0.602649 0.662648 -0.245524 0.707542 
0.489791 -0.309541 0.815039 0.44515 0.0911082 0.890809 0.183251 0.48301 0.856225 
0.0948727 -0.99154 -0.088584 -0.486008 -0.760582 0.430477 -0.656559 -0.18283 0.731781 
-0.644846 -0.0853055 0.759537 -0.734625 0.588876 0.336974 -0.606302 0.723132 0.330875 
-0.114857 -0.988551 0.0978469 0.134696 -0.961983 0.237584 0.685222 -0.667708 0.290924 