# vtk DataFile Version 4.2
vtk output
ASCII
DATASET POLYDATA
POINTS 845 float
485.664 258.869 150.929 489.48 258.678 150.675 484.632 259.172 151.141 
486.265 259.461 150.681 488.4 259.164 150.541 490.677 258.615 150.805 
492.563 259.35 151.117 484.307 259.876 151.223 485.94 259.83 150.74 
487.385 259.748 150.567 491.081 259.718 150.671 484.53 260.116 151.148 
490.748 259.952 150.64 492.759 257.801 151.909 483.824 258.395 151.87 
483.206 258.797 152.155 483.106 260.209 152.042 485.079 261.123 151.414 
485.663 261.166 151.266 491.099 260.985 151.004 483.907 257.727 152.498 
495.675 258.439 152.687 497.488 259.276 153.009 494.543 260.555 151.744 
483.109 260.886 152.403 487.825 261.739 151.336 493.467 261.526 151.648 
486.558 262.164 151.79 490.701 262.111 151.604 488.985 262.833 152.148 
490.189 256.245 152.797 483.587 257.571 153.014 486.72 256.48 153.08 
488.675 256.774 152.124 495.948 258.154 152.931 495.929 258.07 152.951 
495.723 258.065 152.916 496.045 258.094 153.01 482.677 258.169 153.245 
496.303 258.185 153.212 498.006 259.131 153.373 497.915 258.922 153.529 
482.037 258.919 153.59 482.149 259.474 153.134 499.549 260.873 153.726 
482.309 260.416 153.127 483.988 262.462 153.378 488.833 263.855 153.207 
483.613 257.135 153.863 493.827 256.891 153.844 495.692 257.847 153.222 
497.829 258.633 153.894 481.909 258.798 154.004 481.787 259.243 153.992 
500.837 261.244 154.75 482.58 261.286 153.459 482.939 262.049 153.93 
486.037 263.391 153.342 489.233 264.685 154.293 482.627 257.626 154.632 
481.412 259.805 154.721 481.439 260.073 154.629 481.577 260.299 154.452 
499.875 262.665 154.304 496.501 264.013 153.809 487.901 264.441 154.267 
488.337 264.775 154.744 491.176 264.95 154.357 497.483 264.625 154.555 
483.388 257.003 154.959 497.426 257.897 155.264 501.42 260.422 155.88 
501.615 260.644 155.969 481.248 259.943 155.317 501.887 261.031 156.11 
481.488 260.642 155.181 481.851 261.306 155.458 500.216 263.697 155.011 
494.033 256.364 156.627 481.369 259.471 156.067 501.564 260.439 156.146 
481.259 259.85 155.934 481.227 260.026 155.63 481.266 260.275 155.709 
481.608 260.944 156.374 490.902 265.721 155.564 500.705 265.779 156.698 
485.181 256.027 157.369 482.893 257.395 157.378 482.002 258.266 156.877 
481.419 259.495 156.548 501.526 260.301 156.425 487.563 265.353 157.028 
497.53 266.791 156.907 486.919 255.512 157.938 484.604 256.319 157.544 
482.868 257.503 157.803 490.447 255.451 157.527 481.674 259.037 157.197 
481.541 260.09 157.201 481.78 261.059 157.434 483.004 257.773 158.594 
487.522 265.618 158.867 482.301 258.979 158.74 482.802 261.897 159.044 
507.546 265.713 161.292 484.004 257.498 159.644 483.195 258.771 159.817 
483.336 261.587 159.975 505.5 261.968 161.416 507.587 264.297 161.672 
486.841 264.935 161.151 507.636 267.537 161.829 489.79 256.607 161.217 
492.777 256.73 161.105 483.172 260.31 160.117 509.2 265.091 163.098 
490.215 257.306 162.497 484.733 259.476 161.391 485.473 262.523 161.784 
510.967 266.351 164.699 488.044 266.259 162.965 510.192 267.439 164.089 
492.059 257.566 163.157 486.603 262.669 163.426 486.799 263.844 163.239 
488.927 267.82 164.218 489.665 268.265 163.458 506.318 270.392 163.904 
491.818 258.14 164.279 488.235 259.538 164.201 488.989 259.335 164.595 
487.25 261.162 164.222 487.798 261.124 165.081 486.979 262.245 164.161 
487.214 263.017 164.908 510.516 264.29 164.836 487.421 265.16 165.363 
511.204 265.002 165.169 511.664 265.316 165.559 487.567 265.884 165.616 
512.209 265.813 166.089 511.414 267.743 165.575 489.771 259.887 166.357 
488.477 261.027 166.343 487.361 263.418 166.123 487.278 264.604 166.221 
511.986 264.358 166.28 513.101 266.368 167.105 488.293 267.547 165.549 
511.465 268.196 165.994 512.32 267.734 166.716 490.767 270.251 165.494 
492.775 259.144 167.623 488.22 261.525 166.752 487.382 263.009 167.674 
487.292 266.289 167.127 489.152 269.555 166.771 509.057 270.948 167.451 
505.356 259.591 168.179 514.035 266.849 168.548 494.25 272.912 167.66 
488.83 261.015 169.112 511.834 261.587 168.832 515.027 263.577 170.014 
513.142 268.491 168.933 514.093 267.512 169.271 513.88 261.695 170.697 
488.12 261.175 170.483 515.684 264.489 170.566 511.344 259.951 171.85 
484.882 263.274 172.085 486.121 262.916 170.778 485.512 264.32 170.76 
485.435 267.839 171.715 510.833 259.657 172.622 516.862 263.437 172.898 
517.135 264.225 173.113 516.82 265.062 172.631 489.779 272.482 171.54 
516.973 263.136 173.391 517.505 264.438 174.065 484.063 265.697 173.04 
516.832 265.667 173.088 516.87 265.838 173.461 514.179 268.906 172.621 
492.589 274.276 173.566 484.134 260.316 174.853 516.414 262.353 173.459 
517.589 263.77 174.492 517.608 264.186 174.43 484.704 268.902 174.338 
504.092 274.444 173.585 512.424 259.91 175.061 487.891 259.026 174.555 
516.592 262.276 174.346 517.729 263.809 175.301 517.637 264.506 175.059 
482.85 265.585 175.185 517.279 265.419 175.34 516.343 266.83 174.475 
496.36 275.193 175.75 485.143 258.007 176.241 487.169 258.17 175.787 
495.22 258.254 175.259 481.6 261.351 176.663 517.624 263.418 175.721 
517.718 264.031 175.492 481.801 264.936 176.928 516.716 266.371 175.61 
486.449 271.166 175.9 511.883 270.856 175.575 505.449 273.991 175.753 
482.382 257.294 177.401 480.626 259.37 177.782 517.635 263.809 176.092 
481.673 265.211 177.384 510.801 259.587 176.576 514.798 261.448 177.475 
517.357 263.345 176.408 517.24 263.571 176.797 516.897 265.342 177.401 
517.043 264.968 177.375 481.693 265.896 178.079 513.071 269.59 177.571 
486.363 271.244 178.546 491.324 273.945 177.808 505.012 273.863 177.221 
477.467 253.347 180.163 481.451 253.667 179.404 472.55 254.318 181.005 
472.331 254.548 180.999 484.859 253.434 179.761 471.615 254.674 181.327 
471.441 254.889 181.419 472.754 255.076 180.807 471.568 255.09 181.322 
472.457 255.336 180.973 471.775 255.504 181.41 472.765 255.741 181.019 
474.717 256.192 180.424 476.515 256.689 179.892 491.043 256.097 179.054 
516.26 262.29 176.961 514.916 261.972 178.359 516.219 262.787 177.819 
517.041 264.306 177.432 483.782 269.116 179.461 474.891 252.726 181.384 
477.523 252.316 180.995 471.727 254.15 181.578 471.528 254.312 181.622 
472.164 254.314 181.176 492.81 255.638 180.865 471.739 255.687 181.625 
495.335 256.829 180.388 474.622 257.305 181.294 478.33 259.676 179.966 
515.429 262.687 178.684 516.539 263.686 178.011 515.782 266.058 178.897 
514.661 267.34 179.041 510.272 270.832 179.18 508.026 272.274 178.589 
505.147 273.179 179.021 492.167 274.02 178.717 473.825 252.548 182.277 
476.816 251.587 182.198 480.698 251.741 181.096 473.325 252.746 182.387 
470.932 254.877 182.158 470.928 255.05 182.065 471.082 255.163 181.883 
493.557 255.654 181.555 472.466 256.359 182.121 476.143 258.374 181.131 
507.665 259.964 180.266 478.661 262.036 181.386 514.549 266.559 180.029 
475.764 251.516 183.045 475.663 251.359 183.745 473.769 252.404 182.767 
471.258 254.337 182.282 470.89 254.896 182.386 470.872 255.047 182.257 
470.889 255.177 182.357 471.031 255.356 182.431 471.219 255.587 182.577 
504.694 259.499 181.079 512.907 263.738 181.472 515.062 265.43 179.992 
514.078 266.129 180.706 480.673 265.632 181.895 484.194 269.322 181.398 
504.197 272.289 181.101 494.309 273.177 181.354 499.574 273.116 181.352 
474.298 251.963 183.981 471.394 254.107 183.051 471.75 253.765 183.111 
470.913 255.194 182.502 471.004 255.165 182.771 473.424 257.075 182.986 
496.87 257.091 182.785 501.152 258.996 182.926 485.744 270.294 181.824 
503.535 270.964 182.815 488.577 250.931 184.997 474.247 252.006 184.739 
471.215 254.332 183.067 471.354 254.216 183.302 471.139 255.144 183.165 
471.169 255.341 183.065 471.533 255.586 183.559 496.795 257.038 183.397 
474.216 257.704 183.504 497.439 257.421 183.433 506.219 261.37 183.278 
508.698 261.982 182.621 509.55 262.737 182.793 511.719 264.913 182.416 
510.921 265.93 182.687 488.035 270.765 183.011 499.701 271.713 182.983 
476.074 251.095 185.83 472.66 253.286 184.698 471.468 254.296 183.631 
471.87 253.983 184.053 471.481 254.547 183.814 493.437 254.375 185.214 
471.432 254.79 183.765 471.56 255.41 183.774 471.69 255.589 183.842 
472.182 255.872 184.192 499.476 258.744 184.165 505.739 261.991 184.105 
506.994 261.919 183.397 510.968 264.355 182.717 507.27 267.422 183.901 
487.264 250.028 186.032 489.459 251.009 185.952 475.146 251.797 186.438 
490.346 251.61 185.92 472.23 254.047 184.764 473.438 256.146 185.622 
477.074 260.9 185.513 503.78 265.982 185.439 474.54 252.449 186.609 
472.709 254.354 185.514 473.05 255.418 185.727 495 256.181 187.203 
496.565 257.854 186.69 497.316 258.621 186.553 477.808 250.974 188.68 
479.965 249.887 187.795 473.359 254.987 186.238 474.698 256.134 187.535 
495.288 256.758 187.516 499.112 262.069 187.02 480.638 264.766 187.583 
481.832 265.958 186.721 488.823 250.411 188.086 474.978 253.05 187.876 
496.249 259.091 188.047 496.679 259.86 187.942 497.49 262.137 187.777 
494.071 264.513 188.328 485.745 249.36 189.472 477.581 251.785 190.029 
475.121 253.981 188.491 475.455 254.909 189.043 478.514 261.622 189.95 
480.209 263.874 188.989 483.56 249.345 190.197 484.657 249.283 189.98 
491.956 253.518 190.174 477.665 259.449 190.63 480.533 263.199 190.314 
487.958 250.428 190.773 490.896 252.994 191.312 490.89 253.379 191.818 
490.765 253.539 192.091 492.015 253.886 190.666 476.636 254.325 190.593 
476.248 256.074 190.038 486.493 262.236 191.929 479.543 262.097 190.977 
482.591 250.146 191.84 488.777 251.429 192.034 491.89 254.025 191.006 
491.72 255.114 191.662 484.477 250.226 192.331 480.092 251.915 193.043 
478.567 258.927 192.624 479.516 260.432 192.581 484.817 251.062 193.6 
486.534 251.595 193.818 487.362 252.174 193.923 478.651 254.653 193.207 
479.011 255.647 193.772 488.315 257.01 194.173 479.148 258.153 193.541 
481.455 252.991 194.811 482.101 252.781 194.917 483.961 252.224 194.895 
[...]
POINT_DATA 845
SCALARS scalars float
LOOKUP_TABLE default
1 1 1 1 1 1 1 1 1 
1 1 1 1 1 1 1 1 1 
1 1 1 1 1 1 1 1 1 
1 1 1 1 1 1 1 1 1 
1 1 1 1 1 1 1 1 1 
1 1 1 1 1 1 1 1 1 
1 1 1 1 1 1 1 1 1 
1 1 1 1 1 1 1 1 1 
1 1 1 1 1 1 1 1 1 
1 1 1 1 1 1 1 1 1 
1 1 1 1 1 1 1 1 1 
1 1 1 1 1 1 1 1 1 
1 1 1 1 1 1 1 1 1 
1 1 1 1 1 1 1 1 1 
1 1 1 1 1 1 1 1 1 
1 1 1 1 1 1 1 1 1 
1 1 1 1 1 1 1 1 1 
1 1 1 1 1 1 1 1 1 
1 1 1 1 1 1 1 1 1 
1 1 1 1 1 1 1 1 1 
1 1 1 1 1 1 1 1 1 
1 1 1 1 1 1 1 1 1 
1 1 1 1 1 1 1 1 1 
1 1 1 1 1 1 1 1 1 
1 1 1 1 1 1 1 1 1 
1 1 1 1 1 1 1 1 1 
1 1 1 1 1 1 1 1 1 
1 1 1 1 1 1 1 1 1 
1 1 1 1 1 1 1 1 1 
1 1 1 1 1 1 1 1 1 
1 1 1 1 1 1 1 1 1 
1 1 1 1 1 1 1 1 1 
1 1 1 1 1 1 1 1 1 
1 1 1 1 1 1 1 1 1 
1 1 1 1 1 1 1 1 1 
1 1 1 1 1 1 1 1 1 
1 1 1 1 1 1 1 1 1 
1 1 1 1 1 1 1 1 1 
1 1 1 1 1 1 1 1 1 
1 1 1 1 1 1 1 1 1 
1 1 1 1 1 1 1 1 1 
1 1 1 1 1 1 1 1 1 
1 1 1 1 1 1 1 1 1 
1 1 1 1 1 1 1 1 1 
1 1 1 1 1 1 1 1 1 
1 1 1 1 1 1 1 1 1 
1 1 1 1 1 1 1 1 1 
1 1 1 1 1 1 1 1 1 
1 1 1 1 1 1 1 1 1 
1 1 1 1 1 1 1 1 1 
1 1 1 1 1 1 1 1 1 
1 1 1 1 1 1 1 1 1 
1 1 1 1 1 1 1 1 1 
1 1 1 1 1 1 1 1 1 
1 1 1 1 1 1 1 1 1 
1 1 1 1 1 1 1 1 1 
1 1 1 1 1 1 1 1 1 
1 1 1 1 1 1 1 1 1 
1 1 1 1 1 1 1 1 1 
1 1 1 1 1 1 1 1 1 
1 1 1 1 1 1 1 1 1 
1 1 1 1 1 1 1 1 1 
1 1 1 1 1 1 1 1 1 
1 1 1 1 1 1 1 1 1 
1 1 1 1 1 1 1 1 1 
1 1 1 1 1 1 1 1 1 
1 1 1 1 1 1 1 1 1 
1 1 1 1 1 1 1 1 1 
1 1 1 1 1 1 1 1 1 
1 1 1 1 1 1 1 1 1 
1 1 1 1 1 1 1 1 1 
1 1 1 1 1 1 1 1 1 
1 1 1 1 1 1 1 1 1 
1 1 1 1 1 1 1 1 1 
1 1 1 1 1 1 1 1 1 
1 1 1 1 1 1 1 1 1 
1 1 1 1 1 1 1 1 1 
1 1 1 1 1 1 1 1 1 
1 1 1 1 1 1 1 1 1 
1 1 1 1 1 1 1 1 1 
1 1 1 1 1 1 1 1 1 
1 1 1 1 1 1 1 1 1 
1 1 1 1 1 1 1 1 1 
1 1 1 1 1 1 1 1 1 
1 1 1 1 1 1 1 1 1 
1 1 1 1 1 1 1 1 1 
1 1 1 1 1 1 1 1 1 
1 1 1 1 1 1 1 1 1 
1 1 1 1 1 1 1 1 1 
1 1 1 1 1 1 1 1 1 
1 1 1 1 1 1 1 1 1 
1 1 1 1 1 1 1 1 1 
1 1 1 1 1 1 1 1 1 
1 1 1 1 1 1 1 1 
NORMALS Normals float
-0.176013 -0.366684 -0.913544 0.0364982 -0.464997 -0.88456 -0.372447 -0.172469 -0.911887 
-0.0402198 0.0469046 -0.998089 -0.0488559 -0.273102 -0.960744 0.13587 -0.339636 -0.930691 
0.302675 -0.141144 -0.942585 -0.496635 0.0843064 -0.863855 -0.167485 0.14182 -0.975621 
-0.0563602 0.0452087 -0.997386 0.228053 -0.0369123 -0.972949 -0.365081 0.209165 -0.907175 
0.0174028 0.208002 -0.977974 0.260166 -0.567242 -0.781377 -0.38033 -0.545014 -0.747201 
-0.629178 -0.34602 -0.695992 -0.672092 0.138585 -0.727383 -0.308591 0.502575 -0.807583 
-0.077264 0.419043 -0.904673 0.0894728 0.353932 -0.930982 -0.422407 -0.707696 -0.566337 
0.387121 -0.39042 -0.83529 0.373256 -0.289268 -0.881478 0.403592 0.01368 -0.914837 
-0.537376 0.500657 -0.678653 -0.0331851 0.581699 -0.812727 0.246669 0.433331 -0.866821 
-0.230614 0.677779 -0.698164 -0.0116577 0.556075 -0.83105 -0.0168154 0.686287 -0.727137 
0.095903 -0.891967 -0.441813 -0.442182 -0.754773 -0.484555 -0.186639 -0.928291 -0.321624 
-0.122018 -0.712585 -0.690894 0.443231 -0.235855 -0.864823 0.295332 -0.783096 -0.547302 
0.229805 -0.586359 -0.776771 0.534684 -0.61588 -0.578624 -0.69246 -0.562974 -0.451177 
0.51685 -0.728991 -0.448819 0.667343 -0.594959 -0.44797 0.439444 -0.710303 -0.549872 
-0.836459 -0.318546 -0.445943 -0.829501 -0.103456 -0.548839 0.494558 -0.0736554 -0.866018 
-0.879489 0.290238 -0.377174 -0.454698 0.717641 -0.527485 -0.0892123 0.779475 -0.620049 
-0.438255 -0.805799 -0.398272 0.325293 -0.904631 -0.275368 0.325844 -0.866001 -0.379299 
0.59323 -0.722012 -0.356057 -0.894498 -0.428707 -0.126818 -0.956629 -0.197954 -0.213716 
0.690904 -0.118096 -0.713235 -0.795888 0.514623 -0.318944 -0.60657 0.788264 -0.1035 
-0.241284 0.828767 -0.504903 -0.0302985 0.867706 -0.496153 -0.794047 -0.604077 -0.067686 
-0.902058 -0.236989 -0.360732 -0.91228 0.115974 -0.392805 -0.859333 0.24853 -0.446968 
0.390056 0.315181 -0.865169 0.137661 0.658415 -0.739959 -0.284766 0.836525 -0.468118 
-0.221341 0.892435 -0.393151 -0.0504877 0.791348 -0.609278 0.257139 0.605355 -0.753276 
-0.470703 -0.878027 -0.0866418 0.603028 -0.790266 -0.108797 0.635693 -0.438833 -0.635075 
0.831419 -0.312697 -0.459307 -0.976599 -0.136475 -0.166217 0.729171 -0.332765 -0.597977 
-0.893165 0.395715 -0.213698 -0.755584 0.648912 -0.0894769 0.457444 0.43598 -0.775027 
0.32058 -0.946895 -0.0248615 -0.960284 -0.277707 0.0270702 0.73351 -0.638489 -0.233011 
-0.988389 -0.068073 0.135841 -0.997823 -0.0656744 -0.00598626 -0.958492 0.28381 0.0272801 
-0.793703 0.591899 0.140328 -0.168134 0.877327 -0.449476 0.266203 0.647926 -0.713672 
-0.401534 -0.9135 -0.0654823 -0.390874 -0.919685 0.0373713 -0.758623 -0.650008 -0.0445073 
-0.965505 -0.215782 0.145736 0.682864 -0.702115 -0.20182 -0.264979 0.916825 -0.298694 
0.145417 0.749047 -0.646361 -0.204633 -0.964557 0.166599 -0.457149 -0.876301 0.152025 
-0.640103 -0.703692 0.308358 0.126173 -0.990484 0.0549712 -0.873988 -0.282429 0.395447 
-0.951714 0.0477151 0.303254 -0.874585 0.278149 0.397157 -0.496866 -0.780063 0.380296 
-0.585338 0.803943 -0.105138 -0.831837 -0.304572 0.463986 -0.757025 0.583377 0.294252 
0.779654 0.00791817 -0.626161 -0.50777 -0.624361 0.593584 -0.688231 -0.316995 0.652574 
-0.737677 0.254393 0.625393 0.670048 -0.617252 -0.412354 0.811221 -0.278606 -0.514101 
-0.737834 0.632242 0.236372 0.624758 0.350646 -0.697657 -0.0969195 -0.88748 0.450539 
0.160178 -0.932387 0.324032 -0.768952 0.0251524 0.638811 0.699193 -0.243236 -0.672284 
-0.054768 -0.871721 0.486932 -0.699601 -0.0609787 0.711927 -0.7642 0.319186 0.560463 
0.705046 -0.0300449 -0.708525 -0.875199 0.483755 0.00266791 0.606462 0.340204 -0.718655 
-0.0570746 -0.873631 0.48323 -0.856439 0.0645111 0.512201 -0.901988 0.270173 0.336786 
-0.786789 0.60225 -0.135124 -0.513765 0.797368 -0.316622 0.240212 0.830493 -0.502572 
-0.0406106 -0.915299 0.400722 -0.627317 -0.54977 0.551567 -0.340136 -0.75128 0.565584 
-0.75339 -0.285181 0.592516 -0.842484 -0.366758 0.394599 -0.894 -0.0699297 0.442577 
-0.961313 -0.067883 0.266964 0.643636 -0.534841 -0.547429 -0.986207 0.165424 -0.00559882 
0.676387 -0.0732639 -0.732894 0.701656 -0.147892 -0.696998 -0.932767 0.313187 -0.178495 
0.692435 0.0425768 -0.720223 0.689944 0.30893 -0.65463 -0.445241 -0.845697 0.294205 
-0.734189 -0.612987 0.291913 -0.981701 -0.18353 0.0508021 -0.967021 -0.0306179 -0.252848 
0.652049 -0.415372 -0.63427 0.776661 0.204702 -0.595731 -0.784439 0.552612 -0.281561 
0.631141 0.509259 -0.585078 0.711519 0.50753 -0.485956 -0.494705 0.761094 -0.419526 
-0.136568 -0.982961 0.123036 -0.853638 -0.49893 0.149571 -0.886436 -0.442153 -0.136864 
-0.891789 0.328034 -0.311619 -0.73306 0.573884 -0.365075 0.484786 0.805443 -0.340945 
0.280983 -0.944708 -0.169045 0.778886 0.33795 -0.528325 -0.162668 0.902282 -0.399281 
-0.671878 -0.740273 -0.0239768 0.394782 -0.747265 -0.534548 0.763109 -0.445038 -0.468621 
0.65994 0.65632 -0.365682 0.753582 0.49859 -0.428394 0.592437 -0.711593 -0.377695 
-0.460604 -0.788008 -0.408518 0.832669 -0.206006 -0.514028 0.345875 -0.912406 -0.218829 
-0.763898 -0.299017 -0.571882 -0.749251 -0.535434 -0.389786 -0.860987 -0.119373 -0.49442 
-0.826828 0.358563 -0.433345 0.16971 -0.985252 -0.0218378 0.808494 -0.316101 -0.496405 
0.923872 0.0385375 -0.380757 0.863683 0.142963 -0.483335 -0.552035 0.794966 -0.251568 
0.821879 -0.495182 -0.281622 0.953139 0.120525 -0.277488 -0.862393 0.126263 -0.490241 
0.838352 0.449104 -0.308984 0.88226 0.414329 -0.223492 0.704997 0.701573 -0.103798 
-0.291234 0.942649 -0.163079 -0.495655 -0.525833 -0.69125 0.664468 -0.660926 -0.348796 
0.949513 -0.19792 -0.24342 0.985843 0.0180497 -0.166697 -0.782047 0.556493 -0.280566 
0.193309 0.960845 -0.198516 0.418821 -0.870474 0.25858 -0.120353 -0.810085 -0.573827 
0.62932 -0.770831 -0.0988744 0.995282 -0.0786073 -0.0568657 0.976867 0.201309 -0.0721411 
-0.862335 0.265634 -0.431064 0.899017 0.427223 0.0961702 0.734291 0.673749 -0.0829412 
0.0198111 0.992342 0.121925 -0.271629 -0.49792 -0.823586 0.0673966 -0.75696 -0.649977 
-0.0901782 -0.976447 -0.196008 -0.802899 0.0128956 -0.595976 0.896587 -0.439761 0.0523623 
0.967443 0.154477 0.200477 -0.857592 0.272754 -0.436052 0.847521 0.491178 0.201129 
-0.629936 0.76622 -0.126838 0.506174 0.862429 0.00178069 0.386203 0.916735 0.102202 
-0.219234 -0.380272 -0.898516 -0.573857 -0.123111 -0.809649 0.957034 -0.00666798 0.289899 
-0.872834 0.309202 -0.377564 0.321512 -0.935811 0.144525 0.482428 -0.809653 0.334252 
0.822069 -0.435811 0.366432 0.85452 -0.275357 0.440425 0.792452 0.394033 0.465573 
0.89464 0.162523 0.416179 -0.808904 0.482269 -0.336289 0.65134 0.632887 0.418581 
-0.525733 0.84739 0.0743963 -0.391944 0.918659 0.0494474 0.187687 0.937989 0.291462 
-0.220209 -0.500714 -0.837134 -0.104671 -0.479168 -0.87146 -0.25386 -0.378783 -0.889988 
-0.389364 -0.153605 -0.908186 0.0751985 -0.697034 -0.713084 -0.533733 -0.279713 -0.798054 
-0.719671 -0.138681 -0.680325 -0.267094 0.0399433 -0.962842 -0.563737 0.0844412 -0.821627 
-0.402215 0.420907 -0.813056 -0.50132 0.537038 -0.678431 -0.441035 0.498399 -0.746383 
-0.37446 0.303052 -0.876321 -0.349174 -0.017662 -0.936891 0.2459 -0.797069 -0.551556 
0.647237 -0.711208 0.27435 0.330747 -0.79047 0.515523 0.750948 -0.46615 0.467742 
0.788956 -0.0680428 0.61067 -0.718327 0.689526 -0.0925214 -0.281424 -0.766025 -0.577933 
-0.25774 -0.683728 -0.682705 -0.480543 -0.682962 -0.550129 -0.744714 -0.489975 -0.453128 
-0.405639 -0.396316 -0.823645 0.503803 -0.726268 -0.467671 -0.571111 0.749522 -0.334738 
0.28612 -0.94309 -0.169458 -0.492201 0.735156 -0.466136 -0.627545 0.348977 -0.69599 
0.628285 -0.568602 0.530989 0.755548 -0.235761 0.611199 0.775308 0.337787 0.533664 
0.62973 0.66729 0.397699 0.507809 0.668964 0.542786 0.405969 0.875457 0.262229 
0.450797 0.78545 0.424088 -0.250423 0.937547 0.24144 -0.307125 -0.856485 -0.414858 
-0.216314 -0.852863 -0.475219 -0.0255307 -0.825859 -0.563299 -0.534268 -0.801041 -0.269982 
-0.887775 -0.369023 -0.275094 -0.84507 0.208487 -0.492331 -0.69496 0.565957 -0.443536 
0.46988 -0.786866 -0.400068 -0.581036 0.746184 -0.324972 -0.61197 0.590316 -0.526326 
0.317564 -0.872202 0.372043 -0.787101 0.477484 -0.390488 0.61982 0.507484 0.598567 
-0.314144 -0.895743 -0.314575 -0.262736 -0.956121 -0.129623 -0.418589 -0.884217 -0.207228 
-0.712599 -0.677972 -0.180433 -0.9417 -0.332393 0.0521187 -0.996737 -0.0146226 -0.0793817 
-0.895616 0.430317 -0.112694 -0.741249 0.669403 -0.0494964 -0.716103 0.69688 -0.0394283 
0.279655 -0.866744 0.412974 0.60071 -0.282773 0.747788 0.735731 0.155331 0.659221 
0.504286 0.404861 0.762747 -0.804591 0.593476 -0.0204867 -0.612147 0.740508 0.277351 
0.254668 0.824399 0.505481 0.0723747 0.752529 0.65457 0.0137582 0.833548 0.552276 
-0.500774 -0.861778 -0.0810222 -0.692044 -0.721483 0.0231736 -0.652856 -0.743939 0.142598 
-0.941733 0.260322 0.213008 -0.899699 0.325949 0.290342 -0.597092 0.801482 0.0332784 
0.429792 -0.902907 0.00613497 0.37747 -0.874133 0.305627 -0.516522 0.803133 0.296955 
0.406841 0.568091 0.715369 0.352069 -0.826345 -0.439546 -0.545204 -0.827789 0.132351 
-0.892525 -0.397319 0.213394 -0.85214 -0.385883 0.353486 -0.911611 0.0377137 0.40932 
-0.825445 0.424731 0.371813 -0.775361 0.534757 0.335932 0.452253 -0.878031 -0.156616 
-0.672866 0.737014 -0.0637329 0.580282 -0.809307 0.0910827 0.31926 -0.764224 0.560389 
0.289118 -0.62138 0.728216 0.517768 -0.595994 0.613765 0.623865 -0.0659146 0.778747 
0.519373 0.333843 0.786638 -0.337762 0.80648 0.48529 0.0714297 0.654966 0.752275 
-0.435604 -0.894655 0.0992053 -0.68604 -0.68825 0.235926 -0.729494 -0.57529 0.369972 
-0.709645 -0.591573 0.382682 -0.781338 -0.0776983 0.619253 0.645217 -0.748264 -0.15426 
-0.850821 0.110569 0.51369 -0.736378 0.206814 0.644186 -0.679516 0.480816 0.554142 
-0.710767 0.52536 0.467768 0.549489 -0.743802 0.380552 0.345153 -0.677438 0.649575 
0.403545 -0.639824 0.654047 0.33992 -0.157802 0.927121 0.356458 0.330033 0.87408 
0.162091 -0.955243 -0.247461 0.456256 -0.862094 -0.22051 -0.560839 -0.780905 0.27504 
0.638881 -0.768818 -0.0273827 -0.732789 -0.495321 0.466559 -0.754934 0.530383 0.385705 
-0.803738 0.549626 0.22785 0.203072 0.30381 0.930839 -0.67978 -0.598944 0.42328 
-0.851139 -0.0547014 0.522082 -0.87465 0.362661 0.321658 0.814762 -0.579602 -0.0149768 
0.711599 -0.564 0.418964 0.632403 -0.593 0.498415 -0.471889 -0.808082 0.352596 
-0.22436 -0.972158 0.0676183 -0.746061 0.207128 0.632843 -0.798797 0.280358 0.532281 
0.833923 -0.472294 0.285502 0.257181 0.227418 0.939222 -0.573456 0.766498 0.289186 
-0.331013 0.798518 0.502792 0.475576 -0.879368 -0.0232364 -0.653877 -0.457449 0.602649 
0.662648 -0.245524 0.707542 0.489791 -0.309541 0.815039 0.44515 0.0911082 0.890809 
0.183251 0.48301 0.856225 0.0948727 -0.99154 -0.088584 -0.486008 -0.760582 0.430477 
-0.656559 -0.18283 0.731781 -0.644846 -0.0853055 0.759537 -0.740649 0.602804 0.296759 
-0.639721 0.706468 0.302754 -0.114857 -0.988551 0.0978469 0.134696 -0.961983 0.237584 
0.685222 -0.667708 0.290924 -0.855326 0.317878 0.409111 -0.332433 0.774271 0.53851 
0.41998 -0.869478 0.260049 0.604272 -0.699392 0.381715 0.647764 -0.500127 0.574696 
0.577746 -0.435065 0.6906 0.783142 -0.424815 0.454116 -0.783454 -0.0712987 0.617346 
-0.84223 0.237728 0.483873 0.155757 0.598081 0.786155 -0.516894 0.630354 0.579201 
-0.273938 -0.86437 0.42169 0.566571 -0.715784 0.40823 0.741746 -0.461053 0.487076 
0.751327 -0.213698 0.624372 0.0168528 -0.864013 0.503188 -0.504683 -0.56447 0.653198 
-0.744829 0.276276 0.607372 -0.499915 0.559346 0.661223 0.0445922 -0.741257 0.669738 
0.308246 -0.752798 0.581618 0.464385 -0.579894 0.66938 -0.753174 -0.146877 0.641214 
-0.683625 -0.0566012 0.727635 0.568996 0.0394835 0.821392 -0.753618 0.159113 0.637764 
-0.368948 -0.700141 0.611293 -0.228856 -0.589 0.775051 -0.134273 -0.755512 0.641227 
0.363992 -0.431002 0.82568 -0.510121 -0.345099 0.787834 0.420518 0.102888 0.901431 
0.576357 -0.0235945 0.816857 -0.440931 0.326187 0.836171 -0.427314 0.446873 0.785944 
-0.107513 0.583012 0.805319 0.236696 0.367759 0.899293 0.21848 -0.437281 0.872383 
0.372324 -0.174765 0.9115 0.383665 -0.0442329 0.922412 0.558711 -0.187196 0.80796 
-0.634141 -0.139477 0.760534 0.351855 0.144231 0.924876 -0.406661 0.235951 0.882584 
-0.178723 0.326307 0.928214 -0.448065 -0.232229 0.863312 0.00383956 -0.427891 0.903822 
0.0367781 -0.390071 0.92005 -0.284418 -0.365707 0.886208 -0.185326 -0.343169 0.920809 
0.131112 0.0505371 0.990079 -0.427408 0.188683 0.88415 -0.0368071 0.305666 0.951427 
0.0336821 -0.151632 0.987863 -0.305383 -0.0408644 0.951352 0.0235455 -0.145162 -0.989128 
-0.324443 0.0780719 -0.942678 0.255191 -0.443768 -0.859039 -0.254223 -0.371285 -0.893039 
-0.543224 -0.183775 -0.819228 0.375938 -0.0548142 -0.925022 0.252037 -0.0173888 -0.967561 
-0.478089 0.186983 -0.858177 -0.0307803 0.428448 -0.903042 -0.169348 -0.677886 -0.715396 
-0.489952 -0.460516 -0.740184 -0.696843 -0.0267045 -0.716726 0.377178 0.182072 -0.908067 
-0.549187 0.305409 -0.777894 0.156341 0.453916 -0.877222 -0.343553 0.420083 -0.839942 
-0.317591 -0.791847 -0.521645 0.0702541 -0.649689 -0.756947 -0.566346 -0.473591 -0.674509 
0.595078 -0.324613 -0.735193 0.530546 -0.00895714 -0.847609 -0.725167 0.34687 -0.594822 
-0.597936 0.516987 -0.612533 0.0556668 -0.871764 -0.486753 0.536427 -0.356024 -0.765175 
0.476231 0.170319 -0.862668 -0.198432 0.679716 -0.706124 0.45961 -0.706861 -0.537686 
-0.69608 -0.397515 -0.597875 0.612403 -0.613918 -0.498062 0.756973 -0.307654 -0.57649 
0.598945 -0.0833539 -0.796441 -0.0861883 -0.962282 -0.258042 -0.291302 -0.887528 -0.356985 
0.213332 -0.940088 -0.26594 0.549322 -0.741673 -0.384923 0.612902 -0.307556 -0.727846 
0.7657 -0.294154 -0.571993 -0.114497 0.705872 -0.699025 0.0402406 -0.924572 -0.378877 
-0.609489 -0.654658 -0.447153 0.67731 -0.610845 -0.410024 -0.705513 -0.530985 -0.469368 
0.726446 -0.596744 -0.340842 -0.761936 -0.210905 -0.612349 0.787475 -0.485341 -0.379905 
0.251809 0.485191 -0.837366 -0.153204 -0.986699 -0.0543533 0.0935109 -0.995577 0.00902051 
0.333418 -0.934132 -0.127398 0.52545 -0.843281 -0.113046 -0.461045 -0.863206 -0.2057 
0.774513 -0.580498 -0.251299 -0.82708 0.249595 -0.503628 0.690745 -0.268715 -0.671315 
0.532849 0.0698626 -0.843322 -0.670388 0.6445 -0.367695 0.52508 -0.158987 -0.836071 
0.357732 0.229948 -0.90507 0.0189571 0.743033 -0.668986 -0.252999 0.822549 -0.509318 
0.095712 0.648761 -0.754949 0.573396 -0.809399 0.12685 -0.739199 -0.387948 -0.550528 
-0.774128 -0.258125 -0.578012 -0.793305 0.0120387 -0.608706 -0.80821 0.58556 -0.0625857 
0.194529 -0.968836 0.153345 -0.181985 -0.97977 0.0832646 -0.647682 -0.722278 -0.242536 
0.714114 -0.696275 -0.0724045 -0.828852 -0.241257 -0.504777 0.540987 -0.537096 -0.647195 
0.449718 -0.599864 -0.661753 0.27501 -0.185282 -0.943419 0.26729 0.0860881 -0.959763 
0.210088 0.234093 -0.949244 0.212506 0.271579 -0.938662 0.223441 0.155736 -0.962195 
-0.422861 0.69219 -0.58486 -0.273377 0.73065 -0.625632 -0.691442 -0.663475 -0.285849 
-0.83444 -0.00737568 -0.55105 -0.734995 0.522495 -0.432182 0.615194 -0.710279 -0.342111 
0.38433 -0.142244 -0.912172 0.358408 0.268158 -0.894223 0.196506 0.60001 -0.775483 
0.023121 -0.956372 0.291235 -0.257609 -0.964012 0.0657144 0.42113 -0.862927 0.279296 
-0.788455 -0.480404 -0.384123 -0.83447 -0.0690037 -0.546716 0.430395 -0.827642 -0.360236 
0.373403 -0.0693217 -0.925076 -0.604186 0.719311 -0.342857 0.234356 0.482591 -0.843909 
0.335682 -0.841981 0.422358 -0.798783 -0.501671 -0.332074 -0.876089 -0.268569 -0.400422 
-0.853287 -0.502683 -0.138603 -0.905053 -0.103094 -0.412615 -0.820116 0.302709 -0.485569 
0.474381 -0.879631 0.0348091 -0.646591 0.702625 -0.297048 -0.620186 0.780315 -0.0804831 
0.354657 -0.157188 -0.921689 0.480543 -0.116003 -0.869265 -0.21887 0.815523 -0.53574 
-0.400224 -0.89317 0.205104 0.0436245 -0.883445 0.4665 -0.393088 -0.875906 0.279768 
-0.663306 -0.739529 0.114553 -0.931439 -0.09756 -0.350576 -0.85753 0.39569 -0.328743 
-0.537993 0.840511 -0.0640729 -0.694881 0.711898 0.101694 0.295322 -0.893058 -0.339459 
0.508355 0.240362 -0.826923 0.61465 0.207931 -0.760901 0.458312 0.376767 -0.804982 
-0.0714122 -0.927054 0.368063 -0.575072 -0.816583 0.0498563 -0.801015 -0.587324 0.115872 
0.384092 -0.742882 0.54827 -0.866914 -0.4285 0.254652 -0.997733 -0.0577264 -0.0346001 
-0.878738 0.477237 -0.00794542 -0.743927 0.659235 0.109463 0.317582 -0.521957 -0.791646 
0.305192 -0.730105 -0.611396 0.662385 0.131266 -0.737574 -0.461736 0.838789 -0.288501 
0.375345 0.707334 -0.598994 -0.321455 0.869001 -0.376171 -0.311892 -0.759657 0.570653 
-0.056796 -0.784231 0.617864 0.163929 -0.766402 0.621092 -0.72647 -0.638781 0.253377 
-0.475361 -0.693071 0.541926 -0.507087 -0.60243 0.616393 -0.927045 -0.0344425 0.373364 
-0.843431 0.4203 0.334623 -0.850143 0.0713293 0.521698 -0.832649 0.466851 0.297902 
-0.551915 0.825713 0.116566 -0.375732 0.816326 0.438677 -0.477934 0.78615 0.391852 
-0.476515 0.63091 0.612279 -0.755256 0.459057 0.46782 0.241394 -0.863404 -0.443015 
0.39075 -0.658012 -0.643688 0.655931 -0.379666 -0.652387 0.772943 0.136435 -0.619633 
-0.850111 0.455711 0.263893 0.622005 0.585499 -0.519905 0.151637 0.809415 -0.567322 
-0.0204792 0.996583 -0.0800183 -0.198346 -0.756753 0.622883 -0.773694 -0.327499 0.542348 
0.261224 -0.710682 0.653217 -0.600384 -0.269169 0.753052 -0.715606 0.174857 0.676264 
-0.642216 0.670624 0.371244 -0.434908 0.682233 0.587718 -0.374395 0.646779 0.664459 
-0.601896 0.549193 0.579749 0.466115 -0.526768 -0.710811 0.555321 -0.65971 -0.506361 
0.897101 0.0463958 -0.439383 0.755653 0.525096 -0.391488 0.709529 0.522409 -0.472924 
0.497066 0.739212 -0.454413 -0.0380856 0.836815 -0.546159 0.105394 0.910615 -0.399591 
-0.220341 -0.445496 0.867746 -0.106967 -0.477666 0.872005 0.023223 -0.664094 0.747288 
-0.465612 -0.139379 0.873944 -0.59026 -0.0156979 0.80706 -0.425772 0.246214 0.870688 
-0.451776 0.0782871 0.88869 -0.358867 0.462016 0.811022 -0.175809 0.189792 0.965956 