# vtk DataFile Version 4.2
vtk output
ASCII
DATASET POLYDATA
POINTS 3042 float
197.104 126.924 172.887 194.64 127.967 172.934 196.225 137.628 172.802 
197.901 136.327 173.147 196.686 138.259 172.859 197.852 137.752 173.185 
198.285 138.994 173.516 195.103 141.196 172.624 197.658 140.106 173.327 
194.847 142.827 172.614 195.421 142.482 172.724 193.196 145.026 172.402 
194.505 144.439 172.597 195.745 145.023 173.06 194.25 147.299 172.717 
188.749 149.38 172.207 191.879 148.869 172.271 193.198 149.397 172.555 
182.096 152.583 172.695 187.822 152.15 172.229 193.528 151.102 172.831 
199.742 121.545 174.048 194.972 124.668 173.48 198.329 125.04 173.233 
201.166 126.953 173.606 201.37 128.406 173.643 199.565 129.997 173.153 
202.716 130.337 174.371 188.97 132.319 173.738 191.845 132.774 173.234 
196.268 135.571 172.895 194.8 136.613 172.846 199.56 135.307 173.832 
198.235 139.751 173.601 188.794 144.198 172.751 197.178 143.289 173.561 
196.711 144.436 173.49 184.997 147.772 172.839 189.965 153.876 172.393 
179.703 155.49 172.934 192.037 154.213 172.772 192.937 155.362 173.321 
179.335 158.993 173.008 182.814 158.872 172.775 189.744 159.713 173.239 
197.885 119.515 174.736 196.527 120.382 174.604 192.234 122.573 174.769 
203.177 121.537 174.694 189.971 124.782 174.723 190.213 124.426 174.722 
190.58 128.05 173.798 204.182 128.232 175.088 204.225 128.218 175.185 
203.241 130.601 174.983 186.05 132.998 174.49 199.213 139.217 174.268 
199.831 138.661 174.755 199.659 139.664 174.891 200.048 139.821 175.503 
198.574 141.98 174.403 199.011 141.495 174.733 197.734 143.886 174.131 
198.977 143.441 175.512 180.488 148.555 173.694 196.356 148.72 174.178 
196.945 148.283 174.7 196.357 150.375 174.627 196.058 151.323 174.571 
196.336 151.922 175.066 177.613 154.401 173.409 196.019 153.752 175.216 
194.299 155.781 174.146 175.757 158.002 173.585 193.39 157.547 173.964 
194.06 158.13 174.454 195.19 157.733 175.288 193.884 159.196 174.532 
191.399 160.432 173.712 192.908 161.198 174.335 180.914 162.797 173.289 
203.065 117.991 175.375 206.831 119.776 176.119 207.935 120.261 176.802 
205.055 122.699 175.468 190.065 124.258 174.869 191.386 124.75 174.345 
203.174 127.236 174.378 203.501 131.712 176.045 182.511 135.031 175.823 
184.176 136.03 175.278 200.781 137.559 175.535 200.22 140.482 176.218 
198.592 144.529 175.41 199.338 143.359 176.22 179.639 146.333 174.642 
197.961 147.009 175.684 197.774 148.685 176.198 197.429 150.667 176.429 
174.619 153.231 174.396 196.038 155.186 175.684 196.251 155.576 176.144 
193.261 166.336 175.193 187.348 170.5 174.608 184.389 172.508 174.617 
189.759 172.949 175.626 177.738 175.591 174.825 184.741 176.145 175.509 
177.123 178.691 175.496 180.99 178.622 175.761 208.449 116.37 176.987 
208.224 119.114 176.776 208.201 121.018 177.236 206.538 123.653 176.712 
184.802 127.219 176.056 205.547 126.742 176.639 204.74 129.481 176.599 
182.69 130.938 176.017 184.269 138.025 175.548 186.07 138.764 174.69 
175.994 145.701 176.447 171.302 150.964 176.131 170.564 157.28 175.181 
195.978 158.416 176.355 196.328 157.649 176.847 195.983 161.405 176.453 
196.247 160.51 176.818 195.815 162.444 176.253 195.075 164.411 175.748 
197.557 165.275 177.97 196.17 167.324 176.775 170.252 169.048 175.156 
194.261 169.524 176.252 165.775 172.083 176.074 170.066 175.931 175.586 
186.349 176.573 175.997 188.25 176.32 176.398 168.568 178.33 176.203 
171.677 180.349 176.205 172.495 182.49 176.875 194.84 116.558 176.848 
209.323 117.865 177.414 208.137 122.1 177.659 208.412 121.777 177.801 
179.914 132.744 177.164 202.977 134.023 177.379 183.222 138.555 176.088 
183.98 138.631 175.841 184.479 139.023 175.476 184.005 139.147 175.79 
183.633 139.55 175.806 200.872 139.721 177.634 176.983 143.4 177.334 
170.736 148.017 177.615 198.116 149.225 177.612 166.819 157.247 176.599 
196.905 156.684 178.07 197.3 162.094 178.256 197.392 166.731 177.772 
193.259 172.86 176.872 196.21 171.735 178.145 165.177 176.985 176.807 
168.685 181.407 177.063 175.892 183.245 177.333 171.873 183.538 177.507 
204.836 111.324 178.198 198.96 112.406 178.25 208.268 113.164 177.883 
210.947 114.965 178.548 211.052 117.183 178.675 211.978 117.491 179.745 
187.871 119.339 178.163 211.22 119.004 179.568 210.197 119.793 178.788 
179.71 129.834 177.93 205.295 129.758 178.422 204.586 131.302 178.526 
176.561 135.398 179.304 183.828 138.785 176.143 183.642 138.841 176.191 
183.815 138.807 176.342 183.849 138.872 176.138 179.715 138.277 177.589 
182.977 139.249 176.13 183.655 139.082 176.077 183.79 138.851 176.331 
179.816 140.851 177.093 177.842 142.072 177.677 167.389 151.864 177.601 
197.586 152.82 178.356 197.201 155.073 178.558 197.3 160.57 179.095 
162.2 167.109 177.251 197.769 168.219 178.49 197.759 169.767 178.879 
160.204 171.353 177.867 163.197 175.961 177.241 184.413 181.12 177.823 
186.886 180.187 178.164 165.675 181.648 178.033 178.994 183.064 177.67 
169.27 184.841 178.725 171.855 186.117 179.292 174.717 185.544 178.805 
202.952 110.594 178.784 211.214 111.551 179.542 191.6 115.04 179.073 
184.638 120.878 179.136 211.261 119.599 180.24 179.613 127.079 179.095 
178.349 129.12 179.11 176.683 131.677 179.474 203.823 133.05 179.652 
175.162 135.07 180.298 183.864 138.76 176.584 183.875 138.751 176.62 
183.873 138.755 176.605 183.853 138.773 176.526 183.817 138.791 176.461 
183.83 138.827 176.336 183.84 138.796 176.459 183.862 138.762 176.582 
179.441 140.409 177.475 177.458 141.693 178.144 175.299 142.571 178.941 
169.662 146.781 179.04 198.647 147.877 179.051 166.165 149.157 179.676 
164.232 151.799 179.571 197.415 154.314 179.344 163.406 157.637 178.053 
159.443 164.238 178.716 198.05 163.614 179.587 158.165 168.134 178.834 
197.233 173.15 179.743 159.668 176.346 178.611 194.063 176.452 179.15 
162.087 181.049 179.129 178.251 185.41 179.406 169.988 187.113 180.461 
206.586 108.278 180.132 214.51 113.422 181.459 213.073 116.289 180.727 
212.572 117.481 180.629 175.266 131.687 180.591 174.043 136.664 181.668 
183.871 138.757 176.603 183.864 138.766 176.566 177.269 140.583 178.89 
198.435 148.934 180.001 164.221 151.225 179.896 198.892 167.464 180.572 
156.078 170.613 179.845 198.515 171.296 180.527 186.291 182.923 180.32 
163.876 184.652 180.479 181.632 184.705 179.975 165.647 185.566 180.48 
210.074 108.18 180.614 213.474 109.351 181.35 195.434 110.546 180.77 
215.06 110.604 181.989 186.258 116.519 181.144 214.327 114.938 181.796 
212.66 118.251 181.663 207.976 124.949 180.461 173.566 132.922 181.83 
172.762 135.471 182.746 176.005 138.723 180.466 177.58 139.234 179.21 
177.517 139.228 179.306 177.516 139.251 179.303 177.383 139.027 179.356 
171.778 143.188 180.954 162.847 150.645 181.474 197.844 151.787 180.993 
197.389 154.769 181.156 159.845 155.559 181.099 158.24 158.962 180.781 
197.315 159.182 181.999 155.828 163.072 181.146 154.919 166.238 181.025 
156.183 177.856 180.631 157.042 181.418 181.715 169.048 187.88 181.612 
175.921 187.648 181.116 174.202 188.031 181.265 213.271 105.842 182.58 
215.628 107.961 182.967 215.836 112.069 182.911 178.307 123.791 182.197 
206.166 128.676 182.098 172.899 133.298 182.498 172.337 134.918 183.258 
172.463 135.416 183.268 175.325 138.326 181.136 177.064 139.303 179.571 
173.924 140.113 182.048 174.92 139.595 181.366 165.608 147.175 181.961 
199.094 171.407 181.683 198.876 173.874 182.364 153.122 177.995 182.313 
153.785 180.479 183.014 189.312 183.202 182.494 197.476 107.002 183.112 
215.475 106.656 183.192 189.552 111.886 183.052 173.519 129.924 183.124 
171.995 133.765 183.754 172.212 134.47 183.398 172.184 135.471 183.921 
174.815 138.449 181.803 175.101 139.054 181.397 173.638 139.746 182.616 
170.009 143.341 182.406 163.188 149.2 182.492 197.721 151.117 182.847 
155.991 157.793 183.48 154.856 160.468 183.089 197.543 161.655 183.24 
199.067 166.731 182.654 151.802 168.442 182.962 152.185 172.913 182.171 
150.261 175.154 183.535 198.353 176.224 183.035 196.681 178.186 182.742 
160.685 185.821 183.426 207.53 102.726 183.71 213.33 102.307 184.206 
200.85 104.683 183.773 216.208 105.197 184.096 217.873 105.124 185.325 
218.017 105.915 185.396 191.189 109.981 183.865 187.959 111.915 184.292 
217.343 110.607 185.018 182.93 116.372 184.148 215.15 115.574 184.619 
213.063 118.607 184.277 210.103 122.383 183.885 204.704 130.963 183.79 
171.443 132.367 185.226 171.536 133.115 184.749 171.549 133.412 184.686 
171.677 135.26 185.257 174.634 138.504 182.085 174.718 138.539 182.041 
174.625 138.651 182.088 172.138 140.151 183.957 163.988 147.014 184.451 
161.029 150.601 183.712 197.498 151.273 183.832 158.296 153.484 184.395 
155.659 156.633 184.946 151.659 165.073 184.362 150.484 169.832 183.815 
149.857 172.198 183.935 200.097 172.102 184.832 199.918 174.4 184.641 
157.905 184.667 183.926 169.223 189.785 184.193 175.969 189.761 184.165 
202.676 102.861 184.863 211.189 101.094 184.595 216.96 101.698 185.615 
217.894 102.291 185.868 216.877 104.502 184.707 193.803 107.372 184.946 
218.422 106.93 185.93 189.144 110.523 184.887 215.616 115.022 185.264 
214.851 116.377 185.818 177.84 120.959 185.132 209.706 122.915 184.402 
172.041 130.508 184.98 174.708 138.549 182.055 172.804 137.923 184.093 
173.156 138.514 183.65 173.881 138.619 182.832 172.148 139.071 184.824 
171.869 139.555 184.861 173.463 139.084 183.205 155.744 156.026 185.499 
196.72 159.894 185.25 148.775 168.794 186.181 147.359 173.511 186.213 
200.457 174.358 186.064 199.95 176.26 185.5 147.471 177.614 186.218 
198.403 178.61 184.929 195.047 181.436 184.925 188.014 185.938 185.369 
182.648 187.991 184.937 214.216 98.4852 186.754 217.292 98.7179 187.066 
206.7 99.9799 186.4 215.84 100.416 185.805 218.279 100.376 186.714 
218.827 102.912 186.437 218.896 104.631 186.379 219.346 104.055 186.891 
219.76 104.266 187.475 219.714 105.626 187.697 189.457 109.213 186.385 
[...]
POINT_DATA 3042
SCALARS scalars float
LOOKUP_TABLE default
1 1 1 1 1 1 1 1 1 
1 1 1 1 1 1 1 1 1 
1 1 1 1 1 1 1 1 1 
1 1 1 1 1 1 1 1 1 
1 1 1 1 1 1 1 1 1 
1 1 1 1 1 1 1 1 1 
1 1 1 1 1 1 1 1 1 
1 1 1 1 1 1 1 1 1 
1 1 1 1 1 1 1 1 1 
1 1 1 1 1 1 1 1 1 
1 1 1 1 1 1 1 1 1 
1 1 1 1 1 1 1 1 1 
1 1 1 1 1 1 1 1 1 
1 1 1 1 1 1 1 1 1 
1 1 1 1 1 1 1 1 1 
1 1 1 1 1 1 1 1 1 
1 1 1 1 1 1 1 1 1 
1 1 1 1 1 1 1 1 1 
1 1 1 1 1 1 1 1 1 
1 1 1 1 1 1 1 1 1 
1 1 1 1 1 1 1 1 1 
1 1 1 1 1 1 1 1 1 
1 1 1 1 1 1 1 1 1 
1 1 1 1 1 1 1 1 1 
1 1 1 1 1 1 1 1 1 
1 1 1 1 1 1 1 1 1 
1 1 1 1 1 1 1 1 1 
1 1 1 1 1 1 1 1 1 
1 1 1 1 1 1 1 1 1 
1 1 1 1 1 1 1 1 1 
1 1 1 1 1 1 1 1 1 
1 1 1 1 1 1 1 1 1 
1 1 1 1 1 1 1 1 1 
1 1 1 1 1 1 1 1 1 
1 1 1 1 1 1 1 1 1 
1 1 1 1 1 1 1 1 1 
1 1 1 1 1 1 1 1 1 
1 1 1 1 1 1 1 1 1 
1 1 1 1 1 1 1 1 1 
1 1 1 1 1 1 1 1 1 
1 1 1 1 1 1 1 1 1 
1 1 1 1 1 1 1 1 1 
1 1 1 1 1 1 1 1 1 
1 1 1 1 1 1 1 1 1 
1 1 1 1 1 1 1 1 1 
1 1 1 1 1 1 1 1 1 
1 1 1 1 1 1 1 1 1 
1 1 1 1 1 1 1 1 1 
1 1 1 1 1 1 1 1 1 
1 1 1 1 1 1 1 1 1 
1 1 1 1 1 1 1 1 1 
1 1 1 1 1 1 1 1 1 
1 1 1 1 1 1 1 1 1 
1 1 1 1 1 1 1 1 1 
1 1 1 1 1 1 1 1 1 
1 1 1 1 1 1 1 1 1 
1 1 1 1 1 1 1 1 1 
1 1 1 1 1 1 1 1 1 
1 1 1 1 1 1 1 1 1 
1 1 1 1 1 1 1 1 1 
1 1 1 1 1 1 1 1 1 
1 1 1 1 1 1 1 1 1 
1 1 1 1 1 1 1 1 1 
1 1 1 1 1 1 1 1 1 
1 1 1 1 1 1 1 1 1 
1 1 1 1 1 1 1 1 1 
1 1 1 1 1 1 1 1 1 
1 1 1 1 1 1 1 1 1 
1 1 1 1 1 1 1 1 1 
1 1 1 1 1 1 1 1 1 
1 1 1 1 1 1 1 1 1 
1 1 1 1 1 1 1 1 1 
1 1 1 1 1 1 1 1 1 
1 1 1 1 1 1 1 1 1 
1 1 1 1 1 1 1 1 1 
1 1 1 1 1 1 1 1 1 
1 1 1 1 1 1 1 1 1 
1 1 1 1 1 1 1 1 1 
1 1 1 1 1 1 1 1 1 
1 1 1 1 1 1 1 1 1 
1 1 1 1 1 1 1 1 1 
1 1 1 1 1 1 1 1 1 
1 1 1 1 1 1 1 1 1 
1 1 1 1 1 1 1 1 1 
1 1 1 1 1 1 1 1 1 
1 1 1 1 1 1 1 1 1 
1 1 1 1 1 1 1 1 1 
1 1 1 1 1 1 1 1 1 
1 1 1 1 1 1 1 1 1 
1 1 1 1 1 1 1 1 1 
1 1 1 1 1 1 1 1 1 
1 1 1 1 1 1 1 1 1 
1 1 1 1 1 1 1 1 1 
1 1 1 1 1 1 1 1 1 
1 1 1 1 1 1 1 1 1 
1 1 1 1 1 1 1 1 1 
1 1 1 1 1 1 1 1 1 
1 1 1 1 1 1 1 1 1 
1 1 1 1 1 1 1 1 1 
1 1 1 1 1 1 1 1 1 
1 1 1 1 1 1 1 1 1 
1 1 1 1 1 1 1 1 1 
1 1 1 1 1 1 1 1 1 
1 1 1 1 1 1 1 1 1 
1 1 1 1 1 1 1 1 1 
1 1 1 1 1 1 1 1 1 
1 1 1 1 1 1 1 1 1 
1 1 1 1 1 1 1 1 1 
1 1 1 1 1 1 1 1 1 
1 1 1 1 1 1 1 1 1 
1 1 1 1 1 1 1 1 1 
1 1 1 1 1 1 1 1 1 
1 1 1 1 1 1 1 1 1 
1 1 1 1 1 1 1 1 1 
1 1 1 1 1 1 1 1 1 
1 1 1 1 1 1 1 1 1 
1 1 1 1 1 1 1 1 1 
1 1 1 1 1 1 1 1 1 
1 1 1 1 1 1 1 1 1 
1 1 1 1 1 1 1 1 1 
1 1 1 1 1 1 1 1 1 
1 1 1 1 1 1 1 1 1 
1 1 1 1 1 1 1 1 1 
1 1 1 1 1 1 1 1 1 
1 1 1 1 1 1 1 1 1 
1 1 1 1 1 1 1 1 1 
1 1 1 1 1 1 1 1 1 
1 1 1 1 1 1 1 1 1 
1 1 1 1 1 1 1 1 1 
1 1 1 1 1 1 1 1 1 
1 1 1 1 1 1 1 1 1 
1 1 1 1 1 1 1 1 1 
1 1 1 1 1 1 1 1 1 
1 1 1 1 1 1 1 1 1 
1 1 1 1 1 1 1 1 1 
1 1 1 1 1 1 1 1 1 
1 1 1 1 1 1 1 1 1 
1 1 1 1 1 1 1 1 1 
1 1 1 1 1 1 1 1 1 
1 1 1 1 1 1 1 1 1 
1 1 1 1 1 1 1 1 1 
1 1 1 1 1 1 1 1 1 
1 1 1 1 1 1 1 1 1 
1 1 1 1 1 1 1 1 1 
1 1 1 1 1 1 1 1 1 
1 1 1 1 1 1 1 1 1 
1 1 1 1 1 1 1 1 1 
1 1 1 1 1 1 1 1 1 
1 1 1 1 1 1 1 1 1 
1 1 1 1 1 1 1 1 1 
1 1 1 1 1 1 1 1 1 
1 1 1 1 1 1 1 1 1 
1 1 1 1 1 1 1 1 1 
1 1 1 1 1 1 1 1 1 
1 1 1 1 1 1 1 1 1 
1 1 1 1 1 1 1 1 1 
1 1 1 1 1 1 1 1 1 
1 1 1 1 1 1 1 1 1 
1 1 1 1 1 1 1 1 1 
1 1 1 1 1 1 1 1 1 
1 1 1 1 1 1 1 1 1 
1 1 1 1 1 1 1 1 1 
1 1 1 1 1 1 1 1 1 
1 1 1 1 1 1 1 1 1 
1 1 1 1 1 1 1 1 1 
1 1 1 1 1 1 1 1 1 
1 1 1 1 1 1 1 1 1 
1 1 1 1 1 1 1 1 1 
1 1 1 1 1 1 1 1 1 
1 1 1 1 1 1 1 1 1 
1 1 1 1 1 1 1 1 1 
1 1 1 1 1 1 1 1 1 
1 1 1 1 1 1 1 1 1 
1 1 1 1 1 1 1 1 1 
1 1 1 1 1 1 1 1 1 
1 1 1 1 1 1 1 1 1 
1 1 1 1 1 1 1 1 1 
1 1 1 1 1 1 1 1 1 
1 1 1 1 1 1 1 1 1 
1 1 1 1 1 1 1 1 1 
1 1 1 1 1 1 1 1 1 
1 1 1 1 1 1 1 1 1 
1 1 1 1 1 1 1 1 1 
1 1 1 1 1 1 1 1 1 
1 1 1 1 1 1 1 1 1 
1 1 1 1 1 1 1 1 1 
1 1 1 1 1 1 1 1 1 
1 1 1 1 1 1 1 1 1 
1 1 1 1 1 1 1 1 1 
1 1 1 1 1 1 1 1 1 
1 1 1 1 1 1 1 1 1 
1 1 1 1 1 1 1 1 1 
1 1 1 1 1 1 1 1 1 
1 1 1 1 1 1 1 1 1 
1 1 1 1 1 1 1 1 1 
1 1 1 1 1 1 1 1 1 
1 1 1 1 1 1 1 1 1 
1 1 1 1 1 1 1 1 1 
1 1 1 1 1 1 1 1 1 
1 1 1 1 1 1 1 1 1 
1 1 1 1 1 1 1 1 1 
1 1 1 1 1 1 1 1 1 
1 1 1 1 1 1 1 1 1 
1 1 1 1 1 1 1 1 1 
1 1 1 1 1 1 1 1 1 
1 1 1 1 1 1 1 1 1 
1 1 1 1 1 1 1 1 1 
1 1 1 1 1 1 1 1 1 
1 1 1 1 1 1 1 1 1 
1 1 1 1 1 1 1 1 1 
1 1 1 1 1 1 1 1 1 
1 1 1 1 1 1 1 1 1 
1 1 1 1 1 1 1 1 1 
1 1 1 1 1 1 1 1 1 
1 1 1 1 1 1 1 1 1 
1 1 1 1 1 1 1 1 1 
1 1 1 1 1 1 1 1 1 
1 1 1 1 1 1 1 1 1 
1 1 1 1 1 1 1 1 1 
1 1 1 1 1 1 1 1 1 
1 1 1 1 1 1 1 1 1 
1 1 1 1 1 1 1 1 1 
1 1 1 1 1 1 1 1 1 
1 1 1 1 1 1 1 1 1 
1 1 1 1 1 1 1 1 1 
1 1 1 1 1 1 1 1 1 
1 1 1 1 1 1 1 1 1 
1 1 1 1 1 1 1 1 1 
1 1 1 1 1 1 1 1 1 
1 1 1 1 1 1 1 1 1 
1 1 1 1 1 1 1 1 1 
1 1 1 1 1 1 1 1 1 
1 1 1 1 1 1 1 1 1 
1 1 1 1 1 1 1 1 1 
1 1 1 1 1 1 1 1 1 
1 1 1 1 1 1 1 1 1 
1 1 1 1 1 1 1 1 1 
1 1 1 1 1 1 1 1 1 
1 1 1 1 1 1 1 1 1 
1 1 1 1 1 1 1 1 1 
1 1 1 1 1 1 1 1 1 
1 1 1 1 1 1 1 1 1 
1 1 1 1 1 1 1 1 1 
1 1 1 1 1 1 1 1 1 
1 1 1 1 1 1 1 1 1 
1 1 1 1 1 1 1 1 1 
1 1 1 1 1 1 1 1 1 
1 1 1 1 1 1 1 1 1 
1 1 1 1 1 1 1 1 1 
1 1 1 1 1 1 1 1 1 
1 1 1 1 1 1 1 1 1 
1 1 1 1 1 1 1 1 1 
1 1 1 1 1 1 1 1 1 
1 1 1 1 1 1 1 1 1 
1 1 1 1 1 1 1 1 1 
1 1 1 1 1 1 1 1 1 
1 1 1 1 1 1 1 1 1 
1 1 1 1 1 1 1 1 1 
1 1 1 1 1 1 1 1 1 
1 1 1 1 1 1 1 1 1 
1 1 1 1 1 1 1 1 1 
1 1 1 1 1 1 1 1 1 
1 1 1 1 1 1 1 1 1 
1 1 1 1 1 1 1 1 1 
1 1 1 1 1 1 1 1 1 
1 1 1 1 1 1 1 1 1 
1 1 1 1 1 1 1 1 1 
1 1 1 1 1 1 1 1 1 
1 1 1 1 1 1 1 1 1 
1 1 1 1 1 1 1 1 1 
1 1 1 1 1 1 1 1 1 
1 1 1 1 1 1 1 1 1 
1 1 1 1 1 1 1 1 1 
1 1 1 1 1 1 1 1 1 
1 1 1 1 1 1 1 1 1 
1 1 1 1 1 1 1 1 1 
1 1 1 1 1 1 1 1 1 
1 1 1 1 1 1 1 1 1 
1 1 1 1 1 1 1 1 1 
1 1 1 1 1 1 1 1 1 
1 1 1 1 1 1 1 1 1 
1 1 1 1 1 1 1 1 1 
1 1 1 1 1 1 1 1 1 
1 1 1 1 1 1 1 1 1 
1 1 1 1 1 1 1 1 1 
1 1 1 1 1 1 1 1 1 
1 1 1 1 1 1 1 1 1 
1 1 1 1 1 1 1 1 1 
1 1 1 1 1 1 1 1 1 
1 1 1 1 1 1 1 1 1 
1 1 1 1 1 1 1 1 1 
1 1 1 1 1 1 1 1 1 
1 1 1 1 1 1 1 1 1 
1 1 1 1 1 1 1 1 1 
1 1 1 1 1 1 1 1 1 
1 1 1 1 1 1 1 1 1 
1 1 1 1 1 1 1 1 1 
1 1 1 1 1 1 1 1 1 
1 1 1 1 1 1 1 1 1 
1 1 1 1 1 1 1 1 1 
1 1 1 1 1 1 1 1 1 
1 1 1 1 1 1 1 1 1 
1 1 1 1 1 1 1 1 1 
1 1 1 1 1 1 1 1 1 
1 1 1 1 1 1 1 1 1 
1 1 1 1 1 1 1 1 1 
1 1 1 1 1 1 1 1 1 
1 1 1 1 1 1 1 1 1 
1 1 1 1 1 1 1 1 1 
1 1 1 1 1 1 1 1 1 
1 1 1 1 1 1 1 1 1 
1 1 1 1 1 1 1 1 1 
1 1 1 1 1 1 1 1 1 
1 1 1 1 1 1 1 1 1 
1 1 1 1 1 1 1 1 1 
1 1 1 1 1 1 1 1 1 
1 1 1 1 1 1 1 1 1 
1 1 1 1 1 1 1 1 1 
1 1 1 1 1 1 1 1 1 
1 1 1 1 1 1 1 1 1 
1 1 1 1 1 1 1 1 1 
1 1 1 1 1 1 1 1 1 
1 1 1 1 1 1 1 1 1 
1 1 1 1 1 1 1 1 1 
1 1 1 1 1 1 1 1 1 
1 1 1 1 1 1 1 1 1 
1 1 1 1 1 1 1 1 1 
1 1 1 1 1 1 1 1 1 
1 1 1 1 1 1 1 1 1 
1 1 1 1 1 1 1 1 1 
1 1 1 1 1 1 1 1 1 
1 1 1 1 1 1 1 1 1 
1 1 1 1 1 1 1 1 1 
1 1 1 1 1 1 1 1 1 
1 1 1 1 1 1 1 1 1 
1 1 1 1 1 1 1 1 1 
1 1 1 1 1 1 1 1 1 
1 1 1 1 1 1 1 1 1 

NORMALS Normals float
0.0142595 -0.0931422 -0.995551 -0.0895607 -0.0511646 -0.994666 -0.00359791 0.0471619 -0.998881 
0.267013 -0.0527779 -0.962247 0.18527 0.0507746 -0.981375 0.42717 0.0471379 -0.902942 
0.501091 0.166614 -0.849204 0.145898 0.0122314 -0.989224 0.460407 0.174154 -0.870457 
0.141386 -0.0520759 -0.988584 0.174789 -0.0571497 -0.982946 0.127944 -0.0218844 -0.99154 
0.22683 -0.00363405 -0.973928 0.345974 0.098075 -0.933104 0.404891 0.0841277 -0.910487 
0.026126 0.0269732 -0.999295 0.053091 -0.00430895 -0.99858 0.265158 0.148166 -0.952753 
-0.107461 -0.0348013 -0.9936 -0.0578489 0.0389298 -0.997566 0.407851 0.162556 -0.898462 
0.0601979 -0.226532 -0.972142 -0.130544 -0.235355 -0.963102 0.107842 -0.119965 -0.986903 
0.279336 -0.00201885 -0.960191 0.322153 0.00475926 -0.946676 0.206419 0.0405957 -0.977621 
0.56182 0.272201 -0.781194 -0.254995 -0.086794 -0.963039 -0.124677 -0.064622 -0.990091 
0.0926957 -0.0391601 -0.994924 -0.0472392 0.000483487 -0.998883 0.459191 0.0939778 -0.883353 
0.599977 0.254483 -0.758463 -0.107696 -0.14751 -0.98318 0.480875 0.0589158 -0.874808 
0.571025 0.189394 -0.798787 -0.159493 -0.175277 -0.971514 0.126859 0.142423 -0.981643 
-0.231824 0.0810509 -0.969375 0.381252 0.134556 -0.914626 0.328433 0.194934 -0.924193 
-0.108958 0.0509994 -0.992737 -0.00376098 0.0695675 -0.99757 0.0690021 0.214567 -0.974269 
-0.0761581 -0.396145 -0.915024 -0.154558 -0.340333 -0.927516 -0.210893 -0.321444 -0.923146 
0.323969 -0.121474 -0.938237 -0.38012 -0.284088 -0.880229 -0.277885 -0.377497 -0.883332 
-0.177195 -0.141312 -0.973978 0.700384 0.0996353 -0.706777 0.853709 -0.00648457 -0.520711 
0.683173 0.359626 -0.635565 -0.319396 -0.0341154 -0.947007 0.623091 0.192756 -0.758026 
0.73814 0.191762 -0.64682 0.734757 0.210263 -0.64492 0.888653 -0.0140015 -0.458367 
0.672116 0.0178955 -0.740229 0.685981 0.0764396 -0.723593 0.69355 0.202193 -0.691452 
0.802791 0.171059 -0.571197 -0.276926 -0.220324 -0.935291 0.633685 0.15197 -0.758517 
0.717363 0.187404 -0.671021 0.766171 0.189158 -0.614168 0.689806 0.218649 -0.690188 
0.75684 0.23923 -0.608245 -0.291249 0.0423966 -0.955707 0.711828 0.159862 -0.683919 
0.633814 0.143782 -0.760004 -0.227944 -0.0316685 -0.973159 0.401927 0.154435 -0.902555 
0.510468 0.128668 -0.850216 0.690894 0.100877 -0.715884 0.572151 0.0981759 -0.814251 
0.256899 0.297577 -0.919484 0.251745 0.26712 -0.9302 -0.0144044 0.11857 -0.992841 
0.104154 -0.309873 -0.945056 0.398346 0.0758096 -0.914097 0.684507 0.142097 -0.715023 
0.540037 0.0376845 -0.840797 -0.340526 -0.393194 -0.854073 -0.137523 -0.289207 -0.947337 
0.520905 -0.0439275 -0.852484 0.774254 0.425468 -0.468516 -0.437466 0.0201511 -0.899009 
-0.463741 0.0895239 -0.881436 0.840484 0.375416 -0.390703 0.86982 0.278533 -0.407226 
0.811781 0.300743 -0.500565 0.871154 0.260958 -0.415922 -0.380606 -0.356293 -0.853343 
0.851899 0.223375 -0.473679 0.873648 0.246994 -0.419206 0.920366 0.184785 -0.344646 
-0.326556 -0.0903097 -0.940854 0.805057 0.196083 -0.559852 0.879556 0.132485 -0.456978 
0.346935 0.163844 -0.923467 0.179638 0.196191 -0.96397 0.0813362 0.182316 -0.97987 
0.257821 0.261488 -0.930136 -0.0225748 0.153234 -0.987932 0.164997 0.331629 -0.928869 
-0.00138186 0.280029 -0.959991 0.142186 0.34188 -0.928925 0.411518 -0.116687 -0.903901 
0.579124 0.122127 -0.80604 0.846106 0.0786747 -0.527177 0.717119 0.269976 -0.642537 
-0.396433 -0.271599 -0.876969 0.801314 0.235813 -0.549807 0.896981 0.227344 -0.37913 
-0.392184 -0.158346 -0.906156 -0.514313 0.157261 -0.84306 -0.320312 -0.0949862 -0.942538 
-0.38962 -0.403111 -0.828069 -0.407103 -0.290569 -0.865931 -0.324515 -0.0375699 -0.945134 
0.841072 0.108012 -0.530029 0.859201 0.112981 -0.499009 0.67464 -0.0354255 -0.737296 
0.812871 -0.0500545 -0.580289 0.657096 -0.0478191 -0.752289 0.512488 0.0499708 -0.857239 
0.794827 -0.0386767 -0.605602 0.586149 0.14231 -0.797607 -0.180553 0.0374595 -0.982852 
0.377527 0.22818 -0.897445 -0.250471 0.0537721 -0.96663 -0.145518 0.12336 -0.981635 
0.207059 0.371363 -0.905105 0.317154 0.413476 -0.853493 -0.168941 0.197916 -0.965551 
-0.0999723 0.305379 -0.946968 -0.066235 0.396235 -0.915757 -0.229263 -0.475089 -0.849546 
0.592252 0.0837596 -0.801387 0.612725 0.336642 -0.715011 0.843605 0.226332 -0.486934 
-0.499863 -0.122497 -0.857398 0.827579 0.419701 -0.37278 -0.286225 0.226358 -0.931041 
-0.56481 0.346284 -0.74905 -0.593983 -0.163358 -0.787717 -0.633737 -0.337311 -0.696131 
-0.431029 -0.45144 -0.781291 0.931707 0.142558 -0.334065 -0.452321 -0.476154 -0.75411 
-0.449251 -0.44877 -0.772515 0.935479 0.23066 -0.267724 -0.378567 -0.0660446 -0.923215 
0.968282 0.0860786 -0.234564 0.906932 -0.125777 -0.402062 0.778407 0.0461908 -0.626058 
0.414171 0.395794 -0.81964 0.573124 0.346749 -0.742492 -0.273278 0.203579 -0.940146 
-0.19701 0.380565 -0.903525 0.0670218 0.477468 -0.876089 -0.11291 0.494237 -0.861964 
0.0279649 -0.451626 -0.891769 -0.16902 -0.527622 -0.832495 0.248243 -0.347811 -0.904103 
0.627172 -0.0252595 -0.778471 0.657738 0.117826 -0.743975 0.785087 0.227387 -0.576137 
-0.408422 -0.433538 -0.803266 0.762027 0.360705 -0.53778 0.71024 0.344643 -0.613825 
-0.478466 -0.22982 -0.847498 0.909448 0.363133 -0.202581 0.864818 0.443332 -0.235683 
-0.567667 0.0527914 -0.821564 -0.476305 0.796442 -0.372577 0.285535 0.449341 -0.8465 
-0.535186 0.837788 0.108108 -0.903854 -0.197494 -0.379531 -0.535588 -0.121718 -0.835661 
-0.250065 -0.259544 -0.932794 -0.251434 -0.57372 -0.779504 -0.0790991 -0.9126 -0.401128 
-0.464173 -0.266073 -0.844836 -0.539934 -0.485018 -0.687916 -0.446317 -0.32575 -0.83348 
0.952021 0.156474 -0.263007 0.973406 0.0802527 -0.214571 0.967981 -0.0692867 -0.24127 
-0.324916 -0.0489884 -0.944473 0.791934 0.123056 -0.598078 0.793666 0.166755 -0.585053 
-0.370401 0.0351467 -0.928207 -0.31535 0.135344 -0.939274 0.269762 0.554634 -0.787153 
0.304038 0.523829 -0.795716 -0.288838 0.417055 -0.861764 0.168988 0.530636 -0.830583 
-0.186747 0.538079 -0.821947 -0.052316 0.624717 -0.779097 0.06267 0.628998 -0.774877 
-0.126366 -0.536619 -0.834309 0.368021 -0.294317 -0.882008 -0.404392 -0.55821 -0.724479 
-0.501961 -0.459799 -0.732544 0.753142 0.563722 -0.33911 -0.52847 -0.373482 -0.762385 
-0.595909 -0.291877 -0.748132 -0.602441 -0.215394 -0.768551 0.875775 0.476899 -0.074737 
-0.640084 0.0498374 -0.766686 0.455578 0.888526 0.0544969 0.799087 -0.037261 -0.600059 
-0.869723 0.412776 0.270551 -0.484354 0.823699 0.294823 0.77094 0.607937 -0.189906 
-0.982261 -0.180033 -0.0524487 -0.985465 -0.0978137 0.138895 0.858254 -0.321437 -0.400097 
-0.509791 -0.332892 -0.793281 -0.481155 -0.366912 -0.796157 -0.475805 -0.578096 -0.662884 
-0.500956 -0.51879 -0.692748 0.958739 0.232246 -0.163955 -0.506489 -0.476782 -0.718434 
-0.568358 -0.366643 -0.736575 0.97697 0.121035 -0.175725 -0.448637 -0.155419 -0.880097 
-0.4539 -0.160419 -0.876493 0.954328 -0.208497 -0.213979 -0.45386 -0.0908875 -0.886426 
0.710077 0.354599 -0.608317 -0.394755 0.203625 -0.895939 0.469146 0.500378 -0.727684 
-0.367633 0.384327 -0.846841 0.215733 0.684211 -0.696646 -0.144909 0.706331 -0.692891 
0.088887 -0.486037 -0.869406 0.649713 0.0146585 -0.760039 0.824637 0.328926 -0.460198 
0.794088 0.265431 -0.546781 -0.622699 -0.211974 -0.753202 -0.74071 0.257731 -0.620422 
-0.368787 -0.904847 -0.212716 -0.948173 -0.288957 0.132182 -0.592145 -0.360336 -0.720779 
0.979093 0.202353 0.0207294 -0.609189 -0.36134 -0.705919 0.944167 -0.0542248 -0.324975 
-0.47978 0.0331065 -0.876764 0.79611 0.245307 -0.553203 0.335698 0.703208 -0.626742 
-0.357828 0.545788 -0.757677 0.282818 0.700986 -0.6547 -0.285317 0.634033 -0.718746 
0.196468 -0.426357 -0.882961 0.426586 -0.24286 -0.871231 -0.329634 -0.607658 -0.72256 
0.634851 -0.0810641 -0.76837 -0.481993 -0.554323 -0.678534 0.794688 0.275596 -0.54085 
0.835362 0.429491 -0.343086 0.831102 0.446128 -0.332023 -0.726157 -0.129425 -0.675237 
-0.793368 0.162917 -0.586537 -0.657415 0.0585469 -0.751251 -0.77186 -0.0608523 -0.632874 
-0.66274 0.0730066 -0.745282 -0.603256 -0.159101 -0.781517 -0.544268 0.0739557 -0.835645 
-0.429791 -0.64496 -0.631907 -0.682833 -0.347182 -0.642809 0.983681 0.159372 -0.0834976 
0.974312 0.148603 -0.169215 -0.601326 -0.399863 -0.691749 -0.568186 -0.298148 -0.76699 
0.997447 -0.0683231 0.020781 -0.578416 -0.221834 -0.784999 -0.573308 -0.155274 -0.804493 
-0.436832 0.254172 -0.862887 -0.396804 0.464245 -0.791848 -0.167613 0.792502 -0.586384 
0.148806 0.741734 -0.653978 0.0128728 0.786036 -0.618047 0.29198 -0.372586 -0.880867 
0.648521 -0.124799 -0.750897 0.845959 0.171709 -0.504846 -0.639275 -0.433954 -0.634832 
0.863429 0.504162 -0.017637 -0.767017 -0.0702874 -0.637765 -0.898893 0.171191 -0.403343 
-0.876664 0.283704 -0.388553 -0.822502 0.0191574 -0.568439 -0.547878 -0.0698008 -0.833641 
-0.630613 -0.411875 -0.65779 -0.76948 -0.276492 -0.575719 -0.649725 -0.509116 -0.564498 
0.886809 0.159651 -0.433684 0.806615 0.257318 -0.532128 -0.496233 0.215275 -0.841076 
-0.458142 0.471375 -0.753599 0.410039 0.683049 -0.604411 -0.313341 -0.684015 -0.658742 
0.487143 -0.232168 -0.841897 -0.428951 -0.647378 -0.630002 -0.731772 -0.359304 -0.579146 
-0.898467 0.00140895 -0.439039 -0.889258 0.0981786 -0.446745 -0.909207 0.229413 -0.347437 
-0.840793 0.159394 -0.517359 -0.824332 -0.210425 -0.525545 -0.685495 -0.436186 -0.582957 
-0.54342 -0.646572 -0.535387 -0.60978 -0.585561 -0.534122 0.946181 0.190801 0.261411 
-0.654727 -0.456398 -0.602523 -0.721614 -0.369799 -0.585254 0.957683 -0.271291 0.0961483 
0.971573 -0.232371 -0.0452674 -0.699158 -0.207067 -0.684325 -0.553104 -0.018048 -0.832917 
-0.575934 0.0967225 -0.811754 0.738382 0.362717 -0.568532 0.599864 0.505317 -0.620337 
-0.355303 0.678802 -0.642641 -0.0456798 -0.560998 -0.826556 0.179252 -0.43162 -0.884066 
-0.28802 -0.664568 -0.689488 0.510485 -0.224222 -0.830138 0.696318 -0.113784 -0.708657 
0.698761 -0.0443757 -0.713977 -0.442377 -0.676318 -0.588979 -0.524645 -0.631832 -0.570557 
0.860173 0.177344 -0.478176 -0.61074 -0.602831 -0.513412 0.818292 0.50784 -0.269252 
0.829702 0.534811 -0.159912 0.723689 0.667129 -0.176671 0.905858 0.421816 0.0386259 
-0.945651 -0.110873 -0.305698 -0.820762 -0.131023 -0.556041 -0.930202 0.00161962 -0.367044 
-0.923853 0.255259 -0.285199 -0.622925 0.320086 -0.713799 -0.811949 0.200438 -0.548237 
-0.618942 -0.189264 -0.762292 -0.658296 -0.508707 -0.554855 -0.718511 -0.544037 -0.433319 
-0.706177 -0.465896 -0.533157 0.966531 0.127181 0.222809 -0.705776 -0.537037 -0.46203 
-0.745975 -0.479937 -0.461715 -0.732762 -0.261794 -0.628111 -0.645299 -0.148171 -0.749423 
-0.610175 -0.0762659 -0.788587 0.974124 -0.0754777 -0.21304 0.920787 0.115773 -0.372488 
-0.406926 0.63875 -0.653001 -0.155174 0.803934 -0.574118 0.182267 0.818374 -0.545016 
-0.32361 -0.736388 -0.594146 -0.0435758 -0.635 -0.771282 0.382737 -0.385377 -0.839641 
0.533748 -0.213835 -0.818161 0.441413 -0.280892 -0.852206 -0.438673 -0.716684 -0.542153 
0.856879 0.121539 -0.500985 -0.462954 -0.699951 -0.543822 0.870213 0.434417 -0.232404 
0.786839 0.603003 -0.131422 -0.646722 -0.56387 -0.513616 0.789095 0.572338 -0.223065 
-0.807378 -0.248094 -0.535342 -0.754806 -0.103381 -0.64775 -0.784074 -0.00101437 -0.620666 
-0.626123 -0.121175 -0.770251 -0.732939 -0.118418 -0.669909 -0.770476 -0.295713 -0.564731 
-0.71707 -0.462229 -0.521684 -0.621002 -0.371405 -0.690228 -0.744382 -0.470317 -0.474023 
0.938811 -0.094643 0.331175 -0.784115 -0.320572 -0.531411 -0.763872 -0.130342 -0.632068 
0.971204 -0.0568412 -0.231368 0.858813 0.276748 -0.431104 -0.728658 0.126762 -0.673045 
0.673933 0.528332 -0.51641 0.499063 0.70294 -0.506766 0.40235 0.784369 -0.472101 
0.355646 0.77902 -0.516376 0.0576655 -0.629476 -0.774878 0.277445 -0.516157 -0.810313 
-0.210129 -0.746032 -0.631887 0.282155 -0.425506 -0.859845 0.490745 -0.296186 -0.819416 
0.699606 -0.0997547 -0.707531 0.724693 -0.054125 -0.686943 0.726928 0.0197263 -0.68643 
0.862307 0.0195597 -0.506008 0.865272 0.174392 -0.469992 -0.468744 -0.750589 -0.465721 
0.862565 0.191489 -0.46831 0.916766 0.264214 -0.29955 0.89306 0.392777 -0.219478 
-0.884149 -0.137295 -0.446577 0.947177 0.00589402 0.320656 0.949184 -0.000730589 0.314722 
-0.813932 -0.35658 -0.458657 -0.624613 0.360152 -0.692928 -0.53964 0.427466 -0.725301 
-0.420152 0.628592 -0.65448 -0.106483 -0.829185 -0.548739 0.0251887 -0.888223 -0.458721 
-0.172944 -0.795425 -0.580853 -0.24253 -0.837483 -0.489696 -0.350769 -0.841585 -0.410726 
0.484994 -0.428988 -0.76207 0.762733 -0.179245 -0.621377 -0.435127 -0.81623 -0.380045 
-0.450369 -0.805181 -0.385813 -0.504095 -0.792493 -0.343283 -0.558702 -0.735856 -0.38258 
-0.795654 -0.428695 -0.427966 -0.871759 -0.309299 -0.37996 -0.983443 -0.12962 -0.126641 
-0.975346 -0.11045 -0.191053 -0.991025 0.103015 -0.085191 -0.950094 -0.221468 -0.219714 
-0.805515 -0.524601 -0.275573 -0.835039 -0.465918 -0.292627 0.894257 -0.372574 0.247978 
0.960215 -0.271864 -0.0638467 0.960684 -0.228498 -0.157718 -0.872102 -0.30176 -0.385198 
0.959956 0.0519052 -0.2753 -0.819329 0.190722 -0.540671 0.856995 0.373904 -0.354622 