# vtk DataFile Version 4.2
vtk output
ASCII
DATASET POLYDATA
POINTS 1024 float
194.963 127.763 173.176 192.569 129.342 173.426 192.428 129.147 173.441 
198.137 122.707 173.741 198.134 122.567 173.794 197.955 122.796 173.734 
198.479 126.123 173.56 199.642 125.254 173.817 196.86 127.129 173.368 
199.201 126.877 174.067 196.94 128.238 173.751 199.782 127.197 174.564 
193.355 129.983 173.603 197.363 128.642 174.169 195.112 129.873 173.888 
189.476 132.729 174.249 193.821 131.26 174.296 194.569 131.076 174.487 
195.857 130.341 174.582 190.189 133.531 174.767 192.467 132.657 174.826 
197.649 122.569 173.822 202.968 121.426 174.796 198.716 123.563 173.721 
201.766 123.62 174.487 202.207 124.649 174.925 201.773 125.949 175.334 
200.069 127.228 174.813 198.385 128.692 174.963 197.282 129.5 174.847 
197.87 129.227 175.162 196.332 130.184 174.79 195.238 131.029 174.931 
185.559 133.133 174.885 192.67 132.882 175.097 192.593 133.056 175.228 
185.205 134.363 175.217 190.089 133.908 175.062 185.191 134.803 175.367 
187.539 134.577 174.959 188.949 134.386 175.028 189.57 134.217 175.145 
187.464 135.119 175.287 186.717 135.255 175.353 188.21 135.058 175.427 
203.03 117.976 175.389 204.548 117.938 175.657 207.628 119.237 176.515 
205.379 121.317 175.839 206.183 121.972 176.558 203.645 124.479 175.916 
184.715 131.165 175.184 196.925 130.043 175.292 192.814 133.007 175.455 
193.649 132.321 175.34 194.092 132.084 175.611 191.045 133.747 175.559 
193.152 132.739 175.492 183.899 134.92 175.849 182.461 135.331 176.553 
185.043 135.142 175.613 187.03 135.352 175.438 187.356 135.391 175.532 
187.499 135.508 175.799 184.06 135.652 176.343 185.527 135.8 176.101 
208.432 116.364 176.989 207.517 118.548 176.383 208.325 120.169 177.347 
207.155 121.656 177.127 206.143 122.812 177.106 203.596 125.064 176.52 
202.042 126.483 176.536 200.798 127.487 176.628 197.011 130.073 175.698 
191.099 133.82 176.136 182.026 134.603 176.431 181.238 135.215 177.055 
188.646 135.078 175.824 181.922 135.706 177.133 186.453 135.767 175.98 
187.695 135.578 176.195 184.197 136.146 177.161 185.75 136.06 176.64 
186.211 136.102 176.749 186.44 136.08 176.601 194.84 116.558 176.848 
207.932 121.543 177.874 201.634 126.91 176.951 202.575 126.158 176.943 
194.642 131.723 176.558 193.504 132.508 176.15 178.898 135.035 178.282 
179.41 135.575 178.326 186.507 136.052 176.98 186.34 136.03 177.385 
181.819 136.179 177.97 184.665 136.222 177.602 204.835 111.324 178.198 
198.96 112.406 178.251 210.94 114.962 178.548 211.012 117.166 178.678 
201.962 126.742 178.007 202.919 126.024 178.211 191.005 133.443 178.073 
179.115 136.158 179.35 202.952 110.594 178.784 211.803 118.24 180.019 
210.962 119.305 179.764 184.638 120.878 179.136 207.227 122.898 179.594 
175.376 134.776 180.478 174.841 135.274 181.068 175.123 135.651 181.192 
183.321 136.327 178.943 181.069 136.427 179.111 214.234 113.689 181.215 
212.808 114.443 180.014 210.163 120.623 180.724 204.094 125.006 180.122 
204.879 124.567 179.88 202.305 126.248 179.417 174.277 134.828 181.293 
173.949 135.344 181.878 174.468 136.062 182.042 175.134 136.052 181.564 
176.649 136.144 180.983 177.981 136.412 180.844 174.877 136.178 181.9 
173.249 134.031 182.161 172.747 134.829 183.011 173.259 135.295 182.614 
174.232 136.126 182.389 175.27 136.22 181.748 175.58 136.301 181.854 
180.719 136.407 180.825 215.628 107.961 182.967 215.961 111.453 182.996 
209.645 121.282 181.909 172.497 134.662 183.383 173.893 135.992 182.611 
178.085 136.443 181.937 179.561 136.412 181.693 173.723 136.045 183.079 
174.551 136.332 182.707 216.003 110.582 182.987 215.495 113.973 183.3 
173.227 131.692 182.629 172.082 133.63 183.809 172.481 135.006 184.114 
173.276 135.861 183.864 173.555 136.03 183.502 207.53 102.726 183.71 
217.342 110.607 185.018 171.648 133.274 184.72 171.58 133.366 185.018 
171.658 133.692 185.151 177.855 135.934 184.271 172.156 134.651 184.658 
173.377 135.933 184.244 174.332 136.266 183.743 211.189 101.094 184.595 
217.894 102.291 185.868 213.375 117.99 184.858 171.59 131.222 185.508 
171.454 133.045 185.626 206.7 99.9799 186.4 218.827 102.912 186.437 
219.655 102.147 187.359 219.346 104.055 186.891 219.76 104.266 187.475 
211.771 119.584 185.46 172.027 134.721 186.487 172.248 134.923 186.654 
174.587 135.864 185.744 215.317 96.617 188.879 219.393 98.9812 188 
194.645 105.308 187.474 198.662 123.732 187.1 173.397 135.582 186.221 
214.225 96.5356 189.124 219.605 96.9345 189.441 220.009 97.2757 189.443 
220.418 102.883 188.557 182.845 113.482 188.15 216.191 114.588 187.952 
172.771 135.181 186.963 219.7 96.1288 190.456 219.919 96.2012 190.515 
218.908 96.5058 189.648 219.155 96.2111 190.141 220.007 96.6071 190.073 
220.25 96.6547 190.283 220.404 96.8565 190.341 208.825 97.8869 189.061 
210.45 119.934 188.191 209.073 120.471 188.397 171.211 127.953 189.251 
172.77 134.788 187.925 219.201 96.0185 190.539 213.363 96.3037 190.473 
220.268 96.3884 190.835 202.512 100.353 190.694 219.43 108.773 190.309 
181.106 114.183 190.279 212.475 118.168 190.054 171.317 132.032 190.346 
172.001 133.254 190.238 172.274 133.633 189.926 219.822 96.0478 191.02 
220.379 96.4516 191.144 220.554 96.7195 191.198 220.938 97.7012 191.221 
170.817 128.169 191.045 181.16 130.173 191.954 171.868 132.923 190.684 
175.271 133.646 190.392 172.634 133.838 189.872 219.529 95.9089 191.655 
184.179 111.433 192.236 218.045 111.557 192.244 211.527 118.201 191.941 
172.67 122.824 192.416 173.535 133.319 191.321 220.517 96.6411 192.085 
219.542 96.0412 192.902 221.32 98.6524 192.655 220.646 106.09 193.338 
208.726 119.357 191.662 171.41 130.982 193.229 172.322 132.419 192.372 
172.884 132.948 191.882 216.029 95.8347 193.541 176.654 117.633 194.015 
172.009 131.666 193.464 220.038 96.3846 193.387 220.287 96.5849 193.44 
220.727 97.2346 193.574 220.993 97.7653 193.634 221.447 99.5854 194.474 
221.584 101.041 194.851 207.315 117.982 195.123 170.854 126.198 195.007 
170.797 127.237 194.452 170.969 128.854 194.699 171.427 130.128 194.923 
171.659 130.288 195.257 172.006 130.781 195.016 172.431 131.379 194.483 
174.15 131.702 194.525 217.589 96.0047 195.273 220.428 96.8218 193.679 
221.046 98.3458 194.805 171.305 124.977 195.484 171.322 129.267 195.972 
177.301 130.384 195.538 173.416 131.279 195.309 217.572 111.085 196.654 
171.287 128.663 196.676 171.721 129.412 196.857 172.127 129.659 197.177 
219.123 96.8169 196.729 220.578 98.0389 196.288 220.093 106.137 198.315 
215.31 113.23 197.594 175.345 130.236 197.213 172.562 129.795 197.56 
218.511 96.7656 197.378 219.785 97.4267 197.214 211.787 115.266 198.074 
171.531 127.562 198.536 171.562 128.266 198.095 220.03 98.4235 198.864 
180.943 115.062 199.68 217.027 97.5582 200.304 220.702 100.293 199.786 
174.953 120.17 200.395 172.783 128.333 200.076 173.966 128.481 200.764 
175.362 128.587 200.682 217.005 98.3461 202.316 217.68 98.281 201.958 
220.081 99.5631 200.736 214.002 98.7761 202.723 172.531 124.866 202.32 
172.58 126.689 202.074 173.372 127.135 202.814 176.167 127.839 201.983 
173.862 127.665 202.311 218.345 98.4249 201.764 219.544 100.916 203.018 
219.487 101.756 203.381 173.037 126.415 203.281 219.083 99.5065 202.484 
218.721 99.5717 203.036 216.347 99.2026 204.169 213.889 109.985 204.397 
182.087 115.941 205.057 172.743 125.35 203.208 173.774 126.255 204.467 
174.063 126.658 204.17 217.394 99.6778 204.419 219.043 100.338 203.424 
209.574 101.009 205.381 207.556 101.974 205.886 217.007 105.644 205.709 
196.722 113.529 206.287 183.04 121.629 206.428 178.174 125.253 205.432 
173.361 125.665 204.425 176.182 126.347 204.881 175.048 126.526 204.749 
217.942 100.832 205.152 218.534 101.036 204.619 215.589 106.679 206.674 
174.52 123.463 206.072 176.549 125.557 205.981 174.786 125.907 205.682 
197.538 107.684 207.701 187.132 113.533 207.167 181.042 117.959 207.771 
183.354 120.656 207.432 175.565 122.997 207.107 175.739 125.274 206.572 
215.917 100.954 207.141 216.674 100.99 206.579 216.751 103.271 207.518 
213.574 107.321 207.861 193.598 110.145 207.955 197.728 111.59 208.281 
193.744 113.312 208.099 187.006 114.175 208.099 182.333 117.364 208.013 
183.657 119.991 207.877 176.085 122.79 207.467 179.554 122.316 208.227 
174.917 124.089 206.992 175.638 123.333 207.392 178.072 123.835 207.385 
174.635 125.077 206.521 175.225 125.051 206.764 215.91 101.322 207.636 
216.458 101.798 207.531 216.49 102.619 207.796 204.502 104.772 209.309 
201.369 106.294 209.215 211.362 106.763 209.681 197.045 110.215 209.299 
192.692 111.263 208.401 198.533 110.123 209.356 191.286 112.364 208.634 
191.88 111.919 208.494 192.275 113.048 208.643 191.019 113.828 208.63 
185.638 117.579 208.579 186.114 117.055 208.679 182.053 118.089 208.525 
185.233 118.213 208.362 183.299 119.021 208.648 178.348 120.368 207.965 
179.071 120.144 208.419 176.785 122.465 207.968 175.225 124.082 207.314 
175.371 123.853 207.58 175.56 123.687 207.639 176.303 123.342 207.734 
175.68 123.766 207.669 177.217 123.468 207.793 174.832 124.714 206.847 
175.188 124.457 207.127 175.46 123.907 207.612 175.665 124.051 207.456 
174.784 124.937 206.732 213.611 101.922 209.299 214.494 103.972 209.691 
197.047 109.552 209.26 204.857 108.007 210.06 196.374 109.999 209.318 
198.744 109.634 209.625 191.035 112.723 208.776 191.473 112.569 208.909 
191.77 112.357 208.884 192.647 112.161 208.825 191.812 112.514 208.94 
189.281 113.736 208.85 190.132 113.27 208.842 190.616 113.05 208.89 
191.343 112.995 208.856 190.573 113.28 208.954 186.748 114.872 208.736 
187.835 114.365 208.897 187.477 114.654 209.015 189.266 114.09 209.072 
190.087 113.824 208.897 190.329 113.355 208.969 188.744 114.775 209.058 
182.846 118.573 208.797 184.503 117.972 208.713 184.955 117.492 208.77 
181.247 120.026 209.1 178.143 121.062 208.349 179.093 120.464 208.633 
177.522 121.742 208.312 179.81 121.129 208.907 177.443 121.998 208.366 
[...]
POINT_DATA 1024
SCALARS scalars float
LOOKUP_TABLE default
1 1 1 1 1 1 1 1 1 
1 1 1 1 1 1 1 1 1 
1 1 1 1 1 1 1 1 1 
1 1 1 1 1 1 1 1 1 
1 1 1 1 1 1 1 1 1 
1 1 1 1 1 1 1 1 1 
1 1 1 1 1 1 1 1 1 
1 1 1 1 1 1 1 1 1 
1 1 1 1 1 1 1 1 1 
1 1 1 1 1 1 1 1 1 
1 1 1 1 1 1 1 1 1 
1 1 1 1 1 1 1 1 1 
1 1 1 1 1 1 1 1 1 
1 1 1 1 1 1 1 1 1 
1 1 1 1 1 1 1 1 1 
1 1 1 1 1 1 1 1 1 
1 1 1 1 1 1 1 1 1 
1 1 1 1 1 1 1 1 1 
1 1 1 1 1 1 1 1 1 
1 1 1 1 1 1 1 1 1 
1 1 1 1 1 1 1 1 1 
1 1 1 1 1 1 1 1 1 
1 1 1 1 1 1 1 1 1 
1 1 1 1 1 1 1 1 1 
1 1 1 1 1 1 1 1 1 
1 1 1 1 1 1 1 1 1 
1 1 1 1 1 1 1 1 1 
1 1 1 1 1 1 1 1 1 
1 1 1 1 1 1 1 1 1 
1 1 1 1 1 1 1 1 1 
1 1 1 1 1 1 1 1 1 
1 1 1 1 1 1 1 1 1 
1 1 1 1 1 1 1 1 1 
1 1 1 1 1 1 1 1 1 
1 1 1 1 1 1 1 1 1 
1 1 1 1 1 1 1 1 1 
1 1 1 1 1 1 1 1 1 
1 1 1 1 1 1 1 1 1 
1 1 1 1 1 1 1 1 1 
1 1 1 1 1 1 1 1 1 
1 1 1 1 1 1 1 1 1 
1 1 1 1 1 1 1 1 1 
1 1 1 1 1 1 1 1 1 
1 1 1 1 1 1 1 1 1 
1 1 1 1 1 1 1 1 1 
1 1 1 1 1 1 1 1 1 
1 1 1 1 1 1 1 1 1 
1 1 1 1 1 1 1 1 1 
1 1 1 1 1 1 1 1 1 
1 1 1 1 1 1 1 1 1 
1 1 1 1 1 1 1 1 1 
1 1 1 1 1 1 1 1 1 
1 1 1 1 1 1 1 1 1 
1 1 1 1 1 1 1 1 1 
1 1 1 1 1 1 1 1 1 
1 1 1 1 1 1 1 1 1 
1 1 1 1 1 1 1 1 1 
1 1 1 1 1 1 1 1 1 
1 1 1 1 1 1 1 1 1 
1 1 1 1 1 1 1 1 1 
1 1 1 1 1 1 1 1 1 
1 1 1 1 1 1 1 1 1 
1 1 1 1 1 1 1 1 1 
1 1 1 1 1 1 1 1 1 
1 1 1 1 1 1 1 1 1 
1 1 1 1 1 1 1 1 1 
1 1 1 1 1 1 1 1 1 
1 1 1 1 1 1 1 1 1 
1 1 1 1 1 1 1 1 1 
1 1 1 1 1 1 1 1 1 
1 1 1 1 1 1 1 1 1 
1 1 1 1 1 1 1 1 1 
1 1 1 1 1 1 1 1 1 
1 1 1 1 1 1 1 1 1 
1 1 1 1 1 1 1 1 1 
1 1 1 1 1 1 1 1 1 
1 1 1 1 1 1 1 1 1 
1 1 1 1 1 1 1 1 1 
1 1 1 1 1 1 1 1 1 
1 1 1 1 1 1 1 1 1 
1 1 1 1 1 1 1 1 1 
1 1 1 1 1 1 1 1 1 
1 1 1 1 1 1 1 1 1 
1 1 1 1 1 1 1 1 1 
1 1 1 1 1 1 1 1 1 
1 1 1 1 1 1 1 1 1 
1 1 1 1 1 1 1 1 1 
1 1 1 1 1 1 1 1 1 
1 1 1 1 1 1 1 1 1 
1 1 1 1 1 1 1 1 1 
1 1 1 1 1 1 1 1 1 
1 1 1 1 1 1 1 1 1 
1 1 1 1 1 1 1 1 1 
1 1 1 1 1 1 1 1 1 
1 1 1 1 1 1 1 1 1 
1 1 1 1 1 1 1 1 1 
1 1 1 1 1 1 1 1 1 
1 1 1 1 1 1 1 1 1 
1 1 1 1 1 1 1 1 1 
1 1 1 1 1 1 1 1 1 
1 1 1 1 1 1 1 1 1 
1 1 1 1 1 1 1 1 1 
1 1 1 1 1 1 1 1 1 
1 1 1 1 1 1 1 1 1 
1 1 1 1 1 1 1 1 1 
1 1 1 1 1 1 1 1 1 
1 1 1 1 1 1 1 1 1 
1 1 1 1 1 1 1 1 1 
1 1 1 1 1 1 1 1 1 
1 1 1 1 1 1 1 1 1 
1 1 1 1 1 1 1 1 1 
1 1 1 1 1 1 1 1 1 
1 1 1 1 1 1 1 1 1 
1 1 1 1 1 1 1 
NORMALS Normals float
0.0174015 0.0246123 -0.999546 0.0896889 0.246888 -0.964885 -0.116854 -0.16423 -0.979476 
0.116864 -0.249064 -0.96141 0.0755025 -0.31197 -0.947087 -0.216601 -0.0298312 -0.975804 
0.331144 0.0415271 -0.942666 0.287526 0.019662 -0.957571 0.189374 0.0263296 -0.981552 
0.489578 0.327087 -0.808287 0.340365 0.385533 -0.857623 0.54372 0.314105 -0.778271 
0.167792 0.266065 -0.949239 0.437926 0.481971 -0.758897 0.321033 0.468382 -0.823138 
-0.0056399 0.331317 -0.943503 0.186668 0.554775 -0.810789 0.397587 0.616509 -0.679589 
0.416635 0.584313 -0.696415 0.191204 0.521167 -0.831761 0.336569 0.59592 -0.729109 
-0.20592 -0.168887 -0.963885 0.331499 0.0260054 -0.943097 0.0705784 -0.0271371 -0.997137 
0.333926 0.112617 -0.935847 0.433416 0.293523 -0.852053 0.547318 0.573672 -0.609379 
0.586964 0.53979 -0.603408 0.557986 0.677211 -0.479621 0.583245 0.665127 -0.466295 
0.611344 0.69537 -0.377782 0.462531 0.670292 -0.580322 0.497745 0.741569 -0.449805 
-0.199582 0.04926 -0.978642 0.451274 0.605282 -0.655732 0.394172 0.771854 -0.498868 
-0.288394 0.28453 -0.91426 0.343503 0.797085 -0.49665 -0.253323 0.462121 -0.849866 
0.0187757 0.343079 -0.939119 0.231834 0.633229 -0.738426 0.26891 0.656809 -0.704478 
0.206897 0.729468 -0.651974 -0.0838404 0.578563 -0.811317 0.170167 0.690109 -0.703415 
0.0751505 -0.259904 -0.962706 0.176287 -0.240208 -0.95458 0.463131 0.11726 -0.878498 
0.422992 0.204147 -0.882837 0.468351 0.416817 -0.779045 0.600259 0.406796 -0.688626 
-0.294176 -0.0757727 -0.952743 0.554267 0.787563 -0.269318 0.523587 0.840005 -0.142295 
0.51341 0.758269 -0.401795 0.650578 0.758267 -0.0421722 0.288218 0.860782 -0.419506 
0.622338 0.677913 -0.391318 -0.312621 0.373141 -0.873518 -0.297056 0.616145 -0.729468 
-0.314676 0.499763 -0.806979 0.00217002 0.802122 -0.597156 0.207758 0.790463 -0.576198 
0.173465 0.89758 -0.40529 -0.10323 0.809337 -0.578202 -0.128634 0.743484 -0.656266 
0.423121 -0.185049 -0.886975 0.50502 0.0226578 -0.86281 0.703754 0.35688 -0.614302 
0.686654 0.473423 -0.551703 0.62813 0.606928 -0.48692 0.662245 0.704705 -0.254602 
0.595703 0.755174 -0.273587 0.571438 0.804549 -0.161737 0.607936 0.793411 -0.0302047 
0.421142 0.905523 -0.0516498 -0.462419 0.16836 -0.870531 -0.395989 0.562265 -0.725983 
0.358591 0.851181 -0.383278 -0.320815 0.680863 -0.65841 0.0120982 0.866151 -0.499636 
0.318998 0.944968 -0.0726297 -0.0426323 0.928474 -0.368942 -0.0630099 0.983988 -0.166723 
-0.0680502 0.992823 -0.0983414 0.132957 0.966794 -0.218245 -0.288851 -0.441951 -0.849261 
0.683127 0.577541 -0.446972 0.578171 0.779019 -0.242585 0.666197 0.712686 -0.219681 
0.599196 0.775582 0.198586 0.668912 0.720725 0.181971 -0.523732 0.30534 -0.795282 
-0.406346 0.671486 -0.619669 0.168414 0.971952 0.164149 0.275829 0.93888 0.20597 
-0.14237 0.917112 -0.37234 0.0815081 0.974867 -0.207343 0.130069 -0.452673 -0.882139 
-0.240914 -0.604714 -0.759132 0.498935 -0.231011 -0.835283 0.672963 0.169108 -0.720086 
0.591987 0.805945 0.00208935 0.641088 0.755717 0.133784 0.510338 0.75683 0.408366 
-0.320274 0.831221 -0.454419 -0.11203 -0.6112 -0.783507 0.790458 0.318511 -0.52319 
0.769009 0.535908 -0.348464 -0.562969 -0.406379 -0.719668 0.624443 0.762107 -0.171065 
-0.539961 0.0828745 -0.8376 -0.543183 0.50497 -0.670789 -0.397046 0.59315 -0.700377 
0.205334 0.950014 0.235184 0.0314188 0.991321 -0.127653 0.708155 0.0853556 -0.700879 
0.698993 0.1879 -0.690002 0.745186 0.620049 -0.245433 0.437864 0.829102 0.347656 
0.540772 0.828345 0.146322 0.588505 0.76243 0.269001 -0.643077 0.32572 -0.693078 
-0.603646 0.475319 -0.640065 -0.429645 0.742393 -0.514061 -0.171858 0.724835 -0.667143 
-0.200532 0.800284 -0.565095 -0.115553 0.95243 -0.282003 -0.368046 0.786225 -0.496379 
-0.726482 0.0682422 -0.683788 -0.830178 0.186161 -0.525498 -0.739873 0.517493 -0.429871 
-0.496666 0.767111 -0.406034 -0.14495 0.859515 -0.490126 -0.0958557 0.905785 -0.412754 
0.15056 0.984313 0.0919721 0.35695 -0.298075 -0.88529 0.816523 0.0731579 -0.572659 
0.663156 0.748388 0.011818 -0.852026 0.424776 -0.305969 -0.649321 0.660801 -0.376463 
0.0809709 0.992902 0.087115 0.19971 0.92263 0.329954 -0.532588 0.824727 -0.1902 
-0.222369 0.966633 -0.127169 0.864568 0.0347177 -0.501315 0.891516 0.372939 -0.257131 
-0.749193 -0.247167 -0.614506 -0.889524 0.10887 -0.443729 -0.824132 0.530298 -0.198972 
-0.566137 0.823609 -0.0340194 -0.669628 0.715348 -0.199686 -0.234703 -0.56111 -0.793769 
0.871633 0.138931 -0.470058 -0.933004 0.108386 -0.343155 -0.960466 0.194304 -0.199378 
-0.911494 0.410184 -0.0304604 0.225811 0.939391 0.257982 -0.823592 0.565815 -0.0393713 
-0.50049 0.862516 0.0746744 -0.200657 0.976914 0.0733251 -0.0371462 -0.666653 -0.744442 
0.207611 -0.325177 -0.922582 0.756154 0.651899 -0.0570852 -0.912782 -0.199504 -0.356408 
-0.982265 0.186065 -0.0231333 -0.333043 -0.723582 -0.604576 0.704981 -0.0649962 -0.706241 
0.787407 -0.0766448 -0.61165 0.747558 0.0958237 -0.657248 0.841976 0.109368 -0.528313 
0.575601 0.810814 0.106127 -0.830112 0.544339 0.120866 -0.621025 0.772187 0.134373 
0.0950934 0.935409 0.340541 0.0268857 -0.904938 -0.424693 0.695477 -0.262972 -0.668698 
-0.4639 -0.772739 -0.43321 0.434382 0.78693 0.43824 -0.261874 0.933949 0.243233 
-0.190012 -0.875877 -0.443548 0.201215 -0.618687 -0.759433 0.672952 -0.413039 -0.613624 
0.926095 0.0239001 -0.376534 -0.498462 -0.67932 -0.538572 0.789984 0.607459 0.083184 
-0.404229 0.87692 0.260021 0.243544 -0.896871 -0.369199 0.500041 -0.775763 -0.384904 
0.116322 -0.799524 -0.589262 0.174158 -0.785475 -0.593883 0.477976 -0.620039 -0.622166 
0.77303 -0.537358 -0.337151 0.801067 -0.37281 -0.468299 -0.270953 -0.92447 -0.268217 
0.514311 0.827974 0.223481 0.327961 0.915587 0.232684 -0.905345 -0.280935 -0.318475 
-0.455611 0.816614 0.354345 -0.109993 -0.96366 -0.243436 -0.188823 -0.949195 -0.251745 
0.730661 -0.652863 -0.199763 -0.480143 -0.866583 -0.136002 0.921041 0.350512 -0.169779 
-0.694308 -0.678779 -0.239156 0.587072 0.779802 0.217382 -0.921179 0.373422 0.109476 
-0.680383 0.670134 0.296648 -0.491945 0.767549 0.410924 0.422154 -0.900318 -0.105893 
0.661365 -0.747235 0.0650802 0.845827 -0.531866 -0.0411634 0.936901 -0.306349 -0.168425 
-0.997453 -0.0300325 -0.0646917 0.423199 0.760435 0.492586 -0.582834 0.731697 0.353445 
0.14155 0.867865 0.476208 -0.273424 0.844336 0.460798 0.347504 -0.935116 0.0692755 
-0.527426 -0.846986 0.0666051 0.882109 0.471045 -0.000622025 0.492213 0.805944 0.328908 
-0.836287 -0.500966 -0.222838 -0.110456 0.867163 0.48562 0.76265 -0.645589 0.039737 
0.244549 -0.964109 0.103387 0.974731 -0.209543 -0.0774012 0.961192 0.273319 -0.0375125 
0.265625 0.905667 0.330471 -0.837947 0.493256 0.233546 -0.659345 0.673321 0.334519 
-0.146966 0.874044 0.463086 -0.235256 -0.962598 0.134386 -0.696531 -0.715786 0.0499415 
-0.598284 0.700793 0.388517 0.494666 -0.818768 0.29142 0.686549 -0.716898 0.121276 
0.876696 -0.470393 0.100673 0.945266 -0.324402 0.0351507 0.988549 -0.144431 -0.043722 
0.999083 -0.0149543 0.0401301 0.217022 0.869563 0.443578 -0.969729 -0.237742 0.0557233 
-0.976377 -0.165072 -0.139423 -0.959512 0.227345 0.166284 -0.874702 0.366103 0.317593 
-0.763708 0.507832 0.398569 -0.549115 0.705359 0.448264 -0.441338 0.785877 0.43315 
0.0216581 0.900964 0.433353 0.0561825 -0.966886 0.248948 0.751592 -0.593136 0.288615 
0.914988 -0.332101 0.229143 -0.890844 -0.433557 -0.135738 -0.721388 0.645513 0.250822 
0.364705 0.784075 0.502212 -0.111869 0.879744 0.4621 0.798225 0.555079 0.233933 
-0.959179 0.140691 0.24532 -0.749852 0.442088 0.492219 -0.545521 0.805751 0.230589 
0.484083 -0.846737 0.220681 0.746521 -0.610611 0.264311 0.882476 0.387143 0.267127 
0.631295 0.708312 0.315848 0.412673 0.736288 0.536265 -0.580651 0.683927 0.441687 
0.229957 -0.903795 0.360936 0.59657 -0.752576 0.278809 0.294851 0.787991 0.540494 
-0.964106 0.0999158 0.246001 -0.818513 0.440414 0.368879 0.767793 -0.572481 0.287679 
-0.598048 -0.783376 0.169292 -0.134197 -0.973795 0.183613 0.930447 -0.19875 0.307842 
-0.797457 -0.563332 0.216146 -0.491049 0.765013 0.416684 -0.0822429 0.923962 0.373537 
0.155904 0.93447 0.320093 0.0567132 -0.941611 0.331893 0.235854 -0.88495 0.401543 
0.789741 -0.48234 0.379023 -0.218333 -0.959714 0.176863 -0.939632 -0.251634 0.231889 
-0.801126 0.470255 0.370213 -0.583964 0.703125 0.405711 0.186765 0.897659 0.399157 
-0.386435 0.818596 0.424934 0.459445 -0.791387 0.403258 0.829108 -0.338052 0.445309 
0.870075 0.0903709 0.484565 -0.800565 0.439901 0.406919 0.685111 -0.534257 0.495169 
0.628525 -0.613835 0.477664 0.0939496 -0.867476 0.488526 0.589252 0.660047 0.465962 
-0.610057 -0.723021 0.324147 -0.931849 -0.0452041 0.360019 -0.525808 0.63941 0.560965 
-0.275182 0.816478 0.507581 0.443767 -0.713494 0.542216 0.730469 -0.426501 0.533397 
-0.316895 -0.913102 0.256557 -0.374801 -0.88347 0.281078 0.770536 0.464883 0.436072 
0.314515 0.786243 0.531886 0.524578 0.725716 0.445146 0.376415 0.799791 0.467596 
-0.853833 0.0543821 0.517699 0.282922 0.901478 0.327555 -0.110098 0.835879 0.537759 
0.698492 -0.242286 0.673354 0.717757 -0.230567 0.657012 0.623264 0.493844 0.606349 
-0.817071 -0.354946 0.454322 0.076929 0.865569 0.494846 -0.0133889 0.79561 0.605661 
-0.495873 -0.694657 0.521115 -0.460476 -0.748256 0.477572 -0.476389 -0.709003 0.51997 
0.408997 0.639911 0.650566 -0.681369 -0.393306 0.617289 0.055436 0.718309 0.693512 
0.363879 -0.722013 0.588463 0.582651 -0.573369 0.575991 0.815652 0.0559343 0.575832 
0.385623 0.654054 0.650776 -0.376689 -0.70742 0.598049 0.349542 0.644054 0.680452 
0.112614 0.69537 0.709774 -0.453513 -0.754837 0.473864 -0.40569 -0.519391 0.752096 
0.449475 0.579143 0.680122 -0.560069 -0.133658 0.817593 0.293664 0.617788 0.729451 
-0.746412 -0.0331455 0.664658 -0.622394 -0.419919 0.660525 0.170838 0.726069 0.666062 
-0.631783 0.429941 0.644981 -0.179202 0.760418 0.62422 0.416684 -0.666351 0.618345 
0.717698 -0.400299 0.569798 0.760404 -0.131217 0.636056 -0.376129 -0.771684 0.512865 
-0.400955 -0.828522 0.390879 0.351609 0.567015 0.744892 -0.0141609 0.234343 0.972051 
-0.465697 -0.459638 0.756214 0.241276 0.627749 0.740079 -0.295722 -0.560075 0.773864 
-0.221803 -0.545616 0.80815 0.179181 0.587515 0.789127 0.310024 0.41771 0.854051 
0.526001 0.558533 0.641376 0.227575 0.360355 0.904629 -0.296751 -0.610603 0.734237 
0.483363 0.545023 0.685062 0.270909 0.342642 0.899558 -0.635731 -0.580455 0.50884 
-0.626556 -0.536932 0.564917 -0.707979 -0.358371 0.608552 -0.742542 -0.0567599 0.66739 
-0.948182 -0.0331624 0.315994 -0.452263 -0.685309 0.570798 -0.295009 0.0116477 0.955424 
0.189267 0.30607 0.933005 0.0146079 0.558357 0.829472 -0.736401 0.113381 0.666976 
-0.312624 0.414335 0.854747 -0.0740447 0.762996 0.642148 -0.00128065 0.568225 0.822872 
-0.417153 0.464626 0.781093 0.0587325 -0.815858 0.575262 0.587833 0.155756 0.793846 
-0.310796 -0.440494 0.842241 0.151323 0.568486 0.808656 -0.157182 -0.423584 0.892116 
0.00667676 0.538085 0.842864 -0.197201 -0.329021 0.923502 -0.525395 -0.438044 0.729436 
-0.103777 -0.676757 0.728856 -0.0086457 -0.0408968 0.999126 0.333938 0.150105 0.930566 
-0.208265 -0.534429 0.819153 -0.450778 -0.457352 0.766569 -0.0764674 -0.557587 0.826589 
0.0709241 0.166309 0.98352 0.225686 0.100634 0.968988 -0.47752 -0.644241 0.597434 
-0.170735 -0.559065 0.811355 -0.136195 -0.545338 0.827078 -0.0982575 -0.594456 0.798102 
0.0580372 -0.0306766 0.997843 -0.166975 0.148831 0.974663 0.182417 0.378087 0.90762 
0.0149927 -0.188696 0.981921 0.161728 0.26286 0.951183 0.12023 0.22919 0.965928 
0.412063 0.476958 0.776347 -0.552822 -0.491366 0.673014 -0.537641 -0.306953 0.785317 
-0.631926 -0.466209 0.619127 -0.052186 0.23694 0.970122 -0.421003 -0.157468 0.893286 
-0.0387542 0.414369 0.909284 -0.781146 -0.608393 -0.140248 0.510149 0.385816 0.768697 
-0.327189 0.14305 0.934069 -0.249854 0.817424 0.519028 0.264371 -0.639368 0.722022 
0.423066 -0.489005 0.762817 0.538904 -0.336762 0.772123 -0.255693 -0.616067 0.745038 
-0.375516 -0.622789 0.686383 -0.264935 -0.801094 0.53671 0.119491 0.545045 0.829848 
0.252285 0.492582 0.832896 0.142306 0.506261 0.850558 0.0902477 0.256261 0.962385 
0.101176 0.53577 0.83828 -0.409198 -0.222786 0.88483 -0.397356 -0.666586 0.630691 
-0.122817 -0.549437 0.826459 0.195927 0.37193 0.907348 -0.694361 -0.718129 0.0464091 
0.647123 0.248254 0.720834 -0.170758 0.410116 0.895906 -0.564531 -0.824178 0.0451202 
0.358704 0.277299 0.891312 -0.0649354 0.317902 0.945897 -0.247646 -0.600634 0.760204 
0.0593111 0.000985358 0.998239 -0.0924497 0.0425402 0.994808 -0.284764 -0.549476 0.785484 
-0.265104 -0.658655 0.704198 -0.295874 0.143217 0.94443 -0.414795 -0.506683 0.75579 
-0.281122 -0.160023 0.946236 -0.342891 -0.111911 0.932685 0.0399871 0.28408 0.957966 
-0.132466 -0.0501675 0.989917 0.139099 -0.120483 0.982922 0.100983 -0.0917421 0.990649 
-0.350099 -0.403954 0.845134 0.190136 0.419024 0.887844 0.0800373 0.0628647 0.994808 
-0.461717 -0.219871 0.859345 0.206314 0.58794 0.782152 -0.318832 -0.0932269 0.943215 
-0.68132 -0.0974331 0.725472 0.174694 -0.699796 0.692652 -0.075623 -0.777765 0.623989 
0.042118 -0.783043 0.620539 0.464926 -0.403549 0.788031 -0.277015 -0.737265 0.6162 
-0.236285 -0.611964 0.754764 0.360283 0.388925 0.847899 -0.352024 -0.39493 0.848593 
0.020833 0.262444 0.964722 -0.362902 -0.48644 0.794782 -0.443633 -0.674789 0.589788 
-0.0103847 0.0176005 0.999791 0.286177 0.246525 0.92592 -0.0525838 0.156481 0.98628 
-0.594817 -0.240351 0.767088 0.251796 0.485758 0.837041 0.239475 -0.0441841 0.969897 
-0.472726 -0.146629 0.868925 -0.137362 0.448269 0.883282 -0.36093 -0.319952 0.875991 
0.228613 0.737229 0.63579 -0.317525 -0.402311 0.858675 -0.314768 -0.400486 0.860542 
-0.449569 -0.445326 0.77432 0.129998 0.000112097 0.991514 -0.350237 -0.325382 0.878329 
-0.276959 -0.114346 0.954054 -0.190422 -0.139722 0.971708 0.181593 -0.725076 0.664296 
0.367045 -0.51678 0.773445 0.154488 -0.240054 0.958388 0.549527 0.172714 0.817429 
-0.131947 -0.55911 0.818527 -0.0684841 -0.289368 0.954765 -0.0887667 -0.108733 0.9901 
0.0622112 -0.178548 0.981963 0.420889 0.281814 0.862226 0.3387 0.181276 0.923267 
-0.171813 -0.267033 0.948248 -0.135673 0.112144 0.984386 0.192588 0.219819 0.956342 
0.10791 0.420705 0.900757 0.144596 -0.0495199 0.988251 -0.0810991 0.31153 0.946769 
-0.473647 -0.410448 0.779224 0.14283 0.427295 0.892759 -0.458349 -0.143761 0.877068 
-0.465438 0.0809551 0.88137 0.0811487 0.246942 0.965626 -0.0693842 -0.636603 0.768064 
-0.0840909 -0.424629 0.901454 -0.0598682 -0.463594 0.884023 0.321427 -0.185345 0.928618 
-0.127341 -0.141455 0.98172 -0.0595927 -0.321943 0.944882 0.0592567 0.11478 0.991622 
-0.603983 -0.660432 0.446133 -0.193107 -0.247865 0.949354 -0.0765732 -0.482271 0.872669 
-0.262504 0.0260962 0.964578 -0.0283089 0.139081 0.989876 0.000485707 -0.366893 -0.930263 
0.196744 -0.421388 -0.885282 0.339943 -0.489226 -0.803179 0.426752 -0.151485 -0.891591 
-0.223802 -0.255396 -0.940577 -0.362395 -0.549232 -0.753003 -0.0963387 0.0449745 -0.994332 
-0.122216 0.00255037 -0.9925 0.0340136 -0.0279088 -0.999032 0.195605 0.0807644 -0.977351 
0.368763 0.124804 -0.921107 -0.364603 -0.161466 -0.917057 -0.00917492 -0.322653 -0.946473 
-0.438522 -0.713245 -0.546791 -0.300309 0.232855 -0.924983 0.155704 -0.679699 -0.716774 
-0.389259 0.413751 -0.822975 -0.824581 -0.412252 -0.387445 -0.240243 0.839867 -0.486732 
0.389512 0.319854 -0.863698 0.00484076 -0.578512 -0.81566 0.542678 0.452408 -0.707691 
-0.00916995 -0.74282 -0.669428 -0.263732 -0.530497 -0.805617 0.523787 0.0882921 -0.847261 
0.617425 -0.0135067 -0.786514 0.360659 -0.21403 -0.907808 0.410376 0.206553 -0.888216 
-0.125414 0.0281385 -0.991705 0.0304882 0.313248 -0.949182 -0.224231 0.0742281 -0.971705 
-0.198308 -0.195777 -0.960388 0.0107566 0.0900058 -0.995883 -0.261739 -0.81631 -0.514908 
-0.53612 -0.334241 -0.77515 0.153539 -0.263706 -0.952305 -0.0684743 0.351199 -0.933794 
-0.542242 -0.55897 -0.627316 -0.546164 0.199257 -0.813635 0.161812 -0.513031 -0.842981 
0.050684 0.412814 -0.909404 0.39996 0.644621 -0.651534 0.135524 -0.207799 -0.968738 
-0.279725 -0.858425 -0.429955 -0.562444 -0.141478 -0.814642 0.456107 -0.42769 -0.780415 
0.320191 0.623284 -0.713439 -0.193596 -0.767647 -0.610932 0.38574 -0.44558 -0.807875 
0.385366 0.0192925 -0.922562 -0.280129 -0.352691 -0.892825 0.274962 0.412837 -0.86831 
-0.365302 -0.60727 -0.705533 -0.0737181 0.298901 -0.951433 -0.144088 0.0419619 -0.988675 
-0.43575 -0.647818 -0.624863 -0.280598 -0.78849 -0.54731 -0.0309599 0.169045 -0.985122 
-0.0620459 -0.0395209 -0.99729 0.0349995 0.145505 -0.988738 -0.562488 -0.248698 -0.788515 
0.13853 0.566688 -0.812203 -0.478714 -0.816931 -0.321646 0.0369794 -0.809696 -0.585684 
0.45835 0.197629 -0.866521 -0.37343 0.382051 -0.845333 -0.766393 -0.479936 -0.426969 
-0.316459 0.771947 -0.551317 -0.484507 -0.853693 -0.190946 -0.086039 0.324872 -0.941836 
-0.334481 -0.825425 -0.454748 -0.775933 -0.0348853 -0.62985 0.532062 0.516671 -0.670792 
0.00118478 -0.939647 -0.342145 0.0807929 -0.0828959 -0.993278 -0.519889 -0.389261 -0.760389 
-0.249632 0.461461 -0.851315 0.475661 0.539265 -0.694939 0.106152 0.560372 -0.821411 
-0.514213 -0.719835 -0.466286 -0.525691 -0.290909 -0.799388 -0.616504 -0.523282 -0.588301 
-0.254147 -0.843555 -0.4731 0.31117 -0.292589 -0.904193 0.135678 -0.650029 -0.747699 
0.308865 -0.320668 -0.895419 -0.455673 0.0233954 -0.88984 -0.536073 -0.620277 -0.57261 
-0.58879 0.274676 -0.760184 0.273865 -0.518592 -0.809976 -0.293386 0.43247 -0.852581 
0.264144 0.674673 -0.689235 -0.284447 -0.826704 -0.485439 -0.699275 -0.267226 -0.663027 