# vtk DataFile Version 4.2
vtk output
ASCII
DATASET POLYDATA
POINTS 879 float
190.004 164.337 176.001 190.634 164.18 176.037 183.295 165.342 175.686 
183.341 165.252 175.76 181.655 166.112 175.436 181.984 166.112 175.394 
179.181 166.977 175.326 185.811 164.263 176.467 187.448 164.088 176.462 
183.491 165.091 175.99 184.604 164.969 176.014 193.041 164.372 176.318 
175.394 166.04 176.452 179.326 165.254 176.932 178.742 165.6 176.584 
180.6 165.549 176.225 184.011 165.637 175.584 190.892 164.879 175.802 
176.018 167.004 175.722 178.411 166.944 175.555 181.27 166.888 175.23 
180.14 167.913 175.012 183.515 168.435 174.761 192.247 167.586 175.606 
185.491 171.557 174.77 177.851 174.734 174.766 180.993 178.621 175.768 
195.796 163.309 177.734 195.868 163.089 177.94 186.727 163.594 177.123 
191.716 162.95 177.345 192.642 163.462 176.878 196.546 163.657 177.977 
196.383 163.43 177.991 196.58 163.493 178.162 195.576 164.205 177.204 
196.624 164.054 177.862 174.045 165.693 177.25 197.194 164.47 178.272 
176.686 165.39 177.232 194.701 165.643 176.465 193.936 166.467 176.093 
168.442 168.388 176.52 189.605 174.337 176.059 175.646 182.658 176.996 
193.562 162.766 177.726 196.055 163.066 178.113 196.066 162.964 178.409 
196.684 163.46 178.486 183.037 164.006 177.94 178.181 165.069 177.547 
163.591 169.516 177.214 196.376 168.682 177.346 196.242 171.18 177.991 
163.748 174.344 176.879 192.77 174.895 177.497 164.389 176.707 176.995 
185.423 179.77 177.267 169.221 182.556 177.427 192.298 162.164 178.791 
192.892 162.45 178.131 186.409 163.159 178.207 182.897 163.903 178.459 
197.167 163.823 179.285 164.321 166.707 178.563 164.122 166.573 178.823 
172.012 165.735 177.969 178.723 164.717 178.816 197.375 164.235 178.967 
163.953 167.088 178.344 177.31 164.946 178.597 197.984 165.329 179.246 
162.677 168.708 177.78 197.716 168.269 178.564 162.777 169.413 177.518 
189.954 177.327 177.56 165.211 182.109 178.389 171.855 186.117 179.292 
190.856 162.229 179.514 197.28 163.884 179.942 163.673 166.633 179.04 
164.271 166.443 179.082 172.417 165.504 178.522 173.345 165.351 178.696 
180.283 164.441 179.523 159.872 167.489 180.018 159.607 167.712 179.898 
162.591 167.035 179.024 159.452 168.295 179.46 158.843 169.078 179.343 
197.092 172.744 179.391 194.063 176.452 179.152 184.985 181.474 178.33 
179.026 164.692 179.845 183.14 163.844 180.382 197.929 164.715 180.275 
162.782 166.616 180.029 165.216 166.248 180.03 175.427 165.236 179.713 
158.488 168.034 180.709 157.926 168.427 180.507 166.374 166.226 180.486 
157.484 168.696 180.578 158.458 168.561 179.926 157.143 171.71 179.683 
156.185 176.5 180.4 187.166 182.588 180.461 192.741 161.944 180.252 
193.805 161.995 180.28 163.561 166.479 180.459 157.038 168.517 181.376 
156.782 168.732 181.273 167.92 166.254 180.911 169.745 166.144 180.967 
156.247 169.159 181.372 199.235 169.251 181.823 199.01 170.303 181.201 
154.417 172.275 181.508 198.532 172.752 181.214 198.923 171.831 181.461 
159.157 182.86 181.574 174.202 188.031 181.265 172.344 165.871 180.85 
162.245 167.002 181.427 198.91 166.893 181.917 155.283 169.542 182.057 
155.82 169.285 181.685 175.826 166.242 182.666 155.279 169.683 181.895 
199.173 168.125 182.047 154.491 170.598 182.305 154.167 171.42 182.141 
153.171 174.897 182.097 199.176 173.281 182.642 154.926 181.113 182.743 
194.483 162.267 181.629 196.279 163.224 182.089 198.094 165.286 182.803 
160.105 167.687 182.16 179.124 165.905 183.421 155.249 169.541 182.236 
166.624 167.225 182.658 154.233 170.374 182.913 154.144 170.416 183.009 
154.082 170.525 182.983 155.092 169.694 182.46 154.638 170.137 182.765 
153.839 171.26 182.746 199.515 169.783 183.252 152.717 173.024 183.003 
199.726 171.692 183.667 199.197 175.329 183.717 194.874 179.905 182.891 
198.949 167.052 183.085 154.396 170.404 183.286 166.489 168.798 184.663 
153.739 171.147 183.686 151.553 173.26 184.276 151.335 173.386 184.432 
151.31 173.495 184.305 151.12 173.844 184.269 152.131 172.867 184.107 
199.914 173.84 184.472 192.687 162.605 183.637 199.577 169.549 184.686 
154.518 170.98 184.454 158.805 170.008 184.964 151.267 173.444 184.6 
150.752 174.111 184.645 149.619 175.19 185.332 149.479 175.433 185.314 
149.206 176.218 185.342 149.085 176.233 185.652 149.065 176.75 185.423 
148.826 177.286 185.818 149.138 178.7 185.839 150.424 180.219 185.346 
165.93 189.109 184.6 198.983 168.218 186.14 153.254 172.179 184.97 
151.314 173.644 185.228 149.48 175.368 185.484 150.669 174.287 185.619 
150.485 174.622 186.014 149.354 175.714 185.899 148.858 176.899 186.029 
149.009 176.715 186.296 148.828 177.147 186.23 149.015 178.891 186.166 
149.223 179.203 186.028 200.166 171.384 186.791 151.262 174.746 186.832 
200.847 174.259 187.577 200.865 175.447 187.295 149.215 176.494 186.553 
148.785 177.489 186.245 149.572 176.619 187.17 148.8 178.799 187.005 
200.575 177.953 187.899 148.948 179.806 187.294 171.089 171.594 188.421 
156.599 173.345 187.611 200.785 173.535 188.167 151.674 176.11 188.405 
148.799 179.353 187.451 148.813 179.502 187.809 200.134 179.37 188.892 
185.478 188.391 187.718 193.032 164.128 187.699 191.275 164.292 188.056 
196.004 165.621 188.347 198.431 168.425 188.779 201.01 174.035 189.356 
201.339 175.137 189.256 149.017 178.698 187.978 148.857 179.253 187.95 
148.919 179.807 188.171 149.177 179.661 188.861 149.893 182.935 188.505 
199.093 180.73 189.57 191.842 185.498 188.443 194.332 164.812 188.397 
149.514 179.517 189.318 200.451 179.34 191.212 149.439 181.877 190.796 
149.613 184.111 190.655 149.922 185.569 191.453 174.114 194.55 191.755 
191.657 165.669 190.428 189.611 166.551 191.548 194.139 166.664 191.409 
201.065 174.63 191.277 201.383 176.992 191.566 149.695 181.783 191.154 
149.42 183.439 191.318 192.682 166.559 191.71 199.634 180.096 192.964 
149.78 182.394 191.609 150.585 182.541 192.525 151.757 181.969 192.864 
198.782 181.05 192.64 150.128 183.261 192.541 149.762 185.945 193.199 
149.758 186.52 193.206 150.43 186.885 191.964 151.167 187.258 191.407 
149.908 187.298 193.28 153.145 190.085 192.611 190.203 167.406 192.967 
199.198 172.119 193.172 201.066 176.657 192.874 149.892 187.574 193.9 
150.012 188.017 194.084 150.137 188.271 194.018 150.469 188.844 194.141 
188.286 188.862 194.011 149.991 186.598 194.118 193.552 185.136 195.063 
150.671 189.587 195.114 154.515 192.305 194.423 156.76 192.966 193.98 
200.362 177.229 194.339 199.469 178.828 195.169 194.853 183.847 195.832 
150.765 188.532 195.446 150.692 189.403 195.282 151.489 190.869 195.673 
157.364 194.145 195.534 159.713 183.831 196.647 153.461 185.81 195.889 
151.432 189.64 196.224 151.619 190.957 196.115 151.924 191.435 196.224 
152.095 191.672 196.168 152.495 192.047 196.261 153.825 192.947 196.471 
154.87 193.469 196.608 156.195 193.986 196.466 158.082 194.767 197.288 
159.92 195.417 196.704 160.863 195.716 196.658 174.974 197.403 197.497 
194.485 171.074 196.544 198.129 174.993 196.832 198.913 176.209 196.424 
198.771 177.564 196.617 195.582 182.389 197.282 195.848 181.746 197.601 
190.132 187.318 198.2 152.235 189.453 196.745 153.861 189.811 197.482 
151.532 190.699 196.228 151.824 190.841 196.451 152.588 192.058 196.545 
152.666 192.221 196.464 152.814 192.308 196.564 179.898 195.011 198.08 
154.098 193.059 196.704 159.366 195.28 197.673 166.931 198.21 198.358 
176.205 197.331 198.325 192.16 172.485 198.383 196.935 174.987 197.863 
197.429 178.016 197.899 197.521 177.354 197.913 196.739 179.895 197.96 
152.644 190.514 197.017 152.843 191.504 196.961 159.121 191.958 199.312 
154.103 192.576 197.172 158.766 194.962 197.832 159.603 195.11 198.365 
160.237 195.546 198.191 163.038 196.862 199.69 196.796 175.535 198.204 
195.93 176.886 199.117 196.172 178.49 198.92 193.537 183.062 199.457 
161.906 189.208 200.036 160.796 191.46 199.997 159.025 193.15 199.137 
158.164 193.893 198.472 159.214 194.601 198.593 160.05 194.608 199.136 
178.421 196.75 200.265 192.871 174.685 199.814 194.865 175.551 199.42 
192.172 184.725 199.657 161.204 194.086 200.156 170.027 199.523 200.736 
166.242 199.18 202.598 167.678 199.579 201.355 188.449 187.53 201.991 
163.587 192.472 202.073 163.918 195.828 202.269 175.821 198.85 202.5 
167.137 199.775 202.885 188.644 186.788 202.847 165.952 198.83 203.576 
169.226 200.181 202.875 173.406 183.612 203.387 189.156 185.829 203.118 
165.417 197.75 203.932 177.94 197.625 203.526 165.652 198.442 203.603 
188.206 186.021 204.189 165.969 192.942 204.827 166.225 198.446 205.113 
173.625 200.001 205.144 167.312 199.828 205.404 169.811 200.519 205.113 
184.595 180.884 205.017 186.889 180.957 204.818 187.739 185.37 205.004 
187.079 186.844 204.826 185.399 188.781 205.018 167.215 199.58 206.239 
173.878 199.952 206.188 186.004 183.77 206.088 187.729 184.472 205.214 
183.366 189.479 206.49 183.566 190.369 205.745 166.684 198.165 206.527 
185.126 184.565 206.556 185.027 187.392 206.21 171.075 189.912 207.723 
167.585 192.755 206.743 178.133 196.824 206.669 167.003 198.345 207.167 
176.493 198.4 206.725 167.308 199.18 207.446 167.346 199.354 207.339 
175.09 199.327 207.018 167.936 200.037 207.5 173.726 199.845 207.26 
169.479 200.41 207.618 179.567 186.466 207.755 182.043 186.882 207.587 
183.92 187.373 206.839 182.369 189.056 207.245 180.986 189.581 207.862 
180.483 191.064 207.893 169.306 193.63 208.932 167.386 198.996 207.692 
169.233 200.211 208.818 168.446 200.177 208.264 180.858 186.833 207.808 
171.933 191.579 209.244 168.912 195.986 209.579 176.26 197.597 208.529 
175.185 198.717 208.229 168.302 200 208.786 168.672 200.131 208.768 
169.386 200.058 209.187 168.398 200.108 208.689 172.357 193.901 210.514 
169.854 194.807 209.937 176.398 197.068 208.806 168.812 198.874 209.614 
168.72 199.809 209.166 168.42 199.993 208.961 168.358 200.073 208.908 
168.483 200.066 208.918 169.266 199.817 209.433 169.959 199.999 209.235 
[...]
POINT_DATA 879
SCALARS scalars float
LOOKUP_TABLE default
1 1 1 1 1 1 1 1 1 
1 1 1 1 1 1 1 1 1 
1 1 1 1 1 1 1 1 1 
1 1 1 1 1 1 1 1 1 
1 1 1 1 1 1 1 1 1 
1 1 1 1 1 1 1 1 1 
1 1 1 1 1 1 1 1 1 
1 1 1 1 1 1 1 1 1 
1 1 1 1 1 1 1 1 1 
1 1 1 1 1 1 1 1 1 
1 1 1 1 1 1 1 1 1 
1 1 1 1 1 1 1 1 1 
1 1 1 1 1 1 1 1 1 
1 1 1 1 1 1 1 1 1 
1 1 1 1 1 1 1 1 1 
1 1 1 1 1 1 1 1 1 
1 1 1 1 1 1 1 1 1 
1 1 1 1 1 1 1 1 1 
1 1 1 1 1 1 1 1 1 
1 1 1 1 1 1 1 1 1 
1 1 1 1 1 1 1 1 1 
1 1 1 1 1 1 1 1 1 
1 1 1 1 1 1 1 1 1 
1 1 1 1 1 1 1 1 1 
1 1 1 1 1 1 1 1 1 
1 1 1 1 1 1 1 1 1 
1 1 1 1 1 1 1 1 1 
1 1 1 1 1 1 1 1 1 
1 1 1 1 1 1 1 1 1 
1 1 1 1 1 1 1 1 1 
1 1 1 1 1 1 1 1 1 
1 1 1 1 1 1 1 1 1 
1 1 1 1 1 1 1 1 1 
1 1 1 1 1 1 1 1 1 
1 1 1 1 1 1 1 1 1 
1 1 1 1 1 1 1 1 1 
1 1 1 1 1 1 1 1 1 
1 1 1 1 1 1 1 1 1 
1 1 1 1 1 1 1 1 1 
1 1 1 1 1 1 1 1 1 
1 1 1 1 1 1 1 1 1 
1 1 1 1 1 1 1 1 1 
1 1 1 1 1 1 1 1 1 
1 1 1 1 1 1 1 1 1 
1 1 1 1 1 1 1 1 1 
1 1 1 1 1 1 1 1 1 
1 1 1 1 1 1 1 1 1 
1 1 1 1 1 1 1 1 1 
1 1 1 1 1 1 1 1 1 
1 1 1 1 1 1 1 1 1 
1 1 1 1 1 1 1 1 1 
1 1 1 1 1 1 1 1 1 
1 1 1 1 1 1 1 1 1 
1 1 1 1 1 1 1 1 1 
1 1 1 1 1 1 1 1 1 
1 1 1 1 1 1 1 1 1 
1 1 1 1 1 1 1 1 1 
1 1 1 1 1 1 1 1 1 
1 1 1 1 1 1 1 1 1 
1 1 1 1 1 1 1 1 1 
1 1 1 1 1 1 1 1 1 
1 1 1 1 1 1 1 1 1 
1 1 1 1 1 1 1 1 1 
1 1 1 1 1 1 1 1 1 
1 1 1 1 1 1 1 1 1 
1 1 1 1 1 1 1 1 1 
1 1 1 1 1 1 1 1 1 
1 1 1 1 1 1 1 1 1 
1 1 1 1 1 1 1 1 1 
1 1 1 1 1 1 1 1 1 
1 1 1 1 1 1 1 1 1 
1 1 1 1 1 1 1 1 1 
1 1 1 1 1 1 1 1 1 
1 1 1 1 1 1 1 1 1 
1 1 1 1 1 1 1 1 1 
1 1 1 1 1 1 1 1 1 
1 1 1 1 1 1 1 1 1 
1 1 1 1 1 1 1 1 1 
1 1 1 1 1 1 1 1 1 
1 1 1 1 1 1 1 1 1 
1 1 1 1 1 1 1 1 1 
1 1 1 1 1 1 1 1 1 
1 1 1 1 1 1 1 1 1 
1 1 1 1 1 1 1 1 1 
1 1 1 1 1 1 1 1 1 
1 1 1 1 1 1 1 1 1 
1 1 1 1 1 1 1 1 1 
1 1 1 1 1 1 1 1 1 
1 1 1 1 1 1 1 1 1 
1 1 1 1 1 1 1 1 1 
1 1 1 1 1 1 1 1 1 
1 1 1 1 1 1 1 1 1 
1 1 1 1 1 1 1 1 1 
1 1 1 1 1 1 1 1 1 
1 1 1 1 1 1 1 1 1 
1 1 1 1 1 1 1 1 1 
1 1 1 1 1 1 1 1 1 
1 1 1 1 1 1 
NORMALS Normals float
-0.0782855 -0.482433 -0.872427 0.0445545 -0.53673 -0.842577 -0.0406296 -0.559767 -0.827653 
-0.0531086 -0.719208 -0.692762 -0.206907 -0.511065 -0.834267 -0.0981655 -0.480657 -0.871397 
-0.139072 -0.495931 -0.857153 -0.117811 -0.690134 -0.714028 0.0607199 -0.830267 -0.554048 
-0.227272 -0.809237 -0.541741 0.0557167 -0.581895 -0.811353 0.1574 -0.446193 -0.880987 
-0.130738 -0.654536 -0.744641 -0.0547867 -0.852763 -0.519416 -0.211695 -0.700191 -0.681849 
-0.161047 -0.7527 -0.638362 0.136863 -0.464265 -0.875058 0.0503195 -0.211564 -0.976068 
-0.154196 -0.450078 -0.879576 -0.199706 -0.538487 -0.818627 -0.142422 -0.258272 -0.955517 
-0.0523931 -0.115178 -0.991962 0.0448583 -0.183481 -0.981999 0.19488 0.0708138 -0.978267 
0.0168831 0.143153 -0.989557 -0.0580887 0.0523153 -0.99694 0.132913 0.298222 -0.945197 
0.281217 -0.528405 -0.801065 0.247621 -0.839153 -0.484259 -0.00272461 -0.882358 -0.470571 
-0.0825619 -0.853916 -0.51382 0.0418904 -0.664439 -0.746167 0.660992 -0.389005 -0.641689 
0.54413 -0.582285 -0.604042 0.731751 -0.517505 -0.443541 0.459529 -0.204872 -0.864211 
0.618962 -0.262722 -0.740177 -0.189859 -0.843003 -0.50329 0.767648 -0.312451 -0.559546 
-0.0552378 -0.83347 -0.549797 0.297547 -0.238442 -0.924452 0.278941 -0.132409 -0.951136 
-0.134996 -0.443332 -0.886134 0.245772 0.367345 -0.897025 0.00530072 0.349304 -0.936994 
0.148653 -0.718963 -0.678966 0.487963 -0.705699 -0.513694 0.467191 -0.861432 -0.199167 
0.671218 -0.728516 -0.136858 -0.257662 -0.88438 -0.389207 -0.164029 -0.877875 -0.449922 
-0.234974 -0.107504 -0.966039 0.517934 0.0758491 -0.852051 0.58223 0.246934 -0.774617 
-0.256264 0.0547331 -0.965056 0.410979 0.366195 -0.834864 -0.293755 0.162118 -0.942033 
0.291763 0.510927 -0.808597 -0.198619 0.451393 -0.869939 -0.0489011 -0.95274 -0.299825 
0.0931941 -0.90393 -0.417403 -0.0814833 -0.931886 -0.353481 -0.360848 -0.894004 -0.265603 
0.668767 -0.732479 -0.127376 -0.065436 -0.713621 -0.697469 -0.255918 -0.820461 -0.511224 
-0.181372 -0.920068 -0.347246 -0.192579 -0.97423 -0.117426 0.828337 -0.508574 -0.234968 
-0.246712 -0.56748 -0.785557 -0.116329 -0.993162 -0.00980738 0.907424 -0.275437 -0.317358 
-0.293944 -0.455118 -0.840514 0.754615 0.0639648 -0.653043 -0.290359 -0.05556 -0.955304 
0.272548 0.443909 -0.853617 -0.319342 0.453108 -0.832294 -0.0385953 0.656161 -0.753633 
-0.200808 -0.973194 -0.112113 0.786025 -0.61486 -0.0641178 -0.303868 -0.908359 -0.287313 
-0.088791 -0.941673 -0.324605 -0.176934 -0.980547 -0.0849854 -0.125608 -0.991125 0.0435185 
-0.208283 -0.977925 -0.0167555 -0.349652 -0.808138 -0.473979 -0.429883 -0.686381 -0.586584 
-0.252705 -0.845852 -0.46976 -0.396227 -0.595641 -0.698725 -0.468999 -0.11393 -0.87582 
0.658723 0.399258 -0.637713 0.445267 0.518521 -0.729981 0.226515 0.643689 -0.730996 
-0.388629 -0.898314 0.20494 -0.160984 -0.975393 0.150642 0.849404 -0.527741 0.00122256 
-0.209619 -0.976183 -0.055913 -0.109404 -0.97897 0.172185 -0.0924535 -0.963118 0.252697 
-0.450969 -0.839558 -0.302934 -0.538313 -0.649601 -0.536878 -0.0635104 -0.987454 0.144575 
-0.561841 -0.619423 -0.548316 -0.506085 -0.590402 -0.628732 -0.520015 -0.202997 -0.829685 
-0.376733 0.203777 -0.90363 0.3705 0.657435 -0.656132 0.00462133 -0.999989 -0.000544479 
0.320381 -0.94614 -0.0466488 -0.151107 -0.988517 -7.22921e-05 -0.485993 -0.861521 -0.146943 
-0.603322 -0.593795 -0.532362 0.000720159 -0.927119 0.374767 -0.13296 -0.959143 0.249732 
-0.54329 -0.758561 -0.359752 0.96803 -0.0849848 -0.235998 0.908762 0.0358918 -0.415768 
-0.678506 -0.251468 -0.690212 0.810524 0.236581 -0.535799 0.913452 0.131563 -0.385092 
-0.389118 0.530828 -0.752867 0.0998522 0.783978 -0.612706 -0.103205 -0.944938 0.310548 
-0.0959222 -0.808003 0.581317 0.927533 -0.322163 -0.189455 -0.729041 -0.629059 -0.269785 
-0.542134 -0.740359 -0.397442 -0.11183 -0.906086 0.408047 -0.714725 -0.429384 -0.552085 
0.987667 -0.126378 -0.0924211 -0.725006 -0.479536 -0.49438 -0.74577 -0.3029 -0.593362 
-0.638197 -0.0289043 -0.76933 0.846857 0.271895 -0.457063 -0.48411 0.494824 -0.721655 
0.230266 -0.953885 0.192563 0.572758 -0.806902 0.14442 0.815952 -0.565992 0.117791 
-0.269482 -0.913711 0.304157 -0.280539 -0.894974 0.346872 -0.440428 -0.889017 0.125185 
-0.0448371 -0.865897 0.498208 -0.613477 -0.464424 -0.638714 -0.644989 -0.757536 0.100636 
-0.779936 -0.413257 -0.47002 -0.667939 -0.741656 0.0616815 -0.646246 -0.699146 -0.305876 
-0.831019 -0.369159 -0.416088 0.980725 -0.127428 -0.148121 -0.798746 -0.334731 -0.49996 
0.956714 0.0397301 -0.288306 0.79255 0.376856 -0.47942 0.554114 0.637252 -0.535601 
0.964735 -0.257115 0.0563837 -0.420742 -0.835703 0.352954 -0.111213 -0.76487 0.634513 
-0.783185 -0.619031 0.0584915 -0.558421 -0.796004 -0.233545 -0.694923 -0.698683 -0.170072 
-0.743084 -0.49591 -0.449332 -0.663611 -0.384763 -0.641544 -0.731125 -0.553159 -0.399338 
0.929694 0.0764203 -0.360319 0.00242578 -0.958231 0.285986 0.959279 -0.282446 0.00297643 
-0.428626 -0.746926 0.508313 -0.135749 -0.73199 0.667655 -0.70686 -0.707271 -0.0107958 
-0.813263 -0.54695 -0.198618 -0.683177 -0.696955 0.217996 -0.860709 -0.359268 -0.360703 
-0.865418 -0.255725 -0.430879 -0.915125 -0.402945 0.0134335 -0.819244 -0.0309628 -0.572609 
-0.918828 0.0530609 -0.391075 -0.828897 0.190403 -0.526 -0.63561 0.412105 -0.652816 
-0.275356 0.738227 -0.615793 0.918656 -0.379376 0.110202 -0.489054 -0.75104 0.443582 
-0.42483 -0.821767 0.379762 -0.827009 -0.555796 0.0845442 -0.627242 -0.725643 0.282861 
-0.698107 -0.614869 0.366855 -0.770042 -0.597502 0.223667 -0.967191 -0.24257 -0.0755045 
-0.840579 -0.298723 0.451875 -0.941611 -0.181377 0.283673 -0.918053 0.230687 -0.322432 
-0.814582 0.402969 -0.417219 0.971434 -0.211004 -0.108596 -0.404611 -0.682228 0.608979 
0.985128 -0.098591 -0.140723 0.972753 -0.0394704 -0.228457 -0.656434 -0.527247 0.539542 
-0.948097 -0.170132 0.268639 -0.677437 -0.464236 0.570582 -0.974813 0.132957 -0.179056 
0.837988 0.373486 -0.397849 -0.899371 0.346699 -0.26633 -0.259757 -0.694619 0.670843 
-0.0260231 -0.606898 0.794354 0.927546 -0.363707 0.0858802 -0.276247 -0.655578 0.702784 
-0.962611 0.248952 -0.106785 -0.999151 -0.00395571 0.041008 0.821097 0.495747 -0.282905 
0.360611 0.81675 -0.450422 0.147337 -0.934017 0.32543 -0.0913084 -0.882568 0.461233 
0.49832 -0.779464 0.379623 0.851575 -0.465264 0.241556 0.916303 -0.399229 -0.0317114 
0.998343 -0.0322109 -0.047678 -0.853822 -0.353056 0.382544 -0.949944 -0.168532 0.263065 
-0.990425 0.00475242 0.137967 -0.780055 -0.563364 0.272277 -0.729628 0.505823 -0.460201 
0.677479 0.723737 -0.131255 0.573536 0.764551 -0.29414 0.221765 -0.853709 0.471169 
-0.696188 -0.538813 0.474344 0.844212 0.535874 0.0120722 -0.93958 -0.153337 0.306069 
-0.962845 0.219804 -0.156892 -0.873872 0.359524 -0.327246 0.0383055 0.853758 -0.519259 
-0.115659 -0.873416 0.473041 -0.316926 -0.7687 0.555569 0.270662 -0.741215 0.614282 
0.882471 -0.427803 0.195525 0.968795 0.234444 0.0804508 -0.666814 -0.418288 0.616762 
-0.932271 -0.142452 0.332532 0.132982 -0.806715 0.575784 0.823032 0.518868 0.231073 
-0.779123 -0.219945 0.587019 -0.636152 -0.380743 0.671078 -0.392249 -0.490072 0.778441 
0.650694 0.745115 0.146289 -0.680737 -0.351485 0.642694 -0.990967 0.00362385 0.134058 
-0.987048 0.140341 -0.0777182 -0.775533 0.445466 -0.447336 -0.510279 0.580085 -0.634915 
-0.798604 0.455451 -0.393441 -0.494394 0.660882 -0.564632 -0.1701 -0.680857 0.71239 
0.744591 -0.508595 0.432338 0.939305 -0.0670583 0.336466 -0.98103 0.190719 0.0347444 
-0.945025 0.258792 0.199886 -0.875924 0.438887 -0.200336 -0.757004 0.57157 -0.316627 
0.536867 0.841509 -0.0603034 -0.84162 -0.145226 0.520177 0.609406 0.779643 0.144155 
-0.912714 0.40757 -0.0289741 -0.421169 0.769654 -0.479843 -0.305203 0.761422 -0.571916 
0.887751 0.165342 0.429605 0.775731 0.412162 0.477874 0.65972 0.724833 0.198461 
-0.723877 -0.212071 0.656527 -0.900828 0.167815 0.400432 -0.838177 0.545389 0.00326365 
-0.27418 0.893837 -0.354796 -0.385099 -0.483576 0.786036 -0.315344 -0.483468 0.816589 
-0.685478 -0.0125811 0.727985 -0.830286 0.483645 0.276969 -0.761436 0.530783 0.372136 
-0.670998 0.682335 -0.290139 -0.691381 0.718392 -0.0768527 -0.448982 0.818691 -0.357996 
-0.38757 0.917581 0.0885119 -0.397575 0.915208 0.0657926 -0.27336 0.957964 -0.0870656 
-0.363721 0.923867 -0.119064 -0.330581 0.903797 -0.271785 0.247854 0.866934 -0.432428 
0.398056 -0.591703 0.701027 0.640011 -0.336873 0.690581 0.805818 -0.132997 0.577035 
0.721813 0.0192207 0.691821 0.616716 0.502362 0.606048 0.456117 0.471662 0.754647 
0.638357 0.755567 0.147036 -0.471557 -0.203026 0.858146 -0.320677 -0.178773 0.930165 
-0.757664 0.20867 0.618387 -0.64575 0.279635 0.710501 -0.654888 0.427242 0.623366 
-0.638098 0.756833 0.14154 -0.555381 0.644952 0.524965 0.569337 0.804761 -0.167971 
-0.431616 0.770009 0.469887 -0.413757 0.900778 0.131925 -0.159883 0.890554 -0.425853 
0.391624 0.863692 -0.31728 -0.0721213 -0.660067 0.747737 0.609936 -0.311107 0.728828 
0.632285 0.15564 0.758942 0.633835 -0.0583159 0.771267 0.653044 0.328756 0.682241 
-0.519455 0.0682679 0.851766 -0.448607 0.209051 0.868936 -0.403134 0.0709221 0.912389 
-0.407806 0.363098 0.837768 -0.429094 0.870172 0.242239 -0.365327 0.730981 0.576371 
-0.388947 0.849736 0.355906 -0.630537 0.697345 0.340784 0.533808 -0.211363 0.818764 
0.481729 -0.0517863 0.874788 0.485929 0.163971 0.858479 0.785789 0.362326 0.501254 
-0.512677 -0.189108 0.837497 -0.487866 -0.0975963 0.867445 -0.412003 0.237857 0.879589 
-0.449932 0.440505 0.776863 -0.396437 0.539445 0.742857 -0.524298 0.423386 0.738821 
0.633195 0.761896 -0.1363 0.278518 -0.516069 0.81 0.409071 -0.316021 0.856033 
0.750579 0.526902 0.398755 -0.570122 0.078799 0.817772 0.0767061 0.949643 -0.303799 
-0.625808 0.779977 -0.00111966 -0.265198 0.92406 -0.275287 0.646006 0.683112 0.340637 
-0.660653 -0.0334534 0.749946 -0.81943 0.288403 0.495336 0.376945 0.912741 -0.157535 
-0.351146 0.931647 -0.0934324 0.653064 0.605457 0.454895 -0.745177 0.644918 0.169683 
-0.11777 0.97933 -0.16445 -0.348612 -0.642827 0.682087 0.76612 0.39805 0.504596 
-0.814087 0.340091 0.470744 0.619664 0.782975 -0.0544685 -0.795581 0.541676 0.271364 
0.685546 0.431522 0.586358 -0.695308 -0.265173 0.668005 -0.904606 0.233849 0.356375 
0.208174 0.977482 -0.0345257 -0.719527 0.680607 0.138036 0.0206668 0.992391 -0.121379 
-0.0284824 -0.517394 0.855273 0.268655 -0.395803 0.878159 0.594847 0.249685 0.764078 
0.57331 0.375733 0.728108 0.610328 0.425544 0.668141 -0.874415 0.453672 0.17199 
0.257082 0.965109 0.049733 0.165652 -0.380699 0.90974 0.611832 0.0619183 0.788561 
0.536752 0.348437 0.768433 0.701938 0.576023 0.418903 -0.951099 0.104089 0.290821 
0.35193 -0.0579225 0.934232 0.518908 0.149833 0.841596 -0.471707 -0.574695 0.668743 
-0.685233 -0.333146 0.647665 0.76229 0.544842 0.349373 -0.900455 0.13329 0.414022 
0.62672 0.754964 0.193003 -0.880499 0.32719 0.343028 -0.813572 0.477652 0.331585 
0.490758 0.834151 0.251692 -0.463222 0.883004 0.0756911 0.238473 0.898051 0.369642 
0.0128245 0.992819 0.118938 -0.0807918 -0.526386 0.846398 0.18439 -0.319212 0.929572 
0.484215 0.125933 0.865839 0.432801 0.229049 0.871906 0.39022 0.142736 0.90959 
0.425406 0.0998161 0.899481 -0.511449 -0.42934 0.74437 -0.822584 0.0228638 0.568184 
-0.145941 0.891138 0.429621 -0.35229 0.93101 0.0954566 0.202833 -0.165141 0.965188 
-0.372868 -0.488415 0.788936 -0.756135 -0.160436 0.634445 0.570179 0.577026 0.584754 
0.470428 0.710603 0.523202 -0.830477 0.491942 0.261344 -0.0878175 0.940915 0.327059 
-0.0124435 0.931911 0.362473 -0.343628 0.933965 0.0981299 -0.139899 -0.401647 0.905046 
-0.539086 -0.365521 0.758802 0.630124 0.350572 0.692851 -0.698406 -0.108939 0.707362 
-0.0785383 0.768341 0.635204 -0.488114 0.320472 0.811814 -0.790389 0.370567 0.487817 
0.108022 0.858392 0.501493 -0.27622 0.698821 0.659812 0.224025 0.854628 0.468428 
-0.367935 0.924897 0.0958652 0.00569971 0.832575 0.553883 -0.352447 -0.339743 0.871984 
0.300985 -0.0976399 0.948617 0.208031 0.252105 0.945075 0.561318 0.134599 0.816581 
0.541816 0.42082 0.727562 -0.565389 0.0468011 0.823496 0.355114 0.342107 0.869975 
-0.580664 -0.0644674 0.811587 0.221273 0.576883 0.786285 -0.292845 0.519392 0.802791 
-0.189203 0.71938 0.668352 -0.202444 0.587877 0.783209 0.0613588 0.632984 0.771729 
0.136925 -0.123175 0.982893 -0.328967 -0.1204 0.936635 0.39659 0.201977 0.895501 
-0.35666 0.282415 0.890526 -0.125298 0.460451 0.878798 -0.0381172 0.481325 0.875713 
0.0314998 -0.00552247 0.999489 -0.0283488 0.263461 0.964253 -0.152151 0.254706 0.954974 
-0.357961 -0.12334 -0.925555 0.102317 0.0703745 -0.992259 -0.418233 -0.0274221 -0.907926 
-0.10231 0.264142 -0.959042 -0.582032 0.23947 -0.777106 -0.241989 0.332028 -0.911701 
0.0545067 -0.321506 -0.945337 -0.238299 -0.275153 -0.931399 -0.674773 -0.0583157 -0.735718 
0.177048 0.711171 -0.68036 0.271285 0.199744 -0.941545 0.368856 0.150844 -0.917165 
-0.00317427 0.568232 -0.822863 0.367886 0.775492 -0.513101 0.759844 0.213046 -0.614206 
0.715917 0.0443634 -0.696775 0.124286 0.564132 -0.816277 0.284303 0.653029 -0.701944 
0.749268 0.556803 -0.358564 -0.69995 0.365289 -0.613705 -0.135446 0.642785 -0.753977 
0.0662559 0.683103 -0.727311 -0.516746 0.569147 -0.639567 -0.109299 -0.500334 -0.858906 
0.335798 0.131456 -0.932716 0.43842 0.10326 -0.892819 0.354963 0.291972 -0.888118 
0.225522 0.96004 -0.165721 0.30934 0.458422 -0.833162 0.791973 0.362706 -0.491144 
0.543174 0.810191 -0.220347 -0.687684 0.658635 -0.305434 0.0986951 0.859013 -0.50235 
0.0195363 -0.289828 -0.956879 0.194662 -0.230795 -0.953331 0.23992 -0.0990227 -0.965729 
0.313346 -0.121029 -0.941895 -0.553286 -0.346448 -0.757528 0.294029 -0.0923982 -0.95132 
-0.540138 -0.245103 -0.805094 -0.711227 -0.122778 -0.692157 0.646149 0.328956 -0.688679 
0.225311 0.918603 -0.324658 -0.412936 0.862946 -0.291219 -0.0385881 0.992591 -0.11521 
0.434774 0.816875 -0.379061 0.306015 0.916882 -0.256287 0.221514 -0.280049 -0.934079 
-0.204588 -0.543752 -0.813927 0.376855 0.0215702 -0.926021 0.446996 0.0617316 -0.892404 
-0.296006 -0.588366 -0.752466 0.505587 0.189157 -0.841785 0.61247 0.37335 -0.696771 
-0.80009 0.256292 -0.542375 0.631273 0.733833 -0.250965 -0.361461 0.920829 -0.146355 
0.188063 -0.186434 -0.9643 0.539806 -0.231837 -0.809235 -0.0238265 -0.505978 -0.862217 
0.312519 -0.147453 -0.938397 0.75492 0.438081 -0.488039 -0.843862 0.0742942 -0.531392 
-0.849348 0.250293 -0.464717 -0.879833 0.313801 -0.356964 0.282456 0.906906 -0.312635 
-0.717252 0.628771 -0.300327 -0.227046 0.973412 -0.0302989 0.343368 -0.344711 -0.873655 
0.61375 0.0130889 -0.789392 -0.582443 -0.453746 -0.674443 0.858911 0.453081 -0.238722 
0.735619 0.567268 -0.370232 -0.774651 0.600719 -0.197619 0.460649 0.882733 -0.0926595 
-0.706238 0.679468 -0.198875 0.0707081 0.996333 0.0481765 -0.383726 -0.601045 -0.70107 
-0.471136 -0.571961 -0.671485 0.737534 0.599066 -0.31171 -0.807533 -0.0203898 -0.58947 
0.733513 0.635929 -0.239904 0.690264 0.690881 -0.214989 0.242512 0.970102 -0.00946937 
-0.478527 0.876623 -0.0504362 0.23028 -0.338899 -0.912206 -0.0828166 -0.519148 -0.850662 
-0.307381 -0.677427 -0.668288 0.609894 0.4369 -0.661172 -0.622761 -0.339548 -0.704894 
0.144707 0.96609 0.213847 0.302319 -0.297004 -0.905755 -0.671 -0.211109 -0.710768 
-0.859302 0.198871 -0.471223 0.807614 0.583447 -0.0857218 -0.8193 0.312709 -0.480583 
0.638544 0.763685 0.0951141 -0.768675 0.601983 -0.216232 -0.796824 0.515901 -0.314513 
0.515295 0.100803 -0.851064 0.552736 0.33077 -0.764902 0.728196 0.463577 -0.504803 
0.55949 0.673536 -0.483032 -0.643502 -0.076974 -0.761564 0.761606 0.640261 -0.100112 
-0.775466 0.0173631 -0.631151 -0.84372 0.424203 -0.328921 0.378689 0.908263 0.177913 
-0.0693328 -0.68831 -0.722096 0.316425 -0.431117 -0.844993 0.293283 -0.33237 -0.89639 
0.547763 -0.27628 -0.789699 0.69574 -0.319718 -0.643215 0.661507 0.591958 -0.460429 
-0.583823 -0.333301 -0.740312 0.592678 0.783278 -0.18764 0.698043 0.716047 0.00361176 
-0.681739 0.299736 -0.667376 0.549509 0.802142 0.233685 -0.673167 0.730619 -0.1142 
-0.612557 0.789713 0.0335645 -0.0799774 0.962421 0.259519 -0.51446 0.854213 0.0751787 
0.597975 0.102306 -0.794959 0.660997 0.440698 -0.607346 -0.408407 -0.204015 -0.889709 
-0.488796 -0.410913 -0.769564 -0.662868 0.643081 -0.383475 -0.134106 0.91595 0.37822 
0.52523 -0.468127 -0.710627 0.611615 -0.212322 -0.762133 0.738565 0.126935 -0.662125 
-0.347454 0.0653799 -0.935415 -0.508852 0.151312 -0.847452 -0.579833 0.52436 -0.623571 
0.658185 0.738066 0.148497 -0.0266681 -0.548632 -0.835639 0.701058 0.422687 -0.574328 
0.651419 0.548603 -0.524108 -0.538246 0.407825 -0.737544 -0.505764 0.749863 -0.426507 
-0.475589 0.569135 -0.670746 0.5277 0.794459 0.300612 -0.559961 0.723518 -0.40369 
-0.548434 0.72134 -0.422952 -0.522561 0.786985 -0.328 -0.565885 0.758727 -0.322656 
0.188713 0.867699 0.459876 0.446162 0.835069 0.321868 -0.521123 0.850304 -0.0735845 
-0.0499573 -0.724077 -0.687908 0.770612 -0.252967 -0.584948 0.725861 -0.150858 -0.671095 
0.77703 0.317186 -0.543708 -0.236495 -0.67456 -0.699313 0.71987 0.5354 -0.44174 
-0.325574 -0.39408 -0.859478 -0.815587 0.252608 -0.520583 -0.497992 0.00141987 -0.86718 
-0.776593 0.360747 -0.516493 -0.635636 0.732851 -0.242685 -0.446288 0.893543 0.0490781 
-0.429652 0.896054 0.111741 -0.375919 0.926628 -0.00675254 0.360628 -0.686296 -0.631621 
0.593925 -0.475159 -0.649213 0.892503 -0.00578748 -0.451004 0.682949 0.691497 -0.235398 
-0.875452 -0.0565134 -0.47999 -0.482304 -0.290772 -0.826338 -0.914947 0.190714 -0.355669 
-0.550991 -0.125265 -0.825056 -0.913343 0.321605 -0.24975 -0.777103 0.114775 -0.61882 
-0.883608 0.42428 -0.198048 -0.781143 0.537688 -0.317343 -0.841879 0.53086 -0.0970944 
-0.650547 0.734573 0.192851 -0.557362 0.797158 0.232136 -0.453078 0.888795 0.069022 
-0.33637 0.869511 0.361671 -0.216074 0.887554 0.406891 0.829532 0.290789 -0.476779 