# vtk DataFile Version 4.2
vtk output
ASCII
DATASET POLYDATA
POINTS 5494 float
198.707 125.816 173.089 194.642 127.965 172.924 203.578 135.048 174.065 
203.545 135.001 174.06 203.537 135.09 174.058 203.593 135.005 174.096 
203.586 135.094 174.095 198.166 136.22 172.645 203 137.009 172.017 
203 137.009 172.017 203 137.009 172.017 203 137.009 172.017 
203 137.009 172.017 204.023 140.192 173.64 204.127 140.34 173.71 
203.274 141.637 173.238 203.899 140.851 173.576 203.457 141.484 173.334 
200.486 146.532 172.612 202.109 132.603 173.511 203.537 134.856 174.112 
203.419 135 174.027 203.661 135.019 174.208 203.501 135.302 174.103 
207 136.009 173.017 207 136.009 173.017 207 136.009 173.017 
207 136.009 173.017 203 137.009 172.017 206.341 137.008 173.653 
206.341 137.007 173.653 206.341 137.007 173.653 207 136.009 173.017 
206.341 137.007 173.653 203.901 139.72 173.639 203.801 139.826 173.601 
203.945 139.768 173.665 206.341 137.007 173.653 204.396 140.446 174.046 
202.714 141.606 173.09 203.792 141.574 173.565 204.665 144.166 174.556 
185.333 152.237 172.405 192.234 122.573 174.769 203.185 121.541 174.683 
190.213 124.426 174.721 190.58 128.05 173.797 203.623 126.415 174.523 
204.327 128.328 174.815 204.399 128.36 174.849 204.455 128.357 174.933 
203.182 129.16 174.113 203.601 131.173 174.393 202.827 135.504 173.743 
207 136.009 173.017 206.341 137.007 173.654 206.341 137.007 173.654 
206.341 137.007 173.654 206.341 137.007 173.653 206.341 137.007 173.654 
203.882 139.661 173.661 203.242 138.014 173.827 206.341 137.007 173.653 
206.341 137.007 173.654 203.852 139.468 173.767 204.507 139.668 174.398 
202.969 140.67 173.21 205.059 139.818 175.262 180.488 148.555 173.694 
204.558 148.007 174.574 204.063 153.315 174.854 203.066 117.991 175.374 
190.065 124.258 174.869 191.386 124.75 174.345 204.146 128.763 174.755 
204.795 129.168 175.363 205.713 129.66 176.319 205.77 129.636 176.347 
205.792 129.599 176.388 205.779 129.688 176.397 205.045 131.663 175.889 
182.511 135.031 175.823 206.341 137.007 173.654 206.341 137.007 173.654 
184.43 141.08 174.877 206.711 150.129 176.844 197.908 159.831 174.704 
175.365 177.043 175.141 180.99 178.622 175.761 208.45 116.37 176.987 
208.211 121.024 177.226 205.517 129.491 176.153 205.78 129.456 176.451 
205.687 129.885 176.427 205.801 129.7 176.487 184.902 138.433 175.264 
205.64 139.689 176.47 171.302 150.964 176.131 205.97 154.44 176.881 
201.439 159.253 176.329 201.962 159.376 176.991 205.857 129.595 176.688 
183.222 138.555 176.088 183.98 138.631 175.841 184.005 139.147 175.79 
176.983 143.4 177.334 170.736 148.017 177.615 206.88 153.815 177.872 
196.307 171.134 177.92 190.868 174.828 176.636 168.685 181.407 177.063 
210.947 114.965 178.548 211.052 117.183 178.675 211.979 117.492 179.744 
187.871 119.339 178.163 206.619 128.201 178.267 183.828 138.785 176.143 
183.642 138.841 176.191 183.815 138.807 176.342 183.849 138.872 176.138 
181.126 138.834 176.825 182.977 139.249 176.13 183.655 139.082 176.077 
183.79 138.851 176.331 207.559 149.024 178.56 206.639 155.483 178.909 
206.005 156.455 178.741 203.168 158.838 178.122 204.346 158.164 179.147 
202.02 159.948 177.976 200.943 161.599 178.21 178.994 183.064 177.67 
202.952 110.594 178.784 191.6 115.04 179.073 178.349 129.12 179.11 
183.864 138.76 176.584 183.875 138.751 176.62 183.873 138.755 176.605 
183.853 138.773 176.526 183.817 138.791 176.461 183.83 138.827 176.336 
183.84 138.796 176.459 183.862 138.762 176.582 175.299 142.571 178.941 
169.662 146.781 179.04 203.113 158.293 180.701 203.45 158.126 180.697 
202.53 159.267 179.945 204.009 158.272 179.974 203.404 158.728 179.285 
204.65 158.11 180.074 205.43 157.603 179.674 205.019 158.029 180.01 
205.276 157.869 179.971 199.185 166.351 179.189 158.165 168.134 178.834 
194.065 176.451 179.15 214.239 113.691 181.215 212.573 117.483 180.627 
174.043 136.664 181.668 183.871 138.757 176.603 183.864 138.766 176.566 
208.452 149.753 180.658 164.221 151.225 179.896 203.653 157.392 181.521 
201.859 159.495 181.239 204.916 157.972 180.762 201.585 160.24 181.013 
200.792 162.438 180.699 198.24 171.744 180.214 213.474 109.351 181.35 
212.664 118.255 181.66 208.27 124.647 180.249 206.776 131.034 181.141 
172.762 135.471 182.746 176.005 138.723 180.466 177.58 139.234 179.21 
177.517 139.228 179.306 177.516 139.251 179.303 177.383 139.027 179.356 
171.778 143.188 180.954 207.548 145.097 180.229 208.592 151.223 181.553 
207.251 155.182 180.762 202.626 157.688 181.895 205.009 157.684 181.289 
205.144 157.903 181.07 205.343 157.988 180.649 205.483 157.934 180.852 
155.828 163.072 181.146 199.295 170.094 181.31 157.042 181.418 181.715 
169.048 187.88 181.612 175.921 187.648 181.116 178.307 123.791 182.197 
207.215 135.016 182.533 172.337 134.918 183.258 172.463 135.416 183.268 
175.325 138.326 181.136 174.92 139.595 181.366 205.846 157.443 181.295 
205.39 157.771 181.306 205.309 157.915 181.125 205.371 157.975 181.018 
205.485 157.924 181.015 199.917 168.362 182.703 199.271 173.232 182.683 
153.122 177.995 182.313 205.072 104.57 182.678 208.88 104.213 182.669 
171.995 133.765 183.754 174.815 138.449 181.803 175.101 139.054 181.397 
170.009 143.341 182.406 205.858 156.515 182.664 205.72 157.196 181.865 
205.599 157.762 181.179 200.26 164.758 183.343 200.103 166.829 183.423 
151.802 168.442 182.962 209.314 123.612 183.628 171.536 133.115 184.749 
171.549 133.412 184.686 174.634 138.504 182.085 174.718 138.539 182.041 
174.625 138.651 182.088 172.138 140.151 183.957 161.029 150.601 183.712 
203.713 153.141 185.221 208.754 151.351 183.924 206.278 156.707 182.45 
151.659 165.073 184.362 199.288 177.294 185.022 202.676 102.861 184.863 
211.189 101.094 184.595 216.961 101.698 185.615 217.895 102.291 185.868 
217.823 102.861 185.691 216.878 104.502 184.707 193.803 107.372 184.946 
172.041 130.508 184.98 207.52 133.623 185.786 174.708 138.549 182.055 
172.804 137.923 184.093 173.156 138.514 183.65 173.463 139.084 183.205 
209.431 148.929 184.688 207.717 153.251 184.123 155.744 156.026 185.499 
206.333 154.987 183.801 206.404 156.436 182.764 206.373 156.58 182.64 
200.556 174.318 186.087 215.84 100.416 185.805 218.279 100.376 186.714 
199.539 102.936 186.824 219.767 104.268 187.475 191.526 107.622 186.818 
208.767 135.989 185.889 171.9 138.027 185.704 209.245 149.706 185.671 
208.579 150.916 185.865 206.454 156.494 182.683 150.737 163.882 186.6 
147.762 178.821 186.39 149.238 180.244 185.921 213.766 97.109 188.236 
220.073 99.743 188.354 194.645 105.308 187.474 209.118 123.678 186.992 
206.815 128.347 186.958 171.157 130.232 187.29 171.082 130.937 187.135 
207.859 133.734 187.077 171.264 135.515 187.444 171.313 138.086 187.127 
211.856 142.431 188.635 205.3 149.674 188.121 208.468 150.582 186.7 
146.999 178.277 187.017 200.588 177.949 187.899 214.225 96.5356 189.124 
219.605 96.9345 189.441 217.156 97.7769 187.808 219.792 97.1728 189.344 
220.009 97.2757 189.443 206.585 99.0623 188.063 182.845 113.482 188.15 
206.651 127.798 188.354 206.3 131.172 188.843 210.485 136.349 187.946 
204.734 148.607 189.101 161.775 147.358 188.189 205.575 148.986 188.737 
209.162 149.354 187.468 207.04 149.92 188.219 208.415 150.196 187.429 
147.134 169.609 188.533 145.56 174.358 188.689 200.139 179.368 188.892 
219.7 96.1288 190.456 219.92 96.2012 190.515 218.908 96.5058 189.648 
219.155 96.2111 190.141 220.007 96.6071 190.073 220.25 96.6547 190.283 
220.405 96.8565 190.341 196.98 103.437 189.362 191.459 106.612 189.676 
170.816 129.706 189.208 205.701 130.602 190.198 206.378 131.952 190.051 
209.285 133.568 190.233 206.837 132.379 190.045 211.728 136.949 189.503 
205.142 146.853 190.476 205.095 146.333 190.918 203.883 148.029 190.1 
204.585 148.14 189.572 205.523 147.682 189.813 205.944 147.862 189.759 
203.05 150.094 188.986 207.389 149.022 189.234 208.201 149.889 188.101 
207.859 150.457 187.565 201.22 173.951 189.381 145.252 175.794 189.405 
146.975 181.955 189.059 150.712 184.123 187.929 191.842 185.498 188.444 
168.085 192.791 189.074 219.201 96.0185 190.539 213.363 96.3037 190.473 
220.269 96.3884 190.835 172.437 124.306 190.234 170.836 129.092 189.58 
205.969 131.635 190.507 205.659 131.743 191.295 207.796 132.896 190.486 
211.185 134.805 190.375 205.436 145.864 191.298 203.649 147.743 190.597 
206.226 147.313 190.32 207.507 148.096 190.313 207.996 149.235 189.047 
201.279 174.132 190.155 201.538 176.63 190.38 178.006 192.666 190.207 
219.823 96.0478 191.02 220.38 96.4516 191.145 220.555 96.7195 191.198 
220.941 97.7013 191.221 198.471 102.469 191.07 217.613 113.226 190.896 
170.984 126.916 191.59 207.832 132.755 191.298 210.321 133.599 191.007 
206.533 132.43 191.606 210.92 134.116 190.855 211.934 135.17 191.238 
212.439 136.945 191.22 205.795 144.932 192.097 206.128 144.832 192.24 
204.706 146.029 191.357 204.377 145.968 191.676 205.197 145.37 191.794 
206.191 145.755 191.544 206.904 146.11 191.749 209.267 147.959 190.481 
200.945 151.496 191.234 200.483 171.335 190.995 144.993 173.899 190.692 
174.114 194.55 191.755 219.53 95.9088 191.656 221.55 100.668 192.285 
173.5 121.605 192.216 210.826 121.141 191.588 206.419 126.138 192.237 
204.168 131.775 193.358 210.704 132.302 193 204.19 132.393 193.683 
207.231 132.558 192.381 211.982 133.557 192.621 205.088 132.387 192.932 
205.517 132.474 192.765 206.52 132.552 192.54 211.185 145.535 192.225 
144.937 173.112 191.676 201.365 177.433 191.513 220.52 96.6411 192.085 
219.545 96.0411 192.903 199.202 102.24 192.971 212.878 119.347 192.615 
170.633 128.259 192.795 203.874 130.764 193.624 203.048 132.162 194.656 
203.848 132.757 194.216 204.203 132.791 194.051 204.484 133.106 194.422 
206.562 142.529 193.996 206.839 142.292 194.242 207.094 142.253 194.446 
202.458 147.047 193.112 208.922 146.436 194.244 209.411 146.945 193.109 
200.916 174.056 192.579 143.447 177.922 192.985 178.377 193.976 193.209 
[...]
POINT_DATA 5494
SCALARS scalars float
LOOKUP_TABLE default
1 1 1 1 1 1 1 1 1 
1 1 1 1 1 1 1 1 1 
1 1 1 1 1 1 1 1 1 
1 1 1 1 1 1 1 1 1 
1 1 1 1 1 1 1 1 1 
1 1 1 1 1 1 1 1 1 
1 1 1 1 1 1 1 1 1 
1 1 1 1 1 1 1 1 1 
1 1 1 1 1 1 1 1 1 
1 1 1 1 1 1 1 1 1 
1 1 1 1 1 1 1 1 1 
1 1 1 1 1 1 1 1 1 
1 1 1 1 1 1 1 1 1 
1 1 1 1 1 1 1 1 1 
1 1 1 1 1 1 1 1 1 
1 1 1 1 1 1 1 1 1 
1 1 1 1 1 1 1 1 1 
1 1 1 1 1 1 1 1 1 
1 1 1 1 1 1 1 1 1 
1 1 1 1 1 1 1 1 1 
1 1 1 1 1 1 1 1 1 
1 1 1 1 1 1 1 1 1 
1 1 1 1 1 1 1 1 1 
1 1 1 1 1 1 1 1 1 
1 1 1 1 1 1 1 1 1 
1 1 1 1 1 1 1 1 1 
1 1 1 1 1 1 1 1 1 
1 1 1 1 1 1 1 1 1 
1 1 1 1 1 1 1 1 1 
1 1 1 1 1 1 1 1 1 
1 1 1 1 1 1 1 1 1 
1 1 1 1 1 1 1 1 1 
1 1 1 1 1 1 1 1 1 
1 1 1 1 1 1 1 1 1 
1 1 1 1 1 1 1 1 1 
1 1 1 1 1 1 1 1 1 
1 1 1 1 1 1 1 1 1 
1 1 1 1 1 1 1 1 1 
1 1 1 1 1 1 1 1 1 
1 1 1 1 1 1 1 1 1 
1 1 1 1 1 1 1 1 1 
1 1 1 1 1 1 1 1 1 
1 1 1 1 1 1 1 1 1 
1 1 1 1 1 1 1 1 1 
1 1 1 1 1 1 1 1 1 
1 1 1 1 1 1 1 1 1 
1 1 1 1 1 1 1 1 1 
1 1 1 1 1 1 1 1 1 
1 1 1 1 1 1 1 1 1 
1 1 1 1 1 1 1 1 1 
1 1 1 1 1 1 1 1 1 
1 1 1 1 1 1 1 1 1 
1 1 1 1 1 1 1 1 1 
1 1 1 1 1 1 1 1 1 
1 1 1 1 1 1 1 1 1 
1 1 1 1 1 1 1 1 1 
1 1 1 1 1 1 1 1 1 
1 1 1 1 1 1 1 1 1 
1 1 1 1 1 1 1 1 1 
1 1 1 1 1 1 1 1 1 
1 1 1 1 1 1 1 1 1 
1 1 1 1 1 1 1 1 1 
1 1 1 1 1 1 1 1 1 
1 1 1 1 1 1 1 1 1 
1 1 1 1 1 1 1 1 1 
1 1 1 1 1 1 1 1 1 
1 1 1 1 1 1 1 1 1 
1 1 1 1 1 1 1 1 1 
1 1 1 1 1 1 1 1 1 
1 1 1 1 1 1 1 1 1 
1 1 1 1 1 1 1 1 1 
1 1 1 1 1 1 1 1 1 
1 1 1 1 1 1 1 1 1 
1 1 1 1 1 1 1 1 1 
1 1 1 1 1 1 1 1 1 
1 1 1 1 1 1 1 1 1 
1 1 1 1 1 1 1 1 1 
1 1 1 1 1 1 1 1 1 
1 1 1 1 1 1 1 1 1 
1 1 1 1 1 1 1 1 1 
1 1 1 1 1 1 1 1 1 
1 1 1 1 1 1 1 1 1 
1 1 1 1 1 1 1 1 1 
1 1 1 1 1 1 1 1 1 
1 1 1 1 1 1 1 1 1 
1 1 1 1 1 1 1 1 1 
1 1 1 1 1 1 1 1 1 
1 1 1 1 1 1 1 1 1 
1 1 1 1 1 1 1 1 1 
1 1 1 1 1 1 1 1 1 
1 1 1 1 1 1 1 1 1 
1 1 1 1 1 1 1 1 1 
1 1 1 1 1 1 1 1 1 
1 1 1 1 1 1 1 1 1 
1 1 1 1 1 1 1 1 1 
1 1 1 1 1 1 1 1 1 
1 1 1 1 1 1 1 1 1 
1 1 1 1 1 1 1 1 1 
1 1 1 1 1 1 1 1 1 
1 1 1 1 1 1 1 1 1 
1 1 1 1 1 1 1 1 1 
1 1 1 1 1 1 1 1 1 
1 1 1 1 1 1 1 1 1 
1 1 1 1 1 1 1 1 1 
1 1 1 1 1 1 1 1 1 
1 1 1 1 1 1 1 1 1 
1 1 1 1 1 1 1 1 1 
1 1 1 1 1 1 1 1 1 
1 1 1 1 1 1 1 1 1 
1 1 1 1 1 1 1 1 1 
1 1 1 1 1 1 1 1 1 
1 1 1 1 1 1 1 1 1 
1 1 1 1 1 1 1 1 1 
1 1 1 1 1 1 1 1 1 
1 1 1 1 1 1 1 1 1 
1 1 1 1 1 1 1 1 1 
1 1 1 1 1 1 1 1 1 
1 1 1 1 1 1 1 1 1 
1 1 1 1 1 1 1 1 1 
1 1 1 1 1 1 1 1 1 
1 1 1 1 1 1 1 1 1 
1 1 1 1 1 1 1 1 1 
1 1 1 1 1 1 1 1 1 
1 1 1 1 1 1 1 1 1 
1 1 1 1 1 1 1 1 1 
1 1 1 1 1 1 1 1 1 
1 1 1 1 1 1 1 1 1 
1 1 1 1 1 1 1 1 1 
1 1 1 1 1 1 1 1 1 
1 1 1 1 1 1 1 1 1 
1 1 1 1 1 1 1 1 1 
1 1 1 1 1 1 1 1 1 
1 1 1 1 1 1 1 1 1 
1 1 1 1 1 1 1 1 1 
1 1 1 1 1 1 1 1 1 
1 1 1 1 1 1 1 1 1 
1 1 1 1 1 1 1 1 1 
1 1 1 1 1 1 1 1 1 
1 1 1 1 1 1 1 1 1 
1 1 1 1 1 1 1 1 1 
1 1 1 1 1 1 1 1 1 
1 1 1 1 1 1 1 1 1 
1 1 1 1 1 1 1 1 1 
1 1 1 1 1 1 1 1 1 
1 1 1 1 1 1 1 1 1 
1 1 1 1 1 1 1 1 1 
1 1 1 1 1 1 1 1 1 
1 1 1 1 1 1 1 1 1 
1 1 1 1 1 1 1 1 1 
1 1 1 1 1 1 1 1 1 
1 1 1 1 1 1 1 1 1 
1 1 1 1 1 1 1 1 1 
1 1 1 1 1 1 1 1 1 
1 1 1 1 1 1 1 1 1 
1 1 1 1 1 1 1 1 1 
1 1 1 1 1 1 1 1 1 
1 1 1 1 1 1 1 1 1 
1 1 1 1 1 1 1 1 1 
1 1 1 1 1 1 1 1 1 
1 1 1 1 1 1 1 1 1 
1 1 1 1 1 1 1 1 1 
1 1 1 1 1 1 1 1 1 
1 1 1 1 1 1 1 1 1 
1 1 1 1 1 1 1 1 1 
1 1 1 1 1 1 1 1 1 
1 1 1 1 1 1 1 1 1 
1 1 1 1 1 1 1 1 1 
1 1 1 1 1 1 1 1 1 
1 1 1 1 1 1 1 1 1 
1 1 1 1 1 1 1 1 1 
1 1 1 1 1 1 1 1 1 
1 1 1 1 1 1 1 1 1 
1 1 1 1 1 1 1 1 1 
1 1 1 1 1 1 1 1 1 
1 1 1 1 1 1 1 1 1 
1 1 1 1 1 1 1 1 1 
1 1 1 1 1 1 1 1 1 
1 1 1 1 1 1 1 1 1 
1 1 1 1 1 1 1 1 1 
1 1 1 1 1 1 1 1 1 
1 1 1 1 1 1 1 1 1 
1 1 1 1 1 1 1 1 1 
1 1 1 1 1 1 1 1 1 
1 1 1 1 1 1 1 1 1 
1 1 1 1 1 1 1 1 1 
1 1 1 1 1 1 1 1 1 
1 1 1 1 1 1 1 1 1 
1 1 1 1 1 1 1 1 1 
1 1 1 1 1 1 1 1 1 
1 1 1 1 1 1 1 1 1 
1 1 1 1 1 1 1 1 1 
1 1 1 1 1 1 1 1 1 
1 1 1 1 1 1 1 1 1 
1 1 1 1 1 1 1 1 1 
1 1 1 1 1 1 1 1 1 
1 1 1 1 1 1 1 1 1 
1 1 1 1 1 1 1 1 1 
1 1 1 1 1 1 1 1 1 
1 1 1 1 1 1 1 1 1 
1 1 1 1 1 1 1 1 1 
1 1 1 1 1 1 1 1 1 
1 1 1 1 1 1 1 1 1 
1 1 1 1 1 1 1 1 1 
1 1 1 1 1 1 1 1 1 
1 1 1 1 1 1 1 1 1 
1 1 1 1 1 1 1 1 1 
1 1 1 1 1 1 1 1 1 
1 1 1 1 1 1 1 1 1 
1 1 1 1 1 1 1 1 1 
1 1 1 1 1 1 1 1 1 
1 1 1 1 1 1 1 1 1 
1 1 1 1 1 1 1 1 1 
1 1 1 1 1 1 1 1 1 
1 1 1 1 1 1 1 1 1 
1 1 1 1 1 1 1 1 1 
1 1 1 1 1 1 1 1 1 
1 1 1 1 1 1 1 1 1 
1 1 1 1 1 1 1 1 1 
1 1 1 1 1 1 1 1 1 
1 1 1 1 1 1 1 1 1 
1 1 1 1 1 1 1 1 1 
1 1 1 1 1 1 1 1 1 
1 1 1 1 1 1 1 1 1 
1 1 1 1 1 1 1 1 1 
1 1 1 1 1 1 1 1 1 
1 1 1 1 1 1 1 1 1 
1 1 1 1 1 1 1 1 1 
1 1 1 1 1 1 1 1 1 
1 1 1 1 1 1 1 1 1 
1 1 1 1 1 1 1 1 1 
1 1 1 1 1 1 1 1 1 
1 1 1 1 1 1 1 1 1 
1 1 1 1 1 1 1 1 1 
1 1 1 1 1 1 1 1 1 
1 1 1 1 1 1 1 1 1 
1 1 1 1 1 1 1 1 1 
1 1 1 1 1 1 1 1 1 
1 1 1 1 1 1 1 1 1 
1 1 1 1 1 1 1 1 1 
1 1 1 1 1 1 1 1 1 
1 1 1 1 1 1 1 1 1 
1 1 1 1 1 1 1 1 1 
1 1 1 1 1 1 1 1 1 
1 1 1 1 1 1 1 1 1 
1 1 1 1 1 1 1 1 1 
1 1 1 1 1 1 1 1 1 
1 1 1 1 1 1 1 1 1 
1 1 1 1 1 1 1 1 1 
1 1 1 1 1 1 1 1 1 
1 1 1 1 1 1 1 1 1 
1 1 1 1 1 1 1 1 1 
1 1 1 1 1 1 1 1 1 
1 1 1 1 1 1 1 1 1 
1 1 1 1 1 1 1 1 1 
1 1 1 1 1 1 1 1 1 
1 1 1 1 1 1 1 1 1 
1 1 1 1 1 1 1 1 1 
1 1 1 1 1 1 1 1 1 
1 1 1 1 1 1 1 1 1 
1 1 1 1 1 1 1 1 1 
1 1 1 1 1 1 1 1 1 
1 1 1 1 1 1 1 1 1 
1 1 1 1 1 1 1 1 1 
1 1 1 1 1 1 1 1 1 
1 1 1 1 1 1 1 1 1 
1 1 1 1 1 1 1 1 1 
1 1 1 1 1 1 1 1 1 
1 1 1 1 1 1 1 1 1 
1 1 1 1 1 1 1 1 1 
1 1 1 1 1 1 1 1 1 
1 1 1 1 1 1 1 1 1 
1 1 1 1 1 1 1 1 1 
1 1 1 1 1 1 1 1 1 
1 1 1 1 1 1 1 1 1 
1 1 1 1 1 1 1 1 1 
1 1 1 1 1 1 1 1 1 
1 1 1 1 1 1 1 1 1 
1 1 1 1 1 1 1 1 1 
1 1 1 1 1 1 1 1 1 
1 1 1 1 1 1 1 1 1 
1 1 1 1 1 1 1 1 1 
1 1 1 1 1 1 1 1 1 
1 1 1 1 1 1 1 1 1 
1 1 1 1 1 1 1 1 1 
1 1 1 1 1 1 1 1 1 
1 1 1 1 1 1 1 1 1 
1 1 1 1 1 1 1 1 1 
1 1 1 1 1 1 1 1 1 
1 1 1 1 1 1 1 1 1 
1 1 1 1 1 1 1 1 1 
1 1 1 1 1 1 1 1 1 
1 1 1 1 1 1 1 1 1 
1 1 1 1 1 1 1 1 1 
1 1 1 1 1 1 1 1 1 
1 1 1 1 1 1 1 1 1 
1 1 1 1 1 1 1 1 1 
1 1 1 1 1 1 1 1 1 
1 1 1 1 1 1 1 1 1 
1 1 1 1 1 1 1 1 1 
1 1 1 1 1 1 1 1 1 
1 1 1 1 1 1 1 1 1 
1 1 1 1 1 1 1 1 1 
1 1 1 1 1 1 1 1 1 
1 1 1 1 1 1 1 1 1 
1 1 1 1 1 1 1 1 1 
1 1 1 1 1 1 1 1 1 
1 1 1 1 1 1 1 1 1 
1 1 1 1 1 1 1 1 1 
1 1 1 1 1 1 1 1 1 
1 1 1 1 1 1 1 1 1 
1 1 1 1 1 1 1 1 1 
1 1 1 1 1 1 1 1 1 
1 1 1 1 1 1 1 1 1 
1 1 1 1 1 1 1 1 1 
1 1 1 1 1 1 1 1 1 
1 1 1 1 1 1 1 1 1 
1 1 1 1 1 1 1 1 1 
1 1 1 1 1 1 1 1 1 
1 1 1 1 1 1 1 1 1 
1 1 1 1 1 1 1 1 1 
1 1 1 1 1 1 1 1 1 
1 1 1 1 1 1 1 1 1 
1 1 1 1 1 1 1 1 1 
1 1 1 1 1 1 1 1 1 
1 1 1 1 1 1 1 1 1 
1 1 1 1 1 1 1 1 1 
1 1 1 1 1 1 1 1 1 
1 1 1 1 1 1 1 1 1 
1 1 1 1 1 1 1 1 1 
1 1 1 1 1 1 1 1 1 
1 1 1 1 1 1 1 1 1 
1 1 1 1 1 1 1 1 1 
1 1 1 1 1 1 1 1 1 
1 1 1 1 1 1 1 1 1 
1 1 1 1 1 1 1 1 1 
1 1 1 1 1 1 1 1 1 
1 1 1 1 1 1 1 1 1 
1 1 1 1 1 1 1 1 1 
1 1 1 1 1 1 1 1 1 
1 1 1 1 1 1 1 1 1 
1 1 1 1 1 1 1 1 1 
1 1 1 1 1 1 1 1 1 
1 1 1 1 1 1 1 1 1 
1 1 1 1 1 1 1 1 1 
1 1 1 1 1 1 1 1 1 
1 1 1 1 1 1 1 1 1 
1 1 1 1 1 1 1 1 1 
1 1 1 1 1 1 1 1 1 
1 1 1 1 1 1 1 1 1 
1 1 1 1 1 1 1 1 1 
1 1 1 1 1 1 1 1 1 
1 1 1 1 1 1 1 1 1 
1 1 1 1 1 1 1 1 1 
1 1 1 1 1 1 1 1 1 
1 1 1 1 1 1 1 1 1 
1 1 1 1 1 1 1 1 1 
1 1 1 1 1 1 1 1 1 
1 1 1 1 1 1 1 1 1 
1 1 1 1 1 1 1 1 1 
1 1 1 1 1 1 1 1 1 
1 1 1 1 1 1 1 1 1 
1 1 1 1 1 1 1 1 1 
1 1 1 1 1 1 1 1 1 
1 1 1 1 1 1 1 1 1 
1 1 1 1 1 1 1 1 1 
1 1 1 1 1 1 1 1 1 
1 1 1 1 1 1 1 1 1 
1 1 1 1 1 1 1 1 1 
1 1 1 1 1 1 1 1 1 
1 1 1 1 1 1 1 1 1 
1 1 1 1 1 1 1 1 1 
1 1 1 1 1 1 1 1 1 
1 1 1 1 1 1 1 1 1 
1 1 1 1 1 1 1 1 1 
1 1 1 1 1 1 1 1 1 
1 1 1 1 1 1 1 1 1 
1 1 1 1 1 1 1 1 1 
1 1 1 1 1 1 1 1 1 
1 1 1 1 1 1 1 1 1 
1 1 1 1 1 1 1 1 1 
1 1 1 1 1 1 1 1 1 
1 1 1 1 1 1 1 1 1 
1 1 1 1 1 1 1 1 1 
1 1 1 1 1 1 1 1 1 
1 1 1 1 1 1 1 1 1 
1 1 1 1 1 1 1 1 1 
1 1 1 1 1 1 1 1 1 
1 1 1 1 1 1 1 1 1 
1 1 1 1 1 1 1 1 1 
1 1 1 1 1 1 1 1 1 
1 1 1 1 1 1 1 1 1 
1 1 1 1 1 1 1 1 1 
1 1 1 1 1 1 1 1 1 
1 1 1 1 1 1 1 1 1 
1 1 1 1 1 1 1 1 1 
1 1 1 1 1 1 1 1 1 
1 1 1 1 1 1 1 1 1 
1 1 1 1 1 1 1 1 1 
1 1 1 1 1 1 1 1 1 
1 1 1 1 1 1 1 1 1 
1 1 1 1 1 1 1 1 1 
1 1 1 1 1 1 1 1 1 
1 1 1 1 1 1 1 1 1 
1 1 1 1 1 1 1 1 1 
1 1 1 1 1 1 1 1 1 
1 1 1 1 1 1 1 1 1 
1 1 1 1 1 1 1 1 1 
1 1 1 1 1 1 1 1 1 
1 1 1 1 1 1 1 1 1 
1 1 1 1 1 1 1 1 1 
1 1 1 1 1 1 1 1 1 
1 1 1 1 1 1 1 1 1 
1 1 1 1 1 1 1 1 1 
1 1 1 1 1 1 1 1 1 
1 1 1 1 1 1 1 1 1 
1 1 1 1 1 1 1 1 1 
1 1 1 1 1 1 1 1 1 
1 1 1 1 1 1 1 1 1 
1 1 1 1 1 1 1 1 1 
1 1 1 1 1 1 1 1 1 
1 1 1 1 1 1 1 1 1 
1 1 1 1 1 1 1 1 1 
1 1 1 1 1 1 1 1 1 
1 1 1 1 1 1 1 1 1 
1 1 1 1 1 1 1 1 1 
1 1 1 1 1 1 1 1 1 
1 1 1 1 1 1 1 1 1 
1 1 1 1 1 1 1 1 1 
1 1 1 1 1 1 1 1 1 
1 1 1 1 1 1 1 1 1 
1 1 1 1 1 1 1 1 1 
1 1 1 1 1 1 1 1 1 
1 1 1 1 1 1 1 1 1 
1 1 1 1 1 1 1 1 1 
1 1 1 1 1 1 1 1 1 
1 1 1 1 1 1 1 1 1 
1 1 1 1 1 1 1 1 1 
1 1 1 1 1 1 1 1 1 
1 1 1 1 1 1 1 1 1 
1 1 1 1 1 1 1 1 1 
1 1 1 1 1 1 1 1 1 
1 1 1 1 1 1 1 1 1 
1 1 1 1 1 1 1 1 1 
1 1 1 1 1 1 1 1 1 
1 1 1 1 1 1 1 1 1 
1 1 1 1 1 1 1 1 1 
1 1 1 1 1 1 1 1 1 
1 1 1 1 1 1 1 1 1 
1 1 1 1 1 1 1 1 1 
1 1 1 1 1 1 1 1 1 
1 1 1 1 1 1 1 1 1 
1 1 1 1 1 1 1 1 1 
1 1 1 1 1 1 1 1 1 
1 1 1 1 1 1 1 1 1 
1 1 1 1 1 1 1 1 1 
1 1 1 1 1 1 1 1 1 
1 1 1 1 1 1 1 1 1 
1 1 1 1 1 1 1 1 1 
1 1 1 1 1 1 1 1 1 
1 1 1 1 1 1 1 1 1 
1 1 1 1 1 1 1 1 1 
1 1 1 1 1 1 1 1 1 
1 1 1 1 1 1 1 1 1 
1 1 1 1 1 1 1 1 1 
1 1 1 1 1 1 1 1 1 
1 1 1 1 1 1 1 1 1 
1 1 1 1 1 1 1 1 1 
1 1 1 1 1 1 1 1 1 
1 1 1 1 1 1 1 1 1 
1 1 1 1 1 1 1 1 1 
1 1 1 1 1 1 1 1 1 
1 1 1 1 1 1 1 1 1 
1 1 1 1 1 1 1 1 1 
1 1 1 1 1 1 1 1 1 
1 1 1 1 1 1 1 1 1 
1 1 1 1 1 1 1 1 1 
1 1 1 1 1 1 1 1 1 
1 1 1 1 1 1 1 1 1 
1 1 1 1 1 1 1 1 1 
1 1 1 1 1 1 1 1 1 
1 1 1 1 1 1 1 1 1 
1 1 1 1 1 1 1 1 1 
1 1 1 1 1 1 1 1 1 
1 1 1 1 1 1 1 1 1 
1 1 1 1 1 1 1 1 1 
1 1 1 1 1 1 1 1 1 
1 1 1 1 1 1 1 1 1 
1 1 1 1 1 1 1 1 1 
1 1 1 1 1 1 1 1 1 
1 1 1 1 1 1 1 1 1 
1 1 1 1 1 1 1 1 1 
1 1 1 1 1 1 1 1 1 
1 1 1 1 1 1 1 1 1 
1 1 1 1 1 1 1 1 1 
1 1 1 1 1 1 1 1 1 
1 1 1 1 1 1 1 1 1 
1 1 1 1 1 1 1 1 1 
1 1 1 1 1 1 1 1 1 
1 1 1 1 1 1 1 1 1 
1 1 1 1 1 1 1 1 1 
1 1 1 1 1 1 1 1 1 
1 1 1 1 1 1 1 1 1 
1 1 1 1 1 1 1 1 1 
1 1 1 1 1 1 1 1 1 
1 1 1 1 1 1 1 1 1 
1 1 1 1 1 1 1 1 1 
1 1 1 1 1 1 1 1 1 
1 1 1 1 1 1 1 1 1 
1 1 1 1 1 1 1 1 1 
1 1 1 1 1 1 1 1 1 
1 1 1 1 1 1 1 1 1 
1 1 1 1 1 1 1 1 1 
1 1 1 1 1 1 1 1 1 
1 1 1 1 1 1 1 1 1 
1 1 1 1 1 1 1 1 1 
1 1 1 1 1 1 1 1 1 
1 1 1 1 1 1 1 1 1 
1 1 1 1 1 1 1 1 1 
1 1 1 1 1 1 1 1 1 
1 1 1 1 1 1 1 1 1 
1 1 1 1 1 1 1 1 1 
1 1 1 1 1 1 1 1 1 
1 1 1 1 1 1 1 1 1 
1 1 1 1 1 1 1 1 1 
1 1 1 1 1 1 1 1 1 
1 1 1 1 1 1 1 1 1 
1 1 1 1 1 1 1 1 1 
1 1 1 1 1 1 1 1 1 
1 1 1 1 1 1 1 1 1 
1 1 1 1 1 1 1 1 1 
1 1 1 1 1 1 1 1 1 
1 1 1 1 1 1 1 1 1 
1 1 1 1 1 1 1 1 1 
1 1 1 1 1 1 1 1 1 
1 1 1 1 1 1 1 1 1 
1 1 1 1 1 1 1 1 1 
1 1 1 1 1 1 1 1 1 
1 1 1 1 1 1 1 1 1 
1 1 1 1 1 1 1 1 1 
1 1 1 1 1 1 1 1 1 
1 1 1 1 1 1 1 1 1 
1 1 1 1 1 1 1 1 1 
1 1 1 1 1 1 1 1 1 
1 1 1 1 1 1 1 1 1 
1 1 1 1 1 1 1 1 1 
1 1 1 1 1 1 1 1 1 
1 1 1 1 1 1 1 1 1 
1 1 1 1 1 1 1 1 1 
1 1 1 1 1 1 1 1 1 
1 1 1 1 1 1 1 1 1 
1 1 1 1 1 1 1 1 1 
1 1 1 1 1 1 1 1 1 
1 1 1 1 1 1 1 1 1 
1 1 1 1 1 1 1 1 1 
1 1 1 1 1 1 1 1 1 
1 1 1 1 1 1 1 1 1 
1 1 1 1 1 1 1 1 1 
1 1 1 1 1 1 1 1 1 
1 1 1 1 1 1 1 1 1 
1 1 1 1 1 1 1 1 1 
1 1 1 1 1 1 1 1 1 
1 1 1 1 1 1 1 1 1 
1 1 1 1 1 1 1 1 1 
1 1 1 1 1 1 1 1 1 
1 1 1 1 1 1 1 1 1 
1 1 1 1 1 1 1 1 1 
1 1 1 1 1 1 1 1 1 
1 1 1 1 1 1 1 1 1 
1 1 1 1 1 1 1 1 1 
1 1 1 1 1 1 1 1 1 
1 1 1 1 1 1 1 1 1 
1 1 1 1 1 1 1 1 1 
1 1 1 1 1 1 1 1 1 
1 1 1 1 1 1 1 1 1 
1 1 1 1 1 1 1 1 1 
1 1 1 1 1 1 1 1 1 
1 1 1 1 1 1 1 1 1 
1 1 1 1 1 1 1 1 1 
1 1 1 1 1 1 1 1 1 
1 1 1 1 1 1 1 1 1 
1 1 1 1 1 1 1 1 1 
1 1 1 1 1 1 1 1 1 
1 1 1 1 1 1 1 1 1 
1 1 1 1 1 1 1 1 1 
1 1 1 1 1 1 1 1 1 
1 1 1 1 1 1 1 1 1 
1 1 1 1 1 1 1 1 1 
1 1 1 1 1 1 1 1 1 
1 1 1 1 1 1 1 1 1 
1 1 1 1 1 1 1 1 1 
1 1 1 1 1 1 1 1 1 
1 1 1 1 1 1 1 1 1 
1 1 1 1 1 1 1 1 1 
1 1 1 1 1 1 1 1 1 
1 1 1 1 1 1 1 1 1 
1 1 1 1 1 1 1 1 1 
1 1 1 1 1 1 1 1 1 
1 1 1 1 1 1 1 1 1 
1 1 1 1 1 1 1 1 1 
1 1 1 1 1 1 1 1 1 
1 1 1 1 1 1 1 1 1 
1 1 1 1 1 1 1 1 1 
1 1 1 1 1 1 1 1 1 
1 1 1 1 1 1 1 1 1 
1 1 1 1 1 1 1 1 1 
1 1 1 1 1 1 1 1 1 
1 1 1 1 1 1 1 1 1 
1 1 1 1 1 1 1 1 1 
1 1 1 1 1 1 1 1 1 
1 1 1 1 1 1 1 1 1 
1 1 1 1 
NORMALS Normals float
0.112693 -0.155382 -0.981405 -0.0275199 -0.141875 -0.989502 0.614633 0.0397341 -0.787812 
0.380847 -0.199442 -0.902872 0.335015 0.182547 -0.92436 0.787359 -0.176715 -0.590625 
0.782614 0.241372 -0.573808 0.031446 -0.0493448 -0.998287 0 0 -1 
-0.894427 -0.447214 0 -1 0 0 1 0 0 
0 0.447214 -0.894427 0.469371 -0.0798832 -0.87938 0.723481 -0.0684293 -0.686944 
0.350578 -0.0246115 -0.93621 0.477474 0.0182418 -0.878457 0.455886 -0.0789881 -0.886526 
0.0528226 0.0327133 -0.998068 0.414423 0.000939788 -0.910084 0.501117 -0.28024 -0.818747 
0.215094 -0.123343 -0.968773 0.790467 -0.0032395 -0.612497 0.528181 0.150115 -0.835757 
0 0 -1 -0.894427 -0.447214 0 -1 0 0 
1 0 0 0 0 1 -0.707107 -0.707107 0 
-0.711193 -0.702515 -0.0260155 -0.707107 -0.707107 0 0 0.447214 -0.894427 
-0.707107 -0.707107 0 0.541141 -0.314457 -0.779925 0.274173 -0.191507 -0.942419 
0.547387 -0.13396 -0.826089 0.738357 0.674359 0.00833353 0.809279 0.0263868 -0.586831 
0.215664 -0.0562503 -0.974846 0.603621 0.0159618 -0.797111 0.705226 -0.00875116 -0.708929 
-0.105626 -0.0320722 -0.993889 -0.109414 -0.356796 -0.927753 0.221477 -0.183733 -0.9577 
-0.331608 -0.338264 -0.880689 -0.33956 -0.153552 -0.927966 0.464289 -0.0677077 -0.883092 
0.541543 -0.233872 -0.807487 0.68429 -0.1394 -0.715762 0.717912 -0.0453119 -0.694658 
0.484849 0.0518968 -0.873057 0.643208 0.0675647 -0.762704 0.267107 -0.089924 -0.959462 
0 0 1 -0.172286 0.210145 0.96237 -0.723572 -0.689943 -0.020541 
-0.673349 -0.732653 -0.0991011 -0.662435 -0.74158 -0.106013 0 0 0 
0.152574 -0.443154 -0.883366 0.530254 -0.12633 -0.838374 0.764316 0.639435 -0.0833326 
0.708622 0.704991 0.0290178 0.518446 -0.41133 -0.74968 0.763062 -0.243843 -0.598562 
0.278031 -0.0994856 -0.955406 0.871353 -0.143811 -0.469108 -0.266988 -0.254929 -0.92937 
0.529376 -0.0370154 -0.847579 0.45864 0.151206 -0.875663 0.048011 -0.415069 -0.908522 
-0.443734 -0.319005 -0.837458 -0.102642 -0.317823 -0.942578 0.568715 0.127432 -0.812604 
0.707842 0.069873 -0.702906 0.510101 0.40567 -0.758438 0.728624 0.0538156 -0.682796 
0.937196 -0.01479 -0.34849 0.818056 0.354669 -0.452764 0.819247 0.0391199 -0.572105 
-0.426998 0.0352508 -0.903565 0.737783 0.675038 0 0 0 0 
-0.476491 -0.251401 -0.842469 0.793655 0.0257389 -0.607823 0.279692 0.260554 -0.924058 
-0.176068 0.143673 -0.973837 0.163108 0.360538 -0.918373 0.373105 -0.177352 -0.910681 
0.744519 0.21257 -0.632855 0.62212 0.101849 -0.776269 0.818252 -0.198149 -0.53963 
0.739773 0.354472 -0.571914 0.930213 0.323233 -0.173852 -0.33469 -0.0593323 -0.940458 
0.891806 -0.0633047 -0.447968 -0.379587 -0.205496 -0.902045 0.644882 0.453745 -0.615014 
0.624727 0.495407 -0.603563 0.620849 0.587625 -0.518887 0.956779 0.189296 -0.220775 
-0.232717 0.211092 -0.949359 -0.612773 0.280396 -0.738842 -0.763494 -0.221825 -0.606523 
-0.493968 -0.410894 -0.766264 -0.451563 -0.450609 -0.770093 0.876018 0.175925 -0.449047 
0.630254 0.348957 -0.693548 0.282458 0.32521 -0.902472 -0.19348 0.36432 -0.910953 
0.512683 -0.216843 -0.830744 0.637353 0.0894808 -0.765359 0.766133 0.325528 -0.55414 
-0.519639 -0.442804 -0.730685 0.907656 0.12683 -0.400094 -0.476295 0.796457 -0.372559 
0.285542 0.449335 -0.846501 -0.535232 0.837764 0.108064 -0.903862 -0.197522 -0.379498 
-0.411619 -0.200076 -0.889123 -0.15993 -0.256079 -0.953334 -0.267461 -0.531949 -0.803427 
-0.0791335 -0.912624 -0.401067 0.896976 -0.0980856 -0.43106 0.842206 0.44329 -0.306894 
0.64567 0.590071 -0.484693 0.643963 0.722222 -0.252404 0.417572 0.908342 -0.0234057 
0.708488 0.675456 -0.204463 0.885255 0.438188 -0.155932 0.159585 0.581062 -0.79806 
-0.0738343 -0.503962 -0.860564 -0.275648 -0.585615 -0.762281 -0.576881 -0.198701 -0.792292 
0.455578 0.888526 0.0544969 0.799087 -0.037261 -0.600059 -0.869723 0.412776 0.270551 
-0.484376 0.823689 0.294815 0.770972 0.607891 -0.189923 -0.982246 -0.180113 -0.0524566 
-0.985459 -0.0979199 0.138859 0.8582 -0.32157 -0.400106 -0.588985 -0.493354 -0.640077 
-0.520923 -0.495598 -0.694998 0.522156 0.726686 0.446409 0.184802 0.869937 0.457229 
0.711953 0.678754 0.180044 0.337015 0.908377 0.247533 0.513294 0.844967 0.1502 
0.139324 0.985343 0.0984287 0.694972 0.664918 -0.273676 0.386825 0.896671 -0.215283 
0.563146 0.771683 -0.295586 0.876587 0.303164 -0.373748 -0.416047 -0.0630522 -0.907154 
0.455939 0.56433 -0.688223 0.778204 0.1245 -0.615547 0.800104 0.255626 -0.542668 
-0.736912 0.265166 -0.62181 -0.368806 -0.904844 -0.212695 -0.948168 -0.288976 0.132176 
0.964052 0.00880591 -0.265566 -0.580145 -0.50377 -0.640037 0.0819908 0.772203 0.630064 
0.873649 0.456817 0.167499 -0.128288 0.9255 0.356358 0.879907 0.469269 0.0745024 
0.961929 0.272727 0.0176987 0.877724 0.345564 -0.331942 0.352405 -0.289265 -0.89002 
0.828218 0.486441 -0.278263 0.941728 0.322197 -0.0966352 0.987967 0.0187502 -0.153525 
-0.756778 0.0842356 -0.648222 -0.59711 -0.116475 -0.793658 -0.747397 -0.10079 -0.656688 
-0.66274 0.0730066 -0.745282 -0.627874 -0.16251 -0.76116 -0.57976 0.0130586 -0.814683 
-0.440265 -0.636694 -0.633078 0.923214 -0.0814667 -0.375551 0.961424 0.23632 -0.140772 
0.906922 0.409381 -0.0994956 0.760823 0.50973 0.401651 -0.174415 0.868064 0.464806 
-0.266299 0.813645 0.516785 0.447444 0.88747 -0.110411 0.666413 0.743972 -0.048983 
-0.613263 -0.264554 -0.744258 0.910702 0.236941 -0.33835 -0.380712 0.456964 -0.803892 
-0.125224 0.719509 -0.683101 0.157211 0.760352 -0.630198 -0.613716 -0.491888 -0.617574 
0.956668 -0.175602 -0.232274 -0.889227 0.136347 -0.436675 -0.894506 0.247105 -0.372556 
-0.852475 -0.0339455 -0.521664 -0.833764 -0.276318 -0.478001 0.736029 0.661377 0.144366 
0.0373645 0.836022 0.547422 0.104276 0.815393 0.56944 0.105775 0.96098 0.255595 
0.495225 0.803637 0.330028 0.96357 0.207197 -0.169123 0.794566 0.304254 -0.525447 
-0.514589 0.152643 -0.84374 -0.0571128 -0.535025 -0.842903 -0.162269 -0.604459 -0.779935 
-0.841401 -0.0515065 -0.537951 -0.840793 0.159394 -0.517359 -0.827456 -0.204307 -0.523045 
-0.578206 -0.667887 -0.468619 -0.0243578 0.701105 0.712642 0.327993 0.772604 0.543603 
0.567153 0.736456 0.368742 0.991924 0.125637 0.0173563 0.988554 -0.00393963 -0.150818 
-0.713432 -0.153448 -0.683716 0.81307 0.555654 -0.173682 -0.847662 -0.132152 -0.513813 
-0.910025 0.0136546 -0.414329 -0.635472 0.320842 -0.702308 -0.811949 0.200438 -0.548237 
-0.629758 -0.181023 -0.755404 -0.737757 -0.51125 -0.440838 -0.757352 -0.612706 -0.225851 
0.333863 0.634677 0.696936 0.957078 0.289828 -0.00111255 0.312494 0.839065 0.445329 
-0.755634 -0.313106 -0.57531 0.67284 0.519207 -0.526983 -0.24804 -0.757439 -0.603955 
0.0132197 -0.548477 -0.836061 0.391753 -0.345101 -0.852898 0.557987 -0.305684 -0.771497 
0.635221 -0.14707 -0.758198 0.426635 -0.230768 -0.874488 -0.322893 -0.726236 -0.606895 
-0.794696 -0.330789 -0.508957 0.874863 -0.439419 -0.203779 -0.754806 -0.103381 -0.64775 
-0.744837 0.029229 -0.666606 -0.666278 -0.150928 -0.73027 -0.621419 -0.436354 -0.650718 
0.971287 0.195556 -0.135495 0.799957 0.520519 0.298543 -0.781862 -0.524808 -0.336553 
0.205246 0.607667 0.767212 0.212924 0.610697 0.762701 0.248439 0.77145 0.585785 
0.968879 -0.0435606 -0.243671 0.243089 -0.467966 -0.849656 0.544365 -0.326046 -0.772891 
-0.348729 -0.880218 -0.321877 0.907866 0.118973 -0.402027 -0.566125 -0.712916 -0.413828 
0.839444 -0.189125 -0.509476 -0.892563 -0.0364794 -0.449445 0.925646 0.378243 -0.0105675 
0.858309 0.490213 0.151646 0.730359 0.603241 0.320429 -0.807042 -0.385974 -0.446886 
-0.629983 0.328856 -0.703545 -0.545186 0.465475 -0.697212 -0.184637 -0.780237 -0.597612 
0.752382 -0.219862 -0.620953 -0.507292 -0.826871 -0.242773 0.809014 0.583827 0.0681417 