# vtk DataFile Version 4.2
vtk output
ASCII
DATASET POLYDATA
POINTS 363 float
327.202 164.976 109.719 326.821 164.617 109.748 327.617 164.939 109.866 
325.069 165.083 109.665 328.178 165.226 110.14 324.685 166.084 109.702 
327.025 165.789 109.628 327.866 165.607 109.89 328.178 165.523 110.08 
323.86 166.079 109.915 323.765 166.318 109.995 325.19 166.455 109.711 
327.342 166.114 109.777 327.775 165.99 109.907 323.573 166.429 110.15 
323.627 166.686 110.253 324.141 166.774 110.021 325.632 166.843 109.843 
325.752 167.192 110.056 326.028 167.339 110.211 326.694 166.915 109.972 
327.141 166.93 110.089 325.421 163.486 110.37 325.058 163.238 110.656 
326.51 163.675 110.165 326.442 163.549 110.217 326.296 163.562 110.229 
326.514 163.562 110.237 326.002 163.453 110.435 326.075 163.755 110.112 
326.656 163.62 110.328 326.962 163.764 110.4 324.26 164.282 110.066 
327.744 164.401 110.215 327.805 164.356 110.357 323.174 164.693 110.374 
327.769 164.562 110.118 328.503 165.358 110.456 323.408 165.51 110.12 
328.396 165.763 110.288 322.846 166.157 110.757 328.56 166.029 110.586 
328.213 166.357 110.352 328.395 166.286 110.502 323.288 166.808 110.729 
323.627 166.95 110.528 327.497 167.088 110.441 326.577 167.537 110.609 
325.012 163.117 110.916 324.534 163.117 110.853 325.35 163.153 111.106 
326.398 163.51 110.322 326.714 163.584 110.825 323.073 164.165 110.673 
322.863 164.285 110.841 327.655 164.193 110.497 328.584 165.335 110.664 
328.608 165.287 110.889 322.521 165.514 110.868 322.445 165.31 110.988 
328.691 165.413 110.824 328.737 165.594 110.809 328.792 165.74 110.842 
322.569 165.813 110.911 328.606 166.195 110.789 328.564 166.311 110.963 
328.658 166.077 110.945 328.762 165.831 110.952 328.491 166.332 110.734 
328.394 166.544 111.027 323.377 167.19 111.342 324.429 167.953 111.547 
326.441 167.698 110.919 323.575 162.859 111.291 323.199 163.077 111.331 
322.699 164.189 111.255 327.595 164.195 111.105 322.489 164.621 111.358 
322.424 164.887 111.24 322.48 165.008 111.025 322.389 165.234 111.238 
328.728 165.676 111.079 328.792 165.711 110.907 322.437 165.902 111.401 
328.309 166.715 111.382 328.145 166.948 111.591 322.972 166.866 111.876 
324.133 167.894 111.983 325.112 168.106 111.586 324.815 168.173 112.073 
323.337 162.768 111.717 324.085 162.713 111.796 322.982 163.062 111.857 
322.917 163.206 111.72 323.158 162.883 111.845 324.397 162.858 111.865 
323.011 163.212 111.481 322.675 163.971 111.719 327.088 163.952 111.591 
322.552 164.476 111.704 327.913 164.702 111.707 322.439 165.758 111.635 
328.579 165.702 111.472 327.336 167.716 112.456 323.349 162.742 111.9 
323.49 162.7 112.025 323.718 162.658 111.971 323.83 162.683 112.083 
323.051 163.048 112.058 322.756 163.667 111.921 324.92 163.455 112.626 
328.116 165.698 112.548 322.731 166.036 112.422 323.382 167.124 112.878 
325.556 168.262 112.861 322.961 163.249 112.192 324.033 162.958 112.463 
323.858 163.009 112.554 322.974 163.36 112.353 324.34 163.526 112.931 
324.651 163.588 112.914 325.45 164.208 113.224 327.041 164.746 113.045 
327.767 165.535 113.071 323.035 165.765 112.972 323.486 166.671 113.417 
323.833 167.234 113.613 325.601 168.282 113.574 323.395 163.072 112.494 
323.687 163.416 112.827 323.41 163.855 112.953 324.545 163.859 113.143 
324.354 164.607 113.594 324.776 165.036 113.911 325.365 165.044 113.968 
323.369 166.011 113.387 323.681 165.816 113.673 327.818 166.871 113.835 
327.685 167.167 114.161 324.659 167.748 114.238 326.457 168.291 114.623 
325.351 168.17 114.457 323.461 163.557 112.856 324.037 165.195 113.774 
324.144 166.145 114.083 327.308 167.756 114.982 325.221 167.763 115.149 
324.962 166.592 114.802 325.838 167.12 115.688 327.017 168.125 115.208 
326.45 168.348 116.03 326.701 168.293 115.767 325.903 167.414 115.957 
326.502 167.199 115.947 327.165 167.53 115.764 326.118 167.641 116.294 
326.032 168.005 116.364 326.322 168.3 116.737 326.421 168.375 116.48 
326.548 168.395 116.752 326.627 167.567 116.383 326.983 167.628 116.191 
326.128 167.888 116.489 326.906 167.879 116.524 326.878 168.118 116.702 
326.2 168.063 116.667 326.842 168.226 116.723 326.398 168.266 116.953 
326.466 168.353 116.965 326.539 168.389 116.937 326.754 167.753 116.56 
326.441 167.959 116.806 326.838 168.062 116.827 326.777 168.116 116.967 
326.315 168.152 116.848 326.443 168.159 116.982 326.811 168.165 116.936 
326.497 168.277 117.097 326.723 168.333 116.993 326.668 168.35 117.084 
326.718 168.305 117.079 326.504 168.33 117.086 326.58 168.36 117.079 
326.564 168.241 117.117 326.646 168.206 117.102 326.561 168.316 117.142 
326.644 168.299 117.133 326.615 168.082 339.292 326.566 167.901 339.436 
326.701 167.994 339.327 326.525 168.192 339.302 326.32 168.182 339.485 
326.761 168.1 339.276 326.676 168.206 339.239 326.782 168.209 339.257 
326.483 168.28 339.341 326.412 168.311 339.457 326.609 168.291 339.277 
326.732 168.285 339.272 326.541 168.346 339.386 326.672 168.347 339.361 
326.776 167.994 339.337 326.857 167.997 339.411 326.015 167.988 339.798 
325.989 168.095 339.853 326.867 168.139 339.352 326.928 168.178 339.484 
326.779 168.32 339.387 326.879 168.279 339.577 326.739 168.364 339.565 
326.701 167.667 339.671 327.066 167.888 339.757 327.145 167.86 339.945 
325.801 168.073 340.237 326.128 168.306 339.953 326.842 168.337 339.711 
326.31 168.366 339.916 326.177 166.877 340.617 325.723 167.381 340.4 
327.103 167.701 339.996 325.958 168.237 340.169 326.613 168.403 340.246 
326.808 168.341 340.541 326.357 168.395 340.342 327.313 167.366 340.813 
325.081 167.595 341.191 327.308 167.921 340.787 327.266 168.027 340.95 
326.015 168.327 340.882 323.526 163.038 343.363 323.474 162.929 343.427 
323.426 163.047 343.425 323.612 162.891 343.436 325.631 165.574 341.864 
327.077 166.516 341.373 324.876 167.658 341.57 324.888 167.837 341.843 
323.407 162.856 343.559 323.349 162.739 343.725 323.541 162.752 343.561 
323.51 162.654 343.729 323.262 163.183 343.563 323.094 163.116 343.803 
324.051 163.761 343.089 324.726 163.229 343.504 323.528 165.219 342.888 
327.837 166.505 342.432 327.982 166.872 342.857 327.712 167.53 342.553 
324.976 168.134 342.783 323.32 162.684 343.93 323.346 162.63 344.231 
323.475 162.574 343.9 323.505 162.546 344.07 323.635 162.54 343.918 
323.027 163.006 344.244 323.944 162.734 343.647 324.991 163.094 343.745 
325.437 163.259 343.853 322.92 165.926 343.498 322.945 166.341 343.566 
323.114 166.633 343.427 323.587 167.387 343.523 324.498 167.998 343.23 
325.879 168.312 342.89 323.384 162.621 344.441 323.6 162.543 344.361 
323.867 162.543 343.966 324.074 162.548 344.173 322.731 163.765 344.292 
324.879 162.806 344.129 326.396 163.549 344.197 322.504 165.78 344.354 
322.831 166.692 344.41 323.286 167.265 344.145 324.444 168.097 343.984 
324.827 168.204 343.846 323.352 162.677 344.565 323.938 162.523 344.405 
325.179 162.795 344.662 326.474 163.341 344.832 322.325 164.777 345.024 
322.259 165.034 344.996 327.725 164.798 344.139 322.254 165.302 344.954 
327.95 165.194 344.071 322.377 165.821 344.779 328.423 166.501 344.729 
327.165 167.905 344.242 323.908 167.751 344.441 324.241 167.997 344.234 
325.338 168.215 344.404 323.366 162.962 344.98 326.411 163.218 345.337 
326.251 163.138 345.482 322.799 163.738 345.072 326.702 163.438 345.284 
327.821 164.597 344.933 327.439 164.163 345.334 322.304 164.94 345.178 
328.513 165.194 345.595 322.378 165.006 345.36 328.67 165.506 345.665 
322.362 165.566 345.374 328.629 165.834 345.611 322.39 165.951 344.997 
322.496 166.159 345.117 328.467 166.521 345.262 324.429 168.017 344.72 
324.542 167.951 344.986 325.616 163.011 345.618 325.784 163.096 345.682 
325.127 162.918 345.36 326.088 163.151 345.62 326.369 163.381 345.798 
323.574 163.477 345.62 322.821 164.099 345.462 322.952 164.255 345.68 
328.648 165.489 345.784 322.474 165.54 345.597 328.495 166.183 345.861 
328.411 166.49 345.695 323.106 166.865 345.643 327.622 167.406 345.51 
325.132 167.608 345.77 325.498 163.135 345.734 324.367 163.499 345.902 
325.464 163.852 346.414 326.608 163.742 346.047 323.304 164.251 345.916 
324.913 164.148 346.502 327.359 164.37 346.282 327.816 164.757 346.307 
323.829 165.078 346.452 328.441 165.41 346.081 323.004 165.996 346.008 
328.27 166.572 345.956 328.163 166.48 346.174 323.258 166.876 345.851 
323.509 166.972 345.942 324.371 167.057 346.208 325.794 167.31 346.294 
325.254 165.321 346.987 326.997 165.442 347.049 327.35 165.408 346.866 
323.788 165.881 346.459 324.758 165.826 346.851 326.531 165.629 347.173 
327.408 165.772 346.952 324.136 166.337 346.52 326.12 165.955 347.168 
323.347 166.693 346.025 325.785 166.346 347.03 325.98 166.616 346.923 
327.068 166.705 346.783 327.205 166.497 346.89 326.505 167.121 346.497 
327.524 166.967 346.235 326.89 165.725 347.145 326.944 166.021 347.145 
326.595 166.323 347.109 326.841 166.219 347.125 326.723 168.333 116.993 

POLYGONS 716 2864
3 6 0 1 
3 0 2 36 
3 3 11 1 
3 2 0 6 
3 36 2 4 
3 11 3 5 
3 6 1 11 
3 4 2 7 
3 7 8 4 
3 16 9 10 
3 9 16 5 
3 11 5 16 
3 6 11 20 
3 2 6 12 
3 7 2 13 
3 13 2 12 
3 13 8 7 
3 10 14 15 
3 17 11 16 
3 20 11 17 
3 12 6 21 
3 13 12 21 
3 42 8 13 
3 10 15 16 
3 17 16 18 
3 18 19 17 
3 17 19 20 
3 20 21 6 
3 13 21 46 
3 42 13 46 
3 20 19 47 
3 21 20 47 
3 24 25 26 
3 25 24 27 
3 23 32 22 
3 28 22 29 
3 26 28 29 
3 26 29 24 
3 30 27 24 
3 30 24 31 
3 55 31 24 
3 55 24 33 
3 55 33 34 
3 35 32 53 
3 1 24 29 
3 0 24 1 
3 33 24 0 
3 36 33 0 
3 36 34 33 
3 32 35 5 
3 5 35 38 
3 3 32 5 
3 22 32 3 
3 1 22 3 
3 29 22 1 
3 36 4 37 
3 5 38 9 
3 37 8 39 
3 4 8 37 
3 9 14 10 
3 9 38 14 
3 39 8 42 
3 41 37 39 
3 42 41 39 
3 14 38 40 
3 44 14 40 
3 43 41 42 
3 15 45 16 
3 15 14 45 
3 14 44 45 
3 19 18 16 
3 46 21 47 
3 23 48 49 
3 48 23 22 
3 50 48 22 
3 25 51 26 
3 25 27 51 
3 49 32 23 
3 28 50 22 
3 51 28 26 
3 51 50 28 
3 31 52 51 
3 30 31 51 
3 30 51 27 
3 74 53 32 
3 35 53 54 
3 35 54 59 
3 37 56 57 
3 37 57 34 
3 37 34 36 
3 58 38 59 
3 38 35 59 
3 56 60 57 
3 56 37 61 
3 56 61 60 
3 62 61 37 
3 83 63 58 
3 38 63 40 
3 58 63 38 
3 64 65 66 
3 62 66 67 
3 62 41 66 
3 62 37 41 
3 41 64 66 
3 83 40 63 
3 83 44 40 
3 68 65 64 
3 69 65 68 
3 41 43 68 
3 64 41 68 
3 69 68 42 
3 69 42 84 
3 84 42 46 
3 43 42 68 
3 44 86 70 
3 44 70 45 
3 16 45 71 
3 88 16 71 
3 19 16 72 
3 16 88 72 
3 47 19 72 
3 47 72 46 
3 49 91 73 
3 49 48 50 
3 73 74 32 
3 49 73 32 
3 51 52 50 
3 53 96 75 
3 54 53 75 
3 96 53 74 
3 31 98 52 
3 76 98 55 
3 55 98 31 
3 77 54 75 
3 34 100 76 
3 34 76 55 
3 79 77 78 
3 80 79 78 
3 54 79 59 
3 77 79 54 
3 59 79 80 
3 59 80 58 
3 60 61 81 
3 60 81 57 
3 81 61 82 
3 61 62 82 
3 81 82 67 
3 81 67 102 
3 102 67 66 
3 62 67 82 
3 84 85 66 
3 84 66 69 
3 69 66 65 
3 44 83 86 
3 85 84 46 
3 71 70 87 
3 71 45 70 
3 71 87 88 
3 88 87 89 
3 73 91 90 
3 92 90 94 
3 49 95 91 
3 95 49 50 
3 110 95 50 
3 96 92 93 
3 109 96 93 
3 74 90 96 
3 90 92 96 
3 73 90 74 
3 96 109 75 
3 75 109 97 
3 98 50 52 
3 77 99 78 
3 77 75 99 
3 75 97 99 
3 76 100 98 
3 101 78 99 
3 80 78 101 
3 102 100 57 
3 57 100 34 
3 80 101 58 
3 57 81 102 
3 58 101 83 
3 46 103 85 
3 88 89 103 
3 72 88 103 
3 103 46 72 
3 104 105 128 
3 104 90 105 
3 105 90 106 
3 91 107 106 
3 91 106 90 
3 92 108 93 
3 128 94 104 
3 128 108 94 
3 108 92 94 
3 90 104 94 
3 95 110 107 
3 95 107 91 
3 121 110 50 
3 50 98 122 
3 97 101 99 
3 122 121 50 
3 122 98 100 
3 100 102 122 
3 111 122 102 
3 112 113 83 
3 112 83 101 
3 102 66 111 
3 83 113 86 
3 137 66 85 
3 85 103 149 
3 70 86 113 
3 87 70 126 
3 70 113 126 
3 103 114 127 
3 89 114 103 
3 87 141 89 
3 141 114 89 
3 105 106 107 
3 128 105 107 
3 108 115 93 
3 108 128 115 
3 117 128 107 
3 107 116 117 
3 107 110 116 
3 115 118 93 
3 93 118 109 
3 128 118 115 
3 110 119 116 
3 118 97 109 
3 120 119 110 
3 120 110 131 
3 131 110 121 
3 97 118 101 
3 124 101 118 
3 123 122 111 
3 101 124 112 
3 137 123 111 
3 112 124 113 
3 124 135 113 
3 111 66 137 
3 125 126 113 
3 125 113 135 
3 126 141 87 
3 103 127 149 
3 127 140 149 
3 127 114 141 
3 129 128 117 
3 119 130 129 
3 116 119 129 
3 116 129 117 
3 118 130 143 
3 142 130 118 
3 130 119 143 
3 119 131 143 
3 119 120 131 
3 124 118 143 
3 143 131 132 
3 121 132 131 
3 132 133 143 
3 121 133 132 
3 134 133 121 
3 122 134 121 
3 143 135 124 
3 135 143 136 
3 125 135 136 
3 85 138 137 
3 125 139 126 
3 138 85 149 
3 141 126 139 
3 127 141 140 
3 128 142 118 
3 128 129 142 
3 129 130 142 
3 143 133 134 
3 144 143 147 
3 144 136 143 
3 134 147 143 
3 136 144 125 
3 144 146 125 
3 138 145 137 
3 146 139 125 
3 145 138 149 
3 146 141 139 
3 141 157 140 
3 140 157 150 
3 140 150 149 
3 153 147 134 
3 153 134 122 
3 147 156 144 
3 148 156 147 
3 153 148 147 
3 123 154 122 
3 154 123 137 
3 145 154 137 
3 144 156 146 
3 157 141 156 
3 156 141 146 
3 149 150 151 
3 153 152 148 
3 152 155 156 
3 152 156 148 
3 157 158 150 
3 158 151 150 
3 158 157 159 
3 152 153 160 
3 122 170 153 
3 153 170 160 
3 161 170 154 
3 154 170 122 
3 156 155 162 
3 160 155 152 
3 162 155 160 
3 161 163 170 
3 154 163 161 
3 154 145 163 
3 162 165 156 
3 166 164 163 
3 145 149 166 
3 163 145 166 
3 156 165 167 
3 167 157 156 
3 166 149 151 
3 157 167 168 
3 159 157 168 
3 159 168 169 
3 151 158 159 
3 151 159 179 
3 179 159 169 
3 166 151 179 
3 162 171 175 
3 160 171 162 
3 160 184 171 
3 170 184 160 
3 173 184 170 
3 163 172 173 
3 163 173 170 
3 163 164 172 
3 175 174 165 
3 162 175 165 
3 172 176 173 
3 176 172 164 
3 176 164 180 
3 180 164 166 
3 165 174 167 
3 174 175 167 
3 175 177 167 
3 178 179 180 
3 178 180 166 
3 167 177 181 
3 168 167 181 
3 169 168 182 
3 168 181 182 
3 182 179 169 
3 166 179 362 
3 184 183 175 
3 171 184 175 
3 173 176 180 
3 173 180 184 
3 183 185 177 
3 175 183 177 
3 184 186 183 
3 186 185 183 
3 180 179 186 
3 180 186 184 
3 177 185 181 
3 182 181 185 
3 186 182 185 
3 179 182 186 
3 188 187 189 
3 190 187 188 
3 191 190 188 
3 192 189 187 
3 192 187 193 
3 193 187 190 
3 192 193 194 
3 195 190 191 
3 196 195 191 
3 193 190 197 
3 197 190 195 
3 198 194 193 
3 197 198 193 
3 195 196 199 
3 197 195 199 
3 200 197 199 
3 198 197 200 
3 188 189 201 
3 191 188 203 
3 189 192 201 
3 192 194 205 
3 192 205 202 
3 192 202 201 
3 205 194 206 
3 204 191 203 
3 204 196 191 
3 194 198 207 
3 208 206 194 
3 207 208 194 
3 207 198 200 
3 207 200 209 
3 209 200 199 
3 208 207 209 
3 188 217 218 
3 188 210 217 
3 203 188 218 
3 188 201 210 
3 202 206 211 
3 201 202 211 
3 201 211 210 
3 206 212 211 
3 204 203 213 
3 202 205 206 
3 204 213 214 
3 214 196 204 
3 215 209 227 
3 206 227 226 
3 206 208 227 
3 208 215 227 
3 212 206 226 
3 196 214 216 
3 199 196 216 
3 199 216 209 
3 208 209 215 
3 210 219 234 
3 210 234 217 
3 203 218 225 
3 210 211 219 
3 219 211 212 
3 226 219 212 
3 203 225 213 
3 220 214 213 
3 220 213 228 
3 227 221 222 
3 214 220 216 
3 216 220 223 
3 221 227 209 
3 221 209 223 
3 223 209 216 
3 245 218 217 
3 234 219 224 
3 218 262 225 
3 218 245 262 
3 219 226 224 
3 262 235 225 
3 236 213 225 
3 226 227 224 
3 213 236 228 
3 222 223 228 
3 228 223 220 
3 221 223 222 
3 229 230 231 
3 230 229 232 
3 217 233 245 
3 271 233 234 
3 233 217 234 
3 225 235 236 
3 224 227 248 
3 237 239 240 
3 238 237 240 
3 241 242 269 
3 238 242 241 
3 237 238 241 
3 237 241 231 
3 237 231 230 
3 232 237 230 
3 239 237 232 
3 232 244 256 
3 229 241 245 
3 229 231 241 
3 229 243 232 
3 245 243 229 
3 232 243 244 
3 233 243 245 
3 258 244 243 
3 258 243 233 
3 258 233 271 
3 261 245 259 
3 245 261 262 
3 224 246 234 
3 246 248 247 
3 246 224 248 
3 222 248 227 
3 235 262 249 
3 236 235 249 
3 236 249 264 
3 228 236 264 
3 264 222 228 
3 250 252 253 
3 251 250 253 
3 253 252 254 
3 251 255 242 
3 250 251 242 
3 250 242 238 
3 240 250 238 
3 252 250 240 
3 239 256 267 
3 240 239 267 
3 240 267 254 
3 240 254 252 
3 239 232 256 
3 257 270 244 
3 270 256 244 
3 244 258 257 
3 245 241 259 
3 234 246 271 
3 259 260 261 
3 249 262 263 
3 251 265 277 
3 253 266 251 
3 251 266 265 
3 254 267 253 
3 253 267 266 
3 242 255 269 
3 277 255 251 
3 267 256 268 
3 268 256 270 
3 270 257 279 
3 257 258 279 
3 279 258 271 
3 269 282 241 
3 241 282 259 
3 246 285 271 
3 272 259 282 
3 246 247 285 
3 285 247 287 
3 273 259 272 
3 259 273 260 
3 247 248 287 
3 307 287 248 
3 260 273 274 
3 262 260 274 
3 262 261 260 
3 263 262 275 
3 264 249 291 
3 222 264 288 
3 264 291 288 
3 288 248 222 
3 263 275 276 
3 263 276 249 
3 249 276 291 
3 265 266 277 
3 315 277 266 
3 315 266 278 
3 278 266 267 
3 278 267 268 
3 255 295 269 
3 255 292 295 
3 277 292 255 
3 279 278 270 
3 278 268 270 
3 295 281 269 
3 271 296 280 
3 296 271 298 
3 282 269 281 
3 271 283 298 
3 283 271 285 
3 282 284 272 
3 284 303 286 
3 286 272 284 
3 286 306 272 
3 306 273 272 
3 248 288 323 
3 323 307 248 
3 262 274 289 
3 290 289 308 
3 290 275 289 
3 275 262 289 
3 291 324 288 
3 275 290 276 
3 276 290 291 
3 277 315 292 
3 293 294 280 
3 296 294 293 
3 296 293 280 
3 295 316 281 
3 279 271 294 
3 280 294 271 
3 296 298 294 
3 297 300 298 
3 281 299 282 
3 298 283 297 
3 283 302 297 
3 302 300 297 
3 299 301 284 
3 299 284 282 
3 281 301 299 
3 283 285 302 
3 287 302 285 
3 304 302 287 
3 305 286 303 
3 286 305 306 
3 320 304 287 
3 320 287 307 
3 306 289 273 
3 274 273 289 
3 308 289 309 
3 323 288 324 
3 290 308 291 
3 312 315 278 
3 312 278 279 
3 279 310 312 
3 294 313 310 
3 294 310 279 
3 311 310 313 
3 314 313 294 
3 295 292 315 
3 295 315 316 
3 298 331 294 
3 332 298 300 
3 316 317 281 
3 318 332 300 
3 301 319 284 
3 281 317 301 
3 302 318 300 
3 284 319 303 
3 302 304 318 
3 304 320 318 
3 303 319 305 
3 306 305 319 
3 322 306 319 
3 307 321 320 
3 306 322 289 
3 321 307 323 
3 309 289 339 
3 309 324 291 
3 291 308 309 
3 310 311 325 
3 312 310 325 
3 312 325 327 
3 311 313 325 
3 325 313 327 
3 315 312 326 
3 326 312 330 
3 330 312 327 
3 314 294 328 
3 314 328 313 
3 313 328 327 
3 315 329 316 
3 326 330 315 
3 331 327 328 
3 331 328 294 
3 298 332 331 
3 317 316 329 
3 315 333 329 
3 333 317 329 
3 333 315 330 
3 317 319 301 
3 345 319 317 
3 345 317 333 
3 334 332 318 
3 335 319 345 
3 334 318 320 
3 335 338 322 
3 319 335 322 
3 336 337 321 
3 321 337 320 
3 338 289 322 
3 338 339 289 
3 339 340 324 
3 351 340 339 
3 324 352 341 
3 340 352 324 
3 321 323 336 
3 324 309 339 
3 324 341 356 
3 323 324 357 
3 324 356 357 
3 330 327 342 
3 331 343 327 
3 343 342 327 
3 333 330 346 
3 342 346 330 
3 347 342 343 
3 343 344 359 
3 343 331 344 
3 332 344 331 
3 345 333 349 
3 346 349 333 
3 350 342 347 
3 344 348 359 
3 344 332 348 
3 332 334 348 
3 345 351 335 
3 349 351 345 
3 342 352 346 
3 352 342 350 
3 334 337 348 
3 334 320 337 
3 335 351 338 
3 346 340 349 
3 340 351 349 
3 352 340 346 
3 337 354 355 
3 339 338 351 
3 341 353 356 
3 341 352 353 
3 353 354 356 
3 337 357 354 
3 323 357 337 
3 336 323 337 
3 357 356 354 
3 343 358 347 
3 343 359 358 
3 347 360 350 
3 347 358 360 
3 360 358 359 
3 348 337 359 
3 359 361 360 
3 355 361 359 
3 359 337 355 
3 353 352 350 
3 353 350 360 
3 355 354 361 
3 354 353 360 
3 361 354 360 

POINT_DATA 363
SCALARS scalars float
LOOKUP_TABLE default
1 1 1 1 1 1 1 1 1 
1 1 1 1 1 1 1 1 1 
1 1 1 1 1 1 1 1 1 
1 1 1 1 1 1 1 1 1 
1 1 1 1 1 1 1 1 1 
1 1 1 1 1 1 1 1 1 
1 1 1 1 1 1 1 1 1 
1 1 1 1 1 1 1 1 1 
1 1 1 1 1 1 1 1 1 
1 1 1 1 1 1 1 1 1 
1 1 1 1 1 1 1 1 1 
1 1 1 1 1 1 1 1 1 
1 1 1 1 1 1 1 1 1 
1 1 1 1 1 1 1 1 1 
1 1 1 1 1 1 1 1 1 
1 1 1 1 1 1 1 1 1 
1 1 1 1 1 1 1 1 1 
1 1 1 1 1 1 1 1 1 
1 1 1 1 1 1 1 1 1 
1 1 1 1 1 1 1 1 1 
1 1 1 1 1 1 1 1 1 
1 1 1 1 1 1 1 1 1 
1 1 1 1 1 1 1 1 1 
1 1 1 1 1 1 1 1 1 
1 1 1 1 1 1 1 1 1 
1 1 1 1 1 1 1 1 1 
1 1 1 1 1 1 1 1 1 
1 1 1 1 1 1 1 1 1 
1 1 1 1 1 1 1 1 1 
1 1 1 1 1 1 1 1 1 
1 1 1 1 1 1 1 1 1 
1 1 1 1 1 1 1 1 1 
1 1 1 1 1 1 1 1 1 
1 1 1 1 1 1 1 1 1 
1 1 1 1 1 1 1 1 1 
1 1 1 1 1 1 1 1 1 
1 1 1 1 1 1 1 1 1 
1 1 1 1 1 1 1 1 1 
1 1 1 1 1 1 1 1 1 
1 1 1 1 1 1 1 1 1 
1 1 1 
NORMALS Normals float
0.256877 -0.352235 -0.899969 0.00545985 -0.236521 -0.971611 0.34031 -0.132396 -0.930946 
-0.0873691 -0.179126 -0.979939 0.600352 -0.243408 -0.761794 -0.228678 -0.00687234 -0.973478 
0.153385 0.121354 -0.980687 0.391563 -0.0321505 -0.919589 0.611464 0.0408266 -0.790218 
-0.383775 0.0948995 -0.918537 -0.433654 0.271857 -0.859091 -0.0255183 0.179382 -0.983448 
0.286863 0.205231 -0.93573 0.398585 0.267151 -0.87736 -0.654755 0.289269 -0.698297 
-0.568761 0.471561 -0.6739 -0.237367 0.615054 -0.751908 0.0338083 0.450091 -0.892343 
-0.0314844 0.656299 -0.753844 0.0151928 0.776206 -0.630297 0.143369 0.493389 -0.857912 
0.269556 0.529807 -0.804142 0.00157342 -0.678927 -0.734204 0.000309454 -0.783966 -0.620804 
0.306313 -0.53432 -0.787829 0.091186 -0.74564 -0.660081 -0.0942541 -0.700199 -0.707699 
0.424134 -0.765228 -0.484289 -0.0388484 -0.841077 -0.539518 -0.0993997 -0.513229 -0.852476 
0.50819 -0.803376 -0.31037 0.514921 -0.835417 -0.192186 -0.27303 -0.432325 -0.859389 
0.463195 -0.620276 -0.633015 0.757019 -0.618213 -0.211508 -0.514234 -0.21545 -0.830147 
0.562108 -0.448995 -0.694578 0.792062 -0.321744 -0.518766 -0.546245 0.00344686 -0.837618 
0.725967 0.120927 -0.677015 -0.741523 0.371196 -0.558889 0.823454 0.23993 -0.514157 
0.596572 0.526501 -0.605721 0.722195 0.447365 -0.527541 -0.710785 0.571284 -0.410389 
-0.557951 0.661206 -0.501496 0.495887 0.743396 -0.448841 0.20826 0.809843 -0.548436 
0.169286 -0.956791 -0.236415 0.0475414 -0.91672 -0.396692 0.272296 -0.960631 0.0551588 
0.211157 -0.957838 -0.194832 0.434285 -0.900041 0.0363822 -0.623944 -0.440922 -0.645199 
-0.762793 -0.325514 -0.558737 0.552005 -0.800887 -0.2321 0.755209 -0.560106 -0.340501 
0.783272 -0.61859 0.0618963 -0.91629 0.104368 -0.386679 -0.812695 -0.0840691 -0.576593 
0.913016 -0.402057 -0.0689292 0.924884 -0.329417 -0.189931 0.960196 0.0936319 -0.263167 
-0.787438 0.284248 -0.546941 0.888551 0.374711 -0.264704 0.86119 0.492303 0.126448 
0.935322 0.295416 0.194686 0.944528 0.232724 0.231745 0.726973 0.589732 -0.351747 
0.727696 0.685759 -0.0139092 -0.591246 0.791185 -0.156378 -0.346519 0.861089 -0.372088 
0.121618 0.924416 -0.361474 -0.21906 -0.801434 -0.556522 -0.54876 -0.593298 -0.588948 
-0.876056 -0.393261 -0.279056 0.674168 -0.727421 0.127896 -0.906922 -0.347701 -0.2379 
-0.982882 -0.180006 -0.0392454 -0.870477 -0.236948 -0.431422 -0.991384 0.0340397 -0.126491 
0.92511 -0.249638 0.2861 0.978915 -0.151111 0.137442 -0.925673 0.371951 -0.0691454 
0.763202 0.640769 -0.0832884 0.838814 0.539515 0.0729009 -0.798537 0.600049 -0.0477405 
-0.484855 0.874162 -0.0275053 -0.0618859 0.951452 -0.301511 -0.0989115 0.988954 -0.110393 
-0.417992 -0.866699 -0.272242 0.172937 -0.974419 -0.143527 -0.800337 -0.590294 -0.104947 
-0.948811 -0.315747 0.0078933 -0.635794 -0.763097 0.115969 0.380946 -0.918229 0.10833 
-0.801773 -0.473579 -0.364532 -0.91415 -0.146221 0.378086 0.502991 -0.831689 0.235145 
-0.933593 -0.223114 0.280401 0.732719 -0.609256 0.303199 -0.944956 -0.00593367 0.327145 
0.895651 -0.174585 0.409059 0.352974 0.924651 -0.142934 -0.51762 -0.838826 0.168642 
-0.25706 -0.937455 0.23473 -0.043878 -0.998665 -0.0272578 0.126339 -0.90515 0.405884 
-0.752954 -0.572577 0.324371 -0.967354 -0.252678 -0.0194799 0.410706 -0.747934 0.521455 
0.881889 -0.291667 0.370408 -0.908174 0.217479 0.357663 -0.816279 0.479798 0.321688 
-0.0163854 0.996456 -0.0825014 -0.823574 -0.46406 0.32615 0.209628 -0.708704 0.673643 
0.000394659 -0.694633 0.719364 -0.836296 -0.21695 0.50353 0.0321203 -0.590217 0.806605 
0.323291 -0.622314 0.712888 0.233427 -0.695353 0.679703 0.499169 -0.693335 0.519728 
0.77772 -0.457982 0.430586 -0.823247 -0.0330164 0.566722 -0.767946 0.186505 0.61276 
-0.665696 0.689404 0.285607 0.168406 0.973537 -0.154483 -0.429513 -0.684697 0.58882 
-0.0521161 -0.491863 0.869111 -0.377862 -0.306044 0.873818 0.0536976 -0.57077 0.819353 
-0.189106 -0.535415 0.823146 -0.102068 -0.368876 0.923858 -0.0348018 -0.495037 0.868174 
-0.801556 -0.0181089 0.597646 -0.674293 -0.0982988 0.731892 0.942987 0.00912819 0.332704 
0.927343 0.328134 0.179895 -0.678739 0.607232 0.413015 0.0697618 0.987598 -0.140653 
-0.459267 0.876759 0.142711 -0.381498 -0.431862 0.817285 -0.496477 -0.276987 0.822672 
-0.65292 -0.116176 0.748464 0.938802 0.273204 0.209788 -0.743756 0.456003 0.488762 
-0.362414 -0.518174 0.774695 -0.557646 -0.516172 0.650074 0.570647 0.808856 -0.141824 
-0.218345 0.96678 -0.132901 0.25082 0.962511 -0.103256 -0.562757 -0.516124 0.645694 
-0.0443995 -0.724237 0.68812 0.814876 -0.387179 0.431359 -0.544822 -0.515583 0.661319 
-0.855792 0.0402313 0.515753 -0.62306 0.768926 0.143349 -0.248729 0.96805 -0.03184 
-0.0899474 0.995838 0.0147357 -0.0845478 -0.746667 0.659803 0.429827 -0.786235 0.443941 
-0.622897 -0.481732 0.616387 0.911853 -0.224938 0.343404 0.972195 0.190465 0.136238 
-0.822279 -0.112672 0.557819 0.768899 0.639143 -0.0170552 -0.839961 0.24068 0.486351 
-0.522694 0.822566 0.223999 -0.109688 0.985141 0.132156 0.305212 -0.769367 0.561178 
-0.317596 -0.685434 0.655219 0.876436 -0.268481 0.399722 0.63138 -0.465305 0.620363 
-0.775435 -0.126636 0.618598 -0.562539 -0.46439 0.684026 0.910804 -0.0146864 0.412577 
-0.67403 -0.115055 0.729689 0.773589 0.587059 0.238583 0.280669 0.9357 0.213754 
0.81213 0.233265 0.534819 -0.616269 0.590882 0.520645 -0.100132 0.888715 0.447392 
-0.218387 -0.452094 0.864823 0.136533 -0.600408 0.787953 -0.271718 0.303127 0.913391 
0.277538 0.207384 0.938064 -0.268149 -0.402744 -0.875153 -0.342446 -0.588128 -0.732691 
-0.0261005 -0.582995 -0.812056 -0.529505 -0.126611 -0.838805 -0.712724 0.0376787 -0.700431 
0.317469 -0.356712 -0.878618 -0.0886393 0.00196304 -0.996062 0.652475 0.293285 -0.698757 
-0.573891 0.434522 -0.694147 -0.579179 0.70198 -0.414457 -0.240184 0.558525 -0.793953 
0.25937 0.642807 -0.720782 -0.237513 0.912894 -0.331983 0.101415 0.930338 -0.352401 
0.32989 -0.6456 -0.688747 0.734617 -0.342385 -0.585757 -0.767656 -0.0923313 -0.634176 
-0.787143 0.377592 -0.487679 0.789341 -0.121498 -0.601814 0.895327 0.285356 -0.341997 
0.56185 0.76777 -0.307982 0.707642 0.674636 -0.21002 0.170064 0.98429 -0.0474583 
0.276892 -0.728566 -0.626515 0.740057 -0.419393 -0.525761 0.951804 -0.0613667 -0.300505 
-0.786533 0.519375 -0.33409 -0.583329 0.77055 -0.256865 0.408503 0.912753 -0.00256665 
-0.243854 0.966855 -0.0756816 -0.106609 -0.703446 -0.702708 -0.63675 -0.364869 -0.679279 
0.803284 -0.428659 -0.413505 -0.515587 0.850894 -0.100747 0.320754 0.945522 -0.0557185 
0.322021 0.945935 0.0388584 -0.120805 0.992551 0.0157538 0.960251 -0.130268 -0.246879 
-0.826353 0.21433 -0.520771 0.986212 0.12563 -0.107712 0.74918 0.661671 -0.0303504 
-0.34087 0.939765 -0.0254945 -0.336116 -0.219703 -0.915837 -0.421931 -0.496938 -0.758305 
-0.664261 -0.165366 -0.72898 -0.00617261 -0.581722 -0.813364 0.0751664 -0.628926 -0.773823 
0.485229 -0.664561 -0.568253 -0.831817 0.469577 -0.295935 -0.666764 0.710746 -0.224198 
-0.563167 -0.554102 -0.613037 -0.656914 -0.581416 -0.48002 -0.141214 -0.764699 -0.628724 
-0.276907 -0.819497 -0.501744 -0.760774 -0.132431 -0.635362 -0.851354 -0.40284 -0.33603 
0.0496472 -0.370489 -0.927509 0.296346 -0.565236 -0.769862 -0.515699 -0.165093 -0.840713 
0.858059 -0.285167 -0.4271 0.961851 0.0264704 -0.272289 0.855459 0.50693 -0.105884 
-0.469868 0.866112 -0.170513 -0.666633 -0.719502 -0.194723 -0.649815 -0.760074 -0.00517392 
-0.389215 -0.88034 -0.271135 -0.292924 -0.955964 -0.0181109 -0.0512683 -0.956988 -0.285561 
-0.849848 -0.523689 0.0592322 0.24671 -0.782846 -0.571215 0.389304 -0.757606 -0.523904 
0.389002 -0.642112 -0.660583 -0.857611 0.0510251 -0.511761 -0.887139 0.366432 -0.280555 
-0.713405 0.298102 -0.634183 -0.742793 0.544655 -0.38937 -0.475338 0.853555 -0.213303 
-0.0673676 0.997623 -0.0144907 -0.441666 -0.881023 0.169497 -0.155608 -0.956951 0.245013 
0.089612 -0.960598 -0.2631 0.275746 -0.941728 -0.192644 -0.936839 -0.239284 -0.2551 
0.329515 -0.879568 -0.34319 0.494592 -0.72365 -0.481361 -0.915043 0.204045 -0.34794 
-0.879051 0.467483 -0.0934344 -0.753623 0.64757 -0.112718 -0.491259 0.865969 -0.093607 
-0.213344 0.976804 0.0184109 -0.409877 -0.823289 0.39268 0.0665182 -0.981727 0.178289 
0.335703 -0.933254 -0.127827 0.436068 -0.867276 -0.240159 -0.887659 -0.362312 0.284239 
-0.9578 -0.110552 -0.265324 0.670892 -0.613816 -0.416093 -0.994569 0.0223543 0.101645 
0.81333 -0.34762 -0.466535 -0.92984 0.331156 -0.160418 0.979961 0.114833 -0.162755 
0.344358 0.920713 0.183592 -0.607605 0.782079 0.138447 -0.376667 0.9237 0.0700076 
-0.0409054 0.983061 0.178657 -0.53081 -0.672913 0.515198 0.514382 -0.857397 -0.0167952 
0.453146 -0.87246 0.182957 -0.801013 -0.487825 0.346994 0.69076 -0.723075 0.0036649 
0.744164 -0.594496 -0.304621 0.671063 -0.740981 0.0249451 -0.933537 -0.174464 0.313163 
0.80734 -0.590082 -0.00235662 -0.849377 -0.221387 0.479111 0.944403 -0.258228 -0.20352 
-0.957485 0.143812 0.250082 0.976812 0.195886 0.0864147 -0.918079 0.375311 0.127562 
-0.851245 0.523965 0.0290311 0.901628 0.43106 0.0354236 -0.365236 0.900847 0.234686 
-0.301575 0.86526 0.400472 0.119676 -0.889193 0.441604 0.181416 -0.538176 0.823076 
-0.111468 -0.824945 0.554112 0.193307 -0.669924 0.716822 0.360849 -0.728914 0.581784 