# vtk DataFile Version 4.2
vtk output
ASCII
DATASET POLYDATA
POINTS 3941 float
429.95 155.815 108.053 429.77 156.555 108.005 429.888 157.271 108.197 
413.895 166.28 107.941 413.833 166.17 108.002 413.786 166.404 107.968 
430.679 153.412 108.835 428.915 153.865 108.739 428.784 154.871 108.367 
430.947 154.133 108.742 425.18 157.133 108.704 430.248 155.654 108.182 
431.005 157.034 108.739 429.243 159.099 108.79 430.945 158.029 109.111 
416.884 162.368 108.766 416.325 163.346 108.473 418.918 162.34 108.497 
415.14 163.676 108.702 413.119 165.353 108.622 414.039 165.702 108.166 
416.057 165.303 108.039 419.499 164.365 108.471 413.474 166.334 108.111 
414.45 166.343 107.988 413.805 166.866 107.992 415.176 166.912 108.002 
412.071 168.032 108.184 411.541 168.987 108.222 429.634 152.448 109.585 
431.67 151.924 109.958 427.626 153.593 109.471 432.076 153.69 109.728 
431.26 155.176 108.797 431.922 155.797 109.524 423.505 159.04 108.859 
431.352 158.223 109.66 415.237 162.593 109.507 424.223 160.29 108.79 
414.259 163.345 109.436 421.008 161.966 108.717 429.226 160.563 109.601 
413.336 163.966 109.562 420.747 162.654 108.67 423.798 162.06 109.123 
412.257 164.934 109.45 407.434 170.15 108.973 406.951 171.727 108.664 
405.702 172.427 108.832 406.33 173.409 108.572 406.953 174.69 108.577 
395.26 183.164 109.49 432.123 152 110.268 432.293 152.67 110.205 
432.415 152.338 110.552 432.415 154.522 110.155 432.03 156.826 110.004 
418.955 159.908 109.831 427.442 160.439 109.01 413.605 163.412 109.965 
414.656 162.434 110.281 412.377 164.142 110.325 408.169 167.845 109.892 
417.868 168.128 108.858 405.319 170.115 109.977 405.269 171.758 109.217 
400.344 175.063 110.389 404.642 175.016 108.944 408.647 175.766 108.768 
404.886 176.434 108.901 397.976 178.657 109.794 401.604 178.12 109.198 
394.245 187.539 109.632 431.803 151.224 110.832 432.18 151.748 110.583 
432.721 155.588 111.141 431.639 158.955 111.028 425.68 162.657 109.92 
396.525 177.938 110.889 409.517 176.837 109.09 406.634 180.441 109.281 
393.113 182.597 111.036 408.837 182.4 110.021 407.213 186.513 110.486 
395.997 189.344 109.356 398.218 190.078 109.341 402.681 190.816 110.295 
390.796 195.663 110.284 397.099 195.11 109.882 399.276 194.516 110.185 
400.56 195.067 110.854 397.432 196.48 110.208 394.321 198.259 110.156 
396.421 199.945 110.982 430.74 150.626 112.153 431.604 150.914 111.47 
432.011 151.285 110.973 428.938 151.2 111.574 432.709 152.512 111.525 
406.819 167.573 111.418 420.842 169.294 110.981 395.564 177.952 111.751 
394.039 179.584 111.99 411.751 181.882 111.176 409.983 183.842 110.906 
408.84 186.693 111.458 407.586 188.316 111.604 388.733 192.582 111.263 
406.434 189.805 111.747 401.823 194.899 111.654 400.856 196.396 111.728 
401.324 196.111 112.023 399.736 198.21 111.991 397.751 199.837 111.502 
398.856 199.131 111.883 397.175 200.869 111.773 391.56 204.562 111.345 
430.841 150.518 112.716 426.837 152.03 112.14 432.248 158.309 112.452 
413.242 162.91 112.072 428.21 163.485 112.395 410.938 164.558 112.296 
401.491 171.219 112.73 398.949 173.989 112.38 411.067 183.946 111.674 
411.078 184.574 112.106 408.749 187.33 111.963 406.569 189.977 112.412 
405.004 191.426 112.413 404.199 192.315 112.386 401.371 196.534 112.823 
400.547 197.419 112.173 399.585 198.61 112.215 399.702 198.627 112.538 
397.895 200.54 112.02 396.884 201.367 111.999 394.572 203.35 111.808 
396.331 202.142 112.337 390.278 204.877 111.46 393.017 206.059 112.555 
431.581 150.756 112.59 432.939 156.117 112.803 413.86 181.979 113.319 
410.533 185.579 112.446 408.972 187.325 112.439 408.754 187.713 112.96 
406.178 190.406 112.99 397.922 200.706 112.229 398.613 200.062 112.663 
397.752 200.989 112.462 397.58 201.283 112.874 395.21 204.142 113.014 
395.635 203.748 113.342 394.224 205.559 113.202 395 204.797 113.569 
394.237 205.837 113.568 390.719 209.016 113.503 387.101 211.131 113.869 
391.575 209.05 114.239 387.581 211.723 114.275 387.767 212.11 114.611 
389.707 211.09 114.584 429.449 150.34 114.04 433.046 155.315 113.396 
398.222 173.803 114.132 416.682 179.185 114.307 413.152 182.881 113.887 
410.94 185.356 113.419 409.37 186.978 113.919 407.234 189.065 114.146 
406.48 189.927 113.844 383.818 193.818 114.463 402.604 194.375 114.12 
395.38 204.308 113.77 394.924 205.026 114.055 385.365 212.651 114.678 
388.401 212.458 115.237 431.461 150.715 114.078 431.899 150.991 113.477 
418.093 158.849 115.354 428.359 165.044 115.257 398.946 172.896 115.447 
395.094 176.618 114.965 412.476 183.423 114.813 410.205 185.89 114.451 
386.894 187.973 114.581 407.715 188.091 114.949 384.501 190.931 115.461 
394.222 206.021 115.058 393.303 207.194 115.414 392.957 207.672 115.292 
393.682 206.828 114.542 383.621 216.069 116.447 428.686 150.092 115.959 
430.411 150.287 115.671 427.409 150.293 116.534 431.899 151.176 115.08 
432.463 151.873 114.498 432.638 152.668 115.349 432.595 153.165 116.088 
403.185 169.506 116.591 395.968 175.601 115.861 391.449 180.634 116.364 
386.993 186.292 116.58 408.437 186.156 116.356 394.306 205.287 116.157 
389.397 212.016 115.67 388.128 213.315 116.234 385.449 215.788 116.811 
431.21 150.751 116.363 432.118 151.676 115.756 428.425 165.84 117.381 
421.505 174.254 116.262 420.972 174.882 116.506 412.297 182.611 116.423 
388.147 184.54 117.205 388.765 212.805 116.737 376.221 215.635 117.279 
387.428 214.464 117.536 385.351 216.055 116.997 381.233 218.102 117.518 
431.082 160.886 118.041 402.92 169.963 117.952 420.278 175.552 117.125 
386.462 186.375 118.356 373.113 205.324 118.523 388.972 212.495 117.289 
387.482 214.5 118.175 387.377 214.743 118.1 386.591 215.479 117.575 
385.539 216.511 117.74 382.838 218.66 118.42 426.953 150.125 118.423 
429.435 149.915 118.835 431.437 151.446 118.111 422.884 153.833 119.088 
431.987 156.92 118.906 431.495 159.256 119.258 416.874 161.154 118.616 
399.484 172.775 118.856 424.002 171.839 118.917 395.678 176.216 118.688 
386.171 216.14 118.072 384.144 218.202 118.785 428.259 149.643 120.33 
426.185 150.355 120.586 429.501 149.941 119.717 428.41 166.103 119.552 
407.536 168.319 120.503 422.979 172.647 119.599 380.491 192.888 120.105 
377.572 195.453 120.275 386.406 215.595 119.703 385.458 217.004 119.531 
384.612 218.247 119.573 384.73 218.157 119.651 382.705 219.687 119.856 
383.255 219.417 119.95 429.471 149.979 120.497 430.464 150.591 119.414 
428.142 166.163 120.95 426.185 169.446 120.397 393.928 178.723 120.885 
405.438 183.112 120.924 383.593 189.646 120.519 395.278 196.585 121.335 
371.275 201.8 121.39 384.551 218.286 120.114 383.806 219.326 120.766 
381.837 220.689 120.839 426.455 150.299 122.099 427.261 149.911 122.323 
428.071 149.719 121.635 428.545 149.721 121.296 428.946 149.875 121.616 
431.138 158.071 122.009 417.331 162.214 121.255 413.531 165.545 121.499 
424.299 170.399 121.63 425.902 169.185 121.502 422.867 171.214 121.862 
399.349 188.38 122.128 371.343 200.813 122.143 386.09 214.598 121.385 
383.039 220.01 121.496 382.799 220.389 121.776 379.808 222.18 121.838 
430.931 152.009 121.382 423.427 154.521 122.373 417.596 163.082 122.805 
414.768 164.978 122.019 428.049 165.744 122.033 423.502 169.841 122.956 
398.453 175.356 122.045 396.516 176.971 121.917 393.496 179.66 121.859 
390.556 182.602 122.358 376.667 195.467 123.172 383.553 218.581 122.603 
381.951 221.022 122.557 380.647 221.939 122.207 381.71 221.365 122.918 
380.895 222.003 123.081 375.431 224.207 123.046 376.698 224.603 123.78 
428.431 149.914 122.636 426.79 150.574 123.701 429.222 150.236 122.493 
430.208 150.97 121.917 430.078 151.001 122.39 425.962 151.363 123.372 
423.265 156.313 123.766 430.547 157.378 123.533 428.726 163.334 123.389 
426.684 167.164 122.798 410.027 168.687 123.03 407.89 169.87 123.003 
421.558 169.758 124.122 403.168 172.677 122.783 401.757 173.98 122.997 
404.995 179.139 123.252 399.76 184.69 123.524 395.909 189.685 124.133 
381 191.009 124.017 381 191.009 124.017 381 191.009 124.017 
381 191.009 124.017 381 191.009 124.017 381.19 221.215 124.473 
380.166 222.726 124.23 379.878 223.205 124.698 379.761 223.424 124.716 
377.165 225.236 124.934 427.084 150.321 123.664 424.596 154.804 124.349 
430.691 155.393 123.695 427.093 165.145 124.292 425.78 166.391 124.559 
409.513 169.629 123.581 407.086 171.445 123.55 416.719 170.64 124.774 
403.028 173.089 123.02 406.525 174.183 123.978 401.678 175.22 123.565 
404.315 176.325 123.973 403.263 178.296 123.919 403.948 177.976 123.841 
397.46 178.532 123.627 400.845 181.047 124.004 391.962 183.167 124.326 
399.166 182.456 124.322 383.938 190.064 124.271 381 191.009 124.018 
375.233 196.616 124.559 377.632 195.478 124.966 373.302 197.924 124.5 
372.606 198.515 124.259 371.588 199.491 124.096 378.263 224.74 125.264 
427.602 150.314 124.054 427.817 150.254 124.028 428.313 150.369 124.109 
428.456 150.518 124.261 428.819 150.68 124.17 429.392 151.472 124.283 
425.902 153.42 124.823 429.932 155.239 124.702 424.95 156.17 125.47 
423.984 157.615 125.363 417.183 165.354 124.803 424.137 166.594 125.387 
413.745 170.023 124.974 415.846 170.094 125.112 404.645 174.261 123.834 
397.953 180.116 124.381 398.182 181.898 124.596 390.114 185.299 125.163 
388.995 186.659 125.678 372.946 198.047 124.595 373.002 198.042 124.637 
372.729 198.431 124.874 372.191 199.226 125.942 365.864 202.487 126.004 
367.029 202.259 125.159 361.709 209.166 125.801 379.274 223.798 125.39 
373.634 227.426 125.961 376.66 226.484 126.665 428.258 150.598 124.391 
428.085 151.41 125.023 427.369 151.865 125.04 429.261 153.835 125.27 
426.227 154.477 125.508 428.904 155.769 125.512 425.779 155.776 125.822 
424.28 158.293 125.852 428.876 159.381 125.091 420.885 162.956 125.826 
426.327 163.703 125.947 416.652 166.333 125.126 423.139 165.968 126.045 
426.169 164.789 125.531 420.379 166.693 126.16 412.113 169.23 124.424 
413.861 168.438 124.868 411.307 169.851 124.357 396.98 180.619 124.478 
[...]
POINT_DATA 3941
SCALARS scalars float
LOOKUP_TABLE default
1 1 1 1 1 1 1 1 1 
1 1 1 1 1 1 1 1 1 
1 1 1 1 1 1 1 1 1 
1 1 1 1 1 1 1 1 1 
1 1 1 1 1 1 1 1 1 
1 1 1 1 1 1 1 1 1 
1 1 1 1 1 1 1 1 1 
1 1 1 1 1 1 1 1 1 
1 1 1 1 1 1 1 1 1 
1 1 1 1 1 1 1 1 1 
1 1 1 1 1 1 1 1 1 
1 1 1 1 1 1 1 1 1 
1 1 1 1 1 1 1 1 1 
1 1 1 1 1 1 1 1 1 
1 1 1 1 1 1 1 1 1 
1 1 1 1 1 1 1 1 1 
1 1 1 1 1 1 1 1 1 
1 1 1 1 1 1 1 1 1 
1 1 1 1 1 1 1 1 1 
1 1 1 1 1 1 1 1 1 
1 1 1 1 1 1 1 1 1 
1 1 1 1 1 1 1 1 1 
1 1 1 1 1 1 1 1 1 
1 1 1 1 1 1 1 1 1 
1 1 1 1 1 1 1 1 1 
1 1 1 1 1 1 1 1 1 
1 1 1 1 1 1 1 1 1 
1 1 1 1 1 1 1 1 1 
1 1 1 1 1 1 1 1 1 
1 1 1 1 1 1 1 1 1 
1 1 1 1 1 1 1 1 1 
1 1 1 1 1 1 1 1 1 
1 1 1 1 1 1 1 1 1 
1 1 1 1 1 1 1 1 1 
1 1 1 1 1 1 1 1 1 
1 1 1 1 1 1 1 1 1 
1 1 1 1 1 1 1 1 1 
1 1 1 1 1 1 1 1 1 
1 1 1 1 1 1 1 1 1 
1 1 1 1 1 1 1 1 1 
1 1 1 1 1 1 1 1 1 
1 1 1 1 1 1 1 1 1 
1 1 1 1 1 1 1 1 1 
1 1 1 1 1 1 1 1 1 
1 1 1 1 1 1 1 1 1 
1 1 1 1 1 1 1 1 1 
1 1 1 1 1 1 1 1 1 
1 1 1 1 1 1 1 1 1 
1 1 1 1 1 1 1 1 1 
1 1 1 1 1 1 1 1 1 
1 1 1 1 1 1 1 1 1 
1 1 1 1 1 1 1 1 1 
1 1 1 1 1 1 1 1 1 
1 1 1 1 1 1 1 1 1 
1 1 1 1 1 1 1 1 1 
1 1 1 1 1 1 1 1 1 
1 1 1 1 1 1 1 1 1 
1 1 1 1 1 1 1 1 1 
1 1 1 1 1 1 1 1 1 
1 1 1 1 1 1 1 1 1 
1 1 1 1 1 1 1 1 1 
1 1 1 1 1 1 1 1 1 
1 1 1 1 1 1 1 1 1 
1 1 1 1 1 1 1 1 1 
1 1 1 1 1 1 1 1 1 
1 1 1 1 1 1 1 1 1 
1 1 1 1 1 1 1 1 1 
1 1 1 1 1 1 1 1 1 
1 1 1 1 1 1 1 1 1 
1 1 1 1 1 1 1 1 1 
1 1 1 1 1 1 1 1 1 
1 1 1 1 1 1 1 1 1 
1 1 1 1 1 1 1 1 1 
1 1 1 1 1 1 1 1 1 
1 1 1 1 1 1 1 1 1 
1 1 1 1 1 1 1 1 1 
1 1 1 1 1 1 1 1 1 
1 1 1 1 1 1 1 1 1 
1 1 1 1 1 1 1 1 1 
1 1 1 1 1 1 1 1 1 
1 1 1 1 1 1 1 1 1 
1 1 1 1 1 1 1 1 1 
1 1 1 1 1 1 1 1 1 
1 1 1 1 1 1 1 1 1 
1 1 1 1 1 1 1 1 1 
1 1 1 1 1 1 1 1 1 
1 1 1 1 1 1 1 1 1 
1 1 1 1 1 1 1 1 1 
1 1 1 1 1 1 1 1 1 
1 1 1 1 1 1 1 1 1 
1 1 1 1 1 1 1 1 1 
1 1 1 1 1 1 1 1 1 
1 1 1 1 1 1 1 1 1 
1 1 1 1 1 1 1 1 1 
1 1 1 1 1 1 1 1 1 
1 1 1 1 1 1 1 1 1 
1 1 1 1 1 1 1 1 1 
1 1 1 1 1 1 1 1 1 
1 1 1 1 1 1 1 1 1 
1 1 1 1 1 1 1 1 1 
1 1 1 1 1 1 1 1 1 
1 1 1 1 1 1 1 1 1 
1 1 1 1 1 1 1 1 1 
1 1 1 1 1 1 1 1 1 
1 1 1 1 1 1 1 1 1 
1 1 1 1 1 1 1 1 1 
1 1 1 1 1 1 1 1 1 
1 1 1 1 1 1 1 1 1 
1 1 1 1 1 1 1 1 1 
1 1 1 1 1 1 1 1 1 
1 1 1 1 1 1 1 1 1 
1 1 1 1 1 1 1 1 1 
1 1 1 1 1 1 1 1 1 
1 1 1 1 1 1 1 1 1 
1 1 1 1 1 1 1 1 1 
1 1 1 1 1 1 1 1 1 
1 1 1 1 1 1 1 1 1 
1 1 1 1 1 1 1 1 1 
1 1 1 1 1 1 1 1 1 
1 1 1 1 1 1 1 1 1 
1 1 1 1 1 1 1 1 1 
1 1 1 1 1 1 1 1 1 
1 1 1 1 1 1 1 1 1 
1 1 1 1 1 1 1 1 1 
1 1 1 1 1 1 1 1 1 
1 1 1 1 1 1 1 1 1 
1 1 1 1 1 1 1 1 1 
1 1 1 1 1 1 1 1 1 
1 1 1 1 1 1 1 1 1 
1 1 1 1 1 1 1 1 1 
1 1 1 1 1 1 1 1 1 
1 1 1 1 1 1 1 1 1 
1 1 1 1 1 1 1 1 1 
1 1 1 1 1 1 1 1 1 
1 1 1 1 1 1 1 1 1 
1 1 1 1 1 1 1 1 1 
1 1 1 1 1 1 1 1 1 
1 1 1 1 1 1 1 1 1 
1 1 1 1 1 1 1 1 1 
1 1 1 1 1 1 1 1 1 
1 1 1 1 1 1 1 1 1 
1 1 1 1 1 1 1 1 1 
1 1 1 1 1 1 1 1 1 
1 1 1 1 1 1 1 1 1 
1 1 1 1 1 1 1 1 1 
1 1 1 1 1 1 1 1 1 
1 1 1 1 1 1 1 1 1 
1 1 1 1 1 1 1 1 1 
1 1 1 1 1 1 1 1 1 
1 1 1 1 1 1 1 1 1 
1 1 1 1 1 1 1 1 1 
1 1 1 1 1 1 1 1 1 
1 1 1 1 1 1 1 1 1 
1 1 1 1 1 1 1 1 1 
1 1 1 1 1 1 1 1 1 
1 1 1 1 1 1 1 1 1 
1 1 1 1 1 1 1 1 1 
1 1 1 1 1 1 1 1 1 
1 1 1 1 1 1 1 1 1 
1 1 1 1 1 1 1 1 1 
1 1 1 1 1 1 1 1 1 
1 1 1 1 1 1 1 1 1 
1 1 1 1 1 1 1 1 1 
1 1 1 1 1 1 1 1 1 
1 1 1 1 1 1 1 1 1 
1 1 1 1 1 1 1 1 1 
1 1 1 1 1 1 1 1 1 
1 1 1 1 1 1 1 1 1 
1 1 1 1 1 1 1 1 1 
1 1 1 1 1 1 1 1 1 
1 1 1 1 1 1 1 1 1 
1 1 1 1 1 1 1 1 1 
1 1 1 1 1 1 1 1 1 
1 1 1 1 1 1 1 1 1 
1 1 1 1 1 1 1 1 1 
1 1 1 1 1 1 1 1 1 
1 1 1 1 1 1 1 1 1 
1 1 1 1 1 1 1 1 1 
1 1 1 1 1 1 1 1 1 
1 1 1 1 1 1 1 1 1 
1 1 1 1 1 1 1 1 1 
1 1 1 1 1 1 1 1 1 
1 1 1 1 1 1 1 1 1 
1 1 1 1 1 1 1 1 1 
1 1 1 1 1 1 1 1 1 
1 1 1 1 1 1 1 1 1 
1 1 1 1 1 1 1 1 1 
1 1 1 1 1 1 1 1 1 
1 1 1 1 1 1 1 1 1 
1 1 1 1 1 1 1 1 1 
1 1 1 1 1 1 1 1 1 
1 1 1 1 1 1 1 1 1 
1 1 1 1 1 1 1 1 1 
1 1 1 1 1 1 1 1 1 
1 1 1 1 1 1 1 1 1 
1 1 1 1 1 1 1 1 1 
1 1 1 1 1 1 1 1 1 
1 1 1 1 1 1 1 1 1 
1 1 1 1 1 1 1 1 1 
1 1 1 1 1 1 1 1 1 
1 1 1 1 1 1 1 1 1 
1 1 1 1 1 1 1 1 1 
1 1 1 1 1 1 1 1 1 
1 1 1 1 1 1 1 1 1 
1 1 1 1 1 1 1 1 1 
1 1 1 1 1 1 1 1 1 
1 1 1 1 1 1 1 1 1 
1 1 1 1 1 1 1 1 1 
1 1 1 1 1 1 1 1 1 
1 1 1 1 1 1 1 1 1 
1 1 1 1 1 1 1 1 1 
1 1 1 1 1 1 1 1 1 
1 1 1 1 1 1 1 1 1 
1 1 1 1 1 1 1 1 1 
1 1 1 1 1 1 1 1 1 
1 1 1 1 1 1 1 1 1 
1 1 1 1 1 1 1 1 1 
1 1 1 1 1 1 1 1 1 
1 1 1 1 1 1 1 1 1 
1 1 1 1 1 1 1 1 1 
1 1 1 1 1 1 1 1 1 
1 1 1 1 1 1 1 1 1 
1 1 1 1 1 1 1 1 1 
1 1 1 1 1 1 1 1 1 
1 1 1 1 1 1 1 1 1 
1 1 1 1 1 1 1 1 1 
1 1 1 1 1 1 1 1 1 
1 1 1 1 1 1 1 1 1 
1 1 1 1 1 1 1 1 1 
1 1 1 1 1 1 1 1 1 
1 1 1 1 1 1 1 1 1 
1 1 1 1 1 1 1 1 1 
1 1 1 1 1 1 1 1 1 
1 1 1 1 1 1 1 1 1 
1 1 1 1 1 1 1 1 1 
1 1 1 1 1 1 1 1 1 
1 1 1 1 1 1 1 1 1 
1 1 1 1 1 1 1 1 1 
1 1 1 1 1 1 1 1 1 
1 1 1 1 1 1 1 1 1 
1 1 1 1 1 1 1 1 1 
1 1 1 1 1 1 1 1 1 
1 1 1 1 1 1 1 1 1 
1 1 1 1 1 1 1 1 1 
1 1 1 1 1 1 1 1 1 
1 1 1 1 1 1 1 1 1 
1 1 1 1 1 1 1 1 1 
1 1 1 1 1 1 1 1 1 
1 1 1 1 1 1 1 1 1 
1 1 1 1 1 1 1 1 1 
1 1 1 1 1 1 1 1 1 
1 1 1 1 1 1 1 1 1 
1 1 1 1 1 1 1 1 1 
1 1 1 1 1 1 1 1 1 
1 1 1 1 1 1 1 1 1 
1 1 1 1 1 1 1 1 1 
1 1 1 1 1 1 1 1 1 
1 1 1 1 1 1 1 1 1 
1 1 1 1 1 1 1 1 1 
1 1 1 1 1 1 1 1 1 
1 1 1 1 1 1 1 1 1 
1 1 1 1 1 1 1 1 1 
1 1 1 1 1 1 1 1 1 
1 1 1 1 1 1 1 1 1 
1 1 1 1 1 1 1 1 1 
1 1 1 1 1 1 1 1 1 
1 1 1 1 1 1 1 1 1 
1 1 1 1 1 1 1 1 1 
1 1 1 1 1 1 1 1 1 
1 1 1 1 1 1 1 1 1 
1 1 1 1 1 1 1 1 1 
1 1 1 1 1 1 1 1 1 
1 1 1 1 1 1 1 1 1 
1 1 1 1 1 1 1 1 1 
1 1 1 1 1 1 1 1 1 
1 1 1 1 1 1 1 1 1 
1 1 1 1 1 1 1 1 1 
1 1 1 1 1 1 1 1 1 
1 1 1 1 1 1 1 1 1 
1 1 1 1 1 1 1 1 1 
1 1 1 1 1 1 1 1 1 
1 1 1 1 1 1 1 1 1 
1 1 1 1 1 1 1 1 1 
1 1 1 1 1 1 1 1 1 
1 1 1 1 1 1 1 1 1 
1 1 1 1 1 1 1 1 1 
1 1 1 1 1 1 1 1 1 
1 1 1 1 1 1 1 1 1 
1 1 1 1 1 1 1 1 1 
1 1 1 1 1 1 1 1 1 
1 1 1 1 1 1 1 1 1 
1 1 1 1 1 1 1 1 1 
1 1 1 1 1 1 1 1 1 
1 1 1 1 1 1 1 1 1 
1 1 1 1 1 1 1 1 1 
1 1 1 1 1 1 1 1 1 
1 1 1 1 1 1 1 1 1 
1 1 1 1 1 1 1 1 1 
1 1 1 1 1 1 1 1 1 
1 1 1 1 1 1 1 1 1 
1 1 1 1 1 1 1 1 1 
1 1 1 1 1 1 1 1 1 
1 1 1 1 1 1 1 1 1 
1 1 1 1 1 1 1 1 1 
1 1 1 1 1 1 1 1 1 
1 1 1 1 1 1 1 1 1 
1 1 1 1 1 1 1 1 1 
1 1 1 1 1 1 1 1 1 
1 1 1 1 1 1 1 1 1 
1 1 1 1 1 1 1 1 1 
1 1 1 1 1 1 1 1 1 
1 1 1 1 1 1 1 1 1 
1 1 1 1 1 1 1 1 1 
1 1 1 1 1 1 1 1 1 
1 1 1 1 1 1 1 1 1 
1 1 1 1 1 1 1 1 1 
1 1 1 1 1 1 1 1 1 
1 1 1 1 1 1 1 1 1 
1 1 1 1 1 1 1 1 1 
1 1 1 1 1 1 1 1 1 
1 1 1 1 1 1 1 1 1 
1 1 1 1 1 1 1 1 1 
1 1 1 1 1 1 1 1 1 
1 1 1 1 1 1 1 1 1 
1 1 1 1 1 1 1 1 1 
1 1 1 1 1 1 1 1 1 
1 1 1 1 1 1 1 1 1 
1 1 1 1 1 1 1 1 1 
1 1 1 1 1 1 1 1 1 
1 1 1 1 1 1 1 1 1 
1 1 1 1 1 1 1 1 1 
1 1 1 1 1 1 1 1 1 
1 1 1 1 1 1 1 1 1 
1 1 1 1 1 1 1 1 1 
1 1 1 1 1 1 1 1 1 
1 1 1 1 1 1 1 1 1 
1 1 1 1 1 1 1 1 1 
1 1 1 1 1 1 1 1 1 
1 1 1 1 1 1 1 1 1 
1 1 1 1 1 1 1 1 1 
1 1 1 1 1 1 1 1 1 
1 1 1 1 1 1 1 1 1 
1 1 1 1 1 1 1 1 1 
1 1 1 1 1 1 1 1 1 
1 1 1 1 1 1 1 1 1 
1 1 1 1 1 1 1 1 1 
1 1 1 1 1 1 1 1 1 
1 1 1 1 1 1 1 1 1 
1 1 1 1 1 1 1 1 1 
1 1 1 1 1 1 1 1 1 
1 1 1 1 1 1 1 1 1 
1 1 1 1 1 1 1 1 1 
1 1 1 1 1 1 1 1 1 
1 1 1 1 1 1 1 1 1 
1 1 1 1 1 1 1 1 1 
1 1 1 1 1 1 1 1 1 
1 1 1 1 1 1 1 1 1 
1 1 1 1 1 1 1 1 1 
1 1 1 1 1 1 1 1 1 
1 1 1 1 1 1 1 1 1 
1 1 1 1 1 1 1 1 1 
1 1 1 1 1 1 1 1 1 
1 1 1 1 1 1 1 1 1 
1 1 1 1 1 1 1 1 1 
1 1 1 1 1 1 1 1 1 
1 1 1 1 1 1 1 1 1 
1 1 1 1 1 1 1 1 1 
1 1 1 1 1 1 1 1 1 
1 1 1 1 1 1 1 1 1 
1 1 1 1 1 1 1 1 1 
1 1 1 1 1 1 1 1 1 
1 1 1 1 1 1 1 1 1 
1 1 1 1 1 1 1 1 1 
1 1 1 1 1 1 1 1 1 
1 1 1 1 1 1 1 1 1 
1 1 1 1 1 1 1 1 1 
1 1 1 1 1 1 1 1 1 
1 1 1 1 1 1 1 1 1 
1 1 1 1 1 1 1 1 1 
1 1 1 1 1 1 1 1 1 
1 1 1 1 1 1 1 1 1 
1 1 1 1 1 1 1 1 1 
1 1 1 1 1 1 1 1 1 
1 1 1 1 1 1 1 1 1 
1 1 1 1 1 1 1 1 1 
1 1 1 1 1 1 1 1 1 
1 1 1 1 1 1 1 1 1 
1 1 1 1 1 1 1 1 1 
1 1 1 1 1 1 1 1 1 
1 1 1 1 1 1 1 1 1 
1 1 1 1 1 1 1 1 1 
1 1 1 1 1 1 1 1 1 
1 1 1 1 1 1 1 1 1 
1 1 1 1 1 1 1 1 1 
1 1 1 1 1 1 1 1 1 
1 1 1 1 1 1 1 1 1 
1 1 1 1 1 1 1 1 1 
1 1 1 1 1 1 1 1 1 
1 1 1 1 1 1 1 1 1 
1 1 1 1 1 1 1 1 1 
1 1 1 1 1 1 1 1 1 
1 1 1 1 1 1 1 1 1 
1 1 1 1 1 1 1 1 1 
1 1 1 1 1 1 1 1 1 
1 1 1 1 1 1 1 1 1 
1 1 1 1 1 1 1 1 1 
1 1 1 1 1 1 1 1 1 
1 1 1 1 1 1 1 1 1 
1 1 1 1 1 1 1 1 1 
1 1 1 1 1 1 1 1 1 
1 1 1 1 1 1 1 1 1 
1 1 1 1 1 1 1 1 1 
1 1 1 1 1 1 1 1 1 
1 1 1 1 1 1 1 1 1 
1 1 1 1 1 1 1 1 1 
1 1 1 1 1 1 1 1 1 
1 1 1 1 1 1 1 1 1 
1 1 1 1 1 1 1 1 1 
1 1 1 1 1 1 1 1 1 
1 1 1 1 1 1 1 1 1 
1 1 1 1 1 1 1 1 1 
1 1 1 1 1 1 1 1 1 
1 1 1 1 1 1 1 1 1 
1 1 1 1 1 1 1 1 1 
1 1 1 1 1 1 1 1 1 
1 1 1 1 1 1 1 1 1 
1 1 1 1 1 1 1 1 1 
1 1 1 1 1 1 1 1 1 
1 1 1 1 1 1 1 1 1 
1 1 1 1 1 1 1 1 1 
1 1 1 1 1 1 1 1 1 
1 1 1 1 1 1 1 1 1 
1 1 1 1 1 1 1 1 1 
1 1 1 1 1 1 1 1 1 
1 1 1 1 1 1 1 1 1 
1 1 1 1 1 1 1 1 1 
1 1 1 1 1 1 1 1 1 
1 1 1 1 1 1 1 1 
NORMALS Normals float
0.402162 0.102006 -0.909868 0.0351209 0.0706515 -0.996883 0.389683 0.235377 -0.890362 
-0.130207 -0.16546 -0.977583 -0.367932 -0.324716 -0.871312 -0.362939 -0.0765887 -0.92866 
0.132636 -0.302292 -0.943942 -0.0729654 -0.443882 -0.89311 -0.0512766 -0.320592 -0.945829 
0.328485 -0.140834 -0.93395 -0.312697 -0.243945 -0.917993 0.288384 -0.141362 -0.947022 
0.634174 0.184853 -0.750768 0.368217 0.46657 -0.804194 0.597357 0.378852 -0.706849 
-0.152328 -0.397271 -0.904971 -0.208805 -0.388878 -0.897315 -0.0270616 -0.034613 -0.999034 
-0.355382 -0.484852 -0.799139 -0.429812 -0.479633 -0.764992 -0.154708 -0.385648 -0.909583 
0.0310257 -0.109781 -0.993471 0.201456 0.0803462 -0.976197 -0.402636 -0.246523 -0.881539 
0.150432 -0.179405 -0.972206 -0.0912592 0.153835 -0.983873 0.120408 0.0432437 -0.991782 
-0.152262 -0.0303253 -0.987875 -0.140211 -0.0808931 -0.986812 -0.167934 -0.569755 -0.804473 
0.402838 -0.512573 -0.758281 -0.413313 -0.524807 -0.744144 0.658088 -0.152067 -0.737425 
0.643022 0.133283 -0.754161 0.799155 0.130784 -0.586726 -0.279453 -0.254807 -0.925732 
0.740217 0.431676 -0.515494 -0.431348 -0.624455 -0.651149 0.0422881 0.15758 -0.9866 
-0.437724 -0.654151 -0.616834 -0.0023259 -0.214049 -0.97682 0.516096 0.599133 -0.612115 
-0.571483 -0.638692 -0.515248 0.0647784 0.127889 -0.989671 0.201418 0.352896 -0.913726 
-0.54601 -0.555654 -0.626994 -0.386547 -0.417967 -0.822122 -0.0453631 -0.112782 -0.992584 
-0.479737 -0.122232 -0.868857 -0.252363 0.0490562 -0.966388 -0.0377938 0.129553 -0.990852 
-0.36584 -0.21079 -0.906492 0.703316 -0.375325 -0.60372 0.817569 -0.140602 -0.558401 
0.909641 -0.279818 -0.30701 0.898456 -0.0395192 -0.437281 0.82506 0.246688 -0.508351 
-0.269658 -0.413375 -0.869716 0.164756 0.456011 -0.874591 -0.555276 -0.740131 -0.379308 
-0.504065 -0.699042 -0.507207 -0.532491 -0.702943 -0.471513 -0.458355 -0.486254 -0.743954 
0.205039 0.272565 -0.940036 -0.409991 -0.459081 -0.788132 -0.542191 -0.302134 -0.784056 
-0.381006 -0.299849 -0.8746 -0.145547 -0.0294724 -0.988912 0.178812 0.0238055 -0.983595 
-0.0396782 -0.0627146 -0.997242 -0.445999 -0.291822 -0.846123 -0.104647 -0.0990049 -0.989569 
-0.129793 -0.121058 -0.984123 0.162827 -0.831358 -0.531349 0.695644 -0.553404 -0.458066 
0.952692 0.0843755 -0.291992 0.82665 0.459807 -0.324389 0.146604 0.657833 -0.738758 
-0.465865 -0.355838 -0.810154 0.186629 0.157832 -0.969669 0.0917874 0.179993 -0.979376 
-0.564356 -0.269824 -0.78019 0.262768 0.295161 -0.918604 0.305415 0.295155 -0.905321 
-0.112029 -0.00944369 -0.99366 0.13402 -0.0684839 -0.988609 0.283688 0.142255 -0.948306 
-0.161778 0.0771101 -0.98381 0.0941422 0.205152 -0.974192 0.319214 0.196169 -0.927157 
0.442677 0.318824 -0.838086 0.143646 0.186454 -0.971906 0.0597672 0.245986 -0.967429 
0.295995 0.383355 -0.874886 0.00842532 -0.95496 -0.296613 0.312589 -0.915954 -0.251629 
0.758013 -0.628169 -0.175557 -0.259888 -0.882717 -0.391495 0.96856 -0.184108 -0.16732 
-0.52661 -0.674872 -0.516943 0.538288 0.451808 -0.711418 -0.629565 -0.527288 -0.570627 
-0.654409 -0.484308 -0.580685 0.47333 0.355077 -0.806151 0.355452 0.38589 -0.851318 
0.639304 0.519054 -0.567338 0.660045 0.617979 -0.427132 -0.468665 -0.0904417 -0.878734 
0.602938 0.614995 -0.50818 0.685646 0.459876 -0.564273 0.630328 0.484761 -0.606377 
0.688583 0.479563 -0.543942 0.614315 0.474117 -0.630738 0.532894 0.389951 -0.750974 
0.588664 0.497212 -0.637381 0.446254 0.547477 -0.707903 0.085775 0.198941 -0.976251 
0.153003 -0.982801 -0.103401 -0.515461 -0.793268 -0.324077 0.929812 0.368028 0.00205884 
-0.597106 -0.780536 -0.185007 0.444957 0.704775 -0.552544 -0.584899 -0.784626 -0.20556 
-0.644636 -0.718409 -0.261405 -0.598729 -0.664204 -0.447612 0.611154 0.33377 -0.717697 
0.714307 0.537416 -0.448274 0.717507 0.553085 -0.423415 0.722438 0.673164 -0.157901 
0.713924 0.699201 -0.0378185 0.776131 0.6177 -0.126754 0.799118 0.570357 -0.190007 
0.662598 0.522979 -0.53615 0.706655 0.593614 -0.385046 0.762252 0.62338 -0.174271 
0.5378 0.521886 -0.662122 0.453501 0.634263 -0.626137 0.51544 0.396816 -0.759512 
0.372238 0.447842 -0.812943 -0.175254 0.25907 -0.949826 0.404194 0.555907 -0.726357 
0.560392 -0.821732 -0.10352 0.971324 0.188416 -0.145013 0.730894 0.610385 -0.305326 
0.708714 0.648917 -0.276824 0.749983 0.61125 -0.252781 0.707117 0.707069 -0.00628311 
0.662042 0.749219 -0.0192737 0.702415 0.623822 -0.342723 0.765266 0.575757 -0.287876 
0.580638 0.688361 -0.434762 0.734593 0.657371 -0.168035 0.700568 0.533453 -0.473953 
0.815733 0.534034 -0.222232 0.685759 0.557909 -0.46741 0.713545 0.591425 -0.375593 
0.734069 0.602233 -0.313782 0.429495 0.572028 -0.698798 0.00598549 0.498032 -0.867138 
0.674118 0.630882 -0.384126 0.191467 0.571906 -0.797661 0.116995 0.654341 -0.747095 
0.379444 0.571351 -0.727722 -0.162681 -0.967417 -0.194006 0.998699 0.0409391 0.0303939 
-0.696918 -0.696995 -0.168829 0.738454 0.667135 -0.0980651 0.764956 0.584684 -0.27016 
0.812157 0.582609 0.0311097 0.710761 0.674815 0.198605 0.624005 0.732672 0.271679 
0.63717 0.665413 0.388896 -0.658071 -0.369125 -0.656269 0.774852 0.600425 0.197723 
0.877022 0.478891 -0.0386837 0.835434 0.545892 -0.0636511 0.0184143 0.489897 -0.871586 
0.451405 0.678714 -0.579294 0.57696 -0.815706 0.0417198 0.65028 -0.759694 0.000914348 
-0.650367 -0.757242 0.0600564 0.840724 0.496598 -0.215809 -0.663631 -0.742017 -0.0948966 
-0.819366 -0.560358 -0.120989 0.728675 0.659343 0.185202 0.775639 0.373766 0.508609 
-0.745532 -0.459852 -0.482408 0.460426 0.716172 0.524505 -0.819696 -0.420151 -0.389323 
0.807516 0.576422 0.125124 0.785896 0.605039 0.127648 0.761224 0.634816 0.13246 
0.775545 0.628724 0.0568796 0.192843 0.636228 -0.747011 -0.130442 -0.97842 -0.160247 
0.328031 -0.943894 0.038217 -0.437413 -0.879004 -0.189796 0.741737 -0.662595 0.103897 
0.889153 -0.457143 0.0206752 0.97048 -0.212936 0.113257 0.96428 -0.185635 0.188954 
-0.557778 -0.814915 0.15747 -0.676956 -0.727679 -0.110515 -0.743265 -0.666537 -0.0573172 
-0.792238 -0.522456 -0.315276 0.507243 0.573106 0.643625 0.765566 0.501618 0.40285 
0.69373 0.675822 -0.249003 0.676285 0.715674 -0.174498 0.476555 0.632143 -0.610976 
0.590614 -0.78713 0.177771 0.854102 -0.485185 0.187363 0.763302 0.63462 -0.120947 
0.726944 0.651781 -0.216183 0.726427 0.647121 -0.231384 0.564173 0.646817 0.513163 
-0.747799 -0.653262 -0.118511 0.650524 0.755973 -0.0729574 -0.304974 0.336687 -0.890861 
0.756176 0.584787 -0.293637 0.358456 0.694237 -0.624135 0.117907 0.633355 -0.764827 
0.926758 0.37533 0.0156952 -0.573663 -0.767418 0.286322 0.708099 0.695416 0.122441 
-0.79854 -0.594352 -0.0952885 -0.491038 -0.192218 -0.849667 0.677415 0.725026 -0.124284 
0.812742 0.576595 -0.0836013 0.84138 0.538457 0.046303 0.659933 0.628682 -0.411397 
0.523012 0.708205 -0.474242 0.330069 0.699849 -0.633455 -0.347378 -0.924389 -0.157588 
0.241324 -0.968843 -0.0557304 0.726525 -0.664944 0.173236 -0.794804 -0.581045 0.175136 
0.983354 0.100943 0.15108 0.918014 0.326978 0.224357 -0.657795 -0.698857 0.2809 
-0.64825 -0.746079 0.152111 0.671577 0.713362 0.200244 -0.806576 -0.547952 0.221776 
0.65778 0.692813 -0.295526 0.502945 0.65766 -0.560829 0.0649055 -0.997816 -0.0123004 
-0.624561 -0.779868 -0.0415783 0.511871 -0.853129 0.100792 0.948136 0.295033 0.118296 
-0.366271 -0.86676 0.338485 0.510701 0.772187 0.378036 -0.65577 -0.72357 -0.215437 
-0.655873 -0.687862 -0.31093 0.809128 0.48146 0.336909 0.805157 0.578715 0.129656 
0.643538 0.701216 -0.306847 0.737295 0.661767 -0.135867 0.224312 0.798038 -0.559302 
0.555396 0.780314 -0.287483 0.577202 -0.813354 0.0727546 0.649962 -0.749897 0.123305 
0.737434 0.644375 0.202415 0.756748 0.644248 0.1108 -0.67221 -0.717986 0.180638 
0.441446 0.464134 0.767922 -0.789867 -0.587581 -0.175667 0.615479 0.398634 0.679909 
-0.466728 -0.476496 -0.745061 0.761873 0.647321 -0.0229143 0.702738 0.708643 -0.0631219 
0.577264 0.776042 -0.254018 -0.566674 -0.818661 0.0931422 -0.241918 -0.959871 0.141854 
-0.0672284 -0.995564 0.0658181 0.18258 -0.968045 0.171909 0.451523 -0.879143 0.152431 
0.910281 0.236697 0.339651 -0.711707 -0.576892 0.400834 -0.511263 -0.765901 0.389878 
0.495491 0.73267 0.466565 0.654375 0.613088 0.442625 0.435984 0.739731 0.512558 
0.460399 0.314256 0.830227 -0.557245 -0.609179 -0.564251 0.818384 0.329708 0.47068 
0.753098 0.657387 -0.0261889 0.735914 0.67703 -0.00785066 0.376629 0.82783 -0.415749 
0.897785 -0.377699 0.226552 -0.792559 -0.417115 0.444821 -0.621512 -0.568911 0.538575 
-0.511739 -0.701718 0.495696 0.817675 0.452141 0.356338 0.42872 0.617772 0.659209 
-0.467295 -0.645779 0.603825 -0.702526 -0.590969 0.396501 -0.615213 -0.646066 0.451788 
-0.63339 -0.665493 0.394888 -0.550518 -0.826212 0.119596 0.822308 0.471435 0.318682 
0.776926 0.615011 0.13471 0.293602 0.854005 -0.429504 0.717566 0.696484 -0.00293802 
0.582677 0.811463 -0.0449065 -0.0400942 0.704462 -0.708609 0.237781 0.785755 -0.571008 
0.176829 -0.959427 0.219617 -0.5589 -0.626528 0.543225 0.402729 -0.874732 0.269544 
0.736939 -0.65356 0.172571 0.822061 -0.424886 0.379061 -0.743978 -0.578357 0.334663 
-0.82982 -0.308208 0.465195 0.930082 0.0668721 0.361215 0.769575 0.314136 0.555943 
0.683431 0.553087 0.476463 -0.236239 -0.781773 0.57708 -0.329919 -0.586592 0.739637 
0.262483 0.631413 0.729672 -0.310535 -0.550762 0.774745 -0.285907 -0.449725 0.84617 
0.221522 0.317811 0.921913 0.322472 0.318082 0.891535 0.515139 0.194473 0.834753 
0 -0.116042 -0.993244 0 -0.99336 -0.11505 -0.897652 -0.431672 -0.0887646 
0.897652 -0.431672 -0.0887646 0 0.447214 -0.894427 0.796764 0.571788 0.195513 
0.799134 0.600932 0.0162693 0.854876 0.140747 0.499376 0.766963 0.640257 -0.0428833 
0.391785 0.813512 -0.429771 -0.49479 -0.788624 0.36504 -0.689368 -0.366164 0.625056 
0.851055 0.0307441 0.524176 0.640399 0.480128 0.599472 0.578533 0.518861 0.629351 
-0.370783 -0.583563 0.722477 -0.00909005 -0.24674 0.969039 0.188917 0.547169 0.815424 
-0.259738 -0.363549 0.894633 -0.0452799 -0.126708 0.990906 -0.147677 -0.258037 0.954782 
-0.0323858 -0.0658056 0.997307 0.198436 0.174701 0.964418 0.119026 0.0826928 0.989442 
-0.352733 -0.483263 0.801272 0.367875 0.177633 0.912751 -0.416086 -0.6289 0.656778 
0.241017 0.0861137 0.966693 -0.642474 -0.698286 0.315632 0 -0.271731 0.962373 
-0.552631 -0.822854 0.132325 -0.387148 -0.803547 0.452138 -0.415095 -0.909766 0.00466827 
-0.690614 -0.698482 -0.187551 -0.543543 -0.836526 -0.069181 0.537836 0.790534 -0.292896 
-0.30979 -0.706405 0.636414 0.00731436 -0.901814 0.432062 -0.0446456 -0.873876 0.484095 
0.365194 -0.714999 0.596163 0.549074 -0.584661 0.597235 0.798957 -0.299808 0.521328 
-0.506001 -0.464102 0.72703 0.778896 -0.0111154 0.627055 -0.603001 -0.43342 0.669728 
-0.711594 -0.213367 0.669409 -0.528779 -0.515723 0.674109 0.327964 0.457742 0.826384 
-0.168339 0.0790176 0.982557 0.00683108 0.328061 0.944632 -0.154522 -0.311599 0.937566 
0.025147 -0.217643 0.975704 0.180825 0.0835868 0.979957 -0.402688 -0.62422 0.669471 
-0.394224 -0.619229 0.679075 -0.541225 -0.84061 0.0212248 -0.369222 -0.78315 0.500351 