# vtk DataFile Version 4.2
vtk output
ASCII
DATASET POLYDATA
POINTS 297 float
207.768 184.331 210.998 207.744 184.311 211.025 207.758 184.36 210.997 
207.766 184.315 211.053 207.805 184.435 210.994 207.848 184.599 211.006 
208.21 185.342 211.008 208.65 187.537 211.178 208.592 187.324 211.166 
208.601 187.593 211.213 208.696 187.738 211.227 210.937 197.035 210.662 
211.131 197.368 210.488 211.011 197.058 210.601 211.174 197.408 210.467 
211.123 197.266 210.512 211.138 197.512 210.515 211.146 197.475 210.485 
211.187 197.491 210.462 211.197 197.433 210.484 211.181 197.539 210.502 
211.208 197.515 210.485 208.058 184.949 211.05 208.027 185.162 211.059 
208.194 186.123 211.172 208.57 186.032 211.179 208.543 186.864 211.156 
208.693 187.922 211.279 208.826 188.14 211.374 210.002 194.17 211.431 
210.143 194.201 211.372 210.364 194.668 211.264 210.3 195.576 211.207 
210.505 195.935 211.024 210.783 196.587 210.797 210.89 196.598 210.747 
210.959 196.565 210.802 211.068 197.028 210.612 211.083 197.438 210.576 
211.17 197.524 210.577 211.198 197.509 210.546 207.757 184.353 211.313 
207.719 184.427 211.259 208.428 185.47 211.339 208.463 187.733 211.422 
208.756 188.659 211.538 209.093 189.274 211.636 209.22 190.35 211.707 
209.347 190.262 211.76 209.427 191.427 211.73 209.339 191.701 211.809 
209.538 190.737 211.897 209.711 192.155 211.71 209.931 193.205 211.572 
210.004 192.924 211.725 210.605 196.475 211.025 211.043 196.756 210.804 
210.64 196.656 211.203 211.052 197.388 210.743 211.125 197.47 210.665 
207.757 184.36 211.489 207.72 184.376 211.605 207.71 184.386 211.457 
208.964 187.157 211.786 208.858 189.459 211.703 210.318 193.859 211.783 
210.101 195.339 211.516 210.907 197.134 211.025 210.993 197.28 210.887 
211.068 197.342 210.82 207.798 184.492 211.917 207.673 184.913 211.84 
209.164 191.972 212.252 210.001 192.458 212.324 210.338 193.924 211.992 
210.631 196.579 211.5 211.001 197.006 211.077 210.72 196.777 211.339 
210.967 197.173 211.012 210.924 196.975 211.177 211.02 197.178 210.982 
207.744 184.541 212.015 207.824 184.667 212.226 207.948 184.779 212.326 
208.4 185.413 212.402 207.754 185.899 212.433 208.345 188.807 212.712 
209.313 192.766 212.49 209.695 194.075 212.418 210.603 196.418 211.666 
210.522 196.169 211.89 210.8 196.372 211.535 210.897 196.76 211.298 
207.738 184.675 212.188 207.915 184.946 212.608 208.071 185.255 212.911 
208.217 185.298 212.759 209.803 191.924 212.863 210.126 193.334 212.517 
210.13 195.168 212.256 210.59 195.347 211.937 210.474 195.984 212.017 
210.542 196.116 211.942 207.835 185.049 212.739 207.763 185.135 212.672 
207.929 185.233 212.965 207.746 185.422 212.756 208.03 185.394 213.111 
208.217 185.48 213.024 208.315 185.757 213.168 208.85 186.863 212.802 
207.962 187.119 213.098 208.284 188.379 213.275 209.311 190.081 213.416 
209.572 193.406 212.848 209.71 193.826 212.774 210.23 195.183 212.322 
210.112 194.588 212.539 207.835 185.232 212.913 207.887 185.406 213.093 
207.995 185.563 213.238 207.886 185.974 213.262 208.085 185.796 213.385 
208.192 186.077 213.492 208.428 186.063 213.229 207.987 186.773 213.488 
208.405 188.43 213.533 208.736 188.421 213.651 209.497 191.337 213.31 
209.339 192.082 213.252 209.282 191.496 213.413 209.474 192.057 213.278 
209.472 192.826 213.046 209.579 192.757 213.105 209.69 193.48 212.904 
209.938 193.395 212.844 209.904 194.026 212.744 207.912 185.662 213.236 
208.03 186.008 213.46 208.272 186.744 213.715 208.512 187.916 213.715 
208.416 188.029 213.69 208.631 188.718 213.644 209.091 190.126 213.562 
209.138 191.056 213.481 209.306 190.782 213.469 208.162 186.617 213.728 
208.167 187.125 213.713 208.32 187.479 213.742 208.167 186.57 243.142 
208.101 186.18 243.249 208.273 186.666 243.082 208.209 186.39 243.132 
208.307 186.49 243.113 208.277 187.008 243.102 208.426 186.92 243.089 
208.432 187.376 243.09 208.414 188.012 243.204 208.543 188.419 243.258 
208.035 185.428 243.484 207.95 185.091 243.676 208.166 185.667 243.38 
208.224 186.105 243.227 208.056 186.851 243.348 208.58 187.135 243.119 
208.847 189.308 243.436 208.799 190.463 243.755 209.112 191.335 243.883 
209.274 191.82 244.005 207.793 184.616 243.918 207.737 184.517 243.972 
207.749 184.656 243.913 207.782 184.526 244.018 207.833 184.792 243.832 
207.8 184.985 243.809 207.919 184.775 243.919 208.197 185.332 243.576 
208.552 185.812 243.56 208.968 188.291 243.525 209.304 192.47 244.278 
209.587 192.763 244.277 209.602 193.052 244.361 209.644 193.363 244.508 
209.751 193.489 244.526 207.72 184.456 244.047 207.695 184.452 244.12 
207.741 184.454 244.152 207.993 184.745 244.187 208.447 185.745 243.571 
208.56 185.754 243.827 208.652 186.314 243.513 207.856 186.841 244.21 
209.046 187.692 243.971 208.404 189.647 244.204 208.761 190.941 244.098 
209.031 191.975 244.397 209.885 193.726 244.643 209.877 193.958 244.757 
207.673 185.431 244.336 208.673 185.941 244.036 210.124 194.335 244.928 
210.396 194.895 245.214 210.795 196.243 245.65 210.619 196.214 245.645 
207.669 184.594 244.362 207.812 184.549 244.595 207.954 184.677 244.712 
209.178 188.243 244.658 210.852 196.823 245.907 210.96 197.046 245.987 
211.056 197.096 245.986 211.087 197.222 246.049 207.747 184.577 244.703 
207.835 184.66 244.899 207.963 184.765 245.001 207.665 185.128 244.837 
208.825 186.578 244.811 209.83 194.037 245.44 210.577 195.243 245.5 
211.079 196.932 245.974 211.105 196.954 246.019 211.164 197.257 246.101 
207.909 184.854 245.246 207.878 186.265 245.618 207.969 186.491 245.726 
207.947 186.664 245.647 207.928 186.754 245.53 209.041 187.973 245.207 
209.233 189.46 245.326 209.465 191.42 245.513 209.733 192.533 245.498 
210.18 194.004 245.537 210.549 196.014 245.873 210.73 196.542 245.993 
211.054 196.779 245.99 211.163 197.191 246.134 210.926 197.048 246.095 
211.014 197.216 246.123 211.087 197.34 246.185 211.168 197.331 246.132 
211.179 197.304 246.153 211.137 197.389 246.186 211.171 197.381 246.178 
207.817 184.876 245.305 207.868 184.959 245.428 207.96 185.072 245.51 
208.23 185.518 245.628 208.533 186.237 245.578 208.205 187.373 245.662 
208.749 188.91 245.623 209.146 190.705 245.537 209.009 189.454 245.593 
209.145 190.087 245.541 209.375 191.485 245.554 209.505 192.368 245.535 
209.751 193.079 245.55 209.885 193.195 245.54 210.066 193.886 245.598 
210.214 194.856 245.717 210.36 194.741 245.67 210.404 195.318 245.81 
210.637 195.593 245.799 210.737 196.073 245.945 211.123 197.074 246.13 
210.914 196.995 246.141 210.944 197.084 246.146 210.974 197.118 246.174 
211.016 197.217 246.173 211.083 197.317 246.21 211.175 197.354 246.197 
211.126 197.381 246.214 211.156 197.383 246.212 207.814 185.003 245.415 
207.882 185.149 245.556 208.007 185.352 245.703 208.128 185.468 245.732 
207.95 185.717 245.826 208.035 185.925 245.892 208.318 186.076 245.814 
208.12 186.174 245.921 208.484 186.453 245.722 208.483 186.869 245.787 
208.167 186.472 245.896 208.331 186.845 245.843 208.795 187.691 245.589 
208.865 188.277 245.606 209.301 191.578 245.545 209.413 191.923 245.554 
210.93 196.963 246.15 211.038 196.856 246.099 211.029 197.172 246.193 
211.111 197.312 246.217 208.105 185.61 245.817 208.221 186.356 245.911 
208.167 186.57 243.142 208.101 186.18 243.249 208.035 185.428 243.484 

POLYGONS 580 2320
3 0 1 2 
3 1 0 3 
3 4 0 2 
3 4 3 0 
3 5 4 2 
3 23 5 2 
3 7 8 9 
3 7 9 10 
3 17 12 13 
3 11 17 13 
3 12 14 15 
3 13 12 15 
3 17 11 38 
3 38 16 17 
3 14 12 18 
3 18 12 17 
3 18 19 14 
3 17 16 20 
3 18 17 20 
3 21 18 20 
3 19 18 21 
3 3 4 84 
3 2 1 23 
3 22 84 4 
3 5 22 4 
3 5 23 22 
3 6 22 23 
3 6 24 26 
3 6 23 24 
3 6 26 25 
3 24 9 26 
3 25 26 7 
3 8 26 9 
3 8 7 26 
3 27 10 9 
3 10 27 28 
3 10 28 7 
3 29 35 30 
3 35 36 31 
3 30 35 31 
3 32 33 29 
3 35 29 33 
3 55 34 33 
3 33 34 35 
3 11 34 58 
3 13 34 11 
3 35 34 13 
3 35 37 36 
3 35 13 37 
3 13 15 37 
3 37 15 14 
3 19 37 14 
3 38 11 58 
3 38 58 16 
3 20 16 39 
3 21 20 40 
3 20 39 40 
3 40 19 21 
3 1 41 42 
3 41 1 3 
3 42 71 1 
3 41 3 84 
3 1 71 23 
3 22 43 84 
3 6 43 22 
3 43 6 25 
3 25 7 63 
3 24 44 9 
3 28 63 7 
3 9 44 45 
3 27 9 45 
3 28 27 45 
3 28 45 46 
3 47 46 45 
3 46 63 28 
3 46 47 48 
3 48 63 46 
3 49 47 64 
3 50 49 64 
3 48 47 49 
3 51 63 48 
3 48 49 52 
3 52 49 50 
3 52 51 48 
3 32 29 50 
3 52 50 53 
3 53 50 29 
3 54 51 52 
3 53 54 52 
3 53 29 30 
3 53 31 54 
3 53 30 31 
3 66 33 32 
3 31 36 56 
3 55 33 57 
3 57 33 66 
3 56 36 19 
3 34 57 58 
3 55 57 34 
3 36 37 19 
3 77 58 57 
3 39 16 59 
3 16 58 59 
3 40 39 59 
3 60 61 62 
3 41 60 62 
3 41 62 42 
3 42 62 71 
3 84 60 41 
3 23 71 24 
3 111 24 71 
3 111 44 24 
3 44 86 72 
3 45 72 64 
3 45 44 72 
3 45 64 47 
3 63 51 97 
3 97 51 73 
3 65 73 54 
3 73 51 54 
3 54 31 65 
3 57 75 77 
3 67 58 77 
3 40 76 56 
3 69 76 40 
3 56 19 40 
3 58 67 68 
3 59 58 69 
3 58 68 69 
3 69 40 59 
3 70 61 60 
3 70 60 83 
3 60 84 83 
3 43 25 84 
3 25 63 110 
3 71 85 111 
3 64 72 50 
3 87 50 72 
3 87 32 50 
3 87 88 32 
3 32 88 66 
3 31 56 65 
3 66 99 57 
3 56 76 92 
3 67 89 78 
3 67 77 89 
3 78 79 80 
3 89 79 78 
3 80 79 76 
3 80 76 69 
3 67 78 68 
3 69 68 78 
3 80 69 78 
3 61 81 93 
3 62 61 93 
3 81 61 70 
3 82 81 70 
3 82 70 83 
3 62 93 71 
3 83 84 94 
3 104 85 71 
3 25 110 84 
3 111 112 44 
3 44 112 86 
3 86 126 72 
3 65 98 73 
3 98 65 74 
3 56 100 65 
3 91 100 56 
3 90 89 57 
3 90 57 99 
3 56 92 91 
3 57 89 75 
3 102 89 90 
3 102 79 89 
3 102 91 79 
3 91 92 79 
3 75 89 77 
3 76 79 92 
3 81 82 93 
3 93 82 94 
3 94 82 83 
3 93 104 71 
3 94 96 95 
3 84 96 94 
3 84 109 96 
3 104 106 85 
3 106 121 85 
3 109 84 110 
3 85 121 111 
3 63 97 110 
3 113 97 128 
3 126 114 72 
3 97 73 135 
3 87 72 114 
3 73 98 135 
3 87 114 88 
3 114 115 88 
3 74 65 100 
3 66 88 115 
3 115 99 66 
3 91 102 100 
3 90 99 101 
3 90 101 102 
3 93 103 104 
3 103 93 94 
3 105 103 94 
3 94 95 105 
3 105 95 107 
3 108 95 96 
3 108 120 95 
3 120 107 95 
3 96 109 108 
3 108 109 120 
3 121 125 111 
3 110 124 109 
3 126 144 114 
3 135 98 74 
3 100 135 74 
3 99 117 116 
3 99 115 117 
3 116 101 99 
3 117 102 116 
3 102 101 116 
3 117 100 102 
3 103 118 104 
3 103 105 118 
3 118 119 104 
3 104 119 106 
3 119 118 105 
3 119 105 120 
3 120 105 107 
3 106 119 121 
3 124 120 109 
3 124 123 120 
3 123 122 120 
3 121 146 125 
3 124 139 123 
3 124 110 139 
3 111 125 147 
3 147 112 111 
3 127 139 110 
3 112 126 86 
3 127 110 113 
3 110 97 113 
3 129 130 131 
3 144 130 129 
3 131 130 128 
3 129 132 114 
3 144 129 114 
3 131 133 129 
3 133 132 129 
3 128 133 131 
3 97 135 133 
3 128 97 133 
3 114 132 134 
3 134 132 133 
3 136 134 133 
3 133 135 136 
3 134 117 115 
3 114 134 115 
3 136 117 134 
3 100 117 136 
3 135 100 136 
3 119 120 137 
3 137 138 121 
3 119 137 121 
3 120 122 138 
3 137 120 138 
3 138 146 121 
3 138 122 123 
3 138 123 146 
3 139 146 123 
3 125 146 147 
3 139 127 140 
3 141 142 126 
3 141 126 147 
3 147 126 112 
3 142 141 140 
3 142 140 127 
3 142 144 126 
3 142 127 144 
3 127 143 144 
3 113 145 143 
3 127 113 143 
3 143 145 144 
3 113 128 145 
3 145 130 144 
3 128 130 145 
3 148 147 146 
3 139 140 148 
3 146 139 148 
3 147 148 141 
3 140 141 148 
3 149 151 152 
3 150 149 152 
3 152 151 153 
3 149 154 151 
3 155 153 151 
3 154 155 151 
3 157 154 149 
3 156 155 154 
3 157 156 154 
3 159 160 174 
3 149 159 174 
3 161 160 159 
3 295 296 294 
3 159 162 161 
3 159 150 162 
3 150 152 162 
3 162 152 153 
3 149 191 163 
3 164 153 155 
3 155 156 164 
3 156 157 164 
3 158 164 157 
3 166 158 157 
3 165 164 158 
3 165 158 166 
3 166 167 165 
3 168 167 166 
3 180 165 167 
3 180 167 168 
3 169 170 171 
3 170 169 172 
3 173 169 171 
3 174 173 171 
3 175 172 169 
3 173 175 169 
3 160 173 174 
3 160 176 175 
3 160 175 173 
3 160 161 176 
3 162 176 161 
3 176 162 153 
3 176 153 190 
3 157 149 163 
3 153 164 190 
3 192 164 178 
3 157 193 166 
3 178 164 165 
3 166 195 168 
3 165 180 178 
3 179 168 195 
3 180 168 181 
3 181 168 179 
3 181 179 182 
3 183 181 182 
3 180 181 183 
3 185 184 186 
3 170 184 185 
3 170 185 171 
3 184 170 172 
3 184 172 186 
3 172 175 186 
3 186 175 187 
3 174 198 149 
3 176 188 189 
3 189 188 177 
3 149 198 191 
3 190 188 176 
3 177 188 190 
3 199 177 190 
3 163 191 157 
3 199 190 164 
3 199 164 192 
3 192 178 228 
3 194 166 193 
3 166 194 195 
3 196 178 180 
3 200 178 196 
3 183 182 197 
3 196 180 183 
3 197 196 183 
3 171 185 174 
3 186 187 205 
3 187 175 176 
3 176 199 187 
3 189 199 176 
3 177 199 189 
3 191 193 157 
3 207 192 228 
3 193 217 194 
3 194 217 195 
3 218 178 200 
3 179 195 182 
3 197 200 196 
3 203 197 182 
3 201 200 202 
3 202 200 197 
3 203 210 197 
3 202 197 210 
3 185 212 204 
3 212 185 186 
3 205 212 186 
3 185 204 174 
3 204 215 174 
3 206 205 187 
3 174 215 198 
3 199 214 187 
3 178 218 231 
3 218 200 201 
3 202 219 201 
3 203 209 210 
3 208 209 203 
3 221 219 202 
3 210 221 202 
3 209 211 210 
3 213 212 205 
3 205 206 213 
3 213 206 214 
3 204 212 215 
3 187 214 206 
3 198 215 191 
3 216 214 199 
3 216 199 192 
3 192 207 227 
3 178 231 228 
3 218 261 231 
3 234 218 201 
3 195 203 182 
3 234 201 219 
3 234 219 220 
3 208 203 195 
3 221 220 219 
3 241 211 209 
3 221 210 211 
3 243 212 213 
3 243 213 222 
3 222 213 214 
3 275 214 246 
3 215 276 191 
3 214 247 246 
3 247 214 216 
3 223 224 191 
3 223 191 276 
3 216 192 227 
3 224 225 226 
3 224 226 191 
3 191 226 193 
3 227 207 285 
3 193 248 217 
3 207 228 285 
3 230 229 228 
3 230 228 256 
3 228 231 256 
3 261 218 234 
3 232 233 195 
3 235 234 220 
3 195 233 208 
3 233 265 208 
3 220 221 235 
3 208 265 236 
3 209 208 236 
3 209 236 237 
3 237 241 209 
3 238 241 237 
3 221 211 239 
3 221 239 240 
3 221 240 235 
3 239 211 241 
3 239 241 242 
3 240 239 242 
3 244 243 222 
3 212 243 215 
3 243 272 215 
3 214 245 222 
3 245 244 222 
3 215 272 276 
3 214 275 245 
3 276 224 223 
3 279 224 276 
3 280 247 216 
3 280 216 227 
3 282 224 279 
3 282 225 224 
3 282 248 225 
3 226 225 193 
3 248 193 225 
3 285 228 251 
3 249 250 248 
3 251 252 249 
3 252 250 249 
3 252 251 228 
3 250 286 248 
3 248 286 217 
3 229 253 250 
3 229 250 252 
3 250 253 286 
3 228 229 252 
3 217 286 287 
3 254 255 217 
3 254 217 287 
3 230 256 255 
3 230 255 253 
3 230 253 229 
3 254 253 255 
3 255 258 217 
3 256 257 255 
3 257 258 255 
3 256 231 257 
3 231 261 259 
3 231 259 257 
3 258 232 217 
3 257 260 258 
3 260 232 258 
3 259 262 257 
3 262 260 257 
3 259 261 262 
3 217 232 195 
3 260 233 232 
3 289 262 261 
3 289 261 234 
3 289 234 235 
3 263 289 235 
3 264 265 233 
3 264 266 265 
3 263 235 269 
3 265 266 267 
3 265 267 236 
3 236 267 237 
3 267 238 237 
3 268 238 267 
3 235 240 269 
3 238 268 270 
3 241 238 270 
3 242 241 271 
3 241 270 271 
3 269 240 242 
3 271 269 242 
3 243 244 272 
3 244 245 273 
3 272 244 273 
3 273 274 276 
3 273 276 272 
3 245 274 273 
3 245 275 274 
3 292 275 246 
3 246 247 292 
3 292 247 278 
3 276 277 279 
3 247 280 278 
3 280 227 281 
3 248 282 283 
3 281 284 283 
3 227 285 284 
3 281 227 284 
3 283 251 249 
3 248 283 249 
3 284 285 283 
3 285 251 283 
3 286 253 287 
3 253 254 287 
3 260 288 233 
3 260 262 291 
3 288 260 291 
3 291 262 289 
3 233 288 264 
3 266 264 288 
3 266 288 290 
3 291 290 288 
3 263 269 291 
3 289 263 291 
3 266 290 267 
3 268 267 290 
3 268 290 291 
3 268 291 270 
3 271 270 291 
3 269 271 291 
3 274 277 276 
3 274 275 292 
3 277 274 292 
3 292 278 277 
3 277 293 279 
3 278 280 293 
3 278 293 277 
3 280 281 293 
3 279 293 282 
3 283 282 293 
3 281 283 293 

POINT_DATA 297
SCALARS scalars float
LOOKUP_TABLE default
1 1 1 1 1 1 1 1 1 
1 1 1 1 1 1 1 1 1 
1 1 1 1 1 1 1 1 1 
1 1 1 1 1 1 1 1 1 
1 1 1 1 1 1 1 1 1 
1 1 1 1 1 1 1 1 1 
1 1 1 1 1 1 1 1 1 
1 1 1 1 1 1 1 1 1 
1 1 1 1 1 1 1 1 1 
1 1 1 1 1 1 1 1 1 
1 1 1 1 1 1 1 1 1 
1 1 1 1 1 1 1 1 1 
1 1 1 1 1 1 1 1 1 
1 1 1 1 1 1 1 1 1 
1 1 1 1 1 1 1 1 1 
1 1 1 1 1 1 1 1 1 
1 1 1 1 1 1 1 1 1 
1 1 1 1 1 1 1 1 1 
1 1 1 1 1 1 1 1 1 
1 1 1 1 1 1 1 1 1 
1 1 1 1 1 1 1 1 1 
1 1 1 1 1 1 1 1 1 
1 1 1 1 1 1 1 1 1 
1 1 1 1 1 1 1 1 1 
1 1 1 1 1 1 1 1 1 
1 1 1 1 1 1 1 1 1 
1 1 1 1 1 1 1 1 1 
1 1 1 1 1 1 1 1 1 
1 1 1 1 1 1 1 1 1 
1 1 1 1 1 1 1 1 1 
1 1 1 1 1 1 1 1 1 
1 1 1 1 1 1 1 1 1 
1 1 1 1 1 1 1 1 1 

NORMALS Normals float
0.275629 -0.556616 -0.783714 -0.884351 -0.3974 -0.244943 -0.619475 0.114388 -0.776638 
0.699709 -0.713154 -0.0426458 0.603283 -0.227918 -0.764266 -0.196704 0.142946 -0.969987 
0.219414 -0.0771849 -0.972574 0.398977 0.0463111 -0.915791 -0.434227 0.105307 -0.894627 
-0.543295 0.230452 -0.807293 0.13159 0.225095 -0.96541 -0.86719 0.177175 -0.465392 
-0.4978 -0.0459722 -0.866073 -0.434395 -0.150397 -0.888078 0.317848 -0.280499 -0.9057 
-0.0414616 -0.321795 -0.945901 -0.72516 0.674218 -0.139902 -0.697063 0.223179 -0.681392 
0.0195795 0.206121 -0.978331 0.891849 -0.261275 -0.369242 -0.0351152 0.91996 -0.390436 
0.863758 0.364724 -0.347705 0.567742 -0.286425 -0.771771 -0.679506 0.226312 -0.697893 
-0.724831 0.208221 -0.656706 0.869389 -0.208166 -0.448141 -0.113619 0.0671981 -0.991249 
-0.119464 0.307512 -0.944015 0.516553 0.122304 -0.847476 -0.326926 -0.0996574 -0.939781 
-0.167433 -0.183189 -0.968715 0.558156 -0.337384 -0.758046 -0.794732 0.0852423 -0.600945 
-0.806954 0.124596 -0.577323 -0.773387 0.14487 -0.617159 -0.0791766 -0.256398 -0.963323 
0.680102 -0.39601 -0.616958 0.439483 -0.420057 -0.793981 -0.894327 0.358548 -0.267624 
0.0968172 0.925211 0.366893 0.895873 0.261782 0.359001 -0.156439 -0.985442 0.0665704 
-0.971072 -0.229228 -0.0668861 0.894567 -0.392012 -0.214653 -0.867308 0.219843 -0.446594 
-0.412566 0.263102 -0.872105 0.435223 0.0314264 -0.899774 0.0660219 0.0598234 -0.996023 
0.527951 -0.0740264 -0.846042 -0.113461 0.047184 -0.992422 -0.496891 0.0760572 -0.864473 
0.893163 -0.196886 -0.404346 0.269191 -0.108265 -0.956982 0.0869047 -0.192867 -0.977369 
0.784198 -0.268971 -0.559185 -0.900855 0.293786 -0.319608 0.975472 -0.21983 0.0113548 
-0.925273 0.375043 -0.0566868 -0.80892 0.582105 0.0824748 -0.0217106 0.829366 0.558284 
0.397075 -0.912307 0.100135 -0.576712 -0.78879 0.212636 -0.883229 -0.46889 -0.00701271 
0.914045 -0.1433 -0.379456 -0.611685 0.174804 -0.771547 0.956233 -0.266245 -0.121376 
-0.942679 0.307536 -0.129533 -0.582677 0.696392 0.418958 -0.386907 0.778977 0.493454 
0.38551 0.632309 0.671987 0.328937 -0.876627 0.351178 -0.974271 0.132811 -0.182093 
-0.946018 0.231483 -0.226859 0.969631 -0.22085 0.105076 0.968251 -0.139867 0.207189 
-0.838837 0.483391 0.25037 0.874933 0.111457 0.471243 -0.737587 0.611068 0.287334 
0.0102005 0.699513 0.714547 0.441854 0.467335 0.765743 0.624872 0.410154 0.66431 
-0.390586 -0.798765 0.457622 0.025466 -0.834711 0.550098 0.638616 -0.69668 0.326811 
0.870007 -0.483416 0.0969375 -0.984387 0.149215 -0.0933629 -0.966128 0.256132 0.0315232 
-0.975097 0.219284 -0.0331879 -0.962637 0.270401 0.0146198 -0.40427 0.670682 0.621894 
-0.678449 0.568963 0.464745 0.82294 0.11669 0.556015 0.810105 0.138847 0.569606 
-0.8034 -0.461859 0.375812 0.310007 -0.791597 0.526563 0.609302 -0.605852 0.511561 
0.740974 -0.58964 0.321375 0.939681 -0.128929 0.316822 0.941129 -0.159218 0.298204 
-0.767397 0.43756 0.468661 0.903871 -0.0643638 0.422935 -0.325729 0.494014 0.806133 
0.412644 0.380164 0.827768 -0.465745 -0.660005 0.58947 -0.958448 -0.154075 0.240081 
-0.0514223 -0.70763 0.704709 -0.976218 -0.0506375 0.210794 0.517981 -0.548871 0.656076 
0.609367 -0.574316 0.546656 0.769622 -0.437316 0.465228 0.929216 -0.264504 0.25806 
-0.965733 0.250886 -0.0664493 -0.958527 0.246327 0.143349 0.773769 -0.115212 0.622902 
-0.884302 0.255859 0.390571 -0.662756 0.426396 0.615582 -0.0374821 0.3511 0.935588 
0.00751402 0.3421 0.939634 -0.691546 -0.450379 0.564733 -0.748471 -0.319558 0.581097 
0.257225 -0.534984 0.804753 -0.926526 -0.0249726 0.3754 0.248076 -0.507814 0.824975 
0.512002 -0.430407 0.743373 0.72576 -0.355269 0.589115 -0.906719 0.0850448 0.413072 
-0.853449 0.278648 0.440432 0.424763 -0.0599415 0.903318 0.697224 0.0164595 0.716664 
-0.567936 0.298591 0.767002 0.123763 0.167264 0.978113 0.25738 0.17612 0.950125 
-0.601289 0.320105 0.732109 0.266237 0.187733 0.945449 -0.43244 0.362704 0.825495 
0.788512 -0.0123567 0.614895 0.27892 0.235955 0.930875 -0.698822 -0.257515 0.667333 
-0.443708 -0.306482 0.842135 0.564941 -0.182938 0.804596 0.118519 0.0305646 0.992481 
-0.468934 0.183628 0.863934 -0.25925 0.144098 0.955 0.282721 0.010828 0.959141 
-0.389123 0.186567 0.902095 0.442104 0.0277261 0.896535 -0.348954 -0.146523 0.925614 
-0.775084 0.17304 0.607702 -0.110366 0.0470426 0.992777 -0.796905 0.00864232 -0.604043 
-0.439039 -0.227743 -0.869125 -0.168982 -0.0496844 -0.984366 -0.276544 -0.200145 -0.939928 
0.398399 -0.256329 -0.880666 -0.412107 0.0922264 -0.906456 0.143419 -0.0445119 -0.988661 
0.0375882 0.0851937 -0.995655 -0.63065 0.222801 -0.743398 -0.0957685 0.192811 -0.976551 
-0.296858 -0.335754 -0.893949 0.0477069 -0.50385 -0.862473 0.258435 -0.437384 -0.86134 
0.105671 -0.341069 -0.93408 -0.925323 0.071854 -0.372309 0.626605 -0.0335366 -0.778615 
0.260257 0.150607 -0.953721 -0.68945 0.306776 -0.656161 0.00182043 0.214048 -0.976821 
-0.49511 0.33713 -0.800756 0.326669 -0.54387 -0.772977 -0.294226 -0.576871 -0.762005 
-0.676646 -0.198969 -0.708916 0.717688 -0.625714 -0.305622 -0.0491711 -0.416725 -0.907702 
-0.869325 -0.0718388 -0.488992 0.680544 -0.574219 -0.455119 0.642426 -0.512543 -0.569727 
0.731642 -0.490112 -0.473803 0.899275 -0.0731231 -0.431227 -0.696636 0.373631 -0.612452 
0.55418 0.101101 -0.826234 -0.2483 0.368901 -0.895689 -0.534045 0.454289 -0.713035 
-0.0285925 0.393144 -0.919032 0.155567 -0.924121 -0.348997 -0.887425 -0.447967 -0.108639 
0.486613 -0.873616 -0.00143319 0.826021 -0.554292 -0.102223 0.478653 -0.48769 -0.730103 
0.751889 -0.65275 -0.0926348 0.701194 -0.201978 -0.683763 -0.994058 0.0899642 -0.0612769 
0.977614 -0.139845 -0.157206 -0.966215 0.257372 0.013733 -0.960953 0.258927 -0.0976063 
-0.923173 0.345391 -0.16869 0.418027 0.242577 -0.875448 0.00548358 0.38838 -0.921483 
-0.985273 0.0431743 -0.16545 0.932903 -0.357779 -0.041068 0.651104 0.0645288 -0.75624 
0.881099 -0.155925 -0.446488 0.499745 0.166444 -0.85003 -0.46319 0.47725 -0.746784 
-0.993387 -0.113109 0.0197396 0.440459 -0.881644 0.169408 0.708082 -0.693632 0.13227 
0.990741 -0.0760012 0.112502 -0.908715 0.391565 -0.144613 -0.579315 0.547245 -0.604083 
0.0933479 0.375178 -0.922241 -0.0169707 0.531195 -0.84708 -0.517263 -0.795959 0.314466 
0.248993 -0.894546 0.371202 0.796548 -0.55875 0.230886 -0.993199 -0.0350283 0.111038 
0.954371 -0.245312 0.170288 -0.783703 0.18948 0.59153 0.960118 -0.268696 -0.0773036 
0.822239 -0.0481388 -0.567103 0.949892 -0.166568 -0.264501 0.77644 0.107713 -0.620918 
0.355026 -0.808945 0.468577 -0.971402 0.0899236 0.219752 -0.878536 0.111584 0.464461 
-0.844593 0.215625 0.49007 -0.98547 0.0774918 0.151141 0.933967 -0.150638 0.324057 
0.829855 -0.112915 0.546435 0.434934 -0.100242 0.894866 0.315072 -0.095957 0.944204 
0.762832 -0.264522 0.590013 -0.819187 0.178065 0.545185 -0.891101 0.227892 0.392434 
0.957214 -0.289349 -0.00430127 0.964388 -0.249725 0.0871358 -0.906991 0.416803 -0.0603587 
-0.787047 0.555457 -0.268373 -0.805669 0.592034 0.0198643 0.519966 0.468443 -0.71428 
0.991323 0.0315645 -0.127603 -0.341392 0.842031 -0.417655 0.775724 0.606103 -0.17576 
-0.498764 -0.711498 0.494979 -0.13802 -0.692323 0.708265 0.392102 -0.644511 0.6564 
0.808855 -0.38617 0.443427 0.876516 -0.284497 0.388306 -0.470252 0.189631 0.861918 
-0.14808 0.106364 0.983239 0.121919 -0.0155963 0.992417 0.396747 -0.002016 0.917926 
0.345543 -0.0316234 0.93787 0.153254 -0.0371506 0.987488 -0.317246 0.0974672 0.943321 
-0.0563007 -0.0262036 0.99807 0.245926 -0.125284 0.961158 0.344649 -0.21037 0.914856 
-0.439839 0.0109612 0.89801 0.671656 -0.308286 0.673675 -0.310127 -0.0779341 0.947495 
0.762623 -0.345891 0.546594 0.447719 -0.304877 0.840594 0.748931 -0.341705 0.56775 
-0.738325 0.133242 0.661152 -0.916646 0.321611 0.237332 -0.612917 0.160782 0.773616 
-0.839974 0.405104 0.361018 -0.612987 0.2617 0.745493 0.82912 -0.079899 0.553332 
-0.445108 0.605238 0.659974 0.417342 0.588265 0.692655 -0.81964 -0.279965 0.49981 
-0.401216 -0.440185 0.803283 -0.0276243 -0.445307 0.894952 0.601984 -0.504739 0.618752 
-0.835611 -0.0389238 0.547941 0.02256 -0.197094 0.980125 0.600008 -0.203894 0.773574 
-0.434157 0.0880691 0.896522 0.7993 -0.126809 0.5874 0.628947 -0.0631639 0.774878 
-0.38756 0.195666 0.90084 0.123484 0.0969336 0.987601 0.717619 -0.0946063 0.68998 
0.80626 -0.0741765 0.586892 -0.133537 0.0407352 0.990206 -0.3133 0.0897135 0.945407 
-0.301224 -0.105363 0.947714 0.728465 -0.373299 0.574444 -0.295512 -0.00716906 0.955312 
0.187928 -0.187015 0.964214 0.473206 -0.329521 0.817002 0.369287 -0.0596183 0.927401 
-0.42161 0.304405 0.854156 -0.42161 0.304405 0.854156 -0.42161 0.304405 0.854156 

