# vtk DataFile Version 4.2
vtk output
ASCII
DATASET POLYDATA
POINTS 2050 float
429 159.009 180.017 429 159.009 180.017 429 159.009 180.017 
429 159.009 180.017 429 159.009 180.017 429 158.009 181.017 
429 158.009 181.017 429 158.009 181.017 429 158.009 181.017 
426.21 158.069 181.884 426.163 158.097 181.874 426.32 158.004 181.907 
426.387 157.964 181.922 426.451 157.926 181.935 426.665 157.799 181.979 
428 159.009 181.017 428 159.009 181.017 428 159.009 181.017 
429 158.009 181.017 429 159.009 180.017 428 159.009 181.017 
423 160.009 181.017 423 160.009 181.017 423 160.009 181.017 
426.163 158.097 181.874 423 160.009 181.017 426.32 158.004 181.907 
426.524 157.883 181.95 428 159.009 181.017 423 160.009 181.017 
428.385 156.868 182.165 428.12 156.99 182.174 428.301 156.907 182.166 
427.516 157.267 182.193 427.853 157.107 182.191 428.127 156.99 182.167 
426.819 157.705 182.014 426.956 157.622 182.046 426.814 157.708 182.015 
427.145 157.505 182.091 427.565 157.278 182.135 429 158.009 181.017 
427.904 157.1 182.163 426.092 158.139 181.859 426.095 158.137 181.859 
426.062 158.157 181.852 426.202 158.074 181.882 426.367 157.975 181.918 
426.208 158.07 181.884 426.649 157.807 181.978 427.051 157.57 182.056 
426.711 157.772 181.989 428 159.009 181.017 423 160.009 181.017 
426.083 158.145 181.857 426.139 158.111 181.869 426.551 157.866 181.956 
431 154.009 183.017 431 154.009 183.017 431 154.009 183.017 
431 154.009 183.017 428.301 156.906 182.169 428.38 156.87 182.166 
431 154.009 183.017 428.197 156.954 182.172 427.717 157.115 182.286 
427.671 157.125 182.306 427.668 157.124 182.309 427.674 157.129 182.297 
427.732 157.138 182.236 427.944 157.071 182.18 427.719 157.12 182.276 
419.793 158.001 183.159 419.793 158.001 183.159 419.788 158.001 183.159 
419.807 158.001 183.161 419.807 158.001 183.161 419.832 158.001 183.163 
419.832 158.001 183.163 419.863 158.002 183.167 419.863 158.002 183.167 
419.891 158.002 183.169 419.894 158.002 183.17 419.909 158.003 183.171 
419.909 158.003 183.171 419.917 158.003 183.172 424.504 158.004 183.017 
424.504 158.004 183.018 424.504 158.004 183.017 424.505 158.004 183.017 
424.505 158.004 183.017 427.662 157.131 182.303 424.505 158.004 183.018 
427.641 157.156 182.277 419.793 158.001 183.159 419.807 158.001 183.161 
419.832 158.001 183.163 419.863 158.002 183.167 419.894 158.002 183.17 
419.914 158.003 183.172 426.077 158.148 181.855 426.122 158.121 181.865 
424.504 158.005 183.017 424.505 158.005 183.018 414.808 146.998 185.583 
416.067 146.116 185.794 415.365 147.405 185.622 413.812 148.341 185.523 
413.752 148.459 185.506 413.745 148.498 185.489 413.759 148.504 185.503 
413.751 148.516 185.488 429.504 153.004 184.017 429.504 153.004 184.018 
429.504 153.004 184.017 429.505 153.004 184.017 429.505 153.004 184.017 
429.505 153.004 184.018 426.811 154.089 184.424 426.81 154.088 184.425 
426.811 154.089 184.425 426.812 154.089 184.424 426.811 154.089 184.424 
426.812 154.089 184.424 426.812 154.089 184.424 429.504 153.005 184.017 
426.812 154.089 184.424 429.505 153.005 184.018 431 154.009 183.017 
426.811 154.089 184.424 426.811 154.089 184.424 426.812 154.089 184.424 
426.812 154.089 184.424 426.812 154.089 184.424 419.111 156.311 184.518 
419.109 156.311 184.518 419.104 156.311 184.517 419.132 156.313 184.521 
419.13 156.313 184.521 419.172 156.317 184.527 419.164 156.316 184.526 
419.214 156.32 184.533 419.203 156.319 184.531 419.232 156.321 184.535 
423.848 156.406 184.014 423.848 156.406 184.014 423.847 156.406 184.014 
423.848 156.405 184.013 423.848 156.405 184.013 423.849 156.405 184.013 
423.849 156.405 184.013 426.812 154.089 184.424 423.849 156.405 184.013 
426.812 154.089 184.424 426.812 154.089 184.424 427.692 157.122 182.293 
427.709 157.117 182.289 419.112 156.312 184.518 419.134 156.313 184.522 
419.17 156.316 184.527 419.194 156.318 184.53 419.204 156.319 184.531 
419.238 156.322 184.536 419.229 156.321 184.535 419.248 156.323 184.537 
423.847 156.406 184.014 423.847 156.406 184.014 423.848 156.406 184.013 
423.848 156.405 184.013 423.849 156.405 184.013 419.793 158.001 183.159 
419.807 158.001 183.161 419.832 158.001 183.163 419.214 156.32 184.533 
419.236 156.322 184.536 419.863 158.002 183.167 419.892 158.002 183.169 
419.91 158.003 183.171 419.915 158.003 183.172 419.919 158.003 183.172 
423.847 156.406 184.014 423.848 156.406 184.014 424.504 158.004 183.018 
424.505 158.004 183.018 419.911 158.003 183.171 416.286 143.432 186.387 
415.737 144.781 186.064 416.52 144.358 186.282 416.304 145.121 186.004 
416.548 145.053 186.105 416.508 145.281 186.053 414.363 147.31 185.665 
414.565 146.964 185.762 413.863 147.987 185.644 414.276 147.601 185.578 
413.836 148.181 185.584 413.787 148.155 185.647 413.786 148.288 185.615 
413.796 148.41 185.556 414.078 148.307 185.51 414.19 148.533 185.547 
413.881 148.5 185.529 414.233 149.382 185.64 414.236 149.302 185.638 
423.351 152.088 186.137 426.81 154.088 184.425 426.81 154.088 184.425 
426.81 154.088 184.425 426.811 154.088 184.425 426.81 154.088 184.425 
426.81 154.088 184.425 429.504 153.004 184.018 429.505 153.004 184.018 
414.237 149.392 185.641 417.475 154.002 185.873 417.466 154.002 185.872 
417.468 154.002 185.873 417.486 154.002 185.874 423.484 152.361 186.021 
426.81 154.088 184.425 426.811 154.089 184.424 426.812 154.089 184.424 
417.482 154.002 185.874 423.542 152.555 185.936 423.559 152.624 185.905 
423.562 152.631 185.902 426.811 154.088 184.425 426.811 154.089 184.424 
426.811 154.089 184.425 426.812 154.089 184.424 426.812 154.089 184.424 
419.11 156.311 184.518 419.124 156.312 184.52 419.142 156.314 184.523 
419.163 156.316 184.526 419.2 156.319 184.531 419.256 156.323 184.539 
419.239 156.322 184.536 419.277 156.325 184.542 419.27 156.325 184.541 
419.284 156.326 184.543 419.285 156.326 184.543 423.848 156.406 184.014 
419.288 156.326 184.543 423.848 156.405 184.014 423.849 156.405 184.013 
419.149 156.315 184.524 419.183 156.318 184.528 419.205 156.319 184.531 
419.209 156.32 184.532 419.265 156.324 184.54 419.274 156.325 184.541 
419.283 156.325 184.542 423.848 156.406 184.014 423.848 156.406 184.014 
419.226 156.321 184.534 419.252 156.323 184.538 419.918 158.003 183.172 
415.425 138.083 187.343 415.355 137.868 187.372 415.357 137.866 187.376 
415.542 138.499 187.285 415.468 138.223 187.333 415.61 138.9 187.219 
415.613 138.708 187.267 415.727 139.102 187.22 415.732 139.492 187.13 
415.876 140.255 187 415.832 140.065 187.043 416.052 140.677 186.959 
415.919 140.675 186.934 415.967 141.341 186.829 416.007 141.248 186.824 
416.218 141.428 186.856 416.028 142.356 186.61 415.978 142.516 186.629 
415.919 143.742 186.324 415.883 143.765 186.434 416.517 143.62 186.499 
415.59 144.909 186.123 415.664 144.829 186.251 416.577 144.886 186.176 
414.66 146.825 185.858 416.659 145.721 186.189 414.053 147.665 185.763 
413.926 147.831 185.701 414.366 147.271 185.809 416.833 146.674 186.212 
413.819 148.019 185.692 416.129 147.296 185.989 416.804 147.337 186.201 
413.782 148.138 185.691 415.135 147.952 185.703 415.59 147.591 185.852 
413.798 148.242 185.67 413.894 148.493 185.592 414.546 148.571 185.602 
414.768 148.352 185.642 415.184 147.942 185.798 414.059 148.624 185.594 
414.236 148.79 185.594 414.197 148.892 185.634 414.555 148.668 185.643 
414.69 148.503 185.681 423.507 151.568 186.371 423.993 151.595 186.362 
424.135 151.615 186.353 424.321 151.574 186.37 414.255 149.101 185.628 
414.246 149.161 185.646 414.298 149.16 185.639 414.421 148.891 185.655 
414.557 148.675 185.68 423.025 151.681 186.297 423.848 151.69 186.321 
414.253 149.343 185.641 423.572 151.852 186.248 423.497 152.119 186.129 
426.81 154.088 184.425 426.81 154.088 184.425 414.244 149.37 185.643 
417.482 154.002 185.874 417.469 154.003 185.873 417.526 154.002 185.877 
417.52 154.002 185.877 417.592 154.002 185.882 417.592 154.002 185.882 
417.669 154.002 185.888 417.669 154.002 185.888 417.741 154.002 185.894 
417.741 154.002 185.894 417.796 154.002 185.898 417.796 154.002 185.898 
417.826 154.002 185.9 417.826 154.002 185.9 417.836 154.002 185.901 
423.507 152.346 186.029 426.81 154.088 184.425 426.81 154.088 184.425 
417.476 154.002 185.873 417.52 154.002 185.877 417.592 154.002 185.882 
417.669 154.002 185.888 417.741 154.002 185.894 417.796 154.002 185.898 
417.825 154.002 185.9 423.539 152.507 185.957 423.555 152.594 185.918 
419.164 156.316 184.526 419.197 156.319 184.53 419.234 156.322 184.536 
419.261 156.324 184.539 419.28 156.325 184.542 419.232 156.322 184.535 
419.263 156.324 184.54 414.816 136.305 187.598 414.805 136.274 187.603 
414.804 136.271 187.603 414.85 136.398 187.585 414.834 136.353 187.592 
414.879 136.481 187.574 414.826 136.334 187.594 414.882 136.497 187.571 
414.861 136.432 187.58 414.942 136.667 187.546 415.277 137.636 187.408 
415.284 137.661 187.411 415.419 138.193 187.326 415.456 138.204 187.347 
415.565 138.772 187.246 415.618 138.72 187.278 415.811 139.414 187.198 
415.718 139.44 187.157 415.954 139.943 187.123 416.006 140.183 187.076 
416.085 140.513 187.053 415.896 140.548 186.97 415.914 140.651 186.977 
416.315 141.794 186.829 416.33 142.056 186.757 416.389 142.33 186.746 
416.523 143.433 186.592 416.584 144.412 186.517 416.662 144.614 186.453 
416.835 145.962 186.346 413.896 147.89 185.742 413.997 147.784 185.787 
414.184 147.583 185.827 415.151 147.17 186.051 417.124 146.852 186.34 
413.826 148.05 185.73 416.526 147.2 186.23 415.95 147.402 186.046 
417.661 147.89 186.379 417.412 147.67 186.362 417.495 147.571 186.358 
413.819 148.165 185.715 415.358 147.74 185.904 418.286 148.422 186.475 
418.234 148.337 186.478 418.289 148.398 186.475 413.928 148.246 185.724 
414.944 148.103 185.814 418.897 148.963 186.56 419.085 149.112 186.563 
419.026 149.06 186.554 422.349 151.17 186.493 414.456 148.724 185.701 
419.359 149.407 186.617 419.755 149.644 186.598 420.468 150.14 186.602 
[...]
POINT_DATA 2050
SCALARS scalars float
LOOKUP_TABLE default
1 1 1 1 1 1 1 1 1 
1 1 1 1 1 1 1 1 1 
1 1 1 1 1 1 1 1 1 
1 1 1 1 1 1 1 1 1 
1 1 1 1 1 1 1 1 1 
1 1 1 1 1 1 1 1 1 
1 1 1 1 1 1 1 1 1 
1 1 1 1 1 1 1 1 1 
1 1 1 1 1 1 1 1 1 
1 1 1 1 1 1 1 1 1 
1 1 1 1 1 1 1 1 1 
1 1 1 1 1 1 1 1 1 
1 1 1 1 1 1 1 1 1 
1 1 1 1 1 1 1 1 1 
1 1 1 1 1 1 1 1 1 
1 1 1 1 1 1 1 1 1 
1 1 1 1 1 1 1 1 1 
1 1 1 1 1 1 1 1 1 
1 1 1 1 1 1 1 1 1 
1 1 1 1 1 1 1 1 1 
1 1 1 1 1 1 1 1 1 
1 1 1 1 1 1 1 1 1 
1 1 1 1 1 1 1 1 1 
1 1 1 1 1 1 1 1 1 
1 1 1 1 1 1 1 1 1 
1 1 1 1 1 1 1 1 1 
1 1 1 1 1 1 1 1 1 
1 1 1 1 1 1 1 1 1 
1 1 1 1 1 1 1 1 1 
1 1 1 1 1 1 1 1 1 
1 1 1 1 1 1 1 1 1 
1 1 1 1 1 1 1 1 1 
1 1 1 1 1 1 1 1 1 
1 1 1 1 1 1 1 1 1 
1 1 1 1 1 1 1 1 1 
1 1 1 1 1 1 1 1 1 
1 1 1 1 1 1 1 1 1 
1 1 1 1 1 1 1 1 1 
1 1 1 1 1 1 1 1 1 
1 1 1 1 1 1 1 1 1 
1 1 1 1 1 1 1 1 1 
1 1 1 1 1 1 1 1 1 
1 1 1 1 1 1 1 1 1 
1 1 1 1 1 1 1 1 1 
1 1 1 1 1 1 1 1 1 
1 1 1 1 1 1 1 1 1 
1 1 1 1 1 1 1 1 1 
1 1 1 1 1 1 1 1 1 
1 1 1 1 1 1 1 1 1 
1 1 1 1 1 1 1 1 1 
1 1 1 1 1 1 1 1 1 
1 1 1 1 1 1 1 1 1 
1 1 1 1 1 1 1 1 1 
1 1 1 1 1 1 1 1 1 
1 1 1 1 1 1 1 1 1 
1 1 1 1 1 1 1 1 1 
1 1 1 1 1 1 1 1 1 
1 1 1 1 1 1 1 1 1 
1 1 1 1 1 1 1 1 1 
1 1 1 1 1 1 1 1 1 
1 1 1 1 1 1 1 1 1 
1 1 1 1 1 1 1 1 1 
1 1 1 1 1 1 1 1 1 
1 1 1 1 1 1 1 1 1 
1 1 1 1 1 1 1 1 1 
1 1 1 1 1 1 1 1 1 
1 1 1 1 1 1 1 1 1 
1 1 1 1 1 1 1 1 1 
1 1 1 1 1 1 1 1 1 
1 1 1 1 1 1 1 1 1 
1 1 1 1 1 1 1 1 1 
1 1 1 1 1 1 1 1 1 
1 1 1 1 1 1 1 1 1 
1 1 1 1 1 1 1 1 1 
1 1 1 1 1 1 1 1 1 
1 1 1 1 1 1 1 1 1 
1 1 1 1 1 1 1 1 1 
1 1 1 1 1 1 1 1 1 
1 1 1 1 1 1 1 1 1 
1 1 1 1 1 1 1 1 1 
1 1 1 1 1 1 1 1 1 
1 1 1 1 1 1 1 1 1 
1 1 1 1 1 1 1 1 1 
1 1 1 1 1 1 1 1 1 
1 1 1 1 1 1 1 1 1 
1 1 1 1 1 1 1 1 1 
1 1 1 1 1 1 1 1 1 
1 1 1 1 1 1 1 1 1 
1 1 1 1 1 1 1 1 1 
1 1 1 1 1 1 1 1 1 
1 1 1 1 1 1 1 1 1 
1 1 1 1 1 1 1 1 1 
1 1 1 1 1 1 1 1 1 
1 1 1 1 1 1 1 1 1 
1 1 1 1 1 1 1 1 1 
1 1 1 1 1 1 1 1 1 
1 1 1 1 1 1 1 1 1 
1 1 1 1 1 1 1 1 1 
1 1 1 1 1 1 1 1 1 
1 1 1 1 1 1 1 1 1 
1 1 1 1 1 1 1 1 1 
1 1 1 1 1 1 1 1 1 
1 1 1 1 1 1 1 1 1 
1 1 1 1 1 1 1 1 1 
1 1 1 1 1 1 1 1 1 
1 1 1 1 1 1 1 1 1 
1 1 1 1 1 1 1 1 1 
1 1 1 1 1 1 1 1 1 
1 1 1 1 1 1 1 1 1 
1 1 1 1 1 1 1 1 1 
1 1 1 1 1 1 1 1 1 
1 1 1 1 1 1 1 1 1 
1 1 1 1 1 1 1 1 1 
1 1 1 1 1 1 1 1 1 
1 1 1 1 1 1 1 1 1 
1 1 1 1 1 1 1 1 1 
1 1 1 1 1 1 1 1 1 
1 1 1 1 1 1 1 1 1 
1 1 1 1 1 1 1 1 1 
1 1 1 1 1 1 1 1 1 
1 1 1 1 1 1 1 1 1 
1 1 1 1 1 1 1 1 1 
1 1 1 1 1 1 1 1 1 
1 1 1 1 1 1 1 1 1 
1 1 1 1 1 1 1 1 1 
1 1 1 1 1 1 1 1 1 
1 1 1 1 1 1 1 1 1 
1 1 1 1 1 1 1 1 1 
1 1 1 1 1 1 1 1 1 
1 1 1 1 1 1 1 1 1 
1 1 1 1 1 1 1 1 1 
1 1 1 1 1 1 1 1 1 
1 1 1 1 1 1 1 1 1 
1 1 1 1 1 1 1 1 1 
1 1 1 1 1 1 1 1 1 
1 1 1 1 1 1 1 1 1 
1 1 1 1 1 1 1 1 1 
1 1 1 1 1 1 1 1 1 
1 1 1 1 1 1 1 1 1 
1 1 1 1 1 1 1 1 1 
1 1 1 1 1 1 1 1 1 
1 1 1 1 1 1 1 1 1 
1 1 1 1 1 1 1 1 1 
1 1 1 1 1 1 1 1 1 
1 1 1 1 1 1 1 1 1 
1 1 1 1 1 1 1 1 1 
1 1 1 1 1 1 1 1 1 
1 1 1 1 1 1 1 1 1 
1 1 1 1 1 1 1 1 1 
1 1 1 1 1 1 1 1 1 
1 1 1 1 1 1 1 1 1 
1 1 1 1 1 1 1 1 1 
1 1 1 1 1 1 1 1 1 
1 1 1 1 1 1 1 1 1 
1 1 1 1 1 1 1 1 1 
1 1 1 1 1 1 1 1 1 
1 1 1 1 1 1 1 1 1 
1 1 1 1 1 1 1 1 1 
1 1 1 1 1 1 1 1 1 
1 1 1 1 1 1 1 1 1 
1 1 1 1 1 1 1 1 1 
1 1 1 1 1 1 1 1 1 
1 1 1 1 1 1 1 1 1 
1 1 1 1 1 1 1 1 1 
1 1 1 1 1 1 1 1 1 
1 1 1 1 1 1 1 1 1 
1 1 1 1 1 1 1 1 1 
1 1 1 1 1 1 1 1 1 
1 1 1 1 1 1 1 1 1 
1 1 1 1 1 1 1 1 1 
1 1 1 1 1 1 1 1 1 
1 1 1 1 1 1 1 1 1 
1 1 1 1 1 1 1 1 1 
1 1 1 1 1 1 1 1 1 
1 1 1 1 1 1 1 1 1 
1 1 1 1 1 1 1 1 1 
1 1 1 1 1 1 1 1 1 
1 1 1 1 1 1 1 1 1 
1 1 1 1 1 1 1 1 1 
1 1 1 1 1 1 1 1 1 
1 1 1 1 1 1 1 1 1 
1 1 1 1 1 1 1 1 1 
1 1 1 1 1 1 1 1 1 
1 1 1 1 1 1 1 1 1 
1 1 1 1 1 1 1 1 1 
1 1 1 1 1 1 1 1 1 
1 1 1 1 1 1 1 1 1 
1 1 1 1 1 1 1 1 1 
1 1 1 1 1 1 1 1 1 
1 1 1 1 1 1 1 1 1 
1 1 1 1 1 1 1 1 1 
1 1 1 1 1 1 1 1 1 
1 1 1 1 1 1 1 1 1 
1 1 1 1 1 1 1 1 1 
1 1 1 1 1 1 1 1 1 
1 1 1 1 1 1 1 1 1 
1 1 1 1 1 1 1 1 1 
1 1 1 1 1 1 1 1 1 
1 1 1 1 1 1 1 1 1 
1 1 1 1 1 1 1 1 1 
1 1 1 1 1 1 1 1 1 
1 1 1 1 1 1 1 1 1 
1 1 1 1 1 1 1 1 1 
1 1 1 1 1 1 1 1 1 
1 1 1 1 1 1 1 1 1 
1 1 1 1 1 1 1 1 1 
1 1 1 1 1 1 1 1 1 
1 1 1 1 1 1 1 1 1 
1 1 1 1 1 1 1 1 1 
1 1 1 1 1 1 1 1 1 
1 1 1 1 1 1 1 1 1 
1 1 1 1 1 1 1 1 1 
1 1 1 1 1 1 1 1 1 
1 1 1 1 1 1 1 1 1 
1 1 1 1 1 1 1 1 1 
1 1 1 1 1 1 1 1 1 
1 1 1 1 1 1 1 1 1 
1 1 1 1 1 1 1 1 1 
1 1 1 1 1 1 1 1 1 
1 1 1 1 1 1 1 1 1 
1 1 1 1 1 1 1 1 1 
1 1 1 1 1 1 1 1 1 
1 1 1 1 1 1 1 1 1 
1 1 1 1 1 1 1 1 1 
1 1 1 1 1 1 1 1 1 
1 1 1 1 1 1 1 1 1 
1 1 1 1 1 1 1 1 1 
1 1 1 1 1 1 1 
NORMALS Normals float
0 -0.178885 -0.98387 0 -1 0 -0.961524 -0.274721 3.6843e-08 
0.961524 -0.274721 3.6843e-08 0 0.447214 -0.894427 0 -0.178885 -0.98387 
0 -1 0 -0.961524 -0.274721 3.6843e-08 0.961524 -0.274721 3.6843e-08 
-0.215524 -0.630639 -0.745549 -0.197124 -0.608923 -0.768346 -0.318552 -0.745433 -0.585538 
-0.504865 -0.861725 -0.0504065 -0.380251 -0.802424 -0.459918 0.199598 -0.00603167 -0.979859 
0 -0.178885 -0.98387 0 -1 0 -0.961524 -0.274721 3.6843e-08 
0 0.447214 -0.894427 0 -0.178885 0.98387 0.961524 -0.274721 3.6843e-08 
0 -0.178885 -0.98387 0 -1 0 -0.961524 -0.274721 3.6843e-08 
-0.371254 -0.797125 -0.476195 0.961524 -0.274721 3.6843e-08 -0.485751 -0.864523 -0.129016 
-0.532004 -0.777807 0.334647 0 0.447214 -0.894427 0 0.447214 -0.894427 
-0.376859 -0.783195 -0.494552 -0.379982 -0.792588 -0.476883 -0.378763 -0.789322 -0.483228 
0.38017 0.795464 0.471919 -0.379346 -0.792691 -0.477218 -0.379425 -0.791645 -0.478889 
-0.463275 -0.852387 -0.242515 0.00390376 0.359054 0.933309 -0.448884 -0.84688 -0.285127 
0.0439973 0.416662 0.907996 -0.379095 -0.794774 -0.473942 0 -0.178885 0.98387 
-0.379655 -0.794103 -0.474618 -0.307278 -0.735927 -0.603317 -0.257237 -0.681115 -0.685501 
-0.317336 -0.746511 -0.584825 0.192435 0.602486 0.774584 0.207931 0.62036 0.756253 
0.278784 0.704142 0.653041 0.0508661 0.412035 0.909747 -0.379015 -0.797247 -0.469835 
0.402918 0.819275 0.407977 0 -0.178885 0.98387 0 -0.178885 0.98387 
-0.367906 -0.794804 -0.482631 -0.463421 -0.85936 -0.216198 0.341851 0.766302 0.543985 
0 -0.178885 -0.98387 0 -1 0 -0.961524 -0.274721 3.6843e-08 
0.961524 -0.274721 3.6843e-08 -0.382735 -0.799055 -0.463708 -0.376859 -0.783195 -0.494552 
0 0.447214 -0.894427 0.379032 0.790031 0.481856 0.372431 0.795322 0.478287 
-0.368884 -0.791365 -0.48751 -0.368884 -0.791365 -0.48751 0.374143 0.791888 0.482628 
0.38017 0.795464 0.471919 -0.379388 -0.792604 -0.47733 0.37589 0.793227 0.47906 
-0.10232 0.124851 0.986885 -0.101749 0.0166821 0.99467 -0.0981894 0.0901645 0.991075 
-0.0931962 0.574622 0.813096 -0.103977 0.133189 0.985621 0.0907168 0.356376 -0.929928 
-0.0941053 0.545652 0.832711 0.100292 0.0543434 -0.993473 -0.0520815 0.930762 0.361896 
0.101462 -0.114023 -0.988283 0.0971551 0.143246 -0.984907 0 0.987385 -0.15834 
0.0625103 0.693775 -0.717474 0.0826276 0.553024 -0.829058 -0.213611 -0.451968 -0.86608 
-0.362966 -0.843124 0.396733 -0.992447 0.00275729 -0.122648 0.38516 0.482507 -0.786663 
0.411858 -0.823823 -0.389472 -0.368884 -0.791365 -0.48751 0.982497 0.0924951 0.161692 
0.374143 0.791888 0.482628 -0.0989523 -0.105133 0.989523 0.104089 -0.153479 -0.982654 
0.102819 0.0152053 -0.994584 0.101027 -0.297766 -0.949278 0.0723429 -0.805507 -0.588153 
0.0390435 -0.974457 -0.221154 0.336943 0.765871 0.547641 0.245367 0.667198 0.703308 
-0.24817 0.846228 -0.471497 0.167604 0.86351 0.475667 -0.178439 -0.254365 -0.950504 
0.318963 -0.0395838 -0.94694 0.355346 0.208026 -0.911293 -0.677559 -0.412439 -0.608939 
-0.924827 -0.156138 0.346866 -0.828356 -0.112086 -0.548874 -0.525049 0.374682 0.764158 
0.17952 0.178353 -0.967452 -0.213611 -0.451968 -0.86608 -0.362966 -0.843124 0.396733 
-0.992447 0.00275729 -0.122648 0.371298 0.480742 -0.794371 0.405552 -0.822344 -0.399097 
0.98804 0.0904427 0.124885 -0.140595 -0.557687 -0.818058 -0.189053 -0.526754 -0.828728 
-0.702474 0.464863 -0.538919 -0.116921 -0.571745 -0.812057 -0.129158 -0.565173 -0.814799 
-0.177866 -0.447684 -0.876323 -0.0775549 -0.629447 -0.773163 -0.24817 0.846228 -0.471497 
0.447214 0 0.894427 0.192384 0.863082 0.466988 0 -0.178885 0.98387 
-0.226492 -0.435592 -0.871184 0.0259448 0.687142 0.726059 -0.419713 0.120047 -0.899683 
-0.38027 0.170237 -0.909073 0.4232 0.629142 0.651984 -0.141379 0.057936 0.988259 
-0.146642 0.124082 0.981376 -0.141379 0.057936 0.988259 0.155681 -0.288984 -0.944591 
-0.022579 0.921032 -0.388833 0.158097 -0.373985 -0.91386 0.020951 -0.920154 0.390996 
0.149529 -0.140599 -0.97871 0.140139 -0.857057 -0.495797 0.156675 -0.262961 -0.952 
-0.423016 -0.894111 0.147047 -0.368211 -0.897792 0.24164 -0.465792 -0.8564 0.222749 
-0.255124 -0.864829 0.432415 -0.332513 -0.910291 0.246586 0.231964 0.857296 -0.459604 
0.218218 0.872872 -0.436436 -0.405049 0.912677 0.0543748 0.316919 0.917869 -0.238912 
-0.379798 0.925017 -0.00983431 0.0530995 0.77921 0.62451 0.374143 0.791888 0.482628 
0.375627 0.792633 0.480247 -0.135486 -0.00846789 0.990743 0.152594 -0.239084 -0.958934 
-0.00155806 0.858684 -0.512504 0.0447986 0.679444 -0.732358 0.064549 0.590229 -0.804651 
0.159375 -0.45073 -0.878318 0.152813 -0.196641 -0.968494 0.156918 -0.33727 -0.928238 
-0.615412 -0.788206 0 -0.500032 -0.845351 0.188015 0.232789 0.851713 -0.469462 
0.344411 0.902806 -0.257531 0.387759 0.904873 -0.175635 -0.101394 0.0192843 0.994659 
-0.102127 -0.0670064 0.992512 -0.101705 -0.0603051 0.992985 -0.00908772 0.896671 -0.442603 
-0.0641853 0.992883 -0.100318 -0.1004 -0.0460103 0.993883 -0.101609 0.314642 0.943756 
-0.10359 0.318715 0.942173 -0.0560209 -0.73689 0.673687 0.111932 -0.464947 -0.878234 
0.440246 0.876961 -0.192671 0.330266 0.913733 -0.236678 -0.409904 0.453439 0.791437 
0.208447 -0.42858 0.87913 -0.0710951 0.844327 0.531091 0.285053 -0.223912 -0.931991 
-0.205838 -0.329035 -0.921611 0.79286 -0.175875 -0.583473 0.227341 -0.247547 -0.941826 
0.534208 -0.210081 -0.818834 0.671443 -0.0230214 -0.740699 -0.451093 -0.437135 -0.778093 
-0.631044 -0.5844 -0.510157 -0.656476 -0.415313 -0.629725 -0.313675 -0.296425 -0.902076 
-0.621045 -0.266083 -0.737226 -0.930543 -0.164589 -0.327108 -0.988106 0.135689 0.0723579 
-0.8889 0.169618 0.425542 0.0384919 -0.0276092 -0.998877 0.0254328 0.215058 -0.97627 
-0.309447 0.931965 -0.188904 0.21644 0.0275856 -0.975906 -0.324693 0.00658796 -0.945797 
0.0393399 -0.407139 -0.912519 -0.177039 -0.508057 -0.842933 -0.571294 0.0293766 -0.82022 
-0.63128 0.0975353 -0.769397 -0.0563318 -0.645523 -0.761661 0 -0.707107 -0.707107 
0.0325957 -0.733372 -0.679046 -0.409904 0.453439 0.791437 0.241124 -0.428289 0.870878 
0.542067 0.155865 -0.825754 -0.0776021 -0.19845 0.977034 -0.0791582 0.00992872 0.996813 
-0.074977 -0.390514 0.917539 -0.0747778 -0.32616 0.942352 0.0393399 -0.407139 -0.912519 
-0.153655 0.766442 0.623664 0.106306 -0.794879 -0.597382 0.521813 -0.138341 0.841768 
0.0778131 0.0256612 -0.996638 0.0418654 -0.413401 -0.909586 0.0329966 -0.414738 -0.909342 
0.0361255 -0.415094 -0.909061 0.0630332 0.61165 0.788613 -0.176074 0.858457 0.481716 
0.105939 0.567332 0.816647 0.224663 0.441664 0.868596 0.447214 0 0.894427 
0.160525 -0.36142 -0.918481 -0.0228189 0.922257 -0.385903 -0.132649 0.907387 0.398815 
-0.113567 -0.259878 0.95894 -0.0703887 -0.556843 0.82763 0.0112191 -0.9013 0.433049 
-0.0558933 -0.634366 0.77101 0.0801856 -0.996519 -0.0227857 -0.00116721 -0.868683 0.495366 
0.0775693 0.533329 -0.842344 0.090927 -0.991806 -0.0897352 -0.280235 -0.839771 0.465031 
0.104873 0.330257 -0.938047 -0.142673 -0.814491 0.562359 0.210021 -0.694912 0.687742 
0.113928 -0.969384 -0.217521 -0.107256 0.980838 0.162645 0.0054353 0.851824 -0.5238 
-0.155567 0.264013 0.951891 0.0555562 0.657172 -0.751691 -0.121342 0.922943 0.36531 
-0.0459182 0.973113 -0.225706 -0.379728 -0.912372 0.152916 0.599017 0.675118 0.430575 
-0.114847 0.948691 0.294611 -0.151717 0.718958 0.678293 -0.0316981 -0.887548 0.459623 
0.798714 -0.314524 -0.512963 0.319125 -0.237314 -0.917519 0.947514 -0.317812 -0.0348419 
0.402864 -0.234324 -0.884756 0.955073 -0.281875 0.0915472 -0.145429 -0.110192 -0.983213 
0.849447 -0.304276 -0.43111 0.824364 -0.287826 -0.487423 -0.442737 -0.0526946 -0.895102 
-0.286243 -0.121159 -0.950466 -0.957546 0.108283 -0.267171 0.370392 -0.21776 -0.90299 
-0.651339 -0.0532223 -0.756918 -0.946925 0.000548107 -0.321453 -0.168483 -0.159443 -0.972724 
0.842621 -0.244965 -0.479564 -0.284722 -0.194938 -0.93858 -0.973232 -0.0868198 -0.212795 
-0.629025 -0.257639 -0.73345 -0.8525 -0.0225023 0.522243 0.794724 -0.176854 -0.580635 
-0.873499 -0.319249 -0.367533 -0.380825 0.413455 0.82706 0.885212 -0.0758537 -0.458961 
-0.819692 -0.568207 0.0724206 0.730353 -0.0785401 -0.67854 -0.740732 -0.514783 0.431642 
-0.819924 -0.562469 -0.106557 -0.792057 -0.545145 0.274706 0.502583 -0.101907 -0.858502 
-0.917177 -0.396382 -0.0408332 0.412372 0.50592 -0.757625 0.296565 0.161681 -0.941227 
-0.925765 -0.0273178 0.377111 0.632569 0.508909 -0.58384 0.601249 0.740553 -0.300135 
-0.75079 0.311276 0.582599 -0.58422 0.550696 0.596172 0.331417 0.199233 -0.922209 
0.417506 0.263161 -0.869733 0.640554 0.723872 0.25632 -0.616825 0.686198 -0.385565 
-0.158528 0.178869 -0.971017 -0.838568 0.298444 0.45578 0.703534 0.482443 -0.521812 
0.775252 0.625459 -0.0882339 0.00544698 -0.390151 -0.920735 0.00544698 -0.390151 -0.920735 
-0.00320265 -0.387966 -0.921668 -0.00402789 -0.389364 -0.921075 -0.336197 0.0898857 -0.937493 
-0.833968 0.00593674 0.551781 0.832265 0.305624 -0.462525 0.831451 0.489938 0.262013 
0.717799 0.571988 0.396981 0.0316631 -0.44419 -0.895373 0.00544698 -0.390151 -0.920735 
0.878533 0.252737 -0.405343 0.00932621 -0.399386 -0.916735 0.0367798 -0.405875 -0.913188 
-0.139946 0.706475 0.693764 0.447214 0 0.894427 0.369444 0.171321 0.913324 
-0.0762403 0.156374 0.984751 -0.0756037 0.19878 0.977124 -0.075316 0.206119 0.975624 
-0.0772283 0.0197866 0.996817 0.0774979 0.0401962 -0.996182 0.0759895 0.213008 -0.974091 
0.077355 -0.0564947 -0.995402 0.0412199 0.843681 -0.53526 0.0768826 -0.0412013 -0.996189 
0.0697315 0.404022 -0.912088 0.0762499 0.00314292 -0.997084 0.0762906 -0.0749048 -0.994268 
0.0748907 0.0940578 -0.992746 0.0756301 0.0175963 -0.996981 0.0747302 0.0382342 -0.996471 
0.0393399 -0.407139 -0.912519 0.22811 0.426597 0.875203 0.180931 0.473854 0.861816 
0.0734255 -0.306344 -0.949085 0.0674691 -0.449568 -0.890694 0.0774147 -0.0381615 -0.996268 
0.0773193 -0.0627459 -0.99503 -0.076982 -0.00663538 0.99701 -0.0760961 0.130757 0.98849 
-0.0754971 0.0268715 0.996784 0.0358065 -0.411602 -0.91066 0.0329966 -0.414738 -0.909342 
-0.113431 -0.258367 0.959364 -0.130885 -0.0879342 0.98749 -0.15966 0.481768 0.861631 
-0.135991 0.867408 0.478655 -0.0803299 0.996742 0.00725362 -0.0264784 -0.778858 0.626642 
-0.158659 0.515267 0.842215 0.541929 -0.31118 -0.780692 0.757195 -0.22308 0.613915 
-0.593321 0.0239235 -0.80461 0.650994 -0.329053 -0.684055 0.940712 -0.339166 -0.00531749 
0.78929 -0.346996 -0.506573 -0.376134 -0.00304909 -0.92656 -0.590138 0.0894922 -0.802327 
0.127521 -0.183966 -0.974626 0.105764 -0.174989 -0.978873 0.891814 -0.35045 -0.286099 
0.909729 -0.263009 0.321278 -0.393299 -0.0246362 -0.91908 0.61737 -0.0969697 0.780674 
-0.904688 0.162327 -0.393941 0.926735 -0.235715 0.292578 0.935242 -0.214854 0.281354 
-0.868528 0.242604 0.432206 0.970706 -0.231843 0.063069 0.792647 -0.262994 -0.55004 
0.973683 -0.218212 -0.0657612 -0.992498 0.103604 -0.0649124 -0.751825 0.188283 0.631909 
0.920691 -0.224632 -0.319168 0.670543 -0.208108 -0.712084 0.958034 -0.155022 -0.241121 
0.993512 -0.109432 -0.0309591 0.230851 0.169155 0.958172 0.985692 -0.11576 0.122516 
0.588077 -0.157023 -0.793416 -0.798484 -0.420341 0.430972 -0.337165 -0.0550414 0.939835 
-0.53445 -0.310737 0.786006 -0.195166 0.106755 0.974943 0.851175 -0.402756 -0.336583 
-0.584109 -0.0916166 0.806488 -0.2281 0.352691 0.907513 0.209537 0.869752 0.446796 
-0.57462 0.606185 0.549865 -0.449113 0.485946 0.749769 0.412017 -0.199806 -0.888999 
-0.456929 0.209643 0.864445 0.271608 0.597733 0.754284 -0.639371 0.7621 -0.102016 
-0.201903 0.097663 0.974524 0.235844 -0.104602 -0.966145 -0.31744 0.283445 0.904926 
0.218413 0.374371 0.901189 -0.397617 0.515414 -0.759111 -0.495718 0.628022 -0.599877 
-0.367651 0.526734 -0.76641 0.258763 -0.657731 -0.707412 0.179764 0.23668 0.954813 
-0.326425 0.450064 -0.831197 -0.350989 0.49416 -0.795369 -0.212 0.286193 -0.934425 
0.00578935 -0.144713 -0.989457 -0.44123 0.738762 -0.509457 0.289251 -0.705784 -0.646686 
-0.0529104 -0.0337298 -0.998029 0.0316631 -0.44419 -0.895373 -0.00375526 -0.391055 -0.92036 
-0.00750491 -0.389167 -0.921136 -0.0116073 -0.401764 -0.91567 -0.0125769 -0.39939 -0.916695 
0.364075 0.180946 0.913624 -0.277828 0.401565 -0.872672 0.479145 -0.847061 0.230014 
0.430972 -0.731644 0.528167 -0.475976 0.878664 -0.0373794 -0.180299 0.531609 0.827578 
0.883465 0.23339 0.406225 0.278826 -0.402993 0.871695 -0.286201 0.412932 -0.864625 
-0.292149 0.422769 -0.857855 -0.057961 -0.69363 0.717996 -0.0776054 -0.0291967 0.996557 
-0.0775001 -0.0289826 0.996571 -0.0772786 0.0885404 0.99307 -0.0675281 0.496129 0.865619 
0.0759154 -0.153502 -0.985228 0.0759181 -0.0727178 -0.994459 -0.0820605 0.155189 0.984471 
-0.699306 0.301509 0.648123 0.628306 -0.120704 0.768545 0.943263 -0.318567 0.0936462 
0.942413 -0.307868 0.13067 -0.906325 0.268001 -0.326728 -0.94565 0.32466 0.0184949 
0.623693 -0.316205 -0.714858 0.922027 -0.27664 0.270805 -0.578047 0.0780079 -0.812266 
-0.681023 0.108114 -0.724237 -0.957411 0.252377 -0.140249 -0.281385 0.194915 0.939591 
-0.878017 0.282603 0.386293 0.600825 -0.0712491 0.796199 0.401508 0.0143351 0.915743 
-0.80623 0.205376 0.55481 0.598724 -0.0574701 0.798891 -0.598472 0.150114 0.786954 
0.986196 -0.161886 0.0347932 0.982429 -0.113525 0.148139 0.831408 0.0026856 0.555656 
0.817436 0.0373584 0.574806 0.0538751 0.16945 0.984065 0.969464 -0.20303 0.137542 
0.856802 -0.0402777 -0.514069 0.224445 0.180548 0.957615 0.0450754 0.0606679 0.99714 
-0.0591891 -0.954443 0.292465 -0.399932 0.0330631 -0.915948 -0.18193 0.22864 -0.95636 
0.546538 -0.252142 0.798574 0.318055 -0.126509 0.939594 0.419555 0.852929 -0.31062 
0 0 0 0 0 0 0.496466 -0.863015 -0.0934204 
0.53 -0.813276 -0.240171 0.421273 -0.300492 0.855707 -0.500498 0.10152 0.859765 
-0.53 0.813276 0.240171 0.501068 -0.110855 -0.858278 -0.00218516 -0.707695 0.706515 
0.180896 0.500048 -0.846894 0.0553081 -0.17429 0.98314 -0.50151 0.110853 0.85802 
-0.180896 -0.500048 0.846894 0.388764 -0.515273 0.763777 0.126697 -0.331432 -0.934934 
0.251709 -0.624915 -0.739002 0.307047 -0.437178 0.845339 0.262769 -0.38033 0.886736 
-0.0525613 0.205227 0.977302 -0.389842 0.837984 0.381845 -0.00958534 -0.405988 -0.913828 
-0.0116073 -0.401764 -0.91567 0.257312 -0.359982 0.896774 -0.787023 0.343583 0.512393 
-0.220402 0.20514 0.953594 0.0314013 0.121874 0.992049 0.565597 -0.0872384 0.820055 
0.477231 -0.0447416 0.877638 -0.666015 0.319706 0.673952 -0.854553 0.341659 0.391163 
-0.942576 0.3212 0.0915501 -0.872876 0.323504 0.365284 -0.714632 0.294781 0.634355 
-0.617514 0.257843 0.743097 0.169298 0.0736052 0.982813 -0.400733 0.201782 0.893698 
-0.305666 0.165873 0.937579 -0.214909 0.139502 0.966619 0.979555 -0.138642 0.145772 
0.360742 0.135358 0.922791 0.816389 -0.266375 -0.512399 -0.350893 0.101207 0.93093 
0.955706 0.106552 -0.274359 -0.101513 -0.785234 0.610821 -0.491338 -0.81428 0.309088 
0.574376 0.510113 0.640216 -0.00756309 0.847571 -0.530629 0.634156 -0.566123 -0.526642 
-0.634156 0.566123 0.526642 0.594242 -0.709848 -0.378143 -0.594242 0.709848 0.378143 
0.894427 0.447214 0 0.162238 0.497535 -0.852137 0 0 0 
0 0 0 0 -0.178885 -0.98387 0 -1 0 
-0.961524 -0.274721 3.6843e-08 0.961524 -0.274721 3.6843e-08 -0.162238 -0.497535 0.852137 
0 0.447214 -0.894427 -0.139456 0.177887 0.974119 -0.700545 0.318067 0.638804 