# vtk DataFile Version 4.2
vtk output
ASCII
DATASET POLYDATA
POINTS 3097 float
333.169 207.034 185.469 333.119 207.069 185.565 333.18 207.027 185.456 
333.149 207.046 185.514 333.17 207.034 185.482 333.151 207.058 185.541 
333.018 207.134 185.778 333.031 207.145 185.736 333.127 207.07 185.588 
333.057 207.151 185.821 332.785 207.286 186.083 332.564 207.351 186.348 
332.998 207.218 186.15 332.138 207.581 186.695 332.013 207.577 186.864 
332.413 207.492 186.458 332.932 207.29 186.033 333.025 207.261 186.11 
332.992 207.344 186.201 333.03 207.348 186.321 331.975 207.772 186.865 
332.985 207.422 186.373 332.647 207.285 186.595 331.811 207.604 187.201 
331.665 207.781 187.151 333.022 207.29 186.338 333.031 207.369 186.506 
330.722 208.23 187.873 331.725 208.066 187.159 331.811 208.207 187.298 
332.875 207.34 186.866 330.345 208.872 188.121 332.65 207.962 187.357 
328.803 209.904 189.15 328.83 209.79 189.141 329.009 209.851 189.121 
330.32 209.041 188.253 332.434 207.379 187.493 331.86 207.502 187.772 
330.058 208.286 188.803 329.327 208.884 189.002 329.255 209.193 188.909 
331.669 208.668 188.002 332.641 208.101 187.808 328.712 209.6 189.269 
329.365 209.486 188.88 330.083 209.348 188.634 331.047 209.161 188.56 
332.281 208.486 188.251 328.641 210.075 189.361 329.444 209.865 189.234 
313.708 219.076 190.046 313.744 219.028 190.097 313.72 219.062 190.07 
313.755 219.028 190.097 313.71 219.079 190.046 264.048 201.363 189.68 
263.273 201.806 189.826 264.577 201.816 189.624 265.456 201.81 189.596 
267.438 202.07 189.632 266.9 201.515 189.705 268.622 201.734 189.803 
271.334 202.666 189.831 272.336 203.09 189.869 265.582 202.903 189.759 
271.487 203.491 189.771 332.59 207.426 187.668 331.207 207.671 188.964 
330.881 207.822 188.655 332.87 207.545 187.468 332.89 207.685 187.586 
332.863 207.811 187.686 327.781 210.316 190.087 330.536 209.729 189.513 
314.192 218.528 190.52 313.865 218.88 190.243 313.897 218.813 190.353 
313.999 218.752 190.344 313.778 219.003 190.155 313.891 218.906 190.236 
313.727 219.063 190.072 256.947 198.876 190.818 258.745 199.175 190.51 
263.951 199.74 190.295 266.094 200.04 190.356 259.494 199.866 190.403 
267.718 200.522 190.33 256.921 200.054 191.189 268.447 201.193 190.048 
273.755 202.463 190.404 277.36 202.8 190.824 263.143 202.295 190.014 
274.331 203.492 190.113 276.435 203.575 190.352 278.339 203.161 190.786 
278.403 203.595 190.629 260.489 202.79 191.188 261.591 202.669 190.671 
271.216 203.989 189.855 273.2 204.122 189.982 275.013 204.031 190.133 
278.047 204.135 190.451 279.829 204.42 190.678 281.119 203.955 191.097 
262.174 203.37 190.949 271.855 204.523 190.039 272.839 204.557 190.064 
282.268 204.978 191.008 266.251 204.526 190.554 267.201 204.66 190.441 
269.18 205.304 190.639 273.456 205.083 190.273 278.373 205.274 190.483 
332.27 207.481 188.405 332.471 207.498 188.206 332.807 207.671 187.881 
328.343 208.931 190.336 327.469 210.031 190.293 326.249 210.838 191.069 
331.427 209.414 189.912 331.89 209.088 189.734 326.158 211.293 191.304 
320.494 213.76 191.906 316.499 216.116 191.553 316.873 216.042 191.63 
320.489 213.831 191.949 315.613 216.814 191.392 314.785 217.666 191.136 
315.682 216.997 191.34 314.817 217.799 191.007 314.757 218.067 190.909 
313.898 218.899 190.299 313.95 218.877 190.293 313.976 218.86 190.324 
246.939 192.656 192.795 249.029 193.229 192.29 248.439 192.525 192.437 
250.799 193.702 192.042 249.683 194.603 192.34 250.577 194.886 192.114 
254.92 195.675 191.586 250.833 195.465 192.154 252.035 196.576 192.085 
255.363 196.726 191.274 257.717 197.305 191.052 253.008 197.429 192.026 
253.367 197.281 191.801 254.452 197.425 191.455 267.042 199.46 191.215 
254.986 199.117 191.855 255.276 198.948 191.573 256.107 199.088 191.174 
256.091 200.023 191.792 273.464 201.522 191.306 276.542 202.296 191.089 
258.119 201.456 191.441 278.574 202.911 191.023 279.71 203.012 191.3 
283.16 205.033 191.234 260.69 203.165 191.537 262.129 203.958 191.64 
280.159 205.634 190.663 267.71 205.134 190.736 279.122 205.897 190.649 
284.153 206.194 191.183 285.308 206.084 191.416 287.622 206.251 191.917 
274.363 206.548 191.261 285.836 206.834 191.426 288.105 206.899 191.933 
283.368 207.811 191.304 286.357 207.407 191.544 329.386 208.147 190.758 
328.915 208.467 190.477 332.478 208.061 189.67 284.184 208.231 191.54 
286.506 208.397 191.834 332.33 208.634 189.939 324.743 210.735 191.873 
330.161 210.292 190.654 325.1 211.542 191.614 320.815 213.145 192.052 
323.049 212.533 191.996 327.456 211.343 191.454 321.47 213.126 191.981 
322.414 212.98 192.086 316.725 215.547 191.812 317.67 214.776 192.062 
319.822 214.037 192.03 321.187 213.472 191.995 320.236 214.082 192.105 
315.204 217.229 191.31 314.561 217.744 191.411 315.517 217.627 191.456 
313.971 218.751 190.518 314.323 218.55 190.645 244.43 189.852 193.857 
246.182 190.234 193.304 244.287 190.267 193.768 244.99 190.463 193.377 
244.469 190.507 193.592 244.577 190.767 193.593 245.364 190.973 193.223 
245.581 191.672 193.24 249.253 191.686 192.834 245.807 191.99 193.26 
250.32 192.751 192.381 247.274 193.463 193.06 250.839 195.776 192.31 
256.624 196.098 191.56 259.976 196.951 191.543 252.12 197.131 192.498 
263.846 198.487 191.403 267.018 199.161 191.686 253.135 197.996 192.479 
253.547 198.487 192.701 254.189 198.864 192.405 255.207 199.678 192.325 
276.118 201.795 191.818 257.538 201.479 192.301 280.795 203.046 191.781 
285.406 204.994 191.921 288.048 205.538 192.556 289.457 206.049 192.81 
262.948 204.487 192.019 288.723 206.685 192.214 289.96 206.572 192.81 
268.904 206.073 191.634 276.971 206.827 191.194 289.319 207.128 192.381 
330.276 207.786 191.536 289.689 208.056 192.552 327.926 208.625 191.65 
283.198 209.061 192.259 285.324 208.827 191.983 324.772 212.442 192.321 
316.807 214.698 192.723 317.551 214.552 192.273 315.496 216.286 192.072 
319 214.621 192.077 315.479 216.499 191.79 319.745 214.626 192.476 
315.789 217.469 191.797 315.489 217.728 191.497 315.485 217.748 191.531 
315.206 217.915 191.478 314.826 218.169 191.339 244.906 189.39 194.118 
244.156 189.957 194.014 245.804 189.498 194.035 244.295 190.513 193.795 
250.234 191.836 193.019 261.269 196.775 192.746 261.809 196.975 192.846 
251.866 197.218 192.959 252.244 197.611 193.137 282.604 203.19 192.98 
283.996 203.935 192.488 287.535 205.082 192.793 266.254 205.924 192.903 
267.871 206.073 192.065 290.519 207.411 192.952 331.685 207.783 191.052 
269.848 206.772 192.785 277.985 208.203 192.62 291.627 208.174 193.581 
326.327 209.221 192.316 289.412 209.179 192.82 285.542 209.828 192.878 
323.487 213.084 192.663 324.772 212.661 192.769 314.894 216.867 192.491 
314.868 216.861 192.596 314.86 216.942 192.553 314.809 217.206 192.485 
316.439 216.938 192.649 314.646 217.736 191.977 314.343 218.379 191.124 
315.027 217.999 191.71 243.857 189.345 194.684 243.713 189.126 195.013 
243.693 189.464 194.735 243.824 189.756 194.533 247.149 189.573 194.307 
244.185 190.567 194.043 251.484 191.399 194.247 246.271 193.044 194.015 
248.289 194.648 193.488 258.498 195.519 193.218 250.317 196.251 193.666 
279.572 202.183 193.139 258.073 202.09 193.302 259.092 202.762 193.294 
289.786 205.08 194.081 290.395 205.273 194.15 291.936 206.973 193.926 
330.538 207.754 192.798 269.158 206.719 193.146 292.036 207.571 193.854 
283.858 209.867 193.219 284.75 210.059 193.276 324.317 212.897 193.023 
325.536 212.498 193.435 314.89 216.825 192.7 315.003 216.687 193.006 
314.916 216.948 193.054 314.902 216.958 192.931 314.938 217.033 192.992 
244.164 188.762 195.277 244.601 188.586 195.553 243.568 189.122 195.274 
243.616 189.504 194.861 243.517 189.394 195.233 248.917 189.959 194.763 
253.384 192.334 194.394 248.852 195.35 194.463 262.428 197.01 193.84 
252.759 198.193 194.102 254.365 199.406 194.432 272.598 200.617 194.254 
276.401 201.495 193.561 279.339 202.076 193.499 280.859 202.514 193.664 
258.481 202.319 194.214 286.887 204.064 194.758 261.338 204.006 193.769 
266.757 206.132 193.93 327.563 208.148 193.978 276.939 208.38 194.366 
331.97 209.216 193.485 283.59 210.367 194.579 285.31 210.718 194.276 
292.18 211.302 194.775 328.766 211.207 193.457 290.219 212.04 194.973 
291.48 211.933 194.944 316.365 214.466 194.317 315.739 215.271 194.064 
318.577 215.447 194.29 319.144 215.198 194.032 314.962 216.894 193.169 
315.126 216.691 193.499 316.276 216.714 193.681 314.987 217.38 192.748 
243.739 188.789 195.566 243.478 189.144 195.643 249.635 189.952 195.355 
251.054 190.667 195.426 261.291 196.508 194.337 283.573 203.3 195.317 
292.202 205.585 195.416 261.844 204.09 194.579 292.833 206.272 195.456 
329.118 207.797 194.116 329.76 207.774 194.677 331.921 208.352 193.533 
275.879 208.029 195.088 332.081 208.993 194.152 332.035 209.205 193.969 
331.933 209.321 193.873 331.988 209.277 194.063 329.685 210.645 194.25 
331.82 209.365 194.155 285.575 211.088 195.096 290.608 213.342 196.373 
291.748 212.941 195.77 291.713 213.954 196.827 293.263 213.583 196.375 
324.018 212.996 194.606 292.371 214.03 196.777 315.374 215.942 194.163 
315.457 216.724 193.85 243.636 188.743 196.312 245.017 188.433 196.543 
243.442 189.185 196.016 243.445 189.407 196.2 243.507 189.721 195.878 
244.304 191.176 196.208 246.651 193.472 196.068 259.033 195.558 195.334 
259.785 196.007 195.699 260.752 196.334 195.106 271.494 200.491 195.188 
255.969 200.336 195.357 275.446 201.516 195.125 258.384 201.974 195.161 
283.503 203.524 196.304 287.81 204.15 196.282 261.95 203.84 195.361 
327.387 207.995 195.318 331.126 207.97 194.398 272.664 207.064 195.608 
294.067 207.94 196.449 331.993 208.719 194.636 269.222 206.624 194.85 
332.107 208.92 194.527 332.142 208.971 194.458 332.124 208.964 194.569 
331.915 209.159 194.488 332.09 209.009 194.496 279.444 209.036 195.645 
282.101 209.87 196.085 284.805 210.923 195.642 290.226 213.307 196.523 
[...]
POINT_DATA 3097
SCALARS scalars float
LOOKUP_TABLE default
1 1 1 1 1 1 1 1 1 
1 1 1 1 1 1 1 1 1 
1 1 1 1 1 1 1 1 1 
1 1 1 1 1 1 1 1 1 
1 1 1 1 1 1 1 1 1 
1 1 1 1 1 1 1 1 1 
1 1 1 1 1 1 1 1 1 
1 1 1 1 1 1 1 1 1 
1 1 1 1 1 1 1 1 1 
1 1 1 1 1 1 1 1 1 
1 1 1 1 1 1 1 1 1 
1 1 1 1 1 1 1 1 1 
1 1 1 1 1 1 1 1 1 
1 1 1 1 1 1 1 1 1 
1 1 1 1 1 1 1 1 1 
1 1 1 1 1 1 1 1 1 
1 1 1 1 1 1 1 1 1 
1 1 1 1 1 1 1 1 1 
1 1 1 1 1 1 1 1 1 
1 1 1 1 1 1 1 1 1 
1 1 1 1 1 1 1 1 1 
1 1 1 1 1 1 1 1 1 
1 1 1 1 1 1 1 1 1 
1 1 1 1 1 1 1 1 1 
1 1 1 1 1 1 1 1 1 
1 1 1 1 1 1 1 1 1 
1 1 1 1 1 1 1 1 1 
1 1 1 1 1 1 1 1 1 
1 1 1 1 1 1 1 1 1 
1 1 1 1 1 1 1 1 1 
1 1 1 1 1 1 1 1 1 
1 1 1 1 1 1 1 1 1 
1 1 1 1 1 1 1 1 1 
1 1 1 1 1 1 1 1 1 
1 1 1 1 1 1 1 1 1 
1 1 1 1 1 1 1 1 1 
1 1 1 1 1 1 1 1 1 
1 1 1 1 1 1 1 1 1 
1 1 1 1 1 1 1 1 1 
1 1 1 1 1 1 1 1 1 
1 1 1 1 1 1 1 1 1 
1 1 1 1 1 1 1 1 1 
1 1 1 1 1 1 1 1 1 
1 1 1 1 1 1 1 1 1 
1 1 1 1 1 1 1 1 1 
1 1 1 1 1 1 1 1 1 
1 1 1 1 1 1 1 1 1 
1 1 1 1 1 1 1 1 1 
1 1 1 1 1 1 1 1 1 
1 1 1 1 1 1 1 1 1 
1 1 1 1 1 1 1 1 1 
1 1 1 1 1 1 1 1 1 
1 1 1 1 1 1 1 1 1 
1 1 1 1 1 1 1 1 1 
1 1 1 1 1 1 1 1 1 
1 1 1 1 1 1 1 1 1 
1 1 1 1 1 1 1 1 1 
1 1 1 1 1 1 1 1 1 
1 1 1 1 1 1 1 1 1 
1 1 1 1 1 1 1 1 1 
1 1 1 1 1 1 1 1 1 
1 1 1 1 1 1 1 1 1 
1 1 1 1 1 1 1 1 1 
1 1 1 1 1 1 1 1 1 
1 1 1 1 1 1 1 1 1 
1 1 1 1 1 1 1 1 1 
1 1 1 1 1 1 1 1 1 
1 1 1 1 1 1 1 1 1 
1 1 1 1 1 1 1 1 1 
1 1 1 1 1 1 1 1 1 
1 1 1 1 1 1 1 1 1 
1 1 1 1 1 1 1 1 1 
1 1 1 1 1 1 1 1 1 
1 1 1 1 1 1 1 1 1 
1 1 1 1 1 1 1 1 1 
1 1 1 1 1 1 1 1 1 
1 1 1 1 1 1 1 1 1 
1 1 1 1 1 1 1 1 1 
1 1 1 1 1 1 1 1 1 
1 1 1 1 1 1 1 1 1 
1 1 1 1 1 1 1 1 1 
1 1 1 1 1 1 1 1 1 
1 1 1 1 1 1 1 1 1 
1 1 1 1 1 1 1 1 1 
1 1 1 1 1 1 1 1 1 
1 1 1 1 1 1 1 1 1 
1 1 1 1 1 1 1 1 1 
1 1 1 1 1 1 1 1 1 
1 1 1 1 1 1 1 1 1 
1 1 1 1 1 1 1 1 1 
1 1 1 1 1 1 1 1 1 
1 1 1 1 1 1 1 1 1 
1 1 1 1 1 1 1 1 1 
1 1 1 1 1 1 1 1 1 
1 1 1 1 1 1 1 1 1 
1 1 1 1 1 1 1 1 1 
1 1 1 1 1 1 1 1 1 
1 1 1 1 1 1 1 1 1 
1 1 1 1 1 1 1 1 1 
1 1 1 1 1 1 1 1 1 
1 1 1 1 1 1 1 1 1 
1 1 1 1 1 1 1 1 1 
1 1 1 1 1 1 1 1 1 
1 1 1 1 1 1 1 1 1 
1 1 1 1 1 1 1 1 1 
1 1 1 1 1 1 1 1 1 
1 1 1 1 1 1 1 1 1 
1 1 1 1 1 1 1 1 1 
1 1 1 1 1 1 1 1 1 
1 1 1 1 1 1 1 1 1 
1 1 1 1 1 1 1 1 1 
1 1 1 1 1 1 1 1 1 
1 1 1 1 1 1 1 1 1 
1 1 1 1 1 1 1 1 1 
1 1 1 1 1 1 1 1 1 
1 1 1 1 1 1 1 1 1 
1 1 1 1 1 1 1 1 1 
1 1 1 1 1 1 1 1 1 
1 1 1 1 1 1 1 1 1 
1 1 1 1 1 1 1 1 1 
1 1 1 1 1 1 1 1 1 
1 1 1 1 1 1 1 1 1 
1 1 1 1 1 1 1 1 1 
1 1 1 1 1 1 1 1 1 
1 1 1 1 1 1 1 1 1 
1 1 1 1 1 1 1 1 1 
1 1 1 1 1 1 1 1 1 
1 1 1 1 1 1 1 1 1 
1 1 1 1 1 1 1 1 1 
1 1 1 1 1 1 1 1 1 
1 1 1 1 1 1 1 1 1 
1 1 1 1 1 1 1 1 1 
1 1 1 1 1 1 1 1 1 
1 1 1 1 1 1 1 1 1 
1 1 1 1 1 1 1 1 1 
1 1 1 1 1 1 1 1 1 
1 1 1 1 1 1 1 1 1 
1 1 1 1 1 1 1 1 1 
1 1 1 1 1 1 1 1 1 
1 1 1 1 1 1 1 1 1 
1 1 1 1 1 1 1 1 1 
1 1 1 1 1 1 1 1 1 
1 1 1 1 1 1 1 1 1 
1 1 1 1 1 1 1 1 1 
1 1 1 1 1 1 1 1 1 
1 1 1 1 1 1 1 1 1 
1 1 1 1 1 1 1 1 1 
1 1 1 1 1 1 1 1 1 
1 1 1 1 1 1 1 1 1 
1 1 1 1 1 1 1 1 1 
1 1 1 1 1 1 1 1 1 
1 1 1 1 1 1 1 1 1 
1 1 1 1 1 1 1 1 1 
1 1 1 1 1 1 1 1 1 
1 1 1 1 1 1 1 1 1 
1 1 1 1 1 1 1 1 1 
1 1 1 1 1 1 1 1 1 
1 1 1 1 1 1 1 1 1 
1 1 1 1 1 1 1 1 1 
1 1 1 1 1 1 1 1 1 
1 1 1 1 1 1 1 1 1 
1 1 1 1 1 1 1 1 1 
1 1 1 1 1 1 1 1 1 
1 1 1 1 1 1 1 1 1 
1 1 1 1 1 1 1 1 1 
1 1 1 1 1 1 1 1 1 
1 1 1 1 1 1 1 1 1 
1 1 1 1 1 1 1 1 1 
1 1 1 1 1 1 1 1 1 
1 1 1 1 1 1 1 1 1 
1 1 1 1 1 1 1 1 1 
1 1 1 1 1 1 1 1 1 
1 1 1 1 1 1 1 1 1 
1 1 1 1 1 1 1 1 1 
1 1 1 1 1 1 1 1 1 
1 1 1 1 1 1 1 1 1 
1 1 1 1 1 1 1 1 1 
1 1 1 1 1 1 1 1 1 
1 1 1 1 1 1 1 1 1 
1 1 1 1 1 1 1 1 1 
1 1 1 1 1 1 1 1 1 
1 1 1 1 1 1 1 1 1 
1 1 1 1 1 1 1 1 1 
1 1 1 1 1 1 1 1 1 
1 1 1 1 1 1 1 1 1 
1 1 1 1 1 1 1 1 1 
1 1 1 1 1 1 1 1 1 
1 1 1 1 1 1 1 1 1 
1 1 1 1 1 1 1 1 1 
1 1 1 1 1 1 1 1 1 
1 1 1 1 1 1 1 1 1 
1 1 1 1 1 1 1 1 1 
1 1 1 1 1 1 1 1 1 
1 1 1 1 1 1 1 1 1 
1 1 1 1 1 1 1 1 1 
1 1 1 1 1 1 1 1 1 
1 1 1 1 1 1 1 1 1 
1 1 1 1 1 1 1 1 1 
1 1 1 1 1 1 1 1 1 
1 1 1 1 1 1 1 1 1 
1 1 1 1 1 1 1 1 1 
1 1 1 1 1 1 1 1 1 
1 1 1 1 1 1 1 1 1 
1 1 1 1 1 1 1 1 1 
1 1 1 1 1 1 1 1 1 
1 1 1 1 1 1 1 1 1 
1 1 1 1 1 1 1 1 1 
1 1 1 1 1 1 1 1 1 
1 1 1 1 1 1 1 1 1 
1 1 1 1 1 1 1 1 1 
1 1 1 1 1 1 1 1 1 
1 1 1 1 1 1 1 1 1 
1 1 1 1 1 1 1 1 1 
1 1 1 1 1 1 1 1 1 
1 1 1 1 1 1 1 1 1 
1 1 1 1 1 1 1 1 1 
1 1 1 1 1 1 1 1 1 
1 1 1 1 1 1 1 1 1 
1 1 1 1 1 1 1 1 1 
1 1 1 1 1 1 1 1 1 
1 1 1 1 1 1 1 1 1 
1 1 1 1 1 1 1 1 1 
1 1 1 1 1 1 1 1 1 
1 1 1 1 1 1 1 1 1 
1 1 1 1 1 1 1 1 1 
1 1 1 1 1 1 1 1 1 
1 1 1 1 1 1 1 1 1 
1 1 1 1 1 1 1 1 1 
1 1 1 1 1 1 1 1 1 
1 1 1 1 1 1 1 1 1 
1 1 1 1 1 1 1 1 1 
1 1 1 1 1 1 1 1 1 
1 1 1 1 1 1 1 1 1 
1 1 1 1 1 1 1 1 1 
1 1 1 1 1 1 1 1 1 
1 1 1 1 1 1 1 1 1 
1 1 1 1 1 1 1 1 1 
1 1 1 1 1 1 1 1 1 
1 1 1 1 1 1 1 1 1 
1 1 1 1 1 1 1 1 1 
1 1 1 1 1 1 1 1 1 
1 1 1 1 1 1 1 1 1 
1 1 1 1 1 1 1 1 1 
1 1 1 1 1 1 1 1 1 
1 1 1 1 1 1 1 1 1 
1 1 1 1 1 1 1 1 1 
1 1 1 1 1 1 1 1 1 
1 1 1 1 1 1 1 1 1 
1 1 1 1 1 1 1 1 1 
1 1 1 1 1 1 1 1 1 
1 1 1 1 1 1 1 1 1 
1 1 1 1 1 1 1 1 1 
1 1 1 1 1 1 1 1 1 
1 1 1 1 1 1 1 1 1 
1 1 1 1 1 1 1 1 1 
1 1 1 1 1 1 1 1 1 
1 1 1 1 1 1 1 1 1 
1 1 1 1 1 1 1 1 1 
1 1 1 1 1 1 1 1 1 
1 1 1 1 1 1 1 1 1 
1 1 1 1 1 1 1 1 1 
1 1 1 1 1 1 1 1 1 
1 1 1 1 1 1 1 1 1 
1 1 1 1 1 1 1 1 1 
1 1 1 1 1 1 1 1 1 
1 1 1 1 1 1 1 1 1 
1 1 1 1 1 1 1 1 1 
1 1 1 1 1 1 1 1 1 
1 1 1 1 1 1 1 1 1 
1 1 1 1 1 1 1 1 1 
1 1 1 1 1 1 1 1 1 
1 1 1 1 1 1 1 1 1 
1 1 1 1 1 1 1 1 1 
1 1 1 1 1 1 1 1 1 
1 1 1 1 1 1 1 1 1 
1 1 1 1 1 1 1 1 1 
1 1 1 1 1 1 1 1 1 
1 1 1 1 1 1 1 1 1 
1 1 1 1 1 1 1 1 1 
1 1 1 1 1 1 1 1 1 
1 1 1 1 1 1 1 1 1 
1 1 1 1 1 1 1 1 1 
1 1 1 1 1 1 1 1 1 
1 1 1 1 1 1 1 1 1 
1 1 1 1 1 1 1 1 1 
1 1 1 1 1 1 1 1 1 
1 1 1 1 1 1 1 1 1 
1 1 1 1 1 1 1 1 1 
1 1 1 1 1 1 1 1 1 
1 1 1 1 1 1 1 1 1 
1 1 1 1 1 1 1 1 1 
1 1 1 1 1 1 1 1 1 
1 1 1 1 1 1 1 1 1 
1 1 1 1 1 1 1 1 1 
1 1 1 1 1 1 1 1 1 
1 1 1 1 1 1 1 1 1 
1 1 1 1 1 1 1 1 1 
1 1 1 1 1 1 1 1 1 
1 1 1 1 1 1 1 1 1 
1 1 1 1 1 1 1 1 1 
1 1 1 1 1 1 1 1 1 
1 1 1 1 1 1 1 1 1 
1 1 1 1 1 1 1 1 1 
1 1 1 1 1 1 1 1 1 
1 1 1 1 1 1 1 1 1 
1 1 1 1 1 1 1 1 1 
1 1 1 1 1 1 1 1 1 
1 1 1 1 1 1 1 1 1 
1 1 1 1 1 1 1 1 1 
1 1 1 1 1 1 1 1 1 
1 1 1 1 1 1 1 1 1 
1 1 1 1 1 1 1 1 1 
1 1 1 1 1 1 1 1 1 
1 1 1 1 1 1 1 1 1 
1 1 1 1 1 1 1 1 1 
1 1 1 1 1 1 1 1 1 
1 1 1 1 1 1 1 1 1 
1 1 1 1 1 1 1 1 1 
1 1 1 1 1 1 1 1 1 
1 1 1 1 1 1 1 1 1 
1 1 1 1 1 1 1 1 1 
1 1 1 1 1 1 1 1 1 
1 1 1 1 1 1 1 1 1 
1 1 1 1 1 1 1 1 1 
1 1 1 1 1 1 1 1 1 
1 1 1 1 1 1 1 1 1 
1 1 1 1 1 1 1 1 1 
1 1 1 1 1 1 1 1 1 
1 1 1 1 1 1 1 1 1 
1 1 1 1 1 1 1 1 1 
1 1 1 1 1 1 1 1 1 
1 1 1 1 1 1 1 1 1 
1 1 1 1 1 1 1 1 1 
1 1 1 1 1 1 1 1 1 
1 1 1 1 1 1 1 1 1 
1 1 1 1 1 1 1 1 1 
1 1 1 1 1 1 1 1 1 
1 1 1 1 1 1 1 1 1 
1 1 1 1 1 1 1 1 1 
1 1 1 1 1 1 1 1 1 
1 1 1 1 1 1 1 1 1 
1 1 1 1 1 1 1 1 1 
1 1 1 1 1 1 1 1 1 
1 1 1 1 1 1 1 1 1 
1 
NORMALS Normals float
-0.834546 0.119164 -0.537897 -0.87764 -0.359929 -0.316542 0.919192 -0.353739 0.173073 
-0.443815 -0.893257 0.0715513 0.346241 -0.849753 0.39754 0.924328 -0.122481 0.361409 
-0.447733 -0.89416 -0.00358076 -0.78873 0.256619 -0.558615 0.171449 -0.912365 0.371747 
0.819571 -0.490395 0.296338 -0.749087 -0.144201 -0.646587 -0.650271 -0.62512 -0.431709 
0.493837 -0.842478 0.215306 -0.703973 -0.183652 -0.686071 -0.624774 -0.694131 -0.357547 
-0.724587 -0.219181 -0.653401 0.280452 0.877734 -0.388497 0.961354 0.242656 -0.130065 
0.610598 0.715143 -0.340206 0.916959 0.390351 -0.0825332 -0.574362 0.157825 -0.803244 
0.519442 0.801346 -0.29669 -0.239359 -0.970888 0.00916172 -0.491057 -0.847875 -0.199929 
-0.705123 -0.479323 -0.522542 0.858508 -0.486636 0.161705 0.991777 -0.0883217 0.0926177 
-0.652493 -0.550003 -0.521296 -0.19121 0.638168 -0.745775 0.0814715 0.832448 -0.548081 
0.371846 -0.896267 0.241737 -0.425968 0.388251 -0.817198 0.606031 0.767769 -0.207986 
-0.31851 0.464905 -0.826084 -0.406376 0.0279386 -0.913279 -0.0143039 0.505092 -0.862947 
-0.133644 0.703163 -0.698356 -0.137696 -0.987164 0.0809138 -0.172745 -0.984365 0.0344335 
-0.52911 -0.789143 -0.311922 -0.638053 -0.518361 -0.569378 -0.606161 -0.111631 -0.787469 
0.217539 0.869324 -0.443793 0.591417 0.784839 -0.185078 -0.625973 -0.168314 -0.761465 
-0.292406 0.381985 -0.87669 0.0530396 0.814017 -0.578414 0.246654 0.868537 -0.429891 
0.567444 0.794237 -0.217245 0.00347203 0.851817 -0.523829 0.121722 0.810861 -0.572441 
-0.621556 -0.668349 -0.408628 -0.541463 -0.765056 -0.348579 -0.802762 0.184882 0.566914 
0.250919 -0.568828 -0.783247 0.513337 0.809608 -0.284639 -0.156662 -0.145693 -0.976847 
-0.369635 -0.0982249 -0.923971 -0.0953349 0.224107 -0.96989 0.00447715 -0.0491137 -0.998783 
0.108874 0.00561192 -0.99404 0.0640029 -0.259507 -0.963618 0.151119 -0.134249 -0.979357 
0.0484157 -0.309864 -0.949547 0.134621 0.020145 -0.990692 0.0398812 0.27536 -0.960514 
0.00136334 0.0664559 -0.997788 0.222954 -0.951246 0.213125 -0.270242 -0.962578 -0.0203012 
-0.462873 -0.872609 -0.155889 0.740703 -0.614834 0.27081 0.977233 -0.106737 0.183365 
0.909418 0.413098 0.0480527 -0.42825 0.439839 -0.789394 0.335749 0.838292 -0.42958 
-0.0782468 -0.641974 -0.762723 -0.125714 -0.71458 -0.688166 -0.842233 -0.538321 0.0292304 
0.242759 -0.451504 -0.85861 -0.469974 0.559193 0.682955 0.70024 0.13411 -0.701198 
0.176126 0.872372 0.456011 -0.231132 -0.00474431 -0.972911 -0.227941 0.0916739 -0.96935 
0.0808469 -0.507924 -0.857599 0.100098 -0.613175 -0.783579 -0.133488 -0.0519197 -0.98969 
0.227293 -0.605789 -0.762468 -0.455324 0.497369 -0.738447 0.206363 -0.519197 -0.829367 
0.156319 -0.50782 -0.847162 0.148267 -0.528406 -0.835945 -0.17036 0.389789 -0.905009 
0.136427 -0.100845 -0.985504 0.079722 -0.252286 -0.964363 0.244197 -0.43963 -0.864346 
0.220066 -0.270818 -0.937139 -0.433333 0.698149 -0.569921 -0.375232 0.376755 -0.84691 
-0.0933496 0.310546 -0.945963 0.147384 0.0493695 -0.987846 0.0531777 -0.118894 -0.991482 
0.160397 -0.178548 -0.97077 0.177489 -0.201083 -0.96336 0.286504 -0.411615 -0.865152 
-0.286407 0.646733 -0.7069 -0.153399 0.488934 -0.858727 0.0263941 0.363423 -0.93125 
0.282835 -0.356527 -0.890445 -0.218178 0.657898 -0.720811 0.0402701 0.566094 -0.823356 
-0.0944599 0.689045 -0.718536 -0.0322759 0.350377 -0.936052 0.0795002 0.149145 -0.985614 
-0.0689668 -0.997331 0.0239767 0.303095 -0.941165 0.149473 0.795624 -0.544156 0.266225 
-0.639234 -0.720433 -0.268991 -0.64012 -0.319788 -0.698557 -0.424517 0.166232 -0.890029 
0.505584 0.844604 -0.17615 0.57886 0.806381 -0.121123 -0.134276 0.635978 -0.759935 
0.0280655 0.210851 -0.977115 0.0133732 -0.300818 -0.953588 0.170812 -0.120439 -0.977915 
0.242274 0.607099 -0.756792 -0.320801 -0.581899 -0.747315 -0.607729 -0.580727 -0.541684 
0.161001 -0.143415 -0.976479 -0.261576 -0.52898 -0.807315 0.520112 -0.0193246 -0.853879 
0.242912 0.888201 0.38999 0.278893 -0.706915 -0.649992 0.278893 -0.706915 -0.649992 
-0.482142 0.304098 -0.821622 -0.164022 -0.0670204 -0.984177 -0.192651 -0.0963466 -0.976526 
-0.0865471 -0.130698 -0.987637 -0.415236 0.369613 -0.831243 -0.321949 0.186867 -0.928132 
0.209909 -0.648003 -0.732141 -0.320362 0.226944 -0.919709 -0.492209 0.45453 -0.742383 
-0.148224 -0.0502838 -0.987675 0.0149385 -0.349788 -0.93671 -0.493732 0.518575 -0.698075 
-0.375803 0.228241 -0.898153 -0.273598 0.188349 -0.943223 0.229838 -0.764135 -0.60272 
-0.496014 0.543094 -0.67751 -0.431991 0.344059 -0.833671 -0.359456 0.306442 -0.881411 
-0.559549 0.633517 -0.534379 0.225152 -0.776638 -0.588337 0.202032 -0.69169 -0.69336 
-0.482551 0.698456 -0.528492 0.262055 -0.583426 -0.768727 0.239935 -0.711666 -0.660274 
0.232254 -0.201233 -0.951611 -0.413156 0.757463 -0.505521 -0.394822 0.778844 -0.487358 
0.158342 0.165731 -0.973376 -0.0107263 0.599561 -0.800257 0.0826979 0.328173 -0.940991 
0.14615 -0.0179677 -0.989099 0.265801 -0.306186 -0.914111 0.295247 -0.296112 -0.908376 
-0.170646 0.661165 -0.730576 0.234396 -0.0115587 -0.972072 0.338278 -0.0614754 -0.939036 
0.043477 0.29219 -0.955371 0.225743 0.0661222 -0.97194 -0.441264 -0.89492 -0.0663699 
-0.594142 -0.784281 -0.178599 0.984681 0.102556 0.141016 0.0283278 0.521679 -0.852671 
0.154741 0.412353 -0.897786 0.889769 0.448056 0.0869312 -0.435622 -0.318489 -0.841901 
0.327859 0.908054 -0.260663 -0.0566445 0.43465 -0.898816 -0.319628 -0.534091 -0.782678 
0.235304 0.656348 -0.716825 0.134138 0.86037 -0.491702 0.111091 0.240139 -0.964361 
0.258623 0.519048 -0.81468 -0.223296 -0.531527 -0.817079 -0.224262 -0.408963 -0.884565 
-0.112598 0.0311097 -0.993153 0.317753 0.53181 -0.784992 0.236049 0.619929 -0.748311 
-0.401137 -0.610697 -0.682743 -0.769385 -0.578632 -0.270613 0.646406 0.421296 -0.636136 
-0.739897 0.32564 0.588652 0.76138 0.48326 -0.432158 -0.366727 -0.497367 -0.786217 
-0.00218326 -0.518831 -0.854874 -0.698488 -0.136269 -0.702528 -0.299312 -0.180828 -0.936864 
-0.556407 -0.0218729 -0.830622 -0.608971 0.320434 -0.725587 -0.232314 -0.0140268 -0.97254 
-0.583568 0.451974 -0.674662 0.151276 -0.567609 -0.809281 -0.427467 0.262263 -0.865153 
0.203741 -0.501629 -0.840748 -0.62617 0.616135 -0.477795 -0.541571 0.490489 -0.682731 
0.00325416 -0.467351 -0.884066 0.293412 -0.798425 -0.525762 -0.567699 0.549208 -0.613261 
0.200661 -0.790246 -0.579004 0.250529 -0.92803 -0.275672 -0.600405 0.723451 -0.340782 
-0.608704 0.71257 -0.34889 -0.603016 0.642318 -0.473074 -0.544865 0.724263 -0.422569 
0.16147 -0.912812 -0.375103 -0.56895 0.737653 -0.363544 0.331666 -0.790003 -0.515648 
0.222261 -0.507707 -0.832366 0.321527 -0.555368 -0.766933 0.389307 -0.505039 -0.770309 
-0.319151 0.886518 -0.335006 0.329238 -0.173203 -0.928226 0.487183 -0.346296 -0.801705 
-0.139917 0.857854 -0.49448 -0.0304867 0.553962 -0.831984 0.281925 -0.0487592 -0.958197 
-0.0724666 -0.996156 -0.0492177 0.375147 0.103484 -0.921171 -0.455267 -0.838647 -0.299004 
-0.141597 0.751968 -0.643812 0.0031579 0.554191 -0.832384 0.251735 0.804402 -0.538115 
-0.565611 -0.697826 -0.439457 -0.420569 -0.632195 -0.650731 -0.606284 -0.72059 -0.336406 
0.279719 0.425813 -0.860489 -0.525801 -0.683109 -0.506849 0.325793 0.817385 -0.475121 
0.784867 0.571152 -0.240352 0.641763 0.578159 -0.503857 0.607939 0.789934 -0.0800923 
0.544427 0.778351 -0.312681 0.529489 0.847618 0.0344114 -0.152082 -0.759993 -0.631887 
-0.8084 -0.158193 -0.566978 0.0554162 -0.759633 -0.647986 -0.829795 0.208333 -0.517723 
0.325165 -0.655579 -0.681531 0.314026 -0.906389 -0.282572 0.325499 -0.850735 -0.412674 
-0.688415 0.688884 -0.226989 -0.593146 0.727211 -0.34546 0.257104 -0.934654 -0.245598 
0.197702 -0.742989 -0.639438 0.299867 -0.722951 -0.622432 -0.283852 0.943892 -0.168805 
-0.244132 0.906064 -0.345613 0.497118 0.0220401 -0.867403 0.254525 -0.957471 0.135887 
-0.118055 0.899134 -0.421451 -0.22163 0.902367 -0.369614 0.556238 0.101965 -0.824744 
-0.433878 -0.814821 -0.38447 0.256776 0.340805 -0.904388 -0.00246131 0.711978 -0.702198 
0.328086 0.850796 -0.410495 0.374403 0.901442 -0.217312 -0.868016 -0.468757 -0.163755 
-0.916228 -0.392643 -0.0797307 -0.99469 -0.043102 0.0934517 -0.984116 -0.146494 0.100276 
0.683697 0.729716 0.00849613 -0.930507 0.075129 0.358486 -0.0695104 0.843292 0.532942 
0.423009 0.87593 0.23197 -0.490202 -0.534075 -0.688815 -0.511622 -0.672307 -0.53502 
-0.771885 -0.338878 -0.537917 -0.757379 -0.181582 -0.62722 0.238242 -0.853462 -0.463512 
-0.843888 0.471858 -0.255348 0.368389 -0.743448 -0.558188 -0.672187 0.690343 -0.267566 
-0.596414 0.707649 -0.378845 0.427358 -0.891613 -0.149634 -0.575578 0.753995 -0.316546 
0.315135 -0.936957 -0.151001 -0.624453 0.770884 -0.125681 -0.487473 0.864255 -0.124231 
0.318021 -0.844895 -0.430134 0.450749 -0.726533 -0.518628 0.560142 -0.281248 -0.779192 
-0.069836 -0.994762 -0.0746463 -0.202782 0.973948 -0.101515 0.705604 -0.0994646 -0.701591 
-0.155981 0.816931 -0.555242 -0.229063 0.83573 -0.499085 0.323991 0.92594 -0.194075 
0.365623 0.916757 -0.160865 -0.897114 -0.436285 0.0695781 -0.934543 -0.341802 0.0989986 
-0.953409 0.118181 0.277569 -0.978656 -0.153758 0.136351 -0.795851 0.412251 0.443475 
-0.230432 -0.858776 -0.457607 -0.011326 -0.959113 -0.282796 -0.846686 -0.425606 -0.319347 
-0.918772 0.0138562 -0.394546 -0.973505 -0.0172142 -0.228018 0.311267 -0.851991 -0.42098 
0.463891 -0.831118 -0.306673 -0.625361 0.780058 -0.0208292 0.380364 -0.924837 5.9489e-05 
-0.660095 0.750761 -0.0251582 -0.631535 0.775324 0.00600659 0.385554 -0.869607 0.308435 
0.0976356 -0.995202 0.00637918 0.316032 -0.948722 0.00706523 0.326064 -0.945344 -0.00254798 
-0.512508 0.83958 0.180113 0.117964 -0.982428 -0.144636 -0.466447 0.87534 0.127307 
-0.29485 0.952902 0.0710023 -0.277356 -0.952082 -0.128892 -0.307077 0.949877 -0.058622 
0.991131 0.131986 -0.015477 -0.291938 0.930109 -0.222867 -0.103787 0.875449 -0.472036 
0.247339 0.445758 -0.860304 0.378213 0.922806 -0.0733772 -0.0197127 0.64854 -0.760925 
0.118343 0.492322 -0.862331 -0.723314 -0.686161 -0.0774596 -0.811616 -0.580916 -0.0617698 
0.400731 0.914618 0.0537483 0.431955 0.897259 0.0913329 -0.919346 0.00107399 0.393448 
-0.843883 0.245331 0.477153 0.269558 0.860085 0.433119 -0.513171 0.638083 0.574026 
-0.604225 -0.763067 -0.229435 -0.974424 -0.19259 -0.115789 0.365422 -0.914294 -0.174736 
0.488255 -0.849166 -0.201304 0.368305 -0.92941 -0.0234221 0.242 -0.953097 0.181776 
0.4617 -0.776004 -0.429711 -0.388865 0.898676 0.202892 0.71133 -0.442096 -0.546407 
-0.0858703 -0.996125 0.0190019 0.0352821 -0.998991 0.0277849 0.895102 -0.437969 0.0835213 
-0.303446 0.949718 0.0771739 0.993285 0.108194 -0.0409816 0.898079 0.438751 -0.0308454 
0.701959 0.712169 -0.00833715 0.764739 0.625928 0.152933 0.457895 0.843156 0.281816 
0.462809 0.83041 0.310205 -0.133335 0.984224 -0.1163 -0.286062 0.731715 -0.618677 
-0.0444077 0.64557 -0.762409 -0.263442 0.865917 -0.425189 0.062185 0.64454 -0.762038 
0.356825 0.914253 0.191879 -0.0348923 0.732954 -0.679383 -0.888415 -0.440074 0.13059 
-0.285705 0.793977 0.536632 -0.647626 -0.759873 -0.0563357 0.0551047 -0.992149 -0.112271 
-0.947686 -0.317986 -0.0278765 -0.99865 0.0373023 0.0361444 -0.932157 0.362045 0.00254851 
-0.763188 0.637619 0.104812 -0.6577 0.738926 0.146355 0.456057 -0.876846 0.152161 
0.439995 -0.873533 0.208194 0.378905 -0.91643 0.128793 0.418772 -0.768651 0.483534 
-0.611826 0.731313 0.301414 0.174307 -0.983959 0.0379659 -0.462334 0.810563 0.359492 
0.324022 -0.891156 0.317568 0.0781767 -0.995832 -0.0469867 -0.442634 0.783624 0.435901 
-0.196711 -0.973047 -0.120349 0.344895 -0.935066 0.0818445 -0.166472 0.934851 0.313593 
0.888993 -0.129472 -0.439236 0.965716 -0.151834 0.210569 -0.269142 0.923365 0.273789 
0.810773 -0.555786 0.183711 0.98953 0.143759 0.0128251 0.889579 0.174802 0.422012 
0.585736 0.734624 0.342406 0.57652 0.797597 0.177383 -0.287782 0.940946 0.178333 
-0.357432 0.911508 0.203457 -0.225016 0.97368 -0.0362717 -0.388205 0.804019 -0.450389 
-0.217705 0.87534 -0.431723 0.675931 -0.0572986 -0.734734 -0.883035 -0.43526 0.175495 
-0.427192 -0.903907 0.0214122 -0.257051 -0.954661 0.150159 -0.543989 -0.758196 0.359464 
0.499882 -0.846673 0.182383 -0.87399 0.484074 0.0425846 -0.751038 0.657789 0.0570525 
-0.717477 0.609527 0.337201 0.43723 -0.803466 0.40407 -0.550386 0.740005 0.386611 
-0.585981 0.736718 0.33745 0.301985 -0.873558 0.381708 -0.510995 0.667942 0.541052 
0.216626 -0.931199 0.293159 0.182614 -0.92591 -0.330669 -0.291354 0.765806 0.573283 
0.0696835 -0.981955 0.17581 0.736601 -0.668994 0.0993298 -0.22509 0.877062 0.424377 
-0.208478 -0.97332 -0.0958417 0.947419 -0.194731 0.253921 0.704435 -0.526058 0.476481 
-0.291804 0.872266 0.392431 -0.240239 0.706831 0.665338 -0.210801 -0.971987 -0.103946 
0.754491 0.276383 0.595278 0.6547 0.491955 0.573889 0.832314 0.276496 0.480421 
0.405143 0.748236 0.525359 0.756153 -0.187384 -0.626993 -0.362096 0.909145 -0.205774 
-0.36957 0.837461 -0.402588 -0.35725 0.844321 -0.399367 -0.0084176 0.743554 -0.668623 