# vtk DataFile Version 4.2
vtk output
ASCII
DATASET POLYDATA
POINTS 937 float
329.316 146.957 107.475 329.775 147.528 107.489 330.352 147.241 107.309 
331.753 148.175 107.55 333.138 144.498 107.166 327.847 145.938 107.98 
330.276 149.082 108.169 330.88 139.656 108.096 337.79 143.675 107.967 
338.82 145.151 108.489 338.85 146.558 108.952 332.907 149.223 108.37 
333.366 150.263 109.271 346.023 134.955 109.348 348.94 137.835 109.791 
349.57 138.522 110.097 325.357 149.605 110.155 335.075 150.093 109.663 
329.641 151.222 109.989 344.407 132.446 109.863 331.047 135.604 109.526 
350.873 135.823 110.395 327.218 137.559 110.285 348.544 137.139 109.676 
352.548 136.197 111.109 342.793 140.412 108.741 349.797 140.624 110.879 
351.005 141.114 112.001 347.791 143.416 111.497 340.829 147.045 110.348 
342.079 146.775 111.142 332.646 151.875 111.03 330.707 132.598 111.267 
354.677 131.025 112.027 355.106 133.193 112.332 353.48 137.271 111.941 
353.57 138.151 112.535 350.852 140.823 111.71 351.84 140.18 112.26 
351.126 141.179 112.269 326.033 151.869 111.507 336.03 150.831 111.18 
326.824 152.507 111.911 352.733 126.199 112.66 354.466 126.609 112.988 
339.411 128.562 111.942 355.334 135.331 112.996 321.965 143.312 112.477 
337.695 150.538 112.456 327.407 153.086 112.529 348.41 125.35 112.732 
355.85 127.073 113.624 332.176 129.447 112.93 357.046 128.726 114.364 
356.435 133.983 113.88 355.659 135.702 113.579 352.538 140.04 113.201 
331.315 153.257 113.281 354.955 122.443 115.215 355.471 122.939 115.209 
356.049 123.95 115.156 357.524 128.562 115.162 357.49 130.576 114.902 
356.516 134.633 114.415 355.474 136.606 114.213 354.782 137.52 113.843 
352.793 140.162 114.359 353.867 138.99 114.634 343.078 147.424 114.023 
326.122 153.851 113.869 356.115 122.208 116.255 356.631 124.646 115.389 
357.878 130.969 115.942 355.089 120.5 116.704 345.714 121.954 115.836 
356.416 122.476 116.481 331.468 126.849 116.033 358.006 128.63 116.553 
358.089 129.69 116.695 358.124 130.233 116.492 358.156 130.366 116.565 
356.908 134.501 116.22 355.182 137.5 116.002 319.55 151.662 115.368 
320.625 153.838 116.216 330.744 154.36 116.194 320.669 154.748 117.086 
327.039 155.307 116.848 348.639 120.031 117.445 337.394 123.75 116.842 
357.422 124.143 117.412 357.405 133.271 116.588 356.353 135.427 116.822 
331.965 154.01 116.933 329.591 126.912 117.539 357.935 126.098 117.274 
358.113 128.911 117.995 357.533 132.848 117.387 352.598 140.088 117.441 
315.623 148.154 118.519 328.743 155.2 117.689 321.943 156.071 118.666 
354.297 118.856 119.074 354.26 118.698 119.373 354.622 118.917 119.142 
354.719 118.827 119.458 350.776 118.811 119.361 352.259 119.024 118.606 
348.058 119.593 118.436 356.315 120.297 119.019 344.952 120.242 118.676 
336.078 122.838 119.041 358.072 127.325 118.614 354.584 137.635 118.127 
353.827 138.108 118.892 323.399 156.484 119.68 350.176 118.671 120.289 
352.707 118.49 120.4 354.677 118.746 119.681 348.829 119.011 119.798 
354.954 118.898 119.889 355.775 119.599 119.697 339.335 121.288 119.998 
338.501 121.926 119.116 357.938 128.4 119.324 356.991 131.781 120.066 
315.589 141.312 120.161 316.159 156.581 121.501 318.765 157.221 121.17 
323.998 156.635 120.573 350.16 118.628 120.682 354.948 118.779 120.159 
354.926 118.753 120.249 354.99 118.845 120.277 349.965 118.685 121.1 
354.499 118.72 120.297 355.653 119.464 120.121 343.86 120.007 120.59 
335.696 122.538 120.945 333.146 123.931 120.362 357.754 125.182 119.925 
327.858 126.64 120.9 357.667 129.056 120.011 356.084 132.247 120.962 
317.131 137.202 121.299 313.303 145.383 121.887 314.216 156.347 122.703 
348.058 119.072 121.713 350.577 118.605 121.288 354.844 118.767 120.34 
345.979 119.551 121.528 347.344 119.204 121.435 341.201 120.624 121.172 
336.298 122.196 121.457 336.119 122.436 122.243 356.872 122.168 121.154 
334.526 123.214 121.484 334.983 123.139 122.083 332.521 124.312 121.564 
357.305 124.563 121.16 328.383 126.265 121.459 331.602 153.832 121.575 
313.885 156.09 122.887 315.086 157.777 123.249 350.658 118.888 122.144 
344.755 120.05 122.044 344.608 120.141 122.165 344.392 120.136 122.045 
348.892 119.253 122.252 355.331 119.452 121.278 341.878 120.538 121.559 
343.809 120.285 121.993 336.839 121.888 122.269 336.764 121.899 122.561 
336.527 122.039 122.462 336.591 121.976 122.564 336.526 122.027 122.556 
336.442 122.152 122.524 334.869 123.572 122.614 336.274 122.948 122.878 
336.891 122.468 122.951 356.859 123.015 121.891 335.54 123.531 122.948 
356.901 123.515 121.982 356.901 127.65 121.557 350.381 139.118 122.563 
313.096 156.939 124.097 313.037 157.495 124.403 344.42 120.33 122.294 
349.737 119.43 122.68 352.896 119.056 122.856 355.097 119.642 122.055 
337.17 121.79 122.689 336.968 121.825 122.663 336.624 122.04 122.637 
336.813 122.128 122.796 346.751 121.314 123.301 356.194 121.757 122.514 
337.848 122.427 123.132 356.396 122.85 122.607 328.262 126.476 123.789 
335.118 125.136 123.893 336.603 126.129 124.487 342.183 127.175 124.411 
318.119 133.199 124.274 351.805 136.29 123.096 312.061 157.156 125.185 
324.142 156.952 123.814 313.27 158.292 124.765 319.909 158.547 124.548 
352.727 119.332 123.154 354.041 119.503 122.896 355.209 120.538 122.878 
337.061 121.857 122.75 347.517 121.883 123.604 350.725 121.538 124.106 
351.285 122.248 124.327 351.759 122.883 124.424 355.999 122.819 122.986 
348.895 124.003 124.069 354.736 123.565 123.923 330.457 125.998 123.946 
330.296 126.498 124.754 339.531 128.121 125.108 354.022 128.072 123.403 
350.341 130.78 124.35 352.097 132.874 123.735 350.134 136.045 124.573 
311.355 157.902 125.908 322.306 157.776 124.692 312.132 158.953 125.829 
304.52 160.581 128.133 304.405 160.793 128.013 304.847 160.704 127.895 
304.461 160.875 127.899 304.328 160.987 128.025 304.978 160.842 127.899 
304.445 160.982 127.861 304.4 161.078 127.923 304.533 161.014 127.844 
304.444 161.044 127.847 354.422 120.251 123.231 352.617 120.925 124.091 
352.225 122.119 124.457 353.709 121.999 124.163 331.598 128.663 126.963 
337.693 129.486 126.404 311.526 154.501 126.023 311.015 155.727 126.387 
310.217 156.788 126.873 324.988 156.458 125.623 308.666 158.525 127.428 
306.738 159.786 127.889 311.804 158.934 125.978 304.229 160.797 128.263 
305.966 160.336 127.947 305.391 160.116 128.124 311.842 159.358 126.251 
312.973 159.619 126.085 303.999 160.947 128.503 305.499 160.979 128.028 
308.802 160.299 127.613 314.081 160.015 126.445 304.412 161.273 128.165 
303.877 161.594 128.735 304.01 161.614 128.608 303.942 161.741 128.814 
349.182 133.722 125.418 349.119 134.527 125.506 337.555 146.575 127.16 
303.847 160.923 128.853 311.384 159.846 126.786 303.662 161.246 129.138 
303.687 161.934 129.521 303.992 161.971 129.147 340.446 143.645 127.343 
309.769 155.013 128.426 325.617 155.505 128.036 305.158 159.389 128.89 
306.254 158.323 129.102 309.665 161.159 128.187 312.306 160.985 127.979 
313.725 161.139 128.527 304.538 162.123 129.039 311.079 137.692 129.117 
343.433 139.206 127.915 311.043 161.417 128.575 340.783 136.44 129.462 
310.186 138.88 130.65 303.283 160.537 130.832 302.997 161.734 130.96 
303.136 162.568 131.478 308.788 162.59 130.046 303.822 162.934 130.939 
316.505 131.528 130.513 314.603 132.37 131.026 312.183 134.605 130.74 
338.041 135.561 130.497 337.781 140.133 130.744 309.683 141.84 131.383 
327.29 153.313 130.012 302.774 161.225 131.906 314.177 161.811 131.041 
305.311 163.504 131.556 316.31 131.604 131.673 335.192 133.679 130.633 
338.135 137.031 130.833 338.735 137.514 130.659 339.03 137.673 130.521 
338.877 137.763 130.613 338.729 137.894 130.669 309.781 146.742 131.797 
309.931 148.298 131.285 302.702 162.316 132.445 302.706 162.645 132.841 
316.226 131.648 132.253 316.476 131.453 132.257 316.515 131.447 132.281 
316.836 131.521 132.08 334.043 135.209 131.914 310.255 138.425 132.371 
333.335 138.48 133.038 333.946 137.307 132.62 316.394 131.562 132.338 
316.471 131.501 132.325 315.887 131.955 132.598 316.506 131.708 132.461 
312.939 133.377 132.992 317.258 132.581 133.386 310.859 136.902 133.222 
310.44 138.096 133.038 310.211 139.413 133.075 332.441 141.23 133.436 
308.255 152.556 134.302 307.912 153.108 134.256 315.594 160.893 133.214 
311.915 162.771 133.318 303.407 164.251 134.767 328.962 136.84 134.493 
313.761 136.565 135.694 313.4 136.674 135.629 314.272 136.583 135.787 
310.703 138.191 133.781 309.692 149.109 134.629 307.97 152.759 134.929 
302.314 163.571 136.244 302.85 164.119 135.658 303.689 164.558 135.257 
303.052 164.548 136.286 313.437 133.423 133.995 313.125 133.527 133.943 
312.542 134.065 134.027 312.852 133.802 134.071 313.416 133.839 134.477 
314.24 133.509 134.271 313.616 133.918 134.584 311.606 135.497 133.932 
313.337 134.401 134.792 313.738 135.115 135.153 311.577 139.539 135.466 
328.119 140.294 135.643 310.471 141.857 134.752 307.947 152.592 135.707 
307.946 152.521 136.256 302.134 163.257 136.607 310.632 163.109 135.561 
302.391 164.117 137.32 302.661 164.526 137.509 303.38 164.89 136.666 
304.444 165.053 136.545 313.046 134.31 134.646 312.436 134.825 134.61 
312.188 135.249 134.561 312.62 136.02 135.11 312.049 140.878 136.315 
311.83 142.299 136.551 311.178 143.922 136.169 310.459 147.779 136.098 
309.097 151.222 137.006 311.938 162.081 136.464 310.997 162.826 136.033 
303.277 164.979 137.166 304.067 165.179 137.133 313.321 140.865 136.968 
311.49 141.61 136.082 310.634 149.032 137.185 305.187 155.387 137.621 
316.567 155.919 137.594 311.135 162.29 137.25 309.423 163.45 136.927 
302.587 164.71 139.149 315.751 141.209 137.76 312.321 145.571 137.469 
312.326 147.613 138.009 315.737 146.922 138.608 308.913 151.934 138.122 
305.075 155.504 139.318 314.816 155.243 138.909 302.162 161.041 138.961 
301.995 162.755 138.719 304.655 165.298 138.275 302.843 164.966 139.559 
303.19 165.139 139.315 313.815 146.553 138.356 310.321 151.049 138.547 
[...]
POINT_DATA 937
SCALARS scalars float
LOOKUP_TABLE default
1 1 1 1 1 1 1 1 1 
1 1 1 1 1 1 1 1 1 
1 1 1 1 1 1 1 1 1 
1 1 1 1 1 1 1 1 1 
1 1 1 1 1 1 1 1 1 
1 1 1 1 1 1 1 1 1 
1 1 1 1 1 1 1 1 1 
1 1 1 1 1 1 1 1 1 
1 1 1 1 1 1 1 1 1 
1 1 1 1 1 1 1 1 1 
1 1 1 1 1 1 1 1 1 
1 1 1 1 1 1 1 1 1 
1 1 1 1 1 1 1 1 1 
1 1 1 1 1 1 1 1 1 
1 1 1 1 1 1 1 1 1 
1 1 1 1 1 1 1 1 1 
1 1 1 1 1 1 1 1 1 
1 1 1 1 1 1 1 1 1 
1 1 1 1 1 1 1 1 1 
1 1 1 1 1 1 1 1 1 
1 1 1 1 1 1 1 1 1 
1 1 1 1 1 1 1 1 1 
1 1 1 1 1 1 1 1 1 
1 1 1 1 1 1 1 1 1 
1 1 1 1 1 1 1 1 1 
1 1 1 1 1 1 1 1 1 
1 1 1 1 1 1 1 1 1 
1 1 1 1 1 1 1 1 1 
1 1 1 1 1 1 1 1 1 
1 1 1 1 1 1 1 1 1 
1 1 1 1 1 1 1 1 1 
1 1 1 1 1 1 1 1 1 
1 1 1 1 1 1 1 1 1 
1 1 1 1 1 1 1 1 1 
1 1 1 1 1 1 1 1 1 
1 1 1 1 1 1 1 1 1 
1 1 1 1 1 1 1 1 1 
1 1 1 1 1 1 1 1 1 
1 1 1 1 1 1 1 1 1 
1 1 1 1 1 1 1 1 1 
1 1 1 1 1 1 1 1 1 
1 1 1 1 1 1 1 1 1 
1 1 1 1 1 1 1 1 1 
1 1 1 1 1 1 1 1 1 
1 1 1 1 1 1 1 1 1 
1 1 1 1 1 1 1 1 1 
1 1 1 1 1 1 1 1 1 
1 1 1 1 1 1 1 1 1 
1 1 1 1 1 1 1 1 1 
1 1 1 1 1 1 1 1 1 
1 1 1 1 1 1 1 1 1 
1 1 1 1 1 1 1 1 1 
1 1 1 1 1 1 1 1 1 
1 1 1 1 1 1 1 1 1 
1 1 1 1 1 1 1 1 1 
1 1 1 1 1 1 1 1 1 
1 1 1 1 1 1 1 1 1 
1 1 1 1 1 1 1 1 1 
1 1 1 1 1 1 1 1 1 
1 1 1 1 1 1 1 1 1 
1 1 1 1 1 1 1 1 1 
1 1 1 1 1 1 1 1 1 
1 1 1 1 1 1 1 1 1 
1 1 1 1 1 1 1 1 1 
1 1 1 1 1 1 1 1 1 
1 1 1 1 1 1 1 1 1 
1 1 1 1 1 1 1 1 1 
1 1 1 1 1 1 1 1 1 
1 1 1 1 1 1 1 1 1 
1 1 1 1 1 1 1 1 1 
1 1 1 1 1 1 1 1 1 
1 1 1 1 1 1 1 1 1 
1 1 1 1 1 1 1 1 1 
1 1 1 1 1 1 1 1 1 
1 1 1 1 1 1 1 1 1 
1 1 1 1 1 1 1 1 1 
1 1 1 1 1 1 1 1 1 
1 1 1 1 1 1 1 1 1 
1 1 1 1 1 1 1 1 1 
1 1 1 1 1 1 1 1 1 
1 1 1 1 1 1 1 1 1 
1 1 1 1 1 1 1 1 1 
1 1 1 1 1 1 1 1 1 
1 1 1 1 1 1 1 1 1 
1 1 1 1 1 1 1 1 1 
1 1 1 1 1 1 1 1 1 
1 1 1 1 1 1 1 1 1 
1 1 1 1 1 1 1 1 1 
1 1 1 1 1 1 1 1 1 
1 1 1 1 1 1 1 1 1 
1 1 1 1 1 1 1 1 1 
1 1 1 1 1 1 1 1 1 
1 1 1 1 1 1 1 1 1 
1 1 1 1 1 1 1 1 1 
1 1 1 1 1 1 1 1 1 
1 1 1 1 1 1 1 1 1 
1 1 1 1 1 1 1 1 1 
1 1 1 1 1 1 1 1 1 
1 1 1 1 1 1 1 1 1 
1 1 1 1 1 1 1 1 1 
1 1 1 1 1 1 1 1 1 
1 1 1 1 1 1 1 1 1 
1 1 1 1 1 1 1 1 1 
1 1 1 1 1 1 1 1 1 
1 
NORMALS Normals float
-0.359291 0.261519 -0.895834 -0.295578 0.376322 -0.878075 -0.107703 0.0791391 -0.991028 
0.0663109 0.43558 -0.897704 0.148219 0.0900178 -0.984849 -0.381555 -0.109518 -0.917835 
-0.209716 0.527883 -0.823018 -0.258491 -0.224809 -0.939491 0.139779 0.0699508 -0.987709 
0.353385 0.292428 -0.888597 0.277841 0.379006 -0.8827 0.217141 0.444052 -0.869291 
0.118854 0.643359 -0.756282 0.150885 -0.123318 -0.980829 0.243953 0.123835 -0.961848 
0.372169 0.147175 -0.916422 -0.391869 0.37485 -0.840194 0.362701 0.648688 -0.669068 
-0.153354 0.655512 -0.73945 0.10076 -0.29518 -0.950114 -0.18956 -0.371731 -0.908781 
0.3101 0.00309438 -0.950699 -0.572282 -0.456408 -0.681311 0.338481 -0.141824 -0.930224 
0.471691 0.179046 -0.863395 0.143775 -0.00455598 -0.9896 0.467829 0.37032 -0.802495 
0.653733 0.537818 -0.532339 0.383711 0.517991 -0.764494 0.49877 0.585628 -0.63896 
0.480894 0.63765 -0.601784 0.211343 0.86037 -0.463786 -0.496948 -0.448298 -0.743015 
0.476154 -0.13566 -0.868835 0.668452 0.0104651 -0.743681 0.572638 0.343876 -0.744201 
0.70749 0.526504 -0.471436 0.691657 0.28198 -0.664904 0.653078 0.523369 -0.547334 
0.741656 0.538175 -0.400393 -0.320529 0.675203 -0.664351 0.395793 0.78958 -0.468946 
-0.105808 0.751732 -0.650926 0.156293 -0.38606 -0.909137 0.546073 -0.1634 -0.821648 
-0.124295 -0.5232 -0.843097 0.704956 0.293406 -0.645717 -0.626973 -0.202925 -0.752147 
0.463894 0.812194 -0.353757 -0.0649646 0.871819 -0.4855 -0.0625934 -0.555304 -0.829288 
0.663009 -0.183084 -0.725878 -0.353249 -0.595774 -0.721296 0.734246 -0.0423522 -0.677561 
0.849526 0.110616 -0.51582 0.743607 0.400942 -0.535065 0.632798 0.631374 -0.448255 
0.210239 0.873534 -0.43902 0.259343 -0.463999 -0.847022 0.520465 -0.348757 -0.779413 
0.552712 -0.354257 -0.754329 0.903362 -0.0681341 -0.423431 0.793985 0.0280823 -0.607288 
0.883151 0.292154 -0.367001 0.820155 0.508214 -0.262801 0.775452 0.46688 -0.425086 
0.68584 0.710429 -0.157842 0.754083 0.654132 -0.0589186 0.543697 0.825723 -0.15025 
-0.0468142 0.853303 -0.51931 0.639524 -0.473409 -0.605717 0.741787 -0.3126 -0.593323 
0.934627 0.112994 -0.337201 0.403119 -0.724609 -0.55896 -0.162325 -0.71918 -0.675597 
0.777914 -0.403192 -0.48196 -0.388582 -0.708017 -0.589675 0.988505 -0.0841125 -0.125631 
0.941805 -0.0776282 -0.327074 0.881794 -0.150163 -0.447091 0.99086 0.0449593 -0.127185 
0.935142 0.351315 -0.0457002 0.817625 0.561534 0.127157 -0.588624 0.385522 -0.71056 
-0.303253 0.681619 -0.665908 0.240425 0.95199 -0.189504 -0.283452 0.704465 -0.65068 
0.139819 0.914401 -0.379896 -0.0642316 -0.825892 -0.560158 -0.245073 -0.736705 -0.630242 
0.889571 -0.330674 -0.315149 0.878342 0.469165 0.0916534 0.853192 0.492528 0.171697 
0.415643 0.901922 -0.117378 -0.517383 -0.765098 -0.383327 0.933987 -0.216171 -0.284495 
0.996968 0.0029274 0.0777625 0.908063 0.375847 0.184827 0.646175 0.710438 0.278811 
-0.795488 0.0095139 -0.605895 0.239757 0.945943 -0.218423 -0.0732201 0.889767 -0.450503 
0.124552 -0.894384 -0.429609 0.109199 -0.944263 -0.310553 0.460984 -0.805739 -0.371858 
0.546492 -0.777963 -0.310033 -0.0259264 -0.969118 -0.245232 -0.0381789 -0.872385 -0.487326 
-0.183176 -0.898606 -0.398691 0.912502 -0.404472 -0.0611803 -0.41581 -0.790469 -0.449734 
-0.427928 -0.839036 -0.336 0.977196 -0.107039 0.183386 0.762536 0.59344 0.25762 
0.697222 0.609394 0.377519 -0.00444649 0.96651 -0.256592 -0.208062 -0.969406 -0.130242 
0.0147839 -0.998535 -0.0520582 0.296826 -0.940161 -0.167304 -0.18314 -0.956626 -0.226555 
0.524291 -0.819406 -0.231717 0.762225 -0.638568 -0.106041 -0.130687 -0.882737 -0.451327 
-0.255655 -0.886237 -0.386295 0.973281 -0.0865387 0.212685 0.741647 0.169539 0.649012 
-0.777315 -0.288215 -0.559208 -0.43559 0.54686 -0.714986 -0.0259367 0.877754 -0.478409 
0.192917 0.968977 -0.154486 -0.127124 -0.989718 -0.0655637 0.572182 -0.792598 -0.210703 
0.25191 -0.966905 0.0404374 0.742715 -0.653883 0.144263 -0.209192 -0.965188 0.157006 
0.142395 -0.984828 0.0991811 0.796478 -0.601348 0.0632681 -0.309665 -0.939154 -0.148655 
-0.471226 -0.881145 -0.0391022 -0.468039 -0.842669 -0.266173 0.975421 -0.104668 0.193905 
-0.528145 -0.82725 -0.191623 0.92282 0.0696319 0.378887 0.762823 0.401879 0.506552 
-0.703459 -0.467115 -0.535676 -0.864016 -0.170194 -0.473826 -0.596379 0.42572 -0.680511 
-0.229817 -0.926645 0.297512 -0.0916577 -0.991193 0.095576 0.359292 -0.860128 0.362064 
-0.220552 -0.883531 0.413194 -0.278261 -0.916003 0.288979 -0.115041 -0.958455 -0.261017 
-0.30718 -0.937794 -0.161809 -0.62729 -0.735464 0.256123 0.899487 -0.355546 0.253987 
-0.504567 -0.855299 0.117797 -0.492009 -0.780751 0.385169 -0.456277 -0.858419 0.234367 
0.906678 -0.0126904 0.421633 -0.415325 -0.909098 -0.0323504 0.506515 0.842903 0.181539 
-0.644351 0.353914 -0.677906 -0.435033 0.628356 -0.644915 -0.0444508 -0.932868 0.357464 
-0.0718757 -0.866924 0.49323 0.0740114 -0.633391 0.770284 -0.267188 -0.883447 0.384879 
-0.191713 -0.794856 0.575717 0.744564 -0.594382 0.303868 -0.127508 -0.990514 0.0512234 
-0.218029 -0.908164 0.357354 -0.305168 -0.926107 -0.221808 -0.406047 -0.895847 0.180512 
-0.618599 -0.776708 -0.118572 -0.508376 -0.812855 0.284289 -0.717741 -0.595297 0.361205 
-0.704817 -0.41013 0.578815 -0.464848 -0.674505 0.573549 -0.414001 -0.417218 0.809032 
-0.332841 -0.300732 0.893743 0.891558 0.000837665 0.452905 -0.326174 -0.601732 0.72906 
0.812541 0.025274 0.582356 0.801572 0.106419 0.588351 0.608982 0.519419 0.599454 
-0.611801 0.342532 -0.713001 -0.589574 0.239898 -0.771267 -0.0456079 -0.463469 0.884939 
-0.179509 -0.700178 0.691034 0.156799 -0.888267 0.431735 0.540044 -0.708419 0.454418 
-0.0969244 -0.969606 0.224654 -0.339744 -0.883013 0.323826 -0.486625 -0.480595 0.729537 
-0.462485 -0.317881 0.827683 -0.210219 -0.412917 0.886176 0.775712 -0.313959 0.547449 
-0.109258 -0.399127 0.910363 0.814446 0.0294901 0.579489 -0.335438 -0.92558 0.17545 
-0.186479 -0.647826 0.738612 0.0238997 -0.49088 0.870899 0.0512626 -0.420845 0.905683 
-0.622479 -0.606869 -0.494197 0.639397 0.36235 0.67814 -0.644373 0.112544 -0.756384 
0.291741 0.951006 0.102345 -0.430185 0.505513 -0.747929 0.297736 0.95166 0.0754742 
0.0460034 -0.617135 0.785511 0.309838 -0.599075 0.738316 0.678278 -0.41903 0.603617 
-0.289058 -0.571585 0.767943 -0.212933 -0.241369 0.946784 -0.298455 -0.171801 0.938834 
-0.358421 -0.0202013 0.933342 -0.231088 0.173654 0.95731 0.633091 0.0633705 0.771479 
-0.140052 -0.0403847 0.98932 0.484036 0.0670704 0.872474 -0.137926 -0.886144 0.442409 
0.0167044 -0.848338 0.529191 0.071921 -0.479094 0.874812 0.31376 0.140857 0.938996 
0.282941 -0.145901 0.947975 0.504961 -0.0135019 0.863036 0.611265 0.204554 0.764534 
-0.554382 0.187517 -0.810862 0.309477 0.948936 -0.0611941 -0.260425 0.432495 -0.863208 
-0.500514 -0.660636 -0.559505 -0.682691 -0.452968 -0.573369 -0.0537644 -0.316238 -0.947155 
-0.442834 -0.439731 -0.781367 -0.813842 -0.0300871 -0.580307 0.197831 -0.0428872 -0.979297 
-0.588085 -0.223917 -0.777185 -0.816476 0.270295 -0.510203 0.0244565 0.21673 -0.975925 
-0.377036 0.390052 -0.840061 0.418779 -0.487156 0.766357 0.0255042 -0.397357 0.91731 
0.0555978 -0.0577559 0.996781 0.331146 -0.252508 0.909166 0.106372 -0.676494 0.728726 
0.18689 -0.59724 0.779985 -0.857409 -0.192183 -0.477405 -0.719603 -0.0317931 -0.693658 
-0.592743 -0.19533 -0.781346 0.401249 0.906546 0.131051 -0.450153 -0.133247 -0.882954 
-0.217235 -0.173444 -0.960586 -0.550608 0.39725 -0.734182 -0.742258 -0.508191 -0.436801 
-0.0474439 -0.0786459 -0.995773 -0.287763 -0.510991 -0.809988 -0.389487 0.583885 -0.712305 
-0.0478545 0.662863 -0.74721 -0.810978 -0.405006 -0.422238 0.0878605 0.294545 -0.95159 
-0.124584 0.409352 -0.903831 0.0295523 0.764167 -0.644341 -0.410261 0.627182 -0.662064 
-0.808248 0.292375 -0.511128 -0.408389 0.642571 -0.648321 -0.572536 0.672339 -0.469215 
0.487429 -0.0562868 0.871346 0.523478 0.0269589 0.851613 0.487329 0.445163 0.751226 
-0.88808 -0.363185 -0.281798 -0.216643 0.584384 -0.782023 -0.915832 -0.278395 -0.289393 
-0.631206 0.684107 -0.365482 -0.470187 0.787813 -0.397839 0.556541 0.610335 0.563696 
-0.703946 -0.518747 -0.485141 0.204031 0.887522 0.413129 -0.654756 -0.655515 -0.37629 
-0.543454 -0.547817 -0.636045 0.09328 0.742843 -0.662935 -0.0158432 0.829322 -0.558547 
0.14609 0.903103 -0.403811 -0.141704 0.810915 -0.567747 -0.870023 -0.240894 -0.430152 
0.45502 0.156083 0.876696 0.0460672 0.819479 -0.571255 0.472819 -0.0353826 0.880449 
-0.93526 -0.273566 -0.22461 -0.814392 -0.518061 -0.261494 -0.91359 0.195122 -0.356763 
-0.7316 0.610443 -0.303515 0.11475 0.881133 -0.458735 -0.494707 0.770066 -0.402818 
-0.444129 -0.874351 -0.195601 -0.504952 -0.851942 -0.138626 -0.781333 -0.577154 -0.237512 
0.287823 -0.375906 0.880825 0.457043 0.219825 0.861852 -0.996527 -0.0504219 -0.0662617 
0.483241 0.692099 0.536169 -0.981641 -0.139335 -0.130252 0.357602 0.921468 -0.151716 
0.0664755 0.94209 -0.328705 -0.399895 -0.916002 -0.0319982 0.291498 -0.462581 0.837286 
0.354784 -0.150629 0.922735 0.446312 -0.184295 0.875694 0.578154 0.0342542 0.815208 
0.441686 0.0911254 0.89253 0.447336 0.177663 0.876542 -0.927592 0.0361108 -0.371845 
-0.965929 -0.141778 -0.21652 -0.914927 0.364426 -0.173499 -0.908926 0.358938 -0.212172 
-0.580926 -0.729463 0.361122 -0.37125 -0.916726 0.147602 0.0994342 -0.840194 0.533092 
0.0708976 -0.930208 0.36012 0.254112 -0.423537 0.869507 -0.963507 -0.2395 0.119557 
0.389753 -0.114514 0.913772 0.440314 -0.125245 0.889066 -0.488316 -0.578807 0.653093 
-0.268881 -0.671474 0.690526 -0.32684 -0.85908 0.393899 -0.0333917 -0.633416 0.773091 
-0.58494 -0.801045 0.127169 0.0953401 -0.635569 0.766135 -0.885331 -0.335144 0.322286 
-0.937106 -0.321758 0.13529 -0.953996 -0.141367 0.264401 0.476014 0.176777 0.861487 
-0.836117 -0.489639 -0.24731 -0.80514 -0.520685 -0.283965 0.529197 0.680086 0.507379 
0.206995 0.963389 -0.170394 -0.423372 0.790316 -0.442896 0.256138 -0.423255 0.86905 
-0.199133 -0.3372 0.920132 -0.308708 -0.252982 0.916897 -0.0522984 -0.372964 0.926371 
-0.889961 -0.163066 0.425887 -0.958201 -0.218073 0.185189 -0.947004 -0.303499 -0.105222 
-0.788363 0.608203 -0.0925882 -0.607812 0.773406 -0.18002 -0.137578 0.886172 -0.442461 
-0.669496 0.69558 -0.260661 -0.240435 -0.825154 0.511187 -0.441452 -0.787149 0.430716 
-0.723091 -0.581911 0.372182 -0.564133 -0.677388 0.472123 -0.363845 -0.618051 0.696872 
0.0504404 -0.570012 0.820087 -0.0310688 -0.582967 0.811902 -0.839176 -0.353227 0.413539 
-0.106729 -0.401282 0.909715 -0.217319 -0.331644 0.918033 -0.673286 -0.252753 0.694839 
0.30331 0.055651 0.951265 -0.864664 -0.172926 0.471648 -0.896614 -0.434302 -0.0863983 
-0.873138 -0.487473 -0.000227893 -0.926897 0.363651 -0.0928489 0.447151 0.878895 0.166132 
-0.8225 0.522324 -0.225105 -0.694245 0.675607 -0.248151 -0.403626 0.866722 -0.293053 
0.178295 0.922364 -0.342717 -0.388934 -0.432894 0.813224 -0.565053 -0.429191 0.704635 
-0.577999 -0.245574 0.77821 -0.485903 -0.299957 0.820929 -0.616729 -0.261083 0.742618 
-0.433662 -0.177113 0.883498 -0.707349 -0.186815 0.681731 -0.825442 -0.29859 0.47905 
-0.76356 -0.533623 0.363625 0.544558 0.812507 0.20806 0.462745 0.857081 0.226449 
-0.460901 0.876036 -0.141881 -0.211876 0.965854 -0.149112 -0.415294 -0.227371 0.880814 
-0.66529 -0.212309 0.715761 -0.631312 -0.400024 0.664399 -0.76435 -0.64456 -0.0176678 
0.527932 0.297772 0.795374 0.566509 0.687947 0.453649 0.259976 0.964968 0.0353495 
-0.752952 0.654302 -0.0703728 -0.0737829 -0.270945 0.959763 -0.528355 -0.30775 0.791284 
-0.404868 -0.213501 0.8891 -0.0727303 -0.175512 0.981787 -0.59663 -0.708926 0.376107 
-0.677316 -0.71847 0.158252 0.568079 0.297416 0.767353 -0.965276 -0.260039 0.0249415 
-0.992863 0.114177 0.0344459 0.187102 0.981653 -0.0367428 -0.583545 0.812043 0.00777905 
-0.354024 0.932432 -0.0723699 -0.273409 -0.235623 0.932593 -0.506436 -0.607429 0.612007 
-0.347321 -0.601689 0.719263 -0.942497 0.328552 0.0612702 0.431159 0.871836 0.232389 
-0.696925 0.716184 0.0371111 -0.21074 0.973703 0.0865529 -0.166455 -0.421988 0.89119 
0.000575784 -0.472789 0.881175 0.0199928 -0.429729 0.902736 -0.227919 -0.506529 0.831554 
0.338299 -0.0951629 0.936215 -0.214536 -0.701639 0.679468 -0.802108 -0.580825 0.138801 
0.220754 0.953437 0.205491 -0.492003 0.853088 0.173706 -0.265004 0.960137 0.0889355 
-0.462201 -0.784305 0.413807 -0.964544 -0.00927453 0.26376 -0.917754 0.338258 0.208111 
-0.65727 0.71788 0.229444 0.366458 0.866273 0.339529 -0.156932 0.951911 0.263129 
-0.51762 -0.718068 0.46524 -0.664303 -0.598897 0.447241 0.0851041 -0.483762 0.871052 
-0.838539 -0.439871 0.321505 0.594989 0.540971 0.594423 0.579354 0.537198 0.612999 
-0.88696 0.331738 0.321327 0.327223 0.782246 0.53011 -0.829608 0.317373 0.459375 
-0.713716 0.604545 0.353744 -0.32803 0.876266 0.352923 -0.268214 -0.663149 0.69878 
-0.193205 -0.719641 0.666925 -0.463487 -0.592181 0.659167 -0.201798 -0.549318 0.81088 
-0.59334 -0.598272 0.538533 0.172545 -0.360591 0.916626 0.247755 -0.193476 0.949307 
0.378614 -0.137227 0.915325 0.524816 0.292794 0.799274 0.550949 0.441887 0.707949 
-0.427274 0.694924 0.578374 0.0325531 0.769104 0.638294 0.0175602 0.897314 0.441042 
-0.315539 -0.545902 0.776161 -0.526117 -0.601175 0.60149 -0.224676 -0.588816 0.776412 
0.0874036 -0.368131 0.925657 0.353048 -0.113854 0.928652 0.459747 -0.0807645 0.88437 
-0.290758 0.693706 0.658962 -0.0823203 -0.419403 0.90406 0.203089 -0.36732 0.907651 
-0.923268 -0.345271 0.168417 -0.511468 -0.447158 0.733792 -0.965958 -0.246269 0.0792239 
-0.85783 -0.351822 0.374633 -0.878322 0.0250171 0.477414 -0.83394 0.27306 0.479565 
0.18715 0.416009 0.889894 -0.634261 0.508812 0.582085 0.328259 0.502349 0.799932 
-0.09645 0.591591 0.800448 -0.211234 -0.377674 0.901522 0.0511247 -0.303307 0.95152 
-0.0824167 -0.547205 0.832931 -0.690747 -0.135797 0.71023 -0.598045 -0.58682 0.545881 
-0.174692 -0.397957 0.900618 0.224139 0.217118 0.950064 0.0146662 0.335271 0.942008 
-0.320936 0.388416 0.86379 -0.198399 0.0750028 0.977247 0.222397 -0.0885707 0.970925 
-0.0965126 -0.150602 -0.983872 -0.730824 -0.493478 -0.471568 -0.831241 -0.133801 -0.539571 
0.246903 0.368244 -0.896345 0.295781 0.119495 -0.947752 -0.484183 0.401826 -0.77724 
-0.321406 0.498624 -0.805029 -0.0529258 -0.330299 -0.942391 -0.274502 -0.416114 -0.86689 
-0.700657 -0.24347 -0.670673 -0.9327 0.0612367 -0.355415 -0.829742 -0.298159 -0.471836 
-0.863535 0.0403809 -0.502669 -0.134879 0.361782 -0.922454 -0.688876 0.067274 -0.721751 
-0.743771 0.0849162 -0.663019 -0.428426 0.401114 -0.809666 -0.1947 -0.455708 -0.868575 
-0.262528 -0.619788 -0.739555 -0.62635 -0.537479 -0.564625 -0.608735 -0.31675 -0.727401 
0.487948 0.051895 -0.871329 0.450749 0.263472 -0.852882 0.464305 0.342495 -0.816773 
-0.779478 0.244519 -0.576737 0.122268 0.437126 -0.891051 0.130317 0.666454 -0.734069 
-0.134912 -0.681183 -0.719576 -0.547526 -0.531431 -0.646372 -0.396909 -0.708352 -0.583695 
0.137512 -0.388439 -0.911156 -0.883244 -0.0613051 -0.464889 0.388248 0.668469 -0.63436 
-0.904075 0.172419 -0.39105 -0.582689 0.559549 -0.589388 -0.211571 0.758912 -0.615866 
-0.638753 -0.627435 -0.445331 0.444736 -0.250713 -0.859857 -0.758692 -0.389668 -0.522059 
-0.872958 -0.226803 -0.431861 0.525775 0.512807 -0.678668 -0.668167 0.702221 -0.245841 
-0.231433 0.924323 -0.303423 0.22403 -0.397762 -0.889717 -0.608335 -0.723305 -0.32674 
-0.784206 -0.59807 -0.165328 0.565806 -0.0288722 -0.824033 -0.952565 -0.30379 -0.018199 
-0.866104 0.427596 -0.258894 0.130951 0.847769 -0.513945 -0.39792 0.899817 -0.178852 
-0.212096 0.933912 -0.287792 -0.51792 -0.784322 -0.341464 -0.431472 -0.820432 -0.375132 
-0.310991 -0.836285 -0.451567 0.59979 0.243117 -0.76233 -0.965657 0.082009 -0.246537 
-0.899595 0.426109 -0.0957094 -0.715941 0.696479 -0.0484328 0.231457 0.886942 -0.399702 
0.0791354 0.972625 -0.218489 -0.215597 -0.62761 -0.74808 0.0137536 -0.405979 -0.913779 
-0.50638 -0.812535 -0.288734 -0.987739 0.152431 -0.0337244 0.386598 0.756422 -0.527606 
0.325558 0.901879 -0.283947 -0.332679 0.937815 -0.0991348 -0.0901404 -0.159582 -0.983061 
-0.271431 -0.426007 -0.863043 0.148112 -0.135041 -0.979707 -0.465427 -0.749396 -0.470939 
-0.567571 -0.768371 -0.295752 0.374504 -0.0402524 -0.926351 -0.75923 -0.6494 -0.0430013 
0.505008 0.00289913 -0.86311 0.498234 0.182745 -0.847565 0.579248 0.529334 -0.619901 
0.547031 0.699894 -0.459243 0.113413 0.962795 -0.24528 0.015444 -0.198178 -0.980044 
0.193252 -0.0505494 -0.979846 -0.584181 -0.36658 -0.724122 0.2758 -0.00259423 -0.961212 
-0.572961 -0.577518 -0.581539 0.353179 0.0499337 -0.934222 0.554555 0.282678 -0.782663 
-0.321869 0.946709 0.0119498 0.252716 -0.235095 -0.938544 -0.631786 -0.21378 -0.74508 
-0.166052 -0.25194 -0.95339 0.0165994 0.222884 -0.974704 0.258691 0.195739 -0.94592 
0.0171999 0.361193 -0.932333 0.367228 0.0944525 -0.925323 -0.7693 -0.62689 -0.123237 
0.44398 0.0511694 -0.894574 0.469048 0.252285 -0.846372 -0.529079 -0.69407 -0.488204 
-0.736864 -0.579228 -0.348606 -0.0607109 -0.551104 -0.832225 -0.322364 -0.447837 -0.833981 
-0.706357 -0.336243 -0.622897 0.186889 0.0920034 -0.978063 0.418381 0.220211 -0.881173 
-0.90899 -0.343832 -0.23562 -0.785556 -0.616783 0.0497979 0.549461 0.797339 -0.249688 
-0.771041 0.598534 0.217379 -0.0548541 0.994014 0.0944849 -0.654438 0.753898 0.0578675 
-0.330403 -0.822522 -0.462916 0.189091 -0.605985 -0.772675 -0.928078 -0.178981 -0.326555 
-0.965781 -0.162206 0.202378 -0.337379 0.91906 0.203726 0.223886 -0.655647 -0.721112 
-0.853632 -0.448398 -0.26505 -0.94071 -0.259016 -0.219032 -0.919201 -0.102705 -0.380158 
-0.945707 -0.167842 -0.278328 0.468076 0.127628 -0.874423 -0.952159 -0.0928939 -0.291143 
-0.856324 -0.49406 0.150377 0.542894 0.796016 -0.26763 -0.433403 0.832116 0.346043 