# vtk DataFile Version 4.2
vtk output
ASCII
DATASET POLYDATA
POINTS 2916 float
303.198 167.461 134.323 303.169 167.463 134.37 303.134 167.505 134.335 
303.262 167.454 134.392 302.296 167.937 134.418 302.191 167.987 134.482 
302.388 167.933 134.396 302.466 167.839 134.418 302.667 167.823 134.424 
303.202 167.494 134.353 302.137 168.114 134.492 302.398 168.02 134.431 
302.969 167.584 134.399 303.122 167.461 134.507 303.294 167.423 134.497 
303.384 167.459 134.555 302.03 168.069 134.668 302.671 167.69 134.534 
303.107 167.608 134.421 301.691 168.405 134.721 301.354 168.565 134.941 
301.91 168.422 134.611 300.965 169.019 135.081 301.787 168.645 134.717 
302.078 168.514 134.68 299.024 170.29 135.443 298.992 170.313 135.473 
296 171.009 132.017 296 171.009 132.017 296 171.009 132.017 
296 171.009 132.017 296 171.009 132.017 303.514 167.463 134.74 
303.453 167.411 134.691 303.616 167.441 134.941 303.615 167.517 134.936 
301.218 168.58 135.209 300.605 169.216 135.335 302.047 168.723 134.863 
299.186 170.295 135.547 299.314 170.163 135.584 296 171.009 132.017 
298.967 170.38 135.596 299.095 170.459 135.709 306 165.009 134.017 
306 165.009 134.017 306 165.009 134.017 306 165.009 134.017 
303.718 167.429 135.224 306 165.009 134.017 303.806 167.54 135.318 
302.192 168.805 135.055 298.867 170.516 135.944 299.4 170.003 135.957 
300.036 169.802 135.572 298.52 170.989 136.261 298.894 170.832 136.064 
300.029 170.298 135.825 296.733 172.382 136.971 296.482 172.565 137.098 
296.916 172.318 136.901 295.804 173.244 137.323 295.781 173.204 137.374 
295.713 173.354 137.416 294.127 174.526 137.728 294.187 174.501 137.735 
294.131 174.549 137.745 306 165.009 134.017 304.289 167.447 136.134 
302.28 167.838 135.988 303.983 167.461 135.798 297.124 171.882 137.085 
297.584 171.879 136.801 298.175 171.992 136.902 295.75 173.054 137.568 
295.478 173.465 137.595 296.162 172.949 137.262 294.369 174.405 137.809 
295.686 173.603 137.606 294.121 174.606 137.841 294.043 174.71 138.076 
304.712 167.527 136.693 304.649 167.472 136.596 304.755 167.501 136.769 
304.793 167.584 136.937 301.376 168.439 137.336 301.933 168.131 137.079 
303.493 169.118 136.768 299.133 169.981 137.41 298.605 171.981 137.008 
294.479 174.083 138.249 294.912 174.045 137.86 293.658 175.028 138.573 
294.5 174.507 137.956 293.837 175.028 138.444 293.548 175.29 138.802 
291.936 176.784 139.771 291.968 176.742 139.824 291.908 176.82 139.831 
304.71 167.485 136.784 304.791 167.53 136.91 303.697 167.579 137.171 
304.858 167.805 137.482 304.497 168.828 137.703 299.36 172.035 137.444 
295.314 173.051 138.628 295.837 174.089 138.056 293.459 175.152 138.869 
293.188 175.561 139.238 291.805 176.925 140.143 292.163 176.542 139.896 
292.189 176.65 139.824 293.535 175.669 139.19 291.913 176.906 140.003 
304.338 167.684 138.186 295.163 173.138 139.047 292.726 176.188 139.7 
292.768 175.783 139.789 292.361 176.269 139.965 293.084 175.286 139.775 
291.796 176.869 140.303 291.803 177.035 140.262 291.703 177.096 140.566 
291.825 177.169 140.539 304.753 167.823 139.017 305.596 168.192 139.435 
305.573 168.75 139.535 292.951 176.632 140.202 291.506 177.278 141.146 
291.039 177.926 141.953 291.67 177.416 141.113 305.765 168.559 139.855 
305.945 168.521 140.466 301.896 171.933 139.525 295.384 172.965 140.06 
291.56 177.041 141.29 291.294 177.439 141.701 291.095 177.755 142.045 
291.001 178.009 142.403 291.271 177.703 141.701 305.058 168.07 140.661 
306.003 168.446 141.089 291.021 178.345 143.121 305.492 168.188 141.058 
306.425 168.78 142.027 306.923 169.329 142.833 306.626 169.662 142.313 
305.818 170.68 142.225 290.81 178.324 143.59 291.765 178.203 142.792 
290.81 178.577 143.758 290.716 178.576 143.986 290.734 178.746 144.24 
306.898 168.998 143.273 307.403 169.441 143.714 291.07 177.707 143.659 
292.556 178.276 143.492 291.043 178.901 144.392 308.085 169.39 145.007 
308.202 169.485 145.182 307.572 169.237 144.453 308.281 169.677 145.29 
307.554 170.348 144.362 307.953 170.11 144.783 291.57 177.305 144.905 
290.677 178.799 145.009 290.938 178.187 144.963 290.703 179.006 145.254 
308.181 169.422 145.235 290.68 178.89 145.55 290.767 178.887 146.048 
290.694 179.048 145.907 290.677 179.024 145.565 309.028 170.353 146.601 
308.017 171.336 145.969 308.523 171.096 146.316 290.807 179.232 146.508 
290.785 179.802 147.676 290.759 179.794 147.601 291.383 178.513 147.685 
292.27 179.484 147.214 290.878 179.68 147.749 290.883 179.627 147.364 
301.64 170.725 147.175 310.867 171.299 149.598 291.098 179.649 148.271 
291.196 179.794 148.298 310.907 170.881 149.99 311.85 171.35 150.795 
312.097 171.502 151.059 309.992 170.279 150.09 312.099 171.393 151.046 
312.16 171.382 151.16 312.346 171.677 151.559 291.845 179.692 150.171 
312.182 171.393 151.367 312.572 171.697 152.008 301.486 171.878 150.809 
312.471 172.412 152.128 292.783 180.015 150.759 313.011 172.146 152.986 
292.552 179.648 152.324 313.263 172.664 153.607 292.615 179.817 152.331 
294.44 180.052 152.818 293.125 179.309 153.94 293.245 179.968 153.801 
313.044 171.577 154.587 313.734 172.162 155.017 314.12 172.575 155.438 
314.439 173.254 155.674 298.391 174.727 155.136 293.42 179.733 155.049 
293.322 179.815 154.64 314.825 173.76 156.277 312.854 175.014 155.358 
294.544 178.081 156.379 293.541 179.882 155.204 293.732 179.79 155.946 
293.902 180.038 155.713 306.476 171.556 156.441 311.986 171.495 156.877 
313.672 172.015 157.19 315.933 173.941 157.682 315.213 175.48 157.612 
316.338 175.321 158.345 310.502 176.864 156.737 294.193 180.025 156.949 
294.511 180.205 156.792 316.556 173.568 158.69 316.359 173.863 158.208 
317.09 174.564 158.794 315.154 176.308 158.249 316.612 176.017 158.943 
296.088 177.038 158.373 314.078 177.084 158.526 299.005 179.743 157.438 
295.506 180.365 157.055 316.335 173.256 158.824 318.294 174.237 159.963 
318.372 175.296 159.827 318.718 175.066 160.031 318.284 175.867 159.952 
309.971 177.792 158.159 296.68 180.454 158.868 316.368 172.984 159.957 
319.751 174.596 160.867 319.448 175.53 160.546 316.878 177.904 160.609 
294.771 179.13 160.588 294.614 179.699 160.467 294.75 180.05 160.019 
295.389 180.366 159.772 320.957 173.955 162.21 321.333 174.074 162.323 
319.917 173.937 161.622 295.88 177.818 161.183 319.234 177.26 161.173 
294.704 179.871 160.725 297.529 180.569 160.763 298.154 180.487 160.562 
295.98 180.476 160.621 320.418 173.779 162.341 303.022 173.986 161.383 
323.248 175.68 163.006 322.884 176.102 162.697 295.146 178.851 161.761 
295.131 179.328 162.562 313.823 179.578 161.759 294.859 179.922 161.183 
321.545 173.864 163.127 322.079 174.017 163.03 321.879 173.942 163.05 
322.962 177.157 162.944 295.126 179.571 162.723 295.251 179.69 163.139 
296.193 180.414 162.616 322.274 174.026 163.531 319.398 173.616 163.563 
323.068 174.443 164.148 323.557 174.781 164.235 325.569 176.915 164.387 
295.633 179.16 164.239 295.465 179.416 163.886 319.451 179.953 163.384 
295.501 179.722 163.91 304.252 180.651 163.813 328.05 181.075 165.136 
322.329 174.137 164.147 301.777 175.115 164.061 327.266 176.599 165.786 
329.244 178.001 165.564 335.54 179.12 166.6 326.315 179.002 164.55 
334.511 179.628 166.114 335.839 179.936 166.376 295.651 179.752 164.621 
295.733 179.734 164.961 335.698 180.707 166.228 324.57 175.24 165.766 
326.352 176.069 165.889 332.317 177.914 166.686 332.448 177.847 166.862 
338.707 180.652 167.518 337.357 180.983 166.752 337.919 180.895 167.013 
339.079 180.747 167.704 295.831 179.831 165.09 339.46 181.239 167.777 
296.128 179.95 165.453 325.824 181.928 165.625 336.394 182.058 166.484 
339.429 181.811 167.632 339.576 181.709 167.737 336.761 183.314 166.9 
339.259 182.574 167.679 327.753 176.413 166.669 326.885 176.187 167 
333.461 178.119 167.48 296.536 178.699 166.32 338.589 180.255 167.934 
296.098 179.479 166.032 339.203 180.675 167.909 296.252 179.831 166.083 
296.498 179.755 166.777 339.639 181.221 168.037 340.156 182.176 168.387 
340.166 182.431 168.377 339.645 183.067 168.161 336.859 185.266 167.709 
325.948 176.03 167.469 328.656 176.665 167.376 309.08 175.974 168.46 
330.531 177.354 167.942 339.234 180.598 168.108 338.995 180.414 168.213 
339.973 181.557 168.596 340.225 182.15 168.625 340.194 182.64 168.5 
339.529 184.187 168.92 339.851 183.55 168.858 337.958 186.582 168.883 
338.797 185.988 169.179 325.526 175.978 167.607 328.47 176.714 167.74 
328.447 177.072 168.641 339.376 180.708 168.65 297.014 179.724 168.038 
299.029 180.715 167.723 339.749 181.239 168.819 340.137 181.94 168.862 
340.302 182.594 168.832 339.419 185.539 169.726 339.63 185.021 169.787 
339.124 186.139 169.655 338.692 188.086 170.129 302.738 176.579 168.969 
326.735 176.741 168.637 298.431 178.207 168.952 335.194 178.985 169.298 
297.198 179.354 168.415 297.479 179.204 168.85 338.238 180.278 169.558 
297.248 179.642 168.505 297.204 179.823 168.253 297.563 179.688 169.023 
339.935 181.668 169.14 339.848 184.289 170.177 339.612 185.497 170.154 
339.666 185.694 170.682 339.48 187.47 170.952 336.723 188.925 169.789 
338.844 189.26 170.681 301.143 177.015 169.292 300.211 177.737 170.024 
303.71 177.431 170.833 306.771 177.215 170.654 326.759 177.394 169.618 
335.928 179.684 170.28 297.768 179.433 169.486 298.071 179.803 169.646 
303.554 181.658 169.842 339.866 183.191 170.278 339.822 188.675 171.772 
335.705 191.724 171.491 336.679 192.403 171.593 341.451 192.408 172.673 
341.749 193.483 172.635 342.604 194.323 173.164 341.051 195.027 172.25 
342.712 195.099 172.981 342.96 195.13 173.221 297.905 179.471 169.692 
338.977 181.391 170.46 299.184 180.137 170.226 339.454 182.462 170.747 
339.545 185.896 171.964 339.942 188.323 172.682 341.294 191.608 173.006 
335.509 193.347 172.633 342.446 193.809 173.294 342.805 194.36 173.547 
342.93 194.809 173.367 343.202 195.372 173.529 339.172 195.609 172.442 
340.594 197.789 172.979 343.656 197.848 173.493 344.173 198.494 173.983 
[...]
POINT_DATA 2916
SCALARS scalars float
LOOKUP_TABLE default
1 1 1 1 1 1 1 1 1 
1 1 1 1 1 1 1 1 1 
1 1 1 1 1 1 1 1 1 
1 1 1 1 1 1 1 1 1 
1 1 1 1 1 1 1 1 1 
1 1 1 1 1 1 1 1 1 
1 1 1 1 1 1 1 1 1 
1 1 1 1 1 1 1 1 1 
1 1 1 1 1 1 1 1 1 
1 1 1 1 1 1 1 1 1 
1 1 1 1 1 1 1 1 1 
1 1 1 1 1 1 1 1 1 
1 1 1 1 1 1 1 1 1 
1 1 1 1 1 1 1 1 1 
1 1 1 1 1 1 1 1 1 
1 1 1 1 1 1 1 1 1 
1 1 1 1 1 1 1 1 1 
1 1 1 1 1 1 1 1 1 
1 1 1 1 1 1 1 1 1 
1 1 1 1 1 1 1 1 1 
1 1 1 1 1 1 1 1 1 
1 1 1 1 1 1 1 1 1 
1 1 1 1 1 1 1 1 1 
1 1 1 1 1 1 1 1 1 
1 1 1 1 1 1 1 1 1 
1 1 1 1 1 1 1 1 1 
1 1 1 1 1 1 1 1 1 
1 1 1 1 1 1 1 1 1 
1 1 1 1 1 1 1 1 1 
1 1 1 1 1 1 1 1 1 
1 1 1 1 1 1 1 1 1 
1 1 1 1 1 1 1 1 1 
1 1 1 1 1 1 1 1 1 
1 1 1 1 1 1 1 1 1 
1 1 1 1 1 1 1 1 1 
1 1 1 1 1 1 1 1 1 
1 1 1 1 1 1 1 1 1 
1 1 1 1 1 1 1 1 1 
1 1 1 1 1 1 1 1 1 
1 1 1 1 1 1 1 1 1 
1 1 1 1 1 1 1 1 1 
1 1 1 1 1 1 1 1 1 
1 1 1 1 1 1 1 1 1 
1 1 1 1 1 1 1 1 1 
1 1 1 1 1 1 1 1 1 
1 1 1 1 1 1 1 1 1 
1 1 1 1 1 1 1 1 1 
1 1 1 1 1 1 1 1 1 
1 1 1 1 1 1 1 1 1 
1 1 1 1 1 1 1 1 1 
1 1 1 1 1 1 1 1 1 
1 1 1 1 1 1 1 1 1 
1 1 1 1 1 1 1 1 1 
1 1 1 1 1 1 1 1 1 
1 1 1 1 1 1 1 1 1 
1 1 1 1 1 1 1 1 1 
1 1 1 1 1 1 1 1 1 
1 1 1 1 1 1 1 1 1 
1 1 1 1 1 1 1 1 1 
1 1 1 1 1 1 1 1 1 
1 1 1 1 1 1 1 1 1 
1 1 1 1 1 1 1 1 1 
1 1 1 1 1 1 1 1 1 
1 1 1 1 1 1 1 1 1 
1 1 1 1 1 1 1 1 1 
1 1 1 1 1 1 1 1 1 
1 1 1 1 1 1 1 1 1 
1 1 1 1 1 1 1 1 1 
1 1 1 1 1 1 1 1 1 
1 1 1 1 1 1 1 1 1 
1 1 1 1 1 1 1 1 1 
1 1 1 1 1 1 1 1 1 
1 1 1 1 1 1 1 1 1 
1 1 1 1 1 1 1 1 1 
1 1 1 1 1 1 1 1 1 
1 1 1 1 1 1 1 1 1 
1 1 1 1 1 1 1 1 1 
1 1 1 1 1 1 1 1 1 
1 1 1 1 1 1 1 1 1 
1 1 1 1 1 1 1 1 1 
1 1 1 1 1 1 1 1 1 
1 1 1 1 1 1 1 1 1 
1 1 1 1 1 1 1 1 1 
1 1 1 1 1 1 1 1 1 
1 1 1 1 1 1 1 1 1 
1 1 1 1 1 1 1 1 1 
1 1 1 1 1 1 1 1 1 
1 1 1 1 1 1 1 1 1 
1 1 1 1 1 1 1 1 1 
1 1 1 1 1 1 1 1 1 
1 1 1 1 1 1 1 1 1 
1 1 1 1 1 1 1 1 1 
1 1 1 1 1 1 1 1 1 
1 1 1 1 1 1 1 1 1 
1 1 1 1 1 1 1 1 1 
1 1 1 1 1 1 1 1 1 
1 1 1 1 1 1 1 1 1 
1 1 1 1 1 1 1 1 1 
1 1 1 1 1 1 1 1 1 
1 1 1 1 1 1 1 1 1 
1 1 1 1 1 1 1 1 1 
1 1 1 1 1 1 1 1 1 
1 1 1 1 1 1 1 1 1 
1 1 1 1 1 1 1 1 1 
1 1 1 1 1 1 1 1 1 
1 1 1 1 1 1 1 1 1 
1 1 1 1 1 1 1 1 1 
1 1 1 1 1 1 1 1 1 
1 1 1 1 1 1 1 1 1 
1 1 1 1 1 1 1 1 1 
1 1 1 1 1 1 1 1 1 
1 1 1 1 1 1 1 1 1 
1 1 1 1 1 1 1 1 1 
1 1 1 1 1 1 1 1 1 
1 1 1 1 1 1 1 1 1 
1 1 1 1 1 1 1 1 1 
1 1 1 1 1 1 1 1 1 
1 1 1 1 1 1 1 1 1 
1 1 1 1 1 1 1 1 1 
1 1 1 1 1 1 1 1 1 
1 1 1 1 1 1 1 1 1 
1 1 1 1 1 1 1 1 1 
1 1 1 1 1 1 1 1 1 
1 1 1 1 1 1 1 1 1 
1 1 1 1 1 1 1 1 1 
1 1 1 1 1 1 1 1 1 
1 1 1 1 1 1 1 1 1 
1 1 1 1 1 1 1 1 1 
1 1 1 1 1 1 1 1 1 
1 1 1 1 1 1 1 1 1 
1 1 1 1 1 1 1 1 1 
1 1 1 1 1 1 1 1 1 
1 1 1 1 1 1 1 1 1 
1 1 1 1 1 1 1 1 1 
1 1 1 1 1 1 1 1 1 
1 1 1 1 1 1 1 1 1 
1 1 1 1 1 1 1 1 1 
1 1 1 1 1 1 1 1 1 
1 1 1 1 1 1 1 1 1 
1 1 1 1 1 1 1 1 1 
1 1 1 1 1 1 1 1 1 
1 1 1 1 1 1 1 1 1 
1 1 1 1 1 1 1 1 1 
1 1 1 1 1 1 1 1 1 
1 1 1 1 1 1 1 1 1 
1 1 1 1 1 1 1 1 1 
1 1 1 1 1 1 1 1 1 
1 1 1 1 1 1 1 1 1 
1 1 1 1 1 1 1 1 1 
1 1 1 1 1 1 1 1 1 
1 1 1 1 1 1 1 1 1 
1 1 1 1 1 1 1 1 1 
1 1 1 1 1 1 1 1 1 
1 1 1 1 1 1 1 1 1 
1 1 1 1 1 1 1 1 1 
1 1 1 1 1 1 1 1 1 
1 1 1 1 1 1 1 1 1 
1 1 1 1 1 1 1 1 1 
1 1 1 1 1 1 1 1 1 
1 1 1 1 1 1 1 1 1 
1 1 1 1 1 1 1 1 1 
1 1 1 1 1 1 1 1 1 
1 1 1 1 1 1 1 1 1 
1 1 1 1 1 1 1 1 1 
1 1 1 1 1 1 1 1 1 
1 1 1 1 1 1 1 1 1 
1 1 1 1 1 1 1 1 1 
1 1 1 1 1 1 1 1 1 
1 1 1 1 1 1 1 1 1 
1 1 1 1 1 1 1 1 1 
1 1 1 1 1 1 1 1 1 
1 1 1 1 1 1 1 1 1 
1 1 1 1 1 1 1 1 1 
1 1 1 1 1 1 1 1 1 
1 1 1 1 1 1 1 1 1 
1 1 1 1 1 1 1 1 1 
1 1 1 1 1 1 1 1 1 
1 1 1 1 1 1 1 1 1 
1 1 1 1 1 1 1 1 1 
1 1 1 1 1 1 1 1 1 
1 1 1 1 1 1 1 1 1 
1 1 1 1 1 1 1 1 1 
1 1 1 1 1 1 1 1 1 
1 1 1 1 1 1 1 1 1 
1 1 1 1 1 1 1 1 1 
1 1 1 1 1 1 1 1 1 
1 1 1 1 1 1 1 1 1 
1 1 1 1 1 1 1 1 1 
1 1 1 1 1 1 1 1 1 
1 1 1 1 1 1 1 1 1 
1 1 1 1 1 1 1 1 1 
1 1 1 1 1 1 1 1 1 
1 1 1 1 1 1 1 1 1 
1 1 1 1 1 1 1 1 1 
1 1 1 1 1 1 1 1 1 
1 1 1 1 1 1 1 1 1 
1 1 1 1 1 1 1 1 1 
1 1 1 1 1 1 1 1 1 
1 1 1 1 1 1 1 1 1 
1 1 1 1 1 1 1 1 1 
1 1 1 1 1 1 1 1 1 
1 1 1 1 1 1 1 1 1 
1 1 1 1 1 1 1 1 1 
1 1 1 1 1 1 1 1 1 
1 1 1 1 1 1 1 1 1 
1 1 1 1 1 1 1 1 1 
1 1 1 1 1 1 1 1 1 
1 1 1 1 1 1 1 1 1 
1 1 1 1 1 1 1 1 1 
1 1 1 1 1 1 1 1 1 
1 1 1 1 1 1 1 1 1 
1 1 1 1 1 1 1 1 1 
1 1 1 1 1 1 1 1 1 
1 1 1 1 1 1 1 1 1 
1 1 1 1 1 1 1 1 1 
1 1 1 1 1 1 1 1 1 
1 1 1 1 1 1 1 1 1 
1 1 1 1 1 1 1 1 1 
1 1 1 1 1 1 1 1 1 
1 1 1 1 1 1 1 1 1 
1 1 1 1 1 1 1 1 1 
1 1 1 1 1 1 1 1 1 
1 1 1 1 1 1 1 1 1 
1 1 1 1 1 1 1 1 1 
1 1 1 1 1 1 1 1 1 
1 1 1 1 1 1 1 1 1 
1 1 1 1 1 1 1 1 1 
1 1 1 1 1 1 1 1 1 
1 1 1 1 1 1 1 1 1 
1 1 1 1 1 1 1 1 1 
1 1 1 1 1 1 1 1 1 
1 1 1 1 1 1 1 1 1 
1 1 1 1 1 1 1 1 1 
1 1 1 1 1 1 1 1 1 
1 1 1 1 1 1 1 1 1 
1 1 1 1 1 1 1 1 1 
1 1 1 1 1 1 1 1 1 
1 1 1 1 1 1 1 1 1 
1 1 1 1 1 1 1 1 1 
1 1 1 1 1 1 1 1 1 
1 1 1 1 1 1 1 1 1 
1 1 1 1 1 1 1 1 1 
1 1 1 1 1 1 1 1 1 
1 1 1 1 1 1 1 1 1 
1 1 1 1 1 1 1 1 1 
1 1 1 1 1 1 1 1 1 
1 1 1 1 1 1 1 1 1 
1 1 1 1 1 1 1 1 1 
1 1 1 1 1 1 1 1 1 
1 1 1 1 1 1 1 1 1 
1 1 1 1 1 1 1 1 1 
1 1 1 1 1 1 1 1 1 
1 1 1 1 1 1 1 1 1 
1 1 1 1 1 1 1 1 1 
1 1 1 1 1 1 1 1 1 
1 1 1 1 1 1 1 1 1 
1 1 1 1 1 1 1 1 1 
1 1 1 1 1 1 1 1 1 
1 1 1 1 1 1 1 1 1 
1 1 1 1 1 1 1 1 1 
1 1 1 1 1 1 1 1 1 
1 1 1 1 1 1 1 1 1 
1 1 1 1 1 1 1 1 1 
1 1 1 1 1 1 1 1 1 
1 1 1 1 1 1 1 1 1 
1 1 1 1 1 1 1 1 1 
1 1 1 1 1 1 1 1 1 
1 1 1 1 1 1 1 1 1 
1 1 1 1 1 1 1 1 1 
1 1 1 1 1 1 1 1 1 
1 1 1 1 1 1 1 1 1 
1 1 1 1 1 1 1 1 1 
1 1 1 1 1 1 1 1 1 
1 1 1 1 1 1 1 1 1 
1 1 1 1 1 1 1 1 1 
1 1 1 1 1 1 1 1 1 
1 1 1 1 1 1 1 1 1 
1 1 1 1 1 1 1 1 1 
1 1 1 1 1 1 1 1 1 
1 1 1 1 1 1 1 1 1 
1 1 1 1 1 1 1 1 1 
1 1 1 1 1 1 1 1 1 
1 1 1 1 1 1 1 1 1 
1 1 1 1 1 1 1 1 1 
1 1 1 1 1 1 1 1 1 
1 1 1 1 1 1 1 1 1 
1 1 1 1 1 1 1 1 1 
1 1 1 1 1 1 1 1 1 
1 1 1 1 1 1 1 1 1 
1 1 1 1 1 1 1 1 1 
1 1 1 1 1 1 1 1 1 
1 1 1 1 1 1 1 1 1 
1 1 1 1 1 1 1 1 1 
1 1 1 1 1 1 1 1 1 
1 1 1 1 1 1 1 1 1 
1 1 1 1 1 1 1 1 1 
1 1 1 1 1 1 1 1 1 
1 1 1 1 1 1 1 1 1 
1 1 1 1 1 1 1 1 1 
1 1 1 1 1 1 1 1 1 
1 1 1 1 1 1 1 1 1 
1 1 1 1 1 1 1 1 1 
1 1 1 1 1 1 1 1 1 
1 1 1 1 1 1 1 1 1 
1 1 1 1 1 1 1 1 1 
1 1 1 1 1 1 1 1 1 
1 1 1 1 1 1 1 1 1 
1 1 1 1 1 1 1 1 1 
1 1 1 1 1 1 1 1 1 
1 1 1 1 1 1 1 1 1 
1 1 1 1 1 1 1 1 1 
1 1 1 1 1 1 1 1 1 
1 1 1 1 1 1 1 1 1 
1 1 1 1 1 1 1 1 1 
1 1 1 1 1 1 1 1 1 
1 1 1 1 1 1 1 1 1 
1 1 1 1 1 1 1 1 1 
1 1 1 1 1 1 1 1 1 
1 1 1 1 1 1 1 1 1 
1 1 1 1 1 1 1 1 1 
1 1 1 1 1 1 1 1 1 
1 1 1 1 1 1 1 1 1 
1 1 1 1 1 1 1 1 1 
1 1 1 1 1 1 1 1 1 

NORMALS Normals float
-0.356709 -0.917559 -0.175624 -0.342684 -0.912668 -0.22272 -0.548895 -0.75455 -0.359677 
0.578886 -0.574145 -0.579006 -0.51879 -0.680622 -0.517311 -0.680944 -0.537879 -0.496993 
-0.0585795 0.0700352 -0.995823 -0.198776 -0.576636 -0.792451 0.265265 0.328052 -0.906651 
0.520385 0.600764 -0.606862 -0.455642 -0.0255003 -0.889798 0.180792 0.479515 -0.858708 
-0.430777 -0.484013 -0.761685 -0.325087 -0.94564 -0.00909533 0.149425 -0.954647 -0.257529 
0.800199 0.276821 -0.532026 -0.650868 -0.723185 -0.231029 -0.435396 -0.821597 -0.367979 
0.322484 0.7163 -0.618804 -0.63546 -0.532597 -0.559045 -0.662647 -0.552874 -0.505202 
-0.20812 0.276706 -0.938147 -0.49805 -0.0468109 -0.865884 0.0281044 0.656832 -0.753513 
0.275714 0.58787 -0.76052 -0.462554 -0.870924 0.165936 -0.93243 -0.250544 -0.260389 
0 -0.159641 -0.987175 0 -1 0 -0.963361 -0.268207 4.13429e-08 
0.963361 -0.268207 4.13429e-08 0 0.5547 -0.83205 0.846257 -0.0967025 -0.523926 
0.428501 -0.857069 -0.286042 0.832833 -0.379736 -0.402729 0.724648 0.466689 -0.507038 
-0.613452 -0.748952 -0.250493 -0.659655 -0.425043 -0.619834 0.205769 0.782017 -0.588311 
0.563839 0.591148 -0.576741 -0.529944 -0.848024 -0.0038435 0 -0.159641 0.987175 
-0.235484 0.841924 -0.485501 0.0925359 0.762911 -0.639847 0 -0.178885 -0.98387 
0 -1 0 -0.961524 -0.274721 3.6843e-08 0.961524 -0.274721 3.6843e-08 
0.427053 -0.892124 -0.147448 0 0.447214 -0.894427 0.884756 -0.105959 -0.453849 
0.388505 0.722486 -0.571906 -0.803238 -0.102746 -0.58673 -0.646015 -0.666276 -0.37248 
-0.399655 -0.146929 -0.904814 -0.178597 0.431092 -0.884457 -0.160994 0.571534 -0.804631 
0.195442 0.661372 -0.724147 -0.508485 -0.384289 -0.770561 -0.583563 -0.238058 -0.77639 
-0.137957 0.260201 -0.955648 -0.35151 0.17752 -0.919199 -0.679439 -0.38534 -0.6244 
-0.521094 0.24659 -0.817101 -0.70806 -0.180742 -0.682629 0.444917 0.640209 -0.626244 
0.208617 0.716254 -0.665928 0 -0.178885 0.98387 0.716233 0.365067 -0.594758 
-0.434061 -0.90072 0.0171636 0.332191 -0.920793 -0.204425 -0.662524 -0.562292 -0.494862 
-0.307099 -0.0460788 -0.950561 0.151952 0.647462 -0.746796 -0.73314 -0.448527 -0.511203 
-0.583794 -0.0257847 -0.811493 -0.242138 0.114795 -0.963427 -0.344196 -0.828256 -0.442177 
0.0495669 0.583238 -0.810788 -0.224086 0.851173 -0.474647 -0.505062 0.675176 -0.537633 
0.811376 0.291225 -0.50681 0.666045 -0.644199 -0.37602 0.873056 -0.398633 -0.28083 
0.901582 0.31354 -0.298065 -0.448547 -0.872791 0.19246 -0.440473 -0.892921 0.0931441 
0.584754 0.691489 -0.424154 -0.617414 -0.782741 -0.0782049 0.126663 0.728289 -0.673462 
-0.665557 -0.674511 -0.319483 -0.236919 0.0549757 -0.969973 -0.802727 -0.0437401 -0.594741 
0.363013 0.697561 -0.617762 -0.118288 0.706616 -0.697641 -0.538591 0.448934 -0.713006 
-0.100297 0.33259 -0.937723 -0.610283 -0.743154 -0.274366 -0.873861 -0.203766 -0.441414 
0.13357 -0.978383 0.157877 0.782359 -0.620524 0.0535261 -0.211378 -0.95716 0.197898 
0.918294 -0.369545 -0.142028 0.712759 0.562492 -0.419019 0.319458 0.788019 -0.526282 
-0.766981 -0.609872 -0.199492 0.255913 0.723591 -0.641034 -0.849758 -0.274128 -0.450294 
-0.735081 0.0523944 -0.675951 -0.879393 0.281282 -0.384121 -0.497591 -0.554694 -0.666872 
-0.0826699 -0.182038 -0.97981 0.000459801 0.722169 -0.691716 0.00915005 0.885672 -0.464222 
0.0934749 -0.974227 0.205291 -0.785198 -0.599722 -0.154267 -0.429066 0.0746092 -0.900186 
-0.859276 -0.480704 -0.174839 -0.669609 -0.593195 -0.446926 -0.825862 -0.563866 -0.00272135 
-0.888626 -0.433531 -0.149651 -0.534854 0.713019 -0.45336 -0.826824 0.420372 -0.373696 
-0.196378 0.881241 -0.429942 0.160012 -0.979528 0.122154 0.808761 -0.566474 -0.158153 
0.800671 0.426587 -0.420655 0.417026 0.753861 -0.507724 -0.915622 0.0757966 -0.394831 
-0.779838 0.444517 -0.440747 -0.381399 0.779935 -0.496222 0.915423 0.153317 -0.372149 
0.949198 -0.159715 -0.271136 0.451439 0.788218 -0.418228 -0.637446 -0.755968 0.148915 
-0.844784 -0.531948 -0.0580609 -0.851073 -0.522869 -0.0477865 -0.884492 -0.452578 -0.113342 
-0.984432 -0.173771 -0.0264209 -0.681393 0.381336 -0.62473 0.0480856 -0.990104 0.13184 
0.570964 -0.819584 -0.0477649 -0.302107 0.880997 -0.364109 0.364304 -0.929536 0.0569681 
0.737927 -0.665107 -0.114437 0.889774 0.1238 -0.43929 0.874588 0.348478 -0.337133 
0.691065 0.598384 -0.405421 -0.984582 -0.14264 -0.101255 0.138306 0.9103 -0.390162 
-0.666709 0.628361 -0.400827 -0.968662 0.178944 -0.172259 -0.644087 0.713369 -0.276146 
0.676087 -0.717285 -0.168548 0.849876 -0.276847 -0.448405 -0.871841 -0.487528 0.0470162 
0.417392 0.870119 -0.262064 -0.0952186 0.943466 -0.317499 0.761831 -0.538805 -0.359588 
0.900632 -0.312965 -0.301522 0.520496 -0.840918 -0.148121 0.865452 -0.234008 -0.442981 
0.667585 0.310314 -0.676783 0.781755 0.11764 -0.612389 -0.73549 -0.628363 0.253403 
-0.973826 -0.225837 0.0256814 -0.791151 -0.532818 0.30031 -0.736135 0.66047 -0.147932 
0.698515 -0.707679 -0.106142 -0.959235 -0.267917 0.0899339 -0.871805 -0.453004 0.186397 
-0.992418 -0.00469045 0.122821 -0.94721 0.319551 -0.0261021 0.815516 0.0938112 -0.571081 
0.518894 0.676855 -0.522126 0.683076 0.403012 -0.609088 -0.966833 0.245326 0.0710557 
-0.888212 -0.167425 0.427842 -0.801016 -0.559486 0.212953 -0.824772 -0.501645 0.260968 
0.310914 0.916799 -0.250623 -0.735978 -0.638289 0.225662 -0.943264 0.327878 -0.052435 
-0.482682 -0.813676 0.323958 0.803451 -0.000589419 -0.595371 -0.903535 -0.231056 0.360885 
-0.403884 0.908443 0.107741 0.747257 -0.522292 -0.410875 0.711776 -0.378965 -0.591405 
0.805758 0.134306 -0.576816 0.301417 -0.952804 0.0362227 0.78288 -0.241416 -0.573427 
0.775408 -0.534115 -0.336844 0.914992 -0.0351696 -0.401937 -0.940424 0.051491 0.336082 
0.702803 -0.703642 -0.104668 0.910929 -0.249985 -0.328201 -0.411815 -0.890636 0.192809 
0.736382 0.395531 -0.548904 0.00513053 0.996296 -0.0858417 0.921341 -0.231629 -0.312217 
-0.849535 -0.466976 0.245405 0.86455 0.168083 -0.473604 -0.802333 0.533449 0.267758 
0.0572781 0.993661 -0.0967368 -0.961784 -0.060067 0.267139 -0.375864 0.921316 0.0995146 
0.505886 -0.862599 -0.00152572 0.860632 -0.441014 -0.254597 0.840999 -0.396087 -0.368557 
0.836345 0.0208104 -0.547808 -0.537013 -0.825383 0.174243 -0.9412 0.16245 0.296231 
-0.831861 0.501339 0.238049 0.738337 0.172572 -0.651979 0.500906 0.62556 -0.598137 
-0.673005 -0.728801 0.126152 -0.752195 0.614627 0.237563 -0.842004 0.483803 0.238672 
-0.441408 0.892287 0.0947796 -0.151956 -0.919161 0.363389 0.127493 -0.917894 0.375787 
0.264445 -0.923701 0.277211 0.756395 -0.238329 -0.609152 0.469185 0.539263 -0.699329 
0.635239 0.291118 -0.715347 0.360113 0.788132 -0.499167 -0.481705 0.85982 0.169324 
-0.290858 0.941274 0.171477 0.65471 -0.454703 -0.603821 0.718006 -0.193112 -0.668712 
0.650046 0.0191075 -0.759654 0.407053 0.600562 -0.68821 0.49467 0.495173 -0.714216 
-0.695485 -0.718406 0.0139083 0.255779 0.756412 -0.602012 0.238864 0.940681 -0.240965 
-0.0788593 0.996372 0.0319925 0.673545 -0.669439 -0.31335 0.575773 -0.0623082 -0.815232 
0.571038 0.0581482 -0.818862 0.567831 0.00180726 -0.823143 0.523961 0.347894 -0.777454 
0.222901 0.897906 -0.379579 -0.0957055 0.988443 -0.11756 0.298166 -0.954387 0.0155773 
0.542241 -0.204162 -0.815042 0.526761 0.141787 -0.838104 0.374339 0.635021 -0.675735 
-0.89031 -0.451938 0.0556836 -0.963023 -0.191153 0.189863 -0.502175 0.859838 -0.092192 
-0.38895 0.915621 -0.101766 0.298573 -0.910541 -0.285952 0.417003 -0.713322 -0.563276 
0.334822 -0.834495 -0.437621 -0.629045 -0.75124 0.199853 0.329988 0.485662 -0.809469 
-0.699257 0.693927 0.171772 0.0405922 0.997641 -0.0553548 0.0624901 0.987443 -0.145089 
-0.10052 0.993957 -0.0441107 0.173029 -0.976804 -0.126156 -0.355559 -0.9142 0.194464 
0.629842 -0.267939 -0.729045 0.54952 0.0802333 -0.831619 -0.905488 -0.376715 0.195392 
-0.878019 -0.418136 0.232904 0.145434 0.820847 -0.552321 -0.817672 0.533217 0.217009 
0.205756 -0.944124 -0.257475 0.539585 -0.755536 -0.371502 0.23585 -0.966503 0.101222 
0.469963 0.14483 -0.870723 -0.979466 -0.00476992 0.201556 -0.966085 0.0150448 0.257787 
-0.309376 0.945574 0.100877 0.335245 -0.942122 -0.00424122 0.13956 -0.960998 0.238757 
0.496894 -0.854862 0.149354 0.598397 -0.771117 -0.217485 0.445003 -0.330102 -0.832469 
-0.904396 -0.353501 0.238967 -0.965332 -0.116968 0.233352 0.0548894 0.781931 -0.620944 
-0.79226 0.577098 0.198196 -0.0714803 0.947713 -0.311015 0.136315 0.252156 -0.958037 
0.209869 -0.925161 0.31628 -0.170191 -0.941998 0.289267 0.390692 -0.83458 -0.388377 
0.305756 -0.688055 -0.658099 0.386967 -0.753133 -0.532022 0.266368 0.13967 -0.953698 
0.258684 -0.385867 -0.885544 0.378735 -0.35165 -0.856097 -0.959119 0.116108 0.258089 
-0.926828 0.107489 0.359772 0.198093 0.00963997 -0.980136 0.418548 -0.907312 -0.0400323 
0.33071 -0.939116 -0.0932316 0.34813 -0.721274 -0.598806 0.377702 -0.841631 -0.386003 
0.431454 -0.545691 -0.71838 0.368888 -0.274499 -0.888016 0.36271 -0.325033 -0.873382 
0.532252 -0.413648 -0.73865 -0.724969 0.636055 0.264298 0.680261 -0.355143 -0.641186 
-0.580811 0.752975 0.309335 -0.0105379 0.592338 -0.805621 0.0809464 0.240929 -0.967161 
0.455669 -0.0329679 -0.889538 0.705557 -0.0614626 -0.705983 0.288191 0.356356 -0.888795 
0.530394 0.248487 -0.810516 0.270878 -0.962614 0.000209111 0.305701 -0.950589 0.0541101 
0.359682 -0.926413 -0.1113 -0.802981 -0.533315 0.266077 0.376013 -0.834809 -0.40213 
-0.929707 0.0261357 0.367373 0.584913 -0.673183 -0.452439 -0.751887 0.574946 0.32265 
-0.654835 0.69663 0.293083 0.823141 -0.433851 -0.36635 0.905279 -0.246023 -0.346328 
0.724611 0.215354 -0.654646 0.586815 0.436268 -0.682142 0.155509 0.402973 -0.901903 
0.164966 -0.945008 0.282393 0.38265 -0.92369 0.0193928 -0.00403203 -0.883012 0.469333 
0.284266 -0.910501 0.3003 0.735329 -0.632798 -0.242605 0.419088 -0.907753 -0.0186826 
0.884393 -0.464851 -0.0419755 0.952989 -0.234675 -0.191678 0.901523 0.174141 -0.396146 
0.711189 0.392405 -0.583291 0.769085 0.45386 -0.450021 0.479009 0.43484 -0.762538 
0.655916 0.353121 -0.667143 0.196722 -0.928136 0.316014 0.19734 -0.92102 0.335826 
0.273896 -0.840178 0.468062 0.54917 -0.79439 0.259532 -0.860876 0.292586 0.416276 
-0.239512 0.961982 0.131243 0.814483 -0.577421 0.0565952 0.918127 -0.389655 0.0721864 
0.993341 -0.00882368 0.114872 0.815411 0.365448 -0.448945 0.902705 0.243468 -0.354749 
0.769743 0.34367 -0.537947 0.622516 0.319545 -0.714398 -0.109736 -0.955128 0.275117 
0.194076 -0.895706 0.400057 -0.562415 -0.76682 0.309316 0.311592 -0.921179 0.23311 
-0.864278 -0.245594 0.438985 -0.830275 -0.334538 0.445789 0.431173 -0.827577 0.359453 
-0.798153 0.398099 0.452182 -0.616483 0.711082 0.338099 -0.83096 0.279258 0.481166 
0.82189 -0.448869 0.350733 0.982356 0.178075 0.0571503 0.892465 0.35503 -0.278317 
0.953862 0.245105 -0.17341 0.925611 0.131573 -0.35487 0.0139836 0.464854 -0.885277 
0.507433 0.197715 -0.838702 -0.306073 -0.930287 0.202203 -0.347531 -0.740942 0.574654 
-0.00116337 -0.864115 0.503292 0.0105282 -0.807864 0.589275 0.132435 -0.818408 0.559168 
0.290569 -0.788227 0.542465 -0.817052 -0.237113 0.52555 -0.5661 0.69716 0.439886 
-0.384203 0.921986 0.0482767 0.8784 -0.0490559 0.475401 0.894167 -0.0473337 -0.445225 
-0.272748 0.513016 -0.813893 -0.100958 0.417809 -0.902908 0.455336 -0.294924 -0.840053 
0.631338 -0.28484 -0.721304 0.654762 -0.34372 -0.673159 0.190128 0.077436 -0.978701 
0.59063 -0.0496442 -0.805414 0.76273 -0.136931 -0.632055 -0.741898 -0.180791 0.64568 
0.549537 -0.581121 0.600256 -0.220298 0.920196 0.323586 0.789863 -0.239242 0.564694 
0.955999 -0.142123 0.256647 0.925469 -0.351755 0.140623 0.770673 -0.32836 -0.546116 
-0.411799 0.529033 -0.741988 0.72408 -0.448007 -0.524401 0.892896 -0.354463 -0.277656 
0.847681 -0.344332 -0.403575 0.873707 -0.0553198 -0.483296 -0.242125 0.417915 -0.875627 
-0.263257 0.415307 -0.870756 0.688136 -0.105304 -0.717899 0.840319 -0.0876579 -0.534958 
-0.501596 -0.525798 0.686977 -0.579023 0.178036 0.795635 -0.438114 0.705676 0.556846 
-0.316184 0.810101 0.493724 -0.402055 0.881815 0.246484 -0.432863 0.848073 0.305615 
0.166955 -0.777663 0.606108 0.854621 -0.434228 -0.284725 0.805476 -0.550873 0.218512 
0.928437 -0.145015 -0.342018 0.91845 -0.304597 -0.252328 -0.283765 0.587364 -0.757945 
-0.0193168 0.391479 -0.919984 0.55892 -0.15341 -0.814907 0.480332 -0.0529573 -0.875487 
0.745229 -0.226345 -0.627217 0.754783 -0.0937488 -0.649241 -0.115189 0.206541 -0.971634 
0.837846 -0.247948 -0.48635 0.204572 0.303234 -0.930698 0.513383 0.0546455 -0.856418 
0.489539 0.352108 -0.797729 -0.205686 -0.598986 0.773892 -0.485906 -0.0766309 0.870645 
-0.543228 0.838231 -0.0476681 -0.245118 0.878059 -0.41101 0.883415 -0.46142 0.0816612 
0.907723 -0.123803 -0.400888 0.543589 -0.0717874 -0.836276 0.849464 -0.369286 -0.376881 
-0.100753 0.312757 -0.944474 0.888564 -0.406016 -0.213554 0.806809 -0.443825 -0.389972 
0.752751 -0.472757 -0.458112 -0.297228 0.152358 -0.942572 0.895994 -0.236894 -0.375602 
0.752 0.0766716 -0.654688 0.0826761 0.493536 -0.865787 -0.387804 0.325259 -0.862447 
0.895257 0.0828476 -0.43778 -0.389819 -0.328687 0.860236 -0.126314 -0.55201 0.824215 
-0.349685 -0.125557 0.928416 -0.29863 -0.221245 0.92837 -0.438805 0.425308 0.791557 
-0.53891 0.672507 0.507258 0.687405 -0.509909 0.517172 0.896059 -0.443924 0.00315439 
0.958656 -0.262067 -0.110907 -0.438838 0.536219 -0.721034 0.966262 -0.24441 0.0812492 