# vtk DataFile Version 4.2
vtk output
ASCII
DATASET POLYDATA
POINTS 3013 float
152.866 133.133 93.9388 153.047 133.002 94.031 151.301 137.067 93.5644 
151.055 139.843 93.37 152.084 141.041 93.3748 149.848 143.343 93.4424 
149.612 149.645 93.8784 153.799 126.004 94.7866 153.979 125.902 94.7781 
154.108 125.806 94.8335 154.045 125.961 94.7841 152.843 130.174 94.3165 
151.806 132.436 93.9888 150.829 133.746 93.9533 152.892 133.806 93.9748 
153.478 134.031 94.1563 153.318 137.838 93.9973 150.979 147.682 93.7888 
147.736 153.129 94.6112 148.134 154.282 94.7563 148.81 154.973 94.9442 
147.837 155.826 95.1378 154.801 121.061 95.7374 153.716 122.206 95.4305 
155.268 122.147 95.7809 154.609 125.019 95.1887 153.989 126.567 94.856 
153.832 128.281 94.7765 154.465 131.386 94.8859 153.795 140.011 94.3818 
147.998 144.837 94.0576 150.11 152.935 94.6496 149.584 155.108 95.1641 
148.116 157.108 95.6262 155.019 119.076 96.2145 155.354 120.008 96.0492 
152.131 125.128 95.0375 155.296 126.117 95.5198 154.948 127.115 95.3427 
150.438 128.961 94.7237 155.387 128.88 95.7434 154.953 135.377 95.0013 
154.323 141.882 95.1183 154.017 144.333 95.2579 155.002 146.511 95.0152 
155.002 146.511 95.0152 155.002 146.511 95.0152 155.002 146.511 95.0153 
155.002 146.511 95.0152 155.002 146.511 95.0153 155.002 146.511 95.0153 
155.002 146.511 95.0153 152.795 149.252 95.3292 151.662 153.2 95.5988 
152.216 152.228 95.6872 147.322 157.211 95.7039 146.539 158.564 96.3803 
148.153 157.993 96.1341 147.007 158.931 96.4918 147.916 158.547 96.4375 
146.578 159.175 96.7001 146.407 159.238 96.8409 147 159.317 96.8123 
155.346 115.889 97.0471 156.9 116.007 97.2842 154.182 116.964 96.8055 
154.377 118.4 96.3782 153.766 119.293 96.1675 155.708 119.991 96.1356 
155.932 119.717 96.2854 156.001 119.989 96.2755 156.844 119.113 96.9989 
156.663 120.957 96.78 156.074 121.978 96.2662 156.492 122.743 96.6826 
155.486 124.467 95.7494 155.955 125.427 96.2337 155.789 127.887 96.1381 
155.782 130.478 96.0342 155.679 131.834 95.9418 155.235 133.391 95.4198 
156.133 131.093 96.4028 155.767 137.035 96.3865 155.888 136.193 96.7836 
155.713 138.504 96.5363 155.843 137.764 96.9204 155.674 138.99 96.5314 
155.651 138.984 96.5392 155.758 138.648 96.7551 155.56 139.147 96.4294 
155.423 139.582 96.2263 155.68 139.263 96.6044 145.64 145.84 95.3926 
155.002 146.511 95.0153 155.002 146.511 95.0153 152.363 152.937 96.156 
145.951 156.378 95.8796 149.995 156.717 96.1061 146.049 159.242 97.2356 
147.581 159.261 96.9677 146.605 159.485 97.1809 146.993 159.458 97.0746 
157.276 112.704 98.1286 156.537 112.721 98.0418 157.513 113.36 97.9915 
157.73 114.593 97.6353 157.704 114.706 97.6281 157.768 114.609 97.6629 
157.606 114.305 97.7859 157.048 120.062 97.1383 156.71 126.039 97.3628 
155.89 132.172 96.2543 156.155 131.159 96.5023 155.96 132.656 96.5086 
155.774 134.629 96.3337 155.951 134.044 96.8593 155.61 138.241 96.3072 
155.694 138.818 96.8165 155.709 138.846 96.7349 155.618 139.776 96.8241 
155.679 139.231 96.6581 155.131 142.048 96.4956 154.977 143.021 96.5832 
154.046 147.129 96.4818 152.613 153.044 96.5743 144.379 156.911 97.1075 
149.793 157.681 96.7492 145.128 158.525 97.4332 147.238 159.524 97.5718 
146.523 159.542 97.4253 146.615 159.573 97.6084 147.122 159.524 97.2923 
149.06 158.858 97.6658 149.64 158.584 97.7921 155.836 111.179 98.6963 
153.302 114.401 98.0219 158.11 114.571 98.1171 157.824 114.574 97.7725 
158.111 116.241 98.1714 157.608 118.528 97.7478 156.561 127.509 97.4009 
156.189 132.758 97.4131 155.955 135.299 97.7651 155.377 141.744 97.8493 
155.181 143.185 97.7802 154.578 146.24 97.9434 153.962 149.63 98.0127 
153.759 150.64 97.7429 153.771 151.053 98.2109 153.184 153.297 97.8383 
152.145 155.941 97.8151 152.04 156.155 97.8282 152.157 156.092 98.0288 
151.184 157.138 97.5881 143.572 157.573 98.4211 151.083 157.641 98.2101 
144.211 158.384 98.7124 145.413 159.087 98.2635 160.606 106.242 100.607 
158.678 108.714 99.5944 159.845 107.691 100.159 156.106 109.068 99.5472 
159.054 114.436 99.166 157.658 122.989 98.9575 159.004 126.013 99.0087 
159.004 126.013 99.0087 159.004 126.013 99.0087 159.004 126.013 99.0088 
159.004 126.013 99.0088 143.4 128.125 98.7063 156.453 130.613 98.3429 
156.101 132.854 98.7961 155.769 135.093 99.0392 154.375 146.847 98.7909 
153.73 151.685 98.6501 153.695 152.066 98.9177 152.623 155.273 98.5078 
152.193 156.173 98.4643 142.934 157.745 99.6069 145.186 158.987 99.3088 
150.303 158.237 99.2861 151.317 157.573 98.9597 143.965 158.392 99.5004 
161.243 103.551 101.42 160.831 104.872 100.995 161.258 104.525 101.191 
160.07 106.615 100.45 162 110.009 100.017 162 110.009 100.017 
162 110.009 100.017 162 110.009 100.017 162 110.009 100.017 
159.893 112.909 100.028 159.672 114.523 100.184 146.693 118.046 99.9088 
158.436 120.29 99.8372 158.437 120.185 99.825 158.385 120.382 99.7698 
158.409 120.374 99.8792 158.417 119.854 99.8189 158.289 120.749 99.7115 
158.149 121.203 99.6202 157.175 125.306 99.1584 159.004 126.013 99.0088 
156.819 126.774 99.6094 156.025 132.004 99.5388 154.652 143.36 99.7309 
140.811 150.176 99.0437 153.269 153.705 99.3912 150.45 157.915 100.087 
151.795 157.011 99.4281 161.133 101.428 102.078 162.151 104.754 101.66 
161.149 107.912 100.921 162 110.009 100.018 160.216 113.698 101.147 
158.571 118.942 99.8218 158.431 120.213 99.8755 158.364 120.356 100.018 
157.131 123.732 101 155.398 131.042 101.195 153.612 147.577 100.703 
153.225 148.11 101.314 153.325 152.904 99.9798 140.073 154.148 100.45 
152.513 154.623 100.633 151.677 156.628 100.338 143.247 158.021 101.121 
146.988 158.553 101.04 144.534 158.455 100.893 163.137 98.9008 103.059 
164.363 97.9824 103.588 163.95 100.736 102.884 158.102 102.997 101.936 
162.999 104.466 102.352 163.439 104.078 102.769 162.115 106.232 101.716 
162.668 105.758 102.233 159.566 115.488 101.274 152.53 148.661 102.306 
138.175 152.516 101.8 152.951 152.591 100.956 151.862 154.642 101.666 
140.161 156.013 101.693 141.161 156.882 102.075 149.268 157.797 101.417 
163.332 97.3447 103.819 164.422 98.5677 103.511 164.945 99.9851 103.675 
164.383 101.26 103.242 163.116 105.35 102.711 163.431 105.468 103.49 
162.841 106.677 102.932 162.011 108.49 102.276 162.283 108.323 102.994 
160.873 111.624 103.002 160.222 113.369 102.527 159.699 114.032 103.277 
158.998 115.687 103.112 153.554 132.974 103.217 135.768 135.349 102.938 
137.921 154.153 102.86 138.322 155.352 103.323 138.585 155.663 103.389 
140.63 156.583 102.667 142.208 157.188 102.701 142.554 157.036 103.329 
144.196 157.34 103.196 138.698 155.774 103.459 166.053 94.9256 105.241 
166.076 95.7891 104.915 166.398 96.6073 104.931 165.269 100.266 104.027 
165.057 101.141 104.001 164.651 101.999 103.734 164.575 102.913 104.113 
163.355 105.858 103.85 163.031 106.63 103.67 162.689 107.31 104.279 
160.198 112.901 103.379 159.751 113.357 103.877 137.723 154.868 104.193 
138.137 155.355 103.804 138.08 155.364 103.933 150.461 155.746 102.56 
138.402 155.545 103.884 143.842 156.948 103.812 166.624 93.6061 105.985 
165.687 94.3329 105.488 166.892 95.3619 105.439 161.303 96.4559 104.769 
165.591 101.324 105.241 163.625 105.207 104.967 162.603 107.103 105.1 
162.355 107.764 104.698 159.747 112.832 104.329 135.389 151.727 104.51 
136.065 153.598 105.351 136.683 154.132 105.204 164.745 93.615 105.903 
168.34 95.0493 106.54 167.739 96.1194 106.077 166.791 98.7508 105.643 
165.246 102.089 105.614 162.522 106.678 105.856 132.784 143.61 105.217 
132.981 149.17 106.062 135.704 153.368 105.898 135.383 153.225 106.474 
135.757 153.505 106.368 136.903 154.21 106.068 137.514 154.398 106.379 
147.061 155.355 105.012 143.877 156.168 104.977 169.353 91.548 107.699 
170.306 91.3438 108.249 170.197 91.4313 108.158 168.745 92.8463 107.063 
168.673 93.7502 106.859 159.041 95.1433 106.838 168.5 95.9109 106.974 
164.595 102.818 106.91 161.769 106.256 107.476 134.407 152.618 107.274 
134.494 152.703 107.416 134.354 152.654 107.405 136.645 153.952 106.628 
170.48 88.8831 109.403 169.898 91.586 107.989 170.69 91.5989 108.662 
169.863 93.5061 107.968 169.781 94.14 108.062 169.585 95.0007 108.283 
152.696 118.455 108.453 133.243 120.071 107.643 130.575 147.633 108.302 
132.423 149.937 107.223 146.69 149.924 107.916 133.062 151.338 107.776 
147.374 152.023 106.711 133.584 151.876 108.097 134.248 152.483 107.656 
133.038 151.607 108.242 134.323 152.627 107.482 139.736 154.413 107.42 
141.808 154.497 107.381 165.139 89.6178 108.895 169.527 95.4229 108.971 
130.402 148.215 109.094 131.077 149.368 109.248 131.571 150.025 109.21 
131.929 150.488 109.127 132.159 150.761 108.907 132.371 150.976 108.887 
132.45 151.001 108.552 132.947 151.411 108.644 138.053 153.397 108.469 
144.018 153.374 107.952 171.713 85.6215 111.651 168.795 87.0534 110.352 
171.659 90.4453 109.734 172.318 90.5508 110.605 170.923 93.1919 109.844 
146.622 100.546 109.642 128.205 143.385 109.547 129.791 147.853 110.064 
130.19 148.455 110.289 130.747 149.152 110.295 130.577 149.038 110.278 
132.526 150.683 109.873 133.337 151.15 109.739 173.677 88.4 111.897 
173.89 88.5801 112.274 172.992 90.3015 111.679 172.291 91.2866 111.095 
172.693 90.9548 111.789 171.207 92.9143 110.719 168.512 96.0205 111.148 
126.224 141.24 111.239 128.254 146.039 111.187 128.909 147.004 111.087 
128.88 147.012 111.361 129.114 147.277 111.149 129.391 147.537 111.202 
134.214 150.657 110.944 143.43 151.487 109.414 173.66 86.7602 111.98 
173.127 90.2826 112.062 172.833 90.807 112.171 145.341 98.749 111.769 
125.945 141.954 111.982 126.464 143.362 112.195 128.852 146.905 111.737 
130.251 147.996 111.794 131.341 148.725 111.756 132.66 149.557 111.549 
136.894 150.135 111.919 137.582 149.948 112.116 174.152 82.6933 114.204 
174.869 83.0914 114.078 170.319 84.1818 112.985 175.218 83.9052 113.83 
174.935 86.6472 113.123 174.22 88.9385 113.533 172.169 91.4426 113.012 
[...]
POINT_DATA 3013
SCALARS scalars float
LOOKUP_TABLE default
1 1 1 1 1 1 1 1 1 
1 1 1 1 1 1 1 1 1 
1 1 1 1 1 1 1 1 1 
1 1 1 1 1 1 1 1 1 
1 1 1 1 1 1 1 1 1 
1 1 1 1 1 1 1 1 1 
1 1 1 1 1 1 1 1 1 
1 1 1 1 1 1 1 1 1 
1 1 1 1 1 1 1 1 1 
1 1 1 1 1 1 1 1 1 
1 1 1 1 1 1 1 1 1 
1 1 1 1 1 1 1 1 1 
1 1 1 1 1 1 1 1 1 
1 1 1 1 1 1 1 1 1 
1 1 1 1 1 1 1 1 1 
1 1 1 1 1 1 1 1 1 
1 1 1 1 1 1 1 1 1 
1 1 1 1 1 1 1 1 1 
1 1 1 1 1 1 1 1 1 
1 1 1 1 1 1 1 1 1 
1 1 1 1 1 1 1 1 1 
1 1 1 1 1 1 1 1 1 
1 1 1 1 1 1 1 1 1 
1 1 1 1 1 1 1 1 1 
1 1 1 1 1 1 1 1 1 
1 1 1 1 1 1 1 1 1 
1 1 1 1 1 1 1 1 1 
1 1 1 1 1 1 1 1 1 
1 1 1 1 1 1 1 1 1 
1 1 1 1 1 1 1 1 1 
1 1 1 1 1 1 1 1 1 
1 1 1 1 1 1 1 1 1 
1 1 1 1 1 1 1 1 1 
1 1 1 1 1 1 1 1 1 
1 1 1 1 1 1 1 1 1 
1 1 1 1 1 1 1 1 1 
1 1 1 1 1 1 1 1 1 
1 1 1 1 1 1 1 1 1 
1 1 1 1 1 1 1 1 1 
1 1 1 1 1 1 1 1 1 
1 1 1 1 1 1 1 1 1 
1 1 1 1 1 1 1 1 1 
1 1 1 1 1 1 1 1 1 
1 1 1 1 1 1 1 1 1 
1 1 1 1 1 1 1 1 1 
1 1 1 1 1 1 1 1 1 
1 1 1 1 1 1 1 1 1 
1 1 1 1 1 1 1 1 1 
1 1 1 1 1 1 1 1 1 
1 1 1 1 1 1 1 1 1 
1 1 1 1 1 1 1 1 1 
1 1 1 1 1 1 1 1 1 
1 1 1 1 1 1 1 1 1 
1 1 1 1 1 1 1 1 1 
1 1 1 1 1 1 1 1 1 
1 1 1 1 1 1 1 1 1 
1 1 1 1 1 1 1 1 1 
1 1 1 1 1 1 1 1 1 
1 1 1 1 1 1 1 1 1 
1 1 1 1 1 1 1 1 1 
1 1 1 1 1 1 1 1 1 
1 1 1 1 1 1 1 1 1 
1 1 1 1 1 1 1 1 1 
1 1 1 1 1 1 1 1 1 
1 1 1 1 1 1 1 1 1 
1 1 1 1 1 1 1 1 1 
1 1 1 1 1 1 1 1 1 
1 1 1 1 1 1 1 1 1 
1 1 1 1 1 1 1 1 1 
1 1 1 1 1 1 1 1 1 
1 1 1 1 1 1 1 1 1 
1 1 1 1 1 1 1 1 1 
1 1 1 1 1 1 1 1 1 
1 1 1 1 1 1 1 1 1 
1 1 1 1 1 1 1 1 1 
1 1 1 1 1 1 1 1 1 
1 1 1 1 1 1 1 1 1 
1 1 1 1 1 1 1 1 1 
1 1 1 1 1 1 1 1 1 
1 1 1 1 1 1 1 1 1 
1 1 1 1 1 1 1 1 1 
1 1 1 1 1 1 1 1 1 
1 1 1 1 1 1 1 1 1 
1 1 1 1 1 1 1 1 1 
1 1 1 1 1 1 1 1 1 
1 1 1 1 1 1 1 1 1 
1 1 1 1 1 1 1 1 1 
1 1 1 1 1 1 1 1 1 
1 1 1 1 1 1 1 1 1 
1 1 1 1 1 1 1 1 1 
1 1 1 1 1 1 1 1 1 
1 1 1 1 1 1 1 1 1 
1 1 1 1 1 1 1 1 1 
1 1 1 1 1 1 1 1 1 
1 1 1 1 1 1 1 1 1 
1 1 1 1 1 1 1 1 1 
1 1 1 1 1 1 1 1 1 
1 1 1 1 1 1 1 1 1 
1 1 1 1 1 1 1 1 1 
1 1 1 1 1 1 1 1 1 
1 1 1 1 1 1 1 1 1 
1 1 1 1 1 1 1 1 1 
1 1 1 1 1 1 1 1 1 
1 1 1 1 1 1 1 1 1 
1 1 1 1 1 1 1 1 1 
1 1 1 1 1 1 1 1 1 
1 1 1 1 1 1 1 1 1 
1 1 1 1 1 1 1 1 1 
1 1 1 1 1 1 1 1 1 
1 1 1 1 1 1 1 1 1 
1 1 1 1 1 1 1 1 1 
1 1 1 1 1 1 1 1 1 
1 1 1 1 1 1 1 1 1 
1 1 1 1 1 1 1 1 1 
1 1 1 1 1 1 1 1 1 
1 1 1 1 1 1 1 1 1 
1 1 1 1 1 1 1 1 1 
1 1 1 1 1 1 1 1 1 
1 1 1 1 1 1 1 1 1 
1 1 1 1 1 1 1 1 1 
1 1 1 1 1 1 1 1 1 
1 1 1 1 1 1 1 1 1 
1 1 1 1 1 1 1 1 1 
1 1 1 1 1 1 1 1 1 
1 1 1 1 1 1 1 1 1 
1 1 1 1 1 1 1 1 1 
1 1 1 1 1 1 1 1 1 
1 1 1 1 1 1 1 1 1 
1 1 1 1 1 1 1 1 1 
1 1 1 1 1 1 1 1 1 
1 1 1 1 1 1 1 1 1 
1 1 1 1 1 1 1 1 1 
1 1 1 1 1 1 1 1 1 
1 1 1 1 1 1 1 1 1 
1 1 1 1 1 1 1 1 1 
1 1 1 1 1 1 1 1 1 
1 1 1 1 1 1 1 1 1 
1 1 1 1 1 1 1 1 1 
1 1 1 1 1 1 1 1 1 
1 1 1 1 1 1 1 1 1 
1 1 1 1 1 1 1 1 1 
1 1 1 1 1 1 1 1 1 
1 1 1 1 1 1 1 1 1 
1 1 1 1 1 1 1 1 1 
1 1 1 1 1 1 1 1 1 
1 1 1 1 1 1 1 1 1 
1 1 1 1 1 1 1 1 1 
1 1 1 1 1 1 1 1 1 
1 1 1 1 1 1 1 1 1 
1 1 1 1 1 1 1 1 1 
1 1 1 1 1 1 1 1 1 
1 1 1 1 1 1 1 1 1 
1 1 1 1 1 1 1 1 1 
1 1 1 1 1 1 1 1 1 
1 1 1 1 1 1 1 1 1 
1 1 1 1 1 1 1 1 1 
1 1 1 1 1 1 1 1 1 
1 1 1 1 1 1 1 1 1 
1 1 1 1 1 1 1 1 1 
1 1 1 1 1 1 1 1 1 
1 1 1 1 1 1 1 1 1 
1 1 1 1 1 1 1 1 1 
1 1 1 1 1 1 1 1 1 
1 1 1 1 1 1 1 1 1 
1 1 1 1 1 1 1 1 1 
1 1 1 1 1 1 1 1 1 
1 1 1 1 1 1 1 1 1 
1 1 1 1 1 1 1 1 1 
1 1 1 1 1 1 1 1 1 
1 1 1 1 1 1 1 1 1 
1 1 1 1 1 1 1 1 1 
1 1 1 1 1 1 1 1 1 
1 1 1 1 1 1 1 1 1 
1 1 1 1 1 1 1 1 1 
1 1 1 1 1 1 1 1 1 
1 1 1 1 1 1 1 1 1 
1 1 1 1 1 1 1 1 1 
1 1 1 1 1 1 1 1 1 
1 1 1 1 1 1 1 1 1 
1 1 1 1 1 1 1 1 1 
1 1 1 1 1 1 1 1 1 
1 1 1 1 1 1 1 1 1 
1 1 1 1 1 1 1 1 1 
1 1 1 1 1 1 1 1 1 
1 1 1 1 1 1 1 1 1 
1 1 1 1 1 1 1 1 1 
1 1 1 1 1 1 1 1 1 
1 1 1 1 1 1 1 1 1 
1 1 1 1 1 1 1 1 1 
1 1 1 1 1 1 1 1 1 
1 1 1 1 1 1 1 1 1 
1 1 1 1 1 1 1 1 1 
1 1 1 1 1 1 1 1 1 
1 1 1 1 1 1 1 1 1 
1 1 1 1 1 1 1 1 1 
1 1 1 1 1 1 1 1 1 
1 1 1 1 1 1 1 1 1 
1 1 1 1 1 1 1 1 1 
1 1 1 1 1 1 1 1 1 
1 1 1 1 1 1 1 1 1 
1 1 1 1 1 1 1 1 1 
1 1 1 1 1 1 1 1 1 
1 1 1 1 1 1 1 1 1 
1 1 1 1 1 1 1 1 1 
1 1 1 1 1 1 1 1 1 
1 1 1 1 1 1 1 1 1 
1 1 1 1 1 1 1 1 1 
1 1 1 1 1 1 1 1 1 
1 1 1 1 1 1 1 1 1 
1 1 1 1 1 1 1 1 1 
1 1 1 1 1 1 1 1 1 
1 1 1 1 1 1 1 1 1 
1 1 1 1 1 1 1 1 1 
1 1 1 1 1 1 1 1 1 
1 1 1 1 1 1 1 1 1 
1 1 1 1 1 1 1 1 1 
1 1 1 1 1 1 1 1 1 
1 1 1 1 1 1 1 1 1 
1 1 1 1 1 1 1 1 1 
1 1 1 1 1 1 1 1 1 
1 1 1 1 1 1 1 1 1 
1 1 1 1 1 1 1 1 1 
1 1 1 1 1 1 1 1 1 
1 1 1 1 1 1 1 1 1 
1 1 1 1 1 1 1 1 1 
1 1 1 1 1 1 1 1 1 
1 1 1 1 1 1 1 1 1 
1 1 1 1 1 1 1 1 1 
1 1 1 1 1 1 1 1 1 
1 1 1 1 1 1 1 1 1 
1 1 1 1 1 1 1 1 1 
1 1 1 1 1 1 1 1 1 
1 1 1 1 1 1 1 1 1 
1 1 1 1 1 1 1 1 1 
1 1 1 1 1 1 1 1 1 
1 1 1 1 1 1 1 1 1 
1 1 1 1 1 1 1 1 1 
1 1 1 1 1 1 1 1 1 
1 1 1 1 1 1 1 1 1 
1 1 1 1 1 1 1 1 1 
1 1 1 1 1 1 1 1 1 
1 1 1 1 1 1 1 1 1 
1 1 1 1 1 1 1 1 1 
1 1 1 1 1 1 1 1 1 
1 1 1 1 1 1 1 1 1 
1 1 1 1 1 1 1 1 1 
1 1 1 1 1 1 1 1 1 
1 1 1 1 1 1 1 1 1 
1 1 1 1 1 1 1 1 1 
1 1 1 1 1 1 1 1 1 
1 1 1 1 1 1 1 1 1 
1 1 1 1 1 1 1 1 1 
1 1 1 1 1 1 1 1 1 
1 1 1 1 1 1 1 1 1 
1 1 1 1 1 1 1 1 1 
1 1 1 1 1 1 1 1 1 
1 1 1 1 1 1 1 1 1 
1 1 1 1 1 1 1 1 1 
1 1 1 1 1 1 1 1 1 
1 1 1 1 1 1 1 1 1 
1 1 1 1 1 1 1 1 1 
1 1 1 1 1 1 1 1 1 
1 1 1 1 1 1 1 1 1 
1 1 1 1 1 1 1 1 1 
1 1 1 1 1 1 1 1 1 
1 1 1 1 1 1 1 1 1 
1 1 1 1 1 1 1 1 1 
1 1 1 1 1 1 1 1 1 
1 1 1 1 1 1 1 1 1 
1 1 1 1 1 1 1 1 1 
1 1 1 1 1 1 1 1 1 
1 1 1 1 1 1 1 1 1 
1 1 1 1 1 1 1 1 1 
1 1 1 1 1 1 1 1 1 
1 1 1 1 1 1 1 1 1 
1 1 1 1 1 1 1 1 1 
1 1 1 1 1 1 1 1 1 
1 1 1 1 1 1 1 1 1 
1 1 1 1 1 1 1 1 1 
1 1 1 1 1 1 1 1 1 
1 1 1 1 1 1 1 1 1 
1 1 1 1 1 1 1 1 1 
1 1 1 1 1 1 1 1 1 
1 1 1 1 1 1 1 1 1 
1 1 1 1 1 1 1 1 1 
1 1 1 1 1 1 1 1 1 
1 1 1 1 1 1 1 1 1 
1 1 1 1 1 1 1 1 1 
1 1 1 1 1 1 1 1 1 
1 1 1 1 1 1 1 1 1 
1 1 1 1 1 1 1 1 1 
1 1 1 1 1 1 1 1 1 
1 1 1 1 1 1 1 1 1 
1 1 1 1 1 1 1 1 1 
1 1 1 1 1 1 1 1 1 
1 1 1 1 1 1 1 1 1 
1 1 1 1 1 1 1 1 1 
1 1 1 1 1 1 1 1 1 
1 1 1 1 1 1 1 1 1 
1 1 1 1 1 1 1 1 1 
1 1 1 1 1 1 1 1 1 
1 1 1 1 1 1 1 1 1 
1 1 1 1 1 1 1 1 1 
1 1 1 1 1 1 1 1 1 
1 1 1 1 1 1 1 1 1 
1 1 1 1 1 1 1 1 1 
1 1 1 1 1 1 1 1 1 
1 1 1 1 1 1 1 1 1 
1 1 1 1 1 1 1 1 1 
1 1 1 1 1 1 1 1 1 
1 1 1 1 1 1 1 1 1 
1 1 1 1 1 1 1 1 1 
1 1 1 1 1 1 1 1 1 
1 1 1 1 1 1 1 1 1 
1 1 1 1 1 1 1 1 1 
1 1 1 1 1 1 1 1 1 
1 1 1 1 1 1 1 1 1 
1 1 1 1 1 1 1 1 1 
1 1 1 1 1 1 1 1 1 
1 1 1 1 1 1 1 1 1 
1 1 1 1 1 1 1 1 1 
1 1 1 1 1 1 1 1 1 
1 1 1 1 1 1 1 1 1 
1 1 1 1 1 1 1 1 1 
1 1 1 1 1 1 1 1 1 
1 1 1 1 1 1 1 1 1 
1 1 1 1 1 1 1 1 1 
1 1 1 1 1 1 1 1 1 
1 1 1 1 1 1 1 1 1 
1 1 1 1 1 1 1 1 1 
1 1 1 1 1 1 1 1 1 
1 1 1 1 1 1 1 1 1 
1 1 1 1 1 1 1 1 1 
1 1 1 1 1 1 1 1 1 
1 1 1 1 1 1 1 
NORMALS Normals float
0.17073 -0.0844034 -0.981696 0.321347 -0.129886 -0.938012 0.165826 -0.070639 -0.983622 
-0.285897 -0.07407 -0.955394 0.321342 0.0509377 -0.945592 -0.124336 0.0189383 -0.992059 
-0.0298314 0.134383 -0.99048 -0.0492146 -0.166376 -0.984833 -0.0882414 -0.380518 -0.920554 
0.105541 -0.320677 -0.94129 0.31696 0.0175917 -0.948276 0.263865 -0.148831 -0.953008 
0.0437813 -0.207221 -0.977314 -0.168686 0.0174306 -0.985516 0.205054 0.191231 -0.959887 
0.297513 0.101973 -0.949256 0.494508 -0.0246351 -0.868824 0.438626 0.150428 -0.88599 
-0.368629 0.0675671 -0.927118 -0.114559 0.167228 -0.97924 0.171829 0.292467 -0.940711 
-0.0400853 0.298352 -0.953614 0.240651 -0.160651 -0.957224 0.0516613 -0.189521 -0.980517 
0.422476 -0.0344074 -0.905721 0.534981 -0.058131 -0.842862 0.41644 0.0507841 -0.907744 
0.339401 -0.0206468 -0.940415 0.594698 -0.0447306 -0.802704 0.705989 0.0530691 -0.706232 
-0.466921 -0.0633897 -0.882024 0.273902 0.211652 -0.93818 0.309081 0.281463 -0.908431 
0.190298 0.443454 -0.875862 0.186072 -0.285245 -0.940219 0.247244 -0.02607 -0.968602 
-0.172393 -0.182938 -0.967892 0.572763 -0.000974522 -0.81972 0.701534 0.0431527 -0.711328 
-0.197358 -0.186191 -0.962488 0.699078 6.5066e-05 -0.715045 0.685458 -0.00811173 -0.728067 
0.725789 0.117353 -0.677834 0.838771 0.224872 -0.495879 0.40101 -0.283321 -0.87116 
-0.103364 -0.994074 -0.0336592 -0.841575 -0.157791 -0.516579 0.66704 -0.526986 0.526634 
-0.328125 0.515516 -0.791566 -0.710814 0.396226 0.581161 0.887135 0.354797 -0.295146 
0.173463 0.965533 0.194054 0.763473 0.244447 -0.597791 0.590668 0.365462 -0.719408 
0.666832 0.211316 -0.71462 -0.235399 0.366899 -0.899984 -0.265785 0.379072 -0.886376 
0.260352 0.559624 -0.786789 0.0749291 0.537901 -0.839671 0.226556 0.532966 -0.815242 
-0.177216 0.707414 -0.684222 -0.460218 0.627657 -0.62789 0.0746037 0.772594 -0.630502 
0.021476 -0.274176 -0.96144 0.330261 -0.119042 -0.936353 -0.0715721 -0.297704 -0.951972 
0.157201 -0.37063 -0.91538 -0.115154 -0.256422 -0.959681 0.333042 0.233398 -0.913569 
0.345643 -0.285307 -0.893941 0.548124 0.141244 -0.824385 0.671127 -0.248568 -0.698429 
0.782036 0.0259281 -0.622694 0.610112 -0.0242671 -0.791943 0.75883 -0.00571309 -0.651263 
0.521833 -0.0360082 -0.852287 0.73927 0.0630453 -0.670451 0.723264 -0.0112843 -0.69048 
0.649283 -0.0536939 -0.758649 0.718152 0.171182 -0.674503 0.856853 0.0254038 -0.514934 
0.862218 0.0697915 -0.501706 0.952556 0.0549965 -0.299353 0.969807 0.0386582 -0.24079 
0.644101 0.201777 -0.737848 0.993787 0.105922 0.0341648 0.686507 -0.0262377 -0.72665 
-0.294511 -0.298186 -0.907936 0.966291 0.148011 0.210652 0.9016 0.0320892 -0.431378 
0.711718 -0.0353323 -0.701576 0.976658 0.140547 -0.162437 -0.504597 -0.0117872 -0.863275 
-0.36624 -0.426868 0.826832 0.446836 0.112935 0.887459 0.83947 0.024235 -0.542866 
-0.449736 0.19532 -0.871543 0.440032 0.480096 -0.758868 -0.503316 0.808874 -0.303966 
0.314986 0.814071 -0.487927 -0.180703 0.902443 -0.391079 0.0335333 0.898454 -0.437786 
0.283624 -0.305349 -0.909021 -0.00364427 -0.324081 -0.946022 0.398282 -0.245339 -0.883844 
0.468685 -0.312296 -0.82632 0.692757 0.128178 -0.709689 0.78428 -0.019326 -0.620106 
0.400051 -0.423855 -0.812592 0.783917 -0.00773886 -0.620818 0.929023 0.135211 -0.344433 
0.859161 0.132165 -0.494342 0.927607 0.129875 -0.350254 0.803234 0.20053 -0.560895 
0.937155 0.0173682 -0.34848 0.988395 0.0458714 -0.144817 0.770972 0.192631 -0.607039 
0.851932 0.437746 -0.287385 0.268814 0.280211 0.921532 -0.818531 -0.249929 0.517246 
0.661607 0.196142 0.723744 0.931337 0.148561 -0.332478 0.904303 0.233846 -0.357144 
0.886113 0.210207 -0.413058 0.831024 0.216005 -0.512582 -0.573718 0.353073 -0.739044 
0.465277 0.610975 -0.64049 -0.61364 0.61113 -0.499967 0.223629 0.961573 0.159269 
-0.265216 0.951762 -0.154303 -0.18588 0.980946 0.0565146 0.112192 0.969409 -0.218312 
0.447198 0.808342 -0.38288 0.304276 0.949047 0.0820101 -0.170767 -0.410016 -0.895949 
-0.294371 -0.368983 -0.881588 0.752565 -0.0413707 -0.657217 0.786625 -0.273536 -0.553533 
0.718848 0.0469194 -0.693582 0.777638 -0.00191149 -0.62871 0.917669 0.0287212 -0.396306 
0.981342 0.122176 -0.148464 0.997904 0.0588515 0.0269147 0.990426 0.0867755 0.107358 
0.974411 0.214517 -0.0671314 0.975649 0.210405 -0.0619527 0.968907 0.247345 -0.00634127 
0.918261 0.39081 -0.063748 0.906551 0.257016 -0.334826 0.952436 0.106741 -0.285433 
0.886459 0.3217 -0.332715 0.731134 0.486074 -0.478723 0.883837 0.412582 -0.220473 
0.71667 0.580862 -0.385984 -0.680443 0.567999 -0.463006 0.62251 0.704694 -0.340422 
-0.590176 0.774112 -0.229004 -0.477282 0.866544 -0.145958 0.39065 -0.0954148 -0.915581 
0.257872 -0.232238 -0.937853 0.270597 -0.217758 -0.937741 -0.154964 -0.405387 -0.900915 
0.787768 0.129257 -0.602257 0.922652 0.0819181 -0.376832 0.148343 -0.881053 -0.449155 
-0.676391 0.33321 -0.656861 0.477349 0.535066 -0.697024 0.655153 -0.432093 0.619734 
-0.145697 0.862163 0.48523 -0.544948 -0.104717 -0.831905 0.987526 0.101319 0.120527 
0.965098 0.164194 0.204024 0.97698 0.0794967 0.197967 0.955036 0.232407 0.1841 
0.990376 0.104708 0.0905131 0.987024 0.103784 0.122523 0.904227 0.373482 -0.207086 
0.887934 0.457792 -0.0447185 -0.638369 0.700626 -0.318761 -0.19058 0.967346 0.167097 
0.336035 0.932106 0.135126 0.724466 0.687791 -0.0457437 -0.506498 0.856 -0.103556 
0.192835 -0.250528 -0.94871 0.304925 -0.16021 -0.938805 0.405679 -0.127005 -0.905149 
0.155053 -0.216965 -0.963787 0 -0.894427 -0.447214 0 -0.997197 -0.0748196 
-0.773954 -0.524116 0.355384 0.773954 -0.524116 0.355384 0 0.707107 -0.707107 
0.72517 -0.00109227 -0.688569 0.87109 0.235423 -0.43102 -0.456205 -0.358945 -0.81427 
0.986286 0.150579 -0.0675726 0.960419 -0.00575048 -0.278499 0.811119 0.124851 -0.571401 
0.961255 0.257517 0.0983586 0.940087 0.0203655 -0.340327 0.875359 0.148911 -0.459969 
0.945365 0.190135 -0.264827 0.972595 0.23233 -0.00901551 -0.429919 -0.618888 0.657378 
0.970045 0.159435 0.183283 0.952095 0.13307 0.275331 0.926685 0.0997509 0.362359 
-0.614813 0.108537 -0.781169 0.937057 0.336305 0.0939336 0.379757 0.847179 0.371581 
0.796766 0.577184 0.178949 0.0247358 -0.328284 -0.944255 0.585898 -0.000872616 -0.810384 
0.59723 0.0140106 -0.801947 0 -0.231942 0.97273 0.954946 0.267083 -0.129404 
0.977872 0.209105 0.00646131 0.955579 0.0118641 0.294495 0.936913 0.154611 0.313511 
0.824381 0.276071 0.494147 0.879211 0.126919 0.459216 0.894068 0.132484 0.42789 
0.902936 0.117468 0.41341 0.929147 0.183222 0.321116 -0.688821 0.248962 -0.68084 
0.84525 0.378318 0.377397 0.753407 0.510281 0.414719 -0.387088 0.910519 0.145319 
0.128208 0.904286 0.407222 -0.138634 0.948875 0.283578 -0.0180936 -0.328273 -0.94441 
0.142158 -0.258499 -0.955494 0.486472 -0.12652 -0.864487 -0.235414 -0.426672 -0.87323 
0.766258 0.0869735 -0.63662 0.756048 0.110006 -0.645206 0.737624 0.131032 -0.662376 
0.824417 0.150297 -0.545663 0.938461 0.339334 0.0643742 0.74977 0.0615988 0.658825 
-0.673933 0.311838 -0.669755 0.847778 0.0828588 0.523838 0.72405 0.279215 0.630706 
-0.633257 0.670184 -0.387089 -0.491796 0.866261 0.0879149 0.364765 0.789272 0.49396 
-0.0268407 -0.43059 -0.902149 0.405579 -0.169951 -0.898121 0.611423 -0.0515383 -0.789624 
0.718863 0.141062 -0.680688 0.818537 0.202091 -0.537734 0.90085 0.27165 -0.338639 
0.891849 0.305076 -0.333967 0.904518 0.23004 -0.359066 0.922212 0.348561 -0.167421 
0.89691 0.395361 0.198095 0.926644 0.32899 0.181925 0.782723 0.496569 0.375186 
0.82328 0.358755 0.439891 0.706599 0.118671 0.697592 -0.58846 -0.087868 -0.803738 
-0.717892 0.3869 -0.578739 -0.773842 0.56281 -0.290541 -0.626308 0.747664 -0.220767 
-0.370611 0.913247 0.169199 -0.266741 0.903405 0.335722 -0.277384 0.854988 0.438239 
0.023168 0.871843 0.489238 -0.531754 0.84401 0.0698979 0.116289 -0.404293 -0.907207 
0.325035 -0.301764 -0.896265 0.658816 0.109661 -0.744269 0.774285 0.0797434 -0.627792 
0.79371 0.200807 -0.574197 0.794933 0.278826 -0.53883 0.847146 0.343931 -0.405037 
0.922474 0.372148 0.102706 0.90598 0.351901 -0.2353 0.901534 0.426111 0.0752682 
0.927806 0.290486 0.234081 0.716731 0.481068 0.504847 -0.752543 0.644942 -0.133148 
-0.711339 0.653705 -0.258196 -0.652111 0.756261 0.0531133 0.610631 0.346052 0.712304 
-0.442582 0.886372 0.135889 -0.0350957 0.883219 0.467646 0.261645 -0.385867 -0.884674 
0.134242 -0.440781 -0.88752 0.47743 -0.256905 -0.840274 -0.233897 -0.463887 -0.854459 
0.882202 0.428614 -0.194957 0.895571 0.443728 0.0325321 0.841898 0.466085 0.271979 
0.903386 0.399101 0.156879 0.644282 0.498407 0.580079 -0.745857 0.376522 -0.54948 
-0.732487 0.615586 -0.290718 -0.42484 0.905268 0.000973505 -0.0743126 -0.503502 -0.860792 
0.627374 -0.00496327 -0.778702 0.669919 0.186391 -0.718657 0.801597 0.209996 -0.559771 
0.91294 0.38986 -0.120622 0.795779 0.521531 0.307799 -0.656031 0.0279463 -0.754216 
-0.734317 0.302458 -0.607699 -0.664241 0.713679 -0.222366 -0.621968 0.782808 0.0191432 
-0.522463 0.852594 -0.0108104 -0.436484 0.893968 0.101501 -0.225713 0.957294 0.180672 
0.292363 0.668594 0.683744 -0.0720613 0.805906 0.587641 0.436902 -0.234882 -0.868301 
0.51098 -0.322435 -0.796828 0.52954 -0.0745847 -0.844999 0.450024 -0.164883 -0.877663 
0.578168 -0.0296652 -0.815378 -0.418848 -0.507638 -0.752908 0.786621 0.328697 -0.522671 
0.776975 0.508543 0.37107 0.6949 0.504109 0.512824 -0.615057 0.697663 -0.367384 
-0.339243 0.922274 0.185267 -0.659898 0.740724 -0.125946 -0.495552 0.844676 0.202363 
0.320455 -0.425682 -0.846229 0.464714 -0.184756 -0.865971 0.702073 0.0270996 -0.711589 
0.774732 0.0866319 -0.626327 0.847584 0.333818 -0.412512 0.874507 0.295005 -0.38498 
0.595462 0.421839 0.683723 -0.56737 -0.195336 -0.79996 -0.763626 0.360088 -0.535922 
-0.774499 0.407827 -0.483559 0.564531 0.109287 0.818145 -0.698758 0.587625 -0.407964 
0.605887 0.287466 0.741798 -0.520229 0.841987 0.142899 -0.520167 0.789347 0.326125 
-0.661935 0.737038 -0.136442 -0.612585 0.768739 0.183793 -0.218061 0.901012 0.375002 
0.0409754 0.753225 0.656486 -0.249047 -0.661561 -0.707328 0.900657 0.40702 -0.152153 
-0.800616 0.494862 -0.337825 -0.742118 0.603246 -0.292156 -0.784249 0.599716 -0.159041 
-0.791725 0.610849 0.00588435 -0.695816 0.710298 0.106385 -0.622919 0.761375 0.179666 
-0.76443 0.609245 -0.210871 -0.49663 0.834434 0.238912 -0.190604 0.801259 0.567145 
0.247041 0.598138 0.762365 0.186833 -0.537903 -0.822043 -0.0856152 -0.643593 -0.760564 
0.753081 0.0139146 -0.657781 0.834239 0.222973 -0.50431 0.919626 0.109686 -0.37717 
-0.416903 -0.533738 -0.735742 -0.753162 0.198011 -0.627326 -0.815427 0.493365 -0.302769 
-0.780195 0.624553 -0.0350683 -0.528203 0.801353 0.280774 -0.745301 0.666349 0.0224749 
-0.486474 0.759988 0.431 -0.361222 0.830957 0.423119 0.752573 0.133213 -0.644894 
0.840412 0.198568 -0.504261 0.826634 0.230398 -0.513413 0.820248 0.396981 -0.411824 
0.827774 0.528985 -0.186991 0.826886 0.562346 0.00523979 0.702921 0.639465 0.311427 
-0.823737 0.188787 -0.534619 -0.836891 0.506351 -0.207899 -0.818769 0.49696 -0.287486 
-0.891088 0.453556 -0.0157699 -0.674197 0.701335 -0.231489 -0.623655 0.775651 0.0970523 
-0.205356 0.790205 0.577413 0.341141 0.438567 0.831433 0.579661 -0.154737 -0.800031 
0.879755 0.434465 -0.193059 0.845208 0.534352 -0.00958996 -0.415933 -0.544948 -0.728033 
-0.878422 0.305748 -0.367278 -0.799665 0.496729 -0.337338 -0.814438 0.5741 0.0842587 
-0.544029 0.715872 0.437676 -0.361319 0.758569 0.542239 -0.306148 0.727536 0.613975 
-0.0279156 0.742105 0.669702 0.0932039 0.624199 0.775686 0.0502109 -0.606024 -0.79386 
0.277792 -0.368953 -0.886964 -0.112985 -0.729485 -0.674601 0.31291 -0.365499 -0.87664 
0.775114 0.159323 -0.611404 0.822713 0.539093 -0.180337 0.753919 0.644381 0.127984 
-0.619025 -0.287323 -0.730927 -0.698932 0.0231497 -0.714814 -0.760182 0.222471 -0.610434 
-0.778773 0.291872 -0.555268 -0.866865 0.387403 -0.31379 -0.447346 0.782463 0.433167 
-0.402113 0.701732 0.588113 -0.692564 0.711422 0.119308 -0.289085 0.765075 0.575404 
-0.165185 0.677464 0.716768 0.239288 -0.488735 -0.838975 0.00641676 -0.614031 -0.789256 
0.28495 -0.438565 -0.852328 0.441043 -0.340473 -0.830397 0.808455 0.428719 -0.403237 
0.837806 0.475943 -0.267507 0.754662 0.643991 -0.125538 0.746186 0.661771 -0.0725614 
0.637603 0.647637 0.417168 -0.450012 -0.482334 -0.75156 -0.726035 -0.125053 -0.676192 
-0.770942 0.636905 0.000814178 -0.610689 0.7533 0.244128 0.694465 0.0186982 -0.719283 
-0.24929 -0.76049 -0.599591 0.664889 0.729295 0.161402 0.62308 0.577681 0.52731 
-0.700813 -0.304246 -0.64521 -0.862782 -0.241988 -0.443903 -0.83417 0.130044 -0.535957 
-0.627697 0.731381 0.266605 -0.717435 0.662467 0.215464 -0.219761 0.639295 0.73689 
0.773503 0.246224 -0.58401 0.767572 0.420468 -0.483778 0.639082 0.743112 0.198392 
-0.62316 -0.381508 -0.682732 0.599602 0.429976 0.67498 -0.884099 -0.205969 -0.419459 
-0.87728 -0.17592 -0.446578 -0.905459 -0.104817 -0.411288 -0.592851 0.693194 0.40989 
-0.162913 0.583478 0.795621 0.329475 -0.37545 -0.866304 0.464729 -0.288896 -0.836998 
0.75922 0.363119 -0.54012 0.699976 0.710244 -0.0747471 0.754006 0.590879 -0.286945 
-0.355658 -0.679979 -0.641199 0.552526 0.631704 0.543751 -0.834024 -0.308047 -0.457724 