# vtk DataFile Version 4.2
vtk output
ASCII
DATASET POLYDATA
POINTS 4869 float
112.624 116.207 111.808 112.221 117.944 111.742 111.833 118.223 111.714 
112.743 116.968 111.848 112.215 118.848 111.785 111.263 121.005 111.893 
111.99 120.412 111.887 111.694 121.991 112.076 111.509 122.607 112.105 
111.275 123.278 112.174 111.173 123.594 112.264 111.427 123.099 112.191 
111.313 123.495 112.266 113.123 112.252 112.619 113.001 115.387 112.252 
112.967 116.155 112.054 111.445 118.153 111.775 112.637 118.754 112.003 
111.847 122.177 112.267 111.8 122.649 112.477 110.945 123.912 112.388 
111.428 123.492 112.387 115.027 101.922 114.025 114.946 102.663 113.904 
115.111 102.315 114.06 114.239 103.614 113.65 114.41 103.788 113.61 
114.237 104.037 113.568 114.591 103.741 113.669 113.795 106.28 113.243 
113.748 107.427 113.195 113.14 109.37 112.905 113.806 108.303 113.33 
113.366 109.992 112.971 113.641 109.285 113.29 111.251 111.76 112.749 
113.232 113.803 113.011 113.13 115.262 112.678 112.937 118.1 112.354 
112.915 118.371 112.542 112.264 121.251 112.499 111.79 122.966 112.891 
111.31 124.204 112.713 110.849 124.878 112.753 109.442 127.788 113.594 
110.328 128.089 113.564 109.702 130.963 114.292 109.631 130.788 114.272 
109.739 131.082 114.341 115.042 101.519 114.161 115.085 100.8 114.444 
115.226 101.357 114.228 115.266 101.136 114.349 115.286 101.302 114.269 
115.184 102.509 114.233 114.581 105.074 113.693 114.68 104.884 113.782 
114.289 105.784 113.501 113.929 107.524 113.324 114.109 107.041 113.44 
114.211 106.838 113.577 113.849 108.537 113.614 113.272 113.044 113.391 
109.57 113.749 113.17 113.156 115.093 112.972 113.07 115.939 112.967 
109.208 118.69 112.775 112.445 120.016 113.26 111.819 122.144 113.781 
108.452 125.035 113.581 110.829 127.321 113.955 110.646 129.001 113.957 
110.465 129.316 114.008 110.606 129.175 114.039 109.999 130.36 114.185 
109.945 130.84 114.312 109.848 131.165 114.423 109.714 131.492 114.587 
116.89 95.4881 115.943 115.233 98.1279 115.176 116.08 98.1884 115.293 
116.648 97.4628 115.654 114.771 98.9067 114.974 114.393 99.4283 114.878 
116.224 98.6471 115.341 114.572 100.526 114.509 115.513 100.619 114.753 
113.305 101.171 114.573 115.424 101.509 114.551 115.344 102.009 114.422 
115.351 102.135 114.529 115.123 102.972 114.473 114.273 106.599 114.167 
114.032 107.648 113.995 113.173 111.863 114.268 112.687 114.322 114.436 
112.459 118.127 113.902 111.343 123.437 114.385 111.506 123.954 113.717 
111.185 125.084 114.274 110.944 126.052 114.604 110.562 129.457 114.36 
108.461 130.692 114.892 110.513 130.239 114.662 110.466 130.454 114.777 
109.569 131.889 114.868 110.028 132.2 115.351 109.764 132.602 115.37 
109.63 132.635 115.255 118.914 92.167 117.154 119.055 92.0047 117.295 
118.099 93.379 116.677 117.553 94.3945 116.344 117.844 94.2877 116.467 
117.214 95.2771 116.089 117.87 94.5124 116.519 117.087 95.9813 115.982 
116.809 97.3576 115.894 116.445 98.395 115.485 116.575 98.2908 115.634 
116.094 99.2951 115.391 115.458 101.413 114.761 115.798 100.116 115.234 
115.284 102.008 115.153 114.196 105.55 115.218 109.791 107.414 114.535 
113.556 108.539 114.858 106.748 115.155 114.88 111.772 118.742 114.771 
111.543 121.165 114.59 110.811 123.422 115.288 110.598 125.889 115.372 
110.049 132.569 115.56 109.48 132.968 115.606 109.641 132.721 115.345 
109.807 132.883 115.721 110.013 132.695 115.563 110.045 132.735 115.595 
108.661 134.082 116.565 110.03 132.791 115.598 108.549 134.328 116.732 
119.071 91.0379 117.562 119.724 90.365 117.978 120.644 90.4851 118.4 
120.594 90.5303 118.416 120.657 90.4868 118.405 120.649 90.4531 118.429 
120.638 90.4735 118.448 116.859 92.9843 116.936 118.355 93.9196 117.185 
114.369 95.8018 116.364 113.836 97.8213 115.645 112.106 111.684 115.947 
111.346 113.079 116.433 104.811 119.353 115.991 110.218 122.16 116.17 
106.149 129.018 116.007 110.149 130.011 115.935 109.959 131.956 115.982 
109.928 132.746 115.804 109.42 133.368 116.017 109.992 132.803 115.655 
109.513 133.359 116.23 108.034 134.115 116.987 108.913 133.8 116.334 
109.326 133.638 116.296 108.439 134.555 116.965 108.343 134.544 117.084 
108.529 134.539 116.922 108.468 134.584 117.012 119.729 89.9752 118.117 
119.865 89.617 118.314 119.599 89.7315 118.23 119.093 90.082 118.041 
120.04 90.2524 118.188 120.566 90.4655 118.426 120.354 90.7218 118.403 
120.613 90.3494 118.554 120.548 90.5423 118.522 117.708 95.2391 117.266 
110.057 101.165 116.434 115.118 100.571 116.846 109.179 122.737 117.268 
106.787 132.474 116.908 109.671 132.848 116.351 109.362 133.521 116.56 
108.551 134.51 117.006 108.419 134.565 117.108 120.406 87.988 119.248 
121.046 87.9718 119.492 119.646 88.5808 118.88 120.581 88.8932 118.951 
120.747 89.2414 119.019 120.392 90.2496 118.463 120.724 89.8819 118.949 
119.975 91.0473 118.134 115.709 91.8043 118.055 119.883 91.418 118.334 
118.041 94.0502 118.519 116.492 96.9509 117.87 106.482 104.01 117.954 
112.243 104.112 118.332 102.597 123.199 117.911 108.979 132.43 117.599 
106.36 133.283 118.009 107.922 134.318 117.543 107.76 134.222 117.827 
108.248 134.36 117.459 108.421 134.499 117.194 108.495 134.263 117.371 
120.213 87.0574 119.73 118.052 88.4866 119.275 120.882 89.648 119.42 
120.914 89.608 119.581 120.967 89.4706 119.632 121.054 89.1211 119.839 
120.541 90.4387 119.065 102.321 128.657 119.299 102.726 130.231 119.644 
108.23 132.34 118.412 104.725 132.546 119.275 108.301 133.559 118.012 
106.127 133.418 118.557 107.554 134.047 118.14 122.055 85.5647 120.989 
122.529 84.9887 121.446 121.974 86.3531 120.838 121.554 87.7839 120.493 
120.517 90.1334 119.702 116.774 94.2466 120.141 101.375 128.128 120.002 
106.021 133.498 119.199 106.392 133.468 119.344 122.944 83.7278 122.054 
123.292 83.7124 122.323 122.199 83.7829 121.778 123.03 84.7258 122.037 
122.689 85.4473 121.669 122.863 85.1369 121.836 122.003 86.7354 121.223 
122.799 85.3387 121.868 121.206 88.4529 120.728 116.028 94.3558 120.816 
103.393 103.466 120.619 98.8294 117.2 121.002 102.871 131.631 120.586 
106.083 132.058 120.392 104.209 132.668 120.716 106.511 133.135 119.585 
105.987 133.068 120.012 107.141 133.098 119.17 122.465 82.6767 122.468 
119.847 83.6192 122.322 123.482 84.0768 122.764 123.167 84.6401 122.401 
122.821 85.3089 122.143 116.327 87.0267 121.283 121.976 86.725 121.736 
121.03 87.8641 121.909 120.663 88.7568 121.291 104.516 111.4 122.639 
100.302 129.979 122.03 102.423 131.98 121.728 103.88 132.473 121.292 
105.029 132.809 120.698 105.326 132.877 120.586 105.429 132.876 120.55 
105.627 132.964 120.335 105.408 133.003 120.392 125.555 79.9079 124.635 
125.616 79.6134 124.736 123.366 81.546 123.278 124.717 81.2458 123.906 
125.033 81.1667 124.137 122.624 85.489 122.623 121.917 86.1644 122.946 
113.734 94.989 122.384 104.796 107.802 123.33 97.2056 112.297 123.018 
103.734 130.565 122.657 103.914 132.09 121.89 105.452 132.96 120.476 
125.641 79.2962 124.891 126.108 78.9651 125.258 125.072 79.0196 124.934 
123.596 79.5618 124.603 125.901 80.3564 125.064 125.059 81.5578 124.404 
123.709 83.6198 123.844 123.076 84.3361 123.89 120.439 86.9406 123.802 
105.016 94.8466 123.936 105.29 103.53 124.511 97.2752 127.636 124.036 
102.254 127.537 124.173 98.1761 129.191 123.873 102.59 129.452 123.827 
99.2686 130.345 123.558 102.441 130.758 123.669 100.48 131.409 123.567 
100.277 131.424 124.026 100.869 131.556 123.65 100.561 131.555 123.841 
103.004 131.923 122.548 100.443 131.528 123.916 128.106 77.0204 126.819 
125.049 77.8021 125.851 126.238 78.223 125.686 127.148 77.8012 126.175 
127.652 77.7055 126.41 127.817 77.8452 126.513 126.646 79.2386 125.624 
127.303 78.8152 126.274 120.97 85.8711 124.518 106.419 99.6117 125.572 
94.5603 117.168 125.149 100.837 117.309 125.283 96.1711 126.027 124.617 
101.894 129.983 124.306 98.3331 130.325 125.248 99.8096 131.147 124.273 
101.875 131.331 123.696 100.289 131.305 124.257 100.484 131.504 123.945 
127.539 76.5092 126.961 124.45 77.5473 126.129 128.775 76.8698 127.377 
128.5 77.3679 127.143 128.235 77.9223 127.213 127.085 79.2507 126.552 
125.096 81.5088 125.719 97.6724 129.8 125.261 97.4388 129.811 125.956 
101.472 130.762 124.343 98.5419 130.443 125.514 99.0024 130.714 125.2 
99.379 130.844 125.086 129.027 74.4684 128.705 129.522 75.3564 128.272 
128.715 76.1111 127.478 128.951 76.2976 127.527 129.173 76.7064 127.934 
119.016 79.0216 126.975 126.993 79.3341 126.966 124.748 80.9705 127.49 
115.147 87.903 127.25 96.3008 103.85 126.631 94.1713 124.698 126.557 
98.8635 125.813 127.471 100.128 127.579 126.159 100.11 128.176 126.106 
100.19 129.246 125.814 97.6438 129.895 126.428 98.2747 130.142 126.149 
99.3622 130.273 125.809 100.039 130.688 125.141 133 72.0087 128.017 
133 72.0087 128.017 133 72.0088 128.017 133 72.0088 128.017 
133 72.0088 128.017 130.923 73.8502 129.638 128.01 74.5641 128.559 
130.908 74.1742 129.529 130.803 74.6865 129.391 128.953 76.0921 127.554 
130.579 75.2559 129.288 129.529 76.7025 128.713 128.231 78.0251 128.037 
98.7835 110.236 128.253 94.3892 127.103 127.648 95.9787 128.849 127.283 
95.4196 128.606 127.982 133 72.0087 128.017 131.46 72.6177 130.55 
130.344 73.3219 129.795 131.459 73.0853 130.259 131.867 73.2127 130.397 
129.131 73.5812 129.486 131.73 74.2259 130.278 122.853 75.6452 128.738 
131.354 74.7792 130.129 130.101 76.1955 129.471 130.458 75.7884 130.062 
131.158 75.1012 130.253 129.773 76.5482 129.31 129.451 76.7977 129.476 
94.6451 127.951 128.22 97.7935 128.76 127.78 96.7781 129.094 127.895 
129.057 72.5938 130.49 132.841 72.453 131.127 132.437 73.0848 130.783 
133.095 73.4634 131.585 125.612 79.2158 129.667 124.03 79.9735 129.849 
112.789 80.6322 129.801 105.243 87.0049 129.892 112.226 87.3331 130.164 
91.6997 121.709 129.076 92.0865 125.06 129.87 96.512 126.095 129.763 
93.3692 127.26 129.76 93.6473 127.285 129.183 93.6712 127.686 130.011 
93.9649 127.844 129.984 95.0132 128.247 129.579 134.173 70.7681 132.284 
[...]
POINT_DATA 4869
SCALARS scalars float
LOOKUP_TABLE default
1 1 1 1 1 1 1 1 1 
1 1 1 1 1 1 1 1 1 
1 1 1 1 1 1 1 1 1 
1 1 1 1 1 1 1 1 1 
1 1 1 1 1 1 1 1 1 
1 1 1 1 1 1 1 1 1 
1 1 1 1 1 1 1 1 1 
1 1 1 1 1 1 1 1 1 
1 1 1 1 1 1 1 1 1 
1 1 1 1 1 1 1 1 1 
1 1 1 1 1 1 1 1 1 
1 1 1 1 1 1 1 1 1 
1 1 1 1 1 1 1 1 1 
1 1 1 1 1 1 1 1 1 
1 1 1 1 1 1 1 1 1 
1 1 1 1 1 1 1 1 1 
1 1 1 1 1 1 1 1 1 
1 1 1 1 1 1 1 1 1 
1 1 1 1 1 1 1 1 1 
1 1 1 1 1 1 1 1 1 
1 1 1 1 1 1 1 1 1 
1 1 1 1 1 1 1 1 1 
1 1 1 1 1 1 1 1 1 
1 1 1 1 1 1 1 1 1 
1 1 1 1 1 1 1 1 1 
1 1 1 1 1 1 1 1 1 
1 1 1 1 1 1 1 1 1 
1 1 1 1 1 1 1 1 1 
1 1 1 1 1 1 1 1 1 
1 1 1 1 1 1 1 1 1 
1 1 1 1 1 1 1 1 1 
1 1 1 1 1 1 1 1 1 
1 1 1 1 1 1 1 1 1 
1 1 1 1 1 1 1 1 1 
1 1 1 1 1 1 1 1 1 
1 1 1 1 1 1 1 1 1 
1 1 1 1 1 1 1 1 1 
1 1 1 1 1 1 1 1 1 
1 1 1 1 1 1 1 1 1 
1 1 1 1 1 1 1 1 1 
1 1 1 1 1 1 1 1 1 
1 1 1 1 1 1 1 1 1 
1 1 1 1 1 1 1 1 1 
1 1 1 1 1 1 1 1 1 
1 1 1 1 1 1 1 1 1 
1 1 1 1 1 1 1 1 1 
1 1 1 1 1 1 1 1 1 
1 1 1 1 1 1 1 1 1 
1 1 1 1 1 1 1 1 1 
1 1 1 1 1 1 1 1 1 
1 1 1 1 1 1 1 1 1 
1 1 1 1 1 1 1 1 1 
1 1 1 1 1 1 1 1 1 
1 1 1 1 1 1 1 1 1 
1 1 1 1 1 1 1 1 1 
1 1 1 1 1 1 1 1 1 
1 1 1 1 1 1 1 1 1 
1 1 1 1 1 1 1 1 1 
1 1 1 1 1 1 1 1 1 
1 1 1 1 1 1 1 1 1 
1 1 1 1 1 1 1 1 1 
1 1 1 1 1 1 1 1 1 
1 1 1 1 1 1 1 1 1 
1 1 1 1 1 1 1 1 1 
1 1 1 1 1 1 1 1 1 
1 1 1 1 1 1 1 1 1 
1 1 1 1 1 1 1 1 1 
1 1 1 1 1 1 1 1 1 
1 1 1 1 1 1 1 1 1 
1 1 1 1 1 1 1 1 1 
1 1 1 1 1 1 1 1 1 
1 1 1 1 1 1 1 1 1 
1 1 1 1 1 1 1 1 1 
1 1 1 1 1 1 1 1 1 
1 1 1 1 1 1 1 1 1 
1 1 1 1 1 1 1 1 1 
1 1 1 1 1 1 1 1 1 
1 1 1 1 1 1 1 1 1 
1 1 1 1 1 1 1 1 1 
1 1 1 1 1 1 1 1 1 
1 1 1 1 1 1 1 1 1 
1 1 1 1 1 1 1 1 1 
1 1 1 1 1 1 1 1 1 
1 1 1 1 1 1 1 1 1 
1 1 1 1 1 1 1 1 1 
1 1 1 1 1 1 1 1 1 
1 1 1 1 1 1 1 1 1 
1 1 1 1 1 1 1 1 1 
1 1 1 1 1 1 1 1 1 
1 1 1 1 1 1 1 1 1 
1 1 1 1 1 1 1 1 1 
1 1 1 1 1 1 1 1 1 
1 1 1 1 1 1 1 1 1 
1 1 1 1 1 1 1 1 1 
1 1 1 1 1 1 1 1 1 
1 1 1 1 1 1 1 1 1 
1 1 1 1 1 1 1 1 1 
1 1 1 1 1 1 1 1 1 
1 1 1 1 1 1 1 1 1 
1 1 1 1 1 1 1 1 1 
1 1 1 1 1 1 1 1 1 
1 1 1 1 1 1 1 1 1 
1 1 1 1 1 1 1 1 1 
1 1 1 1 1 1 1 1 1 
1 1 1 1 1 1 1 1 1 
1 1 1 1 1 1 1 1 1 
1 1 1 1 1 1 1 1 1 
1 1 1 1 1 1 1 1 1 
1 1 1 1 1 1 1 1 1 
1 1 1 1 1 1 1 1 1 
1 1 1 1 1 1 1 1 1 
1 1 1 1 1 1 1 1 1 
1 1 1 1 1 1 1 1 1 
1 1 1 1 1 1 1 1 1 
1 1 1 1 1 1 1 1 1 
1 1 1 1 1 1 1 1 1 
1 1 1 1 1 1 1 1 1 
1 1 1 1 1 1 1 1 1 
1 1 1 1 1 1 1 1 1 
1 1 1 1 1 1 1 1 1 
1 1 1 1 1 1 1 1 1 
1 1 1 1 1 1 1 1 1 
1 1 1 1 1 1 1 1 1 
1 1 1 1 1 1 1 1 1 
1 1 1 1 1 1 1 1 1 
1 1 1 1 1 1 1 1 1 
1 1 1 1 1 1 1 1 1 
1 1 1 1 1 1 1 1 1 
1 1 1 1 1 1 1 1 1 
1 1 1 1 1 1 1 1 1 
1 1 1 1 1 1 1 1 1 
1 1 1 1 1 1 1 1 1 
1 1 1 1 1 1 1 1 1 
1 1 1 1 1 1 1 1 1 
1 1 1 1 1 1 1 1 1 
1 1 1 1 1 1 1 1 1 
1 1 1 1 1 1 1 1 1 
1 1 1 1 1 1 1 1 1 
1 1 1 1 1 1 1 1 1 
1 1 1 1 1 1 1 1 1 
1 1 1 1 1 1 1 1 1 
1 1 1 1 1 1 1 1 1 
1 1 1 1 1 1 1 1 1 
1 1 1 1 1 1 1 1 1 
1 1 1 1 1 1 1 1 1 
1 1 1 1 1 1 1 1 1 
1 1 1 1 1 1 1 1 1 
1 1 1 1 1 1 1 1 1 
1 1 1 1 1 1 1 1 1 
1 1 1 1 1 1 1 1 1 
1 1 1 1 1 1 1 1 1 
1 1 1 1 1 1 1 1 1 
1 1 1 1 1 1 1 1 1 
1 1 1 1 1 1 1 1 1 
1 1 1 1 1 1 1 1 1 
1 1 1 1 1 1 1 1 1 
1 1 1 1 1 1 1 1 1 
1 1 1 1 1 1 1 1 1 
1 1 1 1 1 1 1 1 1 
1 1 1 1 1 1 1 1 1 
1 1 1 1 1 1 1 1 1 
1 1 1 1 1 1 1 1 1 
1 1 1 1 1 1 1 1 1 
1 1 1 1 1 1 1 1 1 
1 1 1 1 1 1 1 1 1 
1 1 1 1 1 1 1 1 1 
1 1 1 1 1 1 1 1 1 
1 1 1 1 1 1 1 1 1 
1 1 1 1 1 1 1 1 1 
1 1 1 1 1 1 1 1 1 
1 1 1 1 1 1 1 1 1 
1 1 1 1 1 1 1 1 1 
1 1 1 1 1 1 1 1 1 
1 1 1 1 1 1 1 1 1 
1 1 1 1 1 1 1 1 1 
1 1 1 1 1 1 1 1 1 
1 1 1 1 1 1 1 1 1 
1 1 1 1 1 1 1 1 1 
1 1 1 1 1 1 1 1 1 
1 1 1 1 1 1 1 1 1 
1 1 1 1 1 1 1 1 1 
1 1 1 1 1 1 1 1 1 
1 1 1 1 1 1 1 1 1 
1 1 1 1 1 1 1 1 1 
1 1 1 1 1 1 1 1 1 
1 1 1 1 1 1 1 1 1 
1 1 1 1 1 1 1 1 1 
1 1 1 1 1 1 1 1 1 
1 1 1 1 1 1 1 1 1 
1 1 1 1 1 1 1 1 1 
1 1 1 1 1 1 1 1 1 
1 1 1 1 1 1 1 1 1 
1 1 1 1 1 1 1 1 1 
1 1 1 1 1 1 1 1 1 
1 1 1 1 1 1 1 1 1 
1 1 1 1 1 1 1 1 1 
1 1 1 1 1 1 1 1 1 
1 1 1 1 1 1 1 1 1 
1 1 1 1 1 1 1 1 1 
1 1 1 1 1 1 1 1 1 
1 1 1 1 1 1 1 1 1 
1 1 1 1 1 1 1 1 1 
1 1 1 1 1 1 1 1 1 
1 1 1 1 1 1 1 1 1 
1 1 1 1 1 1 1 1 1 
1 1 1 1 1 1 1 1 1 
1 1 1 1 1 1 1 1 1 
1 1 1 1 1 1 1 1 1 
1 1 1 1 1 1 1 1 1 
1 1 1 1 1 1 1 1 1 
1 1 1 1 1 1 1 1 1 
1 1 1 1 1 1 1 1 1 
1 1 1 1 1 1 1 1 1 
1 1 1 1 1 1 1 1 1 
1 1 1 1 1 1 1 1 1 
1 1 1 1 1 1 1 1 1 
1 1 1 1 1 1 1 1 1 
1 1 1 1 1 1 1 1 1 
1 1 1 1 1 1 1 1 1 
1 1 1 1 1 1 1 1 1 
1 1 1 1 1 1 1 1 1 
1 1 1 1 1 1 1 1 1 
1 1 1 1 1 1 1 1 1 
1 1 1 1 1 1 1 1 1 
1 1 1 1 1 1 1 1 1 
1 1 1 1 1 1 1 1 1 
1 1 1 1 1 1 1 1 1 
1 1 1 1 1 1 1 1 1 
1 1 1 1 1 1 1 1 1 
1 1 1 1 1 1 1 1 1 
1 1 1 1 1 1 1 1 1 
1 1 1 1 1 1 1 1 1 
1 1 1 1 1 1 1 1 1 
1 1 1 1 1 1 1 1 1 
1 1 1 1 1 1 1 1 1 
1 1 1 1 1 1 1 1 1 
1 1 1 1 1 1 1 1 1 
1 1 1 1 1 1 1 1 1 
1 1 1 1 1 1 1 1 1 
1 1 1 1 1 1 1 1 1 
1 1 1 1 1 1 1 1 1 
1 1 1 1 1 1 1 1 1 
1 1 1 1 1 1 1 1 1 
1 1 1 1 1 1 1 1 1 
1 1 1 1 1 1 1 1 1 
1 1 1 1 1 1 1 1 1 
1 1 1 1 1 1 1 1 1 
1 1 1 1 1 1 1 1 1 
1 1 1 1 1 1 1 1 1 
1 1 1 1 1 1 1 1 1 
1 1 1 1 1 1 1 1 1 
1 1 1 1 1 1 1 1 1 
1 1 1 1 1 1 1 1 1 
1 1 1 1 1 1 1 1 1 
1 1 1 1 1 1 1 1 1 
1 1 1 1 1 1 1 1 1 
1 1 1 1 1 1 1 1 1 
1 1 1 1 1 1 1 1 1 
1 1 1 1 1 1 1 1 1 
1 1 1 1 1 1 1 1 1 
1 1 1 1 1 1 1 1 1 
1 1 1 1 1 1 1 1 1 
1 1 1 1 1 1 1 1 1 
1 1 1 1 1 1 1 1 1 
1 1 1 1 1 1 1 1 1 
1 1 1 1 1 1 1 1 1 
1 1 1 1 1 1 1 1 1 
1 1 1 1 1 1 1 1 1 
1 1 1 1 1 1 1 1 1 
1 1 1 1 1 1 1 1 1 
1 1 1 1 1 1 1 1 1 
1 1 1 1 1 1 1 1 1 
1 1 1 1 1 1 1 1 1 
1 1 1 1 1 1 1 1 1 
1 1 1 1 1 1 1 1 1 
1 1 1 1 1 1 1 1 1 
1 1 1 1 1 1 1 1 1 
1 1 1 1 1 1 1 1 1 
1 1 1 1 1 1 1 1 1 
1 1 1 1 1 1 1 1 1 
1 1 1 1 1 1 1 1 1 
1 1 1 1 1 1 1 1 1 
1 1 1 1 1 1 1 1 1 
1 1 1 1 1 1 1 1 1 
1 1 1 1 1 1 1 1 1 
1 1 1 1 1 1 1 1 1 
1 1 1 1 1 1 1 1 1 
1 1 1 1 1 1 1 1 1 
1 1 1 1 1 1 1 1 1 
1 1 1 1 1 1 1 1 1 
1 1 1 1 1 1 1 1 1 
1 1 1 1 1 1 1 1 1 
1 1 1 1 1 1 1 1 1 
1 1 1 1 1 1 1 1 1 
1 1 1 1 1 1 1 1 1 
1 1 1 1 1 1 1 1 1 
1 1 1 1 1 1 1 1 1 
1 1 1 1 1 1 1 1 1 
1 1 1 1 1 1 1 1 1 
1 1 1 1 1 1 1 1 1 
1 1 1 1 1 1 1 1 1 
1 1 1 1 1 1 1 1 1 
1 1 1 1 1 1 1 1 1 
1 1 1 1 1 1 1 1 1 
1 1 1 1 1 1 1 1 1 
1 1 1 1 1 1 1 1 1 
1 1 1 1 1 1 1 1 1 
1 1 1 1 1 1 1 1 1 
1 1 1 1 1 1 1 1 1 
1 1 1 1 1 1 1 1 1 
1 1 1 1 1 1 1 1 1 
1 1 1 1 1 1 1 1 1 
1 1 1 1 1 1 1 1 1 
1 1 1 1 1 1 1 1 1 
1 1 1 1 1 1 1 1 1 
1 1 1 1 1 1 1 1 1 
1 1 1 1 1 1 1 1 1 
1 1 1 1 1 1 1 1 1 
1 1 1 1 1 1 1 1 1 
1 1 1 1 1 1 1 1 1 
1 1 1 1 1 1 1 1 1 
1 1 1 1 1 1 1 1 1 
1 1 1 1 1 1 1 1 1 
1 1 1 1 1 1 1 1 1 
1 1 1 1 1 1 1 1 1 
1 1 1 1 1 1 1 1 1 
1 1 1 1 1 1 1 1 1 
1 1 1 1 1 1 1 1 1 
1 1 1 1 1 1 1 1 1 
1 1 1 1 1 1 1 1 1 
1 1 1 1 1 1 1 1 1 
1 1 1 1 1 1 1 1 1 
1 1 1 1 1 1 1 1 1 
1 1 1 1 1 1 1 1 1 
1 1 1 1 1 1 1 1 1 
1 1 1 1 1 1 1 1 1 
1 1 1 1 1 1 1 1 1 
1 1 1 1 1 1 1 1 1 
1 1 1 1 1 1 1 1 1 
1 1 1 1 1 1 1 1 1 
1 1 1 1 1 1 1 1 1 
1 1 1 1 1 1 1 1 1 
1 1 1 1 1 1 1 1 1 
1 1 1 1 1 1 1 1 1 
1 1 1 1 1 1 1 1 1 
1 1 1 1 1 1 1 1 1 
1 1 1 1 1 1 1 1 1 
1 1 1 1 1 1 1 1 1 
1 1 1 1 1 1 1 1 1 
1 1 1 1 1 1 1 1 1 
1 1 1 1 1 1 1 1 1 
1 1 1 1 1 1 1 1 1 
1 1 1 1 1 1 1 1 1 
1 1 1 1 1 1 1 1 1 
1 1 1 1 1 1 1 1 1 
1 1 1 1 1 1 1 1 1 
1 1 1 1 1 1 1 1 1 
1 1 1 1 1 1 1 1 1 
1 1 1 1 1 1 1 1 1 
1 1 1 1 1 1 1 1 1 
1 1 1 1 1 1 1 1 1 
1 1 1 1 1 1 1 1 1 
1 1 1 1 1 1 1 1 1 
1 1 1 1 1 1 1 1 1 
1 1 1 1 1 1 1 1 1 
1 1 1 1 1 1 1 1 1 
1 1 1 1 1 1 1 1 1 
1 1 1 1 1 1 1 1 1 
1 1 1 1 1 1 1 1 1 
1 1 1 1 1 1 1 1 1 
1 1 1 1 1 1 1 1 1 
1 1 1 1 1 1 1 1 1 
1 1 1 1 1 1 1 1 1 
1 1 1 1 1 1 1 1 1 
1 1 1 1 1 1 1 1 1 
1 1 1 1 1 1 1 1 1 
1 1 1 1 1 1 1 1 1 
1 1 1 1 1 1 1 1 1 
1 1 1 1 1 1 1 1 1 
1 1 1 1 1 1 1 1 1 
1 1 1 1 1 1 1 1 1 
1 1 1 1 1 1 1 1 1 
1 1 1 1 1 1 1 1 1 
1 1 1 1 1 1 1 1 1 
1 1 1 1 1 1 1 1 1 
1 1 1 1 1 1 1 1 1 
1 1 1 1 1 1 1 1 1 
1 1 1 1 1 1 1 1 1 
1 1 1 1 1 1 1 1 1 
1 1 1 1 1 1 1 1 1 
1 1 1 1 1 1 1 1 1 
1 1 1 1 1 1 1 1 1 
1 1 1 1 1 1 1 1 1 
1 1 1 1 1 1 1 1 1 
1 1 1 1 1 1 1 1 1 
1 1 1 1 1 1 1 1 1 
1 1 1 1 1 1 1 1 1 
1 1 1 1 1 1 1 1 1 
1 1 1 1 1 1 1 1 1 
1 1 1 1 1 1 1 1 1 
1 1 1 1 1 1 1 1 1 
1 1 1 1 1 1 1 1 1 
1 1 1 1 1 1 1 1 1 
1 1 1 1 1 1 1 1 1 
1 1 1 1 1 1 1 1 1 
1 1 1 1 1 1 1 1 1 
1 1 1 1 1 1 1 1 1 
1 1 1 1 1 1 1 1 1 
1 1 1 1 1 1 1 1 1 
1 1 1 1 1 1 1 1 1 
1 1 1 1 1 1 1 1 1 
1 1 1 1 1 1 1 1 1 
1 1 1 1 1 1 1 1 1 
1 1 1 1 1 1 1 1 1 
1 1 1 1 1 1 1 1 1 
1 1 1 1 1 1 1 1 1 
1 1 1 1 1 1 1 1 1 
1 1 1 1 1 1 1 1 1 
1 1 1 1 1 1 1 1 1 
1 1 1 1 1 1 1 1 1 
1 1 1 1 1 1 1 1 1 
1 1 1 1 1 1 1 1 1 
1 1 1 1 1 1 1 1 1 
1 1 1 1 1 1 1 1 1 
1 1 1 1 1 1 1 1 1 
1 1 1 1 1 1 1 1 1 
1 1 1 1 1 1 1 1 1 
1 1 1 1 1 1 1 1 1 
1 1 1 1 1 1 1 1 1 
1 1 1 1 1 1 1 1 1 
1 1 1 1 1 1 1 1 1 
1 1 1 1 1 1 1 1 1 
1 1 1 1 1 1 1 1 1 
1 1 1 1 1 1 1 1 1 
1 1 1 1 1 1 1 1 1 
1 1 1 1 1 1 1 1 1 
1 1 1 1 1 1 1 1 1 
1 1 1 1 1 1 1 1 1 
1 1 1 1 1 1 1 1 1 
1 1 1 1 1 1 1 1 1 
1 1 1 1 1 1 1 1 1 
1 1 1 1 1 1 1 1 1 
1 1 1 1 1 1 1 1 1 
1 1 1 1 1 1 1 1 1 
1 1 1 1 1 1 1 1 1 
1 1 1 1 1 1 1 1 1 
1 1 1 1 1 1 1 1 1 
1 1 1 1 1 1 1 1 1 
1 1 1 1 1 1 1 1 1 
1 1 1 1 1 1 1 1 1 
1 1 1 1 1 1 1 1 1 
1 1 1 1 1 1 1 1 1 
1 1 1 1 1 1 1 1 1 
1 1 1 1 1 1 1 1 1 
1 1 1 1 1 1 1 1 1 
1 1 1 1 1 1 1 1 1 
1 1 1 1 1 1 1 1 1 
1 1 1 1 1 1 1 1 1 
1 1 1 1 1 1 1 1 1 
1 1 1 1 1 1 1 1 1 
1 1 1 1 1 1 1 1 1 
1 1 1 1 1 1 1 1 1 
1 1 1 1 1 1 1 1 1 
1 1 1 1 1 1 1 1 1 
1 1 1 1 1 1 1 1 1 
1 1 1 1 1 1 1 1 1 
1 1 1 1 1 1 1 1 1 
1 1 1 1 1 1 1 1 1 
1 1 1 1 1 1 1 1 1 
1 1 1 1 1 1 1 1 1 
1 1 1 1 1 1 1 1 1 
1 1 1 1 1 1 1 1 1 
1 1 1 1 1 1 1 1 1 
1 1 1 1 1 1 1 1 1 
1 1 1 1 1 1 1 1 1 
1 1 1 1 1 1 1 1 1 
1 1 1 1 1 1 1 1 1 
1 1 1 1 1 1 1 1 1 
1 1 1 1 1 1 1 1 1 
1 1 1 1 1 1 1 1 1 
1 1 1 1 1 1 1 1 1 
1 1 1 1 1 1 1 1 1 
1 1 1 1 1 1 1 1 1 
1 1 1 1 1 1 1 1 1 
1 1 1 1 1 1 1 1 1 
1 1 1 1 1 1 1 1 1 
1 1 1 1 1 1 1 1 1 
1 1 1 1 1 1 1 1 1 
1 1 1 1 1 1 1 1 1 
1 1 1 1 1 1 1 1 1 
1 1 1 1 1 1 1 1 1 
1 1 1 1 1 1 1 1 1 
1 1 1 1 1 1 1 1 1 
1 1 1 1 1 1 1 1 1 
1 1 1 1 1 1 1 1 1 
1 1 1 1 1 1 1 1 1 
1 1 1 1 1 1 1 1 1 
1 1 1 1 1 1 1 1 1 
1 1 1 1 1 1 1 1 1 
1 1 1 1 1 1 1 1 1 
1 1 1 1 1 1 1 1 1 
1 1 1 1 1 1 1 1 1 
1 1 1 1 1 1 1 1 1 
1 1 1 1 1 1 1 1 1 
1 1 1 1 1 1 1 1 1 
1 1 1 1 1 1 1 1 1 
1 1 1 1 1 1 1 1 1 
1 1 1 1 1 1 1 1 1 
1 1 1 1 1 1 1 1 1 
1 1 1 1 1 1 1 1 1 
1 1 1 1 1 1 1 1 1 
1 1 1 1 1 1 1 1 1 
1 1 1 1 1 1 1 1 1 
1 1 1 1 1 1 1 1 1 
1 1 1 1 1 1 1 1 1 
1 1 1 1 1 1 1 1 1 
1 1 1 1 1 1 1 1 1 
1 1 1 1 1 1 1 1 1 
1 1 1 1 1 1 1 1 1 
1 1 1 1 1 1 1 1 1 
1 1 1 1 1 1 1 1 1 
1 1 1 1 1 1 1 1 1 
1 1 1 1 1 1 1 1 1 
1 1 1 1 1 1 1 1 1 
1 1 1 1 1 1 1 1 1 
1 1 1 1 1 1 1 1 1 
1 1 1 1 1 1 1 1 1 
1 1 1 1 1 1 1 1 1 
1 1 1 1 1 1 1 1 1 
1 1 1 1 1 1 1 1 1 
1 1 1 1 1 1 1 1 1 
1 1 1 1 1 1 1 1 1 
1 1 1 1 1 1 1 1 1 
1 1 1 1 1 1 1 1 1 
1 1 1 1 1 1 1 1 1 
1 1 1 1 1 1 1 1 1 
1 1 1 1 1 1 1 1 1 
1 1 1 1 1 1 1 1 1 
1 1 1 1 1 1 1 1 1 
1 1 1 1 1 1 1 1 1 
1 1 1 1 1 1 1 1 1 

NORMALS Normals float
0.0893062 -0.11394 -0.989466 0.158776 -0.0424228 -0.986403 -0.0656467 0.00867067 -0.997805 
0.482769 0.024603 -0.875402 0.177822 0.128766 -0.975602 -0.255472 0.0360243 -0.966145 
0.599792 0.187426 -0.777895 0.193011 0.120653 -0.97375 0.53596 0.223384 -0.814154 
-0.0269709 0.172934 -0.984564 0.145549 0.390655 -0.908958 0.612333 0.273279 -0.741867 
0.463614 0.400674 -0.790267 0.843328 -0.0144907 -0.537203 0.840188 -0.173852 -0.513672 
0.879847 -0.00297698 -0.475247 -0.172242 -0.0545067 -0.983545 0.567213 0.140974 -0.811416 
0.809078 0.246889 -0.533327 0.869128 0.286905 -0.402867 -0.141056 0.295387 -0.944907 
0.808367 0.317746 -0.49556 0.291877 -0.213997 -0.932208 0.564023 -0.0222617 -0.825459 
0.763036 -0.0113613 -0.646256 -0.0277367 -0.233925 -0.971859 0.166932 -0.177364 -0.969884 
0.106034 -0.0880631 -0.990455 0.387175 -0.0751915 -0.918935 0.0221709 -0.133796 -0.990761 
0.531416 0.0166076 -0.846948 0.289442 -0.0870491 -0.953229 0.836546 0.130868 -0.532038 
0.66033 0.00840456 -0.750929 0.979924 0.195699 -0.0380962 -0.349707 -0.199616 -0.915346 
0.995449 0.0947583 0.0100667 0.972645 -0.0963859 -0.211358 0.969382 0.133516 -0.206086 
0.962369 0.165734 0.215358 0.96747 0.229394 -0.10668 0.967504 0.246238 -0.0574743 
0.792533 0.329588 -0.513092 0.128645 0.329824 -0.935236 -0.310747 0.170317 -0.935109 
0.0637845 0.226678 -0.971879 -0.220073 0.319145 -0.921799 -0.253799 0.248376 -0.934824 
-0.207935 0.462497 -0.861893 0.250774 -0.20588 -0.9459 0.227702 -0.457273 -0.859682 
0.0386405 -0.474716 -0.87929 0.21411 -0.44215 -0.871011 0.693342 -0.0447045 -0.719221 
0.912177 0.137391 -0.386078 0.601667 0.055351 -0.796827 0.862977 0.136083 -0.486572 
0.661067 0.0618944 -0.74777 0.747949 0.135294 -0.649822 0.71376 0.0854282 -0.695161 
0.933399 0.19196 -0.303179 0.941048 0.316857 0.118447 0.990944 0.116757 0.0663219 
-0.490314 -0.120394 -0.86319 0.999567 -0.0129772 -0.0263906 0.883941 0.0782176 0.46101 
-0.49466 -0.0771164 -0.865658 0.918235 0.184295 0.350542 0.944646 0.151577 0.29098 
-0.469494 0.0412005 -0.881974 0.97052 0.200351 0.13398 0.8395 0.287154 -0.461283 
0.46419 0.40477 -0.787839 0.784625 0.459347 -0.416369 0.584461 0.320671 -0.745369 
0.437773 0.297993 -0.848266 0.480616 0.492285 -0.725716 0.329872 0.581899 -0.743356 
0.142046 -0.239453 -0.960461 -0.0167677 -0.271404 -0.962319 0.325611 -0.1012 -0.940072 
0.536638 -0.0640718 -0.841377 -0.0548683 -0.305703 -0.950545 -0.366144 -0.325229 -0.871874 
0.61684 0.134082 -0.775584 -0.0847065 -0.343807 -0.935212 0.668523 -0.159277 -0.726435 
-0.311354 -0.262589 -0.913294 0.910017 0.0364876 -0.412963 0.973027 0.0705874 -0.219625 
0.986295 0.14934 -0.0701446 0.947038 0.289642 0.138661 0.917457 0.229978 0.324626 
0.889006 0.324711 0.322849 0.923691 0.151177 0.352053 0.821131 0.216403 0.528122 
0.90602 0.0976626 0.411814 0.903666 0.183934 0.386724 0.934189 0.188388 0.302985 
0.88848 0.172088 0.425427 0.915785 0.19006 0.353856 0.953256 0.263129 -0.148546 
-0.493173 0.335865 -0.80248 0.953331 0.223073 -0.203465 0.961653 0.121896 0.245693 
-0.195209 0.52596 -0.827804 0.804013 0.352816 -0.478628 0.631152 0.582892 -0.511747 
0.267562 0.606312 -0.748863 0.287789 -0.233355 -0.928829 0.673866 0.0151491 -0.738699 
0.311372 -0.180693 -0.932951 0.283889 -0.126211 -0.950514 0.528508 0.0347882 -0.848216 
0.251838 -0.207097 -0.945351 0.745758 0.172974 -0.64337 0.572043 -0.00201396 -0.820221 
0.934911 0.265519 -0.235458 0.7158 0.102513 -0.690739 0.910111 0.339132 -0.23809 
0.928122 0.32724 -0.177492 0.985333 0.169569 -0.0190957 0.958428 0.282318 -0.0413774 
0.95818 0.20022 0.204456 0.808787 0.362867 0.462808 -0.482064 -0.234779 -0.844093 
0.862283 0.126108 0.490474 -0.605571 -0.157331 -0.780084 0.768362 0.0179353 0.639765 
0.848133 0.0492209 0.527492 0.767937 0.219515 0.601736 0.911651 0.0698748 0.404982 
0.948544 0.0891784 -0.303828 0.359135 0.73503 -0.575112 0.475188 0.69738 -0.536523 
0.522702 0.776493 -0.351909 0.294803 0.316324 -0.901682 0.979721 0.200254 0.00673519 
-0.199739 0.480243 -0.854091 0.602388 0.673601 -0.428241 -0.246684 0.555939 -0.793775 
0.148193 -0.306321 -0.940322 0.256787 -0.299521 -0.918884 0.0581576 -0.224043 -0.972842 
0.483544 0.703191 -0.521256 0.902223 0.330797 -0.276707 0.672688 -0.598489 -0.435088 
0.797038 0.412345 0.441251 -0.114896 -0.414658 -0.902695 0.883737 0.391597 -0.256243 
-0.341853 -0.417069 -0.842134 -0.410173 -0.349641 -0.842324 0.688441 0.102462 0.718019 
0.673149 0.24522 0.697666 -0.648939 -0.000211053 -0.760841 0.63802 0.0471706 0.768573 
-0.660723 0.128596 -0.739532 0.93866 0.0638042 0.33889 0.942492 0.0338816 0.332508 
0.827857 0.329047 0.454292 0.428942 0.708977 -0.559786 0.705294 0.563387 0.430297 
0.847341 0.527902 0.057733 -0.598699 0.482734 -0.639161 -0.214802 0.550952 -0.806419 
0.726589 0.660271 -0.190026 -0.410238 0.718151 -0.562107 -0.512892 0.837355 -0.189152 
0.425407 0.798334 -0.426253 0.117159 0.992113 -0.0445716 0.120413 -0.374807 -0.91925 
0.391872 -0.36456 -0.844708 -0.0215018 -0.49567 -0.868245 -0.0618097 -0.464766 -0.883274 
0.555323 -0.137237 -0.820233 -0.014828 -0.411445 -0.911314 0.656272 0.451779 -0.60432 
0.936556 -0.24786 -0.247849 0.796222 0.557858 0.234148 0.864279 0.478727 0.15441 
-0.504617 -0.313175 -0.804539 0.847363 0.350825 0.398619 0.68718 -0.111071 0.717947 
-0.645743 0.371613 -0.667023 0.888276 0.307348 0.341327 0.840045 0.438666 0.319213 
0.715485 0.583544 0.384131 0.173091 0.894189 0.412876 0.115066 -0.466833 -0.876828 
0.634395 -0.194444 -0.748154 0.0196777 -0.500759 -0.865363 0.326556 -0.374592 -0.86778 
0.792269 -0.0485528 -0.608238 0.536838 -0.238817 -0.80918 0.951877 0.0853886 -0.294345 
0.736574 0.179349 -0.652145 -0.357487 -0.5172 -0.777629 0.732954 0.583735 0.349331 
0.784454 0.533278 0.316618 0.738127 0.487503 0.46638 -0.588466 -0.275153 -0.760262 
0.689355 0.313568 0.653042 -0.691426 0.0434593 -0.721139 0.816214 0.108272 0.567514 
-0.556177 0.7156 -0.422592 -0.419438 0.906916 0.0396906 -0.0400904 0.881316 0.470824 
0.368888 0.704203 0.606646 0.618604 0.526918 0.582827 0.57226 0.514549 0.638559 
0.0157592 -0.525853 -0.85043 -0.247316 -0.5171 -0.819416 0.939922 0.323842 -0.108037 
0.866105 0.484503 0.122963 0.927685 0.350399 0.128921 0.950214 0.311598 0.000376799 
0.83131 0.542538 0.120734 -0.685345 0.289756 -0.66809 -0.714046 0.372507 -0.59277 
0.672731 0.0858335 0.734892 -0.637401 0.520824 -0.567857 0.670375 0.312429 0.673042 
-0.551013 0.752415 -0.360911 -0.052031 0.886431 0.459926 0.696096 -0.107389 -0.709872 
0.536053 -0.220141 -0.814976 0.923954 0.104678 -0.367901 0.951408 0.307353 -0.0188955 
0.713144 0.590712 0.37747 0.667011 0.531743 0.521867 -0.691843 0.267013 -0.670863 
-0.189172 0.977765 0.0904969 0.232925 0.783741 0.575757 0.453612 -0.288672 -0.843152 
0.75679 0.011139 -0.653563 0.237152 -0.418981 -0.876478 0.836357 0.0892654 -0.540868 
0.846124 0.503172 -0.17576 0.885634 0.211669 -0.413337 0.917839 0.376066 -0.12707 
0.872516 0.475094 -0.114027 0.81857 0.417082 0.394951 0.61595 0.389066 0.685006 
-0.608461 -0.327794 -0.722722 -0.669534 -0.00675918 -0.742751 -0.680432 0.541428 -0.49383 
0.541027 0.260195 0.799743 -0.32545 0.942851 0.0715173 0.481877 0.530876 0.697112 
0.390105 0.688271 0.611638 0.570426 0.362157 0.737195 0.0281659 -0.550806 -0.834158 
-0.295209 -0.623457 -0.723984 0.898105 0.397848 -0.187413 0.906774 0.412141 -0.0888898 
0.835168 0.54991 0.00971399 -0.422458 -0.576692 -0.699253 0.778115 0.577637 0.246722 
0.758467 0.569745 0.316415 0.639814 0.586251 0.496938 0.539557 0.175066 0.823547 
-0.668052 0.49412 -0.556374 -0.513467 0.815554 -0.266876 -0.0439015 0.949165 0.311702 
0.130516 0.715505 0.686307 0.183512 0.544823 0.818224 0.455156 0.386552 0.802129 
0.478284 0.597526 0.64359 0.0462063 0.899204 0.435083 0.2535 -0.300278 -0.919549 
0.274355 -0.313668 -0.909034 0.0377961 -0.53486 -0.844095 0.621378 -0.0356892 -0.782698 
0.716425 0.185565 -0.672534 0.767667 0.608936 0.199711 0.708548 0.62063 0.335824 
0.591426 0.529897 0.607803 0.342669 0.255213 0.904126 -0.669465 -0.167137 -0.723797 
0.614054 0.254572 0.747082 0.376754 0.639733 0.669924 0.251576 0.751726 0.609605 
0.00106007 -0.468602 -0.883409 0.357404 -0.382193 -0.852169 0.0767695 -0.525238 -0.847485 
-0.0985827 -0.557753 -0.824131 0.820807 0.485213 -0.301405 0.839365 0.44667 -0.309762 
0.75406 0.604076 0.257847 0.710945 0.593981 0.376488 0.579497 0.633587 0.512592 
-0.559149 -0.447297 -0.698053 0.465049 0.318687 0.825935 -0.704919 0.331061 -0.627287 
0.699406 0.0602284 0.712182 -0.772437 0.279302 -0.570379 0.629977 -0.0160736 0.776448 
-0.655559 0.49462 -0.570608 0.57475 0.315622 0.755013 -0.516745 0.797725 -0.310822 
-0.386925 0.894514 0.223904 0.0403036 0.966853 0.252133 -0.526834 -0.0459529 -0.848725 
0.129516 0.845773 0.517585 -0.389861 0.916325 -0.0914204 0.422882 -0.307029 -0.852587 
0.120505 -0.696746 -0.707123 0.187546 -0.616657 -0.764566 0.35279 -0.29861 -0.886776 
0.391241 -0.209889 -0.896034 0.637383 0.0673821 -0.767595 0.706796 0.0519374 -0.705508 