# vtk DataFile Version 4.2
vtk output
ASCII
DATASET POLYDATA
POINTS 4489 float
115.804 113.161 114.747 115.598 117.725 114.486 114.375 119.065 114.383 
113.342 120.53 114.482 114.815 120.591 114.461 113.056 122.047 114.619 
114.491 122.252 114.55 113.854 123.847 114.644 114.692 123.679 114.807 
113.909 124.334 114.669 113.91 124.597 114.727 113.988 124.454 114.683 
112.94 127.422 115.353 112.82 127.396 115.363 113.175 127.32 115.358 
116.357 106.373 115.533 116.755 106.379 115.547 117.096 109.601 115.357 
115.931 111.363 115.002 114.955 112.053 114.922 113.508 113.69 115.001 
116.204 112.932 114.866 116.577 115.282 114.787 116.568 118.396 114.859 
118 119.009 114.017 118 119.009 114.017 118 119.009 114.017 
118 119.009 114.017 112.921 119.717 114.601 118 119.009 114.017 
116.187 120.722 114.91 116.477 121.166 115.159 115.979 121.936 114.996 
112.507 124.949 115.09 112.451 128.918 115.928 112.874 129.082 115.929 
117.52 101.646 116.308 117.985 103.341 115.997 115.788 106.182 115.636 
114.676 106.519 115.845 117.312 107.282 115.556 117.769 107.031 115.734 
117.494 110.834 115.463 117.308 114.903 115.182 118 119.009 114.018 
117.114 120.464 115.576 116.413 123.43 115.7 115.252 125.613 115.577 
114.016 127.11 115.457 111.537 129.241 116.283 114.359 128.336 115.946 
112.108 130.45 116.498 113.351 129.872 116.282 112.475 131.759 116.987 
118.93 98.5462 117.441 119.08 102.055 116.728 118.318 106.179 115.99 
118.99 106.973 116.494 120 113.009 116.017 120 113.009 116.017 
120 113.009 116.017 120 113.009 116.017 120 113.009 116.017 
118.165 115.353 115.903 111.181 116.865 115.688 116.767 123.096 115.961 
110.787 125.007 115.849 115.779 125.062 115.756 115.998 126.491 116.475 
115.233 129.37 116.942 111.089 130.143 116.725 111.241 131.293 117.089 
114.463 130.729 117.158 111.979 132.396 117.344 112.355 132.352 117.316 
119.747 96.5267 118.287 120.212 97.4289 118.143 117.714 98.8136 117.364 
119.583 100.28 117.258 120.782 101.154 117.957 112.99 104.924 117.087 
119.963 106.06 117.288 119.492 107.805 117.094 119.721 108.325 117.521 
118.901 111.048 116.693 120 113.009 116.018 118.747 114.057 116.691 
118.709 116.1 117.017 121.004 117.013 117.009 121.004 117.013 117.009 
121.004 117.013 117.009 121.004 117.013 117.009 121.004 117.013 117.009 
118.28 119.09 117.232 108.523 122.109 117.315 117.54 121.901 116.624 
117.832 121.614 117.151 117.198 123.772 117.075 116.716 125.272 116.951 
110.732 132.204 117.93 113.531 131.708 117.214 111.523 132.891 117.893 
121.314 93.2234 119.65 120.773 93.5662 119.496 121.499 93.4717 119.597 
121.793 93.1755 119.825 119.324 94.3858 119.194 121.317 94.4289 119.354 
121.38 93.774 119.489 122.004 95.0131 118.009 122.004 95.0131 118.009 
122.004 95.0132 118.009 122.004 95.0131 118.009 117.83 96.7789 118.276 
122.004 95.0132 118.009 116.354 97.5784 118.294 121.192 97.4674 118.617 
120.84 99.99 118.075 121.014 102.227 118.373 110.551 108.504 117.753 
119.98 108.403 118.029 119.489 111.119 117.882 119.372 112.577 118.237 
118.994 115.063 117.779 121.004 117.013 117.009 118.741 116.621 117.902 
118.161 119.99 117.73 117.876 121.422 117.278 117.305 123.926 117.741 
116.091 127.665 117.341 116.528 126.665 117.754 108.699 128.523 118.014 
116.015 128.432 118.067 115.601 129.549 117.596 115.758 129.593 117.993 
115.856 129.363 118.047 115.699 129.838 118.278 115.825 129.47 118.195 
110.168 132.224 118.421 115.046 131.283 118.441 115.263 131.087 118.396 
113.046 132.623 117.76 114.16 132.109 118.147 115.332 130.987 118.381 
111.975 133.351 118.306 112.376 133.383 118.425 113.094 133.226 118.506 
111.806 133.549 118.57 112.035 133.549 118.741 112.896 133.391 118.677 
111.664 133.574 118.622 121.783 92.3993 120.04 121.752 92.1998 120.118 
121.551 92.5753 119.959 122.121 91.5321 120.533 121.492 93.1131 119.772 
122.04 92.4057 120.163 120.185 93.8099 119.381 120.994 93.2836 119.694 
121.387 93.4887 119.622 121.781 93.2981 119.862 121.459 93.697 119.654 
122.147 93.135 120.069 122.004 95.0131 118.009 123.004 107.013 119.009 
123.004 107.013 119.009 123.004 107.013 119.009 123.004 107.013 119.009 
123.004 107.013 119.009 119.213 113.517 118.999 118.696 115.882 119.122 
118.425 117.491 118.853 117.905 120.218 118.716 116.845 124.861 118.942 
116.208 127.515 118.596 115.399 130.669 118.608 114.807 131.618 118.939 
114.46 132.227 119.031 111.074 133.36 118.961 113.797 133.188 119.407 
114.073 133.004 119.249 111.18 133.493 119.212 111.536 133.559 119.055 
111.707 133.589 118.733 112.796 133.476 118.964 113.971 133.138 119.341 
121.754 91.7745 120.351 121.57 91.0975 120.742 122.644 90.8323 121.101 
121.223 92.181 120.167 122.51 91.6336 120.715 121.39 93.0566 119.854 
121.901 93.7589 119.869 122.594 97.5692 120.082 121.809 99.3909 119.123 
122.052 100.311 119.549 121.76 102.07 119.514 121.818 102.639 120.11 
123.004 107.013 119.009 109.656 132.794 120.403 110.092 133.121 120.328 
111.245 133.416 119.934 112.64 133.495 119.343 113.045 133.403 119.199 
114.052 133.061 119.401 110.232 133.227 120.206 113.953 133.13 119.459 
122.577 89.1843 121.939 123.238 89.1494 122.01 122.62 90.1363 121.406 
122.144 90.1416 121.331 123.194 91.0608 121.331 121.875 103.017 121.409 
115.349 128.214 120.356 114.747 130.776 120.025 107.223 131.431 121.667 
114.178 132.287 119.824 108.646 132.367 121.791 111.017 133.019 120.996 
112.085 133.262 120.283 112.89 132.923 120.438 125.392 85.8618 124.272 
124.135 86.9097 123.443 121.668 88.9182 122.217 112.362 96.2352 121.811 
123.455 97.4174 121.437 123.238 99.3427 122.167 122.971 100.15 122.259 
121.013 105.055 121.7 119.017 109.76 121.849 117.653 114.746 121.356 
116.01 117.194 122.349 107.704 132.008 122.268 113.22 132.299 120.877 
109.746 132.59 121.966 111.332 132.758 121.429 112.033 132.685 121.219 
125.003 85.13 124.647 124.03 86.5788 123.666 124.558 86.9352 123.637 
123.363 88.0692 122.792 125.775 87.8711 124.104 124.667 94.2154 122.515 
125.035 93.6986 122.959 125.055 93.9899 123.024 124.839 94.3514 122.765 
124.898 94.5435 122.951 123.846 97.8199 122.708 124.335 97.0579 123.753 
123.527 98.7686 122.654 123.476 99.0382 123.032 122.935 100.236 122.813 
106.014 103.299 123.147 118.524 108.686 123.078 102.435 117.501 122.759 
102.296 123.272 123.053 103.539 128.756 123.413 113.037 128.73 122.89 
106.703 131.696 123.671 107.547 131.958 123.217 110.673 132.193 122.567 
126.389 84.1165 125.602 124.164 85.2415 124.503 122.51 85.9213 124.229 
126.152 85.6357 124.825 126.189 87.2251 124.498 118.367 88.0297 124.123 
125.168 95.0754 124.063 123.757 98.3582 123.951 120.937 103.178 123.912 
103.702 130.082 124.432 103.661 130.231 124.736 104.911 131.019 124.524 
106.715 131.7 124.109 106.453 131.573 124.481 109.724 131.97 123.252 
125.693 84.0003 125.464 126.125 90.3588 124.164 126.255 90.6489 124.319 
125.701 93.0971 124.142 125.143 95.62 124.649 122.466 100.158 124.585 
119.762 103.224 125.357 102.342 128.796 124.986 107.323 131.661 124.333 
127.475 90.2289 126.42 126.206 93.4586 125.678 125.171 95.5081 124.859 
123.736 97.3957 125.886 118.781 103.165 126.385 116.061 106.224 126.835 
102.496 129.549 125.78 107.464 130.67 125.709 110.154 130.689 124.273 
123.67 82.2144 127.148 120.286 83.9341 126.826 129.127 84.7463 127.164 
128.761 86.9596 126.952 127.449 90.8494 127.016 113.348 109.612 127.407 
111.059 114.037 127.555 109.224 129.233 125.727 103.358 130.235 126.63 
104.023 130.38 126.735 106.683 130.757 125.894 130.493 79.5946 129.598 
129.528 81.3279 128.466 129.808 83.1422 128.014 128.377 89.4476 127.814 
128.124 90.0838 128.111 127.674 90.7621 127.986 126.176 93.1187 127.447 
123.921 96.2734 127.189 117.285 103.229 127.699 98.1615 112.559 127.507 
104.499 129.996 127.406 101.52 129.197 127.609 130.373 78.5387 130.203 
131.872 80.3057 129.904 131.59 82.1291 129.382 128.326 89.9127 128.877 
126.558 92.1625 128.57 127.085 91.4612 128.831 124.933 94.1062 128.556 
96.2282 119.437 129.32 99.7652 128.033 128.603 107.127 128.866 127.29 
100.453 128.593 128.775 101.167 129.013 128.187 102.146 129.388 128.167 
102.177 129.181 128.66 103.58 129.707 127.851 99.9057 128.434 129.078 
135 75.0087 130.017 135 75.0087 130.017 135 75.0088 130.017 
135 75.0088 130.017 135 75.0088 130.017 129.679 77.8218 130.743 
127.199 78.4863 130.367 132.441 79.807 130.362 132.41 82.5299 130.049 
131.54 84.6379 129.732 127.855 90.4436 129.516 100.232 99.9966 129.979 
97.945 103.585 130.461 108.099 112.733 130.797 97.2235 125.808 130.161 
103.189 128.825 129.227 102.747 128.717 129.464 99.3344 128.022 129.874 
100.449 128.499 129.541 135 75.0087 130.017 134.136 75.9885 132.536 
133.692 77.0717 131.897 133.613 79.5467 131.079 133.571 83.0978 131.599 
131.56 85.8958 131.099 103.613 127.16 130.505 102.907 128.216 129.991 
130.712 75.7246 132.671 135.57 77.3005 132.521 133.322 84.266 132.462 
129.582 88.0283 131.966 128.218 89.1105 132.075 102.405 94.3432 131.774 
96.8432 126.315 131.796 135.661 74.5314 133.778 136.588 74.4685 134.065 
133.919 74.2 133.816 128.411 75.9479 133.025 135.95 78.4116 132.697 
135.528 80.2084 132.561 136.717 79.2847 133.489 134.125 83.1996 132.545 
133.805 84.055 133.311 130.943 86.7121 132.76 126.241 89.6506 133.458 
104.859 115.723 133.132 95.3911 125.101 133.055 95.7976 125.641 133.32 
101.925 126.108 132.465 96.2722 126.064 133.26 98.1032 127.161 132.148 
98.3931 126.947 132.981 100.481 127.236 132.332 133.262 73.6408 134.446 
135.196 73.2052 134.747 138.406 74.4731 134.82 138.188 76.1773 134.398 
137.876 77.5799 134.214 136.778 80.3764 134.05 136.212 81.5427 134.18 
135.541 82.4326 134.287 124.71 90.0888 134.129 93.0107 120.25 133.816 
101.69 124.853 133.498 97.4065 126.564 133.544 97.4211 126.364 134.079 
98.9527 126.413 133.993 99.3824 126.8 133.248 96.9684 126.454 133.359 
100.737 126.873 132.616 134.419 72.7599 135.251 131.205 73.4957 135.222 
138.195 78.8138 134.98 138.443 79.2571 135.616 136.805 81.5324 135.526 
[...]
POINT_DATA 4489
SCALARS scalars float
LOOKUP_TABLE default
1 1 1 1 1 1 1 1 1 
1 1 1 1 1 1 1 1 1 
1 1 1 1 1 1 1 1 1 
1 1 1 1 1 1 1 1 1 
1 1 1 1 1 1 1 1 1 
1 1 1 1 1 1 1 1 1 
1 1 1 1 1 1 1 1 1 
1 1 1 1 1 1 1 1 1 
1 1 1 1 1 1 1 1 1 
1 1 1 1 1 1 1 1 1 
1 1 1 1 1 1 1 1 1 
1 1 1 1 1 1 1 1 1 
1 1 1 1 1 1 1 1 1 
1 1 1 1 1 1 1 1 1 
1 1 1 1 1 1 1 1 1 
1 1 1 1 1 1 1 1 1 
1 1 1 1 1 1 1 1 1 
1 1 1 1 1 1 1 1 1 
1 1 1 1 1 1 1 1 1 
1 1 1 1 1 1 1 1 1 
1 1 1 1 1 1 1 1 1 
1 1 1 1 1 1 1 1 1 
1 1 1 1 1 1 1 1 1 
1 1 1 1 1 1 1 1 1 
1 1 1 1 1 1 1 1 1 
1 1 1 1 1 1 1 1 1 
1 1 1 1 1 1 1 1 1 
1 1 1 1 1 1 1 1 1 
1 1 1 1 1 1 1 1 1 
1 1 1 1 1 1 1 1 1 
1 1 1 1 1 1 1 1 1 
1 1 1 1 1 1 1 1 1 
1 1 1 1 1 1 1 1 1 
1 1 1 1 1 1 1 1 1 
1 1 1 1 1 1 1 1 1 
1 1 1 1 1 1 1 1 1 
1 1 1 1 1 1 1 1 1 
1 1 1 1 1 1 1 1 1 
1 1 1 1 1 1 1 1 1 
1 1 1 1 1 1 1 1 1 
1 1 1 1 1 1 1 1 1 
1 1 1 1 1 1 1 1 1 
1 1 1 1 1 1 1 1 1 
1 1 1 1 1 1 1 1 1 
1 1 1 1 1 1 1 1 1 
1 1 1 1 1 1 1 1 1 
1 1 1 1 1 1 1 1 1 
1 1 1 1 1 1 1 1 1 
1 1 1 1 1 1 1 1 1 
1 1 1 1 1 1 1 1 1 
1 1 1 1 1 1 1 1 1 
1 1 1 1 1 1 1 1 1 
1 1 1 1 1 1 1 1 1 
1 1 1 1 1 1 1 1 1 
1 1 1 1 1 1 1 1 1 
1 1 1 1 1 1 1 1 1 
1 1 1 1 1 1 1 1 1 
1 1 1 1 1 1 1 1 1 
1 1 1 1 1 1 1 1 1 
1 1 1 1 1 1 1 1 1 
1 1 1 1 1 1 1 1 1 
1 1 1 1 1 1 1 1 1 
1 1 1 1 1 1 1 1 1 
1 1 1 1 1 1 1 1 1 
1 1 1 1 1 1 1 1 1 
1 1 1 1 1 1 1 1 1 
1 1 1 1 1 1 1 1 1 
1 1 1 1 1 1 1 1 1 
1 1 1 1 1 1 1 1 1 
1 1 1 1 1 1 1 1 1 
1 1 1 1 1 1 1 1 1 
1 1 1 1 1 1 1 1 1 
1 1 1 1 1 1 1 1 1 
1 1 1 1 1 1 1 1 1 
1 1 1 1 1 1 1 1 1 
1 1 1 1 1 1 1 1 1 
1 1 1 1 1 1 1 1 1 
1 1 1 1 1 1 1 1 1 
1 1 1 1 1 1 1 1 1 
1 1 1 1 1 1 1 1 1 
1 1 1 1 1 1 1 1 1 
1 1 1 1 1 1 1 1 1 
1 1 1 1 1 1 1 1 1 
1 1 1 1 1 1 1 1 1 
1 1 1 1 1 1 1 1 1 
1 1 1 1 1 1 1 1 1 
1 1 1 1 1 1 1 1 1 
1 1 1 1 1 1 1 1 1 
1 1 1 1 1 1 1 1 1 
1 1 1 1 1 1 1 1 1 
1 1 1 1 1 1 1 1 1 
1 1 1 1 1 1 1 1 1 
1 1 1 1 1 1 1 1 1 
1 1 1 1 1 1 1 1 1 
1 1 1 1 1 1 1 1 1 
1 1 1 1 1 1 1 1 1 
1 1 1 1 1 1 1 1 1 
1 1 1 1 1 1 1 1 1 
1 1 1 1 1 1 1 1 1 
1 1 1 1 1 1 1 1 1 
1 1 1 1 1 1 1 1 1 
1 1 1 1 1 1 1 1 1 
1 1 1 1 1 1 1 1 1 
1 1 1 1 1 1 1 1 1 
1 1 1 1 1 1 1 1 1 
1 1 1 1 1 1 1 1 1 
1 1 1 1 1 1 1 1 1 
1 1 1 1 1 1 1 1 1 
1 1 1 1 1 1 1 1 1 
1 1 1 1 1 1 1 1 1 
1 1 1 1 1 1 1 1 1 
1 1 1 1 1 1 1 1 1 
1 1 1 1 1 1 1 1 1 
1 1 1 1 1 1 1 1 1 
1 1 1 1 1 1 1 1 1 
1 1 1 1 1 1 1 1 1 
1 1 1 1 1 1 1 1 1 
1 1 1 1 1 1 1 1 1 
1 1 1 1 1 1 1 1 1 
1 1 1 1 1 1 1 1 1 
1 1 1 1 1 1 1 1 1 
1 1 1 1 1 1 1 1 1 
1 1 1 1 1 1 1 1 1 
1 1 1 1 1 1 1 1 1 
1 1 1 1 1 1 1 1 1 
1 1 1 1 1 1 1 1 1 
1 1 1 1 1 1 1 1 1 
1 1 1 1 1 1 1 1 1 
1 1 1 1 1 1 1 1 1 
1 1 1 1 1 1 1 1 1 
1 1 1 1 1 1 1 1 1 
1 1 1 1 1 1 1 1 1 
1 1 1 1 1 1 1 1 1 
1 1 1 1 1 1 1 1 1 
1 1 1 1 1 1 1 1 1 
1 1 1 1 1 1 1 1 1 
1 1 1 1 1 1 1 1 1 
1 1 1 1 1 1 1 1 1 
1 1 1 1 1 1 1 1 1 
1 1 1 1 1 1 1 1 1 
1 1 1 1 1 1 1 1 1 
1 1 1 1 1 1 1 1 1 
1 1 1 1 1 1 1 1 1 
1 1 1 1 1 1 1 1 1 
1 1 1 1 1 1 1 1 1 
1 1 1 1 1 1 1 1 1 
1 1 1 1 1 1 1 1 1 
1 1 1 1 1 1 1 1 1 
1 1 1 1 1 1 1 1 1 
1 1 1 1 1 1 1 1 1 
1 1 1 1 1 1 1 1 1 
1 1 1 1 1 1 1 1 1 
1 1 1 1 1 1 1 1 1 
1 1 1 1 1 1 1 1 1 
1 1 1 1 1 1 1 1 1 
1 1 1 1 1 1 1 1 1 
1 1 1 1 1 1 1 1 1 
1 1 1 1 1 1 1 1 1 
1 1 1 1 1 1 1 1 1 
1 1 1 1 1 1 1 1 1 
1 1 1 1 1 1 1 1 1 
1 1 1 1 1 1 1 1 1 
1 1 1 1 1 1 1 1 1 
1 1 1 1 1 1 1 1 1 
1 1 1 1 1 1 1 1 1 
1 1 1 1 1 1 1 1 1 
1 1 1 1 1 1 1 1 1 
1 1 1 1 1 1 1 1 1 
1 1 1 1 1 1 1 1 1 
1 1 1 1 1 1 1 1 1 
1 1 1 1 1 1 1 1 1 
1 1 1 1 1 1 1 1 1 
1 1 1 1 1 1 1 1 1 
1 1 1 1 1 1 1 1 1 
1 1 1 1 1 1 1 1 1 
1 1 1 1 1 1 1 1 1 
1 1 1 1 1 1 1 1 1 
1 1 1 1 1 1 1 1 1 
1 1 1 1 1 1 1 1 1 
1 1 1 1 1 1 1 1 1 
1 1 1 1 1 1 1 1 1 
1 1 1 1 1 1 1 1 1 
1 1 1 1 1 1 1 1 1 
1 1 1 1 1 1 1 1 1 
1 1 1 1 1 1 1 1 1 
1 1 1 1 1 1 1 1 1 
1 1 1 1 1 1 1 1 1 
1 1 1 1 1 1 1 1 1 
1 1 1 1 1 1 1 1 1 
1 1 1 1 1 1 1 1 1 
1 1 1 1 1 1 1 1 1 
1 1 1 1 1 1 1 1 1 
1 1 1 1 1 1 1 1 1 
1 1 1 1 1 1 1 1 1 
1 1 1 1 1 1 1 1 1 
1 1 1 1 1 1 1 1 1 
1 1 1 1 1 1 1 1 1 
1 1 1 1 1 1 1 1 1 
1 1 1 1 1 1 1 1 1 
1 1 1 1 1 1 1 1 1 
1 1 1 1 1 1 1 1 1 
1 1 1 1 1 1 1 1 1 
1 1 1 1 1 1 1 1 1 
1 1 1 1 1 1 1 1 1 
1 1 1 1 1 1 1 1 1 
1 1 1 1 1 1 1 1 1 
1 1 1 1 1 1 1 1 1 
1 1 1 1 1 1 1 1 1 
1 1 1 1 1 1 1 1 1 
1 1 1 1 1 1 1 1 1 
1 1 1 1 1 1 1 1 1 
1 1 1 1 1 1 1 1 1 
1 1 1 1 1 1 1 1 1 
1 1 1 1 1 1 1 1 1 
1 1 1 1 1 1 1 1 1 
1 1 1 1 1 1 1 1 1 
1 1 1 1 1 1 1 1 1 
1 1 1 1 1 1 1 1 1 
1 1 1 1 1 1 1 1 1 
1 1 1 1 1 1 1 1 1 
1 1 1 1 1 1 1 1 1 
1 1 1 1 1 1 1 1 1 
1 1 1 1 1 1 1 1 1 
1 1 1 1 1 1 1 1 1 
1 1 1 1 1 1 1 1 1 
1 1 1 1 1 1 1 1 1 
1 1 1 1 1 1 1 1 1 
1 1 1 1 1 1 1 1 1 
1 1 1 1 1 1 1 1 1 
1 1 1 1 1 1 1 1 1 
1 1 1 1 1 1 1 1 1 
1 1 1 1 1 1 1 1 1 
1 1 1 1 1 1 1 1 1 
1 1 1 1 1 1 1 1 1 
1 1 1 1 1 1 1 1 1 
1 1 1 1 1 1 1 1 1 
1 1 1 1 1 1 1 1 1 
1 1 1 1 1 1 1 1 1 
1 1 1 1 1 1 1 1 1 
1 1 1 1 1 1 1 1 1 
1 1 1 1 1 1 1 1 1 
1 1 1 1 1 1 1 1 1 
1 1 1 1 1 1 1 1 1 
1 1 1 1 1 1 1 1 1 
1 1 1 1 1 1 1 1 1 
1 1 1 1 1 1 1 1 1 
1 1 1 1 1 1 1 1 1 
1 1 1 1 1 1 1 1 1 
1 1 1 1 1 1 1 1 1 
1 1 1 1 1 1 1 1 1 
1 1 1 1 1 1 1 1 1 
1 1 1 1 1 1 1 1 1 
1 1 1 1 1 1 1 1 1 
1 1 1 1 1 1 1 1 1 
1 1 1 1 1 1 1 1 1 
1 1 1 1 1 1 1 1 1 
1 1 1 1 1 1 1 1 1 
1 1 1 1 1 1 1 1 1 
1 1 1 1 1 1 1 1 1 
1 1 1 1 1 1 1 1 1 
1 1 1 1 1 1 1 1 1 
1 1 1 1 1 1 1 1 1 
1 1 1 1 1 1 1 1 1 
1 1 1 1 1 1 1 1 1 
1 1 1 1 1 1 1 1 1 
1 1 1 1 1 1 1 1 1 
1 1 1 1 1 1 1 1 1 
1 1 1 1 1 1 1 1 1 
1 1 1 1 1 1 1 1 1 
1 1 1 1 1 1 1 1 1 
1 1 1 1 1 1 1 1 1 
1 1 1 1 1 1 1 1 1 
1 1 1 1 1 1 1 1 1 
1 1 1 1 1 1 1 1 1 
1 1 1 1 1 1 1 1 1 
1 1 1 1 1 1 1 1 1 
1 1 1 1 1 1 1 1 1 
1 1 1 1 1 1 1 1 1 
1 1 1 1 1 1 1 1 1 
1 1 1 1 1 1 1 1 1 
1 1 1 1 1 1 1 1 1 
1 1 1 1 1 1 1 1 1 
1 1 1 1 1 1 1 1 1 
1 1 1 1 1 1 1 1 1 
1 1 1 1 1 1 1 1 1 
1 1 1 1 1 1 1 1 1 
1 1 1 1 1 1 1 1 1 
1 1 1 1 1 1 1 1 1 
1 1 1 1 1 1 1 1 1 
1 1 1 1 1 1 1 1 1 
1 1 1 1 1 1 1 1 1 
1 1 1 1 1 1 1 1 1 
1 1 1 1 1 1 1 1 1 
1 1 1 1 1 1 1 1 1 
1 1 1 1 1 1 1 1 1 
1 1 1 1 1 1 1 1 1 
1 1 1 1 1 1 1 1 1 
1 1 1 1 1 1 1 1 1 
1 1 1 1 1 1 1 1 1 
1 1 1 1 1 1 1 1 1 
1 1 1 1 1 1 1 1 1 
1 1 1 1 1 1 1 1 1 
1 1 1 1 1 1 1 1 1 
1 1 1 1 1 1 1 1 1 
1 1 1 1 1 1 1 1 1 
1 1 1 1 1 1 1 1 1 
1 1 1 1 1 1 1 1 1 
1 1 1 1 1 1 1 1 1 
1 1 1 1 1 1 1 1 1 
1 1 1 1 1 1 1 1 1 
1 1 1 1 1 1 1 1 1 
1 1 1 1 1 1 1 1 1 
1 1 1 1 1 1 1 1 1 
1 1 1 1 1 1 1 1 1 
1 1 1 1 1 1 1 1 1 
1 1 1 1 1 1 1 1 1 
1 1 1 1 1 1 1 1 1 
1 1 1 1 1 1 1 1 1 
1 1 1 1 1 1 1 1 1 
1 1 1 1 1 1 1 1 1 
1 1 1 1 1 1 1 1 1 
1 1 1 1 1 1 1 1 1 
1 1 1 1 1 1 1 1 1 
1 1 1 1 1 1 1 1 1 
1 1 1 1 1 1 1 1 1 
1 1 1 1 1 1 1 1 1 
1 1 1 1 1 1 1 1 1 
1 1 1 1 1 1 1 1 1 
1 1 1 1 1 1 1 1 1 
1 1 1 1 1 1 1 1 1 
1 1 1 1 1 1 1 1 1 
1 1 1 1 1 1 1 1 1 
1 1 1 1 1 1 1 1 1 
1 1 1 1 1 1 1 1 1 
1 1 1 1 1 1 1 1 1 
1 1 1 1 1 1 1 1 1 
1 1 1 1 1 1 1 1 1 
1 1 1 1 1 1 1 1 1 
1 1 1 1 1 1 1 1 1 
1 1 1 1 1 1 1 1 1 
1 1 1 1 1 1 1 1 1 
1 1 1 1 1 1 1 1 1 
1 1 1 1 1 1 1 1 1 
1 1 1 1 1 1 1 1 1 
1 1 1 1 1 1 1 1 1 
1 1 1 1 1 1 1 1 1 
1 1 1 1 1 1 1 1 1 
1 1 1 1 1 1 1 1 1 
1 1 1 1 1 1 1 1 1 
1 1 1 1 1 1 1 1 1 
1 1 1 1 1 1 1 1 1 
1 1 1 1 1 1 1 1 1 
1 1 1 1 1 1 1 1 1 
1 1 1 1 1 1 1 1 1 
1 1 1 1 1 1 1 1 1 
1 1 1 1 1 1 1 1 1 
1 1 1 1 1 1 1 1 1 
1 1 1 1 1 1 1 1 1 
1 1 1 1 1 1 1 1 1 
1 1 1 1 1 1 1 1 1 
1 1 1 1 1 1 1 1 1 
1 1 1 1 1 1 1 1 1 
1 1 1 1 1 1 1 1 1 
1 1 1 1 1 1 1 1 1 
1 1 1 1 1 1 1 1 1 
1 1 1 1 1 1 1 1 1 
1 1 1 1 1 1 1 1 1 
1 1 1 1 1 1 1 1 1 
1 1 1 1 1 1 1 1 1 
1 1 1 1 1 1 1 1 1 
1 1 1 1 1 1 1 1 1 
1 1 1 1 1 1 1 1 1 
1 1 1 1 1 1 1 1 1 
1 1 1 1 1 1 1 1 1 
1 1 1 1 1 1 1 1 1 
1 1 1 1 1 1 1 1 1 
1 1 1 1 1 1 1 1 1 
1 1 1 1 1 1 1 1 1 
1 1 1 1 1 1 1 1 1 
1 1 1 1 1 1 1 1 1 
1 1 1 1 1 1 1 1 1 
1 1 1 1 1 1 1 1 1 
1 1 1 1 1 1 1 1 1 
1 1 1 1 1 1 1 1 1 
1 1 1 1 1 1 1 1 1 
1 1 1 1 1 1 1 1 1 
1 1 1 1 1 1 1 1 1 
1 1 1 1 1 1 1 1 1 
1 1 1 1 1 1 1 1 1 
1 1 1 1 1 1 1 1 1 
1 1 1 1 1 1 1 1 1 
1 1 1 1 1 1 1 1 1 
1 1 1 1 1 1 1 1 1 
1 1 1 1 1 1 1 1 1 
1 1 1 1 1 1 1 1 1 
1 1 1 1 1 1 1 1 1 
1 1 1 1 1 1 1 1 1 
1 1 1 1 1 1 1 1 1 
1 1 1 1 1 1 1 1 1 
1 1 1 1 1 1 1 1 1 
1 1 1 1 1 1 1 1 1 
1 1 1 1 1 1 1 1 1 
1 1 1 1 1 1 1 1 1 
1 1 1 1 1 1 1 1 1 
1 1 1 1 1 1 1 1 1 
1 1 1 1 1 1 1 1 1 
1 1 1 1 1 1 1 1 1 
1 1 1 1 1 1 1 1 1 
1 1 1 1 1 1 1 1 1 
1 1 1 1 1 1 1 1 1 
1 1 1 1 1 1 1 1 1 
1 1 1 1 1 1 1 1 1 
1 1 1 1 1 1 1 1 1 
1 1 1 1 1 1 1 1 1 
1 1 1 1 1 1 1 1 1 
1 1 1 1 1 1 1 1 1 
1 1 1 1 1 1 1 1 1 
1 1 1 1 1 1 1 1 1 
1 1 1 1 1 1 1 1 1 
1 1 1 1 1 1 1 1 1 
1 1 1 1 1 1 1 1 1 
1 1 1 1 1 1 1 1 1 
1 1 1 1 1 1 1 1 1 
1 1 1 1 1 1 1 1 1 
1 1 1 1 1 1 1 1 1 
1 1 1 1 1 1 1 1 1 
1 1 1 1 1 1 1 1 1 
1 1 1 1 1 1 1 1 1 
1 1 1 1 1 1 1 1 1 
1 1 1 1 1 1 1 1 1 
1 1 1 1 1 1 1 1 1 
1 1 1 1 1 1 1 1 1 
1 1 1 1 1 1 1 1 1 
1 1 1 1 1 1 1 1 1 
1 1 1 1 1 1 1 1 1 
1 1 1 1 1 1 1 1 1 
1 1 1 1 1 1 1 1 1 
1 1 1 1 1 1 1 1 1 
1 1 1 1 1 1 1 1 1 
1 1 1 1 1 1 1 1 1 
1 1 1 1 1 1 1 1 1 
1 1 1 1 1 1 1 1 1 
1 1 1 1 1 1 1 1 1 
1 1 1 1 1 1 1 1 1 
1 1 1 1 1 1 1 1 1 
1 1 1 1 1 1 1 1 1 
1 1 1 1 1 1 1 1 1 
1 1 1 1 1 1 1 1 1 
1 1 1 1 1 1 1 1 1 
1 1 1 1 1 1 1 1 1 
1 1 1 1 1 1 1 1 1 
1 1 1 1 1 1 1 1 1 
1 1 1 1 1 1 1 1 1 
1 1 1 1 1 1 1 1 1 
1 1 1 1 1 1 1 1 1 
1 1 1 1 1 1 1 1 1 
1 1 1 1 1 1 1 1 1 
1 1 1 1 1 1 1 1 1 
1 1 1 1 1 1 1 1 1 
1 1 1 1 1 1 1 1 1 
1 1 1 1 1 1 1 1 1 
1 1 1 1 1 1 1 1 1 
1 1 1 1 1 1 1 1 1 
1 1 1 1 1 1 1 1 1 
1 1 1 1 1 1 1 1 1 
1 1 1 1 1 1 1 1 1 
1 1 1 1 1 1 1 1 1 
1 1 1 1 1 1 1 1 1 
1 1 1 1 1 1 1 1 1 
1 1 1 1 1 1 1 1 1 
1 1 1 1 1 1 1 1 1 
1 1 1 1 1 1 1 1 1 
1 1 1 1 1 1 1 1 1 
1 1 1 1 1 1 1 1 1 
1 1 1 1 1 1 1 1 1 
1 1 1 1 1 1 1 1 1 
1 1 1 1 1 1 1 1 1 
1 1 1 1 1 1 1 1 1 
1 1 1 1 1 1 1 1 1 
1 1 1 1 1 1 1 1 1 
1 1 1 1 1 1 1 1 1 
1 1 1 1 1 1 1 1 1 
1 1 1 1 1 1 1 1 1 
1 1 1 1 1 1 1 1 1 
1 1 1 1 1 1 1 1 1 
1 1 1 1 1 1 1 1 1 
1 1 1 1 1 1 1 1 1 
1 1 1 1 1 1 1 1 1 
1 1 1 1 1 1 1 1 1 
1 1 1 1 1 1 1 1 1 
1 1 1 1 1 1 1 1 1 
1 1 1 1 1 1 1 1 1 
1 1 1 1 1 1 1 1 1 
1 1 1 1 1 1 1 1 1 
1 1 1 1 1 1 1 1 1 
1 1 1 1 1 1 1 1 1 
1 1 1 1 1 1 1 1 1 
1 1 1 1 1 1 1 1 1 
1 1 1 1 1 1 1 
NORMALS Normals float
0.111214 -0.0781002 -0.990723 0.0703967 -0.0691666 -0.995118 0.0571017 -0.0255266 -0.998042 
-0.292349 0.0946686 -0.951614 0.208491 0.0945394 -0.973444 -0.261873 0.0466806 -0.963973 
0.164944 0.144006 -0.975733 -0.199208 0.0399303 -0.979143 0.365813 0.185659 -0.911982 
-0.326641 0.138801 -0.934901 0.00806294 0.292786 -0.956144 0.227739 0.217706 -0.949073 
0.000621923 0.195746 -0.980654 -0.213758 0.129494 -0.968266 0.103729 0.193994 -0.975503 
-0.0398371 -0.134352 -0.990133 0.113149 -0.179699 -0.977193 0.197944 -0.0638691 -0.97813 
0.186012 -0.112139 -0.976127 -0.195488 -0.162245 -0.967192 -0.305066 -0.139064 -0.942123 
0.248333 -0.131627 -0.95969 0.398707 0.0364155 -0.916355 0.396102 0.0633384 -0.916019 
-0.801784 -0.534522 -0.267261 -0.83125 -0.554167 -0.0438433 -0.998054 0.037817 -0.0495827 
0.998054 0.037817 -0.0495827 -0.352804 -0.0409566 -0.934801 0 0.999799 -0.0200685 
0.410186 0.108888 -0.905478 0.567964 0.185128 -0.801963 0.467113 0.173487 -0.867011 
-0.179785 0.104702 -0.978118 -0.122456 0.31464 -0.941279 -0.00590937 0.275861 -0.961179 
-0.00416465 -0.256259 -0.966599 0.351853 -0.110607 -0.929497 -0.171148 -0.282111 -0.943993 
-0.200093 -0.144264 -0.969098 0.29169 0.0171908 -0.956358 0.405491 0.0431857 -0.913078 
0.578209 0.0149071 -0.815752 0.505533 -0.0404755 -0.861857 0 -0.102978 0.994684 
0.725439 0.133753 -0.675166 0.600735 0.255328 -0.757579 0.531161 0.275118 -0.80136 
0.266302 0.25512 -0.929514 -0.348615 0.272704 -0.896716 0.302628 0.293044 -0.906941 
-0.0725648 0.325903 -0.942614 -0.0041295 0.392128 -0.919901 0.08564 0.423955 -0.901625 
0.0948139 -0.322575 -0.941783 0.503071 -0.108485 -0.857409 0.466085 -0.0341967 -0.884079 
0.647478 0.0317123 -0.761424 -0.801784 -0.534522 -0.267261 -0.83125 -0.554167 -0.0438433 
-0.998054 0.037817 -0.0495827 0.998054 0.037817 -0.0495827 0 0.999799 -0.0200685 
0.772404 0.08237 -0.629767 -0.596591 -0.015239 -0.802401 0.838457 0.173686 -0.51655 
-0.451209 0.0992093 -0.886887 0.649332 0.279385 -0.707328 0.666002 0.265792 -0.69699 
0.757547 0.306243 -0.576487 -0.41569 0.244163 -0.87612 -0.362798 0.367789 -0.856218 
0.443382 0.479759 -0.757129 -0.228518 0.509229 -0.829738 0.0338532 0.574857 -0.817553 
0.160991 -0.305763 -0.938398 0.256402 -0.256652 -0.931873 -0.224876 -0.329386 -0.917025 
0.373088 -0.107158 -0.921587 0.681491 0.072173 -0.728259 -0.502716 -0.299915 -0.810757 
0.724527 0.0455499 -0.68774 0.851251 -0.0376625 -0.523406 0.828138 0.0779176 -0.555082 
0.824835 0.0742734 -0.560474 0 -0.102978 0.994684 0.835992 0.0347628 -0.547639 
0.92258 0.233717 -0.306956 0.236905 -0.833243 -0.499582 -0.739585 0.285151 -0.609674 
0.609676 0.499302 -0.615624 0.803509 -0.298098 0.515278 -0.173314 0.876005 0.450085 
0.9694 0.140858 -0.201056 -0.606939 0.0191843 -0.794517 0.848578 0.161551 -0.503803 
0.95399 0.251865 -0.162688 0.895519 0.146848 -0.420097 0.840874 0.278329 -0.464182 
-0.515857 0.516384 -0.683549 0.3786 0.522809 -0.763762 -0.0839103 0.684058 -0.724585 
0.140221 -0.313033 -0.939334 0.0437744 -0.429593 -0.901961 0.255308 -0.312878 -0.914836 
0.658623 0.24493 -0.711495 -0.068039 -0.391828 -0.917519 0.576546 -0.168886 -0.79942 
0.0902628 -0.246992 -0.964804 0.236905 -0.833243 -0.499582 -0.739585 0.285151 -0.609674 
0.609676 0.499302 -0.615624 0.803509 -0.298098 0.515278 -0.163438 -0.344288 -0.924529 
-0.173314 0.876005 0.450085 -0.338781 -0.320331 -0.884655 0.588542 -0.212087 -0.780152 
0.659807 -0.0644596 -0.748666 0.724389 0.131469 -0.67674 -0.556327 -0.241429 -0.795118 
0.890779 0.0353622 -0.453058 0.939516 0.142771 -0.311329 0.980438 0.127706 -0.149773 
0.978348 0.121279 -0.167712 -0.57735 -0.57735 0.57735 0.945185 0.317801 -0.0750134 
0.98262 0.137911 0.124251 0.978849 0.179144 -0.0987999 0.986453 0.152551 -0.0603258 
0.908498 0.306348 -0.284224 0.969111 0.2408 0.0532878 -0.63306 0.243788 -0.734713 
0.962958 0.211145 -0.167722 0.84774 0.331455 -0.414095 0.884002 0.405382 -0.232821 
0.938433 0.201002 -0.280967 0.939888 0.339974 0.032066 0.955144 0.26382 0.134534 
-0.632758 0.573607 -0.520185 0.800715 0.598897 -0.0133149 -0.177958 0.0267292 -0.983675 
0.286315 0.671064 -0.683883 0.625456 0.62037 -0.473229 0.835709 0.499095 -0.229116 
0.0688735 0.785837 -0.614587 0.178679 0.849913 -0.495704 0.373818 0.845891 -0.380432 
0.118694 0.924196 -0.363005 0.159992 0.971529 -0.174743 0.359785 0.780722 -0.510908 
-0.228202 0.898606 -0.374741 0.304694 -0.213857 -0.928131 0.175087 -0.431605 -0.884908 
-0.00242947 -0.326912 -0.945051 0.298523 -0.357345 -0.884979 -0.738401 0.388499 0.55121 
0.43714 -0.261591 -0.860511 -0.0554427 -0.444438 -0.894092 0.0979696 -0.441343 -0.891974 
-0.35621 0.201793 0.912356 0.220382 0.504159 -0.835018 0.293031 -0.241203 0.925178 
0.607637 -0.0456457 -0.792902 -0.57735 -0.57735 0.57735 0.236905 -0.833243 -0.499582 
-0.739585 0.285151 -0.609674 0.609676 0.499302 -0.615624 0.803509 -0.298098 0.515278 
-0.173314 0.876005 0.450085 0.953166 0.219472 0.208103 0.940705 0.205016 0.270265 
0.955374 0.295137 0.0124077 0.876855 0.210677 0.432136 0.930348 0.242984 0.27461 
0.974555 0.174553 0.140623 0.847254 0.391239 0.359294 0.871828 0.482759 0.0828262 
0.886264 0.462002 -0.0330292 -0.50029 0.775057 -0.386001 0.252479 0.96105 0.112413 
0.747074 0.602911 -0.27996 -0.183677 0.982732 -0.0223805 -0.123868 0.991651 0.0358505 
0.0289487 0.997989 -0.0563837 0.275501 0.955725 -0.103388 0.512742 0.837667 -0.188174 
0.037888 -0.461113 -0.886532 -0.111253 -0.493166 -0.862792 0.271046 -0.442645 -0.854751 
-0.0800201 -0.44755 -0.890672 0.537073 -0.204303 -0.818421 -0.0740144 -0.13372 -0.988251 
0.476569 -0.102223 -0.873174 0.820332 -0.116254 -0.559947 0.755418 0.0149346 -0.655073 
0.865273 0.107641 -0.489609 0.916825 0.159161 -0.366196 0.944156 0.202981 -0.259554 
-0.57735 -0.57735 0.57735 -0.582459 0.807989 -0.0888524 -0.390045 0.855295 0.341081 
0.0116106 0.954936 0.296583 0.159671 0.979855 0.119958 0.310009 0.947201 0.081881 
0.788733 0.534243 0.304111 -0.4412 0.897401 -0.00382917 0.481222 0.788212 0.383597 
0.11328 -0.508611 -0.853512 0.447643 -0.393339 -0.803057 0.248861 -0.474673 -0.844247 
-0.0271381 -0.516939 -0.855592 0.64569 -0.214266 -0.732922 0.950907 0.307126 0.0380597 
0.867491 0.174879 0.4657 0.838818 0.312383 0.44587 -0.531399 0.81032 -0.246976 
0.763057 0.445403 0.46836 -0.466911 0.87495 -0.128288 -0.068268 0.880151 0.469759 
0.120715 0.901109 0.416451 0.374939 0.735504 0.564318 0.424044 -0.308749 -0.851388 
0.239739 -0.470142 -0.849406 -0.117384 -0.599041 -0.792067 -0.570312 -0.39296 -0.721336 
0.896484 0.0689531 -0.437678 0.934339 0.26184 -0.241765 0.987803 0.132892 -0.0811536 
0.859025 0.380395 0.342602 0.717411 0.353342 0.600392 0.77622 0.234749 0.585128 
0.714722 0.229454 0.6607 -0.451331 0.890886 -0.0512066 0.498943 0.487002 0.716858 
-0.137448 0.950738 0.277857 0.0938716 0.771982 0.628675 0.230341 0.763688 0.603095 
0.128772 -0.497171 -0.858044 0.0780434 -0.530473 -0.844102 0.410636 -0.28866 -0.864901 
0.170978 -0.454102 -0.87439 0.692713 -0.0452036 -0.719795 0.747776 0.0840439 -0.65861 
0.880719 -0.0100845 -0.473532 0.906651 0.0885584 -0.412481 0.863719 0.170876 -0.474121 
0.833621 0.263053 -0.485674 0.935015 0.295094 -0.196637 0.905876 0.386015 -0.174301 
0.826679 0.48697 -0.281891 0.798433 0.576633 -0.173202 0.963988 0.175116 0.200152 
-0.619859 -0.290774 -0.728851 0.674325 0.420866 0.606761 -0.680339 -0.141452 -0.719118 
-0.738744 0.147135 -0.65773 -0.739208 0.410958 -0.533558 0.68158 0.204674 0.702536 
-0.343739 0.932847 -0.107886 -0.35921 0.93275 0.0307487 0.280125 0.738502 0.613307 
0.402141 -0.426138 -0.810363 -0.0547466 -0.52508 -0.84929 -0.169209 -0.441058 -0.881383 
0.462533 -0.326644 -0.824237 0.584138 -0.153643 -0.79698 -0.336775 -0.567574 -0.751294 
0.947943 0.189916 -0.255611 0.89643 0.43482 0.0856999 0.849628 0.335743 0.406705 
-0.636149 0.633513 -0.440427 -0.683693 0.671059 -0.286783 -0.469087 0.863969 -0.18307 
-0.142836 0.984872 0.098109 -0.149211 0.945184 0.290453 0.280414 0.727331 0.626384 
0.182587 -0.582655 -0.791944 0.679936 -0.0551777 -0.731192 0.821056 0.0113354 -0.570735 
0.854184 0.151054 -0.497546 0.933103 0.356162 -0.0496765 0.890622 0.442571 0.104516 
0.701941 0.351103 0.619682 -0.752635 0.465509 -0.465663 -0.008507 0.940315 0.3402 
0.895447 0.225593 -0.383775 0.886637 0.461888 -0.0231091 0.887616 0.447819 0.107689 
0.768918 0.528405 0.359935 0.669174 0.366468 0.646457 0.58758 0.408885 0.698257 
-0.666103 0.677729 -0.311432 0.239785 0.686431 0.686525 0.449272 0.539075 0.712428 
-0.0371913 -0.697885 -0.715244 -0.364143 -0.646989 -0.669929 0.590658 -0.108209 -0.799634 
0.71475 0.0808947 -0.694686 0.886181 0.448945 -0.114596 0.606808 0.346404 0.715393 
0.647795 0.191097 0.737457 0.534532 0.313227 0.784961 -0.361336 0.912908 0.18983 
-0.112976 0.877165 0.466711 0.226499 0.715934 0.660407 0.216556 -0.41724 -0.882618 
0.264872 -0.450857 -0.852391 0.581712 -0.127653 -0.803316 0.862646 0.381363 -0.33227 
0.833932 0.532377 -0.145365 0.838296 0.53473 -0.106416 0.803947 0.572902 0.159538 
0.699233 0.590114 0.403533 0.582441 0.529107 0.617097 -0.742344 -0.126635 -0.657944 
0.00600782 0.806221 0.591585 -0.578404 0.808499 -0.108526 0.194023 -0.493398 -0.847888 
0.470463 -0.269783 -0.840168 0.540731 -0.110058 -0.833965 0.817427 0.575875 0.0134852 
0.741607 0.585264 0.327851 0.617315 0.74471 0.253634 0.688205 0.610838 0.391472 
-0.762507 0.116905 -0.636331 -0.708888 0.578507 -0.403495 0.477055 0.485728 0.732453 
-0.452635 0.884932 -0.109622 -0.439491 0.893801 0.0892655 -0.201061 0.921012 0.333633 
-0.100853 0.907795 0.407108 0.095309 0.834315 0.542987 -0.452798 0.891194 0.0273462 
0 -0.970143 -0.242536 0 -1 0 -0.707107 -0.707107 0 
0.707107 -0.707107 0 0 1 0 -0.0403676 -0.624788 -0.77975 
-0.245936 -0.731588 -0.635842 0.478168 -0.169889 -0.86168 0.699144 0.179652 -0.692043 