# vtk DataFile Version 4.2
vtk output
ASCII
DATASET POLYDATA
POINTS 6481 float
113.32 114.712 111.878 113.522 115.691 111.755 113.285 116.976 111.684 
111.873 119.181 111.715 113.446 119.479 111.852 112.221 121.563 111.846 
111.765 123.365 112.102 112.379 122.729 111.99 112.004 123.706 112.172 
112.897 111.003 112.508 113.793 112.429 112.293 111.737 114.996 112.009 
114.011 118.093 111.931 111.286 120.639 111.886 111.06 123.496 112.288 
112.206 124.085 112.339 115.861 102.578 113.729 115.18 103.767 113.509 
114.208 105.392 113.322 115.65 104.107 113.557 114.706 111.231 112.646 
111.138 113.474 112.465 115.317 114.715 112.602 110.242 117.155 112.318 
110.26 120.668 112.25 109.734 122.131 112.61 114.016 122.22 112.479 
110.486 124.684 112.746 111.257 126.193 112.989 111.108 127.42 113.291 
110.312 128.367 113.57 110.389 131.165 114.281 116.015 101.095 114.051 
116.055 101.239 113.983 116.048 101.414 113.955 110.779 109.931 113.382 
115.825 111.133 113.156 109.633 113.751 113.152 116.419 114.277 113.348 
108.925 116.501 113.146 115.955 118.024 113.118 115.08 121.121 112.923 
109.237 125.629 113.373 113.946 125.011 113.24 109.513 128.509 113.839 
112.308 129.505 114.106 111.149 130.1 114.043 110.229 131.628 114.465 
117.531 95.8273 115.769 117.076 96.8899 115.435 118.038 97.3678 115.55 
115.619 98.2539 114.995 116.88 98.5449 114.985 115.099 98.9753 114.809 
114.679 99.4669 114.733 116.437 100.641 114.336 116.19 101.185 114.057 
113.491 101.166 114.486 113.27 103.084 114.023 117.392 104.193 114.36 
116.365 112.417 113.38 118 119.009 114.017 118 119.009 114.017 
118 119.009 114.017 118 119.009 114.017 118 119.009 114.017 
108.059 120.644 113.52 109.318 131.255 114.716 110.647 132.026 114.737 
110.368 133.056 115.287 119.716 92.5109 117.036 118.865 93.7307 116.556 
118.04 95.7251 115.9 118.873 99.0346 115.76 110.313 105.396 114.828 
118.012 116.514 114.763 118 119.009 114.018 106.468 124.953 114.936 
114.807 128.755 115.126 109.114 134.577 116.867 108.969 134.656 117.009 
111.566 133.23 115.69 109.196 134.705 116.943 120.41 90.7057 117.882 
119.585 92.0415 117.191 121.888 91.2976 118.232 121.865 91.351 118.23 
121.905 91.3141 118.233 121.919 91.2987 118.275 118.334 92.8697 116.818 
120.379 92.2582 117.391 121.921 91.3447 118.276 119.627 93.5934 116.856 
116.209 94.5967 116.391 115.681 95.7353 115.98 119.59 95.1067 116.608 
111.454 99.2789 116.276 106.501 111.118 115.831 120 113.009 116.017 
120 113.009 116.017 120 113.009 116.017 120 113.009 116.017 
120 113.009 116.017 105.368 116.986 115.704 106.875 130.292 115.903 
114.113 131.271 115.925 108.577 133.219 116.238 108.038 134.05 117.222 
109.75 134.216 116.532 109.416 134.803 117.051 110.499 134.399 116.863 
109.092 134.951 117.219 109.016 134.959 117.373 109.239 134.952 117.183 
109.18 135.006 117.294 120.448 89.9056 118.239 120.103 89.9777 118.161 
118.776 91.2506 117.49 117.521 91.7292 117.462 121.021 91.2789 117.938 
121.839 91.2641 118.273 121.722 91.4561 118.211 122.011 91.318 118.459 
121.876 91.4851 118.275 110.072 101.164 116.424 119.596 107.948 116.159 
120 113.009 116.018 103.949 115.43 116.979 121.004 117.013 117.009 
121.004 117.013 117.009 121.004 117.013 117.009 121.004 117.013 117.009 
121.004 117.013 117.009 106.575 132.337 117.147 113.911 132.252 116.469 
107.315 133.89 117.863 111.169 134.284 117.107 111.878 133.987 117.02 
121.836 88.0621 119.502 121.48 89.3374 118.882 121.997 88.964 119.254 
121.593 90.9179 118.346 122.539 90.0023 119.279 122.443 91.2132 118.908 
115.779 91.8369 118.036 121.832 91.9978 118.289 122.074 94.1141 118.487 
112.468 95.5336 117.607 122.004 95.0131 118.009 122.004 95.0131 118.009 
122.004 95.0132 118.009 122.004 95.0131 118.009 122.004 95.0132 118.009 
120.378 100.242 116.942 104.383 108.501 118.061 121.004 117.013 117.009 
102.753 126.491 118.275 104.947 131.637 118.344 114.078 133.627 118.245 
112.33 134.187 117.839 113.506 133.91 118.235 110.218 134.812 117.524 
111.595 134.492 118.144 108.9 134.907 118.208 121.36 86.4929 120.151 
122.67 87.6656 120.081 122 89 119 122 89 119 
122 89 119 122 89 119 116.747 89.818 118.963 
122 89 119 122.975 90.5899 119.517 121.694 94.8471 118.152 
122.004 95.0131 118.009 108.194 98.3062 119.233 123.004 107.013 119.009 
123.004 107.013 119.009 123.004 107.013 119.009 123.004 107.013 119.009 
123.004 107.013 119.009 120.651 126.662 118.932 102.896 129.914 119.373 
102.96 130.895 119.936 116.915 131.903 118.335 115.46 133.51 119.185 
106.139 133.734 119.364 115.26 133.752 119.526 107.934 134.535 119.193 
109.567 134.927 118.479 112.362 134.451 118.902 122.96 84.4802 121.452 
119.685 86.6233 120.126 122 89 119 122.953 95.3175 119.47 
123.004 107.013 119.009 100.871 121.676 119.278 120.182 124.514 118.01 
120.856 129.46 120.038 103.394 131.786 120.264 104.921 133.016 119.96 
117.891 132.738 120.07 110.302 134.655 120.145 112.801 134.399 120.181 
113.83 134.211 120.14 115.716 133.823 120.146 124.189 83.5543 122.223 
123.398 83.4754 122.033 124.672 84.4687 122.13 118.548 86.168 120.837 
124.489 85.7043 121.681 109.518 94.2393 120.688 103.7 101.674 121.149 
99.0986 118.386 120.724 120.033 131.158 120.196 102.882 132.282 121.709 
104.766 133.284 121.299 116.143 133.744 120.824 117.188 133.476 121.101 
124.213 82.0994 122.988 122.775 82.8256 122.351 123.205 82.2855 122.722 
121.525 83.0369 122.324 126.059 85.5476 122.962 126.185 85.3513 123.114 
124.581 87.8399 121.425 98.0461 124.11 122.121 98.9694 127.652 122.224 
124.194 128.9 122.161 101.156 130.998 122.082 122.937 131.063 122.693 
102.797 132.382 122.1 105.906 133.61 122.568 105.296 133.556 121.586 
114.606 133.88 122.167 120.241 132.606 122.347 119.755 132.829 122.261 
126.178 80.0667 124.483 123.404 80.3883 124.033 126.29 80.9333 124.202 
121.686 81.4913 123.44 125.626 82.9567 123.175 125.748 84.3534 122.903 
126.273 108.554 122.985 97.2056 112.297 123.018 127.016 121.589 122.958 
125.363 128.648 122.831 123.86 130.065 122.547 101.304 131.928 123.527 
105.412 133.276 123.452 111.217 133.507 123.553 115.7 133.617 122.803 
121.564 132.221 123.259 103.078 132.694 123.11 104.386 133.144 122.863 
106.338 133.98 121.591 117.029 133.569 122.218 118.972 133.108 122.469 
119.608 132.92 122.526 120.981 132.478 123.207 116.626 83.6683 123.998 
126.783 83.8269 123.856 127.216 83.1008 124.309 127.21 84.8778 124.154 
113.384 86.5067 123.792 100.31 102.263 123.715 126.305 104.62 123.393 
98.196 106.166 123.91 95.6666 122.205 124.23 127.452 128.227 123.932 
126.39 129.165 123.656 99.4085 130.516 123.727 106.602 132.94 124.64 
123.374 131.592 123.826 124.175 131.344 124.024 124.746 130.979 123.918 
101.391 132.106 124.242 110.073 133.252 124.078 120.034 132.759 123.561 
123.007 131.91 124.327 100.874 131.996 124.416 128.333 77.7648 126.317 
125.878 77.6753 125.978 126.411 77.8495 125.9 123.281 78.8228 125.242 
120.366 80.1358 125.079 110.413 88.1009 124.718 105.46 92.828 124.967 
94.5604 117.169 125.149 130.013 124.268 124.957 98.2969 129.964 124.612 
129.667 131.062 126.211 100.188 131.579 124.739 104.254 132.744 124.624 
114.818 132.811 124.844 125.781 131.361 125.059 127.255 131.212 125.535 
102.957 132.568 124.279 119.688 132.569 124.866 123.707 131.857 124.971 
124.922 131.677 125.349 126.606 131.516 125.558 124.769 77.0459 126.571 
129.37 77.1238 126.969 129.439 78.8301 126.479 93.7259 114.913 126.261 
96.8172 128.99 125.706 97.0832 129.384 125.785 131.848 128.914 126.38 
97.8352 130.032 125.487 130.358 130.614 126.298 103.096 132.14 125.977 
105.095 132.678 125.05 119.625 132.189 125.902 122.076 132.085 125.676 
125.271 131.758 125.949 125.56 131.745 126.249 128.034 131.322 125.986 
130.06 131.247 126.65 99.4249 131.239 125.774 126.949 131.553 126.019 
127.896 131.557 126.315 129.622 131.444 126.707 128.854 131.629 126.845 
128.925 75.198 128.124 129.525 76.384 127.38 119.02 79.024 126.972 
100.854 96.2325 126.537 128.379 97.0372 125.912 96.3008 103.85 126.631 
93.2466 122.441 127.135 94.1845 124.723 126.572 133.092 126.385 126.727 
95.3927 127.405 126.419 96.898 129.461 126.326 97.0134 129.807 127.23 
122.359 131.777 126.742 124.784 131.529 127.4 131.523 130.865 127.014 
97.6031 130.188 126.827 98.7901 130.835 126.903 128.928 131.59 128.15 
129.043 131.685 127.7 130.962 131.285 127.158 129.509 131.693 127.627 
131.798 131.575 127.923 132.104 131.36 127.636 133 72.0087 128.017 
133 72.0087 128.017 133 72.0088 128.017 133 72.0088 128.017 
130.838 74.0611 129.349 133 72.0088 128.017 128.199 74.7031 128.477 
131.896 78.0993 128.422 130.193 89.6697 127.675 92.4097 113.11 128.078 
93.733 125.957 127.838 134.883 128.359 127.733 135.73 128.816 128.169 
121.6 130.963 128.302 136.655 130.014 128.838 96.1229 129.354 128.439 
97.6098 130.19 128.032 98.6917 130.704 127.674 129.452 131.471 128.716 
133.945 130.815 128.078 135.575 130.524 128.601 131.207 131.603 128.397 
134.19 131.278 128.625 134.464 131.05 128.483 136.13 131.021 129.14 
130.129 131.647 127.624 132.174 131.595 128.081 132.862 131.422 128.127 
132.46 131.549 128.066 133 72.0087 128.017 122.868 75.6554 128.731 
131.834 79.2647 128.26 132.099 81.2612 128.566 94.1703 104.716 128.478 
135.318 122.316 128.324 136.639 124.521 128.827 94.0382 127.104 128.321 
137.447 128.113 128.992 98.1454 130.257 128.936 97.8132 130.151 128.944 
99.5267 130.832 128.132 137.376 131.108 129.613 137.968 131.068 129.951 
132.991 131.522 128.592 135.269 131.433 129.344 135.69 131.431 129.35 
136.646 131.343 129.712 137.635 131.263 129.762 137.482 131.326 129.719 
137.606 131.348 129.761 135.877 131.457 129.44 137.441 131.371 129.776 
137.574 131.368 129.784 134.863 73.1494 131.327 112.789 80.6322 129.801 
105.243 87.0049 129.892 133 91.0087 130.017 133 91.0087 130.017 
133 91.0088 130.017 133 91.0088 130.017 133 91.0088 130.017 
131.803 96.1346 129.567 132.854 108.018 129.447 91.8091 109.925 129.47 
90.7818 120.231 130.104 91.7079 121.725 129.085 92.15 125.168 129.938 
[...]
POINT_DATA 6481
SCALARS scalars float
LOOKUP_TABLE default
1 1 1 1 1 1 1 1 1 
1 1 1 1 1 1 1 1 1 
1 1 1 1 1 1 1 1 1 
1 1 1 1 1 1 1 1 1 
1 1 1 1 1 1 1 1 1 
1 1 1 1 1 1 1 1 1 
1 1 1 1 1 1 1 1 1 
1 1 1 1 1 1 1 1 1 
1 1 1 1 1 1 1 1 1 
1 1 1 1 1 1 1 1 1 
1 1 1 1 1 1 1 1 1 
1 1 1 1 1 1 1 1 1 
1 1 1 1 1 1 1 1 1 
1 1 1 1 1 1 1 1 1 
1 1 1 1 1 1 1 1 1 
1 1 1 1 1 1 1 1 1 
1 1 1 1 1 1 1 1 1 
1 1 1 1 1 1 1 1 1 
1 1 1 1 1 1 1 1 1 
1 1 1 1 1 1 1 1 1 
1 1 1 1 1 1 1 1 1 
1 1 1 1 1 1 1 1 1 
1 1 1 1 1 1 1 1 1 
1 1 1 1 1 1 1 1 1 
1 1 1 1 1 1 1 1 1 
1 1 1 1 1 1 1 1 1 
1 1 1 1 1 1 1 1 1 
1 1 1 1 1 1 1 1 1 
1 1 1 1 1 1 1 1 1 
1 1 1 1 1 1 1 1 1 
1 1 1 1 1 1 1 1 1 
1 1 1 1 1 1 1 1 1 
1 1 1 1 1 1 1 1 1 
1 1 1 1 1 1 1 1 1 
1 1 1 1 1 1 1 1 1 
1 1 1 1 1 1 1 1 1 
1 1 1 1 1 1 1 1 1 
1 1 1 1 1 1 1 1 1 
1 1 1 1 1 1 1 1 1 
1 1 1 1 1 1 1 1 1 
1 1 1 1 1 1 1 1 1 
1 1 1 1 1 1 1 1 1 
1 1 1 1 1 1 1 1 1 
1 1 1 1 1 1 1 1 1 
1 1 1 1 1 1 1 1 1 
1 1 1 1 1 1 1 1 1 
1 1 1 1 1 1 1 1 1 
1 1 1 1 1 1 1 1 1 
1 1 1 1 1 1 1 1 1 
1 1 1 1 1 1 1 1 1 
1 1 1 1 1 1 1 1 1 
1 1 1 1 1 1 1 1 1 
1 1 1 1 1 1 1 1 1 
1 1 1 1 1 1 1 1 1 
1 1 1 1 1 1 1 1 1 
1 1 1 1 1 1 1 1 1 
1 1 1 1 1 1 1 1 1 
1 1 1 1 1 1 1 1 1 
1 1 1 1 1 1 1 1 1 
1 1 1 1 1 1 1 1 1 
1 1 1 1 1 1 1 1 1 
1 1 1 1 1 1 1 1 1 
1 1 1 1 1 1 1 1 1 
1 1 1 1 1 1 1 1 1 
1 1 1 1 1 1 1 1 1 
1 1 1 1 1 1 1 1 1 
1 1 1 1 1 1 1 1 1 
1 1 1 1 1 1 1 1 1 
1 1 1 1 1 1 1 1 1 
1 1 1 1 1 1 1 1 1 
1 1 1 1 1 1 1 1 1 
1 1 1 1 1 1 1 1 1 
1 1 1 1 1 1 1 1 1 
1 1 1 1 1 1 1 1 1 
1 1 1 1 1 1 1 1 1 
1 1 1 1 1 1 1 1 1 
1 1 1 1 1 1 1 1 1 
1 1 1 1 1 1 1 1 1 
1 1 1 1 1 1 1 1 1 
1 1 1 1 1 1 1 1 1 
1 1 1 1 1 1 1 1 1 
1 1 1 1 1 1 1 1 1 
1 1 1 1 1 1 1 1 1 
1 1 1 1 1 1 1 1 1 
1 1 1 1 1 1 1 1 1 
1 1 1 1 1 1 1 1 1 
1 1 1 1 1 1 1 1 1 
1 1 1 1 1 1 1 1 1 
1 1 1 1 1 1 1 1 1 
1 1 1 1 1 1 1 1 1 
1 1 1 1 1 1 1 1 1 
1 1 1 1 1 1 1 1 1 
1 1 1 1 1 1 1 1 1 
1 1 1 1 1 1 1 1 1 
1 1 1 1 1 1 1 1 1 
1 1 1 1 1 1 1 1 1 
1 1 1 1 1 1 1 1 1 
1 1 1 1 1 1 1 1 1 
1 1 1 1 1 1 1 1 1 
1 1 1 1 1 1 1 1 1 
1 1 1 1 1 1 1 1 1 
1 1 1 1 1 1 1 1 1 
1 1 1 1 1 1 1 1 1 
1 1 1 1 1 1 1 1 1 
1 1 1 1 1 1 1 1 1 
1 1 1 1 1 1 1 1 1 
1 1 1 1 1 1 1 1 1 
1 1 1 1 1 1 1 1 1 
1 1 1 1 1 1 1 1 1 
1 1 1 1 1 1 1 1 1 
1 1 1 1 1 1 1 1 1 
1 1 1 1 1 1 1 1 1 
1 1 1 1 1 1 1 1 1 
1 1 1 1 1 1 1 1 1 
1 1 1 1 1 1 1 1 1 
1 1 1 1 1 1 1 1 1 
1 1 1 1 1 1 1 1 1 
1 1 1 1 1 1 1 1 1 
1 1 1 1 1 1 1 1 1 
1 1 1 1 1 1 1 1 1 
1 1 1 1 1 1 1 1 1 
1 1 1 1 1 1 1 1 1 
1 1 1 1 1 1 1 1 1 
1 1 1 1 1 1 1 1 1 
1 1 1 1 1 1 1 1 1 
1 1 1 1 1 1 1 1 1 
1 1 1 1 1 1 1 1 1 
1 1 1 1 1 1 1 1 1 
1 1 1 1 1 1 1 1 1 
1 1 1 1 1 1 1 1 1 
1 1 1 1 1 1 1 1 1 
1 1 1 1 1 1 1 1 1 
1 1 1 1 1 1 1 1 1 
1 1 1 1 1 1 1 1 1 
1 1 1 1 1 1 1 1 1 
1 1 1 1 1 1 1 1 1 
1 1 1 1 1 1 1 1 1 
1 1 1 1 1 1 1 1 1 
1 1 1 1 1 1 1 1 1 
1 1 1 1 1 1 1 1 1 
1 1 1 1 1 1 1 1 1 
1 1 1 1 1 1 1 1 1 
1 1 1 1 1 1 1 1 1 
1 1 1 1 1 1 1 1 1 
1 1 1 1 1 1 1 1 1 
1 1 1 1 1 1 1 1 1 
1 1 1 1 1 1 1 1 1 
1 1 1 1 1 1 1 1 1 
1 1 1 1 1 1 1 1 1 
1 1 1 1 1 1 1 1 1 
1 1 1 1 1 1 1 1 1 
1 1 1 1 1 1 1 1 1 
1 1 1 1 1 1 1 1 1 
1 1 1 1 1 1 1 1 1 
1 1 1 1 1 1 1 1 1 
1 1 1 1 1 1 1 1 1 
1 1 1 1 1 1 1 1 1 
1 1 1 1 1 1 1 1 1 
1 1 1 1 1 1 1 1 1 
1 1 1 1 1 1 1 1 1 
1 1 1 1 1 1 1 1 1 
1 1 1 1 1 1 1 1 1 
1 1 1 1 1 1 1 1 1 
1 1 1 1 1 1 1 1 1 
1 1 1 1 1 1 1 1 1 
1 1 1 1 1 1 1 1 1 
1 1 1 1 1 1 1 1 1 
1 1 1 1 1 1 1 1 1 
1 1 1 1 1 1 1 1 1 
1 1 1 1 1 1 1 1 1 
1 1 1 1 1 1 1 1 1 
1 1 1 1 1 1 1 1 1 
1 1 1 1 1 1 1 1 1 
1 1 1 1 1 1 1 1 1 
1 1 1 1 1 1 1 1 1 
1 1 1 1 1 1 1 1 1 
1 1 1 1 1 1 1 1 1 
1 1 1 1 1 1 1 1 1 
1 1 1 1 1 1 1 1 1 
1 1 1 1 1 1 1 1 1 
1 1 1 1 1 1 1 1 1 
1 1 1 1 1 1 1 1 1 
1 1 1 1 1 1 1 1 1 
1 1 1 1 1 1 1 1 1 
1 1 1 1 1 1 1 1 1 
1 1 1 1 1 1 1 1 1 
1 1 1 1 1 1 1 1 1 
1 1 1 1 1 1 1 1 1 
1 1 1 1 1 1 1 1 1 
1 1 1 1 1 1 1 1 1 
1 1 1 1 1 1 1 1 1 
1 1 1 1 1 1 1 1 1 
1 1 1 1 1 1 1 1 1 
1 1 1 1 1 1 1 1 1 
1 1 1 1 1 1 1 1 1 
1 1 1 1 1 1 1 1 1 
1 1 1 1 1 1 1 1 1 
1 1 1 1 1 1 1 1 1 
1 1 1 1 1 1 1 1 1 
1 1 1 1 1 1 1 1 1 
1 1 1 1 1 1 1 1 1 
1 1 1 1 1 1 1 1 1 
1 1 1 1 1 1 1 1 1 
1 1 1 1 1 1 1 1 1 
1 1 1 1 1 1 1 1 1 
1 1 1 1 1 1 1 1 1 
1 1 1 1 1 1 1 1 1 
1 1 1 1 1 1 1 1 1 
1 1 1 1 1 1 1 1 1 
1 1 1 1 1 1 1 1 1 
1 1 1 1 1 1 1 1 1 
1 1 1 1 1 1 1 1 1 
1 1 1 1 1 1 1 1 1 
1 1 1 1 1 1 1 1 1 
1 1 1 1 1 1 1 1 1 
1 1 1 1 1 1 1 1 1 
1 1 1 1 1 1 1 1 1 
1 1 1 1 1 1 1 1 1 
1 1 1 1 1 1 1 1 1 
1 1 1 1 1 1 1 1 1 
1 1 1 1 1 1 1 1 1 
1 1 1 1 1 1 1 1 1 
1 1 1 1 1 1 1 1 1 
1 1 1 1 1 1 1 1 1 
1 1 1 1 1 1 1 1 1 
1 1 1 1 1 1 1 1 1 
1 1 1 1 1 1 1 1 1 
1 1 1 1 1 1 1 1 1 
1 1 1 1 1 1 1 1 1 
1 1 1 1 1 1 1 1 1 
1 1 1 1 1 1 1 1 1 
1 1 1 1 1 1 1 1 1 
1 1 1 1 1 1 1 1 1 
1 1 1 1 1 1 1 1 1 
1 1 1 1 1 1 1 1 1 
1 1 1 1 1 1 1 1 1 
1 1 1 1 1 1 1 1 1 
1 1 1 1 1 1 1 1 1 
1 1 1 1 1 1 1 1 1 
1 1 1 1 1 1 1 1 1 
1 1 1 1 1 1 1 1 1 
1 1 1 1 1 1 1 1 1 
1 1 1 1 1 1 1 1 1 
1 1 1 1 1 1 1 1 1 
1 1 1 1 1 1 1 1 1 
1 1 1 1 1 1 1 1 1 
1 1 1 1 1 1 1 1 1 
1 1 1 1 1 1 1 1 1 
1 1 1 1 1 1 1 1 1 
1 1 1 1 1 1 1 1 1 
1 1 1 1 1 1 1 1 1 
1 1 1 1 1 1 1 1 1 
1 1 1 1 1 1 1 1 1 
1 1 1 1 1 1 1 1 1 
1 1 1 1 1 1 1 1 1 
1 1 1 1 1 1 1 1 1 
1 1 1 1 1 1 1 1 1 
1 1 1 1 1 1 1 1 1 
1 1 1 1 1 1 1 1 1 
1 1 1 1 1 1 1 1 1 
1 1 1 1 1 1 1 1 1 
1 1 1 1 1 1 1 1 1 
1 1 1 1 1 1 1 1 1 
1 1 1 1 1 1 1 1 1 
1 1 1 1 1 1 1 1 1 
1 1 1 1 1 1 1 1 1 
1 1 1 1 1 1 1 1 1 
1 1 1 1 1 1 1 1 1 
1 1 1 1 1 1 1 1 1 
1 1 1 1 1 1 1 1 1 
1 1 1 1 1 1 1 1 1 
1 1 1 1 1 1 1 1 1 
1 1 1 1 1 1 1 1 1 
1 1 1 1 1 1 1 1 1 
1 1 1 1 1 1 1 1 1 
1 1 1 1 1 1 1 1 1 
1 1 1 1 1 1 1 1 1 
1 1 1 1 1 1 1 1 1 
1 1 1 1 1 1 1 1 1 
1 1 1 1 1 1 1 1 1 
1 1 1 1 1 1 1 1 1 
1 1 1 1 1 1 1 1 1 
1 1 1 1 1 1 1 1 1 
1 1 1 1 1 1 1 1 1 
1 1 1 1 1 1 1 1 1 
1 1 1 1 1 1 1 1 1 
1 1 1 1 1 1 1 1 1 
1 1 1 1 1 1 1 1 1 
1 1 1 1 1 1 1 1 1 
1 1 1 1 1 1 1 1 1 
1 1 1 1 1 1 1 1 1 
1 1 1 1 1 1 1 1 1 
1 1 1 1 1 1 1 1 1 
1 1 1 1 1 1 1 1 1 
1 1 1 1 1 1 1 1 1 
1 1 1 1 1 1 1 1 1 
1 1 1 1 1 1 1 1 1 
1 1 1 1 1 1 1 1 1 
1 1 1 1 1 1 1 1 1 
1 1 1 1 1 1 1 1 1 
1 1 1 1 1 1 1 1 1 
1 1 1 1 1 1 1 1 1 
1 1 1 1 1 1 1 1 1 
1 1 1 1 1 1 1 1 1 
1 1 1 1 1 1 1 1 1 
1 1 1 1 1 1 1 1 1 
1 1 1 1 1 1 1 1 1 
1 1 1 1 1 1 1 1 1 
1 1 1 1 1 1 1 1 1 
1 1 1 1 1 1 1 1 1 
1 1 1 1 1 1 1 1 1 
1 1 1 1 1 1 1 1 1 
1 1 1 1 1 1 1 1 1 
1 1 1 1 1 1 1 1 1 
1 1 1 1 1 1 1 1 1 
1 1 1 1 1 1 1 1 1 
1 1 1 1 1 1 1 1 1 
1 1 1 1 1 1 1 1 1 
1 1 1 1 1 1 1 1 1 
1 1 1 1 1 1 1 1 1 
1 1 1 1 1 1 1 1 1 
1 1 1 1 1 1 1 1 1 
1 1 1 1 1 1 1 1 1 
1 1 1 1 1 1 1 1 1 
1 1 1 1 1 1 1 1 1 
1 1 1 1 1 1 1 1 1 
1 1 1 1 1 1 1 1 1 
1 1 1 1 1 1 1 1 1 
1 1 1 1 1 1 1 1 1 
1 1 1 1 1 1 1 1 1 
1 1 1 1 1 1 1 1 1 
1 1 1 1 1 1 1 1 1 
1 1 1 1 1 1 1 1 1 
1 1 1 1 1 1 1 1 1 
1 1 1 1 1 1 1 1 1 
1 1 1 1 1 1 1 1 1 
1 1 1 1 1 1 1 1 1 
1 1 1 1 1 1 1 1 1 
1 1 1 1 1 1 1 1 1 
1 1 1 1 1 1 1 1 1 
1 1 1 1 1 1 1 1 1 
1 1 1 1 1 1 1 1 1 
1 1 1 1 1 1 1 1 1 
1 1 1 1 1 1 1 1 1 
1 1 1 1 1 1 1 1 1 
1 1 1 1 1 1 1 1 1 
1 1 1 1 1 1 1 1 1 
1 1 1 1 1 1 1 1 1 
1 1 1 1 1 1 1 1 1 
1 1 1 1 1 1 1 1 1 
1 1 1 1 1 1 1 1 1 
1 1 1 1 1 1 1 1 1 
1 1 1 1 1 1 1 1 1 
1 1 1 1 1 1 1 1 1 
1 1 1 1 1 1 1 1 1 
1 1 1 1 1 1 1 1 1 
1 1 1 1 1 1 1 1 1 
1 1 1 1 1 1 1 1 1 
1 1 1 1 1 1 1 1 1 
1 1 1 1 1 1 1 1 1 
1 1 1 1 1 1 1 1 1 
1 1 1 1 1 1 1 1 1 
1 1 1 1 1 1 1 1 1 
1 1 1 1 1 1 1 1 1 
1 1 1 1 1 1 1 1 1 
1 1 1 1 1 1 1 1 1 
1 1 1 1 1 1 1 1 1 
1 1 1 1 1 1 1 1 1 
1 1 1 1 1 1 1 1 1 
1 1 1 1 1 1 1 1 1 
1 1 1 1 1 1 1 1 1 
1 1 1 1 1 1 1 1 1 
1 1 1 1 1 1 1 1 1 
1 1 1 1 1 1 1 1 1 
1 1 1 1 1 1 1 1 1 
1 1 1 1 1 1 1 1 1 
1 1 1 1 1 1 1 1 1 
1 1 1 1 1 1 1 1 1 
1 1 1 1 1 1 1 1 1 
1 1 1 1 1 1 1 1 1 
1 1 1 1 1 1 1 1 1 
1 1 1 1 1 1 1 1 1 
1 1 1 1 1 1 1 1 1 
1 1 1 1 1 1 1 1 1 
1 1 1 1 1 1 1 1 1 
1 1 1 1 1 1 1 1 1 
1 1 1 1 1 1 1 1 1 
1 1 1 1 1 1 1 1 1 
1 1 1 1 1 1 1 1 1 
1 1 1 1 1 1 1 1 1 
1 1 1 1 1 1 1 1 1 
1 1 1 1 1 1 1 1 1 
1 1 1 1 1 1 1 1 1 
1 1 1 1 1 1 1 1 1 
1 1 1 1 1 1 1 1 1 
1 1 1 1 1 1 1 1 1 
1 1 1 1 1 1 1 1 1 
1 1 1 1 1 1 1 1 1 
1 1 1 1 1 1 1 1 1 
1 1 1 1 1 1 1 1 1 
1 1 1 1 1 1 1 1 1 
1 1 1 1 1 1 1 1 1 
1 1 1 1 1 1 1 1 1 
1 1 1 1 1 1 1 1 1 
1 1 1 1 1 1 1 1 1 
1 1 1 1 1 1 1 1 1 
1 1 1 1 1 1 1 1 1 
1 1 1 1 1 1 1 1 1 
1 1 1 1 1 1 1 1 1 
1 1 1 1 1 1 1 1 1 
1 1 1 1 1 1 1 1 1 
1 1 1 1 1 1 1 1 1 
1 1 1 1 1 1 1 1 1 
1 1 1 1 1 1 1 1 1 
1 1 1 1 1 1 1 1 1 
1 1 1 1 1 1 1 1 1 
1 1 1 1 1 1 1 1 1 
1 1 1 1 1 1 1 1 1 
1 1 1 1 1 1 1 1 1 
1 1 1 1 1 1 1 1 1 
1 1 1 1 1 1 1 1 1 
1 1 1 1 1 1 1 1 1 
1 1 1 1 1 1 1 1 1 
1 1 1 1 1 1 1 1 1 
1 1 1 1 1 1 1 1 1 
1 1 1 1 1 1 1 1 1 
1 1 1 1 1 1 1 1 1 
1 1 1 1 1 1 1 1 1 
1 1 1 1 1 1 1 1 1 
1 1 1 1 1 1 1 1 1 
1 1 1 1 1 1 1 1 1 
1 1 1 1 1 1 1 1 1 
1 1 1 1 1 1 1 1 1 
1 1 1 1 1 1 1 1 1 
1 1 1 1 1 1 1 1 1 
1 1 1 1 1 1 1 1 1 
1 1 1 1 1 1 1 1 1 
1 1 1 1 1 1 1 1 1 
1 1 1 1 1 1 1 1 1 
1 1 1 1 1 1 1 1 1 
1 1 1 1 1 1 1 1 1 
1 1 1 1 1 1 1 1 1 
1 1 1 1 1 1 1 1 1 
1 1 1 1 1 1 1 1 1 
1 1 1 1 1 1 1 1 1 
1 1 1 1 1 1 1 1 1 
1 1 1 1 1 1 1 1 1 
1 1 1 1 1 1 1 1 1 
1 1 1 1 1 1 1 1 1 
1 1 1 1 1 1 1 1 1 
1 1 1 1 1 1 1 1 1 
1 1 1 1 1 1 1 1 1 
1 1 1 1 1 1 1 1 1 
1 1 1 1 1 1 1 1 1 
1 1 1 1 1 1 1 1 1 
1 1 1 1 1 1 1 1 1 
1 1 1 1 1 1 1 1 1 
1 1 1 1 1 1 1 1 1 
1 1 1 1 1 1 1 1 1 
1 1 1 1 1 1 1 1 1 
1 1 1 1 1 1 1 1 1 
1 1 1 1 1 1 1 1 1 
1 1 1 1 1 1 1 1 1 
1 1 1 1 1 1 1 1 1 
1 1 1 1 1 1 1 1 1 
1 1 1 1 1 1 1 1 1 
1 1 1 1 1 1 1 1 1 
1 1 1 1 1 1 1 1 1 
1 1 1 1 1 1 1 1 1 
1 1 1 1 1 1 1 1 1 
1 1 1 1 1 1 1 1 1 
1 1 1 1 1 1 1 1 1 
1 1 1 1 1 1 1 1 1 
1 1 1 1 1 1 1 1 1 
1 1 1 1 1 1 1 1 1 
1 1 1 1 1 1 1 1 1 
1 1 1 1 1 1 1 1 1 
1 1 1 1 1 1 1 1 1 
1 1 1 1 1 1 1 1 1 
1 1 1 1 1 1 1 1 1 
1 1 1 1 1 1 1 1 1 
1 1 1 1 1 1 1 1 1 
1 1 1 1 1 1 1 1 1 
1 1 1 1 1 1 1 1 1 
1 1 1 1 1 1 1 1 1 
1 1 1 1 1 1 1 1 1 
1 1 1 1 1 1 1 1 1 
1 1 1 1 1 1 1 1 1 
1 1 1 1 1 1 1 1 1 
1 1 1 1 1 1 1 1 1 
1 1 1 1 1 1 1 1 1 
1 1 1 1 1 1 1 1 1 
1 1 1 1 1 1 1 1 1 
1 1 1 1 1 1 1 1 1 
1 1 1 1 1 1 1 1 1 
1 1 1 1 1 1 1 1 1 
1 1 1 1 1 1 1 1 1 
1 1 1 1 1 1 1 1 1 
1 1 1 1 1 1 1 1 1 
1 1 1 1 1 1 1 1 1 
1 1 1 1 1 1 1 1 1 
1 1 1 1 1 1 1 1 1 
1 1 1 1 1 1 1 1 1 
1 1 1 1 1 1 1 1 1 
1 1 1 1 1 1 1 1 1 
1 1 1 1 1 1 1 1 1 
1 1 1 1 1 1 1 1 1 
1 1 1 1 1 1 1 1 1 
1 1 1 1 1 1 1 1 1 
1 1 1 1 1 1 1 1 1 
1 1 1 1 1 1 1 1 1 
1 1 1 1 1 1 1 1 1 
1 1 1 1 1 1 1 1 1 
1 1 1 1 1 1 1 1 1 
1 1 1 1 1 1 1 1 1 
1 1 1 1 1 1 1 1 1 
1 1 1 1 1 1 1 1 1 
1 1 1 1 1 1 1 1 1 
1 1 1 1 1 1 1 1 1 
1 1 1 1 1 1 1 1 1 
1 1 1 1 1 1 1 1 1 
1 1 1 1 1 1 1 1 1 
1 1 1 1 1 1 1 1 1 
1 1 1 1 1 1 1 1 1 
1 1 1 1 1 1 1 1 1 
1 1 1 1 1 1 1 1 1 
1 1 1 1 1 1 1 1 1 
1 1 1 1 1 1 1 1 1 
1 1 1 1 1 1 1 1 1 
1 1 1 1 1 1 1 1 1 
1 1 1 1 1 1 1 1 1 
1 1 1 1 1 1 1 1 1 
1 1 1 1 1 1 1 1 1 
1 1 1 1 1 1 1 1 1 
1 1 1 1 1 1 1 1 1 
1 1 1 1 1 1 1 1 1 
1 1 1 1 1 1 1 1 1 
1 1 1 1 1 1 1 1 1 
1 1 1 1 1 1 1 1 1 
1 1 1 1 1 1 1 1 1 
1 1 1 1 1 1 1 1 1 
1 1 1 1 1 1 1 1 1 
1 1 1 1 1 1 1 1 1 
1 1 1 1 1 1 1 1 1 
1 1 1 1 1 1 1 1 1 
1 1 1 1 1 1 1 1 1 
1 1 1 1 1 1 1 1 1 
1 1 1 1 1 1 1 1 1 
1 1 1 1 1 1 1 1 1 
1 1 1 1 1 1 1 1 1 
1 1 1 1 1 1 1 1 1 
1 1 1 1 1 1 1 1 1 
1 1 1 1 1 1 1 1 1 
1 1 1 1 1 1 1 1 1 
1 1 1 1 1 1 1 1 1 
1 1 1 1 1 1 1 1 1 
1 1 1 1 1 1 1 1 1 
1 1 1 1 1 1 1 1 1 
1 1 1 1 1 1 1 1 1 
1 1 1 1 1 1 1 1 1 
1 1 1 1 1 1 1 1 1 
1 1 1 1 1 1 1 1 1 
1 1 1 1 1 1 1 1 1 
1 1 1 1 1 1 1 1 1 
1 1 1 1 1 1 1 1 1 
1 1 1 1 1 1 1 1 1 
1 1 1 1 1 1 1 1 1 
1 1 1 1 1 1 1 1 1 
1 1 1 1 1 1 1 1 1 
1 1 1 1 1 1 1 1 1 
1 1 1 1 1 1 1 1 1 
1 1 1 1 1 1 1 1 1 
1 1 1 1 1 1 1 1 1 
1 1 1 1 1 1 1 1 1 
1 1 1 1 1 1 1 1 1 
1 1 1 1 1 1 1 1 1 
1 1 1 1 1 1 1 1 1 
1 1 1 1 1 1 1 1 1 
1 1 1 1 1 1 1 1 1 
1 1 1 1 1 1 1 1 1 
1 1 1 1 1 1 1 1 1 
1 1 1 1 1 1 1 1 1 
1 1 1 1 1 1 1 1 1 
1 1 1 1 1 1 1 1 1 
1 1 1 1 1 1 1 1 1 
1 1 1 1 1 1 1 1 1 
1 1 1 1 1 1 1 1 1 
1 1 1 1 1 1 1 1 1 
1 1 1 1 1 1 1 1 1 
1 1 1 1 1 1 1 1 1 
1 1 1 1 1 1 1 1 1 
1 1 1 1 1 1 1 1 1 
1 1 1 1 1 1 1 1 1 
1 1 1 1 1 1 1 1 1 
1 1 1 1 1 1 1 1 1 
1 1 1 1 1 1 1 1 1 
1 1 1 1 1 1 1 1 1 
1 1 1 1 1 1 1 1 1 
1 1 1 1 1 1 1 1 1 
1 1 1 1 1 1 1 1 1 
1 1 1 1 1 1 1 1 1 
1 1 1 1 1 1 1 1 1 
1 1 1 1 1 1 1 1 1 
1 1 1 1 1 1 1 1 1 
1 1 1 1 1 1 1 1 1 
1 1 1 1 1 1 1 1 1 
1 1 1 1 1 1 1 1 1 
1 1 1 1 1 1 1 1 1 
1 1 1 1 1 1 1 1 1 
1 1 1 1 1 1 1 1 1 
1 1 1 1 1 1 1 1 1 
1 1 1 1 1 1 1 1 1 
1 1 1 1 1 1 1 1 1 
1 1 1 1 1 1 1 1 1 
1 1 1 1 1 1 1 1 1 
1 1 1 1 1 1 1 1 1 
1 1 1 1 1 1 1 1 1 
1 1 1 1 1 1 1 1 1 
1 1 1 1 1 1 1 1 1 
1 1 1 1 1 1 1 1 1 
1 1 1 1 1 1 1 1 1 
1 1 1 1 1 1 1 1 1 
1 1 1 1 1 1 1 1 1 
1 1 1 1 1 1 1 1 1 
1 1 1 1 1 1 1 1 1 
1 1 1 1 1 1 1 1 1 
1 1 1 1 1 1 1 1 1 
1 1 1 1 1 1 1 1 1 
1 1 1 1 1 1 1 1 1 
1 1 1 1 1 1 1 1 1 
1 1 1 1 1 1 1 1 1 
1 1 1 1 1 1 1 1 1 
1 1 1 1 1 1 1 1 1 
1 1 1 1 1 1 1 1 1 
1 1 1 1 1 1 1 1 1 
1 1 1 1 1 1 1 1 1 
1 1 1 1 1 1 1 1 1 
1 1 1 1 1 1 1 1 1 
1 1 1 1 1 1 1 1 1 
1 1 1 1 1 1 1 1 1 
1 1 1 1 1 1 1 1 1 
1 1 1 1 1 1 1 1 1 
1 1 1 1 1 1 1 1 1 
1 1 1 1 1 1 1 1 1 
1 1 1 1 1 1 1 1 1 
1 1 1 1 1 1 1 1 1 
1 1 1 1 1 1 1 1 1 
1 1 1 1 1 1 1 1 1 
1 1 1 1 1 1 1 1 1 
1 1 1 1 1 1 1 1 1 
1 1 1 1 1 1 1 1 1 
1 1 1 1 1 1 1 1 1 
1 1 1 1 1 1 1 1 1 
1 1 1 1 1 1 1 1 1 
1 1 1 1 1 1 1 1 1 
1 1 1 1 1 1 1 1 1 
1 1 1 1 1 1 1 1 1 
1 1 1 1 1 1 1 1 1 
1 1 1 1 1 1 1 1 1 
1 1 1 1 1 1 1 1 1 
1 1 1 1 1 1 1 1 1 
1 1 1 1 1 1 1 1 1 
1 1 1 1 1 1 1 1 1 
1 1 1 1 1 1 1 1 1 
1 1 1 1 1 1 1 1 1 
1 1 1 1 1 1 1 1 1 
1 1 1 1 1 1 1 1 1 
1 1 1 1 1 1 1 1 1 
1 1 1 1 1 1 1 1 1 
1 1 1 1 1 1 1 1 1 
1 1 1 1 1 1 1 1 1 
1 1 1 1 1 1 1 1 1 
1 1 1 1 1 1 1 1 1 
1 1 1 1 1 1 1 1 1 
1 1 1 1 1 1 1 1 1 
1 1 1 1 1 1 1 1 1 
1 1 1 1 1 1 1 1 1 
1 1 1 1 1 1 1 1 1 
1 1 1 1 1 1 1 1 1 
1 1 1 1 1 1 1 1 1 
1 1 1 1 1 1 1 1 1 
1 1 1 1 1 1 1 1 1 
1 1 1 1 1 1 1 1 1 
1 1 1 1 1 1 1 1 1 
1 1 1 1 1 1 1 1 1 
1 1 1 1 1 1 1 1 1 
1 1 1 1 1 1 1 1 1 
1 1 1 1 1 1 1 1 1 
1 1 1 1 1 1 1 1 1 
1 1 1 1 1 1 1 1 1 
1 1 1 1 1 1 1 1 1 
1 1 1 1 1 1 1 1 1 
1 1 1 1 1 1 1 1 1 
1 1 1 1 1 1 1 1 1 
1 1 1 1 1 1 1 1 1 
1 1 1 1 1 1 1 1 1 
1 1 1 1 1 1 1 1 1 
1 1 1 1 1 1 1 1 1 
1 1 1 1 1 1 1 1 1 
1 1 1 1 1 1 1 1 1 
1 1 1 1 1 1 1 1 1 
1 1 1 1 1 1 1 1 1 
1 1 1 1 1 1 1 1 1 
1 1 1 1 1 1 1 1 1 
1 1 1 1 1 1 1 1 1 
1 1 1 1 1 1 1 1 1 
1 1 1 1 1 1 1 1 1 
1 1 1 1 1 1 1 1 1 
1 1 1 1 1 1 1 1 1 
1 1 1 1 1 1 1 1 1 
1 1 1 1 1 1 1 1 1 
1 1 1 1 1 1 1 1 1 
1 1 1 1 1 1 1 1 1 
1 1 1 1 1 1 1 1 1 
1 1 1 1 1 1 1 1 1 
1 1 1 1 1 1 1 1 1 
1 1 1 1 1 1 1 1 1 
1 1 1 1 1 1 1 1 1 
1 1 1 1 1 1 1 1 1 
1 1 1 1 1 1 1 1 1 
1 
NORMALS Normals float
0.0614717 -0.132193 -0.989316 0.156326 -0.0766198 -0.984729 0.110298 0.0130867 -0.993812 
-0.0903544 -0.0120156 -0.995837 0.317114 0.0997093 -0.943131 -0.0152026 0.113371 -0.993436 
-0.274454 0.325427 -0.904861 0.204248 0.194064 -0.95949 -0.129452 0.315685 -0.939992 
-0.173223 -0.187723 -0.966827 0.173862 -0.134829 -0.975496 -0.282358 -0.138233 -0.949297 
0.343113 0.047078 -0.938114 -0.275103 0.079356 -0.958134 -0.290231 0.196402 -0.936585 
0.0134055 0.363637 -0.931444 0.147474 -0.168261 -0.974648 -0.152982 0.113362 -0.981706 
0.0592317 -0.159218 -0.985465 0.185948 0.00619348 -0.98254 0.283511 -0.0935387 -0.954396 
-0.285543 -0.189863 -0.939371 0.510252 -0.05827 -0.858049 -0.430033 -0.0469205 -0.901593 
-0.381318 0.099353 -0.919089 -0.434775 0.0806322 -0.896922 0.386603 0.160719 -0.908134 
-0.275725 0.180961 -0.944049 0.0453314 0.279667 -0.959026 -0.068859 0.220048 -0.973056 
-0.0878513 0.231245 -0.968921 0.0212239 0.320295 -0.94708 -0.111023 -0.322057 -0.940188 
0.0120299 -0.289549 -0.957087 -0.0363463 -0.173592 -0.984147 -0.419044 -0.200414 -0.885571 
0.430545 -0.0621153 -0.900429 -0.453627 -0.175667 -0.873707 0.531661 0.0207203 -0.846704 
-0.52617 -0.110602 -0.843156 0.602824 0.0725911 -0.794565 0.526771 0.160009 -0.834811 
-0.451578 0.161455 -0.877502 0.378215 0.282686 -0.8815 -0.316723 0.209082 -0.925187 
0.284908 0.337408 -0.897209 0.127795 0.332854 -0.934279 -0.250242 0.460846 -0.851469 
0.0718079 -0.337115 -0.938721 0.0617206 -0.261132 -0.963328 0.342512 -0.191149 -0.919863 
-0.0850524 -0.344589 -0.934893 0.187206 -0.234066 -0.954027 -0.0878232 -0.361108 -0.928379 
-0.291195 -0.353001 -0.889154 0.354362 -0.238069 -0.904296 0.459575 -0.211256 -0.862648 
-0.300799 -0.289583 -0.908659 -0.333937 -0.165941 -0.927874 0.594078 -0.0363326 -0.803586 
0.558288 -0.0147558 -0.829516 -0.801784 -0.534522 -0.267261 -0.83125 -0.554167 -0.0438433 
-0.998054 0.037817 -0.0495827 0.998054 0.037817 -0.0495827 0 0.999799 -0.0200685 
-0.553845 0.00338835 -0.832613 -0.458439 0.400547 -0.793345 0.0618046 0.515594 -0.854601 
-0.128596 0.571751 -0.810286 0.197682 -0.233378 -0.95208 0.181062 -0.271772 -0.945175 
0.197549 -0.290813 -0.936164 0.510094 -0.127073 -0.85068 -0.541769 -0.249369 -0.802684 
0.633459 0.0545208 -0.771853 0 -0.102978 0.994684 -0.55426 0.0949557 -0.826909 
0.545038 0.313718 -0.777505 -0.199594 0.481838 -0.853226 -0.510322 0.625539 -0.590146 
0.360738 0.629574 -0.688116 -0.104022 0.619361 -0.778185 0.250098 -0.355942 -0.90042 
0.108319 -0.363709 -0.925193 0.199884 -0.558049 -0.805374 0.180962 0.0721619 -0.980839 
0.681404 -0.0294829 -0.731313 0.744165 -0.561242 -0.362252 -0.0237973 -0.352565 -0.935485 
0.459654 -0.180842 -0.869491 0.820776 0.201173 -0.534656 0.192343 -0.224492 -0.955305 
-0.149278 -0.420566 -0.894897 -0.231493 -0.387539 -0.892314 0.443575 -0.0551178 -0.894541 
-0.462747 -0.354594 -0.812483 -0.567697 -0.173687 -0.804707 -0.801784 -0.534522 -0.267261 
-0.83125 -0.554167 -0.0438433 -0.998054 0.037817 -0.0495827 0.998054 0.037817 -0.0495827 
0 0.999799 -0.0200685 -0.611731 -0.0540517 -0.789217 -0.578285 0.288094 -0.763275 
0.532444 0.4661 -0.706579 -0.476476 0.488031 -0.731298 -0.502339 0.476663 -0.721421 
-0.00494802 0.624178 -0.781266 0.177383 0.737415 -0.651732 0.280628 0.696171 -0.660753 
-0.313696 0.748331 -0.584461 -0.514136 0.826921 -0.227743 0.11199 0.836114 -0.537002 
0.0497106 0.980289 -0.191214 0.287094 -0.435723 -0.853067 0.0382174 -0.508463 -0.860235 
-0.0554634 -0.452858 -0.889856 -0.190036 -0.425595 -0.884734 0.416667 -0.149741 -0.896642 
0.177057 -0.673719 -0.717463 0.23975 -0.100142 -0.965656 0.807858 -0.253317 -0.532162 
0.642734 0.191489 -0.741771 -0.549934 -0.288083 -0.783952 0.669809 -0.0327434 -0.741811 
0 -0.102978 0.994684 -0.625457 -0.0993083 -0.773913 0.236905 -0.833243 -0.499582 
-0.739585 0.285151 -0.609674 0.609676 0.499302 -0.615624 0.803509 -0.298098 0.515278 
-0.173314 0.876005 0.450085 -0.610227 0.48868 -0.62355 0.610991 0.538768 -0.580017 
-0.581283 0.702193 -0.41114 0.33676 0.757166 -0.559725 0.333284 0.813236 -0.477042 
0.331206 -0.338631 -0.880699 0.333063 -0.378418 -0.863637 0.563275 -0.298621 -0.77042 
0.4607 -0.370029 -0.806743 0.572408 -0.268293 -0.774834 0.72346 -0.080958 -0.685602 
-0.351615 -0.457268 -0.816867 0.709781 0.0500547 -0.702641 0.612881 -0.0114502 -0.790092 
-0.469144 -0.4629 -0.752082 0.236905 -0.833243 -0.499582 -0.739585 0.285151 -0.609674 
0.609676 0.499302 -0.615624 0.803509 -0.298098 0.515278 -0.173314 0.876005 0.450085 
0.669661 -0.048048 -0.741111 -0.59958 -0.242715 -0.762623 -0.57735 -0.57735 0.57735 
-0.652294 0.178089 -0.736747 -0.63753 0.493524 -0.591599 0.483494 0.741585 -0.465065 
0.366474 0.854179 -0.368884 0.343881 0.892993 -0.290359 0.226262 0.94664 -0.229519 
0.237807 0.954539 -0.179728 -0.221619 0.974963 0.0182417 0.0757155 -0.525369 -0.847499 
0.445581 -0.255212 -0.858094 0.0939201 -0.000398608 0.99558 0.937164 0.348889 -2.66543e-08 
-0.210431 0.977609 -3.00113e-08 -0.438619 -0.214718 0.872645 -0.353038 -0.54808 -0.758269 
0.426132 -0.904661 0 0.7681 -0.0635811 -0.637166 0.628901 0.0943477 -0.77174 
-0.57735 -0.57735 0.57735 -0.587413 -0.352063 -0.728696 0.236905 -0.833243 -0.499582 
-0.739585 0.285151 -0.609674 0.609676 0.499302 -0.615624 0.803509 -0.298098 0.515278 
-0.173314 0.876005 0.450085 0.509772 0.216101 -0.832726 -0.677869 0.360369 -0.640802 
-0.756109 0.417536 -0.503948 0.510213 0.653205 -0.559469 0.382727 0.838428 -0.388018 