# vtk DataFile Version 4.2
vtk output
ASCII
DATASET POLYDATA
POINTS 1392 float
296.739 202.461 201.399 296.783 202.334 201.481 296.575 202.552 201.374 
297.185 202.044 201.582 296.436 202.671 201.348 296.579 202.694 201.318 
296.817 202.567 201.379 296.274 202.938 201.259 296.557 202.785 201.304 
296.184 203.076 201.227 295.979 203.251 201.206 295.924 203.299 201.224 
296.063 203.197 201.214 295.971 203.281 201.212 298.455 200.941 202.068 
298.678 200.953 202.073 299.008 200.688 202.24 297.822 201.531 201.787 
298.123 201.378 201.848 298.405 201.24 201.944 298.938 200.895 202.17 
298.587 201.212 202.017 297.027 202.424 201.448 297.305 202.219 201.572 
296.448 202.902 201.295 295.919 203.271 201.263 296.242 203.069 201.264 
295.899 203.321 201.264 296.054 203.228 201.247 295.943 203.31 201.242 
298.408 200.736 202.298 299.251 200.362 202.457 300.274 199.785 202.9 
297.531 201.449 202.057 299.378 200.636 202.371 296.435 202.593 201.539 
299.948 200.33 202.711 296.036 203.051 201.493 295.918 203.26 201.333 
295.91 203.313 201.315 295.925 203.322 201.28 299.886 199.606 203.05 
301.229 199.146 203.521 300.802 199.627 203.22 295.948 203.199 201.437 
295.945 203.229 201.486 295.984 203.188 201.546 295.962 203.253 201.41 
295.966 203.239 201.49 295.969 203.284 201.334 295.948 203.238 201.513 
301.798 198.222 204.215 302.683 197.741 204.69 301.278 198.431 204.142 
300.261 199.186 203.561 298.781 200.317 202.72 301.673 198.894 203.858 
298.39 200.645 202.689 301.943 198.883 204.118 297.342 201.689 202.185 
300.588 199.972 203.25 301.067 199.638 203.57 298.842 201.146 202.669 
296.196 202.925 201.661 296.096 203.066 201.615 296.052 203.138 201.587 
296.002 203.201 201.539 301.966 197.944 204.588 302.337 197.73 204.788 
301.306 198.39 204.315 300.824 198.752 204.007 300.326 199.126 203.754 
297.74 201.342 202.456 296.504 202.639 201.813 297.647 201.85 202.289 
296.278 202.893 201.706 297.001 202.366 201.976 303.269 197.142 205.506 
304.262 196.809 205.978 301.675 198.167 204.605 303.807 197.386 205.591 
303.454 197.749 205.342 303.655 197.657 205.577 302.446 198.643 204.657 
298.019 201.17 202.637 299.871 200.246 203.524 301.324 199.425 204.213 
301.692 199.218 204.325 304.984 196.132 206.686 305.326 195.849 207.02 
305.692 195.675 207.232 303.61 196.921 205.793 304.499 196.395 206.405 
305.607 195.777 207.136 302.02 198.147 205.006 303.944 197.416 205.875 
301.581 198.744 204.802 302.681 198.506 204.931 302.983 198.259 205.184 
302.71 198.482 205.021 305.976 195.449 207.513 306.456 195.14 207.914 
303.164 197.286 205.66 306.273 195.382 207.781 303.036 197.62 205.711 
302.686 198.375 205.251 305.846 195.479 207.5 306.498 195.065 208.025 
307.007 194.752 208.455 305.575 195.691 207.374 304.763 196.432 206.877 
303.38 197.5 205.918 302.353 198.41 205.214 307.993 194.026 209.374 
309.296 193.104 210.533 306.817 194.836 208.384 307.53 194.337 208.982 
308.084 193.997 209.455 308.639 193.596 209.959 305.975 195.462 207.745 
308.177 193.94 209.566 306.79 195.007 208.333 304.948 196.455 206.97 
310.073 192.51 211.252 309.947 192.572 211.181 310.453 192.26 211.565 
310.786 192.03 211.859 309.757 192.696 211.042 309.412 192.951 210.729 
309.61 192.862 210.822 310.145 192.492 211.288 308.94 193.306 210.305 
309.759 192.781 210.947 308.075 193.941 209.505 307.281 194.594 208.825 
307.969 194.078 209.417 308.577 193.639 209.944 305.922 195.622 207.733 
306.948 194.824 208.554 306.603 195.126 208.249 310.566 192.117 211.778 
310.928 191.88 212.072 311.054 191.862 212.088 311.382 191.655 212.379 
309.755 192.687 211.113 309.655 192.767 211.021 310.318 192.411 211.462 
310.738 192.121 211.85 307.438 194.421 208.965 308.15 193.907 209.593 
309.083 193.228 210.452 309.936 192.665 211.186 308.713 193.522 210.092 
311.766 191.336 212.761 312.162 191.078 213.097 311.825 191.337 212.779 
312.519 190.844 213.419 311.699 191.448 212.671 312.056 191.198 212.993 
312.408 190.942 213.321 309.973 192.532 211.328 309.828 192.64 211.192 
312.256 191.062 213.2 309.352 193.059 210.681 312.792 190.637 213.706 
310.297 192.309 211.632 312.368 190.976 213.353 310.601 192.161 211.909 
370.496 161.79 214.553 369.11 162.8 214.366 357.025 166.076 215.022 
359.277 165.765 214.735 371.032 164.287 214.518 374.286 164.029 214.888 
375.542 163.892 215.192 376.251 163.667 215.358 358.169 166.372 214.845 
375.266 164.164 215.282 375.876 163.93 215.441 354.902 167.228 215.414 
356.367 167.043 215.12 361.89 165.939 214.876 365.716 165.356 214.771 
370.369 164.993 214.752 373.467 164.729 215.042 374.096 164.572 215.191 
374.806 164.364 215.287 353.485 167.58 215.757 356.008 167.403 215.238 
357.408 167.145 215.047 359.56 166.782 215.062 363.391 165.855 215.043 
373.034 164.883 215.055 353.252 168.109 215.982 354.991 167.79 215.53 
357.727 167.297 215.135 358.971 167.067 215.167 353.815 168.107 215.937 
355.943 167.753 215.47 356.581 167.668 215.447 358.505 167.258 215.212 
313.145 190.228 214.244 313.465 189.973 214.489 313.595 189.924 214.522 
312.327 190.861 213.486 311.867 191.197 213.068 313.143 190.322 214.064 
313.991 189.621 214.877 313.781 189.823 214.686 311.41 191.558 212.706 
311.242 191.692 212.557 311.038 191.838 212.365 311.708 191.419 212.913 
312.6 190.792 213.645 310.931 191.925 212.249 367.311 159.637 215.272 
370.682 160.141 215.14 374.313 160.839 215.283 376.577 161.796 215.389 
377.731 162.038 215.612 379.124 161.709 216.095 357.146 164.115 215.47 
378.377 162.312 215.851 379.012 162.018 216.123 355.337 165.94 215.44 
375.259 164.223 215.453 375.737 163.97 215.688 352.667 167.17 215.988 
351.92 167.49 216.168 373.42 164.827 215.193 360.931 166.512 215.383 
364.865 165.723 215.244 371.278 165.158 215.12 352.471 168.182 216.179 
356.482 167.746 215.68 359.008 167.132 215.419 358.723 167.224 215.273 
359.72 166.918 215.428 314.209 189.325 215.181 314.502 189.096 215.382 
313.223 190.19 214.401 314.354 189.31 215.215 311.883 191.229 213.139 
312.499 190.789 213.719 311.526 191.502 212.81 311.98 191.197 213.208 
312.908 190.508 214.106 312.597 190.758 213.779 311.204 191.737 212.509 
311.458 191.577 212.718 371.665 159.016 215.858 375.56 159.454 216.157 
379.692 160.826 216.381 380.983 160.517 216.885 381.114 160.531 216.977 
380.69 160.944 216.775 380.959 160.738 216.915 380.226 161.231 216.583 
380.49 161.135 216.762 380.779 160.899 216.914 379.794 161.603 216.469 
380.153 161.387 216.668 378.21 162.634 215.974 379.782 161.642 216.586 
351.333 166.789 216.481 374.709 164.31 215.696 375.198 164.063 215.831 
373.184 164.874 215.344 360.783 166.521 215.677 363.449 165.908 215.556 
367.252 165.442 215.45 348.461 168.726 217.085 353.898 168.155 216.413 
345.331 170.302 217.87 345.096 170.457 217.965 348.639 169.141 217.307 
318.629 185.177 217.816 317.582 186.19 217.394 318.847 185.246 217.824 
316.344 187.195 216.927 316.589 187.146 216.888 317.6 186.345 217.358 
315.061 188.536 215.897 315.623 188.04 216.277 316.908 187.025 217.033 
314.288 189.252 215.356 314.936 188.731 215.72 315.581 188.159 216.208 
316.088 187.76 216.558 313.613 189.894 214.786 315.162 188.597 215.902 
313.505 190.019 214.689 313.271 190.23 214.457 313.407 190.142 214.561 
372.166 157.93 216.833 374.085 158.177 216.923 376.928 158.88 216.895 
381.507 159.759 217.393 381.529 159.902 217.367 380.896 160.136 216.975 
381.521 160.063 217.277 381.499 160.17 217.257 381.436 160.27 217.204 
356.286 162.075 216.776 381.118 160.562 217.092 380.399 161.148 216.887 
376.834 162.58 216.697 377.564 162.407 216.687 379.402 161.55 216.925 
362.463 165.047 216.763 378.698 162.21 216.457 363.827 165.172 216.399 
361.631 165.898 216.246 363.427 165.551 216.131 373.507 164.369 215.899 
355.122 167.523 216.908 361.05 166.285 215.975 344.298 169.923 217.892 
352.424 168.273 217.214 346.003 169.825 217.72 350.916 168.715 217.261 
343.654 170.727 218.024 344.59 170.506 217.975 346.839 169.766 217.852 
339.965 172.223 218.271 343.354 171.094 218.171 344.81 170.604 218.176 
345.5 170.343 218.103 340.322 172.408 218.311 341.072 172.186 218.342 
340.665 172.565 218.482 341.219 172.304 218.523 340.225 172.829 218.563 
335.428 175.097 218.722 338.167 173.906 218.664 335.214 175.285 218.792 
325.332 180.8 218.547 325.815 180.598 218.601 326.034 180.655 218.687 
321.968 182.886 218.384 325.501 181.233 218.759 321.442 183.482 218.392 
321.983 183.289 218.522 317.631 185.829 217.664 319.519 184.777 218.027 
320.756 184.086 218.393 316.604 187.391 216.972 313.907 189.679 215.059 
314.739 188.915 215.84 314.453 189.212 215.547 315.882 188.013 216.56 
313.639 189.935 214.796 314.019 189.614 215.133 314.37 189.323 215.39 
365.131 157.354 217.46 370.758 157.314 217.432 370.238 157.266 217.597 
373.107 157.684 217.432 375.431 158.149 217.362 377.079 158.578 217.37 
380.286 159.272 217.407 380.692 159.342 217.466 381.403 159.653 217.427 
381.499 159.73 217.452 369.892 159.167 218.291 377.649 159.648 217.835 
380.803 159.353 217.526 381.506 159.82 217.463 377.644 160.428 217.653 
381.518 160.076 217.324 381.459 159.995 217.42 380.197 160.189 217.604 
380.771 160.351 217.46 380.875 160.135 217.557 380.952 160.487 217.291 
378.582 161.522 217.124 349.918 165.422 217.504 349.025 166.414 217.405 
355.105 166.168 218.196 352.475 167.613 218.018 346.747 169.818 218.169 
334.647 173.516 218.766 343.954 170.982 218.423 332.644 175.006 218.807 
331.976 175.263 218.852 335.85 174.618 218.631 337.357 174.35 218.823 
338.353 173.855 218.738 339.302 173.325 218.828 335.617 175.057 218.834 
331.53 176.756 218.86 334.888 175.496 218.963 328.675 178.301 218.814 
329.397 177.99 218.852 330.831 177.425 218.963 333.282 176.331 219.094 
326.124 179.708 218.674 328.292 178.824 218.827 327.61 179.716 218.963 
317.667 185.667 217.891 323.868 182.302 218.887 317.038 186.406 217.673 
316.687 186.791 217.394 316.27 187.26 217.093 315.523 188.091 216.535 
[...]
POINT_DATA 1392
SCALARS scalars float
LOOKUP_TABLE default
1 1 1 1 1 1 1 1 1 
1 1 1 1 1 1 1 1 1 
1 1 1 1 1 1 1 1 1 
1 1 1 1 1 1 1 1 1 
1 1 1 1 1 1 1 1 1 
1 1 1 1 1 1 1 1 1 
1 1 1 1 1 1 1 1 1 
1 1 1 1 1 1 1 1 1 
1 1 1 1 1 1 1 1 1 
1 1 1 1 1 1 1 1 1 
1 1 1 1 1 1 1 1 1 
1 1 1 1 1 1 1 1 1 
1 1 1 1 1 1 1 1 1 
1 1 1 1 1 1 1 1 1 
1 1 1 1 1 1 1 1 1 
1 1 1 1 1 1 1 1 1 
1 1 1 1 1 1 1 1 1 
1 1 1 1 1 1 1 1 1 
1 1 1 1 1 1 1 1 1 
1 1 1 1 1 1 1 1 1 
1 1 1 1 1 1 1 1 1 
1 1 1 1 1 1 1 1 1 
1 1 1 1 1 1 1 1 1 
1 1 1 1 1 1 1 1 1 
1 1 1 1 1 1 1 1 1 
1 1 1 1 1 1 1 1 1 
1 1 1 1 1 1 1 1 1 
1 1 1 1 1 1 1 1 1 
1 1 1 1 1 1 1 1 1 
1 1 1 1 1 1 1 1 1 
1 1 1 1 1 1 1 1 1 
1 1 1 1 1 1 1 1 1 
1 1 1 1 1 1 1 1 1 
1 1 1 1 1 1 1 1 1 
1 1 1 1 1 1 1 1 1 
1 1 1 1 1 1 1 1 1 
1 1 1 1 1 1 1 1 1 
1 1 1 1 1 1 1 1 1 
1 1 1 1 1 1 1 1 1 
1 1 1 1 1 1 1 1 1 
1 1 1 1 1 1 1 1 1 
1 1 1 1 1 1 1 1 1 
1 1 1 1 1 1 1 1 1 
1 1 1 1 1 1 1 1 1 
1 1 1 1 1 1 1 1 1 
1 1 1 1 1 1 1 1 1 
1 1 1 1 1 1 1 1 1 
1 1 1 1 1 1 1 1 1 
1 1 1 1 1 1 1 1 1 
1 1 1 1 1 1 1 1 1 
1 1 1 1 1 1 1 1 1 
1 1 1 1 1 1 1 1 1 
1 1 1 1 1 1 1 1 1 
1 1 1 1 1 1 1 1 1 
1 1 1 1 1 1 1 1 1 
1 1 1 1 1 1 1 1 1 
1 1 1 1 1 1 1 1 1 
1 1 1 1 1 1 1 1 1 
1 1 1 1 1 1 1 1 1 
1 1 1 1 1 1 1 1 1 
1 1 1 1 1 1 1 1 1 
1 1 1 1 1 1 1 1 1 
1 1 1 1 1 1 1 1 1 
1 1 1 1 1 1 1 1 1 
1 1 1 1 1 1 1 1 1 
1 1 1 1 1 1 1 1 1 
1 1 1 1 1 1 1 1 1 
1 1 1 1 1 1 1 1 1 
1 1 1 1 1 1 1 1 1 
1 1 1 1 1 1 1 1 1 
1 1 1 1 1 1 1 1 1 
1 1 1 1 1 1 1 1 1 
1 1 1 1 1 1 1 1 1 
1 1 1 1 1 1 1 1 1 
1 1 1 1 1 1 1 1 1 
1 1 1 1 1 1 1 1 1 
1 1 1 1 1 1 1 1 1 
1 1 1 1 1 1 1 1 1 
1 1 1 1 1 1 1 1 1 
1 1 1 1 1 1 1 1 1 
1 1 1 1 1 1 1 1 1 
1 1 1 1 1 1 1 1 1 
1 1 1 1 1 1 1 1 1 
1 1 1 1 1 1 1 1 1 
1 1 1 1 1 1 1 1 1 
1 1 1 1 1 1 1 1 1 
1 1 1 1 1 1 1 1 1 
1 1 1 1 1 1 1 1 1 
1 1 1 1 1 1 1 1 1 
1 1 1 1 1 1 1 1 1 
1 1 1 1 1 1 1 1 1 
1 1 1 1 1 1 1 1 1 
1 1 1 1 1 1 1 1 1 
1 1 1 1 1 1 1 1 1 
1 1 1 1 1 1 1 1 1 
1 1 1 1 1 1 1 1 1 
1 1 1 1 1 1 1 1 1 
1 1 1 1 1 1 1 1 1 
1 1 1 1 1 1 1 1 1 
1 1 1 1 1 1 1 1 1 
1 1 1 1 1 1 1 1 1 
1 1 1 1 1 1 1 1 1 
1 1 1 1 1 1 1 1 1 
1 1 1 1 1 1 1 1 1 
1 1 1 1 1 1 1 1 1 
1 1 1 1 1 1 1 1 1 
1 1 1 1 1 1 1 1 1 
1 1 1 1 1 1 1 1 1 
1 1 1 1 1 1 1 1 1 
1 1 1 1 1 1 1 1 1 
1 1 1 1 1 1 1 1 1 
1 1 1 1 1 1 1 1 1 
1 1 1 1 1 1 1 1 1 
1 1 1 1 1 1 1 1 1 
1 1 1 1 1 1 1 1 1 
1 1 1 1 1 1 1 1 1 
1 1 1 1 1 1 1 1 1 
1 1 1 1 1 1 1 1 1 
1 1 1 1 1 1 1 1 1 
1 1 1 1 1 1 1 1 1 
1 1 1 1 1 1 1 1 1 
1 1 1 1 1 1 1 1 1 
1 1 1 1 1 1 1 1 1 
1 1 1 1 1 1 1 1 1 
1 1 1 1 1 1 1 1 1 
1 1 1 1 1 1 1 1 1 
1 1 1 1 1 1 1 1 1 
1 1 1 1 1 1 1 1 1 
1 1 1 1 1 1 1 1 1 
1 1 1 1 1 1 1 1 1 
1 1 1 1 1 1 1 1 1 
1 1 1 1 1 1 1 1 1 
1 1 1 1 1 1 1 1 1 
1 1 1 1 1 1 1 1 1 
1 1 1 1 1 1 1 1 1 
1 1 1 1 1 1 1 1 1 
1 1 1 1 1 1 1 1 1 
1 1 1 1 1 1 1 1 1 
1 1 1 1 1 1 1 1 1 
1 1 1 1 1 1 1 1 1 
1 1 1 1 1 1 1 1 1 
1 1 1 1 1 1 1 1 1 
1 1 1 1 1 1 1 1 1 
1 1 1 1 1 1 1 1 1 
1 1 1 1 1 1 1 1 1 
1 1 1 1 1 1 1 1 1 
1 1 1 1 1 1 1 1 1 
1 1 1 1 1 1 1 1 1 
1 1 1 1 1 1 1 1 1 
1 1 1 1 1 1 1 1 1 
1 1 1 1 1 1 1 1 1 
1 1 1 1 1 1 1 1 1 
1 1 1 1 1 1 1 1 1 
1 1 1 1 1 1 1 1 1 
1 1 1 1 1 1 
NORMALS Normals float
-0.0335152 -0.376509 -0.925807 -0.465155 -0.738688 -0.487823 -0.240366 -0.521743 -0.818541 
-0.280986 -0.640307 -0.71488 -0.387103 -0.558258 -0.733825 0.0242038 -0.28272 -0.958897 
0.520761 0.369776 -0.769463 -0.175805 -0.364279 -0.914545 0.363512 0.171237 -0.915716 
0.230648 0.0874552 -0.969099 -0.418476 -0.406077 -0.812392 -0.453398 0.261746 -0.852009 
0.446109 0.431371 -0.784159 0.326009 0.602255 -0.728702 -0.119846 -0.598089 -0.792418 
0.0912506 -0.46661 -0.879744 0.308385 -0.304645 -0.901161 -0.205705 -0.62982 -0.749008 
0.23217 -0.205551 -0.950708 0.145403 -0.336912 -0.930241 0.466452 0.0296009 -0.884051 
0.531711 0.298094 -0.792732 0.241645 -0.107457 -0.964397 0.624935 0.566768 -0.536871 
0.625967 0.674021 -0.392251 -0.801751 -0.522725 -0.289748 0.628104 0.680856 -0.376723 
-0.791039 0.57131 -0.218777 0.62135 0.759462 -0.192722 0.367932 0.892516 -0.260848 
-0.330095 -0.765918 -0.55173 0.0936803 -0.505767 -0.857568 0.237347 -0.407032 -0.882038 
-0.624696 -0.746237 -0.229966 0.463332 0.00865859 -0.886143 -0.665639 -0.718085 -0.203172 
0.647683 0.496252 -0.578136 -0.795259 -0.600818 0.0811267 -0.965218 -0.188642 0.181018 
-0.39608 0.784554 0.47707 0.246991 0.965105 0.0869951 -0.326879 -0.793435 -0.51343 
0.290693 -0.377296 -0.879287 0.570323 0.0655419 -0.818802 -0.969459 -0.18442 0.161675 
-0.955837 0.286512 0.0654693 -0.73127 -0.150341 0.665313 -0.42368 0.824361 0.375398 
0.0819974 0.990923 0.106527 0.481267 0.857009 0.184165 -0.35791 0.781293 0.511353 
-0.0260259 -0.669605 -0.742261 0.159942 -0.628925 -0.760836 -0.383466 -0.811316 -0.441271 
-0.572205 -0.801455 -0.173932 -0.53804 -0.812376 -0.224854 0.635855 0.0237718 -0.771442 
-0.709576 -0.658146 0.251687 0.729575 0.218635 -0.648012 -0.741562 -0.447495 0.499834 
0.658064 0.717399 -0.228672 0.675454 0.68748 -0.266709 0.371353 0.812867 0.448715 
-0.695669 -0.346381 0.629337 -0.516143 -0.0354119 0.85577 -0.152545 0.379325 0.912602 
0.260262 0.806132 0.531427 -0.44729 -0.874845 -0.185951 -0.374037 -0.895299 -0.241941 
-0.624108 -0.759768 0.182326 -0.525378 -0.827334 -0.198736 -0.662743 -0.742959 0.0937198 
-0.724508 -0.438508 0.531788 -0.575742 -0.179614 0.797659 0.0152019 0.576375 0.817044 
-0.311746 0.141824 0.939521 -0.0852923 0.393109 0.915527 -0.404246 -0.891124 -0.206114 
0.51893 -0.205551 -0.829735 -0.666497 -0.651661 0.362106 0.682301 0.145656 -0.716415 
0.722484 0.278309 -0.632898 0.768629 0.512774 -0.382455 0.738367 0.547671 -0.393537 
-0.461356 0.0627077 0.884996 -0.0808195 0.530595 0.843763 0.223227 0.804903 0.549818 
0.451416 0.86487 0.219599 0.0959747 -0.711767 -0.695827 -0.00454665 -0.781953 -0.623321 
0.271605 -0.566518 -0.778003 -0.570841 -0.81378 0.109099 -0.381772 -0.890472 -0.247608 
0.585859 -0.17522 -0.791244 -0.606087 -0.157601 0.779629 0.771436 0.545579 -0.32746 
-0.354503 0.299275 0.885868 0.626836 0.773144 -0.096566 0.628994 0.77658 0.0359118 
0.525154 0.841383 0.127622 0.0626893 -0.75257 -0.655522 0.415463 -0.457398 -0.786243 
-0.679265 -0.538686 0.498414 0.770467 0.423389 -0.476574 -0.575455 -0.0160512 0.817676 
0.130163 0.757104 0.640196 -0.400128 -0.889626 -0.220143 -0.182004 -0.872187 -0.454053 
0.448754 -0.415805 -0.791028 -0.692932 -0.62254 0.363716 -0.619631 -0.09403 0.779241 
-0.365156 0.323689 0.872861 -0.294897 0.378527 0.877356 0.319044 -0.537833 -0.78035 
0.677266 0.0263899 -0.735264 -0.655208 -0.737826 0.162222 -0.36684 -0.882744 -0.293583 
0.756223 0.313401 -0.574375 0.7018 0.668924 -0.244983 -0.725223 -0.480534 0.493091 
0.580214 0.813625 0.0369685 0.462884 0.851028 0.247972 -0.227261 0.492696 0.840002 
-0.0270139 -0.7941 -0.607187 -0.402678 -0.879055 -0.255172 0.293805 -0.556454 -0.777198 
0.0630867 -0.752723 -0.655308 -0.543895 -0.836413 -0.0677544 -0.340586 -0.877144 -0.338556 
0.289713 -0.558147 -0.77752 0.461319 -0.356266 -0.812563 -0.755139 -0.536428 0.376843 
0.699341 0.09858 -0.707957 -0.703811 -0.667866 0.242084 -0.0436458 0.718417 0.694242 
-0.0397135 0.737861 0.673784 0.271941 0.873987 0.402734 -0.45801 0.260039 0.850063 
-0.355453 0.438423 0.825493 -0.0521064 0.674698 0.736252 -0.365948 -0.884506 -0.289364 
-0.347382 -0.886478 -0.305747 0.559747 -0.217004 -0.799746 0.73935 0.280125 -0.612284 
-0.638634 -0.764159 0.0906018 -0.731057 -0.08098 0.677494 0.719534 0.619582 -0.313669 
0.679045 0.702369 -0.213483 -0.70868 -0.210382 0.673433 -0.697173 -0.0853268 0.711807 
-0.497807 0.354126 0.791696 0.361521 0.888383 0.28298 -0.200452 0.646183 0.736388 
-0.0388932 -0.814683 -0.5786 0.185505 -0.673061 -0.715944 0.556527 -0.237728 -0.796093 
0.723043 0.0657882 -0.687663 0.724733 0.598853 -0.340787 0.647325 0.747844 -0.147309 
0.742887 0.602976 -0.290755 -0.736703 -0.581795 0.344649 -0.711854 -0.0395727 0.701211 
0.607194 0.793556 -0.0397953 -0.00643079 0.790074 0.612978 0.775087 0.525741 -0.350482 
-0.738133 -0.56561 0.367755 0.470314 0.867871 0.160012 -0.132756 0.736902 0.662835 
0.128796 -0.236598 -0.963033 0.0266996 -0.0460989 -0.99858 -0.280104 -0.12547 -0.951735 
-0.00276888 0.0793851 -0.99684 0.0673554 0.249472 -0.966037 0.198014 0.287251 -0.937165 
0.300914 0.429063 -0.851678 0.387138 0.408917 -0.826384 -0.0955937 0.00364541 -0.995414 
0.368658 0.753914 -0.543787 0.460699 0.867463 -0.187788 -0.354036 -0.0424066 -0.93427 
-0.086852 0.181063 -0.979629 0.0753622 0.514527 -0.854156 0.0692593 0.656237 -0.75137 
0.0283064 0.487076 -0.872901 0.263579 0.668122 -0.695801 0.337776 0.882606 -0.326977 
0.302798 0.75383 -0.583142 -0.194227 -0.0459866 -0.979878 -0.105213 0.251881 -0.962022 
-0.0408577 0.261816 -0.964253 0.142423 0.63146 -0.762217 0.181249 0.926909 -0.328616 
0.144634 0.713491 -0.685574 -0.115271 0.565685 -0.816525 -0.101551 0.351469 -0.930675 
0.0568181 0.579127 -0.813255 0.235569 0.727211 -0.644726 -0.00403287 0.826768 -0.562529 
0.0214295 0.740132 -0.67212 0.0429628 0.638737 -0.768225 0.156926 0.710469 -0.686009 
-0.672075 -0.73696 0.0721506 -0.367175 -0.853456 -0.369859 0.0824415 -0.713434 -0.695856 
-0.678961 -0.720654 0.14025 -0.685919 -0.699611 0.200151 0.666839 -0.0844308 -0.740404 
0.582406 -0.191831 -0.789939 0.780829 0.503912 -0.369294 -0.75719 -0.342588 0.556144 
-0.588819 0.192438 0.785022 -0.674511 0.059647 0.735851 0.388113 0.885853 0.254232 
0.46771 0.865474 0.179451 0.0492473 0.839412 0.54126 -0.126504 -0.456637 -0.880613 
0.0223901 -0.499329 -0.866123 0.174939 -0.30952 -0.934662 0.137859 -0.164014 -0.976778 
0.241513 -0.236676 -0.941093 0.392411 0.0278482 -0.919368 -0.198377 -0.319631 -0.926543 
0.440617 0.300134 -0.846035 0.552833 0.510106 -0.658913 -0.340249 -0.159384 -0.926729 
0.304372 0.95008 0.0686052 0.351858 0.839225 0.414604 -0.204983 -0.184475 -0.961224 
-0.13945 -0.178179 -0.974067 0.261174 0.952721 -0.155276 0.285295 0.930871 -0.228225 
0.108226 0.977398 -0.181604 0.115668 0.982947 -0.142954 -0.177188 0.397237 -0.900448 
0.194853 0.98083 -0.00229252 0.304625 0.951586 0.0410756 0.295754 0.929186 -0.221682 
0.281978 0.950831 0.128093 -0.40938 -0.83401 -0.369912 0.159331 -0.592113 -0.789947 
-0.776101 -0.455399 0.436209 0.732506 0.182882 -0.655736 -0.719879 -0.131059 0.681614 
-0.642702 0.119914 0.756674 -0.400825 0.454021 0.795741 0.0487438 0.811647 0.582111 
-0.246688 0.624455 0.741081 0.126719 0.845216 0.519184 -0.1375 0.716887 0.683496 
0.126614 0.85242 0.507296 0.117865 -0.55697 -0.822127 0.108657 -0.491025 -0.864343 
0.25925 -0.238624 -0.935868 0.457553 -0.106468 -0.882785 0.689604 0.197321 -0.696786 
0.600964 0.373082 -0.706861 0.741781 0.607171 -0.284789 0.515512 0.264761 -0.814954 
0.630473 0.758631 -0.164267 0.588947 0.779323 0.214003 0.596913 0.672279 -0.437877 
0.614021 0.77614 -0.143473 0.549723 0.793358 -0.261511 0.468834 0.84471 0.258186 
-0.0569917 -0.492182 -0.868625 0.145515 0.86431 0.48145 0.234862 0.765808 0.598647 
0.209068 0.93104 0.29909 0.285346 0.925098 0.250541 0.169684 0.915861 0.363877 
0.10532 0.933067 0.343939 -0.261389 -0.0146615 -0.965122 0.301561 0.792538 0.530042 
0.100372 0.525967 -0.844562 0.218959 0.840414 -0.495743 0.105124 0.848111 -0.519284 
0.0932561 -0.186165 -0.978083 -0.228071 -0.474813 -0.850021 0.261077 -0.0794358 -0.962044 
-0.514855 -0.749336 -0.416436 0.1908 -0.353272 -0.915857 0.127034 -0.313668 -0.940997 
-0.343595 -0.785627 -0.514522 -0.00285113 -0.602763 -0.797915 0.476405 0.0728582 -0.876202 
-0.773778 -0.580925 0.252573 0.302887 -0.414251 -0.858286 0.461685 -0.167883 -0.871012 
0.676929 0.268994 -0.685135 -0.776183 -0.316777 0.545153 0.704492 0.194917 -0.682421 
-0.615704 0.144461 0.774622 -0.223978 0.618666 0.753051 0.391192 0.863635 0.317969 
0.158044 -0.693753 -0.702659 0.0872228 -0.61118 -0.786671 0.209398 -0.694061 -0.688791 
0.623068 -0.464375 -0.629398 0.985407 0.030356 0.167487 0.335246 -0.374364 -0.864559 
0.818627 -0.0855852 -0.567913 0.926856 0.375344 -0.00737624 0.768162 0.627403 0.127638 
-0.337831 -0.452698 -0.825188 0.648593 0.732514 0.20676 0.408083 0.768955 0.492114 
0.0717826 0.599926 0.796828 0.15701 0.648965 0.744441 0.217192 0.584168 0.782033 
0.23303 0.529868 0.815436 0.318536 0.808182 0.495354 0.191061 0.605933 0.772231 
0.199006 0.728449 0.65556 0.149665 0.7842 0.602189 0.0725984 0.702776 0.707697 
0.290495 0.757091 0.585171 0.206469 0.764984 0.610058 -0.234815 -0.145658 -0.961065 
0.23721 0.916906 0.320959 -0.0455613 0.265532 -0.963025 0.313787 0.93892 0.1413 
-0.359676 -0.0310563 -0.93256 0.0335067 0.469218 -0.882447 0.285966 0.866418 -0.409319 
0.0863497 0.138028 -0.986657 0.122647 0.450638 -0.884242 0.279316 0.840829 -0.463668 
0.349395 0.911093 0.218708 0.0365683 0.380214 -0.924175 0.177336 0.464714 -0.867521 
0.298603 0.65386 -0.695201 0.410594 0.840809 -0.352778 0.244027 0.667757 -0.703244 
0.135614 0.336812 -0.931755 0.385395 0.784847 -0.485269 -0.634305 -0.505778 -0.584675 
0.046908 -0.00561404 -0.998883 0.242168 0.17735 -0.953888 0.38089 0.372106 -0.846439 
0.0629088 0.077244 -0.995026 0.434753 0.615162 -0.657697 0.233408 0.206772 -0.95014 
0.446266 0.62681 -0.638714 -0.595172 -0.576039 -0.560312 0.491079 0.503614 -0.710784 
0.52098 0.724089 -0.451967 0.691045 0.706338 -0.153439 -0.394486 0.412656 0.821033 
-0.63631 0.0825205 0.767007 0.0651812 0.750524 0.657621 0.689402 0.721021 -0.0696678 
0.0479321 0.76243 0.645293 0.212705 0.81014 0.546287 0.58252 0.802277 0.130466 
-0.0163051 -0.841553 -0.539928 0.0163202 -0.846955 -0.531414 0.079817 -0.99456 -0.066924 
0.186703 -0.933301 -0.306743 0.209292 -0.88653 -0.412628 0.206237 -0.910059 -0.359527 
0.185821 -0.760438 -0.622258 0.267175 -0.747153 -0.608588 0.47754 -0.733249 -0.484047 
0.881201 -0.445524 0.15809 0.0776582 0.218147 0.972821 -0.0281939 0.0934598 0.995224 
0.267566 -0.947012 0.177699 0.600814 0.198606 0.774324 0.0130795 0.313846 0.949384 
0.778913 0.383684 0.496066 0.58095 0.421343 0.696396 0.0656253 0.353642 0.933076 
0.0343573 0.513168 0.857601 0.0471187 0.251652 0.96667 0.264157 0.670205 0.693575 
0.160082 0.519973 0.839048 -0.126995 -0.423583 -0.896911 -0.345237 -0.273589 -0.897753 
0.298981 0.5782 0.759141 0.345144 0.671529 0.655687 0.384513 0.905734 0.178313 
-0.199015 -0.229219 -0.952813 0.297198 0.953071 -0.0576979 -0.14523 -0.214727 -0.965816 
-0.109715 -0.0920474 -0.989692 0.101139 0.297098 -0.949475 0.227736 0.786922 -0.57349 
0.465559 0.884981 0.00792913 0.467147 0.884164 0.00517411 0.464293 0.848413 -0.254218 
0.0829564 0.299488 -0.950487 0.422572 0.833086 -0.356933 0.275994 0.243661 -0.929762 
-0.0249408 -0.0556111 -0.998141 0.120407 0.234234 -0.964695 0.401791 0.726913 -0.556922 
0.0598413 -0.110428 -0.992081 0.299672 0.177612 -0.937364 0.48418 0.577121 -0.657649 
-0.742054 -0.624816 -0.242816 0.435221 0.872957 0.220294 -0.813997 -0.493285 0.306722 
-0.800904 -0.533997 0.270924 -0.774373 -0.608644 0.172912 -0.738296 -0.217602 0.638411 
0.430944 0.788986 0.437936 -0.11422 0.621472 0.775065 0.298273 0.772371 0.560781 
0.329293 0.802605 0.497385 -0.0280095 -0.89513 -0.444924 0.154843 -0.940089 0.303739 
0.12074 -0.863294 0.490046 0.176783 -0.962557 0.205505 0.172244 -0.618571 0.766617 
0.228507 -0.858095 0.459844 0.265475 -0.96328 0.0401833 0.197618 -0.897378 0.394538 
0.201756 -0.609153 0.76696 0.172621 -0.632124 0.755395 0.232872 -0.971829 -0.0363047 
-0.303714 -0.647103 -0.699297 0.178359 -0.791786 0.584177 0.118397 -0.274344 0.954315 
0.411274 -0.867998 0.278268 0.59628 -0.797829 0.0889906 0.564971 -0.219592 0.795354 
0.176836 -0.474298 0.862421 0.102338 0.0904425 0.99063 0.320155 0.412083 0.853046 
-0.213928 -0.509205 -0.833634 -0.313522 -0.464952 -0.827963 0.314705 0.604392 0.731895 
0.0036745 -0.242151 -0.970232 0.252544 0.778145 0.575075 0.334894 0.767843 0.546135 
0.210654 0.95608 0.203805 -0.2035 -0.258903 -0.944223 -0.332419 -0.52296 -0.784863 
0.455261 0.843628 0.284655 0.289086 0.956873 -0.0286867 0.48557 0.869222 0.0931417 
-0.162109 -0.295889 -0.941366 0.498071 0.831716 0.245305 -0.57719 -0.588681 -0.565956 
0.467704 0.632932 0.616968 0.483439 0.760965 0.432688 -0.190875 -0.321166 -0.927588 
0.567014 0.823345 -0.0244737 0.504851 0.838157 0.206442 0.517699 0.823451 -0.232199 
-0.804068 -0.587303 0.0924668 0.464799 0.840115 0.279587 -0.679101 -0.116204 0.724789 
0.580848 0.813908 -0.0130036 -0.474547 0.140779 0.8689 -0.464722 0.176358 0.867716 
-0.143785 0.435177 0.88879 0.0517349 0.583966 0.810128 0.444729 0.766615 0.46316 
-0.520858 0.19735 0.830518 -0.28089 0.395278 0.874561 0.0555068 0.642314 0.764429 
-0.119328 -0.939385 -0.321429 0.24127 -0.559308 0.793072 0.184691 -0.599692 0.778626 
-0.206452 -0.864901 -0.45752 -0.20711 -0.7933 -0.572522 -0.153354 -0.844581 -0.512996 
0.205032 0.0871096 0.974871 0.223264 -0.324581 0.91913 0.141769 -0.238887 0.960643 
0.207579 -0.118263 0.971043 0.23196 -0.111592 0.966303 0.0610407 -0.141659 0.988032 
0.108528 -0.253951 0.961109 0.367632 0.314161 0.8753 0.0100349 0.103651 0.994563 
-0.151302 -0.3851 -0.910387 0.296915 0.670345 0.680058 -0.307685 -0.460883 -0.832417 
0.466182 0.774746 0.427134 0.403491 0.61528 0.677219 -0.500828 -0.612872 -0.611195 
0.220094 0.662214 0.716262 0.371381 0.653869 0.659191 0.47767 0.78654 0.39139 
0.412765 0.789079 0.454951 0.445018 0.875475 0.188419 -0.778904 -0.376464 0.501582 
0.211501 0.588342 0.780462 -0.690009 -0.0915364 0.717989 -0.0856509 0.510526 0.855586 
0.387249 0.694207 0.606725 0.251065 0.758304 0.601615 0.386801 0.783845 0.485769 
-0.100434 -0.992624 -0.0679049 0.0988262 -0.901924 0.420437 0.0420806 -0.983051 0.178438 
0.155268 -0.987869 -0.00245429 0.315052 -0.591447 0.742248 -0.106462 -0.986243 -0.126451 
0.365992 0.23515 0.900419 0.298085 0.514637 0.803924 -0.449644 -0.632693 -0.630492 
-0.397382 -0.597483 -0.696493 -0.560464 -0.590806 -0.580369 -0.382589 -0.459701 -0.801437 
0.321618 0.568265 0.757388 -0.670185 -0.742173 -0.00560075 0.427409 0.636797 0.641725 
-0.622872 -0.685321 -0.377313 0.23482 0.364398 0.901151 -0.767289 -0.619469 -0.165907 
0.310332 0.555771 0.771241 0.371858 0.492836 0.786661 0.406649 0.731534 0.547261 
-0.60958 -0.170304 0.774215 -0.646677 -0.141337 0.749555 -0.525117 -0.0208431 0.850775 
-0.262797 0.328482 0.907214 0.172731 0.597429 0.783098 -0.0339153 -0.945711 -0.323236 
0.0273238 -0.997388 -0.0668592 0.0936203 -0.989729 -0.108036 0.18783 -0.629705 0.753785 
0.200917 -0.774256 0.600133 -0.183429 -0.882528 -0.433011 0.157126 -0.922713 0.35201 
0.268538 -0.436176 0.858859 0.376205 -0.338956 0.86231 0.272552 -0.264073 0.925192 
-0.333392 -0.860737 -0.384683 -0.283552 -0.772117 -0.568712 0.310099 -0.08527 0.946873 
0.300136 0.111042 0.947411 -0.491334 -0.523549 -0.696051 -0.379913 -0.689938 -0.616158 
0.310555 0.417776 0.853826 -0.468624 -0.685346 -0.557398 0.155239 0.333106 0.930022 
-0.663623 -0.630148 -0.403135 -0.735517 -0.653999 -0.176916 -0.71764 -0.688395 0.10538 
-0.661487 -0.71013 0.241144 -0.695812 -0.657051 0.290052 -0.733191 -0.676358 -0.0705025 
0.205545 0.321831 0.924216 -0.812886 -0.581142 0.0386128 0.0766169 0.386983 0.918899 
0.275697 0.504041 0.818495 -0.263066 0.293442 0.919069 0.0814324 0.551896 0.829927 
-0.403042 0.0637649 0.912958 -0.203069 0.261531 0.943591 0.141019 0.464457 0.874296 
-0.327347 0.165536 0.930291 -0.225758 -0.963297 -0.14523 -0.126288 -0.971455 -0.200814 
-0.368837 -0.891515 0.262982 -0.264587 -0.964192 0.0181033 0.312226 -0.799345 0.513384 
0.525818 -0.287041 0.800702 0.455869 -0.437958 0.77484 0.397799 -0.422365 0.814471 
-0.416614 -0.839129 -0.349708 0.242612 0.193343 0.950662 -0.453567 -0.835634 -0.309827 
-0.411343 -0.872937 0.262255 -0.459191 -0.876296 0.145769 -0.457126 -0.888392 -0.0423752 
-0.474482 -0.878769 -0.0513026 -0.382427 -0.803682 -0.455901 -0.560734 -0.825892 0.0589878 
-0.59452 -0.803918 -0.0161657 -0.530127 -0.813847 -0.237948 -0.508816 -0.76689 -0.391134 