# vtk DataFile Version 4.2
vtk output
ASCII
DATASET POLYDATA
POINTS 1904 float
236.565 195.855 196.834 234.02 193.5 197.318 232.101 194.512 197.199 
233.649 194.439 197.023 229.87 195.015 197.744 232.599 195.09 197.073 
230.206 195.682 197.64 233.166 197.543 197.408 238.792 198.222 197.503 
239.434 197.802 197.589 219.423 185.618 198.536 220.243 185.626 198.688 
217.87 188.005 198.629 219.241 187.533 198.416 217.741 188.995 198.801 
221.009 189.7 198.839 232.572 192.479 198.097 234.818 192.903 197.736 
219.284 191.784 199.458 219.458 192.012 199.572 229.155 193.836 198.263 
229.1 196.402 198.367 240.771 196.533 198.206 236.504 198.637 197.493 
238.143 199.596 197.993 219.142 183.044 199.399 222.126 186.949 199.288 
216.474 188.662 199.332 221.876 189.064 199.038 236.952 191.979 198.883 
228.813 192.894 198.862 240.916 194.575 199.134 227.396 194.47 199.105 
227.526 195.937 199.14 241.036 196.312 198.428 242.108 200.915 199.607 
216.809 182.338 199.973 218.333 182.167 199.791 215.721 187.598 199.684 
215.89 189.59 200.01 216.003 190.286 200.294 231.471 191.103 199.67 
220.303 192.407 199.871 238.899 192.446 199.385 242.242 196.383 199.473 
227.19 196.613 199.626 226.668 196.324 199.927 242.478 198.668 199.301 
242.842 199.614 199.655 286 150.009 200.517 286 150.009 200.517 
286 150.009 200.517 286 150.009 200.517 286 150.009 200.517 
218.17 179.708 200.964 218.683 179.716 200.97 219.82 180.224 200.903 
229.906 190.368 200.911 223.94 190.708 200.013 223.699 191.361 200.018 
242.084 194.253 200.496 218.874 193.373 201.283 240.3 203.462 200.74 
283.583 148.42 204.449 283.58 148.383 204.45 283.493 148.389 204.499 
283.637 148.411 204.471 283.615 148.484 204.513 286 150.009 200.518 
286 150.009 200.518 286 150.009 200.518 286 150.009 200.518 
286.739 151.738 203.94 286.712 151.72 204.027 286.709 151.718 204.041 
286.748 151.744 203.911 286.735 151.735 203.952 286.744 151.741 203.925 
286.731 151.732 203.97 286.733 151.733 203.964 219.24 177.217 202.226 
215.385 181.867 200.737 213.93 183.142 201.165 225.125 189.465 200.587 
225.811 189.166 201.032 238.703 191.103 201.08 225.375 189.933 200.583 
227.467 190.488 200.852 226.542 192.104 200.088 226.057 191.699 200.283 
223.589 192.491 200.249 221.136 194.218 201.411 225.831 196.937 200.936 
244.098 202.758 201.31 243.974 204.091 201.854 282.364 147.281 204.793 
282.96 148.116 204.71 283.342 148.188 204.567 283.136 148.456 204.722 
283.598 148.298 204.517 283.801 148.454 204.593 284.876 150.115 204.843 
284.936 150.104 204.774 286 150.009 200.518 285.274 150.342 204.788 
285.257 150.389 204.813 285.311 150.395 204.785 285.346 150.379 204.807 
286.635 151.668 204.277 286.683 151.697 204.118 286.715 151.719 204.024 
286.656 151.672 204.224 286.672 151.688 204.181 287.322 152.515 205.846 
287.312 152.506 205.849 287.297 152.493 205.903 287.312 152.491 205.873 
287.312 152.491 205.906 223.342 182.224 201.946 227.021 188.062 202.439 
226.767 189.334 201.439 228.069 189.778 201.529 240.398 191.55 201.917 
241.285 192.49 201.58 223.914 193.148 200.463 224.814 192.944 200.307 
240.38 205.115 202.315 273.425 143.022 206.619 273.41 143.018 206.656 
273.436 143.04 206.646 273.439 143.006 206.656 273.465 143.029 206.646 
278.338 145.045 205.671 278.286 144.844 205.731 278.338 145.258 205.704 
279.279 145.735 205.495 280.631 146.62 205.177 282.232 146.84 205.047 
281.961 147.181 204.96 282.644 147.567 204.797 284.013 148.146 204.745 
284.015 148.781 204.763 284.768 149.89 204.872 285.137 149.998 204.893 
285.107 150.243 204.833 284.879 150.312 205.02 285.317 150.268 204.852 
285.451 150.41 204.908 285.219 150.482 204.962 285.436 150.55 204.975 
286.582 151.618 204.423 286.465 151.568 204.73 286.574 151.592 204.559 
286.541 151.603 204.675 287.268 152.448 205.918 287.204 152.43 206.048 
287.282 152.404 206.021 287.289 152.46 206.06 217.638 175.924 203.156 
213.958 178.239 203.209 211.116 181.052 204.02 228.757 189.427 202.074 
224.918 192.116 200.249 223.351 194.704 201.314 224.178 197.515 202.895 
246.562 206.319 203.843 244.695 207.053 204.135 273.41 142.974 206.783 
273.403 143.052 206.735 273.544 142.994 206.731 273.54 143.085 206.731 
275.475 143.97 206.314 276.976 144.01 206.148 276.825 144.398 206.07 
276.606 144.531 206.109 276.974 144.723 206.04 280.44 146.253 205.305 
279.947 146.655 205.482 281.25 146.731 205.166 283.216 147.17 204.986 
280.673 147.075 205.345 284.589 148.959 204.964 284.073 149.39 204.985 
285.675 150.583 205.087 285.459 150.795 205.211 286.416 151.458 204.838 
286.225 151.406 205.082 286.511 151.455 205.218 286.331 151.593 205.284 
287.127 152.253 206.018 287.012 152.314 206.128 287.25 152.196 206.181 
287.113 152.449 206.284 287.33 152.365 206.419 287.191 152.533 206.636 
221.585 172.322 205.223 215.262 176.27 203.857 211.605 187.247 204.364 
228.287 188.39 203.104 229.563 188.376 204.055 214.578 191.722 203.915 
247.259 199.226 203.915 273.234 142.873 207.094 273.188 143.102 207.057 
273.61 142.847 206.934 273.868 143.028 206.813 273.38 143.166 206.888 
273.763 143.294 206.855 274.99 143.646 206.505 281.449 148.538 205.742 
285.121 148.618 205.281 283.329 149.839 205.608 286.083 151.052 205.205 
285.782 151.309 205.509 286.873 151.427 205.897 286.697 151.945 205.946 
287.094 151.912 206.106 287.358 151.958 206.493 287.262 152.693 207.097 
287.442 152.531 207.066 219.735 172.007 205.643 210.627 179.295 205.54 
228.036 185.758 205.672 228.415 186.38 205.719 228.835 186.94 205.736 
229.416 187.376 205.998 224.559 200.057 205.206 240.495 207.846 205.846 
244.18 208.461 205.749 272.925 143.011 207.319 274.625 143.284 206.731 
274.19 142.67 207.057 276.852 142.467 206.94 273.143 143.434 207.231 
274.087 143.771 206.896 276.869 146.2 206.653 280.746 148.85 206.544 
286.164 148.798 206 282.386 149.929 206.453 287.63 151.881 207.088 
286.466 152.806 207.707 226.258 170.036 207.565 226.287 170.257 207.425 
225.782 170.643 207.026 225.903 171.493 206.7 225.24 173.844 205.795 
212.347 175.636 206.667 211.097 177.211 206.649 229.783 187.27 207.034 
231.215 188.247 205.897 239.589 189.856 205.711 242.396 191.384 205.561 
252.448 205.984 206.498 242.178 208.616 206.517 272.583 142.17 207.929 
273.18 142.165 207.691 287.941 152.417 208.129 287.87 152.783 208.398 
287.386 153.22 208.561 223.988 168.964 208.413 224.41 169.085 208.344 
225.756 169.536 207.98 226.87 170.381 207.665 228.118 170.242 208.488 
229.153 170.742 208.525 229.034 170.596 208.589 229.334 170.849 208.584 
209.953 185.63 207.243 229.247 185.962 208.07 230.311 187.514 207.559 
253.2 208.547 207.557 276.235 141.052 207.967 268.615 142.461 209.634 
268.255 142.194 209.857 271.987 141.622 208.514 266.208 143.117 210.471 
266.444 142.919 210.413 266.821 143.254 210.243 266.89 143.027 210.226 
269.462 143.752 209.325 287.865 153.041 208.883 223.891 168.84 208.533 
223.872 168.804 208.599 223.718 168.854 208.602 217.89 170.727 208.225 
229.586 171.072 208.691 229.941 170.884 209.125 230.206 171.271 209.041 
230.593 171.175 209.333 230.652 171.449 209.317 230.711 171.265 209.417 
228.222 179.616 207.987 229.813 186.772 208.492 230.236 187.2 208.703 
254.094 209.586 208.745 255.495 209.333 209.145 253.623 210.154 209.401 
266.21 142.631 210.618 267.63 143.034 209.994 284.074 142.508 207.983 
266.828 143.884 210.468 288.246 147.586 208.647 288.457 150.88 208.569 
288.489 152.813 209.765 223.895 168.785 208.741 223.636 168.678 209.247 
231.05 171.383 209.809 232.59 172.251 210.5 232.429 171.99 210.562 
214.066 172.844 208.663 232.172 172.714 210.128 234.528 172.633 211.3 
234.339 172.565 211.322 234.405 172.74 211.294 234.621 172.623 211.32 
234.555 172.586 211.33 234.635 172.599 211.364 234.67 172.649 211.375 
229.708 185.798 209.71 231.729 187.899 209.432 230.689 187.472 209.205 
215.458 194.181 209.27 220.669 195.542 210.728 220.635 195.573 210.706 
220.636 195.566 210.706 220.664 195.54 210.729 218.69 195.732 208.303 
219.962 196.659 208.489 220.662 195.548 210.729 220.478 197.145 207.873 
220.386 197.391 208.882 258.894 208.461 210.331 248.259 210.477 209.178 
285.897 137.49 210.527 281.529 138.579 209.546 283.239 139.107 209.445 
285.981 140.459 209.565 261.936 144.047 212.217 262.171 143.797 212.228 
263.071 144.242 211.936 263.323 143.901 211.863 265.421 143.556 210.963 
263.025 144.535 212.031 266.116 144.536 211.082 270.307 145.106 209.732 
288.809 152.193 209.769 288.892 153.03 210.855 287.284 153.831 210.695 
288.533 153.477 210.965 233.357 172.813 210.851 233.836 172.351 211.372 
234.545 172.559 211.46 234.673 172.632 211.452 234.704 172.736 211.502 
232.81 173.826 210.579 208.9 180.211 209.867 232.674 188.042 210.137 
230.814 187.462 210.357 220.53 195.659 210.631 220.591 195.582 210.688 
220.669 195.533 210.746 219.345 196.079 209.225 219.976 196.558 209.678 
220.584 195.618 210.685 248.993 195.273 209.938 222.471 202.113 211.166 
260.229 207.192 210.593 260.413 207.833 210.763 259.08 209.214 210.981 
286.684 132.938 212.537 282.898 134.694 211.38 277.849 136.224 211.145 
287.805 138.553 211.011 264.474 143.767 211.49 260.141 144.893 213.137 
267.121 144.921 210.971 260.068 145.475 213.226 289.735 148.779 210.524 
286.283 153.878 211.691 230.271 170.106 211.822 232.839 171.617 211.447 
234.88 172.733 212.164 236.345 173.631 213.225 236.033 173.749 213.041 
236.466 173.521 213.356 236.691 173.657 213.474 236.64 173.585 213.445 
236.716 173.608 213.558 233.644 174.32 211.261 234.625 173.637 211.801 
236.424 173.817 213.322 230.252 186.537 211.654 235.976 188.299 211.302 
231.488 187.79 210.93 224.631 192.627 213.354 224.631 192.626 213.356 
224.631 192.627 213.355 224.631 192.627 213.355 220.726 195.471 210.809 
220.737 195.454 210.83 220.801 195.408 210.874 224.631 192.626 213.356 
219.998 195.965 210.145 219.529 195.962 210.106 220.053 195.827 210.462 
220.366 195.757 210.5 220.62 195.535 210.746 218.617 195.906 210.137 
[...]
POINT_DATA 1904
SCALARS scalars float
LOOKUP_TABLE default
1 1 1 1 1 1 1 1 1 
1 1 1 1 1 1 1 1 1 
1 1 1 1 1 1 1 1 1 
1 1 1 1 1 1 1 1 1 
1 1 1 1 1 1 1 1 1 
1 1 1 1 1 1 1 1 1 
1 1 1 1 1 1 1 1 1 
1 1 1 1 1 1 1 1 1 
1 1 1 1 1 1 1 1 1 
1 1 1 1 1 1 1 1 1 
1 1 1 1 1 1 1 1 1 
1 1 1 1 1 1 1 1 1 
1 1 1 1 1 1 1 1 1 
1 1 1 1 1 1 1 1 1 
1 1 1 1 1 1 1 1 1 
1 1 1 1 1 1 1 1 1 
1 1 1 1 1 1 1 1 1 
1 1 1 1 1 1 1 1 1 
1 1 1 1 1 1 1 1 1 
1 1 1 1 1 1 1 1 1 
1 1 1 1 1 1 1 1 1 
1 1 1 1 1 1 1 1 1 
1 1 1 1 1 1 1 1 1 
1 1 1 1 1 1 1 1 1 
1 1 1 1 1 1 1 1 1 
1 1 1 1 1 1 1 1 1 
1 1 1 1 1 1 1 1 1 
1 1 1 1 1 1 1 1 1 
1 1 1 1 1 1 1 1 1 
1 1 1 1 1 1 1 1 1 
1 1 1 1 1 1 1 1 1 
1 1 1 1 1 1 1 1 1 
1 1 1 1 1 1 1 1 1 
1 1 1 1 1 1 1 1 1 
1 1 1 1 1 1 1 1 1 
1 1 1 1 1 1 1 1 1 
1 1 1 1 1 1 1 1 1 
1 1 1 1 1 1 1 1 1 
1 1 1 1 1 1 1 1 1 
1 1 1 1 1 1 1 1 1 
1 1 1 1 1 1 1 1 1 
1 1 1 1 1 1 1 1 1 
1 1 1 1 1 1 1 1 1 
1 1 1 1 1 1 1 1 1 
1 1 1 1 1 1 1 1 1 
1 1 1 1 1 1 1 1 1 
1 1 1 1 1 1 1 1 1 
1 1 1 1 1 1 1 1 1 
1 1 1 1 1 1 1 1 1 
1 1 1 1 1 1 1 1 1 
1 1 1 1 1 1 1 1 1 
1 1 1 1 1 1 1 1 1 
1 1 1 1 1 1 1 1 1 
1 1 1 1 1 1 1 1 1 
1 1 1 1 1 1 1 1 1 
1 1 1 1 1 1 1 1 1 
1 1 1 1 1 1 1 1 1 
1 1 1 1 1 1 1 1 1 
1 1 1 1 1 1 1 1 1 
1 1 1 1 1 1 1 1 1 
1 1 1 1 1 1 1 1 1 
1 1 1 1 1 1 1 1 1 
1 1 1 1 1 1 1 1 1 
1 1 1 1 1 1 1 1 1 
1 1 1 1 1 1 1 1 1 
1 1 1 1 1 1 1 1 1 
1 1 1 1 1 1 1 1 1 
1 1 1 1 1 1 1 1 1 
1 1 1 1 1 1 1 1 1 
1 1 1 1 1 1 1 1 1 
1 1 1 1 1 1 1 1 1 
1 1 1 1 1 1 1 1 1 
1 1 1 1 1 1 1 1 1 
1 1 1 1 1 1 1 1 1 
1 1 1 1 1 1 1 1 1 
1 1 1 1 1 1 1 1 1 
1 1 1 1 1 1 1 1 1 
1 1 1 1 1 1 1 1 1 
1 1 1 1 1 1 1 1 1 
1 1 1 1 1 1 1 1 1 
1 1 1 1 1 1 1 1 1 
1 1 1 1 1 1 1 1 1 
1 1 1 1 1 1 1 1 1 
1 1 1 1 1 1 1 1 1 
1 1 1 1 1 1 1 1 1 
1 1 1 1 1 1 1 1 1 
1 1 1 1 1 1 1 1 1 
1 1 1 1 1 1 1 1 1 
1 1 1 1 1 1 1 1 1 
1 1 1 1 1 1 1 1 1 
1 1 1 1 1 1 1 1 1 
1 1 1 1 1 1 1 1 1 
1 1 1 1 1 1 1 1 1 
1 1 1 1 1 1 1 1 1 
1 1 1 1 1 1 1 1 1 
1 1 1 1 1 1 1 1 1 
1 1 1 1 1 1 1 1 1 
1 1 1 1 1 1 1 1 1 
1 1 1 1 1 1 1 1 1 
1 1 1 1 1 1 1 1 1 
1 1 1 1 1 1 1 1 1 
1 1 1 1 1 1 1 1 1 
1 1 1 1 1 1 1 1 1 
1 1 1 1 1 1 1 1 1 
1 1 1 1 1 1 1 1 1 
1 1 1 1 1 1 1 1 1 
1 1 1 1 1 1 1 1 1 
1 1 1 1 1 1 1 1 1 
1 1 1 1 1 1 1 1 1 
1 1 1 1 1 1 1 1 1 
1 1 1 1 1 1 1 1 1 
1 1 1 1 1 1 1 1 1 
1 1 1 1 1 1 1 1 1 
1 1 1 1 1 1 1 1 1 
1 1 1 1 1 1 1 1 1 
1 1 1 1 1 1 1 1 1 
1 1 1 1 1 1 1 1 1 
1 1 1 1 1 1 1 1 1 
1 1 1 1 1 1 1 1 1 
1 1 1 1 1 1 1 1 1 
1 1 1 1 1 1 1 1 1 
1 1 1 1 1 1 1 1 1 
1 1 1 1 1 1 1 1 1 
1 1 1 1 1 1 1 1 1 
1 1 1 1 1 1 1 1 1 
1 1 1 1 1 1 1 1 1 
1 1 1 1 1 1 1 1 1 
1 1 1 1 1 1 1 1 1 
1 1 1 1 1 1 1 1 1 
1 1 1 1 1 1 1 1 1 
1 1 1 1 1 1 1 1 1 
1 1 1 1 1 1 1 1 1 
1 1 1 1 1 1 1 1 1 
1 1 1 1 1 1 1 1 1 
1 1 1 1 1 1 1 1 1 
1 1 1 1 1 1 1 1 1 
1 1 1 1 1 1 1 1 1 
1 1 1 1 1 1 1 1 1 
1 1 1 1 1 1 1 1 1 
1 1 1 1 1 1 1 1 1 
1 1 1 1 1 1 1 1 1 
1 1 1 1 1 1 1 1 1 
1 1 1 1 1 1 1 1 1 
1 1 1 1 1 1 1 1 1 
1 1 1 1 1 1 1 1 1 
1 1 1 1 1 1 1 1 1 
1 1 1 1 1 1 1 1 1 
1 1 1 1 1 1 1 1 1 
1 1 1 1 1 1 1 1 1 
1 1 1 1 1 1 1 1 1 
1 1 1 1 1 1 1 1 1 
1 1 1 1 1 1 1 1 1 
1 1 1 1 1 1 1 1 1 
1 1 1 1 1 1 1 1 1 
1 1 1 1 1 1 1 1 1 
1 1 1 1 1 1 1 1 1 
1 1 1 1 1 1 1 1 1 
1 1 1 1 1 1 1 1 1 
1 1 1 1 1 1 1 1 1 
1 1 1 1 1 1 1 1 1 
1 1 1 1 1 1 1 1 1 
1 1 1 1 1 1 1 1 1 
1 1 1 1 1 1 1 1 1 
1 1 1 1 1 1 1 1 1 
1 1 1 1 1 1 1 1 1 
1 1 1 1 1 1 1 1 1 
1 1 1 1 1 1 1 1 1 
1 1 1 1 1 1 1 1 1 
1 1 1 1 1 1 1 1 1 
1 1 1 1 1 1 1 1 1 
1 1 1 1 1 1 1 1 1 
1 1 1 1 1 1 1 1 1 
1 1 1 1 1 1 1 1 1 
1 1 1 1 1 1 1 1 1 
1 1 1 1 1 1 1 1 1 
1 1 1 1 1 1 1 1 1 
1 1 1 1 1 1 1 1 1 
1 1 1 1 1 1 1 1 1 
1 1 1 1 1 1 1 1 1 
1 1 1 1 1 1 1 1 1 
1 1 1 1 1 1 1 1 1 
1 1 1 1 1 1 1 1 1 
1 1 1 1 1 1 1 1 1 
1 1 1 1 1 1 1 1 1 
1 1 1 1 1 1 1 1 1 
1 1 1 1 1 1 1 1 1 
1 1 1 1 1 1 1 1 1 
1 1 1 1 1 1 1 1 1 
1 1 1 1 1 1 1 1 1 
1 1 1 1 1 1 1 1 1 
1 1 1 1 1 1 1 1 1 
1 1 1 1 1 1 1 1 1 
1 1 1 1 1 1 1 1 1 
1 1 1 1 1 1 1 1 1 
1 1 1 1 1 1 1 1 1 
1 1 1 1 1 1 1 1 1 
1 1 1 1 1 1 1 1 1 
1 1 1 1 1 1 1 1 1 
1 1 1 1 1 1 1 1 1 
1 1 1 1 1 1 1 1 1 
1 1 1 1 1 1 1 1 1 
1 1 1 1 1 1 1 1 1 
1 1 1 1 1 1 1 1 1 
1 1 1 1 1 1 1 1 1 
1 1 1 1 1 1 1 1 1 
1 1 1 1 1 1 1 1 1 
1 1 1 1 1 1 1 1 1 
1 1 1 1 1 1 1 1 1 
1 1 1 1 1 1 1 1 1 
1 1 1 1 1 1 1 1 1 
1 1 1 1 1 1 1 1 1 
1 1 1 1 1 
NORMALS Normals float
0.194791 -0.178546 -0.964457 0.0470901 -0.386164 -0.921228 -0.167049 -0.240866 -0.956074 
-0.0316919 -0.0131829 -0.999411 -0.258382 -0.184965 -0.94817 -0.0960339 -0.0874218 -0.991532 
-0.299701 0.1304 -0.94508 -0.185385 0.43881 -0.879248 0.160647 0.234549 -0.958738 
0.246608 0.313133 -0.917133 -0.0990712 -0.184631 -0.977802 0.318764 -0.223233 -0.921171 
-0.327851 -0.0597378 -0.942839 0.026445 -0.0427473 -0.998736 -0.210876 0.238984 -0.947849 
0.158498 0.264646 -0.951231 -0.0742497 -0.57249 -0.816543 0.126917 -0.584231 -0.801602 
-0.215106 0.458296 -0.862377 -0.129392 0.608732 -0.782753 -0.300983 -0.254178 -0.919132 
-0.455045 0.312261 -0.833922 0.484558 -0.152954 -0.861283 -0.0369154 0.340882 -0.939381 
0.0145888 0.578825 -0.815321 0.139057 -0.364176 -0.92089 0.424809 -0.119198 -0.897402 
-0.447611 0.257334 -0.856401 0.337376 0.124336 -0.933123 0.11081 -0.797419 -0.593165 
-0.203256 -0.484766 -0.850699 0.510128 -0.48079 -0.713169 -0.490717 -0.0242779 -0.870981 
-0.583033 0.162768 -0.795977 0.573688 -0.230976 -0.785832 0.348222 0.391982 -0.851523 
-0.255022 -0.315324 -0.914075 -0.0778915 -0.461267 -0.883836 -0.483869 -0.0852757 -0.870976 
-0.707456 0.277581 -0.649965 -0.534957 0.500414 -0.68074 -0.0646968 -0.752027 -0.65595 
0.0695146 0.49023 -0.868817 0.392363 -0.542511 -0.742787 0.696604 -0.20986 -0.686078 
-0.544653 0.414162 -0.729262 -0.596586 0.258086 -0.759919 0.57637 0.0417516 -0.816122 
0.571915 0.108122 -0.813156 0.0112004 -0.156478 -0.987618 -0.257132 -0.862396 -0.436069 
-0.693328 0.356914 -0.626027 0.72481 -0.505926 -0.467643 0.343809 0.770504 -0.536767 
-0.110602 -0.412676 -0.904138 0.28402 -0.526208 -0.801522 0.248031 -0.545798 -0.800366 
-0.0470212 -0.798401 -0.600287 0.270362 0.0175092 -0.9626 0.316715 0.158349 -0.93521 
0.695907 -0.492109 -0.523012 -0.369554 0.754813 -0.541929 0.146741 0.570617 -0.808 
-0.0716486 0.373622 -0.92481 -0.0108311 -0.334935 -0.942179 -0.434382 0.102409 -0.894888 
0.514845 0.0209203 -0.857028 0.000787572 0.551814 -0.833967 0.303139 -0.832801 0.463195 
-0.671639 -0.547185 0.499488 0.688645 0.39159 0.610266 -0.296141 0.7687 0.566922 
-0.632378 0.773632 -0.0398904 -0.868571 0.464974 -0.171415 -0.1998 0.969649 0.140931 
0.577805 0.811735 0.085014 -0.717066 -0.595691 -0.361897 0.360527 -0.92671 -0.105968 
0.324523 0.904762 0.275846 0.955677 -0.185509 0.228621 -0.0817122 -0.443679 -0.892453 
-0.34922 -0.36891 -0.861366 -0.74295 0.00176534 -0.669344 0.384951 -0.299312 -0.873055 
0.361475 -0.453309 -0.814768 0.223182 -0.878964 -0.421441 0.221891 -0.273113 -0.936042 
0.0353468 -0.561205 -0.826922 -0.187397 -0.246568 -0.950835 -0.0382221 -0.128481 -0.990975 
0.114048 0.290934 -0.949921 -0.345912 0.779117 -0.522802 -0.540477 0.517595 -0.66331 
0.293707 0.382367 -0.876089 0.217373 0.42826 -0.877122 -0.104774 -0.193983 -0.975394 
-0.468659 0.389859 -0.792697 -0.066198 -0.305124 -0.950009 -0.506377 0.462211 -0.727972 
0.219028 -0.482019 -0.848342 0.526174 0.0342082 -0.849689 -0.620877 0.520622 -0.586059 
-0.172712 0.105457 -0.979311 -0.0239846 -0.098275 0.99487 0.0174544 -0.179788 -0.98355 
-0.492503 0.493769 -0.716682 0.103378 0.464247 -0.879652 0.564765 -0.231366 -0.792156 
-0.699725 0.709235 -0.0858519 -0.953836 0.134095 -0.268728 0.467369 -0.881868 -0.0622512 
0.455965 -0.885515 -0.0892123 0.875016 0.377284 0.303321 -0.358336 0.915176 0.184519 
-0.789195 0.607551 -0.0897357 -0.499402 0.865198 0.0450595 0.675649 -0.677064 -0.29169 
0.935636 0.288504 0.203348 0.600084 -0.421758 -0.67972 0.496451 -0.506643 -0.704875 
0.356533 -0.517947 -0.77757 0.14513 -0.760985 -0.632328 0.526352 -0.766288 -0.36845 
0.567308 -0.683059 -0.459992 -0.0911136 0.304498 -0.948145 -0.215902 0.0820506 -0.972962 
-0.151357 0.695274 -0.702628 -0.184389 -0.124638 -0.974919 -0.928183 -0.159167 -0.336367 
-0.233428 0.853848 -0.465246 0.0305051 -0.910755 -0.411818 0.567889 -0.00529132 -0.823088 
-0.422668 -0.0258433 -0.905916 -0.242984 -0.170641 -0.954903 -0.538118 0.147396 -0.829881 
-0.0968504 -0.134747 -0.986136 -0.216727 0.066779 -0.973945 -0.00244483 -0.384854 -0.922974 
-0.31293 0.0816016 -0.946264 -0.26847 0.0804996 -0.959919 0.413233 -0.278691 -0.866931 
0.386864 0.173272 -0.905711 -0.268194 0.0566293 -0.961699 0.404659 -0.346781 -0.846164 
-0.246324 0.290187 -0.924725 -0.497341 0.624365 -0.602346 0.452433 -0.47514 -0.754683 
0.652988 -0.0517332 -0.7556 -0.386934 0.703391 -0.596258 0.159622 0.647243 -0.745384 
-0.943228 0.0937871 -0.31863 -0.846735 0.415682 -0.332036 0.805178 -0.592974 0.00838383 
0.294468 0.942789 0.156324 -0.847755 0.448264 -0.283497 -0.632106 0.703208 -0.325484 
0.856552 -0.454086 -0.245201 0.431426 0.901951 0.0188772 -0.241222 -0.569669 -0.785678 
-0.452101 -0.480727 -0.751336 -0.814383 -0.0255262 -0.579765 0.0732315 -0.77943 -0.622195 
-0.0278934 0.0509081 -0.998314 -0.258255 0.436609 -0.861787 -0.564822 0.523324 -0.63805 
0.201731 0.614883 -0.76238 -0.0225044 0.733514 -0.679302 -0.458911 -0.788138 -0.41017 
-0.774874 0.38977 -0.497644 0.29903 -0.627293 -0.719086 0.135937 0.574219 -0.807338 
-0.200442 -0.173969 -0.964136 -0.16061 -0.308626 -0.937526 -0.137925 -0.16109 -0.977255 
-0.272073 0.0437066 -0.961284 -0.177805 0.0821179 -0.980633 -0.160614 -0.117998 -0.979939 
-0.374814 0.288887 -0.880942 -0.106154 -0.0817978 -0.990979 0.291588 -0.461981 -0.837586 
-0.347392 0.362037 -0.865013 0.276108 0.000638907 -0.961126 -0.0594378 0.322955 -0.944546 
0.370087 0.235678 -0.898605 -0.182289 0.634529 -0.751095 -0.841328 -0.0376799 -0.539211 
-0.777275 0.272982 -0.566855 0.91086 0.0313906 -0.41152 -0.268386 0.926924 -0.262262 
0.131796 -0.070384 -0.988775 -0.580244 0.646763 -0.494989 0.837346 -0.282643 -0.467937 
-0.279454 0.915276 -0.29013 0.959693 0.211501 -0.185088 0.547516 0.803368 -0.234149 
0.0916581 -0.59085 -0.801558 -0.372729 -0.530163 -0.761578 -0.845266 0.336337 -0.415214 
0.366896 -0.702112 -0.610267 0.309818 -0.831948 -0.4603 -0.642901 0.691919 -0.328521 
0.681088 -0.420982 -0.599077 -0.536333 -0.587143 -0.606309 -0.74635 0.12256 -0.654171 
-0.0631327 -0.815308 -0.575576 0.128377 -0.269318 -0.954457 -0.436361 0.615233 -0.656564 
-0.176599 0.398628 -0.899949 -0.361269 0.0146275 -0.932347 -0.378031 0.504328 -0.776367 
0.463387 -0.332975 -0.821219 -0.471851 0.558716 -0.682051 -0.0777358 -0.0345955 -0.996374 
-0.499762 0.671426 -0.547198 0.799003 -0.0193925 -0.601015 -0.083265 0.707367 -0.701925 
0.652919 -0.154598 -0.741482 0.903943 -0.0973108 -0.416433 0.500871 0.79517 -0.341809 
0.826815 0.457138 -0.327723 -0.232621 -0.722376 -0.651199 -0.754054 -0.37022 -0.542531 
0.786469 -0.382134 -0.485222 0.730479 -0.437348 -0.524526 0.588182 -0.698571 -0.40748 
0.60249 -0.768827 -0.214267 -0.550687 0.698823 -0.456498 -0.338306 0.885185 -0.31937 
0.0191708 0.799932 -0.599784 -0.572934 -0.142957 -0.807038 -0.0856908 -0.291189 -0.95282 
-0.0750576 -0.64227 -0.762795 -0.008982 -0.512689 -0.858527 -0.526188 0.368255 -0.766495 
-0.359767 0.228041 -0.904746 -0.40409 0.367856 -0.837492 -0.408357 0.691401 -0.595995 
0.645836 -0.300863 -0.701696 -0.49998 0.71427 -0.489733 0.879385 0.00881889 -0.476029 
-0.366004 0.853029 -0.371998 0.264584 -0.662517 -0.700761 0.232332 -0.502307 -0.832892 
0.165974 -0.480915 -0.860914 0.36966 -0.314004 -0.874501 0.45812 -0.168642 -0.872746 
-0.618166 -0.593203 -0.515733 -0.823019 -0.475181 -0.311194 0.640482 -0.676873 -0.362803 
0.396498 -0.905953 -0.148453 0.401144 -0.895253 -0.193924 0.641944 -0.695321 -0.323167 
0.502243 0.0986 -0.859087 -0.296955 0.907079 -0.298373 -0.29418 -0.583539 -0.756929 
-0.317089 -0.611636 -0.724815 0.847854 0.417343 -0.32706 0.74406 0.582544 -0.327135 
0.24977 0.921156 -0.298473 0.0936679 -0.782933 -0.615014 0.315484 -0.916487 -0.246009 
0.191389 -0.784573 -0.589759 0.423546 -0.636207 -0.644864 0.243011 -0.8612 -0.446408 
0.39694 -0.379535 -0.835698 0.454969 -0.744122 -0.489169 0.521496 -0.390911 -0.758439 
-0.947616 0.273389 -0.165173 0.767708 -0.602146 -0.21919 0.705803 -0.63906 -0.305687 
0.280729 0.52515 -0.803373 -0.143532 -0.579058 -0.802552 -0.316019 -0.273662 -0.908428 
-0.338269 -0.424001 -0.840118 -0.322661 -0.508929 -0.798048 -0.457933 -0.0400852 -0.888082 
-0.470524 -0.347702 -0.810993 -0.0348515 0.204592 -0.978227 -0.164358 -0.092837 -0.982022 
-0.428409 0.135188 -0.893415 0.693882 0.675931 -0.248285 0.015194 -0.799385 -0.600627 
0.13446 -0.926895 -0.350408 -0.25774 -0.835632 -0.485066 -0.257204 -0.88562 -0.386683 
0.469512 -0.0529185 -0.881339 0.533767 -0.748027 -0.394396 0.511527 -0.172662 -0.841741 
0.618985 -0.542037 -0.568377 0.60149 -0.072375 -0.795595 0.69796 -0.647366 -0.306217 
0.715931 0.00519466 -0.698152 0.813924 -0.549783 -0.187794 0.549801 -0.822461 -0.145865 
0.283983 0.579545 -0.763859 0.314876 0.564528 -0.762995 0.132306 0.813206 -0.566737 
-0.394392 -0.302577 -0.867699 -0.341578 0.112685 -0.933074 0.434642 -0.340626 -0.833703 
-0.173935 0.369021 -0.913001 0.827829 -0.0526108 -0.558508 0.89742 0.14881 -0.415322 
0.750138 0.557036 -0.356376 0.134526 -0.984332 -0.113988 0.061242 -0.976622 -0.206058 
0.614889 -0.597297 -0.514926 0.520195 -0.432609 -0.736374 0.538922 -0.474401 -0.696065 
-0.516869 -0.721406 -0.460891 0.532967 -0.188892 -0.824782 0.099752 -0.239775 -0.96569 
0.177622 -0.617611 -0.766164 0.257658 0.124969 -0.95812 0.518232 -0.0128444 -0.855144 
0.197442 -0.79921 -0.567698 0.576398 -0.772556 -0.266311 0.896379 -0.153195 -0.415975 
0.911691 -0.291843 -0.289219 0.285274 -0.957091 -0.050948 0.618932 -0.779316 -0.0979312 
-0.626911 0.747781 -0.218648 -0.919821 -0.17699 0.350149 -0.743754 -0.540739 0.392978 
-0.326397 0.360542 0.87377 0.0698138 0.75871 0.647677 -0.55359 0.812368 -0.183293 
-0.715658 0.697642 0.0335983 -0.707891 -0.631508 -0.316366 -0.774738 0.610909 -0.163007 
-0.91102 0.360038 -0.201034 0.357618 0.328763 -0.874085 -0.0930417 0.975567 -0.199031 
0.254794 -0.342104 -0.904459 -0.00834889 -0.408973 -0.912508 0.122637 -0.143931 -0.981959 
0.485171 0.143686 -0.862533 -0.368528 0.0171828 -0.929458 -0.359461 -0.308403 -0.880724 
-0.155899 0.0883665 -0.983812 -0.225989 -0.00778333 -0.974099 -0.504603 0.0318867 -0.862763 
-0.199443 0.479328 -0.854674 -0.331597 0.43324 -0.838061 -0.430828 0.503131 -0.749164 
0.845655 0.308524 -0.435523 0.756156 0.502524 -0.419163 -0.0726245 0.981174 -0.17895 
0.629371 0.68981 -0.357847 0.486052 -0.0975596 -0.868468 0.42113 -0.750706 -0.509009 
0.32613 -0.938335 -0.114747 0.806289 -0.584506 -0.0908327 0.890173 0.072761 -0.449775 
0.555678 0.153494 -0.817105 -0.964743 -0.0479657 -0.258788 0.183922 -0.982867 0.0120305 
0.54273 -0.839455 -0.0275528 -0.669706 -0.129183 0.731304 -0.062219 0.681731 0.728953 
0.0653096 0.808195 0.585283 -0.4305 0.88656 0.169357 -0.962669 0.2555 0.0893776 
-0.588065 -0.778167 -0.220534 0.548221 -0.74111 -0.38757 -0.578142 0.730329 -0.363829 
0.380607 0.0657504 -0.922396 0.443954 0.380177 -0.8114 0.200666 0.782436 -0.589515 
0.20051 -0.520795 -0.8298 -0.0221794 -0.581268 -0.81341 -0.183579 -0.470147 -0.863285 
0.576876 -0.106796 -0.80982 -0.384886 0.0552725 -0.921308 -0.123714 0.00194272 -0.992316 
-0.276834 0.586027 -0.761535 -0.195035 0.307715 -0.931275 0.929768 0.0229006 -0.367434 
-0.31819 0.919569 -0.230537 0.395589 -0.886068 -0.241647 0.538978 -0.735226 -0.41103 
0.666731 -0.711016 -0.223442 0.507415 -0.160363 -0.846648 0.485105 0.0883823 -0.869978 
0.517357 -0.53664 -0.666603 0.808551 0.0924641 -0.581116 0.646997 -0.502401 -0.573575 
0.798829 -0.542334 -0.26028 0.593509 0.310106 -0.742686 0.602232 0.357679 -0.71371 
0.617466 0.363913 -0.697354 0.939476 -0.324194 -0.110825 0.128406 -0.991636 -0.0130096 
0.353763 -0.934841 0.030419 -0.846215 -0.446288 -0.291113 -0.973517 -0.00937339 -0.228422 
-0.971949 -0.033058 -0.232856 -0.971777 0.0668788 -0.226224 0.0901337 0.780259 0.618928 
0.443438 0.857677 0.260294 0.369274 0.851111 0.373158 0.969999 0.064614 0.234365 
-0.461639 0.631898 0.622571 0.0459318 0.997942 0.0447458 0.357824 0.931651 0.0631458 
-0.571842 0.153626 0.805851 0.234937 0.878953 0.415025 -0.215591 0.957163 -0.193288 
-0.868122 -0.412186 0.276526 -0.726263 -0.240392 -0.644014 -0.874166 0.189638 -0.44707 
0.416826 -0.426129 -0.802914 0.257137 0.0228637 -0.966104 0.461048 0.14461 -0.875513 
0.29493 0.0292026 -0.955073 0.544106 0.263987 -0.796405 0.216589 0.197609 -0.956054 
0.226679 0.211117 -0.950813 0.416954 0.461974 -0.78277 0.273516 0.55728 -0.783982 
0.407855 0.54279 -0.734189 0.243688 0.603364 -0.759321 0.283488 0.642188 -0.7122 
0.194973 0.822764 -0.533896 0.183164 0.922846 -0.338829 0.236077 0.851386 -0.468412 
0.0152192 -0.699656 -0.714318 0.263154 -0.622107 -0.737383 0.234078 -0.508671 -0.82853 
-0.186407 -0.735608 -0.651255 -0.28437 -0.787534 -0.54674 -0.272487 -0.581706 -0.7664 
-0.316623 -0.684452 -0.656715 -0.447202 -0.409335 -0.79527 -0.421076 -0.228389 -0.8778 
-0.491461 -0.0845525 -0.866786 -0.32796 0.842226 -0.427899 0.869003 0.196638 -0.454056 
-0.478605 -0.872026 -0.102506 0.73501 0.00875227 -0.677999 -0.775067 -0.613177 -0.152596 
0.908074 0.25265 -0.334021 0.91426 0.111982 -0.389345 -0.993594 0.110323 0.0244987 
0.981443 -0.0831096 -0.17281 0.790541 -0.610747 0.0450812 -0.953064 -0.208291 -0.219736 
0.485871 -0.873662 0.0253782 0.971044 -0.147764 0.187723 0.497326 0.84114 0.212485 
0.425472 0.852096 0.304806 -0.963573 0.19549 -0.182511 0.0261617 0.659057 -0.751638 
0.521395 0.549742 -0.652634 0.508216 0.859833 -0.0490223 0.599413 0.790404 -0.126355 
0.556428 0.440265 -0.704666 0.591063 0.803165 0.0746292 -0.396784 0.719807 -0.569597 
-0.219722 -0.551272 -0.804874 -0.557788 0.344047 -0.755318 -0.763673 0.514417 -0.390101 
0.128478 -0.260201 -0.956969 0.673765 0.215362 -0.706866 0.239904 -0.263552 -0.934337 
0.0696872 -0.252978 -0.964959 0.530823 0.109244 -0.840412 0.341435 0.557188 -0.756944 
-0.24239 0.957774 -0.154647 0.251085 0.700751 -0.667761 -0.234486 -0.871351 -0.431003 
-0.0933414 -0.834484 -0.543069 0.660447 -0.330152 -0.674395 -0.279977 -0.844213 -0.457074 
-0.383957 -0.654142 -0.651672 -0.0330883 0.433704 -0.900448 -0.520514 -0.0538481 -0.852153 
-0.444635 0.212032 -0.870254 0.875657 0.366965 -0.313944 0.0975378 0.960124 -0.262007 
0.548528 0.74239 -0.384673 0.719479 0.633026 -0.285708 0.365849 0.88978 -0.272846 
0.652027 -0.690604 -0.312934 0.958423 -0.253048 -0.131877 0.6316 0.401074 -0.663492 
0.682153 0.426613 -0.593859 0.982795 -0.00128803 -0.184694 0.999505 -0.0314291 -0.00139968 
-0.529713 -0.826606 -0.19007 -0.780341 0.618573 -0.0918451 -0.736099 0.672305 -0.0785169 
0.894894 -0.422999 0.142252 -0.965467 0.183276 -0.185158 -0.920415 0.356015 -0.161525 
-0.619316 0.783728 -0.0470925 0.501108 -0.865385 0 0.129381 -0.986362 -0.101736 
0.468716 -0.883349 0 0.368756 0.848067 0.380528 0.565501 0.821382 -0.0744309 
0.581072 0.794449 -0.176651 0.431432 0.863241 0.26207 -0.830053 0.544756 -0.119385 
0.459947 -0.224962 -0.858976 0.146757 -0.452467 -0.879623 0.280787 -0.589855 -0.757119 
0.608085 0.640206 -0.469434 0.57156 0.812719 -0.113167 -0.417561 -0.825254 -0.38026 
-0.208745 -0.683937 -0.699039 0.379236 -0.0342561 -0.924665 0.55676 -0.0259348 -0.830268 
0.283757 -0.0321407 -0.958357 0.485296 -0.0455763 -0.873161 0.64913 0.0948171 -0.754745 
0.496713 0.119662 -0.859626 0.236375 -0.0617771 -0.969696 0.491074 0.0774015 -0.867673 
0.605186 0.226065 -0.763311 -0.653326 0.746266 -0.127484 0.739078 0.35925 -0.569827 
0.580576 0.64973 -0.490696 0.322648 0.743416 -0.585859 -0.0523009 -0.852658 -0.519846 
0.11914 -0.920324 -0.372573 0.600788 -0.671233 -0.434166 -0.303921 -0.862693 -0.40422 
-0.365182 -0.815826 -0.448409 -0.538004 -0.209396 -0.81652 -0.609099 -0.608968 -0.508091 