# vtk DataFile Version 4.2
vtk output
ASCII
DATASET POLYDATA
POINTS 869 float
264.048 201.363 189.68 263.273 201.806 189.826 264.577 201.816 189.624 
265.456 201.81 189.596 267.438 202.07 189.632 266.9 201.515 189.705 
268.622 201.734 189.803 271.334 202.666 189.831 272.336 203.09 189.869 
265.582 202.903 189.759 271.487 203.491 189.771 256.947 198.876 190.818 
258.745 199.175 190.51 263.951 199.74 190.295 266.094 200.04 190.356 
259.494 199.866 190.403 267.718 200.522 190.33 256.921 200.054 191.189 
268.447 201.193 190.048 273.755 202.463 190.404 277.36 202.8 190.824 
263.143 202.295 190.014 274.331 203.492 190.114 276.435 203.575 190.352 
278.339 203.161 190.785 278.403 203.595 190.629 260.489 202.79 191.188 
261.591 202.669 190.671 271.216 203.989 189.855 273.2 204.122 189.982 
275.013 204.031 190.133 278.047 204.135 190.451 281.118 203.956 191.097 
262.174 203.37 190.949 271.855 204.523 190.039 272.839 204.557 190.064 
276.558 204.727 190.298 282.265 204.98 191.008 266.251 204.526 190.554 
267.201 204.66 190.441 269.18 205.304 190.639 273.456 205.083 190.273 
275.622 205.128 190.344 278.373 205.274 190.483 246.939 192.656 192.795 
249.029 193.229 192.29 248.439 192.525 192.437 250.799 193.702 192.042 
249.683 194.603 192.34 250.577 194.886 192.114 254.92 195.675 191.586 
250.833 195.465 192.154 252.035 196.576 192.085 255.363 196.726 191.274 
257.717 197.305 191.052 253.008 197.429 192.026 253.367 197.281 191.801 
254.452 197.425 191.455 267.042 199.46 191.215 254.986 199.117 191.855 
255.276 198.948 191.573 256.107 199.088 191.174 256.091 200.023 191.792 
276.542 202.296 191.089 258.119 201.456 191.441 278.573 202.911 191.023 
283.155 205.036 191.232 283.708 204.685 191.567 260.69 203.165 191.537 
262.129 203.958 191.64 280.158 205.634 190.663 283.423 205.706 191.11 
285.665 205.491 191.693 286.868 205.763 191.906 267.71 205.134 190.736 
277.109 205.68 190.527 284.962 205.497 191.475 287.569 206.27 191.903 
274.363 206.547 191.261 276.201 206.336 190.894 281.187 206.888 190.948 
283.884 206.828 191.145 288.026 206.9 191.915 286.804 207.897 191.734 
286.448 208.329 191.834 244.43 189.852 193.857 246.182 190.234 193.304 
244.287 190.267 193.768 244.99 190.463 193.377 244.469 190.507 193.592 
244.577 190.767 193.593 245.364 190.973 193.223 245.581 191.672 193.24 
249.253 191.686 192.834 245.807 191.99 193.26 250.32 192.751 192.381 
247.274 193.463 193.06 250.839 195.776 192.31 256.624 196.098 191.56 
259.976 196.951 191.543 252.12 197.131 192.498 263.846 198.487 191.403 
267.018 199.161 191.686 253.135 197.996 192.479 253.547 198.487 192.701 
254.189 198.864 192.405 255.207 199.678 192.325 276.118 201.796 191.818 
257.538 201.479 192.301 280.794 203.047 191.78 262.948 204.487 192.019 
289.767 206.641 192.746 268.904 206.073 191.634 280.076 207.163 191.129 
275.909 207.174 191.665 282.766 207.844 191.346 288.425 207.744 192.076 
289.625 207.52 192.527 281.243 208.199 191.737 288.39 208.1 192.14 
287.644 208.615 192.18 286.702 209.173 192.419 244.906 189.39 194.118 
244.156 189.957 194.014 245.804 189.498 194.035 244.295 190.513 193.795 
250.234 191.836 193.019 261.269 196.775 192.746 261.809 196.975 192.846 
251.866 197.218 192.959 252.244 197.611 193.137 275.877 201.562 192.376 
284.378 203.871 192.9 287.47 205.144 192.766 290.691 206.263 193.6 
266.254 205.924 192.903 267.871 206.073 192.065 269.848 206.772 192.785 
289.795 208.298 192.7 291.121 208.47 193.513 289.124 208.938 192.748 
290.46 208.77 193.178 284.636 209.529 192.738 243.857 189.345 194.684 
243.713 189.126 195.013 243.693 189.464 194.735 243.824 189.756 194.533 
247.149 189.573 194.307 244.185 190.567 194.043 251.484 191.399 194.247 
246.271 193.044 194.015 248.289 194.648 193.488 258.498 195.519 193.218 
250.317 196.251 193.666 271.352 200.249 193.143 279.572 202.184 193.139 
258.073 202.09 193.302 259.092 202.762 193.294 291.029 206.445 193.753 
291.466 207.425 193.678 269.158 206.719 193.146 291.563 207.591 193.779 
280.827 209.399 193.824 289.391 210.148 193.901 290.073 209.968 193.863 
290.544 209.803 193.846 244.164 188.762 195.277 244.601 188.586 195.553 
243.568 189.122 195.274 243.616 189.504 194.861 243.517 189.394 195.233 
248.917 189.959 194.763 253.384 192.334 194.394 248.852 195.35 194.463 
262.428 197.01 193.84 252.759 198.193 194.102 254.365 199.406 194.432 
275.51 201.318 193.658 277.281 201.662 193.473 279.339 202.077 193.499 
258.481 202.319 194.214 287.697 204.447 194.585 261.338 204.006 193.769 
291.539 206.488 194.414 291.729 207.337 194.216 266.757 206.132 193.93 
291.534 207.759 193.757 291.313 209.352 194.119 284.758 210.234 193.836 
291.285 209.733 194.259 283.564 210.241 194.59 287.364 210.811 194.716 
291.172 209.985 194.326 291.358 209.859 194.434 290.404 210.502 194.953 
290.627 210.333 194.532 291.175 210.136 194.497 291.302 210.015 194.514 
290.899 210.318 194.626 291.073 210.239 194.612 243.739 188.789 195.566 
243.478 189.144 195.643 249.635 189.952 195.355 251.054 190.667 195.426 
261.291 196.508 194.337 278.117 201.832 193.951 291.835 206.38 195.592 
261.844 204.09 194.579 292.04 207.157 195.334 291.724 209.352 195.318 
286.008 210.941 195.569 291.124 210.183 195.29 290.392 210.605 195.47 
290.97 210.3 194.899 243.636 188.743 196.312 245.017 188.433 196.543 
243.442 189.185 196.016 243.445 189.407 196.2 243.507 189.721 195.878 
244.304 191.176 196.208 246.651 193.472 196.068 259.033 195.558 195.334 
259.785 196.007 195.699 260.752 196.334 195.106 267.572 199.015 194.73 
271.494 200.491 195.188 255.969 200.336 195.357 258.384 201.974 195.161 
284.356 203.567 195.722 291.721 205.941 196.098 261.95 203.84 195.361 
272.664 207.064 195.608 269.222 206.624 194.85 277.166 208.284 195.601 
282.895 210.097 195.939 285.371 210.844 196.3 289.704 210.894 196.549 
243.573 188.858 196.493 243.939 188.566 196.781 244.17 188.491 196.931 
243.879 188.683 197.063 251.459 190.845 196.546 244.148 190.786 197.028 
244.312 191.028 196.949 244.332 190.918 197.257 261.133 196.778 195.926 
253.568 198.456 195.783 255.33 199.592 195.907 270.548 200.421 195.747 
256.436 200.308 195.945 279.108 202.484 195.718 289.949 204.884 196.529 
291.123 205.288 196.646 264.259 204.444 196.032 292.14 206.04 197.273 
274.295 207.102 196.305 276.453 207.969 195.871 277.348 207.995 196.408 
290.717 210.199 197.266 288.335 211.192 197.172 245.225 188.487 197.647 
247.64 189.173 197.398 243.537 189.401 197.062 250.261 190.274 196.884 
257.048 194.655 196.48 252.609 197.317 196.666 258.297 200.733 196.721 
259.354 200.83 197.138 267.949 201.044 197.374 268.777 200.699 196.896 
269.743 200.848 196.711 261.608 201.998 197.16 278.111 202.688 196.395 
291.325 205.252 197.081 291.285 205.196 197.177 291.158 205.183 197.058 
291.351 205.264 197.275 290.732 205.116 197.09 291.556 205.464 197.204 
291.982 205.783 197.568 292.195 205.919 197.571 292.245 206.018 197.587 
292.25 205.946 197.66 292.231 206.271 197.648 292.235 206.013 197.724 
275.219 206.928 196.817 275.792 207.338 196.575 276.748 207.353 196.897 
291.901 208.152 197.917 281.284 208.957 197.232 283.214 209.802 197.523 
285.673 210.859 197.245 245.465 188.558 197.866 243.793 189.264 197.664 
252.633 191.735 197.259 245.047 191.133 198.118 247.684 193.688 197.683 
255.978 194.394 197.27 256.473 194.959 197.431 248.624 194.409 197.578 
258.317 196.791 197.631 259.555 196.602 196.935 253.688 196.529 197.887 
255.154 197.913 197.426 261.826 198.289 197.192 262.699 199.144 197.398 
256.871 199.404 197.082 259.262 200.264 197.394 267.281 200.928 197.44 
267.745 201.373 197.529 274.148 202.81 197.367 276.952 203.003 196.981 
273.34 203.042 197.579 275.605 203.361 197.446 278.78 203.606 197.236 
291.184 205.195 197.252 267.348 203.381 197.487 276.241 203.969 197.656 
277.65 204.095 197.646 291.256 205.344 197.611 282.477 204.75 197.944 
292.185 205.915 197.708 292.095 206.013 197.956 270.497 204.59 197.484 
276.188 205.612 197.708 276.817 206.203 197.626 274.572 206.448 197.041 
279.764 208.124 197.325 282.01 208.52 198.174 282.034 208.931 197.804 
283.018 209.372 198.009 290.56 209.693 198.711 288.449 211.003 198.138 
244.977 188.706 198.324 244.716 188.818 198.263 245.455 188.761 198.446 
248.672 189.937 198.261 244.172 189.97 198.155 250.123 190.598 198.028 
245.159 190.879 198.505 251.78 191.51 197.942 254.039 194.032 198.288 
248.572 193.952 198.13 249.068 193.657 198.681 250.452 194.629 198.352 
252.92 195.156 198.475 255.122 196.335 198.11 254.981 196.821 197.985 
257.842 197.135 197.799 260.927 199.091 197.63 262.837 200.905 197.574 
263.769 201.819 197.507 265.839 201.936 197.619 268.014 202.028 197.616 
271.974 203.3 197.686 289.49 205.217 198.452 290.164 205.345 198.482 
271.49 204.312 197.632 276.704 205.157 197.823 277.752 205.071 197.898 
292.027 206.197 198.392 281.696 207.197 198.507 291.533 208.088 198.974 
283.396 208.564 198.92 283.236 208.745 198.792 283.029 208.814 198.624 
290.947 208.857 199.309 287.394 210.827 198.815 288.748 210.779 198.55 
287.699 210.921 198.64 244.983 188.792 198.456 244.452 189.223 198.506 
245.099 188.956 198.633 245.996 189.089 198.784 246.947 189.309 198.582 
247.342 189.681 198.826 244.595 189.338 198.677 244.645 190.164 198.576 
249.491 190.804 198.726 250.913 191.142 198.195 245.805 191.029 198.814 
250.038 191.271 198.83 250.774 191.468 198.631 246.259 191.751 198.637 
252.468 192.479 198.458 247.473 192.435 198.784 252.995 193.173 198.547 
253.154 194.3 198.653 249.557 193.737 198.798 291.203 205.629 198.62 
290.258 205.86 199.296 286.76 206.571 199.735 285.977 207.093 199.768 
291.564 207.203 199.363 285.13 207.63 199.62 285.22 209.928 198.853 
287.655 210.767 198.945 287.77 210.583 199.156 288.722 210.359 199.249 
245.426 189.178 198.875 244.848 189.472 198.823 246.203 189.533 199.102 
245.138 190.001 198.941 251.281 192.424 198.942 252.025 192.571 198.742 
[...]
POINT_DATA 869
SCALARS scalars float
LOOKUP_TABLE default
1 1 1 1 1 1 1 1 1 
1 1 1 1 1 1 1 1 1 
1 1 1 1 1 1 1 1 1 
1 1 1 1 1 1 1 1 1 
1 1 1 1 1 1 1 1 1 
1 1 1 1 1 1 1 1 1 
1 1 1 1 1 1 1 1 1 
1 1 1 1 1 1 1 1 1 
1 1 1 1 1 1 1 1 1 
1 1 1 1 1 1 1 1 1 
1 1 1 1 1 1 1 1 1 
1 1 1 1 1 1 1 1 1 
1 1 1 1 1 1 1 1 1 
1 1 1 1 1 1 1 1 1 
1 1 1 1 1 1 1 1 1 
1 1 1 1 1 1 1 1 1 
1 1 1 1 1 1 1 1 1 
1 1 1 1 1 1 1 1 1 
1 1 1 1 1 1 1 1 1 
1 1 1 1 1 1 1 1 1 
1 1 1 1 1 1 1 1 1 
1 1 1 1 1 1 1 1 1 
1 1 1 1 1 1 1 1 1 
1 1 1 1 1 1 1 1 1 
1 1 1 1 1 1 1 1 1 
1 1 1 1 1 1 1 1 1 
1 1 1 1 1 1 1 1 1 
1 1 1 1 1 1 1 1 1 
1 1 1 1 1 1 1 1 1 
1 1 1 1 1 1 1 1 1 
1 1 1 1 1 1 1 1 1 
1 1 1 1 1 1 1 1 1 
1 1 1 1 1 1 1 1 1 
1 1 1 1 1 1 1 1 1 
1 1 1 1 1 1 1 1 1 
1 1 1 1 1 1 1 1 1 
1 1 1 1 1 1 1 1 1 
1 1 1 1 1 1 1 1 1 
1 1 1 1 1 1 1 1 1 
1 1 1 1 1 1 1 1 1 
1 1 1 1 1 1 1 1 1 
1 1 1 1 1 1 1 1 1 
1 1 1 1 1 1 1 1 1 
1 1 1 1 1 1 1 1 1 
1 1 1 1 1 1 1 1 1 
1 1 1 1 1 1 1 1 1 
1 1 1 1 1 1 1 1 1 
1 1 1 1 1 1 1 1 1 
1 1 1 1 1 1 1 1 1 
1 1 1 1 1 1 1 1 1 
1 1 1 1 1 1 1 1 1 
1 1 1 1 1 1 1 1 1 
1 1 1 1 1 1 1 1 1 
1 1 1 1 1 1 1 1 1 
1 1 1 1 1 1 1 1 1 
1 1 1 1 1 1 1 1 1 
1 1 1 1 1 1 1 1 1 
1 1 1 1 1 1 1 1 1 
1 1 1 1 1 1 1 1 1 
1 1 1 1 1 1 1 1 1 
1 1 1 1 1 1 1 1 1 
1 1 1 1 1 1 1 1 1 
1 1 1 1 1 1 1 1 1 
1 1 1 1 1 1 1 1 1 
1 1 1 1 1 1 1 1 1 
1 1 1 1 1 1 1 1 1 
1 1 1 1 1 1 1 1 1 
1 1 1 1 1 1 1 1 1 
1 1 1 1 1 1 1 1 1 
1 1 1 1 1 1 1 1 1 
1 1 1 1 1 1 1 1 1 
1 1 1 1 1 1 1 1 1 
1 1 1 1 1 1 1 1 1 
1 1 1 1 1 1 1 1 1 
1 1 1 1 1 1 1 1 1 
1 1 1 1 1 1 1 1 1 
1 1 1 1 1 1 1 1 1 
1 1 1 1 1 1 1 1 1 
1 1 1 1 1 1 1 1 1 
1 1 1 1 1 1 1 1 1 
1 1 1 1 1 1 1 1 1 
1 1 1 1 1 1 1 1 1 
1 1 1 1 1 1 1 1 1 
1 1 1 1 1 1 1 1 1 
1 1 1 1 1 1 1 1 1 
1 1 1 1 1 1 1 1 1 
1 1 1 1 1 1 1 1 1 
1 1 1 1 1 1 1 1 1 
1 1 1 1 1 1 1 1 1 
1 1 1 1 1 1 1 1 1 
1 1 1 1 1 1 1 1 1 
1 1 1 1 1 1 1 1 1 
1 1 1 1 1 1 1 1 1 
1 1 1 1 1 1 1 1 1 
1 1 1 1 1 1 1 1 1 
1 1 1 1 1 1 1 1 1 
1 1 1 1 1 
NORMALS Normals float
-0.156662 -0.145693 -0.976847 -0.369635 -0.0982249 -0.923971 -0.0953349 0.224107 -0.96989 
0.00447715 -0.0491137 -0.998783 0.108874 0.00561192 -0.99404 0.0640029 -0.259507 -0.963618 
0.148954 -0.133508 -0.97979 0.0375294 -0.349454 -0.936202 0.134621 0.020145 -0.990692 
0.0398812 0.27536 -0.960514 0.00136334 0.0664559 -0.997788 -0.231132 -0.00474431 -0.972911 
-0.227941 0.0916739 -0.96935 0.0808469 -0.507924 -0.857599 0.100098 -0.613175 -0.783579 
-0.133488 -0.0519197 -0.98969 0.227293 -0.605789 -0.762468 -0.455324 0.497369 -0.738447 
0.20369 -0.518511 -0.830456 0.138088 -0.508847 -0.84971 0.148298 -0.528409 -0.835938 
-0.17036 0.389789 -0.905009 0.136435 -0.100836 -0.985504 0.0656581 -0.191517 -0.979291 
0.244211 -0.439612 -0.864351 0.224785 -0.273632 -0.935199 -0.433333 0.698149 -0.569921 
-0.375232 0.376755 -0.84691 -0.0933469 0.31055 -0.945962 0.147389 0.0493654 -0.987846 
0.062436 -0.0880111 -0.994161 0.134061 -0.100248 -0.985889 0.247668 -0.378514 -0.891845 
-0.286407 0.646733 -0.7069 -0.1534 0.488948 -0.858719 0.026395 0.363431 -0.931247 
0.0271847 0.149399 -0.988403 0.265241 -0.280619 -0.922443 -0.218178 0.657898 -0.720811 
0.0402701 0.566094 -0.823356 -0.0959553 0.695661 -0.711933 -0.0333507 0.348358 -0.936768 
0.0253511 0.274959 -0.961122 0.116031 0.166912 -0.979121 -0.482142 0.304098 -0.821622 
-0.164022 -0.0670204 -0.984177 -0.192651 -0.0963466 -0.976526 -0.0865471 -0.130698 -0.987637 
-0.415236 0.369613 -0.831243 -0.321949 0.186867 -0.928132 0.209909 -0.648003 -0.732141 
-0.320362 0.226944 -0.919709 -0.492209 0.45453 -0.742383 -0.148224 -0.0502838 -0.987675 
0.0149385 -0.349788 -0.93671 -0.493732 0.518575 -0.698075 -0.375803 0.228241 -0.898153 
-0.273598 0.188349 -0.943223 0.253278 -0.804078 -0.537874 -0.496014 0.543094 -0.67751 
-0.431991 0.344059 -0.833671 -0.359456 0.306442 -0.881411 -0.559549 0.633517 -0.534379 
0.202067 -0.691694 -0.693345 -0.482551 0.698456 -0.528492 0.258235 -0.681968 -0.684277 
0.209199 -0.207945 -0.955508 0.307344 -0.460929 -0.832517 -0.413156 0.757463 -0.505521 
-0.394822 0.778844 -0.487358 0.0755478 0.0575583 -0.99548 0.195336 -0.0937249 -0.976248 
0.285675 -0.478372 -0.830391 0.220329 -0.323463 -0.920232 -0.0107263 0.599561 -0.800257 
0.0881344 0.400776 -0.911927 0.208375 -0.234011 -0.949641 0.392885 -0.376859 -0.83882 
-0.196196 0.707302 -0.67914 -0.000203367 0.515366 -0.85697 0.0531994 0.219202 -0.974228 
0.177294 -0.00114241 -0.984157 0.282054 -0.195418 -0.939286 0.199125 0.30443 -0.931489 
0.0818827 0.504437 -0.859557 -0.366727 -0.497367 -0.786217 -0.00218326 -0.518831 -0.854874 
-0.698488 -0.136269 -0.702528 -0.299312 -0.180828 -0.936864 -0.556407 -0.0218729 -0.830622 
-0.608971 0.320434 -0.725587 -0.232314 -0.0140268 -0.97254 -0.583568 0.451974 -0.674662 
0.151276 -0.567609 -0.809281 -0.427467 0.262263 -0.865153 0.203741 -0.501629 -0.840748 
-0.62617 0.616135 -0.477795 -0.541571 0.490489 -0.682731 0.00325416 -0.467351 -0.884066 
0.293412 -0.798425 -0.525762 -0.567699 0.549208 -0.613261 0.200661 -0.790246 -0.579004 
0.245069 -0.886682 -0.392092 -0.600405 0.723451 -0.340782 -0.608704 0.71257 -0.34889 
-0.603016 0.642318 -0.473074 -0.544865 0.724263 -0.422569 0.270747 -0.866592 -0.419184 
-0.56895 0.737653 -0.363544 0.321101 -0.737034 -0.594706 -0.319151 0.886518 -0.335006 
0.417754 -0.31729 -0.851357 -0.139917 0.857854 -0.49448 -0.114443 0.531136 -0.839522 
-0.0251556 0.730574 -0.68237 0.00598315 0.367998 -0.929807 0.296598 0.104649 -0.949251 
0.451501 0.0111821 -0.892201 -0.119162 0.679143 -0.724269 0.271394 0.27435 -0.922539 
0.155503 0.405401 -0.900815 0.109129 0.651016 -0.751178 -0.152082 -0.759993 -0.631887 
-0.8084 -0.158193 -0.566978 0.0554162 -0.759633 -0.647986 -0.829795 0.208333 -0.517723 
0.325165 -0.655579 -0.681531 0.314026 -0.906389 -0.282572 0.325499 -0.850735 -0.412674 
-0.688415 0.688884 -0.226989 -0.593146 0.727211 -0.34546 0.402706 -0.913616 -0.0559839 
0.315357 -0.857062 -0.407425 0.402371 -0.684278 -0.608162 0.485335 -0.68227 -0.546771 
-0.283852 0.943892 -0.168805 -0.244132 0.906064 -0.345613 -0.123297 0.891593 -0.43573 
0.339739 0.227232 -0.912657 0.590648 0.235721 -0.771732 0.274261 0.433509 -0.8584 
0.427883 0.304583 -0.850968 -0.102901 0.780648 -0.616442 -0.490202 -0.534075 -0.688815 
-0.511622 -0.672307 -0.53502 -0.771885 -0.338878 -0.537917 -0.757379 -0.181582 -0.62722 
0.238242 -0.853462 -0.463512 -0.843888 0.471858 -0.255348 0.368389 -0.743448 -0.558188 
-0.672187 0.690343 -0.267566 -0.596414 0.707649 -0.378845 0.427358 -0.891613 -0.149634 
-0.575578 0.753995 -0.316546 0.281386 -0.954277 -0.100885 0.313803 -0.936604 -0.155885 
-0.624453 0.770884 -0.125681 -0.487473 0.864255 -0.124231 0.739 -0.437527 -0.512298 
0.632686 -0.119719 -0.765098 -0.21763 0.973237 -0.0738038 0.879139 -0.161063 -0.448523 
-0.254861 0.891893 -0.373594 0.169662 0.84541 -0.506454 0.179408 0.733946 -0.655084 
0.37669 0.558749 -0.738853 -0.230432 -0.858776 -0.457607 -0.011326 -0.959113 -0.282796 
-0.846686 -0.425606 -0.319347 -0.918772 0.0138562 -0.394546 -0.973505 -0.0172142 -0.228018 
0.311267 -0.851991 -0.42098 0.463891 -0.831118 -0.306673 -0.625361 0.780058 -0.0208292 
0.378885 -0.925383 -0.0105846 -0.660095 0.750761 -0.0251582 -0.631535 0.775324 0.00600659 
0.341781 -0.939528 0.0217659 0.190623 -0.981655 0.00399007 0.323853 -0.945726 0.0268728 
-0.512508 0.83958 0.180113 0.290012 -0.944314 -0.15545 -0.466447 0.87534 0.127307 
0.761149 -0.537351 -0.363189 0.922362 -0.0897906 -0.375748 -0.29485 0.952902 0.0710021 
0.844236 0.141875 -0.516853 0.712771 0.293845 -0.636877 -0.101979 0.930233 -0.352516 
0.601494 0.36924 -0.708426 -0.168255 0.962689 -0.211942 0.156096 0.98128 -0.112796 
0.442656 0.569039 -0.693001 0.822186 0.360476 -0.440531 0.196157 0.952881 -0.231386 
0.151077 0.844348 -0.514054 0.60493 0.762651 -0.228963 0.772758 0.587757 -0.239553 
0.304179 0.913798 -0.269162 0.344876 0.811705 -0.471376 -0.604225 -0.763067 -0.229435 
-0.974424 -0.19259 -0.115789 0.365422 -0.914294 -0.174736 0.488255 -0.849166 -0.201304 
0.368305 -0.92941 -0.0234221 0.200739 -0.979271 0.027069 0.702595 -0.6461 -0.298186 
-0.388865 0.898676 0.202892 0.968652 -0.167149 -0.183778 0.944785 0.314066 -0.0935068 
-0.00245196 0.997288 -0.073563 0.621867 0.781962 0.0426285 0.338157 0.937936 -0.0769846 
0.512126 0.857703 0.0455219 -0.647626 -0.759873 -0.0563357 0.0551047 -0.992149 -0.112271 
-0.947686 -0.317986 -0.0278765 -0.99865 0.0373023 0.0361444 -0.932157 0.362045 0.00254851 
-0.763188 0.637619 0.104812 -0.6577 0.738926 0.146355 0.456057 -0.876846 0.152161 
0.439995 -0.873533 0.208194 0.378905 -0.91643 0.128793 0.306382 -0.928477 0.209905 
0.2519 -0.942866 0.218059 -0.611826 0.731313 0.301414 -0.462334 0.810563 0.359492 
0.202479 -0.946927 0.249663 0.757169 -0.587883 -0.284761 -0.442634 0.783624 0.435901 
-0.166388 0.934862 0.313604 -0.269137 0.923351 0.27384 -0.354917 0.914552 0.193981 
-0.326672 0.927731 0.180557 -0.284168 0.958735 0.00865871 0.318533 0.943567 0.0906506 
-0.883035 -0.43526 0.175495 -0.427192 -0.903907 0.0214122 -0.257051 -0.954661 0.150159 
-0.543989 -0.758196 0.359464 0.499882 -0.846673 0.182383 -0.87399 0.484074 0.0425846 
-0.751038 0.657789 0.0570525 -0.717477 0.609527 0.337201 0.43723 -0.803466 0.40407 
-0.550386 0.740005 0.386611 -0.585981 0.736718 0.33745 0.284422 -0.865022 0.413329 
-0.510995 0.667942 0.541052 0.193143 -0.930635 0.310827 0.218419 -0.975554 0.0242514 
0.481585 -0.818909 -0.312193 -0.291345 0.765805 0.57329 0.824365 -0.487347 -0.287948 
-0.209294 0.864609 0.456779 -0.339931 0.888401 0.308531 -0.227341 0.714715 0.661437 
0.653517 0.729555 0.201654 -0.0124741 0.998595 0.0515109 -0.00701713 -0.977919 0.208867 
0.329422 -0.939643 0.0924785 -0.940189 0.305391 0.150934 0.394281 -0.899159 0.189885 
0.524961 -0.781558 0.337021 -0.547076 0.749009 0.373756 -0.368626 0.677861 0.636096 
-0.249801 0.53199 0.809065 0.271507 -0.376301 0.885822 0.279122 -0.625621 0.728485 
0.223029 -0.688281 0.690309 -0.170251 0.429598 0.886826 0.0192795 -0.849175 0.527759 
0.612979 -0.757775 -0.223681 0.409002 -0.912421 0.0143314 0.234073 -0.959943 -0.154013 
0.586364 -0.785755 0.196892 0.123643 -0.985803 0.113602 0.664737 -0.747073 -0.00283907 
0.492423 -0.868628 0.0548258 0.678379 -0.694977 -0.238346 0.977983 -0.0919971 -0.187314 
0.879236 -0.469124 0.0828591 0.991185 0.0747172 0.109408 0.919702 -0.120949 0.373523 
-0.237276 0.659749 0.713044 -0.274426 0.719489 0.637986 -0.188263 0.675116 0.713285 
0.91282 0.321202 0.252168 -0.358407 0.703608 0.61358 -0.439874 0.841194 0.314488 
-0.24555 0.948402 0.200595 0.196084 -0.954372 0.225223 -0.850798 -0.206985 0.483011 
0.589342 -0.757692 0.280321 -0.593898 0.660538 0.45932 -0.565434 0.635419 0.525859 
0.403352 -0.501785 0.765192 0.251444 -0.418629 0.872654 -0.429547 0.817728 0.383159 
0.309889 -0.434495 0.845685 0.404561 -0.743617 0.53232 -0.159795 0.424933 0.891009 
-0.218783 0.58027 0.784488 0.295881 -0.449223 0.843002 0.151945 -0.336786 0.929241 
-0.386673 0.551676 0.739011 -0.12718 0.350684 0.927818 0.0839592 -0.325689 0.941742 
0.224647 -0.21519 0.950383 0.0779272 -0.657297 0.749592 0.0728777 -0.722693 0.687316 
0.0190492 -0.498439 0.866716 0.0689759 -0.325892 0.942888 0.127496 -0.642884 0.755278 
0.177156 -0.954589 0.239533 -0.130471 0.362301 0.922884 -0.0136602 -0.309644 0.950754 
0.0712155 -0.425666 0.902074 0.309256 -0.901268 0.303442 -0.0636886 -0.552891 0.830816 
0.570309 -0.754105 0.325689 0.657152 -0.638949 0.39987 -0.147259 0.327231 0.9334 
-0.250685 0.193747 0.948483 -0.14287 0.40112 0.904815 -0.244053 0.546428 0.801159 
-0.295623 0.660719 0.689969 -0.656903 0.43097 0.618662 -0.546132 0.649925 0.528524 
-0.489516 0.730245 0.476566 0.622558 0.693332 0.362922 0.171781 0.920484 0.350998 
-0.231598 -0.882628 0.40906 -0.469059 -0.657209 0.589966 0.0850494 -0.874722 0.477104 
0.422039 -0.735869 0.529509 -0.796266 0.309405 0.519836 0.364366 -0.82292 0.435935 
-0.505529 0.494632 0.70695 0.459143 -0.721024 0.518952 0.364236 -0.210659 0.907169 
-0.408594 0.660701 0.629702 -0.336209 0.572515 0.74779 -0.21964 0.669197 0.709883 
-0.139196 0.570208 0.809622 0.0468854 0.231406 0.971727 0.0591758 0.36135 0.930551 
0.0835438 -0.0854404 0.992834 0.112118 -0.000996226 0.993694 -0.018516 0.0286175 0.999419 
-0.0232475 0.1804 0.983319 -0.0328179 0.10253 0.994188 0.0600618 -0.13315 0.989274 
0.0202192 -0.245728 0.969128 0.112515 -0.908635 0.402148 0.110109 -0.86642 0.487023 
-0.0485443 0.119975 0.991589 -0.143453 -0.0303854 0.989191 -0.0299566 -0.155768 0.987339 
0.903388 -0.232852 0.360096 -0.399653 0.24637 0.882938 0.839061 0.393711 0.375458 
-0.390886 0.205266 0.897259 -0.444623 0.34172 0.827972 -0.476406 0.468587 0.743951 
0.723313 0.44182 0.530672 -0.232724 0.808228 0.540932 0.338106 0.844398 0.415543 
0.0864273 0.932962 0.349444 -0.227173 -0.715342 0.660816 -0.625406 -0.489933 0.607317 
-0.329484 -0.573978 0.74966 0.216509 -0.763497 0.608437 0.316832 -0.775836 0.545615 
0.366706 -0.706893 0.604838 -0.561628 -0.2073 0.801 -0.574605 0.397763 0.715271 
0.33721 -0.745931 0.574349 0.462372 -0.702573 0.540928 -0.396853 0.454782 0.797296 
0.348636 -0.575731 0.739586 0.448066 -0.564673 0.693096 -0.385686 0.446804 0.807225 
0.473193 -0.597961 0.64694 -0.515851 0.667815 0.536583 0.440217 -0.350641 0.826595 
0.170874 0.117078 0.978312 -0.185567 0.474289 0.86059 0.397191 -0.824534 0.402968 
0.0740833 -0.754407 0.652213 -0.095373 -0.603425 0.791696 -0.462524 -0.101482 0.88078 
0.774667 0.16486 0.610502 -0.344305 -0.21268 0.914451 -0.345498 0.620304 0.704169 
0.0736217 0.825004 0.560311 0.0666234 0.764388 0.641305 0.168659 0.764845 0.621745 
-0.123653 -0.511958 0.850064 -0.338929 -0.148056 0.929089 -0.00407632 -0.382628 0.923894 
-0.357935 0.0669854 0.931341 0.258549 -0.343386 0.902906 0.325374 -0.310412 0.893183 
-0.121712 0.240243 0.963052 0.105168 -0.00815401 0.994421 -0.0949006 0.280858 0.955046 
0.680645 -0.517459 0.518612 0.877184 0.030076 0.479211 -0.0911304 -0.377939 0.921335 
-0.267134 0.206433 0.941289 -0.401329 -0.123827 0.907525 -0.175399 -0.250039 0.952216 
-0.283013 0.294892 0.912657 -0.44593 0.327178 0.833127 0.435421 0.638691 0.634415 
-0.08405 0.554565 0.827885 0.00595951 -0.108787 0.994047 0.219238 -0.390963 0.893914 
-0.251614 0.226303 0.940998 0.291868 -0.648727 0.702828 0.346063 -0.205859 0.915348 
0.606432 0.22712 0.762008 -0.153583 0.12202 0.980573 -0.116802 0.0895708 0.989108 
0.0803999 -0.0550993 0.995239 0.33579 0.318977 0.886284 0.0448632 0.26112 0.964263 
0.0671943 0.482191 0.873486 0.462365 -0.287017 0.838952 0.237527 0.14032 0.961192 
0.319841 0.306567 -0.896504 0.144339 0.0654745 -0.98736 0.559684 0.500863 -0.66022 
-0.289016 -0.316065 -0.903644 0.200359 -0.555791 -0.806816 -0.016546 -0.773022 -0.634164 
0.245722 -0.121933 -0.961641 0.324986 -0.27573 -0.904631 0.485247 -0.31959 -0.813878 
-0.0754381 -0.365412 -0.927784 0.378814 0.082659 -0.921774 0.624149 0.147842 -0.76719 
0.247741 -0.0699355 -0.966299 -0.0067282 0.261241 -0.96525 -0.110611 0.0879574 -0.989964 
-0.0835682 -0.0909871 -0.992339 0.351948 0.568804 -0.743367 0.165398 0.523497 -0.83582 
-0.0511491 -0.858842 -0.509679 0.0617202 -0.882954 -0.465386 0.169569 -0.923203 -0.344882 
0.316147 -0.612621 -0.724394 0.261835 -0.651156 -0.712347 -0.045113 0.0990222 -0.994062 
0.328417 -0.423549 -0.844244 0.182637 -0.17287 -0.967863 0.321782 -0.127079 -0.938247 
0.491436 -0.247798 -0.834917 -0.222944 0.277277 -0.934566 0.151534 0.0927485 -0.984091 
0.404337 -0.100489 -0.909073 -0.264712 0.556723 -0.787392 0.467235 -0.460492 -0.754744 
0.160355 -0.735441 -0.658342 0.688633 -0.467787 -0.55404 -0.00319251 -0.620059 -0.784549 
0.806657 0.278953 -0.521046 -0.215996 0.0978073 -0.971483 -0.170354 0.0863949 -0.981588 
0.687972 0.39377 -0.609623 -0.306837 0.495505 -0.812605 0.505961 0.575288 -0.642688 
-0.145061 0.456682 -0.877723 0.0132076 0.602805 -0.79778 0.0873552 0.898943 -0.429268 
0.254125 0.61819 -0.743815 0.17991 0.827 -0.532639 -0.280812 -0.619832 -0.732771 
-0.325818 -0.545977 -0.77185 0.0935272 -0.919348 -0.382167 0.238384 -0.883103 -0.404107 
0.396741 -0.805632 -0.439947 -0.531276 0.0772842 -0.843666 0.515059 -0.505582 -0.692171 
0.442255 -0.747953 -0.494951 -0.382104 0.404412 -0.830932 0.45102 -0.416483 -0.789381 
0.166807 0.27429 -0.947069 0.441591 -0.0946106 -0.892214 0.00483906 0.408448 -0.912769 
-0.0275318 -0.673456 -0.738715 0.248964 -0.452121 -0.856507 0.72646 -0.0423482 -0.685903 
-0.252279 -0.0975719 -0.962723 -0.176279 -0.326824 -0.9285 0.859981 0.250938 -0.444367 
-0.341909 0.00930951 -0.939687 -0.350536 0.262763 -0.898933 -0.366935 0.692527 -0.621099 
-0.210476 0.715883 -0.665741 0.419792 0.846814 -0.326621 -0.233367 -0.760656 -0.605757 
-0.17772 -0.947109 -0.267209 -0.631221 -0.233338 -0.739671 -0.716335 -0.32783 -0.615948 
-0.48584 -0.570076 -0.66255 -0.775308 0.0820855 -0.626226 -0.679522 0.0404696 -0.732538 
0.325914 -0.894686 -0.305477 0.613629 -0.54456 -0.571764 -0.529327 0.493579 -0.690067 
0.478059 -0.508817 -0.715937 0.372883 -0.0334719 -0.927274 -0.313611 0.626704 -0.713365 
0.326843 -0.0427981 -0.944109 -0.131542 0.626592 -0.768167 0.117518 -0.845397 -0.52105 
0.55269 -0.772297 -0.313193 -0.0236004 -0.798261 -0.60185 0.888326 -0.107803 -0.446381 
0.667856 -0.656739 -0.350231 0.876953 -0.432799 -0.2089 -0.338926 -0.336642 -0.878522 
0.982761 -0.0338076 -0.181763 -0.40666 0.0357966 -0.912878 0.903408 0.336358 -0.265928 
-0.344337 0.353199 -0.869875 -0.436131 0.588454 -0.680817 -0.331103 0.313296 -0.890065 
0.584352 0.609559 -0.535696 -0.172128 0.91803 -0.357202 0.0575314 -0.938432 -0.340639 
0.00839357 -0.99664 -0.0814699 -0.750406 -0.45972 -0.47492 -0.495825 -0.740965 -0.452912 
-0.887809 0.00596917 -0.460174 0.490864 -0.846506 -0.206107 -0.696578 0.458371 -0.551974 
-0.716256 0.525201 -0.459501 0.576264 -0.729696 -0.368054 -0.564855 0.728729 -0.38716 
0.577985 -0.576535 -0.57753 0.465795 -0.627749 -0.623672 -0.506601 0.723159 -0.469463 
0.0186537 0.278718 -0.960192 -0.217288 0.556717 -0.80178 -0.177498 -0.393616 -0.901976 
0.0122328 -0.810281 -0.585914 0.0722608 -0.696112 -0.714287 0.019418 -0.691387 -0.722223 
-0.0568886 -0.899681 -0.432826 0.13709 -0.866467 -0.480042 0.500734 -0.860002 -0.0982955 
-0.0133711 0.223874 -0.974526 0.0173681 -0.179776 -0.983554 0.900542 -0.426344 0.0851776 
0.0214974 0.313955 -0.949194 0.970904 0.141375 -0.193286 -0.238468 0.459203 -0.855725 
0.950406 0.305709 -0.05719 0.984415 0.16489 0.0611454 -0.0903836 0.52633 -0.845463 
-0.332029 0.403646 -0.852541 0.699593 0.619789 -0.355572 -0.362763 0.7185 -0.593431 
-0.388135 0.62263 -0.679473 -0.35566 0.86895 -0.34414 -0.493085 -0.806657 -0.32584 
-0.473826 -0.838851 -0.267988 -0.817515 -0.457883 -0.349304 -0.828422 0.350561 -0.436834 
0.168523 -0.173112 -0.970377 0.312785 -0.562143 -0.765612 -0.324603 0.666013 -0.671609 
0.254527 -0.650999 -0.715134 -0.443437 0.607664 -0.658868 -0.0866161 0.117307 -0.989311 
0.194164 -0.532013 -0.824174 -0.163111 0.281182 -0.945691 0.0399961 -0.101773 -0.994003 
0.103734 -0.340768 -0.934407 0.229804 -0.434632 -0.870796 -0.308605 0.560627 -0.768414 
-0.159093 0.425931 -0.890658 -0.0503526 0.330343 -0.942517 -0.189683 0.515748 -0.835478 
0.138644 -0.212024 -0.96738 0.530228 -0.701097 -0.476783 0.282592 -0.959191 0.00968277 
0.716042 -0.673722 0.182711 -0.0854545 0.521533 -0.848941 -0.139091 0.152802 -0.97842 
0.0329404 -0.797376 -0.602583 0.0168369 -0.997028 -0.0751744 0.753024 -0.651734 0.0905369 
-0.0262153 0.0411027 -0.998811 0.981007 0.0376076 0.19029 0.918498 0.331709 -0.215248 
-0.0605558 0.99182 -0.112362 -0.238426 -0.969106 -0.0631435 -0.873965 -0.473936 -0.10756 
0.27914 -0.959633 0.0344402 0.280266 -0.959744 0.0185252 -0.744682 0.63867 -0.193778 
0.428991 -0.902263 0.0434465 0.455912 -0.880405 -0.130504 0.406795 -0.810378 -0.421669 
0.342456 -0.841187 -0.418484 -0.459286 0.756835 -0.465034 0.373019 -0.799411 -0.470956 