# vtk DataFile Version 4.2
vtk output
ASCII
DATASET POLYDATA
POINTS 1003 float
388.777 233.401 226.54 386.783 234.328 226.397 386.13 234.951 226.442 
390.913 235.469 225.772 385.146 236.458 226.517 387.101 237.591 225.427 
386.551 241.059 225.336 384.614 243.132 226.066 385.626 242.832 225.66 
390.284 244.454 225.12 386.265 244.983 225.912 440.768 253.988 225.064 
413.982 266.698 226.355 414.986 266.603 225.963 414.409 268.011 226.528 
477.956 268.915 225.974 424.896 269.54 225.768 456.067 269.709 225.486 
477.519 269.886 226.06 485.175 269.745 225.844 427.295 270.518 225.907 
430.938 270.959 225.797 475.402 270.298 226.305 445.661 271.212 225.508 
455.658 271.085 225.711 475.955 270.858 226.563 478.634 270.817 226.357 
481.594 270.772 226.298 483.609 271.147 226.461 484.552 270.779 226.219 
492.393 270.962 226.011 496.274 270.996 226.047 497.601 270.947 226.148 
434.979 272.237 226.127 485.177 271.171 226.458 487.178 271.28 226.427 
494.3 271.869 226.319 494.372 271.606 226.217 456.036 272.201 226.19 
497.816 271.401 226.389 454.669 272.886 226.422 386.798 233.352 227.069 
385.371 235.128 226.921 384.992 235.578 227.053 395.527 236.109 226.666 
397.763 236.275 227.418 384.332 237.313 226.983 397.541 237.076 226.716 
399.652 237.527 227.136 398.994 236.891 227.448 396.448 237.722 226.1 
401.064 237.901 227.449 383.6 238.998 227.161 404.07 239.285 227.409 
396.304 240.352 225.348 406.815 240.634 227.128 408.73 241.123 227.293 
383.352 241.557 226.958 413.953 242.422 226.983 406.587 242.606 226.01 
417.693 243.111 226.871 383.142 242.398 227.25 508.871 242.773 227.338 
383.75 243.602 226.847 384.621 243.597 226.187 404.213 244.188 225.405 
507.443 243.246 227.108 508.964 243.155 227.416 419.67 245.71 225.834 
507.542 243.712 227.214 383.418 244.75 227.612 391.502 246.528 225.329 
429.634 246.071 226.196 430.967 246.891 225.97 506.953 244.189 227.387 
508.716 244.01 227.524 436.759 247.7 225.896 508.849 244.268 227.685 
384.297 245.795 227.63 389.389 247.587 226.136 389.259 248.246 226.555 
388.413 248.509 227.258 389.102 248.718 226.984 396.023 250.851 225.592 
393.026 252.219 227.278 394.025 253.161 227.303 395.005 254.091 227.325 
395.218 253.941 227.083 464.33 254.364 226.365 467.488 254.017 226.741 
453.151 255.857 225.643 396.932 255.868 227.386 397.115 255.697 227.161 
457.73 256.546 226.075 466.933 255.089 226.967 405.411 257.235 225.857 
463.697 256.376 226.905 400.394 257.967 227.15 403.198 258.34 226.646 
459.403 258.477 226.882 457.491 260.021 226.939 455.119 262.035 226.27 
505.371 263.718 227.179 468.02 265.976 227.121 505.58 264.513 227.122 
412.625 264.816 226.667 470.135 266.315 226.8 412.93 265.965 226.83 
458.264 266.127 226.478 460.418 266.519 226.682 501.137 266.166 226.332 
505.249 266.218 227.007 469.386 267.49 226.388 503.16 267.44 226.578 
413.155 267.867 227.415 414.762 268.806 226.83 425.625 268.708 225.565 
438.451 269.42 225.343 465.86 270.342 226.36 468.259 270.537 226.609 
469.614 269.809 226.435 472.392 270.237 226.561 502.348 269.554 226.904 
503.64 269.074 227.126 424.717 271.072 226.522 426.039 271.298 226.475 
501.92 269.993 226.976 419.74 271.126 227.079 466.551 271.458 226.925 
468.527 271.4 227.16 476.308 271.223 226.867 479.089 271.486 226.995 
485.784 271.51 226.763 488.457 271.873 226.903 489.613 271.819 226.714 
431.432 272.614 226.727 439.643 272.456 226.207 449.759 273.163 226.244 
469.25 271.647 227.526 483.298 271.667 227.213 486.41 271.778 227.107 
492.443 272.212 226.772 494.68 272.403 226.766 494.328 272.518 226.915 
438.215 273.163 226.796 444.639 273.636 226.675 466.66 272.004 227.492 
389.04 232.239 227.784 386.668 232.907 227.791 390.97 232.832 227.613 
385.838 233.764 227.435 385.53 234.052 227.55 394.358 234.311 227.733 
384.71 235.689 227.426 398.643 236.544 227.651 398.361 236.346 227.769 
505.791 238.019 227.928 384.019 237.256 227.414 400.716 237.563 227.651 
400.439 237.373 227.769 507.412 238.199 227.879 509.227 238.567 227.852 
508.98 238.428 227.881 509.218 238.449 227.945 508.716 238.825 227.675 
509.453 238.574 227.918 509.526 238.771 227.855 509.909 238.955 227.954 
383.014 240.23 227.668 407.332 240.329 227.779 408.527 240.775 227.671 
488.699 240.704 227.673 509.997 239.148 227.963 510.651 239.259 228.201 
510.606 239.28 228.2 510.668 239.257 228.203 510.634 239.262 228.204 
416.383 242.336 227.401 416.62 242.179 227.709 489.205 241.45 227.375 
505.271 240.494 226.997 509.863 239.763 227.868 510.612 239.275 228.207 
419.228 242.952 227.298 421.615 243.104 227.675 450.411 244.28 227.527 
449.61 244.24 227.654 451.066 244.03 227.797 459.885 243.482 227.686 
479.922 242.01 227.444 492.936 241.564 227.343 425.105 243.815 227.688 
427.332 244.131 227.686 442.826 244.7 227.732 382.924 242.962 227.825 
428.444 244.773 226.934 436.656 245.136 227.082 450.706 244.966 227.049 
458.456 244.663 226.983 464.292 244.369 226.929 504.707 242.351 226.944 
509.311 242.252 227.605 382.936 243.587 227.998 451.285 245.45 226.836 
457.12 245.273 226.79 462.738 245.77 226.596 494.093 243.891 227.39 
502.376 243.636 227.255 454.605 246.667 226.463 483.623 245.503 226.977 
490.01 244.648 227.253 509.354 243.801 227.826 509.461 243.655 227.935 
383.785 245.479 227.863 495.248 244.598 227.746 498.405 244.678 227.95 
503.741 244.511 227.632 507.738 244.67 227.724 460.14 248.184 226.224 
468.03 248.061 226.392 484.751 246.578 227.295 489.244 245.551 227.444 
492.562 245.126 227.81 502.263 244.672 227.852 504.657 244.758 227.8 
506.222 244.85 227.971 508.659 244.779 227.958 508.906 244.626 227.985 
504.934 244.959 228.015 508.499 244.888 228.038 388.508 248.93 227.874 
477.13 248.938 226.934 483.995 247.844 227.707 485.875 247.142 227.831 
489.377 246.083 227.834 389.241 249.342 227.643 482.177 248.469 227.527 
475.73 250.394 227.134 471.774 251.761 226.954 478.155 250.389 227.579 
393.34 252.787 227.678 394.332 253.727 227.68 474.9 252.129 227.812 
395.311 254.653 227.693 396.281 255.552 227.713 471.472 253.997 227.804 
397.27 256.419 227.744 397.853 256.799 227.613 464.951 256.341 227.186 
470.44 254.551 227.832 466.344 256.355 227.795 467.79 255.801 227.838 
505.009 261.916 227.782 505.725 261.993 227.898 505.523 261.854 227.929 
505.713 261.858 228.013 399.162 257.994 227.963 459.604 258.851 227.169 
461.336 258.187 227.494 504.969 262.217 227.605 505.724 262.27 227.776 
505.881 261.978 227.989 505.998 262.087 228.036 400.332 258.583 227.825 
401.731 258.869 227.446 460.236 259.004 227.687 460.819 258.67 227.774 
502.371 262.247 227.49 506.013 262.588 227.828 407.462 260.597 227.155 
411.935 261.97 226.158 457.719 260.338 227.237 459.263 259.661 227.773 
484.783 264.516 227.355 484.6 264.299 227.774 486.733 264.279 227.276 
486.385 264.071 227.618 487.948 263.911 227.496 496.013 263.193 227.39 
506.322 262.93 228.024 408.848 261.641 227.426 456.555 262.541 227.084 
457.023 261.704 227.425 457.669 260.893 227.693 458.317 260.368 227.789 
469.624 265.408 227.783 470.59 265.356 227.834 471.197 265.311 227.939 
502.123 263.533 226.874 505.96 263.773 227.485 456.577 263.858 226.83 
457.162 263.518 227.573 457.068 262.639 227.794 459.434 265.412 227.495 
462.881 265.74 227.874 484.063 265.24 226.782 506.403 263.852 227.944 
457.695 264.426 227.435 457.611 265.145 226.798 473.69 266.234 227.014 
506.072 265.084 227.423 506.399 265.128 227.898 412.511 266.825 227.801 
452.368 265.93 225.298 471.184 267.361 226.446 470.253 268.178 226.301 
505.716 266.866 227.388 412.893 267.928 227.965 466.204 269.183 226.225 
506.064 267.033 227.962 504.783 268.566 227.388 503.4 269.553 227.296 
413.994 269.487 227.949 417.16 270.667 227.347 416.616 270.806 227.895 
426.058 271.948 227.068 476.16 271.434 227.183 501.587 271.141 227.725 
421.202 271.901 227.961 425.857 272.141 227.461 468.928 271.901 227.931 
476.256 271.597 227.593 478.514 271.703 227.617 485.068 271.856 227.586 
487.111 271.97 227.482 489.896 272.407 227.852 496.751 272.525 227.1 
499.664 271.881 227.515 430.434 273.001 227.56 430.907 273.194 227.902 
466.476 272.156 227.759 494.109 272.673 227.263 496.156 272.89 227.605 
498.61 272.377 227.625 433.346 273.536 227.73 437.925 273.95 227.73 
443.945 274.174 227.416 451.359 274.13 227.287 459.088 273.069 227.792 
436.208 274.015 227.997 442.702 274.262 227.849 444.465 274.356 227.792 
448.229 274.401 227.706 452.688 274.198 227.69 453.468 274.13 227.708 
387.341 232.295 228.482 388.354 232.121 228.204 389.36 232.199 228.019 
389.775 232.268 228.257 386.131 233.186 228.043 391.004 232.635 228.209 
385.71 233.531 228.268 392.749 233.46 228.352 385.059 234.501 228.149 
384.182 236.443 228.13 397.483 235.833 228.193 506.333 237.875 228.122 
383.688 237.736 227.945 399.59 236.895 228.179 506.64 237.918 228.052 
507.129 238.002 228.074 508.867 238.343 227.973 509.141 238.415 228.055 
501.959 238.646 227.757 509.49 238.545 228.014 509.734 238.67 228.018 
383.238 239.218 228.145 405.485 239.516 228.178 509.853 238.801 227.989 
510.002 239.024 228.058 407.802 240.391 228.107 488.756 240.469 227.855 
488.095 240.686 227.725 510.088 239.335 227.997 510.107 239.217 228.035 
510.522 239.293 228.193 510.507 239.293 228.214 410.358 241.157 228.176 
416.532 242.069 228.067 481.276 241.503 227.631 486.305 240.802 227.747 
510.443 239.348 228.209 422.281 243.073 228.123 449.949 244.062 228.106 
465.177 242.641 227.825 509.845 240.677 228.052 509.535 243.4 228.101 
509.442 243.851 228.106 495.79 244.74 227.951 498.04 244.747 228.068 
509.146 244.402 228.055 509.317 244.175 228.145 383.921 245.922 228.428 
498.594 244.742 228.217 500.856 244.708 228.14 502.757 244.809 228.04 
504.123 245.013 228.194 505.461 244.989 228.137 508.09 244.951 228.271 
508.734 244.805 228.101 508.962 244.631 228.163 504.741 245.032 228.222 
508.465 244.91 228.184 388.373 248.906 228.293 486.379 247.123 228.108 
[...]
POINT_DATA 1003
SCALARS scalars float
LOOKUP_TABLE default
1 1 1 1 1 1 1 1 1 
1 1 1 1 1 1 1 1 1 
1 1 1 1 1 1 1 1 1 
1 1 1 1 1 1 1 1 1 
1 1 1 1 1 1 1 1 1 
1 1 1 1 1 1 1 1 1 
1 1 1 1 1 1 1 1 1 
1 1 1 1 1 1 1 1 1 
1 1 1 1 1 1 1 1 1 
1 1 1 1 1 1 1 1 1 
1 1 1 1 1 1 1 1 1 
1 1 1 1 1 1 1 1 1 
1 1 1 1 1 1 1 1 1 
1 1 1 1 1 1 1 1 1 
1 1 1 1 1 1 1 1 1 
1 1 1 1 1 1 1 1 1 
1 1 1 1 1 1 1 1 1 
1 1 1 1 1 1 1 1 1 
1 1 1 1 1 1 1 1 1 
1 1 1 1 1 1 1 1 1 
1 1 1 1 1 1 1 1 1 
1 1 1 1 1 1 1 1 1 
1 1 1 1 1 1 1 1 1 
1 1 1 1 1 1 1 1 1 
1 1 1 1 1 1 1 1 1 
1 1 1 1 1 1 1 1 1 
1 1 1 1 1 1 1 1 1 
1 1 1 1 1 1 1 1 1 
1 1 1 1 1 1 1 1 1 
1 1 1 1 1 1 1 1 1 
1 1 1 1 1 1 1 1 1 
1 1 1 1 1 1 1 1 1 
1 1 1 1 1 1 1 1 1 
1 1 1 1 1 1 1 1 1 
1 1 1 1 1 1 1 1 1 
1 1 1 1 1 1 1 1 1 
1 1 1 1 1 1 1 1 1 
1 1 1 1 1 1 1 1 1 
1 1 1 1 1 1 1 1 1 
1 1 1 1 1 1 1 1 1 
1 1 1 1 1 1 1 1 1 
1 1 1 1 1 1 1 1 1 
1 1 1 1 1 1 1 1 1 
1 1 1 1 1 1 1 1 1 
1 1 1 1 1 1 1 1 1 
1 1 1 1 1 1 1 1 1 
1 1 1 1 1 1 1 1 1 
1 1 1 1 1 1 1 1 1 
1 1 1 1 1 1 1 1 1 
1 1 1 1 1 1 1 1 1 
1 1 1 1 1 1 1 1 1 
1 1 1 1 1 1 1 1 1 
1 1 1 1 1 1 1 1 1 
1 1 1 1 1 1 1 1 1 
1 1 1 1 1 1 1 1 1 
1 1 1 1 1 1 1 1 1 
1 1 1 1 1 1 1 1 1 
1 1 1 1 1 1 1 1 1 
1 1 1 1 1 1 1 1 1 
1 1 1 1 1 1 1 1 1 
1 1 1 1 1 1 1 1 1 
1 1 1 1 1 1 1 1 1 
1 1 1 1 1 1 1 1 1 
1 1 1 1 1 1 1 1 1 
1 1 1 1 1 1 1 1 1 
1 1 1 1 1 1 1 1 1 
1 1 1 1 1 1 1 1 1 
1 1 1 1 1 1 1 1 1 
1 1 1 1 1 1 1 1 1 
1 1 1 1 1 1 1 1 1 
1 1 1 1 1 1 1 1 1 
1 1 1 1 1 1 1 1 1 
1 1 1 1 1 1 1 1 1 
1 1 1 1 1 1 1 1 1 
1 1 1 1 1 1 1 1 1 
1 1 1 1 1 1 1 1 1 
1 1 1 1 1 1 1 1 1 
1 1 1 1 1 1 1 1 1 
1 1 1 1 1 1 1 1 1 
1 1 1 1 1 1 1 1 1 
1 1 1 1 1 1 1 1 1 
1 1 1 1 1 1 1 1 1 
1 1 1 1 1 1 1 1 1 
1 1 1 1 1 1 1 1 1 
1 1 1 1 1 1 1 1 1 
1 1 1 1 1 1 1 1 1 
1 1 1 1 1 1 1 1 1 
1 1 1 1 1 1 1 1 1 
1 1 1 1 1 1 1 1 1 
1 1 1 1 1 1 1 1 1 
1 1 1 1 1 1 1 1 1 
1 1 1 1 1 1 1 1 1 
1 1 1 1 1 1 1 1 1 
1 1 1 1 1 1 1 1 1 
1 1 1 1 1 1 1 1 1 
1 1 1 1 1 1 1 1 1 
1 1 1 1 1 1 1 1 1 
1 1 1 1 1 1 1 1 1 
1 1 1 1 1 1 1 1 1 
1 1 1 1 1 1 1 1 1 
1 1 1 1 1 1 1 1 1 
1 1 1 1 1 1 1 1 1 
1 1 1 1 1 1 1 1 1 
1 1 1 1 1 1 1 1 1 
1 1 1 1 1 1 1 1 1 
1 1 1 1 1 1 1 1 1 
1 1 1 1 1 1 1 1 1 
1 1 1 1 1 1 1 1 1 
1 1 1 1 1 1 1 1 1 
1 1 1 1 1 1 1 1 1 
1 1 1 1 1 1 1 1 1 
1 1 1 1 
NORMALS Normals float
0.00491277 -0.509793 -0.860283 -0.280312 -0.354143 -0.892193 -0.4234 -0.293328 -0.857141 
0.120625 -0.21033 -0.97016 -0.637087 -0.246683 -0.730252 -0.312161 -0.145233 -0.938863 
-0.130872 0.0233722 -0.991124 -0.492826 0.0879015 -0.865676 -0.322621 0.0680645 -0.944078 
-0.0389287 0.0196294 -0.999049 -0.264065 0.303014 -0.91567 0.0553954 -0.180534 -0.982008 
-0.469194 0.191409 -0.862102 -0.194095 0.231778 -0.953208 -0.41693 0.389662 -0.821178 
0.000283324 -0.0447766 -0.998997 0.0213924 0.35953 -0.932888 0.015808 0.0717126 -0.9973 
-0.0140951 0.253392 -0.967261 0.0155895 0.251551 -0.967719 -0.0202042 0.368066 -0.92958 
-0.0259301 0.367262 -0.929756 -0.168251 0.411446 -0.89577 -0.0255829 0.224634 -0.974107 
-0.101156 0.213426 -0.971708 -0.153846 0.628195 -0.762694 -0.00531988 0.42994 -0.902842 
0.0136206 0.712312 -0.701731 -0.0115461 0.613813 -0.789367 -0.129929 0.724329 -0.677102 
-0.01964 0.138395 -0.990182 0.0724216 0.260416 -0.962777 0.0216818 0.0473253 -0.998644 
-0.0511475 0.420334 -0.905927 -0.183611 0.706239 -0.68375 0.0520959 0.542481 -0.838451 
0.05043 0.489908 -0.870314 0.0466367 0.42842 -0.902375 0.187889 0.569982 -0.799886 
0.179811 0.53704 -0.82417 -0.0702582 0.422209 -0.903772 -0.356891 -0.701543 -0.616819 
-0.692776 -0.403988 -0.597374 -0.708649 -0.360707 -0.606389 0.19663 -0.471297 -0.859777 
0.302245 -0.746228 -0.593121 -0.701766 -0.152055 -0.695991 0.254993 -0.492765 -0.831962 
0.38458 -0.654317 -0.651128 0.339584 -0.683517 -0.646132 0.16119 -0.424165 -0.891124 
0.254373 -0.619664 -0.742503 -0.803576 -0.199525 -0.560764 0.38011 -0.854674 -0.353622 
0.13573 -0.220914 -0.965802 0.25875 -0.662059 -0.703367 0.167088 -0.761383 -0.626401 
-0.613473 -0.0304261 -0.789129 0.105668 -0.67524 -0.72999 0.0897756 -0.350729 -0.932164 
0.063635 -0.575962 -0.814996 -0.904002 -0.00291167 -0.427518 0.264899 -0.0994279 -0.959136 
-0.619205 0.29086 -0.729374 -0.507148 0.245963 -0.826016 0.0633893 -0.157864 -0.985424 
0.0926756 0.047363 -0.994569 0.485123 0.124054 -0.865602 0.0209299 -0.17908 -0.983612 
0.101611 0.363848 -0.9259 -0.776324 0.380628 -0.502437 -0.0633577 0.191291 -0.979486 
0.00683336 -0.510592 -0.859796 0.0988835 -0.495452 -0.862989 -0.0194687 0.443844 -0.895892 
0.267961 0.317961 -0.909449 0.150265 -0.39482 -0.906387 0.40844 0.452761 -0.79258 
-0.541809 0.686992 -0.484236 -0.42297 0.415993 -0.805013 -0.365111 0.504684 -0.782297 
-0.527852 0.627904 -0.571934 -0.470019 0.60321 -0.644375 -0.135161 0.247424 -0.959433 
-0.622344 0.619745 -0.478126 -0.607985 0.66175 -0.438681 -0.51707 0.558675 -0.648476 
-0.45074 0.522155 -0.724008 0.0877204 0.15195 -0.984488 0.155048 0.24128 -0.95799 
0.0690251 -0.0345103 -0.997018 -0.479612 0.57378 -0.663889 -0.377392 0.510746 -0.772472 
0.215303 0.201947 -0.955438 0.235645 0.486207 -0.841471 -0.0712019 0.231731 -0.970171 
0.136427 0.595596 -0.791614 -0.292714 0.601883 -0.743004 -0.177522 0.526952 -0.831149 
0.336219 0.449978 -0.827331 0.462838 0.336903 -0.819925 0.484843 0.0123594 -0.874514 
0.199551 -0.358441 -0.911976 -0.0426229 -0.722157 -0.690415 0.480348 -0.0712505 -0.874179 
-0.648356 0.315423 -0.692924 -0.00956863 -0.523668 -0.851869 -0.601772 0.212186 -0.769966 
0.422641 -0.457861 -0.782136 0.0920313 -0.51784 -0.850512 0.00885461 -0.0443187 -0.998978 
0.27759 0.0281545 -0.960287 -0.0343831 -0.165313 -0.985642 0.18668 0.153033 -0.970428 
-0.729582 0.359996 -0.581474 -0.284671 0.578861 -0.764122 0.0628476 0.178557 -0.98192 
-0.0434479 0.211591 -0.976392 0.174931 0.265601 -0.94808 0.0840224 0.46158 -0.88311 
0.0652847 0.208945 -0.975746 -0.0222199 0.36808 -0.929529 0.283519 0.399991 -0.871564 
0.288964 0.401546 -0.869058 -0.0635301 0.509497 -0.858124 -0.183359 0.64273 -0.743826 
0.228448 0.443692 -0.866573 -0.159999 0.712185 -0.683515 0.147121 0.590758 -0.793323 
0.089387 0.65852 -0.747236 -0.00138161 0.813167 -0.582028 -0.0573336 0.831069 -0.553207 
-0.161733 0.871511 -0.462938 0.0432742 0.735354 -0.6763 -0.0750362 0.80738 -0.585241 
-0.114202 0.748461 -0.653271 -0.0465773 0.411537 -0.910202 0.0612678 0.555561 -0.829216 
0.209637 0.828874 -0.518672 -0.0175721 0.889298 -0.456991 -0.0713616 0.916433 -0.393773 
-0.12233 0.740812 -0.660479 0.0732621 0.766561 -0.637978 0.00185137 0.865454 -0.500985 
-0.0291415 0.620078 -0.783999 -0.0415761 0.739454 -0.671922 0.10402 0.851965 -0.513162 
0.0888037 -0.849483 -0.520089 -0.443411 -0.786039 -0.430732 0.326237 -0.80397 -0.497194 
-0.603468 -0.587054 -0.539624 -0.761676 -0.521366 -0.384743 0.374115 -0.801441 -0.466616 
-0.856545 -0.358348 -0.371372 0.518673 -0.816014 -0.255145 0.381366 -0.831927 -0.40306 
-0.0508518 -0.732139 -0.679254 -0.821822 -0.343402 -0.454625 0.362929 -0.819113 -0.444225 
0.344386 -0.829378 -0.439921 0.0765942 -0.523879 -0.848342 0.199018 -0.36687 -0.908734 
0.158124 -0.635382 -0.755835 0.302992 -0.840651 -0.44889 0.102511 -0.205825 -0.973205 
0.372998 -0.623908 -0.68674 0.265615 -0.175732 -0.947928 0.604618 -0.307156 -0.73491 
-0.967466 -0.171775 -0.185752 0.3537 -0.85044 -0.389421 0.293691 -0.888175 -0.353399 
0.0685427 -0.506628 -0.859436 0.537705 -0.194995 -0.820275 -0.0229293 -0.489354 -0.871784 
0.344002 0.724225 -0.59763 0.644718 0.32925 0.689879 -0.170495 -0.897154 0.407488 
-0.019001 -0.731841 -0.68121 0.102827 -0.883193 -0.457598 0.0170317 -0.297504 -0.954569 
0.0356132 -0.191816 -0.980785 0.463761 0.0244387 -0.885623 0.217346 0.426593 0.87794 
0.148537 -0.782613 -0.604528 0.0959191 -0.953592 -0.285414 0.0221307 -0.634179 -0.772869 
-0.205257 -0.73893 -0.641757 -0.0826184 -0.963067 -0.256272 -0.124115 -0.793181 -0.596205 
-0.038697 -0.426781 -0.903527 0.0254152 -0.219439 -0.975295 0.179802 -0.899413 -0.398405 
-0.0406594 -0.895656 -0.442884 -0.00183584 -0.981466 -0.19163 -0.994331 0.00590161 -0.106165 
-0.0438468 -0.533856 -0.844438 0.0977658 -0.573251 -0.813526 -0.227381 -0.271416 -0.935217 
-0.0417429 -0.402753 -0.914356 0.145464 -0.0879241 -0.985449 -0.00828351 0.0861165 -0.996251 
0.434227 -0.053654 -0.899204 -0.933539 0.206712 -0.292875 -0.0893085 -0.243907 -0.965678 
-0.120123 -0.425167 -0.897108 0.0744456 -0.238759 -0.968221 0.152904 0.170268 -0.973462 
0.0102414 0.400409 -0.916279 -0.0640968 -0.427057 -0.90195 -0.00333814 0.0838805 -0.99647 
0.110538 0.22687 -0.967632 0.670681 0.319506 -0.669405 0.869574 0.184347 -0.458101 
-0.620825 0.614618 -0.486642 0.0783875 0.402893 -0.911884 0.00173886 0.858814 -0.512285 
-0.033373 0.667082 -0.744236 0.0676813 0.616268 -0.784623 0.150569 0.0115256 -0.988532 
0.0688913 -0.0622361 -0.995681 0.238398 0.363412 -0.90061 0.168708 0.441749 -0.881133 
0.158131 0.742611 -0.650786 -0.0361449 0.782453 -0.62166 0.0271975 0.567086 -0.82321 
0.0333516 0.849751 -0.526129 0.267905 0.637254 -0.722589 0.575777 0.541849 -0.612275 
-0.00814142 0.837165 -0.54689 0.0778803 0.937347 -0.339582 -0.590202 0.737919 -0.327318 
0.0494065 0.34787 -0.93624 0.254294 0.467009 -0.846899 0.39466 0.588384 -0.705725 
0.289868 0.783448 -0.549715 -0.436112 0.772545 -0.461498 0.101218 0.405394 -0.908521 
0.0861042 0.213335 -0.973177 0.151272 0.286164 -0.946164 0.246176 0.514522 -0.821379 
-0.640933 0.74572 -0.181949 -0.664776 0.615917 -0.422753 0.333896 0.714361 -0.614981 
-0.585317 0.683052 -0.436857 -0.640304 0.670261 -0.375181 0.299545 0.620813 -0.724475 
-0.532649 0.703424 -0.470616 -0.412938 0.624339 -0.663086 0.1702 0.545659 -0.820541 
0.332862 0.647313 -0.685703 0.29393 0.833851 -0.467223 0.379814 0.861722 -0.336418 
0.0539282 -0.588603 -0.806622 0.372463 -0.443283 -0.815335 0.185208 -0.704428 -0.685185 
0.342353 -0.860993 -0.376145 -0.536095 0.785033 -0.310364 0.335064 0.537169 -0.774068 
0.309855 0.597368 -0.73969 0.106152 -0.385426 -0.916613 0.331955 -0.320456 -0.887195 
0.564193 -0.609164 -0.55732 0.795731 -0.436344 -0.42002 -0.328092 0.789322 -0.518967 
-0.252886 0.746619 -0.615313 0.471087 0.645182 -0.601512 0.47634 0.837862 -0.266622 
-0.0340527 -0.616345 -0.786739 0.513682 -0.212945 -0.831135 -0.285228 0.738761 -0.610637 
-0.319618 0.283514 -0.904137 0.613798 0.396771 -0.682513 0.305496 0.594995 -0.743406 
-0.153294 -0.821921 -0.548586 -0.18048 -0.925828 -0.332068 0.0248407 -0.659387 -0.751394 
0.0835061 -0.937219 -0.338596 -0.134931 -0.887547 -0.440516 -0.166016 -0.78738 -0.593693 
0.895674 -0.233969 -0.37819 -0.427177 0.669198 -0.608024 0.693246 -0.0822315 -0.715994 
0.749237 0.267936 -0.605685 0.75416 0.579254 -0.309367 0.560901 0.623507 -0.544636 
-0.0548366 -0.900952 -0.430439 -0.0525027 -0.979666 -0.193641 0.0484215 -0.869657 -0.491276 
-0.0125759 -0.247981 -0.968683 0.550472 -0.528072 -0.646622 0.702076 -0.431391 -0.56656 
0.818659 -0.356416 -0.450295 0.948252 -0.0213585 -0.316799 0.26627 -0.779207 -0.567395 
0.0685252 -0.957093 -0.281563 -0.0873299 -0.659256 -0.74683 0.831281 -0.205004 -0.516668 
0.649578 -0.547654 -0.527375 0.542899 -0.595264 -0.592386 0.0156998 -0.647293 -0.76208 
0.677067 0.0232335 -0.735555 0.986007 0.135325 -0.0973477 -0.902311 0.315582 -0.293671 
0.0544371 0.0384093 -0.997778 0.0480196 -0.123941 -0.991127 0.0610219 -0.0735503 -0.995423 
0.622755 0.220062 -0.750832 -0.854632 0.412307 -0.315606 0.0390751 -0.0412506 -0.998384 
0.874255 0.337468 -0.348988 0.584396 0.44665 -0.677484 0.331787 0.511175 -0.792854 
-0.572677 0.662552 -0.482769 -0.259928 0.702257 -0.662776 -0.396694 0.892249 -0.215697 
-0.205643 0.69305 -0.690936 -0.064726 0.840416 -0.538062 0.377463 0.731088 -0.568359 
-0.122597 0.89951 -0.419346 -0.200151 0.920834 -0.33467 0.430896 0.897345 -0.0953932 
0.0326342 0.959376 -0.280238 -0.0462678 0.959255 -0.278727 -0.0511217 0.99105 -0.123317 
-0.0847502 0.965237 -0.247253 -0.13691 0.988681 -0.0613658 0.154255 0.739272 -0.655501 
0.309466 0.746082 -0.58957 -0.225619 0.897789 -0.378248 -0.149486 0.97203 -0.181142 
0.0435756 0.975362 -0.216263 -0.0425643 0.944646 -0.325319 0.105844 0.977871 -0.180459 
0.341944 0.84072 -0.419839 -0.100268 0.985669 -0.135659 -0.00506274 0.853639 -0.52084 
-0.0378888 0.906415 -0.420685 0.0735523 0.846243 -0.527696 0.140695 0.928407 -0.343898 
-0.0980553 0.861386 -0.498397 -0.155002 0.909557 -0.385591 -0.00904107 0.964841 -0.262677 
0.0258518 0.953164 -0.301348 0.126391 0.933865 -0.334546 0.139479 0.937266 -0.319495 
-0.316412 -0.880095 -0.354 -0.144939 -0.984954 -0.0941171 0.232547 -0.957335 -0.171554 
0.341854 -0.937176 -0.0695435 -0.621958 -0.767614 -0.154715 0.331983 -0.917432 -0.21933 
-0.766803 -0.630058 -0.122637 0.426108 -0.902174 0.0671881 -0.85806 -0.484557 -0.170112 
-0.913762 -0.405334 -0.0272823 0.401875 -0.915664 -0.00750852 -0.0040841 -0.99493 -0.100484 
-0.954998 -0.279376 -0.0996385 0.421913 -0.888637 -0.17976 0.101722 -0.875873 -0.471698 
0.206998 -0.955131 -0.21184 0.196106 -0.917892 -0.344989 0.275831 -0.89727 0.344709 
-0.0895552 -0.43934 -0.893846 0.446476 -0.893319 -0.051384 0.597182 -0.797932 -0.081721 
-0.956272 -0.278439 0.0895299 0.358781 -0.924173 -0.131071 0.609928 -0.55692 -0.563762 
0.864645 -0.488098 -0.118949 0.330616 -0.86021 -0.388241 -0.0216973 -0.686568 -0.726742 
-0.0728916 -0.641407 -0.763731 0.539044 -0.0148976 -0.842146 0.802523 -0.306468 -0.511893 
-0.0939242 -0.746887 -0.658284 0.0379415 -0.480482 0.876184 0.245142 -0.9611 -0.127252 
0.0408999 -0.985449 -0.164977 -0.0960067 -0.393968 -0.914096 -0.0380507 -0.517509 -0.854832 
0.414365 0.743733 0.524561 0.207957 -0.978134 -0.0028016 -0.132427 -0.979416 0.152338 
-0.127138 -0.761261 -0.63586 0.974898 0.167025 -0.147229 0.989522 0.144363 -0.00212732 
0.956096 0.282838 0.0767033 0.0697466 0.899451 -0.431421 -0.0168049 0.929675 -0.367998 
-0.218849 -0.497468 -0.839423 0.861651 0.377324 -0.339387 -0.694609 0.716881 -0.060009 
0.0103624 0.999629 -0.0252055 -0.0107784 0.997781 -0.0657026 -0.0821545 0.992508 -0.09044 
-0.0882611 0.989294 -0.116217 0.0894348 0.92817 -0.361251 0.0161189 0.999859 -0.00462512 
0.501918 0.863506 -0.0493407 0.70329 0.707356 0.0709358 0.0047475 0.992934 -0.118569 
0.310517 0.933081 0.181491 -0.596612 0.802253 0.0210858 0.351347 0.733194 -0.582221 
-0.721423 0.66639 -0.188344 0.373006 0.878531 -0.298412 0.341604 0.757641 -0.556135 
-0.631945 0.774841 0.0163518 0.0244166 -0.826442 -0.562492 0.36079 -0.913582 0.187612 
0.373523 0.905625 -0.20081 0.32835 0.944382 -0.018151 -0.023315 -0.779305 -0.626211 
0.605074 -0.732401 0.312209 0.765919 -0.536042 0.355003 -0.489205 0.871697 0.0286753 
-0.159769 -0.7633 -0.625976 -0.199655 -0.884349 -0.421978 0.885033 -0.378254 0.271368 
-0.32037 0.897108 -0.304238 -0.26577 0.903414 -0.336465 -0.182446 -0.959463 -0.214812 
0.0209321 -0.982197 -0.186683 -0.125058 -0.613975 -0.779356 0.939075 -0.30558 0.157352 
0.97353 -0.186326 0.132372 -0.313499 0.937455 -0.151315 -0.460486 0.879326 -0.121402 
0.955233 0.286768 -0.0727601 0.833416 0.492273 0.251168 0.668149 0.740254 0.0748413 
-0.105076 -0.985429 0.133748 -0.102896 -0.848555 -0.519006 -0.687886 0.625857 -0.367581 
0.922303 -0.377899 0.0809283 0.986115 -0.0184618 0.165032 0.289077 -0.954719 -0.0703213 
-0.0518437 -0.996695 0.0625354 -0.0471906 -0.97112 -0.233879 0.969022 0.0189057 0.246249 
-0.838935 0.48588 -0.245172 -0.930453 0.317697 -0.182553 0.736588 -0.671065 -0.0843174 
0.509811 -0.800938 -0.313993 -0.949974 0.296843 -0.0971231 0.959777 0.280763 -0.00027715 
0.904712 0.418629 -0.0790361 -0.760845 0.624242 -0.177305 0.527552 0.675727 -0.514862 
0.817141 0.554429 -0.157765 -0.557411 0.825074 -0.0924445 -0.2906 0.935017 -0.203209 
0.680674 0.724715 -0.107103 -0.39332 0.888114 -0.237808 -0.279024 0.956831 -0.0813621 
0.553493 0.809487 -0.195898 -0.14754 0.987944 -0.046896 0.094614 0.954705 -0.282111 
0.218764 0.974934 -0.0405708 0.0394487 0.9991 0.0155949 -0.092225 0.989104 -0.114748 
-0.173619 0.963779 0.202453 0.342007 0.921117 -0.185942 0.371294 0.818854 -0.437742 
0.393353 0.86505 -0.311389 0.506227 0.853024 0.126824 -0.228196 0.941031 -0.249773 
-0.208485 0.970603 0.120263 0.0394267 0.989612 -0.138255 -0.0873663 0.973482 -0.211422 
0.262789 0.963155 0.0572239 -0.0602916 0.972185 0.226321 -0.0255442 0.99596 -0.0860893 
0.13475 0.978512 -0.156068 0.0801276 0.98995 -0.116525 0.265561 0.961871 0.065434 
0.30491 0.945404 -0.115071 -0.103645 0.987097 -0.122052 0.052745 0.998599 -0.00425701 
0.00901366 -0.999851 -0.0146909 0.383954 -0.905888 0.178734 0.367643 -0.91851 0.145527 
-0.904269 -0.42555 0.0347089 0.545092 -0.834513 0.0803959 -0.137069 -0.905415 0.401791 
-0.184678 -0.906998 0.378483 -0.0470228 -0.783586 -0.619502 -0.0359498 -0.828944 0.558175 
-0.0116769 -0.978445 -0.206176 -0.074217 -0.899331 0.430924 -0.107473 -0.971087 0.213164 
0.0165804 -0.96014 0.279028 0.176048 -0.980916 0.0825269 0.0728135 -0.758734 0.647318 
0.193674 -0.728274 0.657349 -0.885869 -0.295834 0.357377 -0.122937 -0.791408 0.598799 
-0.192927 -0.97907 -0.0648114 -0.171679 -0.954758 0.242824 -0.126347 -0.87175 -0.473379 
0.255539 -0.852123 0.456712 0.26481 -0.607088 0.749213 -0.0861606 -0.986899 0.136409 
-0.094636 -0.98765 -0.124867 -0.159115 -0.969396 0.186959 -0.070948 -0.832804 -0.549002 
-0.150106 -0.816322 -0.557751 0.488784 -0.60199 0.631426 -0.112796 -0.990745 -0.0755081 
-0.128969 -0.92502 -0.357357 -0.059603 -0.791315 -0.608496 -0.0273928 -0.925956 -0.376637 
0.643953 -0.629461 0.43486 -0.919058 -0.141033 0.368025 -0.940631 -0.0263937 0.338403 
0.279716 -0.952674 0.119043 -0.138427 -0.990291 -0.012696 -0.13444 -0.867972 0.478069 
-0.187169 -0.926427 0.32665 -0.0750345 -0.9212 0.381785 -0.0705316 -0.909471 0.40974 
-0.076728 -0.885428 0.4584 -0.0861797 -0.995995 -0.0238006 -0.0604131 -0.961236 -0.269026 
-0.112607 -0.808425 -0.577728 -0.0869749 -0.760755 -0.643186 -0.0668636 -0.516947 -0.853402 
0.148125 -0.889169 -0.43294 0.842316 0.0244484 -0.538429 0.152805 -0.951658 0.266454 
0.192997 -0.0822055 0.97775 -0.966032 -0.121045 0.22832 0.161098 -0.986742 -0.0196949 
0.214103 -0.913612 0.345649 -0.131818 -0.988227 0.0776662 -0.0896267 -0.722085 0.685975 
-0.187245 -0.944142 -0.271172 -0.0702498 -0.900788 -0.42854 -0.069793 -0.803097 -0.591746 
-0.0725773 -0.777926 -0.62415 0.119725 -0.635135 -0.763066 0.600111 0.289774 0.745586 
0.829201 0.22508 0.511629 0.137608 -0.988524 0.0623286 -0.119128 -0.757958 0.641333 
0.81545 0.071468 0.574398 -0.998324 -0.0102807 0.056944 0.155607 -0.969471 0.189506 
0.0444503 -0.880993 0.471036 -0.0937157 -0.962795 0.253462 -0.99213 0.0684436 0.104852 
0.799616 0.175259 0.574367 -0.858277 0.507254 -0.0778006 0.12936 0.981735 0.139504 
-0.000498146 0.998866 -0.0476102 0.786302 0.39734 0.473128 0.0409571 0.807438 0.588529 
-0.0545712 0.849507 0.524747 -0.0398215 0.987058 0.155344 -0.0278407 0.897398 0.440342 
-0.0360805 0.93345 0.356887 0.01422 0.924188 0.381672 -0.00891588 0.974605 0.223755 
0.504338 0.656292 0.561181 -0.519067 0.854084 -0.0333217 -0.4449 0.895406 0.017672 
-0.0243417 0.803759 0.594457 0.242158 0.751526 0.613652 0.368213 0.796739 -0.479193 
0.374255 0.926548 0.0379738 0.31749 0.859758 0.40002 -0.604968 0.785503 0.13038 
-0.725927 0.683827 -0.0735527 0.439137 0.898222 -0.0188974 0.3771 0.842526 -0.384636 
0.380345 0.902131 0.203709 0.391606 0.805916 0.444009 -0.674108 0.721086 0.160042 
0.34826 0.854437 -0.385554 0.4376 0.825925 -0.355464 0.448231 0.892058 -0.0576293 
0.399833 0.890574 0.216819 0.449413 0.890067 -0.0762179 0.395921 0.914378 0.084617 
0.352543 0.935793 0.00209834 0.324464 0.834138 0.446023 -0.221544 -0.972259 -0.0750405 
-0.162803 -0.980569 0.10945 -0.0865996 -0.981611 -0.170119 -0.00618845 -0.889156 0.457562 
0.0828086 -0.984926 0.151865 0.329669 -0.669368 0.665782 -0.627265 0.759333 0.173068 
-0.542532 0.813016 0.211339 0.357161 0.860255 0.363864 -0.142382 -0.925754 0.350294 