# vtk DataFile Version 4.2
vtk output
ASCII
DATASET POLYDATA
POINTS 724 float
340.381 138.006 212.952 340.268 138.022 213.078 340.473 137.968 212.946 
340.416 137.941 213.017 340.483 138.074 212.932 340.598 137.991 212.976 
340.781 137.931 213.145 343.979 138.368 213.318 343.896 138.184 213.347 
343.801 138.324 213.211 344.057 138.224 213.46 337.645 139.059 213.769 
337.359 139.298 213.709 337.997 139.084 213.556 340.431 138.312 212.964 
340.755 138.149 212.994 342.675 138.621 212.875 342.776 138.349 213.008 
343.4 138.523 213.024 337.317 139.52 213.589 337.057 139.753 213.69 
342.548 138.849 212.838 342.636 139.065 212.874 343.843 138.922 213.238 
343.376 139.176 213.092 320.403 152.194 213.69 320.315 152.205 213.749 
320.57 152.043 213.767 320.256 152.35 213.688 320.146 152.506 213.746 
320.573 152.188 213.698 320.213 152.547 213.675 320.091 152.756 213.792 
320.324 152.578 213.653 320.523 152.444 213.673 320.204 152.777 213.715 
318.809 155.557 213.892 318.733 155.641 213.935 318.363 156.214 213.951 
318.387 156.156 214.016 318.335 156.323 214.017 318.419 156.156 213.943 
318.407 156.231 213.951 339.416 138.074 213.826 338.871 138.503 213.674 
341.361 138.086 213.185 342.71 137.76 213.563 343.425 138.11 213.256 
343.983 138.089 213.538 340.079 138.753 213.032 340.914 138.596 212.963 
341.839 138.582 212.955 336.826 139.479 214.156 339.017 139.493 213.131 
342.165 139.046 212.875 344.45 138.615 214.085 344.073 139.31 213.66 
344.397 139.005 214.02 343.584 140.028 213.635 332.838 142.793 214.781 
332.772 142.831 214.833 332.839 142.872 214.777 332.868 142.742 214.84 
332.934 142.783 214.784 322.873 149.817 214.348 321.832 150.837 214.149 
320.696 151.865 213.989 320.815 151.949 213.827 320.164 152.335 214.08 
320.064 152.587 213.915 319.953 152.929 214.001 320.075 153.251 213.89 
319.039 155.134 214.029 318.721 155.492 214.11 318.428 155.945 214.237 
318.609 156.032 213.971 319.025 155.75 213.918 318.416 156.441 214.012 
318.264 156.624 214.194 317.298 159.796 214.504 317.265 159.832 214.556 
318.416 157.274 214.191 317.383 159.781 214.507 317.425 160.011 214.55 
317.269 160.39 214.818 317.458 160.397 214.678 317.328 160.454 214.743 
317.599 161.14 214.946 317.566 161.054 214.938 317.596 161.153 215.025 
317.658 161.177 214.996 342.458 137.223 214.31 344.251 138.059 214.144 
344.497 138.338 214.405 336.084 140.755 214.141 335.642 141.328 214.225 
335.037 141.613 214.506 332.69 142.764 215.044 332.702 143.051 214.853 
333.18 142.607 214.886 341.472 141.15 213.429 333.019 142.964 214.762 
341.159 142.257 213.976 343.146 141.493 214.348 328.489 145.751 214.992 
328.442 145.386 215.283 329.045 145.247 215.189 327.489 145.997 215.22 
328.961 146.313 214.657 327.105 147.65 214.499 326.559 148.924 214.329 
321.987 150.434 214.52 322.361 150.613 214.218 325.696 149.695 214.268 
320.919 151.453 214.503 321.455 151.519 214.055 319.686 153.377 214.323 
320.669 153.179 213.811 319.546 154.335 214.092 318.007 157.661 214.63 
317.474 159.51 214.562 317.232 160.187 214.953 317.645 160.054 214.593 
317.928 160.468 214.767 317.379 160.625 214.893 317.567 160.819 214.857 
317.511 160.965 215.062 317.646 161.181 215.225 317.718 161.236 215.132 
341.597 136.914 215.212 343.281 137.312 214.398 337.316 138.531 215.36 
336.284 139.323 215.314 344.823 139.518 215.08 334.037 141.975 214.919 
334.079 141.319 215.387 332.133 143.352 215.097 333.701 142.943 214.665 
329.439 144.33 215.84 330.582 144.921 214.969 335.831 143.654 214.331 
332.809 145.131 214.673 343.444 142.388 215.605 330.041 146.211 214.639 
330.761 146.823 214.635 328.212 149.089 214.479 327.416 149.678 214.421 
319.025 154.139 215.179 319.041 157.473 214.197 317.522 158.883 215.156 
317.879 158.825 214.655 318.422 159.237 214.628 318.276 160.667 214.993 
318.189 161.138 215.271 317.782 161.291 215.304 343.84 137.406 214.749 
344.028 137.366 215.188 339.665 137.34 215.574 345.2 138.79 215.898 
334.022 141.012 215.826 331.304 143.008 216.007 332.676 141.976 216.057 
344.756 140.665 215.93 329.26 144.145 216.235 327.887 145.19 215.843 
326.192 146.158 216.022 340.296 144.159 215.098 333.759 146.204 214.881 
334.561 146.377 215.051 335.493 146.42 215.241 338.852 145.247 215.394 
339.211 145.495 215.735 334.006 147.486 215.345 328.64 149.454 214.639 
328.142 150.054 214.654 319.959 152.314 215.768 321.55 158.213 215.288 
319.97 159.399 215.085 317.382 160.595 215.645 317.422 160.756 215.492 
319.747 160.542 215.502 318.195 161.418 215.758 318.576 161.703 216.444 
318.759 161.73 216.089 319.17 162.097 216.494 319.421 161.851 216.138 
319.327 161.989 216.255 319.318 162.109 216.442 341.933 136.701 216.188 
343.546 136.95 215.888 344.563 137.522 216.18 345.007 137.99 216.333 
345.222 138.327 216.317 345.271 138.58 216.193 345.269 139.615 216.384 
331.694 142.199 217.047 329.129 143.956 216.734 329.937 143.258 217.29 
336.59 146.507 215.548 340.209 145.502 216.34 335.699 148 216.161 
329.004 151.281 215.325 318.579 154.849 216.069 317.899 156.799 215.956 
317.824 160.889 216.501 318.057 161.258 216.472 319.325 162.154 216.616 
319.436 162.148 216.831 319.66 162.041 216.516 344.268 137.175 216.385 
338.764 137.531 217.069 338.401 146.18 215.99 340.784 145.855 217.415 
331.248 153.623 217.923 317.552 159.035 216.803 322.3 158.824 216.084 
325.653 157.795 217.979 321.27 159.959 216.119 320.322 161.152 216.221 
320.783 161.001 216.525 318.516 161.397 217.358 321.415 161.11 217.432 
320.244 161.693 216.71 320.221 161.826 216.943 319.668 162.112 216.895 
343.61 136.694 217.773 344.59 137.298 217.475 345.51 139.08 217.802 
330.984 142.452 218.056 327.821 144.48 218.384 342.267 144.856 218.253 
340.501 146.528 218.394 337.641 148.284 217.746 336.569 149.166 217.862 
332.592 151.829 217.245 334.534 151.512 218.948 318.255 161.062 217.393 
322.942 160.181 218.434 318.859 161.424 217.974 321.689 160.947 217.888 
319.184 161.844 217.633 319.412 161.831 217.846 320.266 161.822 217.238 
320.515 161.629 217.858 339.615 137.417 218.97 345.414 139.569 218.385 
345.294 139.83 218.639 343.066 144.06 218.47 318.035 157.167 217.923 
329.728 155.443 219.376 318.026 158.526 218.234 326.083 158.11 219.175 
318.182 159.76 218.27 319.056 161.381 218.354 343.473 136.746 218.748 
344.814 137.758 218.973 339.657 137.573 219.623 345.192 138.121 218.478 
345.277 138.372 218.665 345.377 139.06 218.803 345.284 138.832 219.026 
343.582 143.321 219.688 322.339 149.806 219.811 337.72 149.227 219.954 
333.843 152.4 219.857 318.508 156.513 218.985 325.756 158.437 219.708 
319.162 160.952 218.929 323.031 160.128 219.583 319.479 161.327 218.782 
321.535 160.969 218.886 321.154 161.093 218.984 322.375 160.353 219.807 
319.643 161.456 218.648 320.617 161.312 218.773 343.065 136.825 219.342 
343.992 137.165 219.415 341.489 137.212 220.055 339.67 137.744 220.09 
344.31 141.359 220.317 342.309 144.658 220.537 337.224 149.591 220.941 
334.8 151.582 220.515 332.588 153.407 220.63 327.296 157.206 220.731 
319.106 160.156 219.501 323.674 159.69 220.139 323.315 159.731 220.562 
319.74 160.524 219.849 320.09 160.504 220.07 320.461 160.644 219.953 
343.63 137.057 219.544 344.301 137.656 219.828 339.967 137.81 220.422 
337.994 138.89 220.986 332.605 153.038 221.561 329.505 155.567 221.196 
329.624 155.387 221.468 326.316 157.561 221.444 324.617 158.846 221.079 
320.206 160.237 220.411 322.826 159.684 220.973 343.064 137.53 220.578 
339.059 138.865 221.545 340.082 138.711 221.639 343.887 141.284 221.151 
343.52 141.384 221.62 332.658 142.79 222.196 330.767 143.906 222.131 
341.479 144.792 221.79 325.872 147.149 221.57 337.951 148.236 222.186 
321.941 151.883 221.915 333.021 152.107 222.335 334.426 150.925 222.332 
332.491 152.316 222.573 320.023 157.567 221.62 325.014 158.041 221.932 
320.131 158.794 221.306 320.606 159.192 221.427 321.14 159.447 221.417 
321.634 159.385 221.523 342.667 138.32 221.483 344.017 139.325 221.22 
343.701 140.385 221.618 343.403 140.622 221.872 331.848 143.671 222.609 
330.569 144.618 222.715 341.683 143.582 222.386 329.47 146.283 223.337 
338.368 147.344 222.654 325.004 149.873 223.148 336.968 148.538 222.641 
331.793 151.646 223.481 322.657 152.863 223.347 330.509 153.047 223.379 
320.752 155.304 222.271 324.319 157.407 223.007 321.501 157.425 222.822 
322.025 158.865 222.01 343.808 138.568 221.184 342.287 139.29 222.126 
343.301 139.044 221.694 342.9 140.029 222.149 338.436 141.546 223.382 
340.814 141.404 223.063 342.855 140.707 222.207 330.469 146.342 223.702 
328.835 147.749 223.834 335.591 147.495 223.764 325.994 149.956 223.816 
335.388 148.958 223.229 321.741 155.733 223.252 322.117 157.255 223.27 
322.253 157.452 223.202 322.63 157.48 223.223 339.854 141.77 223.413 
338.587 142.565 223.706 335.339 143.917 223.833 336.564 144.028 223.941 
337.969 143.596 223.834 334.873 145.122 224.064 335.984 146.112 223.967 
331.687 148.094 224.271 328.063 149.711 224.368 328.629 150.419 224.616 
328.878 150.306 224.612 329.325 150.319 224.525 328.87 150.516 224.636 
328.619 150.938 224.589 327.847 151.611 224.631 324.257 152.372 224.113 
322.87 154.352 223.91 322.71 155.497 223.878 325.635 155.31 224.055 
323.158 155.632 224.062 322.646 156.687 223.619 323.19 156.397 223.828 
323.644 156.028 224.03 328.78 150.451 224.656 326.185 151.71 224.504 
326.538 152.17 224.623 324.599 153.441 224.443 325.455 153.521 224.557 
323.654 154.815 224.273 323.518 155.709 224.137 331.01 148.013 232.547 
330.576 148.571 232.491 331.531 146.783 233.01 329.522 147.933 232.882 
331.735 147.148 232.833 332.122 147.289 232.857 332.181 147.692 232.771 
332.48 148.069 232.873 326.053 150.625 233.237 330.36 149.51 232.615 
326.724 151.392 232.919 327.792 151.596 232.843 328.453 151.337 232.83 
323.399 153.007 233.677 323.413 154.13 233.504 325.267 153.589 233.075 
325.92 153.383 233.028 328.843 152.73 233.237 323.184 154.875 233.555 
[...]
POINT_DATA 724
SCALARS scalars float
LOOKUP_TABLE default
1 1 1 1 1 1 1 1 1 
1 1 1 1 1 1 1 1 1 
1 1 1 1 1 1 1 1 1 
1 1 1 1 1 1 1 1 1 
1 1 1 1 1 1 1 1 1 
1 1 1 1 1 1 1 1 1 
1 1 1 1 1 1 1 1 1 
1 1 1 1 1 1 1 1 1 
1 1 1 1 1 1 1 1 1 
1 1 1 1 1 1 1 1 1 
1 1 1 1 1 1 1 1 1 
1 1 1 1 1 1 1 1 1 
1 1 1 1 1 1 1 1 1 
1 1 1 1 1 1 1 1 1 
1 1 1 1 1 1 1 1 1 
1 1 1 1 1 1 1 1 1 
1 1 1 1 1 1 1 1 1 
1 1 1 1 1 1 1 1 1 
1 1 1 1 1 1 1 1 1 
1 1 1 1 1 1 1 1 1 
1 1 1 1 1 1 1 1 1 
1 1 1 1 1 1 1 1 1 
1 1 1 1 1 1 1 1 1 
1 1 1 1 1 1 1 1 1 
1 1 1 1 1 1 1 1 1 
1 1 1 1 1 1 1 1 1 
1 1 1 1 1 1 1 1 1 
1 1 1 1 1 1 1 1 1 
1 1 1 1 1 1 1 1 1 
1 1 1 1 1 1 1 1 1 
1 1 1 1 1 1 1 1 1 
1 1 1 1 1 1 1 1 1 
1 1 1 1 1 1 1 1 1 
1 1 1 1 1 1 1 1 1 
1 1 1 1 1 1 1 1 1 
1 1 1 1 1 1 1 1 1 
1 1 1 1 1 1 1 1 1 
1 1 1 1 1 1 1 1 1 
1 1 1 1 1 1 1 1 1 
1 1 1 1 1 1 1 1 1 
1 1 1 1 1 1 1 1 1 
1 1 1 1 1 1 1 1 1 
1 1 1 1 1 1 1 1 1 
1 1 1 1 1 1 1 1 1 
1 1 1 1 1 1 1 1 1 
1 1 1 1 1 1 1 1 1 
1 1 1 1 1 1 1 1 1 
1 1 1 1 1 1 1 1 1 
1 1 1 1 1 1 1 1 1 
1 1 1 1 1 1 1 1 1 
1 1 1 1 1 1 1 1 1 
1 1 1 1 1 1 1 1 1 
1 1 1 1 1 1 1 1 1 
1 1 1 1 1 1 1 1 1 
1 1 1 1 1 1 1 1 1 
1 1 1 1 1 1 1 1 1 
1 1 1 1 1 1 1 1 1 
1 1 1 1 1 1 1 1 1 
1 1 1 1 1 1 1 1 1 
1 1 1 1 1 1 1 1 1 
1 1 1 1 1 1 1 1 1 
1 1 1 1 1 1 1 1 1 
1 1 1 1 1 1 1 1 1 
1 1 1 1 1 1 1 1 1 
1 1 1 1 1 1 1 1 1 
1 1 1 1 1 1 1 1 1 
1 1 1 1 1 1 1 1 1 
1 1 1 1 1 1 1 1 1 
1 1 1 1 1 1 1 1 1 
1 1 1 1 1 1 1 1 1 
1 1 1 1 1 1 1 1 1 
1 1 1 1 1 1 1 1 1 
1 1 1 1 1 1 1 1 1 
1 1 1 1 1 1 1 1 1 
1 1 1 1 1 1 1 1 1 
1 1 1 1 1 1 1 1 1 
1 1 1 1 1 1 1 1 1 
1 1 1 1 1 1 1 1 1 
1 1 1 1 1 1 1 1 1 
1 1 1 1 1 1 1 1 1 
1 1 1 1 
NORMALS Normals float
-0.457772 -0.313329 -0.832027 -0.54422 -0.638814 -0.543821 0.036791 -0.625845 -0.779079 
-0.299639 -0.929512 -0.214996 0.0692854 -0.0351645 -0.996977 0.349257 -0.396437 -0.849033 
0.0639957 -0.898957 -0.433336 0.721166 -0.111089 -0.683797 0.372954 -0.587696 -0.717996 
0.397071 -0.284476 -0.872587 0.749969 -0.41563 -0.514585 -0.439965 -0.542694 -0.715482 
-0.501494 -0.592455 -0.630477 -0.397163 -0.539428 -0.742482 -0.208375 0.0438951 -0.977063 
0.259261 -0.21166 -0.942329 0.045898 -0.169486 -0.984463 -0.150988 -0.519232 -0.84119 
0.192011 -0.337437 -0.921557 -0.406333 -0.292625 -0.8656 -0.595637 -0.215186 -0.773894 
-0.219745 -0.213947 -0.951808 0.158839 0.332001 -0.929809 0.586861 0.175029 -0.790544 
0.223947 0.479139 -0.84869 -0.166484 -0.317848 -0.933411 -0.625214 -0.682828 -0.377959 
-0.216848 -0.688558 -0.692 -0.713675 -0.418695 -0.561572 -0.824378 -0.232697 -0.515997 
0.155819 -0.24688 -0.956436 -0.424229 -0.0275942 -0.905134 -0.767671 0.00178375 -0.640842 
0.0124056 0.113948 -0.993409 0.270115 0.0938804 -0.95824 -0.184744 0.251087 -0.950171 
-0.43031 -0.263718 -0.8633 -0.788804 -0.291168 -0.541303 -0.664698 -0.132649 -0.735242 
-0.772027 -0.58652 -0.244886 -0.847399 0.0511633 -0.528485 -0.345643 -0.416116 -0.841058 
-0.0245504 0.255202 -0.966576 -0.368343 -0.879253 -0.302057 -0.450886 -0.682992 -0.574651 
0.134366 -0.532684 -0.83558 0.0516848 -0.704468 -0.707852 0.153929 -0.708231 -0.688996 
0.469139 -0.753171 -0.461131 -0.185353 0.125033 -0.974685 0.0525754 -0.0333098 -0.998061 
-0.0124262 -0.268041 -0.963327 -0.720889 -0.511631 -0.467497 -0.246705 -0.0972537 -0.964198 
-0.122511 0.316438 -0.940669 0.916877 -0.120247 -0.380627 0.760415 0.374384 -0.530665 
0.870903 0.226029 -0.436394 0.625368 0.465526 -0.62626 -0.386251 -0.465665 -0.79622 
-0.715071 -0.383571 -0.58442 -0.302907 -0.0159158 -0.952887 -0.386959 -0.784805 -0.484091 
-0.00399957 -0.393231 -0.919431 -0.242005 -0.375692 -0.894589 -0.39362 -0.523982 -0.755319 
-0.506236 -0.791308 -0.342866 0.0643393 -0.447336 -0.892048 -0.85081 -0.510966 -0.122619 
-0.91241 -0.338796 -0.229621 -0.90266 -0.151694 -0.402734 -0.551537 0.0860511 -0.8297 
-0.477565 -0.442087 -0.75927 -0.817213 -0.426565 -0.387564 -0.877503 -0.39529 -0.271541 
-0.332718 -0.170988 -0.927395 -0.00585656 0.00211011 -0.999981 -0.232645 0.244115 -0.941427 
-0.851025 -0.00479262 -0.525103 -0.49609 -0.0707726 -0.865382 -0.950363 -0.00734869 -0.311058 
-0.476478 0.150807 -0.866156 0.238109 0.00498657 -0.971226 0.0767638 0.208036 -0.975104 
-0.941351 0.29556 -0.162798 -0.105052 0.421181 -0.900872 -0.556032 0.42115 -0.716562 
-0.119805 0.568663 -0.813799 -0.880678 0.305063 -0.362412 -0.738806 0.670631 -0.0664795 
0.0575895 0.869373 -0.49079 0.0158922 -0.882077 -0.470838 0.728037 -0.592754 -0.344391 
0.913579 -0.283068 -0.29197 -0.461818 -0.150875 -0.874049 -0.44671 -0.203178 -0.871303 
-0.414181 -0.381225 -0.826512 -0.575767 -0.632648 -0.517928 -0.529785 -0.0177511 -0.847946 
-0.275772 -0.603505 -0.748152 0.0642714 0.368809 -0.92728 -0.0643836 0.0931356 -0.99357 
0.191426 0.570982 -0.798333 0.477632 0.531247 -0.699746 -0.263807 -0.494613 -0.828108 
-0.35841 -0.634331 -0.684957 -0.385262 -0.657706 -0.647299 -0.375819 -0.589212 -0.715254 
-0.155152 -0.348502 -0.924378 0.0421172 -0.235101 -0.971058 0.112575 -0.0464116 -0.992559 
-0.59423 -0.672008 -0.441923 -0.135385 -0.339408 -0.930845 0.106759 0.0789155 -0.991148 
-0.603803 -0.709296 -0.36376 -0.355367 -0.585891 -0.728317 -0.868273 -0.292526 -0.400663 
0.0277268 0.0860439 -0.995905 -0.572344 -0.243704 -0.782963 -0.619685 0.10087 -0.778342 
-0.0856427 -0.245773 -0.965537 -0.994853 0.0618226 0.0802811 0.224013 0.113452 -0.96796 
0.240249 0.266541 -0.9334 -0.802092 0.507771 -0.31435 -0.475962 0.369555 -0.798053 
-0.922805 0.359536 -0.138438 -0.732839 0.634154 0.24657 -0.270284 0.936178 -0.224759 
-0.145164 -0.938711 -0.312647 0.27976 -0.879134 -0.385821 -0.485631 -0.830289 -0.273463 
-0.728557 -0.586448 -0.353954 0.909579 0.148731 -0.388002 -0.525574 -0.448074 -0.723189 
-0.60047 -0.563665 -0.567202 -0.328676 -0.0902652 -0.940119 -0.226146 -0.0719332 -0.971434 
-0.388975 -0.692536 -0.607529 -0.194305 -0.406321 -0.892832 -0.0776233 0.197423 -0.97724 
-0.0813699 0.0425398 -0.995776 0.665788 0.61819 -0.417814 -0.00787616 -0.234494 -0.972086 
0.115095 0.0479022 -0.992199 0.299997 -0.0912401 -0.949567 0.236337 -0.00989852 -0.971621 
-0.842774 -0.440372 -0.309522 0.15934 0.289452 -0.943837 -0.902981 -0.249356 -0.349924 
-0.271277 -0.0757683 -0.959514 0.247546 0.0860543 -0.965047 0.389252 0.329329 -0.860247 
0.225428 0.670735 -0.706609 -0.488028 0.870925 0.0575996 0.628816 -0.711986 -0.312515 
0.458604 -0.837633 -0.296738 -0.343025 -0.899484 -0.27067 0.91006 -0.112774 -0.398838 
-0.618755 -0.717757 -0.319322 -0.50481 -0.685758 -0.524311 -0.462172 -0.809018 -0.363162 
0.869641 0.421481 -0.257058 -0.514654 -0.711902 -0.477836 -0.435939 -0.730572 -0.525568 
-0.584324 -0.747128 -0.316803 0.37136 0.604093 -0.705098 0.0510513 0.256644 -0.965157 
0.183339 0.455385 -0.871212 0.169102 0.440802 -0.881532 0.241807 0.544232 -0.803331 
0.382096 0.716716 -0.58337 0.180859 0.422676 -0.888051 0.270527 0.100743 -0.957427 
0.228446 0.16955 -0.958679 -0.778602 -0.626755 -0.0309314 0.378751 0.45246 -0.807358 
0.360965 0.166491 -0.917597 -0.897855 0.390483 0.203418 -0.884902 0.441776 0.147591 
0.393456 0.45137 -0.80091 -0.419887 0.901147 -0.107837 -0.601944 0.769778 0.212379 
-0.264268 0.845548 -0.463909 -0.398081 0.899859 -0.178287 0.307433 0.675624 -0.670088 
-0.00150458 0.796396 -0.604774 0.133723 0.892821 -0.430104 -0.0290604 -0.98958 -0.141018 
0.34591 -0.909493 -0.230585 0.668844 -0.717355 -0.195066 0.783843 -0.555667 -0.277173 
0.868172 -0.411898 -0.276799 0.968893 -0.172059 -0.17788 0.959035 0.187003 -0.212794 
-0.460335 -0.849863 -0.256563 -0.542444 -0.750542 -0.377415 -0.463957 -0.823535 -0.326395 
0.260864 0.569219 -0.779705 0.449954 0.636948 -0.625971 0.295101 0.58812 -0.753015 
0.259122 0.397973 -0.880042 -0.921597 -0.387845 -0.01534 -0.974522 -0.223238 0.0217109 
-0.814559 0.433555 0.385388 -0.665538 0.605838 0.435912 -0.144471 0.989416 -0.0135685 
-0.137089 0.98282 0.123576 0.362253 0.870598 -0.332913 0.659731 -0.729136 -0.18198 
-0.446988 -0.893656 -0.0397618 0.385804 0.604064 -0.697325 0.522206 0.715446 -0.464154 
0.579054 0.654787 -0.485748 -0.974059 -0.0122596 0.225963 0.462881 0.613231 -0.640069 
0.454241 0.640642 -0.619066 0.605632 0.440346 -0.662801 0.462513 0.545987 -0.698556 
0.615548 0.547619 -0.566758 -0.630324 0.706723 0.321302 0.613482 0.772535 -0.163799 
0.529432 0.676038 -0.512518 0.600729 0.765948 -0.229016 0.346679 0.937424 -0.0324037 
0.125717 -0.992034 0.0079185 0.601717 -0.798696 0.00475806 0.999817 0.013379 -0.013683 
-0.463265 -0.885301 0.0403504 -0.616157 -0.786369 0.0444355 0.670104 0.697386 -0.254192 
0.583056 0.772932 -0.250244 0.541565 0.644789 -0.539401 0.49153 0.718346 -0.492318 
0.544537 0.619031 -0.565933 0.580444 0.741848 -0.335779 -0.755224 0.540863 0.370276 
0.560894 0.809456 -0.173718 -0.647989 0.633248 0.42321 0.646634 0.733529 -0.209283 
-0.47304 0.82309 0.314253 -0.116845 0.916236 0.383223 0.338832 0.926284 0.164898 
0.468954 0.874368 0.124751 -0.370093 -0.912471 0.174438 0.986672 0.152722 0.0561653 
0.913475 0.278339 0.296801 0.780655 0.621032 -0.0699766 -0.961061 -0.202058 0.188506 
0.652078 0.744835 -0.141472 -0.937289 -0.034162 0.346876 0.555076 0.81605 -0.161099 
-0.825362 0.273958 0.493684 -0.563388 0.677351 0.473063 0.447868 -0.886957 0.112787 
0.751858 -0.610759 0.248361 -0.391836 -0.876414 0.279934 0.84682 -0.531863 0.00411349 
0.945485 -0.266607 0.187029 0.96738 0.0137311 0.252956 0.875157 -0.149917 0.460027 
0.848086 0.495669 0.187251 -0.740045 -0.61087 0.281374 0.635487 0.737888 -0.227327 
0.600939 0.79863 -0.0325812 -0.88802 -0.20904 0.409541 0.554564 0.832119 -0.00602366 
-0.622641 0.521761 0.583167 0.413618 0.894056 0.171999 -0.300665 0.71641 0.629568 
0.367567 0.897697 0.242969 0.298951 0.856606 0.420541 0.359709 0.904149 0.230487 
-0.14509 0.844205 0.516011 0.145395 0.911478 0.384797 0.0485522 -0.968373 0.244738 
0.475522 -0.832302 0.284871 -0.142641 -0.891914 0.429119 -0.449594 -0.786083 0.424192 
0.907208 0.268607 0.323764 0.74057 0.637672 0.211966 0.670169 0.687664 0.279271 
0.63213 0.772218 0.0639558 0.603409 0.789615 0.11138 0.526974 0.841702 0.117627 
-0.653163 0.427294 0.625138 0.339347 0.938741 0.0600709 0.334355 0.84863 0.409918 
-0.364053 0.710243 0.602512 -0.392034 0.681139 0.618352 0.0311003 0.83801 0.544768 
0.340668 -0.827546 0.446221 0.650458 -0.555876 0.517596 -0.165786 -0.863141 0.476972 
-0.446587 -0.785004 0.429334 0.461238 0.739897 0.489706 0.615168 0.775573 0.141615 
0.599576 0.734023 0.318935 0.465089 0.746992 0.475074 0.495068 0.78397 0.374565 
-0.285811 0.66798 0.687106 0.151523 0.867928 0.473014 0.13895 -0.773899 0.617878 
-0.218612 -0.640344 0.736321 -0.170843 -0.679935 0.713093 0.797199 0.284397 0.532533 
0.673471 0.230323 0.702416 -0.358551 -0.73174 0.579653 -0.302267 -0.757986 0.578007 
0.676624 0.537885 0.502851 -0.566118 -0.662629 0.490339 0.684838 0.614049 0.392352 
-0.759913 -0.389706 0.520251 0.607639 0.646017 0.461993 0.427947 0.607508 0.669175 
0.34439 0.681662 0.645548 -0.702359 0.13502 0.6989 0.359567 0.791917 0.493538 
-0.688633 0.311466 0.654808 -0.352988 0.45687 0.816498 -0.100094 0.691176 0.715721 
-0.0530861 0.664309 0.745571 0.185862 -0.557064 0.809404 0.804641 -0.0827946 0.587961 
0.693546 -0.0407035 0.719261 0.650858 0.0388596 0.758204 -0.35 -0.685619 0.6383 
-0.294023 -0.64973 0.701001 0.487769 0.284483 0.825319 -0.342039 -0.400412 0.850106 
0.643196 0.49285 0.586002 -0.527968 -0.483058 0.698502 0.484883 0.647637 0.587754 
0.320954 0.433457 0.842083 -0.540301 -0.283563 0.792254 0.435335 0.638792 0.634373 
-0.715439 -0.161694 0.679707 0.229739 0.619303 0.750789 -0.540197 0.233344 0.80854 
-0.0184888 0.634367 0.772811 0.526716 -0.476401 0.703997 0.0936531 -0.410331 0.907115 
0.455477 -0.277899 0.845761 0.348321 -0.17142 0.921568 -0.140587 -0.465303 0.873915 
0.266462 -0.196855 0.943529 0.428212 -0.0155951 0.903544 -0.125975 -0.385623 0.914016 
-0.240507 -0.380383 0.893009 0.231237 0.273124 0.933774 -0.282043 -0.380954 0.880526 
0.370776 0.394183 0.840919 -0.591285 0.000258833 0.806463 -0.336062 0.388576 0.857946 
-0.201645 0.528218 0.824818 0.029503 0.586064 0.809727 0.218461 -0.152217 0.963901 
0.126811 -0.0736276 0.989191 -0.068054 -0.258519 0.963606 0.119514 0.0971301 0.98807 
0.0697514 -0.0150645 0.997451 0.00152261 -0.0722726 0.997384 0.275028 0.119147 0.954025 
-0.0163234 -0.0580849 0.998178 -0.119221 -0.300635 0.946259 -0.133545 -0.143271 0.980632 
0.0807994 -0.290774 0.953374 0.273036 0.0488264 0.960764 0.236757 0.0710437 0.968968 
0.229471 0.325666 0.917216 0.110381 0.170655 0.979129 -0.330168 -0.280921 0.901151 
-0.591089 -0.161035 0.790368 -0.469341 0.0239149 0.882693 0.238755 0.425611 0.872841 
-0.302702 0.222321 0.926793 -0.27741 0.293776 0.914735 -0.0817173 0.450212 0.889175 
0.0339127 0.367891 0.92925 -0.0109789 -0.0694191 0.997527 -0.226169 -0.268033 0.936486 
0.10003 0.0420528 0.994095 -0.290228 -0.140593 0.946573 -0.0666515 0.00737759 0.997749 
-0.164722 0.030774 0.98586 -0.0622745 0.244702 0.967596 0.0303538 -0.194254 -0.980482 
0.225449 0.133761 -0.965029 -0.124895 -0.504385 -0.854399 -0.270044 -0.286231 -0.919319 
0.0944428 -0.382911 -0.918945 0.245965 -0.287757 -0.925579 0.317662 -0.131129 -0.939093 
0.315931 0.0310651 -0.948273 -0.301939 -0.253924 -0.918888 0.118226 0.11494 -0.986312 
-0.140261 -0.155161 -0.977881 0.00700815 -0.0192432 -0.99979 0.10896 0.0889299 -0.99006 
-0.445191 -0.160979 -0.880847 -0.305669 -0.034702 -0.951505 -0.0691996 0.191823 -0.978987 
-0.0387808 0.200885 -0.978847 0.240758 0.428574 -0.870838 -0.284068 0.143615 -0.947987 
-0.0782415 0.113864 -0.990411 -0.151623 0.22911 -0.961519 -0.478501 0.00113405 -0.878086 
0.0572998 0.394722 -0.917012 -0.244358 0.317336 -0.91629 0.111193 0.449964 -0.886098 
-0.149661 -0.489495 -0.859067 0.0757204 -0.274303 -0.958658 0.400804 -0.183386 -0.897622 
0.628488 -0.260299 -0.732971 -0.0978129 -0.490086 -0.866169 -0.0189512 -0.203472 -0.978897 
0.188438 -0.0810916 -0.978731 0.514776 0.11904 -0.84902 -0.025121 -0.381671 -0.923957 
-0.325868 -0.5939 -0.73559 0.0449228 -0.323808 -0.945056 0.286512 0.111043 -0.95162 
0.511304 0.228618 -0.828434 -0.104817 -0.384119 -0.917315 0.11693 0.0758112 -0.990242 
-0.0231059 -0.258707 -0.96568 0.158927 -0.162847 -0.973767 0.294902 -0.01546 -0.955402 
-0.418923 -0.525712 -0.740358 0.141573 -0.123756 -0.982162 0.415811 0.151613 -0.896725 
0.390378 0.313995 -0.865455 0.424791 0.38103 -0.8212 0.491644 0.543668 -0.680229 
-0.679767 0.0474655 -0.731891 -0.635121 0.132112 -0.761031 0.445495 0.738157 -0.506614 
-0.485211 0.317584 -0.814685 -0.256735 0.495025 -0.830083 -0.331774 0.441906 -0.833454 
0.176035 0.608632 -0.773679 0.106217 -0.668864 -0.735757 0.633136 -0.476142 -0.610268 
-0.15644 -0.688355 -0.708303 0.0464316 -0.461728 -0.885805 -0.230249 -0.603817 -0.763145 
-0.238845 -0.687067 -0.686216 0.820773 0.0595802 -0.568139 0.87218 0.212689 -0.440527 
-0.285559 -0.660067 -0.694815 -0.384223 -0.646311 -0.659284 0.485741 0.402664 -0.775833 
-0.424012 -0.620658 -0.659544 -0.565862 -0.538525 -0.624333 0.552344 0.356249 -0.753659 
0.551946 0.529439 -0.644244 -0.592565 -0.3294 -0.735093 0.487621 0.5078 -0.710187 
-0.645263 -0.143406 -0.75038 0.391435 0.687611 -0.61153 0.3597 -0.746541 -0.559726 
0.762207 -0.54164 -0.354495 0.77965 0.373964 -0.502292 0.680145 0.437625 -0.588122 
0.601095 0.647926 -0.467843 -0.683061 -0.5132 -0.519666 -0.831159 -0.27912 -0.480903 
0.604004 0.653076 -0.456806 -0.765515 0.119172 -0.632286 -0.52475 0.503552 -0.686347 
0.0142206 0.677659 -0.735239 -0.140644 0.661263 -0.736852 0.151228 0.765087 -0.625917 
-0.0558491 0.735312 -0.675424 0.071987 -0.89884 -0.432324 0.298801 -0.851365 -0.431157 
0.589444 -0.69624 -0.409641 0.539941 -0.813918 -0.214481 0.921919 -0.192333 -0.336264 
0.681971 0.629835 -0.371785 -0.594123 -0.661582 -0.457524 0.684558 0.654071 -0.321825 
0.639648 0.667264 -0.381587 0.53802 0.818905 -0.199823 0.506419 0.748404 -0.428289 
0.439021 0.718036 -0.540078 -0.267606 0.720218 -0.640057 0.363957 0.915577 -0.171038 
-0.266651 0.816048 -0.5128 -0.0693612 -0.939613 -0.335136 0.762906 -0.635394 -0.119368 
-0.311526 -0.880957 -0.356182 0.949219 -0.169247 -0.265215 0.966937 0.141081 -0.212438 
-0.500486 -0.830551 -0.244333 0.942266 0.292647 -0.162768 -0.529512 -0.801421 -0.278103 
-0.701129 -0.653979 -0.284129 0.658642 0.740287 -0.134777 0.649393 0.758937 0.0479879 
0.576242 0.778138 -0.249893 -0.844184 0.189066 -0.501604 0.496387 0.866058 -0.0595211 
-0.429266 0.725604 -0.5378 0.137853 0.853102 -0.503204 0.887836 -0.439895 -0.135054 
-0.512959 -0.847871 -0.134117 0.876117 0.481491 0.0241995 0.875684 0.474287 -0.0907184 
0.651668 0.756262 -0.0582825 0.676193 0.734534 0.0567722 -0.910491 -0.330549 -0.248483 
0.617366 0.756088 0.217233 -0.924316 -0.0977606 -0.368894 0.598178 0.797724 -0.0762855 
-0.715729 0.409482 -0.565736 0.190652 0.973389 -0.127147 0.368551 0.902953 -0.221011 
0.0753868 0.962775 -0.259579 0.168314 -0.985715 -0.00607303 0.854531 -0.519399 -0.00107902 
-0.391139 -0.920312 0.0060378 0.972983 0.229167 0.0280395 -0.508676 -0.860559 -0.0261997 
-0.642196 -0.766113 0.0255994 0.759957 0.596791 0.257499 -0.810354 -0.583359 -0.0549361 
0.577828 0.714408 0.394634 -0.963771 -0.231677 -0.132178 0.652313 0.717549 0.244155 
0.557199 0.816749 0.149835 -0.865096 0.277852 -0.417621 -0.621521 0.574292 -0.532823 
0.408187 0.90544 0.116454 0.399384 -0.901649 0.165899 0.706252 -0.705231 0.0621032 
0.986774 -0.157883 0.0367364 0.68775 0.716076 0.119316 -0.757425 -0.624812 -0.189519 
-0.857818 -0.497916 -0.127393 -0.943069 -0.240893 -0.229329 -0.954203 0.0283449 -0.297815 
0.519053 0.558404 0.647124 0.636107 0.700419 0.3237 -0.808901 0.484133 -0.333609 
0.500777 0.835568 0.225938 -0.492053 0.749991 -0.442036 0.861045 -0.446692 0.243039 
0.941228 0.2735 0.198208 0.72562 0.61049 0.317457 0.355878 0.627174 0.692823 
0.276459 0.650481 0.707422 0.308198 0.684414 0.660751 0.44616 0.467491 0.763147 
0.529294 0.729823 0.432673 0.0698022 0.538037 0.840026 0.416989 0.637218 0.648131 
-0.975042 -0.190503 0.114023 0.543653 0.746098 0.38442 0.508524 0.781095 0.362344 
-0.422889 -0.875198 0.234933 0.961604 -0.23036 0.14917 0.989631 -0.0262056 0.141222 
-0.520552 -0.730679 0.441739 0.912923 -0.0550949 0.404397 -0.485496 -0.853127 0.190967 
-0.519112 -0.820253 0.240223 0.377205 0.688855 0.619027 0.519798 0.671394 0.528242 
-0.659311 -0.727297 0.190649 0.336021 0.26405 0.904084 -0.760464 -0.627235 0.168141 
0.212612 0.411526 0.886252 -0.874815 -0.465796 0.133168 -0.968292 -0.229334 0.0990747 
-0.995296 -0.0601219 0.0759692 0.504647 0.397837 0.766196 0.535314 0.618745 0.574973 
0.57242 0.554472 0.604066 -0.282651 0.958723 -0.0309559 0.0257085 0.90621 0.422046 
0.467481 0.781865 0.41249 0.0509207 0.989872 -0.132518 -0.240018 -0.894009 0.378338 
0.186053 -0.95797 0.218353 0.588561 -0.790282 0.170438 0.904051 0.282787 0.320506 
-0.413886 -0.678888 0.606472 0.677532 0.579247 0.453235 -0.325704 -0.792547 0.515544 
0.108658 0.445221 0.888803 -0.497288 -0.709739 0.498973 -0.364122 -0.647014 0.669916 
-0.5146 -0.703597 0.490039 0.217217 0.143325 0.965544 0.124601 0.324513 0.937639 
0.312338 0.25281 0.915714 -0.87059 -0.161548 0.464732 -0.955606 0.215804 -0.200615 
-0.53206 0.846396 0.022943 0.412877 0.656844 0.630943 0.449046 0.706945 0.546431 
-0.660028 0.664502 -0.350429 -0.115489 0.942983 0.312164 0.345232 -0.903766 0.253026 
0.802403 0.420227 0.423744 0.439391 0.577001 0.68848 0.711981 0.547125 0.440156 
-0.374122 -0.73895 0.560343 -0.0137633 -0.198121 0.980081 -0.506636 -0.721343 0.472213 
0.144926 0.144764 0.978795 -0.243191 -0.585764 0.773136 0.0552957 -0.238858 0.969479 
0.0114732 -0.120583 0.992637 -0.433506 -0.637971 0.636448 0.0512044 -0.0948341 0.994175 
0.0045131 -0.165286 0.986235 0.178819 -0.0122464 0.983806 0.0946596 0.0747366 0.9927 
-0.0146916 -0.00661282 0.99987 0.302905 0.00060326 0.953021 0.209875 0.259112 0.942769 