# vtk DataFile Version 4.2
vtk output
ASCII
DATASET POLYDATA
POINTS 1081 float
222.835 254.106 161.687 223.36 254.066 161.946 223.048 254.319 161.639 
222.967 254.291 161.598 222.999 254.367 161.591 223.159 254.452 161.727 
223.417 254.281 161.95 222.996 254.483 161.65 223.104 254.745 161.835 
222.636 252.88 162.101 223.143 253.362 162.218 222.245 253.454 161.716 
222.641 254.639 161.695 222.215 254.953 161.708 220.861 257.05 162.186 
220.716 256.853 162.152 220.821 257.313 162.296 221.396 251.016 162.888 
221.168 250.923 163.046 221.25 251.095 162.837 221.536 251.059 162.883 
221.645 251.112 163.009 221.612 251.159 162.847 222.035 252.301 162.238 
221.295 252.362 162.1 223.943 254.83 162.854 222.74 256.231 162.374 
219.983 257.596 162.447 221.268 257.444 162.44 223.437 256.352 162.936 
221.714 251.399 162.782 222.14 251.818 162.748 223.474 253.136 162.901 
220.238 252.874 162.087 221.178 253.276 161.8 224.281 254.541 163.496 
220.583 255.592 161.936 223.335 256.878 163.199 223.615 257.046 163.645 
217.786 259.004 163.255 219.153 259.359 163.279 212.737 248.945 165.202 
215.799 249.411 164.681 212.128 249.692 164.776 219.082 250.763 163.383 
220.823 250.655 163.609 213.906 250.184 164.169 216.173 250.477 163.729 
216.781 251.13 163.34 224.278 254.027 163.807 216.481 257.535 163.201 
222.392 259.138 164.052 218.922 260.579 164.118 221.032 260.482 164.433 
210.207 248.461 166.35 210.917 248.42 166.128 210.176 249.23 165.706 
212.409 248.587 165.633 221.317 250.75 164.053 212.516 250.585 164.384 
214.888 256.382 163.571 214.829 258.413 163.988 223.401 258.811 164.874 
214.801 259.204 164.239 214.903 259.749 164.431 222.752 259.97 165.122 
220.977 261.088 165.143 209.319 248.492 166.643 209.143 248.538 166.678 
209.587 248.598 166.435 210.134 248.242 166.752 212.42 248.274 166.201 
209.235 248.619 166.554 216.419 249.113 165.681 208.434 250.602 166.161 
211.602 252.204 164.478 224.433 254.007 165.326 212.58 257.056 164.707 
221.938 260.902 165.602 216.162 262.124 165.902 218.034 262.616 166.355 
209.826 248.171 167.163 206.815 250.505 167.254 220.499 250.369 165.969 
223.051 260.244 165.974 213.777 261.906 166.482 219.155 262.412 166.216 
208.446 248.347 168.019 208.03 248.592 167.86 207.544 248.872 167.95 
206.352 252.779 167.329 223.902 259.796 167.027 221.54 262.132 167.484 
209.953 248.021 167.948 211.884 248.066 168.001 206.995 248.709 168.977 
206.675 249.002 168.737 218.946 249.988 167.646 222.714 252.249 167.981 
225.098 257.657 168.317 224.841 258.562 168.154 210.648 248.008 168.508 
204.488 249.995 170.004 203.663 251.251 169.782 224.373 259.738 168.91 
207.158 248.504 170.01 218.042 250.243 169.934 202.297 252.269 170.612 
225.231 256.512 170.082 225.263 257.759 169.853 221.019 262.995 169.25 
217.004 264.628 170.757 201.936 250.209 172.537 203.478 249.669 171.981 
200.844 251.823 172.093 201.212 252.796 171.517 202.609 257.391 171.18 
224.394 260.052 170.916 200.727 251.199 172.572 198.871 250.697 174.68 
212.465 249.394 172.566 198.532 251.641 174.247 199.321 252.032 173.421 
225.124 257.176 171.819 205.099 249.151 173.704 224.655 259.255 173.299 
224.468 259.624 173.642 224.597 259.162 173.715 202.137 263.192 174.786 
203.978 264.523 175.015 199.863 249.674 175.688 198.536 250.182 176.206 
196.483 251.528 176.454 196.884 252.389 175.562 222.755 255.413 175.002 
224.216 256.91 174.154 223.82 260.728 174.799 222.642 262.224 174.596 
196.413 251.009 177.247 223.038 256.23 175.75 224.322 258.402 174.753 
223.879 260.474 175.149 222.621 262.126 175.929 198.219 249.931 177.647 
195.293 252.814 177.056 222.993 256.834 176.443 223.901 258.797 175.804 
222.785 261.596 177.114 222.588 262.19 176.385 219.408 264.416 176.05 
208.684 266.553 177.601 211.902 251.47 177.569 195.357 257.841 177.409 
223.512 260.061 176.649 222.756 261.207 178.114 202.926 249.84 178.527 
193.121 253.991 178.74 194.967 259.05 178.12 222.96 259.977 178.524 
195.262 261.316 179.068 221.106 262.8 178.814 203.184 266.455 179.939 
212.35 266.491 179.046 194.812 250.428 180.824 191.176 251.929 181.187 
190.533 252.444 181.411 192.791 254.404 178.956 192.07 256.258 179.557 
219.964 255.93 179.073 221.426 257.352 179.129 221.897 258.829 179.702 
209.089 266.851 180.32 191.321 251.352 181.75 220.616 258.212 180.816 
222.401 259.715 179.402 222.192 260.792 179.687 221.971 260.9 179.966 
221.224 261.845 180.174 218.357 264.448 179.794 198.498 250.015 181.188 
188.083 257.185 182.689 218.935 257.039 181.355 188.807 258.864 182.61 
216.287 265.148 181.17 208.738 266.831 181.94 193.51 250.058 183.198 
191.357 262.575 183.868 218.414 263.597 181.83 213.39 265.983 181.957 
204.089 266.995 183.522 189.605 250.915 184.692 188.628 251.855 184.109 
205.672 252.253 183.406 186.394 253.646 184.832 218.08 258.442 183.084 
218.871 259.273 182.959 219.562 260.059 182.61 219.731 260.839 182.468 
217.621 263.395 182.81 218.265 262.609 182.935 216.08 264.822 182.322 
204.641 266.948 184.137 185.175 255.271 185.557 216.051 258.049 184.019 
187.583 260.237 184.779 218.774 261.352 183.184 216.848 263.976 182.885 
213.066 265.475 183.631 208.982 266.375 183.984 190.6 250.205 185.899 
192.183 249.967 185.962 194.378 250.055 185.71 195.743 250.324 186.092 
185.475 252.883 186.788 184.913 254.217 186.385 184.074 254.748 187.088 
183.862 255.3 187.193 209.002 255.075 185.501 217.821 259.914 183.836 
214.18 261.666 185.811 215.488 261.645 185.168 214.426 262.142 185.574 
215.494 263.667 184.242 212.523 265.108 184.47 213.157 264.768 184.506 
183.509 256.08 187.604 213.643 259.484 185.89 184.252 258.672 187.47 
214.266 260.614 185.813 186.646 261.387 187.791 214.416 263.186 185.137 
205.351 266.122 186.375 208.53 265.429 186.125 186.321 251.122 188.448 
182.907 255.692 188.413 185.231 260.336 188.033 209.403 263.562 187.355 
208.673 264.504 187.059 205.638 265.501 187.35 193.167 250.271 188.819 
202.491 254.454 188.947 182.739 257.932 189.334 207.702 259.944 188.806 
205.95 264.162 188.627 206.91 264.408 187.985 194.833 264.856 189.548 
205.94 265.026 187.81 191.596 250.088 189.237 180.721 253.597 191.173 
180.031 254.553 191.76 204.369 257.489 189.984 204.801 258.274 190.046 
205.864 262.172 189.632 191.421 250.16 190.767 195.287 251.364 190.457 
179.643 255.426 192.411 179.909 256.153 192.374 182.721 258.951 190.508 
179.138 254.267 192.857 179.519 256.433 193.148 183.806 260.568 191.88 
185.227 261.514 191.92 201.636 261.297 192.103 203.048 264.407 189.956 
186.778 249.293 193.401 189.41 249.792 192.265 196.491 253.429 192.882 
177.911 254.571 194.452 178.825 255.635 193.657 200.738 259.084 192.768 
189.404 263.251 192.797 184.857 248.822 194.74 178.751 256.534 194.515 
180.574 258.305 193.624 200.979 262.846 191.89 191.838 263.805 192.999 
187.171 249.112 195.46 176.909 253.015 195.478 179.175 257.493 195.226 
185.024 248.134 196.894 187.122 249.04 196.565 182.4 248.463 195.672 
194.481 254.537 195.928 195.85 255.402 195.275 196.67 257.751 195.478 
183.868 261.054 196.293 182.772 247.421 197.651 187.853 249.4 196.675 
176.234 249.838 197.475 175.248 252.252 197.518 181.38 259.649 196.947 
192.542 262.151 195.892 183.215 247.241 198.204 184.507 247.449 198.863 
182.032 247.288 197.807 174.316 249.951 198.867 173.799 250.835 199.03 
189.266 250.538 197.48 173.696 251.835 199.059 192.854 254.367 197.424 
194.84 259.107 196.772 176.533 247.546 199.123 173.465 249.176 199.859 
175.286 248.317 199.186 191.623 253.341 197.969 173.876 253.318 199.288 
174.515 254.354 199.383 181.2 259.451 198.873 184.585 260.963 198.097 
176.526 246.259 200.377 178.698 245.949 200.259 172.977 249.611 200.062 
171.858 250.447 200.934 175.264 255.826 200.503 182.94 260.141 199.213 
186.228 260.995 198.492 179.098 245.272 201.229 185.075 247.634 200.712 
171.934 247.992 201.456 186.031 248.526 201.305 171.766 248.669 201.356 
172.531 252.382 200.489 183.564 259.834 200.437 169.796 249.064 203.187 
189.689 254.785 200.978 181.845 259.218 201.171 184.744 259.636 201.009 
170.677 251.912 202.725 171.895 253.964 202.954 176.799 257.036 203.479 
180.821 244.508 203.774 170.511 244.318 204.075 168.947 250.393 204.674 
186.876 257.114 203.146 178.486 257.542 203.668 181.668 258.181 203.469 
185.371 257.794 203.365 183.706 258.882 202.437 176.165 242.277 204.794 
185.626 249.016 203.746 171.126 254.089 205.529 186.936 255.556 203.919 
186.24 256.648 203.984 183.616 257.826 203.888 176.565 241.286 206.025 
177.982 241.74 206.298 179.315 242.57 206.379 166.518 247.352 206.876 
176.252 256.609 205.681 181.848 257.413 204.815 167.881 241.274 206.95 
165.818 243.245 207.413 166.291 247.583 207.278 166.145 248.012 207.8 
167.42 249.746 206.915 167.55 250.252 207.239 167.728 250.728 207.552 
171.351 254.399 207.064 178.826 240.872 208.543 180.595 243.334 207.806 
165.931 248.512 208.623 167.122 250.34 208.708 167.936 251.264 208.344 
176.84 256.153 207.425 182.072 255.709 207.146 169.308 235.48 209.755 
176.129 237.894 209.075 176.597 237.946 209.333 179.119 240.844 209.102 
164.504 246.843 209.822 172.353 254.909 208.247 179.088 255.718 208.228 
177.583 237.846 210.276 180.02 241.758 210.499 165.705 248.997 210.289 
181.863 253.779 209.221 161.608 240.317 211.766 180.979 244.314 210.661 
182.135 248.437 210.121 166.589 250.164 211.204 181.866 250.621 210.521 
168.796 232.103 211.355 162.537 235.331 212.15 179.097 239.385 211.1 
161.043 242.599 213.143 180.594 244.587 212.465 176.573 253.918 211.407 
171.253 223.846 213.734 172.32 223.24 214.376 167.163 225.331 213.104 
172.689 225.342 213.542 174.25 226.905 213.499 170.815 227.211 212.635 
160.639 235.974 213.161 159.956 238.688 213.607 162.973 246.197 213.079 
180.303 246.682 213.373 167.357 250.659 212.918 180.221 251.681 211.861 
179.211 252.45 212.006 170.666 220.289 215.897 172.868 222.221 215.398 
163.673 222.165 214.098 174.011 222.82 215.613 179.406 238.45 213.611 
[...]
POINT_DATA 1081
SCALARS scalars float
LOOKUP_TABLE default
1 1 1 1 1 1 1 1 1 
1 1 1 1 1 1 1 1 1 
1 1 1 1 1 1 1 1 1 
1 1 1 1 1 1 1 1 1 
1 1 1 1 1 1 1 1 1 
1 1 1 1 1 1 1 1 1 
1 1 1 1 1 1 1 1 1 
1 1 1 1 1 1 1 1 1 
1 1 1 1 1 1 1 1 1 
1 1 1 1 1 1 1 1 1 
1 1 1 1 1 1 1 1 1 
1 1 1 1 1 1 1 1 1 
1 1 1 1 1 1 1 1 1 
1 1 1 1 1 1 1 1 1 
1 1 1 1 1 1 1 1 1 
1 1 1 1 1 1 1 1 1 
1 1 1 1 1 1 1 1 1 
1 1 1 1 1 1 1 1 1 
1 1 1 1 1 1 1 1 1 
1 1 1 1 1 1 1 1 1 
1 1 1 1 1 1 1 1 1 
1 1 1 1 1 1 1 1 1 
1 1 1 1 1 1 1 1 1 
1 1 1 1 1 1 1 1 1 
1 1 1 1 1 1 1 1 1 
1 1 1 1 1 1 1 1 1 
1 1 1 1 1 1 1 1 1 
1 1 1 1 1 1 1 1 1 
1 1 1 1 1 1 1 1 1 
1 1 1 1 1 1 1 1 1 
1 1 1 1 1 1 1 1 1 
1 1 1 1 1 1 1 1 1 
1 1 1 1 1 1 1 1 1 
1 1 1 1 1 1 1 1 1 
1 1 1 1 1 1 1 1 1 
1 1 1 1 1 1 1 1 1 
1 1 1 1 1 1 1 1 1 
1 1 1 1 1 1 1 1 1 
1 1 1 1 1 1 1 1 1 
1 1 1 1 1 1 1 1 1 
1 1 1 1 1 1 1 1 1 
1 1 1 1 1 1 1 1 1 
1 1 1 1 1 1 1 1 1 
1 1 1 1 1 1 1 1 1 
1 1 1 1 1 1 1 1 1 
1 1 1 1 1 1 1 1 1 
1 1 1 1 1 1 1 1 1 
1 1 1 1 1 1 1 1 1 
1 1 1 1 1 1 1 1 1 
1 1 1 1 1 1 1 1 1 
1 1 1 1 1 1 1 1 1 
1 1 1 1 1 1 1 1 1 
1 1 1 1 1 1 1 1 1 
1 1 1 1 1 1 1 1 1 
1 1 1 1 1 1 1 1 1 
1 1 1 1 1 1 1 1 1 
1 1 1 1 1 1 1 1 1 
1 1 1 1 1 1 1 1 1 
1 1 1 1 1 1 1 1 1 
1 1 1 1 1 1 1 1 1 
1 1 1 1 1 1 1 1 1 
1 1 1 1 1 1 1 1 1 
1 1 1 1 1 1 1 1 1 
1 1 1 1 1 1 1 1 1 
1 1 1 1 1 1 1 1 1 
1 1 1 1 1 1 1 1 1 
1 1 1 1 1 1 1 1 1 
1 1 1 1 1 1 1 1 1 
1 1 1 1 1 1 1 1 1 
1 1 1 1 1 1 1 1 1 
1 1 1 1 1 1 1 1 1 
1 1 1 1 1 1 1 1 1 
1 1 1 1 1 1 1 1 1 
1 1 1 1 1 1 1 1 1 
1 1 1 1 1 1 1 1 1 
1 1 1 1 1 1 1 1 1 
1 1 1 1 1 1 1 1 1 
1 1 1 1 1 1 1 1 1 
1 1 1 1 1 1 1 1 1 
1 1 1 1 1 1 1 1 1 
1 1 1 1 1 1 1 1 1 
1 1 1 1 1 1 1 1 1 
1 1 1 1 1 1 1 1 1 
1 1 1 1 1 1 1 1 1 
1 1 1 1 1 1 1 1 1 
1 1 1 1 1 1 1 1 1 
1 1 1 1 1 1 1 1 1 
1 1 1 1 1 1 1 1 1 
1 1 1 1 1 1 1 1 1 
1 1 1 1 1 1 1 1 1 
1 1 1 1 1 1 1 1 1 
1 1 1 1 1 1 1 1 1 
1 1 1 1 1 1 1 1 1 
1 1 1 1 1 1 1 1 1 
1 1 1 1 1 1 1 1 1 
1 1 1 1 1 1 1 1 1 
1 1 1 1 1 1 1 1 1 
1 1 1 1 1 1 1 1 1 
1 1 1 1 1 1 1 1 1 
1 1 1 1 1 1 1 1 1 
1 1 1 1 1 1 1 1 1 
1 1 1 1 1 1 1 1 1 
1 1 1 1 1 1 1 1 1 
1 1 1 1 1 1 1 1 1 
1 1 1 1 1 1 1 1 1 
1 1 1 1 1 1 1 1 1 
1 1 1 1 1 1 1 1 1 
1 1 1 1 1 1 1 1 1 
1 1 1 1 1 1 1 1 1 
1 1 1 1 1 1 1 1 1 
1 1 1 1 1 1 1 1 1 
1 1 1 1 1 1 1 1 1 
1 1 1 1 1 1 1 1 1 
1 1 1 1 1 1 1 1 1 
1 1 1 1 1 1 1 1 1 
1 1 1 1 1 1 1 1 1 
1 1 1 1 1 1 1 1 1 
1 1 1 1 1 1 1 1 1 
1 1 1 1 1 1 1 1 1 
1 1 1 1 1 1 1 1 1 
1 
NORMALS Normals float
0.0454741 -0.237007 -0.970443 0.658836 -0.388514 -0.644199 0.59749 -0.176325 -0.78225 
0.120068 -0.317895 -0.940493 0.0719062 0.156437 -0.985067 0.586956 0.232861 -0.775408 
0.839346 -0.0420092 -0.541972 0.405135 0.391781 -0.826059 0.470806 0.401704 -0.785478 
0.498123 -0.511728 -0.700006 0.700976 -0.397498 -0.592139 0.191708 -0.31514 -0.929481 
0.00802478 0.2535 -0.967302 0.00804295 0.187848 -0.982165 0.281403 0.114268 -0.952762 
0.137479 0.11484 -0.983825 -0.0179961 0.428101 -0.903552 0.0859939 -0.684774 -0.723664 
0.0178635 -0.906513 -0.421801 -0.0743386 -0.539182 -0.838902 0.411554 -0.830868 -0.374541 
0.708519 -0.655882 -0.26042 0.408139 -0.49558 -0.766696 0.21957 -0.559894 -0.798942 
0.00100479 -0.468767 -0.883321 0.799957 0.138793 -0.583785 0.454104 0.401455 -0.795376 
-0.198331 0.255774 -0.946173 0.343608 0.426274 -0.836794 0.683821 0.406846 -0.605695 
0.384405 -0.365026 -0.847932 0.474711 -0.60704 -0.637301 0.752239 -0.57001 -0.330493 
-0.278875 -0.155913 -0.947586 -0.136528 -0.0941166 -0.986155 0.933712 0.09637 -0.344811 
-0.129942 0.121513 -0.984048 0.661057 0.47287 -0.582578 0.753864 0.430961 -0.495946 
-0.180786 0.400385 -0.898336 -0.0123348 0.40068 -0.916135 -0.0135359 -0.727364 -0.686119 
0.105674 -0.789251 -0.604909 -0.253484 -0.474906 -0.84274 -0.0519562 -0.641186 -0.765625 
0.0215306 -0.916653 -0.399104 -0.160964 -0.242597 -0.95668 0.00640284 -0.621825 -0.78313 
-0.174073 -0.275973 -0.945271 0.878881 -0.309815 -0.362742 -0.209728 0.130516 -0.96901 
0.438097 0.524366 -0.730145 0.071998 0.62603 -0.776468 0.30027 0.650508 -0.697622 
-0.294514 -0.75317 -0.588215 -0.175563 -0.762892 -0.622232 -0.257028 -0.322961 -0.910842 
-0.0460887 -0.827267 -0.559915 0.419135 -0.903868 -0.0857248 -0.343576 -0.18741 -0.920235 
-0.541487 0.0450234 -0.839503 -0.41374 0.250273 -0.875318 0.692354 0.439851 -0.571994 
-0.555129 0.292511 -0.778633 -0.240145 0.452433 -0.858856 0.635301 0.580457 -0.509375 
0.229874 0.776506 -0.586683 -0.238731 -0.801792 -0.547848 -0.447176 -0.750144 -0.487152 
-0.286383 -0.652816 -0.701296 -0.110581 -0.944387 -0.309685 0.196094 -0.945455 -0.26012 
-0.389993 -0.52063 -0.759507 0.194723 -0.96717 -0.163294 -0.413433 -0.166079 -0.89526 
-0.304968 -0.0157246 -0.952233 0.857241 -0.513395 -0.0395453 -0.416026 0.174391 -0.892474 
0.490786 0.745675 -0.450663 -0.10445 0.718098 -0.688059 0.0293225 0.899527 -0.435879 
-0.192413 -0.928268 -0.31827 -0.583502 -0.410566 -0.700686 0.496609 -0.853387 0.158461 
0.640507 0.701077 -0.313435 -0.441902 0.534095 -0.720739 0.143826 0.8201 -0.55385 
-0.329837 -0.937944 -0.107092 -0.511117 -0.742152 -0.433556 -0.450829 -0.806373 -0.382774 
-0.469287 0.0619894 -0.880867 0.788004 0.523826 -0.323506 0.431705 0.849086 -0.304441 
-0.174453 -0.980641 -0.0889388 0.2174 -0.975458 0.0349019 -0.409083 -0.887639 -0.211537 
-0.582956 -0.724812 -0.367165 0.279535 -0.956679 0.0814024 0.681979 -0.705652 0.192251 
0.963144 0.200546 -0.179265 0.924288 0.316251 -0.213722 -0.0108663 -0.995579 0.0932969 
-0.58145 -0.652604 -0.485823 -0.649348 -0.207199 -0.731721 0.83503 0.543488 -0.085704 
-0.344552 -0.931685 -0.115092 0.370912 -0.881018 0.293651 -0.637916 -0.195162 -0.744966 
0.965865 -0.242717 0.0905153 0.979368 0.201075 -0.0201736 0.512041 0.844303 -0.158011 
0.178859 0.948234 -0.262414 -0.404099 -0.808776 -0.4273 -0.431259 -0.847015 -0.310774 
-0.479899 -0.26757 -0.835526 -0.500013 -0.171681 -0.84883 -0.553549 0.262161 -0.790478 
0.859808 0.509899 -0.0270667 -0.454351 -0.555826 -0.696148 -0.589568 -0.587768 -0.55402 
0.284115 -0.913345 0.291684 -0.656159 -0.45177 -0.60445 -0.63175 -0.170895 -0.7561 
0.937538 -0.267825 0.222019 -0.0961898 -0.992244 0.0787334 0.970993 0.232958 0.0538823 
0.909308 0.386 0.155443 0.959543 0.124887 0.252349 -0.493026 0.590202 -0.639208 
-0.269192 0.802953 -0.531791 -0.278105 -0.941004 -0.192795 -0.570315 -0.741225 -0.354014 
-0.61093 -0.598803 -0.51788 -0.68004 -0.0392229 -0.732125 0.574152 -0.716583 0.396053 
0.885563 -0.333774 0.323069 0.927036 0.366511 0.0792143 0.717749 0.696122 -0.0158306 
-0.521006 -0.712569 -0.469892 0.732403 -0.487876 0.474935 0.933705 -0.112326 0.339967 
0.926556 0.337228 0.166647 0.697838 0.71574 0.0271781 -0.289404 -0.939738 -0.182039 
-0.686403 -0.238649 -0.686948 0.779268 -0.383836 0.49539 0.953047 0.000306596 0.302821 
0.862216 0.474786 0.176528 0.69839 0.712047 0.0723885 0.468526 0.883103 0.0247454 
-0.0920026 0.973596 -0.208919 0.242677 -0.883678 0.400277 -0.595655 0.220291 -0.772442 
0.935349 0.127483 0.329954 0.853106 0.382802 0.354505 0.0779292 -0.97741 0.196461 
-0.609511 0.00703538 -0.792746 -0.564729 0.259508 -0.783414 0.894748 -0.11928 0.430347 
-0.539316 0.433187 -0.722141 0.646792 0.717646 0.258155 -0.261914 0.934585 -0.24073 
0.213463 0.97643 0.0319128 -0.241774 -0.937207 -0.251373 -0.581245 -0.502861 -0.639753 
-0.657292 -0.4079 -0.633707 -0.607659 -0.115989 -0.785683 -0.591196 0.125855 -0.796648 
0.428415 -0.703896 0.566561 0.670552 -0.498299 0.549598 0.69997 -0.404734 0.588415 
0.114495 0.993191 0.0214879 -0.502879 -0.719537 -0.478936 0.691492 -0.343475 0.635503 
0.822385 -0.0122396 0.5688 0.830644 0.313836 0.459932 0.769348 0.166431 0.616769 
0.676024 0.550871 0.489421 0.483875 0.840981 0.242107 0.0334657 -0.991743 0.1238 
-0.667181 -0.0454359 -0.743509 0.493323 -0.667694 0.55751 -0.627917 0.373944 -0.682558 
0.406393 0.878113 0.252512 0.00929617 0.994976 0.0996829 -0.0283352 -0.994826 -0.0975657 
-0.501632 0.753901 -0.424263 0.613454 0.622663 0.485762 0.314028 0.89511 0.316487 
-0.127428 0.982843 0.133349 -0.378414 -0.858123 -0.347027 -0.63316 -0.545123 -0.549499 
0.300342 -0.871915 0.386728 -0.642962 -0.514598 -0.567264 0.454982 -0.420607 0.784908 
0.600617 -0.0687565 0.796575 0.647406 -0.0950017 0.756201 0.673684 0.102681 0.731852 
0.407582 0.469605 0.783165 0.524312 0.435502 0.731734 0.37349 0.854195 0.361741 
-0.0625193 0.962779 0.262961 -0.743431 -0.0339251 -0.667952 0.401845 -0.608577 0.684219 
-0.609001 0.609516 -0.507551 0.550096 0.301911 0.778617 0.497282 0.675987 0.543831 
0.351297 0.834887 0.423738 0.143175 0.955197 0.259037 -0.0529152 -0.993939 -0.0963568 
-0.0271007 -0.996125 -0.0836727 0.01926 -0.998382 -0.0534946 0.136909 -0.985078 0.104298 
-0.735838 -0.507615 -0.448186 -0.734337 -0.453476 -0.505083 -0.823297 -0.457087 -0.336531 
-0.811599 -0.194698 -0.550817 0.403512 -0.660368 0.633319 0.553742 -0.0366806 0.83188 
0.31428 0.0234943 0.949039 0.528138 0.0705595 0.846222 0.423692 0.226862 0.876937 
0.441423 0.603303 0.664207 0.230613 0.778502 0.58374 0.460673 0.654552 0.599451 
-0.833586 0.0169435 -0.55213 0.42707 -0.276036 0.861055 -0.727313 0.442795 -0.524354 
0.462043 -0.0350138 0.886166 -0.443647 0.833132 -0.330255 0.355612 0.448915 0.819766 
0.192891 0.875625 0.442803 0.195828 0.827092 0.526849 -0.478753 -0.785954 -0.391243 
-0.839075 -0.137427 -0.526372 -0.674399 0.63688 -0.37359 0.391872 0.383194 0.83642 
0.363854 0.671447 0.645577 0.317814 0.770482 0.552586 0.182707 -0.963724 0.194562 
0.533474 -0.643218 0.54925 -0.735629 0.420604 -0.530983 0.489595 -0.0853593 0.867761 
0.320024 0.548536 0.772459 0.395114 0.420467 0.816757 -0.323768 0.942527 -0.0825637 
0.378494 0.745847 0.548137 0.104549 -0.98943 0.10049 -0.630227 0.06865 -0.77337 
-0.59933 0.125322 -0.790632 0.68601 -0.409004 0.601753 0.657052 -0.318411 0.683299 
0.496193 0.174741 0.850446 0.145298 -0.987343 0.063573 0.37835 -0.876702 0.29706 
-0.635044 0.329089 -0.69887 -0.759333 0.315405 -0.569151 -0.644469 0.661789 -0.383008 
-0.793095 0.0731651 -0.604687 -0.795675 0.35505 -0.490755 -0.633032 0.74333 -0.216173 
-0.550777 0.79166 -0.264422 0.406188 0.280386 0.86971 0.287594 0.66411 0.690107 
0.117128 -0.98719 -0.108333 0.25709 -0.953546 0.157016 0.479031 -0.681728 0.55297 
-0.798744 0.225791 -0.557697 -0.723974 0.424408 -0.54382 0.497567 -0.0148516 0.867299 
-0.244443 0.961454 0.125915 0.040174 -0.92259 -0.383683 -0.745227 0.518548 -0.419219 
-0.706548 0.624454 -0.332937 0.412579 0.400184 0.81831 -0.0682625 0.943815 0.323348 
0.359417 -0.927422 -0.103482 -0.663358 -0.115297 -0.739366 -0.67848 0.680293 -0.277249 
0.394566 -0.912001 -0.112119 0.342108 -0.937821 -0.0587761 -0.17284 -0.730081 -0.661142 
0.562899 -0.6095 0.55826 0.583765 -0.389087 0.712622 0.550553 -0.242368 0.798842 
-0.457727 0.889071 -0.00627374 0.147332 -0.886088 -0.439479 0.469955 -0.881635 0.0431498 
-0.553273 -0.407783 -0.726362 -0.701099 0.0328698 -0.712306 -0.582414 0.808077 -0.088351 
0.152354 0.789629 0.594369 0.0958297 -0.991423 -0.0888658 0.336607 -0.923137 -0.185777 
-0.056882 -0.95309 -0.297295 -0.507993 -0.282768 -0.813625 -0.631074 -0.124406 -0.765682 
0.628321 -0.694886 0.34978 -0.662984 0.0338806 -0.747866 0.619878 -0.401286 0.674329 
0.610395 -0.148662 0.778022 -0.296146 -0.638912 -0.709992 -0.6062 -0.380947 -0.698141 
-0.406664 -0.469576 -0.78366 0.720689 -0.449979 0.527377 -0.70252 0.330856 -0.630079 
-0.742575 0.436296 -0.508161 -0.476436 0.869968 0.12714 -0.166829 0.946913 0.274816 
-0.220563 -0.721721 -0.656103 0.0895163 -0.814372 -0.573398 -0.70567 -0.250763 -0.662682 
-0.696075 -0.175213 -0.696262 -0.604568 0.772818 -0.193005 -0.253611 0.92501 0.282909 
-0.0700793 0.943957 0.322543 0.153309 -0.791669 -0.591403 0.637864 -0.769971 -0.0165474 
-0.516764 -0.291872 -0.804839 0.641802 -0.761891 0.0872419 -0.651437 -0.143927 -0.744926 
-0.759764 0.275273 -0.589053 -0.18172 0.925545 0.332181 -0.740109 0.0288123 -0.671869 
0.763449 -0.121848 0.63427 -0.227631 0.917029 0.327477 0.0127089 0.880711 0.473484 
-0.797071 0.221422 -0.561828 -0.728596 0.578432 -0.366829 -0.375206 0.926612 -0.0247083 
0.482139 -0.805419 -0.344735 -0.380346 -0.510253 -0.771348 -0.804666 0.472732 -0.359216 
0.438015 0.650058 0.620941 -0.194837 0.97235 0.128738 -0.0918469 0.953708 0.286367 
0.320776 0.74762 0.581521 0.115462 0.857812 0.500827 0.165954 -0.731539 -0.661294 
0.790332 -0.515753 0.330718 -0.630367 0.763758 -0.138967 0.624181 0.232595 0.745854 
0.39335 0.568754 0.722354 0.0973945 0.784488 0.612449 0.412876 -0.630762 -0.657018 
0.490399 -0.71875 -0.492856 0.437704 -0.76684 -0.469438 -0.7625 0.23606 -0.602386 
-0.236132 0.951532 0.19705 0.0676569 0.84664 0.527847 -0.289464 -0.491711 -0.821237 
-0.596637 -0.224391 -0.770501 -0.833455 0.260704 -0.487222 -0.811338 0.37063 -0.452067 
-0.798374 0.395475 -0.454091 -0.854723 0.443941 -0.269007 -0.647876 0.610058 -0.456165 
-0.659872 0.748141 -0.0696783 0.673111 -0.589896 -0.446032 0.723721 -0.680984 -0.111749 
-0.838105 0.441093 -0.320963 -0.754219 0.618752 -0.219772 -0.769266 0.637604 -0.041131 
-0.0613376 0.911717 0.406215 0.344835 0.663388 0.664083 -0.0795293 -0.429358 -0.899626 
0.194959 -0.594912 -0.779789 0.519765 -0.653458 -0.550306 0.766625 -0.46315 -0.444723 
-0.857182 0.264013 -0.442195 -0.323055 0.912365 0.251448 0.15688 0.818905 0.552072 
0.606805 -0.554 -0.569975 0.919721 -0.381794 -0.0913651 -0.76209 0.628531 -0.15546 
0.537698 0.45092 0.712427 -0.788311 0.0549592 -0.612817 0.926924 -0.286144 0.242764 
0.821217 -0.115628 0.558778 -0.701105 0.708863 -0.0772389 0.703241 0.116775 0.701295 
0.260163 -0.335243 -0.905499 -0.485577 -0.245237 -0.839091 0.878828 -0.3656 -0.306593 
-0.863617 0.317195 -0.391859 0.968468 -0.142271 0.204519 0.131889 0.805039 0.578376 
0.168626 -0.455209 -0.874271 0.287711 -0.462356 -0.838719 0.212009 -0.331537 -0.919312 
0.38989 -0.385934 -0.836086 0.487413 -0.357943 -0.796433 0.160499 -0.265346 -0.950701 
-0.739629 -0.0327717 -0.672217 -0.81066 -0.0843252 -0.579413 -0.842065 0.512512 -0.1681 
0.90094 0.059825 0.4298 -0.563716 0.811154 0.155735 0.643913 0.350706 0.679986 
0.497433 0.570957 0.653123 0.412769 -0.695356 -0.588304 0.328908 -0.687265 -0.647678 
-0.133647 -0.224766 -0.965204 0.538011 -0.564845 -0.625695 0.990869 -0.127887 -0.0427147 
-0.890477 0.0102877 -0.454912 -0.862218 0.336722 -0.378414 -0.438248 0.855566 0.275584 
0.4729 -0.7366 -0.483514 0.633239 -0.638982 -0.436704 -0.92064 0.271399 -0.280649 
0.744628 0.264591 0.612797 0.842513 0.128033 0.523239 0.189924 -0.506122 -0.84129 
0.197245 -0.660528 -0.724428 -0.101416 -0.270206 -0.957446 0.106208 -0.466556 -0.878092 
-0.198799 -0.191988 -0.961051 0.358758 -0.716161 -0.59867 -0.047087 -0.349198 -0.935865 
0.45126 -0.813646 -0.36653 0.461863 -0.774429 -0.432369 0.738119 -0.452635 -0.500301 
-0.5297 -0.0168532 -0.848018 -0.846675 0.522718 -0.0995354 0.355653 -0.629932 -0.690432 
0.127958 -0.473697 -0.871343 0.250738 -0.556298 -0.792252 -0.194837 -0.272737 -0.942153 
0.21873 -0.683744 -0.696169 0.471898 -0.74313 -0.474416 0.560375 -0.774506 -0.293462 
0.654119 -0.714436 -0.248414 0.872401 -0.404295 -0.274704 -0.554769 -0.0304039 -0.831449 
-0.66494 0.221969 -0.713152 0.932756 0.132239 0.335379 0.734219 0.319699 0.598928 
0.302706 -0.697478 -0.649533 -0.061332 -0.476147 -0.877225 0.473812 -0.647649 -0.596702 
0.470947 -0.756725 -0.453405 -0.73643 0.0680753 -0.673079 -0.85609 0.482979 -0.18396 
0.449667 0.624027 0.639054 -0.211922 0.880022 0.425029 0.242029 0.747096 0.619088 
-0.376426 -0.37049 -0.849141 -0.035949 -0.547359 -0.836126 0.277237 -0.57518 -0.769615 
-0.038215 -0.409322 -0.91159 0.464549 -0.73027 -0.500899 0.548843 -0.750352 -0.368435 
0.502435 -0.800266 -0.327312 -0.450785 -0.0619802 -0.890478 0.586289 -0.797381 -0.142998 
0.808404 -0.583485 -0.0776397 -0.782551 0.264148 -0.563773 -0.379165 0.851404 0.362414 
-0.511718 -0.164176 -0.843321 -0.556606 -0.0586286 -0.828705 -0.851169 0.437067 -0.29066 
-0.769142 0.637467 0.0453493 -0.611087 0.771875 0.175447 0.133798 0.787974 0.600994 
0.261293 -0.66829 -0.696501 -0.382482 -0.530535 -0.756465 -0.48761 -0.441279 -0.753332 
0.560613 -0.799711 -0.214885 -0.795962 0.0591731 -0.602448 0.955929 -0.293294 -0.013359 
-0.849728 0.150555 -0.505267 -0.853615 0.501199 -0.141917 0.912 0.273254 0.305921 
-0.664072 0.74653 -0.0412591 0.526635 0.616376 0.585437 -0.160443 0.826829 0.539083 
0.209387 0.804325 0.556074 -0.653382 -0.143371 -0.743328 0.978653 0.163256 0.12484 
0.176491 -0.717577 -0.673747 0.355278 -0.752414 -0.554663 -0.147501 -0.63104 -0.761598 
0.470108 -0.603908 -0.643657 0.517868 -0.605419 -0.604385 -0.6929 -0.203533 -0.69171 
-0.862898 0.0182301 -0.50505 0.605567 -0.791164 -0.0857268 0.919746 -0.391881 0.022299 
0.807081 0.38716 0.445788 0.628972 0.619816 0.469279 -0.152929 -0.735204 -0.66037 
-0.395463 -0.61903 -0.678536 0.242491 -0.813759 -0.528198 -0.763634 -0.337163 -0.550621 
-0.954417 0.120675 -0.272993 -0.142647 0.870809 0.470472 0.404208 -0.739382 -0.538452 
-0.128992 -0.789701 -0.599778 0.389356 -0.772695 -0.501343 -0.329661 -0.741125 -0.584857 
-0.366592 -0.767719 -0.525564 -0.0301013 -0.730759 -0.681972 -0.61495 -0.656865 -0.436309 
0.323472 -0.786886 -0.525526 0.661119 -0.628268 -0.410124 0.719837 -0.689214 -0.0825729 
0.818838 0.520825 0.241342 -0.0565122 -0.916194 -0.39673 0.589175 -0.747665 -0.306381 
-0.533523 -0.782513 -0.320978 0.734751 -0.627429 -0.257824 -0.749657 -0.601261 -0.276585 
-0.911962 -0.329854 -0.243969 0.780493 -0.624458 -0.0297004 0.983447 -0.171949 -0.0571449 
-0.937008 0.291928 -0.191821 -0.552323 0.815732 0.171818 -0.202679 0.945447 0.255052 
0.560829 0.758471 0.331953 -0.143103 -0.979629 -0.140886 -0.465999 -0.866415 -0.17936 
0.641172 -0.719237 -0.267577 -0.986441 0.110713 -0.121144 0.633744 0.765516 0.111152 
0.287128 -0.951885 -0.107113 -0.216481 -0.975934 0.0262366 0.650538 -0.757221 -0.0584458 
-0.902444 -0.430692 -0.00992834 -0.983304 -0.136318 -0.120544 0.879673 0.474332 0.0344085 
0.408556 0.900271 0.150314 0.259943 0.924553 0.278623 -0.467831 -0.883216 0.0326174 
0.0917421 -0.990967 0.0978103 -0.780015 -0.625758 0.00150596 -0.995517 0.059619 0.0734244 
-0.988992 0.111704 -0.0970385 -0.405387 0.909681 -0.0902348 0.739649 0.671403 -0.0462463 
0.443033 0.894847 -0.0545039 -0.555328 -0.809399 0.191007 0.496544 -0.864146 0.0818283 
0.733382 -0.668523 0.123399 -0.964887 -0.239333 0.108226 0.985474 -0.131691 -0.107236 
0.917682 0.381584 -0.110691 -0.567886 0.823107 -0.000130604 -0.251517 0.956935 -0.144965 
0.12235 0.977463 -0.172034 -0.116844 -0.989071 0.0899215 -0.279485 -0.936064 0.213712 
0.109534 -0.963737 0.243337 0.463712 -0.881329 0.0907262 0.404676 -0.87392 0.26926 
-0.469329 -0.846253 0.252164 0.65514 -0.729173 0.197734 -0.727068 -0.68625 0.0208304 
-0.717415 -0.655325 0.236356 0.813456 -0.567108 0.129141 0.778832 -0.627222 -0.00363848 
-0.920454 0.243117 0.306038 0.968023 0.248412 -0.0349657 -0.622185 0.780793 -0.0569952 
0.791732 0.573148 -0.211333 0.460163 0.817756 -0.345725 -0.130015 -0.915844 0.379902 
0.562731 -0.738623 0.371173 -0.569704 -0.715363 0.40459 -0.838895 -0.472703 0.269826 
-0.831075 0.55152 -0.0716995 -0.703546 0.709355 -0.0428806 0.276005 -0.870384 0.407741 
-0.266179 -0.8168 0.511846 0.0298727 -0.821884 0.568871 0.716844 -0.607111 0.342857 
0.521647 -0.696369 0.492904 -0.568074 -0.674661 0.4713 -0.55671 -0.573383 0.601087 
-0.919634 -0.244504 0.307396 -0.937474 0.0884288 0.336636 0.848979 -0.525821 0.0524039 
0.0100685 -0.777095 0.629302 0.157366 -0.695549 0.701033 0.629815 -0.639071 0.441499 
-0.943076 -0.0459301 0.329391 -0.932038 0.0699645 0.355541 0.73323 0.517283 -0.441353 
-0.0690126 0.885357 -0.45976 -0.348625 -0.6626 0.662889 0.482497 -0.643916 0.593775 
-0.511657 -0.407482 0.756416 -0.431692 -0.490371 0.757086 0.344181 -0.62177 0.703521 
-0.67989 -0.351631 0.64351 -0.817052 -0.11897 0.564156 -0.66014 -0.301802 0.687845 