# vtk DataFile Version 4.2
vtk output
ASCII
DATASET POLYDATA
POINTS 397 float
421.304 185.256 201.82 420.634 185.806 202.014 422.092 185.211 201.836 
423.346 185.422 202.218 422.086 185.958 201.91 421.029 186.503 202.151 
421.784 186.868 202.349 422.3 186.795 202.351 417.129 181.977 203.634 
417.164 181.626 203.886 416.442 182.572 203.578 418.864 182.101 203.329 
420.77 183.086 202.639 423.566 183.947 202.596 423.882 184.186 202.655 
423.794 184.035 202.654 423.92 184.051 202.778 416.704 183.948 203.099 
419.625 184.094 202.298 423.556 184.517 202.404 418.573 184.766 202.476 
422.861 184.885 202.053 423.365 184.982 202.261 424.044 184.615 202.848 
420.059 185.331 202.113 419.018 186.04 202.576 424.035 185.631 202.976 
418.519 186.872 203.156 422.772 187.24 202.869 423.265 187.129 203.101 
421.986 187.836 203.189 423.227 187.623 203.483 416.223 181.821 204.078 
415.857 181.838 204.304 417.461 181.475 204.001 415.608 182.177 204.314 
422.182 183.119 202.841 415.87 183.456 203.754 424.006 183.987 203.039 
416.807 184.952 203.217 424.248 186.23 203.49 419.741 187.795 203.393 
424.173 186.991 204.136 421.299 188.672 203.981 423.444 187.77 203.851 
415.671 181.179 205.065 415.081 182.878 204.669 423.551 183.378 203.307 
423.863 183.729 203.074 423.79 183.566 203.24 424.154 184.034 203.437 
416.212 185.66 204.312 424.609 185.672 204.136 424.287 187.169 204.689 
422.48 189.133 204.905 423.258 188.964 205.371 415.178 180.742 205.895 
414.402 181.758 205.843 421.933 189.476 205.377 423.956 188.409 205.795 
422.347 189.62 205.817 422.817 189.567 206.043 414.385 182.161 205.713 
414.26 182.439 205.933 414.599 183.881 205.775 421.225 189.744 206.069 
414.857 180.107 207.647 413.903 180.803 207.566 413.935 181.266 206.867 
413.844 181.538 206.915 424.748 185.736 206.204 420.238 189.805 206.814 
422.949 190.131 207.972 423.493 189.6 207.348 423.937 189.163 207.526 
414.264 180.185 208.45 416.627 179.929 207.419 413.513 181.13 208.306 
413.698 182.88 207.269 413.679 183.314 207.483 414.176 184.793 207.507 
423.719 189.748 208.609 413.291 181.222 208.98 413.237 182.358 208.503 
422.19 190.587 208.857 424.059 189.482 209.271 413.685 180.365 209.489 
413.321 180.76 209.682 412.8 180.767 211.448 412.124 182.42 212.22 
412.469 183.817 211.428 422.076 191.183 211.788 412.123 181.4 212.81 
412.206 183.039 212.073 412.154 183.332 212.741 414.017 187.539 213.632 
424.965 188.074 213.382 420.582 191.323 213.069 422.736 191.357 214.287 
424.114 190.349 214.063 423.267 191.124 214.455 412.534 180.13 213.951 
419.793 191.28 213.955 423.752 190.83 215.126 412.722 186.103 214.977 
414.115 188.096 215.229 413.865 178.539 216.006 418.289 178.661 215.729 
420.854 179.69 215.458 425.134 185.848 215.895 421.808 191.756 216.505 
422.33 191.698 217.094 415.345 189.564 216.966 420.168 191.768 217.353 
424.267 182.528 217.224 411.314 182.663 218.617 416.295 190.375 218.117 
422.07 191.879 219.225 412.8 177.971 218.688 412.718 177.553 219.522 
412.161 178.368 219.247 425.048 184.108 218.756 411.528 184.84 220.202 
424.062 190.669 219.516 422.682 191.72 219.932 413.942 176.588 219.789 
411.844 178.76 219.596 417.049 177.136 218.695 420.133 177.765 219.392 
422.751 179.675 219.162 425.284 187.453 220.096 412.777 187.519 220.296 
414.874 174.786 221.31 412.185 177.737 220.231 421.268 178.099 219.953 
413.807 174.368 222.067 413.483 174.009 222.555 416.473 173.687 221.993 
424.952 188.977 222.164 417.588 167.996 224.565 415.101 169.001 224.208 
414.27 169.237 224.531 415.095 169.678 223.932 418.306 169.171 224.319 
414.24 170.452 224.005 413.211 171.954 224.124 417.854 171.521 223.345 
412.399 174.724 223.405 418.721 174.292 222.272 411.318 185.012 223.901 
421.311 192.153 223.84 422.507 191.849 223.598 415.2 167.027 225.491 
418.129 166.923 225.609 418.373 166.98 225.625 418.503 166.987 225.743 
414.434 167.359 225.584 414.342 167.752 225.335 418.589 167.395 225.487 
418.668 167.18 225.764 418.274 168.083 224.84 418.771 168.678 224.893 
413.284 170.482 224.865 419.645 169.264 225.633 413.03 171.257 224.763 
421.551 175.53 223.82 410.871 182.68 224.397 413.461 188.799 224.958 
423.498 191.234 224.37 417.995 166.708 225.931 414.278 167.174 225.94 
418.822 167.204 226.119 420.204 170.259 226.12 412.514 187.651 225.331 
423.916 190.805 225.266 421.182 192.182 225.756 422.412 191.88 225.522 
414.715 166.701 226.162 415.483 166.157 226.787 413.916 189.368 226.383 
415.112 165.971 227.801 416.7 165.938 227.326 416.454 165.831 227.595 
414.514 166.394 227.184 417.811 166.372 226.979 421.371 172.425 227.703 
416.424 191.119 227.373 419.685 192.176 227.06 421.07 192.205 227.694 
415.921 165.77 228.154 413.797 166.934 227.398 418.686 166.872 227.569 
416.742 165.881 228.854 412.151 170.8 228.317 424.875 180.79 228.396 
425.083 188.335 229.004 424.578 189.719 229.097 415.482 165.897 229.314 
416.443 165.859 229.129 413.667 167.149 229.104 415.353 166.012 229.584 
417.426 166.213 229.327 418.708 167.015 228.908 420.078 169.175 229.177 
412.653 169.436 229.436 425.338 186.776 229.899 416.013 165.936 229.665 
413.721 167.341 229.826 419.044 167.656 229.835 412.226 172.472 230.174 
423.962 178.497 229.924 422.324 191.909 231.633 414.555 167.065 230.684 
417.712 166.647 230.183 413.835 167.792 230.636 413.099 169.252 230.469 
412.603 171.809 230.824 421.192 173.242 231.381 422.197 175.82 231.906 
411.139 184.153 233.1 415.278 190.408 232.962 418.529 191.907 232.45 
415.112 167.419 231.353 417.506 167.164 231.209 418.356 167.386 230.783 
413.512 168.697 230.822 419.171 169.478 231.763 419.704 169.397 230.877 
419.609 170.584 231.939 420.15 173.179 232.869 411.775 186.204 233.546 
416.623 167.63 231.833 418.548 168.069 231.377 418.684 168.489 231.601 
418.557 168.753 231.898 414.621 169.884 232.441 418.714 170.048 232.472 
413.925 171.066 232.411 415.596 170.79 233.245 413.435 173.517 233.168 
422.637 178.054 234.011 423.342 178.441 232.662 414.724 189.924 234.26 
416.533 191.061 234.279 418.189 167.842 231.532 417.839 168.263 232.036 
417.677 169.707 232.799 417.06 170.572 233.268 417.656 171.117 233.391 
418.228 170.9 233.117 414.51 173.114 233.871 415.042 172.682 233.899 
416.707 172.641 234.218 417.118 172.795 234.249 419.209 174.96 234.717 
422.15 177.695 234.455 411.098 181.419 234.637 423.392 191.269 235.276 
415.617 173.061 234.287 416.988 173.864 234.793 413.138 176.303 234.941 
415.2 175.22 235.545 413.503 176.531 235.67 414.162 176.172 235.901 
417.693 175.308 235.637 412 178.657 235.483 412.797 177.949 236.508 
414.271 177.413 237.735 416.774 176.417 236.941 420.274 176.976 235.9 
421.241 178.723 237.592 411.864 186.011 237.5 412.343 179.026 237.297 
414.597 177.636 238.396 416.295 177.23 238.147 423.812 190.829 238.146 
413.617 178.075 238.268 414.128 178.047 238.832 423.421 181.06 238.044 
424.213 182.394 237.878 424.737 183.878 238.262 411.648 184.682 239.37 
424.192 190.333 239.07 412.196 185.954 240.398 421.25 191.921 240.64 
411.746 184.009 241.052 412.801 186.937 240.819 424.764 189.165 240.921 
422.323 191.726 241.258 423.337 191.205 241.121 413.021 179.612 241.509 
425.123 187.068 241.7 424.953 188.518 241.839 416.403 189.891 242.388 
424.591 184.089 242.107 425.006 185.603 242.464 415.038 179.069 244.133 
417.813 179.197 244.055 422.793 191.437 243.88 423.27 191.17 243.862 
416.293 179.082 244.569 422.908 181.801 244.597 412.154 182.466 244.356 
425.142 187.243 244.581 424.052 190.376 244.763 413.568 179.811 245.594 
412.862 180.524 245.162 415.486 179.26 245.705 425.069 185.875 245.361 
424.359 189.866 245.675 413.901 179.684 246.044 412.908 180.953 246.369 
424.871 188.709 246.492 423.949 190.278 246.716 413.894 179.817 246.55 
413.756 180.302 247.625 421.459 181.02 247.184 425.112 187.48 247.247 
416.998 188.53 248.675 424.571 189.296 247.416 423.469 190.509 247.53 
413.434 180.733 247.888 414.259 180.155 248.324 415.265 179.746 248.204 
424.539 184.108 248.068 424.778 184.731 247.828 413.942 180.716 249.321 
413.215 182.033 249.183 424.078 183.367 248.809 416.557 187.652 249.895 
422.429 190.592 249.086 413.409 181.665 249.645 424.268 189.206 249.759 
423.543 189.978 249.762 422.882 190.324 249.799 414.038 182.714 250.99 
422.828 182.512 250.901 424.576 184.943 251.12 415.517 185.415 251.613 
414.323 181.229 251.009 414.615 181.148 251.258 414.98 180.946 251.282 
414.131 181.547 251.012 414.173 181.917 251.304 414.787 183.642 251.933 
424.449 187.516 251.723 418.617 188.165 252.203 420.45 189.007 252.251 
415.247 181.117 251.774 415.785 180.997 251.868 414.651 181.602 251.754 
414.397 181.95 251.658 423.837 183.958 252.125 424.106 188.01 252.174 
422.17 189.465 252.053 422.887 189.378 251.897 416.52 181.548 252.592 
415.252 182.784 252.597 420.991 182.568 253.144 421.346 182.983 253.454 
422.009 182.925 253.008 422.421 183.404 253.261 424.086 185.793 252.972 
424.052 186.363 253.012 417.529 186.011 253.674 418.549 187.067 253.577 
421.496 188.488 253.171 423.676 188.284 252.609 423.051 188.735 252.583 
423.425 188.403 252.723 415.989 181.969 252.725 415.578 182.606 252.78 
415.984 183.547 253.125 416.664 183.705 253.505 419.11 183.764 254.17 
419.926 183.344 253.959 421.92 184.088 253.992 422.538 184.234 253.855 
417.126 184.843 253.791 417.658 185.365 254.001 423.793 185.369 253.336 
423.478 185.511 253.697 423.285 186.62 253.711 423.152 187.102 253.646 
420.01 187.43 253.837 423.637 187.644 253.067 418.547 184.57 254.213 
423.208 184.768 253.78 419.231 185.166 254.317 420.023 185.106 254.384 
421.511 185.105 254.353 422.156 185.118 254.251 419.749 186.424 254.193 
422.939 186.138 253.988 422.218 186.622 254.127 420.947 187.469 253.878 
416.664 183.705 253.505 
POLYGONS 788 3152
3 12 0 2 
3 2 0 1 
3 2 1 4 
3 4 1 5 
3 4 5 6 
3 7 4 6 
3 8 9 10 
3 34 9 8 
3 34 8 11 
3 17 8 10 
3 37 17 10 
3 11 8 17 
3 11 17 20 
3 12 11 20 
3 13 14 15 
3 15 14 16 
3 12 20 18 
3 13 36 21 
3 21 36 12 
[...]
POINT_DATA 397
SCALARS scalars float
LOOKUP_TABLE default
1 1 1 1 1 1 1 1 1 
1 1 1 1 1 1 1 1 1 
1 1 1 1 1 1 1 1 1 
1 1 1 1 1 1 1 1 1 
1 1 1 1 1 1 1 1 1 
1 1 1 1 1 1 1 1 1 
1 1 1 1 1 1 1 1 1 
1 1 1 1 1 1 1 1 1 
1 1 1 1 1 1 1 1 1 
1 1 1 1 1 1 1 1 1 
1 1 1 1 1 1 1 1 1 
1 1 1 1 1 1 1 1 1 
1 1 1 1 1 1 1 1 1 
1 1 1 1 1 1 1 1 1 
1 1 1 1 1 1 1 1 1 
1 1 1 1 1 1 1 1 1 
1 1 1 1 1 1 1 1 1 
1 1 1 1 1 1 1 1 1 
1 1 1 1 1 1 1 1 1 
1 1 1 1 1 1 1 1 1 
1 1 1 1 1 1 1 1 1 
1 1 1 1 1 1 1 1 1 
1 1 1 1 1 1 1 1 1 
1 1 1 1 1 1 1 1 1 
1 1 1 1 1 1 1 1 1 
1 1 1 1 1 1 1 1 1 
1 1 1 1 1 1 1 1 1 
1 1 1 1 1 1 1 1 1 
1 1 1 1 1 1 1 1 1 
1 1 1 1 1 1 1 1 1 
1 1 1 1 1 1 1 1 1 
1 1 1 1 1 1 1 1 1 
1 1 1 1 1 1 1 1 1 
1 1 1 1 1 1 1 1 1 
1 1 1 1 1 1 1 1 1 
1 1 1 1 1 1 1 1 1 
1 1 1 1 1 1 1 1 1 
1 1 1 1 1 1 1 1 1 
1 1 1 1 1 1 1 1 1 
1 1 1 1 1 1 1 1 1 
1 1 1 1 1 1 1 1 1 
1 1 1 1 1 1 1 1 1 
1 1 1 1 1 1 1 1 1 
1 1 1 1 1 1 1 1 1 
1 
NORMALS Normals float
-0.0927674 -0.0670446 -0.993428 -0.173591 0.249075 -0.9528 0.0744834 -0.0391222 -0.996455 
0.515045 0.210956 -0.830799 0.292387 0.299194 -0.908291 -0.192102 0.464965 -0.864236 
0.0464422 0.586723 -0.808455 0.271276 0.49382 -0.826166 -0.167829 -0.481321 -0.860327 
-0.237321 -0.734695 -0.635533 -0.423875 -0.368624 -0.827313 -0.000818927 -0.632142 -0.774852 
-0.061091 -0.503808 -0.861653 0.337016 -0.547668 -0.765819 0.695132 -0.173389 -0.697659 
0.50729 -0.520515 -0.686819 0.710543 -0.514487 -0.480032 -0.344805 -0.0788308 -0.935358 
-0.288155 -0.230642 -0.929393 0.499262 -0.0759412 -0.863117 -0.360032 -0.140687 -0.922271 
0.24262 -0.219285 -0.945013 0.414477 -0.0791521 -0.906611 0.841522 -0.0139879 -0.540042 
-0.327212 0.138235 -0.934785 -0.303006 0.271442 -0.913513 0.725083 0.21296 -0.654906 
-0.456215 0.483759 -0.74689 0.363255 0.571305 -0.735973 0.529108 0.516368 -0.673357 
0.185709 0.716304 -0.672622 0.500158 0.609526 -0.615077 -0.457987 -0.482073 -0.746896 
-0.460631 -0.62952 -0.625718 -0.0251939 -0.778605 -0.627009 -0.645375 -0.335782 -0.686107 
0.209782 -0.728881 -0.651708 -0.69981 0.00115099 -0.714329 0.909035 -0.28896 -0.300262 
-0.576147 0.276525 -0.769148 0.741358 0.33693 -0.580402 -0.252274 0.672978 -0.695312 
0.78775 0.441464 -0.429604 -0.0607311 0.817979 -0.572034 0.5711 0.661521 -0.486041 
-0.401988 -0.711386 -0.576486 -0.777987 -0.140755 -0.612311 0.499422 -0.838971 -0.216114 
0.658604 -0.617637 -0.429844 0.680564 -0.693406 -0.236688 0.89492 -0.441913 -0.0619006 
-0.720084 0.506975 -0.473767 0.967604 0.0774675 -0.240294 0.85009 0.452196 -0.269937 
0.289165 0.804313 -0.5191 0.505619 0.739293 -0.444741 -0.411207 -0.764826 -0.495933 
-0.715 -0.404392 -0.5703 0.0118636 0.867656 -0.497023 0.864392 0.471762 -0.173973 
0.17449 0.934443 -0.310436 0.533576 0.777725 -0.332327 -0.846011 -0.0361042 -0.531941 
-0.897756 -0.0278105 -0.439614 -0.859412 0.207873 -0.467118 -0.131149 0.922911 -0.361988 
-0.141081 -0.971665 -0.18964 -0.701387 -0.616528 -0.357701 -0.805462 -0.364773 -0.467089 
-0.932384 -0.104554 -0.346019 0.994195 0.0753463 -0.0768041 -0.336238 0.884708 -0.322855 
0.388168 0.903936 -0.179512 0.653782 0.722484 -0.224913 0.809287 0.561717 -0.171842 
-0.619873 -0.764384 -0.177413 0.0605918 -0.937644 -0.342277 -0.903416 -0.337309 -0.264692 
-0.908349 0.0846918 -0.409547 -0.906549 0.237475 -0.348963 -0.831444 0.441243 -0.337648 
0.765443 0.639904 -0.0679684 -0.909761 -0.363432 -0.200628 -0.965926 -0.0153248 -0.258365 
0.167614 0.954883 -0.245162 0.758867 0.644183 -0.0956496 -0.418945 -0.897667 -0.13667 
-0.879548 -0.412101 -0.23784 -0.835602 -0.482437 -0.262724 -0.98153 -0.028148 -0.189227 
-0.940906 0.242343 -0.236571 0.117166 0.991888 -0.0492978 -0.981856 -0.161984 -0.0985943 
-0.97352 0.221505 -0.0565244 -0.97012 0.174847 -0.168213 -0.777158 0.587451 -0.225672 
0.970517 0.240424 0.0171499 -0.199807 0.969994 -0.138521 0.361603 0.916531 -0.170923 
0.757637 0.638638 -0.134638 0.507131 0.85118 -0.135315 -0.67938 -0.676097 -0.285194 
-0.117177 0.988483 -0.0957677 0.757651 0.65204 -0.0284289 -0.867961 0.481137 -0.123086 
-0.753701 0.65038 -0.0945569 -0.279777 -0.890129 -0.359717 0.111096 -0.958197 -0.263658 
0.526332 -0.807684 -0.265747 0.998334 -0.0576303 -0.0027301 0.196623 0.978328 -0.0649185 
0.290778 0.955732 -0.0449951 -0.58993 0.785616 -0.186521 -0.233265 0.972399 0.00524618 
0.863716 -0.492291 -0.107909 -0.977325 0.140291 -0.158603 -0.428574 0.898573 -0.0942929 
0.132507 0.986652 0.0946551 -0.687835 -0.543932 -0.480646 -0.680434 -0.662218 -0.313811 
-0.79626 -0.35083 -0.492838 0.978295 -0.207214 0.00121745 -0.91788 0.372618 -0.136569 
0.689521 0.72241 -0.0518196 0.268791 0.961836 0.051206 -0.391753 -0.752622 -0.529235 
-0.92136 -0.303592 -0.242752 0.132761 -0.872548 -0.470144 0.364195 -0.894484 -0.259346 
0.687496 -0.650867 -0.322057 0.991079 0.12765 0.0383202 -0.812102 0.567939 -0.133923 
-0.266297 -0.604362 -0.750888 -0.814558 -0.512753 -0.271256 0.432986 -0.802128 -0.411236 
-0.458721 -0.582407 -0.671101 -0.515201 -0.494922 -0.699729 0.0314035 -0.5993 -0.799909 
0.978679 0.204578 0.0182883 0.233022 -0.494571 -0.837317 -0.208636 -0.374213 -0.903568 
-0.512798 -0.298319 -0.805012 -0.321595 -0.357138 -0.876943 0.334074 -0.318845 -0.88698 
-0.400481 -0.421556 -0.813576 -0.742838 -0.34516 -0.573634 0.163366 -0.350229 -0.922307 
-0.81603 -0.369438 -0.444535 0.374974 -0.545834 -0.749306 -0.953699 0.294293 0.0620512 
0.0971246 0.995191 0.0126775 0.364236 0.925393 0.104785 -0.14387 -0.75165 -0.643679 
0.152128 -0.819445 -0.5526 0.444188 -0.641291 -0.625654 0.526298 -0.790258 -0.313851 
-0.797334 -0.385408 -0.464456 -0.550451 -0.48113 -0.682289 0.658907 -0.42419 -0.621213 
0.747332 -0.449044 -0.489749 0.557679 -0.435012 -0.706936 0.579176 -0.247701 -0.776659 
-0.723621 -0.359084 -0.589433 0.868496 -0.423278 -0.257973 -0.83567 -0.263525 -0.481882 
0.840112 -0.46949 -0.271643 -0.999979 -0.00613322 -0.0020905 -0.721462 0.6873 -0.0843223 
0.535388 0.843119 0.0501016 0.263758 -0.906608 -0.329383 -0.667521 -0.575744 -0.47216 
0.839804 -0.482134 -0.249552 0.724952 0.0211875 -0.688474 -0.862477 0.50572 0.0194966 
0.792679 0.609492 0.0134207 0.0240871 0.998939 0.0392566 0.356876 0.933609 0.0318259 
-0.392252 -0.794106 -0.464256 -0.170082 -0.902793 -0.395015 -0.636174 0.771511 -0.00737343 
-0.41377 -0.907428 -0.0732723 0.255076 -0.943962 -0.209457 0.0478582 -0.978797 -0.199164 
-0.51524 -0.817907 -0.256039 0.280737 -0.929495 -0.239221 0.953758 -0.224629 -0.199718 
-0.473139 0.880138 -0.0386804 -0.082085 0.996624 0.00137181 0.266118 0.961695 -0.0657503 
-0.0575415 -0.998079 -0.0229597 -0.848401 -0.502247 -0.167225 0.657384 -0.753429 -0.0138358 
0.2047 -0.978601 0.0209264 -0.967483 -0.245563 -0.0606256 0.973713 -0.226176 0.0269763 
0.94411 0.323812 0.0616607 0.907947 0.416025 0.0505526 -0.170378 -0.98117 0.0909721 
0.156152 -0.964562 0.21269 -0.833099 -0.541022 0.115073 -0.363 -0.837193 0.409071 
0.358341 -0.909282 0.211654 0.694774 -0.71381 0.0881198 0.907172 -0.402378 0.123004 
-0.906348 -0.340826 0.249742 0.998494 -0.000289679 0.0548642 -0.00207919 -0.913919 0.405892 
-0.839181 -0.469535 0.274432 0.772035 -0.582198 0.254966 -0.915996 -0.174487 0.361256 
0.839436 -0.53387 0.101641 0.527641 0.848856 -0.0322245 -0.416802 -0.78706 0.454767 
0.468537 -0.813746 0.343934 -0.806912 -0.369847 0.460549 -0.844674 -0.248833 0.473929 
-0.876919 -0.107667 0.468423 0.910706 -0.320307 0.260803 0.801466 -0.487874 0.345877 
-0.972445 0.218821 0.0804202 -0.676171 0.736703 0.00785734 -0.342482 0.939156 0.0263136 
-0.379813 -0.525136 0.76156 0.166198 -0.793517 0.585413 0.588893 -0.681906 0.43383 
-0.740296 -0.364113 0.565141 0.621893 -0.299712 0.723479 0.814269 -0.401388 0.419349 
0.769365 -0.346638 0.536582 0.579988 -0.391848 0.714191 -0.934258 0.341763 0.101779 
-0.0120655 -0.667675 0.744355 0.633324 -0.535242 0.558942 0.667432 -0.486163 0.564075 
0.563351 -0.35796 0.744648 -0.565457 -0.33765 0.752497 0.526529 -0.303474 0.794148 
-0.661835 -0.242207 0.709443 -0.178447 -0.404302 0.897049 -0.654745 -0.43982 0.61471 
0.766102 -0.483571 0.423375 0.882863 -0.408855 0.231062 -0.603945 0.793617 0.0736364 
-0.487428 0.863737 0.127951 0.555733 -0.595218 0.58041 0.312362 -0.453651 0.834644 
0.232975 -0.448966 0.862643 0.146656 -0.386516 0.910548 0.13551 -0.354463 0.925199 
0.444093 -0.33254 0.831985 -0.470532 -0.493241 0.731651 -0.386872 -0.467554 0.79481 
0.0139888 -0.4 0.916408 0.183528 -0.358238 0.915414 0.439979 -0.583068 0.682972 
0.767515 -0.409814 0.492923 -0.990404 -0.0860379 0.10815 0.741764 0.669853 -0.0329264 
-0.156394 -0.442701 0.882925 0.164717 -0.515559 0.840873 -0.764485 -0.492676 0.415731 
-0.320391 -0.604798 0.729088 -0.634764 -0.633529 0.442398 -0.383865 -0.723059 0.574312 
0.0187711 -0.713703 0.700196 -0.869546 -0.449264 0.205065 -0.709132 -0.616894 0.341429 
-0.382932 -0.795233 0.470072 -0.214471 -0.781642 0.585695 0.550913 -0.54601 0.631164 
0.585174 -0.730996 0.351022 -0.831424 0.550865 0.0726734 -0.825002 -0.477881 0.301665 
-0.276526 -0.841756 0.463659 0.00971294 -0.851323 0.524552 0.795656 0.592692 -0.125087 
-0.582068 -0.683856 0.439929 -0.39111 -0.829495 0.398712 0.786269 -0.575019 0.226129 
0.913299 -0.36817 0.174173 0.980006 -0.173127 0.0980551 -0.989997 0.13804 -0.0291634 
0.91587 0.371288 -0.152735 -0.898087 0.431786 0.0836673 -0.00839593 0.999119 0.0411204 
-0.980105 0.0800441 0.181624 -0.828414 0.536774 0.160012 0.967345 0.237707 -0.0879699 
0.37516 0.924254 -0.0707715 0.57984 0.813834 -0.0382112 -0.707494 -0.688198 0.160733 
0.999729 -0.0227343 0.00501586 0.974098 0.223293 0.0356852 -0.515454 0.845583 0.138915 
0.995136 -0.0969483 -0.0174856 0.993328 -0.107284 0.0422971 -0.226917 -0.965497 0.127768 
0.184199 -0.962526 0.199036 0.345281 0.927553 0.142923 0.53757 0.837917 0.0944115 
-0.0364996 -0.994246 0.100708 0.601807 -0.785926 0.141946 -0.979922 -0.0983187 0.173457 
0.999233 0.0369042 0.0131161 0.764061 0.640285 0.0790277 -0.597992 -0.780665 0.181572 
-0.846096 -0.493232 0.202097 -0.089716 -0.981172 0.171034 0.992292 -0.122953 0.0155004 
0.795938 0.602378 -0.0601941 -0.489696 -0.847209 0.205996 -0.841996 -0.496846 0.210208 
0.954848 0.296352 0.0209944 0.641792 0.765845 -0.0398152 -0.500532 -0.836037 0.224743 
-0.605561 -0.765105 0.218882 0.576452 -0.813235 0.0797015 0.98489 0.148876 0.0884785 
-0.645021 0.725765 0.239191 0.846539 0.517721 0.123845 0.497374 0.863841 0.0799898 
-0.820024 -0.500807 0.277045 -0.599293 -0.764422 0.237711 -0.107146 -0.952564 0.284852 
0.916859 -0.395092 0.0571944 0.972907 -0.203624 0.109499 -0.59224 -0.751236 0.291369 
-0.955398 0.0695616 0.287012 0.83634 -0.53553 0.117229 -0.584362 0.770497 0.254669 
-0.0406307 0.963508 0.264579 -0.880492 -0.369363 0.297162 0.833541 0.497392 0.240439 
0.585785 0.782199 0.212179 0.282855 0.915841 0.285007 -0.903106 0.168063 0.395163 
0.563895 -0.786165 0.252915 0.951178 -0.209036 0.227077 -0.809886 0.493096 0.317713 
-0.656758 -0.631786 0.411722 -0.616835 -0.577767 0.534509 -0.404848 -0.811547 0.421294 
-0.818634 -0.311606 0.482432 -0.876519 -0.00324009 0.481357 -0.723414 0.314086 0.614835 
0.961458 0.106821 0.253354 -0.503534 0.727302 0.466353 -0.299916 0.846499 0.439874 
-0.35089 -0.674505 0.649553 -0.0396643 -0.874112 0.484103 -0.558511 -0.495583 0.665179 
-0.768785 -0.247191 0.589802 0.754682 -0.565371 0.332883 0.797134 0.453334 0.39883 
0.0202504 0.851772 0.523521 0.398334 0.783499 0.476928 0.000760263 -0.745141 0.666907 
-0.672882 -0.112378 0.731164 0.202096 -0.829039 0.521393 0.197375 -0.564428 0.801538 
0.404786 -0.721295 0.562034 0.493837 -0.646332 0.581704 0.838365 -0.0302477 0.544269 
0.810424 0.101024 0.577067 -0.53558 0.444515 0.718025 -0.359461 0.481432 0.799381 
0.0337881 0.67674 0.735446 0.621337 0.604664 0.498319 0.2888 0.615527 0.733295 
0.394846 0.586945 0.706819 -0.195813 -0.450881 0.87084 -0.474616 -0.266545 0.838865 
-0.516447 0.0763748 0.852906 -0.567839 0.210241 0.795838 -0.00704381 -0.223694 0.974634 
0.0721033 -0.365598 0.927976 0.220286 -0.465067 0.85743 0.436728 -0.400961 0.805294 
-0.327101 0.000186059 0.944989 -0.322629 0.18914 0.927435 0.827381 -0.104057 0.551917 
0.669582 0.0667951 0.739728 0.531489 0.184938 0.82663 0.416086 0.391921 0.820531 
-0.12493 0.549272 0.826253 0.614 0.35376 0.70559 -0.107757 -0.0713261 0.991615 
0.57147 -0.294032 0.766138 -0.16951 0.0805475 0.982231 0.0373189 0.0530427 0.997895 
0.0750053 -0.148269 0.986099 0.203739 -0.0599972 0.977185 -0.0705334 0.249774 0.965732 
0.520771 0.0603203 0.851563 0.201613 0.237486 0.950238 0.0669211 0.366 0.928206 
0.916174 -0.392548 0.0808101 
