# vtk DataFile Version 4.2
vtk output
ASCII
DATASET POLYDATA
POINTS 607 float
236.937 254.891 131.057 237.211 254.932 131.065 234.725 255.819 130.754 
234.854 255.733 130.804 237.025 255.19 130.988 236.111 254.237 131.666 
235.743 254.526 131.444 236.895 254.422 131.413 233.273 255.171 131.367 
234.179 254.854 131.394 239.552 254.798 131.822 235.382 255.876 130.825 
239.691 255.09 131.717 232.926 256.251 131.067 235.567 258.619 130.756 
234.929 253.317 133.016 235.972 253.408 132.979 231.125 255.245 132.072 
230.518 255.668 132.234 241.087 257.106 132.195 238.589 259.24 131.235 
231.685 261.181 131.631 234.077 252.772 133.918 234.825 253.002 133.519 
235.003 252.949 133.654 234.964 252.903 133.746 235.368 253.126 133.627 
238.37 253.37 133.097 239.554 253.572 133.039 240.913 254.329 132.956 
229.242 257.14 132.778 229.821 257.864 132.242 242.018 257.317 133.064 
236.593 263.85 131.902 238.73 263.416 132.251 231.705 266.232 133.319 
235.225 265.905 132.649 233.144 252.822 133.985 234.602 252.732 134.285 
235.2 253.107 134.198 235.087 253.161 134.614 240.607 253.629 133.548 
230.77 253.947 133.53 235.358 253.405 134.546 235.688 253.316 134.178 
235.115 253.665 135.043 235.696 253.576 134.592 235.286 253.885 135.065 
241.957 255.395 133.398 230.457 266.135 133.8 232.895 267.601 133.762 
237.293 266.974 133.361 235.286 251.819 135.987 233.151 252.379 135.036 
234.271 252.344 135.02 234.905 252.9 134.592 234.853 252.635 135.096 
234.983 253.051 135.018 236.948 253.273 134.482 237.445 253.02 134.913 
235.002 253.335 135.209 236.71 253.511 134.857 236.97 253.416 135.168 
235.041 253.559 135.149 235.029 253.773 135.441 242.627 254.844 135.067 
228.353 255.229 134.917 235.141 254.199 135.703 235.336 254.201 135.417 
236.112 254.26 135.499 235.283 254.323 135.663 235.934 254.486 135.74 
226.694 260.159 135.314 227.804 264.089 134.96 241.938 264.362 134.425 
229.269 267.198 135.111 237.568 268.06 134.055 239.67 268.402 134.926 
235.016 252.095 135.728 237.852 252.386 135.692 238.56 252.028 136.205 
235.621 252.208 136.033 235.211 252.556 135.691 237.428 252.754 135.53 
235.088 253.205 135.673 237.121 253.16 135.566 229.855 253.661 135.394 
242.111 253.954 135.613 235.02 253.908 135.762 235.06 254.129 135.882 
236.644 254.181 135.962 226.69 257.45 135.88 235.604 254.649 135.983 
235.528 254.713 136.147 235.777 254.654 135.957 243.7 256.595 135.872 
226.449 258.353 135.829 226.256 259.053 136.032 226.93 263.151 135.674 
228.702 266.509 135.175 234.397 251.774 136.208 236.164 251.963 136.291 
236.823 252.126 136.256 236.69 251.783 136.565 237.463 252.165 136.098 
232.32 252.318 135.959 235.52 252.66 136.041 236.212 252.295 136.206 
236.592 252.481 136.202 236.714 252.801 136.199 237.138 252.496 135.98 
237.034 252.902 135.907 241.192 253.155 135.665 235.041 253.818 135.996 
236.82 253.869 136.082 236.427 254.495 136.152 236.487 254.475 136.235 
226.475 257.404 136.369 226.436 257.254 136.709 235.424 254.688 136.233 
236.01 254.717 136.124 235.689 254.867 136.431 226.478 261.953 136.012 
227.408 265.662 136.172 241.373 269.543 136.64 235.94 252.74 136.318 
236.28 252.758 136.356 240.151 252.299 137.141 236.73 253.338 136.332 
236.752 253.825 136.38 235.078 254.094 136.328 235.104 254.319 136.418 
236.669 254.213 136.488 236.501 254.483 136.393 236.116 254.764 136.479 
235.509 254.844 136.644 235.768 254.896 136.556 244.311 257.758 137.527 
243.066 267.782 137.112 230.222 270.75 136.92 234.886 251.439 137.475 
237.275 251.529 137.476 233.747 251.694 137.868 238.48 251.729 137.684 
229.952 253.263 138.153 236.292 253.527 136.828 236.664 253.64 136.521 
235.142 254.144 136.604 236.324 253.768 136.959 236.506 253.77 136.789 
235.215 254.54 136.742 236.533 254.421 136.806 244.087 256.592 138.043 
235.929 254.872 136.796 225.384 259.928 138.494 232.105 276.361 138.554 
230.96 277.675 139.319 235.587 253.825 137.024 242.894 254.537 138.771 
235.208 254.4 136.842 235.312 254.347 137.034 236.378 254.425 137.137 
243.926 256.149 138.636 236.282 254.513 137.236 235.857 254.869 136.945 
225.231 261.086 138.882 245.483 264.669 140.118 229.842 276.938 139.821 
233.879 279.279 139.466 229.99 279.624 140.931 230.418 280.399 141.295 
232.151 280.45 140.537 232.766 280.875 140.8 234.302 280.657 140.426 
238.721 252.006 139.33 231.665 252.686 139.943 227.285 256.041 140.222 
235.475 254.437 137.416 235.614 254.425 137.592 236.14 254.541 137.38 
235.466 254.599 137.481 235.469 254.664 137.417 236.066 254.66 137.357 
235.919 254.721 137.398 245.356 260.893 140.38 245.608 262.892 140.353 
243.963 269.654 139.845 238.394 278.044 139.947 228.941 278.525 141.409 
236.587 280.256 140.487 231.533 281.402 141.938 235.283 280.915 140.734 
236.591 280.542 140.811 235.59 251.79 139.643 240.375 252.973 140.434 
236.039 254.322 137.463 235.551 254.533 137.636 235.607 254.548 137.709 
235.807 254.6 137.679 235.959 254.51 137.552 226.195 257.725 140.239 
235.569 254.662 137.671 235.833 254.666 137.586 235.738 254.658 137.702 
235.986 254.632 137.478 235.614 254.708 137.607 225.283 263.108 140.879 
227.132 272.378 141.199 227.939 275.503 141.228 240.329 276.902 140.688 
238.711 279.741 141.504 232.705 281.798 142.26 233.29 281.79 142.125 
235.581 254.611 137.711 235.641 254.599 137.746 235.715 254.601 137.733 
242.969 255.146 141.006 235.647 254.66 137.716 245.943 262.691 142.249 
228.339 278.778 143.194 239.786 279.309 142.451 229.55 280.395 142.95 
237.325 280.848 141.844 232.059 281.833 142.872 233.682 252.757 141.634 
228.938 255.184 142.537 242.018 254.798 142.283 242.747 275.549 142.974 
237.069 281.277 142.785 226.836 258.139 142.903 245.637 261.472 143.265 
226.515 273.056 143.944 227.2 276.795 144.788 239.636 279.928 143.951 
231.005 281.489 144.428 235.087 281.877 143.743 231.858 281.851 143.996 
242.001 255.496 143.469 243.63 258.144 144.718 226.621 260.441 144.532 
225.725 263.831 143.991 239.96 279.721 144.847 234.542 255.549 145.975 
245.389 262.378 145.83 245.789 265.917 145.564 245.556 268.569 145.997 
244.902 271.784 146.251 234.892 281.648 145.699 237.692 255.449 145.895 
242.72 258.17 146.425 245.172 270.441 147.319 226.946 273.738 146.86 
227.543 277.254 146.195 229.008 278.931 147.367 244.23 260.966 147.332 
227.057 264.937 147.307 230.191 279.998 147.341 238.786 280.061 147.197 
243.694 260.933 148.11 244.851 263.806 148.274 227.895 264.133 148.109 
227.394 273.34 148.093 243.101 275.053 149.505 238.592 258.376 149.016 
241.559 259.494 148.911 229.321 277.93 148.892 235.784 259.726 150.183 
244.237 263.979 149.429 231.958 263.3 151.012 244.289 265.36 149.913 
244.771 266.412 149.286 229.968 266.651 150.886 228.87 268.788 150.312 
243.772 271.367 150.444 242.218 275.162 151.074 241.478 276.17 150.889 
231.719 278.584 150.091 234.216 279.668 149.756 229.474 272.033 151.016 
232.899 278.074 151.005 234.881 278.984 150.569 241.497 274.859 152.207 
231.035 276.011 151.449 240.696 275.39 152.369 239.129 264.418 153.028 
240.377 265.314 153.089 241.742 273.447 152.765 232.302 274.089 152.788 
240.074 274.763 153.147 238.654 276.266 152.658 240.925 266.877 153.377 
240.071 269.564 154.174 235.125 270.326 154.195 240.737 271.73 153.86 
237.275 268.489 154.323 238.465 269.625 154.48 237.578 270.863 154.639 
239.02 272.425 154.31 238.19 275.089 153.54 239.267 269.147 301.907 
240.069 270.052 302.065 236.57 270.858 301.96 237.432 271.581 301.984 
239.981 271.412 302.245 240.314 271.197 302.323 240.403 273.895 303.175 
241.274 266.451 303.269 240.412 267.831 302.496 234.623 270.483 302.352 
238.26 273.283 302.512 236.094 274.049 302.764 239.75 273.655 302.923 
235.077 265.645 303.195 242.036 267.445 303.512 243.053 268.333 304.316 
242.582 272.032 304.117 231.755 274.174 303.906 242.011 273.418 304.103 
242.819 263.272 305.45 243.456 266.084 305.071 238.863 261.551 304.972 
242.422 262.237 305.677 244.151 264.047 306.418 244.442 265.625 306.426 
229.513 275.919 306.005 240.338 276.887 305.541 240.516 259.627 306.663 
244.626 268.765 306.715 236.333 279.399 306.521 238.51 279.083 306.784 
234.687 258.791 307.203 244.265 262.536 307.33 242.974 275.471 307.4 
230.793 280.016 308.652 240.51 257.685 308.491 229.587 259.725 308.704 
245.292 264.007 308.536 228.988 278.342 308.492 229.519 279.264 308.843 
234.569 281.066 308.965 238.773 256.37 309.371 228.726 260.045 309.146 
227.175 262.603 309.464 244.792 271.22 308.317 243.67 274.898 308.791 
227.817 277.062 309.751 238.475 280.284 309.369 243.411 258.604 309.988 
229.347 279.796 310.124 232.211 281.745 311.533 227.739 257.795 311.748 
228.51 256.861 311.919 245.674 262.239 311.274 227.054 276.075 311.787 
227.504 277.271 311.244 228.653 279.262 311.045 230.406 281.053 311.636 
235.202 281.83 311.17 231.389 254.971 312.197 241.872 255.513 311.949 
228.919 255.986 312.457 225.685 262.229 312.315 245.992 263.309 312.041 
246.095 264.666 312.176 242.822 276.468 311.669 239.74 279.899 310.856 
238.951 253.488 313.262 228.918 255.298 313.455 225.318 263.814 313.272 
225.475 266.521 313.382 226.695 273.442 313.243 227.198 276.573 312.69 
228.677 279.443 313.314 229.798 280.779 313.085 236.847 281.519 312.121 
232.021 281.837 313.489 232.98 252.822 314.963 240.784 253.718 313.932 
241.661 254.367 313.599 227.861 255.584 314.486 225.352 259.766 315.027 
246.072 264.012 313.352 226.145 269.813 314.424 240.582 278.938 313.052 
230.731 281.358 314.092 230.615 253.373 315.696 241.127 253.892 313.912 
242.85 255.02 314.365 243.838 256.311 314.548 226.964 256.263 315.14 
245.929 264.411 314.495 245.215 267.872 315.343 227.454 273.386 315.306 
227.483 276.845 313.541 239.989 278.949 314.109 228.964 279.644 314.384 
229.48 280.263 314.576 232.171 281.683 314.345 233.476 281.745 314.243 
237.179 251.91 316.396 238.17 251.902 316.831 240.1 252.727 316.027 
242.643 254.632 314.969 235.643 254.5 318.895 235.87 254.374 318.861 
[...]
POINT_DATA 607
SCALARS scalars float
LOOKUP_TABLE default
1 1 1 1 1 1 1 1 1 
1 1 1 1 1 1 1 1 1 
1 1 1 1 1 1 1 1 1 
1 1 1 1 1 1 1 1 1 
1 1 1 1 1 1 1 1 1 
1 1 1 1 1 1 1 1 1 
1 1 1 1 1 1 1 1 1 
1 1 1 1 1 1 1 1 1 
1 1 1 1 1 1 1 1 1 
1 1 1 1 1 1 1 1 1 
1 1 1 1 1 1 1 1 1 
1 1 1 1 1 1 1 1 1 
1 1 1 1 1 1 1 1 1 
1 1 1 1 1 1 1 1 1 
1 1 1 1 1 1 1 1 1 
1 1 1 1 1 1 1 1 1 
1 1 1 1 1 1 1 1 1 
1 1 1 1 1 1 1 1 1 
1 1 1 1 1 1 1 1 1 
1 1 1 1 1 1 1 1 1 
1 1 1 1 1 1 1 1 1 
1 1 1 1 1 1 1 1 1 
1 1 1 1 1 1 1 1 1 
1 1 1 1 1 1 1 1 1 
1 1 1 1 1 1 1 1 1 
1 1 1 1 1 1 1 1 1 
1 1 1 1 1 1 1 1 1 
1 1 1 1 1 1 1 1 1 
1 1 1 1 1 1 1 1 1 
1 1 1 1 1 1 1 1 1 
1 1 1 1 1 1 1 1 1 
1 1 1 1 1 1 1 1 1 
1 1 1 1 1 1 1 1 1 
1 1 1 1 1 1 1 1 1 
1 1 1 1 1 1 1 1 1 
1 1 1 1 1 1 1 1 1 
1 1 1 1 1 1 1 1 1 
1 1 1 1 1 1 1 1 1 
1 1 1 1 1 1 1 1 1 
1 1 1 1 1 1 1 1 1 
1 1 1 1 1 1 1 1 1 
1 1 1 1 1 1 1 1 1 
1 1 1 1 1 1 1 1 1 
1 1 1 1 1 1 1 1 1 
1 1 1 1 1 1 1 1 1 
1 1 1 1 1 1 1 1 1 
1 1 1 1 1 1 1 1 1 
1 1 1 1 1 1 1 1 1 
1 1 1 1 1 1 1 1 1 
1 1 1 1 1 1 1 1 1 
1 1 1 1 1 1 1 1 1 
1 1 1 1 1 1 1 1 1 
1 1 1 1 1 1 1 1 1 
1 1 1 1 1 1 1 1 1 
1 1 1 1 1 1 1 1 1 
1 1 1 1 1 1 1 1 1 
1 1 1 1 1 1 1 1 1 
1 1 1 1 1 1 1 1 1 
1 1 1 1 1 1 1 1 1 
1 1 1 1 1 1 1 1 1 
1 1 1 1 1 1 1 1 1 
1 1 1 1 1 1 1 1 1 
1 1 1 1 1 1 1 1 1 
1 1 1 1 1 1 1 1 1 
1 1 1 1 1 1 1 1 1 
1 1 1 1 1 1 1 1 1 
1 1 1 1 1 1 1 1 1 
1 1 1 1 
NORMALS Normals float
0.0331349 -0.560864 -0.827244 0.181728 -0.403668 -0.896676 -0.0427296 -0.270851 -0.961672 
0.102977 -0.520028 -0.847919 0.0864503 -0.191122 -0.977752 -0.0776286 -0.764559 -0.639862 
-0.127895 -0.598719 -0.790682 0.0655842 -0.70345 -0.707712 -0.250153 -0.379738 -0.890631 
-0.123 -0.631913 -0.765217 0.328644 -0.538064 -0.776196 0.0653733 -0.332097 -0.940977 
0.397987 -0.282704 -0.872746 -0.24648 -0.164732 -0.955045 0.0592113 0.0750382 -0.995421 
0.00941821 -0.837579 -0.546235 -0.0159489 -0.823597 -0.566952 -0.35298 -0.543775 -0.761389 
-0.483899 -0.27859 -0.829596 0.575547 -0.0382007 -0.816876 0.283823 0.0858024 -0.95503 
-0.36169 0.202204 -0.910107 -0.0452422 -0.896052 -0.441638 0.110599 -0.878686 -0.464412 
0.256971 -0.849719 -0.460373 0.344338 -0.926742 -0.150267 0.277833 -0.934779 -0.221354 
-0.0131135 -0.960378 -0.278393 0.241911 -0.732342 -0.636517 0.563803 -0.514685 -0.64593 
-0.73841 -0.0650503 -0.671208 -0.593409 0.0642214 -0.802335 0.787 0.0341768 -0.616006 
0.0655093 0.291957 -0.954185 0.350873 0.287302 -0.891261 -0.328626 0.401242 -0.854991 
0.0173929 0.404129 -0.914536 -0.160402 -0.893658 -0.419103 0.246139 -0.937044 -0.247717 
0.570954 -0.789451 0.225341 0.79767 -0.530998 0.285944 0.456868 -0.800633 -0.387632 
-0.443497 -0.700532 -0.559075 0.473749 -0.72873 0.494484 0.29474 -0.875966 0.381854 
0.766451 -0.462624 0.445569 0.111155 -0.855273 0.506116 0.330499 -0.691912 0.641894 
0.752168 -0.260754 -0.605186 -0.431488 0.355955 -0.828923 -0.170883 0.480412 -0.860234 
0.269168 0.415626 -0.868794 0.211623 -0.664118 -0.717051 -0.207391 -0.92616 -0.314986 
0.115414 -0.908937 -0.400641 0.746931 -0.664841 0.00895387 0.717767 -0.566332 -0.405067 
0.973403 -0.217137 -0.0730672 -0.371432 -0.927386 0.0446443 -0.567806 -0.791477 -0.226188 
0.990541 -0.0532379 0.126468 -0.428688 -0.795405 0.428436 -0.693999 -0.70931 0.123473 
0.924513 -0.158098 0.346816 0.980419 -0.173183 0.0937344 0.803811 -0.454829 -0.38343 
-0.730663 -0.486046 -0.47947 0.758044 -0.58534 0.287656 0.383269 -0.735359 0.558885 
-0.195475 -0.78579 0.586791 0.366003 -0.791911 0.488793 -0.186629 -0.800309 0.569803 
-0.787015 0.0616877 -0.613841 -0.624775 0.172567 -0.761497 0.687833 0.234738 -0.686866 
-0.550637 0.447003 -0.704974 0.113683 0.552428 -0.825772 0.400403 0.413431 -0.817773 
0.385914 -0.584371 -0.713849 -0.340098 -0.792184 -0.506732 0.112033 -0.930787 -0.347972 
0.458063 -0.0576607 -0.887048 0.788307 -0.0904657 -0.608596 -0.64116 -0.581541 -0.500722 
0.933701 0.163692 -0.318447 -0.849748 -0.485773 -0.204824 -0.521225 -0.82939 -0.201089 
0.732637 -0.664728 -0.14622 0.944009 -0.295246 0.147229 0.969215 -0.242818 0.040773 
-0.726363 -0.628643 0.277857 -0.787498 -0.404714 -0.464816 0.403225 -0.801926 0.440823 
0.0600481 -0.876384 0.477855 0.0375708 -0.853254 0.52014 0.902079 -0.355378 -0.244865 
-0.85432 -0.17999 -0.487587 -0.924073 -0.080017 -0.373746 -0.793164 0.183438 -0.580724 
-0.522562 0.470122 -0.711277 -0.120836 -0.928483 -0.351166 0.238083 -0.353552 -0.904609 
-0.0836788 -0.43933 -0.89442 0.118248 -0.80099 -0.586883 -0.108327 -0.764937 -0.63493 
-0.271625 -0.942263 -0.195858 0.65457 0.280508 -0.702035 0.0873875 0.0579647 -0.994487 
-0.248689 0.0230982 -0.968308 -0.489175 0.0827197 -0.868254 -0.444155 -0.391283 -0.805993 
-0.775842 -0.192004 -0.601003 0.423087 -0.868507 -0.258251 0.972138 0.131452 -0.194082 
-0.965702 -0.14812 -0.21326 -0.507387 -0.7946 0.33342 -0.725259 -0.671639 0.15133 
-0.877919 -0.352424 -0.324121 -0.87164 -0.460663 -0.167431 0.61203 -0.74229 0.27281 
-0.272304 -0.8963 0.349994 0.0721962 -0.92903 0.362894 -0.863382 0.147064 -0.482642 
-0.825671 0.315226 -0.467867 0.503274 0.514291 -0.69442 0.217036 0.420345 -0.881025 
-0.226247 0.335886 -0.914326 0.507241 -0.861138 0.0338913 -0.718166 0.184941 -0.670846 
-0.928505 0.0409537 -0.369055 0.960664 0.14062 -0.239481 0.918613 -0.395087 0.00752198 
-0.942353 -0.279658 -0.183746 -0.642556 -0.762104 0.0794977 -0.574472 -0.818057 -0.027662 
0.386128 -0.922075 -0.0261419 -0.207711 -0.950901 0.229442 0.962449 -0.0483157 -0.267129 
0.675883 0.290233 -0.677456 -0.422342 0.444468 -0.789985 -0.0568797 -0.997534 0.0411237 
0.0863824 -0.984824 -0.150531 -0.301614 -0.952603 0.0397107 0.173267 -0.978711 0.110011 
-0.63126 -0.775233 -0.0229238 -0.31793 0.514015 -0.796686 -0.808971 0.283415 -0.515017 
0.928573 0.192527 -0.317311 -0.624075 0.331002 -0.707791 -0.799717 0.172098 -0.575182 
0.914202 -0.357849 -0.190205 -0.803709 -0.551259 -0.223975 0.952786 -0.30017 -0.0457852 
-0.297747 -0.944339 -0.139893 -0.970238 -0.0397747 -0.238866 -0.342414 0.210408 -0.915686 
-0.372126 0.352377 -0.858692 0.57736 0.545207 -0.607787 0.76096 -0.648772 0.00595276 
0.907292 0.0628324 -0.415779 0.869954 0.205507 -0.448271 -0.817188 0.0327216 -0.575441 
0.918039 -0.395559 0.0271558 -0.740072 -0.484849 -0.466062 -0.376418 -0.902098 -0.211017 
-0.998604 -0.0456565 -0.0265692 0.929268 0.111804 -0.35208 -0.591507 0.18241 -0.785396 
-0.0813983 0.458744 -0.884832 -0.517612 0.479566 -0.708586 -0.572938 0.598046 -0.560431 
-0.264664 0.597476 -0.756951 -0.104804 0.736671 -0.668081 0.00208709 0.724118 -0.689673 
0.249027 -0.935889 0.249193 -0.41717 -0.853431 0.312449 -0.735222 -0.662206 0.144681 
0.898429 0.261213 -0.352979 0.383414 0.677509 -0.627675 -0.704193 -0.189919 -0.684137 
0.949842 -0.0619184 -0.306539 0.865103 -0.436815 -0.246556 -0.575265 -0.717614 -0.392556 
-0.349805 -0.862991 -0.364531 0.951478 -0.273544 -0.140937 0.923532 -0.149494 -0.353185 
0.783034 0.377106 -0.49462 0.477033 0.543251 -0.690882 -0.76625 0.420406 -0.485922 
0.305668 0.590648 -0.746794 -0.310086 0.867101 -0.389848 0.161839 0.805571 -0.569969 
0.306129 0.806633 -0.505596 0.0310633 -0.943696 0.329352 0.26136 -0.871922 0.414056 
-0.529908 0.327883 -0.782106 0.777955 0.359001 -0.515659 0.446487 0.492679 -0.746939 
-0.627148 -0.247841 -0.738417 -0.710028 -0.103393 -0.696542 -0.905128 -0.419011 0.0719189 
0.650369 -0.583207 -0.486713 -0.503746 -0.698471 -0.508308 -0.347203 -0.685762 -0.639672 
-0.578674 -0.547479 -0.604486 0.105548 -0.948475 -0.298756 -0.979019 0.196733 -0.0530912 
-0.863105 0.263636 -0.43075 -0.793754 0.232235 -0.562158 0.639068 0.590432 -0.492932 
0.575089 0.592191 -0.564431 -0.120183 0.941186 -0.315794 0.00407631 0.965134 -0.261724 
0.753817 -0.0613249 -0.654216 -0.0393401 0.403937 -0.91394 -0.363101 -0.00461269 -0.931738 
0.763792 -0.601435 0.2343 0.12511 -0.641328 -0.756998 0.993529 -0.0836596 -0.0768146 
-0.862263 0.471686 -0.184433 0.662991 0.673141 -0.327605 -0.683008 0.720977 -0.117016 
0.472663 0.760664 -0.44495 -0.184239 0.975408 -0.120978 -0.127259 -0.905071 0.405772 
-0.531402 -0.628822 0.567622 0.526735 -0.777332 0.343955 0.791147 0.549479 -0.268625 
0.290035 0.928457 -0.23205 -0.881529 -0.357194 0.308738 0.947449 -0.310359 0.0775769 
-0.993337 0.113849 -0.017908 -0.949176 0.312272 -0.0393958 0.543485 0.838328 -0.0427769 
-0.513434 0.851966 0.102659 0.206445 0.976808 0.0568023 -0.212065 0.97167 0.104331 
0.544125 -0.675669 0.497393 0.760918 -0.540708 0.358663 -0.773346 -0.360737 0.52135 
-0.960881 -0.0165145 0.27647 0.696761 0.712756 0.0806393 -0.170781 -0.79261 0.585323 
0.894204 -0.269321 0.357583 0.981155 -0.0279718 0.191185 0.986718 0.0935294 0.132812 
0.950296 0.311155 -0.0109498 0.0291498 0.962229 0.270676 0.229938 -0.791971 0.565606 
0.612544 -0.635056 0.470631 0.954874 0.162934 0.248332 -0.968267 0.0204109 0.249082 
-0.888141 0.340592 0.308549 -0.786868 0.545817 0.287964 0.788303 -0.463408 0.404762 
-0.922402 0.0846506 0.376842 -0.392891 0.770892 0.50136 0.385144 0.861331 0.331321 
0.684786 -0.391969 0.614352 0.899781 -0.150874 0.409428 -0.70434 -0.324978 0.631105 
-0.892531 0.0415041 0.449072 0.848709 0.455549 0.268642 0.14549 -0.638564 0.755691 
0.487149 -0.567362 0.663917 -0.698632 0.424881 0.575665 -0.0320627 -0.612458 0.789853 
0.796086 -0.264975 0.544092 -0.508018 -0.448553 0.735336 0.838846 -0.157431 0.521108 
0.84908 -0.00601995 0.528231 -0.603646 -0.263569 0.752425 -0.763477 -0.161497 0.625318 
0.895798 0.154283 0.416825 0.706378 0.485469 0.515122 0.58416 0.684038 0.436862 
-0.319278 0.711152 0.626358 0.0615277 0.849931 0.523289 -0.748483 0.140276 0.648148 
-0.166248 0.514804 0.841034 -0.0165695 0.731418 0.681729 0.54105 0.423106 0.726806 
-0.503761 0.420878 0.754378 0.435162 0.594714 0.67598 0.0820644 -0.377992 0.922164 
0.394192 -0.460811 0.795151 0.719101 0.177352 0.671893 -0.406181 0.134545 0.903833 
0.386745 0.415692 0.823182 0.238018 0.704416 0.66869 0.523269 -0.210796 0.825684 
0.429521 -0.122929 0.894651 -0.218737 0.0919708 0.97144 0.54165 0.073201 0.837411 
-0.118531 -0.25418 0.959866 0.0684371 -0.105732 0.992037 -0.061794 0.0766869 0.995138 
0.202327 0.230215 0.951874 0.0647493 0.452152 0.889588 0.114977 -0.111771 -0.98706 
0.384701 0.0347066 -0.922389 -0.153585 0.142383 -0.977823 0.0165223 0.132038 -0.991107 
0.320569 0.220238 -0.921266 0.342495 0.118593 -0.932005 0.318476 0.40702 -0.8561 
0.457216 -0.393412 -0.797609 0.162264 -0.348468 -0.923169 -0.336292 -0.0539562 -0.940211 
0.0068138 0.359158 -0.933252 -0.0718288 0.491368 -0.867985 0.26985 0.313431 -0.910462 
-0.243655 -0.334675 -0.910289 0.592139 -0.118033 -0.797145 0.797103 -0.129583 -0.589775 
0.753038 0.181153 -0.632548 -0.470342 0.182501 -0.863407 0.611057 0.294598 -0.734725 
0.456437 -0.372081 -0.808221 0.785612 -0.086164 -0.612691 0.0452577 -0.450131 -0.891815 
0.447696 -0.469698 -0.760889 0.770596 -0.211244 -0.601296 0.892768 -0.0534874 -0.447331 
-0.731295 0.292427 -0.616193 0.459733 0.655592 -0.599037 0.299716 -0.62954 -0.716833 
0.905077 0.0482954 -0.422496 0.0245087 0.693512 -0.720028 0.316638 0.796867 -0.514532 
-0.110685 -0.64935 -0.752392 0.734773 -0.440852 -0.515518 0.79342 0.484703 -0.368169 
-0.336996 0.735972 -0.587178 0.334234 -0.677639 -0.655052 -0.418612 -0.433013 -0.798288 
0.927559 -0.12743 -0.351277 -0.749369 0.481481 -0.454557 -0.674324 0.592865 -0.440225 
0.0293639 0.899331 -0.436282 0.247627 -0.759862 -0.601075 -0.620341 -0.446166 -0.645068 
-0.712322 -0.147644 -0.686148 0.962665 0.190338 -0.192476 0.888337 0.452558 -0.0777728 
-0.886797 0.369765 -0.277247 0.434181 0.846959 -0.306834 0.616943 -0.619718 -0.485109 
-0.634523 0.714263 -0.295313 -0.145864 0.970239 -0.193288 -0.733609 -0.428914 -0.527115 
-0.449695 -0.544621 -0.707928 0.94749 -0.268237 -0.174099 -0.995953 0.0138418 -0.0888014 
-0.890083 0.450331 -0.07039 -0.805916 0.568408 -0.165564 -0.517642 0.828138 -0.21502 
0.145447 0.986882 -0.0700655 -0.290957 -0.696217 -0.656221 0.528553 -0.687491 -0.497983 
-0.50159 -0.664982 -0.55336 -0.924946 -0.159723 -0.344911 0.983027 -0.168244 -0.0731594 
0.989407 0.0569236 -0.13354 0.792921 0.449447 0.41143 0.630866 0.771664 -0.0808868 
0.0621455 -0.854285 -0.516076 -0.481743 -0.78617 -0.387117 -0.992991 -0.0483402 -0.107857 
-0.973613 0.107801 -0.20114 -0.972526 0.178566 0.149358 -0.972654 0.138572 0.186392 
-0.831193 0.555166 -0.0301415 -0.635298 0.772162 0.0127708 0.376411 0.925554 0.040789 
-0.271675 0.959908 0.0690651 -0.1995 -0.905866 -0.37364 0.404914 -0.845999 -0.346886 
0.528215 -0.715155 -0.457758 -0.649224 -0.696007 -0.306727 -0.966538 -0.183247 -0.179512 
0.990109 -0.10538 0.0926195 -0.955809 0.202007 0.213595 0.674611 0.701005 0.231282 
-0.418684 0.892869 0.1658 -0.418278 -0.859782 -0.29295 0.434666 -0.820988 -0.370195 
0.706668 -0.606869 -0.363773 0.892925 -0.406888 -0.192685 -0.830082 -0.486726 -0.272143 
0.979441 0.0220919 0.200516 0.924611 0.285907 0.251697 -0.663898 0.281062 0.692996 
-0.895082 0.271254 0.353906 0.611834 0.618698 0.492821 -0.808662 0.537024 0.240148 
-0.75432 0.606238 0.251945 -0.183622 0.930131 0.318023 0.0527631 0.939594 0.3382 
0.0660878 -0.953054 -0.295501 0.320973 -0.94277 -0.0903407 0.325189 -0.912173 -0.249383 
0.665333 -0.736513 -0.121989 0.48092 0.409581 0.775216 0.234222 0.450602 0.861451 
0.0909227 0.30026 0.949514 -0.320277 0.0848688 0.943515 -0.369644 0.227679 0.900847 
-0.858238 -0.503211 -0.101024 0.686929 0.0981898 0.72006 0.338993 0.00784697 0.940756 
-0.0314372 -0.108072 0.993646 0.683895 -0.443099 0.579612 0.401067 -0.392905 0.827509 
-0.455931 -0.37508 0.80712 0.140625 -0.602062 0.785968 -0.150861 -0.722207 0.675025 
-0.756652 0.190856 0.625341 -0.788343 0.184846 0.586811 -0.801248 0.380451 0.4618 
-0.770491 0.507361 0.385912 -0.403949 0.824187 0.396914 0.659174 -0.75197 0.00553142 
0.813739 0.122269 0.568225 -0.101732 0.570337 0.815087 -0.756995 -0.652435 0.0358727 
-0.447412 0.578933 0.681659 -0.618338 0.371644 0.692488 0.752658 -0.607104 0.254815 
-0.683903 0.00427454 0.729561 -0.641473 -0.45395 0.618419 0.899103 -0.435918 0.0398785 
-0.912844 -0.404321 -0.0569276 0.26403 -0.849208 0.457312 -0.0915998 -0.920974 0.378705 
0.0109032 -0.985901 0.166974 -0.407243 -0.744325 0.529276 -0.992589 0.0603196 0.105497 
0.979153 -0.0327525 0.200467 -0.907018 0.25944 0.331676 -0.731112 0.227593 0.643177 
-0.54887 0.124589 0.826571 0.470699 0.325389 0.8201 -0.668458 0.393754 0.630969 
0.416037 0.546972 0.726454 -0.586407 0.708588 0.392467 -0.306474 0.807524 0.503964 
-0.332405 0.615942 0.714229 0.114762 0.869117 0.481108 -0.138511 0.868289 0.476329 
-0.205367 -0.97429 -0.0926496 0.026061 -0.998734 0.0430294 -0.479976 -0.877131 -0.0162263 
-0.652515 -0.755632 -0.0569621 0.409946 0.395839 0.821739 -0.565109 0.328927 0.75661 
0.959533 -0.152615 0.236655 -0.860502 0.0228856 0.508933 0.907846 -0.159366 0.387837 
0.878744 -0.453725 0.148131 -0.805662 -0.401461 0.435589 0.3846 -0.913814 0.130485 
-0.525481 -0.801984 0.284064 -0.86572 -0.425723 0.263227 -0.161816 -0.984415 -0.0688663 
-0.550866 -0.832701 0.0561692 0.988301 -0.123239 0.0898511 -0.980139 -0.126129 0.153031 
-0.329032 0.286095 0.899937 0.408047 0.34077 0.846979 -0.171588 0.521456 0.835847 
0.0737657 0.600581 0.796154 0.00539378 -0.921856 0.387495 0.127687 -0.979559 0.155438 
0.289224 0.314846 0.904003 -0.216449 0.408062 0.886925 0.700616 0.190289 0.687697 
0.816667 0.223552 0.532052 -0.878503 0.085951 0.469941 -0.976666 -0.128713 0.171917 
0.863804 -0.503669 -0.0126697 -0.967716 -0.24316 0.0663232 -0.945223 -0.206114 0.25312 
0.960732 -0.120268 0.250058 -0.983963 0.0980587 0.149 -0.821029 0.353531 0.448248 
-0.65047 0.47165 0.595345 0.0334683 0.299129 0.953626 -0.0207297 -0.974794 0.222142 
0.107911 -0.808039 0.579162 -0.335022 -0.927819 0.164051 0.614238 -0.0921805 0.783718 
0.487781 0.233913 0.841043 0.43463 -0.100406 0.894995 0.200291 0.0218234 0.979493 
-0.199232 0.0878648 0.976005 0.346929 -0.90842 0.233267 0.531598 -0.832257 0.157326 
-0.580282 -0.799396 0.155689 -0.66013 0.121881 0.741197 -0.890277 -0.16001 0.426385 
0.988342 -0.0746167 0.132711 -0.805773 -0.582936 -0.104477 -0.864409 -0.457695 -0.208119 
-0.662769 -0.742827 -0.0945774 -0.203055 -0.941258 -0.269817 -0.88544 0.1692 0.43286 
0.826367 0.28365 0.486477 -0.016958 -0.953035 0.302385 0.298598 -0.369744 0.879845 
-0.0431631 -0.321639 0.945878 -0.181545 -0.595578 0.782514 -0.198379 -0.795527 0.572523 
-0.0290903 -0.908877 0.416049 0.866745 -0.272576 0.417679 -0.394551 -0.175978 0.901865 
-0.671163 -0.415758 0.613747 -0.868559 -0.363601 0.336749 -0.761871 -0.621357 0.182943 
-0.937626 -0.335935 0.0894725 -0.966884 -0.250068 -0.0510001 -0.883029 -0.392838 0.256784 
-0.554003 -0.766031 -0.326002 0.327185 -0.917305 -0.226939 -0.112194 -0.898988 -0.42336 
0.888727 -0.105433 0.446148 -0.588968 0.319165 0.742463 0.500935 -0.684516 0.529625 
0.803428 -0.595164 0.0168528 -0.446011 -0.771003 0.454564 -0.743377 -0.577823 0.336914 
0.486383 -0.837521 0.248979 -0.788685 -0.610699 0.0708673 -0.565705 -0.766371 -0.30439 
-0.695366 -0.598744 -0.397457 -0.848251 -0.335694 0.409609 0.938406 -0.302136 -0.167655 
-0.55777 -0.740054 -0.375784 -0.289806 -0.78657 -0.545272 0.871347 -0.399345 0.285093 
0.779577 -0.585345 -0.222779 0.848975 0.0833538 0.521818 -0.747114 0.154947 0.646384 
-0.745422 0.283905 0.603111 0.315151 -0.627647 0.711856 0.253511 -0.916135 0.31053 
0.0781407 -0.923748 0.374944 0.718304 -0.601233 -0.350083 -0.517674 -0.845699 0.129642 
0.485968 -0.790294 0.373189 0.89051 -0.331698 -0.311397 -0.425079 -0.879264 -0.21495 
0.773944 -0.520001 0.361399 0.570796 -0.383198 -0.72619 -0.235412 -0.686023 -0.688443 
-0.415978 -0.723855 -0.550452 0.616459 -0.56755 -0.54577 0.0779186 -0.739248 -0.668911 
-0.0120124 -0.715893 -0.698107 0.550394 0.149439 0.821422 -0.174538 -0.940695 0.290911 
0.615577 -0.732135 -0.291622 -0.357126 -0.78779 0.501844 0.422978 -0.76184 -0.490601 
0.34107 -0.938378 -0.055833 0.133961 -0.963119 -0.233358 -0.0692238 -0.995305 -0.0676459 
-0.22192 -0.973726 -0.0510758 0.127491 -0.928302 0.349286 0.431305 -0.762497 0.48226 
-0.558262 -0.71294 0.424335 0.419505 -0.564135 -0.711173 0.094677 -0.779013 -0.619819 
-0.209594 -0.907822 -0.36322 0.422007 -0.448771 -0.787728 0.156529 -0.611366 -0.775713 
-0.265743 -0.730299 -0.62932 0.67949 -0.471673 0.561977 0.536943 -0.455928 -0.709805 
-0.745935 -0.286464 0.601264 0.716679 -0.152152 0.680603 -0.76135 -0.0536747 0.646116 
0.602741 0.0647444 0.795305 0.594519 0.320464 0.737461 0.154705 0.289446 0.94461 
0.14834 -0.988603 0.0256806 0.0731136 -0.932089 0.354773 0.17931 -0.967853 0.176379 
0.420066 -0.665131 0.617369 -0.586596 -0.205888 0.783272 0.532331 0.134255 0.835823 
-0.0832043 -0.835201 0.543614 0.184395 -0.722216 0.666635 -0.409774 -0.380307 0.829127 
0.494175 -0.207265 0.844294 -0.442719 -0.160287 0.882218 -0.564818 0.0189814 0.824997 
-0.329663 0.0940038 0.939407 0.38278 0.109883 0.917281 -0.0362032 -0.630511 0.775336 
0.381599 -0.544297 0.747077 0.184983 -0.100158 0.977625 0.173163 0.111753 0.978533 
-0.223068 0.297652 0.928248 0.0997426 -0.29985 0.948758 0.197916 -0.243304 0.949543 
-0.13147 -0.199865 0.970963 
