# vtk DataFile Version 4.2
vtk output
ASCII
DATASET POLYDATA
POINTS 1311 float
479.012 159.54 146.628 478.926 159.437 146.73 478.919 159.52 146.665 
478.998 159.605 146.576 478.934 159.582 146.608 478.953 159.61 146.571 
479.16 159.628 146.597 479.035 159.631 146.621 479.185 159.69 146.635 
479.157 159.674 146.579 479.361 159.712 146.614 480.411 159.987 146.714 
480.455 159.89 146.821 480.296 159.94 146.725 480.553 159.979 146.815 
479.338 159.734 146.625 480.358 160.014 146.671 480.318 160 146.706 
480.427 160.029 146.711 480.369 160.036 146.667 478.858 159.406 146.751 
478.849 159.389 146.784 478.87 159.425 146.777 479.057 159.315 146.946 
479.572 159.523 146.987 480.28 159.659 146.993 480.041 159.695 147.026 
480.026 159.854 146.778 479.748 159.716 146.838 480.779 160.01 146.938 
479.524 159.766 146.735 479.941 159.856 146.87 480.504 160.023 146.884 
480.848 160.123 147.001 480.837 160.103 146.946 480.981 160.137 147.014 
481.164 160.128 147.188 480.913 160.145 146.977 478.88 159.355 146.892 
478.974 159.218 147.158 478.94 159.371 147.051 480.372 159.391 147.22 
480.733 158.994 147.602 479.923 159.45 147.138 481.123 159.377 147.501 
479.502 159.665 147.128 479.63 159.726 146.898 479.819 159.666 147.225 
479.919 159.773 147.023 480.133 159.845 147.445 481.576 159.953 147.578 
480.459 159.975 147.305 480.984 160.146 147.065 481.405 160.107 147.395 
481.384 160.156 147.354 479.099 158.489 148.324 479.263 159.481 147.702 
479.826 159.762 147.799 481.918 159.982 147.828 481.906 159.742 147.892 
482.124 160.022 147.919 482.191 160.002 147.96 481.66 160.088 147.816 
482.123 160.05 148.117 482.039 160.055 147.929 482.186 160.035 147.996 
482.199 160.024 147.962 482.166 160.049 148.038 480.052 157.167 149.197 
479.098 157.367 149.406 478.917 158.007 149.025 478.803 158.028 149.178 
481.701 158.111 148.693 478.837 158.226 149.119 478.97 158.72 148.733 
482.558 158.588 148.932 479.146 159.183 148.364 483.236 159.15 149.289 
482.434 159.73 148.413 482.249 159.967 148.065 481.155 160.149 148.597 
482.428 159.985 148.72 482.274 159.986 148.203 479.871 156.505 149.968 
478.705 157.395 149.925 478.752 157.997 149.326 478.659 157.85 149.762 
483.119 157.864 149.739 478.791 158.502 149.635 479.76 159.688 149.076 
480.254 159.95 149.519 483.115 159.624 149.232 481.808 160.277 149.441 
483.381 159.938 149.88 484.037 159.738 150.303 479.252 156.204 150.522 
479.656 155.688 150.876 482.07 156.294 150.37 481.989 156.098 150.498 
478.244 155.977 151.446 481.045 156.65 149.757 478.141 156.509 151.259 
478.427 157.152 150.561 478.566 158.114 150.095 479.177 159.31 150.641 
484.104 159.215 150.077 484.595 159.587 150.752 478.965 155.201 151.598 
478.075 155.154 152.232 480.211 155.247 151.28 481.349 155.575 150.966 
477.983 155.651 151.946 477.59 155.907 152.278 483.653 156.205 151.374 
477.652 157 151.904 477.982 157.561 151.39 478.253 158.087 151.064 
484.675 158.436 150.693 478.826 159.037 151.002 485.148 158.761 151.054 
485.763 158.414 151.607 479.523 159.707 151.249 480.132 160.019 150.929 
486.123 159.29 151.948 485.326 160.143 151.949 479.11 154.318 152.483 
481.676 154.702 152.013 477.77 154.92 152.724 477.099 156.59 152.808 
477.664 158.091 152.494 478.66 159.058 151.655 486.255 158.693 151.97 
486.668 159.749 152.607 480.69 153.472 153.15 476.634 156.924 153.577 
488.501 157.706 153.844 478.283 159.454 153.521 489.157 158.874 154.263 
483.047 161.257 153.283 484.435 161.222 153.302 485.238 161.087 153.357 
488.036 160.168 154.047 484.593 154.613 153.352 474.815 155.196 155.72 
487.009 156.18 153.528 490.366 158.107 155.237 490.276 159.69 155.352 
483.721 161.562 154.083 487.961 160.852 154.648 476.63 152.749 155.659 
474.035 154.176 156.882 474.95 154.717 155.808 474.975 155.659 155.616 
488.952 155.372 155.365 489.685 156.836 155.078 474.908 157.25 156.348 
491.512 158.748 156.178 486.943 161.623 155.115 489.409 160.984 155.703 
482.208 161.967 155.801 480.761 151.634 155.438 482.678 151.3 156.284 
473.859 154.078 157.248 474.282 153.836 156.899 474.077 155.677 156.809 
476.78 159.678 156.578 479.101 150.393 157.564 473.815 153.707 157.585 
490.187 154.783 156.742 473.264 155.056 158.102 493.048 158.168 157.688 
493.324 158.426 158.03 493.178 159.587 158.211 491.628 160.551 157.112 
488.607 162.479 157.484 490.652 162.081 158.167 488.075 152.249 158.019 
472.991 154.277 158.707 493.171 156.456 158.558 473.062 156.327 158.945 
494.181 157.326 159.56 474.457 158.386 158.355 493.857 159.455 159.148 
490 162.699 158.896 482.544 149.649 158.848 476.626 150.108 159.085 
473.253 152.44 159.443 494.324 157.467 159.889 494.398 157.841 159.998 
494.434 158.774 160.241 494.257 159.33 160.121 479.652 162.405 159.354 
493.618 160.291 159.611 492.208 161.632 159.24 485.03 163.762 160.059 
488.63 163.377 159.632 490.958 153.209 159.69 472.013 154.872 160.436 
494.284 156.918 160.443 494.569 158.449 160.663 476.426 160.777 159.643 
481.751 163.376 160.286 481.256 148.541 160.733 473.773 150.413 161.063 
488.629 150.969 160.929 491.535 153.412 160.289 494.657 158.55 161.291 
493.525 161.294 161.404 477.566 148.398 161.976 479.675 147.97 162.323 
484.19 148.569 161.956 471.977 151.511 162.09 471.324 152.782 162.303 
492.421 153.608 162.448 471 153.219 162.747 494.443 156.849 162.279 
494.662 159.285 162.165 494.511 159.896 162.245 480.477 163.782 162.763 
490.878 163.38 161.748 486.412 149.068 162.947 473.349 149.711 162.62 
489.153 150.754 162.869 494.746 158.194 162.736 472.659 158.672 162.85 
475.546 161.403 163.016 494.516 160.183 163.144 493.714 161.579 162.962 
491.976 162.982 162.502 482.643 164.629 163.891 476.285 147.58 164.45 
471.452 150.486 164.304 470.216 154.871 164.513 493.738 155.212 164.01 
470.971 156.379 163.666 494.725 159.598 163.879 493.386 162.241 164.117 
488.089 164.673 164.299 491.84 163.301 163.615 476.615 147.031 165.718 
470.895 150.246 165.578 470.056 151.952 165.313 469.257 152.739 166.554 
492.582 153.606 165.641 471.435 149.067 166.698 494.867 159.135 166.587 
491.38 164.105 166.73 487.767 165.566 167.624 475.196 146.421 168.611 
469.895 149.663 168.241 468.9 155.645 168.308 494.377 161.697 168.182 
490.773 164.681 167.928 483.513 165.765 167.815 482.276 145.489 169.914 
468.519 151.68 168.741 494.899 159.223 168.57 494.7 161.022 169.188 
471.299 147.52 170.252 468.121 150.413 170.661 491.701 152.599 170.177 
468.774 157.027 170.229 494.594 157.428 170 494.862 160.532 170.04 
493.733 162.892 169.559 491.099 164.949 169.581 485.176 166.552 170.701 
481.018 144.45 171.88 469.698 148.082 171.445 468.494 149.478 170.988 
467.179 152.109 171.88 467.693 151.923 170.65 467.498 154.785 171.408 
494.948 160.016 170.739 473.365 162.138 171.029 494.541 161.979 171.444 
478.563 165.02 170.61 488.916 166.144 171.097 481.439 144.511 171.859 
466.769 152.707 172.903 494.081 156.29 171.835 494.912 160.776 171.942 
494.129 163.065 172.225 492.2 164.741 171.582 479.864 144.19 172.828 
483.891 144.983 173.517 473.384 145.543 173.469 467.837 149.424 172.766 
467.058 150.865 172.983 494.984 159.546 172.327 481.206 166.679 173.626 
467.783 148.725 174.046 488.886 149.153 173.334 467.627 157.634 174.323 
494.62 157.73 174.385 470.126 160.26 173.661 491.905 165.608 173.987 
492.467 165.111 173.71 485.171 167.496 174.351 482.69 143.934 175.148 
495.073 161.003 174.885 494.479 163.208 174.804 480.247 142.891 176.757 
484.194 144.452 176.085 469.179 146.78 175.796 469.854 146.171 176.669 
490.833 166.898 175.948 480.82 142.508 177.844 481.785 142.886 177.247 
485.14 145.049 176.452 476.275 165.498 177.166 492.621 165.92 176.478 
491.837 166.492 176.421 486.498 145.995 177.711 494.77 158.177 178.47 
495.038 159.182 176.474 494.281 164.688 178.475 481.67 142.103 179.887 
482.742 142.874 178.572 470.621 145.236 179.139 465.847 148.922 178.948 
491.05 151.207 178.121 464.493 154.456 179.633 495.259 160.989 178.634 
493.509 166.115 179.391 491.72 167.312 178.533 480.509 141.901 180.426 
477.548 142.673 180.005 488.623 147.998 179.861 464.503 151.143 179.96 
465.65 157.67 179.53 495.261 162.474 180.053 494.422 165.166 180.238 
486.334 169.377 180.851 481.49 141.846 181.16 467.648 146.397 180.778 
468.637 145.707 181.121 465.824 147.933 180.892 463.305 154.085 182.376 
466.183 158.784 180.022 467.028 160.439 181.608 482.349 142.092 181.625 
474.51 143.375 182.208 487.181 146.186 182.06 465.465 147.972 181.564 
463.575 151.186 182.152 464.461 157.085 181.803 464.569 157.541 182.183 
478.237 167.681 182.023 484.26 143.248 182.541 495.179 159.675 182.32 
495.386 162.176 182.504 480.093 141.51 184.084 468.062 145.024 184.358 
465.715 146.677 183.558 462.305 152.276 184.76 470.636 164.313 184.582 
494.868 165.26 184.171 478.392 168.165 183.587 493.885 166.96 183.77 
491.648 169.183 184.034 489.828 170.174 184.563 463.633 147.806 185.218 
463.253 148.435 185.157 493.637 155.901 185.07 466.158 160.75 184.725 
495.021 164.886 184.484 481.377 169.41 184.251 493.026 168.436 185.403 
490.522 170.223 185.41 478.553 141.533 185.675 467.469 144.732 185.966 
464.325 146.473 186.077 486.848 145.809 186.356 491.095 151.37 185.83 
491.264 170.249 186.431 485.64 171.022 186.589 482.672 142.132 187.653 
464.061 145.366 188.564 461.345 155.625 188.372 462.519 157.67 187.889 
463.415 159.128 188.181 492.063 170.467 188.16 462.005 146.811 188.982 
490.504 150.941 189.284 495.075 164.087 188.59 494.846 161.034 189.179 
495.051 162.783 189.167 469.303 164.967 190.215 489.334 172.339 190.675 
479.028 140.636 191.519 480.39 140.977 190.825 482.112 141.722 191.254 
465.338 143.418 191.6 483.717 142.887 190.744 485.099 144.228 190.986 
459.701 151.345 190.761 460.557 156.931 191.787 493.552 157.134 190.956 
494.667 160.978 191.019 493.077 170.547 191.004 492.186 171.355 191.302 
477.754 140.463 192.061 477.111 140.46 192.19 479.456 140.595 192.302 
494.029 169.508 192.448 467.445 142.098 193.338 462.771 144.141 193.118 
[...]
POINT_DATA 1311
SCALARS scalars float
LOOKUP_TABLE default
1 1 1 1 1 1 1 1 1 
1 1 1 1 1 1 1 1 1 
1 1 1 1 1 1 1 1 1 
1 1 1 1 1 1 1 1 1 
1 1 1 1 1 1 1 1 1 
1 1 1 1 1 1 1 1 1 
1 1 1 1 1 1 1 1 1 
1 1 1 1 1 1 1 1 1 
1 1 1 1 1 1 1 1 1 
1 1 1 1 1 1 1 1 1 
1 1 1 1 1 1 1 1 1 
1 1 1 1 1 1 1 1 1 
1 1 1 1 1 1 1 1 1 
1 1 1 1 1 1 1 1 1 
1 1 1 1 1 1 1 1 1 
1 1 1 1 1 1 1 1 1 
1 1 1 1 1 1 1 1 1 
1 1 1 1 1 1 1 1 1 
1 1 1 1 1 1 1 1 1 
1 1 1 1 1 1 1 1 1 
1 1 1 1 1 1 1 1 1 
1 1 1 1 1 1 1 1 1 
1 1 1 1 1 1 1 1 1 
1 1 1 1 1 1 1 1 1 
1 1 1 1 1 1 1 1 1 
1 1 1 1 1 1 1 1 1 
1 1 1 1 1 1 1 1 1 
1 1 1 1 1 1 1 1 1 
1 1 1 1 1 1 1 1 1 
1 1 1 1 1 1 1 1 1 
1 1 1 1 1 1 1 1 1 
1 1 1 1 1 1 1 1 1 
1 1 1 1 1 1 1 1 1 
1 1 1 1 1 1 1 1 1 
1 1 1 1 1 1 1 1 1 
1 1 1 1 1 1 1 1 1 
1 1 1 1 1 1 1 1 1 
1 1 1 1 1 1 1 1 1 
1 1 1 1 1 1 1 1 1 
1 1 1 1 1 1 1 1 1 
1 1 1 1 1 1 1 1 1 
1 1 1 1 1 1 1 1 1 
1 1 1 1 1 1 1 1 1 
1 1 1 1 1 1 1 1 1 
1 1 1 1 1 1 1 1 1 
1 1 1 1 1 1 1 1 1 
1 1 1 1 1 1 1 1 1 
1 1 1 1 1 1 1 1 1 
1 1 1 1 1 1 1 1 1 
1 1 1 1 1 1 1 1 1 
1 1 1 1 1 1 1 1 1 
1 1 1 1 1 1 1 1 1 
1 1 1 1 1 1 1 1 1 
1 1 1 1 1 1 1 1 1 
1 1 1 1 1 1 1 1 1 
1 1 1 1 1 1 1 1 1 
1 1 1 1 1 1 1 1 1 
1 1 1 1 1 1 1 1 1 
1 1 1 1 1 1 1 1 1 
1 1 1 1 1 1 1 1 1 
1 1 1 1 1 1 1 1 1 
1 1 1 1 1 1 1 1 1 
1 1 1 1 1 1 1 1 1 
1 1 1 1 1 1 1 1 1 
1 1 1 1 1 1 1 1 1 
1 1 1 1 1 1 1 1 1 
1 1 1 1 1 1 1 1 1 
1 1 1 1 1 1 1 1 1 
1 1 1 1 1 1 1 1 1 
1 1 1 1 1 1 1 1 1 
1 1 1 1 1 1 1 1 1 
1 1 1 1 1 1 1 1 1 
1 1 1 1 1 1 1 1 1 
1 1 1 1 1 1 1 1 1 
1 1 1 1 1 1 1 1 1 
1 1 1 1 1 1 1 1 1 
1 1 1 1 1 1 1 1 1 
1 1 1 1 1 1 1 1 1 
1 1 1 1 1 1 1 1 1 
1 1 1 1 1 1 1 1 1 
1 1 1 1 1 1 1 1 1 
1 1 1 1 1 1 1 1 1 
1 1 1 1 1 1 1 1 1 
1 1 1 1 1 1 1 1 1 
1 1 1 1 1 1 1 1 1 
1 1 1 1 1 1 1 1 1 
1 1 1 1 1 1 1 1 1 
1 1 1 1 1 1 1 1 1 
1 1 1 1 1 1 1 1 1 
1 1 1 1 1 1 1 1 1 
1 1 1 1 1 1 1 1 1 
1 1 1 1 1 1 1 1 1 
1 1 1 1 1 1 1 1 1 
1 1 1 1 1 1 1 1 1 
1 1 1 1 1 1 1 1 1 
1 1 1 1 1 1 1 1 1 
1 1 1 1 1 1 1 1 1 
1 1 1 1 1 1 1 1 1 
1 1 1 1 1 1 1 1 1 
1 1 1 1 1 1 1 1 1 
1 1 1 1 1 1 1 1 1 
1 1 1 1 1 1 1 1 1 
1 1 1 1 1 1 1 1 1 
1 1 1 1 1 1 1 1 1 
1 1 1 1 1 1 1 1 1 
1 1 1 1 1 1 1 1 1 
1 1 1 1 1 1 1 1 1 
1 1 1 1 1 1 1 1 1 
1 1 1 1 1 1 1 1 1 
1 1 1 1 1 1 1 1 1 
1 1 1 1 1 1 1 1 1 
1 1 1 1 1 1 1 1 1 
1 1 1 1 1 1 1 1 1 
1 1 1 1 1 1 1 1 1 
1 1 1 1 1 1 1 1 1 
1 1 1 1 1 1 1 1 1 
1 1 1 1 1 1 1 1 1 
1 1 1 1 1 1 1 1 1 
1 1 1 1 1 1 1 1 1 
1 1 1 1 1 1 1 1 1 
1 1 1 1 1 1 1 1 1 
1 1 1 1 1 1 1 1 1 
1 1 1 1 1 1 1 1 1 
1 1 1 1 1 1 1 1 1 
1 1 1 1 1 1 1 1 1 
1 1 1 1 1 1 1 1 1 
1 1 1 1 1 1 1 1 1 
1 1 1 1 1 1 1 1 1 
1 1 1 1 1 1 1 1 1 
1 1 1 1 1 1 1 1 1 
1 1 1 1 1 1 1 1 1 
1 1 1 1 1 1 1 1 1 
1 1 1 1 1 1 1 1 1 
1 1 1 1 1 1 1 1 1 
1 1 1 1 1 1 1 1 1 
1 1 1 1 1 1 1 1 1 
1 1 1 1 1 1 1 1 1 
1 1 1 1 1 1 1 1 1 
1 1 1 1 1 1 1 1 1 
1 1 1 1 1 1 1 1 1 
1 1 1 1 1 1 1 1 1 
1 1 1 1 1 1 1 1 1 
1 1 1 1 1 1 1 1 1 
1 1 1 1 1 1 1 1 1 
1 1 1 1 1 1 1 1 1 
1 1 1 1 1 1 
NORMALS Normals float
0.0571658 -0.686015 -0.725338 -0.00826952 -0.689515 -0.724225 -0.234724 -0.625378 -0.744183 
0.00348809 -0.62076 -0.783993 -0.091585 -0.720488 -0.687393 -0.0371648 -0.781931 -0.622257 
0.273641 -0.618297 -0.736769 -0.311561 0.950063 -0.0175793 -0.356103 0.922339 0.149938 
-0.140471 0.629333 -0.764335 0.304668 -0.423724 -0.853015 0.408113 -0.499325 -0.764277 
0.365848 -0.645048 -0.670871 -0.00835708 -0.550028 -0.835105 0.591503 0.105753 -0.799338 
-0.150412 0.93437 -0.323001 -0.0227931 -0.279658 -0.959829 -0.660642 0.521297 -0.540186 
0.632345 0.263449 -0.728515 -0.199894 0.810667 -0.550328 -0.709188 0.678746 -0.190674 
-0.723194 -0.641816 -0.255076 -0.873646 0.486375 -0.013502 0.0998154 -0.769543 -0.630746 
0.702991 -0.284807 -0.651681 0.112847 -0.720907 -0.683782 -0.421943 -0.707564 -0.566849 
-0.0776859 -0.0231169 -0.99671 0.254617 -0.915113 -0.312631 0.39711 -0.339823 -0.85254 
-0.227396 0.942327 0.245581 -0.307837 0.939402 0.150867 -0.12677 0.987594 -0.0926675 
-0.376658 0.897875 0.227923 0.149897 0.383055 -0.911482 0.567668 0.187501 -0.801621 
0.262659 0.927397 -0.266356 0.00413542 0.920843 -0.389911 -0.934277 0.160079 0.318594 
-0.833595 -0.539303 -0.119461 -0.775334 0.562016 0.288091 0.104047 -0.590198 -0.800525 
0.258059 -0.647546 -0.717001 0.0445243 -0.43047 -0.901506 0.534529 -0.440588 -0.721222 
0.025313 0.99652 0.0794243 -0.0469927 0.797131 0.601974 -0.152359 0.819943 -0.551798 
-0.157489 -0.941526 0.29787 -0.386542 0.912544 -0.133595 0.647311 0.00101966 -0.762226 
-0.29111 0.954569 0.0636692 -0.0756957 0.983825 0.162355 0.757165 -0.0711406 -0.649338 
0.740869 -0.208647 -0.638419 -0.73465 -0.503775 -0.454423 -0.543723 0.825424 0.151792 
-0.338105 0.939653 -0.0523158 0.434056 0.239561 -0.868451 0.558485 -0.411775 -0.720094 
0.381596 0.519447 -0.764565 0.631159 -0.251859 -0.733625 0.243655 0.943328 -0.22531 
0.187729 0.981956 0.0227997 0.198416 0.907354 -0.370595 0.478854 0.857478 -0.188229 
0.718959 0.433155 -0.543576 0.283361 0.958897 -0.0149567 -0.16071 -0.715168 -0.680226 
-0.59466 -0.566232 -0.570755 -0.787696 -0.395129 -0.47266 -0.855824 -0.242622 -0.456838 
0.318248 -0.592298 -0.740204 -0.953178 0.0594973 -0.296501 -0.993239 0.051354 -0.10411 
0.514352 -0.436628 -0.738104 -0.809149 0.574306 0.124304 0.681476 -0.138269 -0.71866 
0.790049 -0.0170327 -0.612807 0.90443 0.28657 -0.316045 -0.108734 0.990879 -0.0795948 
0.446637 0.862303 -0.238639 0.70009 0.703017 -0.125064 -0.142032 -0.769702 -0.622403 
-0.775866 -0.35033 -0.524692 -0.892867 -0.293386 -0.341634 -0.936068 -0.0731108 -0.344138 
0.506504 -0.43059 -0.747025 -0.82132 0.543932 -0.171962 -0.520342 0.849326 0.0888277 
-0.446089 0.894975 0.00499123 0.686828 0.399075 -0.607459 0.00249535 0.995322 -0.0965768 
0.408814 0.815478 -0.409716 0.596096 0.60116 -0.532236 -0.26044 -0.658569 -0.706015 
-0.139815 -0.616154 -0.775117 0.210419 -0.595526 -0.775289 0.160314 -0.670125 -0.724728 
-0.61122 -0.469785 -0.636955 0.172082 -0.706656 -0.686313 -0.798045 -0.245688 -0.550238 
-0.912032 -0.0450498 -0.407637 -0.939906 0.22996 -0.252378 -0.650505 0.67133 -0.355188 
0.692281 0.0664017 -0.718566 0.653202 0.375089 -0.65775 -0.35674 -0.651285 -0.669749 
-0.578622 -0.528519 -0.62118 0.0388024 -0.672187 -0.739364 0.0610073 -0.727753 -0.68312 
-0.658217 -0.396103 -0.640198 -0.769368 -0.305986 -0.560754 0.481079 -0.558999 -0.675339 
-0.847565 -0.0692192 -0.526158 -0.891674 0.181082 -0.414883 -0.88634 0.343941 -0.31001 
0.671947 -0.208471 -0.710652 -0.750676 0.615438 -0.240252 0.664667 -0.143045 -0.733318 
0.653623 -0.125745 -0.746301 -0.48292 0.813616 -0.323755 -0.40787 0.909124 -0.0844736 
0.611039 0.26313 -0.746588 0.455128 0.67564 -0.579973 -0.16426 -0.744375 -0.647244 
0.176259 -0.724105 -0.666787 -0.662774 -0.448416 -0.599712 -0.874231 -0.0785621 -0.479112 
-0.827482 0.3573 -0.433141 -0.783103 0.568662 -0.25174 0.664899 -0.11504 -0.738021 
0.561669 0.442719 -0.698947 -0.0614306 -0.762562 -0.643992 -0.831635 0.0339606 -0.554283 
0.588271 -0.169763 -0.790644 -0.500354 0.835404 -0.227479 0.606504 0.213416 -0.765902 
-0.0773273 0.963194 -0.257446 0.156543 0.904858 -0.395886 0.261986 0.850741 -0.455635 
0.477772 0.594827 -0.646463 0.374511 -0.651767 -0.6595 -0.686521 -0.0224944 -0.726762 
0.497412 -0.500328 -0.708698 0.662186 -0.131725 -0.737671 0.577643 0.381837 -0.721478 
-0.0488858 0.954716 -0.293475 0.416532 0.660052 -0.625166 -0.418901 -0.676904 -0.605247 
-0.755661 -0.267038 -0.598053 -0.554592 -0.345539 -0.756988 -0.691408 -0.00974108 -0.722399 
0.462754 -0.53621 -0.705931 0.581856 -0.361473 -0.728547 -0.799915 0.371323 -0.47144 
0.69134 0.00898042 -0.722473 0.212484 0.843503 -0.493308 0.441368 0.62972 -0.639255 
-0.175802 0.924192 -0.339063 0.0939587 -0.755764 -0.648069 0.258283 -0.686858 -0.67935 
-0.834031 -0.25069 -0.491474 -0.627512 -0.501356 -0.59571 -0.851363 0.10793 -0.513354 
-0.556989 0.742486 -0.372126 -0.150822 -0.843479 -0.515553 -0.726303 -0.447252 -0.521966 
0.612562 -0.507388 -0.606073 -0.877787 0.0979545 -0.468929 0.714107 -0.0254702 -0.699573 
0.825022 -0.0138813 -0.564929 0.767016 0.294014 -0.570301 0.628376 0.466515 -0.622502 
0.200725 0.871727 -0.446991 0.391238 0.765184 -0.511298 0.380077 -0.729363 -0.568833 
-0.882213 -0.113586 -0.456945 0.760804 -0.477663 -0.439335 -0.8564 0.351199 -0.378468 
0.891226 -0.15677 -0.425605 -0.77611 0.523841 -0.351062 0.832304 0.283586 -0.476287 
0.31968 0.859246 -0.399375 0.104742 -0.873564 -0.475306 -0.297233 -0.805785 -0.512215 
-0.716508 -0.472996 -0.512729 0.895127 -0.395395 -0.205936 0.942457 -0.0134842 -0.334056 
0.937624 0.160344 -0.308464 0.893633 0.314053 -0.320609 -0.342056 0.874593 -0.343635 
0.777336 0.514292 -0.362287 0.604252 0.686088 -0.405169 -0.0622779 0.940611 -0.333725 
0.145278 0.940858 -0.306072 0.581203 -0.717816 -0.383332 -0.878712 -0.0779269 -0.470949 
0.913888 -0.362187 -0.183381 0.986022 0.026388 -0.164512 -0.631456 0.729556 -0.262699 
-0.187076 0.912588 -0.363572 0.0158764 -0.908282 -0.418057 -0.455031 -0.749842 -0.480294 
0.497612 -0.783745 -0.371654 0.680847 -0.651172 -0.335294 0.993999 0.0114554 -0.108791 
0.752999 0.613448 -0.238065 -0.196537 -0.901353 -0.385923 -0.0363345 -0.932549 -0.359211 
0.235658 -0.903465 -0.358073 -0.783012 -0.429423 -0.449987 -0.846834 -0.287676 -0.447342 
0.761793 -0.63441 -0.131129 -0.886983 -0.200352 -0.416077 0.954356 -0.289391 -0.0738772 
0.99539 0.0721833 -0.06315 0.943478 0.306838 -0.125299 -0.290685 0.920634 -0.260644 
0.433644 0.860221 -0.268278 0.413365 -0.860499 -0.297777 -0.557729 -0.732708 -0.389971 
0.570259 -0.800298 -0.185277 0.998063 0.0332639 -0.0525767 -0.733267 0.598259 -0.323119 
-0.551058 0.796829 -0.247787 0.945271 0.322245 -0.0511945 0.764841 0.618657 -0.179673 
0.583018 0.749296 -0.314079 -0.139308 0.957543 -0.252396 -0.222936 -0.894541 -0.387422 
-0.667237 -0.630384 -0.39675 -0.901027 0.137186 -0.411497 0.879379 -0.475344 0.0272235 
-0.879037 0.284938 -0.382235 0.950232 0.309343 -0.0369565 0.758949 0.64077 -0.115804 
0.12198 0.961911 -0.244637 0.433575 0.889144 -0.146409 -0.321473 -0.884423 -0.338306 
-0.792888 -0.500588 -0.347478 -0.869865 -0.267138 -0.414695 -0.887872 -0.263901 -0.376881 
0.795301 -0.606192 0.00523029 -0.620467 -0.681853 -0.387424 0.974929 -0.221391 -0.0223334 
0.48939 0.857517 -0.158627 0.215459 0.95168 -0.218819 -0.21322 -0.929019 -0.302426 
-0.721893 -0.538888 -0.434131 -0.941633 0.172914 -0.288838 0.819284 0.560215 -0.122199 
0.400784 0.892666 -0.206204 -0.0982667 0.963106 -0.25054 0.105392 -0.932298 -0.345996 
-0.914606 -0.108276 -0.38958 0.997519 0.0527779 -0.0465819 0.94787 0.304827 -0.0928589 
-0.458167 -0.821193 -0.340183 -0.895955 -0.371506 -0.243408 0.771425 -0.635742 -0.0270983 
-0.827372 0.462953 -0.31801 0.968352 -0.242564 -0.0587938 0.995503 0.0857648 -0.0402274 
0.766621 0.616575 -0.179241 0.515905 0.820935 -0.24476 0.0727685 0.970556 -0.229622 
-0.026953 -0.920946 -0.388758 -0.575777 -0.754023 -0.316116 -0.805706 -0.520109 -0.283417 
-0.907836 -0.186367 -0.375634 -0.956278 -0.16099 -0.24416 -0.917212 0.148292 -0.369773 
0.998196 0.0471753 -0.0371372 -0.591291 0.768953 -0.243077 0.943331 0.325535 -0.0644475 
-0.368675 0.902179 -0.223948 0.314516 0.915545 -0.250713 0.214572 -0.940602 -0.263108 
-0.949673 -0.0287335 -0.311922 0.866339 -0.498379 -0.0327974 0.994413 0.104133 -0.0172946 
0.826463 0.54873 -0.125912 0.560099 0.806351 -0.189966 -0.0954655 -0.942136 -0.32135 
0.555266 -0.802805 -0.21722 -0.343614 -0.897613 -0.276081 -0.75588 -0.549364 -0.356152 
-0.892312 -0.313294 -0.325002 0.99412 -0.0995658 0.042557 -0.230565 0.9494 -0.213261 
-0.738684 -0.592898 -0.320651 0.68945 -0.709089 -0.147821 -0.855472 0.419412 -0.303745 
0.949871 -0.309065 0.047155 -0.653297 0.706223 -0.272858 0.579388 0.779204 -0.239062 
0.608671 0.772855 -0.179484 0.0261422 0.963334 -0.267027 0.335026 -0.879587 -0.337763 
0.992729 0.119997 -0.00950369 0.84046 0.526707 -0.127308 -0.084606 -0.949429 -0.302367 
0.544724 -0.778912 -0.310762 -0.55701 -0.783259 -0.276124 -0.423841 -0.883498 -0.199476 
0.422303 0.846172 -0.325043 0.0442112 -0.965683 -0.255934 0.330312 -0.905055 -0.267898 
0.587986 -0.769907 -0.248022 -0.428025 0.877407 -0.216684 0.636068 0.714874 -0.290469 
0.531374 0.76134 -0.371488 0.697986 -0.70354 -0.133595 0.958091 -0.285705 0.0208422 
0.996396 -0.0826423 0.0190902 0.876731 0.447988 -0.17507 0.189539 -0.940953 -0.280503 
0.324075 -0.904689 -0.27661 -0.43524 -0.876051 -0.207607 -0.721486 -0.613026 -0.321959 
0.818368 -0.573678 -0.0341687 -0.917743 0.148167 -0.368504 0.996749 0.0279662 -0.0755551 
0.714519 0.647604 -0.264711 0.421649 0.863457 -0.276864 -0.0361643 -0.968455 -0.24655 
-0.265384 -0.942946 -0.201056 0.740017 -0.669795 -0.0612356 -0.891003 -0.294779 -0.34528 
-0.866528 0.431984 -0.250039 0.987195 0.140916 -0.0747561 0.893087 0.422468 -0.154648 
-0.105872 0.949294 -0.296026 0.180777 -0.977975 -0.104334 -0.537803 -0.766309 -0.351481 
-0.453042 -0.841105 -0.295458 -0.742449 -0.584475 -0.32735 -0.939515 0.172142 -0.296107 
-0.712898 0.634363 -0.298932 -0.711692 0.630969 -0.308824 0.510531 -0.851655 -0.118502 
-0.288621 -0.941572 -0.173609 0.723291 -0.680027 -0.120061 -0.693863 -0.635593 -0.33849 
-0.894862 -0.207409 -0.395225 -0.8551 0.411763 -0.315047 -0.853701 0.445117 -0.270307 
-0.348233 0.902234 -0.254376 0.641798 -0.75991 -0.103116 0.985127 -0.170482 0.0214806 
0.988413 0.144603 -0.04615 0.00349006 -0.995907 -0.0903121 -0.423148 -0.847657 -0.320036 
-0.536174 -0.753189 -0.381083 -0.924139 0.0694011 -0.3757 -0.514192 0.808983 -0.284874 
0.924426 0.379126 -0.0412291 -0.39256 0.886873 -0.243623 0.774526 0.622824 -0.110451 
0.540337 0.799404 -0.262659 0.172825 0.952304 -0.251492 -0.740057 -0.584999 -0.331801 
-0.832529 -0.39389 -0.389547 0.921209 -0.384048 0.0623041 -0.697573 0.666477 -0.263061 
0.945557 0.324997 -0.017302 -0.298767 0.932586 -0.202538 0.697881 0.684348 -0.21126 
0.3192 0.928572 -0.189381 -0.2706 -0.959636 -0.0766444 -0.387618 -0.876343 -0.285963 
-0.62678 -0.690425 -0.361194 0.732278 -0.680532 0.0254124 0.839997 -0.541414 0.0357061 
0.28649 0.932873 -0.218336 -0.152779 0.954178 -0.257301 0.49797 -0.866918 -0.021906 
-0.393191 -0.836705 -0.381216 -0.903744 0.325012 -0.278594 -0.841327 0.455804 -0.290536 
-0.717026 0.654203 -0.240609 0.624858 0.737958 -0.254893 -0.678143 -0.621253 -0.392641 
0.82826 -0.553331 0.0883736 0.998951 0.0430233 0.0157014 0.987767 -0.152208 0.03389 
0.997206 -0.0372926 0.0647281 -0.586872 0.78646 -0.192513 0.189295 0.90372 -0.384002 
0.101361 -0.954585 -0.280167 0.0618251 -0.988126 -0.14066 0.466276 -0.884402 0.0204752 
-0.321649 -0.875782 -0.359928 0.648072 -0.757044 0.0829861 0.721985 -0.684076 0.103814 
-0.844428 -0.226091 -0.485618 -0.865296 0.355192 -0.353697 0.908634 -0.40525 0.100778 
0.981168 -0.161578 0.105837 0.641338 0.708028 -0.295603 0.536649 0.777875 -0.326984 
0.0148739 -0.990312 -0.138061 -0.129183 -0.943465 -0.305264 0.188147 -0.980121 -0.0629531 
0.904289 0.412927 -0.108404 -0.318569 -0.911641 -0.259661 -0.530837 -0.783898 -0.32205 
-0.92494 0.122195 -0.359936 0.991244 0.115813 0.0634201 -0.459376 0.873905 -0.158941 
0.644994 0.744561 -0.172081 0.389305 0.890623 -0.235014 -0.634176 -0.713651 -0.297528 
-0.78235 -0.480894 -0.395815 0.996738 0.0658609 0.0466543 -0.444767 0.875999 -0.186572 
-0.292231 0.925101 -0.242465 -0.219852 0.921257 -0.320858 -0.939109 0.0438962 -0.340804 
0.996517 0.082453 -0.0124393 -0.0669735 0.923355 -0.378062 0.224883 0.931123 -0.287118 
0.112552 -0.959016 -0.260041 0.391647 -0.910563 -0.132238 -0.82091 -0.527318 -0.219185 
0.814213 -0.576457 0.0689577 -0.972345 -0.0512697 -0.227852 0.88622 -0.457889 0.0703713 
-0.896648 0.269019 -0.351641 -0.464124 0.86231 -0.202512 -0.359862 0.867838 -0.342574 
0.730138 0.640854 -0.237077 -0.206226 0.8981 -0.388442 0.474773 0.831909 -0.28726 
0.279511 -0.943246 -0.179335 0.380545 -0.916628 -0.122392 -0.500773 -0.835099 -0.227674 
-0.738183 -0.645997 -0.194355 -0.594925 0.731199 -0.333785 0.99046 0.135784 0.0234764 
0.923085 0.380035 -0.0590584 0.718205 0.680339 -0.146018 0.531952 0.814078 -0.233034 
-0.183125 -0.978928 -0.0903582 -0.942062 -0.308249 -0.132295 -0.816095 0.505479 -0.280143 
0.993262 -0.108087 0.0418022 0.997101 0.075853 0.00604975 -0.498584 0.798431 -0.337524 
0.433129 0.834393 -0.340862 0.13191 -0.960273 -0.245917 -0.367368 -0.884535 -0.28747 
0.61842 -0.785743 0.0128344 -0.708675 -0.697296 -0.107506 -0.991103 -0.0228753 -0.131119 
0.860009 -0.509536 -0.02753 0.903468 -0.425308 -0.0534691 0.933987 -0.357249 -0.00651405 
0.900619 0.434167 -0.0196254 0.107219 0.941467 -0.3196 0.25933 0.915691 -0.307014 
0.378086 0.886591 -0.266473 -0.904641 -0.42121 -0.0648534 -0.953077 0.226429 -0.200933 
0.990494 -0.122645 0.0622858 0.993244 0.113125 -0.0258527 0.957709 0.287603 0.00883086 
0.802089 0.587955 -0.104696 0.389326 0.862617 -0.322981 0.263224 -0.919354 -0.292407 
-0.210212 -0.905623 -0.368317 -0.438983 -0.861271 -0.255943 -0.894292 -0.4474 -0.00867546 
0.847231 0.523721 -0.0889727 0.652942 0.702225 -0.283808 -0.170651 0.879867 -0.443523 
0.143937 0.907323 -0.395029 0.398305 -0.894037 -0.205064 -0.0117159 -0.921765 -0.387571 
0.568505 -0.819716 -0.0697678 -0.950522 0.299382 -0.082941 -0.889671 0.443559 -0.108355 
0.996786 0.0353759 0.0718719 0.478653 0.830215 -0.285717 -0.0462041 -0.919082 -0.391348 
-0.773188 -0.634078 -0.0111832 -0.985965 -0.15938 -0.049717 -0.998641 0.0480119 -0.0202673 
0.971021 -0.228428 0.0702837 -0.765383 0.603907 -0.222452 -0.313675 -0.87515 -0.368403 
-0.898199 -0.434443 0.06706 0.958091 0.285158 0.0273329 -0.591741 -0.790233 -0.159294 
-0.767684 -0.640578 0.0179197 -0.965411 0.260465 -0.0117656 -0.67255 0.6811 -0.289447 
0.99672 0.0111818 0.0801528 -0.171509 0.900613 -0.39935 -0.0238538 0.942149 -0.334344 
0.498788 -0.848212 -0.178173 0.691341 -0.708141 -0.143473 -0.977186 -0.194213 0.0859554 
-0.554152 0.76264 -0.333609 0.822012 0.555974 -0.123242 -0.291001 0.879598 -0.376331 
-0.378317 -0.867967 -0.321727 0.903279 -0.422518 0.074609 -0.968146 0.230489 -0.0978132 
-0.930127 0.248092 -0.270767 0.577046 0.774457 -0.259295 0.0815077 0.988365 -0.128418 
0.49565 0.838969 -0.224636 0.534545 -0.832632 -0.144863 -0.629906 -0.751524 -0.196037 
-0.990149 -0.102477 0.0954109 -0.826408 0.526561 -0.199457 -0.746026 0.65528 0.118545 
-0.67032 0.729849 -0.134133 0.984321 0.176305 0.00536294 0.824671 0.565321 -0.0181532 
0.652207 0.753375 -0.0839809 -0.29422 0.90275 -0.313812 0.32999 0.9005 -0.283206 
0.0627528 -0.957574 -0.281271 -0.28751 -0.91556 -0.281225 0.986474 -0.136999 0.0900055 
-0.58655 0.760091 -0.27968 0.910746 0.412199 0.0251879 -0.469767 0.81232 -0.345622 
0.245197 0.969357 -0.0150217 -0.266958 -0.923268 -0.276243 0.506896 -0.854685 -0.112116 
0.703348 -0.70532 -0.088463 -0.921561 -0.376043 0.0965272 0.808367 -0.587484 0.0374775 
-0.999847 -0.017357 -0.0019835 -0.944415 0.302881 -0.127844 -0.593655 0.770801 -0.231169 
-0.0927385 0.96715 -0.236687 0.368339 0.929385 -0.0238828 0.184164 -0.961437 -0.204263 
-0.539294 -0.822103 -0.182508 -0.801861 0.556131 -0.218489 0.709189 0.696202 -0.111149 
-0.199561 -0.95648 -0.21289 0.610134 -0.790108 -0.0588715 -0.746253 -0.656735 -0.108648 
0.937963 -0.340876 0.0634688 -0.945786 0.128056 -0.298481 -0.958463 0.189775 -0.212919 
0.988504 -0.123979 0.086535 0.851047 0.520304 -0.0707305 0.591492 0.804619 -0.0522016 
0.251919 0.959863 -0.123284 -0.0816561 -0.97593 -0.202221 -0.987124 0.0262905 -0.157783 
-0.946617 0.213764 -0.241292 -0.606142 0.775473 -0.17673 -0.370002 0.910919 -0.182553 
0.0594277 0.99534 -0.0759335 -0.138278 -0.969071 -0.204405 0.224434 -0.966482 -0.124665 
-0.420282 -0.887474 -0.189083 0.741959 -0.670441 0.00235787 -0.87219 0.40039 -0.28102 
-0.554503 0.81655 -0.160538 0.601276 -0.798136 -0.0380214 -0.690649 -0.714378 -0.112555 
-0.774596 -0.625847 -0.0911952 -0.806107 -0.587439 -0.0714664 -0.755009 0.636821 -0.15627 