# vtk DataFile Version 4.2
vtk output
ASCII
DATASET POLYDATA
POINTS 901 float
328.37 98.5593 156.081 328.289 98.5413 156.114 328.258 98.5852 156.173 
328.317 98.4931 156.116 328.397 98.3481 156.178 328.417 98.8342 156.14 
328.787 98.4955 156.019 328.616 98.9772 156.066 329.008 98.6599 155.994 
328.866 99.1084 156 328.806 99.0595 155.964 328.913 99.0142 155.92 
328.908 99.0917 155.935 328.978 99.0554 155.939 329.24 96.9533 156.669 
328.383 97.0174 156.867 329.788 96.8417 156.731 329.055 97.7774 156.331 
329.868 97.0451 156.69 330.094 97.3052 156.8 330.071 97.0392 156.813 
329.599 97.9785 156.443 329.726 98.2193 156.65 329.184 98.838 156.154 
330.051 97.8886 156.79 328.963 99.0863 156.001 329.049 99.011 156.013 
330.36 96.0443 157.347 330.411 95.8474 157.526 330.338 96.3146 157.24 
330.493 96.0569 157.529 326.771 97.9475 157.638 327.841 97.8671 156.81 
330.448 97.056 157.353 327.328 98.2582 157.284 327.126 98.6085 157.766 
327.758 98.7699 157.347 329.993 95.7637 157.342 330.279 95.6048 157.639 
326.536 96.6711 158.141 326.742 97.1577 157.789 330.886 96.2578 158.357 
326.066 97.8547 158.323 325.941 98.2661 158.633 330.232 97.7701 157.357 
330.647 97.1627 158.118 326.992 98.7535 158.089 328.099 98.8679 157.771 
329.205 98.6802 157.266 327.429 98.9112 158.085 329.236 94.3398 158.791 
330.575 94.2987 159.115 327.901 94.6757 158.797 329.985 94.9148 158.218 
330.772 95.4473 158.419 325.789 96.9172 158.652 324.083 98.2283 159.989 
324.092 98.1397 159.968 324.22 98.2112 159.919 329.091 98.521 158.612 
330.148 97.8698 157.928 324.72 98.6373 159.825 324.599 98.6984 159.988 
324.724 98.73 159.908 326.962 98.8975 158.497 330.639 93.7778 159.82 
330.858 94.0383 159.638 331.056 94.0834 159.812 324.95 96.4669 159.589 
323.958 97.0141 160.257 330.973 96.9949 159.49 323.219 98.4008 160.968 
324.784 98.3777 159.665 331.023 97.0136 159.767 324.246 98.6309 160.209 
325.2 98.7564 159.782 328.293 98.7422 159.526 331.311 93.2249 161.094 
331.212 94.0843 160.137 331.358 96.1692 160.388 322.575 97.701 161.419 
330.952 97.0474 160.437 330.286 97.7014 160.705 322.852 98.8699 161.573 
331.128 92.3525 162.043 331.717 94.2247 161.476 331.561 95.6084 161.208 
331.043 96.9003 161.017 328.295 98.6655 161.101 321.788 98.5525 162.299 
322.877 99.0053 161.709 321.543 98.9332 162.684 322.639 99.1487 162.144 
321.651 98.9874 162.558 331.309 91.9027 162.851 331.132 96.5403 162.318 
331.301 96.4233 161.441 321.191 98.4216 163.129 321.476 99.0233 162.861 
326.54 99.2523 162.306 331.486 91.9036 163.049 331.689 91.8386 163.48 
332.035 94.1127 163.116 331.152 96.2082 163.789 319.754 98.7262 165.165 
321.18 99.0406 163.819 321.411 99.0608 163.123 330.11 90.4896 164.346 
332.23 92.131 164.449 331.492 95.7068 163.883 331.77 95.1078 164.207 
319.783 97.8439 164.724 319.436 98.2252 165.333 321.651 99.421 164.603 
319.785 98.9188 165.28 319.61 98.8632 165.579 319.874 99.0199 165.321 
319.741 98.975 165.419 329.316 89.5783 165.792 330.632 89.9787 165.323 
331.203 90.0664 165.5 331.493 90.4106 165.24 320.829 95.5878 164.652 
319.679 96.9701 165.044 319.552 96.9343 165.205 319.257 97.5785 165.522 
320.109 99.3084 166.024 325.004 101.013 165.009 325.004 101.013 165.009 
325.004 101.013 165.009 325.004 101.013 165.009 325.004 101.013 165.009 
328.785 89.1652 166.517 328.184 89.1673 166.782 331.622 90.1462 165.877 
332.251 93.7299 166.234 331.788 94.7767 166.135 319.503 96.8447 165.387 
318.619 97.4349 166.693 318.398 97.7125 167.048 318.224 98.0954 167.485 
319.076 98.9245 166.926 319.468 99.1887 166.795 325.004 101.013 165.009 
330.105 88.879 167.17 331.997 90.1277 166.816 319.008 95.1788 167.729 
318.46 96.2543 167.534 317.705 97.3165 168.109 318.036 98.6855 168.258 
330.374 88.2992 168.352 331.042 88.8712 167.657 331.751 89.4774 167.494 
319.623 94.2846 167.881 330.748 95.6101 167.872 316.831 97.6703 169.495 
325.606 98.8656 167.687 317.261 98.3695 169.107 319.706 99.5339 167.773 
318.114 99.2207 168.998 317.758 99.0889 169.057 317.633 99.0365 169.119 
332.299 92.8491 168.991 316.558 97.0519 170.068 316.292 97.9651 170.565 
323.055 99.5074 168.852 326.804 88.1458 169.672 331.576 88.0279 169.859 
332.024 88.9459 169.123 332.435 89.4939 170.025 332.645 91.0165 169.766 
331.925 93.5055 169.549 317.225 95.3802 170.225 316.757 96.0909 170.322 
315.772 97.6019 171.367 315.669 97.9753 171.606 320.523 99.8099 169.279 
316.037 98.7084 171.477 328.463 87.3143 170.562 332.013 87.9646 171.08 
321.306 90.9574 170.854 331.456 93.7502 170.706 319.704 99.805 171.056 
315.835 99.1006 172.544 317.345 99.5104 171.619 331.379 86.8942 171.896 
331.599 86.7985 172.375 331.964 87.3417 172.137 314.963 99.0609 173.658 
329.121 86.1116 173.667 328.776 86.2298 173.484 330.315 86.1582 173.425 
331.412 86.4285 173.21 331.646 86.6757 172.842 328.907 95.638 172.338 
314.451 98.9671 174.412 314.586 99.163 174.092 314.521 99.2192 174.192 
314.685 99.2232 174.012 314.567 99.2423 174.147 331.313 86.1745 173.948 
332.062 91.1566 173.96 314.114 98.9733 175.316 314.584 99.3617 175.073 
331.483 86.0659 174.371 331.446 85.9772 174.514 331.34 85.9881 174.425 
331.501 86.0243 174.601 331.681 86.3092 174.365 314.678 96.1243 175.034 
314.206 96.9745 175.135 313.779 97.8855 175.568 313.651 98.365 175.806 
313.367 98.4785 176.452 314.426 99.6068 176.196 329.69 85.6189 176.054 
330.879 85.7336 175.511 331.406 85.9634 175.096 332.328 87.298 175.595 
315.359 94.7648 175.963 313.571 96.9127 176.801 324.863 97.5179 175.857 
312.737 98.3902 177.586 330.757 85.4986 176.744 331.091 85.5892 176.603 
331.61 85.9655 175.821 332.311 88.8002 176.977 325.173 97.0974 176.78 
324.448 97.5558 177.131 312.597 98.5251 177.877 323.827 97.9166 177.399 
314.521 100.03 177.653 312.781 99.4346 178.574 330.874 85.4876 177.17 
329.863 85.4255 177.952 332.273 88.2481 177.772 324.893 97.0042 178.309 
312.354 98.5455 178.617 312.333 99.1614 178.984 312.199 99.0863 179.265 
330.799 85.3557 178.793 331.134 85.4409 178.743 331.858 86.0165 177.928 
331.742 85.8333 178.402 329.004 85.5056 178.29 327.568 85.8723 179.21 
332.039 88.0891 179.05 329.228 92.1413 179.682 312.134 98.9196 179.429 
312.113 99.127 179.731 316.562 100.297 178.477 313.943 100.207 179.69 
333 83.0087 180.017 333 83.0087 180.017 333 83.0088 180.017 
333 83.0088 180.017 333 83.0088 180.017 331.554 85.6555 179.58 
331.859 86.1209 179.283 331.327 85.5223 179.992 332.012 86.6212 179.27 
331.809 88.2391 179.859 331.298 89.2017 179.922 331.547 88.8362 179.829 
309 101.009 180.017 309 101.009 180.017 309 101.009 180.017 
309 101.009 180.017 309 101.009 180.017 333 83.0087 180.017 
330.441 85.2788 181.584 331.705 85.8102 179.491 331.485 85.6443 180.668 
330.949 88.9382 181.397 314.293 94.8095 180.947 312.525 96.9016 181.167 
311.485 98.5756 182.378 309 101.009 180.017 330.694 85.3581 182.113 
329.359 85.3314 181.749 331.779 86.7647 181.505 331.799 86.5416 181.427 
312.811 100.401 182.308 317.177 100.397 182.189 330.444 85.3701 182.95 
331.036 85.531 182.194 331.583 86.0827 181.78 331.487 86.6857 182.675 
331.329 87.6206 182.277 310.789 99.3096 184.253 331.079 85.7013 182.722 
331.39 85.9304 182.302 331.305 86.3479 183.075 322.867 97.7095 183.513 
312.623 100.735 184.377 329.042 85.6172 184.495 310.786 100.21 185.968 
311.107 100.449 185.859 329.465 85.6376 184.899 330.222 85.6792 184.607 
330.537 86.6041 184.826 321.232 88.8232 186.266 310.581 98.6408 186.443 
310.32 99.9481 187.016 314.093 100.91 185.873 329.671 85.776 185.593 
329.787 85.8879 185.619 329.221 85.8041 185.529 330.227 86.4427 185.39 
325.093 87.1913 187.181 329.554 87.4131 186.033 323.185 87.8196 187.142 
310.261 99.4329 186.982 310.177 99.9107 187.698 311.41 100.718 187.015 
311.852 100.859 186.823 312.979 100.962 186.8 329.609 85.8455 185.762 
329.132 86.0141 185.998 330.253 85.9768 185.138 328.695 86.1531 186.21 
327.221 90.9654 187.284 325.986 92.8259 187.555 310.289 100.356 188.19 
310.241 100.342 188.597 313.193 100.834 187.98 310.374 100.458 188.343 
329.455 85.9142 185.893 329.41 86.0542 186.006 328.54 86.2872 186.406 
328.799 86.281 186.367 327.719 86.8209 187.039 328.967 87.2251 186.668 
324.975 87.5167 188.626 328.341 87.6607 187.263 327.358 89.6102 188.194 
310.025 99.9855 188.947 314.876 100.562 188.452 328.772 86.5798 186.584 
328.323 86.8362 186.917 324.268 87.8302 189.849 326.909 87.4798 188.034 
327.414 88.0576 188.12 327.233 89.0789 188.573 327.028 88.9067 188.843 
310.306 98.6973 189.834 318.977 98.8383 189.774 325.21 87.8651 189.615 
325.101 91.6624 190.999 312.104 96.3742 190.298 310.204 98.9451 190.806 
312.024 100.382 190.21 310.979 100.318 190.083 325.147 88.1878 190.31 
320.541 97.0415 191.596 310.339 98.6737 191.261 310.257 99.5627 191.535 
310.368 99.7765 191.059 324.632 88.4841 191.381 321.458 88.6397 192.04 
322.175 88.4036 192.579 318.4 90.8232 192.75 324.933 91.0123 191.824 
320.557 96.2644 192.675 310.156 99.3366 192.124 323.38 88.446 192.766 
324.135 88.8938 192.647 324.54 89.0459 192.256 324.824 89.4485 192.07 
323.991 91.9049 192.776 312.88 95.8933 193.254 310.199 99.1309 192.566 
317.364 97.9827 193.142 310.058 99.3068 192.591 310.382 99.3796 192.596 
310.126 99.378 192.525 323.784 89.1468 193.35 320.017 89.6494 193.934 
324.475 90.0497 192.817 324.151 90.298 193.194 322.269 92.4774 194.33 
311.212 98.1888 193.452 310.306 99.1748 192.906 310.836 98.6566 193.313 
313.466 98.3102 194.087 309.97 99.3196 192.922 310.005 99.2915 192.83 
310.642 99.0357 193.162 309.975 99.3458 192.788 322.407 88.5407 194.252 
321.676 88.9179 194.531 322.099 88.7044 194.385 323.408 89.1929 193.91 
319.963 89.7924 194.587 320.071 89.7215 194.582 320.89 89.2112 194.368 
319.765 89.8885 194.278 320.349 89.5849 194.526 319.137 90.6456 194.482 
316.271 93.5747 195.007 312.108 97.3335 194.232 312.55 97.1403 194.682 
317.007 96.2047 195.183 312.072 97.5853 194.366 316.497 97.1124 194.647 
311.358 98.5236 193.666 309.864 99.3551 192.965 309.88 99.345 192.945 
[...]
POINT_DATA 901
SCALARS scalars float
LOOKUP_TABLE default
1 1 1 1 1 1 1 1 1 
1 1 1 1 1 1 1 1 1 
1 1 1 1 1 1 1 1 1 
1 1 1 1 1 1 1 1 1 
1 1 1 1 1 1 1 1 1 
1 1 1 1 1 1 1 1 1 
1 1 1 1 1 1 1 1 1 
1 1 1 1 1 1 1 1 1 
1 1 1 1 1 1 1 1 1 
1 1 1 1 1 1 1 1 1 
1 1 1 1 1 1 1 1 1 
1 1 1 1 1 1 1 1 1 
1 1 1 1 1 1 1 1 1 
1 1 1 1 1 1 1 1 1 
1 1 1 1 1 1 1 1 1 
1 1 1 1 1 1 1 1 1 
1 1 1 1 1 1 1 1 1 
1 1 1 1 1 1 1 1 1 
1 1 1 1 1 1 1 1 1 
1 1 1 1 1 1 1 1 1 
1 1 1 1 1 1 1 1 1 
1 1 1 1 1 1 1 1 1 
1 1 1 1 1 1 1 1 1 
1 1 1 1 1 1 1 1 1 
1 1 1 1 1 1 1 1 1 
1 1 1 1 1 1 1 1 1 
1 1 1 1 1 1 1 1 1 
1 1 1 1 1 1 1 1 1 
1 1 1 1 1 1 1 1 1 
1 1 1 1 1 1 1 1 1 
1 1 1 1 1 1 1 1 1 
1 1 1 1 1 1 1 1 1 
1 1 1 1 1 1 1 1 1 
1 1 1 1 1 1 1 1 1 
1 1 1 1 1 1 1 1 1 
1 1 1 1 1 1 1 1 1 
1 1 1 1 1 1 1 1 1 
1 1 1 1 1 1 1 1 1 
1 1 1 1 1 1 1 1 1 
1 1 1 1 1 1 1 1 1 
1 1 1 1 1 1 1 1 1 
1 1 1 1 1 1 1 1 1 
1 1 1 1 1 1 1 1 1 
1 1 1 1 1 1 1 1 1 
1 1 1 1 1 1 1 1 1 
1 1 1 1 1 1 1 1 1 
1 1 1 1 1 1 1 1 1 
1 1 1 1 1 1 1 1 1 
1 1 1 1 1 1 1 1 1 
1 1 1 1 1 1 1 1 1 
1 1 1 1 1 1 1 1 1 
1 1 1 1 1 1 1 1 1 
1 1 1 1 1 1 1 1 1 
1 1 1 1 1 1 1 1 1 
1 1 1 1 1 1 1 1 1 
1 1 1 1 1 1 1 1 1 
1 1 1 1 1 1 1 1 1 
1 1 1 1 1 1 1 1 1 
1 1 1 1 1 1 1 1 1 
1 1 1 1 1 1 1 1 1 
1 1 1 1 1 1 1 1 1 
1 1 1 1 1 1 1 1 1 
1 1 1 1 1 1 1 1 1 
1 1 1 1 1 1 1 1 1 
1 1 1 1 1 1 1 1 1 
1 1 1 1 1 1 1 1 1 
1 1 1 1 1 1 1 1 1 
1 1 1 1 1 1 1 1 1 
1 1 1 1 1 1 1 1 1 
1 1 1 1 1 1 1 1 1 
1 1 1 1 1 1 1 1 1 
1 1 1 1 1 1 1 1 1 
1 1 1 1 1 1 1 1 1 
1 1 1 1 1 1 1 1 1 
1 1 1 1 1 1 1 1 1 
1 1 1 1 1 1 1 1 1 
1 1 1 1 1 1 1 1 1 
1 1 1 1 1 1 1 1 1 
1 1 1 1 1 1 1 1 1 
1 1 1 1 1 1 1 1 1 
1 1 1 1 1 1 1 1 1 
1 1 1 1 1 1 1 1 1 
1 1 1 1 1 1 1 1 1 
1 1 1 1 1 1 1 1 1 
1 1 1 1 1 1 1 1 1 
1 1 1 1 1 1 1 1 1 
1 1 1 1 1 1 1 1 1 
1 1 1 1 1 1 1 1 1 
1 1 1 1 1 1 1 1 1 
1 1 1 1 1 1 1 1 1 
1 1 1 1 1 1 1 1 1 
1 1 1 1 1 1 1 1 1 
1 1 1 1 1 1 1 1 1 
1 1 1 1 1 1 1 1 1 
1 1 1 1 1 1 1 1 1 
1 1 1 1 1 1 1 1 1 
1 1 1 1 1 1 1 1 1 
1 1 1 1 1 1 1 1 1 
1 1 1 1 1 1 1 1 1 
1 1 1 1 1 1 1 1 1 
1 
NORMALS Normals float
-0.311931 -0.0173345 -0.949946 -0.649116 -0.176371 -0.73996 -0.723799 0.328724 -0.606676 
-0.491737 -0.452408 -0.74399 -0.351387 -0.497534 -0.793087 -0.652844 0.550337 -0.520503 
-0.11481 -0.336554 -0.934639 -0.617424 0.592956 -0.516905 0.298508 -0.127446 -0.94586 
-0.154809 0.987054 0.041932 -0.470998 0.476435 -0.742409 -0.1931 0.0509312 -0.979856 
0.0303864 0.728976 -0.683864 0.630131 0.338412 -0.698865 -0.160803 -0.540331 -0.825945 
-0.308842 -0.496301 -0.811359 0.286115 -0.36624 -0.885442 0.12286 -0.319387 -0.939626 
0.322831 -0.207279 -0.92348 0.697638 -0.016208 -0.716267 0.564108 -0.217508 -0.796538 
0.537726 -0.01624 -0.842963 0.794872 0.454389 -0.402131 0.824125 0.534937 -0.186177 
0.799856 0.419759 -0.42899 0.557 0.830449 0.0102813 0.785662 0.573877 -0.231087 
0.597482 -0.350844 -0.721057 0.718932 -0.500105 -0.482733 0.748367 -0.106462 -0.654686 
0.951455 -0.141591 -0.273288 -0.680555 0.0327947 -0.731962 -0.637433 -0.177488 -0.749785 
0.921555 0.0610596 -0.383416 -0.708871 0.332065 -0.622281 -0.615475 0.599268 -0.511926 
-0.512076 0.787832 -0.342197 0.206096 -0.554264 -0.806422 0.643343 -0.604134 -0.470247 
-0.525281 -0.447939 -0.723485 -0.643578 -0.201285 -0.738438 0.958484 0.066306 -0.277331 
-0.740322 0.213646 -0.6374 -0.659325 0.394914 -0.639792 0.88428 0.413609 -0.216742 
0.92374 0.345792 -0.164717 -0.546734 0.673352 -0.497674 0.121342 0.94602 0.300536 
0.419143 0.842924 0.33734 -0.0300875 0.998533 -0.0450121 -0.0914178 -0.821384 -0.563001 
0.467958 -0.620527 -0.629255 -0.307658 -0.718311 -0.624 0.114756 -0.70651 -0.698337 
0.887856 -0.199301 -0.414719 -0.693846 -0.183234 -0.696421 -0.643594 0.251585 -0.722836 
-0.579397 -0.0152381 -0.814903 -0.390946 0.180397 -0.902562 0.436724 0.882289 0.175607 
0.693903 0.718529 0.0470651 -0.449986 0.502015 -0.738576 -0.582099 0.496241 -0.644132 
-0.30578 0.814593 -0.492887 -0.0674973 0.990221 -0.122091 0.256953 -0.810793 -0.525919 
0.507756 -0.744026 -0.434292 0.671711 -0.56944 -0.47386 -0.612231 -0.426901 -0.665529 
-0.617845 -0.196885 -0.761252 0.831069 0.53805 -0.140805 -0.57966 0.461576 -0.671522 
-0.559777 0.252193 -0.789334 0.831369 0.543786 -0.114554 -0.466099 0.597827 -0.652192 
-0.308759 0.80052 -0.51365 0.333168 0.93692 0.105733 0.696862 -0.539769 -0.472265 
0.79377 -0.472945 -0.382429 0.965102 0.237229 -0.110903 -0.726526 0.0149715 -0.686976 
0.697441 0.716622 0.00543901 0.616643 0.777227 0.125177 -0.531003 0.507513 -0.678577 
0.401782 -0.712769 -0.574919 0.976157 0.02809 -0.215239 0.979728 0.18899 -0.0664498 
0.801288 0.588139 0.109683 0.388247 0.910635 0.141453 -0.748101 0.0494394 -0.661741 
-0.403655 0.703676 -0.584725 -0.876093 0.117653 -0.467567 -0.30944 0.865735 -0.393382 
-0.533262 0.663209 -0.525153 0.477235 -0.758182 -0.444305 0.774613 0.6144 0.149955 
0.86248 0.491444 0.120875 -0.823072 0.152124 -0.547184 -0.7947 0.476243 -0.376357 
0.136401 0.99042 -0.0215254 0.608487 -0.664969 -0.433081 0.736987 -0.542772 -0.402801 
0.985037 0.167783 -0.0393842 0.665374 0.71896 0.200934 -0.688018 0.438006 -0.578604 
-0.627821 0.683399 -0.372567 -0.654504 0.705836 -0.270961 -0.00356553 -0.793775 -0.608201 
0.915192 -0.295557 -0.273987 0.907822 0.415843 0.0541605 0.895601 0.430984 0.110235 
-0.755438 -0.00794804 -0.655172 -0.873261 0.182693 -0.451706 -0.173318 0.978819 -0.108964 
-0.644962 0.521027 -0.559066 -0.824467 0.460992 -0.328238 -0.435691 0.780503 -0.448317 
-0.652669 0.701539 -0.286125 -0.0108344 -0.863724 -0.503848 0.236298 -0.841753 -0.485402 
0.329883 -0.843178 -0.424532 0.519089 -0.703192 -0.485868 -0.676666 -0.422154 -0.603248 
-0.721512 -0.275336 -0.635303 -0.752832 -0.383751 -0.53477 -0.888832 -0.0279809 -0.457379 
-0.412729 0.900213 -0.138823 0.0753994 -0.921781 -0.380309 -0.447356 0.553215 -0.702727 
0.326273 0.628998 -0.705626 0.440096 -0.587721 0.678896 -0.0851557 0.926076 0.367602 
-0.114566 -0.885815 -0.449674 -0.310146 -0.802158 -0.510247 0.596944 -0.706049 -0.380988 
0.952079 0.29043 0.0958915 0.889905 0.440676 0.117788 -0.744861 -0.458439 -0.484784 
-0.812195 0.145406 -0.564975 -0.781177 0.120441 -0.612581 -0.759878 0.390946 -0.519372 
-0.552749 0.772841 -0.311745 -0.164733 0.972579 -0.164174 -0.343735 -0.656233 0.671718 
0.141107 -0.893301 -0.426735 0.883263 -0.413905 -0.220291 -0.68919 -0.506687 -0.517962 
-0.765516 -0.311745 -0.562851 -0.853248 -0.0784317 -0.515574 -0.714131 0.485835 -0.503965 
0.236175 -0.89036 -0.389205 0.47851 -0.798079 -0.366194 0.614019 -0.717021 -0.329943 
-0.590016 -0.579154 -0.562549 0.710117 0.661929 0.239966 -0.868347 0.211692 -0.448509 
0.36995 0.921013 0.121952 -0.770859 0.354869 -0.529003 -0.196938 0.95763 -0.210141 
-0.337143 0.913787 -0.226558 -0.545781 0.695321 -0.467603 -0.634394 0.707143 -0.312238 
0.962688 0.26136 0.0701607 -0.855893 -0.212077 -0.471668 -0.901636 0.0445281 -0.430198 
0.315958 0.934415 0.164438 -0.389826 -0.863206 -0.320797 0.664872 -0.665996 -0.338222 
0.864238 -0.440407 -0.243175 0.939775 -0.318831 -0.123163 0.997581 0.0520326 0.0460926 
0.835562 0.511436 0.200671 -0.789102 -0.502972 -0.352615 -0.871943 -0.401688 -0.279932 
-0.882173 -0.0604387 -0.467032 -0.8128 0.318963 -0.487462 0.0611232 0.988089 -0.141222 
-0.750819 0.480045 -0.453683 -0.215206 -0.915148 -0.340867 0.959713 -0.263937 -0.0963753 
-0.622538 -0.756737 -0.199486 0.817312 0.529133 0.228077 0.0377869 0.992281 0.118115 
-0.589922 0.716358 -0.37259 -0.298125 0.932257 -0.204985 0.203884 -0.905148 -0.373012 
0.557478 -0.769667 -0.311177 0.897998 -0.433973 -0.0725769 -0.622172 0.550453 -0.55669 
-0.0446287 -0.974201 -0.221225 -0.230752 -0.925594 -0.300049 0.0510082 -0.944575 -0.324308 
0.662455 -0.73384 -0.150437 0.697028 -0.715168 -0.051832 0.631895 0.738189 0.236189 
-0.915874 0.104972 -0.3875 -0.782101 0.0486723 -0.621248 -0.875126 0.34834 -0.335879 
-0.319243 0.802384 -0.504246 -0.567121 0.695744 -0.44081 0.236608 -0.926555 -0.292425 
0.821082 0.500684 0.274118 -0.857986 0.330568 -0.393174 -0.341628 0.930967 -0.128802 
0.59851 -0.730775 -0.328259 0.462285 -0.870825 -0.167201 0.10622 -0.93128 -0.348476 
0.778236 -0.625781 -0.0524175 0.798458 -0.581186 -0.157123 -0.809441 -0.498418 -0.310459 
-0.867869 -0.384844 -0.314163 -0.901391 -0.0758332 -0.426315 -0.864726 0.119681 -0.487777 
-0.886998 0.283105 -0.36481 -0.607621 0.717191 -0.341224 -0.114422 -0.982753 -0.145273 
0.126589 -0.975259 -0.181234 0.684262 -0.728767 -0.0261617 0.930995 -0.35501 -0.0849446 
-0.76526 -0.608394 -0.210318 -0.86306 -0.408982 -0.296415 0.531073 0.837009 0.131824 
-0.912758 -0.00628782 -0.408452 0.0757892 -0.986966 -0.141965 0.308664 -0.942865 -0.125428 
0.619804 -0.779656 -0.0893274 0.988847 0.0969832 0.11303 0.58395 0.811059 -0.0344385 
0.571371 0.819922 -0.0355349 -0.898887 0.121706 -0.42094 0.416021 0.909243 0.0142599 
-0.227185 0.95307 -0.200114 -0.649884 0.669585 -0.359593 0.1538 -0.985297 -0.0743946 
-0.00219822 -0.999883 -0.0151379 0.971664 0.155036 0.178419 0.558024 0.811226 0.174702 
-0.955819 -0.121514 -0.267664 -0.868448 0.343552 -0.357451 -0.939183 0.201257 -0.278264 
0.146305 -0.98866 -0.033846 0.358902 -0.928707 -0.0932337 0.883103 -0.467221 -0.0428182 
0.781896 -0.622244 -0.0380785 -0.128467 -0.991661 -0.0102774 -0.38821 -0.921507 0.0109019 
0.93689 0.298482 0.182062 0.728435 0.643539 0.23503 -0.975316 -0.0393135 -0.217286 
-0.978447 0.0350116 -0.203507 0.176065 0.984339 -0.00882788 -0.206797 0.966363 -0.152894 
0 -0.970143 -0.242536 0 -1 0 -0.447214 -0.894427 0 
0.447214 -0.894427 0 0 1 0 0.552253 -0.828478 -0.0929545 
0.853766 -0.50062 -0.143053 0.505168 -0.86155 0.05037 0.977804 -0.173303 0.117749 
0.929698 0.252399 0.268246 0.824223 0.491223 0.281701 0.850967 0.45787 0.257315 
0 -0.970142 -0.242536 0 -1 0 -0.351123 -0.936329 0 
0.351123 -0.936329 0 0 1 0 0 -0.970143 0.242536 
0.182412 -0.983219 -0.00263107 0.816668 -0.576821 -0.0182072 0.694553 -0.714656 0.08284 
0.780054 0.484535 0.395905 -0.717638 -0.6935 -0.0636671 -0.892249 -0.433041 -0.127934 
-0.861877 -0.491367 -0.125404 0 -0.970142 0.242536 0.191283 -0.977075 0.0934659 
-0.118005 -0.992192 0.0403822 0.958446 0.133575 0.252069 0.971771 -0.180709 0.151674 
-0.302195 0.928462 -0.215953 0.209439 0.977775 -0.00956117 0.379115 -0.909382 0.171162 
0.564187 -0.818512 0.108309 0.87173 -0.448958 0.196274 0.94025 -0.00515587 0.340445 
0.707817 0.449374 0.54503 -0.950016 0.161556 -0.267152 0.684842 -0.685027 0.248454 
0.856242 -0.470122 0.21409 0.831492 0.111869 0.544157 0.622292 0.767903 0.151918 
-0.156559 0.982367 -0.102201 -0.237954 -0.965044 0.10985 -0.70985 0.663942 -0.235149 
-0.556298 0.808282 -0.192903 0.0274805 -0.984634 0.172455 0.342116 -0.908362 0.240491 
0.904622 -0.0278935 0.425302 -0.5665 -0.817429 -0.104343 -0.884565 -0.461159 -0.069843 
-0.875652 0.441849 -0.194945 0.106949 0.993919 -0.0261969 0.11274 -0.929648 0.350776 
0.673052 -0.347138 0.653066 -0.246217 -0.933349 0.261223 0.707804 -0.158042 0.688503 
-0.254655 -0.957595 0.134771 0.781486 0.114781 0.613274 -0.293257 -0.954941 0.0457069 
-0.986841 -0.13628 -0.0870186 -0.996748 -0.0178491 -0.0785796 -0.442962 0.87358 0.2016 
-0.184051 0.982868 0.00972779 -0.0468157 0.997495 0.0530336 0.414795 -0.660184 0.62618 
0.0315345 -0.805653 0.591548 0.72714 -0.468246 0.502009 -0.20998 -0.89613 0.390972 
0.748091 0.517252 0.415704 0.778033 0.528109 0.340244 -0.649661 0.722115 -0.237677 
-0.559194 0.822332 0.105221 0.0660355 0.898832 0.433289 -0.136315 0.970237 -0.200148 
0.221828 -0.692264 0.686705 0.409696 -0.423443 0.807988 -0.0494461 -0.814989 0.577363 
0.16764 -0.683414 0.710523 0.133259 -0.676717 0.724083 0.645142 -0.172706 0.744288 
-0.165715 -0.943332 0.287513 0.56619 -0.274251 0.777313 0.69879 0.261829 0.665686 
-0.919439 0.391711 0.0345551 0.122908 0.929431 0.347925 0.465288 -0.388302 0.795442 
0.319487 -0.45878 0.829125 0.00996091 -0.979183 0.202737 0.258071 -0.803998 0.535712 
0.650461 -0.379848 0.657735 0.749474 0.0504128 0.660111 0.753508 0.235743 0.613719 
-0.972215 -0.218856 -0.0830704 0.303563 0.861479 0.407066 -0.00171515 -0.945902 0.324448 
0.874707 0.288606 0.389352 -0.73648 -0.676457 0.00171825 -0.971672 -0.224859 -0.0727381 
-0.0648529 0.974901 0.212983 -0.204202 0.948874 0.240707 0.402683 -0.768643 0.497025 
0.607859 0.695227 0.383623 -0.861246 -0.505504 0.052155 -0.642116 0.753399 0.141693 
-0.477851 0.840942 0.253919 0.463776 -0.805308 0.369312 -0.417071 -0.905844 0.0741544 
-0.265101 -0.955431 0.129895 -0.604023 -0.796457 -0.028511 0.897988 0.140964 0.41683 
0.603567 0.635301 0.481767 -0.986202 0.150848 -0.0681932 0.424298 -0.844004 0.328068 
0.666977 -0.562408 0.488712 0.710241 -0.519917 0.474599 0.839265 -0.243174 0.486313 
0.730263 0.353993 0.584298 -0.744686 -0.626687 0.229578 -0.790669 -0.597887 0.131811 
0.349098 0.761398 0.546264 -0.942979 -0.180622 -0.279582 0.0558766 0.948129 0.312938 
-0.635464 0.767406 -0.0852833 0.70771 -0.42328 0.565668 -0.553199 -0.83263 -0.0264134 
0.80891 -0.0846399 0.581808 0.719049 0.04578 0.69345 0.511957 0.413509 0.752934 
-0.788571 -0.490034 0.371514 -0.515219 -0.0398964 0.856129 -0.700809 -0.466458 0.539707 
0.0652653 0.774474 0.62923 -0.260644 -0.93833 0.227157 -0.571356 -0.817056 -0.0772794 
0.178159 0.849742 0.496183 -0.740383 0.567522 -0.360212 0.223576 -0.836296 0.500623 
-0.263175 -0.820805 0.506969 -0.208055 -0.808873 0.549944 0.716043 -0.229478 0.659259 
-0.655264 -0.72802 0.201535 -0.429368 -0.829288 0.357666 -0.415633 -0.903496 0.104615 
-0.782329 -0.577315 0.233812 -0.447978 -0.852567 0.269155 -0.670775 -0.656777 0.344536 
-0.581955 -0.71785 0.382126 -0.781093 -0.491342 0.385326 -0.722427 -0.237001 0.649561 
0.372909 0.534329 0.758572 -0.649888 -0.293885 0.700912 0.269528 0.657344 0.703743 
-0.54816 0.108964 0.829245 -0.276794 -0.927788 0.25019 -0.392944 -0.918589 0.042291 
0.0785646 0.994311 0.0719221 0.200154 0.752199 0.627801 -0.581578 -0.752908 -0.308054 
0.0613886 -0.6736 0.736542 0.266879 -0.561587 0.783196 0.512431 -0.473068 0.716674 
-0.511392 -0.559 0.652684 -0.328643 -0.690489 0.644375 0.501863 -0.2323 0.833169 
0.0383098 -0.361383 0.93163 0.288254 -0.197994 0.936861 -0.0860128 -0.232636 0.968753 
0.509077 -0.00669945 0.860695 0.624659 0.139592 0.76832 0.390406 -0.170964 0.904629 
0.00458273 0.102693 0.994703 -0.39721 -0.46067 0.79373 0.176105 0.268128 0.947151 
0.49294 0.403079 0.771062 -0.574254 -0.228348 0.786187 -0.793432 -0.282075 0.539351 
-0.400243 0.18692 0.897144 -0.348569 0.501007 0.792144 -0.325397 0.413653 0.850299 
-0.469935 -0.8815 -0.0460405 0.0329052 -0.512951 0.857787 0.109711 -0.604821 0.788768 
0.227901 0.0608025 0.971784 0.424938 0.215946 0.879087 -0.0805416 -0.585736 0.80649 
0.00067783 -0.244811 0.969571 0.274278 0.231154 0.933455 -0.650606 -0.523025 0.550597 
-0.00454191 0.621286 0.783571 -0.065593 0.470026 0.880212 -0.410466 0.307546 0.858448 
0.0930713 0.328098 0.940048 -0.30397 0.142544 0.941957 -0.575124 -0.234294 0.783798 
-0.50477 -0.678618 0.533558 -0.148344 -0.0253617 0.988611 -0.250191 -0.299379 0.920748 
-0.752534 -0.159641 0.63891 -0.639287 -0.300971 0.707622 -0.48254 -0.286207 0.827793 
-0.150407 0.335355 0.930008 -0.345337 -0.565449 0.749006 0.171286 -0.0938495 0.980741 
-0.481668 -0.389382 0.785097 -0.355267 0.266828 0.895873 -0.100543 0.154102 -0.982926 
-0.608962 -0.17719 -0.773155 -0.330753 0.324297 -0.886247 -0.231432 -0.476972 -0.847901 
-0.535474 -0.686128 -0.49244 -0.0803918 -0.122922 -0.989155 -0.214243 -0.504251 -0.836559 
-0.699465 -0.566384 -0.435842 0.222872 -0.0623866 -0.972849 -0.760293 -0.162444 -0.628941 
-0.636668 -0.10671 -0.763719 -0.422379 0.302775 -0.854355 -0.370019 0.368547 -0.852795 
0.457988 -0.414694 -0.786305 0.0686924 -0.62405 -0.778359 0.251889 -0.786014 -0.564565 
0.408405 -0.622307 -0.667787 -0.339683 -0.585618 -0.73598 0.505508 -0.0421631 -0.861791 
-0.000887472 -0.362585 -0.93195 0.220369 0.0800081 -0.97213 0.473415 0.0809421 -0.877113 
0.132561 -0.0862269 -0.987417 0.0201436 -0.0473424 -0.998676 0.215851 0.134481 -0.967121 
-0.523896 -0.700358 -0.4848 -0.00842441 -0.149965 -0.988655 -0.615689 -0.75664 -0.220051 
0.336418 0.208294 -0.918388 -0.578803 -0.679522 -0.450818 0.191107 -0.0143995 -0.981464 
-0.72577 -0.189693 -0.661267 -0.0304452 0.502127 -0.864258 -0.653085 -0.0180419 -0.757069 
-0.539456 0.194028 -0.819354 0.00161493 0.605942 -0.795507 -0.350901 0.00562708 -0.936396 
-0.9484 0.296261 -0.112991 0.129409 0.832735 -0.538336 -0.501831 -0.815528 -0.288237 
0.274777 -0.154675 -0.948985 -0.372052 -0.848653 -0.375986 -0.306458 -0.723198 -0.618925 
-0.114084 -0.919115 -0.377112 0.166577 -0.812473 -0.558695 0.698158 -0.0244206 -0.715527 
0.703979 -0.307164 -0.640362 -0.476797 -0.685871 -0.549768 -0.210494 -0.404522 -0.889974 
0.236244 0.0949457 -0.967044 0.340743 0.262888 -0.902654 0.688324 0.307776 -0.656874 
0.307665 0.219102 -0.925925 0.491322 0.334167 -0.804323 0.334284 0.378537 -0.863113 
0.390282 0.479195 -0.786163 -0.737675 -0.404007 -0.540938 -0.574381 -0.000270502 -0.818588 
-0.91267 -0.399525 -0.0861073 -0.465648 0.822499 -0.3266 -0.309548 -0.662897 -0.681724 
-0.107753 0.631778 -0.767623 -0.489135 -0.87202 0.0180996 -0.555328 -0.827829 -0.0794362 
-0.722995 -0.633553 0.275479 0.117182 0.48529 -0.866465 0.58283 -0.505715 -0.636051 
0.333834 -0.81148 -0.479641 0.539226 0.448832 -0.71259 0.481747 0.492249 -0.724991 
-0.512292 -0.315606 -0.798717 -0.804258 -0.499001 -0.32275 -0.888814 0.256788 -0.379565 
-0.236806 0.323175 -0.916232 0.257311 0.703804 -0.662157 -0.615505 -0.723902 -0.311641 
-0.984574 0.00935315 0.17472 0.00628443 0.0698534 -0.997537 -0.167969 0.807384 -0.565613 
-0.105694 0.987593 -0.11614 0.802957 -0.332366 -0.494765 0.861436 -0.0284573 -0.507068 
0.670675 0.466232 -0.576909 0.540174 0.502734 -0.674886 -0.832578 -0.440899 -0.335295 
0.421364 0.657643 -0.624467 -0.67951 0.00202839 -0.733664 -0.836379 -0.536755 -0.111193 
-0.984023 0.17755 -0.0132505 0.0168342 0.881237 -0.472374 0.0783217 0.815439 -0.57352 
-0.493652 0.864194 -0.0973499 0.794356 -0.417074 -0.441643 0.838282 0.0532831 -0.542627 
-0.617459 -0.777292 -0.120669 -0.732951 -0.645409 -0.215012 -0.812805 0.573137 -0.104221 
0.0707462 0.915098 -0.396976 -0.189599 0.947347 -0.258044 -0.848682 -0.527977 -0.0313002 
0.79438 0.0538388 -0.605031 0.570924 0.718832 -0.396643 0.261194 0.869047 -0.420161 
0.557104 -0.5915 -0.582892 0.774042 -0.152439 -0.614509 0.830421 -0.0227636 -0.556672 
0.807672 0.199284 -0.554934 0.889436 0.168923 -0.424698 -0.996821 0.0759726 -0.0239853 
-0.986802 0.143841 -0.0743716 -0.581637 0.778415 -0.236155 -0.0326868 0.961518 -0.27279 
0.707765 -0.145351 -0.691334 0.568803 -0.418213 -0.70821 0.849085 0.101006 -0.51851 
-0.687697 -0.725592 -0.0242562 -0.934572 -0.352025 0.0515079 -0.970907 0.205957 -0.122152 
-0.714457 0.687217 -0.13147 -0.384243 0.884952 -0.263093 -0.0857946 0.989932 -0.11258 
-0.455045 0.88269 -0.117437 0.492641 -0.335342 -0.803026 0.586532 -0.2178 -0.780092 
0.299709 -0.683087 -0.666008 0.48608 -0.613128 -0.622737 0.703915 0.044084 -0.708915 
-0.26395 -0.93996 -0.216347 0.797416 0.229151 -0.558227 0.817778 0.460354 -0.345418 
0.83161 0.392962 -0.392436 -0.961824 -0.260701 0.0832409 -0.991343 -0.117573 0.0584376 
-0.915097 0.386875 0.113694 -0.705634 0.698605 0.118461 0.191925 0.95871 -0.209856 
-0.337837 0.941168 -0.00833154 0.741182 -0.279684 -0.610267 0.82152 0.031227 -0.569323 
0.831536 0.187689 -0.522801 0.675842 0.706558 -0.209793 -0.847155 -0.527794 0.0613367 
-0.974571 0.0451301 0.219489 -0.632886 0.743412 0.216319 -0.0838685 0.995805 -0.0365821 
0.0297781 -0.928075 -0.3712 0.685449 -0.532582 -0.496504 0.859645 0.0827862 -0.50414 
-0.917889 0.342933 0.199692 0.267658 0.962361 -0.0471177 -0.384742 0.900647 0.202012 
0.707015 -0.594015 -0.383766 0.520568 -0.68624 -0.508019 0.569069 -0.602907 -0.559164 
0.944674 -0.0359678 -0.326033 -0.94168 0.249444 0.225866 -0.732598 0.642452 0.224846 