# vtk DataFile Version 4.2
vtk output
ASCII
DATASET POLYDATA
POINTS 549 float
311.074 131.506 193.935 310.907 131.665 194.013 311.825 131.862 193.795 
312.541 131.591 193.637 314.641 131.659 193.561 314.488 131.662 193.567 
314.836 131.596 193.6 310.924 131.89 194.086 310.717 131.862 194.21 
311.213 132.088 194.077 313.429 132.279 193.749 314.684 131.792 193.636 
310.877 132.119 194.344 312.68 132.554 193.995 313.824 132.468 193.858 
316.568 129.206 193.856 322.723 129.02 194.693 322.887 129.378 194.746 
310.337 130.904 194.351 312.451 131.135 193.679 314.015 130.877 193.631 
321.936 130.458 194.516 310.073 131.377 194.655 314.073 131.61 193.626 
315.453 131.788 193.759 322.932 130.669 195.107 316.429 132.225 193.999 
321.48 131.549 194.702 310.628 132.385 194.957 311.833 132.731 194.444 
312.567 132.905 194.36 319.774 132.275 194.607 311.085 132.672 194.984 
313.226 133.458 194.886 315.743 133.384 194.553 316.137 133.576 194.797 
317.685 133.054 194.629 316.873 133.6 195 312.193 128.622 194.348 
319.722 127.888 194.318 324.227 129.216 195.684 309.496 130.906 195.306 
309.599 131.273 195.304 318.848 132.934 194.792 322.727 131.833 195.612 
312.166 133.389 195.678 314.404 133.572 194.758 325.195 125.608 196.751 
310.951 127.226 195.277 324.668 126.859 196.093 325.166 126.359 196.635 
309.481 128.887 195.523 309.344 130.946 195.674 309.506 131.348 195.631 
324.408 130.587 196.506 309.915 131.954 195.603 310.117 132.204 195.77 
322.664 132.112 195.817 311.593 133.133 195.954 316.469 134.419 196.254 
324.286 123.664 196.788 324.84 123.609 197.084 325.724 124.484 197.659 
311.622 125.602 195.766 308.474 129.293 197.194 309.034 130.482 196.776 
309.57 131.536 196.264 310.906 132.697 196.99 320.443 133.604 196.151 
321.982 133.161 196.78 316.09 134.412 196.333 321.12 133.633 196.746 
317.074 134.558 196.844 325.331 123.291 197.601 307.492 125.714 197.609 
307.085 126.269 198.077 325.641 128.894 197.88 324.741 130.746 197.391 
306.788 123.824 198.616 326.275 123.726 198.895 306.326 124.222 199.013 
306.422 124.867 198.873 306.801 126.46 198.718 309.022 130.12 198.26 
324.274 131.808 198.473 323.017 132.84 197.912 323.99 132.15 198.655 
313.754 133.925 197.862 316.255 134.522 197.898 317.017 134.625 197.777 
305.892 123.851 199.749 306.326 125.536 199.266 307.017 127.09 199.266 
310.405 131.675 198.55 325.176 130.721 199.398 319.55 134.356 198.927 
307.197 119.944 200.112 306.076 120.455 200.882 305.507 122.323 200.719 
305.76 121.119 201.021 305.482 122.666 200.753 311.028 131.718 199.449 
324.791 131.386 200.357 323.238 132.808 200.217 317.178 134.322 199.777 
325.369 115.061 201.919 307.821 117.857 200.844 307.299 117.881 201.128 
326.313 118.294 201.487 306.576 118.373 201.434 305.439 122.629 201.159 
307.994 127.345 201.24 312.849 132.024 201.049 313.166 132.191 201.147 
314.16 133.031 200.761 315.299 133.704 200.497 316.468 134.019 200.616 
316.046 133.962 200.48 324.132 113.257 202.24 306.023 118.323 202.228 
305.875 119.185 202.012 305.71 123.47 201.58 322.802 109.656 203.79 
324.946 112.021 203.383 316.752 112.396 201.951 322.047 132.859 202.629 
310.398 110.128 204.412 311.557 110.317 203.85 323.979 109.553 204.357 
306.633 113.09 204.584 326.463 112.847 204.509 327.069 114.788 204.535 
305.536 119.001 204.177 327.281 120.629 203.486 326.191 127.844 203.76 
317.039 133.009 202.901 311.915 107.572 205.624 309.454 109.335 205.685 
324.727 109.318 204.967 306.794 111.722 205.914 306.247 112.767 205.567 
306.027 113.197 205.537 327.087 112.797 205.664 305.589 118.919 204.817 
306.316 121.595 204.571 307.704 123.013 205.053 324.068 131.207 203.77 
315.258 105.027 206.372 316.127 104.862 206.26 318.932 104.607 206.1 
321.115 105.157 206.038 307.795 110.22 206.575 325.707 109.504 205.742 
306.223 112.479 206.109 305.885 113.367 205.853 327.472 113.896 206.322 
305.6 115.401 205.876 306.099 119.907 205.458 326.949 122.615 205.584 
326.341 125.71 205.273 324.983 129.387 204.979 321.659 132.075 204.508 
318.643 102.302 207.769 316.042 103.729 207.21 326.469 108.952 207.171 
305.678 114.132 206.235 305.985 116.855 207.153 305.923 118.503 205.993 
324.894 128.582 205.814 324.337 129.272 205.783 318.579 131.216 205.475 
323.646 130.068 205.54 319.786 131.925 205.024 321.865 101.306 208.763 
314.343 103.234 208.884 311.759 105.17 208.808 306.235 112.169 207.514 
305.725 114.528 207.049 327.581 116.974 208.115 325.839 123.968 207.502 
325.058 125.104 207.79 322.376 129.773 206.375 306.368 116.864 207.877 
327.083 119.378 208.407 325.684 121.934 209.164 324.486 125.282 208.249 
316.934 100.554 210.854 327.438 108.045 209.903 327.817 113.293 209.886 
306.635 114.539 209.234 326.208 120.194 209.682 324.115 100.454 210.503 
314.314 102.385 211.456 308.602 109.363 210.689 321.977 98.2615 212.597 
312.566 104.22 212.043 309.349 108.428 211.305 326.723 116.117 212.522 
325.004 122.013 212.009 325.004 122.013 212.009 325.004 122.013 212.009 
325.004 122.013 212.009 325.004 122.013 212.009 326.656 101.078 213.169 
308.879 110.141 211.985 309.482 113.277 213.29 317.384 121.991 212.634 
325.004 122.013 212.009 324.988 98.3531 213.931 325.63 98.6469 214.273 
322.35 97.1627 215.076 323.581 96.9611 215.872 312.042 106.004 214.664 
322.903 96.8931 216.168 324.432 97.1036 215.942 319.302 98.0712 216.164 
311.053 112.435 215.999 324.037 96.5764 217.481 323.641 96.5676 217.552 
322.825 117.333 217.664 320.66 118.92 216.698 323.958 96.4246 218.698 
325.16 96.866 217.583 326.947 98.883 217.31 311.818 109.874 217.509 
325.411 96.7603 218.641 322.742 96.564 219.269 325.018 96.51 219.719 
314.857 104.524 219.847 313.477 113.771 220.293 326.854 97.8576 220.307 
320.75 97.4769 220.496 316.462 102.18 220.333 325.37 112.752 221.29 
313.361 113.041 220.616 324.949 96.2999 222.128 313.026 110.105 220.338 
315.002 114.883 221.85 317.173 116.645 221.036 324.138 96.4393 222.75 
322.966 96.7614 222.895 322.629 114.72 222.624 324.992 96.5539 223.307 
320.294 98.4511 223.019 327.051 108.329 223.297 326.745 109.02 223.466 
326.094 110.342 223.422 326.457 109.552 223.634 327.739 104.491 224.427 
327.064 107.53 224.651 315.129 111.985 224.313 315.216 113.888 223.372 
315.72 114.347 223.533 315.939 114.636 223.42 322.059 97.6595 224.794 
316.256 114.312 224.073 316.401 114.53 223.924 318.087 114.782 224.091 
325.831 97.185 224.575 324.372 97.2611 225.966 322.991 97.6987 226.482 
316.163 109.584 226.822 316.896 111.28 227.014 320.712 113.002 226.476 
316.686 113.552 224.915 319.415 113.438 225.913 325.24 97.5714 226.661 
323.062 111.611 227.581 324.876 97.7847 228.136 326.366 98.8333 228.681 
325.814 108.442 229.121 316.559 108.716 228.962 323.934 110.722 228.932 
316.925 110.444 228.331 317.102 110.545 229.087 322.686 111.585 228.627 
322.713 111.565 229.309 317.926 111.503 228.857 318.388 111.916 228.285 
318.856 112.009 228.99 320.622 112.217 229.007 320.873 112.243 228.338 
321.824 112.012 228.285 323.614 97.8957 229.404 316.729 109.78 229.918 
317.033 110.766 230.32 323.32 111.251 229.829 319.433 112.236 229.7 
320.37 112.298 229.711 326.097 97.3816 232.371 325.894 97.4324 232.079 
325.95 97.9278 231.041 326.794 99.1273 230.741 326.839 98.3335 232.306 
322.462 98.3914 229.991 327.288 104.9 231.637 316.302 110.825 231.85 
322.139 112.007 230.273 318.275 112.124 230.531 323.355 111.811 231.458 
318.053 112.492 231.263 320.332 113.454 232.015 316.877 113.372 232.842 
324.063 97.7197 230.94 326.57 97.662 232.733 317.647 104.136 231.015 
316.716 106.413 230.988 318.897 113.88 232.515 326.723 97.7442 233.433 
316.643 114.522 234.255 325.503 96.7221 234.147 325.421 96.6445 234.368 
325.575 96.7061 234.432 325.432 96.639 234.56 325.526 96.6856 234.658 
325.697 96.8508 234.812 326.728 97.8089 234.6 326.996 98.3129 234.535 
327.477 99.6898 234.87 315.708 114.941 235.592 316.697 116.234 236.346 
325.345 96.6868 234.83 325.896 97.133 235.795 325.349 96.9905 236.645 
324.527 96.851 237.271 325.883 97.5071 237.267 319.065 99.383 238.354 
327.834 102.407 237.717 325.099 97.2129 238.111 326.665 98.4998 237.577 
320.396 98.2238 238.759 312.987 107.65 239.207 312.524 108.597 239.459 
312.084 110.205 239.603 318.331 119.064 239.734 325.557 97.6907 238.862 
327.475 101.206 239.017 327.636 106.962 240.11 313.461 116.923 240.363 
314.923 118.436 240.686 321.843 97.4574 240.35 323.429 97.2281 240.169 
325.841 98.5676 240.284 315.951 119.427 241.27 320.606 98.0068 241.672 
324.837 98.2811 241.587 317.217 100.429 242.947 315.776 101.686 242.81 
327.402 111.238 243.211 324.314 98.6455 242.854 324.756 99.4473 243.566 
326.667 101.371 242.144 315.372 102.16 244.72 308.437 114.907 245.191 
325.448 118.876 244.698 322.951 121.634 244.67 319.906 99.4149 244.704 
318.068 100.166 244.6 322.269 99.3849 244.886 324.552 100.57 244.925 
326.923 107.754 246.169 308.799 109.505 246.192 307.366 111.127 247.301 
318.854 123.797 245.561 318.178 100.471 245.358 323.626 100.552 245.595 
325.736 103.611 245.953 326.354 105.896 246.342 326.548 106.721 246.446 
310.405 107.197 246.509 327.502 114.209 247.503 320.553 126.219 247.436 
317.477 101.613 246.674 321.181 100.83 246.557 323.599 101.971 246.785 
325.12 102.836 246.19 324.962 103.608 246.896 309.837 107.777 247.517 
308.169 109.587 247.988 306.255 112.864 248.632 305.909 113.688 248.976 
305.979 114.38 248.624 323.859 126.41 248.761 318.619 101.601 247.121 
324.335 102.722 246.835 321.939 103.252 248.442 324.537 105.739 248.724 
324.984 106.524 248.886 309.026 108.787 248.871 307.748 110.129 248.902 
306.092 112.994 249.12 305.819 113.915 249.323 324.838 127.254 250.171 
321.963 128.501 249.273 319.943 130.964 250.817 323.58 129.738 250.981 
308.276 109.708 249.381 306.431 112.395 249.787 326.759 111.507 249.54 
327.108 112.701 249.393 305.649 115.962 250.441 326.098 123.715 250.261 
314.514 128.291 250.613 313.73 105.961 249.775 316.783 105.542 250.323 
[...]
POINT_DATA 549
SCALARS scalars float
LOOKUP_TABLE default
1 1 1 1 1 1 1 1 1 
1 1 1 1 1 1 1 1 1 
1 1 1 1 1 1 1 1 1 
1 1 1 1 1 1 1 1 1 
1 1 1 1 1 1 1 1 1 
1 1 1 1 1 1 1 1 1 
1 1 1 1 1 1 1 1 1 
1 1 1 1 1 1 1 1 1 
1 1 1 1 1 1 1 1 1 
1 1 1 1 1 1 1 1 1 
1 1 1 1 1 1 1 1 1 
1 1 1 1 1 1 1 1 1 
1 1 1 1 1 1 1 1 1 
1 1 1 1 1 1 1 1 1 
1 1 1 1 1 1 1 1 1 
1 1 1 1 1 1 1 1 1 
1 1 1 1 1 1 1 1 1 
1 1 1 1 1 1 1 1 1 
1 1 1 1 1 1 1 1 1 
1 1 1 1 1 1 1 1 1 
1 1 1 1 1 1 1 1 1 
1 1 1 1 1 1 1 1 1 
1 1 1 1 1 1 1 1 1 
1 1 1 1 1 1 1 1 1 
1 1 1 1 1 1 1 1 1 
1 1 1 1 1 1 1 1 1 
1 1 1 1 1 1 1 1 1 
1 1 1 1 1 1 1 1 1 
1 1 1 1 1 1 1 1 1 
1 1 1 1 1 1 1 1 1 
1 1 1 1 1 1 1 1 1 
1 1 1 1 1 1 1 1 1 
1 1 1 1 1 1 1 1 1 
1 1 1 1 1 1 1 1 1 
1 1 1 1 1 1 1 1 1 
1 1 1 1 1 1 1 1 1 
1 1 1 1 1 1 1 1 1 
1 1 1 1 1 1 1 1 1 
1 1 1 1 1 1 1 1 1 
1 1 1 1 1 1 1 1 1 
1 1 1 1 1 1 1 1 1 
1 1 1 1 1 1 1 1 1 
1 1 1 1 1 1 1 1 1 
1 1 1 1 1 1 1 1 1 
1 1 1 1 1 1 1 1 1 
1 1 1 1 1 1 1 1 1 
1 1 1 1 1 1 1 1 1 
1 1 1 1 1 1 1 1 1 
1 1 1 1 1 1 1 1 1 
1 1 1 1 1 1 1 1 1 
1 1 1 1 1 1 1 1 1 
1 1 1 1 1 1 1 1 1 
1 1 1 1 1 1 1 1 1 
1 1 1 1 1 1 1 1 1 
1 1 1 1 1 1 1 1 1 
1 1 1 1 1 1 1 1 1 
1 1 1 1 1 1 1 1 1 
1 1 1 1 1 1 1 1 1 
1 1 1 1 1 1 1 1 1 
1 1 1 1 1 1 1 1 1 
1 1 1 1 1 1 1 1 1 

NORMALS Normals float
-0.429076 -0.0805276 -0.899672 -0.531001 0.0486461 -0.845974 -0.217665 0.359211 -0.907518 
-0.0374694 0.0377864 -0.998583 0.0561408 0.0280969 -0.998028 -0.104307 0.237514 -0.965768 
0.251978 0.0160511 -0.9676 -0.429334 0.47833 -0.766076 -0.716678 0.209871 -0.665076 
-0.328158 0.573329 -0.750737 -0.0333833 0.395764 -0.917745 0.0773236 0.433479 -0.89784 
-0.533044 0.658044 -0.531829 -0.148505 0.607221 -0.780531 0.0436639 0.448752 -0.892589 
0.0501298 -0.151012 -0.98726 0.360712 -0.124157 -0.924376 0.477949 0.0798331 -0.874752 
-0.59736 -0.0639043 -0.799423 -0.151177 -0.16457 -0.974711 0.0144751 -0.133306 -0.990969 
0.313035 0.175195 -0.933443 -0.744562 0.36852 -0.556615 -0.0839027 0.115035 -0.989812 
0.198995 0.0208745 -0.979778 0.706976 0.308139 -0.636581 0.126332 0.348561 -0.928733 
0.344588 0.508362 -0.789194 -0.588989 0.714363 -0.37786 -0.277318 0.740441 -0.612243 
-0.254656 0.789281 -0.558736 0.203168 0.391675 -0.897393 -0.390982 0.849774 -0.353578 
-0.260533 0.929962 -0.259411 0.0584709 0.582604 -0.81065 0.105103 0.733616 -0.671387 
0.184394 0.65461 -0.733133 0.149684 0.827112 -0.541739 -0.200921 -0.29919 -0.9328 
0.0573128 -0.350997 -0.934621 0.650356 0.119288 -0.750205 -0.876202 0.083704 -0.47462 
-0.815948 0.336743 -0.469929 0.197285 0.713736 -0.672056 0.652636 0.427653 -0.625443 
-0.376543 0.91407 -0.150637 -0.0246187 0.699564 -0.714146 0.59564 -0.172031 -0.784613 
-0.303439 -0.404005 -0.862962 0.707041 -0.0260282 -0.706694 0.763218 -0.0314321 -0.645376 
-0.594631 -0.205766 -0.777222 -0.940528 0.238317 -0.242098 -0.866014 0.483257 -0.128385 
0.746835 0.481826 -0.458347 -0.769798 0.595354 -0.23014 -0.688131 0.725062 -0.0275856 
0.637337 0.596091 -0.488341 -0.463248 0.875205 -0.139346 0.0256712 0.907847 -0.418516 
0.415012 -0.324346 -0.850038 0.625466 -0.208966 -0.751749 0.753173 -0.117985 -0.647156 
-0.289845 -0.404625 -0.867334 -0.899711 0.293047 -0.323487 -0.920199 0.391099 -0.0166067 
-0.824351 0.560604 0.0785378 -0.53525 0.826749 0.173186 0.294249 0.828022 -0.477282 
0.542203 0.748077 -0.382619 -0.141917 0.958317 -0.247967 0.371814 0.895787 -0.243558 
0.035772 0.977172 -0.209416 0.626013 -0.334859 -0.704257 -0.695368 -0.0528526 -0.716708 
-0.818387 0.239157 -0.522539 0.953128 0.206022 -0.221592 0.832702 0.484416 -0.268232 
-0.672721 -0.217902 -0.707083 0.899948 -0.0561243 -0.43237 -0.834053 -0.0486331 -0.549536 
-0.807221 0.0318671 -0.589389 -0.869779 0.464823 -0.165602 -0.685254 0.595801 0.418867 
0.781747 0.604435 -0.153393 0.492183 0.860093 -0.134147 0.692873 0.702285 -0.16347 
-0.40268 0.89061 0.211336 -0.159421 0.983723 0.0829086 0.0626191 0.998001 0.00855397 
-0.927413 0.0209662 -0.37345 -0.925628 0.192373 -0.32589 -0.849134 0.526634 -0.0403618 
-0.665873 0.682882 0.300475 0.882435 0.470425 0.00294437 0.179046 0.981806 0.0632489 
-0.584303 -0.332724 -0.740193 -0.703475 -0.295819 -0.646231 -0.8845 -0.21018 -0.416515 
-0.924068 -0.210183 -0.319252 -0.983865 0.0157897 -0.178215 -0.599034 0.647817 0.470629 
0.864083 0.48338 0.140373 0.605999 0.793716 0.0527192 -0.0594736 0.966862 0.248277 
0.484073 -0.384405 -0.78607 -0.303801 -0.424582 -0.852898 -0.401242 -0.514804 -0.757616 
0.797968 -0.273254 -0.537195 -0.652964 -0.349639 -0.671856 -0.998772 0.0351864 -0.0348697 
-0.479899 0.661977 0.575746 -0.534481 0.597667 0.597599 -0.495307 0.695062 0.521114 
-0.396402 0.789438 0.468672 -0.30009 0.897443 0.32333 -0.20116 0.869524 0.451068 
-0.271289 0.936807 0.220897 0.20831 -0.446066 -0.870421 -0.860043 -0.303849 -0.409879 
-0.850415 -0.273711 -0.449307 -0.883449 0.406861 0.232342 0.182407 -0.524309 -0.831762 
0.477966 -0.485783 -0.731822 -0.0576983 -0.385884 -0.920741 0.296042 0.906264 0.301736 
-0.435428 -0.409797 -0.801541 -0.315962 -0.416436 -0.852496 0.454507 -0.475437 -0.753249 
-0.57112 -0.568211 -0.592417 0.80684 -0.331797 -0.488793 0.948974 -0.121011 -0.291212 
-0.998111 -0.00587308 0.0611537 0.994705 0.0495457 -0.0900455 0.932732 0.315035 0.175397 
-0.21822 0.793088 0.568676 -0.380556 -0.646571 -0.661153 -0.451211 -0.653074 -0.608197 
0.473615 -0.562362 -0.677818 -0.532726 -0.681935 -0.501167 -0.774468 -0.538203 -0.332471 
-0.903664 -0.264395 -0.336877 0.868642 -0.293747 -0.398966 -0.985179 -0.0119343 0.171112 
-0.767189 0.364395 0.527861 -0.489119 0.563654 0.665625 0.591239 0.722835 0.357695 
-0.192911 -0.406394 -0.893101 -0.253636 -0.406837 -0.877583 -0.0382677 -0.25207 -0.966952 
0.143313 -0.436345 -0.888293 -0.664531 -0.632811 -0.397429 0.664458 -0.375416 -0.646188 
-0.851323 -0.488891 -0.190354 -0.940373 -0.330699 -0.079609 0.963243 -0.0943994 -0.2515 
-0.995737 -0.0146293 0.0910646 -0.801556 0.41081 0.434445 0.967266 0.176612 0.182223 
0.873009 0.339817 0.349828 0.680904 0.556546 0.476053 0.17483 0.847364 0.501407 
-0.0652432 -0.682613 -0.727862 -0.282074 -0.660625 -0.695708 0.66162 -0.561333 -0.497156 
-0.983246 -0.155383 -0.0953079 -0.934563 0.0817009 0.346291 -0.917331 0.127992 0.37699 
0.670688 0.406467 0.620453 0.461449 0.600886 0.652688 -0.263748 0.631108 0.729479 
0.398206 0.64053 0.656622 0.0570375 0.721201 0.690374 0.132021 -0.684622 -0.716843 
-0.46327 -0.721016 -0.515283 -0.704366 -0.681044 -0.200119 -0.893554 -0.444366 0.064033 
-0.957441 -0.130282 0.257552 0.986404 0.129209 0.101553 0.802544 0.310698 0.509303 
0.683217 0.461322 0.566036 0.324114 0.576847 0.749799 -0.869423 0.16326 0.466316 
0.89819 0.258837 0.355329 0.771194 0.360216 0.524885 0.6294 0.44506 0.637006 
-0.347433 -0.836373 -0.423994 0.852525 -0.372834 -0.366326 0.99904 0.0249148 0.0360397 
-0.894684 -0.00759157 0.446636 0.804368 0.319937 0.500632 0.5238 -0.584121 -0.620029 
-0.671764 -0.740745 0.00540617 -0.89695 -0.343784 0.278018 0.050096 -0.847996 -0.52763 
-0.771029 -0.618887 0.149974 -0.804638 -0.480081 0.349399 0.828437 0.443962 0.341453 
0.0756955 -0.916019 -0.393928 -0.437428 0.543368 -0.716525 0.321489 0.617249 -0.718087 
0.434965 -0.58086 0.688046 -0.0841098 0.922008 0.377925 0.88656 -0.329346 -0.324874 
-0.882062 -0.188856 0.431626 -0.895645 -0.0765963 0.438123 -0.452459 0.640772 0.620235 
-0.338162 -0.649578 0.680951 0.419487 -0.754854 -0.504208 0.654457 -0.66783 -0.354527 
-0.0573122 -0.936297 -0.346502 0.114692 -0.970806 -0.210667 -0.836851 -0.46911 0.282163 
-0.101637 -0.987773 -0.118215 0.244931 -0.918399 -0.310728 -0.461276 -0.884571 -0.0689828 
-0.869051 -0.149837 0.471486 0.0676701 -0.983856 -0.165674 -0.0350005 -0.982963 -0.180441 
0.567471 0.747174 0.345987 0.284445 0.749132 0.59824 0.0953614 -0.992184 -0.080478 
0.477563 -0.84818 -0.22918 0.916534 -0.362038 -0.169984 -0.924843 -0.0974858 0.367643 
0.461565 -0.877197 -0.132227 -0.186502 -0.98232 -0.0162694 0.283565 -0.958602 -0.0259591 
-0.834389 -0.512601 0.202571 -0.856454 0.247605 0.452965 0.793162 -0.606087 -0.0595972 
-0.59484 -0.802738 0.0421445 -0.842258 -0.488448 0.228078 0.879643 0.446541 0.163798 
-0.903613 0.238227 0.355993 0.108618 -0.993535 0.0330223 -0.913099 -0.0368624 0.406067 
-0.720839 0.543268 0.430409 -0.126131 0.845096 0.519522 -0.162483 -0.970228 0.179602 
-0.330653 -0.928549 0.168714 0.346458 0.817377 0.460285 -0.00370371 -0.961957 0.273176 
-0.65681 -0.699028 0.282774 0.959606 0.27205 0.0717297 0.889447 0.352446 0.290974 
0.801443 0.54613 0.243786 0.825334 0.358828 0.435965 0.998835 0.0431699 -0.0215774 
0.884885 0.395785 0.245625 -0.827307 0.246642 0.504709 -0.719884 0.453507 0.525451 
-0.586364 0.612056 0.530627 -0.469008 0.749972 0.466449 -0.516704 -0.81293 0.268629 
-0.428985 0.589504 0.684439 -0.346474 0.738768 0.578081 -0.0925931 0.800652 0.591931 
0.544104 -0.819656 0.179206 -0.0678106 -0.940897 0.331836 -0.168616 -0.960024 0.223435 
-0.836734 0.354993 0.416961 -0.676706 0.586863 0.444591 0.0390249 0.932244 0.35972 
-0.507929 0.526802 0.681533 -0.122103 0.82373 0.553678 0.208256 -0.933749 0.291105 
0.481441 0.860152 0.168383 0.0686299 -0.997577 -0.0114014 0.836186 -0.546687 0.0438858 
0.899251 0.435708 -0.038808 -0.988286 0.0849797 0.126764 0.594909 0.799406 -0.0838675 
-0.837544 0.507586 0.202181 -0.893258 0.448463 -0.0311681 0.355839 0.929776 0.0943093 
0.515567 0.848426 -0.119853 -0.66231 0.748012 -0.0426966 -0.477662 0.837719 0.264699 
-0.294715 0.95558 0.00323775 0.162546 0.984854 0.0603378 0.298456 0.913493 0.276505 
0.292513 0.941443 0.167695 -0.255429 -0.957255 -0.135718 -0.9652 0.212975 -0.15176 
-0.799586 0.555367 -0.228536 0.483297 0.871221 -0.0860089 -0.19098 0.930644 -0.312134 
0.136766 0.95954 -0.246127 0.515149 -0.785426 -0.343114 0.343554 -0.846414 -0.406883 
0.501038 -0.830462 -0.243505 0.959891 -0.23865 -0.147156 0.881341 -0.421263 -0.213954 
-0.507207 -0.860103 -0.0544476 0.993107 0.0989312 -0.0628599 -0.836359 0.276014 -0.473624 
0.38144 0.896774 -0.224278 -0.4676 0.804759 -0.365668 0.321 0.872688 -0.367933 
-0.188727 0.816425 -0.54574 0.11006 0.890976 -0.44051 -0.436014 0.663757 -0.607716 
-0.275577 -0.945108 -0.175582 0.775382 -0.577464 -0.255575 -0.857395 -0.505624 -0.0960061 
-0.946845 -0.168954 -0.273748 -0.0885623 0.842381 -0.531555 0.802404 -0.594872 -0.0476974 
-0.215805 0.815584 -0.536889 0.475657 -0.854734 -0.2078 0.0595923 -0.988105 -0.141764 
0.618193 -0.781956 -0.0798892 -0.0373364 -0.998426 0.0418499 0.440641 -0.876651 0.19318 
0.649996 -0.755392 0.0829908 0.812836 -0.551191 0.188378 0.955179 -0.295978 -0.00554135 
0.982431 -0.186239 0.0120171 -0.613911 0.592734 -0.521326 -0.430343 0.754338 -0.495761 
0.0591307 -0.985792 0.157216 0.731679 -0.624187 0.273928 0.546638 -0.796256 0.259158 
0.0439285 -0.994177 0.0984019 0.587937 -0.776779 0.225708 -0.633384 -0.766483 -0.106437 
0.992783 -0.0978551 0.0693231 0.49113 -0.841041 0.226807 0.83874 -0.509274 0.192755 
-0.441607 -0.894425 -0.0706137 -0.849735 -0.395023 -0.349153 -0.841002 -0.336616 -0.423562 
-0.851304 -0.148673 -0.503168 -0.0307794 0.791807 -0.609996 0.653982 -0.702836 0.279874 
0.916619 -0.340168 0.209988 0.993838 0.0827425 -0.0737521 -0.66077 0.572405 -0.485525 
-0.506315 0.746838 -0.431136 -0.391523 -0.919018 0.0459986 0.140816 -0.958027 0.24971 
0.711696 -0.624493 0.321709 -0.381277 0.755754 -0.532413 -0.312 -0.92566 0.214029 
0.515744 -0.784265 0.344873 -0.563888 -0.821918 0.0805025 -0.740707 -0.671772 -0.00869638 
0.995677 -0.0498388 -0.0783745 0.521794 -0.728575 0.443745 0.583546 -0.640938 0.498671 
0.895778 -0.310484 0.31809 -0.595965 -0.762562 0.251643 -0.842 0.171559 -0.511473 
0.793001 0.455701 -0.404335 0.346659 0.579445 -0.737611 -0.25056 -0.862674 0.439334 
-0.537821 -0.801632 0.261028 0.161125 -0.814124 0.55789 0.608768 -0.567365 0.554525 
0.953078 -0.242179 0.181638 -0.817909 -0.509419 -0.267425 -0.852191 -0.461775 -0.246039 
-0.0226429 0.70552 -0.708329 -0.449896 -0.797275 0.402425 0.382696 -0.631585 0.674273 
0.747637 -0.388835 0.538373 0.867771 -0.297686 0.397939 0.943481 -0.281938 0.174226 
-0.584372 -0.800415 0.133588 0.99982 -0.00228584 -0.0188167 0.121054 0.631685 -0.765716 
-0.325191 -0.727151 0.604568 0.0761892 -0.657136 0.749911 0.300815 -0.507414 0.80749 
0.610382 -0.480154 0.629989 0.542095 -0.385992 0.74642 -0.542042 -0.820971 0.179435 
-0.795995 -0.602322 -0.0599964 -0.888972 -0.318714 -0.328862 -0.954999 -0.251063 -0.157938 
-0.918493 0.0164144 -0.395096 0.532138 0.52861 -0.661363 -0.0990018 -0.686593 0.72027 
0.505755 -0.393764 0.767569 0.277865 -0.523252 0.805605 0.546252 -0.437136 0.714508 
0.688565 -0.360469 0.629237 -0.59344 -0.752562 0.285445 -0.791158 -0.531626 0.302395 
-0.927249 -0.373629 -0.0247168 -0.985391 -0.168485 -0.0248667 0.663573 0.421372 -0.618155 
0.167841 0.548148 -0.819367 0.0167797 0.668796 -0.743256 0.558576 0.561931 -0.610104 
-0.723463 -0.590631 0.357431 -0.859475 -0.509712 0.0386788 0.908814 -0.267345 0.320288 
0.944153 -0.161438 0.28725 -0.995718 0.0816579 0.0433391 0.897444 0.230837 -0.375909 
-0.373774 0.55844 -0.740566 -0.400138 -0.675075 0.61981 -0.176906 -0.533486 0.827102 
0.0794694 -0.542151 0.836515 -0.485095 -0.672368 0.55911 -0.898958 -0.349354 0.264247 
-0.889605 0.16379 -0.426351 0.847577 0.366485 -0.383799 0.0689026 0.816928 -0.572609 
-0.569426 -0.529145 0.629094 -0.96 -0.0828529 0.267462 -0.857566 0.22812 -0.461023 
-0.807823 0.22681 -0.54404 -0.916074 0.307629 -0.257242 0.503183 0.773798 -0.384764 
0.750075 0.525561 -0.401463 -0.280757 0.798156 -0.533032 0.606502 -0.416933 0.676995 
-0.938022 0.0134563 0.346314 -0.816524 -0.284535 0.502324 -0.974406 -0.0655238 -0.215033 
-0.798915 0.10254 -0.592639 -0.965437 0.15194 -0.211767 -0.813892 0.465024 -0.348327 
0.865537 0.416115 -0.278738 -0.743891 -0.404064 0.532313 -0.983289 -0.164783 0.0773885 
-0.992101 -0.125253 -0.00682272 -0.973195 0.184853 -0.136826 0.989464 0.135377 -0.0513181 
0.216323 0.921026 -0.323906 -0.441159 -0.409584 0.798511 -0.461149 -0.369426 0.806763 
-0.732801 -0.33199 0.593957 0.944709 -0.0868925 0.316188 -0.944846 -0.266219 0.190769 
-0.993043 -0.0700398 0.0946581 -0.996339 0.0124315 0.0845837 -0.227754 0.897281 -0.378173 
0.382583 -0.419884 0.822999 0.466775 -0.174788 0.866932 0.695229 -0.062959 0.716026 
-0.145784 -0.44209 0.885044 0.623061 -0.423486 0.657613 0.8433 -0.171821 0.509238 
-0.899097 -0.140363 0.414635 -0.961968 0.0496557 0.26861 0.953787 -0.214603 0.210324 
-0.950446 0.307382 0.0465658 -0.918781 0.349594 0.183373 -0.806489 0.535505 -0.250619 
-0.669123 0.62248 -0.405947 0.81086 0.580594 -0.073604 0.280415 0.951981 -0.122879 
0.581775 -0.0963032 0.807629 0.342896 -0.492329 0.800022 0.294625 -0.659892 0.691186 
0.50209 -0.603885 0.619054 -0.77777 -0.300944 0.551822 -0.874927 0.131332 0.466106 
-0.807945 -0.0334624 0.588307 -0.855497 0.492768 -0.159075 -0.769847 0.612912 -0.177974 
0.667578 -0.313631 0.675259 0.943653 -0.0093233 0.330807 -0.902517 0.285329 0.322568 
-0.903341 0.411697 0.120337 -0.835515 0.540676 -0.097905 -0.923175 0.34496 0.169559 
-0.457181 0.840891 -0.289634 -0.083592 0.978743 -0.187281 0.271348 -0.461314 0.844724 
0.777029 -0.219714 0.589874 0.867388 -0.333444 0.369395 -0.593826 -0.170247 0.786376 
-0.761738 0.109514 0.638563 -0.808142 0.186808 0.558579 -0.867174 0.469867 -0.165031 
0.961487 0.206697 0.18116 -0.660004 0.67891 -0.321677 -0.22178 0.966852 -0.126537 
0.550206 -0.354609 0.755993 0.576178 -0.352491 0.737407 -0.0440199 -0.494199 0.868234 
-0.805498 -0.047087 0.590725 -0.922784 0.00597081 0.385272 0.908969 0.108333 0.402542 
-0.861838 0.478904 -0.16699 0.517986 0.840177 0.160603 -0.251995 0.964826 0.0748997 
0.266161 0.95353 0.141207 0.824686 -0.252063 0.506317 -0.443077 -0.36161 0.820318 
-0.1961 -0.41871 0.886694 0.888515 -0.0276365 0.458015 -0.803863 -0.0655064 0.591196 
-0.949814 0.243373 0.196527 0.872455 0.268508 0.40832 -0.15027 0.932132 0.329468 
0.0890577 0.954586 0.284314 0.554273 -0.255049 0.792295 -0.368422 -0.233874 0.89976 
-0.759241 -0.173508 0.627254 -0.939556 0.234264 0.249711 -0.851428 0.524127 -0.0190159 
0.540631 0.680654 0.494396 -0.540798 0.823993 0.169033 -0.499924 0.810188 0.306058 
0.253161 0.803645 0.538576 0.384617 0.855396 0.346941 -0.328377 0.929222 0.169458 
-0.231967 0.938384 0.256179 0.00501545 0.849548 0.527487 0.0873406 -0.368243 0.925618 
0.311404 -0.377535 0.872063 -0.811602 0.0441266 0.582542 0.812117 0.133502 0.568017 
-0.849497 0.169046 0.499778 -0.880248 0.365127 0.303061 0.505805 0.493618 0.707462 
-0.761795 0.428686 0.485691 -0.700761 0.687107 0.191881 -0.342468 0.840344 0.420164 
-0.402189 0.713915 0.573209 -0.0181946 0.748405 0.662992 0.188717 0.755668 0.627177 
-0.0206281 0.840545 0.541349 0.044485 0.765252 0.642192 -0.510258 -0.209868 0.834022 
0.141897 -0.0639772 0.987812 0.647946 -0.0240799 0.761306 -0.393276 -0.0206166 0.919189 
-0.10398 -0.245285 0.963859 -0.678548 0.140891 0.720917 0.327405 0.290912 0.898986 
0.241636 0.553956 0.796709 -0.603285 0.328237 0.726848 -0.571285 0.662692 0.484224 
-0.288763 0.640647 0.711468 -0.163424 0.737701 0.65505 0.12543 0.509053 0.851547 
0.300872 -0.0871872 0.949671 0.0495224 0.095477 0.994199 -0.0963376 0.139166 0.985572 
-0.408673 0.588827 0.69733 -0.260727 0.342426 0.902644 0.0399569 0.525969 0.849565 

