# vtk DataFile Version 4.2
vtk output
ASCII
DATASET POLYDATA
POINTS 653 float
378.221 251.722 186.49 378.174 251.645 186.558 378.166 251.79 186.526 
378.318 251.682 186.537 378.31 251.827 186.504 379.261 250.663 187.336 
377.475 251.075 187.206 377.972 251.333 186.834 378.307 251.426 186.734 
379.497 250.867 187.214 380.106 251.378 187.097 377.175 251.724 187.232 
377.961 251.675 186.702 378.671 251.858 186.59 379.363 251.798 186.732 
377.347 252.161 187.009 378.266 252.141 186.568 378.055 252.701 186.671 
377.099 252.923 187.227 378.389 253.281 186.668 377.265 253.49 187.291 
379.43 253.991 186.69 377.883 254.22 187.213 378.781 254.838 187.148 
379.883 250.638 187.55 376.764 252.131 187.707 376.994 253.48 187.659 
379.181 254.815 186.981 378.245 255.268 187.892 377.608 250.182 188.339 
378.871 249.829 188.534 376.87 251.32 187.939 383.932 252.793 188.543 
376.571 253.065 188.407 383.738 254.012 187.873 377.191 254.588 188.743 
381.656 256.279 187.483 381.64 256.919 187.773 377.97 249.803 189.171 
378.846 249.707 188.922 379.276 249.685 189.242 380.747 250.395 188.566 
386.856 254.939 189.439 387.408 255.358 189.591 386.872 256.13 188.94 
383.177 257.108 187.896 386.961 256.976 188.792 380.733 257.376 188.291 
388.127 257.724 189.126 384.858 258.507 188.484 387.539 258.481 188.906 
381.172 258.483 189.133 380.437 258.555 189.885 383.54 259.903 189.454 
388.637 259.679 189.337 385.361 260.8 189.82 386.222 260.431 189.437 
376.906 250.596 189.36 377.2 250.266 189.583 380.347 249.949 189.355 
376.634 251.246 188.882 383.075 251.43 189.361 386.254 253.58 190.038 
376.404 253.203 189.298 376.499 253.535 189.607 390.253 257.977 190.193 
389.306 259.464 189.522 380.401 258.793 190.532 389.928 260.082 189.802 
389.993 260.764 189.974 386.345 261.504 190.354 388.616 261.554 190.187 
378.855 249.519 190.178 379.882 249.591 190.406 376.667 250.985 190.051 
376.318 252.798 189.825 387.976 254.619 190.809 390.4 256.566 191.339 
383.546 260.735 190.791 385.409 261.52 190.804 387.449 262.322 191.025 
390.241 262.762 191.065 378.401 249.537 191.184 376.342 252.266 190.416 
378.352 257.12 191.88 393.357 258.439 192.383 394.248 261.438 191.481 
382.69 260.572 191.673 393.125 262.235 191.144 388.082 263.213 192.268 
396.652 263.582 192.109 394.579 264.211 192.025 379.358 249.426 192.304 
380.498 249.592 191.778 376.525 251.509 190.791 376.655 253.753 191.801 
392.52 257.256 193.063 399.412 262.572 193.287 399.063 263.881 192.793 
401.191 264.226 193.312 399.835 264.608 192.988 398.544 265.358 192.949 
401.311 265.797 193.486 395.868 266.176 193.633 398.523 266.387 193.636 
377.801 249.985 192.748 377.07 250.753 192.241 402.445 262.97 194.509 
386.906 263.002 193.487 405.659 264.691 194.957 405.16 264.981 194.582 
403.51 265.61 193.915 394.358 266.221 194.424 403.296 266.106 193.934 
402.77 266.659 194.135 378.319 249.707 193.341 379.029 249.485 193.229 
377.37 250.779 193.774 380.097 258.613 194.737 398.865 260.838 194.604 
383.146 261.019 193.79 405.84 265.987 194.841 406.555 265.92 195.112 
408.709 265.827 196.273 404.42 266.497 194.484 407.093 266.355 195.361 
408.763 266.734 196.344 402.592 267.636 194.958 405.179 267.459 195.248 
408.112 267.093 196.072 408.433 266.994 196.198 401.69 268.048 195.564 
404.146 267.947 195.504 378.588 249.678 193.704 389.486 254.243 195.486 
378.422 256.448 195.252 405.728 263.816 195.705 408.49 265.565 196.161 
409.481 266.538 196.913 409.134 266.782 196.635 398.818 267.803 195.824 
400.305 268.205 196.295 403.948 268.334 196.033 378.501 250.249 196.259 
377.929 250.582 195.574 377.566 251 195.514 377.292 251.407 195.082 
377.179 252.275 195.539 377.492 253.863 196.147 400.025 260.635 196.517 
403.802 262.406 196.397 406.934 263.935 196.643 408.125 265.015 196.313 
409.408 266.04 196.919 409.635 266.624 197.156 409.608 266.784 197.228 
409.721 266.705 197.456 408.889 267.214 196.765 402.538 268.555 196.693 
408.883 267.4 197.094 405.877 268.613 196.949 406.947 268.409 197.079 
380.246 249.753 196.442 377.838 254.347 197.002 409.72 266.264 197.318 
409.793 266.264 197.637 409.822 266.526 197.77 396.613 267.467 197.495 
405.175 268.832 197.384 378.592 250.442 197.943 408.984 264.967 198.112 
409.574 265.65 198.17 402.382 268.736 198.147 379.245 250.276 199.234 
380.282 249.925 198.544 380.92 249.938 199.262 378.479 250.797 198.964 
384.064 250.705 198.504 409.331 265.273 198.489 409.841 266.31 198.641 
394.424 266.453 199.306 409.269 267.509 198.64 409.536 267.279 199.022 
406.198 268.792 198.474 407.916 268.287 198.978 405.072 268.926 198.438 
378.888 250.552 199.576 400.707 260.158 200.01 409.553 265.606 199.486 
380.405 250.082 200.614 409.715 266.43 199.853 409.34 267.265 200.249 
401.103 268.376 200.415 381.536 250.099 201.815 409.321 265.692 201.028 
409.538 266.798 200.486 409.446 266.906 200.643 409.022 267.278 200.834 
379.547 250.707 202.394 380.512 250.322 202.721 409.176 266.046 201.63 
409.329 266.649 201.015 408.789 266.776 201.972 407.73 267.693 201.597 
380.128 254.762 203.783 405.883 262.263 203.372 408.188 266.795 202.838 
379.16 251.997 203.759 384.739 251.105 204.845 379.338 252.637 204.211 
408.161 264.531 203.692 395.023 264.518 204.79 408.355 265.091 203.595 
397.759 265.585 204.797 408.651 265.638 203.013 380.466 250.926 205.211 
379.497 251.606 204.402 383.694 250.746 204.943 379.436 252.195 204.567 
407.403 263.75 204.66 407.113 266.239 204.93 407.367 266.052 205.012 
407.745 266.06 204.522 381.053 250.857 205.809 380.461 251.331 205.864 
380.094 252.299 205.809 390.511 254.451 206.503 395.422 257.51 206.295 
405.811 262.612 205.845 393.657 262.605 206.644 407.53 265.57 205.235 
380.429 251.561 206.087 382.711 250.907 206.397 380.554 251.73 206.399 
387.468 252.823 207.179 395.353 257.716 207.085 399.411 259.606 206.868 
400.116 259.843 206.676 401.839 260.616 206.894 407.037 263.921 205.927 
407.384 264.255 205.542 407.425 264.653 205.71 407.359 264.936 205.861 
407.147 264.943 206.175 406.552 265.627 206.094 381.45 251.43 207.001 
380.514 251.961 206.477 384.029 251.523 207.388 385.592 252.166 207.695 
381.229 252.67 207.441 388.613 253.711 207.945 382.538 254.335 208.073 
394.373 257.582 207.932 400.8 260.283 207.138 392.284 260.789 207.845 
394.037 261.921 207.536 403.94 261.867 207.293 406.08 263.248 206.732 
406.25 263.658 207.037 401.86 263.836 208.058 406.266 264.056 207.198 
406.802 264.333 206.637 405.328 264.556 207.349 406.408 264.342 207.035 
406.71 264.507 206.802 382.111 251.656 207.564 383.395 251.667 207.756 
384.856 252.224 208.136 381.457 252.677 207.711 382.367 253.741 208.249 
383.087 254.415 208.48 390.955 255.407 208.429 384.443 255.788 208.384 
392.942 256.641 208.08 393.786 257.591 208.415 395.487 258.514 208.147 
391.056 259.638 208.307 402.453 261.312 207.727 402.861 261.682 207.972 
394.966 261.329 208.201 397.217 261.89 208.346 399.685 262.752 208.434 
404.941 262.909 207.635 406.011 263.614 207.315 405.86 263.714 207.439 
382.092 252.252 207.997 383.687 252.044 208.121 383.736 252.537 208.487 
385.256 252.654 208.5 387.64 253.719 208.718 382.643 253.809 208.441 
389.328 254.663 208.789 389.216 254.776 208.985 383.4 254.504 208.621 
392.397 256.765 208.622 392.758 257.314 208.751 393.699 258.246 208.715 
390.301 258.752 208.729 398.137 260.739 208.464 401.65 261.412 208.209 
402.657 261.847 208.211 399.779 261.49 208.517 403.758 262.549 208.15 
403.927 262.907 208.126 405.273 263.261 207.612 405.375 263.638 207.62 
383.117 253.052 208.6 386.756 253.738 209.003 383.592 253.975 208.814 
385.166 254.04 209.21 388.311 254.623 209.17 385.529 254.658 209.305 
389.441 255.741 209.374 386.361 255.609 209.295 387.161 255.803 209.407 
387.513 256.283 209.374 390.683 256.398 209.197 391.296 257.587 209.147 
392.152 258.186 209.015 391.229 258.64 208.913 402.083 261.831 208.346 
400.386 262.441 208.557 384.224 253.345 247.523 384.206 253.579 247.467 
385.226 253.806 247.259 385.875 253.822 247.267 384.491 254.071 247.364 
388.68 254.455 247.461 389.314 254.774 247.47 387.973 255.287 247.075 
390.268 255.424 247.496 387.044 255.674 247.093 390.701 256.373 247.299 
391.37 256.354 247.517 388.595 256.968 247.249 390.488 257.474 247.19 
390.942 257.854 247.253 392.457 257.784 247.396 383.453 252.856 247.976 
383.195 252.519 248.231 384.052 253.027 247.733 382.641 252.748 248.371 
388.218 253.934 247.696 382.803 253.694 248.264 383.312 253.625 247.924 
389.873 254.879 247.701 390.285 255.202 247.67 383.987 254.571 247.837 
386.649 256.317 247.436 394.209 257.551 248.223 392.9 259.688 247.737 
400.512 261.003 248.35 400.488 261.322 248.259 400.912 261.185 248.387 
398.97 261.788 248.055 400.105 261.719 248.179 401.91 262.115 248.495 
400.658 262.273 248.306 382.986 251.718 248.959 382.176 251.766 249.139 
382.668 252.383 248.528 382.121 253.042 248.722 382.386 253.753 248.653 
383.988 255.569 248.575 391.748 255.721 248.458 398.873 259.595 249.051 
391.665 259.65 247.948 393.138 260.845 248.377 401.407 261.265 248.548 
402.057 261.126 249.075 401.898 261.329 248.767 397.73 261.865 248.124 
405.053 263.046 249.431 405.264 262.89 249.608 399.509 262.637 248.331 
405.3 263.724 249.453 381.845 251.115 250.122 382.469 251.072 249.993 
383.427 251.249 249.624 384.894 251.941 248.987 381.395 252.178 249.49 
387.508 252.948 249.023 388.724 253.595 249.089 391.276 255.062 249.239 
398.604 262.84 248.515 406.293 263.432 250.08 406.909 264.021 250.301 
407.078 263.907 250.501 406.405 264.191 249.973 407.383 264.287 250.723 
381.501 250.877 250.637 381.098 251.485 250.156 381.073 251.751 250.024 
384.279 251.418 249.824 390.696 260.828 249.532 402.694 261.027 250.097 
393.865 262.011 249.141 406.859 263.604 250.505 398.496 264.104 249.522 
407.658 264.186 251.024 407.721 264.343 251.029 406.643 265.286 250.62 
383.747 250.991 250.767 380.951 252.978 250.15 381.326 254.295 250.403 
[...]
POINT_DATA 653
SCALARS scalars float
LOOKUP_TABLE default
1 1 1 1 1 1 1 1 1 
1 1 1 1 1 1 1 1 1 
1 1 1 1 1 1 1 1 1 
1 1 1 1 1 1 1 1 1 
1 1 1 1 1 1 1 1 1 
1 1 1 1 1 1 1 1 1 
1 1 1 1 1 1 1 1 1 
1 1 1 1 1 1 1 1 1 
1 1 1 1 1 1 1 1 1 
1 1 1 1 1 1 1 1 1 
1 1 1 1 1 1 1 1 1 
1 1 1 1 1 1 1 1 1 
1 1 1 1 1 1 1 1 1 
1 1 1 1 1 1 1 1 1 
1 1 1 1 1 1 1 1 1 
1 1 1 1 1 1 1 1 1 
1 1 1 1 1 1 1 1 1 
1 1 1 1 1 1 1 1 1 
1 1 1 1 1 1 1 1 1 
1 1 1 1 1 1 1 1 1 
1 1 1 1 1 1 1 1 1 
1 1 1 1 1 1 1 1 1 
1 1 1 1 1 1 1 1 1 
1 1 1 1 1 1 1 1 1 
1 1 1 1 1 1 1 1 1 
1 1 1 1 1 1 1 1 1 
1 1 1 1 1 1 1 1 1 
1 1 1 1 1 1 1 1 1 
1 1 1 1 1 1 1 1 1 
1 1 1 1 1 1 1 1 1 
1 1 1 1 1 1 1 1 1 
1 1 1 1 1 1 1 1 1 
1 1 1 1 1 1 1 1 1 
1 1 1 1 1 1 1 1 1 
1 1 1 1 1 1 1 1 1 
1 1 1 1 1 1 1 1 1 
1 1 1 1 1 1 1 1 1 
1 1 1 1 1 1 1 1 1 
1 1 1 1 1 1 1 1 1 
1 1 1 1 1 1 1 1 1 
1 1 1 1 1 1 1 1 1 
1 1 1 1 1 1 1 1 1 
1 1 1 1 1 1 1 1 1 
1 1 1 1 1 1 1 1 1 
1 1 1 1 1 1 1 1 1 
1 1 1 1 1 1 1 1 1 
1 1 1 1 1 1 1 1 1 
1 1 1 1 1 1 1 1 1 
1 1 1 1 1 1 1 1 1 
1 1 1 1 1 1 1 1 1 
1 1 1 1 1 1 1 1 1 
1 1 1 1 1 1 1 1 1 
1 1 1 1 1 1 1 1 1 
1 1 1 1 1 1 1 1 1 
1 1 1 1 1 1 1 1 1 
1 1 1 1 1 1 1 1 1 
1 1 1 1 1 1 1 1 1 
1 1 1 1 1 1 1 1 1 
1 1 1 1 1 1 1 1 1 
1 1 1 1 1 1 1 1 1 
1 1 1 1 1 1 1 1 1 
1 1 1 1 1 1 1 1 1 
1 1 1 1 1 1 1 1 1 
1 1 1 1 1 1 1 1 1 
1 1 1 1 1 1 1 1 1 
1 1 1 1 1 1 1 1 1 
1 1 1 1 1 1 1 1 1 
1 1 1 1 1 1 1 1 1 
1 1 1 1 1 1 1 1 1 
1 1 1 1 1 1 1 1 1 
1 1 1 1 1 1 1 1 1 
1 1 1 1 1 1 1 1 1 
1 1 1 1 1 
NORMALS Normals float
-0.141424 -0.222615 -0.964594 -0.351515 -0.525384 -0.774861 -0.505678 0.0753117 -0.859429 
0.229419 -0.468355 -0.853235 0.0855397 0.0669385 -0.994084 0.051666 -0.665229 -0.744849 
-0.385526 -0.659781 -0.645026 -0.309581 -0.481422 -0.819995 -0.00804807 -0.651713 -0.758423 
0.227099 -0.512807 -0.827922 0.381403 -0.469265 -0.796443 -0.680093 -0.227406 -0.696965 
-0.525179 -0.226638 -0.820257 0.205958 -0.0878173 -0.974612 0.19694 -0.277053 -0.940455 
-0.584807 -0.0286481 -0.810667 -0.238444 0.172833 -0.955653 -0.287781 0.157271 -0.944694 
-0.651999 0.161221 -0.740881 -0.13782 0.182305 -0.973535 -0.63581 0.358751 -0.683406 
-0.00312317 0.157156 -0.987569 -0.535689 0.429595 -0.72697 -0.319612 0.468234 -0.823775 
0.330219 -0.697431 -0.636039 -0.893973 -0.0498444 -0.44534 -0.83491 0.367319 -0.40988 
-0.229874 0.504926 -0.83199 -0.499613 0.653558 -0.56855 -0.53231 -0.780508 -0.327802 
0.00405122 -0.86875 -0.495234 -0.827126 -0.403473 -0.391244 0.386759 -0.521161 -0.760794 
-0.962282 0.135082 -0.236148 0.350033 -0.211661 -0.912511 -0.790878 0.55532 -0.257159 
0.0268355 0.334347 -0.942068 -0.133648 0.517071 -0.845444 -0.328607 -0.939386 -0.0978296 
-0.0870458 -0.971178 -0.221891 0.156876 -0.957479 -0.242122 0.528089 -0.803949 -0.273474 
0.42289 -0.474558 -0.771984 0.588616 -0.352169 -0.727674 0.368675 -0.261543 -0.892006 
0.145319 0.179283 -0.973006 0.357964 -0.0955543 -0.928833 -0.33042 0.585913 -0.739952 
0.432382 -0.201003 -0.879001 0.0923772 0.245044 -0.965101 0.225361 0.0162686 -0.97414 
-0.344589 0.752206 -0.561645 -0.57415 0.711754 -0.40467 -0.206586 0.628046 -0.750253 
0.195736 0.306266 -0.931605 -0.168124 0.758063 -0.630139 -0.0369284 0.605194 -0.795221 
-0.855216 -0.504425 -0.118995 -0.677735 -0.733646 0.0493901 0.445519 -0.888184 -0.112438 
-0.931095 -0.316227 -0.181833 0.475033 -0.776313 -0.414345 0.523381 -0.649739 -0.551282 
-0.959286 -0.0275591 -0.281088 -0.92424 0.379418 -0.0426867 0.543366 -0.376014 -0.750578 
0.335792 0.146167 -0.930526 -0.522519 0.81172 -0.260932 0.355121 0.0193121 -0.934621 
0.121941 0.351043 -0.928385 -0.114953 0.65034 -0.750896 0.0493168 0.468186 -0.882253 
0.027357 -0.992703 -0.117444 0.375784 -0.925123 -0.0541691 -0.883062 -0.465691 0.0577371 
-0.993603 -0.0477207 -0.102355 0.629539 -0.575809 -0.521656 0.568981 -0.605565 -0.556373 
-0.394383 0.880448 -0.263199 -0.259424 0.845878 -0.466036 -0.298407 0.859404 -0.415184 
-0.0089026 0.630302 -0.776299 -0.159896 -0.987116 -0.00597878 -0.989338 -0.145327 -0.0095044 
-0.763927 0.643479 -0.0484828 0.672112 -0.482043 -0.56205 0.391085 -0.251809 -0.885237 
-0.530546 0.821892 -0.207398 0.0929766 0.354127 -0.930564 -0.304498 0.877014 -0.371655 
0.194254 0.133992 -0.971757 -0.225595 0.615633 -0.755051 -0.0969638 -0.995136 0.0173891 
0.253737 -0.967004 -0.0228091 -0.860593 -0.489191 0.141672 -0.961123 0.250967 0.115147 
0.750637 -0.617302 -0.235547 0.349151 -0.361416 -0.864565 0.381277 0.0762218 -0.921313 
0.290384 -0.168273 -0.941999 0.17552 0.0745967 -0.981646 0.342501 0.403013 -0.848689 
0.125976 0.362578 -0.9234 -0.218409 0.793687 -0.567767 0.00927011 0.686236 -0.72732 
-0.60997 -0.785829 0.102026 -0.923511 -0.346261 0.165016 0.415675 -0.640573 -0.645663 
-0.439578 0.878582 -0.18672 0.439152 -0.390895 -0.808917 0.383519 -0.265719 -0.884481 
0.141168 0.0702826 -0.987488 -0.262078 0.938971 -0.222818 0.20477 0.318884 -0.925409 
0.0178023 0.407471 -0.913045 -0.527733 -0.825073 0.201872 -0.149383 -0.987882 0.0421175 
-0.801002 -0.576822 0.160226 -0.659616 0.720008 0.215627 0.420437 -0.752802 -0.50648 
-0.472241 0.880415 -0.0431045 0.388211 0.0500984 -0.920208 0.393993 0.0290911 -0.918653 
0.688719 -0.242493 -0.683275 0.267203 0.385751 -0.883062 0.418323 0.140387 -0.897384 
0.525398 0.13852 -0.839505 0.105404 0.71973 -0.686206 0.189482 0.731637 -0.654831 
0.375544 0.464513 -0.801994 0.50197 0.349201 -0.791255 -0.0999278 0.909923 -0.40256 
0.0648391 0.749827 -0.65845 -0.513437 -0.815918 0.265819 0.591357 -0.799222 -0.107434 
-0.876201 0.452958 0.164624 0.351779 -0.657753 -0.666042 0.473694 -0.259516 -0.841585 
0.72779 0.0907501 -0.67977 0.681123 0.419505 -0.600073 -0.254557 0.891843 -0.37392 
-0.157684 0.959034 -0.235351 0.0838071 0.856476 -0.509338 -0.565759 -0.809401 0.157439 
-0.739206 -0.662992 0.11839 -0.830679 -0.528083 0.176354 -0.904238 -0.416659 0.0935346 
-0.982071 -0.0764927 0.172293 -0.965082 0.241438 0.10161 0.334935 -0.889566 -0.310629 
0.423653 -0.832808 -0.356299 0.445659 -0.704882 -0.551842 0.595249 -0.604576 -0.529308 
0.77461 -0.432475 -0.461459 0.870541 0.119263 -0.477425 0.747864 0.505825 -0.42993 
0.88478 0.416118 -0.209787 0.540344 0.627093 -0.561054 -0.0897856 0.923363 -0.373283 
0.626556 0.732881 -0.265165 0.181276 0.94559 -0.270183 0.33227 0.843558 -0.421908 
0.0640719 -0.994804 0.0791242 -0.88499 0.350691 0.306281 0.931596 -0.165807 -0.323477 
0.969511 -0.229603 -0.0856161 0.996186 0.0500602 -0.071469 -0.297181 0.953485 -0.0504923 
0.0511134 0.95547 -0.290629 -0.529824 -0.839383 0.121339 0.650013 -0.757476 -0.0609394 
0.879683 -0.465311 -0.0982038 -0.142125 0.98612 -0.0858381 -0.330029 -0.891428 0.310543 
-0.0661244 -0.980723 0.183875 -0.0159885 -0.997234 0.0725906 -0.777189 -0.603482 0.178285 
0.334487 -0.941569 -0.0395644 0.784949 -0.616046 -0.0658987 0.986918 -0.156181 0.0399955 
-0.46232 0.863097 0.203282 0.596172 0.802245 -0.0313227 0.796869 0.604142 -0.00349785 
0.222232 0.969331 0.104931 0.362 0.932175 -0.00228899 0.0529343 0.990552 0.126508 
-0.445487 -0.852431 0.273685 0.422477 -0.901844 -0.0904995 0.834951 -0.539778 0.107222 
-0.104403 -0.989772 0.097217 0.982734 0.057685 0.175804 0.768052 0.618305 0.166719 
-0.143291 0.953435 0.265387 0.0182831 -0.998355 0.0543451 0.921449 -0.312499 0.230817 
0.939171 0.238403 0.247226 0.806405 0.446412 0.387851 0.507108 0.806128 0.304957 
-0.525466 -0.833955 0.168538 -0.289157 -0.949872 0.118872 0.896919 0.172517 0.407154 
0.899203 0.187818 0.395169 0.73088 0.5072 0.456686 0.325032 0.878715 0.349591 
-0.72702 0.587421 0.355498 0.465437 -0.885015 -0.0108389 0.645737 0.608747 0.460924 
-0.942741 -0.273405 0.191021 0.428939 -0.900305 0.0739051 -0.94705 0.147483 0.285211 
0.879193 -0.414261 0.235387 -0.443783 0.777192 0.446128 0.912723 -0.0868614 0.39924 
-0.251527 0.846475 0.469271 0.931307 -0.0554712 0.359986 -0.550747 -0.808996 0.205434 
-0.867562 -0.409432 0.282313 0.171481 -0.973471 0.151489 -0.933528 -0.0626809 0.352983 
0.819994 -0.526732 0.223969 0.201997 0.82819 0.52278 0.427405 0.619109 0.65881 
0.761965 0.453323 0.462502 -0.232388 -0.920426 0.314342 -0.702256 -0.558603 0.441361 
-0.882322 -0.0192571 0.470251 0.549384 -0.819278 0.164201 0.478487 -0.849437 0.222502 
0.557141 -0.773513 0.30211 -0.293188 0.781271 0.55105 0.717352 0.365521 0.593128 
-0.758797 -0.458657 0.462451 0.0820966 -0.931855 0.353422 -0.746801 -0.373621 0.550178 
0.429622 -0.838293 0.335692 0.623938 -0.710271 0.325908 0.38642 -0.90288 0.188382 
0.277697 -0.911302 0.303994 0.401015 -0.866073 0.298502 0.794286 -0.460561 0.396223 
0.857945 -0.310984 0.408926 0.904644 -0.138127 0.403162 0.807364 0.279783 0.519504 
0.760146 0.115771 0.639355 0.360164 0.69254 0.625036 -0.400872 -0.687632 0.605363 
-0.818957 -0.0332184 0.572892 0.154187 -0.877897 0.453347 0.294279 -0.844952 0.446604 
-0.81516 0.363281 0.451155 0.512453 -0.797738 0.317815 -0.601971 0.551427 0.577545 
0.406157 -0.757316 0.511379 0.276347 -0.891816 0.358186 -0.445204 0.665159 0.599463 
-0.159472 0.617093 0.770562 0.512185 -0.730903 0.45105 0.641246 -0.641731 0.420696 
0.761401 -0.428651 0.486341 -0.0926909 0.676728 0.730375 0.637645 -0.0419409 0.769188 
0.801128 -0.25675 0.540623 0.248301 0.467968 0.848146 0.477415 0.213128 0.852438 
0.606235 0.236143 0.759418 -0.209263 -0.704406 0.678249 -0.0284503 -0.790136 0.612271 
0.142211 -0.75902 0.635346 -0.655981 -0.136182 0.742391 -0.703923 0.261419 0.660419 
-0.485469 0.425089 0.763949 0.491356 -0.571263 0.657441 -0.417945 0.579349 0.699769 
0.58796 -0.690975 0.420544 0.53608 -0.698624 0.47386 0.453856 -0.632532 0.627629 
-0.284138 0.658521 0.696862 0.348314 -0.749129 0.563457 0.395162 -0.716267 0.57516 
-0.144797 0.568205 0.810047 -0.146132 0.328458 0.933146 -0.136424 0.33291 0.933038 
0.454054 -0.442801 0.773151 0.547013 -0.500608 0.670946 0.373425 0.0935434 0.922932 
-0.32819 -0.429094 0.841528 0.0550868 -0.729936 0.681292 -0.0598719 -0.466317 0.882589 
0.201811 -0.654833 0.728331 0.305828 -0.745089 0.592716 -0.510036 0.165431 0.844095 
0.44869 -0.688088 0.570274 0.407885 -0.553304 0.726281 -0.396296 0.395392 0.828623 
0.415998 -0.579369 0.700912 0.330954 -0.356973 0.873522 0.346367 -0.355626 0.868078 
-0.293688 0.565336 0.770807 0.0929541 -0.154046 0.983681 0.23423 -0.647714 0.724985 
0.304151 -0.417391 0.856316 0.0154718 -0.122455 0.992353 0.377481 -0.344342 0.859614 
0.166516 0.090683 0.98186 0.364352 -0.212965 0.906583 0.332182 -0.0638371 0.941052 
-0.322674 -0.185908 0.928073 0.150521 -0.549554 0.821787 -0.288341 0.0260936 0.957172 
-0.0927936 -0.193985 0.976606 0.254937 -0.577644 0.775458 -0.206002 0.134937 0.969203 
0.175585 -0.254929 0.950884 -0.189347 0.15861 0.969015 -0.164986 0.156086 0.973867 
-0.103377 0.246854 0.963523 0.316468 -0.173815 0.932543 0.152347 -0.0517199 0.986973 
0.0383523 0.210772 0.976783 -0.0273546 0.372404 0.927667 0.196431 -0.413684 0.888977 
0.0271448 0.113239 0.993197 -0.132982 -0.356692 -0.924709 -0.415008 -0.0735107 -0.906843 
-0.0590212 -0.108304 -0.992364 0.0713131 -0.413501 -0.907707 -0.208801 0.187211 -0.959872 
0.374609 -0.629947 -0.68032 0.266647 -0.427489 -0.863801 0.113318 -0.120651 -0.986206 
0.442003 -0.438813 -0.782353 -0.269947 0.289548 -0.918309 0.307802 -0.259717 -0.915317 
0.332908 -0.338442 -0.88013 -0.103751 0.265667 -0.958466 0.0255851 0.0841173 -0.996127 
0.0449068 0.131643 -0.990279 0.172223 0.020906 -0.984836 -0.215472 -0.360876 -0.907381 
-0.207661 -0.535352 -0.818703 -0.281116 -0.348456 -0.894177 -0.518429 -0.0919806 -0.85016 
0.368307 -0.741531 -0.560787 -0.579528 0.382174 -0.719785 -0.476757 0.01145 -0.87896 
0.460263 -0.745471 -0.482111 0.498043 -0.636109 -0.589337 -0.466827 0.360212 -0.807664 
-0.359683 0.461313 -0.81106 0.381407 -0.438633 -0.813714 0.0160979 0.291594 -0.956407 
0.171418 -0.41236 -0.894749 0.18478 -0.099164 -0.977764 0.316634 -0.434922 -0.842962 
0.00115408 0.072182 -0.997391 0.124507 0.00519508 -0.992205 0.266138 0.0510206 -0.962584 
0.164946 0.176878 -0.970313 0.00125874 -0.732247 -0.681039 -0.387306 -0.580276 -0.716431 
-0.429996 -0.45498 -0.779805 -0.650897 -0.110614 -0.751064 -0.676118 0.318132 -0.664572 
-0.468284 0.570614 -0.674618 0.548492 -0.725363 -0.41594 0.42573 -0.835196 -0.348142 
-0.273505 0.543036 -0.793919 -0.0961836 0.550194 -0.829479 0.322317 -0.268762 -0.907678 
0.460564 -0.664099 -0.588943 0.521479 -0.468319 -0.713258 -0.115346 0.233832 -0.965411 
0.419222 -0.233681 -0.877295 0.514364 -0.543913 -0.663014 0.045337 0.471325 -0.880793 
0.37994 0.0393279 -0.924175 -0.19679 -0.870899 -0.450342 -0.0816088 -0.910349 -0.405715 
0.147384 -0.880312 -0.45092 0.423581 -0.90532 -0.031228 -0.72076 -0.0564313 -0.690884 
0.519784 -0.854156 -0.0155516 0.477875 -0.878427 0.000872524 0.565487 -0.823337 0.0483733 
-0.116337 0.497693 -0.859515 0.560028 -0.367199 -0.742653 0.590669 -0.199095 -0.781966 
0.709791 -0.373843 -0.597024 0.490377 0.304152 -0.816714 0.673947 -0.0678067 -0.735662 
-0.163059 -0.930677 -0.327494 -0.573938 -0.609986 -0.546363 -0.804875 -0.194619 -0.560625 
0.365899 -0.857988 -0.36052 -0.529756 0.753823 -0.388727 0.52914 -0.790727 -0.307835 
-0.245443 0.71287 -0.656943 0.610543 -0.605574 -0.510409 -0.204482 0.675022 -0.708895 
0.729306 -0.447254 -0.517762 0.830365 -0.169018 -0.530968 0.415551 0.47091 -0.778179 
0.285008 -0.950593 -0.123057 -0.816423 0.146305 -0.558613 -0.690657 0.534601 -0.487026 
0.738325 -0.58104 -0.342444 0.854993 -0.428958 -0.291515 -0.225249 0.782086 -0.581037 
0.742224 0.237955 -0.626483 0.0920625 0.649412 -0.754843 0.493984 0.548303 -0.674792 
-0.619452 -0.674502 -0.401653 -0.799735 -0.458549 -0.387501 -0.89137 -0.0238848 -0.452646 
0.833426 -0.424862 -0.353402 0.876203 -0.126225 -0.465119 0.55876 0.586717 -0.586132 
0.575617 -0.802825 -0.15536 0.894262 -0.082949 -0.43979 0.734794 0.407862 -0.541965 
0.214749 0.830407 -0.514108 -0.252272 -0.944595 -0.209999 -0.845738 -0.382007 -0.372557 
0.802561 -0.56378 -0.195058 0.93394 -0.176628 -0.31074 -0.2646 0.844509 -0.465609 
0.47219 0.719814 -0.508827 0.379485 0.813539 -0.440619 -0.866228 -0.439572 -0.237541 
-0.643148 -0.711727 -0.2825 -0.922891 0.167334 -0.346803 0.596856 -0.800175 0.0590102 
0.884376 0.278877 -0.374309 0.979515 0.166926 -0.112629 0.720987 0.534716 -0.440745 
0.15782 0.935782 -0.315286 -0.558311 -0.794522 -0.238795 -0.756188 -0.626457 -0.189029 
-0.898551 -0.366272 -0.241766 -0.962225 -0.070467 -0.26298 -0.810172 0.505953 -0.296028 
0.418944 -0.903948 0.0858197 0.980166 -0.149113 -0.130533 -0.355651 0.871492 -0.337659 
-0.0914182 0.95303 -0.288749 0.528603 0.81107 -0.250488 0.653005 0.72178 -0.229384 
0.40213 0.904068 -0.144746 -0.387048 -0.912186 -0.134574 0.519979 -0.853263 0.0395558 
-0.45335 0.874156 -0.174142 0.938893 -0.344032 -0.0110749 0.99409 0.107958 -0.011412 
0.832824 0.545351 -0.0948528 -0.834136 -0.550685 -0.0310386 -0.938677 -0.341501 0.0475592 
-0.961629 0.199468 -0.188368 0.793126 -0.605797 0.0629345 0.972035 -0.187451 0.141457 
-0.770203 -0.634518 -0.0646116 0.188396 -0.980911 -0.0481701 -0.920166 -0.325056 -0.21825 
0.468738 -0.871167 0.146126 0.875808 0.4812 0.037518 -0.244383 -0.963637 -0.108075 
-0.967721 -0.166331 -0.189341 0.387911 -0.860127 0.33122 0.818211 -0.370415 0.439685 
0.979514 -0.0792934 0.185107 0.968862 0.187607 0.161588 0.646766 0.715374 0.264452 
-0.0721143 0.983615 -0.165228 0.352079 0.931737 0.0889207 0.440606 0.897532 0.0173757 
0.907322 -0.301465 0.293062 0.909173 -0.040091 0.414484 0.870377 0.382018 0.310655 
-0.26337 0.96468 0.0054156 -0.136764 0.961208 0.239532 0.451916 0.814355 0.36414 
-0.138044 0.976346 0.166413 0.196557 0.956347 0.216252 -0.505451 -0.858968 -0.0818129 
-0.863719 -0.465889 -0.192189 0.426421 -0.889003 0.166852 0.559024 -0.755988 0.34055 
0.811225 0.0564008 0.582008 0.738513 0.539587 0.404282 0.548932 0.662222 0.510035 
-0.0284006 0.8939 0.447367 -0.129801 0.951948 0.277392 -0.675932 -0.727423 -0.118205 
-0.754729 -0.651085 -0.0804573 -0.911323 -0.319137 -0.260079 0.417549 -0.908225 0.027932 
-0.978639 -0.0449115 -0.200619 -0.959004 0.109736 -0.261283 0.491347 -0.699267 0.519234 
0.558605 -0.602844 0.569684 -0.443993 0.885848 0.1347 0.613368 0.343633 0.711123 
0.261135 0.861678 0.435109 0.509575 0.658115 0.554273 -0.976589 -0.177362 -0.121721 
0.562554 -0.76953 0.302252 0.475188 -0.741428 0.473794 0.315375 -0.741523 0.592184 
0.416603 -0.66825 0.616347 0.701259 -0.302993 0.645315 0.422273 0.032282 0.905894 
0.614243 -0.12262 0.779532 0.650559 0.192024 0.734779 -0.280328 0.876263 0.391892 
0.562729 0.249031 0.788239 0.516552 0.525125 0.676326 0.697895 0.197619 0.688397 
-0.0966858 0.873243 0.477597 -0.0583411 0.833184 0.54991 0.0103421 0.714605 0.699452 
0.17209 0.678948 0.713732 -0.705292 -0.67249 -0.224323 -0.960993 -0.161342 -0.224636 
-0.703837 0.699779 -0.122163 0.483896 -0.757065 0.438973 -0.551605 0.833967 0.0151955 
0.337383 -0.424403 0.84027 0.416337 -0.656998 0.628504 0.451075 -0.469761 0.758851 
0.362367 -0.532323 0.765064 0.504761 -0.497365 0.705581 0.299628 -0.204928 0.931787 
0.435314 -0.411229 0.800869 0.538875 -0.467412 0.700814 0.344425 -0.247409 0.905627 
0.436398 -0.124313 0.891125 -0.110871 0.74771 0.654704 0.30237 0.374234 0.876653 
0.0354671 0.714655 0.698578 -0.610783 -0.77703 -0.152211 -0.284947 -0.951577 -0.11535 
-0.884481 -0.451502 -0.117642 -0.988759 -0.0479582 -0.141616 0.546877 -0.505214 0.667596 
0.234412 -0.318238 0.918573 0.390732 -0.187275 0.901253 0.202602 0.166269 0.965043 
0.240413 0.0973223 0.96578 0.168549 0.304598 0.937449 -0.513474 -0.855462 -0.0673013 
-0.857574 -0.504763 -0.098896 -0.953512 -0.276302 -0.120303 0.532384 -0.802415 0.269625 
0.623344 -0.734674 0.267763 0.542747 -0.761354 0.354635 -0.809693 0.580469 0.0863266 
0.374867 -0.209161 0.903175 -0.399173 0.845061 0.355714 -0.296885 0.854874 0.425499 
0.205577 0.381883 0.901057 0.31101 0.0123845 0.950326 0.165411 0.182477 0.969196 
0.0739307 0.610346 0.788677 0.0494108 0.373327 0.926383 -0.0950722 0.708288 0.699492 
0.0909405 0.495883 0.863614 -0.092893 0.697659 0.710383 -0.215603 -0.969436 0.117088 
-0.0472641 -0.997793 0.0466319 -0.599959 -0.799932 0.0126024 0.526248 -0.723304 0.447095 
-0.929479 0.341417 -0.139655 0.432124 -0.144635 0.89014 -0.523692 0.840764 0.137337 
-0.397692 0.849023 0.347854 -0.377593 0.795458 0.473994 0.339596 -0.0985099 0.935399 
0.249923 0.148478 0.956814 -0.150074 0.810737 0.565848 0.203617 -0.946958 0.248616 
0.618752 -0.687399 0.380301 0.55814 -0.417267 0.717195 -0.611934 0.722254 0.322315 
0.529847 -0.0812946 0.844188 -0.48133 0.819626 0.310701 -0.323586 0.692222 0.645074 
-0.192973 0.732158 0.653227 0.0197569 0.595493 0.803118 -0.864827 -0.485617 0.127478 
0.536598 -0.611745 0.581232 0.527356 -0.421063 0.737972 0.352227 -0.16383 0.921464 
0.414829 -0.134748 0.899866 0.301307 0.0671376 0.951161 0.50643 -0.218166 0.834225 
0.181138 0.195607 0.963809 0.32495 -0.0333533 0.945143 -0.368902 0.697175 0.614702 
0.12813 0.318701 0.939155 0.260945 0.134683 0.955912 -0.467506 0.794492 0.387583 
-0.157241 0.70866 0.687805 0.247194 0.198597 0.948396 -0.133714 0.544367 0.828121 
0.108652 0.386073 0.916047 0.0307035 0.57881 0.814884 -0.732015 -0.649796 0.204743 
-0.450871 -0.841834 0.296701 0.447661 -0.778706 0.439563 -0.962236 -0.198537 0.186237 
0.442055 -0.464152 0.767561 0.46812 -0.284729 0.836536 0.379211 -0.157476 0.911812 
-0.726422 0.571231 0.382108 0.0169436 0.381707 0.924128 -0.179822 0.608461 0.772942 
-0.0512228 -0.891851 0.449419 -0.706467 -0.558359 0.434901 -0.451832 -0.724403 0.520661 
-0.80681 -0.228931 0.544655 0.416112 -0.576638 0.703093 -0.884508 -0.036859 0.465066 
-0.872596 0.157303 0.462421 -0.896913 0.307554 0.317737 0.252934 -0.0315511 0.966969 
-0.720287 0.476317 0.50429 0.30006 -0.0130754 0.953831 -0.327369 0.551615 0.76717 
-0.254663 -0.769575 0.585577 -0.272903 -0.749201 0.603508 -0.0329203 -0.758753 0.650546 
0.286351 -0.669764 0.685141 0.459615 -0.437298 0.772997 -0.699921 -0.0299255 0.713593 