# vtk DataFile Version 4.2
vtk output
ASCII
DATASET POLYDATA
POINTS 561 float
213.534 270.693 199.935 213.429 271.18 200.035 226.578 266.435 200.97 
226.069 266.754 200.734 230.612 266.77 200.578 233.174 266.817 200.582 
233.586 266.512 200.877 234.629 266.906 200.642 235.599 266.899 200.835 
235.728 267.217 200.72 236.395 267.283 200.936 222.25 268.048 200.29 
226.112 267.835 200.113 233.211 267.595 200.219 236.872 267.312 201.154 
237.525 267.78 201.179 216.21 269.04 200.337 237.928 267.843 201.412 
238.239 268.128 201.514 212.316 269.901 200.404 211.969 269.587 200.598 
220.426 269.281 199.915 226.014 268.882 199.91 237.729 268.326 201.163 
238.033 268.263 201.32 210.919 269.938 200.75 212.265 270.397 200.291 
212.907 270.319 200.147 217.319 270.135 199.875 225.531 269.336 199.91 
232.278 269.058 200.223 211.971 270.761 200.388 210.347 271.26 201.02 
215.898 271.357 199.985 223.017 270.825 200.119 224.949 270.528 200.207 
212.716 272.124 200.943 214.809 272.619 201.013 229.824 266.019 201.415 
235.66 266.725 201.028 235.249 266.545 201.114 223.006 266.529 201.499 
213.276 268.524 201.121 238.249 267.863 201.708 238.471 268.056 201.74 
210.018 269.353 201.32 235.553 268.903 200.554 238.986 268.755 202.022 
239.109 268.678 202.181 208.799 270.161 201.522 230.861 269.724 200.393 
237.393 269.081 201.226 227.706 270.331 200.383 237.814 269.349 201.616 
238.433 269.179 201.832 239.02 269.081 202.313 209.63 271.457 201.495 
223.338 271.29 200.431 227.413 270.798 200.665 236.937 269.853 201.607 
238.622 269.352 202.121 223.004 271.877 200.856 222.701 272.261 201.202 
224.812 271.887 201.384 226.726 271.563 201.402 227.625 271.43 201.438 
217.909 272.807 200.787 218.505 272.706 200.668 220.51 272.665 200.95 
218.328 272.919 200.908 230.441 265.723 201.943 232.92 265.816 201.84 
235.746 266.418 201.633 237.711 267.15 202.397 209.531 268.366 202.337 
238.655 267.873 202.207 239 268.247 202.239 238.894 268.128 202.163 
208.155 269.449 202.018 208.414 268.94 202.208 239.099 269.182 202.709 
208.169 271.097 202.099 236.705 270.189 201.996 238.197 269.734 202.38 
238.601 269.514 202.388 207.282 271.549 202.934 210.982 272.456 202.163 
223.539 272.52 202.172 226.332 271.842 201.794 214.736 273.185 202.158 
218.367 273.078 201.243 219.777 273.129 201.733 217.247 273.316 201.611 
232.932 265.567 202.252 227.378 265.466 202.343 239.207 268.234 202.995 
239.306 268.725 202.929 203.432 269.816 204.051 203.915 269.404 203.803 
239.263 268.991 203.097 204.628 270.664 203.797 236.01 270.488 202.419 
237.75 270.096 202.85 230.6 271.403 202.751 208.15 272.081 203.057 
225.297 272.24 202.367 212.295 272.994 202.642 216.26 273.35 202.31 
231.943 265.376 203.095 222.135 265.571 203.444 238.487 267.268 203.613 
238.527 267.31 203.686 202.428 269.37 204.749 203.527 269.216 204.047 
202.766 269.516 204.465 204.757 271.167 204.153 206.568 272.024 204.169 
208.857 272.474 203.488 229.668 271.665 203.424 231.337 271.384 203.398 
210.357 272.857 203.967 214.551 273.419 203.268 219.552 273.346 203.013 
228.798 265.028 203.722 238.385 267.213 204.137 237.495 270.266 203.894 
204.855 271.811 205.061 215.1 273.47 204.137 201.724 268.048 205.926 
205.64 267.058 205.241 201.018 268.312 206.16 201.291 269.216 205.652 
200.798 269.782 206.156 201.222 270.092 205.959 238.743 269.565 204.992 
201.749 267.088 206.881 207.462 266.66 205.42 200.856 268.704 206.067 
239.409 268.218 205.377 239.39 268.454 205.865 200.524 268.978 206.258 
199.241 269.834 207.583 230.98 271.32 205.736 200.435 270.615 207.164 
202.962 271.847 206.763 212.912 273.232 205.956 239.339 268.076 205.63 
239.152 267.907 206.203 239.073 268.904 206.964 198.356 269.808 208.502 
223.623 272.312 206.853 232.395 264.838 207.819 216.841 264.846 207.725 
196.559 267.075 209.67 197.48 267.187 208.997 238.496 267.217 208.032 
196.726 267.455 209.436 196.757 267.91 209.43 197.927 267.716 208.554 
238.932 267.712 207.365 197.454 268.278 208.858 236.848 269.901 207.549 
197.393 269.933 209.795 196.12 266.358 210.379 195.614 266.915 210.703 
238.619 267.436 208.767 196.321 268.728 210.13 238.182 269.113 208.746 
195.384 264.966 211.919 237.405 266.52 208.646 238.303 267.161 209.149 
195.238 267.077 211.249 238.688 267.653 209.12 238.978 268.333 208.617 
195.456 268.209 211.084 238.865 268.365 209.042 196.415 264.005 212.044 
194.982 265.072 212.389 195.724 264.484 212.035 238.142 268.621 210.197 
197.485 271.001 211.863 194.92 264.227 213.165 209.003 263.98 211.716 
194.305 265.625 213.306 233.982 265.221 211.928 238.209 267.928 211.083 
234.142 269.326 212.604 236.938 268.917 211.633 195.217 263.035 213.908 
193.936 267.02 214.357 194.444 268.331 213.888 222.784 270.427 214.107 
195.565 270.016 213.969 214.079 263.272 214.045 193.822 264.86 214.848 
193.701 265.6 214.939 234.936 265.569 214.236 237.599 267.788 213.393 
193.903 267.807 215.462 194.593 269.097 215.11 195.396 261.21 215.992 
193.959 263.345 215.612 208.878 262.769 214.743 193.485 266.38 215.963 
236.947 268.046 214.86 194.481 269.178 216.091 195.943 270.779 216.585 
197.332 271.5 216.014 194.523 261.388 216.702 194.272 261.881 216.502 
208.955 262.251 215.934 193.441 264.086 216.5 193.32 264.86 216.589 
236.482 266.353 215.671 237.348 267.4 214.854 193.46 267.178 217.11 
237.137 267.802 215.224 198.664 271.947 216.497 194.366 261.218 217.329 
218.599 262.959 216.043 236.585 266.411 216.506 237.149 267.067 215.489 
195.137 259.694 219.062 196.126 259.721 218.259 193.672 261.817 218.138 
236.497 266.359 217.512 193.11 266.472 218.813 236.816 266.707 217.029 
237.012 267.275 216.649 236.023 267.747 218.274 236.63 267.55 217.484 
236.562 266.548 218.396 236.789 266.822 217.667 236.906 267.106 217.249 
236.578 267.344 218.254 194.044 259.526 220.917 209.029 260.381 219.913 
196.884 271.487 220.677 193.92 259.462 221.393 194.563 258.704 222.014 
220.812 262.465 220.622 194.871 258.084 223.322 198.583 257.544 222.896 
236.2 266.863 221.793 194.98 270.345 224.727 195.117 257.477 225.443 
197.441 256.922 225.687 202.156 257.346 225.415 192.861 266.491 225.647 
233.879 267.713 225.332 235.891 266.97 223.882 221.764 268.879 224.542 
194.09 269.29 225.847 195.731 257.129 226.327 192.955 260.359 224.991 
193.387 267.997 227.165 194.128 269.31 226.847 193.828 258.479 227.102 
226.465 263.357 226.878 192.711 265.729 227.391 240 266.009 227.017 
240 266.009 227.017 240 266.009 227.017 240 266.009 227.017 
235.827 266.641 225.685 240 266.009 227.017 235.311 267.172 226.607 
194.672 269.916 228.274 196.064 271.107 227.171 197.185 271.571 226.855 
201.276 257.072 227.34 194.157 258.06 228.079 240 266.009 227.017 
235.813 266.604 227.05 211.836 270.441 228.75 198.629 271.878 227.442 
235.78 266.14 228.122 240 266.009 229.517 240 266.008 229.517 
240 266.009 229.517 240 266.008 229.517 235.871 266.681 227.959 
240 266.009 229.517 235.936 266.634 228.449 235.856 266.773 228.495 
197.372 271.581 230.208 195.427 257.207 230.012 196.057 257.023 230.251 
196.751 256.956 230.08 192.949 260.358 228.784 235.373 265.844 229.368 
240 266.008 229.518 240 266.008 229.518 240 266.009 229.518 
235.955 266.394 229.02 240 266.009 229.518 196.556 271.26 231.359 
195.329 257.264 230.346 195.772 257.156 230.86 194.239 258.169 230.355 
240 266.009 229.518 194.672 269.915 232.455 234.148 265.321 232.461 
195.692 257.575 232.276 236.073 266.518 231.608 194.172 269.352 233.927 
195.144 257.998 232.965 196.519 257.806 233.53 235.313 265.808 233.679 
236.145 266.803 232.943 228.758 268.406 233.617 195.091 270.384 235.012 
195.641 270.827 235.598 203.427 272.129 234.287 201.219 272.212 234.082 
194.549 258.546 233.35 195.602 257.963 233.398 235.689 266.028 234.164 
234.108 268.014 234.954 234.671 267.91 235.194 235.939 267.33 234.598 
236.138 267.105 234.311 197.753 271.805 235.733 195.01 258.44 233.893 
195.417 258.271 233.955 194.232 259.474 234.428 235.74 267.63 235.867 
193.277 266.868 237.35 236.47 267.045 236.19 193.659 268.251 238.042 
194.222 269.412 237.917 195.125 270.451 238.688 194.674 260.579 236.641 
196.159 259.895 237.357 193.697 261.909 236.269 201.02 259.787 237.636 
236.563 266.866 237.091 236.635 267.425 237.75 198.461 272.083 238.393 
195.788 260.078 237.387 237.067 267.342 239.009 236.986 267.465 238.985 
235.974 268.022 239.046 195.458 260.52 237.738 194.405 261.869 238.034 
195.971 260.855 238.729 196.589 260.638 238.803 236.816 267.039 239.247 
237.214 267.386 239.659 236.863 267.565 239.907 236.959 267.522 239.535 
237.14 267.646 240.21 234.572 268.608 239.89 237.292 267.7 240.492 
196.875 271.576 240.71 195.194 261.49 238.832 236.08 266.432 240.49 
236.914 267.259 239.91 237.098 267.422 240.013 237.171 267.337 239.821 
237.393 267.514 240.499 237.196 267.449 240.599 237.027 267.666 240.306 
237.442 267.658 240.756 237.108 267.975 241.053 195.328 270.499 241.74 
195.037 263.238 241.078 234.791 265.705 242.386 237.3 267.447 240.432 
237.479 267.507 241.203 237.651 267.73 241.689 237.502 268.326 242.725 
200.812 272.587 241.754 237.944 267.796 242.761 237.011 268.712 243.321 
237.9 268.006 242.782 194.722 269.392 243.346 195.475 270.36 243.569 
196.227 271.106 243.222 195.609 263.411 242.255 197.689 263.159 243.293 
194.774 265.086 243.028 194.122 266.253 242.626 238.087 267.733 243.433 
238.298 267.905 244.051 238.333 268.092 244.191 194.84 269.264 244.185 
195.272 269.771 244.642 194.669 265.568 243.359 201.489 263.773 244.955 
194.576 268.478 244.393 194.785 268.839 244.655 238.11 268.691 245.13 
238.587 268.409 245.555 195.615 269.687 245.807 195.563 265.844 245.032 
194.831 266.829 244.851 195.59 266.292 245.419 195.006 266.977 245.221 
194.958 267.681 245.376 238.494 267.548 246.813 238.989 268.24 246.949 
195.097 268.23 245.584 195.521 269.173 246.105 200.728 272.383 247.173 
197.107 267.17 247.366 238.823 267.797 247.593 195.878 268.861 246.687 
[...]
POINT_DATA 561
SCALARS scalars float
LOOKUP_TABLE default
1 1 1 1 1 1 1 1 1 
1 1 1 1 1 1 1 1 1 
1 1 1 1 1 1 1 1 1 
1 1 1 1 1 1 1 1 1 
1 1 1 1 1 1 1 1 1 
1 1 1 1 1 1 1 1 1 
1 1 1 1 1 1 1 1 1 
1 1 1 1 1 1 1 1 1 
1 1 1 1 1 1 1 1 1 
1 1 1 1 1 1 1 1 1 
1 1 1 1 1 1 1 1 1 
1 1 1 1 1 1 1 1 1 
1 1 1 1 1 1 1 1 1 
1 1 1 1 1 1 1 1 1 
1 1 1 1 1 1 1 1 1 
1 1 1 1 1 1 1 1 1 
1 1 1 1 1 1 1 1 1 
1 1 1 1 1 1 1 1 1 
1 1 1 1 1 1 1 1 1 
1 1 1 1 1 1 1 1 1 
1 1 1 1 1 1 1 1 1 
1 1 1 1 1 1 1 1 1 
1 1 1 1 1 1 1 1 1 
1 1 1 1 1 1 1 1 1 
1 1 1 1 1 1 1 1 1 
1 1 1 1 1 1 1 1 1 
1 1 1 1 1 1 1 1 1 
1 1 1 1 1 1 1 1 1 
1 1 1 1 1 1 1 1 1 
1 1 1 1 1 1 1 1 1 
1 1 1 1 1 1 1 1 1 
1 1 1 1 1 1 1 1 1 
1 1 1 1 1 1 1 1 1 
1 1 1 1 1 1 1 1 1 
1 1 1 1 1 1 1 1 1 
1 1 1 1 1 1 1 1 1 
1 1 1 1 1 1 1 1 1 
1 1 1 1 1 1 1 1 1 
1 1 1 1 1 1 1 1 1 
1 1 1 1 1 1 1 1 1 
1 1 1 1 1 1 1 1 1 
1 1 1 1 1 1 1 1 1 
1 1 1 1 1 1 1 1 1 
1 1 1 1 1 1 1 1 1 
1 1 1 1 1 1 1 1 1 
1 1 1 1 1 1 1 1 1 
1 1 1 1 1 1 1 1 1 
1 1 1 1 1 1 1 1 1 
1 1 1 1 1 1 1 1 1 
1 1 1 1 1 1 1 1 1 
1 1 1 1 1 1 1 1 1 
1 1 1 1 1 1 1 1 1 
1 1 1 1 1 1 1 1 1 
1 1 1 1 1 1 1 1 1 
1 1 1 1 1 1 1 1 1 
1 1 1 1 1 1 1 1 1 
1 1 1 1 1 1 1 1 1 
1 1 1 1 1 1 1 1 1 
1 1 1 1 1 1 1 1 1 
1 1 1 1 1 1 1 1 1 
1 1 1 1 1 1 1 1 1 
1 1 1 1 1 1 1 1 1 
1 1 1 
NORMALS Normals float
-0.0695949 -0.21814 -0.973433 -0.204048 0.359806 -0.910442 -0.0753168 -0.706126 -0.704069 
-0.137301 -0.693829 -0.70693 0.000476114 -0.650831 -0.759223 0.0726035 -0.609587 -0.789387 
0.0931974 -0.756154 -0.647723 0.122249 -0.562934 -0.81741 0.322455 -0.553108 -0.768176 
0.296813 -0.30252 -0.90575 0.364846 -0.597605 -0.713972 -0.117479 -0.462236 -0.878941 
-0.0554176 -0.396424 -0.916393 0.0659408 -0.189323 -0.979698 0.340705 -0.595304 -0.727691 
0.424834 -0.609867 -0.669012 -0.106756 -0.409218 -0.90617 0.472084 -0.641687 -0.604462 
0.541617 -0.372245 -0.753714 -0.192291 -0.393489 -0.898994 -0.245246 -0.40078 -0.88274 
-0.0727826 -0.216001 -0.973677 0.072806 0.0935257 -0.992951 0.39414 -0.0670429 -0.916602 
0.492035 -0.204663 -0.846177 -0.24955 -0.43981 -0.862723 -0.344775 -0.132205 -0.929329 
-0.197844 -0.14287 -0.969766 -0.0701134 -0.245593 -0.966834 0.0442014 0.0847155 -0.995424 
0.0165474 0.147612 -0.988907 -0.322679 0.0675743 -0.944093 -0.332978 0.384153 -0.861134 
-0.033634 0.394482 -0.918288 0.0452808 0.431896 -0.900786 0.145861 0.493876 -0.857211 
-0.2844 0.701031 -0.653966 -0.226803 0.79239 -0.566284 0.000451445 -0.843486 -0.537151 
0.356683 -0.696579 -0.62254 0.152246 -0.817395 -0.555596 -0.155757 -0.700391 -0.696558 
-0.133444 -0.690677 -0.710745 0.518846 -0.677032 -0.521945 0.660244 -0.389166 -0.642361 
-0.251507 -0.504478 -0.825982 0.201122 0.266261 -0.942685 0.622809 0.15384 -0.7671 
0.904956 -0.0146069 -0.425254 -0.435578 0.0358069 -0.899438 0.0657746 0.440462 -0.895359 
0.364675 0.416138 -0.832972 0.143627 0.427407 -0.892578 0.414519 0.582075 -0.699545 
0.375577 0.603026 -0.703777 0.754125 0.509551 -0.414311 -0.394737 0.638433 -0.660747 
0.0863231 0.486393 -0.869465 0.0209136 0.662951 -0.748371 0.183883 0.769504 -0.611597 
0.491137 0.657377 -0.571524 0.116884 0.70019 -0.704324 0.14557 0.812231 -0.56488 
0.1365 0.879853 -0.455222 -0.0346735 0.797879 -0.60182 0.182667 0.830012 -0.526985 
-0.0919373 0.77184 -0.629135 0.101446 0.675368 -0.73047 0.216532 0.838595 -0.499873 
0.0918829 0.848562 -0.521057 0.0102247 -0.892139 -0.451645 -0.0246974 -0.873939 -0.485408 
0.277028 -0.907188 -0.316647 0.422816 -0.845033 -0.32733 -0.194016 -0.669973 -0.716585 
0.540838 -0.790695 -0.286874 0.805821 -0.503708 -0.311339 0.732396 -0.548045 -0.404034 
-0.29535 -0.416662 -0.859745 -0.248427 -0.539504 -0.804499 0.83088 0.527862 -0.176067 
-0.300053 0.724913 -0.620056 0.275175 0.843103 -0.462013 0.438968 0.826298 -0.352901 
0.501636 0.836011 -0.222365 -0.367444 0.626137 -0.687705 -0.194383 0.798435 -0.569839 
0.270722 0.924547 -0.268183 -0.112178 0.759885 -0.640306 -0.255664 0.925096 -0.280772 
0.0976776 0.887955 -0.449439 0.16368 0.967175 -0.194372 -0.0476654 0.892468 -0.448586 
0.154952 -0.949901 -0.271437 -0.0964172 -0.865289 -0.491913 0.889279 -0.441982 -0.117623 
0.982888 -0.0584361 -0.174691 -0.563437 0.434311 -0.702789 -0.301217 -0.445195 -0.843249 
0.866056 0.49992 0.00516318 -0.414321 0.472644 -0.777783 0.124566 0.979889 -0.155889 
0.364755 0.894425 -0.25876 0.149694 0.976799 -0.153151 -0.244721 0.766354 -0.593981 
0.00545836 0.938345 -0.345658 -0.120466 0.952978 -0.278066 -0.00810847 0.99911 -0.0413822 
-0.0779806 -0.961462 -0.263649 -0.101947 -0.957346 -0.27036 0.621468 -0.774081 -0.120734 
0.772211 -0.634815 -0.0264805 -0.660135 0.0994633 -0.744532 -0.391364 -0.409506 -0.824099 
-0.623529 0.00692853 -0.781769 -0.465234 0.667578 -0.581289 -0.268299 0.827937 -0.49248 
-0.263964 0.885305 -0.38283 0.161632 0.98445 -0.0687954 0.112012 0.976327 -0.185038 
-0.214917 0.971346 -0.10148 -0.223267 0.890826 -0.395703 0.170728 0.982496 -0.0745226 
0.00581649 -0.969402 -0.245411 0.563395 -0.826122 -0.0104374 0.391268 0.918908 0.0501769 
-0.420083 0.798681 -0.430859 0.0137837 0.99986 0.00950172 -0.367061 -0.58149 -0.726042 
-0.199694 -0.71643 -0.668468 -0.489343 -0.458424 -0.741883 -0.567761 -0.0553437 -0.821331 
-0.679542 0.269967 -0.682158 -0.546994 0.47541 -0.689045 0.591392 0.80439 0.0566805 
-0.288833 -0.696955 -0.656376 -0.174792 -0.777371 -0.60427 -0.564677 -0.31842 -0.761412 
0.986919 -0.141924 0.0764688 0.95202 0.289394 0.0995419 -0.677188 -0.00524608 -0.735791 
-0.611216 0.634867 -0.472609 0.152801 0.983501 0.096833 -0.654649 0.613159 -0.442121 
-0.371316 0.890069 -0.264389 -0.0977669 0.993744 0.053991 0.886439 -0.462734 0.0101996 
0.888858 -0.438521 0.132778 0.677949 0.717363 0.160548 -0.639806 0.347918 -0.685275 
0.0893507 0.988851 0.119125 0.12733 -0.991853 -0.0037592 -0.0415707 -0.934364 -0.353887 
-0.717101 -0.131443 -0.684463 -0.521017 -0.267521 -0.810539 0.590854 -0.802155 -0.0862481 
-0.653454 -0.0608878 -0.754514 -0.696663 0.110656 -0.708813 -0.579308 -0.161558 -0.798937 
0.756497 -0.653741 -0.0182887 -0.647646 0.100369 -0.755302 0.254132 0.949231 0.185413 
-0.703156 0.564681 -0.432097 -0.563202 -0.468246 -0.680845 -0.785189 -0.098442 -0.611382 
0.792038 -0.603959 0.088938 -0.756917 0.224631 -0.613691 0.630111 0.73786 0.241917 
-0.733795 -0.282603 -0.617804 0.443621 -0.895857 0.0253131 0.558287 -0.811195 0.174005 
-0.851943 -0.153435 -0.50065 0.930872 -0.306897 0.198221 0.970187 -0.177252 0.165283 
-0.853257 0.27536 -0.442865 0.843034 0.474769 0.252761 -0.385182 -0.660484 -0.644512 
-0.767642 -0.31033 -0.560733 -0.54784 -0.580568 -0.602338 0.575423 0.789873 0.212108 
-0.463957 0.861291 -0.207176 -0.718128 -0.481292 -0.502642 0.0411043 -0.885339 -0.463125 
-0.889654 -0.0349841 -0.455293 0.365051 -0.930928 -0.0105461 0.952087 0.152138 0.2653 
0.184624 0.969524 0.161052 0.437933 0.882629 0.170823 -0.661549 -0.530432 -0.53009 
-0.936508 0.152964 -0.315523 -0.864768 0.393017 -0.312591 0.1378 0.975869 0.169383 
-0.695971 0.689487 -0.200578 0.133826 -0.876193 -0.463008 -0.913212 -0.217524 -0.344567 
-0.963028 0.0142372 -0.269026 0.446774 -0.89379 -0.0391384 0.91954 0.307541 0.244674 
-0.944974 0.292041 -0.14743 -0.798583 0.573339 -0.183159 -0.38436 -0.76419 -0.517958 
-0.887538 -0.278127 -0.367317 0.134671 -0.90789 -0.396989 -0.976772 0.0561933 -0.206784 
0.712335 0.682084 0.165348 -0.863707 0.49842 -0.0747467 -0.566503 0.820782 -0.0734233 
-0.596641 0.796911 -0.0946177 -0.6202 -0.65331 -0.434209 -0.778466 -0.486205 -0.396983 
0.0947536 -0.910328 -0.402895 -0.944896 -0.213689 -0.248007 -0.985235 -0.0184579 -0.170208 
0.592628 -0.799998 -0.0937838 0.967937 0.20378 0.146877 -0.953092 0.284804 -0.102483 
0.824598 0.551024 0.128102 -0.257082 0.966378 -0.00469148 -0.735502 -0.59514 -0.323798 
0.210656 -0.878731 -0.428318 0.772054 -0.63555 0.00290817 0.821002 -0.569703 0.0373302 
-0.346986 -0.869388 -0.351803 -0.0181191 -0.883902 -0.467322 -0.846544 -0.451299 -0.282299 
0.604869 -0.792768 0.0751773 -0.989539 0.134923 -0.0510779 0.874757 -0.483911 0.0251082 
0.989523 -0.042207 0.138067 0.346341 0.936426 0.0561655 0.565248 0.803931 0.184904 
0.910723 -0.381185 0.159004 0.936649 -0.317908 0.147051 0.980418 0.0497204 0.190548 
0.770714 0.606339 0.195839 -0.76466 -0.572734 -0.295416 0.239872 -0.922611 -0.302076 
-0.178165 0.98372 0.0234969 -0.683338 -0.69201 -0.232746 -0.61715 -0.755532 -0.219768 
0.171975 -0.974139 -0.146551 -0.498833 -0.833333 -0.238164 -0.0462524 -0.938661 -0.341724 
0.991428 0.0306501 0.12701 -0.685099 0.721903 -0.0974438 -0.260514 -0.940989 -0.216037 
-0.0576296 -0.990353 -0.126012 0.219378 -0.946629 -0.23615 -0.95225 0.29465 -0.0800078 
0.257138 0.965894 0.0304707 0.759191 0.639098 0.123219 0.10623 0.992134 0.0662182 
-0.816547 0.575541 -0.0447591 -0.274562 -0.961538 -0.00771178 -0.965971 -0.251335 -0.061089 
-0.908708 0.400011 0.119335 -0.815865 0.578119 -0.0119354 -0.67356 -0.735713 -0.071015 
0.166196 -0.980787 0.102154 -0.959039 0.278329 0.052696 0 0 -1 
-0.970142 -0.242536 0 -1 0 2.52881e-08 1 0 2.52881e-08 
0.958085 0.279911 0.0610153 0 0.242536 -0.970142 0.546639 0.835236 0.0597196 
-0.766355 0.632595 0.111911 -0.534441 0.843939 0.0462542 -0.243259 0.961328 -0.129126 
0.16151 -0.983262 0.084318 -0.767858 -0.640604 -0.00460352 0 0 1 
0.9978 0.0340758 -0.0568678 0.156739 0.984529 -0.0783358 -0.193374 0.979938 -0.0482524 
0.624903 -0.778452 -0.0592388 0.107372 -0.0431763 -0.993281 -0.346292 -0.727483 -0.592327 
-0.697536 0.25683 -0.668941 0.863188 -0.391926 -0.318278 0.95575 0.274089 -0.106853 
0.526394 0.722997 -0.447421 0.983113 0.166589 -0.0757436 0.717033 0.696124 -0.0356962 
-0.427635 0.903897 -0.00986676 -0.37861 -0.920704 -0.0946525 -0.210338 -0.977594 0.00823445 
-0.0208624 -0.995816 0.0889716 -0.938193 -0.334793 0.0877895 0.32651 -0.939469 -0.103876 
0.365086 -0.70891 0.603455 -0.820479 -0.455663 0.345232 0.689447 0.305692 0.65667 
0.970665 -0.227655 -0.0773485 -0.523552 0.695252 0.492462 -0.473806 0.879979 -0.033821 
-0.474914 -0.872746 0.113014 -0.314521 -0.920676 0.231153 -0.698665 -0.702456 0.135732 
-0.0787111 -0.0505938 0.995613 -0.719386 0.693132 -0.0452942 -0.0209622 -0.999775 0.00310812 
-0.279524 -0.93688 0.210052 0.886087 -0.463183 -0.0176517 -0.768709 0.639534 -0.00912288 
-0.430411 -0.882744 0.188442 -0.0976961 -0.941277 0.323192 0.308534 -0.930803 0.195992 
0.972453 0.21609 -0.0874055 0.0918602 0.995647 0.0157755 -0.603603 0.794454 -0.0671338 
-0.53396 0.844658 -0.0379407 0.0529666 0.996762 -0.0605044 -0.0351871 0.99926 -0.0155345 
-0.654396 -0.72826 0.203478 -0.337028 -0.885922 0.318674 0.493244 -0.85616 0.153952 
0.251626 0.967713 0.0147359 0.223152 0.966957 -0.12328 0.414439 0.866699 -0.277621 
0.681714 0.706118 -0.191478 -0.322215 0.943058 -0.0825742 -0.480499 -0.763462 0.431563 
-0.372653 -0.825134 0.424598 -0.777917 -0.529812 0.337853 0.470261 0.876826 -0.100154 
-0.995158 0.0956952 0.0224424 0.957209 0.237039 -0.166025 -0.898024 0.43483 0.0669003 
-0.843924 0.536256 0.014899 -0.751461 0.651777 0.102435 -0.654399 -0.67148 0.347673 
-0.319225 -0.803698 0.50216 -0.950587 -0.248106 0.18662 -0.0280224 -0.886698 0.461499 
0.898129 -0.42985 -0.0927048 0.588638 0.785141 -0.19251 -0.294255 0.954383 -0.050672 
-0.457121 -0.812469 0.361849 0.948332 0.207771 -0.239786 0.553613 0.808233 -0.20068 
0.444896 0.869879 -0.213021 -0.403128 -0.752428 0.520903 -0.719557 -0.580611 0.380959 
-0.477629 -0.694072 0.538642 -0.286973 -0.793118 0.537224 0.462746 -0.886457 0.00777803 
0.902985 -0.407664 -0.135749 0.812824 0.526172 -0.249919 -0.00849627 0.993716 0.111605 
-0.331293 0.886027 -0.324347 0.170224 0.975305 -0.140724 0.273499 0.934855 -0.226373 
-0.461133 0.886286 -0.0430495 -0.52251 -0.667483 0.530518 0.532586 -0.834218 -0.142939 
0.942337 -0.321559 -0.0927384 -0.663233 -0.704593 0.252331 0.364845 -0.920384 0.140645 
0.866569 -0.484816 -0.118373 0.888237 0.194355 -0.416246 -0.0438229 0.786268 -0.616329 
0.850581 0.467547 -0.24065 0.452603 0.837335 -0.306629 -0.676733 0.736226 0.00201356 
-0.671402 -0.619539 0.406682 0.405311 -0.911175 -0.0740529 0.200377 -0.977763 0.061871 
0.77624 -0.608297 -0.16561 0.942994 0.210617 -0.257689 0.559739 0.807609 -0.185637 
-0.091566 0.995769 0.00774418 0.939093 -0.248625 -0.237256 0.307608 0.945304 -0.108527 
0.709823 0.655547 -0.257702 -0.875272 0.4746 0.0930283 -0.758246 0.643724 0.103357 
-0.555566 0.819364 0.141381 -0.532362 -0.683776 0.49904 -0.240291 -0.813797 0.529145 
-0.766218 -0.487982 0.418071 -0.936277 -0.235936 0.26023 0.873858 -0.434258 -0.218617 
0.957908 -0.188503 -0.216516 0.95409 0.126579 -0.271459 -0.808351 0.503191 0.305561 
-0.731384 0.618597 0.28708 -0.804156 -0.390423 0.448223 -0.259211 -0.770507 0.582348 
-0.963507 0.0946373 0.250394 -0.824357 0.353477 0.442142 0.402094 0.900479 -0.165706 
0.87041 0.42614 -0.246559 -0.799464 0.503415 0.327766 -0.485243 -0.601275 0.634829 
-0.861062 -0.278079 0.425727 -0.64834 -0.4244 0.632091 -0.81551 -0.215431 0.537153 
-0.830259 -0.0759883 0.552173 0.659488 -0.74969 -0.0551336 0.960434 -0.207371 -0.185915 
-0.841122 0.25425 0.477358 -0.820587 0.204558 0.533661 -0.244763 0.949735 0.195179 
-0.456691 -0.475516 0.751876 0.821312 -0.551068 -0.147549 -0.803673 0.032573 0.594179 
0.904736 0.395664 -0.157807 -0.403551 0.866271 0.294486 -0.693873 -0.242993 0.67786 
-0.551043 -0.319178 0.771024 0.629206 -0.776946 -0.0213385 -0.695112 0.0399842 0.717789 
-0.691014 0.449795 0.565849 -0.562028 0.628496 0.537697 -0.499153 0.778966 0.379551 
0.288952 -0.956851 0.0306983 0.971514 -0.210789 -0.108298 -0.282155 0.906551 0.313934 
-0.482869 -0.518368 0.705784 -0.210192 -0.75159 0.625246 -0.633611 -0.380904 0.673386 
0.867557 -0.494425 0.0537408 -0.577026 -0.0814333 0.812656 0.99459 0.0957864 -0.0401951 
0.65667 0.731948 -0.181759 0.946509 0.322677 0.000408411 -0.609175 0.396605 0.686739 
-0.639641 0.425757 0.639992 -0.640901 0.276107 0.716248 -0.55888 0.687505 0.46367 
0.431985 -0.900066 0.0571903 0.997391 0.0192705 0.0695653 -0.539805 0.568419 0.620895 
-0.507223 0.689149 0.517492 0.0324316 0.996571 -0.0761152 0.0155567 -0.963577 0.266977 
-0.382997 -0.589985 0.710796 -0.42433 -0.440226 0.791294 0.952084 -0.287822 0.103413 
0.201036 0.978575 0.0444464 0.230201 0.97232 0.0400056 0.638659 0.769489 0.00117316 
0.000420088 0.99999 0.00438086 0.00537983 -0.961031 0.276388 0.152743 -0.934908 0.320338 
0.242366 -0.967331 0.0743591 0.723749 -0.65667 0.212069 0.884078 -0.394825 0.250038 
-0.458866 -0.33931 0.821164 -0.584521 -0.107802 0.804186 -0.444771 -0.0727329 0.892686 
0.905638 0.422412 0.0372583 -0.549416 0.113623 0.827788 0.752008 0.638988 0.161795 
-0.525465 0.413837 0.743388 0.230635 0.972513 0.0320232 -0.0769732 0.984707 0.156293 
0.00736512 0.98252 0.186012 0.179851 -0.955868 0.232315 0.379564 -0.834655 0.399102 
-0.306398 -0.605207 0.734741 0.785365 -0.413492 0.46068 0.971687 -0.00473721 0.236226 
0.874004 0.41902 0.246046 0.55685 0.789983 0.256602 -0.436003 0.577287 0.690392 
0.127792 0.94496 0.301198 -0.37639 0.61868 0.689613 0.200026 0.965212 0.168388 
0.250815 0.964139 0.0867606 0.188127 0.89114 0.41289 -0.124575 0.934314 0.333975 
0.131963 0.975209 0.177632 0.1096 0.964 0.242266 0.203581 -0.945274 0.254975 
0.17473 -0.907305 0.382449 0.603647 -0.704739 0.372763 0.588372 -0.624544 0.513579 
-0.240687 -0.45254 0.858649 0.77243 -0.120642 0.623537 -0.439254 -0.0689478 0.895713 
-0.405737 -0.301872 0.8627 0.883868 -0.0208243 0.467272 0.791538 0.46298 0.398894 
-0.440317 0.065993 0.895414 -0.442951 0.349001 0.825828 -0.352535 0.173912 0.919496 
0.552515 0.631029 0.544545 0.678136 0.346586 0.648082 -0.394841 0.395742 0.829149 
0.500844 0.728026 0.468117 0.122865 0.82124 0.557198 0.395548 0.692509 0.603302 
-0.0418514 0.90199 0.429724 0.0454069 0.889787 0.454112 0.140709 0.87895 0.455684 
0.112963 -0.703124 0.702037 0.316951 -0.566892 0.760378 0.691413 -0.4246 0.584519 
-0.201637 -0.681273 0.703711 -0.162574 -0.532452 0.830701 0.576382 -0.125255 0.807524 
0.182877 0.496366 0.848632 0.195418 0.16921 0.966012 0.31145 0.230138 0.921974 
0.513121 0.292452 0.806957 0.623858 0.163339 0.764278 0.155498 0.568939 0.807545 
0.109917 0.573909 0.811509 0.454261 0.359391 0.81516 0.139591 0.825512 0.546849 
-0.367348 0.521667 0.770013 -0.25286 0.74819 0.613411 0.331147 0.834902 0.439637 
0.268051 0.817111 0.510371 -0.0297825 0.747176 0.663958 -0.0322888 0.744092 0.667296 
-0.0252264 -0.759058 0.650534 0.160746 -0.715704 0.679653 0.194523 -0.344014 0.918594 
0.498453 -0.53641 0.681035 -0.204423 -0.465542 0.861093 0.178021 -0.147957 0.97284 
0.350938 -0.263629 0.898522 0.209939 0.266096 0.940808 -0.290332 -0.129537 0.948118 
-0.353774 0.330656 0.874935 -0.261542 0.475395 0.839997 0.101248 0.580786 0.807736 
0.312493 0.625214 0.715161 0.349694 0.565282 0.747108 0.263726 0.538024 0.800611 
-0.0262685 0.620342 0.783892 0.139525 0.576401 0.805168 0.144752 0.784837 0.602559 
0.187321 -0.81088 0.554423 -0.111592 -0.641242 0.759181 -0.0133063 -0.448295 0.893786 
0.137199 -0.337979 0.9311 -0.0969923 -0.122991 0.987657 0.0624723 -0.273409 0.959867 
0.148139 0.00304117 0.988962 -0.149104 -0.193177 0.969768 -0.150648 -0.0210612 0.988363 
-0.201756 -0.161353 0.966054 -0.125758 -0.153016 0.980189 0.0690742 0.136799 0.988188 
0.153605 0.288852 0.944971 0.256717 0.266751 0.928946 -0.093014 0.213433 0.97252 
0.350369 0.426277 0.833984 -0.145096 0.436106 0.888121 -0.0699262 0.366077 0.927954 
0.024711 -0.386163 0.9221 -0.126613 -0.190865 0.973417 0.970142 -0.242536 0 
0 0.242536 0.970142 -0.723403 0.603042 0.336196 -0.290474 -0.951421 0.102097 

