# vtk DataFile Version 4.2
vtk output
ASCII
DATASET POLYDATA
POINTS 1504 float
108.308 162.393 139.113 108.344 163.667 139.109 109.151 163.7 138.829 
110.738 163.716 138.731 113.223 164.152 138.827 112.822 163.711 138.877 
113.289 163.875 138.892 109.484 164.078 138.819 110.005 164.24 138.751 
110.608 164.296 138.712 110.749 164.681 138.765 113.673 165.031 138.829 
111.783 165.119 138.846 115.567 165.699 139.125 117.072 166.502 139.402 
117.088 166.398 139.448 116.764 166.385 139.362 117.069 166.568 139.407 
109.214 162.03 139.149 108.097 162.848 139.096 112.409 163.206 139.029 
107.401 163 139.468 113.167 163.683 138.932 113.854 163.765 139.131 
108.494 164.243 139.333 109.378 164.969 139.568 112.371 165.532 139.005 
114.029 165.815 138.995 114.843 165.947 139.06 117.346 166.325 139.628 
111.669 165.672 139.435 113.041 165.912 139.173 116.799 166.79 139.448 
112.931 166.078 139.432 114.329 166.329 139.316 115.984 166.7 139.443 
117.884 167.051 139.744 105.982 160.629 140.612 109.583 161.529 139.51 
109.855 161.341 139.667 106.65 162.481 139.979 106.033 162.533 140.513 
106.44 163.123 140.413 113.948 163.029 139.677 115.884 164.135 140.05 
107.555 164.126 140.17 109.137 164.973 139.946 118.143 166.651 140.047 
110.564 165.463 139.823 118.327 167.223 139.939 116.587 166.985 139.677 
117.358 167.221 139.847 117.88 167.258 139.811 118.803 167.388 140.181 
118.657 167.557 140.042 119.136 167.775 140.189 116.911 167.155 139.952 
118.112 167.535 140.089 118.621 167.659 140.046 118.842 167.726 140.137 
118.488 167.649 140.038 105.554 159.037 141.492 104.575 160.614 141.269 
110.261 160.781 140.273 104.598 161.549 141.351 104.365 161.527 141.56 
105.46 162.387 141.037 107.935 164.334 140.846 106.798 163.803 140.722 
111.155 165.573 140.655 118.606 166.81 140.435 118.684 166.762 140.663 
114.269 166.531 139.988 117.591 167.296 140.406 119.205 167.667 140.329 
119.155 167.838 140.258 119.586 168.094 140.207 119.562 168.067 140.245 
119.678 168.136 140.215 119.798 168.244 140.191 119.832 168.275 140.187 
119.874 168.303 140.184 119.883 168.309 140.185 103.62 157.616 142.812 
110.611 160.395 140.778 114.778 162.134 140.962 104.251 161.794 142.189 
104.826 162.242 141.827 117.468 164.474 141.44 105.467 162.761 141.802 
109.92 165.171 140.766 110.727 165.298 141.148 118.027 165.461 141.443 
118.933 167.247 140.669 118.828 167.359 140.679 119.232 167.747 140.391 
119.644 168.101 140.245 119.833 168.265 140.199 102.057 157.059 143.49 
101.283 157.402 143.631 101.521 157.989 143.402 102.102 158.082 143.074 
106.674 158.204 142.246 109.538 158.954 142.038 101.596 159.093 143.421 
101.838 159.618 143.41 102.277 160.004 143.022 102.171 160.072 143.144 
115.169 161.679 141.817 102.343 160.234 143.109 102.878 160.769 143.237 
105.025 162.418 142.505 117.506 164.158 142.137 113.379 165.378 142.252 
118.079 165.523 141.92 118.239 165.819 141.866 116.784 166.364 141.649 
118.703 166.791 141.084 118.599 166.812 141.173 100.931 156.298 144.158 
100.776 156.106 144.276 102.528 156.51 143.749 100.034 156.868 144.553 
100.973 158.761 144.157 101.92 159.913 143.781 105.887 162.452 143.469 
114.607 165.067 143.028 117.725 164.826 142.759 117.564 165.291 142.661 
117.901 165.517 142.258 118.044 165.505 142.284 117.928 165.376 142.56 
118.086 165.53 142.376 118.034 165.499 142.465 118.277 166.114 141.774 
118.621 166.656 141.295 99.2108 155.476 145.358 100.626 155.623 144.719 
99.5016 156.265 145.051 99.7064 157.063 144.936 99.8246 157.611 145.107 
99.4571 157.455 145.654 100.476 158.506 145.126 116.179 161.388 143.463 
116.901 162.345 143.366 107.531 162.688 144.011 117.483 163.999 143.489 
117.692 164.694 143.193 117.859 165.207 142.694 117.926 165.157 142.831 
117.687 165.205 142.83 118.016 165.336 142.676 117.869 165.266 142.787 
117.959 165.281 142.776 118.58 166.551 141.403 98.5164 153.465 146.404 
97.3654 153.881 146.597 96.9527 154.623 146.942 98.3313 156.6 146.75 
113.097 158.235 144.913 100.767 158.815 145.201 101.818 159.757 144.794 
117.182 163.049 144.5 117.007 163.192 144.916 117.697 164.885 143.237 
117.929 165.171 142.89 95.9403 151.394 148.005 96.4082 151.06 148.105 
96.0483 152.335 147.572 95.282 152.31 148.021 98.7801 152.939 146.698 
99.4167 152.865 146.832 95.7763 153.284 147.688 96.2931 153.295 147.282 
95.8241 153.706 147.752 96.0663 154.092 147.678 98.5498 156.892 147.016 
99.0876 157.293 146.842 101.22 159.12 145.577 102.126 159.661 145.63 
116.647 161.165 145.463 117.043 162.822 145.311 95.2165 151.551 148.254 
94.9066 152.628 148.482 101.173 152.787 147.343 94.9435 152.969 148.583 
95.1197 153.301 148.601 96.7033 154.995 147.598 97.271 155.829 148.06 
98.0415 156.503 147.852 98.4505 156.834 147.604 115.759 159.427 146.824 
102.277 159.111 146.778 116.058 160.088 146.002 116.768 161.548 145.852 
115.732 161.723 146.945 116.943 162.409 145.622 94.0675 148.909 149.998 
93.6583 151.257 149.951 94.3862 152.398 149.378 95.4739 153.877 148.868 
97.8841 156.384 148.345 99.5258 157.366 147.89 99.7971 157.454 147.95 
116.24 161.773 146.732 116.341 161.617 146.738 93.4521 147.705 150.741 
93.44 148.545 150.378 93.236 149.702 150.154 95.6028 154.03 149.034 
95.7659 154.117 149.361 98.0178 156.22 148.808 114.986 157.831 148.941 
114.523 157.561 148.01 115.531 158.884 148.203 112.504 159.95 149.173 
116.349 161.172 146.872 92.0166 145.96 151.838 94.3412 147.178 150.997 
95.2791 147.843 150.718 96.7208 154.822 149.613 113.652 156.256 149.374 
114.65 157.261 149.36 92.0239 145.595 152.033 91.6247 145.604 152.165 
93.2918 144.982 152.565 90.7622 145.983 152.606 91.2559 146.485 152.083 
90.9961 146.741 152.41 91.3192 146.981 152.036 96.5876 147.688 151.38 
92.5398 149.747 151.54 93.6246 151.515 151.3 110.089 158.375 151.031 
114.601 159.212 149.71 90.3741 141.847 154.098 91.1138 141.662 154.27 
90.3863 143.325 153.516 91.6269 143.075 153.622 91.9966 142.324 154.227 
91.0892 144.048 153.06 90.6516 144.752 152.979 90.8406 146.691 152.764 
91.3355 147.772 153.142 93.721 151.319 152.12 114.484 157.04 150.889 
111.028 157.367 152.792 115.104 158.663 149.616 89.3556 139.144 155.352 
90.0196 141.022 154.492 89.3205 142.99 154.335 93.3444 143.446 153.992 
90.2398 145.446 153.61 92.5702 149.747 152.815 113.932 155.375 152.461 
113.991 155.838 152.197 113.921 155.3 152.65 114.221 157 151.612 
112.3 157.384 152.698 113.958 157.589 151.605 114.525 157.617 151.052 
112.552 157.663 152.227 113.542 157.933 151.53 114.537 158.001 150.877 
114.66 158.248 150.557 88.7302 137.574 156.062 89.1243 136.82 156.488 
89.9707 140.028 154.997 89.1252 142.316 154.519 88.7867 142.658 155.258 
89.5606 144.12 154.621 100.678 147.811 153.578 92.011 148.628 153.793 
92.4034 149.109 153.794 112.574 153.092 153.934 113.57 154.299 153.558 
113.739 154.912 153.144 114.553 157.817 150.972 87.8791 133.743 157.455 
87.5173 136.233 156.848 88.4053 138.835 155.711 87.87 139.999 156.024 
88.3428 141.666 155.728 92.8554 141.209 155.67 88.5145 142.227 155.52 
88.4105 142.061 155.619 88.4406 142.183 155.596 88.6759 142.516 155.711 
89.0583 143.197 155.576 89.856 144.757 154.776 90.0804 144.844 155.652 
91.3143 147.171 154.82 92.2893 148.119 155.137 92.3296 148.656 154.397 
107.035 149.99 154.195 113.226 153.784 153.894 87.3955 134.866 157.17 
87.1884 135.354 157.22 87.16 136.779 157.174 86.9958 136.795 157.566 
87.9808 140.753 156.274 113.333 155.129 155.225 112.892 155.865 154.842 
86.4996 128.802 159.284 86.1608 130.473 158.855 86.7466 134.024 157.769 
86.3365 133.812 158.389 86.5002 135.152 158.465 86.8641 135.408 157.598 
86.6325 135.794 158.325 94 141.009 157.017 94 141.009 157.017 
94 141.009 157.017 94 141.009 157.017 94 141.009 157.017 
99.4557 145.103 156.483 113.345 153.381 156.028 113.415 153.865 156.162 
85.3472 126.326 160.225 85.1799 126.41 160.328 85.4793 126.405 160.169 
85.4026 126.111 160.302 85.8475 128.276 159.476 85.7268 129.78 159.257 
85.7467 129.262 159.322 85.971 131.552 158.924 85.7809 132.121 159.291 
86.1521 133.602 158.893 90.2499 135.37 158.236 86.6551 135.976 158.466 
86.9261 136.859 158.505 87.1571 137.692 158.241 87.2765 137.864 158.656 
93.7204 139.095 158.767 94 141.009 157.017 92.7881 146.056 158.49 
111.348 150.325 157.611 112.729 151.73 157.359 113.205 152.781 156.677 
109.078 154.546 157.782 112.845 154.456 157.535 85.3998 125.141 160.887 
85.9947 126.399 160.441 85.7839 127.157 159.953 86.2362 127.213 160.08 
85.1719 127.706 160.142 85.1542 128.415 160.086 85.0951 129.325 160.263 
85.4569 130.946 159.962 85.7139 132.075 159.715 86.2589 134.372 159.277 
113.077 152.063 157.887 113.268 152.502 158.032 113.264 153.482 158.198 
110.746 154.594 158.378 111.709 154.418 158.799 112.706 154.171 158.46 
86 123.009 160.017 86 123.009 160.017 86 123.009 160.017 
86 123.009 160.017 86 123.009 160.017 85.5253 125.112 160.935 
86.668 126.629 160.861 84.6534 126.449 160.847 84.3643 126.967 161.462 
87.7674 137.703 160.317 113.07 151.416 159.418 113.307 152.374 158.928 
113.32 152.831 159.08 112.954 153.621 159.338 112.224 154.079 159.475 
84.7822 122.628 162.572 84.7658 122.38 162.722 84.3035 122.107 162.977 
84.212 123.437 162.297 83.6603 123.147 162.861 84.5795 123.543 162.072 
84.916 123.645 161.972 86 123.009 160.017 85.5757 124.721 161.355 
86.321 133.554 161.524 111.985 149.443 160.86 112.764 150.396 160.614 
102.602 150.736 160.796 83.6539 119.419 164.267 83.6418 120.211 163.925 
83.2204 120.098 164.074 83.2149 120.928 163.84 84.7664 121.77 163.273 
82.9975 121.683 163.892 83.6149 123.948 162.73 83.5067 124.298 163.105 
87.5479 126.235 162.399 84.0126 126.442 162.925 112.773 152.934 162.131 
112.689 153.322 161.057 83.5055 118.472 164.749 82.5101 119.543 164.68 
82.4943 118.944 164.796 82.5158 120.171 164.64 84.6021 128.333 162.999 
113.337 151.457 161.445 112.576 152.835 162.884 82.8445 116.45 165.986 
82.0741 117.242 165.642 82.8244 117.083 165.613 81.8437 117.908 165.51 
[...]
POINT_DATA 1504
SCALARS scalars float
LOOKUP_TABLE default
1 1 1 1 1 1 1 1 1 
1 1 1 1 1 1 1 1 1 
1 1 1 1 1 1 1 1 1 
1 1 1 1 1 1 1 1 1 
1 1 1 1 1 1 1 1 1 
1 1 1 1 1 1 1 1 1 
1 1 1 1 1 1 1 1 1 
1 1 1 1 1 1 1 1 1 
1 1 1 1 1 1 1 1 1 
1 1 1 1 1 1 1 1 1 
1 1 1 1 1 1 1 1 1 
1 1 1 1 1 1 1 1 1 
1 1 1 1 1 1 1 1 1 
1 1 1 1 1 1 1 1 1 
1 1 1 1 1 1 1 1 1 
1 1 1 1 1 1 1 1 1 
1 1 1 1 1 1 1 1 1 
1 1 1 1 1 1 1 1 1 
1 1 1 1 1 1 1 1 1 
1 1 1 1 1 1 1 1 1 
1 1 1 1 1 1 1 1 1 
1 1 1 1 1 1 1 1 1 
1 1 1 1 1 1 1 1 1 
1 1 1 1 1 1 1 1 1 
1 1 1 1 1 1 1 1 1 
1 1 1 1 1 1 1 1 1 
1 1 1 1 1 1 1 1 1 
1 1 1 1 1 1 1 1 1 
1 1 1 1 1 1 1 1 1 
1 1 1 1 1 1 1 1 1 
1 1 1 1 1 1 1 1 1 
1 1 1 1 1 1 1 1 1 
1 1 1 1 1 1 1 1 1 
1 1 1 1 1 1 1 1 1 
1 1 1 1 1 1 1 1 1 
1 1 1 1 1 1 1 1 1 
1 1 1 1 1 1 1 1 1 
1 1 1 1 1 1 1 1 1 
1 1 1 1 1 1 1 1 1 
1 1 1 1 1 1 1 1 1 
1 1 1 1 1 1 1 1 1 
1 1 1 1 1 1 1 1 1 
1 1 1 1 1 1 1 1 1 
1 1 1 1 1 1 1 1 1 
1 1 1 1 1 1 1 1 1 
1 1 1 1 1 1 1 1 1 
1 1 1 1 1 1 1 1 1 
1 1 1 1 1 1 1 1 1 
1 1 1 1 1 1 1 1 1 
1 1 1 1 1 1 1 1 1 
1 1 1 1 1 1 1 1 1 
1 1 1 1 1 1 1 1 1 
1 1 1 1 1 1 1 1 1 
1 1 1 1 1 1 1 1 1 
1 1 1 1 1 1 1 1 1 
1 1 1 1 1 1 1 1 1 
1 1 1 1 1 1 1 1 1 
1 1 1 1 1 1 1 1 1 
1 1 1 1 1 1 1 1 1 
1 1 1 1 1 1 1 1 1 
1 1 1 1 1 1 1 1 1 
1 1 1 1 1 1 1 1 1 
1 1 1 1 1 1 1 1 1 
1 1 1 1 1 1 1 1 1 
1 1 1 1 1 1 1 1 1 
1 1 1 1 1 1 1 1 1 
1 1 1 1 1 1 1 1 1 
1 1 1 1 1 1 1 1 1 
1 1 1 1 1 1 1 1 1 
1 1 1 1 1 1 1 1 1 
1 1 1 1 1 1 1 1 1 
1 1 1 1 1 1 1 1 1 
1 1 1 1 1 1 1 1 1 
1 1 1 1 1 1 1 1 1 
1 1 1 1 1 1 1 1 1 
1 1 1 1 1 1 1 1 1 
1 1 1 1 1 1 1 1 1 
1 1 1 1 1 1 1 1 1 
1 1 1 1 1 1 1 1 1 
1 1 1 1 1 1 1 1 1 
1 1 1 1 1 1 1 1 1 
1 1 1 1 1 1 1 1 1 
1 1 1 1 1 1 1 1 1 
1 1 1 1 1 1 1 1 1 
1 1 1 1 1 1 1 1 1 
1 1 1 1 1 1 1 1 1 
1 1 1 1 1 1 1 1 1 
1 1 1 1 1 1 1 1 1 
1 1 1 1 1 1 1 1 1 
1 1 1 1 1 1 1 1 1 
1 1 1 1 1 1 1 1 1 
1 1 1 1 1 1 1 1 1 
1 1 1 1 1 1 1 1 1 
1 1 1 1 1 1 1 1 1 
1 1 1 1 1 1 1 1 1 
1 1 1 1 1 1 1 1 1 
1 1 1 1 1 1 1 1 1 
1 1 1 1 1 1 1 1 1 
1 1 1 1 1 1 1 1 1 
1 1 1 1 1 1 1 1 1 
1 1 1 1 1 1 1 1 1 
1 1 1 1 1 1 1 1 1 
1 1 1 1 1 1 1 1 1 
1 1 1 1 1 1 1 1 1 
1 1 1 1 1 1 1 1 1 
1 1 1 1 1 1 1 1 1 
1 1 1 1 1 1 1 1 1 
1 1 1 1 1 1 1 1 1 
1 1 1 1 1 1 1 1 1 
1 1 1 1 1 1 1 1 1 
1 1 1 1 1 1 1 1 1 
1 1 1 1 1 1 1 1 1 
1 1 1 1 1 1 1 1 1 
1 1 1 1 1 1 1 1 1 
1 1 1 1 1 1 1 1 1 
1 1 1 1 1 1 1 1 1 
1 1 1 1 1 1 1 1 1 
1 1 1 1 1 1 1 1 1 
1 1 1 1 1 1 1 1 1 
1 1 1 1 1 1 1 1 1 
1 1 1 1 1 1 1 1 1 
1 1 1 1 1 1 1 1 1 
1 1 1 1 1 1 1 1 1 
1 1 1 1 1 1 1 1 1 
1 1 1 1 1 1 1 1 1 
1 1 1 1 1 1 1 1 1 
1 1 1 1 1 1 1 1 1 
1 1 1 1 1 1 1 1 1 
1 1 1 1 1 1 1 1 1 
1 1 1 1 1 1 1 1 1 
1 1 1 1 1 1 1 1 1 
1 1 1 1 1 1 1 1 1 
1 1 1 1 1 1 1 1 1 
1 1 1 1 1 1 1 1 1 
1 1 1 1 1 1 1 1 1 
1 1 1 1 1 1 1 1 1 
1 1 1 1 1 1 1 1 1 
1 1 1 1 1 1 1 1 1 
1 1 1 1 1 1 1 1 1 
1 1 1 1 1 1 1 1 1 
1 1 1 1 1 1 1 1 1 
1 1 1 1 1 1 1 1 1 
1 1 1 1 1 1 1 1 1 
1 1 1 1 1 1 1 1 1 
1 1 1 1 1 1 1 1 1 
1 1 1 1 1 1 1 1 1 
1 1 1 1 1 1 1 1 1 
1 1 1 1 1 1 1 1 1 
1 1 1 1 1 1 1 1 1 
1 1 1 1 1 1 1 1 1 
1 1 1 1 1 1 1 1 1 
1 1 1 1 1 1 1 1 1 
1 1 1 1 1 1 1 1 1 
1 1 1 1 1 1 1 1 1 
1 1 1 1 1 1 1 1 1 
1 1 1 1 1 1 1 1 1 
1 1 1 1 1 1 1 1 1 
1 1 1 1 1 1 1 1 1 
1 1 1 1 1 1 1 1 1 
1 1 1 1 1 1 1 1 1 
1 1 1 1 1 1 1 1 1 
1 1 1 1 1 1 1 1 1 
1 1 1 1 1 1 1 1 1 
1 1 1 1 1 1 1 1 1 
1 1 1 1 1 1 1 1 1 
1 1 1 1 1 1 1 1 1 
1 1 1 1 1 1 1 1 1 
1 
NORMALS Normals float
-0.21808 -0.485198 -0.846773 -0.485912 0.331574 -0.80867 -0.220955 0.0680555 -0.972907 
0.0846387 -0.204696 -0.975159 0.138389 -0.0941826 -0.98589 0.0651633 -0.29649 -0.95281 
0.252473 -0.329442 -0.909794 -0.131665 0.0464264 -0.990207 -0.218923 0.354714 -0.908984 
0.0199869 -0.0390325 -0.999038 -0.0816949 0.337292 -0.937849 0.0373752 0.0821058 -0.995923 
0.000737838 0.319264 -0.947666 0.273695 -0.181005 -0.944631 0.384509 -0.169191 -0.907484 
0.325747 -0.49757 -0.803936 0.170427 -0.158991 -0.972459 0.132179 0.209093 -0.968921 
0.00685712 -0.341557 -0.939836 -0.371089 -0.0455442 -0.92748 0.190869 -0.613062 -0.766632 
-0.545217 0.170167 -0.820842 0.204238 -0.495418 -0.844303 0.343694 -0.312815 -0.88545 
-0.43489 0.579049 -0.689618 -0.343013 0.754645 -0.559332 -0.198724 0.609454 -0.767511 
-0.0159691 0.313372 -0.949496 0.0472942 0.326264 -0.944095 0.461305 -0.464474 -0.755951 
-0.291862 0.848072 -0.442256 -0.11323 0.546055 -0.830062 -0.020968 0.566531 -0.823774 
-0.256663 0.909891 -0.325917 -0.127873 0.749671 -0.649339 -0.0938989 0.617146 -0.781226 
0.383119 0.0235927 -0.923398 -0.292584 -0.327498 -0.898409 -0.22027 -0.727961 -0.649272 
0.084034 -0.572948 -0.815273 -0.600094 0.0703285 -0.796832 -0.7292 0.319669 -0.605044 
-0.682828 0.429482 -0.591008 0.327122 -0.568798 -0.754625 0.510913 -0.57895 -0.63544 
-0.575145 0.699781 -0.423692 -0.438918 0.885208 -0.154137 0.609694 -0.461893 -0.644149 
-0.327297 0.937508 -0.118136 0.428681 -0.112341 -0.896444 -0.196591 0.860216 -0.470511 
-0.180542 0.848885 -0.496788 0.144216 0.371596 -0.917125 0.61021 -0.444166 -0.656019 
0.325117 0.0197301 -0.945468 0.218912 0.0509171 -0.974415 -0.264308 0.959354 0.0989025 
-0.323299 0.945371 0.0418434 0.101168 0.449882 -0.88734 -0.0416831 0.816853 -0.575338 
-0.196455 0.94207 -0.271862 -0.146543 -0.492046 -0.858147 -0.496532 -0.0955408 -0.862744 
-0.105902 -0.793856 -0.598813 -0.585317 0.194758 -0.787067 -0.669406 0.340746 -0.660142 
-0.672761 0.363402 -0.644462 -0.378277 0.895033 0.236267 -0.64104 0.733559 -0.225739 
-0.265752 0.954209 0.137338 0.73247 -0.534145 -0.422111 0.812713 -0.550948 -0.189617 
-0.229384 0.972049 -0.0500283 -0.256017 0.896025 0.36276 0.724144 -0.65668 -0.21068 
-0.364701 0.927626 0.0806426 -0.288441 0.433657 -0.853665 -0.390697 0.702225 0.595177 
0.505603 -0.654883 -0.561689 0.233913 -0.422363 -0.875725 -0.550817 0.81012 0.200764 
0.369729 -0.56193 -0.739956 -0.487825 0.778782 0.394368 0.0331684 -0.745726 -0.665426 
0.0196962 -0.797935 -0.602422 0.385983 -0.645198 -0.659345 -0.629006 0.774822 0.0632695 
-0.632897 0.67426 -0.380544 0.737283 -0.561402 -0.375821 -0.548562 0.833426 -0.0669317 
-0.410922 0.742754 0.528639 -0.371598 0.783841 0.497503 0.871511 -0.456414 -0.179317 
0.933959 -0.330986 0.134792 0.255552 0.532351 0.807029 0.194293 0.413793 0.889396 
0.596085 -0.388052 0.702921 -0.249783 0.528851 0.811126 -0.271324 -0.41675 -0.867584 
-0.541474 -0.165373 -0.824292 -0.511656 -0.119879 -0.850786 -0.399682 -0.154698 -0.903506 
0.106545 -0.765703 -0.634309 0.181477 -0.870372 -0.457732 -0.674699 0.176998 -0.716556 
-0.694367 0.167669 -0.699815 -0.512678 0.206293 -0.833429 -0.75133 0.473675 -0.459495 
0.447031 -0.71658 -0.535422 -0.600533 0.705171 -0.376954 -0.621182 0.719289 -0.311056 
-0.55851 0.780537 0.280766 0.819264 -0.518061 -0.245802 -0.248521 0.78304 0.570163 
0.89824 -0.427612 0.10155 0.920355 -0.389761 -0.0321441 -0.0579725 0.777896 0.625713 
0.921685 -0.0623532 0.382895 0.20406 0.657402 0.725384 -0.142076 -0.50422 -0.851808 
-0.312902 -0.433486 -0.845093 -0.133432 -0.557538 -0.819358 -0.60794 0.030808 -0.793385 
-0.775742 0.56995 -0.27089 -0.738152 0.667705 -0.0964443 -0.407697 0.835151 0.369196 
-0.0718056 0.771821 0.631773 0.986985 -0.024742 0.158896 0.145831 0.766626 0.625314 
0.140038 0.689177 0.710932 0.337121 -0.902137 -0.269256 -0.624805 -0.473202 -0.621046 
0.942459 -0.324911 0.0787619 -0.0349747 0.821832 0.568655 0.811039 0.19164 0.552712 
0.669654 0.427877 0.607029 -0.541936 -0.128072 -0.830604 -0.119154 -0.550714 -0.826145 
-0.646941 -0.140288 -0.749524 -0.76203 0.261585 -0.592354 -0.743884 0.470463 -0.474659 
-0.712738 0.642201 -0.282103 -0.711887 0.692736 0.115473 0.673744 -0.646766 -0.357438 
0.835591 -0.47585 -0.274509 -0.268722 0.830206 0.488412 0.967208 -0.213645 0.137352 
0.93198 -0.356758 0.0643259 0.619218 -0.606866 -0.49828 0.768445 -0.599954 -0.222594 
-0.100988 0.866196 0.489393 0.864338 0.240059 0.441918 -0.233015 0.836396 0.496131 
0.223668 0.725543 0.650815 0.742113 0.242203 0.624984 -0.0850513 -0.461944 -0.882821 
-0.426931 -0.276699 -0.860911 -0.679905 0.309055 -0.664992 -0.73114 0.635436 -0.248303 
0.526698 -0.710784 -0.466235 -0.661469 0.748002 0.0543296 -0.606605 0.787963 0.105566 
0.979721 -0.124757 0.15679 0.562275 0.549411 0.618058 0.465822 0.54539 0.696821 
0.880106 0.0460953 0.472535 -0.333513 -0.431036 -0.838437 -0.0703221 -0.592704 -0.802344 
-0.365839 -0.256734 -0.894567 -0.635519 -0.0458635 -0.770722 -0.141311 -0.48113 -0.865185 
0.197457 -0.65256 -0.731558 -0.656738 0.111668 -0.745806 -0.522915 -0.0618564 -0.850137 
-0.759027 0.370328 -0.535477 -0.750613 0.450895 -0.482984 -0.614944 0.787529 -0.0405181 
-0.566082 0.82398 -0.0246827 -0.634112 0.685682 0.357411 -0.359844 0.836083 0.4141 
0.902517 -0.421301 -0.0892696 0.777983 0.366641 0.510213 -0.447801 -0.399263 -0.80004 
-0.737575 0.247053 -0.628449 0.135842 -0.682047 -0.718581 -0.836109 0.417599 -0.355715 
-0.773081 0.371018 -0.514482 -0.708728 0.586898 -0.391479 -0.720216 0.688945 -0.0815078 
-0.49942 0.860565 0.100035 -0.607339 0.793719 0.0339023 0.912469 -0.406968 -0.0421619 
-0.429119 0.768053 0.475343 0.781866 -0.60547 -0.148633 0.950733 -0.274198 0.144642 
0.240838 0.601402 0.761782 0.92512 0.0144013 0.379402 -0.350936 -0.41693 -0.838459 
-0.881532 0.365277 -0.299121 -0.866792 0.468307 -0.171349 -0.799628 0.600318 0.0145717 
-0.471836 0.849786 0.235022 -0.449609 0.869075 0.2063 -0.302867 0.825328 0.476556 
0.407471 0.49112 0.769914 0.553162 0.294741 0.779192 -0.303676 -0.357458 -0.883179 
-0.345856 -0.410413 -0.843768 -0.705441 -0.0750366 -0.704786 -0.774702 0.632123 0.0160349 
-0.717902 0.655575 0.234174 -0.224536 0.826756 0.515807 0.91799 -0.393523 -0.0493383 
0.758762 -0.560665 -0.331565 0.939376 -0.056563 0.338191 -0.0429806 0.801223 0.596821 
0.843845 0.0714977 0.531802 -0.216824 -0.370849 -0.903027 0.1493 -0.631809 -0.76061 
0.0700798 -0.577006 -0.813728 -0.420514 0.761383 0.49342 0.541339 -0.768559 -0.340984 
0.852035 -0.513041 0.104047 -0.117257 -0.61481 -0.77991 -0.297334 -0.47149 -0.830235 
0.258669 -0.625362 -0.736216 -0.746462 -0.0913506 -0.659128 -0.590371 -0.106261 -0.800107 
-0.832975 0.239762 -0.498665 -0.745381 0.183673 -0.640837 0.256716 -0.725178 -0.638917 
-0.883387 0.445476 -0.14553 -0.802848 0.593225 0.0593284 -0.13536 0.834201 0.53459 
0.415305 0.61773 0.66778 0.0472879 -0.42855 -0.90228 0.275638 -0.492112 -0.825742 
-0.326973 -0.289146 -0.899713 0.225162 -0.490361 -0.841931 0.453364 -0.375269 -0.808477 
-0.22643 -0.377599 -0.897858 -0.694534 -0.0979738 -0.712757 -0.919221 0.344847 -0.190036 
-0.857218 0.508273 0.082675 -0.657773 0.689111 0.304074 0.944771 -0.262217 0.196596 
0.0190459 0.880568 0.473537 0.895126 0.155325 0.417879 0.105117 -0.412839 -0.904718 
0.235639 -0.444562 -0.864198 -0.739369 0.128139 -0.660995 0.572471 -0.547816 -0.61006 
-0.910685 0.370466 -0.182778 -0.67253 0.688423 0.271619 0.928535 -0.36938 -0.0371768 
0.950238 0.0426784 0.308587 0.979222 -0.135717 0.150684 0.908805 0.0854779 0.408372 
0.305756 0.797181 0.520592 0.521768 0.551977 0.650445 0.790766 0.138911 0.596149 
0.152337 0.8248 0.544517 0.208685 0.763803 0.610783 0.396409 0.51744 0.758364 
0.724696 0.407929 0.555346 0.0414064 -0.262934 -0.963925 0.409409 -0.354797 -0.840537 
0.219986 -0.409679 -0.885307 -0.80606 0.0785878 -0.586592 -0.881032 0.426485 -0.204677 
-0.867815 0.38272 -0.316895 0.361135 -0.733083 -0.576342 -0.803551 0.535792 0.259292 
-0.585508 0.730824 0.350823 0.624316 -0.607248 -0.491406 0.709454 -0.582751 -0.396328 
0.963645 -0.266176 -0.0231993 0.611933 0.312675 0.72648 0.232262 -0.406135 -0.883803 
-0.648198 -0.149322 -0.746688 -0.31071 -0.251279 -0.916689 -0.926666 0.134618 -0.350953 
-0.837072 0.0634683 -0.543399 0.577256 -0.485798 -0.656335 -0.820477 0.244114 -0.516938 
-0.943421 0.162489 -0.289058 -0.901682 0.402176 -0.158824 -0.832211 0.507989 0.2222 
-0.819065 0.518271 0.246023 -0.832474 0.498751 -0.241319 -0.817794 0.518802 0.249113 
-0.829045 0.519931 0.205805 -0.68128 0.608727 0.406582 -0.658489 0.607609 0.444075 
0.310584 -0.764135 -0.565363 0.619189 -0.62431 -0.476279 -0.545268 -0.153363 -0.824113 
-0.695339 -0.133917 -0.706094 -0.821084 -0.12007 -0.558036 -0.955219 0.0915692 -0.281374 
-0.896166 0.390011 0.211606 0.915195 0.315128 0.251221 0.322447 0.846544 0.423545 
0.267336 -0.40504 -0.874342 -0.524205 -0.135006 -0.840822 -0.738373 -0.204866 -0.642523 
-0.890268 -0.0280928 -0.454571 -0.985912 0.166742 -0.0132388 -0.848053 0.0630288 -0.52615 
-0.911475 0.262872 -0.316403 0 0.17597 -0.984396 -0.970143 -0.242536 0 
-0.992625 0.121226 0 0.992625 0.121226 0 0 0.447214 -0.894427 
0.515181 -0.732852 -0.444427 0.939862 -0.331496 -0.0822811 0.997456 -0.0712733 0.000837085 
-0.506482 -0.30094 -0.808029 -0.526633 -0.180387 -0.830733 -0.125579 -0.213908 -0.968748 
-0.00109286 -0.480795 -0.876832 -0.29877 -0.229324 -0.926362 -0.604531 -0.0225966 -0.796261 
-0.560016 -0.0959325 -0.822909 -0.834864 -0.0271552 -0.549785 -0.956518 0.0226215 -0.290796 
-0.917159 0.0127395 -0.398319 0.503447 -0.485853 -0.714485 -0.964093 0.265565 -7.49019e-05 
-0.932699 0.278291 0.229405 -0.965566 0.240066 0.100257 -0.95468 0.254697 0.154001 
0.645115 -0.576143 -0.501883 0 0.17597 0.984396 -0.573332 0.66631 0.476783 
0.577944 -0.731332 -0.362123 0.780172 -0.532005 -0.329094 0.905464 -0.38602 -0.176417 
-0.132914 0.876472 0.462742 0.527517 0.783737 0.327845 0.0755694 -0.601268 -0.795466 
0.491061 -0.502772 -0.711392 0.175916 -0.406333 -0.896631 0.576556 -0.386078 -0.720089 
-0.815401 -0.0418171 -0.577384 -0.820741 -0.0613787 -0.567993 -0.947203 0.106448 -0.302448 
-0.944955 0.133242 -0.298841 -0.984731 0.140433 -0.102872 -0.970379 0.241526 0.00554378 
0.90631 -0.362919 -0.216548 0.963014 -0.221563 -0.153339 0.965464 0.235968 0.110445 
-0.0168274 0.932068 0.361892 0.18058 0.937475 0.297543 0.576178 0.770617 0.272339 
0 0.268207 -0.963361 -0.83205 -0.5547 0 -0.987175 0.159641 0 
0.987175 0.159641 0 0 1 0 0.4737 -0.54626 -0.690803 
0.69603 -0.419296 -0.582866 -0.75466 -0.207816 -0.622335 -0.94602 0.0961777 -0.309508 
-0.801781 0.411331 0.433537 0.874246 -0.458103 -0.160736 0.987338 -0.157927 -0.0149216 
0.96972 0.222265 0.101202 0.769356 0.596295 0.22918 0.280166 0.892569 0.35331 
0.214563 -0.529988 -0.820412 0.139755 -0.55652 -0.818995 -0.119738 -0.490687 -0.86307 
-0.325602 -0.508097 -0.797384 -0.811237 -0.111099 -0.574066 -0.247598 -0.623743 -0.741377 
0.0841177 -0.699511 -0.709654 0 0.268207 0.963361 0.402365 -0.5906 -0.699496 
-0.925437 0.292336 0.241051 0.659339 -0.725384 -0.197709 0.818421 -0.566366 -0.0970343 
-0.387756 0.837867 0.384219 0.298053 -0.495847 -0.815659 -0.207152 -0.39867 -0.893393 
-0.421062 -0.325639 -0.846562 -0.592824 -0.231149 -0.771447 0.39671 -0.534337 -0.746395 
-0.856905 -0.0954022 -0.506568 -0.919287 0.0292416 -0.3925 -0.970191 0.229693 -0.0772706 
0.719768 -0.447962 -0.530343 -0.979517 0.152101 -0.131952 0.431987 0.876097 0.214104 
0.544093 0.786341 0.292628 0.14909 -0.554571 -0.818672 -0.634972 -0.261486 -0.726936 
-0.620372 -0.203094 -0.757556 -0.863346 -0.0472703 -0.502394 -0.882857 0.379061 0.277265 
0.974301 -0.2248 -0.0142395 0.297883 0.930834 0.211692 0.243995 -0.542088 -0.804119 
-0.212809 -0.44235 -0.871228 0.343197 -0.509357 -0.789158 -0.747508 -0.131429 -0.651121 
0.259862 -0.605314 -0.752374 0.628562 -0.487367 -0.606121 -0.94199 0.0615856 -0.329941 
-0.939028 0.0588068 -0.338774 0.777152 -0.451943 -0.43793 0.809313 0.566867 0.153865 
0.24607 -0.6319 -0.734951 0.0370959 -0.55886 -0.828432 -0.228708 -0.461961 -0.856904 
0.600201 -0.545791 -0.584697 0.638476 -0.562791 -0.524991 -0.0480431 0.981924 0.183077 
0.989415 0.136564 0.0490727 0.493984 0.830983 0.255827 -0.160443 -0.694911 -0.700968 
0.152023 -0.684269 -0.713207 -0.296233 -0.576755 -0.761315 -0.449993 -0.389312 -0.803705 
-0.929473 0.00927789 -0.368775 -0.62282 -0.294097 -0.724985 -0.985192 0.130569 -0.111122 
0.750446 -0.453219 -0.481065 0.956821 -0.290444 -0.0116496 -0.29213 0.944566 0.14985 
-0.153246 0.984128 0.0894863 0.993228 0.0479694 0.105817 0.803707 0.536658 0.257008 
0.583466 -0.494045 -0.644583 0.304282 -0.764109 -0.568815 0.660284 -0.611235 -0.436368 
-0.725174 -0.501089 -0.472264 -0.686499 -0.423814 -0.590847 -0.955235 -0.166419 -0.244604 
-0.974071 0.0960093 -0.204862 0.813084 -0.425439 -0.397362 0.62471 -0.675495 -0.39172 
0.927181 0.315542 0.201911 0.33495 -0.789724 -0.51395 0.0575221 -0.820714 -0.568437 
-0.346175 -0.771575 -0.533699 -0.0902883 -0.763057 -0.639993 -0.921438 0.387174 -0.0323677 
0.940645 -0.337546 0.0353444 0.475842 0.869068 0.135259 -0.744235 -0.526479 -0.411017 
-0.136951 -0.865585 -0.48167 -0.968827 0.244859 0.0376548 0.819187 -0.497181 -0.285909 
-0.91903 0.371808 0.13093 0.93004 0.36546 0.0382708 0.418258 -0.764898 -0.489888 
-0.668304 -0.631478 -0.3932 -0.989189 -0.122654 -0.0803789 -0.980969 -0.148221 -0.125422 
-0.363453 0.927716 0.085116 0.258083 0.964275 -0.0597257 -0.238749 -0.864371 -0.442563 
0.439561 -0.732211 -0.520244 0.81175 -0.493775 -0.311848 0.686913 -0.708492 -0.161829 
0.826927 -0.526584 0.197236 -0.515208 0.855776 -0.0469979 -0.111755 0.987353 -0.112446 
-0.356051 -0.83061 -0.428153 0.270248 -0.86575 -0.421239 0.648637 -0.632071 -0.423977 
0.646749 -0.757017 0.0929572 0.753781 -0.655619 0.0444797 -0.529119 0.795042 0.296549 
0.992136 -0.113081 0.0536628 -0.279875 0.958019 -0.0622011 0.362188 0.914485 -0.180378 
0.597857 0.779202 -0.18818 -0.66416 -0.652542 -0.364801 0.022699 -0.87028 -0.492034 
-0.999305 -0.0311384 -0.0204793 -0.945221 0.275968 0.174354 0.661283 -0.707581 -0.249066 
0.635131 -0.737931 0.228181 0.779975 -0.521451 0.346018 -0.575124 0.747784 0.331741 
-0.607555 0.782363 0.137059 0.995719 -0.0836601 0.0393088 -0.367743 0.925692 -0.0886563 
0.788914 0.586587 -0.183113 0.0823119 0.978572 -0.188735 -0.069388 -0.808329 -0.584628 
0.509041 -0.747414 -0.426907 0.739301 -0.59478 -0.315707 -0.839681 0.461523 0.286237 
0.856214 -0.482341 -0.185054 0.823834 -0.540158 -0.171833 0.847919 -0.528144 -0.0457949 
0.66515 -0.692153 -0.280179 0.730529 -0.655266 0.192233 0.652561 -0.636172 0.411642 
-0.613805 0.39617 0.682856 0.681729 -0.664463 0.306162 -0.576171 0.744785 0.336635 
0.601911 -0.657767 0.452819 -0.575708 0.610626 0.54378 -0.588763 0.766432 0.256787 
0.984073 0.176648 0.0199 -0.411052 0.900872 -0.139519 -0.236776 0.965711 -0.106484 
0.210938 0.974749 0.0732827 0.566399 0.811949 -0.141177 -0.490795 -0.665909 -0.561859 
-0.863515 -0.365144 -0.347867 0.609824 -0.680619 -0.406045 0.232404 -0.859597 -0.455062 
-0.787595 0.303416 -0.536314 0.628779 0.536423 -0.562928 0.826159 -0.308067 0.471759 
-0.17812 0.885356 0.429439 0.830482 -0.536097 -0.151326 0.875214 -0.444204 0.191531 
0.626239 -0.586469 0.513691 0.630061 -0.614467 0.474819 -0.622015 0.23329 0.747445 
-0.585036 0.578073 0.568827 0.894776 -0.315232 0.316235 0.982362 -0.107947 0.152684 
-0.72566 0.676668 0.124654 0.98953 0.0576263 0.132323 0.386884 0.912315 -0.134169 
0.494573 0.84953 0.183565 0.87068 0.465663 0.158349 -0.59295 -0.59295 0.544812 
-0.637728 0.500585 0.58542 0.884107 -0.466989 -0.0166161 0.895726 -0.441424 0.0530914 
0.807299 -0.505104 0.305187 0.582694 -0.418561 0.696616 0.281267 -0.317711 0.90551 
0.466658 -0.586957 0.661598 -0.154137 0.0316649 0.987542 0.129567 -0.281111 0.950889 
0.381369 -0.548827 0.743873 -0.319872 0.26934 0.908371 -0.161988 -0.0902572 0.982656 
0.602123 -0.544057 0.584337 -0.662483 0.149696 0.733967 -0.468032 0.104355 0.877529 
-0.49113 0.314541 0.812315 0.202168 -0.305846 0.930369 0.372737 -0.530998 0.760992 
-0.543304 0.364728 0.756171 0.583133 -0.602415 0.545025 0.509274 -0.516999 0.688006 
0.666039 -0.596354 0.448056 -0.387452 0.515254 0.764457 0.766118 -0.475537 0.432351 
-0.329028 0.696667 0.637491 -0.447567 0.57637 0.683726 -0.405195 0.570061 0.714736 
-0.576712 0.607393 0.546331 0.659653 -0.444183 0.606266 -0.819727 0.53726 0.198491 