# vtk DataFile Version 4.2
vtk output
ASCII
DATASET POLYDATA
POINTS 1564 float
115.679 160.704 137.283 115.421 160.772 137.279 115.115 158.913 137.906 
110.965 159.321 137.648 110.397 159.867 137.876 111.64 160.368 137.553 
115.467 161.209 137.331 116.462 161.369 137.425 117.127 161.138 137.603 
111.499 161.007 137.875 112.077 161.219 137.723 112.738 161.33 137.545 
112.836 161.864 137.867 116.843 162.628 137.636 119.897 163.159 138.22 
113.174 161.939 137.766 114.524 162.369 137.775 116.142 162.977 137.833 
117.225 163.614 138.137 113.429 157.508 138.261 110.809 158.011 137.994 
109.648 158.672 138.076 110.179 158.447 137.971 109.094 158.717 138.344 
109.8 159.058 137.99 109.431 159.233 138.23 109.617 159.514 138.235 
110.789 160.734 138.34 119.341 162.191 138.127 120.709 163.937 138.485 
121.205 163.565 138.72 120.239 165.037 138.616 120.891 165.137 138.663 
121.625 165.26 138.802 116 167.009 137.017 116 167.009 137.017 
116 167.009 137.017 116 167.009 137.017 119.485 165.145 138.877 
120.086 165.701 139.225 116 167.009 137.017 122.261 166.347 139.153 
122.666 166.325 139.185 109.564 155.494 139.223 109.495 157.517 138.389 
108.252 158.478 139.271 108.772 158.915 138.77 108.658 158.964 138.879 
109.08 159.33 138.864 109.975 160.066 138.442 110.437 160.528 138.66 
119.715 161.418 138.733 116.703 163.805 139.252 116 167.009 137.017 
118.428 164.748 139.013 125.073 166.594 140.167 121.492 166.784 139.715 
125.411 168.32 140.162 125.692 168.725 140.346 125.976 168.74 140.495 
106.422 154.341 140.512 110.754 154.581 139.949 106.136 155.239 140.4 
106.608 156.328 140.061 107.623 156.433 139.407 106.745 156.94 140.078 
106.818 157.357 140.152 107.544 158.112 139.938 110.421 160.453 139.337 
120.871 161.655 139.447 121.081 162.591 138.993 121.001 166.671 140.171 
122.667 167.354 139.683 123.425 168.264 140.208 124.408 168.904 140.286 
123.82 168.787 140.543 124.698 169.662 140.721 124.785 169.77 140.77 
124.798 169.718 140.73 124.929 169.89 140.88 106.8 152.846 141.245 
105.823 156.394 140.973 107.828 158.421 140.439 106.829 157.724 140.555 
107.021 157.888 140.378 121.094 166.755 140.509 126.853 168.791 141.235 
124.497 169.348 140.645 125.079 169.82 140.775 126.064 170.728 141.352 
128.144 171.441 142.393 126.015 170.907 141.547 127.665 171.685 142.048 
125.925 170.915 141.58 127.841 171.951 142.241 128.028 172.069 142.397 
105.11 151.427 142.438 105.78 150.954 142.857 104.916 151.935 142.137 
103.845 151.92 142.447 104.118 153.061 141.951 103.185 153.123 142.507 
103.801 154.163 142.209 104.184 155.219 142.577 106.598 157.378 141.264 
108.712 158.836 140.921 127.52 169.472 141.945 124.799 170.057 141.803 
128.342 171.636 142.733 126.132 171.105 141.914 126.725 171.537 142.197 
128.484 172.165 142.938 128.413 172.377 142.768 128.421 172.554 142.806 
128.478 172.552 142.842 128.391 172.725 142.987 128.473 172.622 142.886 
114.526 154.276 142.143 102.267 153.443 143.495 127.821 172.627 142.969 
128.512 172.562 142.992 128.484 173.032 143.352 128.574 173.152 143.59 
102.671 149.106 144.449 101.968 149.074 144.574 104.014 149.014 144.609 
101.405 150.129 144.233 102.668 150.355 143.679 103.371 150.361 143.542 
101.547 152.373 143.939 101.353 152.835 144.216 101.481 152.947 144.137 
101.661 153.185 144.174 102.055 153.517 143.915 103.017 154.446 143.722 
125.509 164.098 142.787 127.532 168.005 143.169 128.657 172.243 143.583 
127.8 173.207 144.343 128.247 173.28 143.651 128.144 173.358 143.834 
128.102 173.641 144.91 128.446 173.764 144.295 128.593 173.665 144.262 
128.567 173.88 144.431 128.514 173.944 144.502 128.501 174.003 144.644 
99.0272 148.497 146.084 98.8899 148.862 146.199 99.1565 149.956 146.14 
99.9117 150.275 145.367 100.389 151.791 145.703 101.389 152.949 145.22 
102.393 153.878 144.944 128.273 169.45 145.405 126.763 172.102 144.943 
128.72 172.554 144.587 128.215 173.806 145.138 128.248 173.771 145.312 
128.284 173.886 145.157 128.581 173.978 144.615 128.639 173.908 144.652 
128.403 173.98 144.945 128.519 174.007 144.818 100.01 145.559 147.087 
99.8172 145.521 147.158 98.0205 148.69 147.252 98.3327 149.137 146.883 
98.1343 149.014 147.08 98.181 149.132 147.06 98.2547 149.277 147.151 
100.849 152.188 146.38 99.6686 151.179 146.674 103.118 153.995 145.882 
128.105 173.542 145.512 128.659 173.684 144.868 128.354 173.913 145.14 
128.23 173.547 145.621 128.377 173.782 145.319 128.604 173.974 144.765 
128.467 173.93 145.065 128.572 173.922 144.944 97.1272 144.366 148.307 
100.098 144.974 147.672 97.2374 147.784 148.231 127.65 172.675 146.342 
127.904 172.912 146.298 128.093 173.181 146.064 128.387 173.553 145.541 
97.6057 141.906 149.454 97.5024 143.062 148.697 96.5804 142.972 148.977 
96.1602 143.495 149.036 95.9178 144.608 149.191 96.3874 145.227 148.738 
97.2184 147.776 148.453 98.2963 149.395 147.82 125.739 161.805 147.721 
127.795 168.092 147.632 126.96 171.202 147.81 127.682 172.372 146.821 
128.084 172.239 146.769 128.092 172.898 146.356 96.7315 139.232 151.091 
97.2135 140.188 150.582 97.4473 139.855 150.942 96.038 141.608 149.716 
95.6196 142.041 149.729 95.7566 143.45 149.38 95.3254 144.35 150.103 
96.2644 146.651 150.156 99.1247 150.161 148.547 117.136 151.133 149.195 
126.597 163.674 148.622 127.165 171.338 147.852 127.848 172.198 147.034 
127.917 172.548 146.784 128.008 172.715 146.635 94.8869 139.101 151.043 
94.5119 139.598 150.959 94.281 139.779 151.049 95.1208 140.912 150.29 
94.2189 141.33 150.946 94.3045 141.948 150.904 94.5838 143.373 151.221 
95.0599 144.344 150.865 112.271 148.637 149.266 98.5515 149.115 149.913 
114.982 157.365 150.075 127.045 165.476 149.528 127.306 170.929 148.385 
128.002 172.623 146.731 95.2158 135.673 152.422 95.1936 135.635 152.404 
95.1836 135.675 152.414 95.1952 135.62 152.447 95.2334 135.828 152.448 
95.0936 135.679 152.487 95.2533 135.669 152.532 95.0257 136.13 152.372 
94.8089 135.324 152.84 95.3728 136.164 152.431 95.4702 135.884 152.66 
95.4729 136.678 152.26 94.4247 137.435 151.842 94.9404 137.381 151.843 
93.7887 138.217 151.76 96.7547 138.476 151.713 93.473 140.922 151.858 
93.1908 140.51 152.289 123.934 157.246 150.85 127.383 168.469 149.396 
127.215 170.585 148.8 93.018 133.622 153.672 95.163 135.622 152.439 
94.2173 134.438 153.302 95.131 135.561 152.567 95.2548 135.516 152.802 
95.5596 135.598 153.044 92.9122 136.89 152.591 97.1673 137.649 152.803 
92.6691 139.096 152.74 98.531 138.991 152.687 99.3248 148.78 151.695 
125.205 167.633 151.083 127.069 169.162 149.787 127.226 170.389 148.989 
93.2401 130.907 154.961 92.9657 131.026 154.86 94.2391 133.401 153.963 
92.0333 133.815 153.924 91.281 135.432 154.35 95.8249 135.387 153.572 
91.6494 136.753 153.894 92.012 136.996 153.392 92.3202 139.631 153.961 
92.6413 140.181 153.599 120.666 152.155 152.383 124.335 166.162 152.638 
126.529 168.467 150.731 127.18 169.995 149.302 93.4843 130.436 155.491 
91.1308 131.276 155.175 92.109 131.454 154.718 93.6795 131.208 154.955 
93.8378 131.477 154.91 90.9168 132.614 155.024 90.8847 135.045 154.878 
91.2679 136.933 155.058 92.0735 139.208 154.427 92.2889 139.691 154.391 
116.578 147.917 154.335 126.152 164.824 153.19 126.124 166.002 152.772 
125.723 166.837 152.412 90.3129 130.485 155.992 90.37 132.706 155.72 
90.6404 134.914 155.837 93.2586 141.017 155.483 122.759 164.245 154.646 
124.882 166.051 153.414 90.1199 126.775 157.208 90.8082 127.282 156.782 
92.5462 127.448 157.217 89.7134 128.208 157.024 89.3799 130.64 157.388 
91.452 137.872 155.699 125.238 165.551 154.244 125.531 166.058 153.547 
90.5068 125.273 157.885 89.2376 127.292 157.76 94.1053 129.225 157.31 
89.8734 133.005 157.528 100.653 138.232 156.078 125.223 162.378 156.937 
123.729 164.005 156.979 124.406 164.169 156.354 125.022 164.769 155.117 
125.38 165.341 154.399 125.369 165.53 154.292 125.401 165.621 154.184 
89.0561 123.379 159.239 89.907 123.999 158.67 90.537 123.007 159.392 
89.0279 124.104 158.922 89.7736 124.502 158.402 88.5589 124.679 159.079 
88.6047 125.219 158.919 88.9211 129.374 158.656 93.5029 140.303 157.578 
115.281 155.202 158.421 124.88 158.388 158.299 125.012 162.396 157.719 
124.841 162.975 157.615 124.11 163.713 157.72 125.419 165.54 154.263 
88.8272 121.598 160.14 89.192 122.545 159.618 87.8928 122.447 160.43 
88.2938 124.228 159.511 88.3376 125.783 159.361 88.3563 126.492 159.559 
88.8175 129.322 159.273 90.6828 134.759 159.313 91.8645 136.955 159.018 
105.96 147.366 158.998 118.457 147.433 158.084 124.673 157.549 158.823 
123.248 163.441 159.343 89.6107 118.025 161.934 89.7984 118.019 162.046 
88.9623 118.953 161.312 87.4909 120.144 161.467 88.0372 119.654 161.219 
87.5602 122.876 160.782 87.5926 123.457 160.564 87.751 124.228 160.537 
88.0334 125.782 160.369 98.797 133.872 159.323 106.775 147.302 159.799 
88.6228 117.199 162.325 87.911 117.447 162.271 87.7775 117.82 162.132 
87.3986 118.566 162.069 88.5314 118.995 161.322 87.282 122.293 161.292 
87.8966 125.698 161.289 108.977 147.655 161.477 123.806 154.661 160.287 
120.529 161.715 161.535 87.8455 116.131 163.071 87.4431 115.898 163.289 
88.7249 116.285 163.034 87.0053 116.364 163.246 86.7555 116.508 163.377 
86.6991 118.465 162.851 121.006 162.038 161.868 121.915 162.506 161.85 
86.5558 116.095 163.777 86.2413 116.207 164.181 87.0012 115.371 163.814 
86.4332 117.618 163.395 86.4112 120.217 163.524 86.8174 122.029 163.198 
87.3845 124.012 163.284 120.257 147.651 162.278 120.823 148.269 162.564 
119.514 160.934 163.543 121.854 162.343 162.933 123.665 162.605 161.957 
87.7616 113.069 165.694 88.8519 113.713 165.521 89.593 114.72 165.076 
87.143 114.91 164.077 85.7659 116.317 165.025 90.1598 130.163 164.318 
86.5983 113.345 165.639 86.3225 113.108 166.06 86.9446 112.656 166.2 
85.9617 113.658 165.966 85.7737 113.728 166.218 85.8799 114.626 165.539 
85.6133 116.805 165.521 96.9377 126.384 165.055 118.465 160.163 165.59 
123.588 161.272 164.553 122.323 162.108 164.807 122.614 162.127 164.535 
[...]
POINT_DATA 1564
SCALARS scalars float
LOOKUP_TABLE default
1 1 1 1 1 1 1 1 1 
1 1 1 1 1 1 1 1 1 
1 1 1 1 1 1 1 1 1 
1 1 1 1 1 1 1 1 1 
1 1 1 1 1 1 1 1 1 
1 1 1 1 1 1 1 1 1 
1 1 1 1 1 1 1 1 1 
1 1 1 1 1 1 1 1 1 
1 1 1 1 1 1 1 1 1 
1 1 1 1 1 1 1 1 1 
1 1 1 1 1 1 1 1 1 
1 1 1 1 1 1 1 1 1 
1 1 1 1 1 1 1 1 1 
1 1 1 1 1 1 1 1 1 
1 1 1 1 1 1 1 1 1 
1 1 1 1 1 1 1 1 1 
1 1 1 1 1 1 1 1 1 
1 1 1 1 1 1 1 1 1 
1 1 1 1 1 1 1 1 1 
1 1 1 1 1 1 1 1 1 
1 1 1 1 1 1 1 1 1 
1 1 1 1 1 1 1 1 1 
1 1 1 1 1 1 1 1 1 
1 1 1 1 1 1 1 1 1 
1 1 1 1 1 1 1 1 1 
1 1 1 1 1 1 1 1 1 
1 1 1 1 1 1 1 1 1 
1 1 1 1 1 1 1 1 1 
1 1 1 1 1 1 1 1 1 
1 1 1 1 1 1 1 1 1 
1 1 1 1 1 1 1 1 1 
1 1 1 1 1 1 1 1 1 
1 1 1 1 1 1 1 1 1 
1 1 1 1 1 1 1 1 1 
1 1 1 1 1 1 1 1 1 
1 1 1 1 1 1 1 1 1 
1 1 1 1 1 1 1 1 1 
1 1 1 1 1 1 1 1 1 
1 1 1 1 1 1 1 1 1 
1 1 1 1 1 1 1 1 1 
1 1 1 1 1 1 1 1 1 
1 1 1 1 1 1 1 1 1 
1 1 1 1 1 1 1 1 1 
1 1 1 1 1 1 1 1 1 
1 1 1 1 1 1 1 1 1 
1 1 1 1 1 1 1 1 1 
1 1 1 1 1 1 1 1 1 
1 1 1 1 1 1 1 1 1 
1 1 1 1 1 1 1 1 1 
1 1 1 1 1 1 1 1 1 
1 1 1 1 1 1 1 1 1 
1 1 1 1 1 1 1 1 1 
1 1 1 1 1 1 1 1 1 
1 1 1 1 1 1 1 1 1 
1 1 1 1 1 1 1 1 1 
1 1 1 1 1 1 1 1 1 
1 1 1 1 1 1 1 1 1 
1 1 1 1 1 1 1 1 1 
1 1 1 1 1 1 1 1 1 
1 1 1 1 1 1 1 1 1 
1 1 1 1 1 1 1 1 1 
1 1 1 1 1 1 1 1 1 
1 1 1 1 1 1 1 1 1 
1 1 1 1 1 1 1 1 1 
1 1 1 1 1 1 1 1 1 
1 1 1 1 1 1 1 1 1 
1 1 1 1 1 1 1 1 1 
1 1 1 1 1 1 1 1 1 
1 1 1 1 1 1 1 1 1 
1 1 1 1 1 1 1 1 1 
1 1 1 1 1 1 1 1 1 
1 1 1 1 1 1 1 1 1 
1 1 1 1 1 1 1 1 1 
1 1 1 1 1 1 1 1 1 
1 1 1 1 1 1 1 1 1 
1 1 1 1 1 1 1 1 1 
1 1 1 1 1 1 1 1 1 
1 1 1 1 1 1 1 1 1 
1 1 1 1 1 1 1 1 1 
1 1 1 1 1 1 1 1 1 
1 1 1 1 1 1 1 1 1 
1 1 1 1 1 1 1 1 1 
1 1 1 1 1 1 1 1 1 
1 1 1 1 1 1 1 1 1 
1 1 1 1 1 1 1 1 1 
1 1 1 1 1 1 1 1 1 
1 1 1 1 1 1 1 1 1 
1 1 1 1 1 1 1 1 1 
1 1 1 1 1 1 1 1 1 
1 1 1 1 1 1 1 1 1 
1 1 1 1 1 1 1 1 1 
1 1 1 1 1 1 1 1 1 
1 1 1 1 1 1 1 1 1 
1 1 1 1 1 1 1 1 1 
1 1 1 1 1 1 1 1 1 
1 1 1 1 1 1 1 1 1 
1 1 1 1 1 1 1 1 1 
1 1 1 1 1 1 1 1 1 
1 1 1 1 1 1 1 1 1 
1 1 1 1 1 1 1 1 1 
1 1 1 1 1 1 1 1 1 
1 1 1 1 1 1 1 1 1 
1 1 1 1 1 1 1 1 1 
1 1 1 1 1 1 1 1 1 
1 1 1 1 1 1 1 1 1 
1 1 1 1 1 1 1 1 1 
1 1 1 1 1 1 1 1 1 
1 1 1 1 1 1 1 1 1 
1 1 1 1 1 1 1 1 1 
1 1 1 1 1 1 1 1 1 
1 1 1 1 1 1 1 1 1 
1 1 1 1 1 1 1 1 1 
1 1 1 1 1 1 1 1 1 
1 1 1 1 1 1 1 1 1 
1 1 1 1 1 1 1 1 1 
1 1 1 1 1 1 1 1 1 
1 1 1 1 1 1 1 1 1 
1 1 1 1 1 1 1 1 1 
1 1 1 1 1 1 1 1 1 
1 1 1 1 1 1 1 1 1 
1 1 1 1 1 1 1 1 1 
1 1 1 1 1 1 1 1 1 
1 1 1 1 1 1 1 1 1 
1 1 1 1 1 1 1 1 1 
1 1 1 1 1 1 1 1 1 
1 1 1 1 1 1 1 1 1 
1 1 1 1 1 1 1 1 1 
1 1 1 1 1 1 1 1 1 
1 1 1 1 1 1 1 1 1 
1 1 1 1 1 1 1 1 1 
1 1 1 1 1 1 1 1 1 
1 1 1 1 1 1 1 1 1 
1 1 1 1 1 1 1 1 1 
1 1 1 1 1 1 1 1 1 
1 1 1 1 1 1 1 1 1 
1 1 1 1 1 1 1 1 1 
1 1 1 1 1 1 1 1 1 
1 1 1 1 1 1 1 1 1 
1 1 1 1 1 1 1 1 1 
1 1 1 1 1 1 1 1 1 
1 1 1 1 1 1 1 1 1 
1 1 1 1 1 1 1 1 1 
1 1 1 1 1 1 1 1 1 
1 1 1 1 1 1 1 1 1 
1 1 1 1 1 1 1 1 1 
1 1 1 1 1 1 1 1 1 
1 1 1 1 1 1 1 1 1 
1 1 1 1 1 1 1 1 1 
1 1 1 1 1 1 1 1 1 
1 1 1 1 1 1 1 1 1 
1 1 1 1 1 1 1 1 1 
1 1 1 1 1 1 1 1 1 
1 1 1 1 1 1 1 1 1 
1 1 1 1 1 1 1 1 1 
1 1 1 1 1 1 1 1 1 
1 1 1 1 1 1 1 1 1 
1 1 1 1 1 1 1 1 1 
1 1 1 1 1 1 1 1 1 
1 1 1 1 1 1 1 1 1 
1 1 1 1 1 1 1 1 1 
1 1 1 1 1 1 1 1 1 
1 1 1 1 1 1 1 1 1 
1 1 1 1 1 1 1 1 1 
1 1 1 1 1 1 1 1 1 
1 1 1 1 1 1 1 1 1 
1 1 1 1 1 1 1 1 1 
1 1 1 1 1 1 1 1 1 
1 1 1 1 1 1 1 1 1 
1 1 1 1 1 1 1 1 1 
1 1 1 1 1 1 1 1 1 
1 1 1 1 1 1 1 1 1 
1 1 1 1 1 1 1 1 1 
1 1 1 1 1 1 1 1 1 
1 1 1 1 1 1 1 
NORMALS Normals float
0.125337 -0.132366 -0.983245 0.0117209 -0.00679196 -0.999908 0.223486 -0.447194 -0.866067 
-0.0793811 -0.15025 -0.985456 -0.351002 0.1668 -0.921399 -0.24029 0.198489 -0.950191 
0.054246 0.147397 -0.987589 0.0409789 0.181535 -0.98253 0.306676 -0.328677 -0.893264 
-0.484156 0.620402 -0.617004 -0.396815 0.633444 -0.664294 -0.132032 0.320894 -0.937867 
-0.382908 0.807648 -0.448425 0.084988 0.218872 -0.972045 0.397563 -0.18817 -0.898073 
-0.271425 0.661035 -0.699543 -0.210084 0.657496 -0.723577 -0.146988 0.482946 -0.863225 
-0.252075 0.71999 -0.646585 0.130054 -0.506082 -0.852624 -0.145319 -0.395742 -0.906792 
-0.300372 -0.187733 -0.935165 -0.289314 -0.230103 -0.929166 -0.597587 0.0668597 -0.799012 
-0.339081 0.187517 -0.921879 -0.658296 0.373406 -0.653617 -0.535216 0.489426 -0.688481 
-0.517784 0.836303 -0.18027 0.366647 -0.175807 -0.913598 0.27059 -0.0226698 -0.962428 
0.383743 -0.108765 -0.917012 -0.1456 0.609408 -0.779373 0.0615396 0.466544 -0.882355 
0.103956 0.393162 -0.913574 0 0.17597 -0.984396 -0.970143 -0.242536 0 
-0.992625 0.121226 0 0.992625 0.121226 0 -0.382343 0.702931 -0.599752 
-0.478745 0.757368 -0.44407 0 0.447214 -0.894427 0.0542124 0.291861 -0.954923 
0.0758823 0.317753 -0.945132 -0.0789865 -0.450663 -0.889193 -0.161639 -0.351865 -0.921989 
-0.768781 0.319045 -0.554243 -0.674771 0.322938 -0.663623 -0.711643 0.639444 -0.290992 
-0.65626 0.674382 -0.338426 -0.656043 0.639204 -0.40128 -0.611335 0.790962 -0.0254608 
0.479649 -0.624071 -0.616824 -0.492355 0.870248 -0.015946 0 0.17597 0.984396 
-0.38819 0.748083 -0.53822 0.641542 -0.258725 -0.72214 -0.438207 0.804045 -0.401853 
0.277799 0.17276 -0.944977 0.39879 0.164423 -0.902182 0.488342 0.11362 -0.865224 
-0.269855 -0.369886 -0.889023 0.10953 -0.605666 -0.788145 -0.573517 -0.0305583 -0.818624 
-0.565121 0.00287302 -0.825003 -0.519239 -0.0353359 -0.853898 -0.718094 0.220924 -0.65995 
-0.772069 0.370057 -0.516688 -0.631472 0.501062 -0.59176 -0.552096 0.822103 0.139058 
0.550746 -0.656491 -0.515459 0.4899 -0.372993 -0.787956 -0.545978 0.824112 -0.150823 
-0.238796 0.595613 -0.766956 -0.271366 0.613051 -0.741976 -0.147207 0.531848 -0.833947 
-0.473566 0.694723 -0.541383 -0.537509 0.59384 -0.598697 -0.484586 0.726701 -0.48691 
-0.0564146 0.47873 -0.876148 -0.285803 0.755055 -0.590092 -0.0447433 -0.600548 -0.798336 
-0.802378 0.439384 -0.403895 -0.60714 0.790891 0.0766243 -0.74693 0.664577 -0.0208309 
-0.671975 0.690465 -0.267782 -0.578909 0.808003 -0.109527 0.735455 -0.162789 -0.657727 
-0.195569 0.434265 -0.879299 -0.0688474 0.519678 -0.851584 0.0537529 0.582764 -0.810862 
0.734426 0.0301835 -0.678018 0.067534 0.806459 -0.587421 0.147944 0.520433 -0.840989 
-0.368575 0.812012 -0.452537 0.283995 0.481017 -0.829439 0.575227 0.266803 -0.77326 
-0.109975 -0.653282 -0.749085 0.094919 -0.708682 -0.699114 -0.115947 -0.468581 -0.875778 
-0.313931 -0.493883 -0.810881 -0.414725 -0.229044 -0.880649 -0.572434 -0.0625539 -0.817562 
-0.666871 0.212187 -0.714325 -0.747472 0.471903 -0.467541 -0.639496 0.76799 0.0351702 
-0.536101 0.800875 0.266825 0.895134 -0.223527 -0.385708 -0.66667 0.744429 -0.0370898 
0.932524 -0.183375 -0.311083 -0.25018 0.884149 -0.394576 -0.449926 0.797501 -0.401944 
0.894828 -0.0802269 -0.439144 0.802644 -0.0457211 -0.594703 0.272713 0.532834 -0.801071 
0.811064 0.171461 -0.559265 0.306084 0.756443 -0.578019 0.663546 0.591087 -0.45861 
0.377826 -0.70729 -0.597485 -0.72934 0.408689 -0.548668 -0.227916 0.75369 -0.616446 
0.950718 0.174668 -0.256175 0.330038 0.709501 -0.622642 0.889659 0.318917 -0.326801 
-0.0935762 -0.630379 -0.770627 -0.067488 -0.607053 -0.791791 0.0994971 -0.733434 -0.67244 
-0.400555 -0.341707 -0.850172 -0.293411 -0.501474 -0.8139 -0.103095 -0.612203 -0.783951 
-0.646178 0.165482 -0.74503 -0.800974 0.454013 -0.390272 -0.562944 0.391984 -0.727628 
-0.676986 0.587184 -0.44374 -0.738992 0.609327 -0.287422 -0.607204 0.793126 -0.0474846 
0.789234 -0.476583 -0.38727 0.884532 -0.369902 -0.28421 0.979168 -0.157686 -0.127923 
-0.712583 0.667008 -0.217546 -0.390778 0.709769 -0.586107 -0.649981 0.605899 -0.458707 
-0.798879 0.599202 -0.0524323 -0.291687 0.80271 -0.520168 0.775789 0.463355 -0.428314 
0.437351 0.685753 -0.581779 -0.041673 0.863487 -0.502646 -0.450948 0.862478 -0.229736 
-0.627132 -0.117009 -0.770074 -0.693541 0.0386961 -0.719377 -0.759443 0.302729 -0.575849 
-0.737405 0.140534 -0.66067 -0.798206 0.568014 -0.200568 -0.649961 0.74852 0.131407 
-0.619416 0.75372 0.219616 0.985112 -0.168632 0.0334375 -0.761079 0.623525 0.178817 
0.993488 -0.110549 0.0275667 -0.830569 0.541293 0.130988 -0.522452 0.727845 0.444167 
-0.637911 0.763261 0.102482 0.573758 0.779133 -0.252497 0.949759 0.310745 -0.037351 
-0.253489 0.955703 0.149585 0.263546 0.951192 0.160551 -0.0198065 -0.636993 -0.770615 
-0.233044 -0.431881 -0.871303 -0.861709 0.134942 -0.48913 -0.757527 0.158277 -0.633326 
-0.924672 0.259356 -0.278775 -0.823253 0.433005 -0.367097 -0.812788 0.554074 -0.179939 
-0.559912 0.78533 0.264112 -0.693091 0.718744 0.055061 -0.463543 0.81685 0.343342 
-0.67472 0.680675 0.285366 0.980845 0.0870653 0.174248 -0.0543588 0.880453 0.471008 
-0.0843455 0.779707 0.620437 0.293811 0.732068 0.614614 0.719667 0.685147 0.112491 
0.331114 0.835719 0.438108 0.771954 0.50187 0.390146 -0.450867 -0.153971 -0.879211 
0.166152 -0.671078 -0.722529 -0.880378 0.400058 -0.254733 -0.700255 0.638946 0.318421 
-0.469252 0.750796 0.464874 -0.0980252 0.765407 0.636038 0.613262 0.514447 0.599378 
0.152837 -0.470128 -0.869265 0.0309008 -0.46347 -0.885574 -0.422983 -0.307095 -0.852513 
-0.499121 -0.186356 -0.846256 -0.756549 0.170619 -0.631287 -0.763771 0.0965137 -0.638231 
-0.86003 0.485851 -0.155872 -0.831606 0.55529 0.00914232 0.857166 -0.510741 -0.0664151 
0.98332 -0.17548 0.0478451 -0.517004 0.709397 0.479023 -0.516906 0.669832 0.53304 
0.870327 0.189016 0.454757 0.561451 0.558658 0.610471 0.357588 -0.549758 -0.754915 
0.461429 -0.476416 -0.748405 0.429837 -0.438034 -0.789535 -0.215443 -0.299605 -0.92942 
-0.414335 -0.193411 -0.889336 -0.740438 -0.0625164 -0.669211 -0.856786 0.291392 -0.425452 
-0.795172 0.595828 0.112652 -0.558048 0.795127 0.237392 0.500489 -0.72794 -0.468629 
0.850603 -0.441225 0.285999 -0.440205 0.723649 0.531555 -0.00863398 0.682594 0.730747 
-0.258049 0.664586 0.701239 -0.1226 0.774654 0.620388 -0.123235 -0.473535 -0.872111 
-0.483641 -0.390007 -0.783573 -0.618347 -0.195577 -0.761181 -0.515257 -0.1671 -0.840588 
-0.825989 0.0584234 -0.56065 -0.779252 0.0340703 -0.625784 -0.922205 0.272441 -0.274432 
-0.870845 0.42768 -0.24232 0.358541 -0.812361 -0.459911 -0.70313 0.684597 0.192188 
-0.560724 0.768844 0.307356 0.925075 -0.234908 0.298419 -0.150238 0.7433 0.651869 
0.467866 0.525182 0.710834 0.757106 -0.123992 -0.641418 0.165111 -0.458149 -0.873406 
-0.33545 0.149675 -0.930092 0.54634 -0.788846 -0.281486 0.371457 -0.0920248 -0.923878 
-0.509549 -0.260277 -0.820132 0.780965 -0.505517 -0.366806 -0.0717389 -0.328866 -0.941648 
-0.0161451 -0.671019 -0.741264 0.62756 -0.266777 -0.731436 0.816088 -0.304992 -0.490897 
0.323481 -0.415909 -0.84993 -0.140181 -0.416891 -0.898082 0.00381479 -0.418092 -0.908397 
-0.37666 -0.236321 -0.895701 0.331202 -0.516555 -0.789605 -0.888916 0.2899 -0.354664 
-0.869071 0.438496 -0.22899 0.80645 -0.521188 -0.279289 0.945971 0.098032 0.309078 
-0.210275 0.713391 0.668474 -0.138845 -0.358926 -0.922981 -0.496001 -0.600749 -0.626964 
0.288441 -0.575704 -0.765092 0.122686 -0.868633 -0.480025 0.538526 -0.753478 -0.377175 
0.706212 -0.532637 -0.466436 -0.376453 -0.369138 -0.849718 0.530349 -0.509243 -0.677792 
-0.849443 0.120816 -0.513663 0.48368 -0.596315 -0.640673 -0.542859 0.736017 0.404455 
-0.460769 0.727188 0.508812 0.859878 0.232842 0.454306 0.248362 0.646644 0.721227 
0.193871 -0.502167 -0.842759 0.0641444 -0.58581 -0.807906 0.432167 -0.462751 -0.774011 
-0.560456 -0.157303 -0.813108 -0.863914 0.148184 -0.481346 0.602905 -0.614123 -0.509273 
-0.842683 0.0624858 -0.534772 -0.765041 -0.026906 -0.643419 -0.888454 0.416784 -0.192198 
-0.86682 0.458344 -0.196325 0.63943 -0.707711 -0.300458 -0.290658 0.795722 0.531362 
0.168186 0.667467 0.725397 0.287443 0.569958 0.769756 0.372956 -0.694502 -0.615281 
-0.532659 -0.259999 -0.805403 -0.246654 -0.394221 -0.885297 0.454563 -0.478188 -0.751471 
0.562233 -0.456991 -0.689242 -0.61532 -0.183255 -0.76668 -0.870624 0.138104 -0.472166 
-0.928064 0.242642 -0.282528 -0.933625 0.341729 -0.107542 -0.864285 0.502993 0.00303553 
0.688043 -0.632543 -0.35565 0.893663 0.158454 0.419832 0.731751 0.359503 0.57905 
0.0868305 0.785481 0.612764 -0.610216 -0.218233 -0.761585 -0.853961 0.026453 -0.519664 
-0.942881 0.316104 -0.105135 -0.830709 0.551782 0.0738879 -0.493189 0.805855 0.327663 
-0.228317 0.838176 0.495311 -0.424613 -0.332904 -0.841949 -0.250388 -0.366237 -0.896201 
0.480828 -0.533649 -0.695717 -0.712161 -0.140331 -0.687847 -0.967202 0.166575 -0.191762 
-0.92465 0.38064 -0.0116133 -0.116941 0.744214 0.657625 0.402093 0.694915 0.596166 
-0.0495843 -0.460324 -0.886365 -0.825841 -0.0895202 -0.556752 0.508576 -0.65049 -0.564104 
-0.968349 0.237721 -0.0760853 0.482507 -0.726299 -0.489568 0.924666 0.258928 0.279195 
0.0347156 0.922966 0.383314 0.645106 0.633236 0.42761 0.439948 0.624683 0.645149 
0.483492 0.43434 0.75999 0.0675417 0.634999 0.769554 0.127543 0.772772 0.621737 
-0.383491 -0.451262 -0.805789 -0.0587642 -0.487461 -0.871165 0.138412 -0.492729 -0.859104 
-0.485729 -0.30291 -0.819947 -0.117466 -0.38862 -0.91388 -0.673512 -0.276302 -0.685594 
-0.755618 -0.0552262 -0.65268 -0.952357 0.0345344 -0.303023 -0.692182 0.608225 0.388519 
-0.808804 0.58734 0.0294549 0.980675 -0.180162 0.0762724 0.885001 0.284569 0.368501 
0.784212 0.449691 0.427538 0.439961 0.789125 0.428622 0.6093 0.498713 0.616473 
-0.301543 -0.383657 -0.872857 -0.41185 -0.387987 -0.824527 -0.662571 -0.279949 -0.694714 
-0.775039 -0.127121 -0.618994 -0.901431 -0.0698178 -0.427256 -0.919858 0.154387 -0.360591 
-0.970439 0.218488 -0.102523 -0.917991 0.362278 0.161391 -0.845309 0.464315 0.264319 
-0.470733 0.761671 0.445274 0.627715 -0.696863 -0.346924 0.988071 -0.148842 0.0395272 
-0.253744 0.948372 0.190277 0.23918 -0.516033 -0.822498 0.497864 -0.574428 -0.649741 
0.0141463 -0.401926 -0.915563 -0.788041 -0.108179 -0.606043 -0.443137 -0.283231 -0.850535 
-0.95124 0.0645095 -0.301629 -0.960751 0.0620297 -0.270388 -0.97464 0.142934 -0.172184 
-0.959001 -0.177553 -0.220889 0.623494 -0.522427 -0.581657 -0.430459 0.812691 0.392731 
0.0308775 -0.551327 -0.833717 -0.331582 -0.479003 -0.812779 -0.416448 -0.418034 -0.807353 
-0.569767 -0.306043 -0.762695 -0.225446 -0.383747 -0.895496 -0.853263 -0.131632 -0.504594 
-0.990784 0.109276 -0.0800368 -0.575576 0.727603 0.373238 0.896367 -0.424511 -0.127738 
-0.618693 0.781738 0.0781346 -0.103622 -0.352834 -0.929931 -0.391931 -0.504516 -0.76932 
0.0731934 -0.533864 -0.842397 -0.451886 -0.285482 -0.845162 -0.667458 -0.333574 -0.665754 
-0.735685 -0.214383 -0.642502 -0.55082 0.829285 0.0942516 -0.320619 0.943137 0.0877287 
-0.679852 -0.439158 -0.587318 -0.842492 -0.226169 -0.488933 -0.536941 -0.476265 -0.696324 
-0.8172 -0.112723 -0.565224 -0.976139 0.210578 -0.0530004 -0.969821 0.169718 -0.175054 
-0.963131 0.251123 0.0965227 0.842608 -0.473815 -0.255951 0.88215 -0.459283 -0.104263 
-0.679376 0.726223 -0.105109 -0.323384 0.924757 0.200617 0.36567 0.887933 0.279036 
0.147765 -0.718519 -0.679629 0.362166 -0.720865 -0.590923 0.610698 -0.572129 -0.547464 
-0.255792 -0.617425 -0.74388 -0.88939 -0.247445 -0.38439 -0.812315 0.45631 0.363215 
-0.443735 -0.557451 -0.701674 -0.709917 -0.476587 -0.518539 -0.209554 -0.749815 -0.627586 
-0.682233 -0.435441 -0.587324 -0.921692 -0.27299 -0.275607 -0.916728 -0.176377 -0.35847 
-0.965969 -0.00776523 -0.25854 0.646397 -0.59138 -0.482121 -0.749039 0.639467 -0.17327 
0.893183 0.371838 0.252904 -0.22436 0.962974 0.149476 0.337221 0.907837 0.249229 
-0.717018 -0.546856 -0.432242 -0.354404 -0.815101 -0.458267 -0.637225 0.730116 0.246727 
-0.629469 0.77657 -0.0266054 -0.374191 0.926852 0.0304305 0.703665 0.652664 0.280867 
-0.181935 -0.827715 -0.530837 0.553123 -0.779553 -0.293858 0.719538 -0.692631 -0.0502779 
-0.805569 0.589199 0.0624761 0.955423 -0.275788 0.105393 0.974015 -0.171197 0.148277 
0.956706 0.180668 0.228193 -0.207857 0.971956 0.109982 0.163972 0.961536 0.220367 
0.0571107 -0.853099 -0.518613 -0.920721 -0.281759 -0.269973 -0.500529 -0.705326 -0.501983 
-0.847362 0.519333 0.110779 0.686612 0.654946 0.315609 -0.533446 -0.753116 -0.385035 
0.646493 -0.628847 -0.431971 -0.385402 -0.800732 -0.458579 -0.593538 0.758965 0.267738 
0.766307 0.542347 0.344432 0.446279 0.857398 0.256326 -0.83236 0.542031 0.115668 
0.901241 0.261894 0.345218 -0.607761 0.79042 -0.0765688 0.725006 0.603926 0.331119 
0.482417 0.838959 0.251838 0.246589 -0.827964 -0.503656 -0.555066 -0.699454 -0.450184 
-0.945103 -0.29547 -0.139562 -0.205389 -0.869079 -0.45002 -0.242224 -0.855075 -0.458447 
-0.882036 -0.382795 -0.274738 -0.988366 -0.0841163 -0.126714 -0.982961 0.183427 0.0119161 
0.544813 -0.834333 -0.0840689 0.708298 -0.67012 -0.22193 0.740268 -0.655591 0.149007 
0.8892 -0.420498 0.180289 -0.858405 0.502405 -0.103581 -0.762034 0.646596 -0.0349087 
0.766682 0.475488 0.431404 -0.0587682 0.993694 0.0954938 0.403193 0.881824 0.244584 
-0.132713 -0.841855 -0.523132 -0.995571 0.0826838 -0.0447458 0.671502 -0.608325 0.423115 
0.714516 -0.687364 0.130378 -0.60388 0.631653 0.486152 0.911174 0.04776 0.409245 
0.691844 0.658756 0.295622 -0.473573 0.880651 0.013512 -0.34489 0.936771 0.0592477 
0.494745 0.80909 0.317177 0.069094 -0.883959 -0.462431 0.215306 -0.882919 -0.41725 
-0.136606 -0.852702 -0.504221 0.479993 -0.799822 -0.360404 -0.973298 -0.164864 -0.15972 
0.804999 -0.571499 -0.159264 0.817667 -0.555584 -0.15082 0.703416 -0.683931 0.193503 
0.760921 -0.621951 0.184868 -0.576752 0.803523 0.147338 0.504146 0.723601 0.471423 
0.0993871 0.953795 0.283546 0.0286244 0.979777 0.198033 0.0337768 -0.80869 -0.587265 
0.557797 -0.751941 -0.35135 -0.989599 0.14279 0.0174704 -0.977886 0.206113 0.035436 
0.852318 -0.503173 -0.142729 0.916955 -0.398666 -0.0161111 0.918228 -0.373893 0.130618 
0.678202 -0.646237 0.349885 -0.519385 0.408663 0.750489 -0.371484 0.233363 0.898633 
-0.571338 0.466773 0.675053 0.561453 -0.780895 0.273814 0.434243 -0.85596 0.280652 
0.672213 -0.669735 0.315572 -0.211268 0.157695 0.964624 0.806918 -0.355904 0.471398 
0.759398 -0.540058 0.362839 0.70591 0.309814 0.636951 0.57894 0.575718 0.577388 
-0.155092 0.929335 0.335086 -0.18792 0.928147 0.321292 0.176525 -0.798661 -0.575308 
-0.109018 -0.768478 -0.630521 0.275239 -0.751874 -0.599107 0.431711 -0.757353 -0.489941 
0.883361 -0.404028 -0.237562 0.835432 -0.497733 0.233055 0.820384 -0.568012 0.0658278 
0.834048 -0.464707 0.29734 0.775648 -0.38591 0.499444 0.656426 -0.211678 0.724084 
0.815763 -0.47085 0.335902 0.537247 -0.334319 0.774336 0.371106 -0.276254 0.886546 
-0.554987 0.43213 0.710811 0.448293 -0.657683 0.605381 0.507942 -0.38184 0.772136 
0.172068 0.0166649 0.984944 0.0442204 -0.0497886 0.99778 0.361263 -0.592918 0.719679 
-0.541029 0.514951 0.664916 0.49643 -0.581136 0.644855 0.592019 -0.552664 0.58658 
0.616295 -0.653404 0.439595 -0.454082 0.510291 0.730352 0.734584 -0.315607 0.600649 
0.779585 -0.40281 0.479575 0.880583 -0.106683 0.461727 -0.944847 0.316433 0.0844669 
-0.795253 0.596922 0.106097 -0.796545 0.599849 0.0754805 -0.673318 0.685897 0.276023 
0.325299 0.615971 0.717468 0.192194 0.723819 0.662682 0.335935 0.659008 0.672946 
-0.607656 0.770801 0.191364 -0.370289 0.91095 0.181814 0.313873 0.801471 0.509046 
0.225565 0.855366 0.466336 -0.271477 0.793632 0.54447 0.0630191 -0.782173 -0.619866 
-0.233666 -0.712168 -0.66198 -0.76462 -0.453454 -0.45797 0.772168 -0.569522 -0.281783 
-0.980252 0.19373 0.0396809 0.815107 -0.402288 0.416851 0.764794 -0.34387 0.544834 
0.793481 -0.35334 0.495519 0.740657 -0.384336 0.551102 0.560177 -0.18878 0.806575 
0.649887 -0.284245 0.704877 0.479459 -0.127337 0.868277 0.481117 0.126003 0.867554 
-0.173547 0.232606 0.956962 -0.208352 0.287287 0.934909 0.238029 -0.121579 0.963619 
-0.170181 0.267009 0.948549 0.252265 -0.0750814 0.964741 0.38137 -0.319892 0.86731 
-0.271107 0.305215 0.912877 0.391541 -0.515095 0.762478 -0.212023 0.205034 0.955514 