# vtk DataFile Version 4.2
vtk output
ASCII
DATASET POLYDATA
POINTS 1824 float
127.052 151.85 134.528 129.938 153.093 134.673 131.943 152.978 135.43 
131.315 153.829 135.021 141.002 154.511 134.015 141.002 154.511 134.015 
141.002 154.511 134.015 141.002 154.511 134.015 120.951 155.785 134.375 
141.002 154.511 134.015 141.002 154.511 134.015 141.002 154.511 134.015 
129.44 155.788 134.369 141.002 154.511 134.015 130.858 157.698 134.705 
132.797 156.7 135.535 133.115 156.464 135.752 132.072 158.358 135.17 
130.466 148.315 135.9 138.101 148.893 137.876 137.956 148.589 137.886 
138.392 149.74 137.978 138.566 150.836 137.944 138.489 152.333 137.592 
138.607 151.657 137.742 138.239 152.759 137.634 138.476 152.988 137.595 
138.642 152.923 137.605 138.617 153.773 137.659 138.68 153.545 137.611 
138.791 153.677 137.681 141.002 154.511 134.015 133.283 154.314 136.323 
138.8 154.129 137.84 138.859 154.691 137.731 138.819 154.334 137.682 
138.885 154.599 137.744 141.002 154.511 134.015 138.897 155.141 137.706 
138.834 155.38 137.746 115.522 156.926 135.299 138.907 155.656 137.733 
133.549 156.528 136.201 115.85 159.257 135.227 134.133 158.607 136.614 
125.575 160.492 134.572 116.379 161.359 135.39 116.743 161.763 135.434 
137.413 147.114 138.162 137.381 147.603 138.073 137.575 147.068 138.189 
137.959 147.603 138.258 124.163 147.868 135.815 137.814 149.388 137.791 
137.59 149.657 137.859 132.931 150.517 136.822 138.834 153.305 137.892 
138.722 154.616 137.856 138.453 154.775 137.821 138.852 154.221 137.759 
138.936 154.49 138.246 138.675 155.219 137.806 138.871 154.87 137.858 
138.979 155.388 137.942 138.883 158.805 138.193 138.942 158.837 138.199 
138.903 158.961 138.253 138.97 158.743 138.244 113.96 162.481 136.098 
138.955 158.922 138.253 117.601 163.21 135.806 123.289 164.268 135.879 
127.188 165.632 136.417 132.381 144.357 137.761 137 145.888 138.473 
136.7 146.605 138.364 137.357 150.887 138.044 138.574 158.369 138.201 
138.355 158.796 138.41 139.006 158.137 138.395 138.832 159.088 138.399 
138.925 159.016 138.322 108.131 163.313 138.431 111.444 163.501 136.996 
113.11 164.244 136.933 111.164 164.476 137.683 116.482 165.199 136.868 
122.558 165.497 136.508 113.423 165.247 137.548 125.113 166.396 136.869 
135.34 165.77 137.835 122.22 166.754 137.301 136.689 144.023 139.211 
137.189 144.088 139.533 136.428 146.93 138.411 133.405 147.464 137.705 
138.337 147.593 138.974 112.704 150.372 137.446 137.03 150.224 138.238 
107.722 156.224 137.976 106.551 160.907 138.638 138.598 159.189 138.527 
138.144 159.662 138.736 138.552 159.681 138.999 138.789 159.209 138.674 
138.9 159.059 138.452 106.809 162.308 138.884 135.754 161.265 137.679 
108.346 164.05 138.882 110.234 164.964 138.713 111.282 165.209 138.45 
114.04 165.719 137.809 116.917 166.546 137.938 113.717 166.208 138.716 
120.28 167.44 138.209 127.167 168.849 138.294 136.639 141.497 140.428 
136.797 141.7 140.432 135.994 143.28 139.228 137.002 142.345 140.446 
135.705 145.502 138.566 137.621 144.532 139.827 137.794 144.537 140.382 
138.235 160.588 139.257 105.757 162.285 140.024 137.541 161.877 138.938 
106.426 163.353 140.352 107.767 164.161 139.771 109.434 165.043 139.513 
115.123 166.796 139.425 124.546 169.331 139.235 123.407 169.089 139.396 
124.175 169.655 139.805 123.993 169.629 139.93 136.9 169.824 140.027 
125.945 170.309 140.042 131.09 171.653 139.804 137.367 169.957 140.601 
137.347 171.557 140.846 137.437 171.578 140.891 137.405 171.374 140.883 
137.47 171.546 140.916 137.356 171.673 140.977 137.459 171.605 140.935 
135.178 138.663 140.875 136.886 141.34 140.98 135.333 146.55 138.543 
138.346 146.779 139.996 107.13 149.641 139.863 135.302 156.387 138.936 
104.502 158.369 139.684 138.884 159.18 140.291 136.375 159.682 138.415 
137.271 160.706 138.651 106.687 163.681 140.429 106.87 163.824 140.47 
107.22 163.993 140.539 138.204 164.895 140.876 106.7 163.735 140.558 
113.248 166.276 140.044 122.095 168.966 140.555 133.365 170.679 139.121 
122.817 169.163 139.973 135.546 171.401 140.048 136.689 170.88 140.282 
137.195 170.77 140.647 129.08 172.36 141.115 136.785 171.487 140.624 
137.515 171.078 141.233 137.459 171.521 141.033 125.997 171.039 141.168 
131.808 173.124 140.999 137.036 171.926 141.07 137.38 171.701 141.362 
135.156 173.42 141.454 136.264 172.684 141.24 136.902 172.616 141.72 
123.55 137.459 140.919 132.023 137.188 141.001 137.206 141.091 142.225 
138.094 145.128 141.402 135.028 147.826 138.72 134.893 148.35 138.793 
135.438 149.158 139.074 135.888 149.978 139.058 135.644 150.145 139.201 
138.706 148.646 140.549 136.253 154.536 139.313 135.388 155.062 139.331 
135.36 155.599 139.285 135.377 155.711 139.311 135.384 155.815 139.268 
135.668 156.743 139.17 136.948 158.163 138.816 136.554 159.132 138.614 
136.97 158.955 138.705 107.644 164.108 141.177 138.322 166.187 141.686 
123.243 169.563 141.644 137.384 171.969 141.924 137.136 172.483 142.012 
134.012 135.749 142.499 135.229 136.502 142.518 137.616 142.69 143.071 
135.152 148.227 138.848 135.013 149.411 139.126 135.371 149.765 139.218 
135.089 153.036 139.265 135.241 153.461 139.344 135.851 154.112 139.486 
135.526 154.659 139.468 135.536 154.951 139.469 136.126 155.258 139.399 
135.427 155.669 139.332 135.812 156.217 139.392 101.713 157.459 141.875 
135.788 156.742 139.248 136.099 157.11 139.164 102.118 159.834 142.61 
102.035 159.934 142.796 102.212 160.105 142.78 102.782 160.687 143.014 
104.845 162.351 142.107 106.236 163.038 142.447 119.544 167.434 142.63 
127.147 172.27 143.036 130.398 174.219 142.803 134.083 173.956 142.158 
132.802 174.386 142.71 136.048 173.811 142.703 134.815 135.073 143.58 
135.744 136.461 143.095 136.651 138.443 143.573 135.164 149.703 139.219 
135.391 151.615 139.377 135.775 155.729 139.447 101.28 159.191 143.675 
104.371 161.853 143.034 137.684 171.295 143.012 137.465 171.981 142.923 
137.032 172.931 142.815 131.416 175.004 143.963 134.25 174.33 143.061 
136.542 173.544 142.728 136.441 173.651 142.925 132.175 174.888 143.909 
133.733 174.544 143.731 136.152 173.788 143.031 135.073 134.921 144.073 
135.896 136.281 143.659 104.925 140.76 144.184 99.3293 157.318 145.293 
99.9723 157.467 144.016 102.292 160.299 144.02 107.522 162.692 144.002 
137.896 169.986 144.222 127.218 172.609 144.458 130.818 174.986 143.954 
136.681 173.338 143.347 131.384 175.2 144.515 136.16 173.718 143.434 
129.769 174.975 144.747 136.361 137.32 144.996 138.336 148.682 144.211 
97.9145 155.956 146.208 98.2459 156.493 146.465 98.7107 156.922 146.302 
99.7493 157.862 145.724 129.007 174.378 145.688 130.198 175.102 144.433 
130.95 175.215 144.582 129.279 174.678 145.548 130.307 175.164 144.603 
132.31 175.014 144.881 129.552 174.855 145.246 131.641 175.228 144.924 
133.807 132.441 146.207 135.182 134.292 145.967 135.833 135.667 145.471 
95.8421 149.175 146.484 95.1095 151.725 147.252 98.0397 156.446 147.063 
99.698 157.759 146.381 126.734 171.947 146.174 136.386 172.445 145.428 
129.393 174.446 146.313 130.344 175.145 144.894 123.975 127.762 147.095 
130.47 129.373 147.274 131.615 130.458 146.812 132.362 130.697 147.227 
94.7825 152.281 148.003 94.846 152.713 148.214 97.2321 155.769 147.916 
100.297 158.018 146.901 135.137 172.506 147.116 131.308 128.702 148.655 
134.577 133.235 146.918 135.039 134.163 147.068 94.477 150.161 147.76 
93.9368 151.49 149.114 94.6581 152.806 149.079 97.1637 155.713 148.287 
97.8642 156.362 148.28 99.7769 157.437 147.893 136.926 168.761 147.792 
133.788 173.235 147.685 129.311 173.776 147.614 117.084 124.932 148.824 
129.214 126.301 149.66 131.811 128.721 149.29 132.759 130.595 148.35 
132.575 130.088 149.219 93.1458 150.346 149.929 94.8894 153.121 149.388 
97.0883 155.546 148.617 134.8 171.584 148.544 132.757 173.066 148.739 
111.144 123.854 150.149 129.651 126.388 149.886 129.994 126.526 150.022 
131.41 127.867 150.229 91.8322 148.222 151.188 98.1104 155.763 149.584 
136.126 167.958 149.897 126.937 170.481 150.176 133.644 171.839 149.47 
129.411 172.498 149.766 124.156 122.318 151.324 130.454 126.516 150.714 
91.397 144.425 150.799 90.807 146.438 151.982 92.4396 149.553 151.286 
93.2934 151.004 151.275 117.507 161.291 151.701 120.159 163.82 149.922 
130.667 172.397 150.293 130.257 172.378 150.283 129.446 124.876 151.731 
132.645 130.714 152.25 90.054 144.606 152.768 90.3198 145.433 152.533 
90.711 144.894 151.636 91.6162 148.292 152.451 92.7374 150.032 152.287 
93.6937 151.275 152.06 131.274 171.55 151.203 125.481 121.043 153.068 
102.161 122.348 153.072 127.957 122.651 153.167 129.07 124.022 152.677 
130.228 125.567 152.154 130.747 126.35 152.5 89.4885 138.03 153.401 
89.1806 142.778 153.763 91.2913 147.603 153.663 97.7979 153.062 153.403 
100.669 154.617 152.94 123.375 119.16 154.061 124.699 119.855 153.903 
131.146 127.273 153.242 91.5851 130.087 153.971 88.8273 140.689 153.905 
89.4607 143.996 154.333 89.9908 145.155 153.978 90.6067 146.247 154.213 
93.0601 149.673 153.949 137.295 152.362 153.567 137.311 155.224 153.659 
133.315 168.003 153.775 132.009 169.193 153.578 131.119 169.688 153.396 
128.893 122.96 154.582 129.015 122.964 154.927 94.1211 123.494 155.377 
87.8595 139.895 155.599 88.0231 140.209 155.251 88.2993 141.593 155.46 
88.3936 142.123 155.388 88.6279 142.458 155.521 89.7758 144.663 154.577 
91.8298 147.68 155.022 91.564 147.544 154.73 94.5192 150.174 154.921 
128.42 169.341 153.73 130.75 168.879 154.473 127.475 121.007 155.445 
128.996 123.084 155.345 87.2597 131.783 156.548 86.8562 132.764 156.986 
87.2985 135.953 156.354 133.775 138.074 155.964 88.0329 140.81 155.674 
87.9577 140.695 156.039 90.284 144.804 156.176 117.166 159.647 155.865 
126.577 167.246 155.944 112.662 114.853 156.281 122.082 116.035 156.822 
124.7 117.358 157.308 86.7062 134.203 157.321 87.7425 139.488 157.517 
89.1723 142.654 157.203 109.339 155.102 157.34 134.736 163.166 156.631 
[...]
POINT_DATA 1824
SCALARS scalars float
LOOKUP_TABLE default
1 1 1 1 1 1 1 1 1 
1 1 1 1 1 1 1 1 1 
1 1 1 1 1 1 1 1 1 
1 1 1 1 1 1 1 1 1 
1 1 1 1 1 1 1 1 1 
1 1 1 1 1 1 1 1 1 
1 1 1 1 1 1 1 1 1 
1 1 1 1 1 1 1 1 1 
1 1 1 1 1 1 1 1 1 
1 1 1 1 1 1 1 1 1 
1 1 1 1 1 1 1 1 1 
1 1 1 1 1 1 1 1 1 
1 1 1 1 1 1 1 1 1 
1 1 1 1 1 1 1 1 1 
1 1 1 1 1 1 1 1 1 
1 1 1 1 1 1 1 1 1 
1 1 1 1 1 1 1 1 1 
1 1 1 1 1 1 1 1 1 
1 1 1 1 1 1 1 1 1 
1 1 1 1 1 1 1 1 1 
1 1 1 1 1 1 1 1 1 
1 1 1 1 1 1 1 1 1 
1 1 1 1 1 1 1 1 1 
1 1 1 1 1 1 1 1 1 
1 1 1 1 1 1 1 1 1 
1 1 1 1 1 1 1 1 1 
1 1 1 1 1 1 1 1 1 
1 1 1 1 1 1 1 1 1 
1 1 1 1 1 1 1 1 1 
1 1 1 1 1 1 1 1 1 
1 1 1 1 1 1 1 1 1 
1 1 1 1 1 1 1 1 1 
1 1 1 1 1 1 1 1 1 
1 1 1 1 1 1 1 1 1 
1 1 1 1 1 1 1 1 1 
1 1 1 1 1 1 1 1 1 
1 1 1 1 1 1 1 1 1 
1 1 1 1 1 1 1 1 1 
1 1 1 1 1 1 1 1 1 
1 1 1 1 1 1 1 1 1 
1 1 1 1 1 1 1 1 1 
1 1 1 1 1 1 1 1 1 
1 1 1 1 1 1 1 1 1 
1 1 1 1 1 1 1 1 1 
1 1 1 1 1 1 1 1 1 
1 1 1 1 1 1 1 1 1 
1 1 1 1 1 1 1 1 1 
1 1 1 1 1 1 1 1 1 
1 1 1 1 1 1 1 1 1 
1 1 1 1 1 1 1 1 1 
1 1 1 1 1 1 1 1 1 
1 1 1 1 1 1 1 1 1 
1 1 1 1 1 1 1 1 1 
1 1 1 1 1 1 1 1 1 
1 1 1 1 1 1 1 1 1 
1 1 1 1 1 1 1 1 1 
1 1 1 1 1 1 1 1 1 
1 1 1 1 1 1 1 1 1 
1 1 1 1 1 1 1 1 1 
1 1 1 1 1 1 1 1 1 
1 1 1 1 1 1 1 1 1 
1 1 1 1 1 1 1 1 1 
1 1 1 1 1 1 1 1 1 
1 1 1 1 1 1 1 1 1 
1 1 1 1 1 1 1 1 1 
1 1 1 1 1 1 1 1 1 
1 1 1 1 1 1 1 1 1 
1 1 1 1 1 1 1 1 1 
1 1 1 1 1 1 1 1 1 
1 1 1 1 1 1 1 1 1 
1 1 1 1 1 1 1 1 1 
1 1 1 1 1 1 1 1 1 
1 1 1 1 1 1 1 1 1 
1 1 1 1 1 1 1 1 1 
1 1 1 1 1 1 1 1 1 
1 1 1 1 1 1 1 1 1 
1 1 1 1 1 1 1 1 1 
1 1 1 1 1 1 1 1 1 
1 1 1 1 1 1 1 1 1 
1 1 1 1 1 1 1 1 1 
1 1 1 1 1 1 1 1 1 
1 1 1 1 1 1 1 1 1 
1 1 1 1 1 1 1 1 1 
1 1 1 1 1 1 1 1 1 
1 1 1 1 1 1 1 1 1 
1 1 1 1 1 1 1 1 1 
1 1 1 1 1 1 1 1 1 
1 1 1 1 1 1 1 1 1 
1 1 1 1 1 1 1 1 1 
1 1 1 1 1 1 1 1 1 
1 1 1 1 1 1 1 1 1 
1 1 1 1 1 1 1 1 1 
1 1 1 1 1 1 1 1 1 
1 1 1 1 1 1 1 1 1 
1 1 1 1 1 1 1 1 1 
1 1 1 1 1 1 1 1 1 
1 1 1 1 1 1 1 1 1 
1 1 1 1 1 1 1 1 1 
1 1 1 1 1 1 1 1 1 
1 1 1 1 1 1 1 1 1 
1 1 1 1 1 1 1 1 1 
1 1 1 1 1 1 1 1 1 
1 1 1 1 1 1 1 1 1 
1 1 1 1 1 1 1 1 1 
1 1 1 1 1 1 1 1 1 
1 1 1 1 1 1 1 1 1 
1 1 1 1 1 1 1 1 1 
1 1 1 1 1 1 1 1 1 
1 1 1 1 1 1 1 1 1 
1 1 1 1 1 1 1 1 1 
1 1 1 1 1 1 1 1 1 
1 1 1 1 1 1 1 1 1 
1 1 1 1 1 1 1 1 1 
1 1 1 1 1 1 1 1 1 
1 1 1 1 1 1 1 1 1 
1 1 1 1 1 1 1 1 1 
1 1 1 1 1 1 1 1 1 
1 1 1 1 1 1 1 1 1 
1 1 1 1 1 1 1 1 1 
1 1 1 1 1 1 1 1 1 
1 1 1 1 1 1 1 1 1 
1 1 1 1 1 1 1 1 1 
1 1 1 1 1 1 1 1 1 
1 1 1 1 1 1 1 1 1 
1 1 1 1 1 1 1 1 1 
1 1 1 1 1 1 1 1 1 
1 1 1 1 1 1 1 1 1 
1 1 1 1 1 1 1 1 1 
1 1 1 1 1 1 1 1 1 
1 1 1 1 1 1 1 1 1 
1 1 1 1 1 1 1 1 1 
1 1 1 1 1 1 1 1 1 
1 1 1 1 1 1 1 1 1 
1 1 1 1 1 1 1 1 1 
1 1 1 1 1 1 1 1 1 
1 1 1 1 1 1 1 1 1 
1 1 1 1 1 1 1 1 1 
1 1 1 1 1 1 1 1 1 
1 1 1 1 1 1 1 1 1 
1 1 1 1 1 1 1 1 1 
1 1 1 1 1 1 1 1 1 
1 1 1 1 1 1 1 1 1 
1 1 1 1 1 1 1 1 1 
1 1 1 1 1 1 1 1 1 
1 1 1 1 1 1 1 1 1 
1 1 1 1 1 1 1 1 1 
1 1 1 1 1 1 1 1 1 
1 1 1 1 1 1 1 1 1 
1 1 1 1 1 1 1 1 1 
1 1 1 1 1 1 1 1 1 
1 1 1 1 1 1 1 1 1 
1 1 1 1 1 1 1 1 1 
1 1 1 1 1 1 1 1 1 
1 1 1 1 1 1 1 1 1 
1 1 1 1 1 1 1 1 1 
1 1 1 1 1 1 1 1 1 
1 1 1 1 1 1 1 1 1 
1 1 1 1 1 1 1 1 1 
1 1 1 1 1 1 1 1 1 
1 1 1 1 1 1 1 1 1 
1 1 1 1 1 1 1 1 1 
1 1 1 1 1 1 1 1 1 
1 1 1 1 1 1 1 1 1 
1 1 1 1 1 1 1 1 1 
1 1 1 1 1 1 1 1 1 
1 1 1 1 1 1 1 1 1 
1 1 1 1 1 1 1 1 1 
1 1 1 1 1 1 1 1 1 
1 1 1 1 1 1 1 1 1 
1 1 1 1 1 1 1 1 1 
1 1 1 1 1 1 1 1 1 
1 1 1 1 1 1 1 1 1 
1 1 1 1 1 1 1 1 1 
1 1 1 1 1 1 1 1 1 
1 1 1 1 1 1 1 1 1 
1 1 1 1 1 1 1 1 1 
1 1 1 1 1 1 1 1 1 
1 1 1 1 1 1 1 1 1 
1 1 1 1 1 1 1 1 1 
1 1 1 1 1 1 1 1 1 
1 1 1 1 1 1 1 1 1 
1 1 1 1 1 1 1 1 1 
1 1 1 1 1 1 1 1 1 
1 1 1 1 1 1 1 1 1 
1 1 1 1 1 1 1 1 1 
1 1 1 1 1 1 1 1 1 
1 1 1 1 1 1 1 1 1 
1 1 1 1 1 1 1 1 1 
1 1 1 1 1 1 1 1 1 
1 1 1 1 1 1 1 1 1 
1 1 1 1 1 1 1 1 1 
1 1 1 1 1 1 1 1 1 
1 1 1 1 1 1 1 1 1 
1 1 1 1 1 1 1 1 1 
1 1 1 1 1 1 1 1 1 
1 1 1 1 1 1 1 1 1 
1 1 1 1 1 1 1 1 1 
1 1 1 1 1 1 1 1 1 
1 1 1 1 1 1 1 1 1 
1 1 1 1 1 1 1 1 1 
1 1 1 1 1 1 1 1 1 
1 1 1 1 1 1 1 1 1 
1 1 1 1 1 1 
NORMALS Normals float
-0.00248706 -0.216792 -0.976215 0.226748 -0.155512 -0.961458 0.540808 -0.162756 -0.82525 
0.41631 -0.0504256 -0.907823 0.392603 -0.273624 -0.878062 -0.123717 -0.9786 -0.164426 
-0.841901 -0.155654 -0.516695 0.689122 -0.621024 0.373418 -0.107339 -0.063213 -0.992211 
-0.341132 0.628178 -0.6993 -0.788513 0.455747 0.412967 0.859115 0.416728 -0.297084 
0.0945708 0.015421 -0.995399 0.0548498 0.990226 0.128236 0.201467 -0.103377 -0.974025 
0.472495 -0.109342 -0.874524 0.434054 -0.118725 -0.893029 0.424238 0.197881 -0.883666 
0.28284 -0.274524 -0.919042 0.582178 -0.199544 -0.788194 0.0140929 -0.185947 -0.982459 
0.896457 -0.162176 -0.412388 0.741317 -0.171599 -0.648848 0.0530999 -0.0817055 -0.995241 
0.786322 -0.140406 -0.601651 -0.380113 0.0903213 -0.92052 -0.30943 0.0966818 -0.945995 
0.408577 -0.0443836 -0.911644 -0.185119 0.220163 -0.957737 0.138069 0.0463805 -0.989336 
0.823188 -0.0628806 -0.564276 -0.483697 -0.54119 0.68786 0.766794 -0.102238 -0.633698 
-0.963249 0.214222 0.162052 -0.994202 0.0390973 -0.10017 -0.368293 0.185997 -0.910915 
0.984542 -0.104995 -0.140188 0.407097 0.212288 0.888373 0.271708 0.0152179 -0.96226 
-0.573058 -0.0319089 -0.818893 -0.155109 -0.0634703 -0.985856 0.0832706 0.0945359 -0.992033 
0.710249 0.0313338 -0.703253 -0.0786201 0.042141 -0.996014 0.717748 -0.035981 -0.695373 
0.0392547 0.209118 -0.977102 -0.179952 0.240902 -0.953721 -0.000818855 0.155542 -0.987829 
-0.0736078 -0.210815 -0.974751 -0.191004 -0.101389 -0.976339 0.363921 -0.322382 -0.87386 
0.768721 -0.347387 -0.53702 -0.0719438 -0.405357 -0.911323 -0.164881 -0.0478234 -0.985153 
-0.399414 -0.0162898 -0.916626 0.626965 -0.149053 -0.764655 0.992794 -0.045307 -0.110941 
0.489846 -0.0198121 -0.871584 -0.233931 0.0805975 -0.968907 0.975443 -0.0290157 0.218332 
0.944072 -0.0972395 -0.315074 -0.185495 -0.0170488 -0.982497 0.551348 -0.506356 -0.663037 
0.992168 -0.0807061 -0.095333 -0.171955 0.215617 -0.961218 0.478553 0.141602 -0.866566 
-0.0741725 0.549073 -0.832476 0.980296 0.0350784 -0.194392 -0.166335 0.31618 -0.934004 
0.864569 0.351167 -0.359448 -0.0933018 0.366079 -0.925895 -0.0490089 0.449882 -0.891742 
0.043615 0.440618 -0.896634 0.27535 -0.228488 -0.933796 0.0403161 -0.286787 -0.957146 
-0.217808 -0.259706 -0.940804 -0.437381 0.0441921 -0.89819 -0.32538 0.14799 -0.933931 
-0.316714 0.213819 -0.924107 0.989978 0.0156095 -0.140358 0.264505 0.854784 -0.446521 
0.575683 0.716316 -0.39431 -0.506971 0.435202 -0.74403 -0.250517 0.282397 -0.926009 
-0.156874 0.512005 -0.844536 -0.30087 0.594588 -0.745615 -0.0774278 0.526488 -0.846649 
-0.172191 0.418159 -0.891904 -0.253238 0.674548 -0.693437 -0.0560675 0.591282 -0.804514 
0.319653 0.227289 -0.91987 0.0595245 0.590749 -0.804657 0.369453 -0.368116 -0.853226 
0.722516 -0.436877 -0.535826 -0.283856 -0.0673362 -0.9565 0.524326 -0.0446832 -0.850345 
0.933128 -0.263928 -0.244161 -0.247362 -0.291292 -0.9241 -0.569954 0.0762848 -0.818128 
-0.423298 -0.100116 -0.900442 -0.546766 0.18718 -0.816095 0.0906488 0.676412 -0.730924 
0.231704 0.293461 -0.927466 0.679922 0.552029 -0.482669 0.605203 0.741923 -0.288581 
0.899224 0.437476 0.00325153 -0.611386 0.473684 -0.633902 0.603447 -0.0037202 -0.797395 
-0.48873 0.664211 -0.565657 -0.469869 0.631502 -0.616789 -0.218287 0.797347 -0.562661 
-0.153708 0.683395 -0.713684 -0.089556 0.732676 -0.674659 -0.284376 0.871744 -0.39899 
-0.257209 0.700734 -0.665444 -0.131748 0.642724 -0.754684 0.610435 -0.55032 -0.569664 
0.716671 -0.357928 -0.598557 0.401784 -0.35646 -0.843508 0.820922 -0.299903 -0.485948 
0.128164 -0.146084 -0.980935 0.863158 -0.324484 -0.38687 0.903152 -0.350455 -0.247986 
0.818018 0.252567 -0.516775 -0.767548 0.502289 -0.398217 0.601872 0.192605 -0.775019 
-0.753996 0.600161 -0.267014 -0.525243 0.821908 -0.220424 -0.458604 0.817239 -0.349003 
-0.241485 0.943877 -0.225346 -0.270487 0.681509 -0.679987 -0.168517 0.74378 -0.646834 
-0.342356 0.839949 -0.421044 -0.396075 0.834828 -0.382344 0.63163 0.212597 -0.745551 
-0.0894405 0.800789 -0.592231 -0.113835 0.561964 -0.819291 0.918678 0.0967274 -0.382981 
0.392905 0.403859 -0.82615 0.488905 0.38235 -0.784079 0.811225 -0.101644 -0.575832 
0.93264 0.011056 -0.360638 0.539501 0.787689 -0.297462 0.80959 0.563839 -0.163244 
0.446902 -0.454529 -0.770507 0.677312 -0.634872 -0.371735 0.124801 0.0710429 -0.989635 
0.958219 -0.285855 0.0101111 -0.377959 -0.32469 -0.86702 0.833392 -0.177502 -0.523403 
-0.605992 0.101131 -0.789016 0.965365 0.25997 -0.0220666 0.368763 -0.135847 -0.919543 
0.467999 0.0803748 -0.880067 -0.52924 0.672969 -0.516738 -0.367199 0.770029 -0.521748 
-0.393664 0.909263 -0.135163 0.970974 0.0806864 -0.225165 -0.638265 0.769816 0.000847555 
-0.303709 0.925859 0.224823 -0.374087 0.922182 -0.0981794 0.137291 0.428322 -0.893136 
-0.29604 0.921333 -0.252002 0.273402 0.489291 -0.828158 0.387241 0.365712 -0.846345 
0.690326 0.161984 -0.705132 -0.31782 0.756751 -0.571243 0.33121 0.44436 -0.832373 
0.970183 0.0623628 -0.234213 0.977586 0.199155 0.0682904 -0.383858 0.881864 -0.273806 
-0.0483364 0.738502 -0.672517 0.482653 0.670631 -0.563294 0.894367 0.425961 -0.136621 
0.243959 0.739532 -0.627357 0.342514 0.604328 -0.719355 0.660001 0.629111 -0.410631 
-0.0134524 -0.551628 -0.833982 0.1212 -0.48362 -0.866846 0.8919 -0.437485 -0.114546 
0.996955 -0.0774013 0.00948326 0.183576 0.180247 -0.966339 0.5215 0.140229 -0.841649 
-0.35934 0.198249 -0.911906 -0.529606 0.134004 -0.837592 -0.333978 0.065116 -0.940329 
0.996397 -0.0846803 -0.00472018 -0.383113 0.0607723 -0.9217 0.773303 -0.045474 -0.632404 
0.827881 0.0193347 -0.56057 0.577742 -0.187026 -0.794503 0.469322 -0.304698 -0.828792 
0.545291 -0.329973 -0.770568 -0.257213 -0.0551026 -0.964782 0.396404 -0.0979759 -0.912833 
0.0019888 -0.108353 -0.99411 -0.350601 0.921845 0.165167 0.912299 0.106858 -0.395338 
-0.37419 0.925519 -0.0582803 0.889283 0.403974 -0.21443 0.838804 0.496473 -0.223433 
0.255309 -0.726617 -0.637844 0.420717 -0.652144 -0.630639 0.965947 -0.250274 -0.0656486 
-0.111463 0.3274 -0.938289 0.35543 0.185415 -0.916128 -0.099756 0.183326 -0.977978 
0.732428 -0.00495253 -0.680826 0.623595 -0.0605976 -0.779395 -0.339455 0.0869252 -0.936597 
0.371825 -0.00935751 -0.928256 0.360647 -0.0451904 -0.931607 -0.386273 0.00120337 -0.922384 
0.432757 -0.121695 -0.893259 0.151781 -0.192934 -0.969401 -0.713904 0.163646 -0.680853 
0.357964 -0.349776 -0.865747 0.104549 -0.322503 -0.940777 -0.654071 0.475629 -0.58819 
-0.768616 0.534187 -0.351956 -0.608975 0.688814 -0.393299 -0.607835 0.76533 -0.211674 
-0.605907 0.794792 0.034381 -0.401911 0.850025 0.340478 -0.466736 0.864637 0.185902 
-0.618503 0.754602 -0.219157 -0.341182 0.791298 -0.507387 0.0790301 0.887939 -0.453121 
0.0876392 0.908548 -0.408486 0.230928 0.952269 -0.199639 0.777325 -0.400122 -0.485457 
0.790118 -0.453384 -0.4125 0.968517 -0.237995 -0.0730338 -0.0423266 0.111068 -0.992911 
0.580612 -0.0200648 -0.813933 0.012813 -0.0494974 -0.998692 -0.7659 0.608653 -0.207218 
-0.479754 0.842927 0.243538 0.967099 0.239793 0.0849635 0.936272 0.348806 0.0415892 
0.848181 0.529691 -0.00409368 0.0974178 0.886794 -0.451781 0.116569 0.946909 -0.299624 
0.592169 0.766042 -0.25003 0.556079 0.830837 0.0220558 0.187869 0.898153 -0.397525 
0.189558 0.968264 -0.16289 0.247588 0.968407 -0.0297883 0.643106 -0.683824 -0.344672 
0.733058 -0.568912 -0.372781 -0.369195 -0.325176 -0.870607 -0.762852 0.620661 -0.181212 
-0.778959 0.481896 -0.401248 -0.555289 0.804004 0.212677 -0.331344 0.821469 0.464111 
0.983499 -0.0168555 0.180127 -0.699644 0.711519 -0.0651095 -0.0586288 0.857682 -0.510828 
0.739485 0.642275 0.201606 0.1268 0.961746 -0.24283 0.364984 0.904138 0.222085 
-0.379201 0.922027 -0.0779327 0.979364 -0.202089 -0.00257375 0.925691 -0.344155 0.157017 
-0.772925 0.505358 -0.383667 -0.604051 0.7899 -0.105736 -0.739791 0.640843 -0.205009 
-0.674065 0.737372 -0.0438057 -0.731576 0.674439 0.0996424 -0.324154 0.911824 -0.251993 
-0.0315505 0.997344 -0.0656498 -0.607271 0.79007 0.0837336 -0.282224 0.958803 -0.0323441 
0.365959 0.919346 0.144492 -0.464236 0.885191 0.0303669 0.146555 0.987475 0.058441 
0.675552 -0.672542 -0.302188 0.917557 -0.397591 -0.00315326 0.929486 -0.360027 -0.0802236 
-0.587176 -0.110087 -0.801938 -0.756935 0.199159 -0.622403 -0.648955 0.745813 -0.150401 
-0.609809 0.789257 0.0721608 -0.610918 0.769659 -0.185484 0.745756 0.548948 0.377496 
-0.163635 0.90447 0.393901 -0.244331 0.948051 0.203719 0.048109 -0.531669 -0.845585 
0.383022 -0.638226 -0.667804 0.493797 -0.762848 -0.417405 0.50581 -0.753199 -0.420532 
-0.846077 0.327458 -0.420624 -0.793863 0.516729 -0.32058 -0.80865 0.580451 -0.0957156 
-0.44844 0.8577 0.251501 0.614083 0.636582 0.466546 0.62909 -0.576412 -0.521531 
0.847735 -0.530182 0.015871 0.934397 -0.308759 0.177679 -0.807447 0.133571 -0.57462 
-0.863818 0.438915 -0.247331 -0.85785 0.489046 -0.157886 -0.750789 0.642716 0.152424 
-0.523604 0.838732 0.149556 -0.344977 0.858362 0.379743 0.790482 0.4335 0.432686 
0.471323 0.765502 0.438021 -0.457592 0.853211 0.25028 0.0319442 -0.560704 -0.8274 
0.350179 -0.663941 -0.660725 0.740264 -0.566674 -0.361787 0.732486 -0.660491 -0.164972 
0.796549 -0.538714 -0.274404 -0.89755 0.33717 -0.284115 -0.757028 0.649474 0.0713559 
-0.776593 0.622129 0.0992872 0.649775 0.546838 0.527978 0.260875 0.814999 0.517417 
-0.169798 -0.430948 -0.886257 0.500617 -0.681037 -0.534389 0.541546 -0.655607 -0.52622 
0.808273 -0.559061 -0.184786 -0.877601 0.414791 -0.240343 -0.478003 0.76659 0.42878 
0.763124 0.386921 0.517624 -0.401918 0.774941 0.487779 0.46547 0.611508 0.63984 
-0.204076 0.850378 0.484985 0.228176 -0.647376 -0.727214 0.662756 -0.674652 -0.32496 
-0.682597 -0.0788283 -0.726532 -0.881124 0.296236 -0.368598 -0.905189 0.349996 -0.241112 
-0.798546 0.601741 -0.0152437 -0.489423 0.801058 0.344631 -0.592733 0.75582 0.278215 
0.0934097 0.840652 0.533459 -0.108523 0.759278 0.641654 0.588756 -0.590962 -0.55148 
0.908001 -0.408544 0.0928733 -0.897269 0.149842 -0.415278 -0.917603 0.329814 -0.221874 
-0.831167 0.067901 -0.551862 -0.835039 0.547144 0.0578182 -0.836641 0.543489 0.0682053 
-0.651227 0.713202 0.259318 0.270764 0.690012 0.671245 0.437539 -0.67968 -0.588723 
-0.250492 -0.46063 -0.851512 0.550879 -0.678833 -0.485508 0.618896 -0.682489 -0.388814 
0.806074 -0.528552 -0.26623 0.842231 -0.496046 -0.211152 -0.750344 -0.0964777 -0.653969 
-0.904945 0.270835 -0.328211 -0.825723 0.555898 0.0957002 -0.386102 0.741951 0.548118 
-0.276091 0.796186 0.538389 0.281905 -0.719765 -0.634404 0.30242 -0.743389 -0.596586 
0.896999 -0.393742 0.200896 -0.502877 -0.209377 -0.838616 -0.848969 0.102268 -0.518453 
-0.901517 0.432743 -0.000490473 -0.908924 0.416904 -0.0068957 -0.859346 0.477583 0.182862 
-0.693986 0.6305 0.34764 0.960434 -0.200918 0.192868 0.970103 0.0741824 0.23108 
0.523137 0.635826 0.567498 0.358286 0.705875 0.611041 -0.0158354 0.774931 0.631847 
0.858736 -0.453695 -0.238188 0.940207 -0.293626 -0.172612 -0.264056 -0.391256 -0.881586 
-0.949222 0.158832 -0.271571 -0.936964 0.139912 -0.320192 -0.954349 0.298271 0.0158993 
-0.93068 0.361193 0.0580911 -0.883062 0.439685 0.163944 -0.908333 0.416382 0.0394622 
-0.700426 0.610602 0.369553 -0.75709 0.561716 0.333602 -0.440471 0.685629 0.579567 
-0.13475 0.863259 0.486443 0.153319 0.794523 0.58756 0.598215 -0.708689 -0.374029 
0.985416 -0.0714581 0.154433 -0.760898 -0.0296004 -0.648196 -0.845899 0.0418715 -0.531698 
-0.770184 -0.0966599 -0.630455 0.950175 -0.192177 0.245431 -0.954011 0.154454 -0.256917 
-0.970727 0.239466 -0.0185832 -0.814578 0.511088 0.274321 -0.5501 0.802163 0.232219 
-0.426661 0.798138 0.425366 -0.00152565 -0.665345 -0.746534 0.331041 -0.749103 -0.573809 
0.602529 -0.665739 -0.440171 -0.789453 0.040559 -0.612469 -0.947533 0.308113 0.0851367 
-0.834701 0.467611 0.290884 -0.311214 0.871632 0.378686 0.815402 0.381749 0.435186 
-0.168397 0.852699 0.494516 0.148439 0.827735 0.541129 0.103174 -0.775751 -0.622548 
0.661954 -0.658178 -0.358635 -0.681238 -0.177148 -0.710305 -0.945767 0.112121 -0.304882 
-0.894092 0.0428892 -0.445826 -0.963342 0.15133 -0.221521 0.973241 -0.0990731 0.20733 
-0.035162 0.817399 0.574998 0.0180322 0.899476 0.436597 -0.289653 -0.685814 -0.667652 
0.595675 -0.612241 -0.519935 0.896382 -0.439642 -0.0566966 -0.962439 0.190843 -0.193108 
-0.860483 0.054475 -0.506559 -0.841653 0.0410137 -0.538458 -0.949956 0.105472 -0.294041 
0.259591 -0.79422 -0.549388 0.798356 -0.448279 -0.402087 0.954422 -0.167332 0.24714 
-0.862569 0.00516902 -0.505913 -0.891303 0.271879 -0.362851 -0.963377 0.11089 -0.244148 
-0.958973 0.283497 -0.000551003 -0.909179 0.38597 0.156273 -0.651576 0.621379 0.435128 
-0.534071 0.826041 0.180066 -0.55838 0.819817 0.126934 0.461472 0.710863 0.53077 
-0.226778 -0.64902 -0.726185 0.616728 -0.711373 -0.337038 0.842075 -0.477122 -0.251523 
-0.649072 -0.215637 -0.729524 -0.951343 0.233304 0.201284 0.816857 0.397632 0.417893 
0.129601 0.877341 0.462035 -0.359054 -0.572801 -0.736871 0.942242 -0.268036 0.200839 
-0.579601 -0.269448 -0.769065 0.893814 -0.178339 0.41145 -0.863842 -0.0245931 -0.503161 
-0.907849 0.418702 -0.0223389 0.0150943 -0.860699 -0.50889 -0.191598 -0.85391 -0.483867 
0.320825 -0.870544 -0.373129 0.912238 -0.409445 0.0132896 -0.87323 0.0725121 -0.481884 
-0.887242 0.0984509 -0.450677 0.883705 -0.159153 0.440154 0.877486 -0.0706687 0.474366 
-0.936459 0.210237 -0.280794 -0.958024 0.286038 0.0193111 -0.283736 0.938388 0.197285 
-0.170131 0.936245 0.307409 0.0940601 0.911075 0.401367 0.446073 -0.814074 -0.37189 
0.783661 -0.619389 -0.0472514 0.881921 -0.423815 0.206387 -0.569313 -0.392404 -0.722428 
-0.745897 -0.183216 -0.640367 -0.943538 0.327438 -0.0502091 0.926826 -0.299177 0.226908 
-0.513239 0.838633 0.182432 0.83821 0.318997 0.442317 0.504917 0.70286 0.501045 
0.614402 -0.743559 -0.263873 0.884395 -0.461923 -0.0668807 -0.525964 -0.526285 -0.668122 
-0.715428 -0.282913 -0.638845 -0.790406 -0.172493 -0.587797 -0.947024 0.261023 -0.187114 
-0.866846 0.365668 0.338918 0.971141 -0.119614 0.206343 -0.700188 0.712622 0.0436587 
-0.561821 0.827254 -0.00291528 0.41301 -0.850409 -0.325924 0.58947 -0.788798 -0.174133 
-0.714356 -0.469934 -0.518514 -0.859419 0.509497 0.0425559 -0.78338 0.473375 0.40278 
-0.665458 0.745332 -0.0405752 -0.426132 0.901702 0.0731104 -0.127036 0.965401 0.227733 
0.447229 0.735794 0.508521 0.187648 -0.835261 -0.516843 0.367863 -0.793828 -0.484266 
0.45266 -0.791682 -0.410292 -0.805623 -0.417368 -0.420447 0.931265 -0.265045 0.249993 
-0.985933 0.0995088 -0.134292 0.753976 -0.16616 0.635541 0.792234 -0.333462 0.511047 
-0.32493 0.927551 0.184578 0.117874 0.897821 0.42429 -0.107854 -0.81644 -0.567268 
0.798146 -0.601031 0.041522 -0.505262 -0.598345 -0.621846 0.803404 -0.595086 0.0203614 
0.849328 -0.418974 0.321095 -0.907883 0.399053 0.128475 0.531892 -0.135208 0.835948 
0.531285 -0.315703 0.786173 0.911674 -0.186749 0.366026 0.770624 0.260064 0.581813 
-0.456594 0.884484 0.0959673 0.670905 -0.741296 0.0191586 0.86622 -0.443638 0.229888 
0.735478 -0.653676 0.178267 0.820812 -0.329321 0.466707 0.808371 -0.192281 0.556385 
0.672302 -0.0212519 0.739972 0.747273 -0.0467249 0.662872 0.555096 -0.383962 0.737863 
-0.481379 0.847103 0.225146 0.522159 0.590295 0.61555 0.44273 -0.893569 -0.0743319 
0.626668 -0.753734 0.19792 0.740962 -0.537908 0.402032 0.716461 -0.517353 0.468006 
-0.438183 -0.77192 -0.46058 -0.28594 -0.773109 -0.566164 0.713932 -0.385411 0.584602 
0.593043 -0.0232341 0.804836 0.692303 -0.186134 0.697187 0.751276 -0.170861 0.637488 
-0.993844 -0.0199353 -0.108976 0.415022 0.0700192 0.907113 -0.472068 0.833847 0.286095 
-0.662188 0.731625 0.161959 -0.117727 0.948122 0.295306 0.668269 -0.658039 0.346988 
0.645023 -0.348806 0.679911 -0.737683 -0.550005 -0.39156 -0.54819 -0.678417 -0.489119 