# vtk DataFile Version 4.2
vtk output
ASCII
DATASET POLYDATA
POINTS 1705 float
125.737 113.274 174.453 125.529 113.143 174.649 125.777 113.559 174.533 
125.851 113.757 174.633 125.982 115.685 174.885 125.045 112.568 174.997 
124.863 112.395 175.156 125.177 112.651 174.975 125.375 112.872 174.907 
125.605 113.17 174.821 125.754 113.41 174.77 126.531 115.94 175.272 
126.242 116.633 175.152 126.111 117.248 175.31 126.185 117.019 175.242 
126.281 117.618 175.462 123.302 110.736 176.315 124.741 112.272 175.32 
125.942 117.368 175.415 127.274 118.797 176.269 126.651 119.914 176.156 
123 107.009 175.017 123 107.009 175.017 123 107.009 175.017 
123 107.009 175.017 123 107.009 175.017 122.978 110.454 176.603 
122.683 110.475 176.918 123.098 110.781 176.634 123.499 111.152 176.246 
123.447 111.33 176.353 123.525 111.083 176.228 123.774 111.819 176.021 
123.401 111.886 176.328 124.057 111.768 175.96 125.151 117.639 175.93 
127.184 117.886 176.216 127.183 120.071 176.336 127.334 119.917 176.461 
127.443 119.532 176.641 127.125 120.557 176.435 126.466 120.848 176.554 
127.212 122.887 177.079 127.399 123.031 177.141 123 107.009 175.017 
121.672 109.776 177.845 121.888 109.825 177.714 122.267 110.477 177.249 
122.56 110.272 177.081 123.053 110.593 176.612 122.809 110.884 176.91 
123.425 111.083 176.378 122.992 110.813 177.109 122.817 111.47 176.796 
123.441 111.388 176.655 127.275 117.848 176.754 127.48 119.047 176.89 
127.123 121.461 176.719 127.58 123.395 177.34 127.446 125.399 177.96 
121.2 109.4 178.314 120.891 109.134 178.597 120.723 109.11 178.727 
121.47 109.528 178.066 121.107 109.257 178.426 121.467 109.508 178.126 
121.089 109.367 178.583 121.436 109.812 178.094 121.746 109.717 177.917 
121.288 110.153 178.044 120.975 109.819 178.41 121.514 110.883 177.732 
127.041 117.034 177.106 127.889 123.899 177.7 128.27 124.381 178.224 
127.836 124.798 177.879 128.26 124.765 178.211 128.292 125.905 178.498 
119.779 108.492 179.413 120.274 108.785 179.035 120.014 108.57 179.248 
120.218 108.666 179.132 120.207 108.988 178.998 120.528 108.872 178.997 
121.073 109.255 178.568 120.303 109.45 178.853 120.864 109.408 178.695 
121.502 109.616 178.181 121.169 109.479 179.029 120.088 109.639 178.928 
121.572 109.801 178.381 123.409 111.35 178.062 125.469 114.139 177.934 
125.183 122.171 177.699 128.024 122.323 178.43 128.34 124.442 178.469 
128.415 125.542 178.67 128.394 126.987 179.07 127.604 128.971 179.251 
128.264 128.892 179.466 128.145 129.492 179.582 127.782 131.813 180.09 
128.131 132.831 180.409 130 150.009 178.017 130 150.009 178.017 
130 150.009 178.017 130 150.009 178.017 130 150.009 178.017 
119.855 108.421 179.528 121.957 110.115 179.064 128.282 124.173 179.343 
128.392 124.75 178.719 126.892 129.128 179.441 128.614 128.773 180.029 
127.149 130.733 179.913 128.545 130.148 180.271 128.205 131.627 180.232 
128.44 133.465 180.789 128.561 133.057 180.885 128.177 134.396 180.874 
128.333 135.442 181.206 128.586 134.766 181.273 130 150.009 178.017 
127.255 152.53 182.12 127.199 152.463 182.129 127.187 152.598 182.111 
127.241 152.654 182.132 127.137 152.79 182.16 127.306 152.513 182.232 
127.243 152.786 182.214 116 105.009 180.017 116 105.009 180.017 
116 105.009 180.017 116 105.009 180.017 117.722 107.155 181.579 
116 105.009 180.017 117.201 107.223 181.635 118.21 108.026 180.789 
119.126 108.139 180.371 122.798 111.071 179.5 119.815 112.372 179.402 
127.067 118.721 179.486 128.598 127.623 179.858 126.549 131.354 180.336 
128.678 130.118 180.612 128.707 130.365 180.934 128.633 131.389 180.808 
128.699 132.649 181.182 127.445 134.969 181.086 128.396 136.134 181.466 
128.115 137.584 181.691 127.796 137.9 181.751 128.353 139.188 182.065 
128.405 140.666 182.33 128.547 140.591 182.503 127.034 152.505 182.195 
126.91 153.002 182.223 126.621 153.456 182.331 126.256 153.647 182.484 
126.885 153.441 182.304 127.119 153.132 182.295 126.43 154.01 182.468 
125.942 154.812 182.854 127.093 153.908 182.682 126.321 155.027 182.84 
126.494 154.685 182.69 116.369 106.162 182.45 116.308 106.076 182.496 
116.301 106.074 182.467 115.209 106.002 183.016 116 105.009 180.017 
116.67 106.534 182.25 116.136 106.148 182.602 116.795 106.484 182.527 
116.361 107.367 182.063 128.385 126.359 180.62 128.508 127.603 180.791 
128.614 129.201 181.039 128.679 129.486 180.751 128.69 130.482 181.215 
128.77 132.504 181.487 128.772 132.682 181.789 126.829 135.957 181.624 
128.774 135.557 181.956 127.439 139.004 182.056 128.395 142.212 182.714 
128.554 142.574 183.002 128.183 144.287 182.965 128.327 144.875 183.198 
127.037 151.853 182.396 126.965 151.057 182.64 127.176 154.09 182.987 
126.088 155.158 182.951 125.968 155.469 183.2 126.26 155.304 183.091 
126.312 155.487 183.384 115.076 105.71 183.333 114.752 105.694 183.483 
116.252 106.068 182.516 116.24 106.074 182.625 115.674 106.25 182.743 
115.493 105.877 183.132 115.979 105.995 183.03 115.807 107.881 182.419 
126.754 120.544 181.847 128.728 131.789 181.584 126.639 138.245 182.293 
127.36 141.695 182.606 128.685 141.254 183.091 127.636 143.413 182.81 
128.631 143.005 183.358 127.938 143.992 182.875 128.54 144.597 183.535 
127.782 146.939 183.316 128.318 145.739 183.587 126.764 149.33 183.043 
127.951 147.9 183.609 127.478 149.464 183.138 125.357 153.86 183.043 
125.232 154.801 183.214 125.172 155.226 183.382 125.31 155.604 183.516 
114.445 105.436 183.791 114.35 105.347 183.89 114.219 105.375 184.004 
114.426 105.359 183.854 113.898 105.54 184.185 114.596 105.429 183.823 
123.017 113.203 182.804 128.175 131.082 183.173 125.814 136.391 182.418 
124.802 137.542 183.59 126.217 142.314 183.321 128.563 144.775 183.792 
125.834 150.787 183.119 127.991 150.69 183.688 127.597 153.302 183.976 
124.012 155.767 184.381 123.94 156.853 184.859 124.307 157.128 184.909 
125.141 156.966 184.906 112.476 104.587 185.607 114.313 105.318 183.99 
112.69 104.982 185.212 113.978 105.194 184.472 114.646 105.383 184.14 
112.298 105.284 185.347 113.142 105.564 184.701 115.456 105.767 184.194 
128.633 142.579 184.159 128.088 149.032 184.517 126.313 155.884 184.772 
124.332 157.933 185.696 112.002 104.146 186.26 111.275 104.599 186.188 
111.513 105.305 185.918 124.784 142.806 184.518 128.226 146.745 185.096 
123.937 150.518 184.802 124.26 158.556 186.591 123.948 158.956 186.856 
123.111 159.575 187.366 123.428 159.388 187.171 110.55 103.587 187.212 
110.12 103.727 187.412 111.058 104.295 186.461 110.89 105.335 186.409 
114.689 105.624 186.277 123.607 116.359 185.191 127.816 149.133 186.084 
125.923 156.51 186.366 122.105 158.513 187.054 125.128 157.74 186.992 
122.865 159.865 187.779 121.751 160.938 188.874 121.72 160.811 188.81 
121.779 160.999 188.979 108.676 103.084 188.571 109.06 103.411 188.167 
108.807 103.245 188.347 108.825 103.314 188.296 110.181 103.403 187.775 
108.766 103.425 188.32 112.916 104.489 187.095 125.082 157.855 187.718 
121.87 160.432 188.549 122.526 160.368 188.483 122.094 160.724 188.758 
121.689 161.12 189.303 108.83 102.626 189.101 108.027 102.849 189.111 
110.804 103.484 188.813 121.641 152.405 187.067 125.056 157.851 188.268 
124.096 159.297 188.353 121.095 161.099 189.671 121.722 161.271 189.717 
107 99.0087 189.017 107 99.0087 189.017 107 99.0088 189.017 
107 99.0088 189.017 107 99.0088 189.017 108.062 102.258 189.762 
107.485 102.434 189.757 109.006 102.617 189.194 106.745 102.671 189.93 
106.808 102.748 189.843 109.265 102.712 189.206 120.245 139.572 188.894 
126.869 148.001 188.544 125.145 157.4 188.889 122.298 161.03 189.573 
105 98.0087 190.017 105 98.0087 190.017 105 98.0088 190.017 
105 98.0088 190.017 105 98.0088 190.017 105.88 101.259 191.281 
107 99.0087 189.017 105.498 101.444 191.32 106.663 101.531 191.221 
106.64 102.081 190.44 104.132 102.229 191.488 104.118 102.213 191.537 
105.498 102.074 190.962 104.139 102.226 191.488 106.318 102.63 190.29 
104.137 102.261 191.501 104.149 102.253 191.489 108.477 109.164 189.767 
119.913 161.007 190.753 122.605 161.01 190.491 119.815 161.674 191.644 
120.478 161.954 191.747 121.448 161.599 190.95 104.372 100.399 192.375 
105 98.0087 190.017 104.079 100.466 192.553 104.695 100.646 192.176 
104.487 100.443 192.44 105.493 101.043 191.785 104.019 102.175 191.715 
104.02 102.345 191.701 104.156 102.241 191.51 104.191 102.204 191.576 
104.182 102.349 191.545 119.578 161.898 192.214 120.542 162.056 192.09 
103.767 100.195 192.938 103.711 100.138 193.007 103.586 100.16 193.114 
103.802 100.162 192.952 103.703 100.362 192.867 103.314 100.228 193.257 
104.042 100.281 192.835 104.438 100.382 192.916 103.136 100.579 193.075 
102.892 101.109 192.915 104.129 101.875 191.825 103.584 102.233 192.165 
104.544 102.429 191.424 108.122 102.231 191.818 104.158 102.848 191.737 
109.073 102.895 191.918 117.493 159.048 192.788 118.808 161.901 193.042 
120.885 162.095 193.042 102.715 99.8303 194.018 103.693 100.134 193.091 
102.314 99.9411 194.152 103.334 100.048 193.623 101.622 102.258 193.668 
102.292 101.543 193.213 117.607 160.878 193.566 123.017 160.495 192.168 
118.485 162.157 193.801 118.664 162.559 194.364 119.246 162.642 194.341 
118.854 162.745 194.631 101.107 99.3017 195.485 100.8 99.385 195.4 
102.383 99.7352 194.586 120.24 118.879 193.321 123.829 157.691 193.103 
122.902 159.805 193.877 117.677 162.149 194.761 118.89 162.866 195.022 
118.463 162.929 195.449 99.7132 99.3248 195.828 101.145 99.12 196.225 
97 100.009 195.017 97 100.009 195.017 97 100.009 195.017 
97 100.009 195.017 97 100.009 195.017 113.17 108.017 194.895 
116.47 153.947 194.221 98.6209 98.3809 197.05 98.6513 98.3766 197.097 
98.9991 98.4833 196.981 99.104 98.7036 196.625 95 99.0087 196.017 
95 99.0087 196.017 95 99.0088 196.017 95 99.0088 196.017 
95 99.0088 196.017 97 100.009 195.017 116.382 161.277 195.895 
119.659 162.944 196.501 97.8225 98.1955 197.715 97.9575 98.4582 197.426 
98.3569 98.3144 197.438 93.5043 99.0044 197.017 93.5043 99.0043 197.018 
[...]
POINT_DATA 1705
SCALARS scalars float
LOOKUP_TABLE default
1 1 1 1 1 1 1 1 1 
1 1 1 1 1 1 1 1 1 
1 1 1 1 1 1 1 1 1 
1 1 1 1 1 1 1 1 1 
1 1 1 1 1 1 1 1 1 
1 1 1 1 1 1 1 1 1 
1 1 1 1 1 1 1 1 1 
1 1 1 1 1 1 1 1 1 
1 1 1 1 1 1 1 1 1 
1 1 1 1 1 1 1 1 1 
1 1 1 1 1 1 1 1 1 
1 1 1 1 1 1 1 1 1 
1 1 1 1 1 1 1 1 1 
1 1 1 1 1 1 1 1 1 
1 1 1 1 1 1 1 1 1 
1 1 1 1 1 1 1 1 1 
1 1 1 1 1 1 1 1 1 
1 1 1 1 1 1 1 1 1 
1 1 1 1 1 1 1 1 1 
1 1 1 1 1 1 1 1 1 
1 1 1 1 1 1 1 1 1 
1 1 1 1 1 1 1 1 1 
1 1 1 1 1 1 1 1 1 
1 1 1 1 1 1 1 1 1 
1 1 1 1 1 1 1 1 1 
1 1 1 1 1 1 1 1 1 
1 1 1 1 1 1 1 1 1 
1 1 1 1 1 1 1 1 1 
1 1 1 1 1 1 1 1 1 
1 1 1 1 1 1 1 1 1 
1 1 1 1 1 1 1 1 1 
1 1 1 1 1 1 1 1 1 
1 1 1 1 1 1 1 1 1 
1 1 1 1 1 1 1 1 1 
1 1 1 1 1 1 1 1 1 
1 1 1 1 1 1 1 1 1 
1 1 1 1 1 1 1 1 1 
1 1 1 1 1 1 1 1 1 
1 1 1 1 1 1 1 1 1 
1 1 1 1 1 1 1 1 1 
1 1 1 1 1 1 1 1 1 
1 1 1 1 1 1 1 1 1 
1 1 1 1 1 1 1 1 1 
1 1 1 1 1 1 1 1 1 
1 1 1 1 1 1 1 1 1 
1 1 1 1 1 1 1 1 1 
1 1 1 1 1 1 1 1 1 
1 1 1 1 1 1 1 1 1 
1 1 1 1 1 1 1 1 1 
1 1 1 1 1 1 1 1 1 
1 1 1 1 1 1 1 1 1 
1 1 1 1 1 1 1 1 1 
1 1 1 1 1 1 1 1 1 
1 1 1 1 1 1 1 1 1 
1 1 1 1 1 1 1 1 1 
1 1 1 1 1 1 1 1 1 
1 1 1 1 1 1 1 1 1 
1 1 1 1 1 1 1 1 1 
1 1 1 1 1 1 1 1 1 
1 1 1 1 1 1 1 1 1 
1 1 1 1 1 1 1 1 1 
1 1 1 1 1 1 1 1 1 
1 1 1 1 1 1 1 1 1 
1 1 1 1 1 1 1 1 1 
1 1 1 1 1 1 1 1 1 
1 1 1 1 1 1 1 1 1 
1 1 1 1 1 1 1 1 1 
1 1 1 1 1 1 1 1 1 
1 1 1 1 1 1 1 1 1 
1 1 1 1 1 1 1 1 1 
1 1 1 1 1 1 1 1 1 
1 1 1 1 1 1 1 1 1 
1 1 1 1 1 1 1 1 1 
1 1 1 1 1 1 1 1 1 
1 1 1 1 1 1 1 1 1 
1 1 1 1 1 1 1 1 1 
1 1 1 1 1 1 1 1 1 
1 1 1 1 1 1 1 1 1 
1 1 1 1 1 1 1 1 1 
1 1 1 1 1 1 1 1 1 
1 1 1 1 1 1 1 1 1 
1 1 1 1 1 1 1 1 1 
1 1 1 1 1 1 1 1 1 
1 1 1 1 1 1 1 1 1 
1 1 1 1 1 1 1 1 1 
1 1 1 1 1 1 1 1 1 
1 1 1 1 1 1 1 1 1 
1 1 1 1 1 1 1 1 1 
1 1 1 1 1 1 1 1 1 
1 1 1 1 1 1 1 1 1 
1 1 1 1 1 1 1 1 1 
1 1 1 1 1 1 1 1 1 
1 1 1 1 1 1 1 1 1 
1 1 1 1 1 1 1 1 1 
1 1 1 1 1 1 1 1 1 
1 1 1 1 1 1 1 1 1 
1 1 1 1 1 1 1 1 1 
1 1 1 1 1 1 1 1 1 
1 1 1 1 1 1 1 1 1 
1 1 1 1 1 1 1 1 1 
1 1 1 1 1 1 1 1 1 
1 1 1 1 1 1 1 1 1 
1 1 1 1 1 1 1 1 1 
1 1 1 1 1 1 1 1 1 
1 1 1 1 1 1 1 1 1 
1 1 1 1 1 1 1 1 1 
1 1 1 1 1 1 1 1 1 
1 1 1 1 1 1 1 1 1 
1 1 1 1 1 1 1 1 1 
1 1 1 1 1 1 1 1 1 
1 1 1 1 1 1 1 1 1 
1 1 1 1 1 1 1 1 1 
1 1 1 1 1 1 1 1 1 
1 1 1 1 1 1 1 1 1 
1 1 1 1 1 1 1 1 1 
1 1 1 1 1 1 1 1 1 
1 1 1 1 1 1 1 1 1 
1 1 1 1 1 1 1 1 1 
1 1 1 1 1 1 1 1 1 
1 1 1 1 1 1 1 1 1 
1 1 1 1 1 1 1 1 1 
1 1 1 1 1 1 1 1 1 
1 1 1 1 1 1 1 1 1 
1 1 1 1 1 1 1 1 1 
1 1 1 1 1 1 1 1 1 
1 1 1 1 1 1 1 1 1 
1 1 1 1 1 1 1 1 1 
1 1 1 1 1 1 1 1 1 
1 1 1 1 1 1 1 1 1 
1 1 1 1 1 1 1 1 1 
1 1 1 1 1 1 1 1 1 
1 1 1 1 1 1 1 1 1 
1 1 1 1 1 1 1 1 1 
1 1 1 1 1 1 1 1 1 
1 1 1 1 1 1 1 1 1 
1 1 1 1 1 1 1 1 1 
1 1 1 1 1 1 1 1 1 
1 1 1 1 1 1 1 1 1 
1 1 1 1 1 1 1 1 1 
1 1 1 1 1 1 1 1 1 
1 1 1 1 1 1 1 1 1 
1 1 1 1 1 1 1 1 1 
1 1 1 1 1 1 1 1 1 
1 1 1 1 1 1 1 1 1 
1 1 1 1 1 1 1 1 1 
1 1 1 1 1 1 1 1 1 
1 1 1 1 1 1 1 1 1 
1 1 1 1 1 1 1 1 1 
1 1 1 1 1 1 1 1 1 
1 1 1 1 1 1 1 1 1 
1 1 1 1 1 1 1 1 1 
1 1 1 1 1 1 1 1 1 
1 1 1 1 1 1 1 1 1 
1 1 1 1 1 1 1 1 1 
1 1 1 1 1 1 1 1 1 
1 1 1 1 1 1 1 1 1 
1 1 1 1 1 1 1 1 1 
1 1 1 1 1 1 1 1 1 
1 1 1 1 1 1 1 1 1 
1 1 1 1 1 1 1 1 1 
1 1 1 1 1 1 1 1 1 
1 1 1 1 1 1 1 1 1 
1 1 1 1 1 1 1 1 1 
1 1 1 1 1 1 1 1 1 
1 1 1 1 1 1 1 1 1 
1 1 1 1 1 1 1 1 1 
1 1 1 1 1 1 1 1 1 
1 1 1 1 1 1 1 1 1 
1 1 1 1 1 1 1 1 1 
1 1 1 1 1 1 1 1 1 
1 1 1 1 1 1 1 1 1 
1 1 1 1 1 1 1 1 1 
1 1 1 1 1 1 1 1 1 
1 1 1 1 1 1 1 1 1 
1 1 1 1 1 1 1 1 1 
1 1 1 1 1 1 1 1 1 
1 1 1 1 1 1 1 1 1 
1 1 1 1 1 1 1 1 1 
1 1 1 1 1 1 1 1 1 
1 1 1 1 1 1 1 1 1 
1 1 1 1 1 1 1 1 1 
1 1 1 1 1 1 1 1 1 
1 1 1 1 1 1 1 1 1 
1 1 1 1 1 1 1 1 1 
1 1 1 1 1 1 1 1 1 
1 1 1 1 1 1 1 1 1 
1 1 1 1 1 1 1 1 1 
1 1 1 1 1 1 1 1 1 
1 1 1 1 1 1 1 1 1 
1 1 1 1 
NORMALS Normals float
0.79525 -0.437498 -0.419729 -0.237578 -0.384385 -0.892079 -0.135751 0.210503 -0.968122 
0.968422 -0.19004 -0.161382 0.235782 0.170688 -0.956699 0.109296 -0.621619 -0.775657 
-0.0322164 -0.728075 -0.68474 0.538288 -0.739309 -0.404559 0.773136 -0.626129 0.10111 
0.750387 -0.62172 0.224464 0.783469 -0.22741 0.578326 0.713407 0.077976 -0.696398 
0.0211643 0.220196 -0.975226 -0.188723 0.307885 -0.932518 0.16162 0.239362 -0.957384 
0.196217 0.291122 -0.936348 -0.691301 0.233892 -0.683665 0.608692 -0.791268 -0.0582165 
-0.364725 0.24867 -0.897296 0.855177 -0.0344855 -0.517188 -0.129166 0.317516 -0.939415 
0 0.268207 -0.963361 -0.83205 -0.5547 0 -0.987175 0.159641 0 
0.987175 0.159641 0 0 1 0 -0.744777 0.186076 -0.640846 
-0.64974 0.0162021 -0.759984 -0.415622 0.698418 -0.582641 -0.61538 0.0786966 -0.784292 
-0.899476 0.0432062 -0.43483 -0.465714 0.0496302 -0.883542 -0.589695 -0.0718661 -0.804422 
-0.698241 -0.0721719 -0.712216 0.699264 -0.714154 0.0318333 -0.572741 0.226817 -0.787732 
0.89198 -0.16768 -0.419828 0.500248 0.0988557 -0.86022 0.703411 0.0660059 -0.707712 
0.941803 0.0743226 -0.327846 0.363461 0.289219 -0.885578 -0.193195 0.369779 -0.908812 
-0.10263 0.34283 -0.933774 0.471084 0.188664 -0.861676 0 0.268207 0.963361 
-0.57968 -0.245493 -0.776984 0.164022 -0.855576 -0.491006 -0.535052 0.0780989 -0.841201 
-0.0298822 -0.819834 -0.571821 0.782817 -0.508622 0.35847 -0.298872 0.0520035 -0.952875 
0.755715 -0.306454 0.578776 0.89105 -0.453232 0.0247343 -0.464146 -0.172563 -0.868787 
-0.0136081 -0.867242 -0.4977 0.975837 -0.191678 -0.104893 0.982204 -0.0896178 0.165056 
0.240478 0.278772 -0.929762 0.546466 0.16863 -0.820328 -0.000972264 0.325721 -0.945466 
-0.720958 0.0460471 -0.691447 -0.385567 -0.503915 -0.772922 -0.496686 -0.114005 -0.86041 
-0.221714 -0.639708 -0.735946 0.175419 -0.871502 -0.457944 0.632545 -0.769636 0.0868752 
0.122866 0.97981 -0.15772 -0.835337 -0.236843 -0.496102 0.613003 -0.778107 0.137031 
-0.531496 -0.237207 -0.81317 -0.315027 -0.575368 -0.754791 -0.549291 0.00654655 -0.835606 
0.937047 -0.277908 0.211448 0.626467 0.0955626 -0.773568 0.913751 -0.0828141 -0.397745 
0.433288 0.234259 -0.870278 0.831392 0.0874489 -0.548762 0.700647 0.188174 -0.688247 
-0.518152 -0.421543 -0.744191 -0.151885 -0.558128 -0.815735 -0.226894 -0.684967 -0.692343 
0.196445 -0.824915 -0.530024 -0.460434 -0.181926 -0.868852 0.357763 -0.879178 -0.314726 
0.710008 -0.549355 0.440566 -0.433533 -0.256582 -0.863838 -0.211489 -0.195526 -0.957623 
0.584172 -0.338938 0.737472 0.742385 0.606335 -0.284996 -0.57971 -0.178923 -0.794936 
0.197896 -0.980211 0.00485741 0.758816 -0.639691 0.122447 0.832677 -0.439572 0.336786 
-0.423679 0.338983 -0.839992 0.948258 -0.238417 0.209677 0.966606 -0.218291 -0.134242 
0.983684 -0.00476075 -0.179845 0.91933 0.0655526 -0.387988 0.104137 0.385828 -0.916675 
0.633145 0.228251 -0.739614 0.401917 0.319587 -0.858095 0.0200556 0.21413 -0.976599 
0.404521 0.207587 -0.890657 0 0 -1 -0.894427 -0.447214 0 
-1 0 0 1 0 0 0 0.447214 -0.894427 
0.549965 -0.821372 0.151282 0.560188 -0.797802 0.222938 0.963307 -0.235597 0.128579 
0.974289 -0.0227114 -0.224155 -0.252063 0.358138 -0.899 0.982669 0.0208692 -0.184188 
-0.0476775 0.244954 -0.968362 0.891922 0.144289 -0.42855 0.610504 0.125662 -0.781981 
0.841153 0.159003 -0.516895 0.85771 0.11542 -0.501011 0.114541 0.328241 -0.937624 
0.35625 0.274561 -0.893142 0.830446 0.141325 -0.538875 0 0 1 
0.429493 -0.147267 -0.890981 -0.110299 -0.270507 -0.956379 -0.125099 0.0398846 -0.991342 
0.579906 0.268161 -0.769284 0.0426148 0.275615 -0.960323 0.966923 0.183887 -0.176763 
0.800802 0.373606 -0.468118 0 0.268207 -0.963361 -0.83205 -0.5547 0 
-0.987175 0.159641 0 0.987175 0.159641 0 0.404137 -0.862718 -0.30396 
0 1 0 -0.42276 -0.267092 -0.865988 -0.409212 -0.471195 -0.781358 
-0.177751 -0.821366 -0.541999 0.618081 -0.706055 0.345632 -0.642354 0.105509 -0.759111 
0.909299 -0.317364 0.269175 0.990169 -0.135915 -0.0330499 -0.491391 0.264909 -0.829673 
0.989051 -0.131262 0.0674381 0.996101 0.0127357 -0.0872937 0.940319 0.0884626 -0.328596 
0.961992 0.102776 -0.252999 -0.343422 0.211982 -0.914945 0.512373 0.229279 -0.82759 
-0.045867 0.14385 -0.988536 -0.231739 0.0720417 -0.970107 0.245378 0.191001 -0.950425 
0.715574 0.176678 -0.675824 0.812051 0.146429 -0.564917 -0.357534 -0.146951 -0.922266 
-0.193201 0.0929581 -0.976746 -0.288777 0.0258984 -0.957046 -0.446548 0.0549774 -0.893069 
0.139241 0.267962 -0.953314 0.74988 0.325966 -0.575697 -0.232016 0.251088 -0.939747 
-0.38561 0.288856 -0.87628 0.722281 0.395852 -0.567109 -0.0762111 0.446451 -0.891557 
0.41115 0.454694 -0.790069 0.265662 -0.525414 -0.808309 0.492225 -0.869335 -0.0444091 
-0.129185 -0.692239 -0.710012 -0.410067 -0.421824 -0.808647 0 0.268207 0.963361 
-0.1579 -0.538709 -0.827563 -0.494439 -0.513549 -0.701282 0.622936 -0.78199 -0.0210586 
-0.474762 -0.162296 -0.865021 0.936691 -0.155184 0.313892 0.922991 -0.197367 0.330355 
0.983661 -0.0516952 0.172452 0.998515 -0.025117 -0.0483406 0.960814 -0.223421 0.164071 
0.992133 0.0194514 -0.123667 0.996309 0.0385903 0.0766744 -0.345508 0.301803 -0.88856 
0.986121 0.0408877 -0.160917 -0.317219 0.235579 -0.918627 0.753789 0.206595 -0.623796 
0.866942 0.211688 -0.451221 0.357701 0.132385 -0.924405 0.768435 0.182977 -0.613211 
-0.0967995 -0.337 -0.936515 -0.212141 -0.30116 -0.929677 0.829887 0.445544 -0.335825 
-0.162825 0.542845 -0.823898 -0.131808 0.631929 -0.763736 0.430824 0.670159 -0.604382 
0.559539 0.72065 -0.409364 -0.102163 -0.777584 -0.620424 -0.353493 -0.567612 -0.743545 
-0.294708 -0.93613 -0.191854 0.0809932 -0.995931 0.0395232 -0.521933 -0.187316 -0.832165 
0.0173072 -0.838332 -0.544885 0.25542 -0.95465 -0.152984 -0.601008 0.000808253 -0.799242 
0.924425 -0.190907 0.33014 0.997792 -0.0646223 0.0153103 -0.499104 0.143119 -0.854642 
-0.472623 0.0255938 -0.880893 0.989425 0.0243869 -0.142979 -0.102539 0.133545 -0.985724 
0.890373 0.21747 -0.399928 -0.174338 0.127384 -0.976412 0.952761 0.151272 -0.263367 
0.623424 0.129869 -0.771023 0.905113 0.192174 -0.379262 -0.0675074 -0.0143424 -0.997616 
0.95199 0.0781362 -0.295989 0.496854 -0.101995 -0.86182 -0.680332 -0.11179 -0.724328 
-0.681153 0.20059 -0.704126 -0.675505 0.112878 -0.728664 -0.242912 0.515135 -0.821967 
-0.315089 -0.498358 -0.807687 -0.407692 -0.67117 -0.619128 -0.601442 -0.43827 -0.667973 
0.0702768 -0.867382 -0.492655 -0.662835 -0.0502094 -0.74708 0.21994 -0.919575 -0.32559 
0.767636 -0.535483 0.352127 0.884702 -0.232326 0.404137 -0.693745 -0.00241237 -0.720216 
-0.625307 0.247771 -0.74 -0.59496 0.0896311 -0.798742 0.990777 0.092514 0.0990022 
-0.621096 -0.149153 -0.769411 0.983494 0.180854 0.00557152 0.962797 0.26924 -0.0230821 
-0.55308 0.276262 -0.785991 -0.476657 0.449012 -0.755768 -0.161481 0.598259 -0.784863 
0.306361 0.768763 -0.561378 0.0149306 -0.832638 -0.553616 -0.0516877 -0.964574 -0.258698 
-0.383976 -0.481686 -0.787744 -0.220491 -0.839276 -0.49699 0.328455 -0.935503 -0.1302 
-0.582342 0.177734 -0.793277 -0.436204 -0.297438 -0.849268 0.62509 -0.765193 0.154087 
0.99112 -0.048437 0.123835 0.99213 -0.0321137 -0.121028 0.882387 0.468193 -0.0467835 
0.0838501 0.746501 -0.66008 0.0189809 -0.87332 -0.486778 -0.618024 -0.170322 -0.767488 
-0.639222 0.0717681 -0.765666 -0.641281 -0.0693635 -0.764165 0.990644 0.0768406 0.112779 
-0.696629 -0.150239 -0.701525 0.547779 0.719066 -0.427647 0.615257 0.759374 -0.211683 
0.125501 0.878048 -0.461823 -0.101032 0.620316 -0.777818 -0.0800453 -0.866775 -0.492234 
-0.377457 -0.648176 -0.661358 -0.522581 -0.366165 -0.769956 -0.61203 0.245134 -0.751884 
0.660778 -0.712675 0.235514 0.835738 -0.288024 0.46753 0.948852 0.1785 0.260419 
0.93397 0.353656 0.0512666 -0.527053 0.413495 -0.742454 0.831668 0.545648 -0.102942 
0.140338 0.824757 -0.547797 -0.202744 0.724 -0.659332 -0.580889 0.371832 -0.724092 
0.209636 0.893591 -0.396923 -0.250442 -0.704522 -0.664023 -0.221396 -0.641087 -0.734841 
-0.285418 -0.624782 -0.726763 -0.511372 -0.344559 -0.78726 0.00447779 -0.899244 -0.437425 
-0.62458 -0.109475 -0.77325 0.452561 -0.891696 -0.0081732 0.860827 0.5066 -0.0482928 
-0.362204 0.515133 -0.776818 0.290169 0.804852 -0.517702 0.427069 0.735091 -0.526549 
0.0617636 0.930432 -0.361221 -0.0304098 -0.813749 -0.58042 -0.52206 -0.295823 -0.799964 
0.507157 -0.857432 0.0871903 -0.763204 -0.0224845 -0.645766 0.898313 0.427103 0.103037 
0.831583 0.552513 0.0565659 -0.498995 0.664065 -0.556796 0.123487 0.958856 -0.25563 
0 0.268207 -0.963361 -0.83205 -0.5547 0 -0.987175 0.159641 0 
0.987175 0.159641 0 0 1 0 0.178185 -0.935747 -0.304347 
-0.313745 -0.662852 -0.679846 0.270475 -0.898138 -0.346686 -0.446034 -0.574329 -0.68644 
-0.512431 -0.314828 -0.798935 0.372274 -0.914291 -0.15964 -0.704015 0.12742 -0.69866 
0.857125 0.214645 0.468256 0.934843 0.181791 0.304992 0.518381 0.793585 -0.318596 
0 0.268207 -0.963361 -0.83205 -0.5547 0 -0.987175 0.159641 0 
0.987175 0.159641 0 0 1 0 -0.116416 -0.747634 -0.653828 
0 0.268207 0.963361 -0.295384 -0.557863 -0.775589 0.262315 -0.927496 -0.266351 
-0.229595 -0.648338 -0.725909 -0.597008 -0.208347 -0.774709 0.00970788 -0.944225 -0.329157 
-0.424182 -0.277992 -0.861853 0.401451 -0.674345 -0.619756 -0.484228 -0.457687 -0.745685 
-0.536628 0.484193 -0.691077 0.293859 0.151218 -0.943811 -0.663024 0.19809 -0.721914 
-0.587921 0.561617 -0.582181 0.588352 0.789268 -0.17578 -0.373859 0.811436 -0.449223 
-0.00485385 0.917651 -0.397358 0.264844 0.951592 -0.155984 0.0434134 -0.868481 -0.493819 
0 0.268207 0.963361 -0.485392 -0.486617 -0.72636 0.406992 -0.852057 -0.329175 
0.453115 -0.886188 -0.0967334 0.20847 -0.928139 -0.30838 -0.608598 -0.537944 -0.583289 
-0.746188 0.231191 -0.624303 0.781526 -0.4693 -0.411065 0.0668516 -0.641239 -0.764424 
-0.0839842 0.269931 -0.95921 -0.418806 0.802919 -0.424173 -0.048702 0.945485 -0.322003 
-0.379418 -0.473402 -0.794942 -0.279277 -0.839489 -0.466114 -0.475624 -0.710908 -0.518065 
0.110565 -0.904794 -0.411245 -0.408923 -0.574863 -0.708741 -0.57034 -0.646925 -0.506162 
0.111673 -0.93608 -0.333593 0.42796 -0.903669 -0.0152598 -0.52232 -0.516867 -0.678256 
-0.457768 -0.156259 -0.875232 -0.453841 -0.444685 -0.772194 -0.620177 -0.188075 -0.761583 
-0.328109 -0.153737 -0.932046 0.495635 -0.855666 0.148936 -0.56804 0.159194 -0.807458 
0.522574 -0.826563 0.209069 -0.800879 0.213297 -0.559552 -0.54885 0.668161 -0.502319 
0.504323 0.857871 -0.0985646 -0.152561 -0.879449 -0.450882 0.167786 -0.98579 0.0081281 
-0.3226 -0.702188 -0.634714 -0.00783041 -0.979874 -0.199463 -0.56883 0.126926 -0.812602 
-0.49546 -0.290224 -0.818712 -0.785419 0.404218 -0.468749 0.742848 0.661759 0.101249 
-0.436865 0.762611 -0.477047 -0.336873 0.851428 -0.401979 0.109555 0.943158 -0.313767 
-0.217776 0.912566 -0.346116 0.120469 -0.94384 -0.307657 -0.193195 -0.793785 -0.576698 
0.199962 -0.972232 -0.121575 0.701749 -0.584838 0.406832 0.907281 0.268956 0.323272 
0.917765 0.292523 0.268584 -0.695839 0.60067 -0.393705 -0.0816755 0.968729 -0.234293 
-0.175325 0.955285 -0.238102 -0.253738 -0.63755 -0.727425 0.220248 -0.954209 -0.202425 
0 0.268207 -0.963361 -0.83205 -0.5547 0 -0.987175 0.159641 0 
0.987175 0.159641 0 0 1 0 0.681922 -0.64363 0.347452 
-0.828534 0.0447415 -0.558149 -0.212979 -0.796945 -0.56526 0.210012 -0.954061 -0.213689 
0.193869 -0.951402 -0.239269 -0.0552465 -0.773303 -0.631625 0 0.268207 -0.963361 
-0.83205 -0.5547 0 -0.987175 0.159641 0 0.987175 0.159641 0 
0 1 0 0 0.268207 0.963361 -0.818746 0.344684 -0.459181 
0.312299 0.941019 -0.130201 -0.449602 -0.713458 -0.537435 -0.539034 -0.562545 -0.626886 
0.044499 -0.974034 -0.221987 -0.398856 -0.445178 -0.801705 -0.570888 -0.782277 0.249259 
-0.995631 0.014417 -0.0922583 0.574891 0.574608 -0.582517 0.633607 -0.727811 -0.262359 
0 0.268207 0.963361 0.967998 0.206547 0.14254 0.381648 -0.924238 -0.0113638 
-0.46947 0.814144 -0.341712 0.242899 0.879313 0.409645 0.897279 -0.0537325 0.438182 
0.817548 0.562037 0.125417 0.600574 0.799499 -0.0105684 0.423429 -0.782812 -0.455975 
0.314401 -0.931284 0.184017 -0.424717 -0.697462 -0.577202 0.569316 -0.801499 -0.18297 
-0.103848 -0.320627 -0.941496 -0.119382 -0.938751 -0.323257 -0.696711 0.42345 0.579037 
0.407986 -0.37495 0.832442 -0.436546 -0.0732486 -0.896695 -0.579223 0.748782 -0.32222 
0.422837 0.905555 -0.0343275 -0.261196 0.950272 -0.169588 -0.056691 0.973843 -0.220037 
-0.164771 -0.977065 0.134889 0.32707 -0.913377 0.24242 0.319841 -0.946175 -0.0495536 
-0.640925 -0.098664 -0.761236 -0.126507 -0.710604 -0.692126 -0.463435 -0.739239 -0.488624 
0.252591 -0.957039 -0.14239 -0.485377 -0.366049 -0.793988 0.827932 0.545761 0.129128 
0.107371 0.987806 -0.112747 -0.213853 0.967934 -0.131798 -0.258445 -0.701027 -0.664656 
-0.0825253 -0.86301 -0.498401 -0.170833 -0.732668 -0.658797 -0.603708 -0.757277 -0.249135 
-0.0876034 -0.978438 0.187041 -0.224308 -0.705058 -0.67274 0.0188109 -0.949463 -0.313316 
0.063976 -0.99735 -0.0346367 0.274983 -0.961287 0.0176371 -0.403986 -0.559278 -0.723881 
-0.45234 0.19232 -0.870863 -0.841512 0.298355 -0.450379 -0.344403 -0.624138 -0.701312 
-0.361604 -0.589269 -0.722499 0.279626 -0.960107 0.00206172 0 0.268207 -0.963361 
-0.83205 -0.5547 0 -0.987175 0.159641 0 0.987175 0.159641 0 
-0.400412 -0.560266 -0.725101 -0.474002 -0.188676 -0.860072 -0.370674 -0.329229 -0.868452 
0 1 0 -0.493688 -0.359656 -0.791783 -0.382827 0.129512 -0.914697 
-0.426796 -0.203242 -0.881214 -0.4656 -0.444048 -0.765531 0.939088 -0.0491775 0.340141 
0.93717 0.214799 0.274906 -0.704695 0.574213 -0.416755 -0.322027 -0.822664 -0.468532 
0 0.268207 0.963361 -0.160443 -0.203393 -0.965862 -0.363447 -0.0488451 -0.930333 
-0.420819 -0.588713 -0.690165 0.00716719 -0.981958 0.188964 -0.316623 -0.699122 -0.641076 
-0.414608 -0.287931 -0.863247 0.128733 -0.836445 0.532718 -0.334557 -0.934164 -0.124137 
-0.519291 -0.577567 -0.629884 -0.404955 -0.656134 -0.636788 -0.739877 -0.373215 -0.559725 
-0.244735 -0.0958999 -0.964836 -0.204798 0.729331 -0.652789 -0.284835 0.719407 -0.6335 
-0.482301 0.446051 -0.753939 -0.610553 0.316775 -0.725864 -0.645926 0.200852 -0.736504 
-0.5705 -0.0635605 -0.818834 -0.76062 -0.133256 -0.635374 -0.442212 0.217258 -0.8702 
-0.492494 0.197269 -0.847664 0.816121 -0.57437 0.0636013 0.629406 0.774296 0.0656857 
-0.371369 -0.777571 -0.507414 -0.413323 -0.650076 -0.637624 -0.403748 -0.704333 -0.583869 
-0.203222 -0.123972 -0.971253 -0.376924 -0.534161 -0.756704 -0.426911 0.129595 -0.894959 
0.0618701 -0.981068 0.183515 0.458908 -0.882537 -0.102626 0.321485 -0.312133 0.893991 
0.127355 -0.350923 0.927703 -0.641246 -0.766857 0.0270759 -0.804076 -0.559463 -0.201154 
-0.616863 -0.767648 -0.173771 -0.0077021 -0.148375 -0.988901 -0.151958 0.569815 -0.807601 
-0.259195 -0.365117 -0.894152 -0.338328 0.0254142 -0.940685 -0.605156 -0.34074 -0.719502 
-0.740672 -0.119153 -0.661216 -0.842626 -0.320219 -0.432945 -0.0375034 0.308878 -0.950362 
-0.203399 0.2379 -0.949754 -0.788336 -0.0607456 -0.612238 -0.875077 0.0825052 -0.4769 
-0.555974 0.243666 -0.794683 -0.768513 0.341109 -0.541325 -0.12594 0.32902 -0.935887 
-0.454987 0.290912 -0.84164 -0.507733 0.336086 -0.793255 0.945309 -0.152886 0.288127 
0.973335 -0.0446285 0.225004 -0.829584 0.260323 -0.493986 -0.758699 0.509768 -0.405602 
-0.442778 -0.683766 -0.58001 -0.530979 -0.576455 -0.621096 -0.535159 -0.441193 -0.720384 
0.336659 -0.582461 -0.739865 -0.213362 -0.701818 -0.679653 -0.347039 0.0250006 -0.937517 
-0.435359 -0.502043 -0.747272 -0.747872 -0.616074 -0.247266 -0.488302 -0.829486 -0.271135 
-0.941626 0.100669 -0.321259 0.739349 -0.664709 0.107357 -0.442954 0.845491 -0.298223 
0.0570348 0.990521 -0.124958 0 0.268207 -0.963361 -0.83205 -0.5547 0 
-0.987175 0.159641 0 0.987175 0.159641 0 0 1 0 
0.0530763 -0.966884 -0.249637 -0.267692 -0.624285 -0.7339 -0.798802 -0.572892 -0.183606 
-0.950971 -0.195934 -0.239301 -0.728482 0.423633 -0.538377 -0.635498 0.358677 -0.683734 
-0.225914 0.381293 -0.896426 -0.460575 0.439628 -0.771102 0.933896 -0.258449 0.247067 