# vtk DataFile Version 4.2
vtk output
ASCII
DATASET POLYDATA
POINTS 1286 float
125.002 155.511 182.015 125.002 155.511 182.015 125.002 155.511 182.015 
125.002 155.511 182.015 125.002 155.511 182.015 125.002 155.511 182.015 
125.002 155.511 182.015 125.002 155.511 182.015 123.067 156.647 185.227 
123.082 156.617 185.206 125.002 155.511 182.015 123.067 156.653 185.253 
123.012 156.72 185.316 123.029 156.764 185.354 125.002 155.511 182.015 
123.003 156.837 185.356 123.043 156.812 185.306 123.04 156.833 185.311 
122.759 157.083 185.704 122.922 156.974 185.539 123.011 156.867 185.378 
123.089 156.603 185.207 123.082 156.588 185.224 123.066 156.594 185.243 
122.964 156.589 185.44 122.76 156.515 185.914 122.604 156.597 185.988 
122.973 156.875 185.511 122.43 157.458 186.232 122.678 157.259 185.896 
122.473 157.564 186.309 122.362 156.102 186.65 123.044 156.586 185.303 
122.455 156.282 186.417 122.547 156.296 186.516 122.971 156.592 185.487 
122.156 156.254 186.743 122.712 156.585 186.312 122.892 156.638 185.746 
122.006 156.904 186.759 122.31 157.967 186.723 122.45 157.783 186.66 
122.256 158.179 186.88 122.208 158.28 186.995 122.266 158.236 186.921 
122.175 155.967 186.947 122.098 155.812 187.264 122.029 155.921 187.164 
122.27 155.927 187.053 121.838 158.134 187.314 121.865 158.591 187.818 
122.127 158.36 187.207 121.395 160.305 189.304 121.37 160.239 189.25 
121.333 160.364 189.412 122.16 155.75 187.531 122.048 158.475 188.255 
121.508 159.401 188.708 121.394 159.964 189.103 121.254 160.23 189.315 
121.344 160.421 189.718 121.835 155.153 188.28 121.812 155.112 188.28 
121.816 155.169 188.23 121.793 155.089 188.365 121.911 155.347 188.09 
121.713 155.208 188.271 121.306 155.254 188.532 120.955 159.631 189.08 
121.037 160.571 189.887 120.89 160.548 189.946 121.328 160.509 190.157 
120.537 151.841 190.945 120.515 151.787 190.969 120.529 151.781 191.023 
120.349 152.307 190.852 120.632 152.145 190.928 120.571 152.784 190.572 
121.775 155.105 188.316 120.793 153.594 190.1 121.169 153.598 190.416 
121.707 155.024 188.515 121.419 154.655 189.185 121.835 155.195 189.152 
122.147 156.18 189.039 120.803 160.37 189.821 120.665 160.588 190.301 
121 147.355 190.362 121 147.355 190.363 121 147.355 190.362 
121 147.355 190.363 121 147.355 190.362 121 147.355 190.362 
121 147.355 190.362 120.479 151.757 191.029 121 147.355 190.362 
120.476 151.72 191.125 120.35 151.74 191.169 119.992 151.371 191.591 
119.449 153.353 190.997 119.118 155.169 190.852 119.01 158.287 191.206 
120.546 161.214 191.766 120.413 161.26 191.951 113.544 125.191 193.973 
113.489 125.094 193.992 113.482 125.227 193.985 113.591 125.29 193.998 
115.608 130.414 193.864 115.552 130.393 193.862 115.679 130.368 193.929 
115.615 130.594 193.895 116.006 131.831 193.902 116.025 131.694 193.911 
115.956 132.118 193.942 117.072 136.133 193.863 117.022 136.257 193.864 
118.12 138.672 193.772 118.097 138.725 193.772 118.162 138.833 193.766 
118.15 138.717 193.809 118.097 138.912 193.793 118.206 139.353 193.844 
118.474 141.037 193.779 118.954 142.867 193.768 119.034 143.159 193.755 
119.073 143.007 193.822 121 147.355 190.363 121 147.355 190.363 
121 147.355 190.363 121 147.355 190.363 121 147.355 190.362 
119.233 151.679 191.818 120.32 151.243 191.745 118.713 153.238 191.769 
119.422 160.162 191.801 121.44 160.348 191.531 120.035 161.298 192.642 
120.554 161.293 192.127 121.018 160.981 192.009 102.778 100.379 194.27 
102.75 100.3 194.281 102.667 100.309 194.342 102.781 100.316 194.285 
102.485 100.327 194.412 102.822 100.385 194.359 102.33 100.554 194.348 
102.839 100.964 194.204 102.804 102.106 194.046 103.253 102.6 194.054 
103.64 102.136 194.149 103.933 102.416 194.265 103.017 103.368 194.086 
106.535 109.714 194.578 106.409 109.706 194.58 106.757 109.66 194.636 
110.307 117.539 194.293 110.497 117.656 194.266 110.601 118.71 194.252 
112.445 122.361 194.241 112.652 122.388 194.264 112.731 123.722 194.178 
113.377 125.334 194.034 113.771 125.472 194.113 113.449 125.71 194.097 
114.211 127.467 194.106 114.499 127.471 194.122 114.781 127.655 194.19 
114.811 128.835 194.067 115.402 130.268 193.912 115.538 130.032 193.977 
116.052 131.436 193.982 116.367 132.318 194.114 116.081 134.343 193.959 
118.027 138.412 193.859 117.857 138.97 194.017 118.168 139.505 193.976 
118.325 140.069 193.868 118.281 140.278 193.926 118.372 139.97 193.967 
118.863 141.81 194.031 118.703 142.404 193.789 118.995 144.178 193.809 
118.955 145.356 193.78 119.151 146.674 193.661 118.827 147.344 193.461 
119.437 145.983 193.988 121 147.355 190.363 119.498 149.17 192.945 
119.102 149.784 192.683 119.904 148.633 193.456 118.282 154.379 192.128 
121.736 159.275 192.139 120.734 161.316 193.144 120.194 161.457 193.176 
102.227 100.022 194.695 102.147 99.9375 194.766 102.064 99.9594 194.805 
102.72 100.28 194.352 102.179 99.9552 194.808 102.175 100.179 194.6 
101.822 100.01 194.857 102.516 100.188 194.643 102.019 100.667 194.343 
100.762 101.401 194.654 102.046 101.135 194.175 103.69 101.647 194.339 
101.928 101.464 194.182 101.756 102.311 194.248 102.572 104.035 194.368 
104.514 104.478 194.421 103.494 105.022 194.378 103.325 105.251 194.449 
104.455 105.745 194.497 105.617 110.086 194.832 107.486 111.498 194.722 
107.407 113.033 194.782 108.517 113.022 194.734 109.385 117.419 194.546 
111.026 119.429 194.271 110.693 120.107 194.376 113.076 124.403 194.166 
113.6 124.507 194.206 114.044 128.979 194.154 115.116 129.454 194.062 
114.986 132.324 194.068 115.433 134.213 194.062 117.649 135.888 194.373 
118.021 137.935 194.091 117.637 139.084 194.162 118.34 139.148 194.213 
118.113 139.397 194.263 118.309 139.501 194.219 118.229 140.138 194.054 
117.852 141.162 194.017 117.823 140.604 194.163 118.304 140.392 194.131 
118.64 140.857 194.184 117.954 147.296 193.713 117.927 152.866 192.802 
120.958 161.122 193.586 101.878 99.835 195.206 101.439 100.727 194.52 
104.516 102.643 194.761 104.643 102.497 195.122 104.7 103.246 194.687 
104.103 107.612 194.808 106.487 108.248 194.737 107.306 108.886 194.913 
107.598 109.425 194.898 108.658 111.537 194.923 110.345 115.22 194.722 
112.307 119.802 194.509 112.207 121.286 194.367 113.318 122.012 194.584 
113.234 129.262 194.482 116.02 128.652 194.709 116.342 129.923 194.601 
115.109 134.221 194.211 116.969 140.067 194.382 117.786 139.746 194.313 
118.489 139.738 194.683 118.479 139.237 194.632 118.409 140.386 194.406 
120.758 149.473 194.583 117.155 155.467 194.027 117.734 158.799 194.559 
119.486 161.414 195.152 120.416 161.538 194.241 119.807 161.546 194.768 
99.4762 98.7562 196.644 99.9802 99.2714 195.957 100.517 99.1309 196.224 
100.193 99.6386 195.605 97 100.009 195.017 97 100.009 195.017 
97 100.009 195.017 97 100.009 195.017 103.726 100.997 195.166 
97 100.009 195.017 107.013 105.472 196.189 106.645 105.25 195.92 
106.793 105.943 195.586 106.771 106.409 195.348 108.716 110.218 195.283 
106.609 113.509 195.07 111.749 116.795 194.804 110.447 123.761 195.032 
115.093 124.766 195.026 116.978 130.477 195.173 116.422 141.649 194.68 
120.439 146.904 195.3 118.19 160.043 195.56 121.555 159.697 195.244 
120.555 161.443 195.54 98.724 98.4889 196.991 98.5897 98.3926 197.1 
98.6177 98.3892 197.149 99.4507 98.5944 196.997 95 99.0087 196.017 
95 99.0087 196.017 95 99.0088 196.017 95 99.0088 196.017 
102.005 99.729 196.561 95 99.0088 196.017 97 100.009 195.017 
96.8853 100.242 197.323 99.2506 100.419 195.716 103.271 100.618 196.113 
105.076 102.842 195.941 103.779 111.408 196.009 113.083 112.585 197.338 
113.709 113.044 197.569 113.713 112.962 197.641 113.779 113.07 197.715 
105.39 115.358 196.185 119.188 140.414 195.466 114.85 141.838 195.912 
119.694 161.588 196.055 119.758 161.581 196.509 120.453 161.441 196.338 
120.759 161.207 196.147 97.8096 98.2038 197.739 97.9399 98.467 197.463 
98.3298 98.3263 197.479 93.5043 99.0044 197.017 93.5043 99.0043 197.018 
93.5043 99.0044 197.017 93.5044 99.0044 197.017 93.5044 99.0043 197.017 
95 99.0087 196.017 93.5045 99.0044 197.018 97.2497 99.7315 197.247 
93.5043 99.0044 197.017 93.5044 99.0044 197.018 96.3091 99.869 197.833 
98.2908 100.526 196.355 97.0521 100.955 197.196 104.735 102.261 197.338 
110.609 109.334 197.655 113.905 113.192 198.106 115.338 116.323 198.39 
115.971 120.079 197.864 116.939 123.003 197.87 116.475 123.936 196.787 
117.202 124.544 197.818 117.256 124.368 197.985 117.379 130.235 195.954 
114.762 144.879 196.442 121.275 160.493 196.054 120.932 160.898 196.827 
96.4292 97.5903 199.071 96.3992 97.5829 199.114 96.4019 97.5808 199.078 
96.495 97.6486 199.086 96.444 97.643 199.055 97.6482 98.1353 198.138 
97.1755 98.3327 198.112 99.72 98.5903 198.84 93.5043 99.0044 197.018 
93.5044 99.0044 197.018 96.1785 98.9483 198.332 94.0071 100.538 199.286 
102.631 100.27 197.887 111.591 109.815 198.74 115.063 114.898 198.967 
116.312 120.226 198.457 117.308 124.394 198.491 117.638 126.789 198.239 
113.817 144.731 197.477 116.518 157.757 198.041 120.043 161.538 196.961 
96.326 97.6009 199.199 96.4201 97.6183 199.199 96.6059 97.7056 199.261 
96.3095 97.6884 199.156 96.7034 97.8856 198.888 95.871 97.8531 199.498 
97.3576 97.9 199.115 95.2498 98.295 199.441 93.9593 102.486 199.469 
95.2353 103.707 198.955 116.581 120.992 199.381 117.672 126.125 199.419 
113.646 149.283 198.642 115.552 156.214 199.083 120.125 161.206 198.491 
92.9475 96.7439 202.109 92.8378 96.7118 202.221 96.2156 97.6636 199.272 
96.2996 97.6616 199.387 95.4565 97.4795 200.503 96.3864 97.6498 199.959 
97.5586 97.8721 200.485 92.609 102.143 200.578 92.9795 99.5972 200.303 
105.28 103.14 200.343 111.217 109.187 200.242 119.41 161.015 199.479 
120.302 160.992 199.071 92.7345 96.6169 202.51 93.3466 96.9698 201.818 
92.7461 97.0642 201.957 92.5281 97.9773 201.419 97.9846 98.0574 201.139 
91.1603 100.696 201.502 91.1264 100.74 201.543 91.1462 100.864 201.564 
91.0642 100.729 201.685 91.067 100.893 201.716 91.5262 100.543 201.309 
[...]
POINT_DATA 1286
SCALARS scalars float
LOOKUP_TABLE default
1 1 1 1 1 1 1 1 1 
1 1 1 1 1 1 1 1 1 
1 1 1 1 1 1 1 1 1 
1 1 1 1 1 1 1 1 1 
1 1 1 1 1 1 1 1 1 
1 1 1 1 1 1 1 1 1 
1 1 1 1 1 1 1 1 1 
1 1 1 1 1 1 1 1 1 
1 1 1 1 1 1 1 1 1 
1 1 1 1 1 1 1 1 1 
1 1 1 1 1 1 1 1 1 
1 1 1 1 1 1 1 1 1 
1 1 1 1 1 1 1 1 1 
1 1 1 1 1 1 1 1 1 
1 1 1 1 1 1 1 1 1 
1 1 1 1 1 1 1 1 1 
1 1 1 1 1 1 1 1 1 
1 1 1 1 1 1 1 1 1 
1 1 1 1 1 1 1 1 1 
1 1 1 1 1 1 1 1 1 
1 1 1 1 1 1 1 1 1 
1 1 1 1 1 1 1 1 1 
1 1 1 1 1 1 1 1 1 
1 1 1 1 1 1 1 1 1 
1 1 1 1 1 1 1 1 1 
1 1 1 1 1 1 1 1 1 
1 1 1 1 1 1 1 1 1 
1 1 1 1 1 1 1 1 1 
1 1 1 1 1 1 1 1 1 
1 1 1 1 1 1 1 1 1 
1 1 1 1 1 1 1 1 1 
1 1 1 1 1 1 1 1 1 
1 1 1 1 1 1 1 1 1 
1 1 1 1 1 1 1 1 1 
1 1 1 1 1 1 1 1 1 
1 1 1 1 1 1 1 1 1 
1 1 1 1 1 1 1 1 1 
1 1 1 1 1 1 1 1 1 
1 1 1 1 1 1 1 1 1 
1 1 1 1 1 1 1 1 1 
1 1 1 1 1 1 1 1 1 
1 1 1 1 1 1 1 1 1 
1 1 1 1 1 1 1 1 1 
1 1 1 1 1 1 1 1 1 
1 1 1 1 1 1 1 1 1 
1 1 1 1 1 1 1 1 1 
1 1 1 1 1 1 1 1 1 
1 1 1 1 1 1 1 1 1 
1 1 1 1 1 1 1 1 1 
1 1 1 1 1 1 1 1 1 
1 1 1 1 1 1 1 1 1 
1 1 1 1 1 1 1 1 1 
1 1 1 1 1 1 1 1 1 
1 1 1 1 1 1 1 1 1 
1 1 1 1 1 1 1 1 1 
1 1 1 1 1 1 1 1 1 
1 1 1 1 1 1 1 1 1 
1 1 1 1 1 1 1 1 1 
1 1 1 1 1 1 1 1 1 
1 1 1 1 1 1 1 1 1 
1 1 1 1 1 1 1 1 1 
1 1 1 1 1 1 1 1 1 
1 1 1 1 1 1 1 1 1 
1 1 1 1 1 1 1 1 1 
1 1 1 1 1 1 1 1 1 
1 1 1 1 1 1 1 1 1 
1 1 1 1 1 1 1 1 1 
1 1 1 1 1 1 1 1 1 
1 1 1 1 1 1 1 1 1 
1 1 1 1 1 1 1 1 1 
1 1 1 1 1 1 1 1 1 
1 1 1 1 1 1 1 1 1 
1 1 1 1 1 1 1 1 1 
1 1 1 1 1 1 1 1 1 
1 1 1 1 1 1 1 1 1 
1 1 1 1 1 1 1 1 1 
1 1 1 1 1 1 1 1 1 
1 1 1 1 1 1 1 1 1 
1 1 1 1 1 1 1 1 1 
1 1 1 1 1 1 1 1 1 
1 1 1 1 1 1 1 1 1 
1 1 1 1 1 1 1 1 1 
1 1 1 1 1 1 1 1 1 
1 1 1 1 1 1 1 1 1 
1 1 1 1 1 1 1 1 1 
1 1 1 1 1 1 1 1 1 
1 1 1 1 1 1 1 1 1 
1 1 1 1 1 1 1 1 1 
1 1 1 1 1 1 1 1 1 
1 1 1 1 1 1 1 1 1 
1 1 1 1 1 1 1 1 1 
1 1 1 1 1 1 1 1 1 
1 1 1 1 1 1 1 1 1 
1 1 1 1 1 1 1 1 1 
1 1 1 1 1 1 1 1 1 
1 1 1 1 1 1 1 1 1 
1 1 1 1 1 1 1 1 1 
1 1 1 1 1 1 1 1 1 
1 1 1 1 1 1 1 1 1 
1 1 1 1 1 1 1 1 1 
1 1 1 1 1 1 1 1 1 
1 1 1 1 1 1 1 1 1 
1 1 1 1 1 1 1 1 1 
1 1 1 1 1 1 1 1 1 
1 1 1 1 1 1 1 1 1 
1 1 1 1 1 1 1 1 1 
1 1 1 1 1 1 1 1 1 
1 1 1 1 1 1 1 1 1 
1 1 1 1 1 1 1 1 1 
1 1 1 1 1 1 1 1 1 
1 1 1 1 1 1 1 1 1 
1 1 1 1 1 1 1 1 1 
1 1 1 1 1 1 1 1 1 
1 1 1 1 1 1 1 1 1 
1 1 1 1 1 1 1 1 1 
1 1 1 1 1 1 1 1 1 
1 1 1 1 1 1 1 1 1 
1 1 1 1 1 1 1 1 1 
1 1 1 1 1 1 1 1 1 
1 1 1 1 1 1 1 1 1 
1 1 1 1 1 1 1 1 1 
1 1 1 1 1 1 1 1 1 
1 1 1 1 1 1 1 1 1 
1 1 1 1 1 1 1 1 1 
1 1 1 1 1 1 1 1 1 
1 1 1 1 1 1 1 1 1 
1 1 1 1 1 1 1 1 1 
1 1 1 1 1 1 1 1 1 
1 1 1 1 1 1 1 1 1 
1 1 1 1 1 1 1 1 1 
1 1 1 1 1 1 1 1 1 
1 1 1 1 1 1 1 1 1 
1 1 1 1 1 1 1 1 1 
1 1 1 1 1 1 1 1 1 
1 1 1 1 1 1 1 1 1 
1 1 1 1 1 1 1 1 1 
1 1 1 1 1 1 1 1 1 
1 1 1 1 1 1 1 1 1 
1 1 1 1 1 1 1 1 1 
1 1 1 1 1 1 1 1 1 
1 1 1 1 1 1 1 1 1 
1 1 1 1 1 1 1 1 1 
1 1 1 1 1 1 1 1 
NORMALS Normals float
0.399931 -0.183864 -0.897914 -0.246359 -0.925443 -0.28786 -0.883244 -0.0566547 -0.465478 
0.811 -0.506125 0.293456 -0.421235 0.57805 -0.69887 -0.842092 0.317867 0.435708 
0.87384 0.330522 -0.356592 0.0955476 0.980719 0.170473 -0.879627 -0.117127 -0.461017 
-0.816559 -0.246416 -0.522025 -0.57259 -0.438613 0.692646 0.919015 0.393388 0.0256325 
-0.907312 -0.063849 -0.415581 0.367034 0.518595 -0.772234 0.515378 0.10788 0.850146 
-0.732864 0.26872 -0.62506 -0.799324 -0.140066 -0.584348 -0.720082 0.304971 -0.623278 
-0.722798 0.312191 -0.616522 0.605897 0.763596 -0.223182 -0.528374 0.595059 -0.605579 
-0.755165 -0.332571 -0.564909 -0.722848 -0.517126 -0.458335 -0.799884 -0.372865 -0.470274 
-0.691582 -0.596079 -0.407927 0.417724 -0.904086 -0.0901979 -0.819368 -0.321491 -0.474636 
0.927799 0.160755 0.33667 -0.66244 0.325882 -0.674518 -0.157198 0.738721 -0.655423 
0.0668192 0.771531 -0.632672 0.00299212 -0.854499 -0.519445 0.534925 -0.816412 0.217548 
-0.598308 -0.479404 -0.642027 0.724395 -0.685086 -0.0768737 0.849527 -0.429242 0.306684 
-0.726203 -0.355639 -0.588345 0.965446 -0.11405 0.234322 0.922603 -0.145247 0.357361 
-0.806545 0.00372673 -0.59116 -0.375512 0.52841 -0.761429 0.722478 0.644575 -0.250095 
-0.504536 0.471462 -0.723303 -0.45545 0.68459 -0.569124 0.602865 0.74464 -0.286469 
-0.495387 -0.669547 -0.553442 0.0474282 -0.895028 -0.443481 -0.620473 -0.540557 -0.568164 
0.71566 -0.694892 -0.0704016 -0.644481 0.421681 -0.637832 0.203804 0.880717 -0.427553 
0.395623 0.900677 -0.179619 0.3879 0.700964 -0.598484 -0.223776 0.600658 -0.767551 
0.0102295 0.909065 -0.416529 0.740774 -0.663978 -0.101915 0.835407 0.50686 -0.212577 
0.200704 0.681554 -0.703706 -0.163526 0.507547 -0.845964 -0.523104 0.496056 -0.69303 
0.713338 0.693116 -0.103627 0.958773 -0.272098 0.0819563 0.364908 -0.821272 -0.438582 
-0.0159666 -0.657639 -0.753164 0.629019 -0.777354 0.00745469 0.746722 -0.627579 -0.220342 
-0.391151 -0.691165 -0.607694 -0.422733 -0.603094 -0.676443 -0.598324 0.460825 -0.655476 
-0.252722 0.854426 -0.453969 -0.426557 0.764659 -0.483058 0.777902 0.622933 -0.0825994 
0.50351 -0.439251 -0.744 -0.0808575 -0.686196 -0.722909 0.785565 -0.605787 -0.126133 
-0.42092 -0.392891 -0.817596 0.794523 -0.451561 -0.405987 -0.143879 -0.389057 -0.909908 
-0.348203 -0.780891 -0.518617 0.0568133 -0.605732 -0.793638 0.621093 -0.587304 -0.518958 
0.61494 -0.785501 -0.0695544 0.269108 -0.802776 -0.532102 0.823525 -0.532903 -0.194477 
0.957072 -0.276952 0.085507 -0.59214 0.536667 -0.601132 -0.67289 0.601861 -0.430096 
0.0162413 -0.682159 -0.731024 -0.261369 -0.750195 -0.607367 -0.671562 -0.56783 -0.475998 
0.648643 -0.527073 -0.549051 -0.0120826 -0.603816 -0.797032 -0.229675 0.707981 0.667842 
0.87814 -0.125847 -0.461555 -0.0265568 -0.902949 -0.428927 0 0.707107 0.707107 
0.458283 -0.844509 -0.277094 -0.409853 -0.644227 -0.64575 -0.0206918 -0.607861 -0.793774 
-0.60626 -0.301112 -0.736057 -0.763319 -0.193088 -0.616491 -0.842821 0.24694 -0.478198 
-0.187728 0.895765 -0.402944 -0.708099 -0.610516 -0.354776 0.264584 -0.0777687 -0.961222 
-0.15346 -0.160849 -0.974976 -0.211935 0.120822 -0.969787 0.129984 0.217387 -0.967392 
0.309305 -0.20648 -0.928276 -0.114211 -0.0494673 -0.992224 0.639722 -0.17648 -0.748071 
0.0222506 0.106959 -0.994014 0.9751 0.147074 0.165982 0.795709 0.0561415 -0.603071 
0.369876 0.0977139 -0.923929 0.351256 0.00885058 -0.936238 0.177777 -0.00768889 -0.984041 
0.4371 -0.274739 -0.856424 -0.234947 0.0738752 -0.969197 0.337883 -0.00652577 -0.941166 
0.902506 -0.277315 -0.329513 -0.533838 0.190518 -0.823845 -0.219994 0.163239 -0.961746 
-0.156728 0.0396543 -0.986845 0.482364 -0.242204 -0.841821 0.379637 -0.0406646 -0.924241 
0.667519 -0.164665 -0.726157 0.369557 -0.835996 -0.405634 -0.500754 -0.761838 -0.410911 
0.68389 0.531601 0.499695 -0.0782825 0.692603 0.717058 0.046219 0.74628 0.664025 
-0.715768 -0.265751 -0.645796 0.403745 -0.69125 -0.599302 -0.75332 -0.271462 -0.599014 
-0.763843 0.524371 -0.37627 0.912449 0.403117 0.0702423 -0.729258 0.641812 -0.237192 
0.36467 0.921901 -0.130822 0.725428 0.687079 -0.0409488 0.191942 -0.322285 -0.926979 
-0.0958332 -0.632559 -0.76856 -0.431171 -0.595627 -0.677732 0.719521 -0.581728 -0.379318 
-0.246646 -0.612131 -0.751306 0.771943 -0.633877 -0.0480061 -0.229061 -0.373249 -0.899008 
0.0274445 -0.0959202 -0.995011 0.0259325 -0.0757726 -0.996788 -0.060793 -0.0380344 -0.997426 
0.389776 -0.274804 -0.878952 0.439641 -0.0756034 -0.894986 -0.0988528 0.0774378 -0.992085 
-0.0269743 0.148853 -0.988491 -0.0350716 -0.0759493 -0.996495 0.180101 -0.279375 -0.94314 
-0.042167 -0.133198 -0.990192 0.0114274 -0.0672283 -0.997672 -0.113207 0.062189 -0.991623 
-0.0330351 -0.149085 -0.988272 0.182365 -0.19916 -0.962849 0.0251718 -0.0714156 -0.997129 
-0.227326 0.101935 -0.968469 0.428358 -0.0259441 -0.903237 0.0469223 0.114907 -0.992267 
-0.0697231 0.04329 -0.996627 0.274966 -0.0479105 -0.96026 0.234764 0.0231229 -0.971777 
0.176597 -0.0757593 -0.981363 -0.139907 -0.139121 -0.980343 0.348019 -0.299029 -0.888518 
-0.974998 -0.147096 -0.166561 0.643976 -0.113783 -0.756537 -0.0670049 0.122679 -0.990182 
0.577339 -0.365489 -0.730136 -0.578498 0.456006 -0.676312 -0.874114 0.395519 -0.28194 
0.0298657 -0.0632723 -0.997549 -0.755445 -0.106514 -0.646496 0.978475 -0.201384 -0.0450687 
0.795456 -0.215582 -0.566369 0.181581 -0.130374 -0.974695 -0.0777663 0.0358923 -0.996325 
0.104936 -0.0621195 -0.992537 0.401981 -0.0487953 -0.914347 0.812326 0.487707 0.319794 
0.735864 -0.0424218 -0.675799 -0.534522 -0.801784 -0.267261 0.385815 -0.417125 -0.822893 
-0.273656 -0.411692 -0.869265 0.683655 -0.231547 -0.6921 -0.843176 -0.0506227 -0.535248 
0.978253 0.188543 0.086444 0.364647 0.928102 -0.0752325 -0.211343 0.974005 -0.081537 
0.101891 -0.698094 -0.708719 0.0624961 -0.887643 -0.456272 -0.361386 -0.646019 -0.672354 
0.270804 -0.956719 -0.106555 0.549843 -0.834041 -0.0452533 -0.190423 -0.571664 -0.798084 
-0.25531 -0.645423 -0.719893 0.319386 -0.908074 -0.270914 -0.32314 -0.387479 -0.863389 
-0.50539 -0.0126968 -0.862798 -0.198949 -0.215352 -0.956056 0.477621 -0.344777 -0.808088 
-0.291386 -0.0749005 -0.953669 -0.278554 0.0658911 -0.958157 -0.430537 0.279571 -0.858183 
0.376182 0.0117113 -0.926472 0.0453801 0.211543 -0.976315 -0.0364076 0.22504 -0.973669 
0.131671 0.0429423 -0.990363 -0.144119 0.430781 -0.890874 0.117824 -0.0342276 -0.992444 
-0.0623458 0.108281 -0.992163 -0.0237651 0.0904934 -0.995614 -0.328883 0.0982217 -0.939249 
-0.117881 0.134724 -0.983846 -0.115877 0.095268 -0.988684 0.104439 -0.18115 -0.977894 
0.388686 -0.194607 -0.900584 -0.211641 0.105462 -0.971641 -0.022269 -0.0627696 -0.99778 
-0.370214 0.0798998 -0.925504 -0.299181 0.327261 -0.896321 0.675334 -0.107556 -0.729627 
0.816842 -0.242191 -0.523558 -0.178505 0.332861 -0.925926 0.994028 -0.00656005 -0.108925 
-0.129747 0.821193 -0.555704 -0.800106 0.538462 0.264367 -0.703984 -0.319359 -0.634363 
-0.347579 -0.0004312 -0.937651 -0.35903 -0.544478 -0.758051 0.218102 -0.654083 0.724297 
0.872527 -0.472728 -0.123391 -0.320794 -0.0949938 -0.942373 -0.691724 -0.125069 -0.71125 
0.767509 0.640602 -0.0236503 0.237602 -0.937455 -0.254408 -0.3656 -0.293555 -0.883268 
0.734297 -0.351816 -0.580547 0.835343 -0.492372 -0.244483 0.752174 -0.270221 -0.601011 
-0.217701 0.109123 -0.969896 0.151607 0.0279178 -0.988047 0.186797 -0.0300746 -0.981938 
0.35242 -0.223534 -0.908753 0.247338 -0.160233 -0.955588 0.187544 -0.181353 -0.96537 
0.301638 -0.0856029 -0.949572 0.0174233 -0.0417366 -0.998977 0.406392 -0.22612 -0.885277 
-0.330557 0.134739 -0.934119 0.605956 -0.239268 -0.758662 0.690937 -0.248555 -0.678843 
-0.45163 0.240047 -0.859307 -0.282351 0.0262487 -0.958952 0.197264 0.0488469 -0.979133 
0.653381 0.0310817 -0.756391 0.872205 -0.0622257 -0.485166 0.548857 -0.54991 -0.629568 
0.91162 -0.313581 -0.265736 -0.880112 0.177605 -0.440295 -0.876229 0.317711 -0.362329 
-0.737034 0.671567 -0.0760211 0.122056 0.992499 -0.00695119 -0.428599 0.887154 -0.171056 
-0.051033 -0.794903 -0.604586 -0.0643183 -0.771738 -0.632679 0.299643 -0.936382 -0.182762 
-0.282368 -0.593228 -0.753889 0 0.268207 -0.963361 -0.83205 -0.5547 0 
-0.987175 0.159641 0 0.987175 0.159641 0 0.701121 -0.69861 -0.142738 
0 1 0 0.733534 -0.395072 -0.553033 0.605678 -0.406241 -0.684195 
0.596103 -0.389335 -0.702196 0.524522 -0.307997 -0.793735 0.416972 -0.261945 -0.870356 
-0.251942 0.154915 -0.955262 0.36535 -0.262211 -0.893177 -0.407148 0.157777 -0.899632 
0.647797 -0.18261 -0.739603 0.780609 -0.141513 -0.608789 -0.50946 0.143843 -0.848387 
0.942816 -0.164661 -0.289801 -0.789601 0.591185 -0.164409 0.980624 0.153549 0.121656 
0.587084 0.808985 0.029574 0.182645 -0.870112 -0.457762 -0.211724 -0.736054 -0.64296 
0.218504 -0.951704 -0.215674 0.227802 -0.942155 -0.245865 0 0.268207 -0.963361 
-0.83205 -0.5547 0 -0.987175 0.159641 0 0.987175 0.159641 0 
0.52437 -0.850093 0.0487593 0 1 0 0 0.268207 0.963361 
-0.521101 -0.185827 -0.83302 -0.496758 -0.308237 -0.811309 0.681265 -0.731261 0.0337076 
0.793658 -0.543554 -0.273234 -0.490798 0.308936 -0.814663 0.627544 -0.505355 -0.592288 
0.728894 -0.237213 -0.642218 0.771097 -0.58928 -0.241162 0.930152 -0.00987051 -0.367043 
-0.524166 0.28706 -0.801777 0.830808 -0.215215 -0.513264 -0.683665 0.120186 -0.719831 
-0.250939 0.967963 0.008756 -0.445585 0.888369 0.110698 0.560838 0.810853 0.167266 
0.721999 0.67866 0.134676 -0.29791 -0.787235 -0.539917 -0.388716 -0.620459 -0.681124 
0.0361259 -0.970435 -0.238644 -0.398856 -0.445178 -0.801705 -0.570888 -0.782277 0.249259 
-0.995631 0.014417 -0.0922583 0.574891 0.574608 -0.582517 0.633607 -0.727811 -0.262359 
0 0.268207 0.963361 0.967998 0.206547 0.14254 -0.48894 -0.256532 -0.833744 
-0.46947 0.814144 -0.341712 0.242899 0.879313 0.409645 -0.576532 -0.0773391 -0.813406 
-0.541121 -0.160481 -0.82549 -0.561629 0.00816942 -0.827349 0.737171 -0.675438 0.0190729 
0.709223 -0.581719 -0.398254 0.853517 -0.519634 -0.03859 0.922379 -0.24433 -0.299198 
0.86472 -0.102855 -0.49161 0.911468 -0.363151 -0.193257 0.805305 -0.217242 -0.551625 
0.951719 -0.0698897 -0.29891 0.946588 -0.0979478 -0.307209 0.867406 -0.189041 -0.460294 
-0.63385 0.237629 -0.736048 0.899603 0.422242 0.111473 0.864762 0.446545 0.229749 
0.436577 -0.777109 -0.453323 0.320284 -0.926245 0.198718 -0.438442 -0.688449 -0.577761 
0.582393 -0.794122 -0.173752 -0.100102 -0.305674 -0.94686 0.0497818 -0.974476 -0.218902 
-0.418206 -0.715651 -0.559417 0.418058 -0.907254 0.0460156 -0.696711 0.42345 0.579037 
0.407986 -0.37495 0.832442 -0.506071 -0.45547 -0.73242 -0.553196 -0.259043 -0.791752 
0.560627 -0.819952 0.11566 0.729965 -0.639581 -0.241012 0.902597 -0.418837 -0.0994701 
0.957967 -0.0993643 -0.26912 0.988716 -0.147602 0.0255699 0.917518 -0.127208 -0.3768 
-0.722554 0.160044 -0.672533 -0.848183 0.517963 -0.110903 0.352093 0.925698 0.13825 
-0.171283 -0.973308 0.152753 0.335463 -0.905741 0.259033 0.331503 -0.942812 -0.0348079 
-0.648168 -0.0749999 -0.757795 -0.157103 -0.7205 -0.675425 -0.484785 -0.729881 -0.481931 
0.287624 -0.952648 -0.0986656 -0.456137 -0.561542 -0.69037 -0.61257 0.146988 -0.776629 
-0.55447 0.287146 -0.781095 0.983608 -0.178266 -0.0271342 0.976863 -0.204165 0.0636853 
-0.797936 0.217183 -0.562254 -0.871817 0.481984 -0.0873332 0.568588 0.815655 0.10684 
-0.101295 -0.845216 -0.524738 -0.456627 -0.734951 -0.501337 -0.625458 -0.742627 -0.239389 
-0.0901974 -0.973679 0.209318 -0.094027 -0.929406 -0.356881 0.0809597 -0.995352 -0.0521547 
0.276682 -0.960604 0.0262051 -0.72492 0.327016 -0.606261 -0.617206 -0.242517 -0.748493 
0.658634 -0.734005 0.165643 0.763554 -0.645147 0.0277606 -0.578779 0.805468 0.127419 
0.523409 0.811162 0.260881 -0.0650163 -0.960301 -0.271282 -0.14689 -0.773528 -0.616504 
-0.425711 -0.597613 -0.679433 -0.568118 -0.481933 -0.66707 0.376138 -0.9244 0.0632811 
-0.635006 -0.198032 -0.746693 -0.844645 0.0474 -0.533224 -0.691933 0.25094 -0.676947 
-0.953284 -0.0597335 -0.296112 -0.922552 0.246391 -0.296967 -0.597397 -0.0372876 -0.801078 
0.499864 -0.855063 0.13785 -0.711928 0.371587 -0.595887 -0.745904 0.479667 -0.462111 
-0.675278 0.297505 -0.6749 -0.740321 0.645473 0.187856 -0.653308 0.679604 0.333657 
-0.0847116 0.939824 0.330991 0.817806 0.558873 0.13731 -0.143068 -0.852026 -0.503571 
0.0566059 -0.974066 -0.219069 -0.645855 -0.575029 -0.502208 -0.594057 -0.60932 -0.525191 
-0.460186 -0.587105 -0.665986 -0.568363 -0.479651 -0.668505 0.256736 -0.963495 -0.0759256 
-0.82375 -0.346546 -0.448711 -0.557413 -0.443779 -0.701678 -0.694045 -0.42971 -0.577625 
-0.844249 0.415337 -0.338732 -0.798309 0.492486 -0.34664 0.924291 -0.366543 0.106454 
0.939957 0.165316 0.298584 -0.515414 0.677337 0.524941 0.726599 0.596154 0.341547 
-0.457085 -0.702834 -0.545066 -0.588496 -0.538276 -0.603268 -0.42736 -0.88124 -0.20194 
-0.0536453 -0.992586 -0.109066 -0.705728 -0.384332 -0.595178 -0.731532 0.324893 -0.599421 
0.974237 -0.0999308 0.202177 -0.834065 0.272407 -0.479718 -0.819352 0.569113 -0.0690816 
-0.688953 0.693544 0.210573 -0.423117 0.811926 0.40218 -0.4205 0.759872 0.495756 
0.505589 0.763563 0.401686 -0.75777 -0.517454 -0.397525 -0.385643 -0.878883 -0.280791 
-0.919508 -0.288852 -0.266589 0.0447163 -0.998404 0.0344944 -0.963251 -0.213997 -0.162335 
-0.904382 -0.236462 -0.355216 -0.837947 -0.230246 -0.494805 -0.948032 0.306017 0.0871137 
-0.880211 0.431956 -0.196578 -0.721355 0.272288 -0.636794 -0.876738 0.435031 -0.20513 
-0.403515 0.795316 0.452381 -0.0838696 0.779446 0.620829 0.744226 0.471526 0.473066 
0.645309 0.599608 0.473335 0.22923 0.74879 0.621906 -0.732589 -0.645268 -0.216661 
-0.201775 -0.949655 0.239673 -0.774337 -0.549911 0.31305 -0.037432 -0.989334 0.140773 
0.0838573 -0.958206 0.273513 -0.992164 -0.122753 -0.0232713 -0.958314 -0.184757 0.217942 
-0.0935442 -0.962235 0.255643 -0.995829 -0.0866066 -0.0287014 0.873886 -0.418008 0.248178 
0.941179 -0.063389 0.331909 0.485424 0.565358 0.666884 -0.568333 -0.62027 0.540613 
-0.871592 -0.315996 0.374797 -0.967802 -0.171664 0.184095 -0.991374 -0.0221932 0.12917 
-0.945042 0.326899 0.00576788 -0.897125 0.353958 -0.26435 -0.896993 0.389085 -0.209801 
-0.598837 0.729721 0.330002 -0.175644 0.777369 0.604025 -0.483936 -0.794274 0.367335 
-0.902591 -0.196107 0.383237 0.309675 -0.941001 0.136451 -0.908385 0.367541 -0.199376 
-0.920544 0.383868 -0.0724141 0.544089 0.504087 0.670719 0.0130038 -0.910566 0.41316 
-0.396016 -0.829425 0.393987 -0.795726 -0.423227 0.433242 -0.935394 -0.12492 0.330806 
-0.902835 0.315238 0.292428 0.702493 -0.701922 0.117515 -0.91514 0.399927 -0.0507621 
-0.911562 0.406566 -0.061315 -0.89721 0.411649 0.159873 0.72716 0.298301 0.618268 
-0.197339 0.757382 0.622438 0.168825 0.680684 0.712858 0.0671492 0.653272 0.754139 
0.3547 0.595484 0.720823 -0.745785 -0.487371 0.454173 -0.833877 -0.278666 0.476439 
-0.84354 0.18418 0.504498 0.564635 -0.786704 0.249568 -0.920359 0.350878 0.172694 
0.916983 -0.191373 0.350027 -0.926525 0.3298 0.181062 -0.908981 0.404389 0.10111 
-0.89581 0.418627 0.149253 -0.889467 0.399163 0.222524 -0.816144 0.5401 0.205427 
-0.20017 0.713701 0.671239 0.264376 0.62431 0.735079 -0.339554 -0.689905 0.639324 
-0.765675 -0.363563 0.530626 -0.779003 -0.0871179 0.620938 0.281339 -0.819205 0.499752 
-0.821094 0.05179 0.568438 -0.909453 0.383039 0.161793 -0.905338 0.360269 0.224876 
0.832137 -0.11879 0.541698 0.827107 0.065519 0.558212 -0.602717 0.646065 0.468328 
-0.587869 -0.37244 0.718121 -0.413088 -0.436472 0.799281 -0.0312258 -0.71783 0.695518 
-0.608047 -0.232392 0.759126 0.231801 -0.723495 0.650248 -0.642642 -0.0879786 0.761099 
-0.863341 0.171711 0.474508 -0.819822 0.237701 0.520951 0.884948 -0.374978 0.27615 
-0.89642 0.339572 0.284819 0.864064 -0.18167 0.469457 -0.836297 0.315527 0.448387 
0.706227 -0.126481 0.696596 0.721075 0.0248986 0.692409 0.745978 0.253651 0.615775 
-0.278908 -0.54358 0.791664 -0.17647 -0.513747 0.839597 0.062936 -0.628721 0.77508 
-0.372874 -0.386236 0.843674 -0.210664 -0.405463 0.889506 -0.325798 -0.238244 0.91493 
-0.61326 -0.0541915 0.78802 -0.542309 -0.103248 0.833811 -0.51688 -0.0334199 0.855405 
0.439707 -0.825393 0.354097 0.811233 -0.576678 0.0966618 -0.808329 0.295968 0.508927 
-0.807595 0.391387 0.441142 -0.748414 0.352998 0.561489 0.812943 0.0018268 0.582341 
-0.762828 0.409903 0.500073 0.702538 0.0395017 0.710549 -0.713175 0.303012 0.632112 
-0.153611 0.631061 0.760372 -0.043751 0.577797 0.815007 -0.0924402 -0.383959 0.918711 
-0.0243957 -0.442783 0.896297 0.0210089 -0.629721 0.776537 0.10187 -0.699409 0.707424 
0.359235 -0.732825 0.577856 -0.162042 -0.394509 0.904492 -0.609061 0.140446 0.780589 
0.771692 -0.354054 0.528334 0.802862 -0.312495 0.507701 -0.799861 0.282204 0.529701 
0.814505 -0.032908 0.579222 -0.600974 0.446397 0.662993 -0.431856 0.47395 0.76738 
-0.512759 0.413409 0.752443 -0.258172 0.363176 0.895238 -0.208968 0.469937 0.857608 
0.534214 0.218164 0.816713 0.277573 0.506367 0.816423 -0.128885 -0.368245 0.920752 