# vtk DataFile Version 4.2
vtk output
ASCII
DATASET POLYDATA
POINTS 1482 float
98.1846 133.872 178.518 98.0246 133.903 178.423 98.2594 134.15 178.431 
100.187 136.844 178.348 100.667 137.431 178.339 100.928 137.747 178.396 
101.167 138.305 178.309 99.2792 138.799 177.783 100.132 138.428 177.834 
102.561 140.312 177.935 102.475 140.257 177.971 102.569 140.358 177.924 
102.596 140.36 177.941 98.942 139.533 178.054 102.511 140.397 177.931 
102.321 140.284 177.965 102.65 140.497 177.995 101.76 140.882 177.712 
101.644 140.876 177.7 102.489 140.619 177.949 101.872 141.16 177.783 
97.8608 133.154 178.77 97.2797 133.214 178.504 97.6291 133.718 178.422 
99.7087 135.582 178.939 98.6539 135.922 178.13 101.386 139.115 178.094 
102.562 140.298 178.026 100.947 140.216 177.753 101.823 140.247 177.891 
102.264 139.927 178.232 102.767 140.473 178.255 102.982 141.012 178.146 
97.9563 140.289 179.273 101.103 140.588 177.683 101.354 140.818 177.717 
102.594 141.306 177.95 103.53 141.436 178.341 101.443 141.488 177.924 
103.909 141.886 178.561 105.118 143.392 178.541 104.925 143.24 178.565 
105.139 143.553 178.522 105.199 143.457 178.567 105.33 143.565 178.686 
103.656 143.579 178.081 105.89 144.49 178.787 103.886 144.3 178.286 
105.13 144.92 178.493 106.282 144.932 179.076 106.945 146.273 179.277 
105.622 146.415 178.804 106.274 147.082 178.97 106.583 146.992 179.027 
106.248 147.257 179.022 94.7838 127.77 180.259 94.2952 127.49 180.289 
94.3771 128.306 179.951 95.2796 128.088 180.395 94.4991 129.035 179.709 
94.1281 130.742 179.568 95.1924 131.377 179.142 95.3085 134.565 179.549 
102.134 139.048 179.1 101.133 140.716 177.684 99.5595 142.505 179.345 
103.804 143.753 178.076 107.049 146.087 179.554 105.868 146.973 178.983 
108.179 149.609 179.976 108.573 149.395 180.039 108.627 149.935 179.944 
108.945 150.127 179.962 108.999 150.4 179.958 110.327 151.724 179.285 
110.42 151.816 179.224 110.218 151.607 179.356 110.309 151.724 179.321 
110.502 151.905 179.171 110.517 151.919 179.162 110.49 151.905 179.197 
110.586 151.998 179.118 110.597 152.006 179.11 110.622 152.039 179.101 
110.684 152.103 179.056 110.654 152.072 179.075 110.666 152.082 179.065 
110.695 152.114 179.047 92.9552 126.195 180.769 92.9571 126.69 180.605 
93.5076 128.335 180.143 92.9893 128.353 180.446 93.1755 130.265 180.536 
98.1238 132.51 179.83 93.7651 132.13 180.478 100.368 135.986 179.595 
101.444 137.759 179.442 101.727 138.105 179.713 105.17 142.981 179.76 
106.937 145.52 179.985 103.559 146.765 179.953 108.137 147.957 180.246 
108.901 150.003 180.439 108.465 150.268 180.379 109.366 150.662 179.971 
109.68 151.064 179.692 109.041 150.66 180.191 110.267 151.682 179.368 
110.484 151.896 179.205 110.582 151.997 179.131 110.643 152.059 179.086 
110.687 152.105 179.053 92.5562 123.931 181.794 92.4563 123.66 181.897 
91.9389 124.531 181.532 92.8288 125.037 181.29 93.1567 124.624 181.718 
93.1964 125.008 181.45 91.8648 125.356 181.379 91.3099 125.022 181.734 
100.55 135.933 180.48 96.7918 140.035 180.706 100.27 144.37 180.577 
109.398 150.863 180.144 108.819 150.462 181.243 108.747 150.663 180.943 
109.97 151.39 179.618 110.194 151.601 179.43 110.407 151.812 179.261 
111.004 155.013 180.009 111.004 155.013 180.009 111.004 155.013 180.009 
111.004 155.013 180.009 111.004 155.013 180.009 90.48 120.297 183.33 
90.4323 120.98 182.915 90.9739 120.798 183.157 91.081 121.187 182.881 
90.0055 121.59 182.853 91.3178 121.373 182.85 91.4143 121.542 182.785 
91.437 122.261 182.476 91.92 122.275 182.814 90.2872 122.836 182.57 
91.1756 123.015 182.173 90.0365 123.714 182.833 93.2423 124.402 182.079 
93.6178 124.743 182.273 94.1457 125.766 181.694 106.798 145.272 181.214 
108.545 150.783 181.732 108.344 150.901 182.05 108.644 150.829 182.148 
108.456 151.09 182.441 111.004 155.013 180.009 88.8065 119.04 183.967 
90.7889 120.07 183.883 88.5559 120.215 183.957 91.451 121.465 182.916 
88.8089 121.478 183.866 105.298 143.166 182.032 108.448 150.016 182.885 
108.286 151.293 182.968 108.573 151.248 182.821 108.527 151.64 183.317 
108.56 151.748 183.454 87.2221 114.565 185.559 87.1716 114.634 185.527 
87.2845 118.094 184.918 92.659 122.719 183.617 93.471 124.019 183.331 
90.4003 126.45 183.387 95.649 139.693 183.355 108.147 151.408 183.617 
108.402 151.623 183.581 108.526 151.534 183.359 108.424 151.774 183.774 
108.547 151.825 183.602 108.557 151.792 183.565 108.54 151.857 183.681 
86.8394 113.642 186.044 86.8399 114.418 185.614 87.5523 114.381 186.103 
87.3838 115.085 185.485 88.437 116.106 185.683 90.8749 119.536 184.933 
92.4948 121.925 184.975 108.414 151.103 183.375 108.287 151.103 183.88 
107.662 151.589 184.349 108.117 151.671 184.111 107.885 151.812 184.607 
108.424 151.435 183.449 108.251 151.545 184.158 108.261 151.841 184.16 
108.381 151.685 183.816 108.235 151.924 184.401 108.36 151.868 184.14 
108.502 151.853 183.779 84.0592 109.02 187.357 84.016 109.103 187.326 
83.9249 110.553 186.94 83.2617 111.572 187.377 85.0435 112.865 186.278 
89.7085 117.597 185.829 108.223 151.789 184.56 108.18 151.95 184.648 
82.0345 107.38 188.062 83.2279 106.912 188.303 83.629 107.36 188.302 
83.3343 108.063 187.69 83.0813 108.887 187.49 83.6393 108.846 187.431 
84.3048 109.642 187.264 83.4317 110.299 187.153 89.1132 125.388 186.368 
107.029 151.904 186.157 107.33 151.942 186.327 107.801 151.968 185.423 
108.148 151.956 184.859 108.102 152.005 184.992 79.7736 101.334 189.236 
79.6983 101.243 189.414 79.879 101.31 189.217 79.7961 101.2 189.351 
79.8818 101.203 189.311 79.9545 101.209 189.38 79.7667 101.522 189.18 
79.6699 101.557 189.323 79.8906 101.504 189.135 79.895 101.748 189.088 
79.7807 101.967 189.176 79.8615 102.134 189.129 81.5321 104.044 188.954 
81.3585 104.408 188.762 104.195 143.191 186.674 107.126 149.896 187.529 
105.998 151.552 186.321 107.739 151.576 185.842 107.093 152.075 187.576 
106.834 152.336 187.969 109.004 156.513 187.011 109.004 156.513 187.011 
109.004 156.513 187.011 109.004 156.513 187.011 109.004 156.513 187.011 
109.004 156.513 187.011 109.004 156.513 187.011 109.004 156.513 187.011 
79.6484 101.203 189.617 79.5999 101.602 189.547 80.3197 101.573 189.476 
80.1634 103.126 189.153 79.9249 103.342 189.516 80.4497 103.046 189.013 
80.8186 102.96 189.103 82.2071 104.158 189.598 80.8174 106.455 189.148 
91.7393 120.067 187.788 106.389 148.151 188.014 107.288 151.264 187.561 
106.794 152.45 188.519 109.004 156.513 187.011 109.004 156.513 187.011 
79.7442 101.067 189.901 79.6895 101.087 190.126 81.5048 103.026 189.835 
85.1735 108.564 189.625 106.699 152.415 189.119 106.507 152.603 190.095 
106.198 152.784 189.731 108.004 156.009 189.513 108.004 156.009 189.513 
108.004 156.009 189.513 108.004 156.009 189.513 108.004 156.009 189.513 
79.5745 101.236 190.929 79.4857 101.525 190.563 108.004 156.009 189.513 
108.004 156.009 189.513 108.004 156.009 189.513 108.004 156.009 189.513 
80.0782 101.047 190.639 79.4259 101.487 191.29 79.7901 101.052 191.297 
81.5716 102.344 191.303 108.004 156.009 189.513 105.879 154.084 192.588 
108.004 157.009 191.513 108.004 157.009 191.513 108.004 157.009 191.513 
108.004 157.009 191.513 108.004 157.009 191.513 80.519 100.845 193.063 
80.4627 100.822 193.124 80.4799 100.871 192.928 80.5661 100.883 193.227 
79.4502 101.09 192.655 79.1597 102.445 192.653 106.372 152.851 192.269 
104.988 153.994 192.556 105.427 154.26 192.79 106.005 154.345 193.269 
105.648 154.451 193.141 108.004 157.009 191.513 108.004 157.009 191.513 
108.004 157.009 191.513 108.004 157.009 191.513 79.3191 100.947 193.255 
79.2928 100.983 193.233 79.4162 100.938 193.068 79.3584 100.918 193.199 
79.429 100.901 193.207 80.416 100.821 193.412 79.2919 101.333 193.136 
79.6145 100.924 193.194 80.0558 100.894 192.806 80.507 101.061 192.481 
108.004 157.009 191.513 106.645 157.142 195.712 106.614 157.093 195.727 
106.645 157.16 195.739 79.4012 100.944 193.378 79.4725 101.11 194.054 
81.8446 102.119 193.712 79.1707 104.314 193.627 106.005 151.942 193.872 
104.15 154.833 194.654 106.055 155.617 195.055 105.797 155.833 195.158 
106.489 156.948 195.774 106.559 157.02 195.808 106.582 157.147 195.895 
79.7691 100.904 194.262 79.947 100.869 194.559 79.385 101.338 195.041 
79.2336 101.511 194.939 79.1794 101.644 194.669 86.8494 123.339 194.799 
106.228 156.157 195.84 106.081 156.454 195.765 106.387 156.729 195.881 
106.091 156.901 196.347 106.368 157.071 196.204 106.515 157.093 196.042 
106.5 157.126 196.05 80.3221 100.944 195.269 79.2623 101.547 195.284 
79.899 101.096 195.544 81.2439 101.389 195.719 81.3812 101.506 196.074 
79.1668 102.116 195.562 79.1923 104.394 195.595 105.563 151.953 195.817 
106.15 157.072 196.814 106.404 157.091 196.266 80.5837 101.05 195.605 
79.2434 101.74 195.584 79.5627 101.562 196.339 106.243 156.861 196.715 
106.036 157.019 197.633 105.753 157.434 198.102 80.5493 101.134 196.069 
79.5259 101.828 196.866 80.7587 101.373 196.724 81.9475 102.096 196.445 
97.2744 135.71 197.352 105.305 157.641 199.143 105.701 158.039 199.252 
105.666 158.279 199.74 105.801 157.883 199.081 105.779 158.494 199.853 
105.793 158.367 199.693 105.816 158.763 200.213 105.82 158.708 200.162 
105.832 158.913 200.46 80.0051 101.871 198.235 79.3358 103.318 197.785 
100.27 142.904 198.779 105.681 157.321 199.096 105.56 157.351 199.676 
105.025 157.939 199.94 105.68 157.812 199.267 105.345 157.93 200.202 
105.014 158.191 200.387 105.665 158.376 200.032 105.646 158.764 200.584 
105.819 159.099 200.843 79.6124 103.302 198.984 82.7798 103.63 198.87 
88.8361 115.88 199.887 98.0085 151.607 199.988 105.504 158.272 201.133 
105.351 158.491 200.701 105.615 158.652 200.765 105.345 158.887 201.282 
105.678 159.227 201.441 105.804 159.263 201.261 105.788 159.308 201.339 
80.3574 102.195 199.684 81.069 102.392 199.856 79.7746 102.927 199.304 
105.001 153.618 200.511 105.557 158.98 201.498 105.418 158.729 202.205 
[...]
POINT_DATA 1482
SCALARS scalars float
LOOKUP_TABLE default
1 1 1 1 1 1 1 1 1 
1 1 1 1 1 1 1 1 1 
1 1 1 1 1 1 1 1 1 
1 1 1 1 1 1 1 1 1 
1 1 1 1 1 1 1 1 1 
1 1 1 1 1 1 1 1 1 
1 1 1 1 1 1 1 1 1 
1 1 1 1 1 1 1 1 1 
1 1 1 1 1 1 1 1 1 
1 1 1 1 1 1 1 1 1 
1 1 1 1 1 1 1 1 1 
1 1 1 1 1 1 1 1 1 
1 1 1 1 1 1 1 1 1 
1 1 1 1 1 1 1 1 1 
1 1 1 1 1 1 1 1 1 
1 1 1 1 1 1 1 1 1 
1 1 1 1 1 1 1 1 1 
1 1 1 1 1 1 1 1 1 
1 1 1 1 1 1 1 1 1 
1 1 1 1 1 1 1 1 1 
1 1 1 1 1 1 1 1 1 
1 1 1 1 1 1 1 1 1 
1 1 1 1 1 1 1 1 1 
1 1 1 1 1 1 1 1 1 
1 1 1 1 1 1 1 1 1 
1 1 1 1 1 1 1 1 1 
1 1 1 1 1 1 1 1 1 
1 1 1 1 1 1 1 1 1 
1 1 1 1 1 1 1 1 1 
1 1 1 1 1 1 1 1 1 
1 1 1 1 1 1 1 1 1 
1 1 1 1 1 1 1 1 1 
1 1 1 1 1 1 1 1 1 
1 1 1 1 1 1 1 1 1 
1 1 1 1 1 1 1 1 1 
1 1 1 1 1 1 1 1 1 
1 1 1 1 1 1 1 1 1 
1 1 1 1 1 1 1 1 1 
1 1 1 1 1 1 1 1 1 
1 1 1 1 1 1 1 1 1 
1 1 1 1 1 1 1 1 1 
1 1 1 1 1 1 1 1 1 
1 1 1 1 1 1 1 1 1 
1 1 1 1 1 1 1 1 1 
1 1 1 1 1 1 1 1 1 
1 1 1 1 1 1 1 1 1 
1 1 1 1 1 1 1 1 1 
1 1 1 1 1 1 1 1 1 
1 1 1 1 1 1 1 1 1 
1 1 1 1 1 1 1 1 1 
1 1 1 1 1 1 1 1 1 
1 1 1 1 1 1 1 1 1 
1 1 1 1 1 1 1 1 1 
1 1 1 1 1 1 1 1 1 
1 1 1 1 1 1 1 1 1 
1 1 1 1 1 1 1 1 1 
1 1 1 1 1 1 1 1 1 
1 1 1 1 1 1 1 1 1 
1 1 1 1 1 1 1 1 1 
1 1 1 1 1 1 1 1 1 
1 1 1 1 1 1 1 1 1 
1 1 1 1 1 1 1 1 1 
1 1 1 1 1 1 1 1 1 
1 1 1 1 1 1 1 1 1 
1 1 1 1 1 1 1 1 1 
1 1 1 1 1 1 1 1 1 
1 1 1 1 1 1 1 1 1 
1 1 1 1 1 1 1 1 1 
1 1 1 1 1 1 1 1 1 
1 1 1 1 1 1 1 1 1 
1 1 1 1 1 1 1 1 1 
1 1 1 1 1 1 1 1 1 
1 1 1 1 1 1 1 1 1 
1 1 1 1 1 1 1 1 1 
1 1 1 1 1 1 1 1 1 
1 1 1 1 1 1 1 1 1 
1 1 1 1 1 1 1 1 1 
1 1 1 1 1 1 1 1 1 
1 1 1 1 1 1 1 1 1 
1 1 1 1 1 1 1 1 1 
1 1 1 1 1 1 1 1 1 
1 1 1 1 1 1 1 1 1 
1 1 1 1 1 1 1 1 1 
1 1 1 1 1 1 1 1 1 
1 1 1 1 1 1 1 1 1 
1 1 1 1 1 1 1 1 1 
1 1 1 1 1 1 1 1 1 
1 1 1 1 1 1 1 1 1 
1 1 1 1 1 1 1 1 1 
1 1 1 1 1 1 1 1 1 
1 1 1 1 1 1 1 1 1 
1 1 1 1 1 1 1 1 1 
1 1 1 1 1 1 1 1 1 
1 1 1 1 1 1 1 1 1 
1 1 1 1 1 1 1 1 1 
1 1 1 1 1 1 1 1 1 
1 1 1 1 1 1 1 1 1 
1 1 1 1 1 1 1 1 1 
1 1 1 1 1 1 1 1 1 
1 1 1 1 1 1 1 1 1 
1 1 1 1 1 1 1 1 1 
1 1 1 1 1 1 1 1 1 
1 1 1 1 1 1 1 1 1 
1 1 1 1 1 1 1 1 1 
1 1 1 1 1 1 1 1 1 
1 1 1 1 1 1 1 1 1 
1 1 1 1 1 1 1 1 1 
1 1 1 1 1 1 1 1 1 
1 1 1 1 1 1 1 1 1 
1 1 1 1 1 1 1 1 1 
1 1 1 1 1 1 1 1 1 
1 1 1 1 1 1 1 1 1 
1 1 1 1 1 1 1 1 1 
1 1 1 1 1 1 1 1 1 
1 1 1 1 1 1 1 1 1 
1 1 1 1 1 1 1 1 1 
1 1 1 1 1 1 1 1 1 
1 1 1 1 1 1 1 1 1 
1 1 1 1 1 1 1 1 1 
1 1 1 1 1 1 1 1 1 
1 1 1 1 1 1 1 1 1 
1 1 1 1 1 1 1 1 1 
1 1 1 1 1 1 1 1 1 
1 1 1 1 1 1 1 1 1 
1 1 1 1 1 1 1 1 1 
1 1 1 1 1 1 1 1 1 
1 1 1 1 1 1 1 1 1 
1 1 1 1 1 1 1 1 1 
1 1 1 1 1 1 1 1 1 
1 1 1 1 1 1 1 1 1 
1 1 1 1 1 1 1 1 1 
1 1 1 1 1 1 1 1 1 
1 1 1 1 1 1 1 1 1 
1 1 1 1 1 1 1 1 1 
1 1 1 1 1 1 1 1 1 
1 1 1 1 1 1 1 1 1 
1 1 1 1 1 1 1 1 1 
1 1 1 1 1 1 1 1 1 
1 1 1 1 1 1 1 1 1 
1 1 1 1 1 1 1 1 1 
1 1 1 1 1 1 1 1 1 
1 1 1 1 1 1 1 1 1 
1 1 1 1 1 1 1 1 1 
1 1 1 1 1 1 1 1 1 
1 1 1 1 1 1 1 1 1 
1 1 1 1 1 1 1 1 1 
1 1 1 1 1 1 1 1 1 
1 1 1 1 1 1 1 1 1 
1 1 1 1 1 1 1 1 1 
1 1 1 1 1 1 1 1 1 
1 1 1 1 1 1 1 1 1 
1 1 1 1 1 1 1 1 1 
1 1 1 1 1 1 1 1 1 
1 1 1 1 1 1 1 1 1 
1 1 1 1 1 1 1 1 1 
1 1 1 1 1 1 1 1 1 
1 1 1 1 1 1 1 1 1 
1 1 1 1 1 1 1 1 1 
1 1 1 1 1 1 1 1 1 
1 1 1 1 1 1 1 1 1 
1 1 1 1 1 1 1 1 1 
1 1 1 1 1 1 1 1 1 
1 1 1 1 1 1 1 1 1 
1 1 1 1 1 1 1 1 1 
1 1 1 1 1 1 
NORMALS Normals float
0.55416 -0.482683 -0.678177 0.248964 -0.341243 -0.906405 0.560152 -0.356614 -0.747701 
0.629101 -0.52402 -0.574138 0.516351 -0.388393 -0.763238 0.755422 -0.5074 -0.414587 
0.73137 -0.412488 -0.543095 -0.100795 0.0117976 -0.994837 0.199963 -0.138766 -0.969927 
0.486353 -0.594392 -0.640437 0.0903159 -0.552087 -0.82888 0.134687 -0.023281 -0.990615 
0.806432 -0.317132 -0.499095 -0.491381 0.194096 -0.849041 0.00884231 0.0125618 -0.999882 
0.00513439 -0.322635 -0.946509 0.659878 -0.088493 -0.746143 0.159878 -0.149688 -0.975721 
0.0230239 -0.0446339 -0.998738 0.191315 0.0077805 -0.981498 0.034053 0.316523 -0.947973 
0.39791 -0.562029 -0.725114 0.162741 -0.375507 -0.91242 0.159038 -0.289594 -0.943844 
0.646982 -0.562338 -0.514967 0.124612 -0.203525 -0.971107 0.419465 -0.292419 -0.859384 
0.756112 -0.625898 -0.191173 -0.0205633 -0.105602 -0.994196 0.222878 -0.258363 -0.939986 
0.480946 -0.625406 -0.614458 0.737259 -0.513473 -0.439084 0.528421 -0.182431 -0.82915 
-0.582542 0.389688 -0.713294 -0.0553648 -0.0756014 -0.9956 0.0756212 -0.0244126 -0.996838 
0.170415 0.0519376 -0.984003 0.723585 -0.433973 -0.536742 -0.229952 0.405735 -0.884591 
0.672242 -0.354158 -0.650125 0.531592 -0.60156 -0.596268 0.466548 -0.424425 -0.776013 
0.429496 -0.176953 -0.885562 0.672281 -0.356679 -0.648705 0.797654 -0.541372 -0.265827 
-0.51448 0.32506 -0.793503 0.634231 -0.237271 -0.735835 -0.284521 0.362711 -0.887405 
0.255298 0.057613 -0.965144 0.802441 -0.475675 -0.360309 0.678893 -0.253685 -0.68902 
0.22142 0.172264 -0.959843 0.0783235 0.0792057 -0.993777 0.273804 0.0456019 -0.960704 
-0.0781901 0.418108 -0.905026 0.457219 -0.667901 -0.587248 0.213038 -0.523143 -0.825189 
-0.0527617 -0.468258 -0.882015 0.639578 -0.617694 -0.457597 -0.243828 -0.159789 -0.956564 
-0.580522 0.188573 -0.792107 -0.455701 0.117552 -0.882337 -0.74153 0.258562 -0.619095 
0.780064 -0.524188 -0.341653 -0.282161 0.24489 -0.927585 -0.646753 0.574929 -0.501166 
-0.000784146 0.149997 -0.988686 0.870857 -0.390466 -0.298572 -0.0313231 0.239135 -0.970481 
-0.342774 0.468281 -0.814383 0.828826 -0.335858 -0.447489 -0.326752 0.270576 -0.90555 
0.54679 -0.41411 -0.727691 -0.487706 0.317737 -0.813133 -0.670426 0.20431 -0.713293 
-0.586646 0.0622253 -0.80745 0.562825 -0.755998 -0.334208 -0.750314 0.628878 -0.203818 
-0.670039 0.199702 -0.714959 0.776952 -0.571152 0.264824 -0.48991 0.77632 0.396629 
-0.745066 0.354699 -0.564858 -0.616355 0.106093 -0.780289 -0.43977 0.767577 0.466292 
0.129612 0.504325 0.853731 -0.77646 0.555887 -0.296814 -0.741722 0.337265 -0.579741 
-0.780485 0.519557 -0.347712 -0.457817 -0.178416 -0.87096 -0.431461 -0.239469 -0.869768 
-0.333262 -0.495469 -0.802151 -0.673478 -0.106981 -0.731425 -0.806969 0.331731 -0.488627 
0.698199 -0.55121 -0.456821 -0.797806 0.249977 -0.54865 0.798724 -0.532877 -0.279431 
0.823974 -0.542306 -0.164225 0.820414 -0.558729 -0.121418 0.720805 -0.677308 -0.14729 
0.841969 -0.474729 -0.25636 -0.454796 0.6135 -0.645584 0.942157 -0.332675 0.0408428 
0.895295 -0.436527 0.0888373 -0.60504 0.668222 -0.432904 0.808475 -0.578566 0.107839 
-0.181317 -0.253728 -0.95013 -0.622837 0.762465 -0.175275 -0.0458414 0.664832 0.745585 
0.249125 0.406041 0.879242 0.151466 0.482112 0.862917 0.748055 -0.284983 0.599332 
0.798924 -0.508697 0.320854 0.352845 -0.486165 -0.799465 0.447803 -0.542431 -0.710803 
-0.16933 -0.295736 -0.940143 0.202608 -0.438953 -0.875369 0.561103 -0.519206 -0.644662 
0.590685 -0.466779 -0.658186 -0.385573 -0.117256 -0.915196 -0.60208 0.0146055 -0.798302 
0.831323 -0.535694 -0.148101 -0.788542 0.383813 -0.480508 -0.59076 0.668948 -0.451122 
0.683105 0.436844 0.585264 0.954423 0.182315 0.2363 0.0249713 0.998985 -0.0374839 
0.475104 0.256468 0.841724 0.798168 -0.441458 0.409931 0.731705 -0.239049 0.638329 
0.400264 -0.698985 -0.592629 -0.879982 0.173978 -0.441998 0.631898 0.494572 -0.596744 
0.879982 -0.173978 0.441998 -0.400264 0.698985 0.592629 0.268707 -0.622291 -0.735221 
0.0117555 -0.422566 -0.906256 0.505461 -0.585858 -0.633466 0.442207 -0.580931 -0.683353 
-0.429674 -0.153111 -0.889909 0.540228 -0.654852 -0.52851 0.488306 -0.472996 -0.73337 
0.151152 -0.401751 -0.903189 0.711257 -0.542921 -0.446486 -0.521319 0.00971552 -0.853307 
-0.277585 -0.214369 -0.936479 -0.673396 0.0769644 -0.735264 0.701417 -0.539343 -0.465965 
0.869202 -0.441461 -0.222709 0.666219 -0.523699 -0.530935 0.885398 -0.442178 0.143346 
0.53062 0.832731 -0.158118 -0.427848 0.834361 -0.347544 0.877395 0.466349 -0.112679 
0.172655 0.879888 -0.442705 -0.631898 -0.494572 0.596744 -0.275494 -0.217644 -0.936341 
0.731717 -0.593989 -0.334315 -0.454507 -0.022389 -0.890462 0.690648 -0.615364 -0.379912 
-0.662745 0.0783765 -0.744733 0.822181 -0.500706 0.270763 0.942423 -0.213916 0.257057 
-0.32612 0.881173 -0.342316 0.842996 0.460027 -0.278808 -0.357378 0.817446 -0.451734 
-0.303577 0.776512 -0.55215 0.375478 -0.42514 -0.823573 0.0124971 -0.206011 -0.97847 
-0.715259 0.11953 -0.688561 0.89588 -0.413016 -0.16376 0.888842 -0.435325 -0.14301 
-0.845861 0.320383 -0.426468 -0.86309 0.423411 -0.275315 0.441651 0.896775 0.0271879 
-0.851338 0.462731 -0.24719 0.90586 -0.242036 0.347616 -0.886281 0.310104 -0.344009 
-0.664 0.656397 -0.358116 0.991539 -0.0340727 0.125261 -0.320051 0.934654 -0.154887 
0.386 -0.518207 -0.763194 -0.140092 -0.228615 -0.963384 0.794258 -0.497259 -0.349124 
0.304005 -0.339297 -0.890202 0.700466 -0.515866 -0.493183 0.702334 -0.619015 -0.351493 
0.945898 -0.321724 -0.042084 0.846843 -0.0221222 0.531382 0.980772 0.0976805 0.16895 
-0.425379 0.839053 -0.339179 -0.409097 0.674498 -0.614567 -0.46578 0.826392 -0.316426 
0.657026 -0.331593 0.677025 0.994882 -0.0360769 0.0943781 -0.618518 0.706134 -0.344689 
-0.916821 0.104135 -0.385481 -0.324783 0.914594 -0.240901 0.880286 0.445127 0.164191 
0.836065 -0.423164 0.349182 0.323774 -0.417466 -0.849054 -0.0294195 -0.187045 -0.981911 
-0.284738 -0.155141 -0.945968 -0.805739 0.218547 -0.550474 -0.261084 -0.153817 -0.952983 
0.738216 -0.570258 -0.360338 0.940183 -0.161275 0.300076 0.226116 0.971135 -0.0759484 
-0.421001 -0.0649531 -0.904732 0.567389 -0.545329 -0.616997 0.575195 -0.524531 -0.627708 
0.195676 -0.39175 -0.899023 -0.330815 -0.152836 -0.931237 -0.0029471 -0.286472 -0.958084 
0.14429 -0.309307 -0.939952 -0.316176 -0.142084 -0.938 -0.847349 0.473154 -0.241093 
-0.355666 0.896507 -0.264154 0.656774 0.740018 0.144986 -0.0582817 0.998298 0.00208965 
0.963164 0.0947209 0.251679 0.857053 0.377285 0.35088 -0.503728 -0.434091 -0.746876 
-0.802292 -0.406508 -0.437126 0.184447 -0.548462 -0.815579 -0.394203 -0.783638 -0.48012 
0.255796 -0.806145 -0.533572 0.568037 -0.781115 -0.259217 -0.673882 -0.140914 -0.725276 
-0.916612 -0.0787965 -0.391936 -0.0372762 -0.292461 -0.955551 -0.241882 -0.0672754 -0.967971 
-0.858867 0.182909 -0.478426 -0.722008 0.192497 -0.664567 0.512382 -0.351191 -0.783664 
0.307002 -0.28433 -0.908244 0.807675 -0.576959 0.12157 0.96338 -0.206421 0.171143 
-0.270565 0.894076 -0.356964 0.949013 -0.0126907 0.314981 0.865428 0.493438 0.0869046 
0.178884 0.96501 -0.191718 0.144426 -0.971676 -0.187048 -0.833565 -0.367335 -0.412594 
0.507073 -0.0529425 -0.860275 0.914467 -0.278776 0.293317 -0.555588 0.44107 -0.704826 
-0.822183 0.111567 0.558183 0.779435 0.520174 -0.349142 -0.0879145 0.976282 0.197852 
-0.843878 -0.4971 -0.201893 -0.977828 0.0553411 -0.201964 0.703572 -0.497271 -0.50765 
-0.433836 0.466026 -0.771107 -0.786456 0.329542 -0.522387 -0.0900753 0.02423 -0.99564 
0.506305 -0.407474 -0.760013 0.704787 -0.475662 -0.526328 -0.913853 0.278743 -0.295254 
0.868623 -0.485543 -0.0987017 0.901806 -0.375162 0.214475 0.958767 0.205131 0.196688 
0.753444 0.655593 0.0501917 -0.274628 -0.627389 0.728672 0.55963 0.261189 0.786508 
-0.169258 -0.975432 -0.141013 -0.747192 -0.663833 -0.03209 0.652589 -0.599748 -0.463065 
0.805525 -0.530112 -0.264784 0.761537 0.646221 0.0495986 0.723786 0.684064 -0.0905061 
0.289785 0.924965 -0.245896 -0.398052 -0.665908 -0.630969 -0.836141 0.409717 -0.364691 
0.0852443 0.220509 -0.971653 0.910705 -0.284825 -0.29915 0.483484 0.873116 -0.0625381 
-0.765448 -0.64349 0.00318503 -0.995786 -0.00729861 -0.0914123 -0.880897 -0.462949 0.0984777 
0.441285 -0.846887 0.296732 0.775892 0.352516 0.523186 -0.593408 0.691684 0.411631 
0.225063 -0.969635 -0.0956753 -0.797273 -0.580025 0.167115 -0.328958 -0.943527 -0.0392803 
0.741397 -0.622007 -0.251868 -0.197092 -0.179227 0.963863 0.118848 0.858738 -0.498442 
-0.91476 -0.241435 -0.323918 -0.877837 0.00310058 -0.478949 -0.78779 0.0848748 -0.610068 
0.8821 -0.0379746 0.469529 -0.666279 0.33314 -0.667151 0.529507 -0.83391 -0.155619 
0.000994371 -0.992943 -0.118589 -0.156998 -0.933239 -0.323134 0.56366 -0.820699 0.0934929 
-0.672699 -0.683931 -0.282337 -0.984823 -0.173552 -0.00198967 0.964389 0.260727 0.044438 
-0.102791 0.898076 -0.42766 -0.128325 0.851788 -0.507927 0.642099 0.687825 -0.338535 
0.0524222 0.873718 -0.483599 -0.950743 -0.237529 -0.199168 -0.961268 -0.190529 -0.199154 
0.93214 0.0923765 0.350116 0.834002 0.549602 -0.0487638 -0.746341 -0.664405 0.0392561 
-0.916901 -0.388499 0.0914362 -0.113911 -0.945776 -0.30419 -0.451152 -0.886918 -0.0991847 
-0.055597 -0.998371 -0.0128383 0.235021 -0.970941 0.0451532 -0.983848 -0.176959 -0.0269851 
-0.162011 -0.985957 -0.0405051 -0.0431936 -0.995019 -0.0898424 0.430148 -0.869932 -0.241227 
0.909186 0.409124 0.0774453 0.839965 -0.444463 0.311307 0.782405 -0.594019 -0.187038 
0.863407 -0.421142 0.27779 -0.331275 -0.890392 0.312185 -0.700419 -0.689948 0.182715 
0.779221 -0.622966 -0.0687631 -0.989722 0.135496 -0.0457295 0.966103 -0.200165 0.163031 
-0.517325 0.720242 -0.462197 0.77066 0.467927 -0.432583 -0.373289 0.782477 -0.498382 
-0.220855 0.084126 -0.971672 0.86583 -0.489639 0.102923 0.895099 0.188505 0.40406 
-0.354768 -0.932014 0.0740889 -0.366859 -0.917018 0.1565 -0.659988 -0.734165 0.159426 
-0.848357 -0.529401 0.00488874 -0.958701 -0.284414 -0.000729204 -0.883519 0.444725 -0.147019 
0.984189 -0.126923 -0.123541 0.259799 0.40865 -0.874934 0.823984 -0.414422 -0.386399 
-0.697789 0.638825 -0.324025 -0.558955 0.800452 -0.216441 0.948334 0.0227828 0.316455 
0.102794 0.976739 0.188187 0.13341 -0.981849 0.134811 -0.882783 -0.430516 0.188017 
-0.353305 -0.89679 0.266352 0.5601 -0.828064 0.0244572 0.536094 -0.827795 0.165405 
-0.963964 -0.195074 0.180884 -0.971011 0.235599 0.0403764 0.918147 -0.262639 0.296693 
0.175169 0.981338 0.0793241 0.223634 0.957195 0.183751 0.187752 -0.967429 0.169794 
-0.782823 -0.549235 0.292453 -0.782475 -0.574285 0.240687 0.956849 -0.0397047 0.287862 
0.987931 0.0222657 0.153285 0.0305854 0.915956 -0.400111 0.182124 -0.955015 0.234045 
-0.919458 -0.288085 0.26759 0.238453 -0.921994 0.30507 0.705591 -0.699142 0.115506 
0.877846 -0.442912 0.18225 -0.0569272 0.934171 -0.352254 -0.216562 0.825151 -0.521753 
-0.939887 0.313476 -0.135443 0.974153 0.225281 0.0165263 -0.0636654 0.806673 -0.587559 
0.206413 0.774219 -0.598313 -0.735086 0.58581 -0.341285 0.897605 0.326956 -0.295644 
0.991123 -0.118674 0.059928 -0.764268 -0.565217 0.310523 -0.984759 0.0230218 0.172392 
0.871612 -0.406784 0.27353 0.884651 0.103885 0.454533 0.900625 0.427414 0.0786904 
-0.18512 0.881866 -0.43364 0.196124 -0.55327 0.809585 0.775222 0.549337 -0.311864 
-0.145806 0.815464 -0.560142 -0.975861 0.164573 -0.143564 -0.767481 0.552447 -0.325232 
-0.161492 0.899624 -0.405706 -0.949382 -0.0129573 0.313855 0.831259 -0.512131 0.216171 
0.95509 -0.272853 0.115557 -0.77647 0.332371 -0.535372 0.983457 -0.153062 -0.0968689 
0.140178 0.456987 -0.878358 0.79109 -0.594064 0.145823 -0.436002 0.862912 -0.255511 
-0.803708 0.574001 -0.156768 0.994155 -0.0702373 0.0819899 -0.263798 0.88819 -0.376203 
-0.258508 -0.854027 0.451455 0.402136 -0.875247 0.268754 -0.897474 -0.21174 0.38692 
0.911327 -0.352607 0.212488 0.85778 0.226741 0.461306 0.9173 0.397102 0.02951 
0.265008 0.961804 -0.0685834 -0.887236 -0.428677 0.170436 -0.736899 0.621358 -0.266261 
0.973551 -0.197473 0.114903 -0.588118 0.747044 -0.309906 0.0458267 -0.826712 0.560756 
0.0101419 -0.942891 0.332948 -0.753613 -0.479358 0.44976 -0.16161 -0.846227 0.507722 
-0.716085 -0.143579 0.683087 0.762413 -0.545573 0.347961 -0.744385 0.0313371 0.667015 
-0.906604 0.148983 0.394808 -0.971414 0.130976 0.19799 -0.933943 0.00531934 0.357382 
-0.960276 0.268846 0.07478 0.993369 -0.0650516 0.094792 -0.421941 0.838256 -0.345388 
-0.242974 0.906036 -0.346501 0.392855 0.844777 -0.363342 0.787187 0.427342 -0.444651 
-0.285549 0.834651 -0.470977 0.25046 -0.948352 0.194673 -0.863135 0.425637 -0.271718 
0.984265 -0.152946 0.0884822 0.117932 0.942903 -0.31149 -0.452336 -0.50507 0.735048 
-0.201808 -0.624558 0.754454 0.540289 -0.748589 0.38432 0.230126 -0.61694 0.752613 
0.513589 -0.551019 0.657727 -0.412986 -0.331315 0.848336 0.0696089 -0.460377 0.88499 
0.671644 -0.572581 0.470154 0.634138 -0.445425 0.632033 -0.861386 -0.00970457 0.507858 
-0.960507 0.252618 0.116667 0.861555 -0.420233 0.284828 0.935118 -0.133031 -0.328415 
-0.357359 0.257707 -0.897709 -0.584028 0.722292 -0.370412 0.737479 -0.674967 0.0233356 
0.973762 0.225696 -0.0291266 -0.529428 0.753793 -0.389233 -0.239971 -0.326757 0.914136 
0.393644 -0.52473 0.754787 0.627119 -0.531588 0.569329 -0.880423 0.118023 0.459266 
-0.968188 0.142194 0.205895 -0.882866 0.407806 -0.232899 -0.820272 0.522986 -0.231601 
-0.547528 0.758172 -0.354102 0.115014 0.929212 -0.351194 0.0631655 0.974891 -0.213538 
0.982074 0.175479 -0.0688244 0.517752 0.84297 -0.146066 0.442984 -0.576629 0.686487 
0.130547 -0.514787 0.847321 0.55488 -0.529701 0.641502 -0.843691 -0.0477788 0.534699 
-0.85273 0.0874322 0.514983 -0.597353 -0.169647 0.78383 0.657663 -0.580013 0.480691 
0.75883 -0.473797 0.44687 -0.947408 0.0682768 0.312659 0.952524 -0.299266 -0.0560231 
-0.942824 0.322564 -0.0838838 -0.920054 0.375775 -0.110873 -0.185238 0.958298 -0.217605 
-0.613117 -0.160726 0.773469 -0.880015 0.149795 0.450705 0.821396 -0.441022 0.361675 
-0.964094 0.251551 0.0851201 0.891383 -0.313701 0.327151 -0.303567 0.8934 -0.331185 
0.963052 0.267361 0.0323736 0.352685 0.920587 -0.167727 0.403861 0.913369 -0.0515153 
0.654397 0.755959 -0.0170285 -0.0863943 -0.424333 0.901376 0.453224 -0.483456 0.748904 
0.288116 -0.332189 0.898131 0.50591 -0.54919 0.665166 -0.313843 -0.284713 0.905782 
-0.690498 0.171167 0.70279 0.584307 -0.46348 0.666162 -0.83392 -0.0663445 0.547883 
-0.762713 -0.201949 0.614398 -0.896864 0.130704 0.422552 0.816755 -0.465095 0.341464 
0.919385 -0.360553 0.157268 0.998119 -0.0375172 -0.048494 0.781881 0.586191 -0.212232 
0.0746545 0.945797 -0.31606 0.202804 -0.321784 0.924838 0.180537 -0.250938 0.951019 
0.350115 -0.33641 0.874213 -0.323911 -0.209305 0.922645 0.584018 -0.449885 0.675668 
-0.674229 -0.273116 0.686165 -0.184975 -0.297909 0.936501 -0.634595 -0.155121 0.757117 
-0.730015 0.0183962 0.683183 -0.949251 0.187407 0.252587 0.668714 -0.352856 0.654457 
0.824195 -0.395213 0.405599 0.837463 -0.461517 0.292672 0.867694 -0.404484 0.288962 
0.877097 -0.436509 0.2004 0.946039 -0.294 0.13629 0.995002 -0.0574158 0.0816989 
0.9576 0.267022 -0.108173 0.49882 0.782379 -0.37291 0.866385 0.444309 -0.227962 
0.284363 0.907241 -0.309921 0.191546 -0.385127 0.902767 -0.394906 -0.255701 0.882421 
0.131562 -0.370557 0.919445 -0.180274 -0.31091 0.933186 0.264302 -0.380869 0.886049 
-0.640361 -0.000112524 0.768074 -0.431902 -0.101462 0.896195 0.0323705 -0.293203 0.955502 
-0.888475 -0.0177695 0.458581 -0.892023 0.0147515 0.451749 0.490482 -0.401568 0.773415 
-0.970642 0.202765 0.129386 -0.917356 0.146513 0.370124 -0.926569 0.198957 0.319197 
-0.965997 0.223998 0.129133 -0.813156 0.569578 -0.119828 -0.380315 0.869629 -0.31481 
0.82534 0.513265 -0.235315 0.156562 0.958717 -0.237381 0.5272 -0.413578 0.742303 
0.165602 -0.297501 0.94025 -0.525496 -0.131061 0.840641 -0.0255923 -0.329849 0.943687 
-0.709963 -0.0656754 0.70117 -0.191772 -0.322681 0.926877 0.208245 -0.397414 0.893698 
-0.657007 -0.0302244 0.753279 0.479798 -0.352722 0.803356 -0.897986 0.268801 0.348378 
-0.910677 0.412148 0.0282905 0.798064 -0.545283 0.256437 0.921148 0.37791 -0.093112 
0.479752 0.827193 -0.292558 0.578657 0.812159 0.0745179 -0.12363 0.988778 -0.0838709 
0.0309652 0.998369 0.0479715 0.313876 -0.227155 0.92189 0.151658 -0.311129 0.938189 
-0.519022 -0.101407 0.848724 0.229796 -0.365931 0.901825 0.012816 -0.163254 0.986501 
-0.0663143 -0.145227 0.987174 0.682566 -0.484193 0.547413 0.906906 -0.284892 0.310416 
-0.936609 0.344657 0.0630567 -0.931583 0.351182 0.0939366 0.835977 -0.385432 0.390621 