# vtk DataFile Version 4.2
vtk output
ASCII
DATASET POLYDATA
POINTS 1330 float
117.088 126.333 171.786 117.089 126.539 171.762 115.139 124.228 172.173 
115.817 124.249 172.462 116.665 125.344 172.14 116.497 125.036 172.229 
116.741 125.23 172.315 115.985 125.685 171.725 116.666 125.653 171.965 
117.452 126.823 171.929 117.594 127.257 171.902 117.539 127.556 171.871 
118.522 128.44 172.243 118.547 128.578 172.2 118.628 128.59 172.225 
118.688 128.65 172.333 119.055 129.361 172.371 119.034 129.456 172.346 
119.129 129.491 172.37 119.146 129.62 172.411 113.238 122.579 172.656 
113.941 122.512 172.907 113.975 123.859 172.122 115.808 123.944 172.863 
113.14 124.342 171.992 116.532 124.874 172.466 117.174 125.556 172.753 
117.503 126.351 172.367 115.26 127.251 171.638 118.153 127.47 172.597 
118.098 128.127 172.14 118.534 128.282 172.466 118.933 128.856 172.697 
118.71 129.044 172.3 119.007 129.778 172.422 119.257 129.85 172.588 
118.02 130.532 172.241 119.318 130.464 172.765 119.128 130.717 172.648 
127.26 155.405 172.81 127.208 155.283 172.866 127.269 155.329 172.874 
126.798 155.431 172.934 127.155 155.647 172.748 127.253 155.565 172.773 
127.298 155.486 172.87 127.219 155.799 172.756 127.292 155.692 172.818 
126.95 156.243 172.768 126.543 156.858 172.876 126.213 157.069 172.989 
126.953 156.901 172.901 126.322 157.763 173.123 126.012 158.025 173.267 
126.575 157.513 173.035 127.047 157.053 173.032 126.221 158.129 173.294 
126.984 157.331 173.168 126.233 158.397 173.491 126.235 158.629 173.748 
111.654 120.04 174.044 111.314 120.607 173.523 113.143 121.676 173.317 
113.829 122.095 173.288 111.151 123.465 172.396 111.748 124.583 172.25 
116.235 124.221 173.105 117.72 126.165 173.388 112.851 127.677 172.131 
119.308 129.36 173.185 119.381 129.666 172.942 119.457 130.087 172.942 
118.836 131.547 172.72 119.712 131.168 173.268 119.744 131.774 173.298 
120.043 132.438 173.697 123 134.009 172.017 123 134.009 172.017 
123 134.009 172.017 123 134.009 172.017 123 134.009 172.017 
127.116 155.153 173.001 127.211 155.225 172.959 127.095 155.116 173.181 
127.251 155.311 172.998 127.29 155.466 173.027 125.572 156.948 173.302 
127.167 156.846 173.116 125.363 158.096 173.572 126.709 158.119 173.776 
126.041 159.026 174.178 125.766 159.391 174.365 125.191 159.738 174.543 
124.97 159.941 174.821 125.38 159.748 174.585 125.596 159.628 174.575 
125.158 159.959 174.846 110.263 119.216 174.474 110.934 119.323 174.523 
110.278 120.366 173.609 112.584 120.364 174.41 113.071 120.92 174.127 
115.13 122.723 173.975 115.91 123.569 173.932 118.847 128.23 173.416 
109.394 130.744 174.872 109.374 130.585 174.84 109.315 130.734 174.958 
109.543 130.805 174.839 123 134.009 172.017 120.11 135.169 173.915 
121.253 135.486 174.636 121.614 135.784 175.005 121.348 136.241 174.501 
121.787 136.807 174.668 122.789 138.771 175.009 122.78 138.707 175.024 
122.669 138.669 175.011 122.828 138.8 175.041 122.769 138.911 175.047 
125.94 153.993 174.164 126.281 154.05 174.26 126.425 154.861 173.446 
126.729 154.811 173.507 127 155.051 173.576 127.206 155.946 173.618 
124.533 156.539 174.087 126.854 157.843 174.074 126.35 158.731 174.39 
124.71 159.961 175.009 108.452 117.564 175.669 108.644 118.491 174.937 
111.704 119.339 175.085 109.173 120.345 173.842 114.253 121.777 174.261 
108.172 121.828 173.794 105.67 125.306 175.56 118.378 127.083 175.046 
108.618 129.3 174.847 113 136.009 174.017 113 136.009 174.017 
113 136.009 174.017 113 136.009 174.017 120.006 136.148 174.035 
121.947 136.45 175.352 113 136.009 174.017 122.137 137.425 175.071 
119.777 138.718 174.677 121.039 137.921 174.561 121.841 137.957 174.788 
122.725 138.591 175.118 122.86 138.869 175.106 122.784 139.323 175.259 
122.872 139.071 175.095 122.88 138.957 175.064 122.908 139.048 175.084 
123.428 142.819 175.66 123.543 142.808 175.804 123.038 142.614 175.526 
123.577 142.956 175.714 123.618 143.054 175.723 123.519 143.31 175.766 
123.622 143.154 175.775 125.534 152.564 175.09 125.722 152.368 175.396 
125.26 152.944 174.799 126.009 153.178 175.001 124.515 152.905 174.968 
126.455 153.992 174.797 126.932 157.583 174.157 125.621 159.781 175.349 
124.973 160.213 175.641 106.436 117.725 175.629 109.579 117.65 175.991 
104.578 120.681 175.763 113.71 120.81 175.613 115.031 122.313 175.016 
120.883 133.159 175.389 113 136.009 174.017 115.538 138.602 176.116 
122.849 138.954 175.273 122.886 139.044 175.133 123.017 140.072 175.84 
121.066 140.986 175.162 122.803 141.548 175.561 123.231 141.3 176.099 
123.341 142.237 175.846 123.631 143.053 175.785 123.683 143.306 176 
123.978 144.203 176.404 123.982 144.861 176.412 125.181 150.721 176.256 
124.23 150.799 175.753 125.374 151.485 175.781 125.666 151.944 175.764 
123.781 152.646 175.378 123.45 154.915 175.263 125.902 159.302 175.968 
123.731 159.928 176.101 125.602 159.678 176.229 105.326 113.44 178.121 
105.282 114.581 177.331 106.175 113.828 178.133 105.175 115.075 177.045 
106.589 115.041 177.364 108.489 116.519 176.849 109.649 117.3 176.559 
103.613 118.958 176.458 105.105 118.758 175.74 104.791 125.442 176.935 
118.112 140.763 175.887 123.984 143.78 176.8 123.96 147.267 176.447 
123.373 148.365 176.243 122.715 148.465 176.303 124.109 148.418 176.419 
122.616 149.262 176.327 124.782 149.647 176.516 122.26 150.453 176.503 
123.407 150.951 175.896 123.695 160.341 176.83 104.849 114.13 177.556 
104.148 114.501 177.386 107.392 114.395 178.524 109.285 132.37 176.828 
122.338 146.662 176.21 124.552 146.887 177.188 120.029 148.068 177.639 
121.464 147.711 176.668 121.175 151.117 177.381 125.471 150.827 177.333 
122.273 157.574 177.059 126.243 157.807 176.713 124.684 160.397 177.359 
124.419 160.55 177.669 123.578 160.743 178.165 102.628 110.846 179.192 
103.967 110.693 179.678 104.339 110.758 179.852 101.543 114.639 178.156 
101.037 120.347 179.213 104.468 126.268 178.518 123.932 143.498 178.372 
118.258 146.062 178.357 120.475 152.153 178.388 125.68 151.819 177.789 
125.115 159.66 178.095 122.819 160.727 179.128 123.298 160.885 178.762 
123.48 160.917 178.808 123.285 160.981 179.139 102.089 106.82 181.158 
101.727 107.057 180.89 101.968 109.399 179.857 103.258 108.691 180.791 
101.146 110.555 179.376 100.306 113.897 178.907 115.665 123.235 178.539 
123.448 160.972 179.3 101.354 105.19 181.65 101.523 104.865 181.92 
100.633 105.769 181.211 100.203 107.524 180.486 103.512 107.543 181.928 
99.7519 108.079 180.368 100.062 110.782 179.619 105.57 110.819 181.096 
99.0874 111.658 179.881 97.3827 113.886 181.317 122.29 160.587 180.195 
100.776 102.864 182.792 100.896 103.281 182.612 101.558 104.393 182.31 
96.5661 110.783 181.509 108.692 114.498 180.756 101.934 123.559 181.032 
114.983 144.326 181.184 122.331 160.808 180.916 99.6673 102.174 183.074 
99.1678 102.665 182.729 101.288 102.903 183.353 117.851 128.859 182.558 
123.49 144.708 181.645 123.087 160.898 181.097 122.523 160.955 181.418 
122.685 161.026 181.149 96.6986 102.045 183.595 100.66 101.977 183.708 
122.795 160.843 181.691 122.425 160.82 181.989 122.658 160.964 181.486 
99.2911 101.079 184.407 99.4777 100.958 184.707 94.5898 100.731 185.181 
93.4676 102.939 184.293 122.729 160.4 182.652 122.085 160.637 182.658 
94.451 99.9172 186.058 98.8847 100.554 185.292 91.7817 100.517 186.354 
91.498 100.885 186.2 100.261 101.322 184.869 90.7539 101.399 186.308 
89.6971 102.118 186.937 90.7494 102.014 186.12 91.9226 102.145 185.362 
102.359 103.27 185.029 121.217 159.429 183.979 121.63 160.256 183.265 
91.673 99.3515 187.732 89.7216 99.8829 187.887 89.5164 100.209 187.753 
95.4093 99.6396 186.73 90.3787 100.444 187.047 89.8817 101.167 186.992 
90.4261 100.945 186.728 101.606 102.133 186.072 115.448 149.351 185.429 
121.18 158.691 184.773 121.836 158.946 184.407 120.565 158.115 185.202 
121.598 159.4 184.423 121.455 159.619 184.352 121.739 160.327 183.834 
121.893 160.46 183.448 88.7057 99.8041 188.873 89.3913 99.5492 188.565 
92.256 99.0615 188.147 88.3809 100.34 188.772 88.4386 100.533 188.59 
88.5374 100.889 188.476 118.526 155.945 186.567 119.389 156.645 187.029 
120.363 157.812 185.621 121.663 159.916 184.31 121.578 160.09 184.339 
121.829 160.255 183.975 89.5209 99.138 189.415 90.8059 98.9321 189.155 
92.8828 98.8988 188.588 96.5553 99.523 187.612 88.2543 100.412 188.994 
88.3382 100.558 188.752 103.096 103.532 187.812 115.88 151.738 187.219 
120.95 154.651 187.318 117.94 155.556 188.222 120.652 156.212 186.83 
120.044 156.528 187.046 119.119 156.446 187.721 120.163 157.232 186.27 
119.108 156.409 187.88 120.361 157.653 185.843 120.004 161.013 188.009 
120.004 161.013 188.009 120.004 161.013 188.009 120.004 161.013 188.009 
120.004 161.013 188.009 121.597 160.262 184.368 88.4238 99.6669 189.775 
101.62 102.036 188.279 116.006 129.183 188.872 116.539 153.707 188.41 
117.135 154.667 188.559 117.755 155.498 189.103 118.912 156.175 188.288 
119.08 156.325 188.026 120.004 161.013 188.009 120.004 162.013 189.009 
120.004 162.013 189.009 120.004 162.013 189.009 121.614 160.306 184.366 
120.004 162.013 189.009 120.004 162.013 189.009 89.3696 98.8586 190.851 
88.3314 99.6474 190.681 88.0484 100.595 190.058 88.4484 102.682 190.45 
104.222 106.012 189.466 120.613 145.059 188.795 117.57 155.402 190.056 
118.809 155.786 188.902 118.319 155.881 189.11 118.289 155.842 189.284 
120.004 162.013 189.009 88.8325 99.1408 190.816 93.2759 98.7322 190.408 
97.2359 99.6484 190.08 110.65 118.538 190.036 115.208 152.729 190.508 
118.938 152.164 191.156 118.7 153.423 190.915 117.275 155.269 190.866 
118.25 155.754 189.45 89.4187 98.9788 192.511 95.4224 99.2623 191.298 
88.1921 100.118 191.821 88.103 100.215 191.419 88.0598 100.529 191.247 
117.692 138.678 191.837 88.7099 99.5437 192.647 90.6307 98.5893 191.851 
100.793 102.512 192.232 104.247 107.698 192.273 117.864 151.349 192.836 
116.517 154.41 192.272 116.827 154.827 191.625 117.013 154.992 191.525 
[...]
POINT_DATA 1330
SCALARS scalars float
LOOKUP_TABLE default
1 1 1 1 1 1 1 1 1 
1 1 1 1 1 1 1 1 1 
1 1 1 1 1 1 1 1 1 
1 1 1 1 1 1 1 1 1 
1 1 1 1 1 1 1 1 1 
1 1 1 1 1 1 1 1 1 
1 1 1 1 1 1 1 1 1 
1 1 1 1 1 1 1 1 1 
1 1 1 1 1 1 1 1 1 
1 1 1 1 1 1 1 1 1 
1 1 1 1 1 1 1 1 1 
1 1 1 1 1 1 1 1 1 
1 1 1 1 1 1 1 1 1 
1 1 1 1 1 1 1 1 1 
1 1 1 1 1 1 1 1 1 
1 1 1 1 1 1 1 1 1 
1 1 1 1 1 1 1 1 1 
1 1 1 1 1 1 1 1 1 
1 1 1 1 1 1 1 1 1 
1 1 1 1 1 1 1 1 1 
1 1 1 1 1 1 1 1 1 
1 1 1 1 1 1 1 1 1 
1 1 1 1 1 1 1 1 1 
1 1 1 1 1 1 1 1 1 
1 1 1 1 1 1 1 1 1 
1 1 1 1 1 1 1 1 1 
1 1 1 1 1 1 1 1 1 
1 1 1 1 1 1 1 1 1 
1 1 1 1 1 1 1 1 1 
1 1 1 1 1 1 1 1 1 
1 1 1 1 1 1 1 1 1 
1 1 1 1 1 1 1 1 1 
1 1 1 1 1 1 1 1 1 
1 1 1 1 1 1 1 1 1 
1 1 1 1 1 1 1 1 1 
1 1 1 1 1 1 1 1 1 
1 1 1 1 1 1 1 1 1 
1 1 1 1 1 1 1 1 1 
1 1 1 1 1 1 1 1 1 
1 1 1 1 1 1 1 1 1 
1 1 1 1 1 1 1 1 1 
1 1 1 1 1 1 1 1 1 
1 1 1 1 1 1 1 1 1 
1 1 1 1 1 1 1 1 1 
1 1 1 1 1 1 1 1 1 
1 1 1 1 1 1 1 1 1 
1 1 1 1 1 1 1 1 1 
1 1 1 1 1 1 1 1 1 
1 1 1 1 1 1 1 1 1 
1 1 1 1 1 1 1 1 1 
1 1 1 1 1 1 1 1 1 
1 1 1 1 1 1 1 1 1 
1 1 1 1 1 1 1 1 1 
1 1 1 1 1 1 1 1 1 
1 1 1 1 1 1 1 1 1 
1 1 1 1 1 1 1 1 1 
1 1 1 1 1 1 1 1 1 
1 1 1 1 1 1 1 1 1 
1 1 1 1 1 1 1 1 1 
1 1 1 1 1 1 1 1 1 
1 1 1 1 1 1 1 1 1 
1 1 1 1 1 1 1 1 1 
1 1 1 1 1 1 1 1 1 
1 1 1 1 1 1 1 1 1 
1 1 1 1 1 1 1 1 1 
1 1 1 1 1 1 1 1 1 
1 1 1 1 1 1 1 1 1 
1 1 1 1 1 1 1 1 1 
1 1 1 1 1 1 1 1 1 
1 1 1 1 1 1 1 1 1 
1 1 1 1 1 1 1 1 1 
1 1 1 1 1 1 1 1 1 
1 1 1 1 1 1 1 1 1 
1 1 1 1 1 1 1 1 1 
1 1 1 1 1 1 1 1 1 
1 1 1 1 1 1 1 1 1 
1 1 1 1 1 1 1 1 1 
1 1 1 1 1 1 1 1 1 
1 1 1 1 1 1 1 1 1 
1 1 1 1 1 1 1 1 1 
1 1 1 1 1 1 1 1 1 
1 1 1 1 1 1 1 1 1 
1 1 1 1 1 1 1 1 1 
1 1 1 1 1 1 1 1 1 
1 1 1 1 1 1 1 1 1 
1 1 1 1 1 1 1 1 1 
1 1 1 1 1 1 1 1 1 
1 1 1 1 1 1 1 1 1 
1 1 1 1 1 1 1 1 1 
1 1 1 1 1 1 1 1 1 
1 1 1 1 1 1 1 1 1 
1 1 1 1 1 1 1 1 1 
1 1 1 1 1 1 1 1 1 
1 1 1 1 1 1 1 1 1 
1 1 1 1 1 1 1 1 1 
1 1 1 1 1 1 1 1 1 
1 1 1 1 1 1 1 1 1 
1 1 1 1 1 1 1 1 1 
1 1 1 1 1 1 1 1 1 
1 1 1 1 1 1 1 1 1 
1 1 1 1 1 1 1 1 1 
1 1 1 1 1 1 1 1 1 
1 1 1 1 1 1 1 1 1 
1 1 1 1 1 1 1 1 1 
1 1 1 1 1 1 1 1 1 
1 1 1 1 1 1 1 1 1 
1 1 1 1 1 1 1 1 1 
1 1 1 1 1 1 1 1 1 
1 1 1 1 1 1 1 1 1 
1 1 1 1 1 1 1 1 1 
1 1 1 1 1 1 1 1 1 
1 1 1 1 1 1 1 1 1 
1 1 1 1 1 1 1 1 1 
1 1 1 1 1 1 1 1 1 
1 1 1 1 1 1 1 1 1 
1 1 1 1 1 1 1 1 1 
1 1 1 1 1 1 1 1 1 
1 1 1 1 1 1 1 1 1 
1 1 1 1 1 1 1 1 1 
1 1 1 1 1 1 1 1 1 
1 1 1 1 1 1 1 1 1 
1 1 1 1 1 1 1 1 1 
1 1 1 1 1 1 1 1 1 
1 1 1 1 1 1 1 1 1 
1 1 1 1 1 1 1 1 1 
1 1 1 1 1 1 1 1 1 
1 1 1 1 1 1 1 1 1 
1 1 1 1 1 1 1 1 1 
1 1 1 1 1 1 1 1 1 
1 1 1 1 1 1 1 1 1 
1 1 1 1 1 1 1 1 1 
1 1 1 1 1 1 1 1 1 
1 1 1 1 1 1 1 1 1 
1 1 1 1 1 1 1 1 1 
1 1 1 1 1 1 1 1 1 
1 1 1 1 1 1 1 1 1 
1 1 1 1 1 1 1 1 1 
1 1 1 1 1 1 1 1 1 
1 1 1 1 1 1 1 1 1 
1 1 1 1 1 1 1 1 1 
1 1 1 1 1 1 1 1 1 
1 1 1 1 1 1 1 1 1 
1 1 1 1 1 1 1 1 1 
1 1 1 1 1 1 1 1 1 
1 1 1 1 1 1 1 1 1 
1 1 1 1 1 1 1 1 1 
1 1 1 1 1 1 1 1 1 
1 1 1 1 1 1 1 
NORMALS Normals float
0.466844 -0.331851 -0.819714 0.238705 0.0345733 -0.970476 0.245644 -0.481928 -0.841074 
0.377854 -0.604028 -0.701695 0.661054 -0.403479 -0.632623 0.49423 -0.577488 -0.649804 
0.73363 -0.523409 -0.433393 0.184268 -0.323922 -0.927965 0.50442 -0.448181 -0.738034 
0.639414 -0.294252 -0.710328 0.56706 -0.18931 -0.801626 0.284059 -0.056254 -0.957155 
0.637319 -0.509297 -0.578309 0.249117 -0.0858736 -0.964659 0.666185 -0.260907 -0.698659 
0.862293 -0.349479 -0.366491 0.727366 -0.402884 -0.555539 0.174533 0.0801113 -0.981387 
0.679237 -0.0949505 -0.727751 0.404364 0.270521 -0.873675 0.0960211 -0.464024 -0.880603 
0.417238 -0.627211 -0.657661 0.119304 -0.374809 -0.919394 0.53614 -0.701006 -0.470259 
-0.0830523 -0.173803 -0.981272 0.635232 -0.64269 -0.428287 0.787492 -0.543015 -0.291532 
0.837713 -0.387971 -0.384338 0.0106641 0.0547769 -0.998442 0.769776 -0.535731 -0.347041 
0.540961 -0.279055 -0.793404 0.769727 -0.488103 -0.411433 0.852428 -0.379681 -0.359458 
0.433676 -0.0530593 -0.899505 0.271718 0.24186 -0.93149 0.857971 -0.137672 -0.494906 
0.147218 0.192702 -0.970151 0.613141 0.0937027 -0.784397 0.49549 0.120873 -0.860162 
0.509464 -0.311764 -0.802029 0.116294 -0.602806 -0.789367 0.850017 -0.444603 -0.282488 
-0.37206 -0.384569 -0.844794 -0.0996879 -0.169406 -0.980492 0.600028 -0.0810626 -0.795861 
0.974331 -0.124073 -0.187841 0.468414 0.127382 -0.874278 0.942239 0.0941042 -0.321449 
-0.100028 0.0443471 -0.993996 -0.333284 -0.0630855 -0.940713 -0.301578 0.134942 -0.943844 
0.307465 0.309211 -0.899919 0.121965 0.400944 -0.907947 -0.269127 0.378958 -0.885416 
0.142997 0.390381 -0.90948 0.715888 0.321019 -0.620041 -0.0211941 0.554519 -0.831901 
0.635216 0.529303 -0.56244 0.410338 0.627514 -0.661701 0.629963 0.621556 -0.465634 
0.308132 -0.655479 -0.689494 0.187797 -0.530745 -0.826464 0.44238 -0.676303 -0.588995 
0.49048 -0.677989 -0.547504 -0.20957 -0.158496 -0.964862 -0.209885 -0.0924898 -0.973342 
0.733403 -0.628138 -0.259927 0.868307 -0.469108 -0.161187 -0.341911 0.200516 -0.918091 
0.929427 -0.343723 -0.134236 0.897964 -0.322088 -0.299868 0.94288 -0.102423 -0.316997 
0.351476 0.244197 -0.903788 0.819886 -0.00995682 -0.57244 0.61983 0.101927 -0.778089 
0.743832 -0.0155963 -0.668184 0 0.17597 -0.984396 -0.970143 -0.242536 0 
-0.992625 0.121226 0 0.992625 0.121226 0 0 0.447214 -0.894427 
0.194124 -0.839536 -0.507439 0.702481 -0.692147 -0.165689 0.771954 -0.626855 0.105546 
0.926001 -0.337166 0.169824 0.965956 -0.186407 0.179394 -0.470466 -0.0433388 -0.881353 
0.95533 0.263388 -0.134059 -0.580962 0.283689 -0.762891 0.872442 0.45517 -0.177948 
0.420516 0.710705 -0.563972 0.489428 0.703308 -0.515576 -0.137603 0.588819 -0.796466 
-0.183664 0.836856 -0.515693 0.25675 0.731202 -0.631999 0.593801 0.734188 -0.329195 
0.216495 0.889545 -0.402293 0.103374 -0.717376 -0.688975 0.215303 -0.768456 -0.602594 
-0.0419563 -0.482188 -0.875063 0.49714 -0.678608 -0.540688 0.631109 -0.637948 -0.441275 
0.704483 -0.644959 -0.296195 0.715483 -0.65473 -0.243745 0.83862 -0.533768 -0.108667 
-0.545631 0.450811 -0.70644 -0.430895 0.209074 -0.877849 -0.707267 0.401451 -0.581903 
-0.415686 0.396907 -0.818334 0 0.17597 0.984396 0.266626 0.0865658 -0.959905 
0.686466 -0.0902112 -0.721544 0.922511 -0.233948 -0.306989 0.550486 -0.100987 -0.828714 
0.647383 -0.119966 -0.752664 0.328168 0.00504813 -0.944606 0.602324 -0.463249 -0.650082 
0.305482 -0.222511 -0.925835 0.815591 -0.207426 -0.540172 0.129421 0.232466 -0.963955 
0.0343679 -0.545218 -0.83759 0.490574 -0.701303 -0.517215 -0.257054 -0.518103 -0.815777 
0.308782 -0.820244 -0.481512 0.817837 -0.572958 -0.0534871 0.981575 -0.0196678 0.190065 
-0.588402 -0.15514 -0.793546 0.930535 0.364908 0.0307498 0.836073 0.548571 -0.00727001 
-0.471424 0.684635 -0.555908 0.1443 -0.716886 -0.682094 -0.090898 -0.502071 -0.860036 
0.441879 -0.810688 -0.384093 -0.218612 -0.414049 -0.883613 0.597163 -0.696162 -0.39844 
-0.394213 -0.117206 -0.911515 -0.657541 0.321262 -0.681492 0.864716 -0.498808 0.0587994 
-0.554035 0.306077 -0.774184 0 0.17597 -0.984396 -0.970143 -0.242536 0 
-0.992625 0.121226 0 0.992625 0.121226 0 0.0109345 0.185864 -0.982515 
0.873556 -0.310941 -0.374454 0 0.447214 -0.894427 0.715085 -0.232223 -0.659337 
-0.136591 0.151672 -0.978948 0.108187 0.0911906 -0.989939 0.393086 -0.00988939 -0.919449 
0.866517 -0.461524 -0.190113 0.950954 -0.299474 0.0774727 0.737453 0.296382 -0.606895 
-0.0670736 0.392565 -0.917275 0.732756 -0.0449709 -0.679003 0.83026 0.295586 -0.472544 
0.46537 -0.155569 -0.871337 0.893486 -0.382659 -0.235063 0.296985 0.00535333 -0.954867 
0.784142 -0.352036 -0.511069 0.702185 0.0357191 -0.711098 0.450164 0.216338 -0.866343 
0.857652 0.242203 -0.45362 0.425092 -0.561996 -0.709547 0.763675 -0.483928 -0.427334 
-0.00968213 -0.525109 -0.85098 0.596697 -0.564489 -0.570355 -0.350078 -0.351212 -0.868387 
0.736585 -0.58879 -0.33282 0.958971 0.263081 0.105657 0.671539 0.740886 0.0111038 
0.318574 0.936179 -0.148593 -0.11513 -0.505484 -0.855121 0.350057 -0.763804 -0.542276 
-0.695664 0.129394 -0.706618 0.643088 -0.714247 -0.276203 0.759397 -0.617308 -0.205541 
0.954779 -0.260787 -0.142781 0 0.17597 0.984396 -0.310695 0.318672 -0.895498 
0.979511 -0.163262 0.117915 0.954857 -0.0725598 0.288068 0.981556 -0.15635 -0.110008 
0.0475784 0.230269 -0.971963 0.536215 -0.0646768 -0.8416 0.912795 -0.152583 -0.378846 
0.772831 -0.286745 -0.566136 0.969236 -0.191132 -0.155078 0.96285 -0.151088 -0.223815 
0.928337 -0.0572612 -0.367302 0.954128 -0.0416155 -0.296492 0.902241 -0.364133 -0.231015 
-0.103371 -0.299722 -0.94841 0.58101 -0.47705 -0.659432 0.809751 -0.45107 -0.375285 
-0.452799 -0.210969 -0.866294 -0.713214 0.024308 -0.700525 0.873783 0.474425 0.106886 
-0.739748 0.470725 -0.480823 0.774779 0.592506 0.220576 0.287687 -0.687382 -0.66689 
0.153426 -0.487861 -0.859332 0.345234 -0.633702 -0.692268 0.0306198 -0.434319 -0.900239 
0.215116 -0.534886 -0.817082 0.0899678 -0.572245 -0.815133 0.314 -0.680128 -0.662442 
-0.437219 -0.191066 -0.878825 -0.364034 -0.252089 -0.896622 -0.840511 0.319092 -0.43786 
-0.429602 0.356282 -0.829762 0.994931 -0.0955271 -0.0314032 0.461044 -0.0348388 -0.886693 
0.112593 0.208085 -0.971609 -0.211873 0.253025 -0.943975 0.259229 -0.0334264 -0.965237 
-0.340472 -0.0342087 -0.939632 0.861848 -0.283255 -0.420695 -0.46903 -0.0837703 -0.8792 
-0.401901 -0.166538 -0.900412 -0.595663 0.716742 -0.362583 0.059496 -0.572985 -0.817403 
-0.139635 -0.413436 -0.899763 0.514574 -0.729356 -0.450837 -0.720205 0.537917 -0.43812 
-0.216334 0.118303 -0.969125 0.949448 -0.14839 -0.27664 -0.492088 0.0894417 -0.865939 
-0.472481 0.122086 -0.872844 -0.605953 0.12153 -0.786163 0.958385 -0.258868 -0.120358 
-0.864649 0.242621 -0.439905 0.920915 0.207684 0.329823 0.525939 0.85022 -0.0226783 
0.343363 0.933429 -0.103986 -0.0344779 0.95558 -0.292707 0.163042 -0.369306 -0.914894 
0.39706 -0.505683 -0.765916 0.441425 -0.533701 -0.721323 -0.468105 -0.104141 -0.877515 
-0.754963 0.371089 -0.54067 -0.816846 0.4235 -0.391677 0.95327 -0.280503 0.112222 
-0.578842 0.242623 -0.778509 -0.783995 0.222646 -0.579466 0.96847 -0.228404 0.0994875 
0.767925 0.596171 0.234245 -0.623347 0.713339 -0.32029 -0.315348 0.898178 -0.30632 
0.236389 0.955924 -0.174152 -0.232381 0.960546 -0.152808 0.499882 -0.347161 -0.793472 
0.332722 -0.354816 -0.873729 0.0515407 -0.446814 -0.893141 0.413408 -0.496095 -0.763534 
-0.21071 -0.298379 -0.930898 -0.459077 -0.116648 -0.880705 0.835402 -0.546169 0.0616677 
0.379662 0.92511 -0.0052493 0.331113 -0.482036 -0.811175 0.454017 -0.549139 -0.701651 
0.0340712 -0.484994 -0.873853 0.0487941 -0.370893 -0.927393 0.597018 -0.453487 -0.661755 
-0.275717 -0.284529 -0.918163 -0.253638 -0.240528 -0.936917 0.561511 -0.63713 -0.527988 
-0.44982 -0.0756813 -0.889907 -0.823353 0.288219 -0.488896 -0.727767 0.659493 -0.188212 
0.366403 -0.565139 -0.739167 0.500754 -0.440149 -0.745328 0.537431 -0.514457 -0.668208 
-0.62521 -0.0103335 -0.780389 0.80073 -0.584037 -0.13316 -0.848683 0.490185 -0.198632 
-0.815387 0.432354 -0.384987 -0.725701 0.68524 -0.0616783 0.0822241 -0.694122 -0.715146 
-0.0691544 -0.44116 -0.89476 0.733801 -0.51413 -0.444078 0.915634 -0.353207 0.191988 
0.970721 -0.214507 0.108109 0.642813 0.714469 0.276272 -0.391133 0.91576 0.0916493 
-0.0516893 0.998235 0.0292391 -0.146879 -0.716086 -0.682384 0.496041 -0.74646 -0.443554 
0.486799 0.798754 0.353581 -0.187112 0.961798 0.199834 0.101515 0.964672 0.243109 
0.142758 -0.856835 -0.495432 0.220376 -0.934698 -0.278881 -0.151142 -0.636243 -0.756538 
-0.46595 -0.234221 -0.853247 0.756305 0.446315 0.478337 -0.484032 0.873471 0.0525579 
-0.046125 -0.838165 -0.543463 0.247958 -0.923678 -0.292123 -0.24002 -0.661099 -0.710872 
-0.414612 -0.497723 -0.76182 0.482255 -0.841427 -0.243786 -0.46236 -0.417184 -0.78242 
-0.691044 -0.0220422 -0.722477 -0.514247 -0.117428 -0.849565 -0.450225 -0.21834 -0.865809 
0.796722 -0.501741 -0.336883 -0.716809 0.496418 0.489647 -0.719793 0.694019 0.0153475 
-0.23534 -0.736271 -0.634444 -0.362174 -0.684549 -0.632631 -0.597014 -0.437412 -0.672492 
0.0778017 -0.933328 -0.350493 -0.343659 -0.541951 -0.766934 -0.540686 -0.348932 -0.765444 
-0.372742 -0.409856 -0.832515 0.608669 -0.788475 -0.0884814 -0.807665 0.435641 -0.397359 
-0.15464 0.610089 0.777096 0.553684 0.334776 0.762469 -0.350445 0.7847 0.511306 
0.200958 0.245273 0.948397 -0.360193 0.29669 0.884441 -0.105099 0.98477 0.138502 
0.0967311 0.940277 0.326376 -0.596983 -0.608377 -0.522962 -0.443947 -0.747169 -0.494621 
-0.0973135 -0.924171 -0.369375 -0.796561 -0.395256 -0.457453 -0.71618 -0.277966 -0.640172 
-0.897963 0.286378 -0.33414 -0.736216 0.676741 0.00283615 -0.103844 0.901233 0.420708 
-0.353244 0.810221 0.467719 0.409351 0.0834051 0.908557 -0.157293 -0.0467494 0.986445 
0.660541 0.578221 0.478901 -0.287215 -0.934495 -0.210301 -0.168283 -0.940475 -0.295277 
-0.00612763 -0.972423 -0.233143 0.108735 -0.9904 -0.0853469 -0.971305 -0.0482068 -0.2329 
-0.92163 0.0475686 -0.385144 0.814037 -0.57068 0.108015 -0.807638 0.490803 -0.326855 
0.770054 0.248104 0.587759 -0.708333 0.688901 -0.153879 0.4875 0.508427 0.709821 
0.341728 0.731808 0.589643 -0.0747064 0.965247 0.250434 0.144605 0.711987 0.687142 
-0.345463 0.875564 0.337704 -0.0202876 0.736534 0.676096 0.400264 -0.698985 -0.592629 
-0.879982 0.173978 -0.441998 0.631898 0.494572 -0.596744 0.879982 -0.173978 0.441998 
-0.400264 0.698985 0.592629 -0.514674 0.0598572 0.855294 -0.698782 -0.676349 -0.232929 
0.663613 -0.746271 0.0519294 0.81422 -0.344329 0.467421 -0.82217 0.526543 -0.216307 
-0.812242 0.573703 -0.105488 -0.692046 0.721716 -0.0140957 0.0243631 0.877128 0.479639 
0.492806 0.680865 0.541816 -0.631898 -0.494572 0.596744 0.400264 -0.698985 -0.592629 
-0.879982 0.173978 -0.441998 0.631898 0.494572 -0.596744 -0.0586423 0.685939 0.725292 
0.879982 -0.173978 0.441998 -0.400264 0.698985 0.592629 -0.30162 -0.945456 -0.123036 
-0.889244 -0.457229 -0.0136505 -0.991183 0.0968275 -0.0904507 -0.946144 0.305389 -0.107466 
0.901507 -0.428329 0.0618052 0.885155 -0.0870043 0.457089 -0.526282 0.848858 0.0496743 
0.450922 0.687481 0.569244 -0.066419 0.961623 0.266215 -0.0701333 0.961399 0.26607 
-0.631898 -0.494572 0.596744 -0.664129 -0.746618 0.0386568 0.0726136 -0.997356 0.00270816 
0.331872 -0.940917 0.0673544 0.847065 -0.399404 0.350652 -0.762329 0.614518 -0.203033 
0.816425 0.223118 0.532605 0.766868 0.332876 0.548733 -0.915683 -0.175342 -0.361636 
0.51941 0.676572 0.52198 -0.440394 -0.887288 0.137013 0.307701 -0.911174 0.274011 
-0.881257 -0.457265 0.119565 -0.918844 -0.381303 0.101658 -0.996526 0.0570645 0.0606554 
0.860193 -0.235138 0.452523 -0.750986 -0.64596 0.136949 -0.0846525 -0.992849 0.0841689 
0.604619 -0.697915 0.383862 0.820967 -0.4607 0.337296 0.760144 0.198434 0.618712 
-0.298094 0.915443 0.270376 -0.684349 0.723969 0.0868061 -0.0510967 0.779971 0.623726 
0.335688 0.788346 0.515581 -0.543129 0.811467 0.215715 -0.468493 -0.851315 0.236172 
-0.990029 -0.00418903 0.140799 -0.939343 0.338825 0.0532104 0.763517 -0.446485 0.466576 
-0.778304 0.600203 -0.18439 -0.205193 0.953416 0.221118 -0.516515 0.825135 0.228833 
0.498826 0.612207 0.613494 -0.602414 0.79638 0.0536393 0.383757 0.613697 0.690004 
-0.0769641 0.875082 0.477816 -0.732079 -0.550529 0.401221 -0.762091 -0.509499 0.399535 
0.0278078 -0.95134 0.306885 -0.982363 0.00836427 0.186795 0.748376 -0.282056 0.600314 
0.403072 0.841382 0.360013 0.19351 0.890841 0.411042 0.221391 0.754199 0.618199 
0.505796 0.602154 0.617723 -0.638446 -0.656097 0.402397 -0.707088 -0.489619 0.510196 
0.747312 -0.344247 0.568347 0.624631 0.554511 0.549868 -0.402387 0.899071 0.1725 
-0.145098 0.932977 0.329393 -0.776267 -0.573109 0.262593 0.316011 -0.81179 0.491053 
0.575669 -0.527913 0.62443 -0.89979 0.436307 -0.00371498 -0.708503 0.683759 -0.174631 
0.669895 0.487844 0.559687 0.103379 0.816179 0.568475 0.329837 0.705823 0.626914 
0.0983079 0.841049 0.531952 -0.788864 -0.429781 0.439298 -0.530572 -0.752905 0.389394 
-0.274881 -0.78923 0.549141 -0.0922255 -0.868616 0.486827 -0.928654 -0.12474 0.349345 
-0.878913 0.383104 0.284152 0.82335 0.161718 0.544006 -0.519067 0.853226 0.0507457 
0.74689 0.41784 0.517266 0.55473 0.576729 0.599715 -0.571561 -0.679185 0.460463 
0.153571 -0.658805 0.736473 -0.919375 0.389274 -0.056699 -0.911173 0.410795 -0.0318045 
-0.371484 0.896708 0.240655 -0.517971 0.848603 0.107607 -0.0697939 0.951278 0.300331 
-0.484571 -0.583585 0.651628 -0.795795 -0.398834 0.455678 -0.126323 -0.726508 0.675447 
-0.77649 0.443975 0.447157 -0.748144 0.662514 -0.0368283 0.593054 0.362087 0.719153 
-0.418819 0.868637 0.26469 -0.0303215 0.912694 0.407518 -0.558783 -0.378194 0.738059 
-0.279689 -0.374574 0.884007 -0.226469 -0.306828 0.924428 -0.746336 -0.00850693 0.665515 
0.191644 -0.411265 0.891142 -0.790409 0.123384 0.600025 -0.828381 0.387744 0.404276 
-0.856409 0.238725 0.457793 -0.865858 0.327306 0.378366 0.46 0.668474 0.584416 
-0.376954 -0.190329 0.906466 -0.687072 -0.357812 0.632379 -0.935009 0.319344 0.154203 
-0.0829461 -0.166855 0.982486 0.290581 -0.331346 0.897648 -0.311472 0.474446 0.823339 
-0.535749 0.32007 0.781363 -0.644057 0.166573 0.746622 -0.164679 -0.164077 0.972605 
0.0483207 -0.256919 0.965224 0.31565 -0.367548 0.874799 0.512216 -0.276699 0.813064 
-0.862662 0.334301 0.37955 0.607944 -0.243303 0.755783 -0.909072 0.40773 -0.0857049 
0.652805 -0.153049 0.741904 -0.790788 0.610769 0.0401848 -0.778834 0.627227 0.00191961 
-0.386991 0.830368 0.400907 0.0450743 0.733873 0.67779 0.144441 0.803458 0.577574 
-0.0234041 -0.670172 0.741836 -0.934851 -0.145551 0.323834 0.0894234 0.159027 0.983216 
-0.696087 0.592174 0.405948 -0.709172 0.391071 0.586633 -0.119286 -0.221735 0.967783 
-0.635916 -0.223652 0.738641 -0.57815 0.370805 0.726805 0.219856 -0.233242 0.947239 
0.241046 -0.158293 0.957518 0.432945 -0.303008 0.848967 -0.916134 0.330983 0.226161 
0.579776 -0.354855 0.733443 -0.909251 0.416243 -0.00218519 -0.908621 0.415657 0.0404565 
-0.535318 0.635121 0.556827 -0.777635 0.564366 0.277081 0.419572 0.521804 0.742752 
-0.343005 0.907713 0.24167 0.400264 -0.698985 -0.592629 -0.879982 0.173978 -0.441998 
0.631898 0.494572 -0.596744 0.879982 -0.173978 0.441998 -0.400264 0.698985 0.592629 
-0.598465 -0.0314782 0.800531 -0.374564 0.0215227 0.926951 -0.605611 0.00634739 0.795736 
0.232404 -0.859597 -0.455062 -0.787595 0.303416 -0.536314 0.628779 0.536423 -0.562928 
0.826159 -0.308067 0.471759 -0.17812 0.885356 0.429439 -0.0825002 -0.505078 0.859122 
-0.654011 -0.260464 0.710231 -0.174252 -0.155689 0.972315 0.109231 0.058848 0.992273 
-0.6233 0.166088 0.764141 -0.487668 -0.0886881 0.868513 -0.402416 -0.138854 0.904865 
0.0696712 -0.264023 0.961997 -0.841742 0.204368 0.499704 -0.133703 -0.251298 0.958631 
-0.828164 0.00766474 0.560434 -0.0230029 -0.253826 0.966976 0.176655 -0.13013 0.975633 
-0.564561 0.35305 0.746074 -0.663212 0.0827806 0.743839 0.157701 -0.197692 0.967496 
-0.720972 0.00116991 0.692964 -0.805648 0.266637 0.528995 -0.870648 0.280418 0.404151 
-0.917638 0.304727 0.255112 0.443809 -0.332627 0.832102 -0.886032 0.315897 0.339346 
0.525572 -0.00209324 0.850746 -0.88616 0.43185 0.168005 0.527096 -0.00799098 0.849768 
0.277901 0.373638 0.884967 -0.404752 0.767042 0.497817 0.0822766 0.248084 0.965238 
0.55458 -0.00389454 0.832121 0.728339 -0.10134 0.677681 0.692089 0.290433 0.660804 
0.3147 0.841192 0.439728 -0.631898 -0.494572 0.596744 -0.59295 -0.59295 0.544812 
-0.282345 -0.286177 0.915633 -0.0708215 -0.0510204 0.996183 0.0930475 -0.61861 0.780169 
0.229375 -0.533764 0.813931 0.0805036 -0.7901 0.607669 -0.27395 -0.394301 0.877199 
-0.367162 0.0753385 0.927101 -0.614787 0.10965 0.781034 -0.16126 -0.0269833 0.986543 
0.198748 -0.0668306 0.977769 0.190269 -0.220286 0.956698 0.182516 -0.275509 0.943813 
-0.755646 0.0633595 0.651908 0.229153 -0.20021 0.952578 0.215907 -0.140581 0.966241 