# vtk DataFile Version 4.2
vtk output
ASCII
DATASET POLYDATA
POINTS 1352 float
122.928 121.726 169.639 122.847 121.736 169.608 120.806 118.417 169.741 
122.642 121.714 169.589 123.077 123.894 169.784 123.771 123.559 170.16 
121.637 124.739 169.87 122.797 125.013 169.908 123.376 124.422 169.977 
123.242 125.06 170.018 124.103 126.89 170.522 123.224 112.197 171.145 
123.471 112.497 171.129 123.392 112.31 171.154 123.497 112.333 171.241 
122.973 112.809 170.877 122.631 112.447 170.904 123.261 112.869 170.955 
123.456 112.837 171.085 122.355 113.582 170.575 123.532 113.227 171.158 
123.641 112.916 171.31 123.273 114.059 170.941 121.453 122.289 169.652 
123.953 123.133 170.339 121.373 125.957 170.433 122.439 125.872 170.104 
121.819 127.464 170.847 123.516 128.509 170.759 123.449 128.355 170.727 
122.945 111.602 171.498 123.548 112.299 171.439 123.744 112.974 171.592 
123.345 116.52 170.925 124.451 123.837 170.942 123.542 127.852 170.633 
123.08 129.173 171.214 120.955 109.785 172.571 120.946 110.114 172.166 
121.242 110.908 171.552 122.21 111.092 171.634 123.731 112.668 171.71 
114.999 118.075 172.375 125.032 130.9 172.321 123.856 131.591 172.404 
124.4 131.89 172.498 125.976 132.753 173.121 130.404 151.025 173.02 
130.399 150.974 173.033 130.369 151.143 173.016 130.256 151.045 173.097 
130.402 151.066 173.061 130.078 151.407 173.094 129.845 151.39 173.276 
130.365 151.338 173.002 130.386 151.436 173.061 130.266 151.835 172.997 
130.077 152.189 173.068 130.204 152.122 173.031 130.302 151.969 173.046 
129.944 152.525 173.204 129.882 152.641 173.292 130.078 152.402 173.128 
130.21 152.26 173.107 130.266 152.128 173.054 129.978 152.618 173.221 
129.898 152.723 173.33 130.134 152.415 173.205 129.969 152.69 173.291 
118.638 108.93 173.091 119.133 109.024 173.009 123.69 112.555 171.981 
113.89 114.559 172.713 124.296 119.905 171.811 124.528 121.281 171.689 
118.467 124.933 172.685 124.363 133.251 173.128 126.694 134.293 174.15 
125.799 135.059 173.7 126.211 135.225 173.937 125.606 135.835 173.883 
125.77 136.197 174.042 129.984 150.57 173.483 129.992 150.251 173.789 
130.1 150.883 173.252 130.242 150.806 173.269 130.354 150.991 173.254 
129.563 151.545 173.521 129.565 152.35 173.594 130.204 152.274 173.252 
129.837 152.765 173.471 129.916 152.743 173.38 118.897 108.178 173.982 
118.889 107.958 174.382 119.444 108.541 173.675 119.781 108.541 173.901 
121.218 109.513 173.701 116.18 109.773 172.996 124.113 116.258 172.8 
124.314 118.808 172.399 125.171 123.991 172.931 124.408 135.144 173.962 
126.867 134.041 174.37 126.879 133.703 174.432 124.952 135.646 173.928 
126.904 134.997 174.607 126.594 136.101 174.43 126.301 136.776 174.459 
126.188 137.451 174.678 130.22 150.655 173.556 128.722 150.884 174.476 
128.956 151.812 174.274 130.206 151.703 173.809 129.549 152.727 173.819 
129.707 152.772 173.756 129.492 152.883 174.132 119.269 108.085 174.519 
122.184 110.411 173.679 110.57 113.84 175.328 123.936 115.202 173.722 
111.229 115.002 175.08 111.875 115.037 174.439 124.6 119.173 173.85 
123.467 135.502 174.902 125.164 137.649 174.734 124.971 137.849 174.912 
126.054 140.498 175.573 126.668 140.299 175.582 126.395 140.904 175.674 
126.312 141.617 175.886 129.192 148.264 175.014 129.538 148.883 174.746 
128.89 149.09 174.711 128.453 148.304 175.285 128.914 152.748 174.869 
115.94 106.562 175.834 115.229 106.606 175.68 110.019 114.133 176.105 
125.65 125.814 174.705 126.339 129.422 174.851 127.253 134.199 175.853 
127.251 134.816 175.5 125.064 139.063 175.439 127.882 140.287 176.73 
127.754 142.166 176.567 126.525 143.016 176.24 127.465 143.317 176.324 
126.59 144.099 176.434 127.403 143.885 176.312 129.256 147.845 175.149 
129.247 147.808 175.159 129.245 147.812 175.178 129.231 147.961 175.139 
129.075 147.859 175.253 129.257 147.897 175.169 128.641 147.699 175.477 
129.298 148.155 175.161 128.234 149.163 175.2 127.648 149.661 175.806 
128.486 152.791 175.475 128.232 153.303 176.114 128.742 152.988 175.628 
128.157 153.647 176.456 127.86 154.12 176.78 127.96 154.007 176.721 
127.818 154.331 176.886 114.713 105.808 176.96 113.663 106.24 176.098 
117.407 106.919 176.23 119.293 108.084 175.621 108.881 108.95 176.636 
108.17 109.335 177.173 107.883 110.727 177.743 110.437 115.471 176.619 
124.655 121.117 176.088 127.839 138.491 176.671 128.069 140.174 177.139 
128.162 140.461 177.478 125.619 143.294 176.851 126.108 144.93 176.932 
127.944 144.833 176.441 128.225 144.661 176.736 129.207 147.806 175.195 
129.179 147.791 175.28 127.69 146.996 176.033 128.242 146.901 175.889 
128.905 147.305 175.799 128.044 153.854 176.801 127.685 154.328 177.159 
127.781 154.328 177.019 116.013 106.275 176.737 118.861 108.048 176.808 
107.522 108.073 177.922 121.678 111.234 176.305 110.541 115.826 176.897 
128.107 139.481 177.496 124.167 141.185 177.475 128.34 143.842 177.283 
125.363 144.29 177.485 127.457 154.327 177.54 127.606 154.382 177.473 
127.753 154.295 177.16 108.611 104.338 178.903 107.228 105.713 178.774 
118.985 108.492 177.46 107.073 108.176 178.417 106.503 108.71 179.337 
123.915 121.482 178.158 126.516 130.547 177.411 127.453 134.715 177.459 
129.218 148.177 177.321 128.441 151.978 177.732 127.265 154.202 177.841 
127.163 154.852 178.207 127.318 154.778 178.049 127.122 155.182 178.367 
127.009 155.457 178.57 107.422 103.208 180.492 107.813 103.136 180.519 
108.689 103.69 179.629 106.501 104.311 179.928 114.142 105.19 178.499 
106.082 104.709 180.094 105.949 105.005 180.141 114.588 105.426 178.687 
125.95 130.027 178.94 128.5 143.904 178.458 125.687 148.957 178.88 
125.81 149.539 179.009 126.939 152.661 178.564 127.077 153.495 178.407 
127.079 154.469 178.496 127.398 154.512 178.095 126.936 155.425 178.775 
127.006 155.525 178.638 126.686 156.374 179.223 126.882 155.865 178.837 
126.765 156.177 179.059 126 160.009 179.017 126 160.009 179.017 
126 160.009 179.017 126 160.009 179.017 126 160.009 179.017 
106.079 103.714 180.699 106.491 103.934 180.208 120.095 134.019 180.426 
127.965 141.611 179.927 128.515 145.386 179.189 128.867 147.697 178.578 
128.071 150.23 179.367 126.117 150.734 179.655 126.45 151.234 179.665 
127.072 152.635 178.851 127.36 153.05 178.614 127.21 153.791 178.514 
127.111 154.695 178.558 126.53 156.926 179.526 127.047 155.233 178.639 
126.404 157.242 179.758 126.739 156.25 179.141 126.742 156.279 179.118 
126.441 157.123 179.687 126.298 157.51 179.954 126.518 156.904 179.539 
126.37 157.317 179.819 126 160.009 179.017 126.297 157.51 179.956 
105.422 102.662 182.714 106.314 102.815 181.688 107.741 102.7 181.921 
105.118 103.086 182.479 105.691 102.992 181.824 109.924 103.273 181.36 
104.997 103.674 182.221 114.495 105.746 180.406 105.014 106.329 182.139 
115.879 107.616 181.148 123.938 145.332 180.541 128.063 149.01 179.83 
125.721 150.117 180.206 127.019 150.349 180.48 126.007 150.549 180.337 
126.72 151.288 179.859 126.486 157.037 179.607 126.365 157.334 179.83 
126.566 156.791 179.455 126.152 157.867 180.227 126.225 157.691 180.092 
126.249 157.624 180.044 125.887 158.485 180.719 125.913 158.427 180.672 
125.883 158.496 180.728 126.16 157.85 180.212 125.914 158.425 180.67 
125.886 158.488 180.721 105.634 102.492 183.035 106.081 102.485 182.782 
111.804 104.101 181.265 127.479 147.721 181.012 125.867 150.265 181.091 
126.014 158.193 180.483 126.013 158.198 180.485 125.921 158.41 180.657 
126.097 158.001 180.329 126.095 158.005 180.332 125.876 158.509 180.739 
125.996 158.237 180.517 125.921 158.409 180.657 125.879 158.504 180.735 
107.99 102.727 182.889 112.158 104.779 182.483 105.039 107.368 183.146 
126.551 148.872 181.776 124.687 149.042 182.725 125.004 149.451 182.301 
125.294 149.75 181.833 126.052 150.052 181.421 125.475 149.94 181.747 
125.583 150.03 181.684 125.935 158.378 180.631 126.018 158.187 180.476 
125.887 158.486 180.72 125.884 158.493 180.726 125.899 158.459 180.698 
125.872 158.52 180.748 104.744 102.683 184.1 108.853 103.114 183.347 
104.432 103.545 183.992 104.336 105.087 184.106 104.662 106.238 184.343 
125.624 145.006 183.719 126.265 146.661 182.757 123.98 148.007 183.943 
124.395 148.514 183.192 124.645 148.88 183.086 125.391 149.47 182.371 
124.83 149.362 182.708 124.776 149.249 182.89 124.896 149.465 182.717 
125.089 149.448 182.551 125.341 149.716 182.09 124.824 149.451 182.828 
124.825 149.435 182.869 125.543 149.939 181.818 124.827 149.499 182.857 
125.875 158.513 180.742 104.834 102.3 184.75 104.885 102.246 184.963 
106.038 109.581 184.347 112.984 120.785 184.85 116.979 128.416 185.116 
118.982 133.006 183.967 124.233 139.262 184.777 121.728 141.076 184.504 
123.412 146.828 183.818 123.652 147.853 184.532 123.74 147.911 184.63 
124.119 147.91 184.253 124.611 148.433 183.485 123.558 147.966 184.931 
123.481 147.983 185.025 124.89 149.339 182.845 105.084 102.25 185.066 
104.836 102.268 185.245 105.283 102.372 185.566 108.157 103.402 185.313 
104.323 104.255 185.598 109.601 104.548 185.274 105.748 108.465 185.974 
119.97 127.153 185.616 118.523 132.004 185.329 122.106 134.215 185.7 
123.773 137.828 184.979 123.826 144.414 185.315 123.794 147.642 184.792 
123.427 147.986 185.131 104.575 102.381 185.556 104.774 102.364 185.618 
104.957 102.506 185.912 104.418 103.013 185.648 104.521 103.858 186.237 
104.604 104.869 186.126 113.052 120.48 186.402 118.104 123.131 186.037 
116.377 126.735 186.367 119.137 133.428 186.124 122.298 137.307 186.082 
121.501 139.826 185.921 122.837 140.194 185.917 121.96 141.831 186.072 
122.139 142.291 185.895 122.258 142.931 185.738 122.287 143.472 185.839 
122.813 145.229 185.514 123.086 146.206 185.081 123.264 146.943 185.157 
123.3 147.353 185.194 123.317 147.292 185.227 123.315 147.443 185.233 
123.323 147.516 185.196 123.36 147.71 185.177 123.385 147.886 185.207 
123.428 147.986 185.171 123.398 147.969 185.195 104.576 102.42 185.734 
104.498 102.465 185.641 104.684 102.591 185.918 104.548 102.471 185.813 
[...]
POINT_DATA 1352
SCALARS scalars float
LOOKUP_TABLE default
1 1 1 1 1 1 1 1 1 
1 1 1 1 1 1 1 1 1 
1 1 1 1 1 1 1 1 1 
1 1 1 1 1 1 1 1 1 
1 1 1 1 1 1 1 1 1 
1 1 1 1 1 1 1 1 1 
1 1 1 1 1 1 1 1 1 
1 1 1 1 1 1 1 1 1 
1 1 1 1 1 1 1 1 1 
1 1 1 1 1 1 1 1 1 
1 1 1 1 1 1 1 1 1 
1 1 1 1 1 1 1 1 1 
1 1 1 1 1 1 1 1 1 
1 1 1 1 1 1 1 1 1 
1 1 1 1 1 1 1 1 1 
1 1 1 1 1 1 1 1 1 
1 1 1 1 1 1 1 1 1 
1 1 1 1 1 1 1 1 1 
1 1 1 1 1 1 1 1 1 
1 1 1 1 1 1 1 1 1 
1 1 1 1 1 1 1 1 1 
1 1 1 1 1 1 1 1 1 
1 1 1 1 1 1 1 1 1 
1 1 1 1 1 1 1 1 1 
1 1 1 1 1 1 1 1 1 
1 1 1 1 1 1 1 1 1 
1 1 1 1 1 1 1 1 1 
1 1 1 1 1 1 1 1 1 
1 1 1 1 1 1 1 1 1 
1 1 1 1 1 1 1 1 1 
1 1 1 1 1 1 1 1 1 
1 1 1 1 1 1 1 1 1 
1 1 1 1 1 1 1 1 1 
1 1 1 1 1 1 1 1 1 
1 1 1 1 1 1 1 1 1 
1 1 1 1 1 1 1 1 1 
1 1 1 1 1 1 1 1 1 
1 1 1 1 1 1 1 1 1 
1 1 1 1 1 1 1 1 1 
1 1 1 1 1 1 1 1 1 
1 1 1 1 1 1 1 1 1 
1 1 1 1 1 1 1 1 1 
1 1 1 1 1 1 1 1 1 
1 1 1 1 1 1 1 1 1 
1 1 1 1 1 1 1 1 1 
1 1 1 1 1 1 1 1 1 
1 1 1 1 1 1 1 1 1 
1 1 1 1 1 1 1 1 1 
1 1 1 1 1 1 1 1 1 
1 1 1 1 1 1 1 1 1 
1 1 1 1 1 1 1 1 1 
1 1 1 1 1 1 1 1 1 
1 1 1 1 1 1 1 1 1 
1 1 1 1 1 1 1 1 1 
1 1 1 1 1 1 1 1 1 
1 1 1 1 1 1 1 1 1 
1 1 1 1 1 1 1 1 1 
1 1 1 1 1 1 1 1 1 
1 1 1 1 1 1 1 1 1 
1 1 1 1 1 1 1 1 1 
1 1 1 1 1 1 1 1 1 
1 1 1 1 1 1 1 1 1 
1 1 1 1 1 1 1 1 1 
1 1 1 1 1 1 1 1 1 
1 1 1 1 1 1 1 1 1 
1 1 1 1 1 1 1 1 1 
1 1 1 1 1 1 1 1 1 
1 1 1 1 1 1 1 1 1 
1 1 1 1 1 1 1 1 1 
1 1 1 1 1 1 1 1 1 
1 1 1 1 1 1 1 1 1 
1 1 1 1 1 1 1 1 1 
1 1 1 1 1 1 1 1 1 
1 1 1 1 1 1 1 1 1 
1 1 1 1 1 1 1 1 1 
1 1 1 1 1 1 1 1 1 
1 1 1 1 1 1 1 1 1 
1 1 1 1 1 1 1 1 1 
1 1 1 1 1 1 1 1 1 
1 1 1 1 1 1 1 1 1 
1 1 1 1 1 1 1 1 1 
1 1 1 1 1 1 1 1 1 
1 1 1 1 1 1 1 1 1 
1 1 1 1 1 1 1 1 1 
1 1 1 1 1 1 1 1 1 
1 1 1 1 1 1 1 1 1 
1 1 1 1 1 1 1 1 1 
1 1 1 1 1 1 1 1 1 
1 1 1 1 1 1 1 1 1 
1 1 1 1 1 1 1 1 1 
1 1 1 1 1 1 1 1 1 
1 1 1 1 1 1 1 1 1 
1 1 1 1 1 1 1 1 1 
1 1 1 1 1 1 1 1 1 
1 1 1 1 1 1 1 1 1 
1 1 1 1 1 1 1 1 1 
1 1 1 1 1 1 1 1 1 
1 1 1 1 1 1 1 1 1 
1 1 1 1 1 1 1 1 1 
1 1 1 1 1 1 1 1 1 
1 1 1 1 1 1 1 1 1 
1 1 1 1 1 1 1 1 1 
1 1 1 1 1 1 1 1 1 
1 1 1 1 1 1 1 1 1 
1 1 1 1 1 1 1 1 1 
1 1 1 1 1 1 1 1 1 
1 1 1 1 1 1 1 1 1 
1 1 1 1 1 1 1 1 1 
1 1 1 1 1 1 1 1 1 
1 1 1 1 1 1 1 1 1 
1 1 1 1 1 1 1 1 1 
1 1 1 1 1 1 1 1 1 
1 1 1 1 1 1 1 1 1 
1 1 1 1 1 1 1 1 1 
1 1 1 1 1 1 1 1 1 
1 1 1 1 1 1 1 1 1 
1 1 1 1 1 1 1 1 1 
1 1 1 1 1 1 1 1 1 
1 1 1 1 1 1 1 1 1 
1 1 1 1 1 1 1 1 1 
1 1 1 1 1 1 1 1 1 
1 1 1 1 1 1 1 1 1 
1 1 1 1 1 1 1 1 1 
1 1 1 1 1 1 1 1 1 
1 1 1 1 1 1 1 1 1 
1 1 1 1 1 1 1 1 1 
1 1 1 1 1 1 1 1 1 
1 1 1 1 1 1 1 1 1 
1 1 1 1 1 1 1 1 1 
1 1 1 1 1 1 1 1 1 
1 1 1 1 1 1 1 1 1 
1 1 1 1 1 1 1 1 1 
1 1 1 1 1 1 1 1 1 
1 1 1 1 1 1 1 1 1 
1 1 1 1 1 1 1 1 1 
1 1 1 1 1 1 1 1 1 
1 1 1 1 1 1 1 1 1 
1 1 1 1 1 1 1 1 1 
1 1 1 1 1 1 1 1 1 
1 1 1 1 1 1 1 1 1 
1 1 1 1 1 1 1 1 1 
1 1 1 1 1 1 1 1 1 
1 1 1 1 1 1 1 1 1 
1 1 1 1 1 1 1 1 1 
1 1 1 1 1 1 1 1 1 
1 1 1 1 1 1 1 1 1 
1 1 1 1 1 1 1 1 1 
1 1 1 1 1 1 1 1 1 
1 1 1 1 1 1 1 1 1 
1 1 1 1 1 1 1 1 1 
1 1 
NORMALS Normals float
0.462963 -0.228574 -0.856399 0.163559 -0.0123853 -0.986456 0.0350308 -0.112341 -0.993052 
0.0880425 -0.192092 -0.97742 0.418625 0.077826 -0.904818 0.606419 0.100783 -0.788732 
-0.316597 0.20769 -0.925544 0.0431375 0.186136 -0.981577 0.485707 0.10326 -0.868001 
0.381333 0.160102 -0.910468 0.436313 0.148881 -0.887392 0.327412 -0.471065 -0.819085 
0.534527 -0.213044 -0.817859 0.483511 -0.46892 -0.739142 0.801774 -0.385742 -0.456466 
0.279587 -0.117818 -0.952864 0.123264 -0.386688 -0.913935 0.411187 0.0247365 -0.911215 
0.762057 -0.0370355 -0.64645 0.185527 -0.158682 -0.969742 0.674749 0.0830846 -0.733356 
0.886812 -0.0746201 -0.456067 0.68767 -0.0327915 -0.725282 -0.181143 0.0979117 -0.978571 
0.710074 -0.102773 -0.696587 -0.378945 0.346451 -0.858122 -0.0185091 0.240712 -0.97042 
-0.448474 0.398058 -0.800263 0.0536206 0.348394 -0.935813 -0.43362 0.178128 -0.883314 
0.45535 -0.678541 -0.576401 0.771641 -0.631877 -0.0728089 0.988333 -0.0320146 -0.148904 
0.702672 -0.107471 -0.703351 0.807504 0.0333562 -0.588918 -0.0521487 0.255779 -0.965328 
-0.400187 0.36561 -0.840345 0.469445 -0.75876 -0.451557 0.233001 -0.722736 -0.650664 
-0.0260312 -0.390872 -0.920077 0.502998 -0.805525 -0.313246 0.964428 -0.207147 -0.164224 
-0.495957 0.216258 -0.840987 0.646531 0.099025 -0.756433 -0.070671 0.440256 -0.895087 
-0.0812087 0.373625 -0.924018 0.502891 0.172972 -0.846866 -0.45237 -0.166723 -0.876108 
-0.49652 -0.272739 -0.824064 0.0729797 -0.0481029 -0.996173 -0.472397 -0.288881 -0.8327 
0.992525 0.0284169 -0.118688 -0.4694 -0.132678 -0.87296 -0.630868 -0.180036 -0.754713 
0.154691 -0.042708 -0.987039 0.993214 0.111977 0.0314197 0.278263 0.0934319 -0.95595 
-0.540521 0.0322681 -0.840711 0.172949 0.270891 -0.946946 0.742622 0.182967 -0.644233 
-0.539296 0.178029 -0.823083 -0.747792 0.250259 -0.614962 0.257337 0.478335 -0.839627 
0.680791 0.533123 -0.502298 0.930827 0.320423 -0.175757 -0.133527 0.523881 -0.84126 
-0.434951 0.668814 -0.602915 0.837193 0.546829 0.00922279 0.538928 0.720072 -0.437096 
-0.115675 -0.70196 -0.70276 0.0843525 -0.639291 -0.764324 0.95109 -0.286978 0.114335 
-0.447827 -0.043576 -0.893058 0.908189 -0.154586 -0.388968 0.913015 -0.131121 -0.386279 
-0.748875 0.341776 -0.567781 -0.219476 0.346474 -0.912023 0.711239 0.0855512 -0.697725 
0.330038 0.223622 -0.917097 0.547461 0.1981 -0.813046 0.110677 0.288569 -0.951041 
0.147636 0.364521 -0.919417 0.0643038 -0.607606 -0.791632 0.435531 -0.659364 -0.612823 
-0.50084 -0.361879 -0.786259 0.290139 -0.728695 -0.620341 0.956348 -0.190987 0.221184 
-0.780321 -0.0413011 -0.624014 -0.785349 0.214338 -0.580763 0.900682 0.395254 0.180408 
-0.2828 0.918707 -0.275683 0.61032 0.786614 0.0935304 0.0701397 -0.852757 -0.517577 
0.0667349 -0.875744 -0.47814 0.252742 -0.792247 -0.555397 0.442924 -0.809366 -0.385673 
0.64442 -0.764238 -0.0257476 -0.263363 -0.390341 -0.882198 0.974882 -0.0273969 -0.221031 
0.967447 -0.104334 -0.230565 0.970298 -0.140039 -0.197256 -0.383119 0.324138 -0.864959 
0.876168 0.00334717 -0.481993 0.924086 -0.225638 -0.308467 -0.29979 0.359152 -0.883819 
0.890427 0.0615046 -0.450952 0.646621 0.179758 -0.741329 0.336574 0.35089 -0.873839 
0.130818 0.385563 -0.913361 0.944716 -0.327564 -0.0145973 -0.79548 -0.00839603 -0.605922 
-0.830399 0.218706 -0.51245 0.900076 0.276547 0.336727 -0.761015 0.393906 -0.515456 
-0.71955 0.447313 -0.531186 -0.691966 0.566225 -0.447852 0.392917 -0.895913 -0.207261 
0.819623 -0.546324 0.172476 -0.710136 0.223737 -0.667569 0.966426 -0.196146 0.165974 
-0.702829 0.317192 -0.636727 -0.697938 0.237862 -0.675503 0.981133 -0.191528 0.0263697 
-0.467952 0.423885 -0.775463 -0.151173 0.446071 -0.882138 -0.362018 0.456777 -0.812587 
-0.0252629 0.246674 -0.968769 0.28136 0.220562 -0.933911 -0.661883 0.396855 0.635937 
-0.110623 0.289168 -0.950865 0.0126193 -0.47841 -0.878046 0.784193 -0.515872 -0.344844 
-0.478582 -0.253983 -0.840507 -0.506701 -0.298745 -0.808706 -0.777146 0.415477 -0.472676 
0.215481 -0.915775 -0.339006 0.00778466 -0.80746 -0.589871 -0.814316 0.307009 -0.49258 
0.98894 -0.123007 -0.0828718 0.95807 -0.233688 -0.165808 0.919884 -0.364684 -0.144286 
0.955714 -0.034674 -0.292247 -0.394136 0.330117 -0.857717 0.918297 -0.0293347 -0.394804 
0.639129 0.0655843 -0.766298 -0.205294 0.18303 -0.961433 0.345597 0.119138 -0.930789 
-0.369592 0.137311 -0.918993 0.328711 0.0271202 -0.944041 0.925934 -0.111721 -0.360784 
-0.0565293 -0.728238 -0.682989 0.78573 -0.559494 0.26381 0.206241 -0.185061 -0.960842 
-0.37527 -0.565096 -0.734737 0.997918 -0.0643049 0.00505263 -0.185171 -0.461417 -0.867644 
0.955116 -0.241539 -0.1715 -0.676303 -0.0623426 -0.733981 -0.758697 0.0662444 -0.648067 
-0.626002 0.525693 -0.575993 -0.381452 0.571501 -0.726554 -0.385877 0.749388 -0.538068 
0.687326 0.65909 -0.305259 -0.590069 0.371006 -0.717059 0.639603 0.604557 -0.474783 
0.330262 0.846105 -0.418371 0.203651 -0.902601 -0.379259 0.00748299 -0.77412 -0.632995 
0.450491 -0.890363 0.0656611 0.61933 -0.774922 0.126199 -0.583495 0.0266688 -0.811678 
-0.6995 0.0634433 -0.711811 -0.829844 0.346178 -0.43763 -0.792134 0.439966 -0.423029 
0.955632 -0.22296 0.1925 0.977223 -0.156845 -0.142948 0.935076 -0.0314519 -0.35305 
0.98956 -0.0389541 -0.138757 -0.637867 0.270578 -0.721051 -0.707373 0.152864 -0.690113 
0.164371 -0.200996 -0.965703 0.845085 -0.197701 -0.496735 -0.16788 -0.961778 -0.216332 
0.583107 -0.811127 0.045375 -0.352446 -0.164749 -0.921216 -0.0848181 -0.341291 -0.936123 
0.666901 -0.53946 -0.514029 0.909441 0.383944 0.1597 -0.313068 0.922951 -0.22394 
0.627558 0.742643 0.233779 0.357829 -0.921477 -0.151126 0.493244 -0.843507 0.212615 
-0.63475 -0.110093 -0.764835 0.783805 -0.482434 0.391034 -0.780709 0.527924 -0.334349 
0.975561 -0.210527 -0.0629161 -0.736427 0.380863 -0.559123 0.912804 -0.00824614 -0.408315 
-0.741678 0.230483 -0.629913 -0.696082 0.461198 -0.550241 0.230215 0.952195 -0.200813 
0.659536 0.736081 0.152305 -0.243903 -0.675271 -0.696075 -0.46243 -0.435459 -0.772356 
0.63794 -0.690005 0.341944 -0.768943 -0.00384861 -0.639306 -0.836596 0.254985 -0.48486 
0.840811 -0.290591 0.456721 0.960752 -0.266336 0.0775932 0.951521 -0.291564 0.0979712 
0.980939 -0.073766 0.179768 0.863268 0.285126 0.416498 -0.918933 0.173629 -0.354141 
-0.608892 0.34367 -0.714942 0.34757 0.760506 -0.548477 -0.229868 0.52118 -0.821907 
-0.0666535 0.552668 -0.830732 -0.2024 -0.783387 -0.587656 0.0175121 -0.915202 -0.402615 
-0.0613224 -0.842957 -0.534474 -0.531197 -0.299625 -0.792499 0.380442 -0.923298 -0.0527645 
-0.688563 -0.317575 -0.651941 -0.749096 -0.0986756 -0.655072 0.482793 -0.875711 0.00647332 
0.865168 -0.258335 0.429822 0.97964 -0.134005 0.149495 -0.912231 0.303437 -0.275247 
-0.912169 0.31187 -0.265865 -0.87386 0.387289 0.293898 -0.949295 0.122514 0.289532 
-0.900477 -0.134685 0.413523 0.873497 0.337343 0.351002 -0.955592 -0.077381 -0.284351 
0.850666 0.476265 -0.222573 -0.937154 -0.107136 -0.332059 -0.686359 0.249747 -0.683036 
-0.842753 0.0640026 -0.534482 0 0.17597 -0.984396 -0.970143 -0.242536 0 
-0.992625 0.121226 0 0.992625 0.121226 0 0 0.447214 -0.894427 
-0.546623 -0.569624 -0.613784 -0.391694 -0.595031 -0.701794 -0.911452 0.358748 -0.201383 
0.908868 -0.175256 0.378477 0.87695 -0.114461 0.466753 0.924611 0.0536473 0.377117 
0.805547 0.186124 0.562541 -0.842876 0.501272 -0.195672 -0.779019 0.615931 0.117294 
-0.574885 0.431722 0.695071 0.44705 0.429216 0.784806 0.145237 0.157045 0.976854 
0.485769 -0.0761357 0.870765 0.726666 -0.161336 0.667778 0.874764 0.0680861 0.479743 
0.79672 -0.109264 0.594389 0.838436 -0.0281378 0.544274 0.959337 0.256439 0.117943 
0.765628 -0.144172 0.62692 0.777036 -0.144621 0.612617 -0.795885 0.119139 -0.593611 
0.768587 -0.146956 0.622638 0 0.17597 0.984396 0.807114 -0.109016 0.580243 
-0.478029 -0.808732 -0.342698 -0.240657 -0.850796 -0.467152 0.178944 -0.976716 -0.118343 
-0.744963 -0.524149 -0.412672 -0.523282 -0.692015 -0.497285 0.294016 -0.954761 -0.0445728 
-0.875135 -0.229798 -0.42583 0.578411 -0.771227 0.2658 -0.918207 0.244251 -0.311828 
0.678848 -0.48429 0.551932 -0.884196 0.235914 -0.403165 0.836686 0.164114 0.522516 
-0.947501 0.317569 -0.0373187 0.52723 0.37021 0.764835 -0.750381 0.645761 0.14114 
-0.325116 0.722713 0.609906 0.84615 -0.0516687 0.530434 -0.815754 0.0942404 -0.57067 
-0.757916 0.148512 -0.635222 -0.860981 0.0342497 -0.507482 -0.871157 0.0170671 -0.490708 
0.850635 -0.0514408 0.523234 0.625707 -0.304937 0.717986 -0.92103 -0.38907 -0.018108 
-0.870006 0.0191133 -0.492671 0.800463 -0.120096 0.587227 -0.360438 -0.677722 0.640919 
0.904686 0.054045 0.422638 -0.304579 -0.903722 -0.300862 -0.0125593 -0.987145 -0.159331 
0.448484 -0.868522 0.211024 0.817137 0.0601753 0.573293 -0.683885 0.702983 0.195234 
0.872678 -0.0150766 0.488064 0.869842 -0.020091 0.492921 0.866171 -0.0262525 0.499057 
0.871989 -0.0165389 0.489246 -0.860085 0.0369171 -0.508814 -0.880618 -0.00104541 -0.473826 
-0.868242 0.0230196 -0.495607 -0.857384 0.0413667 -0.513013 0.215038 -0.563775 0.797444 
0.271632 -0.959486 0.07485 0.681972 -0.54205 0.491016 -0.875636 0.482959 0.00343296 
0.647462 0.382731 0.659022 -0.903825 0.41649 -0.0981656 -0.698726 0.708709 -0.0975413 
-0.754455 0.641274 -0.139878 0.516536 0.547452 0.658397 -0.618898 0.778318 0.105767 
-0.344624 0.918172 0.195435 0.872334 -0.0150915 0.488678 0.867048 -0.0250392 0.497595 
0.879125 -0.00187401 0.476587 0.859922 -0.0372536 0.509064 0.746998 -0.190644 0.636905 
0.834122 -0.0792023 0.545865 -0.771962 -0.572202 -0.276873 0.447416 -0.876912 0.175625 
-0.971668 -0.174607 -0.159293 -0.988213 0.126095 -0.0868051 -0.913954 0.390502 0.110438 
0.731226 -0.0327749 0.681347 0.736181 0.134132 0.66336 -0.581902 0.812551 0.0339307 
-0.778076 0.607498 0.159825 -0.633786 0.57718 0.514955 0.358431 0.669175 0.650947 
-0.882283 0.410323 -0.230677 -0.813073 0.400794 0.422228 -0.253203 0.9658 -0.0558394 
0.137999 0.901316 0.410592 -0.319728 0.854751 0.40887 -0.941508 0.275559 -0.193985 
-0.986303 0.147876 0.0730639 -0.0242762 0.813679 0.580807 -0.952918 0.188614 -0.237428 
0.858253 -0.0401172 0.511656 -0.446201 -0.87335 -0.195358 -0.171961 -0.980824 -0.0917212 
-0.867519 0.495828 0.0395686 -0.867044 0.469768 0.165991 -0.940935 0.338423 0.0105372 
-0.919421 0.372189 -0.127047 0.722158 -0.112019 0.682598 -0.949354 0.313736 -0.0172292 
-0.938919 0.290391 -0.184671 -0.80246 0.516493 -0.298818 0.309241 0.930595 0.195864 
0.436334 0.661857 0.609555 -0.114445 0.732379 0.671211 0.429805 0.894458 0.123341 
-0.592536 0.718584 -0.364058 0.400998 0.476382 0.782471 0.115186 -0.993294 -0.0100061 
-0.14035 -0.978 0.154329 0.255692 -0.935917 0.242242 0.477299 -0.72299 0.499471 
-0.988719 0.0431308 0.143441 0.552975 -0.686862 0.471634 -0.882766 0.375378 0.282517 
0.563934 -0.184443 0.804959 -0.920242 0.380594 0.0911139 0.555618 -0.128003 0.821525 
0.694318 -0.149635 0.703941 0.536917 0.0860331 0.839237 0.732337 0.197306 0.65173 
-0.591816 0.783792 -0.18821 -0.470628 -0.879355 0.0724098 -0.026373 -0.920196 0.39057 
-0.0808373 -0.830335 0.55137 -0.956138 -0.124343 0.265214 -0.971064 -0.0383723 0.235716 
-0.896132 0.303043 0.324212 -0.839828 0.484185 0.245468 0.638656 -0.255273 0.725916 
-0.87708 0.475968 0.0646899 -0.940798 0.333462 0.060849 0.603714 -0.111186 0.789409 
-0.781199 0.303899 0.54532 0.444259 -0.107025 0.889483 -0.972823 0.213641 -0.0892925 
-0.56615 0.789866 0.235768 -0.990535 0.130149 0.0436005 -0.955757 0.0218964 -0.293342 
-0.50193 0.568156 0.652124 -0.931782 0.278836 0.232447 -0.911579 0.149393 0.383022 
-0.989741 0.106413 -0.0953389 -0.391716 -0.0499364 0.91873 -0.666999 0.167195 0.726057 
-0.874415 0.277798 0.397777 -0.949775 0.16039 0.268705 -0.307741 0.0405012 0.950608 
0.588044 0.653286 0.476888 -0.853687 0.439648 0.279156 -0.182141 -0.914777 0.360567 
-0.911391 -0.411537 -0.00203701 -0.330026 -0.552346 0.765505 -0.442866 -0.506395 0.739888 
-0.867944 -0.0477638 0.494359 -0.869937 -0.136242 0.473971 -0.59234 -0.480115 0.647011 
0.43442 -0.834722 0.338407 0.0143469 -0.793944 0.607821 -0.761874 -0.401425 0.508337 
-0.923755 -0.305437 0.231052 -0.664624 -0.336058 0.667338 -0.882788 -0.0909587 0.460882 
-0.965143 0.122979 0.231032 -0.886031 0.196152 0.420087 0.476625 -0.41905 0.772804 
0.579987 -0.282549 0.764055 -0.760947 0.459456 0.458105 -0.800796 0.439005 0.407431 
-0.280977 0.672031 0.685147 -0.889064 0.148851 0.432907 0.285086 -0.0251999 0.95817 
-0.97112 0.23758 -0.0219254 0.309921 -0.046907 0.949604 -0.763546 0.294494 0.574691 
-0.760885 -0.0308135 0.648155 -0.993484 -0.0145353 0.11304 -0.877765 0.451768 0.159479 
-0.913156 0.335065 0.232113 -0.845131 0.471472 0.251929 0.0431264 0.0282919 0.998669 
-0.0492164 -0.118836 0.991693 -0.82891 0.0701828 0.554961 0.503825 0.153488 0.85006 
0.881309 0.156622 0.44583 -0.557754 0.2418 -0.794005 -0.949268 0.103775 0.296851 
0.053406 -0.0417411 0.9977 0.945456 0.0478268 -0.32222 -0.846885 -0.0131937 -0.531613 
0.540444 -0.837141 0.0843599 -0.93239 0.314907 0.177434 0.197668 0.335939 0.920908 
0.241809 0.447781 0.860826 0.0282805 0.237194 0.971051 -0.456957 0.550676 0.698532 
0.24749 -0.00696596 0.968865 -0.106267 0.144202 0.983826 0.401583 0.0110018 0.915757 
0.426587 0.118181 0.896692 -0.747526 -0.573897 0.334436 -0.265422 -0.651633 0.710581 
0.0121949 -0.5687 0.822455 0.448754 -0.72407 0.523777 -0.770129 0.12873 0.624763 
-0.66112 -0.151038 0.73492 0.271181 -0.468474 0.840829 0.562317 -0.297656 0.771492 
-0.652161 0.401736 0.642879 -0.684111 0.507406 0.523957 0.429103 -0.113007 0.896158 
-0.723409 0.376137 0.578965 -0.741286 0.368973 0.560673 0.0452097 0.265532 0.963042 
0.633468 0.149515 0.759186 -0.174806 0.341124 -0.923622 -0.86846 0.441355 0.225794 
-0.2404 -0.114026 0.963953 0.982723 -0.142932 0.117582 -0.76367 0.24654 -0.596679 
0.398878 -0.882886 0.247807 -0.665265 0.286656 0.689385 -0.26172 0.28331 0.922626 
-0.711567 0.48011 0.512998 -0.038939 -0.0530451 0.997833 -0.265433 -0.408136 0.873482 
0.694496 -0.409669 0.591478 -0.962081 -0.120386 -0.244758 0.62645 -0.102885 0.772642 
0.461509 0.278556 0.842268 -0.839015 0.523818 -0.147205 -0.234403 0.396716 0.887509 
-0.83253 0.549915 0.06699 0.0470983 0.026806 0.99853 -0.603551 0.153083 0.782491 
-0.926742 0.149689 0.344591 0.254322 0.126325 0.958834 -0.704242 0.681786 0.198016 
0.0338156 0.553579 0.83211 -0.451842 0.412576 0.790962 -0.853041 0.520486 0.0376222 
0.342298 -0.0694886 0.937018 -0.505559 -0.0972098 0.857298 0.679454 -0.124506 0.723077 
0.81856 -0.173545 0.547578 -0.967712 0.0901476 -0.235385 0.548477 0.337446 0.765051 
-0.931134 0.348621 -0.107024 -0.276265 0.349333 0.895346 0.114837 0.270294 0.955905 
0.098085 0.378879 0.920234 -0.527082 -0.410637 0.744017 -0.776685 0.157043 0.609998 
0.0367567 -0.300309 0.953133 0.26989 -0.323144 0.907048 0.197319 -0.147246 0.969218 
-0.669499 0.40619 0.621918 -0.576726 0.284884 0.765655 -0.670639 0.387244 0.632682 
0.196696 -0.165997 0.966311 -0.808819 0.370301 0.456825 -0.692426 0.429023 0.580074 
0.329212 -0.114757 0.937257 -0.758039 0.495853 0.423682 -0.327767 0.413289 0.849565 
-0.682344 0.583458 0.440435 -0.0832427 0.00596876 0.996511 0.27374 -0.0258818 0.961455 
-0.78115 0.499368 0.374748 -0.215759 0.354546 0.909805 0.198552 0.189193 0.961657 
-0.540374 0.580959 0.608673 -0.200377 0.106901 0.973869 -0.588414 0.185183 0.787069 
0.487043 -0.159279 0.858731 0.173466 -0.173414 0.969452 0.0721795 -0.00468993 0.997381 
0.468898 -0.0719474 0.880317 -0.727141 0.329759 0.6021 0.480731 -0.044491 0.875739 
-0.261518 0.178768 0.948499 0.315389 -0.112198 0.942306 -0.657133 0.214149 0.722715 
0.230662 -0.0516554 0.971662 -0.828585 0.405624 0.385897 0.0531821 -0.0392016 0.997815 
0.198238 -0.0724997 0.977469 -0.803513 0.273787 0.52859 0.571337 -0.145776 0.807665 
-0.346682 0.43606 0.830459 -0.822216 0.531152 0.204545 -0.959655 0.278536 -0.0384778 
0.238887 0.128498 0.962508 0.692852 0.375823 0.615397 -0.0152303 0.820333 0.571683 
-0.595709 0.791476 -0.136734 -0.474179 0.71935 0.507631 0.372538 -0.0676187 0.92555 
0.400115 0.0698688 0.913798 0.516518 -0.0615652 0.85406 -0.33173 -0.218004 0.91784 
0.00987361 0.733655 0.67945 -0.894665 0.413953 0.16798 0 0.17597 -0.984396 
-0.970143 -0.242536 0 -0.992625 0.121226 0 0.0127342 -0.0229157 0.999656 
0.992625 0.121226 0 0 0.447214 -0.894427 0.779535 -0.267532 0.566349 
0.832562 -0.0501882 0.551653 -0.962731 0.0918943 -0.254369 -0.330136 -0.346636 0.877983 
-0.421074 -0.250282 0.871812 -0.155024 -0.173723 0.972516 -0.695889 0.16337 0.69932 
-0.367406 0.00819274 0.930025 -0.0720493 -0.2345 0.969443 0.0400916 -0.110001 0.993122 
-0.253665 0.0961868 0.962498 -0.192107 0.122359 0.973716 0.182651 -0.168444 0.968641 
-0.273786 0.0167886 0.961644 -0.88089 0.17853 0.438361 -0.076921 -0.015935 0.99691 
0.14138 -0.236726 0.961235 -0.657701 0.0909128 0.747773 0.511141 -0.108464 0.852626 