# vtk DataFile Version 4.2
vtk output
ASCII
DATASET POLYDATA
POINTS 234 float
192 236.009 224.017 192 236.009 224.017 192 236.009 224.017 
192 236.009 224.017 192 236.009 224.017 192 236.009 224.017 
192 236.009 224.017 192 236.009 224.018 192 236.009 224.017 
191.255 240.644 226.93 189.88 243.31 226.3 189.59 243.446 226.327 
189.632 243.879 226.185 188.894 244.162 226.33 190.237 243.815 226.222 
189.437 245.92 226.066 189.727 245.863 226.139 192 236.009 224.018 
192 236.009 224.018 192 236.009 224.018 192 236.009 224.018 
190.474 242.745 226.471 191.263 241.955 226.782 189.01 243.647 226.552 
191.534 242.168 226.977 188.421 244.352 226.566 190.592 244.203 226.402 
188.436 245.798 226.244 189.132 246.147 226.088 188.143 247.349 226.421 
189.726 246.949 226.423 189.162 248.077 226.435 187.875 249.463 226.755 
189.786 248.097 226.857 187.735 251.077 227.258 187.549 250.802 227.352 
188.728 250.755 226.925 189.286 250.323 227.158 187.72 251.39 227.443 
188.121 251.429 227.224 188.646 251.185 227.089 189.138 250.86 227.22 
188.806 251.349 227.257 194.033 234.857 228.494 194.024 234.776 228.533 
193.98 234.87 228.493 194.062 234.767 228.563 193.94 235.094 228.445 
193.893 234.971 228.519 193.814 235.188 228.463 194.044 234.983 228.494 
194.084 234.855 228.571 193.674 235.403 228.484 193.904 235.417 228.41 
192 236.009 224.018 193.634 236.309 228.32 193.562 236.962 228.282 
193.825 236.742 228.505 192.891 237.95 228.019 193.099 237.931 228.019 
193.146 238.182 228.023 193.533 237.574 228.261 193.517 237.959 228.318 
191.613 242.783 227.205 187.287 246.236 227.159 187.148 248.612 227.396 
187.66 248.292 226.772 187.597 249.087 226.905 189.745 249.233 227.357 
187.391 250.654 227.629 189.191 251.081 227.398 189.257 251.092 227.525 
187.963 251.871 227.684 188.232 251.964 227.72 188.514 251.783 227.558 
194.03 234.744 228.638 193.964 234.813 228.584 194.083 234.771 228.683 
193.948 236.751 228.763 194.058 236.342 228.985 192.396 238.795 227.869 
191.723 239.252 228.002 192.629 239.207 227.79 193.04 238.756 228.02 
190.72 240.512 227.862 193.081 239.334 228.217 193.414 238.784 228.569 
189.029 242.738 227.491 187.468 244.753 227.563 187.095 245.599 227.805 
191.712 243.474 227.71 190.93 245.33 227.275 189.299 251.106 227.755 
187.58 251.6 227.968 189.089 251.513 227.794 188.892 251.779 227.889 
187.967 252.055 227.953 188.162 252.18 227.971 188.32 252.165 227.962 
188.583 251.986 227.901 188.232 252.266 228.103 194.035 234.75 228.823 
193.95 234.791 228.757 193.283 239.623 228.993 187.093 245.258 228.184 
186.895 246.418 228.239 190.001 248.977 228.189 187.685 251.975 228.452 
188.836 251.929 228.161 187.886 252.149 228.27 188.042 252.293 228.405 
194.109 234.877 229.141 194.152 235.06 229.23 194.169 235.329 229.331 
187.351 244.589 228.869 192.039 243.076 228.866 186.879 247.719 228.427 
189.669 249.968 228.735 187.405 251.198 228.789 187.472 251.593 228.677 
187.527 251.74 228.525 189.297 251.157 228.794 187.746 252.055 228.694 
188.946 251.839 228.607 188.038 252.292 228.633 188.383 252.273 228.424 
188.573 252.133 228.617 188.191 252.329 228.522 194.039 234.856 229.336 
193.814 234.97 229.513 192.202 237.615 229.49 192.152 242.514 229.423 
186.984 246.01 229.018 191.082 245.284 229.274 190.606 246.709 228.965 
189.96 248.523 229.09 187.333 250.087 229.079 189.354 250.586 229.139 
189.202 251.317 228.882 187.591 251.742 228.927 188.793 251.97 228.682 
188.081 252.249 228.796 188.164 252.31 228.693 194.031 234.937 229.569 
193.943 234.919 229.556 193.644 235.173 229.745 191.929 238.198 230.12 
193.329 239.354 229.949 191.943 242.556 229.944 187.087 246.056 229.399 
187.33 246.562 229.821 190.633 245.816 229.723 187.506 250.051 229.38 
187.679 249.731 229.595 189.474 249.578 229.411 187.666 251.5 229.194 
189.072 251.146 229.2 187.67 251.729 229.073 187.791 251.878 229.084 
187.886 252.015 229.001 188.313 251.906 229.117 188.545 251.803 229.107 
193.961 235.01 229.763 193.756 235.285 230.279 193.998 235.34 230.12 
193.658 237.253 230.549 191.116 240.533 230.616 193.024 239.545 230.399 
191.963 241.984 230.305 188.215 244.206 230.078 187.221 245.68 229.579 
187.474 245.477 229.828 187.541 245.984 229.989 191.019 244.303 230.12 
190.292 245.836 230.073 189.932 246.858 229.965 188.914 248.049 230.169 
188.356 249.062 229.978 188.868 250.011 229.729 187.788 251.345 229.332 
188.223 251.014 229.564 188.478 250.799 229.621 189.043 250.423 229.522 
188.654 251.04 229.502 188.907 250.992 229.396 187.938 251.863 229.153 
193.742 235.411 230.531 193.329 235.804 230.834 193.187 235.925 230.726 
193.809 236.09 230.783 193.548 236.338 231.178 192.303 238.128 230.922 
192.924 237.8 231.141 192.425 239.379 230.96 192.292 240.128 230.834 
192.503 240.233 230.719 192.409 240.287 230.798 191.165 241.35 230.834 
191.77 241.021 230.792 188.999 244.793 230.644 190.454 244.059 230.696 
190.165 244.111 230.815 187.8 246.704 230.196 188.58 246.266 230.478 
188.842 246.758 230.432 189.295 246.511 230.416 193.701 235.55 230.705 
193.805 235.463 230.58 193.376 235.908 231.049 193.596 235.795 230.934 
193.431 236.063 231.211 193.041 236.351 231.139 193.726 235.912 230.897 
192.913 236.736 231.267 192.757 237.079 231.215 192.669 237.709 231.169 
192.44 238.487 231.04 192.903 237.344 231.302 192.347 239.089 231.004 
192.436 240.37 230.761 190.542 241.916 230.925 193.309 236.101 231.282 
193.208 236.15 231.231 193.299 236.257 231.375 193.234 236.502 231.431 
193.065 236.561 231.424 193.12 236.776 231.435 193.008 236.787 231.417 
192.991 237.019 231.392 190.427 242.082 230.936 193.22 236.24 231.37 
193.175 236.404 231.438 193.122 236.589 231.465 193.187 235.925 230.726 

POLYGONS 458 1832
3 0 1 2 
3 1 0 3 
3 0 2 4 
3 3 0 4 
3 1 5 6 
3 2 1 6 
3 5 1 3 
3 7 5 3 
3 2 6 8 
3 4 2 8 
3 7 3 4 
3 8 7 4 
3 11 10 21 
3 12 10 11 
3 14 21 10 
3 14 10 12 
3 15 12 13 
3 26 12 15 
3 15 13 27 
3 26 15 16 
3 5 17 18 
3 6 5 18 
3 17 5 7 
3 19 17 7 
3 6 18 20 
3 8 6 20 
3 19 7 8 
3 20 19 8 
3 21 9 11 
3 22 9 21 
3 11 23 12 
3 23 13 12 
3 21 14 26 
3 22 21 26 
3 14 12 26 
3 28 27 29 
3 27 28 15 
3 15 28 16 
3 66 28 29 
3 16 28 30 
3 30 28 31 
3 30 31 33 
3 33 16 30 
3 39 28 32 
3 31 28 36 
3 36 28 39 
3 33 31 36 
3 36 68 33 
3 32 35 34 
3 39 32 34 
3 39 34 38 
3 36 39 40 
3 41 37 36 
3 40 41 36 
3 39 38 72 
3 42 39 72 
3 40 39 42 
3 41 40 42 
3 43 44 45 
3 44 43 46 
3 47 48 49 
3 45 48 47 
3 45 47 43 
3 43 47 50 
3 51 46 43 
3 50 51 43 
3 49 52 47 
3 50 47 53 
3 17 54 18 
3 58 47 52 
3 58 52 81 
3 54 17 19 
3 53 47 55 
3 55 47 58 
3 50 53 55 
3 55 79 50 
3 54 20 18 
3 19 20 54 
3 55 58 56 
3 56 58 59 
3 57 55 56 
3 59 60 61 
3 59 61 56 
3 61 57 56 
3 62 61 60 
3 78 61 62 
3 11 9 87 
3 88 25 23 
3 23 11 87 
3 23 25 13 
3 26 63 22 
3 22 63 24 
3 13 64 27 
3 25 64 13 
3 26 90 63 
3 90 26 91 
3 27 64 65 
3 27 65 29 
3 29 65 66 
3 66 65 67 
3 28 67 32 
3 66 67 28 
3 32 67 65 
3 32 65 69 
3 68 36 37 
3 35 32 69 
3 35 69 34 
3 34 69 93 
3 38 34 93 
3 93 72 38 
3 70 71 41 
3 42 72 74 
3 72 73 74 
3 42 74 94 
3 71 70 42 
3 71 42 94 
3 41 42 70 
3 44 75 76 
3 45 44 76 
3 75 44 46 
3 77 75 46 
3 76 48 45 
3 46 51 77 
3 51 50 77 
3 77 50 112 
3 50 79 112 
3 55 78 79 
3 57 78 55 
3 80 58 81 
3 80 59 58 
3 57 61 78 
3 9 80 81 
3 59 80 82 
3 82 80 9 
3 60 59 83 
3 59 82 83 
3 60 86 62 
3 83 86 60 
3 81 84 9 
3 82 9 22 
3 83 82 22 
3 86 83 85 
3 22 85 83 
3 86 85 103 
3 22 24 85 
3 23 87 88 
3 24 90 85 
3 24 63 90 
3 89 88 104 
3 25 89 64 
3 88 89 25 
3 105 64 89 
3 64 105 65 
3 26 16 33 
3 33 68 106 
3 68 37 92 
3 69 119 93 
3 41 92 37 
3 109 72 93 
3 92 94 95 
3 92 71 94 
3 41 71 92 
3 72 109 96 
3 97 96 100 
3 97 73 96 
3 73 72 96 
3 98 73 97 
3 98 99 73 
3 99 74 73 
3 95 94 99 
3 99 94 74 
3 98 97 100 
3 75 101 102 
3 76 75 102 
3 101 75 77 
3 48 102 49 
3 102 48 76 
3 129 52 49 
3 130 81 52 
3 78 62 103 
3 81 130 84 
3 130 146 84 
3 62 86 103 
3 87 9 84 
3 88 87 84 
3 104 132 89 
3 89 132 105 
3 90 91 115 
3 105 116 65 
3 26 33 91 
3 91 33 106 
3 116 118 65 
3 65 118 69 
3 106 68 117 
3 68 92 117 
3 93 119 120 
3 120 109 93 
3 107 109 120 
3 95 108 123 
3 123 92 95 
3 109 100 96 
3 110 100 109 
3 99 100 125 
3 98 100 99 
3 108 95 99 
3 125 108 99 
3 111 101 77 
3 49 102 129 
3 77 112 111 
3 52 129 130 
3 112 79 113 
3 78 164 79 
3 78 103 164 
3 131 103 85 
3 85 90 131 
3 88 114 104 
3 91 133 115 
3 91 134 133 
3 91 106 134 
3 106 117 135 
3 117 92 137 
3 118 119 69 
3 119 139 120 
3 92 138 121 
3 121 137 92 
3 120 139 107 
3 139 122 107 
3 108 140 123 
3 138 92 123 
3 107 122 124 
3 109 107 124 
3 124 110 109 
3 140 108 125 
3 126 140 125 
3 110 124 127 
3 100 110 127 
3 127 125 100 
3 101 128 144 
3 102 101 144 
3 128 101 111 
3 144 129 102 
3 111 112 128 
3 129 145 130 
3 112 113 128 
3 128 113 143 
3 143 113 164 
3 113 79 164 
3 164 103 147 
3 84 146 114 
3 147 103 131 
3 114 88 84 
3 114 170 104 
3 148 131 115 
3 115 131 90 
3 104 170 132 
3 132 149 105 
3 115 133 173 
3 105 149 116 
3 133 134 151 
3 106 135 134 
3 116 136 118 
3 135 117 154 
3 154 117 137 
3 119 118 155 
3 121 138 156 
3 121 156 137 
3 119 155 139 
3 159 122 139 
3 122 159 141 
3 124 122 141 
3 126 142 141 
3 125 142 126 
3 140 126 141 
3 124 141 142 
3 127 124 142 
3 142 125 127 
3 128 143 144 
3 129 144 145 
3 131 168 147 
3 170 114 169 
3 168 131 148 
3 170 149 132 
3 149 150 116 
3 150 153 136 
3 116 150 136 
3 153 150 202 
3 134 135 175 
3 175 135 178 
3 153 152 136 
3 135 154 178 
3 152 118 136 
3 139 155 157 
3 157 159 139 
3 158 159 157 
3 138 123 156 
3 140 141 161 
3 141 160 161 
3 161 123 140 
3 143 162 144 
3 144 163 145 
3 162 163 144 
3 162 143 164 
3 130 187 188 
3 187 130 145 
3 130 233 191 
3 189 164 165 
3 130 191 146 
3 164 147 165 
3 192 165 147 
3 167 193 192 
3 147 167 192 
3 166 220 146 
3 147 195 167 
3 147 168 195 
3 169 114 146 
3 148 198 168 
3 172 149 171 
3 149 170 171 
3 173 200 148 
3 148 115 173 
3 149 172 150 
3 172 202 150 
3 133 200 173 
3 174 200 133 
3 151 174 133 
3 151 134 174 
3 134 175 174 
3 202 204 176 
3 204 175 176 
3 202 176 153 
3 177 153 176 
3 178 177 176 
3 175 178 176 
3 177 152 153 
3 152 179 118 
3 177 180 152 
3 180 179 152 
3 178 180 177 
3 154 137 178 
3 178 181 180 
3 182 181 178 
3 178 137 182 
3 179 157 155 
3 118 179 155 
3 185 157 179 
3 180 185 179 
3 181 183 180 
3 183 185 180 
3 182 184 181 
3 184 183 181 
3 137 156 184 
3 182 137 184 
3 158 157 185 
3 183 160 185 
3 156 160 183 
3 184 156 183 
3 158 185 159 
3 141 159 185 
3 160 141 185 
3 156 161 160 
3 123 161 156 
3 163 186 209 
3 145 163 209 
3 162 207 163 
3 163 207 186 
3 207 162 164 
3 187 145 209 
3 164 189 207 
3 233 211 191 
3 211 213 191 
3 190 210 189 
3 214 191 213 
3 226 190 165 
3 189 165 190 
3 226 165 192 
3 146 191 166 
3 197 218 194 
3 166 218 197 
3 195 194 167 
3 195 196 194 
3 167 194 193 
3 218 193 194 
3 146 220 229 
3 166 197 220 
3 194 198 197 
3 196 198 194 
3 196 219 168 
3 168 219 195 
3 220 197 198 
3 196 168 198 
3 148 201 198 
3 148 200 201 
3 171 170 169 
3 171 169 172 
3 172 169 203 
3 199 203 169 
3 203 202 172 
3 201 205 199 
3 205 203 199 
3 174 205 201 
3 201 200 174 
3 204 202 203 
3 205 204 203 
3 174 175 205 
3 205 175 204 
3 186 206 209 
3 206 186 207 
3 233 187 208 
3 209 208 187 
3 210 208 209 
3 207 209 206 
3 233 208 211 
3 207 212 209 
3 212 210 209 
3 207 189 212 
3 189 210 212 
3 215 216 191 
3 215 191 214 
3 216 192 193 
3 216 215 192 
3 215 217 192 
3 217 226 192 
3 191 216 166 
3 166 216 218 
3 216 193 218 
3 195 219 196 
3 220 198 199 
3 220 199 229 
3 169 146 229 
3 169 229 199 
3 201 199 198 
3 208 221 222 
3 221 208 210 
3 223 221 210 
3 208 222 211 
3 222 231 211 
3 210 190 223 
3 223 190 224 
3 211 231 213 
3 231 225 213 
3 190 226 224 
3 227 213 225 
3 227 214 213 
3 228 227 226 
3 214 227 215 
3 217 215 227 
3 228 217 227 
3 226 217 228 
3 221 230 222 
3 221 223 230 
3 222 230 231 
3 223 224 231 
3 230 223 231 
3 231 232 225 
3 224 226 232 
3 231 224 232 
3 225 232 227 
3 226 227 232 

POINT_DATA 234
SCALARS scalars float
LOOKUP_TABLE default
1 1 1 1 1 1 1 1 1 
1 1 1 1 1 1 1 1 1 
1 1 1 1 1 1 1 1 1 
1 1 1 1 1 1 1 1 1 
1 1 1 1 1 1 1 1 1 
1 1 1 1 1 1 1 1 1 
1 1 1 1 1 1 1 1 1 
1 1 1 1 1 1 1 1 1 
1 1 1 1 1 1 1 1 1 
1 1 1 1 1 1 1 1 1 
1 1 1 1 1 1 1 1 1 
1 1 1 1 1 1 1 1 1 
1 1 1 1 1 1 1 1 1 
1 1 1 1 1 1 1 1 1 
1 1 1 1 1 1 1 1 1 
1 1 1 1 1 1 1 1 1 
1 1 1 1 1 1 1 1 1 
1 1 1 1 1 1 1 1 1 
1 1 1 1 1 1 1 1 1 
1 1 1 1 1 1 1 1 1 
1 1 1 1 1 1 1 1 1 
1 1 1 1 1 1 1 1 1 
1 1 1 1 1 1 1 1 1 
1 1 1 1 1 1 1 1 1 
1 1 1 1 1 1 1 1 1 
1 1 1 1 1 1 1 1 1 

NORMALS Normals float
0.374264 -0.168718 -0.911845 -0.567261 -0.554922 -0.608504 -0.18175 0.688489 -0.702104 
0.576082 -0.772496 -0.267169 0.862571 0.370817 -0.344189 -0.269901 -0.962694 -0.0193093 
-0.937606 0.321733 -0.13184 0.950803 -0.249151 0.184113 0.337338 0.940666 0.0367348 
-0.228348 -0.448444 -0.86415 -0.114832 -0.325731 -0.938463 -0.363999 -0.43188 -0.825218 
-0.125474 -0.137525 -0.982519 -0.406783 -0.216168 -0.88758 0.19335 -0.0323049 -0.980598 
0.04043 0.0221116 -0.998938 0.495601 0.222658 -0.839526 0.356262 -0.741437 0.568637 
-0.825068 -0.477873 0.301496 0.590243 0.454246 0.667289 -0.545377 0.723255 0.423635 
0.144282 -0.22562 -0.963472 0.488267 0.00342543 -0.872688 -0.540771 -0.490514 -0.683346 
0.776331 0.0911532 -0.6237 -0.670473 -0.300211 -0.678484 0.540696 0.121219 -0.832439 
-0.449577 -0.0691014 -0.890565 -0.0285552 0.189223 -0.981519 -0.447673 0.0720689 -0.891288 
0.520355 0.212079 -0.827196 0.350685 0.219546 -0.910396 -0.598643 0.208267 -0.773467 
0.770643 0.236239 -0.591862 -0.726366 0.326523 -0.604793 -0.826077 0.239458 -0.510154 
0.300636 0.245998 -0.921468 0.704642 0.215335 -0.676099 -0.676586 0.452552 -0.580886 
-0.171221 0.444619 -0.879203 0.25002 0.458414 -0.852846 0.727515 0.248925 -0.639342 
0.386427 0.619862 -0.682968 0.452614 -0.243337 -0.857862 -0.221563 -0.745662 -0.628409 
-0.462801 -0.422958 -0.779052 0.658492 -0.620172 -0.426351 -0.0564266 -0.159464 -0.98559 
-0.760268 -0.422359 -0.493563 -0.774663 -0.387504 -0.499739 0.887935 0.123185 -0.443166 
0.967393 0.00497835 -0.253233 -0.666734 -0.401243 -0.628068 0.511484 0.0361769 -0.858531 
-0.24625 -0.0544312 0.967677 0.672396 0.00967418 -0.740128 0.44079 -0.0554447 -0.895896 
0.793965 0.00131458 -0.607963 -0.0742889 -0.21618 -0.973523 0.215513 -0.099219 -0.971447 
0.568703 0.108571 -0.815346 0.684852 0.062646 -0.725984 0.883832 0.182022 -0.430939 
0.792619 0.140285 -0.593359 -0.768251 -0.0954223 -0.632997 -0.886379 0.0811142 -0.455799 
-0.451438 0.128107 -0.883058 -0.628204 0.187886 -0.755022 0.863716 0.246311 -0.439688 
-0.927794 0.22335 -0.298851 0.71301 0.448763 -0.538729 0.858536 0.354344 -0.370616 
-0.393693 0.662517 -0.637241 -0.0164621 0.743228 -0.668836 0.227871 0.699471 -0.677359 
-0.154035 -0.980521 -0.121865 -0.739862 -0.61013 -0.283453 0.910667 -0.412644 0.0202836 
0.959902 0.143027 -0.241103 0.97789 0.148117 -0.147623 -0.160887 -0.364421 -0.917231 
-0.606035 -0.512562 -0.608278 0.311848 -0.152267 -0.937851 0.584309 0.0553065 -0.809644 
-0.768694 -0.586997 -0.254057 0.839449 0.219877 -0.49697 0.885995 0.202138 -0.417317 
-0.665644 -0.588097 -0.459413 -0.812737 -0.481236 -0.328437 -0.925016 -0.193208 -0.327133 
0.92903 0.165971 -0.330691 0.915099 0.303944 -0.264975 0.94521 0.320596 -0.0616216 
-0.87179 0.388939 -0.297839 0.691142 0.625575 -0.36191 0.761779 0.624934 -0.170734 
-0.472584 0.753508 -0.457045 -0.203367 0.800813 -0.563329 0.226556 0.797011 -0.559863 
0.433488 0.768547 -0.470556 -0.0333978 0.944706 -0.326215 0.120236 -0.984176 0.130158 
-0.723199 -0.690523 -0.0126905 0.962713 0.256534 -0.0858673 -0.956098 -0.291361 -0.031389 
-0.995621 -0.0152211 -0.0922375 0.956913 0.281607 -0.0708188 -0.784926 0.612871 -0.0909973 
0.633402 0.759058 -0.15044 -0.684836 0.670993 -0.284198 -0.384728 0.912976 -0.135866 
0.833522 -0.532831 0.146059 0.992235 -0.118701 0.0371574 0.981368 -0.103865 0.161646 
-0.870462 -0.483377 0.0929633 0.94222 0.323944 0.085338 -0.987735 0.0791842 0.134572 
0.943602 0.299185 0.141786 -0.953768 0.144223 0.263677 -0.96367 0.250765 0.0919616 
-0.880162 0.457059 -0.128111 0.917729 0.318029 0.237973 -0.67822 0.701877 0.217684 
0.779736 0.586208 0.219938 -0.478992 0.872903 0.0927734 0.465118 0.884205 -0.0429749 
0.469329 0.794175 0.386025 0.00797154 0.999923 -0.00951839 0.656834 -0.688303 0.307909 
-0.762393 -0.647001 0.0120662 -0.804938 -0.572672 -0.155309 0.95002 0.30746 0.0541297 
-0.983765 -0.12657 0.127224 0.847 0.341997 0.406975 0.88316 0.348697 0.31375 
0.83953 0.22933 0.492542 -0.891587 0.0753609 0.446534 0.833393 0.2474 0.494216 
0.842253 0.469568 0.264795 -0.835558 0.465251 0.292206 0.57826 0.762606 0.289909 
0.00756507 0.812866 0.582402 0.153393 0.935443 0.318462 0.662114 -0.663317 0.348734 
-0.252065 -0.921663 0.294958 -0.643636 -0.731399 0.225362 -0.714586 -0.496663 0.492639 
0.89873 0.3022 0.317743 0.64003 0.350919 0.683533 -0.894476 0.00583778 0.447078 
-0.799175 0.0558648 0.598497 0.75308 0.308939 0.580885 -0.602746 0.211476 0.769399 
-0.557017 0.131154 0.82008 0.737502 0.179674 0.651006 -0.805033 0.207587 0.555724 
0.590298 0.429131 0.683663 -0.622883 0.462528 0.630939 -0.531692 0.55222 0.64215 
-0.532601 0.695348 0.482522 0.20334 0.547326 0.811842 0.463213 0.592714 0.658881 
0.313508 -0.821952 0.475508 -0.336128 -0.852591 0.400133 0.962666 -0.0177385 0.270109 
0.868682 0.253915 0.425346 -0.367984 -0.195701 0.909004 0.707117 0.22927 0.668895 
0.613091 0.414344 0.672635 -0.652395 -0.276201 0.705758 -0.881365 -0.239373 0.407303 
-0.718133 -0.125363 0.684521 -0.611101 -0.103461 0.784762 0.732106 0.403195 0.549049 
0.630737 0.299922 0.715694 0.586031 0.299966 0.752721 -0.0350092 0.14151 0.989318 
-0.167879 0.218598 0.961266 0.391012 0.173458 0.903892 -0.536299 0.253311 0.805119 
-0.137123 0.257739 0.956435 0.213716 0.236982 0.947716 0.557037 0.226057 0.79913 
0.254429 0.412837 0.874547 0.505415 0.304851 0.807231 -0.161275 0.505335 0.847719 
-0.319982 -0.817923 0.478135 -0.47925 -0.866594 0.139047 0.219109 -0.489546 -0.844 
0.884625 -0.0161267 0.466025 0.738085 0.0664138 0.671431 -0.84176 -0.337008 0.421742 
0.425276 0.267855 0.864519 0.283512 0.181342 0.941666 0.31209 0.0828502 0.946433 
0.758108 0.179464 0.626949 0.422694 0.143936 0.894769 -0.0645794 -0.0750864 0.995084 
0.122421 0.178779 0.976243 -0.0528645 0.092773 0.994283 0.549957 0.276774 0.788 
0.289812 0.159163 0.943757 -0.396508 0.103664 0.91216 -0.253456 0.0180147 0.967179 
0.0609677 0.238735 0.969169 0.226023 0.240709 0.943914 -0.05347 -0.739309 0.67124 
0.567325 -0.573366 0.591095 -0.448098 -0.747934 0.489697 -0.150111 -0.757993 0.634755 
0.492154 -0.414784 0.765336 -0.836321 -0.479345 0.266076 0.720499 -0.22515 0.655888 
-0.871037 -0.384454 0.305761 -0.803985 -0.208792 0.556789 -0.37157 0.0962779 0.923399 
-0.203615 0.0372559 0.978342 -0.0865128 0.249655 0.964463 -0.0894977 0.0494087 0.994761 
0.660968 0.283252 0.694903 0.107036 -0.0530066 0.992841 -0.128094 -0.683839 0.7183 
-0.730945 -0.578855 0.361452 0.352291 -0.294764 0.88826 0.467452 0.0445332 0.882896 
-0.704185 -0.29626 0.645254 0.381021 0.266507 0.885323 -0.533343 -0.0235608 0.845571 
-0.167898 0.1727 0.970559 -0.273129 -0.149085 0.950355 -0.386359 -0.550958 0.739711 
-0.486564 -0.404604 0.774307 -0.1169 -0.0296203 0.992702 -0.836594 -0.478162 0.267343 

