# vtk DataFile Version 4.2
vtk output
ASCII
DATASET POLYDATA
POINTS 1364 float
313.17 272.529 75.8285 312.924 271.939 75.7978 313.934 273.05 76.2432 
314.151 272.908 76.4932 313.458 273.426 75.9091 313.484 273.925 75.9935 
313.817 273.877 76.1491 313.982 273.715 76.269 311.342 275.065 75.736 
309.429 276.636 76.1219 309.705 276.521 76.1402 312.608 264.07 76.6493 
312.802 264.008 76.7252 312.942 263.743 76.8531 312.981 264.137 76.8306 
312.037 267.754 76.0623 313.807 267.973 76.9853 313.71 271.575 76.3892 
314.303 272.701 76.756 314.157 273.781 76.5585 307.925 275.729 76.0411 
314.002 274.225 76.4886 306.773 276.175 76.3141 308.862 276.49 76.1468 
307.488 277.109 76.4643 309.128 277.068 76.396 311.754 276.452 76.6194 
304.675 279.451 77.4412 311.313 256.404 77.7335 311.599 256.219 77.8288 
312.787 256.722 78.1703 312.016 257.16 77.621 312.747 257.131 77.9605 
312.033 258.971 77.184 312.81 259.559 77.3431 313.364 258.884 77.9494 
313.104 260.142 77.4704 312.339 262.274 76.8731 311.367 262.634 76.7199 
313.053 264.768 76.8615 314.43 270.01 77.5615 312.706 275.971 76.707 
313.473 275.405 76.9072 311.523 276.906 76.9135 306.987 279.024 77.4397 
311.061 254.656 78.5323 310.643 255.122 78.3281 312.275 254.475 78.9442 
312.067 255.552 78.2915 312.454 254.963 78.8282 310.882 256.532 77.757 
309.946 257.052 77.791 313.19 257.809 78.1199 310.887 258.654 77.2377 
313.164 258.318 77.9003 313.801 259.637 78.3932 309.494 261.049 77.215 
309.257 262.491 77.1023 314.243 265.327 78.0955 304.888 275.488 76.8019 
314.206 275.064 78.0508 312.816 276.669 77.6205 313.677 275.821 77.8899 
307.963 279.258 77.7967 308.466 279.565 78.2959 301.928 280.858 78.583 
310.187 254.524 78.7509 313.235 256.315 78.9928 308.008 257.151 78.7473 
307.269 262.309 77.9158 314.605 274.383 78.7971 314.38 275.09 78.4124 
314.434 275.07 78.5538 314.344 275.199 78.624 312.006 278.143 78.7946 
297.351 282.173 79.566 311.811 251.831 80.5004 312.02 251.989 80.424 
311 252.186 80.1095 311.553 252.251 80.043 312.116 252.191 80.3183 
309.184 254.488 79.2463 313.096 254.399 80.1875 313.388 255.13 80.2511 
306.413 257.872 79.707 305.159 260.782 79.604 314.827 265.798 79.4144 
314.735 274.372 79.7552 294.855 283.088 80.3701 297.62 283.179 80.1007 
298.42 283.179 80.0738 311.57 251.784 80.4633 311.381 251.72 80.5723 
312.158 252.061 80.5053 312.243 252.071 80.7525 311.101 251.796 80.5769 
308.75 254.025 80.0259 314.546 261.327 79.9881 304.001 263.12 79.6914 
315.249 270.575 80.3851 309.389 280.616 80.3474 295.363 281.296 79.8832 
293.822 281.974 80.3573 292.276 284.719 81.4736 311.545 251.495 81.0928 
311.41 251.366 81.5014 311.94 251.563 81.3096 309.623 252.06 81.7358 
312.91 253.226 81.2185 307.177 254.455 81.8937 305.468 256.922 81.953 
304.926 257.555 82.2993 314.058 256.814 81.7085 304.178 259.406 81.4356 
301.36 264.437 81.2753 314.896 274.102 81.3122 293.43 278.932 80.8038 
293.72 280.44 80.4386 302.688 283.697 81.498 289.185 284.345 82.1423 
298.997 284.521 81.4858 292.083 285.717 82.1828 310.143 251.491 82.2496 
308.614 252.744 81.998 305.734 256.279 82.4159 313.723 255.423 82.1452 
314.931 263.584 81.5319 296.9 269.034 82.149 313.449 277.966 82.5367 
287.282 284.899 82.8434 300.466 284.981 82.6914 288.532 285.985 83.0064 
293.276 286.262 82.6335 310.646 251.327 82.5493 310.982 251.305 82.4038 
311.335 251.34 82.2376 311.932 251.596 81.9689 309.49 251.865 82.5627 
309.672 251.749 82.7589 309.987 251.595 82.8793 308.217 253.032 82.9506 
313.882 256.361 82.9649 303.517 259.397 83.1893 299.269 264.497 84.049 
297.958 266.005 83.7124 296.496 266.872 84.3956 285.224 283.662 83.3855 
283.784 285.925 84.0934 286.119 287.142 84.1138 289.581 287.123 83.7442 
310.602 251.383 82.7863 310.844 251.385 82.7465 311.629 251.53 82.421 
310.159 251.637 83.1284 308.373 252.818 83.4986 308.941 252.51 83.685 
306.289 255.411 83.9377 304.698 257.57 84.1358 302.749 260.404 84.1047 
314.467 261.813 84.2863 297.587 265.696 85.0388 296.552 266.524 85.0172 
283.979 282.544 83.9882 280.243 286.543 85.2734 279.538 287.112 85.6159 
288.176 287.635 84.327 280.281 288.075 85.8845 280.675 287.684 85.5714 
294.22 287.671 84.7884 311.248 251.873 83.3348 305.71 256.224 84.336 
303.18 259.844 84.4926 299.154 264.331 85.9334 314.553 274.78 84.8261 
279.496 285.728 85.4553 301.326 285.731 84.9646 277.73 286.848 86.2608 
277.59 287.635 86.549 277.07 287.83 86.8704 284.407 288.353 85.43 
292.833 288.236 85.4793 293.327 288.131 85.3092 293.283 288.201 85.4298 
278.302 288.252 86.6139 309.154 252.795 84.3489 311.017 252.628 84.3269 
312.298 253.043 83.7351 312.273 253.591 84.3259 310.218 253.228 85.0191 
306.969 255.117 84.9992 307.501 254.837 85.2511 313.591 257.8 85.2162 
304 259.195 85.6123 295.999 266.648 86.293 290.162 269.613 87.072 
313.442 277.841 85.9726 275.192 286.944 87.4883 295.434 288.083 86.3888 
280.041 289.579 87.2688 311.736 252.974 84.2646 308.467 254.709 85.8363 
313.544 259.686 86.2547 304.382 259.655 86.9554 302.869 260.995 86.524 
299.898 263.818 86.4778 296.093 266.682 87.6161 279.093 280.989 86.6223 
308.871 282.482 85.6925 302.529 285.684 86.9179 309.868 256.143 87.3582 
312.909 257.522 86.3411 307.838 257.028 87.5572 298.224 265.639 88.1258 
295.993 266.91 88.3882 311.632 280.025 87.4106 295.037 288.633 87.8795 
310.767 255.974 87.1349 312.043 256.891 87.0266 312.297 257.959 87.3238 
312.584 260.099 87.9053 300.108 264.712 88.6102 313.451 267.85 88.2524 
282.71 271.504 90.0047 285.601 270.783 89.5382 280.897 272.727 89.3891 
312.765 278.193 87.8645 304.979 284.523 88.1647 284.288 290.927 89.652 
311.686 264.776 89.7619 312.361 266.746 89.397 287.437 270.199 90.119 
313.736 270.251 87.9231 312.84 275.405 89.0401 311.162 279.791 88.7935 
293.927 289.354 89.853 310.947 259.541 88.9287 307.926 260.528 89.6941 
309.855 259.82 89.443 306.025 260.899 89.3938 309.575 261.387 89.9913 
291.641 269.136 90.603 310.415 268.856 90.871 282.467 271.262 91.0889 
289.413 269.953 91.3513 274.863 274.963 90.9663 311.417 276.045 90.3576 
307.854 281.986 89.8167 266.061 287.745 92.1032 296.872 288.311 90.0246 
268.98 289.557 91.7011 307.528 264.805 91.1803 302.497 265.543 90.91 
307.951 266.581 91.4869 292.894 269.264 91.5183 289.704 270.215 92.1585 
277.03 272.339 92.0038 283.616 270.983 92.2921 273.829 273.604 92.1652 
309.619 278.867 90.8582 300.998 286.099 90.6791 294.694 289.165 90.9586 
264.97 289.338 93.3428 288.814 290.849 92.1177 306.865 263.549 90.8275 
276.974 271.724 93.1677 289.773 270.443 92.6366 272.546 272.616 93.5474 
284.571 270.982 92.7283 298.069 287.312 91.9741 265.954 290.552 93.9308 
268.114 290.548 93.0027 271.394 291.7 93.3579 273.084 271.543 94.9669 
290.582 270.632 93.0712 292.946 270.296 92.9481 300.206 270.397 93.5035 
303.317 270.207 93.0736 276.506 271.385 94.8541 302.507 275.054 94.0127 
301.52 278.633 94.3265 263.112 283.871 93.7406 300.104 283.87 93.8468 
260.496 287.312 94.7192 298.527 286.803 92.4534 260.091 288.092 95.0925 
260.148 288.723 95.339 261.013 288.832 94.9531 294.565 288.932 92.6847 
263.653 290.165 94.6005 271.709 292.39 94.7128 277.613 271.483 95.4237 
294.37 271.152 93.8662 300.591 281.159 94.3968 297.408 285.682 94.4498 
259.495 286.934 95.1384 258.426 288.227 95.9091 258.696 288.638 95.9737 
272.494 271.21 96.2812 266.909 272.186 96.2584 291.98 271.891 94.4272 
290.148 273.522 95.8864 257.789 284.467 95.9969 295.412 285.549 95.7065 
257.224 287.193 96.1849 294.798 287.08 95.2459 293.808 288.187 94.906 
258.944 289.622 96.4983 267.41 270.752 97.9122 296.358 274.838 95.463 
294.015 282.07 96.9368 253.848 287.442 97.7461 253.308 287.828 98.1105 
286.629 291.197 96.0157 261.513 270.268 99.2184 261.343 270.337 99.2543 
263.378 270.648 98.5414 262.778 270.635 98.6596 278.281 272.649 98.3682 
284.953 273.612 96.9724 289.789 277.785 97.8334 289.282 278.472 98.1862 
290.603 283.709 98.307 251.677 288.061 98.9898 290.669 288.091 97.0824 
251.929 288.103 98.9018 288.54 289.796 97.0832 263.394 292.306 98.1994 
283.837 292.127 96.8373 273.044 293.41 97.9484 284.44 291.782 97.6669 
262.563 269.728 99.8493 263.698 269.748 99.7633 262.107 270.406 99.0472 
268.689 270.537 99.1224 260.28 271.679 98.7414 271.033 270.987 99.1652 
284.895 276.952 99.2778 249.182 286.022 99.7965 247.65 287.093 100.782 
250.272 287.334 99.5496 252.809 289.143 99.1887 287.52 289.31 98.4685 
285.196 291.254 98.2547 259.282 269.524 101.143 260.172 269.92 100.234 
264.012 269.695 99.9719 249.403 288.536 100.653 286.277 288.15 100.06 
250.353 289.46 100.969 252.978 290.165 100.218 260.786 269.268 101.266 
255.108 270.186 101.689 255.09 270.84 101.193 284.922 287.669 101.113 
250.275 289.879 101.504 284.289 291.152 99.4607 259.424 292.499 101.229 
262.877 269.272 101.256 248.744 276.097 101.959 245.277 288.418 103.035 
250.871 290.726 102.568 274.087 293.472 102.131 277.166 293.134 101.041 
278.669 292.578 101.696 258.675 268.816 103.164 264.327 269.518 102.453 
244.047 284.22 102.482 248.881 267.919 105.569 248.148 268.397 105.18 
252.34 268.076 105.088 247.79 269.243 104.64 253.564 268.366 104.519 
273.708 274.554 104.007 240.022 286.109 104.95 241.212 287.585 105.04 
243.924 288.983 104.609 246.764 290.195 104.542 270.122 293.754 104.274 
246.317 267.548 106.732 246.202 267.927 106.278 247.258 267.569 106.463 
246.429 268.488 105.679 250.261 267.509 106.295 263.82 269.74 104.566 
266.778 271.123 105.109 275.912 277.005 104.49 277.79 281.339 105.121 
278.955 290.962 104.056 258.853 293.198 105.556 275.798 292.579 104.039 
251.777 267.649 106.394 253.59 267.94 106.024 259.913 268.901 105.465 
276.374 278.729 105.106 272.902 293.3 104.927 248.156 267.137 107.412 
252.742 267.772 107.591 275.467 285.621 107.782 238.282 288.611 108 
243.989 266.474 109.003 242.062 267.108 108.519 245.253 266.671 108.756 
247.274 266.939 108.126 251.346 267.511 107.914 240.278 269.061 108.103 
237.989 273.774 108.025 231.808 285.493 109.993 233.016 285.658 109.247 
[...]
POINT_DATA 1364
SCALARS scalars float
LOOKUP_TABLE default
1 1 1 1 1 1 1 1 1 
1 1 1 1 1 1 1 1 1 
1 1 1 1 1 1 1 1 1 
1 1 1 1 1 1 1 1 1 
1 1 1 1 1 1 1 1 1 
1 1 1 1 1 1 1 1 1 
1 1 1 1 1 1 1 1 1 
1 1 1 1 1 1 1 1 1 
1 1 1 1 1 1 1 1 1 
1 1 1 1 1 1 1 1 1 
1 1 1 1 1 1 1 1 1 
1 1 1 1 1 1 1 1 1 
1 1 1 1 1 1 1 1 1 
1 1 1 1 1 1 1 1 1 
1 1 1 1 1 1 1 1 1 
1 1 1 1 1 1 1 1 1 
1 1 1 1 1 1 1 1 1 
1 1 1 1 1 1 1 1 1 
1 1 1 1 1 1 1 1 1 
1 1 1 1 1 1 1 1 1 
1 1 1 1 1 1 1 1 1 
1 1 1 1 1 1 1 1 1 
1 1 1 1 1 1 1 1 1 
1 1 1 1 1 1 1 1 1 
1 1 1 1 1 1 1 1 1 
1 1 1 1 1 1 1 1 1 
1 1 1 1 1 1 1 1 1 
1 1 1 1 1 1 1 1 1 
1 1 1 1 1 1 1 1 1 
1 1 1 1 1 1 1 1 1 
1 1 1 1 1 1 1 1 1 
1 1 1 1 1 1 1 1 1 
1 1 1 1 1 1 1 1 1 
1 1 1 1 1 1 1 1 1 
1 1 1 1 1 1 1 1 1 
1 1 1 1 1 1 1 1 1 
1 1 1 1 1 1 1 1 1 
1 1 1 1 1 1 1 1 1 
1 1 1 1 1 1 1 1 1 
1 1 1 1 1 1 1 1 1 
1 1 1 1 1 1 1 1 1 
1 1 1 1 1 1 1 1 1 
1 1 1 1 1 1 1 1 1 
1 1 1 1 1 1 1 1 1 
1 1 1 1 1 1 1 1 1 
1 1 1 1 1 1 1 1 1 
1 1 1 1 1 1 1 1 1 
1 1 1 1 1 1 1 1 1 
1 1 1 1 1 1 1 1 1 
1 1 1 1 1 1 1 1 1 
1 1 1 1 1 1 1 1 1 
1 1 1 1 1 1 1 1 1 
1 1 1 1 1 1 1 1 1 
1 1 1 1 1 1 1 1 1 
1 1 1 1 1 1 1 1 1 
1 1 1 1 1 1 1 1 1 
1 1 1 1 1 1 1 1 1 
1 1 1 1 1 1 1 1 1 
1 1 1 1 1 1 1 1 1 
1 1 1 1 1 1 1 1 1 
1 1 1 1 1 1 1 1 1 
1 1 1 1 1 1 1 1 1 
1 1 1 1 1 1 1 1 1 
1 1 1 1 1 1 1 1 1 
1 1 1 1 1 1 1 1 1 
1 1 1 1 1 1 1 1 1 
1 1 1 1 1 1 1 1 1 
1 1 1 1 1 1 1 1 1 
1 1 1 1 1 1 1 1 1 
1 1 1 1 1 1 1 1 1 
1 1 1 1 1 1 1 1 1 
1 1 1 1 1 1 1 1 1 
1 1 1 1 1 1 1 1 1 
1 1 1 1 1 1 1 1 1 
1 1 1 1 1 1 1 1 1 
1 1 1 1 1 1 1 1 1 
1 1 1 1 1 1 1 1 1 
1 1 1 1 1 1 1 1 1 
1 1 1 1 1 1 1 1 1 
1 1 1 1 1 1 1 1 1 
1 1 1 1 1 1 1 1 1 
1 1 1 1 1 1 1 1 1 
1 1 1 1 1 1 1 1 1 
1 1 1 1 1 1 1 1 1 
1 1 1 1 1 1 1 1 1 
1 1 1 1 1 1 1 1 1 
1 1 1 1 1 1 1 1 1 
1 1 1 1 1 1 1 1 1 
1 1 1 1 1 1 1 1 1 
1 1 1 1 1 1 1 1 1 
1 1 1 1 1 1 1 1 1 
1 1 1 1 1 1 1 1 1 
1 1 1 1 1 1 1 1 1 
1 1 1 1 1 1 1 1 1 
1 1 1 1 1 1 1 1 1 
1 1 1 1 1 1 1 1 1 
1 1 1 1 1 1 1 1 1 
1 1 1 1 1 1 1 1 1 
1 1 1 1 1 1 1 1 1 
1 1 1 1 1 1 1 1 1 
1 1 1 1 1 1 1 1 1 
1 1 1 1 1 1 1 1 1 
1 1 1 1 1 1 1 1 1 
1 1 1 1 1 1 1 1 1 
1 1 1 1 1 1 1 1 1 
1 1 1 1 1 1 1 1 1 
1 1 1 1 1 1 1 1 1 
1 1 1 1 1 1 1 1 1 
1 1 1 1 1 1 1 1 1 
1 1 1 1 1 1 1 1 1 
1 1 1 1 1 1 1 1 1 
1 1 1 1 1 1 1 1 1 
1 1 1 1 1 1 1 1 1 
1 1 1 1 1 1 1 1 1 
1 1 1 1 1 1 1 1 1 
1 1 1 1 1 1 1 1 1 
1 1 1 1 1 1 1 1 1 
1 1 1 1 1 1 1 1 1 
1 1 1 1 1 1 1 1 1 
1 1 1 1 1 1 1 1 1 
1 1 1 1 1 1 1 1 1 
1 1 1 1 1 1 1 1 1 
1 1 1 1 1 1 1 1 1 
1 1 1 1 1 1 1 1 1 
1 1 1 1 1 1 1 1 1 
1 1 1 1 1 1 1 1 1 
1 1 1 1 1 1 1 1 1 
1 1 1 1 1 1 1 1 1 
1 1 1 1 1 1 1 1 1 
1 1 1 1 1 1 1 1 1 
1 1 1 1 1 1 1 1 1 
1 1 1 1 1 1 1 1 1 
1 1 1 1 1 1 1 1 1 
1 1 1 1 1 1 1 1 1 
1 1 1 1 1 1 1 1 1 
1 1 1 1 1 1 1 1 1 
1 1 1 1 1 1 1 1 1 
1 1 1 1 1 1 1 1 1 
1 1 1 1 1 1 1 1 1 
1 1 1 1 1 1 1 1 1 
1 1 1 1 1 1 1 1 1 
1 1 1 1 1 1 1 1 1 
1 1 1 1 1 1 1 1 1 
1 1 1 1 1 1 1 1 1 
1 1 1 1 1 1 1 1 1 
1 1 1 1 1 1 1 1 1 
1 1 1 1 1 1 1 1 1 
1 1 1 1 1 1 1 1 1 
1 1 1 1 1 1 1 1 1 
1 1 1 1 1 1 1 1 1 
1 1 1 1 1 1 1 1 1 
1 1 1 1 1 
NORMALS Normals float
0.448265 -0.103262 -0.887916 0.167372 -0.136043 -0.976462 0.626289 -0.121455 -0.770072 
0.756615 -0.107809 -0.644912 0.372511 0.0504309 -0.926656 0.399106 0.160876 -0.902681 
0.554253 0.338097 -0.760588 0.645521 0.0132374 -0.763628 0.16029 0.301608 -0.939862 
0.059338 0.346312 -0.936241 0.126197 0.347332 -0.929212 0.282324 -0.0842474 -0.955613 
0.419573 -0.0812007 -0.904083 0.57754 -0.150918 -0.802291 0.656899 -0.0124106 -0.753877 
0.133145 -0.0981153 -0.986228 0.701839 -0.0962355 -0.705805 0.618397 -0.22362 -0.753379 
0.906107 -0.0358905 -0.421522 0.887873 0.181063 -0.422963 -0.140432 0.138672 -0.980331 
0.772571 0.369226 -0.516533 -0.251526 0.218561 -0.94285 -0.125004 0.24481 -0.961479 
-0.0710719 0.378545 -0.92285 0.0695175 0.577462 -0.813453 0.297959 0.597755 -0.74425 
-0.0419586 0.476039 -0.878423 0.0836007 -0.347527 -0.933936 0.104664 -0.415166 -0.903705 
0.498586 -0.325254 -0.803506 0.206019 -0.237387 -0.949317 0.606528 -0.256656 -0.752497 
0.118948 -0.0879957 -0.988994 0.464521 -0.164692 -0.870113 0.8716 -0.313822 -0.376601 
0.479299 -0.0793909 -0.874054 0.15894 -0.152647 -0.975416 0.017058 -0.138925 -0.990156 
0.732795 -0.092147 -0.674181 0.819119 -0.141932 -0.555788 0.493314 0.556627 -0.668437 
0.658228 0.531448 -0.533197 0.259393 0.642852 -0.720733 0.101288 0.651887 -0.751521 
0.112681 -0.474628 -0.872944 -0.127878 -0.39629 -0.909176 0.664171 -0.414705 -0.62201 
0.373194 -0.421602 -0.826425 0.512963 -0.39721 -0.760982 -0.212194 -0.377866 -0.901216 
-0.263738 -0.277212 -0.923903 0.674979 -0.228673 -0.701507 -0.166264 -0.193505 -0.966909 
0.800159 -0.258009 -0.541458 0.848398 -0.200028 -0.490112 -0.177762 -0.15861 -0.971207 
-0.297466 0.00695712 -0.954707 0.873637 -0.103269 -0.475494 -0.301426 0.000666316 -0.953489 
0.873472 0.330686 -0.357342 0.59506 0.670686 -0.442814 0.735093 0.590622 -0.332874 
0.173775 0.641414 -0.747255 0.193982 0.75192 -0.63007 -0.0213809 0.528989 -0.848359 
-0.300276 -0.512954 -0.804184 0.808936 -0.301002 -0.504996 -0.519543 -0.392018 -0.759208 
-0.446256 -0.13513 -0.884644 0.972932 0.0933146 -0.211416 0.844335 0.403766 -0.352237 
0.947307 0.229261 -0.223718 0.777237 0.605747 -0.170211 0.494554 0.712645 -0.497547 
-0.159788 0.381534 -0.910439 0.257214 -0.782818 -0.566601 0.498022 -0.730211 -0.467724 
-0.318161 -0.680231 -0.660348 0.0694945 -0.637177 -0.767578 0.573069 -0.471783 -0.670084 
-0.466023 -0.521595 -0.714676 0.865292 -0.374708 -0.332961 0.925014 -0.269685 -0.267618 
-0.656611 -0.419811 -0.626595 -0.61751 -0.341971 -0.708334 0.974845 -0.0770541 -0.209141 
0.963404 0.263037 -0.0516189 -0.122558 0.361748 -0.924185 -0.122437 0.559808 -0.819527 
0.097843 0.636969 -0.764655 0.0915574 -0.805661 -0.585259 -0.0400395 -0.89011 -0.453983 
0.744743 -0.562622 -0.358908 0.812296 -0.537492 -0.226445 -0.260905 -0.789605 -0.555385 
-0.592257 -0.575931 -0.563502 0.968361 -0.229633 -0.0976996 -0.553874 -0.0681602 -0.829806 
0.996984 0.052482 -0.0571637 0.457457 0.812316 -0.361768 -0.280631 0.132448 -0.950633 
-0.378845 0.0325711 -0.924887 -0.103913 0.501845 -0.858693 0.172617 -0.919833 -0.352294 
0.00394127 -0.980908 -0.194434 0.484418 -0.856551 -0.177934 -0.510598 -0.79319 -0.331872 
0.906986 -0.412603 -0.0844696 -0.765921 -0.62779 -0.138725 -0.776224 -0.540659 -0.324289 
-0.78568 -0.481437 -0.388491 0.976029 -0.166934 -0.139643 -0.756796 -0.478212 -0.445615 
-0.591709 -0.319634 -0.740077 0.990479 0.137542 0.00578301 -0.426136 -0.142436 -0.893376 
-0.370731 -0.0217303 -0.928486 0.248629 0.814322 -0.524464 -0.23844 0.295899 -0.924981 
0.0951164 0.787775 -0.608574 -0.123079 0.67237 -0.729911 -0.382969 -0.900926 -0.204123 
-0.698126 -0.70448 -0.127784 -0.768555 -0.56103 -0.307519 0.953048 -0.302548 0.0128028 
0.996154 -0.0724689 -0.0492396 -0.502581 -0.473518 -0.723321 0.801812 0.589419 -0.0984016 
-0.303494 0.101137 -0.947451 0.195115 0.827101 -0.5271 -0.191161 0.501791 -0.843601 
0.113983 0.699904 -0.705083 -0.118988 -0.987884 0.0996363 0.0978546 -0.992484 0.0734803 
0.298651 -0.948229 0.108021 0.703928 -0.668989 0.238619 -0.604225 -0.795553 -0.0448041 
-0.52459 -0.829369 0.19223 -0.457252 -0.880782 0.123063 -0.654796 -0.750494 -0.089451 
0.962553 -0.239366 0.12726 -0.811321 -0.578733 -0.0826226 -0.73328 -0.649001 -0.202724 
-0.624034 -0.671057 -0.40033 -0.601637 -0.672751 -0.430626 -0.318958 0.0805789 -0.944337 
-0.280719 0.277307 -0.918857 -0.188793 0.752613 -0.630818 -0.0214806 0.68118 -0.731801 
-0.131967 -0.926401 0.352657 0.171322 -0.909565 0.378604 0.454447 -0.801307 0.389082 
-0.247694 -0.812594 0.527578 -0.658105 -0.718194 0.226042 -0.531413 -0.832814 0.154985 
-0.735437 -0.672377 0.0839122 -0.80551 -0.583768 0.101829 -0.821697 -0.569319 -0.0262712 
0.970098 -0.0933261 0.224052 -0.627315 -0.778765 0.000827121 -0.563173 -0.800429 -0.205303 
-0.312129 -0.1857 -0.931714 -0.250135 0.246895 -0.936203 -0.441848 0.30208 -0.8447 
-0.115374 0.86458 -0.489071 -0.222546 0.510031 -0.830868 -0.120487 0.50456 -0.854928 
0.10857 0.818357 -0.564362 0.307011 -0.744218 0.593198 -0.775351 -0.563984 0.284172 
-0.778575 -0.600037 0.183784 -0.695535 -0.716628 0.0517212 0.970304 0.172016 0.170059 
-0.57334 0.00766184 -0.819282 0.310363 0.900244 -0.305345 -0.368275 0.151738 -0.917251 
-0.457385 0.559038 -0.691575 -0.427129 0.527776 -0.734175 -0.0936155 0.65163 -0.752738 
0.0235475 0.914563 -0.403757 0.119574 0.843732 -0.523276 0.132174 0.918927 -0.371623 
-0.395824 0.588881 -0.704658 -0.288442 -0.761374 0.580612 0.245164 -0.683542 0.687506 
0.693032 -0.591686 0.411843 0.725918 -0.436572 0.531459 -0.138696 -0.686236 0.714033 
-0.664684 -0.6006 0.444381 -0.48187 -0.604416 0.634415 0.876036 -0.282844 0.39059 
-0.773539 -0.581318 0.252402 -0.550798 -0.832618 -0.058051 -0.391104 -0.906554 -0.158736 
0.912625 0.376611 0.158997 -0.458945 0.322368 -0.827918 0.322833 0.87327 -0.364936 
-0.240303 0.780627 -0.576954 0.445645 -0.604899 0.659923 -0.30126 -0.621122 0.723498 
0.872536 -0.147983 0.465598 -0.660404 -0.583258 0.472945 -0.66796 -0.657913 0.347823 
-0.648291 -0.684995 0.332418 -0.516048 -0.854052 0.0654883 -0.550824 -0.145758 -0.821795 
0.577842 0.814917 0.044824 0.416068 0.90311 -0.106203 0.0416797 -0.51984 0.853246 
0.800598 -0.351124 0.485545 -0.454228 -0.559929 0.692933 -0.515135 -0.835233 0.192411 
-0.460081 -0.84775 0.263905 0.705156 0.68533 0.181874 0.251126 0.934245 -0.253223 
0.205454 -0.562412 0.800925 0.523272 -0.448921 0.724332 0.732191 -0.249557 0.633733 
0.779721 -0.144375 0.609254 -0.489314 -0.747461 0.449303 0.820477 -0.026341 0.571072 
-0.263001 -0.908885 -0.323663 -0.25974 -0.949067 -0.178346 -0.380729 -0.667377 -0.640042 
0.787494 0.362283 0.498601 0.577225 0.802464 0.151201 0.0801706 0.950506 -0.300185 
0.463842 -0.146332 0.873749 0.61977 -0.0694273 0.781706 -0.269953 -0.948224 0.167321 
0.921356 -0.0252706 0.387898 0.858675 0.140909 0.492769 0.67021 0.544838 0.503954 
0.210162 0.973084 -0.0945548 0.463256 -0.292534 0.836551 -0.146746 -0.43649 0.887661 
0.0604986 -0.502417 0.862506 -0.330404 -0.510084 0.794133 0.197888 -0.23663 0.951234 
-0.274297 -0.89739 0.345619 0.514615 -0.0274656 0.856981 -0.21884 -0.933534 -0.283941 
-0.168344 -0.955737 0.241303 -0.544526 -0.323062 -0.77403 0.532953 0.0760886 0.842717 
0.54836 0.706165 0.44792 -0.419792 0.275831 -0.864692 0.47038 0.882353 -0.0139717 
-0.317357 0.602709 -0.732139 0.0885891 -0.194142 0.976965 -0.246823 -0.607518 0.754983 
0.214392 -0.142557 0.966289 -0.202162 -0.820721 0.534367 -0.145062 -0.908867 0.391047 
-0.335348 -0.741582 -0.581031 -0.0966015 -0.993278 -0.063775 -0.527975 -0.340797 -0.777882 
0.572421 0.324926 0.752833 0.531048 0.738674 0.415148 0.297794 0.954554 0.0120681 
-0.330729 0.605068 -0.724231 0.200557 0.97529 -0.0926588 -0.100255 -0.323332 0.94096 
-0.239082 -0.927594 -0.287068 -0.150906 -0.840723 0.520012 -0.326186 -0.688372 -0.647878 
-0.0684605 -0.970758 0.230093 0.538537 0.770505 0.341028 -0.306649 0.660066 -0.685769 
-0.28073 0.747843 -0.601599 -0.0122033 0.844287 -0.535752 -0.208011 -0.896108 -0.392074 
-0.0780581 -0.8365 0.542379 -0.0865165 -0.778682 0.621426 0.0915363 -0.342663 0.934988 
0.171135 -0.203564 0.963989 -0.143376 -0.964439 -0.222039 0.341195 -0.0319893 0.939448 
0.482332 0.110497 0.868991 -0.453368 -0.224518 -0.862583 0.575873 0.399825 0.7131 
-0.376886 0.175061 -0.909566 0.570187 0.724166 0.387905 -0.430073 0.304972 -0.849723 
-0.418314 0.22825 -0.879156 -0.404648 0.302496 -0.862992 0.371275 0.884664 0.282 
-0.346689 0.595287 -0.724873 -0.0393789 0.931295 -0.362131 0.0755114 -0.984052 0.161057 
-0.0135579 -0.597624 0.801662 0.38635 0.166719 0.90716 0.404388 0.217347 0.888387 
-0.45465 0.0772599 -0.887313 -0.459113 0.289264 -0.839965 -0.415427 0.345003 -0.841661 
-0.0180831 -0.993518 -0.112231 -0.315856 -0.448213 -0.836266 0.00304681 -0.618097 0.786096 
0.177355 -0.47191 0.863624 -0.372368 -0.0815966 -0.924491 0.390777 0.290014 0.873605 
-0.415857 0.221884 -0.881947 0.428471 0.587537 0.68645 0.356553 0.64314 0.677673 
-0.397819 0.628071 -0.66878 0.0150703 -0.923661 -0.382915 0.179885 -0.276468 0.944038 
0.549148 -0.177684 0.816618 -0.366221 0.277463 -0.888198 -0.365621 0.362494 -0.857274 
0.387089 0.903843 0.182291 -0.253938 -0.696119 -0.671516 -0.274577 -0.693939 -0.665625 
-0.0606812 -0.718797 -0.692566 -0.161122 -0.636046 -0.754643 0.400125 -0.755355 0.518979 
0.126299 -0.748708 0.650758 0.389362 -0.385154 0.836692 0.282714 -0.230365 0.931131 
0.4248 0.0300169 0.90479 -0.441872 0.383561 -0.810944 0.503299 0.606342 0.615662 
-0.380691 0.295965 -0.876059 0.508126 0.784085 0.356396 -0.192577 0.899173 -0.392939 
0.281323 0.95849 0.0464216 0.0848393 0.972285 -0.217863 0.378549 0.907416 0.182476 
-0.0913821 -0.887946 -0.450778 0.0870227 -0.863136 -0.497417 -0.166427 -0.56601 -0.807425 
0.204622 -0.977115 -0.0581056 -0.298531 -0.486657 -0.821002 0.186154 -0.98252 -0.00128667 
0.303229 -0.413115 0.858713 -0.446692 0.102213 -0.88883 -0.469744 0.475375 -0.743881 
-0.45254 0.349825 -0.820263 -0.368332 0.589865 -0.718604 0.492828 0.622499 0.60796 
0.513773 0.82061 0.250274 -0.199943 -0.776007 -0.598194 -0.216601 -0.805622 -0.551414 
0.122879 -0.936517 -0.328386 -0.452454 0.521339 -0.723526 0.52855 0.235277 0.815647 
-0.326167 0.677802 -0.658938 -0.296076 0.827594 -0.476892 -0.0169591 -0.967775 -0.251244 
-0.274169 -0.737319 -0.617408 -0.267571 -0.598786 -0.754891 0.57856 0.170628 0.797593 
-0.383061 0.730611 -0.565218 0.366343 0.843201 0.393452 -0.191379 0.935647 -0.296545 
0.0658979 -0.993419 -0.0936851 -0.491335 -0.213218 -0.844469 -0.425256 0.539133 -0.726976 
-0.220778 0.895981 -0.385324 0.110099 0.989598 0.0925952 0.221171 0.950254 0.21932 
0.256596 0.877779 0.404553 -0.0182387 -0.95395 -0.299411 0.232582 -0.972463 0.0148611 
-0.51472 0.0278772 -0.856905 -0.0305347 -0.786723 -0.616551 -0.155272 -0.646713 -0.746762 
0.0428661 -0.931822 -0.360375 -0.25191 -0.526646 -0.811903 -0.0828911 -0.899286 -0.429434 
0.390838 -0.536431 0.747989 -0.504652 0.212653 -0.836723 -0.530356 0.622207 -0.575831 
-0.446365 0.749527 -0.488843 -0.370171 0.89367 -0.253627 0.0284653 0.998462 0.0475828 
-0.108144 -0.837874 -0.535044 -0.363516 -0.623501 -0.692172 -0.14491 -0.832886 -0.534137 
-0.401861 -0.54473 -0.736055 0.0731601 -0.960451 -0.268667 0.195187 -0.963012 0.185768 
0.385131 -0.791108 0.475208 0.509354 -0.472539 0.719212 0.540777 -0.280438 0.793041 
0.447934 0.656742 0.606667 -0.14412 0.988659 -0.0422248 0.335662 0.876524 0.345017 
0.146049 -0.956424 -0.252832 0.225258 -0.973472 0.0401327 0.216963 -0.966229 0.13903 
0.524296 -0.414878 0.743632 0.227289 0.935829 0.269378 0.124162 -0.984738 -0.121965 
0.291446 -0.955619 0.0430327 0.642793 -0.128407 0.755202 -0.417547 0.755305 -0.505143 
0.0667291 -0.948484 -0.309719 -0.165699 -0.536209 -0.827662 -0.0110178 -0.95755 -0.288058 
0.0767178 -0.980107 -0.183045 0.158621 -0.973753 0.163229 -0.262486 -0.306547 -0.914948 
-0.350791 -0.168392 -0.921189 -0.543697 0.27501 -0.792946 -0.512696 0.41019 -0.754246 
0.744826 0.0705961 0.663513 -0.449272 0.693768 -0.562886 -0.265804 0.905273 -0.331405 
0.734778 0.298009 0.609337 0.597943 0.546437 0.586405 0.457938 0.693882 0.555717 
-0.0148499 0.9942 0.106514 0.166906 0.949654 0.26514 0.132972 -0.979575 -0.150833 
-0.301649 -0.604525 -0.737263 0.245722 -0.865916 0.435673 -0.468368 -0.204338 -0.85958 
0.486736 -0.508017 0.710638 -0.535794 0.0591693 -0.842273 -0.492274 0.532401 -0.688633 
0.47791 0.435342 0.762941 -0.20993 -0.815624 -0.539154 -0.216832 -0.828783 -0.515852 
-0.319241 -0.406387 -0.856116 0.291336 -0.866824 0.404648 0.256837 -0.850739 0.458561 
-0.380756 -0.26006 -0.887352 -0.607434 0.372198 -0.701778 -0.669837 0.352889 -0.653289 
-0.553149 0.732077 -0.397606 0.556828 0.283173 0.780868 0.236324 0.902086 0.361099 
0.274517 0.870444 0.408617 -0.440707 -0.425546 -0.790372 0.258867 -0.951599 0.165671 
0.35604 -0.771221 0.527687 -0.618582 0.0819316 -0.781437 -0.763098 0.302622 -0.571052 
-0.703076 0.500391 -0.505265 -0.484049 0.820436 -0.304273 -0.223163 0.974253 0.0320722 
-0.164575 -0.863846 -0.476114 0.0097389 -0.93519 -0.354011 -0.0916655 -0.975305 -0.20094 
0.499413 -0.416865 0.75948 -0.670124 0.658201 -0.343081 -0.0367091 0.996375 0.0767358 
-0.303557 -0.787916 -0.535762 0.0869109 -0.994794 -0.0532158 0.155207 -0.987881 0.00109162 
0.201236 -0.969503 0.139886 0.218159 -0.859276 0.462657 0.34984 -0.575395 0.739279 
-0.606013 -0.0992047 -0.789244 -0.719248 0.431633 -0.544403 -0.572682 0.768315 -0.285879 
-0.336391 0.936746 -0.0966805 -0.18429 0.979586 -0.0802982 0.255862 0.842109 0.474749 
0.158981 0.894937 0.416908 -0.209009 -0.765732 -0.608251 -0.0124412 -0.93171 -0.362991 
0.0620352 -0.998057 0.00579494 -0.019969 -0.999793 -0.00399794 -0.306081 -0.636221 -0.708193 
0.297783 -0.764728 0.571416 0.304174 -0.742604 0.596672 -0.748611 0.28519 -0.598538 
-0.481776 0.866149 -0.132954 0.656892 0.2206 0.720991 0.615048 0.3372 0.712749 
0.500055 0.616143 0.608533 0.00351779 -0.947549 -0.31959 -0.132555 -0.974012 -0.183657 
0.00807629 -0.990666 -0.136073 0.27401 -0.672194 0.687803 -0.662935 0.2886 -0.690816 
-0.70118 0.540635 -0.464822 -0.558203 0.801988 -0.212661 0.588373 0.0415467 0.807522 
0.455908 0.583867 0.671749 -0.482936 0.87091 -0.0910468 0.128872 0.891016 0.435296 
-0.233972 -0.719245 -0.654174 0.179702 -0.968187 -0.174133 0.267252 -0.938926 0.216782 
0.376257 -0.815846 0.439121 -0.702852 0.0566707 -0.709075 -0.650783 0.650355 -0.391817 
0.548061 0.297026 0.781924 -0.0639864 0.959915 0.27289 0.427985 0.581955 0.69149 
0.018329 0.894328 0.447037 -0.10546 -0.719592 -0.686342 -0.0605821 -0.876294 -0.477952 
-0.22485 -0.523463 -0.821845 -0.0360839 -0.993016 -0.112327 0.211905 -0.926443 0.311128 
0.239678 -0.843525 0.480645 -0.822625 0.00407956 -0.568569 -0.890803 0.0479117 -0.451856 
-0.718027 0.570979 -0.39802 -0.71363 0.435329 -0.548836 -0.722518 0.661638 -0.200508 
-0.714281 0.674719 -0.185895 0.445741 -0.190353 0.874689 -0.390685 0.91938 0.0458834 
-0.190442 0.972765 0.132137 0.291584 0.532818 0.794408 0.191297 0.593733 0.781592 
-0.130668 -0.677319 -0.723992 -0.334207 -0.467957 -0.818121 -0.0848437 -0.847071 -0.524665 
0.00500998 -0.93865 -0.344836 0.15411 -0.981694 -0.111926 -0.228214 -0.387469 -0.893189 
0.154557 -0.960546 0.231223 -0.427825 -0.319709 -0.84543 0.291183 -0.408132 0.86524 
-0.844712 0.325503 -0.424865 0.283321 -0.242085 0.927968 -0.675494 0.684456 -0.274276 
-0.582771 0.810049 -0.064793 0.346898 0.175354 0.921365 0.489753 0.221764 0.843186 
-0.253003 -0.660026 -0.707358 0.137472 -0.989425 -0.046257 0.247054 -0.969002 0.000179712 
-0.458706 -0.183146 -0.869509 0.444002 -0.499709 0.743742 -0.600395 0.233606 -0.764823 
-0.73403 0.451863 -0.506972 -0.58661 0.460499 -0.666206 -0.66442 0.666159 -0.338789 
0.219502 -0.0497517 0.974343 -0.150033 0.959868 0.236945 0.105078 0.450517 0.886563 
0.00401618 0.850795 0.525482 -0.217867 -0.586851 -0.779833 -0.168022 -0.677211 -0.716348 
0.0074949 -0.86831 -0.495966 0.334097 -0.88586 0.321917 0.276393 -0.938724 0.205922 
-0.395996 -0.283581 -0.873366 0.415445 -0.751071 0.513125 0.385228 -0.682282 0.621362 
0.336588 -0.805357 0.487964 -0.516696 0.00397237 -0.85616 -0.633947 0.14324 -0.759995 
-0.675164 0.18572 -0.713906 -0.643852 0.745156 -0.173776 0.200473 0.231993 0.951835 
0.132764 0.744407 0.654394 0.10921 0.876317 0.469192 0.21722 0.744127 0.631735 
-0.222324 -0.783845 -0.579792 -0.0932308 -0.84633 -0.524437 -0.0285264 -0.913517 -0.4058 
0.0740632 -0.966328 -0.246426 0.0113154 -0.890091 -0.455642 0.26683 -0.958374 -0.101591 
-0.501791 -0.381454 -0.776337 -0.556596 -0.046497 -0.829481 0.443202 -0.484826 0.753999 
-0.79224 0.360422 -0.492394 0.458091 -0.342151 0.820418 -0.768385 0.338738 -0.542993 
-0.68764 0.725637 -0.0245337 -0.255328 0.920854 0.29468 0.250995 0.343267 0.90508 