# vtk DataFile Version 4.2
vtk output
ASCII
DATASET POLYDATA
POINTS 3335 float
215.13 155.785 146.925 215.13 155.785 146.925 215.129 155.785 146.925 
215.13 155.785 146.925 215.13 155.785 146.925 215.129 155.785 146.926 
215.131 155.785 146.925 219.504 156.004 146.017 219.504 156.004 146.018 
219.504 156.004 146.017 219.505 156.004 146.017 219.505 156.004 146.017 
219.505 156.004 146.018 215.13 155.785 146.925 219.504 156.005 146.017 
219.505 156.005 146.018 215.13 155.785 146.925 215.129 155.785 146.926 
215.131 155.785 146.925 215.128 155.786 146.926 215.128 155.786 146.926 
215.128 155.786 146.926 215.132 155.785 146.925 215.132 155.785 146.925 
215.132 155.785 146.925 215.133 155.785 146.925 215.133 155.786 146.925 
219.504 156.004 146.018 219.505 156.004 146.018 215.129 155.786 146.926 
215.129 155.786 146.926 215.131 155.785 146.925 215.132 155.786 146.925 
218.645 158.003 147.351 218.645 158.003 147.351 218.644 158.003 147.351 
218.645 158.003 147.351 218.645 158.003 147.351 218.645 158.003 147.351 
218.645 158.003 147.351 218.645 158.003 147.351 215.13 155.785 146.925 
215.128 155.786 146.926 215.127 155.786 146.926 215.129 155.786 146.926 
215.128 155.786 146.926 215.131 155.785 146.925 215.132 155.785 146.925 
215.128 155.786 146.926 216.853 158.266 148.235 216.853 158.266 148.235 
216.851 158.264 148.234 216.859 158.269 148.236 216.856 158.267 148.235 
216.86 158.269 148.237 216.852 158.265 148.235 216.852 158.265 148.235 
216.861 158.27 148.237 216.868 158.273 148.239 216.872 158.276 148.24 
218.644 158.003 147.351 216.883 158.282 148.242 218.645 158.003 147.351 
218.645 158.003 147.351 218.645 158.003 147.351 216.856 158.267 148.236 
216.867 158.273 148.238 216.878 158.279 148.241 216.876 158.278 148.241 
216.889 158.285 148.244 216.898 158.29 148.246 216.9 158.291 148.247 
218.645 158.003 147.351 216.888 158.284 148.244 216.899 158.29 148.246 
215.128 155.786 146.926 216.854 158.266 148.235 216.857 158.268 148.236 
216.857 158.268 148.236 216.863 158.271 148.237 216.868 158.274 148.239 
218.645 158.003 147.351 215.737 159.847 149.46 215.739 159.848 149.46 
215.732 159.844 149.458 215.755 159.855 149.466 215.756 159.855 149.466 
215.785 159.868 149.476 215.781 159.867 149.475 215.803 159.877 149.483 
215.806 159.878 149.484 215.817 159.883 149.488 216.883 158.281 148.242 
216.898 158.29 148.246 216.897 158.289 148.246 216.905 158.294 148.248 
216.905 158.293 148.248 216.908 158.295 148.249 215.737 159.847 149.46 
215.752 159.854 149.465 215.777 159.865 149.474 215.775 159.864 149.473 
215.805 159.878 149.483 215.838 159.893 149.495 216.897 158.289 148.246 
216.905 158.294 148.248 215.8 159.876 149.482 215.843 159.895 149.497 
215.739 159.847 149.46 215.761 159.858 149.468 215.786 159.869 149.477 
215.827 159.888 149.491 216.903 158.292 148.247 216.906 158.294 148.248 
215.813 159.882 149.486 215.855 159.901 149.501 215.871 159.908 149.507 
215.879 159.912 149.509 215.888 159.916 149.512 215.905 159.924 149.519 
215.914 159.927 149.522 215.918 159.929 149.523 215.87 159.907 149.506 
215.882 159.913 149.511 215.902 159.922 149.517 215.914 159.927 149.522 
215.921 159.931 149.524 215.896 159.919 149.515 215.911 159.926 149.521 
215.919 159.93 149.523 218.504 149.004 151.017 218.504 149.004 151.018 
218.504 149.004 151.017 218.505 149.004 151.017 218.505 149.004 151.017 
218.505 149.004 151.018 218.504 149.005 151.017 218.505 149.005 151.018 
209 157.009 151.017 209 157.009 151.017 209 157.009 151.017 
209 157.009 151.017 209 157.009 151.017 215.887 159.915 149.512 
215.899 159.921 149.516 215.908 159.925 149.519 215.898 159.92 149.516 
215.909 159.925 149.52 215.917 159.929 149.523 218.504 149.004 151.018 
218.505 149.004 151.018 209 156.009 152.017 209 156.009 152.017 
209 156.009 152.017 209 156.009 152.017 209 157.009 151.017 
209 156.009 152.017 209 161.009 152.017 209 161.009 152.017 
209 161.009 152.017 209 161.009 152.017 209 161.009 152.017 
209 156.009 152.017 209 161.009 152.017 208.504 162.006 153.015 
208.504 162.006 153.015 208.504 162.006 153.015 208.505 162.006 153.015 
208.505 162.007 153.015 208.505 162.007 153.015 208.504 162.007 153.015 
208.505 162.007 153.015 212 164.009 153.017 212 164.009 153.017 
212 164.009 153.017 212 164.009 153.017 212 164.009 153.017 
208.504 162.007 153.015 208.505 162.006 153.015 208.004 163.513 154.011 
208.004 163.513 154.011 208.004 163.513 154.011 208.004 163.513 154.011 
208.004 163.513 154.011 208.004 163.513 154.011 208.004 163.513 154.011 
212 164.009 153.017 208.004 163.513 154.011 209.004 165.013 154.009 
209.004 165.013 154.009 209.004 165.013 154.009 209.004 165.013 154.009 
209.004 165.013 154.009 210.506 166.007 154.013 210.506 166.007 154.013 
210.506 166.007 154.013 210.507 166.007 154.013 210.507 166.007 154.013 
210.507 166.007 154.013 210.506 166.007 154.013 210.507 166.007 154.013 
213.007 167.004 154.015 213.007 167.004 154.014 213.007 167.004 154.014 
213.007 167.004 154.014 213.007 167.004 154.014 213.007 167.005 154.015 
213.007 167.004 154.015 213.008 167.004 154.015 213.007 167.004 154.014 
213.007 167.005 154.015 213.007 167.004 154.015 207.002 162.511 155.015 
207.002 162.511 155.015 207.002 162.511 155.015 207.002 162.511 155.015 
207.002 162.511 155.015 207.002 162.511 155.015 207.002 162.511 155.015 
208.004 163.513 154.011 207.002 162.511 155.015 208.004 163.513 154.011 
209.004 165.013 154.009 210.785 167.867 155.271 210.756 167.857 155.268 
210.759 167.858 155.268 210.782 167.866 155.271 210.506 166.007 154.013 
210.507 166.007 154.013 210.798 167.871 155.272 210.773 167.863 155.27 
210.83 167.882 155.276 210.887 167.901 155.282 210.918 167.912 155.285 
213.007 167.004 154.015 213.007 167.004 154.015 213.007 167.004 154.015 
210.807 167.874 155.273 210.856 167.891 155.278 210.874 167.897 155.28 
211.062 167.96 155.3 211.033 167.95 155.297 211.229 168.016 155.317 
211.214 168.011 155.316 211.348 168.055 155.33 211.361 168.06 155.331 
211.427 168.082 155.338 211.454 168.091 155.341 211.49 168.103 155.344 
211.503 168.107 155.346 211.515 168.111 155.347 210.94 167.919 155.287 
211.075 167.964 155.301 211.231 168.017 155.318 211.314 168.044 155.326 
211.334 168.051 155.328 211.437 168.085 155.339 211.504 168.108 155.346 
211.515 168.111 155.347 211.404 168.074 155.336 211.478 168.099 155.343 
216.405 155.48 158.497 216.413 155.465 158.48 216.41 155.471 158.486 
216.384 155.516 158.536 216.389 155.51 158.529 216.379 155.527 158.547 
216.354 155.573 158.598 216.325 155.629 158.657 207.002 162.511 155.015 
207.002 162.511 155.015 210.772 167.863 155.27 210.814 167.877 155.274 
210.85 167.889 155.278 210.914 167.911 155.285 211.018 167.945 155.295 
211.158 167.992 155.31 211.243 168.021 155.319 211.369 168.062 155.332 
211.472 168.097 155.342 211.441 168.087 155.339 211.505 168.108 155.346 
211.198 168.006 155.314 211.313 168.044 155.326 211.496 168.105 155.345 
211.518 168.112 155.347 211.523 168.114 155.348 211.525 168.115 155.348 
211.377 168.065 155.333 211.441 168.087 155.339 211.499 168.106 155.345 
209.505 171.005 156.517 209.505 171.005 156.517 209.505 171.005 156.518 
209.505 171.005 156.517 209.505 171.005 156.517 209.505 171.005 156.517 
209.505 171.005 156.517 209.505 171.005 156.517 216.393 155.5 158.519 
216.334 155.601 158.628 216.351 155.572 158.598 216.303 155.658 158.693 
216.213 155.836 158.878 216.142 155.943 158.989 216.23 155.797 158.842 
216.109 156.032 159.09 216.012 156.214 159.276 203.521 163.371 158.777 
203.523 163.338 158.752 203.511 163.385 158.773 203.512 163.356 158.786 
203.506 163.491 158.826 203.446 163.515 158.862 203.493 163.451 158.89 
203.469 163.776 158.884 203.261 163.875 158.977 203.533 163.634 158.929 
203.6 164.316 159.027 203.37 165.567 159.036 211.279 168.033 155.323 
211.367 168.062 155.332 206.001 169.509 157.516 206.001 169.508 157.516 
206.001 169.509 157.516 206.001 169.509 157.516 211.379 168.066 155.333 
211.457 168.092 155.341 211.511 168.11 155.347 206.001 169.509 157.516 
206.001 169.509 157.516 206.001 169.509 157.516 215.401 170.639 159.588 
215.401 170.633 159.599 215.393 170.625 159.659 215.388 170.62 159.659 
215.367 170.595 159.796 206.001 169.509 157.516 209.505 171.005 156.518 
209.505 171.005 156.518 209.505 171.005 156.518 209.505 171.005 156.517 
215.371 170.628 159.785 207 172.009 157.517 207 172.009 157.517 
207 172.009 157.517 207 172.009 157.517 209.505 171.005 156.518 
209.505 171.005 156.518 212.508 172.001 157.016 212.508 172.001 157.016 
212.508 172.001 157.016 212.509 172.001 157.016 212.509 172.001 157.016 
212.509 172.001 157.016 212.509 172.001 157.016 212.509 172.001 157.017 
212.509 172.001 157.016 212.509 172.002 157.017 207 172.009 157.517 
212.508 172.001 157.016 212.509 172.001 157.016 212.509 172.001 157.017 
212.509 172.001 157.017 216.257 155.725 158.764 216.271 155.706 158.741 
216.27 155.707 158.746 215.973 156.158 159.225 215.924 156.365 159.45 
215.847 156.522 159.583 204.693 158.88 158.392 204.693 158.88 158.392 
204.693 158.88 158.392 204.694 158.88 158.392 204.693 158.88 158.392 
204.694 158.88 158.392 204.693 158.88 158.392 204.693 158.88 158.392 
204.694 158.88 158.392 204.694 158.88 158.392 203.014 163.255 159.527 
202.97 163.223 159.623 204.693 158.88 158.392 203.502 163.37 158.781 
203.079 163.241 159.599 204.694 158.88 158.392 203.062 163.395 159.42 
203.271 163.366 159.552 203.467 163.411 158.862 203.334 163.516 159.118 
203.509 163.592 159.108 202.522 164.093 159.417 203.652 164.131 159.128 
206.001 169.509 157.516 206.001 169.509 157.516 206.001 169.509 157.516 
206.001 169.509 157.516 206.001 169.509 157.516 215.339 170.649 159.789 
215.351 170.601 159.78 215.299 170.517 160.05 203.008 171.065 159.205 
203.416 170.514 159.474 206.001 169.509 157.516 209.505 171.005 156.518 
209.505 171.005 156.518 215.198 170.671 160.031 215.204 170.791 160.053 
[...]
POINT_DATA 3335
SCALARS scalars float
LOOKUP_TABLE default
1 1 1 1 1 1 1 1 1 
1 1 1 1 1 1 1 1 1 
1 1 1 1 1 1 1 1 1 
1 1 1 1 1 1 1 1 1 
1 1 1 1 1 1 1 1 1 
1 1 1 1 1 1 1 1 1 
1 1 1 1 1 1 1 1 1 
1 1 1 1 1 1 1 1 1 
1 1 1 1 1 1 1 1 1 
1 1 1 1 1 1 1 1 1 
1 1 1 1 1 1 1 1 1 
1 1 1 1 1 1 1 1 1 
1 1 1 1 1 1 1 1 1 
1 1 1 1 1 1 1 1 1 
1 1 1 1 1 1 1 1 1 
1 1 1 1 1 1 1 1 1 
1 1 1 1 1 1 1 1 1 
1 1 1 1 1 1 1 1 1 
1 1 1 1 1 1 1 1 1 
1 1 1 1 1 1 1 1 1 
1 1 1 1 1 1 1 1 1 
1 1 1 1 1 1 1 1 1 
1 1 1 1 1 1 1 1 1 
1 1 1 1 1 1 1 1 1 
1 1 1 1 1 1 1 1 1 
1 1 1 1 1 1 1 1 1 
1 1 1 1 1 1 1 1 1 
1 1 1 1 1 1 1 1 1 
1 1 1 1 1 1 1 1 1 
1 1 1 1 1 1 1 1 1 
1 1 1 1 1 1 1 1 1 
1 1 1 1 1 1 1 1 1 
1 1 1 1 1 1 1 1 1 
1 1 1 1 1 1 1 1 1 
1 1 1 1 1 1 1 1 1 
1 1 1 1 1 1 1 1 1 
1 1 1 1 1 1 1 1 1 
1 1 1 1 1 1 1 1 1 
1 1 1 1 1 1 1 1 1 
1 1 1 1 1 1 1 1 1 
1 1 1 1 1 1 1 1 1 
1 1 1 1 1 1 1 1 1 
1 1 1 1 1 1 1 1 1 
1 1 1 1 1 1 1 1 1 
1 1 1 1 1 1 1 1 1 
1 1 1 1 1 1 1 1 1 
1 1 1 1 1 1 1 1 1 
1 1 1 1 1 1 1 1 1 
1 1 1 1 1 1 1 1 1 
1 1 1 1 1 1 1 1 1 
1 1 1 1 1 1 1 1 1 
1 1 1 1 1 1 1 1 1 
1 1 1 1 1 1 1 1 1 
1 1 1 1 1 1 1 1 1 
1 1 1 1 1 1 1 1 1 
1 1 1 1 1 1 1 1 1 
1 1 1 1 1 1 1 1 1 
1 1 1 1 1 1 1 1 1 
1 1 1 1 1 1 1 1 1 
1 1 1 1 1 1 1 1 1 
1 1 1 1 1 1 1 1 1 
1 1 1 1 1 1 1 1 1 
1 1 1 1 1 1 1 1 1 
1 1 1 1 1 1 1 1 1 
1 1 1 1 1 1 1 1 1 
1 1 1 1 1 1 1 1 1 
1 1 1 1 1 1 1 1 1 
1 1 1 1 1 1 1 1 1 
1 1 1 1 1 1 1 1 1 
1 1 1 1 1 1 1 1 1 
1 1 1 1 1 1 1 1 1 
1 1 1 1 1 1 1 1 1 
1 1 1 1 1 1 1 1 1 
1 1 1 1 1 1 1 1 1 
1 1 1 1 1 1 1 1 1 
1 1 1 1 1 1 1 1 1 
1 1 1 1 1 1 1 1 1 
1 1 1 1 1 1 1 1 1 
1 1 1 1 1 1 1 1 1 
1 1 1 1 1 1 1 1 1 
1 1 1 1 1 1 1 1 1 
1 1 1 1 1 1 1 1 1 
1 1 1 1 1 1 1 1 1 
1 1 1 1 1 1 1 1 1 
1 1 1 1 1 1 1 1 1 
1 1 1 1 1 1 1 1 1 
1 1 1 1 1 1 1 1 1 
1 1 1 1 1 1 1 1 1 
1 1 1 1 1 1 1 1 1 
1 1 1 1 1 1 1 1 1 
1 1 1 1 1 1 1 1 1 
1 1 1 1 1 1 1 1 1 
1 1 1 1 1 1 1 1 1 
1 1 1 1 1 1 1 1 1 
1 1 1 1 1 1 1 1 1 
1 1 1 1 1 1 1 1 1 
1 1 1 1 1 1 1 1 1 
1 1 1 1 1 1 1 1 1 
1 1 1 1 1 1 1 1 1 
1 1 1 1 1 1 1 1 1 
1 1 1 1 1 1 1 1 1 
1 1 1 1 1 1 1 1 1 
1 1 1 1 1 1 1 1 1 
1 1 1 1 1 1 1 1 1 
1 1 1 1 1 1 1 1 1 
1 1 1 1 1 1 1 1 1 
1 1 1 1 1 1 1 1 1 
1 1 1 1 1 1 1 1 1 
1 1 1 1 1 1 1 1 1 
1 1 1 1 1 1 1 1 1 
1 1 1 1 1 1 1 1 1 
1 1 1 1 1 1 1 1 1 
1 1 1 1 1 1 1 1 1 
1 1 1 1 1 1 1 1 1 
1 1 1 1 1 1 1 1 1 
1 1 1 1 1 1 1 1 1 
1 1 1 1 1 1 1 1 1 
1 1 1 1 1 1 1 1 1 
1 1 1 1 1 1 1 1 1 
1 1 1 1 1 1 1 1 1 
1 1 1 1 1 1 1 1 1 
1 1 1 1 1 1 1 1 1 
1 1 1 1 1 1 1 1 1 
1 1 1 1 1 1 1 1 1 
1 1 1 1 1 1 1 1 1 
1 1 1 1 1 1 1 1 1 
1 1 1 1 1 1 1 1 1 
1 1 1 1 1 1 1 1 1 
1 1 1 1 1 1 1 1 1 
1 1 1 1 1 1 1 1 1 
1 1 1 1 1 1 1 1 1 
1 1 1 1 1 1 1 1 1 
1 1 1 1 1 1 1 1 1 
1 1 1 1 1 1 1 1 1 
1 1 1 1 1 1 1 1 1 
1 1 1 1 1 1 1 1 1 
1 1 1 1 1 1 1 1 1 
1 1 1 1 1 1 1 1 1 
1 1 1 1 1 1 1 1 1 
1 1 1 1 1 1 1 1 1 
1 1 1 1 1 1 1 1 1 
1 1 1 1 1 1 1 1 1 
1 1 1 1 1 1 1 1 1 
1 1 1 1 1 1 1 1 1 
1 1 1 1 1 1 1 1 1 
1 1 1 1 1 1 1 1 1 
1 1 1 1 1 1 1 1 1 
1 1 1 1 1 1 1 1 1 
1 1 1 1 1 1 1 1 1 
1 1 1 1 1 1 1 1 1 
1 1 1 1 1 1 1 1 1 
1 1 1 1 1 1 1 1 1 
1 1 1 1 1 1 1 1 1 
1 1 1 1 1 1 1 1 1 
1 1 1 1 1 1 1 1 1 
1 1 1 1 1 1 1 1 1 
1 1 1 1 1 1 1 1 1 
1 1 1 1 1 1 1 1 1 
1 1 1 1 1 1 1 1 1 
1 1 1 1 1 1 1 1 1 
1 1 1 1 1 1 1 1 1 
1 1 1 1 1 1 1 1 1 
1 1 1 1 1 1 1 1 1 
1 1 1 1 1 1 1 1 1 
1 1 1 1 1 1 1 1 1 
1 1 1 1 1 1 1 1 1 
1 1 1 1 1 1 1 1 1 
1 1 1 1 1 1 1 1 1 
1 1 1 1 1 1 1 1 1 
1 1 1 1 1 1 1 1 1 
1 1 1 1 1 1 1 1 1 
1 1 1 1 1 1 1 1 1 
1 1 1 1 1 1 1 1 1 
1 1 1 1 1 1 1 1 1 
1 1 1 1 1 1 1 1 1 
1 1 1 1 1 1 1 1 1 
1 1 1 1 1 1 1 1 1 
1 1 1 1 1 1 1 1 1 
1 1 1 1 1 1 1 1 1 
1 1 1 1 1 1 1 1 1 
1 1 1 1 1 1 1 1 1 
1 1 1 1 1 1 1 1 1 
1 1 1 1 1 1 1 1 1 
1 1 1 1 1 1 1 1 1 
1 1 1 1 1 1 1 1 1 
1 1 1 1 1 1 1 1 1 
1 1 1 1 1 1 1 1 1 
1 1 1 1 1 1 1 1 1 
1 1 1 1 1 1 1 1 1 
1 1 1 1 1 1 1 1 1 
1 1 1 1 1 1 1 1 1 
1 1 1 1 1 1 1 1 1 
1 1 1 1 1 1 1 1 1 
1 1 1 1 1 1 1 1 1 
1 1 1 1 1 1 1 1 1 
1 1 1 1 1 1 1 1 1 
1 1 1 1 1 1 1 1 1 
1 1 1 1 1 1 1 1 1 
1 1 1 1 1 1 1 1 1 
1 1 1 1 1 1 1 1 1 
1 1 1 1 1 1 1 1 1 
1 1 1 1 1 1 1 1 1 
1 1 1 1 1 1 1 1 1 
1 1 1 1 1 1 1 1 1 
1 1 1 1 1 1 1 1 1 
1 1 1 1 1 1 1 1 1 
1 1 1 1 1 1 1 1 1 
1 1 1 1 1 1 1 1 1 
1 1 1 1 1 1 1 1 1 
1 1 1 1 1 1 1 1 1 
1 1 1 1 1 1 1 1 1 
1 1 1 1 1 1 1 1 1 
1 1 1 1 1 1 1 1 1 
1 1 1 1 1 1 1 1 1 
1 1 1 1 1 1 1 1 1 
1 1 1 1 1 1 1 1 1 
1 1 1 1 1 1 1 1 1 
1 1 1 1 1 1 1 1 1 
1 1 1 1 1 1 1 1 1 
1 1 1 1 1 1 1 1 1 
1 1 1 1 1 1 1 1 1 
1 1 1 1 1 1 1 1 1 
1 1 1 1 1 1 1 1 1 
1 1 1 1 1 1 1 1 1 
1 1 1 1 1 1 1 1 1 
1 1 1 1 1 1 1 1 1 
1 1 1 1 1 1 1 1 1 
1 1 1 1 1 1 1 1 1 
1 1 1 1 1 1 1 1 1 
1 1 1 1 1 1 1 1 1 
1 1 1 1 1 1 1 1 1 
1 1 1 1 1 1 1 1 1 
1 1 1 1 1 1 1 1 1 
1 1 1 1 1 1 1 1 1 
1 1 1 1 1 1 1 1 1 
1 1 1 1 1 1 1 1 1 
1 1 1 1 1 1 1 1 1 
1 1 1 1 1 1 1 1 1 
1 1 1 1 1 1 1 1 1 
1 1 1 1 1 1 1 1 1 
1 1 1 1 1 1 1 1 1 
1 1 1 1 1 1 1 1 1 
1 1 1 1 1 1 1 1 1 
1 1 1 1 1 1 1 1 1 
1 1 1 1 1 1 1 1 1 
1 1 1 1 1 1 1 1 1 
1 1 1 1 1 1 1 1 1 
1 1 1 1 1 1 1 1 1 
1 1 1 1 1 1 1 1 1 
1 1 1 1 1 1 1 1 1 
1 1 1 1 1 1 1 1 1 
1 1 1 1 1 1 1 1 1 
1 1 1 1 1 1 1 1 1 
1 1 1 1 1 1 1 1 1 
1 1 1 1 1 1 1 1 1 
1 1 1 1 1 1 1 1 1 
1 1 1 1 1 1 1 1 1 
1 1 1 1 1 1 1 1 1 
1 1 1 1 1 1 1 1 1 
1 1 1 1 1 1 1 1 1 
1 1 1 1 1 1 1 1 1 
1 1 1 1 1 1 1 1 1 
1 1 1 1 1 1 1 1 1 
1 1 1 1 1 1 1 1 1 
1 1 1 1 1 1 1 1 1 
1 1 1 1 1 1 1 1 1 
1 1 1 1 1 1 1 1 1 
1 1 1 1 1 1 1 1 1 
1 1 1 1 1 1 1 1 1 
1 1 1 1 1 1 1 1 1 
1 1 1 1 1 1 1 1 1 
1 1 1 1 1 1 1 1 1 
1 1 1 1 1 1 1 1 1 
1 1 1 1 1 1 1 1 1 
1 1 1 1 1 1 1 1 1 
1 1 1 1 1 1 1 1 1 
1 1 1 1 1 1 1 1 1 
1 1 1 1 1 1 1 1 1 
1 1 1 1 1 1 1 1 1 
1 1 1 1 1 1 1 1 1 
1 1 1 1 1 1 1 1 1 
1 1 1 1 1 1 1 1 1 
1 1 1 1 1 1 1 1 1 
1 1 1 1 1 1 1 1 1 
1 1 1 1 1 1 1 1 1 
1 1 1 1 1 1 1 1 1 
1 1 1 1 1 1 1 1 1 
1 1 1 1 1 1 1 1 1 
1 1 1 1 1 1 1 1 1 
1 1 1 1 1 1 1 1 1 
1 1 1 1 1 1 1 1 1 
1 1 1 1 1 1 1 1 1 
1 1 1 1 1 1 1 1 1 
1 1 1 1 1 1 1 1 1 
1 1 1 1 1 1 1 1 1 
1 1 1 1 1 1 1 1 1 
1 1 1 1 1 1 1 1 1 
1 1 1 1 1 1 1 1 1 
1 1 1 1 1 1 1 1 1 
1 1 1 1 1 1 1 1 1 
1 1 1 1 1 1 1 1 1 
1 1 1 1 1 1 1 1 1 
1 1 1 1 1 1 1 1 1 
1 1 1 1 1 1 1 1 1 
1 1 1 1 1 1 1 1 1 
1 1 1 1 1 1 1 1 1 
1 1 1 1 1 1 1 1 1 
1 1 1 1 1 1 1 1 1 
1 1 1 1 1 1 1 1 1 
1 1 1 1 1 1 1 1 1 
1 1 1 1 1 1 1 1 1 
1 1 1 1 1 1 1 1 1 
1 1 1 1 1 1 1 1 1 
1 1 1 1 1 1 1 1 1 
1 1 1 1 1 1 1 1 1 
1 1 1 1 1 1 1 1 1 
1 1 1 1 1 1 1 1 1 
1 1 1 1 1 1 1 1 1 
1 1 1 1 1 1 1 1 1 
1 1 1 1 1 1 1 1 1 
1 1 1 1 1 1 1 1 1 
1 1 1 1 1 1 1 1 1 
1 1 1 1 1 1 1 1 1 
1 1 1 1 1 1 1 1 1 
1 1 1 1 1 1 1 1 1 
1 1 1 1 1 1 1 1 1 
1 1 1 1 1 1 1 1 1 
1 1 1 1 1 1 1 1 1 
1 1 1 1 1 1 1 1 1 
1 1 1 1 1 1 1 1 1 
1 1 1 1 1 1 1 1 1 
1 1 1 1 1 1 1 1 1 
1 1 1 1 1 1 1 1 1 
1 1 1 1 1 1 1 1 1 
1 1 1 1 1 1 1 1 1 
1 1 1 1 1 1 1 1 1 
1 1 1 1 1 1 1 1 1 
1 1 1 1 1 1 1 1 1 
1 1 1 1 1 1 1 1 1 
1 1 1 1 1 1 1 1 1 
1 1 1 1 1 1 1 1 1 
1 1 1 1 1 1 1 1 1 
1 1 1 1 1 1 1 1 1 
1 1 1 1 1 1 1 1 1 
1 1 1 1 1 1 1 1 1 
1 1 1 1 1 1 1 1 1 
1 1 1 1 1 1 1 1 1 
1 1 1 1 1 1 1 1 1 
1 1 1 1 1 1 1 1 1 
1 1 1 1 1 1 1 1 1 
1 1 1 1 1 1 1 1 1 
1 1 1 1 1 1 1 1 1 
1 1 1 1 1 1 1 1 1 
1 1 1 1 1 1 1 1 1 
1 1 1 1 1 1 1 1 1 
1 1 1 1 1 1 1 1 1 
1 1 1 1 1 1 1 1 1 
1 1 1 1 1 1 1 1 1 
1 1 1 1 1 1 1 1 1 
1 1 1 1 1 1 1 1 1 
1 1 1 1 1 1 1 1 1 
1 1 1 1 1 1 1 1 1 
1 1 1 1 1 1 1 1 1 
1 1 1 1 1 1 1 1 1 
1 1 1 1 1 1 1 1 1 
1 1 1 1 1 1 1 1 1 
1 1 1 1 1 1 1 1 1 
1 1 1 1 1 1 1 1 1 
1 1 1 1 1 1 1 1 1 
1 1 1 1 1 1 1 1 1 
1 1 1 1 1 
NORMALS Normals float
-0.23088 0.773416 -0.590358 0.444647 0.390731 0.805989 -0.115251 0.697255 -0.707498 
0.320768 -0.312574 0.894095 -0.379728 0.243938 -0.892357 -0.208173 0.358972 -0.909837 
-0.268658 0.468501 -0.841623 -0.234404 -0.400894 -0.885629 -0.522728 -0.798971 0.297322 
-0.977266 -0.0138878 -0.211561 0.538522 0.435054 -0.721611 0.546679 -0.758053 -0.355665 
0.975953 0.158677 0.149457 -0.29942 0.263968 -0.91688 -0.299679 0.804855 -0.51225 
0.274533 0.864475 0.421088 0.285378 -0.462478 0.839449 0.536419 0.34923 0.768305 
0.254415 -0.448172 0.85698 -0.176232 0.238993 -0.954895 -0.230679 0.0829137 -0.969491 
-0.23786 0.0432415 -0.970336 -0.223795 0.222334 -0.948938 -0.247804 0.24379 -0.937635 
-0.238742 0.177252 -0.954769 -0.234794 0.20325 -0.950558 -0.23413 0.17438 -0.956438 
-0.594111 0.417683 0.68744 0.294547 -0.319794 0.900541 -0.266968 0.0942415 -0.959086 
-0.277875 0.169666 -0.945515 -0.2699 0.163349 -0.948932 -0.239644 0.124138 -0.962892 
0.0647428 -0.719177 0.691805 0.0165096 -0.693309 0.720451 0 -0.707107 0.707107 
0.0933 -0.7464 0.658925 0.0228708 -0.708364 0.705476 -0.152129 -0.634171 0.758079 
0.0176298 0.687587 -0.725888 0.0670136 0.646824 -0.759689 0.286973 -0.346784 0.892966 
0.218846 -0.119341 0.968434 0.188563 -0.0972708 0.977232 0.290769 -0.0577728 0.955047 
0.247971 0.0587924 0.966982 0.268192 -0.221022 0.937669 0.242532 -0.201733 0.948937 
-0.22097 0.135352 -0.965843 0.15844 0.158814 -0.974513 -0.45011 0.887877 -0.0952636 
-0.0885422 0.56553 -0.819961 -0.227885 0.729916 -0.644431 -0.279689 0.785108 -0.552612 
-0.508865 0.7857 0.351756 0.231734 0.0184246 -0.972605 0.0193212 0.392264 -0.91965 
0.487402 -0.868143 -0.0936282 -0.369892 0.858145 -0.356043 -0.0350469 0.477765 -0.877788 
-0.031993 -0.674027 0.738013 0.403951 -0.876579 0.261597 -0.0340254 -0.665165 0.745921 
-0.0816779 -0.652752 0.753156 -0.13551 -0.629545 0.765055 -0.345706 0.841676 -0.414812 
-0.457804 0.886768 -0.0637062 -0.232086 0.733069 -0.639333 -0.362347 0.853205 -0.375161 
0.409793 -0.371226 -0.833223 0.507122 -0.820889 -0.262617 -0.378311 0.863372 -0.33387 
0.105212 0.626728 -0.772103 -0.351857 0.845273 -0.402132 -0.415289 0.881264 -0.22563 
0.212922 0.0570389 0.975403 -0.201909 -0.0707804 0.976843 0.248362 -0.752121 0.610434 
0.380633 -0.866416 0.323176 0.504271 -0.825352 -0.253979 -0.354432 0.235408 0.904965 
0 -0.707107 0.707107 -0.456357 0.385326 0.802036 -0.287547 -0.0998276 0.95255 
-0.422492 0.25748 0.869025 -0.393752 0.174399 0.902521 -0.169715 -0.337084 0.926051 
-0.450859 0.881456 0.140577 0.481381 -0.820901 -0.307235 0.496601 -0.731921 -0.466562 
0.331021 -0.911885 0.242674 0.446875 -0.886693 -0.118654 0.0892913 -0.557677 0.825241 
0.397445 -0.874204 0.278937 -0.38829 0.869762 -0.30454 0.509921 -0.786159 -0.349192 
0.0947914 0.287225 -0.953161 0.512793 -0.714625 -0.475768 0.167021 -0.803121 0.571927 
0.219117 0.241904 -0.945236 -0.145593 0.781817 -0.606271 -0.171289 0.807271 -0.564777 
-0.181476 0.816582 -0.547961 -0.125072 0.761317 -0.636203 0.069494 -0.529673 0.84535 
-0.298109 0.807764 -0.508575 -0.0369887 0.656656 -0.753282 -0.0305235 0.648858 -0.760297 
0.362733 -0.0856768 -0.927946 0.231252 -0.858211 0.458254 0.200885 -0.833969 0.513947 
0.133826 -0.76981 0.624086 -0.287726 0.792883 -0.53717 0.240388 -0.751256 0.614677 
-0.499732 0.68129 0.534894 -0.403203 0.1948 0.894137 -0.28991 -0.0972589 0.952099 
0.380489 -0.917644 0.114707 0.117245 -0.752284 0.648323 0.295212 -0.896582 0.330136 
-0.37967 0.917532 -0.118264 -0.384375 0.917194 -0.104933 -0.417248 0.908786 0.00352106 
-0.0983346 0.732646 -0.673469 0.329176 0.00580168 -0.944251 0.405839 -0.200096 -0.891771 
-0.363666 0.916903 -0.164424 -0.278421 0.888116 -0.365692 -0.48916 0.546988 0.679358 
-0.419198 0.239173 0.875825 -0.234404 -0.400894 -0.885629 -0.522728 -0.798971 0.297322 
-0.977266 -0.0138878 -0.211561 0.538522 0.435054 -0.721611 0.546679 -0.758053 -0.355665 
0.975953 0.158677 0.149457 -0.299679 0.804855 -0.51225 0.274533 0.864475 0.421088 
0 0 -1 -0.894427 -0.447214 0 -1 0 0 
1 0 0 0 0.447214 -0.894427 -0.341868 0.026003 0.939388 
0.463482 -0.409786 -0.785659 -0.033597 -0.556813 0.829958 -0.440954 0.322009 0.837777 
-0.361347 0.0775357 0.929202 -0.187555 -0.306821 0.933105 -0.594111 0.417683 0.68744 
0.294547 -0.319794 0.900541 0 0 -1 -0.894427 -0.447214 0 
-1 0 0 1 0 0 0 0 1 
0 0.447214 -0.894427 0 0 -1 -0.894427 -0.447214 0 
-1 0 0 1 0 0 0 0.447214 -0.894427 
0 0 1 0 0 1 -0.413675 -0.503914 -0.75825 
-0.348732 -0.844179 0.407122 -0.988618 -0.150439 0.00175406 0.559038 -0.710954 -0.426639 
0.271621 0.484042 -0.83182 0.97254 0.230771 -0.0301863 -0.601684 0.673836 -0.42886 
0.257425 0.89335 0.368317 0 0 -1 -0.894427 -0.447214 0 
-1 0 0 1 0 0 0 0.447214 -0.894427 
-0.507444 0.369339 0.778517 0.561825 -0.301051 0.770533 0.249051 -0.94158 -0.226716 
-0.755663 -0.466228 -0.460006 0.497195 -0.0540065 -0.865956 0.917395 -0.302444 0.258679 
-0.521727 0.500221 -0.691072 -0.825935 0.0766295 0.558533 0.683636 0.620656 -0.383962 
0 0 1 -0.245467 0.941539 0.230759 0.278478 -0.81589 -0.506728 
-0.84904 0.22045 -0.480138 0.584325 0.584325 -0.563142 0.828126 -0.249695 0.501855 
-0.278241 0.788421 0.548611 -0.52033 -0.790143 0.32393 -0.984047 0.00527178 -0.177831 
-0.235052 -0.428766 -0.872302 0.552219 0.43854 -0.709039 0.568036 -0.739216 -0.361795 
0.988882 0.0700496 0.131169 -0.295092 0.799503 -0.523179 0.328206 0.788338 0.520389 
-0.486764 -0.825843 0.284682 -0.936067 -0.222497 -0.272533 -0.0106113 -0.502609 -0.864449 
0.326382 0.360282 -0.873883 0.306752 -0.899295 -0.311722 0.445548 0.866152 -0.226423 
0.814873 -0.276394 -0.509498 0.915048 0.219675 0.338276 -0.47607 0.681207 -0.55616 
-0.365134 0.855548 0.367034 -0.00473673 0.423452 0.905906 0.371583 -0.315793 -0.873041 
-0.126854 -0.973309 -0.191252 -0.839983 -0.15479 -0.520066 0.66398 -0.629553 0.403476 
-0.361439 0.639874 -0.678176 -0.757281 0.419276 0.500732 0.887599 0.405626 -0.218255 
-0.265577 -0.649616 0.712368 0.0808986 0.959786 0.268825 0.399898 0.249594 0.881921 
-0.552062 -0.599669 0.579332 -0.254909 0.504218 0.825097 -0.274952 0.583713 0.76399 
-0.33155 0.90564 0.264367 -0.127923 0.0753132 0.98892 -0.6212 0.297246 0.72509 
0.310262 -0.51638 0.798179 -0.308291 0.946883 -0.0914804 0.285279 -0.624713 -0.726877 
0.0238433 -0.360352 0.932512 -0.256979 0.511988 0.819652 0.0778248 -0.499726 0.86268 
-0.831413 0.242718 0.49984 -0.347043 -0.402983 0.846856 0.475665 -0.673739 0.565525 
0.236142 -0.434727 -0.869051 0.118206 -0.0449738 -0.99197 0.0849769 0.0553529 -0.994844 
0.0683618 -0.476809 0.876345 0.0693513 -0.479307 0.874903 -0.134522 0.639598 -0.756847 
0.0663219 -0.471977 0.879113 -0.323667 0.834242 0.446407 -0.135388 0.641208 -0.755329 
-0.202185 0.788643 -0.580657 -0.214919 0.814906 -0.538274 -0.151082 0.679356 -0.718087 
-0.166069 0.713906 -0.680264 -0.130803 0.633743 -0.762404 0.108955 -0.0163844 -0.993912 
-0.0531736 0.437789 -0.897504 -0.0880971 0.526776 -0.845426 -0.180086 0.740633 -0.647327 
-0.0382985 0.400182 -0.915635 -0.0796717 0.506414 -0.858602 -0.0947363 0.543463 -0.83407 
-0.0854245 0.522612 -0.84828 -0.0769061 0.499742 -0.862753 -0.127058 0.622472 -0.77226 
0.635739 -0.390709 0.665719 0.183381 -0.685553 0.704549 0.39385 0.75744 -0.520737 
-0.0168487 -0.744741 0.66714 0.898531 0.437169 0.0390614 -0.152806 0.682878 -0.714372 
0.5264 -0.477937 0.703192 0.140432 0.759409 -0.635277 -0.456961 -0.536689 0.709332 
0.410094 0.142226 0.900885 0.31524 -0.76402 -0.562936 0.0577496 0.134185 -0.989272 
0.110511 -0.0206037 -0.993661 -0.17388 0.724906 -0.666541 0.093436 -0.539128 0.837025 
-0.0628519 -0.121745 0.990569 0.0962204 -0.547194 0.831457 0.152101 -0.679768 0.717482 
0.148658 -0.672195 0.725297 0.0982069 -0.552468 0.827729 0.0945973 -0.546817 0.831891 
-0.310704 0.948202 -0.0661478 -0.323995 0.826648 0.460088 0.123464 -0.612359 0.78088 
-0.162001 0.700976 -0.694542 -0.147409 0.666902 -0.73042 -0.19784 0.778224 -0.596009 
-0.296664 0.941124 -0.162099 -0.133316 0.638015 -0.758395 -0.21168 0.80752 -0.550548 
-0.578432 -0.00829493 -0.815689 -0.616161 -0.604725 -0.504632 -0.817058 0.128472 -0.562059 
-0.0506815 0.140807 -0.988739 0.0126337 -0.599323 -0.800408 0.995664 -0.088685 -0.0280563 
-0.524061 0.604513 -0.599936 0.667699 0.741298 -0.0682282 -0.907226 -0.0721263 -0.414414 
-0.822441 0.111483 -0.557819 -0.570252 -0.736627 0.363584 0.0697168 -0.721523 0.688871 
0.849821 0.52257 -0.0687312 -0.0633783 0.697019 -0.714246 0.598464 -0.415466 0.685003 
0.817696 -0.154253 0.554599 0.812555 0.568527 -0.128576 0.99848 0.054688 -0.00690972 
0.995716 0.0871032 -0.0310241 -0.105567 0.374189 -0.921324 0.154151 -0.836973 0.525084 
0.708487 0.228766 -0.667617 -0.729575 -0.000808089 -0.683901 0.7992 -0.455489 0.392184 
0.154021 0.0879895 -0.984142 -0.60348 -0.27761 -0.747492 0.945382 -0.20785 -0.2511 
0.865314 0.0818493 -0.494503 0.682669 0.139542 -0.717281 -0.0586757 -0.133413 0.989322 
0.082182 -0.512377 0.854819 0.160075 0.0437211 -0.986136 -0.133698 -0.982856 -0.126961 
-0.683039 0.0544445 -0.72835 0.66717 -0.738662 -0.0962445 -0.0878093 -0.0451873 0.995112 
0.0611471 -0.459705 0.885964 0.14623 -0.664751 0.732614 -0.0921244 0.581769 -0.80812 
-0.637027 0.630616 -0.443306 0.621372 0.511883 -0.593189 -0.854352 -0.421707 -0.30372 
0.685734 -0.716889 -0.125853 0.950952 -0.293137 0.0987979 0.267019 -0.952803 -0.144453 
0.696995 -0.71501 -0.0543838 0.0613019 0.845475 -0.530485 -0.0807057 -0.742111 0.6654 
-0.97748 -0.208935 0.0296399 0.600881 -0.661976 0.448029 0.843587 0.143181 0.517552 
0.89471 0.445573 0.0309576 0.140425 -0.109796 -0.983985 -0.29653 -0.833524 -0.466163 
-0.694972 0.302182 -0.652457 0.873464 -0.419362 -0.247379 -0.74649 0.66517 -0.0173748 
0.386914 0.741292 0.548437 0.513374 -0.836902 -0.189846 0.578719 -0.797629 -0.169918 
-0.318119 -0.625547 0.712384 0.491203 -0.45534 -0.742553 0.410619 -0.825898 0.386374 
0.0410647 0.508002 -0.860376 0.694496 -0.689167 -0.2067 -0.304388 0.911858 -0.275432 
0.837654 -0.0490388 -0.543996 0.994041 0.108255 0.0127659 0.447768 0.793315 -0.4125 
-0.175175 0.047237 -0.983404 -0.544092 0.740111 -0.39522 -0.574963 0.73809 0.353044 
-0.158833 0.277125 0.947615 -0.902904 -0.399669 -0.158205 -0.585518 0.396586 -0.707027 
-0.605403 -0.728877 0.319728 -0.88114 -0.312641 -0.354751 0.822892 -0.158255 0.545715 
0.709094 0.641285 -0.293152 0.81427 -0.18573 -0.549972 -0.817303 0.216624 0.533937 
0 0 0 0.78558 -0.14089 -0.602506 -0.659621 0.751277 0.0219733 
0.632127 0.16161 -0.757824 0.707107 0 -0.707107 0.707107 0 -0.707107 
0.815489 -0.424658 -0.393247 0.773272 -0.160855 -0.613332 -0.217343 -0.751382 -0.623047 
-0.324212 -0.91632 -0.23504 0.591846 0.203139 -0.780034 -0.900617 -0.260758 -0.347697 
0.356964 -0.882551 -0.306072 -0.707107 0.707107 0 -0.204937 -0.664976 -0.718197 
0.386559 -0.874809 -0.29203 -0.614175 -0.774799 0.149915 -0.235917 -0.944663 -0.227934 
0.64497 -0.7638 0.0249725 -0.608208 -0.392214 -0.69011 0.980324 0.0206233 -0.196314 
0.0900704 -0.84458 0.527799 -0.644808 -0.578447 0.499622 0.589324 -0.501957 0.633037 
-0.681638 -0.0607699 0.729162 0.575928 0.813968 0.0759153 -0.706609 0.469177 -0.529695 
-0.619644 -0.704976 -0.345037 0.0737384 -0.935992 -0.344211 0.414913 -0.041622 -0.908909 
0.867403 -0.0731869 -0.492194 -0.20645 0.976071 0.0682884 -0.158285 0.131694 0.978572 
0.535384 -0.154153 0.830422 -0.774833 -0.00058821 -0.632166 -0.490511 0.470624 -0.733425 
-0.00460817 0.790591 -0.612327 0.970174 -0.241367 0.0224367 0.321537 -0.809896 0.490594 
-0.81872 -0.511599 0.260701 0.668455 0.386933 0.635178 -0.849102 0.513773 0.122732 
-0.571973 0.267987 0.775261 0.188039 -0.462788 0.866296 0.749727 -0.607696 0.261945 
0.230083 0.780513 -0.581259 -0.226891 0.708978 -0.667735 0.885735 0.438619 -0.151946 
-0.47612 0.754503 0.451703 0.54974 0.709582 -0.440771 0.150456 -0.157663 -0.975964 
0 0 -1 -0.83205 -0.5547 0 -1 0 2.78775e-08 
1 0 2.78775e-08 0.169155 0.00923859 -0.985546 0 0 -1 
-0.83205 -0.5547 0 -1 0 2.78775e-08 0 0.5547 -0.83205 
1 0 2.78775e-08 0.226615 -0.00537532 -0.97397 0 0.5547 -0.83205 
0.117839 -0.0299185 -0.992582 -0.105361 0.323688 -0.940279 0.0750288 0.166038 -0.983261 
-0.835582 0.0480454 -0.547261 -0.698595 -0.684547 0.208231 0 0 -1 
-0.894427 -0.447214 0 -1 0 0 1 0 0 
0.0112051 -0.992942 0.118071 -0.0588132 -0.766797 0.639189 0.207727 -0.83014 -0.517413 
0.0868688 -0.901977 0.422956 0.268045 -0.955441 0.123634 -0.598669 -0.773838 0.206811 