# vtk DataFile Version 4.2
vtk output
ASCII
DATASET POLYDATA
POINTS 2288 float
489.625 253.639 145.433 483.83 254.463 145.1 485.55 254.287 145.081 
484.416 254.747 145.069 486.303 254.906 145.222 419.73 213.992 145.614 
420.175 214.829 145.392 417.37 217.383 145.277 416.706 219.811 145.001 
492.323 253.467 146.301 492.159 253.218 146.298 492.444 253.26 146.409 
492.608 253.188 146.578 484.827 253.529 145.309 492.168 253.758 146.245 
473.2 254.602 146.028 474.573 255.091 145.901 480.007 255.036 145.446 
491.085 254.266 145.919 492.04 254.081 146.271 473.563 255.52 146.005 
491.382 254.499 146.16 475.425 256.063 146.039 480.451 256.144 145.677 
482.255 256.479 145.934 422.2 207.934 147.134 421.937 208.741 146.952 
421.467 209.97 146.692 421.009 211.465 146.336 421.657 210.432 146.57 
416.979 214.574 146.66 417.689 215.346 145.82 421.273 217.532 145.265 
414.805 219.117 145.991 417.236 222.569 144.796 420.285 222.262 144.82 
422.628 223.522 145.294 413.776 227.228 146.503 418.699 227.429 144.902 
413.778 229.335 146.569 468.098 253.996 146.494 492.946 253.013 147.157 
466.125 254.639 146.731 476.549 254.066 145.901 492.328 254.16 146.534 
466.879 255.447 146.9 473.268 255.838 146.145 489.099 255.278 145.94 
492.427 254.367 146.834 492.794 254.158 147.082 475.931 256.546 146.238 
490.134 255.422 146.551 423.738 198.803 148.38 423.584 198.416 148.518 
423.979 198.693 148.408 423.953 199.883 148.218 423.26 200.831 148.231 
422.994 200.309 148.456 422.65 201.852 148.453 423.927 201.44 148.064 
422.93 202.683 148.152 422.568 204.704 147.936 423.594 206.461 147.59 
421.043 208.354 147.379 420.495 208.567 147.634 423.348 208.313 147.269 
422.109 213.758 146.021 413.947 218.665 147.342 423.603 222.939 145.639 
424.141 224.442 145.711 412.983 225.491 147.349 423.494 228.412 145.379 
413.567 232.938 147.285 418.063 239.305 146.366 416.47 241.22 147.468 
420.602 244.629 146.988 426.539 245.076 146.364 420.143 245.542 147.589 
427.394 246.885 146.831 422.053 246.115 147.356 424.718 247.227 147.524 
426.232 247.581 147.457 430.857 248.394 147.409 436.252 248.731 147.183 
436.433 249.189 147.453 489.806 251.992 146.263 491.181 251.843 146.654 
450.631 251.979 147.616 452.282 252.766 147.766 453.283 252.364 147.52 
457.967 252.754 147.343 484.97 252.638 145.756 493.317 253.22 147.828 
463.955 255.106 147.325 492.985 254.088 147.385 471.319 256.559 146.815 
491.121 255.485 147.245 467.432 256.448 147.552 472.487 257.082 147.102 
479.234 257.182 146.567 485.295 256.61 146.699 477.384 257.633 147.186 
481.221 257.411 147.123 423.826 196.675 149.272 423.639 196.822 149.215 
423.708 197.34 148.915 424.101 196.954 149.119 424.615 199.214 148.548 
422.676 200.042 148.832 424.758 205.37 148.094 421.151 206.887 147.877 
423.406 211.394 146.921 424.012 213.966 146.892 425.838 222.444 146.645 
412.426 230.331 148.445 413.912 235.845 147.82 415.089 235.869 146.866 
413.508 236.691 148.637 414.494 239.332 148.619 427.065 239.946 145.999 
416.157 242.159 148.342 417.142 243.949 148.637 418.963 245.674 148.43 
420.331 246.496 148.395 421.144 246.439 147.916 423.645 247.248 147.948 
425.285 247.671 147.893 444.15 249.669 147.485 445.448 249.117 147.315 
450.073 249.975 147.27 436.977 249.449 147.624 445.865 250.469 147.672 
442.532 250.615 148.081 492.169 251.905 147.095 492.949 251.517 148.046 
445.045 251.317 148.229 447.22 252.109 148.358 455.335 252.673 147.56 
449.28 253.053 148.625 451.659 253.114 148.085 458.312 254.508 148.063 
492.341 255.152 148.069 471.956 257.583 147.882 491.498 255.592 148.143 
423.778 196.424 149.537 423.594 196.253 149.736 423.434 196.319 149.747 
424.543 197.193 149.232 421.169 204.149 149.21 420.954 205.258 148.865 
419.906 207.614 148.872 425.321 207.142 148.327 417.01 212.078 149.059 
413.221 219.811 148.103 412.124 228.158 148.663 441.662 230.289 148.357 
412.325 231.529 149.157 433.007 232.011 146.736 413.034 234.353 148.511 
416.161 242.902 149.104 421.703 247.172 148.677 422.525 247.428 148.715 
424.03 247.816 148.904 427.679 248.468 148.447 428.169 248.606 148.628 
432.504 249.259 148.345 492.485 250.252 148.386 475.205 250.8 147.423 
441.486 251.194 148.966 445.583 252.14 148.916 449.342 253.427 149.042 
455.835 254.336 148.343 454.561 254.765 149.012 455.564 254.79 148.83 
457.558 255.004 148.596 457.355 255.314 149.013 461.233 256.038 148.942 
492.605 255.144 149.013 480.151 257.986 148.711 423.516 196.125 149.961 
425.178 196.273 150.382 425.629 196.678 150.571 414.853 215.417 149.336 
427.271 218.53 148.448 412.225 224.116 149.172 433.588 224.424 149.658 
448.258 231.488 148.805 412.6 234.431 149.761 462.919 235.946 148.981 
412.872 235.954 149.68 413.055 236.413 149.447 413.222 236.984 149.701 
415.838 242.462 149.704 416.544 243.575 149.418 418.203 245.809 149.621 
418.348 245.913 149.626 464.09 246.918 148.07 421.029 247.151 149.128 
422.908 247.76 149.641 425.433 248.144 149.389 492.574 248.876 149.219 
428.566 248.692 148.938 436.544 250.097 149.101 444.147 251.985 149.382 
441.574 251.497 149.807 448.593 253.616 149.773 450.585 254.44 150.11 
455.328 255.531 149.921 493.417 254.365 149.704 461.926 256.681 150.012 
484.983 257.151 149.302 485.707 256.993 148.534 491.749 255.651 149.534 
468.495 257.791 149.503 476.899 258.585 149.566 423.951 195.236 151.257 
425.012 195.775 150.835 425.404 196.323 150.582 426.961 202.226 149.956 
428.996 220.157 149.223 429.853 220.846 149.548 411.774 226.765 149.943 
412.701 235.315 150.26 414.082 239.055 149.927 492.301 241.258 151.168 
492.448 240.371 151.414 493.262 241.04 151.792 490.505 242.342 150.41 
416.19 242.999 150.41 489.059 246.137 149.223 492.187 245.436 150.265 
492.927 245.129 150.779 493.422 244.522 151.286 418.238 245.831 149.768 
418.111 245.613 150.064 420.415 247.085 150.144 435.559 249.556 150.89 
445.51 252.689 150.494 494.216 252.666 150.614 447.753 253.499 150.386 
449.432 254.111 150.289 451.446 254.794 150.441 452.933 255.324 150.871 
457.958 256.058 150.126 487.095 256.646 150.707 456.767 256.166 150.944 
476.064 258.668 149.963 478.588 258.359 150.11 422.643 196.484 151.16 
419.781 205.593 151.131 427.22 208.045 149.962 449.481 227.636 150.98 
457.752 228.631 151.291 470.179 229.756 151.628 412.398 232.662 151.529 
492.748 234.435 152.452 493.506 234.716 152.832 414.911 240.375 150.977 
493.731 241.275 152.176 486.024 242.642 149.999 488.633 242.479 150.133 
493.919 243.543 151.967 417.641 244.882 150.99 421.918 247.533 150.634 
424.029 247.872 150.632 494.407 249.26 151.501 438.746 250.654 150.265 
494.536 251.14 151.447 484.355 256.897 151.805 455.316 255.931 151.04 
493.059 254.934 151.532 463.367 257.099 150.968 472.432 258.441 150.988 
475.367 258.65 151.009 423.7 194.735 152.716 424.774 194.97 152.218 
424.488 194.78 152.485 428.861 199.516 153.039 428.759 202.038 152.02 
413.084 218.862 151.735 411.756 225.77 151.833 493.705 229.087 154.147 
493.707 230.032 153.9 483 231.009 152.017 483 231.009 152.017 
483 231.009 152.017 483 231.009 152.017 483 231.009 152.017 
412.893 234.856 151.525 491.332 234.544 151.986 494.098 240.647 152.711 
416.59 242.941 151.866 417.76 244.258 152.381 440.551 250.649 152.348 
443.333 251.957 151.807 451.008 254.902 151.829 491.552 255.647 152.172 
493.708 254.14 152.173 461.083 256.858 151.949 464.115 257.241 152.157 
423.958 194.428 153.589 423.111 194.999 153.022 422.559 195.792 152.625 
428.462 198.382 153.178 412.336 221.7 152.02 463.941 227.357 152.822 
493.961 227.435 155.048 490.54 229.343 153.383 483 231.009 152.017 
494.638 232.277 154.331 494.985 248.449 153.312 446.953 253.181 153.038 
450.929 254.818 153.077 454.854 255.957 152.606 459.645 256.779 152.208 
461.646 256.884 152.521 423.592 194.447 154.249 418.812 206.785 154.144 
493.684 226.37 155.425 489.392 227.969 154.043 492.885 227.865 154.355 
424.113 246.32 154.078 456.686 256.164 153.324 466.792 257.451 153.294 
479.096 257.427 153.503 475.186 258.077 152.943 428.541 197.232 154.983 
412.4 223.499 154.712 495.311 231.822 155.409 495.352 244.604 155.286 
494.466 252.703 155.084 450.772 254.456 154.432 461.916 256.39 154.676 
477.174 257.34 154.217 423.52 194.419 155.314 431.047 199.477 156.563 
493.078 224.381 156.64 492.441 224.471 156.476 494.998 226.118 156.849 
495.529 237.735 156.248 421.103 244.641 155.034 490.479 254.899 156.221 
462.062 256.079 155.492 493.087 254.252 156.542 424.822 194.483 156.54 
427.017 195.411 156.791 429.338 197.374 156.782 433.013 200.851 157.881 
436.213 213.852 156.382 438.268 218.589 155.72 493.612 223.996 157.218 
492.68 223.555 157.377 413.146 226.569 156.164 448.225 252.6 156.409 
475.993 253.355 158.002 459.811 255.027 157.194 493.423 253.908 157.036 
422.967 194.991 156.905 423.81 194.745 157.662 424.473 194.592 157.35 
425.866 194.829 157.129 422.152 195.96 157.503 432.496 199.823 158.37 
413.745 219.039 157.189 449.621 221.168 157.255 494.465 223.426 158.45 
495.792 225.977 158.693 495.899 235.968 157.994 437.37 245.386 158.415 
472.382 250.037 159.766 472.191 249.875 159.901 472.238 250.169 159.903 
473.079 252.302 159.267 454.109 253.939 157.747 479.525 255.286 156.508 
480.278 254.483 157.259 423.101 195.261 158.877 425.003 194.739 158.235 
425.502 194.892 159.026 494.244 221.561 160.018 413.728 222.623 157.907 
434.831 244.477 158.739 438.395 245.906 158.25 472.054 248.238 160.316 
472.936 247.954 160.058 472.049 248.675 160.203 477.345 248.499 159.927 
495.307 248.686 158.851 479.556 249.873 160.026 472.047 249.663 160.085 
471.913 249.577 160.321 472.222 250.401 159.973 472.195 250.455 160.085 
472.467 251.052 159.953 472.676 251.656 159.844 472.535 252.675 159.549 
480.858 251.623 159.661 485.374 253.837 158.534 482.869 253.655 158.422 
482.634 254.216 157.706 493.348 253.72 157.972 423.582 195.106 159.584 
425.302 194.959 159.972 494.42 221.036 160.871 490.485 221.358 160.007 
[...]
POINT_DATA 2288
SCALARS scalars float
LOOKUP_TABLE default
1 1 1 1 1 1 1 1 1 
1 1 1 1 1 1 1 1 1 
1 1 1 1 1 1 1 1 1 
1 1 1 1 1 1 1 1 1 
1 1 1 1 1 1 1 1 1 
1 1 1 1 1 1 1 1 1 
1 1 1 1 1 1 1 1 1 
1 1 1 1 1 1 1 1 1 
1 1 1 1 1 1 1 1 1 
1 1 1 1 1 1 1 1 1 
1 1 1 1 1 1 1 1 1 
1 1 1 1 1 1 1 1 1 
1 1 1 1 1 1 1 1 1 
1 1 1 1 1 1 1 1 1 
1 1 1 1 1 1 1 1 1 
1 1 1 1 1 1 1 1 1 
1 1 1 1 1 1 1 1 1 
1 1 1 1 1 1 1 1 1 
1 1 1 1 1 1 1 1 1 
1 1 1 1 1 1 1 1 1 
1 1 1 1 1 1 1 1 1 
1 1 1 1 1 1 1 1 1 
1 1 1 1 1 1 1 1 1 
1 1 1 1 1 1 1 1 1 
1 1 1 1 1 1 1 1 1 
1 1 1 1 1 1 1 1 1 
1 1 1 1 1 1 1 1 1 
1 1 1 1 1 1 1 1 1 
1 1 1 1 1 1 1 1 1 
1 1 1 1 1 1 1 1 1 
1 1 1 1 1 1 1 1 1 
1 1 1 1 1 1 1 1 1 
1 1 1 1 1 1 1 1 1 
1 1 1 1 1 1 1 1 1 
1 1 1 1 1 1 1 1 1 
1 1 1 1 1 1 1 1 1 
1 1 1 1 1 1 1 1 1 
1 1 1 1 1 1 1 1 1 
1 1 1 1 1 1 1 1 1 
1 1 1 1 1 1 1 1 1 
1 1 1 1 1 1 1 1 1 
1 1 1 1 1 1 1 1 1 
1 1 1 1 1 1 1 1 1 
1 1 1 1 1 1 1 1 1 
1 1 1 1 1 1 1 1 1 
1 1 1 1 1 1 1 1 1 
1 1 1 1 1 1 1 1 1 
1 1 1 1 1 1 1 1 1 
1 1 1 1 1 1 1 1 1 
1 1 1 1 1 1 1 1 1 
1 1 1 1 1 1 1 1 1 
1 1 1 1 1 1 1 1 1 
1 1 1 1 1 1 1 1 1 
1 1 1 1 1 1 1 1 1 
1 1 1 1 1 1 1 1 1 
1 1 1 1 1 1 1 1 1 
1 1 1 1 1 1 1 1 1 
1 1 1 1 1 1 1 1 1 
1 1 1 1 1 1 1 1 1 
1 1 1 1 1 1 1 1 1 
1 1 1 1 1 1 1 1 1 
1 1 1 1 1 1 1 1 1 
1 1 1 1 1 1 1 1 1 
1 1 1 1 1 1 1 1 1 
1 1 1 1 1 1 1 1 1 
1 1 1 1 1 1 1 1 1 
1 1 1 1 1 1 1 1 1 
1 1 1 1 1 1 1 1 1 
1 1 1 1 1 1 1 1 1 
1 1 1 1 1 1 1 1 1 
1 1 1 1 1 1 1 1 1 
1 1 1 1 1 1 1 1 1 
1 1 1 1 1 1 1 1 1 
1 1 1 1 1 1 1 1 1 
1 1 1 1 1 1 1 1 1 
1 1 1 1 1 1 1 1 1 
1 1 1 1 1 1 1 1 1 
1 1 1 1 1 1 1 1 1 
1 1 1 1 1 1 1 1 1 
1 1 1 1 1 1 1 1 1 
1 1 1 1 1 1 1 1 1 
1 1 1 1 1 1 1 1 1 
1 1 1 1 1 1 1 1 1 
1 1 1 1 1 1 1 1 1 
1 1 1 1 1 1 1 1 1 
1 1 1 1 1 1 1 1 1 
1 1 1 1 1 1 1 1 1 
1 1 1 1 1 1 1 1 1 
1 1 1 1 1 1 1 1 1 
1 1 1 1 1 1 1 1 1 
1 1 1 1 1 1 1 1 1 
1 1 1 1 1 1 1 1 1 
1 1 1 1 1 1 1 1 1 
1 1 1 1 1 1 1 1 1 
1 1 1 1 1 1 1 1 1 
1 1 1 1 1 1 1 1 1 
1 1 1 1 1 1 1 1 1 
1 1 1 1 1 1 1 1 1 
1 1 1 1 1 1 1 1 1 
1 1 1 1 1 1 1 1 1 
1 1 1 1 1 1 1 1 1 
1 1 1 1 1 1 1 1 1 
1 1 1 1 1 1 1 1 1 
1 1 1 1 1 1 1 1 1 
1 1 1 1 1 1 1 1 1 
1 1 1 1 1 1 1 1 1 
1 1 1 1 1 1 1 1 1 
1 1 1 1 1 1 1 1 1 
1 1 1 1 1 1 1 1 1 
1 1 1 1 1 1 1 1 1 
1 1 1 1 1 1 1 1 1 
1 1 1 1 1 1 1 1 1 
1 1 1 1 1 1 1 1 1 
1 1 1 1 1 1 1 1 1 
1 1 1 1 1 1 1 1 1 
1 1 1 1 1 1 1 1 1 
1 1 1 1 1 1 1 1 1 
1 1 1 1 1 1 1 1 1 
1 1 1 1 1 1 1 1 1 
1 1 1 1 1 1 1 1 1 
1 1 1 1 1 1 1 1 1 
1 1 1 1 1 1 1 1 1 
1 1 1 1 1 1 1 1 1 
1 1 1 1 1 1 1 1 1 
1 1 1 1 1 1 1 1 1 
1 1 1 1 1 1 1 1 1 
1 1 1 1 1 1 1 1 1 
1 1 1 1 1 1 1 1 1 
1 1 1 1 1 1 1 1 1 
1 1 1 1 1 1 1 1 1 
1 1 1 1 1 1 1 1 1 
1 1 1 1 1 1 1 1 1 
1 1 1 1 1 1 1 1 1 
1 1 1 1 1 1 1 1 1 
1 1 1 1 1 1 1 1 1 
1 1 1 1 1 1 1 1 1 
1 1 1 1 1 1 1 1 1 
1 1 1 1 1 1 1 1 1 
1 1 1 1 1 1 1 1 1 
1 1 1 1 1 1 1 1 1 
1 1 1 1 1 1 1 1 1 
1 1 1 1 1 1 1 1 1 
1 1 1 1 1 1 1 1 1 
1 1 1 1 1 1 1 1 1 
1 1 1 1 1 1 1 1 1 
1 1 1 1 1 1 1 1 1 
1 1 1 1 1 1 1 1 1 
1 1 1 1 1 1 1 1 1 
1 1 1 1 1 1 1 1 1 
1 1 1 1 1 1 1 1 1 
1 1 1 1 1 1 1 1 1 
1 1 1 1 1 1 1 1 1 
1 1 1 1 1 1 1 1 1 
1 1 1 1 1 1 1 1 1 
1 1 1 1 1 1 1 1 1 
1 1 1 1 1 1 1 1 1 
1 1 1 1 1 1 1 1 1 
1 1 1 1 1 1 1 1 1 
1 1 1 1 1 1 1 1 1 
1 1 1 1 1 1 1 1 1 
1 1 1 1 1 1 1 1 1 
1 1 1 1 1 1 1 1 1 
1 1 1 1 1 1 1 1 1 
1 1 1 1 1 1 1 1 1 
1 1 1 1 1 1 1 1 1 
1 1 1 1 1 1 1 1 1 
1 1 1 1 1 1 1 1 1 
1 1 1 1 1 1 1 1 1 
1 1 1 1 1 1 1 1 1 
1 1 1 1 1 1 1 1 1 
1 1 1 1 1 1 1 1 1 
1 1 1 1 1 1 1 1 1 
1 1 1 1 1 1 1 1 1 
1 1 1 1 1 1 1 1 1 
1 1 1 1 1 1 1 1 1 
1 1 1 1 1 1 1 1 1 
1 1 1 1 1 1 1 1 1 
1 1 1 1 1 1 1 1 1 
1 1 1 1 1 1 1 1 1 
1 1 1 1 1 1 1 1 1 
1 1 1 1 1 1 1 1 1 
1 1 1 1 1 1 1 1 1 
1 1 1 1 1 1 1 1 1 
1 1 1 1 1 1 1 1 1 
1 1 1 1 1 1 1 1 1 
1 1 1 1 1 1 1 1 1 
1 1 1 1 1 1 1 1 1 
1 1 1 1 1 1 1 1 1 
1 1 1 1 1 1 1 1 1 
1 1 1 1 1 1 1 1 1 
1 1 1 1 1 1 1 1 1 
1 1 1 1 1 1 1 1 1 
1 1 1 1 1 1 1 1 1 
1 1 1 1 1 1 1 1 1 
1 1 1 1 1 1 1 1 1 
1 1 1 1 1 1 1 1 1 
1 1 1 1 1 1 1 1 1 
1 1 1 1 1 1 1 1 1 
1 1 1 1 1 1 1 1 1 
1 1 1 1 1 1 1 1 1 
1 1 1 1 1 1 1 1 1 
1 1 1 1 1 1 1 1 1 
1 1 1 1 1 1 1 1 1 
1 1 1 1 1 1 1 1 1 
1 1 1 1 1 1 1 1 1 
1 1 1 1 1 1 1 1 1 
1 1 1 1 1 1 1 1 1 
1 1 1 1 1 1 1 1 1 
1 1 1 1 1 1 1 1 1 
1 1 1 1 1 1 1 1 1 
1 1 1 1 1 1 1 1 1 
1 1 1 1 1 1 1 1 1 
1 1 1 1 1 1 1 1 1 
1 1 1 1 1 1 1 1 1 
1 1 1 1 1 1 1 1 1 
1 1 1 1 1 1 1 1 1 
1 1 1 1 1 1 1 1 1 
1 1 1 1 1 1 1 1 1 
1 1 1 1 1 1 1 1 1 
1 1 1 1 1 1 1 1 1 
1 1 1 1 1 1 1 1 1 
1 1 1 1 1 1 1 1 1 
1 1 1 1 1 1 1 1 1 
1 1 1 1 1 1 1 1 1 
1 1 1 1 1 1 1 1 1 
1 1 1 1 1 1 1 1 1 
1 1 1 1 1 1 1 1 1 
1 1 1 1 1 1 1 1 1 
1 1 1 1 1 1 1 1 1 
1 1 1 1 1 1 1 1 1 
1 1 1 1 1 1 1 1 1 
1 1 1 1 1 1 1 1 1 
1 1 1 1 1 1 1 1 1 
1 1 1 1 1 1 1 1 1 
1 1 1 1 1 1 1 1 1 
1 1 1 1 1 1 1 1 1 
1 1 1 1 1 1 1 1 1 
1 1 1 1 1 1 1 1 1 
1 1 1 1 1 1 1 1 1 
1 1 1 1 1 1 1 1 1 
1 1 1 1 1 1 1 1 1 
1 1 1 1 1 1 1 1 1 
1 1 1 1 1 1 1 1 1 
1 1 1 1 1 1 1 1 1 
1 1 1 1 1 1 1 1 1 
1 1 1 1 1 1 1 1 1 
1 1 1 1 1 1 1 1 1 
1 1 1 1 1 1 1 1 1 
1 1 1 1 1 1 1 1 1 
1 1 1 1 1 1 1 1 1 
1 1 1 1 1 1 1 1 1 
1 1 1 1 1 1 1 1 1 
1 1 1 1 1 1 1 1 1 
1 1 1 1 1 1 1 1 1 
1 1 
NORMALS Normals float
0.186083 -0.0754028 -0.979636 -0.108553 -0.232499 -0.96652 0.0521204 -0.21326 -0.975604 
-0.030349 0.0908898 -0.995398 0.109368 0.423142 -0.899439 -0.150394 -0.331134 -0.931521 
0.074292 -0.138329 -0.987596 -0.306538 -0.21012 -0.928377 -0.255485 -0.14201 -0.956327 
0.611248 0.0610194 -0.789083 0.327944 -0.321318 -0.888373 0.526254 -0.308468 -0.792404 
0.70051 -0.232428 -0.674732 -0.0359532 -0.328795 -0.943717 0.414765 0.148791 -0.897681 
-0.0934618 -0.098339 -0.990754 0.0423831 -0.0162929 -0.998969 -0.0408397 0.101553 -0.993992 
0.288004 0.314381 -0.904554 0.448593 0.465422 -0.762986 -0.0142875 0.331538 -0.943334 
0.373802 0.545577 -0.750078 0.125 0.191525 -0.973495 -0.0263655 0.506129 -0.862054 
0.189122 0.661352 -0.725842 -0.0737934 -0.367168 -0.927223 -0.0940767 -0.183173 -0.978569 
-0.177065 -0.192227 -0.965244 0.00929415 -0.271379 -0.962428 -0.13182 -0.186086 -0.973651 
-0.588212 -0.410751 -0.696628 -0.357309 -0.30976 -0.881124 0.235531 -0.102629 -0.966433 
-0.668093 -0.0963733 -0.73781 -0.126023 0.118794 -0.984889 0.158596 -0.0754702 -0.984455 
0.228755 0.132049 -0.964487 -0.57263 -0.0551531 -0.817957 -0.289104 0.106522 -0.951353 
-0.409425 0.14934 -0.900038 -0.157351 -0.0962602 -0.98284 0.827361 -0.149352 -0.541449 
-0.339618 0.191961 -0.920766 -0.0881761 -0.207774 -0.974195 0.628372 0.399121 -0.667721 
-0.233427 0.439096 -0.867587 -0.0630619 0.402435 -0.913274 0.208002 0.68169 -0.701451 
0.528176 0.705639 -0.472339 0.786702 0.323305 -0.525903 0.0933898 0.403247 -0.910313 
0.240315 0.777212 -0.581542 -0.0937454 -0.111157 -0.989372 -0.387786 -0.257294 -0.885111 
0.196904 -0.258934 -0.945612 -0.0984312 -0.106003 -0.989482 -0.430888 -0.064424 -0.900103 
-0.655652 -0.0767674 -0.751151 -0.492626 -0.125071 -0.861207 -0.030012 -0.0910752 -0.995392 
-0.423509 -0.183335 -0.887146 -0.313205 -0.246861 -0.91704 0.166757 -0.150035 -0.974516 
-0.442389 -0.531605 -0.72228 -0.522873 -0.361616 -0.771905 0.358675 -0.113091 -0.926586 
0.281628 -0.170451 -0.944263 -0.836249 -0.382224 -0.393183 0.346417 -0.109998 -0.931609 
0.258473 0.0511273 -0.964665 -0.747043 -0.0858701 -0.659206 0.193492 0.0982695 -0.976168 
-0.812848 0.0962283 -0.574472 -0.194116 0.086687 -0.977141 -0.526622 0.296174 -0.796838 
-0.228799 0.299182 -0.926359 -0.0161051 0.209588 -0.977657 -0.372236 0.518702 -0.769668 
-0.083502 0.369068 -0.925644 -0.205992 0.590294 -0.780461 -0.198328 0.734131 -0.649398 
-0.150239 0.683883 -0.713956 -0.0968709 0.800793 -0.591056 -0.114265 0.414028 -0.903064 
-0.423928 0.695075 -0.580651 0.120606 -0.527971 -0.840655 0.30393 -0.537659 -0.786479 
-0.0799065 0.416591 -0.905576 -0.110776 0.202573 -0.972981 -0.0777985 0.284993 -0.955367 
-0.117857 0.253345 -0.96017 0.0310628 -0.42205 -0.90604 0.945544 0.0681364 -0.318283 
-0.19591 0.218666 -0.955931 0.829414 0.434924 -0.35059 -0.162853 0.682964 -0.712066 
0.254987 0.922131 -0.290959 -0.215465 0.735024 -0.642896 -0.00233347 0.790621 -0.612302 
0.0124472 0.81047 -0.585648 0.133714 0.89172 -0.432383 -0.00110438 0.842873 -0.538111 
0.272963 0.877312 -0.394735 0.0642079 -0.655378 -0.752567 -0.562724 -0.439966 -0.699837 
-0.17215 -0.411342 -0.895077 0.189681 -0.477293 -0.858028 0.47028 -0.140125 -0.871322 
-0.746383 -0.172086 -0.642883 0.403275 -0.217185 -0.888932 -0.620839 -0.338552 -0.707065 
0.341128 -0.145246 -0.928728 0.42882 -0.0983803 -0.898017 0.419671 -0.131393 -0.898116 
-0.933277 0.101338 -0.344565 -0.748849 0.18025 -0.637758 -0.566379 0.219016 -0.794511 
-0.797107 0.292871 -0.528061 -0.76347 0.32811 -0.55629 0.0436204 0.0459973 -0.997989 
-0.735268 0.459038 -0.498663 -0.688892 0.555481 -0.465691 -0.523482 0.590633 -0.6141 
-0.409793 0.780036 -0.472878 -0.26389 0.684073 -0.680005 -0.219085 0.840126 -0.496176 
-0.212595 0.779245 -0.58956 -0.0143037 0.258998 -0.965772 -0.0716531 0.109268 -0.991426 
-0.0388126 0.18169 -0.98259 -0.128179 0.741809 -0.658247 -0.112173 0.441121 -0.89041 
-0.0748677 0.731992 -0.677187 0.502448 -0.527823 -0.684799 0.709861 -0.377777 -0.594459 
-0.117912 0.562496 -0.818349 -0.210715 0.596036 -0.774817 -0.152013 0.313273 -0.937418 
-0.111468 0.691966 -0.713273 -0.0867326 0.650073 -0.754906 -0.105824 0.68108 -0.724522 
0.598327 0.758741 -0.257522 -0.0267296 0.884597 -0.46559 0.29118 0.924299 -0.246751 
-0.00563466 -0.761616 -0.648004 -0.0844859 -0.792624 -0.603828 -0.644426 -0.580888 -0.497277 
0.493482 -0.437639 -0.75163 -0.818741 -0.261093 -0.511364 -0.724878 -0.278171 -0.630216 
-0.774233 -0.430954 -0.46351 0.46748 -0.0463236 -0.882789 -0.830939 -0.501705 -0.240484 
-0.905278 -0.218528 -0.364305 -0.939445 0.0984643 -0.328251 0.184763 -0.485529 -0.854473 
-0.936603 0.134791 -0.323428 0.0950555 -0.0764898 -0.992529 -0.835316 0.128176 -0.53462 
-0.827781 0.509919 -0.234013 -0.230069 0.871763 -0.432548 -0.25447 0.88558 -0.388579 
-0.20224 0.935312 -0.290328 -0.185146 0.977896 -0.0971659 -0.114782 0.929167 -0.351387 
-0.193005 0.979555 0.0567597 0.398513 -0.496979 -0.770844 0.0354268 -0.294744 -0.954919 
-0.0569514 0.894768 -0.442884 -0.208101 0.768017 -0.605676 -0.213748 0.770071 -0.601084 
-0.194962 0.582442 -0.789146 -0.1908 0.76848 -0.610765 -0.186338 0.724082 -0.664065 
-0.106971 0.642808 -0.758522 -0.0850128 0.814579 -0.573789 -0.213544 0.832405 -0.511372 
0.619019 0.784127 -0.044271 0.290233 0.956437 -0.0315244 -0.159149 -0.87132 -0.464191 
0.536864 -0.555759 -0.634751 0.745226 -0.409059 -0.526601 -0.846604 -0.478563 -0.232891 
0.440638 -0.0403015 -0.89678 -0.96313 -0.140572 -0.22939 0.38462 -0.420968 -0.821495 
0.00447182 -0.292894 -0.956134 -0.969112 0.109574 -0.220941 0.0548909 -0.242935 -0.968488 
-0.957126 0.274622 -0.0921532 -0.924576 0.261428 -0.277157 -0.930123 0.366985 -0.0139165 
-0.90973 0.414287 -0.0275133 -0.780691 0.620823 -0.071409 -0.720662 0.684108 -0.112433 
-0.424379 0.905028 -0.0287464 -0.0575808 -0.145948 -0.987615 -0.308354 0.89883 -0.311485 
-0.19957 0.964585 -0.172473 -0.0833787 0.995727 -0.0396954 0.440644 -0.426679 -0.789796 
-0.198368 0.980098 -0.00762436 -0.308095 0.91278 -0.268161 -0.29455 0.901796 -0.316234 
-0.210662 0.963061 -0.167733 -0.287412 0.898927 -0.330644 -0.294018 0.91413 -0.279141 
-0.189184 0.870982 -0.453431 0.819876 0.562782 -0.105254 -0.191056 0.964931 -0.180016 
0.18916 0.981851 -0.0136527 0.200552 0.969291 -0.142313 0.336599 0.941554 -0.0133031 
-0.190888 0.965801 -0.17547 0.0397577 0.961711 -0.271165 -0.340516 -0.857002 -0.386776 
0.447115 -0.73857 -0.504581 0.742397 -0.573862 -0.345729 0.566592 -0.220687 -0.793896 
0.475471 -0.231695 -0.848672 0.509526 -0.242584 -0.825552 -0.984175 0.0325788 -0.174181 
-0.955189 0.271624 0.117624 -0.889229 0.455709 -0.0400213 0.473614 -0.0546686 -0.879034 
0.523049 -0.262418 -0.810899 0.623677 -0.180089 -0.760654 0.254488 -0.302037 -0.9187 
-0.83809 0.534244 0.110403 0.233029 -0.412586 -0.880608 0.432582 -0.427533 -0.793781 
0.381986 -0.442428 -0.811384 0.633681 -0.250313 -0.731977 -0.424213 0.850146 0.311923 
-0.497182 0.792535 0.353127 -0.460965 0.882418 0.0940758 -0.294243 0.887145 0.355519 
-0.364563 0.917194 -0.160775 0.9564 0.284073 -0.0678285 -0.253258 0.965403 -0.0621074 
-0.322848 0.916481 -0.236287 -0.111872 0.969039 -0.22011 -0.213035 0.968737 -0.127142 
-0.109987 0.888731 -0.445038 0.225367 0.968042 0.110016 -0.142604 0.952313 -0.269749 
0.0765133 0.995909 0.0480735 0.175469 0.984325 -0.0177167 -0.826092 -0.427772 -0.366856 
-0.882306 -0.298412 -0.363986 0.650267 -0.0844129 -0.755002 -0.182255 -0.610973 -0.770387 
0.109126 -0.553181 -0.825883 0.0760023 -0.440094 -0.89473 -0.98903 0.101648 0.10718 
0.407337 -0.124499 -0.904752 0.499711 -0.018371 -0.865998 -0.800341 0.360667 0.478929 
0.742528 -0.139321 -0.655165 0.0145725 -0.4807 -0.876764 0.124547 -0.544484 -0.829472 
0.626449 -0.114933 -0.770943 -0.751467 0.646831 0.130029 -0.292782 0.94338 0.155925 
-0.084705 0.982143 0.167987 0.824636 -0.149984 -0.545417 -0.309548 0.9116 0.270491 
0.965572 -0.00448228 -0.260097 0.200682 0.94213 0.268547 -0.252817 0.935046 -0.248539 
0.525954 0.85014 0.0251759 -0.171419 0.974509 -0.144735 -0.0591851 0.998243 -0.00274122 
0.0962638 0.977464 0.187878 -0.364819 -0.861669 -0.35275 0.42129 -0.851959 -0.310933 
0.305959 -0.923757 -0.230351 0.790465 -0.37758 -0.482284 0.768744 -0.155178 -0.620445 
-0.925043 -0.37943 -0.0181252 -0.992351 0.0496032 0.113049 0.547354 -0.266662 -0.793281 
0.482433 -0.226313 -0.846192 0 -0.159641 -0.987175 0 -1 0 
-0.963361 -0.268207 4.13429e-08 0.963361 -0.268207 4.13429e-08 0 0.5547 -0.83205 
-0.916046 0.254722 0.309802 0.205201 -0.152371 -0.966786 0.73715 -0.146309 -0.6597 
-0.809348 0.464957 0.358847 -0.609109 0.663653 0.434224 -0.359202 0.869405 0.339277 
-0.388506 0.869527 0.304937 -0.374441 0.926664 -0.0329722 0.305925 0.938045 0.162731 
0.823391 0.566853 0.0265382 -0.144072 0.984352 -0.101457 -0.163259 0.983061 0.0832899 
-0.120957 -0.978631 -0.166288 -0.614862 -0.763138 -0.19891 -0.82689 -0.508019 -0.241183 
0.752912 -0.38259 -0.535489 -0.976345 -0.190765 0.101786 0.106026 -0.519564 -0.847827 
0.696926 -0.248367 -0.672761 0.0799495 -0.365742 -0.927276 0 -0.159641 0.987175 
0.771308 -0.0888917 -0.630223 0.995564 0.0604195 -0.0721239 -0.334741 0.937139 0.0985867 
-0.236926 0.96853 0.0762554 -0.233671 0.955269 0.181272 -0.145164 0.975189 0.167134 
0.101383 0.992226 0.0721745 -0.281246 -0.956669 -0.0753976 -0.928781 -0.367045 -0.0514092 
0.292774 -0.519458 -0.802775 -0.0971139 -0.581656 -0.807617 0.217185 -0.392272 -0.893842 
-0.109383 0.900594 0.420673 -0.171254 0.963809 0.204314 -0.0925141 0.986099 0.138023 
0.331414 0.885769 0.324928 0.00170608 0.912877 0.40823 0.715709 -0.639288 -0.281198 
-0.973526 -0.107115 0.201922 0.857696 -0.109712 -0.502316 0.959441 -0.0410059 -0.27891 
0.909032 0.414819 0.039834 -0.402004 0.886106 0.230669 0.111361 0.965093 0.237054 
0.0841968 0.826127 0.557158 -0.521622 -0.852807 0.0250944 0.766881 -0.438595 -0.468538 
0.189011 -0.658668 -0.728307 0.0279806 -0.669115 -0.742632 0.751026 -0.335089 -0.568925 
0.948411 -0.0780138 -0.307295 -0.456364 0.565517 0.686966 0.0147717 0.889887 0.455941 
0.0345082 0.91752 0.39619 0.526351 0.836405 0.152908 0.204812 -0.978764 -0.00856119 
0.505779 -0.861566 -0.0434877 0.71316 -0.633181 -0.300807 0.748338 -0.394595 -0.533184 
0.499029 -0.300089 -0.812968 0.336905 -0.432556 -0.836296 0.32325 -0.686884 -0.650923 
0.00846483 -0.754513 -0.656231 -0.82949 0.201863 0.520767 -0.437382 0.755811 0.487285 
0.073841 0.468792 0.880217 -0.117551 0.857162 0.501453 0.727715 0.675599 0.118308 
-0.500751 -0.854171 0.140146 -0.348533 -0.918664 0.18596 -0.060044 -0.988986 0.135281 
0.328791 -0.938314 0.107066 -0.801326 -0.596386 0.0469069 0.732952 -0.621621 -0.27635 
-0.938987 -0.174421 0.296446 0.0935987 -0.573055 -0.814155 0.642653 -0.529952 -0.553307 
0.941503 -0.127874 -0.311803 0.953183 -0.0232649 -0.301498 -0.207366 0.589658 0.780578 
0.286486 0.254593 0.923639 0.571523 0.170628 0.80265 0.85496 -0.148962 0.496844 
0.559655 0.121466 0.819776 -0.180316 0.833885 0.521652 0.131027 0.806756 0.576174 
-0.155145 0.674865 0.721448 -0.446941 -0.88856 0.103464 0.0599218 -0.984422 0.165293 
0.183307 -0.976723 0.111401 0.386675 -0.680486 -0.622432 -0.919857 -0.0745686 0.385101 
-0.196457 0.718679 0.667012 -0.274043 0.757598 0.592407 0.599664 0.296095 0.743459 
0.205657 0.298928 0.931852 0.474898 0.217676 0.852695 -0.206876 0.394143 0.895463 
0.956855 0.285731 0.0527872 -0.384669 0.518003 0.764004 0.754223 0.113775 0.646687 
0.91423 -0.100152 0.392623 0.909396 -0.204818 0.362006 0.951657 -0.272766 0.141235 
0.9332 -0.354477 0.0590261 0.997259 -0.0459926 0.0579545 0.724976 0.53498 0.433827 
-0.351366 0.628857 0.693599 0.0168927 0.744897 0.666966 -0.165041 0.80571 0.568852 
-0.08253 0.767186 0.636093 0.619202 0.71656 0.321141 -0.268138 -0.957103 0.109795 
0.164078 -0.979698 0.115195 0.590039 -0.623253 -0.513235 -0.0718079 -0.770097 -0.633872 
0.953584 -0.20065 -0.224538 0.905239 0.198272 0.375807 0.607335 0.33965 0.718179 
0.201616 0.476629 0.855673 -0.147234 0.576722 0.803563 0.141742 0.517537 0.843839 
-0.0650272 0.529288 0.845947 0.95772 0.152275 0.244099 -0.407203 0.455804 0.791473 
-0.629507 0.491329 0.601928 0.946688 0.0522781 -0.317882 0.963556 -0.00434503 0.26747 
0.959158 -0.279266 -0.0450177 0.959046 -0.273063 -0.0752793 -0.248152 0.825828 0.506388 
0.728888 0.611963 -0.306959 0.895001 -0.00823063 -0.445987 0.704186 -0.126526 -0.698651 
0.606433 0.310882 -0.731841 0.16013 0.775996 0.610073 0.10353 0.812602 0.57355 
0.190606 0.976561 0.0999926 0.235274 0.628619 0.741272 -0.138207 -0.510132 -0.84892 
-0.327121 -0.875307 0.356131 -0.983774 -0.16473 -0.0710865 0.401173 0.476326 -0.782415 
0.437565 -0.801031 -0.408517 0.985331 0.109899 0.130554 0.825136 0.460048 0.327882 
-0.259281 0.850789 -0.45709 0.119831 0.840731 0.528026 -0.745682 -0.664419 0.0500669 
0.63131 -0.76875 -0.102329 0.753575 -0.618302 -0.223222 -0.883391 -0.333628 0.329107 
-0.876736 -0.0960378 0.471286 0.357957 -0.759553 -0.54309 0.0831897 -0.776135 -0.625055 
0.68674 -0.596406 -0.415557 0.314846 0.423908 0.84922 0.316424 0.433363 0.843844 
0.885862 0.258429 0.385309 0.949356 -0.163875 -0.268084 0.886576 -0.131666 -0.443449 
0.906132 -0.363892 -0.215658 0.975315 0.153171 0.159055 0.830862 -0.376848 -0.409455 
0.892961 -0.338635 0.296558 0.545005 -0.358011 -0.758154 0.697215 -0.682285 -0.219952 
0.497123 -0.76128 -0.416319 -0.315843 0.655727 0.685759 -0.515387 0.584773 0.626431 
-0.249853 0.561684 0.788723 0.778597 0.520498 0.350525 0.307884 0.621777 -0.720139 
0.386999 -0.504752 -0.771658 -0.102353 0.979935 -0.171028 0.194604 -0.0762137 -0.977917 
0.265397 -0.375185 -0.888144 -0.281869 0.662475 0.694029 -0.290609 0.842469 0.453643 
-0.279108 0.659751 0.69773 -0.446186 0.780285 0.438263 -0.260886 0.798538 0.542472 
-0.188831 0.698855 0.689888 -0.145059 0.808938 0.569717 -0.478531 0.290731 0.828543 
-0.251755 0.45193 0.855792 0.175519 -0.529668 0.829847 -0.00582866 -0.367172 0.930135 
0.171783 -0.854697 -0.489881 -0.670207 0.395566 -0.627974 0.478624 0.617613 -0.624078 
0.670207 -0.395566 0.627974 0.147808 0.824944 0.545546 -0.171783 0.854697 0.489881 
0.569071 -0.607156 -0.554545 -0.960574 -0.278021 0.00137705 -0.89553 -0.32804 0.300693 
-0.831672 -0.256669 0.492384 0.433205 -0.743639 -0.509249 0.46799 -0.750228 -0.467058 
0.781192 -0.494857 -0.380598 -0.812344 0.0759762 0.578208 0.997446 0.0688533 -0.0189693 
0.787698 0.276014 0.550771 -0.426996 0.531485 0.731572 -0.7688 0.428247 0.474922 
-0.819737 0.408482 0.401465 -0.880434 0.473991 -0.0129878 -0.983578 0.154473 -0.093336 
0.61089 -0.217681 -0.761202 0.292347 -0.187117 -0.937828 0.760867 0.183683 -0.622368 
-0.751601 0.182185 -0.63396 -0.654305 -0.568775 -0.498378 -0.347025 0.0312317 -0.937336 