# vtk DataFile Version 4.2
vtk output
ASCII
DATASET POLYDATA
POINTS 945 float
312.698 123.007 209.327 312.662 122.939 209.365 312.733 122.977 209.361 
312.776 123.068 209.353 310 122.009 207.017 310 122.009 207.017 
310 122.009 207.017 310 122.009 207.017 310 122.009 207.017 
312.61 122.795 209.518 312.668 122.866 209.416 312.701 123.021 209.493 
312.938 123.095 209.429 312.909 123.211 209.44 314.591 125.333 209.384 
314.418 125.233 209.447 315.542 125.465 209.193 315.459 126.137 209.283 
316.124 126.411 209.122 315.588 126.499 209.438 315.938 126.924 209.556 
317.014 126.992 208.99 316.853 127.599 209.21 317.144 128.036 209.285 
317.209 128.186 209.457 317.53 128.382 209.29 317.811 128.493 209.171 
308.168 119.29 209.449 308.192 119.293 209.464 308.158 119.29 209.443 
308.239 119.295 209.494 308.225 119.294 209.485 309.495 119.587 210.055 
309.447 119.56 210.052 309.461 119.579 210.034 309.585 119.618 210.113 
309.787 119.676 210.26 327.654 121.172 210.744 327.599 120.936 210.798 
327.716 120.833 210.947 309.518 119.6 210.073 309.657 119.648 210.172 
310.004 121.013 208.009 310.004 121.013 208.009 310.004 121.013 208.009 
310.004 121.013 208.009 311.961 121.469 210.33 327.323 121.912 210.427 
310 122.009 207.017 310.004 121.013 208.009 312.62 122.418 209.787 
312.471 122.521 209.777 327.705 121.848 210.75 312.557 122.792 209.686 
313.35 123.461 209.509 313.183 123.548 209.617 313.485 123.987 209.931 
314.04 124.325 209.539 314.151 124.906 209.801 326.776 125.732 209.583 
326.549 126.051 209.482 327.027 126.687 209.752 316.383 127.413 209.685 
318.43 128.168 208.944 326.836 127.689 209.509 318.828 129.151 209.14 
326.464 128.315 209.398 326.766 127.957 209.476 320.308 129.797 209.123 
326.586 128.275 209.406 319.456 129.841 209.264 320.321 130.024 209.285 
319.717 129.98 209.202 308.245 119.297 209.495 308.176 119.292 209.453 
308.402 119.305 209.601 308.376 119.306 209.58 308.693 119.319 209.801 
308.69 119.322 209.8 309.066 119.301 210.121 309.733 119.495 210.399 
309.457 119.178 210.562 308.676 119.332 209.769 308.96 119.376 209.932 
309.452 119.566 210.06 309.365 119.49 210.107 310.377 119.966 210.508 
310.864 119.795 210.877 310.004 121.013 208.009 309.915 119.748 210.384 
311.086 120.597 210.554 310.635 120.219 210.766 311.878 121.698 210.66 
326.863 123.1 210.055 316.117 124.501 209.638 314.953 125.882 210.556 
320.469 128.297 209.044 323.9 128.043 209.236 326.872 127.625 209.639 
317.978 128.717 209.922 326.82 127.87 209.545 323.203 129.028 209.258 
325.88 128.574 209.564 326.6 128.269 209.455 322.15 129.599 209.285 
326.506 128.351 209.431 320.71 130.14 209.473 321.458 130.041 209.391 
324.338 129.462 209.518 320.94 130.171 209.427 321.795 130.093 209.559 
323.191 129.881 209.609 324.147 129.635 209.584 306.722 116.131 211.901 
306.626 116.301 211.633 307.257 116.279 212.081 306.212 116.472 211.183 
306.18 116.481 211.155 306.31 116.447 211.269 306.48 116.383 211.448 
307.55 116.55 211.972 307.654 116.76 211.814 308.43 117.214 211.866 
306.515 116.456 211.382 306.777 116.486 211.51 307.098 116.577 211.621 
308.417 117.318 211.805 309.009 117.835 211.661 327.376 119.684 211.513 
327.531 119.532 211.669 308.249 119.297 209.498 308.403 119.31 209.594 
308.673 119.335 209.768 309.09 119.371 210.062 308.965 117.828 211.723 
309.482 119.261 210.564 309.519 118.613 211.329 327.215 120.208 211.203 
327.895 120.121 211.741 325.735 123.067 210.165 317.426 125.27 209.546 
319.846 126.67 209.319 317.176 128.062 210.221 317.447 128.127 210.477 
318.245 128.853 210.014 320.361 129.368 210.653 325.466 128.958 209.775 
321.546 129.795 210.383 324.935 129.309 209.64 325.134 129.226 209.726 
321.053 130.168 209.551 322.696 130.024 209.9 324.546 129.5 209.647 
324.858 129.398 209.748 324.117 129.706 209.72 305.176 114.71 212.796 
305.362 114.785 212.797 305.732 114.942 212.799 306.221 115.271 212.665 
305.196 114.743 212.765 305.188 114.722 212.79 305.26 114.77 212.767 
305.48 114.825 212.825 305.914 115.048 212.796 306.73 116.239 211.785 
306.658 115.762 212.343 307.537 116.277 212.273 306.218 116.477 211.182 
305.188 114.747 212.759 306.324 116.462 211.261 307.464 116.263 212.29 
307.439 116.529 211.929 307.794 116.572 212.164 309.982 118.089 212.181 
327.856 119.28 212.349 310.565 118.798 211.819 327.983 119.755 212.067 
328.006 119.996 212.001 328.03 119.81 212.105 310.674 119.602 211.925 
327.872 121.521 212.017 319.444 123.816 210.738 327.008 125.829 210.872 
326.057 127.537 210.809 321.474 129.33 210.96 321.772 129.12 211.178 
324.54 129.219 210.329 324.328 129.536 210.065 323.564 129.861 209.931 
324.005 129.728 209.915 305.32 114.611 212.999 305.224 114.675 212.869 
305.39 114.657 212.969 307.977 115.849 213.115 327.422 117.48 213.408 
327.237 117.201 213.621 327.493 117.14 213.863 308.332 116.539 212.529 
327.721 117.752 213.476 309.162 116.677 213.058 310.246 118.103 212.529 
309.918 118.171 212.437 310.307 118.665 212.106 310.896 118.736 212.31 
310.654 118.976 212.472 327.987 119.652 212.671 327.473 122.669 212.653 
321.1 122.36 211.801 317.865 127.284 212.253 319.145 127.744 212.338 
306.504 114.286 214.201 305.519 114.445 213.328 306.202 114.454 213.717 
327.287 116.919 213.973 327.128 116.764 214.142 305.321 114.624 212.992 
305.464 114.51 213.22 308.496 115.662 213.678 327.083 116.975 213.892 
327.574 116.988 214.337 308.335 116.372 212.894 308.012 115.963 213.132 
308.167 115.832 213.481 309.043 116.01 213.665 308.706 116.164 213.604 
308.797 116.55 213.27 310.742 117.809 213.032 310.533 118.391 212.725 
310.012 118.077 213.224 310.633 118.896 213.136 327.984 119.65 213.431 
319.441 122.349 211.942 326.405 123.8 213.639 315.467 125.467 212.766 
323.717 126.556 213.176 323.903 127.539 212.158 305.964 114.017 214.196 
306.364 114.074 214.371 305.748 114.249 213.731 305.597 114.366 213.485 
306.087 114.261 213.948 306.315 114.512 213.804 306.317 114.066 214.424 
309.302 114.966 214.739 327.255 116.547 214.698 307.649 114.995 214.571 
308.652 116.096 214.089 310.892 119.217 213.729 327.657 120.615 214.334 
322.04 120.632 213.129 327.064 121.987 214.419 325.588 123.776 214.72 
320.636 127.434 212.966 307.394 113.38 216.072 307.325 113.17 216.47 
306.036 113.809 214.529 306.029 113.757 214.598 305.761 114.242 213.76 
306.025 113.816 214.519 325.917 116.714 215.167 311.349 116.046 215.161 
323.128 124.955 215.419 317.94 125.753 214.66 307.119 113.03 216.855 
308.607 113.327 217.247 306.111 113.689 214.771 306.226 113.638 214.95 
306.443 113.555 215.278 306.704 113.423 215.721 307.858 113.264 216.68 
308.324 113.564 216.485 326.829 115.942 216.101 326.558 116.019 215.986 
307.836 113.99 216.218 308.259 114.15 216.717 327.374 116.253 216.191 
311.093 114.811 216.415 308.156 112.624 217.877 306.801 111.984 219.154 
306.767 111.826 219.468 306.947 112.128 218.774 307.167 112.354 218.202 
307.906 112.966 217.267 308.226 113.069 217.416 306.875 112.183 218.943 
306.379 113.616 215.155 307.046 112.489 218.285 306.743 113.462 215.798 
307.167 113.305 216.695 307.274 112.905 218.021 307.967 113.417 216.883 
308.222 113.696 216.806 308.12 113.401 217.423 308.351 113.805 217.345 
307.493 113.552 216.536 308.567 114.429 217.252 327.12 115.88 216.744 
324.562 122.611 217.862 306.717 111.824 219.725 310.126 113.068 218.154 
307.777 113.286 218.004 307.762 113.373 217.217 311.232 113.944 217.848 
326.475 115.382 217.787 320.561 124.414 217.478 308.266 111.089 220.555 
306.921 111.485 220.127 307.422 111.217 220.465 309.603 112.121 219.345 
306.803 111.569 220.17 308.161 113.605 218.736 326.381 115.125 218.689 
315.564 116.333 219.453 315.479 122.349 219.506 307.668 111.031 220.842 
308.957 111.172 220.686 326.984 115.313 219.162 327.365 116.714 219.988 
325.913 120.46 220.182 324.35 121.696 220.43 307.684 110.664 222.254 
327.047 117.864 221.762 325.909 119.942 221.662 322.961 122.206 221.225 
307.368 110.738 222.532 326.48 119.081 221.919 320.136 122.884 221.396 
310.289 110.498 223.544 307.094 110.788 223.839 311.59 111.342 223.033 
324.825 113.851 222.9 326.243 114.192 222.346 324.424 120.897 223.134 
315.409 121.236 223.164 309.405 110.135 224.608 311.906 111.15 224.141 
306.892 111.202 224.933 325.725 113.602 224.097 327.159 116.38 224.17 
326.724 117.946 224.218 322.803 121.683 223.627 307.617 110.26 225.811 
325.814 113.295 225.319 326.927 114.648 224.661 327.111 116.444 225.1 
326.27 118.564 225.197 326.182 113.418 226.033 327.104 115.844 226.097 
325.594 119.323 225.883 325.933 113.203 226.584 317.057 112.77 227.229 
323.556 113.141 225.93 320.499 113.379 226.33 321.308 113.339 226.244 
327.016 116.265 227.71 326.609 117.671 226.886 326.276 118.324 226.411 
316.783 121.395 227.655 318.952 121.906 226.701 306.927 110.839 229.48 
319.08 113.005 227.595 311.178 110.225 228.864 324.797 112.872 227.987 
324.407 112.858 228.476 317.266 112.624 228.622 319.286 112.9 228.866 
320.462 112.961 228.196 323.189 121.059 229.364 320.267 121.868 228.227 
307.078 110.673 230.945 320.747 112.984 229.527 326.466 113.658 228.822 
327.083 116.087 230.667 324.784 120.021 229.703 321.515 121.75 230.035 
308.156 110.226 231.409 324.831 112.954 229.892 325.559 113.07 229.885 
325.825 113.145 229.565 306.83 111.465 231.658 324.751 113.1 230.629 
315.574 112.719 231.789 318.207 113.439 231.629 307.674 110.52 232.851 
325.793 113.211 230.114 325.387 113.354 231.332 319.202 114 232.577 
327.124 116.04 232.264 309.703 110.244 232.069 310.908 110.429 231.777 
306.767 111.178 234.362 327.122 115.646 233.017 316.07 121.543 233.109 
310.864 110.51 232.224 308.023 110.66 234.213 310.826 110.744 232.891 
310.718 110.508 232.432 306.641 111.395 234.87 306.58 111.631 235.037 
327.036 115.303 233.613 326.156 119.143 233.719 325.796 114.14 234.406 
326.216 114.163 233.53 324.901 114.055 234.398 326.116 114.242 234.26 
326.428 114.496 234.268 326.958 118.054 235.288 322.351 122.48 235.153 
[...]
POINT_DATA 945
SCALARS scalars float
LOOKUP_TABLE default
1 1 1 1 1 1 1 1 1 
1 1 1 1 1 1 1 1 1 
1 1 1 1 1 1 1 1 1 
1 1 1 1 1 1 1 1 1 
1 1 1 1 1 1 1 1 1 
1 1 1 1 1 1 1 1 1 
1 1 1 1 1 1 1 1 1 
1 1 1 1 1 1 1 1 1 
1 1 1 1 1 1 1 1 1 
1 1 1 1 1 1 1 1 1 
1 1 1 1 1 1 1 1 1 
1 1 1 1 1 1 1 1 1 
1 1 1 1 1 1 1 1 1 
1 1 1 1 1 1 1 1 1 
1 1 1 1 1 1 1 1 1 
1 1 1 1 1 1 1 1 1 
1 1 1 1 1 1 1 1 1 
1 1 1 1 1 1 1 1 1 
1 1 1 1 1 1 1 1 1 
1 1 1 1 1 1 1 1 1 
1 1 1 1 1 1 1 1 1 
1 1 1 1 1 1 1 1 1 
1 1 1 1 1 1 1 1 1 
1 1 1 1 1 1 1 1 1 
1 1 1 1 1 1 1 1 1 
1 1 1 1 1 1 1 1 1 
1 1 1 1 1 1 1 1 1 
1 1 1 1 1 1 1 1 1 
1 1 1 1 1 1 1 1 1 
1 1 1 1 1 1 1 1 1 
1 1 1 1 1 1 1 1 1 
1 1 1 1 1 1 1 1 1 
1 1 1 1 1 1 1 1 1 
1 1 1 1 1 1 1 1 1 
1 1 1 1 1 1 1 1 1 
1 1 1 1 1 1 1 1 1 
1 1 1 1 1 1 1 1 1 
1 1 1 1 1 1 1 1 1 
1 1 1 1 1 1 1 1 1 
1 1 1 1 1 1 1 1 1 
1 1 1 1 1 1 1 1 1 
1 1 1 1 1 1 1 1 1 
1 1 1 1 1 1 1 1 1 
1 1 1 1 1 1 1 1 1 
1 1 1 1 1 1 1 1 1 
1 1 1 1 1 1 1 1 1 
1 1 1 1 1 1 1 1 1 
1 1 1 1 1 1 1 1 1 
1 1 1 1 1 1 1 1 1 
1 1 1 1 1 1 1 1 1 
1 1 1 1 1 1 1 1 1 
1 1 1 1 1 1 1 1 1 
1 1 1 1 1 1 1 1 1 
1 1 1 1 1 1 1 1 1 
1 1 1 1 1 1 1 1 1 
1 1 1 1 1 1 1 1 1 
1 1 1 1 1 1 1 1 1 
1 1 1 1 1 1 1 1 1 
1 1 1 1 1 1 1 1 1 
1 1 1 1 1 1 1 1 1 
1 1 1 1 1 1 1 1 1 
1 1 1 1 1 1 1 1 1 
1 1 1 1 1 1 1 1 1 
1 1 1 1 1 1 1 1 1 
1 1 1 1 1 1 1 1 1 
1 1 1 1 1 1 1 1 1 
1 1 1 1 1 1 1 1 1 
1 1 1 1 1 1 1 1 1 
1 1 1 1 1 1 1 1 1 
1 1 1 1 1 1 1 1 1 
1 1 1 1 1 1 1 1 1 
1 1 1 1 1 1 1 1 1 
1 1 1 1 1 1 1 1 1 
1 1 1 1 1 1 1 1 1 
1 1 1 1 1 1 1 1 1 
1 1 1 1 1 1 1 1 1 
1 1 1 1 1 1 1 1 1 
1 1 1 1 1 1 1 1 1 
1 1 1 1 1 1 1 1 1 
1 1 1 1 1 1 1 1 1 
1 1 1 1 1 1 1 1 1 
1 1 1 1 1 1 1 1 1 
1 1 1 1 1 1 1 1 1 
1 1 1 1 1 1 1 1 1 
1 1 1 1 1 1 1 1 1 
1 1 1 1 1 1 1 1 1 
1 1 1 1 1 1 1 1 1 
1 1 1 1 1 1 1 1 1 
1 1 1 1 1 1 1 1 1 
1 1 1 1 1 1 1 1 1 
1 1 1 1 1 1 1 1 1 
1 1 1 1 1 1 1 1 1 
1 1 1 1 1 1 1 1 1 
1 1 1 1 1 1 1 1 1 
1 1 1 1 1 1 1 1 1 
1 1 1 1 1 1 1 1 1 
1 1 1 1 1 1 1 1 1 
1 1 1 1 1 1 1 1 1 
1 1 1 1 1 1 1 1 1 
1 1 1 1 1 1 1 1 1 
1 1 1 1 1 1 1 1 1 
1 1 1 1 1 1 1 1 1 
1 1 1 1 1 1 1 1 1 
1 1 1 1 1 1 1 1 1 
1 1 1 1 1 1 1 1 1 

NORMALS Normals float
-0.614846 0.460691 -0.6401 -0.333853 -0.449158 -0.828734 0.41156 -0.473611 -0.77866 
0.30129 0.0829571 -0.949917 0 -0.970142 -0.242536 0 -1 0 
-0.351123 -0.936329 0 0.351123 -0.936329 0 0 1 0 
-0.899021 -0.0183954 -0.437519 0.050537 -0.633855 -0.771799 -0.807056 0.587113 -0.0629252 
0.354896 -0.230735 -0.905986 -0.290869 0.610785 -0.736435 -0.255768 0.00222793 -0.966736 
-0.709173 0.497622 -0.499446 -0.060568 -0.165561 -0.984338 -0.403172 0.363055 -0.840026 
-0.108437 -0.0082891 -0.994069 -0.633258 0.625033 -0.456419 -0.696745 0.694256 -0.18043 
-0.0771038 0.0107776 -0.996965 -0.51873 0.469518 -0.714473 -0.622851 0.582605 -0.522138 
-0.643836 0.755975 -0.118223 -0.481523 0.611467 -0.627889 -0.388638 0.344884 -0.85441 
-0.495695 0.468332 0.731404 -0.380784 0.770368 0.511407 -0.362258 0.798795 0.480307 
-0.491212 0.498239 0.714471 0.365164 -0.79346 -0.486906 0.566579 -0.24313 -0.787322 
0.476664 -0.799569 -0.365349 -0.263836 0.723432 -0.637995 0.580067 -0.237266 -0.779248 
0.4601 0.254041 -0.850748 0.675727 -0.100334 -0.730292 0.142454 -0.427636 -0.892656 
0.853145 -0.216643 -0.474562 -0.124207 0.943084 -0.308489 0.212461 0.748215 -0.628517 
0.0756955 -0.916019 -0.393928 -0.437428 0.543368 -0.716525 0.321489 0.617249 -0.718087 
0.434965 -0.58086 0.688046 -0.245118 -0.261748 -0.933491 0.269709 -0.228331 -0.93548 
0 -0.970142 0.242536 -0.0841098 0.922008 0.377925 0.0117285 -0.583354 -0.812133 
-0.633963 -0.202676 -0.746333 0.963473 0.0776433 -0.256304 -0.903149 0.36533 -0.225512 
-0.106515 0.271623 -0.956491 -0.553788 0.633794 -0.540023 -0.768183 0.620417 -0.158042 
-0.472821 0.26987 -0.838815 -0.846853 0.522781 -0.0976732 0.306693 -0.139224 -0.941571 
0.0367185 -0.0942225 -0.994874 0.965838 0.113129 -0.233152 -0.721949 0.68429 0.10265 
-0.114133 0.0600261 -0.991651 0.700787 0.0276438 -0.712835 -0.267655 0.410168 -0.87185 
0.0894928 0.424694 -0.900903 0.825331 0.295223 -0.481323 0.101608 0.339327 -0.935165 
0.304147 0.231103 -0.924168 -0.517812 0.848548 -0.108801 -0.0110577 0.774246 -0.632788 
-0.217859 0.750646 -0.623753 -0.318887 0.859171 0.40017 -0.313822 0.863958 0.393819 
-0.515562 0.457511 0.724486 -0.40603 0.738506 0.538283 -0.584649 -0.286104 0.759164 
-0.560711 0.401796 0.723991 0.439865 -0.697117 -0.566168 0.460761 -0.729838 -0.50501 
0.45693 -0.68745 -0.564472 0.491172 -0.537679 -0.685311 0.449177 -0.670995 -0.58992 
-0.627805 0.761768 0.15991 0.454345 -0.7597 -0.465217 0.473358 -0.593158 -0.651226 
0.340407 -0.573053 -0.745475 -0.338162 -0.649578 0.680951 -0.354808 0.928748 -0.10742 
-0.426154 0.297197 -0.854439 -0.720499 0.693412 0.00778738 -0.812801 0.567987 -0.129405 
0.321582 -0.130684 -0.93782 0.142117 -0.346942 -0.927056 -0.747954 0.657523 0.0907104 
0.0743493 0.0277641 -0.996846 0.0630481 -0.014246 -0.997909 0.893024 0.324363 0.311924 
-0.51796 0.837739 0.172947 0.936605 0.349927 0.0179184 0.0635481 0.0721677 -0.995366 
0.528525 0.840947 -0.116061 0.6933 0.625373 0.358112 -0.0194998 0.102617 -0.99453 
0.325368 0.81422 -0.480813 -0.157872 0.985064 0.0687414 0.193136 0.620355 -0.76017 
0.203474 0.424703 -0.882171 0.00256971 0.632788 -0.774321 0.195413 0.884998 -0.422602 
0.168005 0.826084 -0.537922 0.257214 0.735656 -0.626619 -0.144124 0.755048 0.639633 
-0.380273 0.707392 0.595809 -0.39126 0.720791 0.572168 -0.345006 0.715083 0.60797 
-0.345006 0.715083 0.60797 0.360672 -0.700382 -0.615939 0.370043 -0.703888 -0.606308 
-0.393274 0.777498 0.490747 -0.439218 0.68107 0.58586 0.416452 -0.638327 -0.647385 
-0.359383 0.711532 0.603793 -0.384415 0.707682 0.592799 -0.414762 0.702237 0.57865 
-0.683414 0.729965 0.00984655 0.0577269 -0.410019 -0.910248 -0.110468 -0.600205 -0.792181 
0.534688 -0.490245 -0.688308 0.508877 -0.384656 -0.770119 0.487301 -0.517193 -0.703597 
-0.378643 0.804757 0.45716 -0.437631 0.745015 0.503419 -0.720847 0.685902 0.0995902 
-0.658723 0.566908 0.494672 -0.588091 -0.249871 -0.769229 -0.0534778 -0.526481 -0.848504 
0.834252 -0.251878 -0.490491 -0.162695 -0.263607 -0.950811 0.168226 -0.368602 -0.914239 
0.0772631 -0.247073 -0.965912 -0.596378 0.734373 0.324081 -0.502129 0.803287 0.320307 
-0.440809 0.839831 0.316814 -0.225465 0.78694 0.574361 0.659077 0.743619 0.112467 
-0.0127582 0.809813 0.58655 0.40777 0.613767 -0.676028 0.574749 0.811132 0.108301 
-0.0883555 0.950237 0.298735 0.175461 0.981723 -0.0737088 0.37882 0.857634 -0.347793 
0.447093 0.893421 -0.043676 0.316084 0.942146 -0.111584 0.340966 -0.742136 -0.57704 
0.309254 -0.638167 -0.705056 0.416888 -0.6969 -0.583553 -0.561053 0.81065 0.167532 
0.265832 -0.709417 -0.652733 -0.418091 0.726175 0.545775 0.300795 -0.494584 -0.815419 
0.300091 -0.223211 -0.927428 -0.383368 0.901377 0.201367 0.0857577 -0.90008 -0.427202 
-0.0413953 0.765599 0.641985 0.299923 -0.631598 -0.714934 -0.345006 0.715083 0.60797 
0.189428 -0.699185 -0.689389 0.357223 -0.706488 -0.610955 -0.4077 0.826944 0.387228 
0.400177 -0.67169 -0.623451 0.359511 -0.508973 -0.782112 0.666911 -0.663257 -0.339588 
0.853796 -0.398769 -0.334687 0.577858 -0.756027 -0.307413 0.744673 -0.368403 -0.556544 
0.92054 -0.0695742 -0.384404 0.964581 -0.171396 -0.200518 -0.850842 0.393229 0.348482 
0.991968 0.12588 -0.0124065 0.185123 -0.480361 -0.857311 0.798111 0.385388 0.463137 
0.577747 0.558734 0.594999 -0.157391 0.74421 0.649137 0.0404553 0.712707 0.700294 
0.349742 0.695605 0.627547 0.384939 0.84423 0.372958 0.203618 0.855339 0.476377 
0.273782 0.865033 0.42043 0.270777 -0.783698 -0.559014 0.297016 -0.756774 -0.582301 
0.270669 -0.775651 -0.570179 0.726983 -0.518146 -0.450577 0.158435 -0.63844 -0.753188 
-0.308598 -0.552556 -0.774241 0.633001 -0.633353 -0.445167 0.529176 -0.617579 -0.581867 
0.845208 -0.408822 -0.344222 0.279741 -0.737538 -0.61464 0.596657 -0.344853 -0.724622 
-0.406152 0.884191 0.230751 -0.430747 0.22081 0.875043 0.136623 -0.911345 -0.388309 
-0.984242 0.111281 0.137419 0.996823 -0.00689747 0.0793507 0.907808 0.305174 0.287671 
-0.200302 -0.476348 -0.856137 -0.411968 0.736066 0.537111 -0.260373 0.728602 0.633518 
0.41776 -0.757962 -0.500969 -0.271961 -0.892747 -0.35922 0.47417 -0.713614 -0.515672 
0.34484 -0.774249 -0.530682 0.082086 -0.874104 -0.478752 -0.496051 0.602378 0.62536 
-0.878854 0.0278549 0.476276 0.459095 -0.45956 -0.760287 -0.264349 -0.700377 -0.663017 
0.77703 -0.597313 -0.1986 0.636456 -0.770429 -0.0369146 0.953367 -0.29987 0.0341917 
0.743672 0.123129 -0.657108 0.204225 -0.574186 -0.792844 -0.382911 -0.193208 -0.903355 
-0.927318 0.320569 0.193177 0.420763 -0.486567 -0.765644 -0.320925 0.0714203 -0.944408 
-0.697542 0.714302 0.0566468 -0.864886 0.491516 -0.101901 0.999845 0.00424141 0.0170744 
0.199361 -0.649214 -0.734014 0.650404 0.540632 0.533565 -0.701739 0.65591 0.278109 
0.604381 0.510641 0.611531 0.35484 0.642581 0.679101 0.345121 -0.761868 -0.548132 
0.545711 -0.740878 -0.391534 -0.214076 -0.927113 -0.307625 0.198169 -0.838196 -0.508091 
0.450161 -0.768528 -0.454665 0.610462 -0.731389 -0.303986 -0.502876 0.777856 0.376903 
0.422733 -0.665095 -0.615586 0.512558 -0.809151 -0.287329 -0.670269 0.682318 0.291861 
-0.801045 0.598437 -0.0141129 -0.827086 0.551618 0.107921 0.88985 0.395259 0.227896 
-0.246573 -0.800692 -0.54598 0.889813 0.368242 0.269499 0.665866 0.586127 0.461604 
-0.0327967 0.756465 0.653211 0.171674 -0.886787 -0.429111 0.176165 -0.859154 -0.480438 
0.289987 -0.775107 -0.561353 0.241732 -0.785058 -0.570306 -0.421298 -0.885044 -0.198001 
-0.0533653 -0.827585 -0.558798 -0.489021 -0.635645 -0.59734 0.423952 -0.687168 -0.58997 
0.456526 0.712084 0.533404 -0.287218 0.834421 0.47037 -0.841539 -0.521204 -0.141981 
-0.343649 -0.714959 -0.608883 0.505624 -0.751062 -0.424558 0.0941426 -0.944351 -0.315179 
0.0865147 -0.945932 -0.312616 0.123109 -0.926119 -0.356577 0.545882 -0.790656 -0.277266 
0.249024 -0.956395 -0.152628 0.26902 -0.902085 -0.337449 -0.377107 -0.850216 -0.367319 
-0.605299 0.5512 0.574275 -0.872288 0.00475672 0.488969 0.844527 -0.526846 -0.0959586 
0.492904 -0.679812 -0.543048 0.200637 -0.833509 -0.514789 -0.927181 -0.212037 -0.30883 
-0.640518 -0.697058 -0.322254 -0.503456 -0.720358 -0.477091 -0.386392 -0.815757 -0.430398 
0.579533 -0.632473 -0.513926 0.439253 -0.453544 -0.775471 -0.923296 0.380485 -0.0525037 
-0.651891 0.552453 0.519456 -0.978133 -0.0313836 -0.205598 -0.759581 0.441547 0.47757 
-0.641313 0.682199 0.351172 -0.735425 0.66396 0.135301 0.854745 0.398648 0.332401 
-0.789744 -0.207595 0.577242 -0.235317 0.717522 -0.655582 -0.960994 0.256122 -0.104363 
-0.325514 0.843527 0.427204 -0.905614 0.295363 0.304343 0.714686 -0.687946 -0.126311 
0.558887 0.716483 0.417489 -0.996616 -0.0420416 -0.0706278 0.255585 -0.840516 -0.477712 
-0.604588 0.795272 -0.0449001 -0.263185 0.943621 0.200779 0.4932 -0.741561 -0.454798 
0.00143974 -0.957554 -0.288252 0.166963 0.855112 0.490823 0.0440027 -0.909537 -0.413286 
-0.250984 -0.899659 -0.35724 -0.299587 -0.918577 -0.257806 0.383764 -0.812839 -0.438199 
-0.665655 -0.737005 -0.117161 -0.817439 0.575534 0.0235309 0.00040995 -0.965146 -0.261712 
0.408797 -0.798558 -0.441804 -0.471734 0.830776 0.295429 -0.149119 -0.966999 -0.206582 
0.177317 -0.943344 -0.280464 0.656979 -0.740806 -0.139945 0.997261 -0.0192467 0.0714173 
0.796199 0.570453 0.201621 0.481415 0.846216 0.228383 -0.183442 -0.964953 -0.187658 
0.925192 0.379486 -0.00328449 0.729292 0.665295 0.159737 0.42549 0.892933 0.147067 
-0.440174 -0.890454 -0.115492 0.860514 0.502746 0.0822259 0.129957 0.960075 0.247725 
0.322576 -0.91913 -0.22615 -0.679725 -0.732866 -0.0296721 0.510772 -0.825715 -0.239389 
-0.0750006 -0.948623 -0.307392 0.453745 -0.867306 -0.204685 0.605967 0.767063 0.210757 
-0.530491 0.844287 0.0758838 0.170336 -0.982327 -0.0775889 0.443951 -0.874941 -0.193356 
-0.99779 0.062909 0.0214027 0.25431 -0.936624 -0.240959 0.994655 0.0846539 0.0591208 
0.897603 0.437328 0.0552635 0.372781 0.917819 0.136538 -0.409916 -0.911296 -0.0388408 
0.275886 -0.946689 -0.166335 0.94323 -0.331987 -0.0100382 0.97651 0.207311 0.058747 
0.847903 0.526826 0.0592814 0.530602 -0.831188 -0.1661 0.998475 0.023032 0.0501659 
0.712096 0.688363 0.138115 0.338641 -0.931315 -0.134067 0.182237 -0.951039 -0.249631 
-0.119387 -0.955983 -0.268036 -0.0600441 -0.948345 -0.311506 -0.0370784 -0.973718 -0.224718 
0.999897 0.0059771 0.013048 0.896397 0.437581 0.0706739 0.829981 0.532495 0.166077 
-0.144558 0.989478 0.00607203 -0.117168 0.983527 0.137645 -0.831543 -0.555058 -0.0211414 
0.085158 -0.962332 -0.258195 0.545399 -0.835911 0.0615808 0.0370994 -0.993377 -0.108747 
-0.0217434 -0.999473 0.0240855 0.0953292 -0.995237 0.0203944 0.0845758 -0.994975 0.0535939 
0.0552135 -0.990888 -0.122848 0.399122 0.913576 0.0779785 0.0577873 0.997006 0.0513776 
-0.576696 -0.81288 0.0815369 0.0288306 -0.995604 0.0891122 0.766462 -0.636517 0.085913 
0.990737 0.128959 -0.0425386 0.633617 0.773569 0.0109915 0.26652 0.961207 -0.0710575 
-0.235519 -0.971767 0.0141438 0.0830405 -0.986557 0.140748 0.246548 -0.957381 0.150453 
0.369354 -0.928572 0.0365006 -0.953567 0.29943 -0.0324359 0.0133545 -0.978058 0.207904 
0.303795 -0.923664 0.233569 0.178377 -0.925696 0.333569 -0.414925 -0.892979 0.17443 
0.454519 -0.855517 0.248001 0.418253 -0.875745 0.241112 -0.0199135 -0.930345 0.366144 
0.958928 -0.249175 -0.13553 0.0878658 -0.980883 0.173631 0.576448 -0.813713 0.0746897 
-0.867938 -0.496672 -0.000822459 0.96917 -0.233283 -0.0792941 -0.467038 0.864125 -0.187519 
0.507509 -0.83378 0.217362 -0.0997588 -0.969752 0.222774 0.624805 -0.720822 0.300057 
0.253979 -0.918002 0.304577 -0.863753 -0.502647 0.0357264 -0.996124 -0.0396256 -0.0785341 
0.914325 -0.404278 -0.0238381 0.805499 0.578941 -0.126485 0.332816 -0.891694 0.306782 
0.466998 -0.88087 0.0773374 -0.0867648 -0.955834 0.280807 0.506446 -0.797645 0.327529 
0.673627 -0.703009 0.228047 0.945467 0.305198 -0.113786 0.382704 0.903781 -0.191617 
0.52555 0.839552 -0.137657 -0.369815 -0.913763 0.168149 0.120458 -0.970115 0.210634 
-0.681756 -0.704545 0.197041 -0.988735 0.126187 -0.0805024 0.0665762 -0.992809 0.0994841 
0.845766 -0.524807 0.0962218 0.874819 0.481135 -0.0565812 0.718623 0.677411 -0.157147 
0.0499795 0.944518 -0.324634 -0.040993 -0.903238 0.427179 -0.478321 -0.822 0.309071 
-0.923485 0.329229 -0.196935 0.297916 -0.885571 0.356386 -0.931786 -0.353569 0.0822404 
0.984645 0.158024 -0.0741721 -0.333302 0.81297 -0.477481 0.484138 -0.737251 0.471244 
-0.794738 0.605125 -0.0470628 0.727129 0.621878 -0.290775 0.518218 0.732321 -0.441764 
-0.211973 -0.886087 0.41221 -0.672474 -0.704833 0.225807 -0.698139 0.647162 -0.306241 
-0.411862 -0.816271 0.405056 -0.868977 -0.477286 0.130681 0.0670355 -0.87824 0.473498 
-0.200483 -0.894892 0.398717 -0.968361 -0.000158448 -0.249554 -0.955095 0.0106011 -0.29611 
-0.642739 0.661033 -0.387198 -0.510574 0.806158 -0.299037 0.638297 -0.729917 0.244534 
-0.380221 0.832201 -0.403576 -0.469426 0.836867 -0.281589 0.942514 -0.334164 -0.00138478 
0.953382 -0.297599 0.0499827 -0.802681 0.573149 0.164934 -0.898872 0.43816 -0.00678667 
-0.443144 -0.818585 0.365433 0.13516 -0.80644 0.575662 0.0766545 -0.779761 0.621367 
0.289697 -0.711975 0.639662 -0.401847 0.753242 -0.520716 -0.401524 0.75985 -0.51128 
-0.537084 0.777624 -0.326867 -0.197508 0.585705 0.786092 -0.772787 0.629033 0.0843671 
-0.676161 0.270614 0.685255 -0.914619 0.203843 0.349171 -0.939968 0.340842 -0.0169178 
-0.364867 -0.797543 0.480414 -0.37851 0.896724 -0.229384 -0.842333 0.317322 0.43564 
0.385059 -0.688126 0.614989 -0.99883 0.0254751 -0.0410985 0.985294 0.090757 -0.144773 
-0.869273 0.355136 -0.343866 -0.108349 -0.804014 0.584655 -0.618998 0.700799 -0.354573 
-0.700229 0.677118 -0.226253 -0.568354 0.705521 -0.423336 -0.199685 -0.860127 0.469369 
0.442469 -0.538562 0.717058 0.182135 -0.325387 0.927874 0.258865 -0.723377 0.64009 
-0.109947 -0.948618 0.296709 0.397542 -0.746377 0.533743 -0.440085 0.713948 -0.544613 
-0.200701 -0.231572 0.951889 -0.558604 -0.306046 0.770907 0.412241 -0.837247 0.359268 
-0.537031 -0.708869 0.457277 0.305534 -0.819525 0.484796 -0.675078 0.164272 -0.719225 
0.0510048 -0.99865 0.0098008 -0.60491 0.636691 -0.478235 0.467352 -0.591775 0.656799 
-0.427512 0.419077 -0.801004 0.750683 -0.513625 -0.415529 0.564581 -0.637885 0.523785 
0.0602133 -0.063042 0.996193 -0.815752 0.0802437 -0.572808 -0.71097 0.548745 -0.439773 
-0.359818 -0.90495 0.22715 0.349328 -0.737304 0.578233 0.883375 0.311679 -0.350007 
0.588795 0.543873 -0.597932 0.225669 0.791572 -0.567879 -0.358589 0.747982 -0.558514 
-0.444782 0.719897 -0.532839 -0.435852 0.720639 -0.539178 -0.358064 0.74777 -0.559133 
0.803211 -0.512467 0.303694 0.499527 -0.684867 0.530499 0.489914 -0.768894 0.410837 
0.997208 0.0673056 -0.0323523 -0.752238 0.585553 -0.302102 -0.360735 0.747473 -0.557811 
0.302428 -0.787137 0.537543 0.338331 -0.742542 0.578069 0.562057 -0.729564 0.389652 
0.562057 -0.729564 0.389652 -0.391134 0.720781 -0.572267 -0.320357 0.739622 -0.591887 
-0.322981 0.739374 -0.59077 0.343962 -0.742593 0.57467 -0.338988 0.739138 -0.582033 
-0.428554 0.746749 -0.508632 0.261591 -0.784866 0.561744 0.582142 -0.529815 0.616771 
-0.791172 0.492786 -0.362228 -0.0925987 -0.642527 0.760648 0.903591 -0.24983 0.348006 
0.982222 -0.0314553 -0.185069 -0.817401 0.569443 -0.0871219 0.346489 0.637625 -0.688026 
0.338496 -0.744912 0.574915 -0.482749 0.765739 -0.424967 -0.662274 0.704957 -0.253828 
-0.309451 0.738706 -0.598794 -0.360694 0.678406 -0.640051 -0.371776 0.65882 -0.654017 
0.22266 -0.910389 0.348733 0.22266 -0.910389 0.348733 -0.503085 0.702923 -0.502796 
0.0892606 -0.732337 0.675066 -0.292717 0.749429 -0.593863 0.26961 -0.748269 0.606138 
0.428849 -0.726437 0.537008 -0.764665 0.532034 -0.363632 -0.930698 0.272242 -0.244308 
-0.695406 0.568105 -0.440077 -0.428562 0.873871 -0.229529 -0.342563 0.542295 0.767181 
0.387449 -0.627523 0.675351 -0.125577 -0.621709 0.773116 -0.837524 0.535136 0.110375 
-0.793056 0.573195 -0.206178 -0.863022 0.505051 0.0107873 0.880605 0.33252 -0.337588 
0.708581 0.443679 -0.548692 0.957537 0.283552 -0.0521544 0.812248 0.410397 -0.414521 
0.546855 0.514756 -0.660285 0.774334 0.549538 -0.313711 0.369839 0.701435 -0.609268 
0.794251 0.543799 0.271014 0.494377 0.795684 -0.34997 0.155879 0.823751 -0.545102 
0.695047 0.685302 -0.21742 0.554425 0.810031 0.190952 0.26961 -0.748269 0.606138 
-0.389091 0.704177 -0.593922 0.286861 -0.744293 0.603107 -0.294446 0.746701 -0.596439 
-0.321402 0.743024 -0.587039 -0.340173 0.741023 -0.578936 0.580061 -0.368678 0.726365 
0.655279 -0.552885 0.51471 0.344857 -0.373072 0.861331 0.690823 -0.462895 0.55542 
-0.515552 0.661319 -0.544851 0.540488 -0.660273 0.521452 0.537066 -0.718787 0.441481 
0.516329 -0.798313 0.310001 -0.101682 -0.294129 0.950342 0.781035 -0.380882 0.494887 
0.942334 -0.163084 0.292251 -0.54143 0.734884 -0.40841 -0.578549 0.723321 -0.376945 
-0.550333 0.648604 -0.525782 0.472451 -0.862338 0.182107 0.458196 -0.768969 0.445806 
0.318382 -0.706448 0.632111 0.999441 0.00186109 -0.0333848 -0.597211 0.795685 -0.10111 
-0.678757 0.729048 -0.0881888 -0.733005 0.679887 0.0213684 -0.768338 0.595613 0.234312 
-0.752016 0.651167 -0.10224 -0.572276 0.816194 0.079545 -0.905178 0.143942 0.399917 
0.0696499 -0.497593 0.86461 -0.329218 -0.763714 -0.555299 -0.897259 0.426081 -0.115676 
-0.0631862 -0.495111 0.866529 0.956263 0.223546 -0.188647 -0.596391 0.76692 -0.236963 
0.0434998 -0.263483 0.963683 0.346765 0.631526 -0.69349 0.762265 0.640142 -0.0957608 
0.0208084 0.784769 -0.619439 -0.399457 0.828942 -0.391521 -0.194724 0.824791 -0.530851 
0.348242 0.933947 -0.0804327 0.0237659 0.918616 -0.394436 -0.0540023 0.953339 -0.297033 
0.252955 0.850266 -0.461586 0.0694146 0.990426 0.119324 0.14099 0.970747 -0.194351 