# vtk DataFile Version 4.2
vtk output
ASCII
DATASET POLYDATA
POINTS 312 float
210.252 219.367 193.637 210.167 219.214 193.68 210.202 219.518 193.675 
210.069 219.59 193.75 210.4 219.347 193.665 210.518 219.433 193.739 
210.271 219.718 193.805 209.762 218.505 194.152 210.993 218.364 194.264 
209.515 218.567 194.248 209.287 218.87 194.268 209.98 218.888 193.866 
210.267 218.963 193.807 211.082 218.554 194.201 211.244 218.7 194.279 
209.277 219.067 194.123 209.281 219.146 194.091 209.944 219.139 193.792 
209.232 219.448 194.313 211.07 219.476 194.191 209.537 220.018 194.33 
209.998 219.821 193.927 210.098 220.097 194.115 210.011 217.684 194.934 
209.235 217.953 194.97 211.612 218.323 194.726 211.537 219.121 194.537 
211.647 219.347 194.706 210.362 220.191 194.219 209.741 220.281 194.441 
210.487 220.498 194.567 209.369 217.749 195.151 210.741 217.528 195.165 
211.622 217.841 194.983 209.169 217.872 195.207 211.861 218.04 195.139 
206 219.009 194.017 206 219.009 194.017 206 219.009 194.017 
206 219.009 194.017 206 219.009 194.017 211.55 219.967 194.844 
209.754 220.869 195.203 209.631 220.921 195.421 209.868 221.078 195.496 
209.882 217.377 195.707 211.695 217.722 195.381 211.885 217.846 195.596 
206 219.009 194.017 208.575 219.129 195.431 212.163 219.042 195.621 
208.693 219.711 195.623 209.099 220.464 195.783 211.944 220.617 195.854 
209.45 220.803 195.529 211.733 220.943 195.883 211.884 220.826 195.987 
209.965 221.297 195.938 210.17 221.489 196.215 210.78 221.506 196.135 
209.222 217.764 196.181 209.518 217.52 196.148 210.489 217.236 195.87 
208.71 218.417 195.96 212.088 218.12 196.142 208.506 218.746 195.811 
208.523 218.69 196.019 208.455 218.759 195.952 208.535 218.778 195.559 
212.208 218.455 196.242 208.451 218.829 195.943 208.501 219.034 195.976 
208.696 219.83 195.883 211.228 221.386 196.217 210.503 221.639 196.636 
211.045 217.194 196.638 210.877 217.167 196.352 211.401 217.339 196.331 
211.293 217.261 196.542 211.497 217.409 196.604 208.814 218.369 196.395 
208.635 218.773 196.339 208.744 219.849 196.64 212.035 220.682 196.335 
211.963 220.797 196.503 211.263 221.424 196.569 210.12 221.56 197.003 
210.695 221.642 196.873 211.093 217.258 196.93 211.502 217.509 196.959 
211.717 217.671 196.695 212.158 218.747 196.949 212.197 219.512 197.005 
209.055 220.175 197.201 209.6 221.172 197.175 211.492 221.247 197.059 
210.319 221.613 197.276 210.908 221.563 197.148 210.18 217.471 197.229 
210.434 217.468 197.319 211.263 217.379 197.074 211.38 217.547 197.215 
209.663 217.924 197.316 209.16 219.168 197.445 212.087 219.234 197.324 
209.452 220.689 197.782 211.748 220.884 197.282 211.463 221.142 197.429 
211.665 220.977 197.447 210.129 221.39 197.821 210.636 221.486 197.759 
210.607 217.675 197.536 210.975 217.568 197.415 210.242 218.006 197.7 
209.494 218.539 197.597 210.543 218.296 197.968 209.878 218.913 198.025 
210.106 218.723 198.066 211.57 218.944 197.897 211.41 219.151 198.059 
211.582 219.936 197.929 209.55 220.504 198.127 211.724 220.898 197.454 
210.897 221.009 198.374 210.153 221.139 198.194 210.898 221.192 198.107 
210.289 221.304 198.052 211.351 218.422 197.878 210.498 219.162 198.314 
210.774 218.966 198.25 211.031 218.777 198.151 210.244 219.971 198.485 
210.112 220.267 198.517 209.877 220.279 198.396 210.351 220.278 198.557 
210.518 220.353 198.55 209.825 220.756 198.289 210.378 220.912 198.445 
210.466 220.742 198.513 210.81 221.022 198.379 210.033 220.525 198.481 
210.751 218.637 258.211 210.713 218.426 258.313 210.566 218.572 258.241 
210.272 218.821 258.251 210.79 218.859 258.166 210.084 218.932 258.347 
210.507 219.156 258.139 210.957 219.032 258.224 210.186 219.367 258.274 
210.393 219.376 258.194 210.528 219.635 258.261 210.75 219.58 258.243 
211.143 217.775 258.807 211.484 217.761 258.861 211.674 217.908 258.912 
209.918 218.064 258.895 209.78 218.238 258.862 211.525 218.3 258.693 
211.722 218.146 258.88 209.786 218.509 258.728 211.137 219.306 258.365 
211.436 219.203 258.599 211.749 219.021 258.919 209.742 219.461 258.686 
210.41 219.95 258.458 211.317 220.121 258.719 211.496 219.969 258.828 
209.886 220.27 258.874 210.684 220.31 258.635 211.001 220.475 258.739 
211.079 221.167 259.197 211.199 221.175 259.155 211.264 221.101 259.16 
211.208 221.224 259.243 211.341 217.52 258.973 211.21 217.576 258.949 
211.468 217.596 258.91 211.434 217.538 258.957 211.518 217.603 259.013 
209.37 217.889 259.638 209.96 217.886 259.107 210.501 217.594 259.359 
210.911 217.614 259.098 209.181 217.973 259.738 209.03 218.127 259.792 
211.882 218.28 259.085 208.941 218.398 259.714 209.146 218.692 259.348 
212.007 218.4 259.371 211.968 219.031 259.236 212.05 219.2 259.459 
211.184 220.813 259.006 211.688 220.555 259.376 209.79 221.096 259.668 
210.754 221.333 259.441 211.136 221.345 259.493 210.922 221.476 259.58 
211.225 217.522 259.075 211.393 217.525 259.093 209.272 217.771 260.19 
209.604 217.621 260.151 211.201 217.53 259.352 211.535 217.618 259.287 
211.739 217.755 259.314 211.856 217.909 259.455 208.55 218.501 260.375 
208.488 218.737 260.262 208.552 218.886 260.074 212.138 218.79 259.825 
208.772 219.42 259.787 208.833 220.134 260.062 211.83 220.598 259.577 
211.884 220.576 259.686 211.37 221.165 259.463 211.769 220.732 259.704 
209.922 221.439 260.108 210.117 221.6 260.212 210.968 221.551 259.752 
210.235 217.507 260.169 211.955 220.147 260.083 212.057 219.713 260.339 
211.878 220.603 259.823 211.581 220.978 259.987 211.792 220.702 259.973 
209.859 221.53 260.691 210.987 221.614 259.975 211.096 221.565 260.104 
210.908 221.659 260.217 209.72 217.593 260.748 210.103 217.543 260.6 
210.946 217.565 260.216 211.559 217.784 260.022 208.581 218.281 260.998 
208.338 218.809 260.962 208.349 219.06 260.69 208.382 219.416 260.841 
208.573 220.041 260.962 208.737 220.319 260.761 209.235 220.983 261.176 
211.22 221.374 260.489 210.065 221.653 260.834 210.281 221.72 260.714 
210.535 221.709 260.73 208.998 217.943 261.379 210.362 217.646 260.921 
210.842 217.67 260.67 211.398 217.881 260.617 208.338 218.749 261.298 
208.369 219.292 261.175 212.007 219.477 260.814 208.625 220.093 261.234 
209.297 221.001 261.511 210.014 221.598 261.083 210.094 221.558 261.242 
210.767 221.602 260.912 210.526 221.63 261.068 210.668 221.586 261.118 
208.894 218.078 261.553 209.345 217.898 261.603 210.372 217.803 261.304 
210.191 217.917 261.556 208.981 218.183 261.798 208.378 218.715 261.497 
208.432 218.806 261.623 211.874 219.064 261.049 208.478 219.235 261.532 
208.625 219.666 261.617 211.512 219.883 261.466 211.408 220.292 261.451 
211.221 220.446 261.621 209.106 220.676 261.74 209.666 221.276 261.521 
210.802 221.02 261.58 208.969 218.357 261.978 209.213 218.305 261.998 
210.601 218.31 261.841 211.257 218.45 261.548 211.108 218.535 261.755 
208.864 218.491 261.992 211.296 218.666 261.664 211.408 218.998 261.639 
208.443 218.957 261.628 208.616 218.915 261.808 208.812 219.47 261.944 
210.971 220.37 261.894 209.35 220.72 262.002 210.423 220.95 261.842 
210.046 220.896 261.996 210.16 220.618 262.169 209.482 220.888 261.924 
209.476 218.932 262.379 209.777 218.852 262.391 210.424 218.893 262.345 
210.509 219.152 262.408 209.121 219.299 262.255 209.363 219.165 262.394 
210.782 219.335 262.27 210.513 219.471 262.451 209.292 220.13 262.255 
209.407 219.868 262.406 210.73 219.653 262.318 209.526 220.091 262.415 
209.721 220.165 262.445 210.456 220.099 262.352 210.02 219.097 262.506 
209.744 219.55 262.55 209.986 219.414 262.566 210.246 219.608 262.538 
209.949 220.064 262.485 206 219.009 194.017 206 219.009 194.017 

POLYGONS 608 2432
3 0 1 3 
3 1 0 4 
3 2 0 3 
3 4 0 2 
3 4 2 5 
3 2 3 6 
3 5 2 6 
3 11 23 7 
3 11 12 23 
3 12 13 8 
3 23 12 8 
3 11 9 10 
3 7 9 11 
3 10 15 11 
3 11 15 17 
3 1 17 3 
3 1 12 17 
3 12 11 17 
3 4 12 1 
3 13 12 4 
3 4 14 13 
3 15 16 17 
3 3 17 16 
3 5 19 4 
3 19 14 4 
3 16 18 3 
3 3 21 6 
3 3 18 21 
3 22 6 21 
3 19 5 6 
3 18 20 22 
3 21 18 22 
3 23 31 24 
3 23 8 32 
3 32 8 33 
3 25 33 8 
3 33 25 35 
3 9 24 10 
3 9 23 24 
3 7 23 9 
3 14 8 13 
3 14 26 8 
3 26 25 8 
3 50 35 25 
3 26 50 25 
3 16 10 24 
3 15 10 16 
3 27 50 26 
3 16 51 18 
3 26 14 27 
3 14 19 27 
3 18 51 20 
3 6 22 28 
3 28 55 6 
3 6 55 41 
3 6 41 19 
3 19 41 27 
3 29 22 20 
3 22 29 28 
3 29 30 28 
3 30 55 28 
3 29 20 42 
3 30 29 42 
3 23 32 31 
3 34 24 31 
3 34 68 24 
3 36 37 38 
3 68 16 24 
3 310 36 39 
3 49 16 68 
3 36 38 40 
3 39 36 40 
3 16 49 51 
3 52 20 51 
3 20 52 42 
3 42 43 44 
3 30 42 44 
3 31 32 45 
3 33 46 32 
3 33 35 46 
3 46 35 47 
3 35 50 47 
3 47 50 64 
3 37 48 38 
3 39 48 310 
3 38 48 311 
3 39 311 48 
3 49 82 51 
3 27 41 50 
3 50 41 53 
3 51 72 52 
3 41 55 53 
3 54 42 52 
3 42 54 43 
3 55 56 53 
3 43 54 44 
3 58 44 57 
3 58 59 44 
3 30 44 59 
3 30 59 55 
3 31 60 34 
3 45 61 31 
3 31 61 60 
3 45 62 61 
3 32 62 45 
3 46 76 32 
3 32 76 62 
3 46 77 76 
3 46 47 77 
3 65 66 67 
3 68 63 65 
3 68 34 63 
3 66 65 63 
3 65 67 70 
3 68 71 49 
3 68 65 71 
3 65 70 71 
3 64 50 69 
3 49 71 82 
3 72 51 82 
3 52 57 54 
3 56 55 83 
3 83 53 56 
3 44 54 57 
3 58 57 86 
3 55 59 73 
3 58 86 74 
3 59 58 74 
3 73 59 74 
3 77 75 76 
3 75 77 78 
3 78 77 79 
3 60 102 80 
3 34 60 80 
3 61 102 60 
3 62 76 61 
3 77 47 64 
3 34 80 63 
3 66 81 67 
3 66 63 81 
3 63 80 81 
3 67 71 70 
3 67 81 71 
3 81 82 71 
3 69 50 91 
3 91 50 92 
3 82 52 72 
3 93 52 82 
3 50 83 92 
3 53 83 50 
3 52 93 57 
3 93 94 57 
3 55 84 83 
3 94 86 57 
3 73 85 95 
3 84 55 73 
3 95 84 73 
3 74 86 87 
3 73 74 87 
3 87 85 73 
3 61 76 88 
3 76 75 88 
3 78 88 75 
3 88 78 79 
3 89 88 79 
3 79 90 89 
3 77 90 79 
3 90 77 64 
3 102 81 80 
3 64 69 90 
3 92 104 91 
3 83 84 92 
3 84 122 92 
3 86 94 109 
3 87 86 96 
3 86 109 96 
3 87 96 97 
3 95 85 87 
3 97 95 87 
3 99 98 61 
3 99 61 88 
3 100 88 89 
3 101 100 89 
3 98 102 61 
3 99 102 98 
3 127 89 90 
3 127 101 89 
3 127 90 91 
3 91 90 69 
3 102 114 81 
3 81 114 103 
3 81 103 82 
3 92 120 104 
3 82 103 93 
3 103 105 93 
3 122 120 92 
3 93 105 94 
3 122 123 120 
3 106 122 84 
3 109 94 105 
3 122 125 123 
3 125 122 107 
3 108 107 122 
3 107 108 106 
3 107 106 95 
3 95 106 84 
3 107 95 125 
3 96 109 110 
3 97 96 110 
3 125 97 110 
3 95 97 125 
3 99 88 112 
3 111 99 112 
3 88 100 101 
3 112 88 101 
3 102 99 113 
3 99 111 113 
3 113 111 112 
3 101 127 112 
3 115 114 113 
3 114 102 113 
3 112 115 113 
3 127 115 112 
3 116 114 117 
3 115 117 114 
3 91 104 118 
3 127 91 118 
3 114 116 103 
3 118 104 119 
3 116 121 103 
3 121 116 133 
3 119 104 120 
3 103 121 105 
3 109 136 124 
3 109 105 136 
3 106 108 122 
3 124 126 109 
3 109 126 110 
3 117 115 130 
3 130 115 127 
3 117 128 116 
3 130 129 117 
3 129 128 117 
3 127 118 130 
3 128 133 116 
3 130 119 129 
3 118 119 130 
3 128 131 133 
3 129 135 128 
3 135 131 128 
3 119 120 129 
3 120 135 129 
3 131 132 133 
3 134 132 131 
3 135 134 131 
3 120 123 135 
3 136 121 133 
3 139 137 138 
3 123 139 135 
3 138 135 139 
3 136 105 121 
3 136 137 124 
3 123 125 139 
3 124 137 126 
3 110 126 137 
3 139 110 137 
3 125 110 139 
3 132 140 133 
3 132 134 135 
3 140 132 135 
3 133 140 136 
3 136 140 137 
3 137 140 135 
3 138 137 135 
3 141 142 143 
3 143 144 145 
3 143 145 141 
3 148 142 141 
3 145 148 141 
3 147 146 149 
3 144 146 147 
3 144 147 145 
3 150 147 149 
3 147 148 145 
3 151 150 149 
3 147 150 151 
3 152 147 151 
3 183 142 153 
3 142 158 153 
3 158 155 154 
3 153 158 154 
3 183 156 157 
3 148 158 142 
3 158 159 155 
3 157 160 183 
3 183 160 144 
3 142 183 144 
3 143 142 144 
3 186 159 158 
3 210 146 160 
3 144 160 146 
3 158 148 162 
3 162 148 161 
3 163 186 158 
3 162 163 158 
3 164 146 210 
3 168 164 210 
3 146 164 149 
3 161 147 152 
3 148 147 161 
3 162 161 152 
3 167 163 162 
3 152 167 162 
3 149 164 165 
3 164 168 165 
3 149 165 151 
3 165 152 151 
3 166 167 152 
3 152 165 169 
3 169 165 168 
3 170 166 169 
3 169 166 152 
3 169 168 195 
3 170 169 195 
3 172 171 174 
3 173 172 174 
3 177 175 176 
3 175 177 178 
3 178 177 179 
3 201 180 181 
3 181 183 182 
3 176 153 177 
3 176 183 153 
3 154 177 153 
3 154 155 179 
3 154 179 177 
3 180 184 185 
3 156 181 157 
3 181 180 157 
3 183 181 156 
3 155 159 186 
3 180 185 187 
3 160 180 188 
3 160 157 180 
3 180 187 188 
3 189 155 186 
3 160 188 210 
3 189 163 190 
3 186 163 189 
3 190 209 189 
3 190 163 191 
3 163 167 191 
3 209 190 191 
3 210 211 168 
3 167 166 170 
3 194 168 211 
3 192 193 170 
3 193 167 170 
3 194 195 168 
3 195 171 170 
3 170 171 192 
3 172 192 171 
3 193 192 173 
3 193 173 174 
3 172 173 192 
3 194 217 195 
3 171 195 196 
3 171 196 174 
3 196 195 197 
3 195 217 197 
3 175 198 176 
3 175 178 199 
3 198 175 199 
3 178 179 199 
3 184 200 185 
3 184 180 201 
3 184 201 200 
3 181 219 201 
3 181 182 219 
3 198 183 176 
3 198 202 183 
3 202 182 183 
3 199 202 198 
3 203 202 199 
3 179 203 199 
3 179 204 203 
3 204 179 155 
3 205 204 155 
3 205 155 209 
3 208 206 207 
3 187 185 208 
3 206 208 185 
3 155 189 209 
3 188 187 210 
3 210 187 208 
3 236 210 208 
3 211 210 236 
3 191 213 221 
3 191 167 213 
3 212 213 193 
3 213 167 193 
3 193 174 214 
3 193 214 215 
3 193 215 212 
3 213 212 215 
3 216 217 194 
3 197 218 196 
3 214 174 196 
3 214 196 218 
3 197 217 226 
3 226 218 197 
3 201 229 200 
3 182 231 219 
3 202 231 182 
3 202 203 231 
3 204 205 203 
3 200 206 185 
3 206 233 207 
3 208 207 236 
3 236 237 211 
3 213 220 221 
3 209 191 221 
3 211 238 194 
3 238 239 194 
3 215 223 224 
3 214 223 215 
3 222 213 215 
3 224 222 215 
3 194 239 225 
3 217 216 225 
3 216 194 225 
3 227 218 226 
3 227 214 218 
3 227 223 214 
3 217 225 242 
3 226 217 242 
3 228 226 242 
3 227 226 228 
3 200 229 244 
3 219 230 201 
3 201 230 229 
3 205 232 203 
3 203 232 231 
3 232 205 209 
3 200 244 206 
3 244 233 206 
3 233 263 234 
3 207 233 234 
3 207 234 235 
3 236 207 235 
3 265 209 250 
3 250 209 221 
3 211 237 238 
3 222 220 213 
3 224 220 222 
3 224 223 220 
3 223 240 220 
3 253 225 239 
3 227 228 240 
3 240 223 227 
3 225 253 241 
3 242 225 241 
3 242 243 228 
3 229 259 244 
3 219 245 230 
3 230 245 229 
3 231 246 219 
3 219 246 245 
3 231 247 246 
3 232 247 231 
3 232 209 247 
3 244 263 233 
3 247 209 265 
3 234 263 248 
3 249 235 234 
3 249 234 248 
3 235 249 236 
3 249 267 236 
3 267 237 236 
3 251 237 267 
3 221 240 250 
3 237 251 238 
3 251 271 238 
3 221 220 240 
3 252 272 239 
3 252 239 271 
3 271 239 238 
3 255 257 240 
3 239 272 253 
3 272 254 253 
3 255 256 257 
3 253 254 241 
3 256 255 243 
3 256 243 241 
3 241 243 242 
3 228 243 255 
3 240 228 255 
3 258 244 259 
3 229 261 259 
3 260 261 245 
3 245 261 229 
3 245 246 277 
3 260 245 277 
3 277 246 247 
3 258 262 263 
3 258 263 244 
3 259 262 258 
3 247 265 277 
3 263 264 282 
3 263 282 248 
3 248 282 266 
3 249 248 266 
3 266 267 249 
3 250 268 265 
3 269 270 268 
3 269 268 240 
3 240 268 250 
3 269 240 270 
3 252 271 272 
3 287 273 257 
3 270 257 273 
3 240 257 270 
3 257 254 287 
3 257 256 254 
3 256 241 254 
3 262 279 263 
3 274 279 262 
3 274 262 275 
3 275 262 259 
3 261 275 259 
3 260 276 261 
3 277 278 260 
3 260 278 276 
3 277 280 278 
3 280 277 281 
3 281 277 265 
3 264 283 282 
3 264 263 283 
3 263 279 283 
3 267 284 251 
3 266 284 267 
3 266 283 284 
3 266 282 283 
3 265 268 281 
3 281 268 301 
3 251 284 271 
3 270 285 301 
3 301 268 270 
3 287 288 289 
3 287 289 270 
3 270 289 285 
3 271 286 290 
3 272 271 290 
3 288 272 290 
3 287 272 288 
3 270 273 287 
3 287 254 272 
3 275 279 274 
3 279 275 291 
3 275 261 292 
3 291 275 292 
3 261 276 293 
3 292 261 293 
3 293 276 278 
3 280 281 278 
3 295 291 296 
3 295 279 291 
3 297 294 293 
3 298 294 297 
3 278 297 293 
3 283 279 284 
3 284 300 299 
3 284 295 300 
3 284 279 295 
3 301 298 297 
3 278 301 297 
3 278 281 301 
3 299 286 271 
3 284 299 271 
3 302 299 300 
3 302 303 299 
3 303 286 299 
3 301 285 304 
3 286 289 288 
3 286 303 289 
3 303 304 289 
3 285 289 304 
3 288 290 286 
3 292 296 291 
3 292 293 305 
3 296 292 305 
3 296 306 295 
3 305 307 296 
3 307 306 296 
3 293 307 305 
3 294 298 293 
3 295 306 300 
3 293 308 307 
3 308 306 307 
3 298 301 308 
3 293 298 308 
3 303 302 300 
3 303 300 309 
3 309 300 306 
3 308 309 306 
3 301 304 309 
3 308 301 309 
3 304 303 309 

POINT_DATA 312
SCALARS scalars float
LOOKUP_TABLE default
1 1 1 1 1 1 1 1 1 
1 1 1 1 1 1 1 1 1 
1 1 1 1 1 1 1 1 1 
1 1 1 1 1 1 1 1 1 
1 1 1 1 1 1 1 1 1 
1 1 1 1 1 1 1 1 1 
1 1 1 1 1 1 1 1 1 
1 1 1 1 1 1 1 1 1 
1 1 1 1 1 1 1 1 1 
1 1 1 1 1 1 1 1 1 
1 1 1 1 1 1 1 1 1 
1 1 1 1 1 1 1 1 1 
1 1 1 1 1 1 1 1 1 
1 1 1 1 1 1 1 1 1 
1 1 1 1 1 1 1 1 1 
1 1 1 1 1 1 1 1 1 
1 1 1 1 1 1 1 1 1 
1 1 1 1 1 1 1 1 1 
1 1 1 1 1 1 1 1 1 
1 1 1 1 1 1 1 1 1 
1 1 1 1 1 1 1 1 1 
1 1 1 1 1 1 1 1 1 
1 1 1 1 1 1 1 1 1 
1 1 1 1 1 1 1 1 1 
1 1 1 1 1 1 1 1 1 
1 1 1 1 1 1 1 1 1 
1 1 1 1 1 1 1 1 1 
1 1 1 1 1 1 1 1 1 
1 1 1 1 1 1 1 1 1 
1 1 1 1 1 1 1 1 1 
1 1 1 1 1 1 1 1 1 
1 1 1 1 1 1 1 1 1 
1 1 1 1 1 1 1 1 1 
1 1 1 1 1 1 1 1 1 
1 1 1 1 1 1 
NORMALS Normals float
-0.170286 0.0174495 -0.98524 -0.195767 -0.248708 -0.948588 0.037785 0.376292 -0.92573 
-0.421925 0.279504 -0.862471 0.369532 -0.098382 -0.923995 0.451919 0.317199 -0.833759 
0.220608 0.58219 -0.782552 -0.228026 -0.606985 -0.761297 0.41636 -0.584046 -0.696804 
-0.451392 -0.512471 -0.730492 -0.756816 -0.342383 -0.55678 -0.24189 -0.471124 -0.848252 
0.0302006 -0.486985 -0.872888 0.436615 -0.373266 -0.81856 0.640553 -0.0974925 -0.7617 
-0.665078 -0.322502 -0.673545 -0.8233 0.00140317 -0.567605 -0.346124 -0.236608 -0.907863 
-0.654814 0.38848 -0.648307 0.621006 0.211207 -0.754814 -0.626972 0.521684 -0.578577 
-0.363844 0.554647 -0.748321 -0.254327 0.60848 -0.751711 -0.120846 -0.752333 -0.647604 
-0.624612 -0.55117 -0.553237 0.726914 -0.184831 -0.661387 0.753253 -0.0417268 -0.656406 
0.642442 0.282298 -0.712444 0.197585 0.692173 -0.694159 -0.257395 0.742578 -0.618325 
0.0840432 0.784213 -0.614774 -0.418287 -0.862071 -0.286129 0.0673964 -0.902358 -0.425684 
0.502279 -0.643489 -0.577614 -0.739377 -0.655608 -0.153296 0.834166 -0.375444 -0.40399 
0 0 -1 -0.83205 -0.5547 0 -1 0 2.78775e-08 
1 0 2.78775e-08 0 0.5547 -0.83205 0.690146 0.391482 -0.608638 
-0.494291 0.678862 -0.542976 -0.561842 0.761038 -0.324276 -0.298814 0.871027 -0.389901 
-0.254313 -0.938951 -0.231724 0.499231 -0.818922 -0.283083 0.84218 -0.515638 -0.15764 
0 0 1 -0.959363 0.174013 -0.222129 0.957932 -0.00226701 -0.286986 
-0.917611 0.295531 -0.265804 -0.79511 0.57994 -0.177395 0.844874 0.358574 -0.397005 
-0.674637 0.675941 -0.296595 0.576324 0.682015 -0.450229 0.766112 0.60663 -0.212304 
-0.640901 0.755453 -0.136149 -0.28493 0.918546 -0.274023 0.125247 0.892772 -0.432749 
-0.680414 -0.724619 0.109379 -0.383226 -0.916842 0.111976 -0.103484 -0.984548 -0.141269 
-0.820364 -0.569538 0.0512839 0.889187 -0.454204 -0.0551868 -0.918968 -0.30555 -0.249274 
-0.78289 -0.604383 0.147662 -0.931898 -0.263971 0.248768 -0.920401 -0.274798 -0.278116 
0.966505 -0.249111 0.0617368 -0.994453 0.0934273 -0.0483146 -0.984468 0.1398 0.106202 
-0.944932 0.324771 -0.0403511 0.471573 0.86152 -0.188155 0.00373322 0.992207 -0.124548 
0.130412 -0.991405 0.0104629 0.0381443 -0.997247 -0.0635809 0.553494 -0.82517 -0.112866 
0.40673 -0.912793 0.0371513 0.632816 -0.766002 0.113071 -0.815584 -0.522585 0.24845 
-0.866096 -0.262405 0.425466 -0.96114 0.202855 0.187242 0.904182 0.423987 -0.0518634 
0.749361 0.660892 0.0409839 0.517757 0.854015 -0.0508546 -0.415421 0.909593 0.00813243 
0.183378 0.98293 -0.0148598 0.105493 -0.92339 0.369083 0.692006 -0.649166 0.31577 
0.824669 -0.520649 0.22101 0.920633 -0.225874 0.318459 0.963385 0.122392 0.238558 
-0.885382 0.413045 0.213289 -0.744993 0.662399 0.0788232 0.604816 0.789815 0.10193 
-0.109384 0.979833 0.167219 0.346437 0.919548 0.185506 -0.335202 -0.845441 0.415776 
-0.160708 -0.815175 0.556473 0.277378 -0.801532 0.529724 0.363779 -0.639177 0.677582 
-0.594069 -0.570661 0.566946 -0.83304 -0.0762623 0.547931 0.837767 -0.0381185 0.544696 
-0.821398 0.414019 0.392293 0.650039 0.757698 0.0578229 0.546822 0.714175 0.436966 
0.629083 0.648917 0.427972 -0.468652 0.800965 0.372587 0.0903898 0.88295 0.460683 
0.0197013 -0.537338 0.843137 0.149646 -0.633555 0.759088 -0.215317 -0.506483 0.834933 
-0.580763 -0.401508 0.708171 -0.0998506 -0.500169 0.860152 -0.535267 -0.239085 0.810141 
-0.242707 -0.412671 0.87795 0.664476 -0.231655 0.710498 0.522695 -0.0569605 0.850615 
0.659038 0.0660686 0.749202 -0.763674 0.0736426 0.641389 0.694915 0.531432 0.484431 
0.46364 0.412715 0.78403 -0.370467 0.669293 0.644051 0.423001 0.797919 0.429413 
-0.100847 0.791663 0.602577 0.576021 -0.428185 0.696317 -0.189038 -0.273742 0.943043 
0.170507 -0.211214 0.962453 0.227149 -0.328121 0.916919 -0.181428 -0.260938 0.948153 
-0.280012 0.0143785 0.959889 -0.525486 -0.122814 0.841892 -0.0571006 -0.00113854 0.998368 
0.0623026 0.0217609 0.99782 -0.586283 0.431223 0.685798 -0.186627 0.489834 0.851606 
-0.112511 0.186499 0.975992 0.110983 0.560973 0.820361 -0.331108 0.155014 0.930773 
0.335056 -0.345053 -0.876741 0.00160176 -0.624127 -0.781321 -0.250952 -0.424498 -0.869957 
-0.429353 -0.423243 -0.797823 0.0767801 -0.142527 -0.986808 -0.612334 -0.0723843 -0.787279 
-0.0676023 0.0861866 -0.993983 0.513607 -0.0785648 -0.854421 -0.467311 0.218209 -0.856741 
-0.241005 0.236993 -0.941143 -0.130571 0.378221 -0.916461 0.307514 0.363442 -0.8794 
-0.035398 -0.517495 -0.854954 0.468235 -0.345118 -0.813419 0.791038 -0.438826 -0.426253 
-0.286905 -0.561764 -0.775955 -0.432195 -0.461092 -0.774985 0.541158 -0.165413 -0.824492 
0.735937 -0.11029 -0.668007 -0.586253 -0.308954 -0.748902 0.481421 0.2603 -0.836945 
0.662289 0.163489 -0.731194 0.801228 0.0905384 -0.591469 -0.654844 0.198461 -0.729241 
-0.281726 0.466866 -0.838252 0.475752 0.399469 -0.783636 0.732334 0.277242 -0.621951 
-0.514963 0.464983 -0.720142 -0.0306962 0.513011 -0.857833 0.319925 0.514499 -0.795574 
-0.135282 0.708054 -0.693078 0.175191 0.633393 -0.753738 0.684851 0.439183 -0.581461 
0.462973 0.779059 -0.422756 -0.0480663 -0.899839 -0.433566 -0.244788 -0.741812 -0.624335 
0.296997 -0.558296 -0.77466 0.407717 -0.867189 -0.285921 0.705124 -0.667387 -0.239572 
-0.600943 -0.542239 -0.587235 -0.370455 -0.828748 -0.419451 -0.149176 -0.968882 -0.197519 
-0.252587 -0.754125 -0.606213 -0.588173 -0.702408 -0.400844 -0.745307 -0.474544 -0.468322 
0.852313 -0.0922291 -0.514837 -0.738494 -0.280644 -0.613079 -0.725098 -0.214429 -0.654411 
0.935272 -0.272993 -0.225259 0.899811 0.053102 -0.433036 0.923021 0.154979 -0.352155 
0.357043 0.356971 -0.863187 0.75034 0.341146 -0.566223 -0.616537 0.670125 -0.413297 
-0.180371 0.706567 -0.684273 0.247332 0.844236 -0.475492 -0.129882 0.868609 -0.478173 
-0.17649 -0.976103 -0.126785 0.275895 -0.959136 0.062779 -0.583178 -0.80576 -0.103217 
-0.306386 -0.938295 -0.160406 0.0191822 -0.999346 0.030666 0.453995 -0.874605 0.170158 
0.730034 -0.68207 -0.0427891 0.826143 -0.558075 0.0777177 -0.762845 -0.581992 -0.281695 
-0.936845 -0.169937 -0.305686 -0.862944 -0.173123 -0.474717 0.962621 -0.253792 0.0946028 
-0.800642 0.0881876 -0.592618 -0.837313 0.39133 -0.381796 0.802258 0.350185 -0.48348 
0.939008 0.25078 -0.235315 0.698307 0.668956 -0.254686 0.752542 0.62818 -0.19766 
-0.611513 0.73401 -0.295433 -0.311764 0.885868 -0.343572 0.336981 0.887734 -0.313642 
-0.0350819 -0.999377 -0.00386801 0.873155 0.342291 0.347041 0.960501 0.245122 0.131733 
0.8898 0.4522 0.061406 0.789555 0.584368 0.187396 0.796561 0.515809 0.315328 
-0.598131 0.794827 -0.102414 0.0365506 0.97563 -0.216358 0.636921 0.769023 -0.0541841 
0.322266 0.945533 0.0459597 -0.177776 -0.964763 0.193979 -0.0297393 -0.992675 0.117096 
0.215907 -0.964798 0.150161 0.648442 -0.714779 0.261942 -0.833411 -0.550393 -0.0499317 
-0.925096 -0.366999 -0.0975177 -0.982627 0.0701677 -0.171814 -0.954859 0.243522 -0.17012 
-0.94242 0.334408 -0.00401754 -0.819732 0.567784 -0.0752316 -0.715042 0.699024 0.00897993 
0.788309 0.543662 0.288099 -0.178468 0.966944 0.182123 -0.15444 0.986897 -0.046722 
0.115888 0.97056 0.211146 -0.558652 -0.824502 0.0900179 0.157948 -0.931063 0.328897 
0.251292 -0.898896 0.358941 0.632848 -0.684542 0.36181 -0.982495 -0.121364 0.141332 
-0.975425 0.176136 0.132369 0.929564 0.153537 0.335167 -0.841571 0.449698 0.299217 
-0.666511 0.703903 0.245525 -0.424982 0.886642 0.182363 -0.0269901 0.878753 0.476514 
0.420902 0.878168 0.227292 0.0866753 0.954504 0.285324 0.432777 0.743492 0.509827 
-0.582187 -0.727212 0.363622 -0.19237 -0.847715 0.494342 0.321153 -0.812443 0.486618 
0.0772527 -0.79103 0.606881 -0.490289 -0.667711 0.56016 -0.780687 -0.524757 0.339349 
-0.711968 -0.260283 0.652192 0.856115 -0.222727 0.466326 -0.868724 0.203544 0.45154 
-0.879694 0.318368 0.353242 0.822208 0.175072 0.541593 0.859785 0.330476 0.389301 
0.654104 0.419695 0.629289 -0.748593 0.537927 0.387611 -0.351384 0.816637 0.457858 
0.519869 0.541293 0.660862 -0.351797 -0.530223 0.771429 -0.115916 -0.565945 0.816253 
0.302273 -0.681037 0.666948 0.614008 -0.609013 0.502093 0.572851 -0.396976 0.717113 
-0.56262 -0.270912 0.781067 0.72463 -0.301811 0.619534 0.744358 -0.141106 0.652702 
-0.880251 0.15267 0.449276 -0.670505 -0.07244 0.73836 -0.724049 0.197061 0.660999 
0.535949 0.429932 0.726579 -0.357297 0.520145 0.77575 0.258076 0.628576 0.733682 
0.0043605 0.64093 0.767587 0.217692 0.54355 0.810656 -0.368664 0.686141 0.627135 
-0.316479 -0.304799 0.898297 -0.0231191 -0.446362 0.894554 0.233539 -0.386526 0.89222 
0.295768 -0.229052 0.927392 -0.56411 -0.0484769 0.824275 -0.289629 -0.174421 0.941112 
0.639509 -0.154683 0.753061 0.283995 -0.0638072 0.9567 -0.586111 0.351674 0.729931 
-0.413533 0.116501 0.903005 0.594812 0.118079 0.795145 -0.365048 0.335129 0.868578 
-0.131438 0.419688 0.898102 0.313766 0.395963 0.862997 0.00623285 -0.284369 0.958695 
-0.21429 0.0537347 0.975291 0.0399253 -0.128157 0.99095 0.211128 0.0657009 0.975248 
0.0706013 0.250406 0.965563 0.83205 -0.5547 0 0 0.5547 0.83205 

