# vtk DataFile Version 4.2
vtk output
ASCII
DATASET POLYDATA
POINTS 984 float
250.76 231.464 173.291 251.578 234 173.081 254.704 229.421 174.554 
250.432 232.268 173.282 255.338 236.426 173.526 250.671 237.446 173.901 
253.178 237.823 173.764 248.441 227.011 174.917 247.486 229.366 174.204 
260.446 232.403 175.735 262.406 236.996 175.496 243.504 227.236 175.702 
261.677 232.971 176.245 262.037 233.531 176.251 261.421 238.662 175.268 
260.294 239.506 175.151 248.901 240.127 175.734 263.172 239.637 176.123 
244.137 225.226 176.652 246.069 224.479 176.901 258.191 229.593 176.28 
262.168 232.775 176.806 262.303 232.548 177.204 264.503 238.698 176.709 
259.295 241.411 175.841 264.151 240.348 176.928 255.499 242.293 176.054 
262.857 241.474 177.044 258.149 242.886 176.837 243.072 224.418 177.694 
246.018 223.56 177.902 241.957 224.761 177.852 240.69 225.797 177.748 
259.036 229.484 177.057 244.685 239.637 177.675 264.714 239.838 177.297 
265.005 239.669 177.7 264.388 240.412 177.243 249.626 242.108 177.04 
262.895 241.729 177.354 262.657 241.923 177.561 242.73 223.767 178.704 
241.55 224.183 178.769 240.188 224.937 178.764 252.716 224.586 178.316 
245.503 229.488 180.772 259.966 229.748 177.797 247.633 232.292 180.322 
247.374 232.546 180.368 249.102 233.799 180.168 249.915 234.117 180.146 
250.081 233.823 180.172 264.609 234.807 178.158 249.029 234.278 180.26 
253.834 235.702 180.35 265.119 235.725 178.311 250.791 235.33 180.184 
252.527 235.863 180.181 254.052 235.962 180.312 254.617 236.285 180.396 
251.289 236.036 180.281 265.391 237.406 177.852 244.015 238.699 177.443 
243.174 239.259 178.485 265.222 239.453 178.354 264.802 240.18 177.909 
264.963 239.92 178.288 263.48 241.531 177.698 264.178 241.018 177.819 
250.931 243.432 178.761 263.02 241.799 177.816 256.345 243.777 177.894 
257.495 243.656 177.927 255.635 243.898 178.267 257.198 243.757 178.127 
247.462 222.267 179.768 241.112 223.964 180.025 241.67 223.904 179.216 
242.713 223.126 180.087 250.066 222.7 179.869 239.439 224.961 179.464 
238.88 225.265 179.517 236.796 226.621 180.244 237.549 226.089 179.868 
236.38 227.67 180.128 258.14 227.81 178.678 236.917 228.282 179.281 
237.628 228.49 178.737 245.116 228.679 181.106 259.283 228.703 178.658 
236.654 229.287 179.604 243.838 228.991 181.035 249.441 232.601 180.593 
250.548 233.138 180.724 263.095 232.345 179.158 246.766 232.228 180.537 
250.343 233.73 180.247 247.642 233.407 180.52 253.642 235.207 180.635 
248.273 234.124 180.523 254.655 235.919 180.572 249.607 235.113 180.352 
249.815 235.6 180.556 251.342 237.003 180.588 256.894 237.959 180.452 
258.038 237.472 180.774 258.069 238.035 180.55 265.62 238.128 178.325 
265.619 238.038 178.639 254.393 238.342 180.402 255.429 238.441 180.356 
262.569 239.012 180.181 256.126 239.152 180.331 244.87 241.072 179.241 
264.562 240.422 178.287 264.148 240.782 178.45 263.794 241.294 178.194 
263.718 241.247 178.398 248.968 243.108 179.366 249.504 243.312 179.693 
257.193 243.707 178.653 259.807 243.019 177.987 262.054 242.151 178.221 
262.854 241.812 178.191 250.151 243.423 179.475 256.938 243.783 178.621 
256.029 243.883 178.47 241.75 223.599 180.58 238.612 225.318 180.229 
238.176 225.536 180.197 237.372 226.038 180.546 237.869 225.752 180.037 
236.691 226.484 180.567 236.668 226.564 180.51 236.549 226.831 180.636 
243.837 227.182 181.518 236.331 227.318 180.759 242.41 227.432 181.362 
241.857 227.524 181.522 244.294 227.325 181.664 236.186 228.196 180.492 
243.508 228.122 181.167 245.342 228.751 181.18 236.042 228.915 180.748 
242.172 228.451 181.659 236.11 229.307 180.507 243.903 229.963 181.177 
247.669 230.826 181.049 244.084 230.443 181.231 243.951 230.871 181.598 
254.603 235.372 181.162 255.189 235.692 181.125 238.915 235.262 179.788 
255.906 236.012 181.192 248.328 235.061 181.331 256.9 236.365 181.369 
249.878 236.152 180.859 257.581 236.857 181.088 257.999 237.157 180.951 
265.452 237.093 178.975 265.545 237.68 178.986 265.447 238.632 179.022 
265.517 238.455 179.122 263.731 239.522 179.611 265.151 238.785 179.221 
265.42 238.499 179.193 261.201 241.401 179.326 263.586 241.043 178.676 
260.676 242.264 178.9 261.691 242.16 178.555 262.018 241.861 178.789 
249.459 243.305 180.083 252.835 243.598 179.409 242.919 222.547 182.074 
241.526 223.945 181.01 242.436 223.156 181.485 240.272 224.863 180.834 
241.817 224.326 181.478 242.275 223.909 181.872 242.562 224.198 182.228 
242.312 224.932 181.779 236.645 226.587 180.653 237.841 226.057 181.056 
241.304 225.876 181.371 240.204 226.504 181.613 236.166 227.876 180.896 
244.824 227.661 181.86 240.827 227.979 182.305 245.803 228.734 181.726 
235.933 229.113 181.245 243.023 229.589 181.612 262.46 231.352 180.933 
249.694 232.296 181.329 250.731 233.033 181.193 244.382 231.498 181.836 
236.31 232.187 181.764 253.415 234.662 181.434 255.051 235.401 181.76 
247.247 234.057 181.514 256.749 236.011 182.004 265.009 236.246 180.086 
238.389 236.081 181.299 265.044 236.853 179.975 249.744 236.658 181.382 
265.104 237.681 179.708 269 238.009 181.017 269 238.009 181.017 
269 238.009 181.017 269 238.009 181.017 269 238.009 181.017 
265.485 238.313 179.201 255.237 241.452 180.488 244.014 241.487 181.878 
261.615 241.701 179.056 256.033 242.989 179.762 249.291 243.178 180.508 
255.093 243.456 179.543 246.192 221.377 182.427 242.923 222.547 182.168 
243.267 222.35 182.758 248.338 221.64 182.083 242.453 223.442 181.968 
243.232 225.301 182.441 238.77 226.214 181.501 255.736 225.22 182.329 
238.795 226.598 181.844 236.263 227.791 181.576 245.268 227.98 182.157 
246.085 228.96 181.898 235.906 229.271 181.738 241.582 228.982 182.607 
249.234 231.95 181.861 235.967 231.3 182.476 250.135 232.598 181.56 
252.514 234.119 181.671 264.302 234.109 180.724 237.363 234.41 181.767 
237.472 235.083 182.662 257.643 236.099 182.546 260.39 236.223 182.59 
248.512 235.582 181.975 249.045 236.2 181.881 250.323 238.063 181.949 
269 238.009 181.017 251.37 238.9 181.484 240.442 239.401 182.185 
245.239 241.983 182.525 244.626 241.863 182.531 251.402 242.924 180.822 
252.228 242.907 180.672 243.01 222.684 182.76 242.933 223.72 183.288 
243.158 224.631 183.204 236.702 227.479 181.996 236.278 228.294 182.214 
236.056 228.782 182.058 246.179 229.095 182.817 241.063 228.845 183.485 
248.394 231.385 182.284 249.705 232.475 182.255 236.141 232.128 183.594 
236.197 232.485 183.418 245.609 232.697 182.676 237.238 234.589 183.151 
254.66 235.305 182.567 256.015 235.737 182.706 248.826 236.074 182.37 
251.687 240.129 181.679 252.782 241.427 181.225 253.263 241.958 180.964 
243.46 225.213 183.363 237.144 227.497 182.421 245.303 227.983 183.06 
238.814 227.851 183.634 246.375 229.545 183.128 249.257 232.996 183.167 
262.837 232.494 182.758 236.325 232.188 184.089 244.088 231.331 183.18 
263.393 233.356 182.337 236.332 232.801 183.378 246.067 232.738 183.269 
252.57 234.763 183.066 246.041 232.949 182.934 253.925 235.347 183.26 
255.951 235.805 183.204 248.587 235.575 183.012 257.365 236.069 183.965 
261.668 235.28 183.346 249.668 237.702 183.412 249.833 238.602 183.363 
250.109 239.48 182.942 249.731 239.603 183.615 249.413 240.426 183.635 
244.445 241.383 184.14 249.622 240.996 183.017 241.78 240.458 183.442 
243.522 222.138 185.526 249.339 221.731 184.715 242.957 223.663 184.381 
243.127 224.676 184.388 255.838 225.253 184.484 237.734 228.48 184.813 
238.838 228.054 184.974 239.527 228.068 184.627 240.103 228.272 184.437 
260.059 229.206 184.413 236.072 230.173 183.549 236.494 230.805 184.792 
242.484 229.832 183.993 248.498 232.583 183.303 262.011 232.474 184.271 
247.759 232.912 183.564 263.224 233.494 182.654 246.67 232.743 183.528 
250.818 234.732 183.695 262.589 233.9 183.451 247.85 234.075 183.322 
253.627 235.597 183.781 238.282 235.849 185.131 248.964 236.062 183.189 
255.26 236.035 184.115 258.666 235.92 184.548 259.476 235.67 184.548 
249.718 237.248 183.844 254.144 236.404 184.814 258.165 236.053 185.379 
239.631 238.399 184.452 246.114 221.14 186.035 243.242 225.512 184.71 
243.091 225.894 185.059 237.872 228.641 185.64 239.938 227.902 185.37 
240.558 228.155 185.099 245.641 229.185 183.777 241.399 228.854 184.514 
246.408 230.575 183.701 242.056 229.231 184.448 236.924 231.472 185.658 
243.1 230.169 184.16 244.641 231.125 183.904 246.629 232.201 183.693 
261.805 233.48 184.661 249.825 235.43 183.909 261.262 234.404 184.773 
249.879 236.418 184.036 250.525 236.973 184.586 251.285 236.713 184.795 
249.989 238.059 184.445 251.792 237.759 185.874 255.107 236.897 185.78 
249.998 238.877 185.285 252.169 237.818 186.146 253.364 237.623 186.438 
257.34 236.539 186.65 254.589 237.485 186.902 248.793 240.249 185.059 
247.039 240.822 185.727 248.026 240.547 185.567 244.863 221.318 186.382 
242.926 222.512 187.523 243.556 222.062 187.418 244.111 221.731 186.91 
247.372 221.346 186.525 242.627 223.145 186.294 242.451 224.983 185.747 
239.39 227.196 187.284 239.97 226.557 187.393 239.061 227.605 187.303 
239.438 227.78 185.818 240.17 227.491 185.978 241.838 227.232 185.743 
241.638 227.574 185.633 242.946 227.784 185.18 241.716 228.074 185.327 
242.834 228.47 185.065 259.064 229.116 186.526 241.847 228.632 184.951 
242.792 228.955 184.906 243.187 229.997 184.356 242.722 229.519 184.551 
261.365 233.822 185.135 250.968 238.322 185.94 252.221 238.265 187.159 
255.106 237.427 187.306 249.203 239.755 186.228 242.238 224.012 186.317 
241.484 225.727 186.555 240.79 226.725 186.455 238.292 228.875 187.486 
238.159 229.756 187.784 242.842 229.31 184.741 260.017 231.487 187.096 
237.999 231.09 187.54 260.793 232.519 186.244 238.679 233.209 187.824 
260.281 233.277 186.915 259.814 233.992 187.276 258.503 235.62 187.438 
257.659 236.345 187.286 254.266 237.723 187.795 243.235 222.288 189.002 
243.881 221.987 188.69 245.267 221.56 188.226 239.767 226.473 188.927 
239.144 227.612 188.5 259.901 232.329 187.534 257.642 236.069 188.222 
[...]
POINT_DATA 984
SCALARS scalars float
LOOKUP_TABLE default
1 1 1 1 1 1 1 1 1 
1 1 1 1 1 1 1 1 1 
1 1 1 1 1 1 1 1 1 
1 1 1 1 1 1 1 1 1 
1 1 1 1 1 1 1 1 1 
1 1 1 1 1 1 1 1 1 
1 1 1 1 1 1 1 1 1 
1 1 1 1 1 1 1 1 1 
1 1 1 1 1 1 1 1 1 
1 1 1 1 1 1 1 1 1 
1 1 1 1 1 1 1 1 1 
1 1 1 1 1 1 1 1 1 
1 1 1 1 1 1 1 1 1 
1 1 1 1 1 1 1 1 1 
1 1 1 1 1 1 1 1 1 
1 1 1 1 1 1 1 1 1 
1 1 1 1 1 1 1 1 1 
1 1 1 1 1 1 1 1 1 
1 1 1 1 1 1 1 1 1 
1 1 1 1 1 1 1 1 1 
1 1 1 1 1 1 1 1 1 
1 1 1 1 1 1 1 1 1 
1 1 1 1 1 1 1 1 1 
1 1 1 1 1 1 1 1 1 
1 1 1 1 1 1 1 1 1 
1 1 1 1 1 1 1 1 1 
1 1 1 1 1 1 1 1 1 
1 1 1 1 1 1 1 1 1 
1 1 1 1 1 1 1 1 1 
1 1 1 1 1 1 1 1 1 
1 1 1 1 1 1 1 1 1 
1 1 1 1 1 1 1 1 1 
1 1 1 1 1 1 1 1 1 
1 1 1 1 1 1 1 1 1 
1 1 1 1 1 1 1 1 1 
1 1 1 1 1 1 1 1 1 
1 1 1 1 1 1 1 1 1 
1 1 1 1 1 1 1 1 1 
1 1 1 1 1 1 1 1 1 
1 1 1 1 1 1 1 1 1 
1 1 1 1 1 1 1 1 1 
1 1 1 1 1 1 1 1 1 
1 1 1 1 1 1 1 1 1 
1 1 1 1 1 1 1 1 1 
1 1 1 1 1 1 1 1 1 
1 1 1 1 1 1 1 1 1 
1 1 1 1 1 1 1 1 1 
1 1 1 1 1 1 1 1 1 
1 1 1 1 1 1 1 1 1 
1 1 1 1 1 1 1 1 1 
1 1 1 1 1 1 1 1 1 
1 1 1 1 1 1 1 1 1 
1 1 1 1 1 1 1 1 1 
1 1 1 1 1 1 1 1 1 
1 1 1 1 1 1 1 1 1 
1 1 1 1 1 1 1 1 1 
1 1 1 1 1 1 1 1 1 
1 1 1 1 1 1 1 1 1 
1 1 1 1 1 1 1 1 1 
1 1 1 1 1 1 1 1 1 
1 1 1 1 1 1 1 1 1 
1 1 1 1 1 1 1 1 1 
1 1 1 1 1 1 1 1 1 
1 1 1 1 1 1 1 1 1 
1 1 1 1 1 1 1 1 1 
1 1 1 1 1 1 1 1 1 
1 1 1 1 1 1 1 1 1 
1 1 1 1 1 1 1 1 1 
1 1 1 1 1 1 1 1 1 
1 1 1 1 1 1 1 1 1 
1 1 1 1 1 1 1 1 1 
1 1 1 1 1 1 1 1 1 
1 1 1 1 1 1 1 1 1 
1 1 1 1 1 1 1 1 1 
1 1 1 1 1 1 1 1 1 
1 1 1 1 1 1 1 1 1 
1 1 1 1 1 1 1 1 1 
1 1 1 1 1 1 1 1 1 
1 1 1 1 1 1 1 1 1 
1 1 1 1 1 1 1 1 1 
1 1 1 1 1 1 1 1 1 
1 1 1 1 1 1 1 1 1 
1 1 1 1 1 1 1 1 1 
1 1 1 1 1 1 1 1 1 
1 1 1 1 1 1 1 1 1 
1 1 1 1 1 1 1 1 1 
1 1 1 1 1 1 1 1 1 
1 1 1 1 1 1 1 1 1 
1 1 1 1 1 1 1 1 1 
1 1 1 1 1 1 1 1 1 
1 1 1 1 1 1 1 1 1 
1 1 1 1 1 1 1 1 1 
1 1 1 1 1 1 1 1 1 
1 1 1 1 1 1 1 1 1 
1 1 1 1 1 1 1 1 1 
1 1 1 1 1 1 1 1 1 
1 1 1 1 1 1 1 1 1 
1 1 1 1 1 1 1 1 1 
1 1 1 1 1 1 1 1 1 
1 1 1 1 1 1 1 1 1 
1 1 1 1 1 1 1 1 1 
1 1 1 1 1 1 1 1 1 
1 1 1 1 1 1 1 1 1 
1 1 1 1 1 1 1 1 1 
1 1 1 1 1 1 1 1 1 
1 1 1 1 1 1 1 1 1 
1 1 1 1 1 1 1 1 1 
1 1 1 1 1 1 1 1 1 
1 1 1 1 1 1 1 1 1 
1 1 1 
NORMALS Normals float
0.0722681 -0.14747 -0.986423 -0.219355 0.0720487 -0.972981 0.228023 -0.257635 -0.938951 
-0.0481041 0.0148045 -0.998733 0.131385 0.0652488 -0.989182 -0.22011 0.250627 -0.942729 
0.00562228 0.392109 -0.919902 0.0677726 -0.573464 -0.816423 -0.244964 -0.150419 -0.957793 
0.425875 -0.322233 -0.845456 0.421154 -0.113644 -0.899841 -0.305 -0.370173 -0.877466 
0.500139 -0.530858 -0.684143 0.573085 -0.186347 -0.798028 0.272601 0.281879 -0.919909 
0.191028 0.243246 -0.950968 -0.29249 0.540323 -0.788987 0.493006 0.179927 -0.851218 
-0.141217 -0.671728 -0.727213 -0.085989 -0.565229 -0.82044 0.451645 -0.649708 -0.61147 
0.669886 -0.464066 -0.579565 0.634447 -0.594871 -0.493564 0.672693 0.00927564 -0.739863 
0.210049 0.50947 -0.834458 0.622191 0.386502 -0.680804 -0.0545286 0.703691 -0.708411 
0.340133 0.622032 -0.705255 0.168045 0.720282 -0.673019 -0.213217 -0.684597 -0.69704 
-0.00795909 -0.785955 -0.618232 -0.299295 -0.684366 -0.664881 -0.480485 -0.513904 -0.710659 
0.531014 -0.62484 -0.572363 -0.48949 0.606628 -0.62642 0.738872 0.326688 -0.589358 
0.91432 0.280262 -0.292357 0.773849 0.318831 -0.54727 -0.269048 0.798217 -0.538947 
0.395161 0.802949 -0.446228 0.190634 0.933853 -0.302616 -0.244031 -0.840999 -0.482876 
-0.378711 -0.769857 -0.513711 -0.470324 -0.705784 -0.529778 0.381967 -0.792067 -0.476162 
-0.145047 0.331052 0.932398 0.662118 -0.589208 -0.46307 0.0442794 0.0795579 0.995846 
0.21339 -0.131063 0.968136 0.201122 -0.124112 0.971672 -0.0180927 -0.0427162 0.998923 
-0.173356 0.313738 0.93355 0.758106 -0.420284 -0.498635 0.368943 -0.367212 0.853836 
-0.296137 0.452394 0.841215 0.904196 -0.333591 -0.266734 0.0617692 -0.174299 0.982754 
-0.0188563 -0.0459985 0.998764 -0.221168 0.228458 0.948099 -0.285914 0.330084 0.89961 
-0.00459191 -0.134038 0.990966 0.894031 -0.114501 -0.433125 -0.501836 0.385227 -0.774442 
-0.57311 0.560978 -0.597369 0.938156 0.343686 -0.0417592 0.834724 0.527273 -0.158804 
0.839452 0.524425 0.142476 0.522987 0.84527 -0.109565 0.711726 0.695462 -0.098889 
-0.117241 0.967974 -0.221991 0.438618 0.897037 -0.0542057 0.0529082 0.947847 -0.314303 
0.214301 0.940223 -0.264679 -0.0733302 0.956145 -0.283564 0.19407 0.979088 -0.0610128 
0.00239455 -0.903781 -0.427988 -0.512349 -0.84957 -0.125413 -0.30966 -0.875569 -0.370797 
-0.336998 -0.892667 -0.299297 0.294037 -0.867109 -0.402076 -0.516717 -0.80716 -0.285474 
-0.516727 -0.748555 -0.415522 -0.756882 -0.473041 -0.450956 -0.60826 -0.553554 -0.568857 
-0.775717 -0.295235 -0.557763 0.563029 -0.800678 -0.204729 -0.646273 -0.219431 -0.730877 
-0.529181 -0.0223976 -0.848213 -0.427649 0.606077 0.670661 0.561875 -0.761457 -0.323235 
-0.796193 0.0625215 -0.601804 0.274691 -0.090708 0.957245 -0.42784 0.58844 0.686069 
-0.403427 0.750312 0.523716 0.77635 -0.616847 -0.12954 0.407495 -0.253774 0.877238 
-0.204665 0.257273 0.944417 0.425912 -0.367955 0.826564 -0.405183 0.730956 0.549118 
0.420605 -0.402236 0.813202 -0.413185 0.508418 0.755506 0.294952 -0.339872 0.893023 
0.444632 -0.454917 0.771591 0.374581 -0.376852 0.847155 -0.154952 0.120654 0.980527 
-0.077248 0.472598 0.877886 0.066499 0.275665 0.958951 0.987633 -0.00466798 -0.156712 
0.986439 0.162714 0.0215068 0.0579405 -0.137732 0.988773 0.0803502 -0.0970294 0.992033 
0.145632 0.510073 0.847713 -0.00809925 -0.0913583 0.995785 -0.480274 0.71912 -0.502199 
0.67851 0.532822 0.505693 0.622581 0.521577 0.583395 0.556182 0.792374 0.250611 
0.525489 0.735026 0.428484 -0.326251 0.919361 -0.219854 -0.344932 0.921711 -0.177402 
0.192713 0.773239 0.604122 0.319191 0.947238 -0.0292794 0.184278 0.980075 0.0741192 
0.410547 0.763108 0.499118 -0.278394 0.921726 -0.270034 0.218988 0.975532 0.0195462 
0.0363071 0.911991 0.408601 -0.512317 -0.856382 -0.064356 -0.484282 -0.864049 0.137439 
-0.448481 -0.875426 0.180262 -0.564586 -0.82494 -0.0267788 -0.53578 -0.764236 -0.359004 
-0.705059 -0.70508 0.0758536 -0.887733 -0.361703 -0.284781 -0.935426 -0.344668 -0.0786328 
-0.296507 0.322697 0.898861 -0.925806 -0.373472 -0.0583329 0.145911 -0.00720403 0.989272 
0.263144 -0.275602 0.924553 -0.419443 0.471814 0.775538 -0.975811 -0.0653077 -0.208632 
-0.0686534 0.277974 0.958132 -0.517414 0.61396 0.596101 -0.954823 -0.123851 -0.270135 
0.457503 -0.337171 0.822804 -0.908081 0.180746 -0.377783 0.52115 -0.438506 0.732199 
-0.617844 0.712519 0.332545 0.428386 -0.36288 0.827528 0.594982 -0.474862 0.648462 
-0.383749 0.785411 0.48566 -0.454646 0.689696 0.563575 -0.720348 0.384843 -0.577057 
-0.368261 0.816874 0.44396 0.570766 -0.578333 0.582886 -0.396934 0.799808 0.450278 
0.573186 -0.526598 0.627816 -0.213556 0.591178 0.777755 -0.316592 0.748047 0.583263 
0.939668 -0.109752 0.324003 0.981858 -0.153023 0.111974 0.813012 0.519907 0.262123 
0.897578 0.240441 0.369515 0.380994 0.547403 0.745113 0.505339 0.502258 0.701691 
0.568515 0.391025 0.723803 0.255818 0.373565 0.891631 0.371493 0.479723 0.794896 
0.249706 0.809029 0.532089 0.0770803 0.966878 0.243321 0.47193 0.504769 0.722835 
-0.143168 0.972782 0.182205 0.0120504 0.990236 0.138878 -0.796736 -0.603657 0.0284611 
-0.623793 -0.634741 0.456055 -0.772123 -0.607077 0.187842 -0.311649 -0.536957 0.783934 
-0.551446 -0.163229 0.818085 -0.778157 -0.160025 0.607341 -0.83102 0.157778 0.533396 
-0.572941 0.184369 0.79859 -0.885536 -0.443762 0.137482 -0.359149 -0.748847 0.556992 
-0.11644 -0.0884597 0.989251 0.0686427 -0.373597 0.925048 -0.995897 -0.0894244 0.0138996 
-0.673153 0.633887 0.380856 0.496287 -0.680571 0.539001 -0.646929 0.678475 0.348073 
-0.992683 -0.090537 -0.0798929 0.543615 -0.504915 0.670481 0.743337 -0.668509 -0.023363 
-0.609154 0.782674 0.127877 -0.564259 0.819402 0.100953 0.625979 -0.672143 0.395441 
-0.901932 0.328646 -0.280196 -0.445073 0.895487 -0.00366981 -0.377214 0.916428 0.133674 
0.668999 -0.661961 0.338006 -0.287097 0.947192 0.142836 0.891162 -0.114965 0.438878 
-0.817349 0.522671 -0.242393 0.798351 0.0611601 0.599079 0.64589 -0.570259 0.507573 
0.620665 0.26434 0.738173 0 -0.159641 -0.987175 0 -1 0 
-0.963361 -0.268207 4.13429e-08 0.963361 -0.268207 4.13429e-08 0 0.5547 -0.83205 
0.707974 0.077417 0.701982 0.115833 0.217053 0.969263 -0.440607 0.884922 -0.150927 
0.317895 0.50301 0.803694 0.17937 0.560354 0.808598 -0.255875 0.954137 0.155407 
0.111433 0.847585 0.518827 -0.0619052 -0.98625 -0.153227 -0.89738 -0.422328 0.12786 
-0.569067 -0.822273 0.00548403 0.341275 -0.931662 -0.124645 -0.895214 -0.262641 0.360017 
-0.724823 0.489788 0.484499 -0.0998199 -0.602933 0.791522 0.450868 -0.859736 -0.239943 
0.0436631 -0.697437 0.715315 -0.945462 -0.284838 0.158015 -0.682627 0.679266 0.269478 
-0.777853 0.599154 0.189627 -0.999923 0.00658156 0.0105419 0.627384 -0.631237 0.455993 
-0.576048 0.765848 -0.285738 -0.988606 0.148954 0.0217133 -0.569691 0.809087 0.144327 
-0.5479 0.835374 -0.0442292 0.891136 -0.272634 0.362694 -0.867878 0.407304 -0.284416 
-0.860988 0.483901 -0.156651 -0.193419 0.93674 0.29173 0.0341481 0.831942 0.553811 
0.740706 -0.635797 0.217064 0.701623 -0.616155 0.35788 0.694999 -0.379167 0.610908 
0 -0.159641 0.987175 0.665102 -0.219336 0.713815 -0.708825 0.661891 -0.243861 
-0.203299 0.974849 0.0913206 -0.259477 0.955868 0.137799 0.233237 0.80564 0.544559 
0.175939 0.688965 0.703117 -0.935351 -0.277945 0.218781 -0.968502 0.0365326 0.246311 
-0.927753 0.33617 0.162062 -0.690537 -0.575764 0.437783 -0.704163 -0.561653 0.434397 
-0.961079 -0.214337 0.174315 -0.812208 0.538232 -0.224998 0.599808 -0.792055 0.113481 
-0.626879 0.7303 -0.271449 -0.534667 0.783324 -0.317071 -0.931852 0.158479 0.326399 
-0.937702 0.325596 0.121255 0.620863 -0.744368 -0.245856 -0.909625 0.412437 0.0497798 
-0.290442 0.894391 -0.34016 -0.34534 0.938412 0.0111189 0.817201 -0.574298 0.0486198 
0.429245 -0.24513 0.869287 0.516032 0.0467804 0.855291 0.436509 0.169807 0.88353 
-0.896748 0.442528 0.0034088 -0.454064 -0.69812 0.553583 -0.800093 0.588604 -0.115741 
0.137591 -0.951454 0.275324 -0.756948 0.55091 -0.351464 -0.432561 0.635537 -0.639518 
0.847081 -0.349386 0.400479 -0.913031 0.152478 0.378319 0.572245 -0.776947 -0.262469 
0.950418 -0.0562564 0.305846 -0.860955 0.455444 0.226557 0.460389 -0.697675 -0.5489 
-0.353292 0.756092 -0.550918 0.588751 -0.700938 -0.402563 -0.351849 0.833127 -0.426734 
-0.242127 0.955638 -0.167724 0.753403 -0.520418 -0.401931 0.0149156 0.998907 -0.0442946 
0.46561 0.578085 0.670093 0.875624 -0.203292 -0.438127 0.96965 -0.23469 0.0685534 
0.846293 0.041896 0.531068 0.920399 0.332103 0.206333 0.748909 0.46482 0.47231 
-0.43163 0.8284 0.356999 0.600479 0.242225 0.762071 -0.506497 0.846884 0.162011 
-0.732348 -0.679902 -0.037409 0.327651 -0.942728 0.0625159 -0.982111 -0.175933 -0.0671273 
-0.91582 0.227514 -0.330926 0.568195 -0.802858 0.18048 -0.328328 -0.875974 0.35337 
-0.25928 -0.963029 0.0731354 0.115603 -0.983413 -0.139769 0.373652 -0.921604 -0.105031 
0.762621 -0.597562 0.247644 -0.945335 -0.16489 0.281341 -0.874721 -0.190593 0.445576 
0.504712 -0.795397 -0.335574 -0.446722 0.450211 -0.773143 0.814975 -0.199387 0.544114 
-0.0150051 -0.0077137 -0.999858 0.869505 0.184378 0.458221 0.217533 -0.477968 -0.851014 
-0.0576995 0.467985 -0.881851 0.76875 0.335345 0.54458 0.406059 -0.297148 -0.864187 
-0.127284 0.819484 -0.558789 -0.830385 0.497766 0.25038 0.809583 -0.298949 -0.505177 
0.130455 0.938538 -0.319575 0.306556 0.930402 0.200936 0.283966 0.872121 0.398458 
0.807866 -0.0542757 -0.586862 -0.197059 0.880485 -0.431177 0.324149 0.945278 -0.0370943 
-0.649666 0.670604 0.358084 0.00415717 -0.994971 0.100073 -0.828836 0.341085 -0.443499 
-0.689677 0.174232 -0.702843 -0.441731 -0.869034 0.222831 0.0671446 -0.914617 -0.398708 
0.15696 -0.767766 -0.621208 -0.685476 0.37882 -0.621787 0.376458 -0.832303 -0.406879 
-0.458264 0.210987 -0.863411 0.40697 -0.713732 -0.570055 -0.846293 0.139803 0.514045 
0.457304 -0.820632 -0.342689 0.292013 -0.58683 -0.755221 -0.0604274 -0.193939 -0.979151 
0.803008 -0.0105632 0.595874 0.238118 0.133586 -0.962005 0.535744 0.642665 0.547685 
0.582568 -0.0383656 -0.811876 0.566401 0.363721 -0.739525 0.439569 0.384386 -0.811804 
0.916506 0.153032 -0.369592 0.365801 0.66095 -0.655236 0.33629 0.860627 -0.3824 
0.819074 0.538544 -0.197708 0.29073 0.695353 -0.657237 0.263826 0.910086 -0.319593 
0.404404 0.91308 0.0523591 0.0741583 0.935055 -0.34666 0.560665 0.811144 0.166431 
0.22505 0.887156 0.402873 0.350552 0.923446 0.156081 -0.27774 -0.957844 0.0734522 
-0.694232 -0.714794 -0.0843303 -0.501966 -0.864415 -0.0285987 -0.526186 -0.848799 0.0516593 
0.131788 -0.980154 0.148091 -0.780402 -0.606593 -0.151712 -0.77897 -0.0841833 -0.621384 
-0.758332 -0.609983 -0.229899 -0.689481 -0.557482 -0.462417 -0.809159 -0.587062 -0.0248965 
-0.268073 -0.962932 -0.0299732 -0.366744 -0.778861 -0.508797 -0.403696 -0.343559 -0.847937 
-0.126503 -0.555408 -0.821899 -0.325758 -0.149938 -0.933488 -0.0765566 -0.472893 -0.877788 
-0.22031 -0.333167 -0.916768 0.761507 -0.515796 0.392508 0.155093 -0.604594 -0.781289 
0.0800006 -0.454677 -0.887056 0.0360859 -0.511177 -0.858718 0.390281 -0.580962 -0.714258 
0.713743 0.284412 0.640063 0.562283 0.576708 -0.59266 0.390661 0.865945 -0.312286 
0.404029 0.901259 -0.156499 0.499316 0.866272 -0.0159978 -0.858908 -0.294261 -0.419151 
-0.607376 -0.283221 -0.742214 -0.431168 -0.562129 -0.705766 -0.850188 -0.429259 0.304824 
-0.876543 -0.0610034 0.477443 0.174766 -0.481736 -0.858712 0.775451 -0.243956 0.582376 
-0.895388 -0.0588796 0.441378 0.855718 0.00604882 0.517407 -0.744353 0.259617 0.615254 
0.869139 0.141228 0.473974 0.787041 0.374094 0.490531 0.647858 0.729051 0.220825 
0.458362 0.876364 0.147952 0.245397 0.969141 0.0233693 -0.416226 -0.907762 0.0521909 
-0.379297 -0.922648 0.0696782 -0.185697 -0.962744 0.196572 -0.893021 -0.435416 0.113697 
-0.891858 -0.383574 0.239711 0.749621 -0.0503625 0.659948 0.558621 0.729819 0.39409 
0.391755 0.88682 0.245108 0.272972 0.917187 0.290265 -0.763928 -0.644671 -0.0285148 
-0.900856 -0.257965 0.349159 -0.830848 0.019072 0.556173 0.741351 0.1335 0.657706 
0.581489 0.630251 0.514446 0.291637 0.935257 0.200605 -0.276061 0.834566 0.47675 
0.37356 0.916677 0.141975 0.165128 0.935561 0.312184 -0.442029 -0.853111 0.277149 
0.181185 -0.930164 0.319322 -0.758942 -0.53412 0.372454 -0.547183 -0.727281 0.41431 
0.59892 -0.631672 0.492224 -0.820103 -0.0293038 0.571465 0.679586 0.129906 0.722002 
0.48137 0.702073 0.524764 0.409099 0.715075 0.566839 -0.095964 0.847945 0.521325 
0.190564 0.890334 0.413511 0.241118 0.874587 0.420665 -0.286569 -0.828303 0.481448 
0.293316 -0.827429 0.478881 0.507177 -0.518186 0.688662 0.734437 -0.264028 0.625213 
-0.494896 0.528334 0.689885 0.320782 0.817937 0.477575 0.301327 0.662166 0.686104 
0.123681 0.849659 0.512624 -0.102511 -0.889941 0.444406 -0.488688 -0.61035 0.623423 
0.092496 -0.758336 0.645268 -0.666512 -0.452186 0.592696 -0.836177 -0.312274 0.45088 
-0.806491 -0.14623 0.572878 -0.615488 0.0707093 0.784968 0.576666 -0.151297 0.802848 
0.542346 0.393413 0.742352 -0.229146 -0.65346 0.721445 -0.569297 -0.198818 0.797729 
0.387292 -0.662326 0.64135 0.505625 0.118454 0.854583 0.346888 0.462929 0.8157 
0.19709 0.663325 0.721911 -0.110571 0.6584 0.744502 0.0177223 -0.610972 0.791454 
-0.352313 -0.437763 0.827187 -0.199708 -0.379379 0.903432 0.296973 -0.145589 0.943722 
-0.373577 0.166891 0.912462 0.176337 0.0359895 0.983672 0.187694 0.267225 0.945178 
0.0445672 0.393438 0.91827 0.0584573 -0.572131 0.818076 -0.14631 -0.357432 0.922408 
-0.0845 -0.140295 0.986497 0.100371 -0.180265 0.978484 -0.343558 -0.0810179 0.93563 
-0.148745 0.184146 0.971579 0.0586634 -0.478544 -0.876102 -0.199279 0.0807381 -0.976611 
0.221782 0.0440834 -0.974099 0.0609048 0.207106 -0.976421 -0.300736 -0.375746 -0.876569 
0.403678 -0.488231 -0.773741 0.151799 -0.348605 -0.924896 0.619523 -0.242399 -0.746615 
-0.0278024 -0.102978 -0.994295 0.406196 -0.262621 -0.875234 0.243223 -0.0298427 -0.969511 
-0.400867 0.173494 -0.899559 -0.231127 0.211389 -0.949682 0.313655 0.221662 -0.923302 
-0.118532 0.489984 -0.863635 0.369366 0.305487 -0.877637 -0.449852 -0.593767 -0.667138 
-0.470481 -0.374751 -0.79888 0.397928 -0.549841 -0.73439 -0.558537 -0.0218184 -0.829193 
0.605223 -0.2493 -0.756013 0.474717 -0.0242581 -0.879804 -0.440732 0.336147 -0.832322 
0.178117 0.588633 -0.788534 -0.0978813 -0.719688 -0.687364 0.189922 -0.781021 -0.594925 
0.264209 -0.769449 -0.5815 -0.692058 -0.45985 -0.556412 0.652965 -0.055963 -0.755318 
0.581259 0.251186 -0.773979 0.422134 0.493654 -0.760335 -0.282616 0.574651 -0.768052 
-0.393481 -0.796424 -0.459218 -0.0713145 -0.892908 -0.444556 -0.801116 -0.434875 -0.411214 
-0.772954 -0.148314 -0.616884 0.632219 -0.520918 -0.573535 0.733858 0.107426 -0.670755 
0.500013 0.6216 -0.602993 -0.478711 -0.843975 -0.241955 -0.809147 -0.509625 -0.292513 
0.163464 -0.905051 -0.392635 0.390738 -0.675749 -0.62505 0.688002 -0.577842 -0.439035 
0.745534 0.212816 -0.631576 -0.376256 0.719463 -0.583785 0.130972 0.809986 -0.571637 
-0.697642 -0.7064 -0.119562 -0.449349 -0.891149 -0.0627525 -0.0863828 -0.961649 -0.260326 
0.384191 -0.783728 -0.488024 -0.88119 -0.470565 -0.0455378 0.412889 -0.793322 -0.447396 
-0.85399 -0.389809 -0.344601 -0.890328 -0.430475 -0.14835 0.719021 0.0721077 -0.691237 
-0.575616 0.549151 -0.605887 0.347808 0.864731 -0.362312 0.0616618 0.911817 -0.405939 
0.140004 0.954185 -0.264444 -0.803369 -0.595367 0.0116845 -0.892296 -0.331072 0.306918 
-0.744145 -0.63633 0.203307 -0.802215 -0.51652 0.29943 0.724593 -0.430234 -0.53839 
0.868213 -0.0861186 -0.488662 0.728511 0.286058 -0.622449 0.631215 0.672757 -0.385961 
0.653445 0.627445 -0.423465 0.555375 0.737408 -0.384433 0.401168 0.903451 -0.151133 
0.324057 0.929756 -0.174759 0.359282 0.93233 -0.0409465 0.296521 0.95283 -0.0647282 
-0.811072 -0.566953 0.143968 -0.731251 -0.46374 0.500218 -0.883924 -0.466036 -0.0385905 
-0.566488 -0.256386 0.783172 -0.297441 -0.547052 0.782472 -0.861775 -0.175915 -0.475813 
0.803167 -0.374246 -0.463533 0.840916 -0.254006 -0.477851 0.809185 0.101814 -0.578665 
0.635113 0.574348 -0.516484 0.430475 0.884319 0.180753 0.00630283 0.897408 -0.441157 
0.349933 0.911849 -0.214656 0.29275 0.952327 -0.0858496 0.0212071 -0.999188 -0.0342454 
-0.758074 -0.620815 0.199779 0.323698 -0.915757 -0.237928 0.584906 -0.79946 -0.136928 
-0.749521 -0.588591 0.30295 -0.819976 -0.247652 0.516051 -0.591175 -0.571365 0.569258 
-0.538209 -0.772334 0.337388 -0.710768 -0.670983 -0.211162 -0.841813 -0.531514 -0.0940379 
-0.111771 -0.795063 0.596139 0.0519814 -0.938262 0.341999 0.363639 -0.803758 0.470892 
0.168641 -0.696464 0.697494 -0.024378 -0.457134 0.889063 -0.87261 -0.0657993 -0.483964 
0.0188854 -0.245349 0.969251 0.230285 -0.565442 0.791987 0.143932 -0.587092 0.796622 
-0.134314 -0.23346 0.963045 -0.139482 -0.238968 0.960957 -0.716652 0.19694 -0.669047 
0.472201 0.848741 -0.238042 0.649608 0.745408 -0.149587 0.464812 0.872992 0.147769 
-0.370304 -0.928652 0.0219137 -0.893094 -0.318307 0.317905 -0.884799 -0.27089 0.379144 
-0.835345 -0.16459 0.524508 -0.846831 0.043106 0.530113 -0.714059 0.0978183 0.693218 
-0.700849 0.301577 0.646422 -0.649556 0.214142 0.729534 -0.802005 -0.458238 -0.383153 
0.438685 -0.863654 0.248309 -0.436885 -0.040173 0.89862 0.411896 -0.845734 0.339228 
0.323987 -0.626121 0.709228 0.525923 -0.720694 0.45167 0.179795 -0.559035 0.809415 
0.766048 -0.456289 -0.452738 0.448224 -0.683736 0.575847 0.165484 -0.499278 0.850492 
-0.0532614 -0.449637 0.891622 -0.875794 0.283623 -0.390567 -0.768018 0.535402 -0.351416 
0.275824 0.710716 0.647151 0.430459 0.899544 -0.0743377 0.799734 0.43852 0.410031 
0.588943 0.498534 0.63609 0.533853 0.663842 0.523751 0.461287 0.752212 0.470523 