# vtk DataFile Version 4.2
vtk output
ASCII
DATASET POLYDATA
POINTS 1014 float
351.131 151.041 45.1916 351.045 151.149 45.1752 351.305 150.867 45.2388 
348.679 153.88 44.7771 349.051 153.492 44.839 348.53 154.037 44.7571 
349.191 153.348 44.8616 347.95 154.623 44.6703 347.976 154.596 44.676 
347.549 155.013 44.6159 348.399 154.194 44.7372 348.744 153.867 44.7931 
349.154 153.441 44.8611 346.502 156.019 44.489 346.557 155.957 44.5005 
346.163 156.321 44.4578 347.191 155.375 44.5691 347.045 155.5 44.5548 
345.413 157.004 44.3966 347.308 155.354 44.6005 347.711 154.96 44.6564 
344.605 157.717 44.342 344.618 157.7 44.3491 344.457 157.838 44.3363 
344.981 157.386 44.3709 345.349 157.121 44.3827 344.303 157.983 44.3298 
343.885 158.352 44.3236 344.264 158.054 44.3278 345.76 156.836 44.4201 
341.67 160.099 44.2814 341.218 160.421 44.2872 342.501 159.485 44.2887 
342.327 159.611 44.3005 343.347 158.829 44.3022 346.207 156.552 44.4854 
340.752 160.748 44.2808 340.269 161.068 44.2955 341.917 159.953 44.2748 
339.732 161.417 44.2976 339.767 161.394 44.3098 339.2 161.744 44.3212 
342.634 159.496 44.2912 336.701 163.176 44.4374 337.88 162.52 44.3656 
338.72 162.038 44.3282 338.506 162.159 44.3494 335.885 163.638 44.4949 
335.853 163.654 44.505 335.533 163.842 44.5314 336.405 163.348 44.4514 
336.253 163.428 44.4715 342.116 160 44.3259 343.014 159.33 44.3436 
335.508 163.863 44.5268 335.191 164.052 44.5648 335.154 164.093 44.5621 
336.902 163.133 44.4196 337.93 162.59 44.3754 335.339 163.998 44.5429 
337.458 162.879 44.4137 338.169 162.49 44.3808 335.837 163.763 44.515 
336.9 163.19 44.4459 353.115 148.814 45.7557 352.689 149.325 45.6247 
352.41 149.654 45.5432 352.075 150.037 45.4491 351.808 150.342 45.3771 
351.522 150.649 45.2993 352.244 149.954 45.5071 352.399 149.792 45.5512 
352.896 149.195 45.6937 352.079 150.277 45.4729 350.866 151.413 45.1522 
350.413 152.034 45.0863 350.523 151.875 45.1023 349.757 152.754 44.9672 
349.644 152.964 44.9546 346.191 156.304 44.4731 346.891 155.667 44.548 
349.964 152.87 45.0479 350.776 152.146 45.2127 346.99 155.643 44.5734 
347.652 155.102 44.6582 348.771 154.059 44.8399 349.38 153.446 44.9418 
344.322 157.965 44.3408 344.747 157.609 44.3754 346.721 155.964 44.5604 
347.224 155.5 44.6068 348.22 154.632 44.7556 343.942 158.325 44.3514 
347.381 155.504 44.6471 347.826 155.046 44.7038 341.234 160.426 44.3033 
342.026 159.859 44.3122 346.971 155.923 44.5993 340.356 161.029 44.3125 
345.839 157.004 44.4914 346.665 156.228 44.5712 339.308 161.698 44.3366 
345.02 157.719 44.4223 345.424 157.375 44.4614 337.4 162.805 44.4124 
340.755 160.872 44.337 342.328 159.826 44.3481 344.535 158.15 44.403 
335.618 163.795 44.5324 341.719 160.322 44.3345 343.196 159.203 44.3638 
343.648 158.867 44.3702 335.269 164.005 44.5652 338.753 162.15 44.3764 
341.306 160.636 44.3313 334.904 164.24 44.596 334.856 164.266 44.6116 
337.677 162.761 44.4173 338.421 162.368 44.3845 338.738 162.196 44.3722 
339.222 161.915 44.3558 338.735 162.203 44.3689 339.83 161.573 44.3455 
340.203 161.356 44.3396 340.564 161.129 44.3324 334.123 164.722 44.7035 
334.149 164.708 44.7029 333.993 164.802 44.7221 334.473 164.507 44.6549 
334.424 164.539 44.6676 337.06 163.108 44.4454 338.387 162.39 44.381 
333.924 164.844 44.7304 333.909 164.854 44.7333 333.87 164.878 44.738 
333.971 164.818 44.7231 334.394 164.567 44.6638 334.937 164.258 44.5966 
335.522 163.949 44.552 336.533 163.396 44.4774 333.883 164.87 44.7357 
333.921 164.851 44.7307 333.98 164.82 44.723 334.413 164.568 44.6643 
334.735 164.387 44.6267 334.933 164.281 44.6096 334.065 164.771 44.7111 
334.219 164.684 44.6918 334.46 164.548 44.6633 356.278 144.441 46.906 
356.462 144.15 46.9882 356.183 144.58 46.8659 356.42 144.231 46.9694 
356.574 143.984 47.0397 355.848 145.099 46.7257 355.809 145.145 46.7106 
355.282 145.933 46.5053 355.528 145.565 46.5978 355.107 146.18 46.4391 
354.393 147.184 46.184 354.609 146.89 46.2565 354.272 147.347 46.1384 
353.756 148.021 45.9649 352.207 149.912 45.4899 353.076 149.061 45.75 
353.019 149.169 45.7359 353.714 148.302 45.9592 354.29 147.474 46.145 
352.937 149.318 45.7135 352.774 149.564 45.6718 352.716 149.655 45.657 
353.278 148.938 45.8248 352.298 150.164 45.5434 352.605 149.928 45.6351 
352.962 149.407 45.7336 349.811 153.01 45.0202 351.277 151.827 45.3244 
348.932 153.884 44.867 351.439 151.762 45.3628 348.192 154.657 44.756 
346.992 155.896 44.6082 344.892 157.828 44.4364 344.19 158.433 44.3969 
341.361 160.592 44.3387 340.073 161.429 44.3464 340.519 161.156 44.342 
340.961 160.875 44.3357 335.697 163.819 44.55 338.568 162.298 44.3765 
334.029 164.785 44.7189 334.338 164.601 44.6824 336.156 163.598 44.5122 
333.899 164.862 44.7345 333.98 164.818 44.7244 334.16 164.714 44.7033 
334.73 164.388 44.6406 335.473 163.976 44.5663 334.086 164.76 44.7105 
334.29 164.644 44.6865 334.929 164.283 44.6167 328.274 169.011 46.012 
328.274 169.011 46.0119 328.274 169.011 46.012 328.275 169.011 46.012 
328.274 169.011 46.012 328.274 169.011 46.012 328.275 169.011 46.012 
328.275 169.011 46.012 328.275 169.011 46.012 328.274 169.011 46.0121 
328.274 169.011 46.0121 328.274 169.011 46.0121 328.275 169.011 46.0121 
328.274 169.011 46.0121 357.116 143.148 47.3111 357.001 143.325 47.2514 
356.96 143.386 47.2307 356.735 143.73 47.1179 356.486 144.113 47.0019 
356.874 143.536 47.1901 357.101 143.206 47.3142 356.151 144.63 46.8545 
356.682 143.837 47.0949 355.808 145.149 46.7086 356.694 143.837 47.1049 
356.781 143.714 47.1478 356.247 144.532 46.8994 356.611 143.975 47.0651 
355.686 145.402 46.6577 355.358 145.913 46.5237 354.836 146.687 46.3315 
355.139 146.244 46.4404 353.244 148.982 45.816 352.696 149.778 45.6608 
352.263 150.426 45.5472 351.863 151.024 45.4519 351.618 151.477 45.3999 
351.542 151.67 45.3861 328.274 169.011 46.012 328.274 169.011 46.0121 
328.275 169.011 46.012 326 170.009 47.0174 326 170.009 47.0175 
326 170.009 47.0175 326 170.009 47.0175 328.274 169.011 46.0121 
325 171.009 47.0174 325 171.009 47.0175 325 171.009 47.0175 
326 170.009 47.0175 325 171.009 47.0175 327.004 171.013 47.0087 
327.004 171.013 47.0087 327.004 171.013 47.0087 327.004 171.013 47.0088 
325 171.009 47.0175 327.004 171.013 47.0088 357.413 142.745 47.4903 
357.559 142.569 47.5902 356.572 143.991 47.0454 356.803 143.646 47.1566 
357.149 143.151 47.3433 357.102 143.222 47.3163 357.56 142.586 47.5968 
356.575 144.003 47.0462 356.961 143.438 47.2412 356.968 143.43 47.2464 
356.996 143.391 47.2606 356.413 144.267 46.9743 356.762 143.742 47.1403 
356.781 143.716 47.1483 356.054 144.822 46.8142 356.62 143.96 47.0708 
355.76 145.28 46.6902 354.931 146.542 46.3652 326 170.009 47.0175 
325 171.009 47.0175 327.004 171.013 47.0088 357.709 142.377 47.6889 
357.759 142.316 47.7229 357.781 142.293 47.7393 357.196 143.096 47.3749 
357.77 142.311 47.7344 357.774 142.309 47.7375 357.775 142.305 47.7374 
356.965 143.439 47.2446 357.835 142.231 47.7788 357.844 142.22 47.7841 
357.836 142.231 47.779 356.837 143.632 47.177 357.858 142.203 47.7942 
357.816 142.253 47.7642 357.844 142.22 47.784 290 189.009 57.0174 
290 189.009 57.0175 290 189.009 57.0175 290 189.009 57.0175 
290 189.009 57.0175 290 189.009 57.0175 288 191.009 398.017 
288 191.009 398.017 288 191.009 398.017 288 191.009 398.017 
288 191.009 398.017 288 189.009 399.017 288 189.009 399.017 
288 189.009 399.017 288 189.009 399.017 288 189.009 399.017 
288 191.009 398.018 288 189.009 399.018 360.002 141.511 407.015 
360.002 141.511 407.015 360.002 141.511 407.015 360.002 141.511 407.015 
360.002 141.511 407.015 360.002 141.511 407.015 360.002 141.511 407.015 
360.002 141.511 407.015 360.002 141.511 407.015 360.002 141.511 407.015 
356.4 143.4 409.325 356.418 143.364 409.317 356.374 143.452 409.335 
356.412 143.376 409.32 356.431 143.337 409.312 356.418 143.364 409.317 
356.3 143.598 409.364 356.289 143.619 409.369 356.35 143.499 409.344 
356.368 143.462 409.337 356.15 143.889 409.424 356.172 143.845 409.415 
356.028 144.12 409.473 356.192 143.809 409.407 356.218 143.758 409.397 
356.295 143.607 409.366 355.913 144.339 409.519 355.768 144.598 409.576 
356.032 144.116 409.471 356.041 144.096 409.468 356.191 143.809 409.408 
355.726 144.688 409.593 355.865 144.43 409.538 355.436 145.213 409.708 
355.152 145.717 409.82 354.909 146.145 409.915 354.633 146.607 410.021 
354.766 146.4 409.971 354.708 146.502 409.994 326.652 169.662 409.014 
326.652 169.662 409.015 326.652 169.662 409.014 326.652 169.662 409.015 
326.652 169.662 409.014 326.652 169.662 409.015 326.652 169.662 409.014 
326.652 169.662 409.014 326.652 169.662 409.014 326.652 169.662 409.014 
326.652 169.662 409.015 356.372 143.455 409.336 356.419 143.362 409.317 
356.258 143.677 409.381 356.367 143.465 409.338 356.049 144.076 409.464 
356.173 143.841 409.415 356.261 143.672 409.38 355.773 144.585 409.574 
356.055 144.066 409.462 355.53 145.025 409.67 355.356 145.323 409.738 
355.782 144.577 409.571 354.861 146.147 409.93 354.986 145.941 409.882 
354.542 146.64 410.051 354.372 146.912 410.114 353.796 147.79 410.322 
354.371 146.967 410.117 353.974 147.54 410.262 353.102 148.786 410.559 
353.311 148.486 410.491 353.703 147.925 410.358 352.704 149.362 410.688 
352.879 149.107 410.634 352.305 149.928 410.805 353 154.009 410.017 
353 154.009 410.017 353 154.009 410.017 353 154.009 410.017 
353 154.009 410.017 328 166.009 410.017 328 166.009 410.017 
328 166.009 410.017 328 166.009 410.017 328 166.009 410.017 
328.895 168.097 410.011 328.894 168.098 410.011 328.895 168.097 410.011 
328.895 168.097 410.011 328.892 168.098 410.011 328.892 168.098 410.012 
328.892 168.098 410.012 328.893 168.098 410.011 328.893 168.098 410.011 
328.895 168.098 410.011 328.896 168.097 410.011 328.896 168.097 410.011 
328.897 168.097 410.012 328.897 168.097 410.012 328.897 168.097 410.012 
[...]
POINT_DATA 1014
SCALARS scalars float
LOOKUP_TABLE default
1 1 1 1 1 1 1 1 1 
1 1 1 1 1 1 1 1 1 
1 1 1 1 1 1 1 1 1 
1 1 1 1 1 1 1 1 1 
1 1 1 1 1 1 1 1 1 
1 1 1 1 1 1 1 1 1 
1 1 1 1 1 1 1 1 1 
1 1 1 1 1 1 1 1 1 
1 1 1 1 1 1 1 1 1 
1 1 1 1 1 1 1 1 1 
1 1 1 1 1 1 1 1 1 
1 1 1 1 1 1 1 1 1 
1 1 1 1 1 1 1 1 1 
1 1 1 1 1 1 1 1 1 
1 1 1 1 1 1 1 1 1 
1 1 1 1 1 1 1 1 1 
1 1 1 1 1 1 1 1 1 
1 1 1 1 1 1 1 1 1 
1 1 1 1 1 1 1 1 1 
1 1 1 1 1 1 1 1 1 
1 1 1 1 1 1 1 1 1 
1 1 1 1 1 1 1 1 1 
1 1 1 1 1 1 1 1 1 
1 1 1 1 1 1 1 1 1 
1 1 1 1 1 1 1 1 1 
1 1 1 1 1 1 1 1 1 
1 1 1 1 1 1 1 1 1 
1 1 1 1 1 1 1 1 1 
1 1 1 1 1 1 1 1 1 
1 1 1 1 1 1 1 1 1 
1 1 1 1 1 1 1 1 1 
1 1 1 1 1 1 1 1 1 
1 1 1 1 1 1 1 1 1 
1 1 1 1 1 1 1 1 1 
1 1 1 1 1 1 1 1 1 
1 1 1 1 1 1 1 1 1 
1 1 1 1 1 1 1 1 1 
1 1 1 1 1 1 1 1 1 
1 1 1 1 1 1 1 1 1 
1 1 1 1 1 1 1 1 1 
1 1 1 1 1 1 1 1 1 
1 1 1 1 1 1 1 1 1 
1 1 1 1 1 1 1 1 1 
1 1 1 1 1 1 1 1 1 
1 1 1 1 1 1 1 1 1 
1 1 1 1 1 1 1 1 1 
1 1 1 1 1 1 1 1 1 
1 1 1 1 1 1 1 1 1 
1 1 1 1 1 1 1 1 1 
1 1 1 1 1 1 1 1 1 
1 1 1 1 1 1 1 1 1 
1 1 1 1 1 1 1 1 1 
1 1 1 1 1 1 1 1 1 
1 1 1 1 1 1 1 1 1 
1 1 1 1 1 1 1 1 1 
1 1 1 1 1 1 1 1 1 
1 1 1 1 1 1 1 1 1 
1 1 1 1 1 1 1 1 1 
1 1 1 1 1 1 1 1 1 
1 1 1 1 1 1 1 1 1 
1 1 1 1 1 1 1 1 1 
1 1 1 1 1 1 1 1 1 
1 1 1 1 1 1 1 1 1 
1 1 1 1 1 1 1 1 1 
1 1 1 1 1 1 1 1 1 
1 1 1 1 1 1 1 1 1 
1 1 1 1 1 1 1 1 1 
1 1 1 1 1 1 1 1 1 
1 1 1 1 1 1 1 1 1 
1 1 1 1 1 1 1 1 1 
1 1 1 1 1 1 1 1 1 
1 1 1 1 1 1 1 1 1 
1 1 1 1 1 1 1 1 1 
1 1 1 1 1 1 1 1 1 
1 1 1 1 1 1 1 1 1 
1 1 1 1 1 1 1 1 1 
1 1 1 1 1 1 1 1 1 
1 1 1 1 1 1 1 1 1 
1 1 1 1 1 1 1 1 1 
1 1 1 1 1 1 1 1 1 
1 1 1 1 1 1 1 1 1 
1 1 1 1 1 1 1 1 1 
1 1 1 1 1 1 1 1 1 
1 1 1 1 1 1 1 1 1 
1 1 1 1 1 1 1 1 1 
1 1 1 1 1 1 1 1 1 
1 1 1 1 1 1 1 1 1 
1 1 1 1 1 1 1 1 1 
1 1 1 1 1 1 1 1 1 
1 1 1 1 1 1 1 1 1 
1 1 1 1 1 1 1 1 1 
1 1 1 1 1 1 1 1 1 
1 1 1 1 1 1 1 1 1 
1 1 1 1 1 1 1 1 1 
1 1 1 1 1 1 1 1 1 
1 1 1 1 1 1 1 1 1 
1 1 1 1 1 1 1 1 1 
1 1 1 1 1 1 1 1 1 
1 1 1 1 1 1 1 1 1 
1 1 1 1 1 1 1 1 1 
1 1 1 1 1 1 1 1 1 
1 1 1 1 1 1 1 1 1 
1 1 1 1 1 1 1 1 1 
1 1 1 1 1 1 1 1 1 
1 1 1 1 1 1 1 1 1 
1 1 1 1 1 1 1 1 1 
1 1 1 1 1 1 1 1 1 
1 1 1 1 1 1 1 1 1 
1 1 1 1 1 1 1 1 1 
1 1 1 1 1 1 1 1 1 
1 1 1 1 1 1 1 1 1 
1 1 1 1 1 1 1 1 1 
1 1 1 1 1 1 
NORMALS Normals float
0.484172 0.257386 -0.83626 0.484172 0.257386 -0.83626 0.484172 0.257386 -0.83626 
-0.235558 -0.367593 -0.89966 -0.676236 -0.5805 0.453569 -0.594213 -0.484333 0.642132 
-0.0957551 -0.252367 -0.962882 -0.0547053 -0.188961 -0.98046 -0.683453 -0.635337 0.359499 
-0.136038 -0.268089 -0.953741 0.275483 0.130872 -0.952356 0.327068 0.170796 -0.929438 
0.293295 0.126392 -0.94763 0.0589413 -0.0508356 -0.996966 -0.681071 -0.728669 0.071993 
-0.629637 -0.720448 -0.29071 0.181959 0.058413 -0.98157 -0.160453 -0.286804 -0.944457 
0.0682187 -0.0614964 -0.995773 0.289552 0.178499 -0.940371 0.285878 0.158031 -0.945145 
-0.176798 -0.265277 -0.947824 -0.652283 -0.749405 0.113658 -0.598007 -0.694357 -0.40032 
-0.57607 -0.694807 -0.430565 0.141506 0.0961414 -0.985258 -0.36245 -0.427971 -0.827932 
-0.56738 -0.67326 -0.474132 0.089177 0.0626823 -0.994041 0.124633 0.00623706 -0.992183 
-0.37502 -0.50971 -0.77431 -0.542681 -0.770309 0.334845 -0.295966 -0.410661 -0.862416 
-0.562921 -0.737051 0.374 -0.0530293 -0.100974 -0.993475 0.251298 0.165367 -0.953679 
-0.563042 -0.826426 0.0021786 -0.534262 -0.813975 0.228054 0.0885153 0.128362 -0.987769 
-0.534438 -0.844091 0.0434318 -0.494359 -0.792179 0.357857 -0.506943 -0.840608 0.190754 
0.151871 0.181003 -0.971686 -0.492643 -0.867653 -0.0669381 -0.30639 -0.463217 -0.831598 
-0.381731 -0.597477 -0.705197 -0.490702 -0.857141 0.156592 -0.441653 -0.682645 -0.582185 
-0.481095 -0.860081 0.169728 -0.518898 -0.847591 -0.111065 -0.212971 -0.264729 -0.940511 
-0.476995 -0.867585 0.140614 0.503513 0.63579 -0.585017 0.391341 0.513381 -0.763735 
-0.271823 -0.29756 -0.915189 -0.521679 -0.763026 -0.381632 -0.144386 -0.0392276 -0.988744 
0.0768184 0.245647 -0.966311 0.0952706 0.241184 -0.965792 0.0413791 0.230306 -0.972238 
0.331247 0.661543 -0.672783 0.288002 0.592978 -0.751953 0.169844 0.435812 -0.883867 
0.242927 0.539734 -0.806023 0.422735 0.065382 -0.903892 0.339388 0.0420336 -0.939707 
-0.377775 -0.098182 0.920677 -0.377429 -0.105256 0.920037 -0.378457 -0.117659 0.91811 
-0.418233 -0.167335 0.892793 -0.36134 -0.0956072 0.92752 -0.299521 -0.0339086 0.953487 
0.35028 0.0695263 -0.934061 -0.323404 -0.065297 0.944005 0.352347 0.158777 -0.922302 
0.30308 0.1115 -0.94642 0.210161 0.0465429 -0.976558 -0.59617 -0.669192 -0.44358 
0.345489 0.169496 -0.922989 -0.431877 -0.378458 0.818689 -0.427854 -0.358997 0.829495 
0.436835 0.301138 -0.847638 0.441132 0.307962 -0.842948 -0.184312 -0.0908142 0.978663 
-0.393164 -0.285062 0.874164 0.676902 0.690286 0.255554 0.329543 0.163959 -0.929795 
-0.62307 -0.679675 0.387074 -0.511155 -0.535288 0.672448 -0.316846 -0.225784 0.921211 
-0.416763 -0.364607 0.832688 0.638734 0.538124 -0.549948 -0.421159 -0.464087 0.779262 
0.286166 0.166927 -0.943528 0.300842 0.172438 -0.937955 -0.178428 -0.275089 0.944717 
-0.275415 -0.377756 0.883995 0.277315 0.169642 -0.945684 -0.355062 -0.555215 0.752109 
0.313625 0.261748 -0.912758 0.170675 0.0807685 -0.982012 -0.251716 -0.44666 0.858565 
0.484116 0.502054 -0.71664 0.612295 0.722514 0.321044 -0.213407 -0.460698 0.861519 
-0.0335971 -0.108893 0.993486 0.259982 0.343269 0.902539 0.591984 0.678457 -0.43503 
-0.253375 -0.557489 0.790574 0.582842 0.746897 -0.320062 0.165817 0.285135 0.944035 
0.478105 0.585081 -0.655054 -0.449341 -0.795228 0.407068 0.0621787 0.0526007 0.996678 
0.506027 0.702811 -0.499994 -0.333744 -0.351462 -0.874694 -0.518143 -0.843561 0.141184 
0.413631 0.711792 0.567681 0.245316 0.403837 0.881326 0.217716 0.320876 0.921758 
0.264338 0.425167 0.865655 0.141282 0.311328 -0.939742 0.459424 0.812042 -0.359885 
0.500568 0.834622 -0.229864 0.173563 0.284219 -0.942919 -0.531984 -0.818607 -0.216507 
-0.215628 -0.523083 0.824554 -0.272633 -0.605578 0.747628 -0.504123 -0.698996 -0.507212 
-0.398384 -0.746525 0.532907 0.472534 0.868138 -0.151817 0.406573 0.811826 -0.419091 
-0.533362 -0.809593 -0.245123 -0.112455 -0.373624 0.920738 -0.118944 -0.382084 0.916441 
-0.172114 -0.054376 -0.983575 -0.0849529 0.084369 -0.992807 0.0637899 0.307202 -0.949504 
0.351755 0.730559 -0.585279 0.463487 0.869445 -0.171013 0.0617129 0.38734 -0.919869 
0.410462 0.855891 -0.314597 0.402755 0.829788 -0.386316 0.111043 0.39409 -0.912339 
0.156387 0.451001 -0.878716 0.423146 0.820884 -0.383533 0.174972 0.507195 -0.843882 
0.30723 0.689153 -0.656261 0.389701 0.788748 -0.475404 0.441947 0.0328411 -0.89644 
-0.268528 -0.429655 -0.862142 -0.513744 -0.523654 -0.679598 0.567836 0.129058 -0.812961 
0.480541 0.042875 -0.875923 0.416743 0.027364 -0.908613 0.834376 0.492749 -0.24701 
0.489804 0.114016 -0.864345 0.2884 0.421742 0.859627 0.367388 0.466355 0.804698 
0.791825 0.485928 -0.369984 0.206705 0.383519 0.900104 0.770686 0.617395 0.157694 
0.30134 -0.0201621 -0.953304 0.468608 0.205823 -0.859095 -0.337011 -0.0319648 0.940958 
0.474784 0.0910972 -0.875375 0.350186 0.0377258 -0.93592 0.311625 -0.00881828 -0.950164 
-0.420436 -0.109404 0.900702 -0.41771 -0.124196 0.900052 -0.33734 -0.064553 0.939167 
0.355396 0.0520355 -0.933266 0.333677 0.0584191 -0.940876 0.317108 0.0446376 -0.947338 
0.466395 0.105302 -0.878287 -0.142043 0.0352703 0.989232 -0.287828 -0.138106 0.947672 
-0.116138 0.0489321 0.992027 0.292447 0.140867 -0.94585 -0.07802 0.0465777 0.995863 
0.180014 0.274918 0.944466 0.531232 0.647094 0.546865 0.449088 0.585593 0.674834 
0.286822 0.391983 0.874118 0.246975 0.400697 0.882295 0.259691 0.376116 0.889437 
0.540396 0.808573 0.23277 0.0215331 -0.12718 0.991646 0.293975 0.490391 0.820424 
0.0452616 -0.123902 0.991262 -0.0357298 -0.244999 0.968865 0.291396 0.411531 0.863557 
0.396834 0.585324 0.70705 0.359442 0.475996 0.802639 0.220678 0.193397 0.955981 
0.174283 0.131258 0.975908 0.441359 0.695606 0.566864 0.49629 0.820969 0.282324 
0.475475 0.749382 0.460815 0.487064 0.798401 0.354011 0.00913681 0.126216 -0.991961 
0.00434106 0.10049 -0.994929 -0.044777 0.167646 -0.98483 0.0239301 0.0717903 -0.997133 
-0.0450112 0.207181 -0.977267 -0.113453 0.278062 -0.95384 0.0568068 0.14462 -0.987855 
0.0710667 0.279946 -0.957382 0.176137 0.258851 -0.949722 -0.0628258 0.333799 -0.940548 
-0.149498 0.384279 -0.911032 0.0559966 0.388677 -0.919671 0.193586 0.397614 -0.896899 
-0.0651802 0.354394 -0.932822 0.472542 0.0102722 -0.881249 0.547399 0.0821759 -0.832827 
0.336149 -0.0923778 -0.937267 -0.797479 -0.579246 -0.168822 -0.839786 -0.461242 0.286382 
0.788066 0.339224 -0.513692 0.747367 0.289393 -0.598076 -0.587084 -0.156735 0.794208 
0.794577 0.357228 -0.490954 -0.00751005 0.261145 0.96527 0.476178 0.0281642 -0.878898 
0.492178 0.033382 -0.869854 0.580059 0.149971 -0.80065 0.758044 0.317445 -0.569735 
0.128495 -0.178745 -0.975469 0.0958114 -0.188725 -0.977345 0.291651 -0.0317176 -0.955999 
0.204911 -0.103168 -0.973328 0.408091 0.0921325 -0.90828 0.373364 0.0880782 -0.923494 
0.319877 0.0805933 -0.944025 -0.271076 -0.0315981 0.962039 -0.275262 -0.0393734 0.960563 
0.272119 0.0522508 -0.960844 -0.0530224 -0.277863 0.959156 -0.0423049 -0.234805 0.971121 
0.0548694 -0.27363 0.960269 0 -0.121763 -0.992559 0 -0.992432 -0.122797 
-0.849089 -0.520497 -0.0901731 0.849089 -0.520497 -0.0901731 0.0387336 -0.0741981 0.996491 
0 -0.097798 -0.995206 0 -0.447214 -0.894427 -0.200259 -0.0958169 -0.975046 
0 0.184289 -0.982872 0.200259 -0.0958169 -0.975046 0.0672603 -0.298972 -0.951889 
-0.150194 0.0994957 -0.983637 0.0921902 0.113407 -0.989262 0.408248 -0.408248 -0.816497 
0 0.242536 -0.970142 -0.174078 0.696311 -0.696311 -0.706281 -0.221158 0.6725 
-0.730731 -0.242955 0.63797 -0.584597 -0.141337 0.798918 -0.222682 0.158721 0.961884 
-0.733628 -0.254086 0.630263 -0.759123 -0.278746 0.588246 -0.715185 -0.219795 0.663476 
-0.0367684 0.264711 0.963627 -0.815074 -0.385755 0.432258 -0.772446 -0.316026 0.550867 
0.695585 0.215179 -0.685463 0.434923 0.0136654 -0.900364 0.269954 -0.136657 -0.953126 
0.813912 0.391316 -0.429441 -0.43556 -0.0283263 0.899714 0.785908 0.357578 -0.504467 
-0.398195 -0.0183008 0.917118 -0.293462 0.0433732 0.954986 0 -0.229113 0.9734 
0 -0.220158 0.975464 -0.218218 -0.436436 -0.872872 0.810407 0.426576 -0.401589 
-0.731398 -0.241571 0.63773 -0.732256 -0.243693 0.635936 -0.697879 -0.2004 0.687608 
-0.732641 -0.243642 0.635512 -0.712551 -0.209307 0.669672 -0.733046 -0.244468 0.634727 
0.449148 -0.020158 -0.89323 -0.703832 -0.193677 0.683454 -0.73991 -0.255721 0.622206 
-0.703695 -0.193414 0.68367 0.425529 -0.0222545 -0.904671 -0.71615 -0.212663 0.664758 
-0.737101 -0.251385 0.627286 0.608663 0.0412026 -0.792358 0 -0.097798 -0.995206 
0 -0.447214 -0.894427 -0.200259 -0.0958169 -0.975046 0.200259 -0.0958169 -0.975046 
0 0.242536 -0.970142 0 -0.220158 0.975464 0 -0.970142 -0.242536 
0 -1 0 -0.6 -0.8 0 0.6 -0.8 0 
0 1 0 0 -0.970142 -0.242536 0 -1 0 
-0.6 -0.8 0 0.6 -0.8 0 0 1 0 
0 -0.970142 0.242536 0 -0.970142 0.242536 0.360651 -0.329016 -0.872742 
0.0208778 -0.983596 -0.179171 -0.712258 -0.496841 -0.49582 0.706876 -0.649522 0.280083 
-0.337022 0.71827 -0.60869 -0.715034 0.401876 0.572033 0.680202 0.673519 -0.289304 
9.31595e-05 0.990309 0.138881 -0.224329 -0.774062 0.592035 0.428284 0.329576 0.841399 
0.00804526 0.201299 -0.979497 -0.315529 0.0328169 -0.948348 -0.180606 0.105645 -0.977865 
0.387768 0.00839107 0.921719 -0.624161 -0.44939 0.639118 -0.0434484 -0.219826 0.974571 
0.684116 0.204451 0.700132 -0.24691 0.070908 -0.966441 0.29113 -0.0454769 0.955602 
0.383845 0.00760987 0.923366 -0.285517 0.0499468 -0.957071 -0.296898 0.0433205 -0.953926 
-0.275888 0.055867 -0.959565 -0.391762 -0.0131723 -0.919972 0.370824 0.000648825 0.928703 
0.349508 -0.0124306 0.936851 -0.27251 0.0580504 -0.9604 -0.331204 0.023311 -0.943271 
-0.395469 -0.0156641 -0.918346 0.377168 0.00421864 0.926135 0.376203 0.00373408 0.92653 
-0.319718 0.0306413 -0.947017 0.34933 -0.0125225 0.936916 -0.300102 0.0423067 -0.952969 
-0.285224 0.0514577 -0.957078 -0.28544 0.0508546 -0.957046 0.258571 -0.0674246 0.963636 
-0.279206 0.0534419 -0.958743 0.258571 -0.0674246 0.963636 0.48862 -0.475071 -0.731818 
-0.190267 -0.981353 0.027276 -0.46277 -0.88644 -0.00820662 0.767533 -0.571233 0.290837 
-0.526684 -0.304645 -0.793597 -0.687684 -0.642498 0.338064 -0.956921 0.287209 0.0425804 
0.457303 0.771558 -0.442236 0.713972 0.676168 -0.18177 0.08 0.961205 -0.263978 
0.433012 0.900343 0.0433839 -0.421344 -0.0302927 -0.906395 -0.847916 -0.346025 -0.401627 
-0.346158 0.0145491 -0.938064 -0.56479 -0.429381 0.704731 -0.327852 0.0251431 -0.944394 
0.0256179 -0.190098 0.981431 0.102597 -0.149026 0.983496 -0.365875 0.00116721 -0.930663 
0.278686 -0.0548063 0.958817 0.305673 -0.0389844 0.951338 0.165317 -0.128526 0.97783 
0.330843 -0.0237065 0.943388 -0.337251 0.0133277 -0.941321 -0.340504 0.0111831 -0.940177 
-0.429366 -0.0577348 -0.901283 -0.367523 -0.0146439 -0.929899 0.086103 0.295788 -0.951365 
-0.0457901 0.213693 -0.975827 0.523398 0.533017 -0.664792 0.793802 0.587628 -0.156755 
0.747636 0.591548 -0.301847 0.690875 0.587798 -0.420934 0.573535 0.23194 0.78566 
0.675743 0.32273 0.662734 -0.33271 -0.0482812 -0.941792 0 -0.970143 -0.242536 
0 -1 0 -0.707107 -0.707107 0 0.707107 -0.707107 0 
0 1 0 0 -0.970143 -0.242536 0 -1 0 
-0.707107 -0.707107 0 0.707107 -0.707107 0 0 1 0 
-0.215401 -0.77413 -0.595252 -0.263775 -0.772988 -0.576986 0.224383 0.381563 -0.896695 
-0.078934 -0.801585 -0.592647 -0.229647 -0.959503 -0.163143 -0.203751 -0.978943 -0.012494 
-0.0749853 -0.988059 -0.134596 -0.127893 -0.0677712 -0.98947 -0.280851 -0.95937 -0.0270567 
0.299752 0.856482 -0.420223 0.403129 0.846469 -0.347819 0.317297 0.941496 -0.113611 
0.212326 0.976469 0.0377555 0.300985 0.940982 -0.154795 0.208643 0.977307 0.0365937 
-0.379522 -0.646999 0.661329 0 -0.955329 -0.295544 0.196878 0.972986 -0.120572 
0.147424 0.988954 -0.0153506 0.28358 0.957434 -0.0538834 0.304444 0.951569 -0.042785 
0.19288 0.92824 0.318068 0.118737 0.950121 0.288395 -0.24476 0.633102 0.734353 
0.456887 0.594431 0.661745 0.230983 0.97146 -0.0539732 0.28921 0.957129 -0.0161862 
-0.420038 -0.0603398 -0.905498 -0.158873 0.108535 -0.981315 -0.292895 -0.000310098 -0.956145 
-0.219126 0.0802324 -0.972392 0.310451 -0.022515 0.950323 -0.451749 -0.137494 -0.881486 
-0.12115 0.12574 -0.984638 0.35059 0.387293 -0.852696 0.616 0.287566 0.733383 
-0.329389 -0.126831 -0.935637 0.586394 0.507928 -0.630992 0.686445 0.558887 -0.46523 
0.745337 0.4421 0.499019 0.0282153 0.173402 -0.984447 0.811703 0.552131 0.190497 
0.597415 0.311127 0.739118 -0.281931 -0.101737 -0.954025 0.0422701 0.154344 -0.987113 
0 -0.970143 0.242536 0.464211 0.434918 -0.771593 0.56792 0.307863 0.76334 
-0.229634 -0.0923652 -0.968884 0.065545 0.155554 -0.98565 0.809257 0.582306 -0.077614 
-0.0773757 0.0446772 -0.996001 0.249757 0.278037 -0.927533 0.556687 0.477294 -0.679919 
-0.24156 -0.0889403 -0.966301 0.0753857 0.155024 -0.98503 -0.196729 -0.0863525 -0.976648 
-0.204644 -0.0898728 -0.974702 -0.20171 -0.0710279 -0.976866 -0.202935 -0.0708459 -0.976626 
-0.0916526 0.00483332 -0.995779 -0.161627 -0.0277867 -0.986461 -0.101306 -0.390148 -0.915162 
0.296973 0.240794 -0.924027 -0.0857896 -0.365639 -0.926795 -0.0864387 -0.378269 -0.921651 
0.0504098 -0.179064 -0.982545 -0.107902 -0.41378 -0.90396 0 -0.970143 0.242536 
-0.124579 -0.436289 -0.891141 -0.0624151 -0.352149 -0.93386 -0.0803837 -0.378052 -0.922288 
0.136879 0.0139495 -0.99049 -0.296841 -0.953675 0.0488812 -0.0880283 -0.37842 -0.921439 
-0.0443445 -0.329526 -0.943105 0.11777 -0.0383098 -0.992302 0.215179 0.159206 -0.96351 
0.34831 0.773478 0.529539 0.0467739 -0.144796 -0.988355 -0.137807 -0.945012 -0.296583 
-0.229326 -0.793849 0.563217 -0.240888 -0.696445 0.675972 -0.0423139 -0.322107 -0.945757 
-0.262974 -0.723691 0.638056 0.017295 -0.231962 -0.972571 -0.13478 -0.987883 -0.0769508 
0.108889 -0.0473223 -0.992927 0.344551 0.48601 -0.803168 0.168981 0.0809335 -0.982291 
0.157064 0.0293563 -0.987152 0.486536 0.87364 0.00598501 0.201421 0.559905 0.803702 
0.221469 0.888098 0.402782 0.13235 0.534861 0.83451 0.236061 0.226896 -0.944877 
-0.134063 0.149622 -0.979612 0.733265 0.429065 0.527471 0.470991 0.134179 0.871873 
-0.24761 0.0143859 -0.968753 -0.0549893 -0.236826 0.969995 -0.386193 -0.115409 -0.91517 
0.340927 0.0809642 0.936597 -0.325555 -0.0997308 -0.940249 -0.343179 -0.0950014 -0.934453 
-0.601534 -0.364557 -0.710813 -0.400303 -0.206668 -0.892774 -0.352879 -0.160818 -0.921745 
-0.359635 -0.180564 -0.915456 -0.162693 -0.00016815 -0.986677 -0.177903 -0.00439247 -0.984038 
-0.102798 0.0303935 -0.994238 0.310581 0.0980471 0.945477 -0.552139 -0.36007 -0.751992 
-0.626639 -0.443798 -0.640598 -0.304178 -0.117413 -0.945352 -0.315487 -0.176017 -0.932462 
-0.408906 -0.262849 -0.873903 -0.414932 -0.282044 -0.865033 -0.194605 -0.0530752 -0.979445 
-0.257975 -0.0767041 -0.963102 -0.252536 -0.085524 -0.963801 0.273583 0.0993833 0.9567 
-0.363387 -0.248597 -0.897858 -0.41841 -0.313205 -0.852547 -0.580384 -0.508479 -0.636085 
-0.53479 -0.451624 -0.714168 -0.507192 -0.564126 0.65155 -0.520818 -0.599665 0.607578 
-0.40294 -0.486308 0.775334 -0.461626 -0.568918 0.680613 -0.649104 -0.756286 0.0818273 
-0.478868 -0.519872 -0.707402 -0.243676 -0.360277 0.900457 -0.167715 -0.265036 0.949541 
-0.154969 -0.252278 0.955165 -0.103433 -0.172823 0.979507 -0.0829597 -0.147739 0.985541 
0.425012 0.57184 -0.701687 0.394598 0.539183 -0.744026 -0.282177 -0.468745 0.837051 
-0.225542 -0.378168 0.897842 -0.358524 -0.60225 0.713271 -0.178193 -0.289384 0.940481 
-0.141004 -0.229088 0.963139 0.09812 0.168467 -0.980811 0.055712 0.107163 -0.992679 
0.290292 0.426538 -0.856619 0.253903 0.385962 -0.886886 -0.461046 -0.876884 -0.136058 
-0.42063 -0.822569 -0.382689 -0.386769 -0.810759 -0.439407 -0.274781 -0.635266 -0.721756 
-0.224729 -0.53075 -0.817191 -0.278892 -0.630049 -0.724747 -0.236031 -0.526554 -0.816719 
-0.272166 -0.598044 -0.753836 -0.220696 -0.472289 -0.853367 -0.290478 -0.602003 -0.743784 
0.0402003 0.0257766 -0.998859 -0.155089 -0.330328 -0.931038 0.134245 0.211275 -0.968164 
0.112336 0.178931 -0.977427 -0.283138 -0.454962 0.8443 0.10773 0.182475 -0.977291 
0.114246 0.193925 -0.974341 0.112042 0.193812 -0.97462 0.189435 0.301672 -0.934403 
-0.470629 -0.852953 -0.225786 -0.19388 -0.445722 -0.873924 0.0917619 0.103278 -0.990411 
0.239345 0.395889 -0.886559 -0.208163 -0.339667 0.917221 0.234395 0.388058 -0.89133 
0.158992 0.260473 -0.9523 0.399214 0.783256 0.47659 0.496388 0.851113 0.170896 
-0.235523 -0.545722 -0.804186 -0.143043 -0.355774 -0.92356 0.34636 0.599387 -0.721644 
0.360068 0.626106 -0.691623 0.298124 0.501376 -0.812246 0.397677 0.42579 -0.812746 
-0.0167081 -0.22118 -0.97509 -0.170981 -0.459402 -0.871617 0.260097 0.594984 0.760489 
0.271282 0.603355 0.749913 0.363234 0.741551 0.56406 0.321135 0.645994 0.692505 
0.0509311 -0.193595 -0.979759 0.0512489 -0.185116 -0.981379 -0.0631978 -0.324401 -0.943806 
-0.0437041 -0.287154 -0.956887 0.414863 0.81833 0.397775 0.199794 0.505681 0.839267 
0.00250263 -0.278903 -0.960316 0.0108449 -0.174601 0.98458 -0.32846 -0.105051 -0.938658 
0.289247 0.0655424 0.955008 -0.61465 -0.538983 0.575936 -0.375724 -0.187676 -0.907529 
0.319588 0.17557 0.931149 -0.218156 -0.0957074 -0.97121 0.0761642 -0.00627922 0.997076 
-0.0314887 -0.101365 0.994351 -0.0238433 -0.0866785 0.995951 -0.088718 -0.159507 0.983202 
0.206136 0.284141 0.936361 0.216674 0.25198 0.943164 0.177397 0.174273 0.968586 
0.0521131 -0.00503286 0.998628 0.142789 0.225107 -0.963814 0.0514859 0.0828681 0.99523 
-0.0439694 -0.0821363 0.995651 -0.0210991 -0.0579799 0.998095 -0.0290537 -0.0739933 0.996835 
0.513295 0.642336 0.569151 -0.112103 0.0095281 0.993651 -0.055147 0.0699649 0.996024 