# vtk DataFile Version 4.2
vtk output
ASCII
DATASET POLYDATA
POINTS 2764 float
334.841 170.315 22.8304 334.281 170.403 22.7851 335.576 170.463 22.8512 
330.169 171.497 22.5377 334.552 170.814 22.7875 337.253 170.227 23.0132 
323.798 172.735 22.4694 324.574 172.305 22.3937 325.916 172.088 22.3743 
330.623 171.729 22.6525 333.447 171.199 22.8205 334.303 171.036 22.8498 
336.382 170.549 23.0456 337.422 170.195 23.0731 324.615 173.147 22.5859 
325.023 172.478 22.3959 325.359 172.862 22.5039 328.639 172.541 22.7866 
331.315 172.039 23.0054 323.583 173.505 22.7534 324.571 173.846 23.1 
326.695 173.54 23.1244 326.073 173.627 22.9634 346.805 166.336 23.5327 
346.615 166.457 23.494 346.982 166.182 23.5947 343.405 168.09 23.1116 
343.954 167.875 23.1353 344.012 167.841 23.1411 344.581 167.592 23.1849 
344.776 167.476 23.2172 345.231 167.254 23.2664 337.331 169.382 23.4549 
342.231 168.412 23.1648 343.166 168.194 23.1036 343.523 168.063 23.1132 
344.11 167.808 23.1504 344.754 167.509 23.2032 335.746 169.597 23.302 
339.905 169.137 23.2055 340.867 168.868 23.1883 342.509 168.426 23.1086 
342.981 168.273 23.1032 326.884 171.005 22.4582 338.01 169.773 23.1084 
340.251 169.079 23.2592 341.988 168.587 23.1447 317.441 172.299 23.0687 
316.979 172.73 22.99 318.806 172.583 22.8444 319.846 171.861 22.8679 
321.208 171.646 22.765 323.963 171.216 22.5783 338.482 169.705 23.2505 
316.883 173.401 22.8714 320.291 172.085 22.7689 318.199 173.889 22.8425 
332.243 172 23.359 306.789 175.841 23.3501 318.708 174.375 22.9879 
307.203 175.951 23.1664 308.236 175.88 22.9729 321.536 174.327 23.1863 
325.047 174.057 23.4528 321.73 174.982 23.6776 322.146 174.762 23.5342 
310.809 177.565 22.8962 318.37 175.837 23.7057 321.894 174.873 23.5652 
309.927 179.274 23.5082 311.159 179.265 23.7041 310.666 179.576 23.8059 
346.683 166.363 23.5396 347.22 165.911 23.7184 347.806 165.343 23.9596 
343.467 168.048 23.1254 343.477 168.046 23.1274 343.199 168.136 23.1321 
343.786 167.918 23.1444 345.92 166.856 23.3797 346.093 166.766 23.4014 
345.412 167.135 23.3066 347.345 165.826 23.7471 342.819 168.248 23.1423 
344.213 167.734 23.1699 346.078 166.769 23.4037 345.181 167.281 23.2605 
334.067 168.587 23.4751 337.086 169.226 23.8631 339.573 168.812 23.3983 
340.526 168.428 23.6393 315.395 171.456 23.9694 315.889 170.891 24.3332 
335.547 169.163 23.577 336.408 169.417 23.6988 336.755 169.959 24.0293 
334.376 171.387 24.4574 304.166 175.875 24.5167 305.828 175.258 24.1794 
328.386 173.53 24.0157 302.898 176.83 24.4734 304.776 176.383 23.9159 
300.14 177.695 25.0995 303.968 177.733 23.6944 319.487 176.201 24.6967 
297.101 179.281 25.052 298.513 178.947 24.7465 298.916 178.388 25.0112 
316.812 177.205 24.5843 308.664 178.001 23.0021 294.394 181.029 25.1168 
294.126 180.877 25.4206 294.67 181.003 25.0002 308.324 178.579 23.1805 
308.386 179.263 23.481 306.844 180.255 23.8869 309.228 180.242 24.3439 
307.381 180.997 24.5668 305.172 181.809 24.5064 332.166 165.431 25.5568 
348.8 164.075 24.5451 346.448 166.547 23.4697 346.68 166.374 23.5332 
346.201 166.698 23.423 347.107 166.013 23.6766 348.355 164.771 24.2072 
325.048 168.104 24.5349 340.579 165.761 25.4971 346.007 166.816 23.3878 
336.904 167.801 24.1217 339.559 167.945 24.1477 339.154 167.19 24.5459 
339.694 167.395 24.6966 341.671 168.429 23.3701 342.732 168.233 23.2054 
343.436 168.021 23.171 344.3 167.674 23.199 345.652 167.007 23.3398 
345.175 167.267 23.2723 346.263 166.66 23.4359 346.651 166.397 23.5245 
323.459 169.217 23.7458 335.85 168.593 23.8683 336.827 168.627 24.0157 
339.881 168.168 24.3773 340.708 168.57 23.6521 341.57 168.527 23.3634 
342.316 168.368 23.2403 343.257 168.096 23.1705 336.445 169.401 24.0946 
336.965 169.496 24.0585 336.889 169.337 24.3665 337.302 169.414 24.4788 
338.779 169.185 24.152 339.297 168.645 24.6032 339.746 168.786 23.9834 
336.149 170.172 24.5549 337.753 169.487 24.2821 328.602 173.721 25.252 
302.055 176.453 25.3544 304.852 174.798 25.4998 300.71 177.148 25.3901 
318.776 176.687 25.0713 320.359 176.185 25.2726 297.855 178.451 25.5172 
300.534 180.043 23.9026 295.58 180.75 24.9359 299.506 180.899 24.0673 
291.692 182.035 25.9649 290.121 183.2 26.0863 291.969 182.801 25.4598 
298.408 182.13 24.2882 299.027 182.679 24.4088 308.866 180.756 24.8919 
292.329 183.218 25.267 297.988 182.407 24.3794 299.634 182.885 24.5227 
307.416 181.308 24.9386 290.68 183.68 25.6813 298.881 184.131 25.2042 
301.175 183.98 25.6436 300.033 184.44 25.7913 345.369 160.233 26.4871 
353 161.009 25.0175 353 161.009 25.0175 353 161.009 25.0175 
353 161.009 25.0175 345.099 162.021 26.0674 348.675 163.577 24.8702 
348.48 163.508 24.9613 348.814 163.633 24.8014 348.9 163.698 24.7414 
353 161.009 25.0175 348.914 163.681 24.7479 338.064 163.703 25.9006 
340.092 162.781 26.0019 344.008 162.826 26.043 345.675 162.538 26.0015 
346.87 162.023 26.0431 346.767 162.654 25.7908 347.526 162.778 25.6463 
348.127 163.309 25.1743 348.805 163.774 24.7214 348.869 163.722 24.7362 
348.809 163.857 24.6736 345.117 163.05 26.1752 346.204 162.943 25.9932 
347.227 163.189 25.5716 335.967 165.416 25.1039 340.309 163.836 25.5865 
343.06 163.982 26.1894 345.716 163.169 26.3787 346.645 163.029 26.1388 
347.319 163.181 25.6781 347.432 165.668 23.8316 347.807 163.634 25.1394 
347.886 165.008 24.1638 348.119 164.2 24.6527 327.484 166.491 25.8943 
341.097 164.53 25.6223 342.328 164.537 26.1068 344.453 163.734 26.7055 
346.468 166.525 23.4799 346.97 166.133 23.6285 336.016 166.608 24.4842 
338.732 166.392 24.8113 339.95 166.248 25.261 342.029 165.104 26.2992 
346.22 166.689 23.426 346.626 166.412 23.52 347.08 166.045 23.6622 
340.41 166.685 25.9718 339.893 167.375 25.2322 317.402 169.387 25.9778 
336.566 169.754 24.8305 337.07 169.535 25.0054 309.874 172.614 25.3542 
304.133 175.312 25.2332 303.295 175.462 26.0855 318.099 177.333 26.04 
292.636 181.063 26.2821 291.442 181.786 26.3637 293.464 183.518 25.0415 
287.48 185.013 26.5992 287.717 184.239 26.9051 290.957 184.225 25.5695 
292.344 184.331 25.3235 286.538 185.868 26.7546 288.052 185.276 26.3017 
293.644 184.561 25.2698 296.269 184.564 25.3149 287.196 185.929 26.4543 
287.751 185.848 26.3093 289.227 185.572 25.9924 288.817 186.211 26.1373 
354.271 150.77 28.0427 354.38 150.695 28.084 353.469 151.735 27.9253 
354.172 151.004 28.0508 353.592 151.643 27.9612 353.382 151.979 27.9355 
348.891 157.693 27.3808 349.329 158.402 27.5967 353.504 159.004 26.0175 
353.504 159.004 26.0175 353.504 159.004 26.0175 353.505 159.004 26.0175 
353.505 159.004 26.0175 353.505 159.004 26.0175 348.774 159.135 27.1083 
348.452 159.457 26.9624 348.696 159.49 26.9161 348.729 159.406 26.9283 
348.785 159.482 26.8731 348.778 159.469 26.8674 353.504 159.005 26.0175 
348.807 159.474 26.8535 353.505 159.005 26.0175 346.501 160.98 26.2831 
347.914 159.986 26.8465 348.309 159.833 27.0207 348.583 159.604 27.0455 
348.759 159.468 26.9617 348.803 159.46 26.8857 353 161.009 25.0175 
335.741 163.216 26.9844 347.438 160.813 26.626 347.884 160.522 26.9847 
348.516 163.52 24.9514 347.315 161.961 26.4301 347.66 162.954 25.6463 
348.132 163.35 25.1792 347.201 162.802 26.0868 346.676 162.778 26.684 
347.055 162.446 26.6094 329.732 165.102 27.1175 340.849 164.204 25.5758 
345.247 163.449 26.9005 346.074 163.099 26.682 343.34 164.656 27.248 
321.835 167.864 26.3751 337.617 169.31 26.059 301.992 175.958 26.4339 
296.358 178.605 26.8045 291.756 181.021 27.2645 310.402 180.728 26.2013 
285.696 185.528 27.5695 286.481 185.25 27.0428 285.414 186.544 27.3752 
285.059 186.328 27.7606 285.586 187.105 27.1982 284.478 187.795 27.9309 
285.84 187.635 27.1255 286.56 187.596 26.8759 288.812 187.389 26.4926 
291.768 187.247 26.6117 285.059 188.219 27.561 360.945 141.601 28.9043 
359.524 142.664 28.8702 358.84 143.602 28.7229 361.103 142.567 28.8492 
358.737 143.826 28.74 360.425 143.469 28.7988 358.541 145.009 28.7168 
358.013 145.229 28.7089 357.161 146.812 28.6398 358.445 146.525 28.9348 
357.076 147.752 28.6331 357.948 147.179 28.8576 354.505 150.196 28.2493 
353.666 151.171 28.1208 354.605 150.872 28.1439 353.912 151.734 28.0111 
354.978 151.957 28.3156 352.195 153.829 27.7668 353.586 153.693 27.8791 
354.292 153.32 28.2536 349.984 154.564 28.1072 353.914 154.087 27.9366 
353.68 154.497 27.742 354.138 155.041 27.5199 354.235 155.074 27.4866 
354.25 155.071 27.4773 354.279 155.081 27.4683 348.651 155.137 28.4457 
352.26 155.357 27.6831 353.335 154.844 27.6914 353.96 154.808 27.6628 
353.799 154.958 27.6446 354.26 155.069 27.4866 350.911 156.478 27.6918 
352.009 155.75 27.7379 353.203 155.192 27.7688 353.902 155.007 27.6958 
351.995 156.057 27.921 353.335 155.247 27.9264 350.224 157.693 27.9779 
353.504 159.004 26.0175 353.505 159.004 26.0175 349.253 159.067 28.1438 
348.806 159.335 27.2121 348.792 159.384 26.9739 348.797 159.447 26.8799 
347.419 161.624 27.9183 346.978 162.216 27.2951 314.275 170.075 27.4526 
338.802 168.554 26.2022 305.859 174.067 27.5339 287.312 183.728 27.6725 
286.897 183.934 27.8688 287.832 182.997 28.2208 283.951 187.991 28.5838 
283.759 189.03 28.8104 289.991 188.719 27.4222 283.892 189.301 28.7137 
284.229 189.473 28.5196 285.92 189.776 28.0033 287.242 189.903 28.0061 
284.119 190.145 28.9108 363.045 138.26 29.678 362.088 139.511 29.3802 
362.054 139.005 29.5642 362.535 139.478 29.3538 360.883 139.735 29.6778 
361.83 140.376 29.1642 363.197 139.329 29.5473 362.894 140.008 29.4302 
358.982 142.909 28.9596 360.766 143.357 28.8511 356.823 146.081 28.8304 
359.81 144.874 29.017 355.893 146.554 29.1016 358.843 146.22 29.0655 
357.673 147.818 28.9186 356.041 151.016 28.7015 356.568 150.35 29.1256 
350.624 152.079 29.5108 355.444 151.732 28.5474 356.35 151.115 28.851 
356.16 151.413 28.8001 356.407 151.403 28.7537 356.412 151.354 28.7511 
356.495 151.41 28.7164 356.488 151.409 28.7074 356.518 151.415 28.6969 
354.884 152.465 28.412 355.162 152.405 28.7159 356.084 151.529 29.0406 
[...]
POINT_DATA 2764
SCALARS scalars float
LOOKUP_TABLE default
1 1 1 1 1 1 1 1 1 
1 1 1 1 1 1 1 1 1 
1 1 1 1 1 1 1 1 1 
1 1 1 1 1 1 1 1 1 
1 1 1 1 1 1 1 1 1 
1 1 1 1 1 1 1 1 1 
1 1 1 1 1 1 1 1 1 
1 1 1 1 1 1 1 1 1 
1 1 1 1 1 1 1 1 1 
1 1 1 1 1 1 1 1 1 
1 1 1 1 1 1 1 1 1 
1 1 1 1 1 1 1 1 1 
1 1 1 1 1 1 1 1 1 
1 1 1 1 1 1 1 1 1 
1 1 1 1 1 1 1 1 1 
1 1 1 1 1 1 1 1 1 
1 1 1 1 1 1 1 1 1 
1 1 1 1 1 1 1 1 1 
1 1 1 1 1 1 1 1 1 
1 1 1 1 1 1 1 1 1 
1 1 1 1 1 1 1 1 1 
1 1 1 1 1 1 1 1 1 
1 1 1 1 1 1 1 1 1 
1 1 1 1 1 1 1 1 1 
1 1 1 1 1 1 1 1 1 
1 1 1 1 1 1 1 1 1 
1 1 1 1 1 1 1 1 1 
1 1 1 1 1 1 1 1 1 
1 1 1 1 1 1 1 1 1 
1 1 1 1 1 1 1 1 1 
1 1 1 1 1 1 1 1 1 
1 1 1 1 1 1 1 1 1 
1 1 1 1 1 1 1 1 1 
1 1 1 1 1 1 1 1 1 
1 1 1 1 1 1 1 1 1 
1 1 1 1 1 1 1 1 1 
1 1 1 1 1 1 1 1 1 
1 1 1 1 1 1 1 1 1 
1 1 1 1 1 1 1 1 1 
1 1 1 1 1 1 1 1 1 
1 1 1 1 1 1 1 1 1 
1 1 1 1 1 1 1 1 1 
1 1 1 1 1 1 1 1 1 
1 1 1 1 1 1 1 1 1 
1 1 1 1 1 1 1 1 1 
1 1 1 1 1 1 1 1 1 
1 1 1 1 1 1 1 1 1 
1 1 1 1 1 1 1 1 1 
1 1 1 1 1 1 1 1 1 
1 1 1 1 1 1 1 1 1 
1 1 1 1 1 1 1 1 1 
1 1 1 1 1 1 1 1 1 
1 1 1 1 1 1 1 1 1 
1 1 1 1 1 1 1 1 1 
1 1 1 1 1 1 1 1 1 
1 1 1 1 1 1 1 1 1 
1 1 1 1 1 1 1 1 1 
1 1 1 1 1 1 1 1 1 
1 1 1 1 1 1 1 1 1 
1 1 1 1 1 1 1 1 1 
1 1 1 1 1 1 1 1 1 
1 1 1 1 1 1 1 1 1 
1 1 1 1 1 1 1 1 1 
1 1 1 1 1 1 1 1 1 
1 1 1 1 1 1 1 1 1 
1 1 1 1 1 1 1 1 1 
1 1 1 1 1 1 1 1 1 
1 1 1 1 1 1 1 1 1 
1 1 1 1 1 1 1 1 1 
1 1 1 1 1 1 1 1 1 
1 1 1 1 1 1 1 1 1 
1 1 1 1 1 1 1 1 1 
1 1 1 1 1 1 1 1 1 
1 1 1 1 1 1 1 1 1 
1 1 1 1 1 1 1 1 1 
1 1 1 1 1 1 1 1 1 
1 1 1 1 1 1 1 1 1 
1 1 1 1 1 1 1 1 1 
1 1 1 1 1 1 1 1 1 
1 1 1 1 1 1 1 1 1 
1 1 1 1 1 1 1 1 1 
1 1 1 1 1 1 1 1 1 
1 1 1 1 1 1 1 1 1 
1 1 1 1 1 1 1 1 1 
1 1 1 1 1 1 1 1 1 
1 1 1 1 1 1 1 1 1 
1 1 1 1 1 1 1 1 1 
1 1 1 1 1 1 1 1 1 
1 1 1 1 1 1 1 1 1 
1 1 1 1 1 1 1 1 1 
1 1 1 1 1 1 1 1 1 
1 1 1 1 1 1 1 1 1 
1 1 1 1 1 1 1 1 1 
1 1 1 1 1 1 1 1 1 
1 1 1 1 1 1 1 1 1 
1 1 1 1 1 1 1 1 1 
1 1 1 1 1 1 1 1 1 
1 1 1 1 1 1 1 1 1 
1 1 1 1 1 1 1 1 1 
1 1 1 1 1 1 1 1 1 
1 1 1 1 1 1 1 1 1 
1 1 1 1 1 1 1 1 1 
1 1 1 1 1 1 1 1 1 
1 1 1 1 1 1 1 1 1 
1 1 1 1 1 1 1 1 1 
1 1 1 1 1 1 1 1 1 
1 1 1 1 1 1 1 1 1 
1 1 1 1 1 1 1 1 1 
1 1 1 1 1 1 1 1 1 
1 1 1 1 1 1 1 1 1 
1 1 1 1 1 1 1 1 1 
1 1 1 1 1 1 1 1 1 
1 1 1 1 1 1 1 1 1 
1 1 1 1 1 1 1 1 1 
1 1 1 1 1 1 1 1 1 
1 1 1 1 1 1 1 1 1 
1 1 1 1 1 1 1 1 1 
1 1 1 1 1 1 1 1 1 
1 1 1 1 1 1 1 1 1 
1 1 1 1 1 1 1 1 1 
1 1 1 1 1 1 1 1 1 
1 1 1 1 1 1 1 1 1 
1 1 1 1 1 1 1 1 1 
1 1 1 1 1 1 1 1 1 
1 1 1 1 1 1 1 1 1 
1 1 1 1 1 1 1 1 1 
1 1 1 1 1 1 1 1 1 
1 1 1 1 1 1 1 1 1 
1 1 1 1 1 1 1 1 1 
1 1 1 1 1 1 1 1 1 
1 1 1 1 1 1 1 1 1 
1 1 1 1 1 1 1 1 1 
1 1 1 1 1 1 1 1 1 
1 1 1 1 1 1 1 1 1 
1 1 1 1 1 1 1 1 1 
1 1 1 1 1 1 1 1 1 
1 1 1 1 1 1 1 1 1 
1 1 1 1 1 1 1 1 1 
1 1 1 1 1 1 1 1 1 
1 1 1 1 1 1 1 1 1 
1 1 1 1 1 1 1 1 1 
1 1 1 1 1 1 1 1 1 
1 1 1 1 1 1 1 1 1 
1 1 1 1 1 1 1 1 1 
1 1 1 1 1 1 1 1 1 
1 1 1 1 1 1 1 1 1 
1 1 1 1 1 1 1 1 1 
1 1 1 1 1 1 1 1 1 
1 1 1 1 1 1 1 1 1 
1 1 1 1 1 1 1 1 1 
1 1 1 1 1 1 1 1 1 
1 1 1 1 1 1 1 1 1 
1 1 1 1 1 1 1 1 1 
1 1 1 1 1 1 1 1 1 
1 1 1 1 1 1 1 1 1 
1 1 1 1 1 1 1 1 1 
1 1 1 1 1 1 1 1 1 
1 1 1 1 1 1 1 1 1 
1 1 1 1 1 1 1 1 1 
1 1 1 1 1 1 1 1 1 
1 1 1 1 1 1 1 1 1 
1 1 1 1 1 1 1 1 1 
1 1 1 1 1 1 1 1 1 
1 1 1 1 1 1 1 1 1 
1 1 1 1 1 1 1 1 1 
1 1 1 1 1 1 1 1 1 
1 1 1 1 1 1 1 1 1 
1 1 1 1 1 1 1 1 1 
1 1 1 1 1 1 1 1 1 
1 1 1 1 1 1 1 1 1 
1 1 1 1 1 1 1 1 1 
1 1 1 1 1 1 1 1 1 
1 1 1 1 1 1 1 1 1 
1 1 1 1 1 1 1 1 1 
1 1 1 1 1 1 1 1 1 
1 1 1 1 1 1 1 1 1 
1 1 1 1 1 1 1 1 1 
1 1 1 1 1 1 1 1 1 
1 1 1 1 1 1 1 1 1 
1 1 1 1 1 1 1 1 1 
1 1 1 1 1 1 1 1 1 
1 1 1 1 1 1 1 1 1 
1 1 1 1 1 1 1 1 1 
1 1 1 1 1 1 1 1 1 
1 1 1 1 1 1 1 1 1 
1 1 1 1 1 1 1 1 1 
1 1 1 1 1 1 1 1 1 
1 1 1 1 1 1 1 1 1 
1 1 1 1 1 1 1 1 1 
1 1 1 1 1 1 1 1 1 
1 1 1 1 1 1 1 1 1 
1 1 1 1 1 1 1 1 1 
1 1 1 1 1 1 1 1 1 
1 1 1 1 1 1 1 1 1 
1 1 1 1 1 1 1 1 1 
1 1 1 1 1 1 1 1 1 
1 1 1 1 1 1 1 1 1 
1 1 1 1 1 1 1 1 1 
1 1 1 1 1 1 1 1 1 
1 1 1 1 1 1 1 1 1 
1 1 1 1 1 1 1 1 1 
1 1 1 1 1 1 1 1 1 
1 1 1 1 1 1 1 1 1 
1 1 1 1 1 1 1 1 1 
1 1 1 1 1 1 1 1 1 
1 1 1 1 1 1 1 1 1 
1 1 1 1 1 1 1 1 1 
1 1 1 1 1 1 1 1 1 
1 1 1 1 1 1 1 1 1 
1 1 1 1 1 1 1 1 1 
1 1 1 1 1 1 1 1 1 
1 1 1 1 1 1 1 1 1 
1 1 1 1 1 1 1 1 1 
1 1 1 1 1 1 1 1 1 
1 1 1 1 1 1 1 1 1 
1 1 1 1 1 1 1 1 1 
1 1 1 1 1 1 1 1 1 
1 1 1 1 1 1 1 1 1 
1 1 1 1 1 1 1 1 1 
1 1 1 1 1 1 1 1 1 
1 1 1 1 1 1 1 1 1 
1 1 1 1 1 1 1 1 1 
1 1 1 1 1 1 1 1 1 
1 1 1 1 1 1 1 1 1 
1 1 1 1 1 1 1 1 1 
1 1 1 1 1 1 1 1 1 
1 1 1 1 1 1 1 1 1 
1 1 1 1 1 1 1 1 1 
1 1 1 1 1 1 1 1 1 
1 1 1 1 1 1 1 1 1 
1 1 1 1 1 1 1 1 1 
1 1 1 1 1 1 1 1 1 
1 1 1 1 1 1 1 1 1 
1 1 1 1 1 1 1 1 1 
1 1 1 1 1 1 1 1 1 
1 1 1 1 1 1 1 1 1 
1 1 1 1 1 1 1 1 1 
1 1 1 1 1 1 1 1 1 
1 1 1 1 1 1 1 1 1 
1 1 1 1 1 1 1 1 1 
1 1 1 1 1 1 1 1 1 
1 1 1 1 1 1 1 1 1 
1 1 1 1 1 1 1 1 1 
1 1 1 1 1 1 1 1 1 
1 1 1 1 1 1 1 1 1 
1 1 1 1 1 1 1 1 1 
1 1 1 1 1 1 1 1 1 
1 1 1 1 1 1 1 1 1 
1 1 1 1 1 1 1 1 1 
1 1 1 1 1 1 1 1 1 
1 1 1 1 1 1 1 1 1 
1 1 1 1 1 1 1 1 1 
1 1 1 1 1 1 1 1 1 
1 1 1 1 1 1 1 1 1 
1 1 1 1 1 1 1 1 1 
1 1 1 1 1 1 1 1 1 
1 1 1 1 1 1 1 1 1 
1 1 1 1 1 1 1 1 1 
1 1 1 1 1 1 1 1 1 
1 1 1 1 1 1 1 1 1 
1 1 1 1 1 1 1 1 1 
1 1 1 1 1 1 1 1 1 
1 1 1 1 1 1 1 1 1 
1 1 1 1 1 1 1 1 1 
1 1 1 1 1 1 1 1 1 
1 1 1 1 1 1 1 1 1 
1 1 1 1 1 1 1 1 1 
1 1 1 1 1 1 1 1 1 
1 1 1 1 1 1 1 1 1 
1 1 1 1 1 1 1 1 1 
1 1 1 1 1 1 1 1 1 
1 1 1 1 1 1 1 1 1 
1 1 1 1 1 1 1 1 1 
1 1 1 1 1 1 1 1 1 
1 1 1 1 1 1 1 1 1 
1 1 1 1 1 1 1 1 1 
1 1 1 1 1 1 1 1 1 
1 1 1 1 1 1 1 1 1 
1 1 1 1 1 1 1 1 1 
1 1 1 1 1 1 1 1 1 
1 1 1 1 1 1 1 1 1 
1 1 1 1 1 1 1 1 1 
1 1 1 1 1 1 1 1 1 
1 1 1 1 1 1 1 1 1 
1 1 1 1 1 1 1 1 1 
1 1 1 1 1 1 1 1 1 
1 1 1 1 1 1 1 1 1 
1 1 1 1 1 1 1 1 1 
1 1 1 1 1 1 1 1 1 
1 1 1 1 1 1 1 1 1 
1 1 1 1 1 1 1 1 1 
1 1 1 1 1 1 1 1 1 
1 1 1 1 1 1 1 1 1 
1 1 1 1 1 1 1 1 1 
1 1 1 1 1 1 1 1 1 
1 1 1 1 1 1 1 1 1 
1 1 1 1 1 1 1 1 1 
1 1 1 1 1 1 1 1 1 
1 1 1 1 1 1 1 1 1 
1 1 1 1 1 1 1 1 1 
1 1 1 1 1 1 1 1 1 
1 1 1 1 1 1 1 1 1 
1 1 1 1 1 1 1 1 1 
1 1 1 1 1 1 1 1 1 
1 1 1 1 1 1 1 1 1 
1 1 1 1 1 1 1 1 1 
1 1 1 1 1 1 1 1 1 
1 
NORMALS Normals float
-0.062657 -0.286986 -0.955884 -0.0163293 -0.257428 -0.966159 0.0766216 -0.216182 -0.973342 
0.110491 0.324906 -0.93927 0.0395789 0.207153 -0.977508 0.271799 0.486087 -0.830569 
-0.0700817 0.258533 -0.963457 -0.039961 0.108298 -0.993315 0.249453 0.2375 -0.938811 
0.346449 0.0145239 -0.937957 0.144495 0.469065 -0.871263 0.0413738 0.345026 -0.937681 
0.376766 0.892233 -0.248933 0.370956 0.928475 0.0180354 -0.00830558 0.414381 -0.910066 
-0.0264292 0.0243116 -0.999355 0.134483 0.394779 -0.908881 0.296385 0.693469 -0.656702 
0.190684 0.646915 -0.738336 -0.0544882 0.615327 -0.786386 -0.00548208 0.676271 -0.736633 
0.224836 0.79559 -0.562571 0.149558 0.677498 -0.720159 -0.151404 -0.508091 -0.847891 
-0.175667 -0.539933 -0.823173 -0.1653 -0.52608 -0.834216 -0.141128 -0.446291 -0.883689 
0.114764 0.113826 -0.98685 -0.100244 -0.385326 -0.91732 0.0813892 -0.0150761 -0.996568 
-0.134085 -0.462522 -0.87641 0.0876548 -0.0988015 -0.991239 -0.303291 -0.535586 -0.788138 
-0.17798 -0.787517 -0.590034 -0.00405542 -0.0638609 -0.997951 0.319671 0.804681 0.500299 
0.348439 0.839097 0.417739 0.372288 0.821474 0.431951 0.105566 -0.60109 -0.792178 
0.0643277 0.15476 -0.985856 0.0395453 0.280673 -0.958988 -0.0532367 -0.085057 -0.994953 
0.055908 0.126074 -0.990444 0.0955444 -0.133324 -0.986456 0.118051 0.0883406 -0.98907 
0.34306 0.93332 0.105946 0.282864 0.959122 0.00850806 -0.0992394 -0.354882 -0.929629 
-0.133058 -0.321866 -0.937389 -0.00447802 -0.155153 -0.98788 -0.172409 -0.204962 -0.963466 
-0.100644 -0.161437 -0.981738 -0.0661334 -0.246174 -0.966967 0.400679 0.891744 -0.210352 
-0.112954 -0.0524 -0.992217 -0.145681 0.104251 -0.983824 -0.0157443 0.0324633 -0.999349 
0.172998 0.944537 -0.279144 -0.287776 -0.287409 -0.913554 0.0501933 0.355205 -0.93344 
-0.247974 -0.335525 -0.908808 -0.173366 -0.227208 -0.958291 -0.0203183 0.357788 -0.933582 
0.109026 0.896161 -0.430127 0.168863 0.759384 -0.628348 0.140535 0.70592 -0.694209 
0.0928851 0.250748 -0.963586 0.218596 0.657553 -0.720999 0.119033 0.706359 -0.697774 
0.112852 0.44341 -0.889186 0.330919 0.750778 -0.571686 0.351444 0.601953 -0.717035 
0.159063 0.521554 0.83826 0.131932 0.497374 0.857446 -0.201758 -0.546178 -0.813009 
-0.167378 -0.408134 0.897447 -0.343995 -0.937122 -0.058897 -0.300262 -0.943994 -0.136817 
-0.383432 -0.919638 -0.0851254 0.127406 0.464135 0.876554 0.157607 0.510939 0.845045 
0.0822669 0.390434 0.916948 -0.17068 -0.532041 -0.829338 -0.235094 -0.745307 -0.623898 
-0.055768 0.00894257 0.998404 -0.0937526 -0.42161 -0.901918 0.375954 0.808494 0.452765 
0.00606102 -0.429659 -0.902971 -0.969846 -0.206542 -0.129378 -0.110388 -0.5223 -0.845587 
0.244181 -0.96902 0.0371005 -0.35801 -0.62321 -0.695297 -0.27631 -0.665232 -0.693627 
0.359525 -0.52265 -0.773032 0.029158 -0.984791 -0.171277 0.312723 0.489961 0.813721 
0.343641 0.932958 0.10724 -0.307426 -0.596084 -0.741736 -0.248123 -0.617686 -0.746257 
0.452132 0.821395 -0.347689 -0.385802 -0.656584 -0.648116 -0.209185 -0.556355 -0.804183 
-0.436681 -0.745626 -0.50334 -0.222031 -0.276269 -0.935082 0.403441 0.818613 -0.408789 
-0.35564 -0.527377 -0.771618 -0.27399 -0.438406 -0.855996 -0.265119 -0.696395 -0.666893 
0.248515 0.681166 -0.688661 0.040268 0.246197 -0.968383 -0.37205 -0.523251 -0.766673 
-0.424162 -0.76902 -0.478221 -0.13772 -0.141548 -0.980305 -0.144772 0.176369 -0.97362 
0.0726499 0.531416 -0.84399 0.1165 0.598904 -0.792302 0.230586 0.841441 -0.488679 
0.156089 0.786491 -0.597551 0.256537 0.788594 -0.558845 -0.189307 -0.607837 -0.771166 
-0.21383 -0.537871 -0.815458 0.165249 0.527422 0.833378 0.132195 0.497447 0.857363 
-0.208887 -0.581301 -0.786419 0.111032 0.478433 0.871076 -0.204311 -0.538635 -0.817392 
-0.157392 -0.707935 -0.688517 0.401629 0.213914 -0.890469 -0.0638632 0.132895 0.98907 
-0.0364662 -0.365702 -0.930017 0.376712 -0.653243 -0.656782 0.543689 -0.508744 -0.667519 
0.709909 -0.355948 -0.607726 0.223149 -0.289177 0.930903 -0.246543 -0.785312 -0.567893 
-0.322352 -0.887907 -0.328191 -0.315237 -0.807359 -0.498796 -0.279607 -0.289477 0.915436 
0.20415 0.580214 0.788463 0.19996 0.571903 0.795577 0.158174 0.518568 0.840278 
-0.205391 -0.666303 -0.716836 0.252339 -0.130422 -0.958809 -0.330904 0.167847 -0.928617 
0.964273 -0.0370462 0.262308 0.450776 0.273526 0.849697 0.267686 0.548402 0.792211 
0.215064 0.487904 0.845989 0.132629 0.328405 0.935179 0.885398 -0.104122 -0.453023 
-0.307804 -0.341318 0.888121 0.0625761 0.850764 -0.521809 0.00541985 0.998908 -0.0464117 
0.408225 0.841377 0.35417 0.591474 0.705762 0.389946 0.442813 0.673831 0.591496 
0.763853 0.640533 0.0790308 0.127628 0.892414 0.432791 0.339123 0.906666 -0.250905 
-0.283034 -0.819725 -0.497939 -0.438838 -0.800667 -0.407865 -0.474398 -0.680367 -0.558611 
0.524328 0.813579 -0.251334 0.297759 0.852564 -0.429505 -0.321465 -0.81449 -0.482976 
-0.114979 -0.111694 -0.987069 -0.248498 -0.439799 -0.863032 -0.16377 -0.0385621 -0.985745 
-0.368139 -0.561698 -0.740925 -0.532997 -0.516733 -0.67 -0.315475 -0.27449 -0.908367 
-0.0109366 0.115992 -0.99319 -0.0297103 0.436285 -0.899318 0.210908 0.758728 -0.616319 
-0.237798 -0.000455825 -0.971315 -0.0839755 0.342162 -0.935881 0.0199682 0.432397 -0.901462 
0.170838 0.8091 -0.562291 -0.374181 -0.147739 -0.915512 0.18555 0.498969 -0.846523 
0.16364 0.801926 -0.574575 0.243788 0.799881 -0.548414 0.0130685 -0.314269 -0.949244 
0 -0.0445519 -0.999007 0 -0.184289 -0.982872 -0.0954145 -0.0443486 -0.994449 
0.0954145 -0.0443486 -0.994449 -0.0542198 -0.102446 -0.99326 -0.11311 -0.665108 -0.738131 
-0.0446907 -0.726534 -0.685675 -0.297312 -0.359317 -0.884589 0.457225 0.698844 0.550056 
0 0.0933407 -0.995634 -0.269205 -0.475168 -0.837702 -0.0523496 -0.336718 -0.940149 
-0.0507215 -0.416218 -0.907849 0.0559256 -0.0118768 -0.998364 -0.146396 0.00671634 -0.989203 
0.130283 -0.384694 -0.913804 -0.198722 -0.177022 -0.963936 0.446819 -0.665829 -0.597515 
-0.215234 -0.528366 -0.821281 -0.162534 -0.512227 -0.84333 0.320211 0.551475 0.770286 
-0.0077219 -0.496681 -0.867899 0.0776992 0.540168 -0.837963 -0.18768 0.616533 -0.764633 
-0.473267 0.428957 -0.769425 -0.0944092 -0.514548 -0.852248 -0.00107383 -0.195562 -0.980691 
0.358223 0.506916 -0.784036 0.10135 0.934886 -0.34017 0.156614 0.969906 0.186425 
0.156424 0.787397 0.59627 -0.18679 -0.543891 -0.818103 -0.286967 -0.431345 -0.855331 
-0.204604 -0.539745 -0.816586 -0.227706 -0.551299 -0.802632 -0.298537 -0.875098 -0.380892 
0.366474 0.111101 -0.923771 0.370646 0.268365 -0.889158 0.417426 0.829667 -0.370686 
0.155131 0.514666 0.84324 0.111141 0.478535 0.871006 0.112521 -0.38564 -0.915763 
0.346026 -0.480528 -0.805828 0.545901 -0.159424 -0.822542 0.511039 0.491682 -0.705045 
0.157988 0.516144 0.841805 0.1012 0.452521 0.885993 0.165606 0.526541 0.833864 
0.733885 0.467051 -0.493231 0.967001 0.182211 -0.178066 -0.389923 -0.890019 -0.236273 
0.586313 0.726302 -0.35878 0.31061 0.933545 -0.178928 -0.40369 -0.887949 -0.220412 
-0.306446 -0.896054 -0.321214 -0.275642 -0.95177 -0.134744 0.503921 0.842759 -0.189265 
-0.411127 -0.65488 -0.634119 -0.450933 -0.700033 -0.553726 -0.140692 -0.0494306 -0.988819 
-0.354456 -0.440329 -0.824907 -0.437901 -0.503537 -0.744777 -0.292281 0.127408 -0.947807 
-0.210295 0.119444 -0.970314 -0.463992 -0.238949 -0.853003 -0.204846 -0.264733 -0.942314 
-0.00409484 0.403543 -0.914951 -0.0291009 0.609694 -0.792102 -0.284905 -0.0239877 -0.958255 
-0.28147 -0.0925901 -0.955093 -0.16899 -0.142565 -0.975252 -0.108911 0.166419 -0.980022 
0.0304193 -0.14238 -0.989344 0.328483 -0.0490331 -0.943236 -0.0258955 -0.169526 -0.985185 
0.12615 0.0335256 -0.991444 0.209901 -0.102641 -0.97232 0.269315 0.0812138 -0.959622 
0.0160428 -0.124133 -0.992136 0.54601 0.176399 -0.818997 -0.0750453 -0.225227 -0.971412 
-0.169596 -0.558322 -0.812105 -0.18056 -0.272522 -0.945055 0.100084 0.248962 -0.963328 
0.0467332 -0.205503 -0.97754 0.219799 0.298779 -0.928666 0.420654 -0.462041 -0.780749 
-0.0214483 -0.131466 -0.991089 -0.138172 0.575145 -0.806298 -0.100509 -0.536901 -0.837637 
0.177553 0.968081 -0.176899 -0.416556 -0.120383 -0.901104 0.00357152 0.226086 -0.974101 
0.564403 0.142553 -0.813098 0.154971 0.592751 -0.790335 0.223059 -0.309382 -0.924407 
0.399866 0.10509 -0.910529 0.696105 0.542235 -0.470551 0.468449 0.815512 -0.339846 
0.676451 0.71755 0.16594 0.946619 0.251473 0.201676 0 -0.132243 0.991217 
-0.35235 -0.63006 -0.692007 0.412354 -0.150703 -0.898472 0.783041 0.282364 -0.554181 
0.233569 -0.922183 -0.30826 0.959426 0.0409558 -0.278971 0.740357 0.185761 0.646038 
0.615823 0.00957001 0.787827 0.55451 0.576045 0.600576 0.506814 0.750555 0.424035 
0.772866 0.498387 0.392796 -0.200342 -0.809995 -0.551154 0.150696 -0.0202067 -0.988374 
0.301644 0.918178 -0.256829 0.436149 0.883303 0.171903 0.564 0.820351 -0.0944904 
-0.19052 -0.884888 -0.425059 0.449266 0.883171 0.134794 -0.415857 -0.869789 -0.265574 
-0.436326 -0.847092 -0.303407 -0.45469 -0.802174 -0.387007 0.34313 0.887777 -0.30678 
-0.645849 -0.417195 -0.639396 -0.557658 -0.478521 -0.678258 -0.400696 -0.197634 -0.894642 
-0.743009 -0.306572 -0.594938 -0.370434 -0.130504 -0.919645 -0.677639 -0.0409282 -0.734255 
-0.228142 -0.03146 -0.97312 -0.298175 0.204787 -0.932284 -0.0940155 0.415166 -0.904875 
0.0763266 0.485119 -0.871111 -0.263187 0.358804 -0.89554 -0.0856888 -0.181214 -0.979703 
-0.299614 -0.566261 -0.767841 -0.220175 -0.245626 -0.944029 0.347588 0.096737 -0.932644 
-0.226088 -0.123672 -0.966224 0.16567 0.131608 -0.97736 0.134211 0.101589 -0.985732 
-0.16587 -0.114965 -0.979423 0.0690619 -0.0205391 -0.997401 0.544028 0.302146 -0.782778 
0.145941 0.0608206 -0.987422 0.470646 0.236324 -0.850084 -0.183413 -0.35103 -0.918225 
-0.212335 -0.320267 -0.923224 0.250348 0.00394538 -0.968148 0.213731 0.00111271 -0.976892 
0.370695 0.0678557 -0.926273 -0.0571045 -0.130372 -0.989819 0.260923 -0.085254 -0.961588 
0.750684 0.19204 -0.632135 -0.490542 -0.51843 -0.700427 0.584015 -0.170645 -0.793604 
0.0807221 -0.225699 -0.970847 -0.418975 0.368692 -0.829775 -0.267053 0.93683 -0.225902 
-0.0967428 -0.355118 -0.929802 0.779614 0.268476 -0.565793 -0.313184 -0.57807 -0.753492 
0.152415 0.347765 -0.92511 -0.00535263 -0.0223969 -0.999735 0.466383 -0.521172 -0.71475 
-0.145183 0.191572 -0.970681 0.566033 0.308814 0.764356 0.314926 0.277177 -0.907741 
0.182115 0.242974 -0.952784 0.0987045 0.606343 -0.789054 0.255829 0.95424 0.154847 
0.435907 0.535314 -0.72348 0.430533 0.827973 -0.359307 0.593636 0.583948 -0.553715 
-0.129449 0.229394 0.964687 0.0603072 -0.198434 0.978257 0.797515 0.575219 -0.181915 
0.883316 0.462242 -0.0780047 0.937382 -0.228649 -0.262745 0.374714 -0.717666 -0.58698 
0.782461 0.618131 0.0752982 0.662891 0.679136 0.315198 -0.41306 -0.910278 -0.0278344 
0.662172 0.705554 0.252432 -0.433654 -0.897261 0.0828671 -0.627882 -0.709981 -0.31889 
-0.565869 -0.663968 -0.488814 -0.525113 -0.742549 -0.415784 -0.881762 -0.166575 -0.441303 
-0.910098 -0.0978633 -0.402672 0.129807 0.645702 -0.752475 -0.638418 0.19658 -0.744163 
-0.534328 0.284566 -0.795937 -0.181092 0.534283 -0.82568 0.0629098 0.592062 -0.803433 
-0.586391 0.315406 -0.7461 -0.048091 -0.291365 -0.955402 -0.187947 -0.21623 -0.958082 
-0.344837 -0.397668 -0.850263 0.0783168 -0.0746834 -0.994127 -0.277856 -0.449397 -0.849022 
-0.0323895 -0.285693 -0.957774 0.588128 0.361224 -0.723618 0.456664 0.0878581 -0.885291 
-0.56525 -0.544318 -0.619848 0.220156 0.0593611 -0.973657 -0.203106 -0.166259 -0.964938 
0.449299 0.364795 -0.815509 -0.425818 -0.369852 -0.825765 0.466894 0.314341 -0.826559 
0.631508 0.342458 -0.695644 0.462699 0.113416 -0.87923 0.928352 0.360889 -0.0890076 
-0.573903 -0.476264 -0.666189 0.473966 0.172764 -0.863428 0.62199 -0.219864 -0.751524 
0.394194 0.531083 -0.750042 -0.0284069 0.982123 -0.186085 -0.11237 -0.350733 -0.929709 
0.212449 0.875579 0.433851 -0.372221 0.323106 -0.870089 0.177403 0.895353 0.4085 
0.558461 0.368596 -0.74314 0.611033 0.622046 -0.489588 0.70153 0.655323 0.280014 
0.432799 0.846076 0.311191 0.601913 0.518423 0.607403 0.9047 -0.114821 0.410285 
0.729089 0.67036 -0.138009 0.977801 0.15434 -0.141719 0.844277 0.535244 -0.0266442 
0.598283 -0.792896 -0.115642 0.617346 -0.784537 -0.0581872 0.734342 0.58378 0.346327 
0.953528 -0.0735701 0.292185 0.756627 -0.230637 0.611818 0.731872 0.67567 -0.0885052 
-0.437224 -0.833267 -0.33838 -0.309378 -0.94683 -0.0883093 -0.489794 -0.866629 -0.095157 
-0.448285 -0.89118 -0.0695666 -0.68498 -0.604037 -0.407359 -0.889691 -0.339119 -0.305693 
-0.764682 0.262183 -0.588661 -0.700255 0.242187 -0.671556 -0.796562 0.223402 -0.561765 
-0.34777 0.477405 -0.806933 0.102568 0.777409 -0.620576 0.0980018 0.788173 -0.607601 
-0.533447 0.507011 -0.677034 -0.205847 0.615165 -0.761051 0.334546 0.828785 -0.448547 
-0.431922 0.700323 -0.568324 0.00583602 -0.324789 -0.945768 0.343262 -0.20332 -0.916969 
-0.23405 -0.456518 -0.858378 -0.20036 -0.387092 -0.900009 -0.507963 -0.465131 -0.725001 
0.244951 0.0345001 -0.968922 0.446342 0.102402 -0.888984 0.0983386 -0.187585 -0.977313 
0.515294 0.0566397 -0.85514 0.676824 0.314459 -0.665601 -0.56218 -0.500576 -0.658314 
0.657511 0.311825 -0.68589 0.852996 0.464805 -0.23739 0.518317 0.445847 -0.729773 
0.735458 0.344698 -0.583339 0.722804 0.487018 -0.490272 0.808254 0.58561 0.0615444 
0.86053 0.39122 -0.326244 0.736216 0.569498 -0.365593 0.902885 0.428178 -0.0382449 
0.840363 0.241029 0.485484 0.846534 -0.498973 -0.185487 0.185837 -0.702808 -0.686677 
0.583051 0.810357 0.058078 -0.431214 -0.884827 0.176454 -0.290151 -0.943037 0.162768 
-0.585282 -0.786759 -0.196101 -0.738347 -0.614525 -0.277855 -0.873554 -0.483797 -0.0533283 
-0.906927 0.0859291 -0.41243 -0.735061 0.476147 -0.48267 0.0246959 0.773127 -0.63377 