# vtk DataFile Version 4.2
vtk output
ASCII
DATASET POLYDATA
POINTS 1740 float
356.063 143.405 37.6549 355.106 145.327 37.5182 354.989 145.506 37.5328 
353 146.009 35.0174 353 146.009 35.0175 353 146.009 35.0175 
353 146.009 35.0175 353 146.009 35.0175 352.249 149.685 37.1774 
352.163 150.043 37.106 353.035 149.023 37.2827 352.941 149.613 37.3197 
349.932 152.229 37.0569 351.363 151.27 36.9846 351.757 151.02 37.0183 
348.119 153.917 37.1003 350.552 153.252 37.0273 345.354 156.284 36.8281 
346.695 155.644 36.7728 348.732 154.551 36.817 344.247 156.895 37.0102 
348.953 154.851 36.8801 342.787 157.934 37.0845 345.244 157.191 36.6266 
340.52 159.771 36.899 340.39 160.023 36.8127 343.686 158.706 36.5698 
341.074 159.914 36.6665 335.242 163.009 37.1994 335.502 163.536 36.8408 
334.477 164.08 37.0101 357.941 140.461 38.2173 358.06 140.159 38.3319 
357.838 140.778 38.1343 356.907 141.725 38.1884 357.085 142.176 37.8569 
357.356 141.781 37.9334 355.76 144.227 37.6439 355.626 144.023 37.8077 
356.16 143.88 37.6795 356.529 143.365 37.7476 355.384 145.189 37.5794 
355.873 144.586 37.6746 353 146.009 35.0175 354.983 145.885 37.5546 
354.238 146.938 37.5582 353.172 148.331 37.4752 354.037 147.575 37.5152 
353.387 148.295 37.4071 351.081 150.78 37.2775 353.523 148.956 37.518 
352.247 150.996 37.201 353.302 149.635 37.6195 352.12 151.458 37.2646 
351.884 151.868 37.256 345.801 155.266 37.256 345.196 155.777 37.1768 
350.947 153.684 37.5255 344.215 156.613 37.3484 343.597 157.134 37.2954 
344.828 156.047 37.3204 349.721 155.021 37.321 342.315 158.158 37.2149 
345.917 157.493 36.652 346.306 158.597 37.2748 337.829 161.755 37.0709 
339.377 161.299 36.7879 345.86 159.21 37.4573 335.292 162.855 37.4462 
344.164 160.46 37.3703 333.933 164.1 37.2667 334.149 164.671 36.9883 
338.231 163.222 36.9431 330.554 166.369 37.5047 334.993 164.767 36.9355 
330.231 166.863 37.3765 333.055 165.807 37.0995 335.187 165.082 37.0605 
335.838 164.81 37.0661 339.674 163.407 37.5493 326.622 168.414 37.6253 
324.784 169.227 37.9749 324.896 169.138 38.0591 326.492 168.575 37.6235 
326.729 168.846 37.4757 332.71 166.749 37.3491 335.657 165.589 37.5867 
324.696 169.368 37.9588 325.861 169.502 37.5171 327.145 169.118 37.373 
326.797 169.557 37.3916 331.889 167.667 37.6961 324.445 170.776 37.7088 
325.988 170.282 37.5002 326.823 170.346 37.6244 359.633 137.827 38.8473 
358.363 139.638 38.5419 358.513 139.879 38.4155 358.241 140.842 38.357 
356.097 143.037 37.9063 356.28 142.687 38.0792 357.236 142.198 37.9162 
357.323 142.386 38.0492 355.742 143.656 37.9224 356.636 143.475 37.8312 
357.262 142.745 38.1779 356.493 143.93 37.8914 355.787 145.664 38.099 
349.762 152.07 37.3071 350.324 151.403 37.5388 348.574 153.116 37.5404 
345.532 155.343 37.2853 345.666 155.253 37.3968 351.402 153.212 37.7235 
346.187 154.996 37.4937 341.964 158.275 37.6392 343.109 157.397 37.7269 
340.719 159.288 37.414 346.687 158.867 37.8156 333.077 164.429 37.7257 
331.499 165.424 37.8359 340.186 163.252 37.7139 329.608 166.604 37.9123 
338.499 164.299 37.8197 326.247 168.508 37.8684 336.245 165.35 37.6451 
336.566 165.33 37.9027 323.427 170.272 38.1838 332.469 167.402 37.7277 
332.764 167.377 37.9473 320.975 171.639 38.6053 331.229 168.279 38.0225 
316.906 173.801 38.7803 317.61 173.473 38.8647 317.809 173.758 38.5619 
319.268 173.384 38.3933 315.448 174.676 38.9151 316.698 174.694 38.4259 
319.416 173.765 38.395 327.351 170.946 38.1368 316.515 174.853 38.4487 
316.268 175.083 38.5514 316.78 174.85 38.444 316.225 175.378 38.6626 
317.504 174.988 38.5356 360.909 135.686 39.2993 360.753 135.938 39.2485 
360.598 136.238 39.1902 360.129 137.035 39.0231 359.956 137.244 38.9883 
358.774 138.974 38.7748 357.947 140.058 38.6936 359.479 138.422 38.8688 
356.714 141.895 38.4366 355.875 143.375 37.9978 357.042 143.451 38.4718 
356.054 145.463 38.5963 354.294 146.31 38.1704 350.248 151.442 37.8722 
345.494 155.314 37.3524 345.499 155.32 37.4248 351.427 153.403 38.0601 
345.55 155.383 37.6266 343.024 157.496 38.027 339.646 160.124 37.5113 
340.205 159.658 37.6537 347.558 158.204 38.1552 337.737 161.413 37.7904 
347.072 158.688 38.1651 345.486 159.926 38.0822 343.939 161.144 38.2075 
324.577 169.085 38.7925 334.486 166.525 38.339 332.654 167.562 38.3361 
321.269 171.164 38.9827 329.925 169.378 38.3816 328.252 170.542 38.5625 
315.116 175.02 39.1088 313.459 176.2 39.5091 313.512 175.993 39.8271 
314.418 175.709 39.2214 315.86 175.046 38.667 321.597 173.727 38.8967 
311.582 177.181 39.6388 312.443 176.805 39.5888 314.702 175.894 39.089 
310.876 177.45 39.5301 310.823 177.476 39.5326 310.838 177.46 39.5089 
311.057 177.4 39.5832 311.25 177.393 39.5958 312.544 176.988 39.5129 
316.025 175.763 38.9014 306.285 179.513 40.0636 306.259 179.524 40.0822 
306.229 179.547 40.0951 306.334 179.494 40.0565 306.336 179.486 40.0555 
310.886 177.455 39.5285 306.376 179.472 40.0492 310.905 177.509 39.5943 
311.033 177.61 39.6682 312.745 177.103 39.5302 313.424 176.963 39.5189 
317.458 175.869 39.2529 306.266 179.571 40.1349 311.193 177.987 39.9043 
361.875 133.986 39.6526 362.02 133.726 39.7091 361.823 134.073 39.634 
361.953 133.85 39.6825 362.053 133.67 39.7211 362.105 133.579 39.7421 
361.584 134.498 39.5464 361.678 134.325 39.5828 361.728 134.252 39.5994 
361.93 133.893 39.6758 361.335 134.922 39.4655 360.751 135.917 39.2748 
361.56 134.556 39.5415 361.743 134.228 39.6076 360.112 136.95 39.1398 
361.096 135.392 39.3859 358.533 139.346 39.068 359.562 138.332 39.1122 
356.527 142.237 38.6551 354.939 145.244 38.4376 355.478 146.501 38.785 
349.96 151.835 38.3123 352.905 151.043 38.3011 345.438 155.342 37.3732 
345.981 155.213 38.2416 350.577 154.691 38.2782 342.056 158.431 38.3962 
348.127 157.687 38.4204 348.53 157.215 38.5578 338.862 160.752 38.1322 
346.778 158.957 38.2846 347.158 158.609 38.3981 334.767 163.286 38.2243 
345.026 160.34 38.4257 342.824 161.972 38.4072 343.132 161.761 38.5407 
331.672 165.263 38.4229 340.404 163.242 38.6745 328.711 166.944 38.6515 
335.695 165.885 38.5554 338.254 164.554 38.2217 338.959 164.077 38.5569 
335.501 166.085 38.4591 324.902 168.822 38.9597 325.478 168.607 38.9996 
332.927 167.377 38.6564 333.759 166.794 38.7917 335.186 166.239 38.395 
323.786 169.561 39.0394 331.793 168.098 38.7948 321.11 171.209 39.2167 
323.967 169.5 39.2663 327.673 170.944 39.0403 326.494 171.624 39.1819 
313.552 175.932 40.1978 310.833 177.481 39.5311 310.789 177.529 39.5939 
310.592 177.715 39.7992 320.259 174.796 39.6587 306.105 179.619 40.1775 
306.423 179.471 40.0819 306.651 179.453 40.1927 309.044 178.518 40.1493 
308.456 178.851 40.158 309.58 178.346 40.005 309.823 178.127 40.0416 
315.389 176.869 40.0093 317.486 176.067 39.6452 302.929 180.744 40.5944 
302.175 180.873 40.6798 303.706 180.417 40.627 304.865 180.158 40.4304 
305.711 179.868 40.3015 305.654 179.812 40.3811 307.374 179.325 40.2332 
307.77 179.063 40.2724 308.095 179.121 40.2062 310.672 178.072 39.8756 
300.294 181.447 40.7515 297.327 182.494 40.8937 297.453 182.285 41.0528 
299.331 181.924 40.7243 299.839 181.852 40.6633 301.908 181.331 40.6326 
307.83 179.477 40.4297 293.266 183.728 40.9113 293.902 183.412 40.9923 
294.706 183.153 41.0403 304.409 180.737 40.7004 290.443 184.619 41.0417 
290.339 184.565 41.0817 292.219 184.122 40.9189 295.311 183.342 40.849 
295.99 183.271 40.856 285 184.009 39.0174 285 184.009 39.0175 
285 184.009 39.0175 285 184.009 39.0175 290.378 184.855 40.9709 
290.899 184.326 41.1673 297.252 183.144 40.9481 298.994 182.58 40.8774 
285 184.009 39.0175 289.142 185.316 41.206 291.372 184.803 40.8785 
292.504 184.646 40.9048 288.995 185.61 41.1421 362.374 133.098 39.8495 
362.409 133.036 39.8638 362.374 133.097 39.8499 362.409 133.036 39.8638 
362.24 133.337 39.7958 362.324 133.187 39.8298 362.268 133.285 39.8078 
362.33 133.177 39.8316 362.378 133.091 39.8512 361.89 133.953 39.6615 
362.147 133.498 39.7613 362.247 133.325 39.7988 362.329 133.179 39.8315 
361.695 134.293 39.592 361.892 133.949 39.6658 362.115 133.561 39.7484 
362.27 133.285 39.8086 361.344 134.909 39.4805 361.042 135.426 39.386 
361.618 134.43 39.5687 361.581 134.517 39.5548 361.849 134.036 39.6502 
360.645 136.106 39.294 360.934 135.667 39.3726 361.339 134.949 39.4814 
361.598 134.482 39.5655 359.157 138.437 39.0715 360.187 137.056 39.2326 
359.939 137.488 39.2498 358.01 140.17 39.3073 358.628 140.091 39.5695 
359.115 139.139 39.3373 356.923 141.771 39.222 355.477 144.632 38.982 
356.487 144.714 39.049 356.258 145.105 39.0349 354.681 145.99 38.8398 
356.15 145.186 39.1527 353.111 148.319 38.6865 352.042 149.706 38.7003 
350.287 151.675 38.6768 349.842 152.186 38.6354 348.094 153.807 38.5321 
351.795 152.941 38.5283 352.41 151.801 38.7655 351.717 152.958 38.7344 
345.231 156.264 38.7677 350.677 154.542 38.5387 348.304 157.266 38.8623 
338.448 161.317 38.5851 347.611 158.061 38.7656 345.844 159.473 38.9303 
344.402 160.697 38.8612 343.158 161.658 38.7717 331.882 165.214 38.6532 
332.429 164.975 38.7308 339.541 163.561 38.9185 327.611 167.535 38.9997 
328.011 167.384 39.1274 329.635 166.662 39.1746 330.264 166.389 39.2242 
336.473 165.307 38.8264 337.713 164.761 38.5984 335.399 166.155 38.4264 
324.067 169.55 39.5039 331.159 168.394 39.1641 319.52 172.226 39.8528 
328.227 170.428 39.4438 317.181 173.694 40.2611 326.899 171.36 39.3557 
314.85 175.02 39.8741 315.918 174.386 40.1946 313.001 176.353 40.558 
320.363 174.786 39.9497 317.923 175.938 39.9866 308.929 178.556 40.2623 
302.523 180.691 40.7479 302.916 180.562 40.7753 305.374 179.896 40.6164 
301.695 180.926 40.8433 310.456 178.523 40.3385 297.07 182.362 41.1117 
298.078 182.046 41.1807 301.988 180.829 40.9269 293.077 183.553 41.0855 
294.027 183.251 41.1768 294.758 183.031 41.2279 296.799 182.423 41.1982 
303.076 181.298 40.8878 303.875 181.018 40.8523 306.56 180.041 40.6967 
291.097 184.145 41.2911 290.973 184.157 41.3326 290.847 184.231 41.3066 
[...]
POINT_DATA 1740
SCALARS scalars float
LOOKUP_TABLE default
1 1 1 1 1 1 1 1 1 
1 1 1 1 1 1 1 1 1 
1 1 1 1 1 1 1 1 1 
1 1 1 1 1 1 1 1 1 
1 1 1 1 1 1 1 1 1 
1 1 1 1 1 1 1 1 1 
1 1 1 1 1 1 1 1 1 
1 1 1 1 1 1 1 1 1 
1 1 1 1 1 1 1 1 1 
1 1 1 1 1 1 1 1 1 
1 1 1 1 1 1 1 1 1 
1 1 1 1 1 1 1 1 1 
1 1 1 1 1 1 1 1 1 
1 1 1 1 1 1 1 1 1 
1 1 1 1 1 1 1 1 1 
1 1 1 1 1 1 1 1 1 
1 1 1 1 1 1 1 1 1 
1 1 1 1 1 1 1 1 1 
1 1 1 1 1 1 1 1 1 
1 1 1 1 1 1 1 1 1 
1 1 1 1 1 1 1 1 1 
1 1 1 1 1 1 1 1 1 
1 1 1 1 1 1 1 1 1 
1 1 1 1 1 1 1 1 1 
1 1 1 1 1 1 1 1 1 
1 1 1 1 1 1 1 1 1 
1 1 1 1 1 1 1 1 1 
1 1 1 1 1 1 1 1 1 
1 1 1 1 1 1 1 1 1 
1 1 1 1 1 1 1 1 1 
1 1 1 1 1 1 1 1 1 
1 1 1 1 1 1 1 1 1 
1 1 1 1 1 1 1 1 1 
1 1 1 1 1 1 1 1 1 
1 1 1 1 1 1 1 1 1 
1 1 1 1 1 1 1 1 1 
1 1 1 1 1 1 1 1 1 
1 1 1 1 1 1 1 1 1 
1 1 1 1 1 1 1 1 1 
1 1 1 1 1 1 1 1 1 
1 1 1 1 1 1 1 1 1 
1 1 1 1 1 1 1 1 1 
1 1 1 1 1 1 1 1 1 
1 1 1 1 1 1 1 1 1 
1 1 1 1 1 1 1 1 1 
1 1 1 1 1 1 1 1 1 
1 1 1 1 1 1 1 1 1 
1 1 1 1 1 1 1 1 1 
1 1 1 1 1 1 1 1 1 
1 1 1 1 1 1 1 1 1 
1 1 1 1 1 1 1 1 1 
1 1 1 1 1 1 1 1 1 
1 1 1 1 1 1 1 1 1 
1 1 1 1 1 1 1 1 1 
1 1 1 1 1 1 1 1 1 
1 1 1 1 1 1 1 1 1 
1 1 1 1 1 1 1 1 1 
1 1 1 1 1 1 1 1 1 
1 1 1 1 1 1 1 1 1 
1 1 1 1 1 1 1 1 1 
1 1 1 1 1 1 1 1 1 
1 1 1 1 1 1 1 1 1 
1 1 1 1 1 1 1 1 1 
1 1 1 1 1 1 1 1 1 
1 1 1 1 1 1 1 1 1 
1 1 1 1 1 1 1 1 1 
1 1 1 1 1 1 1 1 1 
1 1 1 1 1 1 1 1 1 
1 1 1 1 1 1 1 1 1 
1 1 1 1 1 1 1 1 1 
1 1 1 1 1 1 1 1 1 
1 1 1 1 1 1 1 1 1 
1 1 1 1 1 1 1 1 1 
1 1 1 1 1 1 1 1 1 
1 1 1 1 1 1 1 1 1 
1 1 1 1 1 1 1 1 1 
1 1 1 1 1 1 1 1 1 
1 1 1 1 1 1 1 1 1 
1 1 1 1 1 1 1 1 1 
1 1 1 1 1 1 1 1 1 
1 1 1 1 1 1 1 1 1 
1 1 1 1 1 1 1 1 1 
1 1 1 1 1 1 1 1 1 
1 1 1 1 1 1 1 1 1 
1 1 1 1 1 1 1 1 1 
1 1 1 1 1 1 1 1 1 
1 1 1 1 1 1 1 1 1 
1 1 1 1 1 1 1 1 1 
1 1 1 1 1 1 1 1 1 
1 1 1 1 1 1 1 1 1 
1 1 1 1 1 1 1 1 1 
1 1 1 1 1 1 1 1 1 
1 1 1 1 1 1 1 1 1 
1 1 1 1 1 1 1 1 1 
1 1 1 1 1 1 1 1 1 
1 1 1 1 1 1 1 1 1 
1 1 1 1 1 1 1 1 1 
1 1 1 1 1 1 1 1 1 
1 1 1 1 1 1 1 1 1 
1 1 1 1 1 1 1 1 1 
1 1 1 1 1 1 1 1 1 
1 1 1 1 1 1 1 1 1 
1 1 1 1 1 1 1 1 1 
1 1 1 1 1 1 1 1 1 
1 1 1 1 1 1 1 1 1 
1 1 1 1 1 1 1 1 1 
1 1 1 1 1 1 1 1 1 
1 1 1 1 1 1 1 1 1 
1 1 1 1 1 1 1 1 1 
1 1 1 1 1 1 1 1 1 
1 1 1 1 1 1 1 1 1 
1 1 1 1 1 1 1 1 1 
1 1 1 1 1 1 1 1 1 
1 1 1 1 1 1 1 1 1 
1 1 1 1 1 1 1 1 1 
1 1 1 1 1 1 1 1 1 
1 1 1 1 1 1 1 1 1 
1 1 1 1 1 1 1 1 1 
1 1 1 1 1 1 1 1 1 
1 1 1 1 1 1 1 1 1 
1 1 1 1 1 1 1 1 1 
1 1 1 1 1 1 1 1 1 
1 1 1 1 1 1 1 1 1 
1 1 1 1 1 1 1 1 1 
1 1 1 1 1 1 1 1 1 
1 1 1 1 1 1 1 1 1 
1 1 1 1 1 1 1 1 1 
1 1 1 1 1 1 1 1 1 
1 1 1 1 1 1 1 1 1 
1 1 1 1 1 1 1 1 1 
1 1 1 1 1 1 1 1 1 
1 1 1 1 1 1 1 1 1 
1 1 1 1 1 1 1 1 1 
1 1 1 1 1 1 1 1 1 
1 1 1 1 1 1 1 1 1 
1 1 1 1 1 1 1 1 1 
1 1 1 1 1 1 1 1 1 
1 1 1 1 1 1 1 1 1 
1 1 1 1 1 1 1 1 1 
1 1 1 1 1 1 1 1 1 
1 1 1 1 1 1 1 1 1 
1 1 1 1 1 1 1 1 1 
1 1 1 1 1 1 1 1 1 
1 1 1 1 1 1 1 1 1 
1 1 1 1 1 1 1 1 1 
1 1 1 1 1 1 1 1 1 
1 1 1 1 1 1 1 1 1 
1 1 1 1 1 1 1 1 1 
1 1 1 1 1 1 1 1 1 
1 1 1 1 1 1 1 1 1 
1 1 1 1 1 1 1 1 1 
1 1 1 1 1 1 1 1 1 
1 1 1 1 1 1 1 1 1 
1 1 1 1 1 1 1 1 1 
1 1 1 1 1 1 1 1 1 
1 1 1 1 1 1 1 1 1 
1 1 1 1 1 1 1 1 1 
1 1 1 1 1 1 1 1 1 
1 1 1 1 1 1 1 1 1 
1 1 1 1 1 1 1 1 1 
1 1 1 1 1 1 1 1 1 
1 1 1 1 1 1 1 1 1 
1 1 1 1 1 1 1 1 1 
1 1 1 1 1 1 1 1 1 
1 1 1 1 1 1 1 1 1 
1 1 1 1 1 1 1 1 1 
1 1 1 1 1 1 1 1 1 
1 1 1 1 1 1 1 1 1 
1 1 1 1 1 1 1 1 1 
1 1 1 1 1 1 1 1 1 
1 1 1 1 1 1 1 1 1 
1 1 1 1 1 1 1 1 1 
1 1 1 1 1 1 1 1 1 
1 1 1 1 1 1 1 1 1 
1 1 1 1 1 1 1 1 1 
1 1 1 1 1 1 1 1 1 
1 1 1 1 1 1 1 1 1 
1 1 1 1 1 1 1 1 1 
1 1 1 1 1 1 1 1 1 
1 1 1 1 1 1 1 1 1 
1 1 1 1 1 1 1 1 1 
1 1 1 1 1 1 1 1 1 
1 1 1 1 1 1 1 1 1 
1 1 1 1 1 1 1 1 1 
1 1 1 1 1 1 1 1 1 
1 1 1 1 1 1 1 1 1 
1 1 1 1 1 1 1 1 1 
1 1 1 1 1 1 1 1 1 
1 1 1 1 1 1 1 1 1 
1 1 1 1 1 1 1 1 1 
1 1 1 1 1 1 1 1 1 
1 1 1 1 1 1 1 1 1 
1 1 1 1 1 1 1 1 1 
1 1 1 
NORMALS Normals float
-0.381948 -0.339498 -0.859568 -0.154703 -0.128101 -0.979621 -0.425645 -0.228429 -0.875584 
0 -0.121763 -0.992559 0 -0.992432 -0.122797 -0.849089 -0.520497 -0.0901731 
0.849089 -0.520497 -0.0901731 0 0.184289 -0.982872 -0.309596 -0.330241 -0.891679 
-0.0342308 -0.15633 -0.987112 0.315176 0.0306547 -0.948538 0.485546 0.164021 -0.858686 
-0.435404 -0.45572 -0.776365 0.105222 0.0489109 -0.993245 0.103769 0.0314639 -0.994104 
-0.415791 -0.480084 -0.772422 0.476685 0.291794 -0.829233 -0.394444 -0.332552 -0.856635 
-0.145189 -0.243993 -0.958847 0.277471 0.112992 -0.954066 -0.419875 -0.511513 -0.749706 
0.273659 0.0677334 -0.959439 -0.488393 -0.704122 -0.515445 -0.223805 -0.201971 -0.953478 
-0.51333 -0.640781 -0.570869 -0.27776 -0.321069 -0.905408 -0.0353338 -0.0333323 -0.99882 
-0.258446 -0.331026 -0.907539 -0.44123 -0.598994 -0.668223 -0.0797011 -0.0958052 -0.992204 
-0.306976 -0.222976 -0.925228 -0.229883 -0.367148 -0.901308 -0.597478 -0.557484 -0.576395 
0.249088 -0.0824177 -0.964968 -0.747358 -0.47293 -0.466683 0.146556 -0.0723424 -0.986553 
0.33735 0.00154896 -0.941378 -0.0529851 -0.0953335 -0.994034 -0.730668 -0.415845 -0.541476 
0.315765 0.113615 -0.942011 0.266383 0.0525992 -0.962431 0.41034 0.195022 -0.890835 
0.409154 0.196772 -0.890996 0 -0.229113 0.9734 0.216977 0.12188 -0.968538 
0.00120241 -0.0461955 -0.998932 -0.368054 -0.37373 -0.851388 0.232672 0.0779279 -0.969428 
0.111637 -0.0870155 -0.989932 -0.67897 -0.633064 -0.371793 0.610015 0.262411 -0.747678 
0.42286 0.255382 -0.869465 0.771065 0.343418 -0.536212 0.638308 0.330608 -0.695169 
0.419751 0.34235 -0.840599 -0.337994 -0.695544 -0.634018 -0.479797 -0.503455 -0.71856 
0.653705 0.502384 -0.565932 -0.608382 -0.686761 -0.397782 -0.550446 -0.767171 -0.329329 
-0.71206 -0.690629 -0.126502 0.525586 0.362292 -0.769743 -0.472956 -0.698286 -0.537317 
0.207763 0.234333 -0.949696 0.498733 0.448859 -0.741479 -0.406912 -0.633847 -0.65777 
-0.0142595 -0.0725812 -0.997261 0.376964 0.600956 -0.704805 -0.515461 -0.852451 -0.0873322 
0.46784 0.659098 -0.588826 -0.486062 -0.314679 -0.815304 -0.115164 0.0696284 -0.990903 
0.187011 0.283105 -0.94068 -0.384489 -0.513183 -0.76734 -0.00637451 0.144474 -0.989488 
-0.221002 -0.244086 -0.944235 -0.10726 -0.00499479 -0.994218 0.131058 0.338346 -0.93185 
0.288068 0.446193 -0.847307 0.348955 0.512577 -0.784535 -0.325387 -0.620801 -0.713253 
-0.576616 -0.643925 -0.502866 -0.579825 -0.806327 -0.116785 -0.565709 -0.153716 -0.810151 
-0.301907 -0.164318 -0.93907 0.123141 0.340549 -0.932128 0.428846 0.757116 -0.492815 
-0.604072 -0.533652 -0.591872 -0.197492 -0.159789 -0.967194 0.0121841 -0.040713 -0.999097 
-0.0426659 0.0891357 -0.995105 0.296126 0.753083 -0.587516 -0.180431 -0.0201469 -0.983381 
0.0451535 0.309299 -0.949892 0.165365 0.365195 -0.916126 -0.476755 -0.465915 -0.745404 
-0.726244 -0.601855 -0.332174 0.391422 0.00701077 -0.920184 0.838111 0.350184 -0.41826 
-0.798964 -0.545989 -0.252096 -0.804825 -0.535121 -0.256712 0.518022 0.144294 -0.843109 
0.544593 0.327966 -0.771918 -0.849002 -0.477122 -0.227047 0.59109 0.249899 -0.766918 
0.79273 0.414357 -0.447087 0.618946 0.308804 -0.722181 0.826291 0.420165 -0.375105 
-0.666945 -0.661714 -0.342519 -0.646735 -0.682015 -0.341452 -0.651972 -0.736612 -0.179819 
-0.369269 -0.703216 -0.607559 -0.343518 -0.934129 -0.0969483 0.708827 0.432333 -0.557362 
-0.417084 -0.89579 -0.153624 -0.599091 -0.783976 -0.162701 -0.515251 -0.856067 0.0408238 
-0.537716 -0.841128 0.058009 0.599224 0.645884 -0.473037 -0.586437 -0.711924 -0.386336 
-0.472315 -0.834717 -0.283135 0.425766 0.630526 -0.648968 -0.517007 -0.713392 -0.473049 
0.447988 0.788385 -0.421611 -0.512857 -0.606042 -0.608022 0.449915 0.602548 -0.659175 
0.444287 0.776983 -0.44599 -0.489951 -0.670616 -0.556976 0.413656 0.657862 -0.62937 
0.428685 0.764235 -0.481843 -0.44246 -0.566067 -0.695555 0.372856 0.666853 -0.645202 
-0.417935 -0.775097 -0.473872 -0.392458 -0.75983 -0.5183 -0.295198 -0.498482 -0.815091 
-0.220319 -0.27694 -0.935288 -0.585504 -0.572869 -0.57359 -0.149814 -0.160907 -0.975533 
-0.163285 -0.147509 -0.975489 0.357492 0.781054 -0.51201 -0.318969 -0.183641 -0.929804 
-0.235082 0.298478 -0.925012 0.0615139 0.342176 -0.93762 -0.102426 0.426992 -0.898436 
0.10528 0.379571 -0.919153 0.136898 -0.125062 -0.982659 -0.353759 -0.382338 -0.853623 
0.452707 0.0775228 -0.888283 0.237564 -0.073242 -0.968607 -0.541204 -0.465745 -0.700128 
-0.832236 -0.546894 -0.0910509 -0.843982 -0.536318 -0.00758829 0.832109 0.369181 -0.413884 
-0.837521 -0.532605 -0.122032 -0.815497 -0.537693 -0.214126 0.831214 0.412951 -0.37223 
0.861824 0.503534 -0.0609394 -0.842825 -0.533741 -0.0690415 -0.722033 -0.679944 0.127845 
-0.393302 -0.891776 -0.223716 -0.416297 -0.878471 0.234491 0.806547 0.57274 -0.146461 
-0.584824 -0.794699 0.162589 -0.562995 -0.809219 0.167929 -0.593885 -0.750784 -0.289178 
-0.519126 -0.832521 0.193434 0.711796 0.639257 -0.291027 -0.555747 -0.830273 0.0423364 
0.671478 0.632875 -0.385469 0.620204 0.773248 0.132044 0.568541 0.801887 -0.18368 
-0.519287 -0.806423 -0.282884 0.427786 0.903572 0.0235932 0.483195 0.865344 -0.133053 
-0.53461 -0.781138 -0.322514 0.554229 0.82124 -0.135627 0.563183 0.822384 -0.0806836 
-0.631436 -0.48368 -0.606088 -0.420441 -0.50684 -0.752558 -0.514253 -0.821321 -0.246932 
-0.486588 -0.378702 -0.787284 -0.355991 0.0276231 -0.934081 0.324692 0.72618 -0.606001 
-0.406294 -0.824681 -0.39348 -0.315998 -0.544192 -0.777175 -0.231807 0.0590357 -0.970969 
-0.136971 -0.948813 -0.284594 -0.377255 -0.821167 0.428208 -0.169122 -0.0921444 -0.981278 
-0.232122 -0.840698 -0.48923 -0.0250974 -0.00685313 -0.999662 -0.0870263 0.0875437 -0.992352 
-0.0321054 0.511736 -0.858543 -0.283516 0.0930606 -0.954441 -0.563699 -0.802057 -0.197353 
-0.43525 0.172794 -0.883572 0.157807 0.592187 -0.790197 -0.399446 -0.910219 -0.109284 
0.360449 0.249208 -0.898873 0.130655 0.534496 -0.835011 0.172843 0.636326 -0.751808 
0.0065337 0.392821 -0.919592 0.0787421 0.509415 -0.856911 0.0594758 0.507507 -0.859592 
0.331078 0.790852 -0.514724 0.103629 0.56052 -0.821632 0.126089 0.587466 -0.799366 
0.226174 -0.0784176 -0.970925 -0.412954 -0.411458 -0.812509 -0.267248 -0.34168 -0.901018 
0.71323 0.260392 -0.650768 0.248568 -0.0731874 -0.965846 0.786796 0.323962 -0.525358 
0.115385 -0.136425 -0.983908 -0.58022 -0.467043 -0.667245 0.723334 0.275908 -0.632979 
0.877254 0.465944 -0.115421 -0.786306 -0.522014 -0.330492 -0.839389 -0.529478 -0.122798 
0.807399 0.35869 -0.468454 0.87752 0.473353 -0.0767811 -0.845607 -0.523092 0.106411 
0.87976 0.475388 0.00538029 -0.763589 -0.575324 0.293145 0.880397 0.460306 0.114107 
-0.906593 -0.417318 0.0627326 -0.79436 -0.517896 0.317452 0.842759 0.499828 0.199822 
-0.716283 -0.635432 0.288383 0.860124 0.460777 -0.218798 -0.638155 -0.755134 -0.150105 
-0.591413 -0.747253 0.303057 0.773803 0.62764 -0.0854188 -0.534216 -0.620876 0.573695 
0.730027 0.674648 0.109136 0.777292 0.625062 -0.0715218 -0.571077 -0.768932 0.28743 
0.588016 0.807151 -0.0523904 0.631859 0.727434 0.26757 -0.452445 -0.755859 0.473256 
0.629763 0.763424 -0.143462 0.494518 0.866453 0.0686373 0.587638 0.806106 0.0698112 
-0.457449 -0.886691 0.0672228 0.449683 0.810291 0.375785 -0.461203 -0.867438 0.186661 
0.508824 0.847156 0.153054 0.487193 0.873069 0.0198413 0.486528 0.835689 0.254782 
0.472203 0.807034 0.354571 -0.44752 -0.887163 0.112551 -0.397211 -0.913059 -0.0924465 
0.534046 0.787156 0.308513 0.46332 0.82231 0.330365 0.350209 0.923867 0.154346 
-0.579692 -0.811336 0.0754464 0.541403 0.839531 -0.0455028 -0.524877 -0.847069 -0.083534 
-0.583113 -0.782109 0.219736 0.526959 0.84215 0.114444 0.429784 0.869037 0.245071 
-0.440372 -0.894001 0.082672 -0.0240771 0.73211 -0.680761 -0.374273 -0.816896 0.438863 
-0.585935 -0.696606 -0.414028 0.392706 0.855968 -0.336304 -0.551627 -0.724462 -0.413355 
0.339323 0.80147 -0.492449 -0.274277 -0.952503 -0.132326 -0.461486 -0.799515 -0.384456 
-0.238468 -0.333614 -0.91205 -0.297496 -0.262432 -0.917946 -0.486842 -0.831902 -0.266317 
0.249041 0.884952 -0.393496 0.375383 0.912392 -0.163185 -0.186731 -0.467719 -0.863928 
-0.227635 -0.612528 -0.756963 -0.279362 -0.754466 -0.593917 -0.143646 -0.0939696 -0.985157 
-0.295225 -0.112276 -0.948808 -0.385952 -0.82887 -0.404988 0.0343774 0.138565 -0.989757 
-0.31648 -0.755938 -0.57306 0.0132217 0.305154 -0.952211 0.0990758 0.531571 -0.841199 
-0.27804 -0.755273 -0.593512 -0.167222 -0.540905 -0.824293 -0.20943 -0.866335 -0.453434 
-0.188809 -0.464002 -0.865479 -0.0157843 0.0394249 -0.999098 0.0929033 0.36359 -0.926915 
0.253908 0.790437 -0.55744 -0.187344 -0.443409 -0.876522 -0.174746 -0.657899 -0.732552 
-0.206001 -0.727452 -0.654506 0.12528 0.643902 -0.754782 -0.132964 -0.339414 -0.931192 
-0.333481 -0.682799 -0.650058 -0.135928 -0.317737 -0.938385 0.0135034 0.0494181 -0.998687 
-0.0138065 0.0598773 -0.99811 0 -0.097798 -0.995206 0 -0.447214 -0.894427 
-0.200259 -0.0958169 -0.975046 0.200259 -0.0958169 -0.975046 -0.121954 -0.175826 -0.976838 
-0.222361 -0.638157 -0.737096 0.0867684 0.601106 -0.794445 0.189658 0.642325 -0.742596 
0 0.242536 -0.970142 -0.460587 -0.516711 -0.721713 -0.0707166 -0.0925211 -0.993196 
0.0881587 0.249148 -0.964444 -0.262911 -0.0508715 -0.963478 0.11844 -0.156486 -0.980553 
-0.0429865 -0.25308 -0.96649 -0.691939 -0.507712 -0.513273 0.863096 0.409847 -0.295112 
-0.140315 -0.291298 -0.946286 -0.514754 -0.454859 -0.726727 -0.528341 -0.457383 -0.715302 
0.535241 0.110957 -0.83738 0.877988 0.45891 -0.136156 -0.761732 -0.51662 -0.390983 
-0.781349 -0.518422 -0.347464 0.809927 0.348423 -0.471826 0.877769 0.471592 -0.0844019 
-0.858614 -0.506535 -0.0787629 -0.861564 -0.43546 0.260925 0.808537 0.513571 0.28725 
0.800706 0.51521 0.305661 -0.804726 -0.382358 0.454112 -0.852196 -0.456012 0.256545 
-0.826625 -0.392996 0.402797 0.821199 0.50675 0.262369 0.664651 0.485247 0.568132 
-0.770526 -0.393913 0.50112 0.0471391 0.145756 0.988197 0.641634 0.46257 0.611829 
0.267553 0.317359 0.90978 -0.806402 -0.492061 0.328011 0.695813 0.403651 0.594062 
0.557761 0.266372 0.786097 -0.793996 -0.507024 0.335405 0.884059 -0.00181812 0.467373 
0.864982 0.423585 0.269037 -0.817115 -0.451489 0.358442 -0.844196 -0.441886 0.303431 
0.87766 0.431953 0.207677 0.803925 0.557337 0.207556 -0.592636 -0.516891 0.617743 
0.741333 0.465935 0.483042 -0.770027 -0.571658 0.283311 -0.601258 -0.473574 0.643597 
-0.640246 -0.589173 0.49291 -0.581238 -0.402897 0.706991 -0.635108 -0.672673 0.37967 
0.844481 0.528022 0.0896926 0.807609 0.482083 0.339654 0.775169 0.543627 0.321842 
-0.420162 -0.524919 0.740219 0.774265 0.588064 0.233868 0.525921 0.448136 0.722897 
-0.372271 -0.638741 0.673368 0.646525 0.693861 0.317116 0.493983 0.575079 0.652123 
0.579236 0.674477 0.457784 0.522716 0.762819 0.380625 -0.416847 -0.751655 0.51113 
-0.447402 -0.831741 0.328692 0.277965 0.60741 0.74417 -0.407341 -0.906619 0.110071 
-0.432558 -0.900994 0.0332185 -0.323111 -0.680565 0.657595 -0.293744 -0.597491 0.746136 
0.414907 0.747748 0.518386 0.403583 0.760752 0.508308 0.456739 0.888213 0.0496617 
-0.4893 -0.747447 0.449342 0.534179 0.71472 0.451473 -0.402868 -0.764327 0.503489 
0.558254 0.716261 0.418715 -0.52602 -0.831649 0.177942 0.451773 0.856112 0.250944 
-0.621849 -0.782945 0.0173232 -0.463942 -0.869383 0.17009 -0.541764 -0.792577 0.279846 
0.542258 0.826125 0.153215 0.428248 0.901881 0.056688 -0.515713 -0.848889 -0.115878 
-0.268518 -0.899052 -0.345836 -0.253635 -0.886292 -0.387499 -0.289136 -0.956872 -0.0282267 
-0.331894 -0.849819 -0.409457 0.301028 0.901027 -0.312302 -0.250304 -0.878988 -0.405867 
-0.259271 -0.932448 -0.251633 -0.328377 -0.927625 0.177988 -0.294061 -0.782604 -0.548688 
-0.259362 -0.83992 -0.476724 -0.256992 -0.953308 -0.158615 -0.262117 -0.965027 0.00424966 
0.327343 0.848052 -0.416719 0.217252 0.74784 -0.627326 0.360815 0.916923 -0.170485 
-0.227528 -0.827615 -0.513113 -0.384707 -0.921127 -0.059371 -0.448696 -0.867113 -0.216304 
-0.322978 -0.940529 0.105308 -0.416879 -0.840116 -0.347012 0.248373 0.876479 -0.412427 
0.341702 0.863933 -0.369945 0 -0.220158 0.975464 -0.444932 -0.852253 -0.275137 
-0.266847 -0.956216 -0.120182 0.282824 0.799799 -0.529465 -0.507883 -0.775512 -0.375015 
-0.400809 -0.732833 -0.549826 0.212238 0.59101 -0.778243 0.128492 0.77395 -0.620074 
-0.592898 -0.370626 -0.714919 -0.412411 -0.339046 -0.845556 0.00552471 0.331934 -0.943286 
0.124481 0.39045 -0.912169 -0.845549 -0.219916 -0.486502 -0.250212 0.0274229 -0.967803 
0.275505 0.686941 -0.672465 0.365223 0.728779 -0.579218 -0.653323 0.143465 -0.743362 
-0.542402 0.0948908 -0.834743 -0.323682 0.517925 -0.791823 -0.347541 0.0662747 -0.93532 
-0.108802 0.319994 -0.941151 0.0894629 0.590969 -0.801718 0.0693791 0.424486 -0.902773 
0 -0.146205 -0.989254 0 -0.995053 -0.0993498 -0.672545 -0.733586 -0.0976431 
0.672545 -0.733586 -0.0976431 0 0.447214 -0.894427 -0.00257023 -0.0500464 -0.998744 
-0.13534 -0.661559 -0.737579 -0.435547 0.290381 -0.852043 0.521055 -0.339949 -0.782902 
-0.871564 -0.490152 0.0112671 0.212736 0.676049 -0.70548 -0.873101 -0.473577 0.115842 
-0.699852 -0.509371 -0.500748 0.0110457 0.217753 0.975941 -0.00343442 0.210551 0.977577 
-0.801225 -0.518812 -0.298116 -0.872103 -0.464092 0.1551 -0.83713 -0.388265 0.385308 
0.6504 0.491469 0.57917 0.426782 0.413606 0.804231 -0.861099 -0.422454 0.282915 
-0.692966 -0.247685 0.677089 0.315044 0.360961 0.877755 -0.613759 -0.237267 0.752997 
-0.600128 -0.209399 0.77201 -0.62923 -0.218959 0.745739 -0.317254 0.00965656 0.948292 
-0.102319 0.147726 0.983721 -0.480142 -0.109833 0.870288 -0.478546 -0.164835 0.862452 
-0.34044 -0.0351596 0.939609 -0.548448 -0.274564 0.789822 -0.504647 -0.208942 0.83766 
-0.101353 0.0201592 0.994646 -0.610475 -0.370757 0.6999 0.0993257 0.0660759 0.992859 
-0.0501786 -0.0818821 0.995378 0.173859 -0.0183396 0.9846 -0.262723 -0.403782 0.87632 
-0.523862 -0.385755 0.759448 -0.29913 -0.718203 0.628256 0.476155 -0.778969 0.408024 
0.947255 0.318945 0.0313228 0.763003 0.498998 0.410886 0.845369 0.396697 0.357747 
0.528186 0.32205 0.785686 -0.32124 -0.17995 0.929743 -0.522072 -0.500963 0.690273 
-0.60689 -0.424298 0.672053 -0.45084 -0.307925 0.83781 -0.230817 -0.22007 0.947783 
0.156471 0.0525162 0.986285 -0.371022 -0.437634 0.819036 -0.501699 -0.461765 0.731485 
0.041223 -0.0225279 0.998896 0.673519 0.385486 0.630693 -0.52853 -0.346919 0.774793 
0.550538 0.433432 0.713473 -0.38557 -0.523556 0.759753 -0.169227 -0.0450064 0.984549 
-0.0717833 -0.135711 0.988145 0.618891 0.503071 0.603236 -0.351248 -0.389025 0.851636 
-0.298124 -0.453278 0.840036 -0.0735723 -0.173558 0.982072 0.143639 0.0210887 0.989405 
0.583811 0.564816 0.583222 -0.431561 -0.688371 0.58301 -0.200741 -0.158365 0.966759 
-0.0495963 -0.0597974 0.996978 0.44256 0.45619 0.77203 -0.295739 -0.410095 0.862763 
-0.159908 -0.265029 0.950889 -0.121536 -0.0896844 0.988527 0.354262 0.46825 0.809469 
0.415596 0.518218 0.747483 -0.289219 -0.593696 0.750918 0.395068 0.642417 0.656675 
0.485636 0.590821 0.644273 -0.247122 -0.507455 0.825482 -0.00208743 0.124666 0.992196 
0.183627 0.475718 0.860217 0.372067 0.683218 0.628315 0.345925 0.646908 0.679592 
0.217489 0.339692 0.915045 0.378533 0.571251 0.728276 0.532214 0.668938 0.518912 
-0.394125 -0.71586 0.576377 0.440141 0.694249 0.569468 -0.602349 -0.694215 0.394006 
-0.396472 -0.794262 0.460389 -0.464994 -0.779372 0.419952 0.452533 0.805663 0.382258 
0.451105 0.891415 0.0433986 0.29731 0.898009 0.324324 -0.395811 -0.883975 0.24884 
-0.329579 -0.93982 -0.0900933 -0.273392 -0.929942 0.245896 0.421827 0.882669 0.207264 
0.369928 0.929028 0.00777787 -0.290512 -0.943175 -0.16132 0.382926 0.917609 -0.106585 
-0.415557 -0.906496 -0.0746859 -0.348099 -0.929846 -0.119219 -0.42012 -0.907375 0.0130536 
-0.556746 -0.741243 -0.374956 0.214691 0.970967 -0.1055 -0.622689 -0.746279 -0.235214 
-0.578137 -0.78807 -0.211433 -0.20579 -0.832175 -0.514913 0.315437 0.923578 -0.21795 