# vtk DataFile Version 4.2
vtk output
ASCII
DATASET POLYDATA
POINTS 569 float
444.844 206.131 199.117 449.438 205.741 198.866 446.318 207.678 198.977 
448.323 207.317 198.837 445.544 208.789 199.515 444.72 203.075 200.032 
447.059 203.263 199.623 452.587 203.369 199.819 443.134 204.331 200.006 
447.271 204.584 199.09 442.667 205.775 199.975 442.003 207.676 200.457 
442.516 209.159 200.83 451.219 208.789 199.63 446.393 209.638 200.031 
444.664 210.264 201.082 450.411 210.095 200.388 445.294 201.622 200.932 
454.192 201.869 200.951 457.825 204.848 200.887 456.28 205.763 200.333 
442.127 201.327 202.098 445.841 200.973 201.426 440.256 208.243 202.091 
457.07 208.34 201.027 453.984 209.668 200.726 455.212 210.603 201.919 
446.201 211.458 202.694 449.656 199.53 202.639 450.704 199.488 202.71 
440.376 209.141 202.633 458.611 209.978 202.472 457.394 210.483 202.564 
459.164 210.296 202.946 454.476 211.26 202.522 451.668 199.439 203.044 
451.677 199.185 203.568 440.655 200.598 204.192 442.985 200.099 203.382 
459.221 200.949 203.897 438.246 202.676 204.277 464.413 205.233 203.109 
464.747 206.438 203.1 466.61 206.995 203.769 438.159 207.354 203.917 
464.568 207.711 203.201 440.262 209.741 203.524 457.638 211.2 203.707 
454.041 199.331 204.073 452.159 198.947 204.562 457.337 199.975 204.672 
438.242 202.044 204.846 466.908 203.578 205.373 469.619 205.433 205.344 
471.589 207.024 205.616 466.036 208.341 203.82 468.497 208.474 204.573 
469.281 208.304 204.766 437.98 208.284 204.88 465.073 209.494 204.143 
468.397 209.072 204.758 470.143 208.746 205.149 438.74 209.14 204.87 
465.623 209.934 204.64 467.434 209.763 204.925 457.352 211.746 204.89 
466.303 210.436 205.317 468.136 210.143 205.399 444.915 198.874 205.262 
439.143 200.764 205.563 436.9 203.302 205.887 436.936 204.632 205.207 
472.361 205.763 206.717 440.288 210.745 205.801 463.576 210.874 205.178 
467.191 211.048 206.301 436.958 202.593 206.55 471.987 205.24 206.955 
436.189 205.654 206.572 474.277 206.78 207.557 474.25 208.309 206.952 
436.469 207.613 207.064 436.224 207.644 207.758 474.829 209.314 207.363 
474.186 209.903 207.222 467.1 211.439 207.12 456.205 199.294 206.801 
435.472 204.977 208.273 435.42 205.492 208.473 435.917 205.184 207.155 
473.72 205.912 208.014 475.984 207.672 208.569 435.559 206.44 208.44 
476.803 209.441 208.952 475.75 209.912 208.186 475.967 210.376 208.677 
435.313 204.326 208.977 477.123 209.228 209.32 477.367 209.904 209.79 
476.701 210.463 209.358 472.815 211.322 208.161 436.123 202.328 209.264 
476.743 207.846 209.739 477.123 208.643 209.49 435.805 207.987 210.292 
477.754 209.488 210.456 477.326 210.406 209.983 473.736 211.799 209.25 
477.494 211.517 211.102 435.007 205.622 210.765 435.264 206.818 210.492 
477.502 208.689 210.51 436.523 209.176 211.149 478.126 210.081 211.055 
478.305 210.265 211.444 478.114 210.842 211.255 441.695 212.029 210.694 
475.339 212.041 210.476 434.951 205.041 211.337 478.227 209.743 211.524 
478.243 209.968 211.345 438.733 210.968 211.552 470.653 212.228 211.218 
473.658 212.246 210.733 478.085 211.547 211.931 436.983 201.019 211.905 
436.174 201.813 211.858 435.097 203.846 211.589 477.14 207.792 212.002 
478.488 211.23 212.76 451.58 198.948 213.084 437.098 200.947 213.269 
435.341 203.153 212.614 462.766 211.924 212.806 471.704 212.319 212.869 
442.866 198.812 213.555 434.944 205.319 214.009 476.326 206.92 213.44 
477.135 207.787 213.546 478.43 211.512 213.934 477.944 212.085 214.134 
438.078 200.54 214.819 452.131 199.334 214.815 435.389 203.424 214.136 
472.116 204.289 214.613 435.049 206.575 214.691 435.724 208.277 215.681 
476.987 212.406 214.789 478.125 211.917 214.623 435.142 206.086 216.023 
437.827 210.4 216.311 460.332 211.668 215.193 444.21 212.283 216.141 
478.189 211.709 215.144 478.033 211.976 215.062 477.587 212.19 215.264 
438.316 201.14 216.674 435.818 203.394 216.238 463.971 201.992 216.705 
435.884 208.222 217.129 478.184 211.374 215.552 477.754 212.03 215.624 
476.969 212.171 215.894 439.898 200.447 216.664 440.804 200.624 217.25 
469.825 203.795 216.893 473.724 205.901 216.882 435.503 207.091 217.299 
476.978 208.526 216.491 436.606 209.025 217.899 477.727 210.248 216.456 
437.392 209.791 218.003 478.052 211.048 215.962 449.045 211.95 217.212 
477.903 211.672 216.024 474.902 211.769 216.842 477.791 211.759 216.097 
438.029 202.055 217.66 449.965 201.496 219.195 456.612 201.475 217.854 
436.778 202.879 217.383 449.765 202.238 219.564 466.575 203.136 217.722 
436.503 203.811 217.966 454.808 203.579 219.892 464.093 202.522 217.57 
476.979 209.047 217.066 477.339 209.338 216.746 477.41 209.769 216.84 
461.332 210.283 217.804 462.81 210.207 217.773 438.759 210.606 218.117 
439.262 210.725 218.442 457.612 210.713 217.804 459.606 211.033 216.943 
468.739 210.929 217.052 442.352 211.419 218.101 477.286 211.459 216.738 
476.883 211.836 216.572 452.176 200.786 218.057 439.272 202.495 218.735 
436.207 204.849 218.419 459.297 205.898 219.934 473.134 206.356 218.141 
462.17 206.204 219.786 462.468 206.781 219.769 474.88 207.63 217.938 
465.367 207.16 219.557 467.364 208.106 219.248 476.347 209.086 217.706 
463.066 208.942 218.929 469.453 209.43 218.68 470.049 209.009 218.942 
471.777 209.383 218.843 457.351 209.661 218.823 477.035 210.279 217.3 
453.973 211.023 218.217 475.483 210.558 218.064 476.49 210.714 217.605 
476.475 211.139 217.356 449.666 200.602 218.47 441.487 203.143 219.756 
452.334 202.422 219.426 462.818 203.024 218.302 437.926 204.462 219.621 
443.216 203.61 220.171 453.362 203.344 219.75 466.12 203.994 218.621 
467.755 204.105 218.49 470.335 205.032 218.631 436.345 206.026 219.105 
437.26 205.758 219.891 467.078 205.41 219.179 468.22 204.922 219.005 
471.358 205.882 218.783 470.771 205.569 218.856 461.691 205.673 219.748 
466.834 206.176 219.355 471.244 206.492 219.068 436.536 206.955 219.591 
458.834 206.799 219.823 463.614 206.316 219.683 471.91 206.719 219.04 
472.941 207.413 218.846 474.243 207.536 218.283 449.066 207.45 220.93 
468.572 207.793 219.284 470.725 207.865 219.183 474.324 208.182 218.489 
451.711 207.97 220.484 459.249 208.203 219.41 473.458 208.732 218.801 
474.251 208.772 218.604 475.731 208.865 218.006 476.131 209.949 217.924 
437.989 209.725 219.297 438.917 210.163 219.408 453.241 210.382 219.158 
438.231 205.184 220.233 439.198 205.245 220.605 437.046 206.301 219.949 
472.121 206.593 218.963 472.416 206.646 218.866 451.038 208.672 220.495 
437.393 208.733 219.854 446.48 209.426 220.556 448.347 209.594 220.357 
439.433 209.849 219.946 440.329 209.466 220.402 445.337 210.018 220.196 
451.741 209.866 219.804 454.24 209.82 219.441 450.437 210.465 219.479 
438.287 206.944 220.615 444.671 206.983 221.194 447.234 207.721 221.034 
438.055 208.598 220.258 439.975 208.464 220.791 438.835 205.996 236.403 
438.925 207.028 236.362 437.259 207.382 237.331 439.785 207.415 236.17 
437.819 208.312 237.414 439.276 208.16 236.619 441.392 208.531 236.329 
441.203 208.122 236.218 445.424 203.361 236.798 436.892 204.409 237.846 
445.866 204.783 236.343 437.074 205.312 237.373 453.098 204.783 236.648 
441.542 206.356 236.145 449.275 206.165 236.252 468.497 206.024 237.474 
468.65 206.423 237.332 436.372 206.201 237.988 470.303 206.869 237.362 
471.283 207.244 237.424 473.155 207.149 237.992 444.98 207.738 236.239 
447.9 207.637 236.297 443.786 208.536 236.419 474.968 208.889 238.082 
475.982 209.034 238.537 437.527 208.739 238.011 439.642 209.246 237.212 
445.647 209.067 236.66 447.499 208.981 236.675 459.369 208.479 237.332 
473.626 209.4 237.717 474.068 209.217 237.804 438.584 209.746 238.317 
455.474 209.688 237.477 474.783 210.104 238.218 475.456 209.849 238.287 
445.458 210.31 237.451 454.195 200.917 239.123 444.155 202.209 237.46 
446.199 201.747 237.72 454.324 201.086 238.988 457.072 201.94 238.59 
456.562 201.64 238.835 458.557 202.245 238.527 438.533 202.725 238.09 
446.909 202.253 237.352 459.886 203.216 237.959 463.194 203.307 238.387 
463.53 202.983 238.743 437.361 203.476 238.158 440.954 203.507 237 
462.195 203.701 237.962 466.086 204.236 238.176 436.558 204.402 238.159 
470.428 204.84 238.844 466.434 205.282 237.641 471.099 206.222 237.855 
457.571 205.948 236.799 468.641 206.771 237.285 470.308 207.761 237.258 
460.216 207.817 237.262 460.395 208.562 237.541 461.695 208.632 237.741 
472.066 208.855 237.394 458.511 209.312 237.59 462.512 209.266 238.167 
470.112 209.157 237.697 469.634 210.418 238.776 476.802 210.421 238.966 
477.435 210.258 239.413 440.621 210.944 239.03 456.325 210.123 237.883 
472.92 210.765 238.618 444.125 211.176 238.329 446.186 211.368 238.646 
474.939 211.142 239.006 476.832 211.193 239.279 449.198 200.341 239.437 
452.56 200.464 239.537 442.73 200.748 238.99 449.313 201.312 238.284 
453.824 202.38 237.896 467.397 203.451 239.28 436.217 203.309 239.499 
436.148 203.748 239.191 461.043 203.974 237.724 454.098 203.796 237.114 
465.469 205.596 237.5 462.047 205.983 237.336 473.772 206.035 239.365 
474.346 206.587 239.054 459.672 206.654 237.057 463.837 206.776 237.417 
461.413 207.315 237.328 469.928 208.112 237.337 476.057 208.316 238.934 
470.564 208.776 237.476 476.914 209.485 239.067 472.792 209.396 237.618 
460.762 210.553 239.006 477.964 210.981 240.027 444.96 211.892 239.484 
455.415 211.101 239.021 473.875 211.549 239.516 476.219 211.605 239.543 
477.703 211.377 239.725 477.843 211.626 240.015 477.785 211.756 240.118 
448.835 199.912 240.117 440.675 200.603 239.68 464.784 202.783 239.289 
465.457 202.539 240.082 436.062 203.175 239.984 470.279 204.056 240.11 
435.445 205.065 239.961 435.45 206.331 239.855 476.65 208.538 239.404 
477.363 209.475 239.56 478.11 210.364 240.336 478.271 210.535 240.586 
478.193 210.926 240.365 472.64 211.65 240.079 477.842 211.479 239.904 
478.212 211.139 240.508 474.113 211.977 240.148 476.074 212.094 240.312 
[...]
POINT_DATA 569
SCALARS scalars float
LOOKUP_TABLE default
1 1 1 1 1 1 1 1 1 
1 1 1 1 1 1 1 1 1 
1 1 1 1 1 1 1 1 1 
1 1 1 1 1 1 1 1 1 
1 1 1 1 1 1 1 1 1 
1 1 1 1 1 1 1 1 1 
1 1 1 1 1 1 1 1 1 
1 1 1 1 1 1 1 1 1 
1 1 1 1 1 1 1 1 1 
1 1 1 1 1 1 1 1 1 
1 1 1 1 1 1 1 1 1 
1 1 1 1 1 1 1 1 1 
1 1 1 1 1 1 1 1 1 
1 1 1 1 1 1 1 1 1 
1 1 1 1 1 1 1 1 1 
1 1 1 1 1 1 1 1 1 
1 1 1 1 1 1 1 1 1 
1 1 1 1 1 1 1 1 1 
1 1 1 1 1 1 1 1 1 
1 1 1 1 1 1 1 1 1 
1 1 1 1 1 1 1 1 1 
1 1 1 1 1 1 1 1 1 
1 1 1 1 1 1 1 1 1 
1 1 1 1 1 1 1 1 1 
1 1 1 1 1 1 1 1 1 
1 1 1 1 1 1 1 1 1 
1 1 1 1 1 1 1 1 1 
1 1 1 1 1 1 1 1 1 
1 1 1 1 1 1 1 1 1 
1 1 1 1 1 1 1 1 1 
1 1 1 1 1 1 1 1 1 
1 1 1 1 1 1 1 1 1 
1 1 1 1 1 1 1 1 1 
1 1 1 1 1 1 1 1 1 
1 1 1 1 1 1 1 1 1 
1 1 1 1 1 1 1 1 1 
1 1 1 1 1 1 1 1 1 
1 1 1 1 1 1 1 1 1 
1 1 1 1 1 1 1 1 1 
1 1 1 1 1 1 1 1 1 
1 1 1 1 1 1 1 1 1 
1 1 1 1 1 1 1 1 1 
1 1 1 1 1 1 1 1 1 
1 1 1 1 1 1 1 1 1 
1 1 1 1 1 1 1 1 1 
1 1 1 1 1 1 1 1 1 
1 1 1 1 1 1 1 1 1 
1 1 1 1 1 1 1 1 1 
1 1 1 1 1 1 1 1 1 
1 1 1 1 1 1 1 1 1 
1 1 1 1 1 1 1 1 1 
1 1 1 1 1 1 1 1 1 
1 1 1 1 1 1 1 1 1 
1 1 1 1 1 1 1 1 1 
1 1 1 1 1 1 1 1 1 
1 1 1 1 1 1 1 1 1 
1 1 1 1 1 1 1 1 1 
1 1 1 1 1 1 1 1 1 
1 1 1 1 1 1 1 1 1 
1 1 1 1 1 1 1 1 1 
1 1 1 1 1 1 1 1 1 
1 1 1 1 1 1 1 1 1 
1 1 1 1 1 1 1 1 1 
1 1 
NORMALS Normals float
-0.231916 -0.130231 -0.963979 0.0734165 -0.173194 -0.982148 -0.129129 0.217368 -0.967511 
0.0333189 0.263817 -0.963997 -0.214017 0.477515 -0.85216 -0.0986294 -0.417045 -0.903518 
-0.0138183 -0.436176 -0.899755 0.140451 -0.292661 -0.945845 -0.379562 -0.361042 -0.85181 
0.04966 -0.281347 -0.95832 -0.459534 -0.0459605 -0.88697 -0.548124 0.185812 -0.815496 
-0.404138 0.567995 -0.716976 0.18519 0.256534 -0.948628 -0.0417426 0.620333 -0.783227 
-0.244339 0.797277 -0.551949 0.034526 0.685426 -0.727323 -0.176361 -0.623049 -0.762041 
0.225044 -0.590978 -0.774662 0.308903 -0.404099 -0.860978 0.261308 0.00257371 -0.965252 
-0.556049 -0.410026 -0.722971 -0.0267933 -0.707188 -0.706518 -0.709099 0.255695 -0.657114 
0.32249 0.314922 -0.89265 0.193743 0.589943 -0.783856 0.166737 0.677856 -0.716038 
-0.0307514 0.943748 -0.329232 0.0403668 -0.724516 -0.688075 -0.0384532 -0.927119 -0.37279 
-0.579197 0.580067 -0.572759 0.312092 0.590935 -0.743904 0.150887 0.755235 -0.63785 
0.299787 0.647136 -0.700958 0.12121 0.84739 -0.51695 0.211821 -0.844197 -0.492405 
0.123371 -0.931589 -0.341938 -0.404038 -0.809481 -0.42602 -0.226123 -0.819736 -0.526214 
0.305568 -0.810463 -0.499777 -0.588742 -0.410644 -0.696243 0.274174 -0.152297 -0.949544 
0.205061 0.0577015 -0.977047 0.411914 -0.0846473 -0.907283 -0.773633 0.208691 -0.598281 
0.195234 0.260998 -0.945391 -0.597735 0.668338 -0.442761 0.121397 0.848009 -0.515891 
0.239839 -0.898303 -0.368142 0.0494988 -0.980747 -0.188907 0.248088 -0.83812 -0.485806 
-0.700782 -0.505178 -0.503687 0.385787 -0.709852 -0.589303 0.374112 -0.224138 -0.89989 
0.448376 -0.315442 -0.836335 0.312229 0.289911 -0.904691 0.423328 0.204434 -0.88261 
0.302161 0.15802 -0.940068 -0.784764 0.492684 -0.376043 0.0771934 0.674527 -0.734203 
0.58278 0.427139 -0.691317 0.324563 0.256795 -0.910338 -0.685905 0.645878 -0.335224 
-0.0254267 0.74489 -0.666702 0.170515 0.573705 -0.801116 0.0852938 0.954199 -0.286758 
-0.0369392 0.854162 -0.518694 0.380801 0.644967 -0.662577 -0.153886 -0.956457 -0.248009 
-0.532663 -0.783738 -0.319413 -0.84311 -0.349652 -0.408545 -0.778731 -0.0314977 -0.626566 
0.52514 -0.478509 -0.703745 -0.531066 0.815126 -0.231383 0.104318 0.914358 -0.391239 
0.156431 0.823782 -0.544897 -0.762369 -0.529958 -0.3714 0.439727 -0.788527 -0.42996 
-0.899302 0.0778952 -0.430335 0.636344 -0.498301 -0.588866 0.522048 -0.01711 -0.852745 
-0.801293 0.434888 -0.410854 -0.855023 0.425 -0.297171 0.565607 0.123794 -0.81533 
0.372852 0.437816 -0.818107 0.0785107 0.932619 -0.352219 0.276104 -0.958177 -0.0752501 
-0.902611 -0.113086 -0.415337 -0.974767 0.0853091 -0.206282 -0.91887 -0.0433682 -0.39217 
0.586034 -0.683101 -0.435818 0.661782 -0.5162 -0.543675 -0.916744 0.28224 -0.282703 
0.694125 0.0932886 -0.713784 0.518097 0.40751 -0.752005 0.434625 0.606703 -0.665592 
-0.978292 -0.0764038 -0.192632 0.801967 0.0610418 -0.594242 0.84706 0.052921 -0.528856 
0.636984 0.461711 -0.617312 0.180692 0.80296 -0.567985 -0.832687 -0.477812 -0.27987 
0.700624 -0.673178 -0.236553 0.837827 -0.331743 -0.433582 -0.82378 0.531459 -0.197328 
0.868164 -0.0505139 -0.4937 0.690054 0.437083 -0.576874 0.0740518 0.921651 -0.380888 
0.473276 0.751577 -0.459501 -0.991687 0.0297335 -0.125195 -0.95867 0.27878 -0.0568685 
0.861118 -0.38486 -0.332204 -0.745832 0.641933 -0.177923 0.872462 -0.0809412 -0.481932 
0.962823 0.0488988 -0.26567 0.813947 0.284595 -0.506455 -0.297522 0.936986 -0.183135 
0.230976 0.923771 -0.305446 -0.999646 -0.0234487 0.012537 0.936197 -0.327682 -0.127123 
0.913675 -0.225071 -0.338438 -0.464874 0.883115 -0.063245 -0.0482257 0.995539 -0.0810893 
-0.0262979 0.985537 -0.167407 0.693565 0.668765 -0.267807 -0.631372 -0.775371 0.0130502 
-0.772175 -0.634779 -0.0283077 -0.952922 -0.289294 -0.0908259 0.651771 -0.750677 -0.108067 
0.98487 0.141429 -0.100145 0.093707 -0.993711 0.0613056 -0.518457 -0.853945 0.0445078 
-0.940198 -0.334472 0.0644722 0.0480546 0.985405 0.163305 -0.0628202 0.997869 0.0176496 
-0.177604 -0.972633 0.149803 -0.981079 -0.107541 0.160996 0.627635 -0.766845 0.134251 
0.85139 -0.496539 0.16907 0.971683 0.231939 0.0451213 0.553888 0.830405 -0.0602926 
-0.561974 -0.794797 0.229089 0.142285 -0.945657 0.292383 -0.90357 -0.388866 0.179845 
0.447792 -0.886055 0.11995 -0.983137 0.16682 0.0749141 -0.840667 0.539033 0.0521767 
0.163164 0.986293 -0.0245639 0.892974 0.450085 0.00450661 -0.98446 0.0635582 0.163701 
-0.542294 0.837974 0.0609672 0.126272 0.928349 0.349605 -0.112784 0.988499 0.100748 
0.909121 0.380824 0.168736 0.605468 0.78881 0.105773 0.33829 0.929953 0.144041 
-0.483329 -0.76043 0.433751 -0.833175 -0.479097 0.276199 0.164079 -0.913843 0.371442 
-0.851192 0.504202 0.145781 0.988566 -0.00503061 0.150702 0.564821 0.763475 0.313182 
0.214297 0.898816 0.382371 -0.262555 -0.809745 0.524765 -0.111092 -0.749017 0.653171 
0.386394 -0.85744 0.339849 0.521776 -0.764157 0.379229 -0.932317 0.132524 0.336486 
0.68126 -0.633045 0.367612 -0.747569 0.611457 0.259347 0.875318 -0.119494 0.468551 
-0.58843 0.778511 0.218336 0.903393 -0.0904648 0.419164 0.0692002 0.965042 0.252794 
0.803729 0.388819 0.450376 -0.0425559 0.861808 0.505447 0.567561 0.543617 0.618349 
-0.416182 -0.665592 0.6195 0.00614125 -0.574173 0.818711 0.173269 -0.747133 0.641693 
-0.668807 -0.58219 0.462333 -0.0927537 -0.470615 0.87745 0.196766 -0.813583 0.547143 
-0.727122 -0.426548 0.537913 0.0867488 -0.251077 0.964072 0.145201 -0.834409 0.531675 
0.702663 -0.367889 0.609034 0.85729 -0.351942 0.375753 0.769134 -0.0810213 0.633931 
0.0140641 0.785963 0.618114 0.0519126 0.774642 0.630266 -0.371919 0.913713 0.16372 
-0.344269 0.883794 0.31684 0.119404 0.790946 0.600123 0.0901906 0.82335 0.560321 
-0.0947348 0.91459 0.39313 -0.0737173 0.931712 0.355637 0.614913 0.387729 0.686694 
0.234902 0.773942 0.588078 0.163699 -0.720337 0.67403 -0.313559 -0.620103 0.719133 
-0.876927 -0.271891 0.396326 0.0888202 -0.0904122 0.991936 0.452376 -0.653313 0.607074 
0.0618305 -0.158733 0.985384 0.0218059 0.163556 0.986293 0.552767 -0.45035 0.701166 
0.055793 0.137771 0.988891 0.00881556 0.253151 0.967387 0.596094 -0.272471 0.755269 
0.0576436 0.519994 0.852222 -0.0818778 0.477355 0.874888 -0.140116 0.384964 0.912234 
0.0724312 0.288731 0.954666 0.147532 0.51502 0.844387 0.667427 0.0279998 0.744148 
0.0876538 0.819444 0.566417 0.212748 0.352016 0.911495 0.523935 0.223746 0.821845 
0.331076 0.564469 0.75615 -0.0553387 -0.823942 0.563966 -0.154206 -0.54808 0.822088 
0.113807 -0.362759 0.924907 0.12655 -0.55167 0.824406 -0.400616 -0.531552 0.746297 
-0.00380998 -0.399948 0.91653 0.0390162 -0.407049 0.912573 0.0340861 -0.49285 0.869446 
0.147542 -0.655772 0.740401 0.184809 -0.574124 0.797639 -0.765794 -0.302374 0.567565 
-0.529951 -0.384888 0.755654 0.0320596 -0.298143 0.953983 0.0758362 -0.302392 0.950162 
0.335059 -0.557467 0.759583 0.291975 -0.54448 0.786316 0.0453491 -0.243457 0.968851 
0.0195433 -0.133254 0.990889 0.0654196 -0.156239 0.985551 -0.782113 0.0595219 0.620287 
0.0484946 0.222694 0.973682 0.121693 -0.0566666 0.990949 0.180644 -0.140268 0.973495 
0.31849 -0.181527 0.930383 0.277164 -0.338678 0.899154 0.101518 -0.0271747 0.994463 
0.0712832 0.0573018 0.995809 -0.0101958 0.0537579 0.998502 0.27776 -0.232467 0.932099 
0.113689 0.0998478 0.988486 0.075268 0.386968 0.919016 0.229817 0.0251465 0.972909 
0.244667 -0.026572 0.969243 0.395411 -0.160741 0.90433 0.445291 0.01913 0.895182 
-0.496399 0.680646 0.538802 -0.219703 0.857423 0.465356 0.117486 0.617802 0.777507 
-0.504496 -0.408114 0.760873 -0.17346 -0.304655 0.936535 -0.557625 -0.0780574 0.826415 
0.271329 -0.333713 0.902783 0.421707 -0.466892 0.777287 0.106065 0.324063 0.940071 
-0.690252 0.381905 0.614573 0.105798 0.652244 0.75059 0.0450253 0.425241 0.90396 
-0.207839 0.638852 0.740724 -0.0287506 0.700235 0.713333 0.0371893 0.548348 0.835423 
0.159505 0.648221 0.744559 0.154613 0.473517 0.867108 0.0896881 0.720629 0.687496 
-0.333629 -0.0627449 0.940614 -0.0179324 -0.0440545 0.998868 -0.00291814 0.22169 0.975113 
-0.375014 0.34969 0.858534 -0.127256 0.240616 0.962242 -0.345311 -0.151751 -0.926138 
-0.329465 0.128599 -0.935369 -0.657118 0.258767 -0.70798 -0.148261 0.234333 -0.960784 
-0.453814 0.463934 -0.760801 -0.329338 0.508204 -0.79578 0.0266431 0.369525 -0.928838 
-0.040769 0.260083 -0.964725 -0.0689922 -0.396277 -0.915535 -0.476526 -0.366047 -0.799332 
-0.047182 -0.140997 -0.988885 -0.565323 -0.138108 -0.813225 0.121658 -0.284045 -0.951062 
0.0146577 -0.0622424 -0.997953 0.0945221 0.00787285 -0.995492 0.0258365 -0.388308 -0.921168 
0.0229266 -0.33874 -0.940601 -0.777305 -0.0208271 -0.628779 0.0465427 -0.288717 -0.956282 
0.22832 -0.330614 -0.915732 0.306194 -0.415297 -0.856606 -0.0231617 0.251958 -0.967461 
0.0130106 0.186328 -0.982401 0.0188423 0.357397 -0.933763 0.320345 -0.0640331 -0.945134 
0.495834 -0.261892 -0.827986 -0.624626 0.587502 -0.514474 -0.189749 0.618212 -0.762764 
-0.0142267 0.502432 -0.8645 0.0579076 0.34754 -0.935875 0.0942419 0.356288 -0.929611 
0.13382 0.311332 -0.940832 0.230759 -0.00109079 -0.97301 -0.480137 0.749111 -0.456401 
0.0494147 0.457887 -0.887636 0.153898 0.435941 -0.886719 0.310131 0.253597 -0.916246 
0.061513 0.681364 -0.729355 0.445468 -0.826371 -0.344485 -0.0606203 -0.60628 -0.792938 
0.0204349 -0.658976 -0.751887 0.300478 -0.712718 -0.633835 0.302389 -0.610989 -0.73161 
0.271062 -0.838948 -0.471901 0.157564 -0.752401 -0.639583 -0.324886 -0.5993 -0.731634 
0.100126 -0.477402 -0.872962 0.121643 -0.417201 -0.900637 0.120838 -0.626242 -0.770207 
0.124685 -0.730844 -0.671059 -0.502155 -0.659938 -0.558858 -0.146277 -0.476168 -0.867103 
0.064737 -0.476306 -0.876893 0.145642 -0.570387 -0.808361 -0.71303 -0.337986 -0.614291 
0.225689 -0.694009 -0.683678 0.146836 -0.324929 -0.93427 0.254834 -0.527283 -0.810575 
0.0744293 -0.177471 -0.981307 -0.133485 0.00685816 -0.991027 -0.0264972 -0.0314332 -0.999155 
-0.057477 0.226489 -0.972316 0.0183158 0.408311 -0.912659 0.138621 0.361896 -0.921854 
0.0384422 0.231434 -0.972091 0.0741695 0.423294 -0.902951 0.0845551 0.557536 -0.825835 
-0.0671948 0.473489 -0.878233 -0.0995847 0.74897 -0.655077 0.473327 0.147543 -0.868443 
0.658561 0.00300935 -0.752521 -0.254531 0.883616 -0.392983 0.102418 0.737102 -0.667975 
-0.0555284 0.680085 -0.731027 -0.129306 0.722835 -0.678815 0.0913447 0.803325 -0.588494 
0.073715 0.637033 -0.767303 0.28607 0.49176 -0.822397 -0.0405729 -0.829137 -0.557572 
0.0951246 -0.689666 -0.717853 -0.067483 -0.746922 -0.661479 0.00889578 -0.657406 -0.753484 
0.0954451 -0.558455 -0.824026 0.248013 -0.742915 -0.621745 -0.752608 -0.504983 -0.42258 
-0.800893 -0.345051 -0.489398 0.119754 -0.570374 -0.812609 0.188259 -0.444092 -0.87598 
0.107369 -0.29882 -0.94825 0.0837127 -0.0499196 -0.995239 0.439565 -0.793922 -0.420085 
0.499758 -0.621948 -0.602846 -0.013528 0.0985547 -0.99504 0.0384234 0.0996089 -0.994285 
0.200755 0.201486 -0.958697 -0.146535 0.177829 -0.97309 0.629794 -0.600471 -0.492741 
-0.0171514 0.487106 -0.873174 0.645705 -0.215323 -0.732599 0.0480364 0.313448 -0.94839 
0.112048 0.770167 -0.627923 0.815388 0.0535683 -0.576431 -0.051565 0.887985 -0.456972 
0.0593597 0.846437 -0.529171 -0.102035 0.816732 -0.567923 0.293716 0.778881 -0.554143 
0.55111 0.27299 -0.788514 0.631174 0.542138 -0.554712 0.337643 0.828881 -0.446042 
-0.0545839 -0.857398 -0.511751 -0.326977 -0.774657 -0.541287 0.139751 -0.828919 -0.54163 
0.179761 -0.925418 -0.333598 -0.710026 -0.639807 -0.294128 0.28238 -0.866583 -0.411455 
-0.939797 -0.137591 -0.31281 -0.900254 0.276222 -0.336517 0.756558 -0.508619 -0.411006 
0.753389 -0.291246 -0.58956 0.822367 -0.284337 -0.492813 0.939493 -0.167191 -0.298999 
0.887686 0.0361467 -0.459028 -0.158623 0.917273 -0.365308 0.821134 0.253626 -0.511286 
0.908267 0.24624 -0.338256 -0.139459 0.953578 -0.266907 0.211102 0.864806 -0.455572 
0.84383 0.429502 -0.32168 -0.0892323 -0.942454 -0.322208 0.0140673 -0.865636 -0.500477 
0.204765 -0.965618 -0.160165 -0.441723 -0.845683 -0.2995 -0.695241 -0.64315 -0.320933 
-0.919765 -0.329447 -0.2133 0.3065 -0.900449 -0.308625 0.00972103 0.855336 -0.517983 
-0.216101 0.893389 -0.393899 0.978814 -0.0420704 -0.200384 -0.0984116 0.985649 -0.137153 
0.0112604 0.999174 -0.039045 0.130468 0.913675 -0.384937 0.154488 0.975906 -0.15408 
0.965535 0.207429 -0.157209 -0.990767 0.0433836 -0.128449 -0.94831 0.229079 -0.219617 
0.671513 -0.68852 -0.273881 -0.918272 0.376664 -0.122069 -0.790602 0.601609 -0.114083 
0.907041 -0.377087 -0.187305 0.993745 0.0250422 -0.108825 0.0645161 0.966808 -0.247223 
-0.180908 0.96332 -0.198209 0.273023 0.952309 -0.136261 0.787718 0.605136 -0.115374 
-0.306043 -0.941259 -0.142721 -0.975319 -0.211239 -0.0642756 0.555148 -0.828113 -0.0777176 
0.968858 -0.2387 -0.0658472 -0.375259 0.919888 0.113958 -0.097038 0.957146 -0.272864 
0.949385 0.313747 -0.0152286 0.173476 -0.967822 -0.18228 0.311743 -0.946435 -0.0841248 
-0.94249 0.332513 0.0338876 0.812587 -0.582126 -0.0288319 0.909836 -0.414866 0.00923484 
0.984063 -0.175023 0.0314257 -0.00149384 0.980154 -0.198232 -0.116658 0.993156 0.00568365 
0.388119 0.921009 -0.0332475 -0.987781 -0.155077 0.0154501 0.840839 0.541272 0.00368005 
0.447683 0.89387 0.0240251 0.447674 -0.894025 -0.0175128 -0.853333 0.519958 0.038289 
-0.68704 0.716355 0.121703 0.989814 -0.0126655 0.1418 0.936534 0.243411 0.2523 
0.0380041 0.993101 0.110933 -0.390555 -0.918993 0.0540275 -0.737436 -0.672479 0.0629309 
-0.96881 -0.242077 0.0529725 0.919991 -0.31115 0.238334 0.0322519 0.945192 0.324919 
0.0989197 0.956529 0.274349 0.729914 0.645646 0.224425 0.563551 0.785826 0.25473 
0.286533 0.936749 0.200995 -0.927683 0.34634 0.139476 -0.716856 0.615208 0.32808 
0.928211 0.102128 0.357762 0.0704982 0.885344 0.45956 -0.257805 0.963501 0.0721256 
0.456003 0.769053 0.447905 -0.0471629 -0.997395 -0.054582 -0.866278 -0.445783 0.225476 
-0.92805 -0.313562 0.201005 -0.972923 -0.0337533 0.228652 0.692678 -0.681646 0.235703 
0.883502 -0.294901 0.363946 0.915691 0.0680855 0.396074 0.713721 0.49262 0.497924 
0.209345 0.83398 0.510541 0.252362 0.853349 0.456189 0.874171 -0.136205 0.466126 
0.824696 0.104069 0.555919 0.732567 0.345118 0.586719 0.235725 -0.951727 0.196594 
0.427477 -0.87964 0.208558 0.471355 -0.589994 0.655539 0.643705 -0.600518 0.474365 
0.401736 -0.46866 0.786744 -0.963554 0.171394 0.205396 0.71945 -0.313064 0.619986 
-0.823648 0.519391 0.227675 0.689725 0.0737257 0.720308 0.564972 0.238143 0.789997 
0.251312 0.6726 0.696025 0.405584 0.656957 0.635539 0.566403 0.511409 0.646257 
-0.254187 -0.955069 0.152419 0.359691 -0.882599 0.302723 0.575632 -0.486477 0.657258 
0.564947 -0.414337 0.713554 0.629437 -0.364924 0.686032 0.59326 0.0234511 0.804669 
0.33442 0.531847 0.778012 0.387259 0.577901 0.718373 0.0817011 0.975985 0.201935 
0.14407 0.86571 0.479364 0.23249 0.823486 0.517512 -0.00176558 -0.987119 0.15998 
0.146016 -0.979564 0.138326 0.416299 -0.774748 0.475879 0.427517 0.272012 0.862113 
-0.557935 0.801329 0.215827 -0.738952 -0.44989 0.501546 0.243997 -0.823236 0.51259 
0.288329 -0.827313 0.4821 -0.823239 -0.157024 0.545547 0.446997 -0.38713 0.806427 
-0.817949 0.054312 0.572721 0.491576 -0.201914 0.847103 0.383503 0.227948 0.894966 
0.211064 0.404132 0.890017 0.0865841 0.625491 0.775412 0.0553675 0.655896 0.752818 
0.183499 0.760578 0.622775 0.250287 0.703051 0.66564 0.150481 -0.88172 0.447131 
0.252482 -0.77449 0.580015 0.423235 -0.674726 0.604663 0.410012 -0.324774 0.852298 
0.324482 0.0457149 0.944787 0.297002 0.0993542 0.949694 0.248636 0.668766 0.700665 
-0.383667 0.889451 0.248347 0.207979 0.756336 0.620242 0.0555533 0.980159 0.19027 
0.0862325 -0.848018 0.522905 -0.373117 -0.795649 0.477206 0.26157 -0.77555 0.574547 
-0.520928 -0.622093 0.584495 0.262896 -0.417022 0.870045 0.247165 -0.114505 0.962184 
0.342893 -0.0279642 0.938958 0.30679 0.210107 0.928297 0.245235 0.412441 0.877355 
-0.702093 0.415593 0.578228 -0.15294 0.927954 0.339869 0.258739 -0.330561 0.907625 
-0.176333 -0.47213 0.863713 -0.419694 -0.342657 0.840502 -0.626516 0.0523572 0.777648 
0.238403 0.0501207 0.969872 0.0449964 0.849592 0.525518 0.151308 -0.569252 0.80812 
0.223938 -0.185524 0.956782 -0.443348 0.465414 0.76605 -0.232955 0.697787 0.677366 
0.106409 -0.550223 0.82821 -0.195074 -0.3848 0.90215 -0.0512772 -0.32974 0.942678 
-0.370845 -0.0433057 0.927685 0.170974 0.397126 0.901698 0.0195455 0.687921 0.725522 
-0.0699719 0.568043 0.820019 0.141236 0.792722 0.592996 -0.106923 0.0651501 0.99213 
0.0132081 0.190613 0.981577 -0.262161 0.235538 0.935838 
