# vtk DataFile Version 4.2
vtk output
ASCII
DATASET POLYDATA
POINTS 832 float
277.54 217.65 189.187 277.373 217.575 189.241 277.899 217.754 189.165 
279.651 224.112 188.987 280.819 228.57 189.147 282.342 232.02 189.439 
283.087 231.781 189.09 283.388 231.968 189.109 283.831 232.492 189.306 
283.969 232.883 189.557 276.654 215.578 189.946 277.761 216.11 189.523 
279.581 215.361 189.815 276.548 216.703 189.738 277.117 218.171 189.392 
278.832 218.629 189.01 277.942 222.167 189.46 282.024 225.027 188.888 
282.798 226.562 188.914 280.023 227.589 189.508 281.267 227.931 189.008 
284.277 230.926 189.035 283.859 232.065 189.172 285.296 231.633 189.322 
286.036 233.222 190.103 286.481 233.165 190.26 277.455 214.097 190.542 
280.453 214.417 190.587 275.738 215.585 190.457 275.754 217.898 190.274 
280.887 219.155 189.317 282.636 225.32 188.977 278.623 226.425 190.498 
285.111 230.641 189.244 286.751 230.643 190.133 281.324 231.555 190.406 
287.068 232.35 190.262 283.283 233.943 190.974 286.769 233.773 190.847 
280.136 213.391 191.267 275.277 214.045 191.451 274.962 214.309 191.58 
275.218 219.286 191.242 284.901 225.806 189.812 287.169 232.365 190.415 
287.516 233.255 191.156 287.86 233.388 191.568 288.05 233.19 191.788 
283.632 234.308 191.15 284.233 234.696 191.401 285.116 234.969 191.835 
286.312 234.296 191.122 287.739 234.064 191.865 285.67 234.864 191.774 
275.738 213.07 191.927 276.75 213.024 191.577 280.637 212.904 192.071 
282.661 214.224 192.262 274.267 216.953 192.019 284.654 219.595 191.304 
284.697 222.595 190.423 286.062 223.729 191.09 278.547 227.252 191.316 
288.238 233.548 192.327 283.988 234.773 191.77 284.768 235.093 192.268 
287.901 234.11 192.149 278.459 211.647 193.127 281.843 213.323 192.377 
285.854 235.412 193.135 286.995 235.313 193.202 287.304 235.218 193.268 
288.007 234.518 193.182 276.001 210.683 194.682 274.65 211.707 194.154 
280.465 211.781 193.534 274.402 212.368 193.589 274.127 212.936 193.378 
273.294 213.872 194.305 287.558 221.456 193.288 275.223 221.73 193.202 
288.317 224.158 193.543 278.168 227.472 192.773 281.528 232.93 193.375 
288.683 233.039 193.43 285.853 235.671 194.311 287.537 235.251 193.61 
286.957 235.61 194.184 287.396 235.52 194.262 283.469 213.474 193.819 
273.011 216.114 194.603 287.968 219.52 194.606 288.865 233.208 194.263 
283.588 234.777 194.288 284.156 235.138 194.88 287.707 235.43 194.634 
288.565 234.601 195.279 288.054 235.234 195.059 287.377 235.697 195.574 
272.222 214.777 197.123 287.349 235.771 196.4 276.057 209.014 197.375 
273.185 219.225 196.985 282.257 233.856 196.69 288.249 235.246 196.426 
288.564 234.926 196.931 275.02 208.69 198.86 276.885 208.377 198.007 
274.231 209.494 198.478 278.559 208.745 197.268 280.622 209.421 196.971 
272.776 211.699 197.959 273.732 220.726 198.207 285.128 235.671 199.112 
291.532 197.32 200.297 289.388 200.023 200.149 287.567 201.133 200.174 
286.857 201.154 200.267 289.484 201.418 200.193 285.766 203.058 200.115 
282.394 203.6 200.752 286.953 203.301 200.088 281.787 204.855 200.334 
282.499 205.017 200.085 279.173 206.783 199.556 280.741 206.843 199.298 
278.134 208.05 198.23 281.252 207.814 198.658 282.948 209.671 197.914 
271.91 216.507 199.621 294.753 192.288 201.455 293.687 193.294 201.183 
294.294 193.353 201.103 294.752 193.104 201.178 293.38 194.206 200.912 
294.394 194.475 200.913 290.587 195.657 201.003 291.338 196.236 200.526 
294.737 195.631 200.936 286.468 200.18 200.701 282.195 202.881 201.373 
281.175 204.43 200.844 280.587 204.88 200.771 285.322 205.166 199.989 
278.854 206.253 200.238 282.799 205.608 199.855 283.202 208.639 198.792 
284.677 210.264 198.515 271.702 213.242 200.525 272.559 218.683 200.255 
289.944 231.88 199.869 288.125 235.507 199.558 297.131 190.435 202.298 
298.215 190.029 202.639 297.92 191.95 202.171 295.656 193.76 201.275 
289.767 195.012 201.843 285.447 200.007 201.325 293.983 199.786 201.317 
288.75 204.499 200.542 276.997 206.406 201.433 285.1 206.908 199.853 
284.015 207.515 199.472 273.77 209.024 200.98 283.721 208.084 199.212 
285.595 210.183 199.109 271.748 212.842 200.914 273.454 220.589 201.42 
284.797 235.424 201.613 287.895 235.601 200.421 288.29 235.368 200.747 
286.805 235.815 201.084 296.19 188.638 203.618 294.376 190.378 202.687 
292.694 190.994 202.975 289.497 193.998 202.948 288.39 195.457 202.717 
283.697 200.38 202.475 280.248 203.249 202.938 284.434 208.117 199.432 
288.189 207.746 200.847 287.532 210.009 200.279 289.892 212.179 201.341 
271.527 215.433 202.721 281.597 232.776 201.807 297.581 187.773 204.159 
299.658 188.477 203.871 299.569 189.078 203.558 300.569 188.707 204.239 
289.64 193.633 203.223 274.055 208.287 203.275 290.626 212.595 201.878 
299.157 186.765 205.103 295.233 188.485 204.224 293.999 188.94 204.484 
300.527 192.907 203.727 300.627 195.752 204.363 275.287 206.905 204.08 
293.745 208.872 203.994 292.052 210.731 203.152 291.241 211.597 202.545 
283.438 234.333 204.293 285.169 235.386 204.474 285.812 235.612 204.188 
286.392 235.667 204.906 300.592 186.507 205.875 291.338 190.68 205.452 
289.888 192.303 205.191 287.729 194.563 205.595 292.008 214.031 202.995 
293.691 214.583 205.091 271.794 216.973 205.237 287.546 235.57 205.392 
296.609 186.765 206.151 293.272 188.8 205.885 294.097 188.077 206.378 
283.475 199.174 205.738 276.186 205.968 206.207 293.876 217.604 206.533 
289.033 234.698 205.618 285.835 235.493 206.209 287.552 235.574 206.413 
288.151 235.397 206.246 301.067 185.02 207.802 302.805 185.907 207.819 
302.676 197.888 207.093 300.494 203.175 207.29 295.94 213.177 207.505 
288.847 235.056 206.659 288.595 235.226 206.588 288.779 235.144 207.004 
301.387 184.305 209.079 290.94 190.561 207.885 305.378 191.065 208.473 
301.589 202.158 208.023 273.007 209.78 208.341 298.693 209.445 208.806 
294.816 216.73 208.128 285.441 235.116 208.767 286.524 235.482 208.938 
300.578 183.833 210.057 302.11 184.255 209.667 297.613 185.177 209.046 
288.061 235.412 209.033 301.531 183.824 210.26 296.441 185.752 210.421 
305.454 186.89 210.385 306.217 188.123 210.586 290.106 191.453 209.623 
306.868 192.446 210.695 305.885 195.093 209.998 276.912 205.681 210.18 
271.533 214.411 209.618 271.782 216.384 210.659 272.721 218.943 210.296 
289.584 234.289 209.224 299.821 183.753 211.456 302.01 183.698 211.079 
307.292 189.83 211.622 287.99 235.396 210.677 295.659 186.526 212.259 
272.322 211.758 211.371 295.392 217.702 211.973 285.483 234.565 212.493 
286.782 235.261 212.067 289.007 234.865 211.99 287.626 235.357 211.939 
300.277 183.624 212.524 302.731 183.789 212.75 304.04 184.514 211.937 
305.258 185.254 212.781 293.41 188.557 212.367 281.003 202.272 212.716 
295.492 217.786 212.839 291.84 229.04 213.689 282.951 232.256 212.556 
288.192 235.214 212.527 304.572 184.54 213.97 304.902 184.798 213.566 
306.901 186.741 213.772 278.09 205.809 214.288 289.931 233.855 213.454 
287.561 235.079 214.105 289.056 234.683 213.684 301.882 183.832 214.559 
303.993 184.266 214.926 298.737 184.853 214.614 309.139 190.541 216.025 
309.089 191.473 215.666 289.485 193.496 213.997 308.665 194.851 216.132 
272.884 212.092 214.55 272.806 218.062 214.605 274.158 220.476 214.461 
292.601 225.597 214.487 295.137 188.247 215.312 308.771 188.908 215.956 
272.406 216.418 215.425 295.65 218.144 215.815 294.089 221.236 215.644 
285.741 233.573 215.868 290.347 232.871 215.653 287.14 234.438 215.868 
302.981 184.2 216.084 308.217 187.416 216.734 283.379 201.865 216.561 
299.83 212.066 217.346 272.834 216.642 216.452 273.145 217.308 216.797 
289.238 234.064 216.031 287.864 234.552 216.001 288.441 234.79 215.096 
306.476 185.564 217.713 309.017 188.684 217.33 273.256 213.657 216.894 
283.399 230.45 217.659 285.263 232.359 217.466 289.429 233.641 216.736 
287.756 234.233 216.792 288.775 234.068 216.846 303.021 184.985 219.071 
307.973 186.777 218.608 309.691 194.016 219.697 282.088 204.057 217.738 
277.206 209.62 218.464 273.627 217.346 217.85 278.811 225.059 217.882 
290.963 230.341 218.551 288.127 233.872 217.513 288.245 233.632 217.961 
288.915 233.757 217.349 288.673 233.708 217.69 288.058 234.144 216.991 
288.431 233.76 217.762 305.669 185.306 219.577 310.047 190.397 220.522 
310.129 192.438 220.451 276.99 222.028 218.508 291.811 227.624 219.765 
284.997 231.37 218.503 288.256 232.674 218.797 288.999 232.846 218.46 
289.125 232.252 218.95 288.392 233.489 218.156 288.391 233.623 218.074 
288.563 233.556 218.024 288.427 233.661 218.003 308.359 197.485 220.967 
283.028 207.137 221.033 274.407 214.879 219.092 280.746 219.251 222.04 
279.206 224.486 218.912 285.711 230.436 219.92 285.785 231.449 219.078 
288.454 233.607 218.086 307.309 186.295 221.474 281.531 219.329 222.432 
282.648 219.099 223.126 279.535 223.142 220.024 286.856 231.807 219.302 
288.081 231.503 219.795 303.012 186.056 222.745 304.117 185.815 222.879 
306.647 186.048 222.55 308.266 187.139 222.521 309.156 188.204 222.429 
310.225 191.838 223.086 285.166 208.312 223.265 281.612 215.203 222.874 
275.31 216.032 220.064 291.843 225.782 222.935 290.412 228.898 221.284 
289.818 229.059 221.638 309.793 189.348 223.292 286.572 209.011 225.047 
284.413 220.496 224.145 288.298 225.917 224.449 290.734 227.057 222.909 
289.242 227.182 223.42 290.236 227.892 222.41 290.473 203.145 225.678 
284.501 212.783 224.632 285.436 213.141 225.732 286.669 223.3 225.152 
288.697 225.74 224.843 290.415 226.53 223.886 305.198 186.202 225.122 
301.282 188.345 226.473 300.725 188.849 226.433 298.674 190.861 225.49 
310.041 193.354 225.528 296.468 194.484 226.602 285.97 212.75 226.34 
285.288 217.785 225.838 287.719 224.358 225.468 303.734 186.679 225.947 
306.054 186.443 225.894 303.032 187.227 226.984 299.662 190.197 227.202 
287.179 210.598 227.325 286.705 211.784 227.165 286.958 211.379 227.483 
285.559 215.189 226.347 285.555 216.161 226.402 286.807 221.305 226.846 
[...]
POINT_DATA 832
SCALARS scalars float
LOOKUP_TABLE default
1 1 1 1 1 1 1 1 1 
1 1 1 1 1 1 1 1 1 
1 1 1 1 1 1 1 1 1 
1 1 1 1 1 1 1 1 1 
1 1 1 1 1 1 1 1 1 
1 1 1 1 1 1 1 1 1 
1 1 1 1 1 1 1 1 1 
1 1 1 1 1 1 1 1 1 
1 1 1 1 1 1 1 1 1 
1 1 1 1 1 1 1 1 1 
1 1 1 1 1 1 1 1 1 
1 1 1 1 1 1 1 1 1 
1 1 1 1 1 1 1 1 1 
1 1 1 1 1 1 1 1 1 
1 1 1 1 1 1 1 1 1 
1 1 1 1 1 1 1 1 1 
1 1 1 1 1 1 1 1 1 
1 1 1 1 1 1 1 1 1 
1 1 1 1 1 1 1 1 1 
1 1 1 1 1 1 1 1 1 
1 1 1 1 1 1 1 1 1 
1 1 1 1 1 1 1 1 1 
1 1 1 1 1 1 1 1 1 
1 1 1 1 1 1 1 1 1 
1 1 1 1 1 1 1 1 1 
1 1 1 1 1 1 1 1 1 
1 1 1 1 1 1 1 1 1 
1 1 1 1 1 1 1 1 1 
1 1 1 1 1 1 1 1 1 
1 1 1 1 1 1 1 1 1 
1 1 1 1 1 1 1 1 1 
1 1 1 1 1 1 1 1 1 
1 1 1 1 1 1 1 1 1 
1 1 1 1 1 1 1 1 1 
1 1 1 1 1 1 1 1 1 
1 1 1 1 1 1 1 1 1 
1 1 1 1 1 1 1 1 1 
1 1 1 1 1 1 1 1 1 
1 1 1 1 1 1 1 1 1 
1 1 1 1 1 1 1 1 1 
1 1 1 1 1 1 1 1 1 
1 1 1 1 1 1 1 1 1 
1 1 1 1 1 1 1 1 1 
1 1 1 1 1 1 1 1 1 
1 1 1 1 1 1 1 1 1 
1 1 1 1 1 1 1 1 1 
1 1 1 1 1 1 1 1 1 
1 1 1 1 1 1 1 1 1 
1 1 1 1 1 1 1 1 1 
1 1 1 1 1 1 1 1 1 
1 1 1 1 1 1 1 1 1 
1 1 1 1 1 1 1 1 1 
1 1 1 1 1 1 1 1 1 
1 1 1 1 1 1 1 1 1 
1 1 1 1 1 1 1 1 1 
1 1 1 1 1 1 1 1 1 
1 1 1 1 1 1 1 1 1 
1 1 1 1 1 1 1 1 1 
1 1 1 1 1 1 1 1 1 
1 1 1 1 1 1 1 1 1 
1 1 1 1 1 1 1 1 1 
1 1 1 1 1 1 1 1 1 
1 1 1 1 1 1 1 1 1 
1 1 1 1 1 1 1 1 1 
1 1 1 1 1 1 1 1 1 
1 1 1 1 1 1 1 1 1 
1 1 1 1 1 1 1 1 1 
1 1 1 1 1 1 1 1 1 
1 1 1 1 1 1 1 1 1 
1 1 1 1 1 1 1 1 1 
1 1 1 1 1 1 1 1 1 
1 1 1 1 1 1 1 1 1 
1 1 1 1 1 1 1 1 1 
1 1 1 1 1 1 1 1 1 
1 1 1 1 1 1 1 1 1 
1 1 1 1 1 1 1 1 1 
1 1 1 1 1 1 1 1 1 
1 1 1 1 1 1 1 1 1 
1 1 1 1 1 1 1 1 1 
1 1 1 1 1 1 1 1 1 
1 1 1 1 1 1 1 1 1 
1 1 1 1 1 1 1 1 1 
1 1 1 1 1 1 1 1 1 
1 1 1 1 1 1 1 1 1 
1 1 1 1 1 1 1 1 1 
1 1 1 1 1 1 1 1 1 
1 1 1 1 1 1 1 1 1 
1 1 1 1 1 1 1 1 1 
1 1 1 1 1 1 1 1 1 
1 1 1 1 1 1 1 1 1 
1 1 1 1 1 1 1 1 1 
1 1 1 1 1 1 1 1 1 
1 1 1 1 
NORMALS Normals float
-0.109761 -0.193093 -0.975022 -0.163001 -0.26659 -0.949926 -0.0345378 -0.223113 -0.974181 
-0.340663 0.078966 -0.936863 -0.39623 0.269894 -0.877587 -0.435096 0.394821 -0.809202 
-0.14821 -0.0538557 -0.987488 -0.066483 0.298051 -0.952232 0.0455551 0.451606 -0.891054 
0.0344412 0.569342 -0.821379 -0.424127 -0.294207 -0.85648 -0.129828 -0.304511 -0.943619 
0.220982 -0.302933 -0.927038 -0.481102 -0.129877 -0.866991 -0.411974 0.125132 -0.902563 
-0.0243492 -0.0248971 -0.999393 -0.317424 0.0874275 -0.944245 0.173519 -0.177743 -0.968658 
0.232738 -0.000928002 -0.972539 -0.6097 0.242644 -0.75458 -0.0877022 0.102472 -0.990862 
-0.0163256 -0.0245519 -0.999565 0.223972 0.181206 -0.957602 0.319554 0.191445 -0.928027 
0.199894 0.541793 -0.816396 0.448607 0.454186 -0.769718 -0.0720814 -0.634157 -0.769837 
0.351965 -0.510799 -0.78435 -0.632399 -0.257628 -0.730547 -0.658598 0.0252091 -0.752073 
0.265827 -0.131812 -0.954967 0.203597 -0.174847 -0.963316 -0.774059 0.311142 -0.551383 
0.326597 0.00293762 -0.945159 0.717251 -0.102212 -0.689278 -0.755941 0.51665 -0.402027 
0.635044 0.16777 -0.754037 -0.522088 0.714429 -0.46585 0.429006 0.676687 -0.598371 
0.158769 -0.713039 -0.682912 -0.462367 -0.482144 -0.744147 -0.721846 -0.318455 -0.61443 
-0.785714 0.25357 -0.564231 0.443093 -0.225556 -0.867637 0.789195 0.206798 -0.578278 
0.776831 0.185686 -0.601709 0.733032 0.262204 -0.627625 0.875082 0.1067 -0.472066 
-0.318125 0.718514 -0.618493 -0.0483781 0.77171 -0.634132 0.0454525 0.919263 -0.391012 
0.241201 0.750978 -0.614698 0.65551 0.562727 -0.503632 0.143251 0.884181 -0.444637 
-0.469438 -0.605757 -0.642406 -0.224569 -0.663784 -0.713414 0.304579 -0.730689 -0.611003 
0.55166 -0.415133 -0.723419 -0.86192 0.0691483 -0.502306 0.633788 -0.30436 -0.71111 
0.535919 -0.255829 -0.804576 0.650598 -0.260774 -0.713245 -0.818536 0.413274 -0.399003 
0.876883 0.307957 -0.369104 -0.470838 0.854923 -0.217758 -0.135123 0.965236 -0.223743 
0.469755 0.811096 -0.348502 -0.00459981 -0.784365 -0.620283 0.455181 -0.651411 -0.607021 
0.0850854 0.940438 -0.329144 0.327364 0.814869 -0.478353 0.437812 0.68913 -0.577426 
0.707358 0.605214 -0.365187 -0.0937361 -0.800766 -0.591598 -0.532711 -0.697352 -0.479499 
0.221078 -0.798486 -0.559951 -0.565992 -0.648567 -0.508934 -0.7112 -0.447765 -0.541941 
-0.888237 -0.221734 -0.402331 0.709672 -0.201733 -0.675033 -0.862895 0.483285 -0.147811 
0.856388 -0.161527 -0.490417 -0.901187 0.414105 -0.127976 -0.783998 0.619731 -0.0357749 
0.943384 0.0831895 -0.321103 -0.13687 0.983497 -0.118321 0.483451 0.822979 -0.298298 
0.178388 0.967395 -0.179793 0.498453 0.850509 -0.167866 0.541506 -0.647204 -0.536561 
-0.919041 0.0188549 -0.393712 0.783375 -0.266735 -0.561405 0.937554 0.25205 -0.239717 
-0.53518 0.84312 -0.0522652 -0.523119 0.852213 -0.00891338 0.487755 0.859908 -0.150509 
0.864625 0.472096 -0.171895 0.723538 0.662485 -0.193924 0.338628 0.936884 -0.0870616 
-0.9755 -0.00394243 -0.219965 0.263339 0.964703 -9.90204e-06 -0.290572 -0.798924 -0.526582 
-0.936538 0.288996 -0.198441 -0.693049 0.72077 0.0131799 0.636212 0.770938 -0.0298036 
0.77131 0.636452 0.00319684 -0.413466 -0.840584 -0.34995 -0.219978 -0.881571 -0.417663 
-0.6349 -0.700037 -0.32688 0.0290207 -0.806736 -0.590199 0.205722 -0.742785 -0.637141 
-0.843001 -0.45378 -0.288848 -0.885671 0.459295 -0.0680809 -0.308318 0.951051 0.0210032 
-0.0175754 -0.0678392 -0.997541 -0.0555587 -0.233699 -0.97072 -0.0394768 -0.0963743 -0.994562 
-0.219334 -0.22262 -0.949912 0.204871 0.129393 -0.970199 -0.0812124 0.0210798 -0.996474 
-0.154131 -0.421018 -0.893861 -0.00885318 0.0980292 -0.995144 -0.259783 -0.414487 -0.872189 
-0.134512 -0.455943 -0.879786 -0.153904 -0.697158 -0.700203 -0.12655 -0.596104 -0.792872 
-0.1128 -0.833787 -0.540439 0.1213 -0.558663 -0.820477 0.293203 -0.60856 -0.737351 
-0.980737 0.178853 -0.078531 -0.00836471 -0.378071 -0.925739 -0.14485 -0.36374 -0.920169 
0.0304244 -0.203721 -0.978556 0.0802913 -0.279001 -0.956928 -0.0450428 -0.223142 -0.973745 
0.0755372 -0.127618 -0.988943 -0.367864 -0.357473 -0.858423 -0.252966 -0.244454 -0.936083 
0.267129 0.0361551 -0.962982 -0.254417 -0.459406 -0.85101 -0.591807 -0.575972 -0.563933 
-0.336672 -0.605059 -0.721495 -0.333447 -0.580246 -0.743053 0.105484 -0.0844191 -0.990831 
-0.300114 -0.67621 -0.672809 0.0326446 -0.397288 -0.917113 0.263337 -0.42088 -0.868052 
0.491012 -0.597104 -0.63433 -0.97037 -0.205132 -0.127685 -0.918998 0.367488 -0.142814 
0.966024 0.242077 -0.0905361 0.585225 0.810618 -0.0202604 -0.0341981 -0.456324 -0.889156 
0.357616 -0.273677 -0.892867 0.356847 -0.0674246 -0.931726 0.345397 -0.0425073 -0.937494 
-0.584228 -0.509356 -0.63185 -0.42065 -0.506416 -0.752726 0.467642 0.201101 -0.860737 
0.227006 0.125716 -0.965745 -0.516631 -0.763261 -0.387976 0.328549 -0.014896 -0.944369 
0.448208 -0.325623 -0.832514 -0.779501 -0.593181 -0.201282 0.278349 -0.404237 -0.871272 
0.361512 -0.534439 -0.763992 -0.97684 -0.213969 0.000643816 -0.839802 0.542606 0.0176115 
-0.532453 0.842753 0.0791296 0.329704 0.941126 0.0746828 0.602835 0.797183 0.0330077 
0.131285 0.990195 0.047736 -0.261015 -0.65686 -0.707394 -0.255835 -0.613485 -0.747117 
-0.471865 -0.606052 -0.640347 -0.677705 -0.524724 -0.515151 -0.570747 -0.577881 -0.583353 
-0.654729 -0.613628 -0.441352 -0.492909 -0.65381 -0.574085 0.359233 -0.31309 -0.879162 
0.416097 -0.0689045 -0.906706 0.468819 -0.482312 -0.739989 0.625812 -0.165385 -0.762239 
-0.999422 -0.00871382 0.0328676 -0.67706 0.733352 0.0615114 0.0763941 -0.657018 -0.749994 
0.28247 -0.659853 -0.696279 0.304729 -0.36779 -0.878562 0.586369 -0.381105 -0.714794 
-0.593009 -0.687002 -0.419962 -0.836711 -0.544531 -0.0583131 0.586192 -0.167144 -0.792743 
-0.0156194 -0.786446 -0.617461 -0.364977 -0.738035 -0.567536 -0.44606 -0.74727 -0.492563 
0.639102 0.0439206 -0.767867 0.552713 0.200374 -0.808924 -0.640306 -0.755757 -0.137254 
0.616657 0.269408 -0.739698 0.652378 0.108252 -0.750123 0.573517 0.0103631 -0.819128 
-0.647455 0.761651 0.026256 -0.383338 0.923511 -0.0133646 -0.293752 0.954136 -0.0577383 
-0.0801245 0.996405 0.0275051 0.456214 -0.48285 -0.747479 -0.691378 -0.695127 -0.196964 
-0.700887 -0.682445 -0.207427 -0.724051 -0.649538 -0.232056 0.768306 -0.0611399 -0.637156 
0.766249 0.113694 -0.632405 -0.977902 0.206246 0.034201 0.180403 0.983476 -0.0151719 
-0.430468 -0.818755 -0.379918 -0.571903 -0.774424 -0.270543 -0.591467 -0.795821 -0.129752 
-0.668132 -0.706057 -0.234698 -0.687167 -0.726432 -0.0098751 0.909777 0.215232 -0.354937 
0.856141 0.516689 0.00740783 -0.225578 0.970275 0.0876369 0.0795813 0.996572 0.0226151 
0.435446 0.892126 -0.120409 0.282395 -0.758362 -0.587486 0.5235 -0.646058 -0.555479 
0.759089 0.293295 -0.581172 0.734516 0.324909 -0.595752 0.824914 0.338302 -0.452844 
0.76941 0.624357 -0.134859 0.514267 0.842339 -0.16123 0.723398 0.68695 0.0692494 
0.228095 -0.85279 -0.46981 -0.622458 -0.765591 -0.162532 0.763799 -0.0348908 -0.644511 
0.775629 0.325893 -0.54055 -0.857892 -0.508619 0.0729975 0.789226 0.368997 -0.49088 
0.906772 0.291572 -0.304549 -0.370758 0.924148 0.0921318 -0.110665 0.993223 0.0355268 
-0.0617248 -0.936087 -0.346311 0.379625 -0.846426 -0.373428 -0.397274 -0.91165 -0.105204 
0.330342 0.943031 0.0395739 0.154449 -0.926196 -0.343956 -0.556121 -0.831005 0.0126578 
0.730506 -0.482823 -0.482953 0.816211 -0.296527 -0.495854 -0.80656 -0.578487 0.121713 
0.859637 0.149821 -0.488445 0.821121 0.273456 -0.500981 -0.712327 -0.679826 0.174429 
-0.999488 -0.0115367 0.029859 -0.975866 0.218231 0.00785361 -0.842467 0.538741 -0.00278064 
0.845638 0.532208 -0.0406254 -0.289648 -0.955549 -0.0550501 0.152997 -0.980437 -0.123838 
0.865552 -0.272606 -0.420126 0.468793 0.878973 -0.0874009 -0.57551 -0.802839 0.155686 
-0.963069 -0.26014 0.069465 0.85567 0.489196 -0.168866 -0.58128 0.812968 0.0345901 
-0.307654 0.951109 0.027199 0.61238 0.780234 -0.127378 0.0287717 0.995489 0.0904097 
-0.351797 -0.930202 0.104702 0.401709 -0.912554 -0.0766499 0.565001 -0.774335 -0.284921 
0.653922 -0.7043 -0.27631 -0.689298 -0.70953 0.146412 -0.71093 -0.675325 0.196253 
0.875632 0.446344 -0.184516 0.957655 0.286022 -0.0329765 -0.69657 0.695448 0.176471 
0.301925 0.948627 0.094596 0.426085 -0.902203 -0.0669478 0.610205 -0.788668 -0.0751824 
0.770074 -0.581803 -0.261708 -0.66171 -0.680986 0.313684 0.859556 0.501704 -0.0972415 
-0.292625 0.923566 0.247785 0.623308 0.777202 0.0862748 0.0350883 -0.98983 0.137859 
0.399079 -0.907354 0.13208 -0.384389 -0.870984 0.305992 0.986953 -0.0687699 -0.145585 
0.968975 0.0113255 -0.2469 -0.739016 -0.604846 0.296675 0.830166 0.440094 -0.34226 
-0.829582 -0.478631 0.287585 -0.909148 0.35225 0.222194 -0.665558 0.743614 0.0638007 
0.963415 0.254565 -0.08383 -0.65053 -0.677745 0.342742 0.903646 -0.255298 -0.343872 
-0.971174 0.0160184 0.237834 0.749726 0.604012 -0.270335 0.896562 0.420309 -0.139704 
-0.670262 0.700276 0.245688 0.849158 0.473995 0.232938 -0.293196 0.907375 0.301174 
0.00148674 -0.965528 0.260296 0.79791 -0.576977 -0.174462 -0.614266 -0.599936 0.512596 
0.861189 0.461311 -0.213414 -0.896353 0.152111 0.416429 -0.866496 0.277974 0.414628 
0.550793 0.80058 0.236006 0.0752412 0.949996 0.303063 0.202719 0.952217 0.228446 
0.518606 -0.854625 -0.0257866 0.947341 -0.310901 -0.0767209 -0.85528 -0.183014 0.48477 
-0.657702 0.605206 0.448502 -0.494734 0.687591 0.531467 0.706943 0.589244 0.391182 
-0.199864 0.868705 0.453217 0.308736 0.888983 0.338218 0.0106828 -0.979528 0.201023 
0.714884 -0.698898 -0.0219648 0.961249 0.203899 -0.185544 -0.601806 -0.653319 0.459352 
-0.6387 -0.522338 0.565001 -0.826285 0.185586 0.531799 -0.754301 0.4854 0.442059 
0.908114 0.386501 0.161078 -0.00993101 0.909054 0.41656 -0.32013 0.772303 0.548694 
0.624412 0.641995 0.444918 0.335884 0.873442 0.352536 -0.100494 0.867935 0.486405 
0.168502 0.910681 0.377184 0.326151 -0.939824 0.101764 0.965609 -0.183382 -0.184309 
0.989312 0.00348462 -0.145775 -0.710497 0.557053 0.429983 0.881629 0.408373 0.236562 
-0.666866 0.607637 0.431355 -0.0085391 0.668898 0.743305 0.459497 0.619001 0.636946 
0.515006 0.605207 0.607037 -0.0356672 0.558397 0.828807 -0.178511 0.729577 0.66019 
0.50358 0.67291 0.541848 0.16144 0.898829 0.407484 0.874547 0.457822 -0.159895 
-0.616477 -0.304521 0.726102 -0.641554 -0.24365 0.727353 -0.500215 0.195481 0.843547 
-0.679304 0.500817 0.536403 -0.419322 0.543242 0.727363 -0.371641 0.614413 0.695974 
0.327783 0.644719 0.690577 0.502974 -0.864159 0.0156891 -0.474344 0.0335096 0.879701 
-0.586342 0.111455 0.80236 -0.617727 0.333553 0.712149 -0.315921 0.691782 0.649332 
-0.0286467 0.607156 0.794066 -0.473296 -0.817141 0.329047 -0.01434 -0.980892 0.194026 
0.325983 -0.942576 0.0727037 0.696353 -0.711943 0.0907207 0.824972 -0.564951 -0.0158574 
0.993045 0.116247 0.0186397 -0.748411 -0.163799 0.642691 -0.489743 -0.16434 0.856238 
-0.555303 0.12436 0.822298 0.686783 0.652081 0.321121 0.573322 0.585101 0.57355 
0.228999 0.657878 0.717465 0.931847 -0.358695 0.0547597 -0.749317 -0.221177 0.624184 
-0.575808 0.187015 0.795908 -0.404054 0.625939 0.667039 0.53592 0.671726 0.511443 
0.0474594 0.728945 0.682925 0.552441 0.58073 0.597965 -0.78866 -0.46349 0.403971 
-0.696063 -0.148457 0.702465 -0.847831 -0.109776 0.518779 -0.687674 0.405604 0.602155 
-0.412167 0.698919 0.584491 0.340944 0.789024 0.511076 -0.221549 -0.973924 0.0488604 
-0.567515 -0.813157 0.129238 -0.660367 -0.695486 0.283223 -0.72039 -0.664136 0.199904 
0.988166 0.15278 0.0136409 -0.78935 -0.571691 0.223819 -0.787137 -0.12325 0.604338 
-0.791144 0.199078 0.578325 -0.628849 0.571053 0.527681 -0.348633 -0.936225 0.0440167 
0.121563 -0.985767 0.116124 -0.507651 -0.825787 0.245698 -0.705372 -0.703891 0.0835941 
-0.82496 -0.403507 0.395757 -0.867445 -0.125258 0.481508 -0.924879 -0.192971 0.327659 
-0.923935 -0.105257 0.367785 -0.874503 -0.00448641 0.484999 -0.878995 0.356389 0.316787 
-0.786325 0.552742 0.275989 -0.648198 0.682031 0.338635 -0.419393 0.871424 0.254421 
-0.0712755 0.842855 0.533399 0.586584 -0.808116 0.0535485 0.881691 0.47169 -0.0113624 
-0.801371 -0.584569 0.126822 -0.937233 -0.19402 0.289742 -0.919697 -0.169345 0.35423 
-0.0976642 0.989164 0.109622 0.389595 0.885766 0.252259 -0.0925452 0.948402 0.303265 
-0.195327 -0.97735 0.0814527 -0.877796 -0.476481 -0.049405 -0.9595 -0.27549 0.0588669 
-0.988067 -0.0875008 0.126759 -0.976372 -0.145763 0.159535 -0.968802 0.0688135 0.238092 
-0.869409 0.489694 -0.0657902 0.631568 0.715839 0.297819 0.708247 0.701121 0.0825509 
-0.50499 0.863057 -0.0108633 0.710905 0.703288 0.000534713 0.371303 0.925984 -0.0684735 
0.0324437 0.990415 -0.134256 -0.947805 -0.293241 -0.125198 -0.983972 -0.153155 -0.0913419 
-0.970763 0.196637 -0.137667 -0.708983 0.581615 -0.398833 -0.648978 0.75635 -0.0822294 
-0.513463 0.741913 -0.431185 -0.680398 0.714152 -0.164455 -0.427727 0.765393 -0.480857 
-0.519248 0.745757 -0.417406 0.40354 0.892091 -0.203297 -0.309593 0.896287 -0.317525 
0.0536633 0.825507 -0.561835 0.407813 0.811206 -0.419087 0.469264 -0.878866 -0.0859374 
0.682158 -0.728215 -0.0660549 0.814816 -0.576931 -0.0567943 0.998517 0.0383652 -0.0386173 
-0.823055 -0.567524 0.0222802 -0.84965 -0.488358 -0.199003 -0.912193 -0.391081 -0.122305 
-0.878575 -0.188643 -0.438771 -0.863637 -0.212662 -0.457063 -0.958817 -0.0701712 -0.275219 
0.782445 0.622618 -0.0112183 -0.813012 0.350892 -0.464635 0.676526 0.70995 -0.195664 
-0.389843 -0.911737 -0.129453 -0.0894847 -0.973352 -0.211137 0.0268503 -0.995776 -0.0878001 
0.285841 -0.94464 -0.161092 0.735452 -0.665159 -0.129128 -0.833321 -0.538345 -0.125541 
-0.77988 -0.593124 -0.199978 -0.699042 0.0289584 -0.714494 0.749487 0.614374 -0.246605 
-0.632914 0.584379 -0.50786 -0.493573 0.718061 -0.490687 -0.236895 0.681501 -0.692414 
0.579018 0.734171 -0.354584 0.703597 0.586012 -0.401922 0.252322 -0.948385 -0.192094 
-0.572544 -0.784182 -0.239273 -0.722423 -0.64016 -0.261342 0.999073 -0.0123114 0.0412552 
0.882792 0.469764 0.000401449 -0.838918 -0.35933 -0.408777 -0.718396 -0.204391 -0.66493 
-0.471855 0.47786 -0.740947 0.795961 0.497135 -0.345401 0.563959 -0.825614 -0.0176285 
0.721512 -0.691294 0.0391563 0.834817 -0.550087 -0.0220303 0.983006 0.183137 0.0126669 
-0.828944 -0.453661 -0.327176 -0.759924 -0.449044 -0.469974 -0.641804 0.295538 -0.707633 
0.822213 0.490669 -0.288459 0.849983 0.483997 -0.208028 0.333049 0.707784 -0.622993 
0.558641 0.715129 -0.420131 -0.324779 -0.908172 -0.264089 0.401348 -0.901305 -0.163002 
0.952802 -0.302272 -0.0282636 -0.729386 -0.544196 -0.414543 -0.703174 -0.463714 -0.538995 
-0.473443 -0.0805104 -0.877137 -0.521164 -0.189043 -0.832256 -0.587927 -0.241604 -0.771991 
-0.587507 0.399786 -0.703567 0.504102 0.615143 -0.606202 0.0286215 -0.979349 -0.200142 
0.231582 -0.955547 -0.182482 0.671451 -0.737677 -0.0706182 0.889465 -0.447195 0.0941703 
-0.660258 -0.577004 -0.480757 -0.46276 -0.338496 -0.819313 -0.615446 -0.170612 -0.769492 
-0.659417 0.29507 -0.69145 0.830152 0.485305 -0.274457 0.830053 0.531805 -0.167917 
-0.314496 0.655159 -0.68692 0.54749 -0.836723 -0.0122243 0.695593 -0.717525 -0.0361654 
0.970562 -0.231456 0.0666131 -0.533952 -0.488012 -0.690463 -0.792063 0.123391 -0.597839 
-0.508059 0.0120606 -0.861238 -0.0496417 0.751733 -0.657596 0.211714 0.737863 -0.640886 
0.339091 -0.940752 -0.00194127 0.784131 -0.61837 0.0525066 0.986702 -0.0959833 0.131173 
0.97599 0.181965 0.119715 -0.665277 -0.451986 -0.594236 -0.333488 0.789242 -0.515638 
0.109572 0.894646 -0.433131 0.292254 0.768538 -0.569154 -0.524429 -0.702696 -0.480824 
0.955133 -0.241235 0.171835 0.971851 0.0114524 0.235317 0.852184 0.512074 0.107527 
-0.866681 -0.219382 -0.448035 -0.874819 -0.0485136 -0.482014 -0.846651 0.351576 -0.39947 
0.660503 0.623913 -0.417693 0.50046 0.810575 -0.304152 0.458808 -0.888514 0.00621886 
-0.564776 -0.66925 -0.482837 0.905754 0.369677 0.207241 -0.571606 -0.63587 -0.51859 
0.859613 0.492114 0.137438 -0.799012 0.554512 -0.232588 0.906341 0.421757 -0.0258067 
0.215011 -0.922506 -0.320552 0.858759 -0.460556 0.224547 -0.654275 -0.562844 -0.505105 
-0.655195 -0.627965 -0.419975 -0.751531 -0.487566 -0.444388 0.0842839 0.935076 -0.34428 
-0.116988 -0.939521 -0.321891 0.317641 -0.88429 -0.342252 -0.435829 -0.803278 -0.405952 
0.515519 -0.825596 -0.229416 -0.520137 -0.768794 -0.372039 -0.716138 -0.652313 -0.248261 
-0.96613 -0.00404808 -0.258023 -0.453781 0.852777 -0.258562 0.00804914 0.978149 -0.207748 
0.116696 -0.98445 -0.131306 0.421386 -0.905363 0.052455 -0.457422 -0.854586 -0.245863 
0.594842 -0.795302 0.116864 -0.71403 -0.650407 -0.259098 0.885286 0.241343 0.39752 
-0.70553 -0.632534 -0.319575 0.892061 0.423532 0.157634 0.520703 0.826215 -0.215028 
-0.179849 -0.962882 -0.201275 0.92985 -0.0529222 0.364112 -0.665417 -0.698765 -0.262581 
-0.459128 0.85309 -0.247867 -0.335464 0.863711 -0.376121 0.444844 0.895397 -0.0194159 
-0.0874259 -0.995879 0.0241235 -0.564937 -0.82005 -0.0914573 0.689471 -0.658741 0.301148 
-0.821424 -0.53277 -0.203516 -0.871024 0.469025 -0.14606 -0.6243 0.750568 -0.216559 
0.867482 0.491307 -0.0780601 -0.266655 0.957764 -0.107627 0.253321 -0.957468 0.138143 
0.810796 -0.433539 0.39326 0.865364 -0.0945887 0.492136 0.839666 0.0961617 0.534522 
-0.934233 -0.356572 -0.00807433 -0.986037 0.131298 -0.102426 -0.293971 -0.941708 0.163604 
0.100422 -0.950758 0.293214 0.282718 -0.913436 0.292756 0.683649 -0.533895 0.497575 
0.811523 0.45132 0.371134 -0.99663 -0.0759968 0.030887 -0.966203 0.239562 -0.0951936 
-0.372498 0.927024 -0.0432516 0.803479 0.595245 0.0102313 -0.222509 -0.90484 0.362981 
0.569373 -0.726552 0.384624 -0.458952 -0.8589 0.227276 0.781289 0.3427 0.521675 
-0.640571 -0.741649 -0.199059 -0.994353 0.0942298 0.0488202 0.884578 0.352342 0.305577 
0.90567 0.410721 0.105211 0.836338 0.530951 0.13649 0.606109 0.795347 -0.00738425 
0.056482 0.998399 -0.00289913 0.116268 -0.879612 0.461264 0.313908 -0.817191 0.483385 
0.754615 -0.221328 0.617713 -0.657325 -0.746146 0.105787 -0.771188 -0.635966 -0.0285587 