# vtk DataFile Version 4.2
vtk output
ASCII
DATASET POLYDATA
POINTS 1431 float
441.055 191.857 203.939 440.926 191.479 204.095 441.331 191.978 203.783 
441.23 192.244 203.847 441.123 192.531 204.028 440.991 191.123 204.149 
441.214 191.119 204.023 441.17 190.76 204.211 441.512 191.059 203.987 
440.385 192.014 204.839 444.342 192.932 203.526 443.294 193.412 203.636 
444.709 194.095 203.712 441.657 193.965 204.468 443.613 194.491 204 
443.53 190.151 204.242 445.891 192.249 203.71 440.718 193.88 205.79 
442.674 194.702 204.483 444.662 195.158 204.214 445.205 195.124 204.136 
443.16 195.201 204.78 455.523 196.197 204.789 455.973 196.809 205.078 
441.776 188.521 205.191 441.443 187.847 205.696 450.34 193.313 204.231 
455.282 195.053 204.625 446.016 195.976 204.797 457.666 196.815 205.195 
457.173 196.055 204.949 459.961 196.855 205.301 459.29 196.241 205.191 
457.82 197.46 205.5 459.822 197.446 205.488 462.039 197.593 205.487 
463.081 197.772 205.501 459.712 198.011 205.783 461.657 198.062 205.686 
463.773 198.472 205.698 464.896 198.469 205.599 463.961 199.01 205.95 
465.626 199.15 205.826 469.058 199.644 205.675 467.579 200.317 206.243 
467.777 199.979 205.975 473.182 200.362 205.951 469.299 200.672 206.179 
473.651 200.941 206.298 440.705 187.065 206.546 441.034 186.459 206.715 
440.548 187.735 206.315 442.334 188.031 205.421 450.339 191.315 205.007 
439.626 191.425 206.482 457.801 194.839 205.087 461.152 195.737 205.347 
462.244 195.849 205.425 443.39 196.177 206.448 445.809 196.638 205.904 
458.305 198.294 206.148 469.946 198.694 205.52 460.638 198.99 206.548 
475.249 199.082 206.632 463.701 199.668 206.625 465.566 200.037 206.527 
466.959 200.3 206.389 474.967 200.686 206.832 473.607 201.83 206.856 
442.473 187.052 206.113 443.735 188.03 205.568 439.47 189.924 207 
460.401 199.233 206.937 468.42 201.221 207.028 474.095 202.724 207.978 
494.892 218.434 208.187 493.698 218.466 208.194 495.109 218.668 208.209 
495.279 218.606 208.256 440.466 184.929 208.211 440.275 185.785 207.858 
443.497 187.02 206.289 439.796 193.621 208.707 441.094 195.384 208.986 
446.38 197.27 207.214 459.431 199.455 207.643 476.44 200.856 208.149 
472.228 202.718 208.124 486.345 215.432 209.447 486.244 215.727 209.267 
487.631 216.128 209.117 491.56 216.986 208.657 491.898 217.039 208.673 
492.428 217.168 208.743 492.767 217.501 208.444 493.571 217.697 208.393 
494.097 217.729 208.519 496.371 218.736 208.687 498.249 219.376 208.946 
495.296 219.271 208.357 496.026 219.522 208.461 498.466 219.584 208.898 
489.764 218.601 209.06 496.461 220.13 208.694 497.494 219.93 208.739 
498.505 220.239 208.975 498.947 220.013 208.967 439.952 179.86 210.354 
439.943 179.868 210.353 439.951 179.854 210.368 440.583 184.014 208.718 
440.55 183.735 208.95 440.385 184.204 208.786 441.097 184.148 208.451 
439.875 185.76 208.484 446.929 186.033 208.091 457.999 190.037 207.427 
477.747 193.565 208.934 458.756 199.753 208.645 461.067 199.868 207.931 
474.969 203.276 209.465 485.115 214.897 209.745 485.009 214.823 209.79 
484.971 214.853 209.834 485.059 214.829 209.795 485.03 214.986 209.791 
484.832 214.869 210.082 484.833 215.003 209.966 485.213 214.879 209.857 
485.412 215.285 209.616 486.027 215.177 209.763 492.036 216.949 209.067 
492.385 217.029 209.322 486.491 216.6 209.427 499.642 219.467 209.536 
502.27 219.878 209.687 506.332 220.22 209.689 506.148 220.134 209.744 
505.704 220.172 209.693 506.627 220.156 209.741 487.744 217.903 209.502 
499.767 220.034 209.132 503.223 220.189 209.565 505.484 220.3 209.653 
506.938 220.209 209.736 507.055 220.327 209.733 507.557 220.259 209.819 
508.308 220.343 209.896 508.754 220.389 209.919 509.391 220.524 210.031 
509.118 220.464 209.961 509.66 220.532 210.111 489.72 218.984 209.376 
490.264 219.576 209.658 502.849 220.459 209.539 504.761 220.496 209.649 
508.194 220.478 209.859 508.873 220.433 209.917 509.775 220.603 210.15 
493.534 220.439 209.167 501.286 220.702 209.504 503.033 220.727 209.656 
504.622 220.714 209.735 505.878 220.699 209.782 506.168 220.81 209.889 
492.192 220.594 209.737 497.648 221.365 209.672 439.955 179.941 210.368 
439.922 179.8 210.362 439.927 179.836 210.363 439.922 179.809 210.367 
440.135 180.337 210.392 440.089 180.111 210.452 439.963 179.891 210.394 
440.752 183.296 209.171 440.563 182.821 209.577 439.823 184.935 209.189 
479.215 191.288 210.42 477.557 191.901 209.433 479.522 192.662 210.417 
459.256 200.065 209.482 466.876 201.675 209.039 476.65 201.99 209.315 
475.679 202.966 209.403 484.995 214.82 209.904 484.587 214.875 210.543 
484.477 215.007 210.536 484.365 215.158 210.766 484.789 215.156 210.041 
491.387 216.727 209.544 492.601 217.14 209.762 497.496 218.813 209.688 
507.063 220.17 209.798 509.027 220.419 209.956 489.512 219.559 210.073 
510.178 220.719 210.32 504.962 220.84 209.844 493.599 221.25 209.884 
501.454 221.385 210.074 503.435 221.154 210.063 496.068 222.071 210.38 
440.032 180.209 210.407 439.949 179.893 210.392 440.051 180.147 210.483 
440.508 180.883 210.441 440.281 180.962 210.363 440.418 180.62 210.644 
440.645 181.552 210.192 440.351 181.725 210.206 441.518 181.64 210.562 
441.267 181.396 210.71 441.127 182.194 209.901 446.531 184.425 209.718 
439.218 186.594 209.879 460.965 187.605 209.669 438.887 189.115 210.136 
478.798 190.556 210.663 472.727 189.268 209.902 479.778 190.994 211.215 
479.893 193.744 210.854 440.414 195.02 212.22 442.144 196.38 211.073 
466.137 201.728 210.149 474.915 203.701 210.924 484.363 214.973 210.9 
484.235 215.099 211.171 484.391 215.372 210.792 487.905 215.675 210.91 
498.045 218.988 210.002 486.826 218.4 211.176 508.905 220.446 210.235 
510.682 220.757 210.507 488.88 219.709 210.909 511.36 220.85 210.76 
511.439 220.919 210.762 511.869 220.915 210.867 512.306 220.956 210.98 
501.255 221.956 210.746 440.127 180.693 210.504 440.247 180.587 210.698 
440.546 180.913 210.965 440.799 180.995 210.926 440.179 181.932 210.423 
441.322 181.351 211.097 441.944 181.65 211.086 459.642 186.677 210.269 
469.38 187.72 210.706 475.374 188.676 211.134 476.535 189.306 210.835 
476.725 189.105 211.197 477.953 190.044 210.686 478.971 190.162 211.37 
479.944 191.038 211.424 479.953 190.944 211.502 479.982 191.423 211.456 
479.976 191.072 211.557 480.1 192.147 211.562 439.368 193.146 212.026 
440.002 194.467 212.719 480.014 195.6 211.662 480.258 194.245 211.81 
472.92 203.822 211.409 484.328 214.873 211.677 484.852 214.807 211.699 
512.638 220.984 211.076 512.456 220.956 211.032 512.786 221.017 211.137 
512.761 220.994 211.123 512.816 221.032 211.172 500.606 220.124 211.588 
512.048 220.933 210.956 512.808 221.061 211.185 503.46 221.664 210.845 
503.053 221.979 211.428 495.986 222.966 211.954 440.358 181.123 211.009 
440.187 181.361 210.734 441.27 181.529 211.696 442.016 181.679 211.603 
442.932 181.932 211.828 443.119 182.026 211.981 443.36 182.142 211.915 
443.472 182.292 211.34 462.003 185.348 212.343 465.411 185.769 212.369 
467.479 186.091 212.06 468.125 185.959 212.453 439.258 185.907 211.322 
456.549 185.543 211.09 457.514 185.618 211.143 462.555 185.971 211.469 
468.76 186.389 212.091 471.681 187.019 212.625 474.382 187.88 212.442 
476.526 188.816 211.676 478.069 189.338 211.851 478.201 189.324 212.106 
480.194 192.706 212.608 480.255 195.82 213.03 465.232 201.801 212.12 
478.716 200.937 212.292 484.337 216.113 212.005 487.175 218.941 211.997 
510.332 220.9 210.866 512.788 221.108 211.242 502.202 220.835 211.897 
504.938 220.918 211.2 512.722 221.189 211.304 512.417 221.388 211.443 
512.587 221.284 211.379 503.309 222.196 212.292 503.727 221.86 211.669 
504.521 221.747 211.545 504.862 221.977 212.019 508.429 221.378 211.072 
509.141 221.352 211.07 509.76 221.405 211.158 510.71 221.618 211.454 
511.231 222.089 212.042 512.021 221.683 211.694 494.541 222.975 212.627 
505.318 221.997 211.916 505.969 221.831 211.662 506.854 221.608 211.354 
440.532 181.468 211.436 440.807 181.454 211.608 440.677 181.611 211.709 
443.055 182.341 212.958 445.135 182.845 212.085 447.196 183.365 212.4 
451.794 183.936 213.016 457.641 184.731 213.16 461.298 185.059 212.981 
462.457 185.194 213.036 466.678 185.702 212.784 467.667 185.894 213.116 
472.568 187.332 213.438 477.766 189.141 212.526 478.792 189.801 212.519 
478.686 189.801 212.763 439.042 191.752 213.346 480.286 196.197 213.7 
484.031 215.069 212.583 484.39 214.883 212.637 483.885 215.479 213.148 
502.882 221.72 212.459 503.76 221.594 211.864 504.625 221.635 211.731 
509.076 221.294 211.133 510.086 221.436 211.29 510.733 221.588 211.51 
511.783 221.758 211.785 512.318 221.412 211.487 503.065 222.138 212.909 
503.858 222.338 212.533 503.881 222.296 212.663 504.302 222.297 212.481 
504.518 222.22 212.452 505.96 221.78 211.766 505.366 222.082 212.188 
507.076 221.487 211.361 507.991 221.358 211.19 511.362 222.853 212.855 
511.32 222.795 212.797 511.312 222.724 212.727 511.303 222.572 212.564 
511.333 222.483 212.48 511.471 222.164 212.166 511.669 222.163 212.172 
503.905 222.52 212.668 505.339 222.16 212.233 506.916 223.427 213.758 
506.197 223.343 213.703 511.234 222.858 212.87 510.869 222.941 212.987 
511.288 222.511 212.501 498.342 223.453 213.138 501.905 223.138 213.132 
510.987 222.85 212.882 443.88 182.75 213.682 443.684 182.888 214.048 
452.768 184.007 213.939 453.251 184.087 213.919 452.997 184.031 213.956 
453.174 184.09 214.091 446.02 183.241 213.998 455.376 184.465 213.527 
462.179 185.121 213.304 461.661 185.061 213.363 467.016 185.706 212.803 
461.578 185.393 214.825 461.27 185.333 214.753 470.815 186.763 213.517 
468.34 186.301 213.76 469.169 186.359 213.373 475.655 188.511 213.433 
474.074 188.219 214.137 476.887 189.107 213.523 479.781 191.907 213.342 
480.285 195.376 214.488 470.934 203.701 213.811 504.918 222.701 213.04 
511.323 222.866 212.871 511.203 222.741 212.76 511.326 222.548 212.565 
[...]
POINT_DATA 1431
SCALARS scalars float
LOOKUP_TABLE default
1 1 1 1 1 1 1 1 1 
1 1 1 1 1 1 1 1 1 
1 1 1 1 1 1 1 1 1 
1 1 1 1 1 1 1 1 1 
1 1 1 1 1 1 1 1 1 
1 1 1 1 1 1 1 1 1 
1 1 1 1 1 1 1 1 1 
1 1 1 1 1 1 1 1 1 
1 1 1 1 1 1 1 1 1 
1 1 1 1 1 1 1 1 1 
1 1 1 1 1 1 1 1 1 
1 1 1 1 1 1 1 1 1 
1 1 1 1 1 1 1 1 1 
1 1 1 1 1 1 1 1 1 
1 1 1 1 1 1 1 1 1 
1 1 1 1 1 1 1 1 1 
1 1 1 1 1 1 1 1 1 
1 1 1 1 1 1 1 1 1 
1 1 1 1 1 1 1 1 1 
1 1 1 1 1 1 1 1 1 
1 1 1 1 1 1 1 1 1 
1 1 1 1 1 1 1 1 1 
1 1 1 1 1 1 1 1 1 
1 1 1 1 1 1 1 1 1 
1 1 1 1 1 1 1 1 1 
1 1 1 1 1 1 1 1 1 
1 1 1 1 1 1 1 1 1 
1 1 1 1 1 1 1 1 1 
1 1 1 1 1 1 1 1 1 
1 1 1 1 1 1 1 1 1 
1 1 1 1 1 1 1 1 1 
1 1 1 1 1 1 1 1 1 
1 1 1 1 1 1 1 1 1 
1 1 1 1 1 1 1 1 1 
1 1 1 1 1 1 1 1 1 
1 1 1 1 1 1 1 1 1 
1 1 1 1 1 1 1 1 1 
1 1 1 1 1 1 1 1 1 
1 1 1 1 1 1 1 1 1 
1 1 1 1 1 1 1 1 1 
1 1 1 1 1 1 1 1 1 
1 1 1 1 1 1 1 1 1 
1 1 1 1 1 1 1 1 1 
1 1 1 1 1 1 1 1 1 
1 1 1 1 1 1 1 1 1 
1 1 1 1 1 1 1 1 1 
1 1 1 1 1 1 1 1 1 
1 1 1 1 1 1 1 1 1 
1 1 1 1 1 1 1 1 1 
1 1 1 1 1 1 1 1 1 
1 1 1 1 1 1 1 1 1 
1 1 1 1 1 1 1 1 1 
1 1 1 1 1 1 1 1 1 
1 1 1 1 1 1 1 1 1 
1 1 1 1 1 1 1 1 1 
1 1 1 1 1 1 1 1 1 
1 1 1 1 1 1 1 1 1 
1 1 1 1 1 1 1 1 1 
1 1 1 1 1 1 1 1 1 
1 1 1 1 1 1 1 1 1 
1 1 1 1 1 1 1 1 1 
1 1 1 1 1 1 1 1 1 
1 1 1 1 1 1 1 1 1 
1 1 1 1 1 1 1 1 1 
1 1 1 1 1 1 1 1 1 
1 1 1 1 1 1 1 1 1 
1 1 1 1 1 1 1 1 1 
1 1 1 1 1 1 1 1 1 
1 1 1 1 1 1 1 1 1 
1 1 1 1 1 1 1 1 1 
1 1 1 1 1 1 1 1 1 
1 1 1 1 1 1 1 1 1 
1 1 1 1 1 1 1 1 1 
1 1 1 1 1 1 1 1 1 
1 1 1 1 1 1 1 1 1 
1 1 1 1 1 1 1 1 1 
1 1 1 1 1 1 1 1 1 
1 1 1 1 1 1 1 1 1 
1 1 1 1 1 1 1 1 1 
1 1 1 1 1 1 1 1 1 
1 1 1 1 1 1 1 1 1 
1 1 1 1 1 1 1 1 1 
1 1 1 1 1 1 1 1 1 
1 1 1 1 1 1 1 1 1 
1 1 1 1 1 1 1 1 1 
1 1 1 1 1 1 1 1 1 
1 1 1 1 1 1 1 1 1 
1 1 1 1 1 1 1 1 1 
1 1 1 1 1 1 1 1 1 
1 1 1 1 1 1 1 1 1 
1 1 1 1 1 1 1 1 1 
1 1 1 1 1 1 1 1 1 
1 1 1 1 1 1 1 1 1 
1 1 1 1 1 1 1 1 1 
1 1 1 1 1 1 1 1 1 
1 1 1 1 1 1 1 1 1 
1 1 1 1 1 1 1 1 1 
1 1 1 1 1 1 1 1 1 
1 1 1 1 1 1 1 1 1 
1 1 1 1 1 1 1 1 1 
1 1 1 1 1 1 1 1 1 
1 1 1 1 1 1 1 1 1 
1 1 1 1 1 1 1 1 1 
1 1 1 1 1 1 1 1 1 
1 1 1 1 1 1 1 1 1 
1 1 1 1 1 1 1 1 1 
1 1 1 1 1 1 1 1 1 
1 1 1 1 1 1 1 1 1 
1 1 1 1 1 1 1 1 1 
1 1 1 1 1 1 1 1 1 
1 1 1 1 1 1 1 1 1 
1 1 1 1 1 1 1 1 1 
1 1 1 1 1 1 1 1 1 
1 1 1 1 1 1 1 1 1 
1 1 1 1 1 1 1 1 1 
1 1 1 1 1 1 1 1 1 
1 1 1 1 1 1 1 1 1 
1 1 1 1 1 1 1 1 1 
1 1 1 1 1 1 1 1 1 
1 1 1 1 1 1 1 1 1 
1 1 1 1 1 1 1 1 1 
1 1 1 1 1 1 1 1 1 
1 1 1 1 1 1 1 1 1 
1 1 1 1 1 1 1 1 1 
1 1 1 1 1 1 1 1 1 
1 1 1 1 1 1 1 1 1 
1 1 1 1 1 1 1 1 1 
1 1 1 1 1 1 1 1 1 
1 1 1 1 1 1 1 1 1 
1 1 1 1 1 1 1 1 1 
1 1 1 1 1 1 1 1 1 
1 1 1 1 1 1 1 1 1 
1 1 1 1 1 1 1 1 1 
1 1 1 1 1 1 1 1 1 
1 1 1 1 1 1 1 1 1 
1 1 1 1 1 1 1 1 1 
1 1 1 1 1 1 1 1 1 
1 1 1 1 1 1 1 1 1 
1 1 1 1 1 1 1 1 1 
1 1 1 1 1 1 1 1 1 
1 1 1 1 1 1 1 1 1 
1 1 1 1 1 1 1 1 1 
1 1 1 1 1 1 1 1 1 
1 1 1 1 1 1 1 1 1 
1 1 1 1 1 1 1 1 1 
1 1 1 1 1 1 1 1 1 
1 1 1 1 1 1 1 1 1 
1 1 1 1 1 1 1 1 1 
1 1 1 1 1 1 1 1 1 
1 1 1 1 1 1 1 1 1 
1 1 1 1 1 1 1 1 1 
1 1 1 1 1 1 1 1 1 
1 1 1 1 1 1 1 1 1 
1 1 1 1 1 1 1 1 1 
1 1 1 1 1 1 1 1 1 
1 1 1 1 1 1 1 1 1 
1 1 1 1 1 1 1 1 1 
1 1 1 1 1 1 1 1 1 
1 1 1 1 1 1 1 1 1 

NORMALS Normals float
-0.554554 -0.0605179 -0.829944 -0.72664 -0.14398 -0.671762 -0.196364 -0.0900121 -0.976391 
-0.428583 0.233183 -0.872893 -0.683987 0.296123 -0.666688 -0.624404 -0.309884 -0.717002 
-0.329323 -0.292978 -0.897613 -0.324173 -0.448952 -0.832678 -0.165791 -0.319717 -0.932896 
-0.858153 0.0715521 -0.508383 -0.0110809 0.0257192 -0.999608 -0.203705 0.289274 -0.935321 
0.0733173 0.263662 -0.961825 -0.550089 0.568046 -0.612148 -0.180103 0.448129 -0.875639 
0.0601267 -0.403973 -0.912793 0.153705 -0.204329 -0.96676 -0.772476 0.543797 -0.327971 
-0.366051 0.575634 -0.7312 -0.10445 0.714426 -0.691871 0.0137085 0.74265 -0.669539 
-0.292634 0.827789 -0.478675 0.130276 0.193689 -0.972375 0.103078 0.392257 -0.914062 
-0.260688 -0.457998 -0.84987 -0.156285 -0.553067 -0.818347 0.0766128 -0.236881 -0.968513 
0.193787 0.0271715 -0.980667 0.0153317 0.683419 -0.729865 0.163189 0.37514 -0.912491 
0.0388639 0.20726 -0.977514 0.127918 0.241199 -0.962008 0.0349963 0.196793 -0.97982 
0.110675 0.437211 -0.892523 -0.0142949 0.339037 -0.940664 -0.0589906 0.160338 -0.985298 
0.077903 0.151021 -0.985456 -0.135962 0.648698 -0.748803 -0.0816924 0.424762 -0.901612 
-0.0578574 0.364428 -0.929432 0.0840354 0.200649 -0.976052 -0.214605 0.54866 -0.808033 
0.09215 0.205097 -0.974394 -0.142885 0.35699 -0.923115 -0.116142 0.639953 -0.759586 
-0.107566 0.421218 -0.900558 0.106244 0.300541 -0.947833 -0.148134 0.573042 -0.806027 
0.308615 0.364203 -0.8787 -0.602838 -0.388622 -0.696821 -0.338779 -0.50704 -0.792552 
-0.677108 -0.322345 -0.661527 0.00121827 -0.624855 -0.78074 0.125977 -0.520166 -0.844723 
-0.949328 0.176135 -0.260294 0.167969 -0.218984 -0.961162 0.071675 0.120016 -0.990181 
0.16303 -0.235466 -0.958111 -0.45003 0.842917 -0.294896 -0.2175 0.881534 -0.419036 
-0.00118106 0.622763 -0.78241 0.0518563 -0.0854099 -0.994995 -0.125589 0.750034 -0.649366 
0.472692 0.0217069 -0.88096 -0.190312 0.77373 -0.604254 -0.194099 0.715179 -0.671449 
-0.227574 0.722777 -0.652536 0.571468 0.318714 -0.756205 0.230094 0.651721 -0.722715 
0.0203093 -0.598439 -0.800911 0.129506 -0.587742 -0.798616 -0.949178 -0.0741342 -0.305884 
-0.139182 0.870485 -0.472107 -0.176949 0.739748 -0.649201 0.267912 0.772275 -0.576034 
0.18423 -0.347431 -0.91943 -0.125959 0.129676 -0.983523 0.0512088 0.178124 -0.982675 
0.362146 -0.272661 -0.891351 -0.608103 -0.429189 -0.667838 -0.593824 -0.42986 -0.680143 
0.117873 -0.588517 -0.799846 -0.907906 0.406411 -0.102645 -0.681583 0.719588 -0.132806 
-0.149128 0.940072 -0.306634 -0.139167 0.855717 -0.498378 0.666623 0.403978 -0.626431 
-0.150683 0.904365 -0.399273 0.111369 -0.655721 -0.746744 -0.164923 -0.125536 -0.978285 
0.0930765 -0.557069 -0.825234 0.129591 -0.846152 -0.516946 0.211348 -0.938866 -0.271778 
0.257035 -0.938058 -0.232336 0.111873 -0.605776 -0.787731 0.101303 -0.518193 -0.849243 
0.33804 -0.87656 -0.342594 0.317302 -0.444297 -0.837807 0.256384 -0.629644 -0.733359 
0.101621 0.280719 -0.954395 -0.0375398 0.350503 -0.935809 0.174053 -0.178901 -0.968349 
-0.47961 0.456621 -0.749315 -0.0430296 0.262848 -0.963877 0.0418191 0.29068 -0.955906 
0.156735 0.374804 -0.913759 0.171511 0.277912 -0.945171 0.42725 -0.473928 -0.769968 
-0.31993 -0.102084 -0.941925 0.655836 -0.66805 -0.351551 -0.448593 -0.434308 -0.781115 
-0.814093 -0.472291 -0.337925 -0.772465 -0.394288 -0.49783 -0.191855 -0.545059 -0.816151 
-0.859005 -0.296315 -0.417502 0.212289 -0.617219 -0.757611 0.114246 -0.571338 -0.812724 
0.364783 -0.236677 -0.900509 -0.173191 0.955226 -0.239894 -0.102411 0.916194 -0.387428 
0.246485 0.87343 -0.419959 -0.0829586 -0.478411 -0.874208 -0.355572 -0.736881 -0.574957 
-0.765063 -0.251934 -0.592629 0.270841 -0.910456 -0.312594 -0.638885 0.0299663 -0.768718 
-0.635311 -0.675077 -0.375034 -0.808804 -0.153407 -0.567716 0.375319 -0.925684 -0.0473705 
-0.417654 0.044957 -0.907493 0.303651 -0.934384 -0.186343 0.227756 -0.966483 -0.118484 
0.281702 -0.958792 -0.0369001 -0.559289 0.46543 -0.685982 0.276135 -0.897673 -0.343414 
0.162653 -0.945265 -0.282874 0.0452155 -0.331384 -0.942412 0.0233106 -0.974438 -0.223442 
0.00809455 -0.643557 -0.765355 0.0641 -0.739809 -0.669756 -0.391149 0.524076 -0.756536 
0.179874 -0.0116437 -0.983621 0.107322 -0.221063 -0.969337 0.0662983 0.112287 -0.991462 
0.113984 -0.440381 -0.890546 0.0963125 -0.0633027 -0.993336 0.170109 -0.744208 -0.645924 
0.128414 -0.849819 -0.511192 0.138676 -0.703499 -0.697035 0.187051 0.321519 -0.928244 
0.23164 -0.102137 -0.967425 0.366508 -0.338228 -0.866761 -0.39248 0.566155 -0.724864 
-0.279011 0.701693 -0.655576 0.0591336 0.325429 -0.943715 0.0486725 0.138466 -0.989171 
0.0870333 0.561671 -0.82277 0.0808914 0.447946 -0.890394 0.278112 0.255315 -0.925996 
-0.151929 0.501238 -0.851868 0.0259796 0.509938 -0.859819 -0.0175643 0.693405 -0.720334 
0.0523372 0.775602 -0.629049 0.0708132 0.577139 -0.81357 0.0993466 0.591262 -0.800337 
-0.322546 0.688632 -0.649423 0.0852374 0.682441 -0.725954 -0.832005 0.280516 -0.478621 
0.50648 -0.858933 -0.0755721 -0.910141 0.191314 -0.36748 -0.678078 -0.127507 0.723846 
-0.00833729 0.0402361 -0.999155 0.764405 -0.54543 0.34379 0.353018 -0.447396 0.821715 
-0.6594 -0.513446 -0.549149 -0.349866 -0.453934 -0.819474 -0.855516 -0.314257 -0.411504 
0.525383 -0.412417 -0.744235 0.323247 -0.350655 -0.878949 0.767047 -0.126129 -0.629072 
-0.1823 0.948722 -0.258252 -0.240114 0.924952 -0.294633 0.698198 0.548458 -0.460123 
0.551975 0.750966 -0.362456 -0.0936342 -0.994955 0.0360199 -0.616832 -0.736201 -0.278435 
-0.847214 -0.335783 -0.411677 -0.915413 0.00896449 -0.402415 -0.674896 0.376116 -0.634864 
0.294596 -0.93995 0.172359 0.322347 -0.928776 0.182941 0.141417 -0.932165 0.333272 
0.112249 -0.961091 -0.252398 0.236885 -0.887335 -0.395629 -0.545072 0.630674 -0.552401 
0.20398 0.490483 -0.847242 -0.00121715 0.664719 -0.747093 -0.147615 0.743606 -0.652119 
-0.0424918 0.641839 -0.765661 -0.0450304 0.786163 -0.616376 -0.0937871 0.716455 -0.691301 
-0.663393 0.240096 -0.708706 -0.718859 0.0380842 0.694112 -0.362402 -0.223023 0.904945 
0.611923 -0.454355 -0.647388 -0.229113 -0.105349 -0.967682 0.571104 -0.698954 0.430469 
0.124336 -0.429349 -0.894539 -0.558083 -0.188856 -0.808008 0.553338 -0.672584 -0.491374 
0.528447 -0.706942 -0.470081 0.24582 -0.632375 -0.734625 0.331057 -0.834669 -0.440146 
-0.967504 -0.181884 -0.175654 0.132858 -0.526226 -0.839901 -0.998175 0.0282876 -0.0533471 
0.471431 -0.59535 -0.650624 0.180559 -0.50114 -0.84632 0.75866 -0.293508 -0.581626 
0.796781 0.0888574 -0.597699 -0.746772 0.663843 -0.0405416 -0.382332 0.921181 -0.0724418 
-0.24162 0.950291 -0.196382 0.19213 0.970731 -0.14411 -0.839907 -0.503752 -0.201966 
-0.97326 -0.0607391 -0.22153 -0.870687 0.271002 -0.410441 0.317148 -0.943647 0.0945928 
0.0885632 -0.963548 0.252452 -0.589599 0.701213 -0.400839 0.0867391 -0.878728 0.469375 
0.37714 -0.478695 -0.792853 -0.450801 0.77863 -0.436479 0.249317 -0.878024 -0.408551 
0.271922 0.178316 -0.945654 0.263006 -0.491804 -0.830034 -0.153862 0.956944 0.246141 
0.0686853 0.828331 -0.556013 -0.988515 0.084171 -0.125511 -0.468375 -0.388719 0.793424 
0.102496 -0.759306 0.642611 0.584953 -0.805498 0.0948866 -0.920373 -0.108517 -0.375682 
0.461984 -0.884065 0.0707057 0.52259 -0.783409 -0.336409 -0.00558161 -0.715525 -0.698565 
0.138687 -0.725379 -0.674233 0.288036 -0.696329 -0.65739 0.178926 -0.770963 -0.61123 
0.299545 -0.830804 -0.469081 0.340517 -0.670433 -0.659217 0.57062 -0.708238 -0.415682 
0.902017 -0.142075 -0.407652 0.852339 -0.521116 -0.0442267 0.965325 -0.067196 -0.252256 
0.993853 -0.107579 -0.0261385 0.962488 -0.136416 -0.234536 -0.939531 0.339218 -0.0470389 
-0.902672 0.427383 0.0502756 0.967125 0.158624 -0.198768 0.988814 0.00327927 -0.149118 
-0.0773682 0.980558 -0.180331 -0.373772 -0.926082 -0.0516397 0.137204 -0.98939 0.0477821 
0.186278 0.542766 -0.818967 0.0434919 -0.971718 0.232106 0.530056 0.247315 -0.811096 
0.368814 -0.920384 -0.129881 0.956855 -0.276793 -0.0883985 0.173244 -0.820468 0.54481 
-0.015173 -0.886166 0.463119 0.519505 0.647151 -0.557952 0.0621333 0.879379 -0.472051 
0.133083 0.90062 -0.41373 0.0490532 0.86708 -0.495747 -0.637504 -0.386097 0.666722 
-0.947829 -0.111279 0.298727 0.127171 -0.845961 0.517859 0.304064 -0.947424 0.0996644 
0.317588 -0.946068 0.063985 0.408799 -0.907639 0.0952633 0.436266 -0.899726 -0.0128907 
0.417114 -0.872747 -0.253631 0.104134 -0.926696 -0.361095 0.0204555 -0.984675 -0.173193 
0.0888254 -0.816125 -0.571008 0.261911 -0.940858 -0.214914 -0.980138 -0.198242 0.0054359 
0.069903 -0.869509 -0.488945 0.016437 -0.691058 -0.722612 0.170537 -0.742523 -0.647748 
0.290603 -0.869488 -0.399424 0.328779 -0.920366 -0.211735 0.316223 -0.941815 -0.11396 
0.324493 -0.870762 -0.369429 0.462992 -0.825331 -0.323213 0.537737 -0.84202 -0.0429096 
0.979876 -0.112825 0.164662 0.992247 -0.0158696 -0.123265 -0.293642 0.955778 -0.016222 
0.812415 0.437933 -0.384964 -0.787014 0.563756 -0.250573 -0.5903 0.796049 -0.133615 
-0.00304959 -0.804057 0.594544 0.396248 -0.450153 0.800219 0.222415 -0.615637 0.755991 
0.104145 -0.599039 0.793918 0.241697 0.757248 -0.606761 0.533928 0.845275 -0.0207923 
0.22784 -0.326117 0.917462 0.846317 0.399655 -0.352169 0.409179 0.910558 -0.0588021 
-0.163384 0.980555 0.108709 -0.589344 -0.463801 0.661484 0.0945268 0.974201 0.204932 
-0.0238825 0.999685 0.00768029 -0.160339 0.984757 0.0674178 -0.166038 0.932362 -0.321142 
0.0801962 0.732981 -0.675506 0.0772218 0.716024 -0.693792 -0.339399 0.901346 -0.269044 
-0.0762144 0.793592 -0.603658 0.265224 0.95098 -0.159037 0.120662 0.990888 -0.0598436 
-0.702628 -0.462969 0.540346 -0.285203 -0.660895 0.694174 -0.27358 -0.696358 0.663505 
0.13129 -0.910103 0.393033 0.368077 -0.921244 0.125814 0.135815 -0.97743 -0.161815 
0.17054 -0.903317 -0.393618 0.0374309 -0.993129 -0.110877 0.0683004 -0.971958 -0.225016 
0.221764 -0.969857 -0.100984 -0.138138 -0.814626 0.563296 0.0773764 -0.877201 0.473847 
0.43006 -0.902146 0.0343749 0.395696 -0.898008 0.192371 0.755571 -0.651915 0.0641804 
0.610689 -0.702966 0.364551 -0.974972 0.208222 0.0779269 0.990389 0.135043 -0.0298934 
-0.79724 -0.600866 -0.058034 0.0647697 -0.990143 0.124185 -0.992073 -0.0824328 -0.0948457 
0.441372 -0.602572 0.664904 0.439311 -0.00342582 0.898329 -0.25979 -0.0630001 0.963608 
-0.038999 -0.692738 0.720134 -0.306613 0.295635 0.904759 -0.372641 -0.270136 0.887787 
0.00879762 -0.663418 0.748198 0.128388 -0.502115 0.855218 0.360945 -0.839609 0.405925 
0.180262 -0.280046 -0.94291 0.0837757 -0.990815 -0.106149 -0.27007 -0.923746 -0.27158 
0.056905 -0.886295 0.459611 0.497994 0.134329 0.856713 0.142923 -0.611685 0.778084 
0.229179 -0.198302 0.952971 0.150707 0.0957231 0.983933 -0.0637222 0.72152 -0.689455 
-0.349146 0.682392 -0.642214 -0.231045 -0.706288 0.669161 -0.00265355 -0.732433 0.680834 
-0.269698 -0.730189 0.627763 -0.149614 -0.729293 0.667644 0.0062646 -0.700639 0.713489 
-0.0297982 0.602509 -0.797556 0.653099 0.318611 0.686985 -0.0381847 0.71645 -0.696592 
0.0233023 0.625997 -0.779477 0.0553069 -0.721529 0.690172 0.0521357 -0.721164 0.690799 
0.0928134 0.752906 -0.651551 -0.0453226 0.951715 -0.303618 0.0729964 0.899513 -0.430753 
0.0524705 -0.722023 0.689876 0.408495 -0.816891 0.407211 0.234482 -0.8408 0.487928 
0.121235 -0.992585 0.00883131 0.306816 -0.950065 0.0569195 0.129206 -0.987882 0.0859909 
0.443689 -0.834911 0.325674 0.102681 -0.941325 0.321502 0.143892 -0.989588 -0.00338785 
0.180486 -0.983564 -0.00522134 0.0915389 -0.995103 0.0372909 0.0852643 -0.991691 -0.0963259 
0.226458 -0.772233 0.59361 0.0723556 -0.955236 0.286861 0.252327 -0.88425 0.39298 
0.275207 -0.888926 0.366158 0.291823 -0.942884 0.160654 0.363878 -0.898905 0.244055 
0.363072 -0.837844 0.407672 0.404811 -0.858992 0.313466 0.905051 -0.333313 0.264169 
0.989153 -0.135749 0.0561176 -0.208063 0.972367 -0.105887 0.129773 -0.813036 0.567567 
-0.0637222 0.72152 -0.689455 -0.118652 0.671527 -0.731418 -0.23552 -0.751202 0.616625 
0.0329494 0.603588 -0.796616 0.129775 0.400408 -0.907101 0.0757264 -0.834773 0.545362 
-0.0518002 0.718955 -0.693124 -0.0468752 0.724102 -0.688098 -0.0494818 0.71324 -0.699171 
-0.0558914 0.69633 -0.715542 -0.0720458 0.670173 -0.7387 -0.0720458 0.670173 -0.7387 
-0.168925 0.600595 -0.781505 0.174077 -0.644882 0.744194 -0.0557734 0.997752 -0.0371463 
0.120165 0.921372 -0.369642 -0.105514 0.991387 0.0775752 -0.0547947 0.723833 -0.687796 
-0.0529833 0.715099 -0.697012 -0.0483769 0.718983 -0.693342 0.0537177 -0.702755 0.709401 
0.0345506 -0.738586 0.673274 -0.0998511 -0.745672 0.658789 0.0964937 -0.89734 0.430662 
0.10869 -0.951592 0.287506 0.250533 -0.891853 0.376605 0.0902494 -0.993828 0.06451 
0.0476991 -0.997415 0.0537414 0.236561 -0.899643 0.36699 0.25083 -0.880597 0.402036 
0.190307 -0.863145 0.467721 -0.698519 0.710125 0.0882827 -0.705887 0.707847 0.0260096 
-0.390128 0.917415 0.0784168 0.619325 0.728333 -0.293201 -0.77865 -0.624032 0.0654821 
0.170666 -0.958115 0.229977 0.545932 -0.837043 0.0362943 -0.766501 0.642242 -0.00148692 
0.318386 -0.82073 0.474376 0.229639 -0.816821 0.529215 0.0096993 -0.455364 0.890253 
0.0362581 -0.163309 0.985908 0.0531952 -0.738363 0.672302 0.104735 0.781218 -0.61541 
-0.0230428 0.999604 0.0161581 0.0556175 0.998199 -0.0224921 -0.0711179 0.959705 -0.27186 
0.0128231 -0.567926 0.82298 -0.137864 0.990393 0.010772 -0.0973686 0.92266 0.37312 
0.214399 0.968044 -0.130093 -0.465369 -0.540363 0.701027 -0.270092 -0.621691 0.735221 
0.155046 -0.878888 0.451129 0.629813 -0.585373 0.510563 -0.910519 0.411179 0.0434292 
0.976878 -0.12497 0.173472 0.995403 0.00904678 0.0953469 0.986944 0.153696 -0.0481496 
0.90801 0.392017 -0.147789 0.0988361 0.978461 -0.181231 0.49988 0.835913 -0.226649 
-0.245564 -0.93124 0.269239 -0.980685 0.188941 -0.0505706 0.283223 -0.875015 0.392598 
-0.975807 0.180946 0.122718 -0.842999 0.537914 0.000600362 0.563399 -0.753581 0.33867 
0.488145 -0.751225 0.44427 -0.722393 0.66192 0.200025 0.229028 -0.602131 0.764842 
0.00654309 0.645116 0.764056 0.0272143 -0.799894 0.599524 0.0293564 -0.738055 0.674102 
0.109217 0.858441 -0.501149 -0.294704 0.93056 0.217272 -0.0762576 0.996344 0.0385221 
-0.0539699 0.928289 0.367923 0.0594832 0.648957 0.758496 0.161517 0.914695 0.370467 
0.0767707 0.807543 0.584791 -0.0121623 0.950696 0.309886 -0.0559787 0.713885 -0.698022 
0.130142 0.969455 0.207896 -0.944273 -0.264371 0.196104 -0.039234 -0.784993 0.618262 
-0.940385 -0.236267 0.244651 -0.997316 0.0684437 0.0259984 0.875125 -0.34434 0.33998 
-0.336061 0.937996 0.0850084 0.752274 0.633829 -0.179848 0.469091 0.865482 -0.175768 
-0.883285 -0.365509 0.293617 -0.362615 -0.815391 0.451274 -0.794399 -0.284656 0.536564 
-0.934715 0.16342 0.315598 -0.857846 0.330031 0.39393 0.321034 -0.620262 0.71569 
-0.810808 0.563896 0.156881 -0.679174 0.663486 0.31386 -0.688294 0.642028 0.337715 
-0.638106 0.624215 0.450752 0.338594 -0.447998 0.827437 -0.591397 0.744751 0.309184 
-0.50579 0.766412 0.395966 0.283915 -0.380582 0.880085 0.228348 0.325286 0.917631 
0.106143 0.20681 0.972606 0.0650926 0.859643 0.506731 0.218288 0.862772 0.456043 
0.794116 -0.41013 0.448524 0.94768 0.315191 -0.0505711 0.317593 0.92055 -0.227424 
0.70577 0.6874 -0.171377 0.0685945 -0.853253 0.516966 -0.388273 -0.634974 0.667872 
-0.795463 -0.00300206 0.605995 -0.585101 -0.255036 0.769814 0.15363 -0.593171 0.790282 
-0.727024 0.210583 0.653521 0.295879 -0.715558 0.632797 0.31781 -0.629629 0.708918 
-0.738041 0.508204 0.443874 -0.53028 0.104684 0.841335 -0.69057 0.623702 0.366208 
-0.489797 0.344557 0.800861 0.318118 -0.618018 0.718926 -0.560654 0.47615 0.677458 
-0.652207 0.677149 0.340727 0.195186 -0.586816 0.785843 0.409427 -0.779556 0.473985 
-0.584672 0.470228 0.661093 0.268716 -0.441994 0.855823 -0.532658 0.643888 0.549257 
-0.461878 0.622575 0.631719 0.240533 -0.23471 0.941836 -0.341867 0.83025 0.440242 
0.187683 0.298722 0.935703 0.19868 0.179116 0.963558 -0.129404 0.721452 0.680266 
-0.0226644 0.801581 0.597456 0.0122347 -0.736577 0.676243 0.219852 -0.708024 0.671093 
-0.969502 -0.0427412 0.241327 -0.96668 0.12585 0.222915 0.449847 -0.708047 0.544342 
-0.856659 0.504644 0.107093 0.882907 -0.342703 0.320984 -0.233447 -0.389274 0.891049 
-0.187747 -0.129397 0.973657 0.117648 -0.395984 0.91069 -0.0532095 -0.214033 0.975376 
-0.553406 0.452284 0.699415 0.200022 -0.541071 0.816844 0.227984 -0.48365 0.845048 
-0.224327 0.025983 0.974168 0.154115 -0.403583 0.90187 -0.177405 -0.0340055 0.98355 
-0.453944 0.285186 0.844159 -0.413224 0.519531 0.747886 0.291504 -0.472427 0.831768 
0.231582 -0.0204366 0.972601 -0.339125 0.4456 0.828514 -0.00917733 0.431241 0.90219 