# vtk DataFile Version 4.2
vtk output
ASCII
DATASET POLYDATA
POINTS 676 float
335.71 153.734 112.729 336.822 153.465 112.791 336.763 153.267 112.868 
334.212 154.286 112.691 333.593 154.304 112.835 333.648 154.585 112.695 
334.671 154.292 112.643 331.788 155.38 112.683 331.969 155.262 112.698 
334.154 154.6 112.656 335.55 154.355 112.709 336.737 153.859 112.759 
339.817 151.758 113.571 340.853 151.422 113.88 337.729 152.454 113.305 
339.607 152.196 113.476 335.356 153.288 113.193 337.072 152.837 113.142 
339.427 152.641 113.452 336.935 153.968 112.848 337.606 153.791 113.046 
339.074 152.99 113.408 329.081 155.718 113.3 328.813 156 113.309 
331.228 155.406 112.853 332.462 155.165 112.719 336.676 154.352 112.943 
329.225 156.094 113.209 331.69 155.773 112.829 333.571 155.406 112.872 
341.205 150.887 114.149 340.313 151.072 113.987 340.517 152.077 113.776 
333.892 153.571 113.648 333.336 153.9 113.413 340.137 152.743 113.887 
328.144 155.636 113.718 328.651 155.304 113.89 337.724 154.077 113.19 
325.88 156.4 114.152 326.827 155.922 114.084 337.289 154.538 113.293 
325.212 156.759 114.319 328.013 156.288 113.554 328.403 156.697 113.582 
330.056 156.942 113.552 332.394 156.352 113.267 341.663 150.249 114.671 
342.607 149.786 115.096 342.991 150.265 115.129 338.75 151.431 114.01 
341.124 151.971 114.162 340.628 152.661 114.214 327.484 155.497 114.276 
328.275 155.194 114.427 331.609 154.257 114.137 337.891 154.186 113.354 
339.507 153.51 114.041 324.992 156.331 114.881 332.225 157.073 113.908 
343.312 148.543 116.011 345.354 148.253 116.652 344.541 148.985 116.098 
344.878 148.907 116.294 345.17 148.644 116.485 343.857 149.943 115.73 
342.441 151.372 115.045 332.919 153.725 114.289 328.197 155.155 114.86 
338.994 154.548 114.859 323.82 156.747 115.708 324.004 157.143 115.079 
324.754 158.181 115.385 327.374 158.896 115.611 345.251 147.641 116.834 
344.904 147.685 116.741 345.617 147.482 117.103 342.098 148.815 116.117 
345.121 148.925 116.507 344.84 149.84 116.673 342.477 151.959 115.61 
340.719 153.481 115.319 325.316 156.03 115.388 323.069 157.089 116.457 
323.726 156.679 116.101 323.342 157.284 115.847 323.893 157.78 115.494 
344.232 147.622 116.806 346.133 147.781 117.337 323.178 156.958 116.538 
325.471 155.943 116.283 338.983 155.487 116.718 323.055 157.892 116.295 
348.053 145.235 119.298 348.129 144.817 119.522 348.873 144.752 119.884 
348.636 145.516 119.52 343.801 147.261 117.473 347.434 147.492 118.647 
339.766 149.317 117.652 322.098 157.848 117.609 322.147 157.739 117.746 
322.026 157.968 117.858 323.403 156.859 117.697 331.368 159.724 117.748 
348.714 144.446 119.944 345.263 150.756 118.281 322.122 157.731 118.203 
324.824 160.449 118.334 349.044 143.34 120.906 349.487 143.494 121.035 
347.319 144.452 119.858 349.565 144.389 120.7 321.988 157.919 118.557 
321.993 158.008 119.084 321.909 158.152 118.714 324.566 156.494 119.807 
321.728 158.875 120.057 322.23 159.695 119.526 349.477 142.744 121.655 
349.958 144.487 121.438 337.996 149.702 119.826 332.026 153.352 119.706 
321.851 158.361 119.313 321.801 158.486 120.819 348.691 142.895 121.424 
341.176 147.15 120.77 347.973 148.602 121.162 341.014 155.018 120.833 
321.344 159.331 121.635 321.929 158.316 121.666 321.481 159.499 121.016 
350.348 142.561 122.989 350.211 145.095 122.703 349.672 146.345 122.624 
321.227 159.337 122.611 321.486 160.573 122.581 321.988 160.614 121.564 
349.829 141.548 123.408 350.185 141.863 123.436 350.455 141.902 123.882 
328.856 162.408 123.234 349.418 141.213 123.829 348.742 141.043 124.185 
344.658 152.117 123.648 321.293 159.093 124.527 321.355 161.204 123.991 
325.757 162.888 124.458 350.043 140.291 125.356 350.138 140.306 125.459 
350.31 140.549 125.285 350.364 140.732 125.013 350.441 140.795 125.126 
350.544 141.15 125.124 345.84 141.989 124.999 324.321 156.619 124.75 
322.718 162.218 125.005 330.228 162.425 125.028 327.196 163.18 125.496 
349.967 140.212 125.545 349.978 140.161 125.735 349.835 140.169 125.77 
350.453 140.736 125.379 348.304 148.235 125.487 321.543 158.811 125.605 
321.027 159.606 125.88 320.76 160.437 126.437 320.711 160.794 126.516 
320.804 161.019 126.283 321.093 161.365 125.838 321.311 161.45 125.384 
321.083 161.492 126.385 324.65 162.823 124.886 348.998 140.222 126.732 
350.321 140.482 125.894 350.304 140.567 126.238 345.356 141.706 126.627 
350.639 142.49 126.429 350.432 144.282 126.266 350.317 144.21 126.709 
348.703 147.288 126.658 346.513 149.757 126.472 320.683 160.602 127.248 
320.695 160.99 126.967 320.764 161.277 127.414 349.43 140.215 127.007 
349.733 140.23 126.751 347.677 140.56 127.245 350.43 141.06 126.658 
350.399 143.338 126.992 350.334 143.828 126.953 320.643 160.825 127.206 
320.654 161.179 128.376 320.72 161.413 128.306 320.832 161.51 127.896 
321.758 162.172 128.083 348.351 140.358 127.709 349.098 140.302 127.7 
349.406 140.298 127.444 349.769 140.332 127.108 349.928 140.494 127.278 
347.21 140.747 128.053 350.104 140.643 127.151 350.288 141.808 127.555 
350.137 141.527 127.798 340.294 144.475 128.707 350.085 143.722 127.485 
348.415 146.366 128.145 346.946 147.927 128.502 321.095 161.864 128.476 
322.299 162.366 129.069 347.316 140.926 128.803 347.784 140.785 128.73 
348.691 140.525 128.385 345.039 142.046 129.41 349.386 143.715 128.598 
321.08 161.831 129.255 321.435 162.049 129.315 348.924 140.912 128.802 
348.72 140.763 128.848 346.086 141.749 129.555 349.634 141.313 128.562 
349.135 141.484 129.091 342.437 143.492 130.188 341.98 143.635 129.983 
348.79 144.149 129.044 345.105 147.645 130.54 334.102 160.665 130.61 
320.762 161.286 129.687 321.125 161.728 129.696 321.438 161.805 130.09 
322.185 162.203 130.027 327.995 163.378 130.876 348.63 140.728 128.855 
349.501 141.384 128.78 349.441 141.585 128.898 344.854 143.148 130.638 
341.288 144.444 130.919 343.556 143.904 131.006 344.861 143.717 130.882 
344.26 144.299 131.177 345.08 143.316 130.761 345.288 143.366 130.767 
344.329 144.741 131.277 347.776 143.506 129.898 344.682 146.249 131.164 
332.039 150.315 132.229 324.729 156.051 131.635 321.364 160.361 130.538 
320.919 161.138 130.124 320.824 161.247 129.952 320.848 161.369 129.893 
321.001 161.485 129.992 345.771 142.636 130.366 342.269 144.49 131.311 
342.476 144.873 131.641 343.099 145.282 131.762 340.105 146.07 132.635 
343.131 145.694 131.868 342.812 148.046 132.013 338.496 155.876 132.343 
322.498 160.93 132.299 323.498 161.271 133.43 321.143 161.381 130.304 
341.395 145.479 132.078 339.434 146.094 132.386 341.412 146.19 132.562 
341.718 146.331 132.518 342.947 146.146 132.002 341.04 147.064 132.928 
342.126 147.263 132.454 341.551 147.131 132.751 340.796 148.424 133.178 
326.632 154.757 134.249 339.642 146.039 132.479 330.133 152.305 134.85 
323.365 158.594 133.872 335.231 158.773 134.387 325.094 161.498 135.012 
328.779 162.75 134.007 339.195 148.942 133.97 333.523 150.712 135.096 
328.49 153.553 135.374 337.735 154.594 135.061 325.508 156.161 135.18 
324.457 157.209 134.671 323.404 158.987 134.248 334.713 158.603 135.729 
323.49 159.413 134.447 323.322 159.878 134.073 331.806 161.306 135.395 
330.373 161.833 135.795 326.832 162.035 135.889 334.843 150.533 135.339 
337.254 150.718 135.448 337.376 153.447 135.709 325.626 156.897 136.518 
324.075 158.425 135.296 323.851 158.886 135.086 323.862 159.298 135.077 
326.559 161.372 136.975 327.51 162.075 136.213 328.075 162.124 136.243 
335.291 152.807 136.786 336.19 153.385 136.525 336.189 154.985 136.494 
325.407 160.188 136.834 332.367 160.34 136.758 329.189 161.878 136.619 
327.513 161.705 137.097 337.022 151.803 135.96 330.348 153.693 137.392 
330.745 160.932 137.462 329.17 161.277 137.822 331.17 153.871 137.875 
332.02 154.388 138.419 333.745 155.54 138.438 327.281 156.75 138.913 
333.887 156.074 138.51 334.413 156.039 137.989 333.866 156.486 138.437 
333.979 156.209 138.472 332.812 157.707 138.853 325.951 159.461 137.917 
330.946 159.811 138.635 327.419 161.081 138.421 327.521 161.233 138.224 
330.005 155.306 139.122 328.407 155.888 139.061 334.014 156.108 138.461 
332.409 156.912 139.34 327.016 160.285 138.792 327.14 160.55 138.785 
327.13 160.705 138.674 327.897 160.839 138.718 330.41 155.848 139.697 
330.827 156.126 139.839 328.708 156.573 139.684 327.669 157.638 139.612 
327.33 157.719 139.417 330.599 157.762 139.872 326.937 158.5 139.277 
329.721 159.14 139.628 328.095 159.995 139.328 330.557 156.066 139.849 
329.124 156.862 139.898 327.85 158.357 139.722 327.004 160.013 143.009 
327.004 160.013 143.009 327.004 160.013 143.009 327.004 160.013 143.009 
327.004 160.013 143.009 327.004 160.013 143.009 329.01 157.226 316.375 
329.681 157.073 316.362 327.906 157.806 316.614 329.929 157.923 316.259 
328.674 158.631 316.328 330.453 155.145 317.286 330.891 155.176 317.223 
331.222 155.075 317.321 332.798 155.856 317.368 329.307 156.547 316.668 
330.682 156.984 316.577 327.018 158.201 317.37 327.649 158.915 316.911 
328.114 158.942 316.628 330.19 158.452 316.489 327.119 159.5 317.561 
329.758 159.107 316.629 327.39 159.725 317.456 328.206 159.69 317.002 
329.027 159.578 316.769 328.934 159.843 316.981 330.325 156.108 316.841 
331.693 156.648 316.996 333.031 156.25 317.514 331.935 158.597 317.474 
332.461 158.013 317.586 334.204 155.224 318.335 327.572 155.873 318.146 
330.36 160.509 318.208 331.22 153.175 319.181 325.085 157.875 319.87 
325.88 160.126 319.242 332.343 159.159 318.239 334.303 152.14 319.801 
334.974 151.223 320.48 335.791 152.646 319.879 336.156 153.791 319.852 
324.43 158.609 320.619 324.956 159.029 319.826 324.662 159.29 320.285 
325.098 159.529 319.805 337.367 149.547 321.52 339.091 151.053 321.7 
324.417 158.259 320.796 329.072 161.912 320.174 327.395 162.35 321.289 
336.931 149.152 321.885 339.72 149.795 322.419 337.158 150.164 321.245 
331.974 151.318 321.36 328.482 153.52 321.13 324.515 160.104 320.864 
[...]
POINT_DATA 676
SCALARS scalars float
LOOKUP_TABLE default
1 1 1 1 1 1 1 1 1 
1 1 1 1 1 1 1 1 1 
1 1 1 1 1 1 1 1 1 
1 1 1 1 1 1 1 1 1 
1 1 1 1 1 1 1 1 1 
1 1 1 1 1 1 1 1 1 
1 1 1 1 1 1 1 1 1 
1 1 1 1 1 1 1 1 1 
1 1 1 1 1 1 1 1 1 
1 1 1 1 1 1 1 1 1 
1 1 1 1 1 1 1 1 1 
1 1 1 1 1 1 1 1 1 
1 1 1 1 1 1 1 1 1 
1 1 1 1 1 1 1 1 1 
1 1 1 1 1 1 1 1 1 
1 1 1 1 1 1 1 1 1 
1 1 1 1 1 1 1 1 1 
1 1 1 1 1 1 1 1 1 
1 1 1 1 1 1 1 1 1 
1 1 1 1 1 1 1 1 1 
1 1 1 1 1 1 1 1 1 
1 1 1 1 1 1 1 1 1 
1 1 1 1 1 1 1 1 1 
1 1 1 1 1 1 1 1 1 
1 1 1 1 1 1 1 1 1 
1 1 1 1 1 1 1 1 1 
1 1 1 1 1 1 1 1 1 
1 1 1 1 1 1 1 1 1 
1 1 1 1 1 1 1 1 1 
1 1 1 1 1 1 1 1 1 
1 1 1 1 1 1 1 1 1 
1 1 1 1 1 1 1 1 1 
1 1 1 1 1 1 1 1 1 
1 1 1 1 1 1 1 1 1 
1 1 1 1 1 1 1 1 1 
1 1 1 1 1 1 1 1 1 
1 1 1 1 1 1 1 1 1 
1 1 1 1 1 1 1 1 1 
1 1 1 1 1 1 1 1 1 
1 1 1 1 1 1 1 1 1 
1 1 1 1 1 1 1 1 1 
1 1 1 1 1 1 1 1 1 
1 1 1 1 1 1 1 1 1 
1 1 1 1 1 1 1 1 1 
1 1 1 1 1 1 1 1 1 
1 1 1 1 1 1 1 1 1 
1 1 1 1 1 1 1 1 1 
1 1 1 1 1 1 1 1 1 
1 1 1 1 1 1 1 1 1 
1 1 1 1 1 1 1 1 1 
1 1 1 1 1 1 1 1 1 
1 1 1 1 1 1 1 1 1 
1 1 1 1 1 1 1 1 1 
1 1 1 1 1 1 1 1 1 
1 1 1 1 1 1 1 1 1 
1 1 1 1 1 1 1 1 1 
1 1 1 1 1 1 1 1 1 
1 1 1 1 1 1 1 1 1 
1 1 1 1 1 1 1 1 1 
1 1 1 1 1 1 1 1 1 
1 1 1 1 1 1 1 1 1 
1 1 1 1 1 1 1 1 1 
1 1 1 1 1 1 1 1 1 
1 1 1 1 1 1 1 1 1 
1 1 1 1 1 1 1 1 1 
1 1 1 1 1 1 1 1 1 
1 1 1 1 1 1 1 1 1 
1 1 1 1 1 1 1 1 1 
1 1 1 1 1 1 1 1 1 
1 1 1 1 1 1 1 1 1 
1 1 1 1 1 1 1 1 1 
1 1 1 1 1 1 1 1 1 
1 1 1 1 1 1 1 1 1 
1 1 1 1 1 1 1 1 1 
1 1 1 1 1 1 1 1 1 
1 
NORMALS Normals float
-0.114372 -0.434505 -0.893378 0.153636 -0.184916 -0.970671 -0.0475267 -0.51749 -0.854368 
-0.17322 -0.51193 -0.841381 -0.261188 -0.629868 -0.731469 -0.110536 -0.137248 -0.98435 
0.00891886 -0.169576 -0.985477 -0.110702 0.0529972 -0.99244 -0.0109956 -0.292179 -0.9563 
0.0172012 0.201381 -0.979362 0.140899 -0.0119553 -0.989952 0.203072 0.137205 -0.969503 
0.00492217 -0.342902 -0.939358 0.353989 -0.128061 -0.92644 -0.0322994 -0.468 -0.883138 
0.164955 0.00335655 -0.986295 -0.222646 -0.690644 -0.688069 -0.144903 -0.687045 -0.71202 
0.402921 0.281195 -0.870967 0.284696 0.28908 -0.913992 0.374613 0.238229 -0.896054 
0.246953 0.16965 -0.954061 -0.286257 -0.37899 -0.880013 -0.274033 -0.00890545 -0.961679 
-0.244437 -0.50226 -0.829449 -0.0232743 -0.124553 -0.99194 0.221851 0.421985 -0.87904 
-0.198903 0.0698607 -0.977526 0.0654626 0.445104 -0.893083 0.162435 0.467689 -0.868839 
0.209993 -0.429998 -0.878069 -0.103344 -0.664571 -0.740044 0.440614 0.222932 -0.869575 
-0.321898 -0.859279 -0.39752 -0.292811 -0.802223 -0.520288 0.489678 0.461401 -0.739814 
-0.30712 -0.731093 -0.609246 -0.209446 -0.861276 -0.462964 0.42972 0.35151 -0.831734 
-0.387344 -0.496513 -0.776814 -0.340767 -0.891429 -0.298718 0.346792 0.632922 -0.692203 
-0.412521 0.0218945 -0.910685 -0.278091 0.0237616 -0.960261 -0.185051 0.402459 -0.89654 
-0.0445193 0.622075 -0.781691 0.471393 0.637496 -0.609415 0.103898 -0.567817 -0.816572 
0.202011 -0.445074 -0.872411 0.597089 0.133678 -0.790959 -0.279176 -0.765516 -0.579695 
0.613286 0.385475 -0.689412 0.576099 0.53232 -0.620279 -0.390049 -0.885059 -0.254033 
-0.191736 -0.936907 -0.292304 -0.286978 -0.758368 -0.585254 0.52322 0.472022 -0.709532 
0.513811 0.609765 -0.603477 -0.524186 -0.758596 -0.38699 0.337323 0.703685 -0.625332 
-0.210435 -0.746692 -0.631005 0.574025 -0.1175 -0.810364 0.531898 0.101633 -0.840687 
0.488137 0.00708853 -0.872738 0.663894 0.0594843 -0.745457 0.590122 0.122535 -0.797961 
0.699073 0.387557 -0.600914 -0.287014 -0.883587 -0.369997 -0.295197 -0.955337 -0.0137652 
0.497099 0.696411 -0.517594 -0.586417 -0.701885 -0.404317 -0.580257 0.121852 -0.805266 
-0.284311 0.65353 -0.701474 -0.124058 0.741311 -0.659597 0.336225 -0.407444 -0.849083 
0.0683357 -0.695177 -0.715583 0.44747 -0.407223 -0.796204 -0.26198 -0.828492 -0.494941 
0.713259 0.290588 -0.637825 0.673043 0.425308 -0.605083 0.685093 0.568931 -0.454933 
0.60436 0.664726 -0.439191 -0.421357 -0.899593 -0.114847 -0.727319 -0.649762 -0.220943 
-0.5434 -0.816589 -0.194677 -0.743526 -0.372256 -0.555513 -0.519626 0.522346 -0.676124 
0.00224041 -0.720231 -0.693731 0.619982 -0.164389 -0.767202 -0.63829 -0.741164 -0.207997 
-0.308827 -0.951074 -0.00920706 0.53065 0.779511 -0.332827 -0.677158 0.448485 -0.583368 
0.245796 -0.475317 -0.844783 0.241802 -0.462886 -0.852801 0.642755 -0.150815 -0.751079 
0.648522 -0.101097 -0.754453 -0.272756 -0.812216 -0.515665 0.790298 0.21033 -0.575491 
-0.364937 -0.8792 -0.306313 -0.895585 -0.179114 -0.407242 -0.756924 -0.649126 -0.075508 
-0.971934 0.046278 -0.230655 -0.532034 -0.8445 0.0613192 0.351851 0.837389 -0.418308 
0.357825 -0.525142 -0.772131 0.727066 0.552987 -0.406916 -0.800521 -0.598959 -0.0203551 
-0.157537 0.864948 -0.476494 0.204421 -0.707563 -0.676437 0.607239 -0.488764 -0.626395 
-0.173506 -0.741338 -0.648316 0.766915 -0.155338 -0.622664 -0.904202 -0.42575 -0.0339917 
-0.767539 -0.633455 0.0980755 -0.973147 -0.214852 -0.0826094 -0.321358 -0.944689 0.065514 
-0.984873 -0.092814 -0.146327 -0.529774 0.707463 -0.467799 0.317473 -0.708925 -0.62979 
0.890878 0.166729 -0.422536 -0.468358 -0.838839 -0.27747 -0.421509 -0.896753 -0.134778 
-0.982658 -0.184959 -0.0131744 -0.823232 -0.567315 -0.0210362 0.0308011 -0.790255 -0.612004 
-0.460821 -0.797715 -0.388967 0.78982 0.575343 -0.212521 0.597737 0.798721 -0.0689668 
-0.966765 -0.230609 -0.110382 -0.756449 -0.654034 0.00497083 -0.922169 0.289306 -0.256721 
0.873283 -0.279838 -0.398832 0.958352 0.280322 -0.0546053 0.855236 0.505921 -0.112316 
-0.901138 -0.430095 -0.0544851 -0.772521 0.562846 -0.293965 -0.578056 0.732279 -0.360025 
0.380482 -0.717954 -0.582902 0.662041 -0.575915 -0.479609 0.888677 -0.348929 -0.297493 
0.134212 0.946122 -0.294687 0.0735251 -0.797637 -0.59864 -0.194265 -0.830317 -0.522335 
0.65409 0.747077 0.1185 -0.856444 -0.514835 -0.0380709 -0.788729 0.561834 -0.249496 
-0.121648 0.948829 -0.29142 0.0773016 -0.887519 -0.454241 0.593037 -0.788018 -0.165333 
0.764402 -0.625789 -0.15517 0.667803 -0.602949 -0.436453 0.875204 -0.419659 -0.240633 
0.977665 -0.20174 -0.0589224 -0.399779 -0.861252 -0.313724 -0.582214 -0.812915 -0.0139766 
-0.35975 0.887957 -0.286553 0.35203 0.924026 -0.149167 0.0646817 0.980825 -0.183844 
-0.0105997 -0.93735 -0.348229 0.420694 -0.90684 0.025652 -0.317713 -0.900148 -0.29798 
0.921673 -0.386113 -0.0378883 0.737331 0.630642 0.242144 -0.705979 -0.698991 0.114041 
-0.849 -0.492673 0.190975 -0.982992 -0.179067 -0.0407705 -0.98396 0.0232734 -0.176865 
-0.919715 0.319435 -0.228224 -0.820989 0.518576 -0.238863 -0.69411 0.688504 -0.210174 
-0.661078 0.742495 -0.108061 -0.207397 0.975216 -0.0770682 -0.147491 -0.988505 -0.033233 
0.864193 -0.497425 0.0757544 0.805997 -0.564798 0.177119 -0.504611 -0.854578 -0.122732 
0.973713 0.0847593 0.211422 0.864266 0.451477 0.221838 0.877395 0.376386 0.297508 
0.790606 0.519558 0.324038 0.605325 0.70289 0.373534 -0.946501 -0.322587 -0.00857381 
-0.977554 0.16593 -0.129829 -0.835332 0.537972 -0.113166 0.101832 -0.984029 0.146003 
0.371672 -0.917811 0.139583 -0.335356 -0.941793 -0.0237077 0.920228 -0.378438 0.0998241 
0.927602 0.059881 0.368738 0.862159 0.310336 0.400467 -0.991425 0.100183 -0.0839057 
-0.99563 0.0910954 -0.0205767 -0.866274 0.499155 0.0203543 -0.823038 0.544118 -0.162922 
-0.46099 0.880068 -0.113881 -0.164442 -0.978086 0.127701 0.0881826 -0.966344 0.241668 
0.236833 -0.918967 0.315294 0.397019 -0.883491 0.248635 0.659719 -0.69843 0.277428 
-0.370113 -0.926495 0.0679947 0.838634 -0.502279 0.210736 0.887078 0.0471679 0.459204 
0.847521 -0.258321 0.463658 -0.487114 -0.86764 -0.0996004 0.835747 0.193581 0.513862 
0.624448 0.451561 0.637305 0.643309 0.589892 0.488038 -0.631728 0.772154 -0.0685336 
-0.291025 0.956459 0.0221366 -0.296264 -0.853051 0.429571 -0.188174 -0.904122 0.383607 
0.270152 -0.871025 0.410285 -0.357591 -0.852121 0.382123 0.748731 0.190824 0.634814 
-0.611296 0.791308 0.0121814 -0.458249 0.883761 0.0947344 0.486219 -0.53217 0.693099 
0.39411 -0.525536 0.753982 -0.200781 -0.756845 0.621991 0.780855 -0.233509 0.57943 
0.490636 -0.210461 0.845567 -0.301772 -0.871483 0.386589 -0.362538 -0.900151 0.24144 
0.696372 0.429987 0.57461 0.616054 0.461835 0.638111 0.602718 0.789736 0.11423 
-0.982916 -0.115862 0.14301 -0.662907 0.696116 0.275639 -0.482278 0.803059 0.350005 
-0.344819 0.897743 0.274149 -0.0150378 0.99833 0.0557827 0.129961 -0.601811 0.787994 
0.633473 -0.393641 0.666152 0.7339 -0.0309032 0.678554 -0.0859249 -0.591432 0.801764 
-0.321933 -0.790303 0.521326 0.0233057 -0.487887 0.872596 0.0947125 -0.251873 0.963115 
0.294575 -0.296793 0.908372 -0.00753054 -0.470899 0.882155 0.176044 -0.329707 0.927525 
0.399695 -0.245992 0.883024 0.449512 0.0527536 0.891715 0.503562 0.0300952 0.863435 
-0.511343 -0.847621 0.141658 -0.748153 -0.66164 0.049995 -0.912016 -0.296197 0.283716 
-0.914633 -0.0661289 0.39884 -0.920485 0.0698502 0.384483 -0.780429 0.529107 0.333131 
-0.672191 0.573023 0.468833 0.00369862 -0.578092 0.815964 -0.139668 -0.695667 0.704656 
0.0267174 -0.605948 0.795055 0.256031 -0.408673 0.876034 -0.0580418 -0.424028 0.903787 
0.335314 -0.210653 0.918254 0.485879 0.300856 0.820614 0.694763 0.639012 0.330102 
-0.727684 0.404547 0.553912 -0.624084 0.616762 0.479712 -0.658113 0.561015 0.502145 
0.0702186 -0.624546 0.777825 -0.358961 -0.587466 0.72528 0.229082 -0.38894 0.892327 
0.320366 -0.246916 0.914548 0.330226 -0.0694235 0.941345 0.237454 0.0383387 0.970642 
0.395604 0.192173 0.898091 0.329636 0.0738855 0.941213 0.442761 0.00345525 0.896633 
-0.650323 -0.731083 0.206393 -0.356212 -0.517494 0.778019 -0.431051 -0.829283 0.355648 
-0.904272 -0.398429 0.153447 0.741634 0.597287 0.30533 -0.59449 0.621748 0.509913 
0.232134 0.960009 0.156511 0.0904791 -0.474276 0.875715 -0.248217 -0.783597 0.569529 
-0.539949 -0.740693 0.399786 0.708167 0.35331 0.611286 -0.710359 -0.688482 0.146232 
-0.818494 -0.563609 0.111408 -0.968147 -0.027352 0.248886 0.720526 0.481734 0.498772 
-0.913564 0.122874 0.387688 -0.827825 0.20553 0.52198 0.521635 0.820048 0.23541 
0.30307 0.901796 0.308079 -0.339083 0.889084 0.307493 -0.128965 -0.68804 0.714121 
0.32905 -0.382541 0.863359 0.642812 0.0502311 0.764375 -0.709584 -0.543251 0.448743 
-0.812697 -0.256256 0.523313 -0.860702 -0.182962 0.475096 -0.789123 0.122264 0.601944 
-0.578252 0.679569 0.451453 -0.163774 0.894282 0.416459 0.00295195 0.948202 0.317655 
0.176703 -0.404934 0.897109 0.493734 0.0366109 0.868842 0.663299 0.168879 0.72905 
-0.717865 0.455454 0.526528 0.470293 0.814216 0.340407 0.147524 0.877919 0.455517 
-0.123778 0.900333 0.417228 0.513439 -0.159449 0.843182 -0.351936 -0.679998 0.643229 
0.317348 0.808485 0.495623 0.180347 0.923181 0.339429 -0.202075 -0.668671 0.715573 
-0.0108002 -0.548086 0.836352 0.462262 -0.269925 0.844662 -0.639408 -0.477988 0.602233 
0.375426 -0.0161981 0.926711 0.741363 0.142155 0.655876 0.68692 0.372182 0.624197 
0.617658 0.238564 0.74939 0.607374 0.323129 0.72573 -0.763159 0.236441 0.601401 
0.432553 0.582294 0.688354 -0.291256 0.707976 0.643382 -0.270744 0.873183 0.405276 
-0.173064 -0.71279 0.67969 -0.308061 -0.673566 0.671869 0.738759 0.0270057 0.673429 
0.525581 0.0781884 0.847143 -0.624507 0.316436 0.714044 -0.44342 0.401568 0.801325 
-0.548455 0.638544 0.53987 0.14514 0.746168 0.649744 -0.0046194 -0.649329 0.760494 
0.209764 -0.371018 0.904624 -0.326661 -0.406045 0.853475 -0.415168 -0.198802 0.887757 
-0.55471 -0.2452 0.795094 0.254858 0.225749 0.940258 -0.702462 -0.0709494 0.708176 
0.125225 0.358931 0.924926 -0.050447 0.480604 0.875486 -0.0056199 -0.384384 0.923156 
-0.106242 -0.210496 0.971805 -0.312089 0.0563145 0.948382 0.171783 -0.854697 -0.489881 
-0.670207 0.395566 -0.627974 0.478624 0.617613 -0.624078 0.670207 -0.395566 0.627974 
-0.171783 0.854697 0.489881 -0.478624 -0.617613 0.624078 -0.23718 -0.297632 -0.924749 
0.0403708 -0.328896 -0.943503 -0.558342 -0.0954598 -0.824101 0.198749 0.0796871 -0.976805 
-0.133626 0.196207 -0.971415 -0.119479 -0.54403 -0.830516 0.00920762 -0.389198 -0.921108 
0.118443 -0.534925 -0.836556 0.367536 -0.107168 -0.923814 -0.128407 -0.53462 -0.83528 
0.264734 -0.19991 -0.943373 -0.727736 -0.111646 -0.67671 -0.572246 0.259058 -0.778089 
-0.374635 0.321946 -0.869482 0.362683 0.305131 -0.880543 -0.700608 0.201251 -0.684578 
0.253785 0.48797 -0.835152 -0.35224 0.716882 -0.60167 -0.300867 0.575806 -0.760215 
-0.0325285 0.527308 -0.849051 0.141199 0.753792 -0.641763 -0.010402 -0.472748 -0.881136 
0.252514 -0.10828 -0.961515 0.658643 0.197325 -0.726121 0.46436 0.36465 -0.807094 
0.555784 0.255251 -0.791171 0.541605 -0.129634 -0.830578 -0.528475 -0.596424 -0.604146 
0.210474 0.818749 -0.534182 -0.234331 -0.734 -0.637442 -0.747149 -0.241343 -0.619291 
-0.632812 0.542442 -0.552545 0.666415 0.474611 -0.575009 0.142247 -0.456601 -0.878226 
-0.102584 -0.653763 -0.749714 0.234353 -0.289604 -0.928013 0.490842 0.0053815 -0.871232 
-0.829485 -0.046664 -0.556576 -0.617967 0.0150102 -0.786061 -0.771623 0.0932457 -0.629208 
-0.651269 0.236725 -0.720979 0.173737 -0.417366 -0.891976 0.528376 -0.0850366 -0.844741 
-0.747051 -0.48499 -0.454643 0.101998 0.90842 -0.405425 -0.0726896 0.924586 -0.373975 
-0.241421 -0.663676 -0.707991 0.588929 -0.142777 -0.795473 0.112886 -0.418873 -0.901001 
-0.490636 -0.818191 -0.299732 -0.540749 -0.769375 -0.340077 -0.833219 0.278536 -0.477664 
0.383007 0.867306 -0.317939 -0.376486 0.856906 -0.352094 -0.0559111 0.955711 -0.288949 
0.727111 0.143581 -0.671338 0.17758 0.970606 -0.162448 0.361325 -0.209023 -0.90871 
0.714944 0.143966 -0.684199 -0.703545 0.526951 -0.476808 0.216377 -0.350377 -0.911272 
-0.0529784 -0.676629 -0.734416 -0.302681 -0.500696 -0.810979 0.126991 -0.250421 -0.959772 
-0.030907 -0.0810589 -0.99623 0.458508 -0.0452534 -0.887538 -0.15218 -0.731345 -0.664812 
0.0381651 -0.505067 -0.862236 0.438479 -0.0406976 -0.89782 0.520646 0.252107 -0.815702 
0.831785 0.144918 -0.535847 -0.658145 -0.745883 -0.102485 0.768815 0.390883 -0.506096 
0.640711 0.756975 -0.128367 -0.846221 0.179673 -0.501624 -0.537163 0.484153 -0.690689 
-0.599053 0.716856 -0.356725 -0.323381 0.928029 -0.184899 0.159367 -0.656835 -0.737001 
-0.139747 -0.683542 -0.716409 -0.105235 -0.541125 -0.834332 0.275128 -0.366344 -0.888874 
0.146952 -0.489119 -0.859748 0.102782 -0.376904 -0.920532 0.0310474 -0.131212 -0.990868 
-0.36473 -0.826796 -0.42823 0.399979 0.104714 -0.910523 -0.624161 -0.779866 -0.0472473 
0.546362 0.399081 -0.736358 -0.79859 0.0687355 -0.597938 -0.891598 -0.354983 -0.28114 
-0.904877 -0.310432 -0.291256 -0.974649 0.0427158 -0.219624 -0.511488 0.768228 -0.384976 
0.0346061 0.997236 -0.065748 0.575739 -0.20778 -0.790792 0.148207 -0.696571 -0.702014 
0.301813 -0.350351 -0.886658 -0.00775602 -0.705156 -0.709009 0.294695 -0.362917 -0.883994 
0.348094 -0.305262 -0.886367 0.534276 -0.25254 -0.806705 0.584645 0.0401237 -0.810296 
-0.559224 -0.824956 0.0819475 -0.254381 -0.756632 -0.602327 0.597021 0.300201 -0.743939 
0.615334 0.467505 -0.634668 -0.980388 -0.0126975 -0.19667 -0.892653 0.443066 -0.0828426 
-0.606812 0.777883 -0.163332 -0.296756 -0.899023 -0.322014 -0.0365066 -0.690583 -0.722332 
0.443591 -0.249157 -0.8609 0.837943 -0.326008 -0.437687 0.607126 -0.0595943 -0.792368 
0.797756 0.21133 -0.564734 -0.437936 -0.890791 -0.121255 0.750345 0.199338 -0.630276 
0.645909 0.427118 -0.632749 0.294715 0.954179 -0.0518227 -0.197912 -0.817534 -0.540805 
-0.30199 -0.916327 -0.262958 0.176163 -0.802062 -0.570669 0.252187 -0.806488 -0.53477 
0.604605 -0.669534 -0.431482 -0.338976 -0.940051 -0.0374147 0.905247 -0.378209 -0.193614 
-0.403109 -0.890468 -0.211118 0.83527 0.168043 -0.523531 0.680551 0.497743 -0.537683 
-0.982541 0.185638 -0.0123538 -0.877992 0.476338 0.0472469 0.346184 -0.814311 -0.46589 
0.0437694 -0.998859 -0.019119 -0.232796 -0.911346 -0.339491 0.785789 -0.577065 -0.222558 
0.825549 -0.501308 -0.259151 0.802468 -0.591331 -0.079835 -0.387316 -0.921705 -0.0211057 
0.981184 -0.126328 -0.146009 -0.484072 -0.870876 0.0851428 0.879403 0.376758 -0.29104 
0.691996 0.661099 -0.289982 -0.967435 -0.238341 -0.085226 -0.600664 0.793503 0.0977487 
0.513567 0.858034 0.00522565 0.617924 -0.752579 0.227583 -0.484188 -0.798702 0.357263 
0.951122 0.232252 -0.203536 -0.572384 -0.788179 0.226165 0.813466 0.524581 -0.251173 
-0.299964 -0.949231 0.0947794 -0.117306 -0.953905 0.276234 0.93214 -0.354602 0.0732998 
-0.80955 -0.576236 -0.112161 0.360699 -0.825707 0.43371 0.632031 -0.689106 0.354498 
-0.218719 -0.8855 0.409941 -0.232699 -0.849469 0.473554 0.691229 0.681252 -0.241035 
-0.292789 0.944466 0.149195 0.0517689 0.986025 0.158353 0.200003 -0.883551 0.423481 
0.347775 -0.851026 0.393456 0.594158 -0.709072 0.379728 0.212962 -0.811198 0.544614 
0.779513 -0.516981 0.353682 -0.227638 -0.807571 0.544068 0.996087 -0.041836 0.0778427 
-0.636258 0.730388 0.248413 -0.898623 -0.435484 0.0532054 -0.769459 -0.638083 0.0279866 
0.313929 -0.794818 0.51934 0.730009 -0.583963 0.355069 0.162115 -0.783004 0.600519 
0.932002 -0.233133 0.277527 0.882604 0.454457 0.120334 0.664148 0.746979 0.0304941 
-0.697682 -0.709518 -0.0991175 0.482548 0.867117 0.123515 0.676232 -0.561294 0.477137 
0.953527 0.225709 0.199603 -0.329161 -0.770955 0.545236 0.910483 0.248633 0.330457 
-0.977146 0.178792 0.114973 0.643644 -0.400159 0.652376 0.844348 -0.289146 0.451077 
-0.0606738 -0.742861 0.66669 0.9092 0.0877014 0.407019 0.715887 0.677673 0.168121 
0.177576 -0.830349 -0.528192 -0.607312 -0.694894 -0.385091 -0.989428 -0.0400886 0.139374 
-0.83322 0.478035 0.277898 -0.523302 0.751439 0.401864 0.828994 0.299894 0.472052 
0.817987 0.376585 0.434834 -0.427556 -0.877638 0.216677 0.648901 0.739057 0.180892 
-0.646806 -0.742333 -0.174884 0.451682 0.855249 0.254034 -0.920355 0.232097 0.314766 
-0.0426741 0.914142 0.403141 -0.0951451 -0.706545 0.701243 0.346204 -0.506685 0.789566 
0.739579 -0.0343515 0.672192 0.163079 -0.518265 0.839527 0.70202 0.37756 0.603834 
0.789645 0.468347 0.396374 -0.877425 -0.468278 0.104125 -0.979306 -0.201348 0.0204749 
-0.895253 0.235736 0.378087 0.251606 0.877257 0.408796 0.41038 -0.386288 0.826057 
0.719678 0.192259 0.667158 0.552303 0.759557 0.343562 -0.606736 -0.774719 -0.177993 
-0.795684 -0.545396 0.263497 -0.888342 -0.254876 0.381952 -0.466746 -0.872283 0.14584 
-0.376775 -0.924764 -0.0534037 -0.315127 -0.942399 -0.112158 -0.464529 -0.881172 0.088024 
-0.793061 0.362992 0.489173 -0.326602 0.775613 0.540144 -0.182192 0.798252 0.574108 
0.555783 -0.060443 0.829127 0.68343 0.147503 0.714959 -0.604552 -0.463188 0.648054 
-0.458755 -0.881143 0.114585 -0.511097 -0.846638 0.148271 -0.258626 -0.965384 -0.0338449 
-0.889701 -0.0613622 0.452402 -0.756212 -0.383123 0.530434 0.443556 0.793232 0.417182 
-0.708117 0.351335 0.612482 -0.470169 0.614387 0.633617 -0.025046 -0.650603 0.759005 
0.0817141 -0.663847 0.743391 0.273361 -0.586308 0.762572 -0.150211 -0.698633 0.699535 
0.563332 0.139309 0.814401 0.645132 0.44086 0.624057 0.606687 0.638633 0.473371 
-0.452441 -0.829476 0.327515 -0.590283 -0.765221 0.256911 -0.233636 -0.971937 -0.0274384 
-0.781381 0.0135885 0.623907 -0.669787 0.28637 0.685111 -0.327481 0.591572 0.736749 
0.293595 0.738622 0.606828 0.262745 -0.405554 0.875495 0.172122 -0.370279 0.912835 
0.118397 -0.559255 0.820497 0.243972 -0.340771 0.907939 0.228296 -0.422213 0.877278 
0.54152 -0.0421452 0.839631 -0.247646 -0.766094 0.593103 0.664566 0.375924 0.645781 
-0.361444 -0.798354 0.481652 -0.234699 -0.962661 0.134906 -0.622434 -0.591406 0.512655 
-0.650715 -0.612194 0.449209 -0.557585 0.259572 0.788493 0.0359016 0.733816 0.678399 
0.249408 -0.355036 0.900969 0.372755 -0.128506 0.918989 0.446797 -0.0970191 0.889359 
-0.295834 -0.775212 0.558147 -0.267482 -0.812658 0.517726 0.568576 0.282535 0.77259 
-0.277781 -0.835688 0.473776 0.47657 0.486571 0.732209 0.468988 0.310532 0.826813 