# vtk DataFile Version 4.2
vtk output
ASCII
DATASET POLYDATA
POINTS 776 float
82.3326 79.8187 194.118 82.2933 79.7008 194.153 82.2197 79.8025 194.15 
82.4721 79.8356 194.145 82.4516 79.7049 194.168 82.5861 79.7372 194.213 
82.2485 79.9054 194.186 82.377 79.931 194.169 82.6106 79.8409 194.232 
82.7278 79.9279 194.41 82.4311 80.024 194.284 82.5666 80.0559 194.403 
82.1442 79.6099 194.281 82.0974 79.5943 194.384 82.0849 79.6667 194.291 
82.2519 79.5876 194.258 82.3665 79.4512 194.408 82.1559 79.7123 194.212 
82.0636 79.749 194.338 82.4227 79.5617 194.271 82.772 79.7267 194.372 
83.1867 79.523 194.8 82.1923 79.9729 194.344 82.2356 80.0848 194.549 
82.589 80.1598 194.598 82.9868 79.9638 194.766 82.4319 79.2607 194.727 
82.2095 79.3594 194.86 82.8978 78.8819 195.12 81.9925 79.8296 194.896 
82.148 80.1263 194.84 83.2131 80.0759 195.256 82.0176 79.6625 194.703 
81.8988 79.7796 195.482 84.1289 79.3768 195.982 82.0408 80.0493 194.99 
82.4671 80.5548 195.849 81.6944 79.9412 196.199 84.2315 79.7394 196.392 
85.2378 76.5783 198.111 85.7576 76.7735 197.963 84.3913 77.8992 196.669 
85.6631 77.4753 197.581 86.2013 77.1836 198.032 81.9994 79.1458 196.586 
81.6667 80.1998 196.764 84.4733 80.0807 197.146 84.3762 76.7877 198.231 
83.1925 77.5745 197.955 86.771 77.8557 198.593 87.2437 77.348 198.939 
87.1209 77.5129 198.779 81.6757 80.8079 197.67 81.3228 79.8422 198.37 
81.2443 79.9894 198.466 81.294 80.0722 198.303 83.9406 81.6844 199.217 
86.6357 75.3001 199.928 86.7317 75.0364 200.319 88.3346 75.3593 200.408 
82.6783 77.8503 198.937 81.7506 78.9598 199.856 81.2188 80.0706 198.599 
81.1927 80.2463 199.032 85.9285 80.0358 199.229 81.1968 80.7053 199.008 
85.301 80.9338 199.537 86.6743 74.9647 200.387 86.6597 74.9494 200.446 
86.5394 75.0548 200.355 87.2257 74.7734 200.927 89.5951 74.962 201.562 
85.0506 75.9079 200.396 89.9126 75.732 201.619 90.2265 75.9323 201.987 
81.0102 80.8218 199.885 84.7556 81.8781 200.399 82.1869 82.8718 200.936 
81.9627 83.1569 201.574 82.5514 83.5987 201.973 83.1158 83.1594 201.305 
90.8999 74.3333 202.934 85.7095 75.3893 202.023 87.41 79.9544 201.556 
81.0096 81.0238 200.76 80.97 81.872 201.449 85.5184 81.8954 201.457 
81.0982 82.0497 201.266 81.4046 82.636 201.489 82.1329 83.5934 202.159 
87.5107 74.319 202.401 90.7845 73.4901 203.528 91.1168 73.6848 203.516 
92.1752 74.2653 204.109 80.8772 81.7799 202.034 80.9077 81.893 201.783 
80.9752 82.4577 202.502 84.7578 82.8818 202.085 82.2051 84.1649 203.059 
90.1057 73.0904 203.796 90.9288 73.2492 203.951 90.7308 73.0396 204.381 
91.6943 73.5874 204.045 91.526 76.349 203.864 81.739 84.4491 204.01 
81.9844 84.8153 204.413 91.7083 73.2433 204.436 91.6998 72.9804 204.909 
93.3792 74.2892 205.264 86.9364 74.6241 204.421 92.5946 75.5757 204.789 
80.6919 83.6675 204.831 85.0238 83.7462 203.836 85.5607 83.6187 204.343 
84.5013 84.2959 204.144 83.6048 84.8028 204.271 91.8467 72.6606 205.912 
92.2924 72.6862 205.933 92.5791 72.8744 205.717 94.1883 73.3449 206.323 
94.8486 73.606 206.83 85.3452 76.0315 205.381 93.5632 75.9925 206.269 
86.2696 83.37 204.992 94.1874 72.914 206.848 94.529 73.0194 206.974 
95.2313 73.9844 207.311 93.3828 76.4624 206.417 80.4033 83.5884 205.777 
80.3461 83.7528 206.079 94.8254 73.0897 207.228 95.5188 73.4249 207.866 
95.6131 73.792 208.071 81.4495 81.0286 206.668 80.3418 83.7807 206.426 
80.3276 83.7929 206.259 80.4713 84.1968 206.467 95.6404 73.3919 208.472 
95.4427 76.2424 208.936 83.1278 79.067 207.602 80.5042 84.0895 207.498 
80.4685 85.545 208.521 80.5665 85.6548 208.014 92.9934 72.4332 208.818 
91.3517 72.9156 208.74 95.6387 73.0851 209.13 92.8401 78.9824 208.661 
90.0548 81.8265 208.744 80.5863 84.3573 209.034 80.5214 86.5377 209.177 
82.0302 88.6538 209.753 94.7301 72.337 209.643 94.993 72.4583 209.217 
80.3099 86.843 210.047 81.2024 88.3881 210.444 83.5806 89.9283 211.28 
97.7875 75.0145 212.006 97.3932 76.2572 211.535 83.1954 90.4442 212.385 
95.6704 72.7412 211.012 97.8007 74.4688 212.532 81.8374 83.113 211.695 
80.3699 87.4302 211.134 94.8556 72.6501 211.194 95.3306 72.7298 211.454 
91.8234 74.2793 212.503 99.1008 76.9776 213.912 80.9402 88.6089 213.109 
96.559 73.3099 212.956 98.0088 74.3485 213.749 98.4869 74.7064 214.309 
99.7748 76.9805 214.804 99.0469 77.7724 214.116 82.5907 83.4512 213.688 
81.0769 88.8339 213.468 98.6922 74.8036 214.95 98.951 75.0591 214.802 
100.306 76.5211 215.85 99.5507 78.0037 214.721 100.052 77.6811 215.179 
98.1189 79.2676 214.131 81.5928 86.3549 214.573 81.4652 87.375 214.889 
81.3858 88.9136 214.411 82.3629 90.3359 215.161 84.2619 91.8153 215.624 
86.9099 92.1227 215.945 98.0748 74.5996 215.771 99.2486 75.1842 215.783 
101.699 78.504 216.742 102.572 78.0472 217.606 102.408 78.4251 217.321 
86.7646 80.8717 216.423 81.4548 88.4935 214.85 82.1008 89.7918 215.594 
99.8352 75.59 216.845 102.16 77.1882 217.904 100.908 80.2789 216.493 
98.8956 82.2243 216.348 91.7136 88.7856 216.378 82.1612 89.298 216.286 
97.5893 74.8973 217.14 93.1345 76.5752 217.22 102.979 77.6029 218.391 
103 80.683 217.619 108.613 80.7862 219.869 82.6098 87.3397 216.947 
82.6745 89.7242 217.484 82.7831 90.3256 217.266 86.2418 92.9578 218.232 
99.4508 75.5175 217.894 97.5373 75.623 218.563 102.974 77.279 219.095 
137.439 87.3266 220.424 139.436 86.9824 221.233 139.788 87.5258 221.102 
140.04 87.8853 221.258 83.0586 89.4643 218.319 136.884 93.1609 219.251 
138.323 92.6768 219.738 139.964 91.5115 220.949 139.53 93.0047 220.448 
140.177 94.9194 220.824 137.051 104.435 219.161 135.214 110.181 219.27 
129.435 112.115 219.798 132.608 112.153 219.544 132.55 113.334 220.023 
134.91 112.654 219.925 135.67 113.597 220.572 102.118 76.7287 220.164 
106.256 78.8832 220.211 114.332 81.5082 221.14 114.812 80.8817 221.777 
107.657 82.4306 219.22 107.862 83.2819 219.18 114.741 82.9349 220.383 
123.957 82.6366 221.909 125.642 83.2025 221.63 113.155 84.4262 219.785 
121.652 84.8222 220.201 129.121 85.0268 220.802 117.063 85.3847 219.844 
107.171 86.1593 219.257 112.684 86.0341 219.629 139.556 86.8575 221.477 
124.235 87.3738 219.602 139.871 87.3838 221.308 140.062 87.6068 221.469 
84.1597 87.8826 219.476 84.6757 91.5566 219.716 94.1499 93.3069 219.662 
93.3159 93.979 219.868 86.1287 93.0542 219.81 92.3974 94.5707 220.183 
124.842 108.588 219.635 138.769 110.852 221.424 129.714 113.105 220.28 
138.474 111.876 221.55 135.429 114.395 221.128 134.947 114.67 221.303 
136.715 113.76 221.189 137.469 114.127 222.138 99.5727 75.9467 219.303 
101.446 76.5833 220.646 101.718 76.7043 220.884 100.807 76.6084 220.744 
102.727 77.0127 221.023 124.834 82.5213 222.293 127.603 83.086 222.207 
128.451 83.0146 222.592 139.062 86.4217 221.615 139.742 86.9452 221.644 
99.1934 91.5548 219.915 84.6246 90.3053 220.476 84.6916 90.9367 220.349 
86.1624 92.9302 220.894 91.1808 95.7477 221.714 116.543 110.128 221.525 
113.873 109.716 222.058 119.152 110.756 221.233 114.539 111.054 222.633 
113.431 110.996 223.094 119.149 112.282 222.048 138.92 111.563 222.071 
131.909 113.789 220.401 119.547 113.483 222.907 132.731 114.179 220.684 
134.179 114.107 220.613 127.87 114.623 222.052 131.8 114.757 221.413 
128.273 115.223 222.654 134.439 114.97 221.679 132.51 115.593 222.603 
134.309 115.418 222.434 102.816 77.1568 221.643 105.532 78.0037 221.75 
106.469 78.3157 221.691 126.774 82.7284 222.465 85.2464 90.2565 221.363 
141.107 94.0874 222.878 99.4165 97.3709 221.183 96.9271 100.171 223.734 
99.1906 100.503 222.75 99.1581 101.197 223.363 102.1 103.245 223.497 
110.681 104.552 221.265 105.819 106.564 224.042 107.903 106.363 222.642 
106.898 106.873 223.501 114.218 108.144 221.386 117.39 112.991 223.35 
137.938 114.207 223.108 101.392 76.8681 221.431 102.118 77.2662 222.226 
99.0205 77.5335 221.896 125.575 82.031 223.597 140.207 87.2305 222.82 
87.0148 93.2677 222.353 88.0174 94.0891 222.858 91.026 96.5152 223.757 
101.547 103.704 224.493 106.892 107.6 224.307 110.808 110.633 224.5 
139.251 112.022 223.432 114.924 112.618 224.434 116.418 113.043 224.084 
128.031 115.873 223.821 105.11 77.9164 223.313 104.587 77.8945 223.454 
103.123 77.9077 223.508 110.113 78.5611 224.38 139.66 86.3987 223.572 
140.814 88.2993 224.071 87.0206 91.638 223.742 88.0723 93.8952 223.686 
89.1634 94.9655 224.275 98.1896 101.492 224.63 100.503 103.142 224.833 
102.094 78.4189 224.249 132.729 83.2172 224.909 102.099 104.551 225.493 
102.564 105.014 225.899 104.836 106.544 225.355 113.844 112.681 226.035 
104.428 78.5161 225.323 93.4408 84.3503 225.732 87.7457 92.9035 224.365 
88.741 94.1062 225.258 105.27 107.187 226.449 125.2 116.219 226.495 
135.403 116.34 226.338 136.79 115.746 226.253 97.3701 82.3311 226.979 
93.395 85.0095 226.539 138.797 85.4384 225.988 89.2373 89.939 226.301 
90.2621 88.8173 227.08 141.532 91.3738 226.616 88.7722 91.5868 226.365 
88.3815 92.4626 225.663 117.453 114.086 226.637 105.293 78.964 227.986 
91.6695 87.2571 227.568 89.056 93.2124 227.258 89.4653 94.4141 227.877 
141.514 96.8051 228.153 137.837 115.094 227.923 93.5624 85.5876 228.204 
89.6493 90.6519 228.291 89.3535 91.5123 228.109 89.7438 90.4503 228.8 
89.2272 92.6375 228.895 89.3077 93.6792 229.3 113.402 112.756 229.322 
139.105 113.411 228.641 115.276 79.0333 229.489 103.799 79.3592 229.763 
98.6309 81.5881 230.062 100.586 80.8793 229.117 95.127 84.2551 228.992 
91.6664 87.239 229.65 92.3906 86.632 229.038 90.0411 89.7643 229.053 
89.0632 92.4462 230.097 89.1958 92.4003 229.479 88.9881 93.456 230.792 
89.3371 94.1081 230.227 133.555 116.983 230.012 136.513 116.059 229.831 
103.85 78.8216 231.485 94.0811 84.5184 230.458 140.07 86.7746 230.172 
104.575 106.732 230.054 115.488 113.369 230.399 115.788 79.3472 231.724 
132.421 83.0036 231.075 93.7676 84.4049 230.985 138.667 85.4074 230.546 
139.631 86.2885 230.641 90.6803 87.5065 231.032 90.4082 95.9203 231.708 
140.811 103.44 231.379 111.698 111.688 231.897 138.449 114.165 231.4 
[...]
POINT_DATA 776
SCALARS scalars float
LOOKUP_TABLE default
1 1 1 1 1 1 1 1 1 
1 1 1 1 1 1 1 1 1 
1 1 1 1 1 1 1 1 1 
1 1 1 1 1 1 1 1 1 
1 1 1 1 1 1 1 1 1 
1 1 1 1 1 1 1 1 1 
1 1 1 1 1 1 1 1 1 
1 1 1 1 1 1 1 1 1 
1 1 1 1 1 1 1 1 1 
1 1 1 1 1 1 1 1 1 
1 1 1 1 1 1 1 1 1 
1 1 1 1 1 1 1 1 1 
1 1 1 1 1 1 1 1 1 
1 1 1 1 1 1 1 1 1 
1 1 1 1 1 1 1 1 1 
1 1 1 1 1 1 1 1 1 
1 1 1 1 1 1 1 1 1 
1 1 1 1 1 1 1 1 1 
1 1 1 1 1 1 1 1 1 
1 1 1 1 1 1 1 1 1 
1 1 1 1 1 1 1 1 1 
1 1 1 1 1 1 1 1 1 
1 1 1 1 1 1 1 1 1 
1 1 1 1 1 1 1 1 1 
1 1 1 1 1 1 1 1 1 
1 1 1 1 1 1 1 1 1 
1 1 1 1 1 1 1 1 1 
1 1 1 1 1 1 1 1 1 
1 1 1 1 1 1 1 1 1 
1 1 1 1 1 1 1 1 1 
1 1 1 1 1 1 1 1 1 
1 1 1 1 1 1 1 1 1 
1 1 1 1 1 1 1 1 1 
1 1 1 1 1 1 1 1 1 
1 1 1 1 1 1 1 1 1 
1 1 1 1 1 1 1 1 1 
1 1 1 1 1 1 1 1 1 
1 1 1 1 1 1 1 1 1 
1 1 1 1 1 1 1 1 1 
1 1 1 1 1 1 1 1 1 
1 1 1 1 1 1 1 1 1 
1 1 1 1 1 1 1 1 1 
1 1 1 1 1 1 1 1 1 
1 1 1 1 1 1 1 1 1 
1 1 1 1 1 1 1 1 1 
1 1 1 1 1 1 1 1 1 
1 1 1 1 1 1 1 1 1 
1 1 1 1 1 1 1 1 1 
1 1 1 1 1 1 1 1 1 
1 1 1 1 1 1 1 1 1 
1 1 1 1 1 1 1 1 1 
1 1 1 1 1 1 1 1 1 
1 1 1 1 1 1 1 1 1 
1 1 1 1 1 1 1 1 1 
1 1 1 1 1 1 1 1 1 
1 1 1 1 1 1 1 1 1 
1 1 1 1 1 1 1 1 1 
1 1 1 1 1 1 1 1 1 
1 1 1 1 1 1 1 1 1 
1 1 1 1 1 1 1 1 1 
1 1 1 1 1 1 1 1 1 
1 1 1 1 1 1 1 1 1 
1 1 1 1 1 1 1 1 1 
1 1 1 1 1 1 1 1 1 
1 1 1 1 1 1 1 1 1 
1 1 1 1 1 1 1 1 1 
1 1 1 1 1 1 1 1 1 
1 1 1 1 1 1 1 1 1 
1 1 1 1 1 1 1 1 1 
1 1 1 1 1 1 1 1 1 
1 1 1 1 1 1 1 1 1 
1 1 1 1 1 1 1 1 1 
1 1 1 1 1 1 1 1 1 
1 1 1 1 1 1 1 1 1 
1 1 1 1 1 1 1 1 1 
1 1 1 1 1 1 1 1 1 
1 1 1 1 1 1 1 1 1 
1 1 1 1 1 1 1 1 1 
1 1 1 1 1 1 1 1 1 
1 1 1 1 1 1 1 1 1 
1 1 1 1 1 1 1 1 1 
1 1 1 1 1 1 1 1 1 
1 1 1 1 1 1 1 1 1 
1 1 1 1 1 1 1 1 1 
1 1 1 1 1 1 1 1 1 
1 1 1 1 1 1 1 1 1 
1 1 
NORMALS Normals float
-0.0565802 0.0924016 -0.994113 -0.148808 -0.459792 -0.87547 -0.54406 0.0883868 -0.834378 
0.372635 0.20967 -0.903981 0.276903 -0.478025 -0.833557 0.512884 -0.279764 -0.811592 
-0.45584 0.596516 -0.66059 0.0304537 0.598949 -0.800208 0.587132 0.318604 -0.744156 
0.607928 0.538802 -0.583194 0.124014 0.833645 -0.538198 0.430878 0.718872 -0.545497 
-0.463596 -0.666381 -0.583965 -0.599157 -0.741067 -0.303035 -0.883922 -0.258672 -0.389579 
-0.242467 -0.737402 -0.630435 -0.153351 -0.835386 -0.527839 -0.561257 -0.273709 -0.781072 
-0.871279 0.296972 -0.390744 0.16013 -0.701791 -0.694153 0.701348 -0.201081 -0.683869 
0.705625 -0.0250212 -0.708144 -0.591631 0.709542 -0.382783 -0.654017 0.706051 -0.271578 
0.252536 0.874274 -0.414574 0.756251 0.41591 -0.505078 -0.288241 -0.862828 -0.415266 
-0.762911 -0.627771 -0.154502 -0.229061 -0.849195 -0.475813 -0.990908 0.0252634 -0.132148 
-0.383315 0.891816 -0.240276 0.733317 0.47852 -0.482975 -0.939579 -0.340144 -0.0386377 
-0.970199 -0.145204 -0.193983 0.782916 0.282577 -0.55425 -0.84567 0.467214 -0.257982 
-0.308089 0.898169 -0.313646 -0.983038 -0.0934937 -0.157783 0.717008 0.518834 -0.465521 
-0.102805 -0.790116 -0.604275 0.386587 -0.528497 -0.755805 0.254872 -0.658477 -0.70813 
0.496486 -0.300137 -0.814506 0.622283 -0.194915 -0.758137 -0.892064 -0.430082 -0.138751 
-0.990692 0.00155013 -0.136112 0.699471 0.549196 -0.457301 -0.300614 -0.864937 -0.40189 
-0.657309 -0.724773 -0.206515 0.757614 0.352386 -0.549405 0.750732 0.0326037 -0.659802 
0.812082 0.0171207 -0.583292 -0.826171 0.494111 -0.270733 -0.88215 -0.456742 -0.114882 
-0.956454 -0.242987 -0.161721 -0.963806 0.0461424 -0.262582 0.388033 0.793535 -0.468756 
-0.0904541 -0.826378 -0.555803 0.0613132 -0.787127 -0.613735 0.35147 -0.643487 -0.679995 
-0.734261 -0.673808 -0.0827262 -0.840024 -0.541111 0.039478 -0.983363 -0.176801 -0.0416991 
-0.990147 -0.128212 -0.05631 0.689978 0.564414 -0.453174 -0.886116 0.385286 -0.257591 
0.607533 0.651549 -0.454299 -0.12141 -0.842586 -0.524698 -0.3802 -0.908091 -0.175554 
-0.414924 -0.810207 -0.414009 -0.0891812 -0.931702 -0.352106 0.603576 -0.37973 -0.701072 
-0.528436 -0.833916 -0.159185 0.735522 -0.137744 -0.66335 0.752914 0.236594 -0.61412 
-0.971883 0.193791 -0.133749 0.583734 0.716386 -0.382158 -0.392245 0.800583 -0.453003 
-0.380945 0.741309 -0.552577 -0.112239 0.824643 -0.554406 0.143766 0.848216 -0.509766 
0.464854 -0.444484 -0.765731 -0.550756 -0.834501 -0.0165998 0.691939 0.589911 -0.416203 
-0.995254 0.0315748 -0.0920513 -0.946279 0.24797 -0.207524 0.563667 0.714156 -0.415044 
-0.770616 0.477438 -0.422141 -0.779521 0.551203 -0.297527 -0.319903 0.77737 -0.541626 
-0.49639 -0.864893 -0.0745449 0.202416 -0.75044 -0.62918 0.473265 -0.572558 -0.669476 
0.693861 -0.125047 -0.709169 -0.997753 0.0160478 -0.0650448 -0.936065 0.345049 -0.0687219 
-0.922926 0.349312 -0.16183 0.475702 0.77382 -0.418222 -0.0441408 0.84273 -0.536524 
0.0170933 -0.909869 -0.414544 0.266566 -0.80895 -0.523967 0.19389 -0.884856 -0.4236 
0.616803 -0.522266 -0.588891 0.716173 0.379031 -0.58603 -0.692869 0.665094 -0.278536 
-0.756728 0.58429 -0.293204 0.556082 -0.719024 -0.416865 0.458016 -0.806678 -0.373487 
0.699379 0.0422218 -0.713503 -0.45069 -0.873006 0.186386 0.705677 0.34602 -0.618296 
-0.843466 0.430432 -0.321391 0.530185 0.651544 -0.542581 0.624817 0.714158 -0.315567 
0.439499 0.790029 -0.427428 0.387215 0.80667 -0.446485 0.0932559 -0.945965 -0.310569 
0.0872895 -0.986603 -0.13782 0.302098 -0.812487 -0.4986 0.54889 -0.540886 -0.637309 
0.727184 -0.30886 -0.613032 -0.595041 -0.774361 0.215154 0.711712 0.416959 -0.565342 
0.628518 0.661019 -0.409901 0.289133 -0.931485 -0.220768 0.53387 -0.684911 -0.495862 
0.828866 0.0417951 -0.557883 0.683075 0.458198 -0.568738 -0.983242 -0.177859 -0.040018 
-0.988144 0.0363721 -0.149163 0.577021 -0.771135 -0.269066 0.856542 -0.331824 -0.395257 
0.952508 -0.10732 -0.284975 -0.888215 -0.430429 0.160638 -0.938669 -0.321547 0.124532 
-0.997999 0.0605545 -0.0182196 -0.914115 0.373937 -0.156731 0.847001 -0.49325 -0.198226 
0.756186 0.447156 -0.477739 -0.677804 -0.638606 0.364369 -0.983079 -0.141378 0.116477 
-0.918489 0.206994 -0.336944 -0.969289 0.17326 -0.17453 -0.161927 -0.986706 0.0138112 
-0.482299 -0.815713 0.319374 0.818236 -0.535793 -0.208364 0.687743 0.605238 -0.40087 
0.665897 0.643112 -0.378138 -0.969148 -0.207501 0.133021 -0.848506 0.328616 -0.414789 
-0.385968 0.789582 -0.477063 -0.0524845 -0.983237 0.174614 0.418706 -0.883564 -0.209761 
-0.989577 0.117131 -0.0837761 -0.672955 0.656195 -0.341379 -0.128951 0.866111 -0.482933 
0.872661 -0.226114 -0.432822 0.72035 0.29519 -0.627662 -0.284638 0.887083 -0.363407 
0.408309 -0.912542 0.0234494 0.818511 -0.526837 -0.229088 -0.854327 -0.41101 0.318113 
-0.977167 0.206951 0.0481124 -0.077254 -0.958776 0.273461 -0.08899 -0.923721 0.372586 
-0.380506 -0.825512 0.416828 0.747674 0.0700445 -0.660361 -0.966248 0.207895 0.152135 
0.479121 -0.87518 0.0671037 0.78085 -0.601997 -0.166952 0.632045 -0.768988 -0.0957958 
0.788486 -0.0173656 -0.614807 0.651137 0.246359 -0.717864 -0.755511 -0.5031 0.419635 
-0.802297 0.596922 -0.00186764 0.624659 -0.770178 0.128946 0.736952 -0.670733 -0.0837748 
0.802753 -0.34528 -0.486179 0.721732 0.324773 -0.611249 0.745476 0.14365 -0.650869 
0.566981 0.420047 -0.708585 -0.8818 -0.298249 0.365343 -0.943394 -0.0754634 0.322976 
-0.938311 0.230299 0.257944 -0.792476 0.584113 0.175483 -0.511288 0.851819 -0.113968 
0.140979 0.843326 -0.518581 0.457537 -0.870368 0.181987 0.612421 -0.782349 -0.113453 
0.681964 -0.119243 -0.7216 0.675081 -0.321568 -0.663972 0.662388 -0.143808 -0.735229 
-0.587342 -0.583334 0.561027 -0.92876 0.0986775 0.357307 -0.828534 0.44451 0.340504 
0.468828 -0.882042 0.0469197 0.626151 -0.585012 -0.515457 0.54232 0.225087 -0.809459 
0.371419 0.33208 -0.867047 0.448847 0.513276 -0.731495 -0.873444 0.268156 0.406433 
0.12549 -0.938028 0.323043 -0.370821 -0.712748 0.595385 0.858987 -0.291982 -0.420581 
0.622148 -0.0840609 -0.778374 0.311932 -0.472636 -0.824205 -0.841569 -0.210327 0.497519 
-0.925407 0.0715255 0.372164 -0.811968 0.505936 0.291095 -0.0981852 0.951425 -0.291806 
0.282472 -0.925867 0.250956 -0.189202 -0.818851 0.541928 0.646657 -0.726405 -0.232746 
0.184221 -0.292721 -0.938284 0.472399 -0.558777 -0.681621 0.564946 -0.212043 -0.797417 
0.851217 -0.133979 -0.507424 -0.868491 0.095065 0.486504 0.292946 -0.0104044 -0.956072 
0.37116 -0.101619 -0.922992 0.816449 -0.079728 -0.571887 0.509401 0.0482289 -0.859177 
0.809447 0.1138 -0.57606 0.292458 0.0710671 -0.953634 0.26835 0.219411 -0.938002 
-0.125542 0.262272 -0.956793 0.0930051 0.351075 -0.931717 0.188015 0.474354 -0.860022 
0.155 0.30984 -0.938069 0.241904 0.515104 -0.822284 0.283387 -0.958689 0.0246406 
0.397653 -0.668368 -0.628615 0.154471 -0.539598 -0.827631 0.161191 -0.68599 -0.709532 
0.193552 -0.0712442 -0.9785 0.154685 -0.131471 -0.979177 0.158313 -0.357524 -0.920388 
0.156951 -0.615026 -0.772729 0.210287 -0.639077 -0.739838 0.130329 -0.167395 -0.977238 
0.106873 -0.471323 -0.875462 0.0626267 -0.600359 -0.797275 0.0338448 -0.22631 -0.973467 
0.000694071 0.0375661 -0.999294 0.101013 0.0203482 -0.994677 0.580568 -0.752651 -0.310574 
0.0611033 -0.153426 -0.986269 0.720993 -0.479877 -0.499887 0.919111 -0.243739 -0.309558 
-0.768931 -0.289904 0.569826 -0.814195 0.495647 0.302359 -0.00733265 0.251578 -0.967809 
-0.0753664 0.436677 -0.896456 -0.331743 0.94176 0.055079 0.0650146 0.650273 -0.756914 
-0.135211 0.0918735 -0.986548 0.747367 0.153082 -0.646536 -0.174757 0.598279 -0.781999 
0.727805 0.409121 -0.550382 0.325399 0.776074 -0.540208 0.190778 0.774586 -0.603009 
0.454895 0.348152 -0.819671 0.453978 0.777908 -0.434469 0.164014 -0.929146 0.331342 
0.083998 -0.994996 0.0540986 0.0990879 -0.942787 0.31833 -0.000191516 -0.953622 0.301006 
0.353818 -0.918711 0.175448 0.196653 -0.738922 -0.644455 0.188546 -0.561452 -0.805743 
0.204604 -0.824526 -0.527536 0.410936 -0.788155 -0.458196 0.687956 -0.615362 -0.384768 
0.0703223 0.252197 -0.965117 -0.866117 0.0979284 0.490155 -0.868002 0.230882 0.439621 
-0.589502 0.765162 0.258871 -0.0124196 0.85885 -0.512077 -0.148336 0.29626 -0.943518 
-0.511261 0.327668 -0.79451 -0.10023 0.334383 -0.937092 -0.261447 0.589502 -0.764286 
-0.487343 0.598381 -0.635953 -0.214718 0.487552 -0.84628 0.879778 0.280971 -0.383466 
-0.0909985 0.610525 -0.786752 -0.0188772 0.808104 -0.588737 0.130749 0.651573 -0.747233 
-0.0404742 0.626121 -0.778675 -0.252217 0.808871 -0.531145 -0.0119857 0.796048 -0.605115 
-0.167851 0.760575 -0.627178 0.147613 0.888855 -0.43376 0.0160318 0.865439 -0.500758 
0.0712192 0.894685 -0.440984 0.373434 -0.909698 0.181648 0.246716 -0.969088 -0.000221609 
0.351098 -0.934803 -0.0536066 0.221687 -0.801062 -0.556018 -0.782314 -0.135586 0.607949 
0.962165 0.0269251 -0.271135 -0.156728 0.414881 -0.896276 -0.484057 0.704799 -0.518601 
-0.380468 0.581412 -0.719169 -0.420505 0.64182 -0.641282 -0.41453 0.629726 -0.656971 
-0.0642032 0.123515 -0.990264 -0.529575 0.685507 -0.499631 -0.316861 0.453798 -0.832867 
-0.401436 0.592457 -0.698458 -0.304853 0.245468 -0.920223 -0.344626 0.852163 -0.393765 
0.749741 0.617285 -0.238428 -0.007527 -0.926404 0.376457 0.0969016 -0.920198 0.379271 
-0.255261 -0.814905 0.520358 0.216056 -0.912812 -0.346547 0.760343 -0.640521 -0.107756 
-0.732726 0.610838 0.299981 -0.778843 0.587371 0.219998 -0.48139 0.87542 -0.0436268 
-0.451395 0.742746 -0.494542 -0.46726 0.692368 -0.549813 -0.525799 0.820694 -0.223601 
0.938713 0.264115 -0.2215 -0.295873 0.887698 -0.352776 -0.393358 0.779717 -0.487146 
-0.129878 0.93091 -0.341377 0.305306 -0.932748 0.191755 0.0116189 -0.973951 0.226463 
0.0434434 -0.94145 0.334343 0.165092 -0.946391 -0.27765 0.744707 -0.664002 -0.0671704 
0.9271 -0.371755 -0.0477948 -0.849044 0.174704 0.498601 -0.764589 0.622332 0.16765 
-0.768685 0.630659 0.106732 -0.567458 0.730233 -0.380461 -0.528262 0.763681 -0.37112 
-0.127431 -0.842928 0.522717 0.274526 -0.932791 -0.233533 -0.572096 0.775415 -0.267278 
-0.619632 0.764845 -0.176262 -0.602041 0.766906 -0.222267 -0.353197 0.904598 -0.238651 
-0.101519 -0.953983 0.282154 -0.639963 -0.577582 0.5068 -0.870211 0.348114 0.34864 
-0.881115 0.390316 0.267001 -0.597199 0.775961 -0.203069 -0.236864 0.959779 -0.150728 
0.25247 0.954913 -0.156205 0.46851 0.87102 -0.147729 -0.440805 -0.783342 0.438254 
-0.774483 -0.567978 0.278527 0.555156 -0.822589 -0.12308 -0.868524 -0.310844 0.386059 
-0.813507 -0.490477 0.312473 0.995067 -0.0696248 -0.070662 -0.847694 -0.0853912 0.523568 
-0.905863 0.110161 0.408996 -0.270406 0.941243 -0.202342 -0.0921971 -0.995679 -0.0110568 
-0.733771 -0.670881 0.107236 -0.946692 0.0559735 0.317239 -0.946884 0.297106 0.123038 
0.993865 0.109517 0.0154048 0.640292 0.768131 -0.000582379 -0.706699 -0.68876 0.161819 
-0.922824 -0.356706 0.145456 -0.982297 -0.171546 0.0752642 -0.93379 -0.328102 -0.142776 
-0.998319 -0.0507713 0.0279544 -0.953448 0.289311 -0.0850697 -0.389497 0.920837 -0.0187513 
0.913973 0.394739 0.093989 0.224395 -0.968836 0.104895 -0.272107 -0.951421 -0.144069 
-0.393891 -0.884198 -0.251085 -0.360461 -0.930656 -0.062821 -0.682909 -0.673686 -0.282458 
-0.768282 -0.598459 -0.227133 -0.686325 -0.706428 -0.172968 -0.824833 -0.542267 -0.15999 
-0.967332 -0.0536834 -0.247764 -0.984525 -0.0692271 -0.160991 -0.843729 0.454795 -0.285102 
-0.906777 0.385918 -0.169771 0.108453 0.990136 0.0887075 0.553651 0.832709 0.00810612 
-0.102427 -0.959412 -0.262748 -0.698618 -0.58345 -0.414149 0.813002 -0.581269 0.0339842 
-0.61458 0.78298 0.0960899 -0.301834 0.9208 0.247028 0.259078 -0.934501 0.244104 
0.261656 -0.964775 0.0272992 -0.746879 -0.273739 -0.606002 0.562514 -0.826378 0.0260271 
0.786377 -0.597719 0.156024 -0.685535 -0.528012 -0.501244 -0.782405 0.62267 0.0112046 
0.989558 0.0902827 0.112353 -0.416703 0.853245 0.313578 0.819712 0.567907 0.0745258 
0.598419 0.785597 0.157264 -0.118978 0.984062 0.132159 0.296787 0.942061 0.156328 
0.207701 -0.948304 -0.239958 -0.132525 -0.886662 -0.443022 0.103322 -0.964814 -0.241781 
-0.775638 -0.323202 -0.542149 -0.52469 0.833879 0.171308 -0.593356 0.710244 0.378789 
-0.272441 0.888715 0.368729 0.127603 -0.991253 0.0336888 0.129043 -0.974418 0.184003 
0.282448 -0.895211 0.344703 0.485824 -0.850536 0.201402 0.541297 -0.794995 0.273826 
0.951969 -0.251269 0.174983 -0.352719 0.762126 0.542912 -0.625131 0.650316 0.431625 
-0.00658042 0.957092 0.289711 0.885459 -0.16954 0.432688 -0.723869 -0.315829 -0.613405 
-0.808355 -0.0139425 -0.58853 -0.569516 0.803168 0.174849 -0.338393 0.68521 0.644963 
-0.503286 0.682603 0.529865 0.930399 0.177776 0.320552 -0.635997 0.459635 0.619874 
-0.402584 0.646573 0.647973 -0.276317 0.851478 0.445683 -0.234405 0.90516 0.354599 
0.318171 -0.891189 0.323342 -0.659689 -0.462088 -0.592693 0.278868 -0.657751 0.699712 
0.609805 -0.67332 0.418064 0.768534 -0.467305 0.437015 -0.792011 0.0840499 -0.604693 
-0.808204 0.150139 -0.569442 -0.0799531 0.530774 0.843733 -0.558391 0.828983 -0.0314187 
-0.525958 0.83867 0.141424 -0.208044 0.594595 0.776643 -0.0898138 0.387352 0.917547 
-0.290433 0.604566 0.74172 0.926001 -0.0278022 0.376496 -0.336912 0.629217 0.700411 
-0.406202 0.535874 0.740161 -0.381265 0.277485 0.881839 -0.311116 0.412979 0.855953 
-0.241884 0.550117 0.799289 -0.42628 0.376318 0.8226 -0.176229 0.406805 0.896356 
-0.362315 0.694039 0.622123 -0.264476 0.663499 0.699872 0.81808 0.420523 0.392307 
-0.345662 0.691037 0.634812 -0.107689 0.872346 0.476881 0.00871585 0.895018 0.445946 
0.428285 -0.732663 0.528939 0.688272 -0.603694 0.402288 0.612856 -0.483912 0.624689 
0.834657 -0.29283 0.466475 0.245558 0.374377 0.894172 0.0934952 0.247139 0.964459 
-0.776945 -0.217651 -0.590749 0.240423 0.485572 0.840486 -0.830179 0.029234 -0.556729 
0.172344 0.430539 0.885965 -0.858966 0.319465 -0.40015 -0.769173 0.466224 -0.437045 
-0.0438399 0.633906 0.772166 0.849339 0.0713258 0.523006 -0.170224 0.130921 0.97667 
0.830269 0.100253 0.548272 -0.314841 0.0753638 0.946148 0.798934 0.206039 0.565025 
-0.22303 0.657289 0.719881 -0.219281 0.783188 0.581836 0.125601 -0.982294 -0.139007 
0.11384 -0.98331 -0.141925 0.252614 -0.596952 0.761469 0.212138 -0.756593 0.618517 
0.195029 -0.57244 0.796415 0.177756 -0.600827 0.779365 0.226636 0.226609 0.947251 
0.0221797 -0.143786 0.98936 0.168637 -0.409662 0.896515 0.359242 -0.394793 0.845626 
0.4529 -0.237928 0.859228 0.124996 -0.11094 0.985935 0.360684 -0.216807 0.907139 
0.533966 -0.119135 0.83707 -0.840906 0.351602 -0.411403 -0.22414 0.834849 0.502781 
0.161995 -0.0114064 0.986726 0.675519 0.102339 0.730206 0.50273 0.0628541 0.862155 
0.454613 0.0827087 0.886841 -0.0302522 -0.128354 0.991267 0.151435 -0.0532039 0.987034 
-0.094004 0.220902 0.970755 0.607259 0.432816 0.666263 -0.18818 0.666459 0.721402 
-0.139649 0.600935 0.787004 0.566816 0.636158 0.523472 -0.0697098 0.761482 0.644426 
0.104694 0.94458 0.311139 0.289217 0.932942 0.214414 0.339497 0.890982 0.301484 
0.224595 0.686275 0.691798 0.454567 -0.878946 0.144299 0.608457 -0.563406 0.558885 
0.355665 -0.514174 0.780466 0.210616 -0.287031 0.934481 0.184436 -0.0152416 0.982726 
0.161492 -0.0443919 0.985875 -0.882883 0.123863 -0.452964 -0.802136 0.545431 -0.243068 
-0.811732 0.518634 -0.268534 0.136548 0.692127 0.708742 0.634657 -0.0805379 0.768586 
0.0778732 -0.104374 0.991485 0.322843 -0.135694 0.936675 0.309809 0.082932 0.947175 
0.518377 0.103018 0.848924 0.298915 0.157154 0.94125 0.630331 0.185433 0.753855 
0.556259 0.323009 0.765663 -0.0081389 0.524042 0.851654 0.315752 0.398581 0.861066 
0.43316 0.546389 0.716821 0.698711 -0.513885 0.497719 -0.695003 0.700776 -0.160885 
-0.366131 0.920524 0.136325 -0.27865 0.951249 0.132212 0.732701 -0.312767 0.604422 
0.670622 -0.311668 0.673149 0.551319 0.22317 0.803892 0.618074 0.0397145 0.785116 
0.522365 0.0165214 0.852562 -0.903209 -0.0996384 -0.417474 -0.898248 0.293488 -0.327132 
-0.908612 0.304487 -0.285853 0.349997 0.634764 0.688896 -0.737621 0.63206 -0.23752 
-0.627257 0.778708 0.0127818 -0.409461 0.889147 0.204351 -0.391054 0.91407 0.107479 
-0.0917826 0.921659 0.376988 0.154743 0.819888 0.551216 0.144414 0.899728 0.411866 
0.588843 -0.251032 0.768275 0.632705 -0.0847881 0.769737 -0.836143 -0.156802 -0.525622 
-0.939161 0.0655281 -0.337169 -0.863454 0.330947 -0.380685 -0.964595 0.184826 -0.188136 
-0.902419 0.381749 -0.19977 -0.840642 0.530111 -0.110919 -0.687557 0.72509 0.0388562 
-0.534007 0.843325 0.0603285 0.318599 0.754775 0.573419 -0.214229 -0.848234 -0.484361 
0.559723 -0.827563 0.0430029 0.675888 -0.0725786 0.733422 0.757768 -0.00408449 0.652511 
-0.767629 -0.273179 -0.579758 0.537333 0.57335 0.618501 -0.946441 0.297966 -0.124366 
-0.90884 0.416901 -0.0142736 -0.754638 0.6549 0.0403459 -0.343411 0.876363 0.337724 
-0.198886 0.893162 0.403368 -0.035592 0.893765 0.447122 -0.090904 -0.987117 -0.131666 
-0.0279228 -0.941426 -0.336063 0.351787 -0.899573 -0.258873 0.803205 -0.440324 0.401219 
0.776468 -0.105605 0.621245 -0.687588 -0.514864 -0.511994 -0.894736 -0.114107 -0.431771 
-0.92439 0.379282 -0.0406084 0.320193 0.734147 0.598753 -0.043015 0.909996 0.412379 
0.28358 -0.95753 -0.0521416 0.151316 -0.988039 0.0297018 0.299025 -0.951676 0.0699816 
0.660167 -0.739882 0.129435 -0.960039 -0.203046 -0.192606 -0.925713 0.0953208 -0.366019 
-0.972267 0.106392 -0.208271 -0.802798 0.580148 0.137637 -0.449754 0.854795 0.258937 
-0.13766 0.93293 0.332702 0.509426 -0.859669 0.038133 -0.320677 -0.85492 -0.407773 
0.853941 -0.362873 0.372972 0.858594 0.0384887 0.511209 0.882749 0.226188 0.411818 
-0.995941 0.0410607 -0.0800911 -0.9682 0.196635 -0.154673 -0.999889 0.0134477 -0.00642217 
-0.975473 0.217762 -0.03212 -0.945929 0.308597 0.0999341 0.461491 0.649638 0.604149 
-0.635188 0.707326 0.310204 -0.106741 0.873073 0.475762 0.309717 0.760202 0.571112 
0.769945 -0.602441 0.210358 0.910428 -0.0827998 0.405296 0.821352 0.337941 0.459539 
0.684756 0.379267 0.622307 -0.999204 -0.0242156 0.0316923 -0.95317 -0.159847 -0.256741 
-0.985219 0.0753226 0.153849 -0.988264 0.149022 -0.0335567 -0.952155 0.276605 0.129967 