# vtk DataFile Version 4.2
vtk output
ASCII
DATASET POLYDATA
POINTS 1436 float
129.332 109.743 172.083 130.728 108.001 172.042 128.927 110.338 172.383 
129.287 110.445 172.303 129.523 110.698 172.364 130.373 106.744 172.355 
127.755 107.275 172.765 134.235 107.019 172.715 127.567 108.306 172.747 
128.879 111.687 173.018 142.222 103.238 174.412 130.422 110.817 172.436 
128.631 112.684 173.734 140.246 102.823 174.373 141.907 103.311 174.388 
126.434 104.413 174.046 125.389 104.9 174.218 124.733 105.717 174.395 
139.107 105.988 173.994 125.69 107.588 173.923 136.622 108.021 173.616 
132.556 110.664 172.959 127.824 113.044 174.477 131.184 114.309 174.32 
130.154 115.193 174.906 143.808 101.417 175.367 135.675 102.515 174.466 
142.029 102.167 174.754 122.775 103.828 175.678 142.118 104.796 174.555 
124.379 106.81 174.705 140.428 107.337 174.842 125.139 109.252 174.762 
126.398 110.707 174.197 129.597 114.838 174.942 130.706 114.942 174.743 
130.33 115.834 175.529 142.098 100.328 175.883 146.997 101.112 176.668 
147.493 101.248 176.825 148.032 100.976 177.134 141.388 101.04 175.34 
123.659 102.547 175.721 126.677 102.03 175.359 143.756 104.798 175.196 
129.868 116.272 176.231 138.99 100.044 176.163 147.75 100.491 177.287 
148.213 101.024 177.31 148.277 100.754 177.51 120.866 101.088 177.39 
147.921 101.641 177.062 148.321 101.285 177.469 148.462 101.17 177.715 
120.943 103.26 176.873 130.84 102.525 174.673 145.813 103.908 176.06 
127.988 115.244 176.636 131.718 117.319 177.341 121.935 99.258 178.156 
146.842 99.4116 177.871 147.83 99.9698 177.841 148.081 100.183 177.811 
118.561 100.028 178.637 132.314 100.056 176.677 118.259 101.261 178.48 
118.627 101.138 178.32 148.499 100.942 177.836 119.516 103.198 177.925 
147.665 104.087 178.064 148.273 102.573 178.254 141.465 108.927 176.045 
123.429 109.782 177.192 134.051 115.854 176.423 128.373 116.067 177.493 
132.887 116.907 176.945 135.082 116.971 177.54 147.263 99.1755 178.524 
119.273 98.9358 178.944 116.932 100.394 179.457 120.616 99.8679 178.047 
148.488 100.556 178.181 118.309 102.054 178.527 148.435 102.255 178.526 
148.162 103.62 178.975 146.976 105.726 177.955 147.768 106.013 179.454 
145.832 108.332 178.269 130.324 117.827 179.187 131.862 118.038 178.592 
132.782 118.211 178.622 134.612 118.308 178.679 114.087 97.6946 181.213 
132.752 98.2111 178.607 146.911 98.76 179.174 115.801 98.7066 180.342 
148.315 100.164 178.392 148.58 101.754 179.147 148.553 102.065 179.45 
118.28 104.502 179.756 148.297 103.622 179.752 124.51 113.056 179.319 
132.356 118.846 180.178 135.889 118.711 179.44 135.99 119.416 180.348 
119.985 96.5507 180.775 116.527 97.2982 180.692 144.739 97.6248 180.017 
113.835 97.7925 181.367 114.24 97.4058 181.28 116.385 97.8826 180.426 
123.714 97.4668 179.775 145.983 98.2356 179.561 147.628 99.1944 179.403 
148.467 100.688 179.57 117.646 103.026 179.516 147.147 110.607 180.878 
147.441 110.007 181.146 144.754 113.373 180.301 143.478 114.768 180.21 
141.865 116.057 179.98 137.99 117.916 179.453 135.228 119.75 181.094 
137.191 119.836 181.084 113.001 96.1949 182.399 113.166 97.0011 182 
145.54 97.6982 180.413 146.634 98.0929 180.89 146.504 98.1373 180.396 
147.039 98.4294 180.695 112.62 97.7077 182.259 147.688 99.1808 180.614 
147.279 111.174 181.539 146.942 112.148 181.816 128.986 117.771 181.404 
143.068 118.166 181.953 138.258 119.7 181.126 139.79 120.345 182.284 
137.473 120.107 181.488 139.968 120.433 182.547 112.462 95.071 183.22 
114.281 94.9446 182.913 110.713 95.5664 183.695 138.327 95.5409 182.018 
143.27 96.0809 182.389 111.288 96.7696 183.192 112.062 96.6742 182.734 
146.058 97.6528 181.386 147.413 98.7875 181.307 112.56 98.7275 182.439 
148.357 102.265 182.155 147.964 107.492 181.937 147.599 110.251 181.956 
146.36 114.448 182.559 146.59 114.132 182.835 145.044 117.702 183.273 
134.881 120.117 182.317 139.611 119.963 181.802 141.491 119.753 182.284 
137.603 120.283 182.086 108.24 94.5301 184.837 107.815 94.5637 185.027 
109.679 94.6661 184.32 108.71 95.3247 184.616 144.312 96.0596 183.327 
109.948 96.9456 184.111 145.899 97.271 182.533 146.629 97.9464 181.982 
110.667 97.5409 183.706 147.448 98.8665 181.979 147.766 99.4652 182.106 
147.747 99.6144 182.885 147.891 107.811 183.527 147.678 109.974 182.436 
145.959 116.151 183.241 146.225 115.763 183.4 134.556 120.211 183.125 
138.624 120.763 183.435 142.613 120.081 183.399 140.531 120.767 183.547 
111.408 92.9622 184.88 106.643 93.7777 185.649 109.574 93.6246 184.729 
141.209 94.97 183.497 108.071 95.3926 184.958 109.118 96.7104 184.618 
109.459 97.1572 184.512 114.404 103.394 183.677 117.138 106.879 183.832 
147.704 107.575 184.873 147.173 112.76 184.453 146.825 114.309 183.941 
146.623 115.053 183.881 130.712 119.008 184.708 145.263 118.588 184.532 
105.93 92.7537 186.133 110.071 92.0907 185.611 117.099 93.055 185.004 
105.506 93.9335 186.311 143.824 94.7795 185.702 144.872 95.8564 184.576 
145.988 96.9434 184.118 109.281 98.7101 185.582 147.225 98.6821 184.541 
146.248 117.635 185.494 139.255 121.047 184.946 105.632 91.3931 186.703 
111.255 91.5087 186.271 107.044 91.3058 186.475 115.169 92.024 186.195 
106.15 95.0786 186.148 107.361 96.091 185.664 109.212 99.525 186.375 
122.275 113.937 186.28 146.677 115.651 186.29 135.774 120.654 186.022 
144.818 119.741 185.826 143.606 120.687 185.68 101.218 90.256 188.473 
101.994 90.2411 188.222 103.141 89.6507 188.182 134.802 91.9643 187.533 
146.107 96.8705 186.508 147.154 108.553 186.951 122.067 113.944 186.82 
146.365 116.351 187.563 141.677 121.001 186.559 142.967 120.82 186.596 
143.504 120.581 186.936 143.491 120.772 185.91 95.1105 87.4216 190.392 
95.0284 87.2252 190.433 95.3778 87.5567 190.323 95.725 87.5445 190.26 
95.0943 87.6538 190.45 98.9946 89.0738 189.367 100.113 88.5271 189.236 
103.531 89.1103 188.45 106.612 88.884 188.631 143.891 94.1126 187.662 
145.437 95.8745 186.868 146.478 98.1087 188.075 146.679 98.9768 188.146 
146.801 99.8778 188.268 146.76 113.24 187.582 145.646 118.615 187.46 
144.991 119.652 186.719 144.397 120.079 187.073 94.3991 86.7746 190.741 
94.2935 87.2856 190.743 97.5126 88.0119 189.893 98.9399 87.3865 189.881 
100.509 87.9691 189.43 101.946 87.4507 189.673 95.7889 88.5529 190.433 
96.8803 88.486 190.016 96.3256 88.6734 190.231 99.3805 91.191 189.482 
131.423 90.9659 189.009 142.824 92.8349 189.406 132.688 119.657 189.395 
139.35 120.798 188.833 143.95 120.193 187.809 91.7919 86.0117 191.804 
92.4759 86.1162 191.575 91.9066 85.695 191.798 99.9501 85.987 190.719 
103.455 86.7859 190.332 108.745 87.9435 190.269 96.0909 88.9631 190.44 
101.004 94.0817 190.154 145.786 116.311 189.639 142.082 120.329 189.416 
144.772 119.257 188.543 82.8267 80.1139 193.82 83.5753 80.0767 193.674 
83.2743 80.4438 193.694 83.7352 80.2908 193.606 84.171 80.7842 193.567 
83.4888 80.7333 193.726 85.7669 82.3768 193.365 85.6488 82.4354 193.445 
85.944 82.3262 193.324 89.7757 83.6899 192.51 88.8386 84.0231 192.713 
90.6794 84.8057 192.238 89.4817 84.8223 192.644 91.1043 85.6248 192.175 
106.931 86.6164 191.588 91.6406 86.3634 192.084 93.8417 88.2242 191.489 
146.157 98.5725 190.471 137.673 120.36 190.712 140.589 120.6 189.428 
143.372 119.48 190.094 82.5808 79.778 194.034 82.4852 79.7531 194.157 
82.4957 79.8577 194.056 82.6524 79.9437 193.936 82.4871 79.993 194.09 
83.101 79.7455 193.905 82.6636 80.1961 193.987 83.4387 81.0204 193.956 
84.8148 81.5987 193.619 86.3043 81.4616 193.325 86.5759 82.5882 193.247 
88.9212 82.6595 192.834 90.609 83.7505 192.401 91.975 83.2634 192.531 
95.5562 83.8226 192.216 93.422 84.5119 191.833 90.1338 85.5478 192.674 
104.051 85.3777 192.201 93.2328 88.3987 192.165 136.332 89.9272 192.036 
145.806 97.1862 191.093 145.434 108.902 192.926 145.436 114.015 191.753 
120.873 114.596 192.608 124.842 116.587 191.813 83.3613 79.131 194.456 
83.0879 78.9357 194.879 84.3196 79.2991 194.2 82.3904 79.996 194.302 
82.3574 80.1459 194.639 90.1304 81.2826 193.541 85.4596 82.7885 193.788 
93.3845 82.0298 193.392 89.2406 85.968 193.629 135.44 89.2796 193.251 
144.48 93.8697 191.957 99.0582 94.417 192.717 83.362 78.3164 195.684 
82.7333 78.9474 195.363 84.2472 78.269 195.193 84.1583 78.5128 194.919 
82.3588 79.8708 194.481 82.3284 79.6911 194.968 85.5614 83.6703 194.536 
125.084 88.2268 194.013 139.029 89.9678 193.48 140.892 90.6142 193.582 
145.068 95.6773 194.124 115.862 110.905 193.664 144.409 115.995 193.28 
144.012 116.774 193.383 141.345 119.001 193.754 82.3663 79.2868 195.606 
84.9874 78.0803 195.364 88.1982 78.8161 195.021 81.8924 80.0888 196.052 
81.8846 80.2307 195.977 81.9054 80.3772 196.013 82.3222 80.899 195.442 
83.788 82.81 195.467 113.623 87.4074 193.811 116.273 87.5912 194.449 
143.166 92.0215 194.11 142.754 117.865 194.208 134.155 119.436 195.333 
138.904 119.599 194.367 83.4047 77.7917 196.899 88.0978 77.3355 196.376 
95.6764 80.4268 195.345 90.0345 88.0969 195.336 85.1726 76.2607 198.349 
86.2934 76.0876 197.957 84.0968 76.9765 197.822 82.1569 78.9681 197.141 
81.6263 79.7316 197.544 99.6296 80.0436 197.429 106.663 83.7167 196.781 
85.9294 85.388 196.491 97.2338 95.8533 197.483 143.973 111.871 197.274 
142.711 116.904 195.893 141.738 117.317 197.298 88.2123 75.5249 198.612 
89.1794 75.9886 198.122 82.0533 78.6825 198.985 98.8556 79.3355 197.96 
81.3909 79.9846 198.242 81.3108 80.1455 198.331 101.72 80.5961 198.123 
81.3765 80.2647 198.14 137.149 88.0943 197.8 141.274 90.0287 197.249 
143.288 92.0102 196.372 144.117 93.5962 197.088 114.154 110.76 197.624 
140.057 118.389 197.623 85.065 75.9806 199.566 81.2857 80.2354 198.458 
81.2622 80.4321 198.875 81.1156 81.0313 199.441 81.2996 81.0039 198.763 
81.5695 81.8059 198.764 138.615 88.3888 198.598 143.532 92.5267 198.309 
117.794 113.783 199.922 120.669 115.105 198.791 86.8878 74.8361 200.144 
86.864 74.8248 200.213 86.7505 74.929 200.113 87.0061 74.7825 200.268 
[...]
POINT_DATA 1436
SCALARS scalars float
LOOKUP_TABLE default
1 1 1 1 1 1 1 1 1 
1 1 1 1 1 1 1 1 1 
1 1 1 1 1 1 1 1 1 
1 1 1 1 1 1 1 1 1 
1 1 1 1 1 1 1 1 1 
1 1 1 1 1 1 1 1 1 
1 1 1 1 1 1 1 1 1 
1 1 1 1 1 1 1 1 1 
1 1 1 1 1 1 1 1 1 
1 1 1 1 1 1 1 1 1 
1 1 1 1 1 1 1 1 1 
1 1 1 1 1 1 1 1 1 
1 1 1 1 1 1 1 1 1 
1 1 1 1 1 1 1 1 1 
1 1 1 1 1 1 1 1 1 
1 1 1 1 1 1 1 1 1 
1 1 1 1 1 1 1 1 1 
1 1 1 1 1 1 1 1 1 
1 1 1 1 1 1 1 1 1 
1 1 1 1 1 1 1 1 1 
1 1 1 1 1 1 1 1 1 
1 1 1 1 1 1 1 1 1 
1 1 1 1 1 1 1 1 1 
1 1 1 1 1 1 1 1 1 
1 1 1 1 1 1 1 1 1 
1 1 1 1 1 1 1 1 1 
1 1 1 1 1 1 1 1 1 
1 1 1 1 1 1 1 1 1 
1 1 1 1 1 1 1 1 1 
1 1 1 1 1 1 1 1 1 
1 1 1 1 1 1 1 1 1 
1 1 1 1 1 1 1 1 1 
1 1 1 1 1 1 1 1 1 
1 1 1 1 1 1 1 1 1 
1 1 1 1 1 1 1 1 1 
1 1 1 1 1 1 1 1 1 
1 1 1 1 1 1 1 1 1 
1 1 1 1 1 1 1 1 1 
1 1 1 1 1 1 1 1 1 
1 1 1 1 1 1 1 1 1 
1 1 1 1 1 1 1 1 1 
1 1 1 1 1 1 1 1 1 
1 1 1 1 1 1 1 1 1 
1 1 1 1 1 1 1 1 1 
1 1 1 1 1 1 1 1 1 
1 1 1 1 1 1 1 1 1 
1 1 1 1 1 1 1 1 1 
1 1 1 1 1 1 1 1 1 
1 1 1 1 1 1 1 1 1 
1 1 1 1 1 1 1 1 1 
1 1 1 1 1 1 1 1 1 
1 1 1 1 1 1 1 1 1 
1 1 1 1 1 1 1 1 1 
1 1 1 1 1 1 1 1 1 
1 1 1 1 1 1 1 1 1 
1 1 1 1 1 1 1 1 1 
1 1 1 1 1 1 1 1 1 
1 1 1 1 1 1 1 1 1 
1 1 1 1 1 1 1 1 1 
1 1 1 1 1 1 1 1 1 
1 1 1 1 1 1 1 1 1 
1 1 1 1 1 1 1 1 1 
1 1 1 1 1 1 1 1 1 
1 1 1 1 1 1 1 1 1 
1 1 1 1 1 1 1 1 1 
1 1 1 1 1 1 1 1 1 
1 1 1 1 1 1 1 1 1 
1 1 1 1 1 1 1 1 1 
1 1 1 1 1 1 1 1 1 
1 1 1 1 1 1 1 1 1 
1 1 1 1 1 1 1 1 1 
1 1 1 1 1 1 1 1 1 
1 1 1 1 1 1 1 1 1 
1 1 1 1 1 1 1 1 1 
1 1 1 1 1 1 1 1 1 
1 1 1 1 1 1 1 1 1 
1 1 1 1 1 1 1 1 1 
1 1 1 1 1 1 1 1 1 
1 1 1 1 1 1 1 1 1 
1 1 1 1 1 1 1 1 1 
1 1 1 1 1 1 1 1 1 
1 1 1 1 1 1 1 1 1 
1 1 1 1 1 1 1 1 1 
1 1 1 1 1 1 1 1 1 
1 1 1 1 1 1 1 1 1 
1 1 1 1 1 1 1 1 1 
1 1 1 1 1 1 1 1 1 
1 1 1 1 1 1 1 1 1 
1 1 1 1 1 1 1 1 1 
1 1 1 1 1 1 1 1 1 
1 1 1 1 1 1 1 1 1 
1 1 1 1 1 1 1 1 1 
1 1 1 1 1 1 1 1 1 
1 1 1 1 1 1 1 1 1 
1 1 1 1 1 1 1 1 1 
1 1 1 1 1 1 1 1 1 
1 1 1 1 1 1 1 1 1 
1 1 1 1 1 1 1 1 1 
1 1 1 1 1 1 1 1 1 
1 1 1 1 1 1 1 1 1 
1 1 1 1 1 1 1 1 1 
1 1 1 1 1 1 1 1 1 
1 1 1 1 1 1 1 1 1 
1 1 1 1 1 1 1 1 1 
1 1 1 1 1 1 1 1 1 
1 1 1 1 1 1 1 1 1 
1 1 1 1 1 1 1 1 1 
1 1 1 1 1 1 1 1 1 
1 1 1 1 1 1 1 1 1 
1 1 1 1 1 1 1 1 1 
1 1 1 1 1 1 1 1 1 
1 1 1 1 1 1 1 1 1 
1 1 1 1 1 1 1 1 1 
1 1 1 1 1 1 1 1 1 
1 1 1 1 1 1 1 1 1 
1 1 1 1 1 1 1 1 1 
1 1 1 1 1 1 1 1 1 
1 1 1 1 1 1 1 1 1 
1 1 1 1 1 1 1 1 1 
1 1 1 1 1 1 1 1 1 
1 1 1 1 1 1 1 1 1 
1 1 1 1 1 1 1 1 1 
1 1 1 1 1 1 1 1 1 
1 1 1 1 1 1 1 1 1 
1 1 1 1 1 1 1 1 1 
1 1 1 1 1 1 1 1 1 
1 1 1 1 1 1 1 1 1 
1 1 1 1 1 1 1 1 1 
1 1 1 1 1 1 1 1 1 
1 1 1 1 1 1 1 1 1 
1 1 1 1 1 1 1 1 1 
1 1 1 1 1 1 1 1 1 
1 1 1 1 1 1 1 1 1 
1 1 1 1 1 1 1 1 1 
1 1 1 1 1 1 1 1 1 
1 1 1 1 1 1 1 1 1 
1 1 1 1 1 1 1 1 1 
1 1 1 1 1 1 1 1 1 
1 1 1 1 1 1 1 1 1 
1 1 1 1 1 1 1 1 1 
1 1 1 1 1 1 1 1 1 
1 1 1 1 1 1 1 1 1 
1 1 1 1 1 1 1 1 1 
1 1 1 1 1 1 1 1 1 
1 1 1 1 1 1 1 1 1 
1 1 1 1 1 1 1 1 1 
1 1 1 1 1 1 1 1 1 
1 1 1 1 1 1 1 1 1 
1 1 1 1 1 1 1 1 1 
1 1 1 1 1 1 1 1 1 
1 1 1 1 1 1 1 1 1 
1 1 1 1 1 1 1 1 1 
1 1 1 1 1 1 1 1 1 
1 1 1 1 1 1 1 1 1 
1 1 1 1 1 1 1 1 1 
1 1 1 1 1 1 1 1 1 
1 1 1 1 1 1 1 1 1 
1 1 1 1 1 1 1 1 1 
1 1 1 1 1 1 1 1 1 
1 1 1 1 1 
NORMALS Normals float
-0.063538 0.108287 -0.992087 0.0386053 -0.077201 -0.996268 -0.403654 0.318849 -0.857554 
-0.139601 0.322442 -0.936238 -0.141301 0.421368 -0.895814 -0.0948071 -0.289491 -0.952474 
-0.349828 -0.158188 -0.923362 0.189158 -0.044853 -0.980922 -0.420708 0.0419196 -0.906227 
-0.260527 0.469024 -0.843885 0.310736 -0.154725 -0.937818 0.0837004 0.34299 -0.935603 
-0.340621 0.534322 -0.773613 0.100037 -0.231227 -0.967743 0.0362305 -0.165328 -0.985573 
-0.238773 -0.280462 -0.929693 -0.2902 -0.254503 -0.922503 -0.413436 -0.0136786 -0.91043 
0.130722 0.208327 -0.969284 -0.5271 0.0335885 -0.849139 0.350599 0.329069 -0.876809 
0.284291 0.263403 -0.921844 -0.566095 0.536792 -0.625612 0.133688 0.508355 -0.850707 
-0.202875 0.558148 -0.804557 0.206778 -0.449708 -0.86891 -0.0014082 -0.538461 -0.842649 
0.171753 -0.40048 -0.900065 -0.570843 0.0638493 -0.818573 0.288613 0.221737 -0.931416 
-0.643199 0.171664 -0.746208 0.153097 0.47922 -0.864239 -0.633128 0.231511 -0.738615 
-0.589383 0.33736 -0.73404 -0.38254 0.568691 -0.728185 0.0182524 0.582755 -0.812443 
-0.141368 0.729748 -0.668942 0.174224 -0.745843 -0.642934 0.382717 -0.259031 -0.886809 
0.112895 -0.521303 -0.845871 0.601132 -0.164525 -0.78203 -0.00704158 -0.4944 -0.869206 
-0.317351 -0.352988 -0.880164 -0.180281 -0.523396 -0.8328 0.431309 0.228861 -0.872694 
-0.360721 0.769262 -0.527368 0.0018629 -0.740072 -0.672525 0.319648 -0.594878 -0.737527 
0.726275 -0.241395 -0.643625 0.777461 -0.304647 -0.550223 -0.36194 -0.283721 -0.887976 
0.706199 0.262466 -0.657568 0.832886 0.152849 -0.53192 0.912029 0.19777 -0.359291 
-0.564886 -0.036113 -0.824378 -0.102303 -0.604982 -0.78964 0.550937 0.200248 -0.810166 
-0.562625 0.632187 -0.532722 -0.0654298 0.753184 -0.654548 -0.134072 -0.640806 -0.755905 
0.214461 -0.776075 -0.593055 0.351469 -0.739562 -0.574036 0.687207 -0.565452 -0.456082 
-0.319169 -0.29179 -0.90166 -0.120904 -0.703874 -0.699959 -0.496112 -0.0324947 -0.867651 
-0.352349 -0.194703 -0.915391 0.952415 -0.146177 -0.267464 -0.58433 0.198518 -0.78686 
0.831251 0.329544 -0.447686 0.920501 0.280005 -0.272533 0.336348 0.44302 -0.831026 
-0.738996 0.420503 -0.526367 0.180935 0.544868 -0.818768 -0.567138 0.7524 -0.335036 
-0.00830663 0.686884 -0.72672 0.288524 0.55738 -0.778512 0.346249 -0.85558 -0.384829 
-0.179636 -0.470277 -0.864043 -0.536093 -0.0764029 -0.840694 -0.223067 -0.552639 -0.803014 
0.929361 -0.338769 -0.146712 -0.534293 0.119698 -0.836781 0.953687 0.225005 -0.199636 
0.923912 0.327941 -0.197085 0.64188 0.365644 -0.674014 0.935669 0.219992 -0.275912 
0.649335 0.36184 -0.668907 -0.323087 0.888026 -0.327146 -0.120741 0.891594 -0.436442 
-0.122804 0.888995 -0.441143 0.0852212 0.771313 -0.630725 -0.461896 -0.026244 -0.886546 
-0.0704747 -0.744916 -0.663425 0.431671 -0.844424 -0.317187 -0.414294 -0.229551 -0.88072 
0.849581 -0.516818 -0.105411 0.999228 -0.0373542 0.0121572 0.988092 0.152341 -0.0215885 
-0.670483 0.452828 -0.587707 0.958178 0.270892 -0.092262 -0.720377 0.593208 -0.359389 
-0.231043 0.925 -0.301653 0.0877603 0.772351 -0.629104 0.077814 0.833422 -0.547132 
-0.0601861 -0.669049 -0.740777 -0.203168 -0.549719 -0.810266 0.222313 -0.8951 -0.386488 
-0.544798 -0.0738173 -0.835312 -0.3523 -0.415771 -0.838462 -0.309472 -0.419306 -0.853469 
-0.0658177 -0.769274 -0.63552 0.344144 -0.821616 -0.454435 0.704048 -0.698886 -0.125996 
0.962097 -0.262172 0.0750637 -0.678882 0.351984 -0.644381 0.813862 0.319609 -0.485261 
0.871587 0.247529 -0.423163 0.59724 0.390507 -0.700577 0.420013 0.368798 -0.829203 
0.399299 0.413 -0.81853 0.278793 0.546321 -0.789815 -0.237371 0.882943 -0.405052 
-0.116362 0.887476 -0.445921 -0.400534 -0.370255 -0.838143 -0.505944 -0.150519 -0.849332 
0.333664 -0.903695 -0.268335 0.577442 -0.808789 -0.111447 0.496989 -0.812313 -0.305202 
0.63224 -0.750245 -0.193402 -0.528925 -0.0479258 -0.847314 0.823385 -0.567359 0.0118993 
0.924415 0.314731 -0.21541 0.780067 0.405224 -0.476749 -0.478297 0.858944 -0.182887 
0.465524 0.489346 -0.737447 0.156196 0.8012 -0.577651 0.212852 0.817811 -0.534677 
-0.0675067 0.919189 -0.387988 0.261644 0.833859 -0.486026 -0.186318 -0.551068 -0.813394 
-0.145916 -0.639925 -0.754457 -0.445518 -0.132601 -0.885399 0.0592253 -0.819213 -0.570423 
0.186336 -0.874678 -0.447456 -0.523552 -0.110138 -0.844845 -0.538964 -0.171 -0.824789 
0.408983 -0.891848 -0.193236 0.837313 -0.546712 -0.00355446 -0.578772 0.199501 -0.79071 
0.993842 -0.0668387 0.0883795 0.999314 0.0331276 -0.0165514 0.956339 0.227416 -0.183566 
0.827249 0.319037 -0.462466 0.885224 0.268478 -0.379866 0.724902 0.495935 -0.478086 
-0.181168 0.92818 -0.325053 0.333137 0.605254 -0.722972 0.31112 0.717006 -0.623784 
-0.129695 0.967293 -0.218001 -0.374503 -0.144265 -0.915934 -0.475606 -0.0829823 -0.875736 
-0.375338 -0.142281 -0.915903 -0.396622 0.0428949 -0.916979 0.415285 -0.848896 -0.326976 
-0.539963 0.205761 -0.816151 0.538669 -0.826895 -0.161496 0.713323 -0.695878 0.0832128 
-0.592298 0.238297 -0.769673 0.748576 -0.629925 0.206947 0.894779 -0.416111 0.161933 
0.933112 -0.314548 0.174246 0.995245 0.0168734 0.0959255 0.984164 0.17581 0.022625 
0.72032 0.494073 -0.486859 0.843447 0.40694 -0.350711 -0.346204 0.914347 -0.210029 
-0.0553831 0.956668 -0.285866 0.410398 0.765814 -0.495078 0.157696 0.932763 -0.324169 
0.0235185 -0.628424 -0.777516 -0.409186 -0.0784576 -0.909071 -0.262118 -0.383955 -0.885366 
0.217249 -0.879711 -0.422979 -0.483627 0.162405 -0.860075 -0.529784 0.173738 -0.830147 
-0.558734 0.36391 -0.745242 -0.685621 0.527499 -0.501667 -0.70258 0.573003 -0.421958 
0.977601 -0.000670026 0.210463 0.978757 0.200894 -0.0409489 0.948995 0.264762 -0.171202 
0.939456 0.332545 -0.082681 -0.353807 0.929868 -0.100823 0.716871 0.594853 -0.363656 
-0.316996 -0.251015 -0.914607 -0.0411145 -0.62825 -0.776925 -0.016556 -0.788713 -0.614538 
-0.669455 0.226866 -0.707362 0.471425 -0.825956 -0.309119 0.460531 -0.838141 -0.292287 
0.65394 -0.730948 -0.195135 -0.573168 0.451321 -0.68395 0.916151 -0.395152 0.0672446 
0.909124 0.395031 -0.132075 -0.07803 0.995017 -0.0620726 -0.194455 -0.479563 -0.855691 
0.119926 -0.750167 -0.650282 -0.0818688 -0.562339 -0.822844 0.0628556 -0.794507 -0.603993 
-0.71975 0.387328 -0.576139 -0.571469 0.305338 -0.761703 -0.661095 0.562682 -0.496329 
-0.661711 0.687523 -0.299084 0.988618 0.111408 0.101112 -0.178058 0.98402 0.00021684 
0.674404 0.729469 -0.114253 0.553961 0.809388 -0.194982 -0.258144 -0.194758 -0.946272 
-0.337059 -0.250867 -0.907445 -0.21985 -0.499187 -0.83814 0.0758662 -0.870015 -0.487153 
0.889345 -0.455608 0.0385673 0.950359 0.0989162 0.295013 -0.601326 0.758774 -0.250339 
0.959831 0.202628 0.194078 0.104336 0.983934 0.144872 0.189624 0.956549 0.221488 
0.4287 0.891656 0.145485 0.258608 0.962625 -0.0804692 -0.418114 0.0734183 -0.905423 
-0.323868 -0.0689151 -0.943589 -0.218633 0.158707 -0.962814 -0.21561 0.114156 -0.969784 
-0.430958 0.287763 -0.855259 -0.278545 -0.178958 -0.943603 -0.137639 -0.374183 -0.917084 
-0.163572 -0.53603 -0.828201 0.0664958 -0.692832 -0.718026 0.424745 -0.846091 -0.32206 
0.763557 -0.640479 -0.0822678 0.925221 -0.310369 0.218261 0.915459 -0.256096 0.310404 
0.931456 -0.122228 0.342709 0.97945 0.13159 0.152844 0.869287 0.448455 0.207913 
0.720556 0.692675 0.0316193 0.561719 0.821962 0.0940708 -0.404578 -0.190438 -0.894455 
-0.444718 0.0906065 -0.891076 -0.148969 -0.336747 -0.929736 -0.160136 -0.443648 -0.881778 
-0.111832 -0.440446 -0.890787 -0.018523 -0.558008 -0.829629 -0.393506 0.239949 -0.887456 
-0.296158 0.123158 -0.947166 -0.315085 0.274088 -0.908624 -0.487299 0.27742 -0.827996 
0.0385101 -0.85332 -0.519964 0.484967 -0.827926 -0.281684 -0.267159 0.961173 0.0690777 
0.0145552 0.993591 0.112089 0.511757 0.809674 0.287286 -0.43119 0.156744 -0.888542 
-0.326732 -0.00276632 -0.945113 -0.304173 -0.116325 -0.945488 0.0595525 -0.658411 -0.750298 
0.066729 -0.727887 -0.682442 0.187737 -0.774353 -0.604262 -0.475202 0.486662 -0.733037 
-0.580118 0.623019 -0.5247 0.924504 0.200924 0.323915 0.26519 0.916971 0.298057 
0.665414 0.660474 0.347848 -0.334921 0.0389124 -0.941442 -0.0457818 -0.455468 -0.889074 
-0.480189 0.362458 -0.798776 -0.0525716 -0.189275 -0.980516 -0.23823 0.264966 -0.934366 
-0.287772 0.35974 -0.887567 -0.201958 0.441008 -0.874485 -0.265642 0.566311 -0.780209 
-0.14016 0.23948 -0.960731 -0.0957163 -0.178813 -0.979216 -0.124447 -0.0393191 -0.991447 
-0.257248 -0.0380517 -0.965596 -0.378292 0.35572 -0.85461 -0.477266 0.153916 -0.865175 
0.297991 -0.802565 -0.516809 -0.529924 0.401328 -0.747072 -0.505168 0.41328 -0.757631 
0.931698 -0.0252701 0.362353 -0.0100936 0.975748 0.218664 0.140258 0.915081 0.378092 
0.332069 0.856673 0.394767 -0.36449 -0.545583 -0.754643 -0.660159 -0.612097 -0.435347 
-0.831609 -0.216696 -0.51134 -0.545512 -0.0516326 -0.836511 -0.775329 0.226685 -0.589474 
-0.146556 -0.536366 -0.831164 -0.680201 0.489995 -0.545189 -0.513291 0.519214 -0.683337 
-0.325652 0.177921 -0.928598 -0.102769 -0.0988982 -0.989777 -0.267774 0.213279 -0.939579 
-0.0919759 -0.212622 -0.972796 -0.0915055 -0.187627 -0.977969 -0.0129981 -0.391402 -0.920128 
-0.0210047 -0.57877 -0.81522 -0.124685 -0.3988 -0.908522 -0.357504 0.320778 -0.877093 
0.112703 -0.778239 -0.617772 -0.501137 0.701866 -0.506208 0.192397 -0.906994 -0.374628 
0.943743 -0.147433 0.295996 0.942424 0.260132 0.210164 0.946831 0.188418 0.260787 
-0.538335 0.830086 -0.145439 -0.421745 0.90432 -0.0658568 -0.195506 -0.722709 -0.662925 
-0.503996 -0.721382 -0.47497 0.0774572 -0.599519 -0.796604 -0.924661 0.205492 -0.320586 
-0.946805 0.150735 -0.284323 0.0979219 -0.525567 -0.845098 -0.585796 0.479382 -0.65348 
0.146694 -0.565182 -0.811819 -0.543395 0.593086 -0.594113 0.153007 -0.918112 -0.365594 
0.839212 -0.543394 -0.0211487 -0.585241 0.627539 -0.513506 -0.491945 -0.814749 -0.306877 
-0.68455 -0.64871 -0.332515 -0.0743579 -0.779528 -0.621938 -0.101994 -0.743651 -0.660742 
-0.969123 -0.160905 -0.186844 -0.897401 -0.373529 -0.234833 -0.566393 0.558962 -0.605608 
0.0609399 -0.917358 -0.393372 0.223328 -0.942661 -0.248022 0.405001 -0.865089 -0.295965 
0.955215 -0.27203 0.116464 -0.636928 0.720723 -0.273642 0.895617 0.351613 0.272466 
0.833973 0.413092 0.365846 0.470154 0.820865 0.324247 -0.779237 -0.564354 -0.272571 
-0.149893 -0.836096 -0.527707 0.0786279 -0.631867 -0.771079 -0.955582 -0.231752 -0.182083 
-0.989406 0.0257683 -0.142869 -0.937635 0.273507 -0.214557 -0.681778 0.591718 -0.430173 
-0.689964 0.605882 -0.396051 0.188584 -0.897155 -0.399436 0.0643304 -0.955382 -0.288284 
0.756828 -0.649002 -0.0775137 0.67722 0.615108 0.403752 -0.160401 0.981638 0.103238 
0.159306 0.963954 0.213105 -0.535819 -0.792136 -0.292266 0.110389 -0.705914 -0.699642 
0.170779 -0.687034 -0.706272 -0.482278 0.728829 -0.486021 -0.332135 -0.88434 -0.328069 
-0.160096 -0.828983 -0.535869 -0.516966 -0.812468 -0.269523 -0.776634 -0.620311 -0.109792 
-0.940764 -0.264365 -0.212306 0.328213 -0.831881 -0.447493 0.523737 -0.770886 -0.36254 
-0.694446 0.58442 -0.41976 -0.569456 0.697314 -0.435286 0.902264 0.280094 0.327821 
0.758906 0.545025 0.356384 0.720994 0.628463 0.291893 -0.0680488 -0.839758 -0.53868 
0.184255 -0.786996 -0.588802 -0.816185 -0.577161 -0.0269857 0.339963 -0.765712 -0.545994 
-0.863763 -0.503465 0.0208861 -0.958928 -0.223569 -0.17457 0.305858 -0.857639 -0.413408 
-0.95482 0.0621685 -0.29061 0.302253 -0.915191 -0.266588 0.498361 -0.850311 -0.169138 
0.80827 -0.588799 0.00387721 0.947133 -0.317373 0.0470434 -0.601881 0.774555 -0.194431 
0.303688 0.930592 0.204384 -0.461178 -0.864868 -0.198286 -0.98678 -0.160462 -0.0227586 
-0.959289 -0.281815 0.0185822 -0.993737 -0.049467 -0.100197 -0.950857 0.226091 -0.211552 
-0.906262 0.345742 -0.24321 0.43427 -0.861915 -0.26175 0.85388 -0.516529 0.0639271 
-0.45993 0.881162 -0.109628 -0.464257 0.882554 -0.0745841 -0.256748 -0.87819 -0.403562 
-0.439253 -0.8921 -0.105896 -0.45599 -0.846675 -0.274254 -0.0539408 -0.994815 0.0862217 
0.011892 -0.973208 -0.229617 0.270267 -0.809844 -0.52068 -0.795067 0.520476 -0.311406 
0.069987 -0.954672 -0.289316 -0.557391 0.734314 -0.387425 0.505176 -0.806573 -0.306981 
0.818401 -0.574353 -0.0183632 0.94228 0.185225 0.278928 -0.00405752 0.986713 0.162423 
-0.334573 -0.936647 0.103698 -0.340302 -0.886212 -0.31436 -0.349415 -0.927222 -0.13479 
-0.0990574 -0.915857 -0.389093 -0.57104 -0.820901 -0.00597714 -0.792421 -0.609191 0.0308986 
-0.923311 0.307622 -0.229926 0.0570421 -0.947257 -0.315357 0.638568 -0.748648 -0.178205 
0.954849 -0.27323 0.116657 -0.576689 0.772707 -0.265244 0.782509 0.586085 0.2102 
0.0017076 0.99136 0.13116 -0.462467 -0.879159 -0.114911 0.0798139 -0.891555 -0.445824 
-0.938127 -0.346281 0.00278677 -0.997548 -0.027953 -0.0641608 0.392863 -0.875479 -0.281416 
0.845201 -0.534042 0.0208321 -0.580006 0.771062 -0.262787 0.986189 -0.0799883 0.145029 
0.957911 0.139464 0.250911 0.779576 0.601186 0.175601 -0.251348 0.966557 0.0509007 
-0.383723 -0.901031 -0.202239 -0.337794 -0.936572 -0.0934206 -0.111483 -0.934214 -0.338846 
-0.714359 -0.686061 0.137884 0.191406 -0.969665 -0.152033 0.6791 -0.726992 -0.101513 
0.933978 -0.356544 0.0236995 0.911356 0.411224 -0.0180254 0.969676 0.221189 -0.103938 
0.929876 0.353506 0.101807 0.472308 0.856457 0.208344 -0.516273 -0.852143 0.085521 
-0.112002 -0.990653 -0.0778583 -0.510845 -0.857979 0.0539347 0.424769 -0.814609 -0.394948 
-0.951934 -0.305728 0.0187563 -0.973332 -0.227509 -0.0293892 -0.959435 0.174379 -0.221533 
0.172779 -0.968292 -0.180438 0.773174 -0.633202 -0.0354481 0.836616 -0.544957 -0.0556317 
-0.547196 0.776074 -0.313504 -0.469127 0.864415 -0.180851 0.926582 0.367704 0.0789936 
0.681874 0.703331 0.200934 0.0759961 0.993799 0.0811638 -0.429173 -0.898661 0.090651 
-0.627257 -0.751359 0.204957 0.572378 -0.779148 -0.255563 0.910079 -0.412853 0.0361853 
-0.462563 0.885831 -0.0365815 0.434577 0.894274 0.106853 0.250521 -0.913615 -0.320228 
-0.822681 -0.529379 0.207254 0.315442 -0.889789 -0.329806 0.148143 -0.926183 -0.346753 
-0.979623 -0.197819 -0.0347322 -0.960947 0.096376 -0.259408 0.310105 -0.938587 -0.15129 
0.585548 -0.801905 -0.118663 0.81834 -0.572763 -0.0475696 0.985723 -0.122528 0.115485 
0.766653 0.611966 0.194269 0.20402 0.978435 0.0322688 0.109343 -0.987372 -0.114635 
0.470475 -0.864285 -0.177947 -0.604541 -0.745182 0.281484 -0.968621 -0.245834 -0.0365984 
0.109791 -0.917495 -0.382295 -0.987581 -0.0323962 0.153734 -0.987468 0.130914 -0.0881399 
-0.972474 0.210846 -0.0991868 -0.838603 0.401016 -0.368689 -0.778534 0.490664 -0.391324 
-0.665795 0.614629 -0.423022 -0.357442 0.932238 0.0562851 0.816342 0.545417 0.190017 
0.598755 0.765629 0.235167 -0.0717831 0.995015 0.0692221 -0.972251 -0.138179 0.188772 
-0.973938 0.183151 0.133789 -0.949084 0.241969 -0.201719 0.400149 -0.911413 -0.0959515 
0.831978 0.547213 0.0914922 0.116337 -0.988805 -0.09343 -0.474549 -0.81804 0.324983 
-0.547878 -0.803614 0.232452 0.642638 -0.749132 -0.160681 -0.935102 -0.305221 0.180067 
-0.994569 -0.104032 -0.00319789 0.439493 -0.885314 -0.151873 0.888229 -0.459364 -0.00582233 
-0.588025 0.758834 -0.279996 -0.5446 0.822725 -0.162894 0.341615 0.924939 0.166696 
0.121161 -0.992201 0.0292666 -0.134672 -0.969114 0.206594 -0.235778 -0.962313 0.135507 
0.184622 -0.972749 -0.140263 -0.954256 0.237258 -0.181948 -0.889271 0.347209 -0.297729 
0.712017 -0.695419 -0.0970792 -0.679751 0.705618 -0.200106 -0.602426 0.787521 -0.129977 
0.953058 0.281265 0.11212 0.0192296 -0.952237 0.304754 0.251655 -0.962598 0.100373 
-0.127045 -0.94944 0.287094 -0.57795 -0.744722 0.333711 -0.693701 -0.637962 0.334341 
-0.999203 -0.00149576 0.0398909 -0.937173 0.304286 -0.170635 -0.890322 0.425277 -0.162682 
-0.843316 0.506574 -0.179448 0.738433 0.669411 0.0812774 0.0112153 -0.968703 0.247968 
0.531432 -0.846596 0.0292415 0.412543 -0.910587 0.0252723 0.549711 -0.835246 0.0135141 
0.653341 -0.75679 -0.0203505 -0.953435 0.281711 0.107702 -0.908405 0.416208 0.0396424 
0.429524 -0.891645 0.1431 -0.364026 -0.84052 0.401261 0.475379 -0.871072 0.123488 
0.17664 -0.96502 -0.19374 -0.96287 0.101701 0.250078 -0.969819 0.127383 0.207904 
0.89267 -0.450245 0.0205 -0.954017 0.297541 -0.0363582 -0.902375 0.376713 -0.209303 
-0.779718 0.621193 -0.0784805 -0.605208 0.790475 -0.0941918 -0.521592 0.838014 -0.160233 
-0.459855 0.867742 -0.188568 -0.0812556 0.995632 0.0459821 0.321044 0.939491 0.11953 
0.312756 -0.899278 0.305749 0.26844 -0.915643 0.299229 0.377014 -0.922539 -0.0823506 
-0.774618 -0.49996 0.387306 -0.945565 -0.16491 0.280555 -0.886638 0.450116 0.106152 
-0.907254 0.374736 0.190955 0.99721 -0.0432797 0.0608248 0.409021 0.906011 0.108839 