# vtk DataFile Version 4.2
vtk output
ASCII
DATASET POLYDATA
POINTS 1276 float
275 139.009 132.517 275 139.009 132.517 275 139.009 132.517 
275 139.009 132.517 275 139.009 132.517 275 139.009 132.518 
275 139.009 132.518 275 139.009 132.518 275 139.009 132.518 
281.644 136.003 134.351 281.644 136.003 134.351 281.644 136.003 134.351 
281.645 136.003 134.351 281.645 136.003 134.351 281.645 136.003 134.351 
278.377 138.01 136.937 279.141 137.832 136.869 279.474 137.881 136.823 
279.504 137.654 137.021 281.644 136.003 134.351 280.033 137.804 136.885 
281.645 136.003 134.351 278.422 138.09 136.819 278.249 138.128 136.872 
278.29 138.156 136.819 278.621 138.121 136.786 279.295 138.095 136.742 
280.038 137.931 136.852 275 139.009 132.518 278.333 138.257 136.848 
279.052 138.252 136.752 281.644 136.003 134.351 281.645 136.003 134.351 
281.645 136.003 134.351 281.645 136.003 134.351 280.875 137.774 137.163 
281.645 136.003 134.351 278.208 138.188 136.873 278.011 138.25 137.083 
279.666 138.27 136.789 274.992 140.11 137.769 275.928 139.648 137.477 
278.178 138.744 136.992 275.323 140.181 137.602 275.481 140.464 137.58 
276.468 139.821 137.277 281.645 136.003 134.351 278.036 137.927 137.399 
279.258 137.342 137.61 282.096 137.235 137.734 282.751 137.445 137.769 
279.882 138.436 136.894 280.396 138.29 136.992 282.211 137.789 137.537 
279.523 138.815 136.993 271.716 143.184 138.889 271.616 143.332 138.984 
289.485 134.774 139.107 290.926 134.77 138.904 291.417 134.533 139.12 
292.082 134.823 138.857 293.747 134.781 139.195 287.415 135.403 138.887 
289.522 135.572 138.535 281.348 136.872 138.042 284.229 136.634 138.375 
274.486 139.756 138.352 274.424 139.488 138.82 280.86 138.906 137.341 
274.195 140.057 138.297 271.717 142.431 138.95 271.205 143.442 139.233 
272.274 143.384 138.888 293.346 134.317 139.404 293.149 134.331 139.422 
293.537 134.376 139.458 294.651 134.648 139.753 286.842 135.192 139.264 
287.746 134.896 139.42 292.018 135.431 138.628 293.863 135.45 138.955 
296.097 135.005 140.066 285.955 135.245 139.689 296.846 135.953 139.546 
298.936 136.559 139.715 299.285 136.279 140.046 281.147 136.418 139.093 
286.406 136.803 138.347 286.211 137.76 138.261 301.891 138.481 140.015 
301.818 138.145 140.074 301.433 138.911 139.673 267.532 146.075 140.464 
266.305 147.284 140.503 266.278 147.176 140.503 266.101 147.401 140.561 
264.663 148.633 140.773 264.867 148.583 140.787 261.992 150.215 141.059 
261.944 150.185 141.09 261.945 150.274 141.084 262.049 150.157 141.091 
258.728 152.236 141.355 258.691 152.221 141.377 258.696 152.278 141.378 
256.545 153.832 141.66 256.558 153.816 141.701 256.557 153.836 141.692 
256.577 153.806 141.703 256.576 153.826 141.693 289.988 134.317 139.874 
293.473 134.277 139.726 296.876 137.057 139.112 299.149 137.695 139.269 
301.872 137.511 140.496 298.09 138.163 139.087 302.298 138.092 140.638 
287.063 138.644 138.501 296.104 138.755 138.992 271.229 141.306 139.927 
270.976 141.199 140.309 302.01 140.962 139.985 303.193 140.904 140.84 
303.681 141.904 141.235 302.135 144.41 140.394 302.844 144.103 140.665 
303.171 143.738 140.822 268.322 145.702 140.345 268.491 146.287 140.442 
302.565 146.329 140.964 264.338 147.744 140.848 265.867 148.141 140.725 
264.121 148.544 140.879 261.982 149.955 141.188 261.778 150.326 141.163 
262.301 150.187 141.164 264.091 149.142 141.001 261.986 150.401 141.157 
258.683 152.116 141.486 258.623 152.282 141.425 259.094 152.133 141.51 
258.129 152.668 141.575 258.154 152.563 141.571 258.014 152.693 141.652 
258.71 152.399 141.489 258.246 152.618 141.558 256.647 153.726 141.862 
256.57 153.826 141.774 256.663 153.777 141.776 258.163 152.786 141.644 
256.421 153.999 142.041 256.442 153.95 142.035 256.641 153.826 141.813 
256.468 153.992 142.034 256.449 154.025 142.1 287.467 134.592 141.047 
283.3 135.705 140.066 298.453 135.325 140.941 301.34 136.709 140.846 
293.384 137.629 138.678 295.112 139.516 139.088 288.249 140.44 139.25 
303.498 140.291 141.301 269.628 142.036 140.675 303.778 143.232 141.266 
266.602 144.785 140.882 298.216 144.624 140.066 269.067 146.743 140.601 
263.846 147.908 140.971 267.58 148.014 140.982 269.614 147.164 140.847 
299.961 147.699 140.833 261.205 150.397 141.317 260.781 150.078 141.491 
262.977 149.555 141.163 259.74 150.96 141.546 258.394 152.389 141.539 
258.325 152.01 141.726 258.059 152.437 141.683 259.84 151.941 141.518 
261.996 151.144 141.494 257.798 152.68 141.798 258.462 152.672 141.609 
256.55 153.873 141.974 256.592 153.624 142.153 256.859 153.352 142.113 
256.976 153.65 141.979 257.87 153.005 141.823 256.424 153.929 142.394 
256.737 153.918 142.043 256.587 154.049 142.189 256.458 154.047 142.264 
300.315 135.796 141.367 303.015 138.364 141.752 271.571 140.15 141.917 
267.973 141.881 142.724 304.123 142.68 141.662 276.008 145.528 140.722 
262.789 148.038 141.418 269.499 147.82 141.201 270.297 147.504 141.142 
261.211 149.13 141.698 265.646 149.302 141.188 299.637 149.399 141.407 
264.433 150.011 141.389 259.28 151.097 141.667 303.112 150.067 142.751 
260.402 152.183 141.636 261.774 151.743 141.747 300.947 151.078 142.201 
257.373 152.971 142.001 257.331 152.514 142.217 300.962 151.937 142.663 
302.322 151.714 143.026 257.525 153.386 141.99 257.508 153.826 142.242 
256.447 154.075 142.473 256.428 154.031 142.734 287.136 134.641 141.95 
301.4 136.02 142.191 301.457 135.934 142.448 300.845 135.71 142.337 
301.676 136.335 142.088 304.648 141.161 143.149 267.056 142.804 142.256 
291.113 143.351 140.487 267.146 143.361 141.476 295.079 147.087 141.358 
261.606 147.573 142.426 257.763 151.758 142.242 257.679 151.658 142.36 
257.355 151.839 142.708 258.131 151.208 142.395 256.83 152.701 142.771 
256.482 153.428 143.017 256.849 154.547 143.531 257.435 154.546 143.128 
301.589 135.959 142.639 301.337 135.839 142.691 301.976 136.266 142.922 
268.764 141.274 143.762 263.777 144.097 144.561 304.953 142.542 143.837 
294.005 147.554 141.82 303.993 150.009 143.64 256.699 152.626 143.186 
256.388 153.501 143.82 302.999 152.668 144.119 256.426 153.974 143.762 
256.523 154.2 143.436 256.544 154.334 144.111 257.069 154.975 144.144 
302.045 136.151 143.358 267.271 142.028 144.158 267.06 142.123 144.661 
263.51 144.573 143.997 303.901 151.839 144.614 304.196 151.58 144.976 
301.152 135.617 144.688 303.916 138.415 145.266 304.482 139.596 145.078 
260.574 146.541 144.988 305.419 146.959 145.729 256.282 153.828 144.923 
300.153 156.475 145.775 300.373 135.279 145.583 303.993 138.455 146.141 
305.358 143.084 146.337 256.323 155.232 147.104 256.466 155.926 147.444 
260.695 157.207 146.329 294.44 134.678 147.382 302.037 136.152 146.074 
263.658 143.996 147.041 258.285 148.014 147.819 258.216 148.076 147.703 
258.645 147.779 147.467 257.91 148.547 147.855 256.107 152.901 146.617 
259.798 157.906 146.863 259.065 158.2 147.151 256.946 159.251 149.58 
302.936 136.971 146.879 304.861 140.607 148.165 258.247 148.095 148.058 
258.497 147.898 148.418 257.739 148.639 148.438 256.456 157.85 149.563 
258.768 158.716 147.747 300.552 159.32 148.92 257.6 160.303 149.71 
295.181 134.63 149.001 256.216 152.146 147.968 304.541 154.271 148.902 
268.417 156.453 147.977 302.187 158.62 149.929 256.931 160.434 150.441 
256.479 161.932 151.441 256.475 161.867 151.473 256.465 161.971 151.51 
256.541 161.962 151.48 295.96 134.509 150.415 257.117 149.797 149.666 
257.248 149.707 150.139 256.375 151.684 149.519 299.348 160.423 149.677 
258.954 161.53 150.299 256.437 161.785 151.683 256.632 161.604 151.352 
256.489 162.059 151.686 256.776 162.254 151.636 256.551 163.841 152.603 
256.522 163.699 152.62 256.629 163.737 152.521 256.603 163.935 152.626 
264.178 144.605 151.576 258.374 148.51 150.71 256.072 153.837 150.269 
256.4 162.123 152.259 256.553 163.265 152.499 257.116 162.974 151.854 
256.928 163.623 152.346 260.444 147.295 152.288 258.791 163.697 152.071 
256.975 165.141 153.505 301.761 136.253 152.084 303.288 138.275 152.104 
303.455 138.792 152.48 256.348 164.319 154.067 256.809 165.357 153.863 
256.685 165.476 154.246 256.882 165.697 154.092 256.301 164.486 155.805 
256.743 165.978 154.709 257.064 166.333 154.623 256.829 166.307 154.808 
256.955 166.455 154.811 257.157 166.693 155.159 256.872 166.396 154.782 
298.024 134.379 154.574 258.372 150.343 154.911 302.697 160.8 155.436 
256.9 166.403 155.707 256.914 166.457 154.907 257.486 167.21 155.587 
259.298 167.197 155.313 257.304 167.292 155.846 257.437 167.388 155.835 
257.711 167.577 156.188 257.35 167.361 155.82 295.566 133.758 156.554 
305.142 149.285 155.259 257.349 167.285 156.095 257.441 167.329 156.732 
258.907 168.496 156.898 258.192 168.35 157.047 258.672 168.769 157.392 
258.261 168.514 157.217 294.634 133.666 156.819 296.066 133.838 157.249 
299.118 135.016 156.108 300.439 136.223 156.618 303.978 158.161 157.342 
261.037 168.501 157.023 258.422 168.676 157.69 258.365 168.615 157.351 
258.993 169.25 157.926 298.134 134.658 157.697 296.612 134.016 157.555 
300.934 137.42 157.424 301.695 140.925 158.731 290.058 168.643 158.158 
283.38 169.466 158.061 259.172 169.429 158.364 298.107 134.732 158.055 
286.98 134.309 159.122 299.472 165.798 159.265 266.918 168.259 158.23 
258.996 169.168 158.966 259.41 169.529 158.419 296.925 134.308 158.771 
256.276 158.431 159.826 285.451 171.025 160.108 262.461 170.787 159.921 
262.889 171.163 160.537 262.041 171.148 160.514 261.814 171.152 160.606 
262.049 171.24 160.794 299.331 138.725 160.955 258.749 151.857 160.445 
288.94 171.547 162.203 262.166 171.302 161.136 293.534 133.948 160.875 
297.186 135.127 160.295 297.911 135.85 160.429 294.932 168.991 161.475 
265.173 172.41 162.308 265.226 172.95 163.158 294.551 134.414 161.709 
295.553 134.834 161.59 257.598 154.462 163.458 256.873 155.809 161.818 
297.103 168.278 162.619 285.652 173.085 163.361 264.653 172.717 163.447 
266.259 173.26 163.535 293.101 134.431 162.493 293.984 134.536 162.456 
[...]
POINT_DATA 1276
SCALARS scalars float
LOOKUP_TABLE default
1 1 1 1 1 1 1 1 1 
1 1 1 1 1 1 1 1 1 
1 1 1 1 1 1 1 1 1 
1 1 1 1 1 1 1 1 1 
1 1 1 1 1 1 1 1 1 
1 1 1 1 1 1 1 1 1 
1 1 1 1 1 1 1 1 1 
1 1 1 1 1 1 1 1 1 
1 1 1 1 1 1 1 1 1 
1 1 1 1 1 1 1 1 1 
1 1 1 1 1 1 1 1 1 
1 1 1 1 1 1 1 1 1 
1 1 1 1 1 1 1 1 1 
1 1 1 1 1 1 1 1 1 
1 1 1 1 1 1 1 1 1 
1 1 1 1 1 1 1 1 1 
1 1 1 1 1 1 1 1 1 
1 1 1 1 1 1 1 1 1 
1 1 1 1 1 1 1 1 1 
1 1 1 1 1 1 1 1 1 
1 1 1 1 1 1 1 1 1 
1 1 1 1 1 1 1 1 1 
1 1 1 1 1 1 1 1 1 
1 1 1 1 1 1 1 1 1 
1 1 1 1 1 1 1 1 1 
1 1 1 1 1 1 1 1 1 
1 1 1 1 1 1 1 1 1 
1 1 1 1 1 1 1 1 1 
1 1 1 1 1 1 1 1 1 
1 1 1 1 1 1 1 1 1 
1 1 1 1 1 1 1 1 1 
1 1 1 1 1 1 1 1 1 
1 1 1 1 1 1 1 1 1 
1 1 1 1 1 1 1 1 1 
1 1 1 1 1 1 1 1 1 
1 1 1 1 1 1 1 1 1 
1 1 1 1 1 1 1 1 1 
1 1 1 1 1 1 1 1 1 
1 1 1 1 1 1 1 1 1 
1 1 1 1 1 1 1 1 1 
1 1 1 1 1 1 1 1 1 
1 1 1 1 1 1 1 1 1 
1 1 1 1 1 1 1 1 1 
1 1 1 1 1 1 1 1 1 
1 1 1 1 1 1 1 1 1 
1 1 1 1 1 1 1 1 1 
1 1 1 1 1 1 1 1 1 
1 1 1 1 1 1 1 1 1 
1 1 1 1 1 1 1 1 1 
1 1 1 1 1 1 1 1 1 
1 1 1 1 1 1 1 1 1 
1 1 1 1 1 1 1 1 1 
1 1 1 1 1 1 1 1 1 
1 1 1 1 1 1 1 1 1 
1 1 1 1 1 1 1 1 1 
1 1 1 1 1 1 1 1 1 
1 1 1 1 1 1 1 1 1 
1 1 1 1 1 1 1 1 1 
1 1 1 1 1 1 1 1 1 
1 1 1 1 1 1 1 1 1 
1 1 1 1 1 1 1 1 1 
1 1 1 1 1 1 1 1 1 
1 1 1 1 1 1 1 1 1 
1 1 1 1 1 1 1 1 1 
1 1 1 1 1 1 1 1 1 
1 1 1 1 1 1 1 1 1 
1 1 1 1 1 1 1 1 1 
1 1 1 1 1 1 1 1 1 
1 1 1 1 1 1 1 1 1 
1 1 1 1 1 1 1 1 1 
1 1 1 1 1 1 1 1 1 
1 1 1 1 1 1 1 1 1 
1 1 1 1 1 1 1 1 1 
1 1 1 1 1 1 1 1 1 
1 1 1 1 1 1 1 1 1 
1 1 1 1 1 1 1 1 1 
1 1 1 1 1 1 1 1 1 
1 1 1 1 1 1 1 1 1 
1 1 1 1 1 1 1 1 1 
1 1 1 1 1 1 1 1 1 
1 1 1 1 1 1 1 1 1 
1 1 1 1 1 1 1 1 1 
1 1 1 1 1 1 1 1 1 
1 1 1 1 1 1 1 1 1 
1 1 1 1 1 1 1 1 1 
1 1 1 1 1 1 1 1 1 
1 1 1 1 1 1 1 1 1 
1 1 1 1 1 1 1 1 1 
1 1 1 1 1 1 1 1 1 
1 1 1 1 1 1 1 1 1 
1 1 1 1 1 1 1 1 1 
1 1 1 1 1 1 1 1 1 
1 1 1 1 1 1 1 1 1 
1 1 1 1 1 1 1 1 1 
1 1 1 1 1 1 1 1 1 
1 1 1 1 1 1 1 1 1 
1 1 1 1 1 1 1 1 1 
1 1 1 1 1 1 1 1 1 
1 1 1 1 1 1 1 1 1 
1 1 1 1 1 1 1 1 1 
1 1 1 1 1 1 1 1 1 
1 1 1 1 1 1 1 1 1 
1 1 1 1 1 1 1 1 1 
1 1 1 1 1 1 1 1 1 
1 1 1 1 1 1 1 1 1 
1 1 1 1 1 1 1 1 1 
1 1 1 1 1 1 1 1 1 
1 1 1 1 1 1 1 1 1 
1 1 1 1 1 1 1 1 1 
1 1 1 1 1 1 1 1 1 
1 1 1 1 1 1 1 1 1 
1 1 1 1 1 1 1 1 1 
1 1 1 1 1 1 1 1 1 
1 1 1 1 1 1 1 1 1 
1 1 1 1 1 1 1 1 1 
1 1 1 1 1 1 1 1 1 
1 1 1 1 1 1 1 1 1 
1 1 1 1 1 1 1 1 1 
1 1 1 1 1 1 1 1 1 
1 1 1 1 1 1 1 1 1 
1 1 1 1 1 1 1 1 1 
1 1 1 1 1 1 1 1 1 
1 1 1 1 1 1 1 1 1 
1 1 1 1 1 1 1 1 1 
1 1 1 1 1 1 1 1 1 
1 1 1 1 1 1 1 1 1 
1 1 1 1 1 1 1 1 1 
1 1 1 1 1 1 1 1 1 
1 1 1 1 1 1 1 1 1 
1 1 1 1 1 1 1 1 1 
1 1 1 1 1 1 1 1 1 
1 1 1 1 1 1 1 1 1 
1 1 1 1 1 1 1 1 1 
1 1 1 1 1 1 1 1 1 
1 1 1 1 1 1 1 1 1 
1 1 1 1 1 1 1 1 1 
1 1 1 1 1 1 1 1 1 
1 1 1 1 1 1 1 1 1 
1 1 1 1 1 1 1 1 1 
1 1 1 1 1 1 1 1 1 
1 1 1 1 1 1 1 1 1 
1 1 1 1 1 1 1 
NORMALS Normals float
0.00990495 -0.14659 -0.989148 -0.247686 -0.849449 -0.465927 -0.676508 0.346568 -0.649791 
0.707647 -0.497192 -0.502032 0.333912 0.757669 -0.560749 0.304343 -0.834271 0.459746 
-0.67426 -0.546524 0.496674 0.69084 0.391904 0.607579 -0.298259 0.77132 0.562234 
0.0019346 -0.739708 0.672926 -0.0203601 -0.693849 0.719833 0 -0.707107 0.707107 
0.479283 -0.564365 -0.672146 -0.0526394 -0.684941 0.726694 -0.13852 -0.573105 0.80769 
-0.417814 -0.764003 -0.491662 -0.125145 -0.647808 -0.751454 0.0456741 -0.421994 -0.905448 
-0.0144431 -0.780332 -0.625198 0.0336015 0.682239 -0.730357 0.125936 -0.561055 -0.818143 
0.153882 0.554903 -0.817559 -0.182249 -0.498105 -0.847748 -0.5395 -0.633307 -0.554853 
-0.362564 -0.139158 -0.921511 -0.114003 0.118106 -0.986435 -0.0193886 -0.0215364 -0.99958 
0.269396 -0.0393711 -0.962224 -0.0239846 -0.098275 0.99487 -0.281369 0.289475 -0.914896 
-0.0519873 0.27233 -0.960798 0 -0.707107 0.707107 0 -0.707107 0.707107 
-0.0897504 -0.617119 0.781734 0 0 0 0.28068 -0.25262 -0.92596 
0.0936092 0.609697 -0.787088 -0.631997 0.0422453 -0.773819 -0.581276 -0.296237 -0.757867 
0.0640752 0.0781573 -0.99488 -0.459029 -0.24806 -0.853088 -0.407924 -0.392573 -0.824309 
-0.193067 0.155015 -0.968863 -0.360918 -0.0064736 -0.932575 -0.143948 0.26454 -0.953571 
-0.115089 0.181548 -0.976624 0 -0.707107 0.707107 -0.491356 -0.777903 -0.391708 
-0.179358 -0.879277 -0.441252 0.202596 -0.617812 -0.759779 0.464334 -0.16651 -0.869867 
0.134382 0.396684 -0.908066 0.356496 0.154316 -0.921465 0.374762 0.0239602 -0.926812 
0.0943546 0.351195 -0.931536 -0.350603 0.178331 -0.919389 -0.267773 0.518672 -0.811959 
-0.113769 -0.657552 -0.74477 -0.0825183 -0.619318 -0.780792 -0.0520267 -0.868029 -0.49378 
0.142687 -0.479779 -0.86571 0.137743 -0.45652 -0.878986 -0.161912 -0.594988 -0.787257 
-0.0417088 -0.397272 -0.916752 0.036789 -0.80501 -0.59212 0.0393874 -0.471446 -0.881015 
-0.475124 -0.636603 -0.607449 -0.491926 -0.817289 -0.300081 0.36 0.234888 -0.902899 
-0.543596 -0.528193 -0.652316 -0.500195 -0.217339 -0.838194 -0.307939 0.334308 -0.890736 
-0.114909 0.502177 -0.857096 -0.0144214 0.696886 -0.717036 0.0281518 -0.709766 -0.703875 
0.294701 -0.621897 -0.725531 0.335981 -0.782123 -0.524786 -0.278771 -0.707622 -0.649275 
-0.253984 -0.847003 -0.466989 0.0644548 -0.237156 -0.969331 0.132719 -0.251607 -0.958686 
0.223104 -0.577901 -0.785019 -0.263398 -0.845336 -0.46479 0.15636 -0.547522 -0.822053 
0.31883 -0.410877 -0.854124 0.512462 -0.457779 -0.726513 -0.337842 -0.938803 -0.0671736 
0.0559684 -0.173164 -0.983302 0.0520102 0.0758418 -0.995762 0.701663 -0.182338 -0.688783 
0.382741 -0.432616 -0.816304 0.306177 -0.0967094 -0.94705 -0.0737214 0.0737294 -0.99455 
0.0716666 0.167908 -0.983194 -0.0333894 0.00227581 -0.99944 -0.0590149 0.236113 -0.969932 
-0.0108718 0.180123 -0.983584 -0.0398958 0.027444 -0.998827 0.0179623 0.0170123 -0.999694 
-0.385405 -0.310385 -0.868979 -0.282929 0.243053 -0.927834 0.0883943 -0.437748 -0.894742 
0.046198 -0.0474046 -0.997807 -0.535863 -0.283068 -0.795439 -0.317372 0.395096 -0.862076 
-0.277548 -0.222096 -0.934687 -0.871267 -0.487186 0.0595319 -0.350338 0.936021 0.0335766 
0.112028 -0.799881 -0.58961 0.703591 0.414376 -0.57728 -0.104019 -0.946722 -0.30479 
0.0786909 -0.993185 -0.0859736 0.105921 -0.26834 -0.957483 0.18239 -0.260558 -0.948074 
0.681874 -0.477107 -0.554452 0.109048 -0.0895588 -0.989994 0.799895 -0.365072 -0.476331 
0.0287438 0.16474 -0.985918 0.126463 0.167735 -0.977687 -0.58817 -0.596416 -0.546209 
-0.5815 -0.605537 -0.543307 0.41837 0.0131555 -0.908181 0.639568 -0.132248 -0.757273 
0.774274 -0.0690712 -0.62907 0.266374 0.0997595 -0.958693 0.554254 0.173581 -0.814047 
0.533248 -0.0100097 -0.8459 -0.0378789 0.0974684 -0.994518 -0.0635463 0.483984 -0.872767 
0.675008 0.240895 -0.697376 -0.297841 -0.173593 -0.938699 0.155169 0.320125 -0.934581 
-0.264718 -0.0822587 -0.960811 -0.195084 -0.292774 -0.936069 -0.350593 0.126887 -0.927892 
0.19412 -0.00692496 -0.980953 -0.187903 0.244381 -0.951299 0.0546174 0.412847 -0.909161 
-0.339958 -0.498876 -0.797215 -0.559179 0.0850958 -0.824668 0.13707 -0.0212617 -0.990333 
-0.274752 0.254284 -0.927282 -0.391327 -0.150362 -0.907885 -0.517902 0.105337 -0.84893 
0.0453466 0.498329 -0.865801 0.0136732 0.2415 -0.970304 -0.513328 -0.771366 -0.37615 
-0.933213 0.338248 0.121254 0.571882 -0.239445 -0.784613 -0.121783 0.46523 -0.876773 
-0.736363 0.514571 -0.439301 -0.728674 -0.257497 -0.63461 0.354866 0.878933 -0.318664 
0.0448822 0.624618 -0.77964 -0.128167 0.950938 -0.281587 -0.272146 -0.960807 -0.0527812 
-0.239521 -0.947195 -0.213194 0.265549 -0.829203 -0.491839 0.410194 -0.684756 -0.602371 
0.0751086 0.0334455 -0.996614 0.177087 0.265506 -0.947706 0.0712872 0.389811 -0.918132 
0.790932 -0.245539 -0.560479 -0.501278 -0.712557 -0.4909 0.711333 0.135051 -0.689758 
-0.36393 -0.249998 -0.897249 -0.0967551 0.191348 -0.976742 0.132522 0.290626 -0.947615 
-0.333026 -0.172006 -0.927096 0.213644 0.344912 -0.913998 -0.057682 0.567655 -0.821244 
0.103862 0.24663 -0.963528 -0.139421 0.0258959 -0.989895 -0.392541 -0.35653 -0.847819 
-0.0901975 0.0465198 -0.994837 -0.33645 -0.3453 -0.87611 -0.291096 -0.0727615 -0.953923 
-0.50345 -0.415359 -0.757638 -0.545686 -0.333123 -0.768932 -0.051675 0.0673495 -0.99639 
0.138816 0.488568 -0.861412 -0.566879 -0.199582 -0.799259 0.0883999 0.444525 -0.891394 
-0.473602 0.450446 -0.756835 -0.803894 -0.458836 -0.378449 -0.392845 -0.449444 -0.802292 
0.243073 0.0997587 -0.964865 -0.445318 0.111809 -0.888364 -0.995813 -0.0758174 -0.0510724 
0.210063 0.762938 -0.611392 0.0884674 0.878924 -0.468685 -0.574596 0.804144 -0.152288 
0.376094 -0.790296 -0.483721 0.840949 -0.384448 -0.380795 -0.446655 -0.85919 -0.249583 
-0.532226 -0.788813 -0.307422 0.808292 -0.0255463 -0.588227 0.0361619 0.412638 -0.910177 
-0.341396 -0.324342 -0.882186 -0.0217893 0.454023 -0.890724 0.113139 0.302779 -0.946321 
-0.40639 -0.354699 -0.842043 0.254163 0.446945 -0.857695 0.0258681 0.382469 -0.923606 
0.138407 0.431104 -0.891624 -0.274026 -0.360545 -0.891581 0.425552 0.335964 -0.840258 
0.154281 0.502098 -0.850938 0.314437 0.472387 -0.823395 0.22477 0.374521 -0.899563 
-0.358813 -0.119866 -0.925681 -0.634263 -0.4372 -0.637626 -0.0274349 0.464911 -0.884932 
0.575602 0.336746 -0.745175 0.125178 0.310786 -0.942201 0.538335 0.51374 -0.668032 
-0.881646 0.468325 -0.0580768 -0.956411 0.291188 0.0221025 -0.249863 -0.967839 0.0292477 
0.399303 -0.759473 -0.513574 0.510522 -0.787925 -0.344299 0.279269 -0.875859 -0.393548 
0.632821 -0.617327 -0.467381 0.935843 -0.189729 -0.296987 -0.607864 -0.745128 -0.274381 
0.0493398 0.376893 -0.924942 -0.533524 -0.598246 -0.597875 -0.23261 0.317885 -0.919153 
-0.543117 -0.556044 -0.629157 -0.589281 -0.381025 -0.712438 -0.663869 -0.466343 -0.584638 
-0.778934 -0.554502 -0.292898 -0.562216 -0.701204 -0.438436 -0.804449 -0.485001 -0.342982 
-0.975583 -0.188327 -0.113003 -0.609909 0.771357 -0.18171 0.0402014 0.828409 -0.558679 
0.57079 -0.813255 -0.113205 0.398944 -0.907456 -0.131785 0.744432 -0.620053 -0.2477 
-0.458284 -0.886044 -0.0700096 -0.613663 -0.745526 -0.260017 0.94376 -0.0039931 -0.330607 
-0.131842 0.244045 -0.96076 0.849369 0.217161 -0.481054 -0.855526 -0.489335 -0.169196 
-0.997405 -0.0194279 -0.069322 0.589654 0.590563 -0.550948 -0.9851 0.169988 -0.0261322 
-0.939349 0.332747 -0.0830835 -0.888216 0.458896 -0.0220649 -0.716253 0.644094 -0.26856 
0.692963 -0.711908 -0.11397 -0.570633 -0.804308 -0.165728 -0.509995 -0.859778 -0.0262056 
-0.639781 -0.695096 -0.327906 0.777299 0.33017 -0.535532 0.863241 0.310655 -0.397881 
0.403917 -0.912392 -0.0662694 0.901638 -0.427326 -0.0666429 0.908856 -0.395259 -0.133236 
-0.601689 -0.780075 -0.171621 0.961173 0.0831836 -0.263111 -0.976151 0.18818 -0.108248 
0.345627 0.639851 -0.686391 0.306422 -0.951882 0.00504771 0.855655 -0.517543 0.00197104 
0.987276 -0.147614 0.0591273 -0.917807 0.29107 -0.270017 -0.925811 0.265427 -0.269115 
0.240454 0.684161 -0.688553 0.12329 -0.990772 -0.0563132 0.543319 -0.831899 0.112905 
-0.601328 -0.798786 0.0186002 -0.581963 -0.807415 0.0969514 -0.774751 -0.595853 -0.211469 
-0.655981 -0.727459 -0.201226 -0.828666 -0.526579 -0.189807 -0.998766 -0.044436 0.0221876 
0.196158 0.782849 -0.590482 -0.0494968 0.676056 -0.735186 -0.460634 0.272311 -0.844786 
0.752715 -0.654299 0.0728889 0.955466 -0.27163 0.115334 -0.696509 -0.699312 0.160742 
-0.638293 -0.757278 0.138244 -0.813793 -0.580864 -0.0183693 -0.87686 0.194567 -0.439613 
-0.00109096 0.779999 -0.62578 0.523464 0.65165 -0.548942 -0.460882 0.556864 -0.691007 
-0.286633 -0.952339 0.104359 -0.961456 -0.274674 0.0125546 0.982528 0.163954 -0.0880794 
0.169899 0.613035 -0.771571 0.707972 0.606361 -0.36208 -0.586465 0.477946 -0.653932 
-0.554617 0.360379 -0.750018 -0.934686 -0.168126 -0.313202 -0.810156 0.485666 -0.328291 
-0.049269 0.710456 -0.702014 0.884455 0.172354 -0.433629 -0.850527 -0.518528 0.0879321 
-0.86409 -0.423254 0.272407 -0.97217 -0.191148 0.135457 0.070564 0.741699 -0.667011 
-0.153305 0.656222 -0.738831 -0.96257 0.00501806 -0.270986 -0.540701 0.22142 -0.811552 
-0.523403 0.783846 -0.334117 -0.397059 0.575446 -0.714987 -0.84114 0.328028 -0.429978 
-0.947372 0.223016 -0.229673 -0.52383 0.231843 -0.819665 -0.579405 0.564843 -0.587574 
-0.531949 -0.816259 0.225279 -0.629976 -0.747814 0.209533 -0.985995 -0.142114 0.0872831 
-0.909877 0.324226 -0.258848 -0.786752 0.176141 -0.591604 -0.483738 0.420135 -0.767779 
-0.35428 0.418886 -0.836074 -0.621021 -0.675302 0.397869 -0.053818 0.577536 -0.814589 
-0.6633 0.483717 -0.571009 0.64866 -0.746495 0.148275 0.844221 -0.502616 0.186193 
0.915016 -0.345714 0.207913 -0.977047 0.14662 -0.154539 -0.875707 0.203584 -0.437825 
-0.934488 0.22374 -0.2769 -0.547916 0.584305 -0.598645 -0.956927 0.231625 0.175044 
-0.950454 0.301134 -0.0771662 -0.237998 0.742186 -0.626512 -0.944757 0.295403 0.142028 
-0.351646 0.829522 -0.433865 -0.688353 0.670963 -0.275644 -0.690966 0.607522 -0.391769 
0.188703 -0.975227 -0.115424 -0.746651 -0.593126 0.301187 0.857544 0.504676 -0.0995985 
-0.897281 0.437693 0.0575448 -0.810448 0.583578 0.0510892 -0.225664 0.795542 -0.562307 
0.0537914 0.702027 -0.710116 -0.922366 0.384516 0.0372648 -0.0763308 0.862618 -0.500064 
-0.446837 0.857022 -0.256612 -0.55417 0.789256 -0.264519 0.194267 -0.974753 -0.110074 
0.929301 -0.149288 0.337807 -0.861409 0.489499 0.135516 -0.842559 0.519053 0.143797 
-0.183935 0.804174 -0.565219 -0.539516 0.749936 -0.382777 -0.39443 0.821503 -0.411773 
-0.649535 0.72524 -0.228323 -0.0272408 -0.999509 -0.0154983 0.150222 -0.973599 0.171866 
0.499539 -0.833631 0.235628 0.803011 -0.549332 0.231102 0.977224 0.212199 -0.00210008 
0.103686 0.768777 -0.631055 -0.866521 0.477401 0.145705 -0.314475 0.868516 -0.383125 
-0.324319 0.858856 -0.396464 0.689659 -0.693998 0.20673 0.282248 -0.949961 0.133831 
0.774895 -0.527078 0.348894 0.924163 -0.211519 0.318091 0.28254 0.760652 -0.584449 
0.0496265 0.736033 -0.675124 -0.571882 0.819987 0.0239279 0.646715 -0.727634 0.22871 
-0.223874 -0.974235 -0.0273368 0.70076 0.679665 -0.216773 0.119596 0.717867 -0.685831 
-0.667917 0.719981 0.188454 -0.283514 0.930827 -0.23061 0.433118 -0.857332 0.278192 
-0.973198 0.109044 0.202474 0.164657 0.752359 -0.637844 0.0267176 0.77861 -0.62694 
0.0584993 0.848923 -0.525269 0.00999331 0.911015 -0.412252 -0.317184 0.902334 -0.291869 
-0.000726532 0.971709 -0.236182 0.713452 -0.304864 0.630908 -0.734718 -0.652586 0.185259 
0.292957 0.824815 -0.483587 -0.369057 0.928313 -0.0450722 0.172689 -0.958901 0.225137 
0.478172 -0.800036 0.362345 0.696349 -0.53946 0.473372 0.418823 0.783428 -0.45916 
-0.0196782 0.844928 -0.534518 -0.193571 0.939842 -0.281475 0.273096 -0.924594 0.265604 
0.494741 -0.666616 0.557543 -0.957224 -0.220794 0.18701 -0.950846 -0.220021 0.217906 
0.529785 0.82368 -0.202188 0.160112 0.875772 -0.455398 -0.356623 0.91285 -0.198807 
-0.175658 0.888585 -0.423746 0.0925148 -0.948216 0.303854 0.335329 -0.83139 0.443108 
-0.208328 -0.908379 0.362557 -0.862072 0.455037 0.223097 0.704966 0.709062 -0.0159249 
0.0608086 -0.917701 0.392591 0.311056 -0.827851 0.466804 0.166395 -0.922244 0.348969 
0.279545 -0.775432 0.566181 -0.538379 -0.831085 0.139447 0.64702 -0.258241 0.717409 
-0.591673 0.790541 0.158009 -0.0344169 0.832815 -0.55248 0.243974 -0.828367 0.504266 
0.65957 -0.279579 0.697713 0.857767 0.435967 0.272339 0.501573 0.865061 -0.00965193 
-0.973384 -0.176067 0.146711 -0.964478 0.0335738 0.262021 0.939854 0.136026 0.313323 
0.702479 0.681284 0.205851 -0.516722 0.854312 0.0561193 0.276122 0.883339 -0.378773 
-0.0199432 -0.832016 0.554393 -0.40027 -0.842225 0.361166 0.361366 -0.477467 0.800899 
-0.633812 -0.68937 0.350785 -0.682513 -0.443175 0.581181 0.707566 0.500645 0.498703 
0.624348 0.697266 0.352151 -0.390381 0.888098 -0.242661 -0.0970125 -0.827974 0.552311 
-0.609445 -0.716288 0.339866 -0.770953 -0.587106 0.246857 -0.803802 -0.501361 0.320219 
-0.0442368 -0.782707 0.620816 -0.477827 -0.755952 0.447458 -0.454213 -0.619572 0.640173 
-0.573595 -0.727656 0.376172 -0.76053 -0.456491 0.461746 -0.540403 -0.422877 0.72742 
-0.872007 -0.165402 0.460702 0.788408 -0.106332 0.605893 -0.893432 0.232625 0.384273 
0.626243 0.455708 0.632575 0.468713 0.488728 0.735835 0.619944 0.548685 0.560905 
0.470621 0.57225 0.671599 0.680599 0.596613 0.42525 -0.310638 0.904293 -0.292844 
-0.199649 0.902738 -0.381058 -0.17601 -0.7479 0.640052 0.66901 -0.0658284 0.740333 
-0.844588 -0.000786693 0.535417 0.498252 0.0901336 0.862334 0.60369 0.174803 0.777819 
0.373826 0.321669 0.869933 -0.795629 0.479482 0.370232 -0.606071 0.794243 -0.0430974 
0.153893 0.927406 -0.340934 -0.0688546 -0.689824 0.720695 -0.254981 -0.531461 0.807796 
-0.100407 -0.450469 0.887128 0.0376763 -0.536645 0.842967 -0.396672 -0.446776 0.801899 
0.442036 -0.200947 0.874199 0.684903 0.27198 0.675969 0.395008 0.897355 -0.196783 
-0.227254 0.92128 -0.315592 -0.0475795 0.937095 -0.345816 0.128214 0.95751 -0.258332 
-0.184874 -0.367111 0.91162 0.180015 -0.250365 0.951269 -0.313944 -0.315092 0.895632 
-0.579367 -0.185866 0.793592 -0.746069 -0.07849 0.661227 -0.847237 0.136874 0.513279 
-0.760127 0.625784 0.17493 0.810543 0.205521 0.548435 0.682067 0.721346 0.120187 
-0.583053 0.808966 -0.0749868 0.375668 0.92413 -0.0696919 -0.160977 0.984011 -0.0762111 
0.428167 0.0281607 0.903261 -0.518107 -0.134076 0.844742 -0.754737 0.20547 0.623021 
-0.772835 0.309991 0.553744 0.219455 -0.174229 0.959939 -0.469979 -0.111795 0.875569 
-0.45604 0.108742 0.883291 -0.60074 0.400937 0.691637 -0.578218 0.815693 0.0175748 
-0.330741 0.941587 0.063433 -0.561902 0.352026 0.748561 -0.843621 0.430871 0.320397 
-0.77668 0.615446 0.134141 -0.538114 0.831362 0.138821 -0.0414006 0.995982 0.0794099 
0.0585767 -0.317118 0.946575 -0.170898 -0.248223 0.953509 -0.348458 0.134159 0.927674 
-0.313561 0.0955176 0.944752 -0.241685 -0.0443432 0.969341 -0.307694 -0.046538 0.950347 
-0.751925 0.620297 0.223249 0.0574451 0.998012 0.025945 0.542094 -0.168273 0.823297 
-0.74819 0.600686 0.28176 -0.614165 0.751251 0.241708 -0.70127 0.698734 0.141387 
0.544756 -0.395088 0.739693 0.628977 -0.400574 0.66628 -0.433241 -0.169672 0.885163 
0.849286 -0.0471475 0.525824 -0.789982 0.201415 0.579102 0.863041 0.329985 0.382452 
-0.795391 0.402141 0.45347 -0.818363 0.360832 0.447306 0.216807 -0.526992 0.821751 
0.525343 -0.491779 0.694383 0.777091 -0.310283 0.547589 -0.680632 0.0833008 0.727874 
-0.575592 -0.19719 0.793606 -0.803618 0.218868 0.55344 0.801581 0.523635 0.288571 
0.726998 -0.307349 0.614012 0.544868 -0.470487 0.69409 -0.307797 -0.467928 0.828435 
0.139457 -0.574754 0.806356 -0.690627 -0.213173 0.69108 -0.799765 0.522943 0.294798 
-0.419286 0.907118 0.0365485 0.762586 -0.205318 0.613439 0.888434 -0.0795164 0.452065 
-0.0688123 -0.596529 0.799636 0.694342 0.447412 0.563659 -0.662062 -0.328988 0.67338 
-0.880857 0.0905185 0.464648 0.692395 0.680096 0.240953 -0.795506 0.484085 0.36446 
0.0324231 0.999454 0.00633746 -0.145244 0.989341 -0.0104517 0.280701 -0.66102 0.695888 
0.446103 -0.322939 0.834687 0.174878 -0.292594 0.94011 -0.0976794 -0.563798 0.820116 
0.701241 -0.577722 0.41773 0.885195 0.433012 0.170091 0.49758 -0.555264 0.666405 
0.884721 0.265271 0.383276 0.361149 0.56725 0.740135 -0.792086 -0.25778 0.553307 
-0.692009 -0.0649785 0.718959 -0.59193 -0.175686 0.786609 0.174154 -0.373814 0.911007 
-0.790693 0.277959 0.545475 0.659085 0.500704 0.561162 0.468399 0.881189 0.064087 
-0.4672 0.871589 0.148514 -0.172406 0.973877 0.147781 0.985489 -0.160732 -0.0545613 
0.00329383 -0.875179 0.483789 0.50818 0.85796 0.0752236 0.089868 -0.748036 0.657545 
0.0712663 -0.555191 0.828664 0.827321 0.558615 0.0590731 0.847717 -0.439229 0.297411 
-0.36586 0.18341 0.912418 -0.718139 -0.162017 0.676777 0.550066 0.128067 0.825243 
0.010319 -0.180597 0.983503 0.600895 0.745965 0.287163 -0.439258 -0.504477 0.743341 
0.536264 -0.253237 0.805166 0.788887 0.443495 0.425404 0.341271 0.498335 0.796992 