# vtk DataFile Version 4.2
vtk output
ASCII
DATASET POLYDATA
POINTS 1402 float
347.459 133.21 134.498 347.409 133.089 134.515 347.525 133.128 134.537 
347.489 133.292 134.545 347.841 133.439 134.719 347.787 133.57 134.759 
347.878 133.507 134.755 347.915 133.376 134.807 347.953 129.521 135.048 
347.328 130.638 134.814 348.101 129.765 135.044 347.49 132.748 134.603 
347.7 133.234 134.679 346.846 134.128 134.705 347.333 133.545 134.636 
346.914 134.058 134.72 346.876 134.233 134.777 347.159 134.738 135.084 
347.728 133.861 134.976 347.084 134.888 135.201 348.035 127.912 135.784 
348.013 128.132 135.59 348.247 127.975 135.877 348.443 128.263 135.84 
347.737 129.054 135.181 348.468 128.879 135.525 348.552 130.019 135.39 
346.088 133.043 134.765 348.479 132.262 135.388 346.77 133.638 134.693 
347.186 134.19 134.877 346.648 134.558 134.963 347.139 135.121 135.532 
347.761 127.973 135.653 348.328 127.872 136.162 346.514 127.77 135.763 
348.697 128.332 136.211 348.797 129.009 135.969 348.716 130.796 135.59 
348.811 130.665 135.959 344.345 133.908 135.254 348.612 132.615 135.973 
348.469 133.31 136.031 343.838 135.444 135.76 348.181 133.985 135.831 
344.413 136.017 135.855 342.149 137.359 136.58 345.987 136.119 135.993 
342.768 137.873 136.788 346.662 136.042 136.373 346.786 126.97 136.534 
347.223 127.017 136.524 347.744 127.146 136.608 347.976 127.463 136.354 
348.872 128.667 136.506 344.089 132.224 135.327 348.69 132.302 136.429 
342.195 135.839 136.308 348.26 134.055 136.352 345.097 136.555 136.194 
341.298 137.977 137.14 343.325 137.456 136.632 343.936 137.27 136.581 
342.416 138.212 137.144 344.221 137.616 136.932 341.265 138.793 137.686 
346.749 126.476 137.311 347.273 126.718 137.12 347.934 127.171 137.042 
348.776 130.381 136.903 348.674 131.923 136.869 348.372 133.684 136.836 
338.373 139.028 138.205 343.845 138.063 137.316 339.373 139.931 138.575 
341.933 139.162 138.14 343.383 138.489 137.766 344.598 137.965 137.69 
345.122 125.717 138.237 345.502 125.761 138.172 345.851 125.843 138.104 
346.153 125.939 138.153 346.484 126.192 137.788 347.945 127.212 137.73 
348.185 127.66 137.634 348.314 131.837 137.833 347.204 135.815 137.634 
345.879 137.06 138.016 338.485 140.011 138.646 342.57 139.198 138.636 
344.414 138.18 138.208 336.866 141.432 139.459 339.771 140.498 139.183 
340.524 140.219 139.201 341.471 139.733 138.945 345.029 125.506 138.646 
347.245 126.52 137.994 347.578 126.761 138.121 348.843 128.574 137.018 
347.767 133.916 138.169 347.133 135.333 138.448 346.237 136.552 138.539 
344.322 138.255 138.745 333.698 140.233 139.853 342.965 139.057 138.945 
338.527 140.835 139.225 341.091 140.147 139.728 338.857 141.549 139.997 
339.421 141.328 140.108 339.997 140.967 140.065 344.742 125.447 138.946 
344.381 125.485 138.967 345.302 125.549 138.671 345.202 125.528 138.883 
342.894 125.468 139.717 343.857 125.518 139.32 345.85 125.778 138.625 
339.582 125.632 139.951 347.188 126.681 138.588 345.518 137.102 139.191 
345.556 136.918 139.389 344.054 138.363 139.13 343.909 138.229 139.71 
342.566 139.265 139.552 341.761 139.702 140.112 337.094 142.251 140.098 
337.96 142.564 140.721 344.594 125.496 139.146 344.948 125.484 138.992 
343.645 125.556 139.857 344.235 126.362 140.686 347.116 127.12 138.946 
345.755 133.733 140.782 344.756 136.853 140.386 341.928 139.355 140.699 
330.628 142.034 141.172 339.911 141.163 140.987 338.232 142.677 141.156 
338.75 142.271 141.361 332.836 143.806 141.287 333.076 144.227 141.477 
337.896 143.081 141.456 330.233 144.992 142.054 333.525 144.375 141.552 
339.259 123.986 141.917 339.461 124.056 141.902 337.067 123.759 141.77 
339.947 124.412 141.693 339.598 124.142 141.857 341.554 125.12 141.038 
344.376 125.743 139.864 342.083 125.924 141.697 342.856 126.631 141.635 
344.362 133.226 141.772 327.551 135.899 142.029 337.932 143.136 141.794 
326.916 145.496 142.864 335.166 144.573 141.898 331.4 146.448 142.694 
334.272 145.408 142.557 335.132 144.998 142.46 333.407 121.538 142.873 
337.26 122.937 142.767 338.325 123.526 142.262 335.647 121.737 143.137 
336.406 122.433 142.874 339.428 124.078 141.996 343.891 135.748 141.557 
324.61 143.256 143.199 338.352 142.514 142.348 323.573 145.529 144.028 
337.169 143.733 142.592 336.3 144.439 142.701 333.165 147.19 144.103 
331.246 115.925 144.903 332.28 116.501 144.71 332.656 116.591 144.754 
332.275 116.255 144.889 332.576 116.384 144.944 332.873 116.661 144.795 
333.036 116.808 144.771 333.421 117.366 144.734 334.042 118.734 144.394 
329.71 119.502 143.941 335.398 121.124 143.551 335.121 120.592 144.079 
336.37 122.214 143.351 338.68 124.013 142.806 323.97 132.533 144.06 
325.122 133.885 143.304 338.074 140.146 143.807 337.446 143.235 142.967 
322.025 145.522 144.903 336.039 144.631 143.192 323.73 147.799 144.731 
334.107 146.516 144.022 333.206 147.523 144.707 329.954 149.192 144.586 
330.087 114.534 145.81 330.907 115.025 145.705 331.304 115.325 145.46 
331.663 115.603 145.347 332.025 115.95 145.123 332.36 116.194 145.162 
332.94 116.692 144.874 333.08 116.89 144.94 333.308 117.169 144.844 
333.249 117.205 144.975 335.209 122.346 144.858 336.03 122.083 143.956 
335.506 123.143 144.868 322.053 133.406 145.059 336.481 140.594 144.676 
336.214 143.794 144.06 321.085 147.04 145.959 333.988 146.721 144.649 
328.833 150.413 145.516 329.871 150.178 145.465 330.595 150.171 145.876 
327.517 113.295 146.726 328.29 113.354 146.591 327.285 113.639 146.422 
328.337 113.717 146.222 329.014 113.722 146.38 327.948 114.049 146.032 
328.796 114.103 145.947 330.588 114.802 145.985 326.66 114.105 146.383 
331.765 115.882 145.667 333.063 120.238 145.905 336.617 127.184 144.918 
320.308 134.215 146.453 333.318 140.299 145.956 320.277 143.704 146.657 
335.4 143.974 144.86 320.313 146.442 146.54 333.931 146.594 145.109 
333.319 147.514 145.263 332.339 148.538 145.787 327.128 113.242 147 
326.68 113.293 147.08 327.67 113.249 146.889 328.078 113.28 146.734 
325.944 113.507 147.195 328.779 113.558 146.553 329.186 113.983 146.725 
330.089 114.719 146.527 319.504 132.293 147.357 319.395 133.728 147.575 
320.118 137.68 147.098 328.174 152.479 147.582 324.049 113.948 148.258 
328.301 115.138 147.717 328.885 114.95 147.339 319.103 134.29 148.369 
319.284 134.878 148.426 320.275 140.286 147.587 319.516 146.262 147.658 
331.626 147.6 147.22 331.32 148.547 147.456 320.787 152.364 148.653 
324.672 113.57 148.325 324.568 113.573 148.506 324.332 113.645 148.571 
324.831 113.562 148.429 326.739 113.358 147.512 323.622 113.933 148.774 
323.251 114.125 148.929 323.919 113.82 148.82 326.237 113.525 147.899 
321.211 118.231 148.35 318.385 132.558 149.05 322.839 137.41 148.951 
320.332 138.451 148.156 321.823 139.756 148.859 322.768 140.265 148.879 
320.357 141.999 148.223 324.28 140.974 148.712 320.121 143.006 148.198 
319.257 146.114 148.738 319.055 146.622 149.13 318.886 147.159 149.268 
318.933 147.354 148.858 318.81 148.008 148.964 318.93 149.132 148.841 
330.716 150.528 147.712 328.654 152.826 148.722 329.018 152.579 149.182 
324.476 113.685 148.677 322.992 114.265 149.238 323.604 114.135 149.31 
322.056 114.852 149.886 322.086 114.899 149.319 318.862 122.604 149.096 
317.259 127.813 149.769 318.121 132.457 150.034 319.987 136.071 148.817 
321.088 138.586 148.757 320.659 140.228 148.433 321.263 140.806 148.778 
319.868 144.963 149.138 318.615 148.631 149.342 328.591 150.988 150.058 
329.565 151.951 149.04 327.833 153.602 149.894 325.398 155.01 150.619 
322.578 114.621 149.783 321.438 115.329 150.423 322.293 114.943 150.102 
319.843 116.099 150.62 320.229 115.803 150.779 319.317 116.149 151.189 
318.789 116.415 151.333 323.186 115.712 150.283 318.211 117.291 151.191 
316.232 128.089 150.912 317.314 131.188 150.714 317.539 131.557 150.71 
317.9 132.018 150.561 318.811 133.214 150.019 319.804 145.75 149.635 
320.734 144.839 149.649 320.793 146.402 150.441 318.465 148.295 150.445 
318.485 148.365 150.717 318 149.815 151.044 317.788 151.079 151.517 
329.291 151.424 149.698 317.799 152.177 151.667 328.3 152.221 150.489 
327.03 154.238 150.276 327.251 154.114 150.484 325.723 155.01 151.043 
318.925 116.163 151.682 318.527 116.266 152.059 321.986 115.318 150.431 
318.422 116.333 151.882 319.621 116.031 151.41 320.589 115.804 151.001 
320.639 116.199 151.369 322.499 125.947 151.33 315.433 127.322 151.806 
315.229 128.196 152.377 315.537 128.929 152.464 316.015 129.536 152.348 
316.992 130.614 151.687 318.438 149.062 151.464 317.933 150.087 151.6 
329.303 152.006 149.642 317.745 153.352 152.453 318.986 154.743 151.96 
320.242 155.602 152.001 327.152 154.101 150.843 319.658 155.759 152.466 
322.337 155.936 151.859 324.713 155.463 151.492 325.575 155.131 151.506 
326.599 154.484 151.158 321.801 156.289 152.748 318.846 116.212 151.995 
319.275 116.259 151.907 318.11 116.667 152.872 319.769 117.049 152.287 
315.944 120.012 152.089 314.837 126.919 152.466 318.856 129.173 152.478 
317.098 130.251 152.266 316.635 129.818 152.7 318.228 130.342 152.097 
318.781 149.154 151.864 318.944 149.546 152.29 317.885 150.514 152.244 
320.193 149.802 152.583 317.419 153.352 153.351 327.81 153.093 150.783 
317.934 154.202 152.944 327.044 153.665 151.383 326.707 154.167 151.492 
319.491 155.738 152.599 319.397 155.761 152.844 326.102 154.688 151.661 
324.395 155.591 152.371 324.991 155.354 152.132 322.234 156.272 153.025 
317.456 116.641 152.954 315.14 117.032 154.201 316.118 116.989 153.478 
316.252 116.767 153.836 315.33 117.819 153.501 318.106 129.122 152.83 
314.062 128.293 154.531 314.883 128.693 154.016 318.336 150.41 152.77 
317.291 152.403 153.845 317.202 152.569 153.827 320.178 152.41 154.279 
325.098 154.194 152.799 325.566 154.81 152.195 322.779 156.109 153.185 
324.042 155.618 152.89 320.881 156.409 153.686 314.507 116.32 155.477 
315.786 116.671 154.797 313.919 116.666 155.419 316.442 116.845 154.291 
[...]
POINT_DATA 1402
SCALARS scalars float
LOOKUP_TABLE default
1 1 1 1 1 1 1 1 1 
1 1 1 1 1 1 1 1 1 
1 1 1 1 1 1 1 1 1 
1 1 1 1 1 1 1 1 1 
1 1 1 1 1 1 1 1 1 
1 1 1 1 1 1 1 1 1 
1 1 1 1 1 1 1 1 1 
1 1 1 1 1 1 1 1 1 
1 1 1 1 1 1 1 1 1 
1 1 1 1 1 1 1 1 1 
1 1 1 1 1 1 1 1 1 
1 1 1 1 1 1 1 1 1 
1 1 1 1 1 1 1 1 1 
1 1 1 1 1 1 1 1 1 
1 1 1 1 1 1 1 1 1 
1 1 1 1 1 1 1 1 1 
1 1 1 1 1 1 1 1 1 
1 1 1 1 1 1 1 1 1 
1 1 1 1 1 1 1 1 1 
1 1 1 1 1 1 1 1 1 
1 1 1 1 1 1 1 1 1 
1 1 1 1 1 1 1 1 1 
1 1 1 1 1 1 1 1 1 
1 1 1 1 1 1 1 1 1 
1 1 1 1 1 1 1 1 1 
1 1 1 1 1 1 1 1 1 
1 1 1 1 1 1 1 1 1 
1 1 1 1 1 1 1 1 1 
1 1 1 1 1 1 1 1 1 
1 1 1 1 1 1 1 1 1 
1 1 1 1 1 1 1 1 1 
1 1 1 1 1 1 1 1 1 
1 1 1 1 1 1 1 1 1 
1 1 1 1 1 1 1 1 1 
1 1 1 1 1 1 1 1 1 
1 1 1 1 1 1 1 1 1 
1 1 1 1 1 1 1 1 1 
1 1 1 1 1 1 1 1 1 
1 1 1 1 1 1 1 1 1 
1 1 1 1 1 1 1 1 1 
1 1 1 1 1 1 1 1 1 
1 1 1 1 1 1 1 1 1 
1 1 1 1 1 1 1 1 1 
1 1 1 1 1 1 1 1 1 
1 1 1 1 1 1 1 1 1 
1 1 1 1 1 1 1 1 1 
1 1 1 1 1 1 1 1 1 
1 1 1 1 1 1 1 1 1 
1 1 1 1 1 1 1 1 1 
1 1 1 1 1 1 1 1 1 
1 1 1 1 1 1 1 1 1 
1 1 1 1 1 1 1 1 1 
1 1 1 1 1 1 1 1 1 
1 1 1 1 1 1 1 1 1 
1 1 1 1 1 1 1 1 1 
1 1 1 1 1 1 1 1 1 
1 1 1 1 1 1 1 1 1 
1 1 1 1 1 1 1 1 1 
1 1 1 1 1 1 1 1 1 
1 1 1 1 1 1 1 1 1 
1 1 1 1 1 1 1 1 1 
1 1 1 1 1 1 1 1 1 
1 1 1 1 1 1 1 1 1 
1 1 1 1 1 1 1 1 1 
1 1 1 1 1 1 1 1 1 
1 1 1 1 1 1 1 1 1 
1 1 1 1 1 1 1 1 1 
1 1 1 1 1 1 1 1 1 
1 1 1 1 1 1 1 1 1 
1 1 1 1 1 1 1 1 1 
1 1 1 1 1 1 1 1 1 
1 1 1 1 1 1 1 1 1 
1 1 1 1 1 1 1 1 1 
1 1 1 1 1 1 1 1 1 
1 1 1 1 1 1 1 1 1 
1 1 1 1 1 1 1 1 1 
1 1 1 1 1 1 1 1 1 
1 1 1 1 1 1 1 1 1 
1 1 1 1 1 1 1 1 1 
1 1 1 1 1 1 1 1 1 
1 1 1 1 1 1 1 1 1 
1 1 1 1 1 1 1 1 1 
1 1 1 1 1 1 1 1 1 
1 1 1 1 1 1 1 1 1 
1 1 1 1 1 1 1 1 1 
1 1 1 1 1 1 1 1 1 
1 1 1 1 1 1 1 1 1 
1 1 1 1 1 1 1 1 1 
1 1 1 1 1 1 1 1 1 
1 1 1 1 1 1 1 1 1 
1 1 1 1 1 1 1 1 1 
1 1 1 1 1 1 1 1 1 
1 1 1 1 1 1 1 1 1 
1 1 1 1 1 1 1 1 1 
1 1 1 1 1 1 1 1 1 
1 1 1 1 1 1 1 1 1 
1 1 1 1 1 1 1 1 1 
1 1 1 1 1 1 1 1 1 
1 1 1 1 1 1 1 1 1 
1 1 1 1 1 1 1 1 1 
1 1 1 1 1 1 1 1 1 
1 1 1 1 1 1 1 1 1 
1 1 1 1 1 1 1 1 1 
1 1 1 1 1 1 1 1 1 
1 1 1 1 1 1 1 1 1 
1 1 1 1 1 1 1 1 1 
1 1 1 1 1 1 1 1 1 
1 1 1 1 1 1 1 1 1 
1 1 1 1 1 1 1 1 1 
1 1 1 1 1 1 1 1 1 
1 1 1 1 1 1 1 1 1 
1 1 1 1 1 1 1 1 1 
1 1 1 1 1 1 1 1 1 
1 1 1 1 1 1 1 1 1 
1 1 1 1 1 1 1 1 1 
1 1 1 1 1 1 1 1 1 
1 1 1 1 1 1 1 1 1 
1 1 1 1 1 1 1 1 1 
1 1 1 1 1 1 1 1 1 
1 1 1 1 1 1 1 1 1 
1 1 1 1 1 1 1 1 1 
1 1 1 1 1 1 1 1 1 
1 1 1 1 1 1 1 1 1 
1 1 1 1 1 1 1 1 1 
1 1 1 1 1 1 1 1 1 
1 1 1 1 1 1 1 1 1 
1 1 1 1 1 1 1 1 1 
1 1 1 1 1 1 1 1 1 
1 1 1 1 1 1 1 1 1 
1 1 1 1 1 1 1 1 1 
1 1 1 1 1 1 1 1 1 
1 1 1 1 1 1 1 1 1 
1 1 1 1 1 1 1 1 1 
1 1 1 1 1 1 1 1 1 
1 1 1 1 1 1 1 1 1 
1 1 1 1 1 1 1 1 1 
1 1 1 1 1 1 1 1 1 
1 1 1 1 1 1 1 1 1 
1 1 1 1 1 1 1 1 1 
1 1 1 1 1 1 1 1 1 
1 1 1 1 1 1 1 1 1 
1 1 1 1 1 1 1 1 1 
1 1 1 1 1 1 1 1 1 
1 1 1 1 1 1 1 1 1 
1 1 1 1 1 1 1 1 1 
1 1 1 1 1 1 1 1 1 
1 1 1 1 1 1 1 1 1 
1 1 1 1 1 1 1 1 1 
1 1 1 1 1 1 1 1 1 
1 1 1 1 1 1 1 1 1 
1 1 1 1 1 1 1 1 1 
1 1 1 1 1 1 1 1 1 
1 1 1 1 1 1 1 1 1 
1 1 1 1 1 1 1 1 1 
1 1 1 1 1 1 1 1 1 
1 1 1 1 1 1 1 
NORMALS Normals float
0.170223 0.157853 -0.97268 -0.0774581 -0.206671 -0.97534 0.49928 -0.0562349 -0.864614 
0.505179 0.346617 -0.790348 0.410303 0.0766479 -0.908723 0.248522 0.407078 -0.878934 
0.694106 0.334572 -0.6374 0.747938 -0.0431111 -0.662367 -0.0538985 -0.490158 -0.869966 
-0.230012 -0.259083 -0.938067 0.563122 -0.13755 -0.814846 0.258254 -0.137237 -0.956279 
0.486927 0.0859815 -0.869201 0.0472587 0.269673 -0.961792 0.19641 0.388759 -0.900161 
0.422157 0.15052 -0.893939 0.327531 0.483878 -0.811533 0.353476 0.539275 -0.764354 
0.577031 0.543481 -0.609642 0.0443862 0.745746 -0.66475 0.311198 -0.725103 -0.614314 
0.310732 -0.456363 -0.833774 0.555976 -0.609133 -0.56555 0.688766 -0.458886 -0.561271 
0.18473 -0.347464 -0.919317 0.636861 -0.281173 -0.717879 0.812774 -0.0745915 -0.577784 
-0.306401 -0.0290742 -0.951459 0.871287 0.0749278 -0.485021 -0.049684 0.0378356 -0.998048 
0.302978 0.374927 -0.876147 -0.00412487 0.563552 -0.826071 0.501498 0.710887 -0.493093 
0.0941961 -0.618469 -0.780143 0.706023 -0.662449 -0.250387 -0.103508 -0.553466 -0.826415 
0.858187 -0.423028 -0.290796 0.8807 -0.135595 -0.453851 0.837103 0.0254478 -0.546453 
0.996419 0.0350432 -0.0769524 -0.291404 0.157201 -0.943595 0.980219 0.1937 -0.0406427 
0.982968 0.110445 -0.146889 -0.304621 0.258464 -0.916735 0.855333 0.42732 -0.292923 
-0.0528609 0.428214 -0.90213 -0.134101 0.37158 -0.918665 0.220628 0.658908 -0.71914 
0.0726947 0.633408 -0.770396 0.499024 0.745854 -0.441221 0.0761253 -0.82686 -0.557232 
0.229438 -0.812538 -0.535855 0.424402 -0.841511 -0.334279 0.622075 -0.691199 -0.367785 
0.989859 -0.12348 -0.0702338 -0.389584 -0.0724819 -0.918134 0.986588 0.162851 0.011074 
-0.265229 0.19629 -0.943994 0.876473 0.481449 -0.00143304 0.168735 0.67738 -0.71602 
-0.173205 0.428182 -0.886939 0.108423 0.592422 -0.798299 -0.0032275 0.433893 -0.900959 
0.029603 0.724619 -0.688513 0.223881 0.682571 -0.695683 0.0331982 0.649048 -0.760023 
0.237243 -0.88879 -0.392132 0.44393 -0.850617 -0.281739 0.672608 -0.727038 -0.137894 
0.944831 0.073227 0.319269 0.960981 0.0891314 0.261861 0.9865 0.101995 0.128124 
-0.266206 0.40518 -0.874622 0.240561 0.813924 -0.528828 0.0807613 0.63828 -0.765556 
0.151156 0.753715 -0.639582 0.281671 0.822476 -0.494161 0.528679 0.803879 -0.27254 
-0.133499 -0.846507 -0.515368 0.0839007 -0.887959 -0.452205 0.242556 -0.920777 -0.30551 
0.415201 -0.886528 -0.204147 0.366522 -0.895033 -0.254121 0.813496 -0.544884 0.203285 
0.889919 -0.212492 0.403597 0.861515 0.0191362 0.507371 0.791333 0.605169 0.0869628 
0.710703 0.698045 0.0873724 -0.0716229 0.598363 -0.798017 0.356602 0.875669 -0.325636 
0.466849 0.869435 -0.161665 -0.0114803 0.530688 -0.847489 0.21539 0.725983 -0.653113 
0.406263 0.792921 -0.454122 0.320819 0.869172 -0.376319 -0.00447208 -0.941598 -0.33671 
0.48026 -0.869916 -0.112236 0.714549 -0.659533 0.233315 0.91908 -0.345046 0.190353 
0.907132 0.188365 0.376337 0.809763 0.42819 0.401169 0.79693 0.478764 0.368358 
0.631963 0.765916 0.118303 -0.31447 0.0954373 -0.944457 0.555432 0.829425 0.0595737 
-0.0434699 0.593827 -0.803418 0.498363 0.864818 -0.0610348 0.331527 0.715593 -0.614831 
0.47338 0.810455 -0.345071 0.505319 0.776081 -0.377294 0.00703498 -0.997401 -0.0717062 
-0.198082 -0.952283 -0.232206 0.222445 -0.959712 -0.171672 0.381827 -0.823105 0.420364 
0.0287267 -0.965095 -0.26032 -0.0985775 -0.980075 -0.172439 0.474675 -0.86161 0.179754 
-0.139963 -0.7314 -0.667431 0.583404 -0.581239 0.567274 0.671171 0.653707 0.349565 
0.765915 0.480567 0.427118 0.513463 0.84481 0.150504 0.570146 0.689347 0.446917 
0.571302 0.81372 0.107115 0.507384 0.85301 0.122208 0.215385 0.758935 -0.614514 
0.416615 0.734358 -0.535864 0.13036 -0.921148 0.366733 0.281153 -0.81029 0.514182 
0.246932 -0.913875 0.322268 0.53217 -0.316835 0.785119 0.640018 -0.355289 0.681283 
0.694043 0.105186 0.712208 0.636001 0.4025 0.658404 0.620269 0.667318 0.412253 
-0.278549 0.304206 -0.910971 0.688391 0.706519 0.164159 0.651635 0.714851 -0.253691 
0.647556 0.738813 -0.186621 -0.112384 0.420452 -0.900328 -0.114886 0.541808 -0.832613 
0.513549 0.778117 -0.361664 -0.200076 0.282671 -0.938119 0.0612341 0.578302 -0.813522 
0.262631 -0.841235 -0.472597 0.431271 -0.902178 -0.00889935 0.231006 -0.730937 -0.642158 
0.397056 -0.905 -0.152712 0.52173 -0.837791 -0.160948 0.5037 -0.669895 0.54546 
0.338525 -0.788548 0.513414 0.574133 -0.704381 0.417395 0.529911 -0.418627 0.737527 
0.525932 0.0320809 0.849922 -0.394095 -0.0512281 -0.917641 0.732622 0.679742 0.0348665 
-0.172848 0.434842 -0.883762 0.14476 0.649563 -0.7464 0.0813359 0.531568 -0.843102 
0.21359 0.706211 -0.675015 0.373484 0.790271 -0.485779 -0.0239158 -0.411344 -0.911166 
0.521212 -0.853257 -0.0170481 0.358462 -0.880493 -0.31022 0.451353 -0.636305 -0.625617 
0.451566 -0.802616 -0.389739 0.53215 -0.800517 0.275662 0.497053 0.317955 0.807368 
-0.371718 0.0967717 -0.923288 0.778304 0.586272 0.224784 -0.463657 0.160374 -0.871379 
0.609507 0.790545 -0.0594953 0.603301 0.79559 -0.0553514 0.479274 0.744172 -0.465299 
0.080933 -0.547387 -0.832957 0.176622 -0.460579 -0.869869 0.300194 -0.55135 -0.778393 
0.260648 -0.669241 -0.695829 0.665328 -0.743089 -0.0718099 0.49714 -0.708878 -0.500343 
0.678171 -0.582707 -0.447813 0.844177 -0.493708 -0.208849 0.858732 -0.480985 -0.17673 
-0.263931 -0.23641 -0.935121 0.722171 -0.582108 -0.373657 0.79952 -0.556907 -0.224995 
0.656314 -0.738036 -0.156702 0.600782 -0.625526 0.497774 -0.469202 -0.338071 -0.815817 
-0.449209 -0.00114931 -0.893426 0.613373 0.208251 0.761844 0.710801 0.573406 0.407391 
-0.577915 -0.00947577 -0.816042 0.686162 0.707768 0.168063 -0.262204 0.389628 -0.882859 
0.663503 0.70754 -0.243209 0.611732 0.736079 -0.289779 0.100132 0.60945 -0.786476 
0.1763 -0.629539 -0.756703 0.659131 -0.721766 0.21119 0.397378 -0.768856 -0.50095 
0.442754 -0.76768 -0.463289 0.356203 -0.752746 -0.553618 0.733097 -0.624044 0.27044 
0.699258 -0.713857 0.0380452 0.697901 -0.527482 0.484456 0.872344 -0.444857 0.202778 
0.703359 -0.286602 0.650497 0.522033 -0.227101 0.822135 0.7775 -0.534002 0.332169 
0.417534 -0.261584 0.870195 -0.615297 -0.304197 -0.727237 0.511835 0.0351861 0.858363 
0.661606 0.399884 0.634327 -0.593181 0.199848 -0.77987 0.799681 0.597021 -0.0638356 
0.0148997 0.700603 -0.713395 0.239574 0.765355 -0.597357 0.40645 0.771036 -0.490206 
-0.205687 -0.845453 -0.492851 0.046775 -0.832859 -0.551505 -0.234636 -0.64553 -0.726799 
0.0107848 -0.669849 -0.742419 0.33602 -0.816752 -0.469048 -0.184116 -0.359039 -0.914982 
0.0470906 -0.51721 -0.854562 0.637854 -0.743394 0.201264 -0.389862 -0.489655 -0.779901 
0.671381 -0.373872 0.639896 0.538358 -0.178766 0.823537 0.367844 -0.0292968 0.929426 
-0.706402 -0.0137525 -0.707677 0.427194 -0.0383103 0.903348 -0.790581 -0.0768219 -0.607519 
0.649964 0.280111 0.706459 -0.74388 0.127863 -0.655968 0.825684 0.423908 0.372221 
0.794314 0.577797 0.187659 0.623457 0.746417 -0.232731 -0.134066 -0.983359 -0.122606 
-0.245865 -0.853674 -0.459119 0.0263662 -0.995583 -0.0901074 0.359054 -0.760926 0.540436 
-0.404481 -0.709612 -0.576929 0.466038 -0.821589 0.328329 0.486527 -0.580841 0.652622 
0.620201 -0.316635 0.7177 -0.817788 -0.00128395 -0.575518 -0.849314 0.157249 -0.503923 
-0.950922 0.210212 -0.227065 0.274974 0.780361 -0.561628 -0.51276 -0.663371 -0.544992 
0.477976 -0.120098 0.870124 0.40959 -0.341064 0.846115 -0.904837 0.20459 -0.373381 
-0.916407 0.326773 -0.231121 -0.996567 -0.000556685 0.0827865 -0.898059 -0.0499701 -0.437027 
0.746394 0.190577 0.637633 0.779964 0.0601905 0.622923 -0.430874 0.494958 -0.754562 
-0.261016 -0.949674 -0.173177 -0.0978972 -0.964732 0.244352 -0.335327 -0.941811 0.0234249 
0.226773 -0.77715 0.587037 0.107969 -0.900776 0.420648 -0.492509 -0.79353 -0.357416 
-0.519445 -0.840525 -0.153933 -0.306673 -0.937103 0.166702 0.244396 -0.698971 0.672094 
-0.517339 -0.238883 -0.821764 -0.873188 0.251368 -0.41756 -0.0697923 0.133625 0.988571 
-0.876844 0.122601 0.464881 -0.0755671 -0.138612 0.98746 -0.0214287 -0.303607 0.952556 
-0.820908 -0.16466 0.546807 0.199654 -0.0792139 0.976659 -0.972527 -0.205074 0.110162 
-0.953687 -0.300784 0.00324973 -0.94101 -0.330618 0.0720512 -0.948191 -0.31752 0.0107429 
-0.917606 -0.134388 -0.374085 -0.900794 -0.0754429 -0.427644 -0.801871 0.115409 -0.586245 
0.864782 0.442498 0.237377 0.630715 0.703656 -0.327211 0.699859 0.704995 -0.114798 
0.0821245 -0.771105 0.63139 -0.407177 -0.896592 0.174151 0.104859 -0.685329 0.720645 
-0.33928 -0.892011 0.298674 -0.604529 -0.65242 -0.457048 -0.664074 -0.0780592 -0.743581 
-0.671647 0.166136 -0.722003 -0.902408 0.428098 0.0489086 -0.9051 0.369297 0.210745 
-0.485758 0.224152 0.844864 -0.643208 -0.00473161 0.765677 -0.383402 -0.105244 0.917565 
-0.729238 -0.35734 0.58354 -0.955809 -0.190573 -0.223857 0.406401 -0.224531 0.885677 
0.86908 0.395146 0.29759 0.641399 0.764881 -0.0596999 0.252079 0.908894 -0.332216 
0.0997392 -0.686407 0.720345 0.0437695 -0.575121 0.816897 0.130901 -0.646921 0.751238 
-0.576803 -0.674812 -0.460356 -0.36908 -0.929354 0.0089595 -0.46226 -0.793753 -0.395312 
-0.524417 -0.652592 -0.54691 0.297767 -0.269779 0.915726 -0.601132 -0.462608 -0.65164 
-0.733102 0.186617 -0.654014 -0.797971 0.601254 -0.0416641 -0.735676 0.663697 0.135225 
-0.819142 0.571736 0.0460865 -0.171306 0.518459 0.837768 -0.634735 -0.463176 0.61853 
-0.0765541 -0.318207 0.944925 -0.179315 -0.560652 0.808403 -0.949473 -0.309183 0.0539148 
-0.755686 -0.512408 0.407893 -0.953631 -0.139127 -0.266893 -0.975546 -0.0863206 -0.202136 
0.750742 0.053607 0.658417 -0.788809 0.260811 -0.556559 0.683427 0.115587 0.72081 
0.457591 0.875393 -0.155874 0.594735 0.799574 0.0834948 0.382384 0.906098 -0.181023 
-0.346411 -0.916953 -0.19798 -0.113267 -0.937896 0.327904 0.336923 -0.174279 0.925262 
-0.53927 -0.767274 -0.347099 -0.130239 -0.975852 0.175357 -0.00387324 -0.843998 0.536332 
0.326785 -0.350477 0.877711 0.397475 0.184287 0.898917 -0.738477 0.120919 -0.663348 
-0.883965 0.330476 -0.330743 -0.765231 0.579043 -0.281301 -0.674127 0.731974 0.0988234 
-0.558034 0.747663 0.359996 -0.70712 -0.527083 0.471343 -0.923684 -0.367214 0.109365 
0.74931 0.26168 0.608324 -0.825019 0.301644 -0.477865 -0.60533 0.562483 -0.563194 
-0.170966 0.869422 -0.463547 0.722245 0.630682 0.283907 -0.218281 0.913489 -0.343352 
-0.00167458 0.862397 -0.50623 0.209105 0.965698 -0.153956 0.516684 0.845955 0.131901 
0.570568 0.799907 0.186015 0.00121822 0.984671 -0.174419 0.103326 -0.742992 0.661276 
0.0285728 -0.830878 0.555721 0.1477 -0.89153 0.428205 0.526696 -0.336066 0.780801 
-0.654573 -0.225802 -0.72149 -0.852125 0.0855958 -0.516291 0.484677 0.388423 0.783719 
-0.316221 0.734591 0.600317 -0.137207 0.786371 0.602324 0.3174 0.542932 0.777484 
-0.339697 -0.618469 0.708591 -0.300085 -0.612585 0.731224 -0.855145 -0.445933 0.264331 
-0.0698673 -0.607423 0.7913 -0.947538 0.210094 -0.240898 0.623606 0.0451664 0.780433 
-0.71239 0.518046 -0.473422 0.65941 0.0612241 0.749286 0.672657 0.48738 0.556771 
-0.536318 0.753226 -0.380807 -0.386595 0.883388 -0.264895 0.617961 0.71352 0.330172 
0.326653 0.921225 0.211286 0.420198 0.902274 0.0966174 0.205505 0.977581 -0.0458593 
-0.325757 -0.935075 -0.139703 -0.52441 -0.619289 -0.58436 -0.477002 -0.647928 -0.59385 
-0.0630584 -0.987927 -0.141508 -0.57616 -0.431443 -0.694188 0.374653 0.459577 0.805248 
-0.430109 0.89827 -0.0901 -0.337079 0.928451 0.156067 -0.398459 -0.642363 0.654676 
-0.738846 -0.55937 0.375782 -0.978957 -0.169407 -0.113771 0.301193 -0.444078 0.843847 
0.593611 0.0754001 0.801212 0.611802 0.59118 0.525552 0.343727 0.88729 0.30752 
0.37627 0.90301 0.20735 -0.0428066 0.984239 -0.171584 -0.185375 -0.883086 -0.431041 
0.51796 -0.79518 0.315288 -0.435936 -0.619532 -0.652794 0.346116 -0.869585 0.352174 
0.699584 -0.0212822 0.714233 0.193856 0.776332 0.599774 -0.463866 0.822064 -0.33021 
-0.615242 -0.663085 0.426375 -0.0825228 -0.670147 0.737627 -0.952403 -0.209298 0.221637 
-0.993241 -0.0205405 0.11424 -0.989007 -0.0434744 -0.141334 0.402013 -0.167683 0.900149 
-0.86715 0.407178 -0.286806 0.516753 0.262921 0.814763 0.530398 0.524588 0.665947 
-0.625235 0.710795 -0.322259 0.45972 0.599734 0.654963 -0.22499 0.965507 0.131053 
-0.184349 0.979059 -0.0863709 -0.130365 0.872185 0.471484 0.265216 0.959007 0.0998336 
0.337382 0.741624 0.5798 0.243818 0.923325 0.296689 0.0689267 0.956074 0.284907 
0.204428 -0.975542 -0.080792 0.548256 -0.726179 0.414824 0.221529 -0.943352 -0.247006 
0.416097 -0.900968 0.122963 0.606941 -0.60191 0.518968 0.576337 -0.47811 0.662757 
0.525381 0.469596 0.709545 -0.0869922 0.992104 0.0903422 -0.429564 0.887337 -0.167656 
-0.486447 0.784395 -0.384831 0.0481458 0.977977 0.203083 -0.329755 -0.626035 0.706641 
0.074493 -0.585393 0.80732 -0.895044 -0.201548 0.397838 -0.708343 -0.428796 0.5607 
-0.449926 -0.490948 0.746013 -0.0151218 -0.485122 0.874316 -0.993041 -0.108509 0.0457747 
0.299712 -0.280861 0.911751 -0.993117 -0.0252772 -0.11437 -0.963189 -0.236277 0.128221 
-0.981478 0.172091 -0.0841778 0.381737 -0.156965 0.910845 0.372725 0.0189865 0.927748 
0.426552 0.269597 0.863348 0.420596 0.124023 0.898731 -0.67768 0.718295 -0.157484 
-0.322544 0.94274 -0.0848946 0.351577 0.6034 0.715752 -0.385469 0.905099 0.179468 
-0.0570715 0.910148 0.410333 0.142225 0.731105 0.667276 0.312558 0.732716 0.604511 
-0.153406 -0.799709 -0.580458 -0.232915 -0.822388 -0.519065 -0.632134 -0.276757 -0.723749 
0.301904 -0.951245 -0.0631384 -0.375088 -0.620115 -0.689033 0.60271 -0.752283 0.266104 
0.0701089 -0.879333 -0.471018 0.646921 -0.494678 0.580334 -0.682091 -0.278815 -0.676028 
0.646888 -0.478316 0.593928 0.657843 0.171067 0.73347 0.361992 0.766179 0.530972 
-0.516514 0.818532 -0.251435 -0.270808 0.946116 -0.177562 0.119443 0.958547 0.258692 
-0.0475556 0.982011 0.182735 0.486056 0.173991 0.856432 -0.644035 0.762231 -0.0649876 
0.290144 0.365218 0.884552 0.303237 0.306686 0.902215 0.309826 0.371652 0.875147 
-0.302931 0.846811 0.4372 0.0293284 0.746608 0.664618 -0.292215 -0.885612 -0.360973 
0.536188 -0.706429 0.462017 -0.654617 -0.0868757 -0.750953 -0.627455 -0.568636 -0.531934 
-0.362948 -0.742456 -0.563052 0.650729 0.228915 0.723982 0.577002 0.266889 0.771906 
-0.628124 0.61922 -0.471198 -0.0496483 0.96345 0.263249 -0.447673 0.854253 -0.264273 
-0.165608 0.958792 0.23085 -0.461309 -0.589539 0.663052 0.0102601 -0.43992 0.897978 
0.247268 -0.20509 0.946994 -0.993244 -0.0325595 0.111382 0.168191 0.238585 0.956446 
-0.787646 0.612394 0.0677295 -0.581767 0.81254 0.0364103 -0.331932 0.831702 0.445076 
0.370722 -0.809396 0.455459 -0.582784 -0.607778 -0.539415 0.613011 -0.023234 0.789733 
0.709649 -0.167535 0.684347 -0.598807 -0.294374 -0.744831 -0.578292 -0.642511 -0.50275 
-0.226496 -0.680138 -0.697217 0.160339 -0.0651228 0.984912 0.760294 -0.457653 0.460985 
0.554027 -0.414593 0.721919 -0.585497 -0.449281 -0.674788 0.142092 -0.974018 0.176348 
0.64007 -0.468176 0.609198 -0.709151 0.464135 -0.530738 -0.620736 0.715124 -0.321378 
0.127149 0.943872 0.304858 0.166782 0.8919 0.420355 -0.255146 -0.503651 0.82537 
-0.755385 -0.4135 0.508342 -0.874962 0.423304 0.235063 -0.293817 0.68965 0.661858 
-0.554409 -0.742879 -0.375182 -0.414663 -0.909959 0.00539593 0.295966 -0.873438 0.386665 
0.259316 -0.901428 0.346675 -0.661159 -0.501936 -0.55761 0.6547 0.212965 0.725268 
-0.170316 0.97907 0.111417 0.0267844 0.979391 0.200188 -0.349006 0.93271 -0.0908141 
-0.283169 0.0597303 0.957208 0.119578 -0.887795 0.444433 0.304955 -0.792801 0.527702 
-0.734323 -0.314412 -0.601593 0.669264 -0.0565143 0.740872 0.719045 -0.0884644 0.68931 
-0.797532 0.165013 -0.58027 -0.238948 0.970502 0.0321014 0.128182 0.960346 0.2476 
-0.334968 -0.942021 -0.0198352 0.0598835 -0.982934 0.173937 0.540081 -0.633626 0.553923 
0.696052 -0.386239 0.605252 -0.683904 0.520482 -0.511248 -0.335662 0.922904 -0.188625 
-0.309474 -0.892648 -0.327726 -0.485456 -0.815958 -0.313919 -0.0767874 -0.988924 -0.127017 
0.0268978 -0.995873 0.086675 -0.505348 -0.766239 -0.396865 0.37683 -0.826965 0.417286 
0.395666 -0.833393 0.385881 -0.736231 -0.26849 -0.62119 -0.637421 0.64604 -0.419912 
-0.77579 0.426896 -0.464662 -0.37462 0.896589 -0.236197 -0.497883 0.812267 -0.303868 
-0.599907 -0.670452 -0.436583 -0.151489 -0.986807 0.0571216 0.247849 -0.898967 0.36115 
0.61262 0.588293 0.527834 0.335971 0.897981 0.284172 -0.240946 0.966915 -0.0837833 
-0.241382 0.970389 0.00890333 -0.155012 0.966879 0.20277 0.138139 0.96544 0.221005 
0.47684 -0.709894 0.518338 -0.77636 -0.30056 -0.554011 0.505541 -0.615495 0.604643 
0.554368 -0.528909 0.642598 -0.505295 0.809493 -0.298995 0.202328 0.899263 0.387801 
-0.820309 -0.272666 -0.502739 0.62051 -0.549458 0.559521 -0.811515 -0.237034 -0.534096 