# vtk DataFile Version 4.2
vtk output
ASCII
DATASET POLYDATA
POINTS 874 float
375.966 246.281 161.78 377.624 246.138 161.947 376.026 250.931 161.091 
374.343 251.936 161.352 373.518 255.496 161.776 374.438 255.343 161.44 
374.223 256.399 161.695 393.375 268.081 162.67 402.42 268.416 162.382 
403.465 268.468 162.509 403.667 268.381 162.606 392.965 268.282 162.629 
401.333 268.632 162.267 403.785 268.466 162.598 403.993 268.529 162.698 
393.881 268.766 162.538 397.642 269.004 162.239 398.019 269.194 162.292 
398.305 268.945 162.218 403.189 268.875 162.532 378.32 245.551 162.548 
373.831 247.539 162.071 374.054 249.989 161.625 377.794 250.182 161.419 
373.611 252.918 161.598 377.617 253.612 161.519 372.231 255.015 162.554 
374.987 257.491 161.922 375.693 257.045 161.728 388.955 266.986 163.696 
399.353 267.909 162.802 404.333 268.418 163.017 388.623 267.615 163.439 
388.933 268.012 163.352 391.782 268.246 162.861 404.575 268.545 163.155 
389.652 268.262 163.238 391.8 268.741 162.855 391.941 269.025 162.887 
395.428 269.256 162.511 404.258 268.931 163.036 401.816 269.456 162.682 
396.632 270.01 162.96 397.688 269.971 162.895 374.8 243.359 163.497 
379.617 247.672 162.197 380.3 248.52 162.435 372.11 250.72 162.811 
374.334 257.466 162.077 377.743 257.281 162.103 372.612 258.112 163.096 
377.825 258.182 162.3 384.441 265.716 163.928 386.877 266.439 163.904 
387.806 267.7 163.563 387.983 268.027 163.534 389.883 269.018 163.378 
404.909 268.814 163.53 391.453 269.546 163.304 393.829 269.876 163.09 
404.187 269.268 163.271 373.533 242.573 164.471 374.983 242.654 164.207 
374.743 242.374 164.556 375.135 242.516 164.454 373.502 242.934 164.219 
379.215 245.146 163.931 381.212 246.977 164.028 372.526 247.697 163.017 
381.833 248.765 163.665 382.371 248.76 164.174 371.28 250.465 163.834 
380.345 253.176 162.623 370.472 253.466 164.482 379.245 258.278 162.7 
372.861 259.316 163.432 379.287 259.877 162.901 375.669 261.582 163.385 
375.061 262.313 163.977 384.933 264.484 164.294 382.468 266.412 164.188 
384.276 267.026 164.025 387.981 265.889 164.418 387.512 268.63 163.879 
405.014 269.019 163.735 405.244 268.905 164.007 389.381 269.576 163.929 
390.949 269.847 163.687 404.971 269.262 163.923 373.241 241.838 165.382 
374.099 241.908 165.141 373.887 241.676 165.517 374.235 241.768 165.403 
372.805 242.193 165.257 375.436 242.562 164.6 372.754 242.567 165.034 
381.76 247.156 164.635 382.134 247.68 164.596 370.528 252.456 164.5 
370.068 253.637 165.22 380.581 258.026 163.23 371.902 260.405 164.883 
383.268 267.553 164.508 387.317 269.565 164.635 405.165 269.49 164.404 
405.41 269.317 164.502 404.414 270.152 164.795 372.736 241.752 165.769 
372.533 241.837 165.921 374.498 241.791 165.55 372.639 242.009 165.586 
382.071 247.299 165.075 382.512 247.779 165.075 384.417 250.362 165.911 
384.266 252.572 165.124 384.914 252.172 165.865 383.584 255.487 164.771 
370.96 259.651 165.745 372.205 261.35 165.256 405.362 268.409 165.293 
406.019 269.065 165.268 392.424 271.62 165.883 403.021 271.167 165.812 
372.727 241.18 166.703 373.049 240.979 167.02 373.303 241.004 166.967 
372.355 241.783 166.371 373.571 241.177 166.664 374.564 241.576 166.718 
380.772 246.06 165.932 384.722 250.49 166.579 385.666 253.699 166.651 
369.646 254.507 166.681 377.252 266.808 166.711 406.677 269.044 166.505 
383.506 269.871 166.853 406.463 269.399 166.159 372.661 240.96 167.578 
372.906 240.93 167.37 373.519 241.02 167.448 371.766 242.453 166.994 
383.355 248.585 166.377 369.502 251.468 167.103 385.746 252.835 167.142 
385.892 256.145 166.803 407.275 269.475 167.478 406.384 270.511 167.301 
372.673 240.861 167.805 372.609 240.85 167.869 372.575 240.909 167.81 
372.666 240.874 167.927 372.42 241.147 167.864 372.909 240.918 167.841 
380.03 245.669 167.084 383.938 249.446 167.174 384.154 249.82 167.455 
369.64 249.945 167.328 385.94 253.344 167.857 386.179 254.257 168.086 
369.229 254.675 168.401 386.351 260.132 166.67 388.891 264.249 166.576 
379.217 268.795 168.134 407.402 268.846 168.268 407.885 269.207 168.587 
407.807 269.561 168.341 372.568 240.922 167.932 372.624 241.02 168.184 
373.719 241.268 168.604 384.263 250.256 167.859 386.949 256.412 169.538 
388.055 259.585 168.828 388.801 260.276 169.532 388.253 263.253 166.889 
371.803 264.444 169.451 390.894 264.205 168.001 409.293 269.629 170.303 
406.699 271.267 169.087 372.954 241.147 168.858 372.814 241.282 169.193 
371.17 242.872 169.427 369.397 248.394 169.935 384.76 252.918 170.027 
386.041 254.885 170.142 388.469 259.287 170.429 371.193 264.104 170.718 
408.394 268.647 170.184 409.706 269.352 171.082 408.558 270.595 170.143 
372.501 241.409 169.283 371.578 242.3 169.764 373.36 241.512 169.807 
373.839 241.733 170.134 377.149 244.911 170.833 369.879 246.102 170.71 
386.288 256.385 171.429 386.616 256.917 171.505 387.098 257.293 170.998 
391.128 262.345 171.011 391.021 262.836 169.802 377.153 268.902 170.632 
409.674 270.318 171.327 372.393 241.884 170.268 372.784 241.923 170.582 
373.465 241.859 170.553 385.766 255.622 171.357 385.357 256.583 172.874 
389.183 260.205 171.829 393.434 263.988 171.173 410.49 269.587 172.456 
371.752 242.928 171.413 393.247 263.612 173.861 396.008 264.822 173.401 
370.626 263.888 173.723 405.456 266.986 172.635 410.457 268.642 173.206 
380.906 271.2 173.293 410.485 270.19 172.929 371.283 244.029 172.209 
369.023 258.054 173.941 391.094 262.537 174.764 410.595 268.053 174.117 
411.253 269.075 174.382 378.039 270.089 174.301 410.535 270.698 174.136 
371.511 244.19 172.808 371.969 243.858 172.825 372.529 243.601 172.776 
374.076 244.962 174.26 370.505 246.257 173.655 369.673 248.393 173.479 
408.53 266.972 174.639 409.866 267.451 174.304 410.297 267.558 174.525 
410.603 267.756 174.589 411.186 268.437 174.697 411.638 268.669 175.666 
411.506 269.348 175.03 410.954 270.292 174.379 411.246 269.995 174.841 
411.545 269.593 175.418 371.763 245.677 174.69 373.375 245.427 174.935 
375.061 246.009 174.762 374.766 246.119 175.142 384.338 258.176 176.155 
398.066 265.538 175.652 409.256 266.896 175.545 410.746 267.243 175.974 
411.054 267.335 176.382 411.281 267.527 176.285 411.346 267.692 176.064 
411.533 267.972 176.174 372.956 266.76 176.078 411.806 269.322 176.352 
372.304 245.688 174.993 371.028 246.543 174.774 372.962 245.958 175.461 
374.307 246.005 175.289 373.427 246.483 176.037 370.395 248.461 175.577 
371.143 264.347 176.799 405.052 266.634 176.982 411.335 267.508 176.701 
375.038 268.479 176.919 410.907 271.25 177.251 409.95 271.948 177.067 
371.784 247.685 176.714 372.62 247.215 176.746 373.863 246.994 176.513 
374.691 247.435 176.648 369.591 258.954 177.231 385.71 260.578 178.253 
370.253 261.414 177.969 410.504 267.135 177.471 411.434 267.594 177.112 
411.916 268.628 177.531 411.835 269.978 177.847 411.26 271.024 178.129 
383.688 272.381 178.293 392.162 273.66 178.126 373.004 247.591 177.226 
372.76 248.123 177.705 370.095 253.853 178.216 411.085 267.409 177.617 
407.269 267.182 179.352 411.937 268.796 178.249 411.993 269.23 178.382 
410.587 271.768 178.858 373.872 249.052 178.72 372.658 249.743 179.101 
370.229 257.339 179 381.567 258.186 179.808 409.772 267.411 179.3 
410.774 267.627 178.932 411.759 268.559 178.889 371.754 252.321 180.013 
371.215 253.23 179.806 411.522 268.251 179.158 411.358 268.217 179.548 
411.551 268.522 179.622 377.202 269.073 180.56 374.519 250.417 179.682 
372.662 251.119 179.991 373.777 251.146 180.335 374.373 250.995 180.179 
374.784 251.516 180.483 411.125 268.064 179.648 411.641 269.311 180.595 
411.139 271.367 181.231 403.632 273.514 181.65 372.029 254.144 180.949 
372.764 255.442 181.944 376.893 254.717 181.582 371.724 257.71 181.402 
372.142 259.021 181.964 387.487 263.715 183.449 376.006 267.252 182.537 
407.516 268.073 181.921 398.654 267.616 183.26 411.415 270.681 181.877 
410.655 271.656 182.029 374.632 252.585 181.337 373.625 254.057 181.964 
375.156 254.018 182.102 377.847 256.661 182.25 373.143 259.204 182.84 
410.976 271.041 182.914 374.456 254.461 182.32 375.662 255.278 182.495 
376.481 256.023 182.583 410.098 269.262 183.027 411.058 270.735 183.052 
410.831 270.884 183.432 390.633 272.532 184.774 409.944 271.755 183.559 
374.846 259.855 183.841 379.021 260.562 184.494 376.148 262.624 184.672 
376.873 265.557 184.66 410.875 270.322 183.32 410.637 270.751 183.777 
408.444 272.461 184.01 409.028 272.049 184.469 377.525 259.992 184.4 
378.076 262.126 185.183 377.285 263.241 185.158 377.433 264.866 185.202 
410.136 270.794 184.323 409.758 271.237 184.695 382.422 263.565 186.119 
384.294 264.253 186.563 380.584 266.877 186.574 380.639 267.567 186.366 
394.115 267.413 187.19 407.501 270.082 185.829 408.528 270.565 185.73 
385.38 269.91 187.031 387.149 270.404 187.231 409.372 270.991 185.287 
409.061 271.229 185.56 408.848 271.567 185.59 400.289 272.538 187.162 
380.089 265.5 186.458 381.829 265.493 187.113 384.748 265.265 187.529 
391.069 266.466 187.479 383.652 267.491 187.953 386.859 269.692 187.836 
400.808 269.605 187.623 406.328 270.262 186.675 405.96 270.444 187.079 
407.482 270.763 186.515 392.64 271.473 187.365 407.966 271.658 186.314 
408.182 271.492 186.258 402.258 272.318 187.67 382.846 265.719 187.553 
388.244 266.001 188.011 383.443 266.343 187.897 383.94 266.213 188.001 
391.031 266.959 188.234 392.656 267.422 188.162 393.858 267.869 188.204 
384.143 267.727 188.089 384.966 268.593 187.959 385.98 268.469 188.379 
388.337 269.675 188.277 399.612 269.851 188.241 404.748 270.256 187.371 
393.01 270.202 188.595 407.761 271.086 186.513 408.204 271.241 186.27 
397.806 271.49 188.401 406.685 271.455 187.108 398.8 271.835 188.122 
399.741 271.88 188.14 403.288 272.217 187.676 384.873 266.838 188.342 
385.543 266.656 188.421 388.414 266.634 188.52 389.639 266.816 188.474 
384.589 267.257 188.302 390.246 267.275 188.676 393.048 267.969 188.607 
[...]
POINT_DATA 874
SCALARS scalars float
LOOKUP_TABLE default
1 1 1 1 1 1 1 1 1 
1 1 1 1 1 1 1 1 1 
1 1 1 1 1 1 1 1 1 
1 1 1 1 1 1 1 1 1 
1 1 1 1 1 1 1 1 1 
1 1 1 1 1 1 1 1 1 
1 1 1 1 1 1 1 1 1 
1 1 1 1 1 1 1 1 1 
1 1 1 1 1 1 1 1 1 
1 1 1 1 1 1 1 1 1 
1 1 1 1 1 1 1 1 1 
1 1 1 1 1 1 1 1 1 
1 1 1 1 1 1 1 1 1 
1 1 1 1 1 1 1 1 1 
1 1 1 1 1 1 1 1 1 
1 1 1 1 1 1 1 1 1 
1 1 1 1 1 1 1 1 1 
1 1 1 1 1 1 1 1 1 
1 1 1 1 1 1 1 1 1 
1 1 1 1 1 1 1 1 1 
1 1 1 1 1 1 1 1 1 
1 1 1 1 1 1 1 1 1 
1 1 1 1 1 1 1 1 1 
1 1 1 1 1 1 1 1 1 
1 1 1 1 1 1 1 1 1 
1 1 1 1 1 1 1 1 1 
1 1 1 1 1 1 1 1 1 
1 1 1 1 1 1 1 1 1 
1 1 1 1 1 1 1 1 1 
1 1 1 1 1 1 1 1 1 
1 1 1 1 1 1 1 1 1 
1 1 1 1 1 1 1 1 1 
1 1 1 1 1 1 1 1 1 
1 1 1 1 1 1 1 1 1 
1 1 1 1 1 1 1 1 1 
1 1 1 1 1 1 1 1 1 
1 1 1 1 1 1 1 1 1 
1 1 1 1 1 1 1 1 1 
1 1 1 1 1 1 1 1 1 
1 1 1 1 1 1 1 1 1 
1 1 1 1 1 1 1 1 1 
1 1 1 1 1 1 1 1 1 
1 1 1 1 1 1 1 1 1 
1 1 1 1 1 1 1 1 1 
1 1 1 1 1 1 1 1 1 
1 1 1 1 1 1 1 1 1 
1 1 1 1 1 1 1 1 1 
1 1 1 1 1 1 1 1 1 
1 1 1 1 1 1 1 1 1 
1 1 1 1 1 1 1 1 1 
1 1 1 1 1 1 1 1 1 
1 1 1 1 1 1 1 1 1 
1 1 1 1 1 1 1 1 1 
1 1 1 1 1 1 1 1 1 
1 1 1 1 1 1 1 1 1 
1 1 1 1 1 1 1 1 1 
1 1 1 1 1 1 1 1 1 
1 1 1 1 1 1 1 1 1 
1 1 1 1 1 1 1 1 1 
1 1 1 1 1 1 1 1 1 
1 1 1 1 1 1 1 1 1 
1 1 1 1 1 1 1 1 1 
1 1 1 1 1 1 1 1 1 
1 1 1 1 1 1 1 1 1 
1 1 1 1 1 1 1 1 1 
1 1 1 1 1 1 1 1 1 
1 1 1 1 1 1 1 1 1 
1 1 1 1 1 1 1 1 1 
1 1 1 1 1 1 1 1 1 
1 1 1 1 1 1 1 1 1 
1 1 1 1 1 1 1 1 1 
1 1 1 1 1 1 1 1 1 
1 1 1 1 1 1 1 1 1 
1 1 1 1 1 1 1 1 1 
1 1 1 1 1 1 1 1 1 
1 1 1 1 1 1 1 1 1 
1 1 1 1 1 1 1 1 1 
1 1 1 1 1 1 1 1 1 
1 1 1 1 1 1 1 1 1 
1 1 1 1 1 1 1 1 1 
1 1 1 1 1 1 1 1 1 
1 1 1 1 1 1 1 1 1 
1 1 1 1 1 1 1 1 1 
1 1 1 1 1 1 1 1 1 
1 1 1 1 1 1 1 1 1 
1 1 1 1 1 1 1 1 1 
1 1 1 1 1 1 1 1 1 
1 1 1 1 1 1 1 1 1 
1 1 1 1 1 1 1 1 1 
1 1 1 1 1 1 1 1 1 
1 1 1 1 1 1 1 1 1 
1 1 1 1 1 1 1 1 1 
1 1 1 1 1 1 1 1 1 
1 1 1 1 1 1 1 1 1 
1 1 1 1 1 1 1 1 1 
1 1 1 1 1 1 1 1 1 
1 1 1 1 1 1 1 1 1 
1 
NORMALS Normals float
-0.0313819 -0.289469 -0.956673 0.1828 -0.38007 -0.906715 0.0255675 0.00770828 -0.999643 
-0.321026 -0.0134814 -0.946974 -0.45072 0.0618112 -0.890523 -0.138726 0.105784 -0.984665 
-0.306448 0.296312 -0.904593 -0.0598887 -0.533957 -0.843388 0.0279868 -0.517511 -0.855218 
0.137188 -0.0654131 -0.988383 0.241408 -0.802127 -0.546182 -0.120666 -0.170464 -0.977948 
0.0375553 -0.0410785 -0.99845 0.344946 0.135993 -0.928719 0.541129 -0.187469 -0.819777 
-0.10367 0.12746 -0.986411 -0.0843755 0.00486309 -0.996422 0.0849961 0.528701 -0.844542 
0.139649 0.205284 -0.968688 0.206654 0.366719 -0.90709 0.322306 -0.634335 -0.702665 
-0.463858 -0.225753 -0.856663 -0.4118 -0.186798 -0.891923 0.331675 0.024002 -0.943088 
-0.437496 0.0217113 -0.898958 0.23714 0.108005 -0.965453 -0.624237 0.0867793 -0.776401 
-0.108352 0.449072 -0.886902 0.133721 0.235147 -0.962717 -0.0412175 -0.443804 -0.895175 
0.111582 -0.905436 -0.409555 0.467668 -0.743528 -0.477968 -0.119713 -0.206248 -0.971149 
-0.222622 0.21329 -0.951287 -0.0283208 -0.35566 -0.934186 0.731802 -0.331254 -0.595598 
-0.132062 -0.0582405 -0.989529 -0.208964 0.21642 -0.953675 -0.100414 0.24771 -0.963616 
-0.0645393 0.592119 -0.803262 0.505886 0.499162 -0.703504 0.0948256 0.575756 -0.812104 
-0.045502 0.754429 -0.654803 0.0580935 0.684879 -0.726337 -0.10544 -0.556166 -0.824355 
0.432829 -0.289297 -0.853795 0.574529 -0.0924159 -0.81325 -0.65031 -0.139985 -0.74666 
-0.124388 0.405791 -0.905462 0.201258 0.224822 -0.953389 -0.505428 0.352304 -0.78767 
0.238316 0.14341 -0.960541 0.173168 -0.0645135 -0.982777 0.0777897 -0.24227 -0.967085 
-0.149344 -0.160677 -0.975643 -0.242363 0.121494 -0.962549 -0.253756 0.397297 -0.881908 
0.733849 0.146039 -0.663429 -0.222342 0.551945 -0.803692 -0.0747453 0.668207 -0.740211 
0.356605 0.674987 -0.64593 -0.228645 -0.694926 -0.681762 0.117536 -0.72535 -0.678271 
0.127445 -0.846204 -0.517393 0.2834 -0.823948 -0.490708 -0.587357 -0.343703 -0.732721 
0.599417 -0.760172 -0.250676 0.605082 -0.664038 -0.439237 -0.707421 -0.212195 -0.674188 
0.639937 -0.17979 -0.747099 0.724768 -0.428101 -0.539853 -0.791023 -0.248736 -0.55894 
0.392034 0.0735425 -0.917006 -0.793938 0.0966077 -0.600275 0.213851 0.0691765 -0.974414 
-0.404356 0.515085 -0.755767 0.170851 0.151566 -0.97357 -0.158763 0.374349 -0.913596 
-0.371368 0.501118 -0.781643 0.330445 -0.316692 -0.889108 -0.298295 0.507484 -0.808381 
-0.141438 0.245615 -0.958993 0.245647 -0.53613 -0.807603 -0.26005 0.395003 -0.881106 
0.680929 0.415572 -0.603022 0.840359 0.0280812 -0.541302 -0.235123 0.607163 -0.758993 
-0.244752 0.618164 -0.746974 0.570324 0.606113 -0.554398 -0.23951 -0.716772 -0.654884 
-0.00558398 -0.793475 -0.608577 0.168951 -0.921254 -0.350352 0.222547 -0.87211 -0.435771 
-0.613823 -0.463037 -0.639389 0.404051 -0.821679 -0.401977 -0.548317 -0.414808 -0.726142 
0.592628 -0.711387 -0.377785 0.706333 -0.48436 -0.516226 -0.901368 -0.12077 -0.415874 
-0.921982 0.0466416 -0.384412 0.441485 0.044207 -0.896179 -0.42963 0.587243 -0.685977 
-0.351534 0.54767 -0.759264 -0.220069 0.81985 -0.528598 0.556139 0.724225 -0.407686 
0.695872 0.593186 -0.404836 0.545278 0.764303 -0.344257 -0.512378 -0.706501 -0.488185 
-0.729832 -0.540661 -0.418367 0.299591 -0.888396 -0.347847 -0.711004 -0.454093 -0.53691 
0.635615 -0.770577 -0.0469602 0.756168 -0.513974 -0.405018 0.788504 -0.30097 -0.536356 
0.678582 -0.0710839 -0.731077 0.7801 -0.0924738 -0.618783 0.627201 -0.0431373 -0.777662 
-0.856327 0.269933 -0.440272 -0.617762 0.502546 -0.604828 0.265448 -0.946981 -0.181009 
0.856726 0.0705126 -0.510929 -0.0835943 0.893577 -0.441058 0.230187 0.900164 -0.369754 
-0.400556 -0.83295 -0.381771 -0.0901558 -0.948243 -0.304478 0.121489 -0.95355 -0.275649 
-0.783225 -0.521267 -0.33888 0.299292 -0.901937 -0.311343 0.468032 -0.879257 -0.088617 
0.643474 -0.764743 -0.0333106 0.870595 -0.490932 -0.0324136 0.908062 -0.084416 -0.41024 
-0.947504 0.075225 -0.310768 -0.393321 0.673553 -0.625799 0.816426 -0.38692 -0.428651 
-0.352626 0.791804 -0.4987 0.802282 0.344114 -0.487779 -0.402215 -0.864823 -0.300507 
-0.0700765 -0.99024 -0.120478 0.376505 -0.92539 -0.0435513 -0.899957 -0.306338 -0.310218 
0.735191 -0.671138 0.0952226 -0.97414 -0.0906094 -0.20698 0.923642 -0.244047 -0.295512 
0.842375 -0.116621 -0.526122 0.852481 -0.0602925 -0.519269 0.597388 0.671342 -0.438666 
-0.0121829 -0.973789 -0.227127 -0.405573 -0.911699 0.065691 -0.708484 -0.653962 -0.265299 
0.0240992 -0.924374 0.380726 -0.823206 -0.564352 -0.0619649 0.159589 -0.982104 0.100015 
0.637937 -0.743198 0.201726 0.506733 -0.713983 0.483167 0.837344 -0.530505 0.131984 
-0.964654 -0.149598 -0.216941 0.964474 -0.263637 -0.016886 0.943176 -0.332015 0.0136116 
-0.977315 0.0810573 -0.195667 0.797287 -0.295966 -0.526058 0.410785 -0.64783 -0.641539 
-0.356673 0.82426 -0.43975 0.641386 -0.674284 -0.366013 0.833102 -0.318988 -0.451871 
0.858582 0.0121861 -0.512531 -0.69684 -0.651973 0.298908 -0.396703 -0.854663 0.33493 
0.451361 -0.867248 0.210129 0.610445 -0.613214 0.501323 0.898422 -0.43716 0.0415866 
0.814545 -0.355287 -0.458571 0.708258 -0.518137 -0.479483 0.646723 -0.464386 -0.605057 
-0.690053 0.635835 -0.345746 0.432333 -0.741136 -0.51362 0.821776 -0.00773669 -0.569758 
0.310992 0.917946 -0.246289 -0.0268727 -0.954628 0.296585 0.0877585 -0.950182 0.299085 
-0.881638 -0.467107 0.0672747 -0.962782 -0.204599 -0.176605 0.795054 -0.467457 0.386488 
0.668988 -0.609266 0.425735 0.823403 -0.553624 -0.12453 -0.811779 0.542216 -0.216836 
0.620634 -0.663141 -0.4184 0.773197 -0.410339 -0.483516 0.665605 0.5809 -0.468535 
-0.35902 -0.871576 0.333857 -0.729605 -0.665516 0.157368 -0.00330043 -0.93459 0.355712 
0.311111 -0.900269 0.304511 0.612885 -0.650957 0.447914 -0.9253 -0.360074 0.11902 
0.746627 -0.485539 0.454753 0.735858 -0.442239 0.512774 0.808464 -0.49116 0.324266 
0.736442 -0.657962 -0.157286 0.745408 -0.502323 -0.438222 -0.552986 0.792473 -0.25728 
0.733893 0.543629 -0.407271 -0.37617 -0.837928 0.395439 -0.154623 -0.869873 0.468416 
0.200615 -0.816268 0.541719 0.424649 -0.666353 0.6129 0.587793 -0.596523 0.546498 
0.723051 -0.659625 0.205163 0.507264 -0.829535 -0.233569 0.906428 0.0361432 -0.420812 
-0.6204 -0.665636 0.414768 0.483642 -0.873059 0.0621205 0.358665 -0.914946 -0.185023 
-0.891383 0.446741 -0.0765441 0.0659 -0.973854 -0.217405 0.623332 -0.608001 -0.491724 
-0.274455 0.950132 -0.14807 0.689159 0.628969 -0.359802 -0.745434 -0.548509 0.37877 
-0.994788 0.0328218 0.0965375 0.585565 -0.770669 0.251361 0.667662 -0.573135 -0.475124 
0.895973 -0.161785 -0.413592 -0.400075 0.912143 -0.0890787 0.595708 0.797721 -0.0936657 
-0.623811 -0.480658 0.616301 -0.38045 -0.548179 0.74482 -0.14934 -0.677723 0.719992 
0.209957 -0.772716 0.599022 -0.801784 -0.46177 0.379356 -0.970385 -0.153241 0.186738 
0.190222 -0.927357 -0.322218 0.36444 -0.780382 -0.508121 0.437267 -0.803778 -0.403408 
0.616139 -0.65079 -0.443671 0.81224 -0.439333 -0.383734 0.947445 -0.183349 -0.262168 
0.943241 0.0669774 -0.325285 0.871362 0.391676 -0.295498 0.818718 0.566708 -0.0924276 
0.877252 0.450192 -0.166602 -0.506205 -0.608888 0.610747 0.0822438 -0.777045 0.624049 
0.460519 -0.692094 0.555813 0.375109 -0.675131 0.635209 0.648247 -0.674317 0.353657 
0.282266 -0.951124 0.125253 0.221391 -0.96573 -0.135466 0.3144 -0.936353 -0.156188 
0.498678 -0.85821 -0.121641 0.763979 -0.615211 -0.194555 0.720999 -0.602364 -0.342517 
0.914564 -0.371203 -0.160563 -0.704104 0.709902 0.0166577 0.988826 0.0141733 -0.148402 
-0.276953 -0.690108 0.668616 -0.687647 -0.486576 0.538873 -0.0609406 -0.700696 0.710853 
0.263655 -0.724644 0.636692 0.009964 -0.736116 0.676782 -0.91193 -0.248692 0.326399 
-0.780649 0.567425 0.261946 -0.0445658 -0.994934 0.0901116 0.692284 -0.718963 -0.0619237 
-0.607387 0.787135 0.107233 0.729669 0.649133 -0.214964 0.468643 0.859275 -0.204988 
-0.522518 -0.557602 0.645023 -0.2185 -0.748712 0.625849 0.137097 -0.723264 0.676826 
0.465233 -0.653181 0.597422 -0.965454 0.0645977 0.252441 0.506146 -0.810265 0.295442 
-0.906007 0.243345 0.346314 0.219466 -0.973442 0.0651507 0.741017 -0.671318 0.015044 
0.972935 -0.228712 -0.0329858 0.947166 0.314556 -0.0627027 0.77114 0.636626 0.00708355 
-0.234829 0.953099 0.190937 -0.10168 0.9931 -0.0584291 -0.11964 -0.688179 0.715609 
-0.245601 -0.545017 0.801646 -0.931042 -0.0725317 0.357631 0.554923 -0.811568 0.182807 
-0.162498 -0.952526 0.257467 0.987793 -0.154291 -0.021409 0.996614 0.000742827 0.0822242 
0.616901 0.786115 0.0381526 0.0741587 -0.624627 0.777394 -0.420438 -0.544392 0.725858 
-0.928686 -0.0378735 0.368929 0.551733 -0.668738 0.498378 0.0763196 -0.967324 0.241786 
0.503087 -0.84347 0.188311 0.85885 -0.490854 0.146421 -0.640786 -0.438026 0.630497 
-0.79989 -0.35451 0.484252 0.72003 -0.681588 0.130365 0.676926 -0.640734 0.36226 
0.829032 -0.447213 0.335719 -0.476718 0.845815 0.239449 0.215594 -0.671028 0.709395 
-0.395743 -0.608748 0.687615 -0.203586 -0.503541 0.839642 0.419242 -0.676261 0.605729 
0.439348 -0.631566 0.638825 0.536679 -0.745665 0.394918 0.887136 -0.342472 0.309357 
0.826647 0.556379 0.0842422 -0.0193131 0.990851 0.133572 -0.657664 -0.226029 0.718602 
-0.574408 -0.187759 0.796745 0.621746 -0.547318 0.560246 -0.714271 -0.129783 0.68773 
-0.733112 0.242199 0.63552 0.39428 -0.800546 0.451297 -0.517095 0.638081 0.570496 
8.04271e-05 -0.907711 0.419595 0.17466 -0.918356 0.355129 0.970737 0.119278 0.208426 
0.669359 0.738445 0.0815907 -0.0251827 -0.507141 0.861495 -0.311202 -0.406898 0.858829 
0.0876566 -0.472195 0.877125 0.432119 -0.64639 0.628851 -0.582086 0.0212033 0.812851 
0.67471 0.674137 0.300509 -0.12599 -0.27557 0.952989 0.165448 -0.29128 0.942222 
0.337978 -0.481791 0.808485 0.425876 -0.758595 0.493116 0.933558 0.255792 0.251077 
0.753168 0.41295 0.512066 -0.134283 0.913675 0.383623 0.637848 0.702293 0.316125 
-0.462033 -0.0661986 0.884389 0.257054 -0.576924 0.775295 -0.476795 -0.00726767 0.878985 
-0.536689 0.300806 0.788341 0.761943 -0.390542 0.516643 0.63875 0.450011 0.62409 
0.267504 0.945586 0.185228 0.507959 0.783797 0.357268 0.0878087 -0.405725 0.909767 
-0.181008 -0.245516 0.952343 -0.380787 -0.0150125 0.924541 -0.255449 0.292418 0.921541 
0.781364 0.0917716 0.617291 0.739945 0.471771 0.479493 0.0948054 -0.626011 0.77403 
0.121465 -0.720089 0.683168 -0.497683 0.142459 0.85558 -0.538617 0.367533 0.758163 
0.30124 -0.831097 0.467474 0.139389 -0.853735 0.501704 0.536254 -0.473446 0.698771 
-0.406917 0.685816 0.603386 -0.298129 0.781108 0.548624 0.74094 0.0354852 0.670633 
0.673047 0.0747312 0.735815 0.595446 0.600027 0.53424 -0.0896594 0.916205 0.390551 
-0.523446 0.133784 0.84149 -0.246405 -0.335159 0.909369 -0.0190621 -0.681972 0.731129 
0.241789 -0.836587 0.49159 -0.380888 0.162696 0.910195 -0.315755 0.586645 0.745753 
0.24604 -0.735613 0.63114 0.375123 -0.564985 0.734898 0.399068 -0.659898 0.636616 
0.374041 -0.491648 0.786368 -0.112128 0.837456 0.534878 0.43963 0.479276 0.759619 
0.558334 0.270825 0.784166 0.00452295 0.811272 0.584652 -0.208898 -0.435525 0.875602 
0.050662 -0.690656 0.721407 -0.333544 -0.135559 0.932938 -0.22616 -0.296426 0.927892 
0.245141 -0.740982 0.625181 0.208065 -0.702379 0.680715 0.366745 -0.600823 0.710289 
-0.352551 0.341469 0.871267 -0.271417 0.369973 0.888512 -0.325541 0.373038 0.86883 
-0.149793 0.53197 0.833408 0.259597 -0.699896 0.665398 0.202151 -0.768763 0.606744 
-0.066256 0.401398 0.913504 0.453364 -0.185029 0.871909 0.522157 -0.0673826 0.850183 
-0.169291 0.779549 0.603029 0.485643 0.122446 0.865539 -0.0873022 0.787722 0.609813 
0.0391852 0.747723 0.662853 0.174474 0.807929 0.562859 -0.217152 -0.222576 0.950424 
-0.142743 -0.15162 0.978078 0.0682771 -0.617424 0.783662 0.141834 -0.586612 0.797351 
-0.164525 0.0846754 0.982732 0.105839 -0.429902 0.896651 0.248761 -0.614779 0.748441 
-0.340928 0.366774 0.865589 -0.158797 0.0837759 0.983751 0.194783 -0.504613 0.841086 
-0.103858 0.273224 0.956327 -0.0769838 0.0777667 0.993995 0.092169 0.0291995 0.995315 
0.0629226 -0.0739473 0.995275 0.179447 -0.445202 0.877265 0.00448761 0.370224 0.928932 
0.100725 0.152168 0.983209 0.052615 -0.0250478 0.998301 0.113619 -0.131962 0.984722 
0.16728 -0.271794 0.947705 0.147042 -0.459232 0.876062 0.0632211 -0.0344413 0.997405 
0.402079 -0.245419 0.882101 -0.0394396 0.532881 0.84527 0.0302519 0.54608 0.837186 
0.0780748 0.595732 0.79938 0.412578 0.0853691 0.906913 0.208598 0.497614 0.841942 
0.0328509 0.620994 0.783126 0.0561273 0.512425 0.856896 -0.0757717 -0.225166 0.97137 
0.180478 -0.4963 0.849184 -0.037066 0.07224 0.996698 0.228773 -0.339251 0.912454 
0.10927 -0.314686 0.942885 0.262924 -0.581127 0.770171 -0.015033 0.00179968 0.999885 
0.118256 -0.0115531 0.992916 0.24625 -0.557114 0.793085 0.00934958 0.181045 0.98343 
0.0433597 0.16374 0.98555 0.100321 0.198519 0.974949 0.0746472 -0.111978 -0.990903 
0.0486545 -0.536709 -0.842364 -0.111236 -0.1792 -0.977504 0.0716788 -0.196794 -0.977821 
0.298706 -0.600303 -0.741897 0.200529 -0.206388 -0.957701 0.280293 -0.266294 -0.922238 
-0.00388079 -0.190843 -0.981613 -0.0539667 0.121043 -0.991179 -0.00381537 -0.171046 -0.985256 
0.0219348 -0.239973 -0.970532 0.146327 -0.0237959 -0.98895 0.0983682 -0.396601 -0.912705 
-0.121136 0.541104 -0.832185 0.185798 0.301952 -0.935043 -0.031537 0.774686 -0.631559 
-0.0983801 -0.499206 -0.86088 0.021218 -0.559095 -0.828832 0.0281512 -0.847444 -0.530138 
0.0589296 -0.688238 -0.723088 -0.195805 -0.588244 -0.784621 0.190278 -0.611732 -0.76784 
0.0311655 -0.409184 -0.911919 -0.0068171 -0.516755 -0.856106 0.0373975 -0.692488 -0.720459 
0.19398 -0.650551 -0.734272 -0.180112 -0.15415 -0.971492 -0.125743 -0.0564303 -0.990457 
-0.301409 0.141258 -0.942973 -0.0663381 0.0965459 -0.993115 0.260007 -0.377773 -0.888641 
-0.188761 0.381746 -0.904787 -0.0810136 0.159322 -0.983897 0.133898 -0.87019 -0.474174 
0.00936512 0.128546 -0.991659 0.129879 -0.559381 -0.818672 0.0248718 -0.629827 -0.776337 
0.0739978 -0.379441 -0.922252 0.0941464 -0.738155 -0.66803 0.0419909 0.0647239 -0.997019 
-0.0454111 -0.184026 -0.981872 0.042522 -0.726697 -0.685641 0.396946 -0.187781 -0.898428 
-0.0712211 0.276173 -0.958465 0.217839 -0.210504 -0.953013 0.256653 0.453146 -0.853691 
0.0774862 0.881626 -0.465544 -0.0636621 -0.567202 -0.821114 0.342839 -0.724675 -0.597752 
-0.304099 0.35534 -0.883887 0.108938 -0.821026 -0.5604 -0.371564 0.57867 -0.726004 
-0.112409 0.532088 -0.839194 -0.224009 0.653177 -0.723312 -0.0348049 0.412614 -0.910241 
0.105682 -0.759356 -0.642036 -0.114353 0.564667 -0.817359 0.259492 -0.0827509 -0.962194 
0.242324 -0.478063 -0.844237 0.134133 0.516215 -0.84589 0.362585 0.694725 -0.6212 
0.645928 -0.215782 -0.732267 -0.203801 0.665045 -0.718457 -0.328317 -0.187671 -0.925736 
-0.375859 0.105488 -0.920653 0.187188 -0.827027 -0.530082 0.636614 -0.24993 -0.729559 
0.333225 -0.360998 -0.871 0.438694 -0.670655 -0.598139 -0.125449 0.924351 -0.36033 
0.227477 0.858936 -0.458784 -0.220476 -0.388516 -0.894676 0.0416462 -0.627889 -0.777188 
0.0713688 -0.637707 -0.766965 -0.151556 -0.43392 -0.888113 0.156648 -0.817172 -0.5547 
-0.456402 -0.0261867 -0.889388 0.218551 -0.838232 -0.499602 0.58578 -0.298901 -0.753339 
0.792736 -0.163337 -0.587274 0.826265 0.133503 -0.547232 0.688941 0.519145 -0.505814 
0.766593 0.23279 -0.598452 -0.163831 0.822341 -0.544899 -0.173336 0.925199 -0.337581 
0.191167 -0.36601 -0.910765 0.0901688 -0.655809 -0.749523 0.304776 -0.689026 -0.657537 
-0.0224405 -0.364032 -0.931116 0.185532 -0.907191 -0.377601 0.364968 -0.675964 -0.640212 
0.549245 -0.505805 -0.6652 0.703484 -0.285873 -0.650682 -0.324137 0.867205 -0.378008 
0.855718 0.0949654 -0.508653 -0.19644 0.854384 -0.481081 0.767255 0.2333 -0.597404 
0.566074 0.795803 -0.215075 0.450019 -0.583477 -0.676046 0.327265 -0.836628 -0.439262 
-0.591219 0.454429 -0.666299 0.873032 -0.0190517 -0.487291 0.903918 -0.187681 -0.384329 
0.723483 0.645058 -0.24591 0.804969 0.568418 -0.170075 0.518438 0.815922 -0.255917 
0.274617 -0.261912 -0.925196 -0.420679 -0.167904 -0.891536 -0.375035 -0.100419 -0.921555 
-0.63769 0.23708 -0.732901 -0.524564 0.605994 -0.597999 0.520906 -0.676148 -0.521039 
0.383102 -0.665193 -0.640899 0.678076 -0.475436 -0.560512 0.932029 -0.288506 -0.219285 
0.927891 0.255962 -0.271112 0.806218 0.581801 -0.107335 0.90693 0.386137 -0.168451 
0.00119836 -0.31992 -0.947444 -0.379177 -0.221931 -0.898316 0.301686 -0.287188 -0.909125 
-0.528937 0.794975 -0.297051 0.952995 0.289579 -0.0891285 0.015174 0.993406 -0.113637 
-0.12745 -0.44605 -0.885887 -0.112487 -0.524305 -0.844068 0.539379 -0.475438 -0.695002 
-0.841427 -0.0132091 -0.54021 -0.752637 0.138523 -0.643699 0.313194 -0.888257 -0.33602 
0.532117 -0.733605 -0.422699 0.686851 -0.664068 -0.295381 0.985512 0.134194 -0.103722 
0.0813874 -0.613906 -0.785173 -0.377653 -0.492223 -0.78428 -0.541022 -0.334017 -0.771834 
-0.688213 -0.157979 -0.7081 -0.668923 0.622819 -0.405758 0.986258 -0.0100534 -0.164905 
-0.097188 -0.619697 -0.7788 -0.451294 -0.493946 -0.743203 -0.803345 0.00240834 -0.595509 
-0.835689 0.352231 -0.421376 0.197332 -0.895164 -0.399677 0.803485 -0.549244 -0.229659 
0.961927 -0.227848 -0.150937 0.962306 0.271935 0.00432844 0.764376 0.644351 -0.0232643 
-0.00323852 0.99906 0.043235 -0.679749 -0.289304 -0.673977 -0.67816 0.707323 -0.199482 
0.968862 0.247017 0.0170082 0.350269 0.936493 -0.0170767 0.188339 0.978573 0.0832025 
-0.463459 -0.566321 -0.681532 -0.862033 -0.261223 -0.434352 -0.879713 -0.17732 -0.441205 
-0.934113 0.0193368 -0.356454 0.596358 -0.78312 -0.176295 0.953859 -0.29528 -0.0544314 
-0.456252 0.87054 -0.184374 0.989449 0.137721 0.0449921 -0.224959 -0.665902 -0.711314 
-0.714427 -0.434148 -0.548734 0.752956 -0.413664 -0.5118 -0.921436 0.2109 -0.326307 
0.153023 -0.982309 -0.10795 0.850511 -0.508307 -0.135113 0.993092 -0.0701764 0.0940394 
0.900113 0.429505 0.0729506 0.564259 0.817714 0.113823 -0.466689 -0.61458 -0.635998 