# vtk DataFile Version 4.2
vtk output
ASCII
DATASET POLYDATA
POINTS 1651 float
338.925 132.937 131.804 338.888 132.833 131.895 339.018 133.007 131.774 
339.03 132.894 131.851 339.118 133.019 131.815 339.345 133.272 131.876 
339.307 133.371 131.867 339.37 133.323 131.896 338.697 132.736 132.052 
338.577 132.58 132.263 338.435 132.678 132.194 338.003 132.954 132.209 
339.239 133.176 131.872 338.86 133.372 131.789 339.114 133.453 131.821 
338.844 138.363 132.478 338.7 138.883 132.452 338.52 139.3 132.458 
338.727 139.284 132.632 334.549 145.443 133.091 338.576 132.464 132.539 
338.844 132.523 132.443 336.342 133.196 132.964 337.079 132.793 132.894 
338.97 132.627 132.263 339.144 132.783 132.236 338.823 134.628 132.017 
338.268 136.009 131.938 339.362 134.933 132.611 338.534 136.323 132.062 
338.916 136.11 132.316 337.118 138.2 131.914 336.964 138.121 131.951 
337.168 138.099 131.927 338.295 136.864 131.998 339.175 136.786 132.706 
337.189 138.272 131.923 339.267 138.363 133.141 337.47 140.625 132.388 
336.793 141.21 132.351 338.497 141.179 133.343 336.004 143.132 132.721 
337.128 142.938 132.998 334.519 144.95 133.072 334.863 145.177 133.166 
334.026 146.056 133.425 334.495 145.963 133.394 330.422 149.569 134.27 
330.388 149.56 134.289 330.396 149.593 134.318 330.439 149.525 134.283 
330.447 149.558 134.312 339.164 132.715 132.528 339.047 132.588 132.741 
337.568 136.548 131.897 337.322 138.479 131.988 339.005 139.835 133.513 
337.745 143.083 133.486 337.5 143.597 133.561 334.615 146.095 133.55 
330.393 149.476 134.318 330.267 149.591 134.402 330.52 149.416 134.369 
330.435 149.639 134.458 324.806 154.32 135.274 324.816 154.228 135.258 
324.671 154.354 135.279 324.784 154.44 135.357 320.44 158.304 135.242 
320.429 158.274 135.267 320.399 158.327 135.271 320.465 158.267 135.279 
320.435 158.32 135.283 333.738 134.129 134 334.931 136.205 132.695 
339.571 136.5 133.602 339.425 138.534 133.932 333.922 141.029 132.864 
332.518 146.251 133.799 333.61 147.039 134.11 334.673 146.662 134.137 
330.331 149.239 134.385 332.277 147.761 134.382 330.836 148.962 134.47 
329.866 149.507 134.501 330.028 150.061 134.733 324.833 153.985 135.27 
325.741 153.34 135.432 324.101 154.595 135.285 320.49 158.132 135.362 
320.315 158.301 135.337 320.494 158.268 135.396 319.001 159.44 135.366 
320.341 158.398 135.381 318.602 159.567 135.31 319.185 159.483 135.469 
317.979 159.989 135.445 318.584 159.97 135.438 318.809 159.925 135.542 
317.895 160.238 135.507 317.576 160.402 135.687 317.793 160.468 135.632 
318.314 160.335 135.69 338.11 132.18 133.664 338.906 132.485 133.817 
339.244 132.845 133.87 332.885 133.498 135.081 332.09 135.084 134.409 
339.588 136.753 134.101 339.53 137.57 134.236 307.257 140.186 136.912 
307.144 139.895 137.046 339.43 138.174 134.546 307.179 140.418 136.867 
307.029 140.514 136.906 307.488 140.214 136.933 307.222 140.742 136.846 
307.475 140.974 136.844 338.124 143.367 134.17 338.49 142.715 134.827 
337.556 145.096 135.125 337.73 144.974 135.151 330.091 146.539 134.362 
336.173 145.769 134.303 331.041 147.854 134.332 332.299 148.506 134.775 
327.312 150.889 135.06 329.203 151.158 135.258 326.615 152.949 135.628 
320.301 157.976 135.442 320.723 157.976 135.559 319.892 158.654 135.482 
320.468 158.467 135.693 319.544 159.291 135.653 317.282 160.505 135.951 
317.603 160.562 135.69 317.638 160.607 135.726 318.116 160.514 135.95 
317.554 160.628 135.744 339.081 132.571 134.128 339.04 132.52 134.379 
336.795 132.015 135.284 337.582 132.088 134.302 337.532 132.06 134.89 
330.296 134.056 136.203 339.519 134.166 134.407 328.996 135.696 135.74 
305 137.009 135.017 305 137.009 135.017 305 137.009 135.017 
305 137.009 135.017 305 137.009 135.017 307.2 139.108 137.591 
307.673 139.688 137.291 306.623 139.552 137.407 307.599 139.976 137.088 
306.633 139.944 137.306 306.983 142.106 137.139 307.978 142.181 136.95 
307.09 142.681 137.189 306.776 142.275 137.328 307.496 142.868 137.049 
308.263 143.446 137.07 307.085 143.784 137.447 306.881 144.306 137.823 
307.718 143.875 137.186 307.25 144.284 137.505 332.632 148.752 135.085 
334.512 147.971 135.571 325.56 149.382 135.429 332.091 149.61 135.509 
333.293 149.041 135.831 330.621 150.662 135.576 329.018 151.55 135.535 
326.664 153.657 136.103 320.739 155.759 135.67 325.008 155.257 136.302 
321.093 157.114 135.617 318.181 158.306 135.846 316.356 159.975 136.447 
316.167 160.582 136.694 315.863 160.939 137.054 317.23 160.753 136.264 
316.794 161.05 136.864 317.725 160.729 136.29 339.049 132.583 134.562 
338.85 132.445 134.62 339.135 132.793 134.646 335.396 132.099 136.256 
336.212 132.065 135.324 333.516 132.797 135.603 334.365 132.352 136.026 
326.676 135.193 137.339 328.1 134.427 137.262 339.294 134.556 135.241 
323 135.009 136.017 323 135.009 136.017 323 135.009 136.017 
323 135.009 136.017 323 135.009 136.017 305.919 138.08 138.43 
305.917 138.044 138.52 305 137.009 135.017 306.1 139.546 138.034 
306.428 141.969 137.694 308.988 142.269 137.16 338.525 142.576 135.858 
308.052 145.014 137.477 327.572 146.018 135.236 307.474 145.504 137.896 
308.844 145.587 137.619 334.28 148.672 136.336 333.117 149.733 136.633 
327.021 154.012 136.716 320.184 155.05 135.947 322.766 157.348 136.791 
314.963 160.719 137.456 317.892 160.846 137.133 314.459 161.374 138.103 
315.029 161.489 138.003 341 129.009 137.017 341 129.009 137.017 
341 129.009 137.017 341 129.009 137.017 338.03 132.172 135.764 
337.825 132.135 136.127 338.249 132.276 135.717 341 129.009 137.017 
337.164 132.054 136.126 333.055 132.542 136.886 338.576 132.933 135.901 
330.351 133.474 137.015 323 135.009 136.017 323.069 136.776 138.785 
322.919 136.842 138.845 323.259 136.66 138.827 323.45 136.878 138.502 
305.993 137.964 138.716 306.16 138.067 138.486 306.539 138.153 138.314 
306.851 138.068 138.493 309 137.009 137.017 309 137.009 137.017 
309 137.009 137.017 309 137.009 137.017 323.217 136.992 138.572 
338.439 136.719 136.653 306.065 138.344 138.316 305.863 138.277 138.627 
309 137.009 137.017 318 138.009 137.017 318 138.009 137.017 
318 138.009 137.017 318 138.009 137.017 309.676 139.737 138.734 
318 138.009 137.017 311.021 142.093 137.996 337.892 144.556 136.487 
306.915 146.262 138.776 324.419 146.252 136.386 308.53 147.208 138.31 
334.545 148.714 136.865 318.525 154.149 136.835 314.394 160.354 137.767 
313.244 161.195 138.677 313.902 161.34 138.37 341 129.009 137.017 
337.518 132.085 136.246 337.91 132.253 136.289 338.139 132.386 136.151 
336.517 132.214 137.02 331.008 133.085 137.467 327.445 134.373 138.235 
328.155 134.085 138.113 303 136.009 138.017 303 136.009 138.017 
303 136.009 138.017 303 136.009 138.017 322.822 136.854 138.952 
324.224 136.315 138.638 303 136.009 138.017 307.386 138.155 138.778 
309 137.009 137.017 322.939 137.314 138.649 324.958 137.296 137.514 
318 138.009 137.017 318.762 139.646 139.524 318.686 139.655 139.547 
318.84 139.688 139.472 318.689 139.708 139.523 312.697 141.837 138.81 
310.456 144.306 137.634 312.531 143.239 138.248 337.986 143.978 136.983 
306.119 145.004 139.049 311.288 145.512 137.969 306.734 147.174 139.524 
331.258 151.758 138.003 318.474 152.563 137.2 314.943 158.434 137.659 
312.036 161.084 139.381 316.603 161.583 139.011 311.716 162.226 139.822 
312.43 162.274 139.587 313.437 162.254 139.369 335.991 132.18 137.74 
337.333 132.311 136.739 337.171 132.692 137.121 330.73 133.143 137.84 
332.821 132.561 137.881 336.372 132.794 137.8 326.498 134.72 138.833 
327.064 134.469 138.673 328.552 133.894 138.492 303 136.009 138.017 
305.902 137.639 139.951 307.267 137.628 139.687 307.568 137.757 139.804 
322.456 137.204 139.189 305.695 137.993 139.607 306.86 137.665 139.282 
321.037 137.848 140.061 321.879 137.837 139.174 318.444 139.834 139.647 
318.919 139.38 139.879 319.468 139.777 139.263 317.589 140.104 139.896 
318.585 141.515 138.83 313.404 143.263 138.469 316.009 144.04 138.509 
305.754 145.158 139.929 334.709 148.873 138.172 308.136 149.934 139.814 
311.442 162.037 139.91 314.859 162.205 139.75 310.795 163.196 141.009 
335.822 132.199 137.935 335.645 132.193 137.964 335.812 132.326 138.032 
332.066 132.876 138.63 333.229 132.554 138.182 334.201 132.64 138.454 
334.961 132.653 138.362 330.582 133.381 138.878 334.187 133.443 139.026 
335.448 132.502 138.22 329.037 133.932 139.267 326.24 134.78 139.27 
324.023 135.937 139.779 305.736 137.802 139.986 306.491 137.35 140.358 
306.711 137.362 140.161 307.733 137.627 140.477 322.189 137.103 139.864 
333.61 135.748 139.787 305.636 137.991 139.98 321.546 137.43 140.247 
305.35 140.502 140.435 312.191 139.837 140.828 314.293 140.713 140.12 
315.918 141.687 139.255 314.861 142.226 139.023 338.071 143.305 137.258 
315.056 146.107 138.35 336.107 146.908 138.707 306.133 148.787 141.533 
335.51 147.686 139.151 313.206 150.324 138.956 333.737 149.716 139.66 
307.328 150.324 140.663 314.093 154.357 138.968 309.472 163.346 141.822 
335.664 132.249 138.051 331.569 133.226 139.102 335.61 132.35 138.127 
330.005 133.767 139.329 326.78 134.603 139.785 332.965 133.809 139.57 
324.603 135.608 140.466 317.103 139.579 140.949 335.274 147.664 139.679 
334.546 148.759 139.788 311.356 153.573 140.162 312.628 153.099 139.564 
331.521 151.966 140.135 329.683 153.708 140.844 309.679 163.903 142.419 
331.575 133.528 139.447 333.685 132.941 138.982 328.133 134.767 140.682 
328.291 134.832 140.708 326.578 134.915 140.567 328.79 134.97 140.651 
324.721 135.666 140.842 305.743 137.559 141.658 306.338 137.106 142.071 
307.925 137.292 142.29 321.972 137.114 140.996 320.211 138.092 141.998 
317.388 139.216 141.901 313.816 139.814 141.746 335.42 145.981 139.876 
334.948 147.768 140.129 334.637 148.218 140.358 310.143 154.503 140.925 
310.576 154.204 140.634 329.811 153.624 141.801 326.189 156.55 141.972 
324.545 157.559 141.026 308.687 160.289 141.901 310.626 163.802 142.32 
[...]
POINT_DATA 1651
SCALARS scalars float
LOOKUP_TABLE default
1 1 1 1 1 1 1 1 1 
1 1 1 1 1 1 1 1 1 
1 1 1 1 1 1 1 1 1 
1 1 1 1 1 1 1 1 1 
1 1 1 1 1 1 1 1 1 
1 1 1 1 1 1 1 1 1 
1 1 1 1 1 1 1 1 1 
1 1 1 1 1 1 1 1 1 
1 1 1 1 1 1 1 1 1 
1 1 1 1 1 1 1 1 1 
1 1 1 1 1 1 1 1 1 
1 1 1 1 1 1 1 1 1 
1 1 1 1 1 1 1 1 1 
1 1 1 1 1 1 1 1 1 
1 1 1 1 1 1 1 1 1 
1 1 1 1 1 1 1 1 1 
1 1 1 1 1 1 1 1 1 
1 1 1 1 1 1 1 1 1 
1 1 1 1 1 1 1 1 1 
1 1 1 1 1 1 1 1 1 
1 1 1 1 1 1 1 1 1 
1 1 1 1 1 1 1 1 1 
1 1 1 1 1 1 1 1 1 
1 1 1 1 1 1 1 1 1 
1 1 1 1 1 1 1 1 1 
1 1 1 1 1 1 1 1 1 
1 1 1 1 1 1 1 1 1 
1 1 1 1 1 1 1 1 1 
1 1 1 1 1 1 1 1 1 
1 1 1 1 1 1 1 1 1 
1 1 1 1 1 1 1 1 1 
1 1 1 1 1 1 1 1 1 
1 1 1 1 1 1 1 1 1 
1 1 1 1 1 1 1 1 1 
1 1 1 1 1 1 1 1 1 
1 1 1 1 1 1 1 1 1 
1 1 1 1 1 1 1 1 1 
1 1 1 1 1 1 1 1 1 
1 1 1 1 1 1 1 1 1 
1 1 1 1 1 1 1 1 1 
1 1 1 1 1 1 1 1 1 
1 1 1 1 1 1 1 1 1 
1 1 1 1 1 1 1 1 1 
1 1 1 1 1 1 1 1 1 
1 1 1 1 1 1 1 1 1 
1 1 1 1 1 1 1 1 1 
1 1 1 1 1 1 1 1 1 
1 1 1 1 1 1 1 1 1 
1 1 1 1 1 1 1 1 1 
1 1 1 1 1 1 1 1 1 
1 1 1 1 1 1 1 1 1 
1 1 1 1 1 1 1 1 1 
1 1 1 1 1 1 1 1 1 
1 1 1 1 1 1 1 1 1 
1 1 1 1 1 1 1 1 1 
1 1 1 1 1 1 1 1 1 
1 1 1 1 1 1 1 1 1 
1 1 1 1 1 1 1 1 1 
1 1 1 1 1 1 1 1 1 
1 1 1 1 1 1 1 1 1 
1 1 1 1 1 1 1 1 1 
1 1 1 1 1 1 1 1 1 
1 1 1 1 1 1 1 1 1 
1 1 1 1 1 1 1 1 1 
1 1 1 1 1 1 1 1 1 
1 1 1 1 1 1 1 1 1 
1 1 1 1 1 1 1 1 1 
1 1 1 1 1 1 1 1 1 
1 1 1 1 1 1 1 1 1 
1 1 1 1 1 1 1 1 1 
1 1 1 1 1 1 1 1 1 
1 1 1 1 1 1 1 1 1 
1 1 1 1 1 1 1 1 1 
1 1 1 1 1 1 1 1 1 
1 1 1 1 1 1 1 1 1 
1 1 1 1 1 1 1 1 1 
1 1 1 1 1 1 1 1 1 
1 1 1 1 1 1 1 1 1 
1 1 1 1 1 1 1 1 1 
1 1 1 1 1 1 1 1 1 
1 1 1 1 1 1 1 1 1 
1 1 1 1 1 1 1 1 1 
1 1 1 1 1 1 1 1 1 
1 1 1 1 1 1 1 1 1 
1 1 1 1 1 1 1 1 1 
1 1 1 1 1 1 1 1 1 
1 1 1 1 1 1 1 1 1 
1 1 1 1 1 1 1 1 1 
1 1 1 1 1 1 1 1 1 
1 1 1 1 1 1 1 1 1 
1 1 1 1 1 1 1 1 1 
1 1 1 1 1 1 1 1 1 
1 1 1 1 1 1 1 1 1 
1 1 1 1 1 1 1 1 1 
1 1 1 1 1 1 1 1 1 
1 1 1 1 1 1 1 1 1 
1 1 1 1 1 1 1 1 1 
1 1 1 1 1 1 1 1 1 
1 1 1 1 1 1 1 1 1 
1 1 1 1 1 1 1 1 1 
1 1 1 1 1 1 1 1 1 
1 1 1 1 1 1 1 1 1 
1 1 1 1 1 1 1 1 1 
1 1 1 1 1 1 1 1 1 
1 1 1 1 1 1 1 1 1 
1 1 1 1 1 1 1 1 1 
1 1 1 1 1 1 1 1 1 
1 1 1 1 1 1 1 1 1 
1 1 1 1 1 1 1 1 1 
1 1 1 1 1 1 1 1 1 
1 1 1 1 1 1 1 1 1 
1 1 1 1 1 1 1 1 1 
1 1 1 1 1 1 1 1 1 
1 1 1 1 1 1 1 1 1 
1 1 1 1 1 1 1 1 1 
1 1 1 1 1 1 1 1 1 
1 1 1 1 1 1 1 1 1 
1 1 1 1 1 1 1 1 1 
1 1 1 1 1 1 1 1 1 
1 1 1 1 1 1 1 1 1 
1 1 1 1 1 1 1 1 1 
1 1 1 1 1 1 1 1 1 
1 1 1 1 1 1 1 1 1 
1 1 1 1 1 1 1 1 1 
1 1 1 1 1 1 1 1 1 
1 1 1 1 1 1 1 1 1 
1 1 1 1 1 1 1 1 1 
1 1 1 1 1 1 1 1 1 
1 1 1 1 1 1 1 1 1 
1 1 1 1 1 1 1 1 1 
1 1 1 1 1 1 1 1 1 
1 1 1 1 1 1 1 1 1 
1 1 1 1 1 1 1 1 1 
1 1 1 1 1 1 1 1 1 
1 1 1 1 1 1 1 1 1 
1 1 1 1 1 1 1 1 1 
1 1 1 1 1 1 1 1 1 
1 1 1 1 1 1 1 1 1 
1 1 1 1 1 1 1 1 1 
1 1 1 1 1 1 1 1 1 
1 1 1 1 1 1 1 1 1 
1 1 1 1 1 1 1 1 1 
1 1 1 1 1 1 1 1 1 
1 1 1 1 1 1 1 1 1 
1 1 1 1 1 1 1 1 1 
1 1 1 1 1 1 1 1 1 
1 1 1 1 1 1 1 1 1 
1 1 1 1 1 1 1 1 1 
1 1 1 1 1 1 1 1 1 
1 1 1 1 1 1 1 1 1 
1 1 1 1 1 1 1 1 1 
1 1 1 1 1 1 1 1 1 
1 1 1 1 1 1 1 1 1 
1 1 1 1 1 1 1 1 1 
1 1 1 1 1 1 1 1 1 
1 1 1 1 1 1 1 1 1 
1 1 1 1 1 1 1 1 1 
1 1 1 1 1 1 1 1 1 
1 1 1 1 1 1 1 1 1 
1 1 1 1 1 1 1 1 1 
1 1 1 1 1 1 1 1 1 
1 1 1 1 1 1 1 1 1 
1 1 1 1 1 1 1 1 1 
1 1 1 1 1 1 1 1 1 
1 1 1 1 1 1 1 1 1 
1 1 1 1 1 1 1 1 1 
1 1 1 1 1 1 1 1 1 
1 1 1 1 1 1 1 1 1 
1 1 1 1 1 1 1 1 1 
1 1 1 1 1 1 1 1 1 
1 1 1 1 1 1 1 1 1 
1 1 1 1 1 1 1 1 1 
1 1 1 1 1 1 1 1 1 
1 1 1 1 1 1 1 1 1 
1 1 1 1 1 1 1 1 1 
1 1 1 1 1 1 1 1 1 
1 1 1 1 1 1 1 1 1 
1 1 1 1 1 1 1 1 1 
1 1 1 1 1 1 1 1 1 
1 1 1 1 1 1 1 1 1 
1 1 1 1 1 1 1 1 1 
1 1 1 1 1 1 1 1 1 
1 1 1 1 1 1 1 1 1 
1 1 1 1 
NORMALS Normals float
-0.204818 -0.43456 -0.877044 0.0193564 -0.789741 -0.613135 0.201561 -0.173412 -0.964003 
0.350501 -0.734548 -0.581024 0.616242 -0.42493 -0.663084 0.61607 -0.297427 -0.729379 
0.346048 0.102935 -0.932553 0.918734 -0.0954916 -0.383156 -0.106665 -0.752597 -0.649785 
-0.100026 -0.858908 -0.502266 -0.340263 -0.757308 -0.55741 -0.390171 -0.342084 -0.854836 
0.453266 -0.224811 -0.86256 -0.0918333 0.0258348 -0.995439 0.218409 0.0839011 -0.972244 
0.378927 0.0488333 -0.924137 0.678496 0.167662 -0.715215 0.424312 0.268676 -0.864739 
0.733587 0.358103 -0.577592 0.147449 0.294476 -0.944215 -0.0228364 -0.95545 -0.294268 
0.423143 -0.889571 -0.172084 -0.421359 -0.629416 -0.65291 -0.414036 -0.651324 -0.635886 
0.275209 -0.870354 -0.408342 0.73069 -0.63063 -0.261529 0.411281 0.18494 -0.89255 
0.316112 0.0508147 -0.94736 0.886159 0.126238 -0.445855 0.385581 0.0607805 -0.92067 
0.691823 0.0911821 -0.716287 -0.151551 0.104489 -0.982911 -0.230503 0.15528 -0.960602 
0.126462 -0.0332138 -0.991415 0.455297 0.0912887 -0.885647 0.890529 0.126558 -0.436969 
-0.0481032 0.262791 -0.963653 0.872049 0.126933 -0.472672 0.308668 0.230054 -0.92293 
-0.147892 0.104924 -0.983422 0.83391 0.288797 -0.470309 0.153341 0.300307 -0.941436 
0.415978 0.369774 -0.8308 0.164419 0.134982 -0.977111 0.458912 0.356061 -0.814015 
0.0260033 0.585182 -0.810485 0.200304 0.584674 -0.786152 0.233811 0.520138 -0.821456 
-0.533808 0.0760356 -0.84218 -0.00594351 0.889173 -0.457533 0.276973 -0.236107 -0.931418 
0.78315 0.517638 -0.344568 0.755323 -0.648626 -0.0936554 0.454702 -0.889105 -0.0523326 
-0.0225119 0.000259686 -0.999747 0.147031 0.186689 -0.971354 0.904815 0.313859 -0.287753 
0.702755 0.296504 -0.646699 0.494741 0.462094 -0.736003 0.415403 0.583211 -0.698073 
-0.297856 -0.345557 -0.889872 -0.391935 0.389255 -0.833587 0.605872 0.00140906 -0.795561 
0.525764 0.649339 -0.549482 0.766489 0.335018 -0.547957 0.397849 0.0970669 -0.912302 
0.0257588 0.254619 -0.966698 0.602393 0.49916 -0.622866 0.318116 0.221365 -0.921846 
-0.304241 -0.509538 -0.804866 -0.360015 0.474057 -0.803529 0.816169 -0.0286161 -0.577104 
0.626776 0.75064 -0.209027 -0.423034 -0.512121 -0.747512 -0.392485 -0.139325 -0.909145 
0.95843 0.0914676 -0.27027 0.984786 0.152957 -0.0824647 -0.210093 0.012683 -0.977599 
-0.196584 0.211676 -0.957365 0.180326 0.613371 -0.768933 0.428196 0.674175 -0.601778 
-0.0495029 0.0388323 -0.998019 0.0873372 0.356092 -0.930361 0.400065 0.267255 -0.876654 
-0.0926431 0.386886 -0.917462 0.0789249 0.549557 -0.83172 0.258447 0.0793284 -0.962763 
0.362598 0.528846 -0.767363 0.147228 0.345802 -0.926685 0.332985 -0.234555 -0.913293 
-0.441211 -0.106111 -0.891108 0.821835 0.469849 -0.322227 0.374581 0.297696 -0.878103 
0.272004 0.800598 -0.533907 0.060014 0.187234 -0.98048 0.436575 0.423526 -0.793743 
-0.425358 -0.0346277 -0.904363 0.281911 0.515908 -0.808929 0.556686 0.679276 -0.478211 
-0.308859 0.095945 -0.946256 -0.551654 -0.0177627 -0.833884 0.0868291 0.571195 -0.816209 
0.474839 0.806425 -0.352428 -0.0949644 -0.971518 -0.217105 0.478755 -0.877793 -0.0164986 
0.89603 -0.443941 0.00680571 -0.417609 -0.71856 -0.556124 -0.423448 -0.251697 -0.870253 
0.988709 0.138238 -0.0578284 0.991796 0.0442564 0.119921 -0.201735 -0.263627 -0.943294 
-0.0158875 -0.51526 -0.856887 0.965841 0.134861 0.221279 -0.118388 -0.140782 -0.982937 
-0.584322 -0.0270389 -0.811071 0.312239 -0.298827 -0.901781 -0.204301 0.0504587 -0.977607 
0.144981 -0.017854 -0.989273 0.82911 0.323847 -0.455741 0.961677 0.25203 -0.107972 
0.627617 0.720363 -0.295253 0.789782 0.561393 -0.247147 -0.164382 -0.00930514 -0.986353 
0.505904 0.636347 -0.582344 0.114699 0.155063 -0.981223 0.284945 0.442961 -0.850054 
0.0172602 0.239559 -0.970728 0.277558 0.64353 -0.713324 0.395197 0.439564 -0.806599 
-0.20765 -0.205188 -0.956441 0.701315 0.44699 -0.555299 0.104511 0.227057 -0.968257 
0.627043 0.632033 -0.455358 0.660761 0.684555 -0.307863 -0.603348 0.232509 -0.76283 
-0.234154 0.386489 -0.892075 0.17953 0.795841 -0.578278 0.379893 0.90448 -0.1939 
-0.311909 0.709359 -0.632078 0.594968 -0.797762 -0.0979167 0.748467 -0.659859 0.0662071 
-0.0537862 -0.962066 -0.267462 0.0398651 -0.996099 -0.0787182 0.112813 -0.986348 -0.119958 
-0.361314 -0.685307 -0.632302 0.990719 -0.0432204 0.12887 -0.432714 -0.408378 -0.803732 
0 -0.178885 -0.98387 0 -1 0 -0.961524 -0.274721 3.6843e-08 
0.961524 -0.274721 3.6843e-08 0 0.447214 -0.894427 0.243213 -0.656281 -0.714243 
0.33919 -0.549625 -0.763454 -0.559569 -0.271565 -0.783029 0.422644 -0.313858 -0.850215 
-0.655024 -0.110047 -0.747552 -0.482483 0.10997 -0.868975 0.221125 0.0335119 -0.97467 
-0.599762 0.250122 -0.760082 -0.729744 0.216742 -0.648457 -0.166602 0.161691 -0.972676 
0.045909 0.0928803 -0.994618 -0.55788 0.167492 -0.812845 -0.628765 0.319908 -0.70874 
-0.148332 0.19859 -0.968793 -0.475443 0.356796 -0.804146 0.402114 0.587298 -0.702414 
0.589293 0.659672 -0.466441 -0.187161 -0.164085 -0.968528 0.42625 0.607392 -0.670362 
0.48169 0.709368 -0.514559 0.523328 0.619862 -0.584722 0.320821 0.588226 -0.742337 
0.423934 0.595405 -0.682476 -0.204346 -0.105586 -0.973188 0.574397 0.641055 -0.509034 
0.292298 0.117742 -0.949051 -0.288755 -0.232869 -0.928651 -0.585836 -0.0281257 -0.809942 
-0.498691 0.400227 -0.768847 -0.486539 0.268315 -0.831437 -0.143527 0.874669 -0.462984 
-0.0915039 0.851425 -0.516433 0.33899 0.917455 -0.208236 0.722828 -0.591401 0.357443 
0.489383 -0.853194 0.180458 0.858125 -0.402583 0.318668 -0.0905942 -0.985694 -0.142129 
-0.121348 -0.931603 -0.342624 -0.297319 -0.800466 -0.520439 -0.171597 -0.967239 -0.187091 
-0.505799 -0.681405 -0.529012 -0.41954 -0.789284 -0.448349 0.74536 0.0103849 0.666582 
0 -0.178885 -0.98387 0 -1 0 -0.961524 -0.274721 3.6843e-08 
0.961524 -0.274721 3.6843e-08 0 0.447214 -0.894427 -0.458867 -0.635641 -0.620807 
-0.743399 -0.623183 -0.242902 0 -0.178885 0.98387 -0.857847 0.0135896 -0.513726 
-0.830389 0.125981 -0.542755 0.24355 0.0208068 -0.969665 0.970492 0.241128 0.0018176 
-0.303613 0.385827 -0.871181 -0.310708 -0.0646564 -0.948304 -0.462069 0.392926 -0.795048 
0.0136471 0.344846 -0.93856 0.490063 0.691221 -0.531086 0.563545 0.751575 -0.342859 
0.49964 0.697389 -0.513818 -0.449753 -0.0365776 -0.892404 0.504538 0.633161 -0.586982 
-0.440076 0.313584 -0.841426 0.484958 0.871361 -0.0744709 -0.421612 0.453276 -0.785356 
-0.300966 0.68096 -0.667618 0 -0.178885 -0.98387 0 -1 0 
-0.961524 -0.274721 3.6843e-08 0.961524 -0.274721 3.6843e-08 0.312047 -0.946151 0.0861681 
0.365633 -0.915217 0.169383 0.561732 -0.806501 0.184428 0 0.447214 -0.894427 
0.0730303 -0.990718 0.114653 -0.288274 -0.947885 -0.135688 0.753447 -0.257233 0.605102 
-0.329098 -0.86793 -0.37201 0 -0.178885 0.98387 -0.471125 -0.616276 -0.631066 
-0.620434 -0.442823 -0.647279 -0.402782 -0.756208 -0.515671 -0.401696 -0.445331 -0.800201 
-0.207785 -0.917709 -0.338579 -0.00121592 -0.794408 -0.607383 -0.0858532 -0.65216 -0.753204 
0.108102 -0.809701 -0.5768 0 -0.178885 -0.98387 0 -1 0 
-0.961524 -0.274721 3.6843e-08 0.961524 -0.274721 3.6843e-08 -0.412832 -0.403916 -0.816347 
0.812364 -0.00975739 0.583069 -0.459253 -0.314529 -0.830758 -0.930664 -0.0416272 -0.3635 
0 0.447214 -0.894427 0 -0.178885 -0.98387 0 -1 0 
-0.961524 -0.274721 3.6843e-08 0.961524 -0.274721 3.6843e-08 0.473687 -0.626572 -0.618892 
0 0.447214 -0.894427 0.364259 -0.21582 -0.905945 0.855556 0.506511 0.107104 
-0.702388 0.381444 -0.600958 -0.292323 -0.138429 -0.946248 0.00620409 0.401233 -0.915955 
0.682274 0.663014 -0.308082 -0.283616 -0.161826 -0.945185 -0.508382 0.0423629 -0.860089 
-0.491775 0.0691137 -0.867975 -0.340499 0.559673 -0.755531 0 -0.178885 0.98387 
0.176308 -0.930909 0.319881 0.5364 -0.543464 0.645696 0.622327 -0.491699 0.609049 
0.153759 -0.953892 0.257776 -0.284615 -0.920997 -0.266006 -0.439219 -0.874635 -0.205186 
-0.32602 -0.925532 -0.192619 0 -0.178885 -0.98387 0 -1 0 
-0.961524 -0.274721 3.6843e-08 0.961524 -0.274721 3.6843e-08 -0.590705 -0.723604 -0.357023 
-0.445089 -0.6816 -0.58079 0 0.447214 -0.894427 0.532975 -0.709005 -0.46179 
0 -0.178885 0.98387 -0.524846 -0.272158 -0.806515 -0.445804 -0.301497 -0.842828 
0 -0.178885 0.98387 -0.233594 -0.633601 -0.737553 -0.47254 -0.613934 -0.63229 
-0.333094 -0.477488 -0.813052 -0.387318 -0.18964 -0.902231 0.270828 -0.502954 -0.820786 
0.209256 0.156567 -0.965245 0.251336 -0.243034 -0.936891 0.907854 0.260234 0.328753 
-0.793313 0.244335 -0.557634 0.0920885 0.166483 -0.981735 -0.745129 0.435368 -0.505211 
0.569744 0.707183 -0.418668 -0.431798 -0.0555521 -0.900258 -0.511309 -0.0795128 -0.855711 
-0.4925 -0.0240796 -0.86998 0.426206 0.902878 -0.0562132 -0.39071 0.365456 -0.84486 
-0.278791 0.584886 -0.761698 -0.0717743 0.867783 -0.491733 0.318833 -0.870665 0.37455 
0.270283 -0.785902 0.556152 0.577471 -0.420462 0.699813 -0.340952 -0.939285 0.0386703 
-0.227655 -0.972486 0.0494272 0.538047 -0.138643 0.831435 -0.452889 -0.8776 -0.157194 
-0.461707 -0.858902 -0.221617 -0.263673 -0.9646 -0.0049045 0 -0.178885 0.98387 
-0.523007 -0.825104 -0.2137 0.384496 -0.870125 -0.308294 0.539254 -0.7762 -0.326679 
-0.698801 -0.466192 -0.542533 -0.875274 -0.440727 -0.199136 0.232518 -0.874967 -0.424698 
-0.492582 -0.774694 -0.396498 -0.567598 -0.582418 -0.581912 -0.51648 -0.650858 -0.556446 
-0.368449 -0.794934 -0.482001 -0.339948 -0.594105 -0.729023 -0.240208 -0.694458 -0.678254 
-0.233864 -0.302013 -0.924173 0.113595 -0.451871 -0.884821 0.0736578 -0.238231 -0.968411 
-0.908893 0.256155 -0.329086 0.776768 0.629767 -0.00501788 -0.482015 0.40402 -0.777451 
-0.489312 0.238526 -0.838856 0.1859 0.961605 -0.201882 -0.196514 0.751881 -0.629331 
0.331425 -0.76261 0.555503 -0.0465074 -0.936523 0.347508 0.503195 -0.397526 0.767312 
-0.197195 -0.937416 0.286995 -0.0930978 -0.950903 0.295154 0.11296 -0.702873 0.702289 
0.217839 -0.400718 0.889928 -0.284111 -0.879868 0.380938 0.361537 -0.369663 0.855944 
0.184745 -0.278404 0.942529 -0.0454241 -0.894832 0.444086 -0.42633 -0.903881 0.0352339 
-0.537292 -0.839855 -0.0772099 -0.861065 -0.501649 0.0831604 -0.103309 -0.986354 -0.128189 
0.0808169 -0.97652 -0.199696 0.465777 -0.850546 -0.244178 -0.581754 -0.78916 -0.19695 
0.404042 -0.138789 0.90415 -0.924201 -0.304277 0.2308 -0.556336 -0.814993 -0.162102 
-0.998736 -0.0272629 -0.0422238 0.34408 -0.872751 -0.346287 -0.00941279 -0.765701 -0.643128 
-0.0705834 -0.422851 -0.903446 0.012283 -0.496533 -0.867931 0.913093 0.187229 0.362226 
-0.205581 0.0021859 -0.978638 0.854567 0.395731 0.336322 -0.925224 0.183601 -0.332041 
0.748192 0.604522 0.273426 -0.191834 0.155528 -0.969026 0.701064 0.69231 0.170927 
-0.633846 0.339361 -0.695035 -0.382591 -0.098363 -0.918667 -0.498763 0.501263 -0.707086 
0.0890343 -0.663828 0.742567 -0.184622 -0.866684 0.463437 0.266583 -0.33668 0.903095 
-0.214914 -0.826035 0.521036 -0.297901 -0.945566 0.130997 0.130017 -0.366914 0.921124 
-0.502376 -0.858822 0.100215 -0.265975 -0.893663 -0.361419 0.803945 0.35355 0.478199 
0.803391 0.538048 0.255083 -0.466551 0.12395 -0.875766 -0.354133 0.154442 -0.922354 
0.68639 0.726875 0.0228315 0.589617 0.801653 -0.0985124 -0.198969 0.845411 -0.495672 
-0.0836214 -0.656767 0.749443 0.0990742 -0.706108 0.701139 -0.0675007 -0.800767 0.595161 
0.206521 -0.62234 0.755011 -0.20943 -0.843326 0.494914 0.157559 -0.444053 0.882039 
-0.41392 -0.841284 0.347724 -0.899244 -0.429087 -0.0851137 -0.317298 -0.932258 -0.173833 
0.415923 -0.906127 -0.0770826 -0.495889 -0.86678 0.0527828 -0.384533 -0.917356 0.10292 
-0.336056 -0.935351 -0.110387 -0.00762084 -0.965687 -0.259598 0.620182 -0.0214038 0.784166 
0.80122 0.429072 0.417066 0.75508 0.401469 0.518342 -0.60479 0.112378 -0.788416 
-0.538394 -0.0495847 -0.841233 0.712572 0.6764 0.186344 0.575442 0.813757 -0.0816444 
0.565289 0.799294 -0.203904 -0.638166 -0.0623081 -0.767373 0.294043 0.946172 -0.135265 
-0.0445364 0.958673 -0.281002 0 -0.178885 -0.98387 0 -1 0 
-0.961524 -0.274721 3.6843e-08 0.0486593 -0.513652 0.856618 0.961524 -0.274721 3.6843e-08 
0 0.447214 -0.894427 -0.0354623 -0.577928 0.815317 0.0830532 -0.518646 0.850946 
0.176687 -0.982616 -0.0569893 -0.317807 -0.926107 0.203283 -0.496288 -0.811956 0.307287 
-0.108784 -0.783586 0.611685 -0.336287 -0.867471 0.366614 0.151142 -0.342079 0.927436 
-0.00344919 -0.766778 0.641903 -0.0432338 -0.999056 0.00434012 0.476013 -0.195468 0.85744 
0.432647 0.01773 0.901389 0.150272 -0.114419 0.982001 0.694097 -0.312778 0.648382 
0.6961 0.209748 0.686623 0.808562 0.530731 0.254072 0.641072 0.172236 0.747905 
0.578735 0.0855795 0.811013 0.492299 0.406581 0.769632 0.181101 0.602067 0.777636 
0.685584 0.465248 0.559928 -0.491188 0.488062 -0.721477 0.646947 0.735597 0.200889 
-0.411945 0.588624 -0.695574 0.0502918 0.926621 -0.372618 -0.377723 0.689872 -0.617577 
0 -0.178885 0.98387 -0.0205715 -0.614656 0.788527 -0.438904 -0.889629 -0.126185 
-0.212602 -0.976076 -0.0455664 -0.449302 -0.883362 -0.133418 -0.0574186 -0.92543 0.374542 
-0.448979 -0.701693 0.553213 0.0907733 -0.663907 0.742286 0.050182 -0.499567 0.864821 
-0.0123024 -0.837727 0.54595 -0.276487 -0.633367 0.722773 -0.109741 -0.616865 0.779381 
-0.119654 -0.342327 0.931931 0.177053 -0.512379 0.84031 -0.162258 -0.854344 0.49373 
-0.190935 -0.980509 0.0463237 0.950318 -0.0489476 0.307408 0.303931 -0.528159 0.79289 
0.556124 0.683716 0.472502 0.0027168 0.144916 0.98944 0.779125 0.264016 0.56856 
-0.758781 0.268908 -0.593246 -0.780702 0.287144 -0.555026 -0.511332 0.688015 -0.514951 
-0.297096 0.859931 -0.415033 0.00273223 -0.472025 0.881581 -0.776971 -0.604593 -0.17545 
-0.232867 -0.725818 0.647272 0.127926 -0.897808 0.421398 -0.0425394 -0.764667 0.64302 
-0.046334 -0.550598 0.833484 -0.143502 -0.73381 0.664026 0.0899742 -0.732868 0.674395 
0.26072 -0.960504 0.0972438 0.0836489 -0.956545 0.279327 0.538943 0.00257986 0.842338 
0.401451 -0.234988 0.885222 0.550795 -0.142913 0.822314 0.76853 -0.0442386 0.638283 
-0.973843 0.0186142 -0.226458 0.765484 0.418452 0.488806 -0.792788 -0.046107 -0.607751 
-0.121853 0.847627 -0.516411 0.0591137 0.955573 -0.288767 -0.591795 0.66965 -0.448717 
-0.671559 0.658407 -0.339865 0.207216 -0.977586 -0.0372464 -0.889306 -0.447622 -0.0936418 
-0.00509334 -0.595217 0.803549 0.554654 -0.819089 0.146465 -0.126723 -0.936488 0.327003 
0.0504888 -0.719031 0.693141 0.114419 -0.487961 0.865334 0.0811767 -0.867779 0.490276 
-0.998741 0.0178861 0.0468715 0.433529 -0.219121 0.874093 0.723189 0.149758 0.674218 
0.675662 0.291805 0.677001 0.677932 0.577821 0.454456 0.536664 0.811041 0.232818 
0.322107 0.940877 -0.104869 -0.428404 0.886369 -0.175555 -0.134005 0.951907 -0.275527 
0 -0.178885 -0.98387 0 -1 0 -0.961524 -0.274721 3.6843e-08 
0.961524 -0.274721 3.6843e-08 0 0.447214 -0.894427 0.632045 -0.71879 0.289584 
0.358139 -0.744208 0.563818 0.326683 -0.44545 0.833579 0.635813 0.0735063 0.768335 
0.497607 0.131943 0.857309 0.48115 0.0464565 0.875406 0.531681 0.826374 0.185531 
-0.96637 -0.0943976 -0.239202 0.515105 0.849484 0.11421 -0.829459 0.499095 -0.250804 
0 -0.178885 0.98387 0.0713011 -0.996964 0.0313027 0.331823 -0.94248 0.0403009 
-0.819782 -0.569765 -0.0576675 -0.968547 0.032377 0.246717 0.237504 -0.60473 0.760193 
-0.998922 0.0411659 0.0214694 0.606521 0.129149 0.784508 0.681048 0.523671 0.511804 
0.659887 0.6815 0.316397 0.431394 0.864969 0.256375 -0.961934 0.192426 -0.194049 
-0.216097 -0.97247 0.0872092 0.345351 -0.915215 0.207641 0.593805 -0.662217 0.457017 
0.597451 -0.452257 0.662205 0.476722 -0.308353 0.823198 0.612429 0.138333 0.778329 
0.637425 0.529864 0.559405 0.618968 0.492743 0.611622 -0.936622 0.326392 -0.127307 
0.279797 0.96002 -0.00865075 0.0268396 0.996682 -0.0768373 -0.706375 0.684914 -0.178683 
-0.433373 0.884745 -0.171508 0.283375 -0.879946 0.381305 0.641365 -0.58937 0.491216 
0.535442 -0.285676 0.79479 0.531465 -0.271929 0.802247 -0.887421 -0.17475 0.426552 
-0.944005 -0.237985 0.228511 -0.767722 0.628525 -0.124737 -0.112177 0.992606 -0.0463735 
-0.614436 0.775848 -0.143273 0.0964112 -0.968611 0.229122 -0.653297 -0.749545 -0.106702 
0.492857 -0.503656 0.709522 -0.998248 -0.0261625 0.0530633 -0.771093 0.105289 0.627956 
-0.696241 0.0975115 0.711154 -0.785545 -0.0918902 0.611944 0.0426753 -0.0684509 0.996741 