# vtk DataFile Version 4.2
vtk output
ASCII
DATASET POLYDATA
POINTS 647 float
330.109 157.238 109.006 330.056 157.209 109.078 330.005 157.315 109.021 
330.243 157.204 109.056 330.193 157.309 109 329.795 158.585 108.951 
329.624 158.44 108.973 331.057 158.648 108.962 333.31 156.299 109.799 
328.83 157.19 109.784 328.688 157.361 109.604 330.291 157.063 109.282 
330.073 156.884 109.669 332.013 156.769 109.385 333.016 156.7 109.49 
328.426 157.5 109.663 328.217 157.758 109.713 329.146 157.54 109.274 
329.709 157.333 109.18 330.637 157.302 109.071 333.347 156.982 109.503 
333.989 156.846 109.775 330.036 157.581 109.001 328.232 158.309 109.576 
328.319 158.585 109.547 333.282 157.784 109.445 328.811 159.021 109.425 
329.211 158.59 109.162 331.198 159.823 109.515 332.252 156.372 109.731 
332.523 156.273 109.846 333.463 156.256 109.92 328.194 157.543 109.892 
330.499 156.678 110.044 334.438 156.318 110.455 327.433 158.218 110.281 
334.703 157.621 109.93 327.399 158.814 110.256 326.966 159.382 110.767 
327.682 159.181 110.117 334.589 158.593 110.007 327.104 159.605 110.718 
329.126 160.732 110.163 329.416 160.937 110.236 330.568 160.97 110.213 
332.887 161.252 110.725 337.524 155.924 111.886 328.031 157.534 110.245 
332.818 156.215 110.477 327.583 157.812 110.597 329.743 156.851 110.882 
337.924 156.776 111.641 326.871 158.769 110.866 326.681 159.011 111.242 
337.14 158.157 111.27 337.476 157.748 111.393 335.779 158.589 110.538 
326.999 160.427 111.415 327.274 160.865 111.424 328.02 161.026 110.879 
330.989 162.46 111.49 336.673 155.955 111.663 336.828 155.758 112.017 
338.499 156.06 112.171 327.603 157.735 110.948 335.876 155.848 112.376 
339.22 156.477 112.549 326.98 158.309 111.305 338.724 156.934 112.17 
326.661 158.879 111.542 326.676 159.382 111.274 326.722 160.17 111.637 
326.568 160.301 112.108 328.562 162.02 111.54 334.201 161.884 111.822 
339.141 155.493 112.855 339.21 155.395 112.947 339.336 155.397 113.078 
338 155.487 112.736 338.769 155.481 112.832 339.472 155.57 113.067 
337.333 155.517 112.66 337.156 155.543 113.103 339.731 156.95 113.099 
327.094 158.268 111.605 326.569 159.137 112.11 339.538 157.702 113.18 
326.447 159.557 112.294 326.643 160.836 112.448 337.418 159.902 112.486 
327.166 161.934 112.788 333.159 163.099 112.947 330.939 163.745 113.207 
340.471 155.111 114.102 340.664 154.915 114.383 340.365 154.96 114.307 
340.816 154.942 114.413 337.662 155.464 112.803 339.578 155.268 113.584 
340.152 155.518 113.641 341.247 155.131 114.697 337.052 155.597 113.408 
340.802 156.207 114.048 326.561 159.23 112.566 327.158 158.805 113.029 
339.526 158.101 113.431 326.397 159.925 112.83 339.497 158.984 114.183 
334.054 163.132 113.562 342.187 154.389 115.78 342.203 154.337 115.826 
342.296 154.448 115.929 338.395 155.319 113.858 341.429 154.697 115.191 
326.421 159.678 112.929 326.49 159.849 113.436 326.267 160.59 114.327 
326.494 161.673 113.797 326.391 161.741 114.385 338.421 160.516 114.757 
327.452 163.171 114.008 327.477 163.443 114.393 328.535 163.909 114.073 
342.859 154.239 116.7 343.074 154.153 116.964 342.438 154.27 116.385 
342.613 154.533 116.313 343.137 154.35 117.026 340.683 154.687 115.417 
338.271 155.432 115.049 338.433 155.49 115.851 326.257 161.136 114.856 
326.293 161.671 115.141 326.526 162.238 114.592 326.45 162.278 115.174 
326.857 163.047 115.166 336.532 162.578 115.749 329.541 164.991 116.15 
343.088 154.067 117.089 343.489 154.051 117.693 340.826 154.606 115.97 
343.663 154.478 117.838 342.907 155.714 117.026 334.722 157.24 116.063 
326.351 160.718 114.837 326.385 161.411 115.56 327.168 160.922 116.432 
326.279 161.752 115.731 326.229 161.799 115.651 326.253 161.696 115.53 
326.25 161.843 115.572 326.37 162.138 115.766 326.617 162.765 115.411 
326.575 162.769 116.006 344.037 153.764 118.469 344.057 153.718 118.535 
343.939 153.749 118.445 344.088 153.739 118.575 343.207 154.016 117.386 
343.872 153.88 118.243 344.099 153.852 118.64 343.261 153.898 117.939 
340.606 154.691 117.257 343.762 154.831 118.238 326.895 161.374 116.659 
327.476 161.062 117.121 326.278 161.899 115.772 326.431 161.95 116.14 
327.01 163.747 116.663 327.926 164.585 116.655 328.447 164.952 116.826 
332.167 165.166 117.351 329.814 165.766 118.144 329.529 165.862 118.486 
344.061 153.713 118.724 344.346 154.075 119.234 326.839 161.748 117.006 
326.735 162.261 117.169 327.549 164.555 117.51 329.388 166.038 119.211 
328.847 165.884 119.137 330.58 165.976 119.099 331.436 165.807 119.424 
328.918 166.112 119.962 329.211 166.191 119.711 329.258 166.24 119.818 
344.353 153.522 120.645 344.665 153.706 120.654 344.676 153.623 120.974 
333.312 159.059 119.28 327.048 163.253 119.081 328.662 166.183 120.629 
329.315 166.232 119.991 328.709 166.273 121.061 343.772 153.521 121.181 
342.017 154.19 120.962 327.345 164.53 120.491 331.189 165.986 121.019 
328.116 165.836 121.105 328.331 166.074 121.093 329.023 166.329 121.217 
344.165 155.276 122.248 341.265 158.674 122.343 327.504 163.682 121.062 
327.21 164.158 120.264 327.902 165.472 122.182 328.552 166.229 121.901 
344.708 153.583 122.793 334.688 164.074 123.106 328.45 166.071 122.636 
328.762 166.265 122.339 328.631 166.002 123.243 344.724 153.85 123.939 
339.455 159.99 124.738 328.593 165.81 124.022 344.072 153.633 125.015 
335.194 163.194 125.08 328.594 164.123 124.643 328.286 165.333 124.926 
344.453 153.651 124.886 344.494 153.739 125.021 335.714 162.32 126.3 
329.41 164.105 125.724 332.245 164.661 125.638 328.428 165.427 125.138 
328.549 165.406 125.377 329.396 165.639 125.111 328.628 165.527 125.153 
328.984 165.644 125.011 344.082 153.765 125.689 344.094 153.827 125.852 
344.388 153.721 125.242 343.6 154.021 126.226 344.047 153.933 125.986 
340.745 155.569 126.782 342.959 155.562 126.458 340.714 157.894 126.981 
338.507 160.023 126.934 333.634 161.654 127.139 334.981 162.776 126.321 
330.944 163.435 126.392 330.322 163.651 126.097 328.387 165.01 125.274 
331.663 164.712 125.925 333.289 163.681 126.337 328.388 165.149 125.333 
328.693 165.278 125.632 328.7 165.43 125.487 329.661 165.333 125.675 
343.922 153.891 126.01 342.754 154.548 126.846 343.376 154.253 126.702 
343.756 154.096 126.351 343.961 154.097 126.155 343.73 154.31 126.454 
342.987 154.982 127.005 333.061 162.336 127.091 333.31 163.289 126.769 
329.158 164.887 125.893 330.105 164.262 126.243 331.956 164.033 126.496 
328.801 165.08 125.75 329.147 165.126 125.933 329.594 165.079 125.936 
329.137 165.221 125.902 329.922 164.759 126.171 330.218 164.745 126.211 
330.747 164.636 126.259 328.933 165.278 125.817 343.164 154.407 127.025 
343.201 154.484 127.048 343.137 154.458 127.126 343.514 154.307 126.718 
342.084 155.144 127.416 342.665 154.895 127.247 343.03 154.548 127.16 
342.099 155.256 127.548 343.1 154.632 127.167 343.254 154.542 127.095 
343.418 154.482 126.876 343.271 154.591 127.063 342.204 155.274 127.541 
335.063 160.828 127.959 333.8 162.262 127.37 334.502 161.401 127.726 
332.2 163.245 126.883 330.721 164.107 126.447 331.235 164.185 126.477 
329.017 165.211 125.909 343.092 154.466 127.131 343.197 154.605 127.145 
341.11 155.883 127.856 341.477 155.734 127.822 341.822 155.564 127.709 
340.251 156.596 128.305 339.857 156.762 128.311 340.697 156.325 128.142 
341.272 156.064 127.932 340.729 156.514 128.2 339.357 157.21 128.624 
340.308 156.967 128.376 338.028 158.448 128.884 337.36 158.994 128.9 
338.88 158.605 128.602 338.649 158.566 128.836 336.14 160.057 128.666 
335.587 160.571 128.37 333.013 162.81 127.173 339.893 156.984 128.539 
340.379 156.669 128.348 338.61 157.903 129.019 339.116 157.528 128.977 
338.543 158.094 129.076 338.863 157.955 129.079 337.518 159.109 129.063 
337.04 159.386 129.062 338.174 158.778 128.93 337.519 159.387 128.977 
336.76 159.671 129.153 336.534 159.854 129.036 335.936 160.441 128.578 
336.41 160.099 128.887 338.923 157.708 129.162 338.796 157.789 129.168 
339.049 157.695 129.098 338.884 157.799 129.185 339.294 157.525 128.959 
337.326 159.373 129.18 337.196 159.407 129.211 336.767 159.732 129.257 
336.96 159.626 129.2 337.139 159.499 129.253 336.758 159.781 129.233 
338.838 157.788 129.21 337.212 159.448 129.248 336.704 159.792 129.257 
338.09 158.881 327.792 337.992 159.015 327.854 338.198 158.727 327.809 
338.192 158.88 327.843 340.246 156.895 328.272 340.023 157.052 328.227 
338.504 158.155 327.948 338.92 157.985 327.85 340.141 157.066 328.246 
339.173 157.788 327.919 338.883 158.129 327.835 339.132 157.893 327.89 
337.987 158.734 327.967 337.745 159.164 327.973 338.428 158.624 327.828 
336.447 160.439 328.165 336.554 160.229 328.222 337.96 159.245 328.033 
336.68 160.302 328.179 336.29 160.593 328.194 336.455 160.556 328.208 
341.701 155.639 328.901 341.508 155.64 328.913 342.087 155.34 329.105 
341.205 155.794 328.879 341.566 155.893 328.798 341.968 155.63 329.009 
340.495 156.436 328.624 341.319 156.203 328.705 341.672 155.973 328.865 
339.237 157.419 328.334 339.577 157.531 328.113 339.844 157.67 328.275 
336.664 159.836 328.404 337.189 159.826 328.188 335.643 160.979 328.518 
334.778 161.754 328.892 335.521 161.317 328.623 335.145 161.741 328.883 
343.796 153.953 330.07 343.842 153.885 330.173 343.725 153.97 330.065 
343.91 153.938 330.167 343.64 154.11 329.998 341.575 155.425 329.157 
342.395 155.227 329.256 342.442 154.94 329.426 341.973 155.93 329.137 
338.129 159.627 328.471 333.986 162.091 329.187 334.602 161.358 329.032 
333.67 162.389 329.337 331.429 163.972 329.731 331.961 163.792 329.755 
333.706 162.761 329.451 330.136 164.699 329.979 330.443 164.433 329.95 
330.789 164.548 329.906 329.336 165.304 330.362 329.359 165.217 330.338 
329.257 165.285 330.397 330.079 164.887 330.048 330.444 164.812 329.991 
329.269 165.379 330.514 343.561 154.016 330.139 344.085 153.842 330.338 
344.252 153.763 330.59 343.131 154.475 329.766 343.47 154.389 329.895 
343.781 154.172 330.094 341.827 155.121 329.516 343.143 154.758 329.72 
[...]
POINT_DATA 647
SCALARS scalars float
LOOKUP_TABLE default
1 1 1 1 1 1 1 1 1 
1 1 1 1 1 1 1 1 1 
1 1 1 1 1 1 1 1 1 
1 1 1 1 1 1 1 1 1 
1 1 1 1 1 1 1 1 1 
1 1 1 1 1 1 1 1 1 
1 1 1 1 1 1 1 1 1 
1 1 1 1 1 1 1 1 1 
1 1 1 1 1 1 1 1 1 
1 1 1 1 1 1 1 1 1 
1 1 1 1 1 1 1 1 1 
1 1 1 1 1 1 1 1 1 
1 1 1 1 1 1 1 1 1 
1 1 1 1 1 1 1 1 1 
1 1 1 1 1 1 1 1 1 
1 1 1 1 1 1 1 1 1 
1 1 1 1 1 1 1 1 1 
1 1 1 1 1 1 1 1 1 
1 1 1 1 1 1 1 1 1 
1 1 1 1 1 1 1 1 1 
1 1 1 1 1 1 1 1 1 
1 1 1 1 1 1 1 1 1 
1 1 1 1 1 1 1 1 1 
1 1 1 1 1 1 1 1 1 
1 1 1 1 1 1 1 1 1 
1 1 1 1 1 1 1 1 1 
1 1 1 1 1 1 1 1 1 
1 1 1 1 1 1 1 1 1 
1 1 1 1 1 1 1 1 1 
1 1 1 1 1 1 1 1 1 
1 1 1 1 1 1 1 1 1 
1 1 1 1 1 1 1 1 1 
1 1 1 1 1 1 1 1 1 
1 1 1 1 1 1 1 1 1 
1 1 1 1 1 1 1 1 1 
1 1 1 1 1 1 1 1 1 
1 1 1 1 1 1 1 1 1 
1 1 1 1 1 1 1 1 1 
1 1 1 1 1 1 1 1 1 
1 1 1 1 1 1 1 1 1 
1 1 1 1 1 1 1 1 1 
1 1 1 1 1 1 1 1 1 
1 1 1 1 1 1 1 1 1 
1 1 1 1 1 1 1 1 1 
1 1 1 1 1 1 1 1 1 
1 1 1 1 1 1 1 1 1 
1 1 1 1 1 1 1 1 1 
1 1 1 1 1 1 1 1 1 
1 1 1 1 1 1 1 1 1 
1 1 1 1 1 1 1 1 1 
1 1 1 1 1 1 1 1 1 
1 1 1 1 1 1 1 1 1 
1 1 1 1 1 1 1 1 1 
1 1 1 1 1 1 1 1 1 
1 1 1 1 1 1 1 1 1 
1 1 1 1 1 1 1 1 1 
1 1 1 1 1 1 1 1 1 
1 1 1 1 1 1 1 1 1 
1 1 1 1 1 1 1 1 1 
1 1 1 1 1 1 1 1 1 
1 1 1 1 1 1 1 1 1 
1 1 1 1 1 1 1 1 1 
1 1 1 1 1 1 1 1 1 
1 1 1 1 1 1 1 1 1 
1 1 1 1 1 1 1 1 1 
1 1 1 1 1 1 1 1 1 
1 1 1 1 1 1 1 1 1 
1 1 1 1 1 1 1 1 1 
1 1 1 1 1 1 1 1 1 
1 1 1 1 1 1 1 1 1 
1 1 1 1 1 1 1 1 1 
1 1 1 1 1 1 1 1 
NORMALS Normals float
-0.133771 -0.519278 -0.844071 -0.308659 -0.798847 -0.516307 -0.351337 -0.255459 -0.900724 
0.0943874 -0.710146 -0.697698 0.0649649 -0.144796 -0.987327 -0.127522 0.189713 -0.973523 
-0.321022 0.11288 -0.940321 0.0977105 0.0978793 -0.99039 0.159769 -0.689812 -0.70614 
-0.373987 -0.848924 -0.373446 -0.367314 -0.520125 -0.771071 -0.111594 -0.852975 -0.509883 
-0.239184 -0.903408 -0.355873 -0.023255 -0.569556 -0.821624 0.205285 -0.327455 -0.922297 
-0.52699 -0.558011 -0.641019 -0.510431 -0.135572 -0.849164 -0.383993 -0.219345 -0.896904 
-0.371898 -0.625031 -0.686315 0.125374 -0.352647 -0.92732 0.289897 -0.24702 -0.92463 
0.348662 -0.282875 -0.893541 -0.16685 -0.0974374 -0.981156 -0.542995 -0.0981152 -0.833984 
-0.47655 0.16751 -0.863041 0.277446 0.0747688 -0.957827 -0.39927 0.246393 -0.883105 
-0.370289 0.0897123 -0.924574 0.187611 0.468619 -0.863249 -0.139983 -0.845761 -0.514873 
-0.103001 -0.960755 -0.257566 0.283086 -0.75008 -0.597697 -0.633117 -0.634741 -0.44302 
-0.197985 -0.936001 -0.291039 0.215076 -0.831088 -0.512868 -0.704561 -0.248235 -0.664811 
0.350143 0.00375101 -0.936689 -0.644885 0.0691704 -0.761143 -0.738214 0.0953315 -0.667797 
-0.569974 0.206095 -0.795396 0.344947 0.250526 -0.904571 -0.632872 0.270364 -0.725518 
-0.191068 0.454712 -0.869902 -0.163163 0.617521 -0.769445 -0.00443526 0.589931 -0.807441 
0.267732 0.640337 -0.719923 0.142593 -0.731534 -0.666728 -0.56877 -0.804391 -0.171625 
-0.109309 -0.992184 -0.0601915 -0.63349 -0.763324 -0.1266 -0.320513 -0.937921 0.132572 
0.438042 -0.0925845 -0.894174 -0.773709 -0.101985 -0.625279 -0.948554 -0.141034 -0.283471 
0.480844 0.166769 -0.860801 0.530168 0.148384 -0.834808 0.456153 0.27259 -0.847124 
-0.736191 0.422516 -0.528681 -0.640616 0.512961 -0.571386 -0.47133 0.512895 -0.717486 
0.0176508 0.720481 -0.69325 0.121027 -0.810717 -0.572792 -0.177982 -0.951684 -0.25024 
0.408804 -0.36102 -0.838179 -0.530677 -0.845788 0.0549955 -0.313288 -0.949534 0.0153654 
0.640303 -0.0728585 -0.764659 -0.823902 -0.553036 -0.123842 0.575603 0.278732 -0.768759 
-0.907492 -0.420057 0.00317488 -0.899375 0.198839 -0.389343 -0.905059 0.190183 -0.380393 
-0.859442 0.34961 -0.373005 -0.281469 0.714431 -0.640596 0.41926 0.694394 -0.584841 
0.431001 -0.503259 -0.748978 0.31077 -0.758282 -0.573088 0.622542 -0.516209 -0.588192 
-0.0474499 -0.993877 -0.0997851 -0.0103409 -0.927643 -0.373325 0.628123 -0.366656 -0.686312 
-0.00378007 -0.942197 -0.335038 -0.17606 -0.977198 0.118689 0.799114 0.155176 -0.580807 
-0.656415 -0.725339 0.207369 -0.950338 -0.310009 -0.0274109 0.682892 0.299857 -0.666142 
-0.987905 -0.0387505 -0.15014 -0.918391 0.280259 -0.279308 0.540561 0.510672 -0.668586 
-0.64715 0.600631 -0.469509 0.248882 0.842147 -0.478378 0.0806984 0.852145 -0.517046 
0.406886 -0.550744 -0.728783 0.109555 -0.90981 -0.400304 -0.265712 -0.942302 -0.203628 
0.454058 -0.587505 -0.669828 -0.00171701 -0.998665 0.0516294 0.179585 -0.912447 -0.367682 
0.533335 -0.454504 -0.713428 0.667485 -0.21328 -0.713425 -0.21981 -0.974593 0.0430455 
0.726704 0.00776157 -0.686907 -0.885846 -0.445412 0.129941 -0.582204 -0.737733 0.341742 
0.688972 0.442463 -0.57406 -0.995784 -0.0832834 -0.0384463 0.710433 0.530136 -0.462861 
0.306199 0.836978 -0.453552 0.718835 -0.22204 -0.658768 0.395378 -0.744376 -0.538127 
0.813257 -0.208883 -0.543122 -0.146271 -0.987752 -0.0543199 0.176707 -0.854655 -0.4882 
-0.967679 -0.236697 0.0870197 -0.817322 -0.501214 0.284199 -0.997407 -0.0629331 -0.0348957 
-0.881795 0.398714 -0.251922 -0.896922 0.37334 -0.236957 0.679247 0.62191 -0.389681 
-0.702334 0.583212 -0.408154 -0.613895 0.719583 -0.324551 -0.368374 0.805451 -0.464274 
0.590137 -0.476994 -0.651318 0.715544 -0.447615 -0.536319 0.295765 -0.88176 -0.367454 
0.761431 -0.163355 -0.627326 0.809706 -0.0462897 -0.585007 -0.319833 -0.942556 -0.0964122 
-0.279745 -0.956882 0.0782245 -0.322703 -0.921995 0.213981 -0.957432 -0.185542 0.221127 
-0.989209 0.110479 -0.0962321 -0.835409 0.475335 -0.275951 -0.909121 0.384221 -0.160855 
-0.808637 0.534739 -0.245276 0.567527 0.777655 -0.270494 -0.0433887 0.921298 -0.386429 
0.217053 -0.908687 -0.356618 0.528721 -0.696452 -0.48519 -0.297634 -0.954631 0.00967075 
0.863379 0.152608 -0.480923 0.831145 0.430967 -0.351375 -0.484658 -0.846085 0.221917 
-0.824456 -0.446512 0.347705 -0.862996 -0.418636 0.28281 -0.662772 -0.629458 0.405607 
-0.866654 -0.329401 0.374707 -0.990123 -0.0397087 0.13446 -0.964775 -0.262634 0.0152422 
-0.951486 0.282699 -0.121471 -0.937906 0.34521 0.034085 -0.865902 0.477431 -0.149244 
-0.950475 0.295908 0.095052 0.730493 -0.331492 -0.597071 0.421941 -0.842826 -0.334082 
0.0611208 -0.941172 -0.332356 0.920461 -0.326521 -0.214791 0.483603 -0.809609 -0.332658 
0.780283 -0.255205 -0.57099 0.945049 0.0210387 -0.326251 0.00954131 -0.982915 -0.18381 
-0.337875 -0.940609 0.0330868 0.86907 0.179759 -0.460873 -0.814316 -0.46122 0.352372 
-0.656859 -0.61475 0.436599 -0.948126 0.187606 0.256636 -0.926182 -0.0817011 0.368119 
-0.765415 0.631984 -0.121393 -0.508242 0.793221 -0.335396 -0.382216 0.862545 -0.331553 
0.417195 0.89208 -0.173612 -0.061342 0.916832 -0.394534 -0.200939 0.9075 -0.368873 
0.509907 -0.852183 -0.117388 0.927111 0.35938 -0.10635 -0.777563 -0.404112 0.481757 
-0.909452 -0.216568 0.354958 -0.751505 0.65535 -0.0758741 -0.0853785 0.954108 -0.287034 
-0.432945 0.847266 -0.307731 0.127201 0.963001 -0.23759 0.300805 0.943939 -0.136 
-0.409058 0.890345 -0.199892 -0.389247 0.859468 -0.331363 -0.0883145 0.983886 -0.155463 
-0.00451407 -0.996739 -0.0805694 0.97983 -0.119699 -0.160016 0.804637 -0.585156 -0.100756 
-0.484381 -0.826735 0.286154 -0.979382 -0.0953117 0.178121 -0.441077 0.862196 -0.249137 
0.0715777 0.994627 -0.074788 -0.33046 0.94231 0.0533647 -0.289713 -0.956757 -0.0261256 
-0.376183 -0.925956 -0.0330513 -0.965302 0.239248 0.104655 0.353375 0.932324 0.0767976 
-0.730793 0.67122 -0.12412 -0.418896 0.906779 -0.0477321 -0.0936137 0.995565 -0.00936575 
0.841793 0.539795 0.00245999 0.713078 0.700653 0.0245941 -0.921593 -0.241564 0.303832 
-0.979012 0.138072 0.149905 -0.786881 0.604782 0.122707 -0.51013 0.86006 0.00798434 
0.599446 -0.798797 0.0508651 0.553386 0.823459 0.125213 -0.610669 0.771827 0.177105 
-0.0746164 0.99362 0.0845647 -0.456956 0.856213 0.241021 0.964027 0.254632 0.0762551 
0.646482 0.734735 0.205487 -0.389205 0.899014 0.200731 -0.32273 -0.943863 0.0704875 
0.558976 0.789311 0.254035 -0.659473 -0.659343 0.361057 -0.90465 0.357095 0.232574 
0.376822 -0.904667 0.198952 0.955455 0.13989 0.259876 0.568843 0.755009 0.326159 
-0.587251 -0.447906 0.674178 0.351525 0.823139 0.445951 -0.635736 0.743571 0.207225 
-0.600637 0.644687 0.472878 0.0695814 0.954186 0.291012 -0.22675 0.952978 0.201043 
-0.170577 0.951086 0.257563 0.0320589 -0.962759 0.268454 0.683882 -0.585029 0.435943 
0.657716 -0.661741 0.359872 -0.310499 -0.906998 0.284508 0.723153 -0.37691 0.578782 
-0.527268 -0.811524 0.251827 0.734496 0.571532 0.365878 0.71117 0.637267 0.296865 
0.54933 0.716455 0.430034 -0.60073 -0.50491 0.61983 0.40896 0.777664 0.477482 
-0.516431 -0.626792 0.583465 -0.495459 -0.55995 0.664061 -0.859726 -0.291109 0.419675 
0.231364 0.773933 0.58949 0.177119 0.74359 0.64475 -0.849304 0.041624 0.526261 
-0.62913 0.349328 0.694381 -0.29305 0.825771 0.481897 0.0765971 0.806563 0.586165 
0.0175115 -0.894007 0.447711 -0.471913 -0.833215 0.288184 -0.092424 -0.898629 0.428863 
0.425919 -0.628904 0.65044 0.8925 0.299288 0.337448 0.837747 0.166794 0.519961 
0.698713 0.547075 0.460987 -0.507194 -0.268837 0.818829 0.0769834 0.59947 0.796686 
-0.345614 -0.178319 0.921278 -0.444394 -0.159752 0.881472 0.128858 0.501286 0.855633 
-0.61633 -0.180589 0.766502 -0.0647532 0.0767172 0.994948 -0.0739808 0.47533 0.876692 
0.0971835 0.698985 0.708503 -0.269368 0.109591 0.956781 -0.0202861 0.469624 0.882633 
0.0325175 0.456994 0.888875 -0.0712901 0.85846 0.507902 -0.0885753 -0.910169 0.404657 
0.466574 -0.441947 0.766153 0.417559 -0.402609 0.814586 0.550622 -0.476476 0.685409 
-0.367308 -0.797232 0.479068 0.104836 -0.396538 0.912013 -0.173509 -0.431971 0.88504 
-0.066026 -0.596873 0.799614 0.244035 -0.00843548 0.96973 0.462662 -0.416966 0.782358 
0.802298 -0.000719626 0.596924 0.697056 0.511783 0.502185 0.548111 0.185925 0.815479 
-0.60336 -0.256272 0.75517 -0.223017 0.201474 0.953767 -0.41095 -0.0552118 0.909985 
-0.371221 -0.0546216 0.926937 -0.23209 0.0377162 0.971963 0.053126 0.408965 0.911002 
-0.367732 0.207211 0.906552 -0.394405 -0.772266 0.498047 0.543005 0.262004 0.79781 
-0.247124 -0.70224 0.667674 -0.0630991 -0.540371 0.839057 0.144298 -0.357471 0.922709 
-0.157784 -0.655503 0.738525 -0.336194 -0.778146 0.53053 -0.104508 -0.634516 0.765811 
0.351521 -0.0667165 0.9338 0.54131 0.118518 0.832428 -0.494354 -0.791936 0.358401 
0.561318 0.175958 0.808678 -0.528186 -0.558217 0.639855 -0.605826 -0.695839 0.385723 
0.632085 0.562806 0.532652 0.469561 0.557453 0.684659 -0.71689 -0.359776 0.597185 
-0.710239 -0.226881 0.666397 -0.070507 0.429486 0.900317 0.0116913 -0.546542 0.83735 
0.210777 -0.280431 0.936446 -0.658395 -0.64827 0.382443 -0.161597 -0.737211 0.656054 
-0.296913 0.00599968 0.954886 0.453804 0.489265 0.74477 0.0178463 -0.314302 0.949155 
-0.505594 -0.656613 0.559674 0.285446 0.408656 0.866903 0.553113 0.528586 0.643944 
-0.541799 -0.701776 0.462562 -0.745577 -0.473481 0.468967 -0.451448 0.171308 0.875699 
-0.0414644 0.618536 0.784662 -0.0645888 -0.668861 0.740576 -0.613844 -0.672404 0.413606 
0.510171 -0.0086081 0.86003 0.487794 0.266703 0.83122 0.481877 -0.00484543 0.876225 
0.535418 0.203417 0.819725 -0.307505 -0.605199 0.734285 -0.00981281 -0.230171 0.973101 
0.331351 0.441231 0.83398 -0.46742 -0.591291 0.657186 0.499254 0.669825 0.549617 
-0.19908 -0.0704897 0.977445 -0.167414 -0.623332 0.763826 -0.457531 -0.0134137 0.889093 
-0.181236 0.0468928 -0.982321 0.103271 0.534522 -0.838822 -0.123657 -0.14591 -0.981539 
0.42177 0.47566 -0.771918 0.0450996 -0.351823 -0.934979 -0.169017 -0.443263 -0.880313 
-0.568754 -0.617058 -0.543837 -0.183442 -0.407181 -0.894736 0.418738 0.176597 -0.890771 
-0.0308952 -0.501063 -0.864859 0.389366 0.315163 -0.865486 0.341852 0.0111677 -0.939687 
-0.654157 -0.523488 -0.54593 -0.325755 0.102447 -0.939888 0.439881 0.44863 -0.777969 
-0.0966567 -0.0446023 -0.994318 -0.430268 -0.424471 -0.796677 0.33506 0.598484 -0.727703 
0.243106 0.25609 -0.935584 -0.376526 -0.0668028 -0.923994 0.312641 0.541895 -0.780132 
0.0660016 -0.378757 -0.92314 -0.130313 -0.637564 -0.759296 0.17687 -0.432369 -0.88418 
-0.292246 -0.63388 -0.716093 0.281428 -0.132218 -0.95043 0.508636 0.0278234 -0.860532 
-0.258432 -0.631835 -0.730751 0.256109 -0.0755446 -0.963691 0.575901 0.253797 -0.777126 
-0.518454 -0.739829 -0.428787 0.175469 -0.213484 -0.96106 0.537566 0.336148 -0.773322 
-0.569148 -0.544101 -0.616461 -0.0248469 0.125344 -0.991802 -0.48421 -0.230029 -0.844173 
-0.234232 0.25093 -0.939239 0.0468623 0.530381 -0.846463 0.162636 0.636428 -0.753995 
0.26714 -0.499519 -0.824086 -0.0298555 -0.897571 -0.439857 -0.280321 -0.737995 -0.613827 
0.613026 -0.142822 -0.777046 0.224377 -0.265184 -0.937727 -0.368854 -0.802918 -0.468262 
0.512652 0.0251926 -0.858227 -0.0871818 -0.677588 -0.730256 0.680851 0.471479 -0.560491 
0.497401 0.589821 -0.636163 -0.359725 0.0895216 -0.928754 -0.553506 -0.382884 -0.739615 
-0.527879 -0.048636 -0.847926 -0.11213 0.00166986 -0.993692 0.104538 0.366063 -0.9247 
-0.0834604 0.34962 -0.933167 -0.260784 0.0349688 -0.964764 -0.42464 -0.315229 -0.848712 
0.0306152 0.297262 -0.954305 -0.203851 0.539989 -0.816613 -0.475151 -0.0735115 -0.876828 
-0.651247 0.295573 -0.698938 -0.07669 0.519485 -0.851031 0.0620651 0.548448 -0.833878 
-0.455011 0.735431 -0.502103 -0.35777 -0.812018 -0.461116 0.661049 -0.28529 -0.693991 
0.562874 -0.491913 -0.664225 0.146582 -0.430426 -0.890644 0.613221 0.261267 -0.745453 
0.739323 0.348431 -0.576193 -0.411517 -0.834489 -0.366445 0.662042 0.19802 -0.722834 
0.668788 0.418516 -0.614464 0.723519 0.510434 -0.464735 0.653243 0.584651 -0.481099 
-0.603704 -0.605944 -0.518048 -0.581117 -0.645267 -0.495917 -0.719516 -0.410236 -0.56036 
0.527554 0.709241 -0.467615 -0.236649 0.041268 -0.970718 -0.433841 -0.468578 -0.769556 
-0.447782 -0.160135 -0.879686 -0.744516 0.0967765 -0.660552 -0.0136563 0.567472 -0.823279 
-0.505412 0.670761 -0.542806 0.588737 -0.36671 -0.720356 0.305973 -0.918275 -0.2513 
0.0588158 -0.754693 -0.653437 0.944371 -0.173434 -0.279434 -0.173807 -0.912183 -0.371098 
0.865248 0.316336 -0.388943 -0.61827 -0.636424 -0.461202 -0.560259 -0.280911 -0.77923 
-0.776393 -0.354139 -0.521343 -0.799855 -0.0152134 -0.6 0.364074 0.798191 -0.479939 
-0.783036 0.267642 -0.561447 -0.9074 0.0885813 -0.410828 -0.910712 0.307413 -0.275864 
0.270331 0.659997 -0.700945 -0.70514 0.539452 -0.460184 -0.456111 0.829247 -0.322973 
0.0973231 0.910576 -0.40172 0.507021 0.775509 -0.376185 -0.842428 -0.405925 -0.354316 
-0.59987 -0.591717 -0.538543 -0.494055 -0.483736 -0.722433 -0.900984 -0.0967708 -0.422924 
-0.880088 -0.341361 -0.330027 -0.593803 0.757444 -0.271436 0.980623 0.0604704 -0.186337 
0.69216 -0.71384 -0.106524 -0.96256 -0.194936 -0.188356 -0.816887 -0.505481 -0.277821 
-0.952292 0.222077 -0.209336 -0.432593 0.852706 -0.292841 -0.0506645 -0.998271 -0.0298092 
0.772994 -0.633524 0.0335791 0.998693 -0.0127967 -0.0494904 -0.429577 -0.901872 -0.0457236 
0.819289 0.557161 -0.135413 -0.672087 -0.661568 -0.332605 -0.889513 0.406193 -0.209221 
-0.388354 0.866397 -0.313907 0.15977 -0.986648 0.0316229 -0.211895 -0.975706 0.0556638 
-0.935262 -0.25552 -0.244939 -0.981357 0.0742656 -0.177263 -0.857152 0.509571 -0.0750125 
-0.684844 0.723368 -0.0879042 -0.149473 0.916862 -0.370164 0.113578 0.948949 -0.294272 
-0.799941 -0.513873 -0.309885 -0.978972 0.176901 -0.101591 -0.329925 0.934564 -0.13319 
-0.533712 0.84563 0.00780191 -0.205498 -0.969541 0.13327 0.247484 -0.957975 0.145035 
0.958191 0.284435 0.0310914 -0.463576 -0.881393 -0.0907961 -0.97077 -0.0465212 -0.23546 
-0.983398 0.068693 -0.167959 -0.887809 0.46014 0.00820915 0.324764 0.935051 -0.142155 
-0.62892 0.77747 0.000771499 -0.0786364 0.996671 -0.0215054 0.825117 -0.542552 0.157544 
0.986274 -0.165086 0.00319403 0.958192 0.0418842 0.283042 -0.868201 -0.397329 -0.297247 
-0.980169 -0.0983867 -0.172015 0.586432 0.805257 -0.0875126 -0.745361 0.649462 0.15045 
-0.428719 0.895534 0.119243 0.235973 -0.945872 0.222808 0.620475 -0.735012 0.273437 
0.794394 -0.502173 0.341703 0.738894 0.6714 0.0570719 -0.667942 -0.602229 -0.437233 
-0.907931 -0.312782 -0.278979 -0.731969 -0.437379 -0.522418 -0.931772 0.360532 0.0426368 
-0.639274 0.726927 0.250811 -0.210404 0.944543 0.252126 0.0282576 0.9861 0.16373 
0.61455 -0.706038 0.351908 0.00830229 -0.985726 0.168154 -0.515534 -0.825044 -0.231359 
0.31404 0.940252 0.131552 0.378137 -0.902309 0.207007 0.0327148 -0.961729 0.272042 
0.567006 -0.68494 0.457559 0.679725 -0.614174 0.400955 0.942738 -0.025057 0.332591 
-0.452459 -0.838432 -0.303829 -0.989456 0.14483 -0.00111232 -0.760758 0.625509 0.173162 
-0.14711 0.910713 0.385953 0.213186 0.932502 0.291535 0.27388 -0.854023 0.442306 
0.766684 -0.422309 0.483582 0.885836 0.121492 0.44781 -0.427567 -0.842 -0.328972 
-0.700342 -0.573323 -0.425231 -0.982559 0.185905 0.0041319 -0.893686 0.44348 0.0681947 
0.3487 -0.83162 0.432223 -0.0649524 -0.962275 0.264212 0.31363 -0.880721 0.354918 
-0.191718 -0.975638 0.106653 -0.374367 -0.826792 -0.419839 -0.91129 -0.311031 -0.269833 
0.641436 0.697224 0.320061 -0.800178 0.535645 0.269813 0.133218 -0.856492 0.498673 
0.587761 -0.621786 0.517609 0.444797 -0.658788 0.606757 0.836147 -0.291451 0.464665 
0.228152 -0.904285 0.360854 0.725675 -0.381656 0.572481 0.842038 0.0538811 0.536721 
0.808829 0.462753 0.362845 -0.725953 -0.594808 -0.345247 -0.99451 -0.0773639 -0.0704631 
-0.994006 0.0719221 -0.0823341 0.64867 -0.597596 0.471282 0.422168 -0.639151 0.642853 
-0.199099 -0.978236 0.0584244 0.687152 -0.256599 0.67969 0.719387 -0.0693475 0.691139 
0.594646 -0.319482 0.737786 0.815359 0.152851 0.558414 -0.247411 -0.944625 -0.215572 
-0.856547 -0.472401 -0.20776 -0.987708 -0.155565 0.01522 0.704185 0.528154 0.474528 
-0.985451 0.142946 0.0919395 0.485398 -0.815646 0.314818 0.252739 -0.88981 0.379949 
0.0963785 -0.823095 0.559666 0.185068 -0.975962 0.115102 0.627949 -0.529119 0.570712 
-0.0317274 -0.989036 -0.144226 0.431803 -0.673469 0.599987 0.714778 0.0242615 0.69893 
0.657496 -0.000679182 0.753457 -0.921275 0.279586 0.270341 -0.811329 0.470808 0.346534 
-0.450964 0.712786 0.537185 0.411459 0.728074 0.548279 -0.184542 0.822132 0.538557 
0.371209 0.862725 0.34338 0.631006 -0.443718 0.636353 0.683713 -0.143828 0.715437 
-0.562404 -0.766635 -0.309795 -0.355795 -0.897014 -0.262252 0.616216 0.0921933 0.782162 
-0.976532 -0.209954 -0.0480003 0.63429 0.358955 0.684709 -0.994035 0.0216064 0.106896 
-0.897639 0.25749 0.357691 -0.71146 0.478808 0.514361 0.628485 0.461171 0.626361 
0.17252 0.756429 0.630914 0.0916782 -0.84696 0.523692 0.181021 -0.754174 0.631231 
0.449559 -0.59486 0.666362 0.590883 -0.459024 0.663441 -0.0969848 -0.989389 -0.108182 
-0.00455476 -0.994584 0.103835 -0.48856 -0.868647 -0.0822274 -0.233033 -0.930654 -0.282098 
0.559072 -0.0704132 0.826124 -0.934489 -0.296899 0.196422 0.572577 0.0947695 0.814355 
-0.866453 -0.498701 -0.0235692 -0.909858 0.077178 0.407678 0.560029 0.31448 0.766466 
-0.345186 0.574324 0.742292 0.474166 0.527013 0.705284 -0.0232007 0.745875 0.665682 
0.0843094 -0.975979 0.20089 0.26467 -0.853618 0.44865 -0.38375 -0.91581 0.118441 
-0.278614 -0.960385 0.00587373 0.306421 -0.73316 0.607109 0.315596 -0.453835 0.833327 
-0.614956 -0.771378 0.163722 0.419203 -0.351824 0.836952 -0.827635 -0.470864 0.305464 
-0.735956 0.112986 0.667535 -0.783401 0.169548 0.597943 0.362271 0.189986 0.912505 
0.524902 0.149505 0.83793 0.534653 0.267541 0.801603 -0.657248 0.318794 0.682932 
0.30977 0.564266 0.765275 0.249501 0.575874 0.778536 -0.11914 -0.984971 0.125052 
0.0965684 -0.87073 0.482187 0.271894 -0.626427 0.730522 -0.488943 -0.822834 0.289617 
-0.269419 -0.854224 0.444651 -0.621824 -0.608061 0.493555 0.402277 -0.353518 0.844511 
-0.734895 -0.0985643 0.670981 -0.638666 -0.324286 0.697813 0.503783 -0.0364123 0.863063 
-0.0810593 -0.868653 0.488744 -0.221635 -0.890685 0.396936 0.137811 -0.751723 0.644919 
-0.33902 -0.666744 0.663715 -0.536986 -0.539001 0.64894 -0.228943 -0.75041 0.620056 