# vtk DataFile Version 4.2
vtk output
ASCII
DATASET POLYDATA
POINTS 2103 float
390.356 223.372 165.642 390.305 223.076 165.779 390.232 223.577 165.694 
390.591 223.456 165.549 390.68 223.998 165.537 392.302 225.822 165.118 
392.23 225.86 165.097 393.199 227.339 165.431 393.336 227.394 165.391 
393.951 228.319 165.663 393.87 228.223 165.663 393.886 228.34 165.709 
394.041 228.312 165.687 394.001 228.377 165.689 391.002 221.586 166.253 
392.082 223.53 165.395 389.793 223.582 166.097 391.289 224.227 165.403 
393.352 225.059 165.273 394.006 225.738 165.372 392.431 226.226 165.282 
392.29 225.959 165.131 393.253 226.959 165.368 393.855 226.727 165.392 
393.385 227.678 165.542 393.87 227.955 165.614 393.596 228.158 165.76 
394.43 228.517 165.882 394.002 228.442 165.751 395.009 231.004 164.013 
395.009 231.004 164.013 395.009 231.004 164.013 395.009 231.004 164.013 
395.009 231.004 164.013 392.253 219.602 166.911 392.709 221.6 166.053 
389.795 222.629 166.419 391.885 222.488 165.692 392.488 222.587 165.705 
394.638 224.366 165.722 391.49 226.29 165.741 392.911 227.721 165.772 
394.114 228.778 166.085 394.889 229.028 166.141 395.009 231.004 164.013 
396.116 230.634 166.671 396.239 230.644 166.703 396.051 230.764 166.769 
396.094 230.707 166.697 396.177 230.788 166.728 396.125 230.784 166.722 
397.048 232.248 167.233 397.325 232.374 167.216 397.184 232.431 167.219 
397.264 232.505 167.239 397.222 232.508 167.237 398 236.009 165.017 
398 236.009 165.017 398 236.009 165.017 398 236.009 165.017 
398 236.009 165.017 395 244.009 165.017 395 244.009 165.017 
395 244.009 165.017 395 244.009 165.017 395 244.009 165.017 
392.644 217.941 167.722 393.056 218.634 167.327 393.257 220.11 166.655 
393.428 221.089 166.264 389.347 222.231 167.344 395.94 230.032 166.558 
397.461 229.496 166.709 395.617 230.6 166.926 396.304 231.073 166.922 
397.093 231.846 167.107 397.375 232.746 167.416 397.526 233.45 167.817 
398.423 233.328 167.505 398 236.009 165.017 398.681 234.756 167.81 
398.825 235.337 167.878 398.799 235.163 167.802 398.951 235.2 167.805 
398.862 235.32 167.744 398.889 235.292 167.729 398.896 235.359 167.696 
396.969 245.003 167.623 396.983 245.029 167.662 397.043 245.076 167.764 
397.003 245.087 167.761 397.03 245.015 167.727 395 244.009 165.017 
397.02 245.278 167.896 396.99 245.246 168.092 397.172 245.167 167.912 
397.21 245.002 167.971 396.812 245.621 168.051 396.801 245.673 168.032 
396.89 245.478 168.056 396.952 245.529 167.959 397.446 245.124 168.109 
396.824 245.73 168.061 396.854 245.909 168.241 396.917 245.723 168.044 
393.085 216.407 168.533 392.57 216.313 168.793 394.135 217.255 168.063 
395.182 219.69 167.382 389.67 221.059 167.659 395.142 221.304 166.805 
388.674 224.153 168.058 388.206 225.464 168.556 388.338 225.927 168.342 
390.07 226.528 166.856 393.637 229.296 166.777 399.486 232.724 167.618 
398.584 235.436 168.316 399.343 235.228 167.984 399.044 235.544 168.072 
398.934 235.377 167.823 399.526 235.895 168.259 398.929 235.352 167.73 
398.903 235.383 167.735 398.919 235.344 167.702 398.907 235.384 167.689 
400.459 239.908 168.758 399.557 241.225 168.95 399.225 240.617 169.225 
396.99 245.019 167.68 399.134 242.184 168.982 398.712 242.688 169.091 
397.06 245.037 167.858 400.403 242.375 168.667 397.204 244.968 168.132 
398.415 244.107 168.654 396.8 245.724 168.133 397.137 245.065 168.417 
397.612 244.676 168.509 398.025 245.128 168.346 396.801 245.798 168.402 
396.791 246.001 168.438 396.827 246.217 168.546 397.281 246.205 168.368 
392.809 215.045 169.583 393.39 214.719 169.578 395.271 217.922 168.107 
389.832 219.267 169.153 387.912 228.505 169.078 400.073 236.886 168.554 
400.884 237.162 168.624 398.918 235.381 167.693 399.359 238.47 169.13 
401.432 237.711 168.771 381.43 241.416 171.168 381.283 241.334 171.293 
381.271 241.543 171.237 381.201 241.67 171.35 381.392 241.629 171.162 
381.294 241.715 171.24 381.431 241.798 171.216 398.141 243.162 169.472 
401.61 242.37 168.831 397.951 243.284 169.757 400.219 244.016 168.621 
396.76 246.067 168.669 396.807 246.467 168.761 396.752 246.538 168.906 
396.821 246.661 168.95 397.799 247.345 169.156 398.805 247.221 169.075 
394.618 212.01 170.652 390.283 218.283 169.349 390.706 228.192 167.392 
386.65 231.523 170.507 397.121 234.488 169.058 384.573 235.114 171.456 
384.667 235.311 171.36 384.735 235.676 171.324 398.815 237.636 169.376 
383.232 238.637 171.321 402.738 237.375 169.218 398.705 238.97 169.811 
383.832 238.802 171.181 398.581 240.362 170.021 381.103 241.703 171.609 
381.641 242.07 171.311 382.496 242.588 171.276 382.391 242.242 171.158 
382.846 242.697 171.285 383.009 242.498 171.209 381.712 242.509 171.581 
382.009 242.74 171.566 382.32 242.813 171.477 383.259 243.024 171.499 
396.683 246.434 169.199 395.003 208.834 172.159 392.794 213.384 170.929 
392.054 214.642 170.614 390.958 215.881 170.921 387.35 225.203 170.472 
388.168 232.799 170.344 403.19 233.762 169.559 384.712 234.177 171.681 
385.337 234.236 171.244 383.987 235.495 171.877 382.409 238.512 171.946 
381.928 239.028 172.148 398.387 239.707 170.381 381.396 239.999 172.094 
383.172 240.513 171.076 382.286 241.554 171.016 381.194 242.323 171.96 
383.526 242.687 171.419 382.807 243.368 171.932 384.198 243.648 172.282 
384.181 243.716 172.368 384.26 243.708 172.335 384.314 243.66 172.327 
384.32 243.733 172.433 396.53 248.061 170.985 396.95 249.109 171.459 
396.054 210.856 171.11 392.193 213.046 171.993 390.339 216.802 171.038 
389.699 217.992 171.271 404.521 230.985 170.814 395.765 234.268 170.21 
384.276 233.461 172.528 386.579 235.837 171.115 387.807 235.466 171.163 
382.993 237.093 172.14 382.531 237.698 172.299 405.574 239.231 171.031 
384.502 239.996 171.277 380.69 241.248 172.844 381.106 242.51 172.408 
381.341 242.855 172.427 383.221 243.616 172.285 383.91 243.551 172.222 
384.465 243.613 172.417 384.189 243.842 172.66 396.364 246.922 170.996 
395.858 247.748 172.045 398.891 198.339 174.617 396.848 203.249 173.979 
397.483 203.416 173.663 393.412 209.965 173.107 394.685 233.588 170.255 
395.251 234.123 170.427 383.175 235.735 172.744 380.882 240.299 172.903 
380.637 242.202 173.449 383.912 241.655 171.246 398.291 251.094 172.792 
400.958 251.99 173.041 401.104 192.02 175.383 401.353 192.676 175.068 
399.447 199.979 174.193 400.037 200.819 174.032 396.677 202.779 174.4 
399.248 201.965 173.852 398.014 204.639 173.221 405.968 227.704 172.343 
383.363 234.061 173.798 407.696 238.968 172.773 380.784 239.617 174.022 
387.138 240.767 172.655 385.248 241.402 171.895 380.714 242.743 173.868 
381.274 243.557 173.875 397.304 243.361 173.019 382.379 244.047 173.518 
386.688 244.8 174.739 386.718 244.791 174.714 386.693 244.774 174.698 
386.756 244.78 174.735 388.866 246.747 176.005 388.86 246.746 176.022 
388.874 246.748 176.022 388.863 246.734 176.014 388.876 246.737 176.014 
391.294 247.85 175.691 391.288 247.862 175.714 391.315 247.827 175.688 
394.051 248.568 174.294 406.397 249.049 172.808 403.511 185.491 176.22 
403.893 185.355 176.122 402.887 186.832 176.053 402.049 188.664 175.981 
403.01 188.517 175.483 400.966 190.903 176.003 401.657 192.948 174.93 
402.155 194.071 174.701 398.715 196.913 175.414 397.04 201.312 174.937 
399.681 203.26 173.665 406.464 226.609 172.837 406.846 225.761 173.202 
383.762 232.474 174.59 393.952 236.187 172.422 397.405 240.907 172.899 
397.402 241.57 173.031 380.187 241.269 175.074 380.245 242.288 175.015 
386.629 244.699 174.656 386.524 244.82 174.798 386.798 244.847 174.855 
388.842 246.716 176.055 388.868 246.751 176.074 388.883 246.695 176.033 
388.91 246.73 176.052 391.182 247.841 175.85 396.028 246.475 172.674 
391.328 247.902 175.772 391.458 247.875 175.714 394.561 247.53 173.98 
394.811 250.25 174.616 407.241 182.198 176.825 404.935 183.636 176.644 
406.357 183.507 176.295 403.934 184.076 176.95 404.408 185.548 175.883 
407.257 184.622 175.898 402.153 187.287 176.509 403.981 188.821 175.179 
406.845 188.005 175.248 399.371 193.792 176.348 403.521 210.389 173.947 
390.036 215.551 175.282 407.794 223.413 174.052 396.381 238.044 172.864 
393.816 238.206 173.62 394.863 237.858 173.35 392.062 239.704 174.06 
380.182 240.696 175.548 389.171 242.512 174.299 397.043 243.055 173.754 
379.963 243.06 176.627 380.491 243.472 175.468 386.276 243.429 173.567 
386.292 244.327 174.336 396.88 244.045 173.795 383.6 245.016 174.978 
385.995 245.007 175.003 388.816 246.587 176.074 388.776 246.744 176.176 
389.006 246.627 176.053 388.965 246.787 176.177 391.098 247.666 175.879 
390.984 247.854 176.057 391.374 247.638 175.724 391.665 247.765 175.652 
391.599 248.023 175.801 406.778 252.553 174.74 404.752 254.088 175.401 
405.853 181.177 177.976 406.343 181.153 177.812 408.293 181.651 177.306 
403.754 183.634 177.459 403.096 185.127 176.92 410.631 183.665 177.032 
402.788 184.97 177.491 409.999 186.452 176.079 401.685 187.103 177.334 
412.789 187.958 177.091 410.676 200.636 175.696 395.955 240.486 174.214 
396.86 242.016 173.93 381.958 245.008 175.949 387.608 245.249 175.398 
388.554 246.399 176.092 396.066 245.095 174.24 392.352 247.871 175.443 
391.855 247.35 175.581 409.301 252.615 176.35 403.448 183.512 177.995 
413.893 189.329 177.593 379.735 241.892 177.302 380.669 244.552 176.846 
395.983 244.367 174.668 380.222 244.437 177.791 383.618 245.748 176.419 
390.128 247.13 176.2 390.718 249.064 177.461 391.901 249.955 177.488 
405.536 255.962 177.861 405.752 180.393 179.214 406.522 180.389 178.707 
407.847 180.343 178.627 410.711 181.008 178.862 411.564 181.807 178.675 
404.02 182.062 178.872 414.304 187.243 178.517 415.139 191.263 178.536 
398.916 192.699 178.19 415.657 199.594 178.195 395.904 200.54 178.613 
416.03 207.745 178.189 415.976 217.327 178.374 395.67 243.154 174.987 
394.286 244.529 175.272 395.302 244.139 175.081 387.513 247.569 177.733 
409.951 255.157 178.487 406.253 179.843 179.894 407.716 179.435 180.191 
[...]
POINT_DATA 2103
SCALARS scalars float
LOOKUP_TABLE default
1 1 1 1 1 1 1 1 1 
1 1 1 1 1 1 1 1 1 
1 1 1 1 1 1 1 1 1 
1 1 1 1 1 1 1 1 1 
1 1 1 1 1 1 1 1 1 
1 1 1 1 1 1 1 1 1 
1 1 1 1 1 1 1 1 1 
1 1 1 1 1 1 1 1 1 
1 1 1 1 1 1 1 1 1 
1 1 1 1 1 1 1 1 1 
1 1 1 1 1 1 1 1 1 
1 1 1 1 1 1 1 1 1 
1 1 1 1 1 1 1 1 1 
1 1 1 1 1 1 1 1 1 
1 1 1 1 1 1 1 1 1 
1 1 1 1 1 1 1 1 1 
1 1 1 1 1 1 1 1 1 
1 1 1 1 1 1 1 1 1 
1 1 1 1 1 1 1 1 1 
1 1 1 1 1 1 1 1 1 
1 1 1 1 1 1 1 1 1 
1 1 1 1 1 1 1 1 1 
1 1 1 1 1 1 1 1 1 
1 1 1 1 1 1 1 1 1 
1 1 1 1 1 1 1 1 1 
1 1 1 1 1 1 1 1 1 
1 1 1 1 1 1 1 1 1 
1 1 1 1 1 1 1 1 1 
1 1 1 1 1 1 1 1 1 
1 1 1 1 1 1 1 1 1 
1 1 1 1 1 1 1 1 1 
1 1 1 1 1 1 1 1 1 
1 1 1 1 1 1 1 1 1 
1 1 1 1 1 1 1 1 1 
1 1 1 1 1 1 1 1 1 
1 1 1 1 1 1 1 1 1 
1 1 1 1 1 1 1 1 1 
1 1 1 1 1 1 1 1 1 
1 1 1 1 1 1 1 1 1 
1 1 1 1 1 1 1 1 1 
1 1 1 1 1 1 1 1 1 
1 1 1 1 1 1 1 1 1 
1 1 1 1 1 1 1 1 1 
1 1 1 1 1 1 1 1 1 
1 1 1 1 1 1 1 1 1 
1 1 1 1 1 1 1 1 1 
1 1 1 1 1 1 1 1 1 
1 1 1 1 1 1 1 1 1 
1 1 1 1 1 1 1 1 1 
1 1 1 1 1 1 1 1 1 
1 1 1 1 1 1 1 1 1 
1 1 1 1 1 1 1 1 1 
1 1 1 1 1 1 1 1 1 
1 1 1 1 1 1 1 1 1 
1 1 1 1 1 1 1 1 1 
1 1 1 1 1 1 1 1 1 
1 1 1 1 1 1 1 1 1 
1 1 1 1 1 1 1 1 1 
1 1 1 1 1 1 1 1 1 
1 1 1 1 1 1 1 1 1 
1 1 1 1 1 1 1 1 1 
1 1 1 1 1 1 1 1 1 
1 1 1 1 1 1 1 1 1 
1 1 1 1 1 1 1 1 1 
1 1 1 1 1 1 1 1 1 
1 1 1 1 1 1 1 1 1 
1 1 1 1 1 1 1 1 1 
1 1 1 1 1 1 1 1 1 
1 1 1 1 1 1 1 1 1 
1 1 1 1 1 1 1 1 1 
1 1 1 1 1 1 1 1 1 
1 1 1 1 1 1 1 1 1 
1 1 1 1 1 1 1 1 1 
1 1 1 1 1 1 1 1 1 
1 1 1 1 1 1 1 1 1 
1 1 1 1 1 1 1 1 1 
1 1 1 1 1 1 1 1 1 
1 1 1 1 1 1 1 1 1 
1 1 1 1 1 1 1 1 1 
1 1 1 1 1 1 1 1 1 
1 1 1 1 1 1 1 1 1 
1 1 1 1 1 1 1 1 1 
1 1 1 1 1 1 1 1 1 
1 1 1 1 1 1 1 1 1 
1 1 1 1 1 1 1 1 1 
1 1 1 1 1 1 1 1 1 
1 1 1 1 1 1 1 1 1 
1 1 1 1 1 1 1 1 1 
1 1 1 1 1 1 1 1 1 
1 1 1 1 1 1 1 1 1 
1 1 1 1 1 1 1 1 1 
1 1 1 1 1 1 1 1 1 
1 1 1 1 1 1 1 1 1 
1 1 1 1 1 1 1 1 1 
1 1 1 1 1 1 1 1 1 
1 1 1 1 1 1 1 1 1 
1 1 1 1 1 1 1 1 1 
1 1 1 1 1 1 1 1 1 
1 1 1 1 1 1 1 1 1 
1 1 1 1 1 1 1 1 1 
1 1 1 1 1 1 1 1 1 
1 1 1 1 1 1 1 1 1 
1 1 1 1 1 1 1 1 1 
1 1 1 1 1 1 1 1 1 
1 1 1 1 1 1 1 1 1 
1 1 1 1 1 1 1 1 1 
1 1 1 1 1 1 1 1 1 
1 1 1 1 1 1 1 1 1 
1 1 1 1 1 1 1 1 1 
1 1 1 1 1 1 1 1 1 
1 1 1 1 1 1 1 1 1 
1 1 1 1 1 1 1 1 1 
1 1 1 1 1 1 1 1 1 
1 1 1 1 1 1 1 1 1 
1 1 1 1 1 1 1 1 1 
1 1 1 1 1 1 1 1 1 
1 1 1 1 1 1 1 1 1 
1 1 1 1 1 1 1 1 1 
1 1 1 1 1 1 1 1 1 
1 1 1 1 1 1 1 1 1 
1 1 1 1 1 1 1 1 1 
1 1 1 1 1 1 1 1 1 
1 1 1 1 1 1 1 1 1 
1 1 1 1 1 1 1 1 1 
1 1 1 1 1 1 1 1 1 
1 1 1 1 1 1 1 1 1 
1 1 1 1 1 1 1 1 1 
1 1 1 1 1 1 1 1 1 
1 1 1 1 1 1 1 1 1 
1 1 1 1 1 1 1 1 1 
1 1 1 1 1 1 1 1 1 
1 1 1 1 1 1 1 1 1 
1 1 1 1 1 1 1 1 1 
1 1 1 1 1 1 1 1 1 
1 1 1 1 1 1 1 1 1 
1 1 1 1 1 1 1 1 1 
1 1 1 1 1 1 1 1 1 
1 1 1 1 1 1 1 1 1 
1 1 1 1 1 1 1 1 1 
1 1 1 1 1 1 1 1 1 
1 1 1 1 1 1 1 1 1 
1 1 1 1 1 1 1 1 1 
1 1 1 1 1 1 1 1 1 
1 1 1 1 1 1 1 1 1 
1 1 1 1 1 1 1 1 1 
1 1 1 1 1 1 1 1 1 
1 1 1 1 1 1 1 1 1 
1 1 1 1 1 1 1 1 1 
1 1 1 1 1 1 1 1 1 
1 1 1 1 1 1 1 1 1 
1 1 1 1 1 1 1 1 1 
1 1 1 1 1 1 1 1 1 
1 1 1 1 1 1 1 1 1 
1 1 1 1 1 1 1 1 1 
1 1 1 1 1 1 1 1 1 
1 1 1 1 1 1 1 1 1 
1 1 1 1 1 1 1 1 1 
1 1 1 1 1 1 1 1 1 
1 1 1 1 1 1 1 1 1 
1 1 1 1 1 1 1 1 1 
1 1 1 1 1 1 1 1 1 
1 1 1 1 1 1 1 1 1 
1 1 1 1 1 1 1 1 1 
1 1 1 1 1 1 1 1 1 
1 1 1 1 1 1 1 1 1 
1 1 1 1 1 1 1 1 1 
1 1 1 1 1 1 1 1 1 
1 1 1 1 1 1 1 1 1 
1 1 1 1 1 1 1 1 1 
1 1 1 1 1 1 1 1 1 
1 1 1 1 1 1 1 1 1 
1 1 1 1 1 1 1 1 1 
1 1 1 1 1 1 1 1 1 
1 1 1 1 1 1 1 1 1 
1 1 1 1 1 1 1 1 1 
1 1 1 1 1 1 1 1 1 
1 1 1 1 1 1 1 1 1 
1 1 1 1 1 1 1 1 1 
1 1 1 1 1 1 1 1 1 
1 1 1 1 1 1 1 1 1 
1 1 1 1 1 1 1 1 1 
1 1 1 1 1 1 1 1 1 
1 1 1 1 1 1 1 1 1 
1 1 1 1 1 1 1 1 1 
1 1 1 1 1 1 1 1 1 
1 1 1 1 1 1 1 1 1 
1 1 1 1 1 1 1 1 1 
1 1 1 1 1 1 1 1 1 
1 1 1 1 1 1 1 1 1 
1 1 1 1 1 1 1 1 1 
1 1 1 1 1 1 1 1 1 
1 1 1 1 1 1 1 1 1 
1 1 1 1 1 1 1 1 1 
1 1 1 1 1 1 1 1 1 
1 1 1 1 1 1 1 1 1 
1 1 1 1 1 1 1 1 1 
1 1 1 1 1 1 1 1 1 
1 1 1 1 1 1 1 1 1 
1 1 1 1 1 1 1 1 1 
1 1 1 1 1 1 1 1 1 
1 1 1 1 1 1 1 1 1 
1 1 1 1 1 1 1 1 1 
1 1 1 1 1 1 1 1 1 
1 1 1 1 1 1 1 1 1 
1 1 1 1 1 1 1 1 1 
1 1 1 1 1 1 1 1 1 
1 1 1 1 1 1 1 1 1 
1 1 1 1 1 1 1 1 1 
1 1 1 1 1 1 1 1 1 
1 1 1 1 1 1 1 1 1 
1 1 1 1 1 1 1 1 1 
1 1 1 1 1 1 1 1 1 
1 1 1 1 1 1 1 1 1 
1 1 1 1 1 1 1 1 1 
1 1 1 1 1 1 1 1 1 
1 1 1 1 1 1 1 1 1 
1 1 1 1 1 1 1 1 1 
1 1 1 1 1 1 1 1 1 
1 1 1 1 1 1 1 1 1 
1 1 1 1 1 1 1 1 1 
1 1 1 1 1 1 1 1 1 
1 1 1 1 1 1 1 1 1 
1 1 1 1 1 1 1 1 1 
1 1 1 1 1 1 1 1 1 
1 1 1 1 1 1 1 1 1 
1 1 1 1 1 1 1 1 1 
1 1 1 1 1 1 1 1 1 
1 1 1 1 1 1 1 1 1 
1 1 1 1 1 1 1 1 1 
1 1 1 1 1 1 1 1 1 
1 1 1 1 1 1 1 1 1 
1 1 1 1 1 1 1 1 1 
1 1 1 1 1 1 1 1 1 
1 1 1 1 1 1 
NORMALS Normals float
-0.293552 -0.344603 -0.89167 -0.686405 -0.127836 -0.715895 -0.594844 -0.00121795 -0.803841 
-0.235009 -0.169746 -0.957056 -0.292089 0.0637874 -0.954262 0.2934 0.0164685 -0.955848 
-0.303533 0.289535 -0.907765 -0.486161 0.275713 -0.829235 -0.12847 0.271905 -0.95371 
-0.0775944 0.277298 -0.957645 -0.197765 0.19598 -0.960459 -0.418309 0.573636 -0.704243 
0.273783 0.0785531 -0.958578 0.0266512 0.545462 -0.837712 -0.229725 -0.431676 -0.872286 
-0.00454401 -0.252982 -0.96746 -0.780357 -0.0236501 -0.624887 -0.158364 -0.048563 -0.986186 
0.143799 -0.0429771 -0.988673 0.279816 0.024905 -0.95973 -0.0509355 0.315748 -0.947475 
0.0637918 0.381049 -0.922351 -0.292264 0.181989 -0.938862 0.240258 0.0827628 -0.967174 
-0.324052 0.579128 -0.748065 0.0616247 0.245753 -0.967372 -0.435419 0.510202 -0.74169 
0.191826 0.35557 -0.914753 -0.287238 0.710746 -0.642133 -0.553568 -0.567322 -0.609679 
0.476364 0.282493 -0.832631 0.456443 -0.861461 0.222587 0.544812 0.59295 0.59295 
-0.470445 0.84645 -0.249409 -0.250104 -0.498905 -0.829784 0.0904892 -0.283318 -0.954748 
-0.773473 -0.178008 -0.60832 -0.0705918 -0.37495 -0.924353 0.129729 -0.345623 -0.929363 
0.394681 -0.125911 -0.91015 -0.442385 0.360622 -0.821126 -0.438727 0.46556 -0.768617 
-0.0543572 0.676623 -0.734321 -0.0674818 0.486988 -0.870798 -0.508152 -0.283838 0.813153 
-0.249704 0.242152 -0.937555 0.173516 0.264867 -0.948545 -0.616047 0.442541 -0.651647 
-0.393867 0.273373 -0.877574 0.172829 0.361045 -0.916393 -0.250775 0.524961 -0.813343 
-0.555714 0.481695 -0.677608 0.114117 0.248814 -0.961805 -0.197413 0.277189 -0.940316 
0.180711 0.342158 -0.922102 -0.417712 0.546185 -0.726084 0 -0.159641 -0.987175 
0 -1 0 -0.963361 -0.268207 4.13429e-08 0.963361 -0.268207 4.13429e-08 
0 0.5547 -0.83205 0 -0.159641 -0.987175 0 -1 0 
-0.963361 -0.268207 4.13429e-08 0.963361 -0.268207 4.13429e-08 0 0.5547 -0.83205 
-0.0426212 -0.496844 -0.866793 0.134591 -0.45736 -0.879038 0.123336 -0.425408 -0.896558 
0.117853 -0.320049 -0.940042 -0.885645 -0.124165 -0.447454 -0.0019544 0.264375 -0.964418 
0.340183 0.0541191 -0.938801 -0.373285 0.527076 -0.763446 -0.236874 0.558905 -0.79468 
-0.0746257 0.264579 -0.961472 -0.331193 0.57908 -0.744968 -0.47499 0.439462 -0.762402 
-0.0702833 0.317775 -0.945558 0 -0.159641 0.987175 -0.266732 0.191967 -0.944459 
-0.723896 0.632907 -0.274596 -0.570772 -0.0360942 -0.820315 0.602033 -0.102845 -0.79182 
-0.840551 0.125554 -0.526983 -0.205069 -0.414411 -0.886685 -0.462673 -0.207965 -0.861792 
0.71174 0.403781 -0.574792 0.393394 0.727003 -0.562768 0.599431 0.428879 -0.67583 
-0.966591 0.180208 -0.182281 0.824104 0.158238 -0.543886 0 -0.159641 0.987175 
-0.196187 0.359476 -0.912298 -0.912394 -0.4034 0.0693262 0.467682 0.0958633 -0.878683 
0.394172 -0.677954 -0.620489 -0.925462 -0.373993 -0.0603995 -0.71611 0.084667 -0.692834 
-0.900308 -0.385673 -0.201747 -0.269176 0.0995727 -0.95793 0.444772 -0.530245 -0.721816 
-0.549286 0.5917 -0.590065 -0.82236 0.391187 -0.413155 0.0974474 0.541242 -0.835201 
-0.195087 -0.516012 -0.83407 -0.496032 -0.446467 -0.744728 0.064996 -0.438007 -0.896619 
0.322168 -0.402821 -0.856705 -0.790851 -0.405744 -0.458177 0.4551 -0.228952 -0.860503 
-0.904395 -0.0992081 -0.415004 -0.847363 -0.114705 -0.518477 -0.722573 -0.0272665 -0.690756 
-0.634766 0.197742 -0.746974 -0.306102 0.590603 -0.746652 0.264137 0.120194 -0.956967 
-0.50376 0.564244 -0.654106 0.282213 0.183936 -0.941554 0.000205271 0.714199 -0.699943 
0.548728 0.787388 -0.280923 -0.100279 0.454127 -0.885275 0.948595 0.276438 -0.154108 
0.213584 0.975516 0.0524372 0.462479 -0.308394 -0.831268 -0.481502 0.536861 -0.692774 
-0.156162 -0.0569815 -0.986087 -0.329587 -0.23189 -0.915205 -0.417325 -0.112644 -0.901749 
-0.810385 -0.464622 0.356934 -0.539275 -0.291794 -0.789961 -0.713222 -0.50424 -0.486885 
-0.611305 -0.763516 0.208203 -0.00382289 -0.13432 -0.990931 -0.584562 -0.811343 -0.00316201 
-0.283428 -0.323961 -0.902617 -0.998802 -0.0348641 0.0343342 -0.861078 -0.508085 -0.0198495 
-0.141844 -0.704914 -0.694966 0.209999 -0.312835 -0.926302 -0.993765 -0.107503 -0.0295747 
-0.949954 0.152728 -0.272508 -0.949982 0.190769 -0.247266 -0.00194403 0.536894 -0.843648 
-0.4062 -0.583663 -0.703093 -0.430027 -0.532698 -0.72891 0.492311 -0.390013 -0.778151 
-0.738946 -0.46038 -0.491943 -0.746728 0.0800957 -0.66029 -0.0331225 0.0644666 -0.99737 
0.221459 -0.177662 -0.958849 0.804913 0.475755 -0.354644 -0.52914 0.0113418 -0.848459 
0.198262 0.0747398 -0.977295 -0.37041 -0.250435 -0.894471 -0.693621 -0.305743 -0.652236 
-0.683806 -0.0638845 -0.726862 -0.888185 0.108123 -0.446584 -0.260172 0.11644 -0.958515 
-0.639919 0.415985 -0.646112 -0.277305 0.436544 -0.85588 -0.592777 -0.591754 -0.546299 
0.454416 0.134478 -0.88058 -0.847352 -0.421932 -0.32244 0.177443 0.049914 -0.982865 
-0.995643 -0.0332173 -0.0871271 -0.726262 0.421652 -0.542912 -0.898109 0.320564 -0.301063 
-0.74887 0.522636 -0.407487 -0.279453 0.657922 -0.699318 0.216335 0.461837 -0.860178 
-0.0179582 -0.379642 -0.924959 -0.808023 -0.446568 -0.384285 -0.404145 0.504619 -0.762907 
-0.535364 0.0866862 -0.840161 -0.573819 0.594727 -0.563056 -0.656833 -0.158064 -0.737283 
-0.506916 -0.124639 -0.852937 -0.450855 -0.0811228 -0.888903 -0.55684 0.285915 -0.77986 
-0.397252 -0.216289 -0.891857 0.382709 -0.0211702 -0.923626 -0.799395 0.114652 -0.589765 
-0.145894 0.0482559 -0.988123 -0.812398 -0.0798005 -0.577617 -0.931132 0.101513 -0.350268 
-0.331063 0.469052 -0.818772 -0.181156 0.416148 -0.891068 -0.196059 0.330778 -0.923118 
0.000391633 0.487326 -0.87322 0.157742 0.296303 -0.941978 -0.527001 0.568419 -0.631799 
-0.406608 0.62505 -0.66632 -0.285361 0.654296 -0.700332 0.0672561 0.662074 -0.746415 
-0.991616 -0.0249262 -0.126793 -0.49372 -0.454497 -0.7414 -0.712679 -0.421835 -0.560485 
-0.635245 -0.523165 -0.568122 -0.820061 -0.553073 -0.147001 -0.923096 -0.26046 -0.282939 
-0.0846906 0.408997 -0.908597 0.565395 -0.154936 -0.810138 -0.535894 -0.343208 -0.771379 
-0.330637 -0.137834 -0.933638 -0.714027 -0.295971 -0.634481 -0.841862 -0.437592 -0.315882 
-0.741499 -0.503512 -0.443458 -0.863782 0.05058 -0.50132 -0.802549 -0.3379 -0.49167 
-0.0516034 -0.143455 -0.988311 -0.0566645 0.133541 -0.989422 -0.789152 0.435711 -0.432892 
0.337826 0.388648 -0.85722 -0.274534 0.806027 -0.524359 0.0951543 0.438518 -0.893671 
-0.119316 0.87717 -0.465119 0.165939 0.779465 -0.604069 0.498318 0.195519 -0.84466 
0.374381 0.85891 -0.349446 -0.765969 0.423028 -0.484086 -0.603727 0.552164 -0.575003 
0.115318 -0.245778 -0.962442 -0.794528 -0.374533 -0.477965 -0.778578 -0.511794 -0.363157 
-0.900902 -0.432673 -0.0342106 0.134703 -0.325504 -0.935897 -0.510566 0.592185 -0.62341 
-0.730792 -0.346769 -0.587958 0.0230711 0.061327 -0.997851 0.00867021 0.23037 -0.973064 
-0.772642 -0.302706 -0.558026 -0.824866 -0.336299 -0.454421 0.539082 0.0998495 -0.836314 
0.204076 0.146877 -0.967874 -0.977981 -0.0930399 -0.186807 -0.75858 0.538893 -0.366266 
-0.598778 0.690809 -0.405274 -0.0130624 0.873531 -0.486593 0.235397 0.476238 -0.847223 
0.641863 0.323199 -0.695381 0.118054 0.89442 -0.431366 -0.948406 -0.15172 -0.278401 
-0.845876 0.130737 -0.517109 -0.339456 -0.257582 -0.904666 -0.355445 -0.39435 -0.847435 
-0.197156 -0.306512 -0.931225 -0.831563 -0.467503 -0.299907 -0.407686 0.607714 -0.681525 
-0.421042 0.680924 -0.599221 -0.976742 -0.177217 -0.1207 -0.862197 -0.437768 -0.254903 
-0.935038 0.305381 -0.180128 0.241352 0.156351 -0.95776 -0.261577 0.768169 -0.584375 
-0.189778 0.833167 -0.519439 -0.377526 -0.38107 -0.843955 -0.324485 -0.22151 -0.919589 
-0.200174 -0.268233 -0.942327 0.0376633 -0.0927458 -0.994977 -0.605388 -0.442597 -0.661524 
0.191061 -0.159646 -0.968509 -0.0451644 -0.256829 -0.965401 0.567741 -0.112349 -0.815505 
-0.946034 -0.267269 -0.183267 0.737624 -0.114827 -0.665376 -0.938001 -0.226879 -0.262067 
0.440225 0.390356 -0.808594 0.452108 0.311435 -0.835827 -0.949967 0.260386 -0.172518 
-0.59533 0.706963 -0.38182 -0.950065 -0.200309 -0.239276 -0.221602 0.889928 -0.398648 
-0.0710034 0.880019 -0.469602 0.30336 0.674804 -0.672764 -0.0848908 0.642964 -0.761177 
0.398851 0.808824 -0.432113 -0.148153 0.490978 -0.858482 -0.752325 0.634113 -0.178626 
0.359761 0.905839 -0.223668 -0.554443 -0.370222 -0.745339 0.579953 -0.0457886 -0.813362 
-0.299599 0.478184 -0.825579 -0.591391 0.650222 -0.476937 -0.308645 -0.207784 -0.928205 
-0.701289 0.0642024 -0.70998 0.517228 0.254448 -0.817148 -0.581104 -0.316583 -0.749728 
-0.376162 -0.504783 -0.776979 -0.522134 -0.356835 -0.774626 -0.60023 -0.171368 -0.781253 
-0.372318 -0.0632794 -0.925945 -0.50512 -0.465316 -0.726866 0.163116 -0.411327 -0.896774 
-0.0861178 -0.235908 -0.967952 -0.709697 -0.321218 -0.627016 -0.676641 -0.328367 -0.659038 
0.211709 -0.224948 -0.951093 0.277625 -0.285844 -0.917179 0.694537 0.0154618 -0.719291 
-0.884328 -0.298093 -0.359313 -0.144046 0.55948 -0.816231 -0.844655 0.106397 -0.524631 
-0.891543 0.0389309 -0.45126 -0.969869 -0.0385674 -0.240557 -0.969631 0.0971305 -0.224459 
0.0326526 0.554731 -0.831389 -0.0597245 0.775918 -0.628 0.190418 0.7742 -0.603619 
-0.825004 0.157887 -0.542624 -0.224834 0.951649 -0.209317 -0.0056714 -0.254465 -0.967065 
0.568776 0.561584 -0.60093 -0.604506 0.67152 -0.428525 -0.837684 -0.324909 -0.438999 
-0.262805 0.860448 -0.436536 -0.0543881 0.644056 -0.763042 -0.574444 -0.288908 -0.765863 
-0.497509 0.653701 -0.570229 -0.0970529 -0.50262 -0.859043 -0.334961 -0.530933 -0.778403 
-0.158753 -0.340897 -0.9266 -0.553272 -0.490361 -0.673377 -0.227273 -0.323587 -0.918498 
0.042194 -0.282295 -0.958399 -0.713994 -0.386615 -0.583731 -0.180189 -0.0313793 -0.983131 
0.128347 0.047376 -0.990597 -0.840962 -0.284195 -0.460453 0.377676 -0.16997 -0.910204 
-0.890444 -0.414056 -0.188859 0.581273 -0.0327266 -0.813051 -0.499704 0.381317 -0.777749 
-0.0754659 0.334308 -0.939437 -0.232373 0.342554 -0.910307 0.15807 0.347859 -0.924126 
-0.978087 -0.180191 -0.10429 0.369189 0.519465 -0.77062 -0.830017 -0.0271113 -0.557079 
-0.954372 0.173315 -0.24318 -0.838759 0.432751 -0.330468 0.439093 0.456607 -0.773762 
0.171632 0.60595 -0.776767 -0.820778 -0.23335 -0.521412 -0.188784 0.885846 -0.423837 
0.0225832 0.773668 -0.633188 -0.412708 0.0564591 -0.909112 -0.501253 0.639738 -0.58265 
0.0433226 0.344295 -0.937861 -0.0419275 0.781041 -0.62307 -0.617921 0.0480108 -0.784773 
-0.537319 0.549047 -0.640185 -0.351276 -0.232767 -0.906876 -0.159469 0.204027 -0.96589 
-0.386908 0.623778 -0.679119 0.434771 0.437827 -0.786944 0.205809 0.691967 -0.691971 
-0.400586 -0.62776 -0.667419 -0.179734 -0.717558 -0.672909 0.160664 -0.563089 -0.810628 
-0.540044 -0.635871 -0.551381 -0.681064 -0.413313 -0.604421 0.48091 -0.331923 -0.811513 
-0.783136 -0.371102 -0.49898 0.268239 -0.18277 -0.945856 -0.833362 -0.410265 -0.370393 
0.370527 0.0151809 -0.928698 0.343356 -0.0395053 -0.938374 -0.44371 0.28461 -0.849775 
-0.783221 0.115924 -0.610841 -0.441726 0.822051 -0.359318 0.0428757 0.640036 -0.767148 
-0.362984 0.497131 -0.788101 -0.695808 -0.422838 -0.580568 -0.442686 0.0870241 -0.892443 
-0.321285 -0.087198 -0.942959 0.532352 0.426217 -0.731396 -0.669904 -0.569462 -0.476384 
0.67196 -0.04895 -0.738968 -0.984678 -0.0408666 -0.169528 -0.496982 0.835094 -0.235855 
-0.58273 -0.217469 -0.783028 -0.815057 0.556648 -0.160698 -0.242084 0.901803 -0.357975 
-0.27568 0.342531 -0.89815 -0.378357 0.578004 -0.723019 -0.461682 0.652313 -0.601114 
-0.0382076 0.835978 -0.547431 -0.385015 -0.809957 -0.442417 -0.119547 -0.844721 -0.521685 
0.0489071 -0.801543 -0.595933 0.350351 -0.65834 -0.666214 0.500719 -0.60083 -0.623124 
-0.65856 -0.679019 -0.324394 0.712525 -0.240087 -0.659292 0.571854 0.0490393 -0.818888 
-0.887034 -0.365562 -0.28202 0.538778 -0.124463 -0.833203 -0.873229 -0.365524 -0.322279 
0.672584 -0.0741119 -0.7363 0.557717 -0.0729679 -0.826818 -0.454626 0.060172 -0.888648 
-0.262769 -0.0580625 -0.96311 -0.274897 -0.151115 -0.949524 -0.322488 0.759085 -0.5655 
0.604789 0.483017 -0.633187 -0.382661 -0.859232 -0.339545 -0.0855952 -0.930149 -0.357067 
0.125447 -0.851632 -0.508907 0.229345 -0.906224 -0.355188 0.406052 -0.81049 -0.422171 
0.81853 -0.418438 -0.393597 0.693557 -0.0757746 -0.716405 -0.955115 -0.293037 -0.0434228 
-0.869229 0.453144 -0.197741 0.755554 0.067421 -0.651608 0.193721 0.86541 -0.462102 
-0.516168 -0.837933 -0.17731 -0.261775 -0.93741 -0.229645 0.219155 -0.941947 -0.254378 
0.531292 -0.841993 -0.0936821 -0.800468 -0.575522 -0.167406 0.768404 -0.447453 -0.457539 
-0.913699 -0.361673 -0.185329 -0.245225 -0.9668 -0.0718485 0.0146427 -0.993514 -0.11276 
0.719994 -0.680881 -0.134198 0.856658 -0.383514 -0.345042 -0.906546 0.388995 -0.163885 
-0.427183 0.845849 -0.319458 0.31381 0.767403 -0.559121 -0.305291 -0.952164 -0.0134503 
0.920127 -0.160649 -0.357152 0.833533 0.0571655 -0.549504 -0.768181 0.587597 -0.254221 
0.489841 0.729666 -0.47712 -0.0426689 -0.998755 -0.0258563 0.89691 -0.0386907 -0.440518 
-0.994793 -0.0329624 -0.0964417 -0.628469 0.752977 -0.195071 -0.00127903 0.881756 -0.471704 
0.100506 0.898666 -0.426963 0.494652 0.744767 -0.447931 0.919646 -0.348465 -0.181173 
0.95741 -0.258109 -0.129403 -0.926383 -0.376476 -0.00892614 -0.992214 0.0643942 -0.106604 
-0.92315 0.353671 -0.150705 -0.0813339 -0.99654 0.0171235 0.339451 -0.939754 0.0404446 
0.866121 0.3478 -0.358985 -0.547125 -0.836761 -0.0220517 -0.00231791 -0.984193 0.177085 
0.469341 -0.865369 0.175654 0.946882 -0.140923 -0.289059 0.938684 0.0203602 -0.344177 
0.969352 0.178471 -0.168833 -0.38716 0.913047 -0.128268 0.733205 0.610452 -0.299598 
-0.0575049 0.951738 -0.301475 0.391146 -0.903057 0.177465 0.98597 -0.160968 0.0441807 
0.849427 -0.524065 -0.0618804 -0.975138 0.215794 -0.0503941 -0.839674 0.540664 -0.0512902 
-0.764564 0.623563 -0.163129 0.0553415 -0.977218 0.204897 -0.370738 0.897694 -0.238114 
-0.228221 0.95261 -0.201122 -0.371234 -0.919563 0.128797 -0.290826 -0.938627 0.185472 
0.909433 -0.393805 0.133602 0.981542 0.145083 -0.124605 0.971049 -0.207124 -0.119009 
0.996356 -0.0644042 -0.055924 0.961949 0.040585 -0.270198 0.30802 0.932371 -0.18923 
0.622012 -0.779258 0.0765403 0.870386 -0.462928 0.167709 -0.936141 -0.343995 0.0728535 
-0.576334 0.817205 -0.00386259 -0.481858 0.873929 0.0637172 0.783129 0.619022 -0.0593449 
-0.785117 0.619109 0.0172078 -0.763708 0.639066 0.0913452 0.23647 0.96902 0.0712895 
-0.813855 -0.579475 0.042995 -0.979645 0.186107 0.0752354 0.517839 0.855273 -0.0187006 
0.605535 0.795802 0.00514888 -0.922357 -0.383117 0.0497932 -0.720542 -0.689051 0.0776437 
-0.947868 0.2921 0.127371 -0.996893 0.067332 0.0408721 -0.130933 0.987795 0.0843698 
0.697568 0.706912 0.116937 0.271358 0.952171 0.140485 -0.664229 -0.735789 0.131961 
0.615808 -0.729368 0.297999 -0.6387 0.753595 0.155425 0.378718 0.905587 0.191009 
0.451437 -0.854134 0.258186 -0.893665 -0.344201 0.287904 -0.991219 0.0765509 0.107815 
0.942059 0.297328 0.155306 0.215816 0.95707 0.193493 -0.957902 -0.158156 0.239606 
-0.367402 -0.901068 0.230418 -0.819079 -0.475868 0.320406 -0.865322 0.489794 0.106396 
-0.953393 -0.068875 0.293767 0.990941 -0.107184 0.0809219 -0.836081 -0.48529 0.255857 