# vtk DataFile Version 4.2
vtk output
ASCII
DATASET POLYDATA
POINTS 1930 float
378.088 184.317 151.287 377.979 184.311 151.376 378.183 184.307 151.299 
378.137 184.459 151.288 378.75 185.097 151.12 379.454 185.065 151.102 
378.609 185.822 151.175 379.734 185.339 151.102 380.673 185.423 151.354 
378.868 186.019 151.141 380.192 187.07 151.35 376.216 183.11 152.409 
376.156 182.957 152.506 376.022 183.19 152.566 376.388 183.077 152.351 
378.115 183.953 151.515 377.462 183.737 151.777 380.428 183.257 151.896 
377.551 184.198 151.638 378.526 184.622 151.249 377.946 184.761 151.402 
379.814 184.942 151.188 381.448 185.078 151.798 378.81 186.651 151.334 
381.82 186.114 151.901 381.854 187.101 151.991 379.993 187.988 151.605 
379.659 188.237 151.769 381.373 187.889 151.882 381.222 188.496 151.988 
379.584 182.178 152.664 376.872 182.701 152.415 380.544 183.063 152.061 
376.89 183.328 152.147 381.599 184.16 152.165 381.999 185.794 152.07 
377.583 186.159 151.795 380.171 189.958 152.392 381.93 189.378 152.526 
381.151 190.088 152.452 375.669 181.654 153.519 377.353 181.926 152.885 
377.631 188 152.531 383.133 188.448 153.204 379.823 190.626 152.681 
380.308 191.336 152.827 381.139 191.937 152.974 381.94 191.53 153.093 
381.529 192.791 153.286 379.412 180.88 154.24 376.538 180.919 154.043 
381.04 182.477 152.96 374.413 183.138 153.983 374.773 183.546 153.645 
383.369 189.649 153.614 380.949 195.688 153.719 382.001 195.741 153.994 
380.402 196.943 153.907 380.665 195.778 153.715 381.976 198.259 154.363 
375.93 180.071 155.409 383.526 185.332 153.926 378.66 191.848 153.476 
379.167 195.986 153.941 383.165 195.264 154.559 382.613 197.629 154.573 
379.218 199.483 154.152 370.483 200.49 154.972 379.173 201.584 154.266 
380.755 201.361 154.458 381.832 202.832 155.092 380.141 205.137 154.645 
371.62 207.262 154.966 376.38 206.035 154.146 375.913 209.823 154.414 
378.836 211.024 154.781 373.274 182.715 155.22 384.671 187.825 155.128 
377.042 192.223 154.358 376.689 192.897 154.602 377.73 193.634 154.192 
377.293 195.288 154.438 372.934 199.314 154.85 370.835 204.676 154.97 
381.443 205.576 155.189 382.037 206.188 155.576 380.746 209.924 155.218 
372.738 211.577 155.416 381.772 211.959 155.935 378.044 214.611 155.382 
375.561 216.015 156.094 381.475 214.635 156.256 377.807 216.922 156.261 
374.368 180.064 156.181 375.571 190.328 154.889 368.578 194.624 156.934 
375.98 196.221 154.807 384.548 195.564 156.047 383.714 201.162 156.185 
368.203 204.205 155.911 371.777 213.231 156.326 373.256 215.324 156.52 
382.363 215.554 157.002 381.298 217.093 157.07 379.154 218.567 157.418 
380.795 179.831 156.936 371.663 180.592 157.838 372.195 180.979 157.105 
383.436 181.807 156.821 383.857 182.416 156.739 372.461 187.482 156.728 
364.693 194.548 158.379 364.473 195.461 158.076 366.61 197.138 156.766 
375.263 197.304 154.87 384.074 201.74 156.696 368.608 210.78 157.31 
373.915 218.427 157.957 375.141 219.155 158.142 376.595 219.555 158.234 
376.039 178.284 158.936 370.675 180.34 158.914 373.789 179.122 157.968 
371.523 179.726 158.699 382.86 180.85 157.398 370.328 181.234 158.73 
371.272 186.642 157.645 363.315 194.083 159.331 363.058 199.509 158.224 
379.445 219.654 158.452 382.559 218.711 158.917 369.866 180.099 159.912 
372.404 178.833 159.221 369.811 182.506 159.123 370.166 189.123 158.318 
370.059 190.471 158.031 362.021 197.01 159.049 385.054 212.89 158.901 
384.399 217 159.28 370.738 178.491 161.095 372.485 178.554 159.696 
385.893 182.738 159.909 385.938 183.82 159.136 369.784 185.808 159.102 
367.894 189.759 159.748 365.913 192.096 159.379 365.6 191.553 160.005 
370.218 219.056 160.09 380.841 220.601 159.877 386.933 184.585 160.406 
368.035 185.748 161.299 387.838 188.156 161 359.638 194.815 161.588 
359.188 200.489 161.153 385.444 218.31 160.982 384.482 220.353 161.728 
376.329 176.96 162.712 367.837 181.181 162.222 361.543 191.907 162.439 
357.372 197.999 162.617 387.251 203.033 161.499 361.046 207.918 161.821 
365.45 216.934 162.33 376.585 223.29 161.388 370.647 223.801 162.762 
373.7 223.445 161.604 375.84 224.949 162.506 368.529 178.539 163.2 
367.776 179.459 163.302 357.637 194.529 163.401 387.866 218.24 163.829 
386.487 220.258 163.455 369.064 177.777 163.749 367.374 178.991 164.395 
366.744 180.341 164.487 389.416 188.594 163.326 389.315 193.962 163.478 
388.88 202.671 163.76 388.886 213.145 163.889 365.801 219.427 163.415 
386.209 221.475 164.564 372.695 176.199 165.568 367.607 178.272 164.875 
388.79 181.389 164.939 389.553 211.611 164.826 389.493 215.973 165.827 
388.831 218.018 165.662 383.803 222.723 163.488 381.135 224.803 163.681 
368.858 225.658 164.952 370.767 228.07 165.504 375.75 228.821 164.763 
386.995 178.874 165.56 390.435 185.811 164.927 365.886 185.484 164.863 
364.044 188.137 165.17 357.705 191.761 165.787 353.908 201.333 166.381 
390.374 213.024 166.675 389.499 216.939 166.658 370.96 230.046 166.647 
379.438 230.973 166.243 380.794 231.198 166.851 369.718 176.381 166.79 
366.602 178.22 166.615 366.636 177.977 166.878 364.149 187.537 165.674 
363.124 188.631 165.47 356.846 191.437 166.798 353.567 195.094 167.343 
353.551 196.952 166.778 355.98 207.182 166.191 359.784 215.496 166.692 
365.85 224.463 166.572 383.81 228.17 167.611 372.205 231.02 166.699 
383.038 230.103 167.97 382.258 230.756 167.56 382.471 175.965 168.207 
367.668 177.034 167.338 389.103 178.699 167.898 364.396 180.556 167.938 
364.687 183.323 166.768 353.364 193.733 168.349 351.695 201.353 169.175 
391.537 209.884 168.242 389.539 218.026 168.478 363.74 224.03 168.441 
382.085 231.433 167.882 376.056 234.634 167.624 380.942 233.328 168.167 
381.298 235.121 169.614 374.573 237.325 169.272 378.418 236.629 168.755 
379.674 236.863 169.385 380.073 236.626 169.458 375.729 238.763 169.933 
377.415 238.014 169.464 378.144 238.503 170.11 391.752 178.897 169.968 
364.156 180.099 168.517 394.146 181.487 169.825 363.528 184.065 167.836 
351.555 196.491 169.501 361.027 220.601 168.898 383.782 231.052 169.911 
372.177 235.622 169.385 375.904 239.658 170.737 379.115 238.317 170.506 
385.23 176.073 169.69 364.869 177.317 170.512 394.187 198.166 169.612 
391.537 212.737 170.596 366.192 228.412 169.182 374.92 239.811 171.118 
376.559 240.533 171.873 371.259 174.506 171.651 367.628 175.577 170.843 
389.468 176.943 171.001 394.15 180.043 170.829 397.257 183.721 171.561 
354.366 189.195 170.968 396.624 190.823 170.831 394.757 199.749 170.989 
350.236 200.614 171.289 393.409 206.578 171.667 353.07 209.366 171.329 
390.86 215.067 171.546 381.979 235.679 171.407 381.084 237.226 171.98 
377.789 240.383 172.385 378.143 174.432 172.101 398.268 188.621 172.52 
352.386 190.803 171.962 351.478 192.097 172.186 397.967 192.584 173.304 
396.289 197.07 172.327 394.697 202.869 172.873 351.552 206.665 172.147 
361.27 224.294 172.404 365.901 230.913 171.914 371.211 238.616 172.717 
398.501 185.817 172.565 349.588 195.006 173.298 383.506 233.397 173.511 
372.906 240.618 173.514 376.585 241.889 174.681 377.124 241.591 174.374 
366.852 174.783 174.102 362.412 177.392 173.843 392.894 176.864 174.037 
359.39 180.506 173.849 398.977 181.776 173.901 399.934 181.416 174.981 
400.249 181.942 175.155 399.952 183.684 174.6 354.115 214.48 173.575 
358.159 221.435 174.523 368.979 237.104 174.174 379.593 239.673 174.144 
374.382 242.093 174.88 396.896 178.756 174.51 400.251 180.46 175.945 
400.636 180.773 176.169 400.816 181.923 176.07 399.573 189.615 175.69 
348.376 195.478 175.673 398.101 194.761 175.714 347.964 200.315 175.669 
393.691 207.171 174.83 355.875 218.572 174.875 362.209 226.714 174.802 
378.788 240.887 175.772 376.437 242.662 176.494 401.105 180.81 176.894 
400.99 180.599 176.811 349.445 191.772 176.676 347.409 197.862 176.959 
361.466 225.877 176.221 365.694 232.518 175.839 377.406 242.365 177.14 
375.974 243.187 177.406 376.16 243.277 177.885 374.774 173.307 176.975 
400.703 180.108 176.833 354.786 183.538 177.275 351.254 188.484 176.947 
393.982 206.535 177.514 380.991 238.258 177.694 370.046 240.314 177.748 
371.33 241.653 177.533 374.799 243.498 178.077 375.796 243.514 178.433 
371.662 173.258 178.03 380.293 173.368 178.67 365.443 174.458 178.001 
385.023 173.842 178.874 391.364 175.009 178.552 401.577 182.706 178.472 
396.225 200.51 178.47 347.622 203.403 178.087 388.275 221.663 178.356 
358.691 222.794 177.46 361.011 225.296 177.356 377.647 242.611 178.845 
373.013 243.193 178.649 397.838 177.277 178.435 356.742 180.384 179.487 
399.458 191.266 179.205 347.868 193.14 179.418 362.375 226.303 179.715 
364.832 230.733 178.191 366.115 232.976 178.859 369.234 239.405 178.941 
362.274 175.741 179.549 400.325 178.72 179.158 400.919 179.428 178.759 
401.583 180.483 180.044 345.668 198.787 181.336 351.449 214.145 180.491 
367.691 236.365 179.486 376.753 243.555 180.562 370.418 173.097 181.42 
401.749 183.727 181.309 369.016 238.973 180.536 372.726 243.566 181.734 
373.746 244.101 181.437 375.077 244.474 182.134 359.336 177.332 181.771 
398.037 176.743 181.656 401.914 181.813 181.658 401.871 181.181 182.117 
353.079 217.381 182.208 357.625 221.42 181.896 370.489 241.237 181.526 
374.158 244.328 182.846 375.471 244.519 182.881 368.006 173.384 183.232 
391.32 174.636 182.595 395.959 175.829 182.65 399.334 177.42 182.221 
401.467 179.831 182.559 349.241 188.826 182.431 347.343 207.305 183.337 
363.181 225.453 183.132 366.938 230.263 183.466 372.101 243.071 182.406 
375.088 244.569 183.344 375.923 244.478 183.543 375.705 244.582 183.99 
378.376 173.117 184.255 401.929 182.344 183.617 345.516 195.777 183.945 
345.392 203.368 184.301 359.65 222.358 183.885 367.016 229.435 184.266 
371.104 241.567 183.596 372.637 243.264 183.946 374.074 244.19 184.315 
376.368 244.324 184.04 374.467 244.388 184.197 372.632 173.099 185.462 
363.375 174.562 185.552 400.311 178.248 184.24 352.487 217.121 185.822 
[...]
POINT_DATA 1930
SCALARS scalars float
LOOKUP_TABLE default
1 1 1 1 1 1 1 1 1 
1 1 1 1 1 1 1 1 1 
1 1 1 1 1 1 1 1 1 
1 1 1 1 1 1 1 1 1 
1 1 1 1 1 1 1 1 1 
1 1 1 1 1 1 1 1 1 
1 1 1 1 1 1 1 1 1 
1 1 1 1 1 1 1 1 1 
1 1 1 1 1 1 1 1 1 
1 1 1 1 1 1 1 1 1 
1 1 1 1 1 1 1 1 1 
1 1 1 1 1 1 1 1 1 
1 1 1 1 1 1 1 1 1 
1 1 1 1 1 1 1 1 1 
1 1 1 1 1 1 1 1 1 
1 1 1 1 1 1 1 1 1 
1 1 1 1 1 1 1 1 1 
1 1 1 1 1 1 1 1 1 
1 1 1 1 1 1 1 1 1 
1 1 1 1 1 1 1 1 1 
1 1 1 1 1 1 1 1 1 
1 1 1 1 1 1 1 1 1 
1 1 1 1 1 1 1 1 1 
1 1 1 1 1 1 1 1 1 
1 1 1 1 1 1 1 1 1 
1 1 1 1 1 1 1 1 1 
1 1 1 1 1 1 1 1 1 
1 1 1 1 1 1 1 1 1 
1 1 1 1 1 1 1 1 1 
1 1 1 1 1 1 1 1 1 
1 1 1 1 1 1 1 1 1 
1 1 1 1 1 1 1 1 1 
1 1 1 1 1 1 1 1 1 
1 1 1 1 1 1 1 1 1 
1 1 1 1 1 1 1 1 1 
1 1 1 1 1 1 1 1 1 
1 1 1 1 1 1 1 1 1 
1 1 1 1 1 1 1 1 1 
1 1 1 1 1 1 1 1 1 
1 1 1 1 1 1 1 1 1 
1 1 1 1 1 1 1 1 1 
1 1 1 1 1 1 1 1 1 
1 1 1 1 1 1 1 1 1 
1 1 1 1 1 1 1 1 1 
1 1 1 1 1 1 1 1 1 
1 1 1 1 1 1 1 1 1 
1 1 1 1 1 1 1 1 1 
1 1 1 1 1 1 1 1 1 
1 1 1 1 1 1 1 1 1 
1 1 1 1 1 1 1 1 1 
1 1 1 1 1 1 1 1 1 
1 1 1 1 1 1 1 1 1 
1 1 1 1 1 1 1 1 1 
1 1 1 1 1 1 1 1 1 
1 1 1 1 1 1 1 1 1 
1 1 1 1 1 1 1 1 1 
1 1 1 1 1 1 1 1 1 
1 1 1 1 1 1 1 1 1 
1 1 1 1 1 1 1 1 1 
1 1 1 1 1 1 1 1 1 
1 1 1 1 1 1 1 1 1 
1 1 1 1 1 1 1 1 1 
1 1 1 1 1 1 1 1 1 
1 1 1 1 1 1 1 1 1 
1 1 1 1 1 1 1 1 1 
1 1 1 1 1 1 1 1 1 
1 1 1 1 1 1 1 1 1 
1 1 1 1 1 1 1 1 1 
1 1 1 1 1 1 1 1 1 
1 1 1 1 1 1 1 1 1 
1 1 1 1 1 1 1 1 1 
1 1 1 1 1 1 1 1 1 
1 1 1 1 1 1 1 1 1 
1 1 1 1 1 1 1 1 1 
1 1 1 1 1 1 1 1 1 
1 1 1 1 1 1 1 1 1 
1 1 1 1 1 1 1 1 1 
1 1 1 1 1 1 1 1 1 
1 1 1 1 1 1 1 1 1 
1 1 1 1 1 1 1 1 1 
1 1 1 1 1 1 1 1 1 
1 1 1 1 1 1 1 1 1 
1 1 1 1 1 1 1 1 1 
1 1 1 1 1 1 1 1 1 
1 1 1 1 1 1 1 1 1 
1 1 1 1 1 1 1 1 1 
1 1 1 1 1 1 1 1 1 
1 1 1 1 1 1 1 1 1 
1 1 1 1 1 1 1 1 1 
1 1 1 1 1 1 1 1 1 
1 1 1 1 1 1 1 1 1 
1 1 1 1 1 1 1 1 1 
1 1 1 1 1 1 1 1 1 
1 1 1 1 1 1 1 1 1 
1 1 1 1 1 1 1 1 1 
1 1 1 1 1 1 1 1 1 
1 1 1 1 1 1 1 1 1 
1 1 1 1 1 1 1 1 1 
1 1 1 1 1 1 1 1 1 
1 1 1 1 1 1 1 1 1 
1 1 1 1 1 1 1 1 1 
1 1 1 1 1 1 1 1 1 
1 1 1 1 1 1 1 1 1 
1 1 1 1 1 1 1 1 1 
1 1 1 1 1 1 1 1 1 
1 1 1 1 1 1 1 1 1 
1 1 1 1 1 1 1 1 1 
1 1 1 1 1 1 1 1 1 
1 1 1 1 1 1 1 1 1 
1 1 1 1 1 1 1 1 1 
1 1 1 1 1 1 1 1 1 
1 1 1 1 1 1 1 1 1 
1 1 1 1 1 1 1 1 1 
1 1 1 1 1 1 1 1 1 
1 1 1 1 1 1 1 1 1 
1 1 1 1 1 1 1 1 1 
1 1 1 1 1 1 1 1 1 
1 1 1 1 1 1 1 1 1 
1 1 1 1 1 1 1 1 1 
1 1 1 1 1 1 1 1 1 
1 1 1 1 1 1 1 1 1 
1 1 1 1 1 1 1 1 1 
1 1 1 1 1 1 1 1 1 
1 1 1 1 1 1 1 1 1 
1 1 1 1 1 1 1 1 1 
1 1 1 1 1 1 1 1 1 
1 1 1 1 1 1 1 1 1 
1 1 1 1 1 1 1 1 1 
1 1 1 1 1 1 1 1 1 
1 1 1 1 1 1 1 1 1 
1 1 1 1 1 1 1 1 1 
1 1 1 1 1 1 1 1 1 
1 1 1 1 1 1 1 1 1 
1 1 1 1 1 1 1 1 1 
1 1 1 1 1 1 1 1 1 
1 1 1 1 1 1 1 1 1 
1 1 1 1 1 1 1 1 1 
1 1 1 1 1 1 1 1 1 
1 1 1 1 1 1 1 1 1 
1 1 1 1 1 1 1 1 1 
1 1 1 1 1 1 1 1 1 
1 1 1 1 1 1 1 1 1 
1 1 1 1 1 1 1 1 1 
1 1 1 1 1 1 1 1 1 
1 1 1 1 1 1 1 1 1 
1 1 1 1 1 1 1 1 1 
1 1 1 1 1 1 1 1 1 
1 1 1 1 1 1 1 1 1 
1 1 1 1 1 1 1 1 1 
1 1 1 1 1 1 1 1 1 
1 1 1 1 1 1 1 1 1 
1 1 1 1 1 1 1 1 1 
1 1 1 1 1 1 1 1 1 
1 1 1 1 1 1 1 1 1 
1 1 1 1 1 1 1 1 1 
1 1 1 1 1 1 1 1 1 
1 1 1 1 1 1 1 1 1 
1 1 1 1 1 1 1 1 1 
1 1 1 1 1 1 1 1 1 
1 1 1 1 1 1 1 1 1 
1 1 1 1 1 1 1 1 1 
1 1 1 1 1 1 1 1 1 
1 1 1 1 1 1 1 1 1 
1 1 1 1 1 1 1 1 1 
1 1 1 1 1 1 1 1 1 
1 1 1 1 1 1 1 1 1 
1 1 1 1 1 1 1 1 1 
1 1 1 1 1 1 1 1 1 
1 1 1 1 1 1 1 1 1 
1 1 1 1 1 1 1 1 1 
1 1 1 1 1 1 1 1 1 
1 1 1 1 1 1 1 1 1 
1 1 1 1 1 1 1 1 1 
1 1 1 1 1 1 1 1 1 
1 1 1 1 1 1 1 1 1 
1 1 1 1 1 1 1 1 1 
1 1 1 1 1 1 1 1 1 
1 1 1 1 1 1 1 1 1 
1 1 1 1 1 1 1 1 1 
1 1 1 1 1 1 1 1 1 
1 1 1 1 1 1 1 1 1 
1 1 1 1 1 1 1 1 1 
1 1 1 1 1 1 1 1 1 
1 1 1 1 1 1 1 1 1 
1 1 1 1 1 1 1 1 1 
1 1 1 1 1 1 1 1 1 
1 1 1 1 1 1 1 1 1 
1 1 1 1 1 1 1 1 1 
1 1 1 1 1 1 1 1 1 
1 1 1 1 1 1 1 1 1 
1 1 1 1 1 1 1 1 1 
1 1 1 1 1 1 1 1 1 
1 1 1 1 1 1 1 1 1 
1 1 1 1 1 1 1 1 1 
1 1 1 1 1 1 1 1 1 
1 1 1 1 1 1 1 1 1 
1 1 1 1 1 1 1 1 1 
1 1 1 1 1 1 1 1 1 
1 1 1 1 1 1 1 1 1 
1 1 1 1 1 1 1 1 1 
1 1 1 1 1 1 1 1 1 
1 1 1 1 1 1 1 1 1 
1 1 1 1 1 1 1 1 1 
1 1 1 1 1 1 1 1 1 
1 1 1 1 1 1 1 1 1 
1 1 1 1 1 1 1 1 1 
1 1 1 1 1 1 1 1 1 
1 1 1 1 1 1 1 1 1 
1 1 1 1 1 1 1 1 1 
1 1 1 1 1 1 1 1 1 
1 1 1 1 1 1 1 1 1 
1 1 1 1 1 1 1 1 1 
1 1 1 1 1 1 1 1 1 
1 1 1 1 1 1 1 1 1 
1 1 1 1 
NORMALS Normals float
-0.280869 -0.230878 -0.931562 -0.535863 -0.14279 -0.832143 0.128998 -0.311349 -0.9415 
-0.264586 0.0736366 -0.961547 -0.122431 -0.167078 -0.978312 0.034374 -0.285874 -0.957651 
-0.274169 0.103136 -0.956135 0.0901702 0.0303225 -0.995465 0.378888 -0.126533 -0.916752 
-0.184682 0.221022 -0.957623 0.144685 0.166572 -0.975356 -0.442785 0.140794 -0.885505 
-0.311969 -0.560658 -0.767032 -0.60415 0.07449 -0.793382 -0.164572 -0.335434 -0.927577 
-0.0937532 -0.48217 -0.871047 -0.189341 -0.453953 -0.870676 0.22224 -0.413235 -0.883089 
-0.495895 -0.0684182 -0.865683 -0.014293 -0.208996 -0.977812 -0.421111 0.0487509 -0.905698 
0.0874522 -0.365864 -0.926551 0.502074 -0.178012 -0.846306 -0.19824 0.302204 -0.932402 
0.499887 0.0134291 -0.865987 0.600238 0.102767 -0.793192 0.0312803 0.332233 -0.942678 
-0.174358 0.37853 -0.909018 0.358579 0.229114 -0.904946 0.326597 0.312013 -0.892179 
0.0769196 -0.638977 -0.76537 -0.110743 -0.483577 -0.868268 0.364072 -0.574137 -0.733361 
0.0791011 -0.655858 -0.750729 0.574985 -0.340464 -0.74396 0.651237 -0.0901441 -0.753501 
-0.525265 0.215316 -0.823247 -0.047235 0.302091 -0.952108 0.384597 0.200175 -0.901119 
0.0609035 0.232914 -0.970588 -0.500994 -0.473785 -0.724246 -0.0873988 -0.608333 -0.788855 
-0.480145 0.348423 -0.805023 0.664446 0.0704338 -0.74401 -0.239164 0.376759 -0.894904 
-0.172252 0.293758 -0.940232 0.17282 0.209414 -0.962434 0.291306 0.0982526 -0.951571 
0.228354 0.231838 -0.945572 0.137647 -0.820001 -0.555565 -0.111832 -0.732977 -0.670998 
0.518345 -0.644245 -0.562376 -0.710781 -0.0331447 -0.702632 -0.691148 0.094079 -0.716564 
0.59515 0.0974531 -0.797684 0.0657539 0.104343 -0.992365 0.395981 0.298556 -0.868368 
-0.0105953 0.101934 -0.994735 0.0633409 0.101747 -0.992792 0.316841 0.13568 -0.938724 
-0.0336192 -0.809967 -0.58551 0.783979 -0.211144 -0.583777 -0.416848 0.160314 -0.894727 
-0.23174 0.038009 -0.972035 0.529633 0.259474 -0.807566 0.433353 0.135625 -0.890961 
-0.000860914 0.0708593 -0.997486 -0.223893 -0.0912497 -0.970333 0.0556428 0.0486882 -0.997263 
0.287013 0.132841 -0.948671 0.437956 0.130691 -0.889446 0.259271 0.103989 -0.96019 
-0.297415 0.123232 -0.946762 -0.0377008 0.0250657 -0.998975 -0.000105245 0.10592 -0.994375 
0.220631 0.122275 -0.967662 -0.712583 -0.081889 -0.696793 0.848573 -0.0360905 -0.527845 
-0.290012 0.247612 -0.924436 -0.318324 0.146088 -0.936658 -0.437653 0.0431962 -0.898106 
-0.379439 0.0428971 -0.924222 -0.0442633 -0.0167679 -0.998879 -0.261363 0.0694841 -0.962736 
0.451811 0.134946 -0.881848 0.463109 0.109642 -0.879494 0.307733 0.0604593 -0.94955 
-0.294525 0.244563 -0.92382 0.56074 0.00357959 -0.827984 0.0124383 0.267768 -0.963403 
-0.178638 0.407388 -0.895614 0.414803 0.205599 -0.886379 -0.0191454 0.52007 -0.853909 
-0.38022 -0.663475 -0.644386 -0.511871 0.0821354 -0.855127 -0.295835 -0.311399 -0.903057 
-0.220303 -0.0154422 -0.975309 0.732715 0.170628 -0.658798 0.652024 0.133049 -0.746433 
-0.440873 0.104321 -0.891486 -0.450203 0.337031 -0.826878 -0.379569 0.357619 -0.85325 
0.561275 0.277343 -0.779776 0.30995 0.453271 -0.835749 0.136857 0.620231 -0.772388 
0.292665 -0.815442 -0.499402 -0.602668 -0.376276 -0.70371 -0.597565 -0.386725 -0.702396 
0.52059 -0.542685 -0.65915 0.743098 -0.415447 -0.524603 -0.620309 0.0535933 -0.782524 
-0.300666 -0.471523 -0.829015 -0.2845 -0.273317 -0.918889 -0.353949 -0.205361 -0.91244 
-0.101951 0.0109918 -0.994729 0.695684 0.0776796 -0.714136 -0.497436 0.272988 -0.823429 
-0.228902 0.485305 -0.84385 -0.158797 0.556199 -0.815737 -0.0370052 0.595423 -0.802559 
0.124918 -0.895233 -0.42773 -0.570722 -0.441759 -0.692189 -0.244512 -0.853602 -0.459976 
-0.506842 -0.635988 -0.58192 0.644946 -0.635801 -0.424031 -0.667605 -0.275456 -0.691685 
-0.699555 0.0151765 -0.714417 -0.443141 -0.488755 -0.751495 -0.50441 0.0248786 -0.863106 
0.0241702 0.707603 -0.706197 0.465703 0.524557 -0.712714 -0.60532 -0.567793 -0.557852 
-0.26395 -0.844008 -0.466885 -0.753139 -0.0871014 -0.652069 -0.58205 -0.100456 -0.806924 
-0.477277 -0.23331 -0.847215 -0.553336 -0.192692 -0.810364 0.70675 -0.0344208 -0.706626 
0.652615 0.324601 -0.684637 -0.307687 -0.842314 -0.442534 -0.336956 -0.829266 -0.445847 
0.736421 -0.386294 -0.555392 0.842716 -0.238676 -0.482559 -0.752474 0.097336 -0.651389 
-0.607228 -0.348467 -0.714034 -0.340458 -0.45369 -0.823561 -0.457464 -0.658079 -0.598046 
-0.421098 0.499908 -0.756814 0.269378 0.657449 -0.703702 0.707147 -0.131333 -0.694762 
-0.797686 -0.0677997 -0.599249 0.815321 -0.109301 -0.568599 -0.576356 -0.364957 -0.731177 
-0.631229 0.10009 -0.769111 0.690833 0.385513 -0.611661 0.536547 0.563838 -0.627856 
0.0773403 -0.929524 -0.36056 -0.795365 -0.239695 -0.556723 -0.438829 -0.628555 -0.642144 
-0.672115 -0.0938519 -0.734475 0.828213 0.0393547 -0.55903 -0.606119 0.259784 -0.751752 
-0.576383 0.371046 -0.728085 0.0376934 0.570649 -0.820329 -0.345654 0.449106 -0.82391 
-0.21566 0.532968 -0.818191 -0.265753 0.486251 -0.832428 -0.682107 -0.555416 -0.475651 
-0.75084 -0.470799 -0.463235 -0.618693 -0.404181 -0.673689 0.816605 0.348785 -0.459898 
0.704145 0.518958 -0.484626 -0.508577 -0.759085 -0.406375 -0.75743 -0.494924 -0.425852 
-0.822898 -0.245032 -0.512638 0.793871 -0.0897731 -0.601423 0.762042 0.116637 -0.636936 
0.741703 0.0415039 -0.669444 0.815378 0.0177246 -0.578657 -0.529029 0.416474 -0.739376 
0.714842 0.520497 -0.466994 -0.120756 -0.935533 -0.331959 -0.728318 -0.563358 -0.390102 
0.709448 -0.364491 -0.603183 0.834515 0.0533991 -0.548392 0.943478 0.178538 -0.279236 
0.809535 0.511387 -0.288332 0.521019 0.574651 -0.631123 0.354479 0.544819 -0.759945 
-0.468395 0.546483 -0.694235 -0.36241 0.512933 -0.778177 -0.271571 0.467268 -0.841374 
0.500887 -0.726487 -0.470456 0.72168 -0.120384 -0.681679 -0.799485 -0.222003 -0.558156 
-0.633125 -0.538826 -0.555715 -0.437821 -0.645532 -0.62578 -0.742237 0.137485 -0.655883 
0.904114 0.155712 -0.397908 0.93798 0.209073 -0.276553 -0.386479 0.519906 -0.761795 
0.329804 0.419109 -0.845918 0.403888 0.341413 -0.848712 -0.309337 -0.874922 -0.372588 
-0.601101 -0.651316 -0.463103 -0.621231 -0.62843 -0.468133 -0.57865 -0.476773 -0.661704 
-0.4726 -0.605876 -0.639971 -0.547105 -0.551394 -0.629795 -0.736929 -0.319004 -0.595963 
-0.783918 -0.130915 -0.606905 -0.725399 0.309805 -0.614668 -0.674826 0.381806 -0.631533 
-0.601366 0.516805 -0.609321 0.619483 0.422998 -0.661297 -0.346458 0.482164 -0.804665 
0.640582 0.314505 -0.700529 0.615021 0.354587 -0.704285 0.20761 -0.916944 -0.340753 
-0.428025 -0.775955 -0.463345 0.477064 -0.69293 -0.540609 -0.747659 -0.417634 -0.516321 
-0.711473 -0.11039 -0.693989 -0.746734 -0.349376 -0.565972 -0.806635 0.133796 -0.575707 
0.892263 0.193424 -0.407988 0.892419 0.42644 -0.147438 -0.661537 0.520415 -0.539941 
0.494598 0.422893 -0.759298 -0.100241 0.469613 -0.877163 0.597552 0.418305 -0.684071 
0.709119 0.346811 -0.613899 -0.257483 0.534204 -0.805188 0.272883 0.441995 -0.854503 
0.373629 0.559647 -0.739727 0.556147 0.498791 -0.664762 -0.142469 0.60566 -0.782865 
0.0735453 0.567001 -0.820427 0.297452 0.691493 -0.658301 0.503205 -0.656549 -0.561897 
-0.685972 -0.407114 -0.603076 0.608463 -0.361548 -0.706439 -0.751264 -0.172926 -0.636945 
-0.813359 -0.138002 -0.565156 -0.696203 0.451652 -0.557954 0.761812 0.472694 -0.442948 
-0.526239 0.52841 -0.666225 -0.0090764 0.758751 -0.651317 0.478507 0.694284 -0.537589 
0.248138 -0.90838 -0.336561 -0.578373 -0.672583 -0.461646 0.733945 0.237706 -0.636255 
0.925809 0.326316 -0.190776 -0.573543 0.518494 -0.634202 -0.314052 0.698511 -0.643003 
0.16761 0.833886 -0.525872 -0.0896691 -0.965232 -0.245535 -0.370862 -0.870807 -0.322733 
0.37695 -0.826917 -0.417273 0.539117 -0.608002 -0.582827 0.637926 -0.216726 -0.738973 
-0.627654 -0.522231 -0.577344 0.738266 0.0576188 -0.672044 0.700302 0.346729 -0.623984 
-0.866894 0.0711368 -0.493391 0.936756 0.187186 -0.295718 -0.808526 0.348936 -0.473845 
0.927763 0.332496 -0.169417 0.784054 0.505322 -0.360428 0.783046 0.583942 -0.214128 
0.459627 0.785011 -0.415332 0.083421 -0.966175 -0.244023 0.819435 0.0881594 -0.566352 
-0.73212 -0.468127 -0.494831 -0.760938 -0.380243 -0.525727 0.900254 0.224682 -0.372908 
0.879344 0.256532 -0.40118 0.906258 0.271649 -0.323887 -0.823409 0.281503 -0.4927 
-0.775508 0.54482 -0.318997 -0.746326 0.537657 -0.39233 -0.600003 0.59358 -0.53634 
0.80441 0.0359428 -0.592987 -0.865761 -0.211619 -0.453515 0.892734 0.406945 -0.193448 
-0.536213 0.690493 -0.485485 0.238359 0.906753 -0.347828 0.431072 0.848802 -0.306125 
-0.332927 -0.912234 -0.238723 -0.572053 -0.757781 -0.313884 0.379527 -0.851353 -0.362157 
-0.673115 -0.518823 -0.52701 0.646369 -0.315198 -0.694879 0.721112 -0.267954 -0.638903 
0.828791 0.050742 -0.557252 0.816174 -0.00370262 -0.577794 -0.829374 0.331648 -0.44961 
-0.757015 0.576222 -0.308053 -0.76536 0.542415 -0.346424 0.675766 0.697452 -0.23854 
-0.207653 0.864972 -0.456841 0.526876 -0.626304 -0.574582 0.653291 -0.435769 -0.619126 
0.729602 -0.282647 -0.622729 0.831554 -0.0777279 -0.549979 0.937478 0.222242 -0.267852 
-0.895065 -0.217257 -0.389432 0.936693 0.293696 -0.190654 -0.899558 0.065853 -0.431809 
0.919728 0.390475 -0.040357 -0.785713 0.540985 -0.299984 -0.799901 0.59549 -0.074495 
0.607267 0.773493 -0.181483 0.303087 0.873172 -0.381718 0.933057 -0.268583 -0.239306 
0.81832 -0.380394 -0.430875 -0.835447 -0.424743 -0.348744 -0.918865 -0.137114 -0.369982 
-0.742223 0.669609 -0.0269984 -0.870962 0.491322 0.00520801 0.576829 0.796654 -0.180582 
0.236102 0.907246 -0.348082 0.330739 0.919305 -0.213286 0.0153641 -0.993681 -0.111186 
0.700473 -0.63717 -0.321484 -0.738995 -0.592722 -0.320262 -0.766127 -0.532485 -0.359873 
0.904895 0.425528 -0.00949822 0.842995 0.537614 -0.0181734 -0.752122 0.635546 -0.17434 
-0.609621 0.743268 -0.275527 -0.0210002 0.941359 -0.336751 0.285216 0.938995 -0.192199 
-0.0878623 -0.989518 -0.114605 0.0834584 -0.99098 -0.10485 -0.284845 -0.950562 -0.123675 
0.125456 -0.987097 -0.0994983 0.256947 -0.944206 -0.206042 0.95324 0.142618 -0.266447 
0.939432 0.337456 -0.0599339 -0.872927 0.326299 -0.362666 0.926139 0.376777 0.0174627 
-0.728579 0.684299 -0.0301077 -0.755618 0.632357 0.170781 0.639608 0.756896 -0.134199 
-0.518214 0.826082 -0.221456 0.45541 -0.838596 -0.298928 -0.693375 -0.677376 -0.245751 
0.949287 0.313456 -0.0244664 -0.897699 -0.340839 -0.279222 -0.645981 0.686221 0.334379 
-0.79272 0.565161 0.228447 -0.951212 0.239701 0.194268 -0.839987 0.539077 -0.0617951 
-0.460734 -0.873392 -0.157829 0.653729 -0.73964 -0.159911 0.810031 -0.565908 -0.153617 
0.898081 -0.428992 -0.097034 -0.950643 -0.0320361 -0.30863 -0.884845 0.403063 -0.233644 
-0.889964 0.455537 0.0212229 0.566538 0.81669 -0.109781 -0.178478 -0.983779 0.0180177 
0.986525 0.16251 0.018961 -0.848884 0.499428 0.173112 -0.544446 0.838796 0.000376905 
-0.32091 0.944681 -0.0677852 0.148509 0.970767 -0.188567 -0.564586 -0.806037 -0.177615 
0.407318 -0.908254 -0.0957382 0.99041 -0.105957 -0.0886674 0.991703 -0.125438 -0.0281212 
-0.743876 0.662836 -0.0854263 -0.568844 0.817979 0.0856012 -0.837934 0.533828 0.113551 
-0.323963 0.945773 -0.0236993 0.256938 0.939079 -0.228283 -0.208912 -0.977879 -0.0104364 
0.19827 -0.97998 0.0181199 0.349477 -0.936934 -0.00454353 0.642784 -0.765598 -0.0262454 
0.9148 -0.39738 -0.0723157 -0.828485 -0.508146 -0.235374 -0.844623 0.431497 -0.316894 
-0.590643 0.753306 0.28926 -0.818651 0.380891 0.429806 -0.655084 0.75272 0.0654112 
-0.131723 0.989789 -0.0544606 0.372749 0.920826 -0.114618 0.203641 0.978759 -0.0236977 
0.0531237 -0.998036 0.033208 0.999567 0.000856024 0.0294039 -0.928858 -0.280227 -0.242271 
-0.932821 0.237396 -0.271085 -0.476735 0.859544 0.184138 -0.595911 0.549558 0.585556 
-0.838108 0.472646 0.272361 -0.622228 0.763661 0.172207 -0.465602 0.861453 0.202762 
0.579229 0.799215 -0.160465 -0.350411 0.933865 0.0714738 -0.081124 -0.995052 0.0573563 
-0.372746 -0.92415 -0.0837055 0.615973 -0.78776 0.00340177 -0.728573 0.683609 -0.0431329 
-0.524943 0.844857 0.103206 0.630871 0.775793 0.0121135 -0.0727087 0.985711 0.151942 
-0.62864 -0.762884 -0.151065 -0.955787 -0.245449 -0.161943 -0.979329 -0.123618 -0.160104 
-0.993429 0.0411829 -0.106785 -0.937304 0.300534 -0.176465 -0.533109 0.792962 0.294969 
-0.484227 0.790143 0.375765 -0.710315 0.602864 0.363329 0.141877 -0.981901 0.125466 
-0.467129 -0.880673 -0.0787782 0.301452 -0.948879 0.0935742 0.449858 -0.892394 0.0355109 
0.909168 -0.410849 0.067948 0.975831 -0.205233 0.0750562 0.952111 0.296448 0.0748535 
-0.876719 0.404886 -0.259676 0.938792 0.344464 0.00376548 -0.623343 0.630025 0.463155 
-0.871446 0.273905 0.406888 -0.850384 0.358158 0.385447 0.570422 0.816197 0.0918713 
-0.320646 0.893315 0.31492 0.150567 0.977188 0.149775 0.783589 -0.608252 0.126561 
0.979958 -0.193995 0.0452605 -0.876563 -0.443991 -0.185766 -0.924906 -0.350986 -0.146142 
-0.755288 0.646117 -0.109871 0.714274 0.692945 0.0981807 0.160139 0.94132 0.297106 
-0.482819 0.823305 0.298421 0.0455608 0.931804 0.360091 -0.0488894 -0.977663 0.204412 
-0.525727 -0.849859 -0.0367361 0.468027 -0.859878 0.203864 0.932115 -0.343587 0.114497 
-0.793945 -0.595008 -0.124972 -0.993809 -0.0505229 -0.0989517 -0.726494 0.503896 0.467221 
-0.303577 0.876838 0.372822 0.0964952 -0.981258 0.166797 0.995986 0.0192494 0.0874118 
-0.998028 -0.0610559 0.0145906 0.940855 0.337613 -0.0284388 -0.981165 0.161691 -0.105696 
0.910391 0.413661 -0.00854268 -0.505551 0.862512 0.0221425 0.852256 0.515511 0.0889289 
-0.436088 0.803871 0.404498 0.167866 0.943612 0.285336 -0.269929 -0.958977 0.086609 
-0.105933 -0.980709 0.164281 0.206703 -0.94148 0.26625 0.375677 -0.878212 0.295991 
0.735737 -0.645808 0.204015 0.95059 -0.277547 0.139093 -0.859681 -0.509531 0.0364271 
-0.969433 -0.244564 0.0197251 -0.898409 0.413008 -0.149285 -0.666447 0.502982 0.550325 
-0.751991 0.167086 0.637645 0.435565 0.875543 0.209062 -0.425642 -0.901454 0.078796 
-0.642762 -0.76567 -0.0246312 0.854832 -0.468515 0.22306 -0.780435 -0.620036 0.0804803 
0.979151 0.162291 0.122169 0.926511 0.371609 -0.0590248 -0.660204 0.749772 -0.044408 
-0.694639 0.359451 0.623114 0.454462 0.865048 0.2125 0.335737 0.90865 0.248264 
0.155536 -0.92899 0.335835 0.595931 -0.73411 0.325499 0.953449 -0.199022 0.226549 
-0.891068 -0.432361 0.138065 -0.338725 0.92501 0.172112 -0.513294 0.78768 0.340719 
-0.515384 0.75515 0.405127 -0.741313 0.327106 0.586052 -0.0130666 -0.903039 0.42936 
0.054619 -0.895711 0.44127 -0.658106 -0.718759 0.224235 0.273137 -0.879839 0.388946 
0.742559 -0.579806 0.335306 0.825818 -0.481451 0.293649 -0.956702 -0.201845 0.209712 
-0.962016 0.272774 0.010894 -0.421379 0.897539 0.129855 -0.745664 0.254044 0.615993 
0.671686 0.729322 0.130101 -0.793204 0.50031 0.347155 0.292249 0.940142 0.175282 
-0.174424 0.926216 0.334216 -0.196761 -0.915881 0.349924 -0.418377 -0.862783 0.283843 
0.112804 -0.876324 0.468328 -0.571962 -0.778895 0.257259 -0.98711 -0.0612894 0.147843 
-0.917827 0.394293 0.0461229 -0.30733 0.927367 0.2134 0.864166 0.462411 0.198476 
-0.869215 0.156819 0.468906 -0.739804 0.493792 0.457012 -0.230035 0.869233 0.437627 
-0.0710069 0.929488 0.361952 0.374618 0.885165 0.275943 0.0969918 -0.855246 0.509065 
0.754441 -0.597512 0.271658 -0.742183 -0.596298 0.30593 0.933302 -0.269354 0.237477 
-0.829674 -0.509274 0.22865 -0.859103 -0.420871 0.291222 -0.84661 -0.397035 0.354422 
-0.917492 -0.250947 0.308599 -0.950571 -0.184191 0.249978 -0.980187 0.0384651 0.194303 
-0.858864 0.51177 -0.0210521 -0.75929 0.645376 0.0834803 -0.325765 0.853742 0.406204 