# vtk DataFile Version 4.2
vtk output
ASCII
DATASET POLYDATA
POINTS 708 float
441.055 191.857 203.939 440.926 191.479 204.095 441.331 191.978 203.783 
441.23 192.244 203.847 441.123 192.531 204.028 440.991 191.123 204.149 
441.214 191.119 204.023 441.17 190.76 204.211 441.512 191.059 203.987 
440.385 192.014 204.839 444.342 192.932 203.526 443.294 193.412 203.636 
444.709 194.095 203.712 441.657 193.965 204.468 443.613 194.491 204 
443.53 190.151 204.242 445.891 192.249 203.71 440.718 193.88 205.79 
442.674 194.702 204.483 444.662 195.158 204.214 445.205 195.124 204.136 
443.16 195.201 204.78 455.523 196.197 204.789 455.973 196.809 205.078 
441.776 188.521 205.191 441.443 187.847 205.696 450.34 193.313 204.231 
455.282 195.053 204.625 446.016 195.976 204.797 449.389 196.449 204.931 
457.666 196.815 205.195 457.173 196.055 204.949 459.961 196.855 205.301 
459.29 196.241 205.191 457.82 197.46 205.5 459.822 197.446 205.488 
462.039 197.593 205.487 463.081 197.772 205.501 459.712 198.011 205.783 
461.657 198.062 205.686 463.773 198.472 205.698 464.896 198.469 205.599 
463.961 199.01 205.95 465.626 199.15 205.826 469.058 199.644 205.675 
467.579 200.317 206.243 467.777 199.979 205.975 473.182 200.362 205.951 
469.299 200.672 206.179 473.651 200.941 206.298 440.705 187.065 206.546 
441.034 186.459 206.715 440.548 187.735 206.315 442.334 188.031 205.421 
450.339 191.315 205.007 439.626 191.425 206.482 457.801 194.839 205.087 
461.152 195.737 205.347 462.244 195.849 205.425 445.809 196.638 205.904 
455.968 198.199 206.334 458.305 198.294 206.148 469.946 198.694 205.52 
460.638 198.99 206.548 475.249 199.082 206.632 463.701 199.668 206.625 
466.959 200.3 206.389 474.967 200.686 206.832 473.607 201.83 206.856 
442.473 187.052 206.113 443.735 188.03 205.568 439.47 189.924 207 
460.401 199.233 206.937 467.489 201.08 207.221 468.42 201.221 207.028 
474.095 202.724 207.978 440.466 184.929 208.211 440.275 185.785 207.858 
443.497 187.02 206.289 439.796 193.621 208.707 441.094 195.384 208.986 
446.38 197.27 207.214 459.431 199.455 207.643 476.44 200.856 208.149 
439.952 179.86 210.354 439.943 179.868 210.353 439.951 179.854 210.368 
440.583 184.014 208.718 440.55 183.735 208.95 440.385 184.204 208.786 
441.097 184.148 208.451 439.875 185.76 208.484 446.929 186.033 208.091 
457.999 190.037 207.427 477.747 193.565 208.934 458.756 199.753 208.645 
461.067 199.868 207.931 474.969 203.276 209.465 439.955 179.941 210.368 
439.922 179.8 210.362 439.927 179.836 210.363 439.922 179.809 210.367 
440.135 180.337 210.392 440.089 180.111 210.452 439.963 179.891 210.394 
440.752 183.296 209.171 440.563 182.821 209.577 439.823 184.935 209.189 
479.215 191.288 210.42 477.557 191.901 209.433 479.522 192.662 210.417 
459.256 200.065 209.482 466.876 201.675 209.039 476.65 201.99 209.315 
475.679 202.966 209.403 440.032 180.209 210.407 439.949 179.893 210.392 
440.051 180.147 210.483 440.508 180.883 210.441 440.281 180.962 210.363 
440.418 180.62 210.644 440.645 181.552 210.192 440.351 181.725 210.206 
441.518 181.64 210.562 441.267 181.396 210.71 441.127 182.194 209.901 
446.531 184.425 209.718 439.218 186.594 209.879 460.965 187.605 209.669 
438.887 189.115 210.136 478.798 190.556 210.663 472.727 189.268 209.902 
479.778 190.994 211.215 479.893 193.744 210.854 440.414 195.02 212.22 
442.144 196.38 211.073 477.461 201.828 210.522 440.127 180.693 210.504 
440.247 180.587 210.698 440.546 180.913 210.965 440.799 180.995 210.926 
440.179 181.932 210.423 441.322 181.351 211.097 441.944 181.65 211.086 
459.642 186.677 210.269 469.38 187.72 210.706 475.374 188.676 211.134 
476.535 189.306 210.835 476.725 189.105 211.197 477.953 190.044 210.686 
478.971 190.162 211.37 479.944 191.038 211.424 479.953 190.944 211.502 
479.982 191.423 211.456 479.976 191.072 211.557 480.1 192.147 211.562 
439.368 193.146 212.026 440.002 194.467 212.719 480.014 195.6 211.662 
480.258 194.245 211.81 440.358 181.123 211.009 440.187 181.361 210.734 
441.27 181.529 211.696 442.016 181.679 211.603 442.932 181.932 211.828 
443.119 182.026 211.981 443.36 182.142 211.915 443.472 182.292 211.34 
462.003 185.348 212.343 465.411 185.769 212.369 467.479 186.091 212.06 
468.125 185.959 212.453 439.258 185.907 211.322 456.549 185.543 211.09 
457.514 185.618 211.143 462.555 185.971 211.469 468.76 186.389 212.091 
471.681 187.019 212.625 474.382 187.88 212.442 476.526 188.816 211.676 
478.069 189.338 211.851 478.201 189.324 212.106 480.194 192.706 212.608 
480.255 195.82 213.03 478.716 200.937 212.292 440.532 181.468 211.436 
440.807 181.454 211.608 440.677 181.611 211.709 443.055 182.341 212.958 
445.135 182.845 212.085 447.196 183.365 212.4 451.794 183.936 213.016 
457.641 184.731 213.16 461.298 185.059 212.981 462.457 185.194 213.036 
466.678 185.702 212.784 467.667 185.894 213.116 472.568 187.332 213.438 
477.766 189.141 212.526 478.792 189.801 212.519 478.686 189.801 212.763 
439.042 191.752 213.346 480.286 196.197 213.7 443.88 182.75 213.682 
443.684 182.888 214.048 452.768 184.007 213.939 453.251 184.087 213.919 
452.997 184.031 213.956 453.174 184.09 214.091 446.02 183.241 213.998 
455.376 184.465 213.527 462.179 185.121 213.304 461.661 185.061 213.363 
467.016 185.706 212.803 461.578 185.393 214.825 461.27 185.333 214.753 
470.815 186.763 213.517 468.34 186.301 213.76 469.169 186.359 213.373 
475.655 188.511 213.433 474.074 188.219 214.137 476.887 189.107 213.523 
479.781 191.907 213.342 480.285 195.376 214.488 443 183.689 215.328 
443.925 183.228 214.645 444.846 183.287 214.623 453.08 184.182 214.364 
456 184.568 214.12 456.918 184.67 214.137 457.435 184.85 214.61 
462.188 185.443 214.579 467.315 186.384 214.406 440.773 195.216 216.553 
441.299 195.83 215.795 442.453 196.57 215.501 474.041 204.561 215.216 
477.754 203.401 215.035 441.716 184.254 215.436 442.44 183.868 215.384 
456.353 185.157 215.613 478.024 191.824 215.764 440.106 194.107 217.02 
480.095 195.284 215.542 480.216 198.195 216.636 480.07 199.384 216.301 
479.637 201.006 216.476 477.428 204.07 216.495 439.82 186.768 215.151 
443.593 184.734 216.979 439.538 188.243 215.745 439.384 191.36 216.688 
479.639 194.565 216.242 442.835 196.562 217.719 479.009 202.444 216.833 
472.067 204.294 217.105 476.983 204.429 216.928 479.139 194.511 217.164 
479.519 201.741 217.745 477.067 204.61 218.097 446.943 186.277 218.688 
453.105 186.817 218.62 439.868 192.326 218.689 440.029 192.999 219.045 
477.971 194.49 218.726 440.85 194.651 220.36 479.693 196.556 218.195 
444.132 187.656 219.902 479.561 197.012 219.27 479.92 198.255 219.661 
480.045 199.438 220.343 440.339 192.6 220.306 440.462 193.233 220.691 
441.644 195.325 221.403 475.742 205.224 220.796 440.93 190.564 220.432 
440.537 191.469 220.342 442.617 190.18 221.491 440.741 193.417 221.517 
440.925 194.31 222.021 441.104 194.66 222.381 476.713 205.145 221.817 
441.245 192.467 221.952 475.53 195.585 222.799 442.628 195.653 222.524 
477.661 196.923 223.229 479.881 200.665 223.15 441.25 194.718 223.208 
444.888 196.24 223.352 474.983 196.006 224.287 450.127 198.062 223.606 
479.773 200.154 223.729 443.456 193.062 223.858 444.848 192.586 224.102 
455.814 192.097 224.985 441.456 194.234 223.32 441.646 194.423 223.61 
443.229 193.988 224.207 441.316 194.757 223.427 441.402 194.866 223.528 
442.359 195.274 223.443 474.822 196.208 225.05 475.441 196.585 225.565 
478.92 198.563 224.584 479.531 199.537 224.222 479.772 200.692 225.02 
479.747 201.76 224.639 479.788 201.247 225.032 479.293 202.941 225.185 
476.582 205.15 224.276 477.325 204.872 224.637 446.64 193.622 225.666 
449.327 192.912 226.142 441.664 194.641 223.743 441.404 194.748 223.571 
441.485 194.853 223.653 441.539 194.929 223.612 441.768 195 223.632 
442.758 195.184 223.819 479.692 201.807 226.157 451.068 192.788 226.486 
457.82 192.917 226.798 441.56 194.766 223.712 441.815 194.763 223.819 
443.484 194.678 224.385 445.431 194.498 225.344 446.547 194.546 226.174 
447.996 194.157 227.396 449.802 193.382 227.56 454.524 192.908 227.629 
443.144 194.985 224.146 444.993 195.081 224.982 446.134 195.129 225.823 
447.134 195.083 226.932 447.049 195.81 226.414 479.713 201.512 226.63 
479.456 202.499 227.027 448.136 194.487 228.369 448.705 194.012 228.318 
447.645 195.621 227.686 448.801 196.836 227.514 468.966 195.209 228.405 
473.668 196.412 228.237 479.54 200.297 227.434 479.23 202.975 228.19 
450.086 193.49 229.012 447.975 195.289 229.374 448.169 195.965 228.864 
448.825 196.655 228.699 479.66 201.398 229.576 479.382 202.667 228.696 
473.413 204.581 228.829 477.935 204.308 228.799 447.979 194.634 230.143 
448.919 193.859 229.866 453.508 192.968 229.605 447.787 195.339 230.42 
448.096 195.908 230.183 474.198 196.534 229.806 475.575 204.945 229.88 
476.743 204.828 229.884 448.339 193.887 230.671 443.595 194.362 233.495 
443.554 194.522 233.572 443.962 194.204 233.283 445.129 194.579 232.756 
444.654 194.155 232.951 446.713 194.491 231.761 447.496 194.306 231.13 
465.21 193.973 231.333 443.629 194.766 233.686 444.2 194.905 233.393 
444.561 195.342 233.54 446.934 195.632 232.004 449.496 197.138 230.733 
478.084 198.221 230.276 476.425 204.968 231.705 447.853 192.5 232.456 
451.296 192.267 231.973 446.617 193.413 232.227 447.49 193.441 231.768 
443.488 194.107 233.548 443.181 194.762 234.112 442.787 194.742 234.548 
443.578 195.055 233.992 448.349 191.994 232.827 450.29 191.881 232.65 
442.573 193.426 234.212 463.568 193.072 232.764 441.386 193.402 235.433 
442.031 193.782 234.76 441.69 193.389 235.017 479.39 199.242 232.45 
478.693 203.681 233.171 475.137 205.096 233.512 476.585 205.069 233.509 
446.055 190.509 234.423 451.387 190.931 233.756 441.284 191.829 235.515 
448.85 191.485 233.262 441.83 192.503 234.87 462.417 192.5 233.398 
441.025 193.658 236.377 479.488 198.975 233.631 479.778 199.681 233.977 
477.882 204.423 234.001 477.014 204.93 233.928 466.516 192.566 234.84 
[...]
POINT_DATA 708
SCALARS scalars float
LOOKUP_TABLE default
1 1 1 1 1 1 1 1 1 
1 1 1 1 1 1 1 1 1 
1 1 1 1 1 1 1 1 1 
1 1 1 1 1 1 1 1 1 
1 1 1 1 1 1 1 1 1 
1 1 1 1 1 1 1 1 1 
1 1 1 1 1 1 1 1 1 
1 1 1 1 1 1 1 1 1 
1 1 1 1 1 1 1 1 1 
1 1 1 1 1 1 1 1 1 
1 1 1 1 1 1 1 1 1 
1 1 1 1 1 1 1 1 1 
1 1 1 1 1 1 1 1 1 
1 1 1 1 1 1 1 1 1 
1 1 1 1 1 1 1 1 1 
1 1 1 1 1 1 1 1 1 
1 1 1 1 1 1 1 1 1 
1 1 1 1 1 1 1 1 1 
1 1 1 1 1 1 1 1 1 
1 1 1 1 1 1 1 1 1 
1 1 1 1 1 1 1 1 1 
1 1 1 1 1 1 1 1 1 
1 1 1 1 1 1 1 1 1 
1 1 1 1 1 1 1 1 1 
1 1 1 1 1 1 1 1 1 
1 1 1 1 1 1 1 1 1 
1 1 1 1 1 1 1 1 1 
1 1 1 1 1 1 1 1 1 
1 1 1 1 1 1 1 1 1 
1 1 1 1 1 1 1 1 1 
1 1 1 1 1 1 1 1 1 
1 1 1 1 1 1 1 1 1 
1 1 1 1 1 1 1 1 1 
1 1 1 1 1 1 1 1 1 
1 1 1 1 1 1 1 1 1 
1 1 1 1 1 1 1 1 1 
1 1 1 1 1 1 1 1 1 
1 1 1 1 1 1 1 1 1 
1 1 1 1 1 1 1 1 1 
1 1 1 1 1 1 1 1 1 
1 1 1 1 1 1 1 1 1 
1 1 1 1 1 1 1 1 1 
1 1 1 1 1 1 1 1 1 
1 1 1 1 1 1 1 1 1 
1 1 1 1 1 1 1 1 1 
1 1 1 1 1 1 1 1 1 
1 1 1 1 1 1 1 1 1 
1 1 1 1 1 1 1 1 1 
1 1 1 1 1 1 1 1 1 
1 1 1 1 1 1 1 1 1 
1 1 1 1 1 1 1 1 1 
1 1 1 1 1 1 1 1 1 
1 1 1 1 1 1 1 1 1 
1 1 1 1 1 1 1 1 1 
1 1 1 1 1 1 1 1 1 
1 1 1 1 1 1 1 1 1 
1 1 1 1 1 1 1 1 1 
1 1 1 1 1 1 1 1 1 
1 1 1 1 1 1 1 1 1 
1 1 1 1 1 1 1 1 1 
1 1 1 1 1 1 1 1 1 
1 1 1 1 1 1 1 1 1 
1 1 1 1 1 1 1 1 1 
1 1 1 1 1 1 1 1 1 
1 1 1 1 1 1 1 1 1 
1 1 1 1 1 1 1 1 1 
1 1 1 1 1 1 1 1 1 
1 1 1 1 1 1 1 1 1 
1 1 1 1 1 1 1 1 1 
1 1 1 1 1 1 1 1 1 
1 1 1 1 1 1 1 1 1 
1 1 1 1 1 1 1 1 1 
1 1 1 1 1 1 1 1 1 
1 1 1 1 1 1 1 1 1 
1 1 1 1 1 1 1 1 1 
1 1 1 1 1 1 1 1 1 
1 1 1 1 1 1 1 1 1 
1 1 1 1 1 1 1 1 1 
1 1 1 1 1 1 
NORMALS Normals float
-0.554554 -0.0605179 -0.829944 -0.72664 -0.14398 -0.671762 -0.196364 -0.0900121 -0.976391 
-0.428583 0.233183 -0.872893 -0.683987 0.296123 -0.666688 -0.624404 -0.309884 -0.717002 
-0.329323 -0.292978 -0.897613 -0.324173 -0.448952 -0.832678 -0.165791 -0.319717 -0.932896 
-0.858153 0.0715521 -0.508383 -0.0110809 0.0257192 -0.999608 -0.203705 0.289274 -0.935321 
0.0733173 0.263662 -0.961825 -0.54563 0.536574 -0.643721 -0.180103 0.448129 -0.875639 
0.0601267 -0.403973 -0.912793 0.153705 -0.204329 -0.96676 -0.767129 0.550006 -0.330162 
-0.366051 0.575634 -0.7312 -0.10445 0.714426 -0.691871 0.0137085 0.74265 -0.669539 
-0.355814 0.849488 -0.389573 0.111055 0.213433 -0.970625 0.102726 0.410943 -0.905855 
-0.260688 -0.457998 -0.84987 -0.156285 -0.553067 -0.818347 0.0766128 -0.236881 -0.968513 
0.193787 0.0271715 -0.980667 0.0513882 0.637595 -0.768656 -0.0558936 0.668251 -0.741834 
0.163189 0.37514 -0.912491 0.0388639 0.20726 -0.977514 0.127918 0.241199 -0.962008 
0.0349963 0.196793 -0.97982 0.0644322 0.495083 -0.866453 -0.0142949 0.339037 -0.940664 
-0.0589906 0.160338 -0.985298 0.077903 0.151021 -0.985456 -0.135962 0.648698 -0.748803 
-0.0816924 0.424762 -0.901612 -0.0778241 0.359262 -0.929986 -0.0894678 0.308764 -0.946922 
-0.259521 0.552862 -0.791829 -0.0752923 0.349599 -0.933869 -0.142885 0.35699 -0.923115 
-0.146404 0.682441 -0.716128 -0.0942384 0.395707 -0.913529 0.106244 0.300541 -0.947833 
-0.148134 0.573042 -0.806027 0.308615 0.364203 -0.8787 -0.602838 -0.388622 -0.696821 
-0.338779 -0.50704 -0.792552 -0.677108 -0.322345 -0.661527 0.00121827 -0.624855 -0.78074 
0.125977 -0.520166 -0.844723 -0.949328 0.176135 -0.260294 0.167969 -0.218984 -0.961162 
0.071675 0.120016 -0.990181 0.16303 -0.235466 -0.958111 -0.192848 0.850971 -0.488526 
-0.118667 0.848862 -0.515123 0.00171008 0.625543 -0.780188 0.0518563 -0.0854099 -0.994995 
-0.125589 0.750034 -0.649366 0.472692 0.0217069 -0.88096 -0.192632 0.772382 -0.605243 
-0.271468 0.730376 -0.626782 0.571468 0.318714 -0.756205 0.261723 0.636921 -0.725143 
0.0203093 -0.598439 -0.800911 0.129506 -0.587742 -0.798616 -0.949178 -0.0741342 -0.305884 
-0.139182 0.870485 -0.472107 -0.280456 0.812958 -0.510338 -0.164289 0.764115 -0.623808 
-0.0422169 0.91057 -0.411193 -0.608103 -0.429189 -0.667838 -0.593824 -0.42986 -0.680143 
0.117873 -0.588517 -0.799846 -0.907906 0.406411 -0.102645 -0.654745 0.740037 -0.153798 
-0.169732 0.944652 -0.280755 -0.139167 0.855717 -0.498378 0.690996 0.388796 -0.609395 
0.42725 -0.473928 -0.769968 -0.31993 -0.102084 -0.941925 0.655836 -0.66805 -0.351551 
-0.448593 -0.434308 -0.781115 -0.814093 -0.472291 -0.337925 -0.772465 -0.394288 -0.49783 
-0.191855 -0.545059 -0.816151 -0.859005 -0.296315 -0.417502 0.212289 -0.617219 -0.757611 
0.114246 -0.571338 -0.812724 0.364783 -0.236677 -0.900509 -0.167347 0.928928 -0.330283 
-0.102411 0.916194 -0.387428 0.312174 0.860467 -0.40267 -0.832005 0.280516 -0.478621 
0.50648 -0.858933 -0.0755721 -0.910141 0.191314 -0.36748 -0.678078 -0.127507 0.723846 
-0.00833729 0.0402361 -0.999155 0.764405 -0.54543 0.34379 0.353018 -0.447396 0.821715 
-0.6594 -0.513446 -0.549149 -0.349866 -0.453934 -0.819474 -0.855516 -0.314257 -0.411504 
0.525383 -0.412417 -0.744235 0.323247 -0.350655 -0.878949 0.767047 -0.126129 -0.629072 
-0.170029 0.946367 -0.274737 -0.250989 0.926157 -0.281493 0.668685 0.546191 -0.504516 
0.559548 0.744103 -0.364989 -0.663393 0.240096 -0.708706 -0.718859 0.0380842 0.694112 
-0.362402 -0.223023 0.904945 0.611923 -0.454355 -0.647388 -0.229113 -0.105349 -0.967682 
0.571104 -0.698954 0.430469 0.124336 -0.429349 -0.894539 -0.558083 -0.188856 -0.808008 
0.553338 -0.672584 -0.491374 0.528447 -0.706942 -0.470081 0.24582 -0.632375 -0.734625 
0.331057 -0.834669 -0.440146 -0.967504 -0.181884 -0.175654 0.132858 -0.526226 -0.839901 
-0.998175 0.0282876 -0.0533471 0.471431 -0.59535 -0.650624 0.180559 -0.50114 -0.84632 
0.75866 -0.293508 -0.581626 0.796781 0.0888574 -0.597699 -0.746772 0.663843 -0.0405416 
-0.42086 0.902869 -0.0877808 0.748229 0.576742 -0.327906 -0.988515 0.084171 -0.125511 
-0.468375 -0.388719 0.793424 0.102496 -0.759306 0.642611 0.584953 -0.805498 0.0948866 
-0.920373 -0.108517 -0.375682 0.461984 -0.884065 0.0707057 0.52259 -0.783409 -0.336409 
-0.00558161 -0.715525 -0.698565 0.138687 -0.725379 -0.674233 0.288036 -0.696329 -0.65739 
0.178926 -0.770963 -0.61123 0.299545 -0.830804 -0.469081 0.340517 -0.670433 -0.659217 
0.57062 -0.708238 -0.415682 0.902017 -0.142075 -0.407652 0.852339 -0.521116 -0.0442267 
0.965325 -0.067196 -0.252256 0.993853 -0.107579 -0.0261385 0.962488 -0.136416 -0.234536 
-0.939531 0.339218 -0.0470389 -0.902672 0.427383 0.0502756 0.967125 0.158624 -0.198768 
0.988814 0.00327927 -0.149118 -0.637504 -0.386097 0.666722 -0.947829 -0.111279 0.298727 
0.127171 -0.845961 0.517859 0.304064 -0.947424 0.0996644 0.317588 -0.946068 0.063985 
0.408799 -0.907639 0.0952633 0.436266 -0.899726 -0.0128907 0.417114 -0.872747 -0.253631 
0.104134 -0.926696 -0.361095 0.0204555 -0.984675 -0.173193 0.0888254 -0.816125 -0.571008 
0.261911 -0.940858 -0.214914 -0.980138 -0.198242 0.0054359 0.069903 -0.869509 -0.488945 
0.016437 -0.691058 -0.722612 0.170537 -0.742523 -0.647748 0.290603 -0.869488 -0.399424 
0.328779 -0.920366 -0.211735 0.316223 -0.941815 -0.11396 0.324493 -0.870762 -0.369429 
0.462992 -0.825331 -0.323213 0.537737 -0.84202 -0.0429096 0.979876 -0.112825 0.164662 
0.992247 -0.0158696 -0.123265 0.811498 0.471719 -0.344894 -0.702628 -0.462969 0.540346 
-0.285203 -0.660895 0.694174 -0.27358 -0.696358 0.663505 0.13129 -0.910103 0.393033 
0.368077 -0.921244 0.125814 0.135815 -0.97743 -0.161815 0.17054 -0.903317 -0.393618 
0.0374309 -0.993129 -0.110877 0.0683004 -0.971958 -0.225016 0.221764 -0.969857 -0.100984 
-0.138138 -0.814626 0.563296 0.0773764 -0.877201 0.473847 0.43006 -0.902146 0.0343749 
0.395696 -0.898008 0.192371 0.755571 -0.651915 0.0641804 0.610689 -0.702966 0.364551 
-0.974972 0.208222 0.0779269 0.990389 0.135043 -0.0298934 0.408495 -0.816891 0.407211 
0.234482 -0.8408 0.487928 0.121235 -0.992585 0.00883131 0.306816 -0.950065 0.0569195 
0.129206 -0.987882 0.0859909 0.443689 -0.834911 0.325674 0.102681 -0.941325 0.321502 
0.143892 -0.989588 -0.00338785 0.180486 -0.983564 -0.00522134 0.0915389 -0.995103 0.0372909 
0.0852643 -0.991691 -0.0963259 0.226458 -0.772233 0.59361 0.0723556 -0.955236 0.286861 
0.252327 -0.88425 0.39298 0.275207 -0.888926 0.366158 0.291823 -0.942884 0.160654 
0.363878 -0.898905 0.244055 0.363072 -0.837844 0.407672 0.404811 -0.858992 0.313466 
0.905051 -0.333313 0.264169 0.989153 -0.135749 0.0561176 -0.0998511 -0.745672 0.658789 
0.0964937 -0.89734 0.430662 0.10869 -0.951592 0.287506 0.250533 -0.891853 0.376605 
0.0902494 -0.993828 0.06451 0.0476991 -0.997415 0.0537414 0.236561 -0.899643 0.36699 
0.25083 -0.880597 0.402036 0.190307 -0.863145 0.467721 -0.698519 0.710125 0.0882827 
-0.705887 0.707847 0.0260096 -0.390128 0.917415 0.0784168 -0.0648718 0.985418 -0.157301 
0.678902 0.675962 -0.28665 -0.465369 -0.540363 0.701027 -0.270092 -0.621691 0.735221 
0.155046 -0.878888 0.451129 0.629813 -0.585373 0.510563 -0.910519 0.411179 0.0434292 
0.976878 -0.12497 0.173472 0.995403 0.00904678 0.0953469 0.986944 0.153696 -0.0481496 
0.90801 0.392017 -0.147789 0.625823 0.772024 -0.111017 -0.944273 -0.264371 0.196104 
-0.039234 -0.784993 0.618262 -0.940385 -0.236267 0.244651 -0.997316 0.0684437 0.0259984 
0.875125 -0.34434 0.33998 -0.303149 0.952906 0.00835857 0.781877 0.614679 -0.104112 
-0.197188 0.978013 -0.0678839 0.436484 0.882725 -0.174007 0.794116 -0.41013 0.448524 
0.942987 0.329851 -0.0444195 0.453578 0.888361 -0.0712915 0.0122347 -0.736577 0.676243 
0.219852 -0.708024 0.671093 -0.969502 -0.0427412 0.241327 -0.96668 0.12585 0.222915 
0.449847 -0.708047 0.544342 -0.856659 0.504644 0.107093 0.882907 -0.342703 0.320984 
-0.167224 -0.624258 0.763111 0.863719 -0.414513 0.286652 0.980154 -0.138674 0.141658 
0.984043 -0.129202 0.122336 -0.960465 0.00988762 0.278226 -0.975951 0.141754 0.165604 
-0.506295 0.85649 0.100448 0.717398 -0.0965042 -0.689948 -0.731191 -0.406798 0.547609 
-0.913831 -0.195029 0.356198 -0.297302 -0.558251 0.774576 -0.911315 -0.128646 0.391095 
-0.953445 0.201381 0.224471 -0.880437 0.457819 0.123419 0.300884 0.952585 -0.0452826 
-0.704478 -0.379371 0.599824 0.313956 -0.872734 0.373854 -0.307939 0.92871 0.206568 
0.637364 -0.708681 0.302553 0.99705 0.0137196 -0.0755128 -0.951994 0.00191121 0.306112 
-0.38485 0.888198 0.250987 0.338543 -0.893665 0.294537 -0.419215 0.905006 0.0722656 
0.969597 -0.241548 -0.0391823 -0.254462 -0.454269 0.85375 -0.343874 -0.559688 0.75399 
0.17489 -0.880793 0.44002 -0.705958 -0.398973 0.585187 -0.432671 -0.4596 0.775605 
-0.339506 -0.399317 0.851635 -0.915564 -0.0189458 0.401725 -0.723316 0.64649 0.242621 
-0.445632 0.770107 0.45645 0.347374 -0.892672 0.28717 0.390365 -0.897651 0.204542 
0.78885 -0.598946 0.137764 0.897281 -0.433454 0.0836902 0.987435 -0.143443 0.0662989 
0.991257 0.131789 -0.00646763 0.991794 0.122972 0.0349579 0.85289 0.51876 -0.0588765 
0.241492 0.961783 -0.129057 0.421299 0.899297 -0.117355 -0.482208 -0.518421 0.706198 
-0.281745 -0.840828 0.462199 -0.426334 -0.344245 0.836502 -0.750569 -0.241888 0.614928 
-0.566061 0.373075 0.735112 -0.388109 0.793681 0.468446 -0.317297 0.905071 0.283143 
-0.479707 0.641409 0.598728 0.970734 0.223253 0.0885024 -0.157562 -0.908854 0.386211 
-0.0343488 -0.954048 0.297678 -0.48798 0.115542 0.865174 -0.313033 -0.00228599 0.949739 
-0.273671 -0.0912973 0.95748 -0.515642 -0.0951438 0.851505 -0.612818 -0.249475 0.749811 
-0.597685 -0.680015 0.424678 -0.293595 -0.935457 0.196781 0.409887 -0.844803 0.343949 
-0.395785 0.340265 0.852979 -0.50725 -0.054601 0.860067 -0.652493 0.0930234 0.752064 
-0.781808 -0.13737 0.608198 -0.656249 0.347085 0.669977 0.985764 0.153419 0.0687843 
0.897569 0.440824 -0.00661556 -0.836628 -0.511387 0.196305 -0.511602 -0.835581 0.20017 
-0.873144 0.371018 0.316172 -0.567421 0.772319 0.285582 0.271924 -0.962102 0.0204236 
0.37281 -0.915921 0.148664 0.946866 -0.321114 0.0181916 0.888775 0.45467 -0.0579187 
-0.295114 -0.952405 -0.0763755 -0.996464 0.0822696 -0.0170876 -0.807418 0.584494 0.0802673 
-0.646528 0.756525 0.0983463 0.998101 0.0501144 -0.0358054 0.9064 0.421137 -0.0328975 
-0.218959 0.97559 0.0167638 0.635545 0.77187 0.0172809 -0.851996 -0.432275 -0.295366 
-0.544425 -0.831191 -0.112801 0.0673944 -0.992348 -0.103454 -0.928303 0.0676665 -0.365615 
-0.832723 0.513747 -0.206486 0.339497 -0.93027 -0.139068 -0.00527526 0.987073 -0.160183 
0.199427 0.974605 -0.101855 -0.409136 -0.734696 -0.541137 -0.437484 0.267316 -0.858575 
-0.751982 0.322877 -0.574694 -0.440491 0.0816572 -0.894036 -0.461363 0.178264 -0.869118 
-0.437705 -0.0241766 -0.898794 -0.5624 -0.0161482 -0.826708 -0.739408 -0.255976 -0.622697 
0.107652 -0.988201 -0.108953 -0.61329 0.464677 -0.638711 -0.452659 0.503492 -0.735931 
-0.487668 0.583814 -0.649108 -0.647652 0.568219 -0.507617 -0.682118 0.729757 -0.0465952 
0.642456 -0.7637 -0.0633483 0.190988 0.981228 -0.0267316 -0.305471 -0.686078 -0.660291 
-0.217085 -0.850106 -0.479785 -0.385475 -0.369224 -0.845626 -0.413562 -0.54721 -0.727686 
-0.686596 0.0336321 -0.726261 -0.640056 0.530668 -0.555626 -0.679584 0.495541 -0.54093 
-0.482142 0.709478 -0.513984 -0.362862 -0.744446 -0.560474 -0.125348 -0.647184 -0.751958 
-0.588117 0.0151797 -0.808633 0.211881 -0.862475 -0.459612 -0.815722 0.27649 -0.508085 
-0.701621 0.237129 -0.671936 -0.746479 0.0998895 -0.657868 0.92666 -0.346865 -0.144865 
0.68278 0.727059 -0.0720951 -0.145437 0.986665 0.0730802 0.285704 0.957968 -0.0258933 
-0.194758 -0.550472 -0.811819 -0.00132855 -0.792509 -0.609858 -0.782999 -0.148922 -0.603932 
-0.346502 -0.63636 -0.68919 -0.592371 -0.200954 -0.780201 0.159091 -0.853898 -0.495528 
-0.911356 0.299236 -0.282644 0.844618 -0.481274 -0.234511 0.965908 -0.201397 -0.162667 
0.557116 0.8304 -0.00759298 0.299694 0.953824 -0.0200673 0.188265 -0.867588 -0.460269 
-0.703331 0.65528 -0.275559 0.643089 -0.682747 -0.346832 -0.440902 0.892334 -0.0966746 
0.798143 -0.530772 -0.285043 0.998371 0.0183983 -0.0540147 0.980128 0.191798 -0.0506254 
0.867015 0.492975 0.0725244 0.535743 0.844182 0.0183503 -0.731629 -0.268652 -0.626534 
-0.346222 -0.530991 -0.77342 0.357816 -0.78946 -0.498719 -0.356911 0.90103 -0.246493 
0.876804 -0.39958 -0.267489 -0.215757 0.965581 0.145268 0.204675 0.974706 0.0897561 
-0.812123 -0.332537 -0.479454 -0.941893 -0.144959 -0.303024 0.743824 0.65603 0.127869 
-0.784604 -0.417769 -0.458111 0.104213 -0.690523 -0.715764 -0.097797 0.98886 0.112209 
0.278154 0.94503 0.1719 -0.635138 -0.393422 -0.664694 0.731069 -0.505875 -0.457852 
-0.471592 -0.609594 -0.637178 -0.575311 -0.554775 -0.601034 -0.187611 -0.69433 -0.694772 
-0.0175821 -0.782837 -0.621979 -0.95437 -0.0152898 -0.298236 -0.214028 -0.764962 -0.607475 
-0.826852 -0.296225 -0.478087 0.175937 -0.825464 -0.536336 0.134278 -0.819212 -0.55755 
-0.975493 -0.0552982 -0.212968 0.525005 -0.622351 -0.58056 0.930541 -0.133677 -0.340916 
0.924748 -0.204939 -0.32069 -0.70602 0.705847 0.0575749 -0.709798 0.703835 0.0283208 
-0.0493775 0.988368 0.143841 -0.0869591 -0.785388 -0.612866 0.153986 -0.896957 -0.414434 
0.115324 -0.980487 -0.159205 0.108782 -0.963167 -0.24592 0.196115 -0.97856 -0.062918 
0.161218 -0.94464 -0.28577 0.14966 -0.986225 -0.0704493 0.170109 -0.797097 -0.579396 
-0.915525 -0.10144 -0.389259 0.16542 -0.765886 -0.621333 0.808868 -0.37069 -0.456423 
0.880217 -0.261847 -0.395796 -0.790942 0.610483 -0.0414848 -0.387278 0.919314 0.0698364 
0.214629 0.958472 0.18779 0.18629 -0.89149 -0.412966 0.329971 -0.942692 -0.0495136 
0.108222 -0.946906 -0.302749 -0.00601863 -0.971026 0.238898 0.104685 -0.994122 0.0276155 
-0.940697 -0.240231 -0.239538 0.154436 -0.986765 0.0494485 0.280007 -0.90403 -0.322995 
0.237596 -0.809212 -0.53733 -0.947049 -0.0880374 -0.308783 0.0944879 -0.835474 -0.541346 
0.124299 -0.884482 -0.449713 0.2544 -0.727301 -0.637428 0.525354 -0.773112 -0.355388 
0.503947 -0.597401 -0.623819 0.831466 -0.394656 -0.391038 0.99613 0.0574874 -0.0664901 
0.995103 0.0412369 -0.0898279 0.913161 -0.340913 -0.223417 0.96849 0.231325 0.0922814 
0.708565 0.688084 0.15645 0.21092 -0.895294 -0.39238 0.414259 -0.90393 -0.106298 
0.336936 -0.935694 -0.104651 0.0110304 -0.980425 0.196582 0.219257 -0.944549 0.244444 
0.33246 -0.94245 -0.0354703 0.250815 -0.932804 0.258782 -0.969694 -0.196153 -0.14566 
0.307746 -0.94865 0.0731786 0.267483 -0.939948 0.212013 0.270245 -0.904722 -0.32931 
0.264825 -0.96429 0.00348713 0.161554 -0.98357 0.0805696 0.304099 -0.949292 0.0798048 
0.285267 -0.830184 -0.478976 0.239413 -0.924479 -0.296682 0.203182 -0.969493 -0.137114 
0.646838 -0.530676 -0.547707 0.984492 -0.172456 -0.032159 -0.964444 0.262377 -0.0317268 
0.945169 0.093387 0.312945 -0.380701 0.924129 0.0324435 0.752211 0.629562 0.194498 
-0.234874 0.965132 0.115559 0.176971 0.955187 0.237276 0.00799779 -0.813823 -0.581058 
0.255742 -0.800488 -0.542047 -0.995738 -0.0738165 -0.0552931 0.432285 -0.898923 0.071184 
0.179626 -0.913288 0.365568 0.168899 -0.922402 0.347342 0.0713336 -0.888174 0.453937 
0.02903 -0.84209 0.538555 0.210906 -0.977215 -0.0238778 -0.994512 -0.0999085 0.0310556 
0.137278 -0.707861 0.692883 0.491624 -0.870075 0.0357125 0.700225 -0.692308 -0.17434 
0.757665 -0.601023 0.254391 0.771477 -0.597671 -0.218202 0.804619 -0.539126 0.248862 
0.798995 -0.600415 0.0333066 0.938947 -0.316896 0.133996 -0.981975 0.188705 0.0107292 
0.365777 -0.795873 -0.482486 0.0688583 -0.80216 -0.593125 -0.423557 -0.657083 -0.623571 
0.560514 -0.788348 -0.253637 0.6989 -0.390105 0.599464 0.520669 -0.756466 0.395807 
0.467805 -0.867031 0.171512 0.430068 -0.854075 0.292572 0.321986 -0.849372 0.418201 
0.416602 -0.869725 0.264616 0.2016 -0.791782 0.576575 -0.99049 -0.0530684 0.126939 
0.119223 -0.80893 0.575689 0.0929068 -0.769149 0.63228 0.349242 -0.893395 0.282623 
0.601823 -0.790423 0.114198 0.326806 -0.666929 0.669629 -0.782355 0.622123 0.0297364 
0.846566 0.428289 0.316062 -0.193795 0.961039 0.197097 -0.037165 0.946539 0.320441 
0.297098 0.929646 0.217926 0.317188 -0.746802 -0.584532 -0.450956 -0.572894 -0.68442 
0.271106 -0.333727 0.902844 0.511749 -0.46029 0.725428 -0.952783 -0.135178 0.271903 
0.0511772 -0.424232 0.904106 0.32069 -0.660275 0.679113 0.471074 -0.754405 0.457124 
0.264696 -0.732433 0.627278 0.384682 -0.853893 0.350551 0.492054 -0.69432 0.52517 
0.614585 -0.673042 0.411461 0.187647 -0.737714 0.648511 0.863861 -0.0220861 0.503246 
-0.826935 0.557314 -0.0747018 0.824671 0.220153 0.52101 -0.37506 0.923579 0.0795655 
-0.191348 0.973757 0.123222 0.610556 0.723983 0.321046 0.38135 0.893971 0.235346 
0.127871 -0.736722 -0.663995 -0.414705 -0.51081 -0.753056 -0.980084 0.015941 -0.197944 
0.134895 0.0848601 0.987219 -0.695647 0.0644884 0.715483 -0.594782 -0.172063 0.785257 
-0.710348 -0.247413 0.658933 -0.24497 -0.509147 0.825081 0.136725 -0.694914 0.705975 
-0.901395 -0.192125 0.388041 0.169173 -0.689475 0.704276 0.361435 -0.433029 0.825742 
0.643584 -0.398581 0.653401 0.262729 -0.4797 0.837175 0.381212 -0.363406 0.850067 
0.603778 -0.164455 0.780005 -0.963194 0.268784 -0.00363247 -0.924247 0.364791 0.112676 
-0.235756 0.917535 0.320233 0.228915 0.890592 0.392994 0.756974 -0.32425 0.56732 
-0.713994 -0.37316 -0.592422 -0.290715 0.292491 0.911007 -0.941197 0.24805 0.22939 
-0.736068 0.3124 0.600508 -0.591074 -0.354487 0.724548 -0.358372 -0.432061 0.827582 
-0.204507 -0.51758 0.830836 -0.94422 -0.0467366 0.325983 0.103814 -0.44871 0.887627 
0.31065 -0.309175 0.898837 0.668987 0.0297824 0.742677 -0.245724 0.857966 0.451126 
0.602869 0.596894 0.529401 0.280228 0.842585 0.459915 -0.92704 -0.0326175 0.37354 
-0.789585 -0.240632 0.564492 -0.246423 -0.601878 0.759617 -0.818609 -0.264831 0.509651 
0.0719318 -0.230621 0.970381 -0.114489 0.92972 0.350019 -0.1116 0.945931 0.304564 
-0.121106 0.933192 0.338359 -0.128864 0.843984 0.520659 -0.16596 0.883324 0.438402 
0.212589 0.799192 0.562226 0.159957 -0.419321 0.893635 -0.872633 0.421566 0.246566 
-0.52484 0.813374 0.250929 -0.0590199 0.87226 0.485467 0.321632 -0.165948 0.932209 
-0.118116 0.856648 0.502198 -0.222692 0.805389 0.549324 -0.218839 0.719204 0.659435 