# vtk DataFile Version 4.2
vtk output
ASCII
DATASET POLYDATA
POINTS 1145 float
408.834 193.818 117.373 416.178 187.162 118.182 418.077 187.212 118.287 
419.053 186.948 118.566 411.381 189.298 117.876 416.233 189.673 117.629 
418.852 188.762 118.301 410.864 190.514 117.577 417.646 192.082 118.136 
410.058 195.799 117.396 413.784 196.12 117.924 407.389 197.291 117.774 
411.528 187.042 118.956 406.282 194.868 118.12 406.99 195.152 117.79 
403.511 196.107 119.033 405.847 200.497 118.586 417.896 184.813 119.405 
420.985 185.899 119.848 420.757 185.386 119.921 421.261 185.553 120.141 
409.5 188.032 119.339 407.258 190.06 119.328 414.991 198.635 119.202 
401.356 203.084 119.71 418.98 182.52 121.162 421.324 183.472 121.018 
421.159 183.481 120.978 414.66 183.778 120.446 416.735 183.109 120.669 
419.854 184.64 119.883 422.444 185.11 121.174 402.993 192.214 120.871 
420.447 193.88 120.32 408.601 204.597 120.296 420.643 182.198 121.765 
417.663 182.531 121.131 421.32 183.361 121.096 421.674 182.687 121.911 
421.331 183.119 121.349 422.805 184.442 121.961 423.373 188.971 122.063 
422.29 192.777 121.622 401.146 194.866 120.771 419.862 197.102 121.424 
397.186 201.261 121.323 413.021 202.45 120.45 395.566 205.706 121.606 
395.194 208.197 121.809 420.354 181.563 122.462 421.106 181.726 122.54 
415.509 181.792 122.255 411.408 183.909 121.848 409.42 185.545 121.483 
423.95 186.701 123.066 394.192 203.775 122.451 396.968 210.379 121.853 
421.75 181.926 122.824 421.964 181.977 123.071 409.19 184.552 122.763 
396.407 196.564 123.556 394.041 201.215 123.227 399.967 211.341 122.071 
390.037 211.363 123.926 418.963 180.286 123.95 424.828 189.135 125.116 
388.645 216.521 124.807 420.348 179.311 125.845 418.696 179.073 125.721 
421.076 180.182 125.148 422.549 181.589 124.813 423.438 182.881 124.615 
424.326 193.447 125.397 391.029 202.561 125.057 389.524 205.617 125.096 
413.909 208.777 124.283 418.967 178.451 126.885 419.559 178.377 127.327 
406.539 184 126.738 401.344 188.704 125.9 419.774 203.282 125.051 
388.98 204.197 126.135 407.2 217.015 124.923 385.751 218.531 126.44 
386.772 221.11 126.209 404.649 228.72 126.092 410.502 229.603 126.255 
413.044 229.448 126.525 415.557 178.348 127.602 409.353 181.694 127.176 
424.33 183.396 126.832 395.281 193.668 127.322 392.158 197.285 127.732 
423.284 199.886 127.065 418.482 206.545 125.718 414.294 215.188 126.257 
415.634 216.504 126.867 391.002 228.855 126.998 404.346 232.377 126.96 
421.055 178.694 128.245 422.001 179.937 126.972 424.019 182.393 127.334 
406.339 183.768 128.02 425.23 185.93 127.85 398.433 190.372 127.819 
389.074 201.097 128.264 419.374 209.341 127.247 385.175 209.141 128.197 
384.065 214.8 127.922 414.61 224.211 126.806 418.227 223.565 127.911 
386.038 228.262 128.294 388.402 230.743 128.434 418.145 231.545 128.141 
397.524 233.598 128.087 415.258 235.085 128.286 401.706 187.346 129.23 
400.218 188.61 129.034 392.761 195.791 128.997 391.911 196.715 129.406 
388.462 201.152 129.415 387.859 201.849 129.838 387.108 203.021 130.005 
385.649 205.795 129.739 384.902 207.456 129.572 383.635 212.376 128.998 
419.316 216.1 128.32 382.456 219.507 128.987 420.805 222.023 129.239 
421.141 227.043 129.409 384.998 230.394 129.639 421.61 231.614 130.533 
418.773 233.936 128.991 419.607 234.447 129.627 408.34 237.076 129.123 
417.245 236.104 129.223 417.723 177.165 130.971 413.822 178.243 129.794 
391.451 197.131 130.202 390.962 197.775 130.166 387.981 201.41 130.704 
422.681 209.028 129.628 421.934 215.074 129.806 422.63 224.367 130.879 
422.404 226.776 130.733 422.671 228.379 131.313 422.371 230.766 131.309 
385.116 232.6 130.875 422.054 232.676 131.468 393.548 234.731 129.552 
419.257 236.043 130.07 420.704 235.901 131.021 415.962 177.338 131.176 
418.388 177.15 131.453 420.974 178.257 129.968 405.654 184.382 130.489 
401.711 187.457 130.419 401.751 187.589 130.925 393.193 195.143 130.522 
391.88 196.701 130.971 390.419 198.432 131.346 387.964 201.421 131.178 
386.823 203.182 131.118 384.66 206.378 131.531 384.429 206.949 130.821 
383.538 208.919 131.582 384.312 207.206 130.758 423.813 210.444 131.226 
382.026 213.293 131.127 423.621 215.825 131.633 423.961 218.166 132.469 
423.438 221.602 132.011 381.554 229.349 131.487 382.823 231.916 131.828 
387.933 234.909 131.569 421.958 236.255 132.792 420.287 238.131 131.788 
417.044 240.03 131.484 408.962 181.765 131.639 407.105 183.423 131.333 
424.574 182.811 131.623 402.275 187.323 131.228 425.764 194.13 131.794 
389.921 198.972 131.396 387.025 202.869 131.445 387.121 202.854 131.925 
425.365 202.381 132.477 384.474 206.555 132.086 384.357 207.05 130.775 
383.426 208.922 132.191 383.473 208.803 132.648 424.746 209.017 132.617 
379.891 219.858 132.105 379.833 224.256 132.085 380.574 230.23 132.859 
383.589 233.495 132.52 393.015 237.728 132.817 421.847 238.223 133.839 
406.709 240.495 132.404 412.117 241.11 132.1 420.821 239.603 133.268 
420.15 240.456 133.187 418.427 177.15 132.698 413.768 178.221 132.463 
422.254 179.121 131.791 409.7 181.29 132.193 423.639 180.713 132.46 
404.259 186.438 132.311 425.414 187.35 132.752 397.98 191.161 131.877 
392.928 195.762 131.563 390.396 198.806 132.293 388.242 201.632 132.518 
385.936 204.852 132.609 425.286 205.134 132.937 383.265 209.294 132.859 
383.073 209.782 132.218 382.584 210.921 132.901 379.67 217.935 133.305 
379.097 226.247 133.509 423.792 226.15 133.632 423.601 229.865 134.001 
423.124 232.286 133.668 422.734 234.991 133.966 422.301 237.54 134.389 
418.985 177.293 133.134 421.18 178.364 133.186 397.818 193.183 133.456 
395.236 194.919 133.029 396.491 194.801 133.71 391.258 198.221 132.661 
393.074 197.111 133.107 388.036 202.333 132.996 383.096 209.984 133.486 
379.807 216.943 133.901 424.695 218.838 134.872 423.169 233.373 134.578 
421.939 239.915 135.425 420.285 242.853 135.828 414.977 178.067 134.27 
414.42 178.372 134.173 412.029 180.372 134.229 410.298 182.173 134.026 
405.723 186.335 133.398 404.025 188.19 133.597 398.479 195.841 134.942 
392.219 199.699 134.325 394.835 198.593 134.837 386.87 204.422 133.619 
384.699 207.367 133.921 383.961 208.565 133.909 425.787 206.974 135.839 
383.1 210.454 134.095 425.391 210.36 135.452 381 214.406 134.532 
379.806 217.016 134.887 378.668 221.884 135.077 378.408 227.804 135.497 
380.023 232.439 135.312 382.459 235.067 135.604 415.864 244.29 135.261 
418.485 244.312 135.832 419.63 244.154 136.581 416.038 177.938 135.037 
417.051 177.691 134.976 413.66 179.425 134.929 422.228 179.593 134.736 
423.372 181.186 134.687 412.295 182.856 135.951 424.183 183.615 135.346 
407.361 186.985 134.745 425.69 191.117 135.405 401.568 194.328 135.315 
400.73 196.928 135.829 426.072 197.034 136.08 385.97 208.089 135.448 
384.147 209.094 134.56 381.238 214.377 135.291 382.739 212.824 135.831 
380.578 215.647 135.489 425.105 215.512 136.255 378.567 221.808 135.791 
378.438 222.235 136.097 424.456 222.697 136.139 424.143 226.645 136.21 
378.578 230.464 136.486 380.873 234.019 136.04 416.147 244.899 136.073 
417.583 177.875 135.451 418.69 177.772 135.377 416.245 178.512 135.82 
418.112 178.558 136.409 421.369 179.157 135.81 414.806 179.709 136.001 
422.251 180.044 135.731 381.593 214.656 136.172 382.149 214.568 136.682 
379.723 218.269 136.175 378.86 221.12 136.649 378.362 222.69 135.887 
378.073 225.958 137.06 378.117 228.318 136.884 384.285 236.804 137.029 
391.147 239.482 137.258 396.756 240.911 137.379 422.05 241.125 137.702 
416.296 245.761 137.456 419.608 245.504 138.226 420.219 245.456 139.023 
419.095 178.189 136.024 419.817 178.552 136.297 415.536 180.781 137.007 
423.532 183.18 136.745 425.397 190.527 136.736 384.49 213.134 137.334 
380.839 217.628 137.439 378.584 222.136 137.015 378.044 228.918 138.267 
380.415 234.302 137.807 422.909 237.549 138.291 422.662 239.187 138.744 
412.99 245.529 137.984 418.333 246.086 138.291 420.932 244.716 139.553 
420.072 246.026 139.702 417.484 181.131 138.052 418.748 180.49 138.093 
421.747 180.466 136.958 415.557 184.766 138.293 425.686 194.424 138.229 
412.709 197.276 138.886 425.975 205.092 138.858 381.433 218.07 138.348 
380.319 219.489 138.224 382.107 218.367 138.979 378.253 226.44 138.435 
378.206 227.402 138.667 423.853 227.618 139.205 378.182 230.503 138.161 
379.692 233.717 138.75 423.074 235.842 138.958 380.868 235.042 139.228 
384.934 237.524 139.027 386.295 238.161 139.37 392.662 240.352 139.196 
422.104 241.438 139.312 410.847 245.466 139.417 413.467 246.131 139.404 
418.991 246.685 139.914 420.408 245.937 140.455 419.078 179.809 137.646 
420.109 179.495 137.16 419.136 181.83 138.806 422.267 182.148 137.971 
423.026 183.48 137.979 419.347 185.056 139.719 423.75 187 138.857 
423.958 188.436 139.122 424.784 191.118 138.819 412.44 207.638 140.449 
425.671 208.131 139.707 379.49 221.864 138.604 378.623 223.916 138.277 
378.523 225.745 138.866 378.419 227.812 139.466 378.094 229.341 139.463 
378.049 229.745 139.359 378.091 230.258 139.337 381.835 235.759 139.886 
384.131 237.111 139.903 421.195 244.516 140.657 413.307 246.296 140.591 
419.823 246.568 140.717 421.856 182.09 138.248 419.98 183.287 139.357 
422.253 183.386 138.826 419.879 186.471 140.083 423.105 186.677 139.409 
419.747 193.636 141.331 425.896 201.84 140.688 404.698 215.506 140.786 
386.466 217.919 140.283 382.806 219.782 139.984 424.456 219.195 140.398 
380.696 222.415 139.961 379.351 224.031 139.453 379.134 227.276 140.413 
423.443 226.751 140.85 378.242 230.211 139.988 378.288 230.599 139.987 
378.597 231.443 140.03 379.684 233.658 140.058 380.377 234.568 140.22 
380.574 234.784 140.113 382.241 235.831 140.528 384.031 236.927 140.546 
385.685 237.798 140.667 422.113 240.899 140.762 421.565 243.301 141.077 
407.283 244.382 140.808 420.638 245.715 141.577 421.829 184.723 139.5 
421.82 185.732 139.767 421.09 186.909 140.204 422.268 188.552 140.424 
[...]
POINT_DATA 1145
SCALARS scalars float
LOOKUP_TABLE default
1 1 1 1 1 1 1 1 1 
1 1 1 1 1 1 1 1 1 
1 1 1 1 1 1 1 1 1 
1 1 1 1 1 1 1 1 1 
1 1 1 1 1 1 1 1 1 
1 1 1 1 1 1 1 1 1 
1 1 1 1 1 1 1 1 1 
1 1 1 1 1 1 1 1 1 
1 1 1 1 1 1 1 1 1 
1 1 1 1 1 1 1 1 1 
1 1 1 1 1 1 1 1 1 
1 1 1 1 1 1 1 1 1 
1 1 1 1 1 1 1 1 1 
1 1 1 1 1 1 1 1 1 
1 1 1 1 1 1 1 1 1 
1 1 1 1 1 1 1 1 1 
1 1 1 1 1 1 1 1 1 
1 1 1 1 1 1 1 1 1 
1 1 1 1 1 1 1 1 1 
1 1 1 1 1 1 1 1 1 
1 1 1 1 1 1 1 1 1 
1 1 1 1 1 1 1 1 1 
1 1 1 1 1 1 1 1 1 
1 1 1 1 1 1 1 1 1 
1 1 1 1 1 1 1 1 1 
1 1 1 1 1 1 1 1 1 
1 1 1 1 1 1 1 1 1 
1 1 1 1 1 1 1 1 1 
1 1 1 1 1 1 1 1 1 
1 1 1 1 1 1 1 1 1 
1 1 1 1 1 1 1 1 1 
1 1 1 1 1 1 1 1 1 
1 1 1 1 1 1 1 1 1 
1 1 1 1 1 1 1 1 1 
1 1 1 1 1 1 1 1 1 
1 1 1 1 1 1 1 1 1 
1 1 1 1 1 1 1 1 1 
1 1 1 1 1 1 1 1 1 
1 1 1 1 1 1 1 1 1 
1 1 1 1 1 1 1 1 1 
1 1 1 1 1 1 1 1 1 
1 1 1 1 1 1 1 1 1 
1 1 1 1 1 1 1 1 1 
1 1 1 1 1 1 1 1 1 
1 1 1 1 1 1 1 1 1 
1 1 1 1 1 1 1 1 1 
1 1 1 1 1 1 1 1 1 
1 1 1 1 1 1 1 1 1 
1 1 1 1 1 1 1 1 1 
1 1 1 1 1 1 1 1 1 
1 1 1 1 1 1 1 1 1 
1 1 1 1 1 1 1 1 1 
1 1 1 1 1 1 1 1 1 
1 1 1 1 1 1 1 1 1 
1 1 1 1 1 1 1 1 1 
1 1 1 1 1 1 1 1 1 
1 1 1 1 1 1 1 1 1 
1 1 1 1 1 1 1 1 1 
1 1 1 1 1 1 1 1 1 
1 1 1 1 1 1 1 1 1 
1 1 1 1 1 1 1 1 1 
1 1 1 1 1 1 1 1 1 
1 1 1 1 1 1 1 1 1 
1 1 1 1 1 1 1 1 1 
1 1 1 1 1 1 1 1 1 
1 1 1 1 1 1 1 1 1 
1 1 1 1 1 1 1 1 1 
1 1 1 1 1 1 1 1 1 
1 1 1 1 1 1 1 1 1 
1 1 1 1 1 1 1 1 1 
1 1 1 1 1 1 1 1 1 
1 1 1 1 1 1 1 1 1 
1 1 1 1 1 1 1 1 1 
1 1 1 1 1 1 1 1 1 
1 1 1 1 1 1 1 1 1 
1 1 1 1 1 1 1 1 1 
1 1 1 1 1 1 1 1 1 
1 1 1 1 1 1 1 1 1 
1 1 1 1 1 1 1 1 1 
1 1 1 1 1 1 1 1 1 
1 1 1 1 1 1 1 1 1 
1 1 1 1 1 1 1 1 1 
1 1 1 1 1 1 1 1 1 
1 1 1 1 1 1 1 1 1 
1 1 1 1 1 1 1 1 1 
1 1 1 1 1 1 1 1 1 
1 1 1 1 1 1 1 1 1 
1 1 1 1 1 1 1 1 1 
1 1 1 1 1 1 1 1 1 
1 1 1 1 1 1 1 1 1 
1 1 1 1 1 1 1 1 1 
1 1 1 1 1 1 1 1 1 
1 1 1 1 1 1 1 1 1 
1 1 1 1 1 1 1 1 1 
1 1 1 1 1 1 1 1 1 
1 1 1 1 1 1 1 1 1 
1 1 1 1 1 1 1 1 1 
1 1 1 1 1 1 1 1 1 
1 1 1 1 1 1 1 1 1 
1 1 1 1 1 1 1 1 1 
1 1 1 1 1 1 1 1 1 
1 1 1 1 1 1 1 1 1 
1 1 1 1 1 1 1 1 1 
1 1 1 1 1 1 1 1 1 
1 1 1 1 1 1 1 1 1 
1 1 1 1 1 1 1 1 1 
1 1 1 1 1 1 1 1 1 
1 1 1 1 1 1 1 1 1 
1 1 1 1 1 1 1 1 1 
1 1 1 1 1 1 1 1 1 
1 1 1 1 1 1 1 1 1 
1 1 1 1 1 1 1 1 1 
1 1 1 1 1 1 1 1 1 
1 1 1 1 1 1 1 1 1 
1 1 1 1 1 1 1 1 1 
1 1 1 1 1 1 1 1 1 
1 1 1 1 1 1 1 1 1 
1 1 1 1 1 1 1 1 1 
1 1 1 1 1 1 1 1 1 
1 1 1 1 1 1 1 1 1 
1 1 1 1 1 1 1 1 1 
1 1 1 1 1 1 1 1 1 
1 1 1 1 1 1 1 1 1 
1 1 1 1 1 1 1 1 1 
1 1 1 1 1 1 1 1 1 
1 1 1 1 1 1 1 1 1 
1 1 1 1 1 1 1 1 1 
1 1 
NORMALS Normals float
-0.24801 -0.145431 -0.957779 -0.0127802 -0.343111 -0.939208 0.024102 -0.30148 -0.953168 
0.377372 -0.22084 -0.899344 -0.232821 -0.383913 -0.893535 0.0474996 -0.15059 -0.987454 
0.346292 -0.0264097 -0.937755 -0.104458 -0.134203 -0.985433 0.33352 0.163423 -0.928471 
0.0267986 0.133148 -0.990734 0.261063 0.288577 -0.921178 -0.168449 0.151554 -0.97399 
-0.2619 -0.50024 -0.825329 -0.400576 -0.177909 -0.898825 -0.272861 0.000353006 -0.962053 
-0.390752 -0.112081 -0.913647 -0.0471439 0.242755 -0.968942 0.0146351 -0.486478 -0.87357 
0.491117 -0.174897 -0.853355 0.403084 -0.378015 -0.833444 0.548422 -0.324243 -0.770779 
-0.523847 -0.480044 -0.703663 -0.472595 -0.461733 -0.750638 0.397072 0.38795 -0.831763 
-0.307462 0.0244611 -0.951246 0.126729 -0.663246 -0.737594 0.555152 -0.444245 -0.703174 
0.189706 -0.550084 -0.813277 -0.196798 -0.652229 -0.73203 -0.10432 -0.624582 -0.77396 
0.232023 -0.480535 -0.845725 0.681017 -0.249817 -0.688336 -0.512505 -0.422785 -0.74739 
0.633141 0.292894 -0.716481 0.170557 0.330969 -0.9281 0.306384 -0.667356 -0.678796 
-0.00704075 -0.696096 -0.717915 0.422255 -0.593495 -0.685175 0.648819 -0.483703 -0.587422 
0.369387 -0.606652 -0.703937 0.738366 -0.366043 -0.566417 0.741692 0.0476967 -0.669043 
0.739577 0.292054 -0.606407 -0.532497 -0.317312 -0.784703 0.584548 0.343949 -0.734849 
-0.418128 -0.191825 -0.887903 0.263564 0.391513 -0.881619 -0.297996 -0.0839802 -0.950866 
-0.167373 0.124321 -0.978024 0.11398 -0.795397 -0.595275 0.344642 -0.805758 -0.481639 
-0.155307 -0.793005 -0.589087 -0.364596 -0.741261 -0.563561 -0.388372 -0.675242 -0.627069 
0.901935 -0.13141 -0.411394 -0.467681 -0.155091 -0.870185 -0.129854 0.148584 -0.980337 
0.500389 -0.718466 -0.483133 0.649622 -0.676022 -0.347831 -0.482699 -0.665188 -0.569673 
-0.621374 -0.419693 -0.661628 -0.47292 -0.344661 -0.810898 0.0333512 0.203513 -0.978504 
-0.46564 0.000108989 -0.884974 0.103776 -0.816756 -0.567574 0.958205 -0.0186463 -0.285473 
-0.43111 0.0111165 -0.902231 0.389742 -0.809985 -0.438207 0.0365003 -0.833053 -0.551987 
0.360751 -0.792618 -0.491544 0.718965 -0.598152 -0.353981 0.885096 -0.335769 -0.32228 
0.88946 0.227566 -0.396326 -0.654132 -0.337124 -0.677095 -0.678741 -0.196304 -0.707655 
0.383296 0.305581 -0.87161 -0.0058833 -0.909726 -0.415168 0.199453 -0.938976 -0.280255 
-0.655943 -0.683896 -0.319413 -0.597732 -0.636667 -0.487208 0.577045 0.415404 -0.703178 
-0.767364 -0.306573 -0.563175 0.188421 0.212192 -0.958891 -0.700275 0.129998 -0.701936 
-0.554145 0.183587 -0.811923 0.0427322 0.0874681 -0.99525 0.0684306 0.133591 -0.988671 
0.120068 0.1528 -0.980936 -0.191247 -0.91456 -0.356376 -0.419939 -0.83913 -0.345705 
0.925594 -0.362059 -0.110402 -0.691127 -0.606844 -0.392535 -0.725433 -0.498848 -0.474234 
0.76057 0.293035 -0.579365 0.546176 0.336201 -0.767242 0.294243 0.198513 -0.934887 
0.339471 0.0114954 -0.940546 -0.16461 0.343187 -0.92473 0.00109537 0.356779 -0.934188 
0.499773 -0.824008 -0.266905 0.680822 -0.689475 -0.247195 0.871225 -0.473366 -0.129969 
-0.698979 -0.711618 -0.0709076 0.978612 -0.17256 -0.111991 -0.697851 -0.711341 -0.0836573 
-0.76242 -0.484538 -0.428882 0.543896 0.236579 -0.805114 -0.749644 -0.225283 -0.62232 
-0.760229 -0.0977412 -0.64226 0.25882 -0.0111315 -0.965861 0.414834 -0.0221456 -0.909628 
-0.348182 0.329942 -0.877444 -0.236209 0.47983 -0.844967 0.372619 0.120322 -0.920151 
-0.107115 0.474574 -0.873674 0.196021 0.331715 -0.92279 -0.687572 -0.723541 0.0610986 
-0.674379 -0.736945 -0.046095 -0.770003 -0.625656 -0.125101 -0.772703 -0.585963 -0.244084 
-0.713786 -0.66892 -0.207498 -0.834731 -0.433597 -0.339437 -0.793275 -0.423038 -0.437896 
-0.777972 -0.493618 -0.388716 -0.664959 -0.448309 -0.597368 -0.767862 -0.241635 -0.593297 
0.474784 -0.0357841 -0.879375 -0.709392 -0.0494264 -0.703079 0.560884 -0.057863 -0.82587 
0.645677 0.0692098 -0.760468 -0.483345 0.358018 -0.798874 0.663611 0.155912 -0.73165 
0.423493 0.297846 -0.855536 0.562756 0.298025 -0.77103 -0.0281411 0.514151 -0.857238 
0.303843 0.364273 -0.880332 -0.00127436 -0.991587 -0.129433 -0.451884 -0.868232 -0.204876 
-0.793509 -0.59816 -0.112016 -0.777753 -0.628529 -0.00715246 -0.775741 -0.627057 -0.0708885 
0.746236 0.177835 -0.641488 0.568461 0.0661792 -0.820044 0.837248 -0.0315607 -0.545912 
0.826739 0.0539003 -0.559998 0.882432 0.128464 -0.45256 0.867307 0.0981127 -0.48801 
-0.342073 0.521031 -0.781993 0.834376 0.195373 -0.515408 -0.186561 0.602903 -0.775695 
0.419963 0.350125 -0.837283 0.652539 0.293248 -0.698712 -0.227669 -0.972643 -0.046178 
0.206307 -0.973714 -0.096535 0.453548 -0.878631 -0.149338 -0.681865 -0.707115 0.187213 
-0.798891 -0.586129 0.135001 -0.74149 -0.606436 0.287102 -0.721165 -0.691489 0.0420078 
-0.731128 -0.657655 0.181501 -0.657279 -0.727926 0.195213 -0.813979 -0.577817 0.0597126 
-0.861519 -0.503467 0.0656211 -0.809277 -0.555291 -0.19163 -0.796116 -0.601059 -0.0701993 
-0.903788 -0.348743 -0.248085 -0.937889 -0.323359 -0.12571 0.794516 0.138887 -0.591147 
-0.936592 -0.259603 -0.235377 0.890904 0.0580623 -0.450465 0.820748 0.0971792 -0.562965 
0.86593 0.056545 -0.496958 -0.681866 0.231641 -0.693831 -0.540033 0.462311 -0.703302 
-0.268669 0.676004 -0.686175 0.821918 0.239269 -0.516915 0.640114 0.372764 -0.671789 
0.243059 0.536535 -0.808117 -0.642566 -0.750406 0.154918 -0.6118 -0.684868 0.395798 
0.926435 -0.373781 -0.0447868 -0.535242 -0.764261 0.35975 0.991759 0.0392807 -0.121946 
-0.75954 -0.650323 0.0133944 -0.794903 -0.60245 0.0719915 -0.809897 -0.545892 0.214637 
0.961824 0.0808361 -0.261459 -0.84608 -0.522536 0.105383 -0.890703 -0.44797 -0.0772748 
-0.898171 -0.426388 -0.107154 -0.893323 -0.440617 0.0884944 0.910537 0.104984 -0.399877 
-0.864296 -0.106173 -0.491649 -0.846608 0.0378394 -0.53087 -0.708057 0.359655 -0.607703 
-0.480013 0.659981 -0.577939 -0.190424 0.820327 -0.539261 0.864804 0.282598 -0.415033 
-0.146194 0.741715 -0.654589 -0.0393569 0.712529 -0.700538 0.64143 0.428148 -0.636598 
0.56163 0.522043 -0.641906 0.0104404 -0.996204 0.0864265 -0.520528 -0.832469 0.189857 
0.771576 -0.635506 -0.0283311 -0.629519 -0.67829 0.378983 0.840527 -0.541747 0.00486746 
-0.555748 -0.632032 0.540073 0.982584 -0.156551 0.100105 -0.518569 -0.625216 0.583259 
-0.707621 -0.619134 0.340508 -0.670668 -0.644978 0.366345 -0.70185 -0.539553 0.46507 
-0.757098 -0.607125 0.241251 0.915357 0.0908074 -0.39227 -0.898769 -0.413794 0.144877 
-0.941478 -0.319425 -0.107644 -0.954702 -0.244361 0.169799 -0.950247 -0.190915 -0.246134 
-0.893426 0.0693861 -0.44382 0.95894 -0.0487185 -0.279392 0.964447 0.0698371 -0.254881 
0.9469 0.138004 -0.290407 0.93821 0.154219 -0.309803 0.890072 0.274726 -0.363728 
0.279864 -0.952161 0.122745 0.525629 -0.841285 0.126307 -0.313245 -0.471434 0.824395 
-0.504226 -0.459508 0.731169 -0.45715 -0.408027 0.790271 -0.623698 -0.646038 0.440041 
-0.503075 -0.534711 0.678969 -0.674431 -0.579276 0.457802 -0.931233 -0.312219 0.187949 
-0.927304 -0.334119 -0.168734 0.989094 0.0687574 -0.130255 0.972051 0.130448 -0.195193 
0.857793 0.399928 -0.322876 0.671994 0.573644 -0.468356 -0.412965 -0.824451 0.386964 
-0.508946 -0.735853 0.446648 -0.627915 -0.601846 0.493461 -0.680519 -0.456228 0.573367 
-0.52633 -0.562598 0.637542 -0.463382 -0.482396 0.743351 -0.325444 -0.359031 0.874747 
-0.416106 -0.396311 0.818409 -0.286028 -0.275822 0.917666 -0.735379 -0.510162 0.44604 
-0.718735 -0.507517 0.475234 -0.850873 -0.356423 0.385977 0.992309 0.0826172 -0.0921768 
-0.880231 -0.371532 0.295225 0.978637 0.115571 -0.170041 -0.859683 -0.492297 0.136337 
-0.931272 -0.310492 0.190595 -0.955334 -0.17273 -0.239796 -0.909281 0.116484 -0.39955 
-0.749351 0.494884 -0.439958 -0.534906 0.783533 -0.316151 -0.13172 0.722242 -0.678982 
0.28197 0.727045 -0.626018 0.467016 0.744165 -0.477614 -0.308324 -0.82572 0.472359 
-0.145947 -0.954248 0.260981 -0.57211 -0.565348 0.594199 0.616832 -0.758673 0.209603 
0.838439 -0.476675 0.264199 -0.596265 -0.22799 0.769733 0.943249 -0.2295 0.240026 
-0.499802 -0.489145 0.714797 0.983313 -0.139963 0.116212 -0.285704 -0.385606 0.877315 
-0.203672 -0.243899 0.948172 0.999875 -0.00359658 0.0154069 -0.505422 -0.459621 0.730272 
-0.757921 -0.416959 0.501697 -0.725482 -0.572562 0.381901 -0.672183 -0.499924 0.546118 
-0.833185 -0.409262 0.371896 0.990468 0.072955 -0.116835 -0.934011 -0.355668 -0.0335258 
-0.975643 -0.219116 -0.0104624 0.977287 0.109418 -0.181485 0.992262 0.0202025 -0.122506 
-0.914585 0.273554 -0.297829 -0.67884 0.620948 -0.391918 0.0608573 0.870216 -0.488896 
-0.148967 -0.827171 0.541846 0.107126 -0.904324 0.413186 -0.307039 -0.659403 0.686232 
-0.102852 -0.705997 0.700707 0.531687 -0.753966 0.385804 -0.465912 -0.575395 0.672195 
0.650834 -0.651095 0.390502 -0.676591 -0.486787 0.552507 -0.561856 -0.48305 0.671551 
-0.874453 -0.329512 0.356025 -0.914466 -0.362192 0.18047 -0.992381 -0.100416 -0.0713913 
-0.995892 -0.0757573 -0.0495972 -0.9926 0.0526638 -0.109414 -0.446017 0.839445 -0.310486 
-0.314645 0.896185 -0.312811 -0.157673 0.959332 -0.234138 0.957915 0.266896 -0.105665 
0.0212549 0.877027 -0.479971 0.580512 0.652004 -0.487747 0.731825 0.524518 -0.435102 
0.0906531 -0.805703 0.585341 0.335342 -0.848207 0.409988 -0.449867 -0.38411 0.806275 
0.848825 -0.359792 0.387357 0.959903 -0.187389 0.2085 -0.323591 -0.472966 0.819507 
-0.669648 -0.487436 0.560337 -0.943893 -0.24336 0.223251 -0.999988 -0.000621104 0.00492139 
-0.635501 0.747679 -0.192651 0.979824 0.189395 -0.0638281 0.978114 0.20484 -0.0365331 
-0.288132 0.843349 -0.453589 0.0885622 0.893505 -0.440234 0.860773 0.437078 -0.260829 
0.635023 0.704633 -0.316603 -0.377528 -0.385675 0.84186 0.0361627 -0.512354 0.858013 
0.640693 -0.579028 0.504222 -0.452049 -0.199091 0.869491 0.888427 -0.188694 0.418439 
-0.309892 -0.192469 0.931087 0.99455 0.0373152 0.0973509 -0.564095 -0.530654 0.632616 
-0.670177 -0.377831 0.638832 -0.39725 -0.528685 0.750123 -0.937557 -0.141287 0.317843 
-0.964653 -0.125031 0.231973 0.945596 0.150275 0.288559 -0.974873 0.196587 -0.104765 
-0.841935 0.522164 -0.135977 0.993327 0.0915739 0.0701145 -0.663399 0.739954 -0.111221 
-0.425245 0.904194 0.0399978 -0.309995 0.950161 0.0331222 -0.256985 0.953888 -0.155105 
0.983543 0.179777 -0.0179951 -0.287657 0.929688 -0.230074 -0.165361 0.953262 -0.252878 
0.334516 0.881881 -0.332243 0.714084 0.670099 -0.202613 -0.0634897 -0.614955 0.786002 
0.26207 -0.5998 0.756015 -0.032666 -0.395958 0.917687 0.648116 -0.459988 0.606924 
0.78251 -0.350569 0.514567 -0.204863 -0.175422 0.962943 0.845076 -0.314933 0.432046 
0.681592 -0.270337 0.679964 0.888061 -0.138407 0.438397 -0.310067 -0.110857 0.944229 
0.990221 0.0825003 0.112502 -0.783118 -0.312588 0.537601 -0.862636 -0.240004 0.445261 
-0.90298 -0.176854 0.391599 -0.918751 -0.201464 0.339572 -0.919393 -0.101572 0.379999 
-0.989318 0.00186395 0.145764 -0.957233 0.215362 0.193196 -0.560158 0.822795 0.096085 
-0.496306 0.868099 -0.00917295 0.937341 0.348408 -0.00181332 -0.329133 0.942822 -0.0525278 
0.627728 0.768847 -0.121787 0.465796 -0.484195 0.740668 -0.0201661 -0.297556 0.954491 
0.407152 -0.39835 0.821915 -0.255245 -0.180565 0.949867 0.549007 -0.337873 0.764482 
-0.234636 -0.215734 0.947842 0.99497 0.0648563 0.0763382 -0.120238 -0.245899 0.961809 
-0.121771 -0.435242 0.89204 -0.272583 -0.387963 0.880445 0.957916 0.139112 0.251088 
-0.58514 -0.306201 0.750901 -0.655828 -0.28235 0.70012 -0.741575 -0.204263 0.639017 
0.862456 0.221075 0.455297 -0.886982 -0.00573205 0.461768 -0.880535 0.194472 0.432249 
-0.899829 0.330004 0.285316 -0.782998 0.621209 0.0318241 -0.728644 0.548782 0.409775 
-0.629904 0.768002 0.115736 -0.53268 0.744399 0.402645 -0.417996 0.852928 0.312717 
-0.38516 0.899972 0.20421 0.960139 0.129278 0.247831 0.959956 0.278313 0.0320471 
-0.316043 0.936637 0.151087 0.861595 0.500377 0.0853017 0.243234 -0.261566 0.934035 
0.345906 -0.330209 0.878243 0.150418 -0.242567 0.958403 0.280419 -0.316225 0.906293 
-0.161146 -0.210364 0.964251 0.0670999 -0.302378 0.950823 0.632231 -0.236591 0.737773 
0.968124 0.111696 0.224187 -0.109003 -0.352976 0.929261 -0.152618 -0.349606 0.924383 
-0.157043 -0.354986 0.921587 0.872115 0.0712746 0.484082 -0.230822 -0.301805 0.925006 
0.864895 0.127829 0.485404 -0.385392 -0.218511 0.896507 -0.842826 0.299212 0.447344 
-0.70367 0.296779 0.645578 -0.767519 0.464119 0.442163 -0.572694 0.72199 0.388268 
-0.525251 0.646039 0.553846 0.92648 0.0428462 0.373897 -0.519579 0.774423 0.36098 
-0.35616 0.91145 0.205936 -0.27287 0.926383 0.259533 -0.138975 0.980001 0.142423 
-0.330717 0.929774 0.161699 -0.330134 0.924393 0.191074 -0.194617 0.977829 0.0772923 
0.0966442 0.988575 -0.115666 0.434889 0.893692 0.110387 0.414699 -0.292787 0.861569 
0.136817 -0.227804 0.964047 -0.00702029 -0.226353 0.97402 0.187886 -0.208045 0.959904 
0.940745 -0.0787641 0.32984 0.968773 0.0426607 0.244254 0.923487 0.0965952 0.37127 
0.863647 0.170057 0.474547 0.868052 0.0605247 0.492771 0.775118 0.243899 0.582843 
-0.608829 -0.146533 0.779651 -0.681257 0.0267625 0.731555 -0.501461 0.191893 0.843631 
-0.532922 0.393244 0.749235 -0.529757 0.660277 0.532346 -0.454092 0.58683 0.670397 
-0.460919 0.719094 0.520055 0.82932 0.151284 0.537905 -0.316393 0.830678 0.458115 
-0.354297 0.803139 0.479001 -0.229104 0.93735 0.262462 -0.260148 0.940724 0.217627 
-0.313069 0.870471 0.379827 0.883506 0.296321 0.362783 -0.272383 0.928539 0.252236 
0.795054 0.56331 0.224877 -0.0175583 0.959937 0.279667 0.696295 0.674631 0.245046 
0.287991 -0.284426 0.91442 0.601122 -0.198425 0.774132 0.482349 -0.16196 0.860876 
0.312325 -0.37338 0.873522 0.670791 -0.378789 0.637619 -0.0566966 -0.308739 0.949455 
-0.30725 -0.168053 0.936673 -0.30647 0.00442093 0.95187 -0.133505 -0.275237 0.952061 
-0.0173539 -0.256175 0.966475 0.047776 0.000725274 0.998858 0.0178278 -0.140439 0.989929 
0.712337 0.106906 0.693647 -0.377516 -0.0544847 0.924399 -0.169529 -0.122112 0.977931 
-0.383207 0.196511 0.902516 0.863737 0.0342162 0.502779 -0.366584 0.299504 0.88086 
-0.28463 0.405736 0.868541 -0.531597 0.564452 0.631506 -0.502407 0.698417 0.509706 
-0.348437 0.608475 0.712987 0.788549 0.128713 0.601352 -0.421872 0.595869 0.683347 
-0.200274 0.842752 0.49966 -0.299095 0.882051 0.364045 0.769276 0.451391 0.452173 
-0.25548 0.871391 0.418817 -0.128277 0.909826 0.394667 -0.04807 0.861062 0.506222 
0.234019 0.852098 0.468149 0.522892 0.768458 0.368857 -0.117606 0.0861377 0.989317 
-0.150072 -0.0144767 0.988569 0.653916 0.180904 0.734621 -0.0637474 -0.099119 0.993032 
0.793729 0.179608 0.58115 -0.0429802 -0.271565 0.96146 0.714726 0.081308 0.694662 
0.129887 0.0542507 0.990044 0.384612 0.0525867 0.921579 0.296873 0.145039 0.943838 
0.0976589 -0.057275 0.993571 0.459135 0.192522 0.867255 0.511022 0.0980565 0.853956 
-0.125128 -0.194676 0.972854 0.548371 0.00888984 0.836188 -0.289579 0.171108 0.941736 
0.665733 0.139859 0.732966 0.737646 -0.00715316 0.67515 -0.430222 0.627145 0.649306 
-0.232038 0.755179 0.613077 -0.211825 0.769302 0.602747 -0.190183 0.704756 0.683483 
0.781748 0.0982448 0.615807 -0.214809 0.760493 0.612787 -0.291094 0.689297 0.663425 
0.749565 0.214953 0.626058 -0.286438 0.838984 0.462664 -0.224591 0.835551 0.501412 
0.109852 0.699154 0.706482 0.435479 0.595611 0.674986 0.724989 -0.28165 0.628541 
0.15163 -0.321707 0.934619 -0.13238 -0.211873 0.96829 0.849611 -0.0612279 0.523844 
0.119735 -0.0965481 0.9881 0.100204 -0.064487 0.992875 -0.14527 -0.00876697 0.989353 
0.217249 0.00294095 0.976112 0.868889 0.0652989 0.490681 -0.121815 -0.0116076 0.992485 
0.75024 0.136582 0.646904 0.110046 0.102901 0.988585 0.433371 0.0925868 0.896447 
0.38051 0.0768989 0.921574 -0.165343 -0.000737663 0.986236 0.25316 -0.081533 0.963982 
-0.34739 0.301704 0.88786 -0.171463 0.50025 0.848735 -0.239772 0.639038 0.730849 
-0.204309 0.564538 0.799722 0.56567 0.0619693 0.8223 -0.125433 0.699151 0.703885 
0.573397 0.244999 0.781787 -0.132672 0.565958 0.813689 0.0465623 0.503518 0.862729 
0.22994 0.44535 0.865327 0.381048 0.412615 0.827376 -0.074736 0.680318 0.729097 
0.555614 0.46045 0.6923 0.454533 -0.353809 0.817446 0.688085 -0.103362 0.71823 
0.305526 -0.139853 0.941857 0.850948 0.0213534 0.524816 0.664024 -0.0280116 0.747186 
0.353224 0.0343861 0.934906 0.875055 0.41596 -0.247499 0.170126 0.0394238 0.984633 
0.666667 0.125954 0.734636 0.644374 0.127356 0.754031 -0.0184013 -0.185778 0.982419 
-0.0733394 0.0784591 0.994216 -0.124154 0.249794 0.960307 -0.020157 -0.0001802 0.999797 
-0.117323 0.457082 0.881653 0.0324182 0.105263 0.993916 0.145313 0.0126945 0.989304 
-0.144007 0.357516 0.922737 -0.104652 0.57764 0.809556 0.0975617 0.276815 0.955958 
0.327937 0.185077 0.926393 0.547168 0.174402 0.818652 0.571443 -0.212238 0.792722 
0.557336 -0.0615667 0.828001 -0.110844 0.152012 0.982144 -0.113368 0.456783 0.882325 
-0.051182 0.337129 0.940066 -0.0643393 0.548895 0.833412 0.190183 -0.145976 -0.970835 
0.633155 0.06266 -0.771485 0.119767 0.0431339 -0.991865 -0.125934 0.0692208 -0.989621 
-0.163077 0.248789 -0.95473 0.06488 0.229373 -0.971174 -0.214145 0.153329 -0.964693 
0.00325664 -0.0134666 -0.999904 0.247416 0.131167 -0.95999 0.689946 0.124789 -0.713023 
0.73631 0.134996 -0.663041 0.440115 0.137084 -0.887416 0.505026 0.0581779 -0.861141 
0.424501 0.193803 -0.884443 0.54931 0.182322 -0.815486 -0.0829341 -0.227111 -0.970331 