# vtk DataFile Version 4.2
vtk output
ASCII
DATASET POLYDATA
POINTS 560 float
218.624 184.372 198.85 219.081 185.497 198.566 219.094 188.004 198.468 
217.74 188.986 198.824 219.456 189.129 198.637 220.349 190.117 199.016 
219.282 191.705 199.575 219.455 191.913 199.711 219.726 191.853 199.672 
219.763 183.718 199.197 221.01 184.824 199.27 216.656 187.27 199.071 
221.794 189.004 199.299 217.61 190.808 199.668 218.332 182.167 199.792 
216.936 184.146 199.383 223.274 187.013 200.185 216.007 190.274 200.307 
221.966 190.719 200.001 218.483 192.594 200.884 220.269 192.598 200.486 
219.514 192.858 200.849 220.539 192.773 200.738 214.185 187.439 200.91 
222.39 191.792 200.963 218.909 193.128 201.471 224.501 189.255 201.706 
221.034 193.367 201.765 221.287 193.361 201.89 220.173 193.565 202.152 
221.127 193.469 202.054 213.643 180.439 202.303 211.427 183.304 203.255 
224.818 185.766 202.036 222.904 192.051 201.774 221.832 193.085 201.932 
221.084 193.571 202.444 211.344 186.01 204.082 215.069 191.608 202.988 
219.28 193.895 203.772 222.736 174.83 204.295 223.81 177.853 203.958 
216.274 193.274 205.112 222.215 193.259 203.345 219.935 172.389 205.29 
222.55 174.083 204.516 213.603 176.588 204.61 209.74 181.718 205.95 
214.662 192.155 205.199 217.19 193.82 205.865 219.821 194.091 205.024 
226.256 170.046 207.566 226.517 169.964 207.827 224.471 169.634 207.679 
226.286 170.265 207.426 225.903 171.496 206.7 214.417 173.849 206.812 
216.66 172.87 206.274 212.111 176.116 206.843 211.91 177.187 205.75 
210.322 179 206.6 209.544 182.283 206.421 209.509 183.117 206.753 
212.175 189.44 206.593 225.953 190.383 206.082 222.246 193.551 205.889 
217.907 194.068 206.615 223.99 169.02 208.413 225.164 169.501 207.895 
225.753 169.559 207.982 227.725 170.466 208.06 229.152 170.747 208.526 
227.115 172.944 206.944 215.374 172.998 207.043 209.53 183.635 207.379 
227.957 186.23 207.303 223.893 168.9 208.533 223.875 168.868 208.599 
223.722 168.925 208.601 224.264 168.942 208.748 224.878 169.015 208.956 
229.523 170.588 209.103 219.298 170.085 208.726 229.939 170.891 209.127 
230.205 171.275 209.042 230.592 171.179 209.334 214.986 172.787 208.124 
230.651 171.453 209.318 230.71 171.27 209.418 227.578 175.131 207.189 
211.408 176.558 208.149 209.344 183.092 208.426 212.226 189.75 208.196 
225.557 191.275 208.055 221.034 193.98 206.802 223.898 168.862 208.74 
222.868 168.895 208.935 227.371 169.434 210.025 228.679 169.907 209.902 
231.049 171.391 209.811 231.944 171.633 210.499 231.503 172.674 209.709 
232.612 172.539 210.421 234.528 172.635 211.3 234.339 172.569 211.323 
234.405 172.742 211.295 234.621 172.626 211.321 234.554 172.589 211.331 
234.634 172.602 211.364 234.67 172.651 211.375 209.523 180.143 208.391 
214.205 192.175 209.168 220.819 193.92 208.061 220.957 168.785 210.698 
221.674 168.595 210.466 218.501 170.264 209.728 226.792 169.159 210.883 
233.183 171.971 211.277 233.356 172.816 210.852 233.835 172.359 211.374 
234.544 172.563 211.461 234.673 172.635 211.453 234.704 172.739 211.502 
211.519 176.37 209.321 209.385 182.685 209.379 212.469 189.973 210.194 
215.27 192.871 209.747 218.452 170.275 210.968 234.879 172.743 212.165 
236.463 173.529 213.354 236.688 173.664 213.471 236.637 173.593 213.442 
236.712 173.616 213.554 233.644 174.321 211.261 209.541 180.703 209.597 
209.536 181.724 210.005 230.042 181.575 210.525 209.578 182.75 210.052 
226.395 190.371 211.137 221.959 193.181 210.111 216.687 193.538 209.826 
219.074 193.767 209.742 221.471 168.52 211.743 220.011 169.319 211.615 
217.12 171.568 211.681 214.396 173.651 210.977 235.322 173.362 212.492 
236.73 173.835 213.763 211.552 177.474 211.254 210.207 179.976 210.781 
225.984 190.503 212.213 215.097 192.367 211.051 236.757 173.55 214.139 
235.447 175.448 213.419 212.797 189.688 212.043 213.723 190.808 211.992 
224.393 191.565 211.991 215.814 192.624 211.194 219.007 192.581 212.341 
220.725 192.947 211.449 236.641 175.086 214.787 235.652 176.02 214.215 
211.662 185.449 212.59 230.779 184.298 214.212 212.283 187.499 212.827 
221 167.009 215.017 221 167.009 215.017 221 167.009 215.017 
221 167.009 215.017 221 167.009 215.017 225.863 169.385 215.184 
236.357 172.826 215.01 236.906 174.766 215.391 235.023 177.465 215.058 
211.377 181.622 212.855 214.062 189.361 213.71 215.979 189.286 214.852 
217.324 190.66 214.319 221 167.009 215.017 222.581 169.386 214.925 
222.365 169.496 214.984 222.126 170.087 215.626 236.639 172.985 215.52 
237.042 173.38 215.902 237.078 173.463 216.056 215.441 187.49 215.429 
220.107 190.402 215.072 222.565 169.437 215.129 222.919 169.654 215.515 
237.102 174.605 216.898 230.497 184.95 216.147 218.302 189.37 215.639 
221.975 188.539 216.911 222.944 189.338 216.246 223.768 189.36 216.19 
222.432 189.827 215.718 224.743 189.578 215.669 222.632 169.452 215.232 
224.521 170.15 217.039 223.388 170.384 216.622 233.987 171.042 217.39 
237.01 173.224 217.48 237.162 174.19 217.491 220.148 185.146 218.009 
230.348 184.699 217.559 219.287 186.789 217.186 228.718 186.441 217.251 
223.195 188.419 217.143 226.636 187.998 216.929 235.415 171.606 217.788 
236.854 173.002 218.385 224.361 186.976 218.327 225.424 186.813 218.534 
235.561 171.644 218.685 236.611 172.536 218.583 236.873 174.419 219.173 
235.559 171.675 220.177 236.224 171.999 219.479 236.352 172.071 219.934 
227.597 172.068 219.773 228.229 173.894 220.978 236.724 174.036 220.013 
231.385 182.46 219.882 233.425 171.593 220.662 236.189 171.934 220.524 
236.093 171.915 220.689 235.975 171.857 220.594 235.935 171.8 220.294 
235.602 171.808 220.558 236.384 172.101 220.322 236.602 172.629 220.41 
236.382 173.808 220.709 234.908 177.181 220.526 228.069 179.578 221.978 
227.609 180.323 221.687 230.937 182.029 220.769 236 169.009 223.017 
236 169.009 223.017 236 169.009 223.017 236 169.009 223.017 
234.848 171.987 220.909 236 169.009 223.017 236.031 172.158 220.953 
236.315 172.218 220.817 236.219 172.258 220.977 235.393 172.442 221.235 
236.531 172.747 220.734 236.039 173.36 221.164 236.159 173.049 221.116 
236.373 172.884 220.951 236.531 173.021 220.749 235.758 173.535 221.312 
233.411 174.107 222.043 234.971 174.645 221.566 235.228 175.15 221.192 
229.366 177.34 222.283 232.771 179.062 221.64 230.986 180.47 221.925 
230.652 181.275 221.569 236 169.009 223.017 236.38 172.612 220.932 
235.355 173.012 221.446 234.779 174.139 221.75 233.277 176.095 222.192 
232.837 176.074 222.37 232.645 177.209 222.277 232.248 177.591 222.344 
229.956 178.578 222.443 229.18 179.327 222.265 230.597 180.546 222.008 
229.402 180.968 221.953 234.355 174.353 221.927 231.752 176.798 234.047 
231.321 177.524 234.105 231.315 177.363 234.089 231.154 177.56 234.137 
230.247 179.556 234.243 230.227 179.536 234.27 230.234 179.573 234.29 
230.261 179.519 234.258 230.269 179.555 234.278 235.039 173.07 234.859 
234.972 173.026 234.88 235.14 173.012 234.942 233.901 174.07 234.549 
235.044 173.197 234.899 233.778 174.505 234.519 234.644 174.262 234.809 
231.944 176.279 234.178 231.352 176.964 234.119 231.744 177.334 234.203 
232.818 177.543 234.714 230.247 179.436 234.305 230.15 179.55 234.401 
230.322 179.463 234.34 230.284 179.618 234.402 236.519 171.894 235.52 
236.515 171.778 235.53 236.351 171.857 235.514 236.644 171.834 235.6 
236.603 171.777 235.55 236.63 171.769 235.634 233.641 172.152 235.413 
235.583 172.218 235.374 236.182 172.112 235.458 236.007 171.873 235.585 
236.639 171.982 235.637 236.671 171.879 235.79 235.103 172.744 235.084 
234.565 173.277 234.827 235.449 173.116 235.133 236.765 172.351 235.992 
233.778 173.721 234.621 236.12 173.915 235.731 235.506 174.874 235.55 
229.669 175.63 234.591 230.277 179.064 234.399 231.515 178.669 234.548 
230.594 179.529 234.565 232.002 179.328 235.09 230.136 179.979 234.708 
231.097 180.621 235.35 229.365 182.608 236.06 236.392 171.76 235.607 
236.561 171.74 235.592 230.766 171.778 236.203 234.487 171.609 236.091 
236.231 171.722 235.806 236.519 171.748 235.762 236.773 172.089 236.121 
229.955 172.377 235.822 236.956 172.48 236.537 230.304 173.32 235.146 
236.679 174.208 236.58 232.752 180.276 236.36 226.574 181.479 235.879 
231.523 181.241 236.044 228.078 181.92 235.683 230.292 181.951 235.816 
232.185 181.204 236.637 234.102 171.242 237.103 236.422 171.77 236.6 
236.782 172.037 236.588 237.126 172.39 237.049 237.089 173.446 237.232 
224.273 179.92 236.516 234.24 178.834 237.04 229.449 170.819 237.986 
230.908 170.699 238.257 237.061 173.896 237.504 224.289 175.572 236.926 
229.979 184.007 237.909 226.63 185.984 238.233 235.118 171.368 238.627 
233.977 179.656 238.004 218.266 182.175 239.232 233.158 180.78 237.938 
230.264 184.163 238.546 229.196 184.731 238.21 223.326 186.841 238.874 
224.506 186.628 238.655 223.737 170.252 240.169 237.2 173.72 238.954 
221.001 174.961 238.93 233.957 179.798 238.824 230.8 183.99 239.251 
217.127 186.172 240.233 229.356 170.024 239.972 235.38 171.593 239.718 
237.177 173.269 240.155 236.909 174.826 239.618 217.088 185.312 239.996 
222.677 187.533 239.49 220.814 170.194 242.036 236.918 172.882 240.473 
215.205 180.4 241.21 216.498 180.949 240.32 218.428 189.247 241.423 
224.357 188.936 240.959 220.674 189.971 241.726 222.029 168.784 243.503 
221.133 169.367 243.02 218.913 171.866 242.077 236.967 173.509 241.037 
236.866 174.596 240.785 234.949 177.273 241.64 226.681 188.713 242.164 
216.804 190.232 242.851 236.642 173.044 241.253 213.948 176.842 243.303 
210.78 181.529 244.462 210.717 181.614 244.56 231.696 181.009 243.665 
210.888 181.643 244.378 231.557 182.282 242.717 213.712 187.04 242.839 
226.886 188.779 242.758 221.627 168.432 244.6 235.776 174.156 242.902 
235.881 174.973 242.489 215.228 189.762 243.314 214.283 190.912 245.466 
218.288 170.151 245.313 230.645 170.35 244.31 210.44 178.615 246.229 
210.06 180.472 245.785 209.819 181.165 246.199 210.259 181.837 245.324 
[...]
POINT_DATA 560
SCALARS scalars float
LOOKUP_TABLE default
1 1 1 1 1 1 1 1 1 
1 1 1 1 1 1 1 1 1 
1 1 1 1 1 1 1 1 1 
1 1 1 1 1 1 1 1 1 
1 1 1 1 1 1 1 1 1 
1 1 1 1 1 1 1 1 1 
1 1 1 1 1 1 1 1 1 
1 1 1 1 1 1 1 1 1 
1 1 1 1 1 1 1 1 1 
1 1 1 1 1 1 1 1 1 
1 1 1 1 1 1 1 1 1 
1 1 1 1 1 1 1 1 1 
1 1 1 1 1 1 1 1 1 
1 1 1 1 1 1 1 1 1 
1 1 1 1 1 1 1 1 1 
1 1 1 1 1 1 1 1 1 
1 1 1 1 1 1 1 1 1 
1 1 1 1 1 1 1 1 1 
1 1 1 1 1 1 1 1 1 
1 1 1 1 1 1 1 1 1 
1 1 1 1 1 1 1 1 1 
1 1 1 1 1 1 1 1 1 
1 1 1 1 1 1 1 1 1 
1 1 1 1 1 1 1 1 1 
1 1 1 1 1 1 1 1 1 
1 1 1 1 1 1 1 1 1 
1 1 1 1 1 1 1 1 1 
1 1 1 1 1 1 1 1 1 
1 1 1 1 1 1 1 1 1 
1 1 1 1 1 1 1 1 1 
1 1 1 1 1 1 1 1 1 
1 1 1 1 1 1 1 1 1 
1 1 1 1 1 1 1 1 1 
1 1 1 1 1 1 1 1 1 
1 1 1 1 1 1 1 1 1 
1 1 1 1 1 1 1 1 1 
1 1 1 1 1 1 1 1 1 
1 1 1 1 1 1 1 1 1 
1 1 1 1 1 1 1 1 1 
1 1 1 1 1 1 1 1 1 
1 1 1 1 1 1 1 1 1 
1 1 1 1 1 1 1 1 1 
1 1 1 1 1 1 1 1 1 
1 1 1 1 1 1 1 1 1 
1 1 1 1 1 1 1 1 1 
1 1 1 1 1 1 1 1 1 
1 1 1 1 1 1 1 1 1 
1 1 1 1 1 1 1 1 1 
1 1 1 1 1 1 1 1 1 
1 1 1 1 1 1 1 1 1 
1 1 1 1 1 1 1 1 1 
1 1 1 1 1 1 1 1 1 
1 1 1 1 1 1 1 1 1 
1 1 1 1 1 1 1 1 1 
1 1 1 1 1 1 1 1 1 
1 1 1 1 1 1 1 1 1 
1 1 1 1 1 1 1 1 1 
1 1 1 1 1 1 1 1 1 
1 1 1 1 1 1 1 1 1 
1 1 1 1 1 1 1 1 1 
1 1 1 1 1 1 1 1 1 
1 1 1 1 1 1 1 1 1 
1 1 
NORMALS Normals float
-0.107643 -0.37167 -0.922103 0.0902139 -0.0994231 -0.990947 0.0405158 0.0407483 -0.998348 
-0.295515 0.192214 -0.935802 0.123723 0.193146 -0.973338 0.11988 0.335923 -0.934229 
-0.164082 0.513712 -0.842127 -0.0586377 0.745104 -0.664366 0.190949 0.594434 -0.781144 
0.172116 -0.477597 -0.861555 0.446833 -0.351757 -0.822562 -0.45357 0.0330203 -0.890609 
0.446434 0.173425 -0.87785 -0.329838 0.510296 -0.794232 0.0533714 -0.521111 -0.851818 
-0.344021 -0.26949 -0.899458 0.639708 -0.0141732 -0.768487 -0.579745 0.39532 -0.712473 
0.541426 0.383806 -0.748032 -0.269631 0.753063 -0.600163 0.14219 0.65755 -0.739871 
-0.091656 0.803644 -0.588009 0.214821 0.785376 -0.580548 -0.729386 0.158892 -0.665394 
0.51973 0.516795 -0.680297 -0.21674 0.904411 -0.367511 0.751606 0.247315 -0.611493 
0.143006 0.867928 -0.475658 0.358789 0.830811 -0.42547 -0.104738 0.976971 -0.185896 
0.239607 0.937475 -0.252446 -0.483646 -0.345749 -0.80408 -0.787717 -0.0323849 -0.615186 
0.752964 -0.0793556 -0.65326 0.721126 0.546266 -0.42611 0.471905 0.780824 -0.409413 
0.129159 0.98657 -0.0999845 -0.831415 0.334264 -0.443866 -0.510518 0.756217 -0.409276 
-0.112179 0.963744 -0.2421 0.366815 -0.365479 -0.855495 0.567612 -0.292114 -0.769731 
-0.503812 0.858438 -0.0962163 0.36886 0.926379 -0.0759206 -0.103054 -0.514735 -0.851133 
0.325261 -0.38564 -0.863416 -0.522466 -0.501095 -0.689879 -0.90056 -0.163504 -0.402814 
-0.720498 0.659311 -0.214925 -0.305955 0.936177 -0.173103 0.0640746 0.993797 -0.0908957 
0.221903 -0.639604 -0.73598 0.372242 -0.820712 -0.433438 -0.0522126 -0.66792 -0.7424 
0.275247 -0.507409 -0.816563 0.277798 -0.33126 -0.901718 -0.517875 -0.619478 -0.58996 
-0.344144 -0.751283 -0.563151 -0.696729 -0.671462 -0.252403 -0.72873 -0.465381 -0.502368 
-0.81668 -0.373297 -0.440094 -0.983832 -0.0120525 -0.178689 -0.941426 0.193027 -0.276512 
-0.873144 0.457299 -0.168811 0.829715 0.524418 -0.191204 0.535095 0.840822 -0.0818092 
-0.283768 0.951542 0.118501 0.13737 -0.822351 -0.552149 0.15113 -0.801852 -0.578095 
0.181395 -0.763693 -0.619572 0.415603 -0.466967 -0.780523 0.418687 -0.648546 -0.63568 
0.415972 -0.165366 -0.894215 -0.432213 -0.795496 -0.424709 -0.976813 0.204193 -0.0643619 
0.884592 0.199089 -0.421734 0.000106503 -0.815877 -0.578225 0.130873 -0.956521 -0.260651 
-0.295257 -0.793169 -0.532641 0.21998 -0.9755 -0.00292462 0.208681 -0.959739 -0.188025 
0.482785 -0.80441 -0.346183 -0.362326 -0.882951 -0.298525 0.578851 -0.688376 -0.437115 
0.502528 -0.161285 -0.849383 0.618544 -0.544684 -0.566324 -0.580032 -0.799556 -0.155797 
0.628627 -0.207089 -0.749628 0.697534 -0.651059 -0.29928 0.577199 -0.0562082 -0.814667 
-0.8118 -0.55987 -0.165912 -0.962366 0.256143 0.0907874 -0.791449 0.610444 0.0311021 
0.586845 0.80894 0.0350553 0.312382 0.947515 0.0680658 -0.0293528 -0.993866 0.106628 
-0.0715084 -0.967701 -0.241746 0.283186 -0.907125 -0.311335 0.357245 -0.918012 -0.172135 
0.651829 -0.555174 -0.516625 0.586318 -0.319324 -0.744488 0.559866 -0.12293 -0.819413 
0.525586 -0.265498 -0.808251 0.0975741 -0.243225 -0.96505 0.174409 -0.62348 -0.762138 
0.387652 0.239568 -0.890131 0.479837 -0.0168328 -0.877196 0.193637 -0.804595 -0.561366 
0.573856 -0.776955 -0.258903 0.897107 -0.156846 -0.413036 -0.96502 -0.261986 -0.009991 
-0.634365 0.77292 0.0132502 0.155496 0.982991 0.0977251 -0.387119 -0.921967 -0.0107512 
-0.206887 -0.974175 -0.0904447 -0.515851 -0.846752 -0.130036 0.226845 -0.97145 -0.0694768 
0.543218 -0.685944 -0.484143 0.415385 -0.191486 -0.889263 0.414602 -0.747705 -0.518692 
0.321022 -0.94132 -0.104221 0.814329 -0.560196 -0.151815 0.701739 0.410043 -0.582603 
-0.821404 -0.563083 0.0907337 -0.983186 0.0916043 0.157968 -0.80396 0.581421 0.124891 
-0.467264 0.875105 0.125916 -0.521106 -0.853184 0.0229161 0.625989 -0.704879 -0.333592 
0.603252 -0.343586 -0.719747 0.822414 0.0818394 -0.562972 0.6456 -0.510873 -0.567635 
0.806942 -0.493652 -0.324273 0.55698 0.301557 -0.773845 -0.951597 -0.213526 0.221065 
-0.978716 -0.0728118 0.191867 0.834776 0.285722 -0.470651 -0.888012 0.187151 0.420011 
0.730226 0.674828 0.106662 0.348516 0.90271 0.252293 -0.299647 0.945895 0.124473 
0.0385982 0.963513 0.264864 -0.104144 -0.98906 0.104474 -0.466813 -0.853152 0.232847 
-0.626041 -0.704747 0.333771 -0.6996 -0.673567 0.23847 0.715438 0.0813307 -0.693926 
0.940033 0.195817 -0.279273 -0.65589 -0.439652 0.613608 -0.868201 -0.211039 0.449098 
0.569846 0.732728 0.372002 -0.596589 0.736872 0.317964 0.966807 -0.217357 -0.134314 
0.627572 0.481647 -0.611694 -0.830531 0.423513 0.361738 -0.539678 0.713885 0.446224 
0.431255 0.846785 0.311406 -0.256471 0.833784 0.488904 -0.043124 0.843866 0.534818 
0.0653566 0.896969 0.437236 0.806079 0.525562 -0.27207 0.688403 0.651161 -0.319515 
-0.84644 0.196131 0.495047 0.893502 0.434788 -0.11231 -0.713404 0.261415 0.650167 
0 0 -1 -0.894427 -0.447214 0 -1 0 0 
1 0 0 0 0.447214 -0.894427 0.000667671 -0.955882 0.293749 
0.627916 -0.749485 -0.209745 0.957674 0.249196 -0.144086 0.808596 0.48029 -0.339844 
-0.62807 -0.0703961 0.774966 -0.567946 0.436471 0.697803 -0.381357 0.509411 0.771406 
-0.261033 0.682732 0.682451 0 0 1 -0.0773194 -0.957447 0.278058 
-0.531559 -0.698804 0.478663 -0.470114 -0.639868 0.607916 0.699854 -0.713404 -0.035471 
0.946606 -0.289713 -0.141431 0.928456 -0.371326 -0.00929944 -0.499261 0.218947 0.838332 
-0.120162 0.672866 0.72994 -0.369151 -0.879663 0.299867 -0.16871 -0.797179 0.579691 
0.936522 0.346766 -0.0517645 0.840587 0.529953 0.112089 -0.227554 0.519548 0.823583 
-0.170578 0.580638 0.796092 -0.00385685 0.766665 0.642036 0.103037 0.764117 0.636796 
0.0729804 0.796105 0.600741 0.367064 0.78535 0.498487 -0.274863 -0.829183 0.48673 
-0.217468 -0.81338 0.539556 -0.384173 -0.606851 0.695804 0.336439 -0.940191 -0.0533846 
0.905329 -0.423199 -0.0358043 0.997804 -0.0290917 0.0595086 -0.3181 0.21696 0.922898 
0.76949 0.578692 0.270186 -0.295734 0.381351 0.87585 0.559053 0.731723 0.389924 
0.0118575 0.620155 0.78439 0.250647 0.759965 0.599691 0.551311 -0.828934 -0.0944669 
0.938285 -0.344466 0.0310522 -0.0765273 0.567678 0.819686 0.0385849 0.546555 0.836534 
0.381254 -0.923672 -0.0384161 0.749669 -0.646672 -0.140754 0.903084 0.340686 0.26148 
0.242608 -0.959466 0.14341 0.751468 -0.65854 -0.0402518 0.70642 -0.6998 -0.106073 
-0.299023 -0.529354 0.793958 -0.304268 -0.331656 0.892987 0.930115 0.191759 0.313232 
0.683685 0.53888 0.492121 0.0550578 -0.90083 0.430667 0.57032 -0.809322 0.140474 
0.271592 -0.810696 0.518662 0.234688 -0.946846 0.220009 0.376199 -0.925651 0.0405616 
0.0812407 -0.887291 0.453998 0.772792 -0.631615 0.0620802 0.953652 -0.26586 0.14095 
0.668612 0.367371 0.646526 0.79508 0.50297 0.338923 -0.535427 -0.100213 0.838615 
-0.447724 0.0671581 0.891646 0.415827 0.644527 0.641617 0 0 -1 
-0.894427 -0.447214 0 -1 0 0 1 0 0 
-0.00303523 -0.668663 0.743559 0 0.447214 -0.894427 0.247402 -0.68993 0.680286 
0.727863 -0.541284 0.420984 0.383936 -0.317972 0.866883 0.039841 -0.576418 0.816183 
0.881441 -0.128529 0.45447 0.494807 0.175592 0.851078 0.509632 0.0250259 0.860028 
0.66333 0.00116296 0.748326 0.848786 0.212865 0.483995 0.523076 0.200582 0.828347 
0.0738927 -0.274195 0.958831 0.61623 0.154114 0.77234 0.617989 0.232137 0.751134 
-0.297913 -0.293144 0.908468 0.556325 0.363088 0.747442 0.261087 0.295329 0.919029 
0.475135 0.561226 0.677696 0 0 1 0.779105 -0.221833 0.586332 
0.193485 -0.227806 0.954289 0.533545 -0.0383219 0.844903 0.437693 0.15381 0.885871 
0.303708 0.0548391 0.951186 0.321952 0.0861013 0.942833 0.221343 0.138248 0.965347 
0.0556648 -0.0768324 0.995489 -0.0947321 0.123237 0.987845 0.163393 0.294319 0.941637 
-0.0153288 0.444174 0.89581 0.330961 0.0881358 0.93952 0.151506 0.0529058 -0.987039 
0.242304 0.171346 -0.95495 0.0986714 0.0105646 -0.995064 -0.222995 0.0654529 -0.97262 
-0.0591343 0.445269 -0.893442 -0.764732 -0.0808749 -0.639253 -0.343586 0.842493 -0.414916 
0.331664 -0.296728 -0.895518 0.724667 0.51888 -0.453455 0.287444 -0.145618 -0.946663 
0.0220355 -0.553105 -0.83282 0.48735 -0.287674 -0.82446 0.175256 -0.144554 -0.973853 
0.462644 0.151982 -0.87342 0.240431 0.0998727 -0.965515 0.356542 0.0392323 -0.933455 
0.0705729 -0.132015 -0.988732 -0.0832041 -0.0347434 -0.995927 0.252384 0.226822 -0.940667 
0.483261 0.274627 -0.831287 -0.287547 -0.402653 -0.869015 -0.631281 0.307988 -0.711778 
0.708232 0.00464416 -0.705965 0.292201 0.745391 -0.599174 0.349627 0.189413 -0.917542 
-0.00870125 -0.584183 -0.811575 -0.113932 -0.432879 -0.894223 0.888127 -0.0175133 -0.459264 
0.561316 -0.451149 -0.693822 0.717737 -0.69565 -0.0304221 -0.0693233 -0.650089 -0.756689 
-0.124188 -0.685645 -0.717264 0.258705 -0.108436 -0.959851 -0.29368 -0.733621 -0.612823 
0.854515 0.167162 -0.491794 0.919457 -0.391349 0.0380152 0.123348 -0.462914 -0.877779 
0.0209058 -0.253053 -0.967227 0.504116 -0.0344987 -0.862947 0.792891 0.22849 -0.564904 
-0.00130083 -0.294568 -0.95563 0.680519 0.183084 -0.709488 0.590796 0.319447 -0.740887 
-0.228245 -0.170214 -0.958609 0.00445054 -0.0328569 -0.99945 0.259153 0.324298 -0.909764 
0.453374 0.37827 -0.807071 0.586591 0.41069 -0.69803 0.0772716 0.518268 -0.85172 
0.388537 0.455289 -0.801093 0.237857 0.603173 -0.761319 -0.155576 -0.908197 -0.388555 
0.141944 -0.96074 -0.238391 -0.0843825 -0.737813 -0.669711 0.0296193 -0.901435 -0.431899 
-0.146303 -0.964345 -0.220532 0.351479 -0.931006 0.0984367 0.890776 -0.445945 -0.087472 
-0.260336 -0.613155 -0.745832 0.949772 -0.135091 -0.282284 -0.201644 -0.440788 -0.874669 
0.848526 0.345928 -0.400422 0.790687 0.299074 -0.534199 -0.213909 0.213942 -0.953138 
0.535015 0.528644 -0.65901 -0.122061 0.265741 -0.956286 0.370945 0.627166 -0.684881 
0.596312 0.624469 -0.50443 0.0574014 -0.944735 -0.322771 0.588449 -0.804994 0.0755865 
0.720244 -0.693707 0.00432028 0.958782 -0.26314 -0.107209 0.942845 0.125969 -0.308505 
-0.336283 0.0110726 -0.941696 0.77881 0.494694 -0.385659 -0.139605 -0.888435 -0.437256 
0.136852 -0.973267 -0.184451 0.943132 0.294115 -0.154917 -0.40954 -0.220269 -0.885301 
0.5576 0.652937 -0.512597 0.0499549 0.594217 -0.802751 0.340922 -0.939759 0.0250219 
0.782972 0.552038 -0.286719 -0.402694 -0.0048443 -0.915322 0.860577 0.46208 -0.214219 
0.60966 0.707011 -0.3584 0.469213 0.753868 -0.459916 -0.178446 0.376803 -0.908942 
-0.0227917 0.553318 -0.832658 -0.228307 -0.723126 -0.651893 0.999779 0.0150211 -0.0146852 
-0.511502 -0.27724 -0.813329 0.86725 0.485447 0.110537 0.690896 0.676357 -0.255351 
-0.333006 0.344034 -0.877922 -0.0794252 -0.963512 -0.255609 0.410397 -0.899702 0.1487 
0.96169 -0.262734 0.0782489 0.925729 0.377078 -0.0289496 -0.478089 0.16495 -0.862683 
-0.0483524 0.660785 -0.749016 -0.404692 -0.71414 -0.571164 0.756477 -0.634586 0.158254 
-0.626033 -0.0429597 -0.778613 -0.43166 -0.229741 -0.872289 -0.260829 0.566632 -0.781599 
0.211823 0.813353 -0.541838 -0.0532278 0.654407 -0.754267 -0.27541 -0.854764 -0.439918 
-0.452381 -0.815058 -0.361984 -0.582928 -0.504177 -0.637182 0.941613 -0.0107191 0.336525 
0.894203 0.372764 0.247888 0.717017 0.473335 0.511704 0.408054 0.842993 -0.350507 
-0.273483 0.752921 -0.598596 0.698321 -0.564326 0.440323 -0.560811 -0.43775 -0.702756 
-0.79037 -0.199936 -0.579086 -0.780408 0.21911 -0.585622 0.741653 0.456045 0.491908 
-0.711588 0.239222 -0.660617 0.830955 0.324356 0.452003 -0.639163 0.327901 -0.695667 
0.541886 0.8077 -0.232337 -0.00947609 -0.967655 -0.252101 0.702937 0.0963127 0.704701 
0.739163 0.323601 0.590695 -0.478679 0.536238 -0.695209 -0.655113 0.652202 -0.381392 
-0.600986 -0.723377 -0.339914 0.485277 -0.838451 0.248004 -0.779103 -0.358072 -0.51457 
-0.872785 -0.218542 -0.436446 -0.960561 0.00590226 -0.278007 -0.872857 0.0359675 -0.486649 
0.0965873 0.865329 -0.491809 -0.351533 0.894303 -0.276853 -0.451379 -0.886285 -0.10371 
0.160358 -0.986997 0.0110201 0.30683 -0.950562 0.0478229 0.491134 -0.777357 0.39307 
0.71788 -0.218205 0.661086 -0.966751 -0.117181 -0.22729 -0.962955 -0.071989 -0.259874 
-0.87462 0.393108 -0.283735 -0.572061 -0.819538 0.0332076 0.575255 -0.587032 0.569627 
0.567945 -0.279161 0.774279 -0.766642 -0.609085 -0.203163 -0.952478 -0.274962 -0.131077 
0.682411 0.171672 0.710524 0.00669881 0.940303 -0.340274 -0.161717 -0.930202 0.329503 
-0.552001 -0.747112 0.370296 0.430634 -0.883179 0.185874 -0.446248 -0.798849 0.403364 
0.502491 -0.702999 0.503284 -0.990618 0.118426 -0.0682016 0.190022 0.963192 -0.190141 
-0.298245 -0.806227 0.510929 0.054117 -0.927983 0.368673 -0.37464 -0.712514 0.59327 
0.463304 -0.810041 0.359419 0.652506 -0.733693 0.189551 0.571698 -0.674685 0.466864 
0.643654 -0.575891 0.504043 -0.543205 -0.729556 0.415544 -0.98468 -0.173435 -0.0180445 
0.850294 0.515522 0.106006 0.407393 0.888617 -0.210693 0.104639 -0.872422 0.477421 
-0.353045 -0.715949 0.602309 0.602515 -0.686437 0.407161 0.426122 -0.820117 0.381874 
0.411253 -0.608586 0.678597 0.592098 -0.661121 0.460803 0.44708 -0.63585 0.629138 
-0.454338 -0.746623 0.485933 0.480256 -0.2332 0.84556 -0.830944 -0.505179 0.233077 
-0.808097 0.513061 0.289392 0.84968 0.430741 0.304147 0.690993 0.721551 0.0435013 
-0.641628 0.765639 -0.0459409 0.0381184 -0.796375 0.603601 0.0963078 -0.69195 0.715493 
0.508561 -0.475548 0.717788 0.313823 -0.3669 0.875728 -0.429932 -0.72086 0.543616 
0.491984 -0.199126 0.847526 -0.707259 -0.645614 0.288039 -0.984403 -0.0375007 0.171884 
0.896991 0.0721358 0.436123 -0.939829 0.268625 0.211095 0.568854 0.814052 0.117152 
0.071213 0.994149 -0.0812169 -0.0896605 -0.368683 0.925221 -0.475127 -0.619243 0.625135 
-0.299261 -0.8204 0.487223 -0.165522 -0.613604 0.772071 -0.588981 -0.517232 0.620944 
0.605613 -0.180677 0.774977 -0.808642 -0.279694 0.51756 -0.918673 0.105135 0.380771 
-0.146364 0.98772 0.0546578 -0.0966995 -0.61826 0.780003 -0.29435 -0.272304 0.916083 
-0.383177 -0.45922 0.801431 -0.154517 -0.639397 0.753191 -0.841518 -0.156019 0.51721 
-0.886703 0.115458 0.447691 -0.420427 0.905747 0.05351 -0.0662444 -0.485973 0.87146 
-0.521735 -0.450727 0.724319 0.724315 -0.186134 0.663869 0.878945 0.0206312 0.476477 
0.858355 0.165139 0.485753 -0.772659 0.459125 0.438409 0.464574 0.872464 0.151586 
-0.40318 0.896503 0.183653 0.187021 0.951962 0.242471 -0.756256 0.33625 0.56126 
-0.443103 0.792134 0.419742 -0.158915 0.947023 0.279094 0.335324 -0.365709 0.868225 
-0.671807 0.0148892 0.740576 0.2839 -0.837976 -0.466045 -0.865246 0.223308 -0.448868 
0.595361 0.595361 -0.539529 0.85223 -0.249708 0.459728 -0.285842 0.821092 0.494067 
0.874624 0.20634 0.438699 -0.677856 0.63186 0.375852 0.612662 0.678923 0.404609 
-0.259659 -0.45207 0.853352 -0.571899 -0.613042 0.54508 -0.650229 -0.181112 0.737835 
-0.813383 0.125687 0.567989 0.731638 -0.131815 0.668828 0.810977 0.0476955 0.58313 
0.752892 0.366998 0.546321 -0.478411 0.721918 0.499958 0.581308 0.516809 0.628481 
0.298782 0.851757 0.430395 -0.308456 -0.327742 0.892995 -0.663669 0.332246 0.670191 
0.710702 0.197133 0.675308 -0.59587 0.444559 0.66881 -0.290292 0.602173 0.743719 
-0.109339 0.918454 0.380114 0.307992 0.85757 0.411965 -0.520695 -0.267962 0.810601 
-0.368507 0.0396891 0.928778 -0.578648 0.165984 0.798509 0.59316 0.160109 0.789003 
0.139349 0.613975 0.776928 0.117564 0.736268 0.666399 0.355337 0.714674 0.602476 
0.0541871 0.79963 0.598044 -0.103143 -0.455733 0.884121 -0.496217 -0.370082 0.785371 
0.113965 -0.215101 0.969919 -0.0477475 -0.130437 0.990306 -0.519831 0.00248077 0.854265 
-0.381373 0.0241416 0.924106 -0.0978383 -0.0572986 0.993551 -0.236379 0.174273 0.955905 
0.483348 0.174047 0.857953 0.197365 0.400425 0.894822 0.443505 0.305954 0.842434 
-0.41108 0.301049 0.860455 -0.109879 0.325039 0.939296 0.503849 0.604281 0.617236 
0.330773 0.336643 0.881624 -0.108503 0.449336 0.886749 0.0991743 0.48832 0.867011 
-0.126371 -0.334677 0.933821 -0.00116446 -0.225635 0.974211 -0.168607 0.107502 0.979804 
-0.00162508 0.304505 0.952509 0.159221 0.262763 0.951632 0.11417 -0.0104049 0.993407 
0.423925 -0.108431 0.899183 0.894427 -0.447214 0 0 0.447214 0.894427 
0.894427 -0.447214 0 0 0.447214 0.894427 
