# vtk DataFile Version 4.2
vtk output
ASCII
DATASET POLYDATA
POINTS 485 float
227.627 225.83 222.54 227.551 225.808 222.574 227.583 225.879 222.536 
227.615 225.794 222.621 227.671 225.94 222.515 227.843 226.134 222.519 
227.528 225.825 222.668 227.533 225.911 222.597 227.781 225.867 222.7 
229.717 227.199 222.797 230.162 227.411 222.903 229.415 227.659 222.476 
230.617 227.802 222.824 231.237 228.418 222.675 231.668 228.525 222.845 
228.426 228.076 222.519 230.786 228.637 222.459 230.057 228.872 222.339 
227.486 225.972 222.719 227.639 225.88 222.958 228.157 226.073 223.065 
228.769 226.413 223.055 229.728 227.069 222.993 231.198 228.046 223.019 
228.326 229.293 222.776 227.944 229.218 223.111 235.021 229.917 223.38 
236.255 230.712 223.171 237.58 230.772 223.607 230.677 230.328 222.262 
233.059 230.658 222.415 237.495 231.286 223.217 239.189 231.726 223.587 
239.015 231.513 223.639 239.284 231.61 223.724 239.416 231.796 223.675 
239.56 231.985 223.717 228.09 231.776 223.562 233.603 232.199 222.28 
237.216 232.217 222.878 228.361 232.94 223.52 227.512 225.985 223.031 
228.074 226.093 223.267 229.407 226.805 223.341 230.356 227.393 223.456 
227.599 228.015 223.279 230.953 227.772 223.318 233.237 229.036 223.428 
237.455 230.63 223.763 239.364 231.578 223.891 239.645 231.981 223.84 
228.128 232.774 223.981 239.713 232.781 223.821 228.56 234.233 223.83 
239.234 233.849 223.432 229.014 234.573 223.434 229.745 235.418 223.149 
238.701 234.725 223.201 239.703 233.975 223.88 239.084 235.294 223.436 
232.329 238.074 222.742 229.596 239.823 223.938 230.316 239.364 223.456 
239.245 238.553 223.821 227.446 226.213 223.113 227.677 226.121 223.395 
227.861 226.07 223.33 227.531 227.609 223.447 234.493 229.541 223.923 
238.479 230.956 224.14 239.468 231.641 224.064 227.957 231.491 224.101 
238.695 231.071 224.193 239.715 232.121 223.971 229.13 238.521 224.522 
229.238 238.937 224.256 239.5 239.971 224.157 237.604 242.166 223.341 
239.757 241.549 224.565 229.693 243.624 224.647 239.885 242.723 224.644 
240.094 244.053 224.726 229.895 246.393 224.952 238.58 248.308 224.14 
239.844 250.396 224.911 240.04 250.983 225.14 227.566 226.265 223.463 
227.471 226.366 223.343 231.764 228.465 224.252 233.06 228.974 224.086 
235.807 230.275 224.418 237.776 230.808 224.237 238.958 231.212 224.175 
238.894 231.229 224.283 239.358 231.537 224.184 239.535 231.755 224.216 
238.627 231.172 224.349 239.745 232.277 224.151 228.76 235.687 224.547 
239.675 238.004 224.72 229.625 243.606 224.939 240.132 244.279 224.92 
230.174 247.999 225.331 230.365 248.799 225.349 230.591 249.548 225.298 
230.883 249.602 225.113 231.713 250.407 225.047 240.167 249.645 225.351 
234.495 251.36 224.751 230.584 251.113 225.789 240.182 251.254 225.41 
239.758 252.782 225.255 240.04 252.503 225.37 239.32 253.708 225.34 
239.839 254.782 225.843 240.071 254.299 225.871 239.959 254.707 225.903 
227.627 226.413 223.62 227.754 226.496 223.719 229.031 227.336 224.149 
227.977 228.948 224.227 228.248 231.442 224.66 239.179 231.582 224.405 
239.517 231.858 224.34 238.553 231.405 224.523 239.644 232.041 224.267 
239.638 234.14 224.628 228.993 236.111 224.929 229.376 239.143 225.108 
239.881 243.192 225.224 240.036 243.744 225.079 229.917 246.424 225.424 
229.937 246.849 225.337 230.306 248.41 225.549 240.163 251.151 225.716 
230.609 251.22 225.86 240.233 251.873 225.659 230.658 251.316 225.845 
231.232 252.022 226.079 231.793 252.755 226.184 240.212 253.293 225.858 
237.816 255.048 226.008 240.094 254.397 226.047 238.796 255.495 226.209 
239.792 255.018 225.992 239.981 254.784 226.058 239.044 255.515 226.213 
239.15 255.543 226.286 239.616 255.315 226.142 239.822 255.162 226.157 
239.676 255.353 226.241 228.289 227.377 224.119 228.214 228.563 224.351 
228.702 229.047 224.658 229.749 228.599 224.698 228.438 230.227 224.727 
228.905 230.77 225.041 229.978 230.29 225.246 233.076 230.093 225.051 
231.462 230.897 225.513 234.021 233.338 226.031 229.685 235.16 225.558 
230.898 234.749 225.987 229.515 237.739 225.341 229.613 238.756 225.378 
229.974 238.385 225.633 231.14 239.841 226.105 236.526 242.786 226.498 
235.738 243.894 226.602 238.581 243.346 226.057 239.558 243.98 225.617 
239.879 244.732 225.435 230.41 247.893 225.733 237.922 247.421 226.477 
239.551 247.813 225.931 232.943 251.602 226.783 230.707 251.385 225.909 
231.202 251.832 226.238 231.65 252.932 226.604 233.573 252.309 226.943 
231.139 254.9 227.46 230.995 255.16 227.575 231.088 255.082 227.465 
231.277 254.781 227.304 231.39 254.473 227.274 231.563 254.153 227.003 
231.63 253.898 227.049 231.873 253.644 226.63 240.164 252.908 225.992 
230.898 255.337 227.737 233.033 254.119 226.557 232.71 254.591 227.027 
230.824 255.811 227.921 230.754 255.935 228.128 232.108 255.105 227.37 
232.557 254.839 227.524 233.177 254.693 227.268 233.937 254.839 227.298 
234.647 254.92 227.306 235.021 255.1 227.522 230.867 256.057 227.972 
231.091 256.026 227.841 232.306 255.387 227.616 235.769 255.344 227.448 
237.653 255.399 226.457 239.869 255.005 226.233 236.602 255.392 226.932 
237.098 255.404 226.797 237.746 255.436 226.672 238.258 255.485 226.595 
238.268 255.524 226.474 239.761 255.248 226.268 238.612 255.545 226.482 
239.315 255.438 226.405 239.573 255.362 226.337 232.025 253.576 227.045 
234.225 252.966 227.069 231.635 254.275 227.336 235.797 253.491 227.087 
230.888 255.219 227.889 231.084 254.917 227.786 231.406 254.624 227.654 
231.848 254.413 227.527 232.377 254.284 227.414 233.652 254.302 227.4 
231.189 254.747 227.954 231.582 254.562 227.819 232.153 254.528 227.654 
232.865 254.527 227.451 233.314 254.739 227.576 233.801 254.536 227.675 
234.501 254.684 227.459 234.292 254.84 227.641 235.405 254.711 227.38 
239.601 254.026 226.437 230.81 255.065 228.372 231.306 254.523 228.144 
231.738 254.435 228 232.228 254.504 227.867 232.862 255.322 227.728 
232.737 254.683 227.78 233.743 255.216 227.677 234.44 255.262 227.727 
234.794 254.998 227.695 235.382 254.967 227.691 236.204 255.091 227.323 
235.788 255.213 227.866 237.928 254.899 226.834 230.784 256.29 228.165 
234.759 255.646 227.964 236.53 255.351 227.092 235.583 255.595 228.154 
237.129 255.292 226.942 239.761 254.814 226.343 230.73 256.537 228.309 
230.718 256.572 228.46 231.107 256.516 228.099 239.013 255.36 226.519 
230.71 256.718 228.368 230.729 256.768 228.422 232.116 256.535 228.295 
233.893 256.187 228.4 230.746 256.807 228.367 230.865 256.817 228.347 
231.804 256.664 228.363 234.341 252.787 228.627 233.665 252.043 228.797 
230.77 253.608 229.253 231.683 253.226 228.728 234.884 254.152 228.242 
235.711 254.146 228.459 239.653 253.466 229.639 239.987 253.209 229.855 
240.195 252.856 230.09 230.85 254.607 228.638 231.875 254.18 228.195 
234.819 254.679 227.909 235.59 254.772 228.16 230.749 255.75 228.728 
236.138 255.319 228.433 240.051 254.227 229.972 230.754 256.285 228.63 
230.83 256.735 228.51 230.945 256.606 228.669 231.231 256.595 228.756 
232.732 256.404 228.925 234.384 256.201 228.883 236.509 255.96 229.027 
239.791 255.194 229.898 230.797 256.825 228.415 231.643 256.726 228.498 
238.227 255.861 229.601 238.864 255.763 229.743 239.349 255.606 229.82 
239.64 255.457 229.893 239.522 232.159 231.212 239.65 231.989 231.308 
239.775 231.99 231.375 237.595 232.262 230.968 236.927 231.596 231.24 
239.498 232.47 231.128 239.729 232.388 231.214 239.875 232.126 231.355 
239.927 232.228 231.398 239.861 232.617 231.272 234.666 233.537 230.223 
228.651 233.794 231.413 238.312 234.876 230.457 231.841 236.231 229.964 
234.328 236.172 229.772 239.61 235.016 231.06 230.395 237.226 230.326 
240.165 244.017 230.914 229.69 245.972 230.974 230.149 248.262 230.534 
230.743 248.867 229.977 231.198 248.779 229.76 230.524 249.892 230.096 
230.533 251.008 230.165 234.661 250.376 229.026 237.081 250.237 229.167 
231.136 251.177 229.491 232.292 251.312 229.102 233.001 251.27 229 
230.748 252.437 229.568 240.287 252.369 230.351 230.836 255.673 229.001 
230.89 256.074 228.878 231.589 256.045 229.207 235.615 255.487 230.155 
240.092 254.529 230.126 230.858 256.412 228.724 233.992 256.131 229.243 
239.97 255.009 230.065 235.741 256.128 229.261 237.166 256.008 229.659 
237.631 255.923 229.908 238.924 255.825 229.913 239.108 255.749 230.036 
239.805 255.35 230.023 239.562 255.574 229.981 227.875 226.314 233.011 
228.036 226.333 233.003 229.594 227.351 232.692 229.35 228.113 232.144 
228.315 228.693 232.16 229.328 228.737 231.873 231.627 229.103 231.857 
232.962 229.187 232.213 233.553 229.364 232.323 227.997 229.462 232.299 
230.697 229.562 231.496 237.282 231.055 231.801 239.35 231.786 231.398 
239.587 231.848 231.414 239.727 231.901 231.491 239.858 232.07 231.451 
229.682 246.097 231.211 230.462 250.272 230.601 240.294 251.752 230.629 
230.834 253.61 229.836 240.239 252.659 230.607 234.983 254.759 230.483 
230.903 255.415 229.191 240.121 254.238 230.347 237.382 255.821 230.047 
239.566 255.167 230.421 239.542 255.398 230.274 239.739 255.174 230.36 
239.91 255.184 230.178 239.798 255.278 230.257 227.735 226.167 233.134 
227.626 226.154 233.192 227.694 226.081 233.273 227.694 226.978 232.901 
232.232 228.604 232.672 235.006 229.973 232.274 227.858 230.384 232.543 
236.825 230.716 232.306 238.641 231.409 231.881 239.591 231.787 231.527 
239.361 231.723 231.548 239.619 231.826 231.602 238.903 231.559 231.689 
239.743 232.024 231.617 228.012 232.173 232.44 228.407 234.741 232.048 
239.897 234.68 231.911 229.006 238.716 231.957 239.835 239.217 231.777 
229.509 244.601 231.558 240.085 243.334 231.552 240.192 243.816 231.326 
240.233 244.611 231.32 229.787 246.279 231.398 230.364 249.396 230.923 
230.871 253.227 230.056 236.955 253.025 231.336 240.2 251.904 230.869 
239.894 255.001 230.334 227.534 226.583 233.146 227.536 227.506 233.072 
227.639 228.85 232.996 232.131 228.491 232.997 234.097 229.482 232.848 
[...]
POINT_DATA 485
SCALARS scalars float
LOOKUP_TABLE default
1 1 1 1 1 1 1 1 1 
1 1 1 1 1 1 1 1 1 
1 1 1 1 1 1 1 1 1 
1 1 1 1 1 1 1 1 1 
1 1 1 1 1 1 1 1 1 
1 1 1 1 1 1 1 1 1 
1 1 1 1 1 1 1 1 1 
1 1 1 1 1 1 1 1 1 
1 1 1 1 1 1 1 1 1 
1 1 1 1 1 1 1 1 1 
1 1 1 1 1 1 1 1 1 
1 1 1 1 1 1 1 1 1 
1 1 1 1 1 1 1 1 1 
1 1 1 1 1 1 1 1 1 
1 1 1 1 1 1 1 1 1 
1 1 1 1 1 1 1 1 1 
1 1 1 1 1 1 1 1 1 
1 1 1 1 1 1 1 1 1 
1 1 1 1 1 1 1 1 1 
1 1 1 1 1 1 1 1 1 
1 1 1 1 1 1 1 1 1 
1 1 1 1 1 1 1 1 1 
1 1 1 1 1 1 1 1 1 
1 1 1 1 1 1 1 1 1 
1 1 1 1 1 1 1 1 1 
1 1 1 1 1 1 1 1 1 
1 1 1 1 1 1 1 1 1 
1 1 1 1 1 1 1 1 1 
1 1 1 1 1 1 1 1 1 
1 1 1 1 1 1 1 1 1 
1 1 1 1 1 1 1 1 1 
1 1 1 1 1 1 1 1 1 
1 1 1 1 1 1 1 1 1 
1 1 1 1 1 1 1 1 1 
1 1 1 1 1 1 1 1 1 
1 1 1 1 1 1 1 1 1 
1 1 1 1 1 1 1 1 1 
1 1 1 1 1 1 1 1 1 
1 1 1 1 1 1 1 1 1 
1 1 1 1 1 1 1 1 1 
1 1 1 1 1 1 1 1 1 
1 1 1 1 1 1 1 1 1 
1 1 1 1 1 1 1 1 1 
1 1 1 1 1 1 1 1 1 
1 1 1 1 1 1 1 1 1 
1 1 1 1 1 1 1 1 1 
1 1 1 1 1 1 1 1 1 
1 1 1 1 1 1 1 1 1 
1 1 1 1 1 1 1 1 1 
1 1 1 1 1 1 1 1 1 
1 1 1 1 1 1 1 1 1 
1 1 1 1 1 1 1 1 1 
1 1 1 1 1 1 1 1 1 
1 1 1 1 1 1 1 1 
NORMALS Normals float
0.28936 -0.633738 -0.717389 -0.581695 -0.614215 -0.533264 -0.435517 0.0336884 -0.89955 
0.0917177 -0.995452 -0.0257342 -0.0552812 -0.0441686 -0.997493 0.0841209 -0.0994864 -0.991477 
-0.753851 -0.654443 0.0584235 -0.842217 0.0579464 -0.536016 0.425122 -0.905059 0.011803 
0.412112 -0.631394 -0.656891 0.485709 -0.637023 -0.598572 0.188782 -0.259502 -0.947111 
0.542777 -0.753616 -0.370751 0.289766 -0.451706 -0.843799 0.525129 -0.630076 -0.572052 
-0.344884 0.106088 -0.932631 0.123742 -0.40652 -0.905224 -0.0717416 -0.188106 -0.979525 
-0.965432 0.0780847 -0.248686 -0.0829842 -0.930979 0.355516 0.347396 -0.920452 0.179123 
0.532111 -0.842694 -0.0820053 0.50321 -0.845628 -0.178024 0.529513 -0.722486 -0.444556 
-0.481178 0.205354 -0.852231 -0.873852 0.18284 -0.450503 0.271921 -0.575619 -0.771182 
0.185752 -0.446341 -0.875372 0.241305 -0.741787 -0.625719 0.00601707 0.0434648 -0.999037 
0.24431 -0.297684 -0.922874 0.172883 -0.482747 -0.858526 0.371509 -0.358957 -0.856231 
0.380061 -0.626688 -0.680306 0.503493 -0.634166 -0.586794 0.559772 -0.342898 -0.754372 
0.68323 -0.163269 -0.711717 -0.85989 0.151076 -0.487612 0.0171872 0.0362171 -0.999196 
0.216829 -0.17026 -0.961247 -0.833922 0.210354 -0.510221 -0.765338 -0.551444 0.331914 
0.331523 -0.792433 0.511998 0.441709 -0.89715 0.00389378 0.497192 -0.841708 0.21054 
-0.973557 0.208264 -0.0938747 0.529905 -0.838291 -0.128329 0.444984 -0.739428 -0.505208 
0.290981 -0.855422 -0.428465 0.626149 -0.705425 -0.332134 0.871796 -0.365099 -0.326611 
-0.970056 0.16409 -0.179069 0.843395 -0.0525311 -0.534719 -0.899253 0.245043 -0.362351 
0.562862 -0.00820786 -0.82651 -0.657603 0.286203 -0.696883 -0.468797 0.184886 -0.86374 
0.343592 0.0867559 -0.935103 0.8121 0.0530784 -0.581099 0.466953 0.0744173 -0.881145 
-0.0459152 0.150822 -0.987494 -0.824447 0.208623 -0.526083 -0.435598 0.126837 -0.89116 
0.799133 -0.0124864 -0.601024 -0.996152 0.0742064 -0.046634 -0.256714 -0.744384 0.616434 
0.183035 -0.847461 0.498305 -0.990808 0.127351 0.0456274 0.366457 -0.927673 0.0716331 
0.283997 -0.896113 0.341067 0.795109 -0.602393 -0.0701728 -0.909527 0.0459781 0.413095 
0.38639 -0.822407 0.417552 0.915855 -0.234526 -0.325895 -0.965989 0.207232 -0.154663 
-0.843436 0.204801 -0.496661 0.822701 -0.0364989 -0.567302 0.217086 0.11794 -0.969001 
0.988797 -0.0574843 -0.137753 -0.591 0.162516 -0.790131 0.906547 -0.07047 -0.416181 
0.908346 -0.0858867 -0.409306 -0.867026 0.19622 -0.457999 0.253961 0.10081 -0.961947 
0.536936 0.0877696 -0.839045 0.745714 0.0404624 -0.665037 -0.571132 -0.548414 0.610779 
-0.946368 -0.00801891 0.322991 0.384172 -0.77539 0.50118 0.380369 -0.846663 0.372131 
0.250403 -0.589786 0.767757 0.276724 -0.838105 0.47011 0.529076 -0.838484 -0.13047 
0.420765 -0.663249 0.618917 0.63391 -0.67225 0.38241 0.821106 -0.508429 0.259393 
0.180719 -0.6732 0.717037 0.989687 -0.0682264 0.125957 -0.970995 0.13849 0.194909 
0.907282 -0.0395255 0.418661 -0.991239 0.0926172 0.0941713 0.994531 -0.0702116 0.0773169 
-0.951997 0.176819 0.249872 -0.884197 0.200478 -0.421906 -0.575256 0.271057 -0.771757 
-0.39784 0.194445 -0.896613 -0.329426 0.362147 -0.871968 0.991793 -0.00117995 -0.127844 
-0.108726 0.269772 -0.956766 -0.832781 0.271204 -0.482621 0.949469 -0.00296914 -0.313846 
0.461851 0.201363 -0.863798 0.66664 0.191541 -0.720349 0.138723 0.336685 -0.931343 
0.398648 0.377937 -0.83561 0.841567 0.185441 -0.507322 0.746017 0.394435 -0.536544 
-0.632143 -0.224979 0.741471 -0.146878 -0.530099 0.835118 0.0467828 -0.482984 0.874378 
-0.684536 -0.0713948 0.725475 -0.653104 0.0989848 0.750771 0.425836 -0.456398 0.781259 
0.547443 -0.321297 0.772705 0.202265 -0.421682 0.883896 0.899542 -0.333982 0.281568 
0.55902 -0.103709 0.822643 -0.681342 0.175823 0.710535 -0.661799 0.164975 0.731304 
0.91266 -0.150853 0.379863 0.922406 -0.0952949 0.374281 -0.738692 0.0543614 0.671848 
-0.986856 0.132022 0.0931958 -0.955404 0.093257 0.280192 0.936591 -0.0644598 0.344444 
-0.825249 0.148362 0.544933 0.995266 0.00596193 -0.0970007 -0.702992 0.542545 -0.459834 
-0.742638 0.584879 -0.326199 -0.461824 0.458753 -0.759121 0.981023 0.045193 0.188552 
-0.229174 0.701864 -0.674438 0.965017 0.168587 0.200798 -0.0801108 0.73444 -0.673929 
0.591102 0.540632 -0.598594 0.91078 0.372247 -0.178637 0.0430146 0.749181 -0.660967 
0.15458 0.983461 -0.0943878 0.217124 0.609942 -0.762121 0.793527 0.553649 -0.252563 
0.566223 0.822092 -0.0596311 -0.390013 -0.186412 0.901743 -0.385734 -0.191178 0.902585 
-0.304842 -0.184295 0.934402 -0.117513 -0.283147 0.95185 -0.540021 -0.109891 0.834447 
-0.283237 -0.000223554 0.95905 -0.149284 -0.117883 0.981742 0.17807 -0.486021 0.855614 
0.0487887 -0.244758 0.968356 0.0968942 -0.157784 0.982708 -0.392526 0.0942368 0.9149 
-0.249638 0.019024 0.968152 -0.684 0.041035 0.728327 -0.565486 0.186514 0.803392 
-0.231578 0.0603026 0.970945 -0.238399 -0.0311954 0.970666 0.123359 -0.124958 0.984463 
0.0177671 0.0208264 0.999625 0.406934 -0.0620639 0.911347 0.597294 -0.0793723 0.798085 
0.682414 -0.0255272 0.73052 -0.663461 0.0113197 0.748125 0.132031 -0.0468867 0.990136 
0.630026 -0.0519834 0.774832 -0.182523 -0.146666 0.972201 -0.812381 0.480967 0.32971 
-0.66787 0.119643 0.734599 -0.896514 0.0268726 0.442201 -0.0553913 -0.281975 0.957821 
-0.877637 -0.360571 -0.31582 -0.860722 -0.108186 -0.497448 -0.620024 0.104813 -0.77755 
-0.532586 0.170743 -0.828975 -0.881664 -0.470218 -0.0395484 -0.936101 -0.158605 -0.313941 
-0.72464 -0.435943 0.533715 -0.536809 0.338625 -0.772767 0.745969 -0.0436361 0.664549 
-0.939857 -0.208359 -0.270657 -0.165123 0.632262 -0.756954 0.0450346 0.716185 -0.696456 
-0.78444 0.149917 -0.601812 -0.970884 0.0278023 -0.237933 0.220989 0.566298 -0.794022 
0.839121 0.190008 -0.50968 -0.0311814 0.984187 -0.174366 -0.110127 0.913771 -0.391018 
-0.0907649 0.97518 0.201953 -0.706853 0.367587 -0.60435 -0.671799 0.297757 -0.678253 
-0.211678 0.432735 -0.876318 0.245421 0.455884 -0.855534 0.200655 0.960864 -0.190994 
-0.216485 0.886951 -0.407985 0.812364 0.133412 0.567685 -0.152437 0.960799 -0.231578 
-0.0558287 0.998122 0.0252231 0.0553081 0.797011 0.601427 0.0524614 0.737624 0.673171 
-0.106063 0.99261 -0.0589603 0.618736 0.283348 0.732721 0.089571 0.858134 0.505552 
0.279184 0.484959 0.828777 0.434363 0.635299 0.638533 -0.209647 -0.448316 0.868943 
0.0643819 -0.231312 0.970747 -0.455615 -0.646504 0.611921 0.158072 -0.14939 0.976061 
-0.935808 -0.310491 -0.166911 -0.770391 -0.636494 0.0370582 -0.463283 -0.854018 0.236691 
-0.136452 -0.746917 0.650766 0.0613823 -0.494224 0.867165 -0.0178865 -0.410707 0.911592 
-0.697464 -0.658541 -0.282608 -0.311142 -0.943535 -0.113722 0.193338 -0.896817 0.39792 
0.0922004 -0.00424897 0.995731 -0.722856 0.321924 -0.611428 0.162464 -0.899787 -0.404955 
0.157846 -0.222017 0.962181 0.624599 0.195768 -0.75601 0.0473942 -0.449143 0.892202 
0.338494 -0.152324 0.928558 -0.935339 -0.255329 -0.244842 -0.474545 -0.645378 -0.598576 
-0.178094 -0.850832 -0.494335 0.0606058 -0.771568 -0.633253 0.137563 0.278247 -0.950608 
0.0307925 -0.487313 -0.872684 0.0227848 0.484874 -0.874287 -0.0850792 0.22262 -0.971186 
-0.0406342 -0.481312 -0.875607 0.184488 -0.970977 -0.152208 0.451971 -0.0800234 0.888436 
0.986532 -0.0340085 -0.159992 0.0961377 -0.0420747 0.994478 -0.840178 0.1795 -0.511743 
0.0712442 0.726201 -0.683781 0.233518 0.742803 0.627466 0.525702 0.726303 -0.442855 
0.198042 0.233671 0.951933 0.509558 0.0715005 0.85746 -0.938456 -0.0066839 -0.345334 
-0.921364 0.107585 0.373517 -0.0080644 0.575738 -0.817594 0.229727 0.249878 0.940631 
-0.968476 0.168763 -0.183229 -0.778955 0.437658 0.449093 0.194174 0.701963 -0.685233 
0.225849 0.931108 -0.286408 -0.601749 0.5591 -0.570355 -0.00802176 0.877033 -0.480362 
0.203009 0.914319 -0.350439 0.116039 -0.38882 -0.913977 -0.0517981 -0.268799 -0.961802 
-0.983828 -0.0236628 -0.177547 -0.301571 -0.377261 -0.875631 0.228804 -0.350849 -0.908049 
0.337131 -0.207294 -0.918353 0.437719 -0.0647165 -0.89678 0.550891 -0.130322 -0.824339 
0.731847 -0.151287 -0.664464 -0.902436 -0.256003 -0.346513 -0.31444 -0.525488 -0.790563 
0.225042 -0.582777 -0.78085 0.48918 -0.554296 -0.673394 -0.994247 -0.00685145 0.106896 
0.524351 0.0963365 -0.846035 0.802904 0.082818 -0.590327 -0.971305 0.0473563 0.233074 
-0.522556 0.453629 0.721911 -0.303168 0.553062 0.776023 -0.17783 0.580661 0.794487 
0.0657464 0.873868 0.481696 0.178051 0.946789 -0.26812 0.287013 0.69633 -0.657836 
0.536533 0.221763 -0.81422 -0.144816 0.913999 0.37899 0.215467 0.976489 0.00655591 
0.174625 0.92794 -0.329294 0.282611 0.59381 -0.75334 0.379229 0.578523 -0.722147 
0.587779 0.520185 -0.619615 0.12777 -0.315925 -0.940142 0.285843 -0.50207 -0.816223 
0.596597 -0.652471 -0.467283 0.1557 -0.42474 -0.891826 0.155457 -0.627513 -0.762929 
0.190697 -0.170438 -0.96674 0.38651 -0.157646 -0.908712 0.638059 -0.347755 -0.686984 
0.986357 -0.153969 -0.0582576 0.637601 -0.0318785 -0.769707 0.0830479 -0.257428 -0.962722 
-0.70702 -0.00242445 -0.70719 0.273523 -0.0908326 -0.957567 -0.167602 -0.0390241 -0.985082 
-0.049882 -0.0633472 -0.996744 0.573534 -0.0200426 -0.818937 -0.280637 -0.0366819 -0.959113 
0.932331 -0.0724553 -0.354272 -0.953685 0.094282 -0.285651 -0.825849 -0.0109984 -0.563785 
-0.521712 -0.120463 -0.844574 -0.423638 -0.0713225 -0.903019 -0.695785 -0.0345933 -0.717417 
-0.989855 0.0768691 -0.119495 -0.0485477 -0.106775 -0.993097 0.134092 -0.101537 -0.985753 
-0.362345 -0.223938 -0.904742 -0.230599 -0.225446 -0.946572 -0.000723304 -0.356523 -0.934286 
-0.705487 -0.208048 -0.677498 0.976225 0.000754335 -0.216757 -0.879039 0.171155 0.444967 
-0.637438 0.306437 0.706943 -0.250549 0.396017 0.8834 -0.0831029 0.650516 0.754932 
0.95969 0.164182 -0.228123 -0.582661 0.337137 0.739489 -0.0335675 0.829723 0.557165 
0.899569 0.29258 -0.324304 -0.0337468 0.901112 0.432271 0.129457 0.989194 -0.0688173 
-0.0144887 0.85295 0.521792 0.257922 0.956039 -0.13952 0.185965 0.837126 0.514429 
0.795771 0.574469 -0.191662 0.524931 0.849012 -0.0602156 -0.227281 -0.394637 -0.890284 
0.289197 -0.765257 -0.575106 0.351769 -0.651607 -0.672062 0.0984789 -0.401445 -0.910573 
-0.330825 -0.0674416 -0.941279 0.017784 -0.319654 -0.947367 0.228353 -0.557218 -0.79835 
0.382617 -0.725827 -0.571646 0.30473 -0.764848 -0.56758 -0.675712 0.0368858 -0.736243 
-0.0104604 -0.300416 -0.953751 0.167253 -0.807648 -0.565447 0.118609 -0.623276 -0.772955 
0.350542 -0.778491 -0.520646 0.713127 -0.700997 -0.00726299 0.860226 -0.501027 0.0947776 
-0.953248 0.202734 0.22409 -0.960772 0.202589 0.189405 0.995794 -0.0499395 -0.0768108 
-0.845015 0.215157 0.489548 0.818399 0.16138 0.551524 -0.131646 0.497304 0.85753 
-0.699736 0.253496 0.667914 0.929002 0.185323 0.320329 -0.0269007 0.716572 0.696995 
0.112987 0.439785 0.890967 0.243843 0.629457 0.737784 0.373088 0.422735 0.825894 
0.891036 0.391023 0.230555 0.556933 0.647828 0.519755 -0.0831172 -0.707404 -0.701905 
-0.579528 -0.473074 -0.663587 -0.00825425 -0.953981 -0.299753 -0.517333 -0.211783 -0.829165 
0.413488 -0.865987 -0.281238 0.406139 -0.881068 -0.242427 -0.770125 0.0755976 -0.633398 
0.179278 -0.821895 -0.540692 0.39227 -0.917257 0.069018 0.465207 -0.873881 -0.141117 
0.246826 -0.954525 -0.167209 0.637003 -0.657265 0.402779 0.316401 -0.927608 -0.198579 
0.745233 -0.437997 0.502779 -0.980977 0.104081 -0.163861 -0.989305 0.137289 -0.0492622 
0.89363 -0.0158259 0.448524 -0.918595 0.164537 0.359321 0.904363 0.0804215 0.419119 
-0.932996 0.138696 0.332088 0.922522 -0.0775712 0.378068 0.969226 -0.10463 0.222832 
0.923146 0.0130358 0.384229 -0.73433 0.207605 0.646267 -0.758847 0.179305 0.626099 
-0.738394 0.264381 0.620384 -0.00936342 0.229287 0.973314 0.799889 0.115818 0.588867 
0.548172 0.243113 0.800252 -0.84245 -0.110173 -0.527389 -0.943344 0.0277671 -0.330654 
-0.982007 0.174564 0.0720382 0.442672 -0.894834 -0.0575723 0.447767 -0.894147 0.0024081 
0.393865 -0.918419 0.0370997 0.378058 -0.900459 0.215047 0.471549 -0.818311 0.328647 
0.757406 -0.198955 0.621894 0.0613664 -0.426934 -0.902198 0.934408 -0.185141 0.304311 
-0.857515 0.0798144 0.508231 0.2079 0.0930608 0.973713 -0.696339 0.246583 0.674024 
0.721532 0.038517 0.691309 -0.342701 0.17846 0.922338 0.0166112 0.128557 0.991563 
0.25481 0.0903737 0.962759 -0.571129 0.210985 0.793282 0.0881455 0.214218 0.9728 
0.550066 0.164858 0.818687 0.422143 0.224731 0.878232 -0.693929 -0.684855 -0.222342 
-0.927532 -0.241779 -0.285006 0.418239 -0.681229 0.600835 0.468272 -0.819695 0.329882 
0.624928 -0.613075 0.483327 0.44916 -0.620228 0.643096 0.562986 -0.46871 0.680704 
-0.915428 0.119874 0.384216 -0.859226 0.240336 0.451629 0.707095 -0.230876 0.668366 
0.418048 -0.120735 0.900366 0.362229 0.0210697 0.931851 0.784811 -0.0221031 0.619341 
-0.702271 0.115533 0.702473 -0.639641 0.149864 0.753923 -0.166806 0.195158 0.966483 
0.346307 0.0429342 0.937138 0.321737 -0.0167731 0.946681 0.716865 -0.0482669 0.69554 
0.640881 0.110119 0.759701 -0.494233 0.171099 0.852326 -0.19464 -0.97675 0.0898588 
-0.999167 0.0384712 -0.0136362 0.421824 -0.902783 0.083943 0.476643 -0.775009 0.414937 
-0.94087 0.21668 0.260411 0.327228 -0.479396 0.814311 0.137108 -0.131763 0.981753 
0.386669 -0.305892 0.87001 0.542732 -0.261064 0.798303 0.597018 -0.327661 0.732262 
-0.686331 0.175143 0.705886 0.152543 -0.0700079 0.985814 -0.746952 0.24567 0.617826 
-0.414553 0.242491 0.877123 -0.0962673 0.153603 0.983432 0.163452 0.0667113 0.984293 
-0.596143 0.0753083 0.799339 -0.158438 -0.854453 0.494781 0.278327 -0.805097 0.523786 
0.308727 -0.481982 0.819989 -0.849428 0.235824 0.47208 -0.678263 0.227011 0.698875 
-0.655947 0.159435 0.737776 -0.23518 0.0945952 0.967337 0.0442301 -0.0612877 0.99714 
-0.468923 0.108416 0.87656 0.362973 -0.417668 0.832949 -0.874894 -0.00877619 0.484235 
-0.479726 0.159324 0.862832 -0.837606 -0.477836 0.264744 -0.990523 -0.00591188 0.137218 
-0.167723 -0.380756 0.909337 -0.881495 0.159973 0.44427 -0.116763 -0.0163988 0.993024 
-0.375036 0.0896989 0.92266 -0.017139 -0.0528645 0.998455 -0.757199 0.00835367 0.653131 
-0.507017 0.131499 0.851846 0.266712 -0.025857 -0.963429 0.0613664 -0.426934 -0.902198 
-0.897956 0.236512 0.371129 0.0613664 -0.426934 -0.902198 
