# vtk DataFile Version 4.2
vtk output
ASCII
DATASET POLYDATA
POINTS 610 float
236.729 212.539 202.637 237.176 212.589 202.666 237.331 212.397 202.809 
237.5 212.874 202.669 238.301 212.921 202.87 237.92 213.182 202.756 
234.414 211.881 203.122 235.704 211.88 203.03 236.759 211.869 203.223 
238.428 212.464 203.379 235.387 212.617 202.851 230.856 210.635 203.888 
234.585 211.232 203.536 236.049 211.175 204.004 230.012 211.085 203.809 
230.39 210.958 203.798 233.804 211.415 203.424 232.333 211.954 203.48 
240.215 213.219 203.759 232.377 212.54 203.517 234.203 212.6 203.105 
239.688 213.669 203.327 241.063 213.303 204.117 241.635 213.613 204.119 
240.856 214.368 203.517 243.056 214.683 204.054 238.479 214.594 203.181 
242.443 215.554 203.762 244.925 215.825 204.387 243.564 216.095 204.008 
244.056 215.984 204.089 244.873 216.074 204.379 244.363 216.29 204.232 
223.912 208.249 205.106 225.206 208.229 204.993 224.662 207.867 205.216 
224.418 208.611 204.896 224.472 209.265 204.833 225.75 209.245 204.639 
234.761 210.702 204.306 229.83 212.118 204.054 239.03 212.109 204.446 
232.83 213.348 203.67 245.666 215.809 204.954 241.461 215.801 203.675 
245.605 216.02 204.868 239.206 216.557 204.123 244.417 216.622 204.419 
222.263 206.719 206.378 222.701 206.752 206.23 221.458 207.236 206.179 
222.726 207.428 205.71 223.012 206.915 206.025 221.132 207.293 206.326 
221.965 207.827 205.785 221.161 208.173 206.121 223.225 208.393 205.275 
229.407 208.809 205.183 221.545 208.907 205.918 230.053 208.945 205.278 
222.436 209.389 205.582 225.95 211.245 204.895 245.845 215.675 205.242 
246.327 216.227 205.66 246.003 216.847 205.425 246.462 216.686 205.851 
239.935 217.455 204.736 240.837 217.387 204.592 244.475 217.771 205.188 
245.738 217.831 205.845 223.176 206.511 206.569 220.986 207.129 206.545 
220.175 207.847 207.168 220.442 208.295 206.817 222.638 210.563 205.904 
225.008 211.607 205.384 238.959 211.587 205.916 224.49 211.937 205.832 
245.826 215.102 205.754 246.465 215.942 205.962 246.423 217.424 206.066 
246.799 217.517 206.581 246.765 217.896 206.826 221.084 206.541 207.278 
220.433 207.137 207.165 220.189 206.996 207.6 220.627 209.456 206.893 
233.795 209.733 206.355 245.881 214.925 206.1 246.993 216.429 206.675 
247.138 216.772 206.888 220.217 206.779 207.836 219.511 207.83 208.173 
219.891 209.859 208.008 233.343 217.09 206.511 247.424 217.671 207.68 
247.327 217.966 207.731 220.302 206.474 208.475 219.589 207.039 208.876 
219.374 207.422 208.751 234.863 209.869 207.79 221.34 212.345 208.481 
247.172 215.816 208.044 247.811 218.106 208.998 246.928 219.341 208.376 
219.074 207.289 210.033 219.024 207.708 209.58 220.149 212.071 209.772 
245.15 213.848 208.74 246.584 214.923 208.671 247.982 218.521 209.573 
248.187 218.482 210.071 224.678 206.137 209.746 218.788 208.683 210.128 
246.374 214.682 209.092 247.531 215.966 209.581 248.28 218.114 210.33 
247.797 220.354 210.767 245.329 221.543 209.774 219.457 206.566 211.135 
236.984 210.48 211.54 242.088 223.404 211.518 218.924 206.929 212.52 
218.862 212.025 213.274 221.403 215.224 212.15 247.284 222.104 212.155 
227.416 220.31 213.46 245.749 223.932 213.765 220.116 206.01 214.337 
218.605 207.34 213.71 248.508 222.033 215.106 246.533 224.378 215.388 
244.608 225.385 215.631 222.467 205.723 215.193 218.137 209.018 215.506 
249.103 218.451 215.484 247.673 223.758 216.274 234.147 225.39 216.469 
219.637 206.36 217.347 220.664 205.927 216.813 218.222 208.427 216.181 
245.469 214.013 216.97 219.325 214.932 217.527 218.625 207.406 217.334 
248.443 216.782 217.239 228.713 223.655 218.127 247.216 224.862 217.875 
219.318 206.683 218.247 219.572 206.575 218.687 220.049 206.366 218.892 
218.928 207.271 218.772 248.644 223.467 219.581 232.665 225.99 219.317 
244.52 226.647 218.891 219.334 207.107 219.597 218.647 207.941 219.252 
218.457 208.206 218.815 220.662 217.383 220.136 248.999 222.703 220.531 
245.453 226.71 220.418 219.649 207.204 220.527 219.054 214.034 220.74 
247.525 215.778 220.32 219.665 215.753 220.778 249.309 220.879 220.785 
225.158 221.656 221.157 227.82 223.63 221.005 220.471 206.766 221.092 
219.021 209.067 221.139 237.414 210.623 222.446 222.075 218.891 221.399 
248.794 222.984 221.939 246.97 225.81 221.789 246.053 226.475 221.536 
242.072 227.765 222.407 219.794 207.856 221.665 219.369 208.172 221.255 
219.273 209.31 221.699 224.103 220.595 222.39 227.204 223.174 222.06 
248.375 223.678 222.599 229.558 224.746 222.246 235.53 227.413 222.716 
243.763 227.193 222.745 239.385 227.953 223.304 219.926 213.393 223.043 
248.144 217.036 223.162 222.579 219.069 222.519 234.662 227.032 223.183 
236.726 227.663 223.222 242.757 227.401 223.333 245.08 226.598 223.053 
238.757 227.86 223.786 239.203 227.975 223.67 239.412 227.95 223.678 
239.27 227.978 223.752 220.564 208.345 222.959 220.266 208.317 222.676 
221.442 207.921 223.249 227.142 211.125 227.05 227.369 211.568 226.883 
227.981 211.79 227.036 228.161 211.6 227.262 228.45 212.241 226.986 
220.512 216.059 223.082 221.372 217.606 222.962 221.74 217.879 223.143 
223.539 219.288 223.587 248.681 220.563 223.783 248.274 222.647 223.795 
227.311 222.937 223.198 247.782 223.91 223.756 230.062 224.705 223.55 
245.873 225.753 223.883 242.179 227.26 223.897 236.42 227.366 223.942 
239.281 227.893 223.839 238.383 227.622 224.356 222.129 208.239 223.87 
222.775 207.962 224.07 225.083 207.754 225.315 224.729 208.636 225.923 
225.082 210.036 226.199 226.206 210.303 226.958 228.562 211.397 227.77 
227.618 212.931 226.444 232.29 213.873 227.687 227.428 213.541 226.274 
221.068 215.096 223.916 234.137 215.215 227.513 235.949 215.355 228.044 
235.97 216.134 227.546 238.424 217.072 227.673 236.759 217.464 227.217 
223.509 218.175 224.31 224.046 219.536 223.895 224.586 220.267 223.795 
230.057 224.477 223.91 246.9 224.639 224.258 234.2 226.486 224.052 
236.05 227.085 224.249 237.366 227.291 224.443 238.247 227.467 224.517 
225.41 209.025 226.714 226.004 209.293 227.327 227.511 210.693 227.721 
235.057 214.605 228.457 236.576 215.424 228.279 238.032 216.032 228.36 
240.118 217.002 228.194 241.558 217.974 227.808 244.331 218.504 227.792 
247.808 217.756 225.793 245.969 218.926 227.257 246.782 218.932 226.827 
247.028 218.355 227.076 247.486 218.156 226.511 243.106 219.756 227.119 
245.739 219.629 226.88 228.692 220.946 225.4 246.265 222.994 225.45 
247.414 222.834 224.773 230.541 224.054 224.561 235.932 224.358 225.882 
243.88 223.945 225.776 244.661 223.846 225.65 246.648 223.555 225.03 
231.442 224.81 224.384 235.009 225.056 225.45 236.751 225.065 225.722 
240.896 225.515 225.531 236.682 226.321 225.09 244.878 225.479 224.651 
239.65 226.755 224.941 227.543 210.381 228.135 230.951 212.347 228.676 
232.264 212.984 228.822 237.213 215.444 228.829 238.831 216.237 228.596 
247.068 216.05 227.473 242.845 217.542 228.511 245.414 218.074 228.437 
247.52 217.136 226.64 245.748 218.148 228.227 246.752 218.07 227.772 
247.17 217.747 227.49 226.109 208.297 227.433 226.063 208.532 227.576 
230.984 208.786 229.363 228.738 210.779 229.112 236.465 215.075 229.028 
237.821 215.698 229.042 241.745 217.098 228.921 247.143 216.397 228.386 
244.397 217.879 228.872 245.916 217.991 228.893 246.233 217.954 228.669 
247.352 217.254 227.341 247.174 217.118 228.316 246.751 217.761 228.597 
226.208 208.435 227.682 226.579 208.517 228.069 226.77 208.922 228.46 
228.824 210.69 229.522 232.786 213.106 229.305 244.042 213.465 230.193 
240.253 216.664 229.083 241.614 217.119 229.172 244.955 218.108 229.353 
246.315 218.127 229.666 247.14 217.351 229.52 246.797 217.887 229.673 
227.135 208.81 228.768 228.056 209.245 230.027 228.504 208.996 230.415 
229.642 208.798 230.682 227.953 209.616 229.759 232.664 213.043 229.836 
236.639 215.283 229.677 245.758 214.527 230.574 245.012 218.566 229.92 
245.818 218.346 229.827 247.379 217.766 230.704 247.726 217.226 231.477 
242.947 218.733 230.081 246.738 218.428 230.418 247.782 218.176 231.492 
247.27 219.601 231.447 245.303 220.995 230.944 245.996 220.81 231.119 
247.753 219.99 232.028 246.579 221.316 231.526 248.168 220.341 232.637 
230.297 222.366 232.184 228.826 222.901 233.171 229.137 223.458 233.34 
231.209 223.815 232.378 233.684 223.794 231.64 229.267 223.842 233.639 
241.586 224.319 231.14 246.157 223.453 231.938 232.643 225.048 232.516 
234.392 225.191 231.996 233.485 225.729 232.686 234.339 225.769 232.369 
246.975 224.418 232.949 233.83 226.228 233.021 236.081 226.533 232.366 
244.285 225.683 232.249 239.801 226.941 232.092 242.551 226.427 232.199 
239.78 227.407 232.389 242.262 226.93 232.541 238.495 227.603 232.58 
239.008 227.639 232.548 228.67 209.295 231.447 228.325 209.62 230.605 
228.818 210.475 230.35 229.73 211.24 230.609 233.554 213.722 230.303 
240.914 217.139 229.527 238.594 217.303 230.312 237.87 217.831 230.617 
235.427 218.515 231.094 225.265 220.285 233.939 227.62 220.636 232.752 
228.461 221.36 232.617 230.057 221.553 232.086 248.38 222.763 233.849 
230.825 225.143 233.795 246.482 225.568 233.525 235.109 226.994 233.478 
236.514 227.521 233.48 239.188 227.86 232.799 239.515 227.942 232.949 
239.941 227.696 232.674 240.485 227.885 233.083 222.034 207.964 235.725 
228.619 209.638 231.969 228.937 209.248 232.638 228.601 209.987 231.309 
229.215 210.885 231.311 230.125 211.594 230.924 232.762 213.455 230.743 
233.702 214.239 230.767 222.385 215.283 234.162 230.09 215.039 232.178 
225.39 215.8 233.003 247.938 216.796 232.729 221.694 216.977 235.165 
222.961 217.414 234.278 248.799 220.164 233.801 231.1 225.394 234.026 
244.789 226.735 233.718 239.859 228.022 233.314 240.572 228.053 233.25 
240.463 228.063 233.345 240.701 228.036 233.309 241.113 227.918 233.525 
240.613 228.087 233.322 221.691 207.606 236.298 221.618 207.958 236 
221.525 208.481 235.789 228.638 209.16 233.935 228.445 209.656 232.956 
228.584 210.14 232.176 229.136 210.973 231.754 220.331 212.26 235.559 
[...]
POINT_DATA 610
SCALARS scalars float
LOOKUP_TABLE default
1 1 1 1 1 1 1 1 1 
1 1 1 1 1 1 1 1 1 
1 1 1 1 1 1 1 1 1 
1 1 1 1 1 1 1 1 1 
1 1 1 1 1 1 1 1 1 
1 1 1 1 1 1 1 1 1 
1 1 1 1 1 1 1 1 1 
1 1 1 1 1 1 1 1 1 
1 1 1 1 1 1 1 1 1 
1 1 1 1 1 1 1 1 1 
1 1 1 1 1 1 1 1 1 
1 1 1 1 1 1 1 1 1 
1 1 1 1 1 1 1 1 1 
1 1 1 1 1 1 1 1 1 
1 1 1 1 1 1 1 1 1 
1 1 1 1 1 1 1 1 1 
1 1 1 1 1 1 1 1 1 
1 1 1 1 1 1 1 1 1 
1 1 1 1 1 1 1 1 1 
1 1 1 1 1 1 1 1 1 
1 1 1 1 1 1 1 1 1 
1 1 1 1 1 1 1 1 1 
1 1 1 1 1 1 1 1 1 
1 1 1 1 1 1 1 1 1 
1 1 1 1 1 1 1 1 1 
1 1 1 1 1 1 1 1 1 
1 1 1 1 1 1 1 1 1 
1 1 1 1 1 1 1 1 1 
1 1 1 1 1 1 1 1 1 
1 1 1 1 1 1 1 1 1 
1 1 1 1 1 1 1 1 1 
1 1 1 1 1 1 1 1 1 
1 1 1 1 1 1 1 1 1 
1 1 1 1 1 1 1 1 1 
1 1 1 1 1 1 1 1 1 
1 1 1 1 1 1 1 1 1 
1 1 1 1 1 1 1 1 1 
1 1 1 1 1 1 1 1 1 
1 1 1 1 1 1 1 1 1 
1 1 1 1 1 1 1 1 1 
1 1 1 1 1 1 1 1 1 
1 1 1 1 1 1 1 1 1 
1 1 1 1 1 1 1 1 1 
1 1 1 1 1 1 1 1 1 
1 1 1 1 1 1 1 1 1 
1 1 1 1 1 1 1 1 1 
1 1 1 1 1 1 1 1 1 
1 1 1 1 1 1 1 1 1 
1 1 1 1 1 1 1 1 1 
1 1 1 1 1 1 1 1 1 
1 1 1 1 1 1 1 1 1 
1 1 1 1 1 1 1 1 1 
1 1 1 1 1 1 1 1 1 
1 1 1 1 1 1 1 1 1 
1 1 1 1 1 1 1 1 1 
1 1 1 1 1 1 1 1 1 
1 1 1 1 1 1 1 1 1 
1 1 1 1 1 1 1 1 1 
1 1 1 1 1 1 1 1 1 
1 1 1 1 1 1 1 1 1 
1 1 1 1 1 1 1 1 1 
1 1 1 1 1 1 1 1 1 
1 1 1 1 1 1 1 1 1 
1 1 1 1 1 1 1 1 1 
1 1 1 1 1 1 1 1 1 
1 1 1 1 1 1 1 1 1 
1 1 1 1 1 1 1 1 1 
1 1 1 1 1 1 1 
NORMALS Normals float
0.0213462 -0.32637 -0.945001 0.0901009 0.00402366 -0.995925 0.253815 -0.567363 -0.783376 
0.128568 -0.0504972 -0.990414 0.374529 -0.34252 -0.861631 -0.135195 0.322639 -0.936817 
-0.160063 -0.256833 -0.953109 -0.0139533 -0.51523 -0.856939 0.305609 -0.802446 -0.512527 
0.368387 -0.76318 -0.530893 -0.15234 0.258806 -0.953841 -0.00208679 -0.45784 -0.889032 
0.028565 -0.71309 -0.70049 0.292936 -0.849221 -0.439331 -0.125674 -0.103368 -0.986672 
-0.0988476 -0.120321 -0.987802 -0.0393997 -0.568758 -0.821561 -0.0930426 -0.0617642 -0.993745 
0.287025 -0.577204 -0.764494 -0.259699 0.330423 -0.907401 -0.23753 -0.0471042 -0.970237 
0.361535 -0.364042 -0.858351 0.347678 -0.530791 -0.772904 0.48621 -0.780922 -0.392123 
0.255189 -0.109071 -0.96072 0.234881 -0.210637 -0.948927 0.0562463 0.294543 -0.953981 
0.131663 0.140106 -0.981344 0.463793 -0.518108 -0.718652 0.136824 0.286389 -0.948293 
0.188233 0.138983 -0.972241 0.485894 0.229425 -0.843369 0.242988 0.267317 -0.932469 
-0.26057 -0.358771 -0.896318 0.00337076 -0.405877 -0.913921 -0.0364056 -0.625043 -0.779741 
-0.113059 -0.256563 -0.959892 -0.232181 0.0422223 -0.971756 -0.195383 -0.0150336 -0.980612 
0.196053 -0.873442 -0.445715 -0.211722 0.280499 -0.936213 0.388746 -0.82595 -0.408269 
-0.239103 0.370866 -0.897378 0.655604 -0.193713 -0.729834 0.0950341 0.177398 -0.97954 
0.718566 0.0272332 -0.694925 -0.314869 0.584457 -0.747842 0.223987 0.465352 -0.856316 
-0.141324 -0.807128 -0.573213 -0.243853 -0.795902 -0.554144 -0.349196 -0.51609 -0.782121 
-0.174989 -0.489847 -0.854066 -0.0196782 -0.629966 -0.776373 -0.567796 -0.306308 -0.764057 
-0.324999 -0.273013 -0.90545 -0.58823 -0.0954203 -0.803045 -0.238847 -0.308934 -0.920604 
0.210781 -0.839709 -0.50046 -0.537692 0.141733 -0.831143 0.190923 -0.83353 -0.518437 
-0.41701 0.177832 -0.891335 -0.211071 0.600681 -0.771123 0.727203 -0.289051 -0.622596 
0.767736 -0.143698 -0.624445 0.621903 0.254941 -0.740434 0.759306 0.145111 -0.634347 
-0.0630787 0.620246 -0.781867 0.0175834 0.583395 -0.811998 0.237924 0.603851 -0.76076 
0.481585 0.607806 -0.631385 0.0153665 -0.905531 -0.424002 -0.611352 -0.441334 -0.656866 
-0.809414 -0.0657019 -0.583551 -0.730587 -0.0169373 -0.68261 -0.414005 0.486868 -0.769129 
-0.262666 0.417081 -0.870086 0.303717 -0.921787 -0.240966 -0.185119 0.757661 -0.625844 
0.593313 -0.590625 -0.546938 0.822565 -0.311024 -0.476078 0.713471 0.268583 -0.647165 
0.740401 0.39612 -0.543043 0.676546 0.576241 -0.458511 -0.273175 -0.903198 -0.331073 
-0.667807 -0.427085 -0.609617 -0.715474 -0.484593 -0.503255 -0.680197 0.347166 -0.645606 
0.205854 -0.974139 -0.093153 0.529003 -0.800844 -0.280722 0.900588 -0.246394 -0.358095 
0.885237 0.0912278 -0.456107 -0.680096 -0.629764 -0.375322 -0.867342 -0.250865 -0.429866 
-0.867225 0.232602 -0.440247 -0.335338 0.640753 -0.690641 0.875579 0.2084 -0.435812 
0.715834 0.514072 -0.47256 -0.489537 -0.854399 -0.174231 -0.76662 -0.568074 -0.299308 
-0.918982 -0.179818 -0.350909 0.324688 -0.943551 -0.0654922 -0.54581 0.680967 -0.488238 
0.846664 -0.513593 -0.139218 0.937577 0.109741 -0.33001 0.722171 0.540708 -0.431398 
-0.856191 -0.491404 -0.159558 -0.925633 -0.294664 -0.237439 -0.730961 0.555994 -0.395684 
0.512123 -0.857254 0.053339 0.724255 -0.671493 -0.156689 0.890908 0.249436 -0.379558 
0.843872 0.395943 -0.36209 0.131549 -0.987628 -0.0853563 -0.973755 0.00184938 -0.227592 
0.676306 -0.686072 0.26817 0.864307 -0.498271 0.0685552 0.977268 -0.0276609 -0.210196 
0.862949 0.347808 -0.366536 0.409156 0.704296 -0.580136 -0.382018 -0.924104 0.0096886 
0.267544 -0.963382 -0.0177499 -0.0793215 0.789412 -0.608718 -0.761255 -0.648406 0.00778009 
-0.852831 0.471857 -0.223674 -0.509713 0.728247 -0.458093 0.605619 0.673464 -0.423878 
-0.42874 0.749146 -0.504938 0.417304 0.785669 -0.456707 -0.301281 -0.952961 -0.0330806 
-0.791323 -0.610484 0.033415 0.83733 0.479781 -0.262085 0.558992 0.758027 -0.33604 
0.284879 0.889916 -0.356222 0.0253804 -0.997541 0.0653295 -0.985549 -0.122444 -0.117052 
0.976469 -0.215231 0.0135874 0.654682 0.719812 -0.230785 -0.180956 0.889511 -0.419553 
-0.621171 -0.783164 0.0283042 -0.186322 -0.977872 0.0951381 -0.850912 -0.476865 -0.220339 
0.52993 -0.846594 0.0495214 -0.92834 0.364212 -0.0743947 -0.799706 -0.596988 -0.0638384 
0.841471 -0.540299 0.00187608 -0.548514 0.794341 -0.261065 0.659714 0.726939 -0.190623 
-0.648422 -0.758854 0.0607462 -0.588375 -0.782618 0.203285 -0.359551 -0.912256 0.196245 
-0.803954 -0.576612 0.145526 0.894873 0.434129 -0.103609 -0.260231 0.932092 -0.25196 
0.166987 0.93653 -0.308266 -0.734825 -0.621604 0.271369 -0.86157 -0.452242 0.230593 
-0.968804 -0.20817 0.134477 -0.79634 0.596969 -0.0973202 0.94493 0.326692 -0.0194884 
0.460152 0.877733 -0.133586 -0.742588 -0.59688 0.303805 -0.972389 0.189893 0.135649 
0.760525 -0.627553 0.166671 -0.921086 0.370649 0.119245 0.996097 0.0510211 0.0720308 
-0.629388 0.776591 -0.0278733 -0.571282 0.820657 -0.0126205 -0.352721 -0.83876 0.414812 
-0.896517 -0.237507 0.373962 0.319936 -0.931361 0.173806 -0.682465 0.720871 0.120777 
0.940351 0.182344 0.287213 0.697432 0.708598 0.107134 0.469839 0.880648 0.0609218 
0.157979 0.986259 0.048325 -0.710588 -0.470738 0.522944 -0.799063 -0.452221 0.396225 
-0.835002 -0.105442 0.54005 -0.632828 0.702379 0.325872 -0.609795 0.792317 0.0195807 
0.890615 0.439202 0.117923 -0.540295 0.836824 0.0883574 -0.312189 0.943383 0.1121 
0.311158 0.911189 0.270029 -0.0198278 0.991975 -0.12487 -0.748443 0.0432913 0.661785 
0.873703 -0.460542 0.156667 -0.570374 0.741806 0.352702 -0.343961 0.909255 0.234406 
-0.212813 0.970059 0.117032 0.281711 0.918885 0.276206 0.366701 0.871446 0.32575 
-0.30455 0.939863 0.154616 -0.0686535 0.99627 -0.0522755 0.264568 0.913691 0.308502 
0.0651095 0.929219 0.363749 -0.599058 -0.204744 0.774086 -0.657404 -0.420574 0.62525 
-0.523516 -0.422661 0.739789 -0.387895 0.489021 0.781278 -0.298669 0.461775 0.835201 
-0.446971 0.431799 0.783433 -0.549197 0.505697 0.665322 -0.415109 0.447932 0.791859 
-0.797635 0.408705 0.443552 -0.721494 0.485671 0.493528 -0.643274 0.583983 0.495139 
-0.598907 0.682131 0.419533 0.900872 0.0886768 0.424932 0.818464 0.292886 0.494303 
-0.549111 0.787712 0.279261 0.763644 0.477417 0.434651 -0.435667 0.822148 0.366424 
0.454247 0.673841 0.58275 0.202857 0.801169 0.563007 -0.253818 0.840674 0.478376 
0.170915 0.777488 0.605228 -0.217806 0.872101 0.438178 -0.490847 -0.441097 0.751334 
-0.497689 -0.489932 0.715732 -0.300727 -0.835879 0.459206 -0.699093 -0.247721 0.670749 
-0.595976 0.131482 0.792165 -0.585611 0.38564 0.712981 -0.56221 0.573573 0.595763 
-0.17623 0.286677 0.941679 -0.295101 0.443835 0.846124 -0.304711 0.211808 0.928595 
-0.504267 0.153245 0.849841 -0.227271 0.436932 0.870309 -0.246199 0.598188 0.762599 
-0.256795 0.501481 0.82618 -0.25229 0.456817 0.853035 -0.157309 0.276222 0.948132 
-0.48554 0.345484 0.803051 -0.598519 0.539462 0.592247 -0.523587 0.610688 0.594068 
-0.478435 0.671367 0.566009 0.571792 0.516081 0.637741 -0.303368 0.757844 0.577616 
-0.307549 0.837625 0.45144 -0.129847 0.739147 0.66091 -0.251675 0.716298 0.650828 
-0.723604 0.118173 0.680023 -0.787394 0.226421 0.573362 -0.400444 0.641979 0.653841 
-0.349829 0.740521 0.573801 -0.376004 0.748254 0.546568 -0.306926 0.681495 0.66435 
-0.331933 0.529419 0.780728 -0.48787 0.418366 -0.766129 0.0480286 0.67673 0.734663 
0.945606 0.0868433 0.313507 0.287148 0.607356 0.740719 0.59699 0.476286 0.645565 
0.577962 0.600872 0.55219 0.86531 0.384316 0.321775 -0.0128696 0.396249 0.918053 
0.215763 0.430918 0.876217 -0.27309 0.34173 0.899245 0.348673 0.300773 0.887672 
0.689833 0.279648 0.667778 -0.260302 0.608581 0.749581 -0.129934 0.285825 0.949432 
0.168208 0.378636 0.910132 0.305895 0.414852 0.856928 0.5193 0.417241 0.745813 
-0.29207 0.500109 0.815221 -0.243304 0.453117 0.857606 -0.0349879 0.418231 0.907667 
0.0616106 0.391342 0.918181 -0.14505 0.569177 0.809319 0.298829 0.669919 0.67964 
0.158194 0.638604 0.7531 -0.54707 0.649913 0.527567 -0.474379 0.76535 0.434977 
-0.415581 0.854846 0.310693 -0.431972 0.885017 0.173626 -0.363303 0.876147 0.316823 
0.853495 -0.516588 0.0684277 -0.197854 0.812477 0.548393 -0.0797786 0.939127 0.33418 
0.966221 -0.0358897 0.255205 0.17145 0.894558 0.41276 0.465918 0.805494 0.366196 
0.856305 0.40029 0.326359 -0.535645 -0.704146 0.466114 -0.801953 -0.247831 0.543555 
0.239444 -0.9401 0.242649 -0.568587 0.760334 0.314008 -0.462814 0.886454 -0.00158557 
-0.390158 0.893793 0.221158 -0.249169 0.967026 -0.0526828 0.983841 -0.177088 -0.0263904 
-0.200247 0.978996 -0.0383212 0.0395402 0.995928 -0.0810226 0.266071 0.963062 0.0414378 
0.98497 0.0262974 0.170714 0.957582 0.253889 0.136295 0.689857 0.716401 0.104245 
-0.618779 -0.487198 0.61624 -0.378397 -0.710866 0.592862 -0.748111 0.190664 0.635592 
-0.608261 0.77274 0.181359 -0.45498 0.885232 0.096731 0.387484 -0.915184 0.110878 
-0.349342 0.927716 -0.131542 -0.273857 0.751137 -0.600663 -0.0643714 0.856147 -0.512708 
0.275284 0.898924 -0.340813 0.907479 0.38058 -0.177876 0.60357 0.744438 -0.28551 
0.744052 -0.566714 -0.353867 -0.858865 -0.160377 0.486446 -0.62323 -0.695053 0.358449 
-0.0257224 -0.937947 0.345824 -0.807353 0.354554 0.47167 -0.486478 0.868438 -0.0956795 
-0.423419 0.782452 -0.456602 0.705182 -0.707297 -0.0494808 0.0736272 0.514439 -0.85436 
0.236207 0.724521 -0.647515 0.835713 0.362285 -0.412714 0.973476 0.0282022 -0.227043 
-0.151328 0.416804 -0.896312 0.565761 0.581397 -0.584716 0.86974 0.170789 -0.463015 
0.540132 0.297451 -0.787261 0.275883 0.321207 -0.905933 0.415732 0.218408 -0.882873 
0.821023 0.116895 -0.5588 0.453701 0.288526 -0.843154 0.7682 0.180776 -0.614157 
-0.338234 0.328105 -0.882012 -0.471636 0.445274 -0.761112 -0.474122 0.543753 -0.69249 
-0.356484 0.348264 -0.866967 -0.208732 0.285579 -0.935348 -0.625693 0.690207 -0.363487 
0.0878521 0.325061 -0.941604 0.475828 0.337694 -0.812127 -0.336001 0.601757 -0.724563 
-0.237519 0.409657 -0.880776 -0.291108 0.607729 -0.738865 -0.32776 0.61417 -0.717892 
0.691062 0.452788 -0.563398 -0.303442 0.737614 -0.603199 -0.168234 0.512285 -0.842176 
0.326873 0.566959 -0.756116 -0.000249746 0.380093 -0.924948 0.115681 0.520416 -0.846041 
0.11969 0.638854 -0.759961 0.199712 0.670094 -0.714905 -0.188053 0.8203 -0.540133 
-0.01033 0.607755 -0.794057 -0.937672 -0.239119 0.252178 -0.914786 0.23481 0.328682 
-0.739294 0.646562 0.188156 -0.601818 0.798602 -0.00709773 -0.531228 0.73954 -0.413374 
-0.350783 0.588819 -0.728178 -0.263562 0.374793 -0.888856 -0.19436 0.154302 -0.968718 
-0.18778 0.0894516 -0.97813 -0.502576 0.403926 -0.76437 -0.422857 0.401284 -0.812504 
-0.374747 0.205804 -0.903996 -0.309774 0.149707 -0.93895 0.839348 0.257518 -0.478728 
-0.440873 0.627503 -0.641772 0.429932 0.57536 -0.695787 -0.301246 0.827245 -0.474253 
-0.289726 0.888967 -0.354677 -0.128097 0.926702 -0.35329 0.0396619 0.848745 -0.527313 
0.24564 0.688667 -0.682202 0.204468 0.659426 -0.723429 -0.249635 -0.570357 -0.782544 
-0.960499 -0.276864 -0.0280817 -0.589647 -0.806029 0.0513209 -0.954677 0.296807 0.0223121 
-0.775122 0.629682 -0.051822 -0.618903 0.714671 -0.325891 -0.546452 0.696368 -0.465255 
-0.479188 0.598511 -0.641999 -0.490395 0.115865 -0.863764 -0.380693 0.0727463 -0.921836 
-0.302835 -0.0244298 -0.95273 0.861627 -0.481712 -0.159852 -0.720311 0.317055 -0.616951 
-0.557865 0.344806 -0.754914 0.94982 0.0242878 -0.311852 -0.485849 0.829647 -0.275023 
0.390732 0.805138 -0.446184 -0.0389184 0.975919 -0.214633 0.044829 0.803679 -0.593372 
-0.176245 0.959614 -0.219269 0.448004 0.736179 -0.50728 0.280935 0.920542 -0.271437 
0.142295 0.966142 -0.215224 -0.557861 -0.599955 -0.573451 -0.728174 -0.451473 -0.515688 
-0.636975 -0.310948 -0.705389 -0.268307 -0.924204 -0.27177 -0.790291 -0.519764 -0.324479 
-0.966767 0.0940956 -0.237713 -0.767497 0.522436 -0.371495 -0.703354 -0.0361813 -0.709918 
-0.503716 -0.070013 -0.861028 -0.41022 0.330937 -0.849824 -0.732365 0.157618 -0.662418 
-0.8053 0.240587 -0.541858 0.49454 -0.868598 0.0311128 0.872614 -0.485007 -0.0575638 
0.943035 -0.272386 -0.191024 -0.742059 0.589341 -0.319415 -0.563516 0.620867 -0.544953 
0.671948 0.700717 -0.239753 0.869588 0.472846 -0.142247 0.266524 0.886542 -0.378165 
0.143034 0.986159 0.0838591 0.090996 -0.825555 -0.556938 -0.0236394 -0.908091 -0.418104 
-0.0818306 -0.961744 -0.261441 -0.372775 -0.719227 -0.586303 -0.268715 -0.472397 -0.839424 
-0.702689 -0.103249 -0.703966 -0.668531 0.273117 -0.691718 -0.547897 0.412004 -0.728054 
0.802251 -0.593877 -0.0608458 -0.574251 0.791217 -0.210266 -0.548983 0.814612 -0.187152 
-0.352045 0.933707 0.0652338 0.5675 0.823089 -0.0216112 -0.101033 0.993365 0.0549462 
-0.239527 -0.908617 -0.342115 -0.0669374 -0.855591 -0.513306 -0.499718 -0.695991 -0.515634 
0.043725 -0.996087 -0.0768082 0.0786331 -0.99373 -0.079487 -0.86206 0.369995 -0.346346 
0.970351 -0.229245 -0.0765845 -0.65585 0.753735 0.0417677 0.994488 0.021198 -0.102685 
0.0659346 0.989522 0.128445 0.306138 0.951725 -0.0223263 -0.748327 -0.283693 -0.599604 
0.300974 -0.953149 -0.0303523 -0.912231 0.102229 -0.396717 0.987683 -0.0999852 -0.120354 
0.919699 0.392606 -0.00366391 0.358127 0.901891 0.241532 -0.764678 -0.591565 -0.255575 
-0.800214 -0.401166 -0.445784 0.156993 -0.959353 -0.23451 -0.865447 0.50068 -0.0179384 
0.989627 -0.119216 -0.080168 0.696525 0.682021 0.222938 -0.0127805 -0.969888 -0.243218 
0.237103 -0.947819 -0.213121 0.988478 -0.0844389 -0.125625 -0.505068 -0.847774 -0.161817 
-0.953414 -0.20766 -0.218814 -0.986828 -0.0267812 -0.159542 0.967123 -0.253816 -0.0158384 
0.967925 0.225609 0.11055 -0.143233 -0.988467 -0.0491637 -0.718534 -0.695335 0.0147443 
-0.913699 -0.389362 -0.116407 -0.995182 0.0880078 -0.0432212 -0.912811 0.397097 0.0953443 
0.858577 -0.499191 -0.116851 0.995729 -0.0245073 0.0890092 -0.39753 0.865863 0.303727 
-0.0717921 0.94248 0.326462 0.121408 0.913771 0.387663 0.296002 -0.952567 -0.0707067 
-0.915458 0.353913 0.191526 -0.752518 0.576156 0.318999 0.24397 0.865047 0.438375 
-0.970853 -0.239323 -0.0130274 -0.653847 0.725687 0.214157 0.96421 0.157102 0.213585 
0.189108 -0.981257 0.0370515 -0.509192 0.737975 0.44285 -0.398221 -0.917229 0.0105146 
-0.949726 -0.307566 0.0585129 -0.829664 0.499009 0.250295 0.711784 -0.701247 0.0401933 
-0.697242 0.623351 0.35396 0.974885 -0.195549 0.106581 -0.185161 0.808277 0.558931 
0.0233088 0.83784 0.545418 -0.509537 -0.852446 0.117082 -0.887985 -0.438581 0.138307 
-0.999412 0.0213814 0.026803 0.882655 0.355654 0.307295 0.667384 0.620197 0.412255 
-0.105396 -0.983102 0.149672 -0.795382 -0.593693 0.122045 0.22346 -0.969395 0.10168 
-0.952559 0.303815 0.0181189 -0.786085 0.486452 0.381359 0.913413 -0.376507 0.154658 
0.938497 0.0662714 0.338868 -0.263429 0.679589 0.684663 0.750878 0.456969 0.476825 
0.447816 0.747386 0.490789 -0.0422141 0.803408 0.59393 -0.608909 -0.768299 0.197349 
-0.947301 0.0947015 0.306026 0.719899 -0.671555 0.175382 0.845341 -0.509281 0.161343 
-0.333685 0.81567 0.472584 -0.345865 -0.893524 0.286343 0.397797 -0.908975 0.124588 
0.95037 -0.0863096 0.298911 0.744483 0.358738 0.563074 -0.722487 -0.623026 0.299752 
-0.601596 -0.658219 0.452581 -0.92696 -0.192168 0.322206 -0.887961 0.223204 0.402127 
-0.598478 0.557497 0.575345 0.689766 -0.682557 0.241536 0.904756 -0.320291 0.280767 
0.90753 0.163449 0.386877 -0.360726 0.741278 0.566024 0.353039 0.738459 0.574492 
-0.111213 -0.888541 0.445114 -0.680122 -0.331677 0.653777 -0.825917 -0.184407 0.532781 
-0.718801 0.271802 0.639882 0.335167 -0.935877 0.108615 0.84036 -0.428781 0.331576 
0.871487 -0.0600752 0.486725 0.260856 0.715987 0.647546 -0.455516 -0.514584 0.726436 
0.103782 -0.870468 0.48116 -0.719388 0.0095651 0.694543 -0.605949 0.00298629 0.795498 
0.216172 -0.883668 0.415212 -0.493377 0.199478 0.846633 -0.396846 0.580799 0.710764 
0.358839 -0.864009 0.353161 0.843039 0.0110766 0.537738 -0.0272804 0.717566 0.695956 
0.376947 0.579956 0.722192 -0.510281 -0.202105 0.835923 -0.143751 -0.517067 0.843788 
-0.432771 -0.161297 0.886957 -0.26588 -0.0500886 0.962704 0.0323327 -0.646832 0.761947 
0.234211 -0.905922 0.352775 0.223674 -0.888469 0.40074 -0.251359 0.314741 0.915291 
0.535214 -0.648616 0.54115 -0.0986176 0.524561 0.845642 0.598498 0.370251 0.710432 
0.715451 0.0522707 0.696705 0.0529293 0.468448 0.881904 0.230177 0.552795 0.800897 
0.0269608 -0.486454 0.87329 -0.137484 -0.374735 0.916881 0.129927 -0.621829 0.7723 
0.0719361 -0.725399 0.684559 0.0984762 -0.660341 0.744481 -0.253512 0.127487 0.958894 
-0.108818 -0.11059 0.987891 0.344449 -0.806478 0.480571 0.3853 -0.821028 0.421257 
0.460353 -0.740438 0.48972 -0.248241 0.396662 0.883762 -0.0116327 0.362228 0.932017 
0.652201 -0.493463 0.575438 0.79371 -0.386411 0.469799 0.605028 -0.233532 0.761186 
0.515347 0.0656182 0.854466 0.203409 0.274408 0.939854 0.304211 0.435759 0.847095 
0.655536 -0.208288 -0.725871 0.0134447 -0.621657 0.783174 -0.0724058 -0.314729 0.946416 
-0.0733036 -0.0950743 0.992768 0.16906 -0.808887 0.563134 -0.209417 -0.145162 0.966991 
-0.206029 0.0595086 0.976735 0.399416 -0.658202 0.638152 0.234739 -0.33473 0.912608 
0.00771531 0.313137 0.949677 0.157609 0.0945159 0.982968 0.430406 -0.156631 0.888942 
0.0449607 0.219289 0.974624 -0.0327783 -0.0131263 0.999376 0.0908198 0.136995 0.9864 
0.315734 0.174938 0.932582 -0.0549106 -0.346419 0.936472 0.13347 -0.668391 0.731737 
0.188618 -0.485293 0.853764 0.4393 -0.651615 0.618396 0.303554 -0.396366 0.866458 
0.338617 -0.391872 0.855438 0.00720468 0.207972 0.978108 0.354616 -0.302855 0.884605 
-0.01813 -0.0966968 0.995149 0.173488 -0.0859105 0.981082 -0.147579 0.51684 0.843266 
-0.653243 -0.403365 0.640757 0.655536 -0.208288 -0.725871 0.655536 -0.208288 -0.725871 
0.069175 -0.447932 0.891388 
