# vtk DataFile Version 4.2
vtk output
ASCII
DATASET POLYDATA
POINTS 925 float
253.109 214.639 177.637 252.999 214.647 177.682 253.121 214.776 177.591 
253.761 215.212 177.227 254.694 215.273 177.073 254.865 215.048 177.24 
255.744 215.416 177.173 256.297 215.421 177.413 254.077 215.422 177.079 
256.015 215.706 177.126 256.409 215.785 177.256 254.168 215.701 177.069 
255.051 215.89 176.954 255.399 215.885 176.978 255.623 216.198 177.062 
252.745 214.686 177.852 251.508 215.674 178.1 257.044 215.985 177.687 
251.697 215.855 177.974 251.699 216.131 178.027 254.892 216.107 177.021 
256.865 216.412 177.496 257.4 216.454 177.909 254.076 216.442 177.335 
257.361 216.588 177.832 257.381 216.772 177.921 254.495 214.489 178.07 
251.275 215.266 178.429 251.253 215.003 178.658 250.647 215.722 178.962 
250.958 216.046 178.617 257.296 216.128 178.184 257.534 216.49 178.45 
251.061 216.675 178.728 257.518 216.558 178.143 251.532 217.208 178.798 
256.81 217.5 178.012 256.658 217.641 178.049 257.119 217.429 178.18 
257.566 217.351 178.602 251.771 214.567 178.738 255.227 214.551 178.643 
250.178 215.832 179.501 257.735 216.956 178.934 257.824 217.349 179.018 
257.93 217.6 179.356 256.911 218.181 178.68 257.505 217.921 178.903 
257.382 218.259 179.083 250.382 214.931 179.848 250.06 215.205 179.922 
256.42 215.167 179.082 249.919 215.534 179.931 257.711 216.727 179.523 
257.891 217.117 179.443 257.992 217.428 179.642 251.616 218.214 179.927 
253.452 219.218 180.39 257.852 218.5 179.987 255.759 219.457 180.245 
257.236 218.992 179.91 257.558 219.001 180.144 249.996 214.863 180.524 
250.549 214.353 181.058 251.463 214.105 181.089 249.574 215.043 180.951 
249.46 214.905 181.519 252.825 214.03 180.79 249.383 215.386 180.93 
249.591 216.944 180.647 258.057 217.959 180.104 250.013 217.602 180.566 
257.942 218.714 180.499 254.926 219.77 180.966 256.534 219.691 180.708 
257.637 219.128 180.459 257.813 219.003 180.568 249.789 214.605 181.696 
249.415 214.782 182.161 256.099 215.071 180.865 248.882 215.543 182.128 
257.653 216.798 181.008 249.202 217.131 181.802 258.076 218.058 180.642 
250.368 218.261 181.546 252.003 219.39 182.032 257.997 218.725 180.893 
256.568 220.042 181.869 257.018 219.83 181.529 249.184 214.788 182.792 
249.973 214.439 181.951 250.611 214.216 182.913 254.524 214.36 181.54 
248.523 215.917 183.124 248.701 216.7 182.613 258.033 218.473 181.12 
257.928 218.868 181.274 257.792 219.149 181.331 255.812 220.18 182.359 
257.17 219.802 181.782 257.365 219.635 181.922 249.241 214.755 183.735 
253.079 214.121 182.825 257.396 216.655 181.938 248.291 216.411 183.904 
257.408 217.148 182.811 257.639 217.403 182.39 257.758 217.796 182.258 
257.909 218.668 181.665 257.52 219.349 182.26 256 220.148 183.158 
248.306 215.743 184.398 248.498 217.297 184.238 257.627 218.099 182.777 
257.4 219.342 182.791 257.189 219.397 183.185 254.395 220.143 184.486 
255.587 220.078 184 248.269 215.307 185.793 257.114 218.441 184.051 
256.473 219.691 183.904 248.348 214.974 187.214 255.646 215.909 185.834 
256.128 216.258 185.239 247.679 216.733 186.73 256.614 217.625 185.36 
248.237 217.854 186.512 247.632 217.205 187.657 256.253 218.092 186.298 
256.121 217.781 186.732 255.792 218.7 186.906 252.348 220.092 187.528 
254.897 219.647 186.728 253.813 214.809 187.539 247.338 215.964 189.009 
247.43 216.848 188.271 256.007 216.855 186.596 255.66 218.254 187.802 
250.689 219.827 188.472 253.143 220.05 188.344 247.294 216.926 189.17 
255.513 217.029 188.469 255.519 217.695 188.699 255.028 219.083 188.582 
249.822 219.605 189.588 251.653 220.086 189.689 254.602 219.467 188.662 
254.198 219.691 188.898 250.622 213.991 190.236 255.203 216.521 189.257 
250.318 219.851 190.263 254.329 219.452 190.374 252.817 220.048 190.136 
253.442 219.913 189.879 251.92 214.13 190.744 253.378 214.716 190.001 
254.501 215.543 189.536 255.233 217.142 190.634 248.692 219.168 191.101 
246.46 215.263 193.35 254.433 215.543 190.528 246.565 215.981 192.353 
247.649 218.449 192.533 254.887 218.689 192.664 246.751 214.497 193.738 
247.319 213.842 194.232 253.041 214.363 192.471 246.179 215.878 194.225 
255.24 217.135 192.803 246.238 214.835 194.921 254.036 214.918 193.042 
254.913 215.98 193.237 255.346 217.68 194.137 254.68 218.987 193.752 
255.01 218.595 194.314 253.555 219.765 193.738 246.107 216.524 195.072 
255.475 217.162 194.836 248.307 219.219 195.608 249.929 219.981 194.629 
245.743 214.573 196.921 255.561 216.64 195.585 246.386 217.42 196.427 
246.095 213.642 197.567 245.822 213.966 197.562 245.681 214.045 197.93 
255.513 218.379 197.051 251.947 220.261 196.665 246.071 213.219 198.983 
245.83 213.56 198.629 245.508 214.405 198.834 255.802 215.498 197.865 
256.248 216.959 198.603 246.886 218.16 197.913 255.248 219.004 198.203 
255.66 218.579 198.482 247.927 212.464 198.547 249.483 212.532 197.78 
254.161 213.501 198.508 245.451 214.401 199.775 245.64 215.931 199.332 
256.357 217.565 199.484 246.878 218.168 199.556 255.88 218.537 199.43 
256.169 218.14 199.605 248.348 219.374 199.647 250.778 220.222 198.644 
254.544 219.6 199.026 253.925 212.866 199.832 245.496 213.885 200.547 
255.956 214.751 199.473 245.98 216.684 200.317 256.044 218.528 200.319 
254.582 213.002 200.484 245.421 213.95 201.734 253.29 220.333 201.007 
245.846 212.71 202.065 252.438 211.947 202.148 254.429 212.562 201.69 
245.45 212.764 203.363 257.22 215.968 202.439 244.002 217.011 202.513 
244.002 217.011 202.513 244.002 217.011 202.513 244.002 217.011 202.513 
244.002 217.011 202.513 255.743 219.127 201.681 254.722 219.987 202.335 
245.644 212.487 203.535 245.853 215.213 203.832 244.002 217.011 202.513 
244.002 217.011 202.513 244.002 217.011 202.513 257.449 216.798 203.503 
244.002 217.011 202.513 257.127 217.748 203.273 245.95 212.185 204.183 
246.039 212.124 204.678 245.402 212.4 205.115 245.175 213.118 204.754 
257.63 215.194 204.757 244.002 217.011 202.513 257.745 216.954 205.054 
256.874 218.567 204.328 254.449 220.307 203.378 252.361 220.832 204.451 
245.101 212.564 205.566 245.058 212.401 206.099 244.942 212.564 206.088 
246.954 211.991 205.397 257.319 214.283 205.159 257.939 215.917 205.76 
257.56 217.581 205.07 248.224 218.999 205.292 249.536 220.303 205.542 
255.639 219.976 205.148 255.302 212.58 205.592 256.997 213.513 206.42 
244.86 212.653 206.468 257.994 215.441 206.519 249.205 220.132 206.533 
250.667 220.959 206.588 244.577 212.296 207.386 244.582 212.375 207.198 
256.413 213.052 206.402 257.659 214.382 206.876 249.293 220.33 207.156 
249.208 220.201 207.009 255.187 220.428 206.148 249.44 220.423 207.015 
250.487 221.08 207.796 245.611 212.342 207.54 244.443 212.392 207.55 
245.039 212.791 207.653 245.468 213.029 208.34 258.428 215.657 208.816 
258.379 216.794 208.424 249.344 220.327 207.768 253.585 221.267 207.902 
244.137 212.247 207.993 245.314 212.611 208.234 244.665 212.403 208.077 
244.212 212.298 207.902 244.635 212.475 207.956 246.088 212.728 209.043 
245.665 212.956 209.315 245.783 213.261 209.078 248.02 216.506 209.231 
249.901 220.828 208.143 254.574 221.155 208.899 249.792 220.76 208.454 
250.772 221.32 209.68 243.96 212.207 208.23 244.313 212.284 208.132 
244.363 212.34 208.121 257.003 213.528 209.045 244.232 212.319 208.111 
245.563 213.017 210.335 248.95 212.809 209.906 245.696 213.151 210.051 
246.763 213.917 209.524 258.317 215.239 209.751 256.51 220.167 209.367 
250.209 220.98 210.233 250.577 221.626 211.262 250.571 221.464 210.939 
251.907 221.706 210.159 252.499 221.754 210.147 250.904 221.624 211.156 
243.837 212.181 208.379 243.954 212.208 208.331 244.101 212.258 208.24 
245.458 213.001 210.838 245.265 213.021 211.143 246.793 213.088 210.173 
247.559 213.562 210.537 246.595 213.269 210.435 257.712 214.376 210.512 
245.398 213.061 210.852 246.407 213.399 210.263 248.949 213.624 211.716 
248.397 214.298 211.727 258.474 215.692 210.997 250.573 221.557 211.456 
250.576 221.62 211.354 250.644 221.651 211.369 250.834 221.643 211.556 
252.358 221.882 211.512 243.792 212.173 208.449 243.776 212.169 208.452 
243.843 212.188 208.406 243.771 212.17 208.463 243.807 212.179 208.421 
245.529 213.02 210.959 246.117 213.11 210.583 246.15 213.216 210.566 
245.147 213.03 211.38 245.884 213.2 210.656 248.855 214.542 213.115 
249.903 213.53 212.652 258.003 214.864 211.738 257.699 219.346 211.663 
250.65 221.623 211.486 250.632 221.244 212.169 243.759 212.167 208.472 
244.956 213.014 211.76 245.311 213.033 211.312 245.643 213.064 210.961 
245.801 213.125 210.827 244.987 213.021 211.697 245.179 213.051 211.447 
245.506 213.098 211.067 251.373 213.23 213.14 257.781 214.69 212.359 
248.646 215.38 213.144 251.043 221.156 214.065 244.834 213.012 211.987 
245.021 213.023 211.721 245.224 213.047 211.442 244.985 213.029 211.773 
245.439 213.063 211.183 256.794 213.927 212.548 244.856 213.015 211.942 
249.792 214.088 215.042 250.803 213.591 214.383 257.121 214.247 213.207 
248.876 215.026 214.482 258.188 215.465 213.379 255.311 221.538 213.786 
244.741 213.012 212.159 244.743 213.011 212.149 244.82 213.016 212.033 
244.763 213.012 212.109 244.774 213.015 212.095 249.144 214.669 215.912 
258.303 215.944 214.464 258.505 216.948 214.918 249.73 219.066 214.986 
257.757 219.507 215.124 254.158 221.993 214.767 244.713 213.012 212.206 
244.698 213.011 212.228 244.706 213.012 212.214 244.709 213.011 212.207 
257.923 215.634 215.599 258.447 217.636 215.704 258.224 218.576 215.399 
256.913 220.535 215.737 251.831 221.673 217.159 244.687 213.011 212.247 
254.066 213.596 215.81 257.491 215.244 216.074 258.297 216.839 216.328 
257.432 215.747 217.581 258.185 216.891 217.034 250.354 219.826 218.268 
255.317 214.347 217.646 257.214 215.849 218.441 257.716 216.667 218.359 
257.545 219.3 218.511 256.811 220.452 218.618 248.98 214.796 219.109 
257.692 217.586 219.057 256.009 221.044 219.431 251.532 221.831 221.532 
[...]
POINT_DATA 925
SCALARS scalars float
LOOKUP_TABLE default
1 1 1 1 1 1 1 1 1 
1 1 1 1 1 1 1 1 1 
1 1 1 1 1 1 1 1 1 
1 1 1 1 1 1 1 1 1 
1 1 1 1 1 1 1 1 1 
1 1 1 1 1 1 1 1 1 
1 1 1 1 1 1 1 1 1 
1 1 1 1 1 1 1 1 1 
1 1 1 1 1 1 1 1 1 
1 1 1 1 1 1 1 1 1 
1 1 1 1 1 1 1 1 1 
1 1 1 1 1 1 1 1 1 
1 1 1 1 1 1 1 1 1 
1 1 1 1 1 1 1 1 1 
1 1 1 1 1 1 1 1 1 
1 1 1 1 1 1 1 1 1 
1 1 1 1 1 1 1 1 1 
1 1 1 1 1 1 1 1 1 
1 1 1 1 1 1 1 1 1 
1 1 1 1 1 1 1 1 1 
1 1 1 1 1 1 1 1 1 
1 1 1 1 1 1 1 1 1 
1 1 1 1 1 1 1 1 1 
1 1 1 1 1 1 1 1 1 
1 1 1 1 1 1 1 1 1 
1 1 1 1 1 1 1 1 1 
1 1 1 1 1 1 1 1 1 
1 1 1 1 1 1 1 1 1 
1 1 1 1 1 1 1 1 1 
1 1 1 1 1 1 1 1 1 
1 1 1 1 1 1 1 1 1 
1 1 1 1 1 1 1 1 1 
1 1 1 1 1 1 1 1 1 
1 1 1 1 1 1 1 1 1 
1 1 1 1 1 1 1 1 1 
1 1 1 1 1 1 1 1 1 
1 1 1 1 1 1 1 1 1 
1 1 1 1 1 1 1 1 1 
1 1 1 1 1 1 1 1 1 
1 1 1 1 1 1 1 1 1 
1 1 1 1 1 1 1 1 1 
1 1 1 1 1 1 1 1 1 
1 1 1 1 1 1 1 1 1 
1 1 1 1 1 1 1 1 1 
1 1 1 1 1 1 1 1 1 
1 1 1 1 1 1 1 1 1 
1 1 1 1 1 1 1 1 1 
1 1 1 1 1 1 1 1 1 
1 1 1 1 1 1 1 1 1 
1 1 1 1 1 1 1 1 1 
1 1 1 1 1 1 1 1 1 
1 1 1 1 1 1 1 1 1 
1 1 1 1 1 1 1 1 1 
1 1 1 1 1 1 1 1 1 
1 1 1 1 1 1 1 1 1 
1 1 1 1 1 1 1 1 1 
1 1 1 1 1 1 1 1 1 
1 1 1 1 1 1 1 1 1 
1 1 1 1 1 1 1 1 1 
1 1 1 1 1 1 1 1 1 
1 1 1 1 1 1 1 1 1 
1 1 1 1 1 1 1 1 1 
1 1 1 1 1 1 1 1 1 
1 1 1 1 1 1 1 1 1 
1 1 1 1 1 1 1 1 1 
1 1 1 1 1 1 1 1 1 
1 1 1 1 1 1 1 1 1 
1 1 1 1 1 1 1 1 1 
1 1 1 1 1 1 1 1 1 
1 1 1 1 1 1 1 1 1 
1 1 1 1 1 1 1 1 1 
1 1 1 1 1 1 1 1 1 
1 1 1 1 1 1 1 1 1 
1 1 1 1 1 1 1 1 1 
1 1 1 1 1 1 1 1 1 
1 1 1 1 1 1 1 1 1 
1 1 1 1 1 1 1 1 1 
1 1 1 1 1 1 1 1 1 
1 1 1 1 1 1 1 1 1 
1 1 1 1 1 1 1 1 1 
1 1 1 1 1 1 1 1 1 
1 1 1 1 1 1 1 1 1 
1 1 1 1 1 1 1 1 1 
1 1 1 1 1 1 1 1 1 
1 1 1 1 1 1 1 1 1 
1 1 1 1 1 1 1 1 1 
1 1 1 1 1 1 1 1 1 
1 1 1 1 1 1 1 1 1 
1 1 1 1 1 1 1 1 1 
1 1 1 1 1 1 1 1 1 
1 1 1 1 1 1 1 1 1 
1 1 1 1 1 1 1 1 1 
1 1 1 1 1 1 1 1 1 
1 1 1 1 1 1 1 1 1 
1 1 1 1 1 1 1 1 1 
1 1 1 1 1 1 1 1 1 
1 1 1 1 1 1 1 1 1 
1 1 1 1 1 1 1 1 1 
1 1 1 1 1 1 1 1 1 
1 1 1 1 1 1 1 1 1 
1 1 1 1 1 1 1 1 1 
1 1 1 1 1 1 1 1 1 
1 1 1 1 1 1 1 
NORMALS Normals float
-0.164322 -0.750157 -0.640518 -0.425248 -0.600576 -0.677106 -0.47798 -0.0968706 -0.873012 
-0.378229 -0.142502 -0.914678 -0.0016917 -0.332969 -0.942936 0.190901 -0.775419 -0.601899 
0.18892 -0.448484 -0.873597 0.443444 -0.688117 -0.574328 -0.157257 -0.363186 -0.91835 
0.293005 -0.21258 -0.932179 0.474198 -0.157947 -0.866134 -0.259361 0.107347 -0.959796 
-0.066781 -0.00830139 -0.997733 0.114273 0.00545154 -0.993434 0.151619 0.330153 -0.931671 
-0.499016 -0.46764 -0.729586 -0.524903 -0.149963 -0.837847 0.717159 -0.495241 -0.490326 
-0.362834 -0.172908 -0.915671 -0.476484 0.291336 -0.82951 -0.0753185 0.327258 -0.941929 
0.379483 0.295906 -0.876603 0.858859 -0.351768 -0.372318 -0.204499 0.462641 -0.862637 
0.647179 0.0857687 -0.757498 0.704755 0.324417 -0.630931 0.108768 -0.966212 -0.233674 
-0.542472 -0.428708 -0.72245 -0.587483 -0.615882 -0.524932 -0.767494 -0.0195856 -0.640757 
-0.709746 0.0740698 -0.700553 0.805789 -0.579696 -0.121062 0.858759 -0.51056 -0.0431427 
-0.664285 0.380048 -0.643653 0.941337 -0.0740635 -0.329241 -0.32568 0.64581 -0.690552 
0.39646 0.507785 -0.764836 0.161515 0.638394 -0.752573 0.481474 0.498556 -0.72085 
0.824078 0.250936 -0.507865 -0.326977 -0.845977 -0.421199 0.381717 -0.90152 -0.20385 
-0.755944 -0.183247 -0.628465 0.949048 -0.199265 -0.244133 0.88907 0.192081 -0.415523 
0.947028 0.0966032 -0.306276 0.124113 0.72552 -0.676917 0.649372 0.495238 -0.577109 
0.538253 0.638629 -0.549943 -0.571335 -0.646711 -0.505312 -0.712385 -0.440037 -0.546695 
0.588991 -0.804943 -0.0718068 -0.84395 -0.222241 -0.488219 0.882152 -0.467173 0.0596439 
0.956009 -0.25284 -0.148722 0.991574 -0.109544 -0.0691439 -0.446319 0.744715 -0.496184 
-0.229975 0.815489 -0.531121 0.82172 0.404051 -0.401895 -0.0904751 0.874952 -0.475682 
0.347509 0.750635 -0.561947 0.615526 0.618142 -0.488905 -0.683734 -0.616228 -0.39086 
-0.39076 -0.876896 -0.27993 -0.0766239 -0.993678 -0.0820506 -0.654322 -0.677562 -0.335816 
-0.760144 -0.606507 -0.233089 -0.0401617 -0.987507 -0.15237 -0.867131 -0.326855 -0.375831 
-0.863225 0.266054 -0.429021 0.995621 -0.0915013 -0.0191311 -0.656281 0.621599 -0.42768 
0.920449 0.306849 -0.242112 -0.268199 0.899296 -0.345451 0.176476 0.869113 -0.462059 
0.498214 0.804084 -0.324393 0.806659 0.551455 -0.212601 -0.626295 -0.774339 -0.0902984 
-0.685501 -0.707636 -0.171286 0.635037 -0.753621 0.169654 -0.924265 -0.257887 -0.281476 
0.918145 -0.372636 0.134734 -0.851473 0.41093 -0.325777 0.999491 0.0258646 -0.01868 
-0.616495 0.74524 -0.25407 -0.252096 0.948987 -0.189397 0.950885 0.3043 -0.0567307 
0.172525 0.975605 -0.135753 0.506642 0.82514 -0.249914 -0.662249 -0.742647 -0.0995051 
-0.621034 -0.777412 0.0997315 -0.355732 -0.927089 0.118156 0.271756 -0.956329 0.107626 
-0.959011 -0.00551649 -0.283314 -0.903297 0.315623 -0.290579 0.994127 0.0269818 0.104799 
0.921716 0.367033 0.125406 0.762978 0.645595 -0.0327526 0.0129694 0.999523 -0.028009 
0.514672 0.845917 0.139775 0.781986 0.614165 0.1063 -0.54108 -0.840581 0.0255964 
0.159006 -0.974547 0.158038 0.838781 -0.511086 0.187718 -0.955078 0.0900783 -0.282334 
0.833947 -0.465772 0.295954 0.932989 -0.275066 0.2321 0.977721 -0.0735035 0.196618 
0.966741 0.151807 0.205831 0.814597 0.497644 0.297964 0.0345572 0.994537 0.0984976 
-0.826311 -0.521212 -0.21342 -0.864063 0.419339 -0.278476 0.938292 -0.00138275 0.345841 
0.873447 0.416015 0.253026 0.789653 0.484918 0.375903 0.124603 0.980072 0.154703 
0.145253 0.965617 0.215606 -0.708184 -0.667205 -0.230898 0.90589 0.0985846 0.411879 
0.49235 0.798729 0.345866 -0.472718 -0.863545 -0.17558 0.654846 -0.752678 0.0682061 
0.729049 -0.677209 0.0993766 -0.977339 0.0746791 -0.198071 0.938653 0.0525971 0.340828 
-0.764107 0.621338 -0.173437 -0.947628 0.233761 -0.217618 0.94859 0.157741 0.274398 
0.93663 0.0481262 0.346998 0.826566 0.477129 0.298559 -0.0740228 0.996944 -0.0249574 
0.443584 0.882012 0.159025 0.477312 -0.87849 0.020685 -0.959438 -0.17589 -0.220323 
-0.964886 -0.0175037 -0.262085 0.91353 -0.27851 0.296473 0.943527 0.134482 0.302773 
-0.518871 0.829669 -0.205966 0.231305 0.972655 0.0209933 -0.936943 0.317525 -0.145997 
0.954093 -0.237534 0.182437 0.981513 0.0534325 0.183788 0.74607 0.624183 0.231897 
-0.624062 0.703349 -0.340363 0.0371003 0.999275 0.00853903 0.537864 0.825312 0.171937 
0.427808 0.889272 0.161791 -0.0375293 -0.991791 -0.122237 0.915932 -0.377114 0.137308 
-0.241434 0.970215 0.0198143 0.500217 0.860839 0.093482 0.166344 0.984951 0.0469062 
0.345602 0.936891 0.0528698 0.321605 -0.937579 -0.13235 0.487306 -0.871173 -0.0599176 
0.810959 -0.575453 0.105829 0.976775 -0.192957 0.0931587 -0.621454 0.768034 -0.154657 
-0.916006 -0.0556436 -0.397288 0.75648 -0.653807 0.016558 -0.949808 -0.156109 -0.271099 
-0.755187 0.625352 -0.196539 0.880592 0.473401 0.0211801 -0.77636 -0.575297 -0.257487 
-0.471321 -0.838383 -0.273807 0.338841 -0.92861 -0.151231 -0.95035 0.0191606 -0.310591 
0.98571 -0.154583 -0.0669395 -0.897557 -0.380281 -0.223109 0.577037 -0.798135 -0.173234 
0.873142 -0.460293 -0.16048 0.950423 0.298917 -0.085696 0.761518 0.647635 -0.0256939 
0.884454 0.465135 -0.0372935 0.501248 0.865261 -0.00853616 -0.949472 0.241644 -0.200276 
0.996782 0.0642221 -0.0479788 -0.502188 0.864754 -0.00268721 -0.360258 0.932812 -0.00872274 
-0.925035 -0.277981 -0.258913 0.988727 -0.0183856 -0.148596 -0.816249 0.569146 -0.0990469 
-0.677199 -0.682919 -0.273901 -0.906359 -0.2468 -0.342933 -0.860661 -0.414602 -0.295581 
0.74367 0.643088 -0.182735 -0.0930391 0.995298 -0.026948 -0.743263 -0.651712 -0.151102 
-0.828495 -0.552108 -0.0936607 -0.995731 -0.0209463 -0.0898935 0.957066 -0.23186 -0.173972 
0.982704 0.0936013 -0.159789 -0.715136 0.694677 -0.077488 0.599053 0.780389 -0.179247 
0.82661 0.543237 -0.147003 -0.275736 -0.939132 -0.20494 0.011049 -0.98515 -0.17134 
0.47426 -0.830548 -0.292007 -0.999043 -0.0431505 0.00711081 -0.945585 0.325086 -0.0137042 
0.958314 0.230412 -0.168952 -0.790888 0.609858 0.0506897 0.780797 0.586434 -0.215525 
0.883022 0.415305 -0.218618 -0.481836 0.873094 -0.0744344 -0.271654 0.958919 -0.0817189 
0.571211 0.811852 -0.120889 0.36469 -0.868065 -0.336844 -0.988905 -0.138885 -0.0526994 
0.77708 -0.574815 -0.256386 -0.921332 0.375283 0.101536 0.845259 0.53044 -0.0645811 
0.591443 -0.754487 -0.284506 -0.985213 -0.130749 -0.110727 0.274187 0.956648 -0.0982188 
-0.743664 -0.638406 -0.198495 0.154154 -0.976256 -0.152184 0.447935 -0.882793 -0.141533 
-0.811919 -0.567035 -0.138776 0.955488 -0.118625 -0.270129 -0.293055 -0.710218 -0.640086 
-0.67244 0.506969 -0.539265 0.245045 0.274942 -0.92971 0.928467 -0.2484 -0.276126 
0.482725 0.869408 -0.105392 0.717169 0.683186 -0.137571 0.447872 0.874212 -0.18752 
-0.711678 -0.698373 -0.076093 -0.919839 0.374468 0.116916 0.325688 -0.891277 0.315521 
-0.833643 -0.547127 0.0754486 0.658734 0.387787 0.644741 0.95792 0.197078 -0.208687 
-0.451448 0.748831 0.485228 0.905991 0.369696 -0.206166 -0.365845 -0.92529 -0.0999794 
-0.25709 -0.966321 0.0113021 -0.506424 -0.857246 -0.0930839 -0.970062 0.242832 -0.00335967 
0.964024 -0.172506 -0.202237 -0.189081 -0.219785 0.957049 0.982006 0.130733 -0.13628 
0.795773 0.58989 -0.137021 0.277126 0.951117 -0.136299 0.0460447 0.989604 -0.136251 
-0.922029 -0.31894 -0.219405 -0.484633 -0.858083 -0.16978 -0.902146 -0.278035 -0.329893 
-0.0781459 -0.992496 0.0940435 0.861618 -0.468912 -0.194257 0.990059 -0.0528301 -0.130354 
0.934671 0.332507 -0.125812 -0.758155 0.648904 0.0642147 -0.484657 0.866574 -0.118979 
0.436933 0.885343 -0.158924 0.311521 -0.946853 -0.0801544 0.725935 -0.664661 -0.176757 
-0.842788 0.528291 -0.103038 0.94231 -0.269346 -0.198758 -0.75958 0.647328 -0.063283 
-0.354456 0.919493 -0.169984 -0.364445 -0.898702 -0.243955 -0.819357 -0.394424 -0.416034 
0.457117 -0.888816 -0.0324031 0.862917 -0.486894 -0.135308 -0.81219 0.583377 0.00436534 
-0.886898 0.459431 -0.0483228 0.485915 0.858582 -0.163477 -0.56064 0.819885 -0.116069 
-0.32049 0.942812 -0.0916075 0.0593428 -0.97433 0.217164 -0.783854 0.586614 -0.20361 
-0.596984 0.776143 0.203006 -0.793615 0.564908 0.225953 0.927995 -0.364731 -0.0761313 
0.980001 0.181564 -0.0814453 -0.704368 0.709789 -0.00806827 0.171729 0.966023 -0.193155 
-0.480153 -0.80505 -0.34835 -0.699508 -0.164048 0.695541 0.052559 0.0381131 0.99789 
-0.69152 0.633892 -0.346381 -0.345121 0.892245 0.291187 -0.104395 -0.975635 0.19297 
-0.988969 -0.0242493 0.146123 -0.698608 0.709387 0.0933626 -0.877791 0.386044 0.283644 
-0.517128 0.850815 -0.0932384 0.446861 0.882678 -0.145582 -0.616956 0.785654 0.0459715 
-0.319948 0.928237 -0.189763 0.240405 -0.970386 0.0236062 0.355989 -0.530665 0.769199 
0.0358163 0.63304 0.77329 0.631916 -0.773472 0.0492355 -0.194847 0.953436 0.230206 
-0.935549 -0.268551 -0.229408 -0.143291 -0.91898 0.367346 -0.673579 0.735962 -0.0682025 
-0.599382 0.696397 0.39468 0.944772 -0.327285 -0.0170555 0.550921 0.820661 -0.151659 
-0.7346 0.678293 0.0167705 -0.485655 0.845251 -0.222913 -0.744781 0.658324 -0.109134 
-0.184057 0.956734 -0.22535 -0.0498845 0.983272 -0.175181 -0.133201 0.978272 -0.158874 
0.239011 -0.970335 0.0363918 0.231383 -0.972625 0.0215149 0.338663 0.443186 0.829996 
-0.0989373 -0.994877 -0.020765 -0.867598 -0.287501 -0.40573 0.129331 -0.857522 0.497926 
-0.486874 -0.100463 0.867675 0.176031 0.0495785 0.983135 0.770811 -0.637031 0.00639766 
-0.63699 0.741311 -0.211427 -0.24146 0.875651 0.418249 -0.468587 -0.77839 0.417774 
-0.880537 -0.213106 0.423368 0.965574 -0.257039 0.0399655 -0.895999 0.281014 0.343828 
-0.711027 0.68033 0.177738 -0.158309 0.987344 0.00951662 -0.221391 0.960335 0.169538 
-0.0269395 0.9991 -0.0327591 0.580725 -0.452203 0.676957 0.254093 -0.964238 0.075378 
0.180027 0.80872 0.559966 0.127756 0.863481 0.487933 -0.582538 0.752993 -0.306024 
0.270235 -0.958151 0.0944401 0.462764 -0.474968 0.748502 0.276152 0.575982 0.769406 
-0.762304 0.543972 -0.350696 -0.0535441 0.957892 0.282091 -0.801179 -0.548362 0.239605 
-0.430325 -0.868735 0.245194 0.791966 -0.603009 0.0957546 0.742343 0.66531 -0.0792983 
-0.486401 0.706032 0.514716 -0.820212 0.534139 0.204811 0.518583 -0.629442 0.578683 
-0.454435 -0.859419 -0.234284 0.482411 -0.795047 0.367668 0.530605 -0.718938 0.448983 
0.525958 0.449573 0.721978 -0.814699 0.411699 -0.408374 -0.163432 0.986309 -0.0220207 
0.142425 0.947639 0.285825 -0.227124 -0.953342 0.198881 0.779668 -0.606654 0.155204 
-0.973429 -0.00362976 0.228962 -0.628079 0.7647 0.144051 -0.0941908 -0.993962 -0.0562791 
0.656841 -0.616393 0.434304 0.711387 0.389375 0.585078 0.52523 0.756299 0.390059 
0.726941 0.0578945 0.684255 0.578211 -0.805956 0.126915 -0.856143 0.234913 -0.460256 
-0.413834 -0.884572 0.215114 -0.229876 -0.950859 0.20742 0.582266 -0.792506 0.181385 
-0.991653 -0.00690941 0.128747 0.84474 -0.525672 0.100416 0.391787 0.91555 -0.0909475 
0.405503 -0.884102 0.232229 -0.053808 -0.997888 -0.0363836 0.838385 -0.0928761 0.537108 
-0.799138 -0.40065 -0.448172 -0.223651 0.970094 -0.0943251 -0.693285 -0.709922 0.123963 
0.88124 -0.453244 0.134109 0.991194 -0.120254 0.055433 -0.903509 0.410073 0.124541 
0.878348 0.476852 0.0334112 0.171135 0.984621 -0.0351279 0.573976 -0.743744 0.342632 
0.184221 -0.976832 0.108915 -0.226181 0.968229 -0.106655 -0.254909 -0.955239 -0.150134 
0.853558 -0.485821 0.188194 0.984857 0.0989033 0.142387 0.946952 0.311343 0.0796663 
0.677029 0.734731 0.0424492 -0.593821 0.803727 -0.0374084 0.166825 -0.980558 0.103325 
0.167349 -0.974081 0.152183 0.675825 -0.686042 0.269456 0.926058 -0.324912 0.191959 
0.666777 -0.712389 0.218882 0.967838 -0.0876585 0.235808 -0.915025 0.39192 0.0955369 
0.469594 -0.862642 0.187963 0.683276 -0.659789 0.312749 0.854778 -0.391332 0.340901 
0.911471 0.375089 0.168906 0.772079 0.609307 0.180664 -0.469352 -0.872652 0.134859 
0.936531 -0.15455 0.314681 0.672001 0.717791 0.182181 -0.894625 0.444098 0.0492248 
0.479022 0.858445 0.183331 -0.229917 0.970983 -0.0658088 -0.756563 -0.253033 0.602981 
-0.703387 -0.614176 0.357818 -0.490504 -0.728989 0.477473 -0.988496 -0.0972597 0.115826 
0.854242 0.413513 0.315082 0.736606 0.605937 0.300421 -0.0625912 0.997943 0.013826 
-0.917149 0.096836 0.386602 -0.901945 0.131572 0.411319 -0.719632 -0.495516 0.486409 
0.0677659 -0.973265 0.219459 0.948144 0.126075 0.291766 0.739631 0.523855 0.42252 
-0.80428 0.594216 -0.00646263 0.026997 0.998955 -0.036874 -0.443244 -0.831464 0.334967 
0.920382 0.291466 0.260663 -0.807614 0.586829 0.0582329 -0.444685 -0.863889 0.236542 
-0.120668 -0.957991 0.260179 0.818469 -0.532266 0.216335 0.943929 -0.267261 0.19383 
-0.900729 0.27029 0.340044 0.551215 0.79818 0.243045 -0.552883 0.832838 -0.0264983 
-0.630911 -0.73618 0.244929 0.404127 -0.893926 0.193848 -0.803834 0.546059 0.235948 
0.467976 0.855848 0.220278 -0.693451 -0.668993 0.267533 -0.10346 -0.973458 0.204148 
-0.848317 0.340551 0.405442 0.652374 0.703356 0.282309 -0.523074 0.575548 0.6286 
0.132236 0.980767 0.14356 0.232929 0.837814 0.493773 0.446111 0.778398 0.44168 
-0.334146 0.889395 0.311966 -0.559445 -0.796151 0.230574 -0.277082 -0.948847 0.151374 
-0.0855154 -0.987492 0.132465 0.444029 -0.887154 0.125681 -0.429697 0.855415 0.289181 
-0.335551 0.784519 0.521474 0.266303 0.915808 0.300631 -0.389895 0.585825 0.710486 
0.249032 0.77726 0.577798 -0.492504 0.394546 0.775741 0.604324 0.701964 0.376881 
0.304819 0.711092 0.633588 0.0491081 0.636144 0.770006 -0.920716 -0.363371 0.142279 
-0.185647 -0.963054 0.195094 0.145416 -0.981166 0.127151 0.656414 -0.739854 0.147435 
0.940824 -0.287512 0.179408 -0.513114 0.853974 0.0862681 -0.0892306 0.983972 0.154393 
0.499876 0.863966 0.0607244 -0.419047 -0.90006 0.119546 0.340418 -0.937717 0.0693064 
0.863034 -0.502471 0.0519162 0.999751 -0.0222928 0.000513885 -0.838846 0.534706 0.10211 
0.921782 0.379504 0.079344 0.222699 0.974353 0.0322719 0.675886 0.733811 -0.0685597 
-0.968763 0.22511 -0.104034 -0.693776 0.706205 -0.141245 -0.221417 0.968265 -0.11592 
0.309359 0.938473 -0.153512 -0.304014 -0.950026 -0.070893 0.31179 -0.888637 -0.33632 
0.691025 -0.613254 -0.382628 0.830727 -0.48876 -0.26647 -0.97237 0.0219348 -0.232411 
0.952584 0.200289 -0.229057 -0.866217 0.430036 -0.254436 -0.893028 0.317632 -0.318763 
-0.650861 0.668363 -0.360098 0.658414 0.700409 -0.275533 0.0510353 0.893604 -0.445945 
-0.645771 0.564939 -0.513637 0.030607 0.730989 -0.681702 -0.3391 0.600161 -0.724443 
-0.74259 0.514034 -0.429335 -0.305288 0.79775 -0.519995 -0.821001 -0.546791 -0.164245 
-0.181482 -0.957345 -0.224844 0.397435 -0.912448 -0.0973832 -0.915373 0.291695 -0.277499 
0.110282 0.762171 -0.637914 -0.539647 0.809721 -0.230504 -0.967112 0.0123998 -0.254048 
-0.855728 0.488827 -0.169637 0.116838 0.871988 -0.475379 -0.282785 0.936794 -0.206032 
-0.00557507 0.984538 -0.17508 -0.677381 -0.647282 -0.349545 0.489396 0.780847 -0.388291 
0.417714 -0.877498 -0.235609 0.143273 0.985724 -0.0884303 -0.162123 0.971804 -0.171212 
-0.577394 -0.689391 -0.437444 -0.752771 -0.600454 -0.269799 0.733512 -0.637242 -0.236396 
0.746128 0.622957 -0.234985 -0.536191 0.844096 0.00121674 -0.189931 0.977625 -0.0904158 
-0.867016 -0.301998 -0.396335 0.488872 -0.84081 -0.232473 -0.960212 0.0252272 -0.278131 
-0.268435 0.962855 0.0292138 -0.43608 -0.861367 -0.260541 0.0351028 -0.973507 -0.225945 
0.435973 -0.872318 -0.221336 0.948386 0.232144 -0.216039 0.898737 0.385242 -0.209427 
0.322354 0.946617 0.00188479 -0.429922 -0.884819 -0.179619 -0.978473 -0.172107 -0.113882 
-0.968146 -0.183606 -0.170244 -0.980317 0.115625 -0.16003 0.723691 -0.60217 -0.337138 
0.938818 -0.204118 -0.277409 0.872456 0.469898 -0.134223 0.80544 0.57702 -0.135326 
-0.0622732 0.990902 0.119312 0.292437 -0.892879 -0.342415 0.579887 -0.778567 -0.239925 
0.803462 -0.569991 -0.171925 0.932348 -0.360352 -0.0295495 0.635814 0.768215 -0.0747392 
0.215265 -0.935515 -0.280131 -0.147895 -0.988937 -0.0114457 0.261315 -0.928223 -0.264797 
0.527011 -0.724507 -0.44424 -0.861697 -0.483428 -0.154194 -0.455552 -0.885316 -0.0932061 
0.96337 -0.265435 -0.038237 0.984945 0.169116 -0.0358328 0.795779 0.604632 -0.0339918 
-0.108995 0.986628 0.121185 -0.783231 -0.605573 0.140821 -0.502235 0.853852 0.136738 
0.240445 -0.950612 -0.196274 0.628088 -0.572547 -0.526968 -0.509755 -0.836177 -0.202381 
0.663569 -0.719202 -0.20597 0.995405 -0.0707749 -0.0644925 -0.331321 0.931127 0.152414 
-0.0217356 0.997463 0.0677895 -0.615515 -0.786789 -0.0458717 -0.807575 0.573525 0.137447 
0.145207 -0.979367 -0.140552 0.555983 -0.634968 -0.536375 -0.0857749 -0.963301 -0.254351 
-0.248597 0.967515 0.0459858 0.735255 -0.665366 -0.129183 0.911932 -0.37656 -0.163039 
0.999606 0.00103715 -0.0280449 0.883679 0.467606 -0.0213366 0.53727 0.835243 0.117089 
0.331203 0.942022 0.0538452 0.587959 0.808889 -0.00137355 -0.0307126 0.996752 0.0744476 
-0.917711 -0.211236 -0.33643 -0.883272 0.450815 -0.128831 -0.170633 -0.965101 -0.198656 
0.412866 -0.716474 -0.562323 0.359594 -0.472272 -0.804768 0.0782912 -0.993468 -0.0830147 
0.0177771 0.671226 -0.74104 -0.917915 -0.33501 -0.212605 -0.969962 0.120902 -0.211082 
-0.678479 0.703414 -0.211838 -0.400838 0.915107 -0.0436921 -0.39746 -0.917173 -0.0286333 
-0.79817 0.592626 0.108258 -0.7014 -0.502641 -0.505361 -0.621529 0.780099 -0.0717458 
0.104522 -0.973985 -0.20107 0.181527 -0.916232 -0.357166 0.145996 -0.678821 -0.719644 
-0.395187 0.847847 -0.353528 -0.127356 0.224864 -0.966031 -0.861017 -0.299642 -0.41093 
-0.574002 -0.616356 -0.539098 -0.139945 -0.961434 -0.236772 0.811073 -0.582632 0.0519724 
0.981235 -0.191851 -0.019262 -0.816408 0.562388 -0.13114 0.109038 0.982828 0.148864 
-0.382175 0.921685 0.0666204 -0.946661 0.314204 0.07148 0.561077 -0.82244 -0.0937311 
-0.309073 -0.428029 -0.849273 -0.0358071 -0.923324 -0.382349 0.700466 -0.710985 0.0620366 