# vtk DataFile Version 4.2
vtk output
ASCII
DATASET POLYDATA
POINTS 765 float
277.301 216.792 222.393 279.228 217.215 222.446 280.135 217.765 222.503 
272.517 218.262 222.448 260.373 220.731 222.751 260.14 220.992 222.653 
265.372 220.509 222.437 259.223 221.329 222.882 258.939 221.758 222.768 
262.055 221.791 222.046 274.2 221.164 221.43 258.747 222.911 222.404 
266.169 222.887 221.542 276.494 215.433 223.206 277.98 215.191 223.667 
277.119 215.811 222.889 272.74 216.673 223.374 273.297 216.506 223.184 
275.231 216.298 222.79 279.763 217.086 222.815 260.848 220.322 223.024 
264.134 220.031 222.957 281.33 219.668 222.5 261.136 220.375 222.878 
282.251 219.642 223.054 282.577 219.835 223.288 257.845 222.486 223.155 
256.711 223.954 223.265 256.377 224.64 223.027 260.299 223.998 221.815 
268.699 223.749 221.38 256.137 225.445 222.779 255.903 224.975 223.139 
255.117 226.356 222.855 255.445 227.047 222.498 281.416 225.643 221.952 
250.942 228.932 223.145 255.616 228.489 222.195 262.66 227.664 221.554 
245.5 231.459 223.88 245.422 231.71 223.784 245.526 231.883 223.669 
247.182 232.235 222.994 277.257 214.713 224.157 278.169 215.135 223.96 
279.872 216.484 223.633 272.526 216.539 223.704 274.054 216.444 223.072 
281.787 218.137 223.735 259.675 220.528 223.79 260.747 220.183 223.405 
261.543 219.902 223.522 261.85 219.699 223.883 282.055 218.79 223.412 
282.245 218.808 223.65 259.244 220.83 223.793 258.93 221.168 223.461 
266.359 219.043 223.842 257.956 222.169 223.366 257.905 222.146 223.681 
255.649 224.902 223.451 254.353 225.954 223.743 252.499 227.3 223.827 
248.995 229.561 223.658 246.035 230.94 223.923 286.966 228.293 223.892 
287.296 228.811 224.021 245.406 231.517 224.079 245.316 231.769 223.932 
287.399 229.163 224.037 287.493 229.366 224.173 245.335 232.466 223.81 
286.561 230.496 223.381 245.474 233.133 223.733 286.979 231.208 223.609 
245.46 234.063 223.809 248.324 233.794 222.637 245.741 234.77 223.588 
245.429 235.836 223.987 246.643 235.436 223.138 245.455 238.511 224.239 
245.67 239.138 224.034 245.962 240.612 224.015 276.708 214.449 224.735 
277.411 214.592 224.486 277.294 214.492 224.741 275.008 214.796 224.791 
278.063 214.83 224.68 279.246 215.789 224.158 260.074 220.381 224.419 
261.226 219.879 224.349 262.53 219.45 224.433 282.446 219.012 223.871 
265.221 218.955 224.645 258.314 221.721 223.954 257.039 223.213 223.937 
255.5 224.88 223.86 285.388 224.159 224.252 253.075 226.871 224.064 
285.924 225.516 223.994 250.169 228.706 223.925 250.515 228.504 224.087 
286.749 226.709 224.274 287.065 227.75 224.254 245.981 230.919 224.113 
246.187 230.831 224.254 246.738 230.669 224.38 248.179 229.91 224.149 
287.427 228.974 224.141 245.396 231.659 224.29 245.566 231.346 224.23 
287.532 229.548 224.395 245.238 232.183 223.968 245.279 233.465 224.043 
287.78 238.156 224.085 288.08 238.51 224.367 245.536 240.534 224.651 
288.191 238.96 224.543 245.7 241.504 224.562 287.338 240.4 223.842 
288.045 239.947 224.313 280.947 241.96 223.087 286.769 241.463 223.697 
245.895 244.494 224.806 246.051 245.084 224.656 246.494 246.567 224.46 
247.392 246.241 223.938 250.336 246.069 223.288 287.605 244.298 224.321 
287.532 244.944 224.409 246.441 248.816 224.887 276.557 246.298 224.058 
285.01 245.963 224.521 287.203 245.819 224.628 288.207 245.612 224.772 
288.258 245.807 224.832 258.951 248.868 223.743 280.772 246.479 224.769 
288.178 245.921 224.851 254.82 250.799 223.857 261.922 249.509 224.371 
263.813 249.229 224.566 266.71 248.598 224.725 246.616 252.813 225.119 
257.72 250.877 224.387 246.755 253.412 225.098 258.392 251.012 224.768 
259.514 250.608 224.723 252.201 253.853 224.496 254.382 253.183 224.762 
255.039 252.837 224.838 252.385 254.662 225.021 276.969 214.417 225.361 
275.499 214.477 225.712 278.259 214.923 224.937 273.435 215.185 225.528 
280.568 216.805 224.454 281.01 217.18 224.334 281.344 217.529 224.413 
281.641 217.836 224.216 260.099 220.551 224.771 262.596 219.502 224.881 
264.382 219.081 225.638 268.373 217.744 225.527 259.231 221.075 224.538 
283.399 220.543 224.233 284.699 222.908 224.281 285.102 223.643 224.641 
254.341 226.16 224.582 286.09 225.277 224.638 286.389 225.83 224.551 
286.676 226.364 224.538 250.682 228.551 224.377 246.219 230.925 224.416 
247.544 230.494 224.628 287.324 228.41 224.427 245.463 231.88 224.502 
245.203 232.372 224.184 245.504 240.082 224.878 288.105 237.931 224.644 
288.219 239.351 224.776 246.401 249.12 225.168 288.296 245.333 224.941 
288.301 245.624 224.865 288.264 245.854 224.905 280.26 246.607 225.076 
288.093 245.964 224.923 273.769 247.862 224.886 264.098 249.316 224.763 
266.04 248.826 225.103 273.279 247.973 225.021 246.459 253.488 225.583 
261.072 250.211 224.735 262.113 249.988 224.932 262.745 249.741 225.03 
264.765 249.238 225.062 246.491 254.171 225.563 257.534 251.497 224.986 
258.256 251.147 225.149 260.913 250.313 224.997 261.667 250.142 225.009 
256.708 251.926 225.175 254.398 253.358 225.002 247.009 255.87 225.477 
252.89 254.391 225.021 253.17 254.26 225.131 246.477 256.351 225.863 
246.457 256.556 225.979 246.606 256.338 225.766 251.893 255.168 225.327 
251.331 255.65 225.479 246.543 256.628 225.887 247.443 256.902 225.744 
249.407 256.23 225.408 277.922 214.83 225.553 275.47 214.438 226.464 
279.619 216.126 225.064 280.08 216.617 225.135 281.965 218.392 224.568 
259.711 220.892 224.815 260.609 220.517 225.101 261.769 219.982 225.222 
282.615 219.406 224.539 258.588 222.104 224.796 255.071 225.88 224.865 
285.44 224.284 224.755 286.262 225.577 224.699 286.319 225.809 224.787 
252.815 227.706 224.944 287.17 228.025 224.766 287.302 228.355 224.643 
246.531 231.428 224.89 287.296 229.173 224.899 245.546 232.196 224.669 
245.358 232.236 224.524 245.516 237.732 225.038 287.555 238.494 225.482 
288.054 238.061 224.908 288.028 241.693 225.337 287.808 241.896 225.506 
288.007 242.268 225.377 246.18 246.387 225.215 288.103 243.418 225.276 
246.341 247.417 225.31 288.203 245.429 225.056 288.27 245.673 224.972 
288.18 245.859 224.982 278.964 246.654 225.455 274.294 247.789 225.172 
273.099 247.909 225.255 260.832 250.223 225.283 262.091 249.786 225.336 
262.048 249.993 225.1 257.425 251.468 225.307 255.533 252.529 225.362 
253.102 254.287 225.377 246.476 256.625 226.083 251.633 255.493 225.525 
251.812 255.334 225.594 252.322 254.838 225.583 246.52 256.815 225.978 
246.519 256.872 226.067 250.173 256.269 225.584 250.97 255.951 225.648 
251.39 255.665 225.692 248.572 256.971 225.904 248.295 257.076 225.982 
248.862 256.878 225.925 250.085 256.368 225.786 250.598 256.161 225.772 
248.558 257.007 226.024 277.142 214.613 226.313 277.584 214.962 226.685 
278.508 216.748 227.595 279.928 217.251 225.995 279.085 218.358 227.339 
262.329 220.036 225.654 267.476 217.956 226.612 263.37 220.174 226.443 
264.725 219.448 226.791 277.763 220.522 227.93 279.738 220.071 227.065 
263.39 221.333 226.758 274.344 222.61 228.115 266.284 223.148 227.449 
282.562 222.384 226.11 255.873 225.565 225.115 257.592 225.038 225.599 
275.29 224.214 227.55 262.656 224.734 226.675 283.481 225.127 226.256 
285.945 225.485 225.002 284.905 226.049 225.844 249.374 230.4 225.217 
252.252 229.73 225.698 284.301 227.845 226.307 283.554 229.782 226.562 
246.801 232.993 225.434 249.748 233.029 226.112 286.289 231.132 225.846 
246.146 235.907 225.464 251.382 234.528 226.507 245.772 237.265 225.289 
286.888 233.752 225.635 272.858 241.767 226.82 286.68 241.908 225.933 
285.911 242.935 226.062 247.415 245.988 226.075 286.278 244.966 225.684 
246.724 249.957 225.716 287.919 245.25 225.207 269.074 247.209 226.02 
249.364 250.225 226.495 270.795 247.547 225.777 258.921 249.393 226.076 
267.4 248.204 225.596 271.477 247.828 225.533 246.705 253.492 226.026 
246.559 254.096 225.952 246.892 254.274 226.227 247.284 253.53 226.308 
247.768 253.33 226.414 258.142 250.652 225.687 247.188 254.181 226.326 
248.893 254.153 226.586 250.135 254.48 226.527 254.14 252.621 225.902 
246.538 256.046 226.123 253.086 253.546 225.927 251.977 254.767 225.966 
252.945 254.103 225.722 246.562 256.798 226.15 246.598 257.009 226.14 
250.902 255.956 225.841 246.636 257.116 226.09 246.743 257.231 226.081 
246.728 257.236 226.127 246.9 257.245 226.05 247.544 257.202 226.011 
248.899 256.851 226.052 249.244 256.651 226.088 246.824 257.279 226.112 
247.005 257.276 226.114 248.16 257.079 226.108 248.541 256.951 226.132 
276.653 214.535 226.869 275.526 214.481 228.163 278.045 216.081 228.044 
278.252 216.903 228.322 278.324 217.858 228.249 278.212 218.68 228.201 
264.843 219.983 227.335 265.524 219.556 227.839 266.756 218.397 227.731 
277.513 220.168 228.203 276.138 221.25 228.449 276.934 220.589 228.414 
263.563 220.958 226.833 265.326 221.603 227.552 274.855 222.102 228.326 
267.556 222.488 227.995 246.719 254.549 226.141 247.013 255.517 226.314 
246.909 256.872 226.258 251.272 255.453 226.049 246.708 257.143 226.161 
246.879 257.107 226.211 247.512 256.923 226.289 247.825 257.035 226.219 
248.277 256.905 226.226 276.815 214.818 228.1 273.555 214.786 229.002 
272.018 215.455 228.474 278.153 216.77 228.913 278.211 217.066 229.142 
278.185 216.567 229.41 278.201 217.382 228.734 278.105 218.24 228.657 
277.901 219.022 229.084 265.53 220.315 228.042 265.854 220.005 228.64 
266.191 219.28 228.961 277.534 219.663 228.529 277.239 220.074 228.764 
265.91 221.113 228.076 266.14 220.816 228.787 275.091 221.847 228.543 
275.788 221.456 228.677 266.882 221.601 228.614 267.888 222.154 228.575 
268.213 222.399 228.296 268.97 222.507 228.574 270.386 222.812 228.357 
271.107 222.772 228.563 272.394 222.777 228.331 273.29 222.538 228.502 
273.134 222.69 228.285 246.508 253.486 230.222 246.307 253.493 230.456 
246.511 252.996 230.231 246.851 253.962 230.015 247.76 254.639 229.714 
246.269 255.516 230.549 250.777 255.005 229.719 246.437 256 230.365 
[...]
POINT_DATA 765
SCALARS scalars float
LOOKUP_TABLE default
1 1 1 1 1 1 1 1 1 
1 1 1 1 1 1 1 1 1 
1 1 1 1 1 1 1 1 1 
1 1 1 1 1 1 1 1 1 
1 1 1 1 1 1 1 1 1 
1 1 1 1 1 1 1 1 1 
1 1 1 1 1 1 1 1 1 
1 1 1 1 1 1 1 1 1 
1 1 1 1 1 1 1 1 1 
1 1 1 1 1 1 1 1 1 
1 1 1 1 1 1 1 1 1 
1 1 1 1 1 1 1 1 1 
1 1 1 1 1 1 1 1 1 
1 1 1 1 1 1 1 1 1 
1 1 1 1 1 1 1 1 1 
1 1 1 1 1 1 1 1 1 
1 1 1 1 1 1 1 1 1 
1 1 1 1 1 1 1 1 1 
1 1 1 1 1 1 1 1 1 
1 1 1 1 1 1 1 1 1 
1 1 1 1 1 1 1 1 1 
1 1 1 1 1 1 1 1 1 
1 1 1 1 1 1 1 1 1 
1 1 1 1 1 1 1 1 1 
1 1 1 1 1 1 1 1 1 
1 1 1 1 1 1 1 1 1 
1 1 1 1 1 1 1 1 1 
1 1 1 1 1 1 1 1 1 
1 1 1 1 1 1 1 1 1 
1 1 1 1 1 1 1 1 1 
1 1 1 1 1 1 1 1 1 
1 1 1 1 1 1 1 1 1 
1 1 1 1 1 1 1 1 1 
1 1 1 1 1 1 1 1 1 
1 1 1 1 1 1 1 1 1 
1 1 1 1 1 1 1 1 1 
1 1 1 1 1 1 1 1 1 
1 1 1 1 1 1 1 1 1 
1 1 1 1 1 1 1 1 1 
1 1 1 1 1 1 1 1 1 
1 1 1 1 1 1 1 1 1 
1 1 1 1 1 1 1 1 1 
1 1 1 1 1 1 1 1 1 
1 1 1 1 1 1 1 1 1 
1 1 1 1 1 1 1 1 1 
1 1 1 1 1 1 1 1 1 
1 1 1 1 1 1 1 1 1 
1 1 1 1 1 1 1 1 1 
1 1 1 1 1 1 1 1 1 
1 1 1 1 1 1 1 1 1 
1 1 1 1 1 1 1 1 1 
1 1 1 1 1 1 1 1 1 
1 1 1 1 1 1 1 1 1 
1 1 1 1 1 1 1 1 1 
1 1 1 1 1 1 1 1 1 
1 1 1 1 1 1 1 1 1 
1 1 1 1 1 1 1 1 1 
1 1 1 1 1 1 1 1 1 
1 1 1 1 1 1 1 1 1 
1 1 1 1 1 1 1 1 1 
1 1 1 1 1 1 1 1 1 
1 1 1 1 1 1 1 1 1 
1 1 1 1 1 1 1 1 1 
1 1 1 1 1 1 1 1 1 
1 1 1 1 1 1 1 1 1 
1 1 1 1 1 1 1 1 1 
1 1 1 1 1 1 1 1 1 
1 1 1 1 1 1 1 1 1 
1 1 1 1 1 1 1 1 1 
1 1 1 1 1 1 1 1 1 
1 1 1 1 1 1 1 1 1 
1 1 1 1 1 1 1 1 1 
1 1 1 1 1 1 1 1 1 
1 1 1 1 1 1 1 1 1 
1 1 1 1 1 1 1 1 1 
1 1 1 1 1 1 1 1 1 
1 1 1 1 1 1 1 1 1 
1 1 1 1 1 1 1 1 1 
1 1 1 1 1 1 1 1 1 
1 1 1 1 1 1 1 1 1 
1 1 1 1 1 1 1 1 1 
1 1 1 1 1 1 1 1 1 
1 1 1 1 1 1 1 1 1 
1 1 1 1 1 1 1 1 1 
1 1 1 1 1 1 1 1 1 

NORMALS Normals float
0.00611494 -0.300155 -0.953871 0.235343 -0.466625 -0.852569 0.4897 -0.471339 -0.733508 
-0.261046 -0.446997 -0.855598 -0.353842 -0.710454 -0.608317 -0.278403 -0.518883 -0.808241 
-0.139375 -0.471425 -0.870823 -0.494891 -0.632547 -0.595791 -0.428768 -0.438746 -0.789721 
-0.0907706 -0.29574 -0.950946 -0.000431332 -0.143554 -0.989642 -0.386305 -0.230798 -0.893029 
-0.0749346 -0.24118 -0.967583 -0.147263 -0.68566 -0.71287 0.345362 -0.740784 -0.576164 
0.0895856 -0.619417 -0.779934 -0.499941 -0.567075 -0.654588 -0.317154 -0.679901 -0.661172 
-0.185002 -0.379805 -0.906379 0.422978 -0.648944 -0.632425 -0.228272 -0.839577 -0.492953 
-0.095282 -0.672748 -0.733711 0.317236 -0.0794518 -0.945013 -0.0987906 -0.695376 -0.711823 
0.644781 -0.304462 -0.701113 0.734901 -0.322303 -0.596692 -0.630208 -0.441271 -0.638841 
-0.365379 -0.357758 -0.859365 -0.370781 -0.460087 -0.806747 -0.215253 -0.10817 -0.970549 
0.0401589 0.00914893 -0.999151 -0.42331 -0.343973 -0.838147 -0.610533 -0.372999 -0.698657 
-0.465391 -0.422631 -0.777685 -0.42733 -0.22821 -0.874819 0.193787 0.00628897 -0.981023 
-0.323724 -0.467336 -0.822679 -0.221921 -0.0942151 -0.970502 -0.111979 0.0251682 -0.993392 
-0.589037 -0.562404 -0.580291 -0.712589 -0.222963 -0.66521 -0.424234 -0.207926 -0.881358 
-0.319204 -0.190269 -0.928389 0.130638 -0.85892 -0.495167 0.498902 -0.805712 -0.319257 
0.557156 -0.697525 -0.450594 -0.426072 -0.765209 -0.482616 -0.167663 -0.377106 -0.910868 
0.713825 -0.625154 -0.315653 -0.517011 -0.85579 -0.0179639 -0.291107 -0.888809 -0.353942 
-0.177713 -0.914333 -0.363887 -0.246795 -0.95508 -0.164059 0.654418 -0.397893 -0.642976 
0.785157 -0.416084 -0.458696 -0.662007 -0.747758 0.0510279 -0.614414 -0.719364 -0.324055 
-0.186148 -0.926808 -0.326154 -0.658876 -0.685751 -0.309236 -0.774941 -0.62351 -0.103453 
-0.629884 -0.510671 -0.585202 -0.538999 -0.575328 -0.615205 -0.53752 -0.809324 -0.236787 
-0.40848 -0.698292 -0.58782 -0.488066 -0.701244 -0.519662 0.622574 -0.234126 -0.746718 
0.746547 -0.270799 -0.60773 -0.926763 -0.36738 0.0783695 -0.912021 -0.31284 -0.265234 
0.636587 -0.085784 -0.766419 0.875533 -0.0149802 -0.482926 -0.68391 0.0230858 -0.729201 
0.449326 0.0505005 -0.891939 -0.664242 0.064304 -0.744747 0.561122 0.0914679 -0.822664 
-0.775907 0.148578 -0.613101 -0.225712 -0.0116433 -0.974124 -0.699507 0.104568 -0.706934 
-0.838437 0.0731019 -0.540074 -0.473093 0.0611288 -0.878889 -0.856302 0.073225 -0.511258 
-0.818607 0.0855799 -0.567943 -0.566019 0.122971 -0.815169 -0.0799024 -0.95087 -0.299101 
0.346178 -0.910706 -0.225336 0.227876 -0.959973 -0.162863 -0.280959 -0.91624 -0.2856 
0.407991 -0.886405 -0.2187 0.588249 -0.779164 -0.216489 -0.468625 -0.823896 0.318725 
-0.329049 -0.934352 0.136797 -0.164157 -0.957688 -0.236401 0.835734 -0.480429 -0.265964 
0.00838127 -0.999701 0.0229863 -0.674134 -0.731659 0.101089 -0.739199 -0.663433 0.115939 
-0.683458 -0.728885 -0.0401527 0.871585 -0.48625 -0.0624578 -0.648619 -0.739732 0.179136 
0.695363 -0.338697 -0.633841 -0.494775 -0.815955 -0.299023 -0.492981 -0.796909 0.349149 
0.874846 -0.324469 -0.359672 0.855736 -0.303035 -0.419387 -0.498542 -0.865356 -0.0511299 
-0.427495 -0.864038 0.265868 -0.270099 -0.932939 0.238058 -0.479851 -0.870573 0.10884 
0.938809 -0.247785 -0.239247 -0.851964 -0.341478 0.396927 -0.695558 -0.628108 0.348825 
0.983974 -0.0781874 -0.160258 -0.954024 -0.0527138 -0.295058 -0.956996 0.116176 -0.265821 
0.511711 -0.0174928 -0.85898 0.803915 -0.055422 -0.592156 -0.955971 0.10957 -0.272239 
0.859909 -0.0111709 -0.510324 -0.97844 0.108609 -0.175668 0.499449 0.0214218 -0.866078 
0.750177 0.0553838 -0.658913 0.062957 0.112465 -0.991659 0.256326 0.0939243 -0.962016 
-0.995452 0.0901745 -0.0307109 -0.713983 0.0559675 -0.697922 -0.65876 0.081462 -0.74793 
-0.392244 0.00996589 -0.919807 -0.121659 0.0687405 -0.990189 0.306121 0.165417 -0.937511 
0.409533 0.18455 -0.893434 -0.905492 0.090507 -0.414599 0.0441147 0.42799 -0.902706 
0.0836707 0.588176 -0.804393 0.0281943 0.334313 -0.94204 0.497372 0.113386 -0.860096 
0.705896 0.294695 -0.644101 0.0675876 0.295317 -0.953006 0.123155 0.886678 -0.445685 
0.294878 0.723914 -0.623696 0.0780233 0.219188 -0.972558 0.168239 0.56602 -0.807042 
0.221571 0.603114 -0.766263 0.171034 0.78841 -0.590894 -0.810283 0.0940245 -0.578447 
0.184126 0.413249 -0.891809 -0.437368 0.147541 -0.887097 0.318775 0.813236 -0.486857 
0.232058 0.709191 -0.66573 0.130779 0.38709 -0.912721 0.386358 0.573529 -0.722352 
0.358166 0.600293 -0.715098 0.324447 0.708156 -0.627096 0.092437 -0.995609 0.0147437 
-0.0734341 -0.996102 -0.0488648 0.5804 -0.813773 -0.0301534 -0.392418 -0.894756 -0.213121 
0.690977 -0.696333 0.19409 0.642214 -0.720136 0.262614 0.683705 -0.729138 0.0300879 
0.770298 -0.636672 -0.0359208 -0.453881 -0.587823 0.669669 -0.369962 -0.87307 0.317611 
-0.206304 -0.960915 0.18461 -0.372861 -0.918767 -0.129776 -0.634462 -0.735937 0.236338 
0.868061 -0.490748 -0.0750769 0.874017 -0.476398 -0.0955971 0.769976 -0.48464 0.415043 
-0.597403 -0.631894 0.49378 0.838974 -0.514662 0.176765 0.885364 -0.456652 -0.087179 
0.847347 -0.307856 0.432697 -0.482118 -0.701275 0.525144 -0.466418 -0.61222 0.638468 
0.204171 -0.353823 -0.912756 0.972472 -0.232887 0.00788603 -0.541364 -0.362612 0.758576 
-0.990158 -0.068653 0.121957 -0.996847 0.0738677 0.0289789 0.994044 -0.106365 0.0237282 
0.950006 -0.0439037 0.309128 -0.993445 0.0811778 -0.0804869 0.987404 -0.0511181 0.149731 
0.966228 0.0448129 -0.253764 0.836944 0.515104 0.184913 0.137794 0.990209 0.0223191 
0.266461 0.871808 0.411035 0.147158 0.90368 -0.402129 0.325254 0.849526 -0.415349 
0.180593 0.977068 0.112805 0.138577 0.98889 0.0537916 -0.99936 0.00578152 0.035297 
0.204367 0.763504 -0.612614 0.284576 0.906982 -0.310485 0.306542 0.930688 0.19963 
0.306381 0.950484 -0.052055 -0.961188 0.0230042 -0.274932 0.403036 0.899884 -0.166644 
0.363161 0.888925 0.279153 0.263239 0.96307 -0.0565874 0.265778 0.962021 0.0622684 
0.471716 0.878391 -0.0768986 0.543959 0.817187 -0.190562 -0.319193 0.20248 -0.925806 
0.399689 0.688771 -0.604849 0.544344 0.811628 -0.212013 -0.738814 0.120267 -0.663091 
-0.966311 0.141035 -0.215297 -0.293442 0.268819 -0.917403 0.487133 0.732449 -0.475626 
0.371585 0.704382 -0.604789 -0.510003 0.305416 -0.804125 -0.125639 0.448084 -0.885119 
0.0484727 0.491232 -0.869679 0.473935 -0.87152 0.12585 -0.130608 -0.991407 0.00727412 
0.657457 -0.694181 0.293024 0.687172 -0.578908 0.43893 0.714684 -0.529452 0.457063 
-0.421289 -0.57271 0.703221 -0.43203 -0.609023 0.665162 -0.279702 -0.88508 0.372021 
0.779294 -0.469595 0.414947 -0.476573 -0.435337 0.76378 -0.444326 -0.41086 0.796096 
0.759664 -0.485643 0.432505 0.820452 -0.447234 0.356147 0.730503 -0.327611 0.599197 
-0.232203 -0.519897 0.822064 0.888222 -0.298281 0.349415 0.959947 -0.188995 0.206839 
-0.311748 -0.443655 0.840228 0.894884 -0.118051 0.430404 -0.518922 -0.162573 0.83922 
-0.798514 -0.113774 0.591127 -0.81274 -0.0216224 0.582225 0.418996 -0.0579474 0.906137 
0.85054 -0.0829696 0.519324 0.71783 -0.0952616 0.689671 0.434774 -0.0927044 0.895755 
0.624094 0.0514306 0.779654 -0.814912 0.0537332 0.577089 0.58375 0.0482181 0.8105 
-0.791684 0.0127176 0.610798 0.573582 0.00897583 0.819099 0.814201 0.133041 0.565135 
0.402381 0.371085 0.836891 0.0955876 0.615873 0.782025 0.171089 0.943521 0.283718 
0.115693 0.740305 0.662242 0.227612 0.721024 0.654459 0.217629 0.735767 0.641315 
0.282713 0.870272 0.403362 0.311565 0.704711 0.637425 0.470856 0.739105 0.481682 
0.584999 0.717373 0.378356 -0.936298 0.0344015 0.349519 0.58342 0.782612 -0.217118 
0.678513 0.708859 0.192714 0.626808 0.718809 0.300707 -0.774687 0.348605 -0.527574 
-0.943513 0.28304 0.172254 0.29764 0.789944 -0.536096 0.493825 0.852956 -0.169123 
0.592751 0.778471 0.20647 0.22261 0.825241 -0.519059 0.163874 0.924204 -0.344952 
0.363508 0.903871 -0.225565 0.387841 0.907393 0.161914 0.426874 0.902056 0.0638286 
0.31659 0.939311 0.13216 0.287005 -0.944312 0.160943 0.650449 -0.72238 0.234696 
0.827723 -0.390596 0.402875 0.711048 -0.415364 0.567348 0.646444 -0.0879194 0.757879 
-0.35628 -0.73673 0.574711 -0.375459 -0.92665 0.0187141 -0.45131 -0.47882 0.753028 
-0.518186 -0.722851 0.457132 0.439828 0.372426 0.817221 0.406246 0.179887 0.895882 
-0.427585 -0.183412 0.885173 0.260599 0.549395 0.793885 -0.383712 -0.170113 0.907649 
0.384746 -0.198632 0.901397 -0.406474 -0.409154 0.816928 -0.299517 -0.213636 0.929865 
0.038668 0.38563 0.921843 -0.229027 -0.0437919 0.972434 0.170828 -0.142609 0.974926 
0.568047 -0.284294 0.772334 0.487103 -0.167862 0.857061 -0.278451 -0.455734 0.845442 
0.0156618 -0.334595 0.942232 0.110623 -0.0144534 0.993757 0.170348 0.0054576 0.985369 
-0.332392 -0.195335 0.922692 -0.176071 -0.213582 0.960928 0.522687 -0.123834 0.843483 
-0.448294 -0.059588 0.891898 -0.0406756 -0.0992733 0.994229 -0.516235 -0.0110123 0.856376 
0.501935 -0.0495103 0.863487 0.00439964 0.104934 0.994469 0.291831 -0.050202 0.955151 
0.197813 0.054072 0.978747 -0.203483 -0.0129755 0.978992 0.150155 0.27349 0.950082 
-0.530069 -0.0458649 0.846713 0.419396 0.0532788 0.906239 -0.0422274 0.355898 0.93357 
-0.0333802 -0.0783388 0.996368 0.0698466 0.440438 0.895062 0.0440648 0.303035 0.95196 
0.0890608 0.599125 0.795686 0.056873 0.601875 0.796563 -0.618021 -0.155495 0.77063 
-0.717559 -0.0906387 0.690575 -0.445237 -0.161197 0.880783 -0.393872 -0.155556 0.905907 
-0.254615 -0.127686 0.958576 0.0767344 0.475179 0.876537 -0.283899 0.00439906 0.958844 
-0.0253735 0.0586224 0.997958 0.116619 0.184122 0.975961 0.301822 0.385435 0.871977 
-0.530554 -0.033412 0.846992 0.233563 0.0494314 0.971084 0.517378 0.468785 0.715933 
0.464214 0.447681 0.764256 -0.590978 0.0851244 0.802184 -0.600075 0.253082 0.758855 
0.492744 0.733652 0.46793 -0.661282 0.539061 -0.52165 -0.435334 0.666151 -0.60558 
-0.370286 0.645433 0.66806 -0.114691 0.646332 -0.754388 0.0985229 0.886977 -0.451181 
0.354126 0.662688 0.659878 0.350056 0.688981 0.634639 -0.209349 0.968121 -0.137535 
0.0732799 0.917026 0.392038 0.189576 0.856036 0.480899 0.270113 0.67302 0.688537 
0.249779 -0.961024 0.118503 -0.0995394 -0.99429 -0.0384498 0.898693 -0.417045 0.135734 
0.97087 0.00621254 0.239527 0.887691 -0.00516918 0.460412 0.730721 0.173788 0.660185 
-0.647813 -0.214169 0.731074 -0.760367 -0.401734 0.510345 -0.579354 -0.788113 0.207913 
0.47018 0.555716 0.685646 0.524583 0.688451 0.500847 0.67816 0.627143 0.383131 
-0.446543 -0.228645 0.865056 -0.413539 0.10565 0.904336 0.318384 0.689436 0.650622 
-0.351479 0.273342 0.895403 -0.611422 0.0558594 0.789331 -0.288681 0.0263297 0.957063 
-0.209401 0.174413 0.962149 0.391347 0.438056 0.809293 -0.499077 0.34864 0.79333 
-0.144531 0.282422 0.94834 0.0326132 0.242471 0.969611 0.0538877 0.395069 0.91707 
0.189331 0.412832 0.890912 0.268788 -0.96024 0.0754521 -0.366401 -0.904465 0.218387 
-0.456337 -0.886244 0.0795413 0.988515 0.139388 0.0583877 0.973735 -0.00686176 -0.227579 
0.953033 -0.238354 -0.186857 0.99054 0.0106651 0.136807 0.939091 0.255907 0.22939 
0.775655 0.21205 -0.594469 -0.775559 0.107998 0.621969 -0.938275 -0.0308741 0.344511 
-0.827271 -0.528683 0.190045 0.688858 0.454015 0.565106 0.805739 0.582278 -0.108341 
-0.561599 0.606656 0.562649 -0.862962 0.478799 0.161394 0.425778 0.893689 0.14154 
0.540873 0.761912 -0.356295 -0.596276 0.799886 0.0680992 -0.419503 0.905915 0.0577515 
-0.366976 0.644104 0.671162 -0.218496 0.966715 -0.133122 -0.0796705 0.814637 0.574473 
-0.102328 0.984775 -0.140525 0.095918 0.752852 0.651163 0.216103 0.943506 0.251188 
0.201266 0.779509 0.593176 -0.51014 -0.0475122 -0.858778 -0.843869 -0.00652264 -0.536509 
-0.626984 -0.141818 -0.766014 -0.479445 0.0155707 -0.877434 -0.156914 -0.0498044 -0.986356 
-0.742043 -0.0575619 -0.667876 0.215504 0.209396 -0.953788 -0.589977 -0.0740156 -0.80402 
0.403966 0.33841 -0.849877 -0.340395 0.00869556 -0.940242 -0.154229 0.221095 -0.96298 
-0.65057 0.136203 -0.747133 0.121503 0.319033 -0.939923 0.47863 0.798413 -0.365308 
-0.723308 0.41846 -0.549287 -0.43565 0.577413 -0.690509 -0.489704 0.242568 -0.837467 
-0.284156 0.288062 -0.914481 0.430069 0.69252 -0.579187 -0.0243333 0.629157 -0.776897 
0.127523 0.614704 -0.778381 -0.184594 -0.953681 0.237524 0.679289 -0.733656 -0.0177507 
0.662636 -0.183298 -0.726165 -0.549593 -0.835354 0.0114878 -0.787555 -0.582662 -0.200654 
-0.973382 -0.114646 -0.198454 0.450794 0.272021 -0.85017 -0.814075 0.366915 -0.450172 
0.451471 0.439996 -0.776259 -0.641101 0.662173 -0.387965 -0.323867 0.904094 -0.27879 
-0.143416 0.830328 -0.538505 -0.255347 0.537117 -0.80393 0.249497 0.733581 -0.632147 
0.393786 -0.282728 -0.874641 0.656095 -0.412284 -0.632109 0.667352 -0.367553 -0.647724 
0.605952 0.0240201 -0.795138 0.793078 -0.428195 -0.433218 0.728229 -0.114579 -0.675688 
0.223521 -0.0341165 -0.974102 0.963991 0.0452858 -0.262051 -0.38615 -0.395011 -0.833579 
-0.230644 -0.354264 -0.906256 -0.661523 -0.00541209 -0.749906 -0.105524 -0.139963 -0.984518 
0.0610122 -0.0100235 -0.998087 -0.875125 0.0897158 -0.475508 0.279322 -0.0420693 -0.959276 
-0.722319 0.0318362 -0.690826 -0.36419 -0.0319733 -0.930776 0.0711649 0.189466 -0.979305 
0.08557 0.278236 -0.956694 0.274305 0.170673 -0.946376 0.099591 0.312141 -0.944801 
0.078707 0.390245 -0.917341 0.125811 0.548947 -0.826335 0.729424 0.277072 -0.625437 
0.177278 0.748629 -0.638848 0.163356 0.822338 -0.545045 0.12518 0.874435 -0.468715 
0.353995 0.757549 -0.548459 -0.0207872 0.0896962 -0.995752 0.122494 0.51989 -0.845405 
-0.633146 -0.0566284 -0.771958 0.167106 0.849118 -0.501073 0.330092 0.739239 -0.586996 
0.00685993 0.0274864 -0.999599 0.112603 0.344043 -0.932178 0.40795 0.638575 -0.652532 
0.375686 0.414173 -0.829048 0.619613 0.663027 -0.42009 -0.951746 0.192733 -0.238818 
0.561379 0.743803 -0.362782 -0.717945 0.635431 -0.284223 -0.524538 0.847133 -0.0850049 
-0.197849 0.885392 -0.420639 -0.155489 0.954354 0.255013 0.359592 0.816133 -0.45235 
0.228368 0.951925 -0.204174 0.482143 0.871676 0.0878519 0.0468512 0.945998 -0.32077 
0.361583 -0.922095 -0.137838 0.551974 -0.756382 -0.351013 0.720098 -0.454674 -0.524147 
0.788973 -0.261981 -0.555777 0.652163 -0.626019 -0.427532 0.53641 -0.609641 -0.583612 
0.52388 -0.413947 -0.744444 0.697439 -0.437581 -0.56754 0.705073 -0.601974 -0.374832 
0.600478 -0.435468 -0.670666 -0.344855 -0.78558 -0.51375 -0.403686 -0.627376 -0.665911 
-0.351728 -0.758385 -0.548761 -0.474201 -0.617865 -0.627197 0.368064 -0.00273103 -0.929797 
-0.532186 -0.809418 -0.248234 -0.72447 -0.50822 -0.465677 0.55698 -0.274041 -0.784012 
0.707696 -0.474904 -0.523098 0.749966 -0.474848 -0.460511 -0.392567 -0.34854 -0.851123 
-0.69817 -0.062394 -0.713208 0.248845 0.361637 -0.898496 0.690432 -0.450662 -0.565869 
-0.294153 -0.533249 -0.793171 -0.313183 -0.699689 -0.642146 -0.711628 0.184054 -0.678019 
-0.217528 0.58872 -0.778518 0.178258 0.182577 -0.966897 0.120399 0.0581411 -0.991022 
-0.471261 -0.559169 -0.682088 -0.323148 -0.407268 -0.85423 -0.372959 0.0456005 -0.926726 
-0.145258 0.214473 -0.965868 0.0359239 0.122867 -0.991773 0.0671276 0.0806259 -0.994481 
0.37585 -0.384542 -0.843128 -0.382505 -0.483294 -0.787475 -0.542328 -0.534023 -0.648614 
0.686159 -0.482503 -0.544405 -0.469875 -0.729288 -0.497349 0.38519 -0.0860903 -0.918813 
0.949482 -0.115328 0.291862 -0.333252 -0.617798 -0.712228 -0.823128 -0.239528 -0.514866 
0.437562 -0.0825974 -0.895386 -0.959949 0.0901412 -0.265279 0.913077 -0.0734949 -0.40111 
-0.949298 0.074531 -0.305414 0.361392 -0.00505838 -0.9324 -0.89351 0.0476085 -0.446512 
-0.942344 0.101653 -0.318833 0.741291 -0.0178417 -0.670947 0.973053 -0.0174395 0.22992 
0.91216 -0.0195531 0.409368 0.971825 0.015304 -0.235206 0.810304 0.495769 0.312444 
0.171452 0.848737 -0.50025 0.172785 0.981605 -0.0812269 0.250865 0.918754 0.304889 
0.122299 0.756368 -0.642613 0.217197 0.969615 0.112569 0.204074 0.728764 -0.653649 
0.272825 0.85534 -0.440409 0.254124 0.96701 -0.0176777 0.136988 0.971611 0.192888 
0.0911969 0.988425 0.121242 0.184176 0.974629 -0.127188 -0.999595 -0.0229158 -0.0168581 
0.358734 0.919088 -0.163058 0.557072 0.778168 -0.290045 -0.886186 0.184906 0.424834 
0.610514 0.785472 -0.101524 0.565166 0.818407 0.103909 0.600045 0.794196 0.0959032 
-0.671073 0.404608 0.621251 0.505234 0.851253 0.141799 -0.725483 0.674512 0.136776 
-0.353794 0.884164 0.305095 0.0476345 0.992639 0.111352 0.0662011 0.758612 0.648171 
0.185421 0.956583 0.224875 0.311808 0.846547 0.431432 0.350455 -0.820809 -0.451059 
0.256758 -0.898868 -0.355122 -0.0964098 -0.993925 0.053093 0.570817 -0.741119 -0.353427 
0.567532 -0.615744 -0.546596 0.743248 -0.654667 -0.137816 -0.301406 -0.886434 -0.351267 
0.77436 -0.517854 -0.363585 0.735214 -0.567961 -0.369973 0.857194 -0.501989 0.115003 
-0.565625 -0.66296 -0.490462 0.795234 -0.552275 -0.250192 0.847247 -0.506059 -0.161483 
0.847929 -0.335927 0.410085 0.936323 -0.278653 0.213662 -0.569647 -0.792978 -0.216077 
-0.399676 -0.716652 -0.57155 -0.495973 -0.743846 -0.447999 -0.920428 -0.010049 -0.390783 
0.925685 -0.0562004 0.374096 -0.823623 0.130006 0.552036 0.506493 0.16543 0.846226 
0.798495 0.142897 0.584795 0.393134 0.426251 0.814712 0.138547 0.968945 0.204817 
0.109847 0.90457 0.411932 0.126475 0.581006 0.804012 0.0262933 0.529444 0.847937 
0.148621 0.874008 0.462625 0.147944 0.763326 0.628845 0.299821 0.914128 0.272904 
0.47934 0.877428 -0.0187812 0.20031 0.766227 0.610551 -0.449292 0.216017 0.866876 
-0.318988 0.332776 0.887416 0.510475 0.711083 0.483505 0.504379 0.753552 0.421617 
0.45362 0.742453 0.492942 -0.360332 0.653198 0.665953 -0.0951451 0.646881 0.756633 
0.0458787 0.539471 0.840754 0.0992012 -0.983143 -0.153585 0.431971 -0.900345 -0.0527257 
0.519425 -0.844075 -0.133174 0.520709 -0.852192 0.0512942 0.701831 -0.704315 -0.106643 
0.733535 -0.673839 -0.0886981 0.766356 -0.641596 0.0324627 0.768782 -0.621992 0.148664 
-0.38868 -0.910384 -0.141875 -0.192004 -0.978567 0.0744445 0.856907 -0.511622 -0.0628691 
-0.55538 -0.815165 -0.164495 -0.515991 -0.807268 -0.286481 -0.257213 -0.954316 0.152059 
0.851284 -0.523003 0.0422308 0.843232 -0.368673 0.391202 -0.624731 -0.648964 -0.434231 