# vtk DataFile Version 4.2
vtk output
ASCII
DATASET POLYDATA
POINTS 628 float
246.31 258.155 188.544 247.13 258.153 188.488 247.341 257.917 188.61 
248.044 258.153 188.684 247.937 258.036 188.691 245.393 258.771 188.541 
245.362 258.671 188.608 245.562 258.713 188.529 245.684 258.451 188.643 
245.908 258.858 188.507 244.901 259.197 188.798 246.352 259.225 188.531 
248.646 258.945 189.251 247.054 259.973 188.893 248.493 259.632 189.355 
247.94 260.235 189.359 246.916 257.509 188.837 246.846 257.43 188.93 
246.703 257.504 188.907 247.101 257.488 188.887 246.979 257.426 188.921 
247.091 257.425 189.009 243.866 258.474 189.646 245.109 257.799 189.611 
246.339 257.579 189.079 247.817 257.701 189.207 248.248 257.948 189.479 
243.173 259.04 189.735 244.469 258.793 189.074 243.087 259.389 189.705 
248.788 258.685 189.557 248.777 258.861 189.431 248.924 258.942 189.744 
243.362 259.862 189.624 248.995 259.325 189.945 248.279 260.545 189.816 
246.9 257.395 189.067 248.012 257.678 189.583 247.904 257.544 189.851 
242.118 258.524 190.765 246.65 257.393 189.377 242.634 258.782 190.221 
241.287 259.313 190.823 241.195 259.569 190.848 242.025 259.714 190.366 
249.179 259.506 190.498 241.267 259.899 190.868 249.225 259.954 190.759 
249.069 260.529 190.83 247.425 257.364 189.823 242.417 257.841 191.711 
245.292 257.444 190.323 248.993 258.665 190.296 240.575 260.005 191.397 
240.931 260.304 191.233 243.844 261.68 190.645 245.578 261.9 190.403 
247.605 262.02 190.82 248.226 261.765 190.889 249.195 261.271 191.669 
249.009 261.852 191.832 247.787 257.461 190.601 248.062 257.602 190.649 
248.133 257.703 191.076 239.453 258.891 192.575 239.15 258.821 192.971 
238.801 259.307 192.934 249.364 259.382 191.517 238.819 260.276 192.874 
239.175 260.011 192.525 239.896 260.158 191.997 249.539 260.38 191.972 
242.146 261.664 191.454 248.714 262.925 192.755 246.021 257.213 191.106 
238.224 259.752 193.425 238.012 259.593 193.745 238.714 260.612 193.139 
240.717 262.02 192.783 239.663 257.987 194.307 249.297 259.203 192.681 
238.032 259.361 193.92 238.906 261.368 193.539 249.701 262.463 194.242 
248.212 264.418 194.39 249.238 263.746 194.791 249.036 264.24 195.138 
249.559 259.885 193.768 236.833 260.393 195.411 237.137 260.941 195.101 
249.856 260.981 194.213 249.894 262.144 194.721 247.991 265.304 195.71 
247.606 258.027 194.52 236.98 261.48 195.867 248.893 265.088 196.339 
249.402 264.642 196.573 248.729 259.015 195.483 249.516 260.073 195.375 
235.7 260.969 197.236 246.055 266.458 197.639 247.658 266.328 197.579 
239.243 257.744 197.096 241.168 257.44 196.82 243.373 257.476 197.236 
246.447 257.904 196.214 249.984 261.474 196.701 248.683 266.234 198.316 
249.34 265.927 198.901 247.541 258.619 197.43 235.44 259.817 198.76 
235.31 260.076 198.683 235.332 260.379 198.384 235.104 260.541 198.974 
235.026 260.885 199.295 235.289 261.235 198.753 235.409 261.694 199.028 
239.118 263.954 197.612 250.049 264.667 198.895 236.268 258.839 199.544 
236.091 262.541 199.094 249.934 265.384 199.924 247.762 267.208 200.213 
248.419 267.103 200.404 235.017 259.498 201.215 234.754 261.518 200.51 
248.443 267.349 201.057 248.571 267.25 200.869 248.816 267.092 201.153 
248.522 267.325 200.946 235.376 259.051 201.782 234.009 260.43 202.267 
234.103 260.583 201.908 250.235 263.352 200.807 248.478 267.352 201.567 
235.835 258.724 201.893 234.121 261.968 202.502 250.191 265.315 202.35 
234.177 259.748 203.379 233.557 261.371 203.848 233.614 261.678 203.982 
234.058 262.11 203.27 235.049 258.959 204.585 236.907 258.236 204.373 
234.061 259.75 204.102 233.46 261.005 204.27 233.297 261.316 205.177 
233.658 262.059 205.071 249.904 266.643 205.309 248.727 267.774 205.86 
233.311 260.415 206.478 233.171 261.044 206.277 249.888 263.319 205.604 
250.069 266.289 205.951 249.575 267.16 206.341 234.395 259.271 207.59 
233.217 260.621 206.798 233.227 261.435 207.17 250.16 265.872 206.619 
249.819 266.859 206.958 233.796 259.751 208.393 233.391 260.286 207.905 
233.24 260.729 208.184 233.185 261.072 207.673 233.65 262.369 207.317 
249.964 266.564 207.541 249.17 267.589 208.229 250.089 264.876 209.013 
250.131 265.587 209.376 247.693 268.149 209.172 235.834 258.87 210.593 
234.696 259.298 210.151 233.25 261.186 209.089 249.219 262.824 210.224 
233.818 262.487 208.948 250.027 264.486 210.537 242.743 267.193 210.151 
248.917 267.805 210.574 249.435 267.363 209.502 234.082 259.929 210.656 
233.576 260.573 210.279 233.344 261.262 209.651 247.899 261.365 210.486 
233.536 261.452 210.252 235.047 263.397 210.778 249.89 266.577 210.79 
248.397 268.034 210.49 249.784 266.885 210.202 249.555 267.206 210.135 
234.845 259.437 211.357 241.32 258.632 211.529 233.851 260.546 211.265 
247.586 261.339 212.034 249.944 266.155 212.516 234.696 259.836 212.262 
233.82 260.794 211.418 245.844 260.33 212.988 233.935 260.964 211.761 
234.133 261.621 211.94 249.262 263.271 213.5 234.719 262.626 212.042 
237.409 264.892 213.255 249.958 264.846 213.038 238.491 265.565 213.064 
247.539 267.911 212.553 234.573 260.26 212.736 235.199 259.86 213.353 
234.469 261.654 212.726 249.596 263.928 213.642 249.908 265.455 213.846 
249.579 266.747 213.405 247.99 267.692 214.141 236.653 259.316 213.913 
236.912 259.458 214.422 248.565 262.377 214.01 249.796 264.954 214.441 
239.589 265.973 214.701 240.225 266.178 215.425 249.73 265.938 214.841 
248.362 267.54 214.53 236.018 260.951 215.224 235.273 261.487 214.376 
235.493 261.998 214.578 236.161 262.918 215.086 249.347 264.185 215.94 
236.418 263.318 214.999 236.888 263.875 214.92 238.54 265.259 215.368 
247.628 267.582 215.767 248.182 267.455 215.662 248.733 267.235 215.349 
237.083 260.355 215.689 249.578 265.271 216.065 249.066 266.588 216.682 
247.453 267.496 216.966 238.377 260.558 216.68 243.387 260.56 217.429 
236.258 261.554 215.689 243.724 267.247 218.547 249.144 266.11 217.498 
246.572 267.579 218.305 248.423 266.963 217.802 237.741 261.724 217.167 
248.101 263.136 218.554 239.704 265.169 217.963 241.737 266.394 218.997 
245.419 267.56 219.394 248.606 266.639 218.717 247.651 267.296 218.949 
239.013 263.547 218.92 239.488 264.364 219.016 248.718 266.277 219.504 
247.959 267.102 219.944 245.162 261.865 220.438 239.379 263.351 219.446 
239.82 263.127 219.913 240.269 262.751 220.202 246.886 262.9 220.915 
248.349 264.297 220.483 240.013 264.046 220.125 248.786 265.499 219.967 
243.84 266.93 220.99 245.093 267.391 221.128 247.992 267.098 220.741 
248.117 267.025 221.105 246.561 263.02 221.784 247.652 263.651 221.31 
240.654 263.496 221.048 240.225 263.636 220.525 248.599 265.996 220.889 
248.5 266.323 221.132 248.213 266.889 221.376 248.086 267.03 221.426 
241.481 262.999 221.642 242.891 262.872 222.404 247.718 264.223 222.391 
247.963 264.6 222.386 248.381 265.084 221.568 246.293 267.174 223.157 
248.205 266.699 221.946 247.545 267.078 222.576 247.917 266.948 222.188 
241.685 263.752 222.459 242.292 263.75 223.134 241.976 264.047 222.995 
242.132 263.903 223.131 241.995 264.59 222.98 242.241 264.938 223.162 
242.321 265.248 222.893 245.357 263.436 223.785 246.737 263.768 223.452 
242.436 264.238 223.634 241.943 264.299 222.994 242.777 265.139 223.846 
243.392 265.873 223.637 248.111 266.028 223.266 244.445 266.341 224.338 
247.474 266.866 224.186 247.539 266.811 224.37 243.585 263.894 224.213 
244.506 263.68 224.22 242.591 264.38 223.836 242.925 264.287 224.077 
242.541 264.557 223.799 247.631 265.677 225.107 247.979 266.178 223.814 
247.531 266.735 224.579 246.371 264.43 225.713 243.652 264.496 224.836 
244.769 265.735 226.429 247.519 266.119 225.655 247.195 266.556 225.874 
245.739 264.679 226.575 244.378 265 225.834 244.961 264.948 226.507 
245.371 265.043 227.768 244.677 265.291 226.389 245.024 265.408 227.334 
246.987 265.158 227.116 246.981 265.154 228.149 245.286 265.95 227.88 
245.688 266.283 227.803 247.281 265.518 228.145 247.344 266.01 226.957 
247.32 266.073 228.282 246.329 266.501 228.311 247.009 266.41 228.31 
244.621 264.762 230.717 246.176 264.746 229.2 246.697 264.758 229.523 
245.471 264.92 229.14 246.741 264.944 228.751 246.941 264.758 229.83 
244.458 265.379 230.678 244.58 265.542 230.541 244.716 265.395 230.191 
245.107 265.456 229.005 247.392 265.213 229.665 245.302 266.042 229.411 
247.064 266.576 229.542 247.677 266.437 230.383 247.651 266.602 230.652 
244.391 264.2 231.585 245.259 266.275 230.5 248.034 266.171 231.107 
244.537 266.513 232.569 248.352 265.777 232.11 247.814 266.854 231.613 
247.863 266.886 231.872 247.917 266.844 231.753 247.607 264.431 231.935 
242.934 265.282 233.144 244.042 266.302 232.9 247.938 266.879 232.393 
247.98 266.806 231.948 248.278 266.713 233.12 248.463 265.046 233.226 
245.358 267.222 233.782 246.713 267.443 233.898 248.579 266.555 233.937 
242.02 263.259 234.882 241.683 263.386 235.078 241.111 263.888 235.41 
240.87 264.024 235.729 244.073 266.948 234.869 247.515 267.364 234.339 
248.304 267.111 234.876 248.557 266.894 234.813 243.155 262.215 235.929 
240.922 264.831 236.125 240.455 262.053 237.411 243.772 261.663 237.007 
245.591 262.109 236.266 240.531 262.391 237.031 239.896 263.867 237.172 
240.514 264.938 237.017 249.042 266.07 236.081 248.073 267.315 236.085 
248.476 267.133 236.168 248.595 267.038 235.898 239.136 262.084 238.365 
239.033 262.481 238.286 240.668 265.725 238.108 248.571 267.066 236.951 
239.569 261.05 239.117 240.217 260.954 238.999 238.128 263.582 239.643 
241.957 266.698 238.76 246.866 267.771 238.137 248.181 267.469 238.293 
239.502 260.033 240.72 237.158 261.425 240.562 247.838 262.984 237.852 
237.55 263.091 240.141 247.817 267.766 239.652 236.883 260.61 241.344 
237.775 264.445 241.332 239.98 265.881 240.051 248.601 267.384 239.563 
239.381 259.296 241.956 236.362 260.095 242.444 239.81 259.318 242.035 
241.346 259.543 241.826 235.653 260.726 242.406 235.516 260.887 242.517 
[...]
POINT_DATA 628
SCALARS scalars float
LOOKUP_TABLE default
1 1 1 1 1 1 1 1 1 
1 1 1 1 1 1 1 1 1 
1 1 1 1 1 1 1 1 1 
1 1 1 1 1 1 1 1 1 
1 1 1 1 1 1 1 1 1 
1 1 1 1 1 1 1 1 1 
1 1 1 1 1 1 1 1 1 
1 1 1 1 1 1 1 1 1 
1 1 1 1 1 1 1 1 1 
1 1 1 1 1 1 1 1 1 
1 1 1 1 1 1 1 1 1 
1 1 1 1 1 1 1 1 1 
1 1 1 1 1 1 1 1 1 
1 1 1 1 1 1 1 1 1 
1 1 1 1 1 1 1 1 1 
1 1 1 1 1 1 1 1 1 
1 1 1 1 1 1 1 1 1 
1 1 1 1 1 1 1 1 1 
1 1 1 1 1 1 1 1 1 
1 1 1 1 1 1 1 1 1 
1 1 1 1 1 1 1 1 1 
1 1 1 1 1 1 1 1 1 
1 1 1 1 1 1 1 1 1 
1 1 1 1 1 1 1 1 1 
1 1 1 1 1 1 1 1 1 
1 1 1 1 1 1 1 1 1 
1 1 1 1 1 1 1 1 1 
1 1 1 1 1 1 1 1 1 
1 1 1 1 1 1 1 1 1 
1 1 1 1 1 1 1 1 1 
1 1 1 1 1 1 1 1 1 
1 1 1 1 1 1 1 1 1 
1 1 1 1 1 1 1 1 1 
1 1 1 1 1 1 1 1 1 
1 1 1 1 1 1 1 1 1 
1 1 1 1 1 1 1 1 1 
1 1 1 1 1 1 1 1 1 
1 1 1 1 1 1 1 1 1 
1 1 1 1 1 1 1 1 1 
1 1 1 1 1 1 1 1 1 
1 1 1 1 1 1 1 1 1 
1 1 1 1 1 1 1 1 1 
1 1 1 1 1 1 1 1 1 
1 1 1 1 1 1 1 1 1 
1 1 1 1 1 1 1 1 1 
1 1 1 1 1 1 1 1 1 
1 1 1 1 1 1 1 1 1 
1 1 1 1 1 1 1 1 1 
1 1 1 1 1 1 1 1 1 
1 1 1 1 1 1 1 1 1 
1 1 1 1 1 1 1 1 1 
1 1 1 1 1 1 1 1 1 
1 1 1 1 1 1 1 1 1 
1 1 1 1 1 1 1 1 1 
1 1 1 1 1 1 1 1 1 
1 1 1 1 1 1 1 1 1 
1 1 1 1 1 1 1 1 1 
1 1 1 1 1 1 1 1 1 
1 1 1 1 1 1 1 1 1 
1 1 1 1 1 1 1 1 1 
1 1 1 1 1 1 1 1 1 
1 1 1 1 1 1 1 1 1 
1 1 1 1 1 1 1 1 1 
1 1 1 1 1 1 1 1 1 
1 1 1 1 1 1 1 1 1 
1 1 1 1 1 1 1 1 1 
1 1 1 1 1 1 1 1 1 
1 1 1 1 1 1 1 1 1 
1 1 1 1 1 1 1 1 1 
1 1 1 1 1 1 1 
NORMALS Normals float
-0.237969 -0.423301 -0.874178 0.0576226 -0.245683 -0.967636 0.211517 -0.536393 -0.817033 
0.521493 -0.145311 -0.840791 0.417247 -0.643457 -0.641769 -0.288593 -0.103835 -0.951805 
-0.406753 -0.454184 -0.792634 -0.11297 -0.341902 -0.932921 -0.270146 -0.509921 -0.816702 
-0.0856868 0.0138494 -0.996226 -0.3258 0.248257 -0.912263 0.0232832 0.268386 -0.96303 
0.763981 0.0234948 -0.644811 0.111179 0.552015 -0.826389 0.58627 0.35397 -0.728693 
0.469073 0.433432 -0.769485 -0.110869 -0.503642 -0.856769 -0.210651 -0.867994 -0.449681 
-0.405049 -0.738302 -0.539301 0.308734 -0.726914 -0.613416 0.094072 -0.87982 -0.465905 
0.268654 -0.948037 -0.170445 -0.424461 -0.598086 -0.679798 -0.289212 -0.844484 -0.45078 
-0.401403 -0.637237 -0.657879 0.498024 -0.78158 -0.375638 0.75752 -0.640726 -0.125032 
-0.445468 -0.276035 -0.851683 -0.461603 -0.299765 -0.834903 -0.479721 -0.134731 -0.867015 
0.831728 -0.424703 -0.35757 0.828675 0.027725 -0.559042 0.933754 -0.276564 -0.227193 
-0.386371 0.299366 -0.872409 0.910773 0.102878 -0.399887 0.465808 0.558577 -0.686305 
-0.1037 -0.988318 -0.111689 0.539074 -0.806199 -0.243806 0.55868 -0.82204 -0.110126 
-0.417703 -0.709643 -0.56739 -0.156053 -0.985104 -0.0722373 -0.476409 -0.466333 -0.745364 
-0.546963 -0.183881 -0.816712 -0.488089 0.0188797 -0.87259 -0.495222 0.18483 -0.848877 
0.941678 0.0379568 -0.334368 -0.433599 0.249817 -0.865785 0.929434 0.127914 -0.346107 
0.790712 0.331437 -0.514707 0.251046 -0.959046 -0.131171 -0.326183 -0.836252 -0.44078 
-0.198991 -0.923227 -0.328716 0.918731 -0.36265 -0.156261 -0.665988 0.233823 -0.708369 
-0.56737 0.477744 -0.67071 -0.311385 0.64074 -0.701778 -0.124833 0.771899 -0.623368 
0.297324 0.722241 -0.624473 0.574077 0.58618 -0.571689 0.832026 0.373639 -0.410033 
0.787527 0.477135 -0.390055 0.319487 -0.92743 0.194429 0.518158 -0.849125 0.102462 
0.587183 -0.796712 0.14306 -0.555459 -0.530232 -0.640561 -0.628987 -0.685525 -0.366648 
-0.700315 -0.34831 -0.623088 0.977512 -0.173331 -0.12011 -0.657809 0.170518 -0.733628 
-0.592581 0.1504 -0.791345 -0.591953 0.211344 -0.77777 0.977409 0.0985606 -0.186969 
-0.423137 0.641557 -0.639812 0.625857 0.619264 -0.474147 0.107806 -0.993244 0.042952 
-0.782601 0.0146512 -0.622352 -0.766107 -0.325969 -0.553917 -0.647288 0.39499 -0.651921 
-0.398388 0.761905 -0.510674 -0.301445 -0.929814 -0.211133 0.871339 -0.488855 0.042304 
-0.697523 -0.572874 -0.430438 -0.618738 0.553844 -0.557153 0.898327 0.32032 -0.300673 
0.188453 0.806408 -0.560528 0.788024 0.514084 -0.338727 0.727869 0.568442 -0.38351 
0.810358 -0.577604 0.0984579 -0.863683 -0.0630855 -0.500072 -0.65395 0.54723 -0.522387 
0.989503 -0.0738632 -0.124207 0.971458 0.175897 -0.159152 0.556782 0.671132 -0.489465 
0.37548 -0.918532 0.123748 -0.684892 0.547089 -0.481265 0.610803 0.669273 -0.423077 
0.762004 0.486916 -0.426922 0.659869 -0.733708 0.162005 0.864756 -0.470792 0.174789 
-0.851973 0.256532 -0.456436 -0.267471 0.943651 -0.194891 0.09087 0.902319 -0.421382 
-0.248874 -0.968446 0.0131819 -0.0972937 -0.99525 0.00326455 0.126533 -0.991938 0.00689975 
0.261979 -0.961469 0.0833314 0.967866 -0.24411 0.0603755 0.576406 0.720724 -0.385114 
0.743093 0.60047 -0.295379 0.546504 -0.805895 0.227743 -0.782146 -0.544597 -0.302757 
-0.871402 -0.404743 -0.277204 -0.897887 -0.147206 -0.414884 -0.952113 -0.185091 -0.243356 
-0.932642 0.183731 -0.310517 -0.865171 0.338439 -0.370052 -0.804811 0.464833 -0.369066 
-0.425531 0.822596 -0.377172 0.908312 0.352324 -0.225469 -0.445867 -0.889046 -0.103924 
-0.570145 0.787518 -0.233989 0.901918 0.418669 -0.106112 -0.071202 0.983706 -0.165085 
0.529972 0.782187 -0.327588 -0.737237 -0.642281 -0.209657 -0.90218 0.296072 -0.313708 
0.0242216 0.997271 -0.0697388 0.6755 0.648313 -0.351269 0.711789 0.679487 -0.177917 
0.415338 0.883347 -0.217239 -0.625616 -0.772599 -0.108141 -0.890491 -0.379731 -0.250659 
-0.901789 -0.29421 -0.316572 0.999155 -0.0371483 0.0176035 0.0472862 0.998881 0.000399405 
-0.530715 -0.836086 -0.138933 -0.853437 0.435335 -0.286581 0.963607 0.259402 -0.0645935 
-0.67477 -0.692671 -0.25474 -0.953274 0.183698 -0.239842 -0.931416 0.329498 -0.154579 
-0.724548 0.66166 -0.192966 -0.461311 -0.865841 -0.193678 -0.331396 -0.942535 -0.042486 
-0.671974 -0.725801 -0.147186 -0.987025 0.040741 -0.155314 -0.983322 0.100122 -0.151832 
-0.697185 0.707469 -0.115848 0.934195 0.32585 -0.145263 0.50061 0.861706 -0.0827739 
-0.883474 -0.46693 -0.0380695 -0.989756 0.123896 -0.0709476 0.933547 -0.352416 0.0655205 
0.971407 0.179845 -0.154998 0.612367 0.78989 0.032858 -0.508274 -0.861136 0.0101341 
-0.951498 -0.295806 0.0845619 -0.977119 0.211651 0.0210124 0.997689 0.00787679 -0.0674837 
0.784051 0.609832 0.115628 -0.817936 -0.565296 0.106871 -0.875501 -0.48319 0.00500531 
-0.978365 -0.17216 0.114731 -0.989758 -0.0576569 0.13059 -0.796132 0.605066 -0.00834063 
0.813232 0.573055 0.101304 0.584534 0.810995 -0.0246421 0.980749 -0.184129 0.0650195 
0.976632 0.214642 -0.0108646 0.134576 0.990048 -0.0411523 -0.24197 -0.958311 0.151953 
-0.515329 -0.835143 0.192281 -0.98825 0.146626 0.0431524 0.847277 -0.492614 0.198627 
-0.693357 0.720573 0.00543588 0.932556 -0.348226 0.0952824 -0.357907 0.929241 -0.0917305 
0.630736 0.768608 0.106834 0.69195 0.721165 -0.0335615 -0.664429 -0.721936 0.193241 
-0.932859 -0.299749 0.19981 -0.981834 -0.0581437 0.180616 0.686043 -0.698596 0.203248 
-0.944764 0.21341 0.248751 -0.701956 0.70556 0.0971718 0.959557 0.257353 0.114104 
0.319699 0.947463 -0.0102877 0.854837 0.518807 0.00966912 0.826313 0.561481 -0.0441123 
-0.577255 -0.787114 0.217319 0.135196 -0.986025 0.0973493 -0.863051 -0.407477 0.298506 
0.600505 -0.793713 0.0970234 0.960177 0.272231 0.0628578 -0.668215 -0.678559 0.305033 
-0.956434 -0.0504931 0.287548 0.452637 -0.882256 0.129402 -0.89539 -0.19166 0.401925 
-0.905064 0.283243 0.317228 0.860528 -0.490545 0.137321 -0.786074 0.5643 0.252295 
-0.616632 0.781845 0.0921108 0.977688 -0.203332 0.052744 -0.437431 0.899101 0.0165045 
-0.00286058 0.997968 0.0636532 -0.861817 -0.251138 0.440682 -0.635196 -0.639118 0.433652 
-0.882839 0.246185 0.399986 0.927468 -0.345712 0.142427 0.992606 0.0266874 0.118408 
0.8256 0.553167 0.111312 0.145522 0.979226 0.141209 -0.37489 -0.828936 0.415118 
-0.137589 -0.904308 0.4041 0.715722 -0.685352 0.134293 0.934634 -0.279973 0.219257 
-0.480361 0.87355 0.0785066 -0.343927 0.936225 0.0720854 0.983368 0.104451 0.148588 
0.372178 0.918493 0.133621 -0.657449 -0.434175 0.615835 -0.802294 -0.0524283 0.594622 
-0.821442 0.292332 0.489669 -0.774905 0.325152 0.542032 0.938279 -0.300644 0.171012 
-0.761567 0.575591 0.297844 -0.649722 0.716017 0.255306 -0.587848 0.796469 0.141675 
0.131274 0.991317 -0.00755947 0.297414 0.954506 -0.0215205 0.540592 0.839604 0.0531618 
-0.538103 -0.552319 0.636702 0.975645 -0.101384 0.194518 0.8291 0.55892 0.0142233 
0.283169 0.953424 0.103913 -0.509806 -0.556438 0.656106 0.285079 -0.913978 0.288747 
-0.66957 -0.259031 0.696117 -0.170352 0.985306 0.0123249 0.947882 0.296365 0.116989 
0.113396 0.993544 0.00341224 0.692859 0.719335 0.0500429 -0.651452 -0.33593 0.680266 
0.832241 -0.5086 0.220684 -0.639747 0.712397 0.288471 -0.484649 0.855701 0.181358 
0.0304475 0.997113 0.0695667 0.838964 0.544187 -0.000818974 0.358121 0.930132 0.0812704 
-0.797479 0.304937 0.520615 -0.729319 0.558553 0.395111 0.913515 0.404227 0.0457133 
0.502902 0.862413 0.0577318 0.290956 -0.906475 0.306019 -0.743972 -0.221597 0.630397 
-0.775249 -0.198411 0.599686 -0.634489 -0.500223 0.589237 0.468867 -0.86124 0.196032 
0.878598 -0.437811 0.190755 -0.795573 0.177582 0.579249 0.986112 0.0126382 0.165603 
-0.437591 0.869403 0.229461 -0.236679 0.960364 0.147254 0.619825 0.783264 -0.0481038 
0.597418 0.801533 -0.0252552 0.38572 -0.877261 0.285716 0.721661 -0.646085 0.248555 
-0.783645 -0.194424 0.59 -0.769654 -0.188091 0.610126 0.980445 0.117911 0.15756 
0.932148 0.362037 0.00543908 0.88239 0.469632 -0.0288813 0.547777 0.826121 0.132156 
-0.586815 -0.597211 0.546798 -0.297426 -0.769733 0.564844 0.743389 -0.604426 0.286429 
0.872665 -0.384481 0.30105 0.91379 -0.306694 0.266319 -0.135915 0.979127 0.151119 
0.82989 0.494192 0.258954 0.410105 0.884894 0.220855 0.701051 0.606444 0.37517 
-0.801333 -0.234116 0.550505 -0.539251 -0.628161 0.560912 -0.794882 -0.339786 0.502701 
-0.703555 -0.5322 0.470928 -0.842164 0.206191 0.498241 -0.728479 0.477101 0.491623 
-0.700667 0.600015 0.386067 0.0193255 -0.929713 0.367776 0.550901 -0.754433 0.356846 
-0.659565 -0.33405 0.673338 -0.858057 0.0343755 0.512403 -0.774289 0.374845 0.50987 
-0.547574 0.793323 0.266085 0.969494 0.130734 0.207342 -0.514711 0.837403 0.183926 
0.292585 0.939458 0.178363 0.818347 0.536644 0.20572 -0.340336 -0.767156 0.543731 
-0.20086 -0.86265 0.464209 -0.663376 -0.144047 0.734291 -0.58868 -0.37018 0.718625 
-0.747502 0.0914957 0.657928 0.971786 -0.0261401 0.234412 0.965365 0.101822 0.240212 
0.669454 0.690693 0.273449 0.235577 -0.920931 0.310467 -0.542325 -0.50377 0.672383 
-0.828447 0.423371 0.366652 0.974486 0.142017 0.173805 0.755653 0.635571 0.158231 
-0.0413874 -0.991909 0.120013 -0.7838 -0.111097 0.610995 -0.517394 -0.733401 0.440938 
-0.619091 -0.778391 0.104087 -0.882824 -0.158178 0.442268 -0.95232 -0.166778 0.255482 
0.769943 -0.620327 0.14961 0.508404 -0.859518 -0.0524841 -0.856952 0.508249 0.0855317 
-0.57987 0.806066 0.118359 0.893182 -0.440561 -0.0901798 0.999387 -0.00817444 0.0340357 
0.926488 0.361537 -0.104456 -0.0843304 0.996437 -0.00129741 0.444013 0.893005 -0.0734456 
-0.786316 -0.385697 -0.482644 0.0151066 -0.982182 -0.187323 0.346297 -0.910675 -0.225278 
-0.598742 -0.747711 -0.287118 0.462672 -0.870679 -0.166892 0.488094 -0.830471 -0.26848 
-0.877127 0.133503 -0.461329 -0.794023 0.540826 -0.277551 -0.879957 0.22252 -0.419716 
-0.988608 -0.0331452 -0.146816 0.770757 -0.576381 -0.271513 -0.728467 0.681932 -0.0656016 
0.198467 0.973366 -0.114759 0.700499 0.670948 -0.243166 0.544469 0.80294 -0.242571 
-0.354397 -0.81321 -0.461619 -0.747547 0.6154 -0.249914 0.949311 0.18976 -0.250597 
-0.521775 0.778576 -0.34867 0.961078 0.167042 -0.220059 0.168979 0.969154 -0.179408 
0.195281 0.97951 -0.0492576 0.731818 0.646038 -0.216974 0.598119 -0.764727 -0.239681 
-0.722891 0.550558 -0.41751 -0.567239 0.758143 -0.32165 0.484178 0.868232 -0.108377 
0.799535 0.594893 -0.0827403 0.733036 0.646309 -0.211996 0.910619 -0.350438 -0.21901 
-0.302958 0.927723 -0.21805 -0.0215629 0.99854 -0.0495334 0.905787 0.373334 -0.200427 
-0.587417 -0.536548 -0.605853 -0.538855 -0.540745 -0.645933 -0.747925 0.0073402 -0.663743 
-0.804333 0.21536 -0.553777 -0.461424 0.867546 -0.185613 0.248755 0.963825 0.0957243 
0.456366 0.889762 0.00728775 0.68631 0.715263 -0.131821 -0.214786 -0.873911 -0.436058 
-0.779851 0.365278 -0.508335 -0.386204 -0.642346 -0.661995 0.0525875 -0.925665 -0.374671 
0.173457 -0.942295 -0.286345 -0.362413 -0.729576 -0.579979 -0.863271 0.329792 -0.382101 
-0.731197 0.559187 -0.390718 0.942116 0.328672 -0.0662718 0.40214 0.914458 -0.0452832 
0.637728 0.770087 -0.0164003 0.782649 0.622459 0.00226363 -0.515491 -0.55203 -0.655387 
-0.764488 -0.115941 -0.634126 -0.543532 0.753428 -0.370026 0.630813 0.77591 -0.00631328 
-0.276792 -0.79159 -0.544767 -0.219364 -0.808492 -0.546096 -0.723777 0.48805 -0.487805 
-0.299553 0.941234 -0.156032 0.119095 0.991033 -0.0605801 0.553543 0.82749 -0.094076 
-0.19964 -0.825595 -0.527766 -0.714865 -0.242805 -0.655754 0.544552 -0.827637 -0.135944 
-0.765192 0.260377 -0.588799 0.245603 0.969308 0.010979 -0.429318 -0.699507 -0.571294 
-0.667392 0.644276 -0.373493 -0.589842 0.779466 -0.210996 0.607081 0.793938 -0.0333914 
-0.0491127 -0.91039 -0.410826 -0.543634 -0.653133 -0.527143 0.144589 -0.879514 -0.453374 
0.0926858 -0.927435 -0.362317 -0.669723 -0.494715 -0.553831 -0.846205 -0.142907 -0.513337 
-0.811537 0.0432684 -0.582697 -0.806352 0.42589 -0.410382 -0.746305 0.446667 -0.493475 
-0.532994 0.821863 -0.201144 0.836466 0.537808 -0.105299 -0.246617 -0.92222 -0.29781 
0.579569 -0.720815 -0.380164 0.0662281 -0.959616 -0.273406 -0.368088 -0.836804 -0.405304 
-0.826256 -0.331439 -0.455466 -0.806111 -0.431303 -0.40517 -0.88307 -0.0686828 -0.464188 
0.964966 0.199347 -0.170591 -0.274011 0.960655 -0.0453744 0.152566 0.973524 -0.17022 
0.0395407 -0.978481 -0.202515 -0.735916 -0.568558 -0.367654 -0.536402 -0.760836 -0.365241 
-0.637868 0.743386 -0.201248 0.906847 0.420057 -0.0343509 0.112231 0.977859 -0.176623 
0.517879 0.851263 -0.0845774 0.207832 -0.965061 -0.159571 -0.887879 -0.298574 -0.350034 
-0.896267 0.265909 -0.354961 0.985299 0.165105 -0.0439 0.313206 0.947359 -0.066436 
0.759293 0.648159 -0.0579938 -0.380751 -0.909701 -0.165749 0.924172 -0.347359 -0.158895 
0.996448 0.0832911 -0.0124274 0.988237 0.132384 0.076567 -0.148098 0.985716 -0.0801883 
0.930803 0.354262 0.0900261 0.89425 0.447405 -0.0120552 0.064252 0.997889 -0.00947321 
0.483531 0.873991 -0.048341 -0.706142 -0.663694 -0.246728 -0.656642 -0.739939 -0.145986 
-0.984425 -0.0247447 -0.174053 -0.880431 0.467266 -0.0806515 -0.858178 0.472919 -0.199695 
0.948261 -0.308986 -0.0729992 0.998228 0.0303223 0.0511911 0.958745 0.283899 -0.0144358 
0.807768 0.588261 -0.0382003 -0.613563 -0.784902 -0.086427 -0.860894 -0.459992 -0.217414 
0.400406 -0.88547 -0.235835 -0.665263 0.746246 -0.0233031 -0.416054 0.90628 0.0745316 
0.935701 0.352777 -0.00334571 -0.0133299 0.994106 0.10759 0.221252 0.973519 0.0575228 
-0.371954 -0.927254 -0.0430173 -0.794026 -0.606495 -0.0410741 0.504975 -0.845194 -0.175065 
-0.0166313 0.999469 0.0280357 0.62823 0.777422 -0.0306738 0.638123 -0.753118 -0.160036 
-0.884722 -0.459782 -0.0766062 0.976697 0.213253 -0.024214 0.166386 0.985281 -0.0392045 
-0.655412 -0.755215 0.00920295 -0.908912 -0.415252 -0.038017 -0.990421 0.136716 0.0193369 
-0.886305 0.451284 0.103955 0.911026 -0.3971 -0.111098 -0.707455 0.701192 0.0885336 
-0.159005 0.987214 -0.0112042 -0.503616 -0.859575 0.0866137 -0.698676 -0.715218 0.0177639 
-0.96669 -0.224297 0.123293 -0.988223 -0.0738494 0.134023 -0.928033 0.330529 0.171773 
0.96473 -0.260662 -0.0367505 0.988249 -0.135081 -0.0715328 0.789521 0.613231 0.0245725 
-0.842229 -0.516525 0.15444 -0.77264 0.606265 0.188337 -0.506821 0.847003 0.160371 
0.99947 0.0283079 0.0160785 0.222032 0.975014 -0.00698314 -0.557272 -0.827153 0.0725685 
-0.970972 0.0839711 0.223967 -0.962504 0.096169 0.253649 0.729841 -0.671429 -0.128513 
0.566477 0.822833 -0.0452719 -0.43756 -0.89712 0.0609661 -0.080096 -0.996352 -0.0294602 
0.915999 -0.39512 0.0694683 0.981102 -0.189546 -0.0388617 -0.332134 0.920349 0.206505 
0.929586 0.361958 0.0696825 -0.0916791 0.987627 0.127231 0.21868 0.97409 0.0576855 
0.558662 0.826079 0.0740979 0.699085 0.714996 -0.00774137 0.299824 0.938836 0.169388 
0.421808 -0.890976 -0.168046 0.754738 -0.648665 -0.0979999 0.756929 -0.628079 -0.180485 
0.832917 -0.5246 0.176194 -0.855725 0.365914 0.365843 0.974003 -0.213158 0.076692 
-0.678968 0.671072 0.297766 0.151323 0.955258 0.254134 -0.915536 0.201273 0.348258 
0.988129 -0.116566 0.100065 0.137208 0.953517 0.268291 -0.843904 -0.480614 0.238405 
-0.932009 0.131812 0.337617 0.658598 0.740899 0.131594 -0.936369 0.0219452 0.35033 
-0.796547 0.541609 0.268651 0.882423 0.447142 0.146265 0.597946 0.771227 0.218334 
-0.803978 -0.492871 0.332711 -0.942194 0.029628 0.333754 -0.628449 0.481984 0.610527 
-0.430635 0.764163 0.480217 -0.676447 0.553455 0.485908 -0.602895 0.723034 0.337253 
-0.436573 0.847143 0.302907 0.499349 0.827192 0.257691 0.492144 0.854954 0.163853 
-0.844342 -0.396525 0.360353 -0.914655 -0.0525099 0.400811 -0.472805 0.749277 0.463723 
-0.00399517 0.90098 0.433842 0.822462 0.552534 0.13514 0.747936 0.537274 0.389779 
0.388628 0.837741 0.383612 0.47606 -0.877375 -0.0598418 0.74704 -0.655746 -0.109216 
0.917502 -0.396113 -0.0358359 -0.620265 0.689571 0.373849 0.168084 0.783152 0.598683 
0.474706 0.56896 0.67152 0.496346 0.66588 0.556995 -0.262549 -0.948137 0.179179 
0.62006 -0.783989 0.0297862 0.970837 -0.219919 0.0954518 -0.852902 -0.159896 0.496982 
-0.730175 0.433123 0.52844 0.443671 -0.891776 -0.0888372 0.76876 -0.634633 0.0790525 
0.775459 -0.63011 0.0403101 -0.781774 -0.419568 0.461293 -0.452728 0.594633 0.664416 
0.950877 0.236501 0.199752 -0.0509724 0.837017 0.544798 0.633743 0.63376 0.443529 
0.692602 -0.716791 0.080707 -0.631158 -0.663963 0.40099 0.819081 -0.569347 0.0703626 
0.933685 0.167103 0.316715 0.757505 0.502553 0.416685 0.261392 0.733063 0.627928 
-0.403757 -0.862152 0.306062 -0.701159 -0.405808 0.586256 -0.626222 0.0260694 0.779209 
0.969366 -0.147573 0.196345 -0.563948 0.225969 0.794292 0.738728 0.446408 0.504977 
-0.431873 -0.746613 0.506018 -0.502188 -0.556708 0.661728 -0.341143 -0.587237 0.734012 
-0.657741 -0.13797 0.740501 -0.691671 0.0575396 0.719917 0.827073 0.30593 0.471548 
0.467887 0.612152 0.637457 0.518598 0.581131 0.62717 0.558138 0.631395 0.538351 
-0.268806 -0.876104 0.400232 0.275019 -0.96134 -0.0137713 -0.574431 -0.339527 0.744816 
-0.403307 -0.413479 0.81632 -0.491074 -0.146769 0.858665 -0.591405 0.108883 0.79899 
0.927139 -0.209964 0.310368 -0.554066 0.437209 0.70842 -0.0468995 0.6062 0.793928 
0.169692 0.631707 0.756406 0.572922 0.404765 0.71269 0.809034 0.266874 0.523681 
0.503328 0.520258 0.689923 0.0643174 -0.964987 0.254288 0.481658 -0.876359 -0.00114405 
0.207549 -0.841706 0.498452 0.477395 -0.813718 0.331599 -0.333941 -0.672816 0.660153 
-0.126936 -0.898488 0.420246 -0.349057 0.374603 0.858972 -0.345854 -0.11411 0.931324 
0.882232 0.0842424 0.463216 -0.285373 0.579393 0.763456 0.344986 0.435335 0.831546 
0.550093 0.321212 0.770857 -0.0413993 -0.759635 0.64903 -0.310963 0.277293 0.909072 
-0.373226 -0.351658 0.85851 -0.2006 -0.527164 0.825747 0.786152 -0.549268 0.28332 
0.673166 -0.433274 0.599268 -0.314504 0.189018 0.930247 -0.19779 0.144356 0.969557 
0.0567209 0.324869 0.944057 0.779493 0.0914178 0.619705 0.0729403 0.44801 0.891048 
-0.184269 -0.529569 0.82801 0.426384 -0.799304 0.42345 0.0316362 -0.686438 0.7265 
0.173753 -0.721843 0.66989 0.46835 -0.620239 0.629247 0.585271 -0.310389 0.749077 
-0.23482 0.0306158 0.971557 -0.180283 0.0856503 0.979879 0.244398 0.113886 0.962964 
0.561756 0.128013 0.817339 -0.0372238 -0.242194 0.969514 0.295491 -0.333204 0.895355 
-0.970695 0.0904299 -0.222652 
