# vtk DataFile Version 4.2
vtk output
ASCII
DATASET POLYDATA
POINTS 889 float
235.378 195.854 196.72 236.233 195.979 196.757 236.1 195.623 196.79 
236.105 196.297 196.778 232.403 193.989 197.301 231.985 193.525 197.559 
234.021 193.509 197.332 234.366 193.808 197.195 236.631 194.055 197.408 
229.903 195.035 197.828 234.164 194.923 196.921 239.026 194.844 197.807 
238.792 198.222 197.503 239.434 197.802 197.589 233.454 192.469 198.095 
230.628 192.906 198.353 228.504 194.339 198.816 228.569 195.8 198.664 
238.143 199.596 197.993 240.669 199.011 198.325 240.955 198.832 198.413 
232.641 191.568 199.128 234.346 191.525 199.027 227.786 195.433 199.271 
230.477 198.064 198.634 232.845 199.524 198.612 239.395 200.176 198.509 
230.249 191.648 199.907 227.518 193.3 200.509 227.111 195.175 200.053 
242.242 196.383 199.473 227.357 196.605 199.889 227.933 197.31 199.692 
228.244 198.361 200.214 242.478 198.668 199.301 242.842 199.614 199.655 
233.214 190.312 201.046 242.084 194.253 200.496 226.268 196.295 201.146 
243.066 202.195 200.599 227.348 192.775 201.315 226.193 194.086 201.924 
236.593 189.965 202.122 227.912 191.589 202.759 240.398 191.551 201.918 
238.698 190.275 203.043 225.123 196.612 202.985 233.35 189.154 204.765 
247.259 199.226 203.915 227.154 191.601 205.091 223.887 199.197 206.054 
225.324 200.386 205.13 246.402 208.462 205.573 250.019 208.159 205.99 
237.61 189.251 205.893 230.176 189.687 206.281 226.78 202.027 205.533 
252.448 205.984 206.498 221.929 198.084 209.055 256.361 206.749 208.745 
256.811 206.355 208.972 255.129 208.325 208.387 255.023 208.942 208.643 
242.99 209.821 209.104 255.31 209.706 209.493 222.511 195.728 209.62 
222.112 197.126 208.951 221.598 198.932 209.765 252.939 200.508 208.963 
222.162 200.007 209.365 258.093 208.709 210.123 256.921 209.453 209.996 
220.951 198.272 210.934 255.944 202.717 209.734 257.649 205.437 209.564 
221.578 201.385 212.328 263.884 205.235 211.633 265.161 205.726 211.875 
268.847 205.407 212.633 269.251 205.783 212.916 265.527 206.753 212.185 
268.618 206.324 212.909 263.289 207.419 211.83 266.294 207.078 212.548 
266.004 207.642 212.867 257.844 210.131 211.652 220.776 196.697 212.411 
220.658 197.178 212.303 220.388 198.623 212.876 255.366 198.79 212.058 
255.487 199.453 211.596 271.625 202.153 213.624 223.571 203.298 211.96 
269.326 206.439 213.439 267.357 207.263 213.009 265.098 208.421 213.282 
274.815 195.984 215.234 274.55 195.946 215.158 274.939 195.719 215.416 
274.755 197.285 215.091 273.513 198.256 214.462 274.496 198.636 215.051 
273.581 199.65 214.557 271.485 200.479 213.669 272.968 200.38 214.283 
259.856 201.915 211.874 273.275 200.992 214.598 272.764 202.497 214.62 
270.728 205.123 213.833 269.353 206.68 213.726 265.045 208.695 213.646 
266.583 208.164 213.86 254.528 211.294 213.175 273.617 196.424 214.829 
272.216 197.257 214.47 272.879 197.331 214.47 255.005 197.385 213.092 
271.504 198.598 214.002 274.787 198.965 215.419 264.775 200.159 213.428 
272.322 204.098 215.121 271.055 205.534 214.699 265.72 208.727 214.336 
250.761 211.644 214.144 255.38 211.378 214.554 273.85 194.215 216.547 
274.541 194.726 216.142 275.373 194.611 216.631 275.687 194.758 216.752 
220.257 196.902 214.706 220.202 196.779 214.963 220.508 196.66 214.329 
220.481 196.543 215.082 220.145 197.008 214.927 220.181 197.433 214.672 
267.896 197.381 214.803 274.936 199.506 215.867 274.113 200.823 215.404 
274.149 201.595 216.168 271.78 204.985 215.361 269.7 206.805 214.526 
270.156 206.499 214.823 251.955 193.664 215.641 275.918 194.426 217.393 
220.113 196.826 215.02 220.197 196.985 215.284 220.436 196.67 215.867 
265.348 195.85 216.387 220.105 196.891 215.057 275.396 199.575 216.964 
270.749 206.13 215.95 265.822 208.828 215.424 274.963 193.382 217.762 
274.817 193.418 217.695 274.501 193.353 217.886 275.021 193.79 217.299 
276.458 195.135 218.038 220.097 196.837 215.07 259.512 195.812 216.388 
276.49 196.555 217.848 234.241 199.18 219.669 234.063 199.011 219.828 
234.391 198.938 219.683 235.305 199.307 219.352 220.09 199.628 217.585 
268.916 207.483 216.207 254.175 211.383 216.797 275.692 193.579 218.542 
268.29 194.193 217.683 264.402 194.796 217.639 264.024 194.483 218.068 
234.964 197.798 220.281 236.748 197.398 220.245 234.809 198.256 219.98 
236.206 198.244 219.748 240.218 198.095 219.788 234.035 199.753 219.847 
235.103 199.861 219.434 243.807 199.184 219.961 234.528 200.939 219.904 
274.589 201.628 218.354 271.575 205.051 217.874 270.548 206.051 217.426 
261.285 209.891 217.72 261.966 209.705 217.282 259.817 210.352 217.401 
252.135 211.454 217.758 263.413 193.698 219.299 267.773 193.41 219.077 
240.028 196.512 220.926 235.871 197.039 220.883 236.801 196.997 220.687 
238.952 197.396 220.103 240.621 196.713 220.783 241.254 197.768 220.076 
232.384 199.029 221.09 232.565 199.339 220.865 232.167 199.304 221.231 
232.347 199.606 221.028 232.363 199.932 221.076 240.618 200.37 219.492 
233.324 200.658 220.595 220.571 201.325 219.472 238.042 201.457 219.701 
234.475 202.814 221.289 262.82 207.731 219.507 261.04 209.868 218.282 
260.925 210.115 217.908 260.899 210.144 218.12 244.353 211.188 219.035 
259.667 210.165 218.075 274.827 192.935 219.615 276.094 193.747 219.453 
276.575 194.538 219.914 239.494 196.295 221.226 276.807 195.556 220.394 
233.601 197.687 221.121 220.416 200.998 219.858 232.472 201.297 221.644 
274.968 201.034 219.844 233.459 202.525 221.821 270.691 205.397 218.609 
269.707 206.241 218.268 258.437 208.979 219.568 240.245 210.351 220.068 
260.749 210.015 218.46 260.564 210.08 218.473 260.911 210.086 218.278 
260.409 210.148 218.321 248.603 211.493 219.772 254.68 210.666 218.637 
275.542 193.042 220.256 242.164 195.869 222.192 230.686 199.331 223.064 
230.993 199.041 222.846 231.308 199.383 222.271 248.875 199.054 222.01 
220.151 199.945 221.025 230.773 199.766 222.781 230.781 199.962 222.807 
249.992 200.203 221.946 220.596 201.286 220.967 274.428 201.434 220.868 
269.047 204.113 220.979 272.906 202.688 220.667 240.561 205.338 221.572 
270.295 205.148 219.322 269.356 205.931 218.997 260.782 210.159 218.46 
260.716 210.14 218.476 260.82 210.16 218.388 260.767 210.211 218.353 
260.642 210.17 218.44 260.683 210.206 218.388 269.394 192.077 222.638 
244.727 196.789 221.874 220.397 197.753 221.83 231.332 198.159 223.342 
276.737 196.778 221.885 220.153 199.204 221.835 230.511 199.437 223.351 
230.476 199.771 223.433 254.25 202.529 222.16 265.475 203.212 222.297 
221.436 202.279 222.721 257.126 203.119 222.267 247.135 205.221 221.213 
236.715 205.222 222.867 250.933 205.951 221.291 250.493 207.495 221.255 
251.491 207.468 221.131 248.622 209.464 221.741 251.451 209.613 220.623 
260.74 210.192 218.456 260.778 210.202 218.426 246.153 211.069 221.341 
247.581 211.291 221.132 248.052 211.314 220.952 249.244 211.19 220.591 
251.037 191.188 222.949 276.09 193.711 221.607 276.687 195.126 222.798 
231.477 197.649 224.277 250.571 198.094 223.626 251.483 197.862 224.299 
252.76 198.686 223.915 220.265 199.871 222.601 275.586 199.52 223.089 
273.628 200.331 224.164 274.584 200.585 222.692 259.876 201.888 223.231 
222.378 203.302 222.938 245.959 209.654 222.558 247.458 210.25 222.266 
245.94 210.775 221.983 249.838 210.529 221.013 249.807 210.803 220.825 
252.807 191.427 223.728 254.565 191.692 223.628 258.107 191.964 223.93 
248.876 196.419 225.087 246.227 195.715 224.777 276.666 196.189 223.513 
230.002 198.987 225.119 220.585 200.263 224.047 262.675 200.99 224.281 
244.029 208.973 223.059 245.792 210.31 222.476 246.861 210.35 222.367 
243.987 210.527 222.55 244.883 210.52 222.438 246.696 210.738 222.178 
247.351 210.833 222.305 247.699 210.713 222.285 248.201 210.765 221.992 
248.57 210.902 221.598 248.16 211.029 221.904 247.375 211.034 222.06 
247.85 211.144 221.851 236.219 195.317 225.38 244.602 195.362 224.839 
276.458 194.641 223.759 255.618 198.262 225.798 257.513 199.107 225.382 
229.956 199.525 225.326 258.234 199.061 225.777 230.167 200.324 225.159 
220.957 200.863 225.438 274.322 199.463 225.879 241.046 208.817 224.141 
235.264 208.48 224.931 238.617 209.426 224.915 239.765 209.512 224.447 
240.905 209.68 223.806 244.543 209.951 223.127 247.865 211.022 222.415 
247.721 210.991 222.417 247.984 210.977 222.226 247.95 211.108 222.196 
247.66 211.058 222.352 233.461 188.768 225.762 275.38 193.286 224.072 
276.074 194.029 224.171 272.205 197.892 227.359 272.245 197.799 227.595 
232.922 196.372 226.587 271.963 198.069 226.965 272.383 197.935 227.487 
276.398 197.086 226.045 229.894 199.015 225.867 257.664 198.586 226.398 
273.663 199.012 226.821 274.252 199.113 226.91 275.079 199.176 225.913 
235.876 207.154 226.631 236.55 207.668 226.296 235.787 207.437 226.754 
233.767 208.011 226.188 235.61 207.84 226.471 236.365 208.279 226.045 
237.337 208.447 226.702 237.649 208.195 226.504 239.594 208.721 225.209 
239.139 208.78 226.007 237.128 208.762 226.036 239.505 208.998 225.562 
240.116 209.178 224.753 239.461 209.226 225.517 241.203 209.278 224.126 
239.073 209.363 225.521 242.443 209.813 223.812 244.116 210.249 223.313 
243.03 210.11 223.603 247.903 211.125 222.488 247.85 211.097 222.491 
247.933 211.108 222.393 247.805 211.105 222.471 247.836 211.141 222.434 
228.241 190.627 226.909 273.755 192.39 226.033 249.456 196.086 226.967 
271.884 197.685 227.843 272.151 197.722 227.784 257.413 198.299 227.001 
264.18 199.091 227.364 267.285 199.111 226.549 275.75 198.255 227.412 
235.504 207.07 227.137 235.374 207.415 227.24 234.983 207.705 227.186 
237.949 208.587 227.254 237.93 208.751 227.611 238.682 208.601 226.47 
237.764 208.827 227.154 239.182 209.038 226.287 239.086 209.204 226.489 
243.561 210.095 223.797 243.774 210.103 223.71 243.766 210.209 223.697 
243.531 210.179 223.701 247.875 211.143 222.502 247.904 211.152 222.47 
273.487 192.303 227.276 272.429 197.796 228.266 231.666 197.044 228.294 
[...]
POINT_DATA 889
SCALARS scalars float
LOOKUP_TABLE default
1 1 1 1 1 1 1 1 1 
1 1 1 1 1 1 1 1 1 
1 1 1 1 1 1 1 1 1 
1 1 1 1 1 1 1 1 1 
1 1 1 1 1 1 1 1 1 
1 1 1 1 1 1 1 1 1 
1 1 1 1 1 1 1 1 1 
1 1 1 1 1 1 1 1 1 
1 1 1 1 1 1 1 1 1 
1 1 1 1 1 1 1 1 1 
1 1 1 1 1 1 1 1 1 
1 1 1 1 1 1 1 1 1 
1 1 1 1 1 1 1 1 1 
1 1 1 1 1 1 1 1 1 
1 1 1 1 1 1 1 1 1 
1 1 1 1 1 1 1 1 1 
1 1 1 1 1 1 1 1 1 
1 1 1 1 1 1 1 1 1 
1 1 1 1 1 1 1 1 1 
1 1 1 1 1 1 1 1 1 
1 1 1 1 1 1 1 1 1 
1 1 1 1 1 1 1 1 1 
1 1 1 1 1 1 1 1 1 
1 1 1 1 1 1 1 1 1 
1 1 1 1 1 1 1 1 1 
1 1 1 1 1 1 1 1 1 
1 1 1 1 1 1 1 1 1 
1 1 1 1 1 1 1 1 1 
1 1 1 1 1 1 1 1 1 
1 1 1 1 1 1 1 1 1 
1 1 1 1 1 1 1 1 1 
1 1 1 1 1 1 1 1 1 
1 1 1 1 1 1 1 1 1 
1 1 1 1 1 1 1 1 1 
1 1 1 1 1 1 1 1 1 
1 1 1 1 1 1 1 1 1 
1 1 1 1 1 1 1 1 1 
1 1 1 1 1 1 1 1 1 
1 1 1 1 1 1 1 1 1 
1 1 1 1 1 1 1 1 1 
1 1 1 1 1 1 1 1 1 
1 1 1 1 1 1 1 1 1 
1 1 1 1 1 1 1 1 1 
1 1 1 1 1 1 1 1 1 
1 1 1 1 1 1 1 1 1 
1 1 1 1 1 1 1 1 1 
1 1 1 1 1 1 1 1 1 
1 1 1 1 1 1 1 1 1 
1 1 1 1 1 1 1 1 1 
1 1 1 1 1 1 1 1 1 
1 1 1 1 1 1 1 1 1 
1 1 1 1 1 1 1 1 1 
1 1 1 1 1 1 1 1 1 
1 1 1 1 1 1 1 1 1 
1 1 1 1 1 1 1 1 1 
1 1 1 1 1 1 1 1 1 
1 1 1 1 1 1 1 1 1 
1 1 1 1 1 1 1 1 1 
1 1 1 1 1 1 1 1 1 
1 1 1 1 1 1 1 1 1 
1 1 1 1 1 1 1 1 1 
1 1 1 1 1 1 1 1 1 
1 1 1 1 1 1 1 1 1 
1 1 1 1 1 1 1 1 1 
1 1 1 1 1 1 1 1 1 
1 1 1 1 1 1 1 1 1 
1 1 1 1 1 1 1 1 1 
1 1 1 1 1 1 1 1 1 
1 1 1 1 1 1 1 1 1 
1 1 1 1 1 1 1 1 1 
1 1 1 1 1 1 1 1 1 
1 1 1 1 1 1 1 1 1 
1 1 1 1 1 1 1 1 1 
1 1 1 1 1 1 1 1 1 
1 1 1 1 1 1 1 1 1 
1 1 1 1 1 1 1 1 1 
1 1 1 1 1 1 1 1 1 
1 1 1 1 1 1 1 1 1 
1 1 1 1 1 1 1 1 1 
1 1 1 1 1 1 1 1 1 
1 1 1 1 1 1 1 1 1 
1 1 1 1 1 1 1 1 1 
1 1 1 1 1 1 1 1 1 
1 1 1 1 1 1 1 1 1 
1 1 1 1 1 1 1 1 1 
1 1 1 1 1 1 1 1 1 
1 1 1 1 1 1 1 1 1 
1 1 1 1 1 1 1 1 1 
1 1 1 1 1 1 1 1 1 
1 1 1 1 1 1 1 1 1 
1 1 1 1 1 1 1 1 1 
1 1 1 1 1 1 1 1 1 
1 1 1 1 1 1 1 1 1 
1 1 1 1 1 1 1 1 1 
1 1 1 1 1 1 1 1 1 
1 1 1 1 1 1 1 1 1 
1 1 1 1 1 1 1 1 1 
1 1 1 1 1 1 1 1 1 
1 1 1 1 1 1 1 
NORMALS Normals float
-0.0734447 -0.0198553 -0.997102 0.17381 0.0077412 -0.984749 0.0776832 -0.18161 -0.980297 
0.0536048 0.185713 -0.981141 -0.243963 -0.300522 -0.922046 -0.20085 -0.525965 -0.82645 
0.0109675 -0.489324 -0.872033 0.0339191 -0.346117 -0.937578 0.152359 -0.448389 -0.880758 
-0.328114 0.06449 -0.942434 -0.112307 -0.079647 -0.990476 0.367822 -0.278863 -0.887098 
0.211131 0.174287 -0.961794 0.366585 0.118984 -0.922745 -0.0836705 -0.660942 -0.745758 
-0.404495 -0.479084 -0.779014 -0.544283 -0.281464 -0.790274 -0.538738 0.156635 -0.827784 
0.0656318 0.54017 -0.838993 0.3533 0.22363 -0.908388 0.427446 0.183036 -0.885318 
-0.100483 -0.776256 -0.622359 0.188782 -0.730725 -0.656051 -0.685086 -0.0211136 -0.728156 
-0.368751 0.518888 -0.771218 -0.199655 0.623644 -0.755782 0.233864 0.630908 -0.739772 
-0.325516 -0.753728 -0.570906 -0.66194 -0.459206 -0.592423 -0.794539 -0.170627 -0.582747 
0.575232 -0.210056 -0.79056 -0.726171 0.25942 -0.636692 -0.581171 0.36083 -0.729412 
-0.591443 0.55576 -0.584231 0.506358 0.0871342 -0.85791 0.575961 0.0391234 -0.81654 
-0.138947 -0.896634 -0.420406 0.574271 -0.55553 -0.601332 -0.834882 0.0328778 -0.549446 
0.145852 0.542638 -0.827207 -0.714635 -0.567899 -0.408397 -0.83368 -0.383373 -0.397496 
0.174195 -0.903225 -0.392224 -0.477865 -0.832344 -0.280799 0.500321 -0.76623 -0.403199 
0.300868 -0.923767 -0.236925 -0.849249 0.0173323 -0.527708 -0.0262433 -0.985316 -0.16871 
0.715045 -0.39687 -0.575503 -0.683851 -0.715436 -0.143178 -0.78671 0.37516 -0.490246 
-0.599366 0.586045 -0.545263 0.0347391 0.820157 -0.571083 0.325187 0.472405 -0.819199 
0.256073 -0.958182 -0.127725 -0.408117 -0.908753 -0.0872321 -0.428929 0.818914 -0.381313 
0.483345 0.0964419 -0.870101 -0.87202 0.0314762 -0.488457 0.349283 -0.218803 -0.911113 
0.308594 -0.134341 -0.941659 0.455728 0.372331 -0.808506 0.372491 0.550899 -0.746834 
-0.262025 0.938371 -0.225394 0.332793 0.737128 -0.588125 -0.668681 -0.731778 -0.131782 
-0.88186 -0.244268 -0.403307 -0.901613 0.0952284 -0.421931 0.555727 -0.403325 -0.726978 
-0.804269 0.395302 -0.443719 0.43478 0.42984 -0.79133 0.32703 0.734638 -0.594439 
-0.93232 0.0320264 -0.360215 0.639575 -0.153913 -0.753163 0.158729 -0.359466 -0.919559 
-0.865428 0.451903 -0.216376 0.174125 -0.117823 -0.977649 0.252696 0.177244 -0.951173 
0.310526 0.224333 -0.923714 0.403352 0.405919 -0.820083 0.208145 0.382878 -0.900045 
0.374856 0.520159 -0.767409 0.339157 0.245233 -0.908203 0.329118 0.459657 -0.824862 
0.294951 0.67598 -0.675319 0.293941 0.886942 -0.356275 -0.91147 -0.377399 -0.163683 
-0.936511 -0.231507 -0.263349 -0.986067 0.0539159 -0.157368 0.340707 -0.566813 -0.750094 
0.404216 -0.584327 -0.703684 0.451533 0.171846 -0.87555 -0.493986 0.824785 -0.27515 
0.518975 0.555103 -0.650019 0.303151 0.524915 -0.795339 0.241444 0.739699 -0.628133 
0.494579 -0.19726 -0.846451 0.146546 -0.452885 -0.879443 0.404739 -0.519567 -0.752487 
0.591687 -0.0260684 -0.805746 0.29105 -0.0632898 -0.954612 0.652635 0.179646 -0.736067 
0.476375 0.0963838 -0.873943 0.281212 -0.0171593 -0.959492 0.49156 0.0565813 -0.869004 
0.292577 -0.182914 -0.938585 0.582955 0.139612 -0.80042 0.726103 0.413909 -0.549048 
0.609929 0.398884 -0.684747 0.468824 0.779941 -0.414604 0.0488138 0.888401 -0.456467 
0.386127 0.809461 -0.442356 0.0992032 0.961679 -0.255602 0.0521045 -0.473157 -0.879436 
-0.0141094 -0.317177 -0.948261 0.0966536 -0.178621 -0.979159 0.069092 -0.639711 -0.765504 
0.153212 -0.297076 -0.942482 0.789475 0.202177 -0.579529 0.122277 -0.444642 -0.887323 
0.756772 0.433496 -0.489261 0.705932 0.62179 -0.339171 0.329234 0.884371 -0.330895 
-0.0030099 0.997954 -0.0638609 0.22245 0.974878 -0.0113167 0.0543997 -0.756386 -0.651859 
0.186063 -0.588288 -0.786955 0.402642 -0.632019 -0.662142 0.665378 -0.388123 -0.637677 
-0.805585 -0.425273 -0.412523 -0.544135 -0.798202 -0.258439 -0.80779 -0.552647 -0.20508 
-0.597543 -0.801817 -0.00567415 -0.981435 0.0994458 -0.164 -0.981961 -0.0874935 -0.167623 
0.0196773 -0.549688 -0.835138 0.769398 0.384781 -0.509872 0.778821 0.257989 -0.571734 
0.841682 0.461896 -0.279684 0.765584 0.624888 -0.152959 0.630895 0.699975 -0.334673 
0.623243 0.761666 -0.177296 0.409687 -0.725751 -0.552669 0.727581 -0.517255 -0.450636 
-0.884708 -0.343569 -0.315043 -0.964674 -0.0967707 0.245029 -0.662261 -0.731327 0.163004 
-0.143592 -0.642496 -0.752715 -0.97927 0.200146 -0.0311633 0.911192 0.31827 -0.261596 
0.656399 0.754131 -0.02066 0.37959 0.924542 0.0336812 0.287781 -0.861713 -0.417891 
-0.0866296 -0.786228 -0.611834 -0.103991 -0.894596 -0.434609 0.197297 -0.733166 -0.6508 
0.924708 -0.262056 -0.27612 -0.850935 -0.5079 0.133968 0.141308 -0.787354 -0.600088 
0.936692 0.0550495 -0.345801 0.34122 0.118182 0.932525 0.552594 0.321628 0.768892 
0.263379 0.369048 0.891311 0.0686334 0.1224 0.990105 -0.997331 0.0728088 0.00552291 
0.43024 0.896289 0.107517 0.0552133 0.986295 0.155479 0.606084 -0.761144 -0.230913 
-0.0430898 -0.830119 -0.555919 -0.11254 -0.776043 -0.620558 -0.113932 -0.716819 -0.687888 
0.296833 0.601578 0.741616 0.221006 0.669782 0.708906 0.282851 0.595231 0.752128 
0.158819 0.500441 0.851079 -0.0414043 0.416649 0.908124 0.522991 -0.149575 0.839111 
0.261674 -0.260526 0.929329 -0.272241 0.169743 0.947139 0.39299 -0.439917 0.807485 
0.828546 0.54733 -0.118075 0.677028 0.644117 0.356014 0.57006 0.775109 0.272465 
0.506812 0.859037 0.0720842 0.252161 0.966946 0.0378064 0.194234 0.980522 0.0291642 
0.129303 0.984779 0.116155 0.0145951 -0.894426 -0.446977 -0.0218732 -0.883388 -0.468132 
-0.0839104 0.75149 0.654387 0.150797 0.770992 0.618734 0.190488 0.797139 0.572961 
0.0270479 0.519465 0.854064 -0.198525 0.648924 0.734497 -0.172211 0.414611 0.893555 
0.696613 0.461663 0.54918 0.567848 0.188843 0.801178 0.819345 0.138553 0.556307 
0.67148 -0.0605776 0.738542 0.698025 -0.197722 0.688235 -0.102933 -0.0741966 0.991917 
0.528856 -0.275831 0.802639 -0.87817 0.438345 -0.191497 -0.0394513 -0.437131 0.898532 
0.41443 -0.704709 0.575876 0.343841 0.677488 0.650218 0.614943 0.662831 0.4272 
0.52155 0.848706 -0.0876606 0.699614 0.711586 0.0646917 -0.140282 0.988048 0.0638924 
-0.0355044 0.869421 0.492794 0.216563 -0.95747 -0.190659 0.764472 -0.622207 -0.168643 
0.956083 -0.286047 -0.0638888 0.00191496 0.88027 0.474469 0.991247 -0.128626 0.0297502 
0.508981 0.726486 0.461689 -0.93491 0.28778 -0.207668 0.706242 -0.467735 0.531456 
0.853416 0.519621 0.0409368 0.57123 -0.656713 0.492365 0.511371 0.728192 0.45633 
0.459499 0.765705 0.450062 0.0617593 0.603718 0.794802 -0.211988 0.971947 0.101884 
0.497149 0.237379 0.834563 -0.115848 0.497204 0.859865 0.779895 0.532129 0.329548 
-0.23863 0.861274 0.448622 0.145577 0.980389 0.132837 0.191146 0.884426 0.425739 
0.548054 -0.831919 -0.0868733 -0.0716647 0.931181 0.357443 0.883613 0.177065 0.433446 
0.77377 0.469377 0.4254 0.69762 0.329128 0.636397 -0.297624 0.390562 0.871138 
-0.992318 0.0650885 -0.105203 0.812249 0.0963272 0.575302 0.831809 -0.284614 0.476537 
-0.271618 0.405495 0.87281 -0.909625 0.405204 0.09161 0.600202 0.75867 0.253334 
0.323978 0.655884 0.681802 0.489042 0.785364 0.379528 0.21052 -0.567125 0.796273 
0.524524 0.624855 0.578299 0.323878 0.762142 0.560573 0.555693 0.240701 0.795781 
-0.00606397 0.226087 0.974088 0.857096 0.369673 0.358787 0.274252 0.956361 0.100791 
-0.291129 0.687169 0.665615 -0.156124 0.967983 0.196556 0.0275854 -0.979211 -0.200961 
-0.289585 0.662958 0.690382 -0.931398 -0.349902 0.100327 0.687121 0.58996 0.424042 
0.994981 0.0956902 0.0292471 -0.991562 0.0137481 0.128905 0.89893 0.297072 0.321984 
0.925339 -0.0905953 0.368157 -0.0876823 0.302765 0.949023 0.0664766 0.644855 0.761408 
-0.816141 0.566086 0.11602 -0.139043 0.376565 0.915896 0.0500108 -0.266238 0.962609 
0.558037 -0.655766 0.508494 -0.0704406 0.0268111 0.997156 0.0784996 0.0519516 0.99556 
0.164287 0.150987 0.974788 0.282434 -0.0607362 0.957362 0.286849 0.385518 0.87698 
-0.00426682 0.707341 0.706859 0.419036 0.840971 0.342311 -0.151004 0.975165 0.162023 
-0.0526434 0.984373 0.168045 0.045765 0.991708 0.120088 0.365795 0.906453 0.211038 
0.20089 -0.972061 -0.121409 0.887811 -0.459364 -0.0278754 0.965453 0.0150651 -0.26014 
0.688222 0.694711 0.20911 -0.307711 0.59937 0.738965 -0.368157 0.757029 0.539785 
-0.277604 0.703909 0.653795 -0.962457 0.240937 0.125003 0.736741 0.642041 0.212123 
0.280546 0.845308 0.454696 0.606254 0.728006 0.320099 -0.214245 0.540216 0.813797 
-0.665325 0.744239 0.0587432 0.283237 -0.0174513 0.958891 0.283397 -0.245684 0.926998 
-0.0648919 0.865884 0.496018 0.471279 0.333172 0.816635 0.425324 0.742688 0.517218 
0.00803502 -0.992745 -0.119971 0.100524 -0.994864 0.0118651 0.0563562 -0.989421 -0.133682 
-0.209207 0.91062 0.356376 -0.224663 0.871733 0.43544 0.993911 0.0486391 -0.0988673 
0.927255 0.237257 0.289667 -0.953113 0.179307 0.24377 -0.101388 0.650324 0.752861 
0.31335 -0.346546 0.884148 0.124724 0.525915 0.841342 0.0780368 0.0453359 0.995919 
-0.0937579 0.95989 0.264237 0.210551 0.749982 0.627053 -0.156037 0.77129 0.617061 
-0.27639 0.345779 0.896686 0.284509 -0.32686 0.901231 0.580433 0.144412 0.8014 
0.351231 0.847061 0.398905 0.662537 0.636921 0.39418 -0.357871 0.866706 0.34749 
0.168727 0.983521 0.0649485 0.180472 0.96832 0.172587 -0.156116 0.9336 0.32252 
0.933144 -0.354988 0.0567929 -0.22463 0.882659 0.412861 -0.179072 0.8197 0.544081 
0.976706 -0.130412 0.170403 -0.250497 0.846182 0.470347 0.921702 -0.333075 0.198815 
-0.94999 0.286391 0.124497 -0.14185 0.934272 0.32713 0.411839 -0.199193 0.889219 
-0.197892 0.913096 0.356502 -0.146071 0.97491 0.167967 0.223513 0.89987 0.374533 
0.0804848 0.866266 0.493056 0.476748 0.232484 0.847739 0.486069 -0.574409 0.658629 
-0.25211 -0.213758 0.943795 0.83025 -0.0868186 0.550588 0.632368 0.768707 0.09592 
-0.570448 0.562381 0.598595 -0.0732823 -0.995327 0.0628737 0.689378 -0.723997 0.0242149 
0.751411 -0.659026 0.032647 -0.28018 0.840102 0.464466 -0.349345 0.895484 0.275802 
0.467941 0.878116 0.0997156 -0.143746 0.83514 0.530922 -0.593238 0.771612 0.229528 
0.973384 0.21846 0.06927 0.948031 0.317019 0.0271226 -0.218487 0.89617 0.38619 
-0.469133 0.867777 0.163942 0.00978557 0.967475 0.252779 0.485555 0.855357 0.180556 
0.719316 -0.344365 0.603322 0.279693 -0.161131 0.946472 0.641781 0.252955 0.723969 
-0.012619 0.992235 0.123738 0.207294 0.795255 0.569735 -0.330044 0.639173 0.694643 
-0.609877 -0.0963116 0.786622 0.311864 -0.771758 0.554193 0.689201 -0.372026 0.621771 
0.678175 -0.675128 0.290313 -0.485239 0.784515 0.386109 0.84898 -0.162041 0.502967 
0.593426 0.361214 0.719285 0.684035 0.605278 0.407105 0.284033 0.311219 0.9069 
0.277333 0.947193 0.160974 -0.152614 0.77033 0.619113 0.48896 0.642683 0.58981 
-0.255569 0.95219 0.16739 0.696693 -0.226879 0.680547 -0.0122578 -0.399931 0.916463 
0.954448 -0.0192206 0.297758 -0.58438 0.3585 0.727996 -0.279022 0.947347 0.157098 
-0.440431 -0.884253 0.155297 0.313363 -0.949618 -0.00545868 -0.260701 0.941821 0.212151 
-0.0268067 0.978391 0.20502 -0.449079 0.887771 0.100952 -0.184331 0.949133 0.255283 
0.00483673 0.976567 0.215158 0.118543 0.865096 0.487398 0.859068 0.49904 0.113845 
0.876064 -0.104628 0.470706 0.744019 0.474901 0.470005 0.386009 0.879645 0.277889 
-0.0764333 -0.92171 0.380273 -0.803915 -0.391688 0.447551 0.381654 -0.905169 0.187105 
-0.67613 0.686705 0.266992 0.944341 -0.0551109 0.32432 0.813073 0.549531 0.192166 
-0.011462 -0.0353263 0.99931 0.666469 -0.225985 0.710457 0.3265 0.912074 0.248028 
-0.29706 0.883062 0.363258 -0.0824318 0.530332 0.843773 0.578595 0.777673 0.245871 
0.396284 -0.916486 0.0548905 -0.395293 0.918532 -0.00647299 0.554061 0.832395 0.0116544 
-0.149521 0.98521 0.0836978 -0.163711 0.976978 0.136794 0.92645 -0.360494 0.108328 
0.967794 0.022885 0.2507 0.840081 0.525172 0.135863 0.450627 0.892314 0.0266494 
-0.198317 -0.955566 0.21809 -0.885836 -0.389997 0.25139 -0.768177 0.612948 0.184932 
0.89694 -0.405188 0.176979 0.93772 0.343012 0.0549898 0.00794189 0.998046 0.0619739 
0.843989 0.281645 0.456463 0.249407 -0.55367 0.79451 -0.0595036 0.989548 0.131354 
-0.438304 0.41368 0.797972 -0.0618781 -0.996738 -0.0518198 0.68734 -0.724317 0.054126 
-0.648281 -0.761401 0.000689118 -0.927702 -0.369018 -0.0565121 0.678805 0.733873 -0.0255778 
0.219192 0.973872 0.0593933 0.968791 0.197663 0.149579 0.86314 0.504588 0.0194943 
-0.229944 0.966388 -0.114976 -0.0477669 0.987829 -0.148027 0.0488208 0.997825 -0.0442949 
0.10726 0.994208 -0.00683552 -0.989523 0.143808 -0.0127515 0.998078 0.0524764 0.0329477 
-0.0838266 0.992433 -0.0897194 0.996336 -0.0788698 0.0330718 0.772729 -0.614442 0.15922 
0.994456 -0.0902222 -0.0540098 -0.40203 -0.907978 0.118104 0.257531 -0.961496 0.0959294 
-0.683338 0.721054 0.114588 0.654042 -0.756446 0.00428568 0.778075 -0.623957 -0.072646 
-0.323132 0.943673 0.071187 0.167337 0.431861 0.886281 0.769658 -0.637981 0.0246501 
0.23636 0.971437 -0.021078 -0.852444 -0.522329 -0.0225981 -0.161924 0.986776 0.00730303 
0.00774937 0.99734 -0.0724806 0.952645 -0.301194 0.0418311 -0.864134 -0.498341 -0.0702003 
0.221525 0.970781 -0.0922544 0.999469 0.0229857 -0.0230815 -0.95345 -0.288504 -0.0877373 
-0.208674 0.94947 -0.234438 0.0346573 0.991071 -0.128749 0.00139932 0.997653 -0.0684612 
0.224011 0.97306 -0.0545222 0.940833 0.338111 -0.0226674 0.95928 0.272791 -0.0732611 
0.904807 0.417567 -0.0834407 -0.187513 0.981947 -0.0248849 0.261465 0.944591 -0.198452 
-0.549482 -0.833387 0.0594639 0.819674 0.51111 -0.25865 -0.254641 -0.96703 0.00329594 
-0.969235 0.236903 -0.0667921 0.657608 -0.743358 0.122356 -0.372545 0.924427 0.0815194 
-0.460801 0.875074 0.148014 0.464675 -0.884014 -0.0509599 -0.214887 -0.974118 0.0701221 
0.544319 -0.83288 -0.100143 -0.386934 0.917413 0.0929319 0.861503 -0.507751 -0.00100903 
-0.827362 -0.560523 0.0358556 -0.842215 -0.525102 -0.122239 -0.2007 0.954047 -0.222516 
-0.915406 -0.335985 -0.22169 -0.191237 0.965352 -0.17755 -0.997316 -0.0508905 -0.0526328 
0.0981881 0.97101 -0.217941 0.52493 0.851016 0.0148495 0.790369 -0.52157 -0.321374 
0.841008 0.0527712 -0.538442 0.570884 0.667864 -0.477544 -0.985303 0.0669329 -0.157154 
-0.759237 0.631837 -0.156016 0.943209 -0.323675 -0.0747727 0.212389 0.977182 0.00255528 
-0.0951368 -0.995356 0.0146828 -0.847279 0.522571 0.0950688 0.734536 -0.640645 -0.223677 
0.439378 0.881035 -0.175285 0.513157 -0.854805 -0.0773145 0.568075 0.811586 -0.136455 
-0.98279 -0.161345 -0.0899496 0.889029 0.455717 -0.0441584 -0.143045 0.942734 -0.301314 
0.178232 0.888588 -0.422663 -0.975649 -0.0396462 -0.215726 -0.0171717 0.900152 -0.435237 
0.0725513 0.879743 -0.469881 -0.963704 0.249907 -0.0939207 0.842931 -0.534287 -0.0632786 
-0.614269 0.787842 -0.0444906 0.763346 -0.353236 -0.540858 0.656807 0.200561 -0.726898 
0.256517 0.825181 -0.503264 -0.797001 0.503848 -0.333058 -0.512159 0.818416 -0.260555 
0.339327 -0.898108 -0.279747 0.953907 0.038711 -0.297596 0.0447914 0.990525 -0.12982 
-0.936405 0.347547 -0.0485475 -0.523065 0.829911 -0.194038 0.906513 -0.0893195 -0.412621 
0.0775116 0.977204 -0.197645 0.721629 0.495066 -0.483902 0.0749665 0.173735 -0.981935 
0.0419207 0.596042 -0.801858 0.234265 0.19479 -0.952458 -0.201488 0.723723 -0.660021 
-0.0999375 0.858909 -0.502282 0.353979 0.544688 -0.760272 0.852458 -0.503881 -0.139356 
-0.201284 0.899856 -0.386968 0.997251 -0.0524201 -0.0523606 0.726232 0.633024 -0.26808 
0.612891 0.754602 -0.234394 -0.0180702 0.857002 -0.514996 0.917268 0.362756 -0.164403 
0.427332 0.848323 -0.312626 -0.90194 0.427462 -0.0614861 0.442712 0.756122 -0.481959 
0.594192 -0.702984 -0.39083 0.0478553 0.409376 -0.91111 0.510576 -0.545887 -0.664319 
-0.102656 0.982668 -0.154356 -0.0370174 0.948633 -0.314207 -0.244919 0.93303 -0.263573 
0.22171 -0.802517 -0.553904 0.518863 -0.673289 -0.526748 0.579401 -0.65674 -0.482688 
0.488692 -0.673169 -0.554998 -0.183735 0.967282 -0.174947 0.749657 0.315425 -0.581827 
0.684066 -0.411848 -0.602026 0.716812 0.298996 -0.629906 0.51145 0.735307 -0.444682 
0.368208 0.104269 -0.923878 0.0353209 -0.99795 0.0533601 0.822939 -0.568097 -0.00618156 
-0.00292991 0.969181 -0.246331 -0.097012 0.986799 -0.12968 0.956931 -0.274438 -0.0946926 
-0.920857 -0.368359 -0.12781 0.361473 0.906664 -0.21748 -0.192227 0.879892 -0.434556 
-0.902799 -0.398521 -0.161663 0.0520974 0.866992 -0.495591 -0.284223 0.9034 -0.32107 
0.99616 -0.0114081 -0.0868057 -0.120852 0.834767 -0.537177 0.174554 0.870274 -0.460603 
0.604645 0.186282 -0.774405 -0.0633295 0.978178 -0.197882 0.368654 0.72507 -0.581694 
-0.226395 0.74854 -0.623244 0.235075 0.174678 -0.956153 0.350593 0.45058 -0.821013 
0.0381469 -0.98699 0.156192 0.641968 -0.764147 -0.0628945 0.0833047 -0.963038 0.25616 
0.232255 -0.969707 -0.0756752 0.793083 -0.60617 -0.0598118 0.862178 0.411864 -0.294986 
0.753745 0.321879 -0.572942 0.947156 -0.196698 -0.253388 -0.975314 0.193088 -0.107146 
0.0354046 0.759776 -0.64922 0.0978188 0.832724 -0.54498 0.708785 0.654806 -0.262397 
0.825895 -0.520979 -0.215587 0.398584 0.757285 -0.51735 0.471484 -0.77601 -0.418941 
0.525688 -0.3069 -0.793388 0.345494 -0.171032 -0.922704 0.203858 0.510654 -0.835269 
-0.00153044 0.954421 -0.298461 -0.17093 0.936446 -0.306351 0.19573 0.0664095 -0.978407 
0.4244 0.0719402 -0.902613 0.667916 -0.743664 0.0291701 0.589831 -0.807069 -0.0271913 
0.921157 -0.377056 -0.0964271 -0.764394 -0.644668 -0.0102115 0.998472 -0.040249 -0.0378577 
0.5636 0.75126 -0.343458 0.899484 0.00833917 -0.436874 0.904616 -0.219965 -0.365083 
-0.0171198 0.581972 -0.813029 0.789754 -0.529079 -0.310426 -0.829499 0.547611 -0.109787 
-0.751258 0.660002 -0.00290094 -0.591932 0.790462 -0.157438 0.16654 0.385848 -0.907406 
0.412909 -0.644848 -0.643178 0.0509743 0.25853 -0.964657 0.197118 -0.288494 -0.936971 
0.190855 -0.0887565 -0.977597 0.292175 -0.0413095 -0.955472 0.0764259 0.391681 -0.916922 