# vtk DataFile Version 4.2
vtk output
ASCII
DATASET POLYDATA
POINTS 459 float
389.905 233.598 226.496 386.783 234.328 226.397 388.824 235.128 225.713 
385.146 236.458 226.517 386.551 241.059 225.336 390.694 240.683 224.943 
384.614 243.132 226.066 386.911 246 226.152 387.039 245.518 225.885 
386.798 233.352 227.069 386.637 233.178 227.361 387.192 233.422 226.841 
386.102 233.832 227.132 391.927 233.429 227.356 385.371 235.128 226.921 
384.992 235.578 227.053 394.94 234.863 227.399 395.527 236.109 226.666 
384.332 237.313 226.983 398.994 236.891 227.448 399.817 237.295 227.426 
401.901 238.296 227.424 383.6 238.998 227.161 398.366 239.492 225.833 
405.844 241.037 226.614 408.73 241.123 227.293 383.352 241.557 226.958 
392.456 241.493 224.958 405.65 241.733 226.228 409.1 242.222 226.512 
412.518 242.668 226.646 404.405 242.424 225.809 417.693 243.111 226.871 
419.36 243.756 226.616 383.142 242.398 227.25 415.98 244.089 226.173 
423.379 244.198 226.808 383.75 243.602 226.847 384.621 243.597 226.187 
405.255 244.227 225.468 422.996 245.127 226.25 427.384 245.122 226.556 
428.979 246.122 226.153 383.418 244.75 227.612 428.793 246.769 225.94 
384.297 245.795 227.63 385.93 246.753 227.191 387.11 247.361 227.022 
389.259 248.246 226.555 388.413 248.509 227.258 389.102 248.718 226.984 
442.528 249.576 225.787 404.907 251.921 225.162 421.047 252.034 225.117 
446.526 251.211 226.18 393.026 252.219 227.278 394.025 253.161 227.303 
448.208 253.262 226.731 395.005 254.091 227.326 395.218 253.94 227.083 
396.932 255.867 227.386 397.115 255.696 227.162 400.394 257.956 227.156 
403.196 258.275 226.683 414.386 259.207 226.063 419.512 259.392 225.847 
406.921 259.109 226.663 425.686 260.577 225.684 418.089 260.77 226.517 
418.344 261.309 226.829 419.952 261.421 226.705 421.044 261.554 226.618 
427.555 262.303 226.012 440.822 262.705 225.346 421.872 262.178 226.897 
448.779 261.902 227.312 426.042 263.609 226.928 448.355 263.159 226.984 
431.295 264.727 226.546 435.46 265.089 226.18 430.06 265.283 227.183 
445.746 265.629 226.223 430.732 265.577 227.295 448.303 265.282 227.459 
433.587 266.494 227.4 447.844 266.308 227.348 448.146 265.983 227.548 
439.26 267.957 227.505 447.149 267.007 227.204 442.868 268.514 227.495 
442.931 268.25 227.218 447.398 267.203 227.492 446.194 267.991 227.38 
387.475 232.355 228.067 388.523 232.229 227.842 389.439 232.285 227.751 
385.53 234.052 227.55 392.682 233.581 227.583 394.358 234.311 227.733 
384.71 235.689 227.426 398.361 236.346 227.769 384.019 237.256 227.414 
400.439 237.373 227.769 402.456 238.45 227.546 383.014 240.23 227.668 
408.527 240.775 227.671 409.456 241.036 227.766 417.023 242.66 227.153 
419.228 242.952 227.298 420.348 243.164 227.262 448.602 243.695 227.747 
448.885 243.56 227.809 448.848 243.508 227.81 448.887 243.514 227.832 
423.205 243.762 227.212 428.423 244.24 227.689 442.68 244.639 227.718 
446.176 244.307 227.696 446.883 244.163 227.695 447.797 244.139 227.613 
448.896 243.624 227.839 382.924 242.962 227.825 428.444 244.773 226.934 
441.707 245.194 227.168 442.673 245.168 227.192 382.936 243.587 227.998 
446.549 245.255 227.234 383.785 245.479 227.863 448.144 246.548 227.441 
448.533 246.725 227.818 388.508 248.93 227.874 389.241 249.342 227.643 
448.514 249.491 227.732 393.34 252.787 227.678 394.332 253.727 227.68 
395.311 254.652 227.694 396.281 255.552 227.713 397.27 256.419 227.744 
397.853 256.798 227.614 398.688 257.667 228.013 399.162 257.991 227.964 
400.333 258.573 227.829 411.735 260.127 226.728 402.959 259.451 227.766 
403.416 259.665 227.966 406.361 259.864 227.416 404.178 259.776 227.907 
408.726 260.552 227.743 411.215 260.809 227.449 418.266 261.629 227.151 
410.055 260.854 227.894 411.843 261.097 227.763 420.552 262.332 227.422 
448.928 262.366 227.707 420.349 262.487 227.803 421.942 262.869 227.691 
425.586 263.614 227.112 448.723 264.086 227.749 429.723 265.32 227.386 
429.553 265.453 227.757 431.014 265.922 227.637 431.518 266.166 227.829 
432.247 266.359 227.735 433.491 266.728 227.703 433.285 266.752 227.891 
436.399 267.343 227.827 433.676 266.846 227.853 438.698 267.997 227.913 
447.703 267.038 227.704 440.214 268.291 227.837 446.956 267.801 227.796 
446.116 268.184 227.62 386.99 232.534 228.184 388.354 232.121 228.204 
386.518 232.79 228.337 385.71 233.531 228.268 385.059 234.501 228.149 
394.848 234.449 228.262 395.511 234.804 228.135 384.182 236.443 228.13 
397.483 235.833 228.193 383.688 237.736 227.945 383.238 239.218 228.145 
404.797 239.274 228.107 407.802 240.391 228.107 412.492 241.583 228.173 
416.532 242.069 228.067 417.223 242.115 228.139 418.342 242.358 228.131 
422.281 243.073 228.123 448.071 243.672 227.887 447.779 243.801 227.811 
448.644 243.512 227.849 448.81 243.491 227.84 448.856 243.555 227.87 
430.109 244.277 228.082 442.287 244.578 228.005 444.17 244.477 227.96 
445.885 244.271 227.9 448.857 243.734 227.895 448.82 244.035 227.92 
448.696 244.986 227.971 383.921 245.922 228.428 385.84 247.28 228.19 
448.537 248.067 228.052 388.373 248.906 228.293 392.203 251.836 228.048 
448.953 254.11 228.008 395.7 255.129 228.17 397.651 256.873 228.219 
399.931 258.545 228.236 400.847 258.964 228.246 406.594 260.227 228.143 
408.443 260.595 228.038 449.034 261.882 228.1 409.779 260.876 228.242 
413.242 261.425 228.013 413.771 261.533 228.268 421.722 262.898 227.991 
423.06 263.266 228.134 424.853 263.757 227.931 448.577 265.189 228.155 
429.321 265.424 228.104 430.095 265.703 228.009 430.628 265.904 228.228 
435.488 267.126 227.965 447.97 266.769 227.96 448.161 266.42 228.231 
437.078 267.555 228.089 447.654 267.219 228.014 439.198 268.13 228.152 
446.5 268.098 227.866 446.84 267.914 228.12 447.276 267.601 228.062 
442.748 268.71 228.141 444.062 268.693 228.088 445.362 268.479 227.983 
387.232 232.306 228.826 388.702 232.087 228.409 389.643 232.231 228.509 
386.488 232.758 228.815 384.766 235.179 228.819 396.049 235.074 228.478 
383.936 237.253 228.722 405.771 239.628 228.558 383.116 240.106 228.621 
382.953 240.631 228.367 406.451 239.933 228.625 382.864 241.282 228.288 
417.124 242.125 228.454 418.179 242.284 228.442 422.175 243.08 228.452 
447.996 243.736 227.978 448.559 243.548 227.913 448.744 243.523 227.89 
382.865 242.569 228.517 426.458 243.933 228.521 437.915 244.615 228.383 
445.616 244.37 228.133 447.134 244.022 228.002 382.939 243.848 228.71 
448.632 244.703 228.073 448.506 245.96 228.185 383.293 245.135 228.734 
384.955 246.795 228.766 385.716 247.235 228.683 448.467 248.524 228.346 
391.002 250.756 228.494 391.628 251.282 228.529 393.818 253.296 228.435 
395.246 254.645 228.38 399.028 257.928 228.482 399.47 258.231 228.542 
400.423 258.769 228.529 449.053 260.417 228.509 400.731 258.926 228.443 
402.835 259.599 228.306 402.81 259.544 228.498 403.278 259.702 228.402 
406.148 260.113 228.56 408.142 260.537 228.394 409.469 260.786 228.556 
419.851 262.391 228.496 425.482 263.96 228.234 426.134 264.139 228.482 
427.752 264.809 228.282 428.296 264.961 228.507 429.893 265.585 228.39 
448.257 266.031 228.503 433.225 266.669 228.338 447.856 266.895 228.289 
433.523 266.807 228.217 438.937 268.026 228.434 441.311 268.449 228.378 
447.101 267.651 228.369 442.506 268.651 228.424 443.11 268.677 228.401 
445.751 268.33 228.258 387.355 232.28 229.076 387.64 232.225 229.136 
387.456 232.332 229.274 387.928 232.196 229.105 388.84 232.152 228.746 
386.508 232.777 229.146 390.396 232.652 229.038 385.402 234.024 228.998 
390.893 232.958 229.25 385.11 234.711 229.143 394.796 234.515 228.908 
400.713 237.512 228.813 384 237.937 229.221 401.785 238.131 229.047 
383.637 239.267 229.184 405.371 239.776 229.216 407.475 240.386 228.926 
415.937 242.129 228.931 382.991 242.055 228.816 412.536 241.919 229.424 
415.201 242.297 229.447 417.558 242.5 229.188 418.531 242.599 229.046 
422.774 243.293 228.815 448.66 243.594 227.943 420.619 243.433 229.663 
426.101 244.015 228.945 443.57 244.765 228.519 447.042 244.266 228.214 
448.026 244.039 228.141 383.024 243.476 228.977 424.842 244.079 229.415 
426.868 244.366 229.319 447.897 244.385 228.261 448.563 244.038 228.062 
427.617 244.797 229.663 383.126 244.546 229.051 445.635 245.87 229.028 
448.072 245.185 228.38 383.211 244.873 229.077 383.626 245.509 229.267 
446.23 247.154 229.314 384.663 246.467 229.216 384.893 246.708 229.055 
386.658 247.746 228.971 447.478 249.248 229.35 389.285 249.378 228.815 
448.13 250.082 229.064 391.861 251.421 228.655 448.67 252.767 228.729 
448.761 254.81 228.853 396.075 255.355 228.549 396.802 255.826 228.779 
397.984 257.054 228.579 398.65 257.423 228.789 398.889 257.718 228.686 
399.634 258.285 228.635 400.344 258.601 228.701 402.521 259.285 228.751 
448.84 261.678 228.886 408.678 260.451 228.9 412.699 261.148 228.782 
448.534 264.198 228.846 422.497 262.966 228.717 430.242 265.517 228.741 
448.06 266.128 228.744 434.795 266.609 228.833 438.683 267.868 228.636 
447.263 267.348 228.581 441.687 268.3 228.75 442.269 268.524 228.63 
446.399 267.783 228.709 443.362 268.507 228.668 387.246 232.394 229.247 
386.401 232.915 229.294 387.305 232.617 229.499 385.637 233.808 229.332 
385.799 233.878 229.613 393.012 234.427 229.87 393.772 234.345 229.432 
384.864 235.637 229.415 384.74 236.988 229.681 403.971 239.856 229.908 
417.078 243.132 229.966 383.554 243.497 229.567 383.263 244.357 229.27 
428.371 245.292 229.963 429.196 245.844 230.214 383.746 245.568 229.417 
383.792 245.719 229.338 428.985 247.066 230.751 443.052 247.813 230.076 
384.022 245.913 229.34 385.479 246.859 229.331 386.231 247.022 229.551 
394.776 252.932 229.493 445.286 253.173 230.746 448.008 252.325 229.416 
397.453 253.952 230.074 446.939 253.662 230.252 448.408 253.068 229.129 
405.085 254.985 230.861 422.533 254.514 231.361 447.54 254.501 230.035 
399.305 255.669 229.933 417.261 256.129 231.072 401.056 257.207 229.73 
[...]
POINT_DATA 459
SCALARS scalars float
LOOKUP_TABLE default
1 1 1 1 1 1 1 1 1 
1 1 1 1 1 1 1 1 1 
1 1 1 1 1 1 1 1 1 
1 1 1 1 1 1 1 1 1 
1 1 1 1 1 1 1 1 1 
1 1 1 1 1 1 1 1 1 
1 1 1 1 1 1 1 1 1 
1 1 1 1 1 1 1 1 1 
1 1 1 1 1 1 1 1 1 
1 1 1 1 1 1 1 1 1 
1 1 1 1 1 1 1 1 1 
1 1 1 1 1 1 1 1 1 
1 1 1 1 1 1 1 1 1 
1 1 1 1 1 1 1 1 1 
1 1 1 1 1 1 1 1 1 
1 1 1 1 1 1 1 1 1 
1 1 1 1 1 1 1 1 1 
1 1 1 1 1 1 1 1 1 
1 1 1 1 1 1 1 1 1 
1 1 1 1 1 1 1 1 1 
1 1 1 1 1 1 1 1 1 
1 1 1 1 1 1 1 1 1 
1 1 1 1 1 1 1 1 1 
1 1 1 1 1 1 1 1 1 
1 1 1 1 1 1 1 1 1 
1 1 1 1 1 1 1 1 1 
1 1 1 1 1 1 1 1 1 
1 1 1 1 1 1 1 1 1 
1 1 1 1 1 1 1 1 1 
1 1 1 1 1 1 1 1 1 
1 1 1 1 1 1 1 1 1 
1 1 1 1 1 1 1 1 1 
1 1 1 1 1 1 1 1 1 
1 1 1 1 1 1 1 1 1 
1 1 1 1 1 1 1 1 1 
1 1 1 1 1 1 1 1 1 
1 1 1 1 1 1 1 1 1 
1 1 1 1 1 1 1 1 1 
1 1 1 1 1 1 1 1 1 
1 1 1 1 1 1 1 1 1 
1 1 1 1 1 1 1 1 1 
1 1 1 1 1 1 1 1 1 
1 1 1 1 1 1 1 1 1 
1 1 1 1 1 1 1 1 1 
1 1 1 1 1 1 1 1 1 
1 1 1 1 1 1 1 1 1 
1 1 1 1 1 1 1 1 1 
1 1 1 1 1 1 1 1 1 
1 1 1 1 1 1 1 1 1 
1 1 1 1 1 1 1 1 1 
1 1 1 1 1 1 1 1 1 

NORMALS Normals float
0.0901833 -0.577165 -0.811632 -0.43926 -0.377903 -0.815009 0.0492712 -0.309276 -0.949695 
-0.525962 -0.217726 -0.822167 -0.239538 0.00533733 -0.970872 -0.0281094 -0.105451 -0.994027 
-0.438922 0.115699 -0.891045 -0.288344 0.465764 -0.836613 -0.254178 0.363615 -0.896202 
-0.34776 -0.672107 -0.653709 -0.513567 -0.679518 -0.523931 -0.177932 -0.643371 -0.74459 
-0.575151 -0.569639 -0.587123 0.377388 -0.673131 -0.635982 -0.661166 -0.364417 -0.655789 
-0.676835 -0.332747 -0.656638 0.402798 -0.731838 -0.549698 0.183781 -0.434861 -0.881544 
-0.774116 -0.20914 -0.597498 0.240348 -0.630815 -0.73777 0.371155 -0.587717 -0.718911 
0.363742 -0.748249 -0.554811 -0.82337 -0.208821 -0.527689 0.219629 -0.256726 -0.941199 
0.273759 -0.434955 -0.857829 0.254876 -0.746407 -0.614747 -0.64858 -0.0142317 -0.761014 
0.0701053 0.0831828 -0.994065 0.421679 -0.278547 -0.862901 0.176989 -0.531391 -0.828431 
0.0782947 -0.555349 -0.827924 0.0468647 -0.305715 -0.950969 0.174168 -0.633081 -0.754237 
0.118791 -0.507977 -0.85314 -0.904002 -0.00291167 -0.427518 0.0660903 -0.385468 -0.920351 
0.0022317 -0.640055 -0.768326 -0.613269 0.297755 -0.731603 -0.54966 0.267935 -0.791255 
0.1535 -0.158791 -0.975307 -0.01696 -0.403458 -0.914841 0.0453586 -0.508616 -0.859798 
-0.0533781 -0.412044 -0.909599 -0.776324 0.380628 -0.502437 -0.0374658 -0.31645 -0.947869 
-0.591504 0.606423 -0.531388 -0.505565 0.560377 -0.656035 -0.309856 0.661959 -0.682496 
-0.396415 0.613033 -0.683407 -0.559467 0.641443 -0.524926 -0.322976 0.700257 -0.636653 
0.0463455 -0.151476 -0.987374 -0.0618699 0.0931652 -0.993727 0.0146837 -0.0823792 -0.996493 
0.19979 -0.00920088 -0.979796 -0.622283 0.619716 -0.478242 -0.607894 0.661729 -0.438838 
0.501965 0.0158316 -0.864743 -0.516858 0.55858 -0.648726 -0.439233 0.515301 -0.735894 
-0.478925 0.573547 -0.664586 -0.419984 0.518505 -0.744827 -0.293016 0.601639 -0.743083 
-0.159931 0.436716 -0.885269 -0.0569904 0.280462 -0.958172 -0.0438992 0.334174 -0.941489 
-0.101776 0.63784 -0.763415 -0.0381925 0.223647 -0.973922 -0.147265 0.530658 -0.834695 
-0.144435 0.557535 -0.817492 -0.171787 0.620413 -0.76523 -0.0884836 0.501665 -0.860525 
-0.100452 0.267363 -0.958346 0.0664815 0.091237 -0.993608 -0.192861 0.672913 -0.714137 
0.86715 0.00825782 -0.497979 -0.242353 0.679548 -0.692445 0.572116 0.118177 -0.811614 
-0.239355 0.408631 -0.880755 -0.101153 0.374595 -0.921654 -0.344148 0.448183 -0.825042 
0.193644 0.259778 -0.946054 -0.216502 0.743393 -0.632846 0.87962 0.270197 -0.391486 
-0.207154 0.776309 -0.595342 0.663671 0.33128 -0.670667 0.776354 0.283527 -0.562928 
-0.188459 0.854199 -0.484591 0.454583 0.389261 -0.801143 -0.0525282 0.900965 -0.430701 
-0.00166848 0.613764 -0.789488 0.609307 0.612401 -0.503697 0.279045 0.684801 -0.673187 
-0.268221 -0.874799 -0.403465 -0.104124 -0.779416 -0.617793 0.176594 -0.927833 -0.328544 
-0.745684 -0.514977 -0.422793 0.342121 -0.631559 -0.695763 0.346098 -0.762341 -0.546857 
-0.856545 -0.358348 -0.371372 0.227772 -0.732269 -0.641796 -0.821822 -0.343402 -0.454625 
0.469505 -0.814886 -0.339892 0.334762 -0.804233 -0.491063 -0.967466 -0.171775 -0.185752 
0.174625 -0.709636 -0.682585 0.226977 -0.761 -0.60775 0.128345 -0.708224 -0.694223 
0.151345 -0.759874 -0.632207 0.165772 -0.821365 -0.545784 0.180209 -0.0111874 -0.983565 
0.595918 0.00302572 -0.80304 0.0016077 -0.610223 -0.792228 0.795044 -0.600737 0.0837851 
0.0335832 -0.725436 -0.68747 0.10858 -0.875608 -0.47066 -0.0921072 -0.877946 -0.469816 
-0.0980071 -0.747575 -0.656907 -0.158436 -0.660602 -0.733828 0.0618452 -0.211402 -0.975441 
0.960628 0.00236494 0.277828 -0.994331 0.00590161 -0.106165 0.0155032 -0.633957 -0.773213 
-0.0217059 -0.682903 -0.730186 0.0156098 -0.405161 -0.914112 -0.933539 0.206712 -0.292875 
0.037713 -0.207861 -0.977431 -0.620825 0.614618 -0.486642 0.392479 -0.0757675 -0.916635 
0.956827 0.069977 -0.282109 -0.561667 0.781029 -0.272989 -0.476391 0.807729 -0.347311 
0.890769 -0.036081 -0.453021 -0.64092 0.745733 -0.181944 -0.675534 0.641353 -0.363758 
-0.608544 0.681675 -0.406193 -0.625139 0.661639 -0.414047 -0.531969 0.703451 -0.471345 
-0.468924 0.595354 -0.652429 -0.559237 0.752101 -0.34871 -0.525877 0.785811 -0.325506 
-0.321611 0.789765 -0.522338 -0.109302 0.582121 -0.805722 -0.229989 0.856255 -0.462528 
-0.154927 0.861251 -0.483989 0.0146815 0.807165 -0.590143 -0.168085 0.853639 -0.492998 
-0.196623 0.85934 -0.472094 -0.140156 0.742844 -0.654629 -0.149104 0.743042 -0.652424 
-0.179122 0.864588 -0.469471 -0.11982 0.871377 -0.475758 -0.222617 0.752821 -0.619437 
0.951627 0.0996709 -0.290639 -0.199942 0.888124 -0.413835 -0.338346 0.840661 -0.422862 
-0.226406 0.68049 -0.696903 0.918858 0.159819 -0.360775 -0.383433 0.731278 -0.564102 
-0.488247 0.783407 -0.384563 -0.294492 0.872799 -0.389225 -0.262069 0.904965 -0.335198 
-0.268735 0.891397 -0.364956 -0.260569 0.786454 -0.559994 -0.330285 0.916059 -0.227481 
-0.251087 0.967482 -0.0305516 -0.153391 0.932398 -0.32727 -0.283152 0.95846 0.0343435 
0.714944 0.492904 -0.495883 -0.146098 0.964108 -0.2217 0.531288 0.747706 -0.398331 
0.184267 0.970069 -0.15815 -0.355356 -0.769744 -0.530298 -0.128072 -0.990377 -0.0524497 
-0.680013 -0.721618 -0.129805 -0.718834 -0.674624 -0.167811 -0.85806 -0.484557 -0.170112 
0.416371 -0.908577 -0.0335129 0.50596 -0.841509 -0.189387 -0.913762 -0.405334 -0.0272823 
0.357305 -0.90253 -0.24036 -0.954998 -0.279376 -0.0996385 -0.956272 -0.278439 0.0895299 
0.392998 -0.878933 -0.270239 0.237964 -0.932849 -0.270492 0.22583 -0.971007 -0.0783963 
0.0548754 -0.996482 -0.0633466 0.187129 -0.944781 -0.269019 0.278857 -0.950637 -0.136114 
0.210524 -0.961242 -0.178028 -0.300356 -0.9475 -0.109678 -0.262639 -0.892308 -0.36716 
-0.177694 -0.978662 -0.103176 0.148706 -0.941514 0.302388 0.341555 -0.29476 0.892444 
0.0617562 -0.949754 -0.306844 -0.0628388 -0.939241 -0.337457 -0.0829768 -0.97192 -0.220194 
-0.18808 -0.976182 -0.108139 0.48956 -0.0657044 0.869491 0.641591 -0.00495206 0.767031 
0.924583 0.062437 0.37583 -0.686556 0.722148 -0.0845108 -0.525055 0.792488 -0.310291 
0.998265 0.0464234 0.0362145 -0.551151 0.831388 0.07089 -0.721411 0.66641 -0.188317 
0.994425 -0.0230478 0.102893 -0.666024 0.74491 0.038999 -0.631982 0.774903 0.0111279 
-0.485007 0.87405 0.028373 -0.319649 0.902541 -0.28852 -0.102782 0.967233 -0.232157 
-0.229793 0.92962 -0.288102 0.997691 0.0505023 -0.0454199 -0.209555 0.9735 -0.0915662 
-0.14982 0.988375 0.0258447 -0.167969 0.984553 -0.0494068 -0.314788 0.931502 -0.182246 
-0.270356 0.957734 -0.0982513 -0.230159 0.933307 -0.275617 0.974313 0.194289 0.113869 
-0.49513 0.868756 0.0104965 -0.324067 0.923359 -0.205885 -0.313763 0.946157 0.0796219 
-0.160075 0.986798 0.024601 0.892607 0.351468 -0.282353 0.939233 0.341244 0.0373322 
-0.274785 0.961498 0.00397759 0.737243 0.674984 -0.0294819 -0.183561 0.982087 -0.0425565 
0.339106 0.938752 -0.0612574 0.385712 0.874674 0.29355 0.681883 0.731159 0.0210348 
-0.218667 0.97396 -0.059896 0.110327 0.96407 -0.241654 0.226746 0.970465 -0.0823647 
-0.406156 -0.913655 -0.0164937 0.0370652 -0.998307 -0.0448322 0.35263 -0.926431 0.131821 
-0.671309 -0.740149 0.0390297 -0.904269 -0.42555 0.0347089 0.500662 -0.8484 -0.171917 
-0.885869 -0.295834 0.357377 0.323549 -0.928512 0.182156 -0.919058 -0.141033 0.368025 
-0.940631 -0.0263937 0.338403 0.437933 -0.893951 -0.0952194 -0.966032 -0.121045 0.22832 
0.119947 -0.94765 0.295927 0.256922 -0.949374 0.180776 0.157576 -0.984881 0.071967 
-0.133402 -0.593585 0.793638 -0.128219 -0.804317 0.580202 0.0894977 -0.701542 0.706986 
-0.998324 -0.0102807 0.056944 0.116492 -0.981073 0.154676 0.0187993 -0.966232 0.256988 
-0.128318 -0.983346 0.128703 -0.265108 -0.893393 0.362721 -0.99213 0.0684436 0.104852 
0.491272 -0.0664247 0.86847 0.68288 -0.0375556 0.729564 -0.858277 0.507254 -0.0778006 
-0.519109 0.852121 0.0664563 -0.464018 0.855549 0.229616 0.914704 0.0235009 0.40344 
-0.635426 0.757513 0.149691 -0.725913 0.683845 -0.0735303 -0.676224 0.722624 0.143304 
-0.681663 0.695106 0.228392 -0.619008 0.771674 0.146114 -0.54049 0.814039 0.21263 
-0.444598 0.859935 0.25069 0.946206 0.00198634 0.323559 -0.306902 0.930828 0.19842 
-0.267967 0.963108 0.0248272 -0.339834 0.869835 0.35763 -0.180235 0.942197 0.282453 
-0.162336 0.953902 0.252424 -0.220455 0.944255 0.244506 -0.231617 0.948655 0.215424 
-0.186918 0.888211 0.419694 -0.287395 0.923991 0.25228 -0.318686 0.944586 0.0787152 
-0.358199 0.927056 0.110731 -0.300756 0.731761 0.611614 -0.378299 0.867998 0.321667 
0.979538 0.193729 -0.054547 -0.228977 0.860083 0.45588 0.75141 0.538004 0.382014 
-0.177024 0.868393 0.463202 -0.21254 0.939501 0.268636 -0.15186 0.980772 0.122574 
0.49575 0.713057 0.495764 -0.226933 0.948344 0.221686 0.169382 0.92437 0.341833 
0.266746 0.908151 0.322658 -0.333755 -0.912333 0.237184 -0.0731497 -0.91523 0.396236 
-0.137148 -0.786527 0.602134 0.118982 -0.844258 0.522562 0.0850317 -0.965742 0.245176 
-0.36957 -0.717677 0.590219 0.250261 -0.813604 0.524802 -0.853473 -0.489481 0.178865 
0.341388 -0.815398 0.467527 -0.729103 -0.354753 0.585286 0.436166 -0.847011 0.303861 
0.452295 -0.89186 0.00377139 -0.864587 -0.233089 0.445151 0.390971 -0.832092 0.393401 
-0.66753 -0.0862142 0.739575 0.255177 -0.856662 0.448346 0.3429 -0.939371 0.00152278 
0.0356387 -0.959291 0.280161 -0.836032 -0.121999 0.534946 0.159962 -0.817341 0.553503 
0.0271975 -0.919525 0.392089 0.133583 -0.887897 0.440222 0.235456 -0.8686 0.435998 
0.206433 -0.870723 0.446349 0.180046 -0.325044 0.928402 0.130606 -0.668823 0.731859 
0.149782 -0.803863 0.575647 -0.0349602 -0.588298 0.807888 -0.109715 -0.474646 0.873312 
0.0668407 -0.297648 0.952333 -0.894554 -0.0204684 0.446491 0.181129 -0.839119 0.512905 
0.278402 -0.886667 0.369207 0.0576822 -0.284739 0.956868 0.254216 -0.199357 0.946378 
0.240198 -0.710972 0.660927 -0.948213 0.135569 0.287249 -0.0515945 -0.404151 0.913236 
0.257005 -0.175069 0.950421 -0.694163 0.243929 0.677227 -0.817743 0.377875 0.434173 
0.165949 -0.179003 0.969752 -0.489164 0.668822 0.559818 -0.538899 0.808122 0.237753 
-0.456492 0.826976 0.328217 0.45211 -0.124825 0.883185 -0.557582 0.828765 -0.0474475 
0.880012 -0.0585852 0.471325 -0.601029 0.694865 0.394876 0.874764 -0.0891928 0.476269 
0.886776 0.0234515 0.461603 -0.568419 0.634977 0.523168 -0.575613 0.653982 0.490895 
-0.50474 0.62023 0.60046 -0.550305 0.672196 0.495294 -0.458319 0.616969 0.639761 
-0.427197 0.761238 0.487873 -0.315443 0.674192 0.667803 -0.209056 0.682896 0.699963 
0.842068 0.115747 0.526805 -0.175518 0.839253 0.514634 -0.148499 0.829725 0.538056 
0.660199 0.231001 0.714686 -0.192286 0.805037 0.561196 -0.305128 0.778731 0.548156 
0.587148 0.291819 0.755049 -0.20777 0.800578 0.562056 -0.263253 0.847801 0.460361 
0.616571 0.609737 0.498058 -0.109347 0.642233 0.75867 -0.347414 0.894417 0.281643 
0.292982 0.702508 0.648571 0.0499629 0.767316 0.63932 -0.440823 -0.815615 0.374763 
-0.668981 -0.662726 0.33654 -0.164488 -0.652957 0.739317 -0.761577 -0.553378 0.337304 
-0.665308 -0.42601 0.613091 0.209144 -0.534902 0.81862 0.342263 -0.753765 0.560977 
-0.787401 -0.353604 0.504939 -0.518505 -0.180962 0.835707 0.238327 -0.627765 0.741021 
0.174939 -0.612848 0.770593 -0.580721 0.0520608 0.812436 -0.616111 0.139037 0.775291 
0.283057 -0.689566 0.666617 0.375922 -0.586617 0.717331 -0.598335 0.378 0.706478 
-0.723719 0.628278 0.285478 0.310737 -0.241965 0.919182 0.127229 -0.28592 0.94977 
-0.438218 0.736169 0.515771 -0.38511 0.796992 0.46529 -0.418649 0.686433 0.594595 
-0.373896 0.385282 0.843658 0.230226 -0.124214 0.965177 0.462737 -0.132202 0.876583 
-0.196789 0.181278 0.963542 0.452479 -0.10831 0.885173 0.756927 -0.0767838 0.648972 
-0.0615461 0.133326 0.989159 -0.0334955 -0.042694 0.998527 0.47074 -0.0788833 0.878739 
-0.208023 0.321166 0.923894 -0.190352 0.0970509 0.976907 -0.0214111 0.261132 0.965066 
0.482408 0.00142222 0.875946 -0.063485 0.273232 0.959851 -0.0920637 0.357919 0.929203 
0.194814 0.107673 0.974912 -0.135458 0.703041 0.69813 0.0482189 0.117442 0.991908 
0.435992 0.0504624 0.898535 0.506247 0.121701 0.853758 0.728287 0.0139087 0.685131 
-0.150137 0.534287 0.831863 0.44207 0.189874 0.876654 -0.211514 0.617598 0.757519 
-0.315804 0.748631 0.582941 -0.13581 0.317225 0.938576 -0.132105 0.561694 0.81673 
0.22533 0.482672 0.846318 0.410266 0.45807 0.788577 0.255469 0.811796 0.525093 
-0.194318 -0.620437 0.759801 0.0460632 -0.553686 0.83145 -0.368681 -0.490914 0.789352 
-0.663128 -0.304277 0.683869 -0.262677 -0.326641 0.907913 0.153518 -0.558114 0.815439 
-0.317342 -0.115885 0.941204 0.190207 -0.442564 0.876332 0.32239 -0.558355 0.764398 
-0.274963 -0.0533975 0.959971 0.0542823 -0.227258 0.972321 0.293745 -0.500921 0.81412 
-0.607269 -0.0831174 0.790137 0.165741 -0.427779 0.888558 -0.263983 0.130013 0.955725 
0.243636 -0.243307 0.938852 -0.528518 0.138476 0.837552 0.000803568 0.00765306 0.99997 
0.0736306 -0.140434 0.987348 0.0728774 -0.425483 0.902027 -0.229904 0.47841 0.847507 
-0.297349 0.543489 0.784986 -0.0257733 -0.251047 0.967632 0.13373 -0.103 0.985651 
0.113125 -0.198204 0.973611 -0.0119683 -0.0675139 0.997647 -0.0755354 0.0541984 0.995669 
0.153286 -0.0679799 0.985841 0.0916402 -0.055465 0.994246 0.309022 -0.0723974 0.948295 
0.00012383 -0.0130729 0.999915 -0.19085 -0.472998 0.860145 -0.537358 -0.223626 0.813165 
-0.274109 -0.0670245 0.95936 -0.274109 -0.0670245 0.95936 -0.274109 -0.0670245 0.95936 

