# vtk DataFile Version 4.2
vtk output
ASCII
DATASET POLYDATA
POINTS 358 float
508.871 242.773 227.338 507.443 243.246 227.108 508.964 243.155 227.416 
507.542 243.712 227.214 506.953 244.189 227.387 508.716 244.01 227.524 
508.849 244.268 227.685 462.476 254.605 226.275 454.668 255.808 227.094 
467.146 254.747 226.871 458.02 256.598 226.395 460.804 256.796 226.62 
463.704 256.376 226.919 453.88 259.066 227.606 460.872 258.032 227.199 
455.577 259.727 227.017 456.924 259.425 226.997 453.746 260.99 227.657 
454.753 260.46 227.223 457.396 259.755 227.195 453.862 261.362 227.606 
453.57 262.076 227.85 454.122 261.919 227.621 453.491 262.427 227.935 
453.42 262.566 228.047 453.641 262.445 227.851 453.444 262.832 228.086 
453.581 262.738 227.921 453.702 262.67 227.876 453.532 262.876 228.006 
505.791 238.019 227.928 507.412 238.199 227.879 509.227 238.567 227.852 
508.98 238.428 227.881 509.218 238.449 227.945 508.716 238.825 227.675 
509.453 238.574 227.918 509.526 238.771 227.855 509.909 238.955 227.954 
488.699 240.704 227.673 509.997 239.148 227.963 510.651 239.259 228.201 
510.606 239.28 228.2 510.668 239.257 228.203 510.634 239.262 228.204 
489.205 241.45 227.375 505.271 240.494 226.997 509.863 239.763 227.868 
510.612 239.275 228.207 455.877 244.422 227.919 455.72 244.621 227.794 
456.562 244.323 227.686 457.616 243.938 227.834 460.449 243.745 227.472 
460.074 243.55 227.728 465.996 243.22 227.325 468.281 242.688 227.529 
470.21 242.6 227.524 479.922 242.01 227.444 492.936 241.564 227.343 
461.842 244.002 227.199 480.151 243.084 227.087 455.332 245.419 227.733 
465.265 244.328 226.925 468.145 244.215 226.906 504.707 242.351 226.944 
509.311 242.252 227.605 455.041 246.712 227.705 479.259 245.163 226.797 
494.093 243.891 227.39 502.376 243.636 227.255 456.027 246.972 227.076 
509.354 243.801 227.826 509.461 243.655 227.935 495.248 244.598 227.746 
498.405 244.678 227.95 503.741 244.511 227.632 507.738 244.67 227.724 
481.241 247.057 226.981 484.751 246.578 227.295 492.562 245.126 227.81 
502.263 244.672 227.852 504.657 244.758 227.8 506.222 244.85 227.971 
508.659 244.779 227.958 508.906 244.626 227.985 461.089 249.052 226.24 
504.934 244.959 228.015 508.499 244.888 228.038 458.247 249.994 226.351 
477.13 248.938 226.934 483.995 247.844 227.707 485.875 247.142 227.831 
482.177 248.469 227.527 478.155 250.389 227.579 468.655 253.098 226.783 
454.219 255.822 227.598 470.311 253.381 227.157 474.9 252.129 227.812 
472.501 253.308 227.706 464.953 256.341 227.191 468.181 255.554 227.742 
467.79 255.801 227.838 463.581 257.365 227.74 460.188 258.958 227.685 
458.057 259.925 227.521 459.159 259.551 227.759 459.788 259.245 227.785 
453.427 261.897 228.105 457.315 260.443 227.718 454.282 262.088 227.66 
454.671 261.964 227.664 455.193 261.795 227.717 455.545 261.68 227.793 
455.258 261.946 227.885 453.632 262.837 227.945 454.098 262.637 227.916 
453.518 262.997 228.12 453.644 262.946 228.03 506.333 237.875 228.122 
506.64 237.918 228.052 507.129 238.002 228.074 508.867 238.343 227.973 
509.141 238.415 228.055 501.959 238.646 227.757 509.49 238.545 228.014 
509.734 238.67 228.018 509.853 238.801 227.989 510.002 239.024 228.058 
488.756 240.469 227.855 488.095 240.686 227.725 510.088 239.335 227.997 
510.107 239.217 228.035 510.522 239.293 228.193 510.507 239.293 228.214 
481.276 241.503 227.631 486.305 240.802 227.747 510.443 239.348 228.209 
455.742 244.514 228.082 455.567 244.689 227.927 456.144 244.291 228.084 
465.186 242.645 227.828 466.886 242.481 227.779 468.744 242.36 227.77 
509.845 240.677 228.052 455.346 245.08 227.925 509.535 243.4 228.101 
454.82 247.744 227.955 509.442 243.851 228.106 495.79 244.74 227.951 
498.04 244.747 228.068 509.146 244.402 228.055 509.317 244.175 228.145 
498.594 244.742 228.217 500.856 244.708 228.14 502.757 244.809 228.04 
504.123 245.013 228.194 505.461 244.989 228.137 508.09 244.951 228.271 
508.734 244.805 228.101 508.962 244.631 228.163 504.741 245.032 228.222 
508.465 244.91 228.184 486.379 247.123 228.108 454.297 254.186 227.988 
478.458 250.887 228.122 472.11 253.852 228.023 468.837 255.389 228.213 
470.439 254.688 228.105 453.608 260.228 228.181 462.242 258.02 228.031 
464.992 256.972 228.091 457.061 260.754 228.136 453.419 262.824 228.31 
455.148 262.096 228.068 453.458 263.042 228.324 453.84 262.917 228.051 
499.768 238.435 228.656 499.243 238.511 228.585 501.287 238.154 228.384 
502.306 238.09 228.469 502.844 238.119 228.506 504.971 237.98 228.387 
504.426 238.006 228.283 506.267 237.908 228.281 507.032 237.95 228.225 
506.746 237.923 228.289 507.049 238.02 228.335 493.266 239.577 228.659 
496.979 238.935 228.448 497.637 238.885 228.654 499.482 238.484 228.256 
507.509 238.108 228.245 509.028 238.452 228.17 487.581 240.205 228.383 
488.403 240.196 228.417 491.468 239.919 228.486 493.719 239.472 228.276 
499.026 238.696 228.114 509.844 238.784 228.06 480.859 240.955 228.37 
483.91 240.623 228.271 484.643 240.548 228.152 491.769 239.914 228.096 
510.017 239.145 228.196 466.043 242.352 228.267 466.024 242.417 228.513 
465.451 242.473 228.404 467.927 242.156 228.269 472.822 241.855 228.281 
474.566 241.749 228.548 476 241.519 228.25 475.608 241.603 228.531 
476.743 241.447 228.125 482.015 240.966 228.043 484.955 240.66 227.959 
491.188 240.175 227.901 492.1 240.02 227.916 510.202 239.427 228.132 
510.29 239.297 228.217 510.301 239.359 228.247 462.248 243.014 228.219 
462.161 243.108 228.435 461.618 243.171 228.295 465.732 242.447 228.009 
466.488 242.349 228.021 468.308 242.199 228.02 472.216 241.981 228.02 
477.059 241.566 227.914 492.542 240.224 227.748 510.115 239.571 228.276 
509.916 240.159 228.25 455.676 244.671 228.215 455.479 244.826 228.089 
456.001 244.471 228.249 457.132 244.101 228.296 509.765 241.002 228.286 
455.028 246.503 228.171 509.518 243.1 228.302 494.279 244.939 228.135 
497.423 244.742 228.169 509.285 244.17 228.268 495.594 244.705 228.391 
497.792 244.668 228.432 498.427 244.744 228.411 501.459 244.666 228.379 
505.297 245.011 228.391 506.649 244.883 228.61 507.552 244.902 228.442 
508.936 244.59 228.294 498.586 244.725 228.473 508.391 244.882 228.33 
484.345 248.126 228.174 485.268 247.673 228.383 487.73 246.588 228.345 
482.117 249.266 228.231 479.114 250.657 228.203 479.43 250.525 228.354 
480.796 249.859 228.359 477.147 251.52 228.214 474.46 252.733 228.419 
476.863 251.631 228.42 473.429 253.243 228.426 474.013 252.947 228.52 
453.915 258.099 228.341 471.082 254.443 228.171 471.43 254.267 228.315 
465.633 256.759 228.19 465.901 256.604 228.368 462.885 257.72 228.446 
458.826 259.828 228.268 453.508 263.096 228.405 453.863 263.017 228.207 
453.522 263.143 228.338 453.643 263.137 228.301 500.192 238.502 228.803 
501.689 238.282 228.725 505.326 238.085 228.542 502.411 238.441 228.858 
504.363 238.386 228.803 507.262 238.271 228.481 508.02 238.375 228.376 
492.649 240.062 228.909 477.427 241.496 228.805 485.116 240.877 228.92 
494.952 240.099 229.119 497.551 240.295 229.282 502.064 239.771 229.369 
506.032 239.627 229.222 509.963 239.352 228.313 461.612 243.37 228.559 
467.087 242.73 228.936 492.597 241.181 229.2 455.527 245.001 228.268 
505.442 240.847 229.483 509.337 241.02 228.727 457.479 244.62 228.723 
461.101 244.09 228.945 470.366 243.385 229.376 492.073 242.273 229.245 
455.611 245.803 228.549 458.752 245.425 229.179 504.433 242.751 229.461 
509.107 243.02 228.72 483.697 245.979 229.556 492.434 244.838 228.61 
499.586 244.431 228.642 504.482 244.322 229.039 507.089 244.602 228.897 
489.386 245.594 228.713 505.294 244.747 228.814 483.787 247.87 228.987 
483.083 247.957 229.156 481.996 248.764 228.993 481.225 248.85 229.166 
454.948 252.487 228.881 464.993 251.056 230.107 475.871 251.593 229.061 
475.098 251.663 229.258 477.719 251.016 228.86 469.889 254.42 228.988 
469.068 254.508 229.164 471.891 253.59 228.944 454.062 258.394 228.614 
467.75 255.298 228.999 464.117 256.5 229.178 465.842 256.072 228.999 
461.707 257.53 229.161 462.995 257.508 228.721 457.498 260.106 228.765 
455.006 262.034 228.51 453.576 263.106 228.451 453.678 263.146 228.39 
453.774 263.067 228.426 453.581 263.157 228.395 508.999 240.194 228.853 
508.112 241.125 229.202 508.917 241.971 228.939 507.833 242.98 229.219 
505.655 244.196 229.159 508.059 243.845 228.991 477.427 248.488 229.792 
459.226 254.952 229.947 460.714 255.442 229.914 467.562 254.431 229.502 
454.727 258.259 229.066 455.865 257.474 229.443 456.857 258.437 229.461 
454.384 260.563 228.905 455.992 259.455 229.253 457.994 258.556 229.374 
453.925 261.563 228.699 457.098 259.387 229.214 454.04 262.235 228.66 
454.839 261.536 228.8 453.657 263.009 228.49 509.146 244.402 228.055 
502.306 238.09 228.469 
POLYGONS 708 2832
3 0 1 2 
3 2 66 0 
3 3 1 4 
3 2 1 5 
3 5 1 3 
3 5 72 2 
3 5 3 84 
3 6 5 84 
3 72 5 6 
3 89 11 7 
3 89 8 10 
3 89 10 11 
3 9 7 100 
3 100 7 12 
3 7 11 14 
3 12 7 14 
3 10 8 16 
3 14 11 10 
3 12 14 170 
3 8 13 17 
3 15 8 17 
3 16 8 15 
3 10 16 106 
3 106 14 10 
3 105 106 16 
3 15 17 18 
3 16 15 18 
3 109 19 16 
3 105 16 19 
3 24 21 17 
3 20 17 21 
3 18 17 22 
3 22 17 20 
3 20 21 22 
3 18 22 111 
3 23 21 24 
3 22 21 25 
3 25 21 23 
3 25 116 22 
3 27 23 24 
3 26 27 24 
3 27 28 25 
3 27 25 23 
3 116 25 28 
3 27 26 29 
3 120 30 31 
3 31 35 33 
3 33 32 34 
3 32 33 35 
3 36 34 32 
3 36 32 37 
3 36 37 127 
3 31 30 46 
3 127 37 38 
3 45 39 130 
3 31 46 66 
3 35 31 66 
3 32 35 47 
3 47 35 66 
3 37 32 47 
3 131 40 37 
3 131 37 47 
3 41 42 43 
3 38 37 40 
3 41 43 44 
3 129 45 216 
3 46 124 65 
3 30 124 46 
3 42 48 43 
3 44 43 48 
3 50 51 49 
3 51 53 52 
3 49 51 52 
3 52 53 54 
3 54 60 141 
3 141 55 142 
3 64 57 143 
3 56 64 143 
3 58 61 135 
3 130 136 45 
3 66 46 65 
3 60 54 53 
3 55 141 60 
3 64 56 142 
3 59 216 45 
3 65 59 74 
3 51 50 62 
3 142 55 63 
3 68 58 57 
3 61 58 68 
3 59 45 69 
3 66 1 0 
3 135 61 68 
3 136 135 78 
3 45 136 78 
3 69 45 78 
3 65 74 70 
3 66 65 1 
3 71 62 67 
3 60 53 86 
3 55 60 86 
3 63 55 86 
3 64 142 63 
3 135 68 78 
3 59 69 74 
3 82 65 70 
3 1 65 4 
3 66 2 73 
3 51 62 71 
3 86 53 51 
3 64 63 99 
3 57 64 68 
3 74 69 80 
3 70 74 75 
3 82 70 76 
3 4 65 82 
3 2 72 73 
3 63 86 99 
3 79 78 91 
3 69 78 79 
3 75 74 149 
3 70 75 81 
3 76 70 81 
3 3 77 84 
3 4 77 3 
3 6 84 85 
3 72 6 85 
3 72 85 152 
3 73 72 152 
3 68 64 90 
3 69 79 163 
3 76 81 155 
3 76 87 82 
3 157 83 82 
3 4 82 83 
3 77 4 83 
3 77 88 84 
3 78 68 93 
3 91 78 93 
3 80 69 163 
3 157 82 87 
3 89 71 67 
3 51 71 86 
3 86 71 89 
3 99 86 95 
3 90 64 99 
3 79 91 252 
3 92 79 252 
3 163 79 92 
3 90 99 98 
3 93 68 90 
3 252 91 93 
3 8 67 96 
3 89 67 8 
3 86 89 7 
3 95 86 7 
3 97 99 95 
3 93 90 252 
3 252 90 94 
3 252 94 256 
3 95 7 9 
3 98 99 166 
3 94 90 98 
3 101 95 9 
3 97 95 166 
3 166 95 101 
3 99 97 166 
3 8 96 13 
3 100 12 103 
3 100 103 9 
3 101 9 102 
3 102 9 103 
3 13 108 17 
3 103 12 170 
3 104 14 107 
3 107 14 106 
3 170 14 104 
3 17 108 24 
3 18 113 16 
3 16 113 109 
3 105 19 109 
3 108 26 24 
3 111 22 110 
3 111 112 18 
3 112 113 18 
3 22 116 110 
3 116 174 111 
3 116 111 110 
3 112 111 174 
3 114 112 174 
3 113 112 114 
3 28 27 115 
3 26 175 117 
3 29 26 117 
3 115 27 29 
3 115 29 118 
3 118 29 117 
3 28 115 118 
3 30 119 183 
3 119 30 120 
3 31 121 120 
3 33 122 31 
3 31 122 121 
3 122 33 34 
3 123 122 34 
3 34 125 123 
3 36 125 34 
3 125 36 127 
3 126 125 127 
3 128 127 38 
3 39 129 130 
3 129 39 45 
3 40 131 132 
3 41 133 42 
3 40 128 38 
3 40 132 128 
3 133 41 44 
3 134 133 44 
3 124 59 65 
3 47 218 131 
3 48 42 137 
3 134 44 48 
3 137 134 48 
3 49 138 139 
3 50 49 139 
3 49 140 138 
3 52 140 49 
3 52 221 140 
3 54 221 52 
3 141 221 54 
3 142 224 141 
3 58 227 57 
3 59 229 216 
3 218 47 144 
3 139 145 50 
3 47 66 144 
3 50 145 62 
3 144 66 146 
3 66 73 146 
3 62 145 67 
3 145 147 67 
3 146 73 148 
3 74 80 149 
3 85 151 152 
3 148 73 152 
3 80 254 239 
3 75 150 153 
3 75 153 154 
3 81 75 154 
3 81 154 155 
3 76 155 156 
3 156 87 76 
3 83 157 246 
3 83 246 88 
3 77 83 88 
3 85 159 160 
3 84 159 85 
3 160 356 85 
3 80 163 254 
3 87 156 161 
3 161 157 87 
3 88 158 162 
3 159 84 88 
3 162 159 88 
3 92 252 253 
3 92 253 163 
3 67 147 96 
3 147 164 96 
3 252 256 255 
3 94 259 165 
3 256 94 165 
3 98 166 260 
3 94 98 259 
3 164 169 96 
3 101 102 167 
3 166 101 167 
3 166 167 168 
3 96 169 13 
3 102 103 267 
3 13 169 108 
3 103 170 269 
3 103 269 171 
3 171 267 103 
3 169 173 108 
3 269 170 104 
3 107 106 270 
3 270 104 107 
3 105 109 172 
3 172 106 105 
3 108 173 26 
3 172 109 113 
3 116 272 174 
3 172 113 114 
3 174 172 114 
3 26 173 175 
3 116 176 272 
3 28 176 116 
3 117 175 273 
3 118 117 274 
3 117 273 274 
3 176 28 118 
3 274 176 118 
3 191 177 178 
3 191 179 177 
3 177 179 180 
3 179 181 357 
3 119 182 183 
3 119 185 184 
3 119 184 182 
3 184 185 186 
3 186 185 187 
3 196 189 190 
3 188 196 190 
3 189 191 178 
3 190 189 178 
3 181 179 191 
3 30 181 191 
3 181 30 183 
3 119 120 185 
3 121 185 120 
3 185 192 187 
3 185 121 192 
3 122 123 121 
3 121 123 192 
3 189 196 198 
3 198 196 197 
3 191 189 198 
3 30 191 124 
3 123 199 193 
3 125 199 123 
3 126 199 125 
3 212 200 194 
3 200 201 194 
3 194 201 202 
3 195 194 202 
3 195 203 196 
3 197 196 203 
3 198 197 59 
3 191 198 124 
3 126 127 199 
3 199 127 128 
3 199 128 204 
3 205 206 207 
3 205 208 206 
3 208 209 210 
3 206 208 210 
3 209 211 210 
3 210 211 212 
3 212 211 213 
3 200 212 213 
3 214 200 213 
3 201 200 214 
3 215 201 214 
3 202 201 215 
3 195 202 130 
3 129 195 130 
3 129 203 195 
3 216 203 129 
3 217 203 216 
3 124 198 59 
3 132 131 218 
3 128 218 204 
3 128 132 218 
3 204 218 219 
3 42 133 218 
3 219 218 133 
3 219 133 134 
3 220 219 134 
3 221 222 223 
3 221 141 207 
3 222 221 207 
3 207 141 205 
3 205 141 224 
3 208 205 225 
3 225 205 224 
3 226 208 225 
3 209 208 227 
3 227 208 226 
3 211 209 227 
3 228 211 227 
3 213 211 228 
3 214 213 58 
3 58 213 228 
3 215 214 135 
3 136 215 135 
3 136 202 215 
3 130 202 136 
3 203 217 229 
3 229 217 216 
3 197 203 229 
3 137 218 230 
3 137 42 218 
3 230 218 231 
3 220 134 137 
3 230 220 137 
3 138 232 233 
3 139 138 233 
3 140 234 138 
3 138 234 232 
3 140 235 234 
3 221 235 140 
3 221 223 235 
3 142 225 224 
3 56 225 142 
3 226 225 56 
3 143 226 56 
3 57 226 143 
3 227 226 57 
3 58 228 227 
3 135 214 58 
3 59 197 229 
3 218 144 231 
3 231 144 236 
3 139 233 145 
3 236 144 238 
3 144 146 238 
3 233 237 145 
3 238 146 241 
3 145 237 147 
3 146 148 241 
3 80 239 149 
3 149 240 75 
3 239 240 149 
3 75 240 150 
3 356 241 152 
3 241 148 152 
3 242 239 305 
3 240 239 242 
3 243 240 242 
3 244 243 250 
3 153 243 244 
3 153 240 243 
3 153 150 240 
3 250 153 244 
3 250 154 153 
3 155 154 245 
3 154 250 245 
3 155 245 246 
3 156 155 246 
3 88 246 247 
3 246 308 247 
3 88 247 248 
3 248 158 88 
3 251 158 248 
3 159 249 160 
3 241 356 160 
3 249 241 160 
3 156 246 161 
3 246 157 161 
3 162 158 251 
3 249 159 162 
3 251 249 162 
3 163 253 254 
3 147 237 164 
3 237 264 164 
3 255 256 258 
3 256 257 258 
3 261 165 259 
3 256 165 257 
3 257 165 261 
3 259 98 261 
3 98 260 261 
3 260 166 262 
3 263 260 262 
3 266 166 265 
3 164 264 169 
3 264 323 169 
3 168 167 266 
3 167 268 266 
3 265 166 168 
3 265 168 266 
3 102 267 268 
3 268 167 102 
3 171 269 268 
3 267 171 268 
3 169 323 173 
3 323 331 173 
3 104 270 269 
3 172 332 330 
3 172 330 329 
3 270 106 172 
3 270 172 329 
3 174 272 332 
3 332 172 174 
3 173 271 175 
3 175 271 273 
3 272 176 274 
3 178 177 275 
3 177 180 276 
3 275 177 276 
3 183 182 277 
3 277 182 184 
3 188 190 275 
3 275 190 178 
3 180 278 276 
3 180 181 278 
3 181 183 279 
3 277 279 183 
3 186 277 184 
3 187 192 280 
3 187 280 186 
3 192 123 281 
3 280 192 281 
3 123 193 281 
3 194 195 284 
3 196 188 282 
3 275 286 188 
3 279 278 181 
3 283 212 284 
3 212 194 284 
3 195 282 284 
3 282 195 196 
3 286 285 188 
3 276 287 275 
3 277 288 279 
3 186 288 277 
3 206 210 283 
3 283 210 212 
3 285 282 188 
3 278 287 276 
3 280 288 186 
3 281 335 280 
3 281 193 335 
3 199 335 193 
3 204 219 289 
3 204 289 199 
3 219 220 289 
3 222 290 223 
3 222 207 291 
3 207 206 291 
3 283 298 206 
3 282 299 284 
3 286 302 285 
3 287 286 275 
3 278 302 287 
3 279 302 278 
3 288 294 279 
3 280 294 288 
3 230 231 335 
3 230 335 289 
3 289 335 199 
3 220 230 289 
3 232 293 233 
3 296 235 301 
3 235 223 297 
3 301 235 297 
3 223 290 297 
3 292 299 282 
3 285 292 282 
3 287 302 286 
3 295 335 236 
3 335 231 236 
3 235 296 234 
3 296 232 234 
3 222 297 290 
3 206 298 291 
3 285 305 292 
3 302 279 294 
3 337 295 236 
3 293 300 233 
3 232 300 293 
3 296 300 232 
3 292 305 299 
3 302 305 285 
3 236 238 337 
3 300 237 233 
3 303 337 238 
3 304 283 284 
3 284 299 304 
3 305 309 299 
3 296 315 300 
3 301 315 296 
3 283 341 298 
3 307 306 302 
3 340 238 241 
3 300 315 237 
3 291 297 222 
3 242 305 302 
3 306 250 302 
3 250 243 302 
3 340 249 251 
3 241 249 340 
3 291 316 297 
3 341 291 298 
3 309 311 299 
3 305 239 309 
3 243 242 302 
3 245 250 306 
3 307 245 306 
3 246 245 307 
3 310 246 307 
3 246 310 308 
3 247 308 248 
3 248 308 251 
3 315 264 237 
3 297 315 301 
3 316 315 297 
3 239 254 309 
3 311 253 312 
3 254 253 311 
3 309 254 311 
3 316 343 315 
3 341 316 291 
3 313 258 314 
3 312 258 313 
3 252 255 258 
3 252 258 253 
3 253 258 312 
3 315 345 264 
3 342 315 343 
3 314 261 319 
3 258 261 314 
3 345 315 342 
3 319 261 317 
3 258 257 261 
3 318 262 322 
3 263 262 318 
3 260 263 317 
3 317 263 318 
3 261 260 317 
3 345 323 264 
3 321 268 324 
3 321 320 268 
3 322 266 320 
3 262 266 322 
3 166 266 262 
3 325 326 268 
3 266 268 320 
3 324 268 326 
3 269 328 325 
3 268 269 325 
3 323 351 331 
3 327 269 270 
3 269 327 328 
3 327 270 329 
3 173 331 271 
3 330 332 333 
3 271 331 334 
3 273 271 334 
3 332 274 334 
3 334 274 273 
3 272 274 332 
3 294 280 336 
3 336 280 335 
3 336 339 294 
3 295 336 335 
3 336 337 339 
3 295 337 336 
3 337 338 339 
3 294 339 302 
3 303 338 337 
3 338 340 339 
3 303 340 338 
3 339 310 307 
3 302 339 307 
3 340 308 339 
3 303 238 340 
3 308 310 339 
3 340 251 308 
3 341 283 314 
3 304 314 283 
3 299 311 304 
3 311 312 304 
3 304 313 314 
3 312 313 304 
3 316 341 322 
3 322 344 316 
3 341 314 319 
3 318 322 341 
3 317 318 341 
3 319 317 341 
3 345 342 346 
3 316 325 343 
3 322 320 344 
3 343 327 342 
3 344 326 316 
3 320 321 344 
3 342 350 346 
3 327 350 342 
3 325 327 343 
3 326 325 316 
3 344 324 326 
3 321 324 344 
3 345 348 323 
3 346 349 345 
3 350 347 346 
3 325 328 327 
3 349 348 345 
3 347 352 346 
3 352 349 346 
3 350 352 347 
3 348 351 323 
3 329 351 348 
3 350 329 352 
3 327 329 350 
3 351 353 331 
3 329 354 351 
3 352 329 349 
3 354 353 351 
3 349 329 348 
3 353 355 331 
3 354 330 353 
3 329 330 354 
3 353 330 355 
3 333 332 331 
3 333 331 330 
3 330 331 355 
3 332 334 331 

POINT_DATA 358
SCALARS scalars float
LOOKUP_TABLE default
1 1 1 1 1 1 1 1 1 
1 1 1 1 1 1 1 1 1 
1 1 1 1 1 1 1 1 1 
1 1 1 1 1 1 1 1 1 
1 1 1 1 1 1 1 1 1 
1 1 1 1 1 1 1 1 1 
1 1 1 1 1 1 1 1 1 
1 1 1 1 1 1 1 1 1 
1 1 1 1 1 1 1 1 1 
1 1 1 1 1 1 1 1 1 
1 1 1 1 1 1 1 1 1 
1 1 1 1 1 1 1 1 1 
1 1 1 1 1 1 1 1 1 
1 1 1 1 1 1 1 1 1 
1 1 1 1 1 1 1 1 1 
1 1 1 1 1 1 1 1 1 
1 1 1 1 1 1 1 1 1 
1 1 1 1 1 1 1 1 1 
1 1 1 1 1 1 1 1 1 
1 1 1 1 1 1 1 1 1 
1 1 1 1 1 1 1 1 1 
1 1 1 1 1 1 1 1 1 
1 1 1 1 1 1 1 1 1 
1 1 1 1 1 1 1 1 1 
1 1 1 1 1 1 1 1 1 
1 1 1 1 1 1 1 1 1 
1 1 1 1 1 1 1 1 1 
1 1 1 1 1 1 1 1 1 
1 1 1 1 1 1 1 1 1 
1 1 1 1 1 1 1 1 1 
1 1 1 1 1 1 1 1 1 
1 1 1 1 1 1 1 1 1 
1 1 1 1 1 1 1 1 1 
1 1 1 1 1 1 1 1 1 
1 1 1 1 1 1 1 1 1 
1 1 1 1 1 1 1 1 1 
1 1 1 1 1 1 1 1 1 
1 1 1 1 1 1 1 1 1 
1 1 1 1 1 1 1 1 1 
1 1 1 1 1 1 1 
NORMALS Normals float
0.264899 -0.0994279 -0.959136 0.0926756 0.047363 -0.994569 0.485123 0.124054 -0.865602 
0.101611 0.363848 -0.9259 -0.0194687 0.443844 -0.895892 0.267961 0.317961 -0.909449 
0.40844 0.452761 -0.79258 0.100638 0.185735 -0.977433 -0.413659 -0.0126657 -0.910344 
0.295386 0.526603 -0.797143 0.0065359 0.216082 -0.976353 0.0898138 0.230863 -0.968832 
0.204671 0.518928 -0.829954 -0.857551 -0.0742786 -0.509007 0.234886 0.524394 -0.818438 
-0.20981 -0.0033168 -0.977737 0.136005 0.272624 -0.952459 -0.540806 -0.0819608 -0.837144 
-0.0322736 0.192545 -0.980757 0.222557 0.38904 -0.893933 -0.0769489 -0.0289892 -0.996614 
-0.607809 0.0474385 -0.792665 -0.0580892 0.16986 -0.983755 -0.673383 0.0736111 -0.73562 
-0.896248 0.0321428 -0.442387 -0.263307 0.15629 -0.951968 -0.918338 0.225764 -0.325094 
-0.505864 0.222832 -0.833335 0.0831569 0.36979 -0.925387 -0.471825 0.474086 -0.743387 
-0.0508518 -0.732139 -0.679254 0.0765942 -0.523879 -0.848342 0.199018 -0.36687 -0.908734 
0.158124 -0.635382 -0.755835 0.302992 -0.840651 -0.44889 0.102511 -0.205825 -0.973205 
0.372998 -0.623908 -0.68674 0.265615 -0.175732 -0.947928 0.604618 -0.307156 -0.73491 
0.0685427 -0.506628 -0.859436 0.537705 -0.194995 -0.820275 -0.0229293 -0.489354 -0.871784 
0.344002 0.724225 -0.59763 0.644718 0.32925 0.689879 -0.170495 -0.897154 0.407488 
0.0144327 -0.287125 -0.957784 0.0356132 -0.191816 -0.980785 0.463761 0.0244387 -0.885623 
0.217346 0.426593 0.87794 -0.455497 -0.837522 -0.301793 -0.535472 -0.495845 -0.683672 
-0.202705 -0.471065 -0.858492 -0.207733 -0.889428 -0.407141 -0.0995272 -0.543754 -0.833322 
-0.104907 -0.820406 -0.562075 -0.0691535 -0.437949 -0.896336 -0.00261423 -0.647377 -0.762166 
-0.0170976 -0.574751 -0.81815 -0.077132 -0.561543 -0.823845 0.0241506 -0.237676 -0.971044 
-0.0610033 -0.500723 -0.863455 0.114856 -0.157405 -0.980832 -0.555528 -0.249792 -0.793091 
-0.00742165 -0.223258 -0.974731 -0.00474923 -0.221458 -0.975158 -0.00828351 0.0861165 -0.996251 
0.434227 -0.053654 -0.899204 -0.768931 -0.0860601 -0.633513 0.0166846 -0.00709084 -0.999836 
0.130469 0.25277 -0.958689 0.0102414 0.400409 -0.916279 -0.313612 -0.120572 -0.941865 
0.670681 0.319506 -0.669405 0.869574 0.184347 -0.458101 0.0783875 0.402893 -0.911884 
0.00173886 0.858814 -0.512285 -0.033373 0.667082 -0.744236 0.0676813 0.616268 -0.784623 
0.0143719 0.162542 -0.986597 0.274971 0.41334 -0.868067 0.169832 0.810748 -0.560219 
-0.0361449 0.782453 -0.62166 0.0271975 0.567086 -0.82321 0.0333516 0.849751 -0.526129 
0.267905 0.637254 -0.722589 0.575777 0.541849 -0.612275 -0.0568274 -0.202429 -0.977647 
-0.00814142 0.837165 -0.54689 0.0778803 0.937347 -0.339582 -0.182382 0.0121647 -0.983153 
0.110717 0.377832 -0.91923 0.289132 0.477699 -0.829582 0.39466 0.588384 -0.705725 
0.0426911 0.662751 -0.747622 0.249291 0.535264 -0.80706 0.195055 0.23305 -0.952702 
-0.908037 -0.0888713 -0.409353 0.143751 0.562555 -0.814167 0.316608 0.691694 -0.649091 
0.181538 0.188689 -0.965112 0.307406 0.564721 -0.765893 0.354269 0.664314 -0.658164 
0.361648 0.849324 -0.384524 0.341348 0.82773 -0.445358 0.467707 0.832429 -0.297172 
0.411314 0.528034 -0.742967 0.354212 0.655397 -0.667075 0.453287 0.803097 -0.386739 
-0.993024 -0.0464572 -0.108378 0.314569 0.705705 -0.634844 0.0179133 0.337804 -0.941046 
0.203383 0.441264 -0.874026 0.222693 0.557044 -0.800069 0.374937 0.579512 -0.723594 
0.364343 0.755855 -0.544002 -0.0696129 0.489449 -0.869249 0.203269 0.50702 -0.837623 
-0.500782 0.665539 -0.553421 0.0500086 0.681413 -0.730189 -0.0040841 -0.99493 -0.100484 
0.101722 -0.875873 -0.471698 0.206998 -0.955131 -0.21184 0.196106 -0.917892 -0.344989 
0.275831 -0.89727 0.344709 -0.0895552 -0.43934 -0.893846 0.446476 -0.893319 -0.051384 
0.597182 -0.797932 -0.081721 0.609928 -0.55692 -0.563762 0.864645 -0.488098 -0.118949 
-0.0216973 -0.686568 -0.726742 -0.0728916 -0.641407 -0.763731 0.539044 -0.0148976 -0.842146 
0.802523 -0.306468 -0.511893 -0.0939242 -0.746887 -0.658284 0.0379415 -0.480482 0.876184 
0.0699475 -0.381982 -0.921519 -0.0378342 -0.508619 -0.86016 0.414365 0.743733 0.524561 
-0.608299 -0.749551 0.261046 -0.752301 -0.625677 -0.20633 -0.328242 -0.924386 0.194339 
-0.171073 -0.856254 -0.487405 0.0137493 -0.615556 -0.787974 0.0205345 -0.628693 -0.777383 
0.974898 0.167025 -0.147229 -0.918759 -0.32375 -0.22598 0.989522 0.144363 -0.00212732 
-0.988503 -0.130167 -0.0769369 0.956096 0.282838 0.0767033 0.0697466 0.899451 -0.431421 
-0.0168049 0.929675 -0.367998 -0.218849 -0.497468 -0.839423 0.861651 0.377324 -0.339387 
0.0103624 0.999629 -0.0252055 -0.0107784 0.997781 -0.0657026 -0.0821545 0.992508 -0.09044 
-0.0882611 0.989294 -0.116217 0.0894348 0.92817 -0.361251 0.0161189 0.999859 -0.00462512 
0.501918 0.863506 -0.0493407 0.70329 0.707356 0.0709358 0.0047475 0.992934 -0.118569 
0.310517 0.933081 0.181491 0.353871 0.719915 -0.597075 -0.993253 -0.0971966 0.0632539 
0.373007 0.87853 -0.298414 0.323792 0.768287 -0.552172 0.381529 0.875297 -0.297137 
0.316284 0.836284 -0.447877 -0.983742 -0.104602 0.14598 0.379173 0.819716 -0.429294 
0.32346 0.945859 -0.0268921 0.536271 0.842214 -0.0555757 -0.905162 -0.000276033 0.425067 
0.4285 0.795133 -0.429128 -0.922727 0.384143 -0.0317641 0.239748 0.688192 -0.684772 
-0.137069 -0.905415 0.401791 -0.184678 -0.906998 0.378483 -0.0470228 -0.783586 -0.619502 
-0.0359498 -0.828944 0.558175 -0.0116769 -0.978445 -0.206176 -0.074217 -0.899331 0.430924 
-0.107473 -0.971087 0.213164 0.0165804 -0.96014 0.279028 0.176048 -0.980916 0.0825269 
0.0728135 -0.758734 0.647318 0.193674 -0.728274 0.657349 -0.122937 -0.791408 0.598799 
-0.192927 -0.97907 -0.0648114 -0.171679 -0.954758 0.242824 -0.126347 -0.87175 -0.473379 
0.255539 -0.852123 0.456712 0.26481 -0.607088 0.749213 -0.0862303 -0.989386 0.116963 
-0.094636 -0.98765 -0.124867 -0.159115 -0.969396 0.186959 -0.070948 -0.832804 -0.549002 
-0.150106 -0.816322 -0.557751 0.488784 -0.60199 0.631426 -0.112088 -0.988545 -0.101065 
-0.128969 -0.92502 -0.357357 -0.059603 -0.791315 -0.608496 -0.0273928 -0.925956 -0.376637 
0.643953 -0.629461 0.43486 -0.183042 -0.983085 0.00631564 -0.081432 -0.892188 0.444264 
-0.193701 -0.924406 0.328563 -0.0780902 -0.995405 -0.0554186 -0.0827594 -0.994045 -0.0708919 
-0.0962634 -0.977666 0.18682 -0.119322 -0.984515 -0.128425 -0.102959 -0.955834 0.275282 
-0.0804809 -0.929876 -0.358961 -0.112607 -0.808425 -0.577728 -0.0869749 -0.760755 -0.643186 
-0.0668636 -0.516947 -0.853402 0.148125 -0.889169 -0.43294 0.842316 0.0244484 -0.538429 
0.152805 -0.951658 0.266454 0.192997 -0.0822055 0.97775 -0.187119 -0.981146 0.0483653 
-0.155812 -0.758654 0.632587 -0.273486 -0.811864 0.515831 -0.179955 -0.923573 -0.33857 
-0.0663365 -0.913405 -0.40161 -0.0514467 -0.845111 -0.532109 -0.0676883 -0.853123 -0.5173 
-0.0664019 -0.791978 -0.606929 0.119725 -0.635135 -0.763066 0.600111 0.289774 0.745586 
0.829201 0.22508 0.511629 -0.4812 -0.448692 0.753075 -0.850402 -0.396452 0.345893 
-0.343565 -0.627027 0.699143 -0.147282 -0.754439 0.639632 0.81545 0.071468 0.574398 
-0.900105 -0.15722 0.406315 0.799616 0.175259 0.574367 0.142062 0.955799 0.257422 
-0.000498146 0.998866 -0.0476102 0.786302 0.39734 0.473128 0.0409571 0.807438 0.588529 
-0.0545712 0.849507 0.524747 -0.0398215 0.987058 0.155344 -0.0278407 0.897398 0.440342 
-0.0360805 0.93345 0.356887 0.01422 0.924188 0.381672 -0.00891588 0.974605 0.223755 
0.504338 0.656292 0.561181 -0.0243417 0.803759 0.594457 0.242158 0.751526 0.613652 
0.368213 0.796739 -0.479193 0.374255 0.926548 0.0379738 0.331304 0.900304 0.282296 
0.439137 0.898222 -0.0188974 0.3771 0.842526 -0.384636 0.380345 0.902131 0.203709 
0.392127 0.793233 0.465852 0.34826 0.854435 -0.385558 0.455001 0.890474 -0.00555174 
0.393211 0.880258 0.265576 0.406538 0.857272 0.315928 0.354057 0.77514 0.52326 
-0.848587 -0.143627 0.509188 0.408696 0.904479 -0.122007 0.398294 0.882268 0.250927 
0.355997 0.932547 -0.0601808 0.337044 0.839658 0.425882 0.390083 0.889502 0.237954 
0.467775 0.849719 0.243237 -0.728804 0.422341 0.538955 0.43598 0.813567 -0.384746 
-0.542363 0.830664 -0.125855 0.0943609 0.902435 -0.420365 -0.110657 -0.640392 0.760035 
-0.0473268 -0.666945 0.743602 -0.00830258 -0.671072 0.741345 0.0486113 -0.530247 0.846449 
-0.0446236 -0.506642 0.861001 0.198923 -0.410878 0.889724 0.198169 -0.62758 0.75291 
-0.148406 -0.530027 0.834894 -0.0432429 -0.577773 0.815051 -0.0567323 -0.597766 0.79966 
-0.0301653 -0.191547 0.98102 -0.0462677 -0.261218 0.96417 0.0266089 -0.284275 0.958374 
0.160678 -0.312789 0.936133 0.22349 -0.317804 0.921441 -0.295172 -0.675025 0.676176 
-0.0810687 -0.437503 0.895555 0.000807695 -0.046861 0.998901 -0.725569 -0.249624 0.641278 
0.110974 -0.0617282 0.991904 0.549934 -0.0190927 0.83499 -0.166941 -0.343251 0.924288 
-0.134321 -0.384021 0.913502 -0.0108039 -0.410097 0.911978 0.0529425 0.0635423 0.996574 
-0.545717 -0.171258 0.820282 -0.0149551 -0.295228 0.95531 -0.0215336 0.137656 0.990246 
0.516525 0.207078 0.830855 0.0700635 0.122513 0.989991 0.134892 0.436046 0.889757 
-0.0594202 0.456319 0.88783 -0.0976407 0.598136 0.795424 0.0837946 0.639386 0.764307 
0.193222 0.506204 0.84049 -0.0700502 0.7015 0.709219 0.256426 0.626964 0.735637 
0.284602 0.680848 0.674868 0.270961 0.535068 0.800176 0.234251 0.438473 0.86768 
-0.277786 -0.131846 0.951552 0.0162224 0.0513031 0.998551 0.317948 0.633495 0.705403 
0.21905 0.508411 0.832788 0.311606 0.630521 0.710876 0.271487 0.552035 0.788386 
0.281033 0.526503 0.802381 0.223601 0.477437 0.849739 -0.681261 -0.104206 0.724586 
0.280982 0.636928 0.717894 0.262227 0.526571 0.808678 0.169185 0.488406 0.856059 