# vtk DataFile Version 4.2
vtk output
ASCII
DATASET POLYDATA
POINTS 640 float
415.214 267.392 226.702 414.958 267.151 226.884 414.746 267.43 226.847 
416.008 268.097 226.457 419.472 268.309 226.228 421.456 268.154 226.316 
454.615 269.541 226.352 454.545 269.171 226.532 414.788 268.335 226.766 
418.153 268.698 226.276 453.55 269.593 226.724 456.6 269.505 225.994 
457.879 269.253 225.947 477.956 268.915 225.974 425.099 269.829 226.245 
426.762 270.26 226.281 426.283 269.69 226.287 431.829 270.402 226.721 
433.987 270.825 226.798 452.51 270.812 226.55 477.519 269.886 226.06 
485.175 269.745 225.844 431.223 271.291 226.421 434.309 271.125 226.673 
449.887 271.44 227.069 475.402 270.298 226.305 429.742 271.454 226.426 
433.754 271.863 226.491 447.714 272.555 226.876 446.814 272.529 226.977 
449.853 272.364 226.634 451.615 272.048 226.433 475.955 270.858 226.563 
478.634 270.817 226.357 481.594 270.772 226.298 483.609 271.147 226.461 
484.552 270.779 226.219 492.393 270.962 226.011 496.274 270.996 226.047 
497.601 270.947 226.148 432.454 272.094 226.512 434.88 272.388 226.551 
442.842 272.644 226.978 444.213 273.03 226.906 449.308 272.778 226.646 
451.085 272.591 226.47 485.177 271.171 226.458 487.178 271.28 226.427 
494.3 271.869 226.319 494.372 271.606 226.217 441.562 273.15 226.876 
444.012 273.378 226.898 446.935 273.32 226.819 452.303 272.937 226.441 
453.27 273.134 226.517 453.535 272.772 226.382 455.242 272.496 226.383 
497.816 271.401 226.389 443.488 273.533 226.944 454.806 273.005 226.612 
505.371 263.718 227.179 468.021 265.985 227.124 505.58 264.513 227.122 
414.344 266.641 227.469 415.013 266.835 227.113 418.361 266.725 226.94 
418.679 266.401 227.333 420.668 266.585 227.375 470.135 266.317 226.801 
413.854 266.926 227.553 416.387 267.012 226.719 422.495 267.035 227.289 
457.257 267.743 226.707 457.267 267.373 227.024 459.207 267.555 226.603 
470.499 266.616 226.657 501.137 266.166 226.332 413.569 267.591 227.607 
418.609 267.422 226.447 427.304 268.292 227.092 427.13 268.179 227.19 
454.462 268.52 227.199 455.23 268.607 226.665 457.127 268.187 226.399 
467.13 267.358 226.458 505.249 266.218 227.007 425.406 268.422 226.588 
453.711 269.007 227.095 503.16 267.44 226.578 413.618 268.274 227.53 
425.719 268.873 226.405 432.29 270.159 226.953 432.581 270.052 227.128 
435.086 270.706 227.115 436.932 270.888 227.393 413.683 268.806 227.622 
418.423 269.723 226.489 429.623 269.757 226.693 414.06 269.367 227.73 
414.741 269.351 227.306 417.185 270.082 226.889 423.098 270.36 226.45 
438.286 271.804 227.002 439.329 271.83 227.148 440.41 271.576 227.67 
441.659 272.079 227.28 450.493 270.951 227.281 465.473 270.643 226.426 
467.575 270.105 226.425 472.393 270.237 226.561 502.348 269.554 226.904 
503.64 269.074 227.126 418.698 270.628 226.91 419.678 270.789 226.88 
422.782 270.859 226.701 427.257 271.423 226.55 436.88 272.209 226.722 
447.493 271.907 227.423 464.409 271.17 226.58 466.194 271.222 226.736 
466.915 271.139 226.772 501.92 269.993 226.976 419.786 271.164 227.14 
421.324 271.239 227.076 426.74 272.019 227.04 457.902 271.972 226.4 
467.365 271.525 227.105 476.308 271.223 226.867 479.089 271.486 226.995 
485.784 271.51 226.763 488.457 271.873 226.903 489.613 271.819 226.714 
423.164 271.693 227.391 431.529 272.71 226.916 437.647 273.123 226.971 
447.361 273.651 226.871 451.873 273.353 226.611 462.578 271.989 227.045 
465.479 271.842 227.146 468.065 271.802 227.537 483.298 271.667 227.213 
486.41 271.778 227.107 492.443 272.212 226.772 494.68 272.403 226.766 
494.328 272.518 226.915 437.349 273.492 227.193 438.476 273.501 227.204 
442.11 273.716 227.12 443.258 273.824 227.115 446.876 273.97 227.046 
448.75 273.91 226.959 451.453 273.733 226.838 457.598 272.801 226.923 
461 272.446 227.368 462.124 272.318 227.396 465.972 272.05 227.459 
436.886 273.771 227.456 439.308 273.834 227.481 444.551 274.214 227.346 
446.413 274.232 227.281 449.214 274.162 227.169 454.675 273.727 227.286 
505.009 261.916 227.782 505.725 261.993 227.898 505.523 261.854 227.929 
505.713 261.858 228.013 504.969 262.217 227.605 505.724 262.27 227.776 
505.881 261.978 227.989 505.998 262.087 228.036 502.371 262.247 227.49 
506.013 262.588 227.828 484.783 264.516 227.355 484.6 264.299 227.774 
486.733 264.279 227.276 486.385 264.071 227.618 487.948 263.911 227.496 
496.013 263.193 227.39 506.322 262.93 228.024 469.624 265.412 227.784 
470.59 265.357 227.835 471.197 265.312 227.939 502.123 263.533 226.874 
505.96 263.773 227.485 414.172 266.426 228.04 413.943 266.565 227.901 
415.411 266.211 228.042 418.574 266.182 227.67 419.864 266.152 227.985 
460.196 266.205 227.929 461.968 266.026 227.894 465.957 265.96 227.445 
465.772 265.776 227.891 471.829 265.423 227.813 484.063 265.24 226.782 
506.403 263.852 227.944 413.703 266.741 227.948 413.654 266.956 227.755 
422.499 266.746 227.874 456.34 267.237 227.756 457.527 267.055 227.365 
459.461 266.706 227.295 463.851 266.282 227.237 506.072 265.084 227.423 
413.488 267.268 227.81 506.399 265.128 227.898 453.518 268.998 227.37 
454.866 268.13 227.54 471.185 267.362 226.446 413.297 267.942 228.01 
428.18 268.693 227.09 466.479 268.564 226.253 505.716 266.866 227.388 
413.48 268.388 227.712 431.088 269.74 227.047 432.084 269.723 227.49 
434.891 270.468 227.37 506.064 267.033 227.962 434.091 270.25 227.432 
451.031 270.501 227.55 466.884 269.655 226.301 504.783 268.566 227.388 
449.533 271.136 227.778 462.651 270.435 226.197 503.4 269.553 227.296 
417.214 270.708 227.391 445.433 271.993 227.888 416.652 270.835 227.908 
417.936 271.021 227.516 476.16 271.434 227.183 501.587 271.141 227.725 
418.542 271.313 227.797 420.183 271.577 227.619 421.216 271.918 227.969 
422.003 271.921 227.843 425.604 272.271 227.905 476.256 271.597 227.593 
478.514 271.703 227.617 485.068 271.856 227.586 487.111 271.97 227.482 
489.896 272.407 227.852 496.751 272.525 227.1 499.664 271.881 227.515 
421.676 271.971 227.979 430.466 273.041 227.608 430.93 273.231 227.917 
431.911 273.264 227.53 456.376 273.341 227.213 466.476 272.157 227.76 
494.109 272.673 227.263 496.156 272.89 227.605 498.61 272.377 227.625 
455.313 273.797 227.734 459.099 273.085 227.801 437.607 274.155 227.991 
442.805 274.423 227.95 448.325 274.539 227.788 451.89 274.344 227.73 
504.786 261.772 227.905 505.664 261.827 228.139 503.797 261.777 227.866 
505.879 261.942 228.091 506.016 262.13 228.154 497.963 262.483 227.824 
498.693 262.382 227.802 506.133 262.402 228.227 485.209 264.105 228.106 
486.119 263.964 227.985 493.646 263.162 227.701 506.258 262.682 228.133 
506.357 263.081 228.175 477.173 265.227 228.255 489.114 263.639 227.672 
413.854 266.573 228.133 414.483 266.322 228.246 460.717 266.064 228.26 
464.403 265.782 228.304 465.439 265.742 228.314 475.622 265.402 228.029 
506.464 264.171 228.16 413.504 267.005 228.013 458.71 266.454 228.04 
455.275 267.768 227.883 413.278 267.687 228.188 452.75 269.369 227.974 
506.198 266.722 228.162 432.77 269.833 227.706 434.767 270.286 227.698 
505.899 267.486 228.066 437.586 270.792 228.141 413.515 269.141 228.24 
439.659 271.258 228.285 441.288 271.608 228.215 504.391 269.188 227.619 
505.382 268.407 228.057 446.274 271.921 228.151 504.567 269.325 228.198 
416.979 271.045 228.382 502.66 270.765 228.103 419.127 271.505 228.069 
419.818 271.629 227.944 420.981 271.928 228.161 473.705 271.702 228.171 
477.92 271.74 228.086 489.596 272.362 228.286 499.936 271.943 227.785 
500.487 271.766 227.944 501.943 271.144 228.032 502.32 270.988 228.164 
421.485 271.984 228.204 429.127 272.869 228.057 430.679 273.205 228.251 
459.615 273.007 228.024 461.289 272.68 228.265 462.37 272.543 228.223 
495.067 272.95 227.848 499.131 272.319 228.223 438.888 274.202 228.322 
495.511 272.995 228.028 496.804 272.92 228.071 498.007 272.685 227.992 
447.884 274.606 228.128 450.532 274.503 228.071 499.452 262.074 228.29 
498.854 262.182 228.465 501.227 261.842 228.251 503.167 261.727 228.421 
505.365 261.77 228.198 505.595 261.867 228.262 492.729 263.099 228.594 
492.111 263.161 228.467 499.176 262.186 228.003 490.705 263.333 228.277 
491.581 263.232 228.124 492.42 263.148 227.974 506.059 262.426 228.356 
506.35 263.328 228.371 469.338 265.391 228.323 471.84 265.249 228.286 
471.936 265.276 228.491 482.813 264.655 228.458 414.08 266.556 228.585 
413.811 266.64 228.397 414.875 266.295 228.464 418.763 266.145 228.553 
419.968 266.17 228.532 459.746 266.206 228.572 459.254 266.292 228.337 
461.215 266.017 228.607 462.997 265.877 228.639 466.187 265.79 228.784 
413.602 266.88 228.47 413.444 267.078 228.29 415.981 266.302 228.637 
417.459 266.182 228.411 420.408 266.248 228.474 456.721 266.997 228.569 
458.56 266.468 228.432 413.34 267.417 228.387 455.663 267.545 228.47 
455.214 267.795 228.279 427.998 268.429 228.417 453.352 269.005 228.285 
429.698 268.937 228.234 506.104 266.951 228.355 431.055 269.359 228.292 
435.059 270.322 228.365 436.815 270.643 228.461 505.758 267.675 228.361 
438.853 271.105 228.571 450.835 270.552 228.356 505.488 268.105 228.515 
413.517 269.236 228.438 413.528 269.228 228.637 448.747 271.421 228.262 
504.958 268.789 228.677 413.945 269.651 228.628 414.928 270.256 228.425 
414.91 270.235 228.63 443.449 271.993 228.618 447.112 271.867 228.434 
504.005 269.746 228.624 504.259 269.47 228.766 420.616 271.854 228.272 
421.937 271.976 228.406 425.409 272.223 228.613 466.818 272.218 228.439 
467.398 272.1 228.788 475.209 271.68 228.684 479.373 271.736 228.543 
481.254 271.741 228.55 485.258 271.869 228.46 501.149 271.511 228.54 
425.937 272.352 228.471 459.354 273.043 228.417 463.043 272.418 228.618 
492.658 272.659 228.49 495.328 272.967 228.27 499.746 272.033 228.624 
454.316 274.077 228.298 454.701 273.898 228.633 496.462 272.923 228.314 
497.764 272.727 228.304 435.837 274.106 228.634 442.135 274.421 228.48 
446.431 274.583 228.538 453.577 274.197 228.343 501.42 261.973 228.743 
[...]
POINT_DATA 640
SCALARS scalars float
LOOKUP_TABLE default
1 1 1 1 1 1 1 1 1 
1 1 1 1 1 1 1 1 1 
1 1 1 1 1 1 1 1 1 
1 1 1 1 1 1 1 1 1 
1 1 1 1 1 1 1 1 1 
1 1 1 1 1 1 1 1 1 
1 1 1 1 1 1 1 1 1 
1 1 1 1 1 1 1 1 1 
1 1 1 1 1 1 1 1 1 
1 1 1 1 1 1 1 1 1 
1 1 1 1 1 1 1 1 1 
1 1 1 1 1 1 1 1 1 
1 1 1 1 1 1 1 1 1 
1 1 1 1 1 1 1 1 1 
1 1 1 1 1 1 1 1 1 
1 1 1 1 1 1 1 1 1 
1 1 1 1 1 1 1 1 1 
1 1 1 1 1 1 1 1 1 
1 1 1 1 1 1 1 1 1 
1 1 1 1 1 1 1 1 1 
1 1 1 1 1 1 1 1 1 
1 1 1 1 1 1 1 1 1 
1 1 1 1 1 1 1 1 1 
1 1 1 1 1 1 1 1 1 
1 1 1 1 1 1 1 1 1 
1 1 1 1 1 1 1 1 1 
1 1 1 1 1 1 1 1 1 
1 1 1 1 1 1 1 1 1 
1 1 1 1 1 1 1 1 1 
1 1 1 1 1 1 1 1 1 
1 1 1 1 1 1 1 1 1 
1 1 1 1 1 1 1 1 1 
1 1 1 1 1 1 1 1 1 
1 1 1 1 1 1 1 1 1 
1 1 1 1 1 1 1 1 1 
1 1 1 1 1 1 1 1 1 
1 1 1 1 1 1 1 1 1 
1 1 1 1 1 1 1 1 1 
1 1 1 1 1 1 1 1 1 
1 1 1 1 1 1 1 1 1 
1 1 1 1 1 1 1 1 1 
1 1 1 1 1 1 1 1 1 
1 1 1 1 1 1 1 1 1 
1 1 1 1 1 1 1 1 1 
1 1 1 1 1 1 1 1 1 
1 1 1 1 1 1 1 1 1 
1 1 1 1 1 1 1 1 1 
1 1 1 1 1 1 1 1 1 
1 1 1 1 1 1 1 1 1 
1 1 1 1 1 1 1 1 1 
1 1 1 1 1 1 1 1 1 
1 1 1 1 1 1 1 1 1 
1 1 1 1 1 1 1 1 1 
1 1 1 1 1 1 1 1 1 
1 1 1 1 1 1 1 1 1 
1 1 1 1 1 1 1 1 1 
1 1 1 1 1 1 1 1 1 
1 1 1 1 1 1 1 1 1 
1 1 1 1 1 1 1 1 1 
1 1 1 1 1 1 1 1 1 
1 1 1 1 1 1 1 1 1 
1 1 1 1 1 1 1 1 1 
1 1 1 1 1 1 1 1 1 
1 1 1 1 1 1 1 1 1 
1 1 1 1 1 1 1 1 1 
1 1 1 1 1 1 1 1 1 
1 1 1 1 1 1 1 1 1 
1 1 1 1 1 1 1 1 1 
1 1 1 1 1 1 1 1 1 
1 1 1 1 1 1 1 1 1 
1 1 1 1 1 1 1 1 1 
1 
NORMALS Normals float
-0.19144 -0.320042 -0.92786 -0.321903 -0.512241 -0.796233 -0.440397 -0.310701 -0.842327 
-0.13177 -0.0557953 -0.989709 0.0303096 -0.168184 -0.98529 0.040223 -0.291127 -0.955838 
-0.293782 -0.411414 -0.862804 -0.333624 -0.502072 -0.797884 -0.361183 0.159179 -0.918808 
-0.108301 0.0763176 -0.991184 -0.390532 -0.166968 -0.905321 -0.146275 -0.0196973 -0.989048 
0.00877971 -0.150345 -0.988595 0.00475095 0.0046778 -0.999978 -0.051683 0.142406 -0.988458 
-0.045439 0.0308278 -0.998491 0.020722 -0.091693 -0.995572 0.161405 -0.304204 -0.938833 
0.16655 -0.681817 -0.712311 -0.343818 -0.457095 -0.820277 -0.0140977 0.253397 -0.96726 
0.0155895 0.251551 -0.967719 0.0556176 -0.148366 -0.987367 0.0973762 -0.357656 -0.928763 
-0.243966 -0.511674 -0.823815 -0.168252 0.411435 -0.895775 -0.0323885 0.21787 -0.97544 
0.028078 0.0880803 -0.995718 -0.145598 -0.478321 -0.866031 -0.0527736 -0.444477 -0.894234 
-0.154284 -0.124542 -0.980146 -0.0746527 -0.101072 -0.992074 -0.153837 0.628199 -0.762693 
-0.00531796 0.429943 -0.90284 0.0136206 0.712312 -0.701731 -0.0115461 0.613813 -0.789367 
-0.129929 0.724329 -0.677102 -0.01964 0.138395 -0.990182 0.0724216 0.260416 -0.962777 
0.0216818 0.0473253 -0.998644 0.0321863 0.10835 -0.993592 0.018053 0.254382 -0.966935 
-0.00813997 -0.133216 -0.991054 0.0316653 -0.279807 -0.959534 -0.121854 -0.163937 -0.978916 
-0.13496 0.0106712 -0.990794 -0.183611 0.706239 -0.68375 0.0520959 0.542481 -0.838451 
0.05043 0.489908 -0.870314 0.0466367 0.42842 -0.902375 0.00689949 0.20646 -0.978431 
-0.0268621 0.211382 -0.977034 -0.0563675 0.0853031 -0.994759 0.140044 0.50492 -0.85173 
0.0183129 0.444626 -0.895529 0.115054 0.223125 -0.967976 0.0675657 0.378407 -0.92317 
0.179811 0.53704 -0.82417 -0.102716 0.312538 -0.944336 0.124487 0.37436 -0.918889 
0.199551 -0.358441 -0.911976 -0.0666742 -0.6455 -0.760844 0.480348 -0.0712505 -0.874179 
-0.287413 -0.733418 -0.616029 -0.203479 -0.667349 -0.716409 0.027812 -0.721345 -0.692017 
0.0872781 -0.722362 -0.685985 0.178185 -0.854113 -0.488611 -0.0645975 -0.548854 -0.833418 
-0.590883 -0.413949 -0.692462 -0.066765 -0.562963 -0.823781 0.12267 -0.658798 -0.742251 
-0.0410226 -0.59611 -0.801854 -0.272425 -0.708693 -0.650798 -0.104913 -0.622182 -0.775811 
-0.0817049 -0.448027 -0.890279 0.00885461 -0.0443187 -0.998978 -0.730168 -0.116829 -0.673205 
0.0637364 -0.441063 -0.89521 0.241229 -0.629622 -0.738502 0.239973 -0.832897 -0.498694 
-0.273787 -0.72429 -0.632807 -0.296967 -0.660637 -0.689471 -0.187958 -0.532603 -0.825231 
0.0209656 -0.282852 -0.958934 0.27759 0.0281545 -0.960287 0.0607272 -0.468068 -0.881603 
-0.482134 -0.625276 -0.613659 0.18668 0.153033 -0.970428 -0.656023 0.116174 -0.745746 
0.0826037 -0.402143 -0.911843 0.302609 -0.510537 -0.804847 0.337349 -0.631208 -0.698407 
0.247577 -0.654039 -0.7148 0.210823 -0.863979 -0.457268 -0.64437 0.362404 -0.673388 
-0.0874204 0.359627 -0.928992 0.164501 -0.576959 -0.800036 -0.491491 0.695526 -0.5241 
-0.402868 0.463247 -0.789367 -0.263133 0.543105 -0.797369 0.0315388 0.357806 -0.933263 
0.142001 -0.521421 -0.841401 0.0979058 -0.407941 -0.907744 0.156507 -0.866693 -0.473655 
0.107213 -0.764013 -0.636231 -0.323989 -0.638539 -0.698068 0.00935856 0.294237 -0.955687 
0.0838179 0.288362 -0.953846 -0.035199 0.409411 -0.911671 0.283519 0.399991 -0.871564 
0.288964 0.401546 -0.869058 -0.21157 0.567226 -0.795922 -0.000733163 0.559964 -0.828517 
-0.00966038 0.587641 -0.809064 -0.156071 0.382452 -0.910699 0.132793 -0.140455 -0.981141 
-0.169422 -0.86596 -0.470542 0.0340393 0.373684 -0.926931 0.0947927 0.506932 -0.856758 
0.0941323 0.479743 -0.872345 0.228448 0.443692 -0.866573 -0.0268535 0.736129 -0.676309 
-0.0873072 0.710321 -0.698443 -0.118187 0.761381 -0.637441 0.0701985 0.421071 -0.904307 
0.178703 0.636403 -0.750371 -0.00137139 0.813167 -0.582029 -0.0573349 0.83107 -0.553205 
-0.161733 0.871511 -0.462938 0.0432742 0.735354 -0.6763 -0.0750362 0.80738 -0.585241 
-0.0281054 0.678062 -0.734467 -0.093231 0.676338 -0.730668 0.0353329 0.256818 -0.965814 
0.103668 0.617241 -0.779914 0.0556052 0.389345 -0.919412 0.113431 0.759615 -0.640405 
-0.0323909 0.777093 -0.628552 0.123751 0.833325 -0.538753 -0.0175721 0.889298 -0.456991 
-0.0713616 0.916433 -0.393773 -0.12233 0.740812 -0.660479 0.0732621 0.766561 -0.637978 
0.00185137 0.865454 -0.500985 -0.0709753 0.600169 -0.796718 0.125687 0.442334 -0.888 
-0.0131193 0.509621 -0.860299 -0.124243 0.516265 -0.847369 0.124535 0.638952 -0.759099 
0.0247751 0.583764 -0.811545 0.269319 0.802562 -0.532317 0.202369 0.791158 -0.577162 
0.198333 0.882209 -0.427049 0.176037 0.90497 -0.38735 -0.052772 0.879461 -0.473036 
-0.1328 0.72443 -0.676435 0.0344509 0.651877 -0.757542 0.0161206 0.790832 -0.611821 
0.0675957 0.858649 -0.508088 -0.0791661 0.69627 -0.7134 0.0912117 0.78697 -0.610211 
0.0539282 -0.588603 -0.806622 0.372463 -0.443283 -0.815335 0.185208 -0.704428 -0.685185 
0.342353 -0.860993 -0.376145 0.106152 -0.385426 -0.916613 0.331955 -0.320456 -0.887195 
0.564193 -0.609164 -0.55732 0.795731 -0.436344 -0.42002 -0.0340527 -0.616345 -0.786739 
0.513682 -0.212945 -0.831135 -0.153294 -0.821921 -0.548586 -0.180481 -0.925827 -0.33207 
0.0248407 -0.659387 -0.751394 0.0835061 -0.937219 -0.338596 -0.134931 -0.887547 -0.440516 
-0.166016 -0.78738 -0.593693 0.895674 -0.233969 -0.37819 -0.0860865 -0.948001 -0.306405 
-0.0454174 -0.969581 -0.240518 0.0251738 -0.887327 -0.460452 -0.0125759 -0.247981 -0.968683 
0.550472 -0.528072 -0.646622 -0.315734 -0.936697 -0.151365 -0.509104 -0.758629 -0.406565 
-0.0743648 -0.982817 -0.168939 -0.0159367 -0.973016 -0.230188 0.0976798 -0.977639 -0.186228 
-0.0397776 -0.905037 -0.423468 -0.0221126 -0.928785 -0.369959 -0.151775 -0.837974 -0.52418 
-0.214136 -0.886453 -0.4103 0.0649032 -0.800693 -0.595549 -0.0812185 -0.661061 -0.745924 
0.831281 -0.205004 -0.516668 -0.725199 -0.651199 -0.223668 -0.711638 -0.485848 -0.507468 
0.228176 -0.960072 0.161855 -0.378305 -0.876235 -0.298493 -0.134762 -0.838515 -0.52795 
-0.0720468 -0.744937 -0.663233 -0.0131687 -0.832546 -0.553799 0.677067 0.0232335 -0.735555 
-0.86461 -0.250848 -0.435344 0.986007 0.135325 -0.0973477 -0.535348 -0.796719 -0.28043 
-0.401509 -0.842703 -0.358667 -0.124218 -0.129797 -0.983729 -0.984467 0.13132 -0.116532 
0.348261 -0.923783 -0.15918 0.0158023 0.00800365 -0.999843 0.622755 0.220062 -0.750832 
-0.853413 0.177876 -0.489946 0.145489 -0.792761 -0.591915 0.200401 -0.919341 -0.338601 
0.303602 -0.815778 -0.492271 0.874255 0.337468 -0.348988 0.190096 -0.936788 -0.293755 
-0.411268 -0.744695 -0.525631 0.0995918 0.152901 -0.98321 0.584396 0.44665 -0.677484 
-0.384501 -0.85385 -0.350855 0.0353279 0.193537 -0.980457 0.331787 0.511175 -0.792854 
-0.272474 0.780961 -0.562012 -0.0542455 -0.989894 -0.131024 -0.370844 0.842279 -0.391205 
-0.15416 0.68999 -0.707212 -0.0654885 0.786166 -0.614535 0.377463 0.731088 -0.568359 
-0.0879788 0.909754 -0.405719 -0.0280782 0.833833 -0.551303 -0.198416 0.894823 -0.399903 
-0.0319866 0.935153 -0.352798 -0.0932128 0.966476 -0.239241 0.0326378 0.959372 -0.28025 
-0.0462678 0.959255 -0.278727 -0.0511217 0.99105 -0.123317 -0.0847502 0.965237 -0.247253 
-0.13691 0.988681 -0.0613658 0.154255 0.739272 -0.655501 0.309466 0.746082 -0.58957 
-0.0332059 0.942378 -0.332899 -0.222894 0.881474 -0.416319 -0.152576 0.944585 -0.290655 
-0.0993558 0.927647 -0.359998 0.195446 0.75069 -0.631083 0.0574923 0.931962 -0.357968 
-0.0425643 0.944646 -0.325319 0.105844 0.977871 -0.180459 0.341944 0.84072 -0.419839 
0.255264 0.95738 -0.135148 0.155936 0.974996 -0.158328 -0.0798228 0.970176 -0.22888 
-0.0542432 0.947538 -0.315005 0.0445911 0.97641 -0.211271 0.11259 0.888155 -0.445539 
0.0244166 -0.826442 -0.562492 0.36079 -0.913582 0.187612 -0.023315 -0.779305 -0.626211 
0.605074 -0.732401 0.312209 0.765919 -0.536042 0.355003 -0.159769 -0.7633 -0.625976 
-0.199655 -0.884349 -0.421978 0.885033 -0.378254 0.271368 -0.182446 -0.959463 -0.214812 
0.0209321 -0.982197 -0.186683 -0.125058 -0.613975 -0.779356 0.939075 -0.30558 0.157352 
0.97353 -0.186326 0.132372 -0.105092 -0.985427 0.133755 -0.102896 -0.848555 -0.519006 
-0.571976 -0.820236 0.00758323 -0.235346 -0.960172 0.150605 -0.0256876 -0.953636 -0.299864 
-0.0704991 -0.993903 -0.0847794 -0.116233 -0.992336 -0.0419351 -0.0266062 -0.963224 -0.267379 
0.969022 0.0189057 0.246249 -0.878142 -0.439192 -0.189674 -0.18346 -0.890772 -0.415774 
-0.35649 -0.839248 -0.410582 -0.918353 -0.203149 -0.339643 -0.580857 -0.813204 0.0361328 
0.959777 0.280763 -0.00027715 0.269384 -0.91393 -0.303585 0.265834 -0.93911 -0.217726 
0.904712 0.418629 -0.0790361 0.227814 -0.954916 -0.190357 -0.809358 0.485699 -0.330207 
0.218165 -0.971586 0.0917869 0.154024 -0.983236 0.0975927 0.527552 0.675727 -0.514862 
0.817141 0.554429 -0.157765 -0.190517 -0.962875 0.191247 0.680674 0.724715 -0.107103 
-0.275074 0.951103 -0.140491 0.553493 0.809487 -0.195898 -0.124943 0.903641 -0.409662 
-0.265539 0.94988 0.164978 -0.169179 0.985402 -0.0190371 0.0158918 0.999839 -0.00834956 
-0.0922215 0.989104 -0.114756 -0.173619 0.963779 0.202453 0.342007 0.921117 -0.185942 
0.371294 0.818854 -0.437742 0.393353 0.86505 -0.311389 0.506227 0.853024 0.126824 
-0.0310806 0.998878 0.0357202 -0.209448 0.968899 -0.131778 -0.179495 0.98374 0.00609032 
0.293558 0.955875 -0.0112412 0.146124 0.985889 -0.0816747 0.241365 0.929792 -0.277901 
-0.0873663 0.973482 -0.211422 0.262789 0.963155 0.0572239 -0.0638409 0.997834 -0.0158307 
0.0801276 0.98995 -0.116525 0.265561 0.961871 0.065434 0.30491 0.945404 -0.115071 
-0.0123809 0.98708 -0.159748 0.0558374 0.992851 -0.105496 -0.221544 -0.972259 -0.0750405 
-0.162803 -0.980569 0.10945 -0.0865996 -0.981611 -0.170119 -0.00618845 -0.889156 0.457562 
0.0828086 -0.984926 0.151865 0.329669 -0.669368 0.665782 -0.142382 -0.925754 0.350294 
-0.173814 -0.869371 0.462582 -0.171416 -0.916013 -0.362679 -0.147865 -0.97713 0.152819 
-0.134297 -0.953215 -0.270823 -0.116356 -0.934965 -0.335113 0.703114 -0.374399 0.60453 
0.744707 -0.0696477 0.663747 -0.0739366 -0.956444 0.282397 0.0190398 -0.999451 -0.0271232 
-0.022225 -0.95818 0.285302 -0.17405 -0.952276 0.250752 -0.388236 -0.85942 0.332671 
-0.598463 -0.667038 0.443736 -0.109735 -0.915395 0.387312 -0.00534323 -0.949102 0.314923 
0.0922387 -0.937267 0.336187 -0.106128 -0.99353 -0.040437 -0.118859 -0.986146 -0.115709 
-0.0600657 -0.981212 0.183342 -0.0927714 -0.995624 -0.011254 0.00366176 -0.94864 0.316336 
-0.690954 -0.648905 0.318599 -0.881962 -0.407491 0.236842 -0.0681544 -0.923362 0.377833 
-0.041761 -0.885325 0.463093 0.251597 -0.965317 0.0697235 -0.35107 -0.919239 0.178183 
-0.264059 -0.946765 0.184144 -0.972938 -0.118931 0.198109 -0.476245 -0.803314 0.3576 
-0.535153 -0.817625 0.212369 0.334536 -0.909619 0.24633 -0.463136 -0.881175 0.0950552 
0.261875 -0.948532 0.178069 0.925441 0.158708 0.34405 0.267213 -0.937203 0.22416 
0.175185 -0.890827 0.419211 0.170737 -0.972243 0.159978 0.861131 0.382636 0.334728 
0.203559 -0.940503 0.272061 -0.349661 -0.748971 0.562832 0.823998 0.330841 0.459969 
-0.902243 0.426782 -0.0617629 -0.850437 0.500649 0.161579 -0.291765 -0.948956 0.119819 
0.673626 0.563322 0.47843 -0.626777 0.778097 -0.0414297 -0.477553 0.877725 -0.0392711 
-0.543252 0.828627 0.135113 0.0182015 -0.899679 0.436173 -0.135479 -0.827102 0.545479 
0.54035 0.800473 0.259356 0.605281 0.679481 0.414656 -0.27148 0.953563 -0.130444 
-0.0269522 0.978276 0.205549 -0.16712 0.925036 0.341146 0.0344678 0.997087 -0.068045 
0.0932896 0.941969 0.322478 0.018147 0.993255 0.114518 0.112715 0.993619 0.00413993 
0.0111515 0.989414 0.144688 -0.100743 0.977673 0.184408 0.436533 0.851835 0.28951 
-0.115477 0.99056 0.0738684 0.197242 0.978438 0.0612713 0.199041 0.960818 0.192901 
-0.145985 0.963633 0.223831 0.00632214 0.951309 0.308175 0.260023 0.914687 0.309411 
0.100299 0.884852 0.454947 0.0443741 0.889751 0.454285 0.207232 0.91561 0.344548 
0.281857 0.920011 0.272278 -0.133031 0.991064 0.00970211 -0.0264746 0.999048 0.0346757 
-0.0553316 0.927507 0.369688 0.0680228 0.986547 0.148655 -0.00785732 -0.546786 0.837235 
-0.144978 -0.603952 0.783724 -0.140633 -0.866399 0.479139 -0.0392402 -0.646348 0.762033 
0.301806 -0.425443 0.853177 -0.035559 -0.423052 0.905407 -0.156983 -0.641939 0.750514 
-0.216366 -0.489287 0.844857 -0.032035 -0.418362 0.907715 0.0543381 -0.347134 0.93624 
-0.465958 -0.572091 0.674978 -0.237261 -0.740858 0.628361 -0.0581684 -0.8371 0.543949 
-0.0982706 -0.908131 0.406989 0.0279262 -0.953081 0.301425 0.191069 -0.76323 0.61723 
-0.043629 -0.882957 0.467422 -0.0139121 -0.927126 0.374491 -0.0171336 -0.653524 0.756712 
0.00500494 -0.955562 0.294748 0.0103482 -0.701753 0.712345 -0.149602 -0.68271 0.71521 
-0.124406 -0.594252 0.794599 0.674294 -0.0361789 0.737576 0.0420671 -0.748253 0.662078 
-0.182399 -0.823436 0.537294 -0.0437315 -0.781996 0.621748 -0.0700946 -0.159662 0.98468 
-0.0944927 -0.364238 0.9265 -0.80629 -0.255955 0.533276 0.247891 -0.891596 0.378955 
-0.274456 -0.761149 0.587644 -0.0195725 -0.259688 0.965494 -0.48889 -0.795679 0.357604 
0.758998 0.174689 0.62722 -0.916939 -0.134061 0.375834 0.255643 -0.774089 0.579166 
0.282473 -0.906151 0.314802 -0.946225 0.1979 0.255917 -0.401575 -0.653207 0.641918 
-0.0208389 0.00572833 0.999766 0.0550659 0.0332728 0.997928 0.651318 0.273827 0.707674 
-0.798614 0.504127 0.328743 -0.615156 0.439323 0.654659 -0.152423 0.312426 0.937634 
-0.651863 0.698848 0.294425 -0.477165 0.724099 0.497989 0.42184 0.59169 0.686989 
0.370086 0.464852 0.804331 -0.494439 0.786108 0.370897 -0.366843 0.863986 0.344898 
-0.233857 -0.793379 0.562014 0.425592 0.636926 0.642804 -0.31331 0.881293 0.353779 
-0.192294 0.913793 0.357778 0.084935 0.958197 0.273211 -0.0187314 0.837854 0.545573 
0.0182693 0.87674 0.480618 0.200156 0.725781 0.658164 0.374832 0.570597 0.730699 
-0.223917 0.791726 0.568358 -0.128365 0.699414 0.703095 -0.186169 0.808885 0.557715 
-0.15011 0.759456 0.633004 0.0134625 0.925478 0.378561 0.125433 0.899253 0.419059 
-0.00220122 0.78839 0.615171 -0.199191 0.909305 0.36536 -0.16739 0.850127 0.499263 
0.272291 0.889892 0.365991 0.200877 0.78089 0.591489 0.131077 0.893433 0.429647 
0.152176 0.898599 0.411536 0.147478 0.930644 0.334891 0.151895 0.751773 0.641689 
-0.167565 0.728131 0.664641 -0.147165 0.736355 0.660397 -0.0559521 0.860783 0.505887 
-0.153427 0.851725 0.501023 -0.0766578 0.942014 0.326699 -0.0679012 0.713264 0.697599 
-0.109608 0.803503 0.585124 0.159871 0.834176 0.527818 -0.130591 0.944638 0.301005 
0.114524 0.854666 0.50639 0.323953 -0.291063 0.900187 -0.182514 -0.635019 0.750627 
0.404258 -0.113079 0.907628 -0.6448 -0.424303 0.635767 -0.0182082 -0.681333 0.731747 
-0.0653229 -0.630412 0.773508 0.0104138 -0.702325 0.71178 0.0444752 -0.344235 0.93783 
-0.0704128 -0.416564 0.906375 -0.452562 -0.377696 0.807795 -0.118335 -0.442865 0.888745 
-0.0172383 -0.588971 0.80797 0.0091516 -0.512556 0.858605 -0.355283 -0.50948 0.783711 
-0.100916 -0.417374 0.903114 -0.756118 -0.288463 0.58743 -0.107674 -0.106558 0.988459 
0.0058176 -0.297305 0.954765 0.108463 -0.418989 0.90149 0.177606 -0.704083 0.687549 
-0.444816 -0.753787 0.483678 -0.228817 -0.454362 0.860929 -0.135461 -0.202899 0.969785 
-0.103633 -0.229082 0.967875 0.0946381 -0.131013 0.986853 -0.0885439 -0.242737 0.966043 
0.259053 -0.651136 0.713381 0.194915 -0.668713 0.717518 -0.330391 -0.49549 0.803325 
0.0864484 0.335234 0.938161 -0.684039 0.0278247 0.728915 -0.518404 -0.0162334 0.854982 
0.110692 -0.191234 0.975283 0.153572 -0.751334 0.641805 0.175555 -0.752408 0.634872 
0.0400639 -0.147817 0.988203 0.468707 0.191416 0.862365 0.594414 0.199073 0.779129 
0.0975886 -0.193166 0.976301 0.0959738 -0.561123 0.82215 0.105225 -0.305461 0.946373 
0.148854 -0.583349 0.798465 0.180431 -0.760808 0.62339 -0.345754 -0.498921 0.79469 
-0.00325406 0.0985497 0.995127 -0.288958 0.515436 0.80674 -0.145023 0.505883 0.850324 
0.0192889 0.20045 0.979514 0.0896386 0.379369 0.920893 0.0468523 0.313379 0.948472 
-0.098137 0.463354 0.880723 -0.210536 0.734279 0.645375 -0.193193 0.522161 0.830677 
0.0165138 0.345764 0.938176 0.0344733 -0.548683 0.835319 -0.145698 -0.554119 0.819588 
0.0829431 0.46122 0.883401 0.0428123 0.50088 0.864457 0.118893 0.241102 0.96319 
0.14698 0.231804 0.961594 0.341797 0.438791 0.831046 0.018296 0.348891 0.936985 
-0.134638 0.585156 0.799666 -0.0290368 0.554488 0.831685 -0.0239378 0.499861 0.865775 
0.0663761 0.601053 0.796448 0.124208 0.847648 0.515815 0.0329451 0.805159 0.592143 
0.0157391 0.580467 0.814132 0.0453919 0.568893 0.821158 0.141548 0.890767 0.431854 
-0.0322685 0.890989 0.452877 -0.0596102 0.553122 0.830965 -0.126513 0.848051 0.514591 
-0.136293 0.704453 0.696542 0.13322 0.41725 0.898974 0.157236 0.528352 0.834339 
0.100924 0.530253 0.841811 0.0495706 0.601671 0.797204 0.0487361 0.666061 0.744304 
-0.0394962 0.9045 0.42464 -0.219331 0.545378 0.808985 -0.0718153 0.761673 0.643969 
-0.0752653 0.429084 0.900124 0.0087124 0.612449 0.790462 -0.106513 0.560658 0.821168 
-0.00598005 0.512656 0.858573 -0.0253199 0.720993 0.692479 -0.0160194 0.693587 0.720195 
-0.0362722 0.562838 0.825771 0.051944 0.565674 0.822991 0.0229868 -0.55363 0.832445 
-0.0859065 -0.163343 0.982822 -0.252331 -0.376458 0.891408 0.116545 -0.0183963 0.993015 
0.203983 0.010673 0.978916 -0.300276 -0.0821782 0.950306 0.0906897 -0.215627 0.972255 
-0.172007 -0.0667728 0.98283 -0.404436 0.285595 0.868831 -0.109281 0.108397 0.988083 
0.0281179 0.0470389 0.998497 -0.128033 -0.128379 0.983426 -0.0351529 0.0594013 0.997615 
0.10171 0.194598 0.975596 0.00427979 0.0903483 0.995901 0.0968701 -0.00716128 0.995271 
-0.159628 0.123973 0.979362 0.0679076 -0.325936 0.94295 0.0840165 -0.414733 0.906056 
0.126328 -0.416264 0.900425 -0.182751 -0.333103 0.925011 0.00456973 0.214667 0.976677 
-0.0265378 0.176834 0.983883 -0.274263 0.36501 0.889689 0.0442325 -0.0163916 0.998887 
-0.0663677 -0.527922 0.846696 0.0332498 0.132367 0.990643 0.0365811 0.342911 0.938655 
-0.026109 0.170184 0.985066 -0.0315818 0.408686 0.912129 0.0486598 0.159569 0.985987 
0.0964428 -0.132425 0.98649 -0.0102651 -0.447592 0.894179 -0.0476113 -0.182956 0.981968 
-0.197847 -0.150709 0.968578 -0.0298357 0.151497 0.988007 0.116939 0.374576 0.919792 
-0.00516054 0.63412 0.773218 -0.00767045 0.471609 0.881774 0.0438289 0.51822 0.854123 
-0.0974297 0.42352 0.900632 -0.0651287 0.34178 0.937521 -0.0495202 0.0263096 0.998427 