# vtk DataFile Version 4.2
vtk output
ASCII
DATASET POLYDATA
POINTS 482 float
397.285 184.961 220.02 396.868 188.155 219.61 395.499 189.072 219.926 
402.796 181.3 221.553 404.293 181.017 222.191 402.24 181.938 221.117 
405.516 182.209 222.179 407.577 187.338 221.438 398.174 191.465 219.607 
408.589 194.376 220.058 416.177 196.24 221.234 415.202 196.79 221.02 
417.122 196.585 221.493 405.494 197.109 220.167 401.456 198.377 220.724 
396.017 183.12 221.201 393.461 183.568 222.107 406.379 183.335 222.353 
392.04 187.84 221.999 394.051 188.127 220.647 412.519 191.969 221.986 
393.136 192.388 221.503 394.544 192.058 220.78 414.3 192.458 222.765 
415.944 193.401 222.594 416.982 193.759 222.797 414.049 193.548 221.613 
416.781 194.373 222.136 417.512 194.123 222.7 418.296 194.776 222.557 
409.677 192.705 220.372 419.271 195.428 222.692 419.107 195.156 222.751 
419.395 195.291 222.883 394.091 195.191 221.631 417.002 195.548 221.685 
419.53 195.517 222.83 419.676 195.698 222.901 419.548 197.508 222.857 
403.155 180.039 222.781 397.998 181.042 222.246 404.75 180.791 222.881 
405.853 181.801 223.134 408.251 186.613 222.578 390.717 191.09 223.36 
410.352 191.13 221.282 412.929 191.293 223.285 391.99 192.003 222.237 
416.906 193.544 223.164 417.978 194.222 222.933 391.111 194.126 223.704 
418.812 194.702 223.038 392.084 196.146 223.479 395.086 196.757 221.743 
394.147 198.505 223.021 402.101 199.921 221.324 417.979 199.938 222.81 
406.105 201.846 222.133 401.027 202.111 222.888 402.884 202.284 222.732 
400.668 179.57 223.406 396.976 179.994 224.287 392.226 182.535 224.088 
408.423 186.306 223.124 390.692 186.761 223.532 412.469 190.807 223.706 
414.861 192.408 223.601 390.398 192.574 224.3 417.385 193.722 223.495 
419.168 194.901 223.287 419.503 195.194 223.394 420.147 196.442 223.489 
391.612 195.823 224.021 420.169 196.934 223.53 392.718 197.334 223.583 
420.046 197.368 223.49 419.923 197.894 223.642 419.313 199.072 223.376 
394.91 200.003 223.666 418.777 199.747 223.307 397.069 201.943 224.15 
399.724 202.447 223.551 409.438 202.943 222.951 404.166 203.217 223.522 
401.229 179.152 224.427 398.486 179.494 224.549 405.314 180.832 224.448 
390.531 184.928 224.465 408.521 185.779 224.072 409.431 187.037 224.573 
390.08 190.307 224.168 390.067 190.846 224.283 413.123 191.238 224.89 
414.539 192.179 224.459 416.314 193.137 223.741 419.902 195.74 223.613 
420.104 196.151 223.774 420.272 196.466 223.726 420.3 196.687 223.689 
420.333 196.61 223.814 420.337 196.764 223.829 420.142 197.304 223.87 
420.274 196.924 223.925 393.547 198.922 224.037 418.335 201.007 224.265 
400.968 203.195 224.207 416.774 202.512 224.729 412.848 203.881 224.749 
402.871 179.38 224.457 397.523 179.412 225.555 399.159 179.204 225.04 
393.692 180.934 225.151 389.593 188.935 225.473 389.948 191.571 225.319 
417.903 194.059 224.14 390.457 193.514 225.552 390.718 194.236 224.896 
419.574 195.409 224.065 391.09 195.197 225.043 420.261 196.463 223.877 
420.109 196.422 224.116 420.115 196.948 224.208 419.994 197.547 224.352 
419.717 198.706 224.493 419.535 199.167 224.611 418.933 200.352 224.561 
395.201 201.483 225.419 418.623 200.804 224.554 396.343 202.25 225.656 
410.539 203.751 223.898 397.931 202.818 225.232 408.531 204.053 224.386 
415.845 203.061 225.081 398.5 203.061 225.56 400.366 203.401 225.191 
409.042 204.375 225.09 414.677 203.598 225.348 411.629 204.156 225.28 
406.525 181.91 226.268 390.582 183.993 225.89 389.576 190.249 225.825 
412.84 191.37 226.137 414.958 192.664 225.284 417.921 194.37 224.793 
390.808 194.503 225.703 391.961 196.65 225.77 419.58 198.913 224.844 
393.687 199.686 225.296 395.191 201.651 225.722 395.297 201.692 225.582 
395.263 201.71 225.686 395.488 201.831 225.675 418.095 201.524 225.464 
397.516 202.823 225.765 398.518 203.087 225.951 401.275 203.591 225.581 
407.729 204.304 225.913 408.347 204.407 225.631 409.857 204.418 225.583 
409.948 204.401 225.925 399.85 178.902 225.992 395.559 179.727 226.458 
411.677 190.139 226.548 413.043 191.877 226.578 390.962 194.246 226.791 
415.885 194.082 226.408 417.34 194.6 225.665 419.616 195.828 224.515 
393.286 198.442 226.544 419.443 198.194 225.357 396.837 202.451 226.238 
408.957 203.919 226.935 398.157 202.958 226.222 398.849 203.08 226.206 
401.733 203.532 226.164 402.685 203.598 226.363 406.436 203.818 226.665 
407.116 204.108 226.293 409.078 204.162 226.561 410.486 204.064 226.728 
413.28 203.763 227.011 409.616 204.339 226.204 411.499 190.781 228.409 
411.971 191.279 227.575 412.34 192.015 227.554 412.847 192.286 227.186 
413.763 193.023 227.005 394.867 200.344 226.615 396.813 202.34 226.459 
397.662 202.647 226.545 408.527 203.624 227.183 409.538 203.321 227.572 
403.826 203.357 226.872 410.044 203.527 227.468 396.136 179.476 228.737 
391.877 181.917 228.91 408.142 184.102 228.764 411.486 190.793 229.419 
407.334 194.892 229.014 407.791 194.837 229.01 407.739 194.833 229.029 
411.895 192.17 228.188 411.6 192.072 229.101 391.37 193.773 228.256 
403.312 196.19 228.973 404.469 195.795 228.989 405.267 195.528 228.994 
408.387 194.724 229.042 408.584 194.755 228.992 409.3 194.471 229.067 
409.644 194.406 228.976 410.27 194.028 229.11 410.555 193.916 228.911 
411.123 193.3 229.15 411.379 193.205 228.676 402.225 196.615 228.95 
402.793 196.393 228.97 412.345 193.638 228.087 393.708 195.941 228.39 
399.424 197.222 228.896 400.326 197.107 228.915 401.398 196.875 228.937 
412.036 194.349 228.328 394.906 196.52 228.751 395.31 196.898 228.401 
396.35 197.039 228.756 396.921 197.324 228.585 397.729 197.271 228.8 
398.332 197.461 228.704 392.945 197.432 226.77 413.966 195.964 228.384 
415.53 196.246 228.149 413.411 196.248 228.703 414.467 196.239 228.678 
415.778 196.586 228.714 416.784 197.131 228.192 416.728 197.148 228.805 
411.452 197.002 228.808 412.035 196.736 228.828 412.663 196.462 228.822 
417.3 197.76 228.564 417.708 198.216 227.922 417.778 198.623 228.658 
410.524 197.95 228.889 410.974 197.549 228.907 411.456 197.124 228.896 
418.035 199.555 227.892 409.893 199.151 228.909 410.197 198.639 228.963 
410.528 198.073 228.957 417.877 200.516 228.278 409.66 200.521 228.811 
409.861 200.192 229.017 409.929 199.329 229.019 417.485 201.467 227.936 
417.295 201.71 228.725 408.114 201.863 228.154 409.798 201.681 228.549 
410.035 201.032 229 410.274 201.647 228.859 410.325 201.642 229.121 
401.419 202.402 227.361 410.843 202.531 228.562 410.89 202.32 229.107 
400.283 202.768 226.914 408.02 203.056 227.546 411.9 202.96 228.996 
412.105 203.243 228.256 399.606 178.895 230.042 411.946 191.497 230.135 
411.895 192.851 229.729 412.828 192.39 230.59 391.011 193.283 229.937 
408.993 194.696 229.102 411.062 193.827 229.376 413.791 192.531 231.256 
391.948 194.343 229.141 413.49 193.944 230.112 416.415 193.806 231.52 
416.479 194.318 231.067 391.466 194.573 230.578 393.063 195.409 229.087 
401.121 197.056 228.984 418.827 195.133 231.656 391.377 195.38 231.444 
394.454 196.417 229.137 397.436 197.333 228.975 419.519 195.713 231.749 
412.348 195.57 229.283 414.758 196.135 229.138 416.29 196.6 229.319 
413.265 196.243 228.967 417.383 197.645 229.234 392.971 198.326 231.307 
392.698 198.178 231.606 396.383 199.061 229.85 411.911 196.742 228.953 
418.092 198.807 229.527 393.28 199.102 231.55 410.836 197.549 228.981 
418.154 200.075 229.559 418.96 198.987 230.792 410.037 198.621 229.04 
394.674 200.833 231.683 409.584 199.961 229.168 395.031 201.283 231.557 
395.399 201.388 231.407 398.884 201.722 230.402 409.973 201.037 229.193 
418.546 200.892 231.058 395.976 202.012 231.629 410.368 202.04 229.45 
414.083 203.315 229.399 396.366 202.248 231.606 396.773 202.463 231.561 
398.627 202.536 231.038 411.53 202.919 229.657 412.838 203.261 229.54 
399.291 202.916 231.312 401.884 203.525 231.27 407.016 203.576 230.7 
407.37 203.954 231.033 412.234 203.674 230.781 409.083 204.05 231.086 
403.713 179.52 230.771 393.812 180.687 230.942 390.987 183.239 230.969 
389.716 187.169 231.01 389.612 188.983 230.937 411.961 190.444 231.751 
415.836 193.156 232.004 390.617 193.4 231.736 419.8 196.062 231.877 
419.787 196.257 231.788 391.646 196.312 231.879 392.281 197.493 231.771 
419.666 198.312 231.735 393.875 200.024 231.863 419.31 199.721 231.695 
417.67 201.914 231.079 418.105 201.561 231.282 396.139 202.159 231.718 
396.361 202.274 231.862 396.741 202.498 231.731 397.045 202.616 231.644 
403.12 203.872 231.752 412.964 203.777 231.211 408.489 204.261 231.438 
398.947 179.174 231.762 405.257 180.488 231.24 391.862 182.382 231.856 
406.219 181.434 231.437 390.116 185.179 231.167 389.656 189.458 231.653 
413.145 191.375 232.676 390.597 193.327 232.204 416.823 193.517 232.328 
419.831 195.97 232.039 391.365 195.733 232.226 419.969 196.424 232.377 
391.904 196.879 232.047 420.018 197.37 232.59 392.88 198.636 232.07 
419.824 198.586 232.571 393.376 199.397 232.05 393.729 199.787 232.136 
419.086 200.374 231.756 396.575 202.317 232.118 397.223 202.677 232.007 
397.477 202.776 231.908 409.593 204.231 231.616 413.437 203.742 231.651 
408.432 204.324 231.702 403.028 179.412 231.757 395.961 180.258 233.062 
404.176 179.911 231.896 413.726 191.77 233.085 416.897 193.397 233.051 
418.82 194.675 232.675 392.419 197.62 232.701 419.984 197.57 232.937 
392.987 198.694 232.426 419.743 198.771 232.975 418.466 201.036 232.332 
397.101 202.501 232.252 416.046 202.663 232.265 398.28 202.867 232.29 
409.998 203.824 233.111 414.222 203.307 232.515 401.214 203.402 232.428 
410.368 203.915 232.876 409.449 204.252 232.04 400.309 179.328 232.991 
392.365 182.629 233.398 390.646 185.622 233.022 408.083 185.251 233.5 
390.172 188.498 232.884 410.664 189.393 233.954 390.736 192.866 233.056 
417.358 193.659 233.323 391.056 194.639 232.995 391.204 194.976 233.007 
419.698 195.677 232.876 419.841 196.107 233.048 391.732 195.758 233.275 
392.714 197.958 232.912 419.605 198.954 233.268 394.875 200.46 232.952 
[...]
POINT_DATA 482
SCALARS scalars float
LOOKUP_TABLE default
1 1 1 1 1 1 1 1 1 
1 1 1 1 1 1 1 1 1 
1 1 1 1 1 1 1 1 1 
1 1 1 1 1 1 1 1 1 
1 1 1 1 1 1 1 1 1 
1 1 1 1 1 1 1 1 1 
1 1 1 1 1 1 1 1 1 
1 1 1 1 1 1 1 1 1 
1 1 1 1 1 1 1 1 1 
1 1 1 1 1 1 1 1 1 
1 1 1 1 1 1 1 1 1 
1 1 1 1 1 1 1 1 1 
1 1 1 1 1 1 1 1 1 
1 1 1 1 1 1 1 1 1 
1 1 1 1 1 1 1 1 1 
1 1 1 1 1 1 1 1 1 
1 1 1 1 1 1 1 1 1 
1 1 1 1 1 1 1 1 1 
1 1 1 1 1 1 1 1 1 
1 1 1 1 1 1 1 1 1 
1 1 1 1 1 1 1 1 1 
1 1 1 1 1 1 1 1 1 
1 1 1 1 1 1 1 1 1 
1 1 1 1 1 1 1 1 1 
1 1 1 1 1 1 1 1 1 
1 1 1 1 1 1 1 1 1 
1 1 1 1 1 1 1 1 1 
1 1 1 1 1 1 1 1 1 
1 1 1 1 1 1 1 1 1 
1 1 1 1 1 1 1 1 1 
1 1 1 1 1 1 1 1 1 
1 1 1 1 1 1 1 1 1 
1 1 1 1 1 1 1 1 1 
1 1 1 1 1 1 1 1 1 
1 1 1 1 1 1 1 1 1 
1 1 1 1 1 1 1 1 1 
1 1 1 1 1 1 1 1 1 
1 1 1 1 1 1 1 1 1 
1 1 1 1 1 1 1 1 1 
1 1 1 1 1 1 1 1 1 
1 1 1 1 1 1 1 1 1 
1 1 1 1 1 1 1 1 1 
1 1 1 1 1 1 1 1 1 
1 1 1 1 1 1 1 1 1 
1 1 1 1 1 1 1 1 1 
1 1 1 1 1 1 1 1 1 
1 1 1 1 1 1 1 1 1 
1 1 1 1 1 1 1 1 1 
1 1 1 1 1 1 1 1 1 
1 1 1 1 1 1 1 1 1 
1 1 1 1 1 1 1 1 1 
1 1 1 1 1 1 1 1 1 
1 1 1 1 1 1 1 1 1 
1 1 1 1 1 
NORMALS Normals float
-0.114277 -0.195185 -0.974086 -0.233507 -0.210502 -0.949296 -0.3874 0.0831538 -0.918154 
0.0673868 -0.600028 -0.797136 0.423353 -0.563575 -0.709334 0.0691239 -0.450308 -0.890194 
0.536591 -0.42919 -0.726544 0.268012 -0.32618 -0.906519 -0.0740639 0.193754 -0.97825 
0.135109 0.105619 -0.985185 0.109885 -0.331176 -0.937149 0.0798647 -0.0885209 -0.992867 
0.391571 0.00598901 -0.920128 -0.0109867 0.160872 -0.986914 -0.366713 0.413365 -0.833457 
-0.285891 -0.246932 -0.9259 -0.46655 -0.423767 -0.776371 0.822952 -0.444673 -0.353575 
-0.607052 -0.0505831 -0.79305 -0.43691 -0.250415 -0.863946 0.386221 -0.442455 -0.809362 
-0.394931 0.33196 -0.85664 -0.400198 0.238915 -0.884738 0.410695 -0.825436 -0.387278 
0.327621 -0.71015 -0.623178 0.335583 -0.782442 -0.524565 0.285929 -0.506748 -0.813296 
0.31132 -0.496932 -0.810024 0.447111 -0.722036 -0.527973 0.388134 -0.508456 -0.768651 
0.342907 -0.171858 -0.923515 0.48156 -0.272054 -0.833119 0.521396 -0.591386 -0.615149 
0.661779 -0.595216 -0.455814 -0.530794 0.229761 -0.815762 0.207222 -0.430334 -0.878562 
0.605588 -0.273408 -0.747336 0.813883 -0.343777 -0.468414 0.632671 0.145287 -0.76067 
0.10316 -0.81258 -0.573648 -0.193772 -0.760002 -0.620362 0.540066 -0.760871 -0.359728 
0.771427 -0.545766 -0.32717 0.572465 -0.617765 -0.53912 -0.786786 0.0611766 -0.614187 
0.510141 -0.479335 -0.714139 0.521435 -0.752162 -0.402935 -0.615584 0.0205623 -0.787803 
0.360379 -0.916617 -0.173035 0.468642 -0.703362 -0.534469 -0.837539 0.265772 -0.477382 
0.534124 -0.766777 -0.356041 -0.727514 0.544531 -0.417384 -0.30984 0.310808 -0.898553 
-0.518331 0.467667 -0.715975 -0.165322 0.5024 -0.848683 0.334485 0.499737 -0.798989 
0.038369 0.509356 -0.8597 -0.567628 0.502917 -0.651823 -0.217623 0.640508 -0.736471 
-0.0991479 -0.891917 -0.441197 -0.21904 -0.873107 -0.435552 -0.668697 -0.610983 -0.423725 
0.810507 -0.444219 -0.38177 -0.80994 -0.137335 -0.570207 0.61508 -0.691754 -0.378356 
0.458217 -0.8876 -0.0469486 -0.887015 0.206503 -0.412991 0.410149 -0.90812 -0.0842367 
0.638082 -0.763533 -0.0993452 0.725636 -0.672211 -0.146913 0.829131 -0.15706 -0.536539 
-0.778301 0.476734 -0.408621 0.843357 0.191722 -0.501987 -0.742771 0.465014 -0.481719 
0.83309 0.212497 -0.510691 0.913158 0.342766 -0.220576 0.735679 0.413518 -0.536451 
-0.520698 0.595764 -0.611506 0.584798 0.474165 -0.658163 -0.344129 0.758159 -0.553869 
-0.216559 0.769559 -0.600734 0.139256 0.68573 -0.71441 -0.0330643 0.708087 -0.705351 
0.0451741 -0.960089 -0.276023 -0.234579 -0.914339 -0.330087 0.74096 -0.670074 -0.0444813 
-0.848272 -0.246321 -0.468787 0.927005 -0.358472 -0.11027 0.793191 -0.583211 -0.175251 
-0.841673 -0.0655152 -0.535999 -0.903405 0.199472 -0.379567 0.662473 -0.743598 0.0905089 
0.508251 -0.860306 -0.039439 0.388896 -0.905761 -0.168393 0.870908 -0.487468 0.0623972 
0.866927 -0.495385 0.0550535 0.908063 -0.357722 -0.217845 0.909023 -0.0225527 -0.416135 
0.981259 -0.190074 0.0316742 0.978249 0.090761 0.186522 0.951297 0.3078 0.0171173 
0.90665 0.254495 0.336479 -0.693283 0.571817 -0.438616 0.674216 0.604984 -0.42359 
-0.264602 0.832722 -0.486375 0.508244 0.802642 -0.312175 0.23268 0.791807 -0.564714 
0.399164 -0.912532 -0.0891755 -0.225781 -0.937386 -0.265199 -0.171855 -0.926316 -0.335269 
-0.479275 -0.806238 -0.346808 -0.929991 0.00437804 -0.367556 -0.970727 0.219648 -0.0971792 
0.478559 -0.85043 0.218519 -0.960793 0.269465 -0.0653062 -0.96562 0.245224 -0.0862762 
0.646106 -0.673747 0.358625 -0.837153 0.546965 -0.00220674 0.871591 -0.339349 0.353796 
0.777311 -0.287822 0.559415 0.819633 0.0591858 0.569823 0.896894 0.0876008 0.433482 
0.957769 0.242811 0.154016 0.851256 0.41943 0.315344 0.779909 0.596466 -0.189659 
-0.542462 0.673231 -0.50249 0.796748 0.589424 0.133311 -0.482602 0.874699 -0.0446779 
0.0405757 0.867114 -0.496454 -0.229605 0.924899 -0.303056 -0.0376643 0.893474 -0.447533 
0.399857 0.901782 -0.164021 -0.191638 0.951928 -0.238973 -0.22845 0.968704 -0.0970751 
0.0175304 0.978647 -0.2048 0.277076 0.938033 -0.208141 0.174031 0.984242 0.0313319 
0.746309 -0.662353 -0.0656653 -0.859632 -0.500835 -0.100976 -0.979474 -0.0100366 0.20132 
0.646231 -0.64226 0.412174 0.569226 -0.758124 0.318166 0.559178 -0.655186 0.507988 
-0.945562 0.301183 0.123292 -0.855453 0.487409 0.175021 0.688367 0.450376 0.568606 
-0.811358 0.584439 -0.0113402 -0.703303 0.708768 0.054888 -0.518543 0.719446 -0.462072 
-0.566522 0.8223 -0.0536341 -0.440497 0.883714 -0.15815 0.733839 0.67622 0.0648657 
-0.340465 0.940192 -0.0110713 -0.155595 0.986921 0.042143 -0.0669722 0.993115 -0.0961111 
-0.212283 0.976617 0.0340045 -0.115544 0.993298 0.00277476 0.0432523 0.96604 -0.254747 
0.124692 0.965769 0.227468 -0.100637 -0.987075 -0.12472 -0.337029 -0.9364 -0.0978079 
0.897329 -0.415894 0.147759 0.604067 -0.646891 0.465441 -0.899897 0.352698 0.256495 
0.484843 -0.603834 0.632702 0.513727 -0.65773 0.550886 0.716728 -0.491738 0.494464 
-0.688863 0.455214 0.564135 0.798608 0.134385 0.586657 -0.435532 0.858749 0.269931 
0.0255405 0.671318 0.740729 -0.25991 0.936917 0.233736 -0.113509 0.958642 0.261002 
-0.160743 0.884261 0.438457 0.000329365 0.970668 0.240422 -0.217397 0.766616 0.604184 
-0.234068 0.886865 0.39835 -0.0883383 0.896236 0.434691 0.00326947 0.910957 0.412489 
0.110486 0.974593 0.194837 0.0467121 0.935848 0.349295 0.970552 -0.144403 0.192813 
0.784248 -0.485145 0.386768 0.759252 -0.27709 0.58886 0.572943 -0.501741 0.648068 
0.528016 -0.478264 0.701757 -0.524063 0.488333 0.697774 -0.359819 0.68487 0.633627 
-0.229197 0.673601 0.70266 -0.0895581 0.695196 0.71322 -0.0815883 0.698314 0.711127 
0.00544964 0.91549 0.402305 -0.132761 0.622854 0.770991 -0.353446 -0.934599 0.0400113 
-0.634745 -0.772683 -0.00775164 0.902836 -0.425897 0.059145 0.952668 -0.291166 -0.0874429 
0.0745872 0.555604 0.828095 0.0844074 0.576962 0.812398 0.151282 0.819802 -0.552303 
0.893509 -0.0646846 0.444361 0.996234 0.0557786 -0.0663805 -0.848277 0.508487 0.147876 
0.0193537 0.084577 0.996229 0.0250171 0.102268 0.994442 0.0252688 0.110257 0.993582 
0.189583 0.975758 0.109336 0.0491197 0.276596 0.95973 0.350177 0.935621 0.0446012 
0.322923 0.715606 0.619378 0.509262 0.833077 -0.21595 0.520133 0.605424 0.602431 
0.79131 0.568448 -0.225156 0.719481 0.0929409 0.688265 0.300585 0.873321 0.383353 
0.293777 0.784239 0.546502 0.455609 -0.165492 0.874662 -0.533861 0.744826 0.400283 
0.0870558 0.988691 -0.12211 0.129808 0.990918 -0.0350805 0.0755347 0.318859 0.944787 
0.305383 0.109496 0.945913 -0.423097 0.890908 0.165142 -0.385393 0.624942 0.67891 
-0.254459 0.901316 0.350542 -0.202873 0.596635 0.776446 -0.23573 0.971812 -0.00365034 
-0.0709235 0.551242 0.831326 -0.638873 0.482298 0.599358 0.0589889 -0.784885 0.616828 
0.329845 -0.767862 0.549172 -0.126777 -0.958963 0.253609 0.116976 -0.977571 0.175132 
0.413155 -0.90944 -0.0471428 0.643815 -0.707121 0.292375 0.632709 -0.763076 -0.131891 
-0.198553 -0.525817 0.827099 -0.450064 -0.888689 -0.0876024 -0.332489 -0.942368 -0.0373257 
0.795451 -0.605762 -0.0176383 0.766764 -0.410472 0.493544 0.901551 -0.425154 -0.080307 
-0.360375 -0.330693 0.872223 -0.695947 -0.701667 0.152715 -0.600464 -0.798041 -0.0507351 
0.985928 -0.0750203 0.149392 -0.600621 -0.156513 0.784065 -0.690739 -0.370095 0.621216 
-0.517267 -0.400492 0.756334 0.943511 0.309706 0.117765 -0.50275 0.165366 0.848467 
-0.995969 0.0849817 -0.0287045 -0.878268 -0.181476 -0.442394 0.788547 0.596553 0.149396 
0.873073 0.482796 -0.0682047 -0.131422 0.376171 0.917182 -0.349996 0.414766 0.839924 
-0.91446 0.357368 0.189873 -0.734453 0.494296 0.465028 -0.835916 0.514493 -0.191159 
-0.0787456 0.476527 0.875626 -0.405723 0.728896 0.551452 -0.667743 0.743405 -0.0383188 
-0.123889 0.652494 0.747598 -0.00429058 0.545914 0.83783 -0.438591 0.893871 0.092911 
-0.274124 0.898394 0.343138 -0.0989705 -0.993665 0.0532486 0.851473 -0.282756 -0.441636 
0.663435 -0.0302577 -0.747622 0.61522 -0.518792 -0.593599 -0.883332 0.449711 -0.132232 
0.123732 0.242173 -0.962311 0.388033 0.183599 -0.903173 0.476358 -0.697722 -0.53504 
-0.778008 0.602675 -0.177443 0.300863 -0.414397 -0.858928 0.421748 -0.67736 -0.602754 
0.379951 -0.614009 -0.691831 -0.887521 0.345682 -0.304649 -0.620978 0.656261 -0.428612 
0.157445 0.517672 -0.840968 0.55085 -0.629082 -0.548471 -0.858451 0.349868 -0.375038 
-0.351581 0.691404 -0.63115 -0.346457 0.793472 -0.50037 0.646672 -0.440733 -0.622552 
0.0128348 -0.269799 -0.962831 0.237545 -0.755117 -0.611041 0.455813 -0.746606 -0.484576 
-0.119687 -0.843914 -0.522956 0.714595 -0.526693 -0.460378 -0.668835 0.457559 -0.585918 
-0.796663 0.494841 -0.347074 -0.232858 0.433772 -0.870413 -0.406026 -0.717738 -0.565682 
0.887109 -0.201543 -0.415232 -0.751823 0.593094 -0.288102 -0.338691 -0.345757 -0.875066 
0.923021 0.269831 -0.27427 0.854494 0.177549 -0.488176 -0.294185 -0.104143 -0.950058 
-0.732289 0.584983 -0.348638 -0.343415 0.0385948 -0.93839 -0.68759 0.6648 -0.291996 
-0.404334 0.381339 -0.831321 -0.104733 0.462371 -0.88048 -0.669183 0.316891 -0.672141 
0.803914 0.506209 -0.312209 -0.580159 0.714681 -0.3907 -0.546188 0.534909 -0.644633 
-0.062451 0.992516 -0.104935 -0.473488 0.813623 -0.337382 -0.367427 0.703755 -0.608051 
-0.20029 0.610681 -0.766129 -0.32496 0.84706 -0.420583 -0.188497 0.978829 -0.079765 
-0.161227 0.867054 -0.471406 -0.151678 0.861995 -0.483692 0.000861908 0.527362 -0.84964 
-0.0548543 0.826796 -0.55982 -0.0694791 0.963069 -0.260135 -0.0614079 0.703143 -0.708392 
0.261083 -0.964708 0.034258 -0.500502 -0.847241 0.177988 -0.885647 -0.461125 0.0547128 
-0.986331 -0.164763 -0.00196396 -0.995433 0.070784 0.0640459 0.77525 -0.599777 -0.198127 
0.367226 -0.784721 -0.499357 -0.962195 0.24044 -0.12794 0.845575 -0.270634 -0.460174 
0.805839 -0.0912708 -0.585058 -0.881351 0.464364 -0.087104 -0.866607 0.491306 -0.0872378 
0.932206 0.185008 -0.31107 -0.570951 0.575817 -0.585192 0.892788 0.25132 -0.373856 
0.66344 0.746214 -0.054872 0.725332 0.683693 -0.0803558 -0.619665 0.775077 0.123578 
-0.590778 0.755597 0.282937 -0.440466 0.897297 0.0291117 -0.279613 0.884845 -0.372647 
-0.129901 0.987365 0.0907516 -0.0649524 0.995994 -0.0614604 0.0262265 0.914716 -0.403245 
-0.200507 -0.945589 0.256238 0.569731 -0.817726 0.0820457 -0.557659 -0.788001 0.260903 
0.717277 -0.690386 0.0942367 -0.950591 -0.304818 -0.058849 -0.970084 0.180852 0.161955 
0.599981 -0.791376 -0.11725 -0.998481 0.01141 0.0539022 0.502826 -0.788869 -0.353344 
0.898028 -0.413873 -0.149182 -0.941389 0.332578 0.0563827 0.994064 -0.107866 -0.0141749 
-0.855036 0.514836 -0.062112 0.987021 0.0697994 -0.144627 -0.841839 0.537096 -0.0532348 
0.958462 0.275946 -0.0721389 -0.786781 0.595684 0.161666 -0.732961 0.655734 0.181054 
0.874961 0.474925 -0.094286 -0.515205 0.761574 0.393152 -0.333027 0.890747 0.309294 
-0.239713 0.966107 0.095781 0.163739 0.985338 -0.0479372 0.0678221 0.996736 0.0437844 
-0.0610634 0.994607 -0.0838318 0.287363 -0.948923 0.130259 -0.317717 -0.8941 0.31566 
0.384043 -0.906815 0.173775 0.478447 -0.872449 -0.0996054 0.321732 -0.915613 0.241123 
0.64389 -0.75165 -0.142926 -0.849492 0.493829 0.185728 0.989097 0.0908869 0.11587 
-0.787863 0.5724 0.227224 0.945729 0.280563 0.163954 0.673005 0.714157 0.192467 
-0.325511 0.781464 0.532312 0.428634 0.874207 0.228111 -0.221167 0.822381 0.52419 
-0.029839 0.834201 0.550652 0.245749 0.856636 0.453632 -0.174599 0.943206 0.282628 
0.174858 0.913856 0.366459 0.0845525 0.989111 0.120458 0.0118465 -0.966193 0.257549 
-0.682871 -0.582152 0.441345 -0.863425 -0.267456 0.427743 0.774823 -0.507791 0.376561 
-0.909113 -0.0351399 0.415064 0.531733 -0.507467 0.678039 -0.821866 0.0770603 0.564445 
0.541778 -0.83907 0.0493703 -0.900499 0.285891 0.327669 -0.728241 0.304472 0.613972 
0.840503 -0.537243 0.0701795 0.917627 -0.303187 0.256981 -0.795956 0.406583 0.448491 
-0.717769 0.516173 0.467305 0.889524 0.31621 0.329785 -0.559503 0.603065 0.568568 
0.836572 0.478828 0.266218 0.666474 0.59156 0.453728 0.0981679 0.66677 0.73877 
0.423969 0.720097 0.549283 0.188479 0.884183 0.42743 0.511548 -0.764179 0.392873 
-0.420699 -0.657314 0.62526 -0.377091 -0.736164 0.562019 0.731487 -0.549328 0.403936 
-0.725539 -0.32563 0.606266 0.6014 -0.687991 0.406186 0.448657 -0.754505 0.478988 
0.719421 -0.662002 0.210209 0.920394 -0.0705939 0.384566 0.819328 0.339681 0.461863 
-0.0774366 0.445609 0.891872 0.495962 0.525757 0.691087 0.147059 0.478219 0.865841 
0.24191 -0.821934 0.51566 -0.0872021 -0.742409 0.664248 -0.103646 -0.563333 0.819703 
0.541884 -0.677569 0.497255 -0.562047 -0.368788 0.740337 0.54485 -0.666315 0.509081 
0.467829 -0.546357 0.694715 0.501319 -0.508712 0.699922 0.173035 -0.855636 0.487798 
0.496987 -0.805066 0.323843 0.286552 -0.627303 0.72414 0.401914 -0.734343 0.546997 
0.497589 -0.572334 0.651797 0.802375 -0.403628 0.439635 0.338869 -0.652125 0.67816 
-0.596535 0.284944 0.750302 0.589027 0.400166 0.702079 0.374613 0.332239 0.865611 
0.662432 0.0285801 0.748576 0.797418 0.120267 0.591321 0.252684 0.299386 0.920065 
0.170831 -0.681572 0.711531 0.00855831 -0.497118 0.867641 -0.173069 -0.386818 0.90577 
0.419933 -0.406503 0.811425 -0.404027 -0.301539 0.863618 0.636602 -0.399289 0.659777 
0.440425 -0.289569 0.849809 -0.69228 -0.0100761 0.721559 -0.44372 0.0862712 0.892003 
0.493147 -0.379952 0.782587 0.356461 -0.17976 0.916854 0.43014 -0.47913 0.765124 
0.293097 -0.213844 0.931861 0.632317 -0.451837 0.6293 -0.337186 0.302805 0.891412 
0.207437 0.0457342 0.977179 0.20392 -0.19821 0.958712 0.493623 -0.384648 0.779988 
0.522411 -0.149328 0.839516 0.213992 0.1553 0.964411 0.734163 -0.173779 0.656358 
0.382093 0.00786984 0.92409 0.360252 -0.564653 0.742553 0.0901233 -0.271055 0.958336 
-0.332664 -0.125114 0.934709 -0.0216844 -0.0647512 0.997666 -0.0765198 0.280382 0.956833 
-0.0705194 -0.258883 0.963331 0.0595012 0.160818 -0.985189 0.244123 0.627368 -0.739468 
0.0825547 0.215256 -0.973062 -0.0354465 0.193853 -0.98039 0.133532 0.435536 -0.890212 
-0.414298 -0.158728 -0.896193 -0.454928 -0.288464 -0.842514 
