# vtk DataFile Version 4.2
vtk output
ASCII
DATASET POLYDATA
POINTS 659 float
361.263 160.872 159.758 361.184 160.744 159.843 361.077 160.973 159.77 
361.381 160.729 159.851 361.243 161.026 159.732 361.119 161.198 159.753 
361.323 161.188 159.78 361.528 159.935 160.386 362.168 159.646 160.668 
360.585 160.551 160.159 362.28 160.282 160.397 360.82 160.807 159.95 
361.697 161.222 159.948 362.367 160.963 160.27 360.121 161.825 159.947 
360.547 161.729 159.879 362.075 161.349 160.106 358.7 162.963 160.121 
358.622 162.967 160.162 358.837 162.903 160.127 358.689 163.144 160.183 
361.414 159.73 160.569 361.14 159.714 160.702 362.372 159.566 160.795 
363.223 160.098 161.162 359.374 160.748 160.799 358.94 162.547 160.212 
358.444 162.923 160.324 357.961 163.303 160.548 359.208 163.027 160.139 
358.778 163.729 160.273 360.451 163.674 160.365 359.787 163.973 160.309 
357.106 166.561 161.059 357.092 166.374 161.029 357.397 166.53 161.116 
362.103 159.115 161.104 362.083 159.013 161.259 361.926 159.084 161.199 
362.203 159.034 161.234 361.593 159.156 161.359 362.853 159.501 161.221 
360.049 160.251 160.801 360.645 159.579 161.316 363.342 159.825 161.442 
363.619 159.909 161.723 363.573 160.362 161.493 363.649 160.633 161.64 
361.757 163.529 160.996 356.782 165.83 161.037 356.21 166.859 161.304 
356.621 167.501 161.439 353.458 168.993 162.01 364.031 160.129 162.345 
357.713 161.548 161.626 357.373 161.716 161.867 354.094 166.97 162.081 
359.931 166.222 161.734 357.463 167.809 161.767 356.604 168.108 161.737 
361.704 158.725 162.742 364.092 159.365 162.967 363.919 159.151 162.97 
364.148 159.75 162.78 364.324 159.437 163.386 360.928 166.167 162.521 
358.567 167.909 162.269 358.695 168.31 162.666 357.374 169.525 162.8 
350.95 171.945 163.294 350.84 171.966 163.396 351.384 172.684 163.214 
351.813 173.223 163.33 351.707 173.352 163.417 351.819 173.343 163.367 
363.43 158.662 163.398 364.311 162.383 163.549 364.032 163.15 163.819 
364.245 162.884 163.813 364.325 162.77 163.848 352.562 166.675 163.568 
351.017 171.375 163.381 351.382 172.203 163.211 357.039 170.861 163.735 
350.822 172.564 163.497 351.83 172.873 163.28 355.076 172.212 163.678 
351.26 173.226 163.495 349.24 174.663 164.461 351.667 173.908 163.74 
350.126 174.928 164.256 350.334 175.261 164.354 350.582 174.782 164.153 
362.998 158.243 164.292 363.821 158.557 163.996 361.024 158.662 163.783 
364.902 159.58 164.782 365.108 160.713 164.901 354.744 163.075 164.464 
364.959 161.69 164.833 361.445 166.71 163.929 358.181 170.25 164.154 
348.611 172.341 164.916 347.96 173.703 165.127 346.931 176.366 165.545 
348.858 176.278 165.004 362.618 158.06 165.062 365.18 159.709 165.532 
355.558 162.028 165.067 353.196 164.575 165.301 359.497 169.716 165.403 
348.064 171.801 165.789 346.098 174.914 166.448 346.261 175.739 166.088 
353.491 175.727 165.89 345.754 177.38 166.45 346.485 178.752 166.294 
346.1 179.142 166.582 346.207 179.588 166.692 346.838 179.63 166.537 
347.337 179.547 166.484 348.019 179.916 166.873 363.89 157.881 165.984 
364.37 158.027 166.242 364.418 158.25 165.788 365.157 158.954 166.282 
354.306 163.09 166.454 347.848 171.198 166.664 359.086 170.382 165.901 
345.031 178.547 167.325 345.43 180.423 167.523 364.584 158.17 166.404 
365.037 158.478 167.071 365.201 158.779 166.812 359.407 159.144 167.359 
365.548 159.4 167.456 345.505 173.751 168.058 345.022 181.318 168.425 
345.184 181.607 168.542 345.615 181.873 168.619 347.31 181.493 168.358 
364.069 157.764 167.482 355.001 162.493 167.721 353.343 176.745 167.395 
349.966 179.847 168.287 344.877 181.542 168.749 345.249 182.214 169.176 
345.561 182.265 169.04 345.198 182.478 169.609 345.364 182.691 169.925 
346.086 182.529 169.281 362.985 157.786 168.968 363.682 157.754 168.906 
365.088 158.326 168.47 343.306 177.557 170.233 344.599 182.273 170.129 
346.49 182.808 170.269 364.645 157.985 169.511 365.259 158.514 168.783 
365.339 162.404 170.046 354.55 175.964 169.683 349.953 180.415 170.338 
343.853 181.348 170.239 344.739 182.602 170.611 344.942 182.84 171.029 
347.206 182.547 170.52 346.322 182.956 170.822 364.762 157.992 170.193 
364.672 157.921 170.57 361.408 158.385 170.641 357.111 173.226 170.6 
343.23 181.796 172.457 343.666 182.467 172.548 364.456 157.902 171.245 
364.888 158.15 171.19 363.107 158.041 171.699 365.628 161.163 171.981 
344.184 174.806 172.141 342.646 180.972 173.194 342.582 181.156 173.614 
343.871 182.853 173.412 344.861 183.111 172.63 364.225 157.937 171.537 
364.803 158.182 171.647 364.054 164.586 172.636 342.701 181.514 173.77 
342.92 181.991 174.053 343.491 182.643 173.759 345.974 183.223 172.505 
346.291 183.16 172.794 344.738 183.176 173.461 364.607 158.09 171.786 
363.927 158.373 173.029 365.245 159.156 172.631 365.495 159.989 172.818 
365.459 160.722 173.24 361.611 167.91 173.281 345.36 173.32 173.741 
346.192 183.147 173.819 363.514 158.663 173.83 364.892 158.864 173.204 
360.507 160.289 174.676 365.401 160.476 173.444 364.205 163.531 174.417 
354.033 165.633 174.754 359.842 169.505 174.719 352.882 176.773 175.312 
343.362 182.572 175.596 344.175 183.095 175.239 364.061 158.89 174.094 
364.605 159.058 173.919 362.747 159.119 174.457 365.047 159.382 173.66 
364.909 159.469 173.983 365.007 160.264 174.194 364.668 161.597 174.775 
342.308 179.761 175.628 349.194 180.629 175.368 343.676 182.815 175.828 
345.203 183.204 175.779 363.99 159.11 174.455 363.337 159.291 174.863 
364.144 159.447 174.717 363.791 159.62 175.125 364.435 159.869 174.763 
364.288 160.906 175.349 360.573 161.361 176.262 363.665 163.404 175.911 
350.677 169.458 176.461 358.852 169.633 176.569 346.168 173.413 176.715 
345.657 183.054 176.129 343.631 182.54 176.806 343.922 182.788 176.649 
363.488 159.559 175.17 362.121 160.348 175.999 362.912 160.183 175.916 
363.867 160.257 175.57 363.906 161.984 175.951 362.987 163.689 176.721 
361.298 165.91 177.135 343.798 182.399 177.397 344.4 182.693 177.18 
363.212 160.558 176.201 362.546 161.095 176.792 363.52 160.911 176.245 
363.319 161.1 176.553 363.387 161.415 176.571 360.385 162.284 177.001 
363.014 163.381 176.833 362.842 163.145 177.021 361.771 164.967 177.18 
360.728 166.133 177.577 358.749 169.045 177.333 346.841 173.757 178.593 
355.323 172.279 178.288 354.196 173.887 177.995 342.708 180.49 178.101 
342.841 181.04 177.965 343.701 181.83 178.236 345.119 182.374 177.759 
362.831 161.157 176.822 361.948 161.53 177.033 362.975 162.022 177.048 
362.916 162.38 177.1 360.309 163.877 177.775 361.69 162.922 177.492 
360.389 164.811 178.006 356.829 165.456 177.697 360.924 164.909 177.747 
360.033 165.885 178.088 359.096 166.494 178.376 355.308 167.46 178.305 
359.38 167.127 178.059 353.443 169.047 178.526 358.259 168.103 178.319 
356.87 169.914 178.471 354.002 173.666 178.461 349.661 178.226 179.129 
345.268 181.465 179.183 359.978 164.786 178.115 358.814 165.5 178.299 
359.502 165.227 178.229 358.457 166.706 178.508 355.599 167.832 178.625 
358.372 167.415 178.476 355.898 169.66 179.104 357.036 169.205 178.647 
355.758 170.033 179.131 356.589 169.231 178.878 351.755 170.963 179.207 
349.222 172.725 179.545 354.816 172.025 178.954 353.952 172.312 179.402 
346.474 175.75 180.594 344.037 177.847 179.497 345.696 176.453 180.483 
343.216 180.086 179.274 343.906 181.065 179.447 356.901 167.568 178.742 
355.404 168.448 178.827 356.626 168.163 178.843 353.23 170.344 179.241 
354.857 170.387 179.337 355.344 170.363 179.271 355.119 170.482 179.365 
354.769 171.044 179.341 350.334 172.465 179.783 351.134 172.03 179.72 
352.945 173.069 179.733 348.636 174.178 180.458 349.27 177.428 180.365 
343.508 179.484 179.698 347.71 179.014 180.29 343.663 179.585 179.95 
345.212 180.406 180.315 343.685 180.376 179.855 343.893 180.603 179.921 
355.194 170.549 179.348 350.099 173.458 180.347 352.002 172.791 180.05 
346.791 176.233 181.15 349.6 176.036 180.855 345.587 177.192 180.848 
345.047 177.889 180.699 344.473 178.846 180.545 343.694 180.105 180.008 
345.112 180.098 180.55 344.152 180.623 180.052 344.434 180.642 180.127 
348.867 175.03 180.953 349.79 175.209 180.831 347.007 176.301 181.234 
346.397 177.12 181.266 344.87 178.915 180.784 346.265 178.238 181.282 
344.274 179.719 180.467 345.077 179.251 180.851 345.521 179.265 180.911 
346.808 178.323 181.243 344.222 180.074 180.372 347.763 177.309 274.924 
347.727 177.248 274.908 347.571 177.455 274.96 347.903 177.153 274.969 
347.851 177.376 275.014 349.683 174.771 275.381 350.258 174.994 275.495 
350.197 174.558 275.526 348.985 175.651 275.165 350.572 175.077 275.663 
347.409 176.919 274.952 349.535 175.775 275.3 349.913 175.686 275.444 
347.065 177.035 274.972 346.734 177.382 274.972 345.919 178.098 275.034 
346.277 177.548 275.046 347.107 178 275.077 347.732 177.767 275.18 
345 178.71 275.213 344.851 178.462 275.378 344.592 179.226 275.439 
345.46 178.872 275.102 344.716 179.349 275.34 344.928 179.311 275.262 
345.505 179.429 275.309 345.864 179.508 275.462 345.186 179.632 275.414 
353.485 171.621 276.546 350.11 173.395 275.941 352.476 172.584 276.183 
351.475 173.228 275.978 348.134 174.652 275.662 349.136 174.917 275.371 
352.01 173.673 276.14 347.559 175.64 275.379 348.416 175.865 275.18 
351.706 174.354 276.226 349.588 176.455 275.626 344.999 177.454 275.753 
344.578 178.69 275.538 344.582 179.478 275.483 344.793 179.893 275.72 
344.568 179.866 275.702 344.491 179.85 275.735 356.298 168.923 277.611 
353.504 170.479 276.904 354.618 170.511 277.064 353.982 171.983 276.838 
348.01 173.791 276.395 353.18 173.07 276.649 346.339 175.687 275.907 
353.046 173.528 276.815 345.472 176.121 276.207 344.224 179.678 276.161 
345.161 180.152 275.922 344.369 180.149 276.367 346.43 180.232 276.508 
359.276 165.646 278.422 357.346 166.911 278.146 359.244 166.413 278.455 
355.233 168.599 277.651 352.658 169.813 277.437 354.173 169.688 277.267 
350.541 171.453 277.081 348.657 172.702 277.06 354.025 172.604 277.157 
[...]
POINT_DATA 659
SCALARS scalars float
LOOKUP_TABLE default
1 1 1 1 1 1 1 1 1 
1 1 1 1 1 1 1 1 1 
1 1 1 1 1 1 1 1 1 
1 1 1 1 1 1 1 1 1 
1 1 1 1 1 1 1 1 1 
1 1 1 1 1 1 1 1 1 
1 1 1 1 1 1 1 1 1 
1 1 1 1 1 1 1 1 1 
1 1 1 1 1 1 1 1 1 
1 1 1 1 1 1 1 1 1 
1 1 1 1 1 1 1 1 1 
1 1 1 1 1 1 1 1 1 
1 1 1 1 1 1 1 1 1 
1 1 1 1 1 1 1 1 1 
1 1 1 1 1 1 1 1 1 
1 1 1 1 1 1 1 1 1 
1 1 1 1 1 1 1 1 1 
1 1 1 1 1 1 1 1 1 
1 1 1 1 1 1 1 1 1 
1 1 1 1 1 1 1 1 1 
1 1 1 1 1 1 1 1 1 
1 1 1 1 1 1 1 1 1 
1 1 1 1 1 1 1 1 1 
1 1 1 1 1 1 1 1 1 
1 1 1 1 1 1 1 1 1 
1 1 1 1 1 1 1 1 1 
1 1 1 1 1 1 1 1 1 
1 1 1 1 1 1 1 1 1 
1 1 1 1 1 1 1 1 1 
1 1 1 1 1 1 1 1 1 
1 1 1 1 1 1 1 1 1 
1 1 1 1 1 1 1 1 1 
1 1 1 1 1 1 1 1 1 
1 1 1 1 1 1 1 1 1 
1 1 1 1 1 1 1 1 1 
1 1 1 1 1 1 1 1 1 
1 1 1 1 1 1 1 1 1 
1 1 1 1 1 1 1 1 1 
1 1 1 1 1 1 1 1 1 
1 1 1 1 1 1 1 1 1 
1 1 1 1 1 1 1 1 1 
1 1 1 1 1 1 1 1 1 
1 1 1 1 1 1 1 1 1 
1 1 1 1 1 1 1 1 1 
1 1 1 1 1 1 1 1 1 
1 1 1 1 1 1 1 1 1 
1 1 1 1 1 1 1 1 1 
1 1 1 1 1 1 1 1 1 
1 1 1 1 1 1 1 1 1 
1 1 1 1 1 1 1 1 1 
1 1 1 1 1 1 1 1 1 
1 1 1 1 1 1 1 1 1 
1 1 1 1 1 1 1 1 1 
1 1 1 1 1 1 1 1 1 
1 1 1 1 1 1 1 1 1 
1 1 1 1 1 1 1 1 1 
1 1 1 1 1 1 1 1 1 
1 1 1 1 1 1 1 1 1 
1 1 1 1 1 1 1 1 1 
1 1 1 1 1 1 1 1 1 
1 1 1 1 1 1 1 1 1 
1 1 1 1 1 1 1 1 1 
1 1 1 1 1 1 1 1 1 
1 1 1 1 1 1 1 1 1 
1 1 1 1 1 1 1 1 1 
1 1 1 1 1 1 1 1 1 
1 1 1 1 1 1 1 1 1 
1 1 1 1 1 1 1 1 1 
1 1 1 1 1 1 1 1 1 
1 1 1 1 1 1 1 1 1 
1 1 1 1 1 1 1 1 1 
1 1 1 1 1 1 1 1 1 
1 1 1 1 1 1 1 1 1 
1 1 
NORMALS Normals float
0.223722 -0.238545 -0.94501 -0.140198 -0.540413 -0.829638 -0.325108 -0.204797 -0.923235 
0.133403 -0.559117 -0.818286 0.094357 -0.0143143 -0.995435 -0.132663 0.281337 -0.950395 
0.354159 0.304836 -0.884108 0.0295919 -0.447498 -0.893795 0.490652 0.83058 -0.263434 
-0.387067 -0.461963 -0.797978 0.372534 -0.352476 -0.858475 -0.432428 -0.238256 -0.869621 
0.354395 0.280394 -0.892067 0.644915 -0.0839906 -0.759625 -0.173231 -0.0185272 -0.984707 
-0.0014204 0.156649 -0.987653 0.467636 0.192465 -0.862713 -0.269551 -0.198554 -0.942294 
-0.571321 -0.0586154 -0.818631 0.0479461 0.0210026 -0.998629 -0.283783 0.215897 -0.934267 
-0.171182 -0.704157 -0.689101 -0.377881 -0.743825 -0.551299 0.554303 -0.315781 -0.770085 
0.647478 -0.195454 -0.736594 -0.532524 -0.741793 -0.407629 -0.385506 -0.394296 -0.834216 
-0.62108 -0.418062 -0.662936 -0.554011 -0.236464 -0.798221 -0.0151131 0.0971017 -0.99516 
-0.122102 0.151773 -0.980845 0.158018 0.2725 -0.949091 0.261748 0.418604 -0.869631 
-0.123568 0.164791 -0.978557 0.0894346 0.0302643 -0.995533 0.128666 0.219396 -0.967114 
-0.0843978 -0.69531 -0.713738 -0.127981 -0.922377 -0.364474 -0.345201 -0.697313 -0.628165 
0.319283 -0.829214 -0.458762 -0.41023 -0.77968 -0.473085 0.57594 -0.607103 -0.547466 
-0.606456 -0.736556 -0.299494 -0.51719 -0.786152 -0.338349 0.637637 -0.628216 -0.445829 
0.808414 -0.453383 -0.375381 0.778682 -0.085194 -0.621607 0.795007 0.158165 -0.585618 
0.583469 0.543279 -0.603665 -0.187214 0.0654012 -0.98014 -0.251889 0.124127 -0.959763 
0.124983 0.364531 -0.922765 -0.376201 0.0180918 -0.926362 0.887536 -0.316105 -0.335198 
-0.579535 -0.46916 -0.666354 -0.645916 -0.62233 -0.442151 -0.47739 -0.178369 -0.860397 
0.454079 0.590807 -0.666903 0.303774 0.40739 -0.861252 0.0797663 0.431359 -0.898647 
-0.31714 -0.926819 -0.20107 0.727655 -0.468329 -0.501184 0.634606 -0.632231 -0.444477 
0.847678 -0.260769 -0.461997 0.830248 -0.442207 -0.339326 0.540739 0.580275 -0.609001 
0.573401 0.339007 -0.745845 0.527379 0.519803 -0.672068 0.45637 0.542456 -0.705314 
-0.465274 -0.00163736 -0.885165 -0.709198 -0.158694 -0.686916 -0.224552 0.205867 -0.952468 
-0.0345023 0.219073 -0.975098 -0.360879 0.30933 -0.879819 0.10285 0.400441 -0.910532 
0.37743 -0.85319 -0.360018 0.862726 0.20754 -0.461119 0.658385 0.717008 -0.228972 
0.763312 0.527666 -0.372723 0.866153 0.467028 -0.177944 -0.766392 -0.389085 -0.511132 
-0.676629 -0.204401 -0.707385 -0.192188 0.0982281 -0.97643 0.390359 0.633067 -0.668465 
-0.437313 0.1707 -0.88296 -0.018446 0.198364 -0.979955 0.407393 0.649165 -0.642352 
-0.252212 0.347422 -0.903154 -0.353634 0.146441 -0.92385 -0.064685 0.493601 -0.86728 
-0.22239 0.266695 -0.937772 -0.0278019 0.479611 -0.877041 0.0659955 0.415242 -0.907314 
0.0814522 -0.965476 -0.247431 0.48498 -0.823764 -0.293609 -0.410336 -0.896148 -0.168948 
0.805146 -0.362085 -0.469718 0.911792 0.0119047 -0.410481 -0.699438 -0.677699 -0.226958 
0.942102 0.153079 -0.298347 0.704943 0.595036 -0.385989 0.607045 0.640279 -0.47068 
-0.586355 -0.220289 -0.779526 -0.692826 -0.154652 -0.704326 -0.447906 0.0223328 -0.893801 
-0.0317618 0.420182 -0.906884 -0.0355787 -0.989166 -0.142423 0.951158 -0.211021 -0.225321 
-0.636357 -0.758567 -0.140091 -0.791624 -0.597556 -0.127507 0.769659 0.538926 -0.342323 
-0.735998 -0.333945 -0.588886 -0.682087 -0.201369 -0.703 -0.585937 -0.054679 -0.80851 
0.474731 0.647403 -0.596238 -0.749152 -0.0374774 -0.661337 -0.380597 0.219626 -0.898282 
-0.457335 0.258761 -0.850816 -0.447947 0.359787 -0.818472 -0.0984453 0.558485 -0.823652 
0.0192178 0.4673 -0.88389 0.235412 0.644779 -0.727215 0.307987 -0.890422 -0.335101 
0.517521 -0.832414 -0.19814 0.552745 -0.705213 -0.444013 0.828923 -0.456262 -0.323591 
-0.735688 -0.677321 8.57619e-05 -0.798852 -0.467935 -0.377985 0.694789 0.670733 -0.259589 
-0.70775 0.154563 -0.689348 -0.597805 0.384645 -0.703333 0.723915 -0.646677 -0.240323 
0.752096 -0.652366 -0.0936503 0.881625 -0.438059 -0.17562 -0.543416 -0.829499 0.12896 
0.972344 -0.212565 -0.0967594 -0.849156 -0.421644 -0.31804 -0.557565 0.424057 -0.71365 
-0.378596 0.632582 -0.675652 -0.238041 0.663164 -0.709613 0.357934 0.79151 -0.495374 
0.292357 -0.955354 -0.0427308 -0.69054 -0.721112 0.0561346 0.691046 0.671167 -0.26831 
0.695114 0.677836 -0.239489 -0.596195 0.595754 -0.538172 -0.463155 0.721448 -0.514782 
-0.251953 0.777904 -0.575661 -0.485233 0.734381 -0.474588 -0.306704 0.904128 -0.297466 
-0.0416795 0.860968 -0.506949 -0.159106 -0.986165 0.0465092 0.175524 -0.981627 0.0748309 
0.64745 -0.759592 -0.0618744 -0.929641 -0.0436581 -0.365872 -0.63582 0.680462 -0.364287 
0.305392 0.903973 -0.29928 0.337223 -0.941233 0.0190208 0.893687 -0.447702 0.0297587 
0.843996 0.530098 -0.0816564 0.737158 0.675242 0.0254306 0.765059 0.639193 -0.0782126 
-0.798332 0.422024 -0.429606 -0.501083 0.81673 -0.286126 -0.394883 0.887214 -0.238577 
0.48545 0.854738 -0.183741 0.0497391 0.97969 -0.194251 0.271002 -0.956916 -0.104259 
0.439023 -0.898388 -0.0125234 -0.358113 -0.921162 0.152366 0.755244 0.65211 0.0660273 
-0.882047 0.373856 -0.286748 -0.717401 0.656209 -0.233935 0.0882046 -0.994588 0.0549019 
0.761477 -0.634701 0.131559 -0.128248 -0.964496 0.230869 0.985231 0.132613 0.108327 
-0.874589 -0.463317 0.142939 -0.903058 0.324911 -0.280926 -0.961951 0.238318 -0.133622 
-0.568356 0.798416 -0.198752 -0.208913 0.975759 -0.0651878 0.0387255 -0.955993 0.290822 
0.768262 -0.603441 0.213616 0.891369 0.438271 0.115671 -0.88849 0.430896 -0.157845 
-0.870885 0.485017 -0.0794825 -0.609151 0.784867 -0.113662 0.0319872 0.999487 0.00172305 
0.323535 0.945871 0.0255589 -0.305424 0.951398 -0.0394757 0.373472 -0.868772 0.325199 
0.0675474 -0.941437 0.330355 0.839988 -0.49546 0.221224 0.948946 -0.213872 0.231862 
0.963288 0.102146 0.24828 0.788251 0.596251 0.152136 -0.745347 -0.660069 0.0936357 
0.244883 0.967834 0.0577044 0.0492929 -0.924384 0.378264 0.691922 -0.639926 0.334273 
-0.572853 -0.722758 0.386602 0.928412 -0.0604556 0.3666 0.857713 0.410565 0.30946 
-0.609119 -0.707571 0.358214 0.757921 0.598956 0.258472 0.689273 0.690712 0.218677 
-0.685818 0.725918 0.0519411 -0.270513 0.961602 0.0463024 0.361562 -0.815395 0.452111 
0.512356 -0.673562 0.532734 -0.251039 -0.883854 0.394692 0.817574 -0.433728 0.378751 
0.735123 -0.317881 0.598786 0.77319 -0.222562 0.593838 0.891274 0.120578 0.43714 
-0.998623 0.0382325 0.035925 0.707727 0.655135 0.264426 -0.553566 0.827367 0.0950139 
-0.00279575 0.987585 0.15706 0.18647 -0.804624 0.563745 0.0950072 -0.802006 0.589712 
0.453664 -0.642172 0.617903 0.380585 -0.643777 0.663857 0.712721 -0.341667 0.612611 
0.790085 -0.131655 0.598693 -0.440127 -0.657955 0.611051 0.804582 0.313067 0.504616 
-0.511403 -0.691331 0.510419 0.67069 0.573858 0.46996 -0.735228 -0.590613 0.332591 
0.31447 0.89616 0.31306 -0.706789 0.637029 0.307641 -0.432816 0.864759 0.254681 
0.134442 -0.71689 0.684101 -0.174257 -0.743786 0.645303 0.117247 -0.692166 0.712151 
0.491477 -0.505485 0.709179 0.83919 0.0638507 0.540077 0.625636 0.34002 0.702115 
0.722599 0.422068 0.547457 -0.299907 0.819004 0.489171 -0.149456 0.911677 0.382763 
0.246689 -0.633989 0.73294 -0.0911811 -0.660717 0.745076 0.718879 -0.243433 0.651117 
0.542045 -0.37248 0.75329 0.71365 -0.0733579 0.696651 -0.372727 -0.509134 0.775794 
0.734741 0.164503 0.658099 0.478954 0.186892 0.857715 0.733521 0.477055 0.484113 
0.569652 0.307947 0.762014 0.615304 0.497506 0.611464 -0.619246 -0.612691 0.491065 
0.65579 0.517497 0.549669 0.652796 0.578696 0.488844 -0.947589 -0.0488162 0.315742 
-0.856134 0.444404 0.263703 -0.68575 0.618495 0.383681 0.135755 0.838411 0.527862 
0.263451 -0.423151 0.866912 -0.062114 -0.425502 0.902823 0.506035 -0.124656 0.853457 
0.443903 -0.0176232 0.895902 0.0951056 -0.301759 0.948629 0.132704 -0.168634 0.976705 
0.396721 -0.0368104 0.917201 -0.414983 -0.627732 0.658591 0.469158 0.115381 0.875544 
0.312524 0.0460466 0.948793 0.304659 0.0654842 0.950208 -0.355793 -0.51553 0.779512 
0.546284 0.353132 0.759521 -0.368945 -0.529213 0.764077 0.492569 0.318838 0.809764 
0.553534 0.309011 0.773377 0.517528 0.61655 0.593322 0.613006 0.702861 0.360845 
0.194667 0.77602 0.599915 0.00678987 -0.270206 0.962779 -0.0456856 -0.297893 0.953506 
-0.00697873 -0.278786 0.960328 0.0253712 -0.0800748 0.996466 -0.205489 -0.384475 0.899974 
0.0395516 0.16002 0.986321 0.322268 0.0403779 0.945787 0.52974 0.383073 0.756724 
0.357016 0.0488656 0.932819 0.276723 0.0484236 0.959729 -0.28182 -0.574564 0.76841 
-0.418118 -0.662926 0.621052 0.602141 0.37567 0.704485 0.586828 0.411746 0.697208 
-0.3905 -0.600648 0.697662 -0.828494 -0.39852 0.39342 -0.656588 -0.510171 0.555534 
-0.905761 -0.00511575 0.423757 -0.352684 0.741095 0.571308 -0.00878259 -0.243094 0.969963 
-0.120483 -0.296272 0.947474 0.0156448 -0.157581 0.987382 -0.246091 -0.510789 0.823732 
0.0378235 -0.242234 0.96948 0.319133 -0.122832 0.939716 0.112853 -0.140331 0.983652 
0.394858 0.217748 0.892565 -0.220039 -0.569736 0.791823 -0.259793 -0.541152 0.799789 
0.415371 0.39207 0.820822 -0.151497 -0.508492 0.847634 0.610145 0.497281 0.616794 
-0.864455 -0.171521 0.472544 0.495582 0.664639 0.559154 -0.684866 -0.147232 0.713639 
0.103829 0.613815 0.782593 -0.712965 0.395518 0.579004 -0.54046 0.469557 0.698154 
0.379606 0.123864 0.916819 -0.115272 -0.436774 0.892155 0.103863 -0.21242 0.971643 
-0.33472 -0.485437 0.807659 0.395194 0.225441 0.890504 -0.511819 -0.266232 0.816799 
-0.563011 -0.24041 0.79071 -0.605024 -0.138829 0.784011 -0.700175 0.164677 0.69472 
-0.0360609 0.430557 0.901843 -0.363661 0.549607 0.752119 -0.125899 0.627605 0.768285 
0.0950544 -0.204844 0.974168 0.152523 -0.207699 0.966229 -0.183772 -0.456225 0.870682 
-0.328839 -0.23435 0.914847 -0.367493 -0.0271649 0.92963 -0.172012 0.121669 0.977552 
-0.461745 0.0636484 0.884726 -0.334151 0.0740664 0.939605 -0.123301 0.129645 0.983864 
0.223937 0.308729 0.924412 -0.305509 0.388853 0.86917 0.321316 0.304068 -0.896827 
0.100347 0.0326518 -0.994417 0.062229 0.266004 -0.961961 0.579082 0.210851 -0.787532 
0.637237 0.450259 -0.625456 0.0947914 -0.27008 -0.95816 0.342745 -0.0156616 -0.939298 
0.188667 -0.428805 -0.883477 0.12571 -0.0670907 -0.989796 0.531015 0.130363 -0.837274 
-0.102389 -0.110121 -0.98863 0.289464 0.182954 -0.939541 0.385242 0.118147 -0.915221 
-0.233074 -0.265078 -0.935634 -0.0996224 0.0241991 -0.994731 -0.097616 -0.0718591 -0.992627 
-0.114809 -0.0574895 -0.991723 0.167053 0.363382 -0.916541 0.572223 0.51524 -0.638035 
-0.382321 -0.171211 -0.908029 -0.639188 -0.309191 -0.704159 -0.756292 -0.0162613 -0.654032 
0.104854 0.277381 -0.955021 -0.48226 0.0522972 -0.874466 -0.159018 0.401466 -0.901964 
0.120574 0.446136 -0.886806 0.31972 0.571892 -0.755459 -0.0400283 0.614075 -0.788232 
0.357665 0.0626485 -0.931746 -0.0418142 -0.427036 -0.903267 0.195635 -0.104466 -0.975097 
0.146016 -0.0842442 -0.985689 -0.22287 -0.48304 -0.846759 -0.141265 -0.489541 -0.860461 
0.537776 0.343883 -0.769767 -0.32952 -0.509177 -0.795082 -0.0643803 -0.261389 -0.963084 
0.631913 0.331659 -0.700491 0.480485 0.445733 -0.755286 -0.578961 -0.351832 -0.73554 
-0.700654 -0.232182 -0.674667 -0.533773 0.373379 -0.758732 -0.140992 0.718464 -0.681125 
-0.227335 0.703974 -0.672859 -0.671331 0.47974 -0.564947 0.257078 -0.0324987 -0.965844 
-0.0207555 -0.42943 -0.902862 0.363623 -0.0705104 -0.928874 0.505273 0.262989 -0.82191 
-0.520873 -0.654392 -0.548145 0.616018 0.343708 -0.708792 -0.411735 -0.574001 -0.707811 
0.614522 0.498434 -0.611495 -0.545168 -0.474474 -0.691134 -0.835675 0.253536 -0.487203 
-0.055259 0.762794 -0.644276 -0.466572 0.722275 -0.510519 0.346291 0.780415 -0.52061 
0.268984 -0.0354208 -0.962493 -0.109373 -0.379392 -0.918749 0.559313 0.174453 -0.810392 
-0.0757006 -0.456003 -0.886753 -0.388446 -0.556311 -0.734594 -0.143076 -0.483231 -0.863723 
-0.403829 -0.641883 -0.65185 -0.429106 -0.672269 -0.603259 0.657999 0.408461 -0.632612 
-0.559301 -0.659711 -0.50196 -0.842114 -0.401309 -0.360271 -0.564341 0.548971 -0.616564 
-0.656406 0.456751 -0.600424 0.0183636 0.838059 -0.54527 0.377265 -0.247898 -0.89231 
0.55222 0.320349 -0.769694 0.46337 -0.166784 -0.870328 0.14049 -0.208887 -0.967796 
0.500304 0.196579 -0.843239 0.103863 -0.264332 -0.958823 0.177774 -0.154684 -0.971838 
-0.177005 -0.484798 -0.856528 0.563809 0.269599 -0.780663 0.543087 0.3098 -0.780436 
-0.271151 -0.557056 -0.784962 -0.294436 -0.635598 -0.713668 0.72786 0.52921 -0.436071 
0.707211 0.54419 -0.451342 -0.934826 -0.0906893 -0.34333 -0.853095 -0.167591 -0.494108 
0.596671 0.650288 -0.470223 -0.815971 0.304274 -0.491537 -0.680272 0.485147 -0.54942 
-0.534733 0.647216 -0.543297 -0.160167 0.824254 -0.543095 -0.0415959 -0.612695 -0.789224 
0.136405 -0.682885 -0.717678 0.288989 -0.573681 -0.766404 0.389826 -0.249889 -0.886336 
0.607885 -0.125277 -0.78408 0.715083 0.215482 -0.664999 -0.381119 -0.469975 -0.796161 
-0.374404 -0.507678 -0.775941 0.577379 0.395965 -0.714034 -0.32349 -0.544526 -0.773851 
-0.516722 -0.650834 -0.556249 -0.701916 -0.638331 -0.315985 -0.935613 0.27514 -0.221193 
-0.837215 0.377301 -0.395871 -0.8285 0.41214 -0.379116 -0.466275 0.774791 -0.42695 
-0.234327 0.876042 -0.421476 0.20306 0.890702 -0.406713 0.595306 -0.494295 -0.633469 
0.782095 0.355723 -0.511653 -0.438222 -0.570924 -0.694267 0.761185 0.445338 -0.471457 
0.610566 0.435292 -0.661612 -0.995748 -0.0917928 -0.00775799 -0.697267 0.653832 -0.293807 
-0.33976 0.900784 -0.270464 0.306261 -0.593041 -0.744652 0.612329 -0.367349 -0.700077 
-0.703252 -0.658151 -0.268838 -0.972629 0.211375 -0.0965041 0.0190548 -0.74439 -0.667473 
0.350803 -0.727266 -0.589934 0.966239 -0.11717 -0.229464 0.883118 0.0114396 -0.469011 
-0.514729 -0.747969 -0.419042 0.918909 0.38122 -0.101378 0.7059 0.672912 -0.221122 
-0.992324 0.121202 0.0245815 -0.812714 0.545441 -0.204914 0.143727 0.952302 -0.269192 
0.0178765 -0.894836 -0.446037 0.39529 -0.78808 -0.471884 0.693621 -0.600001 -0.398608 
0.749309 -0.46665 -0.469865 -0.979515 -0.192343 -0.0596153 0.729021 0.654037 -0.201899 
-0.922196 0.38494 0.0370951 -0.877852 0.478899 -0.0056001 0.604179 0.79145 -0.0926041 
-0.734779 0.678166 0.0137818 -0.135097 0.989073 -0.0590213 -0.270196 -0.885898 -0.377066 
0.133835 -0.91231 -0.387012 0.764045 -0.60967 -0.211039 0.795419 0.527057 -0.299197 
-0.960521 -0.273074 -0.0531938 -0.582366 0.808867 0.0811405 0.164624 -0.937221 -0.307434 
0.0351976 -0.9794 -0.198838 0.447692 -0.872442 -0.196001 -0.171521 -0.944002 -0.281852 
0.865041 -0.494619 -0.0840072 0.955585 -0.286919 -0.0673339 -0.862054 -0.506103 -0.0268692 
-0.966403 -0.24014 0.0916385 -0.988111 -0.0106992 0.153371 -0.947381 0.287623 0.140506 
-0.861719 0.385935 0.329385 -0.82077 0.52701 0.220449 -0.556739 0.792634 0.248541 
-0.382248 0.895042 0.229752 0.588075 -0.806091 -0.0662256 0.994948 -0.0904697 -0.0435166 
-0.663864 0.657532 0.356282 0.79009 -0.599483 -0.127977 0.820543 0.571478 0.0110381 
-0.777335 -0.628474 0.0277688 0.738194 0.674463 0.0129825 -0.871975 -0.474945 0.118692 
-0.938586 -0.272935 0.2111 0.64637 0.758374 0.0841126 -0.906783 0.234598 0.350297 
-0.648089 0.636021 0.418877 0.108792 0.992929 0.0474946 0.615197 0.768807 0.174553 
-0.272151 0.926479 0.259944 -0.0132271 -0.996662 -0.0805626 0.427573 -0.900324 -0.0812292 
0.579893 -0.795421 -0.176152 -0.93288 0.0739788 0.352509 0.313896 0.915953 0.249998 
-0.183351 0.942458 0.279562 0.295097 -0.95456 -0.0416286 0.520318 -0.85327 0.0346218 
0.644364 -0.761306 0.0721677 -0.18674 -0.981548 -0.0411321 0.870562 -0.487417 0.0674292 
-0.499172 -0.860664 -0.10042 -0.830199 -0.550237 0.0894891 -0.870124 -0.373479 0.321554 
-0.592984 0.660943 0.459917 -0.398306 0.791095 0.464241 0.0956368 0.91653 0.388365 
0.383863 0.840139 0.383165 0.286313 -0.957382 0.0380043 -0.356177 -0.928884 0.101552 
0.990852 0.0800748 0.108627 -0.744539 -0.667294 -0.0195126 0.701183 0.707561 0.0877527 
-0.794917 -0.0185828 0.606433 -0.722305 0.302564 0.621877 -0.66984 0.0503635 0.740795 
-0.728943 0.387676 0.564225 -0.436494 0.60166 0.668939 -0.018325 0.869837 0.492999 
-0.128259 0.762874 0.633698 0.273984 0.829671 0.486394 0.620377 -0.75782 0.202092 
0.791979 -0.555472 0.253417 -0.213644 -0.976302 0.0345015 -0.749011 -0.385393 0.538938 
-0.849179 -0.367826 0.378944 0.576716 0.710259 0.403646 -0.597242 0.43865 0.671482 
0.338901 0.841647 0.420449 0.145283 -0.976245 0.160745 0.878301 -0.452716 0.15374 
0.905106 -0.318229 0.281979 0.885465 0.42811 0.180757 -0.641952 0.0202097 0.766479 
0.550305 0.757719 0.35075 -0.512041 0.410872 0.75432 -0.504831 0.320122 0.801665 
0.398061 0.636126 0.660977 -0.316695 0.530569 0.786258 -0.205292 0.696788 0.687271 
0.191577 0.747097 0.636509 0.114765 -0.960293 0.254294 -0.163742 -0.972666 0.164648 
0.215343 -0.946974 0.238469 0.755876 -0.58035 0.30306 0.852923 -0.388312 0.348906 
0.974417 0.0116997 0.224442 0.972988 0.153272 0.172632 -0.699081 -0.695769 0.164898 
0.640675 0.609346 0.467154 0.365148 0.630879 0.684586 -0.397137 0.276237 0.8752 
0.335836 0.609698 0.717972 -0.0635547 0.644228 0.762189 -0.01194 -0.964368 0.264295 
0.862134 -0.350512 0.365877 -0.429415 0.240812 0.870409 -0.517439 0.191141 0.834099 
-0.303122 0.238927 0.922513 -0.0616265 0.451784 0.889996 -0.346386 -0.901141 0.260694 
0.515711 -0.77652 0.362021 -0.429749 -0.0730567 0.899988 -0.4862 -0.0683257 0.871172 
0.300255 0.418996 0.856907 0.0065688 0.315891 0.948773 0.0764649 0.448594 0.890459 
0.0300185 -0.973687 0.225906 0.909698 0.0350925 0.413785 -0.718161 -0.477903 0.505819 
0.0736864 0.0857015 0.993592 0.201316 0.324058 0.924369 0.254802 0.157284 0.954116 
0.367031 0.312929 0.875993 -0.127351 0.396212 0.909284 0.154062 -0.833412 0.530743 
0.508253 -0.800862 0.316699 0.560633 -0.694374 0.451148 0.711469 -0.609542 0.349673 
0.814814 -0.333692 0.474055 0.844458 0.120704 0.521844 0.682222 0.448251 0.57762 
-0.080707 0.223937 0.971256 -0.056333 -0.86535 0.497992 -0.112759 -0.846815 0.519798 
-0.609217 -0.693255 0.385036 -0.405061 -0.79072 0.459007 0.781364 -0.277292 0.559087 
-0.608836 -0.437308 0.661876 0.710464 0.142198 0.689217 -0.443233 -0.11657 0.888795 
0.411844 0.448435 0.793278 -0.477097 0.164564 0.863306 -0.0861188 0.14938 0.985022 
-0.224943 0.337963 0.913883 0.29724 -0.710732 0.63758 0.629213 -0.49773 0.596955 
0.50194 -0.489211 0.713252 -0.479115 -0.386544 0.788056 -0.540431 -0.288989 0.790202 