# vtk DataFile Version 4.2
vtk output
ASCII
DATASET POLYDATA
POINTS 5625 float
403.247 58.2933 116.407 402.862 58.3788 116.508 403.457 58.0979 116.342 
404.257 58.323 116.425 404.559 58.2174 116.423 397.612 58.6347 116.037 
397.703 58.5442 116.229 397.662 58.6132 116.143 397.596 58.6585 115.975 
397.608 58.6573 115.971 397.621 58.6476 116.03 397.679 58.3697 116.599 
397.532 58.1547 116.875 397.55 58.2922 117.025 397.88 58.3535 116.41 
398.22 58.3628 116.434 398.234 58.0748 116.556 398.663 58.259 116.53 
400.513 58.2627 116.601 399.896 58.114 116.557 402.429 57.792 116.37 
405.453 57.9756 116.556 406.279 58.2093 116.767 406.576 58.0903 116.811 
397.766 58.465 116.827 397.792 58.5526 116.449 397.872 58.5549 116.23 
397.665 58.6357 116.025 398.599 58.5106 116.642 400.777 58.5405 116.851 
405.419 58.4553 116.796 397.739 58.6123 116.183 397.394 57.791 117.164 
397.292 57.9739 117.345 400.75 57.3321 116.582 402.7 57.5001 116.423 
402.217 57.1709 116.568 404.335 57.5617 116.481 407.538 57.6316 117.135 
399.317 58.3227 116.635 399.078 57.9698 116.573 407.719 57.7999 117.156 
408.181 57.9985 117.407 408.452 57.9503 117.545 408.355 57.8477 117.453 
408.569 57.8191 117.648 398.199 58.5927 116.979 398.012 58.5775 116.46 
399.771 58.6335 117.026 401.48 58.7903 117.21 406.723 58.4579 117.217 
408.399 58.0688 117.645 397.255 57.5293 117.466 396.961 57.2631 117.897 
396.92 57.4913 117.757 398.53 57.2388 117.028 399.349 57.0435 116.946 
400.272 56.4219 117.224 404.498 56.5318 117.035 396.797 57.5549 117.895 
408.466 57.7127 117.57 408.745 57.7789 117.943 398.787 58.7672 117.629 
407.288 58.5021 117.607 408.678 58.0004 117.94 396.707 57.1916 118.346 
405.474 56.2482 117.445 407.687 56.9519 117.625 396.674 57.6265 118.322 
408.844 57.8738 118.056 408.905 57.8431 118.182 403.548 59.1423 118.206 
406.673 58.7839 118.091 408.272 58.4925 118.452 408.755 58.0534 118.302 
408.577 58.3559 118.607 402.449 55.179 118.154 396.334 56.6264 119.488 
396.98 55.7746 119.267 406.644 55.7082 118.288 396.489 57.1016 119.008 
408.583 56.9504 118.396 408.45 56.5299 118.627 409.001 57.0197 119.169 
408.911 57.767 118.429 399.228 59.0385 118.924 408.039 58.5878 118.565 
408.656 58.3551 118.982 408.813 58.1706 118.967 400.889 69.6733 121.462 
400.82 69.7366 121.439 400.941 69.83 121.438 400.842 69.8516 121.341 
400.876 69.8807 121.362 400.849 69.886 121.333 404.314 54.2482 119.291 
397.935 54.6303 119.727 408.628 56.224 119.127 408.865 56.0444 119.703 
396.333 57.6352 120.192 397.115 58.4613 120.296 408.308 58.5488 119.172 
400.869 69.5027 121.546 400.766 69.4572 121.63 400.764 69.6676 121.669 
400.93 69.8891 121.562 396.538 54.5817 120.704 405.889 54.0819 119.803 
408.897 55.4842 120.356 395.689 56.0897 120.942 395.934 57.1873 120.745 
409.239 56.476 120.501 396.596 58.1344 120.636 409.079 57.646 120.275 
405.515 59.2746 120.319 406.329 59.1076 120.306 408.394 58.3844 120.192 
408.898 58.0403 119.826 399.792 66.9109 122.762 400.047 67.3172 122.594 
400.676 69.0273 121.861 400.521 69.1829 122.017 401.506 69.9634 122.004 
401.469 70.0664 122.044 401.548 70.1779 122.302 399.065 52.8567 121.268 
402.477 52.6919 121.018 395.52 54.2078 122.127 408.431 54.4815 120.833 
408.347 53.9382 121.394 395.796 54.889 121.31 409.087 55.153 121.231 
395.582 56.6944 121.301 395.908 58.0191 122.042 409.271 57.1427 121.31 
396.439 58.2955 121.438 409.03 57.6887 120.967 397.446 59.0607 121.712 
407.652 58.6988 121.08 408.704 58.0313 121.217 399.763 66.613 122.869 
399.588 66.2763 123.039 399.525 66.6642 122.973 400.145 67.8287 122.468 
400.41 67.4695 122.535 400.086 68.2565 122.469 399.917 68.4135 122.765 
401.019 68.8793 121.945 400.116 68.9269 122.735 400.343 69.2782 122.614 
400.88 69.9469 122.683 401.968 69.7814 122.561 401.17 70.1899 122.692 
401.311 70.246 122.533 401.957 70.2527 122.796 401.561 70.3042 122.627 
396.293 52.708 122.793 408.562 53.6088 122.036 394.478 54.4045 123.408 
409.49 56.4736 122.329 395.526 58.0555 122.816 409.245 57.2884 122.482 
398.208 59.5056 122.14 398.945 59.5889 121.947 398.376 64.5306 123.839 
398.294 64.4958 123.893 398.511 64.5282 123.808 398.422 64.7329 123.849 
399.573 65.907 123.179 399.159 66.5506 123.267 398.997 67.0326 123.563 
401.486 67.552 122.854 401.743 68.1381 122.776 402.12 68.0341 123.108 
400.83 69.9402 123.107 402.343 70.0692 123.016 402.65 69.902 123.29 
402.308 70.5946 123.426 402.13 70.7266 123.729 402.463 70.8248 123.81 
402.677 70.9315 124.05 395.313 52.4615 123.743 407.833 52.4304 122.81 
394.58 53.7306 123.544 408.628 53.167 122.718 409.041 53.4827 123.122 
394.436 56.5327 123.679 407.115 59.0787 122.8 397.562 63.3115 124.429 
398.262 62.9153 124.135 397.682 63.9165 124.379 398.458 64.101 123.93 
399.035 64.9176 123.634 400.39 65.3379 123.428 398.15 65.5641 124.137 
401.592 66.2091 123.492 398.63 66.6725 124.013 402.606 68.1937 123.513 
401.038 70.0898 123.806 402.937 70.345 123.77 402.946 70.6498 123.965 
402.956 70.9189 124.248 398.425 50.3939 124.435 403.376 50.053 124.377 
394.116 52.8684 124.697 409.349 53.431 124.052 409.732 54.9975 124.007 
409.595 56.4618 124.253 409.76 55.9554 124.363 402.234 60.0101 123.247 
398.96 60.2422 123.206 396.747 61.9177 124.746 397.858 62.3001 124.262 
397.632 61.4592 124.191 398.891 62.3123 124.119 397.242 62.5323 124.564 
396.558 62.4448 125.069 397.914 65.2379 124.377 397.647 65.4831 124.892 
402.228 65.663 124.158 403.259 67.143 124.49 398.202 66.7046 125.185 
403.691 70.0316 124.794 403.691 70.0576 124.867 403.199 70.7091 124.339 
403.377 70.6413 124.622 402.594 70.9777 124.879 403.158 70.8957 124.43 
402.822 71.122 124.572 402.98 71.0915 124.57 403.144 70.9786 124.573 
402.929 71.1643 124.697 406.402 50.3876 124.63 408.172 51.1252 124.862 
392.732 52.5265 126.425 393.383 52.8927 125.55 409.864 55.2542 125.135 
409.075 57.3787 125.195 396.931 60.6827 124.132 398.474 60.8273 123.763 
400.593 60.4877 123.676 401.517 60.3701 123.774 406.247 59.3124 124.481 
406.991 59.0425 124.287 407.542 58.7859 124.92 408.451 58.2129 124.419 
400.59 62.7214 124.411 400.905 63.3665 124.368 396.316 62.9518 125.549 
399 67.8396 125.033 399.963 68.9129 125.372 403.947 68.7378 125.357 
403.727 69.3558 124.923 403.715 69.8267 125.167 403.146 71.0082 124.87 
403.289 70.862 124.957 402.937 71.0962 124.97 403.021 71.1454 124.767 
402.957 71.1625 124.822 391.925 51.3394 127.594 391.57 51.4349 127.94 
393.512 50.6 126.691 409.791 53.3665 125.98 399.792 60.9469 123.943 
400.499 60.8726 124.054 404.147 60.0972 124.944 395.419 60.8879 125.467 
394.926 60.6836 125.957 400.062 61.722 124.289 401.119 61.7209 124.664 
395.678 63.32 126.893 403.673 65.1952 125.721 403.472 65.7132 125.27 
404.113 66.7773 126.151 403.973 68.2947 125.827 403.56 69.9043 126.029 
403.247 70.5964 125.654 403.043 70.9548 125.176 403.032 71.1097 124.915 
404.822 48.0184 127.354 395.726 48.6026 127.476 409.109 50.7624 126.85 
409.912 52.8951 127.774 409.862 52.5369 127.489 392.283 54.0631 126.969 
409.874 53.9215 127.889 408.657 57.6701 126.434 401.044 61.1917 124.444 
402.469 61.0256 125.095 404.158 60.3685 125.649 404.811 60.2653 126.269 
407.989 58.421 125.887 402.928 61.834 125.801 403.471 62.1829 126.306 
405.582 59.84 126.359 394.97 62.6007 127.609 395.019 63.1603 128.407 
397.404 66.0451 127.567 404.333 66.493 127.132 403.943 68.5069 126.708 
401.924 70.0887 126.34 402.978 70.438 126.18 408.283 48.9972 127.765 
391.196 50.0173 128.863 390.517 51.1785 129.266 409.891 52.5921 128.494 
409.692 55.0894 127.569 403.185 61.2902 125.804 404.487 60.642 126.546 
405.077 60.3244 126.84 406.052 59.6581 126.959 406.605 59.2888 127.496 
404.672 62.7836 127.941 404.637 64.0953 128.01 395.188 63.5662 128.785 
401.142 69.2812 127.513 403.302 69.422 127.273 402.647 69.5862 127.703 
407.088 47.6401 128.737 408.551 48.8167 128.668 391.107 49.0364 129.456 
389.295 49.9019 130.702 409.501 50.4239 128.992 409.813 51.9204 129.057 
408.266 57.4655 128.959 404.403 60.9941 126.842 405.276 60.4906 127.561 
407.208 58.7241 128.392 404.456 61.4498 127.258 404.371 61.9309 127.338 
393.427 61.0911 129.379 405.005 62.8518 128.706 392 63.0087 129.017 
392 63.0087 129.017 392 63.0087 129.017 392 63.0087 129.017 
392 63.0088 129.017 397.345 66.0129 129.052 399.341 67.7843 128.764 
402.937 69.2081 128.088 402.01 69.5512 127.811 398.664 46.1288 129.95 
407.727 47.7617 129.179 408.361 47.7627 130.223 390.321 47.7881 130.962 
392.362 47.965 129.629 389.142 48.7141 131.318 409.675 51.9384 130.166 
408.899 56.2876 129.396 404.922 61.1365 127.736 405.485 60.8728 128.67 
406.556 59.4873 129.718 392.051 60.1117 131.279 405.047 62.7939 128.896 
405.459 61.5039 129.365 392 63.0087 129.017 395.126 63.786 130.042 
404.642 65.0755 129.299 404.216 66.2575 129.777 403.222 67.8521 129.609 
400.725 68.2478 129.789 402.728 68.8443 128.698 402.162 69.3859 128.165 
406.109 45.8548 130.974 408.108 47.2799 130.548 407.889 46.8003 131.102 
408.974 48.6401 130.532 388.611 50.363 131.717 405.499 61.547 131.462 
404.826 63.6365 131.116 404.671 64.8288 129.926 400.828 67.96 130.561 
401.837 68.213 130.094 401.491 68.1981 130.212 406.187 44.9454 132.369 
408.069 46.5633 132.057 389.238 47.7211 131.854 408.949 48.2411 132.018 
408.951 53.8539 132.165 391.712 60.1313 132.342 405.229 62.1984 131.672 
397.293 65.7397 131.491 399.892 67.3766 131.339 406.565 44.4645 133.308 
393.845 44.4788 133.273 396.366 44.688 132.387 398.252 44.5224 132.305 
391.307 45.9771 132.277 386.152 46.9474 135.071 409.134 49.1409 133.038 
391.812 60.39 132.966 404.269 64.1134 132.141 399.99 66.8863 132.598 
401.822 66.9674 132.208 406.345 43.8108 134.136 405.514 43.8026 133.629 
407.097 44.4544 133.966 407.537 44.8027 134.224 388.971 45.0425 134.482 
386.498 48.0293 134.636 386.87 49.3674 134.245 387.252 50.4857 133.949 
389.655 57.3127 133.663 407.278 57.2922 133.293 394.774 63.4639 133.795 
403.656 63.8148 133.623 401.806 66.3699 133.032 401.267 66.5877 133.144 
[...]
POINT_DATA 5625
SCALARS scalars float
LOOKUP_TABLE default
1 1 1 1 1 1 1 1 1 
1 1 1 1 1 1 1 1 1 
1 1 1 1 1 1 1 1 1 
1 1 1 1 1 1 1 1 1 
1 1 1 1 1 1 1 1 1 
1 1 1 1 1 1 1 1 1 
1 1 1 1 1 1 1 1 1 
1 1 1 1 1 1 1 1 1 
1 1 1 1 1 1 1 1 1 
1 1 1 1 1 1 1 1 1 
1 1 1 1 1 1 1 1 1 
1 1 1 1 1 1 1 1 1 
1 1 1 1 1 1 1 1 1 
1 1 1 1 1 1 1 1 1 
1 1 1 1 1 1 1 1 1 
1 1 1 1 1 1 1 1 1 
1 1 1 1 1 1 1 1 1 
1 1 1 1 1 1 1 1 1 
1 1 1 1 1 1 1 1 1 
1 1 1 1 1 1 1 1 1 
1 1 1 1 1 1 1 1 1 
1 1 1 1 1 1 1 1 1 
1 1 1 1 1 1 1 1 1 
1 1 1 1 1 1 1 1 1 
1 1 1 1 1 1 1 1 1 
1 1 1 1 1 1 1 1 1 
1 1 1 1 1 1 1 1 1 
1 1 1 1 1 1 1 1 1 
1 1 1 1 1 1 1 1 1 
1 1 1 1 1 1 1 1 1 
1 1 1 1 1 1 1 1 1 
1 1 1 1 1 1 1 1 1 
1 1 1 1 1 1 1 1 1 
1 1 1 1 1 1 1 1 1 
1 1 1 1 1 1 1 1 1 
1 1 1 1 1 1 1 1 1 
1 1 1 1 1 1 1 1 1 
1 1 1 1 1 1 1 1 1 
1 1 1 1 1 1 1 1 1 
1 1 1 1 1 1 1 1 1 
1 1 1 1 1 1 1 1 1 
1 1 1 1 1 1 1 1 1 
1 1 1 1 1 1 1 1 1 
1 1 1 1 1 1 1 1 1 
1 1 1 1 1 1 1 1 1 
1 1 1 1 1 1 1 1 1 
1 1 1 1 1 1 1 1 1 
1 1 1 1 1 1 1 1 1 
1 1 1 1 1 1 1 1 1 
1 1 1 1 1 1 1 1 1 
1 1 1 1 1 1 1 1 1 
1 1 1 1 1 1 1 1 1 
1 1 1 1 1 1 1 1 1 
1 1 1 1 1 1 1 1 1 
1 1 1 1 1 1 1 1 1 
1 1 1 1 1 1 1 1 1 
1 1 1 1 1 1 1 1 1 
1 1 1 1 1 1 1 1 1 
1 1 1 1 1 1 1 1 1 
1 1 1 1 1 1 1 1 1 
1 1 1 1 1 1 1 1 1 
1 1 1 1 1 1 1 1 1 
1 1 1 1 1 1 1 1 1 
1 1 1 1 1 1 1 1 1 
1 1 1 1 1 1 1 1 1 
1 1 1 1 1 1 1 1 1 
1 1 1 1 1 1 1 1 1 
1 1 1 1 1 1 1 1 1 
1 1 1 1 1 1 1 1 1 
1 1 1 1 1 1 1 1 1 
1 1 1 1 1 1 1 1 1 
1 1 1 1 1 1 1 1 1 
1 1 1 1 1 1 1 1 1 
1 1 1 1 1 1 1 1 1 
1 1 1 1 1 1 1 1 1 
1 1 1 1 1 1 1 1 1 
1 1 1 1 1 1 1 1 1 
1 1 1 1 1 1 1 1 1 
1 1 1 1 1 1 1 1 1 
1 1 1 1 1 1 1 1 1 
1 1 1 1 1 1 1 1 1 
1 1 1 1 1 1 1 1 1 
1 1 1 1 1 1 1 1 1 
1 1 1 1 1 1 1 1 1 
1 1 1 1 1 1 1 1 1 
1 1 1 1 1 1 1 1 1 
1 1 1 1 1 1 1 1 1 
1 1 1 1 1 1 1 1 1 
1 1 1 1 1 1 1 1 1 
1 1 1 1 1 1 1 1 1 
1 1 1 1 1 1 1 1 1 
1 1 1 1 1 1 1 1 1 
1 1 1 1 1 1 1 1 1 
1 1 1 1 1 1 1 1 1 
1 1 1 1 1 1 1 1 1 
1 1 1 1 1 1 1 1 1 
1 1 1 1 1 1 1 1 1 
1 1 1 1 1 1 1 1 1 
1 1 1 1 1 1 1 1 1 
1 1 1 1 1 1 1 1 1 
1 1 1 1 1 1 1 1 1 
1 1 1 1 1 1 1 1 1 
1 1 1 1 1 1 1 1 1 
1 1 1 1 1 1 1 1 1 
1 1 1 1 1 1 1 1 1 
1 1 1 1 1 1 1 1 1 
1 1 1 1 1 1 1 1 1 
1 1 1 1 1 1 1 1 1 
1 1 1 1 1 1 1 1 1 
1 1 1 1 1 1 1 1 1 
1 1 1 1 1 1 1 1 1 
1 1 1 1 1 1 1 1 1 
1 1 1 1 1 1 1 1 1 
1 1 1 1 1 1 1 1 1 
1 1 1 1 1 1 1 1 1 
1 1 1 1 1 1 1 1 1 
1 1 1 1 1 1 1 1 1 
1 1 1 1 1 1 1 1 1 
1 1 1 1 1 1 1 1 1 
1 1 1 1 1 1 1 1 1 
1 1 1 1 1 1 1 1 1 
1 1 1 1 1 1 1 1 1 
1 1 1 1 1 1 1 1 1 
1 1 1 1 1 1 1 1 1 
1 1 1 1 1 1 1 1 1 
1 1 1 1 1 1 1 1 1 
1 1 1 1 1 1 1 1 1 
1 1 1 1 1 1 1 1 1 
1 1 1 1 1 1 1 1 1 
1 1 1 1 1 1 1 1 1 
1 1 1 1 1 1 1 1 1 
1 1 1 1 1 1 1 1 1 
1 1 1 1 1 1 1 1 1 
1 1 1 1 1 1 1 1 1 
1 1 1 1 1 1 1 1 1 
1 1 1 1 1 1 1 1 1 
1 1 1 1 1 1 1 1 1 
1 1 1 1 1 1 1 1 1 
1 1 1 1 1 1 1 1 1 
1 1 1 1 1 1 1 1 1 
1 1 1 1 1 1 1 1 1 
1 1 1 1 1 1 1 1 1 
1 1 1 1 1 1 1 1 1 
1 1 1 1 1 1 1 1 1 
1 1 1 1 1 1 1 1 1 
1 1 1 1 1 1 1 1 1 
1 1 1 1 1 1 1 1 1 
1 1 1 1 1 1 1 1 1 
1 1 1 1 1 1 1 1 1 
1 1 1 1 1 1 1 1 1 
1 1 1 1 1 1 1 1 1 
1 1 1 1 1 1 1 1 1 
1 1 1 1 1 1 1 1 1 
1 1 1 1 1 1 1 1 1 
1 1 1 1 1 1 1 1 1 
1 1 1 1 1 1 1 1 1 
1 1 1 1 1 1 1 1 1 
1 1 1 1 1 1 1 1 1 
1 1 1 1 1 1 1 1 1 
1 1 1 1 1 1 1 1 1 
1 1 1 1 1 1 1 1 1 
1 1 1 1 1 1 1 1 1 
1 1 1 1 1 1 1 1 1 
1 1 1 1 1 1 1 1 1 
1 1 1 1 1 1 1 1 1 
1 1 1 1 1 1 1 1 1 
1 1 1 1 1 1 1 1 1 
1 1 1 1 1 1 1 1 1 
1 1 1 1 1 1 1 1 1 
1 1 1 1 1 1 1 1 1 
1 1 1 1 1 1 1 1 1 
1 1 1 1 1 1 1 1 1 
1 1 1 1 1 1 1 1 1 
1 1 1 1 1 1 1 1 1 
1 1 1 1 1 1 1 1 1 
1 1 1 1 1 1 1 1 1 
1 1 1 1 1 1 1 1 1 
1 1 1 1 1 1 1 1 1 
1 1 1 1 1 1 1 1 1 
1 1 1 1 1 1 1 1 1 
1 1 1 1 1 1 1 1 1 
1 1 1 1 1 1 1 1 1 
1 1 1 1 1 1 1 1 1 
1 1 1 1 1 1 1 1 1 
1 1 1 1 1 1 1 1 1 
1 1 1 1 1 1 1 1 1 
1 1 1 1 1 1 1 1 1 
1 1 1 1 1 1 1 1 1 
1 1 1 1 1 1 1 1 1 
1 1 1 1 1 1 1 1 1 
1 1 1 1 1 1 1 1 1 
1 1 1 1 1 1 1 1 1 
1 1 1 1 1 1 1 1 1 
1 1 1 1 1 1 1 1 1 
1 1 1 1 1 1 1 1 1 
1 1 1 1 1 1 1 1 1 
1 1 1 1 1 1 1 1 1 
1 1 1 1 1 1 1 1 1 
1 1 1 1 1 1 1 1 1 
1 1 1 1 1 1 1 1 1 
1 1 1 1 1 1 1 1 1 
1 1 1 1 1 1 1 1 1 
1 1 1 1 1 1 1 1 1 
1 1 1 1 1 1 1 1 1 
1 1 1 1 1 1 1 1 1 
1 1 1 1 1 1 1 1 1 
1 1 1 1 1 1 1 1 1 
1 1 1 1 1 1 1 1 1 
1 1 1 1 1 1 1 1 1 
1 1 1 1 1 1 1 1 1 
1 1 1 1 1 1 1 1 1 
1 1 1 1 1 1 1 1 1 
1 1 1 1 1 1 1 1 1 
1 1 1 1 1 1 1 1 1 
1 1 1 1 1 1 1 1 1 
1 1 1 1 1 1 1 1 1 
1 1 1 1 1 1 1 1 1 
1 1 1 1 1 1 1 1 1 
1 1 1 1 1 1 1 1 1 
1 1 1 1 1 1 1 1 1 
1 1 1 1 1 1 1 1 1 
1 1 1 1 1 1 1 1 1 
1 1 1 1 1 1 1 1 1 
1 1 1 1 1 1 1 1 1 
1 1 1 1 1 1 1 1 1 
1 1 1 1 1 1 1 1 1 
1 1 1 1 1 1 1 1 1 
1 1 1 1 1 1 1 1 1 
1 1 1 1 1 1 1 1 1 
1 1 1 1 1 1 1 1 1 
1 1 1 1 1 1 1 1 1 
1 1 1 1 1 1 1 1 1 
1 1 1 1 1 1 1 1 1 
1 1 1 1 1 1 1 1 1 
1 1 1 1 1 1 1 1 1 
1 1 1 1 1 1 1 1 1 
1 1 1 1 1 1 1 1 1 
1 1 1 1 1 1 1 1 1 
1 1 1 1 1 1 1 1 1 
1 1 1 1 1 1 1 1 1 
1 1 1 1 1 1 1 1 1 
1 1 1 1 1 1 1 1 1 
1 1 1 1 1 1 1 1 1 
1 1 1 1 1 1 1 1 1 
1 1 1 1 1 1 1 1 1 
1 1 1 1 1 1 1 1 1 
1 1 1 1 1 1 1 1 1 
1 1 1 1 1 1 1 1 1 
1 1 1 1 1 1 1 1 1 
1 1 1 1 1 1 1 1 1 
1 1 1 1 1 1 1 1 1 
1 1 1 1 1 1 1 1 1 
1 1 1 1 1 1 1 1 1 
1 1 1 1 1 1 1 1 1 
1 1 1 1 1 1 1 1 1 
1 1 1 1 1 1 1 1 1 
1 1 1 1 1 1 1 1 1 
1 1 1 1 1 1 1 1 1 
1 1 1 1 1 1 1 1 1 
1 1 1 1 1 1 1 1 1 
1 1 1 1 1 1 1 1 1 
1 1 1 1 1 1 1 1 1 
1 1 1 1 1 1 1 1 1 
1 1 1 1 1 1 1 1 1 
1 1 1 1 1 1 1 1 1 
1 1 1 1 1 1 1 1 1 
1 1 1 1 1 1 1 1 1 
1 1 1 1 1 1 1 1 1 
1 1 1 1 1 1 1 1 1 
1 1 1 1 1 1 1 1 1 
1 1 1 1 1 1 1 1 1 
1 1 1 1 1 1 1 1 1 
1 1 1 1 1 1 1 1 1 
1 1 1 1 1 1 1 1 1 
1 1 1 1 1 1 1 1 1 
1 1 1 1 1 1 1 1 1 
1 1 1 1 1 1 1 1 1 
1 1 1 1 1 1 1 1 1 
1 1 1 1 1 1 1 1 1 
1 1 1 1 1 1 1 1 1 
1 1 1 1 1 1 1 1 1 
1 1 1 1 1 1 1 1 1 
1 1 1 1 1 1 1 1 1 
1 1 1 1 1 1 1 1 1 
1 1 1 1 1 1 1 1 1 
1 1 1 1 1 1 1 1 1 
1 1 1 1 1 1 1 1 1 
1 1 1 1 1 1 1 1 1 
1 1 1 1 1 1 1 1 1 
1 1 1 1 1 1 1 1 1 
1 1 1 1 1 1 1 1 1 
1 1 1 1 1 1 1 1 1 
1 1 1 1 1 1 1 1 1 
1 1 1 1 1 1 1 1 1 
1 1 1 1 1 1 1 1 1 
1 1 1 1 1 1 1 1 1 
1 1 1 1 1 1 1 1 1 
1 1 1 1 1 1 1 1 1 
1 1 1 1 1 1 1 1 1 
1 1 1 1 1 1 1 1 1 
1 1 1 1 1 1 1 1 1 
1 1 1 1 1 1 1 1 1 
1 1 1 1 1 1 1 1 1 
1 1 1 1 1 1 1 1 1 
1 1 1 1 1 1 1 1 1 
1 1 1 1 1 1 1 1 1 
1 1 1 1 1 1 1 1 1 
1 1 1 1 1 1 1 1 1 
1 1 1 1 1 1 1 1 1 
1 1 1 1 1 1 1 1 1 
1 1 1 1 1 1 1 1 1 
1 1 1 1 1 1 1 1 1 
1 1 1 1 1 1 1 1 1 
1 1 1 1 1 1 1 1 1 
1 1 1 1 1 1 1 1 1 
1 1 1 1 1 1 1 1 1 
1 1 1 1 1 1 1 1 1 
1 1 1 1 1 1 1 1 1 
1 1 1 1 1 1 1 1 1 
1 1 1 1 1 1 1 1 1 
1 1 1 1 1 1 1 1 1 
1 1 1 1 1 1 1 1 1 
1 1 1 1 1 1 1 1 1 
1 1 1 1 1 1 1 1 1 
1 1 1 1 1 1 1 1 1 
1 1 1 1 1 1 1 1 1 
1 1 1 1 1 1 1 1 1 
1 1 1 1 1 1 1 1 1 
1 1 1 1 1 1 1 1 1 
1 1 1 1 1 1 1 1 1 
1 1 1 1 1 1 1 1 1 
1 1 1 1 1 1 1 1 1 
1 1 1 1 1 1 1 1 1 
1 1 1 1 1 1 1 1 1 
1 1 1 1 1 1 1 1 1 
1 1 1 1 1 1 1 1 1 
1 1 1 1 1 1 1 1 1 
1 1 1 1 1 1 1 1 1 
1 1 1 1 1 1 1 1 1 
1 1 1 1 1 1 1 1 1 
1 1 1 1 1 1 1 1 1 
1 1 1 1 1 1 1 1 1 
1 1 1 1 1 1 1 1 1 
1 1 1 1 1 1 1 1 1 
1 1 1 1 1 1 1 1 1 
1 1 1 1 1 1 1 1 1 
1 1 1 1 1 1 1 1 1 
1 1 1 1 1 1 1 1 1 
1 1 1 1 1 1 1 1 1 
1 1 1 1 1 1 1 1 1 
1 1 1 1 1 1 1 1 1 
1 1 1 1 1 1 1 1 1 
1 1 1 1 1 1 1 1 1 
1 1 1 1 1 1 1 1 1 
1 1 1 1 1 1 1 1 1 
1 1 1 1 1 1 1 1 1 
1 1 1 1 1 1 1 1 1 
1 1 1 1 1 1 1 1 1 
1 1 1 1 1 1 1 1 1 
1 1 1 1 1 1 1 1 1 
1 1 1 1 1 1 1 1 1 
1 1 1 1 1 1 1 1 1 
1 1 1 1 1 1 1 1 1 
1 1 1 1 1 1 1 1 1 
1 1 1 1 1 1 1 1 1 
1 1 1 1 1 1 1 1 1 
1 1 1 1 1 1 1 1 1 
1 1 1 1 1 1 1 1 1 
1 1 1 1 1 1 1 1 1 
1 1 1 1 1 1 1 1 1 
1 1 1 1 1 1 1 1 1 
1 1 1 1 1 1 1 1 1 
1 1 1 1 1 1 1 1 1 
1 1 1 1 1 1 1 1 1 
1 1 1 1 1 1 1 1 1 
1 1 1 1 1 1 1 1 1 
1 1 1 1 1 1 1 1 1 
1 1 1 1 1 1 1 1 1 
1 1 1 1 1 1 1 1 1 
1 1 1 1 1 1 1 1 1 
1 1 1 1 1 1 1 1 1 
1 1 1 1 1 1 1 1 1 
1 1 1 1 1 1 1 1 1 
1 1 1 1 1 1 1 1 1 
1 1 1 1 1 1 1 1 1 
1 1 1 1 1 1 1 1 1 
1 1 1 1 1 1 1 1 1 
1 1 1 1 1 1 1 1 1 
1 1 1 1 1 1 1 1 1 
1 1 1 1 1 1 1 1 1 
1 1 1 1 1 1 1 1 1 
1 1 1 1 1 1 1 1 1 
1 1 1 1 1 1 1 1 1 
1 1 1 1 1 1 1 1 1 
1 1 1 1 1 1 1 1 1 
1 1 1 1 1 1 1 1 1 
1 1 1 1 1 1 1 1 1 
1 1 1 1 1 1 1 1 1 
1 1 1 1 1 1 1 1 1 
1 1 1 1 1 1 1 1 1 
1 1 1 1 1 1 1 1 1 
1 1 1 1 1 1 1 1 1 
1 1 1 1 1 1 1 1 1 
1 1 1 1 1 1 1 1 1 
1 1 1 1 1 1 1 1 1 
1 1 1 1 1 1 1 1 1 
1 1 1 1 1 1 1 1 1 
1 1 1 1 1 1 1 1 1 
1 1 1 1 1 1 1 1 1 
1 1 1 1 1 1 1 1 1 
1 1 1 1 1 1 1 1 1 
1 1 1 1 1 1 1 1 1 
1 1 1 1 1 1 1 1 1 
1 1 1 1 1 1 1 1 1 
1 1 1 1 1 1 1 1 1 
1 1 1 1 1 1 1 1 1 
1 1 1 1 1 1 1 1 1 
1 1 1 1 1 1 1 1 1 
1 1 1 1 1 1 1 1 1 
1 1 1 1 1 1 1 1 1 
1 1 1 1 1 1 1 1 1 
1 1 1 1 1 1 1 1 1 
1 1 1 1 1 1 1 1 1 
1 1 1 1 1 1 1 1 1 
1 1 1 1 1 1 1 1 1 
1 1 1 1 1 1 1 1 1 
1 1 1 1 1 1 1 1 1 
1 1 1 1 1 1 1 1 1 
1 1 1 1 1 1 1 1 1 
1 1 1 1 1 1 1 1 1 
1 1 1 1 1 1 1 1 1 
1 1 1 1 1 1 1 1 1 
1 1 1 1 1 1 1 1 1 
1 1 1 1 1 1 1 1 1 
1 1 1 1 1 1 1 1 1 
1 1 1 1 1 1 1 1 1 
1 1 1 1 1 1 1 1 1 
1 1 1 1 1 1 1 1 1 
1 1 1 1 1 1 1 1 1 
1 1 1 1 1 1 1 1 1 
1 1 1 1 1 1 1 1 1 
1 1 1 1 1 1 1 1 1 
1 1 1 1 1 1 1 1 1 
1 1 1 1 1 1 1 1 1 
1 1 1 1 1 1 1 1 1 
1 1 1 1 1 1 1 1 1 
1 1 1 1 1 1 1 1 1 
1 1 1 1 1 1 1 1 1 
1 1 1 1 1 1 1 1 1 
1 1 1 1 1 1 1 1 1 
1 1 1 1 1 1 1 1 1 
1 1 1 1 1 1 1 1 1 
1 1 1 1 1 1 1 1 1 
1 1 1 1 1 1 1 1 1 
1 1 1 1 1 1 1 1 1 
1 1 1 1 1 1 1 1 1 
1 1 1 1 1 1 1 1 1 
1 1 1 1 1 1 1 1 1 
1 1 1 1 1 1 1 1 1 
1 1 1 1 1 1 1 1 1 
1 1 1 1 1 1 1 1 1 
1 1 1 1 1 1 1 1 1 
1 1 1 1 1 1 1 1 1 
1 1 1 1 1 1 1 1 1 
1 1 1 1 1 1 1 1 1 
1 1 1 1 1 1 1 1 1 
1 1 1 1 1 1 1 1 1 
1 1 1 1 1 1 1 1 1 
1 1 1 1 1 1 1 1 1 
1 1 1 1 1 1 1 1 1 
1 1 1 1 1 1 1 1 1 
1 1 1 1 1 1 1 1 1 
1 1 1 1 1 1 1 1 1 
1 1 1 1 1 1 1 1 1 
1 1 1 1 1 1 1 1 1 
1 1 1 1 1 1 1 1 1 
1 1 1 1 1 1 1 1 1 
1 1 1 1 1 1 1 1 1 
1 1 1 1 1 1 1 1 1 
1 1 1 1 1 1 1 1 1 
1 1 1 1 1 1 1 1 1 
1 1 1 1 1 1 1 1 1 
1 1 1 1 1 1 1 1 1 
1 1 1 1 1 1 1 1 1 
1 1 1 1 1 1 1 1 1 
1 1 1 1 1 1 1 1 1 
1 1 1 1 1 1 1 1 1 
1 1 1 1 1 1 1 1 1 
1 1 1 1 1 1 1 1 1 
1 1 1 1 1 1 1 1 1 
1 1 1 1 1 1 1 1 1 
1 1 1 1 1 1 1 1 1 
1 1 1 1 1 1 1 1 1 
1 1 1 1 1 1 1 1 1 
1 1 1 1 1 1 1 1 1 
1 1 1 1 1 1 1 1 1 
1 1 1 1 1 1 1 1 1 
1 1 1 1 1 1 1 1 1 
1 1 1 1 1 1 1 1 1 
1 1 1 1 1 1 1 1 1 
1 1 1 1 1 1 1 1 1 
1 1 1 1 1 1 1 1 1 
1 1 1 1 1 1 1 1 1 
1 1 1 1 1 1 1 1 1 
1 1 1 1 1 1 1 1 1 
1 1 1 1 1 1 1 1 1 
1 1 1 1 1 1 1 1 1 
1 1 1 1 1 1 1 1 1 
1 1 1 1 1 1 1 1 1 
1 1 1 1 1 1 1 1 1 
1 1 1 1 1 1 1 1 1 
1 1 1 1 1 1 1 1 1 
1 1 1 1 1 1 1 1 1 
1 1 1 1 1 1 1 1 1 
1 1 1 1 1 1 1 1 1 
1 1 1 1 1 1 1 1 1 
1 1 1 1 1 1 1 1 1 
1 1 1 1 1 1 1 1 1 
1 1 1 1 1 1 1 1 1 
1 1 1 1 1 1 1 1 1 
1 1 1 1 1 1 1 1 1 
1 1 1 1 1 1 1 1 1 
1 1 1 1 1 1 1 1 1 
1 1 1 1 1 1 1 1 1 
1 1 1 1 1 1 1 1 1 
1 1 1 1 1 1 1 1 1 
1 1 1 1 1 1 1 1 1 
1 1 1 1 1 1 1 1 1 
1 1 1 1 1 1 1 1 1 
1 1 1 1 1 1 1 1 1 
1 1 1 1 1 1 1 1 1 
1 1 1 1 1 1 1 1 1 
1 1 1 1 1 1 1 1 1 
1 1 1 1 1 1 1 1 1 
1 1 1 1 1 1 1 1 1 
1 1 1 1 1 1 1 1 1 
1 1 1 1 1 1 1 1 1 
1 1 1 1 1 1 1 1 1 
1 1 1 1 1 1 1 1 1 
1 1 1 1 1 1 1 1 1 
1 1 1 1 1 1 1 1 1 
1 1 1 1 1 1 1 1 1 
1 1 1 1 1 1 1 1 1 
1 1 1 1 1 1 1 1 1 
1 1 1 1 1 1 1 1 1 
1 1 1 1 1 1 1 1 1 
1 1 1 1 1 1 1 1 1 
1 1 1 1 1 1 1 1 1 
1 1 1 1 1 1 1 1 1 
1 1 1 1 1 1 1 1 1 
1 1 1 1 1 1 1 1 1 
1 1 1 1 1 1 1 1 1 
1 1 1 1 1 1 1 1 1 
1 1 1 1 1 1 1 1 1 
1 1 1 1 1 1 1 1 1 
1 1 1 1 1 1 1 1 1 
1 1 1 1 1 1 1 1 1 
1 1 1 1 1 1 1 1 1 
1 1 1 1 1 1 1 1 1 
1 1 1 1 1 1 1 1 1 
1 1 1 1 1 1 1 1 1 
1 1 1 1 1 1 1 1 1 
1 1 1 1 1 1 1 1 1 
1 1 1 1 1 1 1 1 1 
1 1 1 1 1 1 1 1 1 
1 1 1 1 1 1 1 1 1 
1 1 1 1 1 1 1 1 1 
1 1 1 1 1 1 1 1 1 
1 1 1 1 1 1 1 1 1 
1 1 1 1 1 1 1 1 1 
1 1 1 1 1 1 1 1 1 
1 1 1 1 1 1 1 1 1 
1 1 1 1 1 1 1 1 1 
1 1 1 1 1 1 1 1 1 
1 1 1 1 1 1 1 1 1 
1 1 1 1 1 1 1 1 1 
1 1 1 1 1 1 1 1 1 
1 1 1 1 1 1 1 1 1 
1 1 1 1 1 1 1 1 1 
1 1 1 1 1 1 1 1 1 
1 1 1 1 1 1 1 1 1 
1 1 1 1 1 1 1 1 1 
1 1 1 1 1 1 1 1 1 
1 1 1 1 1 1 1 1 1 
1 1 1 1 1 1 1 1 1 
1 1 1 1 1 1 1 1 1 
1 1 1 1 1 1 1 1 1 
1 1 1 1 1 1 1 1 1 
1 1 1 1 1 1 1 1 1 
1 1 1 1 1 1 1 1 1 
1 1 1 1 1 1 1 1 1 
1 1 1 1 1 1 1 1 1 
1 1 1 1 1 1 1 1 1 
1 1 1 1 1 1 1 1 1 
1 1 1 1 1 1 1 1 1 
1 1 1 1 1 1 1 1 1 
1 1 1 1 1 1 1 1 1 
1 1 1 1 1 1 1 1 1 
1 1 1 1 1 1 1 1 1 
1 1 1 1 1 1 1 1 1 
1 1 1 1 1 1 1 1 1 
1 1 1 1 1 1 1 1 1 
1 1 1 1 1 1 1 1 1 
1 1 1 1 1 1 1 1 1 
1 1 1 1 1 1 1 1 1 
1 1 1 1 1 1 1 1 1 
1 1 1 1 1 1 1 1 1 
1 1 1 1 1 1 1 1 1 
1 1 1 1 1 1 1 1 1 
1 1 1 1 1 1 1 1 1 
1 1 1 1 1 1 1 1 1 
1 1 1 1 1 1 1 1 1 
1 1 1 1 1 1 1 1 1 
1 1 1 1 1 1 1 1 1 
1 1 1 1 1 1 1 1 1 
1 1 1 1 1 1 1 1 1 
1 1 1 1 1 1 1 1 1 
1 1 1 1 1 1 1 1 1 
1 1 1 1 1 1 1 1 1 
1 1 1 1 1 1 1 1 1 
1 1 1 1 1 1 1 1 1 
1 1 1 1 1 1 1 1 1 
1 1 1 1 1 1 1 1 1 
1 1 1 1 1 1 1 1 1 
1 1 1 1 1 1 1 1 1 

NORMALS Normals float
-0.0610771 0.622946 -0.779877 -0.0693053 0.56183 -0.824344 -0.0297808 0.079085 -0.996423 
0.0634938 0.556914 -0.82814 0.128283 0.161724 -0.978462 -0.950061 -0.220786 0.22054 
-0.719184 -0.659214 -0.219571 -0.663774 0.604961 0.439803 -0.107873 -0.952215 -0.285745 
-0.153788 -0.961797 -0.226485 -0.34734 0.867164 0.356905 -0.941049 0.254142 -0.223244 
-0.872909 0.0225629 -0.48736 -0.678884 0.719177 -0.147991 -0.275874 -0.576626 -0.769023 
0.228405 -0.223442 -0.947578 0.0210275 -0.388636 -0.921151 0.139512 0.089006 -0.986212 
-0.00306177 0.652912 -0.757428 -0.0477231 0.261558 -0.964007 -0.0625224 0.0340606 -0.997462 
0.195554 -0.0731138 -0.977964 0.227024 0.60797 -0.76081 0.270843 -0.0311682 -0.962119 
-0.571503 0.80819 0.142177 -0.517191 0.824312 0.230269 0.450844 0.105901 -0.886298 
-0.0573325 -0.935779 -0.347895 0.191924 0.780679 -0.594731 0.00609072 0.699885 -0.714229 
0.0972627 0.888309 -0.448829 0.1492 0.985453 0.0813776 -0.699026 -0.329529 -0.634644 
-0.828242 -0.0121226 -0.56024 -0.057179 -0.375837 -0.92492 0.0257454 -0.330978 -0.943287 
-0.0051933 -0.402307 -0.91549 0.112354 -0.393367 -0.912491 0.255384 -0.408005 -0.876533 
0.10716 0.42864 -0.897098 -0.0390378 -0.220187 -0.974676 0.428592 -0.237135 -0.871823 
0.378451 0.600616 -0.704298 0.674075 0.400754 -0.620499 0.546385 0.00742107 -0.837501 
0.770166 -0.0177832 -0.637595 -0.193133 0.979331 0.0600914 0.116335 0.989678 -0.0836895 
0.0194584 0.910534 -0.412976 0.0260931 0.851262 -0.524092 0.170259 0.841328 -0.513009 
0.413568 0.810234 -0.415311 -0.635242 -0.302772 -0.710491 -0.478077 -0.671964 -0.565603 
-0.70007 -0.237071 -0.673572 -0.243711 -0.612329 -0.752103 -0.188406 -0.628221 -0.754879 
-0.1508 -0.62667 -0.764555 0.061105 -0.555383 -0.829347 -0.825332 0.0632687 -0.561092 
0.608559 -0.408798 -0.680104 0.831655 -0.103489 -0.545565 -0.155109 0.9784 -0.136658 
0.324451 0.791636 -0.51773 0.696684 0.592291 -0.404751 -0.790019 -0.492742 -0.364795 
0.179278 -0.601723 -0.778325 0.310313 -0.659586 -0.684582 -0.905359 0.333987 -0.262257 
0.822129 0.239502 -0.516472 0.952126 0.160056 -0.260459 0.0334186 0.971431 -0.234959 
0.117488 0.966837 -0.226765 0.433267 0.853085 -0.290735 0.708055 0.676238 -0.203373 
0.563482 0.81078 -0.158505 0.00661835 -0.65296 -0.757363 -0.89862 -0.0566913 -0.435049 
-0.671695 -0.460195 -0.580557 0.319643 -0.6874 -0.652158 -0.873547 -0.323866 -0.363355 
0.680779 -0.484121 -0.549697 0.644245 -0.537575 -0.544023 0.943198 -0.186332 -0.27506 
0.947837 0.318468 0.0135439 -0.173922 0.972703 -0.153621 0.208976 0.962375 -0.173679 
0.661117 0.736064 0.145373 0.885861 0.463822 0.0109047 0.113628 -0.477974 -0.870994 
-0.836261 -0.217091 -0.503526 0.637088 0.211021 -0.741343 0.211962 -0.382376 -0.899367 
0.757701 0.338304 -0.558067 -0.698553 0.628918 -0.3413 0.066501 -0.851791 -0.519643 
-0.294904 -0.678013 -0.673298 0.444511 -0.742096 -0.5017 0.611251 -0.648203 -0.454098 
-0.872399 0.423567 -0.243948 -0.506015 0.829911 -0.234938 0.444554 0.885152 0.137396 
-0.188145 -0.443381 -0.876365 -0.696207 -0.223702 -0.682095 -0.93761 0.280322 -0.205687 
-0.301697 0.942096 -0.146401 -0.499735 -0.614206 -0.61075 0.307513 -0.764168 -0.566995 
0.810914 -0.454286 -0.36884 -0.922095 -0.0892814 -0.376523 -0.867261 0.373794 -0.328842 
0.988183 -0.0602325 -0.140945 -0.694685 0.675652 -0.246794 0.88392 0.467426 -0.014075 
0.189152 0.975251 -0.114483 0.194286 0.978081 -0.0749024 0.404994 0.910022 0.0885471 
0.836511 0.547807 0.0125501 -0.308387 -0.230276 -0.922968 -0.325824 -0.160957 -0.931629 
-0.401491 -0.326656 -0.855629 -0.837371 0.11907 -0.533509 0.742525 0.316103 -0.590539 
0.510899 0.660258 -0.550492 0.386447 0.789261 -0.477206 -0.235904 -0.727377 -0.644416 
-0.0102874 -0.767507 -0.640958 -0.74263 -0.298243 -0.599626 0.590119 -0.590946 -0.550038 
0.419678 -0.733671 -0.534413 -0.761532 -0.362395 -0.537345 0.896783 -0.309986 -0.315734 
-0.956585 0.164199 -0.2408 -0.737509 0.600497 -0.309004 0.982455 0.185963 -0.0141348 
-0.673304 0.689649 -0.266543 0.822014 0.557425 0.11649 -0.501612 0.796282 -0.338113 
0.382236 0.923818 0.021345 0.700024 0.709675 0.0795489 -0.14452 -0.37213 -0.91686 
-0.087013 -0.41201 -0.907015 -0.597724 -0.0828273 -0.797412 -0.590326 -0.102801 -0.800592 
0.125856 -0.400187 -0.90775 -0.799444 -0.0269252 -0.600137 -0.846764 0.141874 -0.512701 
0.325706 -0.445514 -0.833926 -0.854539 0.455556 -0.249462 -0.838549 0.53412 -0.107476 
-0.653381 0.751345 -0.0925966 0.742646 0.142155 -0.654422 -0.539728 0.837792 -0.0824515 
-0.259638 0.944098 -0.203145 0.529663 0.583108 -0.615989 -0.0317413 0.952479 -0.302946 
-0.483671 -0.61253 -0.625196 0.70488 -0.532783 -0.46828 -0.812877 -0.0887478 -0.575634 
0.984592 0.122624 -0.124669 -0.809068 0.434423 -0.395836 0.838057 0.545569 0.00399089 
-0.164869 0.849865 -0.500548 -0.105309 0.942352 -0.317621 -0.365815 -0.155436 -0.917616 
-0.501377 -0.154437 -0.851334 -0.248054 -0.216925 -0.944147 -0.531009 0.0384085 -0.846495 
-0.232647 -0.281622 -0.930894 -0.663457 0.0407217 -0.747105 -0.803779 0.249862 -0.539915 
0.510958 -0.365735 -0.77792 0.516676 -0.304754 -0.800107 0.632794 -0.325853 -0.702418 
-0.720704 0.693223 0.00526663 0.684154 0.191983 -0.703616 0.763478 0.018725 -0.645562 
0.288012 0.779464 -0.556314 -0.356949 0.922454 -0.147192 0.283269 0.739316 -0.610877 
0.118691 0.890802 -0.438617 -0.520409 -0.559108 -0.645425 0.569159 -0.683148 -0.457566 
-0.711649 -0.370735 -0.596751 0.682036 -0.648089 -0.338831 0.822443 -0.470855 -0.319191 
-0.87611 0.112547 -0.468791 0.455028 0.890477 -0.000875217 -0.625694 0.0972662 -0.773981 
-0.332725 -0.0411604 -0.942125 -0.665186 0.0538607 -0.744732 -0.18283 -0.215499 -0.959236 
-0.155564 -0.253007 -0.954876 0.146444 -0.319502 -0.936201 -0.789818 0.22525 -0.570482 
0.402619 -0.325332 -0.855604 -0.83355 0.351776 -0.425967 0.712317 -0.182301 -0.677769 
-0.556469 0.828968 0.0561544 0.702156 0.335404 -0.628077 0.664948 0.395765 -0.633414 
0.475534 0.693334 -0.541438 -0.222439 -0.75283 -0.61949 0.0356876 -0.785249 -0.618151 
-0.731758 -0.282731 -0.620156 0.890293 -0.371014 -0.264058 0.973045 -0.140088 -0.183191 
0.920611 0.387876 0.0450197 0.984771 0.171485 -0.0286038 0.0930539 0.929175 -0.357735 
0.0406992 0.786018 -0.616863 -0.510034 0.239025 -0.826276 -0.315349 0.0719455 -0.946244 
-0.210864 0.285296 -0.934956 0.0141124 0.0304672 -0.999436 -0.522793 0.163936 -0.836548 
-0.704609 0.261032 -0.65984 -0.770559 0.120598 -0.625855 -0.8473 0.292716 -0.44317 
0.60212 -0.305489 -0.737651 0.790767 -0.184155 -0.583758 -0.803876 0.567495 -0.178138 
0.945266 0.215612 -0.244917 0.94523 0.325535 0.0238235 0.762506 0.33099 -0.555904 
0.861989 0.327957 -0.386547 -0.460705 0.840911 0.283937 0.742249 0.55313 -0.378304 
-0.150846 0.964674 -0.215984 0.45962 0.812259 -0.359145 0.649157 0.719916 -0.245593 
0.0903744 0.97857 -0.185021 0.249858 -0.752027 -0.60994 0.566538 -0.651397 -0.504695 
-0.728399 -0.190208 -0.658222 -0.750308 -0.163978 -0.640429 0.999037 0.0424882 -0.0109041 
0.791961 0.602557 0.098602 -0.457786 0.480571 -0.747987 -0.0428828 0.649356 -0.759274 
0.129703 0.745621 -0.653626 0.193031 0.802719 -0.564253 0.418055 0.905204 -0.0763941 
0.362371 0.926747 0.0991318 0.490584 0.861664 0.129854 0.670038 0.741772 0.0287133 
0.221378 -0.148264 -0.963852 0.45919 -0.297202 -0.837147 -0.775075 0.293407 -0.559617 