# vtk DataFile Version 4.2
vtk output
ASCII
DATASET POLYDATA
POINTS 3927 float
363 44.0087 148.017 363 44.0087 148.017 363 44.0087 148.017 
363 44.0087 148.017 363 44.0088 148.017 362 44.0087 149.017 
362 44.0087 149.017 362 44.0087 149.017 363 44.0087 148.017 
362 44.0087 149.017 362 44.0088 149.017 362 43.0087 150.017 
362 43.0087 150.017 362 43.0087 150.017 362 43.0087 150.017 
362 44.0087 149.017 362 43.0088 150.017 361 43.0087 151.017 
361 43.0087 151.017 361 43.0087 151.017 362 43.0087 150.017 
361 43.0087 151.017 361 43.0088 151.017 358.242 42.0044 152.756 
358.242 42.0043 152.756 358.242 42.0044 152.756 358.242 42.0043 152.756 
358.242 42.0044 152.756 360.004 43.0131 152.009 360.004 43.0131 152.009 
360.004 43.0131 152.009 361 43.0087 151.017 360.004 43.0131 152.009 
360.004 43.0131 152.009 358.24 42.0044 152.757 358.24 42.0044 152.757 
358.24 42.0044 152.757 358.241 42.0044 152.757 358.241 42.0043 152.757 
358.242 42.0043 152.756 358.242 42.0043 152.756 358.24 42.0044 152.757 
358.241 42.0044 152.757 358.241 42.0044 152.756 360.004 43.0131 152.009 
357 41.0087 154.017 357 41.0087 154.017 357 41.0087 154.017 
357 41.0087 154.017 358.24 42.0044 152.757 357 41.0088 154.017 
358.241 42.0044 152.757 358.241 42.0043 152.756 356 41.0087 155.017 
356 41.0087 155.017 356 41.0087 155.017 357 41.0087 154.017 
356 41.0087 155.017 356 41.0088 155.017 355 41.0087 156.017 
355 41.0087 156.017 355 41.0087 156.017 356 41.0087 155.017 
355 41.0087 156.017 355 41.0088 156.017 352.921 39.9544 157.97 
352.919 39.9506 157.972 352.92 39.9518 157.971 352.922 39.956 157.969 
352.921 39.9534 157.97 355 41.0087 156.017 352.922 39.956 157.969 
352.922 39.955 157.969 352.922 39.9553 157.969 352.912 39.9373 157.981 
352.911 39.9339 157.983 352.911 39.9347 157.983 352.913 39.9394 157.98 
352.911 39.9359 157.982 352.912 39.9377 157.981 352.913 39.9387 157.98 
352.917 39.9453 157.976 352.916 39.945 157.976 352.915 39.9433 157.977 
352.918 39.9487 157.973 352.919 39.951 157.972 352.921 39.9549 157.969 
352.92 39.9524 157.971 348.769 37.4075 161.838 348.727 37.3913 161.861 
348.734 37.3937 161.858 348.754 37.4016 161.846 348.737 37.3947 161.856 
352.91 39.9331 157.984 352.91 39.9331 157.984 352.911 39.9348 157.983 
352.913 39.9382 157.981 352.911 39.9348 157.983 352.913 39.9379 157.981 
352.915 39.9436 157.977 352.918 39.9482 157.974 348.669 37.3685 161.894 
348.568 37.3295 161.948 348.69 37.3766 161.882 348.7 37.3801 161.877 
348.621 37.3494 161.922 348.669 37.368 161.895 352.911 39.9338 157.983 
352.911 39.9348 157.983 347.215 36.838 162.621 347.262 36.8615 162.594 
348.281 37.221 162.1 348.102 37.1546 162.194 348.436 37.2788 162.02 
348.558 37.3254 161.954 348.616 37.3469 161.925 348.49 37.2981 161.996 
348.533 37.3143 161.973 335.87 36.0022 165.118 336.989 35.8897 165.008 
343.175 35.9135 164.053 344.098 36.0525 163.79 344.86 36.2017 163.54 
344.434 36.0905 163.688 345.726 36.4098 163.226 345.238 36.2702 163.413 
345.863 36.4317 163.18 346.271 36.5448 163.022 343.559 35.9872 163.96 
344.376 36.1182 163.71 345.168 36.2826 163.438 345.863 36.4536 163.177 
346.318 36.5791 163 346.537 36.6398 162.904 346.931 36.748 162.745 
347.79 37.0413 162.347 347.427 36.9108 162.523 347.754 37.0253 162.37 
347.088 36.8099 162.672 347.656 36.9967 162.412 348.227 37.1994 162.131 
348.34 37.2396 162.08 303.912 40.5342 165.764 304.639 40.4843 165.458 
305.202 40.4426 165.292 305.799 40.3882 165.162 307.057 40.2439 165.008 
307.573 40.1796 164.974 296.226 42.1149 164.947 296.149 42.126 165.012 
296.145 42.1264 165.015 296.254 42.1109 164.924 296.234 42.1137 164.94 
296.259 42.1101 164.92 304.247 40.537 165.626 304.842 40.5021 165.412 
305.44 40.4531 165.254 306.06 40.39 165.138 306.694 40.3147 165.058 
307.33 40.2296 165.011 307.981 40.1272 164.995 291.585 43.4564 165.196 
291.482 43.4792 165.222 291.695 43.4317 165.206 296.173 42.1223 164.992 
296.204 42.1178 164.966 291.168 43.587 165.253 291.571 43.4731 165.192 
341.317 35.7431 164.492 343.381 35.8866 164.03 344.43 36.0464 163.722 
334.526 36.1275 165.311 337.743 35.7811 164.996 339.007 35.783 164.836 
340.06 35.7671 164.696 339.52 35.7232 164.789 341.234 35.7834 164.494 
342.418 35.8543 164.243 345.576 36.3448 163.298 345.961 36.4527 163.155 
330.133 36.6598 165.733 331.473 36.4789 165.593 332.485 36.3667 165.457 
333.816 36.2181 165.318 335.049 36.1087 165.165 335.865 36.0329 165.182 
335.151 36.1074 165.172 338.263 35.8484 164.951 340.522 35.8 164.652 
341.59 35.8284 164.452 342.627 35.8931 164.221 343.857 36.0345 163.895 
344.602 36.1649 163.651 345.463 36.3534 163.34 346.084 36.5091 163.103 
346.765 36.6952 162.822 347.323 36.8752 162.575 320.474 38.324 164.576 
330.844 36.5705 165.654 331.723 36.4627 165.561 332.587 36.3685 165.447 
333.162 36.3138 165.347 333.294 36.2992 165.315 333.838 36.2446 165.246 
334.397 36.1841 165.197 348.194 37.1833 162.159 315.718 38.743 165.277 
316.789 38.6024 165.193 317.537 38.5004 165.175 318.336 38.4187 165.09 
319.121 38.3674 164.94 319.612 38.3531 164.807 319.98 38.3458 164.696 
320.281 38.344 164.596 320.47 38.3447 164.53 320.544 38.3451 164.503 
333.455 36.2877 165.285 348.126 37.1579 162.196 309.704 39.8067 165.096 
311.625 39.4847 165.151 312.355 39.2987 165.3 316.037 38.7462 165.129 
316.139 38.7439 165.091 316.382 38.6925 165.124 316.55 38.662 165.146 
316.92 38.579 165.234 303.3 40.5459 166.186 303.723 40.4376 166.049 
308.695 39.9962 165.022 309.203 39.9305 165.031 309.865 39.8162 165.072 
310.401 39.7311 165.043 311.013 39.6222 165.067 311.354 39.5506 165.112 
311.927 39.3972 165.251 316.229 38.7305 165.089 316.323 38.7097 165.109 
296.045 42.141 165.098 295.929 42.1582 165.191 295.869 42.1671 165.239 
296.11 42.1314 165.044 296.211 42.1169 164.96 296.088 42.1342 165.065 
303.681 40.5593 165.944 308.542 40.0398 165.052 310.683 39.6924 165.04 
291.866 43.4192 165.18 292.173 43.3632 165.156 292.332 43.3434 165.151 
292.34 43.3137 165.194 292.471 43.3149 165.149 295.969 42.1519 165.16 
292.521 43.3005 165.148 296.043 42.1406 165.102 288.685 44.0858 166.123 
289.556 43.888 165.898 290.445 43.7039 165.6 291.499 43.5124 165.217 
287.893 44.298 166.277 287.16 44.4946 166.467 288.128 44.2524 166.235 
288.87 44.0759 166.128 290.687 43.6909 165.558 287.352 44.4563 166.415 
340.217 35.6862 164.725 342.316 35.7582 164.341 344.66 36.0941 163.653 
344.223 36.0005 163.804 344.547 36.0699 163.706 334.154 36.1119 165.438 
345.15 36.2232 163.475 345.475 36.3196 163.357 333.615 36.2185 165.42 
334.176 36.1965 165.258 334.11 36.1497 165.543 334.936 36.1201 165.232 
340.857 35.8147 164.653 342.616 35.8918 164.271 343.313 35.9575 164.085 
346.397 36.5897 162.979 347.007 36.7699 162.725 346.926 36.745 162.762 
347.622 36.975 162.445 320.495 38.3129 164.592 320.487 38.3076 164.607 
329.277 36.7941 165.784 329.94 36.6789 165.793 329.33 36.788 165.782 
347.467 36.9229 162.519 347.87 37.0644 162.325 348.068 37.1359 162.226 
312.928 39.0327 165.718 314.511 38.8615 165.47 320.44 38.2997 164.646 
320.533 38.3392 164.521 327.844 37.0138 165.869 328.276 36.9507 165.836 
328.943 36.8484 165.8 313.236 39.1127 165.4 302.851 40.5327 166.556 
295.57 42.2131 165.471 295.68 42.1962 165.386 295.853 42.1686 165.257 
295.911 42.1592 165.213 292.519 43.2853 165.205 295.565 42.2136 165.477 
286.273 44.7407 166.664 284.793 45.1507 166.995 284.251 45.2919 167.208 
285.341 45.0064 166.844 285.703 44.9114 166.767 286.267 44.7495 166.694 
279.249 46.8927 167.686 284.658 45.1963 167.065 278.612 47.1346 167.598 
278.292 47.2443 167.689 278.44 47.198 167.655 342.033 35.7281 164.456 
343.35 35.8601 164.09 343.924 35.9496 163.92 344.358 36.0344 163.786 
330.866 36.3592 166.211 344.846 36.148 163.605 330.183 36.5191 166.075 
337.415 35.9057 165.297 343.87 36.0079 163.945 347.177 36.8237 162.654 
347.337 36.8763 162.58 320.436 38.2982 164.648 320.363 38.2813 164.718 
327.487 37.0567 165.913 327.393 37.0626 165.934 311.898 39.047 166.098 
320.261 38.2625 164.808 311.061 39.3402 165.75 311.518 39.3854 165.446 
312.583 38.9604 166.08 312.249 39.2593 165.448 316.388 38.5205 165.633 
302.365 40.521 166.952 301.971 40.5359 167.261 295.317 42.2545 165.656 
295.007 42.3049 165.881 294.986 42.3114 165.883 295.695 42.1904 165.391 
295.394 42.2337 165.639 302.362 40.5584 166.975 294.92 42.3202 165.941 
292.473 43.2376 165.435 288 44.178 166.907 287.269 44.4519 166.675 
286.318 44.7122 166.837 282.848 45.6603 167.715 282.223 45.8508 167.869 
283.515 45.4833 167.493 279.535 46.7866 167.761 280.156 46.5545 167.906 
282.784 45.7066 167.745 283.867 45.4078 167.41 277.291 47.5826 168.109 
277.906 47.3729 167.84 277.575 47.4899 167.973 278.012 47.3431 167.81 
340.844 35.6591 164.787 343.268 35.8571 164.14 343.411 35.8922 164.114 
330.478 36.323 166.453 344.457 36.0705 163.754 319.051 37.7199 166.663 
320.17 37.6339 166.556 320.745 37.4944 166.766 326.564 36.9994 166.319 
329.801 36.5002 166.314 330.454 36.4845 166.083 330.283 36.315 166.654 
331.229 36.3823 166.072 342.073 35.8199 164.494 342.958 35.8851 164.242 
317.545 38.0079 166.414 319.645 37.899 166.007 319.796 38.1211 165.353 
320.408 37.5585 166.696 320.025 38.2051 165.04 320.223 38.2539 164.838 
327.286 37.0587 165.975 326.87 37.0497 166.123 309.294 39.3281 166.555 
307.78 39.6723 166.296 308.596 39.5929 166.102 301.599 40.5295 167.575 
301.215 40.5447 167.895 294.591 42.3879 166.112 294.094 42.5019 166.313 
294.69 42.3484 166.149 295.063 42.2808 165.914 301.623 40.5569 167.567 
292.467 43.1862 165.642 292.536 43.0786 165.994 288.316 43.9319 167.576 
288.205 44.0348 167.404 285.635 44.8733 167.149 280.799 46.2894 168.085 
281.705 45.991 168.016 281.33 46.1433 168.081 276.891 47.7114 168.359 
274.08 48.8525 169.129 273.101 49.1698 169.679 273.889 48.9289 169.178 
273.674 48.9956 169.309 340.677 35.6704 164.883 341.51 35.7281 164.675 
340.774 35.7051 164.888 342.28 35.771 164.453 342.884 35.8205 164.274 
[...]
POINT_DATA 3927
SCALARS scalars float
LOOKUP_TABLE default
1 1 1 1 1 1 1 1 1 
1 1 1 1 1 1 1 1 1 
1 1 1 1 1 1 1 1 1 
1 1 1 1 1 1 1 1 1 
1 1 1 1 1 1 1 1 1 
1 1 1 1 1 1 1 1 1 
1 1 1 1 1 1 1 1 1 
1 1 1 1 1 1 1 1 1 
1 1 1 1 1 1 1 1 1 
1 1 1 1 1 1 1 1 1 
1 1 1 1 1 1 1 1 1 
1 1 1 1 1 1 1 1 1 
1 1 1 1 1 1 1 1 1 
1 1 1 1 1 1 1 1 1 
1 1 1 1 1 1 1 1 1 
1 1 1 1 1 1 1 1 1 
1 1 1 1 1 1 1 1 1 
1 1 1 1 1 1 1 1 1 
1 1 1 1 1 1 1 1 1 
1 1 1 1 1 1 1 1 1 
1 1 1 1 1 1 1 1 1 
1 1 1 1 1 1 1 1 1 
1 1 1 1 1 1 1 1 1 
1 1 1 1 1 1 1 1 1 
1 1 1 1 1 1 1 1 1 
1 1 1 1 1 1 1 1 1 
1 1 1 1 1 1 1 1 1 
1 1 1 1 1 1 1 1 1 
1 1 1 1 1 1 1 1 1 
1 1 1 1 1 1 1 1 1 
1 1 1 1 1 1 1 1 1 
1 1 1 1 1 1 1 1 1 
1 1 1 1 1 1 1 1 1 
1 1 1 1 1 1 1 1 1 
1 1 1 1 1 1 1 1 1 
1 1 1 1 1 1 1 1 1 
1 1 1 1 1 1 1 1 1 
1 1 1 1 1 1 1 1 1 
1 1 1 1 1 1 1 1 1 
1 1 1 1 1 1 1 1 1 
1 1 1 1 1 1 1 1 1 
1 1 1 1 1 1 1 1 1 
1 1 1 1 1 1 1 1 1 
1 1 1 1 1 1 1 1 1 
1 1 1 1 1 1 1 1 1 
1 1 1 1 1 1 1 1 1 
1 1 1 1 1 1 1 1 1 
1 1 1 1 1 1 1 1 1 
1 1 1 1 1 1 1 1 1 
1 1 1 1 1 1 1 1 1 
1 1 1 1 1 1 1 1 1 
1 1 1 1 1 1 1 1 1 
1 1 1 1 1 1 1 1 1 
1 1 1 1 1 1 1 1 1 
1 1 1 1 1 1 1 1 1 
1 1 1 1 1 1 1 1 1 
1 1 1 1 1 1 1 1 1 
1 1 1 1 1 1 1 1 1 
1 1 1 1 1 1 1 1 1 
1 1 1 1 1 1 1 1 1 
1 1 1 1 1 1 1 1 1 
1 1 1 1 1 1 1 1 1 
1 1 1 1 1 1 1 1 1 
1 1 1 1 1 1 1 1 1 
1 1 1 1 1 1 1 1 1 
1 1 1 1 1 1 1 1 1 
1 1 1 1 1 1 1 1 1 
1 1 1 1 1 1 1 1 1 
1 1 1 1 1 1 1 1 1 
1 1 1 1 1 1 1 1 1 
1 1 1 1 1 1 1 1 1 
1 1 1 1 1 1 1 1 1 
1 1 1 1 1 1 1 1 1 
1 1 1 1 1 1 1 1 1 
1 1 1 1 1 1 1 1 1 
1 1 1 1 1 1 1 1 1 
1 1 1 1 1 1 1 1 1 
1 1 1 1 1 1 1 1 1 
1 1 1 1 1 1 1 1 1 
1 1 1 1 1 1 1 1 1 
1 1 1 1 1 1 1 1 1 
1 1 1 1 1 1 1 1 1 
1 1 1 1 1 1 1 1 1 
1 1 1 1 1 1 1 1 1 
1 1 1 1 1 1 1 1 1 
1 1 1 1 1 1 1 1 1 
1 1 1 1 1 1 1 1 1 
1 1 1 1 1 1 1 1 1 
1 1 1 1 1 1 1 1 1 
1 1 1 1 1 1 1 1 1 
1 1 1 1 1 1 1 1 1 
1 1 1 1 1 1 1 1 1 
1 1 1 1 1 1 1 1 1 
1 1 1 1 1 1 1 1 1 
1 1 1 1 1 1 1 1 1 
1 1 1 1 1 1 1 1 1 
1 1 1 1 1 1 1 1 1 
1 1 1 1 1 1 1 1 1 
1 1 1 1 1 1 1 1 1 
1 1 1 1 1 1 1 1 1 
1 1 1 1 1 1 1 1 1 
1 1 1 1 1 1 1 1 1 
1 1 1 1 1 1 1 1 1 
1 1 1 1 1 1 1 1 1 
1 1 1 1 1 1 1 1 1 
1 1 1 1 1 1 1 1 1 
1 1 1 1 1 1 1 1 1 
1 1 1 1 1 1 1 1 1 
1 1 1 1 1 1 1 1 1 
1 1 1 1 1 1 1 1 1 
1 1 1 1 1 1 1 1 1 
1 1 1 1 1 1 1 1 1 
1 1 1 1 1 1 1 1 1 
1 1 1 1 1 1 1 1 1 
1 1 1 1 1 1 1 1 1 
1 1 1 1 1 1 1 1 1 
1 1 1 1 1 1 1 1 1 
1 1 1 1 1 1 1 1 1 
1 1 1 1 1 1 1 1 1 
1 1 1 1 1 1 1 1 1 
1 1 1 1 1 1 1 1 1 
1 1 1 1 1 1 1 1 1 
1 1 1 1 1 1 1 1 1 
1 1 1 1 1 1 1 1 1 
1 1 1 1 1 1 1 1 1 
1 1 1 1 1 1 1 1 1 
1 1 1 1 1 1 1 1 1 
1 1 1 1 1 1 1 1 1 
1 1 1 1 1 1 1 1 1 
1 1 1 1 1 1 1 1 1 
1 1 1 1 1 1 1 1 1 
1 1 1 1 1 1 1 1 1 
1 1 1 1 1 1 1 1 1 
1 1 1 1 1 1 1 1 1 
1 1 1 1 1 1 1 1 1 
1 1 1 1 1 1 1 1 1 
1 1 1 1 1 1 1 1 1 
1 1 1 1 1 1 1 1 1 
1 1 1 1 1 1 1 1 1 
1 1 1 1 1 1 1 1 1 
1 1 1 1 1 1 1 1 1 
1 1 1 1 1 1 1 1 1 
1 1 1 1 1 1 1 1 1 
1 1 1 1 1 1 1 1 1 
1 1 1 1 1 1 1 1 1 
1 1 1 1 1 1 1 1 1 
1 1 1 1 1 1 1 1 1 
1 1 1 1 1 1 1 1 1 
1 1 1 1 1 1 1 1 1 
1 1 1 1 1 1 1 1 1 
1 1 1 1 1 1 1 1 1 
1 1 1 1 1 1 1 1 1 
1 1 1 1 1 1 1 1 1 
1 1 1 1 1 1 1 1 1 
1 1 1 1 1 1 1 1 1 
1 1 1 1 1 1 1 1 1 
1 1 1 1 1 1 1 1 1 
1 1 1 1 1 1 1 1 1 
1 1 1 1 1 1 1 1 1 
1 1 1 1 1 1 1 1 1 
1 1 1 1 1 1 1 1 1 
1 1 1 1 1 1 1 1 1 
1 1 1 1 1 1 1 1 1 
1 1 1 1 1 1 1 1 1 
1 1 1 1 1 1 1 1 1 
1 1 1 1 1 1 1 1 1 
1 1 1 1 1 1 1 1 1 
1 1 1 1 1 1 1 1 1 
1 1 1 1 1 1 1 1 1 
1 1 1 1 1 1 1 1 1 
1 1 1 1 1 1 1 1 1 
1 1 1 1 1 1 1 1 1 
1 1 1 1 1 1 1 1 1 
1 1 1 1 1 1 1 1 1 
1 1 1 1 1 1 1 1 1 
1 1 1 1 1 1 1 1 1 
1 1 1 1 1 1 1 1 1 
1 1 1 1 1 1 1 1 1 
1 1 1 1 1 1 1 1 1 
1 1 1 1 1 1 1 1 1 
1 1 1 1 1 1 1 1 1 
1 1 1 1 1 1 1 1 1 
1 1 1 1 1 1 1 1 1 
1 1 1 1 1 1 1 1 1 
1 1 1 1 1 1 1 1 1 
1 1 1 1 1 1 1 1 1 
1 1 1 1 1 1 1 1 1 
1 1 1 1 1 1 1 1 1 
1 1 1 1 1 1 1 1 1 
1 1 1 1 1 1 1 1 1 
1 1 1 1 1 1 1 1 1 
1 1 1 1 1 1 1 1 1 
1 1 1 1 1 1 1 1 1 
1 1 1 1 1 1 1 1 1 
1 1 1 1 1 1 1 1 1 
1 1 1 1 1 1 1 1 1 
1 1 1 1 1 1 1 1 1 
1 1 1 1 1 1 1 1 1 
1 1 1 1 1 1 1 1 1 
1 1 1 1 1 1 1 1 1 
1 1 1 1 1 1 1 1 1 
1 1 1 1 1 1 1 1 1 
1 1 1 1 1 1 1 1 1 
1 1 1 1 1 1 1 1 1 
1 1 1 1 1 1 1 1 1 
1 1 1 1 1 1 1 1 1 
1 1 1 1 1 1 1 1 1 
1 1 1 1 1 1 1 1 1 
1 1 1 1 1 1 1 1 1 
1 1 1 1 1 1 1 1 1 
1 1 1 1 1 1 1 1 1 
1 1 1 1 1 1 1 1 1 
1 1 1 1 1 1 1 1 1 
1 1 1 1 1 1 1 1 1 
1 1 1 1 1 1 1 1 1 
1 1 1 1 1 1 1 1 1 
1 1 1 1 1 1 1 1 1 
1 1 1 1 1 1 1 1 1 
1 1 1 1 1 1 1 1 1 
1 1 1 1 1 1 1 1 1 
1 1 1 1 1 1 1 1 1 
1 1 1 1 1 1 1 1 1 
1 1 1 1 1 1 1 1 1 
1 1 1 1 1 1 1 1 1 
1 1 1 1 1 1 1 1 1 
1 1 1 1 1 1 1 1 1 
1 1 1 1 1 1 1 1 1 
1 1 1 1 1 1 1 1 1 
1 1 1 1 1 1 1 1 1 
1 1 1 1 1 1 1 1 1 
1 1 1 1 1 1 1 1 1 
1 1 1 1 1 1 1 1 1 
1 1 1 1 1 1 1 1 1 
1 1 1 1 1 1 1 1 1 
1 1 1 1 1 1 1 1 1 
1 1 1 1 1 1 1 1 1 
1 1 1 1 1 1 1 1 1 
1 1 1 1 1 1 1 1 1 
1 1 1 1 1 1 1 1 1 
1 1 1 1 1 1 1 1 1 
1 1 1 1 1 1 1 1 1 
1 1 1 1 1 1 1 1 1 
1 1 1 1 1 1 1 1 1 
1 1 1 1 1 1 1 1 1 
1 1 1 1 1 1 1 1 1 
1 1 1 1 1 1 1 1 1 
1 1 1 1 1 1 1 1 1 
1 1 1 1 1 1 1 1 1 
1 1 1 1 1 1 1 1 1 
1 1 1 1 1 1 1 1 1 
1 1 1 1 1 1 1 1 1 
1 1 1 1 1 1 1 1 1 
1 1 1 1 1 1 1 1 1 
1 1 1 1 1 1 1 1 1 
1 1 1 1 1 1 1 1 1 
1 1 1 1 1 1 1 1 1 
1 1 1 1 1 1 1 1 1 
1 1 1 1 1 1 1 1 1 
1 1 1 1 1 1 1 1 1 
1 1 1 1 1 1 1 1 1 
1 1 1 1 1 1 1 1 1 
1 1 1 1 1 1 1 1 1 
1 1 1 1 1 1 1 1 1 
1 1 1 1 1 1 1 1 1 
1 1 1 1 1 1 1 1 1 
1 1 1 1 1 1 1 1 1 
1 1 1 1 1 1 1 1 1 
1 1 1 1 1 1 1 1 1 
1 1 1 1 1 1 1 1 1 
1 1 1 1 1 1 1 1 1 
1 1 1 1 1 1 1 1 1 
1 1 1 1 1 1 1 1 1 
1 1 1 1 1 1 1 1 1 
1 1 1 1 1 1 1 1 1 
1 1 1 1 1 1 1 1 1 
1 1 1 1 1 1 1 1 1 
1 1 1 1 1 1 1 1 1 
1 1 1 1 1 1 1 1 1 
1 1 1 1 1 1 1 1 1 
1 1 1 1 1 1 1 1 1 
1 1 1 1 1 1 1 1 1 
1 1 1 1 1 1 1 1 1 
1 1 1 1 1 1 1 1 1 
1 1 1 1 1 1 1 1 1 
1 1 1 1 1 1 1 1 1 
1 1 1 1 1 1 1 1 1 
1 1 1 1 1 1 1 1 1 
1 1 1 1 1 1 1 1 1 
1 1 1 1 1 1 1 1 1 
1 1 1 1 1 1 1 1 1 
1 1 1 1 1 1 1 1 1 
1 1 1 1 1 1 1 1 1 
1 1 1 1 1 1 1 1 1 
1 1 1 1 1 1 1 1 1 
1 1 1 1 1 1 1 1 1 
1 1 1 1 1 1 1 1 1 
1 1 1 1 1 1 1 1 1 
1 1 1 1 1 1 1 1 1 
1 1 1 1 1 1 1 1 1 
1 1 1 1 1 1 1 1 1 
1 1 1 1 1 1 1 1 1 
1 1 1 1 1 1 1 1 1 
1 1 1 1 1 1 1 1 1 
1 1 1 1 1 1 1 1 1 
1 1 1 1 1 1 1 1 1 
1 1 1 1 1 1 1 1 1 
1 1 1 1 1 1 1 1 1 
1 1 1 1 1 1 1 1 1 
1 1 1 1 1 1 1 1 1 
1 1 1 1 1 1 1 1 1 
1 1 1 1 1 1 1 1 1 
1 1 1 1 1 1 1 1 1 
1 1 1 1 1 1 1 1 1 
1 1 1 1 1 1 1 1 1 
1 1 1 1 1 1 1 1 1 
1 1 1 1 1 1 1 1 1 
1 1 1 1 1 1 1 1 1 
1 1 1 1 1 1 1 1 1 
1 1 1 1 1 1 1 1 1 
1 1 1 1 1 1 1 1 1 
1 1 1 1 1 1 1 1 1 
1 1 1 1 1 1 1 1 1 
1 1 1 1 1 1 1 1 1 
1 1 1 1 1 1 1 1 1 
1 1 1 1 1 1 1 1 1 
1 1 1 1 1 1 1 1 1 
1 1 1 1 1 1 1 1 1 
1 1 1 1 1 1 1 1 1 
1 1 1 1 1 1 1 1 1 
1 1 1 1 1 1 1 1 1 
1 1 1 1 1 1 1 1 1 
1 1 1 1 1 1 1 1 1 
1 1 1 1 1 1 1 1 1 
1 1 1 1 1 1 1 1 1 
1 1 1 1 1 1 1 1 1 
1 1 1 1 1 1 1 1 1 
1 1 1 1 1 1 1 1 1 
1 1 1 1 1 1 1 1 1 
1 1 1 1 1 1 1 1 1 
1 1 1 1 1 1 1 1 1 
1 1 1 1 1 1 1 1 1 
1 1 1 1 1 1 1 1 1 
1 1 1 1 1 1 1 1 1 
1 1 1 1 1 1 1 1 1 
1 1 1 1 1 1 1 1 1 
1 1 1 1 1 1 1 1 1 
1 1 1 1 1 1 1 1 1 
1 1 1 1 1 1 1 1 1 
1 1 1 1 1 1 1 1 1 
1 1 1 1 1 1 1 1 1 
1 1 1 1 1 1 1 1 1 
1 1 1 1 1 1 1 1 1 
1 1 1 1 1 1 1 1 1 
1 1 1 1 1 1 1 1 1 
1 1 1 1 1 1 1 1 1 
1 1 1 1 1 1 1 1 1 
1 1 1 1 1 1 1 1 1 
1 1 1 1 1 1 1 1 1 
1 1 1 1 1 1 1 1 1 
1 1 1 1 1 1 1 1 1 
1 1 1 1 1 1 1 1 1 
1 1 1 1 1 1 1 1 1 
1 1 1 1 1 1 1 1 1 
1 1 1 1 1 1 1 1 1 
1 1 1 1 1 1 1 1 1 
1 1 1 1 1 1 1 1 1 
1 1 1 1 1 1 1 1 1 
1 1 1 1 1 1 1 1 1 
1 1 1 1 1 1 1 1 1 
1 1 1 1 1 1 1 1 1 
1 1 1 1 1 1 1 1 1 
1 1 1 1 1 1 1 1 1 
1 1 1 1 1 1 1 1 1 
1 1 1 1 1 1 1 1 1 
1 1 1 1 1 1 1 1 1 
1 1 1 1 1 1 1 1 1 
1 1 1 1 1 1 1 1 1 
1 1 1 1 1 1 1 1 1 
1 1 1 1 1 1 1 1 1 
1 1 1 1 1 1 1 1 1 
1 1 1 1 1 1 1 1 1 
1 1 1 1 1 1 1 1 1 
1 1 1 1 1 1 1 1 1 
1 1 1 1 1 1 1 1 1 
1 1 1 1 1 1 1 1 1 
1 1 1 1 1 1 1 1 1 
1 1 1 1 1 1 1 1 1 
1 1 1 1 1 1 1 1 1 
1 1 1 1 1 1 1 1 1 
1 1 1 1 1 1 1 1 1 
1 1 1 1 1 1 1 1 1 
1 1 1 1 1 1 1 1 1 
1 1 1 1 1 1 1 1 1 
1 1 1 1 1 1 1 1 1 
1 1 1 1 1 1 1 1 1 
1 1 1 1 1 1 1 1 1 
1 1 1 1 1 1 1 1 1 
1 1 1 1 1 1 1 1 1 
1 1 1 1 1 1 1 1 1 
1 1 1 1 1 1 1 1 1 
1 1 1 1 1 1 1 1 1 
1 1 1 1 1 1 1 1 1 
1 1 1 1 1 1 1 1 1 
1 1 1 1 1 1 1 1 1 
1 1 1 1 1 1 1 1 1 
1 1 1 1 1 1 1 1 1 
1 1 1 1 1 1 1 1 1 
1 1 1 1 1 1 1 1 1 
1 1 1 1 1 1 1 1 1 
1 1 1 1 1 1 1 1 1 
1 1 1 1 1 1 1 1 1 
1 1 1 1 1 1 1 1 1 
1 1 1 1 1 1 1 1 1 
1 1 1 1 1 1 1 1 1 
1 1 1 1 1 1 1 1 1 
1 1 1 1 1 1 1 1 1 
1 1 1 1 1 1 1 1 1 
1 1 1 1 1 1 1 1 1 
1 1 1 1 1 1 1 1 1 
1 1 1 1 1 1 1 1 1 
1 1 1 1 1 1 1 1 1 
1 1 1 1 1 1 1 1 1 
1 1 1 1 1 1 1 1 1 
1 1 1 1 1 1 1 1 1 
1 1 1 1 1 1 1 1 1 
1 1 1 1 1 1 1 1 1 
1 1 1 1 1 1 1 1 1 
1 1 1 1 1 1 1 1 1 
1 1 1 1 1 1 1 1 1 
1 1 1 1 1 1 1 1 1 
1 1 1 1 1 1 1 1 1 
1 1 1 1 1 1 1 1 1 
1 1 1 1 1 1 1 1 1 
1 1 1 1 1 1 1 1 1 
1 1 1 1 1 1 1 1 1 
1 1 1 1 1 1 1 1 1 
1 1 1 
NORMALS Normals float
0 -0.992278 -0.124035 0 -1 0 -0.184289 -0.982872 0 
0.184289 -0.982872 0 0 1 0 0 -0.992278 -0.124035 
0 -1 0 -0.184289 -0.982872 0 0 -0.992278 0.124035 
0.184289 -0.982872 0 0 1 0 0 -0.992278 -0.124035 
0 -1 0 -0.184289 -0.982872 0 0.184289 -0.982872 0 
0 -0.992278 0.124035 0 1 0 0 -0.992278 -0.124035 
0 -1 0 -0.184289 -0.982872 0 0 -0.992278 0.124035 
0.184289 -0.982872 0 0 1 0 -0.296823 0.533006 -0.792339 
-0.457215 0.305131 -0.835374 -0.441828 -0.437787 -0.783027 -0.495446 0.283519 -0.821066 
0.501184 -0.234497 0.832962 0.0568766 -0.930677 -0.361393 -0.285402 0.651473 -0.702943 
0.202738 0.682628 -0.70208 0 -0.992278 0.124035 0.285402 -0.651473 0.702943 
-0.0568766 0.930677 0.361393 -0.411707 0.170629 -0.8952 0.447214 0 0.894427 
0 0 0 -0.420786 -0.211406 -0.882183 0.196758 0.936885 0.289021 
-0.291303 0.76277 -0.577342 0.424187 -0.205827 0.881873 -0.407992 -0.385442 -0.827633 
0.309471 -0.652313 0.691892 0.419561 -0.0907309 0.903181 -0.202738 -0.682628 0.70208 
0 -0.992278 -0.124035 0 -1 0 -0.242536 -0.970143 0 
0.242536 -0.970143 0 0.454147 0.235607 0.859209 0 1 0 
0.445083 0.251861 0.859341 0.447214 0 0.894427 0 -0.992278 -0.124035 
0 -1 0 -0.242536 -0.970143 0 0 -0.992278 0.124035 
0.242536 -0.970143 0 0 1 0 0 -0.992278 -0.124035 
0 -1 0 -0.242536 -0.970143 0 0 -0.992278 0.124035 
0.242536 -0.970143 0 0 1 0 -0.0842125 -0.534046 -0.841251 
-0.334854 -0.401978 -0.852224 -0.0379627 -0.543221 -0.838731 0.0242559 -0.569954 -0.821319 
-0.261137 -0.43861 -0.8599 0 -0.992278 0.124035 -0.0300256 0.578309 0.815265 
0.126822 0.506082 0.85311 -0.267047 -0.431128 -0.861867 0.748682 -0.586686 -0.308667 
0.775036 -0.576387 -0.259032 0.797751 -0.560418 -0.222541 0.517182 0.266446 0.813345 
0.388772 0.368401 0.844474 0.67523 0.148964 0.722409 -0.535658 0.646705 0.542995 
-0.52382 0.65049 0.549978 -0.0888622 0.589199 0.803087 -0.00983471 0.562868 0.826488 
-0.0172979 -0.552867 -0.83309 0.0909707 0.522562 0.847734 0.188579 0.490304 0.850905 
-0.207366 -0.463323 -0.861587 -0.229783 0.941447 0.246732 -0.265704 0.94593 0.186061 
-0.23806 0.942949 0.232754 0.203095 -0.934128 -0.293527 -0.163523 0.922452 0.349774 
0.816968 -0.547812 -0.180182 0.860911 -0.504827 -0.0631034 0.144059 0.501585 0.853029 
0.344334 -0.633924 -0.692513 0.685898 -0.613675 -0.391085 -0.201357 -0.46935 -0.859748 
0.0812415 -0.5885 -0.804405 0.101596 -0.594359 -0.797757 -0.255704 0.945279 0.202642 
-0.229583 0.941891 0.24522 0.152473 -0.916541 -0.369736 0.245463 -0.943498 -0.222621 
-0.167472 0.923962 0.343871 -0.120236 0.902631 0.413281 -0.813708 0.549294 0.190144 
-0.230334 0.614224 0.754769 -0.108498 -0.669944 -0.734441 -0.15291 -0.607589 -0.779394 
0.0989492 -0.888446 -0.448188 -0.22649 0.944834 0.236623 0.104721 -0.891601 -0.440547 
0.186375 -0.930117 -0.31646 0.254825 -0.944958 -0.205229 -0.114991 0.901916 0.416322 
0.0891765 0.73554 0.671587 -0.13394 -0.917615 -0.374222 -0.126912 -0.876363 -0.46463 
-0.275337 0.103797 -0.955728 -0.326661 0.366517 -0.871182 -0.349786 0.147171 -0.925198 
-0.24709 -0.252331 -0.935562 -0.373932 0.102138 -0.921815 -0.196885 -0.462727 -0.864361 
-0.178714 -0.526321 -0.831292 0.140092 -0.930378 -0.338779 -0.234423 0.879465 -0.414232 
-0.323625 0.758528 -0.565599 -0.366902 0.757759 -0.539615 -0.396272 0.777342 -0.488577 
-0.336288 0.925852 -0.172362 -0.420897 0.195071 -0.885885 0.040393 -0.843217 -0.536054 
0.0255233 -0.828115 -0.559977 0.1871 -0.937834 -0.292338 0.205907 -0.941613 -0.266398 
-0.426318 0.807219 -0.408228 -0.473722 0.199575 -0.857763 0.166012 -0.923456 -0.345932 
0.215361 -0.940328 -0.263445 -0.406333 -0.496414 -0.767115 -0.337145 0.0431023 -0.940466 
-0.157504 -0.955308 -0.250158 0.16007 -0.11082 0.980865 0.12099 0.215925 0.968885 
0.00364466 -0.0179216 0.999833 0.296272 0.935227 0.193836 0.26593 0.951384 0.155405 
0.43695 0.811898 0.387164 0.319053 0.921068 0.223247 0.206224 0.97529 0.0792569 
-0.301817 -0.932001 -0.200699 -0.193862 0.806639 -0.558347 -0.0743595 0.907073 -0.414354 
0.07019 -0.771185 0.63273 0.0374843 -0.641847 0.765916 -0.0393609 -0.799923 0.59881 
-0.077558 -0.806757 0.585771 -0.147002 -0.766521 0.625169 0.195722 0.664676 0.72104 
0.300038 0.781279 0.547339 0.168201 0.824912 0.539656 0.352503 0.896414 0.268669 
0.295076 0.935782 0.192981 0.204557 0.97177 0.117559 0.240183 0.582957 0.776191 
-0.133794 -0.57454 -0.807467 -0.109 -0.679018 -0.725985 -0.05687 -0.76313 -0.643737 
-0.140726 -0.894911 -0.423474 -0.102505 -0.848164 -0.519722 -0.113964 0.0732775 -0.990779 
-0.152726 0.102974 -0.982889 -0.119965 -0.692234 -0.711632 -0.185709 0.370251 -0.910179 
-0.2307 0.268751 -0.935174 0.022397 -0.837762 -0.545576 0.389816 -0.854672 0.3429 
-0.168942 -0.82729 -0.535771 -0.167669 -0.732998 -0.659242 -0.173718 -0.57088 -0.802445 
-0.123153 -0.943663 -0.307138 -0.129239 -0.941518 -0.311194 0.088559 0.969958 -0.226583 
0.0938585 0.930306 -0.354572 -0.0517541 0.829215 -0.556528 -0.0939512 0.789235 -0.606862 
-0.136819 0.877425 -0.459789 -0.191241 0.851928 -0.48749 -0.125555 0.988001 0.0899414 
-0.23654 0.963986 -0.121576 -0.15266 0.967678 0.200733 0.0891268 0.698853 0.70969 
0.364249 -0.909146 0.201929 0.249597 -0.956129 -0.153355 0.134745 0.90706 0.398856 
-0.151623 -0.455759 -0.877094 0.0250348 0.810971 -0.58455 0.0349211 0.932004 -0.360762 
0.0801279 0.995512 -0.0503588 -0.13578 -0.932593 -0.334415 -0.130326 -0.952545 -0.275089 
-0.122131 -0.97371 -0.192282 -0.441884 0.873174 -0.205684 -0.144927 -0.926328 -0.347725 
-0.1303 -0.905893 -0.402963 0.137017 0.982752 0.1242 -0.127767 -0.928252 -0.349319 
-0.125159 -0.922912 -0.3641 -0.125159 -0.922912 -0.3641 -0.124818 -0.924231 -0.360856 
0.135951 0.907597 0.397222 0.134014 0.907765 0.397497 0.130347 0.915935 0.37957 
0.106778 0.986571 0.123595 -0.431034 0.886472 -0.168453 0.111466 0.756983 0.643858 
0.193719 0.950075 0.244604 0.189361 0.947962 0.25595 -0.146179 -0.930447 -0.336005 
-0.149439 -0.936721 -0.31658 -0.0534359 -0.76839 -0.637747 0.253017 0.953691 -0.162654 
0.215178 0.97448 -0.0639334 -0.491332 -0.633799 -0.597404 -0.242399 -0.905123 -0.349279 
0.0584706 0.510303 0.858005 0.0739553 0.581259 0.810351 0.133277 0.759386 0.636844 
0.131245 0.749096 0.649331 0.0548568 -0.33465 -0.940745 0.198048 0.952043 0.23322 
0.193719 0.950075 0.244604 -0.0611931 -0.811145 -0.581636 -0.0722708 -0.830728 -0.551967 
0.372861 0.879158 0.296741 0.221657 0.970471 0.0951568 0.258303 0.95518 0.144608 
-0.305503 -0.929406 -0.207054 -0.314156 -0.924148 -0.217385 -0.300615 -0.932434 -0.200492 
-0.0687472 0.992705 -0.0990498 -0.148547 -0.860887 0.486628 -0.115738 -0.88317 0.45455 
0.197308 0.920852 0.336305 -0.0504578 -0.588883 0.806642 -0.149562 -0.982155 -0.114033 
-0.166301 -0.905418 -0.390593 -0.198051 -0.77506 -0.600048 0.379902 0.872205 0.308111 
-0.182872 -0.860712 -0.475114 0.312493 0.925054 0.215923 0.310821 0.549862 0.775269 
-0.0600514 -0.853352 0.517865 0.190225 0.981595 -0.0168808 0.221088 0.0279691 0.974853 
0.296866 0.347116 0.889596 0.370047 0.623923 0.68832 -0.138543 -0.880086 0.454153 
-0.260903 -0.963509 -0.0598382 -0.412482 -0.270246 -0.869957 0.00171127 -0.683979 0.729499 
-0.0530515 -0.942046 -0.331262 -0.00943894 -0.934789 -0.355078 0.186824 -0.974783 -0.122043 
0.150275 -0.982115 -0.113436 0.305178 -0.910417 0.279299 -0.138825 -0.92091 -0.364216 
0.272974 -0.961594 0.0286752 0.370911 0.0150407 0.928547 -0.134463 -0.952512 -0.273204 
-0.0868415 -0.982103 -0.167128 0.0604649 0.994835 0.0815276 0.089122 0.98043 0.175539 
0.0487365 0.975754 0.213375 -0.027426 0.98585 0.16537 -0.0208296 0.950894 0.308816 
0.425869 -0.206199 0.880975 0.268471 -0.960774 -0.0695437 0.289934 -0.956996 -0.00981157 
0.20018 -0.940842 -0.273393 -0.163695 -0.897052 -0.410489 0.114086 -0.989797 -0.0853559 
0.163905 0.961793 0.219294 0.154822 0.947169 0.280892 0.0632969 0.501442 -0.862872 
0.0602337 0.750816 0.657759 -0.0406153 0.843403 0.535744 -0.239597 0.944135 0.226278 
-0.166404 -0.916374 -0.364099 -0.150106 -0.9178 -0.367575 0.187744 0.893659 0.407584 
0.134142 0.90679 0.399673 -0.163772 -0.849282 -0.501896 -0.15947 -0.889733 -0.427719 
0.0386519 0.521032 -0.852662 -0.0978128 -0.781784 -0.61583 -0.621807 0.0987225 -0.776924 
0.202573 0.976896 0.068106 0.271686 0.948657 0.161977 -0.292263 -0.937167 -0.19053 
-0.289968 -0.938523 -0.187332 0.230347 0.933268 0.275591 -0.215346 -0.972801 -0.0853461 
-0.226595 -0.946646 0.229163 0.289547 0.947866 0.133088 -0.0827499 -0.916694 0.390928 
0.314531 0.887598 0.336513 -0.272462 -0.962063 -0.0141026 -0.193968 -0.937641 0.288455 
-0.328857 -0.937517 -0.113643 -0.223222 -0.970051 0.0957723 0.316231 0.947767 -0.0416621 
0.230799 0.940012 -0.251214 0.309991 0.947753 -0.075293 0.0733401 -0.997301 -0.00338429 
0.0890808 -0.989035 -0.117794 0.267246 -0.901665 0.339971 0.361606 -0.619228 0.696992 
-0.142557 -0.932309 -0.332383 0.41331 -0.577537 0.704007 -0.152873 -0.931771 -0.329292 
-0.0141375 0.99249 -0.121503 0.0958732 0.749564 0.654952 0.302921 -0.953015 0.000870405 
0.186316 -0.942501 -0.277451 0.0191694 -0.976355 -0.215321 -0.295693 -0.793032 -0.532603 
-0.163772 -0.849282 -0.501896 -0.16315 -0.850611 -0.499843 0.17448 0.918566 0.354673 
0.141324 0.916457 0.374345 0.155393 0.918773 0.362917 0.153693 0.917213 0.367557 
-0.156054 -0.917359 -0.366195 -0.154549 -0.910829 -0.38276 -0.14726 -0.924371 -0.351927 
-0.572487 -0.404116 -0.713407 0.0190757 -0.999815 0.0026177 -0.308887 -0.925776 -0.218007 
-0.295709 -0.934095 -0.200055 -0.308982 -0.924894 -0.221588 -0.285944 -0.940698 -0.182545 
-0.290206 -0.938193 -0.188612 -0.530564 0.519021 -0.670164 0.293151 0.936065 0.194539 
-0.12611 -0.96376 -0.235079 0.422576 0.904116 0.0632724 0.301211 0.952312 0.0487234 
0.284536 0.95237 0.109682 0.362485 0.445924 0.818387 0.339098 0.497284 0.798575 
0.303931 -0.0436839 0.951692 -0.320352 -0.939822 -0.118782 -0.32318 -0.938932 -0.118158 
-0.0346956 -0.755343 0.654411 -0.208514 -0.966217 0.151482 0.35545 0.929118 0.101959 
0.242198 0.947193 -0.210154 0.31556 0.948376 -0.0316954 0.248595 0.950231 -0.187778 
0.0262535 -0.998463 0.0488043 0.240178 -0.880638 0.4084 0.335703 -0.354972 0.872524 
-0.15066 -0.933548 -0.325253 0.311344 0.132915 0.940956 0.121006 0.924231 0.362152 
-0.0838144 -0.926378 -0.36715 0.114762 0.942749 0.313135 -0.12517 -0.91366 -0.386728 
-0.144144 -0.935102 -0.323738 -0.115149 -0.958514 -0.260753 0.0817603 0.97445 0.209194 
0.118415 0.945182 0.304317 0.113864 0.803086 0.584883 0.169787 0.625899 0.761198 
-0.140081 -0.921568 -0.362064 0.127634 0.929833 0.345137 0.128066 0.929998 0.344532 
-0.0700493 -0.922891 -0.378636 -0.125159 -0.922912 -0.3641 -0.152722 -0.913518 -0.377043 
-0.163772 -0.849282 -0.501896 -0.132021 -0.892891 -0.430484 0.178958 0.932781 0.31288 
0.142327 0.949035 0.281202 0.202978 0.963422 0.174978 0.270649 -0.902839 0.334111 
0.31834 -0.864271 0.38948 -0.303879 -0.927876 -0.216112 -0.295617 -0.93322 -0.204234 
-0.248437 -0.956407 -0.153507 -0.29232 -0.936715 -0.192652 0.179468 -0.960051 0.214694 
0.216 0.952635 0.214079 0.261453 0.937474 0.22975 0.445259 0.890588 0.0927274 