# vtk DataFile Version 4.2
vtk output
ASCII
DATASET POLYDATA
POINTS 4805 float
361.708 44.3083 151.242 361.698 44.3033 151.252 361.697 44.3034 151.253 
361.689 44.3002 151.261 361.697 44.304 151.253 361.672 44.2929 151.278 
361.679 44.2966 151.271 365.002 45.5109 149.015 365.002 45.5109 149.015 
365.002 45.5109 149.015 365.002 45.5109 149.015 361.654 44.2858 151.297 
365.002 45.511 149.015 365.002 45.511 149.015 365.002 45.511 149.015 
365.002 45.511 149.015 361.677 44.2938 151.273 361.663 44.2875 151.286 
361.61 44.264 151.339 361.66 44.2868 151.29 361.627 44.2737 151.323 
361.642 44.279 151.308 361.516 44.2225 151.433 361.612 44.2686 151.339 
365.002 45.5109 149.015 361.596 44.2596 151.354 364.009 46.0043 150.013 
364.009 46.0043 150.013 364.009 46.0043 150.013 365.002 45.511 149.015 
364.009 46.0044 150.013 364.009 46.0044 150.013 361.637 44.2761 151.312 
361.617 44.2667 151.332 361.608 44.2627 151.341 361.596 44.2573 151.353 
361.47 44.2002 151.478 361.595 44.2577 151.354 361.27 44.1086 151.675 
361.498 44.2146 151.451 361.541 44.2378 151.41 361.455 44.199 151.495 
364.009 46.0043 150.013 361.561 44.2471 151.391 361.529 44.2333 151.422 
360.552 43.7651 152.377 360.472 43.7223 152.454 361.569 44.2452 151.38 
360.636 43.8055 152.296 360.505 43.7354 152.421 360.204 43.5768 152.71 
360.185 43.5656 152.728 360.761 43.8658 152.173 361.49 44.2094 151.458 
360.428 43.6912 152.494 360.874 43.918 152.062 361.138 44.0462 151.805 
361.256 44.1066 151.691 359.603 43.248 153.285 359.336 43.0934 153.54 
359.51 43.1943 153.373 359.806 43.3614 153.091 359.559 43.2232 153.327 
359.848 43.3845 153.051 359.833 43.3753 153.065 359.594 43.2416 153.293 
360.09 43.5146 152.819 360.599 43.7807 152.329 359.954 43.44 152.949 
360.02 43.4755 152.885 360.909 43.9397 152.03 361.106 44.0372 151.839 
358.684 42.7026 154.16 358.575 42.6356 154.264 358.549 42.6198 154.288 
358.948 42.8628 153.908 358.736 42.7342 154.111 359.226 43.0295 153.644 
358.925 42.8494 153.931 359.17 42.9975 153.698 358.689 42.7053 154.155 
358.872 42.8169 153.981 359.217 43.0235 153.653 359.475 43.1758 153.407 
359.662 43.282 153.229 359.783 43.3484 153.113 359.624 43.26 153.265 
359.674 43.2875 153.217 361.024 43.9976 151.919 358.498 42.5877 154.337 
358.448 42.5569 154.384 358.465 42.5675 154.368 358.47 42.5702 154.364 
358.46 42.5639 154.373 358.616 42.6606 154.224 358.927 42.8507 153.929 
358.622 42.6645 154.219 358.523 42.6031 154.313 358.643 42.6773 154.199 
359.173 43.0016 153.694 359.35 43.1055 153.526 359.332 43.096 153.543 
359.471 43.1754 153.41 358.43 42.5458 154.401 358.442 42.5525 154.391 
358.413 42.535 154.418 358.489 42.582 154.345 358.514 42.5976 154.322 
358.433 42.5474 154.399 358.461 42.5644 154.372 359.258 43.0531 153.614 
358.404 42.5293 154.426 358.389 42.5198 154.44 358.437 42.5493 154.395 
358.398 42.5252 154.432 358.395 42.5236 154.435 352.843 40.1714 159.596 
352.842 40.1705 159.598 352.838 40.1679 159.602 352.842 40.171 159.597 
352.841 40.1703 159.598 355.004 42.0131 158.009 355.004 42.0131 158.009 
355.004 42.0131 158.009 355.004 42.0131 158.009 358.38 42.5138 154.45 
355.004 42.0131 158.009 352.831 40.1617 159.61 352.825 40.1568 159.617 
352.821 40.1543 159.621 352.827 40.1588 159.615 352.831 40.1619 159.61 
352.824 40.1567 159.618 352.836 40.166 159.604 352.841 40.1699 159.599 
352.835 40.1655 159.605 352.839 40.1682 159.601 355.004 42.0131 158.009 
352.81 40.1449 159.635 352.802 40.139 159.643 352.804 40.1403 159.641 
352.806 40.1417 159.639 352.811 40.1463 159.633 352.803 40.1394 159.642 
352.818 40.1513 159.625 352.824 40.1559 159.619 352.807 40.1429 159.637 
352.814 40.1487 159.629 352.831 40.1619 159.61 352.838 40.1676 159.602 
352.8 40.1369 159.646 352.8 40.1368 159.646 352.8 40.1373 159.645 
352.799 40.1365 159.647 352.813 40.1473 159.631 352.805 40.1411 159.64 
352.803 40.14 159.642 351 38.0087 162.517 351 38.0087 162.517 
351 38.0088 162.517 351 38.0087 162.517 351 38.0088 162.517 
352.798 40.1356 159.648 352.8 40.137 159.646 351 38.0087 162.518 
351 38.0087 162.518 351 38.0088 162.518 351 38.0088 162.518 
346.805 37.1201 166.056 346.766 37.1132 166.078 346.761 37.1124 166.08 
346.777 37.115 166.072 351 38.0087 162.518 346.775 37.1147 166.073 
346.531 37.0729 166.202 346.268 37.0293 166.341 346.396 37.0505 166.273 
346.681 37.0985 166.123 346.506 37.0686 166.215 346.677 37.0977 166.125 
346.63 37.09 166.149 346.394 37.0504 166.274 346.749 37.1102 166.087 
346.656 37.0945 166.136 346.696 37.1012 166.114 346 36.0087 166.017 
346 36.0087 166.017 346 36.0087 166.017 346 36.0087 166.017 
346 36.0088 166.017 345.799 36.9542 166.585 345.325 36.8814 166.83 
345.991 36.9849 166.485 346.186 37.0155 166.384 346.495 37.0667 166.221 
346.269 37.0289 166.34 345.539 36.9137 166.72 346.006 36.9868 166.478 
346.484 37.0653 166.227 346.652 37.0935 166.138 342.474 36.4952 168.239 
342.129 36.4559 168.396 342.083 36.451 168.418 343.093 36.5717 167.944 
342.772 36.5306 168.099 343.812 36.6642 167.594 343.375 36.6072 167.808 
346 36.0087 166.017 344.195 36.7178 167.402 342.188 36.4662 168.37 
343.096 36.5743 167.944 343.813 36.6644 167.595 343.779 36.6599 167.611 
344.494 36.7591 167.253 345.108 36.8489 166.941 345.727 36.9422 166.623 
346.013 36.9869 166.475 345.726 36.9415 166.624 344.221 36.7197 167.391 
344.839 36.809 167.078 345.383 36.8897 166.8 341.012 36.3361 168.884 
340.773 36.3117 168.983 340.681 36.3042 169.019 340.864 36.3219 168.946 
340.838 36.3218 168.954 340.232 36.2675 169.194 341.355 36.373 168.739 
341.468 36.3865 168.689 342.685 36.5215 168.14 343.558 36.6333 167.717 
342.671 36.521 168.151 340.723 36.3162 169.004 341.288 36.3725 168.776 
342.14 36.4616 168.402 344.056 36.699 167.472 342.362 36.4856 168.301 
344.667 36.7851 167.164 345.349 36.8843 166.818 341.544 36.3992 168.678 
341.825 36.4268 168.554 335.196 35.8408 170.892 334.938 35.8252 170.986 
335.407 35.8516 170.821 338.186 36.0823 169.928 338.11 36.0721 169.951 
337.735 36.0422 170.078 338.828 36.1398 169.706 338.44 36.102 169.839 
338.786 36.1358 169.721 340.478 36.2866 169.098 337.112 35.993 170.285 
339.617 36.2124 169.423 340.625 36.3045 169.044 341.728 36.4128 168.592 
342.218 36.4665 168.366 339.865 36.2438 169.347 340.563 36.3055 169.082 
340.587 36.3103 169.085 341.405 36.3822 168.742 341.984 36.4422 168.479 
341.556 36.3983 168.679 340.932 36.3425 168.944 341.257 36.3713 168.81 
331.521 35.7181 172.252 330.989 35.6833 172.46 330.874 35.7043 172.493 
332.647 35.7399 171.855 333.826 35.789 171.404 334.437 35.8082 171.172 
334.317 35.7999 171.227 335.879 35.8883 170.675 336.554 35.945 170.465 
339.822 36.2371 169.362 340.439 36.2929 169.133 339.993 36.2586 169.314 
339.949 36.2608 169.343 340.36 36.292 169.181 341.224 36.3664 168.827 
340.94 36.3419 168.948 339.249 36.2129 169.624 340.115 36.2759 169.279 
340.666 36.3197 169.059 329.087 35.6067 173.173 328.985 35.6288 173.184 
330.371 35.6736 172.678 330.107 35.6456 172.807 329.007 35.6565 173.203 
339.437 36.2119 169.522 337.647 36.0988 170.228 338.437 36.1492 169.927 
339.262 36.2088 169.61 340.073 36.2693 169.292 340.598 36.3125 169.088 
338.552 36.1705 169.91 326.72 35.5104 173.986 326.131 35.4531 174.264 
327.647 35.5547 173.668 328.41 35.5895 173.397 328.119 35.5565 173.548 
325.756 35.4822 174.287 326.171 35.4971 174.153 326.697 35.5313 173.983 
327.332 35.5632 173.775 328.255 35.6101 173.46 336.476 35.9953 170.605 
326.344 35.5207 174.127 334.126 35.9015 171.54 335.326 35.9356 171.043 
337.91 36.1321 170.165 337.993 36.142 170.143 338.204 36.1531 170.057 
320.728 35.1351 176.282 320.396 35.1153 176.416 321.109 35.1501 176.157 
321.058 35.1324 176.187 321.503 35.159 176.039 324.663 35.3724 174.861 
323.967 35.3032 175.187 323.861 35.3206 175.213 325.485 35.4296 174.486 
310.019 36.2537 175.88 310.933 36.2465 175.201 311.166 36.2373 175.083 
311.166 36.224 175.102 311.471 36.2175 174.927 311.423 36.2154 174.951 
311.653 36.2072 174.821 311.635 36.2066 174.828 311.74 36.2022 174.767 
321.504 35.1813 176.053 324.304 35.3672 175.051 325.27 35.4393 174.583 
333.87 35.8879 171.678 333.18 35.9028 172.059 309.16 36.3876 176.167 
308.832 36.4011 176.414 308.883 36.4234 176.349 309.602 36.3498 175.913 
309.979 36.3307 175.687 310.766 36.2703 175.286 329.623 35.7661 173.232 
333.106 35.9213 172.097 332.853 36.3066 173.196 338.066 36.1471 170.117 
332.868 36.3136 173.206 309.727 36.3616 175.857 310.092 36.3313 175.654 
310.433 36.3024 175.51 332.717 36.2619 173.153 332.819 36.2964 173.188 
319.23 35.1256 176.832 318.859 35.1218 176.985 319.692 35.1041 176.69 
322.144 35.1982 175.847 322.865 35.2197 175.641 311.781 36.1991 174.747 
311.787 36.1978 174.746 322.229 35.2349 175.865 332.355 36.0222 172.746 
307.864 36.5066 177.169 308.508 36.4509 176.631 311.581 36.1993 174.926 
311.743 36.1981 174.785 332.616 36.201 173.054 332.794 36.2807 173.162 
301.696 38.0062 175.972 301.68 38.0063 175.999 301.678 38.0063 176.002 
301.709 38.0062 175.953 301.7 38.0062 175.966 301.718 38.0062 175.938 
301.719 38.0062 175.937 301.723 38.0061 175.93 332.41 36.1636 173.061 
299.808 39.007 174.824 299.807 39.007 174.824 299.807 39.007 174.824 
299.808 39.0071 174.824 299.808 39.007 174.824 301.691 38.0062 175.982 
299.808 39.0071 174.824 301.696 38.0062 175.974 301.715 38.0062 175.943 
299.807 39.0071 174.824 299.808 39.0071 174.824 317.486 35.1945 177.456 
316.906 35.2097 177.638 316.882 35.2222 177.634 318.351 35.158 177.162 
317.973 35.1544 177.319 327.333 35.5523 174.195 311.657 36.1971 174.856 
311.485 36.1933 175.019 317.969 35.2071 177.361 307.602 36.5191 177.432 
307.354 36.5457 177.705 311.317 36.1903 175.22 331.078 35.9268 173.106 
331.593 36.0012 173.054 301.654 38.0064 176.04 301.651 38.0064 176.044 
301.694 38.0062 175.976 301.658 38.0064 176.034 301.716 38.0062 175.942 
331.94 36.059 173.031 299.807 39.007 174.825 299.807 39.0069 174.825 
[...]
POINT_DATA 4805
SCALARS scalars float
LOOKUP_TABLE default
1 1 1 1 1 1 1 1 1 
1 1 1 1 1 1 1 1 1 
1 1 1 1 1 1 1 1 1 
1 1 1 1 1 1 1 1 1 
1 1 1 1 1 1 1 1 1 
1 1 1 1 1 1 1 1 1 
1 1 1 1 1 1 1 1 1 
1 1 1 1 1 1 1 1 1 
1 1 1 1 1 1 1 1 1 
1 1 1 1 1 1 1 1 1 
1 1 1 1 1 1 1 1 1 
1 1 1 1 1 1 1 1 1 
1 1 1 1 1 1 1 1 1 
1 1 1 1 1 1 1 1 1 
1 1 1 1 1 1 1 1 1 
1 1 1 1 1 1 1 1 1 
1 1 1 1 1 1 1 1 1 
1 1 1 1 1 1 1 1 1 
1 1 1 1 1 1 1 1 1 
1 1 1 1 1 1 1 1 1 
1 1 1 1 1 1 1 1 1 
1 1 1 1 1 1 1 1 1 
1 1 1 1 1 1 1 1 1 
1 1 1 1 1 1 1 1 1 
1 1 1 1 1 1 1 1 1 
1 1 1 1 1 1 1 1 1 
1 1 1 1 1 1 1 1 1 
1 1 1 1 1 1 1 1 1 
1 1 1 1 1 1 1 1 1 
1 1 1 1 1 1 1 1 1 
1 1 1 1 1 1 1 1 1 
1 1 1 1 1 1 1 1 1 
1 1 1 1 1 1 1 1 1 
1 1 1 1 1 1 1 1 1 
1 1 1 1 1 1 1 1 1 
1 1 1 1 1 1 1 1 1 
1 1 1 1 1 1 1 1 1 
1 1 1 1 1 1 1 1 1 
1 1 1 1 1 1 1 1 1 
1 1 1 1 1 1 1 1 1 
1 1 1 1 1 1 1 1 1 
1 1 1 1 1 1 1 1 1 
1 1 1 1 1 1 1 1 1 
1 1 1 1 1 1 1 1 1 
1 1 1 1 1 1 1 1 1 
1 1 1 1 1 1 1 1 1 
1 1 1 1 1 1 1 1 1 
1 1 1 1 1 1 1 1 1 
1 1 1 1 1 1 1 1 1 
1 1 1 1 1 1 1 1 1 
1 1 1 1 1 1 1 1 1 
1 1 1 1 1 1 1 1 1 
1 1 1 1 1 1 1 1 1 
1 1 1 1 1 1 1 1 1 
1 1 1 1 1 1 1 1 1 
1 1 1 1 1 1 1 1 1 
1 1 1 1 1 1 1 1 1 
1 1 1 1 1 1 1 1 1 
1 1 1 1 1 1 1 1 1 
1 1 1 1 1 1 1 1 1 
1 1 1 1 1 1 1 1 1 
1 1 1 1 1 1 1 1 1 
1 1 1 1 1 1 1 1 1 
1 1 1 1 1 1 1 1 1 
1 1 1 1 1 1 1 1 1 
1 1 1 1 1 1 1 1 1 
1 1 1 1 1 1 1 1 1 
1 1 1 1 1 1 1 1 1 
1 1 1 1 1 1 1 1 1 
1 1 1 1 1 1 1 1 1 
1 1 1 1 1 1 1 1 1 
1 1 1 1 1 1 1 1 1 
1 1 1 1 1 1 1 1 1 
1 1 1 1 1 1 1 1 1 
1 1 1 1 1 1 1 1 1 
1 1 1 1 1 1 1 1 1 
1 1 1 1 1 1 1 1 1 
1 1 1 1 1 1 1 1 1 
1 1 1 1 1 1 1 1 1 
1 1 1 1 1 1 1 1 1 
1 1 1 1 1 1 1 1 1 
1 1 1 1 1 1 1 1 1 
1 1 1 1 1 1 1 1 1 
1 1 1 1 1 1 1 1 1 
1 1 1 1 1 1 1 1 1 
1 1 1 1 1 1 1 1 1 
1 1 1 1 1 1 1 1 1 
1 1 1 1 1 1 1 1 1 
1 1 1 1 1 1 1 1 1 
1 1 1 1 1 1 1 1 1 
1 1 1 1 1 1 1 1 1 
1 1 1 1 1 1 1 1 1 
1 1 1 1 1 1 1 1 1 
1 1 1 1 1 1 1 1 1 
1 1 1 1 1 1 1 1 1 
1 1 1 1 1 1 1 1 1 
1 1 1 1 1 1 1 1 1 
1 1 1 1 1 1 1 1 1 
1 1 1 1 1 1 1 1 1 
1 1 1 1 1 1 1 1 1 
1 1 1 1 1 1 1 1 1 
1 1 1 1 1 1 1 1 1 
1 1 1 1 1 1 1 1 1 
1 1 1 1 1 1 1 1 1 
1 1 1 1 1 1 1 1 1 
1 1 1 1 1 1 1 1 1 
1 1 1 1 1 1 1 1 1 
1 1 1 1 1 1 1 1 1 
1 1 1 1 1 1 1 1 1 
1 1 1 1 1 1 1 1 1 
1 1 1 1 1 1 1 1 1 
1 1 1 1 1 1 1 1 1 
1 1 1 1 1 1 1 1 1 
1 1 1 1 1 1 1 1 1 
1 1 1 1 1 1 1 1 1 
1 1 1 1 1 1 1 1 1 
1 1 1 1 1 1 1 1 1 
1 1 1 1 1 1 1 1 1 
1 1 1 1 1 1 1 1 1 
1 1 1 1 1 1 1 1 1 
1 1 1 1 1 1 1 1 1 
1 1 1 1 1 1 1 1 1 
1 1 1 1 1 1 1 1 1 
1 1 1 1 1 1 1 1 1 
1 1 1 1 1 1 1 1 1 
1 1 1 1 1 1 1 1 1 
1 1 1 1 1 1 1 1 1 
1 1 1 1 1 1 1 1 1 
1 1 1 1 1 1 1 1 1 
1 1 1 1 1 1 1 1 1 
1 1 1 1 1 1 1 1 1 
1 1 1 1 1 1 1 1 1 
1 1 1 1 1 1 1 1 1 
1 1 1 1 1 1 1 1 1 
1 1 1 1 1 1 1 1 1 
1 1 1 1 1 1 1 1 1 
1 1 1 1 1 1 1 1 1 
1 1 1 1 1 1 1 1 1 
1 1 1 1 1 1 1 1 1 
1 1 1 1 1 1 1 1 1 
1 1 1 1 1 1 1 1 1 
1 1 1 1 1 1 1 1 1 
1 1 1 1 1 1 1 1 1 
1 1 1 1 1 1 1 1 1 
1 1 1 1 1 1 1 1 1 
1 1 1 1 1 1 1 1 1 
1 1 1 1 1 1 1 1 1 
1 1 1 1 1 1 1 1 1 
1 1 1 1 1 1 1 1 1 
1 1 1 1 1 1 1 1 1 
1 1 1 1 1 1 1 1 1 
1 1 1 1 1 1 1 1 1 
1 1 1 1 1 1 1 1 1 
1 1 1 1 1 1 1 1 1 
1 1 1 1 1 1 1 1 1 
1 1 1 1 1 1 1 1 1 
1 1 1 1 1 1 1 1 1 
1 1 1 1 1 1 1 1 1 
1 1 1 1 1 1 1 1 1 
1 1 1 1 1 1 1 1 1 
1 1 1 1 1 1 1 1 1 
1 1 1 1 1 1 1 1 1 
1 1 1 1 1 1 1 1 1 
1 1 1 1 1 1 1 1 1 
1 1 1 1 1 1 1 1 1 
1 1 1 1 1 1 1 1 1 
1 1 1 1 1 1 1 1 1 
1 1 1 1 1 1 1 1 1 
1 1 1 1 1 1 1 1 1 
1 1 1 1 1 1 1 1 1 
1 1 1 1 1 1 1 1 1 
1 1 1 1 1 1 1 1 1 
1 1 1 1 1 1 1 1 1 
1 1 1 1 1 1 1 1 1 
1 1 1 1 1 1 1 1 1 
1 1 1 1 1 1 1 1 1 
1 1 1 1 1 1 1 1 1 
1 1 1 1 1 1 1 1 1 
1 1 1 1 1 1 1 1 1 
1 1 1 1 1 1 1 1 1 
1 1 1 1 1 1 1 1 1 
1 1 1 1 1 1 1 1 1 
1 1 1 1 1 1 1 1 1 
1 1 1 1 1 1 1 1 1 
1 1 1 1 1 1 1 1 1 
1 1 1 1 1 1 1 1 1 
1 1 1 1 1 1 1 1 1 
1 1 1 1 1 1 1 1 1 
1 1 1 1 1 1 1 1 1 
1 1 1 1 1 1 1 1 1 
1 1 1 1 1 1 1 1 1 
1 1 1 1 1 1 1 1 1 
1 1 1 1 1 1 1 1 1 
1 1 1 1 1 1 1 1 1 
1 1 1 1 1 1 1 1 1 
1 1 1 1 1 1 1 1 1 
1 1 1 1 1 1 1 1 1 
1 1 1 1 1 1 1 1 1 
1 1 1 1 1 1 1 1 1 
1 1 1 1 1 1 1 1 1 
1 1 1 1 1 1 1 1 1 
1 1 1 1 1 1 1 1 1 
1 1 1 1 1 1 1 1 1 
1 1 1 1 1 1 1 1 1 
1 1 1 1 1 1 1 1 1 
1 1 1 1 1 1 1 1 1 
1 1 1 1 1 1 1 1 1 
1 1 1 1 1 1 1 1 1 
1 1 1 1 1 1 1 1 1 
1 1 1 1 1 1 1 1 1 
1 1 1 1 1 1 1 1 1 
1 1 1 1 1 1 1 1 1 
1 1 1 1 1 1 1 1 1 
1 1 1 1 1 1 1 1 1 
1 1 1 1 1 1 1 1 1 
1 1 1 1 1 1 1 1 1 
1 1 1 1 1 1 1 1 1 
1 1 1 1 1 1 1 1 1 
1 1 1 1 1 1 1 1 1 
1 1 1 1 1 1 1 1 1 
1 1 1 1 1 1 1 1 1 
1 1 1 1 1 1 1 1 1 
1 1 1 1 1 1 1 1 1 
1 1 1 1 1 1 1 1 1 
1 1 1 1 1 1 1 1 1 
1 1 1 1 1 1 1 1 1 
1 1 1 1 1 1 1 1 1 
1 1 1 1 1 1 1 1 1 
1 1 1 1 1 1 1 1 1 
1 1 1 1 1 1 1 1 1 
1 1 1 1 1 1 1 1 1 
1 1 1 1 1 1 1 1 1 
1 1 1 1 1 1 1 1 1 
1 1 1 1 1 1 1 1 1 
1 1 1 1 1 1 1 1 1 
1 1 1 1 1 1 1 1 1 
1 1 1 1 1 1 1 1 1 
1 1 1 1 1 1 1 1 1 
1 1 1 1 1 1 1 1 1 
1 1 1 1 1 1 1 1 1 
1 1 1 1 1 1 1 1 1 
1 1 1 1 1 1 1 1 1 
1 1 1 1 1 1 1 1 1 
1 1 1 1 1 1 1 1 1 
1 1 1 1 1 1 1 1 1 
1 1 1 1 1 1 1 1 1 
1 1 1 1 1 1 1 1 1 
1 1 1 1 1 1 1 1 1 
1 1 1 1 1 1 1 1 1 
1 1 1 1 1 1 1 1 1 
1 1 1 1 1 1 1 1 1 
1 1 1 1 1 1 1 1 1 
1 1 1 1 1 1 1 1 1 
1 1 1 1 1 1 1 1 1 
1 1 1 1 1 1 1 1 1 
1 1 1 1 1 1 1 1 1 
1 1 1 1 1 1 1 1 1 
1 1 1 1 1 1 1 1 1 
1 1 1 1 1 1 1 1 1 
1 1 1 1 1 1 1 1 1 
1 1 1 1 1 1 1 1 1 
1 1 1 1 1 1 1 1 1 
1 1 1 1 1 1 1 1 1 
1 1 1 1 1 1 1 1 1 
1 1 1 1 1 1 1 1 1 
1 1 1 1 1 1 1 1 1 
1 1 1 1 1 1 1 1 1 
1 1 1 1 1 1 1 1 1 
1 1 1 1 1 1 1 1 1 
1 1 1 1 1 1 1 1 1 
1 1 1 1 1 1 1 1 1 
1 1 1 1 1 1 1 1 1 
1 1 1 1 1 1 1 1 1 
1 1 1 1 1 1 1 1 1 
1 1 1 1 1 1 1 1 1 
1 1 1 1 1 1 1 1 1 
1 1 1 1 1 1 1 1 1 
1 1 1 1 1 1 1 1 1 
1 1 1 1 1 1 1 1 1 
1 1 1 1 1 1 1 1 1 
1 1 1 1 1 1 1 1 1 
1 1 1 1 1 1 1 1 1 
1 1 1 1 1 1 1 1 1 
1 1 1 1 1 1 1 1 1 
1 1 1 1 1 1 1 1 1 
1 1 1 1 1 1 1 1 1 
1 1 1 1 1 1 1 1 1 
1 1 1 1 1 1 1 1 1 
1 1 1 1 1 1 1 1 1 
1 1 1 1 1 1 1 1 1 
1 1 1 1 1 1 1 1 1 
1 1 1 1 1 1 1 1 1 
1 1 1 1 1 1 1 1 1 
1 1 1 1 1 1 1 1 1 
1 1 1 1 1 1 1 1 1 
1 1 1 1 1 1 1 1 1 
1 1 1 1 1 1 1 1 1 
1 1 1 1 1 1 1 1 1 
1 1 1 1 1 1 1 1 1 
1 1 1 1 1 1 1 1 1 
1 1 1 1 1 1 1 1 1 
1 1 1 1 1 1 1 1 1 
1 1 1 1 1 1 1 1 1 
1 1 1 1 1 1 1 1 1 
1 1 1 1 1 1 1 1 1 
1 1 1 1 1 1 1 1 1 
1 1 1 1 1 1 1 1 1 
1 1 1 1 1 1 1 1 1 
1 1 1 1 1 1 1 1 1 
1 1 1 1 1 1 1 1 1 
1 1 1 1 1 1 1 1 1 
1 1 1 1 1 1 1 1 1 
1 1 1 1 1 1 1 1 1 
1 1 1 1 1 1 1 1 1 
1 1 1 1 1 1 1 1 1 
1 1 1 1 1 1 1 1 1 
1 1 1 1 1 1 1 1 1 
1 1 1 1 1 1 1 1 1 
1 1 1 1 1 1 1 1 1 
1 1 1 1 1 1 1 1 1 
1 1 1 1 1 1 1 1 1 
1 1 1 1 1 1 1 1 1 
1 1 1 1 1 1 1 1 1 
1 1 1 1 1 1 1 1 1 
1 1 1 1 1 1 1 1 1 
1 1 1 1 1 1 1 1 1 
1 1 1 1 1 1 1 1 1 
1 1 1 1 1 1 1 1 1 
1 1 1 1 1 1 1 1 1 
1 1 1 1 1 1 1 1 1 
1 1 1 1 1 1 1 1 1 
1 1 1 1 1 1 1 1 1 
1 1 1 1 1 1 1 1 1 
1 1 1 1 1 1 1 1 1 
1 1 1 1 1 1 1 1 1 
1 1 1 1 1 1 1 1 1 
1 1 1 1 1 1 1 1 1 
1 1 1 1 1 1 1 1 1 
1 1 1 1 1 1 1 1 1 
1 1 1 1 1 1 1 1 1 
1 1 1 1 1 1 1 1 1 
1 1 1 1 1 1 1 1 1 
1 1 1 1 1 1 1 1 1 
1 1 1 1 1 1 1 1 1 
1 1 1 1 1 1 1 1 1 
1 1 1 1 1 1 1 1 1 
1 1 1 1 1 1 1 1 1 
1 1 1 1 1 1 1 1 1 
1 1 1 1 1 1 1 1 1 
1 1 1 1 1 1 1 1 1 
1 1 1 1 1 1 1 1 1 
1 1 1 1 1 1 1 1 1 
1 1 1 1 1 1 1 1 1 
1 1 1 1 1 1 1 1 1 
1 1 1 1 1 1 1 1 1 
1 1 1 1 1 1 1 1 1 
1 1 1 1 1 1 1 1 1 
1 1 1 1 1 1 1 1 1 
1 1 1 1 1 1 1 1 1 
1 1 1 1 1 1 1 1 1 
1 1 1 1 1 1 1 1 1 
1 1 1 1 1 1 1 1 1 
1 1 1 1 1 1 1 1 1 
1 1 1 1 1 1 1 1 1 
1 1 1 1 1 1 1 1 1 
1 1 1 1 1 1 1 1 1 
1 1 1 1 1 1 1 1 1 
1 1 1 1 1 1 1 1 1 
1 1 1 1 1 1 1 1 1 
1 1 1 1 1 1 1 1 1 
1 1 1 1 1 1 1 1 1 
1 1 1 1 1 1 1 1 1 
1 1 1 1 1 1 1 1 1 
1 1 1 1 1 1 1 1 1 
1 1 1 1 1 1 1 1 1 
1 1 1 1 1 1 1 1 1 
1 1 1 1 1 1 1 1 1 
1 1 1 1 1 1 1 1 1 
1 1 1 1 1 1 1 1 1 
1 1 1 1 1 1 1 1 1 
1 1 1 1 1 1 1 1 1 
1 1 1 1 1 1 1 1 1 
1 1 1 1 1 1 1 1 1 
1 1 1 1 1 1 1 1 1 
1 1 1 1 1 1 1 1 1 
1 1 1 1 1 1 1 1 1 
1 1 1 1 1 1 1 1 1 
1 1 1 1 1 1 1 1 1 
1 1 1 1 1 1 1 1 1 
1 1 1 1 1 1 1 1 1 
1 1 1 1 1 1 1 1 1 
1 1 1 1 1 1 1 1 1 
1 1 1 1 1 1 1 1 1 
1 1 1 1 1 1 1 1 1 
1 1 1 1 1 1 1 1 1 
1 1 1 1 1 1 1 1 1 
1 1 1 1 1 1 1 1 1 
1 1 1 1 1 1 1 1 1 
1 1 1 1 1 1 1 1 1 
1 1 1 1 1 1 1 1 1 
1 1 1 1 1 1 1 1 1 
1 1 1 1 1 1 1 1 1 
1 1 1 1 1 1 1 1 1 
1 1 1 1 1 1 1 1 1 
1 1 1 1 1 1 1 1 1 
1 1 1 1 1 1 1 1 1 
1 1 1 1 1 1 1 1 1 
1 1 1 1 1 1 1 1 1 
1 1 1 1 1 1 1 1 1 
1 1 1 1 1 1 1 1 1 
1 1 1 1 1 1 1 1 1 
1 1 1 1 1 1 1 1 1 
1 1 1 1 1 1 1 1 1 
1 1 1 1 1 1 1 1 1 
1 1 1 1 1 1 1 1 1 
1 1 1 1 1 1 1 1 1 
1 1 1 1 1 1 1 1 1 
1 1 1 1 1 1 1 1 1 
1 1 1 1 1 1 1 1 1 
1 1 1 1 1 1 1 1 1 
1 1 1 1 1 1 1 1 1 
1 1 1 1 1 1 1 1 1 
1 1 1 1 1 1 1 1 1 
1 1 1 1 1 1 1 1 1 
1 1 1 1 1 1 1 1 1 
1 1 1 1 1 1 1 1 1 
1 1 1 1 1 1 1 1 1 
1 1 1 1 1 1 1 1 1 
1 1 1 1 1 1 1 1 1 
1 1 1 1 1 1 1 1 1 
1 1 1 1 1 1 1 1 1 
1 1 1 1 1 1 1 1 1 
1 1 1 1 1 1 1 1 1 
1 1 1 1 1 1 1 1 1 
1 1 1 1 1 1 1 1 1 
1 1 1 1 1 1 1 1 1 
1 1 1 1 1 1 1 1 1 
1 1 1 1 1 1 1 1 1 
1 1 1 1 1 1 1 1 1 
1 1 1 1 1 1 1 1 1 
1 1 1 1 1 1 1 1 1 
1 1 1 1 1 1 1 1 1 
1 1 1 1 1 1 1 1 1 
1 1 1 1 1 1 1 1 1 
1 1 1 1 1 1 1 1 1 
1 1 1 1 1 1 1 1 1 
1 1 1 1 1 1 1 1 1 
1 1 1 1 1 1 1 1 1 
1 1 1 1 1 1 1 1 1 
1 1 1 1 1 1 1 1 1 
1 1 1 1 1 1 1 1 1 
1 1 1 1 1 1 1 1 1 
1 1 1 1 1 1 1 1 1 
1 1 1 1 1 1 1 1 1 
1 1 1 1 1 1 1 1 1 
1 1 1 1 1 1 1 1 1 
1 1 1 1 1 1 1 1 1 
1 1 1 1 1 1 1 1 1 
1 1 1 1 1 1 1 1 1 
1 1 1 1 1 1 1 1 1 
1 1 1 1 1 1 1 1 1 
1 1 1 1 1 1 1 1 1 
1 1 1 1 1 1 1 1 1 
1 1 1 1 1 1 1 1 1 
1 1 1 1 1 1 1 1 1 
1 1 1 1 1 1 1 1 1 
1 1 1 1 1 1 1 1 1 
1 1 1 1 1 1 1 1 1 
1 1 1 1 1 1 1 1 1 
1 1 1 1 1 1 1 1 1 
1 1 1 1 1 1 1 1 1 
1 1 1 1 1 1 1 1 1 
1 1 1 1 1 1 1 1 1 
1 1 1 1 1 1 1 1 1 
1 1 1 1 1 1 1 1 1 
1 1 1 1 1 1 1 1 1 
1 1 1 1 1 1 1 1 1 
1 1 1 1 1 1 1 1 1 
1 1 1 1 1 1 1 1 1 
1 1 1 1 1 1 1 1 1 
1 1 1 1 1 1 1 1 1 
1 1 1 1 1 1 1 1 1 
1 1 1 1 1 1 1 1 1 
1 1 1 1 1 1 1 1 1 
1 1 1 1 1 1 1 1 1 
1 1 1 1 1 1 1 1 1 
1 1 1 1 1 1 1 1 1 
1 1 1 1 1 1 1 1 1 
1 1 1 1 1 1 1 1 1 
1 1 1 1 1 1 1 1 1 
1 1 1 1 1 1 1 1 1 
1 1 1 1 1 1 1 1 1 
1 1 1 1 1 1 1 1 1 
1 1 1 1 1 1 1 1 1 
1 1 1 1 1 1 1 1 1 
1 1 1 1 1 1 1 1 1 
1 1 1 1 1 1 1 1 1 
1 1 1 1 1 1 1 1 1 
1 1 1 1 1 1 1 1 1 
1 1 1 1 1 1 1 1 1 
1 1 1 1 1 1 1 1 1 
1 1 1 1 1 1 1 1 1 
1 1 1 1 1 1 1 1 1 
1 1 1 1 1 1 1 1 1 
1 1 1 1 1 1 1 1 1 
1 1 1 1 1 1 1 1 1 
1 1 1 1 1 1 1 1 1 
1 1 1 1 1 1 1 1 1 
1 1 1 1 1 1 1 1 1 
1 1 1 1 1 1 1 1 1 
1 1 1 1 1 1 1 1 1 
1 1 1 1 1 1 1 1 1 
1 1 1 1 1 1 1 1 1 
1 1 1 1 1 1 1 1 1 
1 1 1 1 1 1 1 1 1 
1 1 1 1 1 1 1 1 1 
1 1 1 1 1 1 1 1 1 
1 1 1 1 1 1 1 1 1 
1 1 1 1 1 1 1 1 1 
1 1 1 1 1 1 1 1 1 
1 1 1 1 1 1 1 1 1 
1 1 1 1 1 1 1 1 1 
1 1 1 1 1 1 1 1 1 
1 1 1 1 1 1 1 1 1 
1 1 1 1 1 1 1 1 1 
1 1 1 1 1 1 1 1 1 
1 1 1 1 1 1 1 1 1 
1 1 1 1 1 1 1 1 1 
1 1 1 1 1 1 1 1 1 
1 1 1 1 1 1 1 1 1 
1 1 1 1 1 1 1 1 1 
1 1 1 1 1 1 1 1 1 
1 1 1 1 1 1 1 1 1 
1 1 1 1 1 1 1 1 
NORMALS Normals float
-0.735362 0.297294 -0.608982 -0.735726 0.304097 -0.605171 -0.735963 0.297597 -0.608107 
0.735975 -0.321515 0.595793 -0.730079 0.387275 -0.563029 -0.734581 0.341425 -0.586362 
0.735353 -0.333114 0.590162 0.258842 -0.486168 -0.834651 0.0025412 -0.991067 -0.133341 
-0.535953 -0.621251 -0.571666 0.51098 -0.844635 0.159662 -0.726116 0.418238 -0.54574 
-0.172418 0.85201 -0.494319 -0.587484 0.628369 0.509916 0.534638 0.80789 -0.247942 
-0.0144975 0.996842 0.0780788 -0.735318 0.331263 -0.591246 -0.731375 0.3856 -0.562497 
-0.736304 0.307416 -0.602786 0.73572 -0.327162 0.593027 0.735435 -0.331483 0.590977 
-0.73627 0.307184 -0.602947 -0.736339 0.308437 -0.602221 0.735011 -0.340004 0.586649 
-0.188845 -0.87763 0.440572 -0.734806 0.341418 -0.586083 -0.622129 -0.676816 -0.393542 
0.633854 0.517539 -0.574789 0.364201 -0.921522 0.134744 0.2672 0.500634 0.823389 
0.631365 0.650476 0.422207 -0.365697 0.92277 -0.121494 -0.54752 -0.397258 -0.736483 
0.404996 -0.914286 -0.0077217 -0.359385 -0.657231 -0.662487 0.730839 -0.391637 0.559013 
-0.725559 0.127141 -0.676313 0.736542 -0.301944 0.605257 -0.736535 0.296829 -0.60779 
0.735845 -0.324159 0.594519 -0.734692 0.340339 -0.586854 -0.7356 0.327313 -0.593093 
-0.610021 -0.530892 0.588241 -0.734873 0.336163 -0.58903 -0.735163 0.331909 -0.591076 
-0.731689 0.197558 -0.652381 -0.731689 0.197558 -0.652381 0.657297 -0.660514 0.36288 
-0.731689 0.197558 -0.652381 0.734657 -0.23062 0.638039 0.733214 -0.214046 0.645431 
0.736716 -0.252719 0.627203 0.732716 -0.207149 0.648241 0.722557 -0.4533 0.521948 
0.732543 -0.208865 0.647886 0.734474 -0.23162 0.637888 -0.662031 -0.137997 -0.736662 
0.73639 -0.292232 0.610188 0.74336 -0.315845 0.589625 0.74397 -0.371059 0.55572 
0.744129 -0.360813 0.562216 -0.729019 0.492552 -0.475314 -0.729019 0.492552 -0.475314 
-0.720159 0.53599 -0.440551 0.73357 -0.212435 0.645559 -0.641678 -0.140071 -0.754075 
-0.732929 0.210548 -0.646903 -0.731417 0.196376 -0.653043 0.730605 -0.188422 0.656288 
-0.728495 0.173539 -0.662706 0.736573 -0.27565 0.617639 0.736452 -0.292964 0.609762 
0.688276 0.00301205 0.725442 0.629054 0.155287 0.761694 0.622867 0.16839 0.763991 
0.702189 -0.0426708 0.710711 0.701376 -0.0394284 0.7117 0.695515 -0.019742 0.71824 
0.698037 -0.0282935 0.715503 0.692446 -0.00933623 0.721409 0.68367 0.0170264 0.729593 
-0.688607 -0.00263602 -0.72513 0.725741 -0.147288 0.672017 0.684898 0.0170527 0.72844 
0.715854 -0.100587 0.690967 -0.730905 0.189599 -0.655614 0.671584 0.0587206 0.738598 
-0.721145 0.126457 -0.681145 0.736576 -0.288796 0.611599 0.55929 0.289683 0.77671 
0.449749 0.453973 0.769178 0.529181 0.33912 0.777795 -0.626337 -0.160645 -0.762821 
0.549753 0.305756 0.777357 -0.668349 -0.0602325 -0.741405 0.74096 -0.229052 0.631279 
0.706859 -0.618941 0.342435 0.613921 0.187333 0.766816 0.688109 0.00417899 0.725595 
-0.695838 0.0203335 -0.717911 0.685803 0.0137207 0.727658 -0.694482 0.0162174 -0.719328 
-0.718099 0.112497 -0.686789 0.528142 0.34035 0.777964 -0.40877 -0.505733 -0.759698 
-0.584216 -0.245061 -0.773716 0.750196 -0.383412 0.538703 -0.332087 0.910904 0.244893 
0.589984 0.233921 0.772787 0.617151 0.18022 0.765928 -0.694121 0.014689 -0.719709 
-0.335013 -0.587154 -0.736896 -0.414702 -0.497526 -0.761899 0.00169343 0.835896 0.548886 
0.16844 0.733887 0.658056 0.55167 0.301977 0.777477 0.0675212 0.78917 0.610452 
0.202854 0.711513 0.672755 0.202854 0.711513 0.672755 0.214827 -0.880113 -0.42338 
-0.23055 -0.691651 -0.684446 0.0568766 -0.930677 -0.361393 -0.285402 0.651473 -0.702943 
0.202738 0.682628 -0.70208 0.285402 -0.651473 0.702943 -0.362519 -0.557411 -0.746908 
-0.0568766 0.930677 0.361393 0.0981969 -0.853747 -0.511346 0.293139 -0.885283 -0.361032 
-0.00786028 -0.817516 -0.575852 0.289726 -0.88497 -0.364537 0.147349 0.745336 0.650202 
0.796758 -0.484854 0.360684 0.33246 0.613773 0.716068 -0.295271 0.883362 0.363986 
-0.161775 0.869234 0.467184 -0.386016 0.877668 0.28406 -0.202738 -0.682628 0.70208 
0.114852 -0.858931 -0.499045 0.0476485 -0.837912 -0.543722 0.0268639 -0.830442 -0.556457 
0.153259 -0.867895 -0.472515 -0.137319 -0.752304 -0.644346 -0.341081 0.883218 0.321853 
0.253272 -0.883595 -0.393845 0.0446936 -0.837714 -0.544277 -0.21918 0.879211 0.423022 
-0.202735 0.877486 0.434646 -0.77754 0.551737 -0.301692 -0.111067 0.857138 0.50297 
-0.124628 0.859905 0.495007 -0.0998212 0.853299 0.511777 -0.142659 0.864673 0.481653 
-0.34517 -0.605387 -0.717192 0.188181 -0.875121 -0.445815 0.0130062 0.814309 0.580286 
-0.00545652 -0.818021 -0.575162 -0.124231 -0.87533 -0.467294 -0.122837 -0.967276 -0.222012 
-0.314765 -0.839375 -0.44314 0.218349 -0.975533 0.0256624 0.118806 0.948068 -0.295048 
-0.150846 0.864891 0.478757 -0.81723 0.400494 -0.414416 0.186206 -0.931342 0.312935 
-0.132212 -0.991112 0.0147132 0.462166 0.629907 0.624195 -0.199176 0.918703 0.341048 
-0.288129 -0.608648 -0.739276 -0.294796 -0.595427 -0.74737 -0.214787 -0.735805 -0.642229 
-0.362443 -0.437391 -0.822997 -0.0156859 -0.0291045 0.999453 0.299659 0.585266 0.753437 
-0.460081 -0.0480054 -0.886578 -0.388455 -0.355455 -0.85015 -0.338586 -0.495965 -0.799611 
-0.125233 0.988753 0.0817529 -0.386166 -0.365253 -0.847034 -0.217162 -0.733366 -0.644217 
-0.261494 -0.659276 -0.704965 -0.267011 -0.649424 -0.712006 -0.459635 -0.0693194 -0.885398 
-0.171006 -0.79722 -0.578962 0.312924 0.557637 0.768843 0 -0.992278 -0.124035 
0 -1 0 -0.242536 -0.970143 0 0.242536 -0.970143 0 
0 1 0 -0.274008 -0.636254 -0.72118 -0.274008 -0.636254 -0.72118 
-0.274008 -0.636254 -0.72118 -0.281077 -0.622716 -0.730219 0.141521 -0.988683 -0.0497759 
-0.270672 -0.642724 -0.716688 0.278665 0.627308 0.727207 0.298759 0.586196 0.753072 
-0.193887 -0.768558 -0.609693 0.41166 0.282255 0.866527 -0.429879 0.295683 -0.853098 
-0.0777382 0.994333 0.0725194 -0.374453 0.635537 -0.675187 -0.439615 0.095839 -0.893058 
-0.236032 -0.697374 -0.676726 -0.183215 -0.790271 -0.584726 -0.183215 -0.790271 -0.584726 
0 -0.992278 0.124035 0.306392 0.559396 0.770195 -0.39301 0.568488 -0.722748 
-0.205196 0.960267 -0.18916 -0.120149 0.992612 0.0168861 -0.215718 0.959181 -0.182859 
0.2644 0.652614 0.710062 0.228738 0.718559 0.656774 -0.269427 -0.645342 -0.714803 
-0.268107 -0.647866 -0.713014 -0.255191 -0.671923 -0.695268 -0.0440019 0.981307 0.187353 
-0.0493991 0.981824 0.183251 0.271865 0.640452 0.71827 -0.211793 -0.698316 -0.683738 
-0.292262 -0.450619 -0.84352 -0.304108 -0.408629 -0.860546 0.363488 0.13701 0.921469 
-0.353486 -0.200502 -0.913699 -0.36087 0.424253 -0.830532 0.197818 -0.946703 0.254209 
-0.386102 -0.0854438 -0.91849 0.377118 -0.692134 0.615412 -0.0513678 -0.936451 -0.347018 
0.17299 -0.977605 0.119846 -0.300202 0.769429 -0.563788 -0.20657 0.941454 -0.266445 
-0.0496667 0.990596 0.127484 0.346807 0.447598 0.824246 0.336433 0.470552 0.815717 
-0.164144 -0.814631 -0.556268 -0.260914 -0.661313 -0.70327 -0.0900814 0.995761 0.0185935 
0.198133 0.777299 0.597118 -0.323874 0.391946 -0.861095 -0.197297 -0.749903 -0.631442 
-0.0342931 -0.967192 -0.25172 -0.281447 0.712056 -0.643245 -0.304056 0.591468 -0.746804 
-0.27525 0.723596 -0.632966 -0.339702 0.270748 -0.900721 -0.320616 0.500628 -0.8041 
0.109538 -0.992658 0.0512924 -0.368529 0.192286 -0.909512 -0.21941 0.862623 -0.455786 
-0.303944 0.684349 -0.662785 0.31071 -0.717437 0.623493 0.166446 -0.975071 0.146739 
0.239399 -0.929197 0.281567 -0.221974 0.895469 -0.385828 -0.116878 0.991164 -0.0627218 
-0.290429 0.794265 -0.533661 0.160856 -0.975509 0.150028 0.339022 -0.764384 0.548436 
0.419762 -0.319154 0.849671 -0.171726 0.963361 -0.206023 0.046316 0.95106 0.305514 
0.0573596 0.964989 0.255941 0.239204 0.663262 0.70913 0.329267 -0.381548 0.863715 
0.0793153 0.948527 0.306602 -0.0210519 0.99895 0.0406811 -0.347729 0.29826 -0.88889 
-0.111379 -0.919723 -0.376437 -0.205287 0.882939 -0.422228 -0.205287 0.882939 -0.422228 
0.177525 -0.947098 0.267377 0.293287 -0.75662 0.584388 0.282476 -0.781346 0.556511 
-0.278901 0.785349 -0.552668 -0.233825 0.874637 -0.424659 0.169719 -0.968372 0.182895 
0.139232 -0.981243 0.133329 -0.239342 0.858573 -0.453395 -0.308579 0.71731 -0.624696 
0.0497252 0.945551 0.321653 -0.0304627 0.996563 0.0770386 0.342961 -0.0492168 0.93806 
0.308881 0.369089 0.876565 -0.0914875 0.985281 -0.144398 0.236166 -0.785119 0.572551 
0.184906 -0.934971 0.302721 -0.21941 0.862623 -0.455786 0.212416 -0.893277 0.396152 
0.254382 -0.829656 0.496952 0.337451 -0.565765 0.752354 0.344784 0.210804 0.914705 
-0.22103 0.883442 -0.413129 0.21104 0.657521 0.723276 0.0416371 0.968191 0.246722 
0.28618 0.385036 0.87741 0.275634 0.494862 0.824098 -0.0271413 0.994477 0.101386 
0.200239 0.845306 0.49534 0.27275 0.416717 0.867153 0.251239 -0.724884 0.641422 
0.314834 -0.347892 0.883092 0.302122 -0.564483 0.768167 -0.217309 0.874161 -0.434305 
0.110143 -0.982677 0.149047 -0.348854 0.602937 -0.717474 -0.184387 0.898633 -0.39807 
0.206528 -0.898365 0.387668 -0.210325 0.891124 -0.40207 -0.202467 0.90583 -0.372128 
0.322888 0.128584 0.937662 0.0552645 0.964631 0.257748 0.298835 -0.0160257 0.95417 
0.0918306 0.916121 0.390244 0.0224431 0.91007 0.413846 0.256632 0.680543 0.686296 