# vtk DataFile Version 4.2
vtk output
ASCII
DATASET POLYDATA
POINTS 2809 float
398.29 65.2452 123.143 398.278 65.2355 123.173 398.264 65.1883 123.219 
398.299 65.2596 123.126 398.137 64.9866 123.486 398.158 64.9737 123.495 
398.224 65.1693 123.31 398.304 65.271 123.12 398.277 65.2345 123.193 
398.292 65.2432 123.157 398.3 65.2642 123.136 397.561 64.0879 124.275 
397.591 64.066 124.286 397.583 64.1945 124.27 398.062 64.817 123.67 
397.995 64.5776 123.928 398.113 65.047 123.571 397.877 65.2358 124.052 
397.838 65.1189 124.082 397.847 65.226 124.087 397.902 65.1911 124.073 
398.074 64.9691 123.792 398.199 65.1112 123.419 397.919 65.2869 124.099 
398.273 65.217 123.215 397.902 65.3348 124.081 397.051 62.8465 125.181 
397.551 63.233 124.84 397.417 62.9339 125.021 397.533 62.9536 125.071 
397.263 63.539 124.735 397.766 64.2584 124.174 397.721 64.5833 124.13 
397.568 64.5797 124.308 397.984 64.4303 124.268 397.544 64.6559 124.354 
397.925 64.9749 123.977 397.566 64.8295 124.447 397.995 64.9268 124.101 
397.916 65.0726 124.308 397.796 65.168 124.277 397.926 65.3533 124.08 
397.93 65.3511 124.095 397.873 65.2966 124.143 397.911 65.3389 124.109 
396.665 62.0843 125.81 396.758 61.7442 126.024 397.115 62.1459 125.673 
397.41 62.6934 125.216 397.32 62.4287 125.439 396.746 62.56 125.524 
396.37 62.4512 125.891 396.853 63.3572 125.22 397.76 63.3797 125.078 
397.088 64.1609 125.096 397.338 64.5903 124.783 397.905 64.6652 124.86 
397.433 64.7068 124.712 397.913 64.9538 124.577 397.905 65.0212 124.508 
397.77 65.0308 124.513 397.872 65.2278 124.231 396.009 61.1403 126.675 
395.611 60.9472 127.002 396.697 61.2195 126.449 397.295 62.1609 125.753 
396.402 63.4374 126.102 397.81 64.1167 125.614 396.72 63.8178 125.805 
397.87 64.5369 125.167 397.893 64.645 125.032 397.873 64.6164 125.115 
397.323 64.4804 125.402 397.82 64.7505 124.954 397.871 64.6638 125.035 
395.72 60.1728 127.404 396.297 60.1535 127.302 395.303 61.4469 127.18 
397.701 62.7523 125.946 395.75 62.6557 126.793 397.763 63.445 126.237 
397.742 63.9329 126.075 397.805 64.522 125.273 397.644 64.2401 125.772 
395.038 59.8802 127.964 395.295 59.2271 128.22 396.597 60.0341 127.588 
396.726 59.9102 127.956 397.09 60.6194 127.456 397.323 61.3954 127.274 
394.849 61.1541 127.783 397.583 62.303 126.517 397.528 62.19 127.275 
395.197 62.1737 127.701 397.73 62.9983 126.628 397.71 62.8277 126.82 
395.495 62.5891 127.529 395.52 62.6693 127.894 397.12 63.9998 126.35 
394.331 59.5013 128.774 394.664 60.2746 128.145 394.046 60.0877 128.945 
394.174 60.9256 129.009 397.402 61.7706 127.898 397.462 61.9249 127.806 
397.426 62.2722 127.652 397.455 62.0272 127.746 397.651 62.6725 126.99 
395.052 62.1953 128.72 396.646 63.47 127.109 395.712 57.6873 129.555 
396.181 58.3281 129.207 397.032 60.4445 128.886 397.202 61.262 128.483 
392 63.0087 129.017 392 63.0087 129.017 392 63.0087 129.017 
392 63.0087 129.017 397.08 62.4237 128.246 392 63.0088 129.017 
395.039 62.1265 129.095 396.857 62.6898 128.106 395.517 62.5334 128.588 
394.55 56.779 130.438 395.062 56.7936 130.409 396.088 57.6343 130.016 
395.915 57.4068 130.073 393.005 58.1255 130.718 392.408 59.7858 131.447 
393.44 60.3014 130.057 393.315 60.4225 130.434 392 63.0087 129.017 
393.83 60.9509 130.324 394.993 61.9205 129.584 395.323 62.1475 129.382 
395.775 62.3843 129.025 394.48 55.4661 131.74 392.648 56.3661 131.877 
395.617 56.6875 130.887 392.292 58.8314 131.48 392.037 58.964 131.972 
392.895 60.054 130.95 396.537 60.6062 130.454 392.502 59.9521 131.749 
392.768 54.56 132.946 394.034 55.0291 132.183 394.872 55.3316 132.045 
395.605 55.6746 132.502 396.163 57.1975 131.245 391.668 56.9384 132.601 
391.331 57.5907 132.925 391.81 59.2781 132.711 391.988 59.6076 132.368 
392.009 59.6691 132.384 396.113 60.2642 131.338 395.917 60.7167 131.133 
394.968 60.9774 131.309 394.032 54.146 133.087 396.058 57.6785 133.199 
390.843 58.3005 134.204 395.78 58.6548 133.147 391.052 58.7664 134.004 
395.714 59.4782 132.488 392.114 59.6503 132.853 393.09 60.0526 133.028 
393.556 53.2806 134.051 393.83 52.6981 134.691 390.428 55.3725 134.622 
390.938 56.1846 133.698 389.98 55.9015 135.08 394.519 59.5022 133.757 
393.911 60.0544 133.17 394.19 59.9291 133.342 392.16 51.8883 135.74 
393.617 52.0843 135.331 389.574 56.3804 135.805 390.446 58.2207 135.711 
391.19 58.8278 135.236 394.399 51.9218 135.768 394.629 51.986 135.863 
395.666 54.7559 135.989 392.109 59.0906 135.514 392.734 49.9933 137.762 
393.818 50.3271 137.554 394.709 51.2604 137.006 394.123 51.0448 136.694 
390.161 58.0047 137.383 394.294 50.8917 137.044 394.861 51.0673 137.864 
395.19 51.7738 137.704 388.08 53.904 138.312 388.247 56.7831 139.16 
394.558 50.5187 138.332 395.185 52.4754 138.438 395.127 54.1309 138.156 
387.22 54.3256 139.321 387.632 56.0692 139.24 387.486 56.2565 139.759 
390.889 57.8069 138.924 389.188 57.3871 139.457 389.781 57.611 139.118 
388.826 48.1224 141.5 386.261 54.6238 140.67 392.423 57.0043 139.391 
388.567 57.0793 140.607 394.128 49.2081 140.337 393.908 54.1535 140.727 
384.086 55.0462 143.013 383.954 54.6766 142.979 385.989 55.2809 141.337 
383.9 55.2584 143.317 389.345 57.3104 140.447 392.086 47.1566 142.314 
393.53 48.6149 141.134 384.257 53.9441 142.634 382.313 54.8735 144.395 
382.301 55.1768 144.595 384.169 55.5438 143.466 389.091 56.7497 142.144 
390.992 56.734 141.031 389.069 57.0691 141.289 390.23 56.6384 141.807 
390.532 46.4846 142.949 392.177 46.8725 143.096 392.749 47.4452 142.542 
393.457 48.348 141.926 393.452 48.2716 142.618 393.746 48.9066 142.595 
394.062 49.8057 142.126 384.795 51.8275 142.769 383.84 52.9881 143.146 
381.459 54.2507 144.932 382.763 54.1405 143.897 383.124 55.6181 144.474 
384.212 55.9702 144.457 386.572 56.3125 143.568 389.503 57.174 141.113 
390.527 45.7426 144.096 392.854 47.4079 142.949 392.922 47.4119 143.375 
393.716 51.0427 143.367 381.795 52.6877 144.983 380.332 54.4239 145.695 
379.916 54.4819 145.985 380.656 54.049 145.468 380.818 55.0058 145.645 
387.802 56.1916 144.124 389.169 44.6393 145.449 390.1 45.2856 144.639 
393.573 49.13 143.993 393.493 49.3275 144.422 377.452 54.3388 147.504 
378.486 54.1343 146.813 377.911 53.8126 147.086 379.621 54.7267 146.314 
380.126 55.1089 146.23 380.743 55.3111 145.983 381.086 55.6148 146.209 
383.026 55.9658 145.566 384.312 56.112 145.733 390.529 44.9189 145.759 
392.47 46.7303 144.863 392.963 47.7109 145.058 376.435 53.8313 147.985 
376.465 53.3309 147.939 378.327 54.8984 147.343 382.667 56.041 146.811 
386.064 56.0221 146.014 385.793 56.078 146.103 385.82 42.7645 148.364 
386.634 43.327 147.556 384.553 44.8168 147.482 391.203 45.2353 146.157 
392.871 48.0475 145.721 392.985 48.8856 145.654 376.397 53.211 147.939 
376.379 53.1545 147.961 374.52 53.393 149.279 374.66 53.7202 149.202 
375.396 53.7028 148.652 375.993 53.1268 148.292 376.896 52.9215 147.865 
376.864 54.7847 148.271 384.778 55.9654 146.805 390.722 44.5781 147.43 
391.487 45.5188 147.318 391.934 50.4692 146.905 373.977 52.6941 149.776 
375.007 52.7609 149.088 375.305 54.3473 149.046 378.368 55.4697 148.068 
378.712 55.6289 148.151 381.104 55.9846 147.743 385.875 41.852 149.295 
374.843 51.7941 149.769 376.365 52.2809 148.551 373.215 53.5179 150.309 
374.345 54.1539 149.789 375.954 54.9988 149.394 380.897 55.98 148.332 
379.58 55.882 149.413 382.357 40.1956 151.817 386.575 40.6047 150.906 
383.385 41.5158 150.523 389.454 42.6216 149.443 389.779 42.79 150.086 
390.642 44.293 148.836 391.383 45.7812 148.518 391.221 46.3916 149.436 
371.546 52.5195 151.522 375.831 50.8492 149.999 371.582 52.6535 151.38 
371.629 52.7128 151.328 372.072 53.2094 151.38 372.82 53.5526 150.682 
372.497 53.4777 151.071 374.144 54.2991 150.198 373.784 54.2633 150.68 
377.799 55.7346 150.011 383.758 55.1014 149.915 381.819 40.8221 151.827 
390.328 43.7989 149.986 371.575 52.7096 151.451 371.369 52.4871 151.76 
375.376 55.1625 150.69 382.504 39.3838 152.47 388.279 41.0785 151.49 
388.614 41.2883 151.573 388.436 40.981 152.2 389.198 41.9603 151.293 
390.497 44.457 150.454 378.478 47.6251 151.073 387.133 51.7903 151.599 
371.308 52.5321 151.883 384.162 53.6847 151.957 373.441 54.3111 151.901 
374.444 54.8528 151.557 378.77 55.5446 151.694 379.836 37.0458 155.251 
385.675 38.7119 153.243 388.457 40.8592 152.646 388.408 40.7664 152.869 
379.566 46.5224 150.936 371.195 52.2225 152.68 371.177 51.6974 153.451 
371.195 52.4406 152.533 371.184 52.4223 152.362 371.323 52.4548 152.86 
371.254 52.5555 152.437 375.515 55.2625 152.423 387.213 39.519 153.861 
388.401 40.7735 153.091 388.169 40.5319 153.083 388.463 40.9507 153.286 
389.29 45.3885 153.243 371.958 49.2513 154.103 370.793 50.5194 154.896 
370.907 51.0625 154.552 371.19 52.5049 152.381 371.211 52.0708 153.967 
371.38 52.4112 153.914 371.695 52.7123 154.146 372.569 53.5842 154.013 
379.013 54.9167 153.248 374.995 54.9374 153.441 387.172 39.334 154.617 
387.448 39.7629 154.649 370.828 49.553 155.33 371.141 48.3604 155.709 
370.965 51.3515 154.952 371.16 51.8514 154.619 374.14 54.3841 154.841 
374.896 54.544 154.647 376.073 55.081 153.576 383.985 36.6904 156.286 
385.505 37.8324 155.276 386.442 38.5255 155.484 386.486 38.6456 155.915 
387.796 40.8293 155.161 370.444 49.1621 156.394 370.63 50.228 155.674 
370.961 51.1663 155.626 376.801 53.077 156.415 376.092 54.1792 155.275 
374.019 54.3434 155.165 373.888 54.2381 155.277 374.498 54.2632 155.234 
373.992 54.3151 155.292 383.952 36.5087 156.59 384.033 36.5902 156.612 
383.5 36.3826 156.683 386.618 38.9383 156.189 370.401 47.6185 157.188 
371.034 51.0162 156.275 373.366 53.4311 155.886 373.688 53.8704 155.547 
373.816 53.4804 156.076 374.163 53.9443 155.666 373.926 54.1617 155.462 
373.908 54.2626 155.394 374.068 54.2482 155.39 373.943 54.2893 155.367 
380.404 34.8967 158.017 383.871 36.4837 156.694 383.226 36.0711 157.562 
383.928 36.5419 157.042 384.923 37.3716 157.126 385.957 38.6286 157.163 
[...]
POINT_DATA 2809
SCALARS scalars float
LOOKUP_TABLE default
1 1 1 1 1 1 1 1 1 
1 1 1 1 1 1 1 1 1 
1 1 1 1 1 1 1 1 1 
1 1 1 1 1 1 1 1 1 
1 1 1 1 1 1 1 1 1 
1 1 1 1 1 1 1 1 1 
1 1 1 1 1 1 1 1 1 
1 1 1 1 1 1 1 1 1 
1 1 1 1 1 1 1 1 1 
1 1 1 1 1 1 1 1 1 
1 1 1 1 1 1 1 1 1 
1 1 1 1 1 1 1 1 1 
1 1 1 1 1 1 1 1 1 
1 1 1 1 1 1 1 1 1 
1 1 1 1 1 1 1 1 1 
1 1 1 1 1 1 1 1 1 
1 1 1 1 1 1 1 1 1 
1 1 1 1 1 1 1 1 1 
1 1 1 1 1 1 1 1 1 
1 1 1 1 1 1 1 1 1 
1 1 1 1 1 1 1 1 1 
1 1 1 1 1 1 1 1 1 
1 1 1 1 1 1 1 1 1 
1 1 1 1 1 1 1 1 1 
1 1 1 1 1 1 1 1 1 
1 1 1 1 1 1 1 1 1 
1 1 1 1 1 1 1 1 1 
1 1 1 1 1 1 1 1 1 
1 1 1 1 1 1 1 1 1 
1 1 1 1 1 1 1 1 1 
1 1 1 1 1 1 1 1 1 
1 1 1 1 1 1 1 1 1 
1 1 1 1 1 1 1 1 1 
1 1 1 1 1 1 1 1 1 
1 1 1 1 1 1 1 1 1 
1 1 1 1 1 1 1 1 1 
1 1 1 1 1 1 1 1 1 
1 1 1 1 1 1 1 1 1 
1 1 1 1 1 1 1 1 1 
1 1 1 1 1 1 1 1 1 
1 1 1 1 1 1 1 1 1 
1 1 1 1 1 1 1 1 1 
1 1 1 1 1 1 1 1 1 
1 1 1 1 1 1 1 1 1 
1 1 1 1 1 1 1 1 1 
1 1 1 1 1 1 1 1 1 
1 1 1 1 1 1 1 1 1 
1 1 1 1 1 1 1 1 1 
1 1 1 1 1 1 1 1 1 
1 1 1 1 1 1 1 1 1 
1 1 1 1 1 1 1 1 1 
1 1 1 1 1 1 1 1 1 
1 1 1 1 1 1 1 1 1 
1 1 1 1 1 1 1 1 1 
1 1 1 1 1 1 1 1 1 
1 1 1 1 1 1 1 1 1 
1 1 1 1 1 1 1 1 1 
1 1 1 1 1 1 1 1 1 
1 1 1 1 1 1 1 1 1 
1 1 1 1 1 1 1 1 1 
1 1 1 1 1 1 1 1 1 
1 1 1 1 1 1 1 1 1 
1 1 1 1 1 1 1 1 1 
1 1 1 1 1 1 1 1 1 
1 1 1 1 1 1 1 1 1 
1 1 1 1 1 1 1 1 1 
1 1 1 1 1 1 1 1 1 
1 1 1 1 1 1 1 1 1 
1 1 1 1 1 1 1 1 1 
1 1 1 1 1 1 1 1 1 
1 1 1 1 1 1 1 1 1 
1 1 1 1 1 1 1 1 1 
1 1 1 1 1 1 1 1 1 
1 1 1 1 1 1 1 1 1 
1 1 1 1 1 1 1 1 1 
1 1 1 1 1 1 1 1 1 
1 1 1 1 1 1 1 1 1 
1 1 1 1 1 1 1 1 1 
1 1 1 1 1 1 1 1 1 
1 1 1 1 1 1 1 1 1 
1 1 1 1 1 1 1 1 1 
1 1 1 1 1 1 1 1 1 
1 1 1 1 1 1 1 1 1 
1 1 1 1 1 1 1 1 1 
1 1 1 1 1 1 1 1 1 
1 1 1 1 1 1 1 1 1 
1 1 1 1 1 1 1 1 1 
1 1 1 1 1 1 1 1 1 
1 1 1 1 1 1 1 1 1 
1 1 1 1 1 1 1 1 1 
1 1 1 1 1 1 1 1 1 
1 1 1 1 1 1 1 1 1 
1 1 1 1 1 1 1 1 1 
1 1 1 1 1 1 1 1 1 
1 1 1 1 1 1 1 1 1 
1 1 1 1 1 1 1 1 1 
1 1 1 1 1 1 1 1 1 
1 1 1 1 1 1 1 1 1 
1 1 1 1 1 1 1 1 1 
1 1 1 1 1 1 1 1 1 
1 1 1 1 1 1 1 1 1 
1 1 1 1 1 1 1 1 1 
1 1 1 1 1 1 1 1 1 
1 1 1 1 1 1 1 1 1 
1 1 1 1 1 1 1 1 1 
1 1 1 1 1 1 1 1 1 
1 1 1 1 1 1 1 1 1 
1 1 1 1 1 1 1 1 1 
1 1 1 1 1 1 1 1 1 
1 1 1 1 1 1 1 1 1 
1 1 1 1 1 1 1 1 1 
1 1 1 1 1 1 1 1 1 
1 1 1 1 1 1 1 1 1 
1 1 1 1 1 1 1 1 1 
1 1 1 1 1 1 1 1 1 
1 1 1 1 1 1 1 1 1 
1 1 1 1 1 1 1 1 1 
1 1 1 1 1 1 1 1 1 
1 1 1 1 1 1 1 1 1 
1 1 1 1 1 1 1 1 1 
1 1 1 1 1 1 1 1 1 
1 1 1 1 1 1 1 1 1 
1 1 1 1 1 1 1 1 1 
1 1 1 1 1 1 1 1 1 
1 1 1 1 1 1 1 1 1 
1 1 1 1 1 1 1 1 1 
1 1 1 1 1 1 1 1 1 
1 1 1 1 1 1 1 1 1 
1 1 1 1 1 1 1 1 1 
1 1 1 1 1 1 1 1 1 
1 1 1 1 1 1 1 1 1 
1 1 1 1 1 1 1 1 1 
1 1 1 1 1 1 1 1 1 
1 1 1 1 1 1 1 1 1 
1 1 1 1 1 1 1 1 1 
1 1 1 1 1 1 1 1 1 
1 1 1 1 1 1 1 1 1 
1 1 1 1 1 1 1 1 1 
1 1 1 1 1 1 1 1 1 
1 1 1 1 1 1 1 1 1 
1 1 1 1 1 1 1 1 1 
1 1 1 1 1 1 1 1 1 
1 1 1 1 1 1 1 1 1 
1 1 1 1 1 1 1 1 1 
1 1 1 1 1 1 1 1 1 
1 1 1 1 1 1 1 1 1 
1 1 1 1 1 1 1 1 1 
1 1 1 1 1 1 1 1 1 
1 1 1 1 1 1 1 1 1 
1 1 1 1 1 1 1 1 1 
1 1 1 1 1 1 1 1 1 
1 1 1 1 1 1 1 1 1 
1 1 1 1 1 1 1 1 1 
1 1 1 1 1 1 1 1 1 
1 1 1 1 1 1 1 1 1 
1 1 1 1 1 1 1 1 1 
1 1 1 1 1 1 1 1 1 
1 1 1 1 1 1 1 1 1 
1 1 1 1 1 1 1 1 1 
1 1 1 1 1 1 1 1 1 
1 1 1 1 1 1 1 1 1 
1 1 1 1 1 1 1 1 1 
1 1 1 1 1 1 1 1 1 
1 1 1 1 1 1 1 1 1 
1 1 1 1 1 1 1 1 1 
1 1 1 1 1 1 1 1 1 
1 1 1 1 1 1 1 1 1 
1 1 1 1 1 1 1 1 1 
1 1 1 1 1 1 1 1 1 
1 1 1 1 1 1 1 1 1 
1 1 1 1 1 1 1 1 1 
1 1 1 1 1 1 1 1 1 
1 1 1 1 1 1 1 1 1 
1 1 1 1 1 1 1 1 1 
1 1 1 1 1 1 1 1 1 
1 1 1 1 1 1 1 1 1 
1 1 1 1 1 1 1 1 1 
1 1 1 1 1 1 1 1 1 
1 1 1 1 1 1 1 1 1 
1 1 1 1 1 1 1 1 1 
1 1 1 1 1 1 1 1 1 
1 1 1 1 1 1 1 1 1 
1 1 1 1 1 1 1 1 1 
1 1 1 1 1 1 1 1 1 
1 1 1 1 1 1 1 1 1 
1 1 1 1 1 1 1 1 1 
1 1 1 1 1 1 1 1 1 
1 1 1 1 1 1 1 1 1 
1 1 1 1 1 1 1 1 1 
1 1 1 1 1 1 1 1 1 
1 1 1 1 1 1 1 1 1 
1 1 1 1 1 1 1 1 1 
1 1 1 1 1 1 1 1 1 
1 1 1 1 1 1 1 1 1 
1 1 1 1 1 1 1 1 1 
1 1 1 1 1 1 1 1 1 
1 1 1 1 1 1 1 1 1 
1 1 1 1 1 1 1 1 1 
1 1 1 1 1 1 1 1 1 
1 1 1 1 1 1 1 1 1 
1 1 1 1 1 1 1 1 1 
1 1 1 1 1 1 1 1 1 
1 1 1 1 1 1 1 1 1 
1 1 1 1 1 1 1 1 1 
1 1 1 1 1 1 1 1 1 
1 1 1 1 1 1 1 1 1 
1 1 1 1 1 1 1 1 1 
1 1 1 1 1 1 1 1 1 
1 1 1 1 1 1 1 1 1 
1 1 1 1 1 1 1 1 1 
1 1 1 1 1 1 1 1 1 
1 1 1 1 1 1 1 1 1 
1 1 1 1 1 1 1 1 1 
1 1 1 1 1 1 1 1 1 
1 1 1 1 1 1 1 1 1 
1 1 1 1 1 1 1 1 1 
1 1 1 1 1 1 1 1 1 
1 1 1 1 1 1 1 1 1 
1 1 1 1 1 1 1 1 1 
1 1 1 1 1 1 1 1 1 
1 1 1 1 1 1 1 1 1 
1 1 1 1 1 1 1 1 1 
1 1 1 1 1 1 1 1 1 
1 1 1 1 1 1 1 1 1 
1 1 1 1 1 1 1 1 1 
1 1 1 1 1 1 1 1 1 
1 1 1 1 1 1 1 1 1 
1 1 1 1 1 1 1 1 1 
1 1 1 1 1 1 1 1 1 
1 1 1 1 1 1 1 1 1 
1 1 1 1 1 1 1 1 1 
1 1 1 1 1 1 1 1 1 
1 1 1 1 1 1 1 1 1 
1 1 1 1 1 1 1 1 1 
1 1 1 1 1 1 1 1 1 
1 1 1 1 1 1 1 1 1 
1 1 1 1 1 1 1 1 1 
1 1 1 1 1 1 1 1 1 
1 1 1 1 1 1 1 1 1 
1 1 1 1 1 1 1 1 1 
1 1 1 1 1 1 1 1 1 
1 1 1 1 1 1 1 1 1 
1 1 1 1 1 1 1 1 1 
1 1 1 1 1 1 1 1 1 
1 1 1 1 1 1 1 1 1 
1 1 1 1 1 1 1 1 1 
1 1 1 1 1 1 1 1 1 
1 1 1 1 1 1 1 1 1 
1 1 1 1 1 1 1 1 1 
1 1 1 1 1 1 1 1 1 
1 1 1 1 1 1 1 1 1 
1 1 1 1 1 1 1 1 1 
1 1 1 1 1 1 1 1 1 
1 1 1 1 1 1 1 1 1 
1 1 1 1 1 1 1 1 1 
1 1 1 1 1 1 1 1 1 
1 1 1 1 1 1 1 1 1 
1 1 1 1 1 1 1 1 1 
1 1 1 1 1 1 1 1 1 
1 1 1 1 1 1 1 1 1 
1 1 1 1 1 1 1 1 1 
1 1 1 1 1 1 1 1 1 
1 1 1 1 1 1 1 1 1 
1 1 1 1 1 1 1 1 1 
1 1 1 1 1 1 1 1 1 
1 1 1 1 1 1 1 1 1 
1 1 1 1 1 1 1 1 1 
1 1 1 1 1 1 1 1 1 
1 1 1 1 1 1 1 1 1 
1 1 1 1 1 1 1 1 1 
1 1 1 1 1 1 1 1 1 
1 1 1 1 1 1 1 1 1 
1 1 1 1 1 1 1 1 1 
1 1 1 1 1 1 1 1 1 
1 1 1 1 1 1 1 1 1 
1 1 1 1 1 1 1 1 1 
1 1 1 1 1 1 1 1 1 
1 1 1 1 1 1 1 1 1 
1 1 1 1 1 1 1 1 1 
1 1 1 1 1 1 1 1 1 
1 1 1 1 1 1 1 1 1 
1 1 1 1 1 1 1 1 1 
1 1 1 1 1 1 1 1 1 
1 1 1 1 1 1 1 1 1 
1 1 1 1 1 1 1 1 1 
1 1 1 1 1 1 1 1 1 
1 1 1 1 1 1 1 1 1 
1 1 1 1 1 1 1 1 1 
1 1 1 1 1 1 1 1 1 
1 1 1 1 1 1 1 1 1 
1 1 1 1 1 1 1 1 1 
1 1 1 1 1 1 1 1 1 
1 1 1 1 1 1 1 1 1 
1 1 1 1 1 1 1 1 1 
1 1 1 1 1 1 1 1 1 
1 1 1 1 1 1 1 1 1 
1 1 1 1 1 1 1 1 1 
1 1 1 1 1 1 1 1 1 
1 1 1 1 1 1 1 1 1 
1 1 1 1 1 1 1 1 1 
1 1 1 1 1 1 1 1 1 
1 1 1 1 1 1 1 1 1 
1 1 1 1 1 1 1 1 1 
1 1 1 1 1 1 1 1 1 
1 1 1 1 1 1 1 1 1 
1 1 1 1 1 1 1 1 1 
1 1 1 1 1 1 1 1 1 
1 1 1 1 1 1 1 1 1 
1 1 1 1 1 1 1 1 1 
1 1 1 1 1 1 1 1 1 
1 1 1 1 1 1 1 1 1 
1 1 1 1 1 1 1 1 1 
1 
NORMALS Normals float
-0.538177 -0.512474 -0.669131 -0.916974 0.288384 -0.275668 0.440416 -0.785732 -0.434348 
-0.92312 0.174832 -0.342465 -0.41925 -0.60265 -0.679001 0.316136 -0.779485 -0.540797 
-0.491028 0.842611 0.22113 -0.797304 0.603054 -0.0251315 -0.154998 0.900136 0.4071 
0.928179 -0.36928 0.0460068 0.810529 0.380598 0.445184 -0.496399 -0.149264 -0.855165 
-0.157696 -0.401844 -0.902028 -0.630033 -0.0144754 -0.776434 -0.250651 -0.631715 -0.73356 
0.483616 -0.734481 -0.476081 -0.29256 0.934223 0.20405 -0.221978 0.0640863 -0.972943 
-0.601743 0.0401055 -0.797682 -0.86213 0.323807 -0.38972 0.701235 0.00927017 -0.712869 
0.602634 0.710253 0.363832 0.631502 0.590641 0.502342 0.865658 -0.165136 -0.472617 
0.905665 0.135501 0.40176 -0.5022 0.537066 -0.677758 -0.424707 -0.418605 -0.802742 
0.309064 -0.557783 -0.770297 0.0308475 -0.610946 -0.791071 0.658527 -0.549889 -0.513774 
-0.650952 -0.211063 -0.729187 0.164841 -0.556743 -0.814165 -0.803607 0.0919715 -0.58801 
-0.739679 0.179287 -0.648638 0.966883 -0.254262 -0.022096 -0.721788 0.288675 -0.629038 
-0.765518 0.210314 -0.608071 -0.800106 0.499815 -0.331685 0.891168 0.432447 0.137147 
0.929546 0.332727 0.158862 -0.74264 0.648684 0.166414 0.66628 -0.269004 -0.695491 
0.700627 0.594053 0.395251 -0.621934 0.723772 0.298918 -0.426111 0.829511 0.361028 
-0.347288 -0.479603 -0.805836 -0.0234022 -0.62402 -0.781058 0.0343357 -0.667569 -0.743756 
0.378982 -0.657064 -0.651643 0.34253 -0.691931 -0.635535 -0.359092 -0.4695 -0.806612 
-0.680164 -0.175999 -0.711619 -0.816888 0.111419 -0.565932 0.78642 -0.506382 -0.353725 
-0.882711 0.280166 -0.377264 -0.904244 0.336997 -0.262252 0.929623 0.288089 0.229796 
-0.661885 0.746336 0.0699336 0.825762 0.419664 0.376828 0.428943 0.76255 0.484279 
-0.141054 0.87303 0.466821 0.0575458 0.749481 0.65952 -0.35641 -0.529732 -0.769647 
-0.478198 -0.44534 -0.756967 -0.108907 -0.644645 -0.756685 0.597107 -0.625382 -0.502355 
-0.826462 0.53182 -0.18474 0.952839 0.179797 0.24448 -0.839079 0.51599 -0.172339 
0.937826 0.155861 0.310145 0.889294 0.392779 0.234268 0.666663 0.569222 0.481192 
-0.639491 0.754592 0.147111 0.393715 0.772877 0.497644 0.521198 0.770112 0.367806 
-0.421093 -0.501926 -0.755481 0.0702145 -0.693309 -0.717211 -0.824153 0.0530451 -0.563878 
0.954329 -0.279195 -0.106328 -0.857889 0.283245 -0.428718 0.961976 0.114227 0.248102 
0.793683 0.426089 0.434183 0.405541 0.701242 0.586341 0.411349 0.719385 0.559712 
-0.501301 -0.453881 -0.736675 -0.462572 -0.506252 -0.727829 0.358376 -0.776207 -0.518719 
0.806929 -0.556292 -0.198503 0.778053 -0.533142 -0.332254 0.951378 -0.307067 0.0242943 
-0.765235 -0.0262434 -0.643216 0.892999 -0.420077 -0.161519 0.977367 -0.206585 0.0455575 
-0.838901 0.444461 -0.314166 0.958019 0.107476 0.265798 0.947885 0.091351 0.305237 
-0.838458 0.417592 -0.35015 -0.558836 0.820617 0.119541 -0.0691363 0.857636 0.509589 
-0.732919 -0.240008 -0.636574 -0.694013 -0.272158 -0.66654 -0.844095 -0.0486756 -0.53398 
-0.854441 0.445521 -0.267283 0.867247 0.0585226 0.494426 0.878878 0.132873 0.458168 
0.837841 0.320404 0.441999 0.707378 0.365837 0.604797 0.787443 0.330383 0.520367 
-0.783026 0.62125 0.0303284 -0.0692342 0.856409 0.511634 0.196164 -0.638377 -0.744308 
0.498608 -0.59424 -0.631085 0.968466 -0.0883253 0.232962 0.965877 -0.192826 0.172913 
0 -0.992278 -0.124035 0 -1 0 -0.184289 -0.982872 0 
0.184289 -0.982872 0 0.699664 0.430639 0.570105 0 1 0 
-0.539169 0.804718 0.248446 0.629564 0.55739 0.541263 -0.303037 0.920663 0.246064 
-0.200297 -0.633129 -0.747682 0.171413 -0.826806 -0.535733 0.722459 -0.571685 -0.388882 
0.564672 -0.691644 -0.450304 -0.719076 -0.309223 -0.622343 -0.804384 0.439995 -0.399212 
-0.865668 0.236747 -0.4411 -0.729468 0.648075 -0.218805 0 -0.992278 0.124035 
-0.55273 0.824296 0.122578 -0.658064 0.683835 0.315153 0.0783028 0.791865 0.605656 
0.0538999 0.855867 0.51438 0.0134655 -0.694892 -0.718988 -0.603877 -0.291803 -0.741744 
0.443158 -0.789097 -0.425367 -0.848124 -0.0141388 -0.529608 -0.897726 0.0139668 -0.440333 
-0.820934 0.302887 -0.484073 0.866223 0.206597 0.454945 -0.585391 0.806472 -0.0831832 
-0.357814 -0.598632 -0.716665 -0.0307885 -0.69941 -0.714057 0.408446 -0.7176 -0.564111 
0.811186 -0.493994 -0.312965 0.872775 -0.451029 -0.186643 -0.68063 -0.264641 -0.68316 
-0.818052 0.0387946 -0.573834 -0.881395 0.422717 -0.210839 -0.877268 0.332692 -0.346002 
-0.789611 0.609149 -0.0738322 0.705244 0.415078 0.574753 0.456999 0.635995 0.621821 
0.279258 0.753141 0.595646 0.106335 -0.752064 -0.650456 0.946884 0.150033 0.28443 
-0.907474 0.30289 -0.291116 0.750763 0.496257 0.435986 -0.83469 0.537291 -0.120872 
0.71407 0.467013 0.521539 -0.510625 0.848921 0.136368 -0.349824 0.916518 0.193954 
0.170603 -0.726406 -0.665754 0.174264 -0.696166 -0.696409 -0.842765 -0.180768 -0.507021 
-0.745294 -0.203203 -0.635016 -0.874319 -0.250994 -0.415413 0.397695 0.730551 0.555098 
-0.0375788 0.873194 0.485922 0.35231 0.727943 0.588197 -0.306737 -0.669629 -0.676395 
0.16101 -0.705108 -0.690579 -0.900289 0.0521366 -0.43216 -0.787021 0.614466 0.0550342 
-0.62801 0.772457 0.0944072 0.240147 -0.70673 -0.665479 0.546673 -0.603011 -0.58097 
0.989632 -0.119801 0.0792234 -0.148173 0.935624 0.320395 0.076136 -0.821581 -0.564985 
0.372092 -0.819367 -0.436104 0.698083 -0.604334 -0.384006 0.303665 -0.748376 -0.589678 
-0.618784 -0.758801 -0.203291 0.43724 -0.764595 -0.473515 0.747955 -0.625398 -0.222352 
0.95366 -0.297288 -0.0463862 -0.824924 0.101135 -0.556122 -0.660096 0.724726 -0.197598 
0.768431 -0.606126 -0.205243 0.968494 0.0311418 0.247083 0.895191 0.27465 0.351 
-0.842505 0.0129851 -0.538532 -0.837671 0.245156 -0.488064 -0.757581 0.560072 -0.335247 
0.0122579 0.940478 0.339633 -0.310877 0.946082 0.0910226 -0.303336 0.944264 0.127877 
-0.236578 -0.755829 -0.610536 -0.789204 0.121462 -0.602 0.497785 0.726144 0.474263 
-0.161038 0.959439 0.231396 0.772234 -0.628535 -0.0927236 0.805336 0.38799 0.448216 
-0.559319 0.407072 -0.722118 -0.646545 0.167926 -0.744164 -0.609995 0.59729 -0.520722 
-0.552177 0.575681 -0.603069 -0.0531496 0.975103 0.215289 0.400196 -0.830917 -0.38655 
0.843337 -0.537012 -0.0200161 -0.675762 0.0819804 -0.732546 -0.464408 0.389487 -0.795377 
-0.49437 0.498363 -0.712203 -0.467108 0.740223 -0.483612 -0.0258423 0.942864 0.332173 
0.462612 0.724678 0.510716 -0.0972221 0.926357 0.363882 0.33948 0.749119 0.568835 
0.0381988 -0.82916 -0.557705 0.462951 -0.828391 -0.315349 0.628602 -0.733292 -0.259119 
0.731576 -0.648994 -0.208814 0.865542 -0.500238 -0.0244772 0.95372 -0.277042 0.116901 
0.961698 -0.180275 0.206489 -0.678163 -0.274259 -0.681819 -0.65207 -0.198755 -0.731643 
-0.612872 0.125058 -0.780223 -0.571353 0.143367 -0.808085 -0.389722 0.838752 -0.380277 
-0.220474 0.948251 -0.228496 -0.230057 0.973082 0.0135906 0.0422042 0.949816 0.30995 
-0.0343339 -0.797294 -0.602614 0.63791 -0.742819 -0.203201 0.813329 -0.581549 -0.0172405 
0.941108 0.0900082 0.325905 -0.581382 -0.234454 -0.779119 -0.495197 0.315411 -0.809503 
-0.56117 0.107704 -0.820663 -0.557247 0.0053843 -0.830329 -0.472541 0.499574 -0.726038 
0.280011 0.851485 0.443359 -0.04133 -0.755516 -0.653825 0.135323 -0.779228 -0.611957 
0.952199 -0.239804 0.189237 0.951381 -0.0423151 0.305096 -0.611471 0.366351 -0.701349 
-0.445709 -0.00643606 -0.895155 -0.531421 -0.0107599 -0.847039 -0.56164 0.624022 -0.543284 
-0.551586 0.706641 -0.443184 -0.362097 0.718124 -0.594293 -0.359971 0.879251 -0.311992 
-0.25521 0.959948 -0.115619 -0.0968967 0.994677 -0.0350537 0.417941 -0.840724 -0.344249 
0.800784 -0.597678 0.03907 0.925474 -0.324775 0.194983 -0.477315 0.14503 -0.866681 
-0.386477 0.148349 -0.91029 -0.463924 0.559529 -0.686806 -0.168778 0.984877 -0.0391273 
0.209013 0.931182 0.298686 0.140691 0.982662 0.120756 -0.183446 -0.692275 -0.697928 
-0.32383 -0.606343 -0.72628 -0.489739 -0.499434 -0.714648 0.633715 -0.744726 -0.209256 
0.906182 -0.215283 0.363988 0.913969 -0.0419767 0.403607 -0.453237 0.0269896 -0.890981 
-0.4809 -0.337621 -0.809164 -0.619944 -0.0399365 -0.783629 -0.647954 0.284217 -0.706666 
-0.591572 0.110339 -0.798667 -0.659941 -0.110792 -0.743104 -0.39504 -0.370575 -0.840606 
-0.559241 0.475706 -0.678935 0.221933 0.916449 0.332967 0.643933 -0.762202 -0.0663172 
0.897913 -0.426986 0.106935 0.80723 0.247399 0.535886 -0.550852 -0.41713 -0.722887 
-0.495882 -0.363607 -0.788601 -0.527958 0.675059 -0.515321 -0.376368 0.803441 -0.461335 
-0.238996 0.925206 -0.294744 -0.0986435 0.994925 -0.0198185 -0.172856 -0.6818 -0.710823 
-0.502743 -0.506077 -0.70081 -0.460713 -0.50176 -0.732107 -0.648895 0.29409 -0.701745 
-0.629976 0.479339 -0.611036 -0.332524 0.919164 -0.211107 -0.0967246 0.995064 -0.0222042 
0.0717002 0.989412 0.126185 -0.435658 -0.544833 -0.71649 0.13805 -0.797015 -0.58797 
-0.437921 -0.515818 -0.736313 0.641879 -0.719179 -0.266031 0.825726 -0.558287 -0.0805774 
0.823304 -0.566814 0.0298644 0.934309 -0.321143 0.154706 0.943372 -0.0923661 0.31862 
-0.676051 -0.337696 -0.654917 -0.315516 -0.570506 -0.758269 -0.802822 -0.142429 -0.578956 
-0.665375 0.0894823 -0.741127 -0.696615 0.665104 -0.269005 -0.652902 0.62593 -0.426533 
-0.736653 0.458307 -0.49729 -0.524126 0.748146 -0.406901 -0.585071 0.710116 -0.391697 
-0.263279 0.964592 -0.0156859 0.231032 0.926198 0.297961 -0.524754 -0.433108 -0.732837 
0.88617 -0.445141 0.128655 -0.743165 0.657671 -0.123185 -0.862518 -0.247332 -0.441463 
-0.356993 0.910407 -0.20908 -0.215335 -0.681451 -0.699468 0.575328 -0.765616 -0.287802 
0.687702 -0.694283 -0.21222 0.698049 -0.690196 -0.190677 0.713154 -0.67958 -0.171993 
0.899973 -0.322617 0.293201 -0.505586 -0.582267 -0.636669 0.49848 0.605677 0.62022 
-0.92351 0.0335868 -0.382102 0.452391 0.67989 0.577141 -0.557426 0.830057 -0.0167846 
-0.468906 0.867606 -0.165489 -0.0257409 0.963778 0.26546 -0.278563 -0.631229 -0.723846 
0.403378 -0.830464 -0.384207 0.897569 -0.432246 -0.0867993 0.75695 -0.649291 -0.0738049 
-0.538972 -0.504772 -0.674325 -0.989411 -0.116768 -0.0862015 -0.979827 0.199834 -0.00209132 
-0.920637 0.327213 0.212978 -0.989297 -0.0901709 -0.114723 -0.784664 0.602494 0.145959 
-0.524935 0.829339 0.191414 -0.241897 0.968265 0.0628426 0.775917 -0.626156 -0.0766935 
0.793132 -0.588036 0.158606 0.663902 -0.746753 -0.0399301 0.887235 -0.441071 0.135165 
0.851409 -0.0106532 0.524394 -0.635279 -0.518813 -0.572061 -0.895262 -0.146407 -0.420797 
-0.983672 0.0855363 -0.158344 -0.861738 0.507161 -0.0139483 -0.922728 0.366365 0.119786 
-0.81193 0.547224 0.203261 -0.70518 0.640298 0.304532 -0.607882 0.781009 0.143191 
0.250291 0.805008 0.537882 -0.222735 0.944605 0.241062 0.783742 -0.620051 0.0358548 
0.891943 -0.443414 0.0884443 -0.889494 -0.207701 -0.407015 -0.667505 -0.424086 -0.612036 
-0.867521 0.445215 0.221792 -0.892126 0.427494 0.146153 -0.198874 0.965815 0.166286 
-0.0262525 0.885726 0.463466 0.0806863 0.923433 0.375182 0.296106 -0.839734 -0.455157 
0.609566 -0.792483 -0.0200213 0.715469 -0.697505 -0.0398937 0.701722 -0.688155 0.18447 
0.919346 -0.307682 0.245223 -0.978696 -0.0135553 -0.204868 -0.98715 0.121461 -0.103832 
-0.848313 0.499305 0.17624 0.205482 0.7305 0.651266 0.0770358 0.855848 0.511458 
-0.332514 0.940867 0.0648333 -0.651687 0.734 0.191175 0.229692 0.792696 0.56469 
-0.0417356 0.966651 0.252675 0.480227 -0.866396 -0.136892 0.599718 -0.796771 -0.0741158 
0.297887 -0.934353 -0.195569 0.856056 -0.457348 0.240835 -0.872235 -0.1198 -0.474188 
-0.908936 0.371588 0.189099 -0.389809 0.643121 0.659124 -0.290608 0.656888 0.695734 
-0.0183368 0.644424 0.764449 0.112639 0.576476 0.809313 -0.42817 0.497675 0.754314 
-0.701966 0.590543 0.398124 0.171558 0.749015 0.639956 -0.243678 0.933076 0.264555 
0.0693672 -0.887366 -0.455817 0.441656 -0.889341 0.11837 0.556758 -0.826112 -0.0869473 
0.51885 -0.853711 0.0444126 0.702891 -0.684858 0.19213 0.760624 -0.521744 0.386309 
0.853238 -0.236755 0.464685 -0.954443 -0.087395 -0.285309 -0.642205 -0.500048 -0.580968 
-0.524772 -0.579454 -0.623576 -0.885046 -0.09429 -0.455854 -0.97299 0.0242369 -0.229573 
-0.94163 0.334187 -0.0406429 -0.885024 0.43533 0.164985 -0.396265 0.756667 0.520028 
-0.0975583 0.69661 0.710786 -0.0880462 0.695165 0.713438 0.263643 -0.929666 -0.257319 
0.597624 -0.754593 -0.27099 0.778174 -0.572755 0.257674 0.775549 -0.309083 0.550447 
0.766407 -0.130891 0.628878 0.647978 0.185847 0.738638 -0.989617 0.121919 -0.0761138 
0.0568766 -0.930677 -0.361393 -0.285402 0.651473 -0.702943 0.202738 0.682628 -0.70208 
0.285402 -0.651473 0.702943 -0.0568766 0.930677 0.361393 -0.552618 0.705557 0.443624 
-0.160103 -0.665461 -0.72906 0.697171 -0.685023 -0.211415 0.84374 -0.536667 -0.00953821 
0.865748 -0.487697 0.112387 -0.908102 -0.112673 -0.403306 -0.963216 0.268679 -0.00518533 
-0.8577 0.45911 0.231447 -0.202738 -0.682628 0.70208 -0.561191 0.650266 0.512072 
-0.173907 0.631556 0.755575 -0.501976 0.535227 0.679376 -0.224686 0.597625 0.76965 
-0.105364 -0.665269 -0.739132 0.648558 -0.760648 -0.0280484 0.916562 -0.362763 0.168275 
0.878852 0.026115 0.476379 0.803482 -0.186359 0.565409 -0.964719 0.0844444 -0.249372 
-0.83134 -0.174902 -0.527526 -0.691971 0.593105 0.411585 -0.0814938 0.599275 0.796385 
-0.100235 0.755489 0.647449 0.348736 -0.921383 -0.171573 0.87732 -0.466277 0.113559 
0.955485 -0.160974 0.247256 -0.264434 0.581225 0.769579 -0.335102 0.747895 0.573027 
-0.391461 -0.603394 -0.694748 -0.401547 -0.537092 -0.741817 0.255407 -0.885164 -0.388911 
0.437029 -0.869462 -0.230307 0.513002 -0.845293 -0.149358 0.599535 -0.799879 0.027406 
0.70498 -0.691555 0.157338 0.773143 -0.540255 0.332228 0.870942 -0.124275 0.475411 