# vtk DataFile Version 4.2
vtk output
ASCII
DATASET POLYDATA
POINTS 2669 float
369.821 55.7317 158.217 369.774 55.7177 158.24 369.781 55.7145 158.245 
369.781 55.7126 158.238 369.788 55.7095 158.243 369.633 55.6639 158.309 
369.657 55.6777 158.312 369.698 55.655 158.299 369.672 55.65 158.33 
369.495 55.2584 158.573 359.75 55.8287 159.381 360.08 55.7276 159.386 
365.167 55.2536 159.082 369.484 55.3458 158.513 359.485 55.9482 159.444 
369.295 55.5739 158.446 369.179 55.5791 158.517 369.59 55.5371 158.417 
369.467 55.1783 158.622 369.472 55.1481 158.649 369.466 55.1661 158.66 
369.499 55.2429 158.619 358.342 55.7691 159.668 362.661 55.0002 159.377 
364.017 55.3118 159.222 369.083 55.4142 158.541 369.453 55.4377 158.471 
369.51 55.3512 158.559 354.151 56.2669 160.552 354.131 56.186 160.549 
353.962 56.2509 160.649 354.305 56.1992 160.512 355.463 56.2922 160.27 
362.672 55.7366 159.398 364.8 55.656 159.223 366.488 55.5408 159.039 
367.106 55.5363 159.004 367.811 55.475 158.858 368.702 55.4997 158.655 
354.268 56.3736 160.61 357.693 56.4254 159.928 360.46 56.3025 159.69 
363.981 55.8788 159.444 368.18 55.4978 158.926 368.868 55.5219 158.708 
361.306 54.4047 159.685 368.246 54.1691 159.576 369.258 55.0064 158.831 
369.377 55.1592 158.754 353.751 55.6916 160.813 356.833 54.9377 160.11 
353.404 56.0395 160.874 353.272 56.1875 160.973 368.891 55.3532 158.943 
369.361 55.3864 158.69 354.162 56.6354 160.821 357.212 56.6772 160.169 
359.636 56.5014 159.897 360.953 56.3838 159.852 363.508 56.0564 159.671 
366.262 55.64 159.515 367.074 55.509 159.455 367.356 52.8254 160.645 
368.259 53.73 160.135 356.625 53.8386 160.766 368.446 54.1979 159.765 
368.849 54.6418 159.299 368.783 54.7414 159.37 368.323 54.3973 159.893 
369.108 54.9102 159.037 353.419 55.8693 160.9 366.88 55.2556 160.01 
368.89 55.069 159.154 352.789 56.244 161.284 352.732 56.5853 161.405 
360.585 56.5168 160.086 365.092 55.8124 159.875 352.541 56.8888 161.718 
353.82 57.0929 161.433 355.36 57.1185 161.121 357.956 56.9619 160.695 
360.462 56.5706 160.476 363.329 56.199 160.1 357.018 57.082 160.665 
367.47 50.4582 162.683 367.448 50.4011 162.751 367.294 51.2957 161.981 
367.458 50.495 162.689 367.449 51.4803 162.093 367.417 52.1849 161.259 
367.569 51.94 161.687 367.597 52.1848 161.439 367.624 52.1351 161.561 
367.69 52.7666 161.069 368.166 53.6084 160.248 360.198 56.5904 160.9 
361.291 56.2542 161.243 363.007 56.1564 160.581 363.474 56.1287 160.471 
363.739 56.0854 160.418 352.097 57.1215 162.199 353.43 57.2373 161.833 
353.026 57.2751 162.128 353.877 57.2505 161.727 357.947 57.0202 160.913 
357.74 57.0176 161.068 358.593 56.8854 160.908 367.351 50.7395 162.506 
367.328 50.2596 162.919 367.436 50.3884 162.812 367.405 50.4944 162.808 
367.365 50.8779 162.702 356.394 52.8888 161.572 367.067 52.168 162.486 
367.427 52.5973 161.712 360.363 55.8696 162.246 350.778 55.6471 162.544 
359.978 56.2905 161.802 349.733 56.7779 163.201 357.29 56.9629 161.597 
363.595 56.1524 160.365 346 59.0087 162.017 346 59.0087 162.017 
346 59.0087 162.017 346 59.0087 162.017 349.351 57.0438 163.547 
355.766 57.138 162.088 356.079 57.0373 162.22 346 59.0088 162.017 
349.315 57.3344 163.849 366.182 48.9256 163.82 367.069 49.8508 163.268 
367.249 50.1768 163.254 360.276 50.692 162.562 367.142 51.2473 163.064 
367.079 51.7311 162.876 346.969 56.9712 164.674 346.351 57.8451 165.069 
346 59.0087 162.017 350.873 57.2761 163.033 347.972 57.6188 164.672 
352.395 57.2797 163.221 366.784 48.0764 165.083 366.745 50.9357 163.741 
346.368 57.2444 165.084 346.874 57.4808 164.856 344.905 58.6299 166.087 
346.699 58.0205 165.243 347.615 58.0805 165.516 365.603 46.9475 166.092 
366.653 47.7224 165.33 365.095 47.0003 166.099 361.531 48.0203 164.966 
366.877 48.3678 165.189 366.742 48.2729 165.557 366.884 48.7411 164.961 
366.939 49.3752 164.457 347.436 55.2245 164.976 348.859 57.6731 165.436 
347.012 58.4436 165.987 344.61 59.0142 166.508 366.201 46.0778 167.031 
365.723 46.4752 166.595 366.425 46.2852 167.044 365.312 46.5577 166.814 
364.556 46.8104 166.373 365.093 46.7843 166.637 366.693 47.6269 166.056 
366.688 47.9012 165.951 366.728 48.0617 165.814 366.714 48.0012 165.892 
366.646 48.0972 165.86 362.914 51.9633 165.094 346.308 58.7447 166.961 
343.024 59.5503 167.381 343.373 59.6043 167.259 343.941 59.4165 166.997 
344.62 59.332 166.858 366.241 45.4926 167.897 365.462 46.0503 167.029 
366.413 45.8621 167.566 366.45 46.0504 167.4 366.435 45.9053 167.604 
364.586 46.3799 166.89 365.041 46.4516 167.058 364.858 45.878 167.235 
366.617 47.0099 166.369 366.514 46.9597 166.658 366.403 46.1944 167.405 
365.102 46.8447 167.004 365.31 46.7493 166.924 365.257 46.6402 167.373 
365.48 46.6951 167.161 366.534 47.5177 166.315 365.467 46.9024 167.026 
346.912 53.0417 167.089 348.303 57.3557 167.211 341.922 59.2329 168.041 
345.256 59.3487 167.47 343.123 60.7334 168.378 343.711 60.4165 168.258 
364.483 44.6538 168.276 366.186 45.154 168.577 366.358 45.6364 167.91 
366.391 45.8399 167.767 366.224 46.1199 167.714 364.996 46.976 167.636 
365.157 46.5093 168.255 365.569 46.493 167.704 365.835 46.8705 167.146 
365.502 47.3853 166.907 365.021 47.4359 167.255 341.404 58.1149 168.689 
344.323 60.0158 168.291 365.725 43.7911 169.698 366.18 44.8301 168.967 
366.08 45.6894 168.32 339.44 60.1566 169.784 338.169 62.1226 170.585 
339.978 61.8341 169.802 341.165 61.4192 169.237 342.191 61.1847 168.901 
336.939 63.2301 171.386 337.151 63.2383 171.265 339.241 62.2782 170.262 
339.788 62.2223 170.137 341.903 61.4839 169.396 363.108 42.9141 170.521 
338.339 59.2879 171.164 338.395 59.1767 171.21 338.291 59.4357 171.174 
337.106 62.4022 171.317 337.488 63.2319 171.181 338.182 63.0789 170.957 
340.114 62.2627 170.247 341.334 61.7426 169.986 339.923 62.5791 170.836 
337.793 63.7871 171.623 364.976 41.8503 171.936 364.184 41.7975 171.931 
365.505 42.1133 172.053 364.738 45.0982 170.935 363.604 46.2897 170.338 
338.488 58.8622 171.414 342.762 60.2997 171.41 335.835 62.9174 172.25 
335.725 63.6748 172.215 335.675 64.118 172.284 335.833 64.3688 172.33 
338.746 63.3371 171.377 334.193 65.3178 173.356 335.073 64.3929 172.685 
336.575 64.4735 172.24 336.855 64.5639 172.372 334.274 65.3085 173.325 
365.15 41.4409 172.858 358.039 43.1389 172.653 365.791 43.0932 172.095 
334 63.0087 172.017 334 63.0087 172.017 334 63.0087 172.017 
335.381 62.7359 172.686 334 63.0087 172.017 334 63.0088 172.017 
333.967 64.9233 173.762 334.638 64.9598 173.143 337.212 64.4641 172.355 
337.555 64.3135 172.404 338.079 63.9998 172.506 336.243 65.1317 173.047 
334.528 66.008 173.704 365.328 41.3968 173.078 365.32 41.3088 173.273 
365.402 41.4096 173.236 365.529 41.5499 173.495 365.839 42.3689 172.765 
365.86 42.696 172.52 365.833 42.6566 172.789 335.617 61.2164 173.554 
335.049 61.9666 173.741 334 63.0087 172.017 338.666 63.5706 172.88 
334.007 66.4467 174.119 334.35 66.4096 174.035 334.878 66.3974 174.205 
335.294 66.1755 174.12 365.246 41.2344 173.558 365.332 41.1631 174.063 
365.453 41.2225 174.109 365.693 42.0491 173.444 365.491 41.4725 174.342 
365.497 41.3269 174.053 365.632 42.4101 173.451 365.849 42.3112 173.067 
364.451 43.2747 174.054 361.144 45.1418 174.249 331.96 67.3306 175.712 
332.93 67.0547 174.978 334.391 66.6086 174.299 335.689 65.9607 174.252 
331.838 67.6918 175.988 331.962 68.0309 176.043 332.613 67.8419 175.67 
365.289 41.0794 175.063 365.46 41.3049 174.783 365.468 41.3572 174.832 
365.052 42.4164 174.482 365.289 41.7513 174.899 365.867 42.3924 173.05 
331.703 67.3839 176.157 331.554 68.9144 176.697 331.847 68.7578 176.505 
365.104 40.8735 175.904 365.405 41.2799 174.984 364.632 42.0647 175.689 
338.571 55.9941 175.796 330.224 69.5755 178.06 330.467 69.5989 177.82 
330.411 69.8508 178.021 330.861 69.4323 177.488 331.138 69.5674 177.698 
331.295 69.3594 177.322 363.929 39.0824 178.335 368 38.0087 177.017 
368 38.0087 177.017 368 38.0087 177.017 368 38.0087 177.017 
362.341 39.5866 177.139 363.349 39.2688 177.748 364.312 39.6088 177.501 
368 38.0088 177.017 364.732 40.328 177.588 329.928 70.2369 178.529 
329.488 70.4935 179.004 330.284 70.1031 178.425 330.89 69.7649 178.226 
329.596 70.6007 178.884 364.391 39.3711 178.188 364.236 39.0029 178.783 
368 38.0087 177.017 364.751 40.0293 178.188 364.75 40.0426 178.305 
364.83 40.966 176.754 364.166 41.496 177.335 329.009 70.8349 179.567 
328.673 71.2985 179.919 329.193 70.883 179.509 328.639 71.4185 180.049 
328.374 71.6628 180.241 364.296 38.8687 179.007 364.298 38.8295 179.104 
364.319 38.8764 179.069 364.515 39.1095 179.186 364.39 38.9515 179.208 
364.484 38.9918 179.343 364.611 39.7604 179.041 329.008 70.2361 179.966 
328.546 70.9213 180.389 330.095 70.257 179.401 327.64 72.39 180.909 
328.014 72.0436 180.579 328.29 71.8122 180.483 327.501 72.693 181.156 
327.695 72.5289 180.932 364.246 38.8068 179.268 364.181 38.7135 179.809 
364.401 38.9444 179.941 368 38.0087 180.017 368 38.0087 180.017 
368 38.0087 180.017 368 38.0087 180.017 368 38.0088 180.017 
359.405 39.2354 180.2 364.445 39.897 179.715 363.766 40.8709 179.324 
329.526 67.878 180.174 328.888 70.3515 180.453 328.405 70.8986 180.775 
327.86 71.3609 181.049 329.05 70.6617 180.304 328.955 70.673 180.772 
328.637 71.1155 180.647 328.026 72.1705 180.986 327.028 73.1368 181.575 
327.26 73.054 181.604 326.526 73.7237 182.144 326.708 73.6139 181.925 
326.768 73.495 181.836 326.932 73.3934 181.777 326.789 73.5469 181.852 
363.81 38.0414 181.332 362.313 37.655 181.776 364.104 38.4563 180.841 
368 38.0087 180.017 364.433 39.1569 180.817 364.385 39.8208 180.079 
328.275 69.3268 181.619 328.54 70.4485 180.915 330.2 69.9797 181.563 
328.703 71.0592 181.049 329.089 70.8956 181.32 328.695 71.3246 181.406 
325.696 74.2215 182.925 363.718 37.3241 182.719 363.514 36.7398 183.539 
368 36.0087 182.017 368 36.0087 182.017 368 36.0087 182.017 
368 36.0087 182.017 368 36.0088 182.017 364.404 39.0595 181.337 
[...]
POINT_DATA 2669
SCALARS scalars float
LOOKUP_TABLE default
1 1 1 1 1 1 1 1 1 
1 1 1 1 1 1 1 1 1 
1 1 1 1 1 1 1 1 1 
1 1 1 1 1 1 1 1 1 
1 1 1 1 1 1 1 1 1 
1 1 1 1 1 1 1 1 1 
1 1 1 1 1 1 1 1 1 
1 1 1 1 1 1 1 1 1 
1 1 1 1 1 1 1 1 1 
1 1 1 1 1 1 1 1 1 
1 1 1 1 1 1 1 1 1 
1 1 1 1 1 1 1 1 1 
1 1 1 1 1 1 1 1 1 
1 1 1 1 1 1 1 1 1 
1 1 1 1 1 1 1 1 1 
1 1 1 1 1 1 1 1 1 
1 1 1 1 1 1 1 1 1 
1 1 1 1 1 1 1 1 1 
1 1 1 1 1 1 1 1 1 
1 1 1 1 1 1 1 1 1 
1 1 1 1 1 1 1 1 1 
1 1 1 1 1 1 1 1 1 
1 1 1 1 1 1 1 1 1 
1 1 1 1 1 1 1 1 1 
1 1 1 1 1 1 1 1 1 
1 1 1 1 1 1 1 1 1 
1 1 1 1 1 1 1 1 1 
1 1 1 1 1 1 1 1 1 
1 1 1 1 1 1 1 1 1 
1 1 1 1 1 1 1 1 1 
1 1 1 1 1 1 1 1 1 
1 1 1 1 1 1 1 1 1 
1 1 1 1 1 1 1 1 1 
1 1 1 1 1 1 1 1 1 
1 1 1 1 1 1 1 1 1 
1 1 1 1 1 1 1 1 1 
1 1 1 1 1 1 1 1 1 
1 1 1 1 1 1 1 1 1 
1 1 1 1 1 1 1 1 1 
1 1 1 1 1 1 1 1 1 
1 1 1 1 1 1 1 1 1 
1 1 1 1 1 1 1 1 1 
1 1 1 1 1 1 1 1 1 
1 1 1 1 1 1 1 1 1 
1 1 1 1 1 1 1 1 1 
1 1 1 1 1 1 1 1 1 
1 1 1 1 1 1 1 1 1 
1 1 1 1 1 1 1 1 1 
1 1 1 1 1 1 1 1 1 
1 1 1 1 1 1 1 1 1 
1 1 1 1 1 1 1 1 1 
1 1 1 1 1 1 1 1 1 
1 1 1 1 1 1 1 1 1 
1 1 1 1 1 1 1 1 1 
1 1 1 1 1 1 1 1 1 
1 1 1 1 1 1 1 1 1 
1 1 1 1 1 1 1 1 1 
1 1 1 1 1 1 1 1 1 
1 1 1 1 1 1 1 1 1 
1 1 1 1 1 1 1 1 1 
1 1 1 1 1 1 1 1 1 
1 1 1 1 1 1 1 1 1 
1 1 1 1 1 1 1 1 1 
1 1 1 1 1 1 1 1 1 
1 1 1 1 1 1 1 1 1 
1 1 1 1 1 1 1 1 1 
1 1 1 1 1 1 1 1 1 
1 1 1 1 1 1 1 1 1 
1 1 1 1 1 1 1 1 1 
1 1 1 1 1 1 1 1 1 
1 1 1 1 1 1 1 1 1 
1 1 1 1 1 1 1 1 1 
1 1 1 1 1 1 1 1 1 
1 1 1 1 1 1 1 1 1 
1 1 1 1 1 1 1 1 1 
1 1 1 1 1 1 1 1 1 
1 1 1 1 1 1 1 1 1 
1 1 1 1 1 1 1 1 1 
1 1 1 1 1 1 1 1 1 
1 1 1 1 1 1 1 1 1 
1 1 1 1 1 1 1 1 1 
1 1 1 1 1 1 1 1 1 
1 1 1 1 1 1 1 1 1 
1 1 1 1 1 1 1 1 1 
1 1 1 1 1 1 1 1 1 
1 1 1 1 1 1 1 1 1 
1 1 1 1 1 1 1 1 1 
1 1 1 1 1 1 1 1 1 
1 1 1 1 1 1 1 1 1 
1 1 1 1 1 1 1 1 1 
1 1 1 1 1 1 1 1 1 
1 1 1 1 1 1 1 1 1 
1 1 1 1 1 1 1 1 1 
1 1 1 1 1 1 1 1 1 
1 1 1 1 1 1 1 1 1 
1 1 1 1 1 1 1 1 1 
1 1 1 1 1 1 1 1 1 
1 1 1 1 1 1 1 1 1 
1 1 1 1 1 1 1 1 1 
1 1 1 1 1 1 1 1 1 
1 1 1 1 1 1 1 1 1 
1 1 1 1 1 1 1 1 1 
1 1 1 1 1 1 1 1 1 
1 1 1 1 1 1 1 1 1 
1 1 1 1 1 1 1 1 1 
1 1 1 1 1 1 1 1 1 
1 1 1 1 1 1 1 1 1 
1 1 1 1 1 1 1 1 1 
1 1 1 1 1 1 1 1 1 
1 1 1 1 1 1 1 1 1 
1 1 1 1 1 1 1 1 1 
1 1 1 1 1 1 1 1 1 
1 1 1 1 1 1 1 1 1 
1 1 1 1 1 1 1 1 1 
1 1 1 1 1 1 1 1 1 
1 1 1 1 1 1 1 1 1 
1 1 1 1 1 1 1 1 1 
1 1 1 1 1 1 1 1 1 
1 1 1 1 1 1 1 1 1 
1 1 1 1 1 1 1 1 1 
1 1 1 1 1 1 1 1 1 
1 1 1 1 1 1 1 1 1 
1 1 1 1 1 1 1 1 1 
1 1 1 1 1 1 1 1 1 
1 1 1 1 1 1 1 1 1 
1 1 1 1 1 1 1 1 1 
1 1 1 1 1 1 1 1 1 
1 1 1 1 1 1 1 1 1 
1 1 1 1 1 1 1 1 1 
1 1 1 1 1 1 1 1 1 
1 1 1 1 1 1 1 1 1 
1 1 1 1 1 1 1 1 1 
1 1 1 1 1 1 1 1 1 
1 1 1 1 1 1 1 1 1 
1 1 1 1 1 1 1 1 1 
1 1 1 1 1 1 1 1 1 
1 1 1 1 1 1 1 1 1 
1 1 1 1 1 1 1 1 1 
1 1 1 1 1 1 1 1 1 
1 1 1 1 1 1 1 1 1 
1 1 1 1 1 1 1 1 1 
1 1 1 1 1 1 1 1 1 
1 1 1 1 1 1 1 1 1 
1 1 1 1 1 1 1 1 1 
1 1 1 1 1 1 1 1 1 
1 1 1 1 1 1 1 1 1 
1 1 1 1 1 1 1 1 1 
1 1 1 1 1 1 1 1 1 
1 1 1 1 1 1 1 1 1 
1 1 1 1 1 1 1 1 1 
1 1 1 1 1 1 1 1 1 
1 1 1 1 1 1 1 1 1 
1 1 1 1 1 1 1 1 1 
1 1 1 1 1 1 1 1 1 
1 1 1 1 1 1 1 1 1 
1 1 1 1 1 1 1 1 1 
1 1 1 1 1 1 1 1 1 
1 1 1 1 1 1 1 1 1 
1 1 1 1 1 1 1 1 1 
1 1 1 1 1 1 1 1 1 
1 1 1 1 1 1 1 1 1 
1 1 1 1 1 1 1 1 1 
1 1 1 1 1 1 1 1 1 
1 1 1 1 1 1 1 1 1 
1 1 1 1 1 1 1 1 1 
1 1 1 1 1 1 1 1 1 
1 1 1 1 1 1 1 1 1 
1 1 1 1 1 1 1 1 1 
1 1 1 1 1 1 1 1 1 
1 1 1 1 1 1 1 1 1 
1 1 1 1 1 1 1 1 1 
1 1 1 1 1 1 1 1 1 
1 1 1 1 1 1 1 1 1 
1 1 1 1 1 1 1 1 1 
1 1 1 1 1 1 1 1 1 
1 1 1 1 1 1 1 1 1 
1 1 1 1 1 1 1 1 1 
1 1 1 1 1 1 1 1 1 
1 1 1 1 1 1 1 1 1 
1 1 1 1 1 1 1 1 1 
1 1 1 1 1 1 1 1 1 
1 1 1 1 1 1 1 1 1 
1 1 1 1 1 1 1 1 1 
1 1 1 1 1 1 1 1 1 
1 1 1 1 1 1 1 1 1 
1 1 1 1 1 1 1 1 1 
1 1 1 1 1 1 1 1 1 
1 1 1 1 1 1 1 1 1 
1 1 1 1 1 1 1 1 1 
1 1 1 1 1 1 1 1 1 
1 1 1 1 1 1 1 1 1 
1 1 1 1 1 1 1 1 1 
1 1 1 1 1 1 1 1 1 
1 1 1 1 1 1 1 1 1 
1 1 1 1 1 1 1 1 1 
1 1 1 1 1 1 1 1 1 
1 1 1 1 1 1 1 1 1 
1 1 1 1 1 1 1 1 1 
1 1 1 1 1 1 1 1 1 
1 1 1 1 1 1 1 1 1 
1 1 1 1 1 1 1 1 1 
1 1 1 1 1 1 1 1 1 
1 1 1 1 1 1 1 1 1 
1 1 1 1 1 1 1 1 1 
1 1 1 1 1 1 1 1 1 
1 1 1 1 1 1 1 1 1 
1 1 1 1 1 1 1 1 1 
1 1 1 1 1 1 1 1 1 
1 1 1 1 1 1 1 1 1 
1 1 1 1 1 1 1 1 1 
1 1 1 1 1 1 1 1 1 
1 1 1 1 1 1 1 1 1 
1 1 1 1 1 1 1 1 1 
1 1 1 1 1 1 1 1 1 
1 1 1 1 1 1 1 1 1 
1 1 1 1 1 1 1 1 1 
1 1 1 1 1 1 1 1 1 
1 1 1 1 1 1 1 1 1 
1 1 1 1 1 1 1 1 1 
1 1 1 1 1 1 1 1 1 
1 1 1 1 1 1 1 1 1 
1 1 1 1 1 1 1 1 1 
1 1 1 1 1 1 1 1 1 
1 1 1 1 1 1 1 1 1 
1 1 1 1 1 1 1 1 1 
1 1 1 1 1 1 1 1 1 
1 1 1 1 1 1 1 1 1 
1 1 1 1 1 1 1 1 1 
1 1 1 1 1 1 1 1 1 
1 1 1 1 1 1 1 1 1 
1 1 1 1 1 1 1 1 1 
1 1 1 1 1 1 1 1 1 
1 1 1 1 1 1 1 1 1 
1 1 1 1 1 1 1 1 1 
1 1 1 1 1 1 1 1 1 
1 1 1 1 1 1 1 1 1 
1 1 1 1 1 1 1 1 1 
1 1 1 1 1 1 1 1 1 
1 1 1 1 1 1 1 1 1 
1 1 1 1 1 1 1 1 1 
1 1 1 1 1 1 1 1 1 
1 1 1 1 1 1 1 1 1 
1 1 1 1 1 1 1 1 1 
1 1 1 1 1 1 1 1 1 
1 1 1 1 1 1 1 1 1 
1 1 1 1 1 1 1 1 1 
1 1 1 1 1 1 1 1 1 
1 1 1 1 1 1 1 1 1 
1 1 1 1 1 1 1 1 1 
1 1 1 1 1 1 1 1 1 
1 1 1 1 1 1 1 1 1 
1 1 1 1 1 1 1 1 1 
1 1 1 1 1 1 1 1 1 
1 1 1 1 1 1 1 1 1 
1 1 1 1 1 1 1 1 1 
1 1 1 1 1 1 1 1 1 
1 1 1 1 1 1 1 1 1 
1 1 1 1 1 1 1 1 1 
1 1 1 1 1 1 1 1 1 
1 1 1 1 1 1 1 1 1 
1 1 1 1 1 1 1 1 1 
1 1 1 1 1 1 1 1 1 
1 1 1 1 1 1 1 1 1 
1 1 1 1 1 1 1 1 1 
1 1 1 1 1 1 1 1 1 
1 1 1 1 1 1 1 1 1 
1 1 1 1 1 1 1 1 1 
1 1 1 1 1 1 1 1 1 
1 1 1 1 1 1 1 1 1 
1 1 1 1 1 1 1 1 1 
1 1 1 1 1 1 1 1 1 
1 1 1 1 1 1 1 1 1 
1 1 1 1 1 1 1 1 1 
1 1 1 1 1 1 1 1 1 
1 1 1 1 1 1 1 1 1 
1 1 1 1 1 1 1 1 1 
1 1 1 1 1 1 1 1 1 
1 1 1 1 1 1 1 1 1 
1 1 1 1 1 1 1 1 1 
1 1 1 1 1 1 1 1 1 
1 1 1 1 1 1 1 1 1 
1 1 1 1 1 1 1 1 1 
1 1 1 1 1 1 1 1 1 
1 1 1 1 1 1 1 1 1 
1 1 1 1 1 1 1 1 1 
1 1 1 1 1 1 1 1 1 
1 1 1 1 1 1 1 1 1 
1 1 1 1 1 1 1 1 1 
1 1 1 1 1 1 1 1 1 
1 1 1 1 1 1 1 1 1 
1 1 1 1 1 1 1 1 1 
1 1 1 1 1 1 1 1 1 
1 1 1 1 1 1 1 1 1 
1 1 1 1 1 1 1 1 1 
1 1 1 1 1 1 1 1 1 
1 1 1 1 1 1 1 1 1 
1 1 1 1 1 
NORMALS Normals float
0.2446 0.631654 0.735652 -0.441869 0.806913 -0.391974 0.243215 0.633534 0.734494 
-0.171682 -0.544432 -0.821048 0.68791 -0.631503 0.357747 -0.440191 0.0914763 -0.893232 
-0.130461 0.975618 0.176492 0.203729 -0.751566 -0.627409 0.617817 0.151402 0.771608 
0.439187 -0.555734 -0.705886 -0.0370292 0.16141 -0.986192 -0.0513267 -0.0331427 -0.998132 
-0.121744 0.22919 -0.965738 -0.646865 -0.486034 -0.587654 -0.0256848 0.463112 -0.885928 
-0.385786 0.261087 -0.884874 -0.299253 0.884462 -0.358014 0.872301 -0.428604 0.235349 
0.65059 -0.472191 -0.594784 0.786797 -0.602679 -0.133148 0.921027 -0.188511 0.340841 
0.946416 -0.0821295 0.312332 -0.100397 -0.288154 -0.952307 -0.0124442 -0.193507 -0.98102 
-0.0849098 -0.0249543 -0.996076 -0.190269 -0.282088 -0.940332 0.115426 -0.591157 -0.798254 
0.997943 -0.0264654 0.0583891 -0.278539 0.385854 -0.879507 -0.352206 -0.041747 -0.934991 
-0.427973 0.215021 -0.877841 -0.166931 0.0632034 -0.983941 -0.208979 0.264644 -0.94143 
-0.0325701 0.44246 -0.896197 -0.053536 0.519945 -0.852521 -0.00864829 0.708073 -0.706086 
0.00694052 0.899488 -0.436891 -0.0693766 0.903834 -0.422222 -0.189342 0.855587 -0.481789 
-0.237219 0.59417 -0.768563 -0.0798405 0.549745 -0.831508 0.0205499 0.552302 -0.833391 
-0.0240909 0.616707 -0.786824 0.073209 0.985668 0.151986 -0.0139008 0.962779 0.269931 
-0.118435 -0.491828 -0.8626 0.355066 -0.755215 -0.550979 0.72422 -0.668898 0.167576 
0.718603 0.0403903 0.694247 -0.37758 -0.403277 -0.833547 -0.190898 -0.31277 -0.930447 
-0.500653 -0.0455065 -0.864451 -0.449537 0.338675 -0.826569 0.229404 0.700909 0.675352 
0.490224 0.46321 0.73832 -0.182713 0.685459 -0.704814 -0.0832943 0.688091 -0.720828 
0.0601214 0.902768 -0.425906 0.118483 0.87491 -0.469568 0.110893 0.920389 -0.374948 
0.150877 0.983421 0.100592 0.227102 0.893897 0.386487 0.360463 -0.702015 -0.6142 
0.512765 -0.708349 -0.485093 -0.0874007 -0.566384 -0.819494 0.889466 -0.167909 0.425036 
0.813952 -0.489237 0.313257 0.572822 0.240909 0.783478 0.567345 0.436662 0.698173 
0.73802 -0.010281 0.6747 -0.548213 -0.3382 -0.764907 0.357405 0.721929 0.59252 
0.364963 0.447998 0.81615 -0.617171 -0.164905 -0.769354 -0.455897 0.366396 -0.811118 
0.136932 0.971112 -0.195428 0.281787 0.815337 0.505788 -0.290971 0.670693 -0.68228 
-0.164558 0.809051 -0.564231 0.0313883 0.954828 -0.295497 0.0862477 0.97372 -0.210784 
0.155437 0.987253 -0.0342273 0.13169 0.991158 0.0162142 -0.0143808 0.910554 -0.41314 
0.94801 0.271286 0.166374 0.914264 -0.405015 0.00918297 0.395315 -0.616387 -0.681023 
0.920347 0.291693 0.260533 0.99363 -0.0907935 0.0667526 0.190605 -0.631703 -0.751413 
0.79242 -0.495771 -0.355361 0.716587 -0.507662 -0.478312 0.9867 -0.158383 0.0365872 
0.878597 -0.406243 -0.251065 0.907363 -0.374796 0.190319 0.242268 0.929338 0.278634 
0.289183 0.780336 0.55448 0.167291 0.912414 0.373516 0.148201 0.868849 0.472376 
0.29469 0.656605 0.694282 -0.334216 0.704444 -0.626146 -0.113099 0.952037 -0.284315 
-0.149952 0.920714 -0.360279 0.00205059 0.959769 -0.280784 0.0653714 0.994664 -0.0798101 
0.0696267 0.995225 0.0684004 0.184678 0.98012 0.0725157 0.821444 -0.280475 -0.496552 
0.438728 -0.794797 -0.419304 0.954499 -0.156324 0.253959 0.90051 0.291568 0.322599 
0.949047 0.117085 0.292577 -0.215997 -0.66214 -0.717577 0.518972 0.559861 0.645929 
0.8266 0.195731 0.527657 0.236487 0.775211 0.585766 -0.543634 -0.349907 -0.762907 
0.24876 0.875357 0.414571 -0.494636 0.339102 -0.800216 0.159711 0.898803 0.408223 
0.212009 0.968242 0.132511 0 -0.992278 -0.124035 0 -1 0 
-0.184289 -0.982872 0 0.184289 -0.982872 0 -0.459234 0.281428 -0.842557 
0.0888313 0.93074 0.354729 0.114523 0.923702 0.365595 0 1 0 
-0.293325 0.655739 -0.695677 0.172661 -0.656314 -0.734465 0.153076 -0.681025 -0.716081 
0.966021 -0.161393 0.201878 -0.0523891 -0.623795 -0.77983 0.867537 0.205954 0.452727 
0.753252 0.404568 0.518591 -0.503071 -0.0270694 -0.863821 -0.218206 0.559791 -0.799388 
0 -0.992278 0.124035 -0.134284 0.923508 -0.359307 -0.107731 0.791847 -0.601143 
0.137925 0.978774 0.151582 0.864509 -0.404336 -0.298558 0.642459 0.418085 0.642223 
-0.586345 -0.105042 -0.803222 -0.285442 0.406985 -0.86769 -0.535172 0.153292 -0.830718 
-0.0367122 0.780281 -0.62435 0.287196 0.934583 -0.209936 -0.1141 -0.747838 -0.654003 
0.280066 -0.661417 -0.695766 -0.247558 -0.715705 -0.653055 -0.148068 -0.71631 -0.681892 
0.992563 -0.00891658 0.121406 0.935532 0.181746 0.3029 0.880667 0.284678 0.37866 
0.947725 0.117253 0.296763 -0.605723 -0.320154 -0.728424 0.188378 0.981678 -0.0286712 
0.256844 0.936415 -0.239076 -0.232434 0.59403 -0.770131 0.207931 -0.743002 -0.636171 
-0.228295 -0.679935 -0.696829 0.887083 -0.393497 -0.241338 -0.796539 -0.344506 -0.496832 
0.03143 -0.802575 -0.595722 -0.392183 -0.918811 0.0444861 0.904579 0.160076 0.395111 
0.979768 -0.100782 0.172912 0.962799 0.142546 0.229563 0.76863 0.313515 0.557598 
0.543383 0.586815 0.60032 0.349678 0.644736 0.679736 0.453664 0.89077 -0.0267919 
-0.361206 0.064514 -0.930252 -0.311772 0.0370691 -0.949433 -0.24629 0.489132 -0.836714 
0.16315 0.835948 -0.523998 0.401053 -0.749209 -0.527108 -0.158917 -0.631934 -0.758554 
0.799791 -0.517448 -0.304273 0.997639 -0.0589175 -0.0352883 0.989256 -0.00163854 0.146182 
0.241252 -0.559408 -0.793007 0.138313 0.0245931 -0.990083 -0.111868 -0.528633 -0.841447 
0.976053 -0.2164 0.0221594 0.904135 0.171304 0.391401 0.895041 0.30534 0.325069 
0.771836 -0.587331 0.243538 -0.636645 -0.433247 0.637951 0.394637 0.918435 -0.0271834 
-0.515298 0.682341 0.518535 0.671243 0.285004 0.684255 -0.292108 0.17692 0.939879 
-0.553377 -0.593246 -0.584665 0.479852 0.828798 0.287813 -0.493082 -0.124561 -0.861019 
0.521406 0.853043 -0.0212929 0.196385 0.854904 -0.480179 0.489067 0.867676 -0.089177 
-0.000721973 -0.730646 -0.682756 0.983332 -0.177221 0.0406344 0.946759 -0.32181 -0.00924779 
0.844367 0.318402 0.430888 0.598921 0.579401 0.552801 0.762752 0.543885 0.349855 
0.54088 0.749297 0.382104 0.17002 0.903308 0.393862 0.0106632 0.640373 0.76799 
0.233951 0.0764382 0.969239 0.572146 0.335521 0.748381 -0.588827 -0.233922 -0.773669 
0.556398 0.830172 -0.0351565 0.513243 -0.689393 -0.511195 0.997636 -0.0210293 0.0654175 
0.713336 0.508599 0.482161 -0.586924 -0.288304 -0.756572 -0.45816 0.15516 -0.875223 
-0.14771 0.546215 -0.824519 -0.129297 0.656352 -0.743293 0.199215 0.894408 -0.400435 
-0.497363 -0.219383 -0.839346 -0.183312 0.43126 -0.883409 -0.0597936 0.705823 -0.70586 
0.0173091 0.768521 -0.639591 0.353355 0.914776 -0.195767 -0.105108 -0.82486 -0.555481 
-0.81775 -0.40412 -0.409844 -0.773439 -0.521638 -0.36012 -0.831609 -0.339554 -0.439465 
-0.610742 -0.176859 -0.771826 -0.31073 0.176026 -0.934057 -0.0670823 0.589148 -0.805236 
0.125516 0.866824 -0.482558 0.481656 0.874878 -0.0509529 0.295646 0.883407 -0.363572 
0.155297 0.78302 -0.602298 0.0719731 -0.833685 -0.547531 -0.0367526 -0.838566 -0.54356 
0.781356 -0.534394 -0.322345 0.554913 0.626007 0.547893 0.509023 0.650796 0.563347 
-0.725936 -0.495776 -0.47668 0.617169 0.753184 0.227631 -0.58684 -0.308583 -0.748595 
-0.453944 0.092822 -0.886182 -0.303359 0.215264 -0.928243 -0.180227 0.438393 -0.880528 
0.345488 0.832903 -0.432331 -0.562131 0.0703651 -0.824049 -0.515127 0.274017 -0.812133 
-0.0951088 0.6388 -0.763471 0.225574 0.863536 -0.451024 -0.216661 0.438849 -0.872049 
0.50786 -0.703398 -0.497303 -0.291454 -0.796408 -0.529895 0.785075 0.512461 0.347908 
0 -0.992278 -0.124035 0 -1 0 -0.184289 -0.982872 0 
-0.698618 -0.29653 -0.651155 0.184289 -0.982872 0 0 1 0 
-0.727672 -0.106616 -0.677589 -0.429739 0.15946 -0.888761 0.201285 0.895093 -0.39786 
0.466219 0.880907 -0.0815014 0.505737 0.852547 -0.131884 0.256229 0.810388 -0.526895 
-0.0771661 0.585032 -0.807331 0.768327 -0.408001 -0.493162 0.453013 -0.857601 -0.243515 
0.925974 -0.253973 -0.279409 0.874524 -0.45311 -0.172911 0.922377 -0.362717 -0.132882 
0.994037 -0.0212664 -0.106953 0.829355 0.47482 0.294477 -0.818737 -0.525748 -0.230777 
-0.712507 -0.573872 -0.403739 0 -0.992278 0.124035 0.594606 0.802251 0.0532629 
-0.239892 0.58117 -0.777621 0.089795 0.722545 -0.685467 0.340633 0.882393 -0.32458 
0.457052 0.849025 -0.265067 0.51393 -0.840628 -0.170942 0.579582 -0.796233 -0.173487 
0.813994 -0.578628 -0.0510233 0.962306 -0.202121 0.181972 0.989998 -0.064085 0.125687 
0.963056 -0.267702 0.0293126 0.774751 0.465088 0.428315 0.931594 -0.362818 0.0222676 
0.564506 0.699625 0.438016 0.50975 0.724044 0.464667 -0.859625 -0.192806 -0.47315 
-0.476963 0.357882 -0.802762 0.262408 0.856846 -0.443799 0.460731 0.867106 -0.189353 
-0.842147 0.279406 -0.461216 -0.563197 0.397284 -0.724551 0.0959225 0.777281 -0.621798 
0.780154 -0.625515 0.00952412 0.892091 -0.450005 0.0408501 0.973329 0.0457132 0.224814 
0.702375 0.568915 0.427791 0.852948 0.388552 0.348578 0.975349 0.0695538 0.209419 
-0.886049 -0.0931921 -0.454128 -0.326849 0.58073 -0.745602 0.201359 0.787608 -0.582348 
0.924363 -0.361359 0.122362 0.941292 -0.0311246 0.336155 0.661688 0.570295 0.486757 
-0.765122 -0.572444 -0.294781 -0.734223 0.0690586 -0.675386 -0.578681 0.266235 -0.770875 
-0.146433 0.727109 -0.670724 -0.424931 0.477181 -0.769241 0.680744 0.732363 -0.0152266 
0.0103155 0.844054 -0.536158 0.15433 -0.93071 -0.331603 0 -0.992278 -0.124035 
0 -1 0 -0.242536 -0.970143 0 0.242536 -0.970143 0 
-0.269124 -0.862835 -0.427889 0.0640873 -0.9182 -0.390898 0.702076 -0.671735 -0.236349 
0 1 0 0.996966 -0.0440931 0.0641374 -0.425343 0.47783 -0.76861 
-0.794734 -0.0260697 -0.606398 0.427975 0.871303 -0.240142 0.2992 0.935627 -0.187299 
-0.322492 0.622103 -0.713433 0.664211 -0.676601 -0.317861 0.160441 -0.895939 -0.414188 
0 -0.992278 0.124035 0.970307 -0.226735 -0.0842324 0.958431 0.22189 0.179376 
0.801602 0.454684 0.388196 0.748979 0.594675 0.29222 -0.684327 0.0842757 -0.724289 
-0.157145 0.577006 -0.80148 0.194587 0.892706 -0.406463 0.639807 0.752055 -0.158305 
0.32935 0.782267 -0.52876 0.563078 -0.709009 -0.424558 0.232885 -0.944952 -0.229847 
0.913061 -0.384521 -0.13588 0.917706 -0.37771 -0.123093 0.745102 -0.635816 -0.201398 
0.796161 -0.600291 -0.0760116 0.963914 0.183924 0.192462 -0.9516 -0.2545 -0.1723 
-0.770122 -0.572093 -0.282171 0.558934 0.823044 0.100949 -0.56791 0.223073 -0.792285 
-0.498202 0.226767 -0.836882 0.696536 0.697094 -0.169991 0.395366 0.818508 -0.416809 
0.226764 0.759592 -0.609589 0.818036 -0.568782 0.0854642 -0.834112 -0.517608 -0.190628 
0.95233 -0.298115 0.0647754 0 -0.992278 -0.124035 0 -1 0 
-0.242536 -0.970143 0 0.242536 -0.970143 0 0 1 0 
-0.407525 -0.804342 -0.432386 0.751894 0.601684 0.269504 0.667595 0.662099 0.340502 
-0.863957 -0.250317 -0.436944 -0.89474 0.215046 -0.391402 -0.551911 -0.611558 -0.566913 
-0.773679 -0.368978 -0.51505 0.350283 0.875569 0.332688 0.0337386 0.892223 -0.450334 
0.9611 0.269723 0.0594699 0.815094 0.569763 -0.104843 -0.156903 0.546931 -0.822343 
0.602454 0.735507 -0.309967 -0.335694 0.611263 -0.716705 0.163839 0.859027 -0.485004 
-0.452148 0.322647 -0.831541 0.478931 0.738032 -0.475325 -0.255783 0.387333 -0.885747 
0.334735 -0.811961 -0.478196 -0.0129866 -0.920312 -0.39097 0.615508 -0.751294 -0.238134 
0 -0.992278 0.124035 0.967782 -0.251654 0.0082289 0.917259 0.354487 0.18159 
-0.841513 -0.283319 -0.459985 -0.522602 -0.10575 -0.845993 0.696304 0.717062 0.0313438 
0.708514 0.509228 -0.488564 0.657503 0.720483 -0.220439 0.755533 0.551798 -0.353114 
-0.425181 0.433171 -0.794723 0.7356 -0.590082 -0.332711 0.212286 -0.869928 -0.445153 
0 -0.992278 -0.124035 0 -1 0 -0.242536 -0.970143 0 
0.242536 -0.970143 0 0 1 0 0.936439 -0.350667 0.0107327 
0.988166 0.147442 0.0423015 0.989394 0.127813 0.0690194 0.772576 0.634786 0.0131655 
-0.774505 -0.135361 -0.617916 0.604944 0.783223 -0.143541 0.652813 0.72719 -0.212202 
-0.0163629 0.735432 -0.677401 0.513993 0.791761 -0.330039 0 -0.992278 0.124035 
0.982453 -0.180075 -0.0485743 0.93609 -0.251531 -0.245902 0.968768 -0.0703923 0.237768 
0.94288 0.262795 0.204734 0.77467 0.509879 0.374045 0.931576 -0.00456169 0.363517 
0.975979 0.00774207 0.217726 0.799491 0.472672 0.370668 -0.644183 0.000781051 -0.764871 
-0.514934 0.25492 -0.818449 -0.760233 0.138968 -0.634612 -0.481905 0.371956 -0.793357 
0.374084 0.881919 -0.286844 0.855116 -0.367306 -0.365873 0.705349 0.623117 0.337947 
-0.8337 -0.428024 -0.348913 -0.801579 -0.127476 -0.584141 0.670518 0.741103 -0.0342459 
-0.37489 0.531066 -0.759885 -0.187038 0.859671 -0.475377 0.194076 0.754673 -0.62674 
0.350794 0.867905 -0.351689 0.207903 -0.879075 -0.428957 0.845352 -0.195097 -0.49731 
0.801011 -0.594264 0.0723296 0.42412 -0.764982 -0.484691 0.945493 0.321326 0.0528417 
0.606829 -0.737622 -0.296095 0.939525 0.329378 0.093829 -0.738872 0.228368 -0.633969 
0.513813 0.85779 -0.0138513 0.517857 0.854331 -0.0440861 0.535804 -0.793781 -0.287795 
0.923617 -0.338919 0.179066 0.819555 0.10121 0.563991 0.778342 0.501871 0.377239 
-0.414225 0.68161 -0.60318 -0.532821 0.633191 -0.561401 -0.426525 0.549635 -0.718316 
0.188521 0.916951 -0.351654 -0.421372 0.591072 -0.687808 0.0731366 0.895609 -0.438789 
0.479271 -0.822571 -0.306067 0.0688135 -0.839037 -0.539705 0.83665 -0.526074 -0.15252 
0.496262 -0.71287 -0.49552 0.710908 -0.679413 -0.181681 0.969063 -0.213111 0.1245 
0.907421 0.194023 0.37275 0.870864 0.253488 0.421118 0.544137 0.73705 0.400839 
-0.677812 0.330902 -0.656563 -0.690894 0.315374 -0.650542 0.0314473 0.916513 -0.398767 
-0.449797 0.703045 -0.550828 0.237947 0.947946 -0.211611 -0.0785891 -0.881789 -0.465051 
-0.223284 -0.810764 -0.541116 0.930314 -0.345098 0.124185 0.61793 0.656511 0.432616 
-0.870597 -0.132466 -0.473829 -0.767582 0.320767 -0.554911 -0.158677 0.905462 -0.393651 
-0.14155 -0.82501 -0.547103 0.786265 -0.605182 -0.124666 0.966295 -0.203227 0.158027 
0.945338 -0.000855483 0.32609 0.910465 0.180272 0.37223 -0.895675 -0.191374 -0.401425 
-0.900282 0.186746 -0.393215 0.402834 0.915272 -0.000898881 -0.493903 0.705869 -0.507749 