# vtk DataFile Version 4.2
vtk output
ASCII
DATASET POLYDATA
POINTS 7078 float
359 45.0087 154.017 359 45.0087 154.017 359 45.0087 154.017 
359 45.0087 154.017 359 45.0088 154.017 358.504 44.0044 155.017 
358.504 44.0044 155.018 358.504 44.0044 155.017 358.505 44.0044 155.017 
358.505 44.0044 155.017 358.505 44.0044 155.018 358.504 44.0044 155.017 
358.505 44.0044 155.018 359 45.0087 154.017 358 43.0087 156.017 
358 43.0087 156.017 358 43.0087 156.017 358 43.0087 156.017 
358.504 44.0044 155.018 358 43.0088 156.017 358.505 44.0044 155.018 
357 43.0087 157.017 357 43.0087 157.017 357 43.0087 157.017 
358 43.0087 156.017 357 43.0087 157.017 357 43.0088 157.017 
357 43.0087 157.017 353 41.0087 160.017 353 41.0087 160.017 
353 41.0087 160.017 353 41.0087 160.017 353 41.0088 160.017 
352 41.0087 161.017 352 41.0087 161.017 352 41.0087 161.017 
353 41.0087 160.017 352 41.0087 161.017 352 41.0088 161.017 
351 39.0087 162.517 351 39.0087 162.517 351 39.0088 162.517 
351 39.0087 162.517 351 39.0088 162.517 352 41.0087 161.017 
351 39.0087 162.518 351 39.0087 162.518 351 39.0088 162.518 
350 40.0087 163.017 350 40.0087 163.017 350 40.0087 163.017 
351 39.0088 162.518 350 40.0087 163.017 350 40.0088 163.017 
350 39.0087 164.017 350 39.0087 164.017 350 39.0087 164.017 
351 39.0087 162.518 350 39.0087 164.017 347.705 39.3321 165.337 
347.687 39.3108 165.366 347.687 39.3113 165.366 347.715 39.3448 165.32 
347.704 39.3314 165.338 350 39.0088 164.017 350 40.0087 163.017 
347.716 39.3453 165.319 347.707 39.3353 165.333 347.691 39.3162 165.359 
347.713 39.342 165.324 347.717 39.3473 165.316 347.706 39.3339 165.335 
347.65 39.2673 165.426 347.601 39.2103 165.505 347.612 39.2224 165.488 
347.647 39.2636 165.431 347.618 39.2301 165.477 350 39.0087 164.017 
347.638 39.2534 165.445 347.661 39.2803 165.408 347.645 39.262 165.434 
347.655 39.2737 165.417 347.669 39.2904 165.395 347.707 39.3348 165.333 
347.649 39.2658 165.428 347.66 39.279 165.41 347.667 39.2876 165.398 
347.696 39.3219 165.351 347.539 39.1365 165.606 347.519 39.113 165.639 
347.527 39.1225 165.626 347.568 39.1714 165.558 347.534 39.1315 165.613 
347.551 39.1508 165.587 347.559 39.1606 165.573 347.534 39.1315 165.613 
347.586 39.1925 165.529 347.632 39.2468 165.454 346 40.0087 166.017 
346 40.0087 166.017 346 40.0087 166.017 347.545 39.1446 165.595 
347.646 39.2628 165.432 346 40.0087 166.017 347.626 39.2399 165.464 
347.566 39.1691 165.562 346 40.0088 166.017 342.221 38.5323 168.873 
342.159 38.539 168.91 342.168 38.5382 168.905 342.236 38.5308 168.864 
347.511 39.1042 165.651 347.507 39.099 165.658 347.505 39.0975 165.66 
347.516 39.1104 165.642 347.531 39.1271 165.619 347.521 39.1159 165.635 
342.217 38.5329 168.875 347.518 39.112 165.64 347.507 39.0997 165.657 
347.545 39.1446 165.595 347.532 39.1288 165.617 346 40.0087 166.017 
347.518 39.1127 165.639 347.528 39.1241 165.624 342.015 38.5553 168.998 
341.954 38.5621 169.035 341.859 38.5729 169.093 342.123 38.5431 168.933 
342.233 38.5313 168.866 342.224 38.532 168.871 347.505 39.0966 165.661 
342.247 38.5297 168.857 347.509 39.1014 165.655 341.798 38.5808 169.131 
341.742 38.587 169.165 341.55 38.6125 169.284 341.893 38.5702 169.073 
342.108 38.5454 168.942 342.214 38.5335 168.877 342.245 38.53 168.858 
347.511 39.1037 165.652 347.514 39.1076 165.646 341.599 38.6074 169.255 
341.834 38.5783 169.11 342.1 38.5464 168.947 342.206 38.5343 168.882 
341.678 38.5955 169.205 341.733 38.5887 169.171 341.459 38.6241 169.341 
341.951 38.5626 169.037 342.098 38.5461 168.948 341.926 38.5657 169.053 
342.205 38.5342 168.883 341.302 38.6454 169.438 340.992 38.6895 169.632 
340.963 38.6933 169.65 341.772 38.5848 169.148 341.959 38.5626 169.033 
341.688 38.596 169.2 342.138 38.5418 168.923 342.213 38.5334 168.878 
340 40.0087 169.017 340 40.0087 169.017 340 40.0087 169.017 
341.059 38.6809 169.59 340 40.0087 169.017 341.337 38.6427 169.417 
340 40.0088 169.017 339.948 38.8487 170.292 339.362 38.949 170.673 
339.617 38.906 170.505 340.356 38.7833 170.032 339.905 38.8554 170.321 
341.492 38.6202 169.321 340.432 38.7718 169.985 341.739 38.5885 169.168 
340.428 38.7741 169.987 339.931 38.8539 170.302 340.903 38.7024 169.688 
341.436 38.6285 169.356 337.926 39.2158 171.544 337.817 39.2409 171.634 
337.968 39.2064 171.508 340.442 38.772 169.978 340 40.0087 169.017 
337.992 39.2013 171.492 340.709 38.7316 169.81 337.92 39.2174 171.548 
338.149 39.1734 171.469 338.86 39.0396 170.996 338.447 39.1173 171.285 
339.32 38.9565 170.701 339.932 38.8515 170.303 339.436 38.9365 170.622 
337.955 39.2126 171.573 337.59 39.2931 171.825 338.425 39.1199 171.265 
339.093 38.9991 170.841 338.509 39.1046 171.213 340.007 38.8414 170.255 
340.411 38.7755 169.997 337.651 39.2814 171.771 338.042 39.1942 171.492 
338.006 39.1988 171.49 338.298 39.1439 171.343 336.378 39.6263 172.719 
336.45 39.601 172.668 336.403 39.6179 172.702 336.285 39.6545 172.789 
337.096 39.3885 172.225 336.745 39.4491 172.501 337.394 39.3224 172.027 
338.066 39.1916 171.542 338.767 39.0577 171.063 338.178 39.172 171.442 
337.499 39.3179 171.916 336.244 39.6355 172.838 337.186 39.3947 172.131 
336.54 39.5699 172.609 337.746 39.2621 171.716 335.97 39.7255 173.042 
336.118 39.7031 172.918 336.111 39.7052 172.925 335.194 39.7098 173.692 
335.955 39.5906 173.103 336.436 39.51 172.736 336.846 39.467 172.402 
335.745 39.7565 173.224 336.014 39.6738 173.024 335.754 39.7734 173.214 
336.311 39.6166 172.79 335.584 39.8724 173.329 335.859 39.7846 173.118 
334.233 40.6779 174.291 334.012 40.8428 174.44 334.062 40.8285 174.401 
333.939 40.849 174.498 334.399 39.8013 174.312 334.819 39.7645 173.991 
335.572 39.6649 173.401 334.186 40.4628 174.371 335.084 40.0564 173.709 
334.435 40.448 174.17 335.567 39.8789 173.343 333.729 40.7262 174.69 
333.754 40.8183 174.654 333.475 39.8527 175.028 334.113 39.8336 174.546 
333.463 40.3699 174.966 333.87 40.2829 174.663 333.348 40.5676 175.018 
333.155 40.5971 175.162 334.053 40.6426 174.446 333.348 40.7048 174.999 
333.423 40.7398 174.934 333.535 40.7685 174.84 332.637 39.8453 175.662 
332.889 39.8489 175.494 333.489 39.8688 175.038 331.675 40.3246 176.284 
331.094 40.3316 176.679 332.483 40.3857 175.705 331.657 40.3342 176.318 
331.156 40.3491 176.656 331.353 39.7321 176.6 330.908 39.6433 176.93 
331.222 39.7017 176.725 332.026 39.8079 176.133 328.609 40.965 178.16 
328.666 41.064 178.134 328.835 41.1403 178.024 330.455 40.3976 177.101 
330.761 40.3534 176.942 328.783 41.1257 178.059 328.868 41.1461 178.004 
327.658 38.7144 178.874 327.499 38.6088 178.97 327.617 38.6598 178.917 
327.816 38.8104 178.805 330.618 39.5951 177.137 328.189 39.0731 178.571 
329.984 39.5669 177.514 329.071 39.4887 178.043 327.782 40.9465 178.6 
326.282 41.7784 179.348 327.219 41.3023 178.917 327.643 41.1373 178.723 
328.411 40.9661 178.305 329.017 40.8558 177.938 328.891 41.0863 177.996 
329.636 40.577 177.61 330.144 40.4227 177.336 326.726 41.5836 179.162 
325.345 43.0473 179.743 325.447 42.8576 179.72 325.256 43.1783 179.776 
325.145 43.2717 179.821 325.19 43.2554 179.811 327.242 38.5946 179.099 
327.158 38.5966 179.159 327.377 38.6111 179.022 327.338 38.5794 179.063 
328.319 39.1731 178.524 325.951 41.2865 179.495 327.007 41.4127 179.075 
325.588 42.4726 179.655 326.191 41.982 179.445 325.65 42.5437 179.668 
325.011 43.3968 179.877 324.934 43.4391 179.915 325.039 43.3483 179.883 
324.994 43.459 179.884 324.972 43.4764 179.891 324.009 38.9046 180.633 
324.187 38.8117 180.565 326.934 38.6789 179.267 323.528 39.0412 180.842 
324.475 38.9196 180.434 325.01 39.0231 180.197 326.693 38.7818 179.388 
326.284 38.9934 179.584 325.534 39.0618 179.948 324.521 40.9665 180.321 
324.211 41.2536 180.482 324.616 43.3251 180.104 324.474 43.2795 180.189 
324.823 43.3561 179.994 324.641 43.3411 180.102 324.952 43.4537 179.909 
324.561 43.3459 180.14 324.112 38.7424 180.601 320.857 39.1722 181.952 
321.753 39.1555 181.6 322.805 39.0776 181.169 323.395 38.9791 180.928 
324.018 38.8846 180.655 324.064 38.7542 180.628 324.553 38.9489 180.428 
325.338 39.1455 180.092 321.806 39.6072 181.599 322.391 39.7899 181.348 
322.689 40.041 181.22 323.727 40.7967 180.724 324.245 40.6922 180.51 
323.846 40.8749 180.706 324.542 41.0322 180.377 323.169 41.5748 180.95 
323.898 42.5865 180.538 324.029 42.8432 180.459 324.197 43.0903 180.356 
324.361 43.1924 180.268 317.565 39.0019 183.186 317.055 38.9875 183.374 
318.198 39.0354 182.954 317.928 39.0187 183.053 319.116 39.1269 182.618 
318.879 39.0814 182.707 319.965 39.1323 182.305 320.855 39.145 181.965 
322.464 39.1579 181.334 323.13 39.0074 181.057 317.562 39.0496 183.205 
318.168 39.066 182.974 318.771 39.1531 182.756 319.022 39.3257 182.699 
321.035 39.7086 181.925 322.47 39.7966 181.333 321.085 39.7134 181.927 
321.239 40.0983 181.87 322.783 40.2232 181.205 322.016 40.5039 181.54 
321.925 40.9163 181.582 321.173 40.7963 181.957 320.339 40.8123 182.373 
323.646 42.1776 180.697 320.839 40.7922 182.126 320.559 40.8671 182.277 
320.241 40.8766 182.431 320.409 40.9409 182.362 323.955 42.6867 180.515 
324.104 42.9598 180.418 314.254 38.9287 184.357 315.115 38.939 184.068 
316.155 38.9718 183.707 318.009 39.0558 183.033 317.386 39.0985 183.296 
318.668 39.1172 182.794 316.969 39.1859 183.473 317.895 39.229 183.143 
318.57 39.2824 182.893 319.237 39.2934 182.636 316.768 39.4323 183.66 
323 40.0087 183.017 323 40.0087 183.017 323 40.0087 183.017 
323 40.0087 183.017 319.345 40.2274 182.723 323 40.0088 183.017 
319.707 40.5197 182.618 319.932 40.7422 182.554 320.03 40.7164 182.5 
320.201 40.7104 182.425 320.146 40.8244 182.469 320.058 40.8706 182.517 
311.94 38.7289 184.969 311.806 38.7025 184.993 312.175 38.8225 184.943 
312.101 38.7775 184.955 312.589 38.8553 184.855 313.398 38.9129 184.638 
314.098 38.9191 184.431 314.677 38.9241 184.233 315.571 39.468 184.175 
[...]
POINT_DATA 7078
SCALARS scalars float
LOOKUP_TABLE default
1 1 1 1 1 1 1 1 1 
1 1 1 1 1 1 1 1 1 
1 1 1 1 1 1 1 1 1 
1 1 1 1 1 1 1 1 1 
1 1 1 1 1 1 1 1 1 
1 1 1 1 1 1 1 1 1 
1 1 1 1 1 1 1 1 1 
1 1 1 1 1 1 1 1 1 
1 1 1 1 1 1 1 1 1 
1 1 1 1 1 1 1 1 1 
1 1 1 1 1 1 1 1 1 
1 1 1 1 1 1 1 1 1 
1 1 1 1 1 1 1 1 1 
1 1 1 1 1 1 1 1 1 
1 1 1 1 1 1 1 1 1 
1 1 1 1 1 1 1 1 1 
1 1 1 1 1 1 1 1 1 
1 1 1 1 1 1 1 1 1 
1 1 1 1 1 1 1 1 1 
1 1 1 1 1 1 1 1 1 
1 1 1 1 1 1 1 1 1 
1 1 1 1 1 1 1 1 1 
1 1 1 1 1 1 1 1 1 
1 1 1 1 1 1 1 1 1 
1 1 1 1 1 1 1 1 1 
1 1 1 1 1 1 1 1 1 
1 1 1 1 1 1 1 1 1 
1 1 1 1 1 1 1 1 1 
1 1 1 1 1 1 1 1 1 
1 1 1 1 1 1 1 1 1 
1 1 1 1 1 1 1 1 1 
1 1 1 1 1 1 1 1 1 
1 1 1 1 1 1 1 1 1 
1 1 1 1 1 1 1 1 1 
1 1 1 1 1 1 1 1 1 
1 1 1 1 1 1 1 1 1 
1 1 1 1 1 1 1 1 1 
1 1 1 1 1 1 1 1 1 
1 1 1 1 1 1 1 1 1 
1 1 1 1 1 1 1 1 1 
1 1 1 1 1 1 1 1 1 
1 1 1 1 1 1 1 1 1 
1 1 1 1 1 1 1 1 1 
1 1 1 1 1 1 1 1 1 
1 1 1 1 1 1 1 1 1 
1 1 1 1 1 1 1 1 1 
1 1 1 1 1 1 1 1 1 
1 1 1 1 1 1 1 1 1 
1 1 1 1 1 1 1 1 1 
1 1 1 1 1 1 1 1 1 
1 1 1 1 1 1 1 1 1 
1 1 1 1 1 1 1 1 1 
1 1 1 1 1 1 1 1 1 
1 1 1 1 1 1 1 1 1 
1 1 1 1 1 1 1 1 1 
1 1 1 1 1 1 1 1 1 
1 1 1 1 1 1 1 1 1 
1 1 1 1 1 1 1 1 1 
1 1 1 1 1 1 1 1 1 
1 1 1 1 1 1 1 1 1 
1 1 1 1 1 1 1 1 1 
1 1 1 1 1 1 1 1 1 
1 1 1 1 1 1 1 1 1 
1 1 1 1 1 1 1 1 1 
1 1 1 1 1 1 1 1 1 
1 1 1 1 1 1 1 1 1 
1 1 1 1 1 1 1 1 1 
1 1 1 1 1 1 1 1 1 
1 1 1 1 1 1 1 1 1 
1 1 1 1 1 1 1 1 1 
1 1 1 1 1 1 1 1 1 
1 1 1 1 1 1 1 1 1 
1 1 1 1 1 1 1 1 1 
1 1 1 1 1 1 1 1 1 
1 1 1 1 1 1 1 1 1 
1 1 1 1 1 1 1 1 1 
1 1 1 1 1 1 1 1 1 
1 1 1 1 1 1 1 1 1 
1 1 1 1 1 1 1 1 1 
1 1 1 1 1 1 1 1 1 
1 1 1 1 1 1 1 1 1 
1 1 1 1 1 1 1 1 1 
1 1 1 1 1 1 1 1 1 
1 1 1 1 1 1 1 1 1 
1 1 1 1 1 1 1 1 1 
1 1 1 1 1 1 1 1 1 
1 1 1 1 1 1 1 1 1 
1 1 1 1 1 1 1 1 1 
1 1 1 1 1 1 1 1 1 
1 1 1 1 1 1 1 1 1 
1 1 1 1 1 1 1 1 1 
1 1 1 1 1 1 1 1 1 
1 1 1 1 1 1 1 1 1 
1 1 1 1 1 1 1 1 1 
1 1 1 1 1 1 1 1 1 
1 1 1 1 1 1 1 1 1 
1 1 1 1 1 1 1 1 1 
1 1 1 1 1 1 1 1 1 
1 1 1 1 1 1 1 1 1 
1 1 1 1 1 1 1 1 1 
1 1 1 1 1 1 1 1 1 
1 1 1 1 1 1 1 1 1 
1 1 1 1 1 1 1 1 1 
1 1 1 1 1 1 1 1 1 
1 1 1 1 1 1 1 1 1 
1 1 1 1 1 1 1 1 1 
1 1 1 1 1 1 1 1 1 
1 1 1 1 1 1 1 1 1 
1 1 1 1 1 1 1 1 1 
1 1 1 1 1 1 1 1 1 
1 1 1 1 1 1 1 1 1 
1 1 1 1 1 1 1 1 1 
1 1 1 1 1 1 1 1 1 
1 1 1 1 1 1 1 1 1 
1 1 1 1 1 1 1 1 1 
1 1 1 1 1 1 1 1 1 
1 1 1 1 1 1 1 1 1 
1 1 1 1 1 1 1 1 1 
1 1 1 1 1 1 1 1 1 
1 1 1 1 1 1 1 1 1 
1 1 1 1 1 1 1 1 1 
1 1 1 1 1 1 1 1 1 
1 1 1 1 1 1 1 1 1 
1 1 1 1 1 1 1 1 1 
1 1 1 1 1 1 1 1 1 
1 1 1 1 1 1 1 1 1 
1 1 1 1 1 1 1 1 1 
1 1 1 1 1 1 1 1 1 
1 1 1 1 1 1 1 1 1 
1 1 1 1 1 1 1 1 1 
1 1 1 1 1 1 1 1 1 
1 1 1 1 1 1 1 1 1 
1 1 1 1 1 1 1 1 1 
1 1 1 1 1 1 1 1 1 
1 1 1 1 1 1 1 1 1 
1 1 1 1 1 1 1 1 1 
1 1 1 1 1 1 1 1 1 
1 1 1 1 1 1 1 1 1 
1 1 1 1 1 1 1 1 1 
1 1 1 1 1 1 1 1 1 
1 1 1 1 1 1 1 1 1 
1 1 1 1 1 1 1 1 1 
1 1 1 1 1 1 1 1 1 
1 1 1 1 1 1 1 1 1 
1 1 1 1 1 1 1 1 1 
1 1 1 1 1 1 1 1 1 
1 1 1 1 1 1 1 1 1 
1 1 1 1 1 1 1 1 1 
1 1 1 1 1 1 1 1 1 
1 1 1 1 1 1 1 1 1 
1 1 1 1 1 1 1 1 1 
1 1 1 1 1 1 1 1 1 
1 1 1 1 1 1 1 1 1 
1 1 1 1 1 1 1 1 1 
1 1 1 1 1 1 1 1 1 
1 1 1 1 1 1 1 1 1 
1 1 1 1 1 1 1 1 1 
1 1 1 1 1 1 1 1 1 
1 1 1 1 1 1 1 1 1 
1 1 1 1 1 1 1 1 1 
1 1 1 1 1 1 1 1 1 
1 1 1 1 1 1 1 1 1 
1 1 1 1 1 1 1 1 1 
1 1 1 1 1 1 1 1 1 
1 1 1 1 1 1 1 1 1 
1 1 1 1 1 1 1 1 1 
1 1 1 1 1 1 1 1 1 
1 1 1 1 1 1 1 1 1 
1 1 1 1 1 1 1 1 1 
1 1 1 1 1 1 1 1 1 
1 1 1 1 1 1 1 1 1 
1 1 1 1 1 1 1 1 1 
1 1 1 1 1 1 1 1 1 
1 1 1 1 1 1 1 1 1 
1 1 1 1 1 1 1 1 1 
1 1 1 1 1 1 1 1 1 
1 1 1 1 1 1 1 1 1 
1 1 1 1 1 1 1 1 1 
1 1 1 1 1 1 1 1 1 
1 1 1 1 1 1 1 1 1 
1 1 1 1 1 1 1 1 1 
1 1 1 1 1 1 1 1 1 
1 1 1 1 1 1 1 1 1 
1 1 1 1 1 1 1 1 1 
1 1 1 1 1 1 1 1 1 
1 1 1 1 1 1 1 1 1 
1 1 1 1 1 1 1 1 1 
1 1 1 1 1 1 1 1 1 
1 1 1 1 1 1 1 1 1 
1 1 1 1 1 1 1 1 1 
1 1 1 1 1 1 1 1 1 
1 1 1 1 1 1 1 1 1 
1 1 1 1 1 1 1 1 1 
1 1 1 1 1 1 1 1 1 
1 1 1 1 1 1 1 1 1 
1 1 1 1 1 1 1 1 1 
1 1 1 1 1 1 1 1 1 
1 1 1 1 1 1 1 1 1 
1 1 1 1 1 1 1 1 1 
1 1 1 1 1 1 1 1 1 
1 1 1 1 1 1 1 1 1 
1 1 1 1 1 1 1 1 1 
1 1 1 1 1 1 1 1 1 
1 1 1 1 1 1 1 1 1 
1 1 1 1 1 1 1 1 1 
1 1 1 1 1 1 1 1 1 
1 1 1 1 1 1 1 1 1 
1 1 1 1 1 1 1 1 1 
1 1 1 1 1 1 1 1 1 
1 1 1 1 1 1 1 1 1 
1 1 1 1 1 1 1 1 1 
1 1 1 1 1 1 1 1 1 
1 1 1 1 1 1 1 1 1 
1 1 1 1 1 1 1 1 1 
1 1 1 1 1 1 1 1 1 
1 1 1 1 1 1 1 1 1 
1 1 1 1 1 1 1 1 1 
1 1 1 1 1 1 1 1 1 
1 1 1 1 1 1 1 1 1 
1 1 1 1 1 1 1 1 1 
1 1 1 1 1 1 1 1 1 
1 1 1 1 1 1 1 1 1 
1 1 1 1 1 1 1 1 1 
1 1 1 1 1 1 1 1 1 
1 1 1 1 1 1 1 1 1 
1 1 1 1 1 1 1 1 1 
1 1 1 1 1 1 1 1 1 
1 1 1 1 1 1 1 1 1 
1 1 1 1 1 1 1 1 1 
1 1 1 1 1 1 1 1 1 
1 1 1 1 1 1 1 1 1 
1 1 1 1 1 1 1 1 1 
1 1 1 1 1 1 1 1 1 
1 1 1 1 1 1 1 1 1 
1 1 1 1 1 1 1 1 1 
1 1 1 1 1 1 1 1 1 
1 1 1 1 1 1 1 1 1 
1 1 1 1 1 1 1 1 1 
1 1 1 1 1 1 1 1 1 
1 1 1 1 1 1 1 1 1 
1 1 1 1 1 1 1 1 1 
1 1 1 1 1 1 1 1 1 
1 1 1 1 1 1 1 1 1 
1 1 1 1 1 1 1 1 1 
1 1 1 1 1 1 1 1 1 
1 1 1 1 1 1 1 1 1 
1 1 1 1 1 1 1 1 1 
1 1 1 1 1 1 1 1 1 
1 1 1 1 1 1 1 1 1 
1 1 1 1 1 1 1 1 1 
1 1 1 1 1 1 1 1 1 
1 1 1 1 1 1 1 1 1 
1 1 1 1 1 1 1 1 1 
1 1 1 1 1 1 1 1 1 
1 1 1 1 1 1 1 1 1 
1 1 1 1 1 1 1 1 1 
1 1 1 1 1 1 1 1 1 
1 1 1 1 1 1 1 1 1 
1 1 1 1 1 1 1 1 1 
1 1 1 1 1 1 1 1 1 
1 1 1 1 1 1 1 1 1 
1 1 1 1 1 1 1 1 1 
1 1 1 1 1 1 1 1 1 
1 1 1 1 1 1 1 1 1 
1 1 1 1 1 1 1 1 1 
1 1 1 1 1 1 1 1 1 
1 1 1 1 1 1 1 1 1 
1 1 1 1 1 1 1 1 1 
1 1 1 1 1 1 1 1 1 
1 1 1 1 1 1 1 1 1 
1 1 1 1 1 1 1 1 1 
1 1 1 1 1 1 1 1 1 
1 1 1 1 1 1 1 1 1 
1 1 1 1 1 1 1 1 1 
1 1 1 1 1 1 1 1 1 
1 1 1 1 1 1 1 1 1 
1 1 1 1 1 1 1 1 1 
1 1 1 1 1 1 1 1 1 
1 1 1 1 1 1 1 1 1 
1 1 1 1 1 1 1 1 1 
1 1 1 1 1 1 1 1 1 
1 1 1 1 1 1 1 1 1 
1 1 1 1 1 1 1 1 1 
1 1 1 1 1 1 1 1 1 
1 1 1 1 1 1 1 1 1 
1 1 1 1 1 1 1 1 1 
1 1 1 1 1 1 1 1 1 
1 1 1 1 1 1 1 1 1 
1 1 1 1 1 1 1 1 1 
1 1 1 1 1 1 1 1 1 
1 1 1 1 1 1 1 1 1 
1 1 1 1 1 1 1 1 1 
1 1 1 1 1 1 1 1 1 
1 1 1 1 1 1 1 1 1 
1 1 1 1 1 1 1 1 1 
1 1 1 1 1 1 1 1 1 
1 1 1 1 1 1 1 1 1 
1 1 1 1 1 1 1 1 1 
1 1 1 1 1 1 1 1 1 
1 1 1 1 1 1 1 1 1 
1 1 1 1 1 1 1 1 1 
1 1 1 1 1 1 1 1 1 
1 1 1 1 1 1 1 1 1 
1 1 1 1 1 1 1 1 1 
1 1 1 1 1 1 1 1 1 
1 1 1 1 1 1 1 1 1 
1 1 1 1 1 1 1 1 1 
1 1 1 1 1 1 1 1 1 
1 1 1 1 1 1 1 1 1 
1 1 1 1 1 1 1 1 1 
1 1 1 1 1 1 1 1 1 
1 1 1 1 1 1 1 1 1 
1 1 1 1 1 1 1 1 1 
1 1 1 1 1 1 1 1 1 
1 1 1 1 1 1 1 1 1 
1 1 1 1 1 1 1 1 1 
1 1 1 1 1 1 1 1 1 
1 1 1 1 1 1 1 1 1 
1 1 1 1 1 1 1 1 1 
1 1 1 1 1 1 1 1 1 
1 1 1 1 1 1 1 1 1 
1 1 1 1 1 1 1 1 1 
1 1 1 1 1 1 1 1 1 
1 1 1 1 1 1 1 1 1 
1 1 1 1 1 1 1 1 1 
1 1 1 1 1 1 1 1 1 
1 1 1 1 1 1 1 1 1 
1 1 1 1 1 1 1 1 1 
1 1 1 1 1 1 1 1 1 
1 1 1 1 1 1 1 1 1 
1 1 1 1 1 1 1 1 1 
1 1 1 1 1 1 1 1 1 
1 1 1 1 1 1 1 1 1 
1 1 1 1 1 1 1 1 1 
1 1 1 1 1 1 1 1 1 
1 1 1 1 1 1 1 1 1 
1 1 1 1 1 1 1 1 1 
1 1 1 1 1 1 1 1 1 
1 1 1 1 1 1 1 1 1 
1 1 1 1 1 1 1 1 1 
1 1 1 1 1 1 1 1 1 
1 1 1 1 1 1 1 1 1 
1 1 1 1 1 1 1 1 1 
1 1 1 1 1 1 1 1 1 
1 1 1 1 1 1 1 1 1 
1 1 1 1 1 1 1 1 1 
1 1 1 1 1 1 1 1 1 
1 1 1 1 1 1 1 1 1 
1 1 1 1 1 1 1 1 1 
1 1 1 1 1 1 1 1 1 
1 1 1 1 1 1 1 1 1 
1 1 1 1 1 1 1 1 1 
1 1 1 1 1 1 1 1 1 
1 1 1 1 1 1 1 1 1 
1 1 1 1 1 1 1 1 1 
1 1 1 1 1 1 1 1 1 
1 1 1 1 1 1 1 1 1 
1 1 1 1 1 1 1 1 1 
1 1 1 1 1 1 1 1 1 
1 1 1 1 1 1 1 1 1 
1 1 1 1 1 1 1 1 1 
1 1 1 1 1 1 1 1 1 
1 1 1 1 1 1 1 1 1 
1 1 1 1 1 1 1 1 1 
1 1 1 1 1 1 1 1 1 
1 1 1 1 1 1 1 1 1 
1 1 1 1 1 1 1 1 1 
1 1 1 1 1 1 1 1 1 
1 1 1 1 1 1 1 1 1 
1 1 1 1 1 1 1 1 1 
1 1 1 1 1 1 1 1 1 
1 1 1 1 1 1 1 1 1 
1 1 1 1 1 1 1 1 1 
1 1 1 1 1 1 1 1 1 
1 1 1 1 1 1 1 1 1 
1 1 1 1 1 1 1 1 1 
1 1 1 1 1 1 1 1 1 
1 1 1 1 1 1 1 1 1 
1 1 1 1 1 1 1 1 1 
1 1 1 1 1 1 1 1 1 
1 1 1 1 1 1 1 1 1 
1 1 1 1 1 1 1 1 1 
1 1 1 1 1 1 1 1 1 
1 1 1 1 1 1 1 1 1 
1 1 1 1 1 1 1 1 1 
1 1 1 1 1 1 1 1 1 
1 1 1 1 1 1 1 1 1 
1 1 1 1 1 1 1 1 1 
1 1 1 1 1 1 1 1 1 
1 1 1 1 1 1 1 1 1 
1 1 1 1 1 1 1 1 1 
1 1 1 1 1 1 1 1 1 
1 1 1 1 1 1 1 1 1 
1 1 1 1 1 1 1 1 1 
1 1 1 1 1 1 1 1 1 
1 1 1 1 1 1 1 1 1 
1 1 1 1 1 1 1 1 1 
1 1 1 1 1 1 1 1 1 
1 1 1 1 1 1 1 1 1 
1 1 1 1 1 1 1 1 1 
1 1 1 1 1 1 1 1 1 
1 1 1 1 1 1 1 1 1 
1 1 1 1 1 1 1 1 1 
1 1 1 1 1 1 1 1 1 
1 1 1 1 1 1 1 1 1 
1 1 1 1 1 1 1 1 1 
1 1 1 1 1 1 1 1 1 
1 1 1 1 1 1 1 1 1 
1 1 1 1 1 1 1 1 1 
1 1 1 1 1 1 1 1 1 
1 1 1 1 1 1 1 1 1 
1 1 1 1 1 1 1 1 1 
1 1 1 1 1 1 1 1 1 
1 1 1 1 1 1 1 1 1 
1 1 1 1 1 1 1 1 1 
1 1 1 1 1 1 1 1 1 
1 1 1 1 1 1 1 1 1 
1 1 1 1 1 1 1 1 1 
1 1 1 1 1 1 1 1 1 
1 1 1 1 1 1 1 1 1 
1 1 1 1 1 1 1 1 1 
1 1 1 1 1 1 1 1 1 
1 1 1 1 1 1 1 1 1 
1 1 1 1 1 1 1 1 1 
1 1 1 1 1 1 1 1 1 
1 1 1 1 1 1 1 1 1 
1 1 1 1 1 1 1 1 1 
1 1 1 1 1 1 1 1 1 
1 1 1 1 1 1 1 1 1 
1 1 1 1 1 1 1 1 1 
1 1 1 1 1 1 1 1 1 
1 1 1 1 1 1 1 1 1 
1 1 1 1 1 1 1 1 1 
1 1 1 1 1 1 1 1 1 
1 1 1 1 1 1 1 1 1 
1 1 1 1 1 1 1 1 1 
1 1 1 1 1 1 1 1 1 
1 1 1 1 1 1 1 1 1 
1 1 1 1 1 1 1 1 1 
1 1 1 1 1 1 1 1 1 
1 1 1 1 1 1 1 1 1 
1 1 1 1 1 1 1 1 1 
1 1 1 1 1 1 1 1 1 
1 1 1 1 1 1 1 1 1 
1 1 1 1 1 1 1 1 1 
1 1 1 1 1 1 1 1 1 
1 1 1 1 1 1 1 1 1 
1 1 1 1 1 1 1 1 1 
1 1 1 1 1 1 1 1 1 
1 1 1 1 1 1 1 1 1 
1 1 1 1 1 1 1 1 1 
1 1 1 1 1 1 1 1 1 
1 1 1 1 1 1 1 1 1 
1 1 1 1 1 1 1 1 1 
1 1 1 1 1 1 1 1 1 
1 1 1 1 1 1 1 1 1 
1 1 1 1 1 1 1 1 1 
1 1 1 1 1 1 1 1 1 
1 1 1 1 1 1 1 1 1 
1 1 1 1 1 1 1 1 1 
1 1 1 1 1 1 1 1 1 
1 1 1 1 1 1 1 1 1 
1 1 1 1 1 1 1 1 1 
1 1 1 1 1 1 1 1 1 
1 1 1 1 1 1 1 1 1 
1 1 1 1 1 1 1 1 1 
1 1 1 1 1 1 1 1 1 
1 1 1 1 1 1 1 1 1 
1 1 1 1 1 1 1 1 1 
1 1 1 1 1 1 1 1 1 
1 1 1 1 1 1 1 1 1 
1 1 1 1 1 1 1 1 1 
1 1 1 1 1 1 1 1 1 
1 1 1 1 1 1 1 1 1 
1 1 1 1 1 1 1 1 1 
1 1 1 1 1 1 1 1 1 
1 1 1 1 1 1 1 1 1 
1 1 1 1 1 1 1 1 1 
1 1 1 1 1 1 1 1 1 
1 1 1 1 1 1 1 1 1 
1 1 1 1 1 1 1 1 1 
1 1 1 1 1 1 1 1 1 
1 1 1 1 1 1 1 1 1 
1 1 1 1 1 1 1 1 1 
1 1 1 1 1 1 1 1 1 
1 1 1 1 1 1 1 1 1 
1 1 1 1 1 1 1 1 1 
1 1 1 1 1 1 1 1 1 
1 1 1 1 1 1 1 1 1 
1 1 1 1 1 1 1 1 1 
1 1 1 1 1 1 1 1 1 
1 1 1 1 1 1 1 1 1 
1 1 1 1 1 1 1 1 1 
1 1 1 1 1 1 1 1 1 
1 1 1 1 1 1 1 1 1 
1 1 1 1 1 1 1 1 1 
1 1 1 1 1 1 1 1 1 
1 1 1 1 1 1 1 1 1 
1 1 1 1 1 1 1 1 1 
1 1 1 1 1 1 1 1 1 
1 1 1 1 1 1 1 1 1 
1 1 1 1 1 1 1 1 1 
1 1 1 1 1 1 1 1 1 
1 1 1 1 1 1 1 1 1 
1 1 1 1 1 1 1 1 1 
1 1 1 1 1 1 1 1 1 
1 1 1 1 1 1 1 1 1 
1 1 1 1 1 1 1 1 1 
1 1 1 1 1 1 1 1 1 
1 1 1 1 1 1 1 1 1 
1 1 1 1 1 1 1 1 1 
1 1 1 1 1 1 1 1 1 
1 1 1 1 1 1 1 1 1 
1 1 1 1 1 1 1 1 1 
1 1 1 1 1 1 1 1 1 
1 1 1 1 1 1 1 1 1 
1 1 1 1 1 1 1 1 1 
1 1 1 1 1 1 1 1 1 
1 1 1 1 1 1 1 1 1 
1 1 1 1 1 1 1 1 1 
1 1 1 1 1 1 1 1 1 
1 1 1 1 1 1 1 1 1 
1 1 1 1 1 1 1 1 1 
1 1 1 1 1 1 1 1 1 
1 1 1 1 1 1 1 1 1 
1 1 1 1 1 1 1 1 1 
1 1 1 1 1 1 1 1 1 
1 1 1 1 1 1 1 1 1 
1 1 1 1 1 1 1 1 1 
1 1 1 1 1 1 1 1 1 
1 1 1 1 1 1 1 1 1 
1 1 1 1 1 1 1 1 1 
1 1 1 1 1 1 1 1 1 
1 1 1 1 1 1 1 1 1 
1 1 1 1 1 1 1 1 1 
1 1 1 1 1 1 1 1 1 
1 1 1 1 1 1 1 1 1 
1 1 1 1 1 1 1 1 1 
1 1 1 1 1 1 1 1 1 
1 1 1 1 1 1 1 1 1 
1 1 1 1 1 1 1 1 1 
1 1 1 1 1 1 1 1 1 
1 1 1 1 1 1 1 1 1 
1 1 1 1 1 1 1 1 1 
1 1 1 1 1 1 1 1 1 
1 1 1 1 1 1 1 1 1 
1 1 1 1 1 1 1 1 1 
1 1 1 1 1 1 1 1 1 
1 1 1 1 1 1 1 1 1 
1 1 1 1 1 1 1 1 1 
1 1 1 1 1 1 1 1 1 
1 1 1 1 1 1 1 1 1 
1 1 1 1 1 1 1 1 1 
1 1 1 1 1 1 1 1 1 
1 1 1 1 1 1 1 1 1 
1 1 1 1 1 1 1 1 1 
1 1 1 1 1 1 1 1 1 
1 1 1 1 1 1 1 1 1 
1 1 1 1 1 1 1 1 1 
1 1 1 1 1 1 1 1 1 
1 1 1 1 1 1 1 1 1 
1 1 1 1 1 1 1 1 1 
1 1 1 1 1 1 1 1 1 
1 1 1 1 1 1 1 1 1 
1 1 1 1 1 1 1 1 1 
1 1 1 1 1 1 1 1 1 
1 1 1 1 1 1 1 1 1 
1 1 1 1 1 1 1 1 1 
1 1 1 1 1 1 1 1 1 
1 1 1 1 1 1 1 1 1 
1 1 1 1 1 1 1 1 1 
1 1 1 1 1 1 1 1 1 
1 1 1 1 1 1 1 1 1 
1 1 1 1 1 1 1 1 1 
1 1 1 1 1 1 1 1 1 
1 1 1 1 1 1 1 1 1 
1 1 1 1 1 1 1 1 1 
1 1 1 1 1 1 1 1 1 
1 1 1 1 1 1 1 1 1 
1 1 1 1 1 1 1 1 1 
1 1 1 1 1 1 1 1 1 
1 1 1 1 1 1 1 1 1 
1 1 1 1 1 1 1 1 1 
1 1 1 1 1 1 1 1 1 
1 1 1 1 1 1 1 1 1 
1 1 1 1 1 1 1 1 1 
1 1 1 1 1 1 1 1 1 
1 1 1 1 1 1 1 1 1 
1 1 1 1 1 1 1 1 1 
1 1 1 1 1 1 1 1 1 
1 1 1 1 1 1 1 1 1 
1 1 1 1 1 1 1 1 1 
1 1 1 1 1 1 1 1 1 
1 1 1 1 1 1 1 1 1 
1 1 1 1 1 1 1 1 1 
1 1 1 1 1 1 1 1 1 
1 1 1 1 1 1 1 1 1 
1 1 1 1 1 1 1 1 1 
1 1 1 1 1 1 1 1 1 
1 1 1 1 1 1 1 1 1 
1 1 1 1 1 1 1 1 1 
1 1 1 1 1 1 1 1 1 
1 1 1 1 1 1 1 1 1 
1 1 1 1 1 1 1 1 1 
1 1 1 1 1 1 1 1 1 
1 1 1 1 1 1 1 1 1 
1 1 1 1 1 1 1 1 1 
1 1 1 1 1 1 1 1 1 
1 1 1 1 1 1 1 1 1 
1 1 1 1 1 1 1 1 1 
1 1 1 1 1 1 1 1 1 
1 1 1 1 1 1 1 1 1 
1 1 1 1 1 1 1 1 1 
1 1 1 1 1 1 1 1 1 
1 1 1 1 1 1 1 1 1 
1 1 1 1 1 1 1 1 1 
1 1 1 1 1 1 1 1 1 
1 1 1 1 1 1 1 1 1 
1 1 1 1 1 1 1 1 1 
1 1 1 1 1 1 1 1 1 
1 1 1 1 1 1 1 1 1 
1 1 1 1 1 1 1 1 1 
1 1 1 1 1 1 1 1 1 
1 1 1 1 1 1 1 1 1 
1 1 1 1 1 1 1 1 1 
1 1 1 1 1 1 1 1 1 
1 1 1 1 1 1 1 1 1 
1 1 1 1 1 1 1 1 1 
1 1 1 1 1 1 1 1 1 
1 1 1 1 1 1 1 1 1 
1 1 1 1 1 1 1 1 1 
1 1 1 1 1 1 1 1 1 
1 1 1 1 1 1 1 1 1 
1 1 1 1 1 1 1 1 1 
1 1 1 1 1 1 1 1 1 
1 1 1 1 1 1 1 1 1 
1 1 1 1 1 1 1 1 1 
1 1 1 1 1 1 1 1 1 
1 1 1 1 1 1 1 1 1 
1 1 1 1 1 1 1 1 1 
1 1 1 1 1 1 1 1 1 
1 1 1 1 1 1 1 1 1 
1 1 1 1 1 1 1 1 1 
1 1 1 1 1 1 1 1 1 
1 1 1 1 1 1 1 1 1 
1 1 1 1 1 1 1 1 1 
1 1 1 1 1 1 1 1 1 
1 1 1 1 1 1 1 1 1 
1 1 1 1 1 1 1 1 1 
1 1 1 1 1 1 1 1 1 
1 1 1 1 1 1 1 1 1 
1 1 1 1 1 1 1 1 1 
1 1 1 1 1 1 1 1 1 
1 1 1 1 1 1 1 1 1 
1 1 1 1 1 1 1 1 1 
1 1 1 1 1 1 1 1 1 
1 1 1 1 1 1 1 1 1 
1 1 1 1 1 1 1 1 1 
1 1 1 1 1 1 1 1 1 
1 1 1 1 1 1 1 1 1 
1 1 1 1 1 1 1 1 1 
1 1 1 1 1 1 1 1 1 
1 1 1 1 1 1 1 1 1 
1 1 1 1 1 1 1 1 1 
1 1 1 1 1 1 1 1 1 
1 1 1 1 1 1 1 1 1 
1 1 1 1 1 1 1 1 1 
1 1 1 1 1 1 1 1 1 
1 1 1 1 1 1 1 1 1 
1 1 1 1 1 1 1 1 1 
1 1 1 1 1 1 1 1 1 
1 1 1 1 1 1 1 1 1 
1 1 1 1 1 1 1 1 1 
1 1 1 1 1 1 1 1 1 
1 1 1 1 1 1 1 1 1 
1 1 1 1 1 1 1 1 1 
1 1 1 1 1 1 1 1 1 
1 1 1 1 1 1 1 1 1 
1 1 1 1 1 1 1 1 1 
1 1 1 1 1 1 1 1 1 
1 1 1 1 1 1 1 1 1 
1 1 1 1 1 1 1 1 1 
1 1 1 1 1 1 1 1 1 
1 1 1 1 1 1 1 1 1 
1 1 1 1 1 1 1 1 1 
1 1 1 1 1 1 1 1 1 
1 1 1 1 1 1 1 1 1 
1 1 1 1 1 1 1 1 1 
1 1 1 1 1 1 1 1 1 
1 1 1 1 1 1 1 1 1 
1 1 1 1 1 1 1 1 1 
1 1 1 1 1 1 1 1 1 
1 1 1 1 1 1 1 1 1 
1 1 1 1 1 1 1 1 1 
1 1 1 1 1 1 1 1 1 
1 1 1 1 1 1 1 1 1 
1 1 1 1 1 1 1 1 1 
1 1 1 1 1 1 1 1 1 
1 1 1 1 1 1 1 1 1 
1 1 1 1 1 1 1 1 1 
1 1 1 1 1 1 1 1 1 
1 1 1 1 1 1 1 1 1 
1 1 1 1 1 1 1 1 1 
1 1 1 1 1 1 1 1 1 
1 1 1 1 1 1 1 1 1 
1 1 1 1 1 1 1 1 1 
1 1 1 1 1 1 1 1 1 
1 1 1 1 1 1 1 1 1 
1 1 1 1 1 1 1 1 1 
1 1 1 1 1 1 1 1 1 
1 1 1 1 1 1 1 1 1 
1 1 1 1 1 1 1 1 1 
1 1 1 1 1 1 1 1 1 
1 1 1 1 1 1 1 1 1 
1 1 1 1 1 1 1 1 1 
1 1 1 1 1 1 1 1 1 
1 1 1 1 1 1 1 1 1 
1 1 1 1 1 1 1 1 1 
1 1 1 1 1 1 1 1 1 
1 1 1 1 1 1 1 1 1 
1 1 1 1 1 1 1 1 1 
1 1 1 1 1 1 1 1 1 
1 1 1 1 1 1 1 1 1 
1 1 1 1 1 1 1 1 1 
1 1 1 1 1 1 1 1 1 
1 1 1 1 1 1 1 1 1 
1 1 1 1 1 1 1 1 1 
1 1 1 1 1 1 1 1 1 
1 1 1 1 1 1 1 1 1 
1 1 1 1 1 1 1 1 1 
1 1 1 1 1 1 1 1 1 
1 1 1 1 1 1 1 1 1 
1 1 1 1 1 1 1 1 1 
1 1 1 1 1 1 1 1 1 
1 1 1 1 1 1 1 1 1 
1 1 1 1 1 1 1 1 1 
1 1 1 1 1 1 1 1 1 
1 1 1 1 1 1 1 1 1 
1 1 1 1 1 1 1 1 1 
1 1 1 1 1 1 1 1 1 
1 1 1 1 1 1 1 1 1 
1 1 1 1 1 1 1 1 1 
1 1 1 1 1 1 1 1 1 
1 1 1 1 1 1 1 1 1 
1 1 1 1 1 1 1 1 1 
1 1 1 1 1 1 1 1 1 
1 1 1 1 1 1 1 1 1 
1 1 1 1 1 1 1 1 1 
1 1 1 1 1 1 1 1 1 
1 1 1 1 1 1 1 1 1 
1 1 1 1 1 1 1 1 1 
1 1 1 1 1 1 1 1 1 
1 1 1 1 1 1 1 1 1 
1 1 1 1 1 1 1 1 1 
1 1 1 1 1 1 1 1 1 
1 1 1 1 1 1 1 1 1 
1 1 1 1 1 1 1 1 1 
1 1 1 1 1 1 1 1 1 
1 1 1 1 1 1 1 1 1 
1 1 1 1 1 1 1 1 1 
1 1 1 1 1 1 1 1 1 
1 1 1 1 1 1 1 1 1 
1 1 1 1 1 1 1 1 1 
1 1 1 1 1 1 1 1 1 
1 1 1 1 1 1 1 1 1 
1 1 1 1 1 1 1 1 1 
1 1 1 1 1 1 1 1 1 
1 1 1 1 1 1 1 1 1 
1 1 1 1 1 1 1 1 1 
1 1 1 1 1 1 1 1 1 
1 1 1 1 1 1 1 1 1 
1 1 1 1 1 1 1 1 1 
1 1 1 1 1 1 1 1 1 
1 1 1 1 1 1 1 1 1 
1 1 1 1 1 1 1 1 1 
1 1 1 1 1 1 1 1 1 
1 1 1 1 1 1 1 1 1 
1 1 1 1 1 1 1 1 1 
1 1 1 1 1 1 1 1 1 
1 1 1 1 1 1 1 1 1 
1 1 1 1 1 1 1 1 1 
1 1 1 1 1 1 1 1 1 
1 1 1 1 1 1 1 1 1 
1 1 1 1 1 1 1 1 1 
1 1 1 1 1 1 1 1 1 
1 1 1 1 1 1 1 1 1 
1 1 1 1 
NORMALS Normals float
0 -0.992278 -0.124035 0 -1 0 -0.184289 -0.982872 0 
0.184289 -0.982872 0 0 1 0 -0.0490708 -0.526563 -0.848719 
-0.170674 -0.96138 0.215915 -0.359543 -0.899827 0.247065 0.329728 0.511411 -0.793561 
0.229372 -0.926118 -0.29949 0.504243 -0.809039 -0.301984 -0.0879873 0.932427 -0.350482 
0.0420654 0.965353 0.257534 0 -0.992278 0.124035 0 -0.992278 -0.124035 
0 -1 0 -0.184289 -0.982872 0 0.184289 -0.982872 0 
-0.34749 -0.7802 0.520133 0 1 0 0.02878 -0.978488 0.204289 
0 -0.992278 -0.124035 0 -1 0 -0.184289 -0.982872 0 
0 -0.992278 0.124035 0.184289 -0.982872 0 0 1 0 
0 -0.992278 0.124035 0 -0.992278 -0.124035 0 -1 0 
-0.242536 -0.970143 0 0.242536 -0.970143 0 0 1 0 
0 -0.992278 -0.124035 0 -1 0 -0.242536 -0.970143 0 
0 -0.992278 0.124035 0.242536 -0.970143 0 0 1 0 
-0.124231 -0.87533 -0.467294 -0.122837 -0.967276 -0.222012 -0.314765 -0.839375 -0.44314 
0.218349 -0.975533 0.0256624 0.118806 0.948068 -0.295048 0 -0.992278 0.124035 
0.176821 -0.930052 0.322082 -0.13209 -0.991206 0.00792146 0.434237 0.641697 0.632189 
0 -0.992278 -0.124035 0 -1 0 -0.242536 -0.970143 0 
-0.216781 0.925888 0.309413 0.242536 -0.970143 0 0 1 0 
0 -0.992278 -0.124035 0 -1 0 -0.242536 -0.970143 0 
-0.0807162 0.0509615 0.995434 0.242536 -0.970143 0 -0.498081 0.817722 0.288523 
-0.386339 0.842618 0.375149 -0.263571 0.850044 0.456021 -0.0672118 0.825824 0.559908 
-0.313328 0.849216 0.425038 0 1 0 0 -0.992278 0.124035 
0.422697 0.589371 0.688455 0.206112 -0.847324 -0.489448 0.0270992 0.800481 0.598745 
-0.406812 0.839184 0.360936 0.00832921 0.805513 0.592519 -0.596877 0.777428 0.198353 
0.576546 0.449212 0.682498 0.395823 0.609428 0.686965 0.395823 0.609428 0.686965 
-0.513353 -0.512101 -0.688637 -0.437972 -0.577214 -0.689205 0 -0.992278 0.124035 
-0.154066 -0.751758 -0.641189 0.509854 0.518394 0.686525 0.0978945 0.775672 0.623498 
0.774476 -0.632469 0.0130204 -0.16521 -0.746474 -0.644579 0.042371 -0.820205 -0.570498 
-0.0234145 -0.801545 -0.597475 0.582871 -0.782959 -0.217342 -0.028046 -0.800188 -0.599094 
-0.515941 -0.509899 -0.688337 -0.33511 0.848765 0.409022 -0.595745 0.778737 0.196616 
-0.892456 0.315968 -0.322005 -0.270328 0.850841 0.450547 -0.275591 0.85087 0.447293 
-0.260402 -0.697694 -0.667394 -0.442645 0.833214 0.331392 -0.281518 -0.685801 -0.671137 
-0.19284 0.846962 0.495447 0.207546 0.726144 0.655469 0 -0.992278 -0.124035 
0 -1 0 -0.242536 -0.970143 0 -0.228397 -0.715712 -0.659994 
0.0646043 -0.826348 -0.559442 0.242536 -0.970143 0 0.0854532 -0.830645 -0.550205 
0.437766 -0.834324 -0.335059 0 1 0 -0.422833 0.465117 -0.777739 
-0.408488 0.503093 -0.761601 -0.435652 0.427088 -0.792341 0.322563 -0.688052 0.650029 
-0.794584 0.604885 -0.0524452 -0.581671 0.785827 0.21008 -0.542626 0.802851 0.246955 
-0.0954717 -0.777008 -0.622209 0.244109 0.707159 0.663578 0.621038 0.400938 0.673469 
-0.429485 0.445354 -0.785622 -0.539068 -0.4877 -0.686698 0.0469701 -0.821691 -0.567994 
0.186267 0.737062 0.64965 0.766926 -0.641689 0.00766206 0 -0.992278 0.124035 
-0.48128 -0.541175 -0.689565 -0.0274699 0.817151 0.575768 -0.515431 0.0572499 -0.855016 
-0.332949 -0.860139 -0.386402 -0.52096 0.00272957 -0.853577 0.193842 -0.858748 0.474318 
0.422886 -0.473469 0.772654 0.225553 -0.826303 0.516089 -0.465559 0.828137 0.31216 
-0.385433 0.553612 -0.738211 0.178099 -0.846162 -0.502286 -0.451864 0.375165 -0.809364 
-0.509011 0.135047 -0.8501 -0.502164 0.173724 -0.847143 -0.440935 0.409657 -0.798598 
-0.398794 0.525738 -0.751374 -0.291283 0.733837 -0.613708 -0.351672 0.629148 -0.693181 
0.554624 0.471798 0.685418 0.71531 0.276444 0.641803 -0.446754 0.391738 -0.804333 
-0.406368 0.505465 -0.761164 -0.322493 0.681412 -0.65702 0.523108 0.0331393 0.851622 
0.456428 -0.360953 0.813257 0.40317 -0.512942 0.757855 0.415349 -0.479742 0.772873 
0.338269 -0.65297 0.677646 0.407704 -0.504641 0.760996 0.402984 -0.514282 0.757045 
0.312785 -0.702781 0.638955 0.335684 -0.647935 0.683737 0.400984 -0.5134 0.758704 
0.325649 -0.663987 0.673108 0.453064 -0.370825 0.810693 0.482461 -0.258578 0.83688 
0.473367 -0.298746 0.828658 0.485688 -0.241322 0.840161 0.423993 -0.462327 0.77877 