# vtk DataFile Version 4.2
vtk output
ASCII
DATASET POLYDATA
POINTS 3632 float
364.522 50.5263 150.405 364.523 50.5 150.415 364.443 50.4736 150.455 
364.556 50.5099 150.425 364.185 50.3375 150.632 364.509 50.5491 150.433 
364.564 50.5371 150.424 364.403 50.5585 150.541 364.545 50.5501 150.477 
365.003 50.6482 150.708 364.955 50.6362 150.748 365.012 50.6525 150.713 
364.996 50.6299 150.731 364.976 50.6253 150.765 363.558 48.6443 151.376 
363.588 48.5616 151.439 363.491 48.5947 151.397 363.639 48.687 151.408 
363.458 48.7721 151.359 367 50.0087 149.017 367 50.0087 149.017 
367 50.0087 149.017 367 50.0087 149.017 362.587 50.3749 151.109 
362.434 50.1991 151.097 363.22 50.3612 150.933 363.806 50.4117 150.753 
364.029 49.9573 150.884 364.454 50.2406 150.748 367 50.0088 149.017 
364.577 50.4824 150.536 361.547 50.5219 151.567 364.078 50.5667 150.736 
364.392 50.5941 150.676 364.556 50.5529 150.602 364.924 50.6005 150.746 
364.779 50.5958 150.811 364.917 50.5358 150.852 361.976 50.6326 151.568 
364.854 50.5865 150.902 363.489 48.4879 151.461 363.502 48.4215 151.51 
363.552 48.4453 151.541 363.302 48.556 151.469 363.803 48.9269 151.387 
362.283 49.6752 151.14 362.109 49.6383 151.162 362.91 48.8152 151.433 
361.683 49.887 151.313 367 50.0087 149.017 364.723 50.4568 150.776 
364.853 50.2825 151.111 361.067 50.3893 151.658 364.557 50.5873 150.776 
364.045 50.6549 151.111 362.596 48.2151 151.956 363.444 48.3077 151.795 
364.411 49.0178 151.909 364.614 49.7606 151.334 364.915 50.2591 151.431 
358.344 50.4573 152.651 364.795 50.3444 151.583 358.86 50.7806 152.609 
359.637 50.7284 152.462 358.354 50.8675 152.799 362.792 47.586 152.861 
360.783 49.0356 151.961 364.836 49.6117 152.325 364.937 49.9903 151.907 
364.97 50.1465 151.692 364.938 50.2447 151.628 364.969 50.1949 151.718 
356.829 50.496 153.493 361.193 50.7692 152.704 356.036 50.9233 153.632 
355.393 51.0286 153.888 355.978 51.0009 153.691 357.007 50.9449 153.295 
357.995 50.924 153.037 362.549 47.2055 153.352 359.664 47.6408 153.468 
363.595 47.8902 152.613 363.957 47.8481 153.197 364.747 49.0169 152.963 
356.929 49.256 153.923 364.89 49.3498 152.834 364.909 49.4857 152.804 
364.967 49.4435 152.928 364.953 49.3873 152.952 364.971 49.4194 152.975 
355.324 50.5126 154.254 355.956 50.5098 154.109 356.648 50.4178 153.91 
364.85 50.0235 152.026 364.664 49.9167 152.391 364.712 49.6226 152.809 
364.893 49.447 152.982 364.953 50.1252 151.815 353.668 51.1516 154.598 
353.776 51.1152 154.574 356.254 50.6427 153.808 353.065 51.3247 154.852 
352.901 51.3081 154.966 353.635 51.1757 154.616 353.198 51.2912 154.801 
354.396 51.1395 154.269 354.235 51.1761 154.355 358.446 50.8959 153.057 
353.142 51.3058 154.852 354.855 51.1128 154.151 355.441 51.0212 154.032 
356.375 50.9673 153.66 360.328 45.114 155.471 363.319 47.1029 153.845 
363.485 46.9179 154.335 364.464 48.2926 153.374 364.166 47.7807 153.81 
364.58 48.7938 153.668 354.119 50.1943 155.141 354.973 49.7365 154.977 
364.841 49.2115 153.133 364.934 49.3668 153.036 364.845 49.3307 153.136 
353.86 50.9258 154.686 353.041 50.9006 155.207 356.235 50.2667 154.113 
360.772 50.4455 153.818 362.907 50.2319 153.28 353.18 51.1835 154.888 
354.064 51.119 154.442 356.49 50.7034 153.891 355.831 50.7044 154.206 
356.104 50.4696 154.417 357.233 50.6089 153.949 356.898 50.4632 154.275 
352.576 51.2708 155.19 353.598 51.2308 154.635 356.692 50.8824 153.684 
357.449 50.8155 153.589 352.454 51.3287 155.25 362.46 46.0292 154.888 
364.108 47.4709 154.652 364.29 47.825 154.123 364.492 48.3294 153.963 
355.342 48.9836 155.147 354.724 49.4998 155.624 364.556 48.5251 153.959 
364.534 48.5167 154.042 353.597 49.986 155.606 354.269 49.9082 155.437 
362.979 49.1564 154.695 364.119 48.7583 154.207 352.078 51.0264 155.668 
352.479 50.9151 155.582 352.362 51.0676 155.546 352.846 50.8908 155.435 
356.009 50.2809 154.962 360.1 50.1138 154.646 352.618 51.0752 155.376 
351.505 51.3688 155.798 362.059 44.7127 156.461 362.788 44.7366 156.886 
362.735 44.7551 156.798 363.663 46.2681 155.624 363.322 45.8332 156.059 
363.949 46.799 155.424 363.927 47.7017 155.081 353.293 49.326 156.059 
354.24 49.0526 155.893 352.44 49.8158 156.242 351.847 50.1279 156.568 
353.749 49.8243 155.905 354.496 50.1438 155.429 354.207 49.4998 156.303 
355.261 49.8005 155.77 354.852 49.5353 156.194 350.822 50.8777 156.391 
350.797 50.5251 156.665 351.418 50.4568 156.497 352.501 50.7284 155.835 
353.168 50.9268 155.285 352.812 51.1211 155.285 352.141 51.1641 155.637 
349.716 51.5051 156.885 350.321 51.4919 156.478 350.164 51.5087 156.604 
350.76 51.456 156.221 351.1 51.4103 156.067 350.423 51.4953 156.444 
362.836 44.5876 157.499 363.645 46.3187 155.994 363.859 46.6055 155.633 
363.84 46.6352 155.774 363.917 46.7695 155.615 353.111 46.7762 157.145 
363.76 46.8712 155.796 363.884 46.7331 155.725 361.54 48.6074 156.114 
350.664 49.974 156.987 351.446 49.6251 156.887 351.049 50.4019 156.873 
351.556 50.5238 156.503 351.356 50.1386 157.259 352.209 50.4251 156.309 
352.17 50.0979 156.824 350.716 50.7549 157.032 351.067 50.8542 156.638 
348.516 51.2741 157.552 348.638 51.6419 157.515 348.992 51.6494 157.418 
349.49 51.5312 157.227 350.252 51.4478 156.665 362.908 44.6175 157.991 
366 44.0087 158.017 366 44.0087 158.017 366 44.0087 158.017 
366 44.0087 158.017 363.118 45.2885 157.539 366 44.0088 158.017 
363.903 46.6796 155.692 363.251 46.0922 157.115 346.412 52.1019 158.688 
347.047 52.1728 158.593 360.015 41.9385 159.354 354.319 42.5246 159.496 
366 44.0087 158.017 362.856 44.0554 159.112 366.004 45.0131 159.009 
366.004 45.0131 159.009 366.004 45.0131 159.009 366.004 45.0131 159.009 
366.004 45.0131 159.009 349.253 47.2261 158.747 362.264 46.0117 158.343 
353.95 48.5184 158.777 344.732 52.0882 159.431 346.819 52.0583 159.675 
345.744 52.7856 159.891 342.993 53.8609 160.474 345.017 53.2039 159.916 
343.21 53.9238 160.428 343.215 54.0454 160.532 343.669 53.7667 160.26 
356.847 40.8414 160.546 362.389 42.9409 159.461 362.774 43.5589 159.599 
366.004 45.0131 159.009 362.815 44.1572 159.336 345.37 52.9133 160.257 
342.539 53.9074 160.704 344.104 53.7219 160.501 343.675 53.9587 160.594 
341.78 54.5928 161.431 342.978 54.2167 160.799 359.325 40.1368 161.813 
359.916 40.4448 161.656 351.181 42.6572 160.828 362.526 42.8628 159.926 
362.546 42.8722 160.13 362.756 43.4586 159.969 362.695 43.2038 160.055 
362.76 43.3092 160.101 362.694 44.0968 159.632 341.955 50.1428 161.548 
341.342 54.8047 161.748 341.585 54.786 161.76 341.189 54.9234 161.977 
361.813 41.7382 161.417 362.102 42.141 161.263 362.61 43.1896 160.354 
362.729 43.2557 160.177 340.37 54.4317 162.056 342.428 54.3393 161.922 
339.548 55.1062 163.117 341.36 54.8839 162.03 356.627 39.3254 162.462 
359.931 39.793 162.891 360.767 40.6875 162.342 360.822 40.7306 162.953 
361.859 41.6729 161.672 361.861 41.6669 161.756 361.704 41.6042 161.816 
361.927 41.7321 161.66 361.262 41.2509 161.942 362.029 41.8636 161.531 
362.065 41.8794 161.593 361.866 42.0919 161.691 362.317 42.5886 160.868 
337.529 54.1757 164.047 338.272 54.9766 163.754 339.323 55.2488 163.464 
341.221 54.8605 162.324 339.526 55.2551 163.403 359.848 39.3148 163.742 
360.188 39.6406 163.549 361.823 41.7071 161.835 361.418 41.659 162.217 
361.985 41.815 161.684 336.995 55.2935 164.826 337.016 55.6437 165.076 
338.86 55.3132 163.999 337.048 55.8634 165.356 337.383 55.8437 165.177 
357.604 38.3918 164.057 359.85 38.7942 165.18 360.497 39.8712 163.916 
360.458 39.792 164.254 359.301 41.285 164.668 340.281 46.7473 164.637 
337.106 50.5557 165.094 335.775 52.1939 165.741 338.842 55.2269 164.655 
337.613 55.7397 165.44 336.059 56.1292 166.149 336.658 56.0404 165.943 
336.191 56.2831 166.277 337.604 55.7922 165.158 335.924 56.3568 166.413 
359.665 38.2292 166.173 334.489 53.2292 166.722 339.31 54.0397 166.038 
334.287 55.1125 166.957 337.295 55.7112 166.095 335.806 56.4431 166.582 
335.7 56.4567 166.803 335.842 56.4686 166.64 351.057 37.5157 166.514 
359.458 37.9638 166.536 359.81 38.5769 165.944 360.001 39.4209 165.323 
360.236 39.5016 164.897 333.518 56.3731 168.017 334.212 56.3097 167.636 
333.44 57.2526 168.637 334.855 56.5983 167.952 334.141 57.0534 168.506 
335.663 56.4127 167.211 333.731 57.2806 168.651 332.898 58.0717 169.363 
332.874 58.0028 169.355 332.822 58.0903 169.478 332.928 58.0656 169.403 
356.964 35.9506 169.107 362 35.0087 168.017 362 35.0087 168.017 
362 35.0087 168.017 362 35.0087 168.017 356.72 36.2622 168.251 
359.359 37.6909 167.007 359.46 37.56 167.253 359.154 37.5433 167.222 
362 35.0088 168.017 358.579 37.3426 167.307 359.38 37.8628 167.076 
332.661 56.1706 168.539 332.129 57.0389 169.225 333.067 57.6967 169.133 
332.615 57.9991 169.606 332.724 58.1202 169.734 333.339 57.6995 169.262 
333.061 57.9328 169.426 332.888 58.0807 169.548 362 35.0087 168.017 
357.809 36.6621 169.225 359.368 37.5316 167.367 359.577 37.5168 167.323 
359.526 37.5871 167.274 359.598 37.5148 167.336 358.201 37.0783 168.252 
358.922 37.5768 167.611 359.413 37.5838 167.349 358.377 37.438 168.352 
331.375 58.0416 170.292 331.939 58.0067 170.01 332.387 58.2335 170.342 
353.692 35.0288 170.648 359.527 37.5131 167.362 357.653 36.3613 169.928 
359.593 37.4991 167.353 357.271 38.1543 169.535 330.502 59.1944 171.731 
355.758 34.9451 171.515 357.234 35.9113 170.871 356.717 37.3247 170.966 
335.737 42.6102 171.438 334.044 45.0376 171.223 329.683 58.6423 171.793 
331.776 58.725 171.807 330.629 59.4522 172.246 328.717 61.2338 173.519 
328.815 61.0597 173.436 330.199 59.745 172.282 328.794 61.2208 173.583 
328.628 61.3459 173.637 356.407 35.1802 171.535 356.676 35.3752 171.4 
357.158 35.7834 171.21 356.971 35.6418 171.391 357.118 35.7652 171.337 
357.436 36.301 170.541 357.187 36.0838 171.172 357.177 35.8619 171.224 
339.537 38.0741 172.334 356.934 36.4977 171.41 357.087 36.2624 171.326 
355.505 38.0514 171.543 336.886 40.9327 171.761 328.55 58.6959 172.741 
[...]
POINT_DATA 3632
SCALARS scalars float
LOOKUP_TABLE default
1 1 1 1 1 1 1 1 1 
1 1 1 1 1 1 1 1 1 
1 1 1 1 1 1 1 1 1 
1 1 1 1 1 1 1 1 1 
1 1 1 1 1 1 1 1 1 
1 1 1 1 1 1 1 1 1 
1 1 1 1 1 1 1 1 1 
1 1 1 1 1 1 1 1 1 
1 1 1 1 1 1 1 1 1 
1 1 1 1 1 1 1 1 1 
1 1 1 1 1 1 1 1 1 
1 1 1 1 1 1 1 1 1 
1 1 1 1 1 1 1 1 1 
1 1 1 1 1 1 1 1 1 
1 1 1 1 1 1 1 1 1 
1 1 1 1 1 1 1 1 1 
1 1 1 1 1 1 1 1 1 
1 1 1 1 1 1 1 1 1 
1 1 1 1 1 1 1 1 1 
1 1 1 1 1 1 1 1 1 
1 1 1 1 1 1 1 1 1 
1 1 1 1 1 1 1 1 1 
1 1 1 1 1 1 1 1 1 
1 1 1 1 1 1 1 1 1 
1 1 1 1 1 1 1 1 1 
1 1 1 1 1 1 1 1 1 
1 1 1 1 1 1 1 1 1 
1 1 1 1 1 1 1 1 1 
1 1 1 1 1 1 1 1 1 
1 1 1 1 1 1 1 1 1 
1 1 1 1 1 1 1 1 1 
1 1 1 1 1 1 1 1 1 
1 1 1 1 1 1 1 1 1 
1 1 1 1 1 1 1 1 1 
1 1 1 1 1 1 1 1 1 
1 1 1 1 1 1 1 1 1 
1 1 1 1 1 1 1 1 1 
1 1 1 1 1 1 1 1 1 
1 1 1 1 1 1 1 1 1 
1 1 1 1 1 1 1 1 1 
1 1 1 1 1 1 1 1 1 
1 1 1 1 1 1 1 1 1 
1 1 1 1 1 1 1 1 1 
1 1 1 1 1 1 1 1 1 
1 1 1 1 1 1 1 1 1 
1 1 1 1 1 1 1 1 1 
1 1 1 1 1 1 1 1 1 
1 1 1 1 1 1 1 1 1 
1 1 1 1 1 1 1 1 1 
1 1 1 1 1 1 1 1 1 
1 1 1 1 1 1 1 1 1 
1 1 1 1 1 1 1 1 1 
1 1 1 1 1 1 1 1 1 
1 1 1 1 1 1 1 1 1 
1 1 1 1 1 1 1 1 1 
1 1 1 1 1 1 1 1 1 
1 1 1 1 1 1 1 1 1 
1 1 1 1 1 1 1 1 1 
1 1 1 1 1 1 1 1 1 
1 1 1 1 1 1 1 1 1 
1 1 1 1 1 1 1 1 1 
1 1 1 1 1 1 1 1 1 
1 1 1 1 1 1 1 1 1 
1 1 1 1 1 1 1 1 1 
1 1 1 1 1 1 1 1 1 
1 1 1 1 1 1 1 1 1 
1 1 1 1 1 1 1 1 1 
1 1 1 1 1 1 1 1 1 
1 1 1 1 1 1 1 1 1 
1 1 1 1 1 1 1 1 1 
1 1 1 1 1 1 1 1 1 
1 1 1 1 1 1 1 1 1 
1 1 1 1 1 1 1 1 1 
1 1 1 1 1 1 1 1 1 
1 1 1 1 1 1 1 1 1 
1 1 1 1 1 1 1 1 1 
1 1 1 1 1 1 1 1 1 
1 1 1 1 1 1 1 1 1 
1 1 1 1 1 1 1 1 1 
1 1 1 1 1 1 1 1 1 
1 1 1 1 1 1 1 1 1 
1 1 1 1 1 1 1 1 1 
1 1 1 1 1 1 1 1 1 
1 1 1 1 1 1 1 1 1 
1 1 1 1 1 1 1 1 1 
1 1 1 1 1 1 1 1 1 
1 1 1 1 1 1 1 1 1 
1 1 1 1 1 1 1 1 1 
1 1 1 1 1 1 1 1 1 
1 1 1 1 1 1 1 1 1 
1 1 1 1 1 1 1 1 1 
1 1 1 1 1 1 1 1 1 
1 1 1 1 1 1 1 1 1 
1 1 1 1 1 1 1 1 1 
1 1 1 1 1 1 1 1 1 
1 1 1 1 1 1 1 1 1 
1 1 1 1 1 1 1 1 1 
1 1 1 1 1 1 1 1 1 
1 1 1 1 1 1 1 1 1 
1 1 1 1 1 1 1 1 1 
1 1 1 1 1 1 1 1 1 
1 1 1 1 1 1 1 1 1 
1 1 1 1 1 1 1 1 1 
1 1 1 1 1 1 1 1 1 
1 1 1 1 1 1 1 1 1 
1 1 1 1 1 1 1 1 1 
1 1 1 1 1 1 1 1 1 
1 1 1 1 1 1 1 1 1 
1 1 1 1 1 1 1 1 1 
1 1 1 1 1 1 1 1 1 
1 1 1 1 1 1 1 1 1 
1 1 1 1 1 1 1 1 1 
1 1 1 1 1 1 1 1 1 
1 1 1 1 1 1 1 1 1 
1 1 1 1 1 1 1 1 1 
1 1 1 1 1 1 1 1 1 
1 1 1 1 1 1 1 1 1 
1 1 1 1 1 1 1 1 1 
1 1 1 1 1 1 1 1 1 
1 1 1 1 1 1 1 1 1 
1 1 1 1 1 1 1 1 1 
1 1 1 1 1 1 1 1 1 
1 1 1 1 1 1 1 1 1 
1 1 1 1 1 1 1 1 1 
1 1 1 1 1 1 1 1 1 
1 1 1 1 1 1 1 1 1 
1 1 1 1 1 1 1 1 1 
1 1 1 1 1 1 1 1 1 
1 1 1 1 1 1 1 1 1 
1 1 1 1 1 1 1 1 1 
1 1 1 1 1 1 1 1 1 
1 1 1 1 1 1 1 1 1 
1 1 1 1 1 1 1 1 1 
1 1 1 1 1 1 1 1 1 
1 1 1 1 1 1 1 1 1 
1 1 1 1 1 1 1 1 1 
1 1 1 1 1 1 1 1 1 
1 1 1 1 1 1 1 1 1 
1 1 1 1 1 1 1 1 1 
1 1 1 1 1 1 1 1 1 
1 1 1 1 1 1 1 1 1 
1 1 1 1 1 1 1 1 1 
1 1 1 1 1 1 1 1 1 
1 1 1 1 1 1 1 1 1 
1 1 1 1 1 1 1 1 1 
1 1 1 1 1 1 1 1 1 
1 1 1 1 1 1 1 1 1 
1 1 1 1 1 1 1 1 1 
1 1 1 1 1 1 1 1 1 
1 1 1 1 1 1 1 1 1 
1 1 1 1 1 1 1 1 1 
1 1 1 1 1 1 1 1 1 
1 1 1 1 1 1 1 1 1 
1 1 1 1 1 1 1 1 1 
1 1 1 1 1 1 1 1 1 
1 1 1 1 1 1 1 1 1 
1 1 1 1 1 1 1 1 1 
1 1 1 1 1 1 1 1 1 
1 1 1 1 1 1 1 1 1 
1 1 1 1 1 1 1 1 1 
1 1 1 1 1 1 1 1 1 
1 1 1 1 1 1 1 1 1 
1 1 1 1 1 1 1 1 1 
1 1 1 1 1 1 1 1 1 
1 1 1 1 1 1 1 1 1 
1 1 1 1 1 1 1 1 1 
1 1 1 1 1 1 1 1 1 
1 1 1 1 1 1 1 1 1 
1 1 1 1 1 1 1 1 1 
1 1 1 1 1 1 1 1 1 
1 1 1 1 1 1 1 1 1 
1 1 1 1 1 1 1 1 1 
1 1 1 1 1 1 1 1 1 
1 1 1 1 1 1 1 1 1 
1 1 1 1 1 1 1 1 1 
1 1 1 1 1 1 1 1 1 
1 1 1 1 1 1 1 1 1 
1 1 1 1 1 1 1 1 1 
1 1 1 1 1 1 1 1 1 
1 1 1 1 1 1 1 1 1 
1 1 1 1 1 1 1 1 1 
1 1 1 1 1 1 1 1 1 
1 1 1 1 1 1 1 1 1 
1 1 1 1 1 1 1 1 1 
1 1 1 1 1 1 1 1 1 
1 1 1 1 1 1 1 1 1 
1 1 1 1 1 1 1 1 1 
1 1 1 1 1 1 1 1 1 
1 1 1 1 1 1 1 1 1 
1 1 1 1 1 1 1 1 1 
1 1 1 1 1 1 1 1 1 
1 1 1 1 1 1 1 1 1 
1 1 1 1 1 1 1 1 1 
1 1 1 1 1 1 1 1 1 
1 1 1 1 1 1 1 1 1 
1 1 1 1 1 1 1 1 1 
1 1 1 1 1 1 1 1 1 
1 1 1 1 1 1 1 1 1 
1 1 1 1 1 1 1 1 1 
1 1 1 1 1 1 1 1 1 
1 1 1 1 1 1 1 1 1 
1 1 1 1 1 1 1 1 1 
1 1 1 1 1 1 1 1 1 
1 1 1 1 1 1 1 1 1 
1 1 1 1 1 1 1 1 1 
1 1 1 1 1 1 1 1 1 
1 1 1 1 1 1 1 1 1 
1 1 1 1 1 1 1 1 1 
1 1 1 1 1 1 1 1 1 
1 1 1 1 1 1 1 1 1 
1 1 1 1 1 1 1 1 1 
1 1 1 1 1 1 1 1 1 
1 1 1 1 1 1 1 1 1 
1 1 1 1 1 1 1 1 1 
1 1 1 1 1 1 1 1 1 
1 1 1 1 1 1 1 1 1 
1 1 1 1 1 1 1 1 1 
1 1 1 1 1 1 1 1 1 
1 1 1 1 1 1 1 1 1 
1 1 1 1 1 1 1 1 1 
1 1 1 1 1 1 1 1 1 
1 1 1 1 1 1 1 1 1 
1 1 1 1 1 1 1 1 1 
1 1 1 1 1 1 1 1 1 
1 1 1 1 1 1 1 1 1 
1 1 1 1 1 1 1 1 1 
1 1 1 1 1 1 1 1 1 
1 1 1 1 1 1 1 1 1 
1 1 1 1 1 1 1 1 1 
1 1 1 1 1 1 1 1 1 
1 1 1 1 1 1 1 1 1 
1 1 1 1 1 1 1 1 1 
1 1 1 1 1 1 1 1 1 
1 1 1 1 1 1 1 1 1 
1 1 1 1 1 1 1 1 1 
1 1 1 1 1 1 1 1 1 
1 1 1 1 1 1 1 1 1 
1 1 1 1 1 1 1 1 1 
1 1 1 1 1 1 1 1 1 
1 1 1 1 1 1 1 1 1 
1 1 1 1 1 1 1 1 1 
1 1 1 1 1 1 1 1 1 
1 1 1 1 1 1 1 1 1 
1 1 1 1 1 1 1 1 1 
1 1 1 1 1 1 1 1 1 
1 1 1 1 1 1 1 1 1 
1 1 1 1 1 1 1 1 1 
1 1 1 1 1 1 1 1 1 
1 1 1 1 1 1 1 1 1 
1 1 1 1 1 1 1 1 1 
1 1 1 1 1 1 1 1 1 
1 1 1 1 1 1 1 1 1 
1 1 1 1 1 1 1 1 1 
1 1 1 1 1 1 1 1 1 
1 1 1 1 1 1 1 1 1 
1 1 1 1 1 1 1 1 1 
1 1 1 1 1 1 1 1 1 
1 1 1 1 1 1 1 1 1 
1 1 1 1 1 1 1 1 1 
1 1 1 1 1 1 1 1 1 
1 1 1 1 1 1 1 1 1 
1 1 1 1 1 1 1 1 1 
1 1 1 1 1 1 1 1 1 
1 1 1 1 1 1 1 1 1 
1 1 1 1 1 1 1 1 1 
1 1 1 1 1 1 1 1 1 
1 1 1 1 1 1 1 1 1 
1 1 1 1 1 1 1 1 1 
1 1 1 1 1 1 1 1 1 
1 1 1 1 1 1 1 1 1 
1 1 1 1 1 1 1 1 1 
1 1 1 1 1 1 1 1 1 
1 1 1 1 1 1 1 1 1 
1 1 1 1 1 1 1 1 1 
1 1 1 1 1 1 1 1 1 
1 1 1 1 1 1 1 1 1 
1 1 1 1 1 1 1 1 1 
1 1 1 1 1 1 1 1 1 
1 1 1 1 1 1 1 1 1 
1 1 1 1 1 1 1 1 1 
1 1 1 1 1 1 1 1 1 
1 1 1 1 1 1 1 1 1 
1 1 1 1 1 1 1 1 1 
1 1 1 1 1 1 1 1 1 
1 1 1 1 1 1 1 1 1 
1 1 1 1 1 1 1 1 1 
1 1 1 1 1 1 1 1 1 
1 1 1 1 1 1 1 1 1 
1 1 1 1 1 1 1 1 1 
1 1 1 1 1 1 1 1 1 
1 1 1 1 1 1 1 1 1 
1 1 1 1 1 1 1 1 1 
1 1 1 1 1 1 1 1 1 
1 1 1 1 1 1 1 1 1 
1 1 1 1 1 1 1 1 1 
1 1 1 1 1 1 1 1 1 
1 1 1 1 1 1 1 1 1 
1 1 1 1 1 1 1 1 1 
1 1 1 1 1 1 1 1 1 
1 1 1 1 1 1 1 1 1 
1 1 1 1 1 1 1 1 1 
1 1 1 1 1 1 1 1 1 
1 1 1 1 1 1 1 1 1 
1 1 1 1 1 1 1 1 1 
1 1 1 1 1 1 1 1 1 
1 1 1 1 1 1 1 1 1 
1 1 1 1 1 1 1 1 1 
1 1 1 1 1 1 1 1 1 
1 1 1 1 1 1 1 1 1 
1 1 1 1 1 1 1 1 1 
1 1 1 1 1 1 1 1 1 
1 1 1 1 1 1 1 1 1 
1 1 1 1 1 1 1 1 1 
1 1 1 1 1 1 1 1 1 
1 1 1 1 1 1 1 1 1 
1 1 1 1 1 1 1 1 1 
1 1 1 1 1 1 1 1 1 
1 1 1 1 1 1 1 1 1 
1 1 1 1 1 1 1 1 1 
1 1 1 1 1 1 1 1 1 
1 1 1 1 1 1 1 1 1 
1 1 1 1 1 1 1 1 1 
1 1 1 1 1 1 1 1 1 
1 1 1 1 1 1 1 1 1 
1 1 1 1 1 1 1 1 1 
1 1 1 1 1 1 1 1 1 
1 1 1 1 1 1 1 1 1 
1 1 1 1 1 1 1 1 1 
1 1 1 1 1 1 1 1 1 
1 1 1 1 1 1 1 1 1 
1 1 1 1 1 1 1 1 1 
1 1 1 1 1 1 1 1 1 
1 1 1 1 1 1 1 1 1 
1 1 1 1 1 1 1 1 1 
1 1 1 1 1 1 1 1 1 
1 1 1 1 1 1 1 1 1 
1 1 1 1 1 1 1 1 1 
1 1 1 1 1 1 1 1 1 
1 1 1 1 1 1 1 1 1 
1 1 1 1 1 1 1 1 1 
1 1 1 1 1 1 1 1 1 
1 1 1 1 1 1 1 1 1 
1 1 1 1 1 1 1 1 1 
1 1 1 1 1 1 1 1 1 
1 1 1 1 1 1 1 1 1 
1 1 1 1 1 1 1 1 1 
1 1 1 1 1 1 1 1 1 
1 1 1 1 1 1 1 1 1 
1 1 1 1 1 1 1 1 1 
1 1 1 1 1 1 1 1 1 
1 1 1 1 1 1 1 1 1 
1 1 1 1 1 1 1 1 1 
1 1 1 1 1 1 1 1 1 
1 1 1 1 1 1 1 1 1 
1 1 1 1 1 1 1 1 1 
1 1 1 1 1 1 1 1 1 
1 1 1 1 1 1 1 1 1 
1 1 1 1 1 1 1 1 1 
1 1 1 1 1 1 1 1 1 
1 1 1 1 1 1 1 1 1 
1 1 1 1 1 1 1 1 1 
1 1 1 1 1 1 1 1 1 
1 1 1 1 1 1 1 1 1 
1 1 1 1 1 1 1 1 1 
1 1 1 1 1 1 1 1 1 
1 1 1 1 1 1 1 1 1 
1 1 1 1 1 1 1 1 1 
1 1 1 1 1 1 1 1 1 
1 1 1 1 1 1 1 1 1 
1 1 1 1 1 1 1 1 1 
1 1 1 1 1 1 1 1 1 
1 1 1 1 1 1 1 1 1 
1 1 1 1 1 1 1 1 1 
1 1 1 1 1 1 1 1 1 
1 1 1 1 1 1 1 1 1 
1 1 1 1 1 1 1 1 1 
1 1 1 1 1 1 1 1 1 
1 1 1 1 1 1 1 1 1 
1 1 1 1 1 1 1 1 1 
1 1 1 1 1 1 1 1 1 
1 1 1 1 1 1 1 1 1 
1 1 1 1 1 1 1 1 1 
1 1 1 1 1 1 1 1 1 
1 1 1 1 1 1 1 1 1 
1 1 1 1 1 1 1 1 1 
1 1 1 1 1 1 1 1 1 
1 1 1 1 1 1 1 1 1 
1 1 1 1 1 1 1 1 1 
1 1 1 1 1 1 1 1 1 
1 1 1 1 1 1 1 1 1 
1 1 1 1 1 1 1 1 1 
1 1 1 1 1 1 1 1 1 
1 1 1 1 1 1 1 1 1 
1 1 1 1 1 1 1 1 1 
1 1 1 1 1 1 1 1 1 
1 1 1 1 1 1 1 1 1 
1 1 1 1 1 1 1 1 1 
1 1 1 1 1 1 1 1 1 
1 1 1 1 1 1 1 1 1 
1 1 1 1 1 1 1 1 1 
1 1 1 1 1 1 1 1 1 
1 1 1 1 1 1 1 1 1 
1 1 1 1 1 1 1 1 1 
1 1 1 1 1 
NORMALS Normals float
-0.242071 0.259738 -0.934847 0.16178 -0.687756 -0.707685 -0.414713 -0.275502 -0.867244 
0.593139 -0.478387 -0.647558 -0.252449 -0.408745 -0.877039 -0.0939574 0.904801 -0.41534 
0.696462 0.522734 -0.49162 -0.13583 0.946213 -0.293653 0.461879 0.886143 -0.0376619 
-0.505027 0.779881 -0.369775 -0.26631 0.959674 -0.0900284 0.755881 0.585891 0.29219 
0.711157 -0.692427 -0.121659 0.650108 0.418229 0.634384 0.226392 -0.286511 -0.930945 
0.461553 -0.551027 -0.695225 -0.0606029 -0.423341 -0.903941 0.584488 -0.316645 -0.747068 
0.0300182 -0.28132 -0.959144 0 -0.992278 -0.124035 0 -1 0 
-0.184289 -0.982872 0 0.184289 -0.982872 0 -0.140263 0.299125 -0.943849 
-0.210626 0.180656 -0.960729 -0.265873 0.179663 -0.947118 -0.373683 0.200959 -0.905526 
0.0579589 -0.477517 -0.876709 0.414526 -0.683636 -0.600674 0 1 0 
0.931124 -0.197714 -0.30646 -0.248933 0.724224 -0.643065 -0.19059 0.897951 -0.396685 
0.0254031 0.990081 -0.138178 0.479844 0.853977 -0.201181 -0.118519 -0.275885 -0.953856 
-0.222092 0.766571 -0.602531 0.96548 -0.260066 0.0146346 -0.154939 0.922449 -0.353668 
0.219793 0.93452 0.279933 0.149838 -0.570029 -0.807846 0.0231565 -0.818823 -0.573579 
0.626999 -0.611126 -0.483112 -0.319993 -0.557253 -0.766207 0.391383 -0.377759 -0.839117 
-0.113922 -0.134058 -0.984403 -0.2512 -0.288241 -0.924021 -0.260604 -0.550122 -0.79338 
-0.335505 0.0410393 -0.941144 0 -0.992278 0.124035 0.590993 -0.156121 -0.791425 
0.769222 -0.482462 -0.41896 -0.315541 0.586834 -0.745694 0.148301 0.973465 -0.174275 
0.0113298 0.989568 -0.143618 -0.148415 -0.754771 -0.638978 0.363141 -0.863566 -0.349832 
0.765434 -0.562028 -0.313424 0.551054 -0.530318 -0.644284 0.955675 0.29041 -0.0484518 
-0.372087 0.0413449 -0.927277 0.517109 0.7885 0.332967 -0.0431286 0.835657 -0.547555 
-0.118333 0.820955 -0.558597 -0.139363 0.774483 -0.617052 0.0296027 -0.857036 -0.514406 
-0.336163 -0.539579 -0.771912 0.999796 -0.00816687 0.0184873 0.962692 0.0379823 0.267922 
0.973429 -0.175478 -0.147115 0.82396 0.566489 -0.0134392 0.760503 0.571894 0.307526 
-0.56257 -0.561836 -0.606511 0.0275275 0.994921 0.0968202 -0.403005 -0.289156 -0.868318 
-0.28796 0.432518 -0.854405 -0.113058 0.868079 -0.48338 -0.0331112 0.976969 -0.210796 
0.0693381 0.997515 0.0125114 0.0869246 -0.800731 -0.592683 -0.267404 -0.611268 -0.74488 
0.325726 -0.832658 -0.447865 0.50372 -0.770696 -0.390249 0.898519 -0.42585 -0.106372 
-0.486549 -0.317436 -0.813944 0.887291 -0.396147 -0.236183 0.906289 0.406016 -0.117438 
0.900493 0.432313 -0.0470867 0.870018 -0.448667 -0.20437 0.904256 0.237243 0.355016 
-0.347093 -0.484613 -0.802917 0.767798 -0.388554 -0.509423 -0.911826 0.395344 -0.110796 
0.592867 0.60116 0.535832 0.641985 0.631035 0.435489 0.514834 0.764743 0.387446 
0.341621 0.803318 0.487828 0.897899 0.238389 0.370066 -0.461199 -0.300171 -0.83498 
-0.309774 -0.252096 -0.916781 -0.28039 -0.917416 -0.282364 0.231729 0.948627 0.215425 
-0.523489 0.207326 -0.826423 -0.457862 -0.18364 -0.86985 0.149687 0.982004 -0.115165 
-0.399922 -0.273174 -0.874893 -0.234723 0.689093 -0.685607 0.126618 0.950956 0.282224 
0.217069 0.948721 0.229804 0.101959 0.994412 0.0273512 0.273774 0.86031 0.430017 
0.180882 0.917526 0.354158 -0.127819 -0.744197 -0.655616 0.397245 -0.804329 -0.441871 
0.522467 -0.742449 -0.419283 0.8542 -0.485319 -0.186567 0.724484 -0.641706 -0.251668 
0.950426 0.0382708 0.308586 -0.392039 -0.61979 -0.679828 -0.549157 -0.594643 -0.587219 
0.909976 -0.374355 0.178332 0.828539 0.0628846 0.556389 0.58908 0.483892 0.647173 
-0.422744 -0.602585 -0.676889 -0.443092 -0.570248 -0.691727 -0.1617 0.272668 -0.948423 
0.140956 0.878973 0.455563 0.314014 0.83451 0.452757 -0.442251 -0.498367 -0.745684 
-0.401253 -0.262934 -0.877418 0.189888 0.163394 0.968114 0.524076 0.652597 0.547231 
0.232234 0.97261 0.00988944 0.0474052 0.760488 0.647619 0.149936 0.889654 0.431319 
-0.462291 -0.491075 -0.738331 -0.432926 -0.177028 -0.883876 0.217409 0.80323 0.554577 
0.125072 0.885544 0.447402 -0.00700872 0.999373 -0.034691 0.232517 -0.763897 -0.601995 
0.95755 -0.270876 0.0986152 0.860239 -0.492644 -0.131495 0.949142 -0.311339 0.0468874 
-0.603269 -0.2641 -0.752541 -0.912223 0.396975 -0.101288 0.98518 -0.137993 0.101876 
0.817195 0.161836 0.553174 -0.199108 -0.682161 -0.703571 -0.275045 -0.955266 -0.108701 
0.412081 0.597441 0.687934 0.537608 0.508304 0.672759 -0.301167 -0.676003 -0.672545 
-0.382626 -0.495697 -0.779668 0.570925 -0.444463 0.690288 0.206743 0.842746 0.497027 
0.081368 0.869242 0.487645 0.0491265 0.85923 0.509226 0.269762 -0.761819 0.588949 
-0.499339 -0.135179 -0.855796 0.205688 -0.893301 -0.399631 0.697214 -0.669435 -0.256418 
0.402616 -0.763608 -0.50478 0.783653 -0.603644 -0.14664 0.64289 -0.686172 -0.340383 
0.89655 -0.425656 -0.122532 0.785593 0.279121 0.552209 -0.163155 -0.399219 -0.902222 
-0.323013 0.07924 -0.943071 -0.483309 -0.468842 -0.739324 -0.724131 0.632177 0.275657 
0.990396 0.127053 -0.0545186 0.20164 0.498554 0.843081 0.167766 0.985728 -0.0139821 
-0.0323955 0.826843 0.5615 -0.231655 0.959501 0.160292 -0.430095 -0.568455 -0.701339 
-0.214557 -0.640018 -0.737796 -0.306172 -0.950119 -0.0594322 0.330245 0.741396 0.584183 
0.304836 0.667715 0.67914 0.438342 0.435073 0.78649 0.441921 0.627981 0.640583 
-0.237958 0.820002 -0.52055 -0.204782 0.893412 -0.39985 0.0394622 0.998881 0.0260722 
-0.516304 -0.23 -0.824942 0.351929 0.828912 0.434799 0.11897 0.991139 0.0590799 
0.686848 -0.691347 -0.224232 0.901852 -0.35602 0.244771 0.886 -0.460251 0.056333 
0.803803 -0.183669 0.565832 0.973907 0.0547889 0.220236 -0.415693 -0.398998 -0.817313 
0.843602 0.187955 0.503 0.815074 0.176008 0.551975 0.287244 0.698712 0.655204 
-0.203288 -0.369969 -0.90653 -0.309779 -0.026709 -0.950433 0.952525 -0.186491 -0.24066 
0.44169 0.439221 0.782301 0.410537 0.868045 -0.279207 0.262295 0.760324 0.594229 
0.0460844 0.917742 0.394494 0.683942 0.691447 0.232648 0.582249 0.564342 0.585238 
-0.478814 -0.167796 -0.861732 -0.322984 0.556389 -0.76558 0.118881 0.979894 -0.160236 
0.368237 0.908663 0.196808 0.404137 0.805675 0.433083 0.971617 -0.227429 -0.0650849 
0 -0.992278 -0.124035 0 -1 0 -0.184289 -0.982872 0 
0.184289 -0.982872 0 0.95709 -0.283399 0.0605232 0 1 0 
0.934195 -0.252624 0.251915 0.866481 0.234252 0.440836 -0.316212 0.371485 -0.872931 
0.131815 0.912586 -0.387054 0.224434 -0.795807 -0.562424 -0.221369 -0.677992 -0.700945 
0 -0.992278 0.124035 0.986233 -0.129317 0.103061 0.0568766 -0.930677 -0.361393 
-0.285402 0.651473 -0.702943 0.202738 0.682628 -0.70208 0.285402 -0.651473 0.702943 
-0.0568766 0.930677 0.361393 -0.450267 -0.444928 -0.774144 0.46936 0.613437 0.635135 
0.266935 0.899544 0.345784 -0.545787 -0.11318 -0.830245 0.457814 0.867795 0.193234 
0.655679 0.669761 0.348574 -0.335104 0.377726 -0.86315 0.457617 0.883667 -0.0985898 
-0.25643 0.546043 -0.797546 0.011514 0.790613 -0.612208 0.0118517 0.696169 -0.71778 
0.00427893 -0.747081 -0.664719 0.72387 -0.568319 -0.391184 0.97772 -0.207654 -0.0307195 
-0.202738 -0.682628 0.70208 0.962189 0.0624989 0.265115 0.639355 0.641664 0.423666 
-0.56102 0.180092 -0.807975 0.563266 0.781356 0.268728 0.362895 0.917539 -0.162569 
-0.432366 0.460781 -0.775074 -0.102287 0.795109 -0.597779 0.270245 -0.825589 -0.495349 
0.357768 -0.804597 -0.473948 -0.439383 -0.553853 -0.70724 0.910519 -0.395196 -0.121552 
0.964926 -0.251343 -0.0757985 0.9758 0.110108 0.188921 0.895081 -0.443072 -0.0501762 
0.963523 0.0680852 0.258821 0.862125 0.248897 0.441351 -0.496388 -0.380344 -0.780344 
-0.301836 0.616191 -0.727464 0.32115 0.939184 -0.121635 0.0491813 0.970546 -0.235843 
0.567011 -0.769591 -0.293648 0.943517 -0.327835 -0.0479455 0.76054 0.239906 0.603344 
0.89412 -0.32339 0.309787 -0.492579 0.322459 -0.808323 0.513272 0.800489 0.309467 
-0.369113 0.724499 -0.582114 0.413357 0.898174 0.149731 0.0240457 -0.832202 -0.553951 
0.537058 -0.755298 -0.375625 0.594034 -0.77033 -0.231764 0.943769 -0.130675 0.303683 
0.450836 -0.873241 -0.184924 0.657754 -0.708184 0.256583 0.499386 -0.842308 0.202809 
0.762108 -0.646331 0.0380447 0.661163 -0.742745 -0.105804 0.691859 -0.681381 -0.238853 
0.889088 0.0541362 0.454524 0.762585 0.183261 0.620387 0.912096 -0.378761 0.156907 
-0.551945 0.116847 -0.825653 -0.44192 0.583284 -0.681533 -0.31928 0.831945 -0.453793 
0.439415 0.850869 0.287986 0.17994 0.983595 -0.0127619 0.490059 -0.808502 -0.325833 
0.683041 -0.664355 -0.30346 0.691002 -0.158475 0.705268 0.766711 -0.271117 0.581936 
0.716147 -0.691078 0.0976963 -0.537548 0.300172 -0.787996 -0.294879 0.694539 -0.656248 
-0.114148 0.917536 -0.380918 0.0133651 0.982185 -0.187442 0.0432994 0.977538 -0.206264 
0.237402 -0.873088 -0.425862 0.795243 -0.600293 -0.085069 0.782365 -0.594164 -0.186747 
0.902734 -0.427693 0.04638 0.732283 0.301585 0.61058 -0.564145 -0.535112 -0.628806 
-0.673002 -0.304079 -0.674243 -0.732066 -0.250112 -0.633658 0.476644 0.844286 0.244932 
0.414675 0.875459 0.248228 -0.394828 0.619664 -0.678327 0.142967 0.940558 -0.308075 
0.0483782 0.864808 -0.499767 0.317599 0.939343 0.12948 -0.203518 0.776933 -0.595782 
0.747881 -0.650525 -0.132253 -0.760568 -0.152754 -0.631033 0.607389 0.664208 0.435783 
-0.605403 0.30228 -0.736284 0.469711 0.855253 0.218891 -0.340657 0.806742 -0.482826 
0.0766665 0.99682 0.0217083 0.255211 0.96655 -0.0254514 -0.269047 -0.779827 -0.565229 
0.82321 -0.565414 -0.0513057 0.953899 -0.0925351 0.285507 0.873886 0.176993 0.452766 
0.921346 -0.0267743 0.387821 -0.556723 0.322121 -0.765701 -0.266697 0.668889 -0.693874 
-0.255337 0.573712 -0.77824 0.31058 0.94997 -0.0331254 0.322035 0.840696 -0.435343 
0.404256 0.878829 0.253451 0.132896 0.777426 -0.614775 0.0816387 0.772288 -0.630005 
-0.656728 0.302961 -0.690596 -0.260811 0.912453 -0.315291 0.473871 0.875188 -0.0974254 
0.384059 -0.877723 -0.286534 0 -0.992278 -0.124035 0 -1 0 
-0.242536 -0.970143 0 0.242536 -0.970143 0 0.255813 -0.897458 -0.359346 
0.60057 -0.666383 -0.441869 0.155015 -0.831949 -0.532757 0.168193 -0.967007 -0.191333 
0 1 0 0.546683 -0.836196 -0.0437483 0.892689 0.229548 0.387833 
-0.705928 0.138679 -0.694574 -0.656963 0.268425 -0.704519 -0.137649 0.628025 -0.765922 
-0.509409 0.628805 -0.587458 0.297978 0.9471 0.119208 0.547325 0.833015 -0.0807514 
0.723187 0.687698 -0.0638069 0.498938 0.851532 0.161103 0 -0.992278 0.124035 
0.87129 -0.489203 0.0391702 0.0720727 -0.869102 0.489354 0.301597 -0.585138 -0.752764 
0.87329 0.086389 -0.47948 0.38705 -0.528662 -0.755453 0.835603 -0.483972 0.259881 
0.672469 -0.418036 0.610762 0.333523 0.512983 0.790955 0.890948 -0.203573 0.405919 
-0.616577 0.276952 -0.736974 -0.202307 0.754426 -0.62443 0.159352 0.95553 -0.248133 
-0.0538599 -0.95716 -0.284508 0.156855 0.239916 0.958038 0.902999 -0.415709 0.108533 
0.103756 -0.99352 -0.046404 0.799623 0.256359 0.543031 -0.137233 0.69728 -0.703539 
0.245224 -0.926354 -0.285892 0.843433 -0.534817 0.0509087 0.81952 0.302846 0.486489 
-0.527705 -0.498676 -0.687641 -0.685517 -0.43887 -0.580913 -0.577432 0.187955 -0.794509 
0.615514 0.787831 0.0215691 0.419969 0.870251 -0.257467 0.0645709 0.615123 -0.785783 
0.335041 0.538422 -0.773207 0.168695 0.831687 -0.528997 0.574315 0.712084 -0.403855 
0.261059 0.823572 -0.503565 0.562635 -0.826362 -0.0238033 0.557185 -0.820895 -0.125203 
0.809598 -0.583258 0.0660431 0.676462 -0.721522 0.147666 0.834958 -0.432369 0.340445 
0.914815 0.124491 0.384208 0.933131 0.0130403 0.3593 0.951315 -0.105255 0.289692 
-0.286736 -0.660934 -0.693504 0.756559 0.392236 0.52323 0.840529 0.215486 0.497068 
0.556005 0.586032 0.589428 -0.529242 -0.468576 -0.707347 -0.601471 0.123757 -0.789251 
-0.315568 0.547515 -0.775013 0.673587 0.738088 -0.0388237 -0.212324 0.418875 -0.882871 
0.302154 0.809556 -0.50331 0.466672 0.672918 -0.573933 -0.490632 0.363029 -0.792143 