# vtk DataFile Version 4.2
vtk output
ASCII
DATASET POLYDATA
POINTS 3454 float
364.901 50.9418 150.42 364.901 50.8981 150.432 364.817 50.8826 150.468 
364.955 50.9204 150.451 364.565 50.7652 150.642 364.588 51.0323 150.607 
364.909 51.0075 150.455 364.973 50.9716 150.452 364.847 51.1163 150.575 
365.835 51.3241 150.916 365.817 51.358 150.969 365.857 51.337 150.927 
365.849 51.3065 150.954 365.866 51.3423 151.004 363.745 48.6404 151.381 
363.665 48.5864 151.398 363.857 48.6851 151.423 363.656 48.7953 151.358 
364.888 50.841 150.535 367 50.0087 149.017 367 50.0087 149.017 
367 50.0087 149.017 367 50.0087 149.017 363.521 50.9955 150.854 
364.423 50.2645 150.912 364.969 50.6313 150.831 367 50.0088 149.017 
365.058 50.9412 150.597 361.911 51.4191 151.278 362.755 51.4628 151.087 
364.946 51.3103 150.751 365.105 51.1388 150.684 365.755 51.2771 150.957 
365.63 51.384 151.015 365.86 51.2319 151.134 363.671 51.7948 151.133 
365.872 51.4578 151.2 363.672 48.3863 151.517 363.409 48.3594 151.639 
364.098 48.9582 151.42 363.979 48.5443 151.631 362.453 49.9373 151.03 
362.262 49.879 151.046 363.069 48.8658 151.403 362.981 49.3878 151.186 
364.151 49.3015 151.268 364.469 49.2576 151.38 364.592 49.1561 151.471 
362.43 50.3842 151.014 364.347 49.6659 151.18 367 50.0087 149.017 
361.284 50.7344 151.348 361.408 50.3617 151.307 365.407 50.4866 151.233 
365.452 51.0354 150.95 360.738 51.3894 151.709 365.274 51.3764 150.915 
366.224 51.3499 151.628 362.069 52.0443 151.513 364.113 52.1737 151.381 
366.968 52.292 152.264 367.086 52.2972 152.336 362.837 47.9106 152.266 
362.734 48.1762 151.944 363.664 48.2514 151.822 364.711 49.1123 151.623 
365.386 49.9903 151.55 366.087 50.4732 151.876 360.577 50.3308 151.651 
358.913 51.6967 152.423 366.594 51.8566 152.014 367.206 51.849 152.627 
366.134 52.2041 151.872 367.19 52.3622 152.435 367.199 52.2202 152.45 
367.276 52.3446 152.514 367.292 52.4725 152.621 364.166 47.9656 152.497 
361.458 48.7527 151.878 358.868 49.5952 152.53 356.581 51.3791 153.19 
361.541 52.7016 152.055 367.718 52.5826 153.173 368.009 53.2894 153.573 
368.469 53.224 153.864 369.057 54.1937 154.661 369.1 54.2738 154.72 
369.145 54.2397 154.792 356.572 49.4415 153.548 367.144 50.1966 153.478 
354.853 50.7623 153.907 355.764 50.4785 153.577 353.749 51.6865 154.246 
368.281 51.9998 153.869 353.156 52.4332 154.663 354.528 51.9359 153.979 
368.824 53.2075 154.167 356.692 53.4396 153.904 364.437 54.0708 153.103 
366.552 53.7628 153.217 368.792 54.0644 154.472 369.113 54.0653 154.764 
369.238 54.2651 155.081 369.061 54.5496 155.129 360.635 44.9408 155.422 
359.812 46.377 154.223 365.865 47.806 154.553 353.917 51.2789 154.274 
352.13 52.1231 155.201 365.629 54.2139 153.437 368.836 52.8876 154.361 
358.286 54.7634 154.542 367.493 54.5305 154.243 369.437 54.1433 155.472 
363.306 45.8148 155.082 364.39 46.0148 155.537 356.388 47.1541 154.818 
368.48 51.0354 154.958 355.227 55.0076 155.518 360.864 55.1699 154.608 
368.6 55.2231 155.614 370.02 55.538 157.277 369.976 55.4978 157.193 
363.438 44.4661 156.875 357.269 45.0562 155.979 364.582 45.7816 155.944 
352.633 48.9413 155.775 350.803 51.2182 155.992 349.776 51.7792 156.567 
349.685 53.6385 156.872 350.93 53.7129 156.297 369.778 53.4244 156.454 
350.985 54.7607 156.781 364.355 56.0027 155.734 369.807 55.3612 156.983 
360.402 43.7023 156.924 364.815 45.5165 156.59 351.96 47.3906 156.986 
369.164 51.0317 156.816 370.096 54.0861 157.244 347.954 54.2948 157.919 
369.343 55.9132 157.248 369.836 55.8641 158.076 355.467 43.1055 158.397 
366 44.0087 158.017 366 44.0087 158.017 366 44.0087 158.017 
366 44.0087 158.017 366 44.0088 158.017 347.517 50.2465 158.214 
345.726 53.87 158.868 370.281 54.8768 158.132 347.327 55.064 158.527 
348.081 55.2511 158.315 351.706 55.9626 157.52 347.005 55.3838 158.849 
355.986 57.0159 157.736 359.604 57.4125 158.087 367.026 56.8203 157.834 
360.653 41.4054 159.933 366 44.0087 158.017 370.122 52.8706 158.845 
343.939 53.1888 159.789 370.313 54.0954 158.385 343.969 55.6497 160.269 
370.046 55.6413 159.008 350.225 57.0272 159.092 369.875 55.9364 159.005 
369.276 56.4686 159.252 369.643 56.1732 159.186 356.08 41.5106 159.772 
361.405 41.3647 160.311 353.125 42.8229 159.619 366.834 45.6116 159.935 
368.373 47.9232 159.909 344.915 49.1086 160.169 342.922 51.0181 160.664 
370.205 53.8344 160.205 343.02 55.2561 160.592 370.225 54.674 159.999 
342.646 55.8785 160.979 369.922 55.5344 160.055 344.681 56.8816 160.681 
356.015 58.7071 160.57 364.393 57.9858 160.261 367.696 57.3596 160.323 
368.391 57.0351 159.932 372 59.0087 160.017 372 59.0087 160.017 
372 59.0087 160.017 372 59.0087 160.017 372 59.0088 160.017 
357.39 39.7603 161.632 362.298 41.1943 161.134 349.117 44.2286 160.606 
343.58 48.383 161.316 341.521 52.8299 161.143 340.958 55.8087 161.762 
348.687 57.9838 160.602 352.35 58.9607 161.375 361.085 58.5757 160.846 
366.807 57.5895 160.945 368.536 56.9717 160.255 369.132 56.4997 160.288 
372 59.0087 160.017 368.015 57.2099 160.788 368 44.0087 162.017 
368 44.0087 162.017 368 44.0087 162.017 368 44.0087 162.017 
368 44.0088 162.017 339.703 53.2594 162.311 339.989 56.424 162.502 
340.402 57.1445 162.591 344.352 57.7194 161.442 368.76 56.5665 161.275 
342.399 58.3048 162.592 346.145 58.6446 161.829 358.282 58.9492 161.281 
366.276 57.757 161.929 354.85 59.3554 162.117 365.705 57.9719 162.16 
358.965 59.2149 162.495 352.634 39.41 163.202 360.831 39.3702 163.072 
365.403 42.2248 163.244 368 44.0087 162.017 368.304 47.1 161.95 
369.578 52.5803 162.547 369.74 53.9786 161.925 369.535 54.9621 161.823 
368.684 55.8563 162.464 367.38 57.0014 162.308 340.585 58.1668 163.182 
365.054 58.129 162.564 365.487 57.9356 162.655 345.549 59.3843 162.975 
349.047 59.5138 162.746 364.656 58.2572 162.529 365.173 58.1411 162.602 
365.374 58.053 162.626 365.492 58.0657 162.493 365.8 57.9722 162.337 
362.161 58.6673 163.153 364.859 58.2279 162.674 365.196 58.1563 162.638 
365.51 58.0776 162.534 346.225 42.1518 163.851 368.384 46.6251 164.004 
369.052 49.269 163.768 337.956 49.6328 164.762 368.913 54.1458 163.504 
336.443 56.2128 164.782 364.823 58.0847 162.983 365.802 57.8561 162.616 
338.279 58.9657 164.728 351.499 59.9109 163.49 364.773 58.1962 162.827 
365.291 58.0898 162.667 365.701 57.9883 162.51 355.975 59.7565 164.633 
360.051 59.119 164.146 354.406 37.1715 165.804 349.184 39.1344 165.03 
368.918 49.0511 164.807 335.728 52.3545 165.645 366.174 55.9557 165.031 
364.007 57.5736 164.509 335.882 58.659 165.787 336.579 59.1165 165.548 
340.535 60.4374 165.196 354.669 59.9355 164.6 355.804 36.3039 167.132 
356.119 36.2843 167.236 361.835 38.1061 166.08 363.857 39.3967 165.977 
365.705 41.2037 166.072 367.219 43.8089 165.371 340.633 44.9966 165.518 
368.829 48.3712 165.349 368.367 52.1947 165.767 334.021 54.9197 166.703 
365.444 54.9001 166.734 334.645 58.6501 166.67 341.728 61.0243 165.684 
349.453 60.6629 165.418 350.815 60.515 165.447 336.603 60.5563 166.531 
342.255 61.4171 166.195 354.354 36.4294 167.127 343.657 39.0113 168.109 
346.65 38.2495 167.402 368.172 45.2873 167.081 368.466 50.4335 166.355 
368.168 51.8603 166.4 368.184 52.0179 166.344 368.146 52.1343 166.286 
358.998 58.2599 166.881 334.094 61.3714 168.196 342.984 61.7547 166.751 
357.918 35.4907 169.235 362 35.0087 168.017 362 35.0087 168.017 
362 35.0087 168.017 362 35.0087 168.017 357.066 36.0363 167.901 
362 35.0088 168.017 343.052 39.68 167.844 366.879 42.2857 167.51 
367.386 42.9678 168.294 368.317 46.2366 168.015 368.414 46.9386 167.921 
348.752 61.1728 167.198 333.198 62.1157 169.002 353.371 35.2761 169.649 
362 35.0087 168.017 363 35.0087 169.017 363 35.0087 169.017 
363 35.0087 169.017 363 35.0087 169.017 363 35.0088 169.017 
340.682 39.6359 169.364 367.944 44.2591 168.892 368.355 46.7869 168.098 
367.814 48.182 168.96 365.595 51.876 169.086 332.896 50.737 168.957 
331.93 53.8697 168.937 331.421 59.1657 169.256 350.967 60.4111 168.863 
338.705 62.934 168.266 348.162 61.4314 169.174 335.889 63.8905 169.503 
363 35.0087 169.017 349.311 35.9274 169.676 364.359 38.2608 169.785 
338.093 40.2781 170.587 366.235 40.3749 170.004 367.42 42.7544 169.24 
333.584 47.7453 169.731 366.22 50.2764 169.835 367.043 50.6497 168.646 
344.004 62.8439 170.075 361.749 36.1379 170.584 346.317 35.9312 170.949 
366.584 40.4526 171.327 367.808 44.9396 170.811 367.55 46.9709 170.655 
366.004 51.0131 171.009 366.004 51.0131 171.009 366.004 51.0131 171.009 
366.004 51.0131 171.009 366.004 51.0131 171.009 356.889 55.6322 170.862 
329.25 57.3769 171.356 347.318 61.4431 170.989 329.641 62.0351 171.416 
337.964 64.7623 170.603 335.773 65.7401 171.426 362.723 35.7717 172.864 
343.402 36.1006 172.078 367.502 45.3697 171.845 367.05 47.4616 171.301 
366.004 51.0131 171.009 328.37 63.2347 172.933 340.586 64.3868 171.356 
341.631 64.1291 172.389 329.471 65.5474 173.09 331.691 65.8977 172.199 
332.71 66.4757 172.357 336.243 66.5942 172.641 336.765 66.5759 172.882 
359.488 34.3746 173.345 348.237 34.8063 172.438 362.864 35.7727 173.21 
362.539 35.9566 172.306 338.172 37.0489 173.771 339.961 36.6539 173.189 
366.633 40.0847 172.639 367.468 42.4903 172.85 367.493 43.0244 173.308 
367.376 44.6882 172.734 332.571 67.6439 173.457 334.047 67.4173 173.184 
355.686 33.3955 174.637 362.412 35.5003 173.373 334.418 39.1026 174.237 
335.287 37.9762 174.643 365.833 38.6889 173.824 366.912 40.4397 173.564 
366.975 46.2088 172.607 359.913 50.179 174.73 353.583 55.2074 173.975 
343.776 62.618 174.178 342.035 63.9118 174.221 330.427 67.731 174.052 
337.764 66.6244 173.857 330.348 68.1666 174.4 332.887 68.6483 174.598 
335.371 68.1804 175.008 350.264 33.7055 174.487 365 35.0087 175.017 
365 35.0087 175.017 365 35.0087 175.017 365 35.0087 175.017 
365 35.0088 175.017 337.165 36.5962 174.994 367.298 41.9992 174.226 
366.21 46.2784 173.956 351.344 55.7623 175.641 326.263 63.0026 175.114 
[...]
POINT_DATA 3454
SCALARS scalars float
LOOKUP_TABLE default
1 1 1 1 1 1 1 1 1 
1 1 1 1 1 1 1 1 1 
1 1 1 1 1 1 1 1 1 
1 1 1 1 1 1 1 1 1 
1 1 1 1 1 1 1 1 1 
1 1 1 1 1 1 1 1 1 
1 1 1 1 1 1 1 1 1 
1 1 1 1 1 1 1 1 1 
1 1 1 1 1 1 1 1 1 
1 1 1 1 1 1 1 1 1 
1 1 1 1 1 1 1 1 1 
1 1 1 1 1 1 1 1 1 
1 1 1 1 1 1 1 1 1 
1 1 1 1 1 1 1 1 1 
1 1 1 1 1 1 1 1 1 
1 1 1 1 1 1 1 1 1 
1 1 1 1 1 1 1 1 1 
1 1 1 1 1 1 1 1 1 
1 1 1 1 1 1 1 1 1 
1 1 1 1 1 1 1 1 1 
1 1 1 1 1 1 1 1 1 
1 1 1 1 1 1 1 1 1 
1 1 1 1 1 1 1 1 1 
1 1 1 1 1 1 1 1 1 
1 1 1 1 1 1 1 1 1 
1 1 1 1 1 1 1 1 1 
1 1 1 1 1 1 1 1 1 
1 1 1 1 1 1 1 1 1 
1 1 1 1 1 1 1 1 1 
1 1 1 1 1 1 1 1 1 
1 1 1 1 1 1 1 1 1 
1 1 1 1 1 1 1 1 1 
1 1 1 1 1 1 1 1 1 
1 1 1 1 1 1 1 1 1 
1 1 1 1 1 1 1 1 1 
1 1 1 1 1 1 1 1 1 
1 1 1 1 1 1 1 1 1 
1 1 1 1 1 1 1 1 1 
1 1 1 1 1 1 1 1 1 
1 1 1 1 1 1 1 1 1 
1 1 1 1 1 1 1 1 1 
1 1 1 1 1 1 1 1 1 
1 1 1 1 1 1 1 1 1 
1 1 1 1 1 1 1 1 1 
1 1 1 1 1 1 1 1 1 
1 1 1 1 1 1 1 1 1 
1 1 1 1 1 1 1 1 1 
1 1 1 1 1 1 1 1 1 
1 1 1 1 1 1 1 1 1 
1 1 1 1 1 1 1 1 1 
1 1 1 1 1 1 1 1 1 
1 1 1 1 1 1 1 1 1 
1 1 1 1 1 1 1 1 1 
1 1 1 1 1 1 1 1 1 
1 1 1 1 1 1 1 1 1 
1 1 1 1 1 1 1 1 1 
1 1 1 1 1 1 1 1 1 
1 1 1 1 1 1 1 1 1 
1 1 1 1 1 1 1 1 1 
1 1 1 1 1 1 1 1 1 
1 1 1 1 1 1 1 1 1 
1 1 1 1 1 1 1 1 1 
1 1 1 1 1 1 1 1 1 
1 1 1 1 1 1 1 1 1 
1 1 1 1 1 1 1 1 1 
1 1 1 1 1 1 1 1 1 
1 1 1 1 1 1 1 1 1 
1 1 1 1 1 1 1 1 1 
1 1 1 1 1 1 1 1 1 
1 1 1 1 1 1 1 1 1 
1 1 1 1 1 1 1 1 1 
1 1 1 1 1 1 1 1 1 
1 1 1 1 1 1 1 1 1 
1 1 1 1 1 1 1 1 1 
1 1 1 1 1 1 1 1 1 
1 1 1 1 1 1 1 1 1 
1 1 1 1 1 1 1 1 1 
1 1 1 1 1 1 1 1 1 
1 1 1 1 1 1 1 1 1 
1 1 1 1 1 1 1 1 1 
1 1 1 1 1 1 1 1 1 
1 1 1 1 1 1 1 1 1 
1 1 1 1 1 1 1 1 1 
1 1 1 1 1 1 1 1 1 
1 1 1 1 1 1 1 1 1 
1 1 1 1 1 1 1 1 1 
1 1 1 1 1 1 1 1 1 
1 1 1 1 1 1 1 1 1 
1 1 1 1 1 1 1 1 1 
1 1 1 1 1 1 1 1 1 
1 1 1 1 1 1 1 1 1 
1 1 1 1 1 1 1 1 1 
1 1 1 1 1 1 1 1 1 
1 1 1 1 1 1 1 1 1 
1 1 1 1 1 1 1 1 1 
1 1 1 1 1 1 1 1 1 
1 1 1 1 1 1 1 1 1 
1 1 1 1 1 1 1 1 1 
1 1 1 1 1 1 1 1 1 
1 1 1 1 1 1 1 1 1 
1 1 1 1 1 1 1 1 1 
1 1 1 1 1 1 1 1 1 
1 1 1 1 1 1 1 1 1 
1 1 1 1 1 1 1 1 1 
1 1 1 1 1 1 1 1 1 
1 1 1 1 1 1 1 1 1 
1 1 1 1 1 1 1 1 1 
1 1 1 1 1 1 1 1 1 
1 1 1 1 1 1 1 1 1 
1 1 1 1 1 1 1 1 1 
1 1 1 1 1 1 1 1 1 
1 1 1 1 1 1 1 1 1 
1 1 1 1 1 1 1 1 1 
1 1 1 1 1 1 1 1 1 
1 1 1 1 1 1 1 1 1 
1 1 1 1 1 1 1 1 1 
1 1 1 1 1 1 1 1 1 
1 1 1 1 1 1 1 1 1 
1 1 1 1 1 1 1 1 1 
1 1 1 1 1 1 1 1 1 
1 1 1 1 1 1 1 1 1 
1 1 1 1 1 1 1 1 1 
1 1 1 1 1 1 1 1 1 
1 1 1 1 1 1 1 1 1 
1 1 1 1 1 1 1 1 1 
1 1 1 1 1 1 1 1 1 
1 1 1 1 1 1 1 1 1 
1 1 1 1 1 1 1 1 1 
1 1 1 1 1 1 1 1 1 
1 1 1 1 1 1 1 1 1 
1 1 1 1 1 1 1 1 1 
1 1 1 1 1 1 1 1 1 
1 1 1 1 1 1 1 1 1 
1 1 1 1 1 1 1 1 1 
1 1 1 1 1 1 1 1 1 
1 1 1 1 1 1 1 1 1 
1 1 1 1 1 1 1 1 1 
1 1 1 1 1 1 1 1 1 
1 1 1 1 1 1 1 1 1 
1 1 1 1 1 1 1 1 1 
1 1 1 1 1 1 1 1 1 
1 1 1 1 1 1 1 1 1 
1 1 1 1 1 1 1 1 1 
1 1 1 1 1 1 1 1 1 
1 1 1 1 1 1 1 1 1 
1 1 1 1 1 1 1 1 1 
1 1 1 1 1 1 1 1 1 
1 1 1 1 1 1 1 1 1 
1 1 1 1 1 1 1 1 1 
1 1 1 1 1 1 1 1 1 
1 1 1 1 1 1 1 1 1 
1 1 1 1 1 1 1 1 1 
1 1 1 1 1 1 1 1 1 
1 1 1 1 1 1 1 1 1 
1 1 1 1 1 1 1 1 1 
1 1 1 1 1 1 1 1 1 
1 1 1 1 1 1 1 1 1 
1 1 1 1 1 1 1 1 1 
1 1 1 1 1 1 1 1 1 
1 1 1 1 1 1 1 1 1 
1 1 1 1 1 1 1 1 1 
1 1 1 1 1 1 1 1 1 
1 1 1 1 1 1 1 1 1 
1 1 1 1 1 1 1 1 1 
1 1 1 1 1 1 1 1 1 
1 1 1 1 1 1 1 1 1 
1 1 1 1 1 1 1 1 1 
1 1 1 1 1 1 1 1 1 
1 1 1 1 1 1 1 1 1 
1 1 1 1 1 1 1 1 1 
1 1 1 1 1 1 1 1 1 
1 1 1 1 1 1 1 1 1 
1 1 1 1 1 1 1 1 1 
1 1 1 1 1 1 1 1 1 
1 1 1 1 1 1 1 1 1 
1 1 1 1 1 1 1 1 1 
1 1 1 1 1 1 1 1 1 
1 1 1 1 1 1 1 1 1 
1 1 1 1 1 1 1 1 1 
1 1 1 1 1 1 1 1 1 
1 1 1 1 1 1 1 1 1 
1 1 1 1 1 1 1 1 1 
1 1 1 1 1 1 1 1 1 
1 1 1 1 1 1 1 1 1 
1 1 1 1 1 1 1 1 1 
1 1 1 1 1 1 1 1 1 
1 1 1 1 1 1 1 1 1 
1 1 1 1 1 1 1 1 1 
1 1 1 1 1 1 1 1 1 
1 1 1 1 1 1 1 1 1 
1 1 1 1 1 1 1 1 1 
1 1 1 1 1 1 1 1 1 
1 1 1 1 1 1 1 1 1 
1 1 1 1 1 1 1 1 1 
1 1 1 1 1 1 1 1 1 
1 1 1 1 1 1 1 1 1 
1 1 1 1 1 1 1 1 1 
1 1 1 1 1 1 1 1 1 
1 1 1 1 1 1 1 1 1 
1 1 1 1 1 1 1 1 1 
1 1 1 1 1 1 1 1 1 
1 1 1 1 1 1 1 1 1 
1 1 1 1 1 1 1 1 1 
1 1 1 1 1 1 1 1 1 
1 1 1 1 1 1 1 1 1 
1 1 1 1 1 1 1 1 1 
1 1 1 1 1 1 1 1 1 
1 1 1 1 1 1 1 1 1 
1 1 1 1 1 1 1 1 1 
1 1 1 1 1 1 1 1 1 
1 1 1 1 1 1 1 1 1 
1 1 1 1 1 1 1 1 1 
1 1 1 1 1 1 1 1 1 
1 1 1 1 1 1 1 1 1 
1 1 1 1 1 1 1 1 1 
1 1 1 1 1 1 1 1 1 
1 1 1 1 1 1 1 1 1 
1 1 1 1 1 1 1 1 1 
1 1 1 1 1 1 1 1 1 
1 1 1 1 1 1 1 1 1 
1 1 1 1 1 1 1 1 1 
1 1 1 1 1 1 1 1 1 
1 1 1 1 1 1 1 1 1 
1 1 1 1 1 1 1 1 1 
1 1 1 1 1 1 1 1 1 
1 1 1 1 1 1 1 1 1 
1 1 1 1 1 1 1 1 1 
1 1 1 1 1 1 1 1 1 
1 1 1 1 1 1 1 1 1 
1 1 1 1 1 1 1 1 1 
1 1 1 1 1 1 1 1 1 
1 1 1 1 1 1 1 1 1 
1 1 1 1 1 1 1 1 1 
1 1 1 1 1 1 1 1 1 
1 1 1 1 1 1 1 1 1 
1 1 1 1 1 1 1 1 1 
1 1 1 1 1 1 1 1 1 
1 1 1 1 1 1 1 1 1 
1 1 1 1 1 1 1 1 1 
1 1 1 1 1 1 1 1 1 
1 1 1 1 1 1 1 1 1 
1 1 1 1 1 1 1 1 1 
1 1 1 1 1 1 1 1 1 
1 1 1 1 1 1 1 1 1 
1 1 1 1 1 1 1 1 1 
1 1 1 1 1 1 1 1 1 
1 1 1 1 1 1 1 1 1 
1 1 1 1 1 1 1 1 1 
1 1 1 1 1 1 1 1 1 
1 1 1 1 1 1 1 1 1 
1 1 1 1 1 1 1 1 1 
1 1 1 1 1 1 1 1 1 
1 1 1 1 1 1 1 1 1 
1 1 1 1 1 1 1 1 1 
1 1 1 1 1 1 1 1 1 
1 1 1 1 1 1 1 1 1 
1 1 1 1 1 1 1 1 1 
1 1 1 1 1 1 1 1 1 
1 1 1 1 1 1 1 1 1 
1 1 1 1 1 1 1 1 1 
1 1 1 1 1 1 1 1 1 
1 1 1 1 1 1 1 1 1 
1 1 1 1 1 1 1 1 1 
1 1 1 1 1 1 1 1 1 
1 1 1 1 1 1 1 1 1 
1 1 1 1 1 1 1 1 1 
1 1 1 1 1 1 1 1 1 
1 1 1 1 1 1 1 1 1 
1 1 1 1 1 1 1 1 1 
1 1 1 1 1 1 1 1 1 
1 1 1 1 1 1 1 1 1 
1 1 1 1 1 1 1 1 1 
1 1 1 1 1 1 1 1 1 
1 1 1 1 1 1 1 1 1 
1 1 1 1 1 1 1 1 1 
1 1 1 1 1 1 1 1 1 
1 1 1 1 1 1 1 1 1 
1 1 1 1 1 1 1 1 1 
1 1 1 1 1 1 1 1 1 
1 1 1 1 1 1 1 1 1 
1 1 1 1 1 1 1 1 1 
1 1 1 1 1 1 1 1 1 
1 1 1 1 1 1 1 1 1 
1 1 1 1 1 1 1 1 1 
1 1 1 1 1 1 1 1 1 
1 1 1 1 1 1 1 1 1 
1 1 1 1 1 1 1 1 1 
1 1 1 1 1 1 1 1 1 
1 1 1 1 1 1 1 1 1 
1 1 1 1 1 1 1 1 1 
1 1 1 1 1 1 1 1 1 
1 1 1 1 1 1 1 1 1 
1 1 1 1 1 1 1 1 1 
1 1 1 1 1 1 1 1 1 
1 1 1 1 1 1 1 1 1 
1 1 1 1 1 1 1 1 1 
1 1 1 1 1 1 1 1 1 
1 1 1 1 1 1 1 1 1 
1 1 1 1 1 1 1 1 1 
1 1 1 1 1 1 1 1 1 
1 1 1 1 1 1 1 1 1 
1 1 1 1 1 1 1 1 1 
1 1 1 1 1 1 1 1 1 
1 1 1 1 1 1 1 1 1 
1 1 1 1 1 1 1 1 1 
1 1 1 1 1 1 1 1 1 
1 1 1 1 1 1 1 1 1 
1 1 1 1 1 1 1 1 1 
1 1 1 1 1 1 1 1 1 
1 1 1 1 1 1 1 1 1 
1 1 1 1 1 1 1 1 1 
1 1 1 1 1 1 1 1 1 
1 1 1 1 1 1 1 1 1 
1 1 1 1 1 1 1 1 1 
1 1 1 1 1 1 1 1 1 
1 1 1 1 1 1 1 1 1 
1 1 1 1 1 1 1 1 1 
1 1 1 1 1 1 1 1 1 
1 1 1 1 1 1 1 1 1 
1 1 1 1 1 1 1 1 1 
1 1 1 1 1 1 1 1 1 
1 1 1 1 1 1 1 1 1 
1 1 1 1 1 1 1 1 1 
1 1 1 1 1 1 1 1 1 
1 1 1 1 1 1 1 1 1 
1 1 1 1 1 1 1 1 1 
1 1 1 1 1 1 1 1 1 
1 1 1 1 1 1 1 1 1 
1 1 1 1 1 1 1 1 1 
1 1 1 1 1 1 1 1 1 
1 1 1 1 1 1 1 1 1 
1 1 1 1 1 1 1 1 1 
1 1 1 1 1 1 1 1 1 
1 1 1 1 1 1 1 1 1 
1 1 1 1 1 1 1 1 1 
1 1 1 1 1 1 1 1 1 
1 1 1 1 1 1 1 1 1 
1 1 1 1 1 1 1 1 1 
1 1 1 1 1 1 1 1 1 
1 1 1 1 1 1 1 1 1 
1 1 1 1 1 1 1 1 1 
1 1 1 1 1 1 1 1 1 
1 1 1 1 1 1 1 1 1 
1 1 1 1 1 1 1 1 1 
1 1 1 1 1 1 1 1 1 
1 1 1 1 1 1 1 1 1 
1 1 1 1 1 1 1 1 1 
1 1 1 1 1 1 1 1 1 
1 1 1 1 1 1 1 1 1 
1 1 1 1 1 1 1 1 1 
1 1 1 1 1 1 1 1 1 
1 1 1 1 1 1 1 1 1 
1 1 1 1 1 1 1 1 1 
1 1 1 1 1 1 1 1 1 
1 1 1 1 1 1 1 1 1 
1 1 1 1 1 1 1 1 1 
1 1 1 1 1 1 1 1 1 
1 1 1 1 1 1 1 1 1 
1 1 1 1 1 1 1 1 1 
1 1 1 1 1 1 1 1 1 
1 1 1 1 1 1 1 1 1 
1 1 1 1 1 1 1 1 1 
1 1 1 1 1 1 1 1 1 
1 1 1 1 1 1 1 1 1 
1 1 1 1 1 1 1 1 1 
1 1 1 1 1 1 1 1 1 
1 1 1 1 1 1 1 1 1 
1 1 1 1 1 1 1 1 1 
1 1 1 1 1 1 1 1 1 
1 1 1 1 1 1 1 1 1 
1 1 1 1 1 1 1 1 1 
1 1 1 1 1 1 1 1 1 
1 1 1 1 1 1 1 1 1 
1 1 1 1 1 1 1 1 1 
1 1 1 1 1 1 1 1 1 
1 1 1 1 1 1 1 1 1 
1 1 1 1 1 1 1 1 1 
1 1 1 1 1 1 1 1 1 
1 1 1 1 1 1 1 1 1 
1 1 1 1 1 1 1 1 1 
1 1 1 1 1 1 1 1 1 
1 1 1 1 1 1 1 1 1 
1 1 1 1 1 1 1 1 1 
1 1 1 1 1 1 1 
NORMALS Normals float
-0.191385 0.16398 -0.96772 0.138461 -0.622331 -0.770411 -0.310635 -0.501596 -0.807408 
0.588516 -0.483492 -0.647985 -0.233041 -0.401113 -0.885889 -0.25301 0.395195 -0.883067 
0.018311 0.624893 -0.780496 0.572043 0.301319 -0.762872 -0.048438 0.690166 -0.722028 
-0.40771 0.697085 -0.589784 -0.00415908 0.810281 -0.586027 0.756643 0.349691 -0.552456 
0.680485 -0.636925 -0.362308 0.94622 0.258918 -0.193982 0.297496 -0.36889 -0.880577 
-0.127762 -0.395714 -0.909444 0.414538 -0.318085 -0.852631 0.0927503 -0.176465 -0.979927 
0.272159 -0.823436 -0.497878 0 -0.992278 -0.124035 0 -1 0 
-0.184289 -0.982872 0 0.184289 -0.982872 0 -0.162748 -0.059602 -0.984866 
0.185634 -0.493051 -0.849965 0.396077 -0.623924 -0.673678 0 1 0 
0.730432 -0.367554 -0.57565 -0.216575 0.231897 -0.948324 -0.207721 0.388452 -0.897751 
0.0767405 0.637796 -0.766373 0.517844 0.412812 -0.749282 0.0165051 -0.317023 -0.948274 
0.0067929 0.536883 -0.843629 0.770715 -0.398395 -0.497272 -0.13552 0.499761 -0.855496 
0.53788 0.610329 -0.581535 0.172768 -0.709891 -0.682793 -0.164479 -0.761475 -0.626979 
0.311237 -0.420381 -0.852298 0.470197 -0.623215 -0.624914 -0.0519868 -0.200521 -0.978309 
-0.169088 -0.267192 -0.948692 -0.156142 -0.39223 -0.906518 -0.0130994 -0.280301 -0.959823 
0.133553 -0.32841 -0.935046 0.484321 -0.201112 -0.851462 0.527271 -0.407345 -0.745691 
-0.117904 0.0700949 -0.990548 0.197217 -0.313678 -0.928823 0 -0.992278 0.124035 
-0.369255 0.171263 -0.913411 -0.298968 -0.0451805 -0.953193 0.50786 -0.494402 -0.705439 
0.509143 -0.191152 -0.839187 -0.371857 0.350876 -0.859424 0.308077 0.558047 -0.770501 
0.774424 0.0278408 -0.632054 -0.206304 0.447519 -0.870152 0.0318958 0.640941 -0.766928 
0.506345 0.137789 -0.851251 0.575475 0.208817 -0.790711 -0.0484601 -0.786552 -0.615619 
-0.209049 -0.670748 -0.711615 0.143084 -0.901676 -0.408052 0.622064 -0.367633 -0.691291 
0.546803 -0.501534 -0.670426 0.719995 -0.364223 -0.59072 -0.38942 -0.0803477 -0.917549 
-0.302272 0.264994 -0.915647 0.65476 -0.0403736 -0.754758 0.73736 -0.240984 -0.631052 
0.335876 0.498026 -0.799473 0.560135 0.369214 -0.741573 0.655253 -0.219014 -0.722964 
0.774839 0.0772611 -0.62742 0.654939 0.381173 -0.652505 0.359926 -0.772466 -0.523211 
-0.25496 -0.505786 -0.824122 -0.354935 -0.293929 -0.887483 -0.332785 0.0223755 -0.942737 
-0.25601 0.587949 -0.767316 0.74741 0.050317 -0.662455 0.530485 0.475517 -0.701762 
0.675397 0.101057 -0.730498 0.718463 -0.00105639 -0.695564 0.632664 0.483843 -0.604676 
0.895796 0.0577407 -0.440699 -0.382408 -0.293743 -0.876059 0.710925 -0.509231 -0.485047 
-0.392083 -0.253519 -0.884307 -0.395269 -0.258238 -0.881519 -0.521382 -0.120806 -0.844729 
0.831552 -0.331625 -0.445585 -0.510896 0.141252 -0.847958 -0.3403 0.339488 -0.876894 
0.763577 0.158733 -0.625903 -0.279312 0.534494 -0.797685 0.0281814 0.698484 -0.715071 
0.296609 0.688997 -0.661291 0.513144 0.301585 -0.803573 0.844487 -0.0189382 -0.535241 
0.87436 0.359023 -0.326491 0.618318 0.695619 -0.365782 0.0377316 -0.729836 -0.682581 
-0.157434 -0.624146 -0.765282 0.663995 -0.611081 -0.430918 -0.504494 -0.19003 -0.842244 
-0.467686 0.060919 -0.881793 0.145034 0.772009 -0.618844 0.8461 -0.370572 -0.383133 
-0.198677 0.724771 -0.659723 0.273566 0.67442 -0.685798 0.944345 -0.111242 -0.309578 
0.244969 -0.744464 -0.621098 0.42652 -0.705637 -0.565825 -0.375107 -0.462295 -0.803479 
0.841926 -0.35936 -0.402518 -0.218925 0.629733 -0.745324 -0.123975 0.707998 -0.695248 
0.374349 0.791775 -0.482654 0.8004 0.455864 -0.389291 0.503828 -0.851244 0.14677 
0.381238 -0.767289 -0.51568 -0.221248 -0.674486 -0.704356 0.821649 0.566425 -0.0636784 
-0.462919 -0.334613 -0.820817 -0.500446 -0.0542571 -0.864066 -0.530718 -0.0834941 -0.843426 
-0.417531 0.260683 -0.870467 -0.418176 0.273838 -0.866107 0.936488 -0.136825 -0.322907 
-0.317967 0.465574 -0.825916 0.0618599 0.858836 -0.508502 0.762301 0.371171 -0.530217 
0.0682749 -0.783921 -0.617095 0.539515 -0.719367 -0.437533 -0.404874 -0.481799 -0.77714 
0.873404 -0.412183 -0.259366 0.946903 -0.0422951 -0.318725 -0.458294 0.181928 -0.869982 
0.397102 0.81729 -0.417549 0.64022 0.751196 -0.160695 -0.21117 -0.647833 -0.731929 
0 -0.992278 -0.124035 0 -1 0 -0.184289 -0.982872 0 
0.184289 -0.982872 0 0 1 0 -0.496977 -0.193263 -0.845969 
-0.447734 0.107552 -0.887675 0.981639 0.186925 -0.0380086 -0.369407 0.327302 -0.869719 
-0.326059 0.48851 -0.809348 -0.179132 0.703054 -0.688205 -0.407996 0.401983 -0.819725 
-0.0996945 0.828867 -0.550491 0.0205677 0.883861 -0.467297 0.219472 0.914409 -0.34013 
0.0547919 -0.804796 -0.591017 0 -0.992278 0.124035 0.975022 -0.217058 -0.0470885 
-0.476139 0.100421 -0.873617 0.999152 0.0141725 -0.0386673 -0.394535 0.26504 -0.879827 
0.897521 0.428164 0.105503 -0.154131 0.775321 -0.612471 0.754447 0.656332 -0.00623008 
0.611082 0.790889 -0.0327596 0.735625 0.658107 0.160472 -0.134334 -0.709154 -0.692138 
0.342645 -0.756676 -0.556809 -0.329083 -0.617358 -0.714544 0.7135 -0.626839 -0.313035 
0.879429 -0.435642 -0.191886 -0.447542 -0.365767 -0.81604 -0.496303 -0.232522 -0.836431 
0.986358 -0.0614765 0.152703 -0.436936 0.146005 -0.887564 0.980822 0.128268 0.146749 
-0.411921 0.371495 -0.832053 0.87602 0.442596 0.191566 -0.27119 0.583882 -0.765205 
-0.0365531 0.883599 -0.466815 0.151146 0.961231 -0.230629 0.277081 0.960239 -0.0341508 
0.432775 0.890758 -0.138766 0 -0.992278 -0.124035 0 -1 0 
-0.184289 -0.982872 0 0.184289 -0.982872 0 0 1 0 
0.0356551 -0.818766 -0.573019 0.357218 -0.778334 -0.516324 -0.399664 -0.56008 -0.725658 
-0.468824 -0.443633 -0.763803 -0.487056 0.0203029 -0.873135 -0.436636 0.262981 -0.860343 
-0.159562 0.723927 -0.671171 -0.0461745 0.881176 -0.470527 0.10566 0.958354 -0.265318 
0.327361 0.943509 0.0512465 0.558342 0.827457 0.0597334 0.682131 0.725592 0.090629 
0 -0.992278 0.124035 0.418826 0.896584 0.143954 0 -0.992278 -0.124035 
0 -1 0 -0.184289 -0.982872 0 0.184289 -0.982872 0 
0 1 0 -0.578101 -0.0709972 -0.81287 -0.5512 0.298571 -0.779124 
-0.419824 0.447894 -0.789391 -0.218724 0.621609 -0.752172 0.668399 0.679355 0.302851 
-0.249296 0.603185 -0.757641 -0.169083 0.753717 -0.635075 0.0615659 0.934131 -0.351581 
0.444294 0.885763 0.134264 -0.025768 0.922825 -0.384357 0.233524 0.961352 -0.145838 
0.129707 0.971587 -0.197975 -0.250408 -0.725504 -0.641046 0.27763 -0.822637 -0.496175 
0.703493 -0.603678 -0.37506 0 -0.992278 0.124035 0.904032 -0.412624 -0.111653 
0.942175 0.144086 0.302565 0.902723 0.160627 0.399112 0.845296 0.355967 0.398449 
0.69227 0.50109 0.519299 0.444537 0.830011 0.336849 -0.422243 0.509622 -0.749664 
0.367204 0.884969 -0.28634 0.287908 0.726019 0.624504 -0.120264 0.766257 -0.631178 
-0.0170461 0.885399 -0.46452 -0.00122392 0.989398 -0.145222 0.199935 0.769806 -0.606155 
0.254332 0.334222 -0.90753 -0.609556 -0.610932 -0.505176 0.40532 0.913735 0.028342 
0.186742 0.98217 -0.0216691 0.158561 0.987149 -0.0199019 0.238425 0.970224 0.0426412 
0.321512 0.93614 0.14238 -0.405361 -0.592155 -0.696445 0.928571 -0.355504 -0.106641 
0.987036 -0.0951235 0.12927 -0.58347 -0.334744 -0.739938 0.807546 0.329032 0.489497 
-0.542333 0.175013 -0.821733 0.17493 0.863099 0.473773 0.486652 0.702522 0.519262 
-0.346219 0.509779 -0.787565 -0.0140314 0.915419 -0.402257 -0.00912957 0.875386 0.483339 
-0.268597 -0.962792 0.0297866 0.475058 0.778863 0.409503 0.146384 0.989144 -0.0128887 
0.234786 0.953251 0.190231 -0.0450861 -0.801603 -0.596154 -0.305916 -0.706604 -0.638064 
0.992352 -0.109898 0.0562082 -0.644117 -0.197126 -0.739091 0.473634 0.710062 0.521039 
0.351553 0.793047 0.497481 -0.56181 0.292924 -0.77367 -0.341566 0.456358 -0.821627 
-0.210226 0.72724 -0.653397 0.0929476 0.979734 -0.177434 0.00469587 -0.923637 -0.383239 
0.110061 -0.871467 -0.477946 0.367713 -0.837055 -0.405126 0.57942 -0.731743 -0.358921 
0.757121 -0.614153 -0.222673 0.879463 -0.440983 -0.179102 -0.445931 -0.498104 -0.743665 
0.98725 -0.149717 0.0540496 0.871962 0.340238 0.352023 -0.648226 0.0133673 -0.76133 
0.530934 0.552221 0.642776 -0.546859 0.27424 -0.791036 -0.0472484 0.774449 -0.63087 
0.0967274 0.970829 -0.219394 0.0807128 0.978242 -0.191122 -0.31785 0.538551 -0.780342 
-0.0234504 0.85584 -0.516708 -0.105126 -0.92387 -0.367985 -0.331545 -0.668115 -0.666108 
-0.289897 -0.753081 -0.590617 0.95642 -0.282107 -0.0753386 0.945304 0.143598 0.292883 
0.744985 0.304749 0.593402 0.629926 0.353254 0.691668 0.525884 0.571024 0.630379 
0.312819 0.831504 0.45907 -0.416637 0.429822 -0.801041 0.0180541 0.858968 -0.511711 
0.0742326 -0.938724 -0.336581 0 -0.992278 -0.124035 0 -1 0 
-0.242536 -0.970143 0 0.242536 -0.970143 0 0.0789657 -0.883839 -0.461078 
0 1 0 -0.322488 -0.540271 -0.777244 0.855213 -0.479643 -0.196351 
0.910238 -0.349277 -0.222423 0.97309 -0.0778492 0.216876 0.959053 0.0824045 0.270973 
0.0750034 0.979808 -0.18534 -0.388444 0.478589 -0.787442 -0.0299709 -0.925756 -0.376932 
0 -0.992278 0.124035 0 -0.992278 -0.124035 0 -1 0 
-0.242536 -0.970143 0 0.242536 -0.970143 0 0 1 0 
-0.437696 -0.60624 -0.664 0.961307 -0.265106 -0.07488 0.889337 -0.0501175 0.454497 
0.87656 0.196814 0.439211 0.532812 0.529277 0.660286 -0.766727 -0.283703 -0.575883 
-0.750515 -0.158089 -0.641666 -0.671283 0.132267 -0.729304 0.300425 0.940497 0.158776 
-0.00883363 0.75736 -0.652938 0.0440938 0.997691 -0.0516554 -0.152574 0.67686 -0.720126 
0 -0.992278 0.124035 -0.166679 -0.875328 -0.453892 0.661483 -0.706551 -0.251447 
-0.47965 -0.560539 -0.675079 0.822391 -0.532728 -0.199684 0.872023 -0.479843 -0.0965746 
-0.661844 -0.327097 -0.674514 0.650669 0.507804 0.564593 0.787736 0.348279 0.508107 
0.228439 0.952277 -0.202448 0.422166 -0.860053 -0.286505 -0.310825 -0.861056 -0.402455 
0.865855 -0.465127 -0.184261 0.965516 0.128467 0.226441 0.895537 0.258058 0.362519 
0.0566345 -0.92659 -0.371784 -0.283118 0.647447 -0.707571 0.201095 0.67859 -0.706453 
0.283118 -0.647447 0.707571 -0.0566345 0.92659 0.371784 0.439067 0.649245 0.621048 
-0.753322 0.0305061 -0.656943 0.323261 0.921337 0.215962 -0.570123 0.287697 -0.769539 
0.158951 0.81012 -0.564304 0.0832484 0.697206 -0.712021 0.578678 -0.740454 -0.341849 
-0.244389 -0.843855 -0.477686 0.92969 0.303754 0.208351 0.847911 0.336624 0.409549 
-0.201095 -0.67859 0.706453 -0.712331 0.149581 -0.685718 0.308142 0.904086 -0.296104 
0.422087 0.906544 -0.00453116 -0.501761 0.44369 -0.742547 -0.312776 0.546678 -0.776733 
-0.184337 0.662082 -0.726407 0.210735 0.870448 -0.444872 0.379433 0.762906 -0.523455 
0.130557 -0.959213 -0.25073 -0.228316 -0.926977 -0.297633 0.720781 -0.656054 -0.223758 
0.635231 -0.703772 -0.318098 -0.35919 -0.739266 -0.569622 -0.356212 -0.752045 -0.554564 
0.843842 -0.527476 -0.0984911 0.978562 -0.204022 -0.0281471 0.989452 0.0435279 0.138164 
0.937368 0.174574 0.301438 -0.149884 0.669429 -0.727599 0.13589 0.796582 -0.589059 
0.00196714 -0.93759 -0.347737 0.467377 -0.857859 -0.213628 -0.462277 -0.588703 -0.663121 
-0.501145 -0.672365 -0.544773 0.802373 -0.584269 -0.121765 0.913426 -0.407 0.00219574 
0.886293 0.338572 0.315995 0.537931 0.713263 0.449317 0.616244 0.624298 0.4801 
0.535303 0.819112 0.206169 0.545062 0.828543 0.128154 -0.21545 0.602901 -0.768174 
0.384776 0.854773 -0.348296 -0.162109 0.601804 -0.782018 0.0612423 0.745965 -0.663163 
0.428691 0.831166 -0.3541 -0.178498 -0.930558 -0.319687 0 -0.992278 -0.124035 
0 -1 0 -0.242536 -0.970143 0 0.242536 -0.970143 0 
0 1 0 -0.319916 -0.736749 -0.595697 0.976832 0.00437254 0.213965 
0.763907 0.440894 0.471231 0.582115 0.68571 0.436971 -0.755391 0.137361 -0.640715 
0.272279 0.814122 -0.512902 0.0697055 0.700757 -0.709986 0.408413 0.811267 -0.418383 
0.167524 0.784799 -0.596679 0.267348 -0.940664 -0.208989 0 -0.992278 0.124035 
0.826833 -0.546842 -0.131572 0.5704 0.67676 0.465446 -0.778677 -0.0110263 -0.627328 
0.510178 0.822923 -0.250031 -0.1331 0.659159 -0.740131 -0.040808 0.773017 -0.633071 
0.287213 0.84397 -0.453017 0.0864213 0.790734 -0.606029 0.393887 -0.891998 -0.221795 
-0.297415 -0.534682 -0.790986 0 -0.992278 -0.124035 0 -1 0 
-0.242536 -0.970143 0 0.242536 -0.970143 0 -0.528455 -0.262719 -0.807288 
0 1 0 0.925171 -0.379382 0.0112755 -0.701096 -0.0978904 -0.706315 