# vtk DataFile Version 4.2
vtk output
ASCII
DATASET POLYDATA
POINTS 5197 float
426.583 255.213 145.066 425.136 255.465 145.083 427.314 256.061 144.798 
430.758 255.718 144.946 424.557 256.48 144.864 421.703 258.176 145.222 
426.398 259.129 144.608 427.834 259.576 144.621 428.583 260.772 144.963 
430.74 260.457 144.959 432.519 254.265 145.76 431.969 253.923 146.091 
433.931 254.149 145.847 434.241 254.047 145.92 434.09 254.014 145.979 
434.29 254.003 145.966 431.491 254.619 145.475 434.438 254.184 145.881 
422.62 254.888 145.704 434.304 254.705 145.6 435.399 256.544 145.233 
418.787 256.953 146.043 418.496 257.513 146.08 441.256 257.547 146.265 
435.5 258.603 145.251 429.548 259.509 144.643 438.77 259.793 145.988 
424.43 261.346 145.579 428.136 262.237 145.753 436.28 261.17 146.284 
432.488 262.055 146.133 380.229 196.324 148.189 380.347 197.62 148.111 
380.078 198.878 147.889 380.654 198.036 148.347 380.489 199.388 148.077 
380.235 200.855 147.891 380.44 203.003 147.91 380.957 203.704 148.069 
381.479 204.406 148.326 380.601 206.17 147.934 381.857 213.06 148.488 
426.576 253.812 146.023 427.822 253.639 146.281 428.597 253.597 146.376 
430.793 253.672 146.335 434.023 254.02 146.186 434.371 254.028 146.028 
434.995 254.207 146.075 436.677 254.318 146.269 436.541 254.306 146.271 
436.79 254.335 146.325 423.557 254.377 145.876 426.56 254.139 145.701 
436.08 254.333 146.187 437.32 254.482 146.456 436.633 255.147 145.745 
415.447 256.944 146.943 443.495 256.519 147.528 443.096 257.439 147.046 
414.505 258.152 147.096 419.042 259.676 146.182 419.364 260.259 146.267 
443.08 259.08 147.041 433.426 262.606 146.846 435.071 262.357 147.029 
436.705 261.986 147.046 433.946 262.791 147.241 377.491 193.234 148.442 
377.464 194.086 148.234 379.665 194.512 148.402 379.923 194.404 148.599 
378.62 195.353 147.953 379.532 195.04 148.181 380.005 194.819 148.497 
380.255 195.261 148.617 378.047 196.319 147.828 378.046 197.569 147.774 
379.102 196.826 147.795 380.798 197.571 148.663 379.652 199.273 147.762 
379.452 202.785 147.842 378.953 203.201 147.981 380.057 204.458 147.867 
379.599 205.394 147.966 381.846 207.193 148.648 380.125 209.162 148.255 
380.571 209.653 148.164 381.524 214.874 148.56 382.508 215.168 149.065 
381.77 217.397 148.704 382.048 219.058 148.738 381.696 218.557 148.841 
382.932 218.671 148.855 383.347 220.326 148.954 383.69 220.992 149.175 
382.224 222.214 149.005 383.528 222.086 148.984 382.653 223.005 148.957 
383.37 223.172 148.95 386.199 241.04 148.054 387.594 242.523 147.747 
388.997 243.051 147.733 384.946 244.472 148.679 386.44 245.253 148.03 
429.13 253.442 146.592 428.718 253.346 146.801 428.413 253.534 146.801 
430.025 253.378 146.672 430.374 253.438 146.721 425.389 253.637 146.29 
426.943 253.486 146.654 427.801 253.61 146.632 431.221 253.674 146.71 
435.141 254.155 146.501 436.644 254.276 146.318 420.595 254.295 146.763 
436.571 254.279 146.425 437.188 254.359 146.655 437.914 254.524 146.808 
440.667 255.163 147.168 442.401 255.744 147.484 405.822 254.714 148.238 
406.314 255.018 148.117 416.693 255.291 147.28 443.38 256.282 147.592 
443.203 256.111 147.663 406.241 255.206 148.165 406.379 255.051 148.135 
414.104 256.787 147.305 414.587 255.944 147.458 444.648 257.786 147.749 
445.106 258.883 148.006 432.555 259.491 147.651 443.974 260.529 147.883 
430.535 261.018 147.919 429.384 261.569 148.183 435.992 262.618 147.768 
436.521 262.274 147.528 437.43 262.335 147.497 438.314 262.362 147.522 
431.604 263.806 147.571 433.313 263.557 148.014 433.68 263.042 147.604 
434.44 262.887 147.675 435.4 262.977 147.801 430.239 264.428 148.089 
432.162 264.215 148.134 376.152 190.24 149.708 377.43 191.183 149.305 
374.554 192.319 149.144 376.798 191.921 148.88 378.517 192.093 149.039 
378.95 192.412 149.116 379.364 192.806 149.133 379.578 193.391 148.848 
380.012 194.206 148.838 376.968 197.23 148.064 375.535 199.419 149.377 
377.971 204.086 148.581 381.683 203.485 149.096 381.684 204.065 148.79 
378.899 207.438 148.662 379.466 211.699 149.51 379.759 212.215 149.247 
381.632 221.096 149.335 383.323 226.229 149.284 384.8 225.19 149.538 
383.874 227.034 149.227 383.501 228.151 149.391 384.553 229.803 149.199 
384.021 230.752 149.33 383.553 231.615 149.616 385.07 232.346 149.13 
385.695 232.295 149.108 386.707 232.842 149.195 387.451 239.39 148.224 
383.769 243.274 149.826 384.08 243.798 149.425 387.96 245.564 147.737 
389.615 245.421 147.675 385.119 246.52 149.159 385.119 247.618 149.568 
385.26 248 149.639 386.133 248.777 149.324 389.922 249.993 148.25 
421.392 253.96 147.188 420.84 254.088 147.422 423.994 253.532 146.929 
424.75 253.467 146.79 427.336 253.399 146.849 427.098 253.335 146.904 
427.949 253.424 146.876 428.002 253.328 146.89 428.751 253.303 146.876 
429.862 253.351 146.774 387.578 250.486 149.564 389.09 250.584 148.772 
404.561 252.734 148.713 421.835 253.928 146.864 427.447 253.674 146.947 
428.278 253.964 147.011 427.786 253.475 146.934 429.042 253.79 147.012 
428.428 253.474 146.938 430.745 253.771 146.953 436.144 254.331 146.853 
437.878 254.502 147.014 437.578 254.466 147.053 401.367 253.177 148.48 
403.435 253.295 148.512 406.288 253.508 148.609 407.349 253.264 148.848 
417.657 254.719 148.12 439.409 254.936 147.312 440.228 255.069 147.334 
394.612 253.09 148.561 398.751 253.669 148.454 414.835 255.17 147.901 
413.923 254.992 148.238 415.719 255.032 147.83 415.192 254.891 148.167 
430.397 254.751 147.273 441.396 255.461 147.781 406.705 254.98 148.224 
408.042 254.319 148.463 443.921 256.482 147.895 444.698 257.254 148.018 
403.993 256.7 148.631 406.033 256.656 148.4 408.294 256.815 148.212 
445.474 258.373 148.327 404.768 257.812 148.855 408.553 258.856 148.594 
439.336 258.569 148.622 446.37 259.456 148.94 445.746 260.624 148.751 
435.405 262.409 147.913 436.18 262.009 147.841 436.926 262.38 147.952 
443.15 262.141 148.612 428.317 263.232 149.022 432.659 263.145 148.175 
433.597 262.802 147.861 434.49 262.555 147.863 435.155 263.251 148.119 
435.991 263.103 148.187 436.361 263.036 148.064 436.734 262.807 148.138 
437.234 263.026 148.064 431.135 263.892 148.652 433.195 263.923 148.492 
433.82 264.046 148.369 434.093 264.001 148.468 434.651 263.974 148.455 
434.855 263.834 148.437 429.789 264.808 148.426 430.241 264.703 148.788 
430.845 264.519 148.517 431.705 264.66 148.62 429.929 265.203 148.909 
373.728 188.851 150.319 371.147 189.105 150.395 371.111 188.984 150.444 
377.386 190.276 150.143 378.004 190.57 150.341 371.149 189.3 150.414 
378.353 191.279 149.794 378.856 191.921 149.597 379.125 192.075 149.883 
372.565 192.108 149.84 373.088 192.003 149.607 373.439 193.145 149.504 
380.103 194.098 149.115 380.664 195.744 149.42 381.085 198.254 149.46 
376.763 204.063 150.003 378.195 207.272 149.392 382.067 207.961 149.378 
379.746 212.974 149.61 380.828 216.467 149.226 381.041 218.322 149.467 
383.758 220.162 149.596 384.123 221.322 149.787 384.328 222.431 149.801 
382.418 225.353 149.709 385.222 225.816 149.782 382.754 228.48 150.025 
386.668 229.294 149.884 387.642 232.359 149.611 383.472 235.353 149.867 
388.627 234.295 149.614 385.36 235.992 148.976 383.484 237.177 149.745 
384.436 236.971 149.168 386.945 236.984 148.736 383.8 237.922 149.441 
385.776 237.901 148.658 388.884 238.037 148.792 384.368 238.671 149.016 
383.981 239.377 149.219 385.521 248.771 150.073 386.29 249.564 149.786 
400.029 249.883 148.985 421.77 254.043 147.551 427.637 253.384 146.953 
429.211 253.359 146.903 429.699 253.369 146.858 409.557 252.919 149.757 
419.969 254.477 147.906 415.08 254.728 149.058 435.911 254.962 147.384 
438.702 254.878 147.432 438.505 254.902 147.505 442.279 255.692 148.146 
442.426 255.656 148.026 442.435 255.689 148.116 442.679 255.799 148.132 
397.96 254.162 148.584 441.661 255.764 148.156 443.627 256.198 148.142 
443.502 256.144 148.199 444.479 256.848 148.26 444.773 257.116 148.535 
445.368 257.783 148.483 445.676 257.982 148.846 393.635 254.608 149.957 
394.973 255.148 149.878 397.56 255.721 149.421 400.465 256.267 149.032 
441.796 257.491 149.015 396.16 255.719 149.977 399.489 256.909 149.727 
403.219 257.927 149.21 404.41 259.359 149.75 439.52 260.997 148.846 
500.128 263.024 151.936 437.933 262.292 148.404 438.454 261.84 148.53 
445.318 262.32 149.49 425.422 262.989 149.851 437.567 262.751 148.399 
439.928 262.752 148.328 418.252 264.746 149.511 429.624 264.199 149.038 
430.512 264.284 148.752 431.152 264.677 148.874 439.62 262.919 148.601 
440.405 262.801 148.717 441.335 262.864 149.175 442.474 263.084 149.547 
429.899 264.761 149.267 430.68 265.022 149.019 430.622 264.981 149.198 
431.408 265.069 149.064 437.351 264.416 149.146 437.846 263.667 148.615 
438.4 263.36 148.55 429.793 265.79 149.475 430.707 265.418 149.358 
431.83 265.432 149.466 372.539 187.031 151.295 370.553 187.763 150.995 
373.503 187.589 151.135 371.306 188.75 150.519 370.776 188.939 150.605 
378.015 190.481 150.707 379.408 192.471 149.934 371.863 192.838 150.446 
381.772 204.104 149.698 378.084 208.141 150.399 382.361 213.182 149.994 
379.617 213.209 150.319 381.632 222.938 150.1 382.307 225.638 149.947 
382.239 226.588 150.53 386.852 228.733 150.415 382.716 231.011 150.596 
388.685 232.84 150.128 382.856 235.603 150.579 382.972 237.985 150.537 
395.538 242.654 150.022 406.213 250.7 150.41 407.327 251.701 149.949 
408.409 252.098 150.125 414.113 254.591 149.686 416.098 254.968 149.181 
391.199 253.515 150.207 416.44 255.808 149.935 444.386 257.017 148.893 
444.982 257.358 148.923 393.114 254.503 150.244 394.446 255.052 150.128 
446.836 258.881 149.823 447.124 259.224 149.715 401.21 257.472 149.522 
400.473 258.032 150.407 501.856 262.214 152.335 502.476 262.078 152.463 
502.829 262.1 152.476 503.04 261.908 152.738 404.825 260.552 150.607 
501.017 262.503 152.146 500.787 262.493 152.181 502.723 262.3 152.35 
503.184 262.158 152.526 407.314 261.174 150.203 439.558 261.749 148.89 
[...]
POINT_DATA 5197
SCALARS scalars float
LOOKUP_TABLE default
1 1 1 1 1 1 1 1 1 
1 1 1 1 1 1 1 1 1 
1 1 1 1 1 1 1 1 1 
1 1 1 1 1 1 1 1 1 
1 1 1 1 1 1 1 1 1 
1 1 1 1 1 1 1 1 1 
1 1 1 1 1 1 1 1 1 
1 1 1 1 1 1 1 1 1 
1 1 1 1 1 1 1 1 1 
1 1 1 1 1 1 1 1 1 
1 1 1 1 1 1 1 1 1 
1 1 1 1 1 1 1 1 1 
1 1 1 1 1 1 1 1 1 
1 1 1 1 1 1 1 1 1 
1 1 1 1 1 1 1 1 1 
1 1 1 1 1 1 1 1 1 
1 1 1 1 1 1 1 1 1 
1 1 1 1 1 1 1 1 1 
1 1 1 1 1 1 1 1 1 
1 1 1 1 1 1 1 1 1 
1 1 1 1 1 1 1 1 1 
1 1 1 1 1 1 1 1 1 
1 1 1 1 1 1 1 1 1 
1 1 1 1 1 1 1 1 1 
1 1 1 1 1 1 1 1 1 
1 1 1 1 1 1 1 1 1 
1 1 1 1 1 1 1 1 1 
1 1 1 1 1 1 1 1 1 
1 1 1 1 1 1 1 1 1 
1 1 1 1 1 1 1 1 1 
1 1 1 1 1 1 1 1 1 
1 1 1 1 1 1 1 1 1 
1 1 1 1 1 1 1 1 1 
1 1 1 1 1 1 1 1 1 
1 1 1 1 1 1 1 1 1 
1 1 1 1 1 1 1 1 1 
1 1 1 1 1 1 1 1 1 
1 1 1 1 1 1 1 1 1 
1 1 1 1 1 1 1 1 1 
1 1 1 1 1 1 1 1 1 
1 1 1 1 1 1 1 1 1 
1 1 1 1 1 1 1 1 1 
1 1 1 1 1 1 1 1 1 
1 1 1 1 1 1 1 1 1 
1 1 1 1 1 1 1 1 1 
1 1 1 1 1 1 1 1 1 
1 1 1 1 1 1 1 1 1 
1 1 1 1 1 1 1 1 1 
1 1 1 1 1 1 1 1 1 
1 1 1 1 1 1 1 1 1 
1 1 1 1 1 1 1 1 1 
1 1 1 1 1 1 1 1 1 
1 1 1 1 1 1 1 1 1 
1 1 1 1 1 1 1 1 1 
1 1 1 1 1 1 1 1 1 
1 1 1 1 1 1 1 1 1 
1 1 1 1 1 1 1 1 1 
1 1 1 1 1 1 1 1 1 
1 1 1 1 1 1 1 1 1 
1 1 1 1 1 1 1 1 1 
1 1 1 1 1 1 1 1 1 
1 1 1 1 1 1 1 1 1 
1 1 1 1 1 1 1 1 1 
1 1 1 1 1 1 1 1 1 
1 1 1 1 1 1 1 1 1 
1 1 1 1 1 1 1 1 1 
1 1 1 1 1 1 1 1 1 
1 1 1 1 1 1 1 1 1 
1 1 1 1 1 1 1 1 1 
1 1 1 1 1 1 1 1 1 
1 1 1 1 1 1 1 1 1 
1 1 1 1 1 1 1 1 1 
1 1 1 1 1 1 1 1 1 
1 1 1 1 1 1 1 1 1 
1 1 1 1 1 1 1 1 1 
1 1 1 1 1 1 1 1 1 
1 1 1 1 1 1 1 1 1 
1 1 1 1 1 1 1 1 1 
1 1 1 1 1 1 1 1 1 
1 1 1 1 1 1 1 1 1 
1 1 1 1 1 1 1 1 1 
1 1 1 1 1 1 1 1 1 
1 1 1 1 1 1 1 1 1 
1 1 1 1 1 1 1 1 1 
1 1 1 1 1 1 1 1 1 
1 1 1 1 1 1 1 1 1 
1 1 1 1 1 1 1 1 1 
1 1 1 1 1 1 1 1 1 
1 1 1 1 1 1 1 1 1 
1 1 1 1 1 1 1 1 1 
1 1 1 1 1 1 1 1 1 
1 1 1 1 1 1 1 1 1 
1 1 1 1 1 1 1 1 1 
1 1 1 1 1 1 1 1 1 
1 1 1 1 1 1 1 1 1 
1 1 1 1 1 1 1 1 1 
1 1 1 1 1 1 1 1 1 
1 1 1 1 1 1 1 1 1 
1 1 1 1 1 1 1 1 1 
1 1 1 1 1 1 1 1 1 
1 1 1 1 1 1 1 1 1 
1 1 1 1 1 1 1 1 1 
1 1 1 1 1 1 1 1 1 
1 1 1 1 1 1 1 1 1 
1 1 1 1 1 1 1 1 1 
1 1 1 1 1 1 1 1 1 
1 1 1 1 1 1 1 1 1 
1 1 1 1 1 1 1 1 1 
1 1 1 1 1 1 1 1 1 
1 1 1 1 1 1 1 1 1 
1 1 1 1 1 1 1 1 1 
1 1 1 1 1 1 1 1 1 
1 1 1 1 1 1 1 1 1 
1 1 1 1 1 1 1 1 1 
1 1 1 1 1 1 1 1 1 
1 1 1 1 1 1 1 1 1 
1 1 1 1 1 1 1 1 1 
1 1 1 1 1 1 1 1 1 
1 1 1 1 1 1 1 1 1 
1 1 1 1 1 1 1 1 1 
1 1 1 1 1 1 1 1 1 
1 1 1 1 1 1 1 1 1 
1 1 1 1 1 1 1 1 1 
1 1 1 1 1 1 1 1 1 
1 1 1 1 1 1 1 1 1 
1 1 1 1 1 1 1 1 1 
1 1 1 1 1 1 1 1 1 
1 1 1 1 1 1 1 1 1 
1 1 1 1 1 1 1 1 1 
1 1 1 1 1 1 1 1 1 
1 1 1 1 1 1 1 1 1 
1 1 1 1 1 1 1 1 1 
1 1 1 1 1 1 1 1 1 
1 1 1 1 1 1 1 1 1 
1 1 1 1 1 1 1 1 1 
1 1 1 1 1 1 1 1 1 
1 1 1 1 1 1 1 1 1 
1 1 1 1 1 1 1 1 1 
1 1 1 1 1 1 1 1 1 
1 1 1 1 1 1 1 1 1 
1 1 1 1 1 1 1 1 1 
1 1 1 1 1 1 1 1 1 
1 1 1 1 1 1 1 1 1 
1 1 1 1 1 1 1 1 1 
1 1 1 1 1 1 1 1 1 
1 1 1 1 1 1 1 1 1 
1 1 1 1 1 1 1 1 1 
1 1 1 1 1 1 1 1 1 
1 1 1 1 1 1 1 1 1 
1 1 1 1 1 1 1 1 1 
1 1 1 1 1 1 1 1 1 
1 1 1 1 1 1 1 1 1 
1 1 1 1 1 1 1 1 1 
1 1 1 1 1 1 1 1 1 
1 1 1 1 1 1 1 1 1 
1 1 1 1 1 1 1 1 1 
1 1 1 1 1 1 1 1 1 
1 1 1 1 1 1 1 1 1 
1 1 1 1 1 1 1 1 1 
1 1 1 1 1 1 1 1 1 
1 1 1 1 1 1 1 1 1 
1 1 1 1 1 1 1 1 1 
1 1 1 1 1 1 1 1 1 
1 1 1 1 1 1 1 1 1 
1 1 1 1 1 1 1 1 1 
1 1 1 1 1 1 1 1 1 
1 1 1 1 1 1 1 1 1 
1 1 1 1 1 1 1 1 1 
1 1 1 1 1 1 1 1 1 
1 1 1 1 1 1 1 1 1 
1 1 1 1 1 1 1 1 1 
1 1 1 1 1 1 1 1 1 
1 1 1 1 1 1 1 1 1 
1 1 1 1 1 1 1 1 1 
1 1 1 1 1 1 1 1 1 
1 1 1 1 1 1 1 1 1 
1 1 1 1 1 1 1 1 1 
1 1 1 1 1 1 1 1 1 
1 1 1 1 1 1 1 1 1 
1 1 1 1 1 1 1 1 1 
1 1 1 1 1 1 1 1 1 
1 1 1 1 1 1 1 1 1 
1 1 1 1 1 1 1 1 1 
1 1 1 1 1 1 1 1 1 
1 1 1 1 1 1 1 1 1 
1 1 1 1 1 1 1 1 1 
1 1 1 1 1 1 1 1 1 
1 1 1 1 1 1 1 1 1 
1 1 1 1 1 1 1 1 1 
1 1 1 1 1 1 1 1 1 
1 1 1 1 1 1 1 1 1 
1 1 1 1 1 1 1 1 1 
1 1 1 1 1 1 1 1 1 
1 1 1 1 1 1 1 1 1 
1 1 1 1 1 1 1 1 1 
1 1 1 1 1 1 1 1 1 
1 1 1 1 1 1 1 1 1 
1 1 1 1 1 1 1 1 1 
1 1 1 1 1 1 1 1 1 
1 1 1 1 1 1 1 1 1 
1 1 1 1 1 1 1 1 1 
1 1 1 1 1 1 1 1 1 
1 1 1 1 1 1 1 1 1 
1 1 1 1 1 1 1 1 1 
1 1 1 1 1 1 1 1 1 
1 1 1 1 1 1 1 1 1 
1 1 1 1 1 1 1 1 1 
1 1 1 1 1 1 1 1 1 
1 1 1 1 1 1 1 1 1 
1 1 1 1 1 1 1 1 1 
1 1 1 1 1 1 1 1 1 
1 1 1 1 1 1 1 1 1 
1 1 1 1 1 1 1 1 1 
1 1 1 1 1 1 1 1 1 
1 1 1 1 1 1 1 1 1 
1 1 1 1 1 1 1 1 1 
1 1 1 1 1 1 1 1 1 
1 1 1 1 1 1 1 1 1 
1 1 1 1 1 1 1 1 1 
1 1 1 1 1 1 1 1 1 
1 1 1 1 1 1 1 1 1 
1 1 1 1 1 1 1 1 1 
1 1 1 1 1 1 1 1 1 
1 1 1 1 1 1 1 1 1 
1 1 1 1 1 1 1 1 1 
1 1 1 1 1 1 1 1 1 
1 1 1 1 1 1 1 1 1 
1 1 1 1 1 1 1 1 1 
1 1 1 1 1 1 1 1 1 
1 1 1 1 1 1 1 1 1 
1 1 1 1 1 1 1 1 1 
1 1 1 1 1 1 1 1 1 
1 1 1 1 1 1 1 1 1 
1 1 1 1 1 1 1 1 1 
1 1 1 1 1 1 1 1 1 
1 1 1 1 1 1 1 1 1 
1 1 1 1 1 1 1 1 1 
1 1 1 1 1 1 1 1 1 
1 1 1 1 1 1 1 1 1 
1 1 1 1 1 1 1 1 1 
1 1 1 1 1 1 1 1 1 
1 1 1 1 1 1 1 1 1 
1 1 1 1 1 1 1 1 1 
1 1 1 1 1 1 1 1 1 
1 1 1 1 1 1 1 1 1 
1 1 1 1 1 1 1 1 1 
1 1 1 1 1 1 1 1 1 
1 1 1 1 1 1 1 1 1 
1 1 1 1 1 1 1 1 1 
1 1 1 1 1 1 1 1 1 
1 1 1 1 1 1 1 1 1 
1 1 1 1 1 1 1 1 1 
1 1 1 1 1 1 1 1 1 
1 1 1 1 1 1 1 1 1 
1 1 1 1 1 1 1 1 1 
1 1 1 1 1 1 1 1 1 
1 1 1 1 1 1 1 1 1 
1 1 1 1 1 1 1 1 1 
1 1 1 1 1 1 1 1 1 
1 1 1 1 1 1 1 1 1 
1 1 1 1 1 1 1 1 1 
1 1 1 1 1 1 1 1 1 
1 1 1 1 1 1 1 1 1 
1 1 1 1 1 1 1 1 1 
1 1 1 1 1 1 1 1 1 
1 1 1 1 1 1 1 1 1 
1 1 1 1 1 1 1 1 1 
1 1 1 1 1 1 1 1 1 
1 1 1 1 1 1 1 1 1 
1 1 1 1 1 1 1 1 1 
1 1 1 1 1 1 1 1 1 
1 1 1 1 1 1 1 1 1 
1 1 1 1 1 1 1 1 1 
1 1 1 1 1 1 1 1 1 
1 1 1 1 1 1 1 1 1 
1 1 1 1 1 1 1 1 1 
1 1 1 1 1 1 1 1 1 
1 1 1 1 1 1 1 1 1 
1 1 1 1 1 1 1 1 1 
1 1 1 1 1 1 1 1 1 
1 1 1 1 1 1 1 1 1 
1 1 1 1 1 1 1 1 1 
1 1 1 1 1 1 1 1 1 
1 1 1 1 1 1 1 1 1 
1 1 1 1 1 1 1 1 1 
1 1 1 1 1 1 1 1 1 
1 1 1 1 1 1 1 1 1 
1 1 1 1 1 1 1 1 1 
1 1 1 1 1 1 1 1 1 
1 1 1 1 1 1 1 1 1 
1 1 1 1 1 1 1 1 1 
1 1 1 1 1 1 1 1 1 
1 1 1 1 1 1 1 1 1 
1 1 1 1 1 1 1 1 1 
1 1 1 1 1 1 1 1 1 
1 1 1 1 1 1 1 1 1 
1 1 1 1 1 1 1 1 1 
1 1 1 1 1 1 1 1 1 
1 1 1 1 1 1 1 1 1 
1 1 1 1 1 1 1 1 1 
1 1 1 1 1 1 1 1 1 
1 1 1 1 1 1 1 1 1 
1 1 1 1 1 1 1 1 1 
1 1 1 1 1 1 1 1 1 
1 1 1 1 1 1 1 1 1 
1 1 1 1 1 1 1 1 1 
1 1 1 1 1 1 1 1 1 
1 1 1 1 1 1 1 1 1 
1 1 1 1 1 1 1 1 1 
1 1 1 1 1 1 1 1 1 
1 1 1 1 1 1 1 1 1 
1 1 1 1 1 1 1 1 1 
1 1 1 1 1 1 1 1 1 
1 1 1 1 1 1 1 1 1 
1 1 1 1 1 1 1 1 1 
1 1 1 1 1 1 1 1 1 
1 1 1 1 1 1 1 1 1 
1 1 1 1 1 1 1 1 1 
1 1 1 1 1 1 1 1 1 
1 1 1 1 1 1 1 1 1 
1 1 1 1 1 1 1 1 1 
1 1 1 1 1 1 1 1 1 
1 1 1 1 1 1 1 1 1 
1 1 1 1 1 1 1 1 1 
1 1 1 1 1 1 1 1 1 
1 1 1 1 1 1 1 1 1 
1 1 1 1 1 1 1 1 1 
1 1 1 1 1 1 1 1 1 
1 1 1 1 1 1 1 1 1 
1 1 1 1 1 1 1 1 1 
1 1 1 1 1 1 1 1 1 
1 1 1 1 1 1 1 1 1 
1 1 1 1 1 1 1 1 1 
1 1 1 1 1 1 1 1 1 
1 1 1 1 1 1 1 1 1 
1 1 1 1 1 1 1 1 1 
1 1 1 1 1 1 1 1 1 
1 1 1 1 1 1 1 1 1 
1 1 1 1 1 1 1 1 1 
1 1 1 1 1 1 1 1 1 
1 1 1 1 1 1 1 1 1 
1 1 1 1 1 1 1 1 1 
1 1 1 1 1 1 1 1 1 
1 1 1 1 1 1 1 1 1 
1 1 1 1 1 1 1 1 1 
1 1 1 1 1 1 1 1 1 
1 1 1 1 1 1 1 1 1 
1 1 1 1 1 1 1 1 1 
1 1 1 1 1 1 1 1 1 
1 1 1 1 1 1 1 1 1 
1 1 1 1 1 1 1 1 1 
1 1 1 1 1 1 1 1 1 
1 1 1 1 1 1 1 1 1 
1 1 1 1 1 1 1 1 1 
1 1 1 1 1 1 1 1 1 
1 1 1 1 1 1 1 1 1 
1 1 1 1 1 1 1 1 1 
1 1 1 1 1 1 1 1 1 
1 1 1 1 1 1 1 1 1 
1 1 1 1 1 1 1 1 1 
1 1 1 1 1 1 1 1 1 
1 1 1 1 1 1 1 1 1 
1 1 1 1 1 1 1 1 1 
1 1 1 1 1 1 1 1 1 
1 1 1 1 1 1 1 1 1 
1 1 1 1 1 1 1 1 1 
1 1 1 1 1 1 1 1 1 
1 1 1 1 1 1 1 1 1 
1 1 1 1 1 1 1 1 1 
1 1 1 1 1 1 1 1 1 
1 1 1 1 1 1 1 1 1 
1 1 1 1 1 1 1 1 1 
1 1 1 1 1 1 1 1 1 
1 1 1 1 1 1 1 1 1 
1 1 1 1 1 1 1 1 1 
1 1 1 1 1 1 1 1 1 
1 1 1 1 1 1 1 1 1 
1 1 1 1 1 1 1 1 1 
1 1 1 1 1 1 1 1 1 
1 1 1 1 1 1 1 1 1 
1 1 1 1 1 1 1 1 1 
1 1 1 1 1 1 1 1 1 
1 1 1 1 1 1 1 1 1 
1 1 1 1 1 1 1 1 1 
1 1 1 1 1 1 1 1 1 
1 1 1 1 1 1 1 1 1 
1 1 1 1 1 1 1 1 1 
1 1 1 1 1 1 1 1 1 
1 1 1 1 1 1 1 1 1 
1 1 1 1 1 1 1 1 1 
1 1 1 1 1 1 1 1 1 
1 1 1 1 1 1 1 1 1 
1 1 1 1 1 1 1 1 1 
1 1 1 1 1 1 1 1 1 
1 1 1 1 1 1 1 1 1 
1 1 1 1 1 1 1 1 1 
1 1 1 1 1 1 1 1 1 
1 1 1 1 1 1 1 1 1 
1 1 1 1 1 1 1 1 1 
1 1 1 1 1 1 1 1 1 
1 1 1 1 1 1 1 1 1 
1 1 1 1 1 1 1 1 1 
1 1 1 1 1 1 1 1 1 
1 1 1 1 1 1 1 1 1 
1 1 1 1 1 1 1 1 1 
1 1 1 1 1 1 1 1 1 
1 1 1 1 1 1 1 1 1 
1 1 1 1 1 1 1 1 1 
1 1 1 1 1 1 1 1 1 
1 1 1 1 1 1 1 1 1 
1 1 1 1 1 1 1 1 1 
1 1 1 1 1 1 1 1 1 
1 1 1 1 1 1 1 1 1 
1 1 1 1 1 1 1 1 1 
1 1 1 1 1 1 1 1 1 
1 1 1 1 1 1 1 1 1 
1 1 1 1 1 1 1 1 1 
1 1 1 1 1 1 1 1 1 
1 1 1 1 1 1 1 1 1 
1 1 1 1 1 1 1 1 1 
1 1 1 1 1 1 1 1 1 
1 1 1 1 1 1 1 1 1 
1 1 1 1 1 1 1 1 1 
1 1 1 1 1 1 1 1 1 
1 1 1 1 1 1 1 1 1 
1 1 1 1 1 1 1 1 1 
1 1 1 1 1 1 1 1 1 
1 1 1 1 1 1 1 1 1 
1 1 1 1 1 1 1 1 1 
1 1 1 1 1 1 1 1 1 
1 1 1 1 1 1 1 1 1 
1 1 1 1 1 1 1 1 1 
1 1 1 1 1 1 1 1 1 
1 1 1 1 1 1 1 1 1 
1 1 1 1 1 1 1 1 1 
1 1 1 1 1 1 1 1 1 
1 1 1 1 1 1 1 1 1 
1 1 1 1 1 1 1 1 1 
1 1 1 1 1 1 1 1 1 
1 1 1 1 1 1 1 1 1 
1 1 1 1 1 1 1 1 1 
1 1 1 1 1 1 1 1 1 
1 1 1 1 1 1 1 1 1 
1 1 1 1 1 1 1 1 1 
1 1 1 1 1 1 1 1 1 
1 1 1 1 1 1 1 1 1 
1 1 1 1 1 1 1 1 1 
1 1 1 1 1 1 1 1 1 
1 1 1 1 1 1 1 1 1 
1 1 1 1 1 1 1 1 1 
1 1 1 1 1 1 1 1 1 
1 1 1 1 1 1 1 1 1 
1 1 1 1 1 1 1 1 1 
1 1 1 1 1 1 1 1 1 
1 1 1 1 1 1 1 1 1 
1 1 1 1 1 1 1 1 1 
1 1 1 1 1 1 1 1 1 
1 1 1 1 1 1 1 1 1 
1 1 1 1 1 1 1 1 1 
1 1 1 1 1 1 1 1 1 
1 1 1 1 1 1 1 1 1 
1 1 1 1 1 1 1 1 1 
1 1 1 1 1 1 1 1 1 
1 1 1 1 1 1 1 1 1 
1 1 1 1 1 1 1 1 1 
1 1 1 1 1 1 1 1 1 
1 1 1 1 1 1 1 1 1 
1 1 1 1 1 1 1 1 1 
1 1 1 1 1 1 1 1 1 
1 1 1 1 1 1 1 1 1 
1 1 1 1 1 1 1 1 1 
1 1 1 1 1 1 1 1 1 
1 1 1 1 1 1 1 1 1 
1 1 1 1 1 1 1 1 1 
1 1 1 1 1 1 1 1 1 
1 1 1 1 1 1 1 1 1 
1 1 1 1 1 1 1 1 1 
1 1 1 1 1 1 1 1 1 
1 1 1 1 1 1 1 1 1 
1 1 1 1 1 1 1 1 1 
1 1 1 1 1 1 1 1 1 
1 1 1 1 1 1 1 1 1 
1 1 1 1 1 1 1 1 1 
1 1 1 1 1 1 1 1 1 
1 1 1 1 1 1 1 1 1 
1 1 1 1 1 1 1 1 1 
1 1 1 1 1 1 1 1 1 
1 1 1 1 1 1 1 1 1 
1 1 1 1 1 1 1 1 1 
1 1 1 1 1 1 1 1 1 
1 1 1 1 1 1 1 1 1 
1 1 1 1 1 1 1 1 1 
1 1 1 1 1 1 1 1 1 
1 1 1 1 1 1 1 1 1 
1 1 1 1 1 1 1 1 1 
1 1 1 1 1 1 1 1 1 
1 1 1 1 1 1 1 1 1 
1 1 1 1 1 1 1 1 1 
1 1 1 1 1 1 1 1 1 
1 1 1 1 1 1 1 1 1 
1 1 1 1 1 1 1 1 1 
1 1 1 1 1 1 1 1 1 
1 1 1 1 1 1 1 1 1 
1 1 1 1 1 1 1 1 1 
1 1 1 1 1 1 1 1 1 
1 1 1 1 1 1 1 1 1 
1 1 1 1 1 1 1 1 1 
1 1 1 1 1 1 1 1 1 
1 1 1 1 1 1 1 1 1 
1 1 1 1 1 1 1 1 1 
1 1 1 1 1 1 1 1 1 
1 1 1 1 1 1 1 1 1 
1 1 1 1 1 1 1 1 1 
1 1 1 1 1 1 1 1 1 
1 1 1 1 1 1 1 1 1 
1 1 1 1 1 1 1 1 1 
1 1 1 1 1 1 1 1 1 
1 1 1 1 1 1 1 1 1 
1 1 1 1 1 1 1 1 1 
1 1 1 1 1 1 1 1 1 
1 1 1 1 1 1 1 1 1 
1 1 1 1 1 1 1 1 1 
1 1 1 1 1 1 1 1 1 
1 1 1 1 1 1 1 1 1 
1 1 1 1 1 1 1 1 1 
1 1 1 1 1 1 1 1 1 
1 1 1 1 1 1 1 1 1 
1 1 1 1 1 1 1 1 1 
1 1 1 1 1 1 1 1 1 
1 1 1 1 1 1 1 1 1 
1 1 1 1 1 1 1 1 1 
1 1 1 1 1 1 1 1 1 
1 1 1 1 1 1 1 1 1 
1 1 1 1 1 1 1 1 1 
1 1 1 1 1 1 1 1 1 
1 1 1 1 1 1 1 1 1 
1 1 1 1 1 1 1 1 1 
1 1 1 1 1 1 1 1 1 
1 1 1 1 1 1 1 1 1 
1 1 1 1 1 1 1 1 1 
1 1 1 1 1 1 1 1 1 
1 1 1 1 1 1 1 1 1 
1 1 1 1 1 1 1 1 1 
1 1 1 1 1 1 1 1 1 
1 1 1 1 1 1 1 1 1 
1 1 1 1 1 1 1 1 1 
1 1 1 1 1 1 1 1 1 
1 1 1 1 1 1 1 1 1 
1 1 1 1 1 1 1 1 1 
1 1 1 1 1 1 1 1 1 
1 1 1 1 1 1 1 1 1 
1 1 1 1 1 1 1 1 1 
1 1 1 1 1 1 1 1 1 
1 1 1 1 1 1 1 1 1 
1 1 1 1 1 1 1 1 1 
1 1 1 1 1 1 1 1 1 
1 1 1 1 1 1 1 1 1 
1 1 1 1 1 1 1 1 1 
1 1 1 1 1 1 1 1 1 
1 1 1 1 1 1 1 1 1 
1 1 1 1 1 1 1 1 1 
1 1 1 1 1 1 1 1 1 
1 1 1 1 1 1 1 1 1 
1 1 1 1 1 1 1 1 1 
1 1 1 1 1 1 1 1 1 
1 1 1 1 1 1 1 1 1 
1 1 1 1 1 1 1 1 1 
1 1 1 1 1 1 1 1 1 
1 1 1 1 1 1 1 1 1 
1 1 1 1 1 1 1 1 1 
1 1 1 1 1 1 1 1 1 
1 1 1 1 1 1 1 1 1 
1 1 1 1 1 1 1 1 1 
1 1 1 1 1 1 1 1 1 
1 1 1 1 1 1 1 1 1 
1 1 1 1 1 1 1 1 1 
1 1 1 1 1 1 1 1 1 
1 1 1 1 
NORMALS Normals float
-0.0267205 -0.462275 -0.886334 -0.0755597 -0.332796 -0.939967 0.0263793 -0.210845 -0.977164 
0.0337136 -0.305853 -0.951482 -0.0923171 -0.0226645 -0.995472 -0.13238 0.136866 -0.981704 
-0.0814022 0.031264 -0.996191 -0.0557567 0.219133 -0.974101 0.0818158 0.418924 -0.904328 
0.0848304 0.438625 -0.894657 0.0335411 -0.442643 -0.896071 0.0469934 -0.930038 -0.364445 
0.0125691 -0.483772 -0.875104 0.0389962 -0.633357 -0.772877 -0.0209477 -0.932427 -0.360751 
0.1631 -0.894109 -0.417094 -0.0384238 -0.572797 -0.818797 0.179485 -0.431999 -0.883834 
-0.210517 -0.479481 -0.851928 0.11405 -0.345881 -0.931321 0.157818 -0.206437 -0.965649 
-0.242523 -0.114006 -0.963424 -0.236956 -0.08185 -0.968066 0.224076 0.0574929 -0.972874 
0.160484 0.13817 -0.97732 0.104144 0.170379 -0.97986 0.288763 0.448876 -0.845651 
-0.166242 0.37214 -0.913168 0.0176985 0.550255 -0.834809 0.142908 0.573127 -0.806909 
0.176373 0.578354 -0.796492 0.48623 -0.167931 -0.857543 0.584213 -0.117951 -0.802984 
0.420455 -0.0463445 -0.906129 0.752027 -0.052203 -0.657062 0.683578 0.0389564 -0.728837 
0.520488 0.0374212 -0.853048 0.344271 -0.0641336 -0.936677 0.459164 -0.0680102 -0.885744 
0.674216 -0.108171 -0.730569 0.0793319 0.0697218 -0.994407 0.431674 -0.0212904 -0.901778 
0.00803913 -0.854922 -0.518695 0.0349959 -0.903245 -0.427696 -0.0414019 -0.904377 -0.424721 
0.0675584 -0.812098 -0.579597 0.103494 -0.985853 0.131844 0.13153 -0.964564 0.228726 
0.221285 -0.903766 -0.366387 0.235942 -0.670331 -0.703554 -0.00671863 -0.823891 -0.566709 
0.400187 -0.826861 -0.39516 -0.147707 -0.556401 -0.81768 0.0225515 -0.631185 -0.775304 
0.104917 -0.776574 -0.621229 0.295033 -0.83494 -0.464575 0.255165 -0.417418 -0.872155 
-0.285444 -0.0595346 -0.956544 0.253342 -0.330186 -0.909283 0.406942 -0.187485 -0.894006 
-0.179664 -0.025163 -0.983406 -0.258554 0.176838 -0.949673 -0.196419 0.399123 -0.895612 
0.354314 0.203947 -0.912616 0.207046 0.68467 -0.698827 0.209966 0.735626 -0.644025 
0.100975 0.745809 -0.658463 0.286442 0.719005 -0.633233 -0.164684 -0.270296 -0.948588 
-0.201519 -0.222378 -0.953907 0.297914 -0.321559 -0.898803 0.530978 -0.459492 -0.71199 
0.00942822 -0.234104 -0.972166 0.36588 -0.248465 -0.896882 0.754937 -0.231869 -0.613439 
0.743385 -0.19172 -0.640798 -0.204688 -0.13217 -0.969863 -0.17352 0.00930918 -0.984786 
0.0879149 -0.0889407 -0.992149 0.929905 -0.112729 -0.350098 -0.00382224 0.0190239 -0.999812 
-0.015696 0.0904491 -0.995777 -0.249419 0.0657032 -0.966164 0.129433 0.0869734 -0.987767 
-0.243547 0.138528 -0.959945 0.964542 -0.100028 -0.244241 -0.473094 0.0635907 -0.878714 
-0.0302451 0.013278 -0.999454 -0.189558 0.0866492 -0.978039 0.878536 -0.102532 -0.466543 
-0.329824 0.0596355 -0.942157 -0.31253 0.12347 -0.941849 -0.616911 0.17091 -0.768251 
0.317396 -0.0146863 -0.948179 0.547051 -0.0892149 -0.832332 0.815873 -0.103985 -0.568805 
-0.620055 0.158523 -0.768377 0.503836 0.0233256 -0.863485 -0.141051 0.0868805 -0.986183 
0.179312 0.116932 -0.976818 -0.0586206 0.00767978 -0.998251 -0.081551 -0.0174712 -0.996516 
0.0328401 -0.0652422 -0.997329 -0.463774 0.0309475 -0.885413 -0.263709 0.00801748 -0.964569 
-0.136821 -0.828418 -0.543142 -0.112626 -0.63904 -0.760883 -0.730148 -0.634224 -0.254251 
0.0488541 -0.899083 -0.435045 0.230982 -0.942463 0.241684 -0.0936172 -0.73131 -0.67559 
0.129853 -0.891899 -0.433191 0.0259118 -0.970059 0.241482 0.173382 -0.978758 0.109411 
0.0978808 -0.99428 0.0427346 0.151702 -0.952435 -0.264298 -0.267509 -0.889243 -0.37106 
0.105031 -0.99326 -0.0490233 0.191242 -0.977261 -0.0915797 0.254181 -0.959425 -0.122047 
0.282123 -0.923489 -0.259952 0.379027 -0.820707 -0.427527 0.18356 -0.495303 -0.849106 
0.199998 -0.246408 -0.948306 -0.205638 -0.543878 -0.813579 0.4331 -0.583236 -0.687211 
0.287891 -0.516226 -0.806616 0.0452588 0.249714 -0.967261 0.239654 0.251618 -0.937686 
-0.130375 -0.288427 -0.948584 -0.223692 -0.398889 -0.889297 0.576985 -0.188268 -0.79476 
0.502135 0.00783329 -0.864754 0.00325079 -0.0550402 0.998479 0.328732 0.340997 -0.880714 
0.141907 -0.0923093 0.985566 0.308089 0.00509211 0.951344 0.631969 0.737611 -0.237792 
0.0838407 0.996434 -0.00952215 -0.160012 0.785821 -0.597395 0.211882 0.651226 -0.728705 
0.116802 0.703101 -0.701432 0.662389 0.622739 -0.416458 0.295479 0.911192 -0.28709 
0.0190933 0.999652 0.0181818 0.144186 0.698975 -0.70046 0.131045 0.792006 -0.596283 
0.179649 0.769943 -0.612302 0.206812 -0.600829 -0.772161 0.364375 -0.639347 -0.677101 
-0.195432 -0.0499968 -0.979442 -0.0573553 -0.249886 -0.966575 0.319036 -0.498985 -0.805749 
0.5526 -0.597815 -0.580733 0.710692 -0.56275 -0.422172 0.722702 -0.472594 -0.504338 
0.70257 -0.416192 -0.577217 -0.41724 -0.0207175 -0.90856 -0.735631 0.247304 -0.630625 
-0.545326 0.154228 -0.823914 0.969507 -0.189811 -0.155012 0.943584 -0.121889 -0.307883 
-0.43509 0.0689619 -0.897742 -0.809994 0.256732 -0.527256 -0.840942 0.211807 -0.497951 
-0.860907 0.169543 -0.479682 -0.408396 0.223036 -0.885137 0.464141 0.0753402 -0.882551 
-0.378991 0.133124 -0.915775 -0.277797 -0.0508296 -0.959294 -0.170718 -0.234619 -0.956979 
-0.447031 -0.13615 -0.884096 -0.615195 -0.00983007 -0.788314 -0.134323 0.0300335 -0.990482 
0.055415 -0.0672119 -0.996199 0.226732 -0.0674771 -0.971617 0.0781317 -0.0424443 -0.996039 
-0.863385 0.104268 -0.493654 -0.755451 0.0521765 -0.653125 -0.194413 0.107591 -0.975001 
0.117457 -0.0850791 -0.989427 -0.541346 0.29463 -0.787488 -0.876076 0.295638 -0.380906 
-0.568403 0.457283 -0.683966 -0.567169 0.429357 -0.702831 -0.21143 0.318287 -0.924116 
-0.238229 -0.962627 -0.128826 -0.256817 -0.964353 0.0637883 -0.119302 -0.985413 0.121358 
-0.0533577 -0.941847 -0.331778 0.141877 -0.253963 -0.956752 -0.0102845 -0.999359 0.0342914 
-0.078629 0.0297441 -0.99646 -0.0274057 -0.967129 -0.252804 0.0196525 -0.9925 0.120653 
0.1203 -0.976961 0.176279 -0.595192 0.73172 -0.332163 -0.336538 0.42662 -0.839487 
0.0403159 -0.483961 -0.87416 -0.213592 -0.853822 -0.474728 0.281484 -0.50321 0.817035 
0.0196638 -0.627226 0.778589 0.107036 0.600383 0.792517 -0.0919008 -0.118751 0.988662 
-0.10424 0.388294 0.915621 0.106058 -0.604218 0.789729 0.0775931 -0.901678 0.425389 
0.134508 -0.967607 0.213643 0.0525248 -0.8534 0.518603 0.0683573 -0.121999 -0.990174 
-0.0531858 -0.123946 -0.990863 0.153961 -0.37013 -0.916133 0.105249 -0.441771 -0.890933 
0.0646089 -0.921319 0.383402 0.192692 -0.936272 0.293708 0.149344 -0.929979 0.335911 
-0.215623 0.448153 -0.867563 -0.0596746 0.135935 -0.988919 -0.206387 -0.769886 -0.603887 
-0.0534829 -0.668206 -0.742051 -0.0909622 -0.793046 -0.602332 -0.160359 -0.945849 -0.282233 
0.0479933 -0.346548 0.936804 0.171728 -0.942907 0.28537 0.202432 -0.0729495 -0.976575 
-0.0702077 -0.32346 -0.943634 0.602358 -0.681025 -0.416376 0.637408 -0.472618 -0.608559 
-0.155437 0.239894 -0.958275 -0.0488092 0.269022 -0.961896 -0.140432 0.0281899 -0.989689 
0.649426 -0.157168 -0.744005 -0.0230492 0.281421 -0.959307 -0.25205 0.352294 -0.90131 
-0.304861 -0.143337 0.941549 0.654339 -0.135882 -0.743893 0.483116 0.239223 -0.842242 
0.0559422 -0.195653 0.979076 -0.100435 0.304421 0.947228 -0.766665 0.600347 0.227612 
0.188791 0.684447 -0.704194 0.217524 -0.373862 0.901616 0.254526 -0.326661 0.910225 
0.30152 0.217259 0.928377 -0.140531 0.103156 0.984688 -0.287923 -0.287812 0.913381 
-0.0548359 -0.535917 0.842488 0.132632 0.501813 -0.854747 0.363247 0.303614 -0.880835 
-0.0863362 0.537303 -0.838959 0.0397026 -0.22003 0.974685 0.153427 -0.611354 0.776342 
0.135009 0.241432 -0.96098 0.130324 -0.255455 -0.957997 -0.0445056 -0.549245 -0.834476 
-0.017425 0.102578 -0.994572 0.247109 0.736906 -0.629211 0.974142 0.188849 0.124027 
0.0197874 0.962173 -0.271719 0.0341062 0.792917 -0.608374 0.200731 0.637222 -0.74408 
-0.0173943 -0.419915 -0.907397 -0.0823463 -0.129002 -0.988219 -0.263745 -0.3771 -0.887825 
0.390722 -0.709275 -0.586741 0.625587 -0.710418 -0.322408 -0.200651 -0.0366471 -0.978977 
0.600837 -0.642955 -0.474978 0.654854 -0.612358 -0.442926 0.759051 -0.595358 -0.26342 
-0.468295 0.169814 -0.8671 -0.318937 0.00687194 -0.947751 -0.42888 0.183558 -0.884516 
0.917953 -0.31263 -0.24418 0.964277 -0.239757 -0.112631 0.995356 -0.0168314 -0.0947801 
-0.878349 0.317544 -0.357307 -0.846933 0.251318 -0.468555 0.998438 -0.0372905 0.0415952 