# vtk DataFile Version 4.2
vtk output
ASCII
DATASET POLYDATA
POINTS 540 float
389.135 123.194 138.882 389.065 123.371 138.841 389.329 123.182 138.913 
389.259 123.082 138.924 389.353 123.066 138.996 389.083 123.954 138.799 
389.388 123.51 139.01 388.26 124.719 138.719 387.796 124.826 138.782 
388.682 124.596 138.72 388.109 125.36 138.682 388.278 125.679 138.73 
388.674 125.343 138.793 388.969 125.07 138.896 386.547 127.031 138.648 
389.036 125.295 139.032 386.843 127.418 138.67 387.995 127.176 139.04 
388.387 126.51 139.025 385.353 128.533 138.738 387.196 128.066 138.897 
385.674 129.435 138.808 389.294 122.984 139.007 389.22 122.952 139.095 
389.206 122.999 138.996 389.321 122.986 139.112 389.125 123.093 138.949 
389.388 123.115 139.131 387.714 124.116 139.11 387.598 123.985 139.298 
389.378 124.536 139.327 385.661 126.595 138.918 389.29 124.972 139.333 
385.639 126.959 138.816 385.18 129.117 138.759 387.372 128.455 139.159 
388.312 127.332 139.442 388.669 126.799 139.595 387.874 128.56 139.764 
383.39 131.191 139.034 384.217 130.819 138.993 385.597 129.985 138.975 
386.018 130.836 139.517 386.489 130.527 139.685 382.082 133.437 139.378 
383.358 133.034 139.361 389.237 122.948 139.218 389.392 123.205 139.3 
387.743 123.716 139.474 385.407 125.467 139.765 389.425 124.57 139.578 
389.218 125.426 139.902 381.829 129.303 139.831 388.262 127.942 139.93 
382.741 129.877 139.277 387.52 129.68 140.32 380.879 132.804 139.496 
386.811 131.051 140.591 379.655 134.749 139.813 382.807 133.881 139.669 
384.494 133.255 140.003 380.817 135.062 139.908 383.083 134.739 140.356 
388.962 122.981 139.429 388.344 123.162 139.992 387.527 123.57 140.236 
389.43 124.246 139.843 389.342 124.537 140.073 389.097 125.74 140.34 
388.907 126.516 140.43 379.236 130.489 140.695 378.902 131.24 140.545 
387.574 129.796 140.754 385.809 132.461 140.671 373.668 135.42 141.327 
375.175 135.406 140.792 374.634 137.125 140.748 377.39 136.466 140.319 
371.342 138.164 141.408 381.32 136.457 140.812 374.05 138.584 140.942 
368.895 140.886 142.016 368.854 140.787 142.078 368.822 140.951 142.093 
369.008 140.814 142.01 377.552 138.941 141.4 368.976 140.978 142.025 
369.343 141.228 141.936 369.261 141.332 142.023 369.357 141.322 141.945 
369.431 141.423 142.012 388.195 123.226 140.307 388.806 123.121 139.988 
389.218 123.421 139.928 389.326 123.958 140.1 389.213 124.231 140.362 
379.374 129.197 141.603 388.387 127.985 140.947 375.619 133.138 141.348 
372.724 134.543 142.392 370.356 137.272 142.303 369.041 140.442 142.127 
379.559 138.468 141.779 367.464 141.307 143.144 368.603 140.827 142.314 
369.366 140.958 141.972 368.881 141.256 142.196 369.863 141.389 142.028 
367.662 141.915 143.012 367.783 142.216 143.059 368.581 141.831 142.556 
371.41 141.975 142.298 369.61 142.419 142.646 388.409 123.379 140.641 
389.024 123.378 140.168 382.033 126.567 142.355 380.869 127.56 142.178 
381.469 126.892 142.815 379.194 128.855 142.497 375.57 131.701 142.664 
370.086 136.572 143.135 369.635 137.486 142.832 383.06 136.19 142.593 
367.236 140.526 143.619 380.052 138.796 142.796 367.116 141.747 143.478 
366.624 142.411 144.058 372.398 142.409 142.675 388.66 123.431 140.578 
386.304 124.087 141.813 388.674 124.952 141.473 380.326 127.757 142.941 
388.011 128.452 142.103 377.191 130.123 143.25 386.109 132.369 143.261 
369.231 137.073 144.064 384.372 134.764 143.211 367.034 140.6 143.964 
366.619 143.355 144.407 376.324 141.872 144.066 367.09 144.035 144.646 
369.13 143.915 143.949 386.312 124.168 142.165 387.544 123.922 141.733 
388.023 123.965 141.544 386.176 124.369 142.506 388.377 124.488 141.625 
384.704 125.1 143.259 382.692 126.021 143.445 382.062 126.568 144.276 
387.945 127.292 142.665 378.211 129.263 143.66 386.34 131.556 143.788 
383.216 136.192 143.815 366.233 142.39 144.764 366.21 143.503 145.197 
372.21 144.056 144.468 366.822 144.382 145.217 367.01 144.623 145.464 
384.684 125.421 143.875 387.147 125.757 143.263 381.18 127.123 144.653 
387.326 127.149 143.405 379.288 128.398 144.6 373.714 132.326 145.567 
370.141 135.736 145.258 367.28 139.663 145.069 366.049 142.81 145.321 
366.033 143.201 145.461 366.333 143.947 145.344 366.531 144.409 145.612 
385.726 125.443 143.836 386.709 125.693 143.572 384.316 125.941 144.523 
383.413 126.447 144.918 385.817 128.885 145.023 385.877 128.225 144.898 
372.037 133.836 146.494 384.015 134.822 145.089 381.992 137.291 145.676 
367.258 139.882 146.134 379.06 140.204 146.267 366.053 142.617 145.968 
365.992 143.32 145.795 366.043 143.617 145.988 366.309 144.273 146.313 
366.954 145.046 146.536 367.52 145.273 146.541 385.946 125.751 144.013 
385.844 126.193 144.298 381.892 127.251 145.637 383.019 126.997 145.476 
379.444 128.569 145.926 385.279 129.273 145.516 385.274 130.059 145.556 
366.81 141.097 146.849 366.01 142.903 146.132 366.929 145.029 146.788 
380.799 128.188 146.433 383.374 128.518 146.484 380.506 128.498 146.684 
378.427 129.683 147.167 374.647 132.423 148.341 372.579 134.141 148.351 
370.408 136.145 147.825 382.107 136.605 146.654 382.061 136.331 147.043 
366.82 141.609 147.481 366.232 142.909 146.867 366.33 143.72 147.268 
366.323 144.17 146.931 366.414 144.382 146.912 368.442 145.431 147.709 
371.311 145.456 148.193 370.451 145.583 148.413 381.549 128.276 146.664 
382.164 129.023 147.173 380.7 129.267 147.402 376.99 130.915 148.113 
382.047 130.653 147.9 382.521 131.808 147.834 369.448 145.498 148.693 
372.745 145.07 148.897 379.662 129.926 147.891 379.719 130.42 148.276 
380.999 130.5 148.184 381.438 133.429 148.643 379.715 137.158 149.485 
367.22 143.981 148.512 374.374 144.203 149.271 369.03 145.287 149.072 
372.21 145.189 149.658 378.703 131.106 148.803 375.707 132.666 149.641 
376.703 132.312 149.632 375.682 133.214 150.113 379.582 136.165 149.918 
377.972 140.132 149.835 377.873 139.882 150.185 371.071 145.363 149.832 
379.007 132.178 149.476 377.135 132.706 150.035 377.45 132.864 150.138 
378.146 134.79 150.661 378.499 135.922 150.607 377.964 138.131 150.764 
368.955 141.845 150.706 368.891 143.591 150.488 369.899 144.97 150.237 
377.581 133.767 150.538 377.358 138.211 151.219 371.965 138.59 151.64 
377.109 139.207 151.291 376.656 140.611 151.434 369.81 141.769 151.477 
369.095 142.729 150.898 369.493 142.457 151.27 370.161 144.385 151.108 
370.979 144.701 151.13 375.522 138.27 152.179 371.724 140.071 152.138 
370.838 141.387 152.081 375.562 141.26 152.332 373.439 143.735 152.052 
372.774 140.61 152.711 371.526 142.674 152.503 371.67 143.017 152.527 
374.07 142.703 152.646 374.245 142.447 152.692 371.722 143.284 152.446 
372.582 143.372 152.529 373.934 140.449 152.816 373.063 141.781 152.888 
374.054 141.569 152.887 372.017 143.069 152.624 374.509 140.649 303.002 
374.905 140.768 303.115 373.973 141.352 302.944 373.081 142.008 303.041 
373.815 142.292 303.079 375.054 141.817 303.428 372.838 142.773 303.248 
372.58 142.945 303.399 374.127 142.814 303.406 375.241 139.929 303.416 
373.903 140.495 303.03 372.671 141.049 303.18 371.411 142.594 303.759 
373.016 143.383 303.688 373.941 143.187 303.626 374.904 137.302 304.137 
375.893 140.417 303.812 376.58 140.748 304.51 375.933 141.519 304.127 
376.05 141.732 304.392 374.477 143.177 303.991 370.504 143.716 304.91 
371.885 144.285 304.699 377.412 133.777 305.668 373.704 136.757 304.619 
373.167 136.558 304.924 371.454 139.368 304.331 370.208 141.669 304.589 
375.956 142.053 304.591 369.751 143.158 305.21 370.906 144.439 305.204 
379.256 132.347 306.579 376.555 133.099 306.05 378.674 133.799 305.947 
379.658 134.291 306.255 373.05 135.678 305.562 377.707 140.201 305.67 
373.167 144.485 305.272 371.957 145.069 306.055 370.829 145.225 306.386 
371.218 145.252 306.298 376.875 131.842 307.044 377.751 132.122 306.606 
374.832 133.564 306.315 374.838 143.793 306.288 370.18 145.293 306.901 
381.216 129.417 308.522 376.206 131.304 308.04 381.469 132.753 307.504 
372.008 134.69 307.519 381.299 134.245 307.386 381.358 135.393 307.655 
367.491 141.742 307.716 367.131 143.155 308.314 367.184 144.192 308.782 
370.44 145.485 307.318 371.543 145.378 306.806 383.065 128.05 309.69 
380.759 128.646 309.154 383.262 128.421 309.513 377.683 130.117 308.651 
377.428 130.55 308.213 383.534 131.532 309.041 370.173 136.432 307.896 
367.355 139.871 309.188 367.102 140.644 308.923 378.602 140.537 308.132 
366.738 143.698 309.023 366.852 144.033 309.086 367.304 144.839 309.465 
368.661 145.169 308.756 370.384 145.532 308.005 385.777 126.43 311.146 
383.647 126.621 310.81 385.261 127.122 310.691 385.287 127.618 310.568 
379.712 128.709 309.508 376.228 130.676 309.127 370.356 135.43 309.463 
382.029 136.579 309.302 382.27 136.625 309.827 366.284 142.767 309.826 
366.858 144.925 310.088 367.242 145.063 309.829 368.329 145.217 309.456 
371.672 145.331 308.424 371.14 145.477 308.382 385.124 125.524 311.638 
384.204 126.035 311.268 382.371 126.817 310.891 385.413 129.4 310.51 
375.534 130.854 310.143 385.497 130.932 310.828 367.572 139.039 309.895 
366.058 142.604 310.563 366.568 144.598 310.502 366.727 144.833 310.261 
366.717 144.882 310.497 367.505 145.216 310.111 367.01 145.138 310.298 
385.474 125.003 312.197 386.951 125.683 312.248 386.84 125.236 312.437 
381.885 126.645 311.58 387.317 127.871 312.294 377.754 129.269 310.764 
370.329 135.266 310.488 370.651 134.94 311.269 381.171 138.324 310.716 
366.122 142.264 311.138 375.245 143.462 310.457 366.829 145 310.576 
367.255 145.178 310.523 387.572 124.291 313.461 385.364 124.433 313.2 
386.197 124.731 312.593 387.905 124.208 313.718 387.657 125.861 312.863 
376.998 129.716 311.604 387.541 128.753 312.803 367.944 138.286 311.503 
383.215 136.079 311.603 381.597 137.997 311.806 378.587 140.581 311.779 
366.169 143.531 311.474 366.302 143.931 311.556 366.394 144.238 311.478 
366.456 144.41 311.303 369.884 145.041 310.828 387.992 123.684 314.29 
[...]
POINT_DATA 540
SCALARS scalars float
LOOKUP_TABLE default
1 1 1 1 1 1 1 1 1 
1 1 1 1 1 1 1 1 1 
1 1 1 1 1 1 1 1 1 
1 1 1 1 1 1 1 1 1 
1 1 1 1 1 1 1 1 1 
1 1 1 1 1 1 1 1 1 
1 1 1 1 1 1 1 1 1 
1 1 1 1 1 1 1 1 1 
1 1 1 1 1 1 1 1 1 
1 1 1 1 1 1 1 1 1 
1 1 1 1 1 1 1 1 1 
1 1 1 1 1 1 1 1 1 
1 1 1 1 1 1 1 1 1 
1 1 1 1 1 1 1 1 1 
1 1 1 1 1 1 1 1 1 
1 1 1 1 1 1 1 1 1 
1 1 1 1 1 1 1 1 1 
1 1 1 1 1 1 1 1 1 
1 1 1 1 1 1 1 1 1 
1 1 1 1 1 1 1 1 1 
1 1 1 1 1 1 1 1 1 
1 1 1 1 1 1 1 1 1 
1 1 1 1 1 1 1 1 1 
1 1 1 1 1 1 1 1 1 
1 1 1 1 1 1 1 1 1 
1 1 1 1 1 1 1 1 1 
1 1 1 1 1 1 1 1 1 
1 1 1 1 1 1 1 1 1 
1 1 1 1 1 1 1 1 1 
1 1 1 1 1 1 1 1 1 
1 1 1 1 1 1 1 1 1 
1 1 1 1 1 1 1 1 1 
1 1 1 1 1 1 1 1 1 
1 1 1 1 1 1 1 1 1 
1 1 1 1 1 1 1 1 1 
1 1 1 1 1 1 1 1 1 
1 1 1 1 1 1 1 1 1 
1 1 1 1 1 1 1 1 1 
1 1 1 1 1 1 1 1 1 
1 1 1 1 1 1 1 1 1 
1 1 1 1 1 1 1 1 1 
1 1 1 1 1 1 1 1 1 
1 1 1 1 1 1 1 1 1 
1 1 1 1 1 1 1 1 1 
1 1 1 1 1 1 1 1 1 
1 1 1 1 1 1 1 1 1 
1 1 1 1 1 1 1 1 1 
1 1 1 1 1 1 1 1 1 
1 1 1 1 1 1 1 1 1 
1 1 1 1 1 1 1 1 1 
1 1 1 1 1 1 1 1 1 
1 1 1 1 1 1 1 1 1 
1 1 1 1 1 1 1 1 1 
1 1 1 1 1 1 1 1 1 
1 1 1 1 1 1 1 1 1 
1 1 1 1 1 1 1 1 1 
1 1 1 1 1 1 1 1 1 
1 1 1 1 1 1 1 1 1 
1 1 1 1 1 1 1 1 1 
1 1 1 1 1 1 1 1 1 

NORMALS Normals float
-0.14295 -0.350244 -0.925686 -0.141509 -0.230066 -0.962832 0.471573 -0.153919 -0.86829 
0.126923 -0.502462 -0.855233 0.868631 -0.225224 -0.44131 0.526742 0.135017 -0.839234 
0.903915 0.107667 -0.413938 -0.0954763 -0.131655 -0.986687 -0.402565 -0.290976 -0.867914 
0.337486 0.109583 -0.93493 -0.0266992 0.00826048 -0.999609 0.0487697 0.238204 -0.96999 
0.295327 0.133195 -0.946066 0.61446 0.174232 -0.769469 -0.141455 0.0922109 -0.985641 
0.779824 0.298849 -0.550058 0.0842631 0.254395 -0.963422 0.559297 0.348202 -0.752292 
0.519763 0.347112 -0.780615 -0.165008 -0.0681407 -0.983936 0.164764 0.345276 -0.923925 
0.26576 0.292585 -0.918567 0.336142 -0.800679 -0.495906 -0.213443 -0.945754 -0.24493 
-0.268002 -0.756459 -0.596611 0.675412 -0.737423 0.00514227 -0.477912 -0.627626 -0.614561 
0.967847 -0.238738 0.0792259 -0.446397 -0.434096 -0.78249 -0.578375 -0.530782 -0.619478 
0.96424 0.0721733 -0.255015 -0.393328 -0.27215 -0.878196 0.889593 0.263699 -0.372944 
-0.425369 -0.268724 -0.864204 -0.067399 0.104626 -0.992225 0.529615 0.45221 -0.717645 
0.767423 0.448712 -0.457951 0.889091 0.377954 -0.258203 0.73194 0.460787 -0.501935 
-0.208313 0.0388202 -0.977292 0.0587039 0.163033 -0.984873 0.250875 0.30967 -0.917151 
0.475959 0.438603 -0.762293 0.622518 0.451117 -0.639504 0.0474709 0.357225 -0.932811 
0.17982 0.305419 -0.935085 0.485411 -0.828456 0.279352 0.96124 -0.229362 0.153003 
-0.531328 -0.713907 -0.456101 -0.617963 -0.557239 -0.554622 0.990436 0.135702 -0.0249406 
0.961035 0.213842 0.175168 -0.435114 -0.301579 -0.848367 0.828783 0.43166 -0.356074 
-0.296731 -0.0649024 -0.952753 0.819445 0.485429 -0.304746 -0.193955 0.00473987 -0.980999 
0.76229 0.537497 -0.36057 -0.169361 0.150874 -0.973937 0.130636 0.531587 -0.836869 
0.575967 0.596265 -0.559222 0.000446025 0.355626 -0.934628 0.350414 0.611417 -0.709492 
-0.178292 -0.983438 0.0325763 -0.407127 -0.901465 -0.146999 -0.507364 -0.843976 -0.174028 
0.988186 -0.0526604 0.143931 0.932163 0.132507 0.336918 0.970947 0.189183 0.146532 
0.947433 0.317552 0.0391418 -0.642047 -0.499107 -0.581952 -0.496686 -0.415226 -0.762162 
0.867329 0.479421 -0.133774 0.760995 0.594392 -0.25997 -0.395939 -0.381257 -0.835389 
-0.316159 -0.233288 -0.919576 -0.149264 0.042246 -0.987895 0.00836298 0.28239 -0.959263 
-0.38171 -0.129156 -0.915214 0.299521 0.59321 -0.747254 -0.0132718 0.289726 -0.957018 
-0.412937 0.0110376 -0.910693 -0.570381 -0.27367 -0.774449 -0.640241 0.207177 -0.739709 
-0.156744 -0.179811 -0.971133 0.207542 0.554242 -0.806066 -0.223052 0.304098 -0.92616 
-0.322914 -0.00433829 -0.946418 -0.530269 0.264772 -0.805425 -0.0166544 0.308904 -0.950947 
-0.146166 0.664619 -0.732746 -0.20421 -0.959062 0.19621 0.153839 -0.923008 0.35269 
0.854478 -0.368294 0.36637 0.840265 -0.241873 0.485234 0.856494 -0.0678788 0.511674 
-0.63264 -0.605622 -0.482688 0.936882 0.348978 0.021593 -0.528707 -0.52307 -0.668481 
-0.499671 -0.584216 -0.639547 -0.597512 -0.439103 -0.670945 -0.342108 -0.334334 -0.87817 
0.311022 0.64441 -0.698571 -0.668626 -0.0938881 -0.737647 -0.666199 -0.0625997 -0.743142 
-0.148016 -0.0158289 -0.988858 -0.475311 0.291566 -0.830102 0.0327547 0.452111 -0.89136 
-0.558636 0.172716 -0.811231 -0.476669 0.401426 -0.782077 -0.350282 0.409078 -0.84259 
0.000470215 0.564755 -0.825259 -0.0499899 0.558039 -0.828308 0.188831 -0.850235 0.49137 
0.612156 -0.593987 0.521962 -0.547405 -0.821007 -0.162159 -0.613856 -0.711238 -0.342524 
-0.665914 -0.746025 0.00230622 -0.697487 -0.676087 -0.237524 -0.630488 -0.607908 -0.482632 
-0.651354 -0.588813 -0.478578 -0.635179 -0.39795 -0.661954 0.693027 0.691149 -0.205003 
-0.779908 -0.296928 -0.550979 0.513454 0.769462 -0.37986 -0.766324 0.0119922 -0.642342 
-0.786999 0.138584 -0.601188 0.161106 0.626676 -0.762444 0.4409 -0.696831 0.565716 
-0.422564 -0.895693 0.138467 0.899863 -0.0696728 0.430573 -0.611676 -0.771855 -0.173471 
0.902957 0.274701 0.330467 -0.555989 -0.682732 -0.474083 0.825603 0.521066 0.216495 
-0.780883 -0.576642 -0.240219 0.775098 0.627084 -0.0773851 -0.890423 -0.311449 -0.331884 
-0.645744 0.396621 -0.652462 0.440617 0.800308 -0.40665 -0.380426 0.653504 -0.654376 
-0.154181 0.681704 -0.715198 -0.221199 -0.924687 0.309879 0.243626 -0.697678 0.673715 
0.613814 -0.506953 0.60517 -0.185045 -0.857318 0.48038 0.645488 -0.460309 0.609476 
-0.298999 -0.893448 0.335188 -0.439965 -0.883223 0.162322 -0.476716 -0.843147 0.248687 
0.808771 0.0282855 0.587444 -0.614695 -0.770157 -0.170317 0.805996 0.203811 0.555726 
0.794361 0.603713 0.0672402 -0.939442 -0.227573 -0.256242 -0.893768 0.270866 -0.357505 
0.192949 0.8558 -0.479977 -0.502114 0.677425 -0.537566 -0.0729386 0.872662 -0.482847 
-0.0177973 -0.727166 0.686231 0.604192 -0.370393 0.705522 -0.52998 -0.837525 0.132942 
0.724642 -0.00562796 0.689102 -0.554921 -0.82757 0.0847912 -0.633907 -0.770694 -0.064752 
-0.7504 -0.660824 0.0145395 -0.855492 -0.508347 -0.0985739 -0.960397 -0.0550439 -0.273146 
-0.974508 0.0841563 -0.207971 -0.755542 0.488976 -0.435957 -0.657319 0.686454 -0.310987 
0.176383 -0.754406 0.632266 0.449927 -0.578 0.680795 -0.0750339 -0.735688 0.673152 
-0.0884839 -0.748686 0.656994 0.511411 -0.0767711 0.8559 0.531247 -0.103661 0.840851 
-0.682862 -0.706639 0.185366 0.832761 0.497889 0.242107 0.611789 0.751188 0.247852 
-0.85973 -0.452836 0.236229 0.650776 0.759027 0.0192215 -0.946801 -0.320007 0.0341243 
-0.9819 0.157632 -0.105002 -0.964632 0.263597 0.00138855 -0.9071 0.420901 0.00337213 
-0.629579 0.768825 -0.111976 -0.196018 0.942381 -0.271101 0.221487 -0.539001 0.812663 
0.319578 -0.377621 0.869064 -0.105932 -0.771691 0.627114 -0.0492249 -0.735649 0.675572 
-0.396659 -0.794233 0.460277 0.64919 -0.0696469 0.757431 0.682202 0.156826 0.714147 
-0.904095 -0.393584 0.166448 -0.987647 -0.0993934 0.121141 -0.54784 0.803257 0.233771 
-0.30689 -0.767553 0.562744 0.347914 -0.394226 0.850613 -0.245658 -0.677039 0.693736 
-0.426999 -0.788761 0.442185 -0.506603 -0.738787 0.444463 -0.628869 -0.657323 0.415272 
-0.773206 -0.564433 0.289082 0.640016 0.658295 0.396266 0.687987 0.416693 0.594172 
-0.805668 -0.36732 0.464731 -0.940723 -0.127606 0.314255 -0.910381 0.0926707 0.403259 
-0.937312 0.271359 0.218654 -0.811144 0.519755 0.268142 -0.0498744 0.992633 -0.110419 
0.218973 0.949302 -0.225557 0.0230635 0.994104 0.105947 -0.0503946 -0.61771 0.78479 
0.0993996 -0.556748 0.824713 -0.137533 -0.635669 0.759611 -0.339657 -0.751627 0.565411 
0.372874 -0.248053 0.894111 0.554435 -0.0433468 0.831097 -0.094279 0.957423 0.272861 
0.386636 0.921653 -0.0326922 -0.124036 -0.679022 0.723563 -0.0769653 -0.619183 0.781466 
0.195372 -0.411273 0.890328 0.531879 -0.0908332 0.841935 0.70432 0.368679 0.606638 
-0.710925 0.401359 0.577492 0.60181 0.785462 0.144478 -0.310079 0.860512 0.404191 
0.269655 0.921496 0.27952 -0.0928201 -0.60743 0.788932 -0.333881 -0.679953 0.65283 
-0.114671 -0.757034 0.643234 -0.394689 -0.556378 0.731207 0.614664 0.100446 0.782367 
0.698683 0.573819 0.427286 0.671231 0.345685 0.655706 0.0444848 0.971094 0.234517 
0.122822 -0.488876 0.863663 -0.089462 -0.520106 0.849403 0.0846632 -0.596989 0.79777 
0.256659 -0.0867718 0.962599 0.448523 0.101342 0.888007 0.661827 -0.114549 0.740853 
-0.752694 -0.187108 0.631222 -0.655192 0.282109 0.700812 -0.376974 0.718429 0.584594 
0.0888087 -0.264296 0.960344 0.543828 -0.0596448 0.837074 -0.476591 -0.451594 0.754271 
0.580664 0.311735 0.752097 0.668355 0.262413 0.696018 -0.615174 -0.165399 0.770846 
-0.682066 0.0901075 0.725718 -0.600925 0.0751164 0.795768 -0.375585 0.602853 0.703921 
-0.0601766 0.796525 0.601604 0.16558 -0.337933 0.926491 -0.42105 -0.347917 0.837658 
-0.465189 -0.174971 0.867747 0.619761 0.352867 0.700986 0.43193 0.779289 0.454032 
-0.200199 -0.204583 0.958158 -0.46476 0.0768667 0.882094 -0.49474 0.243929 0.834105 
0.249607 0.410343 0.877106 0.654694 0.313341 0.68789 -0.344256 0.542934 0.76597 
-0.00995117 0.589323 0.807836 0.193783 -0.214231 0.957368 -0.127563 0.00728175 0.991804 
0.171779 0.0636389 0.983078 -0.122233 0.232359 0.964919 0.222791 -0.450704 -0.864425 
0.478307 -0.111393 -0.871099 0.134572 0.0889833 -0.9869 -0.178568 0.101997 -0.978627 
0.11789 0.377251 -0.918577 0.531585 0.367076 -0.76333 -0.185978 0.384427 -0.904228 
-0.23492 0.522211 -0.819822 0.388082 0.436931 -0.81147 0.313825 -0.274793 -0.908847 
0.0103243 -0.428241 -0.903606 -0.337006 -0.130922 -0.932355 -0.45341 0.235049 -0.859751 
0.0721909 0.692851 -0.717458 0.209514 0.749284 -0.628233 -0.0783935 -0.333778 -0.939386 
0.725326 -0.0284104 -0.687819 0.768247 0.176146 -0.615442 0.67485 0.305819 -0.671604 
0.745805 0.365633 -0.556854 0.521844 0.680783 -0.514016 -0.549476 0.38439 -0.741836 
-0.127416 0.708901 -0.693704 0.0141932 -0.361109 -0.932416 -0.218251 -0.421027 -0.880399 
-0.52766 -0.460072 -0.714078 -0.548036 -0.333549 -0.767073 -0.640691 -0.00514668 -0.767782 
0.664734 0.580174 -0.470667 -0.657775 0.388363 -0.645373 -0.340574 0.701526 -0.625995 
0.324358 -0.305539 -0.895231 -0.0831033 -0.534859 -0.840844 0.191431 -0.311714 -0.930693 
0.51162 0.000449644 -0.859212 -0.401461 -0.521679 -0.752781 0.746156 0.41905 -0.517347 
0.371305 0.905213 -0.206695 0.096372 0.873312 -0.477534 -0.316471 0.843502 -0.433994 
-0.0409715 0.906625 -0.419943 -0.270666 -0.739688 -0.616118 -0.0637636 -0.641523 -0.764449 
-0.34804 -0.574811 -0.740581 0.536053 0.821557 -0.194145 -0.357061 0.833111 -0.422414 
-0.0260123 -0.570543 -0.820856 -0.434594 -0.77704 -0.455343 0.63803 -0.0107397 -0.769937 
-0.599337 -0.660606 -0.452101 0.700954 0.00091603 -0.713205 0.76918 0.153643 -0.620287 
-0.731266 -0.267374 -0.627504 -0.785918 -0.0615981 -0.615255 -0.611875 0.575914 -0.542155 
-0.151667 0.970333 -0.188286 0.11072 0.978459 -0.174236 0.257074 -0.473209 -0.842607 
-0.136655 -0.673408 -0.726531 0.319073 -0.431554 -0.843773 -0.361102 -0.774301 -0.519677 
-0.391275 -0.75385 -0.527839 0.634366 0.154073 -0.757523 -0.755079 -0.507898 -0.414603 
-0.775384 -0.499088 -0.386897 -0.857874 -0.315957 -0.405246 0.735783 0.638342 -0.226146 
-0.835645 0.265525 -0.480826 -0.813832 0.427437 -0.393668 -0.41831 0.742344 -0.523396 
-0.320143 0.936485 -0.143192 0.0358345 0.997884 -0.0542471 0.307064 -0.458374 -0.834029 
-0.0862593 -0.680746 -0.727423 0.364834 -0.266899 -0.891998 0.395829 -0.238755 -0.886745 
-0.306019 -0.746155 -0.591274 -0.502515 -0.786431 -0.359173 -0.767244 -0.620192 -0.163399 
0.798986 0.427635 -0.422787 0.839567 0.360872 -0.406078 -0.936651 -0.0393311 -0.34805 
-0.723914 0.517704 -0.455994 -0.338482 0.83408 -0.435593 -0.295328 0.889593 -0.348433 
0.318552 0.945836 0.0626 0.0808079 0.9942 0.0709717 -0.0738433 -0.717691 -0.692435 
-0.178582 -0.715952 -0.674923 -0.23988 -0.834691 -0.49573 0.629114 -0.0730372 -0.773874 
-0.636996 -0.763444 -0.10672 0.729807 0.438483 -0.524513 -0.732651 -0.609374 -0.303126 
-0.954336 -0.193981 -0.227189 -0.937626 0.311281 -0.154798 -0.83468 0.455811 -0.309105 
-0.80231 0.59662 0.0185183 -0.117754 0.97924 -0.164993 -0.511173 0.84923 -0.132326 
0.00938733 -0.753625 -0.657238 0.568489 -0.266135 -0.778456 0.429399 -0.451566 -0.782116 
-0.347834 -0.85349 -0.388029 0.753567 0.00920026 -0.657307 -0.514 -0.849364 -0.119936 
-0.788768 -0.612734 -0.0490039 -0.645045 -0.760253 -0.0770219 0.718159 0.67627 -0.164031 
-0.981445 -0.161227 0.103789 0.44849 0.876845 0.173204 -0.370904 0.823831 0.428641 
-0.153613 0.92805 0.339302 0.520877 -0.406847 -0.750442 -0.383842 -0.868392 -0.313944 
0.146493 -0.688692 -0.710101 0.551851 -0.418335 -0.721427 0.763404 -0.105352 -0.637272 
-0.558223 -0.822201 0.111229 0.872887 0.231787 -0.429351 -0.816527 -0.57389 0.0627136 
0.723757 0.688079 -0.0521874 0.734544 0.677698 -0.0342104 0.548799 0.808189 0.213659 
-0.971076 0.145266 0.189496 -0.933577 0.316991 0.167181 -0.816348 0.467462 0.339198 
-0.813063 0.545791 0.202586 0.0588433 0.882951 0.465762 0.159661 -0.790954 -0.590678 
0.806652 -0.0759826 -0.586122 0.801124 -0.0410829 -0.597087 0.832098 0.112773 -0.543042 
0.954084 0.0765797 -0.289584 -0.63825 -0.71276 0.290877 -0.884847 -0.361753 0.293566 
0.613103 0.750423 0.246919 -0.924769 -0.11743 0.361958 0.250935 0.703765 0.66464 
-0.779054 0.38861 0.491994 -0.46837 0.641629 0.607405 -0.241503 0.820368 0.518337 
0.121637 -0.838367 -0.531362 0.543542 -0.489622 -0.681786 0.43808 -0.730204 -0.524297 
0.765398 -0.393163 -0.509499 -0.133499 -0.915623 -0.379226 0.736859 -0.249003 -0.62852 
0.807597 -0.0402888 -0.588356 0.954005 0.165661 -0.249861 -0.569252 -0.76355 0.304868 
0.834965 0.523981 -0.168157 -0.62257 -0.679695 0.387842 -0.768052 -0.565686 0.30016 
0.72773 0.666134 0.163322 0.606221 0.786335 0.119055 0.446424 0.792337 0.415821 
-0.843874 0.0291351 0.53575 -0.736154 0.308679 0.602325 -0.459142 0.374912 0.805376 
-0.238977 0.704909 0.667827 0.170875 0.817134 0.55054 -0.178631 -0.94188 -0.284521 
-0.0505309 -0.974481 -0.218708 -0.575755 -0.811766 0.0976795 0.965533 -0.0404238 -0.257122 
0.938955 0.141744 -0.313483 0.963733 0.263464 -0.0424982 0.960798 0.271511 -0.0561175 
-0.644942 -0.565309 0.514272 -0.441572 -0.598745 0.668221 -0.616 -0.442535 0.651695 
-0.711549 -0.341966 0.613806 -0.686227 -0.0567334 0.725172 0.264073 0.752488 0.603347 
-0.0861372 0.676575 0.731318 0.0376619 -0.999279 0.00473635 0.468604 -0.872271 -0.139836 
0.783875 -0.524539 -0.332262 0.954018 0.208118 -0.215725 -0.564309 -0.470561 0.678328 
0.906168 0.422375 0.0214087 -0.500367 -0.511714 0.698414 0.851738 0.489855 0.185968 
0.808532 0.56918 0.149368 0.820633 0.529545 0.214812 -0.413689 -0.319345 0.852572 
0.535697 0.692113 0.483744 0.696707 0.696292 0.172561 -0.43979 -0.220265 0.870671 
0.571628 0.743899 0.346201 -0.542862 -0.141051 0.827893 0.263079 0.651892 0.711215 
-0.166837 0.172032 0.970861 0.0140703 0.335616 0.941894 0.434076 0.679791 0.591154 
-0.540254 0.220045 0.812223 -0.491918 0.0348221 0.869945 -0.0631651 0.434778 0.89832 
0.100855 0.50192 0.859014 -0.391137 0.156702 0.906894 -0.185022 0.492479 0.85043 
-0.0175773 0.514945 0.857043 0.18656 -0.941551 0.280493 0.894521 -0.435811 -0.0995008 
-0.437322 -0.890071 0.128542 -0.296655 -0.939568 0.170901 0.996606 -0.011896 -0.0814614 
0.976224 0.199877 0.0838787 0.892398 0.422995 0.157167 0.85753 0.462546 0.225153 
0.82562 0.474873 0.304708 -0.422101 -0.296401 0.856725 -0.348667 -0.0401855 0.936385 
0.744156 0.528921 0.408013 -0.358849 -0.267196 0.894334 0.538675 0.625093 0.564879 
-0.195318 0.0259569 0.980396 0.394213 0.649886 0.649803 -0.103533 0.202584 0.973777 
0.117331 0.461162 0.879524 -0.26008 0.147356 0.954277 0.186044 -0.794956 0.577437 
-0.228192 -0.894335 0.384828 0.0211988 -0.788835 0.61424 0.927153 -0.174611 0.331509 
-0.574388 -0.644686 0.504438 0.98001 0.113007 0.163738 0.77772 0.346535 0.524466 
0.774282 0.475636 0.417442 0.734638 0.487392 0.471971 0.690932 0.464831 0.553665 
-0.320888 -0.223311 0.920415 0.411471 0.443281 0.796362 0.363168 0.634467 0.68232 
-0.212577 0.0388102 0.976373 0.249628 0.461886 0.851086 0.516624 -0.722207 0.45991 
-0.380789 -0.633094 0.673937 -0.250425 -0.600055 0.759751 -0.414268 -0.339999 0.844264 
0.888597 0.175137 0.423937 -0.357404 -0.195035 0.913358 0.865332 0.342409 0.366002 
-0.346785 0.00154921 0.937943 -0.153282 0.0505242 0.98689 0.528778 0.331181 0.781481 
0.678693 0.445279 0.58404 0.301216 0.261642 0.916958 0.585888 0.324459 0.742604 
-0.00798387 0.221176 0.975201 0.553778 0.61906 0.556862 -0.049575 -0.699714 0.712701 
0.539717 -0.441931 0.716522 -0.271249 -0.333682 0.902818 0.00351515 -0.304774 0.952418 
0.168412 -0.359426 0.917851 0.772963 0.207283 0.599635 0.672588 -0.0412317 0.738868 
-0.168934 -0.154123 0.973503 0.37544 0.135983 0.916817 0.0647473 0.0723254 0.995277 
0.308845 0.184269 0.933092 0.120056 0.173387 0.977509 0.569275 -0.213386 0.793973 

