# vtk DataFile Version 4.2
vtk output
ASCII
DATASET POLYDATA
POINTS 742 float
231.979 228.773 215.444 232.822 228.897 215.219 233.256 228.897 215.205 
231.699 228.903 215.441 231.724 229.091 215.325 232.779 229.181 215.063 
233.202 229.116 215.087 232.509 229.396 215.033 231.757 228.704 215.653 
231.514 228.861 215.596 239.73 229.704 215.735 239.462 229.325 216.034 
241.185 229.805 215.901 241.429 229.584 216.15 233.705 229.944 214.869 
234.58 229.928 214.94 240.092 230.12 215.56 242.39 230.17 216.094 
232.189 230.508 214.92 235.22 230.517 214.843 239 230.624 215.236 
229.99 230.644 215.894 230.655 231.222 215.375 233.856 231.661 214.678 
230.541 234.384 215.273 234.285 228.405 216.117 236.604 228.713 216.055 
230.524 228.946 216.2 230.344 229.179 216.15 238.12 228.8 216.449 
240.169 229.177 216.425 241.714 229.47 216.413 230.27 229.55 216.027 
242.317 229.856 216.261 242.788 230.532 216.205 240.796 231.539 215.457 
229.191 244.597 215.846 228.423 245.067 215.926 226.175 250.96 216.528 
230.058 228.937 216.745 232.43 228.109 216.965 237.253 228.425 217.106 
243.761 229.97 216.948 244.815 229.942 217.477 244.915 230.053 217.499 
243.879 230.67 216.76 243.454 231.378 216.486 227.634 236.344 217.033 
228.761 242.527 216.003 225.997 243.849 217.06 226.783 246.498 216.335 
230.867 246.356 215.962 225.933 247.87 216.615 224.967 249.115 217.058 
226.857 249.201 216.309 228.059 249.583 216.165 224.062 250.171 217.611 
230.253 249.944 216.327 224.896 252.063 217.27 224.683 253.823 217.793 
225.577 253.647 217.283 228.886 253.165 217.078 226.601 253.882 217.278 
228.122 253.516 217.188 225.058 254.472 217.705 225.784 254.496 217.612 
225.419 254.641 217.648 231.185 228.081 217.44 231.324 228.009 217.722 
230.024 228.778 217.301 233.92 228.101 217.226 237.953 228.513 217.648 
240.779 228.971 217.364 243.298 229.461 217.425 244.943 229.974 217.59 
228.57 231.159 217.706 228.186 232.26 217.835 227.441 235.673 217.443 
243.602 235.283 217.481 244.456 234.83 218.149 225.7 241.078 217.984 
226.119 241.792 217.389 224.142 248.25 217.801 233.78 249.674 216.961 
224.205 251.057 217.59 230.403 252.02 216.821 223.668 252.24 218.454 
231.846 253.027 218.032 232.331 252.792 218.024 232.966 252.711 218.078 
231.356 253.17 217.846 223.993 254.034 218.688 224.555 254.464 218.4 
226.102 254.499 217.692 226.397 254.467 217.85 226.873 254.281 217.742 
224.061 254.3 218.797 225.131 254.765 217.776 225.284 254.77 217.732 
225.525 254.715 217.757 225.193 254.818 217.822 225.334 254.806 217.833 
230.623 228.24 217.661 230.389 228.405 217.761 230.955 228.108 218.017 
231.697 228.053 218.19 232.985 228.077 217.958 240.64 228.92 217.889 
228.497 231.224 218.058 245.574 231.229 218.497 227.958 232.7 218.37 
245.737 231.931 218.736 245.719 232.284 218.804 227.4 234.47 218.312 
226.167 238.861 218.113 243.604 237.954 218.881 224.504 242.8 218.731 
223.785 248.183 218.256 231.608 253.232 218.454 232.091 253.051 218.361 
232.637 253.008 218.538 228.972 253.818 218.79 231.861 253.232 218.254 
232.165 253.108 218.167 232.217 253.126 218.259 232.748 252.998 218.244 
235.389 252.315 218.616 230.461 253.539 217.926 232.117 253.187 218.151 
224.254 254.437 218.664 224.756 254.605 218.865 226.099 254.597 218.208 
224.008 254.317 219.044 224.176 254.453 218.897 225.517 254.74 218.01 
230.608 228.415 218.357 230.307 228.532 218.086 231.428 228.125 218.338 
231.352 228.303 218.616 232.512 228.223 218.585 233.683 228.239 218.435 
244.326 229.633 218.236 245.106 230.007 218.417 245.329 230.207 218.581 
245.446 230.393 218.639 228.797 230.719 218.588 245.463 230.494 218.845 
245.722 231.63 218.809 245.746 232.473 219.117 227.271 234.606 218.79 
245.358 233.85 219.041 226.846 235.671 219.166 244.232 236.719 219.202 
225.634 239.302 219.08 243.506 238.547 219.109 224.841 240.85 219.559 
223.957 242.607 219.759 224.005 242.538 219.842 224.024 242.511 219.705 
224.594 242.193 218.938 223.888 243.495 219.465 223.181 246.535 219.745 
223.088 249.395 219.268 240.148 249.576 219.548 238.611 251.454 219.423 
227.589 253.829 219.981 237.617 252.036 219.428 230.365 253.613 218.104 
230.923 253.491 218.124 231.653 253.327 218.184 232.519 253.15 218.361 
233.639 253.013 218.756 224.132 254.407 219.204 224.35 254.53 219.002 
230.591 228.607 218.654 231.739 228.523 218.954 232.416 228.457 218.944 
233.897 228.475 218.943 234.534 228.447 218.8 244.549 229.744 218.568 
245.02 229.939 218.585 237.739 229.22 219.624 241.892 229.516 219.228 
244.498 229.853 218.841 245.363 230.319 218.877 245.588 231.384 219.295 
228.087 232.793 219.689 245.727 231.707 219.139 227.577 233.799 219.388 
245.656 232.95 219.56 227 235.337 219.393 227.121 235.41 219.851 
245.196 234.39 219.428 245.341 233.945 219.602 243.842 237.832 219.844 
224.739 240.921 219.952 224.129 242.297 220.18 224.242 242.317 219.54 
223.003 246.757 220.391 222.998 247.678 219.898 241.322 247.117 219.83 
241.459 247.379 220.303 240.372 250.683 220.149 223.3 252.291 220.15 
240.476 251.095 220.417 235.381 252.689 219.712 237.086 252.36 219.64 
239.55 252.126 220.299 240.008 251.893 220.429 237.564 252.553 220.373 
239.155 252.707 220.769 230.411 229.312 219.188 232.926 229.23 219.769 
245.506 231.578 219.583 228.241 232.944 219.996 245.66 231.844 219.466 
245.656 232.717 219.674 245.523 232.66 219.873 227.532 234.737 220.07 
244.092 236.679 220.267 225.265 239.791 220.482 243.847 237.219 220.409 
243.345 238.87 220.493 243.297 239.502 220.271 223.652 243.753 220.521 
242.28 244.041 220.81 223.144 246.406 220.972 241.86 246.085 220.975 
222.919 248.579 220.294 234.109 251.971 221.231 236.515 252.448 220.883 
237.395 252.26 221.604 238.036 252.567 221.27 240.362 252.123 220.819 
239.598 252.804 221.124 224.126 254.161 220.711 240.233 252.649 221.098 
240.466 252.581 221.197 240.411 252.707 221.294 242.388 230.22 219.961 
244.791 230.806 219.647 229.298 232.588 220.533 231.532 231.856 221.022 
245.291 231.61 219.814 228.188 233.45 220.219 245.483 232.312 219.889 
233.888 233.229 221.819 245.268 233.027 220.087 245.089 233.517 220.2 
226.264 237.741 220.6 243.851 236.821 220.567 225.355 240.01 221.177 
243.23 238.302 220.823 224.335 242.002 220.937 224.44 242.032 221.251 
223.877 243.344 220.989 242.362 242.47 221.12 242.162 244.34 221.146 
223.015 248.692 221.08 234.711 251.534 221.835 240.95 251.161 221.598 
238.622 252.37 221.783 240.733 252.349 221.42 240.827 252.152 221.575 
240.328 252.758 221.564 240.695 252.496 221.625 240.438 252.741 221.434 
227.358 236.642 221.181 228.182 236.398 221.521 230.042 236.53 222.164 
226.847 237.465 221.215 243.124 235.783 221.218 226.392 238.675 221.549 
242.415 236.971 221.523 228.269 240.411 222.997 241.811 239.75 221.837 
224.616 242.521 221.852 241.82 243.25 221.776 241.973 243.625 221.584 
223.175 247.854 221.383 223.656 251.136 221.874 238.749 251.84 222.249 
240.886 251.5 221.752 223.913 253.182 222.262 240.777 252.293 221.783 
223.931 253.709 221.887 224.245 253.882 221.778 240.503 252.639 221.749 
240.539 252.682 221.563 240.676 252.497 221.811 227.24 237.755 221.668 
226.642 239.505 222.157 226.106 239.937 222.001 225.262 241.359 221.968 
225.038 242.086 222.1 240.211 242.557 222.588 223.777 247.948 222.036 
231.182 247.655 223.557 225.216 249.633 222.757 226.518 249.322 223.057 
235.37 250.026 222.923 237.916 250.093 222.782 240.018 249.758 222.426 
235.216 250.631 222.634 240.464 250.508 222.173 224.572 252.179 222.532 
226.874 252.597 222.052 239.287 252.098 222.32 239.197 252.097 222.289 
239.274 252.214 222.196 224.147 253.212 222.467 224.56 253.517 222.326 
240.16 252.538 221.975 240.693 252.369 221.909 223.981 253.807 222.307 
224.227 253.777 222.293 240.373 252.592 221.904 240.558 252.5 221.919 
227.12 240.346 222.724 226.12 241.263 222.572 225.38 243.181 222.704 
232.724 249.439 223.108 236.004 253.013 225.009 236.004 253.013 225.009 
236.004 253.013 225.009 236.004 253.013 225.009 240.537 251.55 222.146 
224.55 253.06 222.479 236.004 253.013 225.009 240.001 252.291 222.136 
240.319 252.107 222.149 223.903 253.683 222.399 223.933 253.691 222.516 
224.189 253.736 222.53 240.566 252.27 222.022 223.92 253.808 222.509 
223.943 253.861 222.502 224.032 253.821 222.479 224.137 253.771 222.504 
223.917 253.863 222.541 236.004 253.013 225.009 223.96 253.754 222.561 
224.056 253.736 222.555 224.16 253.706 222.547 223.954 253.83 222.551 
224.108 253.55 233.652 224.091 253.526 233.748 224.141 253.599 233.606 
224.194 253.59 233.598 224.226 253.49 233.623 224.223 253.562 233.591 
224.095 253.623 233.643 224.117 253.653 233.626 224.191 253.608 233.685 
224.098 253.652 233.654 229.542 250.045 233.277 229.004 251.299 233.79 
233.836 250.53 233.441 225.579 251.776 233.573 225.109 252.093 233.68 
237 253.009 232.017 237 253.009 232.017 237 253.009 232.017 
237 253.009 232.017 239.48 252.383 233.82 239.362 251.976 233.762 
240.411 251.871 233.86 240.087 251.467 233.745 225.411 252.206 233.669 
237 253.009 232.017 239.843 252.513 233.902 240.164 252.397 233.885 
224.127 253.08 233.964 224.095 253.347 234.063 224.286 253.171 233.77 
224.409 253.335 233.745 240.214 252.885 234.137 240.483 252.579 234.041 
240.873 252.265 234.211 224.221 253.543 233.96 224.132 253.635 233.708 
224.376 253.489 233.867 240.398 252.839 234.123 240.58 242.245 233.916 
241.676 243.738 234.349 241.754 244.838 234.44 224.289 247.407 234.037 
225.625 247.163 233.472 223.845 248.337 234.132 226.805 247.748 233.147 
225.861 248.536 233.318 228.898 251.901 234.197 241.007 249.976 234.356 
224.109 251.962 234.108 237 253.009 232.017 239.349 252.375 233.875 
238.777 252.086 233.949 240.645 251.204 234.002 224.246 252.562 233.998 
223.967 252.808 234.354 224.808 252.701 233.839 226.244 252.564 234.005 
225.42 252.991 234.183 224.739 253.26 234.049 240.924 252.446 234.301 
224.245 253.457 234.556 224.517 253.484 234.279 240.539 253.06 234.458 
[...]
POINT_DATA 742
SCALARS scalars float
LOOKUP_TABLE default
1 1 1 1 1 1 1 1 1 
1 1 1 1 1 1 1 1 1 
1 1 1 1 1 1 1 1 1 
1 1 1 1 1 1 1 1 1 
1 1 1 1 1 1 1 1 1 
1 1 1 1 1 1 1 1 1 
1 1 1 1 1 1 1 1 1 
1 1 1 1 1 1 1 1 1 
1 1 1 1 1 1 1 1 1 
1 1 1 1 1 1 1 1 1 
1 1 1 1 1 1 1 1 1 
1 1 1 1 1 1 1 1 1 
1 1 1 1 1 1 1 1 1 
1 1 1 1 1 1 1 1 1 
1 1 1 1 1 1 1 1 1 
1 1 1 1 1 1 1 1 1 
1 1 1 1 1 1 1 1 1 
1 1 1 1 1 1 1 1 1 
1 1 1 1 1 1 1 1 1 
1 1 1 1 1 1 1 1 1 
1 1 1 1 1 1 1 1 1 
1 1 1 1 1 1 1 1 1 
1 1 1 1 1 1 1 1 1 
1 1 1 1 1 1 1 1 1 
1 1 1 1 1 1 1 1 1 
1 1 1 1 1 1 1 1 1 
1 1 1 1 1 1 1 1 1 
1 1 1 1 1 1 1 1 1 
1 1 1 1 1 1 1 1 1 
1 1 1 1 1 1 1 1 1 
1 1 1 1 1 1 1 1 1 
1 1 1 1 1 1 1 1 1 
1 1 1 1 1 1 1 1 1 
1 1 1 1 1 1 1 1 1 
1 1 1 1 1 1 1 1 1 
1 1 1 1 1 1 1 1 1 
1 1 1 1 1 1 1 1 1 
1 1 1 1 1 1 1 1 1 
1 1 1 1 1 1 1 1 1 
1 1 1 1 1 1 1 1 1 
1 1 1 1 1 1 1 1 1 
1 1 1 1 1 1 1 1 1 
1 1 1 1 1 1 1 1 1 
1 1 1 1 1 1 1 1 1 
1 1 1 1 1 1 1 1 1 
1 1 1 1 1 1 1 1 1 
1 1 1 1 1 1 1 1 1 
1 1 1 1 1 1 1 1 1 
1 1 1 1 1 1 1 1 1 
1 1 1 1 1 1 1 1 1 
1 1 1 1 1 1 1 1 1 
1 1 1 1 1 1 1 1 1 
1 1 1 1 1 1 1 1 1 
1 1 1 1 1 1 1 1 1 
1 1 1 1 1 1 1 1 1 
1 1 1 1 1 1 1 1 1 
1 1 1 1 1 1 1 1 1 
1 1 1 1 1 1 1 1 1 
1 1 1 1 1 1 1 1 1 
1 1 1 1 1 1 1 1 1 
1 1 1 1 1 1 1 1 1 
1 1 1 1 1 1 1 1 1 
1 1 1 1 1 1 1 1 1 
1 1 1 1 1 1 1 1 1 
1 1 1 1 1 1 1 1 1 
1 1 1 1 1 1 1 1 1 
1 1 1 1 1 1 1 1 1 
1 1 1 1 1 1 1 1 1 
1 1 1 1 1 1 1 1 1 
1 1 1 1 1 1 1 1 1 
1 1 1 1 1 1 1 1 1 
1 1 1 1 1 1 1 1 1 
1 1 1 1 1 1 1 1 1 
1 1 1 1 1 1 1 1 1 
1 1 1 1 1 1 1 1 1 
1 1 1 1 1 1 1 1 1 
1 1 1 1 1 1 1 1 1 
1 1 1 1 1 1 1 1 1 
1 1 1 1 1 1 1 1 1 
1 1 1 1 1 1 1 1 1 
1 1 1 1 1 1 1 1 1 
1 1 1 1 1 1 1 1 1 
1 1 1 1 
NORMALS Normals float
-0.147754 -0.726753 -0.67082 -0.0943439 -0.637026 -0.765047 0.114709 -0.625639 -0.771633 
-0.363874 -0.599998 -0.712459 -0.434176 -0.299629 -0.849537 -0.0980966 -0.364912 -0.92586 
0.0519272 -0.344802 -0.937238 -0.141506 -0.292713 -0.945672 -0.326153 -0.837184 -0.43903 
-0.499485 -0.553146 -0.666742 0.154174 -0.615828 -0.772649 0.151784 -0.827674 -0.540293 
0.29022 -0.437397 -0.85115 0.399481 -0.607227 -0.686797 0.0656634 -0.292831 -0.953907 
0.0935626 -0.336071 -0.937178 0.189876 -0.432086 -0.881617 0.317343 -0.35752 -0.878335 
-0.34691 -0.101241 -0.932418 0.165984 -0.0115255 -0.986061 0.104204 -0.236099 -0.966126 
-0.650439 -0.233005 -0.722937 -0.399411 -0.0707608 -0.914037 0.0410674 0.09811 -0.994328 
-0.32644 0.0893007 -0.94099 0.0076432 -0.929198 -0.369502 0.137354 -0.726907 -0.67286 
-0.431237 -0.643437 -0.632474 -0.563969 -0.445582 -0.695267 0.190229 -0.881774 -0.43161 
0.160832 -0.805267 -0.570682 0.287868 -0.688934 -0.665209 -0.576238 -0.333622 -0.746087 
0.296506 -0.572642 -0.764307 0.466132 -0.213058 -0.858677 0.310333 -0.104114 -0.94491 
0.0230387 0.108156 -0.993867 -0.180262 0.0539615 -0.982137 -0.239073 0.139436 -0.960938 
-0.719683 -0.582668 -0.377563 -0.1099 -0.96286 -0.246622 0.108199 -0.994042 -0.0131367 
0.383993 -0.431605 -0.816251 0.442395 -0.72804 -0.523684 0.711938 -0.0311676 -0.70155 
0.405196 -0.182572 -0.895814 0.440593 0.0446943 -0.896594 -0.663212 -0.21684 -0.716332 
-0.196646 -0.0442989 -0.979473 -0.586347 -0.14934 -0.796175 -0.155331 0.0514053 -0.986524 
0.212922 0.070631 -0.974513 -0.3863 -0.0770209 -0.919152 -0.549419 0.025462 -0.835159 
-0.288726 -0.00828636 -0.957376 -0.0556578 0.0557258 -0.996894 -0.736523 -0.00515535 -0.676393 
0.106845 0.164423 -0.980586 -0.44355 0.154543 -0.882825 -0.575813 0.207271 -0.790872 
-0.196704 0.246606 -0.948943 0.113225 0.455917 -0.882791 0.0232472 0.432355 -0.901403 
0.17079 0.672113 -0.720482 -0.396565 0.197497 -0.89651 0.196607 0.83143 -0.519682 
-0.0972561 0.386227 -0.917262 -0.273634 -0.892495 -0.358576 -0.0388559 -0.99887 0.0273602 
-0.761573 -0.644329 -0.069618 0.0658156 -0.995412 -0.0694439 0.12873 -0.991477 -0.0200466 
0.187754 -0.969416 -0.158055 0.276156 -0.885686 -0.373226 0.665636 -0.701387 -0.254922 
-0.871512 -0.400463 -0.283015 -0.937467 -0.268348 -0.221688 -0.810731 -0.329176 -0.484106 
0.604762 0.264329 -0.751261 0.780055 0.312809 -0.541908 -0.788561 -0.13781 -0.599317 
-0.668735 -0.139965 -0.730208 -0.685005 -0.0552168 -0.726442 0.314917 0.22069 -0.923105 
-0.618541 0.0745284 -0.78221 0.2604 0.41096 -0.873673 -0.867076 0.168848 -0.468689 
0.936311 0.148089 -0.31842 0.30754 0.643377 -0.70106 0.208514 0.590852 -0.779369 
0.334977 0.484298 -0.808236 -0.799175 0.377618 -0.467679 -0.56014 0.777881 -0.284857 
0.167673 0.900609 -0.400984 0.174481 0.982917 -0.0585783 0.267686 0.911241 -0.313025 
-0.775551 0.539653 -0.327559 -0.534211 0.54673 -0.644751 0.0247365 0.761067 -0.648201 
0.362484 0.836438 -0.411069 -0.1644 0.986087 -0.0246192 0.215618 0.963655 -0.15773 
-0.519909 -0.767873 -0.374254 -0.608666 -0.765875 -0.207271 -0.35458 -0.903827 0.239518 
0.0104254 -0.922259 0.386432 0.0228148 -0.999597 -0.0169036 0.231664 -0.968101 0.095456 
-0.926741 -0.373541 0.0402305 0.964704 -0.174784 -0.196966 -0.934032 -0.314385 -0.169545 
0.974538 0.0254656 -0.222771 0.852895 0.261322 -0.451974 -0.809651 -0.41666 -0.413351 
-0.834936 -0.410469 -0.366602 0.844532 0.335451 -0.41742 -0.780076 -0.223682 -0.584335 
-0.809734 -0.0902768 -0.579811 0.276823 0.954463 0.111213 0.264052 0.954299 -0.139966 
-0.495258 0.782379 0.377628 0.207658 0.962087 0.176823 0.0746043 0.0318549 0.996704 
0.109584 -0.745951 -0.656924 -0.265419 -0.658271 0.704437 -0.165624 -0.333914 -0.927939 
0.287408 0.576684 -0.764744 0.199171 0.845343 -0.495707 0.274152 0.542865 -0.793812 
-0.505257 0.777212 -0.375043 -0.135268 0.982997 0.124174 0.280266 0.958505 -0.0521459 
-0.85885 0.509139 -0.0561686 -0.566349 0.81672 -0.110533 0.265354 0.958231 0.106684 
-0.465111 -0.794715 0.39 -0.677774 -0.681146 0.276878 -0.115125 -0.924328 0.363819 
-0.162566 -0.788582 0.593052 0.0999871 -0.924529 0.367761 0.0446008 -0.934209 0.353927 
0.233716 -0.96402 0.12666 0.718757 -0.656214 -0.229721 0.775941 -0.624367 -0.0898927 
0.913017 -0.356872 -0.197594 -0.854206 -0.487111 0.181813 0.941069 -0.292591 0.169646 
0.970873 -0.23566 -0.0432381 0.994228 0.105674 -0.0185381 -0.934915 -0.35436 0.0190668 
0.892007 0.305641 -0.333026 -0.942099 -0.334251 0.0269476 0.856327 0.36778 -0.36255 
-0.83156 -0.514646 -0.208919 0.935065 0.295793 -0.195346 -0.891263 -0.298046 -0.341789 
-0.863213 -0.376848 -0.335929 -0.689451 -0.712405 -0.130904 -0.806443 -0.50267 -0.311404 
-0.793938 -0.315396 -0.519797 -0.883941 -0.221213 -0.411962 -0.944876 -0.209247 -0.251844 
-0.952511 0.0602588 -0.298484 0.529741 0.222751 -0.818386 0.329632 0.487092 -0.808755 
0.233548 0.90614 0.352656 0.366988 0.451076 -0.813541 0.122476 0.973972 -0.190732 
0.217628 0.967314 0.130164 0.186512 0.973633 0.131348 0.0237366 0.905704 0.423246 
0.125137 0.992061 -0.0124601 -0.408367 0.892281 0.19254 -0.256483 0.964324 0.06555 
-0.436081 -0.721492 0.53785 -0.0844621 -0.696541 0.712529 -0.0225746 -0.719646 0.693974 
-0.0154913 -0.823934 0.566474 0.111761 -0.903362 0.414061 0.22382 -0.933362 0.280606 
0.481294 -0.842925 0.240484 0.0455238 -0.781058 0.622797 0.200407 -0.832305 0.516823 
0.198182 -0.84106 0.50333 0.706076 -0.576185 0.411664 0.837948 -0.393131 0.378537 
-0.803104 -0.40309 0.438797 0.984035 -0.126178 0.125516 -0.912443 -0.339638 0.228242 
0.929625 0.271183 0.249513 -0.894496 -0.392096 0.214796 -0.744811 -0.38451 0.545351 
0.927058 0.371319 -0.0518197 0.886134 0.300064 0.353168 0.933931 0.329736 0.138014 
-0.903719 -0.423965 -0.0595473 -0.861335 -0.503452 -0.0681106 -0.82661 -0.391002 -0.404764 
-0.98797 -0.154302 0.0103447 -0.991712 -0.0562958 -0.115494 0.869738 0.197281 -0.452368 
0.89641 0.217596 -0.386137 0.788613 0.18184 -0.587387 -0.983257 0.172744 0.0580171 
0.690578 0.231415 -0.685236 0.04523 0.961056 0.272628 0.173734 0.957855 -0.228759 
0.402535 0.52219 -0.751853 0.631602 0.304628 -0.712938 0.0971566 0.951729 -0.291157 
0.209736 0.755275 -0.620943 -0.390752 -0.557413 0.732532 -0.00580399 -0.604014 0.796952 
0.723264 -0.360293 0.589133 -0.639408 -0.516452 0.569592 0.916702 -0.127577 0.378656 
0.917303 0.0264771 0.397309 0.768801 0.104996 0.630809 -0.688915 -0.154606 0.708161 
0.847994 0.211346 0.486044 -0.890559 -0.448642 0.0749927 0.769837 0.258215 0.583674 
0.900289 0.254183 0.35337 0.860483 0.196899 0.469893 -0.972657 -0.105283 0.207013 
0.971825 0.101337 -0.212805 -0.919785 -0.153135 0.361309 0.97649 0.171982 0.129956 
-0.998859 0.0454923 0.0145262 0.0173327 0.858952 0.511762 -0.117083 0.970169 0.21228 
-0.104088 0.668374 0.736506 -0.172758 0.923867 0.341503 0.668331 0.238082 -0.704734 
0.0142466 0.999481 -0.0289048 -0.320157 0.923263 0.21233 0.252475 0.734229 -0.63021 
0.622781 0.428178 -0.654834 0.511041 0.766461 -0.389068 0.0837875 -0.419004 0.90411 
0.303827 -0.469801 0.82884 -0.334344 -0.301526 0.892914 -0.271571 -0.554655 0.786516 
0.529045 -0.351268 0.772478 -0.652271 -0.290442 0.700133 0.408665 -0.18642 0.893443 
-0.081684 -0.26545 0.960658 0.530936 -0.00402282 0.847402 0.536767 0.0678985 0.840994 
-0.798509 -0.401641 0.448405 0.6833 0.140726 0.716447 -0.760821 -0.390372 0.518423 
0.731596 0.189229 0.65495 -0.902602 -0.341748 0.261759 -0.839284 -0.373363 0.395225 
-0.948704 -0.17206 0.265246 0.985859 0.137122 0.096329 0.956139 0.0347547 0.290843 
-0.95805 0.0449129 0.283061 -0.185588 0.767593 0.61348 0.947617 -0.012356 0.319168 
-0.210282 0.787662 0.579112 0.93833 0.158809 -0.30711 0.9673 0.205237 -0.149027 
0.0900248 0.953791 0.286668 0.835888 0.548805 0.0101883 0.280633 0.945024 -0.167856 
-0.555061 -0.37981 0.740035 -0.412513 -0.322351 0.852011 -0.150219 -0.179706 0.972183 
-0.696436 -0.311404 0.646533 0.458423 -0.0459474 0.887546 -0.550145 -0.369506 0.74887 
0.354928 0.0187292 0.934706 -0.151815 -0.117257 0.981429 0.408837 -0.0108726 0.912543 
-0.77007 -0.0893845 0.631666 0.774795 -0.00323856 0.632205 0.770864 -0.00687995 0.636963 
-0.821175 -0.0505709 0.568431 -0.729632 -0.000815609 0.68384 -0.322799 0.557538 0.764822 
0.978621 0.0305223 0.203393 -0.81517 -0.161 0.556395 0.919367 0.241748 0.310359 
-0.765339 0.642072 0.044704 -0.107533 0.98052 0.164369 0.351025 0.872958 0.33871 
0.67124 0.737943 -0.069828 0.720093 0.609513 0.331602 -0.517166 -0.295362 0.803306 
-0.448796 -0.420717 0.788403 -0.580881 -0.382496 0.718522 -0.751469 -0.356815 0.554957 
-0.571447 -0.195691 0.796965 0.254486 0.00184687 0.967075 -0.599962 -0.0553431 0.798112 
0.0471909 -0.00854856 0.998849 -0.256233 0.00149563 0.966614 -0.113332 0.0842232 0.989981 
0.0547368 0.153889 0.986571 -0.0155313 0.19225 0.981223 0.469325 -0.0303336 0.882504 
-0.140365 0.525978 0.838835 0.437017 -0.0171404 0.89929 0.0604575 0.0116189 0.998103 
0.235119 0.605494 0.760326 -0.0678926 0.414093 0.907699 -0.237805 0.69343 0.68015 
-0.221434 0.730056 0.646518 -0.386298 -0.1425 0.9113 0.470659 0.428843 0.771086 
-0.0589402 0.81534 0.575975 0.695557 0.297478 0.653994 -0.464898 0.868091 -0.174036 
0.334505 0.912263 0.236397 0.149219 0.629647 0.762416 0.403034 0.597211 0.693471 
-0.33797 -0.307225 0.8896 -0.454816 -0.169934 0.874222 -0.515359 -0.142828 0.844988 
0.0148265 0.326259 0.945164 0.275951 -0.804241 -0.526353 -0.839861 0.219009 -0.496658 
0.57735 0.57735 -0.57735 0.815276 -0.250684 0.521999 0.546219 0.0166577 0.837476 
0.318001 0.0222096 0.94783 -0.274792 0.771457 0.573884 0.0252688 0.48901 0.871912 
0.18085 0.249609 0.951309 -0.979142 0.182765 0.0887542 -0.848324 -0.165599 0.502914 
0.44753 0.582049 0.678922 0.353126 0.302104 0.885458 -0.95343 -0.0165282 0.30116 
0.290331 0.954653 0.0659234 0.367911 0.887471 0.277555 0.252122 0.766633 0.590515 
-0.700864 0.678486 0.220104 -0.54075 -0.592989 0.596619 -0.410256 -0.141824 0.900875 
0.21008 0.346718 0.914141 0.163518 0.318211 0.933811 0.0828117 0.469632 0.87897 
-0.751735 -0.365336 -0.54902 -0.987266 -0.125959 -0.0971617 -0.261693 0.129839 -0.956378 
0.0362583 0.458161 -0.88813 -0.176175 -0.404986 -0.897189 0.590865 0.375048 -0.714295 
-0.876904 -0.00541389 -0.480634 -0.0183562 0.862241 -0.506166 0.523568 0.847888 -0.0834426 
-0.739518 0.659198 0.136281 0.0140997 0.225972 -0.974032 0.105288 0.438386 -0.892598 
-0.0154591 0.549031 -0.835659 -0.0118441 0.184133 -0.98283 -0.248424 0.0494853 -0.967387 
0 0 -1 -0.83205 -0.5547 0 -1 0 2.78775e-08 
1 0 2.78775e-08 -0.101644 0.389124 -0.915561 -0.0208924 0.208474 -0.977805 
0.296174 0.105961 -0.949238 0.308909 0.0102575 -0.951036 0.0698605 0.360762 -0.930038 
0 0.5547 -0.83205 -0.0411558 0.606547 -0.793981 0.228627 0.275983 -0.933575 
-0.849321 -0.205874 -0.486075 -0.977198 0.210403 -0.0285454 -0.283053 -0.353628 -0.891531 
0.528074 0.0904091 -0.844372 -0.0553875 0.753919 -0.654629 0.369367 0.297291 -0.880446 
0.632009 0.0857257 -0.770205 -0.063354 0.972042 0.226097 0.24729 0.944926 0.214389 
0.595497 0.777731 -0.201288 0.204225 0.504263 -0.839054 0.419584 -0.0158048 -0.907579 
0.624971 0.0175585 -0.780451 0.612473 0.0864443 -0.785751 -0.50197 -0.152082 -0.851409 
-0.364093 -0.147887 -0.919546 -0.638156 -0.047087 -0.768466 -0.175018 0.00118286 -0.984565 
-0.222794 0.0527081 -0.97344 0.231276 0.782097 -0.57865 0.699683 0.0125453 -0.714344 
-0.571234 0.00514972 -0.820771 0 0 1 -0.292531 0.717347 -0.632328 
-0.255564 0.58899 -0.766667 0.641843 -0.0723977 -0.763411 -0.583664 -0.17763 -0.792328 
-0.897649 0.0396018 -0.438929 0.0376245 0.120925 -0.991948 0.229339 0.550587 -0.802657 
0.2505 0.679465 -0.689621 0.562721 0.660153 -0.497536 0.842094 0.14092 -0.520595 
-0.459334 0.886421 -0.0571908 0.265757 0.958005 -0.107699 0.0939844 0.951989 -0.291348 
0.35768 0.621056 -0.697391 0.72245 0.409248 -0.557299 0.947027 0.253497 -0.197176 
0.695563 0.693435 -0.187988 -0.452676 -0.345235 -0.82213 -0.796361 -0.325135 -0.509996 
-0.741743 -0.385283 -0.548976 0.107482 -0.0373324 -0.993506 -0.452291 -0.233697 -0.860708 
-0.632054 -0.259633 -0.730136 -0.195377 -0.167103 -0.966388 0.519064 -0.0116347 -0.854656 
0.896988 0.16828 -0.408772 -0.828738 -0.22281 -0.51337 -0.9023 0.00996009 -0.430993 
-0.952951 0.174557 -0.247819 0.0829254 0.715115 -0.69407 -0.831934 0.0461601 -0.552951 
0.0491241 0.714569 -0.697838 -0.821256 0.220782 -0.526112 0.256482 0.673908 -0.692867 
-0.198763 0.822276 -0.533249 -0.92064 0.212544 -0.327486 -0.934094 0.344052 -0.0953756 
0.314375 0.885813 -0.341326 -0.277521 0.843325 -0.460201 0.133426 0.937073 -0.322632 
0.0518998 0.998234 -0.0288875 0.917583 0.397537 -0.00254832 0.476933 0.878798 0.0157682 
-0.00604623 -0.568134 -0.822914 -0.125369 -0.342594 -0.931081 -0.528229 -0.442045 -0.724962 
-0.649391 -0.481893 -0.588278 0.0392319 -0.304598 -0.951673 -0.680687 -0.308154 -0.66461 
0.400795 -0.138262 -0.905675 -0.700328 -0.429987 -0.569782 0.873731 0.178398 -0.452513 
0.742768 0.19813 -0.639562 0.888442 0.231238 -0.396484 -0.838666 -0.416102 -0.351424 
0.814933 0.141812 -0.561938 0.775839 -0.0436311 -0.629421 0.718857 0.0379715 -0.69412 
-0.89467 -0.334633 -0.29595 0.939161 0.088533 -0.331872 -0.958214 -0.284551 -0.0292691 
-0.92675 -0.239328 -0.28958 -0.990539 0.023136 -0.13527 -0.968928 0.182312 -0.167153 
0.97457 0.215018 -0.0630952 -0.993242 0.0473409 -0.10597 -0.933192 0.215899 -0.287298 
-0.113396 0.806469 -0.580301 0.0515083 0.793065 -0.606955 0.859789 0.21055 0.465222 
-0.163468 0.938753 -0.303351 0.34059 0.939687 -0.0314168 -0.124256 0.992166 -0.0129598 
0.992413 0.12169 -0.0175638 0.0740098 0.981113 -0.178719 0.176011 0.961609 0.210544 
0.184073 0.937763 0.294479 0.735503 0.638847 0.225631 0.660863 0.476053 0.580202 
0.431977 0.804906 0.406845 -0.0444705 -0.786378 -0.616143 -0.518298 -0.69932 -0.492259 
-0.408465 -0.535186 -0.739413 -0.160575 -0.566086 -0.808555 0.163175 -0.68324 -0.711729 
0.13954 -0.582001 -0.801127 -0.474683 -0.433165 -0.766188 -0.398235 -0.397281 -0.826787 
0.300503 -0.294898 -0.907046 0.788018 -0.16483 -0.593177 -0.769509 -0.389564 -0.506059 
0.813245 0.076936 -0.576814 0.903328 0.272296 -0.331442 -0.924127 -0.27924 -0.260794 
0.430385 -0.0254055 -0.902288 0.811063 0.00355148 -0.584948 0.963276 0.0896746 -0.253096 
-0.891989 -0.423454 -0.158251 0.914344 0.25645 -0.313383 -0.847655 -0.376356 -0.373947 
-0.92479 -0.309491 -0.221311 0.963171 0.212303 -0.165014 0.986049 0.12538 0.109483 
0.979884 0.1332 0.148609 0.895729 0.229975 0.380502 -0.903058 -0.378032 -0.203906 
0.967472 0.23861 0.08404 -0.995053 -0.0767915 -0.0630361 -0.98755 0.125931 0.0942671 
-0.980827 0.193643 -0.0219239 -0.258671 0.965542 -0.028613 0.462539 0.861349 0.210083 
0.554528 0.695659 0.456681 0.265032 0.861355 0.43339 -0.279438 -0.759258 -0.587742 
-0.187488 -0.831495 -0.522939 0.153146 -0.868165 -0.472055 0.198968 -0.670801 -0.714449 
0.722751 -0.429047 -0.541802 0.408627 -0.685716 -0.602343 0.839588 -0.537799 -0.0765769 
0.607395 -0.317239 -0.728307 0.357571 -0.363402 -0.86028 0.522768 -0.359436 -0.772994 
0.886111 -0.299722 -0.353517 -0.849688 -0.41967 -0.31923 -0.844512 -0.315095 -0.43303 
0.988289 0.0479591 -0.144862 -0.898605 -0.43825 -0.0211159 0.959785 0.237793 -0.149222 
0.981131 0.193267 0.00552959 0.960171 0.268541 -0.0771831 -0.94278 -0.332933 -0.0179137 
0.944591 0.284143 0.164349 -0.949593 -0.269468 0.160187 0.921239 0.244441 0.3026 
0.842232 0.2674 0.468127 -0.939834 -0.0882168 0.330045 0.774359 0.283264 0.5658 
-0.081346 0.895268 -0.438039 -0.966581 0.248014 0.0648925 0.703116 0.273721 0.656281 
0.124754 0.91563 -0.382176 0.0892787 0.914247 0.395199 0.50403 0.807707 0.305882 
0.449017 0.440887 0.777176 0.514244 0.510231 0.68936 -0.755399 0.624178 -0.199434 
0.183483 0.569932 0.800945 0.405271 0.202704 0.891441 -0.0222303 -0.905495 -0.423775 
-0.255824 -0.956188 -0.142331 -0.400569 -0.814484 -0.419714 -0.0619556 -0.992086 0.109208 
-0.556158 -0.813723 -0.168947 -0.447591 -0.881078 -0.152854 -0.0125114 -0.990849 -0.134394 
0.0242062 -0.846616 -0.531653 -0.704753 -0.630833 -0.324612 0.498822 -0.858056 -0.12213 
-0.730677 -0.629599 -0.264039 -0.880093 -0.322839 0.348153 -0.892742 -0.384909 0.234214 
-0.959079 -0.249232 -0.134357 0.972474 -0.217429 0.0837758 -0.951297 -0.235754 0.19863 
0.973495 0.214716 -0.0787742 -0.958408 -0.2788 -0.0610245 0.91372 0.395776 0.0920686 
-0.934533 -0.354472 0.031595 -0.920617 -0.348645 0.175816 0.89479 0.237698 0.377956 
0.838202 0.24448 0.48749 -0.944691 -0.275912 0.177291 -0.911304 -0.089475 0.401896 
0.623655 0.219862 0.750143 0.305919 0.400004 0.86395 0.229236 0.921769 -0.312719 
0.000805954 0.95115 -0.308728 0.35156 0.405132 0.843963 -0.961019 0.0961485 0.259224 
0.0250883 0.960427 -0.277401 -0.950475 0.283722 0.126884 -0.131923 0.972867 -0.19007 
0.525234 0.832398 0.176756 0.106387 0.875363 0.471616 -0.91106 0.401991 -0.0915053 
-0.0249625 0.999688 0.000965058 0.0559834 0.908085 0.415028 0.29694 0.482683 0.82392 
-0.428969 0.844611 -0.320342 -0.458661 -0.876127 0.148433 -0.240685 -0.94468 0.222825 
-0.0468246 -0.994025 -0.0985994 0.0706321 -0.997008 0.0314103 0.207609 -0.964918 -0.160724 
0.258234 -0.93565 -0.240571 0.696822 -0.697743 0.166115 -0.68789 -0.722766 0.066453 
0.90132 -0.305831 0.306739 0.988159 -0.0443939 0.146868 0.867844 0.2326 0.439026 
0.886392 0.193784 0.420426 -0.88848 -0.327972 0.320994 0.887992 0.346329 0.302534 
-0.801141 -0.310033 0.511911 -0.819858 -0.212389 0.531717 -0.781081 -0.186437 0.595948 
-0.753446 -0.105126 0.649051 0.448819 0.236076 0.861876 -0.862008 -0.0073114 0.506842 
-0.925355 0.0488923 0.375935 -0.844642 0.0919076 0.527383 0.150973 0.988336 -0.0199666 
0.186876 0.958837 -0.213796 0.200639 0.902727 0.380564 -0.823448 0.119596 0.554644 
-0.768163 0.581943 -0.266963 -0.900396 0.302286 0.312905 -0.331886 0.924994 -0.185037 
-0.348048 0.937462 -0.0052238 0.242026 0.961173 0.132547 -0.710664 0.697687 0.0905007 
0 0 -1 -0.970142 -0.242536 0 -1 0 2.52881e-08 
1 0 2.52881e-08 0 0.242536 -0.970142 -0.47205 -0.875339 0.104647 
0.143252 0.182493 -0.972715 0.296205 -0.948628 0.111206 0.859464 -0.411965 0.302666 
0.837496 -0.184831 0.514236 0.801249 0.133294 0.583295 0.836005 -0.0069147 0.548678 