# vtk DataFile Version 4.2
vtk output
ASCII
DATASET POLYDATA
POINTS 2714 float
351.293 106.939 141.942 352.189 107.651 142.042 351.947 109.617 142.309 
349.064 110.854 142.242 361.56 95.9645 143.106 362.875 95.7221 143.447 
348.398 105.176 142.558 346.728 107.565 142.668 350.144 108.087 141.987 
348.396 108.994 142.171 355.273 108.005 143.152 353.628 110.119 143.241 
347.207 111.875 142.778 350.328 111.791 142.563 352.165 111.476 143.072 
349.685 113.209 143.088 350.45 114.01 143.642 360.816 94.3842 143.345 
358.227 95.8781 143.057 362.937 96.5436 143.404 363.251 97.0643 143.615 
361.737 99.8848 143.638 349.586 101.48 143.181 347.486 102.376 143.536 
354.252 102.335 142.627 356.14 105.415 143.03 355.895 109.365 144.158 
354.559 110.521 144.094 344.096 113.883 143.965 345.088 114.571 143.816 
347.466 114.536 143.597 351.112 113.495 143.643 351.966 113.463 144.084 
344.016 115.811 144.457 348.151 114.983 143.879 360.634 91.1821 144.663 
364.102 91.1335 145.012 357.35 92.9289 144.261 363.8 94.6276 144.131 
353.391 95.46 144.235 364.943 97.769 144.854 351.296 99.2619 143.445 
364.678 98.4471 144.82 345.326 102.922 144.281 358.053 107.05 144.647 
355.819 109.681 144.356 356.554 109.054 144.565 354.635 111.163 144.726 
342.79 114.211 144.602 353.205 112.749 144.633 351.652 114.347 144.696 
346.533 116.375 144.5 343.177 117.496 145.528 345.177 117.931 145.601 
365.891 95.1856 145.324 366.307 96.3879 145.879 364.533 99.6833 145.283 
362.498 102.83 145.508 359.082 106.163 145.018 359.563 106.007 145.415 
341.929 108.872 144.827 342.009 111.191 144.589 356.408 109.446 144.811 
355.411 110.922 145.687 355.93 110.267 145.46 340.895 113.323 145.558 
353.429 112.912 145.158 340.932 115.186 145.903 352.265 114.163 145.133 
350.615 115.433 145.352 341.634 117.008 146.055 349.066 116.411 145.408 
346.882 117.491 145.573 343.18 118.405 146.243 344.323 118.352 146 
361.654 88.3598 146.086 357.599 89.424 146.235 366.196 88.8629 146.38 
354.461 91.3411 146.043 368.139 92.6117 146.97 366.694 97.0966 146.709 
344.577 98.653 146.628 364.636 100.877 146.455 361.961 103.863 146.199 
362.537 103.467 146.647 361.48 104.509 146.457 360.403 105.557 146.161 
340.441 107.647 145.925 359.816 106.192 146.049 358.647 107.503 145.824 
357.033 109.201 145.679 357.492 108.869 146.352 355.385 111.104 146.236 
356.474 109.862 145.911 340.287 112.718 145.916 354.044 112.609 146.055 
352.563 114.153 145.821 346.418 118.185 146.164 346.651 118.305 146.464 
345.01 118.875 146.713 344.091 119.303 147.416 344.772 119.167 147.246 
345.397 118.994 147.093 368.474 86.5006 147.818 361.195 86.9544 147.043 
366.505 88.0775 146.727 369.492 89.4022 147.988 348.312 95.6924 146.212 
367.919 95.7191 147.933 366.931 97.6277 147.572 365.384 99.7901 146.682 
363.855 102.182 147.027 361.495 104.694 147.126 339.559 106.458 146.795 
359.567 106.729 146.711 356.476 109.935 146.575 356.016 110.382 146.891 
353.746 112.953 146.731 352.177 114.576 146.565 351.046 115.6 146.802 
339.474 117.187 147.809 340.524 118.64 147.762 347.866 117.952 147.123 
341.653 119.784 148.536 343.055 119.749 148.338 343.817 119.58 148.077 
370.444 88.6514 148.888 370.273 90.0874 149.035 368.985 93.0595 148.171 
368.584 94.4933 148.371 368.12 95.5872 148.387 366.117 99.1354 147.582 
365.13 100.559 147.279 339.487 102.705 148.076 359.185 107.074 147.782 
358.377 107.852 147.878 337.084 110.671 148.646 356.205 109.764 148.01 
356.987 109.184 147.684 353.935 112.685 147.027 349.784 116.622 147.637 
347.73 118.1 147.736 340.272 119.648 149.084 340.691 119.938 149.249 
345.63 119.18 148.189 371.762 81.59 150.087 369.949 82.3174 149.564 
370.807 82.5769 149.586 372.385 82.9522 150.024 363.909 84.0631 148.61 
359.269 85.0471 149.046 370.947 88.64 149.45 350.933 89.9104 148.876 
369.878 91.9198 149.65 347.072 93.4972 148.459 343.599 96.2552 148.834 
368.774 94.54 149.383 361.916 104.274 148.196 362.714 103.441 148.359 
360.804 105.327 148.089 361.352 104.674 148.58 336.632 105.524 149.603 
358.73 107.253 148.528 357.327 108.661 148.235 336.696 113.696 149.727 
353.72 112.313 148.105 351.502 114.896 147.998 348.72 117.29 148.496 
338.641 119.194 150.435 339.49 119.035 149.181 347.87 117.926 148.575 
340.702 120.633 150.332 341.445 120.662 150.268 342.321 120.474 150.079 
340.813 120.783 150.623 372.796 79.6229 151.053 374.036 79.3417 151.454 
373.346 80.6534 150.9 374.33 80.6945 151.359 373.691 81.9576 150.903 
371.346 83.243 149.582 373.123 83.3195 150.477 354.898 85.9489 150.204 
372.992 85.6378 150.868 372.013 87.4041 150.339 371.021 89.2932 149.98 
370.433 90.829 150.407 369.726 92.4384 149.874 368.038 95.9098 149.704 
365.846 99.6374 148.883 363.563 102.404 148.797 363.186 102.727 149.001 
356.732 108.657 148.99 357.542 107.86 149.148 352.01 113.503 149.039 
337.248 117.398 150.699 348.867 117.088 148.818 348.709 117.057 149.027 
339.876 120.543 150.965 340.198 120.733 151.213 341.088 120.815 150.689 
377 76.0087 151.017 377 76.0087 151.017 377 76.0088 151.017 
377 76.0088 151.017 374.282 77.7403 152.2 377 76.0088 151.017 
375.136 78.4403 152.289 371.003 79.4115 151.069 366.851 79.9734 151.129 
375.166 80.4768 152.017 374.67 81.7123 151.616 375.097 81.2187 151.995 
372.633 86.7351 151.009 372.925 86.3858 151.344 371.69 88.4763 150.834 
371.321 89.1834 151.112 369.964 91.8428 151.086 368.302 95.3184 150.177 
339.308 97.8041 151.053 366.339 98.3602 150.132 336.087 101.128 151.966 
357.577 105.514 151.017 357.148 106.783 150.355 359.813 105.109 150.006 
334.877 110.494 152.017 350.812 112.74 150.558 350.025 114.549 150.044 
348.557 115.964 150.247 348.46 116.746 149.617 338.683 119.843 151.245 
342.247 120.506 151.156 339.92 120.771 151.986 341.309 120.86 151.239 
372.963 76.4943 152.719 377 76.0087 151.017 378 76.0087 152.017 
378 76.0087 152.017 378 76.0088 152.017 378 76.0088 152.017 
378 76.0088 152.017 371.213 77.4942 152.188 375.619 78.4273 152.636 
376.264 77.5104 153.251 361.169 80.7238 152.219 375.922 79.8178 152.815 
374.608 83.6185 152.304 370.527 90.4762 151.724 344.941 91.957 151.331 
343.147 92.6991 152.09 369.402 92.9179 151.27 363.778 99.3055 152.035 
361.924 102.614 150.6 334.696 107.35 152.305 335.568 116.034 152.844 
343.18 119.83 151.928 340.208 120.837 152.477 340.683 120.85 152.19 
377.165 74.1393 154.416 377.104 74.0638 154.45 377.1 74.1059 154.406 
377.221 74.0827 154.472 376.953 74.4874 154.35 375.159 75.7652 153.377 
375.874 76.1422 153.434 378 76.0087 152.017 376.292 76.1498 153.627 
357.408 81.6282 153.299 376.186 80.4054 153.357 375.909 81.0831 153.274 
375.604 81.9328 153.378 375.018 83.2527 153.31 373.239 86.0592 152.45 
348.943 87.4098 152.667 372.472 87.2578 152.355 336.224 98.9479 153.198 
336.625 99.18 152.572 364.203 99.0628 151.988 334.521 104.516 153.245 
350.521 105.98 153.719 349.184 107.817 153.572 344.03 118.538 152.665 
343.681 119.138 152.412 338.414 120.209 152.904 341.756 120.268 153.182 
342.724 119.982 152.698 339.493 120.77 153.342 341.211 120.546 153.08 
342.766 119.913 152.795 376.828 74.0571 154.511 377.21 73.9904 154.583 
377.433 74.0306 154.717 374.271 74.7041 153.946 376.926 75.134 154.258 
372.489 75.2274 153.696 377.014 78.8641 154.234 376.795 79.3782 154.082 
369.741 90.9469 153.02 367.499 93.3633 153.485 354.014 101.611 154.719 
351.135 104.142 154.547 333.98 107.508 153.918 334.061 113.08 154.607 
344.845 115.037 154.424 335.43 117.229 154.605 336.471 118.75 154.119 
337.124 119.491 154.185 338.496 120.361 153.563 342.86 119.726 152.915 
339.858 120.759 153.912 340.246 120.71 153.758 374.624 73.1626 155.217 
379.327 72.5366 156.287 376.283 73.7711 154.672 379.147 73.6905 155.977 
377.944 76.006 155.175 363.437 77.3853 154.816 377.669 77.456 155.25 
376.642 80.0776 154.862 375.82 81.6113 154.557 370.111 88.4258 154.938 
334.838 99.9481 154.857 335.864 118.445 155.504 342.152 118.742 155.229 
336.25 118.966 155.6 337.741 120.114 155.397 338.408 120.349 155.371 
339.127 120.535 154.965 339.665 120.519 155.001 380.985 70.5177 157.69 
382.011 70.6375 158.079 373.569 72.0458 156.613 381.73 71.3372 157.758 
377.869 73.2254 155.443 380.93 71.8438 157.229 370.364 73.4049 156.087 
381.403 72.3581 157.502 381.705 72.1255 157.724 380.411 73.2885 156.873 
380.577 73.4503 157.077 380.751 73.0358 157.104 367.524 74.6654 155.923 
378.865 75.5141 156.256 378.408 76.4414 156.133 379.352 75.4628 157.07 
377.473 78.3843 156.669 376.879 79.4234 156.383 375.016 82.538 155.444 
373.801 83.9196 155.626 358.642 95.918 156.318 336.436 96.015 155.594 
348.783 104.802 156.041 337.39 119.995 156.074 382.348 69.6594 158.751 
382.072 72.3976 158.255 381.501 72.8809 157.768 379.999 74.199 156.887 
380.538 73.8838 157.337 380.935 73.9471 158.039 378.559 76.7919 157.176 
356.431 79.3207 157.134 346.468 85.2196 157.625 365.553 89.1236 157.739 
338.43 92.3875 156.902 346.08 108.264 156.732 337.092 119.898 157.779 
383.016 69.3428 159.461 374.089 70.0468 159.14 382.982 71.3129 159.196 
381.602 73.0225 158.03 382.046 73.0806 159.212 379.526 75.8102 158.452 
347.986 83.9766 157.916 364.127 89.4497 158.423 359.32 93.3234 158.139 
353.828 97.7494 158.114 333.132 102.143 157.938 335.751 119.001 158.28 
339.882 119.401 157.614 336.599 119.666 158.203 339.124 119.764 157.829 
337.418 119.973 158.308 337.929 120.031 158.009 382.226 68.3582 159.681 
381.272 68.6334 159.226 383.614 69.3802 160.144 369.198 71.7617 159.135 
365.674 73.2609 159.245 382.916 71.9796 159.691 379.34 76.0297 159.612 
377.902 77.4208 159.375 375.314 79.9626 159.142 343.131 86.8132 158.954 
337.392 92.0687 158.776 350.465 100.173 158.823 334.267 117.077 158.88 
339.586 118.926 158.828 336.829 119.78 159.538 338.158 119.85 158.798 
382.69 67.8233 160.357 382.832 67.643 160.595 378.424 68.3144 160.036 
383.889 68.5652 160.878 383.667 69.8436 160.176 383.757 70.64 160.6 
382.185 73.197 160.186 360.162 75.6433 160.275 333.307 99.1304 159.468 
[...]
POINT_DATA 2714
SCALARS scalars float
LOOKUP_TABLE default
1 1 1 1 1 1 1 1 1 
1 1 1 1 1 1 1 1 1 
1 1 1 1 1 1 1 1 1 
1 1 1 1 1 1 1 1 1 
1 1 1 1 1 1 1 1 1 
1 1 1 1 1 1 1 1 1 
1 1 1 1 1 1 1 1 1 
1 1 1 1 1 1 1 1 1 
1 1 1 1 1 1 1 1 1 
1 1 1 1 1 1 1 1 1 
1 1 1 1 1 1 1 1 1 
1 1 1 1 1 1 1 1 1 
1 1 1 1 1 1 1 1 1 
1 1 1 1 1 1 1 1 1 
1 1 1 1 1 1 1 1 1 
1 1 1 1 1 1 1 1 1 
1 1 1 1 1 1 1 1 1 
1 1 1 1 1 1 1 1 1 
1 1 1 1 1 1 1 1 1 
1 1 1 1 1 1 1 1 1 
1 1 1 1 1 1 1 1 1 
1 1 1 1 1 1 1 1 1 
1 1 1 1 1 1 1 1 1 
1 1 1 1 1 1 1 1 1 
1 1 1 1 1 1 1 1 1 
1 1 1 1 1 1 1 1 1 
1 1 1 1 1 1 1 1 1 
1 1 1 1 1 1 1 1 1 
1 1 1 1 1 1 1 1 1 
1 1 1 1 1 1 1 1 1 
1 1 1 1 1 1 1 1 1 
1 1 1 1 1 1 1 1 1 
1 1 1 1 1 1 1 1 1 
1 1 1 1 1 1 1 1 1 
1 1 1 1 1 1 1 1 1 
1 1 1 1 1 1 1 1 1 
1 1 1 1 1 1 1 1 1 
1 1 1 1 1 1 1 1 1 
1 1 1 1 1 1 1 1 1 
1 1 1 1 1 1 1 1 1 
1 1 1 1 1 1 1 1 1 
1 1 1 1 1 1 1 1 1 
1 1 1 1 1 1 1 1 1 
1 1 1 1 1 1 1 1 1 
1 1 1 1 1 1 1 1 1 
1 1 1 1 1 1 1 1 1 
1 1 1 1 1 1 1 1 1 
1 1 1 1 1 1 1 1 1 
1 1 1 1 1 1 1 1 1 
1 1 1 1 1 1 1 1 1 
1 1 1 1 1 1 1 1 1 
1 1 1 1 1 1 1 1 1 
1 1 1 1 1 1 1 1 1 
1 1 1 1 1 1 1 1 1 
1 1 1 1 1 1 1 1 1 
1 1 1 1 1 1 1 1 1 
1 1 1 1 1 1 1 1 1 
1 1 1 1 1 1 1 1 1 
1 1 1 1 1 1 1 1 1 
1 1 1 1 1 1 1 1 1 
1 1 1 1 1 1 1 1 1 
1 1 1 1 1 1 1 1 1 
1 1 1 1 1 1 1 1 1 
1 1 1 1 1 1 1 1 1 
1 1 1 1 1 1 1 1 1 
1 1 1 1 1 1 1 1 1 
1 1 1 1 1 1 1 1 1 
1 1 1 1 1 1 1 1 1 
1 1 1 1 1 1 1 1 1 
1 1 1 1 1 1 1 1 1 
1 1 1 1 1 1 1 1 1 
1 1 1 1 1 1 1 1 1 
1 1 1 1 1 1 1 1 1 
1 1 1 1 1 1 1 1 1 
1 1 1 1 1 1 1 1 1 
1 1 1 1 1 1 1 1 1 
1 1 1 1 1 1 1 1 1 
1 1 1 1 1 1 1 1 1 
1 1 1 1 1 1 1 1 1 
1 1 1 1 1 1 1 1 1 
1 1 1 1 1 1 1 1 1 
1 1 1 1 1 1 1 1 1 
1 1 1 1 1 1 1 1 1 
1 1 1 1 1 1 1 1 1 
1 1 1 1 1 1 1 1 1 
1 1 1 1 1 1 1 1 1 
1 1 1 1 1 1 1 1 1 
1 1 1 1 1 1 1 1 1 
1 1 1 1 1 1 1 1 1 
1 1 1 1 1 1 1 1 1 
1 1 1 1 1 1 1 1 1 
1 1 1 1 1 1 1 1 1 
1 1 1 1 1 1 1 1 1 
1 1 1 1 1 1 1 1 1 
1 1 1 1 1 1 1 1 1 
1 1 1 1 1 1 1 1 1 
1 1 1 1 1 1 1 1 1 
1 1 1 1 1 1 1 1 1 
1 1 1 1 1 1 1 1 1 
1 1 1 1 1 1 1 1 1 
1 1 1 1 1 1 1 1 1 
1 1 1 1 1 1 1 1 1 
1 1 1 1 1 1 1 1 1 
1 1 1 1 1 1 1 1 1 
1 1 1 1 1 1 1 1 1 
1 1 1 1 1 1 1 1 1 
1 1 1 1 1 1 1 1 1 
1 1 1 1 1 1 1 1 1 
1 1 1 1 1 1 1 1 1 
1 1 1 1 1 1 1 1 1 
1 1 1 1 1 1 1 1 1 
1 1 1 1 1 1 1 1 1 
1 1 1 1 1 1 1 1 1 
1 1 1 1 1 1 1 1 1 
1 1 1 1 1 1 1 1 1 
1 1 1 1 1 1 1 1 1 
1 1 1 1 1 1 1 1 1 
1 1 1 1 1 1 1 1 1 
1 1 1 1 1 1 1 1 1 
1 1 1 1 1 1 1 1 1 
1 1 1 1 1 1 1 1 1 
1 1 1 1 1 1 1 1 1 
1 1 1 1 1 1 1 1 1 
1 1 1 1 1 1 1 1 1 
1 1 1 1 1 1 1 1 1 
1 1 1 1 1 1 1 1 1 
1 1 1 1 1 1 1 1 1 
1 1 1 1 1 1 1 1 1 
1 1 1 1 1 1 1 1 1 
1 1 1 1 1 1 1 1 1 
1 1 1 1 1 1 1 1 1 
1 1 1 1 1 1 1 1 1 
1 1 1 1 1 1 1 1 1 
1 1 1 1 1 1 1 1 1 
1 1 1 1 1 1 1 1 1 
1 1 1 1 1 1 1 1 1 
1 1 1 1 1 1 1 1 1 
1 1 1 1 1 1 1 1 1 
1 1 1 1 1 1 1 1 1 
1 1 1 1 1 1 1 1 1 
1 1 1 1 1 1 1 1 1 
1 1 1 1 1 1 1 1 1 
1 1 1 1 1 1 1 1 1 
1 1 1 1 1 1 1 1 1 
1 1 1 1 1 1 1 1 1 
1 1 1 1 1 1 1 1 1 
1 1 1 1 1 1 1 1 1 
1 1 1 1 1 1 1 1 1 
1 1 1 1 1 1 1 1 1 
1 1 1 1 1 1 1 1 1 
1 1 1 1 1 1 1 1 1 
1 1 1 1 1 1 1 1 1 
1 1 1 1 1 1 1 1 1 
1 1 1 1 1 1 1 1 1 
1 1 1 1 1 1 1 1 1 
1 1 1 1 1 1 1 1 1 
1 1 1 1 1 1 1 1 1 
1 1 1 1 1 1 1 1 1 
1 1 1 1 1 1 1 1 1 
1 1 1 1 1 1 1 1 1 
1 1 1 1 1 1 1 1 1 
1 1 1 1 1 1 1 1 1 
1 1 1 1 1 1 1 1 1 
1 1 1 1 1 1 1 1 1 
1 1 1 1 1 1 1 1 1 
1 1 1 1 1 1 1 1 1 
1 1 1 1 1 1 1 1 1 
1 1 1 1 1 1 1 1 1 
1 1 1 1 1 1 1 1 1 
1 1 1 1 1 1 1 1 1 
1 1 1 1 1 1 1 1 1 
1 1 1 1 1 1 1 1 1 
1 1 1 1 1 1 1 1 1 
1 1 1 1 1 1 1 1 1 
1 1 1 1 1 1 1 1 1 
1 1 1 1 1 1 1 1 1 
1 1 1 1 1 1 1 1 1 
1 1 1 1 1 1 1 1 1 
1 1 1 1 1 1 1 1 1 
1 1 1 1 1 1 1 1 1 
1 1 1 1 1 1 1 1 1 
1 1 1 1 1 1 1 1 1 
1 1 1 1 1 1 1 1 1 
1 1 1 1 1 1 1 1 1 
1 1 1 1 1 1 1 1 1 
1 1 1 1 1 1 1 1 1 
1 1 1 1 1 1 1 1 1 
1 1 1 1 1 1 1 1 1 
1 1 1 1 1 1 1 1 1 
1 1 1 1 1 1 1 1 1 
1 1 1 1 1 1 1 1 1 
1 1 1 1 1 1 1 1 1 
1 1 1 1 1 1 1 1 1 
1 1 1 1 1 1 1 1 1 
1 1 1 1 1 1 1 1 1 
1 1 1 1 1 1 1 1 1 
1 1 1 1 1 1 1 1 1 
1 1 1 1 1 1 1 1 1 
1 1 1 1 1 1 1 1 1 
1 1 1 1 1 1 1 1 1 
1 1 1 1 1 1 1 1 1 
1 1 1 1 1 1 1 1 1 
1 1 1 1 1 1 1 1 1 
1 1 1 1 1 1 1 1 1 
1 1 1 1 1 1 1 1 1 
1 1 1 1 1 1 1 1 1 
1 1 1 1 1 1 1 1 1 
1 1 1 1 1 1 1 1 1 
1 1 1 1 1 1 1 1 1 
1 1 1 1 1 1 1 1 1 
1 1 1 1 1 1 1 1 1 
1 1 1 1 1 1 1 1 1 
1 1 1 1 1 1 1 1 1 
1 1 1 1 1 1 1 1 1 
1 1 1 1 1 1 1 1 1 
1 1 1 1 1 1 1 1 1 
1 1 1 1 1 1 1 1 1 
1 1 1 1 1 1 1 1 1 
1 1 1 1 1 1 1 1 1 
1 1 1 1 1 1 1 1 1 
1 1 1 1 1 1 1 1 1 
1 1 1 1 1 1 1 1 1 
1 1 1 1 1 1 1 1 1 
1 1 1 1 1 1 1 1 1 
1 1 1 1 1 1 1 1 1 
1 1 1 1 1 1 1 1 1 
1 1 1 1 1 1 1 1 1 
1 1 1 1 1 1 1 1 1 
1 1 1 1 1 1 1 1 1 
1 1 1 1 1 1 1 1 1 
1 1 1 1 1 1 1 1 1 
1 1 1 1 1 1 1 1 1 
1 1 1 1 1 1 1 1 1 
1 1 1 1 1 1 1 1 1 
1 1 1 1 1 1 1 1 1 
1 1 1 1 1 1 1 1 1 
1 1 1 1 1 1 1 1 1 
1 1 1 1 1 1 1 1 1 
1 1 1 1 1 1 1 1 1 
1 1 1 1 1 1 1 1 1 
1 1 1 1 1 1 1 1 1 
1 1 1 1 1 1 1 1 1 
1 1 1 1 1 1 1 1 1 
1 1 1 1 1 1 1 1 1 
1 1 1 1 1 1 1 1 1 
1 1 1 1 1 1 1 1 1 
1 1 1 1 1 1 1 1 1 
1 1 1 1 1 1 1 1 1 
1 1 1 1 1 1 1 1 1 
1 1 1 1 1 1 1 1 1 
1 1 1 1 1 1 1 1 1 
1 1 1 1 1 1 1 1 1 
1 1 1 1 1 1 1 1 1 
1 1 1 1 1 1 1 1 1 
1 1 1 1 1 1 1 1 1 
1 1 1 1 1 1 1 1 1 
1 1 1 1 1 1 1 1 1 
1 1 1 1 1 1 1 1 1 
1 1 1 1 1 1 1 1 1 
1 1 1 1 1 1 1 1 1 
1 1 1 1 1 1 1 1 1 
1 1 1 1 1 1 1 1 1 
1 1 1 1 1 1 1 1 1 
1 1 1 1 1 1 1 1 1 
1 1 1 1 1 1 1 1 1 
1 1 1 1 1 1 1 1 1 
1 1 1 1 1 1 1 1 1 
1 1 1 1 1 1 1 1 1 
1 1 1 1 1 1 1 1 1 
1 1 1 1 1 1 1 1 1 
1 1 1 1 1 1 1 1 1 
1 1 1 1 1 1 1 1 1 
1 1 1 1 1 1 1 1 1 
1 1 1 1 1 1 1 1 1 
1 1 1 1 1 1 1 1 1 
1 1 1 1 1 1 1 1 1 
1 1 1 1 1 1 1 1 1 
1 1 1 1 1 1 1 1 1 
1 1 1 1 1 1 1 1 1 
1 1 1 1 1 1 1 1 1 
1 1 1 1 1 1 1 1 1 
1 1 1 1 1 1 1 1 1 
1 1 1 1 1 1 1 1 1 
1 1 1 1 1 1 1 1 1 
1 1 1 1 1 1 1 1 1 
1 1 1 1 1 1 1 1 1 
1 1 1 1 1 1 1 1 1 
1 1 1 1 1 1 1 1 1 
1 1 1 1 1 1 1 1 1 
1 1 1 1 1 1 1 1 1 
1 1 1 1 1 1 1 1 1 
1 1 1 1 1 1 1 1 1 
1 1 1 1 1 1 1 1 1 
1 1 1 1 1 1 1 1 1 
1 1 1 1 1 1 1 1 1 
1 1 1 1 1 1 1 1 1 
1 1 1 1 1 1 1 1 1 
1 1 1 1 1 1 1 1 1 
1 1 1 1 1 1 1 1 1 
1 1 1 1 1 1 1 1 1 
1 1 1 1 1 1 1 1 1 
1 1 1 1 1 
NORMALS Normals float
-0.0465828 -0.0756371 -0.996047 0.224589 0.109494 -0.968282 0.193891 0.200897 -0.960233 
-0.0331493 0.183305 -0.982497 0.124801 -0.0323243 -0.991655 0.415607 -0.165496 -0.894361 
-0.26276 -0.19237 -0.94549 -0.303344 -0.0672983 -0.950502 -0.0493617 0.0315971 -0.998281 
-0.139604 0.0545873 -0.988702 0.392441 0.297637 -0.870289 0.42696 0.390105 -0.815796 
-0.128186 0.239282 -0.962451 0.199826 0.361321 -0.910778 0.442623 0.411681 -0.79662 
0.0727419 0.465161 -0.882232 0.26567 0.541729 -0.797464 0.0763271 -0.295541 -0.952276 
-0.0956853 -0.203641 -0.974359 0.336332 0.0659338 -0.939433 0.473662 0.0908735 -0.876006 
0.407869 0.280355 -0.868933 -0.240271 -0.338948 -0.909607 -0.349184 -0.377677 -0.857572 
0.0446302 -0.0808962 -0.995723 0.330572 0.195493 -0.923312 0.514827 0.496214 -0.699089 
0.536798 0.528762 -0.657464 -0.285568 0.128644 -0.949685 -0.193112 0.252207 -0.948209 
-0.0120981 0.280691 -0.959722 0.407491 0.544774 -0.732921 0.484447 0.508295 -0.712002 
-0.233905 0.398646 -0.886775 0.156219 0.472752 -0.867238 -0.0778257 -0.464412 -0.882193 
0.283587 -0.269491 -0.9203 -0.179029 -0.414484 -0.892273 0.418476 -0.13092 -0.898742 
-0.311388 -0.429064 -0.847904 0.699112 0.213075 -0.682526 -0.23093 -0.2592 -0.93781 
0.643718 0.279194 -0.712515 -0.429448 -0.329281 -0.840921 0.595376 0.505428 -0.624556 
0.551983 0.617907 -0.559916 0.70349 0.447733 -0.55194 0.614205 0.590101 -0.523959 
-0.431136 0.150146 -0.889707 0.657373 0.509449 -0.555267 0.474275 0.721406 -0.504614 
0.0745965 0.559856 -0.825225 -0.293604 0.457221 -0.839491 0.080892 0.68826 -0.72094 
0.544883 0.0898185 -0.833688 0.742736 0.131803 -0.656484 0.713417 0.381497 -0.587789 
0.656803 0.567995 -0.495974 0.69969 0.494405 -0.51575 0.650382 0.501802 -0.570262 
-0.444123 -0.198774 -0.873638 -0.510057 0.0149649 -0.860011 0.683118 0.591925 -0.427755 
0.696 0.642537 -0.320514 0.706041 0.663045 -0.24875 -0.572277 0.0930302 -0.814766 
0.725338 0.61358 -0.312097 -0.528868 0.254863 -0.809533 0.589021 0.705346 -0.394388 
0.551271 0.768121 -0.325716 -0.46447 0.411788 -0.784027 0.385809 0.729828 -0.564361 
0.293702 0.725006 -0.622981 -0.208074 0.740505 -0.639028 -0.0578176 0.719333 -0.692255 
-0.063846 -0.462313 -0.884415 -0.249467 -0.559862 -0.79014 0.285386 -0.289096 -0.913772 
-0.325761 -0.503253 -0.800385 0.684538 0.0888407 -0.723543 0.905609 0.109322 -0.409782 
-0.453735 -0.406212 -0.793169 0.793755 0.535677 -0.288103 0.688089 0.668582 -0.282013 
0.702506 0.682311 -0.202327 0.699151 0.672852 -0.241783 0.751567 0.544159 -0.372878 
-0.551652 -0.138395 -0.822513 0.652603 0.659706 -0.372689 0.70648 0.67661 -0.207568 
0.738158 0.647036 -0.190966 0.731718 0.665186 -0.148719 0.738102 0.673664 -0.0371854 
0.732457 0.653002 -0.192604 -0.60654 0.0817807 -0.790836 0.75473 0.622092 -0.208288 
0.683077 0.708817 -0.176025 0.263464 0.734307 -0.625603 0.380031 0.799294 -0.465517 
0.113992 0.82753 -0.549727 0.0160124 0.908101 -0.418446 0.0872129 0.920989 -0.379701 
0.257988 0.878745 -0.401559 0.343967 -0.22462 -0.911719 -0.245755 -0.524625 -0.815091 
0.240502 -0.331382 -0.912329 0.569277 -0.0581991 -0.820083 -0.449079 -0.447215 -0.773516 
0.842319 0.391794 -0.370129 0.936182 0.325981 -0.131525 0.811585 0.487748 -0.321608 
0.758272 0.643389 -0.105233 0.685093 0.725654 -0.0638196 -0.600054 -0.16339 -0.783096 
0.697705 0.681026 -0.222287 0.743474 0.664846 0.0722929 0.727521 0.685595 0.0259467 
0.696117 0.71453 0.0697723 0.661797 0.749573 0.0128403 0.615103 0.783354 -0.0894704 
-0.671074 0.34067 -0.658486 -0.492202 0.53671 -0.685332 0.512207 0.812323 -0.278883 
-0.161518 0.831545 -0.531455 0.0652838 0.927556 -0.367936 0.0505167 0.939394 -0.339099 
0.701142 0.122563 -0.702408 0.827367 0.223301 -0.515364 0.880019 0.282863 -0.381518 
0.866892 0.381595 -0.320755 0.876441 0.466251 -0.120256 0.805575 0.413032 -0.424797 
0.803857 0.547198 -0.233215 -0.567933 -0.367947 -0.736252 0.659509 0.73313 0.16604 
0.707737 0.679828 0.192204 -0.730449 -0.00395026 -0.682956 0.495456 0.653825 0.571871 
0.696973 0.697786 0.165297 0.723477 0.660675 0.200224 0.630111 0.768711 0.109744 
0.565225 0.824934 -0.00199243 -0.518378 0.70565 -0.483056 -0.360875 0.842231 -0.40052 
0.323737 0.941189 -0.0967316 0.332164 -0.272735 -0.90293 0.0576175 -0.364648 -0.929361 
0.171143 -0.267183 -0.948326 0.427558 -0.139361 -0.893181 -0.0652415 -0.539855 -0.839226 
-0.27931 -0.585027 -0.7614 0.779948 0.293667 -0.552667 -0.398904 -0.565424 -0.721922 
0.932204 0.342328 -0.117506 -0.470453 -0.521009 -0.712196 -0.525163 -0.500508 -0.688255 
0.894763 0.436028 -0.0963245 0.733183 0.663387 0.149537 0.687465 0.703217 0.181323 
0.679133 0.730362 0.0731373 0.675522 0.672705 0.301889 -0.783887 -0.159834 -0.599979 
0.635274 0.684019 0.35853 0.633033 0.706719 0.315938 -0.788871 0.187594 -0.585227 
0.65895 0.621158 0.424201 0.679288 0.653477 0.333969 0.553261 0.778474 0.296447 
-0.651646 0.569361 -0.501184 -0.607611 0.670625 -0.425524 0.541642 0.763312 0.352106 
-0.331162 0.825055 -0.457838 0.0748515 0.94476 -0.319102 0.254588 0.950286 -0.17928 
-0.142063 0.972035 -0.18699 0.113123 -0.385489 -0.915752 0.319799 -0.338253 -0.88505 
0.328278 -0.175002 -0.928228 0.549593 -0.0991434 -0.829529 0.564201 0.00810923 -0.825598 
0.299232 -0.0978265 -0.949152 0.624007 0.0487614 -0.779895 -0.377377 -0.652004 -0.65763 
0.849978 0.32724 -0.412858 0.796777 0.30819 -0.519775 0.859733 0.394131 -0.324837 
0.920255 0.354785 -0.165101 0.934435 0.347417 -0.0783032 0.848674 0.528883 -0.00591362 
0.833728 0.551373 0.0297533 0.712855 0.637884 0.291448 0.687073 0.663379 0.29641 
0.384116 0.700602 0.601341 0.569346 0.621146 0.538538 0.688508 0.464427 0.557014 
-0.777703 0.417932 -0.469585 0.711245 0.649551 0.268726 0.376265 0.774119 0.509082 
-0.446563 0.839669 -0.309092 -0.261659 0.947248 -0.185085 0.0121437 0.962674 -0.27039 
0 -0.970143 -0.242536 0 -1 0 -0.447214 -0.894427 0 
0.447214 -0.894427 0 0.274942 -0.404369 -0.872291 0 1 0 
0.523928 -0.233059 -0.819258 0.04942 -0.459592 -0.886754 -0.157327 -0.601935 -0.782894 
0.722568 -0.00748724 -0.691259 0.61961 0.0900501 -0.779727 0.779658 0.151842 -0.607517 
0.857667 0.428715 -0.28392 0.88405 0.419335 -0.20643 0.865411 0.432519 -0.252964 
0.860738 0.508245 0.0285801 0.888366 0.443372 0.119278 0.833494 0.509969 0.212648 
-0.574709 -0.489994 -0.65545 0.782936 0.544244 0.301347 -0.733037 -0.31257 -0.604117 
0.44862 0.5118 0.732667 0.264069 0.569931 0.778104 0.57638 0.583927 0.571678 
-0.883348 0.085425 -0.460867 0.571593 0.342638 0.745574 0.638493 0.530807 0.557289 
0.438215 0.531382 0.724983 0.315544 0.72618 0.610815 -0.615552 0.694085 -0.373286 
0.380332 0.923542 0.0491724 -0.318992 0.939862 -0.122077 0.2233 0.973993 0.0384144 
-0.0639624 -0.552052 -0.831353 0 -0.970143 0.242536 0 -0.970143 -0.242536 
0 -1 0 -0.447214 -0.894427 0 0.447214 -0.894427 0 
0 1 0 -0.0505275 -0.541795 -0.838991 0.633963 -0.172736 -0.753825 
0.520225 -0.172047 -0.83652 -0.291046 -0.684295 -0.668605 0.706852 -0.0149648 -0.707203 
0.837095 0.302843 -0.455586 0.889089 0.439434 0.128136 -0.531165 -0.552275 -0.642539 
-0.530185 -0.561454 -0.635353 0.865574 0.447712 0.224358 0.410038 0.583761 0.70078 
0.523367 0.587092 0.617583 -0.840902 -0.0662118 -0.537122 -0.864128 0.30168 -0.402831 
0.60198 0.782992 0.156663 -0.0671975 0.997272 0.0305345 0.113482 0.992103 0.0534153 
0.365773 -0.287197 -0.885284 0.145364 -0.741229 -0.655323 0.0505636 -0.463824 -0.884483 
0.543335 -0.41671 -0.728794 0.135564 -0.246079 -0.959723 0.16625 -0.466174 -0.868932 
0.3201 -0.332402 -0.887156 0 -0.970143 0.242536 0.445631 -0.28217 -0.849584 
-0.382326 -0.697436 -0.606144 0.884211 0.295675 -0.361589 0.872108 0.271215 -0.407272 
0.893302 0.365844 -0.261093 0.840426 0.540023 0.0453835 0.885869 0.444445 -0.133057 
-0.473076 -0.650526 -0.594151 0.838652 0.537294 0.0893223 -0.719717 -0.415626 -0.556114 
-0.710323 -0.368658 -0.59961 0.551892 0.542038 0.633727 -0.884827 -0.147908 -0.44182 
0.435675 0.514473 0.738583 0.583843 0.378502 0.718236 0.697046 0.567349 0.438455 
0.726816 0.57362 0.377754 -0.489743 0.856566 -0.162624 0.452908 0.820471 0.348858 
0.566445 0.80319 0.184461 -0.198924 0.9795 -0.0317789 0.300106 0.936603 0.180865 
0.666574 0.670308 0.32614 -0.120308 -0.584659 -0.802309 0.225417 -0.703304 -0.674204 
0.589924 -0.320772 -0.741009 0.0389604 -0.574613 -0.817498 0.645585 -0.0139567 -0.763561 
-0.134666 -0.605188 -0.78461 0.912611 0.262291 -0.313599 0.856921 0.170906 -0.486289 
0.752865 0.488136 0.441493 0.577488 0.516527 0.632224 0.445871 0.524587 0.725264 
0.458665 0.517163 0.722612 -0.928564 -0.0693191 -0.364642 -0.932334 0.189116 -0.308204 
0.661984 0.448984 0.600159 -0.84724 0.440101 -0.297482 -0.743195 0.613088 -0.267926 
-0.586046 0.782623 -0.209883 -0.487215 0.863297 -0.131685 0.686527 0.637748 0.349226 
0.0766961 0.985966 0.148288 0.232617 0.949191 0.211958 -0.0312416 -0.681121 -0.731504 
0.322685 -0.35404 -0.877798 0.0388085 -0.630554 -0.775174 0.589349 -0.0142324 -0.807753 
0.756076 0.134491 -0.640516 -0.341127 -0.737002 -0.58349 0.86004 0.277757 -0.427998 
0.87625 0.481189 0.0253597 0.901275 0.432986 -0.0150341 0.639203 0.599327 0.481899 
-0.85354 -0.286804 -0.434986 -0.787056 0.564474 -0.24882 0.658861 0.597991 0.456409 
-0.715261 0.658936 -0.23282 -0.538415 0.83521 -0.111954 -0.337611 0.940514 -0.0381103 
-0.0450653 0.98119 0.187711 0.150421 0.941657 0.301091 0.283632 -0.422032 -0.86107 
0.607392 -0.216916 -0.764214 -0.111585 -0.787852 -0.605672 0.525935 -0.146541 -0.837806 
0.355706 -0.471371 -0.807021 0.47331 -0.0303354 -0.880373 -0.256993 -0.740843 -0.62057 
0.639183 0.217371 -0.737696 0.68664 0.0492498 -0.725328 0.592326 0.170949 -0.787354 
0.669641 0.360182 -0.6495 0.709219 0.291028 -0.642114 -0.271913 -0.684939 -0.67596 
0.777766 0.356953 -0.517362 0.858122 0.331879 -0.391769 0.712853 0.595134 -0.371019 
0.806425 0.58809 0.0618864 0.838331 0.531779 0.120052 0.737807 0.581616 0.342583 
0.700331 0.597807 0.39008 0.443429 0.574949 0.687608 -0.739325 -0.487713 -0.464257 
0.641733 0.529858 0.554463 -0.450513 0.890235 -0.0672256 0.3756 -0.496414 -0.782623 
0.793171 0.276946 -0.542385 0.627583 0.298668 -0.718983 0.709571 0.38986 -0.586957 
0.717511 0.418146 -0.557074 0.746643 0.598014 -0.291383 0.842212 0.513622 -0.163925 
-0.427192 -0.773787 -0.467719 -0.520768 -0.7366 -0.431534 0.48911 0.625208 0.608183 
-0.599359 -0.594714 -0.535802 0.76126 0.39027 0.517855 -0.380954 0.922677 -0.0595046 
0.668202 -0.295073 -0.682963 -0.249598 -0.818218 -0.517899 0.84025 0.180239 -0.511365 
0.771192 0.416055 -0.481832 0.72037 0.640683 -0.265693 0.79167 0.604536 -0.088283 
-0.472136 -0.735356 -0.486147 0.466841 0.655315 0.59382 0.431151 0.568784 0.700424 
0.513331 0.623822 0.589354 -0.94418 -0.143989 -0.296297 -0.685427 0.716886 -0.127533 
0.420369 0.868212 0.263625 -0.384736 0.92174 -0.0487177 0.298766 0.944363 -0.137541 
-0.156239 0.983739 0.0885799 -0.0626009 0.997998 -0.00899601 0.314689 -0.60883 -0.728215 
0.0916331 -0.656952 -0.748343 0.750777 -0.2653 -0.604938 -0.340775 -0.849983 -0.401748 
-0.379311 -0.824272 -0.420357 0.860855 0.413008 -0.297241 0.772053 0.62009 0.139364 
0.685795 0.72017 0.10507 0.69048 0.650867 0.31561 -0.55107 -0.677026 -0.48781 
-0.709829 -0.581967 -0.396809 0.586286 0.604537 0.539262 -0.863924 0.475264 -0.166612 
0.687035 0.616186 0.385094 -0.3441 0.938913 0.00609811 0.308545 0.920721 0.2389 
0.1807 -0.692003 -0.698914 0.412012 -0.625532 -0.662537 -0.138893 -0.801641 -0.581447 
0.7917 -0.239985 -0.561799 0.882563 0.0497633 -0.467554 0.935102 0.213414 -0.282912 
0.651984 0.749862 -0.112358 -0.430147 -0.850309 -0.303229 -0.889503 -0.335538 -0.310161 
-0.930465 0.296272 -0.215539 0.485663 0.82856 0.278603 0.0340428 0.989351 0.141515 
0.595866 -0.456002 -0.661065 0.352874 -0.799533 -0.486033 0.28032 -0.585407 -0.760737 
0.7271 -0.333142 -0.600285 0.424452 -0.464338 -0.777323 0.154265 -0.737327 -0.657686 
0.673057 -0.384296 -0.631911 0.854361 -0.0786863 -0.513688 0.819741 0.570439 -0.0512213 
0.572868 0.789849 0.218997 0.564937 0.651744 0.50604 -0.875165 0.375069 -0.30563 
-0.828618 0.533619 -0.16924 -0.65796 0.750926 -0.0565514 0.519229 0.779975 0.349341 
0.144796 -0.768727 -0.622971 0.518271 -0.647628 -0.558545 -0.108774 -0.884971 -0.452762 
-0.161733 -0.716473 -0.678608 0.0378049 -0.8427 -0.537054 -0.313944 -0.850623 -0.421758 
0.880913 0.459735 0.112411 0.799442 0.59364 0.0921061 0.608784 0.786342 0.105117 
-0.511153 -0.79899 -0.316762 -0.560392 -0.75111 -0.348991 -0.856468 -0.432865 -0.281231 
0.719738 0.538688 0.437941 0.768772 0.456308 0.448077 -0.95944 0.0206305 -0.281157 
-0.888698 0.456594 -0.0416767 0.722025 0.554253 0.414105 -0.69098 0.722624 0.0190141 
0.0856626 -0.859064 -0.50465 0.674501 -0.400857 -0.619969 -0.209703 -0.807883 -0.550773 
0.853165 -0.0638554 -0.517718 0.651797 0.712061 0.261016 0.497653 0.831557 0.246687 
0.558742 0.686345 0.465552 0.521972 0.738028 0.427622 -0.682452 -0.655271 -0.323851 
0.574851 0.662915 0.479678 0.661082 0.623368 0.417592 0.336262 -0.673002 -0.658784 
0.601853 -0.433536 -0.670686 0.376538 -0.620249 -0.688121 0.695746 -0.310051 -0.647925 
0.924913 0.187632 -0.330652 0.888586 0.458118 0.0233067 0.613118 0.750909 0.245401 
-0.443624 -0.85389 -0.272157 0.634157 0.664914 0.394631 0.694827 0.595188 0.403692 
-0.764793 0.636233 0.10148 -0.689279 0.709886 0.144764 0.681137 0.584491 0.440934 
-0.536972 0.797517 0.275006 0.304082 0.913959 0.268724 -0.327992 0.925887 0.187498 
0.110404 -0.783497 -0.611508 0.55739 -0.43424 -0.707638 0.729757 -0.347267 -0.588949 
0.0631229 -0.811559 -0.580851 0.890638 0.0314372 -0.453626 0.928625 0.251148 -0.273095 
0.908951 0.363061 -0.204929 -0.926448 -0.161719 -0.339914 -0.5891 0.785509 0.189571 
0.65079 0.5731 0.498024 -0.429619 0.806564 0.406056 0.571641 0.667093 0.477717 