# vtk DataFile Version 4.2
vtk output
ASCII
DATASET POLYDATA
POINTS 3586 float
350.334 107.607 141.955 351.841 107.463 141.981 352.754 108.249 142.24 
351.968 109.63 142.318 349.069 110.857 142.243 361.562 95.9649 143.106 
362.879 95.7232 143.449 358.999 99.086 142.843 360.217 99.7405 143.124 
354.222 104.779 142.397 348.334 106.973 142.304 346.729 107.566 142.668 
348.398 108.995 142.171 355.322 108.039 143.175 354.631 108.677 143.063 
347.213 111.879 142.78 350.348 111.805 142.572 350.524 114.07 143.674 
360.817 94.3843 143.345 356.236 96.421 143.274 358.228 95.8782 143.057 
362.942 96.5449 143.406 363.26 97.0671 143.62 349.586 101.481 143.181 
360.911 100.681 143.538 347.486 102.376 143.536 354.255 102.337 142.628 
354.168 104.17 142.429 357.498 103.288 143.196 358.274 103.035 143.372 
356.706 107.322 143.703 355.698 109.28 143.902 345.272 112.316 143.368 
353.728 111.363 143.918 344.102 113.889 143.965 345.102 114.582 143.818 
347.503 114.568 143.606 351.686 113.68 143.986 344.034 115.828 144.461 
348.217 115.04 143.899 360.634 91.1823 144.663 364.107 91.137 145.013 
353.392 95.4601 144.235 351.296 99.2619 143.445 364.729 98.4663 144.849 
345.326 102.922 144.281 360.491 104.885 145.2 355.995 109.808 144.442 
355.571 110.853 145.072 342.795 114.217 144.603 343.224 117.543 145.54 
345.304 118.056 145.642 364.679 89.9897 145.541 365.764 91.8596 145.424 
367.079 93.2496 146.106 365.945 95.2093 145.349 358.121 108.544 145.685 
342.01 111.192 144.589 352.574 114.412 145.303 341.662 117.037 146.061 
349.328 116.655 145.504 343.28 118.508 146.271 361.655 88.3603 146.086 
357.599 89.424 146.235 368.074 89.2026 147.028 344.577 98.653 146.628 
366.676 98.3404 147.16 364.796 99.9657 145.663 364.937 100.594 146.313 
363.316 103.096 146.624 356.041 111.592 146.581 340.289 112.72 145.916 
353.055 114.553 146.103 340.06 117.173 147.303 346.98 118.619 146.584 
344.414 119.647 147.525 345.761 119.37 147.235 368.512 86.56 147.826 
361.195 86.9547 147.043 370.153 89.699 148.459 368.962 93.414 147.858 
348.312 95.6924 146.212 339.559 106.458 146.795 338.453 112.585 147.412 
340.616 118.399 147.522 346.737 119.323 147.513 366.053 84.9478 148.004 
369.494 89.0317 147.908 370.644 90.4804 149.087 365.695 100.957 148.131 
339.487 102.705 148.076 337.554 108.679 148.185 337.084 110.672 148.646 
339.836 118.495 148.312 349.735 118.238 148.144 340.92 120.176 149.312 
370.854 82.6484 149.61 359.269 85.0471 149.046 350.933 89.9104 148.876 
347.072 93.4972 148.459 336.632 105.524 149.603 336.697 113.699 149.727 
339.583 119.141 149.21 347.271 120.064 149.733 343.343 120.973 149.888 
373.683 79.605 151.315 372.866 79.7042 151.083 374.492 79.7156 151.589 
363.479 82.1881 150.121 371.414 84.0472 149.501 373.421 84.5763 150.695 
354.898 85.9489 150.204 373.601 85.7974 151.037 371.335 90.7592 150.112 
365.73 101.869 150.037 362.866 105.106 149.29 337.908 117.564 149.864 
377 76.0087 151.017 377 76.0087 151.017 377 76.0088 151.017 
377 76.0088 151.017 374.401 77.8458 152.236 377 76.0088 151.017 
375.392 78.6654 152.374 339.308 97.8041 151.053 367.741 98.9947 150.395 
336.087 101.128 151.966 334.877 110.494 152.017 338.941 120.362 151.682 
342.095 121.64 151.445 372.588 76.5802 152.668 377 76.0087 151.017 
378 76.0087 152.017 378 76.0087 152.017 378 76.0088 152.017 
378 76.0088 152.017 378 76.0088 152.017 370.914 78.1419 151.827 
366.301 78.9414 152.091 377.225 78.9373 153.688 344.941 91.957 151.331 
343.147 92.6991 152.09 334.696 107.35 152.305 335.577 116.06 152.849 
377.301 74.2499 154.418 377.232 74.169 154.452 377.227 74.2088 154.407 
377.359 74.1975 154.474 377.127 74.6213 154.356 375.279 75.8529 153.397 
378 76.0087 152.017 376.564 76.3351 153.665 369.594 76.5869 153.201 
357.408 81.6282 153.299 377.25 81.4309 153.773 348.943 87.4098 152.667 
373.004 90.2461 152.377 336.224 98.9479 153.198 336.625 99.18 152.572 
334.521 104.516 153.245 334.836 114.442 153.411 339.032 121.026 153.233 
343.88 122.129 153.78 376.955 74.1619 154.516 377.351 74.1118 154.586 
377.611 74.1887 154.721 377.846 74.4844 154.789 373.185 74.7456 153.983 
377.802 75.051 154.657 369.138 75.6357 154.188 378.245 79.6128 154.649 
378.044 81.0434 154.658 333.98 107.508 153.918 353.804 116.915 153.26 
339.871 121.869 154.646 379.677 72.3314 156.552 375.152 73.9077 154.579 
376.375 73.8493 154.677 377.443 73.8142 154.921 378.258 74.6789 155.064 
363.437 77.3854 154.816 378.838 78.5479 155.205 378.525 80.3753 155.11 
377.801 83.3181 155.037 334.838 99.9481 154.857 337.269 120.163 155.027 
345.242 122.111 154.681 341.051 122.47 155.715 379.166 70.9303 157.208 
380.309 71.2504 157.258 381.985 70.7509 158.017 382.286 70.8527 158.164 
374.15 71.6576 156.928 382.097 71.6491 157.888 370.366 73.4067 156.087 
381.437 72.9559 157.396 381.976 72.9108 157.742 381.007 74.0191 157.083 
333.174 111.805 156.684 355.902 115.422 155.806 348.592 121.108 155.384 
338.928 121.809 156.666 381.38 69.5194 158.562 382.552 69.8015 158.796 
380.054 78.0701 156.693 356.431 79.3207 157.134 346.468 85.2196 157.625 
338.43 92.3875 156.902 336.701 94.672 156.652 334.55 117.008 157.182 
352.237 119.167 156.252 341.283 122.933 157.78 382.834 69.4727 159.166 
376.631 69.7894 158.614 383.346 70.0667 159.267 373.614 70.5471 158.562 
383.645 71.1687 159.311 382.651 73.3279 158.343 381.407 77.8683 158.506 
347.986 83.9766 157.916 336.277 120.083 158.819 339.166 122.215 158.036 
382.703 68.2042 160.025 365.674 73.2609 159.245 383.896 73.3557 159.898 
342.31 123.646 159.833 382.95 67.7171 160.602 384.294 68.8325 160.913 
384.709 71.2394 160.75 384.441 72.3277 160.429 333.307 99.1304 159.468 
331.974 110.012 160.387 350.973 120.813 159.535 336.609 120.708 160.174 
341.375 123.962 161.547 384.99 66.3596 162.98 384.895 66.3417 162.941 
385.132 66.3639 163.144 384.925 66.5661 162.841 385.097 69.7895 161.537 
380.888 83.7863 160.792 370.414 99.5761 160.995 384.658 66.2709 162.944 
385.723 67.7859 162.968 342.934 85.4229 162.053 336.373 91.277 161.944 
334.31 94.4566 162.241 331.317 108.524 162.622 332.313 113.807 162.197 
337.6 122.045 161.941 353.549 119.21 161.731 337.749 122.122 161.798 
383.801 65.7719 163.236 385.665 65.796 164.111 381.021 66.2959 162.486 
369.237 70.2697 162.181 360.489 74.4985 162.51 337.58 89.1431 163.318 
363.335 108.684 162.745 333.925 117.274 163.362 350.766 121.404 162.922 
344.086 124.46 163.006 342.235 124.639 163.729 384.899 64.9068 164.566 
386.835 65.3915 165.318 383.658 64.9318 164.306 387.307 68.3215 164.838 
377.156 92.9435 162.944 332.205 114.105 163.829 337.41 121.831 162.419 
340.565 124.528 165.094 385.559 63.8861 165.856 387.412 64.35 166.384 
388.197 66.6462 166.459 387.162 72.6571 165.429 340.3 124.738 166.296 
343.249 125.041 165.176 341.676 125.194 166.263 386.347 62.7485 167.246 
386.766 63.0855 167.146 385.442 63.1495 166.748 382.945 63.8756 165.947 
355.743 76.284 165.026 380.463 89.7618 165.034 353.726 119.149 165.211 
338.003 122.78 167.295 347.886 123.571 165.811 346.003 124.321 164.923 
338.923 124.02 167.622 344.079 125.11 165.919 344.665 125.022 166.275 
387.428 62.8719 167.853 388.526 64.4799 167.905 389.018 66.0841 167.836 
330.307 104.89 167.398 364.921 108.56 165.956 331.319 112.781 166.899 
359.098 113.918 166.288 336.237 119.023 168.152 340.612 125.462 168.248 
342.165 125.637 167.741 387.887 62.1944 168.945 389.246 66.6373 168.225 
388.969 69.4621 168.083 351.689 77.85 167.771 338.947 86.0409 168.236 
382.453 88.3103 166.976 370.193 102.76 166.034 358.575 114.667 167.687 
335.6 116.195 169.817 335.754 116.01 170.266 357.983 115.275 168.652 
335.716 116.702 169.529 335.91 117.337 169.402 356.016 116.8 168.409 
337.591 122.487 168.979 340.034 125.304 168.902 341.563 125.848 168.657 
387.8 61.4962 169.732 389.161 63.855 169.194 373.085 103.632 169.446 
330.556 111.471 168.541 335.675 115.732 170.381 335.828 116.075 170.535 
335.263 116.229 169.451 335.934 116.769 170.232 336.254 118.484 169.656 
334.246 116.538 167.971 344.637 125.345 168.463 343.308 125.771 168.892 
386.174 60.935 170.111 383.12 61.6307 169.902 336.113 88.0726 169.508 
329.13 106.839 171.208 365.834 110.432 169.95 335.511 114.759 171.317 
335.636 114.993 171.299 331.618 113.352 169.765 357.321 115.886 170.725 
333.676 115.295 169.511 339.554 125.435 171.234 341.9 126.048 169.634 
389.847 60.1311 172.674 389.444 61.0874 171.595 389.599 62.4635 170.681 
369.973 108.059 170.922 335.523 114.532 171.647 335.388 114.399 171.642 
335.695 114.976 171.663 331.671 113.273 170.789 335.778 115.445 171.905 
357.847 115.659 171.668 332.838 114.351 170.544 334.015 114.917 170.459 
336.28 118.876 170.925 348.059 123.471 171.098 346.654 124.42 171.221 
340.544 125.91 171.454 353.328 75.3196 171.636 351.333 76.8838 171.203 
376.45 102.79 171.85 328.594 106.705 173.387 373.079 106.527 172.247 
375.229 105.048 172.883 335.258 113.664 172.476 330.015 111.035 172.066 
335.198 113.957 172.076 335.452 113.935 172.646 335.528 114.236 172.201 
330.849 112.224 171.999 335.715 115.902 172.548 332.939 114.071 171.49 
350.518 121.185 171.736 337.827 124.1 172.623 338.923 125.143 172.325 
339.289 125.434 172.679 342.936 126.037 170.792 388.515 59.3047 173.118 
390.678 61.7244 172.614 391.103 63.8988 172.436 391.609 65.1407 173.152 
384.598 94.1309 173.058 331.226 95.9448 172.655 377.866 101.97 172.808 
328.913 109.148 173.763 335.265 113.177 173.358 331.857 113.001 172.785 
332.372 113.368 172.589 353.429 118.237 172.884 354.362 117.581 173.342 
342.178 126.097 172.401 341.669 126.116 172.674 339.913 125.775 173.312 
389.133 58.863 174.157 391.067 59.3998 174.752 390.617 77.1809 173.974 
389.745 79.4192 173.21 389.052 86.2989 174.098 332.873 90.7996 173.809 
385.763 93.1166 173.645 382.796 96.8444 173.382 335.144 112.074 174.138 
335.078 111.947 174.238 335.166 111.763 174.32 335.069 112.538 173.751 
334.9 112.161 174.168 335.162 112.445 174.04 329.562 110.552 173.855 
[...]
POINT_DATA 3586
SCALARS scalars float
LOOKUP_TABLE default
1 1 1 1 1 1 1 1 1 
1 1 1 1 1 1 1 1 1 
1 1 1 1 1 1 1 1 1 
1 1 1 1 1 1 1 1 1 
1 1 1 1 1 1 1 1 1 
1 1 1 1 1 1 1 1 1 
1 1 1 1 1 1 1 1 1 
1 1 1 1 1 1 1 1 1 
1 1 1 1 1 1 1 1 1 
1 1 1 1 1 1 1 1 1 
1 1 1 1 1 1 1 1 1 
1 1 1 1 1 1 1 1 1 
1 1 1 1 1 1 1 1 1 
1 1 1 1 1 1 1 1 1 
1 1 1 1 1 1 1 1 1 
1 1 1 1 1 1 1 1 1 
1 1 1 1 1 1 1 1 1 
1 1 1 1 1 1 1 1 1 
1 1 1 1 1 1 1 1 1 
1 1 1 1 1 1 1 1 1 
1 1 1 1 1 1 1 1 1 
1 1 1 1 1 1 1 1 1 
1 1 1 1 1 1 1 1 1 
1 1 1 1 1 1 1 1 1 
1 1 1 1 1 1 1 1 1 
1 1 1 1 1 1 1 1 1 
1 1 1 1 1 1 1 1 1 
1 1 1 1 1 1 1 1 1 
1 1 1 1 1 1 1 1 1 
1 1 1 1 1 1 1 1 1 
1 1 1 1 1 1 1 1 1 
1 1 1 1 1 1 1 1 1 
1 1 1 1 1 1 1 1 1 
1 1 1 1 1 1 1 1 1 
1 1 1 1 1 1 1 1 1 
1 1 1 1 1 1 1 1 1 
1 1 1 1 1 1 1 1 1 
1 1 1 1 1 1 1 1 1 
1 1 1 1 1 1 1 1 1 
1 1 1 1 1 1 1 1 1 
1 1 1 1 1 1 1 1 1 
1 1 1 1 1 1 1 1 1 
1 1 1 1 1 1 1 1 1 
1 1 1 1 1 1 1 1 1 
1 1 1 1 1 1 1 1 1 
1 1 1 1 1 1 1 1 1 
1 1 1 1 1 1 1 1 1 
1 1 1 1 1 1 1 1 1 
1 1 1 1 1 1 1 1 1 
1 1 1 1 1 1 1 1 1 
1 1 1 1 1 1 1 1 1 
1 1 1 1 1 1 1 1 1 
1 1 1 1 1 1 1 1 1 
1 1 1 1 1 1 1 1 1 
1 1 1 1 1 1 1 1 1 
1 1 1 1 1 1 1 1 1 
1 1 1 1 1 1 1 1 1 
1 1 1 1 1 1 1 1 1 
1 1 1 1 1 1 1 1 1 
1 1 1 1 1 1 1 1 1 
1 1 1 1 1 1 1 1 1 
1 1 1 1 1 1 1 1 1 
1 1 1 1 1 1 1 1 1 
1 1 1 1 1 1 1 1 1 
1 1 1 1 1 1 1 1 1 
1 1 1 1 1 1 1 1 1 
1 1 1 1 1 1 1 1 1 
1 1 1 1 1 1 1 1 1 
1 1 1 1 1 1 1 1 1 
1 1 1 1 1 1 1 1 1 
1 1 1 1 1 1 1 1 1 
1 1 1 1 1 1 1 1 1 
1 1 1 1 1 1 1 1 1 
1 1 1 1 1 1 1 1 1 
1 1 1 1 1 1 1 1 1 
1 1 1 1 1 1 1 1 1 
1 1 1 1 1 1 1 1 1 
1 1 1 1 1 1 1 1 1 
1 1 1 1 1 1 1 1 1 
1 1 1 1 1 1 1 1 1 
1 1 1 1 1 1 1 1 1 
1 1 1 1 1 1 1 1 1 
1 1 1 1 1 1 1 1 1 
1 1 1 1 1 1 1 1 1 
1 1 1 1 1 1 1 1 1 
1 1 1 1 1 1 1 1 1 
1 1 1 1 1 1 1 1 1 
1 1 1 1 1 1 1 1 1 
1 1 1 1 1 1 1 1 1 
1 1 1 1 1 1 1 1 1 
1 1 1 1 1 1 1 1 1 
1 1 1 1 1 1 1 1 1 
1 1 1 1 1 1 1 1 1 
1 1 1 1 1 1 1 1 1 
1 1 1 1 1 1 1 1 1 
1 1 1 1 1 1 1 1 1 
1 1 1 1 1 1 1 1 1 
1 1 1 1 1 1 1 1 1 
1 1 1 1 1 1 1 1 1 
1 1 1 1 1 1 1 1 1 
1 1 1 1 1 1 1 1 1 
1 1 1 1 1 1 1 1 1 
1 1 1 1 1 1 1 1 1 
1 1 1 1 1 1 1 1 1 
1 1 1 1 1 1 1 1 1 
1 1 1 1 1 1 1 1 1 
1 1 1 1 1 1 1 1 1 
1 1 1 1 1 1 1 1 1 
1 1 1 1 1 1 1 1 1 
1 1 1 1 1 1 1 1 1 
1 1 1 1 1 1 1 1 1 
1 1 1 1 1 1 1 1 1 
1 1 1 1 1 1 1 1 1 
1 1 1 1 1 1 1 1 1 
1 1 1 1 1 1 1 1 1 
1 1 1 1 1 1 1 1 1 
1 1 1 1 1 1 1 1 1 
1 1 1 1 1 1 1 1 1 
1 1 1 1 1 1 1 1 1 
1 1 1 1 1 1 1 1 1 
1 1 1 1 1 1 1 1 1 
1 1 1 1 1 1 1 1 1 
1 1 1 1 1 1 1 1 1 
1 1 1 1 1 1 1 1 1 
1 1 1 1 1 1 1 1 1 
1 1 1 1 1 1 1 1 1 
1 1 1 1 1 1 1 1 1 
1 1 1 1 1 1 1 1 1 
1 1 1 1 1 1 1 1 1 
1 1 1 1 1 1 1 1 1 
1 1 1 1 1 1 1 1 1 
1 1 1 1 1 1 1 1 1 
1 1 1 1 1 1 1 1 1 
1 1 1 1 1 1 1 1 1 
1 1 1 1 1 1 1 1 1 
1 1 1 1 1 1 1 1 1 
1 1 1 1 1 1 1 1 1 
1 1 1 1 1 1 1 1 1 
1 1 1 1 1 1 1 1 1 
1 1 1 1 1 1 1 1 1 
1 1 1 1 1 1 1 1 1 
1 1 1 1 1 1 1 1 1 
1 1 1 1 1 1 1 1 1 
1 1 1 1 1 1 1 1 1 
1 1 1 1 1 1 1 1 1 
1 1 1 1 1 1 1 1 1 
1 1 1 1 1 1 1 1 1 
1 1 1 1 1 1 1 1 1 
1 1 1 1 1 1 1 1 1 
1 1 1 1 1 1 1 1 1 
1 1 1 1 1 1 1 1 1 
1 1 1 1 1 1 1 1 1 
1 1 1 1 1 1 1 1 1 
1 1 1 1 1 1 1 1 1 
1 1 1 1 1 1 1 1 1 
1 1 1 1 1 1 1 1 1 
1 1 1 1 1 1 1 1 1 
1 1 1 1 1 1 1 1 1 
1 1 1 1 1 1 1 1 1 
1 1 1 1 1 1 1 1 1 
1 1 1 1 1 1 1 1 1 
1 1 1 1 1 1 1 1 1 
1 1 1 1 1 1 1 1 1 
1 1 1 1 1 1 1 1 1 
1 1 1 1 1 1 1 1 1 
1 1 1 1 1 1 1 1 1 
1 1 1 1 1 1 1 1 1 
1 1 1 1 1 1 1 1 1 
1 1 1 1 1 1 1 1 1 
1 1 1 1 1 1 1 1 1 
1 1 1 1 1 1 1 1 1 
1 1 1 1 1 1 1 1 1 
1 1 1 1 1 1 1 1 1 
1 1 1 1 1 1 1 1 1 
1 1 1 1 1 1 1 1 1 
1 1 1 1 1 1 1 1 1 
1 1 1 1 1 1 1 1 1 
1 1 1 1 1 1 1 1 1 
1 1 1 1 1 1 1 1 1 
1 1 1 1 1 1 1 1 1 
1 1 1 1 1 1 1 1 1 
1 1 1 1 1 1 1 1 1 
1 1 1 1 1 1 1 1 1 
1 1 1 1 1 1 1 1 1 
1 1 1 1 1 1 1 1 1 
1 1 1 1 1 1 1 1 1 
1 1 1 1 1 1 1 1 1 
1 1 1 1 1 1 1 1 1 
1 1 1 1 1 1 1 1 1 
1 1 1 1 1 1 1 1 1 
1 1 1 1 1 1 1 1 1 
1 1 1 1 1 1 1 1 1 
1 1 1 1 1 1 1 1 1 
1 1 1 1 1 1 1 1 1 
1 1 1 1 1 1 1 1 1 
1 1 1 1 1 1 1 1 1 
1 1 1 1 1 1 1 1 1 
1 1 1 1 1 1 1 1 1 
1 1 1 1 1 1 1 1 1 
1 1 1 1 1 1 1 1 1 
1 1 1 1 1 1 1 1 1 
1 1 1 1 1 1 1 1 1 
1 1 1 1 1 1 1 1 1 
1 1 1 1 1 1 1 1 1 
1 1 1 1 1 1 1 1 1 
1 1 1 1 1 1 1 1 1 
1 1 1 1 1 1 1 1 1 
1 1 1 1 1 1 1 1 1 
1 1 1 1 1 1 1 1 1 
1 1 1 1 1 1 1 1 1 
1 1 1 1 1 1 1 1 1 
1 1 1 1 1 1 1 1 1 
1 1 1 1 1 1 1 1 1 
1 1 1 1 1 1 1 1 1 
1 1 1 1 1 1 1 1 1 
1 1 1 1 1 1 1 1 1 
1 1 1 1 1 1 1 1 1 
1 1 1 1 1 1 1 1 1 
1 1 1 1 1 1 1 1 1 
1 1 1 1 1 1 1 1 1 
1 1 1 1 1 1 1 1 1 
1 1 1 1 1 1 1 1 1 
1 1 1 1 1 1 1 1 1 
1 1 1 1 1 1 1 1 1 
1 1 1 1 1 1 1 1 1 
1 1 1 1 1 1 1 1 1 
1 1 1 1 1 1 1 1 1 
1 1 1 1 1 1 1 1 1 
1 1 1 1 1 1 1 1 1 
1 1 1 1 1 1 1 1 1 
1 1 1 1 1 1 1 1 1 
1 1 1 1 1 1 1 1 1 
1 1 1 1 1 1 1 1 1 
1 1 1 1 1 1 1 1 1 
1 1 1 1 1 1 1 1 1 
1 1 1 1 1 1 1 1 1 
1 1 1 1 1 1 1 1 1 
1 1 1 1 1 1 1 1 1 
1 1 1 1 1 1 1 1 1 
1 1 1 1 1 1 1 1 1 
1 1 1 1 1 1 1 1 1 
1 1 1 1 1 1 1 1 1 
1 1 1 1 1 1 1 1 1 
1 1 1 1 1 1 1 1 1 
1 1 1 1 1 1 1 1 1 
1 1 1 1 1 1 1 1 1 
1 1 1 1 1 1 1 1 1 
1 1 1 1 1 1 1 1 1 
1 1 1 1 1 1 1 1 1 
1 1 1 1 1 1 1 1 1 
1 1 1 1 1 1 1 1 1 
1 1 1 1 1 1 1 1 1 
1 1 1 1 1 1 1 1 1 
1 1 1 1 1 1 1 1 1 
1 1 1 1 1 1 1 1 1 
1 1 1 1 1 1 1 1 1 
1 1 1 1 1 1 1 1 1 
1 1 1 1 1 1 1 1 1 
1 1 1 1 1 1 1 1 1 
1 1 1 1 1 1 1 1 1 
1 1 1 1 1 1 1 1 1 
1 1 1 1 1 1 1 1 1 
1 1 1 1 1 1 1 1 1 
1 1 1 1 1 1 1 1 1 
1 1 1 1 1 1 1 1 1 
1 1 1 1 1 1 1 1 1 
1 1 1 1 1 1 1 1 1 
1 1 1 1 1 1 1 1 1 
1 1 1 1 1 1 1 1 1 
1 1 1 1 1 1 1 1 1 
1 1 1 1 1 1 1 1 1 
1 1 1 1 1 1 1 1 1 
1 1 1 1 1 1 1 1 1 
1 1 1 1 1 1 1 1 1 
1 1 1 1 1 1 1 1 1 
1 1 1 1 1 1 1 1 1 
1 1 1 1 1 1 1 1 1 
1 1 1 1 1 1 1 1 1 
1 1 1 1 1 1 1 1 1 
1 1 1 1 1 1 1 1 1 
1 1 1 1 1 1 1 1 1 
1 1 1 1 1 1 1 1 1 
1 1 1 1 1 1 1 1 1 
1 1 1 1 1 1 1 1 1 
1 1 1 1 1 1 1 1 1 
1 1 1 1 1 1 1 1 1 
1 1 1 1 1 1 1 1 1 
1 1 1 1 1 1 1 1 1 
1 1 1 1 1 1 1 1 1 
1 1 1 1 1 1 1 1 1 
1 1 1 1 1 1 1 1 1 
1 1 1 1 1 1 1 1 1 
1 1 1 1 1 1 1 1 1 
1 1 1 1 1 1 1 1 1 
1 1 1 1 1 1 1 1 1 
1 1 1 1 1 1 1 1 1 
1 1 1 1 1 1 1 1 1 
1 1 1 1 1 1 1 1 1 
1 1 1 1 1 1 1 1 1 
1 1 1 1 1 1 1 1 1 
1 1 1 1 1 1 1 1 1 
1 1 1 1 1 1 1 1 1 
1 1 1 1 1 1 1 1 1 
1 1 1 1 1 1 1 1 1 
1 1 1 1 1 1 1 1 1 
1 1 1 1 1 1 1 1 1 
1 1 1 1 1 1 1 1 1 
1 1 1 1 1 1 1 1 1 
1 1 1 1 1 1 1 1 1 
1 1 1 1 1 1 1 1 1 
1 1 1 1 1 1 1 1 1 
1 1 1 1 1 1 1 1 1 
1 1 1 1 1 1 1 1 1 
1 1 1 1 1 1 1 1 1 
1 1 1 1 1 1 1 1 1 
1 1 1 1 1 1 1 1 1 
1 1 1 1 1 1 1 1 1 
1 1 1 1 1 1 1 1 1 
1 1 1 1 1 1 1 1 1 
1 1 1 1 1 1 1 1 1 
1 1 1 1 1 1 1 1 1 
1 1 1 1 1 1 1 1 1 
1 1 1 1 1 1 1 1 1 
1 1 1 1 1 1 1 1 1 
1 1 1 1 1 1 1 1 1 
1 1 1 1 1 1 1 1 1 
1 1 1 1 1 1 1 1 1 
1 1 1 1 1 1 1 1 1 
1 1 1 1 1 1 1 1 1 
1 1 1 1 1 1 1 1 1 
1 1 1 1 1 1 1 1 1 
1 1 1 1 1 1 1 1 1 
1 1 1 1 1 1 1 1 1 
1 1 1 1 1 1 1 1 1 
1 1 1 1 1 1 1 1 1 
1 1 1 1 1 1 1 1 1 
1 1 1 1 1 1 1 1 1 
1 1 1 1 1 1 1 1 1 
1 1 1 1 1 1 1 1 1 
1 1 1 1 1 1 1 1 1 
1 1 1 1 1 1 1 1 1 
1 1 1 1 1 1 1 1 1 
1 1 1 1 1 1 1 1 1 
1 1 1 1 1 1 1 1 1 
1 1 1 1 1 1 1 1 1 
1 1 1 1 1 1 1 1 1 
1 1 1 1 1 1 1 1 1 
1 1 1 1 1 1 1 1 1 
1 1 1 1 1 1 1 1 1 
1 1 1 1 1 1 1 1 1 
1 1 1 1 1 1 1 1 1 
1 1 1 1 1 1 1 1 1 
1 1 1 1 1 1 1 1 1 
1 1 1 1 1 1 1 1 1 
1 1 1 1 1 1 1 1 1 
1 1 1 1 1 1 1 1 1 
1 1 1 1 1 1 1 1 1 
1 1 1 1 1 1 1 1 1 
1 1 1 1 1 1 1 1 1 
1 1 1 1 1 1 1 1 1 
1 1 1 1 1 1 1 1 1 
1 1 1 1 1 1 1 1 1 
1 1 1 1 1 1 1 1 1 
1 1 1 1 1 1 1 1 1 
1 1 1 1 1 1 1 1 1 
1 1 1 1 1 1 1 1 1 
1 1 1 1 1 1 1 1 1 
1 1 1 1 1 1 1 1 1 
1 1 1 1 1 1 1 1 1 
1 1 1 1 1 1 1 1 1 
1 1 1 1 1 1 1 1 1 
1 1 1 1 1 1 1 1 1 
1 1 1 1 1 1 1 1 1 
1 1 1 1 1 1 1 1 1 
1 1 1 1 1 1 1 1 1 
1 1 1 1 1 1 1 1 1 
1 1 1 1 1 1 1 1 1 
1 1 1 1 1 1 1 1 1 
1 1 1 1 1 1 1 1 1 
1 1 1 1 1 1 1 1 1 
1 1 1 1 1 1 1 1 1 
1 1 1 1 1 1 1 1 1 
1 1 1 1 1 1 1 1 1 
1 1 1 1 1 1 1 1 1 
1 1 1 1 1 1 1 1 1 
1 1 1 1 1 1 1 1 1 
1 1 1 1 1 1 1 1 1 
1 1 1 1 1 1 1 1 1 
1 1 1 1 1 1 1 1 1 
1 1 1 1 1 1 1 1 1 
1 1 1 1 1 1 1 1 1 
1 1 1 1 1 1 1 1 1 
1 1 1 1 1 1 1 1 1 
1 1 1 1 1 1 1 1 1 
1 1 1 1 1 1 1 1 1 
1 1 1 1 1 1 1 1 1 
1 1 1 1 1 1 1 1 1 
1 1 1 1 1 1 1 1 1 
1 1 1 1 
NORMALS Normals float
-0.0349481 -0.0416918 -0.998519 0.103144 -0.0649239 -0.992545 0.298671 0.133532 -0.944968 
0.231966 0.231519 -0.94477 -0.0316126 0.183985 -0.982421 0.16788 -0.11871 -0.978634 
0.400978 -0.38672 -0.83046 0.0357572 0.0560298 -0.997789 0.18606 0.210137 -0.959804 
0.220902 -0.0222556 -0.975042 -0.171969 -0.188452 -0.966909 -0.336592 -0.0680938 -0.939185 
-0.151177 0.0431908 -0.987563 0.473258 0.164283 -0.86547 0.367297 0.390382 -0.844213 
-0.136681 0.226092 -0.964469 0.178294 0.363979 -0.914183 0.293713 0.561514 -0.773586 
0.155936 -0.271813 -0.949632 -0.151981 -0.194459 -0.969065 -0.114547 -0.264162 -0.957652 
0.335523 0.0670048 -0.939646 0.419516 0.176671 -0.89039 -0.181365 -0.248027 -0.951625 
0.316953 0.273669 -0.9081 -0.331712 -0.326483 -0.885086 0.0486351 -0.0839651 -0.995281 
0.158707 -0.0351712 -0.986699 0.299826 0.128052 -0.945361 0.261133 0.214301 -0.941214 
0.49147 0.231847 -0.839466 0.506152 0.413881 -0.756645 -0.277109 0.144985 -0.949837 
0.503827 0.450142 -0.737245 -0.28025 0.136716 -0.950141 -0.12039 0.400859 -0.908195 
-0.0639144 0.277899 -0.958482 0.479022 0.492081 -0.726907 -0.322175 0.377216 -0.868281 
0.0479669 0.513152 -0.856956 -0.0923731 -0.451138 -0.887661 0.201966 -0.269445 -0.941599 
-0.284724 -0.436645 -0.853389 -0.240053 -0.285108 -0.927948 0.596377 0.272128 -0.755169 
-0.436538 -0.325794 -0.838626 0.553266 0.455777 -0.697254 0.626798 0.4384 -0.64415 
0.46869 0.540504 -0.698703 -0.452955 0.233978 -0.860282 -0.309801 0.429544 -0.848243 
0.0469398 0.648486 -0.759778 0.233486 -0.386596 -0.892204 0.458616 -0.144054 -0.876881 
0.62409 -0.0787744 -0.777372 0.564148 -0.0663009 -0.823007 0.661672 0.515687 -0.544295 
-0.469094 0.000328063 -0.883148 0.51814 0.62733 -0.581368 -0.469004 0.391192 -0.791836 
0.285457 0.689176 -0.665996 -0.283716 0.639613 -0.714424 -0.0416626 -0.472243 -0.880483 
-0.252175 -0.518317 -0.817163 0.404022 -0.173033 -0.898235 -0.471249 -0.438334 -0.765368 
0.80321 0.365591 -0.470315 0.661222 0.35543 -0.660648 0.705395 0.514123 -0.487951 
0.697267 0.575524 -0.427306 0.68729 0.618468 -0.38096 -0.569176 0.163527 -0.80579 
0.596839 0.700367 -0.391495 -0.658163 0.317805 -0.68251 0.26553 0.759021 -0.594458 
0.0580677 0.877328 -0.476365 0.126554 0.829612 -0.543808 0.449202 -0.157444 -0.879448 
-0.210553 -0.547427 -0.809933 0.646759 0.0748408 -0.759014 0.710217 0.0897781 -0.698235 
-0.451685 -0.432509 -0.780331 -0.592295 -0.105055 -0.798843 -0.681109 0.0999573 -0.725327 
-0.47625 0.536824 -0.696424 0.223107 0.854766 -0.468614 0.0139882 -0.470462 -0.882309 
0.519648 0.108291 -0.84749 0.611627 0.21281 -0.761987 0.79186 0.480012 -0.377552 
-0.56042 -0.357919 -0.746876 -0.71325 -0.0341934 -0.700075 -0.744133 0.0338213 -0.667175 
-0.665484 0.478256 -0.573064 0.511893 0.777146 -0.366073 -0.344849 0.774024 -0.531005 
0.125602 -0.407792 -0.904395 -0.254126 -0.581969 -0.772484 -0.394427 -0.565623 -0.724222 
-0.470452 -0.521009 -0.712197 -0.77544 -0.191453 -0.601697 -0.801456 0.195437 -0.56522 
-0.653843 0.586673 -0.477811 0.334299 0.893717 -0.29919 0.0543559 0.904054 -0.423948 
0.19604 -0.325319 -0.92506 0.158916 -0.285706 -0.945049 0.453032 -0.11188 -0.884446 
-0.19851 -0.648228 -0.735115 0.40781 -0.139965 -0.902275 0.611339 0.0733197 -0.787965 
-0.377377 -0.652003 -0.657631 0.689483 0.153121 -0.707931 0.813156 0.238273 -0.53104 
0.764226 0.573624 -0.294811 0.706006 0.641121 -0.300865 -0.772417 0.446078 -0.452091 
0 -0.970143 -0.242536 0 -1 0 -0.447214 -0.894427 0 
0.447214 -0.894427 0 0.339708 -0.398254 -0.852051 0 1 0 
0.553622 -0.226865 -0.801271 -0.577243 -0.490039 -0.653186 0.823913 0.452699 -0.340926 
-0.733037 -0.31257 -0.604117 -0.889384 0.0724947 -0.451376 -0.616883 0.693147 -0.372831 
-0.266864 0.902408 -0.338294 0.0293882 -0.50477 -0.862754 0 -0.970143 0.242536 
0 -0.970143 -0.242536 0 -1 0 -0.447214 -0.894427 0 
0.447214 -0.894427 0 0 1 0 -0.0351455 -0.585473 -0.80993 
-0.166722 -0.56768 -0.80619 0.600479 -0.0724923 -0.796348 -0.54334 -0.552368 -0.632195 
-0.513446 -0.573393 -0.63843 -0.861608 -0.0943983 -0.498719 -0.844741 0.368698 -0.38791 
0.484154 -0.258935 -0.835792 0.164555 -0.765091 -0.622541 0.0455058 -0.465082 -0.884097 
0.459516 -0.54992 -0.697447 0.156759 -0.220862 -0.962625 0.182785 -0.401523 -0.897424 
0 -0.970143 0.242536 0.482712 -0.0798232 -0.872134 -0.039028 -0.680054 -0.732122 
-0.344989 -0.71586 -0.607065 0.722236 0.0969884 -0.684813 -0.50808 -0.626912 -0.590624 
0.7933 0.398626 -0.460187 -0.719131 -0.423238 -0.551108 -0.710323 -0.368658 -0.59961 
-0.891602 -0.148948 -0.427622 -0.901358 0.219318 -0.373436 -0.603505 0.747393 -0.277821 
0.127868 0.948197 -0.290813 -0.0813337 -0.637924 -0.765793 0.253634 -0.7795 -0.572756 
0.647177 -0.450109 -0.615275 0.628787 -0.284947 -0.723487 -0.0913805 -0.625019 -0.775242 
0.580514 -0.0358916 -0.813459 -0.120952 -0.70608 -0.697726 0.679801 0.123922 -0.722852 
0.77611 0.175899 -0.605568 -0.93053 -0.091004 -0.354727 0.609994 0.749106 -0.258356 
-0.350386 0.90831 -0.228479 0.393748 -0.332341 -0.857037 -0.036299 -0.648127 -0.760667 
0.0598752 -0.624859 -0.778438 0.383084 -0.544681 -0.746036 0.653249 -0.0283748 -0.756611 
-0.351415 -0.723625 -0.594032 0.771683 0.0584326 -0.633318 0.765513 0.162208 -0.622639 
0.781633 0.211405 -0.58682 -0.844674 -0.299518 -0.443638 -0.702793 0.662403 -0.25943 
0.286083 0.929654 -0.232164 -0.222741 0.948894 -0.223577 0.0869435 -0.618413 -0.781029 
0.346572 -0.320801 -0.881462 0.311627 -0.307002 -0.899243 0.604347 -0.212074 -0.767978 
0.0020096 -0.775719 -0.631076 0.47263 -0.104695 -0.87502 -0.221007 -0.728839 -0.648035 
0.509342 -0.0288862 -0.860079 0.418439 -0.0526571 -0.906717 0.58762 -0.0662867 -0.806417 
-0.951515 0.11051 -0.287065 0.75812 0.633646 -0.154099 0.417435 0.862933 -0.284771 
-0.477733 0.861412 -0.172454 0.241386 -0.603031 -0.76032 0.417345 -0.468132 -0.778894 
0.758424 0.136403 -0.637329 -0.402444 -0.774237 -0.488463 -0.582203 -0.638427 -0.503439 
-0.608059 -0.61966 -0.496271 -0.743762 -0.492619 -0.451824 -0.882761 0.417026 -0.216384 
0.605618 0.767153 -0.211432 -0.0849672 0.967043 -0.240019 0.202349 -0.575343 -0.792487 
-0.180643 -0.80892 -0.559479 0.664065 -0.302023 -0.683959 -0.153004 -0.836178 -0.526684 
0.696379 -0.0732556 -0.713926 0.687471 0.084122 -0.721323 0.828888 0.219044 -0.514746 
-0.474475 -0.773968 -0.419341 -0.727291 0.671351 -0.1426 -0.510918 0.841829 -0.174029 
0.270436 -0.603471 -0.750125 -0.382775 -0.807174 -0.449393 0.784343 0.153435 -0.601052 
-0.044914 0.928594 -0.368369 0.352652 -0.638953 -0.683649 0.670649 -0.344593 -0.656876 
0.817186 -0.0579703 -0.573452 0.872684 0.0947466 -0.479005 -0.922621 -0.227939 -0.311151 
-0.961611 0.0471507 -0.270336 0.47303 0.868426 -0.14859 -0.715862 0.686379 -0.128163 
-0.251627 0.933909 -0.253964 0.478445 -0.696281 -0.535055 0.289876 -0.640467 -0.711178 
0.584186 -0.572005 -0.575793 0.396486 -0.39169 -0.830288 0.876698 -0.0397294 -0.479398 
0.843225 0.278008 -0.460091 0.727469 0.599868 -0.333087 0.190055 -0.742894 -0.641863 
0.731384 -0.250917 -0.634128 -0.557499 -0.709775 -0.430598 -0.76073 -0.538538 -0.362308 
-0.849706 -0.441884 -0.287642 -0.972215 0.0947177 -0.21407 -0.94328 0.287862 -0.165404 
-0.553515 0.832067 0.0358608 0.673421 0.732931 -0.0965205 -0.456761 0.879624 -0.132786 
-0.0110851 -0.705484 -0.708639 0.472322 -0.531046 -0.703493 -0.0786599 -0.769158 -0.634199 
-0.338908 -0.852055 -0.398929 -0.460188 -0.826205 -0.324979 -0.646302 -0.682446 -0.341411 
0.680731 0.675729 -0.282835 -0.815797 0.576592 0.0449174 0.52093 0.848109 -0.096662 
0.171359 0.940168 -0.294482 -0.205787 0.950724 -0.231894 0.280785 -0.651921 -0.704386 
0.535046 -0.471345 -0.701114 0.121001 -0.763976 -0.633798 0.773612 -0.170803 -0.610205 
0.753968 0.548053 -0.362174 -0.923407 0.371431 -0.0967445 -0.697768 0.713788 0.0602186 
-0.436211 0.874487 -0.212114 0.12704 -0.740353 -0.660105 0.641909 -0.419511 -0.641844 
0.845266 -0.0454396 -0.53241 0.858066 0.142876 -0.493264 -0.482365 0.833655 -0.268966 
0.0839598 0.956571 -0.279147 -0.0277124 0.979177 -0.201108 0.153904 -0.774414 -0.613675 
0.326536 -0.6515 -0.684779 -0.033674 -0.742935 -0.668516 -0.203062 -0.839317 -0.504295 
-0.4593 -0.855184 -0.240215 0.835019 0.402066 -0.375613 0.668425 0.7437 0.0109163 
-0.783932 0.599324 -0.162053 0.512169 0.85481 -0.0835667 0.336382 0.926978 -0.16601 
-0.687043 0.695802 -0.209359 0.187364 0.964107 -0.188128 0.30424 0.9365 -0.174372 
0.522666 -0.63032 -0.574035 0.829887 -0.314627 -0.460758 0.866938 -0.206888 -0.453449 
-0.968552 -0.0758416 -0.236971 0.673388 0.634414 -0.379563 -0.920764 0.372093 -0.117219 
0.646486 0.730114 -0.221335 -0.930486 0.360129 0.067099 -0.391542 0.884609 -0.253302 
-0.0863447 0.95545 -0.28224 0.475016 -0.63892 -0.605096 0.90524 -0.0775481 -0.417764 
0.878137 0.0458708 -0.476204 -0.473117 -0.838552 -0.270167 -0.549111 -0.804228 -0.227364 
0.731533 0.351442 -0.584251 0.594249 0.602584 -0.532692 0.539565 0.812442 -0.220926 
-0.736921 0.487815 0.467956 -0.924093 0.222373 0.31081 0.617478 0.784897 -0.0515503 
-0.711076 0.397036 0.580287 -0.871475 0.393562 0.292643 0.662072 0.749195 -0.0191705 
-0.864836 0.482351 -0.139274 -0.451587 0.879131 -0.152306 -0.157303 0.969747 -0.186672 
0.393015 -0.699497 -0.596862 0.76699 -0.341513 -0.543227 0.586199 0.471389 -0.65891 
-0.926594 0.354913 -0.124339 -0.739923 0.526896 0.418203 -0.986182 0.137936 0.0917505 
-0.548766 0.57327 0.608455 -0.956231 0.229171 0.18194 -0.980588 0.195411 0.0161778 
-0.65016 0.673889 0.350949 0.311106 0.949383 -0.043414 0.209751 0.969188 -0.129146 
-0.00773466 -0.870313 -0.492439 -0.211789 -0.841471 -0.497063 -0.729297 -0.638622 -0.245536 
-0.968323 -0.00132239 -0.249696 0.586004 0.714637 -0.381961 -0.628507 0.597293 0.498217 
-0.84936 0.424113 0.314191 -0.777694 0.621947 0.0915043 0.680175 0.719006 -0.142804 
-0.484161 0.777345 0.401652 -0.586319 0.794139 -0.159917 -0.0666776 0.99692 -0.0412769 
0.481775 -0.638258 -0.600433 0.543149 -0.560387 -0.625264 0.732481 -0.341157 -0.589138 
0.570111 0.624153 -0.534234 -0.751236 0.558273 0.352102 -0.337131 0.780361 0.526668 
-0.966536 0.255864 0.0184947 -0.717555 0.688404 0.105901 -0.988318 0.147682 -0.0376578 
0.591972 0.787904 -0.169637 -0.546589 0.784712 0.292347 -0.217966 0.881233 0.419427 
-0.981428 0.18046 -0.0650655 0.600068 0.785162 0.153095 0.497172 0.865209 0.06507 
-0.254106 0.964667 -0.0696206 -0.435382 -0.819618 -0.372384 -0.593174 -0.77295 -0.225152 
0.652365 0.483059 -0.584016 -0.972731 -0.12475 -0.195529 0.566595 0.665419 -0.485992 
0.628415 0.621452 -0.467858 -0.435914 0.737812 0.515376 -0.822198 0.5689 -0.0185043 
-0.353712 0.738062 0.57459 -0.903415 0.404823 0.14128 -0.927775 0.358504 0.103481 
-0.729055 0.682951 0.0453445 -0.984147 0.0885664 -0.153657 -0.349367 0.845084 0.404693 
0.64473 0.738545 0.197168 -0.728628 0.679291 -0.0875518 -0.58787 0.804706 -0.0828039 
-0.493277 0.869853 0.00574167 0.192843 0.981131 -0.0138852 0.127686 -0.844997 -0.519305 
0.746389 -0.336155 -0.574372 0.808441 -0.0880186 -0.581958 0.849023 -0.0856799 -0.521362 
0.672261 0.488564 -0.55621 -0.930353 -0.295394 -0.217221 0.621764 0.520709 -0.58504 
-0.928728 0.32182 -0.184107 -0.977475 0.210674 -0.0125878 -0.482544 0.858151 0.175293 
-0.521975 0.818444 0.240193 0.594172 0.803093 0.044724 0.532979 0.844404 -0.0539873 
0.12378 0.992167 -0.0168418 -0.126201 0.992001 0.0025559 -0.433519 0.900915 0.0203249 
0.0832248 -0.885061 -0.457975 0.504077 -0.628781 -0.592065 0.820085 0.250571 -0.514465 
0.81671 0.180801 -0.547993 0.786836 0.228621 -0.573254 -0.893741 -0.362745 -0.2639 
0.689017 0.489138 -0.534789 0.671626 0.557968 -0.487433 -0.518521 0.449013 0.727684 
0.401293 0.576782 0.711538 -0.261699 0.46112 0.847869 -0.46593 0.615176 0.635978 
0.350216 0.756463 0.55237 -0.99549 0.0408567 0.0856136 -0.80099 0.576914 -0.159954 
0.490864 0.855595 -0.164345 -0.730046 0.680126 -0.0668005 -0.631492 0.76633 0.118133 