# vtk DataFile Version 4.2
vtk output
ASCII
DATASET POLYDATA
POINTS 255 float
230.63 135.025 222.215 230.612 134.999 222.231 230.595 135.077 222.219 
230.639 134.977 222.265 230.535 135.248 222.268 230.441 135.55 222.336 
230.489 135.67 222.362 230.464 135.948 222.467 230.61 134.966 222.324 
230.65 134.974 222.426 230.053 136.161 222.582 229.943 137.078 222.574 
229.451 137.666 222.678 229.897 137.719 222.612 229.393 138.77 222.637 
230.048 137.997 222.751 229.309 139.345 222.673 229.44 139.58 222.729 
215.912 153.052 223.578 215.917 153.059 223.617 215.938 153.078 223.62 
215.983 153.027 223.653 215.942 153.053 223.592 230.611 134.931 222.456 
230.576 134.934 222.592 230.626 134.933 222.64 228.557 139.302 223.095 
228.799 140.269 222.827 228.52 140.995 222.927 229.428 140.184 222.912 
228.72 141.403 222.975 226.852 143.387 223.301 228.653 142.225 223.167 
229.843 140.98 223.575 225.239 144.933 223.711 225.104 145.882 223.616 
227.071 145.133 223.38 227.567 144.954 223.495 215.945 153.096 223.704 
216.054 153.062 223.676 216.05 153.157 223.795 216.566 152.903 223.918 
216.195 153.132 223.78 216.457 153.118 223.877 228.488 144.226 223.758 
223.398 147.13 224.191 221.591 149.121 224.173 219.78 150.503 224.263 
219.242 150.691 224.392 222.414 149.333 223.922 219.029 151.217 224.217 
222.011 150.003 223.962 224.027 149.405 224.056 218.768 151.826 224.096 
221.007 150.866 224.049 216.007 153.137 223.942 217.199 152.51 224.126 
221.539 151.17 224.171 222.167 151.083 224.261 216.128 153.308 224.137 
216.463 152.763 224.154 216.951 153.032 224.007 218.823 152.713 224.159 
219.411 152.516 224.213 216.466 153.471 224.18 217.471 153.222 224.163 
218.557 153.04 224.237 216.772 153.581 224.289 230.539 134.969 223.27 
228.318 138.644 223.878 227.538 139.854 224.408 226.202 142.521 224.283 
224.086 145.657 224.538 229.612 143.436 224.745 228.333 145.607 224.455 
227.309 146.919 224.289 219.142 150.487 224.658 220.232 149.727 224.5 
225.164 149.12 224.248 223.555 150.508 224.458 224.02 150.242 224.511 
216.184 152.966 224.495 216.087 153.239 224.43 220.487 152.681 224.603 
217.42 153.94 224.667 217.213 154.023 224.744 219.035 153.7 224.826 
230.957 137.053 224.809 227.746 139.173 224.773 223.33 145.996 225.376 
227.135 147.772 224.802 224.385 150.368 224.906 216.604 152.428 225.089 
216.138 153.029 224.978 216.284 152.795 224.985 221.581 152.488 224.959 
219.966 153.508 225.048 218.735 153.965 225.001 216.481 154.083 225.38 
217.817 154.345 225.258 230.518 135.023 224.449 229.649 135.642 225.406 
228.204 137.922 225.621 230.697 141.019 226.053 223.64 145.431 225.718 
221.15 153.419 225.783 217.214 154.81 226.422 218.337 154.53 225.689 
223.403 145.494 226.437 226.994 148.734 226.168 216.312 154.247 226.556 
221.7 153.523 227.026 217.512 154.965 226.648 217.741 154.988 226.638 
217.668 155.054 226.994 230.698 135.216 226.222 230.109 135.165 226.145 
231.076 136.282 226.835 223.332 145.417 227.326 216.028 153.587 227.117 
216.085 153.09 226.999 216.11 153.899 227.385 216.516 154.554 226.99 
216.671 154.786 227.489 230.328 135.084 226.482 229.572 135.597 227.947 
216.873 151.806 228.417 216.033 153.235 227.54 216.044 153.501 228.659 
216.159 152.792 228.313 216.253 154.219 228.015 216.673 154.81 227.933 
216.863 154.932 227.808 217.095 155.008 228.274 217.87 155.117 227.973 
227.381 148.72 228.884 216.783 151.876 229.39 216.058 153.153 229.188 
216.437 154.458 228.555 216.88 154.862 228.684 218.615 154.977 228.327 
217.403 155.073 228.612 229.301 135.945 229.271 231.034 139.976 229.997 
216.401 152.356 229.452 216.041 153.287 229.874 222.367 153.072 229.62 
217.861 155.071 229.12 229.641 135.662 230.558 229.128 145.872 230.609 
228.395 147.137 230.41 219.346 149.534 230.789 226.227 149.718 230.451 
216.141 153.547 230.764 230.77 135.465 230.475 231.027 136.156 230.846 
227.37 148.306 230.881 216.077 153.205 231.302 216.282 153.727 230.948 
217.458 154.515 230.44 229.97 135.501 231.681 231.033 136.712 231.715 
230.212 141.792 232.457 229.385 143.954 232.583 228.264 146.768 231.51 
225.391 149.545 231.986 225.547 149.099 232.276 226.735 148.63 231.607 
220.273 148.986 231.748 216.101 152.635 232.203 216.019 152.716 232.428 
216.009 152.784 232.231 217.105 151.733 232.161 216.056 152.762 231.961 
216.144 153.231 231.947 216.412 153.715 231.334 230.408 135.322 231.538 
230.209 135.408 231.985 230.714 138.732 232.713 227.769 146.086 232.846 
220.917 148.726 232.311 226.093 147.66 232.939 224.204 150.204 232.239 
215.985 152.833 232.435 216.403 152.435 232.599 219.388 152.498 232.645 
216.29 153.308 232.144 216.39 153.238 232.352 230.814 135.972 232.667 
230.098 135.742 233.097 228.968 137.607 233.168 229.553 142.183 233.513 
228.773 143.854 233.564 218.126 151.197 232.704 219.116 150.64 232.804 
222.844 149.443 233.154 221.342 150.499 233.111 222.574 150.504 232.842 
215.983 152.742 232.832 215.971 152.823 232.701 216.067 152.71 232.896 
217.43 151.923 232.802 216.87 152.287 232.759 218.984 151.901 232.988 
220.326 151.235 233.042 216.025 152.853 232.788 216.336 152.581 232.826 
216.658 153.229 232.392 230.47 135.53 232.878 230.684 135.766 233.055 
230.165 135.859 233.42 230.393 138.124 233.633 228.256 140.02 234.067 
229.116 141.576 234.201 225.099 146.228 233.667 225.701 145.867 233.802 
226.249 145.75 233.795 223.21 147.607 233.141 222.377 149.18 233.185 
220.786 150.109 233.109 218.629 151.417 232.987 219.121 151.482 233.043 
220.705 150.606 233.122 215.957 152.76 232.938 215.948 152.794 232.889 
215.998 152.764 232.953 215.99 152.794 232.927 216.183 152.77 232.885 
216.364 152.76 232.905 230.574 135.617 233.147 230.58 135.732 233.408 
230.467 135.665 233.351 230.335 135.894 233.606 230.026 136.465 233.808 
230.218 136.296 233.809 229.79 137.439 234.034 229.818 138.462 234.147 
228.538 139.817 234.302 228.74 139.683 234.399 227.815 141.264 234.168 
228.204 141.06 234.388 228.397 141.165 234.469 229.158 140.963 234.374 
228.474 141.551 234.434 215.944 152.78 232.958 230.563 135.821 233.607 
230.498 135.769 233.606 230.468 135.889 233.713 230.407 136.153 233.76 
229.006 139.438 234.437 229.246 139.155 234.398 228.856 140.475 234.533 
229.12 140.158 234.495 230.524 135.829 233.693 217.458 154.515 230.44 

POLYGONS 504 2016
3 0 1 2 
3 1 0 3 
3 4 0 2 
3 6 0 4 
3 5 6 4 
3 7 0 6 
3 8 1 3 
3 9 8 3 
3 2 1 4 
3 1 5 4 
3 3 0 9 
3 11 5 10 
3 11 6 5 
3 12 11 10 
3 6 11 7 
3 11 12 13 
3 7 11 15 
3 15 11 13 
3 13 12 14 
3 14 12 16 
3 16 17 14 
3 14 17 13 
3 15 13 17 
3 18 19 20 
3 19 18 21 
3 18 20 22 
3 21 18 22 
3 24 23 25 
3 8 23 1 
3 1 23 69 
3 23 8 9 
3 23 9 25 
3 1 69 5 
3 5 69 10 
3 0 7 9 
3 9 7 87 
3 7 15 87 
3 16 26 27 
3 16 12 26 
3 70 27 26 
3 71 27 70 
3 28 27 71 
3 16 27 30 
3 30 27 28 
3 17 29 15 
3 17 16 29 
3 16 30 29 
3 28 71 31 
3 15 29 33 
3 33 29 30 
3 33 87 15 
3 28 31 36 
3 30 28 32 
3 32 28 36 
3 32 33 30 
3 34 35 31 
3 31 35 36 
3 32 36 44 
3 44 33 32 
3 44 36 37 
3 20 19 38 
3 39 22 20 
3 39 20 40 
3 40 20 38 
3 21 39 43 
3 39 21 22 
3 21 43 41 
3 39 40 42 
3 43 39 42 
3 23 24 69 
3 24 101 69 
3 69 12 10 
3 12 69 26 
3 35 34 72 
3 45 35 72 
3 36 75 37 
3 45 46 49 
3 45 49 35 
3 35 49 78 
3 36 35 78 
3 75 36 78 
3 52 78 49 
3 48 76 50 
3 48 50 47 
3 47 50 54 
3 46 77 47 
3 46 47 51 
3 49 46 51 
3 52 49 51 
3 50 56 53 
3 54 50 53 
3 51 47 54 
3 79 80 51 
3 52 51 80 
3 19 81 55 
3 38 19 55 
3 81 19 21 
3 54 53 63 
3 51 54 57 
3 58 79 57 
3 57 79 51 
3 38 55 40 
3 55 59 40 
3 21 60 81 
3 41 61 56 
3 41 56 60 
3 41 60 21 
3 66 53 56 
3 62 63 53 
3 62 53 66 
3 95 54 63 
3 57 54 95 
3 64 43 40 
3 43 42 40 
3 43 61 41 
3 43 64 61 
3 64 65 61 
3 56 61 65 
3 65 66 56 
3 65 64 67 
3 66 65 84 
3 68 24 25 
3 115 68 25 
3 25 9 115 
3 31 71 34 
3 33 44 73 
3 89 45 72 
3 44 37 74 
3 44 74 73 
3 37 75 74 
3 47 77 76 
3 48 47 76 
3 76 56 50 
3 79 58 91 
3 81 82 55 
3 55 82 59 
3 63 83 95 
3 58 57 95 
3 40 59 64 
3 66 86 62 
3 96 63 86 
3 86 63 62 
3 83 63 96 
3 64 59 67 
3 65 67 85 
3 84 65 85 
3 66 84 97 
3 86 66 97 
3 24 68 101 
3 69 88 26 
3 88 70 26 
3 33 73 103 
3 71 104 34 
3 89 46 45 
3 46 89 77 
3 75 78 90 
3 80 79 91 
3 52 80 91 
3 52 91 78 
3 60 56 92 
3 93 82 81 
3 93 81 94 
3 94 81 60 
3 94 60 92 
3 58 95 91 
3 105 83 96 
3 95 83 105 
3 105 91 95 
3 98 59 82 
3 67 59 98 
3 85 67 98 
3 99 85 98 
3 84 85 99 
3 84 99 107 
3 84 107 97 
3 68 100 116 
3 101 68 116 
3 100 68 115 
3 115 9 117 
3 9 87 117 
3 69 101 102 
3 69 102 88 
3 87 33 117 
3 34 104 72 
3 104 89 72 
3 75 109 74 
3 75 90 109 
3 90 78 109 
3 76 92 56 
3 94 92 93 
3 92 120 93 
3 82 119 98 
3 93 119 82 
3 96 107 105 
3 105 111 91 
3 86 107 96 
3 106 99 98 
3 107 86 97 
3 99 106 113 
3 107 99 113 
3 124 101 116 
3 102 70 88 
3 117 33 103 
3 89 104 108 
3 89 118 77 
3 78 91 109 
3 118 92 76 
3 120 92 118 
3 109 91 111 
3 120 119 93 
3 98 110 106 
3 107 113 140 
3 112 113 106 
3 112 106 114 
3 114 106 122 
3 113 112 114 
3 102 101 190 
3 117 103 143 
3 70 102 71 
3 103 73 143 
3 104 118 108 
3 118 89 108 
3 73 74 109 
3 76 77 118 
3 119 127 121 
3 119 121 98 
3 105 140 111 
3 107 140 105 
3 110 98 121 
3 110 121 122 
3 106 110 122 
3 123 132 122 
3 132 114 122 
3 113 114 134 
3 113 134 140 
3 116 100 124 
3 125 101 124 
3 71 102 118 
3 104 71 118 
3 118 136 126 
3 120 118 126 
3 111 152 109 
3 120 127 119 
3 120 126 127 
3 126 129 127 
3 127 128 130 
3 121 127 130 
3 129 128 127 
3 122 121 131 
3 121 130 131 
3 131 123 122 
3 123 131 132 
3 132 133 134 
3 114 132 134 
3 100 176 124 
3 176 100 115 
3 154 176 115 
3 154 115 117 
3 125 190 101 
3 162 143 73 
3 73 109 150 
3 118 151 136 
3 126 136 137 
3 126 137 129 
3 128 137 130 
3 129 137 128 
3 111 140 146 
3 131 130 138 
3 131 138 132 
3 138 133 132 
3 138 139 133 
3 139 141 133 
3 134 133 141 
3 134 141 140 
3 124 177 125 
3 125 177 142 
3 125 142 190 
3 190 239 102 
3 109 152 135 
3 150 109 135 
3 144 137 136 
3 137 145 153 
3 130 137 153 
3 145 137 144 
3 140 147 146 
3 146 152 111 
3 138 130 153 
3 138 153 139 
3 139 147 141 
3 140 141 147 
3 124 176 177 
3 142 177 148 
3 148 190 142 
3 154 117 155 
3 117 143 178 
3 178 143 162 
3 73 163 162 
3 73 149 163 
3 73 150 149 
3 151 168 136 
3 102 151 118 
3 135 152 156 
3 156 150 135 
3 144 136 173 
3 152 146 182 
3 173 145 144 
3 139 153 158 
3 139 158 147 
3 160 148 177 
3 155 117 161 
3 161 117 178 
3 150 164 149 
3 151 102 180 
3 165 156 152 
3 136 172 184 
3 172 136 168 
3 136 184 173 
3 157 145 173 
3 145 157 153 
3 157 175 153 
3 153 175 158 
3 147 158 159 
3 229 176 154 
3 229 154 161 
3 154 155 161 
3 148 160 189 
3 189 190 148 
3 239 180 102 
3 149 164 179 
3 179 163 149 
3 150 167 164 
3 156 167 150 
3 168 194 172 
3 180 168 151 
3 152 182 165 
3 165 166 167 
3 167 156 165 
3 169 170 171 
3 173 169 171 
3 183 173 171 
3 173 184 169 
3 170 169 184 
3 157 173 183 
3 157 183 174 
3 146 147 182 
3 186 175 174 
3 174 175 157 
3 207 185 147 
3 159 158 175 
3 254 207 147 
3 159 175 207 
3 177 189 160 
3 229 161 188 
3 161 178 188 
3 212 239 190 
3 192 163 179 
3 179 164 181 
3 181 164 167 
3 168 180 194 
3 165 182 166 
3 166 181 167 
3 170 198 183 
3 171 170 183 
3 172 201 184 
3 170 184 198 
3 187 186 174 
3 187 174 199 
3 199 174 183 
3 182 147 185 
3 176 229 208 
3 176 208 177 
3 189 177 208 
3 190 189 235 
3 188 178 211 
3 190 238 212 
3 242 162 213 
3 213 162 191 
3 162 163 191 
3 191 163 213 
3 192 181 216 
3 192 179 181 
3 217 194 180 
3 195 216 166 
3 181 166 216 
3 193 172 194 
3 166 182 195 
3 193 201 172 
3 197 222 196 
3 182 197 195 
3 183 198 199 
3 184 201 202 
3 203 221 185 
3 221 204 185 
3 197 204 222 
3 197 182 204 
3 198 206 200 
3 184 206 198 
3 206 184 202 
3 185 228 203 
3 182 185 204 
3 187 199 205 
3 187 205 207 
3 205 228 207 
3 207 228 185 
3 187 207 186 
3 175 186 207 
3 209 229 188 
3 231 189 208 
3 210 189 231 
3 210 233 189 
3 189 233 235 
3 190 235 238 
3 211 178 236 
3 178 162 236 
3 236 162 242 
3 213 192 243 
3 163 192 213 
3 180 215 214 
3 192 216 215 
3 180 214 217 
3 216 217 214 
3 216 214 215 
3 194 217 219 
3 219 217 218 
3 216 195 217 
3 219 220 194 
3 218 196 219 
3 197 196 218 
3 195 197 218 
3 217 195 218 
3 193 220 201 
3 193 194 220 
3 219 204 220 
3 204 221 220 
3 222 204 219 
3 196 222 219 
3 198 223 224 
3 199 198 224 
3 223 198 200 
3 225 223 200 
3 221 203 220 
3 226 227 205 
3 226 205 224 
3 224 205 199 
3 228 227 206 
3 206 227 200 
3 226 225 227 
3 200 227 225 
3 202 228 206 
3 202 201 228 
3 220 228 201 
3 228 220 203 
3 227 228 205 
3 229 230 231 
3 229 231 208 
3 230 229 209 
3 230 209 188 
3 210 231 232 
3 234 210 232 
3 233 210 234 
3 188 211 253 
3 233 234 235 
3 250 238 235 
3 250 236 252 
3 250 235 236 
3 238 237 212 
3 236 242 252 
3 212 240 239 
3 212 237 240 
3 240 243 239 
3 240 241 243 
3 242 213 243 
3 243 215 239 
3 243 192 215 
3 239 215 180 
3 223 244 224 
3 223 225 244 
3 224 244 226 
3 225 226 244 
3 230 245 246 
3 231 230 246 
3 245 230 188 
3 253 245 188 
3 247 248 232 
3 247 232 246 
3 246 232 231 
3 248 247 253 
3 248 236 234 
3 232 248 234 
3 253 211 236 
3 248 253 236 
3 234 236 235 
3 250 249 238 
3 249 251 238 
3 250 252 249 
3 237 238 251 
3 237 251 240 
3 249 252 251 
3 241 240 251 
3 252 242 251 
3 242 243 241 
3 251 242 241 
3 245 253 246 
3 246 253 247 

POINT_DATA 255
SCALARS scalars float
LOOKUP_TABLE default
1 1 1 1 1 1 1 1 1 
1 1 1 1 1 1 1 1 1 
1 1 1 1 1 1 1 1 1 
1 1 1 1 1 1 1 1 1 
1 1 1 1 1 1 1 1 1 
1 1 1 1 1 1 1 1 1 
1 1 1 1 1 1 1 1 1 
1 1 1 1 1 1 1 1 1 
1 1 1 1 1 1 1 1 1 
1 1 1 1 1 1 1 1 1 
1 1 1 1 1 1 1 1 1 
1 1 1 1 1 1 1 1 1 
1 1 1 1 1 1 1 1 1 
1 1 1 1 1 1 1 1 1 
1 1 1 1 1 1 1 1 1 
1 1 1 1 1 1 1 1 1 
1 1 1 1 1 1 1 1 1 
1 1 1 1 1 1 1 1 1 
1 1 1 1 1 1 1 1 1 
1 1 1 1 1 1 1 1 1 
1 1 1 1 1 1 1 1 1 
1 1 1 1 1 1 1 1 1 
1 1 1 1 1 1 1 1 1 
1 1 1 1 1 1 1 1 1 
1 1 1 1 1 1 1 1 1 
1 1 1 1 1 1 1 1 1 
1 1 1 1 1 1 1 1 1 
1 1 1 1 1 1 1 1 1 
1 1 1 
NORMALS Normals float
0.594245 0.0631762 -0.801799 -0.777656 -0.413722 -0.473375 -0.43098 -0.0509457 -0.900922 
0.436125 -0.814703 -0.38217 -0.44233 0.0807151 -0.893213 -0.60129 -0.0781912 -0.795196 
0.279985 0.265913 -0.922442 0.792969 0.260523 -0.550753 -0.134541 -0.969873 -0.203088 
0.936043 -0.339509 -0.0925069 -0.664601 -0.201225 -0.719592 0.0595907 0.110798 -0.992055 
-0.516745 -0.113622 -0.848566 0.196453 0.0770839 -0.977479 -0.12899 0.0250335 -0.99133 
0.66685 0.196565 -0.7188 -0.21015 0.0781732 -0.974539 0.293352 0.186143 -0.937707 
-0.50447 -0.131835 -0.853305 -0.990611 -0.00864862 0.136436 -0.127093 0.899717 -0.41756 
0.0335256 -0.862874 -0.504306 0.52367 0.00406638 -0.851911 -0.396636 -0.905559 -0.150479 
-0.544504 -0.835837 -0.0699463 0.375601 -0.926472 0.0239528 -0.735432 -0.194389 -0.649116 
-0.463564 -0.0554884 -0.884324 -0.239881 0.0251439 -0.970477 0.427987 0.281656 -0.858776 
0.188722 0.222642 -0.956459 -0.378483 -0.158331 -0.911966 0.310873 0.246133 -0.918029 
0.801741 0.254682 -0.540693 -0.629357 -0.370017 -0.683372 -0.320624 -0.0959729 -0.942332 
0.161262 0.183252 -0.969749 0.432843 0.278022 -0.857526 -0.665491 0.746101 -0.0213158 
0.438965 0.358376 -0.82394 -0.168538 0.904052 -0.39279 0.155837 -0.403831 -0.901463 
0.188052 0.792898 -0.579611 0.345666 0.38439 -0.856014 0.558044 0.275867 -0.782614 
-0.547889 -0.411972 -0.728077 -0.36107 -0.350859 -0.864018 -0.298764 -0.363332 -0.882457 
-0.47154 -0.523403 -0.709718 -0.123634 -0.110741 -0.986129 -0.29378 -0.360179 -0.885418 
0.0295799 0.121446 -0.992157 0.268584 0.271401 -0.924232 -0.043609 -0.0154367 -0.99893 
-0.00706845 0.111054 -0.993789 -0.920261 0.376433 0.106859 -0.129078 -0.410138 -0.902843 
0.113605 0.305529 -0.945382 0.298448 0.487293 -0.820655 -0.641979 0.762011 -0.0848707 
-0.445975 -0.852472 -0.27276 0.254946 0.178844 -0.950272 0.134724 0.295059 -0.945933 
0.22446 0.332804 -0.915893 -0.0192158 0.783903 -0.620585 0.126425 0.402225 -0.90677 
0.104478 0.375827 -0.920782 -0.172834 0.848652 -0.499917 -0.163544 -0.986044 0.0311543 
-0.846344 -0.369115 -0.384 -0.894894 -0.293489 -0.336199 -0.737207 -0.408002 -0.538573 
-0.681158 -0.47474 -0.557357 0.9045 0.382529 -0.188549 0.717337 0.447212 -0.534255 
0.641301 0.432548 -0.633747 -0.521124 -0.615602 -0.591154 -0.529703 -0.589024 -0.6103 
0.360611 0.400048 -0.842568 0.308088 0.412444 -0.857305 0.382235 0.446412 -0.809081 
-0.821167 -0.566771 0.0667519 -0.992588 0.120497 0.015829 0.339293 0.52018 -0.783768 
0.135918 0.679665 -0.720821 -0.0746439 0.777173 -0.624845 0.302541 0.637101 -0.708923 
0.966878 0.165101 -0.194649 -0.924211 -0.329018 -0.193857 -0.730573 -0.553185 -0.400312 
0.750607 0.514303 -0.414827 0.509155 0.651754 -0.562119 -0.686995 -0.721897 -0.0830803 
-0.916218 -0.387643 0.101378 -0.777642 -0.620074 0.103832 0.291993 0.513068 -0.807156 
0.322866 0.678484 -0.659861 0.231723 0.727703 -0.645565 -0.643341 0.7104 -0.285385 
-0.0192357 0.86649 -0.498824 0.128069 -0.991057 0.0374784 -0.841224 -0.540576 0.0109097 
-0.876114 -0.480098 -0.0439322 0.965562 0.193617 -0.173787 -0.725976 -0.621052 -0.295386 
0.429042 0.791368 -0.4355 -0.347838 0.892749 -0.286371 0.300944 0.847307 -0.43761 
-0.789425 -0.595411 -0.149312 0.76808 0.597138 -0.231254 -0.769428 0.615531 -0.170591 
0.563663 0.811177 -0.155806 -0.225371 0.944513 -0.238961 0.0864447 0.954465 -0.285523 
-0.211302 0.969778 -0.121993 0.676324 -0.735645 0.0375817 -0.60436 -0.779897 0.162821 
0.997351 -0.0652974 -0.0320599 -0.739353 -0.643675 -0.197582 -0.994575 0.099528 -0.0302463 
-0.884872 -0.464123 -0.0398993 -0.932952 0.359665 -0.0155837 -0.583865 0.794998 -0.16456 
-0.487324 0.853766 -0.183301 -0.473524 -0.871588 0.126924 -0.859878 -0.506368 -0.0648113 
-0.80107 -0.596439 -0.0504692 -0.992139 -0.124882 0.00804015 -0.987279 0.130628 0.0906464 
-0.923739 -0.382569 -0.0186334 -0.910032 0.408042 0.0730978 -0.721879 0.690986 0.0377904 
-0.327001 0.944058 -0.0427173 -0.39897 0.916699 0.0220659 0.0222942 0.998936 -0.0403767 
0.764574 0.644303 0.017321 -0.748952 -0.66259 -0.00677274 -0.99642 -0.0764668 -0.0360624 
-0.680408 0.721034 0.130976 -0.552021 0.816507 0.169083 0.295873 0.954208 -0.0441153 
-0.135205 0.98571 0.100472 -0.774982 -0.613944 -0.14992 0.977285 0.204986 0.0538016 
-0.868684 -0.471613 -0.151555 -0.994744 0.0981707 -0.0290984 0.474791 0.837687 0.269914 
0.147903 0.912066 0.382441 -0.60353 -0.796677 0.0324997 0.884133 0.414516 0.215604 
0.839946 0.530811 0.11283 -0.642555 -0.761111 -0.0885048 0.639772 0.749097 0.171887 
-0.857533 0.504776 0.0991883 0.830257 -0.549942 0.0907624 0.951213 -0.29016 0.104883 
0.712564 0.650373 0.263187 -0.9532 0.297204 0.055491 -0.63057 0.739077 0.236954 
-0.416111 0.862142 0.289073 -0.590088 -0.800139 0.10758 0.959178 -0.2828 0.00162408 
0.904121 0.230885 0.359523 0.839733 0.377367 0.39044 0.7332 0.511809 0.447738 
0.564953 0.692751 0.448246 0.380418 0.50959 0.771751 0.655205 0.588734 0.473391 
-0.540573 -0.827992 0.149031 -0.638304 -0.748677 -0.17903 -0.832038 -0.553392 -0.0383261 
-0.959757 -0.250933 -0.126088 -0.58972 -0.75936 0.274958 -0.905779 -0.40241 -0.132782 
-0.819302 0.538123 0.197908 -0.62363 0.723808 0.295276 0.265435 -0.96063 0.0820648 
-0.329253 -0.942684 0.0542175 0.947439 0.13822 0.288539 0.684997 0.486084 0.54268 
-0.559321 -0.714293 0.420649 0.446744 0.492996 0.746575 0.406865 0.664385 0.62694 
-0.997221 0.028587 -0.0687952 -0.514599 -0.832878 0.203719 0.239365 0.578313 0.779909 
-0.453418 0.787664 0.41713 -0.456824 0.78619 0.416195 0.974327 -0.167494 0.150442 
-0.694268 -0.658347 0.290811 -0.911642 -0.34472 0.223779 0.775432 0.251157 0.579332 
0.452306 0.319173 0.832795 -0.464847 -0.629174 0.622942 -0.463689 -0.599444 0.652426 
0.135827 0.251465 0.958288 0.0878558 0.260257 0.961534 0.198712 0.471967 0.85893 
-0.75087 -0.660219 0.0174618 -0.910565 0.410801 0.0459715 -0.106553 -0.78385 0.61174 
-0.447407 -0.611672 0.652445 -0.368265 -0.642965 0.671548 0.0923954 0.203351 0.974737 
0.0668187 0.247144 0.966672 -0.217992 0.867348 0.447422 -0.233777 -0.664998 0.709313 
0.110306 0.805697 0.581966 -0.0597701 -0.974158 0.217818 0.897653 -0.416848 0.143026 
-0.572535 -0.630608 0.523963 0.858981 0.14877 0.489917 -0.755037 -0.468571 0.45865 
0.638751 0.259333 0.724392 -0.276902 -0.0589358 0.959089 -0.173894 -0.0701772 0.982261 
0.0949278 0.309508 0.946147 -0.216331 -0.12669 0.968065 0.013155 0.0891125 0.995935 
-0.144743 -0.103448 0.984047 -0.193357 -0.246247 0.949724 0.072977 0.0954522 0.992755 
-0.00679723 0.235791 0.97178 -0.577786 -0.779808 0.240961 -0.93412 0.355854 0.0280571 
0.144003 -0.177251 0.973574 0.0434874 0.872179 0.487251 0.163926 0.271266 0.948442 
-0.125738 0.0884778 0.98811 0.564881 -0.822559 0.0656223 0.729885 -0.605471 0.317291 
-0.147503 -0.912928 0.380533 -0.483177 -0.592456 0.644621 -0.699998 -0.412933 0.582656 
-0.195812 -0.364707 0.9103 -0.402893 -0.323203 0.856281 0.535314 0.0488864 0.843237 
-0.60565 -0.392856 0.691991 -0.569183 -0.446458 0.690439 -0.704846 -0.25904 0.660371 
-0.489793 -0.080778 0.868088 -0.123909 0.0814064 0.988949 0.482092 0.173246 0.858821 
-0.0281002 0.182306 0.98284 -0.556717 0.268352 0.786163 0.862702 -0.351917 0.36318 
-0.000590812 -0.862082 0.506769 -0.381271 -0.466244 0.798279 -0.00861448 -0.231242 0.972858 
-0.212155 -0.24384 0.946326 -0.0503484 -0.25329 0.966079 -0.133676 -0.0365394 0.990351 
0.278744 -0.000253224 0.960366 0.584212 -0.170573 0.793474 0.91117 -0.396634 0.111586 

