# vtk DataFile Version 4.2
vtk output
ASCII
DATASET POLYDATA
POINTS 4068 float
269.125 196.112 103.05 269.538 196.104 103.008 269.783 196.114 103.005 
268.998 196.451 102.876 269.912 196.172 102.968 269.925 196.272 102.935 
270.087 196.305 102.961 270.058 196.237 102.999 270.143 196.261 102.966 
270.128 196.402 103.049 270.156 196.295 102.977 268.647 196.242 103.021 
269.401 196.034 103.129 269.68 196.066 103.144 266.952 196.65 103.263 
267.763 196.277 103.25 270.06 196.351 103.216 270.14 196.29 103.02 
274 195.009 102.017 274 195.009 102.017 274 195.009 102.017 
274 195.009 102.017 265.376 197.085 103.738 265.785 197.048 103.536 
270.168 196.485 103.167 270.171 196.53 103.128 274 195.009 102.017 
270.186 196.566 103.195 264.916 197.609 103.661 265.616 197.662 103.312 
265.981 197.871 103.208 270.03 196.929 103.357 270.146 196.649 103.211 
265.909 198.5 103.36 266.599 198.828 103.49 268.112 196.12 103.329 
269.67 196.059 103.324 266.81 196.536 103.399 266.976 196.381 103.492 
266.534 196.536 103.611 274 195.009 102.018 270.123 196.664 103.353 
269.979 197.404 103.641 270.049 197.139 103.809 264.439 198.395 103.775 
269.939 197.73 103.832 270.093 197.423 103.823 270.11 197.537 103.909 
268.197 198.783 103.714 269.968 197.827 104 263.052 199.716 104.329 
264.499 199.492 103.962 266.584 196.364 104.084 267.538 196.151 103.624 
267.486 196.148 103.922 268.429 196.034 103.823 268.891 196.017 103.703 
269.268 196.018 103.568 269.425 196.077 103.662 265.407 196.753 104.609 
264.97 196.932 104.571 264.156 197.379 104.628 261.847 199.307 104.967 
261.264 199.452 105.299 270.092 197.473 103.963 269.984 197.618 104.285 
260.667 199.885 105.493 269.899 198.033 104.303 259.634 200.575 105.831 
259.686 200.486 105.844 259.53 200.631 105.937 268.772 199.687 104.745 
269.12 199.388 104.717 269.352 199.057 104.661 265.26 196.814 104.91 
267.928 196.23 104.453 269.459 196.532 104.348 263.91 197.426 105.291 
264.387 197.215 105.282 262.826 198.006 105.571 262.529 198.217 105.522 
269.586 197.006 104.625 259.912 200.254 105.902 259.185 200.394 106.44 
269.812 198.325 104.615 260.077 200.72 105.69 259.379 201.079 106.049 
268.472 200.38 105.324 269.166 199.681 105.328 266.029 196.742 105.243 
266.616 196.641 105.2 268.081 196.629 105.119 263.686 197.556 105.561 
264.76 197.184 105.559 268.883 196.765 104.992 265.054 197.348 106.026 
262.343 198.38 106.231 269.728 198.094 105.131 256.954 201.588 107.704 
257.969 201.136 107.008 258.351 200.547 107.206 269.624 198.593 105.304 
257.152 202 107.389 268.788 200.238 105.489 269.147 199.743 105.788 
257.16 202.349 107.41 268.888 200.3 105.992 266.836 202.213 106.246 
263.769 203.308 106.404 266.037 202.851 106.498 268.046 196.955 105.504 
256.741 201.974 107.722 268.999 199.901 106.329 256.009 202.235 108.31 
255.707 202.549 108.491 257.68 203.107 107.414 257.808 204.02 107.845 
266.653 203.127 107.26 267.338 202.614 107.288 263.373 198.571 107.355 
264.795 198.403 107.395 258.262 200.444 107.758 268.977 199.067 106.366 
256.388 201.669 108.598 255.366 202.581 108.875 268.024 201.748 107.169 
267.197 202.943 107.621 265.782 204.41 108.23 266.198 204.348 108.601 
261.977 205.933 108.584 261.578 199.183 107.702 258.519 200.495 108.567 
268.225 200.169 107.542 255.466 202.258 109.153 254.732 202.852 109.862 
255.314 202.367 109.554 253.625 203.928 110.486 253.41 204.314 110.687 
267.363 202.806 108.322 266.665 204.012 108.931 262.373 206.884 109.623 
263.698 206.658 109.822 266.195 199.557 108.285 259.862 200.682 109.456 
265.089 200.172 108.995 266.303 200.664 108.982 254.381 203.119 110.438 
253.961 203.448 110.573 266.867 203.727 108.957 266.366 204.428 109.466 
264.799 205.998 109.643 265.47 205.569 109.931 265.949 204.983 109.813 
267.1 201.093 108.808 254.26 203.27 110.858 253.456 204.002 111.515 
252.856 204.683 111.606 266.396 204.145 109.793 266.551 203.657 109.745 
261.268 208.22 110.949 262.445 208.545 111.663 253.127 204.331 111.818 
261.929 202.949 111.772 252.361 205.243 112.463 253.054 204.542 112.282 
265.922 203.385 110.387 266.511 203.171 109.798 251.811 206.014 113.081 
251.902 206.057 112.835 252.205 205.918 112.397 262.655 208.679 111.985 
263.076 208.794 112.715 255.469 203.67 112.295 256.311 203.529 112.332 
260.032 203.918 112.875 264.437 206.967 111.96 264.119 207.315 112.645 
263.616 208.333 113.276 263.072 209.096 113.455 263.372 208.771 113.464 
260.673 210.584 113.773 251.48 206.351 114.06 252.563 205.515 113.791 
259.457 204.758 113.701 251.319 206.579 114.448 250.85 207.427 114.742 
263.385 206.464 113.528 263.588 206.749 113.503 250.699 207.98 114.925 
263.63 207.092 113.58 253.131 209.198 113.976 251.886 206.092 114.334 
250.349 207.821 115.498 250.139 207.93 115.906 260.854 206.374 114.789 
249.999 208.202 115.924 263.61 207.552 113.732 250.898 208.728 115.063 
261.267 211.438 115.615 260.691 211.988 116.13 250.15 207.889 116.14 
250.031 208.067 116.672 261.639 207.477 115.317 263.068 208.468 114.695 
249.122 209.137 117.043 262.688 209.848 114.953 261.794 210.982 115.635 
262.117 210.56 115.591 260.981 211.948 116.5 262.49 208.36 115.309 
248.088 209.529 118.445 251.93 211.472 116.928 261.906 210.79 116.217 
250.018 208.424 117.799 256.405 208.305 117.907 261.656 208.515 116.034 
247.275 209.917 119.212 260.191 209.032 117.329 260.451 209.371 117.456 
246.138 210.71 119.704 247.213 210.324 118.874 246.749 210.766 119.247 
261.733 210.772 116.681 245.946 210.555 120.41 261.003 209.937 117.423 
245.172 211.305 120.48 245.338 211.3 120.287 246.259 211.608 119.951 
245.387 211.401 120.262 245.561 211.433 120.162 260.604 212.711 118.592 
259.87 213.769 118.923 260.045 213.638 119.097 248.132 209.673 119.943 
245.403 210.797 121.195 244.823 211.281 121.037 260.402 211.393 118.834 
259.96 213.76 119.687 259.304 214.73 120.386 259.591 214.342 120.186 
243.594 211.563 122.433 244.229 211.644 121.605 242.666 212.296 122.885 
244.426 212.058 121.452 242.362 212.629 123.103 260.345 212.31 119.289 
242.334 212.991 123.245 252.51 214.635 120.521 259.547 214.395 120.697 
243.582 211.483 122.64 243.497 211.499 123.016 241.713 212.639 123.701 
259.343 214.591 121.258 255.78 217.334 123.371 258.061 216.27 122.479 
241.86 212.184 124.361 242.333 213.817 123.771 181.651 249.676 125.879 
185.753 250.286 125.542 185.57 250.523 125.467 188.328 251.29 125.256 
187.918 251.011 125.359 189.778 251.511 125.248 189.498 251.133 125.38 
188.81 251.811 125.182 189.032 252.113 125.199 190.3 251.889 125.226 
191.715 252.249 125.308 195.293 253.286 125.689 195.751 253.268 125.84 
242.996 211.714 124.081 239.511 213.649 125.561 252.296 212.214 124.191 
240.241 213.855 124.955 243.542 214.133 123.568 254.773 213.07 124.252 
226.101 218.719 126.364 225.668 219.135 126.285 226.916 219.161 126.653 
256.604 217.934 124.634 178.354 247.978 126.826 178.906 248.13 126.699 
178.553 248.301 126.702 180.218 248.717 126.39 179.804 248.896 126.375 
181.777 248.919 126.281 186.134 250.022 125.766 183.054 250.553 125.683 
189.244 250.67 125.644 191.246 251.305 125.511 186.383 251.587 125.38 
187.722 252.377 125.391 189.662 252.806 125.326 199.571 255.185 126.733 
243.959 211.601 124.355 246.156 211.762 125.036 237.21 214.154 127.031 
237.247 214.574 126.813 238.54 215.195 126.383 225.629 217.762 126.457 
222.382 220.18 126.019 255.192 219.101 125.981 219.759 221.323 125.987 
178.01 247.472 127.246 179.861 248.089 126.781 178.959 248.894 126.544 
189.835 250.122 126.219 194.36 252.185 125.831 193.939 254.202 125.742 
200.627 255.689 127.282 200.789 256.079 127.366 200.154 256.199 127.095 
237.754 213.672 127.132 235.359 214.852 127.515 234.698 215.47 127.488 
232.02 215.886 127.673 235.301 215.932 127.388 216.844 218.206 127.152 
234.422 216.397 127.548 232.044 217.454 127.632 257.351 217.51 125.786 
216.775 219.756 126.689 216.793 224.353 126.7 217.078 226.414 126.884 
175.315 247.971 127.622 176.69 248.13 127.205 176.773 248.708 127.12 
181.083 248.096 126.951 183.927 248.658 126.964 177.218 249.531 127.082 
191.946 250.025 126.832 177.312 250.006 127.223 192.813 250.531 126.534 
190.886 254.952 126.314 201.651 256.609 128.006 201.68 257.157 128.118 
207 259.009 126.017 207 259.009 126.017 207 259.009 126.017 
207 259.009 126.017 207 259.009 126.017 234.637 214.175 128.364 
221.59 216.547 127.299 238.657 215.998 126.858 256.969 216.17 126.04 
232.421 217.737 127.777 256.398 219.73 127.695 214.833 221.641 127.395 
171.79 246.532 129.204 178.967 247.053 127.927 174.726 248.464 127.813 
174.821 249.083 127.921 190.95 249.267 127.736 200.783 257.677 127.966 
202.229 257.657 128.74 207 259.009 126.018 235.94 213.401 129.29 
232.768 214.604 128.449 215.862 216.589 128.569 232.395 218.916 128.377 
256.826 219.095 128.131 216.919 233.476 128.429 169.653 245.619 130.171 
170.296 245.768 129.963 172.816 245.957 129.462 173.598 245.825 129.643 
176.222 246.395 128.906 182.974 247.879 128.011 172.581 248.673 128.913 
189.759 248.801 128.514 173.03 249.27 128.98 202.333 256.3 128.797 
202.774 257.577 129.413 200.687 258.7 128.775 202.516 258.351 129.493 
232.257 214.362 128.908 226.577 215.061 128.555 211.696 221.998 129.295 
213.119 238.346 130.306 164.704 244.377 131.887 164.446 244.412 132.003 
165.402 244.379 131.695 165.825 244.69 131.442 165.174 244.679 131.647 
168.344 245.137 130.82 173.987 245.819 129.747 178.903 246.461 129.251 
169.993 246.398 129.837 171.476 247.654 129.209 171.571 248.253 129.323 
194.866 248.923 129.184 196.346 259.142 129.261 202.913 257.879 129.811 
245.386 213.774 130.642 242.331 218.244 128.789 211.396 218.417 130.41 
256.621 219.302 129.386 256.235 220.999 130.386 256.433 220.516 130.155 
255.609 222.003 130.841 216.116 237.372 130.309 209.903 239.801 131.076 
164.174 244.343 132.186 164.233 243.998 132.386 164.255 244.586 132.127 
166.434 245.148 131.288 173.321 245.524 130.621 168.76 246.48 130.393 
[...]
POINT_DATA 4068
SCALARS scalars float
LOOKUP_TABLE default
1 1 1 1 1 1 1 1 1 
1 1 1 1 1 1 1 1 1 
1 1 1 1 1 1 1 1 1 
1 1 1 1 1 1 1 1 1 
1 1 1 1 1 1 1 1 1 
1 1 1 1 1 1 1 1 1 
1 1 1 1 1 1 1 1 1 
1 1 1 1 1 1 1 1 1 
1 1 1 1 1 1 1 1 1 
1 1 1 1 1 1 1 1 1 
1 1 1 1 1 1 1 1 1 
1 1 1 1 1 1 1 1 1 
1 1 1 1 1 1 1 1 1 
1 1 1 1 1 1 1 1 1 
1 1 1 1 1 1 1 1 1 
1 1 1 1 1 1 1 1 1 
1 1 1 1 1 1 1 1 1 
1 1 1 1 1 1 1 1 1 
1 1 1 1 1 1 1 1 1 
1 1 1 1 1 1 1 1 1 
1 1 1 1 1 1 1 1 1 
1 1 1 1 1 1 1 1 1 
1 1 1 1 1 1 1 1 1 
1 1 1 1 1 1 1 1 1 
1 1 1 1 1 1 1 1 1 
1 1 1 1 1 1 1 1 1 
1 1 1 1 1 1 1 1 1 
1 1 1 1 1 1 1 1 1 
1 1 1 1 1 1 1 1 1 
1 1 1 1 1 1 1 1 1 
1 1 1 1 1 1 1 1 1 
1 1 1 1 1 1 1 1 1 
1 1 1 1 1 1 1 1 1 
1 1 1 1 1 1 1 1 1 
1 1 1 1 1 1 1 1 1 
1 1 1 1 1 1 1 1 1 
1 1 1 1 1 1 1 1 1 
1 1 1 1 1 1 1 1 1 
1 1 1 1 1 1 1 1 1 
1 1 1 1 1 1 1 1 1 
1 1 1 1 1 1 1 1 1 
1 1 1 1 1 1 1 1 1 
1 1 1 1 1 1 1 1 1 
1 1 1 1 1 1 1 1 1 
1 1 1 1 1 1 1 1 1 
1 1 1 1 1 1 1 1 1 
1 1 1 1 1 1 1 1 1 
1 1 1 1 1 1 1 1 1 
1 1 1 1 1 1 1 1 1 
1 1 1 1 1 1 1 1 1 
1 1 1 1 1 1 1 1 1 
1 1 1 1 1 1 1 1 1 
1 1 1 1 1 1 1 1 1 
1 1 1 1 1 1 1 1 1 
1 1 1 1 1 1 1 1 1 
1 1 1 1 1 1 1 1 1 
1 1 1 1 1 1 1 1 1 
1 1 1 1 1 1 1 1 1 
1 1 1 1 1 1 1 1 1 
1 1 1 1 1 1 1 1 1 
1 1 1 1 1 1 1 1 1 
1 1 1 1 1 1 1 1 1 
1 1 1 1 1 1 1 1 1 
1 1 1 1 1 1 1 1 1 
1 1 1 1 1 1 1 1 1 
1 1 1 1 1 1 1 1 1 
1 1 1 1 1 1 1 1 1 
1 1 1 1 1 1 1 1 1 
1 1 1 1 1 1 1 1 1 
1 1 1 1 1 1 1 1 1 
1 1 1 1 1 1 1 1 1 
1 1 1 1 1 1 1 1 1 
1 1 1 1 1 1 1 1 1 
1 1 1 1 1 1 1 1 1 
1 1 1 1 1 1 1 1 1 
1 1 1 1 1 1 1 1 1 
1 1 1 1 1 1 1 1 1 
1 1 1 1 1 1 1 1 1 
1 1 1 1 1 1 1 1 1 
1 1 1 1 1 1 1 1 1 
1 1 1 1 1 1 1 1 1 
1 1 1 1 1 1 1 1 1 
1 1 1 1 1 1 1 1 1 
1 1 1 1 1 1 1 1 1 
1 1 1 1 1 1 1 1 1 
1 1 1 1 1 1 1 1 1 
1 1 1 1 1 1 1 1 1 
1 1 1 1 1 1 1 1 1 
1 1 1 1 1 1 1 1 1 
1 1 1 1 1 1 1 1 1 
1 1 1 1 1 1 1 1 1 
1 1 1 1 1 1 1 1 1 
1 1 1 1 1 1 1 1 1 
1 1 1 1 1 1 1 1 1 
1 1 1 1 1 1 1 1 1 
1 1 1 1 1 1 1 1 1 
1 1 1 1 1 1 1 1 1 
1 1 1 1 1 1 1 1 1 
1 1 1 1 1 1 1 1 1 
1 1 1 1 1 1 1 1 1 
1 1 1 1 1 1 1 1 1 
1 1 1 1 1 1 1 1 1 
1 1 1 1 1 1 1 1 1 
1 1 1 1 1 1 1 1 1 
1 1 1 1 1 1 1 1 1 
1 1 1 1 1 1 1 1 1 
1 1 1 1 1 1 1 1 1 
1 1 1 1 1 1 1 1 1 
1 1 1 1 1 1 1 1 1 
1 1 1 1 1 1 1 1 1 
1 1 1 1 1 1 1 1 1 
1 1 1 1 1 1 1 1 1 
1 1 1 1 1 1 1 1 1 
1 1 1 1 1 1 1 1 1 
1 1 1 1 1 1 1 1 1 
1 1 1 1 1 1 1 1 1 
1 1 1 1 1 1 1 1 1 
1 1 1 1 1 1 1 1 1 
1 1 1 1 1 1 1 1 1 
1 1 1 1 1 1 1 1 1 
1 1 1 1 1 1 1 1 1 
1 1 1 1 1 1 1 1 1 
1 1 1 1 1 1 1 1 1 
1 1 1 1 1 1 1 1 1 
1 1 1 1 1 1 1 1 1 
1 1 1 1 1 1 1 1 1 
1 1 1 1 1 1 1 1 1 
1 1 1 1 1 1 1 1 1 
1 1 1 1 1 1 1 1 1 
1 1 1 1 1 1 1 1 1 
1 1 1 1 1 1 1 1 1 
1 1 1 1 1 1 1 1 1 
1 1 1 1 1 1 1 1 1 
1 1 1 1 1 1 1 1 1 
1 1 1 1 1 1 1 1 1 
1 1 1 1 1 1 1 1 1 
1 1 1 1 1 1 1 1 1 
1 1 1 1 1 1 1 1 1 
1 1 1 1 1 1 1 1 1 
1 1 1 1 1 1 1 1 1 
1 1 1 1 1 1 1 1 1 
1 1 1 1 1 1 1 1 1 
1 1 1 1 1 1 1 1 1 
1 1 1 1 1 1 1 1 1 
1 1 1 1 1 1 1 1 1 
1 1 1 1 1 1 1 1 1 
1 1 1 1 1 1 1 1 1 
1 1 1 1 1 1 1 1 1 
1 1 1 1 1 1 1 1 1 
1 1 1 1 1 1 1 1 1 
1 1 1 1 1 1 1 1 1 
1 1 1 1 1 1 1 1 1 
1 1 1 1 1 1 1 1 1 
1 1 1 1 1 1 1 1 1 
1 1 1 1 1 1 1 1 1 
1 1 1 1 1 1 1 1 1 
1 1 1 1 1 1 1 1 1 
1 1 1 1 1 1 1 1 1 
1 1 1 1 1 1 1 1 1 
1 1 1 1 1 1 1 1 1 
1 1 1 1 1 1 1 1 1 
1 1 1 1 1 1 1 1 1 
1 1 1 1 1 1 1 1 1 
1 1 1 1 1 1 1 1 1 
1 1 1 1 1 1 1 1 1 
1 1 1 1 1 1 1 1 1 
1 1 1 1 1 1 1 1 1 
1 1 1 1 1 1 1 1 1 
1 1 1 1 1 1 1 1 1 
1 1 1 1 1 1 1 1 1 
1 1 1 1 1 1 1 1 1 
1 1 1 1 1 1 1 1 1 
1 1 1 1 1 1 1 1 1 
1 1 1 1 1 1 1 1 1 
1 1 1 1 1 1 1 1 1 
1 1 1 1 1 1 1 1 1 
1 1 1 1 1 1 1 1 1 
1 1 1 1 1 1 1 1 1 
1 1 1 1 1 1 1 1 1 
1 1 1 1 1 1 1 1 1 
1 1 1 1 1 1 1 1 1 
1 1 1 1 1 1 1 1 1 
1 1 1 1 1 1 1 1 1 
1 1 1 1 1 1 1 1 1 
1 1 1 1 1 1 1 1 1 
1 1 1 1 1 1 1 1 1 
1 1 1 1 1 1 1 1 1 
1 1 1 1 1 1 1 1 1 
1 1 1 1 1 1 1 1 1 
1 1 1 1 1 1 1 1 1 
1 1 1 1 1 1 1 1 1 
1 1 1 1 1 1 1 1 1 
1 1 1 1 1 1 1 1 1 
1 1 1 1 1 1 1 1 1 
1 1 1 1 1 1 1 1 1 
1 1 1 1 1 1 1 1 1 
1 1 1 1 1 1 1 1 1 
1 1 1 1 1 1 1 1 1 
1 1 1 1 1 1 1 1 1 
1 1 1 1 1 1 1 1 1 
1 1 1 1 1 1 1 1 1 
1 1 1 1 1 1 1 1 1 
1 1 1 1 1 1 1 1 1 
1 1 1 1 1 1 1 1 1 
1 1 1 1 1 1 1 1 1 
1 1 1 1 1 1 1 1 1 
1 1 1 1 1 1 1 1 1 
1 1 1 1 1 1 1 1 1 
1 1 1 1 1 1 1 1 1 
1 1 1 1 1 1 1 1 1 
1 1 1 1 1 1 1 1 1 
1 1 1 1 1 1 1 1 1 
1 1 1 1 1 1 1 1 1 
1 1 1 1 1 1 1 1 1 
1 1 1 1 1 1 1 1 1 
1 1 1 1 1 1 1 1 1 
1 1 1 1 1 1 1 1 1 
1 1 1 1 1 1 1 1 1 
1 1 1 1 1 1 1 1 1 
1 1 1 1 1 1 1 1 1 
1 1 1 1 1 1 1 1 1 
1 1 1 1 1 1 1 1 1 
1 1 1 1 1 1 1 1 1 
1 1 1 1 1 1 1 1 1 
1 1 1 1 1 1 1 1 1 
1 1 1 1 1 1 1 1 1 
1 1 1 1 1 1 1 1 1 
1 1 1 1 1 1 1 1 1 
1 1 1 1 1 1 1 1 1 
1 1 1 1 1 1 1 1 1 
1 1 1 1 1 1 1 1 1 
1 1 1 1 1 1 1 1 1 
1 1 1 1 1 1 1 1 1 
1 1 1 1 1 1 1 1 1 
1 1 1 1 1 1 1 1 1 
1 1 1 1 1 1 1 1 1 
1 1 1 1 1 1 1 1 1 
1 1 1 1 1 1 1 1 1 
1 1 1 1 1 1 1 1 1 
1 1 1 1 1 1 1 1 1 
1 1 1 1 1 1 1 1 1 
1 1 1 1 1 1 1 1 1 
1 1 1 1 1 1 1 1 1 
1 1 1 1 1 1 1 1 1 
1 1 1 1 1 1 1 1 1 
1 1 1 1 1 1 1 1 1 
1 1 1 1 1 1 1 1 1 
1 1 1 1 1 1 1 1 1 
1 1 1 1 1 1 1 1 1 
1 1 1 1 1 1 1 1 1 
1 1 1 1 1 1 1 1 1 
1 1 1 1 1 1 1 1 1 
1 1 1 1 1 1 1 1 1 
1 1 1 1 1 1 1 1 1 
1 1 1 1 1 1 1 1 1 
1 1 1 1 1 1 1 1 1 
1 1 1 1 1 1 1 1 1 
1 1 1 1 1 1 1 1 1 
1 1 1 1 1 1 1 1 1 
1 1 1 1 1 1 1 1 1 
1 1 1 1 1 1 1 1 1 
1 1 1 1 1 1 1 1 1 
1 1 1 1 1 1 1 1 1 
1 1 1 1 1 1 1 1 1 
1 1 1 1 1 1 1 1 1 
1 1 1 1 1 1 1 1 1 
1 1 1 1 1 1 1 1 1 
1 1 1 1 1 1 1 1 1 
1 1 1 1 1 1 1 1 1 
1 1 1 1 1 1 1 1 1 
1 1 1 1 1 1 1 1 1 
1 1 1 1 1 1 1 1 1 
1 1 1 1 1 1 1 1 1 
1 1 1 1 1 1 1 1 1 
1 1 1 1 1 1 1 1 1 
1 1 1 1 1 1 1 1 1 
1 1 1 1 1 1 1 1 1 
1 1 1 1 1 1 1 1 1 
1 1 1 1 1 1 1 1 1 
1 1 1 1 1 1 1 1 1 
1 1 1 1 1 1 1 1 1 
1 1 1 1 1 1 1 1 1 
1 1 1 1 1 1 1 1 1 
1 1 1 1 1 1 1 1 1 
1 1 1 1 1 1 1 1 1 
1 1 1 1 1 1 1 1 1 
1 1 1 1 1 1 1 1 1 
1 1 1 1 1 1 1 1 1 
1 1 1 1 1 1 1 1 1 
1 1 1 1 1 1 1 1 1 
1 1 1 1 1 1 1 1 1 
1 1 1 1 1 1 1 1 1 
1 1 1 1 1 1 1 1 1 
1 1 1 1 1 1 1 1 1 
1 1 1 1 1 1 1 1 1 
1 1 1 1 1 1 1 1 1 
1 1 1 1 1 1 1 1 1 
1 1 1 1 1 1 1 1 1 
1 1 1 1 1 1 1 1 1 
1 1 1 1 1 1 1 1 1 
1 1 1 1 1 1 1 1 1 
1 1 1 1 1 1 1 1 1 
1 1 1 1 1 1 1 1 1 
1 1 1 1 1 1 1 1 1 
1 1 1 1 1 1 1 1 1 
1 1 1 1 1 1 1 1 1 
1 1 1 1 1 1 1 1 1 
1 1 1 1 1 1 1 1 1 
1 1 1 1 1 1 1 1 1 
1 1 1 1 1 1 1 1 1 
1 1 1 1 1 1 1 1 1 
1 1 1 1 1 1 1 1 1 
1 1 1 1 1 1 1 1 1 
1 1 1 1 1 1 1 1 1 
1 1 1 1 1 1 1 1 1 
1 1 1 1 1 1 1 1 1 
1 1 1 1 1 1 1 1 1 
1 1 1 1 1 1 1 1 1 
1 1 1 1 1 1 1 1 1 
1 1 1 1 1 1 1 1 1 
1 1 1 1 1 1 1 1 1 
1 1 1 1 1 1 1 1 1 
1 1 1 1 1 1 1 1 1 
1 1 1 1 1 1 1 1 1 
1 1 1 1 1 1 1 1 1 
1 1 1 1 1 1 1 1 1 
1 1 1 1 1 1 1 1 1 
1 1 1 1 1 1 1 1 1 
1 1 1 1 1 1 1 1 1 
1 1 1 1 1 1 1 1 1 
1 1 1 1 1 1 1 1 1 
1 1 1 1 1 1 1 1 1 
1 1 1 1 1 1 1 1 1 
1 1 1 1 1 1 1 1 1 
1 1 1 1 1 1 1 1 1 
1 1 1 1 1 1 1 1 1 
1 1 1 1 1 1 1 1 1 
1 1 1 1 1 1 1 1 1 
1 1 1 1 1 1 1 1 1 
1 1 1 1 1 1 1 1 1 
1 1 1 1 1 1 1 1 1 
1 1 1 1 1 1 1 1 1 
1 1 1 1 1 1 1 1 1 
1 1 1 1 1 1 1 1 1 
1 1 1 1 1 1 1 1 1 
1 1 1 1 1 1 1 1 1 
1 1 1 1 1 1 1 1 1 
1 1 1 1 1 1 1 1 1 
1 1 1 1 1 1 1 1 1 
1 1 1 1 1 1 1 1 1 
1 1 1 1 1 1 1 1 1 
1 1 1 1 1 1 1 1 1 
1 1 1 1 1 1 1 1 1 
1 1 1 1 1 1 1 1 1 
1 1 1 1 1 1 1 1 1 
1 1 1 1 1 1 1 1 1 
1 1 1 1 1 1 1 1 1 
1 1 1 1 1 1 1 1 1 
1 1 1 1 1 1 1 1 1 
1 1 1 1 1 1 1 1 1 
1 1 1 1 1 1 1 1 1 
1 1 1 1 1 1 1 1 1 
1 1 1 1 1 1 1 1 1 
1 1 1 1 1 1 1 1 1 
1 1 1 1 1 1 1 1 1 
1 1 1 1 1 1 1 1 1 
1 1 1 1 1 1 1 1 1 
1 1 1 1 1 1 1 1 1 
1 1 1 1 1 1 1 1 1 
1 1 1 1 1 1 1 1 1 
1 1 1 1 1 1 1 1 1 
1 1 1 1 1 1 1 1 1 
1 1 1 1 1 1 1 1 1 
1 1 1 1 1 1 1 1 1 
1 1 1 1 1 1 1 1 1 
1 1 1 1 1 1 1 1 1 
1 1 1 1 1 1 1 1 1 
1 1 1 1 1 1 1 1 1 
1 1 1 1 1 1 1 1 1 
1 1 1 1 1 1 1 1 1 
1 1 1 1 1 1 1 1 1 
1 1 1 1 1 1 1 1 1 
1 1 1 1 1 1 1 1 1 
1 1 1 1 1 1 1 1 1 
1 1 1 1 1 1 1 1 1 
1 1 1 1 1 1 1 1 1 
1 1 1 1 1 1 1 1 1 
1 1 1 1 1 1 1 1 1 
1 1 1 1 1 1 1 1 1 
1 1 1 1 1 1 1 1 1 
1 1 1 1 1 1 1 1 1 
1 1 1 1 1 1 1 1 1 
1 1 1 1 1 1 1 1 1 
1 1 1 1 1 1 1 1 1 
1 1 1 1 1 1 1 1 1 
1 1 1 1 1 1 1 1 1 
1 1 1 1 1 1 1 1 1 
1 1 1 1 1 1 1 1 1 
1 1 1 1 1 1 1 1 1 
1 1 1 1 1 1 1 1 1 
1 1 1 1 1 1 1 1 1 
1 1 1 1 1 1 1 1 1 
1 1 1 1 1 1 1 1 1 
1 1 1 1 1 1 1 1 1 
1 1 1 1 1 1 1 1 1 
1 1 1 1 1 1 1 1 1 
1 1 1 1 1 1 1 1 1 
1 1 1 1 1 1 1 1 1 
1 1 1 1 1 1 1 1 1 
1 1 1 1 1 1 1 1 1 
1 1 1 1 1 1 1 1 1 
1 1 1 1 1 1 1 1 1 
1 1 1 1 1 1 1 1 1 
1 1 1 1 1 1 1 1 1 
1 1 1 1 1 1 1 1 1 
1 1 1 1 1 1 1 1 1 
1 1 1 1 1 1 1 1 1 
1 1 1 1 1 1 1 1 1 
1 1 1 1 1 1 1 1 1 
1 1 1 1 1 1 1 1 1 
1 1 1 1 1 1 1 1 1 
1 1 1 1 1 1 1 1 1 
1 1 1 1 1 1 1 1 1 
1 1 1 1 1 1 1 1 1 
1 1 1 1 1 1 1 1 1 
1 1 1 1 1 1 1 1 1 
1 1 1 1 1 1 1 1 1 
1 1 1 1 1 1 1 1 1 
1 1 1 1 1 1 1 1 1 
1 1 1 1 1 1 1 1 1 
1 1 1 1 1 1 1 1 1 
1 1 1 1 1 1 1 1 1 
1 1 1 1 1 1 1 1 1 
1 1 1 1 1 1 1 1 1 
1 1 1 1 1 1 1 1 1 
1 1 1 1 1 1 1 1 1 
1 1 1 1 1 1 1 1 1 
1 1 1 1 1 1 1 1 1 
1 1 1 1 1 1 1 1 1 
1 1 1 1 1 1 1 1 1 
1 1 1 1 1 1 1 1 1 
1 1 1 1 1 1 1 1 1 
1 1 1 1 1 1 1 1 1 
1 1 1 1 1 1 1 1 1 
1 1 1 1 1 1 1 1 1 
1 1 1 1 1 1 1 1 1 
1 1 1 1 1 1 1 1 1 
1 1 1 1 1 1 1 1 1 
1 1 1 1 1 1 1 1 1 
1 1 1 1 1 1 1 1 1 
1 1 1 1 1 1 1 1 1 
1 1 1 1 1 1 1 1 1 

NORMALS Normals float
-0.146234 -0.663093 -0.734114 -0.000636604 -0.730044 -0.6834 0.238458 -0.918312 -0.315977 
-0.086773 -0.17234 -0.981208 0.0847896 -0.48979 -0.867707 0.166327 0.266504 -0.949374 
0.116706 0.122186 -0.985622 0.465339 -0.87867 -0.106762 0.576111 -0.644252 -0.503027 
0.904386 0.208496 -0.37231 0.894183 0.141075 -0.424893 -0.17939 -0.664074 -0.725827 
-0.0158859 -0.972028 -0.234326 0.224402 -0.962506 -0.152403 -0.309552 -0.402881 -0.861316 
-0.228783 -0.605579 -0.762189 0.751588 -0.495767 0.435121 0.787502 -0.453188 0.417687 
0 -0.116042 -0.993244 0 -0.99336 -0.11505 -0.897652 -0.431672 -0.0887646 
0.897652 -0.431672 -0.0887646 -0.434333 -0.710169 -0.55409 -0.390485 -0.641389 -0.66041 
0.907826 -0.369116 0.199009 0.717868 0.324256 -0.616055 0 0.447214 -0.894427 
0.995158 0.0948408 0.025795 -0.530612 -0.475075 -0.701964 -0.347994 -0.231015 -0.908588 
-0.0862333 0.0969733 -0.991544 0.718012 0.483452 -0.500733 0.854039 0.469998 -0.222979 
-0.212822 0.345953 -0.913796 -0.00728363 0.452759 -0.891603 -0.135786 -0.956012 -0.260006 
0.335553 -0.929649 0.152175 -0.418071 -0.556373 -0.718099 -0.320104 -0.838133 -0.441663 
-0.453911 -0.640004 -0.619968 0 -0.271731 0.962373 0.951435 -0.0117961 0.307624 
0.659771 0.36076 -0.659208 0.98816 -0.120014 0.0955893 -0.335806 0.13075 -0.932812 
0.613707 0.588554 -0.526277 0.968229 -0.0472466 -0.245562 0.953431 0.261133 -0.150925 
0.26361 0.587995 -0.764703 0.663637 0.645796 -0.377536 -0.286941 0.245822 -0.925871 
-0.0749593 0.458517 -0.885519 -0.325156 -0.940166 -0.101787 -0.246517 -0.934994 -0.25498 
-0.185341 -0.982428 0.0220199 0.0301687 -0.957645 0.286368 0.0219366 -0.988069 0.152441 
0.150831 -0.979883 0.13069 0.345145 -0.849878 0.398224 -0.283275 -0.95879 -0.0218342 
-0.407705 -0.910063 -0.0745769 -0.550503 -0.781387 -0.293906 -0.502542 -0.308232 -0.807741 
-0.563126 -0.583432 -0.585232 0.959962 -0.168104 0.224085 0.917229 -0.116104 0.381066 
-0.573499 -0.430258 -0.69712 0.85975 0.496068 -0.121432 -0.405405 -0.168141 -0.898541 
-0.528868 -0.533413 -0.660128 -0.751809 -0.408396 -0.517682 0.399916 0.585215 -0.705401 
0.585485 0.571482 -0.574993 0.609559 0.544266 -0.576378 -0.287205 -0.934347 0.210971 
-0.0343402 -0.906316 0.421203 0.50052 -0.66731 0.551522 -0.33683 -0.884205 0.323618 
-0.378497 -0.918182 0.116971 -0.518529 -0.853507 -0.0515214 -0.574703 -0.778424 -0.252532 
0.700519 -0.432237 0.567842 -0.469936 -0.585328 -0.660721 -0.58269 -0.606183 -0.541308 
0.931086 0.361655 0.047804 -0.37057 0.0398964 -0.927947 -0.512981 0.0828654 -0.854391 
0.486256 0.725753 -0.486661 0.887865 0.459485 -0.0238684 -0.125111 -0.891262 0.435889 
-0.106662 -0.902261 0.41779 0.177019 -0.728666 0.661597 -0.393106 -0.902905 0.173869 
-0.326467 -0.88514 0.331581 0.321316 -0.692622 0.645779 -0.194904 -0.833987 0.516216 
-0.477826 -0.85875 0.185013 0.859082 -0.154741 0.487886 -0.666424 -0.494261 -0.558199 
-0.646617 -0.451008 -0.615206 -0.608986 -0.712526 -0.348487 0.945531 0.222586 0.237542 
-0.50766 -0.0650072 -0.859102 0.684913 0.6577 -0.313567 0.929098 0.35046 0.118132 
-0.521314 0.285496 -0.804191 0.802392 0.589478 -0.0931815 0.397601 0.657825 -0.639672 
0.0872579 0.643421 -0.760524 0.324812 0.706219 -0.629089 0.141562 -0.70219 0.697774 
-0.681376 -0.262574 -0.683214 0.917989 0.138573 0.37161 -0.702621 -0.365483 -0.610529 
-0.708898 -0.458651 -0.53582 -0.335102 0.296205 -0.89441 -0.269628 0.536877 -0.799415 
0.4492 0.779953 -0.435767 0.645399 0.647286 -0.405563 -0.150122 -0.841089 0.519646 
-0.0465058 -0.734653 0.676847 -0.538841 -0.820612 -0.190384 0.699687 -0.296519 0.650011 
-0.650061 -0.718627 -0.246974 -0.811519 -0.350942 -0.467201 0.730587 0.628323 -0.267306 
0.600762 0.783152 -0.160496 0.42501 0.747448 -0.510576 0.656706 0.670293 -0.345607 
0.02957 0.699405 -0.714114 -0.363568 -0.867172 0.340339 -0.316471 -0.834926 0.450272 
0.705666 -0.202017 0.679135 -0.71583 -0.662374 -0.221014 -0.636955 -0.767352 0.0738898 
-0.612108 -0.785712 0.0893373 -0.823987 -0.278741 -0.493305 -0.832761 -0.062497 -0.550094 
0.860793 0.498854 0.100895 0.754073 0.606271 -0.252605 0.138378 0.715449 -0.684824 
0.419941 0.777487 -0.468149 0.265957 -0.561328 0.783695 -0.183326 -0.719053 0.670339 
0.117007 -0.61888 0.776722 0.242015 -0.515825 0.821799 -0.704353 -0.702364 -0.102817 
-0.732008 -0.679258 -0.0526656 0.889027 0.456533 0.0347588 0.809437 0.585801 0.0406132 
0.40825 0.730912 -0.5469 0.703862 0.710325 0.00395377 0.733663 0.67771 -0.0494707 
0.602127 -0.289628 0.744015 -0.4022 -0.863615 0.30398 -0.579275 -0.791383 0.195329 
-0.835985 -0.53051 -0.140314 0.818502 0.309446 0.484043 0.815629 0.101205 0.569655 
0.0474446 0.791222 -0.609686 0.197986 0.81875 -0.538935 -0.72257 -0.684328 0.0979164 
0.100188 -0.604375 0.790375 -0.858778 -0.481843 -0.174149 -0.606884 -0.758732 0.23668 
0.520622 -0.287931 0.803771 0.690615 -0.00479327 0.723206 -0.891371 -0.302503 -0.337565 
-0.868304 -0.000683343 -0.496033 -0.772334 0.0899256 -0.628819 0.316636 0.823525 -0.47069 
0.698522 0.681663 -0.217719 -0.1606 -0.728772 0.665657 -0.14161 -0.750482 0.645541 
0.0628857 -0.673949 0.736096 0.921275 0.246858 0.300522 0.92282 0.328021 0.202004 
0.926677 0.37432 0.0339863 0.639261 0.707438 -0.301458 0.779529 0.591798 -0.205208 
0.149103 0.811537 -0.564957 -0.808418 -0.588608 -0.000956485 -0.329881 -0.817306 0.472429 
0.278698 -0.498466 0.82089 -0.786353 -0.617619 0.0139989 -0.898999 -0.275341 -0.34057 
0.489796 -0.396076 0.776675 0.735597 -0.123905 0.665991 -0.759882 0.0937278 -0.643268 
0.818263 -0.112679 0.563692 -0.405163 0.552419 -0.728475 -0.477764 -0.809929 0.34023 
-0.751487 -0.630651 -0.193769 -0.828572 -0.543914 -0.132762 0.189422 -0.581489 0.791196 
-0.858652 -0.342989 -0.380888 0.851004 -0.0848962 0.518252 -0.589292 0.33391 -0.735689 
0.540875 0.760416 -0.359475 0.45171 0.816129 -0.360404 -0.296895 -0.944514 0.140521 
-0.603204 -0.792571 0.0893103 0.475558 -0.53062 0.701632 0.820042 -0.0440654 0.570605 
-0.795771 -0.150311 -0.586647 0.866349 0.48148 0.132726 0.63559 0.734291 -0.238416 
0.903987 0.327891 0.274399 0.745579 0.662285 -0.0741037 0.667708 -0.277134 0.690914 
-0.694362 -0.67616 -0.246309 -0.316149 0.669677 -0.671998 0.87271 0.445432 0.199918 
-0.0959399 -0.90827 0.407237 0.228812 -0.704375 0.671938 0.362795 -0.496177 0.788789 
-0.573091 -0.780338 -0.250278 0.422344 -0.631127 0.650618 0.463551 -0.583673 0.666668 
-0.683894 -0.40292 -0.60823 -0.642169 -0.0363847 -0.765699 -0.440601 0.288665 -0.850026 
0.914545 0.189761 0.357209 -0.573872 -0.794006 -0.200562 0.469252 -0.594101 0.653334 
-0.733407 -0.34913 -0.583286 -0.621144 -0.271589 -0.735132 -0.310835 0.431325 -0.84696 
-0.589213 0.258312 -0.765574 -0.430346 0.187417 -0.882993 0.900325 0.427402 0.0821041 
0.575371 0.767091 -0.28376 0.760383 0.639184 -0.11516 -0.237348 -0.93357 0.268537 
-0.44439 -0.8949 -0.0408985 -0.598549 -0.740135 -0.306495 0.612866 -0.373699 0.696236 
0.845047 0.534532 0.0130581 0.652576 0.730144 -0.202571 0.772851 0.633096 -0.0434945 
-0.650388 -0.656197 -0.382624 -0.684842 -0.486167 -0.542801 -0.629672 -0.119947 -0.767545 
-0.483683 0.453026 -0.748877 -0.703343 0.0400196 -0.709723 0.812623 -0.178111 0.554905 
-0.609303 0.332855 -0.719693 -0.13228 0.806849 -0.575757 0.860637 0.499115 0.100939 
-0.606943 -0.740719 -0.28802 -0.369322 -0.929282 0.00596303 -0.666649 -0.468715 -0.579557 
0.918394 0.312895 0.242175 -0.116017 0.896899 -0.426747 0.559114 0.763331 -0.323601 
-0.451476 -0.89059 -0.0549371 -0.627079 0.498313 -0.598712 -0.0708377 -0.251222 -0.965334 
0.109608 -0.35383 -0.928865 0.185806 -0.112682 -0.976104 -0.0527322 -0.249559 -0.966923 
-0.0708046 -0.317666 -0.945555 0.0898646 -0.148551 -0.984813 0.182011 -0.450304 -0.874127 
-0.0974918 -0.0269395 -0.994872 -0.104855 0.253946 -0.961518 0.172999 -0.343103 -0.923229 
0.158403 -0.146873 -0.97639 0.178139 0.0241643 -0.983709 0.381828 -0.346935 -0.856647 
-0.262456 -0.942251 0.208037 -0.608583 -0.0714586 -0.790266 0.130676 -0.773347 0.620369 
-0.50977 0.351985 -0.78501 -0.172666 0.657924 -0.733023 0.381715 -0.677386 0.628842 
0.275043 -0.111575 -0.954936 0.159464 0.0987366 -0.982254 0.255938 0.325602 -0.910208 
-0.116435 0.912103 -0.393079 -0.156749 -0.42342 -0.89227 -0.00422696 -0.371157 -0.928561 
-0.107391 -0.131104 -0.985535 -0.0157857 -0.475477 -0.879586 -0.157309 -0.208927 -0.965196 
0.0899444 -0.573824 -0.814025 0.219054 -0.452141 -0.864629 -0.168299 0.107643 -0.979841 
0.0802365 -0.663698 -0.743685 0.161585 -0.50188 -0.84971 -0.0251831 -0.0328251 -0.999144 
-0.16073 0.3008 -0.940045 -0.0818662 0.254812 -0.963519 0.16362 0.131825 -0.977676 
-0.132602 -0.959487 0.248599 0.0173195 -0.923476 0.383266 -0.358842 -0.608467 -0.707814 
-0.389058 -0.229162 -0.892255 -0.382398 0.28265 -0.879705 0.102797 -0.248924 -0.963052 
0.0596461 0.0513368 -0.996899 0.330239 0.706121 -0.626367 -0.113621 -0.026293 -0.993176 
-0.0399879 -0.714688 -0.698299 0.0156014 -0.552263 -0.833524 -0.185294 -0.0305705 -0.982208 
0.0521615 -0.702705 -0.709566 0.239218 -0.353424 -0.904359 0.0735411 0.306535 -0.949014 
0.572544 -0.23523 -0.785405 0.567073 -0.00863453 -0.823622 0.230427 0.306634 -0.923514 
-0.42306 -0.798279 -0.428686 -0.288822 -0.379726 -0.878857 -0.153347 -0.203174 -0.96706 
-0.19763 -0.2348 -0.951741 -0.181505 0.10955 -0.977269 -0.272009 -0.346788 -0.897635 
-0.0268769 0.0657705 -0.997473 0.203051 0.52799 -0.824619 0.956655 0.202936 0.208872 
-0.306561 -0.162079 -0.93795 -0.158673 0.165913 -0.973291 0.0914464 0.324211 -0.941554 
-0.309559 -0.13766 -0.940863 -0.185087 -0.228444 -0.955801 -0.300981 0.0760556 -0.950592 
0.118707 -0.75667 -0.642931 0.144798 -0.784545 -0.602929 -0.241752 0.13387 -0.961059 
0.114773 -0.762336 -0.636922 -0.326021 0.393012 -0.859798 0.327881 -0.67518 -0.660776 
-0.232416 0.649731 -0.723763 0.538669 0.13576 -0.831508 0.574808 0.206817 -0.791721 
0 -0.0241743 -0.999708 -0.967805 -0.241951 -0.0693776 -0.993784 -0.0709775 -0.0857588 
0.993784 -0.0709775 -0.0857588 0 0.184289 -0.982872 -0.264317 -0.76184 -0.591385 
-0.0806434 -0.563019 -0.8225 -0.14302 0.573809 -0.806405 0.82832 -0.335849 0.448432 
0.130438 0.2918 -0.947543 0.510782 0.738212 -0.440618 -0.463873 -0.114884 -0.878421 
-0.13938 -0.304747 -0.94218 0.0857792 -0.860257 -0.502594 -0.384581 0.151341 -0.910601 
-0.362498 0.308535 -0.879432 0.0966287 -0.900318 -0.42437 0.0807837 0.515941 -0.852807 
0.566228 0.414448 -0.712474 0 -0.0921362 0.995746 -0.0890706 -0.913378 -0.397248 
-0.227883 -0.669755 -0.706751 -0.371506 -0.523351 -0.766868 0.300406 0.454028 -0.838817 
0.986744 -0.041187 0.156974 0.272196 0.39698 -0.876537 -0.210831 -0.48084 -0.851084 
-0.128831 -0.631209 -0.764839 0.0247397 -0.547481 -0.836452 0.059788 -0.80579 -0.589176 
0.0577876 -0.907011 -0.417123 0.194893 -0.868675 -0.455434 -0.515398 0.274604 -0.811762 