# vtk DataFile Version 4.2
vtk output
ASCII
DATASET POLYDATA
POINTS 5060 float
422.349 134.051 89.6504 422.186 137.313 89.8084 422.884 122.167 90.0907 
423.705 123.261 90.0315 423.009 124.559 89.9211 422.478 130.753 89.7583 
423.786 132.592 89.8963 420.414 136.362 89.7857 421.387 139.18 90.1373 
422.326 141.074 90.4735 425.227 113.986 91.0198 425.525 115.263 90.9357 
422.993 116.968 90.6392 426.152 116.819 91.0115 424.022 119.161 90.4438 
425.831 120.527 90.7924 425.418 123.528 90.5299 419.062 125.996 90.6448 
420.798 125.008 90.1241 420.941 129.718 89.8958 417.487 130.966 90.9337 
423.698 130.65 89.9507 419.185 133.088 90.0904 418.275 136.291 90.6668 
418.36 139.623 91.097 423.153 142.935 91.2862 425.711 98.8989 92.5669 
425.435 101.319 92.2619 425.587 102.069 92.1914 427.154 101.3 92.4426 
422.367 111.659 91.5712 425.65 111.066 91.5083 426.31 111.783 91.5705 
422.139 113.451 91.2982 420.436 115.067 91.5674 427.308 118.4 91.4966 
417.281 129.038 91.3241 425.846 132.707 90.7984 425.216 138.314 90.9827 
418.164 139.017 91.1183 419.121 140.725 91.1484 423.6 144.679 92.1474 
424.73 145.316 92.914 426.01 97.5621 92.8201 424.535 100.735 92.4707 
424.697 104.329 91.9901 428.45 104.402 92.818 421.443 105.639 92.7626 
422.975 106.071 92.0873 428.448 108.557 92.6461 419.208 112.599 92.739 
427.923 124.987 91.9697 427.424 135.167 92.2295 417.705 142.234 92.2495 
423.875 146.45 93.235 427.268 91.7503 94.0762 427.562 92.7601 93.917 
427.937 92.3603 94.0417 425.864 93.4206 93.8497 425.187 94.3044 93.7952 
425.314 95.8359 93.4139 427.439 99.5812 92.6717 422.556 101.437 93.0986 
429.961 108.615 93.6321 419.073 109.049 93.6659 416.425 122.452 93.1757 
429.508 124.498 93.3536 429.199 130.691 93.538 415.02 132.744 93.0257 
426.731 141.744 93.0808 425.309 144.876 93.0939 422.921 147.096 93.5146 
424.457 146.524 93.6206 428.304 82.1399 95.5464 428.764 82.7645 95.488 
427.3 84.0789 95.2337 428.266 84.4796 95.1857 428.68 86.8746 94.9924 
427.226 88.4731 94.6403 429.392 87.4622 95.1037 428.665 88.9077 94.7435 
424.106 92.7221 94.4988 428.838 93.3885 94.1086 418.289 110.333 94.229 
417.216 114.163 94.5198 413.497 131.221 94.8631 413.513 131.118 94.909 
413.482 131.214 94.8912 413.536 131.233 94.837 413.483 131.254 94.8618 
413.483 131.278 94.857 419.505 145.488 93.0241 420.468 148.512 94.6772 
424.582 147.608 94.8436 421.667 149.234 95.1508 422.932 149.784 95.6614 
423.07 149.78 95.6935 428.971 79.0682 96.362 427.737 80.2103 96.1222 
429.427 79.8919 96.2448 426.372 84.1642 95.389 424.668 85.9616 95.6343 
425.019 87.3478 95.1384 423.277 88.6565 95.8755 425.884 88.8588 94.6953 
430.697 91.9541 95.0872 419.62 101.635 95.2217 431.28 109.83 94.9167 
413.462 131.198 94.9759 413.562 130.829 94.9579 413.679 131.169 94.7183 
413.523 131.37 94.8773 413.521 141.404 95.2522 415.079 143.738 94.4967 
426.493 144.977 94.4623 415.11 146.739 95.8247 426.614 145.68 95.3976 
419.887 149.599 95.9826 423.169 149.796 95.8054 423.246 149.639 95.6843 
421.633 149.973 96.2065 422.851 149.994 96.0934 428.023 77.1025 97.0913 
426.93 78.5999 96.8446 426.347 80.3985 96.4134 425.222 84.61 95.6767 
431.929 87.1142 96.369 421.775 91.7552 96.3038 432.41 91.4927 96.2041 
417.564 106.179 96.2334 432.055 111.362 95.8533 415.114 119.467 95.7444 
431.835 123.547 96.1128 430.003 138.346 96.5014 428.693 141.048 95.5315 
416.209 149.027 96.8825 425.409 147.379 95.8773 417.372 149.792 97.0184 
419.157 149.355 95.9235 418.3 149.901 96.9399 420.054 150.089 96.9928 
421.192 150.122 96.8577 422.857 150.054 96.3114 422.704 150.104 96.4821 
428.708 74.8658 97.8666 430.866 78.6782 97.0777 426.071 78.9951 97.0577 
424.808 79.4858 97.6146 430.972 81.0304 96.6491 425.143 81.4061 96.6718 
421.593 88.6971 97.3375 433.763 95.3569 97.1558 433.031 100.244 96.4772 
413.169 124.236 97.413 412.551 133.547 96.3814 428.207 143.189 96.4344 
423.648 149.416 96.5559 423.056 149.844 96.823 421.677 150.096 97.3508 
430.092 72.5951 98.8588 430.526 74.1887 98.3408 431.211 73.5266 98.771 
420.596 89.7239 98.3154 418.899 95.4921 98.5706 412 129.009 98.0174 
412 129.009 98.0175 412 129.009 98.0175 412 129.009 98.0175 
412 129.009 98.0175 432.499 131.456 98.4505 427.845 144.206 97.192 
427.385 144.965 97.4252 412.295 146.786 98.5979 427.351 144.991 98.0993 
424.572 148.376 97.1447 421.845 149.732 98.4254 417.266 150.788 99.0009 
418.532 150.574 98.638 430.516 69.9436 100.061 428.376 70.9644 99.8984 
433.105 75.1453 99.2282 423.989 77.8539 98.9971 416 105.009 99.0174 
416 105.009 99.0175 416 105.009 99.0175 416 105.009 99.0175 
416 105.009 99.0175 434.147 119.438 99.2327 412 129.009 98.0175 
429.987 140.91 98.5267 428.877 142.933 98.4254 427.357 144.87 98.5855 
426.443 145.968 98.1318 411.768 147.301 99.7311 414.026 148.691 98.3587 
414.427 149.832 99.607 415.848 150.629 99.6637 432.624 68.7892 100.836 
432.861 71.6807 100.023 416 105.009 99.0175 411 128.009 100.017 
411 128.009 100.017 411 128.009 100.017 411 128.009 100.017 
411 128.009 100.017 410.194 142.668 99.4701 426.029 145.413 99.5354 
422.542 147.088 100.845 426.495 145.612 98.736 411.907 148.173 100.67 
412.92 149.062 100.635 420.892 149.335 100.307 420.13 149.911 100.15 
419.251 150.431 99.7708 416.065 150.801 99.976 416.154 150.831 100.23 
416.392 150.896 99.9816 433.431 67.2318 101.79 430.333 67.431 101.348 
429.427 67.5993 101.53 434.609 70.6359 101.279 425.33 72.0838 101.201 
434.862 75.1288 100.566 421.452 80.2767 100.994 416.781 99.1149 101.28 
411 128.009 100.018 423.057 142.995 102.125 422.974 142.547 102.361 
423.083 142.633 102.22 430.057 141.316 99.8057 423.207 143.576 101.844 
423.289 143.117 101.949 429.57 141.945 100.575 408.67 143.257 102.086 
422.965 144.744 101.745 423.047 145.425 101.269 428.988 142.738 100.452 
424.395 144.987 100.685 425.636 145.392 99.8199 421.804 148.046 101.059 
421.974 147.48 101.659 412.465 148.831 101.108 418.433 150.525 100.739 
432.328 65.2699 102.558 433.361 65.4178 102.647 434.791 66.2371 102.852 
435.897 69.8707 102.423 425.432 70.698 102.148 436.087 76.103 101.5 
408.162 137.08 102.689 432.988 136.804 102.123 423.386 140.179 103.205 
423.002 141.623 102.66 423.024 141.217 102.841 422.95 141.965 102.579 
422.925 142.718 102.44 422.953 144.367 102.515 422.798 145.274 102.335 
422.991 144.82 102.805 409.044 145.19 102.616 422.5 146.339 102.634 
412.448 148.895 102.016 414.193 149.858 101.554 417.685 150.53 101.249 
431.965 63.5065 103.761 435.407 64.3804 103.971 426.627 68.2377 102.941 
434.373 134.114 103.597 423.124 138.799 103.791 423.376 137.913 104.237 
423.095 139.104 103.685 423.489 138.787 103.942 423.676 139.332 103.709 
423.693 139.137 103.927 423.099 139.995 103.366 424.105 139.299 103.94 
432.312 138.024 102.786 422.96 141.53 102.778 423.047 140.907 103.08 
431.257 139.181 102.512 422.931 142.593 102.649 430.317 140.289 102.371 
428.845 141.772 101.795 423.474 145.081 103.986 409.113 145.66 103.171 
409.68 146.425 103.225 422.204 146.907 103.309 420.964 148.219 102.94 
411.975 148.564 102.227 411.818 148.435 102.695 415.48 149.791 102.672 
434.087 62.0821 104.869 430.449 63.2125 104.385 435.129 63.9359 104.037 
436.751 68.1183 103.567 422.168 74.7049 103.635 423.274 137.202 104.471 
423.345 136.686 104.653 423.52 137.035 104.586 423.162 138.568 103.931 
423.53 137.172 104.583 423.779 136.924 104.723 423.755 137.007 104.76 
424.178 137.023 104.79 423.121 139.389 103.636 423.464 138.893 103.993 
433.404 136.513 103.596 423.842 139.411 104.088 424.339 138.843 104.504 
424.661 139.032 104.096 424.157 139.705 104.427 432.406 137.69 103.675 
426.706 140.332 103.377 408.204 144.323 104.417 408.87 145.46 104.322 
410.516 147.229 103.754 420.961 147.839 103.92 421.939 147.068 104.239 
412.52 148.627 103.565 418.69 149.735 102.428 434.8 62.912 104.516 
428.069 64.8722 104.533 437.684 68.2319 104.426 441.004 90.6334 105.387 
415.204 101.484 104.57 438.252 113.716 104.992 436.762 122.292 104.402 
407 131.009 105.017 407 131.009 105.017 407 131.009 105.017 
407 131.009 105.017 407.944 130.957 104.722 407 131.009 105.017 
423.328 132.78 106.035 435.563 131.156 105.161 423.269 134.077 105.628 
423.319 134.79 105.348 423.385 135.869 104.965 423.307 135.954 104.977 
423.336 136.445 104.83 425.523 135.902 105.389 423.543 136.858 104.771 
423.811 136.872 104.922 424.086 137.225 104.837 424.641 137.935 104.6 
424.339 137.788 104.912 406.94 138.936 105.35 428.257 137.973 104.892 
433.053 136.771 104.22 430.542 138.226 104.495 432.609 137.254 104.19 
407.116 141.167 105.622 424.561 141.725 104.839 424.291 144.468 105.02 
424.454 143.884 105.002 423.879 145.236 105.098 414.916 148.714 104.489 
438.232 63.9901 106.076 426.301 65.4943 105.89 441.053 85.1281 105.612 
423.352 131.509 106.537 423.296 131.748 106.472 423.352 131.188 106.704 
407 131.009 105.018 423.269 132.311 106.283 423.274 133.522 105.901 
423.283 132.98 106.132 423.417 134.003 105.876 423.308 135.17 105.303 
423.667 134.624 105.848 434.401 134.25 105.191 424.089 136.95 105.155 
424.726 137.512 105.638 430.069 136.904 105.677 430.329 137.183 105.453 
432.685 136.581 105.005 406.893 139.957 106.045 407.239 141.872 106.009 
425.774 141.8 106.438 407.887 143.601 106.038 425.234 143.489 106.45 
424.892 144.088 106.317 421.565 146.575 106.133 424.088 145.107 105.754 
409.658 146.237 105.129 423.384 145.659 105.811 410.634 146.952 104.992 
412.022 147.893 104.602 435.022 58.4938 107.759 437.363 58.691 108.039 
438.954 60.3361 107.919 423.599 130.106 107.122 423.469 130.277 107.132 
436.206 129.745 106.97 406.565 131.398 107.336 434.947 132.809 106.338 
434.544 133.613 106.187 406.398 136.031 106.85 432.81 135.442 106.092 
433.063 136.035 105.229 406.939 140.247 107.495 426.269 141.824 107.378 
424.345 144.723 106.567 421.424 146.022 107.11 417.834 146.985 106.845 
434.059 57.8119 108.387 425.716 64.1074 108.266 440.23 69.2613 107.112 
419.518 76.9731 108.422 441.628 106.069 108.147 423.761 125.064 108.996 
[...]
POINT_DATA 5060
SCALARS scalars float
LOOKUP_TABLE default
1 1 1 1 1 1 1 1 1 
1 1 1 1 1 1 1 1 1 
1 1 1 1 1 1 1 1 1 
1 1 1 1 1 1 1 1 1 
1 1 1 1 1 1 1 1 1 
1 1 1 1 1 1 1 1 1 
1 1 1 1 1 1 1 1 1 
1 1 1 1 1 1 1 1 1 
1 1 1 1 1 1 1 1 1 
1 1 1 1 1 1 1 1 1 
1 1 1 1 1 1 1 1 1 
1 1 1 1 1 1 1 1 1 
1 1 1 1 1 1 1 1 1 
1 1 1 1 1 1 1 1 1 
1 1 1 1 1 1 1 1 1 
1 1 1 1 1 1 1 1 1 
1 1 1 1 1 1 1 1 1 
1 1 1 1 1 1 1 1 1 
1 1 1 1 1 1 1 1 1 
1 1 1 1 1 1 1 1 1 
1 1 1 1 1 1 1 1 1 
1 1 1 1 1 1 1 1 1 
1 1 1 1 1 1 1 1 1 
1 1 1 1 1 1 1 1 1 
1 1 1 1 1 1 1 1 1 
1 1 1 1 1 1 1 1 1 
1 1 1 1 1 1 1 1 1 
1 1 1 1 1 1 1 1 1 
1 1 1 1 1 1 1 1 1 
1 1 1 1 1 1 1 1 1 
1 1 1 1 1 1 1 1 1 
1 1 1 1 1 1 1 1 1 
1 1 1 1 1 1 1 1 1 
1 1 1 1 1 1 1 1 1 
1 1 1 1 1 1 1 1 1 
1 1 1 1 1 1 1 1 1 
1 1 1 1 1 1 1 1 1 
1 1 1 1 1 1 1 1 1 
1 1 1 1 1 1 1 1 1 
1 1 1 1 1 1 1 1 1 
1 1 1 1 1 1 1 1 1 
1 1 1 1 1 1 1 1 1 
1 1 1 1 1 1 1 1 1 
1 1 1 1 1 1 1 1 1 
1 1 1 1 1 1 1 1 1 
1 1 1 1 1 1 1 1 1 
1 1 1 1 1 1 1 1 1 
1 1 1 1 1 1 1 1 1 
1 1 1 1 1 1 1 1 1 
1 1 1 1 1 1 1 1 1 
1 1 1 1 1 1 1 1 1 
1 1 1 1 1 1 1 1 1 
1 1 1 1 1 1 1 1 1 
1 1 1 1 1 1 1 1 1 
1 1 1 1 1 1 1 1 1 
1 1 1 1 1 1 1 1 1 
1 1 1 1 1 1 1 1 1 
1 1 1 1 1 1 1 1 1 
1 1 1 1 1 1 1 1 1 
1 1 1 1 1 1 1 1 1 
1 1 1 1 1 1 1 1 1 
1 1 1 1 1 1 1 1 1 
1 1 1 1 1 1 1 1 1 
1 1 1 1 1 1 1 1 1 
1 1 1 1 1 1 1 1 1 
1 1 1 1 1 1 1 1 1 
1 1 1 1 1 1 1 1 1 
1 1 1 1 1 1 1 1 1 
1 1 1 1 1 1 1 1 1 
1 1 1 1 1 1 1 1 1 
1 1 1 1 1 1 1 1 1 
1 1 1 1 1 1 1 1 1 
1 1 1 1 1 1 1 1 1 
1 1 1 1 1 1 1 1 1 
1 1 1 1 1 1 1 1 1 
1 1 1 1 1 1 1 1 1 
1 1 1 1 1 1 1 1 1 
1 1 1 1 1 1 1 1 1 
1 1 1 1 1 1 1 1 1 
1 1 1 1 1 1 1 1 1 
1 1 1 1 1 1 1 1 1 
1 1 1 1 1 1 1 1 1 
1 1 1 1 1 1 1 1 1 
1 1 1 1 1 1 1 1 1 
1 1 1 1 1 1 1 1 1 
1 1 1 1 1 1 1 1 1 
1 1 1 1 1 1 1 1 1 
1 1 1 1 1 1 1 1 1 
1 1 1 1 1 1 1 1 1 
1 1 1 1 1 1 1 1 1 
1 1 1 1 1 1 1 1 1 
1 1 1 1 1 1 1 1 1 
1 1 1 1 1 1 1 1 1 
1 1 1 1 1 1 1 1 1 
1 1 1 1 1 1 1 1 1 
1 1 1 1 1 1 1 1 1 
1 1 1 1 1 1 1 1 1 
1 1 1 1 1 1 1 1 1 
1 1 1 1 1 1 1 1 1 
1 1 1 1 1 1 1 1 1 
1 1 1 1 1 1 1 1 1 
1 1 1 1 1 1 1 1 1 
1 1 1 1 1 1 1 1 1 
1 1 1 1 1 1 1 1 1 
1 1 1 1 1 1 1 1 1 
1 1 1 1 1 1 1 1 1 
1 1 1 1 1 1 1 1 1 
1 1 1 1 1 1 1 1 1 
1 1 1 1 1 1 1 1 1 
1 1 1 1 1 1 1 1 1 
1 1 1 1 1 1 1 1 1 
1 1 1 1 1 1 1 1 1 
1 1 1 1 1 1 1 1 1 
1 1 1 1 1 1 1 1 1 
1 1 1 1 1 1 1 1 1 
1 1 1 1 1 1 1 1 1 
1 1 1 1 1 1 1 1 1 
1 1 1 1 1 1 1 1 1 
1 1 1 1 1 1 1 1 1 
1 1 1 1 1 1 1 1 1 
1 1 1 1 1 1 1 1 1 
1 1 1 1 1 1 1 1 1 
1 1 1 1 1 1 1 1 1 
1 1 1 1 1 1 1 1 1 
1 1 1 1 1 1 1 1 1 
1 1 1 1 1 1 1 1 1 
1 1 1 1 1 1 1 1 1 
1 1 1 1 1 1 1 1 1 
1 1 1 1 1 1 1 1 1 
1 1 1 1 1 1 1 1 1 
1 1 1 1 1 1 1 1 1 
1 1 1 1 1 1 1 1 1 
1 1 1 1 1 1 1 1 1 
1 1 1 1 1 1 1 1 1 
1 1 1 1 1 1 1 1 1 
1 1 1 1 1 1 1 1 1 
1 1 1 1 1 1 1 1 1 
1 1 1 1 1 1 1 1 1 
1 1 1 1 1 1 1 1 1 
1 1 1 1 1 1 1 1 1 
1 1 1 1 1 1 1 1 1 
1 1 1 1 1 1 1 1 1 
1 1 1 1 1 1 1 1 1 
1 1 1 1 1 1 1 1 1 
1 1 1 1 1 1 1 1 1 
1 1 1 1 1 1 1 1 1 
1 1 1 1 1 1 1 1 1 
1 1 1 1 1 1 1 1 1 
1 1 1 1 1 1 1 1 1 
1 1 1 1 1 1 1 1 1 
1 1 1 1 1 1 1 1 1 
1 1 1 1 1 1 1 1 1 
1 1 1 1 1 1 1 1 1 
1 1 1 1 1 1 1 1 1 
1 1 1 1 1 1 1 1 1 
1 1 1 1 1 1 1 1 1 
1 1 1 1 1 1 1 1 1 
1 1 1 1 1 1 1 1 1 
1 1 1 1 1 1 1 1 1 
1 1 1 1 1 1 1 1 1 
1 1 1 1 1 1 1 1 1 
1 1 1 1 1 1 1 1 1 
1 1 1 1 1 1 1 1 1 
1 1 1 1 1 1 1 1 1 
1 1 1 1 1 1 1 1 1 
1 1 1 1 1 1 1 1 1 
1 1 1 1 1 1 1 1 1 
1 1 1 1 1 1 1 1 1 
1 1 1 1 1 1 1 1 1 
1 1 1 1 1 1 1 1 1 
1 1 1 1 1 1 1 1 1 
1 1 1 1 1 1 1 1 1 
1 1 1 1 1 1 1 1 1 
1 1 1 1 1 1 1 1 1 
1 1 1 1 1 1 1 1 1 
1 1 1 1 1 1 1 1 1 
1 1 1 1 1 1 1 1 1 
1 1 1 1 1 1 1 1 1 
1 1 1 1 1 1 1 1 1 
1 1 1 1 1 1 1 1 1 
1 1 1 1 1 1 1 1 1 
1 1 1 1 1 1 1 1 1 
1 1 1 1 1 1 1 1 1 
1 1 1 1 1 1 1 1 1 
1 1 1 1 1 1 1 1 1 
1 1 1 1 1 1 1 1 1 
1 1 1 1 1 1 1 1 1 
1 1 1 1 1 1 1 1 1 
1 1 1 1 1 1 1 1 1 
1 1 1 1 1 1 1 1 1 
1 1 1 1 1 1 1 1 1 
1 1 1 1 1 1 1 1 1 
1 1 1 1 1 1 1 1 1 
1 1 1 1 1 1 1 1 1 
1 1 1 1 1 1 1 1 1 
1 1 1 1 1 1 1 1 1 
1 1 1 1 1 1 1 1 1 
1 1 1 1 1 1 1 1 1 
1 1 1 1 1 1 1 1 1 
1 1 1 1 1 1 1 1 1 
1 1 1 1 1 1 1 1 1 
1 1 1 1 1 1 1 1 1 
1 1 1 1 1 1 1 1 1 
1 1 1 1 1 1 1 1 1 
1 1 1 1 1 1 1 1 1 
1 1 1 1 1 1 1 1 1 
1 1 1 1 1 1 1 1 1 
1 1 1 1 1 1 1 1 1 
1 1 1 1 1 1 1 1 1 
1 1 1 1 1 1 1 1 1 
1 1 1 1 1 1 1 1 1 
1 1 1 1 1 1 1 1 1 
1 1 1 1 1 1 1 1 1 
1 1 1 1 1 1 1 1 1 
1 1 1 1 1 1 1 1 1 
1 1 1 1 1 1 1 1 1 
1 1 1 1 1 1 1 1 1 
1 1 1 1 1 1 1 1 1 
1 1 1 1 1 1 1 1 1 
1 1 1 1 1 1 1 1 1 
1 1 1 1 1 1 1 1 1 
1 1 1 1 1 1 1 1 1 
1 1 1 1 1 1 1 1 1 
1 1 1 1 1 1 1 1 1 
1 1 1 1 1 1 1 1 1 
1 1 1 1 1 1 1 1 1 
1 1 1 1 1 1 1 1 1 
1 1 1 1 1 1 1 1 1 
1 1 1 1 1 1 1 1 1 
1 1 1 1 1 1 1 1 1 
1 1 1 1 1 1 1 1 1 
1 1 1 1 1 1 1 1 1 
1 1 1 1 1 1 1 1 1 
1 1 1 1 1 1 1 1 1 
1 1 1 1 1 1 1 1 1 
1 1 1 1 1 1 1 1 1 
1 1 1 1 1 1 1 1 1 
1 1 1 1 1 1 1 1 1 
1 1 1 1 1 1 1 1 1 
1 1 1 1 1 1 1 1 1 
1 1 1 1 1 1 1 1 1 
1 1 1 1 1 1 1 1 1 
1 1 1 1 1 1 1 1 1 
1 1 1 1 1 1 1 1 1 
1 1 1 1 1 1 1 1 1 
1 1 1 1 1 1 1 1 1 
1 1 1 1 1 1 1 1 1 
1 1 1 1 1 1 1 1 1 
1 1 1 1 1 1 1 1 1 
1 1 1 1 1 1 1 1 1 
1 1 1 1 1 1 1 1 1 
1 1 1 1 1 1 1 1 1 
1 1 1 1 1 1 1 1 1 
1 1 1 1 1 1 1 1 1 
1 1 1 1 1 1 1 1 1 
1 1 1 1 1 1 1 1 1 
1 1 1 1 1 1 1 1 1 
1 1 1 1 1 1 1 1 1 
1 1 1 1 1 1 1 1 1 
1 1 1 1 1 1 1 1 1 
1 1 1 1 1 1 1 1 1 
1 1 1 1 1 1 1 1 1 
1 1 1 1 1 1 1 1 1 
1 1 1 1 1 1 1 1 1 
1 1 1 1 1 1 1 1 1 
1 1 1 1 1 1 1 1 1 
1 1 1 1 1 1 1 1 1 
1 1 1 1 1 1 1 1 1 
1 1 1 1 1 1 1 1 1 
1 1 1 1 1 1 1 1 1 
1 1 1 1 1 1 1 1 1 
1 1 1 1 1 1 1 1 1 
1 1 1 1 1 1 1 1 1 
1 1 1 1 1 1 1 1 1 
1 1 1 1 1 1 1 1 1 
1 1 1 1 1 1 1 1 1 
1 1 1 1 1 1 1 1 1 
1 1 1 1 1 1 1 1 1 
1 1 1 1 1 1 1 1 1 
1 1 1 1 1 1 1 1 1 
1 1 1 1 1 1 1 1 1 
1 1 1 1 1 1 1 1 1 
1 1 1 1 1 1 1 1 1 
1 1 1 1 1 1 1 1 1 
1 1 1 1 1 1 1 1 1 
1 1 1 1 1 1 1 1 1 
1 1 1 1 1 1 1 1 1 
1 1 1 1 1 1 1 1 1 
1 1 1 1 1 1 1 1 1 
1 1 1 1 1 1 1 1 1 
1 1 1 1 1 1 1 1 1 
1 1 1 1 1 1 1 1 1 
1 1 1 1 1 1 1 1 1 
1 1 1 1 1 1 1 1 1 
1 1 1 1 1 1 1 1 1 
1 1 1 1 1 1 1 1 1 
1 1 1 1 1 1 1 1 1 
1 1 1 1 1 1 1 1 1 
1 1 1 1 1 1 1 1 1 
1 1 1 1 1 1 1 1 1 
1 1 1 1 1 1 1 1 1 
1 1 1 1 1 1 1 1 1 
1 1 1 1 1 1 1 1 1 
1 1 1 1 1 1 1 1 1 
1 1 1 1 1 1 1 1 1 
1 1 1 1 1 1 1 1 1 
1 1 1 1 1 1 1 1 1 
1 1 1 1 1 1 1 1 1 
1 1 1 1 1 1 1 1 1 
1 1 1 1 1 1 1 1 1 
1 1 1 1 1 1 1 1 1 
1 1 1 1 1 1 1 1 1 
1 1 1 1 1 1 1 1 1 
1 1 1 1 1 1 1 1 1 
1 1 1 1 1 1 1 1 1 
1 1 1 1 1 1 1 1 1 
1 1 1 1 1 1 1 1 1 
1 1 1 1 1 1 1 1 1 
1 1 1 1 1 1 1 1 1 
1 1 1 1 1 1 1 1 1 
1 1 1 1 1 1 1 1 1 
1 1 1 1 1 1 1 1 1 
1 1 1 1 1 1 1 1 1 
1 1 1 1 1 1 1 1 1 
1 1 1 1 1 1 1 1 1 
1 1 1 1 1 1 1 1 1 
1 1 1 1 1 1 1 1 1 
1 1 1 1 1 1 1 1 1 
1 1 1 1 1 1 1 1 1 
1 1 1 1 1 1 1 1 1 
1 1 1 1 1 1 1 1 1 
1 1 1 1 1 1 1 1 1 
1 1 1 1 1 1 1 1 1 
1 1 1 1 1 1 1 1 1 
1 1 1 1 1 1 1 1 1 
1 1 1 1 1 1 1 1 1 
1 1 1 1 1 1 1 1 1 
1 1 1 1 1 1 1 1 1 
1 1 1 1 1 1 1 1 1 
1 1 1 1 1 1 1 1 1 
1 1 1 1 1 1 1 1 1 
1 1 1 1 1 1 1 1 1 
1 1 1 1 1 1 1 1 1 
1 1 1 1 1 1 1 1 1 
1 1 1 1 1 1 1 1 1 
1 1 1 1 1 1 1 1 1 
1 1 1 1 1 1 1 1 1 
1 1 1 1 1 1 1 1 1 
1 1 1 1 1 1 1 1 1 
1 1 1 1 1 1 1 1 1 
1 1 1 1 1 1 1 1 1 
1 1 1 1 1 1 1 1 1 
1 1 1 1 1 1 1 1 1 
1 1 1 1 1 1 1 1 1 
1 1 1 1 1 1 1 1 1 
1 1 1 1 1 1 1 1 1 
1 1 1 1 1 1 1 1 1 
1 1 1 1 1 1 1 1 1 
1 1 1 1 1 1 1 1 1 
1 1 1 1 1 1 1 1 1 
1 1 1 1 1 1 1 1 1 
1 1 1 1 1 1 1 1 1 
1 1 1 1 1 1 1 1 1 
1 1 1 1 1 1 1 1 1 
1 1 1 1 1 1 1 1 1 
1 1 1 1 1 1 1 1 1 
1 1 1 1 1 1 1 1 1 
1 1 1 1 1 1 1 1 1 
1 1 1 1 1 1 1 1 1 
1 1 1 1 1 1 1 1 1 
1 1 1 1 1 1 1 1 1 
1 1 1 1 1 1 1 1 1 
1 1 1 1 1 1 1 1 1 
1 1 1 1 1 1 1 1 1 
1 1 1 1 1 1 1 1 1 
1 1 1 1 1 1 1 1 1 
1 1 1 1 1 1 1 1 1 
1 1 1 1 1 1 1 1 1 
1 1 1 1 1 1 1 1 1 
1 1 1 1 1 1 1 1 1 
1 1 1 1 1 1 1 1 1 
1 1 1 1 1 1 1 1 1 
1 1 1 1 1 1 1 1 1 
1 1 1 1 1 1 1 1 1 
1 1 1 1 1 1 1 1 1 
1 1 1 1 1 1 1 1 1 
1 1 1 1 1 1 1 1 1 
1 1 1 1 1 1 1 1 1 
1 1 1 1 1 1 1 1 1 
1 1 1 1 1 1 1 1 1 
1 1 1 1 1 1 1 1 1 
1 1 1 1 1 1 1 1 1 
1 1 1 1 1 1 1 1 1 
1 1 1 1 1 1 1 1 1 
1 1 1 1 1 1 1 1 1 
1 1 1 1 1 1 1 1 1 
1 1 1 1 1 1 1 1 1 
1 1 1 1 1 1 1 1 1 
1 1 1 1 1 1 1 1 1 
1 1 1 1 1 1 1 1 1 
1 1 1 1 1 1 1 1 1 
1 1 1 1 1 1 1 1 1 
1 1 1 1 1 1 1 1 1 
1 1 1 1 1 1 1 1 1 
1 1 1 1 1 1 1 1 1 
1 1 1 1 1 1 1 1 1 
1 1 1 1 1 1 1 1 1 
1 1 1 1 1 1 1 1 1 
1 1 1 1 1 1 1 1 1 
1 1 1 1 1 1 1 1 1 
1 1 1 1 1 1 1 1 1 
1 1 1 1 1 1 1 1 1 
1 1 1 1 1 1 1 1 1 
1 1 1 1 1 1 1 1 1 
1 1 1 1 1 1 1 1 1 
1 1 1 1 1 1 1 1 1 
1 1 1 1 1 1 1 1 1 
1 1 1 1 1 1 1 1 1 
1 1 1 1 1 1 1 1 1 
1 1 1 1 1 1 1 1 1 
1 1 1 1 1 1 1 1 1 
1 1 1 1 1 1 1 1 1 
1 1 1 1 1 1 1 1 1 
1 1 1 1 1 1 1 1 1 
1 1 1 1 1 1 1 1 1 
1 1 1 1 1 1 1 1 1 
1 1 1 1 1 1 1 1 1 
1 1 1 1 1 1 1 1 1 
1 1 1 1 1 1 1 1 1 
1 1 1 1 1 1 1 1 1 
1 1 1 1 1 1 1 1 1 
1 1 1 1 1 1 1 1 1 
1 1 1 1 1 1 1 1 1 
1 1 1 1 1 1 1 1 1 
1 1 1 1 1 1 1 1 1 
1 1 1 1 1 1 1 1 1 
1 1 1 1 1 1 1 1 1 
1 1 1 1 1 1 1 1 1 
1 1 1 1 1 1 1 1 1 
1 1 1 1 1 1 1 1 1 
1 1 1 1 1 1 1 1 1 
1 1 1 1 1 1 1 1 1 
1 1 1 1 1 1 1 1 1 
1 1 1 1 1 1 1 1 1 
1 1 1 1 1 1 1 1 1 
1 1 1 1 1 1 1 1 1 
1 1 1 1 1 1 1 1 1 
1 1 1 1 1 1 1 1 1 
1 1 1 1 1 1 1 1 1 
1 1 1 1 1 1 1 1 1 
1 1 1 1 1 1 1 1 1 
1 1 1 1 1 1 1 1 1 
1 1 1 1 1 1 1 1 1 
1 1 1 1 1 1 1 1 1 
1 1 1 1 1 1 1 1 1 
1 1 1 1 1 1 1 1 1 
1 1 1 1 1 1 1 1 1 
1 1 1 1 1 1 1 1 1 
1 1 1 1 1 1 1 1 1 
1 1 1 1 1 1 1 1 1 
1 1 1 1 1 1 1 1 1 
1 1 1 1 1 1 1 1 1 
1 1 1 1 1 1 1 1 1 
1 1 1 1 1 1 1 1 1 
1 1 1 1 1 1 1 1 1 
1 1 1 1 1 1 1 1 1 
1 1 1 1 1 1 1 1 1 
1 1 1 1 1 1 1 1 1 
1 1 1 1 1 1 1 1 1 
1 1 1 1 1 1 1 1 1 
1 1 1 1 1 1 1 1 1 
1 1 1 1 1 1 1 1 1 
1 1 1 1 1 1 1 1 1 
1 1 1 1 1 1 1 1 1 
1 1 1 1 1 1 1 1 1 
1 1 1 1 1 1 1 1 1 
1 1 1 1 1 1 1 1 1 
1 1 1 1 1 1 1 1 1 
1 1 1 1 1 1 1 1 1 
1 1 1 1 1 1 1 1 1 
1 1 1 1 1 1 1 1 1 
1 1 1 1 1 1 1 1 1 
1 1 1 1 1 1 1 1 1 
1 1 1 1 1 1 1 1 1 
1 1 1 1 1 1 1 1 1 
1 1 1 1 1 1 1 1 1 
1 1 1 1 1 1 1 1 1 
1 1 1 1 1 1 1 1 1 
1 1 1 1 1 1 1 1 1 
1 1 1 1 1 1 1 1 1 
1 1 1 1 1 1 1 1 1 
1 1 1 1 1 1 1 1 1 
1 1 1 1 1 1 1 1 1 
1 1 1 1 1 1 1 1 1 
1 1 1 1 1 1 1 1 1 
1 1 1 1 1 1 1 1 1 
1 1 1 1 1 1 1 1 1 
1 1 1 1 1 1 1 1 1 
1 1 1 1 1 1 1 1 1 
1 1 1 1 1 1 1 1 1 
1 1 1 1 1 1 1 1 1 
1 1 1 1 1 1 1 1 1 
1 1 1 1 1 1 1 1 1 
1 1 1 1 1 1 1 1 1 
1 1 1 1 1 1 1 1 1 
1 1 1 1 1 1 1 1 1 
1 1 1 1 1 1 1 1 1 
1 1 1 1 1 1 1 1 1 
1 1 1 1 1 1 1 1 1 
1 1 1 1 1 1 1 1 1 
1 1 1 1 1 1 1 1 1 
1 1 1 1 1 1 1 1 1 
1 1 1 1 1 1 1 1 1 
1 1 1 1 1 1 1 1 1 
1 1 1 1 1 1 1 1 1 
1 1 1 1 1 1 1 1 1 
1 1 1 1 1 1 1 1 1 
1 1 1 1 1 1 1 1 1 
1 1 1 1 1 1 1 1 1 
1 1 1 1 1 1 1 1 1 
1 1 1 1 1 1 1 1 1 
1 1 1 1 1 1 1 1 1 
1 1 1 1 1 1 1 1 1 
1 1 1 1 1 1 1 1 1 
1 1 1 1 1 1 1 1 1 
1 1 1 1 1 1 1 1 1 
1 1 1 1 1 1 1 1 1 
1 1 1 1 1 1 1 1 1 
1 1 1 1 1 1 1 1 1 
1 1 1 1 1 1 1 1 1 
1 1 1 1 1 1 1 1 1 
1 1 1 1 1 1 1 1 1 
1 1 1 1 1 1 1 1 1 
1 1 1 1 1 1 1 1 1 
1 1 1 1 1 1 1 1 1 
1 1 1 1 1 1 1 1 1 
1 1 1 1 1 1 1 1 1 
1 1 1 1 1 1 1 1 1 
1 1 1 1 1 1 1 1 1 
1 1 1 1 1 1 1 1 1 
1 1 1 1 1 1 1 1 1 
1 1 1 1 1 1 1 1 1 
1 1 1 1 1 1 1 1 1 
1 1 1 1 1 1 1 1 1 
1 1 1 1 1 1 1 1 1 
1 1 1 1 1 1 1 1 1 
1 1 1 1 1 1 1 1 1 
1 1 1 1 1 1 1 1 1 
1 1 1 1 1 1 1 1 1 
1 1 1 1 1 1 1 1 1 
1 1 1 1 1 1 1 1 1 
1 1 1 1 1 1 1 1 1 
1 1 1 1 1 1 1 1 1 
1 1 1 1 1 1 1 1 1 
1 1 1 1 1 1 1 1 1 
1 1 1 1 1 1 1 1 1 
1 1 1 1 1 1 1 1 1 
1 1 1 1 1 1 1 1 1 
1 1 1 1 1 1 1 1 1 
1 1 1 1 1 1 1 1 1 
1 1 1 1 1 1 1 1 1 
1 1 1 1 1 1 1 1 1 
1 1 
NORMALS Normals float
0.236449 0.0575556 -0.969938 0.00514749 0.150273 -0.988631 -0.0673156 -0.176791 -0.981944 
0.204538 -0.0983013 -0.97391 0.110645 -0.020454 -0.99365 0.00834346 -0.0323876 -0.999441 
0.101207 0.0355325 -0.994231 -0.323798 0.173291 -0.930121 -0.28618 0.271527 -0.918898 
0.0535689 0.319698 -0.946004 0.0274665 -0.142566 -0.989404 0.348174 -0.0712348 -0.934719 
-0.0152929 -0.083969 -0.996351 0.32037 -0.0699563 -0.944706 -0.0340332 -0.103598 -0.994037 
0.306008 -0.080052 -0.948657 0.373713 -0.059628 -0.925626 -0.407901 -0.144132 -0.901578 
-0.239169 -0.114997 -0.964144 -0.179565 -0.0422749 -0.982837 -0.495305 -0.0234754 -0.868402 
0.223843 -0.0864595 -0.970783 -0.185532 -0.042129 -0.981735 -0.513844 0.163687 -0.842123 
-0.284369 0.134117 -0.949288 0.281359 0.317656 -0.905501 -0.154949 -0.185571 -0.970337 
-0.0804361 -0.0933848 -0.992376 0.0319166 -0.0579358 -0.99781 0.363397 -0.0423454 -0.930672 
-0.214866 -0.181403 -0.959649 0.0497135 -0.198669 -0.978805 0.16805 -0.105461 -0.980121 
-0.198202 -0.157429 -0.967436 -0.466213 -0.115332 -0.877122 0.573763 -0.0574993 -0.817001 
-0.63121 -0.124783 -0.765508 0.460282 0.0652589 -0.885371 0.460706 0.147915 -0.87514 
-0.393965 0.121689 -0.911034 -0.185787 0.232547 -0.954675 0.0530363 0.46619 -0.883093 
0.53478 0.469123 -0.702804 0.172454 -0.30888 -0.935336 -0.163773 -0.12792 -0.978169 
-0.127172 -0.105074 -0.9863 0.441715 -0.0421038 -0.896167 -0.442423 -0.177827 -0.878999 
-0.205457 -0.0835188 -0.975096 0.289201 -0.0479669 -0.956066 -0.62727 -0.210026 -0.749947 
0.608992 -0.0349169 -0.792408 0.665919 0.127551 -0.735039 -0.493209 0.271213 -0.826552 
0.299528 0.56316 -0.770152 0.116433 -0.192263 -0.974412 0.15741 -0.129963 -0.978944 
0.146993 -0.210017 -0.966585 -0.0712096 -0.142119 -0.987285 -0.34771 -0.132833 -0.928145 
-0.0387342 -0.279519 -0.959359 0.268979 -0.181862 -0.945821 -0.394616 -0.188869 -0.899226 
0.594119 0.0538858 -0.80257 -0.662115 -0.125362 -0.738842 -0.705285 -0.148845 -0.693122 
0.676924 -0.0333262 -0.735298 0.755238 0.0755059 -0.651087 -0.727205 0.0205782 -0.686112 
0.768256 0.249747 -0.589414 0.556609 0.339842 -0.758086 0.141022 0.601685 -0.786186 
0.488021 0.568019 -0.662714 0.0890354 -0.207595 -0.974154 0.111326 -0.195874 -0.974289 
-0.120282 -0.133064 -0.983782 0.248996 -0.105308 -0.962762 0.214362 -0.143401 -0.96617 
0.0694603 -0.0614027 -0.995693 0.292881 -0.135381 -0.946516 0.262967 -0.0885661 -0.960731 
-0.43094 -0.146674 -0.890381 0.388546 -0.0484524 -0.920155 -0.715656 -0.167219 -0.67814 
-0.795539 -0.284214 -0.535108 -0.591871 -0.315491 -0.741724 -0.752541 -0.316984 -0.577238 
-0.917657 -0.238025 -0.318198 -0.488474 -0.0997522 -0.866858 -0.817378 -0.200817 -0.539968 
-0.801106 0.0284141 -0.597848 -0.26338 0.447861 -0.85443 -0.178507 0.620836 -0.763346 
0.621717 0.647697 -0.440404 -0.130863 0.771569 -0.62254 -0.00181917 0.786885 -0.617097 
0.298067 0.731366 -0.6134 0.0538006 -0.308402 -0.949733 -0.171667 -0.242685 -0.954795 
0.212845 -0.212318 -0.953739 -0.197904 -0.16987 -0.96539 -0.453945 -0.206107 -0.866864 
-0.43145 -0.206817 -0.87811 -0.56686 -0.170708 -0.805933 -0.176392 -0.121233 -0.976826 
0.387636 -0.120526 -0.913899 -0.708311 -0.233324 -0.666225 0.697299 0.0784309 -0.712476 
-0.9552 -0.0969896 -0.279617 -0.827208 -0.180542 -0.5321 -0.705164 -0.123062 -0.698284 
-0.750795 0.151533 -0.642918 -0.686758 0.153649 -0.710461 -0.554029 0.311433 -0.77205 
0.741909 0.435738 -0.50961 -0.493955 0.454392 -0.741308 0.834215 0.512391 -0.203816 
-0.148123 0.83244 -0.533951 0.448408 0.845858 -0.288886 0.541452 0.591543 -0.597417 
-0.179562 0.866728 -0.46534 -0.0316449 0.928653 -0.369596 -0.134437 -0.380071 -0.915135 
-0.334247 -0.460618 -0.822259 -0.350229 -0.248722 -0.903037 -0.410497 -0.135321 -0.901765 
0.493579 -0.126879 -0.860396 -0.659039 -0.0996192 -0.745482 0.6017 -0.0422778 -0.797603 
-0.860935 -0.168024 -0.480165 0.738403 -0.00589298 -0.674334 -0.797479 -0.173216 -0.577947 
0.799815 0.0488374 -0.598257 0.870207 0.235955 -0.432509 0.855889 0.309176 -0.414565 
-0.408439 0.617107 -0.672575 0.692365 0.596103 -0.406561 -0.260488 0.781718 -0.566625 
-0.220716 0.757493 -0.614401 -0.0507407 0.898714 -0.43559 -0.0206876 0.989563 -0.142607 
-0.118644 0.954951 -0.272016 0.430157 0.900901 -0.0578087 0.0244726 0.98987 -0.139848 
-0.0596798 -0.39638 -0.916145 0.418189 -0.228247 -0.879216 -0.404505 -0.461527 -0.789537 
-0.517985 -0.433082 -0.737652 0.510532 -0.128001 -0.850278 -0.521318 -0.228722 -0.82214 
-0.662154 -0.217074 -0.717238 0.640699 -0.0174928 -0.767593 0.711977 0.0151465 -0.702039 
-0.8363 -0.154553 -0.526038 -0.825992 0.0052563 -0.563657 0.832962 0.430005 -0.348239 
0.720489 0.690954 0.0589763 0.531927 0.797658 0.284246 0.0389472 0.982612 0.18154 
0.0474282 -0.358036 -0.932502 0.146774 -0.302788 -0.941688 0.38389 -0.307347 -0.870727 
-0.899722 -0.157573 -0.407028 -0.800791 -0.246548 -0.545846 0 -0.147947 -0.988995 
0 -0.992395 -0.123095 -0.905319 -0.41558 -0.0877036 0.905319 -0.41558 -0.0877036 
0 0.351123 -0.936329 0.863061 0.147704 -0.483022 0.820998 0.550296 -0.152108 
0.837121 0.54068 -0.0830303 -0.705533 0.408343 -0.579205 0.795996 0.588766 0.140513 
0.69634 0.674793 0.244468 0.407233 0.839102 0.360651 -0.0920627 0.9482 -0.304041 
0.0628365 0.970004 -0.234827 -0.00434333 -0.413222 -0.91062 -0.357074 -0.434196 -0.827026 
0.489819 -0.254114 -0.833969 -0.662379 -0.33144 -0.671865 0 -0.894427 -0.447214 
0 -0.997391 -0.0721865 -0.35032 -0.934187 -0.067612 0.35032 -0.934187 -0.067612 
0 0.707107 -0.707107 0.866443 0.0404908 -0.497632 0 -0.278862 0.960331 
0.854869 0.458065 -0.243673 0.859704 0.473011 -0.192795 0.751363 0.627356 0.204644 
0.626213 0.740067 0.245271 -0.713487 0.489756 -0.501074 -0.540621 0.65481 -0.52816 
-0.512913 0.81036 -0.283261 -0.443626 0.854401 -0.270546 0.320764 -0.343779 -0.882568 
0.361369 -0.272397 -0.891747 0 -0.948683 0.316228 0 -0.147947 -0.988995 
0 -0.992395 -0.123095 -0.905319 -0.41558 -0.0877036 0.905319 -0.41558 -0.0877036 
0 0.351123 -0.936329 -0.808049 0.108089 -0.579115 0.494844 0.641278 0.586424 
0.663075 0.445807 0.601322 0.605698 0.707147 0.36479 -0.715477 0.662324 -0.222305 
-0.588104 0.749609 -0.303678 0.547403 0.784378 0.291721 0.507114 0.804462 0.309315 
0.336996 0.941262 0.0214635 -0.465631 0.883574 -0.0498371 -0.320168 0.927534 0.192804 
-0.0201011 0.999671 -0.0159375 0.42133 -0.221353 -0.879479 -0.0883576 -0.526241 -0.845733 
-0.330357 -0.523877 -0.785122 0.59654 -0.15878 -0.78672 -0.624065 -0.436639 -0.647989 
0.581015 -0.176509 -0.794523 -0.809953 -0.257933 -0.526732 -0.896317 -0.254307 -0.36324 
0 -0.278862 0.960331 0.784529 0.159354 0.599267 0.93174 0.0876179 0.352397 
0.346001 0.348069 0.871281 0.839653 0.541863 -0.0369703 0.397594 0.353598 0.846692 
0.198775 0.314201 0.928314 0.764605 0.636352 0.102155 -0.895277 0.18774 -0.404021 
0.913946 0.257771 0.31346 0.632243 0.31702 0.706942 0.640321 0.677244 0.362395 
0.425196 0.364567 0.828432 0.523876 0.531438 0.665678 0.652303 0.623386 0.431149 
0.848593 0.495412 0.185624 -0.638161 0.758215 -0.133644 0.298674 0.908383 0.292634 
-0.03746 -0.444915 -0.894789 0.313396 -0.302448 -0.900171 0.448622 -0.0683524 -0.891104 
0.604426 -0.136377 -0.784902 -0.659651 -0.480504 -0.577907 0.680863 -0.0899124 -0.726871 
-0.869685 -0.0476831 -0.491299 0.894796 0.399495 -0.199359 -0.140895 0.416512 0.898146 
0.6044 0.326688 0.726619 0.63633 0.352372 0.686235 0.903052 0.149536 0.402661 
0.975419 0.0325156 0.217947 0.963258 0.0906369 -0.252821 0.974725 0.214607 -0.0620897 
0.928895 0.208024 -0.306398 -0.842371 0.434194 -0.319196 0.92714 0.357916 -0.11094 
-0.520498 0.851542 0.0629179 -0.4329 0.897266 0.0866642 0.13295 0.892644 0.43071 
0.0327278 -0.565898 -0.823826 0.551427 -0.293175 -0.78101 -0.606018 -0.504014 -0.615396 
0.939202 0.305577 -0.156595 0.696167 0.301138 0.651665 -0.54914 -0.135022 -0.824751 
0.992691 0.00262834 -0.120659 -0.876004 0.421861 0.233775 -0.44003 0.51147 0.738087 
-0.677438 0.702345 -0.218608 0.969833 0.118559 0.212997 -0.0421226 0.791955 0.609124 
0.797603 0.593929 0.10525 0.990237 0.099475 0.0976465 0.941382 -0.00966454 -0.337205 
0.650834 0.683089 0.331368 0.935003 -0.0389438 -0.352494 0.503002 0.674049 0.540969 
0.392812 0.653591 0.64693 0.85736 0.374225 -0.353397 -0.840534 0.501819 -0.204156 
-0.737463 0.671615 -0.0712943 0.755521 0.654904 0.016982 0.55378 0.765489 0.327649 
-0.60033 0.799747 0.002685 -0.622215 0.777185 0.0939768 -0.188519 0.902123 0.388117 
0.00455891 -0.62455 -0.780972 -0.286655 -0.61764 -0.732359 0.333433 -0.483756 -0.809199 
0.612645 -0.094675 -0.784667 -0.804144 -0.372447 -0.463288 0.0881166 0.348012 0.93334 