# vtk DataFile Version 4.2
vtk output
ASCII
DATASET POLYDATA
POINTS 348 float
421.729 175.626 187.624 423.802 174.864 187.536 425.256 175.769 187.669 
421.467 177.774 187.401 422.664 177.502 187.091 424.457 176.956 187.253 
425.796 176.267 187.997 421.93 178.397 187.223 424.912 177.54 187.399 
425.819 178.653 187.985 421.044 180.387 187.721 422.785 180.405 187.278 
425.371 179.686 187.835 422.655 181.119 187.438 423.896 180.946 187.502 
423.143 181.689 187.589 422.046 182.466 187.993 423.018 182.333 187.824 
424.258 182.452 188.053 424.715 173.403 188.721 421.574 174.128 188.471 
420.924 174.999 188.285 425.666 174.519 188.364 425.96 174.366 188.668 
420.144 176.669 188.409 419.969 179.178 188.509 419.892 180.662 188.967 
420.487 181.393 188.513 421.192 183.011 188.79 425.706 182.256 188.779 
421.766 183.648 188.921 422.932 183.99 188.843 422.363 173.503 188.749 
423.85 173 189.088 425.659 173.513 188.905 420.188 175.013 188.825 
426.225 174.649 188.922 419.88 176.076 188.812 426.794 176.348 189.361 
426.721 177.475 188.935 426.742 178.673 188.943 423.67 185.038 189.711 
424.776 184.879 189.775 421.922 172.874 189.823 423.424 172.554 189.961 
425.186 172.866 189.708 420.927 173.59 189.291 420.959 173.362 189.631 
420.674 173.608 189.516 425.948 173.63 189.237 427.164 177.276 190.036 
427.249 181.542 190.517 422.005 184.834 190.239 423.522 185.58 190.361 
425.174 185.075 190.232 421.287 172.952 190.238 422.665 172.469 190.607 
424.3 172.524 190.208 424.747 172.631 190.119 425.383 172.964 189.855 
426.083 173.688 190.092 420.151 173.792 190.256 427.22 176.842 190.526 
418.461 179.056 190.948 419.193 181.458 190.642 424.018 186.075 191.062 
423.886 186.189 191.35 420.563 173.245 191.022 424.169 172.48 190.687 
425.366 172.958 190.681 419.244 175.069 190.912 418.25 179.487 191.789 
427.496 182.183 191.604 419.968 183.331 191.308 427.171 183.35 191.749 
420.854 173.045 191.89 422.973 172.437 191.472 426.631 174.63 191.249 
418.469 176.544 191.858 427.249 176.59 191.738 417.911 177.731 192.57 
417.888 177.992 192.614 417.931 178.226 192.4 427.669 181.845 192.241 
420.724 184.537 192.465 421.913 185.482 192.278 425.916 185.515 191.626 
424.709 186.49 192.238 424.633 186.527 192.579 425.182 186.397 192.401 
421.16 172.966 192.292 422.257 172.644 192.166 424.083 172.638 191.844 
418.037 177.501 193.055 417.919 177.764 192.821 418.149 177.11 192.893 
417.904 178.036 192.851 427.807 179.876 192.686 418.562 180.713 192.744 
427.682 182.081 193.19 423.036 186.159 193.121 425.453 186.232 192.605 
424.878 186.524 192.747 420.565 173.393 192.53 422.711 172.764 192.587 
421.863 173.17 193.205 418.857 175.621 192.748 427.172 177.033 193.15 
427.734 179.762 193.53 427.565 182.46 193.345 422.843 185.986 193.903 
425.43 186.125 193.408 419.346 175.077 193.391 419.352 175.329 193.741 
418.471 176.85 193.605 418.352 177.855 193.866 427.617 179.898 194.009 
418.712 180.651 193.923 427.598 181.115 194.172 420.116 183.306 194.392 
427.306 182.48 194.258 426.192 185.087 194.216 425.952 185.271 194.399 
423.75 186.073 194.391 425.301 186.024 193.833 425.543 185.606 194.328 
424.381 186.229 193.944 420.349 174.379 193.974 421.376 173.984 194.137 
420.07 174.781 194.106 425.01 174.548 194.446 425.927 174.999 194.006 
418.778 179.789 194.599 427.128 180.151 194.979 419.907 182.546 194.998 
426.248 184.559 194.845 421.97 185.11 195.021 420.77 175.519 195.104 
422.016 175.353 195.458 420.492 176.942 195.714 419.892 177.688 195.554 
419.612 180.926 195.436 426.676 182.014 195.367 421.126 183.416 195.738 
426.069 184.552 195.14 425.991 184.377 195.321 425.507 185.078 195.15 
423.414 185.453 195.276 423.223 175.665 195.779 423.511 177.592 196.596 
425.032 177.871 196.435 422.026 178.514 196.714 425.582 178.437 196.302 
421.468 179.226 196.649 420.889 180.969 196.381 425.712 182.547 196.129 
421.787 183.193 196.277 422.696 183.853 196.335 423.2 183.812 196.465 
423.622 183.861 196.489 424.892 184.374 195.996 422.769 185.196 195.499 
424.097 184.502 196.136 425.002 179.887 196.729 422.368 182.013 196.789 
423.651 181.762 196.936 424.742 182.168 196.681 425.304 181.979 196.473 
424.06 183.739 196.489 424.239 184.206 196.287 423.799 178.515 259.363 
422.555 179.815 259.305 423.129 179.047 259.288 424.476 178.789 259.38 
425.301 178.932 259.663 422.547 180.33 259.292 423.35 181.58 259.307 
424.401 181.209 259.291 425.721 181.388 259.872 423.348 182.564 259.582 
425.254 182.183 259.784 424.045 182.932 259.744 424.602 182.85 259.797 
424.551 176.882 260.057 425.475 177.085 260.321 425.97 177.681 260.436 
420.502 179.059 260.339 421.134 182.119 260.381 421.354 183.178 260.8 
422.128 184.05 260.815 426.12 183.265 260.735 422.897 184.537 260.847 
424.23 183.987 260.394 425.369 184.485 261.089 420.805 174.907 261.604 
421.542 175.469 260.934 422.111 175.371 260.843 425.412 174.525 261.622 
419.831 177.53 261.141 426.843 178.28 261.301 419.927 180.823 261.075 
426.934 181.97 261.242 421.927 184.168 261.078 422.192 184.263 260.928 
423.228 185.033 261.203 423.493 184.994 261.082 420.258 174.35 262.391 
420.099 174.857 262.17 426.388 175.045 261.977 418.819 178.883 262.246 
427.438 179.324 261.892 419.259 180.791 262.101 427.647 180.222 262.196 
427.65 180.918 262.266 421.559 184.146 261.499 426.574 184.402 262.152 
424.388 186.024 262.471 424.884 185.67 262.1 424.822 173.481 262.389 
419.929 174.075 263.055 425.698 173.873 262.46 426.024 174.227 262.36 
418.514 176.358 263.383 418.549 177.634 262.728 427.224 176.986 262.703 
418.603 179.598 263.054 427.801 180.883 262.725 420.881 184.196 262.764 
421.466 184.431 262.133 422.434 185.496 262.989 423.702 186.032 262.768 
425.623 185.673 262.634 421.573 172.871 263.842 422.631 172.693 263.588 
423.624 172.818 263.262 425.583 173.599 262.745 418.086 176.546 263.826 
418.027 176.572 263.933 418.015 176.631 263.861 427.87 180.546 263.106 
427.773 181.348 263.369 419.545 182.589 263.191 421.592 185.092 263.718 
424.824 186.471 263.543 424.973 186.521 263.781 420.953 172.974 264.378 
420.632 173.156 264.546 421.566 172.648 265.005 422.56 172.475 264.585 
423.832 172.519 264.218 424.765 172.73 264.042 418.019 176.693 263.92 
418.091 176.93 263.976 418.196 177.226 264.36 418.416 179.514 264.499 
427.885 180.108 263.612 427.492 182.178 264.048 426.375 185.185 263.886 
425.796 185.977 263.714 425.183 186.454 263.751 424.89 186.533 264.016 
423.098 172.425 264.973 425.182 172.864 264.541 426.228 173.95 264.263 
426.816 184.024 264.838 426.315 185.043 265.045 424.179 186.192 264.836 
424.349 186.355 264.428 424.713 186.411 264.489 425.378 186.31 264.282 
425.155 186.413 264.373 425.274 186.286 264.572 424.934 186.478 264.292 
425.426 173.065 265.091 419.558 174.205 265.277 418.974 175.143 265.37 
420.022 182.981 265.246 422.578 185.35 265.289 425.853 185.369 265.447 
424.957 186.115 265.061 425.169 185.828 265.386 421.305 172.987 266.476 
426.004 173.75 265.562 419.886 174.297 266.388 426.8 174.899 265.581 
418.786 176.615 266.072 427.344 180.206 266.142 418.941 179.983 266.284 
426.272 184.357 266.148 422.201 184.675 266.554 426.358 184.555 265.764 
424.425 185.696 265.809 422.579 172.811 266.88 425.042 173.168 266.334 
419.118 176.236 266.57 419.082 179.493 266.789 426.821 181.229 266.858 
425.992 184.227 266.537 422.296 184.542 266.915 425.696 184.821 266.288 
423.503 185.108 266.665 423.4 172.965 267.057 425.795 174.05 267.066 
426.608 175.21 267.241 426.526 180.939 267.417 426.218 182.464 267.191 
421.722 183.919 267.199 422.53 184.566 267.06 422.632 184.401 267.279 
424.396 184.427 267.287 421.66 174.121 268.007 422.639 173.693 267.973 
425.475 173.843 267.147 423.392 174.112 268.453 423.798 174.067 268.369 
420.41 175.702 267.895 424.771 174.557 268.486 425.846 176.064 268.503 
426.048 177.298 268.384 426.612 178.21 267.75 426.05 179.075 268.206 
420.254 180.435 268.027 420.354 181.592 267.881 425.434 181.816 268.099 
420.74 182.42 267.768 424.784 182.422 268.26 425 181.901 268.331 
424.113 183.029 268.219 422.128 175.044 268.607 423.178 174.462 268.631 
424.32 174.922 268.924 424.661 174.862 268.814 421.455 176.72 268.715 
425.228 175.718 268.955 423.141 177.413 269.202 424.719 176.409 269.225 
425.23 176.675 269.014 420.638 179.357 268.386 421.715 179.593 268.877 
422.976 179.112 269.152 422.887 179.937 269.072 424.818 179.401 268.858 
424.028 180.359 268.962 422.065 182.364 268.367 423.145 182.693 268.416 
424.915 175.152 268.91 424.991 175.867 269.105 426.612 178.21 267.75 

POLYGONS 686 2744
3 5 1 0 
3 3 4 0 
3 5 0 4 
3 2 5 6 
3 4 3 7 
3 7 3 24 
3 5 4 7 
3 6 5 8 
3 7 24 10 
3 8 5 11 
3 11 5 7 
3 9 8 11 
3 9 39 8 
3 11 7 10 
3 12 11 14 
3 12 9 11 
3 13 11 10 
3 14 11 13 
3 13 10 15 
3 15 10 16 
3 14 13 15 
3 18 14 15 
3 29 12 14 
3 18 29 14 
3 17 15 16 
3 18 15 17 
3 1 33 32 
3 1 19 33 
3 21 0 1 
3 21 1 20 
3 20 1 32 
3 19 1 5 
3 34 19 5 
3 20 35 21 
3 22 34 5 
3 22 23 34 
3 37 21 35 
3 0 21 37 
3 22 5 2 
3 36 23 22 
3 24 0 37 
3 6 36 22 
3 2 6 22 
3 0 24 3 
3 6 8 39 
3 24 25 10 
3 9 12 40 
3 9 40 39 
3 26 10 25 
3 26 27 10 
3 30 27 28 
3 10 27 30 
3 10 30 16 
3 16 30 17 
3 31 17 30 
3 18 17 31 
3 20 32 43 
3 46 20 43 
3 32 33 44 
3 19 45 33 
3 34 45 19 
3 20 46 48 
3 48 35 20 
3 34 23 36 
3 36 49 34 
3 36 6 38 
3 63 24 37 
3 38 6 39 
3 25 24 63 
3 25 64 26 
3 40 12 51 
3 27 26 73 
3 12 29 51 
3 73 28 27 
3 30 52 31 
3 31 42 18 
3 29 18 42 
3 41 31 52 
3 42 31 41 
3 43 44 56 
3 44 58 57 
3 46 47 48 
3 47 46 55 
3 55 46 43 
3 44 43 32 
3 58 44 33 
3 45 58 33 
3 34 49 45 
3 77 36 38 
3 38 39 62 
3 62 39 50 
3 39 40 50 
3 26 64 73 
3 73 30 28 
3 41 52 53 
3 41 53 42 
3 42 53 54 
3 42 54 29 
3 54 53 65 
3 55 43 75 
3 43 56 75 
3 57 68 44 
3 47 55 48 
3 59 45 60 
3 45 49 60 
3 48 61 35 
3 35 61 70 
3 49 36 60 
3 60 36 77 
3 35 70 37 
3 70 63 37 
3 25 63 71 
3 71 64 25 
3 40 51 83 
3 51 29 72 
3 29 74 72 
3 52 30 84 
3 54 86 29 
3 53 85 65 
3 54 65 86 
3 55 75 67 
3 44 76 56 
3 45 69 58 
3 58 69 57 
3 69 45 59 
3 55 67 61 
3 55 61 48 
3 60 69 59 
3 70 78 63 
3 77 38 79 
3 38 62 79 
3 50 40 62 
3 73 84 30 
3 29 86 74 
3 52 84 85 
3 53 52 85 
3 66 65 85 
3 66 85 87 
3 65 66 87 
3 65 87 89 
3 89 86 65 
3 68 92 44 
3 57 69 68 
3 68 69 92 
3 67 70 61 
3 60 77 69 
3 70 106 78 
3 79 62 107 
3 81 78 80 
3 78 82 63 
3 81 82 78 
3 62 40 97 
3 82 71 63 
3 40 83 97 
3 51 72 83 
3 83 72 74 
3 73 64 134 
3 134 64 98 
3 74 86 101 
3 85 100 88 
3 87 85 88 
3 87 88 89 
3 67 75 103 
3 75 90 103 
3 56 91 75 
3 75 91 90 
3 56 76 91 
3 44 92 76 
3 67 103 112 
3 69 130 92 
3 67 112 70 
3 106 95 78 
3 77 79 107 
3 80 93 94 
3 93 80 95 
3 80 94 81 
3 81 94 96 
3 78 95 80 
3 107 62 97 
3 81 96 82 
3 82 96 71 
3 96 132 71 
3 97 83 118 
3 71 132 98 
3 98 64 71 
3 83 109 99 
3 83 74 109 
3 118 83 99 
3 134 84 73 
3 89 101 86 
3 89 88 102 
3 102 101 89 
3 91 76 104 
3 90 91 104 
3 104 76 92 
3 105 103 90 
3 104 105 90 
3 130 104 92 
3 70 112 106 
3 69 77 131 
3 106 114 95 
3 93 96 94 
3 115 96 93 
3 115 93 95 
3 107 97 108 
3 98 132 117 
3 117 134 98 
3 99 109 120 
3 99 120 118 
3 84 134 119 
3 136 84 119 
3 110 85 136 
3 85 84 136 
3 110 100 85 
3 74 101 121 
3 121 101 111 
3 88 100 126 
3 100 110 126 
3 102 88 126 
3 126 111 102 
3 101 102 111 
3 127 112 103 
3 103 128 127 
3 103 105 128 
3 130 69 131 
3 112 113 106 
3 113 114 106 
3 77 107 131 
3 95 114 115 
3 115 132 96 
3 107 108 133 
3 108 97 116 
3 116 97 118 
3 117 141 134 
3 109 74 120 
3 74 121 120 
3 110 136 161 
3 111 124 125 
3 122 121 125 
3 125 121 111 
3 110 123 126 
3 111 126 124 
3 105 104 128 
3 128 104 130 
3 127 129 112 
3 112 129 113 
3 113 115 114 
3 107 133 131 
3 116 133 108 
3 132 141 117 
3 118 133 116 
3 119 143 136 
3 120 121 135 
3 121 146 144 
3 122 146 121 
3 144 135 121 
3 123 110 147 
3 110 161 147 
3 126 125 124 
3 126 146 125 
3 146 122 125 
3 138 128 130 
3 129 137 113 
3 127 137 129 
3 138 137 128 
3 137 127 128 
3 113 137 115 
3 139 115 137 
3 139 140 115 
3 132 115 140 
3 133 118 142 
3 118 120 142 
3 142 120 155 
3 119 134 143 
3 144 145 135 
3 135 145 120 
3 126 123 147 
3 126 147 146 
3 138 130 148 
3 137 138 148 
3 148 149 137 
3 149 139 137 
3 130 149 148 
3 149 151 139 
3 130 150 149 
3 130 131 150 
3 151 140 139 
3 150 131 152 
3 140 141 132 
3 153 141 140 
3 151 153 140 
3 133 152 131 
3 153 154 141 
3 154 134 141 
3 142 167 133 
3 156 134 154 
3 155 167 142 
3 134 156 143 
3 143 157 136 
3 143 156 157 
3 157 158 162 
3 158 159 162 
3 145 160 155 
3 155 120 145 
3 157 161 136 
3 145 144 160 
3 162 147 157 
3 147 161 157 
3 160 144 146 
3 146 147 162 
3 160 146 162 
3 153 151 163 
3 149 163 151 
3 150 163 149 
3 152 163 150 
3 163 154 153 
3 152 133 163 
3 163 164 154 
3 165 164 163 
3 133 167 163 
3 167 165 163 
3 156 154 164 
3 166 164 165 
3 167 166 165 
3 164 157 156 
3 158 157 164 
3 166 168 164 
3 168 158 164 
3 167 155 166 
3 155 168 166 
3 159 158 168 
3 155 160 168 
3 168 169 162 
3 159 168 162 
3 160 169 168 
3 160 162 169 
3 170 172 173 
3 172 171 175 
3 173 172 177 
3 177 172 175 
3 174 173 178 
3 178 173 177 
3 177 175 176 
3 180 176 179 
3 177 176 180 
3 180 178 177 
3 180 179 181 
3 182 180 181 
3 195 170 183 
3 185 183 170 
3 183 185 184 
3 170 195 172 
3 173 185 170 
3 174 185 173 
3 186 171 172 
3 187 171 186 
3 178 185 174 
3 175 171 187 
3 175 187 188 
3 176 188 179 
3 175 188 176 
3 201 212 178 
3 178 180 201 
3 190 201 180 
3 179 188 181 
3 203 191 189 
3 189 191 188 
3 181 188 191 
3 182 181 192 
3 192 181 191 
3 180 182 192 
3 190 180 193 
3 193 180 192 
3 192 216 217 
3 193 192 217 
3 194 218 232 
3 196 194 195 
3 218 194 196 
3 183 196 195 
3 218 196 183 
3 197 218 183 
3 195 194 172 
3 172 194 198 
3 185 197 184 
3 184 197 183 
3 172 198 186 
3 211 200 186 
3 186 200 187 
3 185 178 199 
3 199 178 212 
3 187 200 188 
3 189 202 203 
3 204 216 205 
3 192 191 204 
3 205 192 204 
3 205 216 192 
3 190 193 215 
3 206 194 232 
3 232 218 234 
3 194 206 207 
3 223 207 206 
3 207 223 194 
3 208 197 185 
3 194 223 198 
3 209 186 223 
3 198 223 186 
3 185 199 224 
3 224 199 210 
3 210 199 212 
3 225 211 186 
3 211 241 200 
3 212 201 213 
3 189 188 214 
3 202 189 214 
3 201 190 215 
3 204 228 230 
3 191 228 204 
3 191 202 228 
3 191 203 202 
3 216 204 230 
3 193 217 215 
3 231 217 216 
3 219 206 232 
3 234 233 232 
3 235 218 197 
3 197 221 220 
3 197 220 235 
3 206 219 223 
3 197 208 221 
3 208 185 224 
3 209 225 186 
3 254 211 225 
3 211 254 241 
3 212 213 239 
3 239 213 226 
3 213 240 226 
3 188 200 227 
3 188 228 214 
3 227 228 188 
3 214 228 202 
3 201 215 213 
3 242 228 227 
3 228 242 229 
3 228 229 230 
3 217 231 215 
3 216 243 231 
3 232 233 248 
3 245 232 248 
3 245 246 232 
3 246 219 232 
3 218 250 234 
3 218 235 250 
3 220 221 235 
3 219 222 223 
3 236 222 237 
3 221 208 284 
3 236 237 238 
3 236 223 222 
3 208 224 284 
3 223 236 238 
3 224 210 284 
3 223 253 209 
3 209 253 225 
3 253 254 225 
3 276 241 254 
3 213 215 240 
3 200 241 227 
3 229 267 230 
3 258 257 231 
3 257 215 231 
3 230 267 244 
3 216 230 243 
3 230 244 243 
3 259 231 243 
3 258 231 259 
3 248 247 245 
3 233 234 248 
3 250 249 234 
3 235 221 250 
3 222 275 237 
3 237 251 238 
3 251 237 252 
3 251 252 238 
3 238 252 223 
3 253 223 252 
3 255 284 210 
3 212 239 255 
3 210 212 255 
3 256 255 239 
3 240 256 239 
3 226 240 239 
3 240 215 256 
3 256 215 264 
3 264 215 257 
3 259 243 244 
3 259 244 260 
3 245 247 246 
3 248 261 247 
3 234 261 248 
3 234 249 261 
3 250 261 249 
3 250 262 261 
3 246 274 219 
3 221 263 250 
3 250 263 262 
3 221 284 263 
3 237 253 252 
3 284 255 286 
3 256 264 255 
3 227 241 276 
3 242 277 229 
3 277 267 229 
3 264 257 258 
3 265 264 258 
3 266 267 277 
3 271 258 269 
3 267 260 244 
3 268 260 267 
3 269 270 271 
3 269 258 259 
3 260 268 272 
3 270 269 260 
3 270 260 272 
3 259 260 269 
3 246 247 281 
3 247 261 281 
3 281 274 246 
3 262 263 273 
3 284 273 263 
3 219 274 222 
3 275 285 237 
3 237 285 253 
3 285 295 253 
3 253 295 254 
3 287 276 254 
3 322 276 287 
3 255 264 288 
3 276 242 227 
3 258 278 265 
3 266 277 300 
3 266 280 279 
3 279 280 278 
3 279 278 271 
3 271 278 258 
3 266 279 267 
3 268 267 279 
3 268 279 271 
3 268 271 272 
3 270 272 271 
3 261 292 281 
3 273 293 261 
3 273 261 262 
3 282 273 284 
3 222 274 275 
3 295 287 254 
3 286 255 296 
3 324 276 322 
3 276 324 242 
3 289 277 306 
3 306 277 242 
3 264 265 290 
3 288 264 290 
3 289 300 277 
3 266 300 291 
3 280 266 291 
3 291 278 280 
3 261 301 292 
3 284 302 293 
3 284 293 282 
3 282 293 273 
3 283 315 294 
3 274 283 294 
3 281 283 274 
3 274 294 275 
3 275 294 285 
3 295 321 287 
3 286 296 320 
3 287 321 322 
3 296 255 305 
3 255 288 305 
3 324 306 242 
3 298 289 306 
3 299 297 290 
3 290 297 288 
3 289 298 307 
3 289 307 300 
3 299 265 278 
3 290 265 299 
3 299 291 300 
3 278 291 299 
3 292 311 281 
3 281 311 310 
3 261 293 301 
3 312 293 302 
3 310 283 281 
3 315 283 310 
3 284 303 302 
3 294 315 285 
3 318 303 286 
3 286 303 284 
3 285 315 295 
3 319 318 286 
3 347 286 320 
3 304 320 296 
3 296 305 323 
3 304 296 323 
3 325 305 288 
3 288 297 325 
3 298 308 307 
3 306 308 298 
3 325 299 309 
3 297 299 325 
3 299 300 309 
3 314 313 311 
3 314 311 301 
3 301 311 292 
3 301 293 314 
3 314 293 312 
3 312 316 314 
3 302 316 312 
3 316 330 314 
3 302 303 316 
3 333 316 317 
3 303 317 316 
3 318 317 303 
3 295 337 321 
3 304 323 320 
3 325 326 323 
3 325 323 305 
3 306 344 308 
3 308 344 327 
3 309 308 327 
3 325 309 327 
3 300 307 308 
3 309 300 308 
3 311 328 310 
3 313 329 311 
3 311 329 328 
3 313 314 329 
3 310 328 315 
3 314 330 329 
3 331 330 316 
3 316 345 331 
3 328 332 315 
3 346 332 328 
3 329 346 328 
3 330 346 329 
3 316 333 345 
3 315 337 295 
3 332 337 315 
3 334 337 332 
3 346 335 332 
3 335 334 332 
3 336 333 317 
3 317 318 336 
3 334 339 337 
3 336 334 335 
3 338 321 337 
3 339 338 337 
3 341 339 334 
3 336 341 334 
3 318 341 336 
3 347 320 341 
3 318 347 341 
3 340 321 338 
3 339 340 338 
3 341 340 339 
3 341 342 340 
3 320 323 341 
3 321 324 322 
3 340 324 321 
3 343 324 340 
3 344 343 340 
3 342 344 340 
3 341 323 342 
3 326 344 342 
3 323 326 342 
3 324 343 306 
3 306 343 344 
3 326 325 344 
3 325 327 344 
3 331 345 330 
3 345 346 330 
3 345 333 346 
3 333 336 335 
3 346 333 335 

POINT_DATA 348
SCALARS scalars float
LOOKUP_TABLE default
1 1 1 1 1 1 1 1 1 
1 1 1 1 1 1 1 1 1 
1 1 1 1 1 1 1 1 1 
1 1 1 1 1 1 1 1 1 
1 1 1 1 1 1 1 1 1 
1 1 1 1 1 1 1 1 1 
1 1 1 1 1 1 1 1 1 
1 1 1 1 1 1 1 1 1 
1 1 1 1 1 1 1 1 1 
1 1 1 1 1 1 1 1 1 
1 1 1 1 1 1 1 1 1 
1 1 1 1 1 1 1 1 1 
1 1 1 1 1 1 1 1 1 
1 1 1 1 1 1 1 1 1 
1 1 1 1 1 1 1 1 1 
1 1 1 1 1 1 1 1 1 
1 1 1 1 1 1 1 1 1 
1 1 1 1 1 1 1 1 1 
1 1 1 1 1 1 1 1 1 
1 1 1 1 1 1 1 1 1 
1 1 1 1 1 1 1 1 1 
1 1 1 1 1 1 1 1 1 
1 1 1 1 1 1 1 1 1 
1 1 1 1 1 1 1 1 1 
1 1 1 1 1 1 1 1 1 
1 1 1 1 1 1 1 1 1 
1 1 1 1 1 1 1 1 1 
1 1 1 1 1 1 1 1 1 
1 1 1 1 1 1 1 1 1 
1 1 1 1 1 1 1 1 1 
1 1 1 1 1 1 1 1 1 
1 1 1 1 1 1 1 1 1 
1 1 1 1 1 1 1 1 1 
1 1 1 1 1 1 1 1 1 
1 1 1 1 1 1 1 1 1 
1 1 1 1 1 1 1 1 1 
1 1 1 1 1 1 1 1 1 
1 1 1 1 1 1 1 1 1 
1 1 1 1 1 1 
NORMALS Normals float
-0.331303 -0.242005 -0.911961 -0.0349701 -0.47618 -0.878652 0.277879 -0.281647 -0.9184 
-0.480003 0.0103652 -0.877206 -0.09602 -0.0533728 -0.993947 0.142067 -0.16955 -0.975228 
0.662423 -0.0984287 -0.742636 -0.28865 0.130824 -0.948455 0.462254 0.0334811 -0.886115 
0.540271 0.0473954 -0.840155 -0.48279 0.219642 -0.847745 0.0690221 0.10062 -0.992528 
0.525877 0.133636 -0.839997 -0.118448 0.289317 -0.949877 0.243335 0.199496 -0.949205 
-0.0498044 0.328189 -0.943298 -0.259176 0.400291 -0.878974 -0.0281488 0.471291 -0.881529 
0.252956 0.406987 -0.87771 0.236469 -0.62102 -0.747273 -0.388984 -0.551767 -0.73773 
-0.440294 -0.364491 -0.820541 0.391165 -0.352235 -0.850247 0.716713 -0.287753 -0.635233 
-0.687294 -0.0154468 -0.726215 -0.803306 0.145518 -0.577516 -0.785102 0.262183 -0.561137 
-0.58962 0.32993 -0.737221 -0.527869 0.471792 -0.706234 0.653921 0.355993 -0.667575 
-0.422727 0.568322 -0.705912 -0.0626444 0.620818 -0.781448 -0.176746 -0.734587 -0.65509 
0.0217348 -0.813876 -0.580632 0.47679 -0.565575 -0.672901 -0.70609 -0.408154 -0.578661 
0.860613 -0.263585 -0.435739 -0.749662 -0.179156 -0.63711 0.914909 -0.23253 -0.329957 
0.814462 -0.0919277 -0.572889 0.915058 0.125333 -0.383353 -0.0781235 0.714841 -0.694909 
0.282707 0.624784 -0.72782 -0.254818 -0.887588 -0.383738 -0.0259944 -0.962551 -0.269853 
0.445027 -0.83689 -0.318695 -0.357115 -0.727911 -0.585333 -0.371487 -0.824518 -0.426811 
-0.619903 -0.627131 -0.471622 0.785596 -0.563249 -0.256105 0.985804 0.0653731 -0.154651 
0.86834 0.177531 -0.463107 -0.453161 0.746844 -0.486692 -0.10249 0.837672 -0.536472 
0.4316 0.677545 -0.595529 -0.399572 -0.881752 -0.250711 -0.204198 -0.975226 -0.0850728 
0.195348 -0.977011 -0.085377 0.221896 -0.948337 -0.226758 0.65246 -0.7294 -0.2056 
0.824519 -0.549005 -0.136972 -0.738051 -0.624539 -0.255406 0.992056 -0.0631316 -0.108806 
-0.894253 0.00777327 -0.447494 -0.896557 0.354362 -0.265733 0.0585653 0.864006 -0.500063 
-0.279751 0.910885 -0.30336 -0.703624 -0.710264 -0.0209188 0.134936 -0.989599 0.0498522 
0.536048 -0.828255 0.163238 -0.883014 -0.423955 -0.201365 -0.951959 0.268667 -0.146944 
0.896837 0.282924 -0.340055 -0.799309 0.522441 -0.296918 0.891666 0.43654 -0.119853 
-0.392166 -0.919422 0.0294851 0.015654 -0.993669 0.111254 0.902926 -0.426409 0.0538474 
-0.916605 -0.252712 -0.309793 0.970776 -0.23821 -0.0291462 -0.965798 -0.234871 -0.109858 
-0.98232 -0.0155284 -0.186564 -0.977118 0.0530507 -0.205976 0.986029 0.114608 -0.120877 
-0.784713 0.606191 -0.129451 -0.485005 0.859431 -0.161702 0.660304 0.641195 -0.390984 
-0.0211115 0.973618 -0.227207 -0.0963809 0.993124 -0.0664549 0.37821 0.892271 -0.246597 
-0.318034 -0.894834 0.313253 -0.204859 -0.963302 0.173442 0.201885 -0.946197 0.252892 
-0.921759 -0.256899 0.290453 -0.977834 -0.151654 0.144368 -0.910653 -0.372986 0.177742 
-0.971883 0.0915745 0.216925 0.999826 0.00369192 -0.0182857 -0.943794 0.326061 0.0542 
0.981043 0.157335 0.113141 -0.304287 0.952211 0.0265238 0.698585 0.715326 0.0169725 
0.259942 0.959325 0.110117 -0.562382 -0.764 0.316276 0.018972 -0.877192 0.479765 
-0.202039 -0.829867 0.520097 -0.86993 -0.476311 0.127866 0.949329 -0.228157 0.216145 
0.899956 -0.330649 0.284166 0.922425 0.378808 0.0750733 -0.345775 0.902074 0.258269 
0.502461 0.823544 0.263265 -0.763813 -0.598498 0.241641 -0.726977 -0.408452 0.55197 
-0.833838 -0.354233 0.423359 -0.785935 -0.243024 0.568546 0.922078 -0.20912 0.32564 
-0.913931 0.273059 0.300282 0.952041 0.0535434 0.301249 -0.834835 0.496966 0.236801 
0.864853 0.323785 0.383657 0.771311 0.583453 0.254286 0.648345 0.66434 0.371889 
-0.0812749 0.902833 0.422242 0.359195 0.839871 0.406934 0.485427 0.781368 0.392203 
0.0872692 0.923667 0.373127 -0.513712 -0.654899 0.554262 -0.165071 -0.727406 0.666057 
-0.615346 -0.53363 0.580162 0.294221 -0.688695 0.662671 0.722824 -0.476116 0.500838 
-0.909717 0.10122 0.402703 0.751444 -0.209129 0.625778 -0.850897 0.389487 0.352526 
0.82404 0.355606 0.441024 -0.58422 0.695477 0.418329 -0.429588 -0.404053 0.807586 
-0.132281 -0.540683 0.830761 -0.450385 -0.374369 0.810556 -0.597646 -0.162258 0.78517 
-0.707939 0.129657 0.69427 0.736416 0.137048 0.662502 -0.580711 0.475428 0.660865 
0.630451 0.501616 0.592378 0.688696 0.291767 0.663754 0.407687 0.678436 0.61116 
-0.00103458 0.756881 0.653551 -0.0297284 -0.40015 0.915967 0.0196146 -0.340223 0.94014 
0.376067 -0.335119 0.863868 -0.20657 -0.163924 0.964602 0.612958 -0.206636 0.762616 
-0.33947 -0.0250009 0.940285 -0.409244 0.115388 0.905099 0.547147 0.24215 0.801245 
-0.462917 0.292004 0.836924 -0.263838 0.484434 0.834094 -0.112592 0.299564 0.947409 
-0.0120358 0.284554 0.958584 0.373943 0.435581 0.818802 -0.249711 0.726642 0.640029 
0.0295428 0.570463 0.820792 0.176724 -0.0472395 0.983126 -0.14602 0.153008 0.977377 
0.106228 0.0554455 0.992795 0.235381 0.209248 0.949111 0.485803 0.0273012 0.873642 
0.14277 0.229374 0.962811 0.164271 0.413204 0.895699 0.0827019 -0.320418 -0.943659 
-0.397633 -0.0502917 -0.916165 -0.212916 -0.160835 -0.963742 0.24436 -0.162586 -0.955957 
0.476473 -0.130935 -0.869385 -0.230548 0.111918 -0.966603 -0.127847 0.244893 -0.961084 
0.163862 0.0779545 -0.983398 0.60634 0.0321558 -0.794555 -0.0977372 0.364873 -0.925913 
0.351834 0.302989 -0.885669 -0.030474 0.418117 -0.907882 0.275417 0.401106 -0.873647 
0.111095 -0.363624 -0.924897 0.422443 -0.29431 -0.857277 0.561423 -0.261845 -0.785011 
-0.66128 -0.00137602 -0.750138 -0.547744 0.205557 -0.811001 -0.517029 0.421839 -0.744804 
-0.465296 0.372154 -0.80312 0.617727 0.366999 -0.695503 -0.26655 0.620217 -0.737755 
0.110688 0.579273 -0.807584 0.388067 0.570873 -0.723538 -0.417505 -0.501891 -0.757492 
-0.271118 -0.341157 -0.900059 -0.11995 -0.542219 -0.831631 0.380474 -0.559581 -0.73628 
-0.581769 -0.250644 -0.773772 0.755685 -0.105794 -0.646334 -0.763228 0.30521 -0.5695 
0.785163 0.171034 -0.595203 -0.558569 0.686713 -0.465215 -0.440219 0.709382 -0.55044 
-0.29362 0.722427 -0.626008 -0.0684646 0.659748 -0.748361 -0.564255 -0.592894 -0.574537 
-0.688626 -0.36885 -0.624295 0.784346 -0.405123 -0.469762 -0.887098 0.131447 -0.442468 
0.93979 -0.120602 -0.319765 -0.892293 0.220088 -0.394176 0.872874 -0.0277765 -0.487154 
0.932684 0.146373 -0.329658 -0.71123 0.487178 -0.506764 0.822176 0.458113 -0.337874 
0.060557 0.842028 -0.536023 0.292253 0.724505 -0.624245 0.0557587 -0.739431 -0.670919 
-0.68185 -0.620894 -0.386744 0.430739 -0.695111 -0.575573 0.754072 -0.587593 -0.293444 
-0.74543 -0.584995 -0.319554 -0.843667 -0.130927 -0.520658 0.917045 -0.242979 -0.316212 
-0.91714 0.204208 -0.342277 0.967065 0.13027 -0.218668 -0.755479 0.595832 -0.272463 
-0.575657 0.716966 -0.393165 -0.460881 0.878235 -0.12764 -0.342444 0.905181 -0.251754 
0.519053 0.748437 -0.412826 -0.321066 -0.763283 -0.560638 -0.16288 -0.84058 -0.516618 
-0.0287302 -0.874941 -0.483376 0.519298 -0.754868 -0.40063 -0.716818 -0.560696 -0.414477 
-0.929526 -0.333803 0.156708 -0.956166 -0.0596309 -0.286688 0.998814 -0.00779865 -0.0480649 
0.969928 0.241073 -0.0335344 -0.862895 0.459241 -0.210973 -0.651694 0.756129 0.0597025 
0.0671998 0.942036 -0.328712 -0.129272 0.986247 -0.102983 -0.430853 -0.866536 -0.251953 
-0.600667 -0.790171 -0.121775 -0.315759 -0.94825 0.0334341 -0.132398 -0.978427 -0.15859 
0.0823775 -0.982981 -0.164203 0.440928 -0.882707 -0.162513 -0.970543 0.123543 0.206843 
-0.957876 0.279017 0.0679958 -0.990574 0.125126 0.0557452 -0.967513 0.243753 0.067103 
0.986036 0.0538753 0.157574 0.956938 0.181525 0.226537 0.83656 0.547084 -0.029429 
0.760402 0.64567 0.0699889 0.416665 0.894459 -0.162278 0.0880733 0.993015 0.0785182 
0.0705194 -0.993317 0.0913659 0.479731 -0.877098 -0.023596 0.759687 -0.637502 -0.128326 
0.914218 0.328367 0.237447 0.787273 0.557154 0.264163 -0.160737 0.884997 0.436972 
-0.315798 0.939084 0.135623 -0.0470644 0.931267 0.361284 0.560574 0.815986 0.14115 
0.30827 0.92195 0.234476 0.420416 0.811506 0.405842 0.0793684 0.93778 0.338038 
0.606752 -0.789784 0.0899667 -0.788283 -0.600072 0.136103 -0.854225 -0.48943 0.17538 
-0.82812 0.523545 0.200296 -0.493979 0.843605 0.21051 0.547019 0.700924 0.457685 
0.118212 0.855224 0.504597 0.203066 0.778672 0.593662 -0.434583 -0.830296 0.348923 
0.756161 -0.621968 0.203414 -0.716869 -0.506427 0.479197 0.912598 -0.404931 0.0565274 
-0.877905 -0.024511 0.478206 0.966582 -0.058716 0.249542 -0.886624 0.259585 0.382772 
0.79992 0.316938 0.509587 -0.49086 0.802529 0.339122 0.711659 0.562794 0.420482 
0.168928 0.782171 0.599726 -0.0874504 -0.902155 0.422456 0.485916 -0.803985 0.342774 
-0.812048 -0.225252 0.538367 -0.861565 0.0378692 0.506234 0.859569 0.228266 0.457205 
0.569955 0.508434 0.645481 -0.452088 0.714083 0.534511 0.456889 0.637008 0.620865 
-0.111511 0.824472 0.554807 0.148244 -0.872829 0.464966 0.662552 -0.646847 0.377642 
0.827595 -0.310598 0.467563 0.760147 0.188667 0.621757 0.76271 0.312934 0.565991 
-0.542337 0.644099 0.539451 -0.327146 0.778843 0.535144 -0.204148 0.619181 0.758247 
0.20547 0.605608 0.768779 -0.442261 -0.526587 0.726025 -0.153248 -0.680194 0.716834 
0.431401 -0.741863 0.513355 -0.00881458 -0.586993 0.809544 0.176557 -0.698317 0.693672 
-0.637474 -0.141618 0.757344 0.49044 -0.596911 0.634953 0.688713 -0.224386 0.689438 
0.804433 -0.10519 0.584657 0.301448 -0.662824 -0.685414 0.699444 0.0550363 0.712565 
-0.509835 0.199879 0.83673 -0.703389 0.319181 0.635112 0.55725 0.233173 0.796934 
-0.528726 0.436539 0.72793 0.441515 0.339011 0.830744 0.322639 0.214986 0.921784 
0.118474 0.454594 0.882784 -0.278738 -0.307191 0.909911 -0.124229 -0.370317 0.920561 
0.0725487 -0.458878 0.885532 0.243505 -0.598394 0.763302 -0.304882 -0.160776 0.938722 
0.607198 -0.217866 0.764097 -0.0528917 0.0405883 0.997775 0.182404 -0.0330694 0.982667 
0.42982 0.0701368 0.900186 -0.49582 -0.0478885 0.867104 -0.317162 0.0739872 0.945481 
-0.110401 -0.0250906 0.99357 -0.134841 0.176713 0.974982 0.33338 0.0745887 0.939838 
0.227876 0.152135 0.961732 -0.272338 0.370301 0.888093 -0.0304666 0.348123 0.936954 
0.406419 -0.440004 0.800762 0.062721 -0.157978 0.985449 0.620419 0.05908 0.782042 

