# vtk DataFile Version 4.2
vtk output
ASCII
DATASET POLYDATA
POINTS 2363 float
323.471 175.634 131.341 323.517 175.99 131.278 323.638 175.653 131.317 
323.822 175.773 131.383 323.074 176.174 131.314 322.949 176.135 131.438 
322.879 176.35 131.381 323.424 176.35 131.322 323.117 176.599 131.322 
324.086 175.039 131.517 324.154 174.809 131.63 324.3 174.973 131.592 
324.338 174.755 131.662 324.438 174.867 131.701 323.926 175.397 131.409 
324.416 175.126 131.724 322.393 177.129 131.608 322.264 176.9 131.888 
322.661 177.011 131.436 321.979 177.69 131.828 322.647 177.597 131.593 
324.284 174.654 131.744 324.276 174.613 131.954 324.385 174.614 131.744 
324.41 174.567 131.875 324.473 174.61 131.816 324.52 174.723 131.811 
324.656 174.756 132.04 324.489 175.541 131.979 323.459 176.935 131.624 
321.525 177.903 132.27 321.474 178.138 132.209 320.681 179.683 132.72 
320.695 179.57 132.723 320.577 179.821 132.858 320.79 179.552 132.654 
320.736 179.794 132.764 324.584 174.628 131.951 324.545 174.564 132.028 
324.336 176.248 132.11 321.919 177.083 132.563 320.921 179.236 132.611 
320.889 178.911 132.845 321.141 178.35 132.814 322.746 178.368 132.16 
320.385 180.045 133.11 321.007 179.48 132.601 318.534 182.666 133.772 
318.569 182.604 133.767 318.535 182.629 133.812 320.48 180.279 133.08 
318.632 182.598 133.781 318.474 182.729 133.858 318.543 182.626 133.99 
318.421 182.828 134.023 318.497 182.772 133.819 318.431 182.877 133.941 
318.373 183.036 134.18 318.481 182.881 133.892 318.557 182.813 133.849 
324.502 174.572 132.504 325.207 175.722 133.333 318.652 182.54 133.842 
320.063 180.633 133.493 320.335 180.733 133.283 318.866 182.303 134.01 
318.878 182.507 133.887 318.361 183.436 134.506 324.45 174.63 132.787 
324.701 174.643 132.753 324.921 174.84 133.194 324.277 174.922 133.523 
325.132 175.089 133.432 325.346 175.339 133.874 320.52 179.242 133.779 
319.581 181.111 134.124 319.027 181.917 134.349 319.599 181.757 133.865 
320.293 181.705 133.8 318.181 183.315 134.829 319.179 182.867 134.179 
318.459 183.965 134.802 324.297 175.128 134.231 325.625 175.47 134.625 
326.062 175.897 135.22 322.239 176.863 134.315 325.746 177.162 134.755 
319.669 180.677 134.704 322.422 180.555 133.754 319.243 181.402 134.608 
318.177 183.023 135.493 317.671 184.429 135.772 317.865 184.626 135.46 
318.381 184.578 135.237 324.776 175.066 134.571 325.045 175.061 134.482 
326.035 175.542 135.668 321.38 182.845 135.022 317.574 184.438 136.092 
317.434 184.7 136.587 318.971 184.391 135.168 320.075 184.246 135.458 
317.531 185.902 136.465 317.767 185.794 136.241 324.96 175.392 135.732 
326.556 175.62 136.554 327.317 176.464 136.953 322.525 177.081 135.703 
318.178 183.143 136.673 316.96 186.376 137.363 334.285 167.968 139.501 
334.304 167.932 139.49 334.273 167.986 139.512 334.216 168.103 139.559 
325.446 175.428 136.224 327.937 175.627 138.054 326.765 175.537 137.418 
325.378 181.653 137.54 316.268 187.333 138.334 320.803 186.524 137.866 
316.16 188.506 138.407 316.889 187.9 137.865 315.493 189.432 138.901 
317.196 188.566 138.131 315.66 189.845 138.854 314.693 190.736 139.392 
315.926 190.686 139.103 334.315 167.918 139.488 334.313 167.924 139.498 
334.31 167.938 139.505 334.2 168.116 139.576 334.279 168.026 139.556 
333.905 168.655 139.766 334.013 168.529 139.725 333.092 170.12 140.131 
332.596 170.844 140.233 333.522 169.644 140.102 332.089 171.317 140.345 
331.68 172.35 140.293 325.575 175.62 136.993 327.49 175.38 138.412 
328.796 174.906 139.287 329.546 175.193 139.366 329.442 176.404 139.416 
316.943 185.646 138.202 318.532 187.497 137.582 319.13 187.201 137.542 
315.489 188.595 139.177 318.236 188.899 138.539 316.175 191.086 139.342 
313.7 192.581 140.245 334.282 167.998 139.549 334.269 168.069 139.607 
334.247 168.154 139.661 333.852 168.712 139.849 334.224 168.211 139.674 
333.562 169.197 139.97 333.974 168.701 139.83 332.515 170.669 140.379 
332.206 171.091 140.398 330.813 173.092 140.304 329.874 174.113 139.95 
330.56 173.768 140.072 331.894 172.916 140.61 327.586 175.37 139.23 
330.826 174.544 140.281 319.901 181.703 138.783 315.843 187.722 139.283 
315.741 187.872 139.668 317.199 190.512 139.269 312.67 192.717 141.117 
313.273 192.256 140.556 311.94 193.828 141.358 313.662 193.782 140.736 
310.87 195.456 141.77 310.919 195.383 141.788 310.841 195.519 141.858 
310.897 195.502 141.791 334.114 168.352 139.783 334.233 168.173 139.695 
333.239 169.697 140.376 330.349 173.282 140.841 328.028 175.299 140.197 
319.812 189.75 140.221 313.094 191.963 141.144 312.312 193.149 141.424 
315.312 193.229 140.615 311.208 195.115 141.736 311.024 195.11 142.094 
310.885 195.4 141.954 313.302 194.347 141.06 310.773 195.675 142.075 
312.061 195.17 141.585 314.123 194.527 141.317 333.804 168.894 140.099 
334.001 168.771 140.056 333.508 169.503 140.524 333.724 169.135 140.292 
333.966 168.908 140.137 333.936 169.003 140.213 333.576 169.926 140.817 
332.077 171.27 141.144 328.423 175.319 141.165 331.206 174.949 141.066 
330.271 176.523 140.706 328.267 180.031 140.657 314.903 189.418 141.195 
310.635 195.882 142.318 310.557 195.884 142.546 310.518 196.045 142.484 
310.592 196.079 142.391 310.512 196.197 142.556 310.841 195.988 142.222 
311.622 196.044 142.177 310.632 196.221 142.465 310.691 196.366 142.601 
333.875 168.982 140.219 333.588 169.574 140.629 333.92 169.002 140.224 
333.283 170.084 141.007 333.448 170.075 141.037 333.494 170.161 141.109 
333.473 170.276 141.219 333.319 170.745 141.494 332.254 173.413 141.632 
331.727 174.402 141.74 331.011 175.577 141.405 330.044 177.39 141.597 
318.39 185.161 141.366 317.383 186.362 141.387 315.182 194.832 141.984 
310.494 196.288 142.733 311.085 196.497 142.719 333.242 170.483 141.386 
333.417 170.339 141.262 333.103 170.98 141.87 333.203 171.068 141.938 
333.171 171.276 142.147 331.905 171.991 142.18 331.986 174.033 141.968 
331.369 175.094 142.08 328.19 180.807 142.418 318.347 185.876 142.277 
311.55 194.429 143.357 310.752 195.534 143.002 310.49 196.134 142.913 
310.598 195.998 143.115 310.533 196.222 143.094 310.503 196.298 142.931 
310.595 196.439 143.081 310.984 196.558 142.874 311.088 196.662 143.235 
311.556 196.806 143.431 333.118 171.227 142.15 333.104 171.376 142.281 
333.102 171.485 142.3 332.993 171.739 142.424 332.41 173.288 142.583 
331.807 174.241 142.575 327.535 178.049 142.889 324.726 180.728 143.34 
328.729 179.566 142.784 327.825 181.383 143.163 327.174 182.652 143.421 
318.333 187.415 144.294 323.845 188.366 143.931 310.597 196.375 143.203 
316.044 196.208 144.096 310.716 196.504 143.298 311.014 196.641 143.598 
312.489 197.177 144.274 333.059 171.375 142.296 332.756 171.744 142.532 
332.78 172.042 142.646 332.298 172.339 142.947 331.193 173.566 142.925 
331.3 173.764 143.051 332.106 173.559 142.951 330.152 174.832 142.79 
331.496 174.515 142.803 331.783 173.899 143.005 328.516 179.579 143.174 
326.662 183.592 144.163 326.295 184.486 144.547 311.038 196.561 143.901 
311.22 196.499 144.338 314.785 197.772 145.707 313.694 197.937 145.873 
314.264 198.02 146.021 332.257 172.48 143.044 332.544 172.293 142.879 
331.763 173.019 143.086 331.973 172.875 143.119 332.201 172.654 143.093 
331.603 173.593 143.144 332.245 173.161 143.089 331.519 173.899 143.097 
331.87 173.59 143.129 328.159 178.706 143.346 328.661 178.476 143.218 
329.245 177.794 142.983 327.92 180.088 143.704 325.162 182.151 144.881 
327.526 181.03 144.012 327.645 181.244 143.811 326.434 183.722 144.988 
324.782 187.601 145.458 315.788 197.436 145.721 312.522 197.561 146.371 
313.542 198.186 146.532 332.35 172.641 143.048 331.824 173.437 143.164 
332.078 173.262 143.146 326.341 181.839 144.745 326.584 182.287 144.812 
311.708 196.536 145.382 312.416 197.192 146.853 312.792 197.91 147.493 
313.409 198.373 147.126 325.498 183.161 145.719 325.983 182.983 145.45 
325.886 184.468 146.135 324.809 187.61 146.851 318.626 190.306 148.35 
316.109 198.539 147.711 347.637 167.643 151.413 347.46 167.842 151.15 
347.112 168.08 151.051 347.851 168.067 150.977 348.791 167.981 151.15 
346.506 168.549 150.916 346.524 168.481 150.956 346.426 168.59 150.998 
347.303 168.489 150.87 348.068 168.329 150.944 346.547 168.656 150.918 
346.831 168.917 150.804 346.737 169.015 150.861 346.827 168.997 150.797 
346.875 169.115 150.845 324.214 185.112 147.023 349 186.009 149.017 
349 186.009 149.017 349 186.009 149.017 349 186.009 149.017 
349 186.009 149.017 312.94 198.14 148.957 313.085 198.823 149.537 
313.708 199.326 148.893 315.248 199.813 149.393 314.489 200.5 150.363 
348.683 167.319 151.536 348.564 167.361 151.499 348.496 167.511 151.358 
348.245 167.409 151.611 349.053 167.539 151.507 346.634 168.32 151.112 
350.203 168.259 151.765 345.457 168.754 151.642 346.896 168.719 150.883 
349.997 168.886 151.458 350.787 168.938 151.931 346.387 168.957 151.025 
350.079 169.306 151.493 350.803 169.219 151.867 347.62 170.495 151.282 
348.328 170.308 151.242 325.313 185.102 147.078 324.528 185.305 147.251 
325.233 185.968 147.274 349 186.009 149.017 324.904 186.721 147.513 
325.032 186.288 147.464 348.642 187.077 152.613 348.541 186.92 152.645 
348.879 187.04 152.612 349.089 187.014 152.668 348.552 187.302 152.678 
348.766 187.234 152.632 349.238 187.125 152.791 348.471 187.509 152.794 
348.981 187.469 152.824 349.154 187.345 152.831 321.745 194.239 149.605 
316.96 199.784 150.334 317.627 199.328 150.319 313.106 200.123 151.118 
313.316 200.728 151.326 315.001 200.923 150.974 348.602 167.316 151.621 
346.329 168.012 151.72 348.737 167.318 151.934 349.692 167.559 152.048 
345.274 168.472 152.295 345.826 168.289 151.782 344.627 169.428 152.308 
344.54 169.997 152.223 344.351 170.205 152.505 345.351 169.89 151.62 
351.243 169.982 152.156 351.575 170.1 152.493 344.707 170.475 152.07 
345.069 170.476 151.894 344.343 171.098 152.422 344.355 171.018 152.408 
344.325 171.079 152.462 344.895 170.901 152.11 344.43 171.072 152.379 
[...]
POINT_DATA 2363
SCALARS scalars float
LOOKUP_TABLE default
1 1 1 1 1 1 1 1 1 
1 1 1 1 1 1 1 1 1 
1 1 1 1 1 1 1 1 1 
1 1 1 1 1 1 1 1 1 
1 1 1 1 1 1 1 1 1 
1 1 1 1 1 1 1 1 1 
1 1 1 1 1 1 1 1 1 
1 1 1 1 1 1 1 1 1 
1 1 1 1 1 1 1 1 1 
1 1 1 1 1 1 1 1 1 
1 1 1 1 1 1 1 1 1 
1 1 1 1 1 1 1 1 1 
1 1 1 1 1 1 1 1 1 
1 1 1 1 1 1 1 1 1 
1 1 1 1 1 1 1 1 1 
1 1 1 1 1 1 1 1 1 
1 1 1 1 1 1 1 1 1 
1 1 1 1 1 1 1 1 1 
1 1 1 1 1 1 1 1 1 
1 1 1 1 1 1 1 1 1 
1 1 1 1 1 1 1 1 1 
1 1 1 1 1 1 1 1 1 
1 1 1 1 1 1 1 1 1 
1 1 1 1 1 1 1 1 1 
1 1 1 1 1 1 1 1 1 
1 1 1 1 1 1 1 1 1 
1 1 1 1 1 1 1 1 1 
1 1 1 1 1 1 1 1 1 
1 1 1 1 1 1 1 1 1 
1 1 1 1 1 1 1 1 1 
1 1 1 1 1 1 1 1 1 
1 1 1 1 1 1 1 1 1 
1 1 1 1 1 1 1 1 1 
1 1 1 1 1 1 1 1 1 
1 1 1 1 1 1 1 1 1 
1 1 1 1 1 1 1 1 1 
1 1 1 1 1 1 1 1 1 
1 1 1 1 1 1 1 1 1 
1 1 1 1 1 1 1 1 1 
1 1 1 1 1 1 1 1 1 
1 1 1 1 1 1 1 1 1 
1 1 1 1 1 1 1 1 1 
1 1 1 1 1 1 1 1 1 
1 1 1 1 1 1 1 1 1 
1 1 1 1 1 1 1 1 1 
1 1 1 1 1 1 1 1 1 
1 1 1 1 1 1 1 1 1 
1 1 1 1 1 1 1 1 1 
1 1 1 1 1 1 1 1 1 
1 1 1 1 1 1 1 1 1 
1 1 1 1 1 1 1 1 1 
1 1 1 1 1 1 1 1 1 
1 1 1 1 1 1 1 1 1 
1 1 1 1 1 1 1 1 1 
1 1 1 1 1 1 1 1 1 
1 1 1 1 1 1 1 1 1 
1 1 1 1 1 1 1 1 1 
1 1 1 1 1 1 1 1 1 
1 1 1 1 1 1 1 1 1 
1 1 1 1 1 1 1 1 1 
1 1 1 1 1 1 1 1 1 
1 1 1 1 1 1 1 1 1 
1 1 1 1 1 1 1 1 1 
1 1 1 1 1 1 1 1 1 
1 1 1 1 1 1 1 1 1 
1 1 1 1 1 1 1 1 1 
1 1 1 1 1 1 1 1 1 
1 1 1 1 1 1 1 1 1 
1 1 1 1 1 1 1 1 1 
1 1 1 1 1 1 1 1 1 
1 1 1 1 1 1 1 1 1 
1 1 1 1 1 1 1 1 1 
1 1 1 1 1 1 1 1 1 
1 1 1 1 1 1 1 1 1 
1 1 1 1 1 1 1 1 1 
1 1 1 1 1 1 1 1 1 
1 1 1 1 1 1 1 1 1 
1 1 1 1 1 1 1 1 1 
1 1 1 1 1 1 1 1 1 
1 1 1 1 1 1 1 1 1 
1 1 1 1 1 1 1 1 1 
1 1 1 1 1 1 1 1 1 
1 1 1 1 1 1 1 1 1 
1 1 1 1 1 1 1 1 1 
1 1 1 1 1 1 1 1 1 
1 1 1 1 1 1 1 1 1 
1 1 1 1 1 1 1 1 1 
1 1 1 1 1 1 1 1 1 
1 1 1 1 1 1 1 1 1 
1 1 1 1 1 1 1 1 1 
1 1 1 1 1 1 1 1 1 
1 1 1 1 1 1 1 1 1 
1 1 1 1 1 1 1 1 1 
1 1 1 1 1 1 1 1 1 
1 1 1 1 1 1 1 1 1 
1 1 1 1 1 1 1 1 1 
1 1 1 1 1 1 1 1 1 
1 1 1 1 1 1 1 1 1 
1 1 1 1 1 1 1 1 1 
1 1 1 1 1 1 1 1 1 
1 1 1 1 1 1 1 1 1 
1 1 1 1 1 1 1 1 1 
1 1 1 1 1 1 1 1 1 
1 1 1 1 1 1 1 1 1 
1 1 1 1 1 1 1 1 1 
1 1 1 1 1 1 1 1 1 
1 1 1 1 1 1 1 1 1 
1 1 1 1 1 1 1 1 1 
1 1 1 1 1 1 1 1 1 
1 1 1 1 1 1 1 1 1 
1 1 1 1 1 1 1 1 1 
1 1 1 1 1 1 1 1 1 
1 1 1 1 1 1 1 1 1 
1 1 1 1 1 1 1 1 1 
1 1 1 1 1 1 1 1 1 
1 1 1 1 1 1 1 1 1 
1 1 1 1 1 1 1 1 1 
1 1 1 1 1 1 1 1 1 
1 1 1 1 1 1 1 1 1 
1 1 1 1 1 1 1 1 1 
1 1 1 1 1 1 1 1 1 
1 1 1 1 1 1 1 1 1 
1 1 1 1 1 1 1 1 1 
1 1 1 1 1 1 1 1 1 
1 1 1 1 1 1 1 1 1 
1 1 1 1 1 1 1 1 1 
1 1 1 1 1 1 1 1 1 
1 1 1 1 1 1 1 1 1 
1 1 1 1 1 1 1 1 1 
1 1 1 1 1 1 1 1 1 
1 1 1 1 1 1 1 1 1 
1 1 1 1 1 1 1 1 1 
1 1 1 1 1 1 1 1 1 
1 1 1 1 1 1 1 1 1 
1 1 1 1 1 1 1 1 1 
1 1 1 1 1 1 1 1 1 
1 1 1 1 1 1 1 1 1 
1 1 1 1 1 1 1 1 1 
1 1 1 1 1 1 1 1 1 
1 1 1 1 1 1 1 1 1 
1 1 1 1 1 1 1 1 1 
1 1 1 1 1 1 1 1 1 
1 1 1 1 1 1 1 1 1 
1 1 1 1 1 1 1 1 1 
1 1 1 1 1 1 1 1 1 
1 1 1 1 1 1 1 1 1 
1 1 1 1 1 1 1 1 1 
1 1 1 1 1 1 1 1 1 
1 1 1 1 1 1 1 1 1 
1 1 1 1 1 1 1 1 1 
1 1 1 1 1 1 1 1 1 
1 1 1 1 1 1 1 1 1 
1 1 1 1 1 1 1 1 1 
1 1 1 1 1 1 1 1 1 
1 1 1 1 1 1 1 1 1 
1 1 1 1 1 1 1 1 1 
1 1 1 1 1 1 1 1 1 
1 1 1 1 1 1 1 1 1 
1 1 1 1 1 1 1 1 1 
1 1 1 1 1 1 1 1 1 
1 1 1 1 1 1 1 1 1 
1 1 1 1 1 1 1 1 1 
1 1 1 1 1 1 1 1 1 
1 1 1 1 1 1 1 1 1 
1 1 1 1 1 1 1 1 1 
1 1 1 1 1 1 1 1 1 
1 1 1 1 1 1 1 1 1 
1 1 1 1 1 1 1 1 1 
1 1 1 1 1 1 1 1 1 
1 1 1 1 1 1 1 1 1 
1 1 1 1 1 1 1 1 1 
1 1 1 1 1 1 1 1 1 
1 1 1 1 1 1 1 1 1 
1 1 1 1 1 1 1 1 1 
1 1 1 1 1 1 1 1 1 
1 1 1 1 1 1 1 1 1 
1 1 1 1 1 1 1 1 1 
1 1 1 1 1 1 1 1 1 
1 1 1 1 1 1 1 1 1 
1 1 1 1 1 1 1 1 1 
1 1 1 1 1 1 1 1 1 
1 1 1 1 1 1 1 1 1 
1 1 1 1 1 1 1 1 1 
1 1 1 1 1 1 1 1 1 
1 1 1 1 1 1 1 1 1 
1 1 1 1 1 1 1 1 1 
1 1 1 1 1 1 1 1 1 
1 1 1 1 1 1 1 1 1 
1 1 1 1 1 1 1 1 1 
1 1 1 1 1 1 1 1 1 
1 1 1 1 1 1 1 1 1 
1 1 1 1 1 1 1 1 1 
1 1 1 1 1 1 1 1 1 
1 1 1 1 1 1 1 1 1 
1 1 1 1 1 1 1 1 1 
1 1 1 1 1 1 1 1 1 
1 1 1 1 1 1 1 1 1 
1 1 1 1 1 1 1 1 1 
1 1 1 1 1 1 1 1 1 
1 1 1 1 1 1 1 1 1 
1 1 1 1 1 1 1 1 1 
1 1 1 1 1 1 1 1 1 
1 1 1 1 1 1 1 1 1 
1 1 1 1 1 1 1 1 1 
1 1 1 1 1 1 1 1 1 
1 1 1 1 1 1 1 1 1 
1 1 1 1 1 1 1 1 1 
1 1 1 1 1 1 1 1 1 
1 1 1 1 1 1 1 1 1 
1 1 1 1 1 1 1 1 1 
1 1 1 1 1 1 1 1 1 
1 1 1 1 1 1 1 1 1 
1 1 1 1 1 1 1 1 1 
1 1 1 1 1 1 1 1 1 
1 1 1 1 1 1 1 1 1 
1 1 1 1 1 1 1 1 1 
1 1 1 1 1 1 1 1 1 
1 1 1 1 1 1 1 1 1 
1 1 1 1 1 1 1 1 1 
1 1 1 1 1 1 1 1 1 
1 1 1 1 1 1 1 1 1 
1 1 1 1 1 1 1 1 1 
1 1 1 1 1 1 1 1 1 
1 1 1 1 1 1 1 1 1 
1 1 1 1 1 1 1 1 1 
1 1 1 1 1 1 1 1 1 
1 1 1 1 1 1 1 1 1 
1 1 1 1 1 1 1 1 1 
1 1 1 1 1 1 1 1 1 
1 1 1 1 1 1 1 1 1 
1 1 1 1 1 1 1 1 1 
1 1 1 1 1 1 1 1 1 
1 1 1 1 1 1 1 1 1 
1 1 1 1 1 1 1 1 1 
1 1 1 1 1 1 1 1 1 
1 1 1 1 1 1 1 1 1 
1 1 1 1 1 1 1 1 1 
1 1 1 1 1 1 1 1 1 
1 1 1 1 1 1 1 1 1 
1 1 1 1 1 1 1 1 1 
1 1 1 1 1 1 1 1 1 
1 1 1 1 1 1 1 1 1 
1 1 1 1 1 1 1 1 1 
1 1 1 1 1 1 1 1 1 
1 1 1 1 1 1 1 1 1 
1 1 1 1 1 1 1 1 1 
1 1 1 1 1 1 1 1 1 
1 1 1 1 1 1 1 1 1 
1 1 1 1 1 1 1 1 1 
1 1 1 1 1 1 1 1 1 
1 1 1 1 1 1 1 1 1 
1 1 1 1 1 1 1 1 1 
1 1 1 1 1 1 1 1 1 
1 1 1 1 1 1 1 1 1 
1 1 1 1 1 1 1 1 1 
1 1 1 1 1 1 1 1 1 
1 1 1 1 1 1 1 1 1 
1 1 1 1 1 1 1 1 1 
1 1 1 1 1 1 1 1 1 
1 1 1 1 1 1 1 1 1 
1 1 1 1 1 1 1 1 1 
1 1 1 1 1 1 1 1 1 
1 1 1 1 1 
NORMALS Normals float
-0.281235 -0.402927 -0.870951 0.101982 0.00693203 -0.994762 0.118019 -0.141673 -0.982853 
0.514082 0.167519 -0.841224 -0.282798 -0.141464 -0.94869 -0.727975 -0.58406 -0.359064 
-0.576796 -0.199024 -0.792272 0.416586 0.269231 -0.868315 -0.00500967 0.174353 -0.98467 
0.0689264 -0.332521 -0.940574 -0.441316 -0.677148 -0.588822 0.490132 0.0430878 -0.870583 
0.308889 -0.373401 -0.874734 0.682866 -0.0516341 -0.728716 0.214675 -0.159063 -0.963646 
0.724813 0.21363 -0.654988 -0.570484 -0.122342 -0.812146 -0.766672 -0.504336 -0.397315 
-0.404602 -0.011914 -0.914415 -0.601267 -0.0929786 -0.79362 -0.0647553 0.338698 -0.938664 
-0.372449 -0.793678 -0.480996 -0.694163 -0.719381 -0.0250702 0.0843479 -0.758223 -0.646516 
-0.0920324 -0.978094 -0.186715 0.553633 -0.613207 -0.563442 0.793279 -0.0927358 -0.601755 
0.918646 -0.165325 -0.358827 0.778377 0.219047 -0.588343 0.503515 0.444161 -0.741076 
-0.849137 -0.424405 -0.314401 -0.762769 -0.190153 -0.618082 -0.520343 0.189471 -0.832672 
-0.805163 -0.215772 -0.552408 -0.675223 0.168899 -0.718016 -0.335729 0.127003 -0.933358 
-0.19129 0.432949 -0.880888 0.807052 -0.500311 -0.313617 0.409694 -0.899838 -0.149805 
0.722653 0.376613 -0.579599 -0.782965 -0.618608 -0.0654925 -0.608135 -0.120783 -0.784592 
-0.881103 -0.395721 -0.258963 -0.887278 -0.439774 -0.139057 0.436054 0.53644 -0.722557 
-0.83995 -0.0973398 -0.533863 -0.145577 0.345686 -0.926989 -0.253062 0.160287 -0.95408 
-0.376739 -0.600095 -0.705659 -0.77887 -0.611077 -0.141231 -0.594077 0.169584 -0.786329 
0.272123 -0.196628 -0.941959 -0.920867 -0.285829 -0.265152 -0.779145 -0.625951 0.0334505 
-0.939203 -0.342304 0.0269477 -0.518467 0.307962 -0.797716 -0.880562 0.153972 -0.448222 
-0.979991 -0.0931283 -0.175912 -0.278498 0.636798 -0.718977 0.271261 0.497034 -0.824242 
-0.227094 -0.969326 0.0939927 0.904989 -0.0451347 -0.423034 -0.328892 -0.826907 -0.45613 
-0.849259 -0.229267 -0.475601 -0.122001 0.409753 -0.904001 -0.499219 -0.64664 -0.576746 
0.244676 0.00291895 -0.9696 -0.484469 0.483781 -0.728866 -0.452218 -0.876514 0.164991 
0.529023 -0.848068 0.0302375 0.775197 -0.62704 -0.0767561 -0.726559 -0.671659 0.144868 
0.915641 -0.28959 -0.278817 0.906751 -0.342945 -0.24534 -0.884561 -0.454878 -0.103141 
-0.818284 -0.400769 -0.412062 -0.794254 -0.52802 -0.300592 -0.443587 -0.0273439 -0.895814 
0.242906 0.484964 -0.840123 -0.93632 -0.0575619 -0.346399 0.239087 0.525773 -0.816333 
0.091893 0.530958 -0.842401 -0.553802 -0.807455 0.203271 0.821501 -0.520225 -0.233456 
0.81953 -0.357567 -0.447791 -0.762642 -0.641202 0.0850716 0.795854 0.215423 -0.565871 
-0.872418 -0.487128 0.0399124 0.415966 0.568722 -0.709597 -0.861838 -0.50596 0.0352142 
-0.878796 -0.47403 -0.0548912 -0.944463 -0.0430712 -0.325782 -0.793277 0.221515 -0.567136 
-0.149329 0.618321 -0.771608 -0.108028 -0.981669 0.157022 0.198938 -0.973514 0.112668 
0.67897 -0.680353 -0.275898 0.398467 0.530788 -0.747989 -0.950395 -0.277104 -0.141293 
-0.970863 -0.0815349 -0.225339 0.209161 0.647913 -0.732434 0.396023 0.61039 -0.685996 
-0.444735 0.543199 -0.712141 -0.140523 0.583806 -0.79964 -0.226114 -0.930491 0.288199 
0.442236 -0.856065 -0.267545 0.731438 -0.211451 -0.648296 -0.663321 -0.65468 0.362489 
-0.845082 -0.524391 0.104168 -0.834658 0.0995581 -0.541696 0.393467 0.488033 -0.779107 
-0.878853 -0.459477 -0.128441 -0.886435 -0.449564 -0.110112 -0.347996 0.178935 -0.920262 
-0.269678 -0.924413 0.269694 0.363392 -0.789287 -0.494947 0.180388 -0.979795 -0.086379 
0.611663 0.543991 -0.574406 -0.862298 -0.203347 -0.463781 0.552047 0.613053 -0.565164 
-0.639673 0.106876 -0.76118 -0.15821 0.384021 -0.909669 -0.686329 -0.0356089 -0.726419 
0.0789159 0.401021 -0.912663 -0.474559 0.33535 -0.813839 -0.473105 0.0952134 -0.875846 
-0.15759 0.434447 -0.886804 -0.768925 -0.571564 0.286475 0.087795 -0.642411 0.761315 
0.96326 0.257345 0.0768288 -0.872737 -0.487648 -0.0230101 0.937712 0.333554 -0.097149 
-0.66642 -0.161822 -0.727804 0.420975 0.45437 -0.785066 -0.0191898 0.204935 -0.978587 
0.101952 0.178469 -0.978649 0.60672 0.439243 -0.662538 -0.522847 -0.32357 -0.788628 
0.0252439 -0.0290663 -0.999259 -0.281936 -0.944563 0.168261 -0.0446718 -0.978615 -0.200789 
-0.12612 -0.909196 -0.396809 0.445449 -0.316509 -0.837494 0.770752 0.248278 -0.58677 
-0.930981 -0.352153 -0.0962377 0.246612 0.653928 -0.715235 0.295004 0.678318 -0.672947 
-0.842228 -0.38426 -0.378148 0.270958 0.503492 -0.820413 0.251135 0.595612 -0.763006 
-0.262601 0.274321 -0.925088 -0.0255652 -0.628887 0.777076 0.975245 0.0629562 0.211977 
0.94452 0.272383 0.183548 -0.849214 -0.525766 0.0490434 0.817954 0.484392 -0.310346 
-0.764962 -0.389331 -0.513084 0.848689 0.469662 -0.243197 -0.747938 -0.663357 0.0233641 
-0.824803 -0.490079 -0.281998 -0.451531 -0.464496 -0.761816 -0.301332 -0.672264 -0.676211 
0.19773 -0.160049 -0.967102 0.536834 0.308786 -0.78515 -0.557188 -0.769011 0.313312 
0.710809 0.278683 -0.645822 -0.652782 -0.631174 0.418921 -0.853978 -0.494732 -0.161127 
-0.856895 -0.450872 0.249891 0.277982 0.571514 -0.772074 -0.832489 -0.482034 -0.27314 
-0.749689 -0.276659 -0.601188 -0.800562 -0.36868 -0.472415 0.0789519 0.474629 -0.876638 
-0.665749 -0.0741424 -0.742484 -0.788762 -0.590284 -0.171521 -0.928729 0.0288019 -0.36964 
-0.232715 0.453326 -0.86043 -0.576778 -0.625921 0.524928 0.363863 -0.454112 0.813257 
-0.729817 -0.599292 0.328961 -0.72305 -0.690699 0.0115482 -0.629865 -0.77526 0.0473624 
0.468367 0.649732 -0.598733 -0.821004 -0.567707 -0.060506 -0.834329 -0.50396 -0.223425 
0.260194 0.596592 -0.759195 -0.500359 -0.104027 -0.859546 -0.861961 -0.486563 -0.142408 
-0.853139 -0.509498 -0.112095 -0.0355003 0.639465 -0.768 -0.942887 -0.188397 -0.27472 
-0.0102632 0.49134 -0.870907 0.146596 0.710214 -0.688554 -0.757771 -0.560662 0.333828 
0.908618 0.035636 0.416104 -0.585454 -0.576284 0.570211 -0.526795 -0.627879 0.572935 
0.965992 0.104168 0.236662 0.96706 0.230022 0.109014 0.846773 -0.157473 0.508112 
-0.80589 -0.572182 0.152149 -0.722603 -0.557576 0.408601 0.826157 0.414013 -0.382176 
0.778626 0.459557 -0.427258 0.785121 0.525636 -0.327554 -0.83189 -0.553881 0.034293 
-0.797186 0.027841 -0.603091 -0.937185 -0.332644 -0.105037 -0.981839 -0.132827 -0.135462 
-0.628297 0.309214 -0.713883 -0.746486 0.45904 -0.481706 -0.380067 0.51863 -0.76588 
0.0656457 0.722826 -0.687905 -0.280113 0.654583 -0.702181 -0.368868 0.81732 -0.442634 
-0.019363 -0.571456 0.820404 -0.125842 -0.594873 0.793908 0.431998 -0.410392 0.803092 
-0.309152 -0.702559 0.640964 0.127934 -0.645045 0.753359 0.244017 -0.655556 0.714634 
0.579706 -0.407064 0.705861 0.816648 -0.2221 0.53269 0.886438 0.421249 -0.191774 
0.85751 0.463127 -0.224029 0.804065 0.54737 -0.23209 0.871777 0.485879 -0.0626578 
-0.701195 -0.619712 0.352538 -0.781669 -0.477735 0.400952 0.257594 0.729424 -0.633708 
-0.882055 0.443928 -0.157819 -0.0150491 0.861751 -0.507109 0.172268 -0.606677 0.776059 
0.0366296 -0.590367 0.806303 0.0188684 -0.724907 0.688588 0.480978 -0.624211 0.615647 
0.951342 -0.0360993 0.306015 -0.62391 -0.632354 0.4592 0.883279 0.468842 0.00217971 
0.755764 0.641323 0.132383 0.868007 0.494918 0.0402429 -0.672175 -0.444041 0.592459 
-0.765226 -0.585698 0.267183 -0.899218 -0.415832 0.135981 -0.975608 -0.172464 0.135812 
-0.894656 -0.219031 0.389378 -0.925641 -0.0336849 0.376902 -0.975093 0.189895 0.114601 
-0.64035 0.767792 -0.0211243 -0.206721 0.934591 -0.289493 -0.257351 0.955446 -0.144545 
-0.0511802 0.943265 -0.328072 0.277996 -0.663747 0.694376 0.52826 -0.320157 0.78641 
0.919935 0.131632 0.369314 0.923331 0.253105 0.288786 0.863905 0.4493 0.227591 
0.840784 0.504877 0.195404 -0.550113 -0.506714 0.66379 -0.652806 -0.465085 0.597947 
0.852395 0.359436 0.379774 0.871877 0.486315 0.0576873 0.888501 0.455181 0.058101 
-0.628702 -0.636107 0.447327 0.698605 0.594614 -0.397976 -0.85971 0.288985 0.421172 
0.339816 0.734665 -0.58719 -0.651644 0.720931 0.235834 -0.567991 0.797496 0.203433 
-0.111883 0.916889 -0.383142 -0.108303 -0.662443 0.741242 0.0514847 -0.541033 0.839424 
0.70741 -0.008507 0.706752 -0.423609 -0.600069 0.678581 -0.638508 -0.48055 0.601147 
-0.395548 -0.229803 0.889231 0.742769 0.534112 0.403756 -0.360157 -0.270839 0.892711 
0.576333 0.518111 0.631982 0.603653 0.511125 0.611845 0.679105 0.250271 0.690058 
0.882824 0.463745 -0.0745826 0.922234 0.386402 0.0133168 -0.63293 0.707024 0.315462 
-0.846234 0.358759 0.393928 0.160311 0.835295 -0.525911 -0.121983 0.821802 -0.556562 
0.109412 0.910307 -0.399211 -0.0618339 -0.41985 0.905485 0.388833 -0.320478 0.863773 
-0.474415 -0.400547 0.783896 -0.00644137 -0.145178 0.989385 -0.442127 -0.419859 0.792617 
-0.297671 -0.180981 0.937357 0.613144 0.251377 0.748908 0.0685374 0.201715 0.977043 
0.333874 0.324498 0.885003 0.0156562 -0.303366 0.952745 0.389045 -0.0549209 0.91958 
0.193295 -0.00498996 0.981128 0.629114 0.0609488 0.77492 -0.310672 -0.489155 0.814991 
0.618981 -0.0255894 0.784989 0.853766 0.231482 0.466369 0.904352 0.229071 0.360104 
0.808233 0.558669 -0.186142 0.427865 0.792463 -0.434664 -0.671124 0.741098 0.0191206 
-0.281499 0.859007 -0.427628 0.454509 -0.0104107 0.890681 -0.121028 -0.0844099 0.989054 
0.241269 0.0783446 0.967291 0.281578 -0.322416 0.903749 0.634889 -0.146775 0.758534 
-0.922424 0.049675 0.382971 -0.92892 0.290922 0.229069 -0.839276 0.540421 -0.0596736 
-0.550214 0.782064 -0.292644 -0.376629 -0.542745 0.750718 0.354765 -0.468378 0.809175 
0.897799 0.0832061 0.432474 0.901272 0.418228 0.113109 -0.50786 -0.65699 0.557173 
0.329082 0.81313 -0.48013 -0.225623 -0.839981 -0.493483 -0.156129 -0.741323 -0.652736 
-0.264917 -0.556521 -0.787466 0.0105384 -0.482205 -0.875995 0.264063 -0.381524 -0.885838 
-0.163905 -0.254195 -0.953163 -0.408569 -0.65672 -0.63387 -0.659913 -0.297853 -0.689782 
-0.127642 -0.296404 -0.946495 0.112298 -0.165569 -0.979784 -0.373561 0.149882 -0.915417 
-0.286813 -0.261672 -0.921556 -0.575897 0.0358859 -0.816734 -0.0574659 0.130029 -0.989843 
-0.456985 0.301272 -0.836899 -0.322516 -0.612508 0.721677 0 -0.159641 -0.987175 
0 -1 0 -0.963361 -0.268207 4.13429e-08 0.963361 -0.268207 4.13429e-08 
0 0.5547 -0.83205 -0.992124 0.120755 0.0332993 -0.85197 0.467441 -0.235892 
-0.533545 0.729625 -0.427758 0.0980171 0.846043 -0.524027 -0.0130493 0.838252 -0.545126 
0.147343 -0.854502 -0.498113 -0.212782 -0.847839 -0.485688 -0.0146574 -0.628986 -0.777278 
-0.242031 -0.930957 -0.273386 0.446628 -0.535611 -0.71669 -0.229542 -0.583661 -0.778878 
0.580927 -0.37521 -0.722316 -0.605148 -0.501086 -0.618635 -0.132632 -0.245157 -0.960368 
0.36416 -0.0687964 -0.928792 0.725978 -0.32831 -0.604292 -0.427314 0.130848 -0.894585 
0.399149 0.0832488 -0.913099 0.512001 -0.0530724 -0.857344 -0.144133 0.486849 -0.861512 
0.152646 0.232896 -0.960447 0.348974 -0.435204 0.829948 -0.139471 -0.549185 0.823981 
0.774785 0.0345591 0.63128 0 -0.159641 0.987175 0.81662 0.151977 0.556807 
0.652112 0.0158649 0.757956 -0.150637 0.0619655 -0.986645 -0.297796 -0.24575 -0.922456 
0.107418 -0.112312 -0.98785 0.31953 -0.123012 -0.939558 -0.262029 0.332098 -0.906119 
0.184408 0.344529 -0.920485 0.596184 0.311382 -0.740004 -0.322911 0.408386 -0.853785 
0.309706 0.693989 -0.64997 0.616575 0.446889 -0.648171 0.892403 0.433158 -0.126457 
0.351819 0.776679 -0.522488 0.54056 0.684621 -0.488967 -0.920782 0.305697 -0.242303 
-0.711961 0.503204 -0.489793 0.113673 0.78205 -0.612761 -0.179771 -0.977462 -0.110684 
-0.40943 -0.826933 -0.385421 0.0773475 -0.996813 -0.0195141 0.368769 -0.898096 -0.239652 
-0.72144 -0.649818 -0.239294 -0.531487 -0.688249 -0.493795 -0.790199 -0.510953 -0.338396 
-0.705083 -0.110515 -0.70046 -0.873701 -0.100075 -0.476058 -0.235766 0.291295 -0.927125 
0.637521 -0.018162 -0.770219 0.767386 0.0372902 -0.6401 -0.624306 0.0810365 -0.776966 
-0.293504 0.216584 -0.9311 -0.65846 0.428246 -0.618899 -0.791688 -0.14535 -0.593383 
-0.972899 0.225345 -0.0518384 -0.199713 0.43382 -0.878587 -0.323879 0.405514 -0.854787 
0.153036 0.435691 -0.886991 0.340618 0.377351 -0.861153 0.491078 0.4051 -0.771192 
-0.666571 0.672342 -0.321931 -0.0695618 -0.398068 0.914715 0.0201504 -0.521954 -0.852736 
0.330941 -0.621857 -0.709768 0.24702 -0.245255 0.93746 0.453043 -0.331368 -0.827615 
0.73099 -0.266891 -0.628031 0.0663603 -0.474367 0.877823 0.407573 -0.248046 0.878839 
0.368428 -0.173068 0.913405 -0.487356 -0.033787 -0.87255 0.734722 0.125651 -0.66663 
0.739849 -0.036071 -0.671805 -0.482073 0.335076 -0.809525 0.895236 0.0865739 0.437101 
0.589137 -0.222478 0.776802 0.0420891 0.713764 -0.699121 -0.51763 -0.735449 0.437235 
-0.928483 -0.206408 0.30873 -0.955283 -0.262723 0.135688 0.485973 0.739443 -0.46589 
-0.467173 0.47276 -0.747159 -0.533829 -0.81575 -0.222662 0.420059 -0.875687 -0.238165 
0.680451 -0.642271 -0.35281 -0.831856 -0.548252 -0.0862283 -0.930978 -0.320505 -0.174804 
0.741605 -0.606011 -0.287703 0.850374 -0.346422 -0.39605 -0.981047 -0.145308 -0.128191 
-0.949993 0.0302767 -0.310801 -0.618268 0.105899 -0.7788 -0.997978 -0.0230366 -0.0592323 
-0.31073 0.589323 -0.745751 -0.586709 0.709905 -0.389624 0.104516 0.687038 -0.719065 
-0.567633 0.748992 -0.341765 -0.253626 0.623641 -0.739423 -0.369965 0.785497 -0.496105 
0.382556 0.500413 -0.776684 -0.128964 0.775678 -0.617812 0.558517 -0.419873 -0.715378 
0.400149 -0.705023 -0.585511 0.662508 -0.462805 -0.588978 0.783153 -0.334142 -0.524424 
-0.545666 -0.210058 -0.811248 0.866756 -0.152292 -0.474911 0.895206 0.231669 -0.380704 
0.344776 -0.490309 0.800454 0.705744 0.545988 -0.451467 0.614789 -0.317579 0.721927 
-0.23158 0.697224 -0.678417 -0.1574 -0.728768 0.666425 0.0506588 0.852041 -0.521017 
0.2832 0.809558 -0.514212 0.984058 0.0315664 0.175025 -0.805492 -0.4292 0.40862 
-0.996372 -0.0405085 -0.0748387 -0.967742 -0.223002 -0.117245 -0.894869 0.0434932 -0.444205 
-0.302121 -0.947165 -0.107709 -0.413542 -0.906862 0.0811506 -0.129365 -0.966089 -0.223466 
0.0196134 -0.973034 0.229826 -0.667887 -0.735185 0.115886 0.519437 -0.849547 -0.0919492 
0.701714 -0.712379 -0.0106159 0.811906 -0.490032 -0.317296 0.931595 -0.0125105 -0.363282 
-0.881581 0.468458 -0.0579746 0.937498 0.167983 -0.30476 -0.449014 0.727639 -0.518583 
0.329646 0.65721 -0.677796 0.571344 0.582027 -0.578629 0.311254 0.751364 -0.58187 
-0.022674 -0.721732 -0.691801 -0.296407 -0.691073 -0.659212 -0.395857 -0.503887 -0.76772 
-0.65172 -0.214932 -0.727369 -0.629626 0.10159 -0.770228 -0.493158 0.270882 -0.826691 
-0.372168 0.545469 -0.750969 0.441784 0.793855 -0.417877 0.249585 -0.681705 0.68774 
0.670558 -0.3898 0.631196 -0.844843 -0.465935 0.262952 -0.924089 -0.332883 -0.187746 