# vtk DataFile Version 4.2
vtk output
ASCII
DATASET POLYDATA
POINTS 2175 float
336.845 173.065 118.116 340.185 172.784 118.122 336.998 174.559 117.919 
342.092 167.155 119.557 342.346 167.939 119.336 338.435 169.406 118.95 
331.58 178.007 118.655 331.292 180.55 118.438 334.428 181.241 118.304 
343.581 168.093 119.674 331.883 175.399 119.219 326.998 179.985 119.782 
322.929 183.751 120.077 321.85 190.451 119.659 344.31 163.619 121.399 
343.562 164.357 121.009 344.99 164.037 121.255 332.624 171.761 120.726 
329.586 174.923 120.794 326.608 178.548 120.548 341.797 179.479 120.103 
320.646 183.605 121.215 320.22 186.566 120.442 337.339 185.422 119.891 
329.614 190.59 119.716 325.832 191.71 119.749 341.825 163.336 121.983 
347.205 164.839 121.71 346.677 166.877 121.385 325.295 178.389 121.456 
321.64 182.086 121.583 317.953 190.654 120.967 317.52 193.737 121.278 
315.15 194.726 122.037 346.132 161.119 122.919 339.781 163.729 122.756 
324.727 177.972 122.338 340.856 185.067 121.74 316.724 186.685 122.676 
313.934 190.889 123.029 313.793 197.006 123.047 320.47 197.345 122.032 
343.756 160.557 123.973 347.991 161.15 123.454 342.629 161.063 124.058 
330.262 172.141 122.951 322.34 179.497 123.561 313.042 192.92 123.225 
335.7 192.744 122.506 345.735 159.297 124.839 349.691 164.856 123.891 
310.599 194.174 125.156 329.435 198.065 123.686 349.309 158.344 126.29 
350.645 159.734 126.305 318.62 182.673 125.156 315.598 185.624 125.555 
342.78 188.736 125.95 309.972 192.836 126.414 309.023 196.11 126.558 
309.22 198.438 126.437 313.239 200.425 124.818 348.605 157.348 127.372 
346.423 158.141 126.424 327.033 174.155 125.436 349.287 157.108 128.033 
350.354 157.838 127.689 344.368 158.66 127.391 324.09 176.75 127.207 
318.538 182.264 126.849 309.788 192.188 127.461 308.066 195.785 128.115 
347.818 156.931 128.794 312.366 188.374 128.116 309.906 191.634 128.343 
308.271 194.786 128.487 349.386 156.582 129.297 350.738 156.685 129.708 
339.491 161.737 129.368 353.145 169.234 128.777 325.208 175.742 128.98 
319.624 181.204 128.863 308.016 203.934 130.053 309.378 204.159 129.201 
350.447 156.351 130.461 352.055 157.564 130.285 352.92 158.783 130.456 
313.809 186.755 129.545 339.639 196.131 130.284 332.36 202.511 130.2 
311.736 205.861 129.561 350.647 156.271 130.806 350.613 156.217 130.917 
350.506 156.233 130.837 350.702 156.268 131 350.224 156.257 130.977 
350.921 156.455 130.826 351.48 156.764 130.97 352.589 157.9 130.895 
306.056 198.95 131.642 305.848 200.751 132.072 306.395 203.637 131.913 
350.561 156.23 131.031 350.725 156.332 131.425 352.096 157.034 131.744 
352.399 157.373 131.604 314.041 186.964 131.832 349.19 156.441 132.783 
350.24 184.086 132.925 323.107 209.472 133.896 351.785 156.792 132.671 
350.379 156.54 133.907 353.846 158.982 134.386 354.9 160.965 134.581 
327.396 175.994 135.096 336.091 201.497 134.443 308.278 209.39 135.28 
351.294 156.761 134.135 350.071 156.846 134.804 304.553 203.38 136.02 
304.37 204.667 136.856 311.309 211.637 136.422 352.427 157.686 135.371 
352.736 157.905 135.35 337.418 165.224 137.311 356.521 175.665 137.258 
355.754 178.243 137.065 305.573 208.145 137.21 352.011 157.562 135.569 
340.026 163.104 137.535 350.514 158.411 138.024 352.328 158.603 137.597 
304.129 203.451 139.226 306.146 210.143 138.75 352.161 159.003 138.604 
357.31 168.121 139.989 357.339 174.871 140.238 304.908 201.427 139.611 
313.228 214.76 140.145 352.942 160.048 139.685 354.067 160.959 139.761 
356.986 166.901 140.869 305.92 200.438 140.997 350.201 160.223 140.853 
353.49 185.114 141.685 305.773 212.408 142.562 307.939 214.681 142.621 
354.618 162.762 141.809 345.871 162.545 142.61 344.008 163.4 142.543 
341.388 165.042 142.664 356.629 166.349 142.258 357.365 168.902 142.428 
306.525 213.778 143.032 304.797 212.325 144.841 305.468 212.993 143.926 
355.929 165.562 143.467 304.248 211.303 145.601 325.043 214.471 145.235 
352.087 164.46 145.9 354.787 164.636 144.438 306.972 216.422 146.785 
309.752 217.832 147.152 345.514 165.853 146.305 354.383 165.981 146.343 
355.68 183.096 147.103 305.441 214.984 146.84 306.027 215.813 147.095 
349.669 165.521 147.054 332.716 177.022 147.59 355.273 168.303 147.794 
348.862 186.924 152.362 348.807 186.929 152.425 348.859 186.91 152.367 
348.901 186.894 152.438 345.096 197.42 148.589 356.869 173.079 149.154 
356.042 181.51 150.352 348.683 187.053 152.564 348.412 187.034 152.775 
348.641 186.885 152.592 348.803 186.775 152.55 348.867 187.023 152.496 
349.045 186.943 152.611 348.58 187.235 152.719 348.357 187.307 152.88 
348.772 187.18 152.621 348.496 187.418 152.883 348.554 187.574 153.045 
348.968 187.379 152.886 349.133 187.261 152.884 304.365 214.661 149.9 
348.366 186.242 153.06 349.481 185.789 153.331 348.486 186.617 152.831 
348.007 186.423 153.171 349.233 186.426 152.896 349.589 185.986 153.254 
348.054 187.254 153.074 347.711 187.626 153.459 353.875 187.953 151.301 
348.432 187.861 153.418 353.943 170.534 151.293 356.431 178.792 151.646 
355.65 182 151.427 349.418 185.011 153.909 349.718 185.091 153.916 
349.879 185.378 153.781 347.126 186.517 153.75 350.018 186.072 153.608 
349.693 186.976 153.338 347.022 187.887 154.123 347.863 188.519 154.271 
348.636 188.404 154.109 343.492 199.949 151.667 341.349 201.266 152.678 
355.496 171.59 151.382 336.035 176.898 152.032 355.521 181.105 152.593 
350.265 185.168 154.144 346.418 187.173 154.351 353.91 187.642 152.682 
346.417 187.599 154.455 346.816 188.3 154.574 348.094 188.776 154.614 
340.086 199.015 156.26 340.027 199.372 156.157 340.164 199.286 156.209 
342.963 200.566 152.841 340.39 201.572 154.105 340.879 201.18 154.481 
342.033 201.053 153.606 340.115 201.991 154.016 339.137 203.079 153.914 
306.036 218.007 152.853 354.548 171.558 152.15 356.423 174.03 152.077 
350.554 175.399 154.718 355.491 180.665 152.934 354.415 184.232 153.322 
350.306 187.981 154.965 348.395 188.977 155.023 346.719 189.458 155.837 
340.125 197.562 156.864 340.083 197.651 156.805 340.08 197.47 156.92 
348.822 196.661 153.036 340.168 199.903 155.894 339.856 199.968 156.061 
340.259 199.786 156.098 340.279 200.55 155.419 340.396 200.447 155.553 
340.32 201.083 155.029 340.029 201.087 155.587 340.465 200.962 155.37 
340.655 201.466 154.904 341.161 201.516 154.926 341.991 201.329 154.829 
340.292 201.383 155.068 340.327 201.893 154.64 340.795 201.811 155.021 
339.707 202.565 154.764 303.947 213.075 153.911 310.08 220.604 155.075 
355.943 172.931 152.412 355.804 172.975 152.723 352.795 174.515 154.479 
356.148 175.954 153.191 341.829 176.412 154.506 355.84 177.126 153.613 
355.193 179.764 153.748 346.709 183.411 155.609 354.148 183.179 154.037 
350.574 184.295 154.853 344.694 185.546 155.708 345.11 184.851 155.646 
351.426 185.224 155.005 351.462 186.244 155.051 353.694 187.36 153.989 
349.378 188.704 155.103 347.678 189.346 155.488 352.863 192.103 155.257 
352.404 193.284 154.843 340.037 197.214 157.156 340.243 199.729 156.812 
339.763 201.248 155.971 340.249 200.988 156.152 340.059 201.341 155.937 
338.872 202.786 155.425 339.62 202.372 155.554 336.75 205.373 154.815 
304.223 212.363 154.697 303.911 213.56 154.182 304.029 215.273 154.454 
355.447 172.553 152.692 355.229 173.404 153.54 355.923 173.755 153.173 
355.789 173.834 153.471 354.692 174.378 154.449 354.134 175.223 154.995 
355.304 176.644 154.342 354.202 179.485 154.745 348.214 182.991 155.516 
333.249 182.281 155.488 345.409 183.777 155.91 345.384 184.278 155.717 
351.865 184.478 155.244 353.609 185.926 154.333 352.143 185.993 155.319 
353.379 188.596 154.839 349.29 189.293 156.197 353.089 190.835 155.534 
340.075 196.75 157.549 339.244 201.308 156.28 342.473 201.861 156.52 
343.256 201.608 156.576 339.098 202.163 155.942 339.786 201.732 156.119 
340.222 201.566 156.814 341.228 202.054 156.139 340.481 202.069 156.43 
355.578 173.758 153.621 355.894 174.419 153.636 354.565 175.315 155.255 
354.534 175.321 155.253 354.582 175.319 155.195 355.471 174.705 154.218 
354.605 175.208 154.976 354.719 175.655 154.963 355.521 175.024 154.221 
352.732 176.716 155.445 352.829 176.901 155.526 352.73 176.952 155.538 
353.799 175.846 155.123 352.979 176.871 155.48 354.288 175.735 155.143 
353.306 176.525 155.297 354.224 176.502 155.06 352.365 177.847 155.644 
345.006 178.923 156.407 352.003 179.267 155.763 350.606 182.941 155.487 
353.087 183.725 154.951 352.769 183.784 155.173 342.713 184.927 156.855 
352.319 184.165 155.285 353.032 185.406 154.985 341.84 185.774 157.321 
351.915 187.54 155.899 352.422 187.141 155.658 351.775 188.293 156.497 
353.175 189.699 155.571 340.194 195.616 158.306 339.923 196.336 157.855 
339.63 196.542 157.898 352.435 193.686 156.57 352.534 193.419 156.663 
350.018 197.075 156.995 345.965 200.136 156.188 337.659 202.681 157.169 
341.497 202.293 157.328 340.285 202.731 158.808 340.143 202.756 158.934 
340.642 202.181 157.623 340.34 202.62 158.676 306.353 210.205 156.754 
306.684 219.254 157.716 311.857 221.423 158.02 355.559 174.408 154.033 
355.759 174.484 153.872 354.548 175.374 155.246 354.478 175.505 155.21 
354.585 175.455 155.148 352.841 177.077 155.544 353.224 177.698 155.479 
348.531 179.35 156.252 343.484 180.599 156.802 336.456 181.829 156.605 
340.746 182.736 157.274 351.877 182.288 155.542 352.272 183.193 155.437 
352.915 186.007 155.136 351.993 188.663 157.211 352.027 188.67 157.252 
352.009 188.665 157.274 352.017 188.701 157.278 351.939 188.654 157.019 
351.655 188.783 157.094 352.038 188.726 157.18 352.191 188.848 156.866 
351.99 188.897 157.26 352.925 188.489 155.815 340.245 194.329 158.864 
340.359 194.228 158.905 340.482 194.163 158.973 343.231 191.148 158.649 
340.275 194.684 158.734 352.392 192.602 157.693 340.642 195.098 158.833 
352.282 193.215 157.782 340.571 196.729 158.69 351.67 194.771 157.908 
338.185 199.251 158.335 339.769 201.235 158.622 340.121 202.211 158.468 
[...]
POINT_DATA 2175
SCALARS scalars float
LOOKUP_TABLE default
1 1 1 1 1 1 1 1 1 
1 1 1 1 1 1 1 1 1 
1 1 1 1 1 1 1 1 1 
1 1 1 1 1 1 1 1 1 
1 1 1 1 1 1 1 1 1 
1 1 1 1 1 1 1 1 1 
1 1 1 1 1 1 1 1 1 
1 1 1 1 1 1 1 1 1 
1 1 1 1 1 1 1 1 1 
1 1 1 1 1 1 1 1 1 
1 1 1 1 1 1 1 1 1 
1 1 1 1 1 1 1 1 1 
1 1 1 1 1 1 1 1 1 
1 1 1 1 1 1 1 1 1 
1 1 1 1 1 1 1 1 1 
1 1 1 1 1 1 1 1 1 
1 1 1 1 1 1 1 1 1 
1 1 1 1 1 1 1 1 1 
1 1 1 1 1 1 1 1 1 
1 1 1 1 1 1 1 1 1 
1 1 1 1 1 1 1 1 1 
1 1 1 1 1 1 1 1 1 
1 1 1 1 1 1 1 1 1 
1 1 1 1 1 1 1 1 1 
1 1 1 1 1 1 1 1 1 
1 1 1 1 1 1 1 1 1 
1 1 1 1 1 1 1 1 1 
1 1 1 1 1 1 1 1 1 
1 1 1 1 1 1 1 1 1 
1 1 1 1 1 1 1 1 1 
1 1 1 1 1 1 1 1 1 
1 1 1 1 1 1 1 1 1 
1 1 1 1 1 1 1 1 1 
1 1 1 1 1 1 1 1 1 
1 1 1 1 1 1 1 1 1 
1 1 1 1 1 1 1 1 1 
1 1 1 1 1 1 1 1 1 
1 1 1 1 1 1 1 1 1 
1 1 1 1 1 1 1 1 1 
1 1 1 1 1 1 1 1 1 
1 1 1 1 1 1 1 1 1 
1 1 1 1 1 1 1 1 1 
1 1 1 1 1 1 1 1 1 
1 1 1 1 1 1 1 1 1 
1 1 1 1 1 1 1 1 1 
1 1 1 1 1 1 1 1 1 
1 1 1 1 1 1 1 1 1 
1 1 1 1 1 1 1 1 1 
1 1 1 1 1 1 1 1 1 
1 1 1 1 1 1 1 1 1 
1 1 1 1 1 1 1 1 1 
1 1 1 1 1 1 1 1 1 
1 1 1 1 1 1 1 1 1 
1 1 1 1 1 1 1 1 1 
1 1 1 1 1 1 1 1 1 
1 1 1 1 1 1 1 1 1 
1 1 1 1 1 1 1 1 1 
1 1 1 1 1 1 1 1 1 
1 1 1 1 1 1 1 1 1 
1 1 1 1 1 1 1 1 1 
1 1 1 1 1 1 1 1 1 
1 1 1 1 1 1 1 1 1 
1 1 1 1 1 1 1 1 1 
1 1 1 1 1 1 1 1 1 
1 1 1 1 1 1 1 1 1 
1 1 1 1 1 1 1 1 1 
1 1 1 1 1 1 1 1 1 
1 1 1 1 1 1 1 1 1 
1 1 1 1 1 1 1 1 1 
1 1 1 1 1 1 1 1 1 
1 1 1 1 1 1 1 1 1 
1 1 1 1 1 1 1 1 1 
1 1 1 1 1 1 1 1 1 
1 1 1 1 1 1 1 1 1 
1 1 1 1 1 1 1 1 1 
1 1 1 1 1 1 1 1 1 
1 1 1 1 1 1 1 1 1 
1 1 1 1 1 1 1 1 1 
1 1 1 1 1 1 1 1 1 
1 1 1 1 1 1 1 1 1 
1 1 1 1 1 1 1 1 1 
1 1 1 1 1 1 1 1 1 
1 1 1 1 1 1 1 1 1 
1 1 1 1 1 1 1 1 1 
1 1 1 1 1 1 1 1 1 
1 1 1 1 1 1 1 1 1 
1 1 1 1 1 1 1 1 1 
1 1 1 1 1 1 1 1 1 
1 1 1 1 1 1 1 1 1 
1 1 1 1 1 1 1 1 1 
1 1 1 1 1 1 1 1 1 
1 1 1 1 1 1 1 1 1 
1 1 1 1 1 1 1 1 1 
1 1 1 1 1 1 1 1 1 
1 1 1 1 1 1 1 1 1 
1 1 1 1 1 1 1 1 1 
1 1 1 1 1 1 1 1 1 
1 1 1 1 1 1 1 1 1 
1 1 1 1 1 1 1 1 1 
1 1 1 1 1 1 1 1 1 
1 1 1 1 1 1 1 1 1 
1 1 1 1 1 1 1 1 1 
1 1 1 1 1 1 1 1 1 
1 1 1 1 1 1 1 1 1 
1 1 1 1 1 1 1 1 1 
1 1 1 1 1 1 1 1 1 
1 1 1 1 1 1 1 1 1 
1 1 1 1 1 1 1 1 1 
1 1 1 1 1 1 1 1 1 
1 1 1 1 1 1 1 1 1 
1 1 1 1 1 1 1 1 1 
1 1 1 1 1 1 1 1 1 
1 1 1 1 1 1 1 1 1 
1 1 1 1 1 1 1 1 1 
1 1 1 1 1 1 1 1 1 
1 1 1 1 1 1 1 1 1 
1 1 1 1 1 1 1 1 1 
1 1 1 1 1 1 1 1 1 
1 1 1 1 1 1 1 1 1 
1 1 1 1 1 1 1 1 1 
1 1 1 1 1 1 1 1 1 
1 1 1 1 1 1 1 1 1 
1 1 1 1 1 1 1 1 1 
1 1 1 1 1 1 1 1 1 
1 1 1 1 1 1 1 1 1 
1 1 1 1 1 1 1 1 1 
1 1 1 1 1 1 1 1 1 
1 1 1 1 1 1 1 1 1 
1 1 1 1 1 1 1 1 1 
1 1 1 1 1 1 1 1 1 
1 1 1 1 1 1 1 1 1 
1 1 1 1 1 1 1 1 1 
1 1 1 1 1 1 1 1 1 
1 1 1 1 1 1 1 1 1 
1 1 1 1 1 1 1 1 1 
1 1 1 1 1 1 1 1 1 
1 1 1 1 1 1 1 1 1 
1 1 1 1 1 1 1 1 1 
1 1 1 1 1 1 1 1 1 
1 1 1 1 1 1 1 1 1 
1 1 1 1 1 1 1 1 1 
1 1 1 1 1 1 1 1 1 
1 1 1 1 1 1 1 1 1 
1 1 1 1 1 1 1 1 1 
1 1 1 1 1 1 1 1 1 
1 1 1 1 1 1 1 1 1 
1 1 1 1 1 1 1 1 1 
1 1 1 1 1 1 1 1 1 
1 1 1 1 1 1 1 1 1 
1 1 1 1 1 1 1 1 1 
1 1 1 1 1 1 1 1 1 
1 1 1 1 1 1 1 1 1 
1 1 1 1 1 1 1 1 1 
1 1 1 1 1 1 1 1 1 
1 1 1 1 1 1 1 1 1 
1 1 1 1 1 1 1 1 1 
1 1 1 1 1 1 1 1 1 
1 1 1 1 1 1 1 1 1 
1 1 1 1 1 1 1 1 1 
1 1 1 1 1 1 1 1 1 
1 1 1 1 1 1 1 1 1 
1 1 1 1 1 1 1 1 1 
1 1 1 1 1 1 1 1 1 
1 1 1 1 1 1 1 1 1 
1 1 1 1 1 1 1 1 1 
1 1 1 1 1 1 1 1 1 
1 1 1 1 1 1 1 1 1 
1 1 1 1 1 1 1 1 1 
1 1 1 1 1 1 1 1 1 
1 1 1 1 1 1 1 1 1 
1 1 1 1 1 1 1 1 1 
1 1 1 1 1 1 1 1 1 
1 1 1 1 1 1 1 1 1 
1 1 1 1 1 1 1 1 1 
1 1 1 1 1 1 1 1 1 
1 1 1 1 1 1 1 1 1 
1 1 1 1 1 1 1 1 1 
1 1 1 1 1 1 1 1 1 
1 1 1 1 1 1 1 1 1 
1 1 1 1 1 1 1 1 1 
1 1 1 1 1 1 1 1 1 
1 1 1 1 1 1 1 1 1 
1 1 1 1 1 1 1 1 1 
1 1 1 1 1 1 1 1 1 
1 1 1 1 1 1 1 1 1 
1 1 1 1 1 1 1 1 1 
1 1 1 1 1 1 1 1 1 
1 1 1 1 1 1 1 1 1 
1 1 1 1 1 1 1 1 1 
1 1 1 1 1 1 1 1 1 
1 1 1 1 1 1 1 1 1 
1 1 1 1 1 1 1 1 1 
1 1 1 1 1 1 1 1 1 
1 1 1 1 1 1 1 1 1 
1 1 1 1 1 1 1 1 1 
1 1 1 1 1 1 1 1 1 
1 1 1 1 1 1 1 1 1 
1 1 1 1 1 1 1 1 1 
1 1 1 1 1 1 1 1 1 
1 1 1 1 1 1 1 1 1 
1 1 1 1 1 1 1 1 1 
1 1 1 1 1 1 1 1 1 
1 1 1 1 1 1 1 1 1 
1 1 1 1 1 1 1 1 1 
1 1 1 1 1 1 1 1 1 
1 1 1 1 1 1 1 1 1 
1 1 1 1 1 1 1 1 1 
1 1 1 1 1 1 1 1 1 
1 1 1 1 1 1 1 1 1 
1 1 1 1 1 1 1 1 1 
1 1 1 1 1 1 1 1 1 
1 1 1 1 1 1 1 1 1 
1 1 1 1 1 1 1 1 1 
1 1 1 1 1 1 1 1 1 
1 1 1 1 1 1 1 1 1 
1 1 1 1 1 1 1 1 1 
1 1 1 1 1 1 1 1 1 
1 1 1 1 1 1 1 1 1 
1 1 1 1 1 1 1 1 1 
1 1 1 1 1 1 1 1 1 
1 1 1 1 1 1 1 1 1 
1 1 1 1 1 1 1 1 1 
1 1 1 1 1 1 1 1 1 
1 1 1 1 1 1 1 1 1 
1 1 1 1 1 1 1 1 1 
1 1 1 1 1 1 1 1 1 
1 1 1 1 1 1 1 1 1 
1 1 1 1 1 1 1 1 1 
1 1 1 1 1 1 1 1 1 
1 1 1 1 1 1 1 1 1 
1 1 1 1 1 1 1 1 1 
1 1 1 1 1 1 1 1 1 
1 1 1 1 1 1 1 1 1 
1 1 1 1 1 1 1 1 1 
1 1 1 1 1 1 1 1 1 
1 1 1 1 1 1 1 1 1 
1 1 1 1 1 1 1 1 1 
1 1 1 1 1 1 1 1 1 
1 1 1 1 1 1 1 1 1 
1 1 1 1 1 1 1 1 1 
1 1 1 1 1 1 1 1 1 
1 1 1 1 1 1 
NORMALS Normals float
-0.272026 -0.312387 -0.910174 0.240128 0.120219 -0.963268 0.0141853 0.0304451 -0.999436 
0.0203676 -0.387768 -0.921532 0.262427 -0.214893 -0.940719 -0.200783 -0.446805 -0.87181 
-0.267235 0.104178 -0.957984 -0.33292 -0.108161 -0.936731 0.103956 0.147882 -0.983526 
0.485788 0.0718435 -0.871119 -0.561895 -0.260644 -0.785073 -0.40488 -0.33192 -0.851999 
-0.314409 -0.333084 -0.888933 -0.166345 0.0722794 -0.983415 -0.074782 -0.416523 -0.906044 
-0.0112176 -0.410568 -0.911761 0.119256 -0.227756 -0.966388 -0.486625 -0.563511 -0.667572 
-0.466056 -0.432341 -0.771928 -0.493794 -0.384817 -0.779797 0.553493 0.220673 -0.803087 
-0.601349 -0.400985 -0.691079 -0.487129 -0.261549 -0.833245 0.363256 0.371085 -0.8546 
0.108607 0.292486 -0.950082 0.0217345 0.286259 -0.957906 -0.250429 -0.558122 -0.791066 
0.563385 -0.0840771 -0.821905 0.3374 -0.0350995 -0.940707 -0.535131 -0.439458 -0.721465 
-0.480267 -0.569103 -0.667432 -0.337709 -0.0134032 -0.941155 -0.211683 0.134762 -0.968003 
-0.390724 0.0600403 -0.918548 0.0717681 -0.624654 -0.777597 -0.528848 -0.651154 -0.544351 
-0.565831 -0.643595 -0.515384 0.556286 0.408445 -0.723684 -0.659622 -0.476457 -0.581281 
-0.515803 -0.14833 -0.843769 -0.387067 0.197858 -0.900573 -0.0329788 0.404641 -0.913881 
-0.350229 -0.790522 -0.502409 0.372425 -0.463565 -0.803994 -0.348658 -0.730226 -0.587544 
-0.605711 -0.697394 -0.383087 -0.616304 -0.545135 -0.568329 -0.570894 -0.123221 -0.811724 
0.385622 0.479388 -0.788342 -0.244965 -0.830507 -0.500251 0.732408 -0.00250196 -0.680862 
-0.787875 -0.0230578 -0.615404 0.258361 0.639387 -0.724177 0.288286 -0.679443 -0.674721 
0.69585 -0.333716 -0.635946 -0.686669 -0.612465 -0.391627 -0.673813 -0.722388 -0.155343 
0.76019 0.416352 -0.49876 -0.754484 -0.4014 -0.519261 -0.788604 -0.149727 -0.596393 
-0.685242 0.183502 -0.70482 -0.189333 0.571049 -0.798784 0.0904572 -0.856787 -0.507675 
-0.191846 -0.780908 -0.594455 -0.651561 -0.742993 -0.153068 0.162663 -0.88931 -0.427397 
0.481697 -0.699962 -0.527278 -0.511868 -0.810109 -0.285858 -0.743631 -0.658598 -0.115163 
-0.679972 -0.703569 -0.206469 -0.872193 -0.345345 -0.346433 -0.868976 -0.143694 -0.473532 
-0.221169 -0.956444 -0.190526 -0.779948 -0.596802 -0.188437 -0.756082 -0.639132 -0.14089 
-0.876725 -0.383022 -0.290941 0.110844 -0.935505 -0.335475 0.465855 -0.751578 -0.467022 
-0.587267 -0.787016 -0.189008 0.82776 0.114308 -0.549315 -0.697728 -0.711309 0.0849377 
-0.673334 -0.739297 -0.00777057 -0.660339 0.408793 -0.629953 -0.455713 0.5291 -0.715807 
-0.0234617 -0.954371 -0.297702 0.653474 -0.613268 -0.443705 0.828441 -0.393899 -0.398157 
-0.62885 -0.775905 0.0501945 0.721979 0.602063 -0.340979 0.496368 0.721762 -0.482367 
-0.236844 0.710564 -0.662574 0.416669 -0.852057 -0.316839 0.242695 -0.966535 -0.0831236 
-0.0257687 -0.980811 -0.193251 0.502582 -0.864372 0.0165204 -0.267376 -0.961789 -0.0589264 
0.548506 -0.806492 -0.220706 0.576143 -0.791254 -0.204881 0.785905 -0.566582 -0.247666 
-0.924036 -0.103063 -0.368151 -0.914311 -0.0180167 -0.404611 -0.826992 0.263736 -0.496515 
0.0427477 -0.988563 0.144621 0.275386 -0.956568 0.0956063 0.645073 -0.758891 -0.0892451 
0.787123 -0.605874 -0.115559 -0.696679 -0.688452 0.201673 -0.419583 -0.90163 0.104944 
0.711843 0.594941 -0.373262 0.177084 0.823985 -0.538229 0.521958 -0.851435 0.05118 
0.0943988 -0.979142 0.179918 0.758632 -0.651498 -0.00530855 0.924528 -0.377621 -0.051473 
-0.678076 -0.656204 0.331072 0.705084 0.6855 -0.181511 -0.392114 0.684994 -0.614027 
0.383696 -0.896534 0.22137 -0.0711955 -0.916099 0.394581 -0.951045 -0.00379538 -0.309029 
-0.942095 0.218223 -0.254628 -0.242443 0.751119 -0.614037 0.55821 -0.813197 0.164656 
0.712061 -0.637841 0.293474 -0.635258 -0.722962 0.271612 0.952326 0.195636 -0.2341 
0.83199 0.324575 -0.449937 -0.772823 0.437465 -0.459749 0.321558 -0.845583 0.426134 
-0.513182 -0.804102 0.300108 -0.138129 -0.879839 0.454756 0.508596 -0.770424 0.384417 
-0.984708 -0.164005 0.0587547 -0.67839 0.603059 -0.419651 0.44291 -0.764099 0.469024 
0.988692 -0.123878 -0.0845182 0.984344 0.115724 -0.132947 -0.911052 -0.407538 0.0624245 
-0.135367 0.843577 -0.519667 0.500069 -0.750995 0.431206 0.708151 -0.661365 0.247221 
0.934767 -0.344635 0.0862423 -0.781607 -0.515782 0.350798 -0.0550898 -0.845409 0.53127 
0.847522 0.492963 -0.196707 -0.754855 0.486617 -0.43977 -0.474458 0.706564 -0.52503 
0.717295 -0.613749 0.329849 -0.267653 -0.738158 0.619262 -0.416527 -0.775715 0.4741 
-0.500155 -0.65157 0.570351 0.886025 -0.449385 0.114073 0.961639 -0.20611 0.181022 
-0.596225 0.660251 -0.456711 -0.822146 0.385885 -0.418532 -0.825184 0.409296 -0.389292 
0.803578 -0.525704 0.279102 -0.940639 0.23156 -0.248148 0.533613 0.815431 -0.22434 
0.173358 -0.750002 0.638313 0.596449 -0.722517 0.349595 -0.619605 0.701005 -0.353103 
-0.22041 0.924491 -0.311024 -0.256191 -0.725849 0.638364 0.534966 -0.596857 0.597974 
0.95682 0.290594 -0.00710068 -0.766644 0.51827 -0.379016 -0.641423 0.732563 -0.227877 
-0.114977 -0.681979 0.722278 -0.619855 -0.69029 0.373202 0.677313 -0.533704 0.506368 
-0.169804 -0.302475 0.93791 0.666059 -0.0889322 0.740579 0.115644 0.59264 0.797123 
-0.706955 0.224935 0.670536 0.624402 0.735159 -0.263937 0.98125 -0.107938 0.159678 
0.937861 0.261107 0.22856 0.452422 -0.372221 0.810411 0.629827 -0.0505913 0.775086 
0.626803 0.220873 0.747217 0.268619 0.669213 0.692819 -0.240145 -0.684058 0.688763 
-0.680272 -0.296349 0.670379 0.310984 -0.537804 0.783617 0.516613 -0.478513 0.710026 
-0.158373 -0.658409 0.73581 0.21238 -0.680792 0.701011 0.248296 -0.717884 0.650378 
-0.294331 -0.748871 0.593769 -0.607516 -0.460624 0.647109 -0.898518 0.414641 -0.144007 
0.310008 0.518675 0.796788 -0.327459 0.524671 0.785806 0.464874 0.388342 0.795665 
0.524699 0.274713 0.805744 -0.204765 0.515697 0.831942 -0.520929 0.391425 0.758564 
0.593203 -0.177756 0.785183 0.396439 -0.559841 0.727609 0.890896 0.43958 -0.114344 
-0.0733074 -0.764465 0.640484 0.113882 -0.658814 0.743636 0.96888 0.144334 0.201093 
0.915835 0.301184 0.265585 -0.072313 0.568632 0.819407 -0.31461 0.629722 0.710261 
-0.428063 0.427262 0.796372 0.570809 0.173782 0.802482 -0.66648 0.133842 0.73341 
-0.69932 -0.386673 0.601196 0.542073 -0.356572 0.760929 0.0300641 -0.755515 0.654441 
-0.227561 -0.803849 0.549584 0.625278 0.75369 -0.202432 0.568434 0.822714 0.0050375 
0.706018 -0.574986 0.413437 -0.343616 -0.738069 0.580674 0.87389 0.250259 0.416758 
-0.437943 0.631405 0.639948 0.594934 -0.061914 0.801386 0.972441 0.168514 0.161126 
0.577806 -0.266068 0.771588 0.406271 -0.667872 0.623611 -0.0862736 -0.766723 0.636154 
0.331501 0.341164 0.87961 0.253395 0.346348 0.903235 -0.676941 0.305038 0.669852 
0.473544 0.861592 -0.1828 0.729248 0.62134 0.28659 -0.0259526 0.998477 -0.048694 
0.216452 0.970498 -0.106218 0.85296 0.519531 0.0504634 0.614158 0.745266 0.259591 
-0.62576 0.752562 -0.205121 0.235698 -0.682308 0.692028 0.931245 -0.236569 0.27716 
-0.150181 -0.586445 0.795944 0.753981 0.331796 0.566943 0.921285 0.180986 0.344206 
-0.536071 -0.618699 0.574317 -0.379731 -0.733246 0.564053 0.0928837 -0.854674 0.510789 
-0.494784 0.49225 0.716156 0.297664 0.438919 0.847789 0.113903 0.601929 0.790384 
0.706471 0.646313 -0.288407 -0.145443 0.5197 0.841877 0.68689 0.249051 0.682756 
-0.970976 0.206656 0.120412 0.537466 0.476097 0.696033 -0.741041 0.564306 0.363893 
0.800961 0.361579 0.477202 0.859507 -0.151098 0.488279 -0.885171 -0.209159 -0.415602 
-0.165757 -0.0395834 -0.985372 0.178126 0.7933 -0.582191 0.125663 0.927635 -0.351714 
0.658838 -0.658603 -0.363558 0.707941 0.278472 -0.649055 0.455948 0.55144 -0.698588 
0.483715 0.873941 0.0474035 -0.977201 -0.202807 -0.0628201 -0.25227 0.93694 -0.241875 
0.814101 -0.465119 0.347713 0.737759 -0.446574 0.506245 -0.143172 -0.615819 0.77477 
0.921739 -0.017957 0.387395 -0.204962 -0.644247 0.736842 0.818355 0.171917 0.548398 
0.713998 0.254203 0.652371 0.279457 0.561941 0.778541 0.800042 0.148195 0.581352 
-0.362978 0.389011 0.84671 0.593042 0.209155 0.777531 0.536993 0.279535 0.795926 
-0.533239 0.301412 0.790447 -0.587973 -0.175262 0.789665 0.925958 0.0272318 0.376644 
-0.33972 -0.809625 0.478641 -0.04778 -0.887147 0.459006 0.974271 0.202857 -0.0982113 
0.892601 0.296361 -0.339755 0.231734 0.624649 0.74573 -0.999556 0.00246793 -0.0297104 
0.636178 -0.0345417 0.770768 -0.964391 -0.248105 -0.0916221 -0.268808 -0.802544 0.532603 
0.409744 0.822952 0.393522 0.106302 0.810801 0.575588 0.795271 0.589887 0.139919 
-0.8633 -0.504225 -0.0216615 -0.993599 -0.103088 0.0461902 -0.958548 0.275062 -0.0743412 
0.54451 -0.622615 0.562013 0.144375 -0.694017 0.705334 0.777664 -0.413851 0.473251 
0.835809 -0.348067 0.424586 0.373553 -0.401273 0.836324 -0.156874 -0.537633 0.828457 
0.668845 0.0867974 0.738317 0.601134 0.197091 0.774463 0.159262 0.572838 0.804047 
-0.396283 -0.698866 0.595438 0.407683 0.460469 0.78852 0.496633 0.349034 0.794689 
-0.16354 0.106741 0.980745 0.857635 0.050967 0.511728 -0.0366351 -0.231875 0.972055 
0.967568 0.0859751 0.237529 -0.261195 -0.901668 0.344632 0.969461 0.0864123 -0.229517 
0.0966925 0.586942 0.803835 0.496522 0.345623 0.796248 0.251573 0.903545 -0.346869 
0.311532 0.876199 -0.367726 0.378897 0.572503 0.727102 -0.176942 0.192573 0.965198 
-0.979609 0.194616 0.0499037 0.318342 0.910359 -0.264394 -0.322996 0.913821 0.24618 
0.484041 -0.534751 0.692636 0.817376 -0.299769 0.49197 0.483613 -0.481875 0.730695 
-0.227187 -0.0876748 0.969897 0.960814 0.0394086 0.274378 0.557513 -0.249196 0.791885 
0.747595 -0.444796 0.493212 0.80928 -0.0613422 0.584212 0.625491 -0.0459357 0.778878 
-0.0531159 -0.335556 0.940521 0.109474 -0.273087 0.95574 -0.130762 -0.232085 0.963866 
0.0055812 -0.206444 0.978443 0.304515 -0.213836 0.928194 -0.200504 0.0115892 0.979624 
0.305481 -0.107451 0.946116 0.225398 0.0703439 0.971724 0.00323946 -0.103852 0.994587 
0.0438953 -0.312343 0.948955 0.141678 -0.18017 0.973379 -0.0956843 0.29919 0.949384 
0.561974 0.0596751 0.824999 0.506157 0.170987 0.845321 0.349041 0.0917164 0.932608 
0.320065 0.127199 0.938818 0.667372 0.0034984 0.744716 0.430793 -0.190065 0.882209 
-0.309473 -0.472275 0.825338 0.248218 -0.428525 0.868766 -0.199686 -0.740068 0.642203 
0.995929 0.0215385 0.0875321 -0.329654 0.441135 0.834702 0.143976 0.492187 0.8585 
0.529034 0.442167 0.724301 0.878898 0.476992 0.00415711 0.976106 0.150995 0.15626 
0.725633 0.665373 -0.175316 0.475013 0.808577 -0.347226 0.745851 0.498542 0.441772 
0.0302927 0.966988 -0.253014 -0.269957 0.755026 -0.597545 -0.377209 0.682561 -0.625959 
-0.497436 0.833378 -0.240913 -0.342636 0.677703 -0.65063 -0.676408 -0.69912 0.231738 
-0.695984 0.718015 0.00776275 -0.0785865 0.991421 -0.104441 0.530232 -0.455234 0.715273 
0.770351 -0.189994 0.608656 0.522221 0.299817 0.79837 0.296569 0.244184 0.923267 
0.84965 0.159407 0.502678 0.262132 -0.0504994 0.96371 0.403695 0.061279 0.912839 
0.150705 0.0661126 0.986366 0.0408109 -0.330409 0.942955 -0.166693 -0.742701 0.648543 
0.332142 -0.0517985 0.941806 0.310076 0.0656484 0.948442 0.264002 0.0491209 0.96327 
0.561242 -0.097566 0.821881 0.218583 -0.971998 -0.0862655 0.832217 -0.542675 0.113661 
-0.0140886 -0.801536 0.59778 0.734376 -0.0078204 0.678698 0.357092 -0.913615 0.194407 
-0.440117 -0.756763 0.483328 0.93852 -0.339905 0.0603795 0.742672 -0.405352 0.533036 
0.759668 0.0350231 0.649368 0.79414 -0.210009 0.570296 -0.188728 0.198166 0.961827 
-0.308846 0.172634 0.935314 -0.40475 0.131975 0.904854 0.237025 -0.591077 0.771004 
-0.0567971 0.430725 0.900694 0.922723 0.0369928 0.383685 -0.701745 0.209114 0.681047 
0.912995 0.213493 0.34765 -0.977239 -0.180336 0.111728 0.878378 0.476788 0.0335591 
0.768809 0.267497 0.580842 -0.902117 0.116009 -0.415603 -0.624573 0.577875 -0.525328 
-0.610877 0.476991 -0.631909 -0.266945 0.832472 -0.485521 0.196181 0.902196 -0.384129 
0.999482 0.00951895 -0.0307528 -0.255758 0.644066 -0.720949 -0.119922 0.825594 -0.551374 
0.776418 0.60914 0.161627 0.188453 0.666175 -0.721593 -0.77778 -0.523203 0.348305 
-0.873147 -0.417278 0.25198 -0.994225 -0.0729543 0.0787051 -0.928009 0.372311 -0.0135759 
-0.415946 0.908959 0.0279797 0.171783 -0.854697 -0.489881 -0.670207 0.395566 -0.627974 
0.478624 0.617613 -0.624078 0.670207 -0.395566 0.627974 -0.171783 0.854697 0.489881 
-0.46805 -0.510941 0.721019 -0.0764519 -0.333453 0.939662 0.399626 -0.271277 0.875618 
0.0556763 -0.444867 0.893864 0.199554 -0.0983966 0.974934 -0.126648 -0.743149 0.657031 
0.664026 -0.241946 0.707483 0.869864 -0.100949 0.482851 0.917916 -0.0501484 0.393592 
0.122328 0.430851 0.894094 0.135363 -0.343671 0.929283 0.0172795 0.291689 0.956357 
-0.478399 0.0415184 0.877161 -0.153785 -0.79352 0.588792 -0.826109 -0.144347 0.54471 
0.528455 0.30878 0.790816 -0.922681 -0.251009 0.292666 0.886357 0.0630107 0.458694 
0.884386 0.421673 0.200133 0.89775 0.407168 0.168105 0.77811 0.33425 0.53181 
-0.908693 -0.307848 -0.28197 0.897801 0.10554 0.427568 -0.749964 0.0198866 -0.66118 
0.691961 -0.504095 0.516796 -0.336549 0.113276 -0.934828 -0.631818 -0.310366 -0.710267 
-0.427539 -0.295696 -0.854268 -0.257549 -0.965234 -0.0446336 0.65517 -0.108567 -0.74764 
0.168403 0.342205 -0.924411 -0.316199 -0.668555 -0.673091 0.15643 0.542863 -0.825123 
0.717964 0.679182 0.152444 0.448458 0.865608 -0.222731 0.108576 0.900641 -0.420781 
0.104515 0.771814 -0.6272 0.914476 0.403435 -0.0312048 0.719638 0.69135 -0.0644681 
-0.910346 -0.220844 0.349997 -0.988886 0.120722 0.0867816 0.280785 0.952533 -0.117644 
0.153647 0.971238 -0.181907 -0.344197 0.934104 0.0947552 -0.478624 -0.617613 0.624078 
0.169046 -0.444371 0.879749 0.171783 -0.854697 -0.489881 -0.670207 0.395566 -0.627974 
0.478624 0.617613 -0.624078 0.670207 -0.395566 0.627974 -0.171783 0.854697 0.489881 
-0.299203 -0.742643 0.599132 0 -0.159641 -0.987175 0 -1 0 
-0.963361 -0.268207 4.13429e-08 0.963361 -0.268207 4.13429e-08 0 0.5547 -0.83205 
0.386869 -0.425232 0.818236 0.519832 -0.638133 0.567945 0.674799 -0.277209 0.68396 
0.366005 0.173343 0.914326 0.0323692 0.0892246 0.995485 -0.298296 -0.332185 0.894803 
-0.654566 -0.304085 0.692152 -0.523054 -0.595886 0.609372 -0.808025 -0.547591 0.217348 
-0.929733 -0.364972 0.0489001 -0.712422 -0.480256 -0.511672 -0.167398 0.496979 0.851464 
0.612131 0.0462288 0.789404 -0.956193 -0.180295 0.230628 -0.848024 -0.498245 -0.180573 
0.56624 0.489774 0.662943 0.789385 0.264376 0.554055 -0.635975 0.738204 -0.224923 
0.837266 0.42112 0.348775 -0.029629 0.878671 -0.476508 -0.219395 0.802034 -0.555524 
-0.390829 0.576081 -0.717903 -0.571969 0.316419 -0.75679 -0.648522 0.563461 -0.511793 
0.0808433 0.579687 -0.810819 0.0743029 0.785984 -0.613766 -0.478624 -0.617613 0.624078 
-0.149062 -0.595636 0.789303 0.329053 -0.402533 0.854219 -0.302423 -0.754097 0.582991 
0 -0.159641 0.987175 -0.0309585 -0.839185 0.542965 0.60719 -0.570616 0.552917 
0.570274 -0.517257 0.638148 0.0367524 -0.705665 0.707591 -0.158522 -0.832389 0.531036 
0.0371819 -0.854371 0.518331 -0.678661 -0.656977 -0.32833 -0.3194 -0.875104 -0.363561 