# vtk DataFile Version 4.2
vtk output
ASCII
DATASET POLYDATA
POINTS 715 float
239.333 254.282 162.797 239.222 254.359 162.816 239.427 254.277 162.802 
238.792 254.889 162.861 238.885 254.843 162.858 239.5 254.387 162.829 
238.746 255.037 162.92 239.47 255.555 162.813 239.58 255.3 162.874 
239.04 255.812 162.949 239.247 255.837 162.904 239.389 255.744 162.849 
239.574 255.573 162.824 239.516 255.718 162.856 239.593 255.647 162.836 
238.89 256.02 163.114 239.105 256.008 163.055 239.511 255.793 162.982 
239.587 255.667 162.894 239.158 256.152 163.248 239.393 255.971 163.106 
240.504 248.004 162.017 240.504 248.004 162.018 240.504 248.004 162.017 
240.505 248.005 162.017 240.505 248.004 162.017 240.505 248.004 162.018 
240.504 248.005 162.017 240.505 248.005 162.018 239.531 252.718 163.271 
239.496 252.562 163.357 239.704 252.658 163.279 239.599 252.53 163.366 
239.727 252.564 163.416 239.796 252.666 163.287 239.834 252.719 163.26 
239.405 253.361 163.093 239.688 253.195 163.135 239.837 252.979 163.279 
239.831 253.302 163.187 238.96 254.455 162.921 239.659 254.221 162.952 
238.097 254.688 163.354 239.5 254.792 162.849 239.687 254.631 162.941 
239.735 254.767 163.017 238.401 255.807 163.255 239.608 255.559 162.871 
239.602 255.526 163.048 239.686 255.079 163.055 238.943 256.404 163.61 
239.078 256.354 163.573 240.504 248.004 162.018 240.505 248.004 162.018 
239.485 252.336 163.607 239.592 252.327 163.562 239.89 253.715 163.36 
237.797 254.293 163.649 239.869 253.998 163.367 239.759 254.631 163.437 
237.207 255.553 164.089 237.22 256.422 164.443 239.45 255.909 163.335 
238.388 256.471 164.084 238.701 256.438 164.006 239.177 256.262 163.582 
239.464 252.312 163.732 239.567 252.321 163.646 239.106 252.465 164.059 
239.665 252.889 163.865 239.853 253.219 163.541 237.516 254.097 164.056 
239.759 253.565 163.896 236.176 254.705 165.286 236.579 255.406 164.629 
236.06 256.558 165.208 236.683 256.469 164.791 239.026 255.891 164.371 
235.535 257.078 165.881 238.451 256.422 164.49 239.509 252.351 163.776 
239.024 252.548 164.314 239.234 252.496 164.142 239.279 252.673 164.276 
239.302 252.975 164.438 239.388 253.669 164.598 239.218 254.129 164.904 
235.399 255.805 165.69 238.958 255.466 164.897 235.483 256.277 165.578 
239.112 255.596 164.489 235.073 256.706 166.012 235.083 256.984 166.115 
238.838 252.705 164.607 239.086 252.626 164.402 238.306 252.997 165.272 
236.808 253.606 166.51 237.491 253.344 165.989 238.736 253.886 165.653 
238.355 254.48 166.432 234.143 256.019 167.154 233.952 256.772 167.269 
234.353 256.981 166.831 237.912 256.405 165.793 234.9 257.237 166.468 
234.522 257.252 166.812 234.567 257.587 167.116 234.961 257.693 167.047 
234.972 257.89 167.522 235.967 257.554 167.064 234.661 254.671 167.899 
234.255 255.154 167.694 238.091 254.575 167.072 234.007 255.37 167.674 
238.049 254.9 167.002 233.647 257.163 167.772 237.476 256.523 166.543 
234.262 257.92 167.737 234.211 258.199 168.295 237.315 253.628 167.352 
237.506 253.873 167.708 235.528 254.029 168.226 237.717 254.015 167.608 
237.71 254.044 167.688 233.758 255.483 168.211 233.119 256.214 168.63 
233.152 257.025 168.403 236.515 256.959 168.509 232.589 257.919 169.264 
232.581 258.216 169.428 233.547 258.581 169.214 234.517 258.316 168.844 
233.955 258.546 168.873 237.189 253.756 168.141 233.299 255.478 169.573 
232.608 256.533 169.425 232.217 257.457 169.623 231.812 258.432 170.335 
231.881 258.779 170.514 232.293 258.957 170.368 232.789 258.938 170.105 
233.96 258.557 169.043 232.828 259.168 170.557 236.704 253.817 168.728 
235.845 253.906 169.333 236.811 254.17 169.201 231.616 257.13 170.822 
231.444 257.99 170.721 231.022 258.692 171.356 231.133 259.06 171.43 
231.426 259.644 171.719 231.822 259.709 171.652 232.692 259.422 171.223 
231.85 259.893 172.059 236.347 253.994 169.964 236.342 255.199 170.674 
230.578 258.46 171.911 230.407 259.37 172.402 236.065 253.972 170.163 
235.913 254.094 170.505 233.994 254.785 171.51 231.474 256.682 172.478 
230.274 258.253 172.52 233.355 259.316 172.751 232.53 259.923 172.991 
235.019 254.416 171.578 235.37 254.341 171.344 235.947 254.401 171.02 
235.779 254.434 171.274 236.014 254.869 171.288 232.44 255.861 172.465 
231.297 256.723 173.47 235.577 256.399 172.032 235.572 255.992 172.246 
229.511 258.256 174.222 229.042 259.106 174.373 233.995 258.646 173.438 
231.053 260.625 174.088 234.913 254.532 171.897 235.522 254.519 171.583 
233.916 255.013 172.556 235.76 254.929 171.73 232.867 255.714 173.584 
235.291 256.01 172.831 234.577 257.816 173.286 234.68 257.373 173.637 
228.494 259.214 175.286 232.192 260.232 174.07 228.583 260.435 175.306 
228.359 260.338 175.531 231.344 260.669 174.316 234.5 254.973 172.728 
231.832 256.402 174.715 234.967 256.407 173.419 229.616 257.935 174.971 
234.429 257.411 174.414 233.782 258.683 174.665 228.131 259.645 175.867 
228.073 260.006 175.939 232.64 256.068 174.811 234.164 257.83 174.93 
234.381 257.013 174.679 227.892 259.32 177.109 227.637 259.87 177.142 
227.872 260.207 176.453 227.591 260.661 177.504 233.469 256.381 175.432 
234.24 256.546 174.741 233.986 257.202 175.686 233.868 257.385 176.248 
228.082 259.048 177.427 231.008 261.037 177.06 228.284 261.577 177.987 
233.648 257.303 176.675 233.404 258.052 177.434 233.119 258.94 177.643 
226.894 260.761 179.415 227.775 261.674 178.952 232.95 258.642 178.683 
226.866 260.291 180.023 232.006 260.166 179.252 227.088 261.505 179.793 
227.341 261.773 179.909 227.729 261.839 179.586 228.444 261.917 179.429 
232.883 258.402 178.872 226.791 260.251 180.721 226.298 261.126 181.28 
232.014 260.02 179.935 227.439 261.927 180.284 229.287 261.83 180.061 
231.829 258.058 179.738 232.488 258.191 179.376 232.678 258.403 179.321 
232.434 259.05 180.05 226.756 260.166 181.513 232.293 259.448 180.264 
225.901 261.114 182.371 230.028 258.516 181.082 232.091 259.093 180.95 
226.777 260.121 182.621 232.093 259.673 180.615 225.679 261.68 182.709 
226.196 262.158 182.486 228.493 262.088 181.517 228.892 259.242 182.533 
231.706 258.972 181.537 231.976 259.222 181.447 231.925 259.223 181.604 
231.906 259.432 181.48 231.93 259.291 181.603 230.303 261.091 182.524 
231.174 260.217 182.32 231.59 259.834 181.855 228.848 261.958 182.703 
225.339 262.667 184.367 227.186 262.477 183.315 231.264 259.125 182.154 
231.794 259.306 181.793 226.226 260.61 183.874 231.338 259.64 182.527 
225.386 261.315 184.523 228.455 259.702 183.711 231.325 259.31 182.374 
231.301 259.483 182.556 228.385 262.089 184.121 224.305 262.692 185.518 
228.987 259.783 183.957 230.127 259.785 183.549 231.115 259.451 182.685 
226.767 260.617 185.185 227.837 260.263 184.784 229.866 260.081 184.052 
224.986 261.653 186.225 228.436 261.898 185.063 223.499 263.685 187.241 
229.214 260.219 184.599 229.694 260.518 184.486 225.709 261.388 186.515 
229.184 261.179 184.933 229.546 260.742 184.692 228.371 261.625 185.697 
228.772 261.272 185.422 222.316 263.597 188.331 227.385 262.488 185.823 
221.295 264.156 189.458 221.837 264.179 188.898 223.883 263.904 187.611 
224.704 263.742 187.426 228.972 260.515 185.048 228.885 260.78 185.343 
225.58 261.563 186.942 226.668 261.143 186.399 228.612 260.971 185.638 
221.991 263.4 189.248 221.545 264.352 189.296 227.187 261.022 186.236 
227.62 261.027 186.147 226.367 261.47 186.97 224.856 262.154 187.986 
225.553 261.877 187.6 220.552 264.152 190.767 220.016 264.648 191.137 
220.584 264.681 190.514 220.837 264.787 190.414 221.235 264.754 190.115 
223.859 264.163 189.01 226.485 261.673 187.243 226.899 261.9 187.269 
221.799 263.438 189.899 226.702 262.548 187.501 219.807 264.739 191.538 
225.059 263.549 188.848 225.467 263.266 188.587 219.94 264.79 191.305 
224.746 262.646 188.898 225.5 262.414 188.37 226.57 262.117 187.616 
222.019 263.443 190.553 225.687 262.892 188.498 219.644 264.668 192.101 
219.817 265.092 191.76 219.584 265.161 192.126 220.099 265.109 191.542 
221.447 263.779 191.416 224.576 263.494 189.673 224.264 263.538 190.01 
219.438 265.114 192.331 219.158 265.209 192.932 222.333 264.697 191.579 
220.142 265.397 192.391 221.213 265.157 191.774 221.55 263.875 191.797 
223.901 263.576 190.314 223.387 263.746 190.821 222.677 264.4 191.652 
222.581 264.505 191.762 221.992 264.723 192.255 218.848 265.46 193.581 
219.714 265.526 192.84 218.969 265.576 193.537 221.943 263.946 191.872 
219.103 265.054 193.503 220.408 264.443 192.938 222.304 264.518 192.086 
222.512 264.508 191.863 218.708 265.439 193.923 218.529 265.646 194.189 
219.044 265.66 193.722 219.088 265.097 194.06 218.756 265.352 194.067 
221.434 264.756 193.115 220.904 264.95 193.476 218.438 265.68 194.375 
219.458 265.635 193.704 218.514 265.701 194.301 219.154 265.677 193.887 
219.549 264.948 194.072 218.774 265.362 194.35 221.364 264.72 193.153 
218.613 265.555 194.552 220.066 265.276 194.055 218.381 265.707 194.495 
218.364 265.728 194.53 218.397 265.724 194.47 218.463 265.721 194.463 
220.397 264.927 193.89 220.152 265.062 194.118 219.616 265.35 194.434 
218.401 265.724 194.53 218.527 265.68 194.54 218.744 265.603 194.644 
218.891 265.409 194.854 219.208 265.393 194.726 219.014 265.409 194.844 
218.826 265.483 194.859 218.856 265.526 194.801 218.943 265.458 194.863 
219.02 265.494 194.804 219.122 265.476 194.8 219.178 265.461 194.776 
219.271 265.466 194.663 219.113 265.512 194.742 218.863 265.446 194.888 
218.933 265.419 194.877 219.159 265.485 194.777 219.113 265.247 262.221 
219.836 265.217 262.185 220.14 265.138 262.339 218.987 265.409 262.077 
218.931 265.418 262.131 218.936 265.444 262.096 219.717 265.31 262.145 
219.935 265.258 262.221 218.998 265.462 262.136 219.176 265.472 262.186 
219.435 265.445 262.196 220.654 264.906 262.683 220.481 265.022 262.533 
220.869 264.97 262.771 218.937 265.458 262.185 218.943 265.396 262.325 
220.153 265.253 262.362 219.013 265.53 262.411 219.385 264.963 262.712 
[...]
POINT_DATA 715
SCALARS scalars float
LOOKUP_TABLE default
1 1 1 1 1 1 1 1 1 
1 1 1 1 1 1 1 1 1 
1 1 1 1 1 1 1 1 1 
1 1 1 1 1 1 1 1 1 
1 1 1 1 1 1 1 1 1 
1 1 1 1 1 1 1 1 1 
1 1 1 1 1 1 1 1 1 
1 1 1 1 1 1 1 1 1 
1 1 1 1 1 1 1 1 1 
1 1 1 1 1 1 1 1 1 
1 1 1 1 1 1 1 1 1 
1 1 1 1 1 1 1 1 1 
1 1 1 1 1 1 1 1 1 
1 1 1 1 1 1 1 1 1 
1 1 1 1 1 1 1 1 1 
1 1 1 1 1 1 1 1 1 
1 1 1 1 1 1 1 1 1 
1 1 1 1 1 1 1 1 1 
1 1 1 1 1 1 1 1 1 
1 1 1 1 1 1 1 1 1 
1 1 1 1 1 1 1 1 1 
1 1 1 1 1 1 1 1 1 
1 1 1 1 1 1 1 1 1 
1 1 1 1 1 1 1 1 1 
1 1 1 1 1 1 1 1 1 
1 1 1 1 1 1 1 1 1 
1 1 1 1 1 1 1 1 1 
1 1 1 1 1 1 1 1 1 
1 1 1 1 1 1 1 1 1 
1 1 1 1 1 1 1 1 1 
1 1 1 1 1 1 1 1 1 
1 1 1 1 1 1 1 1 1 
1 1 1 1 1 1 1 1 1 
1 1 1 1 1 1 1 1 1 
1 1 1 1 1 1 1 1 1 
1 1 1 1 1 1 1 1 1 
1 1 1 1 1 1 1 1 1 
1 1 1 1 1 1 1 1 1 
1 1 1 1 1 1 1 1 1 
1 1 1 1 1 1 1 1 1 
1 1 1 1 1 1 1 1 1 
1 1 1 1 1 1 1 1 1 
1 1 1 1 1 1 1 1 1 
1 1 1 1 1 1 1 1 1 
1 1 1 1 1 1 1 1 1 
1 1 1 1 1 1 1 1 1 
1 1 1 1 1 1 1 1 1 
1 1 1 1 1 1 1 1 1 
1 1 1 1 1 1 1 1 1 
1 1 1 1 1 1 1 1 1 
1 1 1 1 1 1 1 1 1 
1 1 1 1 1 1 1 1 1 
1 1 1 1 1 1 1 1 1 
1 1 1 1 1 1 1 1 1 
1 1 1 1 1 1 1 1 1 
1 1 1 1 1 1 1 1 1 
1 1 1 1 1 1 1 1 1 
1 1 1 1 1 1 1 1 1 
1 1 1 1 1 1 1 1 1 
1 1 1 1 1 1 1 1 1 
1 1 1 1 1 1 1 1 1 
1 1 1 1 1 1 1 1 1 
1 1 1 1 1 1 1 1 1 
1 1 1 1 1 1 1 1 1 
1 1 1 1 1 1 1 1 1 
1 1 1 1 1 1 1 1 1 
1 1 1 1 1 1 1 1 1 
1 1 1 1 1 1 1 1 1 
1 1 1 1 1 1 1 1 1 
1 1 1 1 1 1 1 1 1 
1 1 1 1 1 1 1 1 1 
1 1 1 1 1 1 1 1 1 
1 1 1 1 1 1 1 1 1 
1 1 1 1 1 1 1 1 1 
1 1 1 1 1 1 1 1 1 
1 1 1 1 1 1 1 1 1 
1 1 1 1 1 1 1 1 1 
1 1 1 1 1 1 1 1 1 
1 1 1 1 1 1 1 1 1 
1 1 1 1 
NORMALS Normals float
-0.230495 -0.185236 -0.95528 -0.194835 0.187306 -0.962785 0.269179 -0.143062 -0.952405 
-0.286153 0.0154532 -0.958059 -0.0905131 0.0393367 -0.995118 0.156542 0.144743 -0.977008 
-0.360814 0.201746 -0.910556 0.0893984 0.0547158 -0.994492 0.748565 -0.0243004 -0.662616 
-0.300881 0.333319 -0.893515 0.110256 0.668265 -0.735708 -0.112326 0.260349 -0.958959 
0.381257 0.0108295 -0.924406 0.299467 0.580789 -0.75697 0.757109 0.327502 -0.565268 
-0.343695 0.532512 -0.773502 -0.0967674 0.743748 -0.661419 0.808968 0.587853 -0.000826692 
0.890112 0.453546 -0.0446883 0.0793724 0.808168 -0.58358 0.567611 0.746928 -0.34629 
-0.238376 -0.410634 -0.880089 -0.509355 -0.813452 0.280807 -0.978243 -0.0720781 -0.194538 
0.571326 0.387346 -0.723568 0.5491 -0.754626 -0.359207 0.99331 0.0410121 0.107949 
-0.36126 0.783144 -0.506139 0.372954 0.789417 0.487572 -0.158997 -0.362333 -0.918387 
-0.375906 -0.528473 -0.76119 0.102834 -0.581962 -0.806688 0.101896 -0.629064 -0.770647 
0.76723 -0.624425 -0.14646 0.396975 -0.731174 -0.554793 0.597021 -0.359447 -0.717191 
-0.21895 -0.3076 -0.925982 0.341117 -0.193991 -0.919786 0.87784 -0.0438862 -0.476939 
0.725126 -0.1029 -0.680885 -0.35296 -0.175789 -0.918977 0.708987 -0.0513783 -0.703347 
-0.638184 -0.00940539 -0.769826 0.324491 -0.0105573 -0.94583 0.693753 0.0315945 -0.71952 
0.931607 0.0814693 -0.354219 -0.522739 0.256408 -0.813019 0.972501 0.0126114 -0.232556 
0.97174 0.208292 0.111067 0.936167 0.169688 -0.307892 0.0484397 0.957891 -0.283018 
0.485972 0.867751 -0.104115 -0.635776 0.276926 0.720486 0.336313 -0.443301 0.83089 
-0.507586 -0.775408 -0.375632 0.182341 -0.858832 -0.478705 0.983976 0.115898 0.135491 
-0.59951 -0.302239 -0.741107 0.981664 0.0607963 -0.180662 0.929959 0.243684 0.275308 
-0.633793 0.0386162 -0.772538 -0.327328 0.710691 -0.622715 0.900778 0.404965 0.156852 
0.261041 0.964558 -0.0385476 0.442814 0.860805 0.250862 0.790311 0.555828 0.257806 
0.0764886 -0.955403 0.285228 0.718003 -0.630716 0.294397 -0.402912 -0.913231 0.060596 
0.863079 -0.190504 0.467763 0.954477 -0.115441 0.275039 -0.747433 -0.305037 -0.590167 
0.929535 0.0826116 0.35936 -0.696149 -0.280737 -0.66073 -0.664188 -0.0267855 -0.747086 
-0.592482 0.132374 -0.794633 -0.432229 0.500727 -0.749967 0.834055 0.45711 0.308874 
-0.425313 0.543407 -0.723753 0.54535 0.753533 0.367126 0.555776 -0.64096 0.529418 
-0.019685 -0.912622 0.40833 0.283218 -0.810162 0.51325 0.633837 -0.44374 0.633518 
0.681983 -0.358482 0.637487 0.919256 0.115684 0.376278 0.845615 -0.0109192 0.533681 
-0.686642 -0.176676 -0.705201 0.864218 0.281852 0.416757 -0.603668 0.129619 -0.786628 
0.874848 0.35922 0.324965 -0.682938 0.169143 -0.710623 -0.480406 0.543447 -0.688386 
0.186651 -0.785081 0.590601 0.40975 -0.638597 0.651382 0.38564 -0.756212 0.528607 
-0.333189 -0.942741 0.0149646 -0.148517 -0.976226 0.157878 0.774774 -0.21222 0.595557 
0.876733 -0.249962 0.410925 -0.765207 -0.211124 -0.608182 -0.802673 0.20924 -0.558511 
-0.719161 0.212735 -0.661477 0.660117 0.683061 0.312526 -0.517848 0.549166 -0.655935 
-0.675074 0.478254 -0.561738 -0.472525 0.702866 -0.531694 -0.159034 0.847809 -0.505894 
-0.0245069 0.925889 -0.377 0.312056 0.940669 -0.13328 -0.57686 -0.799084 -0.169403 
-0.603072 -0.636802 -0.480402 0.853268 0.060902 0.517904 -0.715917 -0.513121 -0.473466 
0.736101 0.303675 0.604927 -0.792312 0.165348 -0.587283 0.661692 0.538903 0.521294 
-0.475741 0.643904 -0.599215 0.016052 0.916139 -0.400538 0.407378 -0.86847 0.282496 
0.619087 -0.736402 0.272843 -0.416038 -0.843911 -0.338712 0.785349 -0.572906 0.234532 
0.7836 -0.492 0.37935 -0.839183 -0.424643 -0.339779 -0.815426 -0.496851 -0.297019 
-0.788289 0.0466081 -0.613537 0.784681 0.576553 0.227733 -0.739726 0.150425 -0.655879 
-0.570483 0.518026 -0.637337 -0.0588912 0.953113 -0.296828 0.423669 0.90575 0.0110786 
0.0824025 0.949419 -0.303008 0.396734 -0.878101 0.267472 -0.720329 -0.679638 -0.138634 
-0.814906 -0.401588 -0.417919 -0.795629 -0.00263478 -0.605778 -0.759896 0.285366 -0.584058 
-0.6498 0.471493 -0.5962 -0.389367 0.714955 -0.580717 -0.275898 0.815782 -0.508311 
0.339316 0.880027 0.332291 0.143353 0.934641 -0.325418 0.506551 -0.7973 0.328206 
-0.279906 -0.9571 0.0749164 0.75222 -0.484922 0.446113 -0.847938 -0.328955 -0.41568 
-0.817837 0.103158 -0.566128 -0.802246 0.0977365 -0.588939 -0.612262 0.487903 -0.622163 
-0.296215 0.764377 -0.572699 -0.120832 0.815484 -0.566026 0.0946498 0.900928 -0.423521 
-0.0522718 0.929078 -0.366173 0.796073 -0.475015 0.375005 0.901688 -0.0428398 0.43026 
-0.849335 -0.0851048 -0.520949 -0.777117 0.259331 -0.573443 0.244123 -0.916519 0.316855 
0.200233 -0.914377 0.351883 -0.439935 -0.896592 0.0507853 -0.715472 -0.676243 -0.175486 
-0.836718 -0.364549 -0.408665 0.572312 0.816577 -0.075236 0.497264 0.863954 -0.0794509 
-0.218565 -0.966411 0.135201 0.0579599 -0.954619 0.292136 0.200131 -0.9363 0.288599 
0.498315 -0.732523 0.46378 0.835624 -0.281228 0.47185 -0.631353 -0.774636 -0.0364929 
-0.609887 -0.790205 -0.0601131 0.914478 0.196469 0.353737 0.933251 0.0817691 0.349795 
-0.746658 -0.635851 -0.195439 -0.872579 -0.183456 -0.452715 0.730825 0.680173 0.0570911 
0.114784 0.953685 -0.278047 -0.0547162 -0.923772 0.379014 0.251563 -0.84184 0.477517 
-0.402003 -0.888683 0.220534 0.785908 -0.295604 0.543109 -0.402851 -0.898675 0.173477 
0.879478 0.00291089 0.475931 0.873366 0.458129 0.165375 0.931853 0.233722 0.277532 
-0.818359 -0.47693 -0.320667 0.502896 0.85346 -0.136755 -0.619777 0.571819 -0.537494 
-0.806717 0.214428 -0.550661 0.234237 0.94017 -0.247414 0.174857 -0.822119 0.541798 
-0.522664 -0.843186 0.125935 0.905911 0.0813083 0.415589 -0.678484 -0.734439 -0.0160665 
0.97967 0.120805 0.160167 0.823217 0.537358 0.183195 -0.87545 -0.109327 -0.470781 
-0.819492 0.292659 -0.49273 -0.252102 -0.925862 0.281468 0.884262 0.30642 0.352402 
0.975193 -0.0679437 0.210673 -0.881329 -0.427099 -0.202102 -0.949041 -0.23224 -0.213041 
-0.91151 0.0696674 -0.405334 -0.801296 0.455756 -0.387571 0.338545 -0.813078 0.473594 
0.887977 -0.250293 0.385812 0.923972 -0.0486932 0.379348 0.960259 -0.00541075 0.279057 
-0.802204 -0.59027 -0.0897287 0.431209 0.90216 -0.0129065 -0.196708 0.926967 -0.319434 
0.817695 -0.406379 0.407714 0.948054 0.202787 0.245094 0.909861 0.384074 0.156972 
-0.963232 -0.0555178 -0.262872 -0.396306 0.870854 -0.290784 0.948274 0.14962 0.279983 
-0.801921 -0.577924 -0.151417 0.779716 0.610134 0.140641 -0.702921 0.612102 -0.362261 
-0.54544 0.785352 -0.292776 -0.27857 0.938584 -0.203616 -0.0365465 0.990898 -0.129562 
0.926388 -0.156121 0.342683 -0.634757 -0.757254 -0.153784 -0.937567 -0.161884 -0.307833 
0.732257 0.665969 0.142422 -0.184721 0.973005 -0.138343 0.257576 0.965568 -0.0365152 
0.275124 -0.7952 0.540337 0.618286 -0.587682 0.521874 0.850082 -0.264612 0.455348 
0.945145 0.00456958 0.326619 -0.602093 -0.783211 -0.155129 0.925781 0.333429 0.1782 
-0.8703 -0.434841 -0.231281 0.0132196 -0.893877 0.448117 0.933186 -0.200436 0.298312 
-0.456898 -0.888048 0.0511344 0.876505 0.354608 0.325563 -0.838892 0.281591 -0.465798 
-0.447318 0.820581 -0.355743 0.161158 0.98666 0.0230183 -0.0380519 -0.927752 0.371252 
0.477082 -0.756456 0.447401 0.971396 0.0459896 0.232968 0.813806 -0.37036 0.447832 
0.862555 0.41107 0.29499 0.899228 0.183133 0.397305 0.61435 0.77269 0.159765 
0.776971 0.535677 0.330704 0.865148 0.384105 0.322462 0.196238 0.979263 0.0503506 
-0.173316 0.920033 -0.351426 0.158298 0.983907 -0.0828825 0.310436 -0.814768 0.489676 
0.786378 -0.194228 0.586417 -0.563112 -0.825846 -0.0297139 0.845578 0.090013 0.526209 
-0.728032 -0.651608 -0.213018 -0.207189 -0.909137 0.361308 0.525851 -0.646817 0.552366 
0.76506 -0.258885 0.589629 0.471469 0.878834 0.07327 -0.855446 -0.265555 -0.444627 
0.0837058 -0.888619 0.450944 0.332684 -0.73408 0.591986 0.326097 -0.72486 0.606827 
-0.247052 -0.904839 0.346744 -0.132235 -0.890421 0.435505 0.384831 -0.733051 0.560839 
-0.522052 -0.846771 0.102175 0.615042 0.76585 0.187607 -0.423304 0.739275 -0.523723 
0.105374 -0.793585 0.599266 0.61994 -0.382421 0.685149 -0.254529 -0.944893 0.205895 
0.694088 0.607831 0.385725 0.778748 0.193254 0.596829 0.736501 0.486012 0.470488 
0.744792 0.487811 0.45533 -0.832897 -0.294255 -0.468718 0.437079 0.899421 0.00181675 
-0.787036 -0.0533192 -0.614599 -0.504619 0.604823 -0.616075 0.0394576 0.939824 -0.339372 
0.347207 0.925431 -0.15174 0.146335 -0.769637 0.621487 0.564543 -0.401968 0.720911 
-0.251688 -0.877537 0.408145 -0.00674649 -0.870157 0.492728 0.429105 -0.431248 0.793659 
-0.703458 -0.677593 -0.214509 -0.127152 0.852658 -0.506762 0.0434562 -0.807872 0.587754 
0.200942 -0.661554 0.722474 -0.0675274 -0.868159 0.491671 -0.35276 -0.851791 0.387314 
-0.159922 -0.879198 0.448815 -0.599395 -0.789264 -0.133372 -0.84824 -0.158581 -0.505312 
-0.617346 0.476652 -0.625848 -0.340101 0.809524 -0.478542 -0.126526 0.87052 -0.47559 
0.417468 0.906686 0.0603347 0.151777 -0.783402 0.602698 0.570879 -0.33251 0.750689 
-0.638713 -0.759999 -0.120197 0.751345 0.362644 0.551335 -0.901411 -0.0115159 -0.432811 
0.625914 0.702141 0.339456 0.664005 0.6482 0.372739 -0.685343 0.48362 -0.544442 
-0.103092 -0.875862 0.471421 0.32595 -0.647588 0.688757 0.499286 -0.411264 0.762611 
-0.22504 -0.954206 0.197097 0.691612 0.0364523 0.721349 -0.751171 -0.637337 -0.17188 
-0.697698 0.490808 -0.521847 -0.692261 0.536186 -0.482989 -0.275851 0.86731 -0.414343 
-0.191419 -0.959199 0.208077 0.734755 0.237873 0.635257 0.0186474 -0.989088 0.146144 
-0.903493 -0.0363616 -0.427058 -0.906948 -0.157724 -0.3906 0.448737 0.887233 0.107015 
-0.0172033 0.967755 -0.251304 0.193415 0.969813 -0.148505 0.00456038 -0.942414 0.334417 
0.630916 -0.285224 0.72152 0.502826 -0.511239 0.696994 0.802828 0.212036 0.557233 
0.611518 0.7425 0.273387 0.483127 0.823259 0.298048 -0.88151 0.0908634 -0.463339 
0.285584 0.955709 -0.0711453 -0.288892 0.837771 -0.463337 0.146989 -0.868098 0.474131 
-0.649435 -0.757017 -0.071835 -0.207092 -0.939444 0.273052 0.729352 0.278593 0.624846 
0.716237 0.416596 0.559868 -0.860933 -0.473269 -0.186577 -0.651718 0.598741 -0.465589 
-0.0135418 0.923228 -0.384014 -0.465608 -0.869494 0.16489 -0.743179 -0.668959 0.0133977 
0.628411 0.52215 0.576592 0.537054 0.729727 0.423168 -0.908423 -0.108121 -0.403829 
0.321504 0.94683 0.0121738 -0.174832 0.955145 -0.239024 0.232036 0.972561 0.0168286 
-0.208899 -0.923304 0.322291 -0.63224 -0.75976 0.151783 0.590553 -0.326836 0.737852 
-0.655753 -0.426102 0.623238 0.61199 0.554892 0.563528 -0.858642 -0.490246 -0.14964 
-0.602678 0.312764 0.734137 -0.485013 0.805193 -0.341214 0.220737 0.974405 0.0425506 
0.190651 -0.771787 0.606628 0.585694 -0.00874874 0.810485 0.608463 -0.0501301 0.791997 
0.136801 0.932318 0.334765 0.123227 0.75004 0.649811 -0.188175 0.77222 0.606849 
-0.254652 -0.863566 0.435208 0.42991 -0.372769 0.822326 -0.163777 -0.97815 -0.128058 
-0.32442 0.610727 0.722332 0.103291 0.935108 0.338974 0.30322 0.518394 0.799578 
0.222948 0.52589 0.820813 0.231239 0.207856 0.950434 0.588461 0.0335244 0.80783 
0.56895 0.739312 0.360157 0.15459 0.957799 0.242327 -0.46687 -0.412308 0.782326 
0.154402 -0.566802 0.809256 0.428852 0.685015 0.588931 -0.350603 -0.823626 -0.445777 
0.102026 -0.634246 -0.76637 0.403736 -0.27075 -0.873894 -0.127691 -0.0564408 -0.990207 
-0.825234 -0.535399 -0.179821 -0.643863 0.51661 -0.564406 0.224031 0.407004 -0.885527 
0.403604 0.630369 -0.663128 -0.00924479 0.911524 -0.411142 0.110398 0.824028 -0.555689 
0.165114 0.874551 -0.455958 0.271556 -0.645202 -0.714123 0.453628 -0.212037 -0.865599 
0.55484 0.130544 -0.821652 -0.801066 0.59792 -0.0280301 -0.996158 -0.0834703 0.0265055 
0.510121 0.402912 -0.759894 -0.509914 0.813858 -0.278609 -0.341133 -0.899401 -0.273323 
0.481836 -0.41097 -0.773911 0.442232 -0.587107 -0.678038 0.565721 -0.00870134 -0.824551 
0.574625 0.585283 -0.572058 0.672023 0.105247 -0.733013 -0.982516 -0.16661 -0.0830835 
0.38558 0.816931 -0.428895 -0.853607 0.478435 -0.206048 -0.445114 0.833613 -0.327051 
-0.0712931 0.93457 -0.348563 -0.209721 0.977606 0.0174204 0.15658 0.95784 -0.240886 
-0.653973 -0.75299 -0.0729759 0.732041 0.39347 -0.556145 -0.999761 0.00574106 0.0211189 
0.364598 0.913869 -0.178639 -0.601926 -0.793275 -0.0916441 -0.939121 -0.297498 0.171888 
-0.937958 0.234072 0.255822 0.195169 0.979449 -0.0508768 -0.833105 -0.551444 0.0429543 
0.704739 0.0434646 -0.708134 -0.795195 -0.560925 0.23028 -0.710394 -0.647835 0.275045 
-0.938887 -0.227633 0.258215 0.622476 0.685302 -0.378 -0.714919 0.610382 0.341063 
0.364653 0.919127 -0.149107 0.422257 -0.590878 -0.687432 -0.575956 -0.810617 0.10571 
-0.112395 -0.948785 -0.295252 -0.0144713 -0.946066 -0.323651 -0.828382 -0.525588 0.193755 
0.604263 0.60695 -0.516215 0.497348 0.826544 -0.263571 -0.473694 0.821409 0.317651 
-0.0187585 0.993701 0.110483 0.583982 -0.332859 -0.740385 0.691243 0.117652 -0.71298 
-0.516242 -0.856386 0.00986851 -0.214595 -0.960209 -0.178737 0.637038 0.727707 -0.254215 
-0.82896 -0.484857 0.278818 0.628992 0.695394 -0.347556 0.400957 0.905899 -0.136308 
0.450526 0.892504 0.0215261 -0.459536 0.816913 0.34854 -0.381791 0.897627 0.220229 
-0.514392 0.730295 0.449521 0.383437 0.917701 -0.103924 -0.104425 0.950526 0.292569 
0.350967 -0.552365 -0.756118 0.3519 -0.636691 -0.686142 -0.143795 -0.841856 -0.520194 
-0.00667599 -0.78568 -0.618597 0.732005 -0.0341405 -0.680443 0.680156 0.653196 -0.33275 
0.571736 0.820108 0.0232515 -0.597665 0.634022 0.490726 -0.394586 0.748305 0.533237 
-0.134554 -0.918479 -0.371877 -0.31587 -0.91261 -0.259557 0.783911 0.0944718 -0.613644 
-0.416137 -0.90535 0.0846806 -0.765912 -0.505095 0.397817 -0.869706 0.15248 0.469427 
-0.82725 -0.137301 0.544799 0.187217 0.962108 0.198235 0.537578 -0.435452 -0.722074 
0.72679 -0.00924794 -0.686797 -0.608436 -0.792894 -0.0335307 -0.614234 -0.781971 0.106007 
-0.655422 0.361434 0.663164 0.258014 -0.697689 -0.668325 0.588199 -0.389017 -0.709005 
-0.354318 -0.920762 -0.163267 0.8122 0.258597 -0.522932 0.846402 0.262381 -0.463423 
-0.763466 -0.64187 0.0715783 -0.812292 -0.385678 0.437533 -0.74385 -0.533228 0.402933 
0.477171 -0.527946 -0.702553 0.0612195 -0.853035 -0.518251 0.154994 -0.927274 -0.340793 
-0.181441 -0.946162 -0.26806 0.273752 -0.798765 -0.535756 0.769539 -0.0466468 -0.636894 
0.784082 0.513046 -0.349285 0.71144 0.645779 -0.277167 -0.766169 -0.0268441 0.642079 
-0.767217 0.177384 0.616371 -0.269832 0.841352 0.468314 0.563168 -0.406778 -0.719286 
0.792577 0.294504 -0.533938 0.710113 0.564187 -0.421227 -0.908543 -0.209354 0.361552 
0.540978 0.840203 -0.0374457 0.672878 -0.391251 -0.62782 0.781941 -0.425398 -0.455637 
-0.496637 -0.863719 -0.0856764 0.907277 0.242108 -0.34385 -0.698897 0.509051 0.502405 
-0.345578 -0.922202 -0.173548 0.570657 -0.664197 -0.482901 0.266704 0.955654 0.124873 
0.961538 -0.0154446 -0.274237 0.966185 0.148935 -0.210488 0.95727 0.129141 -0.258761 
-0.587571 -0.808896 -0.0211596 0.798977 0.582968 -0.147596 -0.353194 0.867304 0.350768 
-0.775469 -0.628638 0.0588373 -0.935729 -0.327092 0.131993 -0.92915 0.0768277 0.361634 
0.181336 0.967857 0.174273 -0.832208 -0.54692 0.0911492 0.939384 0.209278 -0.271589 
-0.876939 -0.442198 0.188252 -0.959214 0.160485 0.232708 -0.704972 0.613431 0.355972 
0.783676 -0.412907 -0.464069 0.802089 -0.48393 -0.34995 0.926247 -0.166454 -0.33817 
-0.972155 -0.0633573 0.225611 -0.929579 -0.196762 0.311718 -0.903574 0.259354 0.341013 
0.11868 -0.898087 -0.423503 0.561651 -0.716797 -0.41322 0.508834 -0.715569 -0.478591 
0.871579 -0.357153 -0.335845 0.555732 0.829281 -0.0587818 -0.636854 0.671385 0.379025 
0.00600307 0.985627 0.168829 0.414738 -0.751112 -0.513637 -0.410918 -0.885407 -0.217255 
-0.112491 -0.939926 -0.322313 -0.543518 0.748527 0.379862 0.217995 0.973632 0.0672175 
0.0199673 -0.907065 -0.420518 0.0446623 -0.897466 -0.438816 0.476243 -0.649482 -0.592761 
0.836064 -0.262923 -0.481526 -0.774011 -0.60091 0.199532 -0.717586 0.505304 0.47931 
-0.344179 0.838825 0.421799 0.309139 -0.781702 -0.541641 0.306371 -0.817866 -0.487065 
0.00555202 -0.905674 -0.423939 -0.746039 -0.665823 0.0102934 -0.393073 -0.910799 -0.126252 
-0.666932 -0.743595 0.047629 0.865429 0.438384 -0.242592 -0.922912 -0.17684 0.341996 
-0.750412 0.458099 0.476474 0.0554865 -0.937062 -0.344725 0.331218 -0.791079 -0.514285 
0.677074 -0.380974 -0.629627 0.706008 -0.475352 -0.52497 0.915188 -0.0212449 -0.402466 
0.947091 0.0335031 -0.319213 -0.754936 -0.641917 0.13422 0.917179 0.222522 -0.330555 
0.922331 0.119849 -0.367343 -0.867817 -0.268537 0.418068 -0.841681 -0.239493 0.483958 
-0.832406 0.0859633 0.547458 -0.648095 0.593708 0.476953 -0.440594 0.780333 0.443798 
0.0728963 0.96352 0.257516 0.654739 -0.630495 -0.416884 -0.350426 -0.923308 -0.157173 
0.877255 0.0552649 -0.476833 0.169851 0.949082 0.265319 -0.323029 -0.943438 -0.074677 
0.883188 0.199425 -0.424511 0.757261 0.629144 -0.175313 0.620623 0.778558 -0.0931402 
-0.639646 0.519717 0.566345 -0.877834 -0.27658 0.391039 0.879864 0.455107 -0.13681 
-0.839435 0.0565701 0.540508 0.51834 0.85517 -0.00261151 0.586096 0.809312 0.038792 
-0.38699 0.738432 0.552229 0.308554 0.938904 0.152491 -0.114915 0.893918 0.433251 
0.231681 -0.91954 -0.317444 -0.301051 -0.953036 -0.0330342 0.802642 -0.376439 -0.462665 
-0.805976 -0.574142 0.144095 -0.806178 -0.489319 0.332632 -0.858994 -0.0952258 0.503053 
-0.83393 0.146048 0.532194 -0.71313 0.37526 0.592136 -0.250119 0.790077 0.55966 
-0.2618 0.848205 0.460445 0.392969 0.912997 0.109597 -0.262251 -0.948454 -0.177931 
-0.682045 -0.707446 0.185298 -0.837345 -0.43167 0.335432 -0.849714 -0.199848 0.487901 
-0.825849 0.0122991 0.563757 -0.69056 0.340367 0.638183 0.116415 0.944755 0.306409 
0.22236 -0.850753 -0.476209 -0.61985 -0.767419 0.163872 -0.647929 -0.719666 0.249537 
0.860759 0.248332 -0.444326 -0.745702 -0.505475 0.434077 -0.783905 0.116655 0.609824 
-0.654783 0.476472 0.586714 -0.259603 0.796761 0.545691 0.0274954 0.951443 0.306596 
0.796641 0.453916 -0.399152 0.775021 0.582637 -0.244696 -0.653427 0.466409 0.596235 
-0.244489 0.811044 0.531444 0.115952 -0.842014 -0.526847 0.645464 -0.431498 -0.630227 
-0.737596 -0.282254 0.61342 0.783701 0.43663 -0.441776 -0.786209 0.00655847 0.617926 