# vtk DataFile Version 4.2
vtk output
ASCII
DATASET POLYDATA
POINTS 582 float
396.399 248.985 153.644 402.816 254.854 153.919 399.306 256.317 153.479 
385.221 247.783 154.361 403.359 250.946 154.889 402.877 252.144 154.32 
405.138 253.056 154.893 388.906 256.521 154.151 401.226 258.961 154.347 
389.166 243.701 154.63 383.474 244.989 155.803 402.685 248.909 155.683 
406.23 250.702 156.55 407.352 251.767 156.601 385.069 252.404 154.398 
407.164 253.331 155.838 382.565 253.98 155.823 386.073 255.722 154.709 
383.785 256.959 156.036 391.855 260.016 155.013 400.016 261.454 155.422 
389.713 234.335 156.722 388.42 235.515 156.445 393.126 234.982 156.563 
386.604 236.05 156.726 387.372 237.95 156.014 390.912 237.68 155.861 
385.404 239.056 156.367 382.62 244.567 156.799 381.698 247.151 156.934 
382.18 255.382 156.459 409.372 254.256 157.329 395.037 263.288 156.827 
400.293 263.197 156.746 390.117 233.009 157.855 388.537 233.578 157.525 
389.121 233.347 157.594 394.437 233.296 157.759 386.826 234.547 157.593 
386.628 234.819 157.49 389.15 233.823 157.098 395.752 233.401 158.182 
398.111 234.499 158.147 398.35 234.584 158.188 398.48 234.636 158.206 
398.503 234.889 158.17 398.536 234.731 158.237 385.492 236.449 157.527 
385.295 236.788 157.395 385.075 237.145 157.408 385.641 236.854 156.934 
384.749 237.973 157.342 384.311 239.654 157.182 383.745 241.716 156.981 
382.679 244.136 156.945 382.656 243.891 157.181 399.681 242.68 157.12 
382.149 245.255 157.332 381.624 246.506 157.532 381.18 248.134 157.586 
380.536 249.874 158.083 407.521 251.296 157.204 380.515 251.345 157.447 
380.697 252.098 157.153 380.711 252.944 157.212 380.743 253.65 157.324 
381.243 256.223 157.736 406.799 262.109 157.228 389.527 233.132 157.778 
389.161 233.234 157.855 390.083 232.987 158.148 390.662 232.89 158.138 
393.383 232.765 158.045 393.419 232.714 158.231 387.365 234.03 157.75 
387.54 233.946 157.842 395.042 233.079 158.53 396.754 233.686 158.396 
397.158 233.875 158.566 386.344 235.133 157.784 386.625 234.868 157.932 
398.189 234.497 158.306 398.466 234.649 158.263 398.638 234.92 158.411 
398.661 235.432 158.142 399.2 235.459 158.612 399.307 235.598 158.698 
384.888 237.517 157.533 384.925 237.526 157.838 398.848 237.32 157.831 
400.008 239.997 158.635 383.018 242.817 157.52 382.787 243.271 157.704 
400.037 241.197 158.07 400.58 242.149 158.447 402.673 246.115 158.225 
380.703 249.093 158.473 380.055 251.688 158.411 408.038 251.149 158.695 
379.999 252.964 158.589 380.444 253.78 157.809 380.132 254.304 158.63 
410.413 255.083 158.447 381.363 257.68 158.599 382.947 259.114 158.025 
409.073 261.567 158.102 410.235 261.93 159.257 393.718 264.377 158.224 
397.908 264.428 157.888 399.712 264.365 157.891 389.71 233.163 158.341 
391.115 232.886 158.444 391.572 232.993 158.777 395.018 233.138 158.809 
388.03 234.048 158.377 389.332 233.687 158.782 396.048 233.394 158.631 
397.06 233.877 158.8 397.607 234.204 158.781 398.887 235.107 158.678 
399.325 235.723 158.837 385.34 237.332 158.406 383.509 241.758 158.237 
382.615 243.784 158.028 382.02 245.541 158.567 381.21 247.581 158.638 
403.689 247.038 158.753 380.068 251.181 158.723 379.898 252.458 159.024 
379.857 253.673 159.376 381.921 258.843 158.957 405.898 265.01 159.548 
409.553 264.379 160.395 392.595 233.17 159.162 394.935 233.272 159.051 
395.497 233.394 159.011 396.157 233.537 158.898 396.551 233.823 159.103 
398.181 234.62 158.898 399.013 235.567 159.126 383.823 241.258 158.569 
399.824 240.245 160.053 400.981 242.54 159.674 401.64 243.843 159.65 
381.508 247.565 159.873 380.96 248.573 159.507 379.936 251.98 159.381 
409.075 251.978 160.365 410.611 254.347 159.969 411.929 260.595 160.991 
411.757 262.546 161.285 393.325 265.5 160.075 407.491 265.617 160.963 
393.701 233.818 159.675 396.666 234.159 159.382 397.356 234.477 159.368 
397.6 235.346 159.838 398.112 235.748 159.808 400.392 242.016 160.418 
401.18 243.057 160.003 384.079 244.831 161.037 401.681 244.299 160.588 
402.303 245.225 160.688 381.828 247.764 160.557 381.265 248.926 160.504 
380.072 252.491 160.326 381.144 258.576 160.621 383.657 261.913 161.28 
386.559 263.958 161.625 412.48 263.223 162.828 410.857 264.487 161.643 
393.651 236.053 160.659 397.286 237.678 160.733 397.821 238.436 160.782 
390.05 241.989 162.127 400.14 242.29 160.885 387.294 243.288 161.937 
396.801 241.93 162.223 400.681 242.791 160.648 385.47 244.359 161.658 
380.865 250.776 161.071 411.619 256.482 161.993 412.349 259.356 162.233 
383.195 261.419 162.177 412.244 263.931 163.095 402.929 266.628 161.871 
406.969 266.711 162.725 398.493 242.243 161.854 399.223 242.218 161.499 
380.924 256.745 162.374 381.317 259.097 161.825 386.036 263.695 163.104 
392.167 266.172 162.946 395.601 266.757 163.508 381.862 259.766 162.413 
383.193 261.013 163.239 385.297 263.016 163.63 382.088 258.61 163.647 
382.962 260.47 163.479 385.243 262.803 164.067 384.087 256 165.333 
393.349 266.361 165.909 410.554 267.016 166.121 411.48 266.451 166.248 
386.312 257.537 166.916 388.41 264.401 166.128 405.282 267.779 167.459 
387.156 262.8 166.428 388.168 263.831 166.562 412.677 265.573 168.252 
411.803 266.908 168.383 412.552 259.232 168.059 390.58 264.022 168.157 
391.759 264.926 167.91 395.681 266.079 168.704 411.979 266.821 168.752 
405.006 252.857 169.968 390.925 262.574 169.249 413.133 262.746 169.144 
391.157 262.957 169.211 412.987 264.73 169.452 394.655 265.505 168.979 
412.115 266.648 169.67 411.498 267.167 169.521 390.928 261.363 169.624 
393.693 264.16 169.909 396.775 265.318 170.486 400.725 266.708 170.642 
401.672 267.059 170.3 410.671 267.236 170.019 411.955 266.753 170.055 
411.75 266.928 170.09 394.563 253.607 170.894 411.886 259.697 171.474 
412.595 261.689 171.243 412.712 264.891 170.777 411.966 266.305 170.927 
411.528 266.973 170.272 395.514 261.051 172.125 412.439 261.84 171.793 
396.738 262.24 172.401 397.642 263.523 172.279 411.711 266.245 171.403 
410.76 266.703 171.358 409.095 256.891 172.682 410.323 258.02 172.637 
397.615 258.428 173.1 398.803 260.58 173.529 399.512 262.63 173.376 
412.425 263.874 171.929 402.774 265.422 172.987 409.724 266.54 172.042 
400.145 255.744 173.025 400.069 257.054 173.475 406.21 256.535 173.459 
408.313 257.377 173.464 400.579 258.517 173.887 410.378 258.928 173.379 
403.87 258.722 174.471 404.431 259.709 174.692 411.744 261.233 172.892 
411.597 263.725 173.094 404.185 264.768 173.712 408.411 265.273 173.572 
410.213 265.601 172.977 411.213 265.434 172.626 407.27 257.794 174.001 
406.172 258.364 174.387 407.645 259.081 174.466 409.205 259.314 174.215 
410.721 260.088 173.738 406.897 262.252 174.904 408.66 263.066 174.654 
409.58 264.647 173.758 410.078 260.385 174.23 409.709 262.843 174.42 
407.964 260.329 281.545 410.374 260.292 282.211 409.917 261.831 281.883 
407.466 258.185 282.121 406.163 259.108 281.759 403.734 262.147 281.932 
407.866 262.748 281.746 404.469 264.26 282.413 410.388 263.544 282.459 
407.844 264.622 282.427 411.034 264.124 282.982 407.666 257.103 282.855 
403.962 257.424 282.496 402.47 259.02 282.213 411.478 260.441 283.301 
411.902 261.424 283.612 411.961 264.5 283.946 411.96 265.219 284.418 
405.749 255.67 283.578 398.745 257.543 283.187 412.641 263.281 284.534 
402.528 265.797 284.166 406.801 266.018 283.508 409.804 266.318 284.214 
411.538 265.82 284.56 411.766 265.97 285.063 398.522 254.749 284.216 
409.03 256.076 284.363 409.791 256.765 284.171 395.866 259.011 284.037 
411.945 259.756 284.587 396.299 262.939 284.678 396.572 263.382 284.796 
412.814 263.919 285.189 412.61 264.977 285.432 407.721 266.969 285.03 
410.866 266.285 284.695 412.135 265.865 285.573 396.389 251.755 286.233 
402.308 253.204 285.352 393.585 254.817 285.569 411.096 257.538 285.277 
394.612 263.464 285.819 397.216 264.74 285.592 397.746 265.23 285.86 
393.929 251.977 286.547 391.579 255.391 286.435 412.866 260.968 286.415 
413.055 264.181 286.531 412.698 265.326 286.696 407.399 267.388 286.456 
411.668 266.798 286.729 413.221 263.011 287.034 402.073 267.216 287.546 
411.645 266.829 286.944 403.588 251.488 287.873 389.945 260.285 287.278 
387.916 262.92 289.732 389.055 263.349 289.194 389.752 264.015 289.28 
412.237 266.117 288.082 405.138 267.566 288.025 409.36 267.367 287.699 
390.407 249.763 289.354 388.281 261.325 288.681 387.508 263.231 290.386 
389.346 264.582 290.341 391.84 265.516 290.02 397.664 266.777 289.756 
403.102 267.48 289.269 411.991 266.181 289.154 413.077 260.356 289.907 
385.709 261.381 290.83 413.28 262.532 289.396 413.104 263.942 289.589 
409.511 267.131 289.901 397.282 246.729 290.96 411.434 255.818 290.434 
412.504 258.153 291.257 384.113 260.84 292.056 389.549 265.249 292.195 
410.702 266.659 290.546 384.341 261.937 292.858 385.285 262.99 293.144 
406.564 267.171 291.537 411.14 266.296 291.113 384.719 248.543 293.109 
402.804 247.509 293.013 404.888 248.876 293.323 380.854 256.736 294.342 
381.164 258.145 294.451 412.888 261.344 292.621 412.076 265.082 292.223 
398.793 242.708 294.394 382.643 248.648 294.514 403.31 247.276 293.999 
405.589 248.988 294.42 380.603 252.53 294.903 380.458 254.779 294.886 
410.431 265.819 293.132 406.084 266.76 293.034 400.466 242.808 295.379 
381.966 248.428 295.333 405.814 248.969 295.132 380.826 250.835 295.348 
385.943 263.703 295.224 388.069 264.827 294.814 411.25 264.824 294.049 
391.894 265.767 294.659 398.564 234.829 297.411 395.377 236.718 295.998 
398.816 237.597 296.467 387.945 239.062 296.034 386.756 240.687 295.838 
398.931 240.398 295.584 399.566 240.968 295.724 400.847 243.119 295.572 
401.147 243.074 296.186 383.477 244.139 296.302 381.829 247.425 296.233 
404.586 247.682 296.142 406.266 249.289 295.479 380.63 250.038 296.586 
380.071 252.311 295.972 380.029 252 296.26 380.023 254.285 295.969 
380.593 257.154 296.229 381.259 258.775 295.836 411.701 264.139 294.245 
[...]
POINT_DATA 582
SCALARS scalars float
LOOKUP_TABLE default
1 1 1 1 1 1 1 1 1 
1 1 1 1 1 1 1 1 1 
1 1 1 1 1 1 1 1 1 
1 1 1 1 1 1 1 1 1 
1 1 1 1 1 1 1 1 1 
1 1 1 1 1 1 1 1 1 
1 1 1 1 1 1 1 1 1 
1 1 1 1 1 1 1 1 1 
1 1 1 1 1 1 1 1 1 
1 1 1 1 1 1 1 1 1 
1 1 1 1 1 1 1 1 1 
1 1 1 1 1 1 1 1 1 
1 1 1 1 1 1 1 1 1 
1 1 1 1 1 1 1 1 1 
1 1 1 1 1 1 1 1 1 
1 1 1 1 1 1 1 1 1 
1 1 1 1 1 1 1 1 1 
1 1 1 1 1 1 1 1 1 
1 1 1 1 1 1 1 1 1 
1 1 1 1 1 1 1 1 1 
1 1 1 1 1 1 1 1 1 
1 1 1 1 1 1 1 1 1 
1 1 1 1 1 1 1 1 1 
1 1 1 1 1 1 1 1 1 
1 1 1 1 1 1 1 1 1 
1 1 1 1 1 1 1 1 1 
1 1 1 1 1 1 1 1 1 
1 1 1 1 1 1 1 1 1 
1 1 1 1 1 1 1 1 1 
1 1 1 1 1 1 1 1 1 
1 1 1 1 1 1 1 1 1 
1 1 1 1 1 1 1 1 1 
1 1 1 1 1 1 1 1 1 
1 1 1 1 1 1 1 1 1 
1 1 1 1 1 1 1 1 1 
1 1 1 1 1 1 1 1 1 
1 1 1 1 1 1 1 1 1 
1 1 1 1 1 1 1 1 1 
1 1 1 1 1 1 1 1 1 
1 1 1 1 1 1 1 1 1 
1 1 1 1 1 1 1 1 1 
1 1 1 1 1 1 1 1 1 
1 1 1 1 1 1 1 1 1 
1 1 1 1 1 1 1 1 1 
1 1 1 1 1 1 1 1 1 
1 1 1 1 1 1 1 1 1 
1 1 1 1 1 1 1 1 1 
1 1 1 1 1 1 1 1 1 
1 1 1 1 1 1 1 1 1 
1 1 1 1 1 1 1 1 1 
1 1 1 1 1 1 1 1 1 
1 1 1 1 1 1 1 1 1 
1 1 1 1 1 1 1 1 1 
1 1 1 1 1 1 1 1 1 
1 1 1 1 1 1 1 1 1 
1 1 1 1 1 1 1 1 1 
1 1 1 1 1 1 1 1 1 
1 1 1 1 1 1 1 1 1 
1 1 1 1 1 1 1 1 1 
1 1 1 1 1 1 1 1 1 
1 1 1 1 1 1 1 1 1 
1 1 1 1 1 1 1 1 1 
1 1 1 1 1 1 1 1 1 
1 1 1 1 1 1 1 1 1 
1 1 1 1 1 1 
NORMALS Normals float
0.07628 -0.118786 -0.989985 0.339924 0.0142995 -0.940344 0.0215562 0.123342 -0.99213 
-0.259549 -0.112797 -0.95912 0.382945 -0.310558 -0.870004 0.277368 -0.249065 -0.927919 
0.410319 -0.179096 -0.894183 -0.267398 0.384207 -0.883676 0.18252 0.319573 -0.929817 
-0.034007 -0.206556 -0.977844 -0.580684 -0.24977 -0.774869 0.521273 -0.483739 -0.703044 
0.511664 -0.58432 -0.629896 0.635371 -0.358971 -0.683699 -0.414632 0.0302593 -0.909486 
0.632582 -0.101535 -0.767809 -0.51489 0.135607 -0.846463 -0.247398 0.274723 -0.929151 
-0.442971 0.434381 -0.784277 -0.119409 0.420279 -0.899504 0.0374037 0.443714 -0.895388 
0.0253551 -0.536135 -0.843751 -0.170387 -0.287941 -0.942368 0.149723 -0.367833 -0.917759 
-0.385654 -0.424196 -0.819346 -0.179654 -0.126351 -0.975582 -0.0260686 -0.121477 -0.992252 
-0.418602 -0.182524 -0.889639 -0.816608 -0.216876 -0.534898 -0.825423 -0.20626 -0.525485 
-0.597007 0.263946 -0.757572 0.695054 -0.164877 -0.699797 0.0232316 0.688232 -0.725118 
0.0313022 0.77875 -0.626552 -0.123736 -0.922379 -0.365932 -0.332262 -0.6797 -0.653918 
-0.0845922 -0.781495 -0.618151 0.252006 -0.69692 -0.671414 -0.614604 -0.686652 -0.388292 
-0.699962 -0.570932 -0.429056 -0.146684 -0.598779 -0.787368 0.293826 -0.752244 -0.589742 
0.366992 -0.743383 -0.559194 0.413251 -0.887132 -0.205475 0.563602 -0.551747 -0.614759 
0.631318 -0.159987 -0.758842 0.897036 -0.391857 -0.204389 -0.84724 -0.491736 0.200947 
-0.824781 -0.548394 -0.137843 -0.760656 -0.398465 -0.512473 -0.51562 -0.298377 -0.803185 
-0.905442 -0.301168 -0.29912 -0.807855 -0.278455 -0.519455 -0.798301 -0.291722 -0.526891 
-0.665678 -0.426932 -0.612047 -0.84406 -0.374778 -0.383542 0.442846 -0.394794 -0.805 
-0.900133 -0.286542 -0.328107 -0.939309 -0.298174 -0.169676 -0.939428 -0.286554 -0.188047 
-0.886674 -0.354217 -0.297221 0.767726 -0.476666 -0.428236 -0.757381 -0.198845 -0.62196 
-0.699149 0.00473527 -0.71496 -0.818207 0.0486214 -0.572864 -0.797555 0.147551 -0.584923 
-0.738346 0.310638 -0.598623 0.308688 0.490222 -0.815104 -0.143439 -0.851011 -0.505178 
-0.355917 -0.933949 0.0325943 -0.218978 -0.965368 0.141823 -0.198168 -0.961229 0.191753 
0.0661931 -0.836944 -0.543271 0.11106 -0.993607 0.02027 -0.576951 -0.812202 0.0863519 
-0.452391 -0.797827 0.398515 0.289141 -0.955223 0.0628183 0.438668 -0.865918 -0.240326 
0.299025 0.201775 -0.932669 -0.803111 -0.570324 0.172464 -0.638361 -0.506742 0.579404 
0.520667 -0.850681 0.0724375 0.58672 -0.750468 0.304234 0.819739 -0.541499 -0.186565 
0.564221 -0.243764 -0.788818 0.758725 -0.446298 -0.474504 0.920473 -0.388793 -0.0396285 
-0.905542 -0.416629 0.08009 -0.904864 -0.370734 0.209229 0.519982 -0.172539 -0.83657 
0.798155 -0.316651 -0.512524 -0.899155 -0.416953 -0.132929 -0.913466 -0.343603 -0.217981 
0.805143 -0.321046 -0.498673 0.852907 -0.404725 -0.329769 0.816946 -0.514271 -0.261006 
-0.943727 -0.282649 -0.171722 -0.951547 -0.0434897 -0.304413 0.689274 -0.672394 -0.269791 
-0.917386 0.0165953 -0.397651 -0.865135 0.1782 -0.468814 -0.879672 0.239916 -0.410631 
0.858493 -0.257065 -0.443743 -0.774125 0.418496 -0.474965 -0.487926 0.665972 -0.564278 
0.504778 0.175071 -0.845311 0.505808 0.452171 -0.734643 -0.28403 0.71864 -0.634731 
0.0123957 0.756351 -0.654048 0.0140878 0.732987 -0.680097 -0.274676 -0.84391 0.460834 
-0.259334 -0.829826 0.494099 -0.214587 -0.682564 0.698612 0.129874 -0.886236 0.444655 
-0.474098 -0.519681 0.710748 -0.336094 -0.654636 0.677121 0.382309 -0.905641 0.18345 
0.391926 -0.818892 0.419296 0.547817 -0.834251 0.0626269 0.662018 -0.7056 0.252705 
0.865929 -0.336295 0.370232 -0.707475 -0.42869 0.561875 -0.955388 -0.220785 0.196184 
-0.914826 -0.38919 0.107817 -0.897486 -0.386024 0.213319 -0.978556 -0.202341 0.0385511 
0.666811 -0.674674 -0.316508 -0.964142 -0.24788 -0.0947936 -0.988451 -0.0444815 -0.144864 
-0.987066 0.145979 -0.0662721 -0.620058 0.72356 -0.303298 0.19573 0.773734 -0.602517 
0.425435 0.630696 -0.649021 -0.0987698 -0.643142 0.75935 0.0762005 -0.780875 0.620023 
0.249757 -0.775389 0.579994 0.273687 -0.827207 0.490738 0.33317 -0.857183 0.392727 
0.543928 -0.699565 0.463413 0.586405 -0.427772 0.687852 -0.825307 -0.252255 0.505209 
0.822402 -0.298241 0.484466 0.916971 -0.389232 0.0875394 0.870818 -0.470277 0.14323 
-0.896678 -0.213675 0.3877 -0.935821 -0.298159 0.187988 -0.981656 -0.166834 0.0922902 
0.798489 -0.599346 -0.0565622 0.878933 -0.449341 -0.159902 0.859673 0.00948388 -0.510757 
0.787653 0.304799 -0.535444 -0.0948194 0.89298 -0.439996 0.121878 0.803186 -0.583128 
0.0339598 -0.614103 0.788495 0.225574 -0.579613 0.783049 0.307852 -0.606003 0.733477 
0.149073 -0.429117 0.890863 0.462398 -0.46199 0.756804 0.69865 -0.445983 0.559452 
0.901673 -0.398366 0.168198 -0.634635 -0.508008 0.58238 0.637254 -0.340423 0.69139 
0.709041 -0.658807 0.251465 -0.696403 -0.173312 0.696409 -0.915239 -0.258802 0.308803 
-0.948486 -0.118485 0.293828 -0.769849 0.616046 -0.166796 -0.642793 0.73914 -0.20122 
-0.449586 0.861589 -0.235661 0.990862 0.100189 -0.0902988 0.555826 0.660886 -0.504268 
-0.00904497 -0.308423 0.951206 0.193912 -0.297067 0.93496 0.279101 -0.277984 0.919145 
-0.244651 -0.317114 0.916288 0.609593 -0.216911 0.76246 -0.383604 -0.558116 0.735768 
0.245738 -0.496644 0.832441 0.772135 -0.434371 0.46382 -0.186168 0.038983 0.981744 
-0.630504 -0.311264 0.711041 0.951515 -0.307126 0.0171245 0.996484 -0.059475 -0.0590188 
-0.775343 0.630586 0.0347104 0.736669 0.549729 -0.393849 0.0130257 0.928969 -0.369929 
0.195496 0.891385 -0.408919 0.378504 0.0567553 0.923858 0.497395 -0.305379 0.811999 
-0.866162 0.0292356 0.498908 -0.914431 0.364312 0.176331 -0.588181 0.770868 0.244551 
-0.287157 0.957877 -0.00367226 -0.102708 0.991395 -0.0811573 -0.797503 0.567415 0.205011 
-0.762282 0.55912 0.326053 -0.650775 0.751207 0.110362 -0.742954 0.241261 0.62435 
-0.700959 0.405637 0.586613 -0.635764 0.691058 0.343865 -0.560024 -0.0702017 0.825496 
-0.349615 0.914783 0.202341 0.343146 0.90267 -0.259687 0.611649 0.740267 -0.279086 
-0.531486 -0.0710484 0.844082 -0.424381 0.851882 0.306916 -0.00949973 0.999953 0.00210135 
-0.604169 0.470962 0.642786 -0.59924 0.583966 0.547628 0.917895 0.368528 -0.147158 
0.482503 0.856936 -0.181249 0.922823 -0.373026 0.0961724 -0.563544 0.57103 0.596945 
-0.422602 0.737581 0.52667 -0.248401 0.84962 0.465234 0.781089 0.619728 -0.0764009 
0.478603 -0.73018 0.487622 -0.61328 0.29179 0.733993 0.99652 -0.0609384 0.0568801 
-0.408346 0.436849 0.801509 0.952292 0.28318 0.113793 -0.306267 0.777519 0.549239 
0.79304 0.603664 0.0817178 0.423251 0.905962 0.00957162 -0.543532 0.226179 0.808341 
-0.364475 0.541646 0.757481 -0.370044 0.623259 0.688924 -0.231821 0.886172 0.401195 
-0.0811498 0.954007 0.288591 0.139154 0.960777 0.239881 0.734558 0.627539 0.258108 
0.558182 0.778933 0.285828 -0.266639 -0.42282 0.866098 0.875161 -0.36711 0.315156 
0.941942 -0.199138 0.270351 0.8484 0.321259 0.420726 0.764421 0.558612 0.32189 
0.412467 0.818978 0.398931 -0.478347 0.206379 0.853576 0.910877 -0.138378 0.388786 
-0.424912 0.243178 0.87196 -0.42174 0.419426 0.803877 0.522903 0.686208 0.505659 
0.282698 0.826166 0.487372 0.327169 -0.772914 0.543659 0.659928 -0.597417 0.455618 
-0.342675 -0.100019 0.934115 -0.249471 0.0903253 0.964161 -0.215807 0.244853 0.945238 
0.920675 0.0565402 0.386214 -0.178296 0.624521 0.760384 0.073781 0.832403 0.549237 
-0.0840008 -0.411577 0.907496 -0.184779 -0.22155 0.957482 0.091768 -0.553971 0.827463 
0.269102 -0.573247 0.773933 -0.10918 -0.25685 0.960264 0.562706 -0.478239 0.674277 
-0.0959359 -0.228394 0.96883 0.0783298 -0.101014 0.991797 0.807267 -0.151052 0.570529 
0.637028 0.213071 0.740808 -0.0752046 0.572105 0.816725 0.0526368 0.601738 0.796958 
0.312738 0.509477 0.801641 0.503131 0.557091 0.660688 0.238839 -0.48716 0.840019 
0.154551 -0.159328 0.975053 0.160429 -0.241502 0.957047 0.31525 -0.323054 0.892331 
0.685435 -0.324508 0.651823 -0.0512236 0.203523 0.977729 0.164979 0.0917954 0.982016 
0.111765 0.482987 0.868465 0.425201 -0.0870133 0.900907 0.35104 0.137911 0.926149 
0.0829521 -0.0210905 -0.99633 0.516649 -0.191871 -0.834422 0.308876 0.0971021 -0.946133 
0.116777 -0.424881 -0.897686 -0.00734953 -0.343353 -0.939178 -0.150613 0.0858791 -0.984856 
0.0636608 0.315414 -0.946817 -0.233178 0.447162 -0.863524 0.312913 0.266134 -0.911733 
0.0554346 0.450616 -0.890995 0.408549 0.413999 -0.813445 0.183389 -0.562914 -0.805913 
-0.0549763 -0.358773 -0.931805 -0.11094 -0.131724 -0.985059 0.755814 -0.310862 -0.57629 
0.910482 -0.154527 -0.383595 0.725691 0.32054 -0.608791 0.696999 0.480629 -0.532155 
0.142056 -0.592243 -0.793138 -0.243806 -0.176379 -0.95365 0.835638 0.00516091 -0.549256 
-0.134005 0.858071 -0.495739 -0.0373572 0.760702 -0.648026 0.206888 0.738681 -0.64152 
0.523412 0.600436 -0.60458 0.609187 0.697671 -0.377023 -0.16216 -0.493114 -0.854718 
0.466131 -0.761552 -0.450288 0.549112 -0.568848 -0.61228 -0.368852 0.0276134 -0.929078 
0.856215 -0.369664 -0.360894 -0.454371 0.385914 -0.802881 -0.375283 0.559769 -0.738797 
0.973547 0.00554436 -0.22842 0.848089 0.399114 -0.348501 0.0437416 0.936374 -0.348267 
0.252828 0.906988 -0.336824 0.690932 0.674766 -0.259428 -0.0520863 -0.562265 -0.825315 
0.0497932 -0.718653 -0.693584 -0.354693 -0.24103 -0.903381 0.812753 -0.51861 -0.265474 
-0.415528 0.58542 -0.696146 -0.414083 0.62919 -0.657765 -0.286837 0.743675 -0.603881 
-0.22768 -0.528938 -0.817549 -0.558897 -0.15892 -0.813867 0.961011 -0.197614 -0.193407 
0.987332 0.105619 -0.118406 0.907903 0.418878 0.0159031 -0.0710965 0.976589 -0.203026 
0.552037 0.81096 -0.193905 0.994383 0.0609373 -0.0865373 -0.0851708 0.949309 -0.302588 
0.446697 0.894004 -0.0348941 0.226419 -0.763983 -0.604206 -0.55358 0.0966616 -0.827167 
-0.587473 0.483404 -0.648996 -0.450686 0.513002 -0.730555 -0.402627 0.561044 -0.723271 
0.735518 0.670172 0.0994188 -0.0647726 0.99752 -0.027524 0.172992 0.981647 -0.0802663 
-0.318123 -0.410429 -0.854603 -0.537449 0.296781 -0.789347 -0.63423 0.519306 -0.572777 
-0.494205 0.774389 -0.395073 -0.300086 0.881457 -0.364667 -0.149881 0.988593 -0.0148458 
-0.015679 0.998248 -0.0570468 0.762864 0.624161 0.168704 0.97578 -0.217368 0.0245813 
-0.63848 0.383435 -0.667323 0.994984 -0.0270399 0.0963109 0.968576 0.190759 0.1596 
0.13153 0.968503 0.211427 0.0691245 -0.688441 -0.721991 0.767784 -0.635836 0.0788684 
0.901291 -0.384872 0.198866 -0.67464 0.209651 -0.707748 -0.344224 0.936812 -0.0623928 
0.487207 0.86755 0.0999304 -0.734877 0.566408 -0.373012 -0.616235 0.716899 -0.326052 
0.0121277 0.979173 0.202664 0.377812 0.89006 0.255051 -0.452636 -0.349145 -0.820499 
0.565021 -0.616788 -0.548019 0.626997 -0.690307 -0.361041 -0.869624 0.174798 -0.461735 
-0.872557 0.358525 -0.33182 0.9508 -0.084303 0.298115 0.796269 0.565612 0.214566 
0.432945 -0.425892 -0.794465 -0.671984 -0.354179 -0.650381 0.807856 -0.501212 -0.31009 
0.710806 -0.613898 -0.343343 -0.712253 -0.150977 -0.685494 -0.907646 0.0682754 -0.414146 
0.360235 0.848573 0.387498 0.0455181 0.948199 0.3144 0.637373 -0.405151 -0.655445 
-0.740179 -0.309869 -0.596755 0.606411 -0.787747 -0.108258 -0.84927 -0.35105 -0.394339 
-0.598881 0.789019 0.13708 -0.32303 0.932301 0.162684 0.562154 0.654584 0.505472 
-0.134968 0.980782 0.140891 0.311807 -0.523135 -0.793163 -0.0201289 -0.407162 -0.913134 
0.374273 -0.235379 -0.896949 -0.297314 -0.300557 -0.906239 -0.454412 -0.380141 -0.805607 
0.497335 -0.339293 -0.79846 0.661479 -0.398369 -0.635411 0.711964 -0.46274 -0.528184 
0.840725 -0.442653 -0.311833 -0.746616 -0.341478 -0.570927 -0.805278 -0.424137 -0.414289 
0.746051 -0.637101 -0.193674 0.746147 -0.632024 -0.209308 -0.867755 -0.321418 -0.379066 
-0.961204 -0.0697645 -0.266872 -0.91154 -0.257656 -0.320481 -0.974862 0.0435971 -0.218505 
-0.92822 0.351773 0.121093 -0.765263 0.634963 0.105802 0.737982 0.433936 0.516799 
0.488821 0.675529 0.552009 -0.1436 -0.581352 -0.80088 0.0169812 -0.600619 -0.799355 
0.193281 -0.590247 -0.783741 0.214237 -0.799948 -0.560523 0.196621 -0.693734 -0.692873 
0.236831 -0.805662 -0.542973 0.365228 -0.837706 -0.406026 0.592759 -0.608676 -0.5274 
0.672035 -0.35421 -0.65031 0.908709 -0.413719 -0.0555415 0.968292 -0.201841 0.147212 
0.666179 -0.172974 -0.725455 0.800339 -0.158118 -0.578322 -0.466206 -0.317852 -0.825604 
0.619377 -0.193435 -0.760891 0.635197 -0.229794 -0.737374 0.939827 -0.195223 -0.28038 
0.755498 -0.285419 -0.589711 -0.733673 -0.380692 -0.562848 -0.82713 -0.414141 -0.379926 
0.925501 -0.316442 -0.208116 -0.797536 -0.295006 -0.52622 0.886231 -0.459179 -0.0612321 
-0.862357 -0.382527 -0.331683 -0.978117 -0.184907 -0.0953757 -0.974168 0.222735 -0.0372206 
-0.957159 0.241362 0.159972 -0.850981 0.436379 0.292241 0.755458 0.345801 0.556511 
0.596509 0.467779 0.652196 -0.381741 0.799938 0.463004 0.520801 0.64233 0.562297 
0.487744 0.630507 0.603794 -0.193931 0.850036 0.489724 0.224104 0.838472 0.496731 
-0.176656 0.909498 0.376305 -0.280869 -0.783556 -0.554214 -0.282493 -0.626049 -0.726815 
-0.110394 -0.972173 -0.206624 -0.0355367 -0.996081 -0.0809977 0.123701 -0.871936 -0.473737 
-0.443032 -0.766133 -0.465577 0.25258 -0.938827 -0.23411 0.288454 -0.936997 -0.197055 
-0.413571 -0.541088 -0.732245 0.405736 -0.875396 -0.262794 0.88538 -0.392686 0.248797 
0.85108 -0.52092 -0.0656084 -0.605256 -0.393626 -0.691899 0.954756 -0.220817 0.1992 
-0.893911 -0.329413 -0.30399 -0.932545 -0.271677 -0.237807 0.78749 -0.529897 0.314753 
0.773952 -0.483829 0.408542 0.792777 -0.601151 0.100607 0.704228 -0.694061 0.149474 
-0.956686 -0.290426 0.0201243 -0.99798 -0.0106801 0.062625 0.793863 -0.605628 0.0547402 
-0.952884 0.120824 0.278233 -0.883074 0.263621 0.388181 -0.874355 0.339678 0.346585 
0.883088 -0.0101262 0.469098 0.323708 0.651724 0.685908 -0.0772497 0.83022 0.552058 
0.0942351 0.858212 0.50457 0.085007 0.789835 0.6074 -0.374824 -0.890142 -0.259141 
-0.291792 -0.89971 0.324623 -0.485981 -0.867233 0.108301 -0.123873 -0.922994 0.364333 
0.146574 -0.983483 0.106193 0.0617903 -0.891013 0.449753 -0.546793 -0.827314 -0.128723 
-0.444622 -0.768585 0.459987 -0.632098 -0.77392 0.0387301 -0.485456 -0.794815 0.364145 
0.172948 -0.876038 0.450164 0.303965 -0.887043 0.347506 0.410516 -0.865114 0.288192 
-0.437921 -0.512668 0.73851 -0.735747 -0.666019 -0.122861 0.408894 -0.806054 0.427881 
0.425664 -0.896948 0.119562 0.854285 -0.511736 0.091227 0.500811 -0.803883 -0.320873 
0.595516 -0.702972 0.388833 0.793536 -0.281298 0.539603 0.590817 -0.111535 0.799059 
-0.832513 -0.514089 -0.206483 0.653284 -0.295863 0.696912 0.476955 -0.294358 0.828171 
0.508857 -0.576871 -0.638971 -0.881488 -0.429999 0.195142 0.816155 -0.317716 0.482646 
0.582479 -0.122807 0.803515 0.884039 -0.250015 0.394926 -0.952356 -0.304374 -0.0193628 
0.694423 -0.0782882 0.715295 -0.963814 -0.261289 0.0528331 0.83583 -0.261445 0.482737 
0.892215 -0.400544 0.208605 -0.926787 -0.317727 0.200286 0.625434 -0.396509 0.672021 
0.687075 -0.41969 0.593118 0.698342 -0.508051 0.504186 0.655991 -0.707281 0.263495 
0.76007 -0.624659 0.179151 -0.9718 -0.121966 0.201813 -0.874704 -0.0294764 0.483761 
-0.811602 0.378771 0.444786 -0.694205 0.541066 0.474687 0.491596 0.38472 0.781233 
-0.226039 0.743668 0.629177 0.163832 0.624956 0.763275 -0.149671 0.725174 0.672102 
-0.337912 -0.719779 0.606411 0.0431165 -0.613922 0.788189 -0.223828 -0.641447 0.73379 
0.131198 -0.694424 0.707504 -0.409559 -0.615255 0.67359 0.301844 -0.681859 0.666302 
0.327296 -0.490437 0.807681 0.367285 -0.567565 0.736866 0.441388 -0.707353 0.552113 
0.419447 -0.214487 0.882077 -0.647723 -0.443855 0.619231 -0.876572 -0.298636 0.377409 
0.449633 -0.187722 0.873264 -0.611102 -0.257472 0.748507 -0.95136 -0.244864 0.186963 
0.470578 -0.338413 0.814882 0.531228 -0.447699 0.719279 0.569324 -0.682754 0.457949 
0.604049 -0.635785 0.480523 0.85615 -0.311406 0.412351 -0.657988 0.243574 0.712547 
0.595368 0.160862 0.787186 0.287027 0.648189 0.705313 -0.0784524 0.737113 0.6712 
-0.122819 -0.276349 0.953177 0.0998235 -0.522756 0.846617 0.349019 -0.20615 0.91416 
0.108345 -0.223013 0.968776 -0.631841 -0.246761 0.73477 -0.37016 -0.252321 0.894045 
-0.741431 -0.23279 0.629356 -0.839709 -0.18616 0.51013 0.476629 -0.506074 0.718829 
0.729812 -0.445906 0.518211 0.730585 -0.450819 0.512843 0.666433 -0.0485213 0.743985 
0.779957 -0.0441753 0.624272 -0.235224 0.479269 0.845559 -0.478457 0.570478 0.667558 
-0.0855346 0.509569 0.856168 -0.0761081 0.51974 0.850928 0.322339 -0.40745 0.854449 
0.517304 -0.385453 0.764083 0.558275 -0.108641 0.822512 -0.449532 0.284966 0.84659 
0.370383 0.201644 0.906728 0.0423144 0.395801 0.917361 0.228361 0.520724 0.822617 
-0.114008 -0.119726 0.986239 0.193287 -0.31289 0.929914 -0.541845 -0.0437302 0.83934 
0.350288 -0.169045 0.921261 0.141291 0.191652 0.97124 -0.1998 0.0399917 0.97902 
0.0267245 0.120686 0.992331 -0.0441552 -0.291967 0.955409 0.326973 -0.926482 0.18633 
0.0745816 0.582936 0.809088 0.349039 -0.0475494 0.935901 0.474608 0.778885 0.409982 

