# vtk DataFile Version 4.2
vtk output
ASCII
DATASET POLYDATA
POINTS 581 float
381.904 246.545 170.252 381.492 246.56 170.324 383.86 246.771 170.203 
384.397 246.742 170.365 384.581 247.227 170.047 385.775 247.211 170.335 
382.408 247.607 169.914 382.685 247.347 169.891 386.658 247.539 170.409 
384.389 248.265 169.632 385.034 248.356 169.641 387.482 248.158 170.329 
388.027 248.833 170.186 388.348 248.84 170.375 385.119 248.815 169.57 
385.421 249.18 169.58 387.241 249.05 169.865 386.99 249.954 169.736 
380.193 246.212 171.125 380.904 246.015 170.885 381.426 245.82 170.978 
380.343 246.827 170.699 384.762 246.601 170.743 387.495 247.913 170.542 
387.184 247.618 170.711 384.158 248.588 169.637 383.058 248.98 169.918 
389.377 249.274 170.966 381.279 245.673 171.286 380.125 246.843 170.872 
380.06 247.168 170.91 387.961 247.974 170.984 390.042 249.58 171.367 
389.675 251.136 170.636 387.89 255.883 171.378 379.906 245.714 172.238 
381.439 245.49 172.038 379.524 246.291 171.828 379.297 246.435 172.197 
379.419 246.547 171.833 379.853 247.374 171.176 390.403 249.645 172.17 
383.309 252.757 171.332 380.446 245.513 172.246 379.181 246.461 172.553 
384.681 246.148 172.568 387.796 247.55 172.217 392.24 251.017 173.21 
393.48 252.108 173.481 393.573 253.176 172.717 393.186 253.795 172.205 
379.249 246.161 172.997 379.355 246.022 173.246 378.972 246.992 173.174 
385.839 246.587 173.399 380.695 253.226 173.934 382.491 254.601 173.183 
379.668 245.812 173.692 379.937 245.662 173.492 380.606 245.521 173.609 
381.076 245.517 173.669 387.221 259.576 174.573 397.019 262.91 175.006 
399.267 262.554 175.031 379.627 245.904 173.983 378.53 249.039 175.468 
378.728 249.824 174.782 379.564 252.947 175.396 397.854 254.767 176.074 
398.456 255.537 175.761 399.142 257.031 175.109 398.485 257.939 174.333 
400.811 257.722 175.842 401.704 257.735 176.466 400.031 258.521 174.981 
403.263 258.554 176.799 399.182 259.339 174.423 401.703 259.229 175.575 
400.698 259.965 174.988 399.685 260.714 174.63 402.176 260.545 175.487 
404.058 260.85 176.087 402.299 261.314 175.532 390.191 262.489 176.211 
379.693 246.293 175.171 379.207 247.012 175.634 378.876 247.405 175.187 
384.193 246.337 175.409 378.68 248.043 175.557 388.858 248.374 176.155 
378.428 250.049 176.468 378.807 251.647 175.972 396.104 253.162 176.343 
398.321 254.725 177.208 400.06 256.074 176.877 401.298 256.695 177.541 
404.136 259.55 176.543 405.389 259.58 177.168 407.12 262.745 176.998 
408.074 263.24 177.472 407.115 263.757 177.31 408.138 263.589 177.581 
379.541 246.579 175.55 380.241 246.215 175.709 380.577 246.05 175.527 
380.199 246.472 176.18 378.648 248.312 176.352 378.408 249.493 176.873 
378.503 251.097 176.698 401.168 256.361 178.459 408.78 261.08 178.249 
409.268 261.073 178.548 410.289 261.5 179.046 409.972 262.166 178.561 
410.869 262.159 179.213 408.153 262.728 177.493 409.641 263.294 178.312 
410.253 263.171 178.645 405.822 265.216 177.852 402.198 265.905 177.979 
382.688 246.489 176.78 384.808 247.182 177.563 378.401 250.783 178.016 
392.662 250.854 177.636 398.341 254.626 178.4 405.746 258.951 178.504 
407.928 260.128 178.598 409.62 260.808 179.07 410.485 261.523 179.243 
410.661 261.535 179.6 411.146 262.362 179.433 411.257 262.253 179.731 
389.993 263.814 178.887 411.63 263.426 179.781 411.768 263.391 180.041 
411.088 264.015 179.353 409.891 264.88 179.07 411.101 264.333 179.545 
379.634 247.61 177.777 381.426 246.687 177.207 379.025 248.466 178.176 
378.528 249.32 177.861 378.477 249.841 178.19 408.042 259.712 179.61 
398.005 266.596 179.282 378.614 250.109 178.968 378.602 251.954 179.583 
378.652 252.455 179.177 382.054 258.795 180.265 411.878 262.997 180.451 
412.029 263.53 180.953 411.855 264.526 180.996 409.815 266.252 180.421 
408.025 266.979 180.55 379.666 248.458 179.08 380.396 248.705 179.899 
384.759 248.434 180.292 379.051 253.788 180.523 379.337 254.625 180.079 
407.045 259.116 180.952 411.149 261.682 181.537 386.858 262.753 181.072 
412.051 263.231 181.391 379.054 250.772 180.512 379.608 250.55 181.192 
378.885 252.997 180.736 381.52 258.486 181.732 384.649 261.389 181.942 
411.283 266.014 181.778 411.969 265.333 182.535 405.796 267.985 181.761 
397.278 267.58 182.753 379.055 251.896 181.144 379.271 252.319 181.604 
379.258 253.051 181.589 379.409 253.867 181.759 379.56 254.558 181.882 
379.805 255.509 181.744 381.194 257.992 182.557 407.127 259.291 182.51 
410.682 261.322 182.756 411.945 262.968 182.559 387.738 263.366 183.051 
412.208 265.111 183.347 403.023 268.415 183.209 381.181 250.251 182.172 
380.659 250.823 182.33 389.652 251.278 182.825 380.006 252.375 182.485 
379.846 254.948 182.353 381.25 257.897 183.139 382.869 259.789 183.418 
412.109 263.667 183.692 387.553 263.16 183.787 412.18 265.803 184.344 
411.233 266.96 183.577 399.138 268.126 184.651 410.715 267.497 184.111 
411.723 266.757 184.494 401.9 268.507 184.875 382.305 251.008 183.145 
381.093 251.971 183.201 380.942 252.465 183.297 381.012 254.169 183.785 
380.535 255.252 183.366 381.32 255.517 184.218 380.791 256.547 183.503 
381.002 256.373 183.848 381.061 256.893 183.782 381.286 257.738 183.531 
412.286 265.551 184.855 395.425 267.051 184.614 411.401 267.287 184.949 
407.011 268.525 185.093 382.114 255.148 184.789 403.786 258.952 185.831 
382.307 258.911 183.992 383.609 259.776 184.708 411.048 262.589 185.596 
412.113 264.282 185.405 387.806 263.018 184.82 411.558 267.229 185.351 
411.787 266.969 185.663 404.955 268.568 185.971 382.371 256.369 185.031 
383.111 257.737 185.375 383.001 259.107 184.657 384.302 260.086 185.147 
384.714 260.654 185.057 408.595 261.192 186.408 411.79 263.941 186.321 
412.187 265.948 186.141 394.433 266.321 186.252 395.806 266.793 186.599 
411.9 266.783 186.27 397.916 267.506 186.815 403.763 268.394 186.748 
386.87 255.926 186.843 384.99 257.548 186.342 385.564 259.055 186.38 
391.921 264.747 186.656 411.216 267.449 186.776 393.767 257.054 187.729 
408.704 262.548 188.377 411.839 266.25 187.236 395.077 265.929 187.559 
411.492 267.025 187.315 411.486 266.793 187.63 398.477 267.395 187.545 
399.254 267.329 188.019 410.703 267.508 187.542 411.448 267.225 186.991 
404.15 267.868 188.187 406.155 268.118 187.916 408.587 268.023 187.7 
395.014 260 189.117 410.699 264.097 188.241 393.758 263.563 188.697 
411.371 264.752 187.914 411.554 266.438 187.704 397.924 266.789 188.137 
398.713 266.697 188.518 410.966 267.018 188.129 410.763 267.219 188.125 
397.981 260.215 189.428 400.495 259.935 188.892 399.381 260.412 189.401 
394.802 261.648 189.32 405.352 261.639 189.059 395.42 263.136 189.312 
398.181 263.177 189.969 409.591 264.599 189.389 411.114 264.768 188.237 
399.84 264.07 190.115 399.758 265.362 189.625 402.702 265.481 190.089 
410.059 265.73 189.34 398.545 266.075 188.923 404.852 265.613 190.202 
410.836 266.67 188.484 400.274 266.55 189.019 405.067 266.418 189.914 
410.233 267.048 188.733 405.413 267.194 189.407 406.661 267.608 188.914 
398.811 261.597 189.887 407.868 263.585 189.564 404.33 265.022 190.279 
406.389 265.555 190.204 406.257 266.062 190.121 410.12 266.465 189.146 
406.515 266.4 189.989 408.127 266.793 189.617 407.345 265.713 190.127 
409.129 265.709 189.783 407.425 266.196 190.029 400.929 262.677 266.37 
401.509 263.34 266.261 402.522 263.193 266.244 403.407 263.364 266.26 
403.535 263.896 266.199 403.919 264.232 266.22 404.971 263.969 266.314 
405.649 264.399 266.366 406.134 264.827 266.477 404.216 260.932 267.824 
397.424 260.928 267.13 405.459 262.593 266.928 408.041 262.715 267.723 
410.564 264.111 267.902 402.539 264.169 266.271 407.667 264.204 266.911 
411.162 264.462 268.122 399.189 264.526 266.777 404.083 264.758 266.335 
410.591 264.815 267.774 411.063 264.771 268.021 398.282 265.146 267.13 
400.878 265.22 266.77 409.714 265.287 267.448 406.49 265.859 266.869 
408.743 265.702 267.205 410.161 265.688 267.689 400.259 266.25 267.457 
403.908 266.585 267.22 407.149 266.344 267.21 406.012 266.863 267.503 
409.238 266.516 267.737 398.771 258.69 268.602 393.881 262.418 267.62 
410.971 263.939 268.186 411.405 264.665 268.284 396.233 264.553 267.463 
395.869 265.536 268.245 398.451 266.711 268.354 402.941 266.938 267.655 
411.119 266.344 268.53 411.449 266.139 268.731 401.815 267.338 268.29 
407.578 267.167 268.002 410.658 266.783 268.577 403.53 267.727 268.647 
409.061 267.313 268.576 392.271 255.557 269.836 400.201 258.668 269.093 
392.645 259.069 268.069 393.191 259.874 267.791 406.961 261.047 269.009 
391.39 261.575 268.318 409.224 262.393 268.598 411.92 264.446 269.059 
391.002 263.624 269.671 391.653 263.508 269.133 393.588 264.669 268.847 
412.015 264.733 269.194 392.704 264.886 269.697 411.855 265.448 268.959 
393.728 265.644 269.858 410.917 266.872 268.882 411.646 266.629 269.46 
400.831 267.895 269.531 407.086 267.857 269.023 407.971 267.764 269.035 
411.458 266.868 269.607 388.2 256.167 269.526 387.737 255.482 269.865 
386.632 256.094 269.859 396.246 256.576 270.029 387.126 257.495 269.486 
388.631 258.207 268.978 387.613 259.029 269.337 403.091 259.114 269.911 
389.19 259.734 268.836 388.217 260.535 269.427 410.706 262.65 269.574 
388.89 262.064 269.856 412.209 265.221 269.874 412.081 266.137 270.102 
404.143 268.253 269.785 410.064 267.579 269.706 411.241 267.112 269.954 
387.415 253.34 271.119 390.781 253.895 271.02 391.11 253.495 271.509 
383.957 257.322 270.677 385.329 257.045 270.094 382.415 257.082 271.621 
385.313 258.504 270.21 382.936 258.914 271.962 383.301 259.353 272.008 
393.015 265.81 271.035 396.078 267.204 271.198 401.384 268.323 270.721 
383.474 253.104 271.809 382.715 253.903 271.761 382.268 255.226 271.712 
381.946 257.46 272.278 401.65 258.075 271.073 382.15 258.498 272.8 
383.779 260.255 272.673 411.781 263.492 270.247 389.834 264.21 271.666 
412.333 264.843 271.038 393.545 266.206 271.539 411.977 266.419 271.273 
[...]
POINT_DATA 581
SCALARS scalars float
LOOKUP_TABLE default
1 1 1 1 1 1 1 1 1 
1 1 1 1 1 1 1 1 1 
1 1 1 1 1 1 1 1 1 
1 1 1 1 1 1 1 1 1 
1 1 1 1 1 1 1 1 1 
1 1 1 1 1 1 1 1 1 
1 1 1 1 1 1 1 1 1 
1 1 1 1 1 1 1 1 1 
1 1 1 1 1 1 1 1 1 
1 1 1 1 1 1 1 1 1 
1 1 1 1 1 1 1 1 1 
1 1 1 1 1 1 1 1 1 
1 1 1 1 1 1 1 1 1 
1 1 1 1 1 1 1 1 1 
1 1 1 1 1 1 1 1 1 
1 1 1 1 1 1 1 1 1 
1 1 1 1 1 1 1 1 1 
1 1 1 1 1 1 1 1 1 
1 1 1 1 1 1 1 1 1 
1 1 1 1 1 1 1 1 1 
1 1 1 1 1 1 1 1 1 
1 1 1 1 1 1 1 1 1 
1 1 1 1 1 1 1 1 1 
1 1 1 1 1 1 1 1 1 
1 1 1 1 1 1 1 1 1 
1 1 1 1 1 1 1 1 1 
1 1 1 1 1 1 1 1 1 
1 1 1 1 1 1 1 1 1 
1 1 1 1 1 1 1 1 1 
1 1 1 1 1 1 1 1 1 
1 1 1 1 1 1 1 1 1 
1 1 1 1 1 1 1 1 1 
1 1 1 1 1 1 1 1 1 
1 1 1 1 1 1 1 1 1 
1 1 1 1 1 1 1 1 1 
1 1 1 1 1 1 1 1 1 
1 1 1 1 1 1 1 1 1 
1 1 1 1 1 1 1 1 1 
1 1 1 1 1 1 1 1 1 
1 1 1 1 1 1 1 1 1 
1 1 1 1 1 1 1 1 1 
1 1 1 1 1 1 1 1 1 
1 1 1 1 1 1 1 1 1 
1 1 1 1 1 1 1 1 1 
1 1 1 1 1 1 1 1 1 
1 1 1 1 1 1 1 1 1 
1 1 1 1 1 1 1 1 1 
1 1 1 1 1 1 1 1 1 
1 1 1 1 1 1 1 1 1 
1 1 1 1 1 1 1 1 1 
1 1 1 1 1 1 1 1 1 
1 1 1 1 1 1 1 1 1 
1 1 1 1 1 1 1 1 1 
1 1 1 1 1 1 1 1 1 
1 1 1 1 1 1 1 1 1 
1 1 1 1 1 1 1 1 1 
1 1 1 1 1 1 1 1 1 
1 1 1 1 1 1 1 1 1 
1 1 1 1 1 1 1 1 1 
1 1 1 1 1 1 1 1 1 
1 1 1 1 1 1 1 1 1 
1 1 1 1 1 1 1 1 1 
1 1 1 1 1 1 1 1 1 
1 1 1 1 1 1 1 1 1 
1 1 1 1 1 
NORMALS Normals float
-0.104229 -0.492448 -0.864078 -0.277801 -0.197777 -0.940059 0.0931812 -0.6314 -0.769839 
0.251552 -0.725775 -0.64029 0.189864 -0.519351 -0.833202 0.270968 -0.677282 -0.684006 
-0.302512 0.0610268 -0.95119 -0.0815463 -0.186466 -0.979071 0.302761 -0.569782 -0.763992 
-0.05569 -0.211464 -0.975798 0.140339 -0.25817 -0.955852 0.39809 -0.544811 -0.738041 
0.471283 -0.327097 -0.819085 0.52319 -0.258037 -0.812213 0.0484201 -0.0817585 -0.995475 
0.0100517 0.13732 -0.990476 0.281035 -0.149992 -0.947904 -0.0098309 0.314265 -0.949284 
-0.686594 -0.44344 -0.57615 -0.288695 -0.689202 -0.664572 0.0941927 -0.869851 -0.484238 
-0.47091 -0.192061 -0.861021 0.261072 -0.849208 -0.459007 0.457718 -0.649709 -0.606936 
0.395377 -0.83813 -0.375787 -0.178431 0.221415 -0.958717 -0.274745 0.134608 -0.952048 
0.602367 -0.523957 -0.602182 -0.104987 -0.924435 -0.366603 -0.78007 -0.198425 -0.593395 
-0.650032 0.0886285 -0.754721 0.590259 -0.743393 -0.314581 0.655958 -0.609804 -0.444813 
0.45494 -0.138556 -0.879677 -0.0955803 0.443436 -0.891195 -0.495008 -0.820942 -0.284642 
0.06373 -0.966059 -0.250338 -0.736374 -0.440647 -0.513404 -0.860983 -0.418195 -0.289519 
-0.888935 -0.0796976 -0.451046 -0.734486 0.185708 -0.652719 0.554673 -0.831405 -0.0332096 
-0.326686 0.394868 -0.858694 0.00215499 -0.998289 -0.05844 -0.939127 -0.208984 -0.272703 
0.262542 -0.964712 -0.020051 0.522651 -0.851819 0.0352242 0.637078 -0.750696 -0.174893 
0.562269 -0.662412 -0.49504 0.547921 -0.505439 -0.666569 0.555536 -0.43865 -0.706375 
-0.892327 -0.449981 0.035635 -0.705776 -0.706274 0.055299 -0.965113 0.00217918 -0.261827 
0.42611 -0.90326 0.0505127 -0.757052 0.431217 -0.490841 -0.539883 0.546214 -0.640451 
-0.516351 -0.849039 0.111869 -0.3696 -0.924916 0.0890298 -0.156393 -0.967033 0.200967 
0.0854322 -0.98632 0.140975 -0.561825 0.675005 -0.478248 -0.000412472 0.523199 -0.85221 
0.126975 0.347741 -0.928953 -0.572087 -0.773109 0.273897 -0.983791 -0.0931934 -0.153199 
-0.928828 0.118871 -0.350924 -0.752281 0.589416 -0.294385 0.511581 -0.799295 -0.315296 
0.555875 -0.613723 -0.560666 0.479751 -0.429385 -0.765158 0.552959 -0.396714 -0.732703 
0.496859 -0.4901 -0.716193 0.595434 -0.599455 -0.534894 0.441417 -0.218134 -0.870384 
0.406641 -0.600959 -0.688107 0.293456 0.0111883 -0.955907 0.371919 -0.154227 -0.915363 
0.543171 0.0293308 -0.83911 0.363374 0.186987 -0.912686 0.116724 0.0146023 -0.993057 
0.330428 -0.16903 -0.928572 0.150419 0.216316 -0.964666 -0.248365 0.756957 -0.604426 
-0.654792 -0.72001 0.229854 -0.777342 -0.572147 0.261511 -0.865962 -0.480504 0.138659 
0.241317 -0.94349 0.227141 -0.962621 -0.270119 -0.0199339 0.55494 -0.82961 0.0615572 
-0.989943 0.0359275 -0.136829 -0.906103 0.283865 -0.313686 0.609829 -0.721289 -0.328407 
0.501435 -0.836503 -0.220968 0.567765 -0.727746 -0.384745 0.653442 -0.671021 -0.350349 
0.371727 -0.221763 -0.901466 0.477344 -0.498719 -0.723479 0.358805 -0.028932 -0.932964 
0.447174 0.16228 -0.879603 0.223523 0.295825 -0.928722 0.430654 0.314892 -0.845802 
-0.602364 -0.704232 0.375786 -0.381698 -0.849215 0.364884 -0.160151 -0.933984 0.319415 
-0.341635 -0.831785 0.437515 -0.936947 -0.334521 0.101128 -0.986757 -0.158419 0.034847 
-0.975604 0.203334 -0.0827814 0.557752 -0.818062 -0.14031 0.431627 -0.519028 -0.737772 
0.462467 -0.37753 -0.802244 0.546617 -0.626474 -0.555644 0.526607 -0.240765 -0.815302 
0.696667 -0.351033 -0.625644 0.45153 -0.131486 -0.882514 0.463973 0.0251143 -0.885493 
0.534949 0.115883 -0.8369 0.201148 0.720777 -0.66334 0.0344603 0.705759 -0.707613 
0.0332144 -0.926804 0.374075 0.276822 -0.894768 0.350371 -0.997645 0.00710073 0.0682187 
0.506636 -0.850714 0.140019 0.49992 -0.865992 0.0117618 0.385348 -0.879652 -0.278782 
0.429988 -0.550384 -0.715673 0.521741 -0.662011 -0.538078 0.628008 -0.570579 -0.529193 
0.638176 -0.736601 -0.223943 0.7693 -0.225347 -0.597826 0.824913 -0.497998 -0.267425 
-0.36712 0.842534 -0.394156 0.779101 0.0925305 -0.620032 0.90907 0.0185299 -0.416232 
0.570381 0.29219 -0.767653 0.426829 0.527424 -0.734603 0.650372 0.45093 -0.611292 
-0.476617 -0.757398 0.446301 -0.0746131 -0.871363 0.484932 -0.844055 -0.392659 0.365227 
-0.923123 -0.340827 0.177992 -0.974853 -0.160056 0.15506 0.477803 -0.852161 -0.213367 
-0.144789 0.925591 -0.349738 -0.9621 -0.153275 0.225544 -0.986485 0.0366749 0.159693 
-0.987139 0.157939 0.0247284 -0.785761 0.548269 -0.286325 0.932794 -0.279437 -0.227619 
0.993123 0.0492324 -0.106222 0.912601 0.293706 -0.284421 0.42088 0.74923 -0.511384 
0.193845 0.816195 -0.544288 -0.683253 -0.409724 0.604394 -0.501462 -0.623039 0.600299 
0.0532252 -0.822838 0.565777 -0.964629 0.238964 0.1113 -0.932832 0.359345 -0.0263866 
0.30085 -0.950191 -0.0814009 0.729991 -0.681805 -0.0474849 -0.66542 0.74018 -0.0966913 
0.955988 -0.293314 -0.00730599 -0.8283 -0.362363 0.427332 -0.684296 -0.453965 0.570662 
-0.978545 0.1024 0.178783 -0.715187 0.693315 0.088442 -0.612992 0.789738 0.0235621 
0.677861 0.636057 -0.368695 0.937408 0.286431 -0.198049 0.0836417 0.95005 -0.30068 
-0.268495 0.957764 -0.102954 -0.813202 -0.237159 0.531467 -0.844717 -0.0770639 0.529636 
-0.87628 0.0827144 0.474649 -0.898938 0.162405 0.40686 -0.883492 0.126488 0.451046 
-0.882516 0.470049 0.0147919 -0.881993 0.470125 -0.0327232 0.346247 -0.917197 0.197136 
0.633305 -0.754682 0.171406 0.924552 -0.375883 0.0625704 -0.425531 0.904514 0.0278811 
0.944061 0.276057 -0.18039 -0.0432754 0.990225 -0.132596 -0.269461 -0.654955 0.705992 
-0.545599 -0.467098 0.695803 0.315089 -0.808394 0.49721 -0.717843 -0.165496 0.676249 
-0.898521 0.166186 0.406254 -0.768421 0.574689 0.281534 -0.669497 0.715562 0.199361 
0.973066 -0.230124 0.0136324 -0.722638 0.665316 0.187478 0.923087 0.363433 -0.125805 
0.613984 0.732849 -0.293184 -0.155205 0.984885 0.0768948 0.374207 0.904693 -0.203716 
0.819746 0.545505 -0.174474 -0.157644 0.986176 0.0510324 -0.131833 -0.54584 0.827453 
-0.460755 -0.402025 0.791253 -0.410935 -0.277022 0.868557 -0.680667 -0.13009 0.72095 
-0.815863 0.0891127 0.571338 -0.641232 -0.0608141 0.764934 -0.864513 0.173247 0.471809 
-0.669804 0.110091 0.734331 -0.777719 0.291393 0.556995 -0.684462 0.621696 0.380796 
0.993992 -0.0282714 0.105739 -0.416044 0.907572 0.0567463 0.767147 0.603828 -0.216514 
0.148174 0.987688 0.0501651 -0.513873 -0.0923654 0.85288 0.261981 -0.907779 0.327572 
-0.706631 0.42621 0.564817 -0.588397 0.623714 0.514557 0.730227 -0.631096 0.261699 
0.940392 -0.293029 0.172618 -0.57287 0.696147 0.432664 0.435583 0.896481 -0.0811729 
0.865691 0.483276 -0.130474 0.0017727 0.995843 0.091073 -0.572063 0.0778048 0.816511 
-0.563188 0.188646 0.804507 -0.639209 0.496787 0.587038 -0.600358 0.484271 0.636437 
-0.572764 0.625705 0.52956 0.333249 -0.821753 0.462241 0.823998 -0.424812 0.374917 
0.987094 0.160114 -0.00294058 -0.367232 0.883324 0.291341 -0.355665 0.901468 0.246695 
0.857399 0.504114 0.103616 -0.296459 0.904828 0.305613 -0.0867618 0.977032 0.19463 
-0.288056 -0.192477 0.93807 -0.435674 0.0729659 0.897142 -0.401791 0.304607 0.863584 
-0.487771 0.771894 0.407749 0.522171 0.842968 0.129396 -0.0464482 -0.536036 0.842916 
0.449356 -0.707007 0.546096 0.918202 0.00347936 0.396097 -0.353508 0.644611 0.67787 
0.734923 0.589146 0.33585 0.779629 0.456294 0.428923 -0.220751 0.874747 0.431378 
-0.123842 0.76791 0.628472 0.292332 0.936009 0.196035 0.750455 0.621099 0.225951 
-0.14529 0.850369 0.50573 0.0572067 0.935576 0.348461 0.174547 0.952319 0.250245 
-0.121898 -0.186794 0.974807 0.615318 -0.47139 0.631803 -0.380495 0.347038 0.857198 
0.815283 -0.160889 0.556263 0.833961 0.154143 0.529857 -0.322898 0.738463 0.591954 
-0.157068 0.668091 0.727313 0.669781 0.454367 0.58732 0.541064 0.676026 0.500238 
0.0122236 -0.464136 0.885679 0.0897718 -0.58616 0.805206 0.0164054 -0.730078 0.683167 
-0.220046 -0.0703711 0.972948 0.300087 -0.741201 0.600474 -0.14118 0.149079 0.978695 
-0.198893 0.100715 0.974832 0.361655 -0.330118 0.87191 0.699534 -0.345558 0.625494 
-0.0612997 0.232009 0.97078 -0.198157 0.427553 0.882005 -0.12013 0.450661 0.884575 
0.623791 0.00791879 0.781551 -0.181491 0.518308 0.835714 -0.0363057 0.0997963 0.994345 
0.642255 0.323922 0.694682 -0.0957912 0.556912 0.825029 -0.152697 0.439177 0.885329 
0.322416 0.715515 0.619746 -0.0537919 0.679742 0.731476 0.103302 0.869149 0.48364 
0.0538121 -0.239874 0.969312 0.150762 -0.428105 0.891065 -0.00529396 -0.0151183 0.999872 
0.0661428 0.012076 0.997737 -0.0124323 0.341502 0.939799 0.448386 0.333467 0.829307 
0.0484104 0.370155 0.927708 0.226418 0.478339 0.848485 0.168497 0.0433772 0.984747 
0.307468 0.0994155 0.946351 0.151676 0.409368 0.899673 -0.149494 -0.157888 -0.976075 
-0.119044 0.0943982 -0.988391 -0.0114009 -0.137296 -0.990464 0.0930659 -0.179699 -0.979309 
-0.0276672 0.0472218 -0.998501 0.0752049 -0.0675954 -0.994874 0.124716 -0.155373 -0.979952 
0.120082 0.111887 -0.986439 0.0702563 0.287224 -0.955283 0.188887 -0.702659 -0.685998 
0.0235245 -0.409601 -0.911961 0.177972 -0.472647 -0.863094 0.286417 -0.515967 -0.807306 
0.308311 -0.373528 -0.874884 -0.10402 0.216322 -0.970765 0.239583 -0.165082 -0.956738 
0.540182 -0.214098 -0.813858 -0.232445 0.187981 -0.95427 -0.00732393 0.260374 -0.96548 
0.421288 -0.065672 -0.904546 0.502568 0.00342102 -0.864531 -0.268425 0.28137 -0.921292 
-0.127962 0.349262 -0.928246 0.282292 0.060764 -0.957402 0.115165 0.365106 -0.923815 
0.218402 0.131289 -0.966987 0.485182 0.27769 -0.829148 -0.121195 0.564399 -0.816557 
0.00846334 0.587962 -0.808844 0.0986467 0.526966 -0.844142 -0.00868447 0.668045 -0.74407 
0.245049 0.610987 -0.752759 0.18831 -0.696332 -0.692576 -0.30747 0.159215 -0.938143 
0.559519 -0.428801 -0.709273 0.715972 -0.0148652 -0.697971 -0.30039 0.451266 -0.840312 
-0.382785 0.608705 -0.694948 -0.286977 0.812436 -0.507536 -0.0938554 0.637898 -0.764381 
0.547247 0.468917 -0.69328 0.653708 0.425705 -0.625652 -0.091323 0.81403 -0.573599 
0.0504787 0.7774 -0.626978 0.304054 0.751684 -0.585254 0.0355634 0.839985 -0.541443 
0.228517 0.793841 -0.563557 0.109388 -0.531827 -0.839759 0.209817 -0.721723 -0.659615 
-0.16351 -0.293397 -0.941904 -0.274396 -0.0712507 -0.958974 0.292957 -0.744997 -0.599296 
-0.384407 0.370314 -0.845635 0.444621 -0.710263 -0.545746 0.846541 -0.258711 -0.465227 
-0.424362 0.646246 -0.634258 -0.403932 0.673934 -0.618588 -0.443269 0.643792 -0.623734 
0.952968 -0.0368773 -0.30082 -0.415444 0.638771 -0.647594 0.81623 0.171258 -0.55176 
-0.424958 0.784114 -0.452301 0.458681 0.767211 -0.448329 0.787249 0.56308 -0.251356 
-0.164556 0.921203 -0.352571 0.028308 0.878446 -0.477002 0.133456 0.900399 -0.414092 
0.614274 0.711411 -0.341412 -0.152688 -0.245382 -0.957327 -0.0999074 -0.420788 -0.901641 
-0.252393 -0.283557 -0.925145 0.277053 -0.753503 -0.596217 -0.250971 -0.127335 -0.959583 
-0.199383 -0.066467 -0.977665 -0.343664 0.132836 -0.92965 0.30777 -0.84799 -0.431499 
-0.274974 0.037074 -0.960736 -0.393155 0.25981 -0.882002 0.567458 -0.69537 -0.440967 
-0.457038 0.494756 -0.739143 0.990297 0.00883268 -0.138687 0.932412 0.287505 -0.21897 
-0.00551865 0.935477 -0.353345 0.312544 0.896895 -0.312884 0.521295 0.841304 -0.143032 
-0.0276188 -0.593828 -0.804118 0.198602 -0.621002 -0.75823 0.257604 -0.706537 -0.659125 
-0.489006 0.138144 -0.861272 -0.320119 -0.0808406 -0.943922 -0.63836 0.204991 -0.74194 
-0.385636 0.167975 -0.907232 -0.702492 0.499955 -0.506508 -0.562705 0.576718 -0.59225 
-0.510527 0.811989 -0.282905 -0.324045 0.934051 -0.150146 -0.112934 0.975797 -0.18726 
-0.199459 -0.337834 -0.919829 -0.394946 -0.298343 -0.868913 -0.547508 -0.0807625 -0.832894 
-0.776107 0.391121 -0.494654 0.245056 -0.87177 -0.424221 -0.774044 0.57349 -0.268264 
-0.595743 0.726858 -0.341712 0.867262 -0.453464 -0.205493 -0.462879 0.801934 -0.377684 
0.996005 -0.0461099 -0.0764745 -0.392438 0.904017 -0.169548 0.895729 0.444508 0.00907273 
0.0728687 0.992574 -0.0974003 0.229405 0.970745 -0.0709073 -0.12629 -0.662583 -0.738264 
0.144261 -0.764748 -0.627972 -0.591228 -0.30458 -0.74678 0.397361 -0.743899 -0.537326 
0.429013 -0.780316 -0.455033 -0.80339 0.133663 -0.580257 0.922864 -0.378801 -0.0695058 
0.978998 0.184379 0.0869841 0.643808 0.761972 0.070079 -0.170244 0.980916 -0.0939222 
-0.278968 -0.59532 -0.753506 -0.698604 -0.118939 -0.705554 -0.881872 0.179586 -0.435947 
-0.865363 0.15676 -0.475997 -0.878404 0.437656 -0.192001 -0.653187 0.756955 0.0191154 
0.841081 -0.533385 -0.0899057 0.980881 -0.194212 -0.0124403 0.914622 0.35512 0.193275 
0.67365 0.715887 0.183582 -0.312305 0.919774 0.237657 -0.154337 0.973811 0.166951 
0.290995 0.933092 0.211335 0.0310947 0.99186 0.123481 0.179656 -0.844136 -0.505132 
0.364616 -0.83022 -0.421651 -0.839036 -0.185944 -0.511316 -0.921985 0.226842 -0.313825 
0.594483 -0.778035 -0.203104 0.886269 -0.459038 -0.0617342 -0.478444 0.877062 -0.0430478 
0.961065 0.187617 0.202864 0.569085 0.737874 0.362882 -0.19457 -0.722595 -0.663324 
-0.407887 -0.675234 -0.614563 -0.555434 -0.471109 -0.685237 -0.905608 0.406901 -0.119605 
-0.780778 0.620533 0.0729683 0.398268 -0.911187 -0.105457 -0.714401 0.695912 0.0730616 
0.958294 -0.250002 0.138464 -0.391541 0.879826 0.269448 -0.288643 0.931831 0.219947 
-0.550222 -0.666037 -0.503638 -0.800078 -0.412239 -0.435815 0.752861 -0.64914 0.10871 
-0.424162 0.825948 0.371345 -0.0656629 -0.872301 -0.48454 -0.823004 -0.488134 -0.290501 
-0.988502 0.0310867 -0.147979 0.492909 -0.854663 -0.163073 -0.786356 0.569284 0.239915 
0.509576 -0.855965 0.0874946 0.870224 -0.447587 0.205854 0.931561 0.245747 0.267959 
0.722153 0.388608 0.572258 -0.15818 0.846293 0.508691 -0.236654 -0.871545 -0.429422 
0.235594 -0.897248 -0.373418 -0.538782 0.743276 0.396553 0.916597 -0.151779 0.369882 
0.710511 0.571542 0.410504 0.162075 0.833234 0.528633 -0.999583 0.0265107 0.0114418 
-0.96902 0.206916 0.134852 -0.884132 0.399462 0.242364 0.490444 -0.8039 0.336465 
0.723803 -0.544088 0.424356 0.939191 -0.0671625 0.336765 0.773202 0.139365 0.618656 
0.357818 0.566748 0.742134 -0.483466 -0.815893 -0.317143 -0.823921 -0.528399 -0.204814 
0.48369 -0.686066 0.543467 0.5064 -0.558644 0.656869 0.381827 -0.385738 0.83989 
0.345841 -0.161837 0.924231 0.559967 -0.454889 0.692468 0.421598 0.321167 0.848002 
-0.150526 -0.936559 -0.316544 -0.972142 -0.217884 -0.0864039 -0.99318 -0.0278852 0.11321 
-0.95101 0.054545 0.304311 -0.991508 0.12458 0.0373086 0.496384 -0.837571 0.228203 
0.407778 -0.479262 0.777191 0.223642 -0.0490088 0.973438 0.328712 0.115421 0.937351 
0.553682 0.020869 0.832467 0.226545 0.243013 0.943198 0.146565 0.569088 0.809109 
-0.0658605 -0.933251 -0.353135 -0.395004 -0.901232 -0.178194 -0.0454535 -0.973327 -0.224877 
-0.520856 -0.815512 -0.252287 0.159387 -0.967416 -0.196729 -0.928802 0.251084 0.272552 
0.605178 -0.715695 0.348626 0.37323 -0.0854201 0.923798 0.278333 -0.427152 0.860274 
0.315279 0.141908 0.938329 -0.240519 0.750695 0.615311 -0.252852 -0.965923 0.0553023 
0.402506 -0.91326 -0.062808 -0.994478 -0.0337259 0.0993746 -0.952111 0.118905 0.281684 
0.143856 0.199225 0.969337 0.0482592 0.497836 0.865927 -0.739278 -0.671993 0.043511 
-0.57259 -0.805154 0.154494 -0.0595425 -0.994182 0.089765 0.204121 -0.972813 -0.109409 
-0.273256 0.724114 0.633237 0.189948 -0.976117 0.105424 0.049843 -0.967609 0.247483 
-0.920104 -0.00474038 0.391646 0.633253 -0.771677 0.0592113 0.761979 -0.533297 0.3674 
-0.599975 0.578502 0.552599 0.775212 -0.431027 0.461803 0.705002 -0.32504 0.630334 
0.177657 0.311525 0.933483 -0.793508 -0.523118 0.310956 -0.638696 -0.66849 0.381036 
-0.357489 -0.888684 0.287129 -0.939545 -0.215752 0.265905 0.200613 -0.935932 0.289458 
0.268922 -0.949278 0.162947 -0.758091 0.1741 0.62848 0.50971 -0.807114 0.29793 
0.605228 -0.0794306 0.792079 0.589898 -0.155523 0.792359 -0.269106 0.450446 0.851282 
-0.383142 0.395219 0.834868 0.159813 0.274869 0.948107 0.0266691 0.439536 0.897829 
0.154525 0.527011 0.835692 -0.622112 -0.630823 0.463723 -0.790368 -0.156151 0.592399 
0.436872 -0.832876 0.339795 0.638183 -0.592617 0.491454 0.675738 -0.552635 0.487825 
0.63461 -0.409525 0.655408 -0.429312 0.330999 0.840316 0.652721 -0.32554 0.68409 
0.496875 0.00175348 0.86782 0.216993 0.259877 0.940945 0.0490992 0.111666 0.992532 
-0.0151593 0.0934003 0.995513 -0.69307 -0.146817 0.705761 -0.164547 -0.887963 0.429471 
0.0468039 -0.814087 0.578854 0.182147 -0.782117 0.595915 -0.454436 0.149142 0.878205 
0.492557 -0.723055 0.484333 -0.253981 0.161874 0.953567 0.62747 -0.483067 0.610678 
-0.0818904 0.228768 0.970031 0.564733 -0.225578 0.793846 -0.413082 -0.625457 0.661942 
-0.0264271 -0.503533 0.863572 0.196204 -0.648955 0.735093 -0.210167 0.00215004 0.977663 
0.419498 -0.443081 0.792275 0.0943858 -0.136307 0.98616 0.424778 -0.143957 0.893778 
0.242842 -0.109379 0.96388 0.196481 0.109572 0.974366 -0.465309 -0.149821 0.872377 
-0.0996055 -0.572832 0.813599 -0.0328474 -0.226595 0.973435 0.281413 -0.585008 0.760639 
0.364496 -0.677083 0.639297 0.136206 -0.173808 0.975314 
