# vtk DataFile Version 4.2
vtk output
ASCII
DATASET POLYDATA
POINTS 499 float
294.148 173.93 209.505 290.649 175.659 209.2 293.233 175.918 209.368 
294.67 174.169 209.893 291.792 176.601 209.109 290.37 177.04 209.251 
290.099 177.341 209.416 290.362 177.426 209.344 294.607 170.701 210.014 
294.353 171.515 209.783 295.061 170.428 210.228 295.184 171.426 210.173 
293.374 173.806 209.258 293.716 175.901 209.551 294.031 175.76 209.729 
289.615 176.313 209.697 288.805 177.482 210.422 290.702 177.576 209.359 
294.075 176.831 210.178 289.126 178.582 210.301 298.317 146.497 211.494 
298.268 146.341 211.508 298.09 146.884 211.477 298.11 147.581 211.528 
298.257 147.438 211.563 298.372 147.606 211.721 293.201 169.775 210.373 
293.816 170.478 210.013 292.001 172.796 209.615 295.442 172.369 210.466 
293.288 177.903 210.142 292.012 178.361 209.775 290.565 178.959 209.991 
288.901 179.166 210.797 297.856 144.9 212.127 298.026 144.693 212.304 
298.14 145.352 211.92 297.128 146.242 211.893 296.61 146.878 212.123 
298.124 148.12 211.794 298.55 147.554 211.969 296.253 159.519 212.108 
296.377 159.744 212.101 296.382 160.752 212.079 295.9 161.854 211.906 
295.245 163.035 211.746 296.222 162.366 212.004 295.022 163.97 211.626 
296.562 162.828 212.219 295.322 164.848 211.544 294.855 165.802 211.326 
294.382 165.478 211.406 295.755 165.522 211.605 294.06 167.115 211.065 
295.806 166.355 211.515 294.675 167.898 210.827 295.555 169.213 210.862 
291.867 170.907 210.414 295.005 175.964 211.062 287.868 178.39 211.742 
293.562 178.385 210.751 287.957 178.766 211.673 297.802 144.309 212.6 
298.246 144.757 212.371 298.363 144.531 212.657 297.131 145.08 212.25 
298.606 145.104 212.46 297.491 147.999 211.732 298.791 147.318 212.355 
296.704 148.217 212.073 298.18 149.794 212.545 297.447 151.101 212.43 
298.503 150.605 213.077 297.311 154.023 212.746 296.793 155.349 212.608 
296.461 155.688 212.558 297.085 155.946 212.735 296.969 162.284 212.567 
294.499 164.094 211.652 293.855 164.795 211.691 296.856 164.197 212.543 
292.305 167.801 211.599 296.519 170.294 212.044 289.892 171.964 211.674 
294.034 179.177 212.12 287.867 179.613 212.272 292.364 181.193 212.183 
292.296 181.055 212.045 297.306 143.942 213.057 298.629 144.344 213.217 
298.798 144.708 213.144 296.198 145.636 212.866 295.985 146.052 212.878 
295.894 146.438 212.866 299.199 149.442 213.846 295.614 152.652 212.742 
297.966 155.725 213.519 298.314 155.267 213.942 295.67 158.384 212.421 
296.636 157.71 212.605 293.765 161.202 212.641 292.95 165.098 212.163 
287.822 176.298 212.484 288.312 181.08 212.848 288.736 181.334 212.685 
289.238 181.781 212.77 291.521 181.525 212.293 292.955 180.789 212.408 
292.058 181.564 212.508 292.119 182.861 213.893 297.229 143.763 213.373 
296.435 143.748 214.01 298.515 144.006 213.533 295.843 144.486 213.989 
294.846 146.795 214.398 295.622 146.564 213.199 299.449 146.536 213.998 
299.05 151.036 214.072 294.788 152.374 213.371 294.898 155.352 213.042 
297.511 158.809 213.167 293.074 162.4 212.888 297.866 162.159 214.068 
295.002 178.597 213.481 287.148 180.106 214.256 290.341 181.931 212.608 
289.496 182.383 213.214 292.327 182.107 213.34 287.97 182.113 214.144 
290.518 183.286 213.953 297.937 142.802 214.956 298.511 143.251 214.756 
295.86 143.651 214.716 298.693 143.786 214.182 298.906 154.883 215.125 
291.247 163.605 214.967 290.11 167.114 215.169 296.588 142.618 215.43 
296.744 142.099 216.284 295.592 142.888 216.217 295.205 143.922 215.62 
299.179 154.214 215.737 292.215 157.152 216.103 288.832 184.751 216.037 
289.852 185.063 216.045 291.905 184.193 215.696 289.204 185.43 216.674 
288.857 185.633 217.202 290.851 185.181 216.488 289.211 185.971 217.466 
289.58 186.014 217.39 296.241 142.099 216.666 297.128 141.664 216.951 
298.823 142.349 216.848 299.145 143.021 216.277 298.345 163.541 216.432 
286.647 179.856 216.257 294.777 180.901 216.358 294.155 182.246 216.893 
287.947 185.341 217.764 291.055 185.372 216.99 289.859 186.148 217.705 
295.766 141.728 217.947 297.919 141.642 217.182 295.286 142.422 217.698 
295.043 143.203 216.996 299.631 143.498 217.273 287.327 184.693 218.059 
291.525 185.418 217.8 288.421 186.335 218.869 296.265 140.342 219.611 
296.234 140.765 218.901 298.591 141.367 218.391 299.281 142.445 217.856 
294.158 144.462 218.076 288.709 186.627 219.299 289.802 186.563 218.993 
297.259 140.556 218.955 297.574 140.589 218.996 299.259 141.88 219.251 
292.198 185.261 219.738 290.777 186.367 219.925 288.515 186.768 219.911 
288.355 186.835 220.531 289.063 186.98 220.202 296.819 139.807 220.653 
298.747 141.119 219.534 298.337 140.77 219.526 300.04 144.103 219.175 
295.837 179.301 220.219 287.69 186.539 221.585 297.105 139.736 220.901 
297.247 139.531 221.537 298.179 140.098 221.181 299.42 141.805 220.969 
299.979 143.385 220.618 292.123 152.833 221.102 297.591 139.633 221.531 
299.886 152.441 221.477 287.563 186.682 223.502 287.989 186.915 223.039 
288.452 187.061 222.635 298.818 140.617 221.886 286.358 184.79 224.029 
287.185 186.363 224.033 294.638 136.899 226.661 294.651 136.94 226.669 
294.655 136.941 226.667 294.653 136.939 226.676 294.656 136.939 226.674 
295.84 138.388 224.7 296.012 138.322 224.896 296.712 138.51 224.753 
300.204 145.838 223.293 294.691 137.061 226.708 294.696 137.065 226.684 
294.702 137.054 226.718 294.707 137.058 226.694 293.706 142.077 224.928 
294.527 181.685 224.981 287.555 186.824 225.881 294.761 137.249 226.816 
294.771 137.351 226.737 294.83 137.308 226.791 294.786 137.268 226.681 
295.481 138.098 225.858 295.046 138.385 225.692 296.323 138.158 225.996 
298.863 140.339 225.315 285.901 180.311 225.591 289.85 186.868 226.433 
288.274 187.09 226.082 294.868 137.46 227.039 294.79 137.491 226.938 
295.092 137.589 227.099 294.99 137.741 226.529 294.776 137.841 226.841 
297.147 138.46 226.85 298.348 139.569 226.78 290.21 186.677 227.02 
288.756 187.114 226.765 294.973 137.613 227.335 294.838 137.732 227.275 
295.467 137.756 227.626 299.976 148.719 228.323 295.218 137.903 228.265 
295.936 137.883 228.785 296.593 138.075 228.963 297.447 138.617 228.951 
288.313 187.042 228.584 299.139 140.882 229.249 286.951 185.952 230.922 
289.753 186.784 229.963 287.805 186.633 230.609 295.99 138.045 230.121 
296.284 138.054 229.947 297.469 138.714 230.664 285.859 181.991 230.962 
286.424 184.94 232.058 286.676 185.518 231.46 290.488 186.427 231.353 
294 135.009 234.014 294 135.009 234.015 294 135.009 234.015 
294 135.009 234.015 294 135.009 234.015 295.485 138.323 230.75 
296.251 138.26 231.137 296.643 138.416 231.523 294.262 140.215 231.151 
294 135.009 234.016 294 135.009 234.016 294 135.009 234.016 
294 135.009 234.016 295.284 138.677 231.721 286.977 185.901 234.391 
294 135.009 234.017 294 135.009 234.017 294 135.009 234.017 
294 135.009 234.017 295.941 138.472 232.148 295.113 139.19 232.601 
296.123 138.552 232.51 296.444 138.669 232.74 289.854 186.793 233.579 
287.667 186.699 235.318 288.994 186.988 233.948 288.02 186.915 235.035 
294 135.009 234.019 294 135.009 234.019 294 135.009 234.019 
294 135.009 234.019 295.378 139.018 232.864 295.837 138.81 233.048 
296.356 138.887 233.346 298.199 140.256 234.401 299.705 142.759 235.313 
290.981 186.174 234.743 288.335 187.031 235.439 294 135.009 234.02 
294 135.009 234.02 294 135.009 234.02 294 135.009 234.02 
295.619 139.041 233.254 296.07 139.792 235.065 299.097 159.289 235.653 
287.646 186.644 236.781 287.939 186.876 236.405 294 135.009 234.021 
297.492 140.134 235.58 298.565 141.086 236.037 296.705 175.819 237.16 
295.148 180.538 237.426 291.103 186.057 236.246 290.001 186.665 236.526 
287.691 186.589 237.489 288.214 186.976 236.686 288.598 187.03 236.62 
298.727 141.602 237.379 300.001 150.573 238.298 286.103 179.545 237.301 
293.675 183.181 237.794 296.82 140.683 237.043 299.389 142.717 237.969 
292.269 154.082 238.929 298.165 165.73 239.123 288.093 186.591 238.405 
288.286 186.766 238.162 299.538 143.546 239.166 299.983 146.522 239.4 
293.466 148.295 239.656 298.515 162.255 239.592 287.465 185.687 239.07 
287.977 186.404 238.691 288.496 186.816 238.059 297.78 142.011 239.902 
298.863 142.641 239.751 298.994 143.02 240.163 292.397 156.142 240.792 
291.825 158.436 240.417 288.482 171.181 240.453 292.991 183.317 240.844 
287.824 185.272 240.049 288.399 186.141 239.395 290.147 185.645 239.985 
298.476 142.455 240.14 299.773 147.578 241.204 299.549 150.823 241.691 
297.753 165.996 241.564 289.595 168.496 241.444 297.117 172.056 241.78 
286.73 181.075 241.442 287.625 183.395 241.671 289.662 184.92 241.59 
288.779 186.02 239.684 297.262 142.65 241.358 297.46 142.682 241.433 
298.552 142.791 240.653 296.264 143.579 242.059 296.561 143.483 242.196 
292.424 158.349 241.826 297.947 162.693 241.945 291.001 165.418 242.394 
297.051 171.287 242.482 295.193 179.331 242.546 288.321 183.365 242.604 
289.524 184.533 242.022 289.928 184.728 241.848 289.859 184.897 241.686 
290.443 184.542 241.866 290.078 184.848 241.662 291.789 183.724 242.18 
298.004 142.974 241.53 294.571 148.337 242.87 293.24 156.758 242.672 
294.158 155.779 243.59 293.597 158.797 243.523 297.727 162.969 242.472 
293.085 162.156 243.715 297.403 165.412 242.785 288.401 182.377 243.655 
289.901 183.051 243.652 291.477 183.294 243.121 289.943 184.882 241.7 
297.147 143.572 242.627 297.779 143.661 242.652 298.231 144.149 242.755 
297.654 143.96 242.99 298.834 144.56 242.253 295.938 145.055 243.019 
299.071 150.161 243.308 298.518 152.58 243.448 295.524 156.784 244.621 
295.65 156.572 244.629 295.312 158.179 244.526 295.718 157.417 244.635 
295.632 157.926 244.606 293.824 160.855 243.991 292.781 164.382 244.126 
292.041 165.72 243.988 291.821 166.652 244.181 288.121 181.342 244.385 
291.135 182.207 244.335 290.929 183.037 243.612 297.944 143.927 242.83 
296.678 144.525 243.318 297.245 144.476 243.467 297.09 144.764 243.635 
[...]
POINT_DATA 499
SCALARS scalars float
LOOKUP_TABLE default
1 1 1 1 1 1 1 1 1 
1 1 1 1 1 1 1 1 1 
1 1 1 1 1 1 1 1 1 
1 1 1 1 1 1 1 1 1 
1 1 1 1 1 1 1 1 1 
1 1 1 1 1 1 1 1 1 
1 1 1 1 1 1 1 1 1 
1 1 1 1 1 1 1 1 1 
1 1 1 1 1 1 1 1 1 
1 1 1 1 1 1 1 1 1 
1 1 1 1 1 1 1 1 1 
1 1 1 1 1 1 1 1 1 
1 1 1 1 1 1 1 1 1 
1 1 1 1 1 1 1 1 1 
1 1 1 1 1 1 1 1 1 
1 1 1 1 1 1 1 1 1 
1 1 1 1 1 1 1 1 1 
1 1 1 1 1 1 1 1 1 
1 1 1 1 1 1 1 1 1 
1 1 1 1 1 1 1 1 1 
1 1 1 1 1 1 1 1 1 
1 1 1 1 1 1 1 1 1 
1 1 1 1 1 1 1 1 1 
1 1 1 1 1 1 1 1 1 
1 1 1 1 1 1 1 1 1 
1 1 1 1 1 1 1 1 1 
1 1 1 1 1 1 1 1 1 
1 1 1 1 1 1 1 1 1 
1 1 1 1 1 1 1 1 1 
1 1 1 1 1 1 1 1 1 
1 1 1 1 1 1 1 1 1 
1 1 1 1 1 1 1 1 1 
1 1 1 1 1 1 1 1 1 
1 1 1 1 1 1 1 1 1 
1 1 1 1 1 1 1 1 1 
1 1 1 1 1 1 1 1 1 
1 1 1 1 1 1 1 1 1 
1 1 1 1 1 1 1 1 1 
1 1 1 1 1 1 1 1 1 
1 1 1 1 1 1 1 1 1 
1 1 1 1 1 1 1 1 1 
1 1 1 1 1 1 1 1 1 
1 1 1 1 1 1 1 1 1 
1 1 1 1 1 1 1 1 1 
1 1 1 1 1 1 1 1 1 
1 1 1 1 1 1 1 1 1 
1 1 1 1 1 1 1 1 1 
1 1 1 1 1 1 1 1 1 
1 1 1 1 1 1 1 1 1 
1 1 1 1 1 1 1 1 1 
1 1 1 1 1 1 1 1 1 
1 1 1 1 1 1 1 1 1 
1 1 1 1 1 1 1 1 1 
1 1 1 1 1 1 1 1 1 
1 1 1 1 1 1 1 1 1 
1 1 1 1 
NORMALS Normals float
0.374808 0.265705 -0.888212 -0.322103 -0.182929 -0.928863 0.35812 0.166969 -0.918625 
0.669963 0.248186 -0.699681 0.0799113 0.192071 -0.978122 -0.3222 0.0885333 -0.942523 
-0.442794 0.330978 -0.833299 -0.279458 0.489106 -0.826244 0.194135 -0.327947 -0.924533 
0.196779 -0.0907636 -0.976238 0.558216 -0.16653 -0.812812 0.578264 -0.047965 -0.814439 
0.165578 0.0595723 -0.984396 0.437451 0.122666 -0.890837 0.573161 0.091404 -0.814329 
-0.636898 -0.155861 -0.755029 -0.74465 -0.0176991 -0.66722 -0.113185 0.46053 -0.880398 
0.61143 0.365159 -0.702006 -0.46381 0.396352 -0.792329 0.555229 -0.0597554 -0.829548 
0.0597281 -0.295706 -0.95341 -0.0619904 -0.000748524 -0.998076 0.108669 0.237635 -0.965257 
0.668552 0.0879478 -0.738447 0.683575 0.298471 -0.666063 -0.288873 -0.412969 -0.863718 
-0.147836 -0.24624 -0.957868 -0.304469 -0.294657 -0.905801 0.729216 0.114986 -0.674554 
0.477766 0.431915 -0.764977 0.322053 0.53663 -0.779942 -0.0855815 0.486942 -0.869231 
-0.607306 0.367146 -0.704545 -0.0216784 -0.513106 -0.858052 0.275988 -0.590808 -0.75814 
0.369183 -0.448899 -0.813752 -0.464583 -0.138304 -0.874663 -0.598895 -0.0212713 -0.800545 
0.541416 0.457278 -0.705525 0.852362 0.169691 -0.494656 0.188012 -0.150616 -0.97055 
0.411664 -0.123115 -0.902981 0.432238 -0.00582327 -0.901741 0.332288 -0.124879 -0.934874 
-0.0790967 -0.122755 -0.98928 0.454504 -0.0873686 -0.88645 0.0274399 -0.177552 -0.983729 
0.738798 -0.0345046 -0.673043 0.155106 -0.171683 -0.972865 0.14604 -0.211984 -0.9663 
-0.219019 -0.265769 -0.938828 0.412414 -0.115564 -0.903637 -0.0805465 -0.190976 -0.978284 
0.489304 -0.0832585 -0.86813 0.0440268 -0.232396 -0.971624 0.550336 -0.168556 -0.817753 
-0.544675 -0.465451 -0.697628 0.911171 0.220143 -0.348289 -0.865303 -0.0190673 -0.500887 
0.658106 0.51067 -0.553275 -0.795355 0.182563 -0.577998 0.222921 -0.773597 -0.593172 
0.551217 -0.504041 -0.664907 0.574433 -0.586036 -0.571479 -0.433214 -0.398207 -0.808553 
0.813079 -0.23262 -0.533657 -0.148221 0.187413 -0.971034 0.87576 0.157795 -0.45623 
-0.548574 0.0752052 -0.832713 0.66057 0.221474 -0.717353 0.229996 0.157616 -0.960343 
0.730863 0.144256 -0.667106 0.675091 0.0502471 -0.736021 0.397157 0.00201396 -0.917749 
-0.0174215 0.00388146 -0.999841 0.471078 0.0148584 -0.881967 0.706918 0.0644445 -0.704353 
-0.205509 -0.271481 -0.940247 -0.208467 -0.207709 -0.955719 0.726629 0.0871249 -0.681484 
-0.471154 -0.315815 -0.823575 0.894201 0.0855654 -0.439413 -0.75563 -0.371007 -0.539794 
0.652648 0.554069 -0.516776 -0.874978 0.208531 -0.436953 0.442996 0.662792 -0.603706 
0.229255 0.561291 -0.795233 -0.378619 -0.651496 -0.65742 0.705966 -0.535874 -0.463089 
0.857804 -0.406818 -0.31412 -0.700995 -0.312243 -0.641179 -0.688911 -0.264149 -0.675001 
-0.626285 -0.134897 -0.767834 0.915451 0.141838 -0.376604 -0.459603 0.00290516 -0.88812 
0.734742 0.0799692 -0.673617 0.863271 0.0548306 -0.501753 -0.0546817 -0.0609315 -0.996643 
0.401468 -0.0420214 -0.914908 -0.37951 -0.030453 -0.924686 -0.594219 -0.211238 -0.776069 
-0.957917 -0.178304 -0.22495 -0.648531 0.537924 -0.538559 -0.462165 0.549391 -0.696112 
-0.38999 0.621609 -0.679345 0.153607 0.705152 -0.692218 0.635045 0.580153 -0.51004 
0.324738 0.743483 -0.584618 0.368163 0.680475 -0.633569 -0.217539 -0.794084 -0.567545 
-0.627941 -0.492374 -0.602708 0.731434 -0.586419 -0.348019 -0.684522 -0.463496 -0.562672 
-0.912017 -0.0935076 -0.399351 -0.824928 -0.142893 -0.546878 0.975758 -0.0800856 -0.203671 
0.906963 0.130447 -0.400502 -0.75657 -0.0100772 -0.653836 -0.789823 -0.158475 -0.592508 
0.820221 -0.00505495 -0.572024 -0.454686 -0.209399 -0.865686 0.90655 0.108898 -0.407809 
0.873048 0.390104 -0.292585 -0.902686 0.259674 -0.343113 -0.103303 0.610834 -0.784991 
-0.192013 0.745257 -0.638532 0.638643 0.61905 -0.457069 -0.639217 0.585607 -0.498464 
-0.0731464 0.745076 -0.662957 0.328687 -0.817303 -0.473265 0.687776 -0.590026 -0.422888 
-0.700311 -0.475581 -0.532341 0.73899 -0.543372 -0.398297 0.936319 0.143797 -0.320359 
-0.957995 -0.21699 -0.187514 -0.928345 -0.340276 -0.149625 -0.225298 -0.836826 -0.498962 
-0.227456 -0.841687 -0.489721 -0.689967 -0.590105 -0.419191 -0.843215 -0.305826 -0.442108 
0.947622 0.133857 -0.289992 -0.829731 -0.272217 -0.487283 -0.550339 0.62022 -0.558977 
0.049165 0.833874 -0.549762 0.579503 0.691301 -0.431601 -0.22265 0.835251 -0.502775 
-0.237869 0.859217 -0.45295 0.398826 0.768009 -0.501099 -0.274532 0.862283 -0.425559 
-0.0568419 0.876939 -0.477229 -0.563635 -0.715923 -0.412031 -0.131366 -0.859651 -0.493703 
0.668526 -0.658101 -0.346375 0.670532 -0.617475 -0.411232 0.983636 0.0959867 -0.152466 
-0.988868 -0.146826 -0.0241282 0.915062 0.381019 -0.132234 0.832531 0.534741 -0.14472 
-0.627728 0.659556 -0.413452 0.384026 0.809785 -0.44359 0.248547 0.909191 -0.334059 
-0.611002 -0.72933 -0.307822 0.263825 -0.835284 -0.482387 -0.795838 -0.564273 -0.219631 
-0.798688 -0.483975 -0.357583 0.935775 -0.21309 -0.280924 -0.877096 0.422394 -0.228661 
0.585475 0.754583 -0.296351 -0.400885 0.835775 -0.375196 -0.388016 -0.822672 -0.415518 
-0.260799 -0.832782 -0.488322 0.53163 -0.747766 -0.397763 0.842336 -0.494711 -0.213847 
-0.948435 -0.247249 -0.198342 -0.167732 0.916567 -0.363003 0.033921 0.947383 -0.318299 
0.100823 -0.884636 -0.455252 0.295091 -0.867014 -0.401508 0.78383 -0.563134 -0.261708 
0.74558 0.665124 -0.0414814 0.452652 0.890364 -0.048558 -0.471307 0.840644 -0.266811 
-0.486851 0.863629 -0.130849 -0.0498075 0.993533 -0.102034 0.0593349 -0.925796 -0.373338 
0.711537 -0.645323 -0.277982 0.558752 -0.751412 -0.350965 0.985641 0.00830087 -0.168652 
0.948311 0.30406 -0.0908545 -0.638763 0.769215 -0.0170124 0.208902 -0.89258 -0.399577 
0.18496 -0.905748 -0.381328 0.51691 -0.80938 -0.27876 0.886549 -0.457273 -0.0702303 
0.960816 -0.273721 0.0437048 -0.975157 -0.175053 -0.135741 0.362774 -0.862613 -0.352554 
0.989 0.138602 -0.0516632 -0.515148 0.856363 0.0355785 -0.620937 0.751547 0.222743 
-0.094966 0.993684 0.0597861 0.858754 -0.512069 -0.0180711 -0.936572 0.312022 0.159608 
-0.858761 0.503803 0.0933436 -0.89712 0.338847 -0.283476 -0.909791 0.331564 -0.249693 
0.411438 -0.0401328 -0.910554 -0.469798 -0.155265 0.869012 0.866097 -0.454447 0.208216 
-0.141725 -0.924717 -0.353288 0.205374 -0.945658 -0.252095 0.344741 -0.912933 -0.218419 
0.999316 0.0164489 -0.0331277 -0.937356 0.176774 0.300191 -0.515581 0.223788 -0.8271 
0.415888 -0.509597 0.753225 0.871467 -0.350844 -0.342716 -0.996089 -0.0267673 -0.0842013 
0.833946 0.551839 -0.00280052 -0.589586 0.804088 0.0763654 -0.63011 -0.333741 0.701127 
-0.952565 0.190324 -0.237479 0.80551 -0.581406 0.114543 0.307384 -0.216968 -0.92652 
-0.0473344 -0.935712 -0.349576 -0.674338 -0.626458 -0.390921 0.331663 -0.931352 -0.150274 
0.818998 -0.570648 -0.0600367 -0.998663 0.0421156 0.029967 0.266874 0.963608 -0.0154341 
-0.0249427 0.999681 0.00396312 -0.182265 -0.794311 0.579526 -0.956164 -0.118752 0.267672 
0.401122 -0.916021 0.00264402 -0.17911 -0.676093 -0.714715 -0.96802 -0.19269 -0.160648 
0.58035 -0.81102 -0.0737557 0.739873 -0.672661 0.0107487 0.472509 0.878903 0.0653046 
0.0173043 0.997448 0.069274 -0.159452 -0.910591 0.381313 -0.825298 -0.457295 0.331309 
0.187766 -0.975174 0.117389 0.993526 0.0919275 -0.0667447 -0.419403 -0.864501 0.277018 
0.155448 -0.987416 -0.029087 0.348945 -0.931672 -0.101122 0.687947 -0.716154 -0.117695 
-0.241622 0.956704 0.162282 0.923158 -0.38369 0.023683 -0.90341 0.404026 -0.143571 
0.406202 0.911163 0.0691564 -0.364504 0.93056 0.0345781 0.0834912 -0.970423 0.226514 
0.228681 -0.947674 0.222752 0.541912 -0.834343 0.101008 -0.99929 -0.037621 -0.00187654 
-0.976683 0.119777 -0.178167 -0.900097 0.40274 -0.166213 0.18091 0.983228 -0.0231169 
-0.342151 0.846845 -0.407168 -0.940711 -0.283301 -0.186558 -0.290442 0.932727 -0.21369 
0.306569 -0.944998 -0.113996 0.928092 0.26807 -0.258425 -0.464034 -0.862165 0.203332 
0.118976 -0.9808 0.154518 0.33863 -0.919892 0.197811 -0.968188 -0.219216 0.120648 
-0.627361 -0.778718 0.00397597 -0.640792 0.766791 -0.0376499 0.652216 -0.757987 -0.00835428 
0.61336 0.789364 -0.0263304 -0.726167 -0.668787 0.159388 -0.856089 0.514991 0.0435424 
-0.217332 -0.976097 0.00148334 -0.956412 0.291988 -0.00437501 0.962839 -0.269637 0.0153878 
0.229689 0.973263 0.00122263 -0.154969 -0.960052 0.232989 -0.793383 -0.520164 0.316183 
0.030572 -0.958752 0.282595 0.248652 -0.927643 0.27866 0.510647 0.859358 0.0272692 
-0.598807 0.80088 -0.00456054 0.0173504 0.99616 -0.0858115 -0.519097 0.84918 -0.0971217 
0.369634 -0.929122 0.0101538 -0.869233 -0.49424 0.0126865 0.876041 0.481159 0.0322212 
-0.350059 0.936537 0.0188941 -0.592019 -0.730947 0.339455 -0.25459 -0.88249 0.395469 
-0.042797 -0.892594 0.448827 0.708289 -0.680947 0.186114 0.897391 -0.438218 0.0515255 
0.473459 0.880808 -0.00364011 -0.266191 0.963919 -0.00143212 0.839825 -0.50948 0.187414 
-0.39742 -0.898432 0.186753 0.403536 0.889296 0.215202 -0.830827 0.496129 0.252156 
-0.509148 -0.715335 0.478606 -0.409454 -0.773457 0.483852 0.989678 0.122922 0.0736726 
-0.642073 0.762748 0.0771883 -0.486698 0.87352 0.00938415 -0.00420176 0.0252934 0.999671 
0.434866 -0.847182 0.305243 0.592291 -0.786063 0.176904 0.973153 0.225595 0.0456099 
0.895541 0.444234 0.0257557 0.659456 0.747116 0.0832835 0.389638 0.912172 0.126986 
-0.693649 0.700774 0.166633 -0.401774 0.909732 0.104712 0.0570624 0.998321 0.00999681 
0.712649 -0.664557 0.224714 0.999933 -0.00704652 -0.00922456 -0.996148 -0.0287021 0.0828603 
0.818992 0.57301 -0.0301901 -0.0692746 -0.876528 0.476339 0.931504 -0.3427 0.121886 
-0.957063 -0.190569 0.218434 0.992209 0.124573 0.00161069 -0.243109 0.878566 0.411121 
-0.208115 0.917186 0.33979 0.929519 -0.350219 0.115502 0.982131 -0.142015 0.123491 
-0.916363 -0.267672 0.297708 0.97412 0.129965 0.184933 -0.847067 0.446588 0.28816 
-0.541613 0.772135 0.33236 0.154857 0.927042 0.341485 0.327255 -0.878231 0.348733 
0.69442 -0.678748 0.238916 0.81113 -0.449482 0.374212 -0.87029 -0.224448 0.438427 
-0.949146 -0.148495 0.277615 -0.945005 -0.304255 0.119976 0.74044 0.602662 0.297569 
-0.552942 0.626227 0.549632 -0.20947 0.857635 0.469665 0.269326 0.894744 0.356225 
0.571214 -0.753799 0.324811 0.957557 -0.106657 0.267787 0.948049 0.138339 0.286472 
0.960062 0.0500065 0.275281 -0.914482 -0.310604 0.259321 0.985635 0.148913 0.0796725 
-0.924394 0.195154 0.327736 -0.705438 0.502629 0.499722 -0.170906 0.796166 0.580441 
-0.0654135 0.877244 0.475567 -0.182088 -0.863263 0.470767 0.115341 -0.841124 0.528401 
0.537359 -0.709662 0.455658 -0.637344 -0.600353 0.483082 -0.376859 -0.721955 0.580308 
-0.86492 -0.0794129 0.495587 0.92354 0.0857633 0.37379 -0.798595 -0.288387 0.52828 
0.91943 0.116566 0.37558 0.843875 0.441589 0.304753 -0.580997 0.57013 0.580856 
-0.18115 0.719072 0.67091 0.0610376 0.666472 0.743027 0.0158034 0.884021 0.467179 
0.343078 0.770474 0.537278 0.311121 0.847408 0.430236 0.535666 0.749298 0.389377 
0.582507 -0.634727 0.507747 -0.832197 -0.204266 0.515485 -0.800509 -0.126392 0.585841 
-0.734997 -0.156248 0.659823 -0.776034 -0.120757 0.619023 0.898654 0.107404 0.425305 
-0.675779 -0.25963 0.689866 0.886974 -0.0109349 0.461689 -0.586068 0.579381 0.566429 
-0.128108 0.651068 0.74813 0.343037 0.727241 0.594513 0.206153 0.85656 0.473081 
-0.249481 -0.714957 0.653143 0.32798 -0.749332 0.575266 0.570458 -0.518563 0.636922 
0.241924 -0.56545 0.788504 0.812464 -0.412051 0.412453 -0.672742 -0.4446 0.591395 
0.827741 0.121308 0.547841 0.857065 0.121268 0.500733 0.455092 0.0813921 0.886717 
-0.149458 -0.0542317 0.98728 -0.135487 0.138143 0.981101 -0.114132 0.0003034 0.993466 
0.0384447 0.227413 0.973039 -0.695578 -0.129252 0.706729 -0.51698 -0.284185 0.807447 
-0.628613 -0.357317 0.690775 -0.679026 -0.167915 0.714653 -0.817388 0.341008 0.464316 
0.0630793 0.555678 0.829001 0.125241 0.747221 0.652668 0.475556 -0.556628 0.681184 
-0.425859 -0.546202 0.721324 0.0187316 -0.620464 0.784011 -0.254016 -0.435415 0.863649 
-0.674071 -0.298188 0.675805 0.879223 -0.25339 0.403435 0.717362 0.00777736 0.696657 
-0.570684 -0.123152 0.811883 0.730299 -0.0573279 0.680717 -0.246752 -0.081807 0.965619 
0.754138 0.13794 0.642066 -0.0389738 -0.176929 0.983452 0.662763 0.163116 0.730847 
-0.575409 -0.0624039 0.815482 0.408048 0.064993 0.910644 -0.266473 -0.00491335 0.96383 
0.761284 -0.0650743 0.645146 -0.234801 -0.110928 0.965693 -0.505291 0.0150778 0.862817 
-0.348627 -0.180985 0.919622 -0.288178 -0.278485 0.916187 -0.837509 -0.347847 0.421404 
-0.904442 -0.190213 0.381842 0.875182 0.293973 0.384234 -0.961476 -0.0457652 0.271053 
0.369569 0.536294 0.75882 -0.461916 -0.29723 0.835637 0.321134 -0.502069 0.802994 
-0.221098 -0.360795 0.906059 -0.0228487 -0.392928 0.919285 0.148913 -0.412662 0.89863 
0.728009 -0.288533 0.621894 -0.1963 -0.204217 0.959042 -0.300887 -0.0845354 0.949906 
0.57981 0.00803402 0.814712 -0.287313 0.0313743 0.957323 0.486615 0.132299 0.863541 
0.039452 0.121448 0.991814 0.437762 0.146319 0.887105 0.577147 0.113702 0.808686 
0.509119 0.131953 0.850521 0.372254 -0.0109613 0.928066 0.396747 -0.0902986 0.913476 
0.506498 -0.172935 0.844721 0.635155 -0.0272088 0.771905 -0.236272 -0.210207 0.948677 
0.0304439 -0.211608 0.97688 0.79197 -0.101613 0.602046 0.849623 -0.0455504 0.525419 
-0.487772 -0.34694 0.801069 -0.737875 -0.360609 0.570528 -0.815243 -0.218818 0.536187 
0.797288 0.344157 0.49587 -0.863647 0.0804506 0.497636 -0.146477 0.572476 0.806732 
-0.446778 0.540751 0.712725 0.367975 -0.269671 0.889872 0.300467 -0.105948 0.94789 
0.178054 -0.0675154 0.981702 0.293258 -0.299814 0.907806 -0.32336 -0.404696 0.855371 
0.593434 -0.167686 0.787222 0.805512 0.025397 0.592035 0.673064 0.492686 0.551585 
0.565648 0.465797 0.680496 -0.806554 0.272433 0.524644 -0.00636156 0.506734 0.862079 
-0.338065 0.466581 0.817322 0.423192 -0.258448 0.868397 0.000327397 -0.312929 0.949776 
0.623336 -0.260434 0.73731 0.546161 -0.299059 0.782478 -0.246243 -0.249472 0.936551 
0.786115 -0.0451224 0.61643 -0.703929 -0.267434 0.657999 -0.535173 -0.200275 0.820658 
-0.692202 -0.0343108 0.720888 0.0159023 0.285757 0.95817 -0.510344 0.286474 0.810852 
-0.314412 0.324292 0.892177 0.587438 -0.254615 0.768172 0.602674 0.00232304 0.797984 
-0.224248 -0.156438 0.961894 0.409217 0.323118 0.853309 0.59147 0.153094 0.79166 
-0.37266 -0.00626128 0.927947 -0.366916 -0.209822 0.906282 0.200729 0.232437 0.951673 
-0.370255 0.173761 0.912534 -0.380682 0.0429103 0.92371 0.352365 -0.0939467 0.931135 
0.0517589 -0.229601 0.971908 0.123653 0.102029 0.987066 0.85569 -0.457933 0.241022 
0.381241 -0.891172 -0.245903 
