# vtk DataFile Version 4.2
vtk output
ASCII
DATASET POLYDATA
POINTS 533 float
296.098 178.33 198.7 296.123 177.933 198.799 296.386 178.257 198.794 
296.556 178.011 198.922 295.981 178.722 198.639 296.227 179.159 198.765 
294.117 180.455 198.541 294.683 180.064 198.544 295.489 180.001 198.608 
295.727 180.339 198.741 293.397 181.757 198.6 294.103 181.338 198.487 
294.519 181.427 198.578 293.6 181.939 198.555 293.645 182.24 198.615 
293.887 182.354 198.671 295.742 177.63 199.015 296.759 177.914 199.104 
296.827 178.107 199.13 294.414 179.202 198.814 296.389 179.643 199 
293.12 181.146 198.79 295.629 180.848 198.842 292.137 182.136 199.283 
292.823 182.464 198.876 295.455 181.612 199.085 292.027 183.08 199.337 
292.999 182.877 198.902 293.993 182.729 198.872 296.504 176.951 199.507 
296.576 176.604 199.821 296.956 176.676 199.911 296.478 177.33 199.201 
296.731 177.221 199.4 297.087 178.078 199.525 294.171 178.709 199.26 
293.058 180.075 199.326 296.277 180.566 199.305 296.471 180.749 199.714 
291.51 183.649 199.715 294.019 183.843 199.585 291.583 184.822 199.915 
292.053 184.566 199.704 290.75 185.817 200.589 291.399 185.384 200.193 
292.446 185.177 200.001 296.963 176.295 200.261 297.157 176.282 200.507 
296.599 176.432 200.045 297.288 177.068 200.109 297.366 176.76 200.472 
297.372 177.283 200.161 291.158 182.872 200.093 293.614 184.749 200.09 
289.952 185.943 201.213 292.601 185.394 200.192 292.059 186.134 200.767 
290.381 186.704 201.392 296.877 176.24 200.36 297.105 176.182 200.679 
296.208 176.247 200.637 297.554 177.222 200.714 296.895 176.039 201.255 
297.3 176.281 201.214 297.729 177.243 201.729 291.331 180.583 201.352 
289.07 186.116 202.107 294.271 185.244 201.672 288.579 187.159 202.832 
290.469 187.738 202.376 288.745 188.001 203.107 290.144 188.104 202.786 
295.473 176.309 202.273 288.036 186.032 203.422 288.187 186.946 203.198 
290.616 187.995 202.7 288.448 188.567 203.575 288.167 188.702 203.803 
297.815 177.689 202.685 297.781 177.241 202.789 297.687 179.551 203.318 
296.664 182.635 203.269 295.909 183.758 202.728 288.058 185.448 203.608 
291.333 188.035 203.117 287.751 188.786 204.153 287.899 189.89 204.784 
288.59 189.494 204.316 296.561 175.949 203.124 297.173 176.156 202.759 
291.472 179.406 203.666 286.343 190.178 205.75 287.469 189.965 204.997 
286.306 190.844 206.113 288.203 190.371 205.332 287.431 190.871 205.861 
296.015 176.071 203.706 296.793 176.04 203.426 297.227 176.415 203.655 
297.442 176.776 203.882 285.545 189.5 206.338 285.253 189.325 206.72 
288.315 190.631 205.788 285.477 191.38 206.818 287.201 191.442 206.523 
284.981 191.981 207.358 284.814 192.096 207.544 285.742 192.236 207.207 
296.388 176.106 204.054 294.643 177.082 205.763 297.421 177.285 204.795 
291.299 179.387 205.229 296.872 182.395 205.526 284.314 191.514 208.008 
288.349 190.959 206.463 286.931 191.818 206.875 284.607 192.145 207.836 
286.012 192.307 207.222 284.905 192.742 207.963 285.338 192.884 207.919 
297.235 177.396 205.362 297.435 178.3 205.432 289.21 181.865 206.477 
296.626 182.613 206.95 286.477 185.618 207.202 294.453 186.028 207.026 
285.628 192.867 207.894 285.365 193.099 208.323 296.313 176.928 205.882 
296.94 176.879 205.273 297.055 177.142 205.469 295.604 177.181 206.442 
293.854 178.131 207.654 294.205 178.047 207.809 294.377 178.139 207.984 
285.387 187.048 208.331 291.953 188.542 207.784 284.23 190.065 208.599 
289.602 190.566 207.891 286.7 192.553 207.982 284.34 193.297 209.402 
284.902 193.421 209.074 284.492 193.462 209.619 296.105 177.126 206.257 
294.57 177.696 207.338 294.956 177.873 207.583 296.422 177.666 206.667 
296.755 178.033 206.567 294.67 178.135 207.968 293.508 178.862 208.514 
296.94 179.937 207.266 295.659 183.749 208.522 292.446 187.901 208.474 
283.561 191.945 209.975 287.671 192.152 208.667 283.682 192.514 209.835 
283.921 193.108 210.104 285.242 193.492 209.411 284.706 193.57 209.902 
296.079 178.272 207.566 296.488 181.837 208.229 294.334 185.276 209.175 
292.631 187.327 209.366 283.518 192.577 210.691 283.696 192.919 210.33 
283.769 193.06 210.551 285.761 193.373 210.016 284.329 193.482 210.6 
296.256 179.161 207.98 293.636 179.71 209.317 294.283 180.295 209.71 
295.979 180.888 208.855 292.545 181.961 210.777 294.362 184.427 209.899 
294.713 183.951 209.807 284.679 188.143 210.428 283.651 192.889 211.034 
283.745 193.037 210.867 284.565 193.548 210.89 295.268 179.564 208.933 
295.658 179.422 208.664 295.225 180.077 209.21 295.508 180.557 209.188 
291.452 181.643 210.173 294.183 180.879 209.99 291.608 182.492 210.923 
292.926 182.131 210.753 292.078 183.846 211.646 293.475 184.523 210.672 
294.096 183.718 210.395 292.066 184.021 211.678 283.655 192.781 211.288 
284.235 193.203 211.967 285.019 193.513 211.426 289.138 184.414 211.997 
290.909 183.436 211.465 289.656 184.352 212.027 290.187 184.28 212.003 
285.859 186.638 211.769 284.396 189.293 212.082 290.346 188.761 211.543 
289.313 189.914 211.873 288.445 190.668 212.295 283.654 192.377 211.605 
284.206 192.94 212.321 284.92 193.449 211.855 284.436 193.328 212.072 
288.72 184.647 212.097 287.886 185.154 212.278 288.962 185.512 212.776 
289.572 185.454 212.629 285.831 187.031 212.357 290.86 185.861 212.225 
290.595 186.388 212.409 290.343 187.082 212.457 288.68 189.713 212.855 
284.302 190.564 212.761 285.96 192.795 212.666 284.621 193.296 212.339 
284.885 193.205 212.609 288.43 186.677 213.365 285.213 188.576 213.054 
284.881 188.964 212.829 287.712 189.745 213.772 284.32 191.572 213.001 
284.403 191.926 213.14 284.62 191.988 213.405 284.516 192.657 213.064 
284.668 192.371 213.379 285.209 192.904 213.203 287.485 186.54 213.281 
288.312 186.302 213.247 287.072 187.665 213.877 287.355 188.317 214.039 
285.366 189.58 213.696 285.898 189.091 213.973 287.896 188.982 213.853 
287.318 190.021 213.93 285.262 190.695 213.827 284.868 191.613 213.639 
285.137 191.232 213.804 285.897 192.032 213.685 284.896 192.408 213.581 
285.639 192.231 213.697 284.95 192.606 213.549 285.129 192.79 213.409 
285.277 192.616 213.57 284.964 192.755 213.422 286.561 188.088 214.044 
286.307 188.184 213.934 287.287 188.849 214.126 286.256 188.915 214.168 
285.765 190.252 214.034 286.209 190.127 214.143 286.544 189.847 214.177 
287.007 189.764 214.112 285.981 191.173 213.972 285.114 192.153 213.745 
285.372 191.921 213.844 285.07 192.441 213.669 285.339 192.311 213.722 
286.423 188.343 214.123 286.633 188.312 214.171 286.44 188.596 214.204 
286.891 188.707 242.892 286.867 188.618 242.941 286.955 188.357 243.077 
286.915 189.016 242.994 286.35 189.23 243.164 286.536 189.836 243.18 
286.272 190.121 243.333 286.978 189.919 243.241 286.512 190.215 243.315 
288.269 185.858 243.964 286.286 187.334 243.952 287.973 187.445 243.462 
288.603 187.172 243.634 286.671 188.165 243.296 287.741 188.196 243.313 
288.32 188.361 243.556 289.272 188.267 244.101 285.493 189.701 243.763 
285.232 190.552 243.932 284.747 190.63 244.29 284.432 191.497 244.546 
286.226 190.686 243.574 287.441 190.716 243.972 286.781 191.456 244.106 
284.528 192.283 244.592 284.799 192.129 244.389 285.751 191.926 244.152 
284.48 192.617 244.759 284.587 192.872 244.855 284.843 192.874 244.749 
288.404 184.986 244.614 289.103 185.547 244.036 286.266 186.814 244.415 
289.63 185.774 244.023 290.673 186.136 244.59 285.303 188.287 244.428 
284.459 190.748 244.561 294.053 182.616 246.163 293.974 182.639 246.137 
294.166 182.507 246.268 293.998 182.791 246.198 287.253 185.291 245.241 
291.201 186.232 244.985 291.823 186.651 245.692 292.201 186.159 245.822 
289.111 189.324 244.487 284.296 190.214 245.083 288.579 189.881 244.349 
289.174 190.03 245.143 284.064 193.084 245.739 285.332 193.162 245.006 
284.624 193.313 245.327 295.825 179.225 247.418 295.771 178.972 247.506 
295.425 179.221 247.381 296.068 179.161 247.549 295.978 179.503 247.43 
295.455 180.112 247.118 295.438 180.976 247.099 296.067 180.312 247.543 
294.055 182.234 246.291 293.774 182.621 246.136 290.379 183.946 245.137 
291.076 183.683 245.351 293.277 182.762 246.039 294.402 182.683 246.494 
287.06 185.074 245.982 292.593 184.04 245.714 294.129 183.988 246.677 
284.88 188.499 245.287 284.585 189.124 245.401 290.25 188.732 245.355 
283.717 191.86 245.796 283.639 192.066 245.995 283.68 192.648 246.211 
285.772 193.169 245.302 285.042 193.44 245.42 295.892 178.087 248.067 
296.496 177.949 248.418 296.584 178.586 248.166 296.803 178.297 248.486 
296.545 179.092 248.024 296.065 181.007 247.697 289.547 190.193 246.126 
283.641 191.768 246.536 283.965 193.139 246.602 284.447 193.519 246.67 
284.74 193.599 246.453 295.759 177.932 248.199 296.722 177.808 248.695 
296.723 178.032 248.507 297.027 178.288 248.855 292.165 180.075 247.821 
293.368 179.775 247.438 294.535 179.628 247.215 293.041 180.269 247.16 
296.782 179.855 248.393 290.664 181.207 247.804 286.909 184.843 247.115 
295.785 182.742 247.945 293.338 186.213 247.354 284.056 190.254 247.002 
283.701 192.701 246.872 283.995 193.07 247.155 296.347 177.268 249.187 
296.076 177.209 249.257 296.861 177.652 249.02 293.066 179.085 248.353 
290.726 180.75 248.529 297.335 179.9 249.584 296.936 181.319 249.365 
294.471 185.465 248.529 292.561 187.735 248.576 286.216 193.215 247.159 
284.379 193.327 247.89 296.918 177.226 249.693 296.713 176.895 250.153 
296.987 177.49 249.384 297.458 178.335 249.873 287.35 184.155 248.889 
296.842 181.774 249.562 286.503 185.395 249.113 284.84 189.016 248.683 
284.051 192.292 247.991 284.499 193.333 248.192 284.714 193.549 247.859 
297.276 176.955 250.729 292.798 177.999 251.304 297.548 177.891 250.433 
291.217 179.589 250.32 290.489 180.301 250.715 295.055 185.325 250.118 
289.254 190.802 249.203 286.604 192.78 248.421 284.606 193.235 248.445 
284.781 193.147 248.676 284.642 193.402 248.286 285.347 193.416 248.199 
285.076 193.472 248.258 296.9 176.252 251.537 297.072 176.216 251.765 
[...]
POINT_DATA 533
SCALARS scalars float
LOOKUP_TABLE default
1 1 1 1 1 1 1 1 1 
1 1 1 1 1 1 1 1 1 
1 1 1 1 1 1 1 1 1 
1 1 1 1 1 1 1 1 1 
1 1 1 1 1 1 1 1 1 
1 1 1 1 1 1 1 1 1 
1 1 1 1 1 1 1 1 1 
1 1 1 1 1 1 1 1 1 
1 1 1 1 1 1 1 1 1 
1 1 1 1 1 1 1 1 1 
1 1 1 1 1 1 1 1 1 
1 1 1 1 1 1 1 1 1 
1 1 1 1 1 1 1 1 1 
1 1 1 1 1 1 1 1 1 
1 1 1 1 1 1 1 1 1 
1 1 1 1 1 1 1 1 1 
1 1 1 1 1 1 1 1 1 
1 1 1 1 1 1 1 1 1 
1 1 1 1 1 1 1 1 1 
1 1 1 1 1 1 1 1 1 
1 1 1 1 1 1 1 1 1 
1 1 1 1 1 1 1 1 1 
1 1 1 1 1 1 1 1 1 
1 1 1 1 1 1 1 1 1 
1 1 1 1 1 1 1 1 1 
1 1 1 1 1 1 1 1 1 
1 1 1 1 1 1 1 1 1 
1 1 1 1 1 1 1 1 1 
1 1 1 1 1 1 1 1 1 
1 1 1 1 1 1 1 1 1 
1 1 1 1 1 1 1 1 1 
1 1 1 1 1 1 1 1 1 
1 1 1 1 1 1 1 1 1 
1 1 1 1 1 1 1 1 1 
1 1 1 1 1 1 1 1 1 
1 1 1 1 1 1 1 1 1 
1 1 1 1 1 1 1 1 1 
1 1 1 1 1 1 1 1 1 
1 1 1 1 1 1 1 1 1 
1 1 1 1 1 1 1 1 1 
1 1 1 1 1 1 1 1 1 
1 1 1 1 1 1 1 1 1 
1 1 1 1 1 1 1 1 1 
1 1 1 1 1 1 1 1 1 
1 1 1 1 1 1 1 1 1 
1 1 1 1 1 1 1 1 1 
1 1 1 1 1 1 1 1 1 
1 1 1 1 1 1 1 1 1 
1 1 1 1 1 1 1 1 1 
1 1 1 1 1 1 1 1 1 
1 1 1 1 1 1 1 1 1 
1 1 1 1 1 1 1 1 1 
1 1 1 1 1 1 1 1 1 
1 1 1 1 1 1 1 1 1 
1 1 1 1 1 1 1 1 1 
1 1 1 1 1 1 1 1 1 
1 1 1 1 1 1 1 1 1 
1 1 1 1 1 1 1 1 1 
1 1 1 1 1 1 1 1 1 
1 1 
NORMALS Normals float
-0.0064372 -0.234432 -0.972111 0.21375 -0.402321 -0.890196 0.462936 -0.0158988 -0.886249 
0.432637 -0.273587 -0.859055 0.323424 0.0432192 -0.945267 0.399142 0.0801698 -0.913377 
-0.142085 -0.179926 -0.973365 -0.305038 -0.215682 -0.927595 0.209165 0.142283 -0.967474 
0.479637 0.223053 -0.848643 -0.324293 -0.00904382 -0.945913 0.06041 0.0422042 -0.997281 
0.242979 0.207496 -0.94758 0.0109508 0.102023 -0.994722 -0.130406 0.285151 -0.94957 
0.204772 0.27374 -0.939753 -0.291079 -0.55286 -0.780781 0.655462 -0.309259 -0.689006 
0.686651 0.0432625 -0.725699 -0.506716 -0.231116 -0.830557 0.688975 0.213194 -0.69272 
-0.50904 -0.382643 -0.771014 0.44359 0.362612 -0.819598 -0.605833 -0.0913935 -0.790325 
-0.407107 0.146219 -0.901601 0.464385 0.407314 -0.786411 -0.522818 0.0457734 -0.851215 
-0.283484 0.27703 -0.918091 0.0967877 0.411079 -0.906447 -0.144157 -0.689139 -0.710145 
-0.0844768 -0.727992 -0.680362 0.593629 -0.425599 -0.682986 0.20721 -0.522605 -0.827011 
0.472379 -0.419559 -0.775131 0.924823 0.127218 -0.358494 -0.684067 -0.531473 -0.499589 
-0.591235 -0.385029 -0.708656 0.684709 0.355431 -0.636272 0.810467 0.377014 -0.448335 
-0.583656 0.136803 -0.800394 0.510507 0.55572 -0.656169 -0.390531 0.26589 -0.881355 
-0.0135924 0.388546 -0.921329 -0.299953 0.450545 -0.840855 -0.201534 0.472959 -0.857726 
0.0489581 0.495874 -0.867013 0.283458 -0.795646 -0.535349 0.730606 -0.575476 -0.367481 
-0.40643 -0.851157 -0.332184 0.812617 -0.222984 -0.538453 0.875367 -0.343141 -0.340567 
0.820829 -0.126013 -0.557101 -0.816695 -0.188449 -0.545433 0.365054 0.575969 -0.731434 
-0.59839 0.175927 -0.781651 0.300515 0.707337 -0.639816 0.173929 0.728822 -0.662244 
-0.281478 0.586651 -0.759349 -0.276163 -0.950783 -0.140521 0.262689 -0.957704 -0.117465 
-0.401849 -0.831385 -0.383818 0.96729 -0.0856695 -0.238769 -0.0129656 -0.991844 -0.126794 
0.87664 -0.472792 -0.0892717 0.973924 -0.217343 -0.0650705 -0.804657 -0.405859 -0.433366 
-0.716738 0.0488992 -0.695626 0.657018 0.702471 -0.273607 -0.677609 0.174344 -0.714458 
0.0262885 0.708081 -0.705642 -0.466937 0.444667 -0.764357 -0.0114743 0.755692 -0.654827 
-0.501468 -0.858948 -0.103626 -0.811364 -0.0918995 -0.577272 -0.739159 0.140547 -0.658704 
0.194165 0.800675 -0.566762 -0.395612 0.440361 -0.805961 -0.449296 0.412442 -0.79248 
0.999742 -0.0218723 -0.00616131 0.939092 -0.340235 0.0484339 0.975772 0.198229 -0.0925959 
0.87133 0.475884 -0.119664 0.826873 0.477503 -0.297106 -0.830154 -0.263939 -0.491102 
0.395066 0.80257 -0.446995 -0.639127 0.226615 -0.734957 -0.245381 0.706185 -0.664147 
-0.082417 0.682152 -0.726551 0.102914 -0.993434 0.0499705 0.596999 -0.800986 0.0448867 
-0.771655 -0.617324 -0.153165 -0.529443 0.367365 -0.764678 -0.35751 0.533993 -0.766184 
-0.337 0.524551 -0.781842 -0.127961 0.836847 -0.532272 -0.0439363 0.730517 -0.68148 
-0.214757 -0.971965 0.0957305 0.326003 -0.920559 0.215158 0.724722 -0.661137 0.194101 
0.919905 -0.333834 0.205743 -0.746941 0.118003 -0.654335 -0.858366 -0.0889181 -0.505274 
0.200928 0.848087 -0.490281 -0.400279 0.364807 -0.84065 0.26474 0.821526 -0.504982 
-0.639987 0.212788 -0.738335 -0.609796 0.360737 -0.705704 -0.223477 0.602589 -0.766123 
0.0495177 -0.943162 0.328624 -0.355085 -0.9053 0.233125 0.897724 -0.342813 0.276714 
-0.656641 -0.741408 0.138334 0.923127 0.378844 0.0656734 -0.827354 0.0746011 -0.556705 
0.390427 0.841092 -0.374341 0.183485 0.736714 -0.650834 -0.824284 0.233798 -0.515649 
0.0458152 0.678903 -0.732797 -0.467428 0.658503 -0.589818 -0.155715 0.791776 -0.59063 
0.833211 -0.375458 0.405944 0.932888 -0.107802 0.343655 -0.784322 -0.619854 -0.0248926 
0.917887 0.357194 0.172903 -0.854984 -0.442566 -0.27044 0.807353 0.576351 0.126491 
0.140205 0.860522 -0.48974 -0.0736118 0.902147 -0.425103 0.164943 -0.911893 0.375826 
0.553814 -0.775869 0.302188 0.682697 -0.490878 0.541261 -0.0431455 -0.909233 0.414046 
-0.470686 -0.775731 0.420352 -0.172812 -0.814581 0.553709 -0.188468 -0.724733 0.662753 
-0.889269 -0.441839 -0.118235 0.678998 0.716166 0.161457 -0.892072 -0.290679 -0.345995 
0.604012 0.792831 -0.0811699 0.377733 0.853126 -0.359852 -0.615468 0.667876 -0.418497 
0.0114608 0.850742 -0.525459 -0.370846 0.908376 -0.193202 0.435338 -0.701119 0.564724 
-0.148103 -0.893332 0.424291 0.109752 -0.823402 0.556744 0.45575 -0.678604 0.576011 
0.771595 -0.380524 0.509747 0.126914 -0.700144 0.702632 -0.203837 -0.693292 0.691228 
0.860187 -0.0987346 0.500329 0.822991 0.517823 0.233551 0.679764 0.721441 0.132074 
-0.984287 -0.00296731 -0.176553 0.57902 0.794513 -0.18299 -0.872374 0.338672 -0.352513 
-0.641939 0.745792 -0.178072 0.236581 0.906611 -0.349407 -0.0776246 0.99522 -0.0592506 
0.567234 -0.492153 0.660326 0.924989 0.145625 0.350983 0.787257 0.457747 0.413152 
0.691849 0.582926 0.426079 -0.959543 0.28121 -0.0140786 -0.890277 0.413561 -0.190718 
-0.7156 0.697343 -0.0403738 0.490785 0.869518 -0.0554031 -0.541308 0.829122 0.139796 
0.750797 -0.292673 0.592153 -0.0736937 -0.575488 0.814483 0.235419 -0.494846 0.836484 
0.666084 -0.115905 0.736816 -0.0208901 -0.472551 0.881056 0.76772 0.366281 0.525779 
0.739674 0.20611 0.640625 -0.782264 -0.584652 -0.215045 -0.915132 0.384341 0.121714 
-0.636218 0.763966 0.107617 -0.238216 0.947979 0.21116 0.369724 -0.447216 0.814434 
0.549034 -0.377839 0.745519 0.322869 -0.449172 0.833067 0.548636 -0.194372 0.813153 
-0.0836631 -0.570974 0.816694 0.141375 -0.414207 0.899136 -0.0749536 -0.4701 0.879425 
0.413813 -0.16924 0.894492 0.244359 -0.289591 0.925433 0.605196 0.190992 0.772826 
0.611971 0.0305815 0.790289 0.27482 -0.182429 0.944031 -0.723254 0.654963 0.218924 
-0.705551 0.628283 0.327807 0.125155 0.964575 0.23223 -0.0145513 -0.637592 0.770236 
-0.0663322 -0.501006 0.862898 -0.0834518 -0.651174 0.754327 0.0529372 -0.497171 0.866036 
-0.746686 -0.635551 0.196303 -0.950889 -0.276297 0.139537 0.722908 0.456385 0.518764 
0.668289 0.66232 0.338707 0.646118 0.652118 0.396578 -0.952946 0.101406 0.285676 
-0.69785 0.560492 0.44593 0.104523 0.967525 0.230153 -0.431459 0.886465 0.167399 
-0.399164 -0.355365 -0.845212 -0.358909 -0.651729 0.668157 0.0101133 -0.53547 0.844494 
0.262492 -0.321147 0.909924 -0.641667 -0.591901 0.487767 0.49586 -0.0295015 0.867901 
0.566007 0.033501 0.823719 0.696092 0.280709 0.660802 0.647917 0.441632 0.620616 
-0.898846 -0.160582 0.407785 0.488594 0.810334 0.323472 -0.3773 0.846197 0.37629 
0.182267 0.911352 0.369076 0.213965 -0.271344 0.938398 -0.716283 -0.461251 0.523628 
-0.769042 -0.315307 0.556018 0.543896 0.35778 0.759059 -0.892506 -0.0527031 0.447946 
-0.846001 0.0437507 0.531383 -0.722478 0.0938363 0.684997 -0.813116 0.292348 0.503364 
-0.686507 0.208465 0.696599 0.178119 0.867216 0.464984 -0.272515 -0.558826 0.78323 
0.0142719 -0.420369 0.907241 -0.105363 -0.524496 0.844869 0.216513 -0.240013 0.946317 
-0.641811 -0.195115 0.741626 -0.542038 -0.190418 0.818496 0.529633 0.0854159 0.843915 
0.428043 0.366335 0.826183 -0.541204 -0.0878096 0.836294 -0.620989 -0.0387139 0.782863 
-0.536858 -0.0741513 0.840407 0.441747 0.421691 0.791856 -0.668733 0.224937 0.708661 
0.302964 0.437649 0.846567 -0.270381 0.549553 0.790497 0.00244956 0.76426 0.644904 
0.337636 0.66655 0.664615 -0.459779 0.684586 0.565637 -0.212659 -0.526643 0.823057 
-0.598302 -0.429531 0.676415 0.293468 0.027685 0.955568 -0.381928 -0.0242946 0.923873 
-0.341523 -0.0539858 0.938322 0.16598 0.208218 0.963896 -0.129091 0.034007 0.991049 
0.253356 0.17475 0.951459 0.0704686 0.187517 0.97973 -0.422457 0.123989 0.897862 
-0.125746 0.149886 0.980674 -0.225075 0.353355 0.90801 0.0631921 0.362951 0.929663 
-0.467521 -0.344778 0.813973 -0.0465154 -0.316297 0.947519 -0.215106 -0.120736 0.969099 
-0.033299 -0.0589005 -0.997708 -0.263817 -0.419173 -0.868732 -0.0209681 -0.585838 -0.810157 
0.15487 0.233821 -0.959866 -0.568074 -0.170055 -0.805216 -0.221415 0.208697 -0.952586 
-0.379016 0.25216 -0.890372 0.345757 0.321401 -0.881563 0.0560943 0.441031 -0.895737 
-0.2468 -0.439691 -0.863575 -0.61065 -0.383041 -0.693099 0.0425286 -0.187439 -0.981355 
0.287238 -0.0760921 -0.954832 -0.327368 -0.45932 -0.825745 0.19295 -0.228047 -0.95434 
0.450436 0.162629 -0.877872 0.620322 0.252078 -0.742737 -0.6021 -0.0604181 -0.796131 
-0.553923 -0.0639957 -0.830105 -0.659799 -0.247963 -0.709351 -0.754179 0.102304 -0.648651 
-0.240771 0.315588 -0.917842 0.445249 0.525295 -0.725133 0.372198 0.596691 -0.710935 
-0.443664 0.419154 -0.792131 -0.309263 0.369326 -0.87633 -0.0509437 0.506997 -0.860441 
-0.645013 0.385356 -0.659893 -0.375588 0.575865 -0.726163 -0.182959 0.580013 -0.793796 
-0.303892 -0.674837 -0.672492 -0.0196171 -0.473111 -0.880784 -0.680208 -0.581289 -0.446565 
0.355209 -0.129769 -0.925736 0.400899 0.456582 -0.794237 -0.7452 -0.324811 -0.582387 
-0.808374 -0.153 -0.568439 0.417474 -0.132912 -0.898916 0.154645 0.0120676 -0.987896 
0.716784 -0.0281951 -0.696725 0.417814 0.280405 -0.864178 -0.521854 -0.682596 -0.511597 
0.622524 -0.0722602 -0.779257 0.555115 0.499673 -0.664962 0.65349 0.171534 -0.737243 
0.661253 0.369475 -0.652865 -0.83469 -0.298036 -0.463106 0.547961 0.596433 -0.58652 
0.638079 0.606685 -0.474118 -0.779495 0.504624 -0.371137 0.0768273 0.755976 -0.650075 
-0.443654 0.809049 -0.385501 0.247072 -0.237249 -0.939504 0.195488 -0.438294 -0.877316 
0.0474491 -0.342919 -0.938166 0.547538 -0.246316 -0.799707 0.497854 -0.0790636 -0.86365 
0.275666 -0.114242 -0.954441 0.462261 0.00246617 -0.886741 0.749944 0.146624 -0.645047 
0.350205 -0.244915 -0.904087 0.0929308 -0.173908 -0.980367 0.10893 -0.432817 -0.894876 
0.148321 -0.261099 -0.953849 0.269223 0.0071722 -0.963051 0.672987 0.0964284 -0.733342 
-0.601679 -0.735839 -0.310682 0.40808 -0.0498214 -0.911586 0.668345 0.306416 -0.677809 
-0.84667 -0.465805 -0.257246 -0.910621 -0.409414 -0.0561175 0.752183 0.51055 -0.416606 
-0.93843 -0.110416 -0.32735 -0.948907 0.0718994 -0.307256 -0.936334 0.289131 -0.199201 
0.565104 0.773443 -0.28713 0.0680135 0.939518 -0.335678 0.113527 -0.566334 -0.816319 
0.321075 -0.620737 -0.71526 0.770724 -0.0869398 -0.63121 0.743656 -0.238161 -0.624704 
0.805201 -0.0364988 -0.591878 0.776597 0.20469 -0.595818 0.621269 0.748505 -0.231873 
-0.990273 -0.132234 0.0432806 -0.711453 0.701856 -0.0351066 -0.508293 0.860913 -0.0216252 
-0.00070876 0.99652 -0.0833551 -0.0882996 -0.738244 -0.66873 0.701963 -0.503582 -0.50364 
0.631273 -0.376724 -0.677919 0.886127 -0.0807764 -0.456349 -0.373514 -0.817511 -0.438364 
-0.449593 -0.627227 -0.635966 -0.0831961 -0.472198 -0.877558 -0.259434 -0.677592 -0.688159 
0.826441 0.094138 -0.555098 -0.611509 -0.648644 -0.45312 -0.815944 -0.571661 -0.0862471 
0.788788 0.343609 -0.509654 0.727598 0.553299 -0.405539 -0.952851 -0.226645 0.201759 
-0.937492 0.304004 0.169382 -0.754683 0.627061 0.192998 0.225156 -0.813014 -0.536948 
-0.108576 -0.88126 -0.459992 0.524446 -0.675146 -0.518781 -0.446319 -0.728067 -0.520306 
-0.696043 -0.653665 -0.297062 0.927557 0.206017 -0.311762 0.88665 0.227736 -0.402478 
0.796914 0.516506 -0.313287 0.692862 0.706389 -0.14476 0.47002 0.882246 -0.0268921 
-0.782324 0.558377 0.276017 0.558458 -0.679757 -0.475452 0.249642 -0.839689 -0.482287 
0.544445 -0.654047 -0.52517 0.919969 -0.144286 -0.36447 -0.731652 -0.679869 0.0496275 
0.904238 0.355821 -0.236103 -0.853501 -0.492625 0.169873 -0.935156 -0.29753 0.19225 
-0.874412 0.116651 0.470952 -0.766804 0.508603 0.39158 -0.193533 0.976852 0.0911309 
0.718432 -0.584955 -0.376407 -0.527165 -0.824734 -0.204723 0.952818 -0.168865 -0.252235 
-0.613792 -0.75666 -0.22522 -0.786115 -0.616029 -0.0503087 0.825957 0.517181 -0.224321 
0.683504 0.726096 -0.0748791 0.513393 0.808782 0.28688 -0.631669 0.520282 0.574718 
-0.494071 0.48874 0.719046 -0.388104 0.836624 0.38657 0.38738 0.880712 0.272548 
0.0571699 0.955753 0.288561 0.319797 -0.849825 -0.418959 0.342342 -0.88266 -0.322045 
0.994447 -0.0751075 -0.073717 0.975553 0.144225 -0.165818 -0.804249 -0.586931 0.0932531 
0.701322 0.712605 -0.0185056 -0.806485 -0.0914787 0.584135 -0.863203 -0.0287214 0.504039 
-0.791605 0.101405 0.60256 -0.704354 0.205367 0.679492 0.205007 0.779197 0.592304 
-0.163173 0.742151 0.650067 0.119697 0.730885 0.671922 0.314702 0.77426 0.549075 
-0.0441835 0.65814 0.751598 -0.0364525 0.84516 0.533269 -0.207827 -0.959628 -0.189533 
0.0110129 -0.999558 -0.0275988 0.308243 -0.939666 -0.148369 0.799533 -0.540799 -0.261309 
0.552348 -0.818378 -0.158646 0.891904 0.449985 0.0449427 0.778563 0.622819 0.077048 
-0.833679 -0.112841 0.540599 -0.664069 0.120922 0.737828 0.489531 0.838058 0.240869 
-0.497308 0.362111 0.788391 -0.531835 0.374162 0.759707 -0.369099 0.533892 0.76074 
0.0885874 0.722647 0.685517 0.148371 0.804047 0.575756 0.26799 0.850655 0.452292 
-0.20808 0.591941 0.778659 0.817928 -0.5695 -0.0816248 -0.769219 -0.579958 0.268236 
0.970474 0.233486 0.060533 -0.847379 -0.302707 0.436253 -0.57053 0.307947 0.761357 
-0.308909 0.456877 0.834169 -0.419014 0.520125 0.744243 -0.126009 0.658497 0.74196 
0.062677 0.781731 0.620458 0.528109 -0.846286 0.0699994 0.793669 -0.602435 0.0846201 
-0.65062 -0.747983 0.131207 -0.848718 -0.398279 0.347925 -0.743231 0.0843645 0.663694 
0.433281 0.821617 0.370423 0.0370938 -0.997949 0.0521801 -0.418662 -0.895243 0.152516 
0.895316 -0.435863 0.0918291 0.463844 0.843151 0.27193 0.667119 0.668045 0.329648 
-0.345135 0.669054 0.658216 -0.0769298 -0.962932 0.258541 0.161728 -0.977124 0.1381 
-0.289989 -0.894744 0.339618 -0.573548 -0.716671 0.39677 -0.77061 -0.185719 0.609646 
-0.766923 -0.347555 0.539476 -0.757573 -0.0136867 0.652606 0.360052 0.769796 0.527044 
-0.707805 0.184216 0.681965 0.164388 0.782787 0.600184 -0.0189869 0.75767 0.652362 
-0.423458 0.598404 0.680144 0.207455 -0.931428 0.299007 0.598673 -0.787105 0.148515 
0.974596 -0.16548 0.150924 0.663976 0.585307 0.465351 -0.564804 0.248182 0.787021 
-0.389263 0.464251 0.795579 -0.0480127 0.634323 0.771576 0.171533 -0.883367 0.436165 
0.766667 -0.538555 0.349542 -0.562597 -0.575349 0.593683 0.94806 -0.0770802 0.30861 
0.823517 0.379773 0.421416 -0.367579 0.322428 0.872311 -0.268819 0.50615 0.819481 
0.148066 0.742045 0.653794 -0.231307 0.474625 0.849252 -0.0961211 -0.751082 0.653174 
0.605502 -0.630511 0.485616 0.838418 -0.341943 0.424418 -0.355691 -0.758876 0.545519 
0.8009 -0.0921631 0.591664 -0.702688 -0.446098 0.554279 0.852535 0.0630365 0.518855 
-0.702606 -0.184781 0.687169 -0.54627 0.143103 0.825294 0.258079 0.461228 0.848919 
-0.240585 0.340802 0.908831 0.342794 0.588614 0.732138 0.0506727 0.528751 0.847263 
0.320292 -0.638394 0.699905 0.687486 -0.467346 0.555834 -0.191389 -0.507355 0.840215 
0.0471323 -0.611841 0.789575 0.323678 -0.502928 0.801434 0.74591 -0.261396 0.612609 
0.58331 0.0448286 0.811011 -0.353117 -0.465392 0.811615 0.615443 0.196444 0.763309 
-0.483221 -0.115129 0.867896 0.513099 0.296004 0.805675 -0.546489 0.0682944 0.834677 
-0.327245 0.141656 0.934261 0.046058 0.234159 0.971107 -0.121549 0.38549 0.914671 
0.49724 -0.29789 0.81487 -0.109595 -0.41315 0.904044 0.402979 -0.242919 0.882382 
0.118051 -0.25748 0.959045 -0.0186504 -0.375806 0.926511 0.297089 -0.116808 0.947678 
-0.345947 -0.242411 0.906398 -0.483158 -0.322206 0.81409 0.14165 -0.406668 0.902528 
0.472329 0.0419912 0.880422 0.098083 0.246125 0.964263 -0.694551 -0.180762 0.696365 
-0.523854 -0.0848673 0.84757 -0.235742 -0.0127548 0.971732 -0.155214 0.111533 0.981565 
0.309691 0.0382362 0.950068 -0.399164 -0.355365 -0.845212 -0.0437196 -0.496464 0.866956 
-0.399164 -0.355365 -0.845212 0.842913 0.506892 0.18044 
