# vtk DataFile Version 4.2
vtk output
ASCII
DATASET POLYDATA
POINTS 785 float
321.577 162.915 134.552 321.553 162.889 134.569 321.535 162.927 134.567 
321.635 162.866 134.611 321.555 162.956 134.651 322.077 162.321 134.787 
322.006 162.28 134.842 321.983 162.371 134.776 321.556 162.785 134.671 
321.426 162.924 134.676 321.755 162.733 134.711 322.069 162.398 134.814 
321.762 162.887 134.786 321.021 162.261 135.278 321.63 162.042 135.243 
322.424 162.088 135.119 322.425 161.866 135.344 322.324 161.983 135.139 
322.597 161.935 135.333 320.409 162.557 135.429 321.724 162.495 134.823 
322.152 162.088 135.025 322.648 162.043 135.308 322.588 162.243 135.239 
321.193 162.784 134.901 322.048 162.62 134.88 322.405 162.498 135.11 
322.759 162.256 135.499 319.228 163.266 135.938 320.791 163.163 135.171 
322.482 162.61 135.29 319.696 163.559 135.825 320.808 163.696 135.678 
322.393 162.767 135.394 322.221 161.925 135.211 322.724 161.927 135.473 
322.909 161.953 135.888 318.769 162.998 136.321 319.55 162.847 135.81 
319.209 162.729 136.13 322.774 162.381 135.638 322.89 162.176 135.862 
319.321 163.748 136.13 319.581 163.811 136.07 322.583 161.485 136.109 
318.428 163.192 136.548 318.262 163.445 136.708 322.895 162.509 136.533 
319.585 163.986 136.325 320.002 164.124 136.56 320.282 161.507 137.237 
323.011 161.721 136.641 316.95 163.172 138.042 317.58 164.257 137.758 
320.383 164.283 137.309 322.594 161.139 137.376 317.292 162.488 138.439 
322.962 162.659 137.828 315.594 164.566 139.221 315.593 164.472 139.194 
315.473 164.564 139.379 322.464 163.261 137.598 317.92 164.885 138.529 
318.546 164.844 138.494 322.643 161.022 137.741 322.624 160.981 137.924 
322.717 161.071 137.905 321.714 160.95 138.276 322.979 161.418 137.376 
323.098 161.74 137.941 323.094 162.393 138.29 315.69 164.231 139.165 
316.074 164.505 138.932 316.775 165.038 139.119 319.886 164.744 138.783 
322.624 160.984 138.12 321.025 160.845 139.489 317.324 161.943 139.638 
314.456 165.196 140.94 315.894 165.215 139.887 316.883 165.447 139.968 
321.465 160.85 139.848 322.514 161.092 138.884 313.661 164.53 141.537 
313.757 165.019 141.473 320.73 160.709 140.873 321.256 160.828 140.749 
322.28 161.088 139.712 314.807 162.809 141.871 322.965 162.478 140.386 
321.852 164.06 141.075 322.73 161.644 140.59 322.876 161.968 140.606 
322.173 163.61 141.897 311.98 165.445 143.595 318.439 165.822 141.883 
319.814 165.42 142.586 322.039 161.29 141.499 322.381 161.563 141.524 
322.642 161.728 141.128 322.515 162.919 141.918 311.412 165.746 144.447 
311.008 165.68 144.946 311.275 166.085 144.796 312.397 166.217 143.902 
314.465 166.498 143.14 311.357 166.407 145.083 319.737 160.888 143.6 
321.723 161.627 143.359 322.312 162.013 142.498 315.423 161.826 144.56 
322.238 162.259 142.998 322.35 163 142.589 322.235 163.295 142.695 
315.704 166.755 144.246 320.274 161.08 144.318 321.338 161.623 144.03 
322.208 162.506 143.201 310.446 165.623 145.841 320.469 164.982 144.266 
310.013 166.207 146.458 309.86 166.409 146.747 309.954 166.814 146.909 
314.057 162.286 146.141 309.329 166.221 147.512 309.037 166.515 147.951 
318.112 161.071 146.524 320.066 161.463 146.102 308.695 166.5 148.524 
320.079 164.99 146.638 308.763 167.189 148.654 320.819 162.929 146.812 
308.967 165.772 148.555 309.662 164.898 148.583 308.115 167.519 149.75 
308.554 167.648 149.352 309.191 168.237 149.669 309.31 168.546 150.225 
309.823 168.691 150.388 308.006 166.339 150.144 307.944 165.916 150.956 
319.561 164.818 149.77 307.101 166.857 151.504 307.08 167.707 151.274 
306.648 168.013 151.844 306.549 168.327 152.098 306.836 168.718 152.183 
310.361 168.872 150.853 319.424 162.822 150.332 305.945 168.411 152.816 
306.436 169.09 152.804 306.181 169.13 153 309.133 164.426 152.244 
317.824 166.474 151.924 305.38 168.808 153.753 311.618 169.052 151.847 
318.721 162.682 151.714 319.499 163.799 150.922 305.749 167.307 153.789 
305.065 168.833 154.231 304.863 168.697 154.621 308.808 169.88 153.911 
306.651 166.031 154.124 304.608 169.035 155.109 304.446 169.432 155.551 
304.461 169.759 155.798 304.277 169.651 156.003 304.116 169.66 156.457 
304.109 170.017 157.037 304.449 170.249 156.678 316.012 162.163 154.267 
313.361 162.533 156.351 314.749 162.382 155.487 315.568 162.314 154.939 
318.021 163.665 154.712 315.847 167.832 155.899 312.842 169.462 156.17 
304.888 170.724 157.067 305.753 170.804 156.712 316.715 163.021 155.802 
317.912 164.184 155.323 303.922 168.927 157.003 303.803 169.204 157.399 
314.931 168.493 156.114 303.732 170.002 158.391 307.144 171.074 157.368 
308.386 170.876 157.257 303.83 170.468 158.958 316.594 163.45 156.952 
315.575 167.974 157.654 304.531 171.215 159.378 315.408 163.042 157.867 
316.035 163.278 157.587 316.963 164.901 157.593 316.535 166.705 158.151 
304.032 167.617 159.192 305.06 171.579 160.001 307.919 164.322 159.583 
316.188 164.339 158.963 316.576 165.754 158.831 315.997 167.361 158.928 
306.87 171.714 160.182 304.444 171.704 161.279 313.65 163.081 159.922 
316.297 166.627 159.486 302.855 170.93 162.924 304.399 171.882 162.25 
305.512 172.08 161.827 313.718 163.359 160.781 315.661 165.296 161.061 
315.823 165.695 160.964 316.171 166.144 160.095 316.227 166.478 159.842 
302.858 171.332 164.106 305.989 172.136 162.06 315.378 165.391 161.766 
315.461 166.546 161.726 302.47 169.69 163.561 302.479 170.892 164.419 
304.242 172.17 164.072 305.465 172.316 163.491 314.046 164.335 162.58 
309.101 163.967 164.203 304.196 166.45 164.162 315.084 166.106 162.669 
302.237 170.193 164.401 311.909 170.288 162.972 309.047 171.77 163.771 
306.651 172.332 163.817 314.249 165.06 163.51 309.825 171.485 164.428 
310.067 164.041 165.35 311.327 164.319 165.718 307.393 164.517 165.451 
312.478 164.625 165.191 314.206 165.562 164.087 301.883 170.626 166.88 
311.528 170.362 165.569 312.935 165.56 166.089 313.091 168.533 165.993 
312.47 169.331 166.402 301.674 170.11 168.218 312.568 168.856 167.125 
301.873 172.251 169.061 303.463 173.001 168.982 301.891 172.375 169.386 
308.899 164.819 168.99 302.988 167.375 168.696 312.821 167.291 167.36 
312.502 168.133 167.913 311.606 169.734 168.454 310.319 170.991 168.025 
301.38 171.552 170.278 302.968 173.043 170.102 304.436 173.162 169.412 
304.542 166.096 170.062 311.733 169.428 168.669 301.315 170.714 170.446 
301.713 172.285 170.752 305.618 165.586 170.613 308.856 165.34 170.68 
301.301 171.559 171.888 301.934 172.484 171.374 305.075 173.169 170.708 
301.199 170.408 171.974 302.156 172.705 172.728 309.006 165.913 172.048 
304.724 166.401 173.166 310.4 167.512 172.031 301.126 170.914 172.491 
301.143 170.993 173 309.058 171.177 172.363 302.259 172.77 173.78 
306.424 165.965 173.519 309.288 166.631 173.129 301.632 169.383 173.757 
301.278 170.227 173.757 301.272 171.31 174.316 301.629 172.162 174.443 
301.879 172.458 175.021 305.888 166.137 173.944 308.561 166.783 174.337 
301.47 169.873 175.111 301.25 170.832 174.897 307.751 171.721 174.268 
302.864 172.952 175.157 304.724 172.866 174.839 308.568 167.933 175.622 
309.266 167.603 174.157 309.041 168.639 175.139 309.035 169.225 175.154 
307.624 171.479 175.331 301.774 172.367 176.795 302.094 172.607 176.447 
306.711 166.554 175.494 307.636 166.921 175.595 303.863 167.405 176.252 
307.768 167.309 176.029 308.211 168.248 176.421 302.969 168.228 177.145 
302.129 169.055 177.144 301.296 170.908 176.974 308.285 170.516 175.889 
308.214 170.148 176.448 301.397 171.776 177.77 301.542 172.087 177.22 
305.757 172.289 176.295 305.755 166.958 176.732 306.728 167.089 176.662 
307.715 168.386 177.29 303.489 167.952 177.543 308.014 169.368 177.144 
301.323 171.416 178.433 307.186 170.847 177.765 301.702 172.292 178.164 
306.119 167.281 177.416 306.547 167.434 177.391 307.421 170.09 178.078 
307.26 170.526 178.07 307.008 170.421 178.647 301.619 172.076 179.216 
302.704 172.64 178.318 302.039 172.448 178.642 304.604 167.717 178.303 
306.62 168.178 178.493 307.274 169.578 178.518 301.293 171.013 180.212 
306.125 171.2 179.051 302.27 172.454 179.014 303.476 172.324 179.446 
305.795 168.337 179.298 304.826 168.219 179.406 302.395 169.453 180.943 
306.701 169.926 179.508 306.45 170.208 179.727 305.702 168.995 180.173 
301.965 169.884 181.431 302.813 169.33 181.488 306.438 169.527 179.818 
301.269 170.845 181.965 302.387 172.039 181.053 301.742 171.914 181.12 
303.616 169.03 181.302 304.023 168.966 181.2 304.515 169.096 181.287 
302.248 169.874 182.617 305.127 169.527 181.248 303.954 171.124 182.27 
302.885 171.655 182.098 302.544 169.84 182.976 303.016 169.657 182.68 
304.632 170.026 182.17 304.343 170.384 182.616 301.131 171.194 183.373 
301.252 171.342 183.185 303.917 169.776 182.631 304.286 169.949 182.524 
301.177 171.02 183.802 301.138 171.279 183.547 301.099 171.219 183.733 
301.209 171.312 183.577 301.135 171.274 183.729 302.402 170.186 184.1 
302.882 170.235 184.089 303.299 170.225 183.822 301.352 170.86 183.965 
303.017 170.652 183.942 303.25 170.521 183.937 301.233 171.039 183.968 
301.134 171.136 183.868 302.01 171.227 183.697 301.119 171.206 183.89 
301.123 171.247 183.84 302.222 170.311 184.348 301.718 170.578 184.233 
301.969 170.49 184.326 303.072 170.419 184.072 302.694 170.405 184.339 
303.332 170.342 183.956 301.635 170.768 184.283 301.489 170.843 184.187 
302.436 170.525 184.448 303.344 170.415 183.958 301.405 170.992 184.093 
301.906 170.985 184.117 301.152 171.226 183.901 302.316 170.309 184.511 
302.438 170.285 184.498 302.342 170.344 184.598 302.215 170.391 184.52 
302.442 170.333 184.578 303.419 170.36 183.926 301.594 170.871 184.241 
301.887 170.754 184.315 302.189 170.521 184.494 302.351 170.44 184.583 
302.29 170.409 184.604 302.378 170.377 184.62 302.193 170.427 273.156 
302.099 170.597 273.039 303.081 170.312 273.031 303.665 170.193 273.25 
302.086 170.754 273.014 301.968 170.675 273.093 301.891 170.811 273.2 
[...]
POINT_DATA 785
SCALARS scalars float
LOOKUP_TABLE default
1 1 1 1 1 1 1 1 1 
1 1 1 1 1 1 1 1 1 
1 1 1 1 1 1 1 1 1 
1 1 1 1 1 1 1 1 1 
1 1 1 1 1 1 1 1 1 
1 1 1 1 1 1 1 1 1 
1 1 1 1 1 1 1 1 1 
1 1 1 1 1 1 1 1 1 
1 1 1 1 1 1 1 1 1 
1 1 1 1 1 1 1 1 1 
1 1 1 1 1 1 1 1 1 
1 1 1 1 1 1 1 1 1 
1 1 1 1 1 1 1 1 1 
1 1 1 1 1 1 1 1 1 
1 1 1 1 1 1 1 1 1 
1 1 1 1 1 1 1 1 1 
1 1 1 1 1 1 1 1 1 
1 1 1 1 1 1 1 1 1 
1 1 1 1 1 1 1 1 1 
1 1 1 1 1 1 1 1 1 
1 1 1 1 1 1 1 1 1 
1 1 1 1 1 1 1 1 1 
1 1 1 1 1 1 1 1 1 
1 1 1 1 1 1 1 1 1 
1 1 1 1 1 1 1 1 1 
1 1 1 1 1 1 1 1 1 
1 1 1 1 1 1 1 1 1 
1 1 1 1 1 1 1 1 1 
1 1 1 1 1 1 1 1 1 
1 1 1 1 1 1 1 1 1 
1 1 1 1 1 1 1 1 1 
1 1 1 1 1 1 1 1 1 
1 1 1 1 1 1 1 1 1 
1 1 1 1 1 1 1 1 1 
1 1 1 1 1 1 1 1 1 
1 1 1 1 1 1 1 1 1 
1 1 1 1 1 1 1 1 1 
1 1 1 1 1 1 1 1 1 
1 1 1 1 1 1 1 1 1 
1 1 1 1 1 1 1 1 1 
1 1 1 1 1 1 1 1 1 
1 1 1 1 1 1 1 1 1 
1 1 1 1 1 1 1 1 1 
1 1 1 1 1 1 1 1 1 
1 1 1 1 1 1 1 1 1 
1 1 1 1 1 1 1 1 1 
1 1 1 1 1 1 1 1 1 
1 1 1 1 1 1 1 1 1 
1 1 1 1 1 1 1 1 1 
1 1 1 1 1 1 1 1 1 
1 1 1 1 1 1 1 1 1 
1 1 1 1 1 1 1 1 1 
1 1 1 1 1 1 1 1 1 
1 1 1 1 1 1 1 1 1 
1 1 1 1 1 1 1 1 1 
1 1 1 1 1 1 1 1 1 
1 1 1 1 1 1 1 1 1 
1 1 1 1 1 1 1 1 1 
1 1 1 1 1 1 1 1 1 
1 1 1 1 1 1 1 1 1 
1 1 1 1 1 1 1 1 1 
1 1 1 1 1 1 1 1 1 
1 1 1 1 1 1 1 1 1 
1 1 1 1 1 1 1 1 1 
1 1 1 1 1 1 1 1 1 
1 1 1 1 1 1 1 1 1 
1 1 1 1 1 1 1 1 1 
1 1 1 1 1 1 1 1 1 
1 1 1 1 1 1 1 1 1 
1 1 1 1 1 1 1 1 1 
1 1 1 1 1 1 1 1 1 
1 1 1 1 1 1 1 1 1 
1 1 1 1 1 1 1 1 1 
1 1 1 1 1 1 1 1 1 
1 1 1 1 1 1 1 1 1 
1 1 1 1 1 1 1 1 1 
1 1 1 1 1 1 1 1 1 
1 1 1 1 1 1 1 1 1 
1 1 1 1 1 1 1 1 1 
1 1 1 1 1 1 1 1 1 
1 1 1 1 1 1 1 1 1 
1 1 1 1 1 1 1 1 1 
1 1 1 1 1 1 1 1 1 
1 1 1 1 1 1 1 1 1 
1 1 1 1 1 1 1 1 1 
1 1 1 1 1 1 1 1 1 
1 1 1 1 1 1 1 1 1 
1 1 
NORMALS Normals float
0.286213 0.313765 -0.905336 -0.283395 -0.549605 -0.785889 -0.426173 0.45505 -0.781861 
0.573413 -0.0722158 -0.816077 0.159363 0.871372 -0.46402 0.268353 -0.265192 -0.926099 
-0.220752 -0.687254 -0.692063 -0.0690213 -0.0887215 -0.993662 -0.22658 -0.584505 -0.779112 
-0.628041 0.0209927 -0.777897 0.398643 -0.199933 -0.895048 0.425897 0.378723 -0.821694 
0.597722 0.590287 -0.542484 -0.373832 -0.758549 -0.533716 -0.265167 -0.815733 -0.514068 
0.519483 -0.309129 -0.796604 0.181541 -0.858623 -0.479384 0.229089 -0.691073 -0.685519 
0.456945 -0.63681 -0.621027 -0.484265 -0.271259 -0.831809 -0.119011 -0.311679 -0.942705 
0.0571354 -0.661555 -0.747716 0.73543 -0.205327 -0.645743 0.791652 0.169477 -0.586996 
-0.464035 -0.429445 -0.774757 0.508035 0.152046 -0.847811 0.625863 0.338731 -0.702536 
0.887172 0.146639 -0.437519 -0.534141 0.0644679 -0.842934 -0.435409 0.319777 -0.841524 
0.732019 0.479825 -0.483649 -0.182937 0.614222 -0.767636 0.158917 0.877069 -0.453315 
0.622969 0.708981 -0.330539 -0.12867 -0.847902 -0.514302 0.798946 -0.376361 -0.469082 
0.964862 -0.152822 -0.213745 -0.638834 -0.0669277 -0.766428 -0.517666 -0.402196 -0.755156 
-0.566073 -0.565944 -0.599391 0.840716 0.434738 -0.322799 0.9584 0.119739 -0.259098 
-0.461622 0.529729 -0.711542 -0.0459523 0.759583 -0.648785 0.318149 -0.885513 -0.338596 
-0.670617 -0.305085 -0.676162 -0.583884 0.232162 -0.777933 0.916281 0.38069 -0.124514 
-0.0962823 0.878569 -0.46781 -0.0479889 0.958938 -0.279526 -0.261054 -0.912259 -0.31565 
0.91037 -0.37102 -0.183224 -0.715749 -0.422735 -0.555876 -0.300155 0.728505 -0.615782 
0.17243 0.960412 -0.218808 0.143128 -0.939947 -0.309862 -0.471374 -0.809455 -0.350128 
0.913509 0.402998 -0.0556207 -0.60709 0.382926 -0.696283 -0.688785 0.0135373 -0.72484 
-0.805312 -0.0620096 -0.589599 0.650213 0.755312 -0.0820228 -0.0538935 0.903059 -0.426123 
0.016195 0.941016 -0.337975 0.487174 -0.840076 -0.23861 0.224409 -0.965905 -0.129101 
0.790286 -0.61031 -0.0545059 -0.0542744 -0.994563 -0.0888798 0.813891 -0.577707 -0.0619344 
0.989133 -0.146732 0.00929812 0.93198 0.362215 0.0146324 -0.720299 -0.0935652 -0.687325 
-0.422436 0.56203 -0.711105 -0.312364 0.804421 -0.505308 0.278944 0.949214 -0.145543 
0.650198 -0.745076 0.148675 -0.035404 -0.985306 -0.16709 -0.438281 -0.874943 -0.205875 
-0.465629 0.656479 -0.593486 -0.365859 0.6928 -0.62143 -0.124367 0.917848 -0.376945 
0.277925 -0.959258 0.0508142 0.624071 -0.771348 0.124731 -0.781305 -0.237255 -0.577297 
-0.703389 0.200816 -0.681848 0.041879 -0.998223 0.0423967 0.304492 -0.95008 0.0680699 
0.312255 -0.94721 0.0727364 -0.55953 -0.759698 -0.331338 0.968142 0.186927 0.166613 
0.645632 0.763612 -0.00755065 0.654685 -0.736842 0.168675 0.93401 -0.310351 0.176939 
0.82796 0.549608 0.111411 -0.722525 0.290419 -0.627387 0.247704 0.957814 -0.145721 
0.391273 0.919791 -0.0298295 0.507353 -0.828564 0.236802 0.670033 -0.695483 0.259536 
0.850988 -0.454317 0.263468 0.949415 0.280351 0.141476 -0.596762 0.477503 -0.644877 
-0.818571 -0.215763 -0.532342 -0.664346 0.416698 -0.620489 -0.404537 0.779161 -0.478808 
-0.1743 0.925175 -0.33715 -0.332347 0.78886 -0.516958 0.119815 -0.991263 0.0551474 
0.738966 -0.554966 0.382023 0.873604 -0.362865 0.324261 -0.38338 -0.899905 -0.207824 
0.861557 -0.376038 0.34105 0.967189 0.144622 0.208878 0.826984 0.509819 0.237027 
0.203895 0.96744 -0.149954 0.33629 -0.932118 0.134406 0.610301 -0.742453 0.276219 
0.915376 -0.109765 0.387348 -0.844586 -0.315528 -0.43257 0.61676 0.779354 0.110522 
-0.849692 0.0685736 -0.522802 -0.852998 -0.163391 -0.495678 -0.630844 0.550715 -0.546579 
-0.369177 -0.927899 -0.0520754 -0.791277 0.0177355 -0.611201 -0.824919 0.0280004 -0.564556 
-0.081686 -0.996453 0.0202146 0.521 -0.801636 0.293154 -0.863956 0.0226503 -0.503058 
0.717429 0.691446 0.0848427 -0.620129 0.560855 -0.548527 0.895207 -0.271235 0.353604 
-0.763324 -0.54415 -0.348191 -0.643326 -0.710837 -0.284329 -0.719196 0.445532 -0.533159 
-0.666459 0.537826 -0.51631 -0.375954 0.80829 -0.453129 -0.324258 0.847317 -0.420608 
-0.0579754 0.891144 -0.45 -0.623964 -0.747414 -0.228127 -0.697116 -0.660549 -0.278755 
0.91368 0.310148 0.262671 -0.812549 -0.472686 -0.341073 -0.813325 0.0424877 -0.580257 
-0.745366 0.197517 -0.636723 -0.741342 0.19764 -0.641366 -0.539763 0.531773 -0.65259 
0.0400521 0.939899 -0.339095 0.712393 -0.634365 0.300127 -0.720601 0.297735 -0.626169 
-0.248608 0.855087 -0.454994 -0.48759 0.654432 -0.577905 -0.608267 -0.773109 -0.179758 
0.710281 0.694265 0.116181 -0.809652 0.116895 -0.575151 0.213039 0.907877 -0.361074 
0.6501 -0.698014 0.300244 0.940096 0.0258576 0.339928 -0.853298 -0.384213 -0.35251 
-0.833824 0.157018 -0.529228 -0.868753 -0.100222 -0.484999 -0.0361681 0.936049 -0.350006 
-0.717928 -0.67011 -0.188501 -0.923257 -0.0641569 -0.378788 -0.813649 0.28269 -0.507998 
-0.594988 0.661718 -0.4562 -0.881497 0.282749 -0.378174 -0.897713 0.309695 -0.313369 
-0.803404 0.545241 -0.23928 -0.670942 0.668334 -0.321196 0.166038 -0.966852 0.193978 
-0.318449 -0.947642 0.023777 0.120738 -0.979445 0.161584 -0.0500604 -0.994393 0.09315 
0.93696 -0.209951 0.279333 0.539933 0.831537 -0.130455 0.255537 0.947328 -0.193057 
-0.41313 0.832005 -0.370259 -0.0389964 0.917891 -0.394912 0.474665 -0.786515 0.395078 
0.937549 -0.182667 0.296033 -0.938183 -0.212971 -0.272867 -0.976462 0.0236947 -0.214384 
0.588134 0.792478 -0.161481 -0.835839 0.465737 -0.290623 -0.0199085 0.955652 -0.293825 
0.2032 0.953462 -0.222753 -0.778653 0.54084 -0.318106 0.583311 -0.740008 0.334869 
0.59404 0.803145 0.0455538 -0.540233 0.797472 -0.268676 0.301191 -0.929362 0.213473 
0.614398 -0.694458 0.374489 0.89697 -0.213301 0.387231 0.855675 0.505342 0.111577 
-0.835182 -0.526703 -0.158288 -0.10254 0.969617 -0.222101 -0.497949 -0.866444 -0.0363486 
0.830653 -0.405982 0.381044 0.960009 0.048035 0.275817 0.813267 0.543962 0.206646 
0.182323 0.957761 -0.222379 -0.296479 0.86888 -0.396418 0.277325 -0.907908 0.314316 
0.943055 0.261025 0.206187 -0.850367 0.459594 -0.256223 -0.449782 0.881279 -0.145064 
0.0169768 0.89462 -0.446506 0.0364913 -0.976687 0.211546 0.843091 -0.362073 0.397619 
0.907691 -0.0659016 0.414433 0.953686 -0.0461305 0.297247 0.893934 0.276758 0.352543 
-0.701003 0.666778 -0.252986 0.0614977 0.956066 -0.286629 0.853379 -0.336201 0.398388 
0.907869 0.126812 0.399615 -0.980639 -0.0581665 -0.186984 -0.860349 0.413863 -0.297519 
-0.246826 0.959571 -0.135283 -0.0218363 0.980894 -0.193314 0.57829 -0.711726 0.39878 
-0.259009 -0.965648 0.0209212 -0.698826 -0.711576 -0.0728185 0.891617 -0.0852511 0.444692 
-0.975599 -0.015286 -0.219027 0.540277 0.841484 -0.00215972 0.277957 0.934752 -0.221313 
0.177315 0.982604 -0.0552077 0.620123 -0.579473 0.528828 0.424014 0.904817 -0.0389712 
0.0392427 -0.985004 0.16801 0.267812 -0.939687 0.212755 -0.316453 -0.943793 0.0954584 
0.453664 -0.817663 0.354424 0.625867 -0.551145 0.551842 -0.976896 0.101154 -0.188261 
0.649028 0.751394 0.119039 0.70046 -0.542433 0.463812 0.855323 0.458667 0.240928 
0.710586 0.672198 0.207885 -0.976716 -0.109925 -0.184237 0.826552 0.466843 0.314436 
-0.797472 0.563042 -0.216847 -0.166592 0.98355 -0.0698246 -0.636065 0.756594 -0.151613 
0.144406 -0.931475 0.333917 -0.756024 -0.638128 -0.145673 0.912743 0.0134094 0.408313 
0.902479 0.256145 0.346296 0.747739 0.590472 0.303694 0.493659 0.845217 0.204717 
-0.960088 0.271912 -0.0655421 -0.311504 0.947526 -0.0718238 0.112178 0.987939 -0.106739 
-0.475926 -0.879109 -0.0257311 0.794192 0.477188 0.376232 -0.968922 -0.22649 -0.099463 
-0.805508 0.592554 -0.00598189 -0.330809 -0.940054 -0.0828488 0.25182 -0.924225 0.287045 
-0.946955 0.319647 -0.033202 -0.7643 0.644415 0.0239891 0.0808645 0.996725 0.000321327 
-0.978355 -0.197317 -0.0623538 -0.466625 0.88421 0.0208184 0.42199 -0.846949 0.323423 
-0.447541 -0.876449 0.17761 0.896856 -0.0650382 0.437514 -0.997831 0.0404281 -0.0519521 
-0.998236 -0.0585452 0.00984865 0.532398 0.842888 0.0780508 -0.530826 0.847467 0.00481837 
-0.124993 -0.968494 0.215398 0.698843 -0.599156 0.390681 -0.845017 -0.534628 0.0108769 
-0.977954 -0.208545 0.0107293 -0.947565 0.319328 0.0122342 -0.828393 0.560053 0.0103065 
-0.697792 0.715412 0.0356624 -0.277582 -0.919277 0.279065 0.599759 -0.657561 0.455965 
-0.961771 -0.27218 0.0302472 -0.987821 -0.14653 0.0523299 0.554827 0.810283 0.188702 
-0.173587 0.982372 0.069372 0.292394 0.947407 0.130097 0.772197 -0.396235 0.496698 
0.827976 -0.319461 0.460868 0.84927 -0.211561 0.483717 0.906626 0.0594935 0.417719 
0.574262 0.769029 0.280746 -0.655547 0.746164 0.116178 -0.439581 0.889507 0.124679 
0.0601886 -0.927737 0.36835 0.478497 -0.74136 0.470559 -0.502349 -0.8551 0.128255 
0.518541 -0.677565 0.521555 0.75889 -0.381135 0.528036 -0.649704 -0.739153 0.177587 
-0.753666 -0.646844 0.116532 -0.998605 0.015192 -0.0505676 0.799058 0.506252 0.32437 
0.804786 0.410351 0.428873 -0.954181 0.299225 0.00185927 -0.660469 0.748378 0.060915 
0.34899 0.883815 0.311573 -0.0364392 -0.946439 0.32082 0.41432 -0.770012 0.485202 
0.7674 -0.395741 0.504466 -0.450553 -0.84813 0.278706 0.875156 0.0560127 0.480588 
-0.998826 -0.0196446 0.0442805 0.712949 0.564952 0.415371 -0.670439 0.741939 0.0061946 
0.181165 -0.879607 0.439852 0.40638 -0.805809 0.430728 0.90038 0.189887 0.391483 
0.631614 0.611579 0.476482 0.771775 0.476128 0.421505 -0.61526 0.775441 0.141938 
0.0746704 0.985535 0.152136 -0.383179 0.920737 0.0736021 -0.210895 -0.899207 0.383341 
0.438954 -0.730863 0.522646 0.883508 0.0902478 0.459641 -0.970179 -0.24184 -0.0162939 
0.575494 0.7502 0.325586 -0.214438 0.953394 0.212263 0.226797 0.948071 0.222993 
0.384348 -0.762822 0.51998 -0.0250745 -0.909089 0.415847 -0.658481 -0.744539 0.109834 
0.828502 0.154 0.538394 0.801938 0.209273 0.559554 0.48614 -0.697175 0.526892 
-0.643474 -0.759108 0.0984704 -0.308585 -0.908476 0.281863 0.730778 -0.298186 0.614043 
-0.883492 -0.459457 0.0913261 -0.00623828 0.971125 0.238489 -0.442534 0.874181 0.199927 
-0.153775 -0.906817 0.392475 0.149662 -0.859116 0.489409 0.325735 -0.763248 0.557986 
-0.555516 -0.790869 0.256765 0.657302 -0.411438 0.631405 0.457688 0.803077 0.38156 
0.0934925 0.958717 0.268554 -0.465 -0.816016 0.343356 -0.110889 -0.949244 0.294346 
0.674259 -0.46725 0.571885 0.739226 0.393417 0.546596 -0.991636 0.106551 -0.0728284 
-0.52277 0.851471 0.0413396 0.252844 -0.85671 0.449575 0.614816 -0.584576 0.529408 
-0.824447 -0.565885 0.00778697 -0.748028 0.661569 -0.0527361 -0.99409 0.105948 0.0236683 
-0.143976 0.976809 0.158479 -0.430153 0.893024 0.132202 -0.40432 -0.893941 0.193378 
0.450359 -0.657051 0.604533 0.319849 -0.766052 0.557549 -0.74844 -0.582071 0.317854 
0.42829 0.704982 0.565303 0.457057 0.640191 0.617458 -0.745861 -0.30367 0.592854 
-0.78539 -0.236291 0.572126 0.190116 0.870693 0.453596 -0.837148 0.117274 0.534256 
-0.645289 0.713964 0.271766 -0.452476 -0.867917 0.204905 -0.529339 -0.798442 0.286863 
-0.554895 -0.489369 0.672762 0.45442 0.0254299 0.890424 0.632091 0.108337 0.767284 
0.307216 -0.457373 0.834523 -0.388667 -0.0761716 0.918224 -0.692049 -0.162984 0.703211 
0.370994 0.635156 0.677452 0.512882 0.340734 0.787942 -0.383462 0.419608 0.822731 
0.131358 0.746586 0.652192 -0.177559 0.714124 0.677126 -0.374828 -0.866367 0.330019 
-0.0323681 -0.934503 0.354481 -0.258398 -0.703013 0.662573 -0.653466 -0.489496 0.577387 
0.415516 -0.530152 0.739111 0.618389 -0.292324 0.72948 -0.23387 0.459501 0.856833 
-0.103553 0.452361 0.885803 -0.291598 0.444375 0.847055 0.128519 0.67037 0.730812 
-0.397246 0.083637 0.913893 0.295139 0.195954 0.935144 -0.45025 -0.762458 -0.464686 
-0.306738 -0.476146 -0.824134 0.0241243 -0.447298 -0.894059 0.390279 -0.404297 -0.82718 
-0.267642 -0.00809968 -0.963484 -0.710764 -0.223648 -0.66693 -0.884174 -0.0129341 -0.466978 
0.198196 -0.0172121 -0.980011 0.430251 -0.132902 -0.892873 -0.635323 0.12078 -0.762743 
-0.893502 0.29574 -0.337923 -0.409788 0.759513 -0.505187 -0.172287 0.562984 -0.808311 
-0.0131802 0.495733 -0.868375 0.17127 0.456212 -0.873234 0.407364 0.600646 -0.687953 
-0.316143 -0.747014 -0.584828 0.175791 -0.647227 -0.741751 0.447271 -0.585873 -0.675797 
-0.619099 -0.637641 -0.4584 -0.794875 -0.522934 -0.307755 -0.965573 -0.176666 -0.190938 
0.520708 0.431283 -0.736789 0.644273 0.377586 -0.665087 -0.558689 0.816804 -0.143866 
-0.824572 0.5293 -0.199806 0.0451974 0.866692 -0.496792 0.217395 0.82506 -0.521551 
0.363434 0.670821 -0.646463 -0.211851 0.945828 -0.246025 0.192367 -0.772643 -0.604994 
-0.610172 -0.737653 -0.289065 -0.427752 -0.850828 -0.305156 -0.737948 -0.630295 -0.241168 
0.696443 0.132195 -0.705331 -0.874832 0.42606 -0.230524 -0.911621 0.362802 -0.19319 
0.448149 0.736127 -0.507228 0.22272 0.895501 -0.385323 -0.016368 -0.938992 -0.34355 
0.659825 -0.429841 -0.616334 -0.973371 -0.176427 -0.146366 -0.994286 -0.0230592 -0.104232 
-0.671864 0.718211 -0.18103 0.0570135 0.95459 -0.292417 -0.24571 -0.9106 -0.332317 
-0.78273 -0.599166 -0.168329 -0.6114 0.781421 -0.124788 -0.404184 0.899321 -0.166903 
0.274973 -0.828957 -0.487053 -0.323685 -0.908238 -0.265201 0.642698 0.489273 -0.589535 
-0.996847 -0.017632 -0.077365 -0.900442 0.430677 -0.061 -0.542236 0.836884 -0.0748716 
-0.243444 0.963779 -0.108927 -0.642916 -0.74734 -0.167756 -0.763677 -0.630753 -0.137654 
0.831381 -0.0653422 -0.551848 -0.980915 -0.184935 -0.0600417 0.676879 0.448145 -0.583953 
-0.939746 0.338477 0.0480762 -0.126327 0.980938 -0.147656 0.721079 -0.385123 -0.575956 
-0.807873 -0.580679 -0.100766 -0.847221 -0.526363 -0.0718286 -0.987992 -0.149618 -0.0385593 
0.538147 0.713648 -0.448446 -0.617879 0.774333 -0.136505 -0.380547 -0.864058 -0.329526 
0.539811 -0.713584 -0.446544 -0.621445 -0.770576 -0.141485 0.810566 -0.235092 -0.53639 
0.805172 0.372457 -0.461491 0.308187 0.915955 -0.256998 0.0685291 -0.9366 -0.343634 
0.0203005 -0.96085 -0.276323 -0.350815 -0.871683 -0.342196 -0.625519 -0.770214 -0.12448 
-0.832292 -0.550267 -0.0670542 -0.94905 -0.302613 -0.0879174 -0.960786 -0.276378 -0.0224996 
0.891198 0.211175 -0.401461 0.847497 0.356672 -0.393109 -0.907873 0.412834 -0.0730454 
-0.585525 0.797905 -0.143203 -0.307707 0.939959 -0.14763 -0.265059 -0.931872 -0.247704 
-0.56418 -0.785129 -0.255487 0.851855 -0.293211 -0.434017 -0.781328 0.62311 -0.0355082 
-0.574744 0.813091 -0.0924755 -0.410959 -0.908301 -0.0781171 -0.531437 -0.843034 -0.0828721 
-0.662189 -0.744108 -0.0883709 -0.826227 -0.560401 -0.0574513 -0.888709 -0.458038 0.0199355 
0.898133 0.183043 -0.399815 -0.985724 -0.162974 -0.0422863 0.886028 0.125922 -0.446203 
0.614379 0.720334 -0.321959 -0.167765 0.974831 -0.146829 -0.991002 0.133145 -0.0137236 
-0.338688 0.93916 -0.0571695 -0.0739966 0.996566 -0.0371618 0.190543 0.980108 -0.0555199 
0.304601 0.946625 -0.10545 -0.610044 0.79221 0.015765 0.832328 -0.179825 -0.524302 
0.786932 0.505189 -0.354291 0.497733 0.860894 -0.105473 -0.223243 0.973119 0.0565888 
0.797048 -0.208701 -0.566709 0.863145 0.16852 -0.476007 -0.993342 0.0562333 0.100548 
-0.622387 -0.772315 -0.127137 -0.953614 -0.300974 -0.00585211 0.550551 -0.64187 -0.533757 
0.410657 -0.8171 -0.40461 0.573043 -0.506311 -0.644415 0.765606 -0.27223 -0.582871 
-0.758409 -0.651666 -0.0121138 -0.943193 -0.331162 0.0268117 0.633256 0.738638 -0.231085 
-0.0439317 0.998222 0.0402844 0.0558742 0.998058 0.027533 -0.111883 -0.973915 -0.197413 
0.206875 -0.934791 -0.288738 0.619798 -0.62665 -0.472398 0.887978 0.0988006 -0.449148 
-0.76726 0.633946 0.0970749 -0.192993 -0.975958 -0.10129 -0.429566 -0.895398 -0.117195 
0.808247 -0.381066 -0.448916 0.840483 -0.26981 -0.469884 0.920583 -0.0898596 -0.380068 
0.622497 0.755198 -0.205362 -0.668417 0.720552 0.184455 0.344683 0.937902 -0.039149 
0.845355 0.427109 -0.320862 -0.979099 0.168829 0.113411 -0.275037 0.955379 0.107729 
0.918765 -0.110088 -0.379146 0.936826 0.108901 -0.332412 -0.968477 -0.211789 0.131143 
0.744449 0.645754 -0.1697 -0.934992 0.284458 0.211833 -0.758032 0.630236 0.1679 
0.332844 -0.832691 -0.442539 0.919866 0.268275 -0.286138 -0.835944 0.51429 0.191582 
0.138925 -0.921969 -0.361486 0.645869 -0.593892 -0.479735 -0.675839 -0.736793 0.0194584 
0.857232 -0.0380862 -0.51352 -0.306002 -0.951803 0.0208417 0.884905 -0.155558 -0.439027 
0.89169 0.139368 -0.430657 -0.957192 -0.242288 0.158367 0.727328 0.682095 -0.0757581 
-0.675035 0.724752 0.138069 -0.020657 -0.974672 -0.222684 0.7656 -0.386106 -0.514566 
0.849937 -0.16925 -0.49896 -0.643475 -0.764331 0.0416935 0.887222 -0.0573219 -0.457767 
0.935398 0.289227 -0.203417 0.926336 0.303359 -0.223326 0.563071 -0.750331 -0.346344 
0.762387 -0.398816 -0.509619 0.911919 0.114622 -0.394039 0.386316 0.921662 -0.0360472 
-0.983597 0.0804083 0.161467 -0.791763 0.591372 0.152943 0.115773 -0.973883 -0.195318 
0.801432 -0.430942 -0.414724 0.891112 0.345493 -0.294202 -0.867652 -0.477257 0.139302 
0.814774 0.54801 -0.189286 0.565035 0.815444 -0.125644 -0.639552 0.734572 0.226666 
-0.50054 0.847685 0.175753 -0.969032 -0.191367 0.156063 -0.984073 -0.0156484 0.177075 
0.434697 0.896667 0.0838241 0.550714 0.831797 -0.069477 -0.862764 0.426922 0.27088 
0.26174 0.942818 0.206365 -0.146229 0.962946 0.226612 0.739015 -0.576305 -0.348899 
0.790459 -0.486902 -0.37162 0.912678 -0.152652 -0.379099 0.926525 0.247028 -0.283776 
-0.874511 -0.305499 0.376698 0.631909 0.774935 0.0129199 -0.946301 -0.0378799 0.32106 
-0.924019 0.193394 0.32983 0.227963 0.969624 0.0886668 -0.559789 0.738042 0.376736 
-0.368067 0.868315 0.3325 0.239592 -0.945724 -0.219549 0.856708 -0.377846 -0.351116 
0.951122 0.0991672 -0.292461 0.820245 0.548923 -0.160877 -0.562847 -0.822838 -0.0783631 
0.10667 0.942704 0.316119 0.146273 0.956079 0.254004 0.18853 -0.958851 -0.212279 
0.85068 -0.343471 -0.397959 -0.489744 -0.861622 0.133259 -0.683984 -0.729417 0.0108072 
0.918335 0.174125 -0.355447 -0.640586 -0.751207 0.159177 -0.774435 -0.610829 0.164737 
-0.917603 0.104036 0.383643 -0.95218 0.152719 0.264633 -0.0540856 0.959715 0.27572 
-0.236328 0.933436 0.269902 0.547745 -0.760571 -0.348578 -0.305142 -0.952166 -0.0163758 
0.798247 -0.51631 -0.310201 0.943386 -0.196965 -0.266884 -0.601888 -0.765876 0.226198 