# vtk DataFile Version 4.2
vtk output
ASCII
DATASET POLYDATA
POINTS 1354 float
221.919 75.3021 108.871 213.549 78.5933 108.253 215.069 78.7923 108.016 
215.974 78.55 107.995 216.812 79.2331 107.918 206.751 80.3618 108.92 
210.704 81.2123 107.89 211.828 82.2305 107.703 200.421 85.1617 108.451 
225.066 74.119 109.545 209.21 79.4543 108.827 203.225 81.6214 109.064 
214.713 82.8524 108.067 200.505 84.3614 108.591 213.511 84.8023 108.573 
196.777 86.2014 109.038 199.243 85.8802 108.67 206.085 85.9126 108.389 
229.955 72.5545 110.476 223.01 73.6446 110.01 229.277 73.4161 110.051 
215.678 76.451 109.292 204.562 80.3096 109.607 226.852 79.2879 109.574 
216.789 83.7009 108.847 191.541 85.9193 110.415 211.082 84.9591 108.409 
214.254 85.3489 109.148 218.547 84.205 109.792 187.726 87.4375 110.943 
189.924 87.163 110.411 191.469 87.2623 110.07 216.599 85.0727 109.84 
194.324 87.7928 109.517 212.281 86.8228 109.711 192.203 89.2071 109.954 
211.12 87.5893 110.355 199.691 89.6837 109.73 202.672 88.5818 109.3 
230.593 71.0746 111.403 233.341 73.5774 110.783 225.201 82.168 110.608 
225.419 82.4953 111.17 220.545 83.5338 109.899 224.931 82.9758 111.601 
219.874 84.4735 110.72 217.234 85.2692 110.432 221.253 84.3787 111.315 
192.32 88.5949 109.894 211.428 87.0267 109.803 213.649 86.6286 110.362 
195.051 89.0983 109.694 214.739 86.4866 110.984 195.361 90.4528 110.177 
202.222 89.6825 110.171 206.368 89.132 110.693 208.277 88.6875 111.01 
192.875 91.108 110.576 196.201 90.9788 110.497 199.624 90.9914 110.991 
238.498 69.7811 112.326 221.869 72.8628 111.23 233.086 75.2671 110.793 
207.852 77.6184 111.164 231.76 78.6305 111.412 230.718 80.2438 112.214 
225.818 82.6101 111.84 188.968 85.3911 111.792 225.255 82.9639 112.058 
188.168 86.0979 111.545 220.094 84.9209 111.888 185.371 87.6076 112.028 
216.412 86.1426 112.316 183.545 88.4369 112.446 182.541 89.1261 112.556 
211.794 87.795 111.613 212.808 87.4965 112.105 181.167 90.352 112.685 
180.861 90.3284 112.872 183.145 90.3268 112.037 181.313 90.687 112.592 
183.82 90.7006 111.868 188.265 91.1315 111.179 189.845 91.6808 111.18 
204.002 90.2792 111.769 200.428 91.2231 111.686 198.052 92.0434 112.013 
234.84 76.4949 111.758 207.015 77.3553 112.025 233.468 78.7776 112.529 
187.326 85.389 112.708 184.644 87.1191 112.712 216.492 86.1575 112.917 
218.371 85.4964 112.374 182.613 88.553 112.858 181.51 89.5746 112.786 
181.271 89.5423 113 208.131 89.0988 112.415 179.872 91.3215 113.226 
179.811 91.3111 113.335 179.773 91.388 113.267 180.156 91.1813 113.107 
179.98 91.0839 113.309 182.274 91.1562 112.32 205.108 90.0747 112.432 
205.829 89.857 112.683 179.808 91.4657 113.252 179.87 91.6585 113.345 
179.969 91.5034 113.18 180.075 91.8016 113.205 180.29 91.9225 113.113 
180.607 91.9316 112.993 180.684 92.41 113.19 185.771 93.7981 112.695 
190.331 93.0967 112.126 191.151 93.6785 112.732 244.844 65.8136 114.659 
237.127 67.4437 113.829 241.788 69.5708 113.154 218.87 72.4224 113.56 
235.838 78.566 114.202 236.766 77.8973 113.826 221.867 84.4489 113.12 
185.255 85.92 113.633 217.802 85.6432 114.017 182.354 88.0324 113.568 
181.317 88.9062 113.804 180.809 89.6045 113.526 180.117 90.7815 113.522 
179.774 91.455 113.316 179.817 91.4508 113.454 179.915 91.1729 113.526 
206.382 89.6729 113.075 179.872 91.6704 113.567 180.022 91.96 113.36 
179.97 91.9466 113.548 181.316 92.7664 113.102 180.137 92.2118 113.491 
180.464 92.6586 113.573 181.154 93.4406 113.617 186.355 94.9375 113.831 
248.275 66.1822 115.333 235.389 67.424 114.303 245.604 68.9697 114.425 
239.724 75.3728 113.86 238.084 77.5096 114.589 234.47 79.1558 114.148 
233.272 79.7475 114.129 229.299 81.5024 114.616 230.598 80.8982 113.867 
191.277 82.8475 113.493 223.33 83.7523 114.402 187.146 84.8728 113.509 
216.994 85.79 114.716 180.88 89.4039 113.867 181.611 88.4367 114.186 
207.825 89.1464 113.599 179.916 91.4359 113.713 202.725 90.9005 113.944 
197.634 92.466 114.804 180.427 92.8603 114.042 180.616 93.1205 113.846 
180.629 93.284 114.033 182.009 94.1685 113.736 185.584 94.5159 113.313 
180.976 93.809 114.346 181.365 94.3407 114.764 190.276 94.3696 113.863 
181.762 94.7358 114.523 185.203 95.3195 114.278 186.961 95.2181 114.502 
251.315 63.7935 116.617 245.629 64.5283 115.676 240.578 76.39 116.036 
218.497 85.1805 115.289 180.886 89.4132 114.504 180.468 90.5486 114.736 
180.6 93.2048 114.404 180.73 93.5074 114.34 181.756 94.9571 114.845 
182.289 95.9164 115.208 182.416 96.0845 115.267 182.581 96.1501 115.239 
182.85 96.1194 115.179 184.443 95.9706 115.492 182.547 96.2299 115.372 
182.703 96.2607 115.336 182.884 96.3053 115.394 251.28 62.4199 117.526 
247.288 63.5001 116.602 237.605 66.0453 115.563 244.513 74.367 116.785 
240.467 76.6143 117.091 185.566 84.84 115.305 184.819 85.174 115.697 
181.716 88.4244 115.611 180.98 89.4817 114.999 209.27 88.1772 115.754 
180.711 90.9451 115.42 181.501 94.1402 115.612 182.294 95.8586 115.475 
182.466 96.093 115.537 183.897 96.0174 115.865 182.537 96.223 115.481 
182.723 96.3001 115.495 182.88 96.3727 115.507 182.876 96.3429 115.579 
183.036 96.3326 115.505 182.947 96.375 115.556 256.83 61.3525 118.791 
248.4 62.4094 117.806 253.274 62.0667 117.97 246.618 63.2392 117.007 
254.116 63.656 117.515 249.842 69.7935 116.847 249.805 70.8171 117.698 
246.221 73.6985 117.748 189.142 82.4232 116.683 223.647 83.0346 117.096 
180.969 91.0921 115.84 182.041 92.8676 116.929 186.991 95.4833 116.197 
186.671 95.4632 116.546 182.557 95.8939 115.722 183.347 95.5537 116.432 
184.423 95.8517 116.251 182.853 96.1685 115.698 183.264 96.097 115.832 
183.963 95.8381 116.28 260.176 58.9816 120.337 260.717 59.5724 120.103 
252.81 61.4477 118.402 245.751 63.0835 117.502 255.205 65.7568 118.202 
254.512 66.6256 118.113 252.271 69.7645 118.579 248.92 72.1853 118.72 
246.242 73.8778 118.144 238.483 77.4663 117.91 240.555 76.5402 118.366 
184.38 85.5586 117.16 183.266 86.4991 116.506 182.565 87.7954 116.869 
182.383 90.7787 117.386 195.804 92.1666 117.871 184.306 94.5477 117.755 
183.824 95.2286 116.927 186.316 95.2914 117.234 185.31 95.4047 117.112 
260.945 58.7671 120.569 260.343 60.9772 119.719 251.941 61.1152 118.837 
247.884 61.5769 119.474 259.947 62.5936 119.653 223.159 68.6009 119.444 
245.387 74.3391 118.815 185.541 84.8579 118.349 187.006 83.6648 118.372 
185.118 85.2657 118.2 184.073 87.6716 118.754 187.862 94.3488 118.18 
184.697 94.8396 117.731 186.509 94.769 117.87 184.863 95.034 117.616 
264.048 57.9024 121.434 258.375 58.6446 120.669 263.09 58.4265 121.065 
263.777 58.406 121.194 262.648 59.1956 120.714 253.649 59.6093 120.728 
263.569 59.3545 120.956 247.764 61.3539 120.101 260.474 62.3965 119.852 
257.953 66.5938 120.584 205.373 74.6441 119.249 240.172 76.4442 119.812 
185.973 84.7308 118.966 185.683 85.518 119.393 185.95 85.7437 119.811 
185.893 93.9837 118.505 185.055 94.8289 117.827 266.59 56.3202 122.578 
268.036 56.2355 122.905 265.58 56.9492 122.128 266.905 57.4312 122.231 
266.271 58.35 121.894 247.787 61.1243 120.756 244.277 62.1932 120.423 
260.68 63.7198 120.464 260.843 64.7828 121.309 256.355 68.0617 121.034 
189.514 81.8135 119.354 188.184 83.0626 119.897 186.352 86.4101 120.441 
195.654 90.9939 120.203 188.967 92.914 119.624 269.587 54.5408 124.136 
270.623 55.0768 124.012 265.931 55.9887 122.735 270.183 55.5722 123.693 
264.226 56.3178 122.538 269.968 56.7728 123.493 267.63 58.4163 122.5 
264.865 60.8032 121.704 266.821 60.2872 122.643 234.867 64.3401 121.856 
261.418 65.4329 122.789 251.973 70.9379 121.677 187.984 88.3529 121.557 
189.565 91.9475 120.449 274 52.0087 123.017 274 52.0087 123.017 
274 52.0087 123.017 274 52.0087 123.017 269.431 53.9877 124.758 
269.013 54.2254 124.413 270.512 54.0697 124.876 271.054 54.4604 124.506 
270.958 54.3627 124.639 274 52.0088 123.017 271.101 54.4342 124.561 
271.276 54.846 124.575 272.192 55.1037 125.233 272.269 55.2383 125.206 
264.902 55.4248 123.566 270.069 58.2732 123.928 267.264 60.7622 123.305 
268.204 60.7731 124.208 267.143 61.7015 124.145 262.662 64.8036 123.639 
260.903 65.9875 123.238 250.633 71.3381 123.411 198.252 76.6022 122.619 
189.267 83.068 121.632 270.862 53.9019 125.235 271.114 53.9352 125.286 
274 52.0087 123.018 271.137 53.8815 125.361 268.393 54.0006 124.788 
269.413 53.7484 125.168 271.27 54.2395 125.194 271.17 54.4636 124.676 
271.191 53.9664 125.315 271.848 54.8921 125.115 271.678 55.9133 124.606 
272.151 55.7551 125.064 272.558 56.2668 125.607 270.948 57.2248 124.237 
271.9 56.9276 124.983 272.482 56.5815 125.509 271.591 58.0004 125.252 
270.008 59.2796 124.519 244.236 61.9534 123.141 270.273 59.4879 125.081 
268.11 61.0279 124.415 239.484 63.0806 122.814 267.007 61.9596 124.369 
235.439 63.9493 123.014 262.272 65.2493 124.508 217.778 68.8878 123.959 
257.388 67.9928 124.382 248.382 71.7707 124.276 191.217 82.8024 123.526 
190.889 84.2368 123.584 190.012 89.5079 121.952 191.022 89.4794 122.223 
193.421 89.6125 122.446 271.158 53.9094 125.493 265.608 54.3976 125.195 
272.247 54.8135 125.933 272.366 55.0054 125.742 272.442 55.0984 125.93 
254.602 58.4925 124.611 272.463 57.1919 125.856 271.302 58.6803 125.541 
269.646 60.1878 125.653 268.073 61.3687 125.152 235.683 63.784 124.105 
262.213 65.2789 125.159 260.603 66.2837 124.449 238.79 75.0952 125.226 
193.57 79.6211 123.809 193.69 80.0568 124.541 192.094 86.297 124.108 
271.174 53.7907 126.651 272.7 55.9156 126.138 253.756 59.0804 125.489 
272.63 57.064 126.425 271.134 59.0281 126.051 260.892 65.8843 125.777 
212.99 70.0142 126 251.031 70.4028 125.056 198.143 76.8713 125.431 
195.065 79.464 125.264 194.624 80.0359 125.348 194.325 80.9124 125.601 
194.601 82.1173 126.099 209.816 84.3647 126.011 268.691 53.3248 126.875 
272.19 54.6434 126.906 258.458 57.1198 125.826 272.49 57.5035 127.298 
253.715 59.552 126.275 250.326 61.0049 125.685 247.338 61.9923 125.427 
252.518 60.982 126.934 238.03 63.5842 125.915 197.741 77.4121 125.984 
[...]
POINT_DATA 1354
SCALARS scalars float
LOOKUP_TABLE default
1 1 1 1 1 1 1 1 1 
1 1 1 1 1 1 1 1 1 
1 1 1 1 1 1 1 1 1 
1 1 1 1 1 1 1 1 1 
1 1 1 1 1 1 1 1 1 
1 1 1 1 1 1 1 1 1 
1 1 1 1 1 1 1 1 1 
1 1 1 1 1 1 1 1 1 
1 1 1 1 1 1 1 1 1 
1 1 1 1 1 1 1 1 1 
1 1 1 1 1 1 1 1 1 
1 1 1 1 1 1 1 1 1 
1 1 1 1 1 1 1 1 1 
1 1 1 1 1 1 1 1 1 
1 1 1 1 1 1 1 1 1 
1 1 1 1 1 1 1 1 1 
1 1 1 1 1 1 1 1 1 
1 1 1 1 1 1 1 1 1 
1 1 1 1 1 1 1 1 1 
1 1 1 1 1 1 1 1 1 
1 1 1 1 1 1 1 1 1 
1 1 1 1 1 1 1 1 1 
1 1 1 1 1 1 1 1 1 
1 1 1 1 1 1 1 1 1 
1 1 1 1 1 1 1 1 1 
1 1 1 1 1 1 1 1 1 
1 1 1 1 1 1 1 1 1 
1 1 1 1 1 1 1 1 1 
1 1 1 1 1 1 1 1 1 
1 1 1 1 1 1 1 1 1 
1 1 1 1 1 1 1 1 1 
1 1 1 1 1 1 1 1 1 
1 1 1 1 1 1 1 1 1 
1 1 1 1 1 1 1 1 1 
1 1 1 1 1 1 1 1 1 
1 1 1 1 1 1 1 1 1 
1 1 1 1 1 1 1 1 1 
1 1 1 1 1 1 1 1 1 
1 1 1 1 1 1 1 1 1 
1 1 1 1 1 1 1 1 1 
1 1 1 1 1 1 1 1 1 
1 1 1 1 1 1 1 1 1 
1 1 1 1 1 1 1 1 1 
1 1 1 1 1 1 1 1 1 
1 1 1 1 1 1 1 1 1 
1 1 1 1 1 1 1 1 1 
1 1 1 1 1 1 1 1 1 
1 1 1 1 1 1 1 1 1 
1 1 1 1 1 1 1 1 1 
1 1 1 1 1 1 1 1 1 
1 1 1 1 1 1 1 1 1 
1 1 1 1 1 1 1 1 1 
1 1 1 1 1 1 1 1 1 
1 1 1 1 1 1 1 1 1 
1 1 1 1 1 1 1 1 1 
1 1 1 1 1 1 1 1 1 
1 1 1 1 1 1 1 1 1 
1 1 1 1 1 1 1 1 1 
1 1 1 1 1 1 1 1 1 
1 1 1 1 1 1 1 1 1 
1 1 1 1 1 1 1 1 1 
1 1 1 1 1 1 1 1 1 
1 1 1 1 1 1 1 1 1 
1 1 1 1 1 1 1 1 1 
1 1 1 1 1 1 1 1 1 
1 1 1 1 1 1 1 1 1 
1 1 1 1 1 1 1 1 1 
1 1 1 1 1 1 1 1 1 
1 1 1 1 1 1 1 1 1 
1 1 1 1 1 1 1 1 1 
1 1 1 1 1 1 1 1 1 
1 1 1 1 1 1 1 1 1 
1 1 1 1 1 1 1 1 1 
1 1 1 1 1 1 1 1 1 
1 1 1 1 1 1 1 1 1 
1 1 1 1 1 1 1 1 1 
1 1 1 1 1 1 1 1 1 
1 1 1 1 1 1 1 1 1 
1 1 1 1 1 1 1 1 1 
1 1 1 1 1 1 1 1 1 
1 1 1 1 1 1 1 1 1 
1 1 1 1 1 1 1 1 1 
1 1 1 1 1 1 1 1 1 
1 1 1 1 1 1 1 1 1 
1 1 1 1 1 1 1 1 1 
1 1 1 1 1 1 1 1 1 
1 1 1 1 1 1 1 1 1 
1 1 1 1 1 1 1 1 1 
1 1 1 1 1 1 1 1 1 
1 1 1 1 1 1 1 1 1 
1 1 1 1 1 1 1 1 1 
1 1 1 1 1 1 1 1 1 
1 1 1 1 1 1 1 1 1 
1 1 1 1 1 1 1 1 1 
1 1 1 1 1 1 1 1 1 
1 1 1 1 1 1 1 1 1 
1 1 1 1 1 1 1 1 1 
1 1 1 1 1 1 1 1 1 
1 1 1 1 1 1 1 1 1 
1 1 1 1 1 1 1 1 1 
1 1 1 1 1 1 1 1 1 
1 1 1 1 1 1 1 1 1 
1 1 1 1 1 1 1 1 1 
1 1 1 1 1 1 1 1 1 
1 1 1 1 1 1 1 1 1 
1 1 1 1 1 1 1 1 1 
1 1 1 1 1 1 1 1 1 
1 1 1 1 1 1 1 1 1 
1 1 1 1 1 1 1 1 1 
1 1 1 1 1 1 1 1 1 
1 1 1 1 1 1 1 1 1 
1 1 1 1 1 1 1 1 1 
1 1 1 1 1 1 1 1 1 
1 1 1 1 1 1 1 1 1 
1 1 1 1 1 1 1 1 1 
1 1 1 1 1 1 1 1 1 
1 1 1 1 1 1 1 1 1 
1 1 1 1 1 1 1 1 1 
1 1 1 1 1 1 1 1 1 
1 1 1 1 1 1 1 1 1 
1 1 1 1 1 1 1 1 1 
1 1 1 1 1 1 1 1 1 
1 1 1 1 1 1 1 1 1 
1 1 1 1 1 1 1 1 1 
1 1 1 1 1 1 1 1 1 
1 1 1 1 1 1 1 1 1 
1 1 1 1 1 1 1 1 1 
1 1 1 1 1 1 1 1 1 
1 1 1 1 1 1 1 1 1 
1 1 1 1 1 1 1 1 1 
1 1 1 1 1 1 1 1 1 
1 1 1 1 1 1 1 1 1 
1 1 1 1 1 1 1 1 1 
1 1 1 1 1 1 1 1 1 
1 1 1 1 1 1 1 1 1 
1 1 1 1 1 1 1 1 1 
1 1 1 1 1 1 1 1 1 
1 1 1 1 1 1 1 1 1 
1 1 1 1 1 1 1 1 1 
1 1 1 1 1 1 1 1 1 
1 1 1 1 1 1 1 1 1 
1 1 1 1 1 1 1 1 1 
1 1 1 1 1 1 1 1 1 
1 1 1 1 1 1 1 1 1 
1 1 1 1 1 1 1 1 1 
1 1 1 1 1 1 1 1 1 
1 1 1 1 1 1 1 1 1 
1 1 1 1 1 1 1 1 1 
1 1 1 1 1 1 1 1 1 
1 1 1 1 1 1 1 1 1 
1 1 1 1 
NORMALS Normals float
-0.110767 -0.483767 -0.868159 -0.164989 -0.295645 -0.940942 -0.131457 -0.12486 -0.983427 
0.0575539 -0.38495 -0.921141 0.0468379 -0.0461362 -0.997836 -0.258049 -0.414833 -0.872539 
-0.152666 -0.124149 -0.980449 -0.0245888 0.0819826 -0.99633 -0.110489 -0.0467507 -0.992777 
0.0447293 -0.487552 -0.871947 -0.294721 -0.524602 -0.798707 -0.403714 -0.640898 -0.65289 
0.241251 0.235936 -0.941346 -0.30792 -0.321239 -0.895539 0.146179 0.419686 -0.895821 
-0.0719847 0.148422 -0.986301 -0.356024 -0.0494872 -0.933166 0.00707003 0.277213 -0.960782 
0.081773 -0.332367 -0.939599 -0.0816085 -0.730646 -0.677861 0.0711752 -0.284403 -0.956059 
-0.242304 -0.692858 -0.679144 -0.365218 -0.494655 -0.788627 0.297932 0.273124 -0.91468 
0.37999 0.364775 -0.850028 -0.196516 -0.458119 -0.866896 0.0278034 0.417619 -0.908197 
0.264972 0.618756 -0.739548 0.353747 0.468318 -0.809655 -0.310116 -0.265695 -0.912817 
-0.257681 -0.236259 -0.9369 -0.129614 -0.108641 -0.985595 0.316434 0.763972 -0.562332 
-0.21092 0.15492 -0.965149 0.205484 0.734623 -0.646611 -0.121371 0.15628 -0.980227 
0.334274 0.811699 -0.478963 0.0800325 0.590675 -0.802931 0.142162 0.562134 -0.814736 
-0.112775 -0.672361 -0.731582 0.242907 -0.112712 -0.963479 0.420758 0.605925 -0.675143 
0.499069 0.731471 -0.464629 0.296961 0.674128 -0.676288 0.349281 0.875658 -0.333506 
0.331529 0.819419 -0.467591 0.282725 0.809224 -0.514999 0.353434 0.860872 -0.366038 
-0.00243625 0.0258527 -0.999663 0.21351 0.741133 -0.636503 0.329926 0.861062 -0.386938 
-0.154895 0.303682 -0.940098 0.343389 0.875723 -0.3394 -0.0486079 0.43652 -0.898381 
0.170557 0.808787 -0.562827 0.284618 0.878552 -0.383587 0.238358 0.826789 -0.509516 
0.0225358 0.405747 -0.913707 0.0453118 0.510772 -0.858521 0.200233 0.737823 -0.644612 
0.157986 -0.381417 -0.910803 -0.189427 -0.788838 -0.584681 0.274027 0.0208683 -0.961496 
-0.286383 -0.749124 -0.597326 0.426915 0.693108 -0.580814 0.456347 0.760118 -0.462567 
0.540954 0.769262 -0.340007 -0.219757 -0.654984 -0.722982 0.438504 0.883463 -0.164945 
-0.288371 -0.632988 -0.718449 0.313217 0.894877 -0.317946 -0.364998 -0.447504 -0.816404 
0.389764 0.899432 -0.197755 -0.321168 -0.448374 -0.834153 -0.424315 -0.381119 -0.821404 
0.316003 0.936597 -0.15142 0.280776 0.959769 -0.00282203 -0.39149 -0.226176 -0.891953 
-0.589141 -0.3002 -0.750195 -0.282792 -0.189852 -0.940205 -0.302421 0.0855088 -0.949331 
-0.225093 0.117804 -0.967189 -0.142475 0.37776 -0.914876 -0.174663 0.543428 -0.821084 
0.116273 0.989802 -0.0822918 0.297768 0.82655 -0.47765 0.193533 0.894024 -0.404062 
0.392957 0.349682 -0.850475 -0.395004 -0.747018 -0.53473 0.376697 0.741504 -0.555221 
-0.41426 -0.667812 -0.618398 -0.351056 -0.517953 -0.780054 0.466255 0.882004 -0.0683793 
0.291127 0.950895 -0.105084 -0.517662 -0.524726 -0.675788 -0.46225 -0.448856 -0.764757 
-0.565117 -0.587632 -0.579078 0.289185 0.956356 -0.0419091 -0.552752 -0.303306 -0.77619 
-0.89931 -0.437228 0.0085735 -0.876175 -0.176163 -0.448648 -0.433636 -0.0957688 -0.895985 
-0.768131 -0.499791 -0.400229 -0.280332 0.0222501 -0.959645 0.147005 0.974122 0.171684 
0.211984 0.966545 0.144404 -0.634437 0.267776 -0.725111 -0.855716 0.408928 -0.317062 
-0.430827 0.187592 -0.882722 -0.486474 0.287648 -0.824986 -0.472212 0.36619 -0.801823 
-0.276879 0.179201 -0.944047 -0.351935 0.466383 -0.81156 -0.143356 0.555015 -0.819395 
-0.220332 0.679766 -0.699551 0.104221 0.761333 -0.63993 0.0967392 -0.48802 -0.867455 
-0.0832863 -0.769524 -0.633164 0.344686 0.0963772 -0.933758 -0.531219 -0.764782 -0.364576 
0.440768 0.742027 -0.505093 0.493652 0.740802 -0.455545 0.268236 0.948113 0.170679 
-0.473619 -0.734513 -0.48598 0.333594 0.925991 0.176791 -0.551004 -0.630486 -0.546701 
-0.706049 -0.692192 -0.149551 -0.796345 -0.529942 -0.291541 -0.889841 -0.441603 0.114763 
-0.986925 0.159377 0.024019 -0.961092 -0.00171986 0.276223 -0.886326 -0.398045 0.236615 
0.245559 0.960113 0.133731 -0.932468 0.240676 0.269405 -0.739199 0.493833 -0.457945 
-0.89213 0.443433 0.0864337 -0.336573 0.452111 -0.826023 -0.668543 0.574108 -0.472705 
-0.697423 0.57984 -0.421172 -0.468816 0.589339 -0.657945 -0.0538693 0.859789 -0.507801 
0.287812 -0.154744 -0.945103 -0.229554 -0.848319 -0.477137 0.344911 -0.00164949 -0.938634 
0.524696 0.564646 -0.637079 0.361103 0.93108 -0.0518978 0.279534 0.768882 -0.575049 
0.420112 0.88391 -0.205449 0.374425 0.927247 -0.0043464 0.46889 0.83527 -0.287169 
-0.315019 -0.825148 -0.468928 0.393697 0.918989 0.0214704 -0.312354 -0.808417 -0.498895 
0.35639 0.916113 0.183638 -0.766187 -0.612836 -0.193365 -0.707183 -0.690172 -0.153476 
0.298645 0.953984 0.0269288 -0.897672 -0.0131959 0.440468 0.295942 0.954385 -0.0395933 
0.319016 0.946794 0.0425435 -0.945751 0.305977 0.109241 -0.691574 0.508178 -0.513304 
-0.75302 0.576608 -0.316992 -0.308031 0.648657 -0.695961 -0.348913 0.774937 -0.527004 
-0.794937 0.597464 0.105411 -0.832953 0.553283 -0.0081478 -0.0309955 0.83219 -0.553623 
-0.517429 0.686683 -0.510621 -0.133858 0.739862 -0.659307 0.0818916 0.963826 -0.253641 
0.184493 -0.456493 -0.870389 -0.154768 -0.751226 -0.641643 0.529306 0.817707 -0.226252 
0.346562 0.914371 0.209333 -0.857625 -0.486403 0.167007 -0.893353 -0.309098 0.326158 
-0.80201 0.22613 0.552852 -0.844606 0.505695 0.175821 -0.780041 0.6135 -0.123101 
-0.486482 0.618365 -0.617219 -0.625114 0.697615 -0.350094 -0.259433 0.640092 -0.723171 
0.0421332 0.687501 -0.72496 0.183629 0.982603 -0.0277665 -0.427028 0.86145 -0.274867 
-0.15204 0.8621 -0.483392 0.0164342 0.84994 -0.526623 0.10108 -0.656412 -0.7476 
-0.0265007 -0.684863 -0.72819 -0.112648 -0.800451 -0.588717 0.513837 0.73273 -0.446182 
0.423922 0.905669 -0.00726194 -0.50254 -0.82681 -0.252665 -0.572357 -0.805615 -0.152943 
-0.82225 -0.402292 0.402574 -0.841886 -0.498694 0.206232 0.202001 0.919912 0.336091 
-0.881828 -0.0884439 0.463204 -0.813822 0.299525 0.497974 -0.817953 0.46258 0.342012 
-0.655743 0.485378 0.578281 0.0469601 0.907241 0.417982 -0.679179 0.650406 0.340129 
-0.382349 0.915829 0.122743 -0.137438 0.979013 -0.150478 -0.321445 0.75056 0.57735 
0.294089 0.939347 -0.176464 0.0747935 0.89725 0.435142 0.199434 -0.28789 -0.936667 
-0.0170142 -0.849008 -0.528105 0.03024 -0.488264 -0.872172 -0.116165 -0.848663 -0.516019 
0.320817 -0.0917521 -0.942687 0.447791 0.500569 -0.740887 0.549994 0.6159 -0.564069 
0.43844 0.81245 -0.384313 -0.457519 -0.869856 -0.184466 0.212013 0.913611 0.346937 
-0.801184 -0.0640051 0.594985 -0.683469 0.200083 0.702023 0.341532 0.919286 0.195626 
0.250294 0.900464 0.355693 -0.47014 0.465803 0.749664 -0.250937 0.713843 0.653803 
0.0762093 0.907153 0.413842 -0.281122 0.552849 0.784428 -0.00541727 0.727453 0.686136 
-0.115086 0.826672 0.550789 0.00452508 -0.499031 -0.866573 0.302351 -0.30734 -0.902289 
-0.0689654 -0.644437 -0.761541 -0.265683 -0.836182 -0.479805 0.507411 0.291991 -0.810725 
0.507515 0.331402 -0.795362 0.545494 0.683503 -0.485036 0.519587 0.725532 -0.451257 
0.429075 0.86932 -0.245312 0.229456 0.968788 0.0938108 0.437309 0.898486 0.0385196 
-0.681739 -0.669044 0.295993 -0.747025 -0.650067 0.139164 -0.791778 -0.453783 0.408862 
-0.737078 -0.0857519 0.670345 0.244094 0.868325 0.431776 -0.424796 0.440449 0.790919 
-0.247949 0.69733 0.672497 0.175877 0.885724 0.429604 0.0349803 0.839119 0.542821 
0.289542 -0.465261 -0.836479 0.441945 -0.021812 -0.896777 -0.0524847 -0.721089 -0.690852 
-0.0450303 -0.903422 -0.426382 0.329954 0.276863 -0.902484 -0.341197 -0.901383 -0.266632 
0.396458 0.91667 0.0503771 -0.704551 -0.675752 0.216722 -0.596902 -0.800985 0.0461556 
-0.731527 -0.644632 0.222076 -0.619117 -0.0388567 0.784337 0.120081 0.776941 0.618015 
-0.317938 0.591071 0.741317 0.122845 0.761458 0.636468 -0.229226 0.734488 0.638735 
0.151066 -0.370112 -0.916622 -0.0707112 -0.672765 -0.736469 -0.0707936 -0.46616 -0.881863 
0.139687 -0.369641 -0.918615 0.0803187 -0.254189 -0.963814 -0.240996 -0.91758 -0.316178 
0.341123 -0.0243355 -0.939704 -0.220315 -0.936012 -0.274486 0.604763 0.15114 -0.781933 
0.489226 0.591259 -0.641148 -0.32501 -0.880849 -0.3442 0.294115 0.936489 0.191009 
-0.600946 -0.626205 0.49672 -0.74438 -0.402312 0.532957 -0.555234 -0.433569 0.709741 
-0.139051 0.520531 0.842444 -0.0753948 0.605476 0.792284 0.0792126 -0.425247 -0.901604 
0.296084 -0.253275 -0.92097 0.0845816 -0.49068 -0.867225 0.230011 -0.247634 -0.941155 
0.315766 -0.0571507 -0.947115 -0.0939656 -0.942692 -0.32016 -0.284264 -0.898989 -0.333185 
0.590642 0.358083 -0.723131 0.558433 0.566273 -0.606207 0.457998 0.779746 -0.426889 
-0.50583 -0.862476 -0.0164492 -0.621853 -0.759635 0.190402 -0.622533 -0.240066 0.744863 
0.202763 0.857998 0.47194 0.148088 0.759288 0.633681 0.0864045 -0.558984 -0.824665 
0.365211 -0.405329 -0.838051 0.00724158 -0.557773 -0.829962 0.235587 -0.212363 -0.948368 
-0.206337 -0.690072 -0.693704 0.339124 -0.00363934 -0.940735 0.492265 0.138488 -0.859358 
0.436876 0.288158 -0.852118 0.487376 0.3675 -0.792091 -0.310401 -0.907033 -0.284504 
0.559305 0.747693 -0.357956 0.526757 0.822863 -0.213128 -0.471937 0.220852 0.853522 
-0.334427 0.459064 0.823054 0 -0.970142 -0.242536 0 -0.999201 -0.0399606 
-0.184146 -0.982114 -0.0392772 0.184146 -0.982114 -0.0392772 0.0246043 -0.859948 -0.509788 
-0.182478 -0.717629 -0.672094 0.211174 -0.750559 -0.626152 0.267223 -0.615325 -0.741598 
0.208414 -0.841771 -0.497981 0 0.996172 0.0874195 0.638429 -0.533985 -0.554318 
0.719317 -0.330876 -0.610823 0.644051 -0.586525 -0.491109 0.803194 -0.261824 -0.535096 
-0.215579 -0.773838 -0.595568 0.563938 0.323863 -0.759662 0.433079 0.603617 -0.669394 
0.634659 0.548073 -0.544816 0.488176 0.697005 -0.525232 0.62153 0.75049 -0.224646 
0.538837 0.817881 -0.201806 0.377571 0.875035 0.302909 -0.532843 -0.843651 -0.0658109 
-0.67623 -0.496131 0.54458 0.230355 -0.728636 -0.645001 0.360824 -0.576542 -0.733079 
0 -0.986394 0.164399 0.49541 -0.803141 -0.330959 -0.214014 -0.759215 -0.614647 
0.125825 -0.924953 -0.358649 0.607973 -0.590254 -0.531007 0.702999 -0.63561 -0.319049 
0.77079 -0.52834 -0.356005 0.603611 -0.482225 -0.634911 0.608932 9.71023e-05 -0.793223 
0.673955 -0.0671232 -0.735717 0.901112 0.0205348 -0.433101 0.615034 0.289693 -0.733356 
0.622167 0.289963 -0.727207 0.881612 0.159738 -0.444122 0.741254 0.499964 -0.447861 
0.645658 0.482168 -0.592148 -0.261367 -0.958223 0.116176 0.749168 0.615367 -0.245093 
0.660916 0.625646 -0.414436 -0.248011 -0.952602 -0.176183 0.465907 0.693749 -0.549221 
-0.24563 -0.966062 -0.0799338 0.616932 0.781712 -0.091217 -0.22102 -0.935251 -0.276508 
0.457477 0.879603 0.130432 0.357675 0.806727 0.470382 -0.622853 -0.260495 0.737697 
-0.545077 -0.104726 0.831819 -0.237098 0.521464 0.819671 -0.210645 0.507032 0.835792 
-0.00881422 0.742514 0.669773 0.794282 -0.580657 -0.178755 -0.32403 -0.903533 -0.280414 
0.724049 -0.685498 -0.0764644 0.761804 -0.576678 -0.295122 0.922467 -0.379259 -0.0722264 
-0.332168 -0.914869 0.22952 0.891428 0.266066 -0.366832 0.724645 0.518523 -0.453898 
0.740935 0.667306 0.0756207 0.634342 0.765639 -0.106805 -0.260447 -0.964528 -0.0430418 
0.56806 0.820038 0.0696114 0.523564 0.820634 0.228999 0.342528 0.843717 0.413299 
-0.624217 -0.647688 0.436867 -0.683933 -0.409093 0.604052 -0.382505 0.244135 0.891116 
0.548973 -0.833942 -0.0563002 0.986623 -0.058414 -0.152193 -0.331984 -0.866628 0.372481 
0.928767 0.341864 -0.143249 0.7419 0.668349 -0.053789 0.542646 0.807255 0.232109 
-0.296692 -0.946664 -0.125703 0.358334 0.810718 0.462961 -0.597939 -0.757404 0.262311 
-0.546878 -0.484623 0.68269 -0.443478 -0.491135 0.749743 -0.588549 -0.271918 0.761361 
-0.523915 -0.15982 0.836642 0.306587 0.876808 0.370423 -0.126403 -0.967041 -0.221028 
0.826609 -0.562757 0.00466006 -0.424496 -0.87683 0.22577 0.81408 0.579347 0.0403734 
-0.327534 -0.706044 0.627873 -0.381387 -0.800906 0.461619 -0.193565 -0.665837 0.720551 
-0.366779 -0.514677 0.774971 -0.0814448 -0.968158 0.236721 -0.585758 -0.695299 0.416469 
-0.639235 0.362246 0.678348 -0.243241 0.359852 0.900745 0.201777 0.762223 0.615062 
0.492106 -0.869392 -0.0445907 0.676758 -0.72674 0.117673 0.76505 -0.632224 0.122439 
0.935038 -0.331486 0.125781 0.998233 -0.0591185 -0.00598785 -0.351047 -0.717317 0.601849 
0.928381 0.350753 0.122803 0.527962 0.763036 0.37287 -0.314659 -0.340729 0.885942 
0.385454 0.724061 0.571979 0.156728 -0.370075 0.915686 -0.0540496 -0.202254 0.97784 
-0.192256 -0.975093 -0.110595 0.376794 0.633421 0.675873 0.308729 0.567793 0.763084 
-0.501091 -0.863369 0.0591779 0.241932 0.658327 0.712794 0 -0.970143 -0.242536 
0 -1 0 -0.707107 -0.707107 0 0.707107 -0.707107 0 
0 1 0 -0.538007 -0.433854 0.722716 -0.540559 -0.358062 0.761306 
-0.479083 0.210734 0.852098 -0.29164 0.334737 0.896046 0.118373 0.674839 0.728409 
-0.261943 0.624767 0.735563 0.890359 -0.381756 0.248039 0.925215 0.0873273 0.369258 
0.860711 0.256585 0.439706 -0.332518 -0.444034 0.832025 0.83357 0.42673 0.350804 
-0.343248 -0.372668 0.862148 -0.0106125 -0.758201 0.651934 -0.256998 -0.177706 0.949933 
-0.147153 -0.982136 0.117282 -0.16233 -0.985425 0.0508495 0.073215 0.0416699 0.996445 
-0.0763434 0.165202 0.983301 -0.347572 -0.935834 0.0583762 0.0147011 0.108887 0.993945 
0.216114 0.609247 0.762963 0.19923 0.146616 0.968923 0.158526 0.511427 0.844578 
0.194642 0.491782 0.848684 0 -0.970143 0.242536 -0.575839 -0.461553 0.674818 
-0.486994 -0.0457427 0.872207 -0.433038 0.302882 0.848965 -0.352322 0.399989 0.846096 
-0.298454 0.59817 0.743719 0.0552463 0.648935 0.758836 7.93192e-05 0.714373 0.699765 
0.159925 -0.986749 -0.0273749 0.237996 -0.637462 0.732803 -0.283422 -0.958195 0.0391618 
0.634491 -0.768712 0.0806397 -0.46148 -0.752351 0.470112 0.710756 -0.629859 0.313216 
0.783903 -0.556845 0.274626 -0.42555 -0.488751 0.761597 -0.382449 -0.445652 0.809399 
0 -0.992278 -0.124035 0 -1 0 -0.351123 -0.936329 0 
0.351123 -0.936329 0 -0.0542091 -0.922197 0.382902 0 1 0 
-0.225581 0.0382509 0.973473 0.0852594 -0.740225 0.666932 -0.0591425 0.195875 0.978844 
-0.205641 0.282934 0.936835 0.0861799 0.427558 0.899871 0.464212 0.710773 0.528497 
-0.363398 -0.915824 0.170904 0.0934347 -0.556738 0.825417 0.269315 -0.475755 0.837333 
0.202532 -0.382524 0.901475 -0.0752567 0.35235 0.932838 0.388965 -0.100605 0.915743 
0.147112 0.553926 0.819466 -0.17148 -0.984706 0.0308097 0.407265 0.495449 0.767245 
0.569688 0.58191 0.580377 0.493455 0.752151 0.436774 0.223267 0.884297 0.410085 
0.116289 0.840844 0.528639 -0.0701183 0.614819 0.785545 -0.213553 -0.976928 -0.00253276 
-0.370378 -0.84247 0.391235 0.3218 -0.936849 -0.136963 -0.449038 -0.893268 0.0209196 
-0.500162 -0.798354 0.335364 0.802668 -0.394045 0.447719 0.931084 -0.133575 0.33947 
0.509286 0.755856 0.411472 0.234569 0.6996 0.674935 0 -0.992278 0.124035 
0.0597768 0.507603 0.859515 0.0131492 -0.919011 0.394013 -0.0510271 -0.78585 0.616308 
0.0672439 0.539589 0.839239 -0.229843 -0.902371 0.364554 -0.128793 -0.883579 0.450224 
0.131089 0.469698 0.87304 -0.440253 -0.837274 0.324267 -0.404244 -0.907894 0.110975 
0.422216 -0.0485516 0.905194 0.591375 0.258004 0.764009 -0.454319 -0.802333 0.387113 
-0.659665 -0.679605 0.320902 -0.480598 0.0822587 0.873074 -0.152291 0.496423 0.854618 
-0.406124 -0.7656 0.498919 -0.268104 -0.636725 0.722981 0.381553 -0.36446 0.849462 
-0.426494 -0.686479 0.588939 0.329178 -0.341654 0.880292 0.417003 -0.217929 0.882392 
-0.34494 -0.483829 0.804317 -0.224177 -0.0478359 0.973374 0.840006 0.423234 0.339504 
-0.216443 -0.0317268 0.975779 0.462647 0.793584 0.3952 0.0214632 0.563758 0.825661 
-0.0847851 -0.839313 0.536996 -0.046539 -0.861069 0.506355 -0.0496031 -0.80987 0.584509 
-0.133596 -0.745765 0.652677 0.0641963 -0.813946 0.577383 -0.250024 -0.92509 0.285825 
-0.482802 -0.854192 0.193024 0.471389 0.212576 0.855923 0.525336 0.352948 0.774242 
-0.599527 -0.558701 0.57308 0.2129 0.855003 0.472909 -0.449999 0.222945 0.864752 
0.00509275 0.852347 0.522952 -0.172536 0.576238 0.798862 -0.0278423 -0.280776 0.959369 
-0.202939 -0.403194 0.892329 0.31807 -0.576096 0.752957 -0.361755 -0.100221 0.926871 
-0.25317 -0.272528 0.928242 -0.0177347 -0.422374 0.906248 0.925189 -0.0958271 0.36721 
-0.310591 0.0180392 0.950373 0.88816 0.238994 0.392497 0.265163 0.795705 0.544556 
-0.13839 0.24973 0.958375 -0.040012 0.357928 0.932892 -0.262165 -0.90181 0.343524 
0.0442934 -0.580138 0.813313 0.0907518 -0.526291 0.845447 -0.177527 -0.595906 0.783186 
0.326543 -0.109631 0.938803 -0.259718 -0.664584 0.700624 0.443071 0.451065 0.774744 
-0.507493 -0.0775691 0.858157 -0.324167 0.297743 0.897922 -0.288408 0.528239 0.798614 
-0.213067 0.707235 0.674108 0.362052 -0.578781 0.730705 0.845598 -0.361102 0.393153 
0.867647 0.337331 0.365235 0.890049 0.11458 0.44123 -0.128502 0.184246 0.974444 
-0.0941061 -0.0919716 0.991305 0.602164 0.604181 0.521885 0.284729 0.660423 0.694817 