# vtk DataFile Version 4.2
vtk output
ASCII
DATASET POLYDATA
POINTS 1133 float
234.696 98.6559 60.7779 230.069 101.806 60.7557 228 104.009 59.0174 
228 104.009 59.0175 228 104.009 59.0175 228 104.009 59.0175 
226.634 104.575 61.089 226.584 104.432 61.0525 228 104.009 59.0175 
226.815 104.461 61.0834 244.401 92.0467 62.1808 244.401 92.0116 62.1984 
244.3 92.0475 62.1947 244.411 92.0316 62.2107 244.34 92.1224 62.206 
243.931 92.857 62.0854 241.405 94.1574 61.3589 242.011 94.3607 61.5124 
239.495 95.5963 61.2089 236.452 97.3236 60.9816 237.754 97.0717 61.2238 
235.602 98.1685 60.968 229.513 101.86 60.8001 225.256 104.259 60.9794 
226.765 103.879 60.9745 228 104.009 59.0175 227.442 103.761 61.0156 
228.029 103.563 61.0841 230.048 102.615 61.1745 227.078 104.406 61.1486 
224.574 105.603 61.1797 226.257 105.047 61.3254 220.905 108.006 61.2292 
222.925 107.199 61.3927 220.707 108.512 61.308 218.094 109.38 61.5631 
219.061 110.016 61.6308 217.09 110.215 61.9933 217.839 110.39 61.8163 
217.418 110.601 61.9789 217.639 110.693 61.9472 244.04 91.2736 62.6398 
244.08 91.8521 62.2733 244.224 91.6653 62.58 240.81 92.7005 61.512 
244.021 92.3429 62.1419 244.343 91.9467 62.2911 244.386 92.0621 62.2791 
244.306 92.2365 62.3481 244.198 92.7885 62.3753 237.07 94.97 61.1244 
241.982 95.1292 61.802 243.203 94.7333 62.2473 243.411 94.4987 62.1776 
239.986 96.0937 61.46 239.759 96.5038 61.6446 235.179 99.3017 61.3737 
231.367 101.64 61.0464 229.954 102.89 61.3334 227.404 104.34 61.2601 
226.182 105.426 61.6505 224.732 106.323 61.5925 217.884 108.331 61.6612 
216.886 108.969 62.057 220.501 109.071 61.4753 221.149 108.962 61.684 
221.54 108.772 61.8038 219.722 109.754 61.6073 220.282 109.431 61.6357 
218.974 110.349 61.8293 219.202 110.256 61.7292 219.452 110.059 61.6794 
217.71 110.806 62.0182 217.997 110.748 62.0183 217.251 111.006 62.3475 
243.358 89.8644 63.1757 237.282 92.2305 62.0073 244.351 92.0018 62.4343 
244.324 92.1257 62.7571 244.232 93.7285 62.3816 244.355 93.4076 62.61 
243.493 94.5498 62.4778 243.988 94.0443 62.4329 244.295 93.8583 62.4033 
244.414 93.6709 62.4501 244.407 93.7703 62.4093 244.46 93.7288 62.4308 
243.26 94.8036 62.3867 244.388 93.8179 62.4212 243.152 94.909 62.4207 
244.44 93.7616 62.4337 241.397 95.95 62.1918 241.818 95.7359 62.3459 
242.289 95.4122 62.4965 239.202 97.2413 62.1296 235.846 99.3761 62.0969 
236.806 98.8104 62.446 235.794 99.4642 62.4098 233.437 100.937 62.1059 
230.528 102.733 61.6853 230.786 102.641 61.9021 227.083 104.924 61.759 
228.396 104.09 61.8341 227.949 104.441 62.0567 225.14 106.351 62.0025 
222.908 108.056 62.4047 223.175 107.914 62.371 223.15 107.918 62.3004 
215.87 108.276 63.0081 221.234 109.077 62.0158 219.337 110.195 61.7713 
218.722 110.632 62.2035 216.76 110.952 62.6434 216.969 111.095 62.5716 
216.814 111.086 62.7626 217.011 111.221 62.7395 241.997 88.1936 64.0209 
241.682 88.2821 63.8883 242.913 88.7785 64.0779 239.314 89.3011 63.1986 
243.624 89.8801 63.7085 244.357 93.0277 63.1349 244.426 93.3351 62.8418 
244.429 93.4194 62.7596 244.433 93.4131 62.8218 244.212 93.73 62.679 
244.335 93.7688 62.4867 244.358 93.4947 62.7952 244.435 93.6758 62.4725 
241.5 95.9164 62.8558 225.873 98.2613 62.2151 241.203 96.1616 62.6889 
237.589 98.2893 62.5915 235.346 99.6833 62.7114 233.427 100.965 62.4342 
225.92 105.836 62.2186 215.315 107.363 63.8796 223.16 107.821 62.1286 
215.367 107.949 63.6339 223.752 107.437 62.3428 224.02 107.219 62.5768 
215.584 108.648 63.3902 220.449 109.594 62.5715 216.023 110.017 63.0311 
216.03 110.085 63.2649 218.95 110.534 62.5899 219.141 110.402 62.7967 
217.29 111.264 62.7209 217.75 111.077 62.7631 216.85 111.131 62.9898 
217.073 111.316 62.8689 217.047 111.287 63.0035 217.21 111.366 62.8503 
217.371 111.307 62.8322 217.147 111.362 62.9336 217.261 111.356 62.9153 
242.252 87.8943 64.4603 243.98 90.4788 63.7656 244.264 92.4064 63.6875 
244.396 92.942 63.3415 244.387 92.9028 63.4191 244.132 93.5797 63.0249 
244.375 93.3762 62.918 234.46 99.6535 63.9246 230.099 102.485 63.8301 
232.852 101.188 62.9511 230.613 102.591 62.9791 229.577 103.295 62.8686 
215.158 104.664 64.5527 227.267 104.783 62.8814 215.065 105.599 64.4489 
224.431 106.594 63.344 225.136 106.305 62.8017 215.312 107.894 63.7822 
215.295 108.118 64.0906 215.493 109.204 63.6871 216.507 110.466 63.5812 
218.037 110.601 63.483 216.724 110.816 63.4243 216.802 111.011 63.2461 
217.025 111.136 63.1937 243.921 90.4486 64.5938 244.249 92.1941 63.9843 
244.208 92.0048 64.078 244.221 92.1188 64.0919 244.049 93.016 63.679 
244.157 92.2499 64.0749 230.079 101.641 64.7916 214.17 104.315 65.7855 
214.267 104.928 65.496 214.453 105.551 65.4003 214.64 106.367 65.1296 
214.595 106.424 65.3011 214.754 106.718 65.2249 215.602 109.391 63.7043 
217.319 109.906 64.2723 218.043 109.375 64.5542 217.695 110.32 63.8965 
216.665 110.298 63.8715 217.224 110.669 63.6724 216.908 110.94 63.3967 
241.934 86.4374 66.2107 243.036 88.0522 66.1703 243.599 89.3272 65.4848 
243.608 89.6104 65.4871 243.627 90.2285 65.3168 244.127 92.0309 64.2227 
214.609 100.087 66.4699 213.867 104.042 66.3265 219.622 106.428 66.1491 
214.581 106.35 65.4389 214.57 106 65.8163 215.098 107.32 65.2555 
216.17 108.122 65.2736 216.729 109.951 64.1588 240.006 83.8257 67.7605 
241.014 84.942 67.299 241.915 86.1847 66.7152 242.692 87.4012 66.7533 
242.978 87.7792 66.5229 243.044 87.9068 66.4511 243.022 87.85 66.5513 
243.044 88.6958 66.4435 243.004 88.0097 66.5448 243.291 90.5421 65.7389 
242.181 91.3975 66.4129 242.886 90.7271 66.1175 212.979 100.376 67.8315 
212.623 101.127 68.1126 213.069 100.998 67.572 212.667 101.355 68.0986 
213.173 102.674 67.5055 213.771 104.131 66.6144 213.621 103.841 67.0932 
215.375 106.773 66.0105 242.406 87.2042 67.4608 242.923 87.7679 66.67 
242.753 87.8754 66.957 242.996 89.5627 66.3977 241.951 90.1974 67.2216 
238.174 92.2141 68.1566 212.239 99.8017 69.152 212.576 101.064 68.2513 
212.52 100.838 68.6146 212.678 101.621 68.2374 212.767 101.942 68.0434 
212.876 102.192 68.1346 212.964 102.659 67.921 212.97 102.591 67.8702 
213.069 102.766 67.8156 213.372 103.148 67.7688 214.885 105.365 67.0352 
216.214 106.401 66.629 241.945 86.0392 67.8756 224.139 87.3964 68.5904 
212.555 97.7054 69.0808 211.989 98.8464 69.7307 212.086 99.7696 69.4574 
212.012 99.6242 69.5712 212.054 99.6893 69.6345 212.256 100.108 69.4342 
213.029 102.637 68.0202 214.644 104.522 67.6985 214.914 104.93 67.4652 
237.498 80.3105 70.381 240.8 83.3608 69.9595 241.066 87.6238 69.2034 
242.027 88.0457 68.0255 213.404 93.2401 70.0728 211.667 98.1341 70.5066 
212.075 99.3999 70.0341 214.738 102.812 69.147 241.044 83.9648 69.8942 
241.105 84.9221 70.019 240.232 86.0364 70.76 240.994 86.1982 69.8606 
211.156 96.0273 71.5883 211.509 97.5788 71.1754 212.311 99.3947 70.6533 
212.73 100.1 70.4898 212.959 101.038 69.8355 238.197 79.2286 72.0872 
239.911 81.2606 71.5437 238.214 86.5397 71.9032 211.057 91.253 72.7261 
210.496 92.0031 73.0263 222.505 95.0131 72.0622 214.351 99.4624 71.6211 
214.615 99.0589 71.8875 213 99.8267 71.0015 236.282 77.0242 73.8429 
235.053 77.0591 73.5268 237.559 77.9877 73.3951 238.322 78.9855 72.6265 
238.485 78.917 73.1346 239.886 81.0751 72.8485 240.045 81.4132 72.5744 
240.114 81.5321 72.5596 240.202 83.2926 71.7992 209.948 92.4037 73.7779 
210.608 95.174 73.2912 211.621 97.0215 72.41 212.128 97.8109 72.1377 
213.246 98.5534 72.2196 236.545 76.6395 74.5221 236.86 76.6319 74.8847 
239.844 81.0381 73.2943 239.81 80.8789 73.3764 239.813 80.9421 73.4174 
239.879 81.4456 72.9988 210.709 88.3563 74.3508 209.483 90.1812 74.7747 
209.329 90.2291 74.928 209.436 90.8222 74.8515 209.471 91.718 74.906 
210.336 94.4841 74.0094 210.443 94.9411 73.7295 210.455 94.9808 73.7976 
210.556 95.1065 73.6801 213.217 97.2665 73.1753 212.688 96.9904 73.2943 
211.626 96.4993 73.1381 235.47 75.0508 76.0178 238.312 78.2532 74.4256 
238.242 77.9718 75.3203 238.795 79.0898 74.6393 238.973 79.647 74.4925 
239.507 80.7575 73.7812 239.738 80.8516 73.5053 238.867 81.513 74.3683 
208.883 88.5712 76.2175 223.049 90.1007 75.4133 209.276 90.2283 75.0862 
210.531 94.9363 73.9108 211.866 96.2743 73.6082 212.131 95.9146 74.1099 
234.505 74.124 76.8354 235.377 74.4737 76.8228 231.968 74.6656 76.126 
233.032 74.0037 76.733 238.395 78.5012 75.7619 238.729 80.2635 75.0144 
209.354 91.7432 75.8727 209.607 92.2241 76.0077 235.055 73.5937 78.0746 
233.496 73.6045 77.201 233.697 73.248 77.6831 238.313 78.2124 76.1613 
238.501 79.245 75.5514 208.294 87.6242 77.5076 208.165 87.6538 77.6702 
208.28 88.1581 77.5518 208.777 90.2449 77.5312 215.71 91.5445 77.2515 
209.572 91.9049 76.5947 212.374 93.5715 76.2994 237.323 76.5258 78.0366 
237.951 77.557 76.8992 237.837 78.3531 76.9761 236.239 80.3994 77.5576 
236.554 79.4424 77.967 210.097 84.4044 77.5486 207.71 85.769 79.3056 
208.134 87.6782 77.7896 207.793 86.643 78.9365 208.017 87.2552 78.3478 
208.591 89.936 78.1021 208.523 89.8126 78.2521 208.589 89.9378 78.226 
208.771 90.1055 78.1829 212.895 91.7299 77.8837 209.587 91.2219 77.6408 
210.907 92.5406 77.0472 211.077 92.342 77.3012 210.628 92.6849 76.7293 
229.273 72.2486 79.2637 235.958 74.0476 79.0095 236.974 75.9368 78.7531 
237.227 76.3551 78.5814 237.177 77.0415 78.4569 207.975 88.2603 78.7531 
208.111 88.7027 78.6665 208.218 88.7029 79.4051 208.731 89.6562 78.8278 
211.048 91.8369 77.7737 234.846 72.625 80.0948 235.335 73.1365 80.1644 
235.939 73.9631 79.4489 234.825 79.1519 79.6889 207.331 83.6391 80.88 
207.528 84.4287 80.1983 207.137 85.5091 80.788 207.732 87.3624 80.1407 
207.984 88.0996 79.6604 236.034 74.8171 80.6636 236.366 77.3889 79.6573 
206.713 83.0668 82.129 206.884 85.3094 81.3349 207.395 86.3647 81.2711 
208.434 88.5331 80.1526 232.341 69.9088 82.6512 232.041 69.8499 82.6484 
235.5 73.5775 81.1419 235.874 75.7201 81.1981 235.916 75.8502 81.1735 
235.232 76.5707 81.3936 206.72 82.5941 82.3484 209.214 88.6723 80.6484 
[...]
POINT_DATA 1133
SCALARS scalars float
LOOKUP_TABLE default
1 1 1 1 1 1 1 1 1 
1 1 1 1 1 1 1 1 1 
1 1 1 1 1 1 1 1 1 
1 1 1 1 1 1 1 1 1 
1 1 1 1 1 1 1 1 1 
1 1 1 1 1 1 1 1 1 
1 1 1 1 1 1 1 1 1 
1 1 1 1 1 1 1 1 1 
1 1 1 1 1 1 1 1 1 
1 1 1 1 1 1 1 1 1 
1 1 1 1 1 1 1 1 1 
1 1 1 1 1 1 1 1 1 
1 1 1 1 1 1 1 1 1 
1 1 1 1 1 1 1 1 1 
1 1 1 1 1 1 1 1 1 
1 1 1 1 1 1 1 1 1 
1 1 1 1 1 1 1 1 1 
1 1 1 1 1 1 1 1 1 
1 1 1 1 1 1 1 1 1 
1 1 1 1 1 1 1 1 1 
1 1 1 1 1 1 1 1 1 
1 1 1 1 1 1 1 1 1 
1 1 1 1 1 1 1 1 1 
1 1 1 1 1 1 1 1 1 
1 1 1 1 1 1 1 1 1 
1 1 1 1 1 1 1 1 1 
1 1 1 1 1 1 1 1 1 
1 1 1 1 1 1 1 1 1 
1 1 1 1 1 1 1 1 1 
1 1 1 1 1 1 1 1 1 
1 1 1 1 1 1 1 1 1 
1 1 1 1 1 1 1 1 1 
1 1 1 1 1 1 1 1 1 
1 1 1 1 1 1 1 1 1 
1 1 1 1 1 1 1 1 1 
1 1 1 1 1 1 1 1 1 
1 1 1 1 1 1 1 1 1 
1 1 1 1 1 1 1 1 1 
1 1 1 1 1 1 1 1 1 
1 1 1 1 1 1 1 1 1 
1 1 1 1 1 1 1 1 1 
1 1 1 1 1 1 1 1 1 
1 1 1 1 1 1 1 1 1 
1 1 1 1 1 1 1 1 1 
1 1 1 1 1 1 1 1 1 
1 1 1 1 1 1 1 1 1 
1 1 1 1 1 1 1 1 1 
1 1 1 1 1 1 1 1 1 
1 1 1 1 1 1 1 1 1 
1 1 1 1 1 1 1 1 1 
1 1 1 1 1 1 1 1 1 
1 1 1 1 1 1 1 1 1 
1 1 1 1 1 1 1 1 1 
1 1 1 1 1 1 1 1 1 
1 1 1 1 1 1 1 1 1 
1 1 1 1 1 1 1 1 1 
1 1 1 1 1 1 1 1 1 
1 1 1 1 1 1 1 1 1 
1 1 1 1 1 1 1 1 1 
1 1 1 1 1 1 1 1 1 
1 1 1 1 1 1 1 1 1 
1 1 1 1 1 1 1 1 1 
1 1 1 1 1 1 1 1 1 
1 1 1 1 1 1 1 1 1 
1 1 1 1 1 1 1 1 1 
1 1 1 1 1 1 1 1 1 
1 1 1 1 1 1 1 1 1 
1 1 1 1 1 1 1 1 1 
1 1 1 1 1 1 1 1 1 
1 1 1 1 1 1 1 1 1 
1 1 1 1 1 1 1 1 1 
1 1 1 1 1 1 1 1 1 
1 1 1 1 1 1 1 1 1 
1 1 1 1 1 1 1 1 1 
1 1 1 1 1 1 1 1 1 
1 1 1 1 1 1 1 1 1 
1 1 1 1 1 1 1 1 1 
1 1 1 1 1 1 1 1 1 
1 1 1 1 1 1 1 1 1 
1 1 1 1 1 1 1 1 1 
1 1 1 1 1 1 1 1 1 
1 1 1 1 1 1 1 1 1 
1 1 1 1 1 1 1 1 1 
1 1 1 1 1 1 1 1 1 
1 1 1 1 1 1 1 1 1 
1 1 1 1 1 1 1 1 1 
1 1 1 1 1 1 1 1 1 
1 1 1 1 1 1 1 1 1 
1 1 1 1 1 1 1 1 1 
1 1 1 1 1 1 1 1 1 
1 1 1 1 1 1 1 1 1 
1 1 1 1 1 1 1 1 1 
1 1 1 1 1 1 1 1 1 
1 1 1 1 1 1 1 1 1 
1 1 1 1 1 1 1 1 1 
1 1 1 1 1 1 1 1 1 
1 1 1 1 1 1 1 1 1 
1 1 1 1 1 1 1 1 1 
1 1 1 1 1 1 1 1 1 
1 1 1 1 1 1 1 1 1 
1 1 1 1 1 1 1 1 1 
1 1 1 1 1 1 1 1 1 
1 1 1 1 1 1 1 1 1 
1 1 1 1 1 1 1 1 1 
1 1 1 1 1 1 1 1 1 
1 1 1 1 1 1 1 1 1 
1 1 1 1 1 1 1 1 1 
1 1 1 1 1 1 1 1 1 
1 1 1 1 1 1 1 1 1 
1 1 1 1 1 1 1 1 1 
1 1 1 1 1 1 1 1 1 
1 1 1 1 1 1 1 1 1 
1 1 1 1 1 1 1 1 1 
1 1 1 1 1 1 1 1 1 
1 1 1 1 1 1 1 1 1 
1 1 1 1 1 1 1 1 1 
1 1 1 1 1 1 1 1 1 
1 1 1 1 1 1 1 1 1 
1 1 1 1 1 1 1 1 1 
1 1 1 1 1 1 1 1 1 
1 1 1 1 1 1 1 1 1 
1 1 1 1 1 1 1 1 1 
1 1 1 1 1 1 1 1 1 
1 1 1 1 1 1 1 1 1 
1 1 1 1 1 1 1 1 1 
1 1 1 1 1 1 1 1 
NORMALS Normals float
-0.0153833 -0.0754863 -0.997028 0.119467 0.553997 -0.823902 0 -0.109945 -0.993938 
0 -0.994869 -0.10117 -0.901052 -0.428574 -0.066554 0.901052 -0.428574 -0.066554 
0.236744 0.550346 -0.800669 -0.124057 0.0490752 -0.991061 0 0.447214 -0.894427 
0.20654 0.151888 -0.966577 0.544089 0.072265 -0.83591 0.471192 -0.643295 -0.603448 
-0.0194408 -0.325797 -0.94524 0.996075 0.0573833 0.0673962 0.651053 0.556073 -0.516636 
0.389437 -0.0516543 -0.919604 0.197416 0.105729 -0.974602 0.308634 0.120144 -0.943563 
0.0868493 0.0721537 -0.993605 0.212564 0.180739 -0.960286 0.255586 0.333023 -0.907618 
0.273701 0.229471 -0.93404 0.0202717 0.31098 -0.9502 -0.0416347 0.00345831 -0.999127 
-0.151908 -0.158349 -0.975628 0 -0.273806 0.961785 0.187081 0.187258 -0.964331 
0.128449 0.0244383 -0.991415 0.381714 0.500687 -0.776922 0.266333 0.313568 -0.91145 
0.23013 0.39728 -0.888374 0.0598723 0.436373 -0.897772 0.133018 0.0998764 -0.986068 
0.233668 0.272168 -0.933447 0.0836685 0.228825 -0.969865 -0.176763 0.0963435 -0.979527 
-0.0374902 0.305633 -0.951411 -0.449608 0.208829 -0.868472 -0.119898 0.255073 -0.959459 
-0.352177 0.430487 -0.831055 -0.102696 0.475335 -0.873791 0.74564 -0.483434 -0.458599 
0.131232 -0.487252 -0.863344 0.897381 -0.414047 -0.152554 0.0837272 -0.242322 -0.966576 
0.260533 0.112086 -0.958936 0.722945 -0.651242 -0.230726 0.973969 0.168864 0.151229 
0.909549 0.369608 -0.190026 0.842385 0.0846804 -0.532182 0.0235109 -0.102709 -0.994434 
0.393709 0.553716 -0.733752 0.559384 0.633984 -0.533997 0.569871 0.543954 -0.615923 
0.288257 0.428611 -0.856271 0.309342 0.55776 -0.770202 0.441352 0.683381 -0.581548 
0.341411 0.668168 -0.661052 0.333802 0.592459 -0.733191 0.389549 0.633423 -0.6686 
0.438198 0.689482 -0.576713 0.400283 0.548318 -0.734249 -0.375746 -0.193978 -0.906194 
-0.598827 -0.0147059 -0.800744 0.322197 0.369672 -0.871511 0.43574 0.589418 -0.680233 
0.578056 0.671427 -0.46372 0.277193 0.435803 -0.856294 0.264892 0.583031 -0.768054 
0.278852 0.835211 -0.473988 0.225767 0.719129 -0.657178 0.397569 0.586627 -0.705555 
-0.0329401 0.782376 -0.621935 0.12832 0.667822 -0.733177 -0.360221 0.596901 -0.716902 
0.597238 -0.562632 -0.571622 -0.211061 -0.396392 -0.893491 0.98592 -0.0962769 0.136724 
0.998647 -0.0517706 -0.00487211 0.393768 0.0329213 -0.91862 0.94293 -0.0420885 -0.330322 
0.725868 0.685726 -0.0538073 0.614898 0.774929 -0.146237 0.238468 0.375963 -0.895424 
0.375535 -0.50898 -0.774541 0.362475 0.102497 -0.92634 0.820653 -0.128667 -0.556753 
0.678605 0.651234 -0.339691 0.612327 0.774025 -0.161065 0.512745 0.820031 0.254247 
0.765602 0.581478 0.275204 0.492737 0.670946 -0.554113 0.590776 0.766275 -0.252601 
0.535311 0.729026 -0.426572 0.514511 0.814672 -0.267559 0.439871 0.832275 -0.33739 
0.574138 0.808724 -0.12779 0.448764 0.893202 0.0283133 0.517602 0.849141 -0.105111 
0.56953 0.72205 -0.392784 0.5596 0.769227 -0.308444 0.498564 0.770546 -0.397106 
0.541992 0.824634 -0.161934 0.565098 0.811697 -0.147689 0.552124 0.795965 -0.248192 
0.517246 0.850678 0.0938266 0.65292 0.753596 0.07609 0.534426 0.793751 -0.290428 
-0.690972 -0.0573451 -0.720603 0.619316 0.771025 -0.148217 0.518273 0.816758 -0.253572 
0.357727 0.906022 -0.226176 -0.647941 0.468155 -0.600835 -0.418212 0.702204 -0.576202 
-0.732151 0.659529 -0.170224 -0.446083 0.815147 -0.36952 0.340677 -0.483227 -0.806493 
0.0829486 -0.58825 -0.804414 0.715262 -0.642784 -0.274277 -0.0256364 -0.490749 -0.870924 
0.859577 -0.501726 -0.0969455 0.934673 0.253025 0.249729 0.983991 -0.175959 0.0282778 
0.934366 0.266949 -0.236004 0.881004 0.36917 0.29588 0.717026 0.599367 0.355855 
0.50358 0.47526 0.721481 0.72988 0.664722 0.159435 0.885153 -0.0553231 0.461998 
0.504553 0.77729 0.375827 -0.226833 -0.305049 -0.924928 0.47445 0.82568 0.305203 
0.582697 0.808972 0.0776432 0.536757 0.842611 0.0435732 0.489681 0.860918 0.137959 
0.637258 0.767673 0.0676791 -0.907824 -0.0522898 -0.416078 0.56327 0.749009 -0.348874 
-0.893765 0.0450434 -0.446268 0.568041 0.817166 0.0978258 0.473305 0.823511 0.31275 
-0.849923 0.150634 -0.504916 0.608833 0.783032 0.127211 -0.838986 0.427489 -0.336683 
-0.776161 0.6233 0.0952406 0.471915 0.880886 0.0365488 0.554599 0.75044 0.359526 
0.0392569 0.852782 -0.52079 0.466865 0.883015 0.0481791 -0.706616 0.701201 0.0949259 
-0.485066 0.830042 -0.275213 -0.359519 0.813772 0.456642 -0.00771864 0.947283 -0.320304 
0.390315 0.886621 -0.248107 -0.202958 0.954605 0.218033 0.274359 0.828912 0.487476 
0.375882 -0.81127 -0.447832 0.89697 -0.4124 -0.159283 0.989539 -0.0338332 0.140244 
0.922514 -0.34221 -0.178492 0.64416 0.581332 0.497102 0.653536 0.55452 0.515168 
0.730724 0.396663 0.555608 0.506342 0.734491 0.451819 0.403693 0.734421 0.54558 
0.473849 0.836902 0.273974 0.554697 0.775978 0.300282 0.447176 0.859319 0.248203 
-0.632991 -0.243535 -0.734856 0.527013 0.780466 0.336349 -0.756159 -0.0356372 -0.653416 
0.501792 0.678981 0.535901 0.653194 0.711809 0.258198 -0.972157 0.0617819 -0.226039 
-0.970189 0.179795 -0.162503 -0.92373 0.325082 -0.202595 -0.558787 0.591591 0.581186 
0.455996 0.676856 0.57787 -0.68705 0.628903 0.363928 -0.54702 0.732127 0.405904 
-0.193632 0.784453 0.589186 0.97271 -0.124688 0.195673 0.953928 0.152862 0.258177 
0.967232 -0.16344 0.194292 0.854846 0.140438 0.499515 0.558983 0.53428 0.634101 
0.512477 0.497354 0.700005 0.363529 0.66827 0.649047 -0.818921 -0.158811 -0.551496 
-0.849858 0.0233692 -0.526493 -0.927632 0.128821 -0.350577 -0.830061 0.232324 -0.506976 
-0.970276 0.213884 -0.113213 -0.90763 0.409921 -0.0904009 -0.7582 0.545332 0.357416 
0.172405 0.456014 0.873114 0.173192 0.542868 0.821766 0.298437 0.48024 0.824806 
-0.24551 0.61772 0.747092 -0.0495164 0.662343 0.747563 -0.106951 0.692648 0.713302 
0.788159 -0.557783 -0.26016 0.922248 -0.371336 -0.107557 0.962414 -0.208448 0.174093 
0.840471 0.125238 0.527185 0.926937 0.117159 0.356457 0.67654 0.304339 0.670575 
-0.611439 -0.260789 -0.747082 -0.855699 -0.0542626 -0.514621 0.3372 0.556243 0.759533 
-0.91146 0.355849 0.206428 -0.848887 0.433255 0.302791 -0.680035 0.563452 0.46912 
-0.313833 0.563007 0.764547 -0.361559 0.502973 0.785044 0.158466 -0.677738 -0.718025 
0.727378 -0.590753 -0.349187 0.749186 -0.562679 -0.349447 0.868324 -0.483244 0.111749 
0.802525 -0.592768 -0.0676737 0.982031 -0.188714 -0.00172775 0.920525 -0.235251 0.311915 
0.856029 0.0209085 0.516504 0.92155 0.0794949 0.380035 0.785068 0.225772 0.576798 
0.505718 0.507372 0.697727 0.704469 0.257354 0.661432 -0.7948 -0.19935 -0.573195 
-0.847149 -0.172763 -0.502485 -0.767148 0.00276987 -0.641464 -0.900286 0.239259 -0.363649 
-0.904336 0.248997 -0.346665 -0.944862 0.191228 -0.265834 -0.948915 0.305232 -0.0799639 
-0.431137 0.649095 0.626735 0.875274 -0.0928487 0.474631 0.831862 -0.272648 0.483392 
0.841676 -0.0278303 0.539265 0.778448 0.161982 0.606449 0.651802 0.283784 0.703293 
0.433562 0.519001 0.736656 -0.902423 0.0878351 -0.421804 -0.962479 -0.0602143 -0.264593 
-0.988311 0.151891 -0.0130906 -0.947367 0.267168 -0.176401 -0.942128 0.203469 -0.266448 
-0.943506 0.299227 0.142337 -0.872174 0.481491 0.0864837 -0.896045 0.157433 -0.415112 
-0.793462 0.592864 -0.137586 -0.793483 0.577357 0.192466 -0.550291 0.578016 0.602558 
-0.105118 0.612765 0.783243 0.928983 -0.356057 0.101067 -0.30265 -0.474909 -0.826356 
-0.665489 -0.209041 -0.716538 -0.904659 -0.0472511 -0.423509 -0.906545 0.380297 -0.18317 
-0.975681 0.19898 -0.0919474 -0.860538 0.464073 0.210024 -0.868687 0.469916 0.156722 
-0.694952 0.554411 0.457897 -0.543136 0.525372 0.654971 -0.459727 0.581591 0.671121 
-0.0166233 -0.855614 -0.517348 0.939135 -0.295336 0.175506 0.668828 0.301005 0.679754 
0.710808 0.209436 0.671483 -0.398633 -0.414251 -0.818222 -0.960347 0.278129 -0.0194634 
-0.904875 0.355262 0.234499 -0.298304 0.580584 0.757586 0.964349 -0.250635 0.0849292 
0.903296 0.00843085 0.428936 0.654555 0.353344 0.668361 0.860723 0.201263 0.467599 
-0.94087 0.0830257 -0.328435 -0.895895 0.408178 0.175395 -0.760173 0.505174 0.408578 
-0.523769 0.610463 0.594139 -0.662361 0.569643 0.486605 0.468358 -0.746647 -0.472396 
0.800805 -0.563682 -0.202419 0.557994 0.446402 0.699548 -0.692974 -0.301306 -0.654982 
-0.81562 -0.208304 -0.539789 0.311363 0.54128 0.781069 0.02823 0.677041 0.735404 
0.153453 0.512676 0.844757 -0.289358 0.713314 0.638322 0.340246 -0.714958 -0.610793 
-0.110667 -0.62492 -0.772805 0.476432 -0.739272 -0.47591 0.402028 -0.786396 -0.468993 
0.813387 -0.54659 -0.199101 0.952923 -0.284631 0.104514 0.90393 -0.393976 0.166413 
0.944317 -0.237942 0.227262 0.845927 0.174385 0.503981 -0.916354 -0.00496442 -0.400338 
-0.927245 0.364564 -0.0854991 -0.684745 0.570495 0.453497 -0.545879 0.606694 0.577874 
-0.224596 0.5747 0.786941 0.371309 -0.744429 -0.554938 0.602338 -0.700239 -0.383216 
0.991528 -0.128515 0.0188651 0.930742 -0.335389 0.145716 0.914624 -0.0296162 0.403219 
0.975354 -0.149019 0.162723 -0.608574 -0.407968 -0.680588 -0.746032 -0.254489 -0.615363 
-0.831054 -0.293544 -0.472421 -0.869349 0.0965765 -0.48467 -0.89806 0.156298 -0.411168 
-0.958752 0.283173 0.0246703 -0.929184 0.347234 -0.126671 -0.785669 0.548281 0.286553 
-0.731097 0.662025 0.164986 -0.158246 0.608035 0.777979 -0.331788 0.653847 0.680001 
-0.687545 0.579904 0.437027 0.408834 -0.772426 -0.486017 0.759799 -0.605316 -0.237272 
0.838013 -0.542179 -0.0614475 0.930006 -0.367096 -0.0181251 0.945975 -0.26659 0.184559 
0.789924 0.0027835 0.613198 0.778488 -0.468327 0.417883 0.671549 0.298749 0.678064 
-0.783923 -0.271441 -0.558377 0.338585 0.551363 0.762469 -0.92085 -0.167785 -0.35197 
-0.640198 0.605319 0.473006 -0.465622 0.500694 0.729727 -0.292256 0.60488 0.740747 
0.204248 -0.688908 -0.695477 0.454384 -0.702985 -0.547127 -0.436054 -0.501169 -0.747453 
0.0118355 -0.728002 -0.685473 0.957007 -0.0646632 0.282765 0.700393 0.265424 0.662571 
-0.950323 0.30689 -0.0520105 -0.663214 0.65284 0.365989 0.465957 -0.791239 -0.396011 
0.144289 -0.780623 -0.608119 0.107252 -0.831573 -0.544962 0.962157 -0.0768329 0.261441 
0.812654 0.118742 0.57052 -0.635823 -0.583257 -0.505509 0.0405782 -0.976824 0.210165 
-0.939411 0.156996 -0.304728 -0.940058 0.313096 -0.135133 0.182359 0.528407 0.829175 
-0.551346 0.741168 0.382998 -0.0114433 0.701776 0.712306 0.933043 -0.336277 0.12786 
0.902593 -0.112905 0.415424 0.812135 0.194478 0.550104 0.567168 0.488726 0.662923 
0.711509 0.351108 0.608669 -0.463919 -0.53145 -0.708759 -0.82538 -0.234219 -0.513701 
-0.995056 -0.0630653 -0.0767277 -0.890984 -0.171902 -0.420235 -0.975075 0.214219 -0.0577899 
-0.859735 0.507934 -0.0534612 -0.890484 0.433759 0.137442 -0.746655 0.594058 0.299335 
-0.669773 0.66738 0.325589 0.125796 0.619119 0.775156 -0.274181 0.726795 0.629757 
-0.218968 0.688894 0.690997 -0.251291 0.667051 0.701353 -0.451998 0.65329 0.60738 
-0.256386 -0.803869 -0.536712 0.828294 -0.555789 -0.0709051 0.895854 -0.194643 0.39945 
0.882165 -0.0916052 0.461946 0.824059 0.147551 0.54695 -0.983377 0.142256 -0.112838 
-0.926006 0.373491 0.0549329 -0.737348 0.608923 0.292454 -0.634784 0.646229 0.423601 
-0.258239 0.705951 0.659505 0.670035 -0.727152 -0.149339 0.824856 -0.560525 0.0736473 
0.81096 -0.581609 -0.0638374 0.42054 0.555306 0.717483 -0.86044 -0.105002 -0.498615 
-0.804923 -0.196525 -0.55989 -0.921127 0.175267 -0.347572 -0.956707 0.288661 0.0372251 
-0.940999 0.316786 0.119027 0.921667 -0.269249 0.279349 0.753289 0.320056 0.574561 
-0.825257 -0.0954515 -0.556633 -0.966702 0.187739 -0.173898 -0.832186 0.532792 0.153618 
-0.675386 0.574583 0.462285 0.41933 -0.864497 -0.277141 0.181365 -0.911537 -0.369062 
0.882813 -0.324495 0.339623 0.731051 -0.0125618 0.682207 0.783006 0.0761104 0.617341 
0.462561 0.405499 0.788421 -0.725432 -0.410822 -0.552244 -0.480266 0.694783 0.53537 
-0.204405 -0.909195 -0.362745 0.776633 -0.627016 -0.060758 0.652172 0.270135 0.708307 
-0.487374 -0.514213 -0.705727 -0.616135 -0.511287 -0.599136 -0.925414 -0.139739 -0.352252 
-0.767417 0.542838 0.341171 0.108203 -0.942958 -0.314836 0.624295 -0.77866 -0.0627996 
0.850102 -0.441454 0.287133 0.923504 -0.344032 0.169656 0.575326 0.505072 0.643353 
-0.982336 0.0960604 -0.160586 -0.668381 0.6122 0.422467 0.282541 -0.957936 -0.050297 
0.50389 -0.858275 -0.0972574 0.518225 -0.843718 -0.139938 0.724833 -0.667659 0.169846 
-0.445594 -0.67926 -0.583139 0.87156 -0.356699 0.336377 0.879715 -0.195793 0.43332 
0.878474 0.0650013 0.473347 0.686838 0.466088 0.557688 -0.433021 -0.731883 -0.526157 
-0.731318 0.633926 0.251619 -0.701007 0.629198 0.335707 -0.391313 0.720874 0.572027 
0.0985881 -0.965364 -0.241561 0.0657806 -0.996214 -0.0568382 -0.0550502 -0.946807 -0.317057 
0.48153 -0.873259 0.07448 0.616395 -0.761526 0.20034 0.799341 -0.00519179 0.600856 
0.726099 0.0962625 0.680819 0.539677 0.498659 0.678298 0.584929 0.361235 0.7262 
-0.688744 -0.474101 -0.548506 0.0656682 0.776507 0.626678 -0.216249 0.814955 0.537666 
-0.0325037 0.835822 0.548037 0.0770796 -0.996704 -0.0252971 0.407358 -0.898921 0.161245 
0.731161 0.149372 0.665651 -0.664855 -0.524593 -0.531761 -0.940223 -0.263059 -0.216289 
-0.964202 -0.0425434 -0.261733 -0.416797 0.762978 0.494109 0.205743 -0.97806 0.0326918 
0.238262 -0.964563 0.113358 -0.191124 -0.956716 -0.219468 0.579395 -0.778161 0.242417 
0.318215 0.667045 0.67364 -0.997966 0.00567659 -0.0634949 -0.951913 0.305938 0.0162564 
-0.848783 0.519579 0.0980072 -0.301079 -0.926892 -0.224103 0.67521 -0.573513 0.463869 
0.787395 -0.179515 0.589731 0.619381 0.472376 0.627079 -0.515196 -0.803744 -0.297603 
-0.84233 -0.509776 -0.174957 -0.987361 0.149242 0.0533327 -0.799422 0.568209 0.1951 
0.12345 0.734674 0.667093 0.202838 0.743108 0.637689 -0.0294611 0.809118 0.586908 
0.0976476 -0.973978 0.204528 -0.0643998 -0.992165 -0.107061 0.279648 -0.941212 0.189516 
0.642629 -0.531189 0.552148 -0.269308 -0.962104 -0.0427683 0.695565 -0.266425 0.667239 
-0.400948 -0.898929 -0.176543 0.463842 0.605758 0.646458 -0.569769 -0.764186 -0.302297 
-0.980834 -0.190519 0.0408414 -0.968782 0.211771 0.1289 -0.899003 0.388054 0.202997 
-0.818931 0.449173 0.357205 -0.792568 0.591088 0.149834 -0.544236 0.599882 0.586471 
-0.272238 0.842502 0.46484 -0.501776 0.83759 0.216016 -0.492819 0.761293 0.421382 
-0.391789 0.72082 0.571768 0.285329 -0.682405 0.672987 0.402108 -0.685463 0.607001 
0.483579 -0.3033 0.821073 0.574311 0.242807 0.781801 0.367611 0.543446 0.754671 
-0.431417 -0.884229 -0.178934 -0.945845 0.00605665 0.324563 -0.826153 0.0667783 0.559474 
-0.789518 0.401218 0.464419 -0.983855 0.0845982 0.15771 0.269639 -0.74755 0.607012 
-0.156813 -0.954248 0.254597 -0.0209966 -0.736948 0.675624 -0.224135 -0.905637 0.359979 
-0.0758158 -0.940959 0.32992 0.130901 -0.729973 0.670824 0.284911 -0.65028 0.704246 
-0.368726 -0.899558 0.234174 -0.581104 -0.813362 0.0275691 -0.82517 -0.511054 0.240664 
-0.869756 -0.399686 0.28944 -0.824999 0.059121 0.562033 -0.734903 0.264079 0.624644 
-0.614814 0.304666 0.727449 -0.303463 0.640436 0.705516 0.0235534 -0.886841 0.461474 
-0.25999 -0.924187 0.279793 -0.255624 -0.867375 0.426986 0.331899 -0.417318 0.845984 
0.177628 -0.547361 0.817829 0.467393 -0.212314 0.858176 -0.285373 -0.822121 0.492625 
0.408258 -0.125658 0.904177 0.487398 0.198273 0.850371 -0.40144 -0.886087 0.231724 
0.277651 0.243785 0.929236 -0.635759 -0.623437 0.455122 0.199692 0.555007 0.807521 
-0.719865 -0.0702758 0.690548 0.0903048 0.559023 0.82422 -0.214953 -0.857119 0.468126 
-0.13557 -0.738398 0.660598 -0.251714 -0.503305 0.826634 -0.188212 -0.662533 0.725001 
0.0337586 -0.759367 0.649786 0.0686814 -0.59343 0.80195 -0.0815402 -0.659615 0.747168 
-0.226877 -0.662621 0.713765 0.0852981 -0.467391 0.879926 -0.0396657 -0.141408 0.989156 
0.168313 -0.132288 0.976817 0.292482 0.00993942 0.956219 -0.526158 -0.746936 0.406503 
-0.31881 -0.597571 0.735709 -0.210904 -0.534438 0.818471 -0.274335 -0.673755 0.686145 
-0.114416 -0.402121 0.908409 -0.769428 -0.429836 0.472464 -0.716568 -0.354841 0.600514 
-0.505452 -0.244018 0.827632 -0.417653 0.510079 0.751921 -0.0709933 0.631067 0.772473 
0.0317537 -0.253506 0.966812 -0.0797188 -0.342697 0.936058 0.221056 0.354198 0.908668 
0.0801546 0.0638448 0.994736 0.0328564 0.160577 0.986476 0.103002 0.186301 0.977078 
0.136855 0.306416 0.942008 -0.317995 -0.199427 0.926881 -0.220372 -0.311362 0.924386 
-0.114792 -0.0523738 0.992008 -0.447793 -0.368181 0.814815 -0.0897832 0.171003 0.981171 
-0.185022 0.161146 0.969432 -0.142823 0.135419 0.98044 -0.437407 0.414932 0.797814 
0.22909 0.139299 0.963386 -0.120017 -0.20091 0.97223 0.0176499 0.200779 0.979478 
-0.407612 0.0621956 0.911035 -0.112549 0.474377 0.873098 -0.0271072 -0.31182 -0.949755 
-0.0202567 -0.0895263 -0.995778 0.123249 0.212812 -0.969289 0.23361 0.139749 -0.962235 
-0.0745864 -0.125676 -0.989264 0.110652 0.115429 -0.987133 -0.128302 -0.0907921 -0.987571 
-0.0409329 0.180171 -0.982783 0.104682 0.233749 -0.966645 -0.216555 -0.0931775 -0.971814 
-0.330051 0.0359599 -0.943278 0.169393 0.116292 -0.978663 -0.383111 0.0863656 -0.919656 
-0.745127 -0.200835 -0.635964 -0.693719 0.235942 -0.680503 0.0160201 0.372885 -0.927739 
-0.375436 0.228641 -0.898204 -0.358548 0.53239 -0.766814 -0.112447 0.502556 -0.857201 
-0.0843161 -0.619622 -0.780358 0.0729701 -0.480872 -0.873749 -0.243323 -0.770139 -0.589644 
-0.328546 -0.872466 -0.361747 -0.107662 -0.510147 -0.853322 -0.0235423 -0.406351 -0.913414 