# vtk DataFile Version 4.2
vtk output
ASCII
DATASET POLYDATA
POINTS 2155 float
207.055 57.3191 98.0755 215.726 52.6246 99.1521 210.965 55.587 98.3753 
211.523 56.7233 98.2171 205.977 58.3829 98.0009 199.092 60.4405 98.6392 
198.203 61.2481 98.6183 201.796 61.4058 98.17 198.798 62.1544 98.4399 
219.954 50.8326 99.7496 220.513 51.0858 99.6731 219.282 52.3232 99.3301 
211.688 53.7563 99.1129 208.521 54.3798 99.4631 209.63 54.9 98.7979 
214.567 54.867 98.6189 206.07 56.0299 98.8763 197.278 60.3885 99.21 
210.4 59.6664 98.325 203.942 61.3716 98.176 194.938 61.5108 99.5816 
196.807 63.3371 98.8498 222.678 49.6394 100.342 219.402 49.928 100.27 
220.966 51.8356 99.5845 213.106 51.9131 100.186 223.388 52.2804 100.022 
219.928 54.1155 99.3234 203.244 56.4951 99.5696 217.166 56.9915 99.1022 
199.451 58.3916 99.7128 212.57 59.4418 98.6606 207.264 62.0643 98.5195 
192.608 63.6091 99.7468 187.566 64.5354 100.89 194.418 64.1475 99.328 
191.864 65.4708 99.8251 193.802 65.4688 99.5639 227.019 46.5023 102.043 
225.473 47.9406 101.291 226.466 48.2812 101.232 220.643 49.2279 100.615 
224.516 50.2717 100.494 222.987 53.3787 100.06 221.54 54.631 99.855 
190.428 62.5667 100.749 184.813 65.6924 101.393 185.021 66.9526 101.155 
187.588 66.9691 100.642 232.481 44.4403 102.856 232.344 44.4282 102.885 
229.823 46.0192 102.263 231.684 45.8165 102.41 223.146 47.4994 101.656 
219.896 48.5048 101.459 226.795 50.1801 101.004 229.035 49.6678 101.542 
208.359 53.0032 100.942 192.094 60.7966 101.199 185.844 64.1585 101.673 
184.442 64.9331 101.83 180.765 67.3695 102.116 182.215 67.8583 101.681 
177.962 68.242 102.704 178.816 68.5707 102.374 175.654 69.5103 102.935 
177.893 69.0599 102.541 181.055 69.0773 101.874 174.244 70.5987 103.009 
235.763 42.732 103.929 231.742 44.6756 102.847 233.065 44.5631 102.943 
235.193 44.3065 103.279 226.582 55.5433 101.798 185.26 63.6126 102.367 
183.303 64.9323 102.361 177.762 67.9888 102.907 175.083 70.327 102.952 
171.591 71.938 103.461 192.055 71.3256 101.66 169.227 73.2925 103.557 
168.653 73.9697 103.589 168.48 74.0336 103.726 168.751 73.6572 103.62 
168.502 74.1649 103.622 168.45 74.2168 103.69 168.464 74.2579 103.642 
169.562 74.3218 103.442 168.551 74.3137 103.633 168.725 74.3568 103.603 
238.708 41.2413 104.676 232.945 42.7121 104.053 228.594 44.4036 103.448 
237.401 44.95 103.644 236.785 45.8526 103.499 221.032 46.7497 103.199 
233.918 47.3166 102.768 209.065 51.685 102.342 174.683 68.752 103.757 
169.265 72.818 103.949 168.625 73.5869 103.757 168.563 73.5786 103.907 
173.371 73.316 103.061 168.456 74.0034 103.949 168.495 74.3311 103.7 
168.49 74.2918 103.856 168.696 74.5669 103.774 169.124 74.9914 103.782 
168.849 75.0614 104.07 169.887 75.3214 103.681 171.827 75.3646 103.521 
169.121 75.3559 103.997 170.735 76.7214 104.052 169.285 75.6794 104.11 
241.779 40.3373 105.381 239.159 40.335 105.23 240.964 41.5931 104.805 
240.378 42.6932 104.505 185.118 62.6714 103.398 224.409 64.0479 103.687 
171.374 70.3954 104.637 170.098 71.6559 104.611 168.947 73.0566 104.014 
168.816 73.1938 104.146 168.633 73.4663 104.108 168.501 73.7355 104.026 
168.549 74.3628 104.494 180.994 74.5213 103.366 168.601 74.6276 104.089 
168.567 74.5977 104.359 168.652 74.7548 104.713 174.611 74.8524 103.316 
168.876 75.339 104.364 169.332 76.0059 104.404 169.53 76.5445 104.782 
170.854 77.0754 104.288 169.748 77.0042 104.962 170.104 77.1057 104.673 
169.969 77.2057 104.895 244.073 38.4501 106.628 238.209 39.778 105.866 
244.046 40.4501 105.782 243.387 41.5973 105.421 242.441 44.7962 105.248 
179.309 64.5613 105.072 175.521 67.1608 104.733 173.77 68.1049 105.065 
171.243 70.0269 105.268 168.783 74.163 105.259 168.695 74.4014 105.163 
168.699 74.6226 105.165 168.892 75.4211 104.732 169.194 76.0041 104.761 
169.597 76.8121 105.077 169.993 77.3664 105.157 169.931 77.304 105.463 
170.385 77.9164 105.495 171.259 78.8959 105.853 170.753 78.4487 105.556 
243.962 37.8505 107.032 241.109 38.7022 106.452 226.485 43.0322 106.176 
244.019 43.7913 105.685 207.056 50.5321 105.787 171.492 69.2772 106.402 
169.884 71.6219 105.565 168.997 75.3238 105.422 169.751 76.8178 105.777 
180.025 78.3562 104.949 170.518 78.1369 105.954 170.737 78.4301 105.807 
175.155 80.0561 105.644 171.903 80.198 106.923 173.349 80.7719 106.356 
173.906 80.8089 106.225 252.539 36.4423 108.244 249.736 39.3376 107.251 
174.449 66.591 106.792 171.873 68.7852 106.66 170.78 70.0376 106.893 
170.275 70.738 106.805 169.634 73.701 106.908 170.493 78.0059 106.285 
187.677 80.9684 106.135 173.041 81.5652 107.176 173.05 81.8486 107.478 
172.985 81.9524 107.78 174.89 82.6315 107.249 173.258 82.1957 107.668 
253.88 34.2528 109.438 255.546 34.3638 109.543 248.263 35.5755 108.494 
252.022 36.6461 108.132 253.367 36.4547 108.545 246.948 45.7303 107.304 
209.553 48.7582 107.246 173.902 66.6813 107.681 172.874 67.6319 107.333 
171.6 68.9793 107.3 170.998 69.8359 107.421 170.581 72.9919 108.552 
170.581 76.9207 107.641 222.565 78.8323 107.82 172.677 81.5393 107.992 
210.596 83.702 107.49 174.733 83.6025 108.129 194.81 85.0382 107.434 
235.678 38.2203 109.396 254.014 39.0495 108.762 201.839 51.3127 108.676 
175.621 64.9554 108.903 173.761 66.6762 108.217 171.609 69.1174 108.114 
171.089 70.1732 108.286 170.863 72.9304 109.031 226.927 79.0003 109.132 
173.334 82.1386 109.573 219.618 81.9237 108.241 173.452 82.7879 108.85 
216.874 83.8279 108.595 174.035 83.675 109.114 184.025 84.8028 107.902 
174.319 84.359 109.363 174.295 84.2377 109.265 174.425 84.4545 109.344 
174.661 84.7245 109.479 175.156 85.0779 109.365 214.442 86.0043 109.287 
175.49 85.8111 109.865 203.147 88.4934 108.915 211.242 87.9067 110.016 
192.168 89.4873 109.496 205.278 88.7897 109.351 260.651 31.8732 111.539 
259.393 32.7543 110.953 251.69 33.2049 110.545 242.082 36.2503 109.602 
232.772 39.0074 109.772 180.453 61.4986 109.654 173.168 67.2715 108.81 
171.358 71.3375 109.394 171.104 74.88 109.118 224.975 81.8991 109.681 
174.074 83.3493 110.182 223.536 83.4639 110.366 225.506 83.0713 110.827 
174.598 84.6847 109.73 179.25 86.6031 109.048 218.689 85.0318 110.043 
223.407 84.2709 111.345 175.563 86.296 110.268 175.505 86.3024 110.458 
175.562 86.4538 110.407 176.293 86.8616 110.222 176.854 86.8063 109.825 
210.656 87.3172 109.381 218.622 85.9119 111.206 221.081 85.1224 111.202 
175.636 86.5587 110.395 175.718 86.6963 110.452 175.82 86.6685 110.345 
176.048 86.9488 110.565 179.125 88.3029 110.109 208.631 88.1916 109.669 
215.445 87.0702 111.067 175.822 86.7925 110.472 177.454 88.1152 110.716 
211.186 88.1503 110.422 213.293 87.8939 111.29 203.487 89.8228 109.919 
208.425 89.3433 110.94 210.494 88.6623 110.991 212.11 88.2914 111.202 
201.62 91.0854 110.892 204.264 90.6618 110.922 261.673 31.3623 112.143 
261.374 30.8613 112.422 262.39 31.2782 112.37 262.825 30.6909 112.868 
257.064 31.5736 111.633 260.1 31.9593 111.5 260.577 32.7534 111.287 
188.814 56.4314 110.824 177.687 63.0536 110.624 172.192 69.257 109.702 
172.445 69.8996 110.519 235.549 75.1253 111.181 173.831 82.1376 110.557 
175.137 85.2521 110.786 225.87 83.5767 111.957 221.549 85.0818 111.478 
224.864 84.0358 112.03 175.879 86.7957 110.754 181.158 88.5813 109.914 
218.23 86.2783 111.747 176.879 87.9258 111.532 177.388 88.5792 111.504 
214.225 87.7552 111.812 178.013 89.3054 111.607 178.7 89.6329 111.36 
207.961 89.9258 111.78 203.465 91.1946 111.672 205.237 90.7179 111.705 
195.403 92.4672 111.271 196.386 92.601 111.483 262.604 30.2177 113.134 
260.481 30.2656 112.89 254.487 31.4378 112.281 250.974 32.2402 112.543 
264.388 32.8286 112.772 242.565 35.3879 111.495 262.216 35.7567 111.706 
260.496 39.714 111.694 175.72 64.9391 111.636 173.844 67.0595 110.908 
173.524 69.1299 111.679 230.928 79.6544 111.091 227.066 83.2826 113.001 
225.034 84.1656 112.876 215.33 87.5446 112.676 176.939 87.866 112.165 
177.541 89.0538 112.146 212.011 88.6623 112.902 177.854 89.4623 112.038 
178.017 89.7672 112.285 208.634 89.7962 112.525 179.053 91.0073 112.544 
185.765 93.9487 112.389 189.608 93.4249 111.889 199.37 92.5231 112.444 
193.809 93.546 112.212 194.429 93.9525 112.992 263.884 29.4035 114.316 
265.41 29.5653 114.909 266.031 29.9156 115.17 264.857 29.7511 114.383 
265.028 30.2779 114.142 266.035 30.9506 114.505 265.431 32.541 113.555 
241.698 35.5603 112.241 243.27 34.9466 112.666 264.814 34.734 113.042 
230.873 38.7132 112.407 187.277 56.6206 112.39 176.377 64.3217 112.491 
176.213 64.5517 112.593 176.075 64.6962 112.506 174.981 66.0131 111.756 
174.104 69.8895 112.523 236.697 78.4008 113.724 175.117 81.9722 112.409 
233.444 80.2917 113.289 233.015 80.7389 113.588 224.318 84.4769 113.702 
214.082 87.9852 112.833 178.235 89.8295 113.321 179.085 91.2177 112.881 
179.013 91.177 113.198 179.494 91.5928 112.783 202.533 91.8178 113.774 
200.227 92.4826 113.411 181.464 93.5848 113.285 183.045 94.3335 113.222 
192 94.2067 112.548 189.969 95.0831 113.642 194.02 94.3368 113.655 
264.37 28.8814 115.186 264.933 29.1723 115.078 261.021 29.2175 114.254 
255.459 30.4178 113.857 266.778 31.3354 115.246 267.052 32.1644 115.493 
266.867 33.9914 114.854 241.838 35.5221 113.535 237.698 36.7428 113.128 
228.912 39.0697 113.141 229.708 38.6443 114.054 225.584 39.6405 114.469 
188.567 55.4224 113.872 175.986 65.6774 113.162 175.8 67.3664 113.701 
175.654 75.5107 113.882 237.696 78.1992 114.249 232.67 81.0992 114.371 
216.707 86.9739 114.073 178.427 89.6697 113.827 179.21 91.1555 114.119 
180.239 92.8542 113.674 180.789 93.6789 114.293 181.287 94.2838 114.773 
190.911 94.9633 113.608 184.655 95.9628 114.348 189.413 95.4753 114.159 
188.074 95.8388 114.22 188.757 95.8104 114.519 188.193 95.9335 114.361 
259.656 28.8143 115.467 265.992 29.3142 115.911 257.466 29.4604 115.06 
250.815 31.7807 115.08 250.327 31.958 114.636 251.587 31.5546 114.118 
253.242 30.8813 114.609 246.23 33.7644 114.63 243.429 35.0466 114.277 
[...]
POINT_DATA 2155
SCALARS scalars float
LOOKUP_TABLE default
1 1 1 1 1 1 1 1 1 
1 1 1 1 1 1 1 1 1 
1 1 1 1 1 1 1 1 1 
1 1 1 1 1 1 1 1 1 
1 1 1 1 1 1 1 1 1 
1 1 1 1 1 1 1 1 1 
1 1 1 1 1 1 1 1 1 
1 1 1 1 1 1 1 1 1 
1 1 1 1 1 1 1 1 1 
1 1 1 1 1 1 1 1 1 
1 1 1 1 1 1 1 1 1 
1 1 1 1 1 1 1 1 1 
1 1 1 1 1 1 1 1 1 
1 1 1 1 1 1 1 1 1 
1 1 1 1 1 1 1 1 1 
1 1 1 1 1 1 1 1 1 
1 1 1 1 1 1 1 1 1 
1 1 1 1 1 1 1 1 1 
1 1 1 1 1 1 1 1 1 
1 1 1 1 1 1 1 1 1 
1 1 1 1 1 1 1 1 1 
1 1 1 1 1 1 1 1 1 
1 1 1 1 1 1 1 1 1 
1 1 1 1 1 1 1 1 1 
1 1 1 1 1 1 1 1 1 
1 1 1 1 1 1 1 1 1 
1 1 1 1 1 1 1 1 1 
1 1 1 1 1 1 1 1 1 
1 1 1 1 1 1 1 1 1 
1 1 1 1 1 1 1 1 1 
1 1 1 1 1 1 1 1 1 
1 1 1 1 1 1 1 1 1 
1 1 1 1 1 1 1 1 1 
1 1 1 1 1 1 1 1 1 
1 1 1 1 1 1 1 1 1 
1 1 1 1 1 1 1 1 1 
1 1 1 1 1 1 1 1 1 
1 1 1 1 1 1 1 1 1 
1 1 1 1 1 1 1 1 1 
1 1 1 1 1 1 1 1 1 
1 1 1 1 1 1 1 1 1 
1 1 1 1 1 1 1 1 1 
1 1 1 1 1 1 1 1 1 
1 1 1 1 1 1 1 1 1 
1 1 1 1 1 1 1 1 1 
1 1 1 1 1 1 1 1 1 
1 1 1 1 1 1 1 1 1 
1 1 1 1 1 1 1 1 1 
1 1 1 1 1 1 1 1 1 
1 1 1 1 1 1 1 1 1 
1 1 1 1 1 1 1 1 1 
1 1 1 1 1 1 1 1 1 
1 1 1 1 1 1 1 1 1 
1 1 1 1 1 1 1 1 1 
1 1 1 1 1 1 1 1 1 
1 1 1 1 1 1 1 1 1 
1 1 1 1 1 1 1 1 1 
1 1 1 1 1 1 1 1 1 
1 1 1 1 1 1 1 1 1 
1 1 1 1 1 1 1 1 1 
1 1 1 1 1 1 1 1 1 
1 1 1 1 1 1 1 1 1 
1 1 1 1 1 1 1 1 1 
1 1 1 1 1 1 1 1 1 
1 1 1 1 1 1 1 1 1 
1 1 1 1 1 1 1 1 1 
1 1 1 1 1 1 1 1 1 
1 1 1 1 1 1 1 1 1 
1 1 1 1 1 1 1 1 1 
1 1 1 1 1 1 1 1 1 
1 1 1 1 1 1 1 1 1 
1 1 1 1 1 1 1 1 1 
1 1 1 1 1 1 1 1 1 
1 1 1 1 1 1 1 1 1 
1 1 1 1 1 1 1 1 1 
1 1 1 1 1 1 1 1 1 
1 1 1 1 1 1 1 1 1 
1 1 1 1 1 1 1 1 1 
1 1 1 1 1 1 1 1 1 
1 1 1 1 1 1 1 1 1 
1 1 1 1 1 1 1 1 1 
1 1 1 1 1 1 1 1 1 
1 1 1 1 1 1 1 1 1 
1 1 1 1 1 1 1 1 1 
1 1 1 1 1 1 1 1 1 
1 1 1 1 1 1 1 1 1 
1 1 1 1 1 1 1 1 1 
1 1 1 1 1 1 1 1 1 
1 1 1 1 1 1 1 1 1 
1 1 1 1 1 1 1 1 1 
1 1 1 1 1 1 1 1 1 
1 1 1 1 1 1 1 1 1 
1 1 1 1 1 1 1 1 1 
1 1 1 1 1 1 1 1 1 
1 1 1 1 1 1 1 1 1 
1 1 1 1 1 1 1 1 1 
1 1 1 1 1 1 1 1 1 
1 1 1 1 1 1 1 1 1 
1 1 1 1 1 1 1 1 1 
1 1 1 1 1 1 1 1 1 
1 1 1 1 1 1 1 1 1 
1 1 1 1 1 1 1 1 1 
1 1 1 1 1 1 1 1 1 
1 1 1 1 1 1 1 1 1 
1 1 1 1 1 1 1 1 1 
1 1 1 1 1 1 1 1 1 
1 1 1 1 1 1 1 1 1 
1 1 1 1 1 1 1 1 1 
1 1 1 1 1 1 1 1 1 
1 1 1 1 1 1 1 1 1 
1 1 1 1 1 1 1 1 1 
1 1 1 1 1 1 1 1 1 
1 1 1 1 1 1 1 1 1 
1 1 1 1 1 1 1 1 1 
1 1 1 1 1 1 1 1 1 
1 1 1 1 1 1 1 1 1 
1 1 1 1 1 1 1 1 1 
1 1 1 1 1 1 1 1 1 
1 1 1 1 1 1 1 1 1 
1 1 1 1 1 1 1 1 1 
1 1 1 1 1 1 1 1 1 
1 1 1 1 1 1 1 1 1 
1 1 1 1 1 1 1 1 1 
1 1 1 1 1 1 1 1 1 
1 1 1 1 1 1 1 1 1 
1 1 1 1 1 1 1 1 1 
1 1 1 1 1 1 1 1 1 
1 1 1 1 1 1 1 1 1 
1 1 1 1 1 1 1 1 1 
1 1 1 1 1 1 1 1 1 
1 1 1 1 1 1 1 1 1 
1 1 1 1 1 1 1 1 1 
1 1 1 1 1 1 1 1 1 
1 1 1 1 1 1 1 1 1 
1 1 1 1 1 1 1 1 1 
1 1 1 1 1 1 1 1 1 
1 1 1 1 1 1 1 1 1 
1 1 1 1 1 1 1 1 1 
1 1 1 1 1 1 1 1 1 
1 1 1 1 1 1 1 1 1 
1 1 1 1 1 1 1 1 1 
1 1 1 1 1 1 1 1 1 
1 1 1 1 1 1 1 1 1 
1 1 1 1 1 1 1 1 1 
1 1 1 1 1 1 1 1 1 
1 1 1 1 1 1 1 1 1 
1 1 1 1 1 1 1 1 1 
1 1 1 1 1 1 1 1 1 
1 1 1 1 1 1 1 1 1 
1 1 1 1 1 1 1 1 1 
1 1 1 1 1 1 1 1 1 
1 1 1 1 1 1 1 1 1 
1 1 1 1 1 1 1 1 1 
1 1 1 1 1 1 1 1 1 
1 1 1 1 1 1 1 1 1 
1 1 1 1 1 1 1 1 1 
1 1 1 1 1 1 1 1 1 
1 1 1 1 1 1 1 1 1 
1 1 1 1 1 1 1 1 1 
1 1 1 1 1 1 1 1 1 
1 1 1 1 1 1 1 1 1 
1 1 1 1 1 1 1 1 1 
1 1 1 1 1 1 1 1 1 
1 1 1 1 1 1 1 1 1 
1 1 1 1 1 1 1 1 1 
1 1 1 1 1 1 1 1 1 
1 1 1 1 1 1 1 1 1 
1 1 1 1 1 1 1 1 1 
1 1 1 1 1 1 1 1 1 
1 1 1 1 1 1 1 1 1 
1 1 1 1 1 1 1 1 1 
1 1 1 1 1 1 1 1 1 
1 1 1 1 1 1 1 1 1 
1 1 1 1 1 1 1 1 1 
1 1 1 1 1 1 1 1 1 
1 1 1 1 1 1 1 1 1 
1 1 1 1 1 1 1 1 1 
1 1 1 1 1 1 1 1 1 
1 1 1 1 1 1 1 1 1 
1 1 1 1 1 1 1 1 1 
1 1 1 1 1 1 1 1 1 
1 1 1 1 1 1 1 1 1 
1 1 1 1 1 1 1 1 1 
1 1 1 1 1 1 1 1 1 
1 1 1 1 1 1 1 1 1 
1 1 1 1 1 1 1 1 1 
1 1 1 1 1 1 1 1 1 
1 1 1 1 1 1 1 1 1 
1 1 1 1 1 1 1 1 1 
1 1 1 1 1 1 1 1 1 
1 1 1 1 1 1 1 1 1 
1 1 1 1 1 1 1 1 1 
1 1 1 1 1 1 1 1 1 
1 1 1 1 1 1 1 1 1 
1 1 1 1 1 1 1 1 1 
1 1 1 1 1 1 1 1 1 
1 1 1 1 1 1 1 1 1 
1 1 1 1 1 1 1 1 1 
1 1 1 1 1 1 1 1 1 
1 1 1 1 1 1 1 1 1 
1 1 1 1 1 1 1 1 1 
1 1 1 1 1 1 1 1 1 
1 1 1 1 1 1 1 1 1 
1 1 1 1 1 1 1 1 1 
1 1 1 1 1 1 1 1 1 
1 1 1 1 1 1 1 1 1 
1 1 1 1 1 1 1 1 1 
1 1 1 1 1 1 1 1 1 
1 1 1 1 1 1 1 1 1 
1 1 1 1 1 1 1 1 1 
1 1 1 1 1 1 1 1 1 
1 1 1 1 1 1 1 1 1 
1 1 1 1 1 1 1 1 1 
1 1 1 1 1 1 1 1 1 
1 1 1 1 1 1 1 1 1 
1 1 1 1 1 1 1 1 1 
1 1 1 1 1 1 1 1 1 
1 1 1 1 1 1 1 1 1 
1 1 1 1 1 1 1 1 1 
1 1 1 1 1 1 1 1 1 
1 1 1 1 1 1 1 1 1 
1 1 1 1 1 1 1 1 1 
1 1 1 1 1 1 1 1 1 
1 1 1 1 1 1 1 1 1 
1 1 1 1 1 1 1 1 1 
1 1 1 1 1 1 1 1 1 
1 1 1 1 1 1 1 1 1 
1 1 1 1 1 1 1 1 1 
1 1 1 1 1 1 1 1 1 
1 1 1 1 1 1 1 1 1 
1 1 1 1 1 1 1 1 1 
1 1 1 1 1 1 1 1 1 
1 1 1 1 1 1 1 1 1 
1 1 1 1 1 1 1 1 1 
1 1 1 1 1 1 1 1 1 
1 1 1 1 1 1 1 1 1 
1 1 1 1 1 1 1 1 1 
1 1 1 1 1 1 1 1 1 
1 1 1 1 1 1 1 1 1 
1 1 1 1 
NORMALS Normals float
-0.089701 -0.264587 -0.960181 0.0179663 -0.314502 -0.949087 0.0273597 -0.301654 -0.953025 
0.105416 -0.0783806 -0.991334 -0.0995888 -0.13065 -0.986414 -0.190977 -0.339096 -0.921163 
-0.238479 -0.234227 -0.942478 -0.0286158 0.106193 -0.993934 -0.119223 0.054206 -0.991387 
-0.0269571 -0.326361 -0.944861 0.0305638 -0.352947 -0.935144 0.024392 -0.296579 -0.954697 
-0.108125 -0.502641 -0.857707 -0.183672 -0.605867 -0.774073 -0.152651 -0.542485 -0.82608 
0.0929882 -0.100996 -0.990532 -0.252271 -0.512898 -0.820545 -0.295742 -0.453271 -0.840882 
0.117359 0.164657 -0.979344 0.00118981 0.0929622 -0.995669 -0.326488 -0.34826 -0.878704 
-0.153249 0.0860807 -0.984431 0.032726 -0.412108 -0.910547 -0.0749094 -0.564806 -0.821816 
0.151496 -0.0808974 -0.985142 -0.206039 -0.694076 -0.689787 0.122821 -0.0392746 -0.991651 
0.182439 0.0835359 -0.979662 -0.297978 -0.5591 -0.773703 0.210112 0.105057 -0.972016 
-0.363696 -0.656092 -0.661263 0.195778 0.225763 -0.954307 0.0858524 0.244404 -0.965865 
-0.257734 -0.154074 -0.953852 -0.284799 -0.386514 -0.87721 0.0311317 0.197766 -0.979755 
-0.191407 0.0295386 -0.981066 0.0442243 0.212777 -0.976099 -0.0360663 -0.600213 -0.799026 
0.0288515 -0.324507 -0.945443 0.132745 -0.275686 -0.952038 -0.0335776 -0.60382 -0.796413 
0.143009 -0.26996 -0.952192 0.235209 0.111466 -0.965532 0.264894 0.166665 -0.949765 
-0.310134 -0.340596 -0.887587 -0.297937 -0.293147 -0.908459 -0.18001 0.0939131 -0.979172 
-0.182986 0.0724305 -0.980444 -0.149821 0.937174 -0.315055 -0.133338 -0.0743506 -0.988278 
0.0177578 -0.331568 -0.943264 0.104256 -0.190749 -0.976087 -0.0819953 -0.55254 -0.829443 
-0.114665 -0.72614 -0.677918 0.230164 -0.021653 -0.972911 0.327378 0.0459601 -0.943775 
-0.290809 -0.734167 -0.613538 -0.361567 -0.585867 -0.725279 -0.274589 -0.580981 -0.7662 
-0.301948 -0.431241 -0.850211 -0.360701 -0.410258 -0.837606 -0.203974 -0.0834581 -0.975412 
-0.320218 -0.34472 -0.882399 -0.135725 -0.158489 -0.977988 -0.240106 -0.300116 -0.92319 
-0.303994 -0.190935 -0.933344 -0.113224 0.0735567 -0.990843 -0.313529 -0.296916 -0.901965 
0.0581987 -0.373424 -0.925834 -0.0463013 -0.388656 -0.920219 0.110256 -0.111141 -0.98767 
0.152956 -0.273702 -0.949574 0.410895 0.230858 -0.881969 -0.310351 -0.570078 -0.760719 
-0.409363 -0.480775 -0.775421 -0.28993 -0.464864 -0.836565 -0.159681 -0.161367 -0.97389 
-0.27609 -0.156933 -0.948233 0.00204574 0.334744 -0.942307 -0.377324 -0.458211 -0.804779 
-0.40435 -0.194936 -0.893589 -0.915824 -0.222648 -0.334208 -0.265112 -0.190842 -0.945143 
-0.533466 -0.102982 -0.839529 -0.991847 0.0299486 -0.123864 -0.748798 0.276096 -0.602555 
-0.142248 0.159493 -0.976897 -0.351318 0.452843 -0.819457 -0.182032 0.243272 -0.952724 
0.0259953 -0.398469 -0.916813 -0.114864 -0.644826 -0.755649 -0.0776323 -0.600315 -0.795987 
0.20675 0.00199729 -0.978392 0.263333 -0.0317 -0.964184 -0.244331 -0.770913 -0.588214 
0.241156 0.0430725 -0.96953 -0.275492 -0.780599 -0.561043 -0.401907 -0.482041 -0.778529 
-0.598872 -0.708454 -0.373424 -0.683506 -0.524381 -0.507784 -0.888959 -0.417193 -0.188949 
-0.172441 0.0815617 -0.981637 -0.997499 -0.0655499 -0.026452 -0.792982 0.574584 -0.202563 
-0.958991 0.28234 0.0248875 -0.642138 0.585597 -0.494707 -0.379669 0.467781 -0.798143 
-0.841994 0.446267 -0.303138 -0.268113 0.433027 -0.860583 0.000218427 0.257255 -0.966344 
-0.640083 0.501127 -0.58238 -0.177611 0.488597 -0.854241 -0.345537 0.512224 -0.786277 
0.208469 -0.310272 -0.927508 0.00598826 -0.568106 -0.822934 0.304745 -0.221993 -0.926202 
0.345386 -0.0377652 -0.9377 -0.371354 -0.708385 -0.600239 0.370507 0.254759 -0.893209 
-0.56585 -0.620451 -0.543004 -0.610469 -0.677978 -0.40948 -0.683413 -0.711621 -0.162914 
-0.752814 -0.654922 -0.0659426 -0.871529 -0.474437 0.123882 -0.961781 -0.236812 0.137467 
-0.989708 0.0794233 0.119037 -0.0137993 0.292994 -0.956015 -0.91877 0.359005 -0.16425 
-0.952563 0.304169 -0.010204 -0.962698 0.255754 0.0883331 -0.0726748 0.327147 -0.942175 
-0.855288 0.448105 -0.260164 -0.628573 0.573654 -0.525183 -0.815898 0.517977 -0.256924 
-0.149051 0.565368 -0.81126 -0.734446 0.561571 -0.381086 -0.488006 0.595815 -0.637851 
-0.527111 0.687723 -0.499191 -0.036488 -0.476934 -0.878182 -0.160462 -0.731958 -0.662185 
0.211183 -0.276676 -0.937471 0.187623 -0.0270394 -0.981869 0.31878 0.193769 -0.927811 
-0.431648 -0.719175 -0.544488 -0.405407 -0.685939 -0.604262 -0.536245 -0.649133 -0.539507 
-0.687864 -0.633494 -0.354299 -0.878832 -0.174301 0.444155 -0.945521 -0.0843031 0.314458 
-0.900656 0.158599 0.404556 -0.940171 0.33342 0.0700637 -0.859297 0.509681 -0.0428268 
-0.873322 0.486783 -0.0187315 -0.713758 0.666403 -0.215536 -0.824801 0.55086 0.127501 
-0.837569 0.54188 0.0696076 -0.501506 0.696398 -0.513344 -0.630869 0.695669 -0.343583 
-0.217577 -0.736003 -0.641062 -0.0109156 -0.640533 -0.767853 -0.289301 -0.820869 -0.492421 
0.292526 0.0539446 -0.954735 -0.342854 -0.82364 -0.451739 -0.721508 -0.663163 -0.199103 
-0.842797 -0.535679 -0.0523549 -0.892311 0.358869 0.27385 -0.866446 0.383719 0.319423 
0.104569 0.440357 -0.891712 -0.833138 0.547131 0.080799 -0.762294 0.645415 -0.0484515 
-0.058555 0.459069 -0.886469 -0.79963 0.584973 -0.135643 -0.275195 0.562944 -0.779334 
-0.224825 0.556526 -0.799833 0.234874 -0.159083 -0.95892 0.305362 0.00883363 -0.952196 
-0.503428 -0.802005 -0.32148 -0.623853 -0.76557 -0.157196 -0.813926 -0.580694 -0.0178722 
-0.908569 -0.370939 0.192113 -0.888631 -0.167115 0.427092 -0.860603 0.481335 0.166371 
0.0566715 0.410005 -0.910321 -0.585348 0.608356 -0.535977 -0.719664 0.548336 -0.425923 
-0.831774 0.526381 -0.176282 -0.170111 0.56181 -0.809587 -0.54811 0.660236 -0.513482 
0.0820558 -0.524973 -0.847154 0.0651722 -0.566227 -0.821669 -0.117574 -0.703198 -0.701205 
0.202506 -0.142015 -0.968929 0.28742 -0.0840847 -0.954107 0.369793 0.247762 -0.89547 
-0.211536 -0.839494 -0.500502 -0.60652 -0.777865 -0.164494 -0.783943 -0.609477 -0.118204 
-0.73853 -0.670384 0.0718259 -0.818598 -0.56093 0.123513 -0.884653 0.00381718 0.466235 
-0.844706 0.222664 0.486716 0.21152 0.333046 -0.91888 -0.844072 0.530158 -0.0804675 
0.127203 0.397071 -0.90893 -0.469105 0.62787 -0.621064 -0.14517 0.326891 -0.933846 
-0.266954 -0.890135 -0.369318 0.354598 0.100764 -0.929574 -0.374618 -0.835002 -0.40303 
-0.602027 -0.776493 -0.186072 -0.627385 -0.776255 -0.0617699 -0.798348 -0.535075 0.276289 
-0.849321 -0.405273 0.338241 -0.772432 -0.0159554 0.634897 0.365483 0.346769 -0.863813 
-0.865549 0.435153 0.247927 0.229925 0.401733 -0.886422 -0.855355 0.506289 0.109727 
0.153608 0.392176 -0.906975 -0.815348 0.53975 -0.209469 0.0765492 0.496349 -0.864742 
-0.811772 0.565947 -0.143982 -0.533593 0.54249 -0.648832 -0.370085 0.581534 -0.724469 
-0.530803 0.732966 -0.425452 -0.602878 0.667406 -0.437158 0.25171 0.692382 -0.676203 
-0.524761 0.561772 -0.639561 0.0620492 0.494602 -0.866902 0.195765 0.713588 -0.672658 
-0.149167 0.406018 -0.901609 0.200227 0.681456 -0.703937 0.125831 -0.479681 -0.868374 
0.218223 -0.227429 -0.949028 -0.0751258 -0.815601 -0.573717 -0.287232 -0.80801 -0.51441 
-0.259858 -0.890348 -0.373836 -0.481875 -0.823453 -0.299536 -0.887467 -0.457982 0.0515285 
-0.782379 -0.172326 0.598487 -0.757196 0.0900837 0.646946 0.25047 0.555626 -0.792808 
-0.869886 0.372722 0.323072 0.341106 0.68986 -0.638545 0.362615 0.690997 -0.625327 
-0.811094 0.58359 0.0393503 -0.0212968 0.540368 -0.841159 0.284921 0.606315 -0.74243 
0.320271 0.839934 -0.438106 -0.684271 0.453742 -0.570868 -0.866619 0.498765 0.0143306 
-0.881999 0.470494 -0.0267105 -0.396845 0.679254 -0.617356 -0.323751 0.622974 -0.712101 
0.12797 0.634082 -0.762603 0.212927 0.877753 -0.429198 0.30435 0.860759 -0.408002 
-0.807608 0.578619 -0.113882 -0.723974 0.653293 -0.22152 -0.424368 0.606384 -0.672466 
-0.446283 0.820793 -0.356553 -0.118371 0.599003 -0.791949 0.175747 0.628586 -0.757623 
0.333348 0.864657 -0.37583 -0.543273 0.787766 -0.29031 -0.563157 0.68974 -0.455096 
0.140946 0.870955 -0.470714 0.331592 0.908482 -0.254377 0.0812934 0.695328 -0.71408 
0.289324 0.845381 -0.449024 0.286614 0.852843 -0.436476 0.260529 0.880854 -0.395249 
0.168319 0.796171 -0.581189 0.20103 0.788365 -0.581435 0.191423 -0.401419 -0.895667 
0.103273 -0.62887 -0.770622 0.242621 -0.512694 -0.823578 0.269289 -0.45068 -0.8511 
-0.0713868 -0.743804 -0.664575 0.024534 -0.575139 -0.817687 0.295868 -0.212297 -0.931339 
-0.407775 -0.818205 -0.40529 -0.60242 -0.791801 -0.100702 -0.868962 -0.284048 0.405242 
-0.830387 -0.211418 0.515519 0.474633 0.273436 -0.836634 -0.826375 0.330268 0.4561 
-0.850623 0.391422 0.351041 0.435548 0.829053 -0.350669 0.350345 0.823195 -0.446775 
0.274338 0.860882 -0.428511 -0.768881 0.611245 0.187619 -0.0777722 0.513631 -0.854479 
0.253443 0.90834 -0.332695 -0.802419 0.596641 0.0119967 -0.771795 0.593352 -0.228615 
0.291502 0.895375 -0.336645 -0.587013 0.626337 -0.512951 -0.438428 0.624709 -0.646157 
0.289508 0.872568 -0.393458 0.219734 0.912067 -0.346193 0.326528 0.929234 -0.172926 
0.0463506 0.828523 -0.558033 0.0505468 0.796492 -0.602533 -0.0134264 -0.594983 -0.803626 
-0.0658686 -0.71348 -0.697572 -0.185028 -0.825546 -0.533141 -0.347566 -0.886618 -0.305134 
0.436736 -0.170523 -0.88328 -0.296382 -0.933543 -0.201631 0.374295 0.00481233 -0.927297 
0.41831 0.185229 -0.889217 -0.749017 -0.647558 0.14015 -0.809286 -0.417382 0.413338 
-0.722873 -0.269187 0.636391 0.407014 0.517119 -0.752946 0.431956 0.880379 -0.195822 
0.37379 0.922044 -0.100581 0.34092 0.940016 0.0120212 -0.855712 0.496284 0.146488 
-0.866965 0.497247 -0.0334397 0.330257 0.930203 -0.160164 -0.726155 0.580828 -0.367883 
-0.734316 0.637114 -0.234233 0.330842 0.941196 -0.0685123 -0.706145 0.602091 -0.37262 
-0.064333 0.638413 -0.767 -0.0917178 0.592044 -0.80067 0.170338 0.97471 -0.144657 
0.100547 0.752132 -0.651298 0.205997 0.884352 -0.418913 0.243919 -0.689725 -0.68175 
0.480979 -0.619655 -0.620232 0.808879 -0.501409 -0.307089 0.354866 -0.580021 -0.733243 
0.421485 -0.448338 -0.788253 0.593092 -0.329228 -0.734746 0.645396 -0.153766 -0.748211 
-0.3382 -0.929038 -0.150032 -0.442845 -0.896594 -0.0027603 0.62902 0.114517 -0.768908 
-0.253466 -0.933411 -0.253966 -0.547068 -0.772243 -0.323043 -0.641533 -0.686856 0.341561 
-0.598791 -0.553839 0.578543 -0.819108 -0.496611 0.287123 -0.774627 -0.436161 0.457948 
-0.710562 -0.0976463 0.696826 0.480669 0.645621 -0.593407 -0.720227 0.175977 0.671048 
0.514962 0.759151 -0.398125 0.417983 0.827966 -0.373847 0.25265 0.967428 -0.015867 
0.248372 0.9652 -0.081861 -0.85253 0.435498 0.289024 -0.774766 0.602896 -0.190407 
-0.826627 0.558236 0.0711304 -0.627705 0.670989 -0.394665 0.268323 0.959174 0.089378 
0.281545 0.950633 -0.130497 -0.441978 0.642244 -0.626241 -0.258367 0.627853 -0.734198 
0.0782628 0.767948 -0.635713 0.116041 0.860838 -0.495472 0.213342 0.925945 -0.311627 
0.132199 -0.895751 -0.424446 0.416733 -0.767402 -0.487265 -0.0148651 -0.795552 -0.605703 
-0.23708 -0.897578 -0.371681 0.877069 -0.282252 -0.388696 0.929287 -0.23696 -0.28333 
0.803576 -0.0333939 -0.594265 -0.310583 -0.922991 0.227214 -0.311473 -0.937735 0.153746 
-0.237533 -0.933344 -0.269161 -0.190596 -0.977461 -0.090796 -0.296493 -0.905967 -0.302186 
-0.370481 -0.894648 -0.249697 -0.721908 -0.427022 0.544519 -0.734383 -0.210477 0.645275 
-0.662721 0.116563 0.739739 0.357639 0.83398 -0.420203 0.438248 0.886954 -0.145777 
0.307567 0.950267 0.0489421 -0.843996 0.353641 0.403248 -0.828427 0.438128 0.34893 
-0.725459 0.637834 -0.258607 -0.70046 0.71154 -0.055374 -0.810432 0.581193 0.0735785 
0.159959 0.912024 -0.377658 -0.131938 0.766955 -0.627991 0.204417 0.859682 -0.468147 
0.0691714 0.79068 -0.60831 0.353628 0.928166 -0.115992 0.169398 0.861994 -0.477777 
-0.183174 -0.923381 -0.337364 0.559327 -0.687114 -0.463711 -0.236512 -0.882259 -0.407039 
-0.368216 -0.921225 0.125541 -0.439724 -0.896782 -0.0492368 -0.265301 -0.928723 -0.259015 
-0.328331 -0.934707 -0.136095 -0.422576 -0.878729 0.221958 -0.45545 -0.862446 0.220798 
0.893253 0.0046839 -0.44953 -0.190084 -0.970031 -0.151356 -0.165867 -0.985894 0.0223997 
0.749794 0.16959 -0.639568 0.612242 0.160024 -0.774307 -0.4548 -0.826839 -0.330899 
-0.547558 -0.825673 -0.135811 -0.698834 -0.123747 0.704499 0.495206 0.420464 -0.760251 
0.492121 0.773341 -0.399701 0.471691 0.529309 -0.705223 0.501353 0.788405 -0.356458 
0.434449 0.842367 -0.318861 0.490856 0.850182 -0.190396 0.343199 0.824213 -0.45043 
0.312074 0.948561 0.0532999 0.327919 0.93416 0.140764 0.315415 0.94098 0.122757 
-0.707416 0.134546 0.693873 -0.836176 0.353879 0.419022 -0.781511 0.280263 0.557399 
0.315919 0.945218 0.0822144 -0.801539 0.422337 0.42328 -0.8098 0.533253 0.244673 
0.29184 0.955773 0.0364259 -0.783621 0.593995 0.181959 0.274691 0.960508 0.0443639 
0.24586 0.96499 -0.0913686 -0.546132 0.664995 -0.509434 -0.46202 0.732512 -0.499963 
-0.696161 0.717687 0.0169055 -0.192214 0.909395 -0.368856 0.136805 0.960203 -0.243505 
-0.439786 0.887511 -0.137525 -0.194211 0.902114 -0.38532 0 -0.894427 -0.447214 
0 -0.997197 -0.0748196 -0.773954 -0.524116 0.355384 0.0962342 0.942735 -0.319358 
0.773954 -0.524116 0.355384 0 0.707107 -0.707107 0.444157 -0.750168 -0.48987 
0.306645 -0.831707 -0.462853 0.441003 -0.770355 -0.460511 0.557482 -0.774436 -0.299104 
-0.273759 -0.956264 -0.103034 0.799695 -0.506024 -0.323152 -0.354443 -0.918289 -0.176397 
-0.343214 -0.916654 -0.204816 -0.346047 -0.936006 0.0643778 -0.446787 -0.883275 0.142151 
0.954615 -0.202029 -0.218849 0 -0.970143 -0.242536 0 -0.99919 -0.0402377 
-0.446924 -0.893848 -0.0359955 -0.27998 -0.909357 0.307703 0.446924 -0.893848 -0.0359955 
0.899795 -0.0376395 -0.434686 0 0.996388 0.0849172 -0.178185 -0.846773 0.501225 
-0.286006 -0.856501 0.429658 -0.282578 -0.850852 0.442945 -0.186464 -0.741826 0.644147 
0.831146 0.0823113 -0.549929 0.0350915 -0.981698 0.187183 0.854418 0.0868222 -0.512281 
0.824549 -0.000633517 -0.56579 -0.263062 -0.939937 -0.217525 -0.515672 -0.828582 -0.218024 
-0.604422 -0.796616 0.00876757 -0.684969 -0.662764 0.302593 -0.703727 -0.308726 0.639888 
-0.581687 -0.148864 0.799675 0.407761 0.354711 -0.841374 -0.583298 -0.0259259 0.811845 
0.509047 0.548674 -0.663195 0.517262 0.848474 -0.111942 0.376494 0.900778 -0.21645 
-0.727244 0.167207 0.665701 0.308664 0.902349 0.300822 -0.768362 0.363662 0.526659 
-0.831546 0.447057 0.329653 0.303899 0.946542 0.108187 -0.809441 0.571065 -0.136712 
-0.520424 0.56793 0.637663 -0.106519 0.937527 -0.331205 -0.365053 0.86992 0.331625 
-0.418729 0.907334 0.037573 0 -0.231942 0.97273 0.0990404 0.992706 0.068738 
-0.18945 0.98152 -0.0269552 0.813728 -0.581244 -0.00151945 -0.355157 -0.932804 0.0611495 
-0.324569 -0.945575 -0.02331 -0.146537 -0.97525 -0.165572 -0.386933 -0.922059 -0.00946623 
-0.471624 -0.871003 0.137565 -0.373569 -0.87264 0.314557 0.928209 -0.354501 -0.112948 
-0.430288 -0.867948 0.248027 -0.414102 -0.67849 0.606771 -0.375122 -0.711377 0.594329 
0 -0.986394 0.164399 -0.328807 -0.639405 0.695016 0.979713 -0.0789591 -0.184195 
-0.0707193 -0.69785 0.712744 -0.0703804 -0.836597 0.543278 -0.113109 -0.624004 0.773192 