# vtk DataFile Version 4.2
vtk output
ASCII
DATASET POLYDATA
POINTS 1526 float
227.987 97.6058 52.9888 225.153 99.8145 53.043 241.6 86.7826 54.4013 
241.513 86.7338 54.3972 241.501 86.8355 54.3349 241.731 86.6963 54.6079 
241.208 87.3893 54.1112 241.127 87.3325 54.1119 241.571 86.91 54.3885 
241.317 87.2951 54.1988 240.196 88.2887 53.8748 241.231 87.514 54.1762 
237.265 90.5827 53.4352 238.964 89.5343 53.6848 235.114 91.6971 53.313 
236.213 91.9445 53.5323 232.162 93.0016 53.1958 230.046 95.1327 53.1051 
231.266 95.8084 53.4955 222.067 100.063 53.0343 220.713 101.414 53.1289 
218.772 103.609 53.4016 216.139 106 53.8185 214.984 107.035 53.9807 
214.788 106.925 53.9674 216.21 106.206 53.9093 214.458 107.274 54.1092 
214.876 107.284 54.0666 213.624 107.916 54.4589 213.498 107.891 54.5012 
240.529 86.2674 54.3002 239.875 86.7146 54.065 241.241 86.9582 54.2703 
242.124 86.4731 55.0815 240.696 87.6142 54.0484 241.687 87.3278 54.4726 
242.463 87.9979 55.0724 239.994 89.8875 54.1103 230.81 93.0456 53.193 
236.544 93.2645 54.1917 232.646 95.5712 53.8387 225.047 97.2759 52.9852 
221.225 99.2646 53.18 226.803 99.8246 53.5467 217.614 102.401 53.4172 
219.354 101.833 53.2137 223.557 102.259 53.863 218.366 102.704 53.3149 
215.695 106.005 53.8525 217.357 105.547 53.8952 213.36 106.065 54.4264 
214.055 107.263 54.2482 212.901 107.521 54.8207 213.377 107.585 54.5321 
214.225 107.783 54.4125 212.774 107.833 54.974 212.85 108.078 54.9835 
213.055 108.218 54.9107 240.094 84.831 54.9942 236.38 86.5525 54.2575 
233.088 89.1183 53.8265 228.289 91.892 53.8488 238.126 92.7327 54.6485 
225.998 94.6378 53.4182 219.221 98.7756 53.7158 216.422 101.16 53.911 
215.557 102.033 54.0132 214.058 102.973 54.4051 218.376 105.771 54.2306 
212.228 106.836 55.4467 215.916 107.344 54.3811 212.58 108.327 55.7391 
213.096 108.46 55.0967 213.388 108.549 55.1105 212.742 108.425 55.4485 
212.943 108.553 55.3553 240.859 84.1714 55.7362 240.857 83.9409 55.8835 
240.634 83.8563 55.9184 240.958 83.9794 55.9157 239.993 83.569 55.9882 
240.807 84.5934 55.4064 242.491 85.4657 56.378 243.399 87.3938 56.5054 
243.095 88.1342 55.8186 240.312 91.5653 55.1633 221.027 95.0841 54.5414 
211.458 105.713 56.236 216.807 107.67 55.0684 239.263 81.9377 57.0679 
237.798 82.3357 56.6034 241.423 83.9103 56.5614 243.184 86.3427 56.7166 
243.637 88.8153 56.8456 242.877 89.9537 56.2637 243.45 89.7015 56.8913 
241.919 90.7789 55.8488 214.1 97.8263 56.0467 212.203 100.755 56.1256 
211.172 102.408 56.5807 210.971 102.765 56.7219 212.104 102.005 55.8176 
211.026 104.366 56.7829 212.262 108.298 56.8733 212.524 108.555 56.6017 
212.957 108.952 56.6208 214.2 109.589 56.9044 228.734 85.376 56.9445 
239.805 94.6452 57.3957 211.066 98.8814 57.7089 243.561 91.4225 58.2711 
210.829 96.8436 58.5797 209.784 98.2703 59.3799 210.273 101.994 58.0399 
212.63 109.09 57.9872 213.466 109.74 57.84 216.003 110.662 58.4695 
213.645 110.154 58.9236 239.196 79.4113 59.8931 240.707 80.8995 59.552 
231.67 80.7135 58.939 212.076 93.2467 59.0896 209.522 96.2301 60.1364 
209.43 96.9622 60.1524 209.483 101.246 59.6609 211.626 107.643 59.9802 
218.54 110.218 59.1048 234.008 78.4911 59.9908 243.519 84.6857 60.2567 
216.418 87.3315 60.0077 244.725 88.566 60.2147 245.336 91.6663 61.2035 
245.302 91.6434 61.1854 245.349 91.6433 61.2627 208.767 94.9041 61.3776 
209.273 94.1379 60.8669 216.678 111.527 60.2212 238.922 78.0916 61.354 
242.012 81.8666 60.7098 245.302 91.0665 61.5823 245.106 91.6726 61.0236 
245.321 91.5436 61.3332 245.335 91.812 61.5407 208.976 92.5798 61.6234 
244.645 94.1905 61.6173 208.802 99.2193 61.5969 213.357 110.152 60.8705 
215.16 111.705 62.1007 216.385 111.987 61.5344 235.089 75.2487 62.558 
236.64 76.0477 62.137 211.01 87.7503 62.2219 245.138 94.1233 62.1919 
245.49 93.7195 62.7242 244.911 94.7554 62.2806 245.353 94.0665 62.421 
245.294 94.2156 62.3429 245.362 94.1567 62.4073 208.176 95.2373 62.437 
245.278 94.3237 62.3776 245.342 94.2293 62.4167 217.142 112.224 61.9751 
237.883 75.8979 63.2043 226.445 77.251 62.7688 239.77 77.839 63.3049 
241.574 80.4858 63.0265 207.965 90.2432 63.4791 207.684 91.3882 63.6212 
245.753 92.0744 63.1764 245.89 93.5538 63.5695 207.808 94.6583 63.3154 
245.38 94.73 63.0288 245.299 94.3327 62.5157 244.733 95.742 62.7917 
208.015 97.0744 63.3436 208.061 97.3037 63.3911 208.44 98.4953 63.0162 
210.228 104.279 62.8422 213.624 110.464 63.1124 218.861 111.946 61.9533 
217.022 112.61 62.7925 216.888 113.029 63.7733 234.633 73.1585 64.4295 
239.471 77.1598 63.9665 244.164 85.6809 63.8527 207.296 90.1348 64.4155 
207.113 90.2167 64.6251 207.248 92.3625 64.5452 246.325 96.2961 65.169 
243.311 98.5519 63.7796 209.197 101.038 64.1549 213.45 110.21 63.9032 
220.292 113.488 64.8615 218.212 113.849 64.9623 235.337 72.2503 65.7212 
236.451 72.9303 65.9428 231.507 72.4013 65.1301 207.024 90.2382 64.8318 
246.239 97.016 65.3869 241.008 101.184 64.5748 215.851 112.95 65.8218 
206.435 84.9352 67.2457 206.048 87.314 66.9034 206.633 87.137 66.096 
206.023 87.5984 66.9734 246.446 92.1014 65.7806 207.51 95.4903 65.2617 
247.355 96.9474 66.942 236.57 105.183 65.6509 229.394 108.41 64.5979 
215.041 112.088 65.9869 217.814 114.302 66.4737 233.802 70.008 67.6436 
205.709 84.396 68.431 246.663 92.2833 66.6378 247.632 95.2749 67.7238 
247.466 95.9308 67.0514 210.294 102.825 66.6481 217.962 114.691 67.3819 
232.604 69.5579 67.8452 232.132 69.0776 68.3058 228.923 69.8072 68.0029 
235.692 70.9333 68.103 237.218 72.3717 68.5658 205.234 85.391 69.1131 
246.943 100.476 68.0786 248.377 99.5198 69.3953 217.349 114.744 68.6206 
220.357 115.885 68.3387 221.934 116.02 68.7826 219.462 116.037 68.8934 
219.198 116.117 69.2486 232.412 68.2316 69.2835 236.331 71.0846 69.1011 
215.737 74.5437 69.0753 206.617 80.4744 69.4593 205.527 82.0696 69.6723 
205.172 83.7762 69.6134 245.711 103.406 69.1734 217.21 114.762 69.1976 
218.489 116.016 69.9899 221.003 116.934 69.977 233.377 67.7382 70.4012 
230.527 67.2943 70.2133 238.744 74.3677 69.9543 204.767 82.2791 70.6325 
204.879 85.9559 70.4931 207.563 94.3162 70.3775 249.082 100.455 70.7757 
248.406 101.987 70.45 216.902 114.573 69.9484 231.941 66.3428 71.6299 
233.96 67.2683 71.9983 225.341 68.0355 70.7409 235.85 69.7439 71.2156 
204.028 80.8313 72.3913 204.393 81.0171 71.7473 204.302 81.7892 71.7034 
247.888 93.9987 70.9134 249.397 99.7831 71.3092 249.139 101.844 71.4119 
248.4 103.092 71.0994 232.846 66.5488 71.9085 206.137 77.0121 72.2085 
247.469 92.929 71.5833 249.184 97.8274 71.6234 249.167 103.397 72.4347 
249.374 103.089 72.5831 248.968 103.822 72.4977 246.794 105.601 71.9872 
244.645 107.259 72.1564 225.473 116.372 70.8431 220.849 118.483 72.8786 
230.382 64.8481 73.3769 233.537 66.3449 73.6706 203.375 79.6882 74.0419 
203.474 81.0252 73.7103 250.108 100.701 73.5061 250.05 103.337 74.0335 
248.753 104.438 72.8107 242.333 109.367 73.0805 238.823 111.272 73.0171 
237.581 112.155 73.4904 219.032 117.665 74.062 219.501 118.073 74.0108 
222.135 118.807 72.9084 233.204 65.7437 74.5749 218.973 67.6277 73.8665 
237.157 71.5067 73.6914 204.56 76.072 74.3001 250.126 100.012 73.8013 
249.777 104.865 74.509 249.457 105.27 74.3874 249.608 105.175 74.5866 
246.955 106.988 74.0138 249.513 105.315 74.5033 246.344 107.357 74.261 
244.198 108.742 74.2021 242.861 109.596 74.3006 235.265 113.686 73.9583 
217.491 115.646 73.5043 230.515 115.885 73.3362 224.026 119.511 74.2092 
221.855 119.604 74.7107 229.285 63.0467 75.8246 224.15 64.5379 74.8546 
208.335 72.0691 75.103 203.252 76.7537 75.3964 202.97 80.3689 75.1909 
203.419 82.2029 74.6239 250.253 102.5 74.8792 250.24 102.829 74.5976 
250.303 104.281 75.3446 250.095 104.741 75.1903 250.235 104.564 75.3472 
249.378 105.382 74.9268 243.329 109.354 74.6601 241.558 110.324 74.2745 
239.193 111.611 74.8318 235.791 113.513 74.6882 227.773 118.177 74.7301 
221.303 119.593 75.3976 222.314 120.352 76.0105 222.411 120.244 75.6678 
223.454 120.438 75.7866 230.183 62.9023 76.3819 230.242 62.9919 76.3076 
228.214 62.6853 76.2017 230.544 63.1885 76.3916 234.788 67.5689 75.9104 
202.518 76.5881 76.6667 202.607 77.0876 76.2317 202.607 77.9352 76.2269 
249.462 97.9068 75.7497 250.236 103.232 75.6149 250.303 104.089 75.6108 
250.096 104.793 75.5462 250.068 104.761 75.7014 250.173 104.638 75.6846 
250.218 104.648 75.5169 246.949 106.909 75.4386 244.673 108.299 75.4791 
215.131 110.78 75.8096 243.284 109.308 75.0486 238.42 111.898 75.5188 
232.173 115.694 75.1073 230.537 116.751 75.1655 228.93 117.686 75.1236 
229.605 117.358 75.6084 220.871 119.464 76.2858 225.943 119.516 75.5663 
227.111 118.845 75.5516 221.586 119.991 76.5111 224.491 120.307 76.0782 
224.981 120.116 76.0443 225.527 119.811 75.9713 222.067 120.268 76.1696 
223.717 120.605 76.2409 224.034 120.517 76.2267 222.892 120.559 76.4481 
229.239 61.1844 78.481 229.232 61.1672 78.5271 229.254 61.2317 78.4885 
229.579 62.0212 77.8394 236.455 70.7526 77.0247 201.921 75.7543 77.9003 
250.167 103.797 75.9558 250.226 104.224 75.8451 249.697 104.607 76.2003 
250.184 104.471 75.8134 249.555 104.964 75.9298 245.767 107.276 76.1902 
246.736 106.857 75.8893 243.013 108.995 76.228 239.815 110.226 77.108 
241.013 109.979 76.5014 235.702 112.949 76.7366 233.655 114.388 76.54 
232.718 115.035 76.5176 230.977 116.16 76.7934 231.307 116.216 75.8184 
229.648 117.254 76.1677 226.782 119.095 75.8533 227.952 118.341 76.15 
224.834 120.215 76.2221 226.695 119.129 76.2466 222.067 120.141 77.1302 
223.643 120.648 76.4198 224.734 120.227 76.4741 225.188 119.991 76.5706 
222.911 120.596 76.7781 222.893 120.561 76.958 223.041 120.616 76.8802 
229.169 61.4291 78.3258 228.892 61.1317 78.728 229.162 61.1502 78.6142 
229.245 61.1873 78.593 229.312 61.316 78.6217 229.593 61.6853 78.5551 
201.898 74.2318 78.7589 202.309 79.5097 77.8763 247.927 94.4121 77.5986 
249.061 98.1478 77.5763 249.398 100.321 77.5828 249.688 100.791 76.9512 
[...]
POINT_DATA 1526
SCALARS scalars float
LOOKUP_TABLE default
1 1 1 1 1 1 1 1 1 
1 1 1 1 1 1 1 1 1 
1 1 1 1 1 1 1 1 1 
1 1 1 1 1 1 1 1 1 
1 1 1 1 1 1 1 1 1 
1 1 1 1 1 1 1 1 1 
1 1 1 1 1 1 1 1 1 
1 1 1 1 1 1 1 1 1 
1 1 1 1 1 1 1 1 1 
1 1 1 1 1 1 1 1 1 
1 1 1 1 1 1 1 1 1 
1 1 1 1 1 1 1 1 1 
1 1 1 1 1 1 1 1 1 
1 1 1 1 1 1 1 1 1 
1 1 1 1 1 1 1 1 1 
1 1 1 1 1 1 1 1 1 
1 1 1 1 1 1 1 1 1 
1 1 1 1 1 1 1 1 1 
1 1 1 1 1 1 1 1 1 
1 1 1 1 1 1 1 1 1 
1 1 1 1 1 1 1 1 1 
1 1 1 1 1 1 1 1 1 
1 1 1 1 1 1 1 1 1 
1 1 1 1 1 1 1 1 1 
1 1 1 1 1 1 1 1 1 
1 1 1 1 1 1 1 1 1 
1 1 1 1 1 1 1 1 1 
1 1 1 1 1 1 1 1 1 
1 1 1 1 1 1 1 1 1 
1 1 1 1 1 1 1 1 1 
1 1 1 1 1 1 1 1 1 
1 1 1 1 1 1 1 1 1 
1 1 1 1 1 1 1 1 1 
1 1 1 1 1 1 1 1 1 
1 1 1 1 1 1 1 1 1 
1 1 1 1 1 1 1 1 1 
1 1 1 1 1 1 1 1 1 
1 1 1 1 1 1 1 1 1 
1 1 1 1 1 1 1 1 1 
1 1 1 1 1 1 1 1 1 
1 1 1 1 1 1 1 1 1 
1 1 1 1 1 1 1 1 1 
1 1 1 1 1 1 1 1 1 
1 1 1 1 1 1 1 1 1 
1 1 1 1 1 1 1 1 1 
1 1 1 1 1 1 1 1 1 
1 1 1 1 1 1 1 1 1 
1 1 1 1 1 1 1 1 1 
1 1 1 1 1 1 1 1 1 
1 1 1 1 1 1 1 1 1 
1 1 1 1 1 1 1 1 1 
1 1 1 1 1 1 1 1 1 
1 1 1 1 1 1 1 1 1 
1 1 1 1 1 1 1 1 1 
1 1 1 1 1 1 1 1 1 
1 1 1 1 1 1 1 1 1 
1 1 1 1 1 1 1 1 1 
1 1 1 1 1 1 1 1 1 
1 1 1 1 1 1 1 1 1 
1 1 1 1 1 1 1 1 1 
1 1 1 1 1 1 1 1 1 
1 1 1 1 1 1 1 1 1 
1 1 1 1 1 1 1 1 1 
1 1 1 1 1 1 1 1 1 
1 1 1 1 1 1 1 1 1 
1 1 1 1 1 1 1 1 1 
1 1 1 1 1 1 1 1 1 
1 1 1 1 1 1 1 1 1 
1 1 1 1 1 1 1 1 1 
1 1 1 1 1 1 1 1 1 
1 1 1 1 1 1 1 1 1 
1 1 1 1 1 1 1 1 1 
1 1 1 1 1 1 1 1 1 
1 1 1 1 1 1 1 1 1 
1 1 1 1 1 1 1 1 1 
1 1 1 1 1 1 1 1 1 
1 1 1 1 1 1 1 1 1 
1 1 1 1 1 1 1 1 1 
1 1 1 1 1 1 1 1 1 
1 1 1 1 1 1 1 1 1 
1 1 1 1 1 1 1 1 1 
1 1 1 1 1 1 1 1 1 
1 1 1 1 1 1 1 1 1 
1 1 1 1 1 1 1 1 1 
1 1 1 1 1 1 1 1 1 
1 1 1 1 1 1 1 1 1 
1 1 1 1 1 1 1 1 1 
1 1 1 1 1 1 1 1 1 
1 1 1 1 1 1 1 1 1 
1 1 1 1 1 1 1 1 1 
1 1 1 1 1 1 1 1 1 
1 1 1 1 1 1 1 1 1 
1 1 1 1 1 1 1 1 1 
1 1 1 1 1 1 1 1 1 
1 1 1 1 1 1 1 1 1 
1 1 1 1 1 1 1 1 1 
1 1 1 1 1 1 1 1 1 
1 1 1 1 1 1 1 1 1 
1 1 1 1 1 1 1 1 1 
1 1 1 1 1 1 1 1 1 
1 1 1 1 1 1 1 1 1 
1 1 1 1 1 1 1 1 1 
1 1 1 1 1 1 1 1 1 
1 1 1 1 1 1 1 1 1 
1 1 1 1 1 1 1 1 1 
1 1 1 1 1 1 1 1 1 
1 1 1 1 1 1 1 1 1 
1 1 1 1 1 1 1 1 1 
1 1 1 1 1 1 1 1 1 
1 1 1 1 1 1 1 1 1 
1 1 1 1 1 1 1 1 1 
1 1 1 1 1 1 1 1 1 
1 1 1 1 1 1 1 1 1 
1 1 1 1 1 1 1 1 1 
1 1 1 1 1 1 1 1 1 
1 1 1 1 1 1 1 1 1 
1 1 1 1 1 1 1 1 1 
1 1 1 1 1 1 1 1 1 
1 1 1 1 1 1 1 1 1 
1 1 1 1 1 1 1 1 1 
1 1 1 1 1 1 1 1 1 
1 1 1 1 1 1 1 1 1 
1 1 1 1 1 1 1 1 1 
1 1 1 1 1 1 1 1 1 
1 1 1 1 1 1 1 1 1 
1 1 1 1 1 1 1 1 1 
1 1 1 1 1 1 1 1 1 
1 1 1 1 1 1 1 1 1 
1 1 1 1 1 1 1 1 1 
1 1 1 1 1 1 1 1 1 
1 1 1 1 1 1 1 1 1 
1 1 1 1 1 1 1 1 1 
1 1 1 1 1 1 1 1 1 
1 1 1 1 1 1 1 1 1 
1 1 1 1 1 1 1 1 1 
1 1 1 1 1 1 1 1 1 
1 1 1 1 1 1 1 1 1 
1 1 1 1 1 1 1 1 1 
1 1 1 1 1 1 1 1 1 
1 1 1 1 1 1 1 1 1 
1 1 1 1 1 1 1 1 1 
1 1 1 1 1 1 1 1 1 
1 1 1 1 1 1 1 1 1 
1 1 1 1 1 1 1 1 1 
1 1 1 1 1 1 1 1 1 
1 1 1 1 1 1 1 1 1 
1 1 1 1 1 1 1 1 1 
1 1 1 1 1 1 1 1 1 
1 1 1 1 1 1 1 1 1 
1 1 1 1 1 1 1 1 1 
1 1 1 1 1 1 1 1 1 
1 1 1 1 1 1 1 1 1 
1 1 1 1 1 1 1 1 1 
1 1 1 1 1 1 1 1 1 
1 1 1 1 1 1 1 1 1 
1 1 1 1 1 1 1 1 1 
1 1 1 1 1 1 1 1 1 
1 1 1 1 1 1 1 1 1 
1 1 1 1 1 1 1 1 1 
1 1 1 1 1 1 1 1 1 
1 1 1 1 1 1 1 1 1 
1 1 1 1 1 1 1 1 1 
1 1 1 1 1 1 1 1 1 
1 1 1 1 1 1 1 1 1 
1 1 1 1 1 1 1 1 1 
1 1 1 1 1 1 1 1 1 
1 1 1 1 1 1 1 1 1 
1 1 1 1 1 1 1 1 1 
1 1 1 1 1 1 1 1 1 
1 1 1 1 1 
NORMALS Normals float
0.094329 0.0450892 -0.99452 0.247003 0.319598 -0.914793 0.602529 -0.273343 -0.749829 
0.274694 -0.564232 -0.778579 0.329461 -0.178437 -0.927155 0.656692 -0.358132 -0.663699 
0.376878 0.0169141 -0.926109 0.150158 -0.321476 -0.934936 0.608696 0.103943 -0.786565 
0.534773 -0.1357 -0.834028 0.28438 0.0290113 -0.958272 0.495157 0.215568 -0.841635 
0.162238 0.0762273 -0.983803 0.125793 0.0692415 -0.989637 0.0394245 0.0664614 -0.99701 
0.243931 0.328997 -0.912282 0.0654093 0.00848539 -0.997822 0.0441768 -0.0165545 -0.998887 
0.292767 0.247645 -0.923558 -0.0566785 0.0872001 -0.994577 -0.00746446 0.114473 -0.993398 
-0.0332527 0.206384 -0.977906 0.0164923 0.14438 -0.989385 0.0331626 0.205188 -0.978161 
-0.130128 0.0466357 -0.9904 0.187471 0.394945 -0.899374 -0.188139 0.396123 -0.898716 
0.0416874 0.660387 -0.749767 -0.20316 0.372257 -0.905622 -0.408659 0.364214 -0.836867 
0.279102 -0.446084 -0.850359 -0.0536048 -0.321994 -0.945223 0.244538 -0.211244 -0.94635 
0.664474 -0.388917 -0.638136 0.0701511 -0.158312 -0.984894 0.582517 0.0483906 -0.811377 
0.699282 -0.0112034 -0.714758 0.416944 0.320633 -0.850501 0.067302 -0.046368 -0.996655 
0.252347 0.381868 -0.889099 0.294959 0.376464 -0.878222 -0.0926052 -0.13034 -0.987135 
-0.145674 -0.124242 -0.9815 0.35445 0.527387 -0.772158 -0.192849 -0.0168314 -0.981084 
-0.0512992 0.0500829 -0.997427 0.294721 0.443772 -0.84629 -0.0995497 -0.0600568 -0.993219 
-0.0729339 0.0732833 -0.994641 0.135595 0.225593 -0.964739 -0.543012 -0.0258397 -0.839328 
-0.308243 0.0775327 -0.948143 -0.567186 0.0480933 -0.822184 -0.459048 0.0354625 -0.887704 
0.0224705 0.569358 -0.821782 -0.793847 0.22409 -0.565324 -0.619837 0.361969 -0.696262 
-0.371892 0.551267 -0.746861 -0.0616735 -0.533191 -0.843744 -0.109247 -0.376976 -0.919758 
-0.126848 -0.279173 -0.951826 -0.142129 -0.28134 -0.949024 0.435701 0.493232 -0.752919 
-0.112237 -0.223235 -0.968281 -0.225431 -0.163691 -0.960409 -0.274531 -0.293318 -0.91575 
-0.383666 -0.172678 -0.907184 -0.337911 -0.0936524 -0.936507 0.29218 0.513162 -0.807029 
-0.834835 0.194905 -0.514843 0.211318 0.688227 -0.694037 -0.831189 0.496392 -0.250441 
-0.412329 0.671516 -0.615671 -0.0858853 0.764508 -0.638867 -0.771771 0.517732 -0.369219 
-0.514008 0.780827 -0.355112 0.465199 -0.454815 -0.75943 0.320363 -0.734479 -0.598254 
0.264894 -0.788126 -0.555598 0.541493 -0.693008 -0.475946 0.0862565 -0.655038 -0.750656 
0.420806 -0.530429 -0.735913 0.712082 -0.509187 -0.483391 0.884226 -0.188906 -0.427152 
0.770988 0.124686 -0.624525 0.425931 0.50804 -0.748651 -0.322635 -0.370722 -0.870903 
-0.834517 0.101943 -0.541469 0.28684 0.669658 -0.685041 0.409901 -0.638817 -0.651071 
-0.0239568 -0.595737 -0.802822 0.625684 -0.611374 -0.4845 0.832319 -0.423753 -0.357322 
0.934693 0.0227404 -0.354728 0.694626 0.380813 -0.610308 0.792483 0.343335 -0.504075 
0.592749 0.381589 -0.709252 -0.44074 -0.340086 -0.830717 -0.524902 -0.253406 -0.812566 
-0.706003 -0.144441 -0.693323 -0.763665 -0.045335 -0.644019 -0.642751 -0.203666 -0.738506 
-0.851347 0.112357 -0.512429 -0.861896 0.477643 -0.170272 -0.786631 0.586006 -0.194445 
-0.580404 0.794453 -0.17882 -0.17872 0.863934 -0.470825 -0.212496 -0.464792 -0.859543 
0.483216 0.574685 -0.660484 -0.712439 -0.186346 -0.67654 0.749008 0.39846 -0.529355 
-0.549659 -0.278652 -0.787546 -0.833362 -0.0891655 -0.545488 -0.925239 0.0426463 -0.376981 
-0.690005 0.696678 -0.196296 -0.438398 0.824997 -0.356634 -0.0476792 0.885248 -0.462669 
-0.476232 0.853893 -0.20993 0.471805 -0.704638 -0.529985 0.671467 -0.588345 -0.450536 
-0.120346 -0.48631 -0.865459 -0.480496 -0.298068 -0.82479 -0.790351 -0.140234 -0.59639 
-0.86152 -0.0948343 -0.498788 -0.9391 0.133395 -0.316698 -0.900531 0.433581 -0.0324255 
0.408806 0.72498 -0.55433 -0.024865 -0.583055 -0.812052 0.923492 -0.342089 -0.1736 
-0.288812 -0.42225 -0.859239 0.958852 -0.110817 -0.261386 0.834878 0.0646626 -0.546624 
0.596761 -0.575069 -0.559617 0.934716 -0.166473 -0.313995 -0.860001 -0.0934245 -0.501668 
-0.772324 -0.198724 -0.603345 0.0984652 0.893107 -0.438936 0.592278 -0.661552 -0.459952 
0.747326 -0.577823 -0.328061 0.921127 -0.162395 -0.35377 0.798255 0.000476828 -0.602319 
0.787425 -0.455053 -0.415799 0.840697 0.407004 -0.357178 -0.739706 -0.175095 -0.649751 
0.783306 0.252713 -0.567951 -0.950952 0.0774022 -0.299498 -0.707659 0.703747 -0.0629258 
-0.421195 0.874732 -0.239662 -0.214816 0.917262 -0.335388 0.076862 -0.699883 -0.71011 
0.276072 -0.702826 -0.655606 -0.577865 -0.395494 -0.713902 0.706771 0.00232988 -0.707439 
0.898203 0.0402399 -0.437735 0.709847 0.422368 -0.563668 0.695899 -0.196176 -0.690825 
0.685905 0.165229 -0.708685 0.916236 0.111523 -0.384803 -0.954899 -0.00403706 -0.296902 
0.778235 0.458994 -0.428574 0.88554 0.355059 -0.299586 -0.0656025 0.913027 -0.40259 
0.474031 -0.714794 -0.514164 -0.221054 -0.573647 -0.78871 0.799497 -0.580028 -0.156117 
0.831355 -0.55183 -0.0658258 -0.754395 -0.266852 -0.599731 -0.885654 -0.0893812 -0.455663 
0.98705 -0.0499465 -0.152437 0.962789 -0.00269752 -0.27024 -0.918901 0.0856249 -0.385084 
0.836593 0.342988 -0.427167 0.902921 0.401966 -0.152175 0.709805 0.463083 -0.530783 
-0.928357 -0.0526931 0.367934 -0.95984 0.234268 -0.154352 -0.974155 0.217258 -0.0618185 
-0.904589 0.418795 0.0795546 -0.742323 0.669736 0.0202343 0.196408 0.840629 -0.504744 
-0.102433 0.889767 -0.444773 -0.496032 0.836512 -0.232808 0.174059 -0.676164 -0.715895 
0.76198 -0.595358 -0.254824 0.924429 -0.380608 0.0238392 -0.748397 -0.464433 -0.473502 
-0.838548 -0.292904 -0.459395 -0.918136 0.0229218 -0.395602 0.845233 0.13963 -0.515834 
0.551574 0.498502 -0.668776 -0.958619 0.278581 0.0586625 -0.776246 0.629177 0.0397298 
0.175986 0.832813 -0.524835 -0.0204519 0.910162 -0.413747 0.230937 -0.730275 -0.642936 
0.62262 -0.650238 -0.435356 -0.0449225 -0.683704 -0.728376 -0.816686 -0.407891 -0.408227 
0.674403 0.339971 -0.655439 0.315647 0.535773 -0.783144 -0.619209 0.752564 -0.224115 
-0.774128 -0.309935 -0.551965 -0.933947 -0.0959456 -0.344293 -0.748544 -0.0147897 -0.66292 
-0.934575 0.0649246 -0.349792 0.940187 -0.268126 -0.210136 -0.963056 0.24125 -0.119672 
0.889851 0.121066 -0.439896 0.357296 0.604481 -0.711999 0.401062 0.706827 -0.582705 
-0.800316 0.599431 0.0132862 -0.297698 0.888328 -0.349642 0.28102 -0.684846 -0.67232 
-0.84111 -0.320828 -0.435435 0.921521 -0.275718 -0.273457 0.963189 -0.149002 -0.223754 
0.914625 -0.0388108 -0.402436 -0.931819 0.274075 0.2379 -0.394335 0.884776 -0.248338 
0.0636249 -0.642437 -0.763693 0.115562 -0.721147 -0.683075 -0.122674 -0.642346 -0.756533 
0.604832 -0.684407 -0.407144 0.773786 -0.571215 -0.273803 -0.923111 -0.137221 -0.359216 
0.642442 0.386971 -0.661454 0.853645 0.128096 -0.504857 -0.834565 0.545754 -0.0751932 
-0.0389523 0.874903 -0.482729 0.344381 0.819012 -0.458935 -0.358246 0.839019 -0.409521 
-0.318313 0.86155 -0.395485 0.120264 -0.745507 -0.655558 0.759431 -0.617575 -0.204609 
-0.337857 -0.579905 -0.741325 -0.573219 -0.438459 -0.692223 -0.769351 -0.280154 -0.57412 
-0.878191 -0.126668 -0.461232 0.470937 0.553252 -0.687118 -0.556567 0.814649 -0.163036 
-0.57085 0.769456 -0.286476 0.0270824 0.882888 -0.468802 0.423755 -0.751076 -0.506277 
0.0566076 -0.754843 -0.653459 0.846234 -0.518919 -0.120879 -0.833497 -0.209771 -0.511155 
-0.972519 0.0578992 -0.225509 -0.937842 0.343478 0.0497621 0.864492 0.0770888 -0.496699 
0.713568 0.328498 -0.618797 -0.852362 0.499461 -0.154973 0.33072 -0.81709 -0.472217 
0.702783 -0.671386 -0.235236 -0.223078 -0.694922 -0.683608 0.759041 -0.616907 -0.208045 
-0.859447 -0.132293 -0.493812 -0.82403 -0.19581 -0.531633 -0.879121 -0.139173 -0.455827 
0.966091 -0.241289 -0.091914 0.897017 -0.0631428 -0.437463 0.849911 0.235652 -0.471296 
0.692384 0.426029 -0.582326 0.383987 -0.797638 -0.465111 -0.619859 -0.437623 -0.651353 
0.862118 -0.497013 -0.0986458 0.932936 -0.228822 -0.277977 0.717379 0.428258 -0.549511 
0.85561 0.318012 -0.408411 0.720165 0.455393 -0.523431 0.540174 0.58898 -0.601095 
0.444981 0.730843 -0.517552 0.279715 0.734051 -0.618813 -0.399979 0.827631 -0.393756 
0.123697 -0.81969 -0.559291 0.593602 -0.770817 -0.231255 -0.904595 -0.107863 -0.4124 
-0.939925 0.0604549 -0.335986 0.953226 0.0441604 -0.299015 0.895404 0.128977 -0.426166 
0.728572 0.470946 -0.497385 0.463036 0.775762 -0.42871 0.402331 0.752697 -0.52113 
0.438422 0.844617 -0.307258 -0.694277 0.704226 -0.148474 -0.634129 0.755999 -0.162318 
-0.110866 0.860155 -0.497837 0.639813 -0.742068 -0.199938 -0.333329 -0.689077 -0.643479 
0.864939 -0.501821 -0.00745271 -0.647502 -0.464419 -0.604199 0.99343 -0.114445 0.00039924 
0.851698 0.440149 -0.284395 0.713716 0.454975 -0.532548 0.873856 0.47693 -0.094412 
0.516942 0.814327 -0.263898 0.677172 0.698444 -0.231548 0.479883 0.877315 -0.00550289 
0.554276 0.823816 -0.118769 0.44606 0.889762 -0.0967223 0.480218 0.848058 -0.224026 
-0.808524 0.588311 0.0133682 0.41785 0.773788 -0.476082 0.216234 0.837494 -0.501843 
-0.278034 0.860347 -0.427199 0.173832 -0.724419 -0.667083 -0.20598 -0.733235 -0.648027 
-0.427914 -0.614842 -0.662464 -0.805504 -0.235786 -0.543662 -0.951445 0.0823781 -0.296591 
-0.967532 0.166268 -0.190359 0.964958 -0.162244 -0.206237 0.959705 -0.134274 -0.246854 
0.97586 0.150014 -0.158723 0.818862 0.506846 -0.269393 0.961858 0.248983 -0.113297 
0.664125 0.741275 0.0972066 0.512254 0.856371 0.0649978 0.49009 0.861927 0.129976 
0.447566 0.890902 -0.0773166 0.491605 0.870122 0.0348278 0.431983 0.798629 -0.419026 
-0.466842 0.841932 -0.270571 -0.29423 0.93265 -0.20879 -0.35225 0.840783 -0.411102 
0.01129 0.921163 -0.389013 0.344347 -0.823201 -0.451405 0.446698 -0.59651 -0.666811 
0.0670945 -0.807644 -0.585841 0.5027 -0.71931 -0.479464 0.872721 -0.487316 0.0296838 
-0.831354 -0.272781 -0.484192 -0.885499 -0.103712 -0.452918 -0.887895 -0.0514441 -0.457161 
0.987288 -0.12527 0.0978201 0.970244 -0.0808171 0.228245 0.980045 0.0433461 0.193993 
0.701531 0.698948 0.139021 0.596381 0.671958 0.439093 0.795611 0.500003 0.342054 
0.872393 0.487819 0.0310366 0.496119 0.853738 0.158105 0.441893 0.805166 0.395521 
-0.964181 0.259119 -0.0566801 0.44657 0.871248 0.203722 0.504309 0.828068 0.2449 
0.559727 0.8286 -0.0113317 0.52723 0.84355 -0.102235 0.466178 0.87761 -0.111705 
0.480881 0.875635 0.044906 -0.637702 0.756341 0.145893 0.508031 0.837117 -0.202829 
0.515213 0.847191 -0.129703 -0.577788 0.811857 -0.0839563 0.288138 0.876407 -0.385858 
0.486905 0.850528 -0.198812 0.42 0.83414 -0.357507 -0.498739 0.855985 -0.136196 
0.194108 0.972228 -0.130747 0.298083 0.938218 -0.175764 -0.296925 0.945097 -0.136478 
0.28088 -0.798843 -0.531936 0.640939 -0.763942 -0.0747679 0.934048 -0.25825 -0.246702 
0.352373 -0.81256 -0.464306 0.877712 -0.461271 0.129813 -0.913677 -0.074737 -0.399511 
0.779214 0.0323189 0.625924 0.839126 0.120196 0.530491 0.579733 0.459563 0.672839 
0.85457 0.262197 0.44829 0.478352 0.72887 0.489825 0.32602 0.769356 0.549366 
0.437659 0.819352 0.370294 0.425521 0.816515 0.390173 0.405689 0.707391 0.578804 
0.401671 0.848468 0.34462 0.480249 0.719129 0.50221 0.479369 0.808642 0.341033 
0.594835 0.710787 0.375438 0.526888 0.753632 0.392973 0.548415 0.818694 0.170239 
0.51322 0.837379 0.188152 0.517697 0.81598 -0.25723 0.539066 0.838758 0.0767708 
0.463818 0.885487 0.0280191 0.521016 0.825135 0.218393 -0.473585 0.823323 0.31282 
0.0972166 0.995263 -0.000147212 0.404653 0.899415 0.165251 0.510683 0.830806 0.221281 
-0.452852 0.891416 0.0173894 -0.351261 0.907228 0.231416 -0.0532804 0.982186 0.180199 
0.446167 -0.638694 -0.626901 0.0235581 -0.941596 -0.33592 0.151795 -0.987762 -0.0358536 
0.749058 -0.656829 0.0865261 0.887022 -0.443946 -0.126897 0.6566 -0.721852 -0.218646 
-0.826191 -0.288507 -0.483914 -0.966164 0.20513 -0.156362 0.948494 -0.310212 0.0642522 
0.923117 -0.220378 0.315102 0.921268 -0.0224019 0.388282 0.954476 -0.0294145 0.296833 
0.947583 -0.00211578 0.319502 0.679806 0.288087 0.67444 0.406764 0.59079 0.696785 
-0.828853 0.538251 0.152608 -0.771363 0.606424 0.193001 -0.690399 0.68228 0.240508 
0.427874 0.751373 0.502357 0.547296 0.803733 0.233411 0.253045 0.805164 0.536357 
0.222992 -0.92215 -0.316092 0.440101 -0.854949 -0.27454 0.0910953 -0.868935 -0.48647 
0.493532 -0.861136 -0.121949 0.577481 -0.813012 0.0743397 -0.244919 -0.857706 -0.452056 
-0.639999 -0.537056 -0.549521 -0.941869 -0.118 -0.314576 -0.968832 0.0565332 -0.241181 
0.863062 -0.504218 0.0297928 0.967398 0.0935049 0.235366 0.882065 0.114679 0.456958 
0.39077 0.613819 0.685948 0.458714 0.446666 0.768161 -0.795402 0.540112 0.274981 
0.367345 0.503325 0.782126 0.489308 0.708146 0.509025 -0.147536 0.832612 0.533845 
0.00632053 0.685869 0.727698 -0.310405 0.766083 0.562819 0.249972 -0.92363 -0.290553 
0.789837 -0.594357 0.151315 0.887039 -0.437293 0.148109 -0.420104 -0.687523 -0.592305 
-0.944929 0.326567 0.0215129 0.888488 0.0727887 0.45309 0.757246 0.236275 0.608895 
0.426848 0.480792 0.765924 -0.881116 0.407717 0.239587 0.369586 0.611712 0.699439 
0.461065 0.353986 0.813703 -0.643708 0.684498 0.342203 0.267908 0.564796 0.780533 
-0.475668 0.644614 0.598508 -0.32355 0.700307 0.636306 0.32384 -0.842511 -0.430468 
0.0838208 -0.973141 -0.21441 0.00281581 -0.92747 -0.373887 0.427283 -0.865186 -0.262456 
0.712036 -0.701239 0.0356245 -0.83837 -0.348788 -0.418907 0.760175 0.198433 0.618674 
0.564017 0.271249 0.779941 0.420498 0.431552 0.798088 0.423577 0.407004 0.809278 
-0.708142 0.551043 0.441459 0.155079 0.48 0.863453 -0.0740714 0.611759 0.787568 
-0.319361 0.536071 0.781432 0.557002 -0.828455 0.0583984 -0.358788 -0.817125 -0.451195 
0.66258 -0.720987 0.202892 0.874116 -0.469028 0.126227 0.274342 0.602157 0.749762 
-0.399983 0.648679 0.647479 -0.00115399 0.568558 0.822643 -0.347172 -0.837679 -0.421622 
-0.397175 -0.830537 -0.390462 -0.459523 -0.77939 -0.425899 0.81786 -0.487254 0.306087 
-0.984687 -0.065447 -0.161578 -0.975866 0.218366 0.00138057 0.905296 -0.407034 0.121503 
0.939332 -0.136709 0.314587 0.733895 -0.111004 0.670131 0.556129 0.56858 0.606167 
-0.785722 0.488501 0.379483 -0.186188 0.615784 0.765601 0.271053 -0.962396 -0.0179905 
-0.0865233 -0.956843 -0.277427 -0.252267 -0.957007 -0.143173 0.1649 -0.985894 -0.0286538 
0.668982 -0.677349 0.306041 -0.421914 -0.827354 -0.370775 -0.528037 -0.739058 -0.418295 
-0.871652 -0.416562 -0.258262 -0.997195 0.0607238 -0.0437526 0.83836 -0.533095 0.113852 
0.721068 0.143931 0.67775 0.7018 0.180715 0.689071 0.193187 0.706605 0.680726 
-0.445328 0.620271 0.645714 -0.130359 0.762615 0.633582 0.354924 -0.934214 0.0356807 
0.0914751 -0.921433 0.377616 -0.276991 -0.956002 -0.0966212 0.558968 -0.679476 0.475255 
-0.381938 -0.917599 0.110162 0.40768 -0.813287 0.415165 -0.333754 -0.926586 -0.173341 
-0.353547 -0.891733 -0.282519 -0.481171 -0.852832 -0.20286 -0.0358384 0.783567 0.620273 
-0.0969701 -0.822168 0.560925 -0.292951 -0.952576 -0.082334 0.419738 -0.796516 0.43518 
-0.345454 -0.936776 -0.0557861 -0.291775 -0.953472 -0.0758879 -0.385604 -0.903754 -0.185846 
0.535559 -0.622399 0.570786 -0.402454 -0.904351 -0.14206 -0.47839 -0.876938 -0.0460711 
-0.402971 -0.90471 -0.138256 -0.627349 -0.746218 -0.222692 -0.808847 -0.576204 -0.117286 
-0.979375 0.0581112 0.193512 0.304946 0.574463 0.759605 -0.467443 0.692522 0.549463 
-0.067693 0.662595 0.745912 -0.132803 -0.929401 0.344351 -0.179624 -0.958313 0.222197 
-0.0319871 -0.871183 0.489915 -0.097284 -0.873499 0.477006 -0.466427 -0.883987 -0.0318311 
-0.468405 -0.867039 0.169821 -0.501353 -0.865236 -0.0034362 -0.575159 -0.817946 -0.0124579 
-0.572482 -0.793319 0.207146 -0.774802 -0.562936 0.287723 0.830592 -0.448919 0.329529 
0.916224 -0.325805 0.233206 -0.601205 0.646042 0.470299 0.103275 0.649405 0.753397 
0.0819994 0.734327 0.673825 -0.21107 0.708478 0.673431 -0.0689796 -0.989605 -0.12619 
-0.404705 -0.906339 0.121502 -0.276637 -0.957329 0.0836309 -0.0876395 -0.931802 0.352228 
-0.150611 -0.926135 0.34582 -0.40914 -0.842908 0.349444 -0.396114 -0.657577 0.640848 
-0.0654876 -0.897653 0.43581 0.179342 -0.70895 0.682075 -0.0480482 -0.802942 0.594117 
-0.433195 -0.8157 0.383373 -0.455125 -0.854702 0.24969 -0.60127 -0.750438 0.27444 
-0.699176 -0.642224 0.314167 -0.622347 -0.686928 0.375252 -0.857984 -0.425866 0.287233 
-0.938905 -0.225773 0.259779 0.801033 -0.519429 0.297555 -0.912393 0.252923 0.321822 
0.837391 0.166252 0.520708 0.455583 0.610835 0.647552 -0.858857 0.477206 0.186119 
0.195197 0.577719 0.792552 0.345167 0.611096 0.712335 -0.40514 -0.715061 0.569692 