# vtk DataFile Version 4.2
vtk output
ASCII
DATASET POLYDATA
POINTS 950 float
248.699 60.0148 127.989 249.25 59.7126 128.169 247.201 60.6984 127.833 
248.679 60.3668 127.84 241.6 62.0146 128.248 241.184 62.0775 128.365 
243.305 61.5344 128.079 241.35 62.2781 128.217 241.214 62.6873 128.203 
243.844 62.8291 127.559 246.557 62.4434 127.447 251.428 58.6667 128.745 
252.263 58.9805 128.555 245.125 60.3388 128.523 252.362 59.684 128.337 
250.347 61.0914 127.892 252.513 60.4519 128.267 240.663 63.6814 128.373 
245.691 63.6263 127.528 247.301 66.1171 128.733 261.252 54.9146 131.298 
258.64 56.043 130.61 259.077 55.5021 130.951 260.407 55.6938 130.84 
258.199 58.3029 129.874 255.565 60.8251 129.158 254.872 62.821 129.507 
249.126 67.3303 130.465 261.69 54.0138 132.037 260.583 56.4953 130.629 
252.312 56.8564 130.479 246.625 58.25 130.514 261.096 57.6078 130.711 
232.607 64.1961 131.866 233.629 64.5575 131.366 233.092 64.8062 131.536 
238.17 66.9315 130.152 265.498 53.5115 133.171 264.961 54.0716 132.655 
264.194 55.4452 131.971 262.086 58.5322 131.323 233.225 62.8919 132.367 
257.846 63.214 131.725 259.078 62.8637 132.42 256.722 64.3429 132.27 
262.832 52.9976 133.209 266.809 54.1386 133.368 267.036 54.7546 133.372 
266.043 55.5409 132.784 264.258 57.7557 132.292 263.004 58.7481 131.944 
263.75 59.1467 132.731 229.183 63.8565 133.625 260.709 61.9501 133.025 
227.066 65.1315 133.73 231.673 65.6298 132.067 228.141 66.1089 133.125 
207 70.0087 132.017 207 70.0087 132.017 207 70.0088 132.017 
207 70.0088 132.017 207 70.0088 132.017 264.906 52.312 134.33 
268.132 53.7018 134.53 268.484 53.8361 134.708 268.579 53.9595 134.7 
268.717 54.3132 134.89 267.597 55.521 133.855 266.798 56.8247 133.613 
223.465 66.1362 134.377 224.544 66.318 133.99 225.762 66.1106 133.748 
220.416 67.1411 134.548 221.014 66.5165 134.835 256.391 64.905 133.291 
216.383 68.0167 135.116 217.098 67.8811 134.968 221.732 67.3755 134.132 
214.094 69.6863 134.604 219.072 68.1857 134.299 212.408 70.5981 134.55 
212.932 70.0467 134.783 229.016 68.5754 133.279 231.921 68.8646 132.956 
234.815 68.8281 132.343 207 70.0087 132.017 210.378 71.5602 134.35 
210.45 71.4438 134.504 235.266 69.543 132.816 209.839 71.7958 134.27 
209.988 71.7646 134.246 212.023 71.388 134.314 235.991 70.1361 133.268 
209.77 71.8374 134.206 209.733 71.8616 134.222 209.71 71.8736 134.196 
209.851 71.8729 134.205 209.752 71.8954 134.197 209.885 71.9981 134.236 
260.523 52.5524 134.36 269.135 54.5231 135.412 268.559 56.2655 135.208 
264.624 59.796 134.537 228.073 63.3695 134.754 222.869 65.2501 135.406 
217.919 67.1286 135.41 221.451 65.9488 135.217 216.432 67.7504 135.447 
224.321 67.7594 133.674 221.257 68.4219 133.947 225.488 68.4915 133.599 
212.819 69.8849 135.114 210.262 71.5566 134.507 210.859 71.2511 134.72 
215.815 70.6661 134.162 219.713 70.6981 134.086 221.861 69.9177 133.967 
245.462 69.662 134.294 228.813 71.2757 134.564 216.155 71.882 134.25 
231.607 71.5675 134.958 209.857 72.0422 134.307 209.894 72.0967 134.283 
211.276 73.2799 134.568 230.87 72.0854 135.417 209.956 72.1772 134.342 
210.186 72.3884 134.462 211.111 73.7562 134.831 214.65 73.5589 134.588 
217.143 72.8865 134.562 211.102 74.1904 135.071 211.234 74.6647 135.133 
211.559 74.3654 134.867 213.564 74.132 134.724 268.361 53.0335 135.611 
269.154 53.972 136.141 269.427 55.546 136.455 222.12 65.173 135.93 
215.088 68.3709 135.491 213.07 69.6432 135.459 213.992 68.952 135.569 
228.757 69.8285 133.81 219.066 69.968 133.981 210.925 71.7572 135.237 
224.908 71.3693 134.552 230.401 71.2677 134.614 210.502 72.1755 134.965 
210.883 73.1259 134.644 235.507 71.5556 135.504 210.54 72.8059 134.762 
210.929 73.5914 135.047 229.127 72.3884 135.689 211.085 74.2168 135.288 
211.142 74.5779 135.261 216.693 74.2191 135.108 211.366 75.1189 135.23 
211.214 75.0216 135.337 211.243 75.3548 135.345 211.212 75.4427 135.396 
211.24 75.5016 135.397 211.293 75.5777 135.432 211.477 75.6296 135.461 
211.853 75.8003 135.653 211.352 75.6149 135.44 261.988 51.3412 136.503 
265.153 51.2777 136.315 267.885 52.2891 136.623 269.414 54.3674 136.518 
269.521 54.7261 136.511 269.567 54.9332 136.744 269.52 55.289 136.753 
269.374 55.779 136.866 267.753 57.6743 136.041 258.632 63.7748 135.634 
217.059 67.1125 136.25 217.247 66.9185 136.819 214.568 68.5334 135.943 
211.404 71.3304 135.514 222.713 73.1174 135.451 211.229 74.7216 135.515 
223.409 74.0392 136.473 223.755 74.1561 136.764 228.874 72.9458 136.668 
230.297 72.7902 136.681 218.399 75.1415 136.267 211.278 75.4913 135.465 
211.483 75.5459 135.638 211.731 75.7206 135.895 218.158 75.4813 136.608 
211.428 75.6331 135.509 212.004 76.1153 136.022 212.172 76.3637 136.172 
213.243 76.5547 136.246 214.316 76.5682 136.52 214.659 76.5666 136.494 
215.452 76.3564 136.551 212.315 76.4669 136.194 212.596 76.5872 136.328 
214.845 76.5321 136.475 215.08 76.4991 136.533 211 81.0087 136.017 
211 81.0087 136.017 211 81.0088 136.017 211 81.0088 136.017 
211 81.0088 136.017 266.742 51.4347 137.295 263.764 50.8537 137.527 
269.547 54.6173 137.332 269.024 56.489 137.081 222.121 64.6177 137.187 
216.835 67.185 137.358 214.404 68.6715 136.273 212.75 70.6958 136.516 
211.793 74.0878 136.386 221.733 74.8638 137.127 224.448 74.3188 137.519 
218.278 75.737 137.282 222.5 74.9945 137.744 212.326 76.4745 136.304 
214.152 76.6197 136.743 212.498 76.5906 136.436 212.556 76.6651 136.426 
212.643 76.6684 136.462 212.928 76.6234 136.544 213.791 76.626 136.767 
211 81.0087 136.017 212.57 76.6698 136.467 264.091 50.5839 138.838 
269.393 54.2977 138.13 232.027 60.3594 138.359 219.082 65.912 137.601 
214.574 68.6525 136.778 213.117 74.1215 137.443 224.865 74.4112 138.508 
222.502 75.0354 138.021 216.631 76.162 137.33 221.531 75.358 138.322 
212.565 76.4888 136.546 215.006 76.3443 137.316 212.662 76.6142 136.53 
265.386 50.7843 139.043 267.096 51.5582 138.939 269.071 53.6606 138.59 
217.409 67.0298 138.296 215.774 68.5358 138.164 223.077 74.8569 139.445 
218.453 75.6728 138.381 216.136 76.121 137.687 215.475 76.1678 137.61 
264.405 50.4054 140.344 265.82 50.8869 139.524 269.049 53.9082 139.176 
268.533 56.5339 139.698 266.653 58.2252 140.17 264.001 59.907 140.655 
216.381 68.9528 139.027 224.235 74.5116 140.05 218.394 75.262 139.186 
219.807 75.2214 139.372 215.932 75.9136 137.966 223.724 63.3271 139.979 
221.314 64.7569 139.742 217.417 67.4424 138.989 217.564 74.5115 139.622 
216.849 75.3428 138.736 218.52 74.8784 139.717 264.814 50.2659 142.492 
268.2 53.1458 141.044 268.412 55.3048 141.598 227.972 61.2492 141.567 
223.395 63.592 141.276 221.3 65.0222 140.662 220.592 65.9998 141.071 
221.383 66.108 142.138 219.095 70.0932 141.427 219.179 71.6628 141.392 
219.224 73.3404 140.942 224.805 73.9162 141.825 220.14 73.7362 141.196 
220.177 74.4766 140.528 263.553 49.7171 143.91 266.463 51.2807 142.6 
268.258 53.868 141.788 227.263 61.5541 142.415 225.761 62.4302 142.846 
222.555 64.3331 141.696 220.906 72.415 142.226 220.743 73.8457 141.535 
220.785 73.9271 141.473 267.948 55.1012 143.242 267.821 55.4884 143.173 
267.917 55.2251 143.254 224.633 63.2254 142.921 222.653 64.9263 142.619 
222.739 68.0631 143.996 267.814 55.1156 143.53 227.918 61.4401 144.407 
225.937 62.6417 144.262 226.021 62.6764 144.485 226.149 62.8078 144.79 
260.063 48.8581 147.593 265.562 56.8656 146.458 231.988 59.321 147.153 
229.658 60.9168 146.494 231.081 70.9082 146.706 266.049 52.1673 147.414 
228.477 64.0232 147.895 245.129 67.5551 147.711 262.346 48.7706 149.042 
265.491 52.3447 149.22 231.354 60.289 148.298 230.552 61.2582 148.34 
265.971 53.4843 148.867 265.87 54.7256 149.026 264.434 56.9079 148.946 
232.82 59.4097 149.329 234.167 58.3616 149.414 232.035 60.5958 149.573 
230.054 63.52 149.057 261.483 48.5769 150.282 265.215 53.2145 150.493 
259.954 48.3942 152.676 265.271 54.7541 150.344 265.089 55.0031 150.519 
233.681 63.0652 151.851 233.87 64.6286 151.957 264.662 53.6581 151.669 
264.448 54.4528 151.879 235.51 60.3135 152.976 244.779 66.0879 152.98 
235.195 66.0139 152.481 241.394 67.3815 152.375 259.792 48.472 153.857 
260.842 49.0682 154.014 254.306 48.6004 153.872 261.942 49.9399 153.765 
262.62 50.9104 153.858 236.042 58.3381 152.547 261.934 57.025 153.502 
235.975 61.3713 153.583 235.975 64.016 153.538 258.651 48.272 154.897 
256.732 48.0999 154.832 262.792 52.0541 154.557 263.06 53.1976 154.493 
260.171 58.0396 154.608 236.482 66.5534 152.978 240.791 66.5954 153.907 
236.572 66.7671 152.825 251.382 49.0741 155.986 262.265 54.8975 155.538 
257.629 59.2855 156.083 237.706 64.6755 154.475 245.656 64.6598 155.442 
241.62 66.0959 154.535 238.892 65.9775 154.266 240.435 66.3457 154.223 
256.367 48.0779 156.986 254.12 48.3037 156.052 255.146 48.106 156.711 
258.948 48.8596 157.183 261.919 53.3282 156.602 240.92 56.0673 156.092 
260.324 56.9394 156.755 249.299 62.866 157.029 258.528 48.9307 158.124 
248.298 50.1932 157.43 245.894 51.7811 157.185 261.498 53.3672 157.398 
242.329 56.9145 157.781 242.632 57.8436 158.157 240.608 65.006 155.448 
258.044 48.809 158.479 258.36 48.7496 158.077 258.292 48.7579 158.244 
258.351 48.792 158.223 248.248 50.2392 158.442 259.805 50.5401 158.139 
244.275 53.651 157.843 261.368 54.2108 157.656 260.946 54.7077 158.166 
259.922 56.1417 158.631 247.166 62.9902 157.758 245.283 63.1334 157.684 
241.954 64.9119 155.863 256.104 48.2485 158.972 258.377 48.7562 158.16 
244.716 59.5538 159.41 245.265 61.2903 159.096 246.4 62.4499 158.509 
256.034 48.4162 159.605 256.405 48.6147 159.868 256.398 48.8688 160.293 
258.674 51.9341 160.685 260.038 54.5404 159.569 259.345 55.5555 159.975 
257.197 57.5904 160.43 246.565 59.9857 160.25 250.282 61.1686 159.535 
245.836 62.2941 158.567 255.651 48.7385 160.648 255.609 49.0122 161.051 
248.945 50.6575 160.617 256.797 50.0355 161.153 247.264 60.3962 160.327 
252.356 49.1057 161.26 254.062 48.6586 161.129 249.86 51.4355 161.772 
[...]
POINT_DATA 950
SCALARS scalars float
LOOKUP_TABLE default
1 1 1 1 1 1 1 1 1 
1 1 1 1 1 1 1 1 1 
1 1 1 1 1 1 1 1 1 
1 1 1 1 1 1 1 1 1 
1 1 1 1 1 1 1 1 1 
1 1 1 1 1 1 1 1 1 
1 1 1 1 1 1 1 1 1 
1 1 1 1 1 1 1 1 1 
1 1 1 1 1 1 1 1 1 
1 1 1 1 1 1 1 1 1 
1 1 1 1 1 1 1 1 1 
1 1 1 1 1 1 1 1 1 
1 1 1 1 1 1 1 1 1 
1 1 1 1 1 1 1 1 1 
1 1 1 1 1 1 1 1 1 
1 1 1 1 1 1 1 1 1 
1 1 1 1 1 1 1 1 1 
1 1 1 1 1 1 1 1 1 
1 1 1 1 1 1 1 1 1 
1 1 1 1 1 1 1 1 1 
1 1 1 1 1 1 1 1 1 
1 1 1 1 1 1 1 1 1 
1 1 1 1 1 1 1 1 1 
1 1 1 1 1 1 1 1 1 
1 1 1 1 1 1 1 1 1 
1 1 1 1 1 1 1 1 1 
1 1 1 1 1 1 1 1 1 
1 1 1 1 1 1 1 1 1 
1 1 1 1 1 1 1 1 1 
1 1 1 1 1 1 1 1 1 
1 1 1 1 1 1 1 1 1 
1 1 1 1 1 1 1 1 1 
1 1 1 1 1 1 1 1 1 
1 1 1 1 1 1 1 1 1 
1 1 1 1 1 1 1 1 1 
1 1 1 1 1 1 1 1 1 
1 1 1 1 1 1 1 1 1 
1 1 1 1 1 1 1 1 1 
1 1 1 1 1 1 1 1 1 
1 1 1 1 1 1 1 1 1 
1 1 1 1 1 1 1 1 1 
1 1 1 1 1 1 1 1 1 
1 1 1 1 1 1 1 1 1 
1 1 1 1 1 1 1 1 1 
1 1 1 1 1 1 1 1 1 
1 1 1 1 1 1 1 1 1 
1 1 1 1 1 1 1 1 1 
1 1 1 1 1 1 1 1 1 
1 1 1 1 1 1 1 1 1 
1 1 1 1 1 1 1 1 1 
1 1 1 1 1 1 1 1 1 
1 1 1 1 1 1 1 1 1 
1 1 1 1 1 1 1 1 1 
1 1 1 1 1 1 1 1 1 
1 1 1 1 1 1 1 1 1 
1 1 1 1 1 1 1 1 1 
1 1 1 1 1 1 1 1 1 
1 1 1 1 1 1 1 1 1 
1 1 1 1 1 1 1 1 1 
1 1 1 1 1 1 1 1 1 
1 1 1 1 1 1 1 1 1 
1 1 1 1 1 1 1 1 1 
1 1 1 1 1 1 1 1 1 
1 1 1 1 1 1 1 1 1 
1 1 1 1 1 1 1 1 1 
1 1 1 1 1 1 1 1 1 
1 1 1 1 1 1 1 1 1 
1 1 1 1 1 1 1 1 1 
1 1 1 1 1 1 1 1 1 
1 1 1 1 1 1 1 1 1 
1 1 1 1 1 1 1 1 1 
1 1 1 1 1 1 1 1 1 
1 1 1 1 1 1 1 1 1 
1 1 1 1 1 1 1 1 1 
1 1 1 1 1 1 1 1 1 
1 1 1 1 1 1 1 1 1 
1 1 1 1 1 1 1 1 1 
1 1 1 1 1 1 1 1 1 
1 1 1 1 1 1 1 1 1 
1 1 1 1 1 1 1 1 1 
1 1 1 1 1 1 1 1 1 
1 1 1 1 1 1 1 1 1 
1 1 1 1 1 1 1 1 1 
1 1 1 1 1 1 1 1 1 
1 1 1 1 1 1 1 1 1 
1 1 1 1 1 1 1 1 1 
1 1 1 1 1 1 1 1 1 
1 1 1 1 1 1 1 1 1 
1 1 1 1 1 1 1 1 1 
1 1 1 1 1 1 1 1 1 
1 1 1 1 1 1 1 1 1 
1 1 1 1 1 1 1 1 1 
1 1 1 1 1 1 1 1 1 
1 1 1 1 1 1 1 1 1 
1 1 1 1 1 1 1 1 1 
1 1 1 1 1 1 1 1 1 
1 1 1 1 1 1 1 1 1 
1 1 1 1 1 1 1 1 1 
1 1 1 1 1 1 1 1 1 
1 1 1 1 1 1 1 1 1 
1 1 1 1 1 1 1 1 1 
1 1 1 1 1 1 1 1 1 
1 1 1 1 1 1 1 1 1 
1 1 1 1 1 1 1 1 1 
1 1 1 1 1 1 1 1 1 
1 1 1 1 1 
NORMALS Normals float
-0.0293707 -0.525269 -0.850429 -0.0662611 -0.520245 -0.851442 -0.149486 -0.486675 -0.860698 
0.0411535 -0.248404 -0.967782 -0.159926 -0.354991 -0.921089 -0.425573 -0.449266 -0.785524 
-0.264886 -0.650219 -0.712075 -0.240501 -0.204561 -0.948849 -0.244537 -0.206526 -0.94739 
-0.151397 0.0891147 -0.984448 -0.0594504 -0.234087 -0.970396 -0.0709788 -0.580967 -0.810827 
0.206467 -0.445595 -0.871101 -0.20603 -0.57701 -0.790323 0.275731 -0.293984 -0.915175 
0.145924 -0.0470379 -0.988177 0.349764 -0.0564355 -0.935137 -0.185834 0.246251 -0.951223 
0.0402615 0.307363 -0.95074 0.179894 0.589208 -0.787701 0.146676 -0.46698 -0.872018 
-0.0378496 -0.567888 -0.822235 -0.0392284 -0.580529 -0.813294 0.00758133 -0.503088 -0.864202 
0.29858 0.168668 -0.939362 0.32995 0.0721912 -0.941234 0.387423 0.396695 -0.832187 
0.210832 0.826938 -0.521271 -0.0318892 -0.699478 -0.713943 0.273476 -0.19778 -0.941326 
-0.131535 -0.816676 -0.561906 -0.245694 -0.784287 -0.569673 0.402486 -0.00955141 -0.915376 
-0.34053 -0.304269 -0.88964 -0.357274 -0.0272053 -0.933603 -0.284614 -0.135752 -0.948982 
-0.121061 0.411395 -0.903382 0.380114 -0.505599 -0.774521 0.272869 -0.493087 -0.82608 
0.416687 -0.0375666 -0.908273 0.386219 0.391603 -0.835154 -0.34222 -0.640118 -0.687848 
0.527799 0.66495 -0.52846 0.554126 0.679483 -0.480882 0.436213 0.762576 -0.477698 
0.0810192 -0.755395 -0.650242 0.53971 -0.315976 -0.780303 0.572975 -0.0606234 -0.817328 
0.46692 0.117834 -0.876414 0.551639 0.346412 -0.758745 0.409662 0.421789 -0.80887 
0.490171 0.57922 -0.651335 -0.339062 -0.541955 -0.768974 0.532637 0.628362 -0.566974 
-0.321276 -0.384526 -0.865403 -0.318216 -0.021642 -0.947771 -0.269441 0.042672 -0.962071 
0 -0.970143 -0.242536 0 -1 0 -0.707107 -0.707107 0 
0.707107 -0.707107 0 0 1 0 0.167171 -0.806002 -0.567816 
0.435131 -0.609941 -0.662294 0.766685 -0.578373 -0.278707 0.753502 -0.340823 -0.562205 
0.881564 -0.308917 -0.356953 0.69028 0.0340279 -0.722742 0.562924 0.334193 -0.755931 
-0.257848 -0.613411 -0.746486 -0.198796 -0.466644 -0.861814 -0.236291 -0.377524 -0.895345 
-0.239169 -0.475285 -0.846701 -0.324616 -0.674198 -0.663386 0.494425 0.840863 -0.220213 
-0.249598 -0.678408 -0.690987 -0.291395 -0.666175 -0.686513 -0.139024 -0.362175 -0.921684 
-0.261792 -0.551149 -0.792275 -0.146595 -0.349124 -0.925539 -0.267525 -0.68506 -0.677587 
-0.236074 -0.589684 -0.772361 -0.182041 0.323812 -0.928443 -0.101751 0.458567 -0.882816 
-0.208461 0.571686 -0.793549 0 -0.970143 0.242536 -0.111419 -0.413656 -0.90359 
-0.426683 -0.890133 -0.160017 -0.263314 0.692301 -0.671852 -0.521637 -0.852628 0.030333 
0.0822345 -0.347548 -0.934049 -0.0333305 -0.11441 -0.992874 0.0198406 0.692649 -0.721002 
-0.233325 -0.678457 -0.696603 -0.733124 -0.419148 0.535578 -0.757725 0.235416 -0.608632 
0.167237 -0.00679988 -0.985893 -0.0151485 0.173784 -0.984667 -0.182282 0.437172 -0.880712 
-0.233876 -0.817272 -0.526658 0.868102 -0.0556205 -0.493259 0.783743 0.413305 -0.463601 
0.61761 0.706523 -0.345518 -0.349442 -0.718492 -0.601381 -0.291573 -0.738696 -0.607711 
-0.299264 -0.787678 -0.53852 -0.376169 -0.711556 -0.593451 -0.37946 -0.842888 -0.38151 
-0.119748 -0.0182054 -0.992637 -0.0792185 -0.162919 -0.983454 -0.116485 0.13246 -0.98432 
-0.546921 -0.780533 -0.302729 -0.60987 -0.614598 0.500327 -0.594179 -0.764613 0.249638 
-0.0181729 -0.0380109 -0.999112 0.0933398 0.145323 -0.984972 -0.00766701 0.137756 -0.990436 
0.30616 0.949456 -0.0692759 -0.068542 0.62367 -0.778677 0.0718043 0.19313 -0.978542 
0.141835 0.747536 -0.648901 -0.838308 0.497109 0.22388 -0.646413 0.628398 -0.432742 
-0.0570549 0.2764 -0.959348 0.142988 0.813841 -0.563221 -0.744689 0.664598 0.0612309 
-0.700503 0.712142 -0.0463695 -0.478631 0.364538 -0.798765 0.0514772 0.347606 -0.936227 
0.112371 0.303833 -0.946075 -0.822343 0.292286 -0.48818 -0.68192 0.289894 -0.671526 
-0.302782 0.308445 -0.901768 0.00408292 0.318613 -0.947876 0.729028 -0.635998 -0.253033 
0.848137 -0.485663 -0.211646 0.9259 0.265655 -0.268583 -0.351791 -0.76427 -0.540495 
-0.382205 -0.868955 -0.314382 -0.690673 -0.69079 0.213961 -0.636781 -0.770658 0.0244199 
-0.113468 0.361589 -0.925407 0.0500591 0.00498709 -0.998734 -0.565029 -0.212679 0.797189 
0.0344418 0.494618 -0.868428 0.0382436 0.535253 -0.843826 -0.674112 0.0424553 0.737408 
-0.596171 0.588616 -0.545995 -0.00586982 0.867565 -0.497289 -0.825289 0.561755 0.0577017 
-0.949163 0.314778 0.00220262 -0.0861011 0.821954 -0.563009 -0.964128 0.125196 0.234057 
-0.974731 0.198894 -0.101691 0.119787 0.521035 -0.845088 -0.157361 0.387497 -0.908341 
-0.90116 0.148937 -0.407097 -0.416409 0.246159 -0.87522 -0.984037 0.10372 0.144615 
-0.805344 0.517864 -0.288511 0.0560535 0.271024 -0.960939 0.0413992 0.617421 -0.785543 
-0.359145 0.817771 -0.449739 -0.234681 0.884579 -0.403044 -0.175164 -0.944508 -0.277889 
0.118175 -0.92285 -0.366581 0.647357 -0.757765 -0.081983 0.933365 -0.349727 -0.0807487 
0.954872 -0.0495887 -0.292847 0.996191 -0.0641613 -0.0590446 0.982295 0.18077 -0.0491875 
0.909763 0.414033 -0.0301272 0.700756 0.68989 -0.181642 0.477384 0.875927 0.0696883 
-0.383519 -0.853786 -0.352082 -0.43773 -0.893434 -0.100834 -0.360025 -0.929509 0.0799705 
-0.597158 -0.179701 0.781735 0.168383 0.555201 -0.814493 -0.793967 0.107422 0.598395 
0.240803 0.740831 -0.627044 0.250313 0.755227 -0.605785 0.162488 0.950094 -0.266306 
0.185563 0.950297 -0.250005 0.249693 0.707084 -0.661578 -0.70918 0.257514 0.656315 
-0.692653 0.349847 0.630745 -0.736013 0.443042 0.511858 0.278172 0.819063 -0.501753 
-0.487837 0.797164 0.355731 -0.78821 0.615097 0.0195107 -0.805623 0.516876 0.289501 
0.0894086 0.630695 -0.770863 0.0719455 0.997362 0.0096326 0.0893627 0.995804 -0.0197064 
0.218372 0.685429 -0.694623 -0.362113 0.819846 -0.44354 -0.119265 0.897796 -0.423955 
0.190825 0.610044 -0.769047 0.227521 0.962507 -0.147696 0 -0.970143 -0.242536 
0 -1 0 -0.707107 -0.707107 0 0.707107 -0.707107 0 
0 1 0 0.344499 -0.896684 -0.277989 0.119222 -0.967926 -0.221144 
0.977349 -0.181007 0.109665 0.795023 0.605675 0.0331053 -0.412501 -0.863721 -0.289532 
-0.591413 -0.800258 0.0990801 -0.452745 -0.873612 0.178395 -0.686318 -0.510385 0.518145 
-0.708256 -0.015655 0.705782 0.160423 0.875184 -0.456417 0.205054 0.951492 -0.229381 
0.264085 0.943106 -0.202017 0.262359 0.929449 -0.259409 -0.64582 0.72497 0.239446 
0.121021 0.991032 0.0566588 -0.736111 0.597569 0.317886 -0.36824 0.866719 -0.336448 
0.118203 0.992989 0.00102181 -0.0322264 0.909964 0.413434 -0.0325654 0.976699 0.21213 
0 -0.970143 0.242536 -0.377046 0.792838 0.478794 0.0197333 -0.993839 -0.109066 
0.936661 -0.340866 0.0804753 -0.321886 -0.897141 -0.302536 -0.490818 -0.857727 0.152975 
-0.671304 -0.643676 0.367467 -0.552926 0.186632 0.81206 0.205362 0.976761 -0.0613578 
0.263621 0.951093 -0.161017 0.191127 0.963129 0.189352 0.182387 0.982327 -0.0420625 
-0.486333 0.330079 0.809029 -0.0466886 0.836673 0.545709 -0.231049 0.5077 0.829974 
0.275864 -0.942232 -0.189995 0.513901 -0.857408 0.0275359 0.769991 -0.62059 0.148266 
-0.520878 -0.807522 0.276757 -0.593919 -0.673643 0.439847 0.25919 0.958081 0.122074 
0.203183 0.932805 0.297643 0.185647 0.822992 0.53686 0.0214356 0.907908 0.41862 
0.202283 -0.977195 0.0645795 0.369954 -0.920527 0.125553 0.848657 -0.453239 0.272682 
0.808029 0.530639 0.255952 0.700253 0.677716 0.22438 0.521495 0.842608 0.134365 
-0.642223 -0.251578 0.724057 0.259894 0.963395 0.06576 -0.0291148 0.815137 0.578536 
0.05047 0.932896 0.356593 0.0317824 0.723761 0.689319 -0.484519 -0.874778 -0.00226968 
-0.581223 -0.8069 0.105315 -0.596948 -0.597822 0.535034 -0.464205 0.433204 0.772559 
-0.303496 0.574609 0.760075 -0.132865 0.727707 0.672896 0.0145817 -0.972602 -0.232018 
0.88601 -0.425107 0.185122 0.946178 0.193212 0.259646 -0.399084 -0.916768 -0.0164118 
-0.543839 -0.804055 0.240279 -0.645743 -0.690852 0.325177 -0.701937 -0.51251 0.494588 
-0.694392 -0.39675 0.600341 -0.588546 -0.127571 0.798335 -0.573267 0.0870954 0.814726 
-0.421459 0.432258 0.797199 0.0699527 0.855378 0.513259 -0.387605 0.603464 0.696846 
-0.206473 0.757867 0.618876 0.116706 -0.959907 -0.25487 0.671249 -0.73531 0.0935063 
0.926028 -0.264651 0.269133 -0.480598 -0.876842 0.0131945 -0.408845 -0.911936 0.0349127 
-0.596405 -0.753547 0.276528 -0.382664 0.380112 0.842071 -0.353261 0.528644 0.771844 
-0.166273 0.732885 0.659722 0.966366 0.0952783 0.238869 0.863243 0.444721 0.23882 
0.925989 0.309256 0.216576 -0.654766 -0.668435 0.352812 -0.592821 -0.561847 0.576967 
-0.623485 -0.1589 0.765517 0.917463 0.0654536 0.392399 -0.456527 -0.865202 0.207387 
-0.664857 -0.664817 0.340563 -0.555875 -0.771577 0.30931 -0.723986 -0.475588 0.499661 
-0.125891 -0.958888 -0.254332 0.622479 0.721181 0.304002 -0.558943 -0.816313 0.145656 
-0.541881 -0.798186 0.263181 0.116833 0.935699 0.332894 0.906985 -0.348254 0.236848 
-0.671133 -0.226205 0.705982 0.451933 0.8707 0.194006 0.506063 -0.856449 0.101962 
0.823645 -0.372529 0.427588 -0.675313 -0.567417 0.471159 -0.630455 -0.549019 0.54873 
0.923022 -0.0885634 0.374417 0.904264 0.23484 0.35659 0.671938 0.665905 0.324144 
-0.596892 -0.640779 0.482828 -0.578577 -0.755732 0.306786 -0.668088 -0.347612 0.657894 
-0.596603 -0.2855 0.750037 0.419578 -0.902237 0.0996179 0.866617 -0.118281 0.484751 
0.263194 -0.963785 0.0429808 0.856464 0.27424 0.437334 0.829372 0.277345 0.484996 
-0.636171 -0.0055274 0.771529 -0.585996 -0.00102736 0.810313 0.867269 -0.114992 0.484378 
0.816934 0.294778 0.495706 -0.676849 -0.249971 0.69238 0.243293 0.879146 0.40977 
-0.490364 0.277875 0.826032 0.0948556 0.871218 0.481644 0.227038 -0.971003 0.0748758 
0.546889 -0.781261 0.300905 -0.13035 -0.966366 -0.221688 0.651147 -0.698572 0.296657 
0.771409 -0.491391 0.404305 -0.654867 -0.453417 0.604618 0.593274 0.795564 0.122896 
-0.59614 -0.0973246 0.79696 -0.589983 0.117707 0.79879 0.214086 -0.976503 -0.0246893 
0.0472186 -0.992671 -0.111244 0.866499 -0.292603 0.404429 0.897179 -0.0943607 0.43147 
0.505716 0.840072 0.196294 -0.399495 0.46575 0.789608 -0.0377114 0.811285 0.583433 
-0.25011 0.652354 0.715458 -0.353415 -0.926022 -0.132594 0.793616 0.390897 0.466233 
0.477903 0.866512 0.144102 -0.382364 0.284355 0.87917 0.223412 0.869416 0.440684 
0.215932 0.778805 0.588927 -0.224661 0.682748 0.695257 -0.133416 0.812522 0.567458 
0.192068 -0.981254 0.0158279 -0.144374 -0.982797 -0.115181 -0.1664 -0.985237 0.0402361 
0.533301 -0.80029 0.274092 0.907081 0.16377 0.387792 -0.685929 -0.375479 0.623311 
0.561241 0.685707 0.463481 0.329408 0.842674 0.425901 0.657483 -0.505212 0.558997 
-0.417711 -0.905207 -0.0782174 -0.608214 -0.777416 0.16031 0.826051 -0.11229 0.552295 
-0.614167 -0.203309 0.762538 -0.56216 -0.135676 0.815823 -0.156634 0.543421 0.824717 
0.459264 -0.677933 0.574006 0.184171 -0.972915 0.139706 0.260156 -0.892615 0.368182 
0.671549 -0.45461 0.585108 -0.525796 -0.823153 0.214378 0.710404 -0.486449 0.508619 
-0.635347 -0.494678 0.592982 0.896649 0.315583 0.310528 0.849882 0.395324 0.348453 
0.683044 0.64331 0.345837 0.0513005 0.861351 0.505413 0.00290701 0.813438 0.581644 
0.0303511 0.590822 0.806231 0.125315 -0.974097 0.188234 0.48806 -0.807125 0.332184 
-0.469457 0.188467 0.862607 -0.260424 0.480731 0.837303 -0.022752 0.685634 0.72759 
0.0854029 -0.944373 0.317594 0.524462 -0.727689 0.442051 0.435556 -0.751991 0.494774 
0.750562 -0.309314 0.583936 0.813337 0.125116 0.56818 0.629396 0.57639 0.521186 
0.554903 0.677233 0.483154 -0.382326 0.18847 0.904603 0.409996 0.810283 0.418742 
-0.13795 0.692642 0.707966 0.337906 -0.794916 0.503913 0.344112 -0.737989 0.580481 
-0.561414 -0.599027 0.570948 0.507058 -0.490655 0.708626 -0.283304 0.451423 0.846142 
-0.323032 -0.871007 0.370131 -0.0266894 -0.940596 0.338477 -0.383115 -0.386827 0.838802 
-0.502262 -0.217486 0.836919 0.71748 -0.144451 0.681437 0.769558 0.228539 0.596281 
-0.326599 0.227626 0.917343 -0.0584324 0.605841 0.793437 -0.182617 -0.800308 0.571103 
-0.243796 -0.741576 0.625003 -0.334239 -0.517556 0.787668 -0.335298 -0.638375 0.692858 
0.0168936 -0.869712 0.49327 0.244809 -0.597246 0.763784 0.187754 -0.466799 0.864203 
0.0893894 -0.586896 0.804713 -0.0885136 -0.297579 0.950585 0.44468 -0.373944 0.813895 
0.239789 -0.25906 0.935622 -0.108242 -0.192525 0.975304 0.485509 -0.265238 0.833025 
-0.326358 0.0371958 0.944514 0.321557 0.622509 0.713501 0.358245 0.686864 0.63236 
0.35763 0.765163 0.535376 0.468997 0.676341 0.567983 -0.243486 0.34505 0.906452 
0.247286 -0.716367 0.652432 -0.128485 -0.560547 0.818094 0.240754 -0.409619 0.879915 
-0.206349 -0.0783094 0.97534 0.485476 -0.277179 0.829147 0.53512 -0.234676 0.811525 
-0.0996352 -0.0419543 0.994139 -0.0651776 0.0122644 0.997798 0.016484 0.212679 0.976983 
-0.101445 0.198223 0.974893 -0.375895 0.227499 0.898302 0.139504 -0.169638 0.975583 
0.33772 0.227821 0.91326 0.587266 0.449472 0.673122 0.308234 0.666804 0.678501 
-0.41152 0.0537936 0.909812 -0.552375 0.0647913 0.831074 0.354979 -0.00696913 0.934848 
0.562966 0.583501 0.585317 0.106762 0.814538 0.570202 -0.00941306 0.784451 0.620119 
0.314217 -0.249334 0.916024 -0.0645667 -0.122395 0.990379 0.183022 -0.184172 0.965704 
0.618349 0.0450879 0.784609 0.201836 0.178182 0.963075 0.542029 0.457073 0.705187 
0.504483 0.0620657 0.861188 -0.296551 -0.105451 0.949178 0.417198 0.802165 0.427174 
0.00830725 0.428436 0.903534 0.203909 0.565587 0.799082 0.46578 0.222837 0.856383 
-0.541708 -0.146732 0.827661 0.58131 0.775838 0.245263 -0.369663 0.686159 0.626527 
-0.544035 0.661907 0.515659 0.431051 0.112904 0.895236 0.301655 0.391766 0.869209 
0.0586569 0.476635 0.877142 -0.105186 0.709455 0.696856 0.432429 0.174074 -0.884705 
0.152326 -0.242461 -0.958128 0.381816 -0.0992687 -0.918892 0.358471 -0.285142 -0.888928 
0.734873 -0.0744097 -0.67411 0.539282 0.237165 -0.808039 0.52153 0.0236626 -0.852905 
-0.0525353 0.0854324 -0.994958 0.220617 0.154306 -0.963077 0.616093 0.183633 -0.765969 
-0.135931 0.236167 -0.962158 0.124198 0.384494 -0.914735 0.393419 0.465176 -0.79299 
-0.414141 -0.691227 -0.592193 -0.0919624 -0.759356 -0.644144 0.0150996 -0.832669 -0.553565 
-0.0418156 -0.740353 -0.670917 -0.168876 -0.42968 -0.887049 -0.277242 -0.163673 -0.946757 
0.686417 0.00122425 -0.727207 -0.0596314 0.442528 -0.89477 0.201661 0.545153 -0.81372 
-0.343226 -0.859497 -0.378762 -0.00531072 -0.948317 -0.317279 0.208565 -0.836505 -0.506715 
-0.386454 -0.66249 -0.641685 0.141313 -0.565974 -0.812221 0.322704 -0.786647 -0.526354 
-0.521758 -0.579156 -0.626376 0.474415 -0.514511 -0.714288 0.62049 -0.355999 -0.698754 
0.63644 0.425765 -0.643171 -0.171905 0.362566 -0.915966 0.057005 0.577489 -0.814406 
0.0249259 0.790991 -0.61132 0.0862661 0.649102 -0.755794 0.393687 -0.80586 -0.442267 
-0.505835 -0.0700489 -0.859781 0.506636 0.798227 -0.325812 0.192121 0.721944 -0.664746 
-0.413773 -0.864483 -0.285413 0.206716 -0.923418 -0.32337 -0.0250373 -0.990257 -0.136985 
-0.620142 -0.706176 -0.34167 -0.614697 -0.665406 -0.423537 -0.632471 -0.390826 -0.668757 
0.760683 -0.0891906 -0.642966 0.71623 0.391011 -0.578036 -0.349216 0.0491926 -0.93575 
-0.0534036 -0.991966 -0.11468 -0.507549 -0.861446 -0.0174855 0.491498 -0.660587 -0.567499 
-0.664967 -0.548765 -0.506632 0.162092 0.813576 -0.558408 -0.33003 -0.93978 0.0888496 
0.643018 -0.573343 -0.507745 0.774722 -0.290333 -0.561705 0.860061 0.000829597 -0.510191 
-0.51594 -0.294657 -0.804353 0.82387 0.297709 -0.482294 -0.484147 -0.267973 -0.832942 
0.668808 0.607448 -0.428606 -0.542785 0.115931 -0.831832 0.383615 -0.906986 -0.17383 
0.0190263 -0.99504 -0.097641 -0.591778 -0.798932 -0.107263 0.832066 -0.289679 -0.473025 
-0.665001 -0.444167 -0.600408 -0.555395 -0.577631 -0.598229 0.894532 0.00298987 -0.446994 
-0.653615 -0.290593 -0.698815 -0.430664 0.142185 -0.891242 0.112956 0.875713 -0.469433 
-0.106809 0.686729 -0.719024 -0.0623346 -0.995035 -0.0775909 -0.257616 -0.94469 0.202966 
0.708198 -0.644297 -0.288682 -0.533912 -0.843899 0.0526503 0.836223 -0.433938 -0.335304 
-0.623817 -0.718986 -0.306451 -0.741456 -0.557407 -0.373552 0.876049 0.180042 -0.447351 
0.815343 0.356967 -0.455841 0.867441 0.305858 -0.392423 -0.67563 -0.174161 -0.716375 
0.693047 0.629574 -0.351173 -0.425947 0.270585 -0.863338 -0.453936 0.228835 -0.861148 
-0.284864 0.485049 -0.826789 -0.166211 0.681856 -0.712352 0.0663961 -0.996957 0.0408456 
-0.64777 -0.719789 -0.249595 0.922914 -0.201693 -0.327949 -0.615392 -0.605776 -0.50431 
-0.667568 -0.248978 -0.701686 -0.561106 0.199613 -0.803315 -0.479208 0.489925 -0.72824 
0.894083 -0.00750697 -0.447838 -0.618924 -0.752293 -0.225807 -0.686675 -0.672228 -0.276745 
-0.730717 -0.557186 -0.394456 0.664583 0.651055 -0.366684 -0.61338 0.0308183 -0.789187 
-0.505492 0.27073 -0.819258 -0.138892 -0.977304 0.159956 -0.537425 -0.799811 -0.267353 
-0.67955 -0.594911 -0.429294 -0.687371 -0.313887 -0.654978 0.406598 0.891808 -0.198385 
0.866033 0.106247 -0.488568 -0.687262 -0.13622 -0.713523 -0.592382 -0.0852794 -0.801131 
-0.362655 0.326641 -0.872804 -0.0714747 0.761929 -0.643704 0.897338 0.225824 -0.379193 
0.864156 0.348475 -0.363042 -0.715479 -0.50754 -0.480098 0.751279 0.517434 -0.409685 
0.642054 0.653998 -0.400066 -0.558317 0.0505594 -0.828085 -0.546435 0.0671822 -0.834803 
-0.4217 0.417653 -0.80482 0.929898 -0.0729774 -0.360506 -0.665931 -0.510299 -0.544179 
-0.650568 -0.206119 -0.730942 -0.606099 0.0681249 -0.792466 -0.607507 0.238577 -0.757639 
-0.417606 0.498081 -0.759948 -0.104793 0.749238 -0.653958 0.556957 -0.829391 -0.0437032 
0.933443 -0.0488287 -0.355386 0.486365 0.819869 -0.3021 0.205501 0.907093 -0.367358 
-0.0134126 0.850827 -0.525274 0.431405 -0.902158 0.00113769 0.615803 -0.681491 -0.395419 
0.832386 -0.315965 -0.455302 0.920354 -0.00116815 -0.391085 0.914217 0.309095 -0.262044 