# vtk DataFile Version 4.2
vtk output
ASCII
DATASET POLYDATA
POINTS 1144 float
285.276 41.1194 111.954 285.179 41.1734 111.923 285.361 41.1045 112.054 
282.156 41.4511 111.471 282.409 41.4705 111.457 282.401 41.2748 111.592 
285.291 41.1819 111.938 281.397 41.9664 111.269 281.265 41.9944 111.333 
281.485 41.9267 111.296 282.603 41.596 111.445 281.418 42.042 111.287 
284.804 41.2039 111.905 285.53 41.012 112.272 281.447 41.7189 111.456 
284.087 41.5109 111.701 284.731 41.5251 111.79 285.226 41.3448 111.94 
285.538 41.2004 112.147 285.524 41.3913 112.097 285.711 41.2888 112.323 
280.72 42.0226 111.512 281.738 42.0047 111.334 283.938 41.9437 111.591 
279.809 42.5783 111.588 281.185 42.3121 111.37 276.233 43.6905 112.298 
276.129 43.6629 112.395 276.18 43.7338 112.333 277.75 43.6458 111.945 
276.279 43.7671 112.309 276.493 43.8954 112.358 278.093 43.719 111.943 
280.916 43.7038 111.7 281.176 43.6979 111.736 281.179 43.5083 111.642 
281.239 43.7881 111.874 283.583 40.7012 112.139 285.824 41.2746 112.552 
284.672 42.0814 111.829 285.157 41.9301 112.009 275.778 42.983 112.838 
276.339 43.1877 112.468 278.278 43.0931 111.918 282.61 42.7455 111.499 
283.404 42.5545 111.585 283.878 42.5809 111.738 275.923 43.5211 112.686 
285.548 42.1506 112.502 285.405 42.2867 112.396 285.527 42.2644 112.45 
276.089 43.9717 112.803 277.412 44.1264 112.234 279.073 44.0126 112.11 
282.159 43.3239 111.727 282.67 43.2385 111.816 285.472 42.3129 112.488 
277.179 44.3653 112.452 283.309 43.2437 112.169 276.467 44.3577 112.782 
281.025 44.0255 112.287 285.691 39.9092 114.009 285.797 40.8408 112.85 
277.915 41.6169 112.818 275.392 43.0297 113.191 275.229 43.1058 113.324 
285.463 42.2733 112.677 285.537 42.2613 112.508 277.077 44.5247 112.634 
276.865 44.5828 112.85 277.551 44.7124 112.877 277.01 44.6939 112.989 
284.269 39.7102 113.434 285.938 40.1471 114.464 281.008 44.1651 113.493 
277.541 44.768 113.068 285.988 40.1468 114.907 285.984 41.1242 113.657 
285.742 41.6229 113.932 274.095 42.9121 115.339 285.504 41.7634 114.518 
285.673 39.2509 115.703 285.824 39.5339 115.618 276.763 40.2846 115.071 
285.994 40.2666 115.095 274.604 41.1649 115.915 275.163 44.2744 115.266 
284.836 38.2131 117.306 273.026 41.8209 117.119 285.286 40.878 117.06 
283.935 37.4654 118.733 285.649 39.1604 117.449 272.357 42.4779 118.444 
272.736 42.8642 118.1 273.462 43.4514 117.983 284.214 37.408 119.372 
285.221 38.3325 119.097 271.744 40.8671 120.086 271.833 41.0574 119.767 
271.527 40.2874 121.106 285.442 39.6421 118.507 272.427 42.9227 119.661 
284.605 37.3517 121.672 271.199 40.0725 121.888 271.393 41.1885 120.592 
283.307 40.4363 121.277 271.43 41.7482 120.567 271.526 42.1886 120.924 
272.302 42.7938 120.723 284.156 36.6468 122.436 280.986 36.2147 121.739 
270.695 40.2555 122.637 270.996 41.7563 122.233 275.07 42.793 122.192 
271.519 42.2496 121.338 272.649 42.8491 121.689 283.636 36.1441 123.171 
283.959 36.3808 122.957 284.069 36.4408 123.84 284.297 36.7974 123.263 
284.457 37.2458 123.015 284.191 38.2427 123.525 270.828 39.7028 122.959 
270.526 40.5168 122.941 273.218 42.704 122.743 284.217 37.6827 124.186 
270.069 39.6493 124.526 270.379 41.1557 123.53 277.141 41.9497 123.441 
270.439 41.505 124.165 270.635 41.7105 124.168 271.892 42.1347 124.213 
273.416 42.303 123.987 284.161 36.7253 124.812 269.887 41.05 125.578 
270.169 41.278 125.332 269.589 40.5854 125.623 270.801 41.721 124.774 
282.503 34.7623 127.065 278.109 34.9479 126.678 272.028 36.8913 126.621 
283.856 36.1819 127.371 268.528 38.5887 128.612 269.441 40.6825 126.865 
269.71 40.9209 126.602 283.025 34.7606 128.074 283.351 35.0087 128.559 
283.384 37.135 127.672 268.682 39.1599 128.148 268.984 39.8793 127.805 
269.299 40.4732 127.464 269.368 40.6803 127.185 269.358 40.6637 127.31 
268.106 38.1076 130.096 268.109 38.4491 129.787 268.242 38.8018 129.311 
269.483 40.7202 127.353 283.181 34.8412 129.751 283.203 35.3434 129.877 
268.566 37.3551 130.263 267.806 38.2867 130.762 282.738 36.8491 129.411 
268.059 39.0592 130.228 268.754 39.7788 129.672 281.614 36.9609 130.898 
281.774 36.5131 131.474 267.825 38.7094 130.711 269.301 40.0965 129.56 
282.306 34.6164 132.954 282.386 35.379 132.089 267.134 38.5876 133.387 
267.568 38.8806 132.99 268.002 39.1359 132.569 269.31 39.5622 132.173 
281.123 32.8856 134.304 266.284 37.3159 134.79 266.623 37.9636 133.851 
267.292 38.7315 133.852 279.064 32.3559 134.912 280.353 32.3627 135.484 
281.357 32.9589 135.476 278.431 32.4031 134.854 281.907 33.8216 134.477 
280.541 35.7098 134.773 281.213 34.6727 135.41 265.986 37.3009 135.427 
277.357 37.2987 134.796 266.656 38.3817 134.745 280.676 32.3585 135.973 
281.561 33.7247 135.685 280.046 35.2662 136.396 265.81 37.3758 135.869 
265.869 37.6088 135.897 270.321 38.4759 136.218 280.773 32.2559 136.96 
281.192 32.7622 137.117 265.687 37.4248 136.302 265.559 37.3643 136.836 
265.703 37.5925 137.004 268.343 38.5523 136.391 266.901 38.3956 136.117 
267.363 38.5253 136.076 279.783 31.5827 138.465 280.917 32.3827 137.912 
265.671 37.5328 137.708 271.756 37.3225 138.821 264.879 36.8173 139.423 
265.783 37.5019 138.534 264.536 36.5053 140.067 280.139 31.4682 141.179 
280.655 32.2391 139.751 264.123 34.8349 141.793 264.376 36.6399 141.398 
280.167 32.1985 141.712 263.365 35.7455 142.557 263.844 36.4125 142.28 
264.058 36.5741 141.986 263.973 36.5455 142.161 264.041 36.5863 142.103 
279.371 32.4816 143.678 262.392 34.7251 144.646 264.048 36.5537 142.278 
279.922 31.4726 143.483 278.724 30.0794 145.009 279.498 30.8946 144.979 
279.719 31.2536 144.42 279.739 31.5194 144.281 265.209 32.4558 145.214 
261.369 34.4814 146.433 261.822 33.9342 146.347 276.432 33.5441 145.287 
262.632 35.7024 144.303 262.395 35.626 144.918 261.605 35.1823 146.142 
263.614 35.9644 145.826 277.734 29.503 146.907 279.072 30.6495 146.63 
262.292 32.9391 147.735 278.33 31.907 146.688 262.303 35.6534 145.976 
278.249 29.637 147.809 278.01 29.4567 148.405 276.979 29.2263 147.774 
278.59 29.9513 147.363 278.575 30.9922 147.833 260.476 34.4255 148.372 
277.62 29.2546 148.996 278.164 29.6236 149.179 278.407 29.9404 148.751 
260.277 34.7981 149.25 276.805 29.0094 149.462 277.657 29.2743 149.671 
277.941 29.4348 149.551 278.002 29.5372 149.74 278.445 30.4914 148.653 
278.115 30.5213 149.349 277.218 31.0782 150.058 259.432 34.1047 150.748 
260.042 34.6705 149.644 277.917 29.847 150.275 267.236 30.3023 150.845 
259.249 34.122 151.21 259.005 33.9747 151.841 262.209 34.888 150.98 
259.177 34.2291 151.64 277.691 29.5828 150.805 261.668 34.5677 152.438 
257.004 36.0131 152.009 257.004 36.0131 152.009 257.004 36.0131 152.009 
259.291 34.3861 152.262 257.004 36.0131 152.009 257.004 36.0131 152.009 
275.05 30.8584 153.24 258.39 33.6187 153.506 258.05 33.6842 154.1 
258.639 34.1234 153.061 258.313 34.0806 153.761 260.458 34.5449 152.709 
257.004 36.0131 152.009 275.772 30.2045 153.677 257.764 33.8773 154.739 
258.031 34.0032 154.263 257.841 34.0026 154.814 276.55 29.6046 153.482 
276.461 29.4899 153.76 273.08 31.0805 154.395 257.281 33.6412 155.761 
257.392 33.8574 155.761 275.29 28.5296 155.435 275.652 28.8112 155.43 
275.96 29.2519 154.751 273.661 30.145 155.823 256.836 33.7695 156.789 
257.05 33.8577 156.377 256.959 33.8496 156.566 257.184 33.8786 156.329 
257.89 34.0181 155.401 257.03 33.8713 156.475 275.136 28.4711 156.451 
275.552 28.7143 155.819 275.433 28.6398 155.911 274.305 29.8624 155.817 
275.055 29.2153 156.048 256.469 33.68 157.382 256.837 33.7687 157.383 
256.329 33.6702 157.722 274.924 28.3899 157.089 273.071 28.319 157.054 
275.326 28.6921 156.234 274.992 28.5622 156.938 269.417 30.4535 157.312 
259.149 33.5587 157.389 256.176 33.6253 158.084 274.768 28.3837 157.51 
271.627 28.7736 157.679 264.639 30.6584 158.383 267.795 29.9331 157.707 
271.07 29.549 157.716 272.514 29.3839 157.628 263.819 30.8624 158.331 
264.343 31.3847 158.432 256.17 32.756 159.589 255.551 33.3685 159.387 
255.318 33.4409 159.931 255.833 33.5283 159.232 274.626 28.2709 157.773 
274.499 28.2381 158.001 274.561 28.3209 157.936 270.514 29.2842 157.752 
271.432 29.0488 157.945 270.716 29.3679 157.831 264.609 30.6711 159.068 
267.317 30.1535 158.173 268.702 29.9513 157.814 267.632 30.2644 158.135 
271.961 29.1349 158.01 261.876 31.2906 159.04 261.398 31.5088 159.543 
262.8 31.0122 159.78 263.526 31.0132 159.105 264.459 30.9388 158.753 
264.628 30.7353 159.371 263.875 31.1469 158.942 265.883 30.6174 158.869 
260.392 31.7059 159.34 263.453 31.3172 159.1 255.134 33.1232 160.352 
261.481 32.1769 158.839 254.846 33.2227 160.622 254.623 33.3203 160.892 
273.566 28.223 158.212 273.304 28.2924 158.445 273.936 28.1993 158.359 
274.131 28.1874 158.258 274.342 28.2026 158.133 274.384 28.2615 158.17 
274.362 28.3634 158.138 274.127 28.3766 158.297 274.23 28.2942 158.299 
274.518 28.3867 157.974 267.609 29.0048 161.859 267.609 29.0048 161.859 
267.609 29.0048 161.86 267.61 29.0048 161.859 267.609 29.0048 161.859 
267.61 29.0048 161.859 273.44 28.4954 158.469 264.034 30.7389 159.708 
265.025 30.4553 159.573 267.609 29.0048 161.859 265.508 30.4804 159.276 
267.609 29.0048 161.859 261.337 31.3831 160.12 261.024 31.4321 160.381 
263.384 30.9979 159.674 263.566 31.1121 159.224 263.834 30.787 159.967 
259.603 31.7439 160.15 261.171 31.4641 160.288 260.954 31.8939 159.385 
260.21 31.9156 159.93 262.808 31.2515 159.74 254.23 33.2696 161.442 
254.07 33.2418 161.698 253.883 33.3115 161.848 254.055 33.3765 161.599 
253.741 33.3929 161.941 254.375 33.4115 161.409 255.408 33.4097 160.816 
253.785 33.4303 161.913 273.555 28.2921 158.515 273.823 28.2528 158.464 
274.201 28.2314 158.31 272.922 28.3677 158.723 273.256 28.3969 158.59 
272.925 28.4438 158.721 273.997 28.3023 158.407 267.609 29.0049 161.86 
267.609 29.0049 161.86 267.609 29.0048 161.859 267.61 29.0048 161.86 
272.574 28.4646 158.772 264.379 30.4705 160.306 264.695 30.4903 160.017 
[...]
POINT_DATA 1144
SCALARS scalars float
LOOKUP_TABLE default
1 1 1 1 1 1 1 1 1 
1 1 1 1 1 1 1 1 1 
1 1 1 1 1 1 1 1 1 
1 1 1 1 1 1 1 1 1 
1 1 1 1 1 1 1 1 1 
1 1 1 1 1 1 1 1 1 
1 1 1 1 1 1 1 1 1 
1 1 1 1 1 1 1 1 1 
1 1 1 1 1 1 1 1 1 
1 1 1 1 1 1 1 1 1 
1 1 1 1 1 1 1 1 1 
1 1 1 1 1 1 1 1 1 
1 1 1 1 1 1 1 1 1 
1 1 1 1 1 1 1 1 1 
1 1 1 1 1 1 1 1 1 
1 1 1 1 1 1 1 1 1 
1 1 1 1 1 1 1 1 1 
1 1 1 1 1 1 1 1 1 
1 1 1 1 1 1 1 1 1 
1 1 1 1 1 1 1 1 1 
1 1 1 1 1 1 1 1 1 
1 1 1 1 1 1 1 1 1 
1 1 1 1 1 1 1 1 1 
1 1 1 1 1 1 1 1 1 
1 1 1 1 1 1 1 1 1 
1 1 1 1 1 1 1 1 1 
1 1 1 1 1 1 1 1 1 
1 1 1 1 1 1 1 1 1 
1 1 1 1 1 1 1 1 1 
1 1 1 1 1 1 1 1 1 
1 1 1 1 1 1 1 1 1 
1 1 1 1 1 1 1 1 1 
1 1 1 1 1 1 1 1 1 
1 1 1 1 1 1 1 1 1 
1 1 1 1 1 1 1 1 1 
1 1 1 1 1 1 1 1 1 
1 1 1 1 1 1 1 1 1 
1 1 1 1 1 1 1 1 1 
1 1 1 1 1 1 1 1 1 
1 1 1 1 1 1 1 1 1 
1 1 1 1 1 1 1 1 1 
1 1 1 1 1 1 1 1 1 
1 1 1 1 1 1 1 1 1 
1 1 1 1 1 1 1 1 1 
1 1 1 1 1 1 1 1 1 
1 1 1 1 1 1 1 1 1 
1 1 1 1 1 1 1 1 1 
1 1 1 1 1 1 1 1 1 
1 1 1 1 1 1 1 1 1 
1 1 1 1 1 1 1 1 1 
1 1 1 1 1 1 1 1 1 
1 1 1 1 1 1 1 1 1 
1 1 1 1 1 1 1 1 1 
1 1 1 1 1 1 1 1 1 
1 1 1 1 1 1 1 1 1 
1 1 1 1 1 1 1 1 1 
1 1 1 1 1 1 1 1 1 
1 1 1 1 1 1 1 1 1 
1 1 1 1 1 1 1 1 1 
1 1 1 1 1 1 1 1 1 
1 1 1 1 1 1 1 1 1 
1 1 1 1 1 1 1 1 1 
1 1 1 1 1 1 1 1 1 
1 1 1 1 1 1 1 1 1 
1 1 1 1 1 1 1 1 1 
1 1 1 1 1 1 1 1 1 
1 1 1 1 1 1 1 1 1 
1 1 1 1 1 1 1 1 1 
1 1 1 1 1 1 1 1 1 
1 1 1 1 1 1 1 1 1 
1 1 1 1 1 1 1 1 1 
1 1 1 1 1 1 1 1 1 
1 1 1 1 1 1 1 1 1 
1 1 1 1 1 1 1 1 1 
1 1 1 1 1 1 1 1 1 
1 1 1 1 1 1 1 1 1 
1 1 1 1 1 1 1 1 1 
1 1 1 1 1 1 1 1 1 
1 1 1 1 1 1 1 1 1 
1 1 1 1 1 1 1 1 1 
1 1 1 1 1 1 1 1 1 
1 1 1 1 1 1 1 1 1 
1 1 1 1 1 1 1 1 1 
1 1 1 1 1 1 1 1 1 
1 1 1 1 1 1 1 1 1 
1 1 1 1 1 1 1 1 1 
1 1 1 1 1 1 1 1 1 
1 1 1 1 1 1 1 1 1 
1 1 1 1 1 1 1 1 1 
1 1 1 1 1 1 1 1 1 
1 1 1 1 1 1 1 1 1 
1 1 1 1 1 1 1 1 1 
1 1 1 1 1 1 1 1 1 
1 1 1 1 1 1 1 1 1 
1 1 1 1 1 1 1 1 1 
1 1 1 1 1 1 1 1 1 
1 1 1 1 1 1 1 1 1 
1 1 1 1 1 1 1 1 1 
1 1 1 1 1 1 1 1 1 
1 1 1 1 1 1 1 1 1 
1 1 1 1 1 1 1 1 1 
1 1 1 1 1 1 1 1 1 
1 1 1 1 1 1 1 1 1 
1 1 1 1 1 1 1 1 1 
1 1 1 1 1 1 1 1 1 
1 1 1 1 1 1 1 1 1 
1 1 1 1 1 1 1 1 1 
1 1 1 1 1 1 1 1 1 
1 1 1 1 1 1 1 1 1 
1 1 1 1 1 1 1 1 1 
1 1 1 1 1 1 1 1 1 
1 1 1 1 1 1 1 1 1 
1 1 1 1 1 1 1 1 1 
1 1 1 1 1 1 1 1 1 
1 1 1 1 1 1 1 1 1 
1 1 1 1 1 1 1 1 1 
1 1 1 1 1 1 1 1 1 
1 1 1 1 1 1 1 1 1 
1 1 1 1 1 1 1 1 1 
1 1 1 1 1 1 1 1 1 
1 1 1 1 1 1 1 1 1 
1 1 1 1 1 1 1 1 1 
1 1 1 1 1 1 1 1 1 
1 1 1 1 1 1 1 1 1 
1 1 1 1 1 1 1 1 1 
1 1 1 1 1 1 1 1 1 
1 1 1 1 1 1 1 1 1 
1 
NORMALS Normals float
0.33108 -0.540634 -0.77337 0.0839014 -0.168256 -0.982166 0.730915 -0.165305 -0.662146 
-0.166518 -0.574925 -0.801082 0.0866615 -0.395986 -0.914158 -0.0710465 -0.71084 -0.699756 
0.541248 -0.0615244 -0.838609 -0.146648 -0.22605 -0.963014 -0.366641 -0.163728 -0.915843 
0.202572 -0.29548 -0.933626 0.126525 -0.264442 -0.956066 0.0018592 0.190738 -0.981639 
0.0738063 -0.613973 -0.785869 0.561189 -0.636241 -0.529401 -0.1765 -0.692283 -0.699709 
0.0795056 -0.257858 -0.962906 0.273996 0.0094776 -0.961684 0.41337 0.0421821 -0.909586 
0.63002 -0.262849 -0.730743 0.656839 0.217479 -0.721987 0.835908 -0.0952554 -0.540541 
-0.320647 -0.62498 -0.711748 0.111658 -0.058251 -0.992038 0.130399 0.00135932 -0.991461 
-0.198042 -0.0125989 -0.980113 -0.0987955 0.138903 -0.985366 -0.357701 -0.125892 -0.925312 
-0.678575 -0.268001 -0.683894 -0.63357 0.427918 -0.644573 -0.181161 0.140144 -0.973417 
-0.187226 0.436343 -0.880086 -0.272393 0.58048 -0.767362 0.01926 0.413767 -0.910179 
0.00946176 0.619133 -0.78523 0.375284 0.564041 -0.73554 0.177381 0.347501 -0.920749 
0.372211 0.737606 -0.563379 0.0705967 -0.628761 -0.774387 0.960734 -0.0460672 -0.273619 
0.337547 0.232771 -0.912074 0.46649 0.265452 -0.843755 -0.569883 -0.339467 -0.748328 
-0.386665 -0.34214 -0.856406 -0.14887 -0.122693 -0.981216 0.147841 0.391316 -0.908303 
0.0990142 0.10057 -0.989991 0.314283 0.514841 -0.7976 -0.732268 -0.0360336 -0.680063 
0.937618 0.28346 -0.201302 0.504147 0.486873 -0.713296 0.742879 0.425748 -0.516594 
-0.680098 0.571479 -0.459215 -0.226384 0.495003 -0.838882 -0.0203113 0.52906 -0.848341 
0.254631 0.753942 -0.605587 0.247479 0.748878 -0.614765 0.496854 0.856176 -0.141768 
-0.406054 0.475894 -0.780157 0.401529 0.908459 -0.11609 -0.511402 0.704405 -0.492221 
0.196701 0.912575 -0.358489 0.77099 -0.58387 -0.254303 0.565358 -0.697324 -0.440578 
-0.344008 -0.595854 -0.725684 -0.607095 -0.563528 -0.560243 -0.797642 0.122432 -0.590575 
0.678475 0.689524 0.253433 0.868788 0.484958 0.100115 -0.226029 0.816665 -0.531008 
-0.506524 0.648051 -0.568738 0.0247762 0.815344 -0.578447 -0.230642 0.934855 -0.269907 
0.114483 -0.852881 -0.509399 0.958668 -0.243408 -0.147338 0.359918 0.932225 -0.0376234 
0.0032085 0.996215 -0.0868682 0.931481 -0.345523 -0.113825 0.963095 0.255175 0.0856361 
0.871868 0.461519 0.163847 -0.857224 0.035779 -0.513699 0.680052 0.688552 0.251846 
0.695455 -0.687519 -0.208949 0.906913 -0.421242 -0.00798097 -0.331575 -0.813376 -0.477994 
0.999304 0.0116407 0.0354346 -0.619486 -0.63802 -0.457348 -0.433665 0.896883 -0.086807 
0.446676 -0.85952 -0.248407 -0.722011 -0.524927 -0.450723 0.778506 0.563689 0.276013 
0.309971 -0.898713 -0.310215 0.988489 -0.0708173 0.133697 -0.873068 0.392054 -0.289906 
-0.726292 0.662721 -0.182484 -0.4201 0.898103 0.130101 0.497049 -0.839524 -0.21941 
0.767412 -0.635734 -0.0831952 -0.721647 -0.419498 -0.550679 -0.627018 -0.567148 -0.534033 
-0.447963 -0.738939 -0.503287 0.960387 0.163129 0.225932 -0.444683 0.893255 0.0659682 
0.950899 -0.298678 0.081134 -0.818134 -0.366496 -0.4431 -0.906064 -0.163112 -0.390438 
0.390639 0.826502 0.405334 -0.943925 0.11805 -0.308333 -0.80026 0.58709 -0.122104 
-0.374932 0.926132 0.0413068 0.743787 -0.658595 -0.114161 -0.0480909 -0.931797 -0.359779 
-0.877994 -0.219531 -0.425362 -0.880378 0.426677 -0.207077 0.17905 0.951086 0.251747 
-0.662932 0.748225 -0.0261025 -0.248041 0.956501 0.153563 0.424454 -0.883571 -0.197842 
0.667517 -0.738776 -0.0929014 0.801651 -0.597788 -0.00217081 0.886615 -0.461981 0.0220606 
0.983002 -0.152624 0.102046 0.849379 0.410593 0.331616 -0.75842 -0.532076 -0.376422 
-0.924557 -0.0553969 -0.376996 -0.0497535 0.948535 0.31274 0.637992 0.678659 0.363851 
-0.880666 -0.28214 -0.380559 -0.907949 0.36092 -0.212991 0.217679 0.86497 0.452154 
-0.770835 0.635674 -0.0416176 -0.607804 0.792064 0.0566481 -0.180213 0.90014 0.396575 
-0.0601132 0.828138 0.557291 0.983889 -0.132993 0.119479 -0.773075 0.604499 -0.192189 
-0.52613 0.84697 0.0763413 -0.89105 0.376425 -0.253641 -0.400047 0.889451 0.220999 
0.39562 -0.889199 -0.229803 -0.0815639 -0.96461 -0.250748 -0.450194 -0.794542 -0.407467 
0.962174 0.117552 0.24577 -0.929211 -0.21442 -0.300984 -0.808302 0.575036 -0.126419 
-0.621234 0.783596 -0.00671049 0.510302 -0.846547 -0.151496 0.840509 -0.530918 -0.108031 
0.797087 0.533183 0.283492 -0.962924 0.223541 -0.151022 -0.851462 0.524118 0.0176644 
-0.860871 0.457071 0.223577 -0.979826 0.147783 -0.134539 -0.509567 0.840414 0.184516 
-0.780619 -0.473214 -0.408293 -0.920029 -0.153763 -0.360422 -0.928263 -0.0539944 -0.367985 
-0.42716 0.832757 0.352207 0.901998 -0.420004 0.0999837 0.957003 0.0687716 0.281808 
-0.67962 -0.632865 -0.370943 -0.918794 -0.176416 -0.353121 0.581845 0.757189 0.296853 
-0.92163 0.34545 -0.176811 -0.620375 0.783875 0.0259593 0.532336 0.798186 0.281991 
0.614851 0.672315 0.412252 -0.893839 0.402 -0.198616 -0.407872 0.901194 0.146596 
0.814508 0.422339 0.397752 0.774974 0.502076 0.383843 -0.740056 0.654863 -0.153203 
-0.528516 0.846934 -0.0580769 -0.48167 0.875961 0.0262057 -0.170909 0.959975 0.221898 
0.244336 -0.924974 -0.291072 -0.886236 -0.253712 -0.387577 -0.90146 0.348875 -0.256234 
-0.533157 0.84601 -0.00316871 0.0797539 -0.947175 -0.310642 0.276752 -0.943176 -0.183923 
0.74221 -0.670046 -0.0127548 -0.114097 -0.943074 -0.3124 0.969073 -0.0225414 0.245742 
0.568404 0.684066 0.457133 0.707876 0.56858 0.419079 -0.937754 -0.0803253 -0.337883 
0.355856 0.869457 0.342653 -0.607645 0.791547 -0.064962 0.543173 -0.824473 -0.158766 
0.890476 0.269944 0.366309 0.713596 0.614385 0.336617 -0.948955 -0.0667188 -0.308274 
-0.887758 0.368706 -0.275575 0.210531 0.951809 0.223017 0.461652 -0.880435 -0.108221 
0.91207 -0.396266 0.105362 -0.922827 0.325324 -0.206287 -0.970015 0.170657 -0.173054 
-0.6715 0.740829 -0.0161367 -0.0749421 0.965781 0.248295 -0.337951 0.918596 0.204866 
-0.191208 0.970545 0.146568 0.276022 -0.947802 -0.159634 0.826066 -0.559079 0.0710378 
-0.61296 0.789291 0.0360665 0.221356 0.939908 0.259952 -0.78049 0.623089 -0.0509461 
-0.473976 0.878609 0.0582569 -0.699845 0.706241 -0.10696 0.820053 -0.569896 0.0522601 
0.973354 0.0190561 0.228516 -0.564942 -0.714007 -0.413562 -0.667465 0.717567 -0.198966 
0.946659 0.206849 0.247085 -0.909853 0.163558 -0.381335 -0.718099 0.683025 -0.133459 
-0.415952 0.884162 -0.212699 -0.61883 0.785524 -0.00102231 -0.0644111 0.997229 0.0372114 
0.660102 0.677405 0.324635 -0.790301 -0.329115 -0.516825 -0.312142 0.945429 0.0934431 
0.959608 0.182069 0.214484 0.228205 -0.94987 -0.213704 0.877662 -0.434652 0.201957 
0.958773 -0.174105 0.224592 0.92276 0.226923 0.311481 -0.209456 -0.916764 -0.340106 
-0.858348 -0.337599 -0.386349 -0.621887 -0.675852 -0.395576 0.410188 0.871658 0.268249 
-0.744729 0.639434 -0.191059 -0.657521 0.730487 -0.18454 -0.787582 0.553458 -0.270923 
-0.237801 0.964134 0.117883 0.21111 -0.953015 -0.217245 0.957695 -0.152418 0.244108 
-0.459669 -0.849623 -0.258544 0.492191 0.784303 0.377647 -0.357521 0.933895 0.00437213 
0.37868 -0.918349 -0.115049 0.616183 -0.787602 0.00120999 0.0604661 -0.981638 -0.180917 
0.719174 -0.694261 0.0281228 0.762293 0.5179 0.388186 -0.907627 2.7768e-06 -0.419777 
0.351091 -0.933083 -0.0780511 0.678843 -0.733844 0.0254181 0.902978 -0.388489 0.183596 
-0.77647 0.567835 -0.273235 0.0968859 -0.989768 -0.104752 0.460507 -0.887071 0.0322291 
0.591945 -0.803985 0.0566593 0.837739 -0.488441 0.24417 0.864085 0.328887 0.381039 
0.76103 0.506326 0.405547 0.648139 0.653458 0.391034 -0.905962 -0.0476096 -0.420674 
-0.814149 0.505163 -0.286306 0.908473 0.15783 0.386998 -0.238068 -0.96752 -0.0850235 
-0.868679 0.380557 -0.317133 -0.924251 0.149397 -0.351341 0.0848549 0.961436 0.26161 
-0.763247 0.601889 -0.234911 0.900879 -0.276504 0.334607 0.0765601 0.975918 0.204261 
0.0568766 -0.930677 -0.361393 -0.285402 0.651473 -0.702943 0.202738 0.682628 -0.70208 
-0.373346 0.92628 -0.051168 0.285402 -0.651473 0.702943 -0.0568766 0.930677 0.361393 
0.437528 0.80798 0.394635 -0.819011 -0.42313 -0.387532 -0.836558 -0.359856 -0.413127 
-0.721133 0.639401 -0.26671 -0.717276 0.62669 -0.30459 -0.0569579 0.996529 0.0607081 
-0.202738 -0.682628 0.70208 0.552582 0.718085 0.423091 -0.853973 0.357439 -0.378109 
-0.788058 0.514435 -0.338113 -0.22341 0.97374 -0.0438103 0.77296 0.508632 0.379244 
0.829152 0.318355 0.459517 0.29341 0.854702 0.428248 -0.878513 0.251514 -0.406148 
-0.682098 0.674376 -0.28277 0.443321 -0.895297 0.043696 0.925808 -0.169507 0.337857 
0.669596 0.571859 0.473939 0.358032 0.807668 0.468494 -0.741649 0.597587 -0.304707 
-0.651581 0.678039 -0.340155 -0.396487 0.918017 -0.00657143 -0.038879 0.996706 0.0711711 
-0.0671422 0.99763 -0.0150285 -0.120698 0.991648 0.0454623 0.728337 -0.658624 0.189048 
0.871898 -0.391275 0.294444 0.658133 -0.741901 0.128232 0.41988 0.790597 0.445709 
0.58913 0.620266 0.517875 -0.851095 0.371204 -0.371274 -0.0792298 0.987067 0.139361 
-0.5109 0.847444 -0.144292 0.87562 -0.398604 0.27277 -0.152211 -0.979784 -0.129826 
0.894344 0.077322 0.440647 0.900343 0.148854 0.408932 0.272837 0.596385 0.754908 
0.25293 0.948124 0.192579 -0.55599 0.820344 -0.133832 0.911696 0.0161374 0.410547 
-0.438617 -0.886991 0.144433 -0.450314 -0.889116 0.0817985 -0.226736 -0.902206 0.366899 
0.0856151 0.634419 0.768233 0.230338 0.801178 0.552321 -0.228898 -0.969282 0.0899913 
0.309133 0.681216 0.663612 -0.414875 -0.881054 -0.227204 -0.885117 0.0336759 -0.464149 
-0.378469 0.909023 -0.174468 -0.39815 0.911366 -0.104348 0.419657 -0.905647 0.0607601 
0.682446 -0.605267 0.409778 0.834179 0.01382 0.55132 -0.313911 -0.799693 0.511812 
-0.319693 -0.0726429 0.944732 -0.031647 0.174577 0.984135 -0.567442 -0.817123 -0.101586 
-0.0311145 -0.878226 0.477233 0.0912118 -0.219717 0.97129 0.384584 0.0607358 0.92109 
-0.040778 0.642613 0.765105 -0.293318 -0.955392 -0.034516 -0.138147 0.631448 0.763013 
-0.206786 -0.953884 -0.217587 0.158879 -0.957122 0.242228 -0.269499 -0.101605 0.957626 
-0.922748 -0.361893 0.132548 0.534486 0.287286 0.794853 0.28704 0.709392 0.643717 
-0.0450462 -0.931766 0.360254 0.378605 0.736259 0.560875 -0.552023 -0.770872 -0.317847 
0.329344 0.820526 0.467192 -0.564701 -0.789668 -0.23987 -0.851499 0.0134681 -0.524183 
-0.0846883 -0.994017 0.068983 0.0512574 -0.887625 0.457705 -0.0302726 -0.973068 0.228521 
-0.0303032 -0.998935 -0.0347952 0.318963 -0.918084 0.23534 0.713523 -0.182772 0.676372 
0.605634 0.460335 0.649076 0.349101 0.709492 0.612168 0.535325 0.271409 0.799852 
0.637353 0.572958 0.515267 -0.0196662 -0.998336 0.054209 -0.00731631 -0.994135 0.107894 
-0.0294633 -0.996936 0.0724545 0.00153308 -0.997856 0.0654322 0.0025872 -0.994828 0.101541 
0.010338 -0.992485 0.12193 0.269104 0.69534 0.666397 -0.371883 -0.891436 -0.258929 
-0.0705796 -0.995885 0.0568538 0.00477647 0.992774 -0.119902 0.453888 -0.398765 0.796851 
-0.00666029 0.99313 -0.116826 -0.427872 -0.854489 -0.294575 -0.472041 -0.650099 -0.59544 
0.960801 -0.0684545 0.268654 0.82623 -0.0155168 0.563119 0.270275 0.95056 0.152932 
-0.0684023 -0.991559 -0.110149 -0.605645 -0.395035 -0.690754 0.294974 0.276725 0.914556 
0.510824 0.694388 0.506838 0.289652 0.910438 0.295304 -0.469992 -0.812683 -0.344463 
-0.260401 -0.944568 -0.199959 -0.616233 -0.647316 -0.448597 -0.72789 0.184776 -0.660329 
-0.760566 -0.141401 -0.633676 -0.240064 0.946641 -0.215034 -0.0171545 0.994863 0.0997644 
-0.0550933 0.993951 -0.0950021 -0.0698985 -0.837588 0.541812 0.215748 -0.478254 0.851308 
0.40657 -0.56594 0.717226 0.352653 -0.680163 0.642662 0.283047 -0.143419 0.948322 
0.390853 0.501988 0.771519 0.323697 0.346592 0.880394 0.00549962 -0.991182 0.132396 
0.000416179 -0.991709 0.128502 0.00486657 -0.990943 0.134194 0 -0.992278 0.124035 
-0.430952 0.105857 0.896145 -0.102425 -0.990188 -0.0950653 0.315027 0.894722 0.316592 
-0.00698182 0.991747 -0.128022 -0.00434503 0.991268 -0.131795 -0.214385 -0.911985 -0.349747 
-0.645115 -0.62527 -0.439163 -0.663037 -0.641703 -0.385487 -0.753628 0.361724 -0.548817 
-0.291531 -0.932618 -0.21268 0.487849 0.663107 0.567707 0.2842 0.840316 0.461628 
0.00618096 -0.990663 0.136195 -0.0764593 -0.988975 -0.126819 0 -0.992278 0.124035 
0 -0.992278 0.124035 0 -0.992278 0.124035 -0.115844 -0.887617 0.445777 
0.000318422 0.991617 -0.129209 -0.46744 -0.883622 -0.026692 -0.826024 -0.487783 0.282404 
0.223735 0.939263 0.260245 -0.743164 -0.624662 -0.239802 -0.793135 0.581224 0.181975 
-0.800818 0.520508 -0.296246 -0.0261244 0.999361 0.024406 0.233196 0.834789 0.498745 
-0.272615 -0.952075 -0.138688 -0.288943 -0.921763 -0.258581 -0.228877 -0.950686 -0.209313 
0 -0.992278 0.124035 0.0071566 -0.856303 0.516425 0.290118 0.717386 0.633395 
-0.0291845 -0.922374 0.385193 -0.0178859 0.906614 0.421582 -0.454974 0.693024 0.559211 
0.0929676 0.965921 0.241567 -0.24213 -0.955044 -0.171068 -0.142348 -0.938223 0.315396 
-0.185166 -0.978268 0.093306 0.383521 0.652237 0.653834 0.178266 -0.85694 0.483606 
0.436682 0.433872 0.788076 0.453177 0.66719 0.591176 -0.876936 -0.344301 0.335322 
-0.246351 0.857618 0.451444 -0.372216 -0.924939 0.0770883 0.231444 -0.869694 0.435965 
0.568453 0.198448 0.798423 0.586884 0.386669 0.711375 -0.0140927 -0.877297 0.479741 
0.0945504 -0.0863948 0.991764 0.318974 0.879221 0.353874 0.391921 0.490319 0.77845 
-0.31936 -0.93259 -0.168184 -0.272636 -0.932134 -0.238319 0.168004 -0.90374 0.393736 
0.572342 0.419087 0.704834 -0.287476 -0.850331 0.440788 -0.471927 -0.881483 0.0164884 
-0.197042 -0.954183 0.225189 -0.0935223 -0.95656 0.276127 -0.493496 -0.811578 0.312734 
-0.301931 -0.95124 -0.0630806 -0.481095 -0.843683 0.238214 -0.279661 0.816206 0.505567 
-0.408603 -0.908821 0.0841866 -0.227115 0.098699 0.968854 0.262706 0.59224 0.761733 
-0.115737 -0.828912 0.547275 0.328505 -0.16437 0.93009 -0.314344 -0.945202 0.0882095 
-0.28392 -0.856712 0.43062 -0.28392 -0.856712 0.43062 -0.28392 -0.856712 0.43062 
-0.654643 0.667508 0.35479 -0.787018 -0.533739 0.309394 -0.748448 0.614815 0.248653 
-0.524524 -0.729447 0.439068 0.537792 0.327118 -0.777029 -0.515431 -0.698888 0.495869 
-0.13675 -0.80767 0.573558 -0.217982 -0.974643 -0.0505566 -0.465561 -0.866869 0.178302 
-0.884489 -0.402867 0.235322 -0.499558 -0.776143 0.384765 -0.293217 -0.842226 0.452414 
0.473935 0.553594 -0.684777 -0.38147 -0.831607 0.403622 0.06426 -0.827951 -0.557107 
0.345958 0.417763 -0.840112 0.365823 -0.176771 -0.913742 0.0024725 -0.895783 -0.444484 
0.173607 -0.585971 -0.791517 0.195283 -0.641589 -0.741773 -0.180277 -0.976413 -0.11882 
-0.449002 -0.426175 0.785348 -0.145237 0.562411 0.814003 -0.244037 -0.588065 0.77112 
-0.516139 -0.85095 0.0973936 -0.318604 -0.81688 0.480832 -0.12882 0.922846 -0.36299 
-0.374259 -0.841531 0.389558 0.00723772 -0.640264 -0.768121 -0.133201 -0.899981 -0.415079 
0.0251083 -0.768728 -0.639082 0.134444 -0.579674 -0.803681 -0.00214176 -0.827899 -0.560873 
-0.278107 0.153776 0.948161 -0.234919 -0.721143 0.651741 -0.0447846 -0.808186 -0.587222 
-0.286365 -0.43138 0.855515 -0.246374 -0.22333 0.943093 -0.331753 -0.521745 0.785953 
0.088689 0.791587 0.604586 -0.182671 -0.0323043 0.982643 -0.568208 -0.821479 -0.0480845 
-0.379209 -0.816772 0.434838 -0.206475 0.832278 -0.514473 -0.00469006 0.754931 0.655787 
-0.346675 -0.87359 0.34155 -0.372741 -0.667149 0.644962 -0.497382 -0.853198 -0.157052 
-0.648193 -0.759658 -0.0525895 -0.612185 -0.77118 -0.174676 -0.264755 -0.91964 0.290117 
-0.267104 -0.936244 0.228258 -0.629852 -0.668072 -0.39619 -0.508331 -0.83962 0.191411 
-0.536285 -0.839418 -0.0881801 -0.345915 -0.912639 0.21779 -0.382534 -0.752216 -0.536507 
-0.180074 0.554736 -0.812306 0.0420355 0.298963 -0.953338 -0.158368 -0.987322 0.0107233 
-0.369907 -0.911457 0.180041 -0.331811 -0.94063 0.0715343 -0.348503 -0.919483 0.181923 
-0.275351 -0.917703 0.286362 -0.29521 -0.914286 0.277365 0.0171915 0.688278 -0.725243 
-0.212176 -0.974575 -0.0720091 -0.340076 -0.937946 0.0678575 -0.170296 -0.969122 -0.178332 
0.201084 -0.861195 0.466806 0.394132 -0.675757 0.622906 -0.294688 -0.91424 0.278072 
0.0106724 -0.902573 0.430405 -0.241114 -0.893143 0.379683 -0.669476 -0.634098 0.386938 
-0.891512 -0.0359132 0.451572 -0.85136 0.239547 0.466694 -0.163674 -0.981171 0.102535 
-0.15109 0.00520962 0.988506 0.0299311 0.850338 0.525385 -0.148042 0.522962 0.839401 
0.104271 0.942662 0.317042 0.12438 0.899359 0.419146 0.161954 0.743448 0.648888 
-0.690337 -0.596607 -0.409261 -0.155443 -0.985016 0.0747034 -0.17194 -0.970977 -0.166254 
-0.164907 -0.633842 0.755678 -0.242744 -0.559791 0.792281 0.0416304 -0.923814 0.380571 
-0.683294 -0.232451 -0.692153 0.570365 -0.770102 -0.285704 -0.0113723 -0.760485 0.649256 
0.357977 -0.886966 0.291793 0.165239 -0.976564 -0.137911 0.320447 -0.748821 0.580156 
0.32678 -0.744179 0.582591 -0.456793 -0.731085 0.506809 -0.347737 -0.901051 0.259202 
-0.644339 -0.678487 0.352821 -0.77296 0.376483 0.510679 -0.59227 0.710176 0.380613 
-0.13466 -0.98577 0.100623 -0.123008 0.280213 0.952024 -0.0954554 -0.989547 0.108095 
-0.0017988 -0.982168 0.187998 -0.432894 -0.897638 -0.0827635 -0.30023 -0.736973 -0.605584 
-0.296463 -0.562631 -0.771723 -0.229078 -0.591484 -0.773091 -0.275437 -0.770772 -0.574496 
-0.744973 -0.190055 -0.639448 0.192462 -0.589064 0.784832 0.429553 -0.651456 -0.625371 