# vtk DataFile Version 4.2
vtk output
ASCII
DATASET POLYDATA
POINTS 1584 float
213.701 71.8004 105.566 214.376 72.0783 105.51 201.863 75.7932 105.876 
201.314 76.5141 105.733 202.867 75.7291 105.76 197.353 77.4021 106.321 
226.152 65.9602 107.071 226.251 66.2389 106.989 222.734 68.1082 106.582 
218.173 71.7813 105.895 214.587 73.5816 105.771 213.427 74.6337 106.031 
212.313 74.9882 105.877 204.345 76.7777 105.786 210.506 76.0637 106.097 
210.207 76.22 106.2 210.457 76.1657 106.152 210.598 76.0807 106.14 
200.631 79.0485 106.074 200.603 78.9214 106.047 199.718 79.5714 106.241 
227.478 66.9238 107.133 224.992 68.7817 106.879 211.946 70.4421 106.513 
225.74 69.0839 107.08 221.236 70.6522 106.371 221.976 70.8436 106.644 
220.257 71.5764 106.36 199.271 76.1946 106.382 210.722 75.7219 105.983 
206.698 76.8285 106 210.777 76.1381 106.32 200.922 78.4019 105.974 
209.267 76.6959 106.487 211.78 76.5435 107.438 196.497 79.0842 106.437 
194.293 80.0834 106.813 198.936 79.4615 106.295 200.234 79.4398 106.252 
202.045 78.9909 106.459 207.097 77.8381 107.013 193.318 80.014 106.964 
197.136 80.1754 106.708 200.852 80.1511 106.982 201.028 80.1031 107.113 
196.031 80.5536 106.969 198.115 80.2842 106.755 199.886 80.6331 107.191 
200.047 80.5302 107.124 232.471 62.279 109.057 233.556 62.5215 108.913 
226.032 64.7141 107.897 229.386 65.3975 107.764 231.542 65.6066 108.138 
229.219 67.3471 107.648 226.634 69.2059 107.372 226.453 69.5087 107.468 
224.651 70.1919 107.205 228.383 69.4447 108.41 224.7 70.4695 107.441 
225.564 70.5977 107.9 225.392 70.6886 107.935 225.551 70.6725 107.983 
225.693 70.5792 108.001 228.365 69.6221 108.687 225.502 70.754 108.17 
220.324 72.6571 107.12 221.995 72.4198 108.066 204.656 78.8599 107.577 
184.32 81.5809 108.678 187.63 80.9475 107.861 188.128 80.7808 107.735 
187.932 80.9248 107.741 188.154 81.0008 107.717 196.823 80.5859 106.987 
201.54 79.8389 107.126 182.494 82.3756 108.929 185.727 82.0185 108.253 
193.121 81.1708 107.402 193.687 81.2026 107.343 202.284 79.831 107.848 
191.52 82.1464 107.978 199.337 80.9978 107.89 190.981 82.5705 108.261 
192.76 82.2439 108.333 236.72 60.3023 110.096 237.683 61.1838 109.758 
230.797 62.9967 108.821 232.052 62.9156 108.791 225.753 64.4825 108.148 
233.7 63.7925 108.709 230.329 67.4971 108.1 228.52 69.1211 108.215 
230.576 68.2606 108.69 225.564 70.3774 107.763 229.45 69.1108 108.846 
226.214 70.4065 108.284 200.172 73.5657 108.293 221.05 72.998 108.458 
209.289 77.3956 107.805 210.458 77.1023 108.425 205.249 78.8442 108.209 
188.037 80.9356 107.713 202.475 79.8533 108.283 203.06 79.6434 108.574 
181.866 82.7089 109.076 184.181 82.1522 108.604 177.777 84.6864 109.879 
179.089 83.8936 109.708 181.627 83.6195 109.082 184.273 83.2166 108.603 
185.688 82.9827 108.363 186.131 83.5476 108.517 176.491 85.4101 110.006 
176.434 85.3471 110.071 176.399 85.5261 110.028 187.845 83.8838 108.88 
188.621 83.9894 109.225 192.824 82.7782 109.337 238.357 60.1626 110.242 
237.78 61.4156 109.715 238.144 61.2091 109.848 239.458 62.5656 110.226 
235.015 64.0886 109.022 234.507 64.8964 109.006 234.917 65.7798 109.614 
222.773 72.3604 109.657 219.883 73.5216 109.45 184.701 80.062 109.267 
178.97 83.1452 110.115 198.33 81.453 108.993 177.196 84.8806 110.022 
176.959 84.7527 110.172 177.9 83.8045 110.282 180.153 84.2756 109.462 
185.45 83.4694 108.543 176.206 85.5787 110.113 176.052 85.5399 110.291 
178.4 84.9878 109.728 183.874 84.1651 108.963 175.712 85.8204 110.137 
175.689 85.8367 110.153 175.661 85.8456 110.123 175.893 85.7765 110.149 
175.81 85.7712 110.22 176.456 85.785 110.05 181.603 84.9908 109.492 
184.433 84.6773 109.292 186.113 84.6427 109.377 175.712 85.8434 110.127 
175.797 85.8863 110.17 175.906 85.9915 110.306 176.042 85.9475 110.167 
178.443 85.8892 109.922 183.108 85.1135 109.593 184.878 85.5288 110.221 
185.216 85.4141 110.141 187.385 84.6695 109.847 176.087 86.2452 110.33 
237.4 58.9918 111.096 230.885 61.3123 110.129 240.183 60.9161 110.448 
241.06 61.3955 110.767 225.524 63.1104 109.786 233.194 67.5573 110.266 
232.734 67.9338 110.437 227.101 70.4998 110.327 205.56 78.6947 109.873 
176.547 84.9211 110.378 176.489 84.8808 110.595 175.689 85.8597 110.144 
175.772 85.8577 110.227 175.964 85.7633 110.46 185.506 85.1073 109.882 
189.107 84.2078 110.115 175.999 86.1922 110.571 178.841 86.3491 110.157 
183.663 85.3488 109.873 185.387 85.3971 110.313 176.012 86.4865 110.497 
175.982 86.479 110.598 175.965 86.5701 110.559 176.187 86.5111 110.415 
176.459 86.6934 110.498 185.074 85.5515 110.519 175.992 86.6243 110.55 
176.024 86.6895 110.581 176.114 86.6614 110.533 176.26 86.7628 110.666 
176.893 87.0829 110.931 176.933 86.9286 110.625 177.978 86.9937 110.596 
178.992 86.8716 110.621 176.089 86.727 110.596 178.05 87.1959 110.817 
245.827 56.2562 112.79 247.183 56.9003 112.646 248.388 56.2732 112.995 
247.659 57.2359 112.636 239.537 58.6504 111.198 240.958 62.5098 111.11 
231.855 68.5447 111.334 220.987 72.7585 111.612 208.276 77.4604 111.235 
181.307 80.3354 111.233 177.777 83.1035 111.21 177.186 83.8974 110.997 
177.129 83.8484 111.329 176.586 84.737 110.851 184.959 85.6101 111.364 
176.014 86.6176 110.632 176.188 86.6734 110.777 182.507 86.2742 111.427 
183.903 85.8971 111.169 177.442 87.2478 110.839 179.069 86.9962 110.834 
177.129 87.2802 111.21 177.488 87.3624 111.029 178.26 87.2571 111.018 
177.407 87.3951 111.205 177.666 87.397 111.149 249.396 55.4143 113.513 
250.32 55.5192 113.639 248.112 57.3669 112.742 247.754 57.8609 112.641 
229.351 60.2222 112.363 229.896 69.3321 112.318 178.828 81.833 111.796 
178.042 82.6152 111.845 177.623 83.1585 111.932 177.044 83.991 111.534 
176.352 85.531 111.168 176.93 84.8677 112.048 176.814 85.4198 111.91 
185.044 85.5177 111.903 176.784 85.8914 111.803 176.686 86.6859 111.305 
177.221 86.3775 111.984 182.27 86.3406 111.715 181.828 86.3959 111.978 
177.158 87.1978 111.414 177.199 87.3578 111.362 177.272 87.3357 111.449 
177.26 87.4035 111.398 177.283 87.4053 111.331 177.734 87.3829 111.356 
251.123 54.9212 114.092 251.711 55.0992 114.182 248.543 57.8149 112.912 
251.555 56.2988 113.937 248.545 58.3523 112.995 247.542 59.4126 112.871 
249.007 59.3149 113.6 248.12 60.2091 113.61 246.811 61.1758 113.471 
247.807 60.6083 113.725 244.697 62.2386 113.208 246.253 61.7847 113.746 
247.07 61.7071 114.494 244.341 62.9817 114.076 183.648 77.9145 112.839 
180.556 79.9044 113.069 177.241 83.8159 111.986 177.211 84.7076 112.451 
177.456 84.8304 112.72 177.479 87.1731 111.62 178.632 87.1084 111.784 
178.228 87.0643 111.919 177.579 87.3498 111.488 177.886 87.0436 111.875 
254.236 53.1878 115.469 255.647 53.2747 115.664 250.053 53.995 114.585 
242.469 55.3437 114.233 250.574 60.0158 115.463 251.459 59.5393 115.461 
233.769 67.5548 113.602 182.851 78.0259 113.849 179.551 80.6057 114.014 
180.229 80.0362 113.601 179.288 80.838 113.8 179.136 81.2504 113.515 
197.721 80.2842 114.049 178.772 82.2073 113.757 177.847 84.0783 113.164 
177.906 84.4809 113.176 177.799 85.4653 112.864 256.512 51.8276 116.494 
253.351 52.6558 115.703 257.635 52.5255 116.374 254.785 54.88 115.14 
234.816 57.3146 114.406 252.858 57.563 114.723 252.503 58.1313 114.798 
243.96 63.4137 115.131 232.716 67.6226 115.242 222.166 71.4459 114.451 
181.166 79.1817 114.488 181.494 78.9361 115.004 182.304 78.2326 114.79 
180.297 80.0063 114.534 179.258 80.93 113.811 179.401 80.9072 114.083 
179.077 82.1443 114.258 178.122 83.4274 113.394 178.742 83.6208 113.992 
186.197 84.1795 114.521 179.031 84.9845 113.828 182.833 85.3344 113.969 
179.243 85.7988 113.36 255.987 51.0564 117.087 257.452 50.8104 117.347 
255.96 56.0914 115.882 251.167 60.2158 116.737 252.851 59.3341 116.46 
245.189 62.9625 115.553 243.21 63.6958 115.869 187.695 74.8372 115.009 
182.67 77.9199 115.426 179.721 80.6928 114.512 180.65 79.9005 115.124 
180.154 81.0318 115.318 179.109 84.5258 114.049 180.188 84.4281 114.668 
182.051 85.1426 114.352 261.421 49.3206 118.594 263.607 48.8833 118.981 
259.172 50.13 117.921 262.095 50.0579 118.178 263.438 49.6891 118.496 
256.543 50.2689 117.909 264.079 50.2542 118.472 252.583 51.4293 117.113 
262.106 51.0494 117.859 262.952 51.6624 118.05 241.696 54.3326 117 
261.489 53.5872 117.83 234.826 55.8471 117.814 254.531 58.767 117.42 
249.779 60.8782 117.843 180.592 80.9447 115.767 180.826 82.1801 115.947 
186.187 83.0205 116.294 181.675 84.0086 115.464 260.597 48.9294 118.983 
262.684 48.4413 119.35 245.179 53.3053 117.429 241.391 54.2987 117.498 
260.417 54.6127 117.741 259.449 56.2591 118.722 252.568 59.7762 117.798 
252.357 59.8805 118.249 251.233 60.3116 117.922 211.037 64.1947 118.078 
183.396 77.3195 117.181 183.3 77.4439 117.149 182.761 78.4892 117.306 
180.918 81.1818 116.133 181.461 81.1658 116.578 182.035 81.6265 116.856 
182.389 82.3528 116.71 182.652 82.7205 116.621 182.79 83.021 116.449 
268.777 47.6535 121.018 268.884 47.6726 121.102 267.748 49.0825 120.086 
256.561 49.5338 119.004 267.988 49.8429 120.251 266.474 51.4741 119.625 
265.243 52.5057 119.405 240.53 54.3986 118.307 258.959 56.7548 119.318 
250.182 60.5626 118.965 230.321 67.1203 119.288 191.451 71.5294 119.304 
183.461 77.3364 117.293 183.803 77.2201 117.554 182.432 79.5682 117.479 
182.722 79.5305 117.699 183.313 79.7939 118.021 185.062 82.2441 117.3 
268.306 47.7711 120.864 269.08 47.8847 121.186 268.975 47.573 121.328 
269.355 47.8666 121.413 269.434 47.7898 121.58 269.484 47.9393 121.545 
260.26 47.9984 120.479 251.145 50.9603 119.77 267.667 51.1141 120.425 
243.681 53.559 118.858 267.449 52.2013 121.049 238.924 54.6709 119.562 
240.86 54.375 119.913 265.363 53.2803 120.139 234.767 55.3583 119.722 
265.687 53.3952 120.623 264.248 54.2942 120.468 258.952 56.8584 120.362 
251.64 59.5312 120.62 187.877 73.9662 119.584 184.036 78.5343 118.475 
182.562 79.515 117.601 184.932 79.6391 118.838 185.194 80.1863 118.711 
[...]
POINT_DATA 1584
SCALARS scalars float
LOOKUP_TABLE default
1 1 1 1 1 1 1 1 1 
1 1 1 1 1 1 1 1 1 
1 1 1 1 1 1 1 1 1 
1 1 1 1 1 1 1 1 1 
1 1 1 1 1 1 1 1 1 
1 1 1 1 1 1 1 1 1 
1 1 1 1 1 1 1 1 1 
1 1 1 1 1 1 1 1 1 
1 1 1 1 1 1 1 1 1 
1 1 1 1 1 1 1 1 1 
1 1 1 1 1 1 1 1 1 
1 1 1 1 1 1 1 1 1 
1 1 1 1 1 1 1 1 1 
1 1 1 1 1 1 1 1 1 
1 1 1 1 1 1 1 1 1 
1 1 1 1 1 1 1 1 1 
1 1 1 1 1 1 1 1 1 
1 1 1 1 1 1 1 1 1 
1 1 1 1 1 1 1 1 1 
1 1 1 1 1 1 1 1 1 
1 1 1 1 1 1 1 1 1 
1 1 1 1 1 1 1 1 1 
1 1 1 1 1 1 1 1 1 
1 1 1 1 1 1 1 1 1 
1 1 1 1 1 1 1 1 1 
1 1 1 1 1 1 1 1 1 
1 1 1 1 1 1 1 1 1 
1 1 1 1 1 1 1 1 1 
1 1 1 1 1 1 1 1 1 
1 1 1 1 1 1 1 1 1 
1 1 1 1 1 1 1 1 1 
1 1 1 1 1 1 1 1 1 
1 1 1 1 1 1 1 1 1 
1 1 1 1 1 1 1 1 1 
1 1 1 1 1 1 1 1 1 
1 1 1 1 1 1 1 1 1 
1 1 1 1 1 1 1 1 1 
1 1 1 1 1 1 1 1 1 
1 1 1 1 1 1 1 1 1 
1 1 1 1 1 1 1 1 1 
1 1 1 1 1 1 1 1 1 
1 1 1 1 1 1 1 1 1 
1 1 1 1 1 1 1 1 1 
1 1 1 1 1 1 1 1 1 
1 1 1 1 1 1 1 1 1 
1 1 1 1 1 1 1 1 1 
1 1 1 1 1 1 1 1 1 
1 1 1 1 1 1 1 1 1 
1 1 1 1 1 1 1 1 1 
1 1 1 1 1 1 1 1 1 
1 1 1 1 1 1 1 1 1 
1 1 1 1 1 1 1 1 1 
1 1 1 1 1 1 1 1 1 
1 1 1 1 1 1 1 1 1 
1 1 1 1 1 1 1 1 1 
1 1 1 1 1 1 1 1 1 
1 1 1 1 1 1 1 1 1 
1 1 1 1 1 1 1 1 1 
1 1 1 1 1 1 1 1 1 
1 1 1 1 1 1 1 1 1 
1 1 1 1 1 1 1 1 1 
1 1 1 1 1 1 1 1 1 
1 1 1 1 1 1 1 1 1 
1 1 1 1 1 1 1 1 1 
1 1 1 1 1 1 1 1 1 
1 1 1 1 1 1 1 1 1 
1 1 1 1 1 1 1 1 1 
1 1 1 1 1 1 1 1 1 
1 1 1 1 1 1 1 1 1 
1 1 1 1 1 1 1 1 1 
1 1 1 1 1 1 1 1 1 
1 1 1 1 1 1 1 1 1 
1 1 1 1 1 1 1 1 1 
1 1 1 1 1 1 1 1 1 
1 1 1 1 1 1 1 1 1 
1 1 1 1 1 1 1 1 1 
1 1 1 1 1 1 1 1 1 
1 1 1 1 1 1 1 1 1 
1 1 1 1 1 1 1 1 1 
1 1 1 1 1 1 1 1 1 
1 1 1 1 1 1 1 1 1 
1 1 1 1 1 1 1 1 1 
1 1 1 1 1 1 1 1 1 
1 1 1 1 1 1 1 1 1 
1 1 1 1 1 1 1 1 1 
1 1 1 1 1 1 1 1 1 
1 1 1 1 1 1 1 1 1 
1 1 1 1 1 1 1 1 1 
1 1 1 1 1 1 1 1 1 
1 1 1 1 1 1 1 1 1 
1 1 1 1 1 1 1 1 1 
1 1 1 1 1 1 1 1 1 
1 1 1 1 1 1 1 1 1 
1 1 1 1 1 1 1 1 1 
1 1 1 1 1 1 1 1 1 
1 1 1 1 1 1 1 1 1 
1 1 1 1 1 1 1 1 1 
1 1 1 1 1 1 1 1 1 
1 1 1 1 1 1 1 1 1 
1 1 1 1 1 1 1 1 1 
1 1 1 1 1 1 1 1 1 
1 1 1 1 1 1 1 1 1 
1 1 1 1 1 1 1 1 1 
1 1 1 1 1 1 1 1 1 
1 1 1 1 1 1 1 1 1 
1 1 1 1 1 1 1 1 1 
1 1 1 1 1 1 1 1 1 
1 1 1 1 1 1 1 1 1 
1 1 1 1 1 1 1 1 1 
1 1 1 1 1 1 1 1 1 
1 1 1 1 1 1 1 1 1 
1 1 1 1 1 1 1 1 1 
1 1 1 1 1 1 1 1 1 
1 1 1 1 1 1 1 1 1 
1 1 1 1 1 1 1 1 1 
1 1 1 1 1 1 1 1 1 
1 1 1 1 1 1 1 1 1 
1 1 1 1 1 1 1 1 1 
1 1 1 1 1 1 1 1 1 
1 1 1 1 1 1 1 1 1 
1 1 1 1 1 1 1 1 1 
1 1 1 1 1 1 1 1 1 
1 1 1 1 1 1 1 1 1 
1 1 1 1 1 1 1 1 1 
1 1 1 1 1 1 1 1 1 
1 1 1 1 1 1 1 1 1 
1 1 1 1 1 1 1 1 1 
1 1 1 1 1 1 1 1 1 
1 1 1 1 1 1 1 1 1 
1 1 1 1 1 1 1 1 1 
1 1 1 1 1 1 1 1 1 
1 1 1 1 1 1 1 1 1 
1 1 1 1 1 1 1 1 1 
1 1 1 1 1 1 1 1 1 
1 1 1 1 1 1 1 1 1 
1 1 1 1 1 1 1 1 1 
1 1 1 1 1 1 1 1 1 
1 1 1 1 1 1 1 1 1 
1 1 1 1 1 1 1 1 1 
1 1 1 1 1 1 1 1 1 
1 1 1 1 1 1 1 1 1 
1 1 1 1 1 1 1 1 1 
1 1 1 1 1 1 1 1 1 
1 1 1 1 1 1 1 1 1 
1 1 1 1 1 1 1 1 1 
1 1 1 1 1 1 1 1 1 
1 1 1 1 1 1 1 1 1 
1 1 1 1 1 1 1 1 1 
1 1 1 1 1 1 1 1 1 
1 1 1 1 1 1 1 1 1 
1 1 1 1 1 1 1 1 1 
1 1 1 1 1 1 1 1 1 
1 1 1 1 1 1 1 1 1 
1 1 1 1 1 1 1 1 1 
1 1 1 1 1 1 1 1 1 
1 1 1 1 1 1 1 1 1 
1 1 1 1 1 1 1 1 1 
1 1 1 1 1 1 1 1 1 
1 1 1 1 1 1 1 1 1 
1 1 1 1 1 1 1 1 1 
1 1 1 1 1 1 1 1 1 
1 1 1 1 1 1 1 1 1 
1 1 1 1 1 1 1 1 1 
1 1 1 1 1 1 1 1 1 
1 1 1 1 1 1 1 1 1 
1 1 1 1 1 1 1 1 1 
1 1 1 1 1 1 1 1 1 
1 1 1 1 1 1 1 1 1 
1 1 1 1 1 1 1 1 1 
1 1 1 1 1 1 1 1 1 
1 1 1 1 1 1 1 1 1 
1 1 1 1 1 1 1 1 1 
1 1 1 1 1 1 1 1 1 
1 1 1 1 1 1 1 1 1 
1 1 1 1 1 1 1 1 1 
1 1 1 1 1 1 1 1 1 

NORMALS Normals float
0.00530422 -0.116012 -0.993234 0.0212821 -0.251052 -0.96774 -0.238613 -0.500131 -0.832426 
-0.164975 -0.18274 -0.969221 -0.11853 -0.336158 -0.934317 -0.228027 -0.29654 -0.927398 
0.00117322 -0.418035 -0.90843 0.133579 -0.21829 -0.966699 0.0947536 -0.16114 -0.982372 
0.222796 0.351834 -0.909162 0.158701 0.341265 -0.926473 0.414606 0.683685 -0.600564 
0.229025 0.524203 -0.820218 0.0756673 0.291161 -0.953677 0.0673168 0.425889 -0.902268 
-0.0235411 0.458702 -0.888278 0.181003 0.668258 -0.721574 0.377127 0.561845 -0.736278 
0.109311 0.340335 -0.933929 -0.156408 0.064216 -0.985603 0.0401585 0.455315 -0.889424 
0.223507 -0.0501856 -0.97341 0.33288 0.17532 -0.926528 -0.149066 -0.673946 -0.723585 
0.147396 0.393422 -0.907465 0.228772 0.229372 -0.946072 0.259258 0.333107 -0.906546 
0.210637 0.262096 -0.941774 -0.213824 -0.35257 -0.911029 0.134382 0.348293 -0.927703 
0.0996032 0.460254 -0.882182 0.343014 0.71549 -0.608617 -0.105951 0.140626 -0.984377 
0.171361 0.718888 -0.673673 0.364999 0.828711 -0.424281 -0.089647 0.247867 -0.964638 
-0.131458 0.29116 -0.9476 -0.0950885 0.111499 -0.989205 0.0827085 0.378834 -0.921761 
0.355097 0.604968 -0.712685 0.275705 0.893213 -0.355187 -0.185696 0.292915 -0.937933 
-0.0794435 0.566041 -0.82054 0.432435 0.648954 -0.625986 0.556925 0.777632 -0.291759 
-0.0318666 0.520863 -0.853045 -0.0507201 0.549092 -0.834222 0.0569723 0.807975 -0.586456 
0.348567 0.880076 -0.322439 -0.0321806 -0.471287 -0.881393 0.0382295 -0.471129 -0.881235 
-0.0522292 -0.606943 -0.793027 0.162033 -0.232226 -0.959071 0.264198 0.00403214 -0.96446 
0.298511 0.282935 -0.911503 0.443365 0.178667 -0.878354 0.29571 0.626082 -0.72151 
0.475571 0.414584 -0.775856 0.526102 0.663293 -0.532221 0.359855 0.636597 -0.682091 
0.382314 0.611339 -0.692893 0.155998 0.797058 -0.583407 0.393837 0.80726 -0.439571 
0.549564 0.664415 -0.506489 0.502566 0.789188 -0.353001 0.347784 0.887123 -0.303412 
0.332037 0.637741 -0.69501 0.42214 0.878592 -0.223324 0.223492 0.947125 -0.230228 
-0.330322 -0.14708 -0.932339 -0.293516 -0.183705 -0.938137 -0.208367 -0.232802 -0.94994 
-0.296211 0.00386652 -0.955115 -0.124288 0.16339 -0.978701 -0.0431782 0.573278 -0.818223 
0.36603 0.878679 -0.306504 -0.290756 -0.246986 -0.924369 -0.122278 0.07722 -0.989487 
-0.36132 0.31922 -0.876097 0.0861833 0.649989 -0.755041 0.527259 0.767815 -0.363949 
0.0328251 0.62802 -0.777505 0.3083 0.951268 -0.0063617 0.0309149 0.581756 -0.812775 
-0.0981154 0.701815 -0.70557 -0.0882978 -0.501263 -0.860778 0.0396847 -0.29727 -0.953968 
-0.122583 -0.518976 -0.845954 -0.0553111 -0.383881 -0.921724 -0.200388 -0.622451 -0.75657 
0.113508 -0.126217 -0.985487 0.412215 0.399289 -0.81893 0.477335 0.56698 -0.671331 
0.424186 0.550024 -0.719402 0.369386 0.509959 -0.77685 0.449521 0.770135 -0.452574 
0.462103 0.72733 -0.507397 -0.308911 -0.725063 -0.615514 0.436444 0.88604 -0.156362 
0.259576 0.920549 -0.291907 0.262912 0.963131 0.0570629 0.245196 0.96747 -0.0622933 
-0.146541 0.066727 -0.986952 0.446977 0.85356 -0.267669 0.365079 0.912292 -0.185584 
-0.389035 -0.392422 -0.833461 -0.298833 -0.151303 -0.942235 -0.207911 -0.290873 -0.933898 
-0.257542 -0.310074 -0.915165 -0.161549 0.153901 -0.974791 -0.0309704 0.204527 -0.978371 
-0.0996304 0.158726 -0.982283 -0.079882 0.357153 -0.930624 -0.253886 -0.274821 -0.92737 
-0.497397 -0.461145 -0.734807 -0.381768 -0.0840747 -0.920427 0.118397 0.737152 -0.665273 
0.154964 0.882849 -0.443355 0.232848 0.891194 -0.3893 0.107041 -0.451139 -0.886011 
0.130058 -0.115616 -0.984743 0.258371 -0.175551 -0.949961 0.382177 0.193795 -0.90354 
0.326607 0.108756 -0.938882 0.326637 0.12738 -0.936527 0.362905 0.44706 -0.81758 
0.364421 0.93101 0.0204429 0.293773 0.930928 0.216957 -0.431558 -0.5528 -0.71286 
-0.331806 -0.507721 -0.795063 0.17812 0.975448 -0.129514 -0.287719 -0.236366 -0.928089 
-0.462334 -0.393841 -0.794441 -0.416801 -0.558369 -0.717288 -0.181313 -0.0576776 -0.981733 
-0.0514486 0.469075 -0.881658 -0.445863 -0.295058 -0.845072 -0.697235 -0.640848 -0.321211 
-0.167105 -0.0382197 -0.985198 -0.015576 0.485778 -0.873943 -0.285885 -0.837205 -0.466217 
-0.71839 -0.36335 0.593206 -0.807214 -0.156319 -0.569184 -0.199663 -0.292264 -0.935263 
-0.646753 -0.74278 0.173169 -0.130922 0.165962 -0.977403 -0.00702972 0.440525 -0.897713 
0.042196 0.564688 -0.824225 0.133958 0.740485 -0.658587 0.0877198 0.262562 -0.96092 
-0.220887 0.785099 -0.578643 -0.805614 0.589472 -0.059228 -0.308043 0.460106 -0.832713 
-0.0824458 0.453163 -0.887607 -0.00268124 0.554196 -0.832382 0.153606 0.945448 -0.287286 
0.243125 0.822151 -0.514741 0.287623 0.892389 -0.347729 -0.721191 0.399246 -0.566115 
-0.131757 -0.689373 -0.712323 -0.168106 -0.690327 -0.703696 0.314575 0.100791 -0.943866 
0.349845 0.276287 -0.895139 -0.305288 -0.824409 -0.476602 0.455884 0.776818 -0.434423 
0.405532 0.736875 -0.540887 0.374388 0.9263 -0.0424506 0.300438 0.951027 0.0727016 
-0.594802 -0.615791 -0.516732 -0.764334 -0.637835 -0.0946611 -0.466606 0.878159 0.105429 
-0.750495 0.2936 0.592078 -0.873849 -0.28276 0.395517 0.11534 0.72185 -0.68237 
0.252013 0.92004 -0.300027 -0.972676 0.0494725 0.226835 -0.0935918 0.609166 -0.787501 
0.0752846 0.762779 -0.642262 0.28894 0.88566 -0.363484 -0.726218 0.157165 -0.669258 
-0.962539 -0.108948 0.248294 -0.988954 0.128782 -0.0733809 -0.221258 0.446537 -0.866977 
-0.0913458 0.642323 -0.760971 0.319515 0.940852 -0.112727 -0.738662 0.460231 -0.492509 
-0.659766 0.741339 0.122979 -0.18477 0.596441 -0.781101 -0.355798 0.934116 -0.0288894 
-0.574171 0.818409 0.0231385 -0.119363 0.689214 -0.714658 0.114358 0.656069 -0.745986 
0.0804617 0.74771 -0.659132 -0.031131 0.686215 -0.726733 0.127334 0.760436 -0.636807 
0.115734 -0.609689 -0.784146 0.151524 -0.42412 -0.89284 0.182472 -0.306038 -0.934368 
0.187915 -0.176891 -0.966125 0.0278738 -0.576603 -0.816549 0.438768 0.49069 -0.752798 
0.427191 0.903455 -0.0357396 0.133783 0.965697 0.222558 0.313476 0.922237 0.2263 
-0.551577 -0.658203 -0.512378 -0.699559 -0.681364 -0.215314 -0.76224 -0.561903 -0.321333 
-0.838338 -0.537319 -0.092073 -0.860897 -0.488181 0.143303 0.294944 0.955514 0.000566429 
-0.797725 0.206361 0.566613 -0.61146 0.520967 0.595575 0.188913 0.9452 -0.266286 
0.223643 0.97077 0.0871166 -0.101055 0.824498 -0.556768 0.251595 0.946201 -0.203478 
-0.538391 0.813369 -0.220376 -0.157249 0.90907 -0.385831 0.255008 0.896875 -0.361368 
-0.148117 0.970551 -0.18998 0.0987387 0.957904 -0.269575 0.0876584 -0.379947 -0.920845 
0.189033 -0.289126 -0.938442 0.313348 -0.152805 -0.937264 0.208765 0.003256 -0.97796 
-0.347424 -0.785038 -0.512847 0.293081 0.95589 -0.0194486 -0.623056 -0.728917 -0.283692 
-0.597425 -0.795651 -0.100119 -0.819703 -0.509049 0.262595 -0.86437 -0.500709 0.0464159 
-0.842186 -0.0440443 0.537385 -0.869547 -0.072774 0.488459 -0.788169 -0.00771423 0.615411 
0.353656 0.918752 0.175563 -0.715259 0.242069 0.655597 -0.685288 0.505026 0.524718 
-0.46287 0.380532 0.800591 0.215579 0.973847 0.0717517 0.197428 0.958682 0.204819 
-0.696647 0.429123 0.574923 -0.74211 0.61283 0.271498 -0.529726 0.393488 0.75137 
-0.323638 0.801751 0.502448 -0.212307 0.974186 -0.0767256 0.152837 0.97044 0.186779 
0.244318 -0.421366 -0.873361 0.276194 -0.283126 -0.918453 0.428333 0.0651689 -0.901268 
0.319298 0.0293482 -0.9472 0.446926 0.238982 -0.862058 0.329482 0.377597 -0.865368 
0.477063 0.420125 -0.771949 0.512243 0.535632 -0.671346 0.352157 0.570135 -0.742247 
0.53916 0.597441 -0.593608 0.450859 0.677737 -0.580861 0.302055 0.647081 -0.700035 
0.507056 0.77435 -0.37852 0.388215 0.855718 -0.342104 -0.41197 -0.837054 -0.360028 
-0.52437 -0.807545 -0.270014 -0.849164 -0.359876 0.386535 -0.762713 -0.165158 0.625294 
-0.73404 -0.00214833 0.679103 -0.317948 0.518468 0.793788 0.0611213 0.896509 0.438789 
-0.175627 0.693804 0.69842 0.0138629 0.86979 0.493228 -0.103991 0.748297 0.655162 
0.0393666 -0.330949 -0.942827 0.200407 -0.341833 -0.918144 0.0813737 -0.622914 -0.778047 
-0.200839 -0.831998 -0.517149 0.445681 0.798191 -0.405289 0.537705 0.7196 -0.439375 
0.454312 0.87148 0.184724 -0.527816 -0.821051 -0.21745 -0.664498 -0.694308 0.276367 
-0.656916 -0.724582 -0.208428 -0.839477 -0.537951 0.0767248 -0.890335 -0.434987 0.134501 
0.315634 0.903842 0.28887 -0.825341 -0.270763 0.49548 -0.818653 -0.146213 0.555363 
-0.692652 0.0559889 0.719096 -0.565155 0.322472 0.75935 0.0704491 -0.568928 -0.819364 
0.0210703 -0.564825 -0.824942 0.224549 -0.331321 -0.916408 0.221972 -0.10131 -0.969776 
-0.305361 -0.813842 -0.494384 0.609448 0.454936 -0.649312 0.57762 0.487702 -0.6546 
0.321386 0.946767 -0.0185448 0.311129 0.911201 0.27002 0.155127 0.925972 0.344255 
-0.647359 -0.757854 0.081138 -0.613661 -0.787995 -0.0498387 -0.676654 -0.736228 0.0103956 
-0.63079 -0.768185 0.109522 -0.926966 -0.184848 0.326444 -0.855123 -0.282832 0.434477 
-0.838805 -0.22859 0.494118 -0.785556 -0.12425 0.606188 -0.681922 0.0599078 0.728967 
0.186856 0.87287 0.450758 -0.249073 0.452795 0.856119 0.171089 0.83295 0.526234 
-0.154252 0.621237 0.768291 -0.0633005 -0.691181 -0.719904 0.0637717 -0.666269 -0.74298 
0.457994 0.282605 -0.842838 0.365213 0.912987 -0.181864 0.361385 0.859388 -0.361736 
0.428514 0.896823 -0.10993 0.33154 0.943169 0.0226544 -0.490906 -0.811733 -0.316387 
-0.645949 -0.763359 0.00576783 -0.641502 -0.614921 0.458636 -0.71039 -0.489856 0.505359 
-0.754247 -0.163837 0.635822 -0.466006 0.277385 0.840176 -0.353979 0.457679 0.815616 
0.00819561 0.772039 0.635522 -0.0596512 -0.663811 -0.745518 0.142765 -0.588871 -0.795518 
0.00974945 -0.66558 -0.746263 0.0907261 -0.362651 -0.927498 0.119058 -0.416991 -0.901079 
-0.0265696 -0.755468 -0.654647 0.309956 -0.229899 -0.922536 -0.194955 -0.890358 -0.411405 
0.281625 -0.0586617 -0.95773 0.317051 -0.00439044 -0.948398 -0.230937 -0.949366 -0.213008 
0.39412 0.322214 -0.860725 -0.32534 -0.905949 -0.270945 0.487234 0.809063 -0.328664 
0.262164 0.955064 0.138287 -0.638468 -0.429179 0.638877 -0.555747 0.250098 0.79284 
0.06458 0.772332 0.631928 -0.122946 0.617627 0.776802 -0.00670969 -0.604576 -0.796519 
-0.0756511 -0.758316 -0.647483 -0.252522 -0.95367 -0.16354 -0.259618 -0.944387 -0.201819 
0.458128 0.448845 -0.76724 0.508762 0.735609 -0.447259 0.403597 0.914906 -0.00750303 
0.375599 0.926209 0.0325868 0.334321 0.940397 -0.0623095 -0.344679 -0.832495 -0.433761 
-0.680285 -0.681394 0.270027 -0.794066 -0.359054 0.490447 -0.695604 -0.454251 0.55659 
-0.631871 -0.0964955 0.769043 -0.659099 -0.0349074 0.751245 -0.437883 0.218929 0.871968 
-0.360623 0.437663 0.823652 -0.228394 0.423104 0.876823 -0.334844 0.56783 0.751963 
0.388617 -0.586346 -0.710756 0.637291 -0.493074 -0.592232 0.530449 -0.0883412 -0.843101 
-0.168869 -0.876528 -0.450758 0.704208 0.193513 -0.683113 0.508536 0.297277 -0.808095 
0.495538 0.486336 -0.719666 -0.293784 -0.948338 -0.119776 0.443003 0.890148 -0.106705 
0.228499 0.957599 0.175479 0.383581 0.857818 0.342073 -0.493652 -0.864959 -0.0902956 
-0.686563 -0.312593 0.656443 -0.664141 -0.357043 0.656838 -0.68873 -0.00708843 0.724983 
-0.509189 0.0207527 0.860404 -0.416588 0.237951 0.877402 -0.0541962 0.660429 0.74893 
0.134271 -0.716146 -0.684914 0.631908 -0.285816 -0.720417 0.434676 -0.758233 -0.485943 
0.639679 -0.391223 -0.661631 0.769603 -0.536065 -0.346907 0.865352 -0.182902 -0.466598 
-0.133924 -0.874947 -0.465331 -0.290191 -0.950114 -0.114339 0.776328 0.362092 -0.51595 
-0.271038 -0.953321 0.133105 0.467527 0.695407 -0.545736 -0.210349 -0.973017 -0.0948238 
-0.136658 -0.977561 0.160312 0.484952 0.702434 -0.520968 -0.358486 -0.926128 -0.117367 
0.52984 0.695218 -0.485738 0.44221 0.790134 -0.424428 0.411282 0.911412 -0.0132432 
0.438783 0.759456 0.480308 -0.672197 -0.694696 0.256026 -0.552312 -0.213574 0.805815 
-0.610991 -0.060468 0.789325 -0.274882 0.238534 0.931419 -0.186042 0.40965 0.893071 
0.660253 -0.698684 -0.275512 -0.180444 -0.875386 -0.448486 -0.0536261 -0.853426 -0.518448 
0.934355 -0.0675622 -0.349881 -0.370985 -0.921312 -0.116425 -0.339929 -0.932186 0.124408 
0.865847 0.0579957 -0.496937 0.742983 0.214524 -0.633999 0.829296 0.128591 -0.543813 
-0.293695 -0.927445 0.231494 -0.31798 -0.889216 0.328912 0.73919 0.555463 -0.380867 
0.563493 0.768851 -0.302232 -0.107636 -0.994131 -0.010859 0.534434 0.808571 -0.246157 
-0.27181 -0.955342 -0.11594 0.508828 0.860824 -0.00868073 0.119436 0.808888 0.575705 
-0.654429 -0.729093 0.200365 -0.671274 -0.577325 0.464851 -0.613879 -0.278942 0.738474 
0.318729 0.876513 0.360745 -0.440754 0.134694 0.887464 -0.107263 0.526809 0.843188 
0.332014 -0.852899 -0.402902 0.141066 -0.898587 -0.415501 -0.288563 -0.935957 -0.201781 
0.707611 -0.694489 0.130276 0.872696 -0.487822 -0.0207762 0.92411 -0.364048 0.116146 
-0.430652 -0.898547 0.0845664 -0.413983 -0.853864 0.315489 0.98996 -0.107117 -0.092225 
0.787393 0.454082 -0.416919 0.879363 0.270339 -0.391966 -0.0612737 -0.943383 0.325997 
-0.454679 -0.453115 -0.766781 0 0 0 -0.0524055 -0.920084 0.388199 
-0.454679 -0.453115 -0.766781 -0.408248 -0.816497 -0.408248 0.616606 0.733645 -0.28559 
0.843257 0.487977 -0.225381 0.447214 0 0.894427 0.425479 0.118201 0.897216 
-0.265505 -0.867771 0.420095 0.571358 0.816362 -0.08428 0.697756 0.715529 -0.0339943 
-0.145915 -0.960516 0.236893 -0.181097 -0.873887 0.451139 0.654264 0.755909 0.023243 
0.457877 0.870865 -0.178724 0.468976 0.882716 -0.0295585 0.301714 0.922851 0.239406 
0.3642 0.901121 0.235244 0.231942 0.724881 0.648652 0.332781 0.852059 0.404046 
-0.702484 -0.402222 0.58714 -0.533398 0.120283 0.837269 0.448467 -0.874797 -0.183322 
-0.21846 -0.959058 -0.18023 -0.33702 -0.936242 -0.0993431 0.771586 -0.636003 0.0124332 
-0.355613 -0.932694 0.0601718 0.983667 -0.130072 0.124419 0.980747 0.0964032 -0.169829 
0 0 0 -0.460569 -0.517211 -0.721366 0.717471 0.611946 0.332803 
-0.353637 -0.797031 0.489574 -0.259072 -0.786275 0.56094 0.609702 0.750348 0.255425 
0.00373251 -0.895323 0.445401 -0.127572 -0.798268 0.588637 -0.266453 -0.660936 0.701545 
-0.276245 -0.643288 0.714051 -0.164123 -0.973965 0.156383 -0.216408 -0.559031 0.800407 
0.354123 0.869072 0.345415 -0.280809 -0.956187 -0.0827859 -0.202526 -0.659418 0.723983 
0.483894 0.818484 0.309727 -0.450435 -0.860412 -0.238328 -0.625429 -0.740913 0.244718 
-0.683189 -0.612861 0.397057 -0.595378 -0.642357 0.4826 -0.643532 -0.464052 0.608706 
0.113613 0.788134 0.604928 0.00627327 -0.96387 -0.266301 -0.349439 -0.925554 0.145748 
0.694539 -0.718937 -0.0273184 -0.385937 -0.86063 0.332218 -0.465662 -0.785644 0.407336 
0.943057 -0.309466 0.121964 -0.401298 -0.676303 0.617717 0.98327 0.143344 0.112398 
-0.405883 -0.387196 0.827852 -0.00644018 -0.93406 0.357058 -0.142128 -0.975362 0.168724 
-0.344503 -0.534319 0.771894 -0.186815 -0.956011 0.226149 -0.333485 -0.200898 0.921101 
0.0862034 -0.316752 0.944583 -0.0304339 -0.423433 0.905416 0.147709 0.788414 0.597148 
-0.480483 -0.876777 -0.0199692 -0.585393 -0.23301 0.776545 -0.55615 -0.201266 0.806343 
-0.549962 -0.0863189 0.830717 -0.426921 0.245279 0.870389 -0.478487 0.164704 0.86251 
0.0854508 0.796248 0.598906 0.214845 -0.966938 -0.137376 0.697007 -0.716657 0.0241656 
-0.375912 -0.891189 0.253912 -0.506022 -0.646394 0.571065 0.933714 -0.223965 0.279316 
-0.454843 -0.475064 0.753281 0.969097 0.0346122 0.244242 -0.398082 -0.301336 0.866445 
-0.00225509 -0.925028 0.379892 -0.102608 -0.93188 0.347953 -0.165923 -0.15206 0.974345 
-0.314915 -0.101698 0.943656 -0.240713 -0.970138 0.0298249 -0.340202 0.165269 0.925715 
0.202742 -0.514784 0.833002 -0.0650219 -0.243656 0.96768 0.0661356 0.659166 0.749084 
0.398598 0.113483 0.910078 0.311537 0.00721703 0.950207 0.323098 0.0542702 0.944808 
0.276266 0.547472 0.789906 -0.220915 -0.960264 -0.170555 0.362936 0.727181 0.582654 
-0.425492 -0.8865 -0.181863 0.231987 0.893291 0.384985 -0.586562 -0.791126 0.17339 
-0.702544 -0.521768 0.483932 -0.640367 -0.240748 0.729363 -0.426322 0.195258 0.883246 
-0.441049 0.168904 0.881446 -0.00897217 0.740845 0.671616 0.176103 0.780486 0.599858 
-0.250947 0.493604 0.832695 0.0137176 -0.999775 -0.0161861 0.409525 -0.905623 0.110163 
-0.308125 -0.90402 0.296323 0.61076 -0.776139 0.156781 0.84831 -0.469387 0.245041 
-0.403213 -0.755314 0.516642 -0.395293 -0.57937 0.712793 0.889243 0.330408 0.316351 
0.399387 0.722204 0.564723 -0.0738095 -0.950046 0.303258 0.296329 0.764328 0.572705 