# vtk DataFile Version 4.2
vtk output
ASCII
DATASET POLYDATA
POINTS 3641 float
234.99 86.4474 103.277 235.015 86.4357 103.283 234.78 86.4886 103.317 
234.932 86.4596 103.288 234.763 86.3366 103.561 234.896 86.2553 103.617 
234.94 86.3693 103.421 235.003 86.4196 103.313 234.124 86.6033 103.454 
234.485 86.5382 103.383 233.147 86.8119 103.582 233.775 86.6702 103.513 
234.635 86.2734 103.724 234.879 86.1178 103.841 233.239 86.5949 103.895 
232.726 86.8192 103.771 234.5 86.3853 103.617 234.672 86.4083 103.495 
234.555 86.2723 103.772 229.55 87.7194 103.777 230.708 87.4315 103.711 
230.321 87.5329 103.726 231.947 87.0905 103.692 231.326 87.2611 103.703 
224.189 88.6941 104.771 223.993 88.7324 104.818 223.953 88.739 104.827 
224.528 88.6317 104.693 224.485 88.6408 104.705 224.9 88.5654 104.607 
225.065 88.5398 104.569 227.174 88.1898 104.115 225.317 88.4949 104.514 
227.756 88.0922 103.997 228.718 87.8947 103.875 229.948 87.6193 103.757 
230.987 87.3616 103.696 231.917 87.1205 103.657 221.146 89.9093 104.622 
221.178 89.874 104.659 223.96 88.7343 104.837 221.156 89.9085 104.618 
221.127 89.9023 104.644 221.103 89.8804 104.693 213.715 92.5219 104.777 
213.714 92.5175 104.785 213.747 92.3957 104.947 213.718 92.5062 104.799 
234.632 85.8547 104.425 234.864 86.0318 103.986 233.667 86.1129 104.482 
234.833 86.1366 103.841 233.139 86.6516 103.853 233.319 86.5476 103.938 
233.473 86.4152 104.079 224.484 88.6366 104.721 226.032 88.3776 104.361 
226.505 88.2907 104.283 230.309 87.5363 103.726 233.134 86.6579 103.846 
231.043 87.3471 103.694 233.238 86.6087 103.876 223.654 88.8013 104.899 
223.232 88.8989 104.99 227.501 88.1257 104.07 228.251 87.9834 103.95 
229.185 87.7913 103.83 230.373 87.5168 103.728 221.268 89.7708 104.767 
223.118 88.9099 105.04 220.907 89.8796 104.808 213.816 92.3124 105.033 
213.784 92.2614 105.128 213.853 92.3175 105.005 220.927 89.8759 104.802 
213.858 92.3146 105.006 220.988 89.86 104.791 221.058 89.8579 104.754 
213.697 92.446 104.9 213.723 92.4494 104.88 213.776 92.3407 105.013 
213.701 92.4586 104.879 213.709 92.486 104.834 234.519 85.6281 104.889 
234.492 85.5301 105.08 234.504 85.5424 105.056 233.353 85.7157 105.333 
234.265 85.285 105.685 234.538 85.6887 104.779 234.714 85.9292 104.253 
234.793 85.9653 104.139 233.572 85.8501 104.934 233.582 85.8593 104.911 
233.58 85.8805 104.907 233.546 85.8336 104.991 228.083 86.4315 107.099 
227.985 86.3967 107.198 228.163 86.4667 107.009 228.136 86.4471 107.051 
228.2 86.4853 106.963 228.192 86.4802 106.974 233.591 85.8714 104.89 
233.291 86.5722 103.912 228.204 86.4865 106.959 233.608 85.9024 104.843 
233.489 86.4118 104.078 222.546 89.0099 105.219 225.194 88.4976 104.596 
226.1 88.3551 104.374 225.082 88.511 104.627 227.407 88.1364 104.101 
228.414 87.9509 103.928 229.364 87.7549 103.806 228.179 86.4727 106.992 
222.399 89.1306 105.112 221.499 89.5533 104.974 216.507 91.0044 105.017 
216.507 91.0044 105.017 216.506 91.0045 105.018 216.507 91.0043 105.017 
216.507 91.0043 105.017 220.912 89.8719 104.817 216.507 91.0043 105.017 
220.931 89.8405 104.856 213.561 92.0549 105.562 213.683 92.1301 105.382 
216.506 91.0045 105.018 216.507 91.0044 105.017 213.84 92.3023 105.035 
213.678 92.3726 105.02 213.689 92.4208 104.942 213.713 92.243 105.195 
234.29 84.831 106.54 234.444 85.4553 105.252 237.221 83.7941 107.351 
233.392 85.3345 106.037 234.555 85.0304 106.044 234.449 85.4263 105.317 
237.504 83.7496 107.331 237.927 83.614 107.436 233.571 85.8475 104.939 
233.578 85.8535 104.921 232.496 85.5869 106.03 233.568 85.8346 104.992 
233.577 85.8545 104.93 228.068 86.3826 107.18 228.137 86.4425 107.058 
228.183 86.4737 106.989 233.586 85.8644 104.902 222.613 88.8435 105.45 
224.226 88.6394 104.871 224.623 88.5776 104.756 224.169 88.6406 104.894 
227.841 86.3553 107.327 221.183 89.2933 105.575 223.795 88.6923 105.013 
220.936 89.815 104.893 221.041 89.7182 104.984 221.238 89.5454 105.141 
221.039 89.2184 105.781 213.356 91.5579 106.444 213.495 91.7386 106.085 
213.472 91.5873 106.335 216.506 91.0045 105.018 213.484 91.6886 106.168 
216.507 91.0044 105.017 213.312 91.7632 106.131 213.546 91.8933 105.82 
213.5 91.7501 106.065 213.278 91.826 106.045 213.363 91.8473 105.975 
213.659 92.2898 105.155 238.228 83.0722 108.373 239.104 82.7643 108.631 
239.765 82.4512 108.983 240.429 82.1511 109.305 235.431 84.3912 106.899 
236.533 83.9594 107.296 238.319 83.2378 108.013 231.482 85.5854 106.588 
232.512 85.4736 106.235 234.432 84.3229 107.431 228.25 86.1159 107.491 
228.503 86.0252 107.501 230.616 85.677 106.904 231.453 85.6056 106.566 
233.578 85.8536 104.922 226.748 86.3535 107.823 228.025 86.261 107.384 
220.788 89.0031 106.278 221.858 88.8798 105.835 222.394 88.8504 105.565 
223.16 88.7729 105.244 223.757 88.6972 105.03 226.725 86.4011 107.757 
227.457 86.3256 107.546 220.46 89.1849 106.181 219.692 89.2151 106.592 
215.302 90.1718 107.584 215.08 90.2538 107.574 215.719 90.0322 107.579 
215.604 90.0713 107.578 216.316 89.8582 107.526 216.375 89.8186 107.562 
218.817 89.3583 106.882 216.499 89.784 107.548 219.856 89.2314 106.468 
213.499 91.3199 106.744 215.128 90.2396 107.571 213.479 91.6745 106.194 
215.823 89.9964 107.579 216.224 89.8666 107.567 213.235 91.814 106.083 
213.227 91.8195 106.078 213.263 91.8008 106.092 213.126 91.2146 107.124 
213.241 91.8219 106.068 239.883 82.2417 109.348 240.685 82.0009 109.492 
241.294 81.6459 109.927 235.393 84.1109 107.439 236.308 83.9167 107.461 
237.341 83.5619 107.756 238.416 82.6922 109.05 229.797 85.7739 107.195 
230.316 85.6892 107.05 233.732 83.8241 108.715 231.688 85.568 106.504 
230.944 85.6302 106.803 234.113 84.0136 108.168 228.869 85.9297 107.455 
225.329 86.6548 107.978 225.214 86.6778 107.992 225.622 86.5959 107.941 
226.038 86.5108 107.891 227.394 86.1713 107.83 221.296 88.8516 106.217 
225.366 86.6493 107.97 225.882 86.5518 107.895 216.7 89.7434 107.499 
217.988 89.4785 107.18 218.86 89.3355 106.895 220.998 88.845 106.407 
213.441 90.8107 107.591 214.492 90.5078 107.492 215.619 90.0668 107.576 
217.018 89.6828 107.41 216.628 89.757 107.517 218.073 89.4765 107.13 
218.715 89.3708 106.922 211.591 91.1929 108.048 211.385 91.2227 108.121 
212.453 91.0518 107.772 213.677 90.9828 107.184 215.456 90.1171 107.586 
216.27 89.8667 107.539 211.275 91.2433 108.154 211.139 91.2651 108.2 
211.09 91.2739 108.216 211.461 91.2175 108.086 211.713 91.185 107.99 
211.404 91.2262 108.106 212.475 91.1133 107.662 211.158 91.2635 108.192 
211.224 91.253 108.169 239.726 82.2122 109.469 241.869 81.3381 110.274 
242.379 81.0607 110.58 242.932 80.7503 110.912 239.326 82.396 109.269 
239.637 82.3726 109.19 234.05 83.7963 108.63 234.415 83.9947 108.068 
234.798 84.0842 107.729 237.335 82.5392 109.793 234.994 84.102 107.615 
237.996 82.5582 109.486 233.381 83.6919 109.146 230.371 85.6783 107.036 
229.879 85.7268 107.229 227.722 86.0015 107.969 227.756 85.9367 108.074 
224.955 86.7278 108.027 224.95 86.7288 108.028 224.916 86.7353 108.033 
225.066 86.7063 108.012 225.08 86.7038 108.01 221.068 88.7876 106.459 
221.036 88.7801 106.49 221.129 88.8062 106.391 224.957 86.7276 108.027 
225.076 86.7048 108.01 225.185 86.6844 107.995 225.42 86.6396 107.961 
217.174 89.6004 107.469 217.065 89.6191 107.503 217.427 89.5632 107.377 
217.728 89.5289 107.251 221.024 88.7927 106.477 213.983 90.588 107.636 
213.867 90.6244 107.642 214.202 90.5168 107.63 216.025 89.9409 107.555 
215.265 90.1728 107.601 216.853 89.7108 107.463 211.64 91.1749 108.044 
211.515 91.1981 108.082 211.89 91.139 107.957 213.784 90.6635 107.628 
211.014 91.2866 108.241 211.006 91.288 108.243 210.974 91.2936 108.254 
211.091 91.2736 108.215 211.325 91.2355 108.137 211.114 91.2701 108.207 
211.016 91.2866 108.24 211.057 91.28 108.226 243.992 79.9943 111.764 
244.502 79.7262 111.965 243.216 80.4636 111.297 243.483 80.4093 111.274 
244.016 80.0606 111.634 238.36 82.2717 109.904 239.092 82.171 109.807 
239.835 81.98 109.881 235.971 82.7406 109.958 235.452 82.8725 109.911 
235.29 82.9286 109.868 233.982 83.5539 109.159 234.32 83.949 108.203 
235.642 82.8208 109.937 236.502 82.634 109.949 234.623 84.0431 107.883 
232.782 83.6416 109.531 228.875 85.8346 107.613 228.432 85.8625 107.819 
233.001 83.6442 109.422 227.786 85.8938 108.139 227.764 85.9003 108.14 
224.952 86.7286 108.028 225.038 86.7121 108.015 225.195 86.6821 107.994 
227.763 85.918 108.107 214.442 90.4369 107.627 214.779 90.3267 107.619 
211.697 91.1658 108.025 211.598 91.181 108.058 210.985 91.2919 108.25 
211.021 91.2856 108.238 204 93.0087 110.017 204 93.0087 110.017 
204 93.0088 110.017 204 93.0088 110.017 204 93.0088 110.017 
246.129 78.7194 112.793 246.515 78.5132 112.921 246.812 78.3394 113.036 
244.024 79.8573 111.995 245.413 79.1353 112.495 244.545 79.6946 112.007 
246.285 78.6326 112.856 240.942 81.322 110.704 243.28 80.3242 111.528 
243.381 80.3997 111.34 243.907 79.9291 111.943 236.787 82.4478 110.196 
237.739 82.2449 110.206 238.787 81.5503 111.144 240.478 81.6915 110.181 
233.637 83.4371 109.558 234.647 83.1652 109.665 232.725 83.6312 109.58 
232.681 83.6389 109.585 232.904 83.6076 109.545 233.369 83.5373 109.474 
227.854 85.8902 108.106 228.001 85.8847 108.03 232.698 83.6421 109.57 
204 93.0087 110.018 247.229 78.0589 113.246 245.096 78.9991 112.935 
247.063 78.1902 113.134 242.718 80.2683 111.952 238.334 81.7125 111.008 
240.687 81.0952 111.244 237.691 82.055 110.597 238.203 81.7559 110.976 
238.765 81.5584 111.136 239.362 81.4092 111.186 240.526 81.2115 111.091 
234.243 83.2375 109.696 234.74 83.0685 109.823 235.126 82.9325 109.93 
235.525 82.8029 110.02 236.443 82.5095 110.217 236.948 82.2811 110.457 
247.913 77.5326 113.682 247.544 77.8147 113.451 247.196 78.0885 113.22 
244.415 79.2576 112.922 242.995 79.8926 112.667 243.609 79.6901 112.623 
238.142 81.7231 111.063 239.233 81.4165 111.225 239.788 81.2935 111.237 
[...]
POINT_DATA 3641
SCALARS scalars float
LOOKUP_TABLE default
1 1 1 1 1 1 1 1 1 
1 1 1 1 1 1 1 1 1 
1 1 1 1 1 1 1 1 1 
1 1 1 1 1 1 1 1 1 
1 1 1 1 1 1 1 1 1 
1 1 1 1 1 1 1 1 1 
1 1 1 1 1 1 1 1 1 
1 1 1 1 1 1 1 1 1 
1 1 1 1 1 1 1 1 1 
1 1 1 1 1 1 1 1 1 
1 1 1 1 1 1 1 1 1 
1 1 1 1 1 1 1 1 1 
1 1 1 1 1 1 1 1 1 
1 1 1 1 1 1 1 1 1 
1 1 1 1 1 1 1 1 1 
1 1 1 1 1 1 1 1 1 
1 1 1 1 1 1 1 1 1 
1 1 1 1 1 1 1 1 1 
1 1 1 1 1 1 1 1 1 
1 1 1 1 1 1 1 1 1 
1 1 1 1 1 1 1 1 1 
1 1 1 1 1 1 1 1 1 
1 1 1 1 1 1 1 1 1 
1 1 1 1 1 1 1 1 1 
1 1 1 1 1 1 1 1 1 
1 1 1 1 1 1 1 1 1 
1 1 1 1 1 1 1 1 1 
1 1 1 1 1 1 1 1 1 
1 1 1 1 1 1 1 1 1 
1 1 1 1 1 1 1 1 1 
1 1 1 1 1 1 1 1 1 
1 1 1 1 1 1 1 1 1 
1 1 1 1 1 1 1 1 1 
1 1 1 1 1 1 1 1 1 
1 1 1 1 1 1 1 1 1 
1 1 1 1 1 1 1 1 1 
1 1 1 1 1 1 1 1 1 
1 1 1 1 1 1 1 1 1 
1 1 1 1 1 1 1 1 1 
1 1 1 1 1 1 1 1 1 
1 1 1 1 1 1 1 1 1 
1 1 1 1 1 1 1 1 1 
1 1 1 1 1 1 1 1 1 
1 1 1 1 1 1 1 1 1 
1 1 1 1 1 1 1 1 1 
1 1 1 1 1 1 1 1 1 
1 1 1 1 1 1 1 1 1 
1 1 1 1 1 1 1 1 1 
1 1 1 1 1 1 1 1 1 
1 1 1 1 1 1 1 1 1 
1 1 1 1 1 1 1 1 1 
1 1 1 1 1 1 1 1 1 
1 1 1 1 1 1 1 1 1 
1 1 1 1 1 1 1 1 1 
1 1 1 1 1 1 1 1 1 
1 1 1 1 1 1 1 1 1 
1 1 1 1 1 1 1 1 1 
1 1 1 1 1 1 1 1 1 
1 1 1 1 1 1 1 1 1 
1 1 1 1 1 1 1 1 1 
1 1 1 1 1 1 1 1 1 
1 1 1 1 1 1 1 1 1 
1 1 1 1 1 1 1 1 1 
1 1 1 1 1 1 1 1 1 
1 1 1 1 1 1 1 1 1 
1 1 1 1 1 1 1 1 1 
1 1 1 1 1 1 1 1 1 
1 1 1 1 1 1 1 1 1 
1 1 1 1 1 1 1 1 1 
1 1 1 1 1 1 1 1 1 
1 1 1 1 1 1 1 1 1 
1 1 1 1 1 1 1 1 1 
1 1 1 1 1 1 1 1 1 
1 1 1 1 1 1 1 1 1 
1 1 1 1 1 1 1 1 1 
1 1 1 1 1 1 1 1 1 
1 1 1 1 1 1 1 1 1 
1 1 1 1 1 1 1 1 1 
1 1 1 1 1 1 1 1 1 
1 1 1 1 1 1 1 1 1 
1 1 1 1 1 1 1 1 1 
1 1 1 1 1 1 1 1 1 
1 1 1 1 1 1 1 1 1 
1 1 1 1 1 1 1 1 1 
1 1 1 1 1 1 1 1 1 
1 1 1 1 1 1 1 1 1 
1 1 1 1 1 1 1 1 1 
1 1 1 1 1 1 1 1 1 
1 1 1 1 1 1 1 1 1 
1 1 1 1 1 1 1 1 1 
1 1 1 1 1 1 1 1 1 
1 1 1 1 1 1 1 1 1 
1 1 1 1 1 1 1 1 1 
1 1 1 1 1 1 1 1 1 
1 1 1 1 1 1 1 1 1 
1 1 1 1 1 1 1 1 1 
1 1 1 1 1 1 1 1 1 
1 1 1 1 1 1 1 1 1 
1 1 1 1 1 1 1 1 1 
1 1 1 1 1 1 1 1 1 
1 1 1 1 1 1 1 1 1 
1 1 1 1 1 1 1 1 1 
1 1 1 1 1 1 1 1 1 
1 1 1 1 1 1 1 1 1 
1 1 1 1 1 1 1 1 1 
1 1 1 1 1 1 1 1 1 
1 1 1 1 1 1 1 1 1 
1 1 1 1 1 1 1 1 1 
1 1 1 1 1 1 1 1 1 
1 1 1 1 1 1 1 1 1 
1 1 1 1 1 1 1 1 1 
1 1 1 1 1 1 1 1 1 
1 1 1 1 1 1 1 1 1 
1 1 1 1 1 1 1 1 1 
1 1 1 1 1 1 1 1 1 
1 1 1 1 1 1 1 1 1 
1 1 1 1 1 1 1 1 1 
1 1 1 1 1 1 1 1 1 
1 1 1 1 1 1 1 1 1 
1 1 1 1 1 1 1 1 1 
1 1 1 1 1 1 1 1 1 
1 1 1 1 1 1 1 1 1 
1 1 1 1 1 1 1 1 1 
1 1 1 1 1 1 1 1 1 
1 1 1 1 1 1 1 1 1 
1 1 1 1 1 1 1 1 1 
1 1 1 1 1 1 1 1 1 
1 1 1 1 1 1 1 1 1 
1 1 1 1 1 1 1 1 1 
1 1 1 1 1 1 1 1 1 
1 1 1 1 1 1 1 1 1 
1 1 1 1 1 1 1 1 1 
1 1 1 1 1 1 1 1 1 
1 1 1 1 1 1 1 1 1 
1 1 1 1 1 1 1 1 1 
1 1 1 1 1 1 1 1 1 
1 1 1 1 1 1 1 1 1 
1 1 1 1 1 1 1 1 1 
1 1 1 1 1 1 1 1 1 
1 1 1 1 1 1 1 1 1 
1 1 1 1 1 1 1 1 1 
1 1 1 1 1 1 1 1 1 
1 1 1 1 1 1 1 1 1 
1 1 1 1 1 1 1 1 1 
1 1 1 1 1 1 1 1 1 
1 1 1 1 1 1 1 1 1 
1 1 1 1 1 1 1 1 1 
1 1 1 1 1 1 1 1 1 
1 1 1 1 1 1 1 1 1 
1 1 1 1 1 1 1 1 1 
1 1 1 1 1 1 1 1 1 
1 1 1 1 1 1 1 1 1 
1 1 1 1 1 1 1 1 1 
1 1 1 1 1 1 1 1 1 
1 1 1 1 1 1 1 1 1 
1 1 1 1 1 1 1 1 1 
1 1 1 1 1 1 1 1 1 
1 1 1 1 1 1 1 1 1 
1 1 1 1 1 1 1 1 1 
1 1 1 1 1 1 1 1 1 
1 1 1 1 1 1 1 1 1 
1 1 1 1 1 1 1 1 1 
1 1 1 1 1 1 1 1 1 
1 1 1 1 1 1 1 1 1 
1 1 1 1 1 1 1 1 1 
1 1 1 1 1 1 1 1 1 
1 1 1 1 1 1 1 1 1 
1 1 1 1 1 1 1 1 1 
1 1 1 1 1 1 1 1 1 
1 1 1 1 1 1 1 1 1 
1 1 1 1 1 1 1 1 1 
1 1 1 1 1 1 1 1 1 
1 1 1 1 1 1 1 1 1 
1 1 1 1 1 1 1 1 1 
1 1 1 1 1 1 1 1 1 
1 1 1 1 1 1 1 1 1 
1 1 1 1 1 1 1 1 1 
1 1 1 1 1 1 1 1 1 
1 1 1 1 1 1 1 1 1 
1 1 1 1 1 1 1 1 1 
1 1 1 1 1 1 1 1 1 
1 1 1 1 1 1 1 1 1 
1 1 1 1 1 1 1 1 1 
1 1 1 1 1 1 1 1 1 
1 1 1 1 1 1 1 1 1 
1 1 1 1 1 1 1 1 1 
1 1 1 1 1 1 1 1 1 
1 1 1 1 1 1 1 1 1 
1 1 1 1 1 1 1 1 1 
1 1 1 1 1 1 1 1 1 
1 1 1 1 1 1 1 1 1 
1 1 1 1 1 1 1 1 1 
1 1 1 1 1 1 1 1 1 
1 1 1 1 1 1 1 1 1 
1 1 1 1 1 1 1 1 1 
1 1 1 1 1 1 1 1 1 
1 1 1 1 1 1 1 1 1 
1 1 1 1 1 1 1 1 1 
1 1 1 1 1 1 1 1 1 
1 1 1 1 1 1 1 1 1 
1 1 1 1 1 1 1 1 1 
1 1 1 1 1 1 1 1 1 
1 1 1 1 1 1 1 1 1 
1 1 1 1 1 1 1 1 1 
1 1 1 1 1 1 1 1 1 
1 1 1 1 1 1 1 1 1 
1 1 1 1 1 1 1 1 1 
1 1 1 1 1 1 1 1 1 
1 1 1 1 1 1 1 1 1 
1 1 1 1 1 1 1 1 1 
1 1 1 1 1 1 1 1 1 
1 1 1 1 1 1 1 1 1 
1 1 1 1 1 1 1 1 1 
1 1 1 1 1 1 1 1 1 
1 1 1 1 1 1 1 1 1 
1 1 1 1 1 1 1 1 1 
1 1 1 1 1 1 1 1 1 
1 1 1 1 1 1 1 1 1 
1 1 1 1 1 1 1 1 1 
1 1 1 1 1 1 1 1 1 
1 1 1 1 1 1 1 1 1 
1 1 1 1 1 1 1 1 1 
1 1 1 1 1 1 1 1 1 
1 1 1 1 1 1 1 1 1 
1 1 1 1 1 1 1 1 1 
1 1 1 1 1 1 1 1 1 
1 1 1 1 1 1 1 1 1 
1 1 1 1 1 1 1 1 1 
1 1 1 1 1 1 1 1 1 
1 1 1 1 1 1 1 1 1 
1 1 1 1 1 1 1 1 1 
1 1 1 1 1 1 1 1 1 
1 1 1 1 1 1 1 1 1 
1 1 1 1 1 1 1 1 1 
1 1 1 1 1 1 1 1 1 
1 1 1 1 1 1 1 1 1 
1 1 1 1 1 1 1 1 1 
1 1 1 1 1 1 1 1 1 
1 1 1 1 1 1 1 1 1 
1 1 1 1 1 1 1 1 1 
1 1 1 1 1 1 1 1 1 
1 1 1 1 1 1 1 1 1 
1 1 1 1 1 1 1 1 1 
1 1 1 1 1 1 1 1 1 
1 1 1 1 1 1 1 1 1 
1 1 1 1 1 1 1 1 1 
1 1 1 1 1 1 1 1 1 
1 1 1 1 1 1 1 1 1 
1 1 1 1 1 1 1 1 1 
1 1 1 1 1 1 1 1 1 
1 1 1 1 1 1 1 1 1 
1 1 1 1 1 1 1 1 1 
1 1 1 1 1 1 1 1 1 
1 1 1 1 1 1 1 1 1 
1 1 1 1 1 1 1 1 1 
1 1 1 1 1 1 1 1 1 
1 1 1 1 1 1 1 1 1 
1 1 1 1 1 1 1 1 1 
1 1 1 1 1 1 1 1 1 
1 1 1 1 1 1 1 1 1 
1 1 1 1 1 1 1 1 1 
1 1 1 1 1 1 1 1 1 
1 1 1 1 1 1 1 1 1 
1 1 1 1 1 1 1 1 1 
1 1 1 1 1 1 1 1 1 
1 1 1 1 1 1 1 1 1 
1 1 1 1 1 1 1 1 1 
1 1 1 1 1 1 1 1 1 
1 1 1 1 1 1 1 1 1 
1 1 1 1 1 1 1 1 1 
1 1 1 1 1 1 1 1 1 
1 1 1 1 1 1 1 1 1 
1 1 1 1 1 1 1 1 1 
1 1 1 1 1 1 1 1 1 
1 1 1 1 1 1 1 1 1 
1 1 1 1 1 1 1 1 1 
1 1 1 1 1 1 1 1 1 
1 1 1 1 1 1 1 1 1 
1 1 1 1 1 1 1 1 1 
1 1 1 1 1 1 1 1 1 
1 1 1 1 1 1 1 1 1 
1 1 1 1 1 1 1 1 1 
1 1 1 1 1 1 1 1 1 
1 1 1 1 1 1 1 1 1 
1 1 1 1 1 1 1 1 1 
1 1 1 1 1 1 1 1 1 
1 1 1 1 1 1 1 1 1 
1 1 1 1 1 1 1 1 1 
1 1 1 1 1 1 1 1 1 
1 1 1 1 1 1 1 1 1 
1 1 1 1 1 1 1 1 1 
1 1 1 1 1 1 1 1 1 
1 1 1 1 1 1 1 1 1 
1 1 1 1 1 1 1 1 1 
1 1 1 1 1 1 1 1 1 
1 1 1 1 1 1 1 1 1 
1 1 1 1 1 1 1 1 1 
1 1 1 1 1 1 1 1 1 
1 1 1 1 1 1 1 1 1 
1 1 1 1 1 1 1 1 1 
1 1 1 1 1 1 1 1 1 
1 1 1 1 1 1 1 1 1 
1 1 1 1 1 1 1 1 1 
1 1 1 1 1 1 1 1 1 
1 1 1 1 1 1 1 1 1 
1 1 1 1 1 1 1 1 1 
1 1 1 1 1 1 1 1 1 
1 1 1 1 1 1 1 1 1 
1 1 1 1 1 1 1 1 1 
1 1 1 1 1 1 1 1 1 
1 1 1 1 1 1 1 1 1 
1 1 1 1 1 1 1 1 1 
1 1 1 1 1 1 1 1 1 
1 1 1 1 1 1 1 1 1 
1 1 1 1 1 1 1 1 1 
1 1 1 1 1 1 1 1 1 
1 1 1 1 1 1 1 1 1 
1 1 1 1 1 1 1 1 1 
1 1 1 1 1 1 1 1 1 
1 1 1 1 1 1 1 1 1 
1 1 1 1 1 1 1 1 1 
1 1 1 1 1 1 1 1 1 
1 1 1 1 1 1 1 1 1 
1 1 1 1 1 1 1 1 1 
1 1 1 1 1 1 1 1 1 
1 1 1 1 1 1 1 1 1 
1 1 1 1 1 1 1 1 1 
1 1 1 1 1 1 1 1 1 
1 1 1 1 1 1 1 1 1 
1 1 1 1 1 1 1 1 1 
1 1 1 1 1 1 1 1 1 
1 1 1 1 1 1 1 1 1 
1 1 1 1 1 1 1 1 1 
1 1 1 1 1 1 1 1 1 
1 1 1 1 1 1 1 1 1 
1 1 1 1 1 1 1 1 1 
1 1 1 1 1 1 1 1 1 
1 1 1 1 1 1 1 1 1 
1 1 1 1 1 1 1 1 1 
1 1 1 1 1 1 1 1 1 
1 1 1 1 1 1 1 1 1 
1 1 1 1 1 1 1 1 1 
1 1 1 1 1 1 1 1 1 
1 1 1 1 1 1 1 1 1 
1 1 1 1 1 1 1 1 1 
1 1 1 1 1 1 1 1 1 
1 1 1 1 1 1 1 1 1 
1 1 1 1 1 1 1 1 1 
1 1 1 1 1 1 1 1 1 
1 1 1 1 1 1 1 1 1 
1 1 1 1 1 1 1 1 1 
1 1 1 1 1 1 1 1 1 
1 1 1 1 1 1 1 1 1 
1 1 1 1 1 1 1 1 1 
1 1 1 1 1 1 1 1 1 
1 1 1 1 1 1 1 1 1 
1 1 1 1 1 1 1 1 1 
1 1 1 1 1 1 1 1 1 
1 1 1 1 1 1 1 1 1 
1 1 1 1 1 1 1 1 1 
1 1 1 1 1 1 1 1 1 
1 1 1 1 1 1 1 1 1 
1 1 1 1 1 1 1 1 1 
1 1 1 1 1 1 1 1 1 
1 1 1 1 1 1 1 1 1 
1 1 1 1 1 1 1 1 1 
1 1 1 1 1 1 1 1 1 
1 1 1 1 1 1 1 1 1 
1 1 1 1 1 1 1 1 1 
1 1 1 1 1 1 1 1 1 
1 1 1 1 1 1 1 1 1 
1 1 1 1 1 1 1 1 1 
1 1 1 1 1 1 1 1 1 
1 1 1 1 1 1 1 1 1 
1 1 1 1 1 1 1 1 1 
1 1 1 1 1 1 1 1 1 
1 1 1 1 1 1 1 1 1 
1 1 1 1 1 1 1 1 1 
1 1 1 1 1 1 1 1 1 
1 1 1 1 1 1 1 1 1 
1 1 1 1 1 1 1 1 1 
1 1 1 1 1 1 1 1 1 
1 1 1 1 1 1 1 1 1 
1 1 1 1 1 1 1 1 1 
1 1 1 1 1 1 1 1 1 
1 1 1 1 1 1 1 1 1 
1 1 1 1 1 1 1 1 1 
1 1 1 1 1 1 1 1 1 
1 1 1 1 1 1 1 1 1 
1 1 1 1 1 1 1 1 1 
1 1 1 1 1 1 1 1 1 
1 1 1 1 1 1 1 1 1 
1 1 1 1 1 1 1 1 1 
1 1 1 1 1 1 1 1 1 
1 1 1 1 1 1 1 1 1 
1 1 1 1 1 1 1 1 1 
1 1 1 1 1 1 1 1 1 
1 1 1 1 1 1 1 1 1 
1 1 1 1 1 1 1 1 1 
1 1 1 1 1 1 1 1 1 
1 1 1 1 1 1 1 1 1 
1 1 1 1 1 1 1 1 1 
1 1 1 1 1 1 1 1 1 
1 1 1 1 1 1 1 1 1 
1 1 1 1 1 
NORMALS Normals float
-0.261065 -0.80517 -0.532491 -0.263448 -0.805049 -0.531499 -0.258295 -0.809101 -0.527864 
-0.261065 -0.80517 -0.532491 -0.259004 -0.812789 -0.521816 0.269637 0.807377 0.524822 
0.274269 0.80064 0.532684 -0.261065 -0.80517 -0.532491 -0.245905 -0.815842 -0.523385 
0.253421 0.815439 0.520421 0.241983 0.827956 0.505898 -0.245905 -0.815842 -0.523385 
0.281623 0.807353 0.518526 0.271403 0.812594 0.515782 0.241409 0.830405 0.502144 
0.241697 0.829183 0.504023 0.260813 0.811385 0.523098 0.268455 0.805547 0.528229 
-0.27305 -0.821608 -0.500404 0.23606 0.839564 0.489294 0.233647 0.821065 0.520827 
0.232215 0.813361 0.533404 -0.243361 -0.856308 -0.455536 -0.238545 -0.837483 -0.491648 
0.0194012 -0.738019 0.674501 -0.0878216 -0.920433 0.380908 0.287356 0.387785 0.875813 
0.23815 0.0686175 0.968801 -0.115558 -0.960532 0.253029 0.269072 0.751385 0.602512 
0.0526897 -0.665364 0.744657 -0.22338 -0.912012 -0.344 0.263165 0.667198 0.696844 
-0.231466 -0.884202 -0.405723 0.234773 0.833274 0.500536 0.234496 0.827701 0.509826 
0.226271 0.773375 0.592193 -0.236867 -0.829401 -0.505952 0.300001 0.802213 0.516191 
0.300001 0.802213 0.516191 0.24902 0.914765 0.318111 0.299311 0.802135 0.516713 
0.300001 0.802213 0.516191 0.300591 0.802708 0.515078 -0.293532 -0.792491 -0.5346 
-0.293532 -0.792491 -0.5346 -0.303032 -0.792967 -0.52856 -0.293532 -0.792491 -0.5346 
0.371572 0.796116 0.477633 0.28734 0.815832 0.501851 0.259474 0.831102 0.491877 
0.26477 0.81196 0.520209 0.220106 0.815057 0.535944 0.174325 0.803778 0.568817 
0.184119 0.81466 0.549935 -0.257922 -0.890538 -0.374725 -0.114633 -0.964587 0.237553 
-0.228346 -0.899068 -0.373544 -0.224942 -0.778587 -0.585835 0.230135 0.815173 0.531536 
-0.236104 -0.828997 -0.50697 0.236602 0.816267 0.526998 0.29822 0.41227 0.860871 
-0.297314 -0.817311 -0.493566 0.222026 0.931315 0.288717 0.217472 0.946894 0.236848 
-0.200527 -0.545456 -0.813798 -0.232202 -0.809841 -0.53874 0.303051 0.803464 0.512451 
0.292186 0.83351 0.468923 0.299353 0.807877 0.507664 -0.295456 -0.795159 -0.529554 
-0.297748 -0.794642 -0.529046 -0.294436 -0.795211 -0.530044 0.299353 0.807877 0.507664 
0.293207 0.795807 0.529831 0.300813 0.805869 0.509986 -0.299218 -0.805643 -0.51128 
0.281905 0.797741 0.533046 0.294025 0.793595 0.532688 -0.30052 -0.793735 -0.528841 
0.291451 0.792883 0.535156 -0.294397 -0.792396 -0.534265 0.429179 0.76626 0.478174 
-0.0434282 -0.902206 -0.429114 0.162548 -0.902093 -0.399758 -0.224553 -0.862297 -0.453894 
-0.223325 -0.867453 -0.444579 0.588845 0.660648 0.465623 -0.307189 -0.812093 -0.496124 
0.272211 0.827782 0.490589 0.825686 0.319376 0.465017 0.65469 0.501829 0.565286 
-0.232463 -0.851276 -0.470416 0.299864 0.854286 0.424591 0.248088 0.808121 0.534222 
0.248088 0.808121 0.534222 0.249443 0.808804 0.532555 0.244296 0.811196 0.531301 
0.251259 0.808054 0.532839 0.250806 0.807983 0.533159 0.71733 0.43051 0.547812 
0.205519 0.81679 0.539089 0.251506 0.807902 0.532953 0.0581427 0.895878 0.44048 
0.195202 0.81602 0.544067 -0.279941 -0.868991 -0.408029 -0.296364 -0.502376 -0.812272 
0.227642 0.90131 0.368538 0.137438 0.988577 -0.0618604 -0.234505 -0.876336 -0.420764 
-0.23238 -0.893786 -0.383596 0.235636 0.846107 0.478099 0.246474 0.811107 0.53043 
-0.300119 -0.808948 -0.505501 -0.301151 -0.807504 -0.507194 -0.445037 -0.0985342 -0.890075 
-0.44599 -0.0739232 -0.89198 -0.447214 0 -0.894427 -0.44599 -0.0739232 -0.89198 
-0.518183 -0.38984 -0.761256 0.299353 0.807877 0.507664 0.336096 0.939298 0.0689893 
0.301801 0.805455 0.510057 0.288153 0.797802 0.529603 -0.30217 -0.79331 -0.528538 
0.447214 0 0.894427 0.507043 0.271965 0.817889 -0.294575 -0.795449 -0.52961 
0.278802 0.799924 0.531405 0.269552 0.802096 0.532901 -0.291084 -0.795261 -0.531817 
-0.246784 -0.858932 -0.448701 -0.10916 -0.900563 -0.420797 0.170591 0.875625 0.451862 
-0.231003 -0.861933 -0.451342 -0.198251 -0.868681 -0.453971 -0.0993234 -0.903895 -0.416064 
0.170591 0.875625 0.451862 0.168822 0.87619 0.451431 -0.226491 0.954435 0.194308 
0.121298 0.881872 0.455619 -0.238303 -0.859736 -0.451736 0.00370056 0.923202 0.384297 
-0.789651 0.609632 -0.0692738 0.248088 0.808121 0.534222 0.241696 0.812635 0.53029 
0.240596 0.814246 0.528315 -0.729841 0.675415 0.105581 -0.331316 -0.719868 -0.609934 
-0.311428 -0.554368 -0.771809 -0.0566727 0.797456 -0.60071 -0.321755 -0.542102 -0.776272 
0.256218 0.81461 0.520349 -0.30228 -0.808752 -0.504526 0.21323 0.942012 0.259124 
0.301801 0.805455 0.510057 0.299101 0.805238 0.511987 -0.303479 -0.806584 -0.507271 
0.300464 0.810069 0.503497 0.262725 0.822791 0.503975 0.326434 0.789922 0.5191 
0.251896 0.821598 0.511395 0.52701 0.326696 0.784557 -0.0793013 -0.849473 -0.521639 
0.543772 0.42005 0.726547 0.237714 0.822413 0.516845 0.272216 0.807726 0.522951 
0.489234 0.714712 0.499836 -0.219781 -0.82773 -0.516294 -0.218866 -0.827737 -0.516671 
0.285476 0.798331 0.530255 0.169174 0.875821 0.452016 0.175535 0.876395 0.448463 
0.180522 0.877003 0.445283 -0.180623 -0.873092 -0.452864 -0.186685 -0.866325 -0.463282 
-0.174092 -0.869105 -0.462978 0.178576 0.875578 0.448859 -0.282589 -0.790606 -0.543218 
-0.247924 -0.856519 -0.452669 -0.213727 -0.864263 -0.455379 0.295113 0.828388 0.476111 
0.27735 0.828678 0.486178 -0.262844 -0.84207 -0.470989 -0.261785 -0.832119 -0.488925 
-0.718372 0.695651 0.00322194 0.232558 0.825307 0.514573 0.268532 0.816693 0.510786 
-0.300514 -0.810172 -0.503301 -0.321515 -0.768633 -0.55302 -0.353114 -0.688861 -0.633073 
0.251781 0.893601 0.371596 -0.300482 -0.739057 -0.602915 0.232558 0.825307 0.514573 
0.230902 0.831848 0.504691 -0.300404 -0.810943 -0.502125 -0.300008 -0.811784 -0.501 
-0.294161 -0.861361 -0.414158 -0.299751 -0.870314 -0.390772 -0.289459 -0.851112 -0.437974 
-0.299063 -0.898942 -0.320102 -0.291175 -0.881247 -0.372318 0.285008 0.84235 0.457403 
0.274972 0.862983 0.423853 0.285008 0.84235 0.457403 -0.29973 -0.811998 -0.500821 
-0.297207 -0.812195 -0.502003 0.270608 0.795075 0.542795 0.403973 0.762116 0.50595 
0.260126 0.763241 0.591437 -0.284223 -0.835796 -0.469746 0.221838 0.826797 0.516908 
0.224218 0.825929 0.51727 0.221838 0.826797 0.516908 -0.286822 -0.812707 -0.507189 
-0.220695 -0.827722 -0.515916 -0.181235 -0.875305 -0.448325 -0.182217 -0.874928 -0.448662 
-0.188799 -0.873337 -0.449041 -0.186165 -0.866595 -0.462985 -0.173977 -0.869126 -0.462981 
0.170591 0.875625 0.451862 0.177771 0.878515 0.443406 0.274078 0.827364 0.490255 
-0.296943 -0.767387 -0.56828 -0.19691 -0.875683 -0.440916 0.140189 0.980068 0.140762 
0.061802 0.996655 -0.0534827 -0.202805 -0.866363 -0.456382 -0.27768 -0.828727 -0.485907 
0.229795 0.826614 0.513715 0.229407 0.833755 0.50222 0.230038 0.828031 0.511319 
0.232558 0.825307 0.514573 0.227441 0.825515 0.516523 -0.303048 -0.809237 -0.503287 
0.229749 0.829737 0.508677 0.230922 0.829907 0.507867 0.291911 0.899904 0.323977 
0.28723 0.840995 0.458505 0.294054 0.824225 0.483927 -0.3007 -0.810246 -0.503072 
-0.289838 -0.809728 -0.51023 -0.275084 -0.808964 -0.519525 -0.302718 -0.941177 -0.150162 
0.2847 0.850245 0.442752 0.285595 0.842846 0.456121 0.28527 0.844724 0.452838 
-0.286946 -0.840657 -0.459302 0.311775 0.75367 0.578601 0.320602 0.728063 0.605919 
-0.290626 -0.811385 -0.50714 -0.29375 -0.812378 -0.503739 -0.271287 -0.78399 -0.558357 
0.28584 0.843834 0.454136 0.315014 0.754118 0.576257 0.32073 0.729897 0.603642 
0.317044 0.748664 0.582224 0.282002 0.85196 0.441178 0.3002 0.797259 0.523697 
0.234538 0.932209 0.275641 0.294071 0.81003 0.50732 0.250686 0.919682 0.302229 
-0.345128 -0.58525 -0.733737 -0.179006 -0.876367 -0.447145 0.193671 0.871236 0.451043 
0.196735 0.858079 0.474338 0.203313 0.871056 0.44713 0.179923 0.877717 0.444118 
0.179923 0.877717 0.444118 -0.197174 -0.876383 -0.439403 -0.203555 -0.869531 -0.449979 
-0.194986 -0.866501 -0.459518 0.18089 0.877645 0.443868 0.176547 0.87731 0.446272 
0.179749 0.877813 0.443998 -0.198436 -0.883797 -0.423704 0.275188 0.81933 0.502961 
0.276099 0.82381 0.495082 -0.290498 -0.808655 -0.511554 0.261597 0.857367 0.443271 
0.229145 0.830719 0.507345 0.229268 0.826053 0.514851 0.229144 0.827301 0.5129 
0.229293 0.83156 0.505898 0.229412 0.82605 0.514792 0.302208 0.811937 0.499429 
0.302253 0.812156 0.499045 -0.303361 -0.809336 -0.502939 -0.227416 -0.867638 -0.442138 
0.229824 0.815759 0.530772 0.229956 0.818068 0.527148 0.229796 0.829294 0.509377 
0.284207 0.851586 0.440485 0.284661 0.851615 0.440135 0.284099 0.851329 0.441053 
-0.284358 -0.850346 -0.442778 0.302253 0.812156 0.499045 -0.282472 -0.809377 -0.514897 
-0.272611 -0.782311 -0.560064 -0.276156 -0.804578 -0.525731 0.274951 0.791408 0.545963 
0.27491 0.795659 0.53977 -0.284485 -0.852285 -0.438952 0.345831 0.489524 0.80048 
0.321459 0.711504 0.624841 0.322258 0.69816 0.639314 -0.272611 -0.782311 -0.560064 
0.343978 0.436784 0.831204 -0.213201 -0.966588 -0.142312 0.327407 0.682784 0.653154 
-0.305606 -0.797462 -0.52025 -0.311999 -0.775014 -0.549555 -0.319177 -0.74204 -0.589493 
0.257918 0.909679 0.32552 0.150644 0.988102 -0.0309904 0.258726 0.84366 0.470425 
0.274129 0.845991 0.457332 0.217415 0.853295 0.47394 0.214413 0.846641 0.487059 
0.255774 0.841771 0.475395 0.179477 0.877562 0.444604 0.179543 0.877386 0.444924 
-0.179006 -0.876367 -0.447145 -0.183328 -0.875803 -0.446498 -0.185079 -0.877012 -0.443392 
-0.187217 -0.881748 -0.432978 -0.192959 -0.88381 -0.426201 -0.189234 -0.879248 -0.437165 
-0.188087 -0.883333 -0.429356 -0.183179 -0.874371 -0.449356 -0.494215 0.797099 -0.346965 
0.199767 0.885507 0.419489 -0.277418 -0.828879 -0.485798 0.28491 0.826244 0.485949 
0.198798 0.884885 0.421257 0.261812 0.856652 0.444523 0.26851 0.851376 0.450623 
-0.228881 -0.834958 -0.500458 0.229436 0.82335 0.51909 0.229643 0.825394 0.515741 
0.26851 0.851376 0.450623 -0.275616 -0.805541 -0.524538 -0.273743 -0.800284 -0.533489 
0.34769 0.471909 0.810193 0.34324 0.543294 0.766171 -0.31389 -0.768052 -0.558183 
-0.315431 -0.760289 -0.567859 0 -0.894427 -0.447214 0 -0.997197 -0.0748196 
-0.773954 -0.524116 0.355384 0.773954 -0.524116 0.355384 0 0.707107 -0.707107 
0.185717 0.763401 0.61865 0.287353 0.826057 0.484827 0.282433 0.813191 0.508873 
0.326449 0.870268 0.36887 0.181602 0.766399 0.616161 -0.420067 -0.869041 -0.261366 
-0.0449143 0.530554 0.84646 0.203313 0.871056 0.44713 0.218012 0.858887 0.463448 
-0.217731 -0.845576 -0.487437 0.321048 0.881634 0.345904 -0.182693 -0.875662 -0.447033 
-0.18172 -0.875968 -0.446831 -0.191048 -0.886395 -0.421668 -0.183308 -0.874854 -0.448362 
-0.198436 -0.883797 -0.423704 -0.192351 -0.883573 -0.426965 0.199767 0.885507 0.419489 
0.19968 0.885449 0.419653 0.199316 0.885826 0.41903 -0.198436 -0.883797 -0.423704 
0.261693 0.856566 0.44476 0.261597 0.857367 0.443271 0.199767 0.885507 0.419489 
0 -0.231942 0.97273 0.197083 0.771989 0.60431 0.310652 0.837209 0.450085 
0.191795 0.768209 0.610795 0.271125 0.87843 0.393512 -0.177461 -0.874067 -0.452232 
0.187833 0.869651 0.456536 -0.179855 -0.875154 -0.449174 0.176931 0.873369 0.453787 
-0.203011 -0.899302 -0.387354 -0.182651 -0.87583 -0.446721 0.18633 0.868784 0.458799 
-0.192351 -0.8835 -0.427117 -0.191791 -0.883241 -0.427905 -0.185903 -0.877734 -0.441615 
-0.18681 -0.878972 -0.43876 0.182632 0.87539 0.447591 -0.184806 -0.876238 -0.445033 
0.317812 0.825475 0.466462 0.242117 0.787248 0.567115 0.0371263 0.67308 0.738637 
-0.291869 -0.849945 -0.438641 0.336176 0.860007 0.383893 0.301444 0.868604 0.393267 
-0.178173 -0.874296 -0.451509 -0.182915 -0.876176 -0.445935 -0.182763 -0.87136 -0.455335 
0.317283 0.876934 0.360996 0.293158 0.886138 0.358912 0.203313 0.871056 0.44713 
-0.182486 -0.875684 -0.447075 -0.179165 -0.87451 -0.450702 0.172903 0.840234 0.513918 
-0.181484 -0.868906 -0.460506 -0.193471 -0.886098 -0.421188 -0.148643 -0.683776 -0.714392 