# vtk DataFile Version 4.2
vtk output
ASCII
DATASET POLYDATA
POINTS 1147 float
227.753 97.123 52.8444 226.599 98.1504 52.9253 224.753 99.3256 52.9505 
220.678 102.278 53.2546 240.98 86.5664 54.0813 240.912 86.5306 54.0873 
240.91 86.6124 54.0364 241.017 86.4827 54.2179 240.636 87.0558 53.8438 
240.933 86.6575 54.0617 240.712 86.9676 53.9077 239.521 88.1799 53.6021 
240.6 87.1299 53.8769 239.344 88.4803 53.5933 239.671 88.2903 53.7061 
236.839 90.0799 53.2577 236.865 90.2977 53.3023 231.945 93.2309 53.0594 
233.763 93.0573 53.3558 234.45 92.6656 53.4779 230.429 94.8827 53.02 
231.337 94.3765 53.1032 229.69 95.8303 53.0466 225.995 98.1601 52.8925 
223.267 99.5927 52.957 225.816 98.9577 53.1825 221.712 101.142 53.1255 
223.55 100.454 53.3878 221.107 102.148 53.4765 215.924 105.377 53.6304 
214.806 106.179 53.7259 215.002 106.214 53.7539 214.416 106.656 53.7921 
214.546 106.677 53.8014 214.763 106.538 53.7969 213.499 107.321 54.0853 
213.542 107.177 54.0697 213.407 107.311 54.1259 214.289 106.851 53.8989 
213.454 107.388 54.1384 240.675 86.7109 53.9913 240.154 87.2523 53.7993 
240.908 86.932 54.0728 241.205 86.8646 54.2692 241.348 86.7082 54.4238 
240.472 87.4615 53.9312 240.823 87.3148 54.1033 241.289 86.9442 54.381 
237.701 88.9448 53.3874 240.564 87.6836 54.1249 238.489 89.3108 53.629 
239.347 88.8407 53.9062 237.055 90.5993 53.6442 237.489 90.356 53.8285 
236.264 91.3023 53.7127 235.475 92.0062 53.7271 233.503 93.4086 53.4131 
233.853 93.2294 53.5067 232.242 94.6063 53.6358 228.766 97.1617 53.4658 
226.714 98.4557 53.3614 222.666 101.062 53.4095 222.629 101.204 53.5624 
220.204 102.941 53.8249 214.769 105.557 53.7525 217.957 104.291 53.8204 
213.89 106.752 53.9656 212.748 106.942 54.6786 212.937 107.426 54.466 
213.281 107.412 54.2373 213.503 107.457 54.2444 213.243 107.559 54.3374 
241.115 85.938 54.9403 237.924 86.2056 54.1523 241.319 86.3427 54.6556 
241.331 86.5052 54.4857 241.396 86.548 54.5821 236.792 87.4185 53.7918 
241.418 86.7598 54.5865 241.312 87.0152 54.4861 241.171 87.1919 54.5115 
241.353 86.9667 54.6349 240.245 88.0606 54.1003 240.418 87.9259 54.2396 
240.767 87.5559 54.4436 239.815 88.45 54.0945 231.923 90.7724 53.4515 
238.778 89.3974 54.0553 238.389 89.712 54.1351 235.874 91.7137 53.8454 
234.673 92.7272 53.7932 235.591 91.9526 54.0026 233.29 93.8412 53.7592 
232.981 94.1008 53.9394 231.049 95.5816 53.7118 227.153 98.2305 53.518 
227.374 98.0915 53.6636 227.918 97.728 53.7504 216.388 101.095 53.8932 
222.995 101.002 53.8947 212.453 104.897 54.9981 217.553 104.637 53.9396 
216.328 105.487 53.9293 212.361 105.827 55.0925 215.312 106.307 53.9811 
216.15 105.68 54.1052 214.45 106.971 54.0868 212.82 107.313 54.6171 
212.718 107.087 54.875 213.72 107.406 54.2619 214.374 107.035 54.2482 
212.939 107.531 54.5505 213.114 107.615 54.4614 213.321 107.585 54.4213 
213.643 107.432 54.4495 212.908 107.529 54.687 213.033 107.61 54.6037 
213.18 107.631 54.5362 240.245 84.3219 55.3983 240.232 84.1125 55.5439 
240.298 84.1573 55.5512 240.362 84.2441 55.6301 240.488 84.7285 55.2538 
241.36 86.431 54.8139 241.133 86.2222 55.3071 241.474 86.6657 54.759 
241.477 86.7938 54.6925 241.501 86.7481 54.7544 241.098 87.2014 54.6734 
241.273 86.9662 54.7864 239.87 88.2904 54.6867 238.067 89.8763 54.487 
234.972 92.3957 54.2755 232.878 94.0778 54.269 227.541 97.7078 54.5219 
226.519 98.4332 54.426 213.309 101.09 55.2343 222.441 101.242 54.5046 
211.74 103.379 55.9193 211.958 104.667 55.6577 212.337 106.121 55.2974 
212.537 106.521 55.2542 214.463 106.946 54.4835 212.997 107.521 54.7662 
213.342 107.562 54.5656 213.856 107.257 54.6698 238.513 82.1573 56.7416 
239.279 82.463 56.7676 239.013 82.0681 56.967 237.594 82.4066 56.51 
238.952 83.1545 56.0529 239.614 82.7506 56.8253 240.001 83.6607 56.0941 
234 83.9669 56.157 240.779 85.055 55.7915 241.008 85.9843 55.6903 
241.103 86.1195 55.5577 241.078 86.0944 55.6369 240.617 86.9076 55.4855 
241.27 86.7389 54.9621 236.489 90.4674 55.5203 231.025 94.2336 55.7834 
227.611 97.1009 55.2823 224.042 99.0425 55.7837 211.816 101.45 56.2199 
211.329 102.445 56.4504 211.31 102.701 56.4695 211.582 103.809 56.3079 
215.932 105.511 55.1946 216.582 105.258 54.719 212.191 105.702 55.7925 
215.114 106.165 55.1252 214.045 106.816 55.2226 212.936 106.931 55.3563 
212.992 107.157 55.169 213.12 107.03 55.3094 213.538 107.158 55.0804 
238.531 81.2911 57.4955 238.227 81.3069 57.4238 238.972 81.7134 57.3107 
238.752 81.3376 57.567 237.299 81.4662 57.2452 239.426 82.1267 57.5497 
239.945 83.2546 56.7231 240.124 83.9648 56.9937 240.765 86.1322 55.8719 
236.001 89.0122 57.0928 226.961 95.2514 57.0365 210.845 99.2981 57.9205 
210.866 100.029 57.7463 211.137 100.664 57.2162 211.251 102.779 56.6234 
211.214 102.873 56.9341 211.235 103.266 56.8941 211.28 103.413 56.8762 
211.316 103.418 56.7708 211.437 103.609 56.8435 214.659 105.088 56.4729 
214.029 105.676 56.265 213.943 106.108 55.939 213.527 106.15 56.0256 
212.948 106.346 55.8476 213.911 106.607 55.5015 213.436 106.921 55.3598 
238.239 80.383 58.3811 238.749 81.0508 57.9096 238.833 80.9215 58.235 
240.338 84.7598 56.6674 238.648 85.5721 57.8296 239.696 84.7401 57.4388 
212.311 95.2576 58.0964 210.617 97.3201 58.6592 210.56 98.5497 58.491 
210.58 100.488 58.4619 210.78 101.264 57.9743 214.053 103.653 57.5274 
211.274 103.255 56.9944 211.083 102.407 57.5387 211.373 102.991 57.4188 
213.064 104.469 57.1423 212.936 105.453 56.4672 213.342 105.822 56.2707 
238.501 80.3243 58.6997 210.429 99.7774 58.9813 210.457 100.328 58.7865 
210.471 100.251 58.9366 210.462 100.434 58.8254 210.764 100.983 58.5677 
212.977 102.421 58.3583 212.036 103.253 57.7794 212.144 103.053 57.9531 
237.868 79.011 59.9652 238.295 79.6154 59.6093 238.7 80.4918 59.2947 
239.375 82.9415 58.3182 211.184 91.949 60.1395 209.65 94.4889 60.546 
209.432 94.4752 60.9572 210.54 100.492 58.854 210.649 100.104 59.2084 
236.422 76.6323 61.6632 236.967 77.1298 61.5455 238.467 79.907 59.5946 
209.56 92.1058 61.2726 209.275 92.733 61.4172 209.773 93.3186 60.6761 
214.594 96.1638 61.1769 209.667 95.7422 60.9074 211.103 99.5941 59.8681 
211.259 99.2242 60.1329 236.412 76.0233 63.3494 207 97.0087 63.0174 
207 97.0087 63.0175 207 97.0088 63.0175 207 97.0088 63.0175 
207 97.0088 63.0175 236.229 75.5659 63.9636 236.348 75.7665 63.7539 
236.315 75.7018 63.8783 236.259 76.18 63.6976 208.051 88.7857 64.0549 
207.887 89.5453 64.1709 207.758 89.5649 64.3568 208.055 90.181 64.2186 
208.8 91.9791 63.6141 209.189 93.037 63.0529 207 97.0087 63.0175 
209.307 92.7531 63.4213 209.727 92.5668 63.7528 235.333 73.6216 65.9701 
208.662 83.2862 66.2185 206.572 86.0296 67.0055 206.781 86.6821 66.4275 
206.609 86.4807 66.7515 206.636 86.6389 66.6949 206.703 86.8193 66.7214 
208.169 89.5332 65.6692 235.162 73.1777 66.5127 235.265 73.3715 66.3397 
235.23 73.3049 66.4525 235.257 74.4512 65.7477 232.861 75.4635 66.7373 
233.825 74.8058 66.638 226.388 77.9806 67.5606 206.091 83.9461 68.2435 
206.679 83.9476 67.4605 206.586 86.3564 67.3491 234.172 70.6072 67.9471 
234.882 72.2625 66.962 234.922 73.282 66.7419 205.916 84.5251 68.7317 
210.276 86.3648 68.1333 232.69 68.2002 69.5646 234.426 71.114 67.7026 
234.617 71.9444 67.5029 233.954 72.0324 68.2604 205.668 82.3309 69.5373 
205.699 83.7413 69.4127 205.829 84.3627 69.195 205.934 84.5669 69.282 
231.891 67.637 69.9098 232.76 67.7799 70.3984 233.055 68.2794 70.318 
227.934 67.806 70.1143 205.779 79.9793 70.5182 205.183 81.3968 70.6993 
205.268 81.9833 70.2432 231.629 66.8454 70.8904 232.891 67.8421 70.9388 
232.72 67.4948 71.2863 233.148 68.8039 70.416 204.636 79.8891 72.0788 
204.451 79.4398 72.5154 204.727 80.7638 71.9209 228.726 65.8376 72.0339 
230.725 66.0358 71.7725 232.496 67.7328 71.9643 204.435 78.9746 72.6839 
204.267 79.6074 73.189 204.523 80.2879 72.5921 206.49 84.2354 70.3248 
230.047 64.9331 73.206 232.338 67.1091 72.463 232.448 67.3767 72.3382 
232.422 67.3762 72.4169 231.842 68.5178 72.2288 232.291 67.4459 72.4887 
204.743 77.2119 73.2461 204.011 77.854 73.8577 204.16 79.4124 73.8009 
205.787 82.7812 71.5506 231.62 65.9573 73.8211 232.171 67.1037 72.779 
204.669 75.9586 74.2829 203.976 77.3893 74.1228 204.139 79.3053 74.2158 
204.605 80.1431 73.4822 229.733 63.6529 75.1351 229.503 63.1723 75.7485 
228.496 63.3409 75.1986 230.156 64.0212 74.9221 231.493 65.5686 74.1024 
231.477 65.5753 74.223 230.862 66.0929 74.6692 207.337 78.5117 75.4499 
204.111 79.0563 74.6458 204.129 78.8063 75.1008 204.982 79.8955 74.1605 
205.112 79.5099 74.6717 206.313 79.9581 74.2196 229.605 62.9429 76.0964 
229.643 63.0349 76.0136 229.785 63.2291 76.0198 230.117 63.6829 76.0201 
230.962 65.0846 74.8392 230.466 64.5558 75.7622 230.146 65.3897 75.8794 
230.089 65.9149 75.5475 203.287 77.06 76.0119 203.997 78.2297 75.7794 
228.828 61.1937 78.1834 228.815 61.1762 78.2229 228.311 62.2918 76.7078 
228.818 61.2395 78.1738 229.606 62.9395 76.1989 229.39 62.6957 76.696 
230.297 64.2547 76.2794 230.256 64.2939 76.3948 229.865 64.6595 76.6754 
230.117 64.3648 76.5399 229.561 65.2626 76.5826 205.576 71.8165 77.1323 
202.373 75.3143 77.6602 203.729 77.7494 76.4025 203.587 77.4112 76.8101 
203.748 77.6487 76.6417 228.702 61.4353 78.0001 228.462 61.1408 78.4004 
228.732 61.1589 78.2958 228.798 61.1946 78.2642 228.79 61.3183 78.2421 
228.889 61.6729 78.0673 230.186 64.1489 76.5073 226.769 65.7398 78.1481 
202.197 73.8654 78.6623 202.404 73.5625 78.5693 202.179 74.2887 78.508 
201.969 74.1407 79.1148 209.399 75.337 77.6297 202.705 75.8896 78.1871 
203.389 76.9117 77.3499 203.843 77.5179 76.8782 227.875 60.4585 79.6507 
228.692 61.1854 78.3924 229.116 62.3234 78.1513 229.682 63.5334 77.3373 
202.023 73.1625 79.4236 201.937 74.2443 79.5399 202.719 75.6296 78.8015 
227.37 60.2287 79.9625 227.643 60.3311 79.8556 227.841 60.441 79.8022 
228.865 62.5879 78.7026 228.56 62.651 79.0797 227.461 63.927 79.297 
225.115 65.2294 79.66 201.598 73.098 80.2796 201.736 73.5724 80.1645 
[...]
POINT_DATA 1147
SCALARS scalars float
LOOKUP_TABLE default
1 1 1 1 1 1 1 1 1 
1 1 1 1 1 1 1 1 1 
1 1 1 1 1 1 1 1 1 
1 1 1 1 1 1 1 1 1 
1 1 1 1 1 1 1 1 1 
1 1 1 1 1 1 1 1 1 
1 1 1 1 1 1 1 1 1 
1 1 1 1 1 1 1 1 1 
1 1 1 1 1 1 1 1 1 
1 1 1 1 1 1 1 1 1 
1 1 1 1 1 1 1 1 1 
1 1 1 1 1 1 1 1 1 
1 1 1 1 1 1 1 1 1 
1 1 1 1 1 1 1 1 1 
1 1 1 1 1 1 1 1 1 
1 1 1 1 1 1 1 1 1 
1 1 1 1 1 1 1 1 1 
1 1 1 1 1 1 1 1 1 
1 1 1 1 1 1 1 1 1 
1 1 1 1 1 1 1 1 1 
1 1 1 1 1 1 1 1 1 
1 1 1 1 1 1 1 1 1 
1 1 1 1 1 1 1 1 1 
1 1 1 1 1 1 1 1 1 
1 1 1 1 1 1 1 1 1 
1 1 1 1 1 1 1 1 1 
1 1 1 1 1 1 1 1 1 
1 1 1 1 1 1 1 1 1 
1 1 1 1 1 1 1 1 1 
1 1 1 1 1 1 1 1 1 
1 1 1 1 1 1 1 1 1 
1 1 1 1 1 1 1 1 1 
1 1 1 1 1 1 1 1 1 
1 1 1 1 1 1 1 1 1 
1 1 1 1 1 1 1 1 1 
1 1 1 1 1 1 1 1 1 
1 1 1 1 1 1 1 1 1 
1 1 1 1 1 1 1 1 1 
1 1 1 1 1 1 1 1 1 
1 1 1 1 1 1 1 1 1 
1 1 1 1 1 1 1 1 1 
1 1 1 1 1 1 1 1 1 
1 1 1 1 1 1 1 1 1 
1 1 1 1 1 1 1 1 1 
1 1 1 1 1 1 1 1 1 
1 1 1 1 1 1 1 1 1 
1 1 1 1 1 1 1 1 1 
1 1 1 1 1 1 1 1 1 
1 1 1 1 1 1 1 1 1 
1 1 1 1 1 1 1 1 1 
1 1 1 1 1 1 1 1 1 
1 1 1 1 1 1 1 1 1 
1 1 1 1 1 1 1 1 1 
1 1 1 1 1 1 1 1 1 
1 1 1 1 1 1 1 1 1 
1 1 1 1 1 1 1 1 1 
1 1 1 1 1 1 1 1 1 
1 1 1 1 1 1 1 1 1 
1 1 1 1 1 1 1 1 1 
1 1 1 1 1 1 1 1 1 
1 1 1 1 1 1 1 1 1 
1 1 1 1 1 1 1 1 1 
1 1 1 1 1 1 1 1 1 
1 1 1 1 1 1 1 1 1 
1 1 1 1 1 1 1 1 1 
1 1 1 1 1 1 1 1 1 
1 1 1 1 1 1 1 1 1 
1 1 1 1 1 1 1 1 1 
1 1 1 1 1 1 1 1 1 
1 1 1 1 1 1 1 1 1 
1 1 1 1 1 1 1 1 1 
1 1 1 1 1 1 1 1 1 
1 1 1 1 1 1 1 1 1 
1 1 1 1 1 1 1 1 1 
1 1 1 1 1 1 1 1 1 
1 1 1 1 1 1 1 1 1 
1 1 1 1 1 1 1 1 1 
1 1 1 1 1 1 1 1 1 
1 1 1 1 1 1 1 1 1 
1 1 1 1 1 1 1 1 1 
1 1 1 1 1 1 1 1 1 
1 1 1 1 1 1 1 1 1 
1 1 1 1 1 1 1 1 1 
1 1 1 1 1 1 1 1 1 
1 1 1 1 1 1 1 1 1 
1 1 1 1 1 1 1 1 1 
1 1 1 1 1 1 1 1 1 
1 1 1 1 1 1 1 1 1 
1 1 1 1 1 1 1 1 1 
1 1 1 1 1 1 1 1 1 
1 1 1 1 1 1 1 1 1 
1 1 1 1 1 1 1 1 1 
1 1 1 1 1 1 1 1 1 
1 1 1 1 1 1 1 1 1 
1 1 1 1 1 1 1 1 1 
1 1 1 1 1 1 1 1 1 
1 1 1 1 1 1 1 1 1 
1 1 1 1 1 1 1 1 1 
1 1 1 1 1 1 1 1 1 
1 1 1 1 1 1 1 1 1 
1 1 1 1 1 1 1 1 1 
1 1 1 1 1 1 1 1 1 
1 1 1 1 1 1 1 1 1 
1 1 1 1 1 1 1 1 1 
1 1 1 1 1 1 1 1 1 
1 1 1 1 1 1 1 1 1 
1 1 1 1 1 1 1 1 1 
1 1 1 1 1 1 1 1 1 
1 1 1 1 1 1 1 1 1 
1 1 1 1 1 1 1 1 1 
1 1 1 1 1 1 1 1 1 
1 1 1 1 1 1 1 1 1 
1 1 1 1 1 1 1 1 1 
1 1 1 1 1 1 1 1 1 
1 1 1 1 1 1 1 1 1 
1 1 1 1 1 1 1 1 1 
1 1 1 1 1 1 1 1 1 
1 1 1 1 1 1 1 1 1 
1 1 1 1 1 1 1 1 1 
1 1 1 1 1 1 1 1 1 
1 1 1 1 1 1 1 1 1 
1 1 1 1 1 1 1 1 1 
1 1 1 1 1 1 1 1 1 
1 1 1 1 1 1 1 1 1 
1 1 1 1 1 1 1 1 1 
1 1 1 1 1 1 1 1 1 
1 1 1 1 1 1 1 1 1 
1 1 1 1 
NORMALS Normals float
0.197305 0.208557 -0.957901 0.365906 0.563776 -0.740452 0.0128592 -0.0112317 -0.999854 
0.310099 0.51817 -0.797081 0.671493 -0.218944 -0.707927 0.190221 -0.575274 -0.795535 
0.293418 -0.158751 -0.942711 0.743201 -0.275377 -0.60977 0.428406 0.0888215 -0.89921 
0.684986 0.255479 -0.682294 0.676919 0.0474532 -0.734526 0.228947 0.0066278 -0.973416 
0.558798 0.411595 -0.719955 0.367605 0.336173 -0.867095 0.587745 0.41928 -0.691925 
-0.0681035 -0.0795419 -0.994502 0.38377 0.404156 -0.830288 0.131964 0.0336129 -0.990684 
0.306763 0.305337 -0.90148 0.46831 0.498999 -0.729168 0.0697037 0.0802278 -0.994336 
0.0549503 0.0828962 -0.995042 -0.0193294 -0.0793945 -0.996656 -0.0207546 0.0688069 -0.997414 
0.0667816 0.2602 -0.963243 0.428201 0.704727 -0.565689 0.189744 0.314343 -0.930154 
0.36315 0.622264 -0.693476 0.519111 0.755479 -0.399719 0.232184 0.464072 -0.854826 
0.0339506 0.0834079 -0.995937 0.230362 0.266309 -0.935956 -0.110656 0.177984 -0.977792 
0.188005 0.531711 -0.825795 0.3086 0.423737 -0.851594 -0.117076 0.357883 -0.926398 
-0.547837 -0.183426 -0.816229 -0.571366 0.0323956 -0.820056 0.0590647 0.540615 -0.839194 
-0.174696 0.638232 -0.749761 0.188058 -0.261957 -0.946579 0.0170951 -0.101668 -0.994671 
0.612103 0.0837935 -0.786326 0.63669 0.0365495 -0.770253 0.762012 -0.129819 -0.634418 
0.493549 0.302991 -0.815234 0.599931 0.336356 -0.725912 0.758591 0.310775 -0.572677 
0.182074 -0.0902449 -0.979135 0.689123 0.550117 -0.471678 0.258692 0.203745 -0.944228 
0.664343 0.695712 -0.27319 0.54293 0.615436 -0.571372 0.617486 0.736368 -0.276538 
0.691612 0.712113 -0.120692 0.582807 0.694915 -0.421225 0.345798 0.406258 -0.8458 
0.517885 0.599196 -0.61054 0.576878 0.783194 -0.231991 0.505751 0.727601 -0.463479 
0.52779 0.757462 -0.384303 0.47868 0.634822 -0.60652 0.579281 0.738673 -0.344669 
0.538786 0.842206 -0.0199613 -0.334514 -0.185879 -0.923877 0.532199 0.791114 -0.301501 
-0.359882 -0.0211818 -0.932758 -0.740294 -0.0545125 -0.67007 -0.656019 0.244492 -0.714047 
-0.495941 0.312413 -0.81021 0.198648 0.814314 -0.545374 -0.182763 0.703003 -0.687302 
0.872578 -0.477612 -0.102447 0.00938047 -0.394307 -0.918931 0.82454 -0.502143 -0.260741 
0.724824 -0.453606 -0.518529 0.93734 -0.252836 -0.239724 -0.22826 -0.354952 -0.906591 
0.934999 0.0236219 -0.353864 0.801799 0.513057 -0.306418 0.715905 0.697857 -0.0218092 
0.799435 0.597329 0.0640413 0.651445 0.499797 -0.570809 0.679975 0.732097 -0.0408492 
0.685775 0.724516 0.069205 0.656672 0.744278 -0.121788 -0.131677 -0.236729 -0.962611 
0.714625 0.693018 0.0950613 0.638654 0.753308 -0.156998 0.6954 0.718459 0.0153171 
0.612488 0.733664 -0.294272 0.692781 0.654753 0.302246 0.631018 0.754005 -0.182464 
0.610697 0.782717 0.120016 0.569866 0.759082 -0.314718 0.542059 0.809063 -0.227134 
0.51342 0.850573 0.113691 0.611977 0.789714 -0.0428537 -0.228978 -0.322284 -0.918533 
0.567487 0.817831 -0.0954551 -0.745017 -0.334633 -0.577035 0.579128 0.770919 -0.265131 
0.402656 0.721272 -0.563592 -0.86466 0.109834 -0.490203 0.598196 0.796053 -0.0919819 
0.522866 0.727354 -0.444486 0.465651 0.784881 -0.408816 -0.91175 0.279302 -0.301169 
-0.948512 0.310935 -0.0603602 0.424452 0.89557 -0.133396 0.609778 0.791739 0.036336 
-0.71935 0.605028 -0.341287 -0.297799 0.853387 -0.427839 0.271259 0.943765 -0.189015 
0.427786 0.902893 0.0422269 -0.719649 0.651113 0.241158 -0.322424 0.94147 0.0983734 
0.13633 0.974869 0.176197 0.388081 -0.454268 -0.801894 0.388246 -0.681868 -0.619936 
0.716649 -0.539958 -0.441429 0.815416 -0.493854 -0.302 0.530769 -0.545272 -0.648816 
0.928486 -0.353481 0.113863 0.900956 0.102781 0.421561 0.910502 -0.346884 -0.225071 
0.917736 0.127851 -0.376051 0.891912 0.214545 0.398075 0.563219 0.684454 0.462934 
0.566408 0.616913 0.546444 0.610735 0.726355 0.315294 0.638805 0.722302 0.264968 
0.64846 0.715354 0.260326 0.566346 0.746565 0.349133 0.572056 0.735745 0.362534 
0.482255 0.740925 0.467397 -0.521986 -0.231349 -0.82098 0.511984 0.79717 0.319989 
-0.744658 -0.0496015 -0.6656 -0.891764 -0.0242569 -0.451849 -0.95021 0.208914 -0.231206 
-0.815435 0.509038 0.275582 0.593672 0.769642 0.234957 -0.0255929 0.820104 0.571641 
0.33344 0.853895 0.399601 0.453143 0.802858 0.387402 0.134529 -0.617081 -0.775315 
0.354724 -0.558959 -0.74949 0.656457 -0.581849 -0.480121 0.0135344 -0.586706 -0.809687 
0.0688837 -0.568207 -0.819997 0.632965 -0.612081 -0.474038 0.60623 -0.693452 -0.389371 
-0.182242 -0.490882 -0.851952 0.944985 -0.305934 0.115793 0.888751 -0.255804 0.380377 
0.973679 -0.168457 0.153533 0.736575 0.388127 0.553909 0.552508 0.523404 0.648678 
0.556582 0.460908 0.691216 0.565581 0.634984 0.526226 0.401832 0.518715 0.754629 
0.47421 0.670462 0.570618 0.414777 0.597194 0.686526 -0.628682 -0.236767 -0.740743 
-0.859265 -0.0605164 -0.507939 -0.739441 -0.103695 -0.665187 -0.925389 0.224915 -0.305072 
0.543742 0.656657 0.522634 0.598102 0.738482 0.311317 -0.732436 0.509336 0.451789 
0.581628 0.703643 0.408161 0.383403 0.746768 0.543452 -0.318901 0.590196 0.7416 
-0.175073 0.740743 0.648574 0.00981367 0.650248 0.759658 0.320064 0.722945 0.612298 
0.242129 -0.703292 -0.668396 0.131278 -0.658723 -0.740844 0.352873 -0.635166 -0.687055 
0.529495 -0.646813 -0.548879 -0.0894367 -0.665539 -0.740985 0.864471 -0.489501 -0.114364 
0.856671 -0.503428 -0.11258 0.915667 -0.132935 0.379318 0.549992 0.418811 0.722569 
0.374272 0.489442 0.787634 0.346861 0.501251 0.792739 -0.784199 -0.123988 -0.607996 
-0.805132 -0.0970732 -0.585098 -0.816422 -0.153664 -0.556634 -0.948024 0.068453 -0.31075 
-0.991226 0.0942839 -0.09264 -0.984198 0.173927 -0.0332287 -0.871183 0.46927 0.144313 
-0.894314 0.289637 -0.341046 -0.850829 0.501434 0.157016 0.373166 0.530342 0.761238 
0.250097 0.57296 0.780493 0.256428 0.662562 0.703745 0.126531 0.694864 0.707922 
-0.169824 0.6559 0.735496 0.249169 0.678794 0.690763 0.212333 0.652609 0.727335 
0.23795 -0.755729 -0.610126 0.428142 -0.719536 -0.546775 0.803435 -0.52787 -0.275399 
0.717234 0.206557 0.665514 0.479417 0.419814 0.770659 0.70854 0.264045 0.654409 
-0.428206 -0.344986 -0.835239 -0.844059 -0.0873798 -0.529083 -0.822264 -0.113032 -0.557769 
-0.954147 0.107912 -0.279211 -0.976259 0.146402 -0.159642 0.268196 0.421274 0.866371 
-0.826705 0.32469 0.459494 -0.954432 0.293301 0.0550726 -0.735538 0.455447 0.50155 
-0.0650997 0.54143 0.838222 -0.206877 0.512846 0.833181 0.0598004 0.542567 0.837881 
0.719391 -0.635584 -0.280196 -0.990507 0.0637499 -0.121788 -0.992879 0.0439748 -0.110711 
-0.853274 0.225112 0.47037 -0.917752 0.350308 0.187125 -0.757841 0.507846 0.409596 
0.151309 0.482934 0.862485 -0.264186 0.577199 0.772689 -0.329158 0.556323 0.762994 
0.734692 -0.638452 -0.229364 0.762715 -0.599178 -0.243418 0.941432 -0.270883 0.200819 
0.662095 0.145987 0.735063 -0.412074 -0.336613 -0.846691 -0.767212 -0.102005 -0.633231 
-0.900285 0.011427 -0.435151 -0.550839 0.503427 0.665685 -0.628089 0.413689 0.659064 
0.402414 -0.710237 -0.577603 0.829496 -0.523722 -0.19404 0.909372 -0.406187 0.0897517 
-0.705584 -0.200745 -0.679597 -0.755787 -0.160934 -0.634734 -0.708907 -0.190054 -0.679213 
0.226751 0.475567 0.849953 -0.968168 0.193658 -0.158578 -0.0455586 0.447574 0.893085 
-0.265426 0.499675 0.824544 0.970716 -0.0806664 0.226282 0 -0.109945 -0.993938 
0 -0.994869 -0.10117 -0.901052 -0.428574 -0.066554 0.901052 -0.428574 -0.066554 
0 0.447214 -0.894427 0.92619 -0.151114 0.345451 0.9441 -0.32952 0.00953817 
0.845233 0.192739 0.49843 0.674523 0.330751 0.660017 -0.749742 -0.101683 -0.653872 
-0.637229 0.0988032 -0.764315 -0.937264 0.238387 -0.254379 -0.937763 0.257077 -0.233479 
-0.675745 0.526206 0.516213 -0.698143 0.509491 0.503007 0 -0.273806 0.961785 
-0.400151 0.60118 0.691709 -0.233758 0.576933 0.782627 0.967111 -0.192028 0.1668 
-0.359216 -0.49993 -0.788057 -0.976029 0.0623583 -0.208518 -0.871121 -0.0124892 -0.49091 
-0.964308 -0.00388612 -0.264754 -0.969423 0.222303 -0.103928 -0.891319 0.453371 0.00251998 
-0.515661 0.618547 0.592869 0.913938 -0.295789 0.277896 0.953022 0.0230745 0.30202 
0.846159 0.0783856 0.527135 0.686325 0.392235 0.612462 0.40585 0.531172 0.743735 
0.40047 0.43941 0.804079 0.345149 0.522875 0.779406 -0.885886 -0.00812669 -0.463833 
-0.771793 -0.197752 -0.604342 -0.83273 0.505539 0.225811 0.895257 -0.431628 0.110508 
0.914662 -0.035227 0.402683 0.670908 0.294743 0.680448 -0.944958 0.195456 -0.262397 
0.105956 0.618041 0.778972 0.428797 -0.690618 -0.582391 0.923763 -0.251576 0.288743 
0.833124 0.0853626 0.54646 0.594683 0.398106 0.698473 -0.787249 -0.236021 -0.569679 
-0.982501 0.182418 -0.0376207 -0.945057 0.318486 0.0737107 -0.859983 0.466033 0.207948 
0.174102 -0.73728 -0.652769 0.644971 -0.708904 -0.285426 0.805732 -0.541999 -0.238817 
-0.144766 -0.652782 -0.743585 -0.670121 -0.369494 -0.643749 -0.983343 0.120909 -0.135714 
-0.930882 -0.0622016 -0.359986 0.245066 -0.816446 -0.522837 0.939594 -0.334237 0.0738107 
0.940205 -0.293182 0.173377 0.930877 -0.0403472 0.363098 -0.871746 -0.0908541 -0.481461 
-0.849372 -0.131627 -0.511118 -0.946291 0.143461 -0.289746 -0.17426 -0.775897 -0.606314 
0.228197 -0.814807 -0.532931 0.964912 0.00212156 0.262566 -0.872223 -0.118393 -0.474563 
-0.985198 0.0462945 -0.165051 -0.959277 0.275635 -0.0617479 -0.139838 0.696599 0.703701 
0.0558974 -0.851657 -0.52111 0.941812 -0.167451 0.291462 0.976002 -0.198835 0.0887977 
0.849401 0.158082 0.503516 0.625841 0.401789 0.668497 0.667186 0.38125 0.639931 
-0.635006 -0.371093 -0.677538 -0.941139 -0.0912374 -0.325474 -0.984084 0.17242 -0.0430066 
-0.868527 0.466054 0.168683 0.773833 0.230731 0.589869 0.733895 0.196031 0.650362 
-0.597136 -0.484002 -0.639664 -0.918843 -0.123886 -0.374673 -0.760644 0.596339 0.256517 
-0.427616 0.733465 0.528369 0.411131 -0.763393 -0.498199 0.482495 -0.680729 -0.551187 
0.00249612 -0.776973 -0.629529 0.380891 -0.808992 -0.447722 0.888229 -0.435428 0.146465 
0.888893 -0.0868706 0.449803 0.602061 0.455219 0.655971 0.255181 0.753113 0.606385 
-0.94383 0.303534 0.130585 -0.525918 0.718833 0.45463 -0.278182 0.790622 0.545465 
-0.219972 0.717308 0.661121 0.142234 0.816241 0.559929 0.496849 -0.785972 -0.367953 
0.74355 -0.566879 -0.354657 0.806061 -0.540529 -0.241027 0.854933 -0.518732 0.00274961 
0.841221 0.0172074 0.540417 0.875254 0.156096 0.457782 0.672703 0.436254 0.597623 
0.610118 0.511035 0.605474 -0.896384 0.441346 0.0413542 -0.417693 0.758434 0.500311 
0.39946 -0.736757 -0.545546 0.861247 -0.407704 0.303368 0.077383 -0.844363 -0.530153 
0.970054 0.230078 0.0778447 0.843659 -0.536844 -0.00614086 0.684887 -0.709109 -0.167612 
0.968727 -0.00274152 0.248113 0.840151 0.414226 0.350091 0.678967 0.323456 0.659075 
0.731955 0.44323 0.517483 0.620438 0.456739 0.637532 -0.370986 -0.634419 -0.678146 
-0.964104 0.134818 -0.228753 -0.668898 0.709657 0.221273 -0.698109 0.632189 0.336126 
-0.275929 0.841999 0.463574 0.628719 -0.522075 -0.576325 0.0130192 -0.913975 -0.405561 
0.253545 -0.960734 0.112717 0.85504 -0.191125 0.482056 0.976206 0.0720188 0.204538 
0.911706 -0.410058 0.0253734 0.805558 -0.0224865 0.59209 0.418319 0.660684 0.623302 
-0.85453 -0.344287 -0.388902 -0.752706 -0.409159 -0.515774 -0.905511 -0.0555936 -0.420665 
-0.960563 -0.0706167 -0.268945 0.308141 0.703846 0.640039 -0.715907 0.655828 0.239513 
-0.744404 0.618797 0.250905 -0.14483 0.806385 0.573382 0.538121 -0.835453 -0.111553 
0.77422 -0.513525 0.369967 0.870719 -0.36882 0.325301 0.880485 -0.0751534 0.468079 
-0.762238 -0.369253 -0.531644 -0.946849 0.313781 -0.0708445 -0.664938 0.681699 0.305194 
-0.0532792 -0.879095 -0.47366 0.392659 -0.916988 -0.0703643 0.747939 -0.619849 0.237433 
0.773092 0.108471 0.62495 0.75962 0.0909388 0.643978 0.561038 0.492389 0.665425 
0.315866 0.614371 0.723033 -0.975143 0.217932 -0.0400297 -0.978057 0.190768 -0.0837427 
-0.275063 0.804768 0.526012 0.209047 -0.918265 -0.336286 0.012983 -0.910422 -0.413478 
0.498247 -0.866145 0.0392854 0.763832 0.133711 0.631413 -0.0953473 -0.705666 -0.7021 
-0.911422 -0.239941 -0.334274 -0.751076 0.575945 0.322759 -0.0985702 0.771 0.629161 
0.834999 -0.13625 0.533117 0.373629 0.494243 0.784937 0.648055 0.357402 0.672524 
0.549297 0.482644 0.682149 -0.974523 0.219027 0.0483003 0.275309 -0.940329 -0.199966 
-0.0385703 -0.954178 -0.296745 -0.28224 -0.869527 -0.405295 0.831939 -0.0289672 0.554111 
0.682367 0.288764 0.671558 -0.504144 -0.691638 -0.51718 -0.679415 -0.636491 -0.365067 
-0.729557 -0.463216 -0.503168 -0.992112 -0.0626862 -0.108553 -0.40109 0.715572 0.571913 
0.1805 -0.978781 -0.0969917 0.636229 -0.731024 0.246609 0.368091 -0.916638 0.155829 
-0.251323 -0.967337 -0.0331156 0.561293 0.299758 0.771424 0.698833 -0.0208084 0.714983 
-0.365231 -0.858738 -0.359409 -0.948202 -0.259768 -0.182848 -0.99318 0.116258 0.00885304 
-0.82308 0.465896 0.324776 -0.174761 0.743095 0.645963 0.873812 -0.056382 0.482984 
0.0627772 -0.908561 0.413009 0.550651 -0.670066 0.49779 0.730229 -0.110145 0.674265 
0.594813 -0.378202 0.709338 0.66866 -0.419464 0.613958 -0.204617 -0.966689 -0.153765 
0.345333 0.531693 0.773336 -0.507487 -0.73666 -0.446978 -0.97334 -0.227668 0.0278492 
-0.603421 0.620268 0.50115 0.18205 -0.453911 0.872251 -0.1957 -0.970648 0.1398 
-0.2759 -0.955459 0.104771 0.0144888 -0.682791 0.73047 0.303613 -0.475541 0.825639 
0.608793 -0.241809 0.755579 0.467959 -0.172525 0.866747 -0.198616 -0.945697 -0.257309 
-0.0830484 -0.971317 0.222815 0.289793 -0.283682 0.914081 0.467886 0.135601 0.873324 
0.401119 0.158816 0.902154 -0.304511 -0.918351 -0.252794 -0.415896 -0.882027 -0.221492 
-0.65576 -0.741402 -0.142482 -0.704145 0.454091 0.545876 0.137433 -0.826877 -0.545333 
-0.732633 0.414263 -0.540033 0.524608 0.625326 -0.577714 -0.533007 0.499406 0.683006 
0.666727 -0.392854 0.633357 -0.0538112 0.684132 0.72737 -0.129927 0.776429 0.616665 
-0.0834567 -0.988308 0.1276 -0.1025 -0.928693 0.356404 -0.260849 -0.965231 0.0169084 
0.0580321 -0.841603 0.53697 -0.177079 -0.910797 0.372951 0.11167 -0.63141 0.767366 
-0.256666 -0.965626 0.0411032 -0.00445339 -0.939237 0.343241 -0.170048 -0.95806 0.230662 
0.245383 -0.2117 0.946029 0.354478 -0.139219 0.924642 0.32555 0.138671 0.935301 
-0.530583 -0.842091 0.0967653 0.349231 0.466578 0.812615 -0.63911 -0.766189 0.067029 
-0.54089 -0.841082 -0.00439025 -0.544734 -0.785518 0.293643 -0.904964 -0.424392 -0.0305288 
0.261963 0.6196 0.739913 -0.471421 -0.580414 0.663989 -0.0444117 -0.771004 0.63528 
-0.24465 -0.948963 -0.199038 -0.410786 -0.888872 0.202884 -0.474042 -0.880266 -0.0204146 
-0.255683 -0.965186 -0.0551577 -0.128208 -0.828828 0.544616 -0.367938 -0.655652 0.659349 
-0.392037 -0.690004 0.608441 0.0816232 -0.631228 0.77129 -0.157916 -0.854161 0.49545 
-0.108647 -0.77467 0.622962 -0.497289 -0.811718 0.306297 -0.438088 -0.62682 0.644342 
0.0233686 -0.406956 0.913149 0.108448 -0.432549 0.895064 0.349613 0.29394 0.88959 
-0.414968 -0.902768 0.113183 -0.370017 -0.764662 0.527616 0.288694 0.434448 0.853177 
-0.554312 -0.812194 0.18188 -0.511413 -0.700761 0.497383 -0.463959 -0.820124 0.334871 
0.117438 0.359964 0.925545 -0.809529 -0.573046 0.127598 -0.75488 -0.436735 0.489304 
-0.64312 -0.502543 0.577795 -0.909663 -0.261966 0.322315 0.215258 0.296509 0.930455 
0.0936381 0.551261 0.829062 -0.933173 0.0405199 0.357136 -0.781552 0.435387 0.446783 
-0.506509 0.578167 0.639665 -0.146151 0.725982 0.672005 -0.1399 0.674677 0.724734 
-0.349445 -0.486017 0.801047 -0.229045 -0.405624 0.884877 0.00958142 -0.086752 0.996184 
0.309542 0.130897 0.941833 -0.0715893 -0.330328 0.941147 -0.00457241 -0.372413 0.928056 
0.218787 -0.233461 0.947432 0.275709 -0.130153 0.952389 0.206698 0.149863 0.966859 
-0.200292 -0.538522 0.81846 -0.0033415 -0.0488419 0.998801 -0.0957622 -0.153568 0.983487 
-0.364119 -0.480703 0.79771 -0.186596 -0.305366 0.933774 0.075747 0.108117 0.991248 
-0.384807 -0.454992 0.803061 0.0602256 0.208615 0.976142 -0.582573 -0.335218 0.74043 
-0.392638 -0.210578 0.895261 0.147193 0.179722 0.972643 -0.0704288 -0.0538694 0.996061 
-0.597448 -0.367908 0.71253 -0.267168 -0.0219423 0.9634 0.00833897 0.272177 0.962211 
-0.831308 -0.287128 0.475904 -0.191806 0.12794 0.973058 -0.206282 0.0957916 0.973792 
-0.132962 0.644415 0.753027 0.263103 0.320315 0.910041 -0.118872 -0.326008 0.937864 
0.00166124 0.0749079 0.997189 -0.0694818 -0.182828 0.980687 0.0494965 0.118867 0.991676 
-0.260552 -0.13892 0.955413 -0.0278683 0.357756 0.933399 -0.695049 0.141198 0.704961 
-0.315761 0.212554 0.924725 0.117659 -0.33185 -0.935966 -0.13749 -0.509219 -0.849584 
0.137753 -0.0988219 -0.985524 -0.246873 -0.573488 -0.781131 0.0177495 -0.101533 -0.994674 
-0.227072 -0.550497 -0.803363 0.0115209 0.0511153 -0.998626 0.193566 0.488826 -0.850636 
-0.215327 -0.333388 -0.917871 -0.0665578 -0.0797824 -0.994588 -0.306277 -0.343965 -0.887627 
-0.0935467 -0.00918865 -0.995573 0.0125843 0.216591 -0.976181 0.105596 0.07895 -0.99127 
0.207359 0.259777 -0.943143 -0.147269 -0.0227369 -0.988835 -0.244666 0.135493 -0.960094 
-0.36276 0.183721 -0.913593 -0.503808 -0.245094 -0.828316 -0.627891 0.0810551 -0.774069 
0.0421603 0.235225 -0.971026 0.0507972 0.349361 -0.93561 -0.189302 0.503127 -0.843225 
0.0544954 -0.791747 -0.608413 -0.0968713 -0.768959 -0.631916 -0.0187238 -0.654371 -0.755942 
-0.198665 -0.834131 -0.514546 -0.31551 -0.806924 -0.499326 -0.37402 -0.86049 -0.345928 