# vtk DataFile Version 4.2
vtk output
ASCII
DATASET POLYDATA
POINTS 4455 float
286.583 56.7875 120.443 287.008 56.6219 120.428 288.492 55.9349 120.624 
287.387 56.4459 120.458 287.878 56.2358 120.491 288.375 56.061 120.471 
285.259 57.2176 120.756 284.787 57.3577 120.949 286.162 56.9742 120.466 
286.616 56.7877 120.49 287.478 56.4298 120.473 285.26 57.2625 120.74 
285.588 57.1921 120.599 285.958 57.078 120.477 285.765 57.147 120.517 
288.42 55.6385 121.303 284.308 57.443 121.188 283.949 57.5418 121.358 
283.765 57.5633 121.456 283.581 57.598 121.6 284.328 57.4793 121.182 
280.333 60.2034 119.69 280.333 60.2034 119.691 280.333 60.2034 119.69 
280.333 60.2034 119.69 280.334 60.2034 119.691 280.334 60.2034 119.691 
280.333 60.2035 119.69 280.333 60.2034 119.69 280.333 60.2035 119.69 
280.333 60.2034 119.691 280.333 60.2035 119.69 287.852 55.7009 121.681 
288.441 55.3782 121.85 287.181 56.1924 121.19 288.489 55.7561 121.005 
288.435 55.6017 121.389 283.614 57.5491 121.609 283.274 57.6267 121.813 
283.111 57.635 121.936 283.01 57.6555 122.027 280.333 60.2033 119.691 
280.333 60.2033 119.691 280.334 60.2033 119.691 280.334 60.2033 119.691 
280.333 60.2034 119.691 280.333 60.2034 119.69 280.334 60.2033 119.691 
288.426 55.1495 122.364 286.471 56.3967 121.419 287.842 55.3045 122.587 
282.945 57.6137 122.148 282.555 57.6496 122.489 282.649 57.6833 122.362 
282.39 57.6933 122.589 282.249 57.7169 122.722 280.334 60.2032 119.691 
280.333 60.2033 119.691 280.334 60.2033 119.691 280.334 60.2032 119.691 
280.334 60.2033 119.691 287.718 55.223 122.884 287.499 55.1914 123.179 
285.831 56.4373 121.975 287.454 55.1951 123.228 281.275 57.8278 123.541 
281.073 57.865 123.685 281.753 57.7594 123.181 281.77 57.7522 123.269 
280.334 60.2032 119.691 288.247 54.7353 123.478 287.184 55.2192 123.441 
286.789 55.3013 123.664 285.384 56.3065 122.746 286.76 55.2885 123.737 
285.495 56.4232 122.427 280.915 57.8814 123.817 280.814 57.8886 123.921 
288.124 54.4529 124.257 286.211 55.5 123.813 285.345 56.0278 123.5 
285.355 56.2878 122.879 280.757 57.6636 124.568 280.725 57.8737 124.064 
287.942 54.1336 125.221 284.906 55.6934 124.81 283.942 56.1578 124.726 
284.675 56.0445 124.213 280.768 57.2207 125.727 282.052 56.8529 125.153 
283.012 56.6061 124.697 283.18 56.3225 125.212 282.251 56.8601 124.97 
280.479 57.5003 125.362 280.653 57.8102 124.33 280.663 57.8557 124.19 
280.687 57.6492 124.743 280.238 57.4033 125.951 287.441 54.6043 124.58 
287.195 54.7362 124.541 287.575 54.5032 124.685 287.697 54.2669 125.153 
287.516 53.8552 126.391 287.603 54.4741 124.734 284.391 55.6251 125.582 
285.279 55.3597 125.213 286.489 55.0403 124.615 287.166 54.7496 124.549 
287.457 54.5977 124.593 283.481 56.0773 125.472 283.328 56.0187 125.821 
284.495 55.6201 125.482 280.825 57.1436 125.899 280.748 56.9992 126.363 
281.378 56.8077 126.083 281.712 56.8815 125.537 282.991 56.1167 125.97 
280.048 57.3397 126.347 279.649 57.2343 127.153 280.121 57.1545 126.725 
280.547 57.2246 126.034 280.21 57.1455 126.662 281.34 56.9121 125.93 
277 59.0087 126.017 277 59.0087 126.017 277 59.0087 126.017 
279.803 57.2564 126.9 280.647 57.8512 124.227 277 59.0087 126.017 
277 59.0088 126.017 287.368 53.6377 127.101 287.503 54.5585 124.619 
287.418 54.61 124.588 287.118 53.5811 127.541 287.556 54.5215 124.66 
287.511 54.5535 124.626 283.221 55.8767 126.293 284.324 55.496 125.983 
284.889 55.4218 125.516 284.243 55.5042 126.067 287.388 54.6271 124.585 
283.521 55.7447 126.314 280.173 56.9562 127.162 280.503 56.9096 126.878 
282.199 56.0968 126.987 281.401 56.824 126.05 281.208 56.6734 126.671 
279.306 57.1429 127.845 280.283 56.9259 127.174 277 59.0087 126.018 
287.058 53.4705 127.877 285.771 53.3639 129.781 285.777 53.3547 129.787 
285.784 53.3616 129.757 286.606 53.4185 128.558 283.466 55.5467 126.863 
285.732 53.3819 129.795 281.492 56.2749 127.33 279.629 56.8363 128.14 
278.446 57.0189 129.275 278.178 56.9937 129.72 278.839 57.0611 128.665 
279.027 56.9261 128.676 279.609 56.9764 127.857 279.685 56.8234 128.221 
279.315 56.9578 128.295 286.27 53.0351 129.844 285.757 53.3384 129.824 
286.53 53.2393 129.06 286.4 53.1009 129.539 285.687 53.3863 129.839 
285.875 53.3625 129.598 285.73 53.3827 129.777 282.552 55.5228 127.99 
285.68 53.4123 129.813 282.976 55.5406 127.474 285.669 53.407 129.824 
279.258 56.8053 128.679 277.885 56.9457 130.208 279.323 56.8731 128.575 
285.963 52.8721 130.565 285.922 52.8709 130.616 285.321 53.327 130.297 
285.962 53.1087 130.04 285.804 52.8149 130.876 285.63 53.4306 129.836 
285.548 53.4089 129.928 285.008 53.4589 130.366 285.662 53.4331 129.805 
282.59 55.509 128.013 282.242 55.445 128.589 279.494 55.9388 130.263 
277.611 56.8977 130.658 277.471 56.8276 130.943 277.384 56.8603 131.074 
285.746 52.7651 131.052 285.546 52.6867 131.452 285.554 52.6756 131.469 
285.687 52.7207 131.219 285.758 52.7439 131.088 284.514 53.4798 130.857 
285.508 52.6718 131.53 284.953 53.4083 130.526 280.86 55.0803 131.135 
281.767 54.6692 131.1 285.644 53.4432 129.809 283.986 53.6461 131.064 
280.3 55.368 131.004 281.744 55.1164 130.019 281.944 55.3323 129.231 
285.653 53.4426 129.801 277.147 56.7816 131.537 278.144 56.7116 130.817 
277.219 56.822 131.48 288 51.0087 132.017 288 51.0087 132.017 
288 51.0087 132.017 288 51.0087 132.017 285.33 52.6279 131.826 
285.083 52.6083 132.146 285.097 52.5961 132.157 285.308 52.6244 131.858 
288 51.0088 132.017 285.659 52.6866 131.328 282.109 54.1121 132.065 
283.264 53.8554 131.374 283.712 53.6 131.472 285.075 52.6048 132.163 
284.547 53.4739 130.834 284.13 53.539 131.149 285.29 52.6164 131.897 
282.363 54.2803 131.375 285.648 53.4464 129.801 280.634 54.9351 131.796 
280.564 55.2932 131.057 280.008 55.29 131.716 280.954 54.9021 131.52 
281.758 54.767 130.897 276.876 56.662 132.121 276.53 56.6381 132.736 
276.815 56.7254 132.222 285.172 50.9984 135.663 285.15 50.9987 135.688 
285.157 50.9986 135.68 288 51.0087 132.017 285.179 50.9983 135.657 
284.826 52.596 132.46 284.527 52.6201 132.74 284.543 52.6079 132.75 
284.813 52.6006 132.464 285.143 50.9988 135.695 285.078 52.5929 132.185 
282.403 53.7845 132.498 282.99 53.6405 132.179 284.53 52.6189 132.739 
283.727 53.5917 131.475 283.356 53.6231 131.814 284.811 52.5988 132.471 
280.182 55.0018 132.169 281.367 54.5041 132 280.562 54.6937 132.502 
282.342 53.9322 132.225 276.242 56.5916 133.318 276.47 56.6596 132.88 
276.619 56.6687 132.774 285.107 50.9993 135.735 285.047 51.0001 135.8 
285.045 51.0001 135.801 285.114 50.9992 135.727 285.18 50.9983 135.655 
285.174 50.9984 135.662 285.179 50.9983 135.656 284.225 52.651 133.009 
283.875 52.7191 133.249 283.895 52.7071 133.253 284.215 52.6554 133.011 
285.025 51.0004 135.824 284.826 52.5874 132.479 284.535 52.6098 132.754 
285.068 50.9998 135.777 285.15 50.9987 135.688 282.594 53.5161 132.905 
283.902 52.7154 133.228 284.224 52.6545 133.003 279.319 54.8893 133.507 
280.111 54.7087 133.002 282.339 53.6394 132.907 278.565 55.182 133.687 
276.016 56.4927 133.843 275.981 56.5403 133.894 276.278 56.6108 133.336 
284.963 51.0012 135.891 284.885 51.0023 135.975 284.875 51.0024 135.986 
284.992 51.0008 135.86 285.092 50.9995 135.75 285.006 51.0006 135.844 
285.155 50.9986 135.682 283.534 52.7983 133.456 283.119 52.9116 133.671 
283.53 52.7887 133.481 284.859 51.0026 136.004 284.231 52.6425 133.021 
283.898 52.704 133.257 284.924 51.0017 135.933 283.254 52.8876 133.573 
282.431 53.4023 133.348 283.568 52.7878 133.441 279.713 54.597 133.754 
282.102 53.4621 133.589 278.044 55.1351 134.489 279.183 54.6397 134.301 
278.806 55.1945 133.544 278.312 55.1309 134.296 275.601 56.4758 134.569 
275.18 56.4982 135.139 275.318 56.4901 134.999 287 50.0087 136.017 
287 50.0087 136.017 287 50.0087 136.017 287 50.0087 136.017 
284.776 51.0037 136.094 284.689 51.0049 136.188 284.678 51.005 136.2 
284.825 51.0031 136.041 284.914 51.0019 135.944 284.796 51.0034 136.071 
287 50.0088 136.017 282.461 53.1835 133.81 282.816 52.9705 133.882 
284.667 51.0052 136.212 284.759 51.004 136.112 280.275 53.9224 134.667 
281.252 53.5554 134.364 278.777 54.6635 134.769 279.654 54.3214 134.482 
281.137 53.5763 134.452 275.679 55.9954 135.707 274.885 56.5249 135.5 
274.95 56.5254 135.433 285.666 50.0043 137.655 285.665 50.0043 137.655 
285.665 50.0043 137.655 287 50.0087 136.017 285.666 50.0043 137.655 
284.591 51.0062 136.294 284.524 51.007 136.367 284.513 51.0072 136.379 
284.593 51.0061 136.292 284.659 51.0053 136.22 284.69 51.0049 136.187 
285.665 50.0043 137.655 282.413 53.0713 134.112 284.512 51.0072 136.379 
284.567 51.0065 136.321 284.619 51.0058 136.264 281.267 53.4685 134.543 
280.385 53.6916 135.066 281.98 53.2175 134.282 276.721 55.3206 136.036 
277.958 54.8768 135.382 278.806 54.3176 135.547 279.188 54.1571 135.438 
275.635 55.7523 136.484 274.852 56.4602 135.739 275.372 56.2465 135.585 
274.81 56.4911 135.745 275.678 55.8751 136.166 274.575 56.5887 135.812 
285.665 50.0044 137.655 285.665 50.0044 137.655 285.665 50.0044 137.655 
285.665 50.0044 137.655 285.665 50.0044 137.655 284.458 51.0079 136.439 
284.427 51.0083 136.472 284.406 51.0086 136.495 284.467 51.0078 136.428 
284.523 51.0071 136.368 285.665 50.0044 137.655 284.628 51.0057 136.254 
284.561 51.0066 136.327 285.665 50.0044 137.655 280.667 52.0058 138.655 
280.667 52.0058 138.655 280.667 52.0058 138.655 284.427 51.0083 136.472 
280.667 52.0058 138.655 284.452 51.008 136.445 284.496 51.0074 136.397 
279.921 53.7692 135.432 280.667 52.0058 138.655 278.962 54.051 135.943 
275.946 55.4429 136.899 278.936 54.1134 135.839 274.404 56.6032 136.034 
275.374 55.6793 137.152 274.315 56.6418 136.059 286 49.0087 139.017 
286 49.0087 139.017 286 49.0087 139.017 286 49.0087 139.017 
285.665 50.0044 137.655 285.665 50.0044 137.655 286 49.0088 139.017 
284.394 51.0087 136.508 284.388 51.0088 136.515 284.436 51.0082 136.463 
284.48 51.0076 136.414 284.434 51.0082 136.464 280.666 52.0058 138.655 
[...]
POINT_DATA 4455
SCALARS scalars float
LOOKUP_TABLE default
1 1 1 1 1 1 1 1 1 
1 1 1 1 1 1 1 1 1 
1 1 1 1 1 1 1 1 1 
1 1 1 1 1 1 1 1 1 
1 1 1 1 1 1 1 1 1 
1 1 1 1 1 1 1 1 1 
1 1 1 1 1 1 1 1 1 
1 1 1 1 1 1 1 1 1 
1 1 1 1 1 1 1 1 1 
1 1 1 1 1 1 1 1 1 
1 1 1 1 1 1 1 1 1 
1 1 1 1 1 1 1 1 1 
1 1 1 1 1 1 1 1 1 
1 1 1 1 1 1 1 1 1 
1 1 1 1 1 1 1 1 1 
1 1 1 1 1 1 1 1 1 
1 1 1 1 1 1 1 1 1 
1 1 1 1 1 1 1 1 1 
1 1 1 1 1 1 1 1 1 
1 1 1 1 1 1 1 1 1 
1 1 1 1 1 1 1 1 1 
1 1 1 1 1 1 1 1 1 
1 1 1 1 1 1 1 1 1 
1 1 1 1 1 1 1 1 1 
1 1 1 1 1 1 1 1 1 
1 1 1 1 1 1 1 1 1 
1 1 1 1 1 1 1 1 1 
1 1 1 1 1 1 1 1 1 
1 1 1 1 1 1 1 1 1 
1 1 1 1 1 1 1 1 1 
1 1 1 1 1 1 1 1 1 
1 1 1 1 1 1 1 1 1 
1 1 1 1 1 1 1 1 1 
1 1 1 1 1 1 1 1 1 
1 1 1 1 1 1 1 1 1 
1 1 1 1 1 1 1 1 1 
1 1 1 1 1 1 1 1 1 
1 1 1 1 1 1 1 1 1 
1 1 1 1 1 1 1 1 1 
1 1 1 1 1 1 1 1 1 
1 1 1 1 1 1 1 1 1 
1 1 1 1 1 1 1 1 1 
1 1 1 1 1 1 1 1 1 
1 1 1 1 1 1 1 1 1 
1 1 1 1 1 1 1 1 1 
1 1 1 1 1 1 1 1 1 
1 1 1 1 1 1 1 1 1 
1 1 1 1 1 1 1 1 1 
1 1 1 1 1 1 1 1 1 
1 1 1 1 1 1 1 1 1 
1 1 1 1 1 1 1 1 1 
1 1 1 1 1 1 1 1 1 
1 1 1 1 1 1 1 1 1 
1 1 1 1 1 1 1 1 1 
1 1 1 1 1 1 1 1 1 
1 1 1 1 1 1 1 1 1 
1 1 1 1 1 1 1 1 1 
1 1 1 1 1 1 1 1 1 
1 1 1 1 1 1 1 1 1 
1 1 1 1 1 1 1 1 1 
1 1 1 1 1 1 1 1 1 
1 1 1 1 1 1 1 1 1 
1 1 1 1 1 1 1 1 1 
1 1 1 1 1 1 1 1 1 
1 1 1 1 1 1 1 1 1 
1 1 1 1 1 1 1 1 1 
1 1 1 1 1 1 1 1 1 
1 1 1 1 1 1 1 1 1 
1 1 1 1 1 1 1 1 1 
1 1 1 1 1 1 1 1 1 
1 1 1 1 1 1 1 1 1 
1 1 1 1 1 1 1 1 1 
1 1 1 1 1 1 1 1 1 
1 1 1 1 1 1 1 1 1 
1 1 1 1 1 1 1 1 1 
1 1 1 1 1 1 1 1 1 
1 1 1 1 1 1 1 1 1 
1 1 1 1 1 1 1 1 1 
1 1 1 1 1 1 1 1 1 
1 1 1 1 1 1 1 1 1 
1 1 1 1 1 1 1 1 1 
1 1 1 1 1 1 1 1 1 
1 1 1 1 1 1 1 1 1 
1 1 1 1 1 1 1 1 1 
1 1 1 1 1 1 1 1 1 
1 1 1 1 1 1 1 1 1 
1 1 1 1 1 1 1 1 1 
1 1 1 1 1 1 1 1 1 
1 1 1 1 1 1 1 1 1 
1 1 1 1 1 1 1 1 1 
1 1 1 1 1 1 1 1 1 
1 1 1 1 1 1 1 1 1 
1 1 1 1 1 1 1 1 1 
1 1 1 1 1 1 1 1 1 
1 1 1 1 1 1 1 1 1 
1 1 1 1 1 1 1 1 1 
1 1 1 1 1 1 1 1 1 
1 1 1 1 1 1 1 1 1 
1 1 1 1 1 1 1 1 1 
1 1 1 1 1 1 1 1 1 
1 1 1 1 1 1 1 1 1 
1 1 1 1 1 1 1 1 1 
1 1 1 1 1 1 1 1 1 
1 1 1 1 1 1 1 1 1 
1 1 1 1 1 1 1 1 1 
1 1 1 1 1 1 1 1 1 
1 1 1 1 1 1 1 1 1 
1 1 1 1 1 1 1 1 1 
1 1 1 1 1 1 1 1 1 
1 1 1 1 1 1 1 1 1 
1 1 1 1 1 1 1 1 1 
1 1 1 1 1 1 1 1 1 
1 1 1 1 1 1 1 1 1 
1 1 1 1 1 1 1 1 1 
1 1 1 1 1 1 1 1 1 
1 1 1 1 1 1 1 1 1 
1 1 1 1 1 1 1 1 1 
1 1 1 1 1 1 1 1 1 
1 1 1 1 1 1 1 1 1 
1 1 1 1 1 1 1 1 1 
1 1 1 1 1 1 1 1 1 
1 1 1 1 1 1 1 1 1 
1 1 1 1 1 1 1 1 1 
1 1 1 1 1 1 1 1 1 
1 1 1 1 1 1 1 1 1 
1 1 1 1 1 1 1 1 1 
1 1 1 1 1 1 1 1 1 
1 1 1 1 1 1 1 1 1 
1 1 1 1 1 1 1 1 1 
1 1 1 1 1 1 1 1 1 
1 1 1 1 1 1 1 1 1 
1 1 1 1 1 1 1 1 1 
1 1 1 1 1 1 1 1 1 
1 1 1 1 1 1 1 1 1 
1 1 1 1 1 1 1 1 1 
1 1 1 1 1 1 1 1 1 
1 1 1 1 1 1 1 1 1 
1 1 1 1 1 1 1 1 1 
1 1 1 1 1 1 1 1 1 
1 1 1 1 1 1 1 1 1 
1 1 1 1 1 1 1 1 1 
1 1 1 1 1 1 1 1 1 
1 1 1 1 1 1 1 1 1 
1 1 1 1 1 1 1 1 1 
1 1 1 1 1 1 1 1 1 
1 1 1 1 1 1 1 1 1 
1 1 1 1 1 1 1 1 1 
1 1 1 1 1 1 1 1 1 
1 1 1 1 1 1 1 1 1 
1 1 1 1 1 1 1 1 1 
1 1 1 1 1 1 1 1 1 
1 1 1 1 1 1 1 1 1 
1 1 1 1 1 1 1 1 1 
1 1 1 1 1 1 1 1 1 
1 1 1 1 1 1 1 1 1 
1 1 1 1 1 1 1 1 1 
1 1 1 1 1 1 1 1 1 
1 1 1 1 1 1 1 1 1 
1 1 1 1 1 1 1 1 1 
1 1 1 1 1 1 1 1 1 
1 1 1 1 1 1 1 1 1 
1 1 1 1 1 1 1 1 1 
1 1 1 1 1 1 1 1 1 
1 1 1 1 1 1 1 1 1 
1 1 1 1 1 1 1 1 1 
1 1 1 1 1 1 1 1 1 
1 1 1 1 1 1 1 1 1 
1 1 1 1 1 1 1 1 1 
1 1 1 1 1 1 1 1 1 
1 1 1 1 1 1 1 1 1 
1 1 1 1 1 1 1 1 1 
1 1 1 1 1 1 1 1 1 
1 1 1 1 1 1 1 1 1 
1 1 1 1 1 1 1 1 1 
1 1 1 1 1 1 1 1 1 
1 1 1 1 1 1 1 1 1 
1 1 1 1 1 1 1 1 1 
1 1 1 1 1 1 1 1 1 
1 1 1 1 1 1 1 1 1 
1 1 1 1 1 1 1 1 1 
1 1 1 1 1 1 1 1 1 
1 1 1 1 1 1 1 1 1 
1 1 1 1 1 1 1 1 1 
1 1 1 1 1 1 1 1 1 
1 1 1 1 1 1 1 1 1 
1 1 1 1 1 1 1 1 1 
1 1 1 1 1 1 1 1 1 
1 1 1 1 1 1 1 1 1 
1 1 1 1 1 1 1 1 1 
1 1 1 1 1 1 1 1 1 
1 1 1 1 1 1 1 1 1 
1 1 1 1 1 1 1 1 1 
1 1 1 1 1 1 1 1 1 
1 1 1 1 1 1 1 1 1 
1 1 1 1 1 1 1 1 1 
1 1 1 1 1 1 1 1 1 
1 1 1 1 1 1 1 1 1 
1 1 1 1 1 1 1 1 1 
1 1 1 1 1 1 1 1 1 
1 1 1 1 1 1 1 1 1 
1 1 1 1 1 1 1 1 1 
1 1 1 1 1 1 1 1 1 
1 1 1 1 1 1 1 1 1 
1 1 1 1 1 1 1 1 1 
1 1 1 1 1 1 1 1 1 
1 1 1 1 1 1 1 1 1 
1 1 1 1 1 1 1 1 1 
1 1 1 1 1 1 1 1 1 
1 1 1 1 1 1 1 1 1 
1 1 1 1 1 1 1 1 1 
1 1 1 1 1 1 1 1 1 
1 1 1 1 1 1 1 1 1 
1 1 1 1 1 1 1 1 1 
1 1 1 1 1 1 1 1 1 
1 1 1 1 1 1 1 1 1 
1 1 1 1 1 1 1 1 1 
1 1 1 1 1 1 1 1 1 
1 1 1 1 1 1 1 1 1 
1 1 1 1 1 1 1 1 1 
1 1 1 1 1 1 1 1 1 
1 1 1 1 1 1 1 1 1 
1 1 1 1 1 1 1 1 1 
1 1 1 1 1 1 1 1 1 
1 1 1 1 1 1 1 1 1 
1 1 1 1 1 1 1 1 1 
1 1 1 1 1 1 1 1 1 
1 1 1 1 1 1 1 1 1 
1 1 1 1 1 1 1 1 1 
1 1 1 1 1 1 1 1 1 
1 1 1 1 1 1 1 1 1 
1 1 1 1 1 1 1 1 1 
1 1 1 1 1 1 1 1 1 
1 1 1 1 1 1 1 1 1 
1 1 1 1 1 1 1 1 1 
1 1 1 1 1 1 1 1 1 
1 1 1 1 1 1 1 1 1 
1 1 1 1 1 1 1 1 1 
1 1 1 1 1 1 1 1 1 
1 1 1 1 1 1 1 1 1 
1 1 1 1 1 1 1 1 1 
1 1 1 1 1 1 1 1 1 
1 1 1 1 1 1 1 1 1 
1 1 1 1 1 1 1 1 1 
1 1 1 1 1 1 1 1 1 
1 1 1 1 1 1 1 1 1 
1 1 1 1 1 1 1 1 1 
1 1 1 1 1 1 1 1 1 
1 1 1 1 1 1 1 1 1 
1 1 1 1 1 1 1 1 1 
1 1 1 1 1 1 1 1 1 
1 1 1 1 1 1 1 1 1 
1 1 1 1 1 1 1 1 1 
1 1 1 1 1 1 1 1 1 
1 1 1 1 1 1 1 1 1 
1 1 1 1 1 1 1 1 1 
1 1 1 1 1 1 1 1 1 
1 1 1 1 1 1 1 1 1 
1 1 1 1 1 1 1 1 1 
1 1 1 1 1 1 1 1 1 
1 1 1 1 1 1 1 1 1 
1 1 1 1 1 1 1 1 1 
1 1 1 1 1 1 1 1 1 
1 1 1 1 1 1 1 1 1 
1 1 1 1 1 1 1 1 1 
1 1 1 1 1 1 1 1 1 
1 1 1 1 1 1 1 1 1 
1 1 1 1 1 1 1 1 1 
1 1 1 1 1 1 1 1 1 
1 1 1 1 1 1 1 1 1 
1 1 1 1 1 1 1 1 1 
1 1 1 1 1 1 1 1 1 
1 1 1 1 1 1 1 1 1 
1 1 1 1 1 1 1 1 1 
1 1 1 1 1 1 1 1 1 
1 1 1 1 1 1 1 1 1 
1 1 1 1 1 1 1 1 1 
1 1 1 1 1 1 1 1 1 
1 1 1 1 1 1 1 1 1 
1 1 1 1 1 1 1 1 1 
1 1 1 1 1 1 1 1 1 
1 1 1 1 1 1 1 1 1 
1 1 1 1 1 1 1 1 1 
1 1 1 1 1 1 1 1 1 
1 1 1 1 1 1 1 1 1 
1 1 1 1 1 1 1 1 1 
1 1 1 1 1 1 1 1 1 
1 1 1 1 1 1 1 1 1 
1 1 1 1 1 1 1 1 1 
1 1 1 1 1 1 1 1 1 
1 1 1 1 1 1 1 1 1 
1 1 1 1 1 1 1 1 1 
1 1 1 1 1 1 1 1 1 
1 1 1 1 1 1 1 1 1 
1 1 1 1 1 1 1 1 1 
1 1 1 1 1 1 1 1 1 
1 1 1 1 1 1 1 1 1 
1 1 1 1 1 1 1 1 1 
1 1 1 1 1 1 1 1 1 
1 1 1 1 1 1 1 1 1 
1 1 1 1 1 1 1 1 1 
1 1 1 1 1 1 1 1 1 
1 1 1 1 1 1 1 1 1 
1 1 1 1 1 1 1 1 1 
1 1 1 1 1 1 1 1 1 
1 1 1 1 1 1 1 1 1 
1 1 1 1 1 1 1 1 1 
1 1 1 1 1 1 1 1 1 
1 1 1 1 1 1 1 1 1 
1 1 1 1 1 1 1 1 1 
1 1 1 1 1 1 1 1 1 
1 1 1 1 1 1 1 1 1 
1 1 1 1 1 1 1 1 1 
1 1 1 1 1 1 1 1 1 
1 1 1 1 1 1 1 1 1 
1 1 1 1 1 1 1 1 1 
1 1 1 1 1 1 1 1 1 
1 1 1 1 1 1 1 1 1 
1 1 1 1 1 1 1 1 1 
1 1 1 1 1 1 1 1 1 
1 1 1 1 1 1 1 1 1 
1 1 1 1 1 1 1 1 1 
1 1 1 1 1 1 1 1 1 
1 1 1 1 1 1 1 1 1 
1 1 1 1 1 1 1 1 1 
1 1 1 1 1 1 1 1 1 
1 1 1 1 1 1 1 1 1 
1 1 1 1 1 1 1 1 1 
1 1 1 1 1 1 1 1 1 
1 1 1 1 1 1 1 1 1 
1 1 1 1 1 1 1 1 1 
1 1 1 1 1 1 1 1 1 
1 1 1 1 1 1 1 1 1 
1 1 1 1 1 1 1 1 1 
1 1 1 1 1 1 1 1 1 
1 1 1 1 1 1 1 1 1 
1 1 1 1 1 1 1 1 1 
1 1 1 1 1 1 1 1 1 
1 1 1 1 1 1 1 1 1 
1 1 1 1 1 1 1 1 1 
1 1 1 1 1 1 1 1 1 
1 1 1 1 1 1 1 1 1 
1 1 1 1 1 1 1 1 1 
1 1 1 1 1 1 1 1 1 
1 1 1 1 1 1 1 1 1 
1 1 1 1 1 1 1 1 1 
1 1 1 1 1 1 1 1 1 
1 1 1 1 1 1 1 1 1 
1 1 1 1 1 1 1 1 1 
1 1 1 1 1 1 1 1 1 
1 1 1 1 1 1 1 1 1 
1 1 1 1 1 1 1 1 1 
1 1 1 1 1 1 1 1 1 
1 1 1 1 1 1 1 1 1 
1 1 1 1 1 1 1 1 1 
1 1 1 1 1 1 1 1 1 
1 1 1 1 1 1 1 1 1 
1 1 1 1 1 1 1 1 1 
1 1 1 1 1 1 1 1 1 
1 1 1 1 1 1 1 1 1 
1 1 1 1 1 1 1 1 1 
1 1 1 1 1 1 1 1 1 
1 1 1 1 1 1 1 1 1 
1 1 1 1 1 1 1 1 1 
1 1 1 1 1 1 1 1 1 
1 1 1 1 1 1 1 1 1 
1 1 1 1 1 1 1 1 1 
1 1 1 1 1 1 1 1 1 
1 1 1 1 1 1 1 1 1 
1 1 1 1 1 1 1 1 1 
1 1 1 1 1 1 1 1 1 
1 1 1 1 1 1 1 1 1 
1 1 1 1 1 1 1 1 1 
1 1 1 1 1 1 1 1 1 
1 1 1 1 1 1 1 1 1 
1 1 1 1 1 1 1 1 1 
1 1 1 1 1 1 1 1 1 
1 1 1 1 1 1 1 1 1 
1 1 1 1 1 1 1 1 1 
1 1 1 1 1 1 1 1 1 
1 1 1 1 1 1 1 1 1 
1 1 1 1 1 1 1 1 1 
1 1 1 1 1 1 1 1 1 
1 1 1 1 1 1 1 1 1 
1 1 1 1 1 1 1 1 1 
1 1 1 1 1 1 1 1 1 
1 1 1 1 1 1 1 1 1 
1 1 1 1 1 1 1 1 1 
1 1 1 1 1 1 1 1 1 
1 1 1 1 1 1 1 1 1 
1 1 1 1 1 1 1 1 1 
1 1 1 1 1 1 1 1 1 
1 1 1 1 1 1 1 1 1 
1 1 1 1 1 1 1 1 1 
1 1 1 1 1 1 1 1 1 
1 1 1 1 1 1 1 1 1 
1 1 1 1 1 1 1 1 1 
1 1 1 1 1 1 1 1 1 
1 1 1 1 1 1 1 1 1 
1 1 1 1 1 1 1 1 1 
1 1 1 1 1 1 1 1 1 
1 1 1 1 1 1 1 1 1 
1 1 1 1 1 1 1 1 1 
1 1 1 1 1 1 1 1 1 
1 1 1 1 1 1 1 1 1 
1 1 1 1 1 1 1 1 1 
1 1 1 1 1 1 1 1 1 
1 1 1 1 1 1 1 1 1 
1 1 1 1 1 1 1 1 1 
1 1 1 1 1 1 1 1 1 
1 1 1 1 1 1 1 1 1 
1 1 1 1 1 1 1 1 1 
1 1 1 1 1 1 1 1 1 
1 1 1 1 1 1 1 1 1 
1 1 1 1 1 1 1 1 1 
1 1 1 1 1 1 1 1 1 
1 1 1 1 1 1 1 1 1 
1 1 1 1 1 1 1 1 1 
1 1 1 1 1 1 1 1 1 
1 1 1 1 1 1 1 1 1 
1 1 1 1 1 1 1 1 1 
1 1 1 1 1 1 1 1 1 
1 1 1 1 1 1 1 1 1 
1 1 1 1 1 1 1 1 1 
1 1 1 1 1 1 1 1 1 
1 1 1 1 1 1 1 1 1 
1 1 1 1 1 1 1 1 1 
1 1 1 1 1 1 1 1 1 
1 1 1 1 1 1 1 1 1 
1 1 1 1 1 1 1 1 1 
1 1 1 1 1 1 1 1 1 
1 1 1 1 1 1 1 1 1 
1 1 1 1 1 1 1 1 1 
1 1 1 1 1 1 1 1 1 
1 1 1 1 1 1 1 1 1 
1 1 1 1 1 1 1 1 1 
1 1 1 1 1 1 1 1 1 
1 1 1 1 1 1 1 1 1 
1 1 1 1 1 1 1 1 1 
1 1 1 1 1 1 1 1 1 
1 1 1 1 1 1 1 1 1 
1 1 1 1 1 1 1 1 1 
1 1 1 1 1 1 1 1 1 
1 1 1 1 1 1 1 1 1 
1 1 1 1 1 1 1 1 1 
1 1 1 1 1 1 1 1 1 
1 1 1 1 1 1 1 1 1 
1 1 1 1 1 1 1 1 1 
1 1 1 1 1 1 1 1 1 
1 1 1 1 1 1 1 1 1 
1 1 1 1 1 1 1 1 1 
1 1 1 1 1 1 1 1 1 
1 1 1 1 1 1 1 1 1 
1 1 1 1 1 1 1 1 1 
1 1 1 1 1 1 1 1 1 
1 1 1 1 1 1 1 1 1 
1 1 1 1 1 1 1 1 1 
1 1 1 1 1 1 1 1 1 
1 1 1 1 1 1 1 1 1 
1 1 1 1 1 1 1 1 1 
1 1 1 1 1 1 1 1 1 
1 1 1 1 1 1 1 1 1 
1 1 1 1 1 1 1 1 1 
1 1 1 1 1 1 1 1 1 
1 1 1 1 1 1 1 1 1 
1 1 1 1 1 1 1 1 1 
1 1 1 1 1 1 1 1 1 
1 1 1 1 1 1 1 1 1 
1 1 1 1 1 1 1 1 1 
1 1 1 1 1 1 1 1 1 
1 1 1 1 1 1 1 1 1 
1 1 1 1 1 1 1 1 1 
1 1 1 1 1 1 1 1 1 
1 1 1 1 1 1 1 1 1 
1 1 1 1 1 1 1 1 1 
1 1 1 1 1 1 1 1 1 
1 1 1 1 1 1 1 1 1 
1 1 1 1 1 1 1 1 1 
1 1 1 1 1 1 1 1 1 
1 1 1 1 1 1 1 1 1 
1 1 1 1 1 1 1 1 1 
1 1 1 1 1 1 1 1 1 
1 1 1 1 1 1 1 1 1 
1 1 1 1 1 1 1 1 1 
1 1 1 1 1 1 1 1 1 
1 1 1 1 1 1 1 1 1 
1 1 1 1 1 1 1 1 1 
1 1 1 1 1 1 1 1 1 
1 1 1 1 1 1 1 1 1 
1 1 1 1 1 1 1 1 1 
1 1 1 1 1 1 1 1 1 
1 1 1 1 1 1 1 1 1 
1 1 1 1 1 1 1 1 1 
1 1 1 1 1 1 1 1 1 
1 1 1 1 1 1 1 1 1 
1 1 1 1 1 1 1 1 1 

NORMALS Normals float
-0.362543 -0.82932 -0.425196 -0.0579319 -0.174321 -0.982983 -0.324731 -0.850632 -0.413492 
-0.0967072 -0.367519 -0.924974 -0.205809 -0.587813 -0.78238 -0.305029 -0.768854 -0.561979 
-0.424057 -0.626246 -0.654211 -0.423712 -0.00179567 -0.905795 -0.378706 -0.734206 -0.563492 
0.387402 0.919534 -0.0661574 0.403796 0.914185 -0.0348592 -0.392946 0.0530949 -0.918027 
-0.434675 -0.178863 -0.882647 0.413517 0.87423 0.254411 -0.434493 -0.420538 -0.796469 
-0.188513 -0.892364 -0.410059 -0.465219 -0.516777 -0.718688 0.314397 0.921435 0.228282 
-0.521216 -0.449236 -0.725618 0.137602 0.990382 0.0144531 -0.352822 0.315469 -0.880906 
0.0109912 -0.887496 -0.460685 0.00627558 -0.883197 -0.468959 -0.0555858 -0.91285 -0.404493 
-0.0144782 -0.922376 -0.386022 -0.0126988 -0.907594 -0.419658 -0.0342417 -0.915653 -0.400508 
0.00246665 -0.920129 -0.391608 -0.0722743 -0.936124 -0.344163 -0.0207612 0.852142 0.522899 
-0.000704603 0.88706 0.461653 0.0571662 -0.971825 -0.228665 -0.35066 -0.85317 -0.386184 
-0.0249289 -0.903113 -0.428678 -0.346921 -0.850676 -0.394963 -0.181604 -0.899383 -0.397655 
0.117197 -0.905444 -0.407966 -0.4094 -0.814588 -0.410899 -0.24289 0.875372 -0.418004 
-0.610194 -0.406212 -0.680187 -0.0880863 0.979919 -0.178887 -0.0147377 -0.90798 -0.418753 
-0.0635997 -0.935837 -0.346646 0.00809624 -0.888931 -0.457969 0.00224029 -0.89621 -0.443624 
0.00434726 0.903832 0.427866 -0.00137741 0.892104 0.451828 0.00944242 0.904596 0.426166 
-0.371211 -0.844268 -0.386541 -0.364014 -0.849785 -0.38126 -0.359035 -0.853547 -0.37756 
-0.446749 -0.784844 -0.429459 -0.415503 -0.831235 -0.369332 -0.649873 0.137391 -0.747522 
-0.616059 -0.484904 -0.620757 -0.703292 -0.0716979 -0.707276 0.012617 -0.966876 -0.254934 
-0.0318479 -0.9709 -0.237359 0.0244875 -0.909678 -0.414592 0.0492237 -0.954209 -0.295063 
0 0.894427 0.447214 -0.281699 -0.892837 -0.351409 -0.293902 -0.919732 -0.260222 
-0.373494 -0.851716 -0.367535 0.529174 0.70899 0.466164 -0.396499 -0.848705 -0.349984 
0.33137 0.910266 0.248213 -0.376772 -0.865308 -0.330584 0.192223 0.97665 0.0959416 
0.0133595 -0.999911 0 -0.375545 -0.849002 -0.371701 -0.35215 -0.876598 -0.327974 
-0.375106 -0.864931 -0.333451 -0.36676 -0.853999 -0.369016 -0.402997 -0.836604 -0.371062 
0.694762 0.599552 0.397295 -0.23901 -0.956652 -0.166406 -0.23901 -0.956652 -0.166406 
-0.368369 -0.851961 -0.372112 -0.392602 -0.850838 -0.349198 -0.38473 -0.858709 -0.338528 
0.752151 0.560663 0.346304 -0.442792 -0.828569 -0.342649 -0.341094 -0.889096 -0.305226 
-0.369545 -0.859096 -0.354107 -0.392404 -0.851006 -0.349009 -0.387182 -0.856394 -0.341585 
0.390988 0.848152 0.357443 -0.382124 -0.866185 -0.322033 -0.387277 -0.859569 -0.333403 
-0.382735 -0.860623 -0.33592 -0.400103 -0.851487 -0.338951 0.519106 0.710034 0.475794 
-0.618511 -0.696864 -0.363077 -0.432071 -0.849111 -0.30385 -0.370691 -0.8755 -0.30998 
-0.707781 -0.612652 -0.351716 -0.66323 -0.645828 -0.378197 -0.366413 -0.83467 -0.411178 
-0.384776 -0.873008 -0.299675 -0.356612 -0.863876 -0.355733 -0.369545 -0.859096 -0.354107 
-0.375973 -0.861257 -0.341878 0.323432 0.872214 0.366927 -0.381934 -0.862911 -0.330926 
-0.394725 -0.852161 -0.343531 -0.403553 -0.897744 -0.176639 0.340822 0.796906 0.498779 
0.290452 0.757917 0.584123 -0.40007 -0.851431 -0.339129 -0.429461 -0.840137 -0.33126 
-0.381671 -0.86288 -0.331308 -0.351662 -0.880884 -0.316823 -0.403255 -0.856391 -0.322461 
0.0827501 -0.990975 -0.105452 0.773413 0.119637 0.62251 -0.40631 -0.851242 -0.332113 
-0.415298 -0.851981 -0.318835 -0.435663 -0.837007 -0.331085 -0.392251 -0.859945 -0.32655 
0.660102 0.588523 0.466804 -0.278936 -0.902432 -0.328345 0.518254 0.733377 0.439966 
0 -0.970142 -0.242536 0 -0.999201 -0.0399606 -0.184146 -0.982114 -0.0392772 
0.265058 0.928102 0.261479 -0.474037 -0.827374 -0.301232 0.184146 -0.982114 -0.0392772 
0 0.996172 0.0874195 -0.375973 -0.861257 -0.341878 -0.616697 -0.786185 0.0399653 
-0.431403 -0.864435 -0.258153 -0.425172 -0.834769 -0.349841 0.304892 0.861945 0.405081 
-0.625184 -0.00140083 0.780476 0.357718 0.867655 0.345272 -0.398152 -0.851653 -0.340827 
-0.391685 -0.854749 -0.340569 0.543736 0.691519 0.475555 -0.481931 -0.871294 -0.0926765 
0.411644 0.82574 0.38562 -0.339872 -0.889575 -0.305195 0.443613 0.826273 0.347102 
-0.402034 -0.853816 -0.330707 0.874185 0.209664 0.437998 0.401163 0.850053 0.341289 
-0.440071 -0.834986 -0.330357 -0.232633 -0.940278 -0.248514 0 -0.986394 0.164399 
-0.425172 -0.834769 -0.349841 0.607291 0.659649 0.442787 0.877182 0.249898 0.410004 
0.935847 0.114166 0.333402 -0.442934 -0.823444 -0.354613 0.382005 0.856666 0.346693 
-0.467904 -0.852438 -0.233273 -0.383105 -0.851336 -0.358411 0.433434 0.830108 0.350793 
-0.522813 -0.758396 -0.389232 0.853184 0.0620107 0.517911 -0.472349 -0.812974 -0.340529 
-0.304521 -0.918625 -0.251785 0.476022 0.800963 0.363126 0.188928 -0.941254 -0.279905 
-0.238013 -0.952708 -0.188937 0.442456 0.81486 0.374481 -0.50134 -0.683716 -0.530275 
-0.435576 -0.827365 -0.354599 0.447924 0.81722 0.362652 -0.518176 -0.656211 -0.548527 
0.539659 0.745124 0.391865 -0.335024 -0.93963 -0.0696753 -0.170402 -0.969728 -0.174904 
-0.549841 -0.662215 -0.509064 -0.111399 -0.987651 -0.110159 0.533591 0.484129 0.69347 
0.34558 0.816308 0.462834 0.853184 0.0620107 0.517911 0.326014 0.817143 0.475386 
-0.437653 -0.818391 -0.372419 -0.432972 -0.821292 -0.371503 -0.450584 -0.775729 -0.441836 
0.474559 0.800292 0.366505 -0.429027 -0.823117 -0.372041 -0.484535 -0.662999 -0.570665 
-0.359321 -0.86377 -0.353257 0.429245 0.810787 0.397962 0.496612 0.682102 0.536762 
-0.350286 -0.88626 -0.303056 -0.35228 -0.883249 -0.309468 -0.385378 -0.865475 -0.320058 
0.867423 -0.0490069 0.495152 0.702862 0.548547 0.452858 0.834835 -0.387223 0.391291 
0.378837 0.853706 0.357309 0.393462 0.845231 0.361625 0.39975 0.841135 0.364269 
0.396163 0.843475 0.362772 0.394383 0.843636 0.364336 0.429245 0.810787 0.397962 
-0.420155 -0.827229 -0.373045 -0.413005 -0.83284 -0.368517 -0.400766 -0.858815 -0.319097 
-0.389993 -0.84829 -0.358202 0.496612 0.682102 0.536762 -0.405673 -0.836066 -0.369355 
-0.364319 -0.900297 -0.238195 -0.370206 -0.869107 -0.328025 -0.353797 -0.877393 -0.32405 
0.496612 0.682102 0.536762 0.88001 0.158446 0.447746 0.433665 0.865963 0.249085 
0.582785 -0.796297 0.162089 0 -0.992278 -0.124035 0 -1 0 
-0.184289 -0.982872 0 0.184289 -0.982872 0 -0.41617 -0.829731 -0.371954 
-0.413388 -0.831768 -0.370503 -0.415479 -0.830036 -0.372045 0.401565 0.840399 0.363972 
0 1 0 0.40607 0.836702 0.367474 -0.404634 -0.84549 -0.348452 
-0.401064 -0.842255 -0.360214 -0.402975 -0.83959 -0.364279 -0.416722 -0.828978 -0.373012 
0.408899 0.835469 0.367142 -0.425992 -0.813683 -0.395538 0.404804 0.838098 0.365685 
-0.387526 -0.84666 -0.364678 0.498722 0.678313 0.539599 0.370517 0.870006 0.32528 
-0.454709 -0.814477 -0.360369 0.46256 0.832116 0.305974 0.397944 0.851892 0.34047 
-0.37087 -0.843399 -0.388759 -0.544417 -0.751537 -0.372561 -0.836766 -0.300343 -0.45784 
-0.721504 0.620889 -0.306478 -0.00447127 -0.99996 0.0077022 0.353954 -0.872406 0.337082 
0.0571306 -0.996265 0.0647446 0 -0.992278 0.124035 0.34357 -0.880153 0.327551 
-0.416347 -0.82919 -0.372959 -0.417727 -0.827851 -0.374389 -0.417713 -0.827885 -0.37433 
0.415959 0.829643 0.372385 -0.0858617 -0.994036 -0.0672322 0.4099 0.834474 0.368286 
-0.407814 -0.838308 -0.361837 -0.402892 -0.840391 -0.36252 0.417944 0.827641 0.37461 
-0.395271 -0.848187 -0.352618 -0.394888 -0.847839 -0.353883 0.416121 0.829421 0.3727 
-0.411158 -0.843289 -0.346139 -0.41417 -0.848262 -0.330021 0.420521 0.848957 0.320052 
0.404182 0.840779 0.360178 -0.858584 0.358588 -0.3664 -0.505292 0.847597 -0.162048 
0.18924 0.959542 0.20849 -0.401112 -0.842453 -0.359699 -0.398108 -0.845155 -0.356683 
-0.374667 -0.864559 -0.334906 -0.479819 -0.763032 -0.433077 -0.373541 -0.865312 -0.334218 
-0.221732 -0.955842 -0.192874 -0.519444 -0.713246 -0.470594 0.422396 0.822118 0.381712 
0.423042 0.820766 0.383898 0.422289 0.822029 0.382021 0.422537 0.82188 0.382067 
0.576067 0.62795 0.523283 0.414696 0.830694 0.371451 0.418136 0.827333 0.375077 
0.706743 -0.268091 0.654707 0.0566952 0.997583 0.0401647 -0.406475 -0.838779 -0.362255 
-0.420254 -0.824969 -0.377905 0.419247 0.82625 0.376222 -0.411457 -0.844423 -0.343007 
-0.411462 -0.846369 -0.33817 -0.412068 -0.836762 -0.360596 -0.243319 -0.94249 -0.229147 
-0.671726 -0.630584 -0.388779 -0.298473 0.954131 -0.0233891 -0.145285 0.98812 0.0501196 
-0.121633 0.984772 -0.124212 -0.682164 0.36536 -0.633376 0.100457 0.991682 0.0804729 
-0.232832 -0.951101 -0.202968 -0.574297 0.617827 -0.537097 -0.731616 0.0914888 -0.67555 
-0.707009 0.265727 -0.655383 0.423365 0.820088 0.38499 0.424542 0.818227 0.387647 
-0.420322 -0.825834 -0.375935 0.0260682 0.999592 0.0117043 -0.420179 -0.824911 -0.378115 
-0.421183 -0.823694 -0.379648 0.662065 -0.427564 0.615515 -0.419417 -0.82769 -0.372853 
-0.421864 -0.828403 -0.368483 0.415452 0.833166 0.365013 -0.411457 -0.844423 -0.343007 
-0.409165 -0.838378 -0.360147 -0.393892 -0.866681 -0.306127 -0.41585 -0.844871 -0.336544 
0.452179 0.768827 0.452151 0.450493 0.832538 0.322391 -0.653489 -0.643914 -0.397903 
-0.466386 -0.83492 -0.29222 0.216755 0.970903 0.10181 0 -0.992278 -0.124035 
0 -1 0 -0.184289 -0.982872 0 0.184289 -0.982872 0 
-0.145429 0.978495 -0.146281 -0.72323 -0.188037 -0.664515 -0.704339 -0.294424 -0.645927 
-0.0107537 -0.999939 0.00238772 -0.413327 0.822245 -0.391247 0.246103 0.945044 0.215235 
0 1 0 -0.421531 -0.828226 -0.369262 -0.421892 -0.824414 -0.377291 
0.151817 0.980095 0.127931 -0.0546811 0.996535 -0.0626745 -0.431385 -0.826361 -0.361987 
-0.424498 -0.826662 -0.369367 -0.457985 -0.819821 -0.343721 -0.430474 -0.833085 -0.347362 
0.425035 0.824416 0.373744 -0.506589 -0.819684 -0.267368 -0.685439 -0.483381 -0.544534 
0.0950158 0.995185 -0.0240472 -0.14558 -0.970096 -0.194217 -0.13303 -0.986099 -0.0995556 