# vtk DataFile Version 4.2
vtk output
ASCII
DATASET POLYDATA
POINTS 5801 float
249.33 69.512 133.39 247.014 70.4827 133.018 247.624 70.2475 133.052 
248.076 70.0705 133.091 246.555 70.642 133.054 246.195 70.7383 133.187 
258.482 65.1591 134.334 258.387 65.2137 134.31 258.629 65.0563 134.44 
257.689 65.5848 134.269 258.354 65.2331 134.316 257.973 65.4525 134.23 
254.85 67.1375 133.806 253.739 67.6326 133.755 249.991 69.2087 133.561 
250.792 68.8706 133.644 251.426 68.6068 133.679 252.323 68.2342 133.709 
247.779 70.1476 133.202 246.506 70.6302 133.171 246.77 70.5056 133.277 
245.918 70.7798 133.403 246.12 70.741 133.285 246.801 70.4703 133.397 
245.696 70.8461 133.455 263.085 62.3653 135.454 263.028 62.392 135.464 
260.546 63.8516 135.07 260.434 63.9181 135.049 260.636 63.7886 135.121 
258.157 65.3304 134.31 258.993 64.8238 134.591 259.207 64.6868 134.683 
259.393 64.5585 134.763 259.541 64.4724 134.804 257.35 65.7226 134.37 
258.078 65.3852 134.296 255.419 66.7957 134.051 257.351 65.7373 134.368 
249.729 69.2465 133.849 249.326 69.4477 133.667 249.904 69.1496 133.985 
248.873 69.5905 133.82 246.364 70.566 133.61 242.116 71.6279 135.173 
243.061 71.4075 134.779 243.76 71.2423 134.497 245.908 70.7523 133.539 
243.283 71.3582 134.693 244.06 71.1815 134.352 244.911 70.9958 133.942 
264.824 61.3086 136.081 265.091 61.1298 136.276 263.763 61.9461 135.711 
264.781 61.3344 136.075 264.143 61.7153 135.849 262.76 62.5168 135.538 
263.404 62.1636 135.593 260.078 64.1214 135.011 260.884 63.6039 135.297 
256.48 66.1543 134.397 252.578 67.9757 134.304 249.348 69.3383 134.1 
252.311 68.1436 134.127 252.774 67.8749 134.479 251.831 68.2988 134.308 
241.696 71.7265 135.344 241.439 71.7797 135.479 241.533 71.7652 135.409 
264.532 61.4682 136.035 265.395 60.9259 136.496 265.459 60.8712 136.562 
265.761 60.6814 136.759 264.443 61.5327 135.973 261.896 62.9582 135.631 
260.038 64.0308 135.395 259.027 64.6303 135.179 259.616 64.3378 135.129 
260.134 63.9096 135.666 252.181 68.0657 134.626 249.063 69.2925 134.792 
248.636 69.5152 134.531 249.131 69.2317 134.967 248.223 69.621 134.776 
243.762 71.051 135.37 241.077 71.8315 135.783 242.928 71.3276 135.36 
238.06 72.5334 136.776 237.627 72.6381 136.868 238.37 72.4579 136.712 
238.839 72.3377 136.638 268.501 59.104 137.715 268.314 59.2012 137.686 
268.689 58.9844 137.817 266.199 60.3921 137.023 266.799 60.0457 137.254 
267.088 59.8875 137.341 264.487 61.3562 136.543 264.079 61.6427 136.273 
264.374 61.3728 136.751 263.663 61.7939 136.517 259.8 64.0581 135.74 
259.021 64.5011 135.681 255.792 66.1855 135.421 254.769 66.6278 135.545 
255.26 66.5735 135.098 255.776 66.1962 135.698 254.847 66.6599 135.532 
248.63 69.3635 135.229 248.064 69.4632 135.752 252.566 67.699 135.685 
246.729 69.9727 135.594 239.79 72.092 136.459 243.436 71.0254 136.019 
243.385 71.214 135.221 242.605 71.3591 135.746 237.289 72.7152 136.958 
236.865 72.8148 137.058 233.733 73.5502 137.859 233.375 73.6273 138.002 
234.117 73.4656 137.722 234.933 73.2842 137.451 269.34 58.6346 137.945 
269.412 58.595 137.961 269.07 58.7643 137.943 269.188 58.706 137.953 
269.395 58.5814 138.036 269.392 58.5767 138.057 268.991 58.8192 137.888 
267.882 59.4275 137.619 264.021 61.5018 136.88 263.069 62.0079 136.749 
259.026 64.343 136.164 259.328 64.1044 136.455 255.705 65.8319 136.498 
258.536 64.4787 136.499 258.656 64.5323 136.33 259.382 64.0632 136.568 
255.285 66.2823 135.957 255.217 66.3417 136.342 251.048 68.1643 136.192 
249.998 68.5806 136.328 250.737 68.3885 135.852 251.138 68.0845 136.478 
250.185 68.5486 136.15 245.853 70.0954 136.467 248.423 69.1694 136.549 
247.012 69.9151 135.458 246.151 70.0741 136.124 242.721 71.1999 136.306 
236.019 73.013 137.256 232.941 73.7167 138.192 233.932 73.4607 137.955 
230.041 74.451 138.965 231.163 74.1573 138.718 219.22 77.6562 138.608 
219.072 77.7079 138.584 219.314 77.6235 138.624 219.378 77.5996 138.642 
212.665 80.0043 136.655 212.665 80.0043 136.655 212.665 80.0043 136.655 
212.665 80.0043 136.655 217.989 78.1223 138.271 212 81.0087 136.017 
212 81.0087 136.017 212 81.0088 136.017 212.665 80.0043 136.655 
212 81.0088 136.017 212 81.0088 136.017 269.038 58.6678 138.32 
269.373 58.5619 138.137 269.306 58.5554 138.269 268.563 58.8402 138.502 
268.804 58.8418 138.116 268.987 58.6677 138.409 268.597 58.8741 138.351 
261.742 62.4942 137.518 259.002 64.1871 136.797 259.786 63.5327 137.554 
260.466 63.3367 137.061 260.892 62.9564 137.674 259.949 63.527 137.424 
250.518 68.2815 136.683 245.779 69.997 137.106 248.395 69.0513 137.182 
248.875 68.9462 136.778 241.904 71.2674 137.323 240.861 71.5594 137.607 
241.569 71.4521 136.991 241.918 71.2167 137.581 240.94 71.5499 137.596 
234.801 73.2724 137.648 234.898 73.2289 137.697 236.179 72.9188 137.457 
237.849 72.4917 137.365 238.954 72.1192 137.865 231.946 73.9416 138.564 
233.956 73.4415 138.004 234.464 73.3561 137.727 239.992 71.861 137.718 
227.639 75.0689 139.397 228.642 74.7984 139.276 229.487 74.5854 139.105 
226.683 75.3474 139.417 220.863 77.0116 139.196 220.728 77.0602 139.166 
220.961 76.9791 139.213 221.043 76.949 139.238 224.855 75.8455 139.499 
224.379 75.9641 139.546 225.397 75.7004 139.473 225.921 75.5602 139.447 
218.792 77.809 138.524 220.855 77.018 139.194 219.678 77.4728 138.79 
221.091 76.9335 139.258 217.703 78.2338 138.185 218.337 77.9851 138.384 
212.665 80.0044 136.655 212.665 80.0045 136.655 212.665 80.0045 136.655 
212.665 80.0043 136.655 212.665 80.0043 136.655 217.552 78.2932 138.139 
212 81.0087 136.017 212.665 80.0045 136.655 212.665 80.0044 136.655 
268.998 58.4301 139.175 268.818 58.6742 138.654 269.057 58.4949 138.876 
269.231 58.5383 138.449 265.746 60.2051 138.477 266.843 59.6596 138.549 
267.425 59.1457 139.363 260.367 63.1336 137.956 259.771 63.3263 138.265 
252.045 67.175 138.277 250.349 67.9775 138.276 251.071 67.7213 138.006 
251.797 67.4608 137.791 252.057 67.2224 138.351 251.342 67.6398 137.905 
248.312 69.0085 137.534 246.332 69.6111 138.049 248.114 69.0072 137.88 
248.38 68.8588 138.063 248.161 68.9599 138.061 241.292 71.3557 137.932 
239.268 71.8921 138.718 234.405 73.3203 137.925 235.12 73.1402 137.763 
239.282 71.8779 138.865 234.571 73.2745 137.901 229.165 74.6185 139.373 
220.415 77.1743 139.096 220.188 77.2312 139.14 221.156 76.9059 139.286 
221.46 76.8017 139.377 223.737 76.1248 139.598 223.042 76.3174 139.593 
218.369 77.9466 138.487 219.38 77.5456 138.848 221.132 76.9189 139.309 
220.085 77.3085 138.968 217.895 78.1477 138.284 212.665 80.0045 136.655 
212.665 80.0044 136.655 217.42 78.3445 138.102 268.904 58.3604 139.571 
267.372 58.967 140.074 265.339 60.322 138.818 262.692 61.5714 139.13 
262.353 61.8753 138.769 262.812 61.4767 139.381 261.882 61.9518 139.423 
251.887 66.9693 139.323 251.423 67.4523 138.456 246.906 69.1834 139.279 
246.323 69.493 138.691 247.282 69.2188 138.337 243.957 70.2791 138.623 
245.34 69.8985 138.282 241.455 71.0521 139.083 242.288 70.8173 138.799 
242.449 70.6316 139.353 234.66 73.2182 137.974 234.875 73.1827 137.856 
239.18 71.8057 139.442 233.359 73.4135 138.813 234.239 73.2938 138.2 
235.013 73.1621 137.793 238.945 71.8002 140.036 230.658 74.0491 139.746 
226.044 75.3533 140.081 229.033 74.5545 139.766 230.196 74.2634 139.489 
230.713 73.9729 140.011 229.413 74.4841 139.594 224.54 75.8161 139.925 
225.63 75.5446 139.811 226.19 75.2667 140.258 220.462 77.0905 139.357 
220.371 77.1073 139.394 222.192 76.5684 139.515 224.762 75.7934 139.803 
218.752 77.773 138.696 219.346 77.5235 138.962 220.428 77.0942 139.396 
219.684 77.4318 138.942 219.491 77.4782 138.975 217.389 78.3563 138.094 
217.42 78.3433 138.107 217.515 78.3037 138.143 217.742 78.2098 138.23 
218.238 78.003 138.43 268.763 58.2723 140.088 268.719 58.2565 140.24 
264.898 60.3583 139.465 267.038 58.9429 140.729 262.268 61.6323 139.765 
252.159 66.2989 141.298 248.731 68.4099 139.558 249.516 68.0691 139.525 
252.025 66.5656 140.687 250.928 67.5401 138.997 249.981 67.9196 139.264 
251.718 67.1538 139.14 252.144 66.739 139.984 245 69.0087 140.017 
245 69.0087 140.017 245 69.0088 140.017 245 69.0088 140.017 
247.113 68.9931 139.964 247.293 68.8557 140.299 248.495 68.6013 139.138 
248.75 68.3466 139.825 248.034 68.6363 139.912 242.959 70.4321 139.44 
245 69.0088 140.017 242.999 70.4351 139.379 240.869 71.084 139.894 
242.149 70.5699 140.087 239.351 71.5033 140.56 232.405 73.4797 139.77 
232.15 73.4984 140.047 234.133 73.302 138.289 234.624 73.2264 137.988 
238.459 71.7757 141.08 230.413 73.9948 140.28 230.003 74.0496 140.582 
225.831 75.3244 140.411 225.395 75.4088 140.549 229.046 74.546 139.801 
228.82 74.5175 140.19 224.544 75.8237 139.911 224.317 75.8089 140.189 
220.03 77.2296 139.31 219.813 77.2918 139.306 219.075 77.6241 138.883 
268.594 58.1562 140.767 268.528 58.1242 141.008 266.739 58.9933 141.062 
266.313 59.0542 141.582 266.223 59.1584 141.379 267.572 58.6368 140.876 
267.76 58.3992 141.374 267.113 58.7754 141.182 266.357 59.0929 141.386 
264.731 60.2902 140.008 264.723 60.102 140.706 259.082 62.9864 141.029 
255.764 64.5126 140.952 257.588 63.7686 140.935 258.568 63.4494 140.407 
259.19 62.9588 141.066 257.811 63.7943 140.747 248.294 68.4317 140.337 
248.883 68.1348 140.496 249.236 68.101 139.957 251.797 66.3938 141.773 
245 69.0087 140.017 247.167 68.7982 140.959 246.965 68.6789 142.078 
241.893 70.5742 140.466 241.469 70.6378 140.862 242.315 70.4648 140.276 
242.33 70.4664 140.248 241.477 70.6289 140.9 240.643 71.0252 140.546 
231.697 73.4593 140.797 237.848 71.7578 142.179 238.019 71.7716 141.858 
238.128 71.7812 141.663 237.926 71.7732 142.032 229.332 74.2211 140.742 
224.728 75.5945 140.548 219.356 77.4977 139.043 268.391 58.038 141.512 
265.434 59.5134 141.508 266.796 58.7482 141.819 267.535 58.3172 142.032 
258.816 62.8951 141.952 257.228 63.6776 142.014 257.534 63.6989 141.601 
258.811 62.936 141.874 252.405 65.9453 142.298 252.304 66.1361 141.919 
[...]
POINT_DATA 5801
SCALARS scalars float
LOOKUP_TABLE default
1 1 1 1 1 1 1 1 1 
1 1 1 1 1 1 1 1 1 
1 1 1 1 1 1 1 1 1 
1 1 1 1 1 1 1 1 1 
1 1 1 1 1 1 1 1 1 
1 1 1 1 1 1 1 1 1 
1 1 1 1 1 1 1 1 1 
1 1 1 1 1 1 1 1 1 
1 1 1 1 1 1 1 1 1 
1 1 1 1 1 1 1 1 1 
1 1 1 1 1 1 1 1 1 
1 1 1 1 1 1 1 1 1 
1 1 1 1 1 1 1 1 1 
1 1 1 1 1 1 1 1 1 
1 1 1 1 1 1 1 1 1 
1 1 1 1 1 1 1 1 1 
1 1 1 1 1 1 1 1 1 
1 1 1 1 1 1 1 1 1 
1 1 1 1 1 1 1 1 1 
1 1 1 1 1 1 1 1 1 
1 1 1 1 1 1 1 1 1 
1 1 1 1 1 1 1 1 1 
1 1 1 1 1 1 1 1 1 
1 1 1 1 1 1 1 1 1 
1 1 1 1 1 1 1 1 1 
1 1 1 1 1 1 1 1 1 
1 1 1 1 1 1 1 1 1 
1 1 1 1 1 1 1 1 1 
1 1 1 1 1 1 1 1 1 
1 1 1 1 1 1 1 1 1 
1 1 1 1 1 1 1 1 1 
1 1 1 1 1 1 1 1 1 
1 1 1 1 1 1 1 1 1 
1 1 1 1 1 1 1 1 1 
1 1 1 1 1 1 1 1 1 
1 1 1 1 1 1 1 1 1 
1 1 1 1 1 1 1 1 1 
1 1 1 1 1 1 1 1 1 
1 1 1 1 1 1 1 1 1 
1 1 1 1 1 1 1 1 1 
1 1 1 1 1 1 1 1 1 
1 1 1 1 1 1 1 1 1 
1 1 1 1 1 1 1 1 1 
1 1 1 1 1 1 1 1 1 
1 1 1 1 1 1 1 1 1 
1 1 1 1 1 1 1 1 1 
1 1 1 1 1 1 1 1 1 
1 1 1 1 1 1 1 1 1 
1 1 1 1 1 1 1 1 1 
1 1 1 1 1 1 1 1 1 
1 1 1 1 1 1 1 1 1 
1 1 1 1 1 1 1 1 1 
1 1 1 1 1 1 1 1 1 
1 1 1 1 1 1 1 1 1 
1 1 1 1 1 1 1 1 1 
1 1 1 1 1 1 1 1 1 
1 1 1 1 1 1 1 1 1 
1 1 1 1 1 1 1 1 1 
1 1 1 1 1 1 1 1 1 
1 1 1 1 1 1 1 1 1 
1 1 1 1 1 1 1 1 1 
1 1 1 1 1 1 1 1 1 
1 1 1 1 1 1 1 1 1 
1 1 1 1 1 1 1 1 1 
1 1 1 1 1 1 1 1 1 
1 1 1 1 1 1 1 1 1 
1 1 1 1 1 1 1 1 1 
1 1 1 1 1 1 1 1 1 
1 1 1 1 1 1 1 1 1 
1 1 1 1 1 1 1 1 1 
1 1 1 1 1 1 1 1 1 
1 1 1 1 1 1 1 1 1 
1 1 1 1 1 1 1 1 1 
1 1 1 1 1 1 1 1 1 
1 1 1 1 1 1 1 1 1 
1 1 1 1 1 1 1 1 1 
1 1 1 1 1 1 1 1 1 
1 1 1 1 1 1 1 1 1 
1 1 1 1 1 1 1 1 1 
1 1 1 1 1 1 1 1 1 
1 1 1 1 1 1 1 1 1 
1 1 1 1 1 1 1 1 1 
1 1 1 1 1 1 1 1 1 
1 1 1 1 1 1 1 1 1 
1 1 1 1 1 1 1 1 1 
1 1 1 1 1 1 1 1 1 
1 1 1 1 1 1 1 1 1 
1 1 1 1 1 1 1 1 1 
1 1 1 1 1 1 1 1 1 
1 1 1 1 1 1 1 1 1 
1 1 1 1 1 1 1 1 1 
1 1 1 1 1 1 1 1 1 
1 1 1 1 1 1 1 1 1 
1 1 1 1 1 1 1 1 1 
1 1 1 1 1 1 1 1 1 
1 1 1 1 1 1 1 1 1 
1 1 1 1 1 1 1 1 1 
1 1 1 1 1 1 1 1 1 
1 1 1 1 1 1 1 1 1 
1 1 1 1 1 1 1 1 1 
1 1 1 1 1 1 1 1 1 
1 1 1 1 1 1 1 1 1 
1 1 1 1 1 1 1 1 1 
1 1 1 1 1 1 1 1 1 
1 1 1 1 1 1 1 1 1 
1 1 1 1 1 1 1 1 1 
1 1 1 1 1 1 1 1 1 
1 1 1 1 1 1 1 1 1 
1 1 1 1 1 1 1 1 1 
1 1 1 1 1 1 1 1 1 
1 1 1 1 1 1 1 1 1 
1 1 1 1 1 1 1 1 1 
1 1 1 1 1 1 1 1 1 
1 1 1 1 1 1 1 1 1 
1 1 1 1 1 1 1 1 1 
1 1 1 1 1 1 1 1 1 
1 1 1 1 1 1 1 1 1 
1 1 1 1 1 1 1 1 1 
1 1 1 1 1 1 1 1 1 
1 1 1 1 1 1 1 1 1 
1 1 1 1 1 1 1 1 1 
1 1 1 1 1 1 1 1 1 
1 1 1 1 1 1 1 1 1 
1 1 1 1 1 1 1 1 1 
1 1 1 1 1 1 1 1 1 
1 1 1 1 1 1 1 1 1 
1 1 1 1 1 1 1 1 1 
1 1 1 1 1 1 1 1 1 
1 1 1 1 1 1 1 1 1 
1 1 1 1 1 1 1 1 1 
1 1 1 1 1 1 1 1 1 
1 1 1 1 1 1 1 1 1 
1 1 1 1 1 1 1 1 1 
1 1 1 1 1 1 1 1 1 
1 1 1 1 1 1 1 1 1 
1 1 1 1 1 1 1 1 1 
1 1 1 1 1 1 1 1 1 
1 1 1 1 1 1 1 1 1 
1 1 1 1 1 1 1 1 1 
1 1 1 1 1 1 1 1 1 
1 1 1 1 1 1 1 1 1 
1 1 1 1 1 1 1 1 1 
1 1 1 1 1 1 1 1 1 
1 1 1 1 1 1 1 1 1 
1 1 1 1 1 1 1 1 1 
1 1 1 1 1 1 1 1 1 
1 1 1 1 1 1 1 1 1 
1 1 1 1 1 1 1 1 1 
1 1 1 1 1 1 1 1 1 
1 1 1 1 1 1 1 1 1 
1 1 1 1 1 1 1 1 1 
1 1 1 1 1 1 1 1 1 
1 1 1 1 1 1 1 1 1 
1 1 1 1 1 1 1 1 1 
1 1 1 1 1 1 1 1 1 
1 1 1 1 1 1 1 1 1 
1 1 1 1 1 1 1 1 1 
1 1 1 1 1 1 1 1 1 
1 1 1 1 1 1 1 1 1 
1 1 1 1 1 1 1 1 1 
1 1 1 1 1 1 1 1 1 
1 1 1 1 1 1 1 1 1 
1 1 1 1 1 1 1 1 1 
1 1 1 1 1 1 1 1 1 
1 1 1 1 1 1 1 1 1 
1 1 1 1 1 1 1 1 1 
1 1 1 1 1 1 1 1 1 
1 1 1 1 1 1 1 1 1 
1 1 1 1 1 1 1 1 1 
1 1 1 1 1 1 1 1 1 
1 1 1 1 1 1 1 1 1 
1 1 1 1 1 1 1 1 1 
1 1 1 1 1 1 1 1 1 
1 1 1 1 1 1 1 1 1 
1 1 1 1 1 1 1 1 1 
1 1 1 1 1 1 1 1 1 
1 1 1 1 1 1 1 1 1 
1 1 1 1 1 1 1 1 1 
1 1 1 1 1 1 1 1 1 
1 1 1 1 1 1 1 1 1 
1 1 1 1 1 1 1 1 1 
1 1 1 1 1 1 1 1 1 
1 1 1 1 1 1 1 1 1 
1 1 1 1 1 1 1 1 1 
1 1 1 1 1 1 1 1 1 
1 1 1 1 1 1 1 1 1 
1 1 1 1 1 1 1 1 1 
1 1 1 1 1 1 1 1 1 
1 1 1 1 1 1 1 1 1 
1 1 1 1 1 1 1 1 1 
1 1 1 1 1 1 1 1 1 
1 1 1 1 1 1 1 1 1 
1 1 1 1 1 1 1 1 1 
1 1 1 1 1 1 1 1 1 
1 1 1 1 1 1 1 1 1 
1 1 1 1 1 1 1 1 1 
1 1 1 1 1 1 1 1 1 
1 1 1 1 1 1 1 1 1 
1 1 1 1 1 1 1 1 1 
1 1 1 1 1 1 1 1 1 
1 1 1 1 1 1 1 1 1 
1 1 1 1 1 1 1 1 1 
1 1 1 1 1 1 1 1 1 
1 1 1 1 1 1 1 1 1 
1 1 1 1 1 1 1 1 1 
1 1 1 1 1 1 1 1 1 
1 1 1 1 1 1 1 1 1 
1 1 1 1 1 1 1 1 1 
1 1 1 1 1 1 1 1 1 
1 1 1 1 1 1 1 1 1 
1 1 1 1 1 1 1 1 1 
1 1 1 1 1 1 1 1 1 
1 1 1 1 1 1 1 1 1 
1 1 1 1 1 1 1 1 1 
1 1 1 1 1 1 1 1 1 
1 1 1 1 1 1 1 1 1 
1 1 1 1 1 1 1 1 1 
1 1 1 1 1 1 1 1 1 
1 1 1 1 1 1 1 1 1 
1 1 1 1 1 1 1 1 1 
1 1 1 1 1 1 1 1 1 
1 1 1 1 1 1 1 1 1 
1 1 1 1 1 1 1 1 1 
1 1 1 1 1 1 1 1 1 
1 1 1 1 1 1 1 1 1 
1 1 1 1 1 1 1 1 1 
1 1 1 1 1 1 1 1 1 
1 1 1 1 1 1 1 1 1 
1 1 1 1 1 1 1 1 1 
1 1 1 1 1 1 1 1 1 
1 1 1 1 1 1 1 1 1 
1 1 1 1 1 1 1 1 1 
1 1 1 1 1 1 1 1 1 
1 1 1 1 1 1 1 1 1 
1 1 1 1 1 1 1 1 1 
1 1 1 1 1 1 1 1 1 
1 1 1 1 1 1 1 1 1 
1 1 1 1 1 1 1 1 1 
1 1 1 1 1 1 1 1 1 
1 1 1 1 1 1 1 1 1 
1 1 1 1 1 1 1 1 1 
1 1 1 1 1 1 1 1 1 
1 1 1 1 1 1 1 1 1 
1 1 1 1 1 1 1 1 1 
1 1 1 1 1 1 1 1 1 
1 1 1 1 1 1 1 1 1 
1 1 1 1 1 1 1 1 1 
1 1 1 1 1 1 1 1 1 
1 1 1 1 1 1 1 1 1 
1 1 1 1 1 1 1 1 1 
1 1 1 1 1 1 1 1 1 
1 1 1 1 1 1 1 1 1 
1 1 1 1 1 1 1 1 1 
1 1 1 1 1 1 1 1 1 
1 1 1 1 1 1 1 1 1 
1 1 1 1 1 1 1 1 1 
1 1 1 1 1 1 1 1 1 
1 1 1 1 1 1 1 1 1 
1 1 1 1 1 1 1 1 1 
1 1 1 1 1 1 1 1 1 
1 1 1 1 1 1 1 1 1 
1 1 1 1 1 1 1 1 1 
1 1 1 1 1 1 1 1 1 
1 1 1 1 1 1 1 1 1 
1 1 1 1 1 1 1 1 1 
1 1 1 1 1 1 1 1 1 
1 1 1 1 1 1 1 1 1 
1 1 1 1 1 1 1 1 1 
1 1 1 1 1 1 1 1 1 
1 1 1 1 1 1 1 1 1 
1 1 1 1 1 1 1 1 1 
1 1 1 1 1 1 1 1 1 
1 1 1 1 1 1 1 1 1 
1 1 1 1 1 1 1 1 1 
1 1 1 1 1 1 1 1 1 
1 1 1 1 1 1 1 1 1 
1 1 1 1 1 1 1 1 1 
1 1 1 1 1 1 1 1 1 
1 1 1 1 1 1 1 1 1 
1 1 1 1 1 1 1 1 1 
1 1 1 1 1 1 1 1 1 
1 1 1 1 1 1 1 1 1 
1 1 1 1 1 1 1 1 1 
1 1 1 1 1 1 1 1 1 
1 1 1 1 1 1 1 1 1 
1 1 1 1 1 1 1 1 1 
1 1 1 1 1 1 1 1 1 
1 1 1 1 1 1 1 1 1 
1 1 1 1 1 1 1 1 1 
1 1 1 1 1 1 1 1 1 
1 1 1 1 1 1 1 1 1 
1 1 1 1 1 1 1 1 1 
1 1 1 1 1 1 1 1 1 
1 1 1 1 1 1 1 1 1 
1 1 1 1 1 1 1 1 1 
1 1 1 1 1 1 1 1 1 
1 1 1 1 1 1 1 1 1 
1 1 1 1 1 1 1 1 1 
1 1 1 1 1 1 1 1 1 
1 1 1 1 1 1 1 1 1 
1 1 1 1 1 1 1 1 1 
1 1 1 1 1 1 1 1 1 
1 1 1 1 1 1 1 1 1 
1 1 1 1 1 1 1 1 1 
1 1 1 1 1 1 1 1 1 
1 1 1 1 1 1 1 1 1 
1 1 1 1 1 1 1 1 1 
1 1 1 1 1 1 1 1 1 
1 1 1 1 1 1 1 1 1 
1 1 1 1 1 1 1 1 1 
1 1 1 1 1 1 1 1 1 
1 1 1 1 1 1 1 1 1 
1 1 1 1 1 1 1 1 1 
1 1 1 1 1 1 1 1 1 
1 1 1 1 1 1 1 1 1 
1 1 1 1 1 1 1 1 1 
1 1 1 1 1 1 1 1 1 
1 1 1 1 1 1 1 1 1 
1 1 1 1 1 1 1 1 1 
1 1 1 1 1 1 1 1 1 
1 1 1 1 1 1 1 1 1 
1 1 1 1 1 1 1 1 1 
1 1 1 1 1 1 1 1 1 
1 1 1 1 1 1 1 1 1 
1 1 1 1 1 1 1 1 1 
1 1 1 1 1 1 1 1 1 
1 1 1 1 1 1 1 1 1 
1 1 1 1 1 1 1 1 1 
1 1 1 1 1 1 1 1 1 
1 1 1 1 1 1 1 1 1 
1 1 1 1 1 1 1 1 1 
1 1 1 1 1 1 1 1 1 
1 1 1 1 1 1 1 1 1 
1 1 1 1 1 1 1 1 1 
1 1 1 1 1 1 1 1 1 
1 1 1 1 1 1 1 1 1 
1 1 1 1 1 1 1 1 1 
1 1 1 1 1 1 1 1 1 
1 1 1 1 1 1 1 1 1 
1 1 1 1 1 1 1 1 1 
1 1 1 1 1 1 1 1 1 
1 1 1 1 1 1 1 1 1 
1 1 1 1 1 1 1 1 1 
1 1 1 1 1 1 1 1 1 
1 1 1 1 1 1 1 1 1 
1 1 1 1 1 1 1 1 1 
1 1 1 1 1 1 1 1 1 
1 1 1 1 1 1 1 1 1 
1 1 1 1 1 1 1 1 1 
1 1 1 1 1 1 1 1 1 
1 1 1 1 1 1 1 1 1 
1 1 1 1 1 1 1 1 1 
1 1 1 1 1 1 1 1 1 
1 1 1 1 1 1 1 1 1 
1 1 1 1 1 1 1 1 1 
1 1 1 1 1 1 1 1 1 
1 1 1 1 1 1 1 1 1 
1 1 1 1 1 1 1 1 1 
1 1 1 1 1 1 1 1 1 
1 1 1 1 1 1 1 1 1 
1 1 1 1 1 1 1 1 1 
1 1 1 1 1 1 1 1 1 
1 1 1 1 1 1 1 1 1 
1 1 1 1 1 1 1 1 1 
1 1 1 1 1 1 1 1 1 
1 1 1 1 1 1 1 1 1 
1 1 1 1 1 1 1 1 1 
1 1 1 1 1 1 1 1 1 
1 1 1 1 1 1 1 1 1 
1 1 1 1 1 1 1 1 1 
1 1 1 1 1 1 1 1 1 
1 1 1 1 1 1 1 1 1 
1 1 1 1 1 1 1 1 1 
1 1 1 1 1 1 1 1 1 
1 1 1 1 1 1 1 1 1 
1 1 1 1 1 1 1 1 1 
1 1 1 1 1 1 1 1 1 
1 1 1 1 1 1 1 1 1 
1 1 1 1 1 1 1 1 1 
1 1 1 1 1 1 1 1 1 
1 1 1 1 1 1 1 1 1 
1 1 1 1 1 1 1 1 1 
1 1 1 1 1 1 1 1 1 
1 1 1 1 1 1 1 1 1 
1 1 1 1 1 1 1 1 1 
1 1 1 1 1 1 1 1 1 
1 1 1 1 1 1 1 1 1 
1 1 1 1 1 1 1 1 1 
1 1 1 1 1 1 1 1 1 
1 1 1 1 1 1 1 1 1 
1 1 1 1 1 1 1 1 1 
1 1 1 1 1 1 1 1 1 
1 1 1 1 1 1 1 1 1 
1 1 1 1 1 1 1 1 1 
1 1 1 1 1 1 1 1 1 
1 1 1 1 1 1 1 1 1 
1 1 1 1 1 1 1 1 1 
1 1 1 1 1 1 1 1 1 
1 1 1 1 1 1 1 1 1 
1 1 1 1 1 1 1 1 1 
1 1 1 1 1 1 1 1 1 
1 1 1 1 1 1 1 1 1 
1 1 1 1 1 1 1 1 1 
1 1 1 1 1 1 1 1 1 
1 1 1 1 1 1 1 1 1 
1 1 1 1 1 1 1 1 1 
1 1 1 1 1 1 1 1 1 
1 1 1 1 1 1 1 1 1 
1 1 1 1 1 1 1 1 1 
1 1 1 1 1 1 1 1 1 
1 1 1 1 1 1 1 1 1 
1 1 1 1 1 1 1 1 1 
1 1 1 1 1 1 1 1 1 
1 1 1 1 1 1 1 1 1 
1 1 1 1 1 1 1 1 1 
1 1 1 1 1 1 1 1 1 
1 1 1 1 1 1 1 1 1 
1 1 1 1 1 1 1 1 1 
1 1 1 1 1 1 1 1 1 
1 1 1 1 1 1 1 1 1 
1 1 1 1 1 1 1 1 1 
1 1 1 1 1 1 1 1 1 
1 1 1 1 1 1 1 1 1 
1 1 1 1 1 1 1 1 1 
1 1 1 1 1 1 1 1 1 
1 1 1 1 1 1 1 1 1 
1 1 1 1 1 1 1 1 1 
1 1 1 1 1 1 1 1 1 
1 1 1 1 1 1 1 1 1 
1 1 1 1 1 1 1 1 1 
1 1 1 1 1 1 1 1 1 
1 1 1 1 1 1 1 1 1 
1 1 1 1 1 1 1 1 1 
1 1 1 1 1 1 1 1 1 
1 1 1 1 1 1 1 1 1 
1 1 1 1 1 1 1 1 1 
1 1 1 1 1 1 1 1 1 
1 1 1 1 1 1 1 1 1 
1 1 1 1 1 1 1 1 1 
1 1 1 1 1 1 1 1 1 
1 1 1 1 1 1 1 1 1 
1 1 1 1 1 1 1 1 1 
1 1 1 1 1 1 1 1 1 
1 1 1 1 1 1 1 1 1 
1 1 1 1 1 1 1 1 1 
1 1 1 1 1 1 1 1 1 
1 1 1 1 1 1 1 1 1 
1 1 1 1 1 1 1 1 1 
1 1 1 1 1 1 1 1 1 
1 1 1 1 1 1 1 1 1 
1 1 1 1 1 1 1 1 1 
1 1 1 1 1 1 1 1 1 
1 1 1 1 1 1 1 1 1 
1 1 1 1 1 1 1 1 1 
1 1 1 1 1 1 1 1 1 
1 1 1 1 1 1 1 1 1 
1 1 1 1 1 1 1 1 1 
1 1 1 1 1 1 1 1 1 
1 1 1 1 1 1 1 1 1 
1 1 1 1 1 1 1 1 1 
1 1 1 1 1 1 1 1 1 
1 1 1 1 1 1 1 1 1 
1 1 1 1 1 1 1 1 1 
1 1 1 1 1 1 1 1 1 
1 1 1 1 1 1 1 1 1 
1 1 1 1 1 1 1 1 1 
1 1 1 1 1 1 1 1 1 
1 1 1 1 1 1 1 1 1 
1 1 1 1 1 1 1 1 1 
1 1 1 1 1 1 1 1 1 
1 1 1 1 1 1 1 1 1 
1 1 1 1 1 1 1 1 1 
1 1 1 1 1 1 1 1 1 
1 1 1 1 1 1 1 1 1 
1 1 1 1 1 1 1 1 1 
1 1 1 1 1 1 1 1 1 
1 1 1 1 1 1 1 1 1 
1 1 1 1 1 1 1 1 1 
1 1 1 1 1 1 1 1 1 
1 1 1 1 1 1 1 1 1 
1 1 1 1 1 1 1 1 1 
1 1 1 1 1 1 1 1 1 
1 1 1 1 1 1 1 1 1 
1 1 1 1 1 1 1 1 1 
1 1 1 1 1 1 1 1 1 
1 1 1 1 1 1 1 1 1 
1 1 1 1 1 1 1 1 1 
1 1 1 1 1 1 1 1 1 
1 1 1 1 1 1 1 1 1 
1 1 1 1 1 1 1 1 1 
1 1 1 1 1 1 1 1 1 
1 1 1 1 1 1 1 1 1 
1 1 1 1 1 1 1 1 1 
1 1 1 1 1 1 1 1 1 
1 1 1 1 1 1 1 1 1 
1 1 1 1 1 1 1 1 1 
1 1 1 1 1 1 1 1 1 
1 1 1 1 1 1 1 1 1 
1 1 1 1 1 1 1 1 1 
1 1 1 1 1 1 1 1 1 
1 1 1 1 1 1 1 1 1 
1 1 1 1 1 1 1 1 1 
1 1 1 1 1 1 1 1 1 
1 1 1 1 1 1 1 1 1 
1 1 1 1 1 1 1 1 1 
1 1 1 1 1 1 1 1 1 
1 1 1 1 1 1 1 1 1 
1 1 1 1 1 1 1 1 1 
1 1 1 1 1 1 1 1 1 
1 1 1 1 1 1 1 1 1 
1 1 1 1 1 1 1 1 1 
1 1 1 1 1 1 1 1 1 
1 1 1 1 1 1 1 1 1 
1 1 1 1 1 1 1 1 1 
1 1 1 1 1 1 1 1 1 
1 1 1 1 1 1 1 1 1 
1 1 1 1 1 1 1 1 1 
1 1 1 1 1 1 1 1 1 
1 1 1 1 1 1 1 1 1 
1 1 1 1 1 1 1 1 1 
1 1 1 1 1 1 1 1 1 
1 1 1 1 1 1 1 1 1 
1 1 1 1 1 1 1 1 1 
1 1 1 1 1 1 1 1 1 
1 1 1 1 1 1 1 1 1 
1 1 1 1 1 1 1 1 1 
1 1 1 1 1 1 1 1 1 
1 1 1 1 1 1 1 1 1 
1 1 1 1 1 1 1 1 1 
1 1 1 1 1 1 1 1 1 
1 1 1 1 1 1 1 1 1 
1 1 1 1 1 1 1 1 1 
1 1 1 1 1 1 1 1 1 
1 1 1 1 1 1 1 1 1 
1 1 1 1 1 1 1 1 1 
1 1 1 1 1 1 1 1 1 
1 1 1 1 1 1 1 1 1 
1 1 1 1 1 1 1 1 1 
1 1 1 1 1 1 1 1 1 
1 1 1 1 1 1 1 1 1 
1 1 1 1 1 1 1 1 1 
1 1 1 1 1 1 1 1 1 
1 1 1 1 1 1 1 1 1 
1 1 1 1 1 1 1 1 1 
1 1 1 1 1 1 1 1 1 
1 1 1 1 1 1 1 1 1 
1 1 1 1 1 1 1 1 1 
1 1 1 1 1 1 1 1 1 
1 1 1 1 1 1 1 1 1 
1 1 1 1 1 1 1 1 1 
1 1 1 1 1 1 1 1 1 
1 1 1 1 1 1 1 1 1 
1 1 1 1 1 1 1 1 1 
1 1 1 1 1 1 1 1 1 
1 1 1 1 1 1 1 1 1 
1 1 1 1 1 1 1 1 1 
1 1 1 1 1 1 1 1 1 
1 1 1 1 1 1 1 1 1 
1 1 1 1 1 1 1 1 1 
1 1 1 1 1 1 1 1 1 
1 1 1 1 1 1 1 1 1 
1 1 1 1 1 1 1 1 1 
1 1 1 1 1 1 1 1 1 
1 1 1 1 1 1 1 1 1 
1 1 1 1 1 1 1 1 1 
1 1 1 1 1 1 1 1 1 
1 1 1 1 1 1 1 1 1 
1 1 1 1 1 1 1 1 1 
1 1 1 1 1 1 1 1 1 
1 1 1 1 1 1 1 1 1 
1 1 1 1 1 1 1 1 1 
1 1 1 1 1 1 1 1 1 
1 1 1 1 1 1 1 1 1 
1 1 1 1 1 1 1 1 1 
1 1 1 1 1 1 1 1 1 
1 1 1 1 1 1 1 1 1 
1 1 1 1 1 1 1 1 1 
1 1 1 1 1 1 1 1 1 
1 1 1 1 1 1 1 1 1 
1 1 1 1 1 1 1 1 1 
1 1 1 1 1 1 1 1 1 
1 1 1 1 1 1 1 1 1 
1 1 1 1 1 1 1 1 1 
1 1 1 1 1 1 1 1 1 
1 1 1 1 1 1 1 1 1 
1 1 1 1 1 1 1 1 1 
1 1 1 1 1 1 1 1 1 
1 1 1 1 1 1 1 1 1 
1 1 1 1 1 1 1 1 1 
1 1 1 1 1 1 1 1 1 
1 1 1 1 1 1 1 1 1 
1 1 1 1 1 1 1 1 1 
1 1 1 1 1 1 1 1 1 
1 1 1 1 1 1 1 1 1 
1 1 1 1 1 1 1 1 1 
1 1 1 1 1 1 1 1 1 
1 1 1 1 1 1 1 1 1 
1 1 1 1 1 1 1 1 1 
1 1 1 1 1 1 1 1 1 
1 1 1 1 1 1 1 1 1 
1 1 1 1 1 1 1 1 1 
1 1 1 1 1 1 1 1 1 
1 1 1 1 1 1 1 1 1 
1 1 1 1 1 1 1 1 1 
1 1 1 1 1 1 1 1 1 
1 1 1 1 1 1 1 1 1 
1 1 1 1 1 1 1 1 1 
1 1 1 1 1 1 1 1 1 
1 1 1 1 1 1 1 1 1 
1 1 1 1 1 1 1 1 1 
1 1 1 1 1 1 1 1 1 
1 1 1 1 1 1 1 1 1 
1 1 1 1 1 1 1 1 1 
1 1 1 1 1 1 1 1 1 
1 1 1 1 1 1 1 1 1 
1 1 1 1 1 1 1 1 1 
1 1 1 1 1 1 1 1 1 
1 1 1 1 1 1 1 1 1 
1 1 1 1 1 1 1 1 1 
1 1 1 1 1 1 1 1 1 
1 1 1 1 1 1 1 1 1 
1 1 1 1 1 1 1 1 1 
1 1 1 1 1 1 1 1 1 
1 1 1 1 1 1 1 1 1 
1 1 1 1 1 1 1 1 1 
1 1 1 1 1 1 1 1 1 
1 1 1 1 1 1 1 1 1 
1 1 1 1 1 1 1 1 1 
1 1 1 1 1 1 1 1 1 
1 1 1 1 1 1 1 1 1 
1 1 1 1 1 1 1 1 1 
1 1 1 1 1 1 1 1 1 
1 1 1 1 1 1 1 1 1 
1 1 1 1 1 1 1 1 1 
1 1 1 1 1 1 1 1 1 
1 1 1 1 1 1 1 1 1 
1 1 1 1 1 1 1 1 1 
1 1 1 1 1 1 1 1 1 
1 1 1 1 1 1 1 1 1 
1 1 1 1 1 1 1 1 1 
1 1 1 1 1 1 1 1 1 
1 1 1 1 1 1 1 1 1 
1 1 1 1 1 1 1 1 1 
1 1 1 1 1 1 1 1 1 
1 1 1 1 1 
NORMALS Normals float
-0.342203 -0.90713 -0.244976 -0.335081 -0.913431 -0.231006 -0.336961 -0.907691 -0.250108 
-0.334744 -0.90386 -0.266426 -0.335081 -0.913431 -0.231006 -0.313377 -0.922787 -0.224183 
-0.467048 -0.873452 -0.137654 -0.471034 -0.880024 0.0606985 -0.418712 -0.859666 -0.292666 
-0.453509 -0.739419 -0.497583 -0.471202 -0.85844 0.202605 -0.435651 -0.849505 -0.297573 
-0.417723 -0.873831 -0.248852 0.376248 0.898847 0.224748 0.360172 0.907134 0.217681 
0.361539 0.907372 0.214397 -0.367179 -0.906799 -0.207111 0.376826 0.902884 0.206889 
-0.311258 -0.9075 -0.282067 -0.335081 -0.913431 -0.231006 -0.339043 -0.914034 -0.222692 
-0.319869 -0.919066 -0.23022 0.341469 0.894236 0.289382 -0.362526 -0.915432 -0.174813 
-0.324394 -0.916858 -0.232681 -0.443655 -0.862555 -0.243245 -0.455794 -0.856738 -0.241355 
-0.461197 -0.853219 -0.243545 -0.459813 -0.852165 -0.249775 -0.466802 -0.852749 -0.234338 
-0.442074 -0.877607 -0.185411 -0.420214 -0.859275 -0.291662 -0.598681 -0.748176 0.286033 
-0.583064 -0.514979 0.628358 0.310762 0.787078 0.532855 -0.372558 -0.559746 -0.740193 
0.456177 0.840859 0.291306 -0.417723 -0.873831 -0.248852 -0.380682 -0.576266 -0.723187 
0.358697 0.909987 0.207993 0.360562 0.908112 0.212905 -0.366179 -0.90781 -0.204435 
-0.191618 -0.873142 -0.448224 -0.317566 -0.922935 -0.217586 0.252609 0.965157 0.0682737 
0.172312 0.974549 -0.143398 -0.0515943 0.800628 -0.596936 -0.301332 -0.930524 -0.208142 
0.169459 0.975074 -0.143231 -0.328624 -0.897375 -0.29449 -0.303104 -0.929963 -0.20808 
0.30859 0.223427 -0.924582 0.48879 0.863467 0.124536 -0.434367 -0.868579 -0.238528 
0.50175 0.861647 -0.0762291 -0.4297 -0.867616 -0.2502 0.461521 0.86174 0.21072 
-0.441058 -0.86364 -0.244118 -0.461197 -0.853219 -0.243545 -0.466802 -0.852749 -0.234338 
-0.412954 -0.815609 -0.40528 0.360486 0.910889 0.200825 0.357382 0.910962 0.205976 
0.380831 0.894644 0.233622 -0.65011 -0.682512 0.333967 0.369885 0.906894 0.201814 
0.303073 0.929762 0.209021 0.303073 0.929762 0.209021 0.306604 0.926801 0.216873 
-0.384047 -0.830359 -0.403748 -0.19563 -0.838874 -0.507956 -0.315636 -0.870445 -0.377756 
-0.195024 -0.838731 -0.508425 -0.409908 -0.863859 -0.292785 -0.463563 -0.851913 -0.243626 
-0.454134 -0.856652 -0.244764 0.445921 0.860081 0.247823 -0.461197 -0.853219 -0.243545 
0.469552 0.852408 0.230048 0.377889 0.907433 0.183755 -0.358442 -0.912582 -0.196756 
-0.293048 -0.952604 -0.0816594 0.346962 0.916746 0.197973 0.349078 0.914187 0.205929 
-0.318588 -0.921475 -0.222229 0.285406 0.941451 0.179479 0.297038 0.936779 0.184971 
0.264038 0.950834 0.161861 0.264038 0.950834 0.161861 -0.264854 -0.952343 -0.151309 
0.273601 0.946383 0.171759 0.413449 0.872331 0.260958 0.413449 0.872331 0.260958 
0.413449 0.872331 0.260958 -0.451318 -0.88026 -0.146474 -0.465809 -0.881308 -0.0794869 
-0.442062 -0.880111 -0.173166 -0.445675 -0.865629 -0.228168 -0.4512 -0.865945 -0.215773 
-0.443318 -0.877998 -0.180523 0.461382 0.864039 0.201403 -0.456437 -0.856042 -0.242607 
-0.446598 -0.853847 -0.267386 -0.476571 -0.846944 -0.235726 -0.0465654 -0.932843 -0.357262 
-0.417723 -0.873831 -0.248852 -0.468749 -0.86543 -0.176934 0.358759 -0.923415 -0.136369 
-0.336559 -0.921299 -0.194771 -0.334257 -0.924061 -0.185429 0.411432 0.89301 0.182366 
-0.295143 -0.945826 -0.135287 -0.284892 -0.94156 -0.179723 -0.31701 -0.92501 -0.209431 
0.298281 0.933842 0.197402 -0.30376 -0.933181 -0.192102 0.260973 0.951417 0.1634 
0.261516 0.951397 0.162642 -0.295409 -0.922237 -0.249424 -0.297266 -0.922783 -0.245163 
-0.297398 -0.920931 -0.251875 -0.2879 -0.924914 -0.248288 0.416573 0.871343 0.259284 
0.419881 0.870494 0.256788 0.414938 0.869937 0.266525 -0.422785 -0.879126 -0.219979 
0.416653 0.871371 0.259061 -0.290389 -0.926268 -0.240211 0.412469 0.869979 0.270196 
-0.41829 -0.873354 -0.249572 -0.425734 -0.867112 -0.25859 -0.436109 -0.872656 -0.219727 
-0.492409 -0.849527 -0.189307 -0.482664 -0.849756 -0.212012 -0.354198 -0.860818 -0.365425 
-0.406712 -0.869887 -0.279074 0.497663 0.807878 0.315698 -0.518468 -0.842808 -0.144452 
-0.122119 -0.795504 -0.593516 0.442028 0.880447 0.171533 -0.438317 -0.879041 -0.187525 
-0.377063 -0.900512 -0.216567 -0.386166 -0.9004 -0.200388 -0.426831 -0.887776 -0.172246 
-0.383729 -0.894206 -0.230537 -0.303535 -0.933131 -0.192702 -0.431421 -0.881637 -0.191293 
0.328512 0.918977 0.218082 -0.227588 -0.97177 -0.0621906 -0.316868 -0.926461 -0.203136 
-0.277762 -0.924594 -0.260719 -0.300234 -0.92208 -0.244187 -0.28916 -0.925775 -0.243571 
0.286982 0.927743 0.238609 0.297815 0.924675 0.237238 -0.278763 -0.925826 -0.25522 
-0.279065 -0.924766 -0.25871 0.283619 0.930423 0.232106 0.283619 0.930423 0.232106 
-0.447214 -0.894427 0 -0.482576 -0.874653 -0.0458448 -0.447214 -0.894427 0 
-0.415339 -0.908908 -0.0371335 -0.283387 -0.924911 -0.253437 0 -0.970143 -0.242536 
0 -1 0 -0.707107 -0.707107 0 0.487874 0.872034 0.039188 
0.707107 -0.707107 0 0 1 0 -0.415096 -0.872925 -0.256314 
0.420012 0.870363 0.257018 -0.41317 -0.874537 -0.253922 0.413235 0.872631 0.260292 
0.421136 0.87057 0.254464 0.397812 0.884876 0.242366 0.432243 0.862907 0.261834 
-0.474635 -0.829396 -0.294661 -0.406081 -0.864865 -0.295138 -0.425202 -0.860193 -0.281552 
-0.467102 -0.85477 -0.226237 -0.472648 -0.837672 -0.273695 0.523102 0.776177 0.352015 
-0.384714 -0.8983 -0.212256 -0.265519 -0.947748 -0.176841 -0.557622 -0.80728 -0.193281 
0.359654 0.91273 0.193837 -0.326761 -0.925673 -0.190674 -0.235576 -0.957096 -0.168736 
0.288466 0.940604 0.179032 -0.348396 -0.923132 -0.162627 -0.237356 -0.954636 -0.179814 
-0.299676 -0.925047 -0.233414 -0.288602 -0.927404 -0.237972 -0.271502 -0.936361 -0.222521 
0.264038 0.950834 0.161861 -0.267546 -0.952541 -0.145205 0.298979 0.924809 0.235245 
-0.369954 -0.875618 -0.310527 -0.286078 -0.927189 -0.241825 -0.295456 -0.94206 -0.158835 
-0.277876 -0.929343 -0.243117 0.277584 0.931209 0.236212 0.284432 0.929638 0.234247 
-0.2729 -0.931014 -0.242362 -0.101165 -0.699387 -0.707548 -0.0326147 -0.584595 -0.810669 
0.343987 0.442878 -0.827969 -0.0273098 -0.74561 -0.665823 0.259537 0.931789 0.25379 
0.255917 0.929845 0.264376 0.261734 0.932264 0.249759 -0.254068 -0.93377 -0.252036 
-0.278886 -0.924951 -0.258241 0.37021 0.652562 -0.661141 -0.276737 -0.930288 -0.24079 
0.452531 0.727373 -0.515891 -0.285852 -0.925255 -0.249384 0.284121 0.927167 0.244206 
-0.42008 -0.905753 0.0560749 -0.535066 -0.841224 -0.0777598 -0.423809 -0.904738 0.0428407 
-0.527167 -0.842626 -0.109893 0.665726 -0.360148 0.653531 -0.289066 -0.925001 -0.246607 
0 -0.970143 0.242536 0.503215 0.862978 0.0452132 0.576119 0.802953 0.152814 
0.428982 0.86499 0.26032 -0.414409 -0.873499 -0.255469 0.476334 0.837399 0.268085 
0.417982 0.870976 0.258248 0.437843 0.864269 0.247654 0.412294 0.877086 0.246443 
-0.419143 -0.872559 -0.25092 -0.436336 -0.806663 -0.39863 -0.448161 -0.855221 -0.260285 
-0.607455 -0.783888 -0.128519 -0.399135 -0.892925 -0.208269 -0.386211 -0.894578 -0.224882 