# vtk DataFile Version 4.2
vtk output
ASCII
DATASET POLYDATA
POINTS 1636 float
212.243 114.013 62.524 212.242 113.957 62.5288 212.182 114.028 62.51 
212.244 113.957 62.6047 211.904 114.631 62.4626 212.173 114.128 62.5473 
211.966 114.49 62.4767 212.228 113.651 62.6361 212.219 113.57 62.6528 
212.175 113.853 62.5688 212.235 113.723 62.7011 211.339 114.137 62.5036 
211.928 114.211 62.4958 212.071 114.382 62.5563 212.186 114.197 62.7236 
210.694 115.215 62.4464 212.05 114.614 62.6893 209.627 116.411 62.4929 
209.838 116.319 62.5305 211.128 115.633 62.6208 208.783 117.196 62.5394 
208.644 117.275 62.5969 209.515 116.508 62.5246 208.76 117.28 62.5408 
208.714 117.329 62.5833 208.84 117.213 62.5425 208.782 117.294 62.544 
211.468 112.761 63.0669 211.49 112.378 63.3331 210.821 113.183 62.8704 
211.992 113.364 62.827 212.148 113.508 62.9962 212.184 113.962 63.0292 
211.721 115.275 62.691 211.828 115.198 62.757 211.982 114.93 62.829 
209.078 116.563 62.5746 207.144 117.556 62.9141 208.259 117.239 62.7168 
209.504 116.716 62.6213 208.988 117.075 62.615 208.564 117.422 62.747 
208.785 117.284 62.5878 210.087 116.681 62.8082 204.807 119.357 63.4144 
210.757 111.394 63.965 211.984 113.056 63.1688 208.531 114.178 63.0322 
212.086 114.847 63.2871 211.85 115.286 62.9312 211.93 115.287 63.1296 
212.014 115.107 63.2636 211.917 115.33 63.266 209.101 117.397 63.0761 
210.276 116.802 63.2015 205.263 119.814 63.6924 205.62 119.671 63.7758 
206.702 118.952 63.7949 201.627 120.508 64.1944 204.65 120.393 64.0281 
204.708 120.337 63.9737 204.523 120.4 64.0379 204.595 120.402 64.143 
210.608 110.323 64.6287 210.601 110.119 64.7497 210.663 110.149 64.7418 
209.965 109.847 64.9405 209.606 110.225 64.6586 210.73 110.211 64.7721 
210.879 110.43 64.663 210.184 111.239 64.0306 211.117 111.145 64.3806 
211.314 111.629 63.922 211.533 111.788 64.1284 212.067 114.601 63.4572 
211.457 115.567 63.7153 211.623 115.313 63.755 210.752 116.138 63.9138 
211.377 115.796 63.4716 201.759 118.012 64.1636 210.389 116.63 63.5793 
209.801 117.064 63.5388 209.226 117.4 63.6764 204.883 120.126 63.8721 
201.943 121.275 64.5491 196.585 123.63 65.7088 210.599 110.031 64.8562 
210.16 109.142 65.5567 210.444 109.722 65.2507 211.805 113.915 64.1332 
210.342 115.907 64.5242 208.331 117.448 64.7837 196.521 121.649 65.4397 
194.403 124.029 66.2445 195.924 123.665 65.8568 194.229 124.565 66.5012 
195.53 124.136 66.1367 196.115 123.979 66.0099 197.246 123.624 65.8696 
194.986 124.479 66.4224 207.927 106.485 66.6706 210.662 109.969 65.6726 
211.201 111.543 65.527 207.216 117.525 65.6294 204.595 119.846 65.3734 
194.216 121.656 66.1531 199.506 122.732 65.5748 193.574 125.309 66.9788 
207.742 103.975 68.012 209.097 104.157 68.3858 206.568 106.292 66.9001 
201.448 110.405 66.7292 198.55 115.536 65.9744 191.772 121.448 67.0676 
194.362 125.161 67.1782 195.934 124.405 66.908 188.978 126.504 67.969 
190.099 126.868 67.9946 192.956 125.931 67.7437 193.487 125.7 67.705 
208.067 102.677 68.8413 208.796 103.099 68.9931 209.138 103.864 68.5488 
209.016 103.7 68.6159 209.137 103.768 68.6334 209.278 104.651 68.2936 
207.031 114.136 67.8255 187.665 124.891 68.2285 195.053 124.816 67.5808 
189.982 127.202 68.3047 185.935 128.519 69.3789 186.979 128.472 69.3091 
208.354 101.206 70.0407 208.708 102.02 69.653 208.568 101.794 69.6819 
206.464 102.5 68.837 208.715 101.897 69.8302 209.096 103.675 68.8071 
209.03 103.477 69.3593 209.355 108.949 68.323 193.876 124.641 69.0263 
184.512 127.925 69.5341 191.736 126.498 68.5552 190.658 127.153 68.6464 
185.68 129.111 69.9055 187.8 128.342 69.3883 188.371 128.104 69.3459 
190.512 127.23 68.7734 183.866 129.412 70.2683 186.097 129.043 69.9354 
206.801 98.9247 70.9729 207.672 99.6395 70.781 206.142 99.3725 70.606 
208.126 100.603 70.2627 208.619 101.677 70.237 209.071 106.021 69.4599 
190.331 127.078 69.2056 182.029 129.007 70.5876 187.558 128.497 69.7074 
182.201 130.026 70.9366 183.866 129.714 70.5348 179.795 131.787 72.0372 
179.6 131.884 72.0961 207.51 98.3109 71.9809 208.086 99.782 71.2933 
203.462 99.6778 70.9656 208.642 102.801 70.7445 180.652 127.704 70.9925 
187.418 128.073 70.7643 186.91 128.675 70.3287 180.33 130.985 71.706 
184.628 129.656 70.6531 180.278 131.662 72.1769 182.831 130.451 71.4514 
183.569 130.125 71.1364 184.216 129.869 71.0653 179.341 132.172 72.2982 
205.758 95.965 72.979 207.061 97.1598 72.5143 208.047 99.4309 71.8789 
208.325 103.115 71.3673 185.649 129.081 71.0447 177.228 131.385 72.4852 
184.702 129.602 71.2283 182.131 130.833 72.0246 182.665 130.646 71.7359 
182.789 130.609 71.7566 176.955 133.544 73.0639 179.127 132.685 72.8608 
176.31 134.088 73.2855 176.487 134.083 73.2933 176.322 134.229 73.3311 
205.247 94.2708 74.1223 204.826 94.613 73.8234 205.889 94.7532 74.0013 
206.209 95.2566 73.743 186.925 126.433 72.4356 176.396 129.683 72.8046 
174.68 134.1 73.61 176.074 134.734 73.66 176.275 134.358 73.4066 
177.091 134.15 73.6028 178.686 133.136 73.4507 173.662 137.027 74.0865 
174.555 136.607 74.0453 174.346 137.393 74.2235 173.813 137.817 74.2064 
172.887 140.166 74.3249 173.215 139.982 74.3897 172.794 140.928 74.3759 
171.922 142.844 74.3146 170.266 154.073 74.6505 171.222 153.532 74.4466 
171.436 153.292 74.5578 171.377 153.729 74.4816 171.29 153.982 74.4855 
171.393 153.9 74.4879 170.583 154.773 74.8034 170.85 154.768 74.6883 
170.807 154.848 74.7741 171.17 154.528 74.635 170.948 154.812 74.7029 
171.058 154.743 74.7069 206.308 93.8846 75.2212 203.342 94.4851 74.1409 
207.036 95.3825 74.5827 207.535 96.7584 73.8669 207.657 98.9658 73.8325 
207.039 101.263 73.8242 180.361 117.737 73.6901 174.213 131.911 73.7179 
179.036 132.836 73.7222 176.665 134.73 74.1166 171.903 137.524 74.4455 
171.533 139.535 74.488 173.729 139.824 74.686 172.472 141.291 74.372 
172.74 142.043 74.5337 170.556 146.731 74.354 171.397 153.854 74.6745 
170.163 154.689 74.8999 171.264 154.371 74.7268 170.013 154.852 75.06 
170.188 154.841 75.0952 170.646 154.845 74.9616 171.159 154.634 74.7289 
171.165 154.591 74.8124 169.88 154.869 75.1261 170.91 154.843 74.8014 
204.33 92.2927 75.7761 204.988 91.9377 76.337 205.661 92.7076 75.9436 
206.498 93.8298 75.5689 207.048 94.953 75.0444 207.078 95.1623 75.0512 
207.561 97.0601 74.2067 207.527 98.0785 74.3875 197.415 97.9641 74.565 
207.591 98.6301 74.298 207.443 100.153 73.7925 204.846 101.814 75.2901 
178.969 132.56 74.3815 176.256 135.321 74.5032 177.246 134.255 74.3918 
174.215 138.562 74.6378 173.765 140.285 75.1548 173.197 142.225 75.1734 
172.426 146.896 75.2928 169.165 154.589 75.4972 170.778 154.723 75.1004 
169.649 154.796 75.5063 169.895 154.87 75.1921 170.858 154.828 74.9128 
205.189 91.6551 76.7734 206.536 93.6495 76.0455 206.72 94.1212 76.1626 
206.921 95.8915 75.9613 206.746 98.1163 75.5984 205.805 99.467 75.8497 
179.426 130.33 75.7618 175.143 136.573 76.0381 173.158 142.359 75.7646 
166.766 146.419 75.9472 166.368 152.096 76.3427 167.085 154.442 76.7592 
167.813 154.418 76.2687 170.216 154.638 75.6316 167.662 154.613 76.5365 
168.082 154.64 76.5059 169.741 154.701 75.8439 167.46 154.628 76.6551 
205.69 91.6364 77.3599 206.721 96.0425 76.4529 206.419 97.0538 76.458 
168.912 130.878 76.7187 172.124 145.838 76.6122 170.188 154.112 76.0924 
169.725 154.294 76.3496 165.623 154.2 77.9153 169.583 154.544 76.2085 
169.133 154.644 76.3338 204.256 89.8434 78.3574 202.093 89.7796 78.2352 
205.293 90.2289 78.7998 205.876 91.2968 78.2359 206.571 93.7197 77.0666 
206.336 95.6637 77.1893 176.924 130.592 77.5733 172.3 140.213 78.0112 
172.593 141.713 77.1939 170.681 146.485 78.1443 163.913 152.231 78.2618 
164.414 153.418 78.4531 164.732 153.787 78.4477 168.387 154.022 77.5673 
168.792 154.498 76.7795 165.808 154.33 78.2255 166.318 154.419 77.989 
202.793 88.2796 79.617 203.509 88.193 79.8551 204.478 89.0344 79.4717 
205.038 89.5318 79.4627 205.313 89.8767 79.183 205.386 89.9151 79.2124 
205.596 90.6196 79.1565 205.409 90.0517 79.2217 205.112 95.1443 78.9431 
161.924 148.839 79.0944 165.976 153.901 79.2121 166.42 154.088 78.7965 
164.067 153.698 79.4763 165.217 154.085 79.0605 166.509 154.373 78.1882 
204.024 87.3226 81.0664 205.319 89.8247 79.3569 205.303 89.8542 79.7191 
205.667 92.0794 79.6258 161.597 151.654 80.093 164.996 153.946 79.4566 
165.793 153.825 79.4828 165.589 153.706 79.6404 163.532 153.477 79.9227 
165.751 153.774 79.5648 203.064 86.2818 81.7013 203.888 86.7028 81.6976 
204.125 86.9758 81.461 204.212 87.1113 81.413 204.209 86.9751 81.5198 
204.321 87.3793 81.4559 204.235 87.0209 81.5898 205.499 90.6197 80.0634 
205.582 91.7527 80.0082 205.496 91.4663 80.1498 205.541 91.6717 80.1294 
204.626 93.0013 80.5776 193.593 101.298 81.5426 163.273 153.333 80.3232 
202.679 85.211 82.8215 202.357 85.4506 82.4457 203.145 85.3831 82.9605 
204.148 86.8857 81.6378 204.143 86.8666 81.9472 204.731 89.4631 81.7617 
205.215 91.0148 80.6947 205.194 91.752 80.5218 159.086 149.194 81.4021 
158.754 150.505 82.1797 159.67 151.434 82.0552 159.311 151.401 82.5351 
163.53 152.598 81.1851 163.657 152.981 80.8321 164.009 153.397 80.3326 
202.561 84.5749 83.6392 204.488 88.0192 82.5266 203.625 91.136 82.6481 
163.523 150.99 81.9713 158.43 150.792 82.7762 159.249 151.431 82.9296 
202.071 83.7138 84.5292 202.029 83.5639 84.6831 202.38 84.0857 84.2936 
203.95 89.3339 83.2872 155.738 144.234 84.0476 155.934 148.878 84.3187 
156.383 149.908 84.5914 156.836 150.282 84.4753 158.013 150.868 83.9372 
158.526 151.075 83.7427 158.954 151.281 83.3976 200.361 83.4805 84.8322 
202.762 84.2373 84.6633 203.885 87.899 84.107 154.541 146.895 85.1803 
154.493 147.843 85.432 154.933 148.608 85.2891 159.489 149.414 84.6468 
155.375 149.384 85.435 160.059 150.512 83.8695 155.85 149.705 85.2001 
156.984 150.383 84.6042 159.616 151.261 83.4649 200.21 89.5617 86.3364 
158.515 146.314 86.0877 153.63 146.76 86.1582 153.646 147.724 86.4126 
[...]
POINT_DATA 1636
SCALARS scalars float
LOOKUP_TABLE default
1 1 1 1 1 1 1 1 1 
1 1 1 1 1 1 1 1 1 
1 1 1 1 1 1 1 1 1 
1 1 1 1 1 1 1 1 1 
1 1 1 1 1 1 1 1 1 
1 1 1 1 1 1 1 1 1 
1 1 1 1 1 1 1 1 1 
1 1 1 1 1 1 1 1 1 
1 1 1 1 1 1 1 1 1 
1 1 1 1 1 1 1 1 1 
1 1 1 1 1 1 1 1 1 
1 1 1 1 1 1 1 1 1 
1 1 1 1 1 1 1 1 1 
1 1 1 1 1 1 1 1 1 
1 1 1 1 1 1 1 1 1 
1 1 1 1 1 1 1 1 1 
1 1 1 1 1 1 1 1 1 
1 1 1 1 1 1 1 1 1 
1 1 1 1 1 1 1 1 1 
1 1 1 1 1 1 1 1 1 
1 1 1 1 1 1 1 1 1 
1 1 1 1 1 1 1 1 1 
1 1 1 1 1 1 1 1 1 
1 1 1 1 1 1 1 1 1 
1 1 1 1 1 1 1 1 1 
1 1 1 1 1 1 1 1 1 
1 1 1 1 1 1 1 1 1 
1 1 1 1 1 1 1 1 1 
1 1 1 1 1 1 1 1 1 
1 1 1 1 1 1 1 1 1 
1 1 1 1 1 1 1 1 1 
1 1 1 1 1 1 1 1 1 
1 1 1 1 1 1 1 1 1 
1 1 1 1 1 1 1 1 1 
1 1 1 1 1 1 1 1 1 
1 1 1 1 1 1 1 1 1 
1 1 1 1 1 1 1 1 1 
1 1 1 1 1 1 1 1 1 
1 1 1 1 1 1 1 1 1 
1 1 1 1 1 1 1 1 1 
1 1 1 1 1 1 1 1 1 
1 1 1 1 1 1 1 1 1 
1 1 1 1 1 1 1 1 1 
1 1 1 1 1 1 1 1 1 
1 1 1 1 1 1 1 1 1 
1 1 1 1 1 1 1 1 1 
1 1 1 1 1 1 1 1 1 
1 1 1 1 1 1 1 1 1 
1 1 1 1 1 1 1 1 1 
1 1 1 1 1 1 1 1 1 
1 1 1 1 1 1 1 1 1 
1 1 1 1 1 1 1 1 1 
1 1 1 1 1 1 1 1 1 
1 1 1 1 1 1 1 1 1 
1 1 1 1 1 1 1 1 1 
1 1 1 1 1 1 1 1 1 
1 1 1 1 1 1 1 1 1 
1 1 1 1 1 1 1 1 1 
1 1 1 1 1 1 1 1 1 
1 1 1 1 1 1 1 1 1 
1 1 1 1 1 1 1 1 1 
1 1 1 1 1 1 1 1 1 
1 1 1 1 1 1 1 1 1 
1 1 1 1 1 1 1 1 1 
1 1 1 1 1 1 1 1 1 
1 1 1 1 1 1 1 1 1 
1 1 1 1 1 1 1 1 1 
1 1 1 1 1 1 1 1 1 
1 1 1 1 1 1 1 1 1 
1 1 1 1 1 1 1 1 1 
1 1 1 1 1 1 1 1 1 
1 1 1 1 1 1 1 1 1 
1 1 1 1 1 1 1 1 1 
1 1 1 1 1 1 1 1 1 
1 1 1 1 1 1 1 1 1 
1 1 1 1 1 1 1 1 1 
1 1 1 1 1 1 1 1 1 
1 1 1 1 1 1 1 1 1 
1 1 1 1 1 1 1 1 1 
1 1 1 1 1 1 1 1 1 
1 1 1 1 1 1 1 1 1 
1 1 1 1 1 1 1 1 1 
1 1 1 1 1 1 1 1 1 
1 1 1 1 1 1 1 1 1 
1 1 1 1 1 1 1 1 1 
1 1 1 1 1 1 1 1 1 
1 1 1 1 1 1 1 1 1 
1 1 1 1 1 1 1 1 1 
1 1 1 1 1 1 1 1 1 
1 1 1 1 1 1 1 1 1 
1 1 1 1 1 1 1 1 1 
1 1 1 1 1 1 1 1 1 
1 1 1 1 1 1 1 1 1 
1 1 1 1 1 1 1 1 1 
1 1 1 1 1 1 1 1 1 
1 1 1 1 1 1 1 1 1 
1 1 1 1 1 1 1 1 1 
1 1 1 1 1 1 1 1 1 
1 1 1 1 1 1 1 1 1 
1 1 1 1 1 1 1 1 1 
1 1 1 1 1 1 1 1 1 
1 1 1 1 1 1 1 1 1 
1 1 1 1 1 1 1 1 1 
1 1 1 1 1 1 1 1 1 
1 1 1 1 1 1 1 1 1 
1 1 1 1 1 1 1 1 1 
1 1 1 1 1 1 1 1 1 
1 1 1 1 1 1 1 1 1 
1 1 1 1 1 1 1 1 1 
1 1 1 1 1 1 1 1 1 
1 1 1 1 1 1 1 1 1 
1 1 1 1 1 1 1 1 1 
1 1 1 1 1 1 1 1 1 
1 1 1 1 1 1 1 1 1 
1 1 1 1 1 1 1 1 1 
1 1 1 1 1 1 1 1 1 
1 1 1 1 1 1 1 1 1 
1 1 1 1 1 1 1 1 1 
1 1 1 1 1 1 1 1 1 
1 1 1 1 1 1 1 1 1 
1 1 1 1 1 1 1 1 1 
1 1 1 1 1 1 1 1 1 
1 1 1 1 1 1 1 1 1 
1 1 1 1 1 1 1 1 1 
1 1 1 1 1 1 1 1 1 
1 1 1 1 1 1 1 1 1 
1 1 1 1 1 1 1 1 1 
1 1 1 1 1 1 1 1 1 
1 1 1 1 1 1 1 1 1 
1 1 1 1 1 1 1 1 1 
1 1 1 1 1 1 1 1 1 
1 1 1 1 1 1 1 1 1 
1 1 1 1 1 1 1 1 1 
1 1 1 1 1 1 1 1 1 
1 1 1 1 1 1 1 1 1 
1 1 1 1 1 1 1 1 1 
1 1 1 1 1 1 1 1 1 
1 1 1 1 1 1 1 1 1 
1 1 1 1 1 1 1 1 1 
1 1 1 1 1 1 1 1 1 
1 1 1 1 1 1 1 1 1 
1 1 1 1 1 1 1 1 1 
1 1 1 1 1 1 1 1 1 
1 1 1 1 1 1 1 1 1 
1 1 1 1 1 1 1 1 1 
1 1 1 1 1 1 1 1 1 
1 1 1 1 1 1 1 1 1 
1 1 1 1 1 1 1 1 1 
1 1 1 1 1 1 1 1 1 
1 1 1 1 1 1 1 1 1 
1 1 1 1 1 1 1 1 1 
1 1 1 1 1 1 1 1 1 
1 1 1 1 1 1 1 1 1 
1 1 1 1 1 1 1 1 1 
1 1 1 1 1 1 1 1 1 
1 1 1 1 1 1 1 1 1 
1 1 1 1 1 1 1 1 1 
1 1 1 1 1 1 1 1 1 
1 1 1 1 1 1 1 1 1 
1 1 1 1 1 1 1 1 1 
1 1 1 1 1 1 1 1 1 
1 1 1 1 1 1 1 1 1 
1 1 1 1 1 1 1 1 1 
1 1 1 1 1 1 1 1 1 
1 1 1 1 1 1 1 1 1 
1 1 1 1 1 1 1 1 1 
1 1 1 1 1 1 1 1 1 
1 1 1 1 1 1 1 1 1 
1 1 1 1 1 1 1 1 1 
1 1 1 1 1 1 1 1 1 
1 1 1 1 1 1 1 1 1 
1 1 1 1 1 1 1 1 1 
1 1 1 1 1 1 1 1 1 
1 1 1 1 1 1 1 1 1 
1 1 1 1 1 1 1 1 1 
1 1 1 1 1 1 1 1 1 
1 1 1 1 1 1 1 1 1 
1 1 1 1 1 1 1 1 1 
1 1 1 1 1 1 1 1 1 
1 1 1 1 1 1 1 1 1 
1 1 1 1 1 1 1 1 1 
1 1 1 1 1 1 1 
NORMALS Normals float
0.80275 0.247529 -0.542514 0.670199 -0.323403 -0.668014 0.121169 0.00211384 -0.99263 
0.998814 0.0047477 -0.0484469 0.414137 0.189465 -0.890277 0.712425 0.402325 -0.574965 
0.46706 0.0210299 -0.883976 0.884431 -0.0718316 -0.46111 0.532373 -0.463795 -0.708148 
0.437882 -0.328287 -0.836951 0.998824 -0.0462551 -0.0145159 -0.0746633 -0.249139 -0.965585 
0.105583 -0.0834552 -0.990902 0.744567 0.22808 -0.627375 0.96749 0.252221 -0.0186418 
0.00711938 0.0358801 -0.999331 0.908754 0.31883 -0.269285 0.119587 0.293742 -0.948375 
0.294456 0.423205 -0.856851 0.438189 0.540763 -0.718029 -0.196916 -0.0332129 -0.979858 
-0.404468 0.302842 -0.862956 0.139635 0.454063 -0.87996 -0.195802 0.181853 -0.963634 
-0.0170407 0.804491 -0.59372 0.477536 0.313299 -0.820855 0.430537 0.709013 -0.558514 
0.0476136 -0.610552 -0.790544 0.286702 -0.590222 -0.754613 -0.161761 -0.419795 -0.893088 
0.358593 -0.604748 -0.711119 0.955285 -0.260206 0.14044 0.981895 0.0719549 0.175225 
0.562945 0.537147 -0.628145 0.746445 0.398906 -0.532629 0.854527 0.328462 -0.402363 
-0.0587751 0.0276753 -0.997888 -0.156794 0.0811253 -0.984294 -0.248218 0.17555 -0.952665 
0.180562 0.365079 -0.913299 0.505471 0.617308 -0.602852 0.211602 0.817274 -0.535993 
0.668287 0.739424 0.0815136 0.382954 0.579438 -0.719443 -0.0639873 0.103505 -0.992569 
0.139265 -0.546698 -0.825668 0.704556 -0.536394 -0.464632 -0.22797 -0.353159 -0.907364 
0.966453 0.248201 0.06606 0.741612 0.605932 -0.287851 0.866933 0.437942 -0.23798 
0.922548 0.330523 0.19915 0.74267 0.641271 0.192907 0.381222 0.879671 -0.284338 
0.59913 0.783236 -0.166087 0.209915 0.593329 -0.777108 0.432713 0.728176 -0.531524 
0.540838 0.823661 -0.170517 -0.219719 0.141082 -0.965308 0.526274 0.850303 0.00445833 
0.262072 0.705676 -0.658286 0.01621 0.77479 -0.632011 0.36826 0.92718 -0.0687177 
0.2003 -0.50643 -0.838694 0.0967996 -0.683201 -0.723786 0.466399 -0.587923 -0.660922 
0.0739089 -0.639803 -0.764977 -0.0355766 -0.536987 -0.84284 0.672173 -0.589435 -0.448051 
0.611613 -0.577987 -0.540241 0.0270078 -0.468478 -0.883062 0.795956 -0.540306 -0.272991 
0.417461 -0.657059 -0.627694 0.882035 -0.463405 -0.0852653 0.903217 0.104156 0.416354 
0.581505 0.495826 0.644987 0.676192 0.455049 0.579391 0.65273 0.648654 0.391396 
0.675575 0.642184 0.362212 -0.217957 -0.258515 -0.941098 0.590051 0.727636 0.349836 
0.534431 0.806612 0.252509 0.437382 0.896683 0.0682386 0.266326 0.657197 -0.705097 
0.0720404 0.631194 -0.772272 -0.00580179 0.520554 -0.853809 0.452127 -0.760804 -0.465572 
0.511606 -0.686674 -0.516467 0.576311 -0.707991 -0.408184 0.729167 0.213842 0.650067 
0.560307 0.546429 0.622472 0.537827 0.674607 0.505616 -0.265208 -0.0944036 -0.959558 
-0.299327 0.277769 -0.912824 -0.198643 0.300802 -0.932769 -0.139212 0.477693 -0.867427 
0.0793611 0.78271 -0.617306 0.0777826 0.798428 -0.597045 0.277799 0.890845 -0.359476 
-0.0426712 0.577289 -0.815424 0.119808 -0.517142 -0.847473 0.888579 -0.450757 -0.0851209 
0.914359 -0.118385 0.387211 0.524052 0.602611 0.601855 0.558097 0.73283 0.389215 
-0.353423 -0.0210469 -0.935227 0.379773 0.903912 -0.196762 0.190564 0.782914 -0.592225 
0.104754 -0.470545 -0.876136 0.577311 -0.320333 -0.751065 -0.219842 -0.421828 -0.87962 
-0.421591 -0.445369 -0.789878 -0.386147 -0.3254 -0.863137 -0.366846 -0.270883 -0.88997 
0.298287 0.860699 -0.41258 0.508136 0.851797 0.127434 -0.13483 0.279599 -0.950603 
-0.0894282 0.34341 -0.934918 0.219433 0.886488 -0.407416 0.447577 0.894124 -0.0147016 
0.318705 -0.536891 -0.781137 0.791468 -0.450295 -0.413296 0.724874 -0.366235 -0.583463 
0.435371 -0.584931 -0.68433 0.865712 -0.428252 -0.259122 0.934804 -0.23747 -0.2641 
0.53893 0.368334 0.757552 -0.26375 -0.00192147 -0.964589 0.546758 0.793543 0.267104 
0.155114 0.789734 -0.593515 -0.166102 0.453754 -0.87551 0.11253 0.726148 -0.678267 
0.893148 -0.426337 -0.143257 0.63058 -0.5605 -0.536851 0.483254 -0.548873 -0.682059 
-0.193619 -0.564733 -0.802239 0.984486 -0.174339 -0.019846 0.762799 -0.607036 -0.222812 
0.978213 -0.184426 0.0953182 0.833019 0.0672995 0.549136 0.501948 0.581017 0.640678 
-0.267464 0.277841 -0.922642 0.45722 0.88633 0.0732755 0.521432 0.853131 -0.0166432 
0.0783798 0.830311 -0.551761 0.176753 0.891951 -0.416152 0.402447 0.910603 -0.0940143 
0.459406 0.884946 0.0762611 -0.132037 0.588813 -0.797412 0.26181 0.956624 -0.127771 
0.165544 -0.618767 -0.767934 0.716099 -0.567098 -0.406943 0.026694 -0.551953 -0.833448 
0.630124 -0.541883 -0.556154 0.91854 -0.394087 0.0313086 0.863954 0.11714 0.489756 
0.53661 0.674057 0.507639 -0.35113 0.289002 -0.89061 0.318108 0.947884 -0.0180099 
-0.164367 0.55401 -0.816123 0.0172746 0.809239 -0.587226 0.201199 0.62531 -0.753993 
-0.391943 0.172572 -0.903659 0.591072 -0.541624 -0.597727 0.931274 -0.329068 -0.15634 
-0.227248 -0.510703 -0.829181 0.94158 -0.0721408 0.328971 -0.401387 0.0120892 -0.915829 
0.467443 0.725208 0.505541 0.282087 0.926936 0.247419 -0.19105 0.336327 -0.922163 
0.315575 0.904977 -0.285359 0.299357 0.740462 -0.601748 0.192436 0.843384 -0.50167 
0.0441721 0.838035 -0.543825 0.33727 0.915122 -0.220911 -0.155194 0.398146 -0.904099 
0.205059 -0.547901 -0.811021 0.547345 -0.566916 -0.615646 0.949308 -0.279583 -0.143693 
0.886267 0.0717215 0.457588 0.448361 0.862199 0.235763 -0.336713 0.15812 -0.928236 
0.507925 0.837185 0.202813 0.347012 0.912199 -0.217889 0.205165 0.909789 -0.36082 
0.405187 0.913753 -0.0296442 -0.0828964 0.370192 -0.925249 0.39832 0.793578 -0.459973 
-0.153011 0.326125 -0.932861 0.279166 0.541794 -0.792796 -0.0371042 0.420509 -0.906529 
0.200398 -0.655373 -0.728235 0.0875571 -0.57801 -0.811319 0.449103 -0.591107 -0.669999 
0.460479 -0.540834 -0.703887 0.484118 0.542509 0.686523 -0.451843 -0.0228756 -0.891804 
-0.254341 0.224477 -0.940702 0.268273 0.525386 -0.807464 0.010593 0.525482 -0.850739 
0.433314 0.739698 -0.514864 0.577936 0.815897 0.0173814 -0.0741408 -0.0195851 -0.997055 
-0.131153 0.057735 -0.989679 0.285421 0.267128 -0.920422 0.102987 0.159526 -0.981807 
0.348891 0.169863 -0.921641 0.336187 0.211308 -0.917784 0.187194 0.0756646 -0.979405 
0.152085 0.0119153 -0.988296 -0.264978 0.154862 -0.951738 0.0407976 -0.0028345 -0.999163 
0.847046 0.0572656 -0.528425 0.318909 -0.0136121 -0.947688 0.0437353 0.155508 -0.986866 
0.693719 0.227548 -0.683357 -0.298427 0.689966 -0.65946 -0.179493 0.41377 -0.892511 
-0.144154 0.897003 -0.417858 0.61971 0.433752 -0.654078 0.164049 0.525702 -0.834701 
0.665245 0.730005 -0.15666 0.55167 -0.65529 -0.515999 -0.199944 -0.58375 -0.78693 
0.735805 -0.486184 -0.471398 0.963458 -0.257633 -0.073302 0.92383 0.142316 0.355365 
0.650358 0.29769 0.698867 -0.471687 -0.417302 -0.776769 -0.43651 0.0402548 -0.898798 
0.621021 0.778419 0.0916321 0.66142 0.617097 -0.42628 -0.275799 -0.154434 -0.948728 
-0.230022 -0.0193208 -0.972994 0.67304 0.378991 -0.635124 -0.248271 0.187665 -0.950339 
0.433556 0.16893 -0.885151 -0.140222 0.0227403 -0.989859 0.916929 0.195962 0.347621 
-0.260767 0.552005 -0.792017 0.947798 0.317619 0.028242 0.00264217 0.902703 -0.430256 
0.0183478 0.979675 -0.199751 0.0766418 0.982078 0.172189 0.82181 0.569738 -0.00526687 
0.757314 0.377803 0.532673 -0.410055 0.715626 -0.565451 0.31973 0.944987 0.0690867 
0.01427 -0.699712 -0.714283 0.491351 -0.68391 -0.539297 0.516894 -0.680699 -0.519105 
0.763505 -0.576484 -0.291079 0.849863 -0.433182 -0.300142 0.973013 -0.229544 -0.0235608 
0.988556 -0.0825889 0.126236 0.954178 0.0265004 0.298063 -0.427005 -0.513989 -0.743964 
0.867088 0.221635 0.446135 0.722912 0.240864 0.647597 0.49706 0.378865 0.780636 
0.697393 0.61605 0.36623 0.824865 0.559902 0.0781532 0.676842 0.727862 -0.110007 
0.501033 0.333796 -0.798465 0.895599 0.368703 -0.248918 0.966197 0.214043 -0.143699 
0.921654 0.216368 0.322085 -0.490248 0.65524 -0.574732 0.456134 0.65883 0.598234 
-0.124454 0.991947 0.0234918 0.0375684 0.996333 0.0768754 0.504761 0.7584 0.412366 
0.387339 -0.700584 -0.599292 0.78368 -0.574975 -0.235052 0.97183 -0.178492 0.153906 
0.943482 -0.00392132 0.331399 0.729508 0.332183 0.59789 0.59822 0.329061 0.730651 
0.630107 0.404389 0.662899 0.837151 0.477727 0.266375 0.94768 0.236395 0.214521 
-0.478533 0.00195637 -0.878067 -0.504939 0.140632 -0.851622 -0.538773 0.571299 -0.619145 
-0.392459 0.63475 -0.665634 0.537001 0.544009 0.644736 -0.179802 0.825251 -0.53538 
-0.0355972 0.999239 -0.0159169 0.306176 0.844545 0.439318 -0.298031 0.872175 -0.387928 
0.718777 -0.559946 -0.412092 0.860238 0.182979 0.475929 0.723364 0.271623 0.634795 
-0.48431 -0.202289 -0.851189 0.884959 0.248207 0.394006 0.630447 0.333221 0.70107 
0.493065 0.486182 0.721466 -0.43625 0.864027 -0.251285 0.41857 0.692347 0.587754 
0.237696 0.849702 0.470645 0.37705 -0.701306 -0.604982 -0.228997 -0.663052 -0.712687 
0.671885 -0.550416 -0.495594 0.801332 -0.522878 -0.29063 0.977715 -0.167561 0.126475 
0.867513 0.187102 0.460884 0.650069 0.214103 0.729089 0.713064 0.265268 0.648978 
0.703212 0.157728 0.693263 0.678188 0.221454 0.700728 -0.568056 0.276889 -0.775013 
-0.61245 0.539897 -0.577423 -0.586657 0.529871 -0.61243 0.490859 0.528976 0.692273 
0.291627 0.762437 0.577619 -0.11218 0.982433 0.149133 -0.137445 0.990076 0.0293142 
0.116502 -0.709082 -0.695435 0.391774 -0.633429 -0.667294 0.405293 -0.676909 -0.614437 
0.608271 -0.686507 -0.39839 0.508034 -0.734089 -0.450573 0.838923 -0.489689 -0.237515 
0.963205 -0.267886 0.0217541 0.962529 -0.267174 -0.0464256 0.647176 0.376292 0.662999 
-0.589531 -0.033926 -0.807033 -0.143794 0.950768 0.274525 0.160092 0.873572 0.459611 
-0.512247 0.835796 -0.197607 -0.236366 0.957271 0.166625 0.114415 0.913368 0.390727 
0.45416 -0.603086 -0.655763 0.814163 -0.580622 -0.00414791 0.938749 -0.3344 0.0832267 
0.900093 0.129696 0.415947 -0.625969 0.332109 -0.705597 0.0508988 0.902257 0.428185 
-0.219913 0.941583 0.255068 -0.0146984 0.819266 0.573225 -0.445822 0.891385 -0.0817001 
0.289999 0.646443 0.705699 0.175696 -0.736498 -0.653224 0.435134 -0.770637 -0.465593 
0.39252 -0.702052 -0.594181 0.768115 -0.392785 -0.505686 0.718345 -0.586296 -0.374483 
0.817847 -0.448437 -0.360597 0.928554 -0.365084 -0.0670952 0.957365 -0.136111 0.254804 
0.912898 0.138821 0.383856 0.943132 -0.077464 0.323267 0.860885 0.057637 0.505525 
0.657601 0.357964 0.66289 0.432031 0.474031 0.767232 -0.257126 0.928124 0.269206 
0.325943 -0.7115 -0.622519 0.0956381 -0.730108 -0.676606 0.605703 -0.686189 -0.402826 
0.637422 -0.74386 -0.20091 0.886656 -0.461064 0.0355191 0.910899 0.0394355 0.410742 
0.801213 0.129523 0.584193 0.732112 0.211163 0.647628 -0.702168 0.107442 -0.703858 
-0.691398 0.427085 -0.582724 -0.549494 0.76731 -0.330594 -0.539071 0.769245 -0.343024 
0.477432 0.455073 0.751643 0.248556 0.683178 0.686649 0.0346191 0.831104 0.555038 
0.447531 -0.783005 -0.431995 0.946552 -0.201024 0.252247 0.645824 0.345043 0.68107 
0.495622 0.301731 0.814443 -0.675753 0.588549 -0.443811 -0.332835 0.940031 0.0745829 
0.103303 -0.658711 -0.74527 0.387535 -0.767313 -0.510928 0.3553 -0.726443 -0.588254 
0.602531 0.47261 0.643115 -0.702104 -1.28017e-06 -0.712074 -0.683428 0.256799 -0.68336 
-0.652196 0.709776 -0.266192 -0.61036 0.725075 -0.318946 -0.383835 0.919896 0.0803889 
-0.105443 0.887818 0.447952 -0.106834 0.922455 0.37103 -0.0791552 -0.72502 -0.684164 
0.761082 -0.604018 -0.236468 0.878757 0.10065 0.466535 -0.708636 0.131761 -0.693163 
-0.743588 0.204605 -0.636565 -0.682163 0.43615 -0.586879 0.418096 0.386747 0.821963 
-0.5884 0.797204 -0.135098 0.380294 0.432571 0.817471 -0.645866 0.697937 -0.309419 
-0.353986 0.91324 0.20171 0.0972576 0.759328 0.643398 0.586866 0.537858 0.605224 
0.519366 0.189284 0.833325 -0.709142 0.0855013 -0.699862 -0.704862 0.343952 -0.620376 
-0.713404 0.371954 -0.59389 0.111637 0.769753 0.628505 -0.304743 0.915331 0.263251 
-0.0531389 -0.635968 -0.769884 0.231662 -0.765082 -0.600818 0.843173 -0.0310496 0.536745 
0.637805 0.346713 0.687746 0.668988 0.357112 0.651863 0.439419 0.436334 0.78519 
-0.761164 -0.258919 -0.594635 -0.667204 0.685988 -0.290275 -0.358951 0.920312 0.155501 
-0.388598 0.915532 0.103888 0.0810372 -0.764663 -0.639315 0.334712 -0.745118 -0.57686 
-0.0363949 -0.734409 -0.67773 0.786885 -0.557304 -0.265001 0.740848 -0.564257 -0.36436 
0.975737 -0.210159 -0.0613957 0.974452 -0.0120976 0.224272 0.619188 0.252646 0.743489 
0.498743 0.446147 0.743107 0.578373 0.362013 0.731048 0.639991 0.497355 0.585704 
-0.831857 -0.158423 -0.531899 0.376642 0.178064 0.909084 -0.885708 -0.117167 -0.449214 
-0.839672 0.0492364 -0.540858 -0.781738 0.194817 -0.592396 -0.78689 0.481101 -0.386452 
-0.329485 0.897952 0.291757 -0.0425594 0.8314 0.554042 -0.195124 -0.7202 -0.665762 
-0.330747 -0.647926 -0.686148 0.39979 0.665529 0.63027 -0.677786 -0.329959 -0.657064 
0.454807 0.16063 0.875985 -0.948873 -0.131403 0.287008 0.107947 0.160494 0.981116 
-0.909021 -0.111715 -0.401498 -0.851974 0.435053 -0.291325 0.326473 0.462724 0.824198 
0.201893 -0.764557 -0.612121 0.997838 -0.0190334 0.0629127 0.780034 0.461502 0.422567 
0.641994 0.71111 0.286646 -0.829898 -0.337077 -0.444578 -0.90657 -0.252076 -0.338509 
-0.988752 -0.140657 0.0508375 -0.965577 -0.0444643 0.256287 -0.979783 -0.0296816 0.197848 
-0.743937 -0.05795 0.665732 -0.61509 -0.150477 0.773965 0.183509 0.0666371 0.980757 
-0.950655 -0.202473 0.235075 -0.95566 -0.0675421 0.286621 -0.887001 -0.14738 0.437616 
-0.775915 -0.161085 0.609925 -0.810904 -0.106624 0.575384 -0.991102 -0.124266 -0.0476995 
-0.992526 0.121009 0.0157725 -0.90997 0.181575 -0.372807 -0.869619 0.483869 0.0981496 
0.346886 0.375504 0.859457 0.808155 -0.499431 -0.312175 0.930871 -0.352839 -0.0947851 
0.861345 -0.349546 -0.36865 0.995123 0.00387189 0.0985706 0.909973 0.330418 0.250544 
0.67834 0.598418 0.426321 -0.764725 -0.365465 -0.530689 -0.757331 -0.346012 -0.553828 
-0.926379 -0.292829 -0.236798 -0.962723 -0.268048 -0.0362686 0.138823 0.289565 0.947038 
-0.814334 -0.000951712 0.580395 -0.749359 0.0471843 0.66048 -0.663355 0.0286502 0.747756 
-0.656295 0.033725 0.75375 -0.388418 0.0400399 0.920613 -0.0995829 0.0282869 0.994627 
-0.634017 -0.149236 0.758782 -0.546019 0.00296356 0.837767 -0.71143 -0.0781127 0.698402 
-0.428722 -0.0429916 0.902413 0.00495891 0.0173899 0.999837 -0.543533 -0.153697 0.825197 
-0.0619583 -0.0937805 0.993663 -0.277034 -0.0667671 0.958538 -0.688787 0.121671 0.714681 
-0.502959 -0.0406364 0.863354 -0.863881 0.388118 0.321052 -0.656885 0.415656 0.629072 
-0.583894 0.573638 0.574463 -0.371152 0.824204 0.427708 0.406917 -0.689773 -0.598859 
0.699586 -0.59261 -0.39924 0.724619 -0.435051 -0.53447 0.740506 -0.47656 -0.473858 
0.909464 -0.291576 -0.29641 0.990784 -0.115009 -0.0715513 -0.915198 -0.185194 0.357933 
-0.922514 -0.315909 -0.221739 -0.773167 -0.17298 0.610156 0.0676998 0.175222 0.982199 
-0.690086 0.0638035 0.720909 -0.548012 0.0612964 0.834222 -0.168758 0.155451 0.973322 
-0.488706 0.0580126 0.870518 -0.277993 0.0668016 0.958257 -0.169589 -0.0302611 0.98505 
0.284471 0.136865 0.948865 -0.460038 0.285874 0.84062 -0.39061 0.477781 0.78686 
0.164046 0.416062 0.894417 0.116484 -0.908722 -0.400818 0.439036 -0.80598 -0.397043 
0.221503 -0.757799 -0.61374 0.924787 -0.280888 -0.256652 0.951049 0.253919 0.176154 
0.427602 0.776176 0.463365 -0.631285 -0.390222 -0.670229 -0.806837 -0.241086 -0.539343 
-0.821409 -0.187683 0.538575 -0.703386 -0.104084 0.703146 -0.811721 -0.170762 0.558525 
-0.283714 0.00618664 0.958889 -0.33983 -0.0514306 0.93908 -0.649004 -0.0430809 0.759565 
-0.346682 0.0204371 0.93776 0.0607833 0.117746 0.991182 -0.413815 0.065711 0.907986 
-0.0784057 0.325276 0.942363 -0.268953 0.202193 0.941691 -0.649889 0.113075 0.75157 
-0.210816 0.164119 0.96365 -0.483493 0.0435607 0.874264 0.440438 -0.837931 -0.322314 
-0.165133 -0.782727 -0.600058 0.687388 -0.699941 -0.193855 0.804847 -0.556654 -0.205809 
0.986201 -0.0538595 -0.156549 0.973286 0.207686 -0.0978859 0.844134 0.49027 0.216964 
0.744545 0.504346 0.437365 -0.796244 -0.443936 -0.410995 -0.914312 -0.309837 -0.260833 
-0.968267 -0.249791 -0.00792187 0.0977598 0.292769 0.951173 -0.305806 0.0862343 0.94818 
-0.554801 -0.0343781 0.831273 -0.31664 0.10146 0.943104 -0.23943 0.14675 0.959759 
-0.112882 0.214129 0.970261 -0.650416 -0.260039 0.71368 0.0322848 0.108744 0.993545 