# vtk DataFile Version 4.2
vtk output
ASCII
DATASET POLYDATA
POINTS 1199 float
228.374 99.631 56.218 228 101.009 54.0174 228 101.009 54.0175 
228 101.009 54.0175 228.4 99.7845 56.3018 228 101.009 54.0175 
228 101.009 54.0175 242.726 88.8761 57.1625 241.097 89.6244 56.7392 
242.533 89.1988 57.0642 243.016 88.9286 57.4227 241.654 89.9043 56.8334 
241.638 90.4962 56.9216 240.369 91.4667 56.7398 235.773 93.9182 56.3473 
232.281 95.2524 56.1557 235.477 94.5323 56.427 233.624 95.518 56.3415 
235.142 95.0464 56.5415 230.002 97.2916 56.1483 232.638 96.324 56.3487 
230.605 97.6874 56.3108 231.525 97.5877 56.5131 228.068 98.8362 56.1109 
230.22 98.5336 56.4808 224.737 100.896 56.1852 227.223 100.279 56.2415 
228 101.009 54.0175 227.41 100.491 56.3169 224.3 101.564 56.2737 
222.98 102.652 56.3487 220.666 104.464 56.4671 221.933 103.755 56.5326 
218.731 105.719 56.4869 218.321 106.26 56.5725 219.057 106.04 56.5977 
219.747 106.104 56.8708 217.232 107.229 56.7154 217.247 107.134 56.719 
217.395 107.103 56.7211 216.35 107.988 56.949 216.374 107.855 56.9379 
242.793 88.4422 57.4492 242.905 88.2959 57.6864 240.476 88.9658 56.8493 
243.077 88.5067 57.7737 242.156 89.4418 57.0112 243.057 89.1094 57.4928 
242.306 89.9577 57.1666 242.842 89.685 57.4636 241.942 90.4923 57.1495 
243.019 89.5938 57.7026 234.564 91.639 56.4441 240.115 91.843 56.8086 
239.021 92.6209 56.7638 231.156 94.6475 56.2424 236.22 94.4304 56.6132 
229.206 95.9163 56.23 226.44 98.0205 56.2027 227.895 97.7289 56.1072 
232.072 97.3754 56.5756 225.045 99.8537 56.1798 226.103 99.2783 56.1225 
230.49 98.7565 56.7449 227.25 101.124 56.6241 220.236 103.145 56.4484 
222.313 102.878 56.3984 223.643 102.638 56.5051 226.09 101.85 56.6997 
226.706 101.579 56.6658 217.738 106.567 56.683 216.797 107.394 56.8567 
215.469 107.89 57.2638 217.147 107.606 56.9574 215.348 108.325 57.3623 
214.902 108.632 57.6394 214.758 108.773 57.8028 215.503 108.756 57.4898 
215.792 108.7 57.4197 214.963 108.827 57.703 215.209 108.936 57.6937 
242.708 87.8591 57.935 243.188 88.5839 58.0857 242.627 89.8931 57.3644 
239.662 93.0903 57.8951 241.003 92.0793 57.9887 238.505 93.8445 57.5997 
235.572 95.4941 57.1193 237.09 94.8845 57.6834 229.884 99.6186 57.1817 
221.719 105.076 57.1118 214.985 105.466 57.6659 214.432 106.214 57.9643 
218.644 107.048 57.0898 220.115 106.493 57.5202 216.889 108.168 57.2726 
214.195 108.133 58.1459 217.779 108.319 57.8602 214.56 108.763 58.0083 
215.858 109.45 58.0226 238.965 85.8568 58.3036 242.094 86.2988 58.8427 
242.51 86.6599 58.9962 242.912 87.7839 58.3169 242.937 87.5495 58.8069 
242.515 90.4244 57.6906 242.656 90.6019 58.1953 239.149 93.596 58.1825 
236.649 95.2799 57.9795 237.853 94.5678 58.3694 231.758 98.3242 57.2854 
231.989 98.323 57.6724 228.876 100.487 57.2654 231.16 98.8948 57.7886 
225.955 102.43 57.2678 226.566 102.131 57.5102 226.255 102.434 57.8567 
213.679 104.376 58.731 213.239 104.909 59.1101 218.132 108.147 57.942 
218.777 107.772 58.3118 214.137 108.226 58.3022 214.594 109.078 58.3504 
216.115 109.46 58.0951 216.014 109.612 58.2547 217.007 109.035 58.3093 
214.548 109.157 58.7159 214.806 109.358 58.7332 215.684 109.667 58.35 
215.864 109.677 58.3472 215.035 109.451 58.5065 215.414 109.607 58.4935 
240.499 84.9519 59.1067 242.759 86.9372 59.3926 243.228 89.8701 58.7418 
243.257 89.8138 58.9483 242.706 90.6188 58.4195 242.591 90.7407 58.6835 
240.285 92.7355 58.6823 241.308 91.9243 58.7903 239.17 93.6066 58.6014 
239.617 93.192 58.9325 238.729 93.924 58.7497 236.688 95.2747 58.3791 
233.441 97.389 58.4503 230.425 99.4391 58.1675 226.676 102.115 58.4361 
225.46 102.973 58.2967 213.495 107.145 59.454 214.11 108.714 59.2061 
214.304 108.931 59.0346 214.2 108.822 59.2813 217.655 108.62 58.7647 
215.77 109.69 58.5491 215.132 109.483 58.9177 215.448 109.647 58.9702 
215.616 109.719 58.9136 215.769 109.705 58.962 240.194 82.5453 61.0325 
238.219 82.6621 60.4754 240.327 83.2381 60.4911 237.105 83.4291 60.0096 
242.015 84.8911 60.6395 242.345 85.3528 60.4011 242.672 86.685 59.9997 
243.202 88.577 59.6427 243.167 88.8742 59.7171 243.009 90.1723 59.1055 
240.644 92.2794 59.3305 237.807 94.2288 59.4776 235.612 95.7323 59.1854 
229.452 99.9798 58.9017 227.29 101.002 59.811 225.713 102.437 59.3841 
224.903 103.298 58.7381 221.511 105.478 59.3206 222.519 104.869 59.0026 
212.961 106.241 60.8062 214.104 108.167 59.8959 217.608 108.541 59.0605 
214.233 108.783 59.4194 214.903 109.272 59.2128 215.147 109.273 59.3534 
216.001 109.456 59.2605 239.616 81.8866 61.4512 240.927 82.9197 61.432 
242.212 85.3493 60.8845 242.666 87.7473 60.5175 242.98 88.7537 60.0555 
242.607 89.788 60.0355 242.835 90.0759 59.5366 237.086 93.76 60.7033 
234.886 95.3967 60.4321 227.851 100.26 60.2131 211.231 101.073 61.7261 
223.085 103.232 60.71 213.855 107.118 60.9415 214.722 108.088 60.4271 
216.125 108.526 60.1373 214.594 108.679 59.817 215.213 108.957 59.7429 
238.593 80.0213 62.9436 234.419 81.2766 61.9563 241.773 84.1904 61.9778 
214.459 93.9394 61.9383 211.705 96.2778 62.4437 230.026 97.023 61.7385 
222.173 102.369 61.903 211.537 103.502 62.1635 211.647 103.944 62.0744 
211.721 104.112 62.0557 211.768 104.127 61.8691 211.906 104.34 62.0686 
212.147 104.848 61.7732 212.157 104.738 62.0566 212.333 105.064 61.8506 
212.724 105.417 61.849 217.349 107.113 60.8681 215.674 107.215 61.2728 
214.809 107.554 60.93 215.433 108.591 60.1222 238.607 78.7836 64.3796 
236.605 79.0945 63.3011 238.954 79.3153 64.1114 240.309 81.1806 63.2838 
240.784 81.9335 63.1908 241.555 86.9048 62.2833 237.246 90.0475 63.3638 
209.856 97.005 63.8456 209.699 97.0987 64.0028 209.747 97.3031 64.0101 
210.542 100.505 63.3965 211.264 102.796 62.7699 211.358 103.282 62.656 
211.359 103.252 62.5727 211.457 103.407 62.5707 211.757 103.666 62.6749 
237.018 77.4318 64.9397 240.406 81.1941 63.6976 240.575 81.4914 63.3722 
209.31 95.6033 64.9338 209.484 96.1177 64.6191 209.643 97.0818 64.1082 
209.572 96.9209 64.3702 210.307 100.18 64.0022 211 101.515 63.7747 
211.418 103.216 62.7758 213.959 105.155 62.8593 238.431 77.7964 65.8549 
239.578 79.8059 64.7199 240.365 81.1894 64.0651 240.378 81.7218 64.5875 
209.153 94.5445 65.5315 209.174 95.4593 65.179 209.692 97.9797 64.8434 
211.83 102.518 63.9581 214.355 102.683 64.4588 212.266 103.348 63.5725 
239.373 79.6157 65.936 220.322 82.4001 65.9998 240.511 82.6779 64.5484 
210.529 90.1048 66.1457 209.107 92.0115 66.6212 209.104 95.382 65.4139 
209.086 95.501 65.6976 214.447 100.088 65.9394 240.042 83.2077 65.0487 
208.316 91.8492 67.8136 210.058 98.3105 66.1308 211.904 101.509 64.8688 
234.341 73.6902 68.4747 208.513 93.109 67.6384 231.833 73.3985 68.799 
236.809 74.527 69.275 237.298 75.2922 68.7869 237.552 75.6454 68.8791 
237.811 76.2671 68.7024 238.048 78.4727 68.8448 208.256 86.8808 69.6439 
215.156 93.6657 69.1603 234.455 71.4918 70.9563 234.231 71.6666 70.6261 
228.939 72.7302 70.1204 237.24 74.731 69.8402 237.272 74.8876 69.8831 
237.809 77.578 69.4647 237.951 78.0964 69.2321 237.936 78.1664 69.2675 
237.747 79.2693 68.8709 207.611 85.8488 70.7906 208.64 92.1347 69.8613 
213.816 93.0327 69.9059 208.987 93.5125 69.1102 209.137 93.2437 69.561 
236.26 72.9071 71.5529 237.5 76.6637 70.1638 237.609 77.2392 69.9604 
237.846 78.0541 69.3765 207.231 84.4728 71.7778 207.01 85.3529 71.7305 
206.781 86.0374 72.0165 209.864 93.7211 69.6654 235.929 72.3113 72.1039 
236.205 72.6259 71.9208 236.25 72.6694 71.971 236.537 73.5156 71.3303 
236.244 72.7907 71.9876 236.784 75.8074 71.4516 236.833 75.957 71.4123 
236.184 76.7795 71.5962 236.791 76.0911 71.3714 237.596 77.0001 70.0579 
206.765 84.5345 72.3508 206.573 85.4467 72.4904 206.791 86.8779 72.1898 
207.782 89.0668 72.1062 234.213 70.2986 72.9242 235.117 70.9908 73.3537 
236.155 72.595 72.1045 235.996 72.6564 72.5256 206.237 82.5393 74.0003 
207.035 82.9512 72.9171 206.094 84.4487 73.4481 206.253 85.2018 73.3542 
206.794 86.9076 73.3464 208.716 90.1541 72.078 208.689 90.2888 71.89 
234.615 70.2152 74.1007 234.892 70.5798 73.9591 235.044 70.7268 73.9138 
205.787 83.1925 74.4658 205.515 83.1626 75.0783 206.057 84.5034 73.6214 
207.103 87.3132 73.5314 207.974 88.2354 73.4029 208.819 89.9732 72.2374 
209.291 89.8345 72.4521 232.698 68.0175 75.5353 233.079 68.2039 75.7007 
233.473 68.6617 75.5786 234.383 69.8857 74.8079 235.117 71.5318 74.1795 
234.949 73.7698 74.102 206.86 79.2994 75.3904 205.088 81.0457 76.359 
206.044 85.1523 74.8041 207.638 87.1181 74.4852 230.752 66.6224 76.65 
230.528 66.8854 76.2126 232.813 67.602 76.7357 233.39 68.4025 76.1927 
229.397 76.1 75.9799 208.208 77.1809 76.0794 204.882 80.7129 76.9267 
205.284 83.3278 75.9076 205.663 84.2699 75.6838 206.263 85.1205 75.7694 
230.84 66.1203 77.7089 231.62 66.6025 77.3705 233.75 69.766 76.7439 
230.737 73.9151 77.0853 204.529 81.2683 77.7733 204.622 81.9147 77.6677 
204.76 82.4052 77.4162 208.702 85.9625 76.0305 229.317 65.4812 78.251 
204.503 78.9237 78.4899 204.527 81.6516 78.4288 230.387 64.9019 79.9515 
227.72 64.7653 79.4072 231.757 66.35 79.2486 232.431 67.5155 79.2302 
232.952 69.1572 78.5697 231.589 71.7234 78.2456 204.066 78.5672 79.3291 
204.306 80.9277 78.8959 204.762 82.2093 78.3388 205.086 82.2672 79.1248 
205.827 83.3895 78.2331 230.474 64.929 80.2536 232.392 67.4385 79.5879 
232.351 67.4154 79.7254 232.152 67.9694 79.9563 232.136 69.2891 79.47 
204.538 75.4822 80.5333 203.993 78.6289 79.5401 203.915 79.5729 80.309 
204.209 80.6862 79.4673 204.581 81.2128 79.9259 231.254 65.7806 80.5758 
231.959 67.2337 80.4437 204.778 73.8446 81.7104 203.059 76.7488 81.7537 
204.081 80.183 80.344 209.559 80.9407 80.8506 204.655 80.8109 80.8385 
222.123 64.3678 82.015 231.054 65.9119 81.7133 231.629 66.6762 80.9743 
203.006 75.1447 82.6524 206.023 81.2118 81.2415 205.124 81.0865 80.9803 
205.454 81.5652 80.569 230.222 64.9814 82.7304 230.726 65.7723 82.3772 
230.754 67.0059 82.3694 205.593 71.8829 82.9223 202.486 75.7285 83.7349 
[...]
POINT_DATA 1199
SCALARS scalars float
LOOKUP_TABLE default
1 1 1 1 1 1 1 1 1 
1 1 1 1 1 1 1 1 1 
1 1 1 1 1 1 1 1 1 
1 1 1 1 1 1 1 1 1 
1 1 1 1 1 1 1 1 1 
1 1 1 1 1 1 1 1 1 
1 1 1 1 1 1 1 1 1 
1 1 1 1 1 1 1 1 1 
1 1 1 1 1 1 1 1 1 
1 1 1 1 1 1 1 1 1 
1 1 1 1 1 1 1 1 1 
1 1 1 1 1 1 1 1 1 
1 1 1 1 1 1 1 1 1 
1 1 1 1 1 1 1 1 1 
1 1 1 1 1 1 1 1 1 
1 1 1 1 1 1 1 1 1 
1 1 1 1 1 1 1 1 1 
1 1 1 1 1 1 1 1 1 
1 1 1 1 1 1 1 1 1 
1 1 1 1 1 1 1 1 1 
1 1 1 1 1 1 1 1 1 
1 1 1 1 1 1 1 1 1 
1 1 1 1 1 1 1 1 1 
1 1 1 1 1 1 1 1 1 
1 1 1 1 1 1 1 1 1 
1 1 1 1 1 1 1 1 1 
1 1 1 1 1 1 1 1 1 
1 1 1 1 1 1 1 1 1 
1 1 1 1 1 1 1 1 1 
1 1 1 1 1 1 1 1 1 
1 1 1 1 1 1 1 1 1 
1 1 1 1 1 1 1 1 1 
1 1 1 1 1 1 1 1 1 
1 1 1 1 1 1 1 1 1 
1 1 1 1 1 1 1 1 1 
1 1 1 1 1 1 1 1 1 
1 1 1 1 1 1 1 1 1 
1 1 1 1 1 1 1 1 1 
1 1 1 1 1 1 1 1 1 
1 1 1 1 1 1 1 1 1 
1 1 1 1 1 1 1 1 1 
1 1 1 1 1 1 1 1 1 
1 1 1 1 1 1 1 1 1 
1 1 1 1 1 1 1 1 1 
1 1 1 1 1 1 1 1 1 
1 1 1 1 1 1 1 1 1 
1 1 1 1 1 1 1 1 1 
1 1 1 1 1 1 1 1 1 
1 1 1 1 1 1 1 1 1 
1 1 1 1 1 1 1 1 1 
1 1 1 1 1 1 1 1 1 
1 1 1 1 1 1 1 1 1 
1 1 1 1 1 1 1 1 1 
1 1 1 1 1 1 1 1 1 
1 1 1 1 1 1 1 1 1 
1 1 1 1 1 1 1 1 1 
1 1 1 1 1 1 1 1 1 
1 1 1 1 1 1 1 1 1 
1 1 1 1 1 1 1 1 1 
1 1 1 1 1 1 1 1 1 
1 1 1 1 1 1 1 1 1 
1 1 1 1 1 1 1 1 1 
1 1 1 1 1 1 1 1 1 
1 1 1 1 1 1 1 1 1 
1 1 1 1 1 1 1 1 1 
1 1 1 1 1 1 1 1 1 
1 1 1 1 1 1 1 1 1 
1 1 1 1 1 1 1 1 1 
1 1 1 1 1 1 1 1 1 
1 1 1 1 1 1 1 1 1 
1 1 1 1 1 1 1 1 1 
1 1 1 1 1 1 1 1 1 
1 1 1 1 1 1 1 1 1 
1 1 1 1 1 1 1 1 1 
1 1 1 1 1 1 1 1 1 
1 1 1 1 1 1 1 1 1 
1 1 1 1 1 1 1 1 1 
1 1 1 1 1 1 1 1 1 
1 1 1 1 1 1 1 1 1 
1 1 1 1 1 1 1 1 1 
1 1 1 1 1 1 1 1 1 
1 1 1 1 1 1 1 1 1 
1 1 1 1 1 1 1 1 1 
1 1 1 1 1 1 1 1 1 
1 1 1 1 1 1 1 1 1 
1 1 1 1 1 1 1 1 1 
1 1 1 1 1 1 1 1 1 
1 1 1 1 1 1 1 1 1 
1 1 1 1 1 1 1 1 1 
1 1 1 1 1 1 1 1 1 
1 1 1 1 1 1 1 1 1 
1 1 1 1 1 1 1 1 1 
1 1 1 1 1 1 1 1 1 
1 1 1 1 1 1 1 1 1 
1 1 1 1 1 1 1 1 1 
1 1 1 1 1 1 1 1 1 
1 1 1 1 1 1 1 1 1 
1 1 1 1 1 1 1 1 1 
1 1 1 1 1 1 1 1 1 
1 1 1 1 1 1 1 1 1 
1 1 1 1 1 1 1 1 1 
1 1 1 1 1 1 1 1 1 
1 1 1 1 1 1 1 1 1 
1 1 1 1 1 1 1 1 1 
1 1 1 1 1 1 1 1 1 
1 1 1 1 1 1 1 1 1 
1 1 1 1 1 1 1 1 1 
1 1 1 1 1 1 1 1 1 
1 1 1 1 1 1 1 1 1 
1 1 1 1 1 1 1 1 1 
1 1 1 1 1 1 1 1 1 
1 1 1 1 1 1 1 1 1 
1 1 1 1 1 1 1 1 1 
1 1 1 1 1 1 1 1 1 
1 1 1 1 1 1 1 1 1 
1 1 1 1 1 1 1 1 1 
1 1 1 1 1 1 1 1 1 
1 1 1 1 1 1 1 1 1 
1 1 1 1 1 1 1 1 1 
1 1 1 1 1 1 1 1 1 
1 1 1 1 1 1 1 1 1 
1 1 1 1 1 1 1 1 1 
1 1 1 1 1 1 1 1 1 
1 1 1 1 1 1 1 1 1 
1 1 1 1 1 1 1 1 1 
1 1 1 1 1 1 1 1 1 
1 1 1 1 1 1 1 1 1 
1 1 1 1 1 1 1 1 1 
1 1 1 1 1 1 1 1 1 
1 1 1 1 1 1 1 1 1 
1 1 1 1 1 1 1 1 1 
1 1 1 1 1 1 1 1 1 
1 1 1 1 1 1 1 1 1 
1 1 
NORMALS Normals float
0.219067 0.394556 -0.892376 0 -0.109945 -0.993938 0 -0.994869 -0.10117 
-0.901052 -0.428574 -0.066554 0.187389 0.438296 -0.87908 0.901052 -0.428574 -0.066554 
0 0.447214 -0.894427 0.431044 -0.131252 -0.892734 0.146247 -0.0920472 -0.984956 
0.361741 0.0983753 -0.927074 0.823587 -0.164156 -0.542915 0.366265 -0.00236212 -0.930507 
0.306724 0.373811 -0.87532 0.473602 0.471626 -0.743821 0.0531511 0.100245 -0.993542 
0.0449221 -0.0516924 -0.997652 0.154043 0.32424 -0.933348 0.133338 0.0191445 -0.990886 
0.237054 0.38057 -0.893852 0.157713 0.0330153 -0.986933 0.0944071 0.196681 -0.975912 
0.263129 0.183839 -0.947083 0.295788 0.432071 -0.851953 -0.059369 0.146077 -0.98749 
0.280809 0.345951 -0.895245 0.15158 0.266489 -0.951844 0.0483447 0.169843 -0.984285 
0 -0.273806 0.961785 0.226401 0.390201 -0.89246 0.118699 0.180539 -0.976379 
0.112548 0.349993 -0.929967 0.239959 0.309989 -0.91996 0.265442 0.255368 -0.929692 
0.0196774 0.0425516 -0.9989 -0.0332793 0.269702 -0.962368 0.246304 0.294645 -0.923319 
0.361416 0.446783 -0.81839 0.0126405 0.263849 -0.964481 -0.193796 -0.0960324 -0.97633 
0.335494 0.355432 -0.872417 -0.0419942 0.329722 -0.943144 -0.381738 0.0387259 -0.923459 
0.482294 -0.499338 -0.71976 0.73831 -0.514667 -0.435908 0.112079 -0.347257 -0.931048 
0.831582 -0.373731 -0.410847 0.274182 -0.00128556 -0.961677 0.849365 0.135772 -0.510044 
0.526603 0.274206 -0.804674 0.638752 0.290474 -0.712475 0.513463 0.564208 -0.646549 
0.885019 0.354875 -0.301338 -0.0466325 -0.145518 -0.988256 0.390003 0.422793 -0.818012 
0.377719 0.448526 -0.810033 -0.0829139 -0.190696 -0.978141 0.37213 0.549897 -0.747752 
-0.0161644 -0.178951 -0.983725 -0.126731 -0.197749 -0.972026 -0.0622383 -0.0996554 -0.993074 
0.463678 0.56901 -0.679139 -0.169442 -0.134862 -0.976269 -0.131608 -0.122234 -0.983737 
0.431469 0.581133 -0.690013 0.361558 0.588367 -0.723257 -0.201737 -0.118143 -0.972288 
0.128784 0.248934 -0.95992 0.290097 0.450604 -0.844274 0.311797 0.554806 -0.771345 
0.295849 0.563424 -0.77138 -0.15686 -0.0743893 -0.984815 -0.248211 -0.0133286 -0.968614 
-0.337954 0.0431206 -0.940174 0.340071 0.525432 -0.779919 -0.368532 0.168446 -0.914227 
-0.49402 0.242383 -0.834982 -0.546663 0.57286 -0.610729 -0.106358 0.481798 -0.869804 
-0.160303 0.380401 -0.910823 -0.379916 0.574767 -0.724781 -0.309037 0.696859 -0.647213 
0.61032 -0.617013 -0.496794 0.971906 -0.154571 -0.177502 0.7054 0.482748 -0.519005 
0.611278 0.734086 -0.29573 0.620661 0.750387 -0.227376 0.530546 0.673095 -0.515232 
0.475229 0.659785 -0.582101 0.520728 0.762731 -0.383515 0.518404 0.710312 -0.476146 
0.407957 0.560119 -0.720998 -0.434898 -0.206906 -0.876387 -0.513088 -0.0505449 -0.856847 
0.307303 0.548847 -0.777388 0.506256 0.669055 -0.544124 0.372785 0.621028 -0.689461 
-0.791315 0.150192 -0.592674 0.455268 0.797772 -0.395336 -0.733061 0.342008 -0.587922 
-0.0327825 0.715268 -0.698081 -0.00516522 -0.498313 -0.866982 0.537107 -0.573253 -0.618787 
0.812367 -0.480152 -0.330928 0.83261 -0.475709 -0.283657 0.826409 -0.467497 -0.313839 
0.689493 0.518209 -0.506022 0.621298 0.716603 -0.316969 0.587564 0.768767 -0.252517 
0.499062 0.830949 -0.24589 0.567241 0.822791 -0.035393 0.508615 0.690722 -0.514017 
0.561289 0.73313 -0.384026 0.584141 0.666703 -0.46291 0.580683 0.803146 -0.133279 
0.493233 0.806062 -0.327086 0.525962 0.79702 -0.296855 0.539753 0.841187 -0.0327286 
-0.452839 -0.296894 -0.840709 -0.802231 0.0522008 -0.594728 0.47393 0.76339 -0.438892 
0.583991 0.811397 -0.0242934 -0.839504 0.365331 -0.402201 -0.647441 0.662464 -0.376778 
0.184488 0.696665 -0.69327 0.343989 0.91368 -0.216473 0.498663 0.84168 -0.20715 
-0.654682 0.75589 -0.00466651 -0.535563 0.844478 0.00528318 -0.207096 0.909988 -0.359211 
-0.00121389 0.887291 -0.461209 -0.430109 0.859548 -0.276013 -0.348127 0.912069 -0.21665 
0.216817 -0.561633 -0.798473 0.941233 -0.337311 0.0173924 0.885388 0.431417 -0.173108 
0.958497 0.22712 0.172334 0.737857 0.665687 -0.111478 0.687666 0.714574 0.128449 
0.61502 0.787501 0.0399121 0.629837 0.776158 0.0297294 0.640237 0.756458 0.133669 
0.603363 0.795287 0.0589228 0.609444 0.791319 0.048903 0.491515 0.824146 0.281418 
0.540592 0.81928 0.191155 0.616909 0.785661 0.0464685 0.601529 0.779058 0.176725 
0.488639 0.864388 -0.118595 -0.942278 0.273943 -0.192527 -0.8735 0.480696 0.0769959 
-0.740726 0.666906 -0.0809951 -0.492072 0.78535 0.375621 0.544186 0.821452 0.170524 
0.0631863 0.997583 -0.0288935 -0.411402 0.901531 0.134131 -0.264741 0.840649 0.472463 
-0.23482 0.970737 0.0502963 0.257894 0.928514 0.267117 0.395377 -0.663407 -0.63527 
-0.0506724 -0.746784 -0.663133 0.344583 -0.600632 -0.721459 -0.150954 -0.656833 -0.738772 
0.782333 -0.568628 -0.254199 0.929857 -0.366608 -0.0310577 0.954875 -0.251842 0.157445 
0.975187 -0.140064 0.171444 0.871316 0.192476 0.4514 0.784276 0.580711 0.21837 
0.594673 0.722175 0.353309 0.520594 0.713847 0.468406 0.520715 0.801026 0.295319 
0.582188 0.783837 0.216001 0.357989 0.482229 0.799562 0.541151 0.737633 0.403798 
0.508147 0.847926 0.151022 0.554327 0.661748 0.504789 0.510978 0.734248 0.446969 
-0.816336 0.507413 0.275913 -0.694974 0.566745 0.442507 0.5221 0.782323 0.33968 
-0.603954 0.670824 0.430389 -0.467743 0.822005 0.324845 -0.281052 0.769791 0.573089 
0.156445 0.757206 0.634164 0.255611 -0.825308 -0.503517 0.70799 -0.600302 -0.372006 
0.957935 -0.176987 0.225912 0.916351 -0.127768 0.379442 0.769146 0.151996 0.620735 
0.601362 0.428727 0.674209 0.721851 0.508758 0.469144 0.470227 0.668026 0.576738 
0.412039 0.656869 0.631464 0.400812 0.668424 0.626545 -0.859201 0.0189607 -0.511287 
0.419742 0.684236 0.596354 -0.400621 0.615491 0.678729 -0.208295 0.646239 0.734158 
0.108236 0.64901 0.753041 -0.301628 0.742399 0.598218 -0.157161 0.738935 0.655191 
0.368236 -0.657455 -0.657385 -0.201798 -0.543206 -0.814988 0.953913 -0.208985 0.21535 
-0.32866 -0.40974 -0.850938 -0.602269 -0.311542 -0.734993 0.227641 0.546316 0.806051 
0.391034 0.478906 0.785965 -0.942386 0.317525 -0.105297 -0.935066 0.335821 0.113469 
-0.828624 0.483802 0.281634 -0.906925 0.351649 -0.232014 -0.773087 0.565329 0.287644 
-0.808153 0.585509 0.0637862 -0.647218 0.590798 0.481734 -0.714299 0.687885 0.128809 
-0.575151 0.737548 0.353871 0.354897 0.560822 0.748016 0.0057808 0.598842 0.800846 
-0.164544 0.589702 0.790681 -0.0768651 0.647709 0.758 0.46097 -0.695064 -0.551718 
0.0697572 -0.663262 -0.745129 0.704839 -0.570844 -0.421116 0.656067 -0.696227 -0.291282 
0.910211 -0.413446 -0.0240336 0.836851 0.101999 0.537844 0.45764 0.467079 0.756573 
-0.76247 -0.191713 -0.617969 -0.807783 -0.022213 -0.589061 -0.897969 0.221109 -0.380478 
-0.959074 0.234219 -0.159117 -0.965984 0.250869 0.0627734 -0.843534 0.47723 0.246377 
-0.92812 0.325315 -0.181005 -0.72465 0.666115 0.176558 -0.707982 0.586668 0.39317 
0.232952 -0.753914 -0.614286 0.667127 -0.74457 -0.0236037 0.860991 -0.499622 -0.095254 
-0.896688 0.105138 -0.429997 -0.904414 -0.0299838 -0.4256 -0.921274 -0.0717423 -0.382241 
-0.966128 0.0548947 -0.252158 -0.958899 0.274277 -0.0726982 -0.82396 0.461643 0.328597 
-0.689366 0.525235 0.498901 -0.249282 0.596135 0.763204 0.755833 -0.612132 -0.232401 
0.850744 -0.514002 -0.109712 0.875416 -0.463487 0.137213 0.900316 -0.194631 0.389295 
-0.893933 -0.150983 -0.422005 -0.863323 -0.0795497 -0.498342 -0.971951 0.2115 -0.102857 
-0.521125 0.537259 0.66316 0.229999 0.372242 0.899186 -0.529915 0.578041 0.620531 
0.932548 -0.179006 0.313547 -0.306426 -0.544819 -0.780561 0.908122 -0.0833333 0.41033 
-0.546807 -0.434347 -0.715783 -0.728546 -0.253166 -0.636497 -0.957438 0.249398 -0.145307 
-0.976458 0.203875 -0.0704591 -0.0652753 0.535859 0.841781 0.840698 0.00111624 0.541503 
-0.849941 -0.133805 -0.509604 -0.731379 0.472231 0.49202 -0.399569 0.539852 0.740881 
0.13304 -0.678107 -0.722822 -0.976935 0.175161 -0.122133 -0.20699 -0.715316 -0.667441 
0.694685 -0.592178 -0.408335 0.685839 -0.632854 -0.359335 0.922642 -0.383054 -0.0447367 
0.948618 -0.305531 0.0823056 0.95115 0.0238448 0.307808 -0.5826 -0.400547 -0.707205 
0.331066 0.511965 0.792646 0.190345 -0.800621 -0.568133 0.274084 -0.778397 -0.56478 
-0.21232 -0.701939 -0.679854 0.903465 -0.357308 -0.236818 0.957937 -0.268904 0.100233 
0.948192 -0.0590603 0.312159 0.925005 -0.0730882 0.372859 0.845602 0.0979437 0.524752 
0.85037 0.144916 0.505837 -0.596663 -0.332763 -0.730247 -0.755385 0.469834 0.456783 
0.0512925 0.582185 0.811436 -0.722445 0.517782 0.458231 -0.551225 0.518057 0.65404 
0.847234 -0.486921 -0.212372 0.713825 0.183998 0.675721 0.675063 0.20673 0.708204 
0.827874 0.0167672 0.560663 -0.661001 -0.326114 -0.675816 -0.794689 -0.0691096 -0.60307 
-0.879435 0.0887535 -0.467672 -0.446796 0.588919 0.67346 0.744902 -0.636689 -0.199368 
0.716096 -0.680591 -0.154926 0.927111 -0.358639 0.108826 0.927734 -0.364943 0.078267 
0.940746 -0.0922869 0.326313 0.760794 0.049258 0.647121 0.719099 0.0894047 0.689132 
0.612425 0.311218 0.72669 0.498694 0.347813 0.793934 0.881964 -0.0497563 0.468683 
-0.834496 -0.150865 -0.529958 -0.915053 0.0571985 -0.399258 -0.944985 0.201308 -0.257834 
-0.67244 0.522901 0.523831 0.616986 -0.732337 -0.288117 0.822209 -0.560206 -0.100703 
0.829599 -0.464693 0.309557 0.903796 -0.219579 0.367339 -0.751881 -0.372139 -0.544231 
-0.539643 -0.442895 -0.715981 -0.897414 -0.08205 -0.433493 -0.932643 0.218762 -0.286916 
-0.824959 0.528859 0.199378 -0.217975 0.688438 0.691766 -0.224559 0.677598 0.70031 
0.676681 -0.713047 -0.183486 0.814386 -0.573939 0.0858397 0.856213 -0.458135 0.238771 
-0.921333 -0.0212316 -0.388194 -0.922583 0.0413347 -0.383577 -0.966703 0.0743812 -0.244851 
-0.757459 0.593073 0.272985 -0.458347 0.696707 0.551831 -0.0930662 0.596757 0.797007 
-0.155567 0.576226 0.802348 0.491375 -0.767919 -0.410915 0.641877 -0.696144 -0.321526 
0.789615 -0.58414 -0.187852 0.76277 -0.643845 -0.0603793 0.890889 -0.158911 0.425517 
0.726086 0.261438 0.635963 -0.636817 -0.477602 -0.605277 -0.852228 -0.238941 -0.465418 
-0.907804 0.419383 -0.00306605 -0.525558 0.653892 0.544255 0.205187 -0.831864 -0.515656 
0.0522597 -0.802091 -0.594911 0.698339 -0.703362 -0.132683 0.884695 -0.463865 0.0463128 
0.333994 0.566189 0.753577 -0.460694 -0.570366 -0.680032 -0.757126 -0.378879 -0.532175 
-0.946715 0.31626 -0.0609101 -0.937095 0.347143 -0.0366618 -0.669378 0.633395 0.388258 
0.280492 -0.898826 -0.336803 0.457414 -0.810243 -0.36644 0.904279 0.0309917 0.425816 
0.490436 0.513659 0.704008 -0.963918 0.00975485 -0.266021 -0.968445 0.153663 -0.196217 
-0.924089 0.381946 -0.013312 -0.0336034 0.697526 0.715771 0.168345 -0.901531 -0.398625 
-0.869984 -0.141065 -0.47247 -0.94107 0.326864 0.086878 0.486469 -0.839504 -0.242033 
-0.196447 -0.737128 -0.646568 0.756642 -0.653408 -0.0234872 0.967808 -0.112359 0.225218 
0.894525 0.0402239 0.445205 0.504934 0.554016 0.661897 -0.905733 -0.121879 -0.405947 
-0.950404 0.310495 0.0180146 -0.838342 0.518238 0.169151 -0.652237 0.627979 0.424535 
-0.441363 0.733143 0.517397 0.713512 -0.698273 0.0575788 0.8022 -0.580371 0.140162 
0.92967 0.140461 0.340566 0.840539 0.156507 0.518652 0.699965 0.406855 0.586956 
-0.668753 -0.447729 -0.593555 -0.939614 -0.0189381 -0.341713 -0.955612 0.294596 0.00442242 
-0.978741 0.195039 -0.063442 -0.82314 0.541117 0.172143 0.799314 -0.596168 0.075366 
0.846359 -0.206678 0.490877 -0.456041 -0.536647 -0.709955 -0.902567 -0.116342 -0.414533 
-0.913489 0.352954 0.202389 0.291978 0.726378 0.622193 -0.6647 0.52653 0.530038 
-0.271132 -0.810071 -0.519877 0.872493 -0.304969 0.381771 0.887694 -0.196221 0.416529 
-0.752104 -0.402439 -0.521903 -0.158078 0.73808 0.655934 -0.41211 0.532814 0.739104 
-0.334888 0.786861 0.518363 0.83691 -0.448084 0.31433 0.856153 -0.416297 0.306102 
0.788709 0.265912 0.554283 -0.443681 -0.631678 -0.635712 -0.941198 -0.0868664 -0.326496 
-0.00479882 -0.933568 -0.358367 0.532124 -0.845196 0.0498747 0.796817 -0.559086 0.229142 
0.862141 -0.0894968 0.498702 0.821959 0.0753837 0.564536 0.706536 0.387779 0.591975 
-0.963993 -0.0473256 -0.261682 -0.971495 0.233983 0.0380697 0.175194 -0.982236 -0.0672238 
-0.108628 -0.95884 -0.262346 -0.317576 -0.884982 -0.340519 0.729007 -0.631774 0.26346 
-0.279034 -0.918697 -0.27953 -0.408366 -0.690106 -0.597487 0.84732 -0.313336 0.4288 
0.545127 0.59164 0.593968 -0.641572 -0.587559 -0.493112 -0.926785 -0.255096 -0.275671 
-0.799951 -0.319138 -0.508163 -0.959349 -0.1443 -0.242543 -0.64938 0.686367 0.327424 
0.127953 -0.988351 0.082401 0.418134 -0.83305 0.362204 -0.117519 -0.992256 -0.0402188 
0.380791 -0.89721 0.223635 -0.342623 -0.789556 -0.509128 -0.511564 -0.795738 -0.324197 
-0.976448 0.215357 0.0130612 -0.704623 0.66159 0.256525 -0.21753 0.848151 0.483033 
-0.151146 -0.947417 0.282055 0.032726 -0.971475 0.234875 0.233325 -0.871137 0.432064 
-0.226903 -0.972554 -0.0515092 0.248537 -0.919828 0.303557 -0.24599 -0.967178 -0.0636801 
0.81502 -0.0459506 0.577608 0.727314 -0.214929 0.651783 -0.302027 -0.941244 -0.151128 
-0.646894 -0.736725 -0.196885 -0.947746 -0.28678 -0.139767 -0.992799 0.0795795 0.0895405 
-0.694639 0.663066 0.278964 -0.166846 0.848432 0.502321 0.0931488 -0.872881 0.478959 
-0.134714 -0.953088 0.271062 -0.0114755 -0.7197 0.694191 0.346575 -0.805668 0.480401 
-0.010587 -0.80759 0.589649 0.250683 -0.565242 0.785913 0.525843 -0.650782 0.547697 
-0.326336 -0.945238 -0.00550661 0.667785 -0.548355 0.503358 -0.433761 -0.899934 -0.044389 
-0.438405 -0.8986 0.0178844 0.476789 0.575406 0.664515 -0.591949 -0.787136 0.173242 
-0.545026 -0.822781 0.16118 -0.701249 -0.679823 -0.214688 -0.748452 -0.625771 -0.219614 
-0.970171 -0.149238 0.19104 -0.944943 0.267653 0.188267 -0.851098 0.447057 0.275268 
-0.853575 0.463022 0.23879 -0.765428 0.403359 0.501419 -0.535967 0.653033 0.535058 
-0.247615 0.865177 0.436069 -0.0963942 -0.913264 0.395798 0.0091131 -0.898064 0.439771 
-0.427658 -0.776027 0.463562 -0.212219 -0.96522 0.152688 -0.129616 -0.901208 0.413549 
-0.048997 -0.824032 0.564421 0.464682 -0.668534 0.580632 0.583234 -0.259887 0.769608 
-0.408846 -0.879407 0.243901 0.64395 0.196022 0.73953 -0.431163 -0.899106 0.0755416 
0.57471 0.27043 0.772383 -0.461687 -0.857289 0.227817 -0.625058 -0.704186 0.336786 
-0.683807 -0.725137 -0.0811448 -0.852845 -0.429652 0.296739 -0.526492 -0.845826 0.0859305 
0.350947 0.65331 0.670837 -0.905101 0.0606351 0.42085 -0.986782 0.108774 0.120119 
-0.811797 0.0835154 0.577936 -0.751933 0.42636 0.502807 -0.657208 0.567533 0.495968 
-0.470176 0.591026 0.655456 -0.0535376 0.782434 0.620428 -0.171825 -0.746477 0.642844 
-0.0418948 -0.803874 0.593322 -0.0423966 -0.709916 0.703009 -0.0633994 -0.743118 0.66615 
0.0666198 -0.733905 0.675978 -0.234811 -0.895007 0.379243 -0.29299 -0.833653 0.468166 
0.0469618 -0.543862 0.83786 0.18229 -0.516755 0.836502 0.510017 -0.298224 0.806812 
-0.308136 -0.882358 0.355665 -0.241685 -0.882861 0.402672 0.123098 -0.427565 0.895564 
0.29947 -0.10999 0.947745 0.587736 0.0424296 0.807939 0.37658 0.422133 0.824616 
0.387139 0.0108768 0.921957 -0.410761 -0.846656 0.338303 -0.384958 -0.694849 0.607448 
0.369405 0.288422 0.883376 -0.454786 -0.739938 0.495642 -0.631227 -0.462681 0.622478 
-0.515117 -0.59399 0.617925 -0.759438 -0.169636 0.628074 -0.808533 -0.121708 0.575726 
0.199915 0.619157 0.759394 -0.629973 -0.0683529 0.773603 -0.717704 0.131818 0.683758 
-0.886567 -0.0455902 0.460348 -0.460846 0.410425 0.786875 -0.737731 0.356623 0.573212 
-0.540404 0.442286 0.715784 0.0734835 0.728835 0.680734 -0.206086 -0.677767 0.705805 
-0.102123 -0.709101 0.697673 -0.390671 -0.664432 0.637108 -0.129175 -0.583306 0.801915 
0.184825 -0.161384 0.96943 0.327066 0.104273 0.939231 0.331423 0.190801 0.923988 
-0.364951 -0.670957 0.645467 -0.338842 -0.603798 0.721536 -0.148711 -0.523406 0.839006 
-0.470111 -0.581202 0.664229 -0.294017 -0.435365 0.850888 -0.613148 -0.224007 0.757543 
-0.473734 0.326944 0.817731 -0.553265 0.11144 0.825517 -0.535073 0.345415 0.770964 
-0.196911 0.58663 0.785552 -0.552725 0.442577 0.706131 -0.435321 0.607146 0.664732 
-0.333102 0.464201 0.820707 -0.1876 -0.519369 0.833704 0.0244965 -0.470631 0.88199 
-0.0918584 -0.544669 0.833605 -0.0715627 -0.347241 0.935041 0.220462 -0.118609 0.968157 
0.409659 0.180786 0.894145 0.337095 0.426864 0.839139 -0.334529 -0.424376 0.841424 
-0.0697207 -0.283642 0.956392 0.406442 0.53871 0.737968 -0.0949792 -0.278009 0.955871 
-0.28569 -0.237822 0.928344 0.20457 0.455352 0.866491 -0.437709 0.0369665 0.898356 
0.144905 0.457695 0.877221 0.209016 0.549483 0.808938 0.238268 0.0231374 0.970924 
-0.0339449 -0.140611 0.989483 0.242334 0.103705 0.964634 0.0293656 0.0280908 0.999174 
0.23026 0.152731 0.961069 0.177501 0.407092 0.895974 0.104332 0.418912 0.902013 
-0.127895 -0.00758841 0.991759 0.0615824 -0.0624103 0.996149 0.122343 0.191604 0.973817 
0.109003 0.389143 0.914705 -0.22273 0.0546981 0.973344 0.0485962 0.215666 0.975257 
0.120275 -0.0718719 0.990136 -0.136066 -0.0196449 0.990505 0.065362 0.334558 0.940106 
0.113156 0.219238 0.969087 0.022915 0.242061 0.96999 -0.109576 0.446332 0.888134 
0.140412 0.198581 -0.969974 0.131421 0.209194 -0.969003 0.106839 0.416665 -0.90276 
0.0497746 0.35045 -0.935258 0.0383601 -0.251753 -0.967031 0.218752 0.228836 -0.948568 