# vtk DataFile Version 4.2
vtk output
ASCII
DATASET POLYDATA
POINTS 1690 float
204.829 57.8853 98.3743 204.83 57.7862 98.3926 204.51 57.9855 98.4413 
206.794 56.8881 98.4008 204.928 57.9672 98.4058 215.335 52.2321 99.4827 
212.925 53.646 99.0806 212.587 54.0953 98.9764 210.106 55.4326 98.7005 
212.231 54.782 98.9598 204.936 57.4758 98.4933 211.371 55.3988 98.9479 
202.074 58.3438 98.827 208.048 56.956 98.5961 209.315 56.4384 98.7257 
199.259 59.7053 98.9611 204.474 58.3455 98.4968 205.185 58.1016 98.489 
206.058 58.091 98.7221 205.548 58.4106 98.8452 197.838 60.6155 99.0466 
198.405 60.555 98.9733 200.744 60.072 98.7868 202.033 59.7945 98.8882 
220.786 50.0937 100.344 217.673 51.1916 99.9528 218.458 51.1788 100.019 
219.315 50.8619 100.122 220.383 50.5255 100.261 214.356 52.6293 99.4279 
216.002 52.2475 99.6066 219.567 51.2057 100.263 218.334 51.9115 100.217 
213.712 53.9666 99.2133 216.049 53.0019 99.7443 205.925 55.8511 99.0081 
213.279 54.7293 99.4091 213.955 54.4935 99.6893 212.933 55.1128 99.578 
213.432 54.898 99.786 208.902 56.8025 98.769 210.988 56.0422 99.4415 
212.459 55.4171 99.6715 209.697 56.6738 99.1166 208.807 57.2133 99.2341 
199.952 60.5222 98.9625 192.748 61.9213 100.26 195.841 61.5798 99.5485 
199.745 60.714 99.1276 201.636 60.0794 99.0538 193.954 62.1604 99.8929 
195.303 62.001 99.6684 196.362 61.7321 99.5644 197.984 61.2996 99.3318 
200.548 60.5842 99.3952 193.493 62.5892 100.028 219.858 49.6534 100.441 
221.21 49.6129 100.488 221.635 49.1228 100.738 222.157 49.4382 100.77 
216.823 50.5254 100.312 220.253 50.8221 100.31 221.358 50.0549 100.527 
213.169 52.2197 99.8603 220.63 50.8214 100.517 221.641 50.7305 101.131 
215.64 53.3796 99.7468 216.908 52.8855 100.326 219.901 51.3949 100.504 
215.839 53.5533 100.204 210.188 56.5869 99.9895 211.018 56.1691 99.9121 
193.513 61.0237 100.324 202.598 59.8836 100.385 191.772 61.9496 100.596 
189.04 63.6655 100.882 194.592 62.531 99.9292 195.921 62.3613 100.256 
196.959 61.9402 99.985 187.104 64.4534 101.14 187.774 64.4272 101.03 
190.071 64.0357 100.793 190.598 63.9566 100.773 191.45 63.6601 100.65 
192.97 63.4184 100.604 193.522 63.1095 100.298 195.023 62.7276 100.22 
189.524 64.2964 100.918 193.849 63.1246 100.337 224.296 47.5348 101.64 
221.018 48.9373 100.847 214.136 54.6109 100.884 215.594 53.7743 100.55 
212.707 55.3391 101.009 210.245 56.5379 100.636 206.18 58.4674 100.357 
194.908 59.6554 100.603 197.81 61.7443 100.331 185.234 65.1229 101.496 
185.819 64.2272 101.595 190.031 64.2796 100.953 192.594 63.6831 100.942 
185.842 65.2992 101.362 187.451 65.0043 101.162 181.155 66.8541 102.311 
180.957 66.9816 102.376 183.774 65.964 101.824 186.033 65.5847 101.41 
189.916 64.6794 101.496 232.166 44.0684 103.201 232.198 43.9816 103.243 
232.285 44.0175 103.259 229.405 45.4917 102.714 232.083 44.2026 103.211 
231.111 45.1423 102.976 230.488 45.7394 102.889 220.483 48.5947 101.216 
227.024 47.5389 102.261 230.026 46.4599 103.104 225.241 48.4482 101.877 
227.596 47.591 102.584 226.341 48.3782 102.705 224.833 49.093 102.409 
221.081 51.1142 101.842 200.244 56.2214 101.444 211.54 55.9366 100.774 
197.675 61.7885 101.142 185.687 63.9078 101.831 194.479 63.0537 101.078 
184.295 64.9569 101.831 182.165 66.2351 102.21 189.159 65.0046 101.966 
180.443 67.0781 102.517 180.56 66.7368 102.525 186.167 65.7511 101.507 
185.997 65.9879 101.758 186.754 65.791 101.765 175.359 68.9094 103.401 
180 67.649 102.797 182.084 67.1986 102.57 173.863 69.8967 103.563 
234.823 42.2045 104.284 232.243 43.7704 103.415 228.659 44.5531 103.293 
232.661 44.0541 103.382 233.85 43.7432 103.665 234.707 43.5504 103.831 
233.525 44.5653 103.73 232.195 45.3683 103.583 219.595 48.1307 101.943 
231.796 45.7041 103.679 228.209 47.5777 103.039 223.214 50.0227 102.371 
220.879 51.1465 102.715 211.486 55.3878 102.789 185.173 63.4669 102.463 
192.723 63.4867 102.857 183.647 64.7872 102.197 176.976 67.9498 103.322 
180.962 67.6239 102.873 182.287 67.3134 102.84 174.011 69.2933 103.762 
174.68 69.5012 103.558 170.94 71.0454 104.025 170.565 71.4742 103.887 
171.802 70.5615 103.973 175.196 69.719 103.684 170.401 71.822 103.787 
169.986 71.819 103.876 171.517 71.3853 103.797 173.052 70.9152 103.938 
176.13 69.6084 103.889 168.947 72.6779 103.632 168.382 73.1269 103.586 
168.287 73.2598 103.574 168.529 73.0064 103.584 169.072 72.9269 103.611 
170.16 72.3769 103.874 168.243 73.3493 103.499 168.216 73.3726 103.524 
168.201 73.4027 103.493 168.308 73.3297 103.488 168.63 73.2052 103.536 
168.829 73.1028 103.575 168.24 73.3978 103.493 168.454 73.3315 103.53 
238.46 40.8953 104.894 240.057 40.417 105.247 239.212 41.6429 104.834 
236.619 43.4804 104.517 236.308 43.8337 104.717 233.542 45.1107 104.463 
235.166 44.4048 104.589 218.901 47.8802 102.547 229.443 47.1112 103.823 
227.032 48.2463 103.538 200.407 60.0241 103.346 187.284 65.6257 103.355 
172.106 70.004 104.194 179.085 68.543 103.983 181.546 67.6879 103.574 
170.076 71.5418 104.052 176.562 69.5163 104.061 173.728 70.7726 104.143 
168.48 72.9462 103.752 168.648 72.7615 103.794 168.343 73.1846 103.712 
168.219 73.4058 103.52 168.274 73.3396 103.613 169.134 73.0514 103.874 
168.305 73.4085 103.553 168.351 73.4651 103.623 168.431 73.4507 103.63 
241.38 39.8666 105.69 238.985 40.1113 105.381 241.94 39.8473 105.831 
232.524 42.36 104.437 238.897 42.0611 104.801 241.017 40.9552 105.471 
238.217 42.4694 104.673 238.68 42.4793 104.899 238.573 42.7408 105.07 
237.111 43.4106 104.76 238.182 43.0681 105.218 235.656 44.2534 104.816 
232.08 45.8665 104.616 214.47 48.6113 103.855 226.703 48.2752 104.686 
183.454 63.3191 103.678 180.578 64.8591 103.814 181.178 67.7729 104.872 
173.432 68.8789 104.311 171.316 70.1053 104.669 169.7 71.6684 104.247 
176.351 69.7089 104.822 169.092 72.2599 104.137 172.494 71.4052 104.282 
172.174 71.5724 104.415 168.756 72.9351 104.25 170.75 72.1775 104.512 
168.341 73.3832 103.682 168.476 73.2923 103.848 168.392 73.4397 103.708 
168.346 73.4994 103.65 168.621 73.3025 103.859 168.428 73.4552 103.706 
168.738 73.1935 104.024 168.38 73.4896 103.651 247.064 37.198 107.322 
241.648 38.8412 106.294 243.795 38.0937 106.88 244.905 38.3531 106.848 
245.387 38.4309 106.948 242.057 40.1899 105.862 245.198 38.9736 106.984 
242.402 40.4897 106.144 244.558 39.4647 106.848 240.055 41.7632 105.305 
242.959 40.5209 106.625 240.358 41.8984 105.697 241.104 41.53 105.957 
241.657 41.3265 106.315 241.161 41.6463 106.22 239.722 42.4548 106.057 
234.427 44.8933 105.29 184.614 61.8402 104.833 179.291 64.5052 105.112 
185.762 65.96 104.712 172.685 68.7101 105.127 178.662 68.7581 105.132 
171.265 69.7764 105.191 169.831 71.3389 104.789 169.272 72.0454 104.524 
168.977 72.5507 104.486 168.884 72.8321 104.562 168.88 72.8206 104.47 
168.879 72.8784 104.531 168.873 72.8674 104.581 168.982 72.8898 104.409 
168.945 72.8405 104.579 168.874 73.0814 104.152 168.362 73.4964 103.667 
168.871 72.8838 104.573 245.79 37.4091 107.287 240.984 38.5544 106.564 
246.69 38.2387 107.336 247.984 37.9043 107.777 244.358 39.7312 106.912 
242.318 41.0135 106.661 240.839 41.8827 106.458 228.876 47.2637 105.23 
172.083 68.6318 106.111 171.111 69.5365 106.15 170.686 70.1704 105.533 
170.366 70.5207 105.69 176.469 69.4451 106.131 172.042 71.2833 105.722 
168.97 72.7689 104.631 169.19 72.4943 104.776 168.89 72.8613 104.594 
169.232 72.6245 104.722 254.327 34.2654 109.552 254.067 34.3108 109.517 
250.337 35.3524 108.577 250.137 35.7435 108.356 251.981 35.6513 108.681 
251.852 35.7089 108.645 252.115 35.5476 108.78 249.374 36.9373 108.017 
251.297 36.192 108.472 251.254 36.1472 108.467 251.979 35.713 108.733 
251.425 36.1002 108.547 251.263 36.248 108.544 237.398 38.9285 107.09 
247.294 38.511 107.811 231.05 41.0848 106.803 243.004 40.7574 107.248 
221.255 49.8081 106.544 172.971 67.6207 106.742 172.156 68.2891 106.936 
170.707 70.0092 106.345 171.447 69.0978 106.663 170.531 70.2293 106.26 
170.44 70.3185 106.156 169.937 71.2385 105.407 170.393 70.4249 106.035 
170.348 70.6617 105.995 170.19 71.1941 105.818 173.014 70.6153 106.533 
169.991 71.6721 105.548 169.986 71.9106 105.41 254.284 33.9013 109.725 
250.02 34.7955 108.999 252.827 34.0457 109.55 252.02 35.2776 108.871 
252.854 34.8972 109.174 253.678 34.7709 109.417 251.474 35.8369 108.592 
252.602 35.4573 109.069 250.811 36.3293 108.419 251.747 36.036 108.798 
243.328 40.5788 108.098 184.642 59.8569 108.22 173.15 67.207 107.558 
172.808 67.5402 107.428 171.683 68.8369 107.189 170.962 69.7661 106.656 
170.456 70.3681 106.191 170.702 70.1981 106.457 174.765 69.7104 107.127 
170.526 70.9847 106.183 170.721 71.0053 106.281 171.503 70.7354 106.65 
257.714 32.7777 110.888 258.07 32.8821 110.989 248.735 34.1871 109.979 
252.086 33.8601 109.717 257.215 33.4722 110.704 256.34 34.0535 110.448 
235.672 38.2149 109.391 252.875 36.0664 109.942 245.699 39.3953 109.119 
239.873 41.821 109.132 172.512 67.8609 107.848 171.226 69.6652 107.023 
173.065 69.7247 107.828 260.274 31.4176 111.902 247.03 34.3545 110.353 
258.54 33.0896 111.289 241.556 36.2829 109.799 256.481 34.4865 111.041 
256.911 34.3912 111.31 177.425 63.3665 109.643 173.11 67.4098 108.951 
173.474 68.9731 108.595 262.55 30.2345 113.155 262.94 30.4886 113.148 
260.814 31.41 112.188 262.832 30.7992 113.037 262.212 31.3373 112.8 
262.632 31.0988 112.957 259.185 32.7136 111.573 260.87 32.4373 112.709 
261.596 32.1202 113.049 242.876 35.3983 110.978 257.598 34.2039 112.208 
238.762 36.7505 110.913 230.258 39.6433 110.279 239.827 40.8843 111.319 
174.52 65.724 109.993 173.491 67.1008 109.428 172.788 68.2207 108.741 
173.717 67.5997 109.637 174.408 68.3918 109.197 261.765 30.0493 113.132 
263.332 30.5578 113.314 262.598 31.3498 113.06 263.684 30.9563 113.652 
259.653 33.2551 112.94 227.627 39.8707 111.981 187.043 62.0637 112.011 
175.885 64.5052 111.122 174.69 65.6015 110.365 181.52 65.0115 110.897 
[...]
POINT_DATA 1690
SCALARS scalars float
LOOKUP_TABLE default
1 1 1 1 1 1 1 1 1 
1 1 1 1 1 1 1 1 1 
1 1 1 1 1 1 1 1 1 
1 1 1 1 1 1 1 1 1 
1 1 1 1 1 1 1 1 1 
1 1 1 1 1 1 1 1 1 
1 1 1 1 1 1 1 1 1 
1 1 1 1 1 1 1 1 1 
1 1 1 1 1 1 1 1 1 
1 1 1 1 1 1 1 1 1 
1 1 1 1 1 1 1 1 1 
1 1 1 1 1 1 1 1 1 
1 1 1 1 1 1 1 1 1 
1 1 1 1 1 1 1 1 1 
1 1 1 1 1 1 1 1 1 
1 1 1 1 1 1 1 1 1 
1 1 1 1 1 1 1 1 1 
1 1 1 1 1 1 1 1 1 
1 1 1 1 1 1 1 1 1 
1 1 1 1 1 1 1 1 1 
1 1 1 1 1 1 1 1 1 
1 1 1 1 1 1 1 1 1 
1 1 1 1 1 1 1 1 1 
1 1 1 1 1 1 1 1 1 
1 1 1 1 1 1 1 1 1 
1 1 1 1 1 1 1 1 1 
1 1 1 1 1 1 1 1 1 
1 1 1 1 1 1 1 1 1 
1 1 1 1 1 1 1 1 1 
1 1 1 1 1 1 1 1 1 
1 1 1 1 1 1 1 1 1 
1 1 1 1 1 1 1 1 1 
1 1 1 1 1 1 1 1 1 
1 1 1 1 1 1 1 1 1 
1 1 1 1 1 1 1 1 1 
1 1 1 1 1 1 1 1 1 
1 1 1 1 1 1 1 1 1 
1 1 1 1 1 1 1 1 1 
1 1 1 1 1 1 1 1 1 
1 1 1 1 1 1 1 1 1 
1 1 1 1 1 1 1 1 1 
1 1 1 1 1 1 1 1 1 
1 1 1 1 1 1 1 1 1 
1 1 1 1 1 1 1 1 1 
1 1 1 1 1 1 1 1 1 
1 1 1 1 1 1 1 1 1 
1 1 1 1 1 1 1 1 1 
1 1 1 1 1 1 1 1 1 
1 1 1 1 1 1 1 1 1 
1 1 1 1 1 1 1 1 1 
1 1 1 1 1 1 1 1 1 
1 1 1 1 1 1 1 1 1 
1 1 1 1 1 1 1 1 1 
1 1 1 1 1 1 1 1 1 
1 1 1 1 1 1 1 1 1 
1 1 1 1 1 1 1 1 1 
1 1 1 1 1 1 1 1 1 
1 1 1 1 1 1 1 1 1 
1 1 1 1 1 1 1 1 1 
1 1 1 1 1 1 1 1 1 
1 1 1 1 1 1 1 1 1 
1 1 1 1 1 1 1 1 1 
1 1 1 1 1 1 1 1 1 
1 1 1 1 1 1 1 1 1 
1 1 1 1 1 1 1 1 1 
1 1 1 1 1 1 1 1 1 
1 1 1 1 1 1 1 1 1 
1 1 1 1 1 1 1 1 1 
1 1 1 1 1 1 1 1 1 
1 1 1 1 1 1 1 1 1 
1 1 1 1 1 1 1 1 1 
1 1 1 1 1 1 1 1 1 
1 1 1 1 1 1 1 1 1 
1 1 1 1 1 1 1 1 1 
1 1 1 1 1 1 1 1 1 
1 1 1 1 1 1 1 1 1 
1 1 1 1 1 1 1 1 1 
1 1 1 1 1 1 1 1 1 
1 1 1 1 1 1 1 1 1 
1 1 1 1 1 1 1 1 1 
1 1 1 1 1 1 1 1 1 
1 1 1 1 1 1 1 1 1 
1 1 1 1 1 1 1 1 1 
1 1 1 1 1 1 1 1 1 
1 1 1 1 1 1 1 1 1 
1 1 1 1 1 1 1 1 1 
1 1 1 1 1 1 1 1 1 
1 1 1 1 1 1 1 1 1 
1 1 1 1 1 1 1 1 1 
1 1 1 1 1 1 1 1 1 
1 1 1 1 1 1 1 1 1 
1 1 1 1 1 1 1 1 1 
1 1 1 1 1 1 1 1 1 
1 1 1 1 1 1 1 1 1 
1 1 1 1 1 1 1 1 1 
1 1 1 1 1 1 1 1 1 
1 1 1 1 1 1 1 1 1 
1 1 1 1 1 1 1 1 1 
1 1 1 1 1 1 1 1 1 
1 1 1 1 1 1 1 1 1 
1 1 1 1 1 1 1 1 1 
1 1 1 1 1 1 1 1 1 
1 1 1 1 1 1 1 1 1 
1 1 1 1 1 1 1 1 1 
1 1 1 1 1 1 1 1 1 
1 1 1 1 1 1 1 1 1 
1 1 1 1 1 1 1 1 1 
1 1 1 1 1 1 1 1 1 
1 1 1 1 1 1 1 1 1 
1 1 1 1 1 1 1 1 1 
1 1 1 1 1 1 1 1 1 
1 1 1 1 1 1 1 1 1 
1 1 1 1 1 1 1 1 1 
1 1 1 1 1 1 1 1 1 
1 1 1 1 1 1 1 1 1 
1 1 1 1 1 1 1 1 1 
1 1 1 1 1 1 1 1 1 
1 1 1 1 1 1 1 1 1 
1 1 1 1 1 1 1 1 1 
1 1 1 1 1 1 1 1 1 
1 1 1 1 1 1 1 1 1 
1 1 1 1 1 1 1 1 1 
1 1 1 1 1 1 1 1 1 
1 1 1 1 1 1 1 1 1 
1 1 1 1 1 1 1 1 1 
1 1 1 1 1 1 1 1 1 
1 1 1 1 1 1 1 1 1 
1 1 1 1 1 1 1 1 1 
1 1 1 1 1 1 1 1 1 
1 1 1 1 1 1 1 1 1 
1 1 1 1 1 1 1 1 1 
1 1 1 1 1 1 1 1 1 
1 1 1 1 1 1 1 1 1 
1 1 1 1 1 1 1 1 1 
1 1 1 1 1 1 1 1 1 
1 1 1 1 1 1 1 1 1 
1 1 1 1 1 1 1 1 1 
1 1 1 1 1 1 1 1 1 
1 1 1 1 1 1 1 1 1 
1 1 1 1 1 1 1 1 1 
1 1 1 1 1 1 1 1 1 
1 1 1 1 1 1 1 1 1 
1 1 1 1 1 1 1 1 1 
1 1 1 1 1 1 1 1 1 
1 1 1 1 1 1 1 1 1 
1 1 1 1 1 1 1 1 1 
1 1 1 1 1 1 1 1 1 
1 1 1 1 1 1 1 1 1 
1 1 1 1 1 1 1 1 1 
1 1 1 1 1 1 1 1 1 
1 1 1 1 1 1 1 1 1 
1 1 1 1 1 1 1 1 1 
1 1 1 1 1 1 1 1 1 
1 1 1 1 1 1 1 1 1 
1 1 1 1 1 1 1 1 1 
1 1 1 1 1 1 1 1 1 
1 1 1 1 1 1 1 1 1 
1 1 1 1 1 1 1 1 1 
1 1 1 1 1 1 1 1 1 
1 1 1 1 1 1 1 1 1 
1 1 1 1 1 1 1 1 1 
1 1 1 1 1 1 1 1 1 
1 1 1 1 1 1 1 1 1 
1 1 1 1 1 1 1 1 1 
1 1 1 1 1 1 1 1 1 
1 1 1 1 1 1 1 1 1 
1 1 1 1 1 1 1 1 1 
1 1 1 1 1 1 1 1 1 
1 1 1 1 1 1 1 1 1 
1 1 1 1 1 1 1 1 1 
1 1 1 1 1 1 1 1 1 
1 1 1 1 1 1 1 1 1 
1 1 1 1 1 1 1 1 1 
1 1 1 1 1 1 1 1 1 
1 1 1 1 1 1 1 1 1 
1 1 1 1 1 1 1 1 1 
1 1 1 1 1 1 1 1 1 
1 1 1 1 1 1 1 1 1 
1 1 1 1 1 1 1 1 1 
1 1 1 1 1 1 1 1 1 
1 1 1 1 1 1 1 1 1 
1 1 1 1 1 1 1 1 1 
1 1 1 1 1 1 1 1 1 
1 1 1 1 1 1 1 1 1 
1 1 1 1 1 1 1 1 1 
1 1 1 1 1 1 1 1 1 
1 1 1 1 1 1 1 1 1 
1 1 1 1 1 1 1 
NORMALS Normals float
0.0978315 -0.0163228 -0.995069 -0.0865091 -0.263764 -0.9607 -0.260295 -0.122943 -0.95767 
0.0838951 -0.0787315 -0.993359 0.0739228 0.234515 -0.969298 0.0622158 -0.204102 -0.976971 
-0.0447969 -0.29973 -0.952972 0.00624457 -0.143645 -0.98961 0.00248343 -0.10064 -0.99492 
0.287847 0.229734 -0.929713 -0.13577 -0.377463 -0.916018 0.297542 0.442695 -0.845867 
-0.171672 -0.192975 -0.966069 0.197818 0.234752 -0.951714 0.265963 0.390648 -0.881282 
-0.230583 -0.352687 -0.906887 0.0554595 0.337675 -0.939627 0.229145 0.351408 -0.907747 
0.349846 0.682798 -0.641401 0.347203 0.792614 -0.501212 -0.15871 0.0907105 -0.983149 
-0.044486 0.291548 -0.955521 0.00907476 0.217846 -0.975941 0.178291 0.634712 -0.7519 
0.300082 0.0935266 -0.949317 0.113194 0.073079 -0.990882 0.105405 0.22988 -0.967494 
0.0959728 -0.109321 -0.989362 0.27096 0.19532 -0.942566 0.129168 -0.105751 -0.985968 
0.151137 0.0125234 -0.988434 0.276118 0.481594 -0.831761 0.220012 0.172156 -0.960186 
0.367783 0.146745 -0.91826 0.318952 0.295992 -0.900366 -0.205497 -0.510469 -0.83498 
0.401266 0.553026 -0.73017 0.520172 0.578089 -0.628677 0.404653 0.713072 -0.572525 
0.500677 0.833275 -0.234467 0.227179 0.472546 -0.851522 0.478668 0.781341 -0.40048 
0.407834 0.803596 -0.433481 0.428159 0.852476 -0.299941 0.395628 0.836322 -0.379531 
0.162088 0.678581 -0.716418 -0.293611 -0.168888 -0.940888 -0.267465 -0.0558898 -0.961945 
0.170346 0.896794 -0.408341 0.261039 0.824107 -0.5027 -0.194255 -0.00988267 -0.980901 
-0.135509 0.263526 -0.955087 0.0868335 0.595855 -0.798384 0.120407 0.686487 -0.717104 
0.179881 0.92106 -0.345386 -0.130989 0.284486 -0.949689 -0.0448783 -0.448902 -0.892453 
0.11561 -0.25935 -0.958839 0.144524 -0.616396 -0.77406 0.39227 0.14485 -0.908374 
-0.132437 -0.565344 -0.814154 0.406972 0.385727 -0.828003 0.400104 0.233829 -0.886138 
-0.224246 -0.568461 -0.791559 0.419289 0.487579 -0.765809 0.580369 0.710705 -0.397581 
0.344755 0.543912 -0.765051 0.497433 0.862013 -0.0974386 0.411179 0.619088 -0.669075 
0.42305 0.830088 -0.363293 0.35531 0.930689 -0.0870204 0.577178 0.810232 0.101928 
-0.22371 -0.298381 -0.927859 0.351741 0.929451 0.111356 -0.304048 -0.291992 -0.906805 
-0.130226 0.0406142 -0.990652 -0.102042 0.335625 -0.936453 0.306867 0.938669 -0.157264 
0.250882 0.90661 -0.339288 -0.172027 -0.155492 -0.972743 -0.193088 -0.197105 -0.96118 
-0.017695 0.309968 -0.950582 0.0834344 0.481246 -0.872606 0.0593214 0.612406 -0.788314 
0.108467 0.797559 -0.593409 -0.0304981 0.565505 -0.824181 0.418314 0.826401 -0.376928 
0.068551 0.576588 -0.814154 0.147581 0.774097 -0.615624 -0.0815999 -0.728872 -0.67977 
0.0303924 -0.526197 -0.849819 0.523042 0.803378 0.284624 0.492231 0.86778 -0.0683153 
0.384543 0.913974 0.129533 0.465178 0.843385 0.268907 0.428112 0.885156 0.182259 
-0.564402 -0.431434 0.703786 0.351531 0.929466 -0.111886 -0.24652 -0.0430337 -0.968182 
-0.335592 -0.344916 -0.876591 0.093251 0.726635 -0.680666 0.265626 0.920578 -0.286319 
-0.204334 0.0350141 -0.978275 0.0155545 0.373133 -0.927648 -0.204425 -0.0591466 -0.977094 
-0.165871 0.307097 -0.937112 -0.18676 0.0833909 -0.97886 -0.0821762 0.441621 -0.89343 
0.238409 0.881735 -0.407069 -0.295489 -0.329548 -0.896708 -0.0598707 -0.549159 -0.833571 
0.392433 -0.203252 -0.897042 0.19432 -0.0803534 -0.977642 0.11922 -0.0436462 -0.991908 
0.21087 -0.0580264 -0.97579 0.343113 0.35696 -0.868823 -0.141495 -0.697962 -0.702017 
0.278351 0.633938 -0.721556 0.570245 0.710111 -0.412992 0.421488 0.585836 -0.692203 
0.286879 0.63241 -0.719554 0.389135 0.884782 -0.256388 0.444194 0.881567 -0.159788 
0.48163 0.8749 -0.050809 -0.325897 -0.685166 -0.651413 0.443757 0.895869 0.0223323 
0.336146 0.937913 0.0855894 -0.295983 -0.539848 -0.788009 0.532025 0.841408 0.0947695 
-0.33778 -0.450166 -0.826592 -0.366272 -0.40603 -0.837248 0.292554 0.944861 -0.147138 
-0.312273 0.239433 -0.919325 -0.394959 -0.324636 -0.859429 0.0672747 0.669217 -0.740015 
0.131052 0.882201 -0.452269 0.258862 0.896051 -0.36067 -0.204894 -0.125873 -0.970657 
-0.0117681 0.5361 -0.844073 0.0610358 0.703191 -0.708376 -0.0405443 0.182167 -0.982431 
-0.0581316 -0.624906 -0.778533 -0.207239 -0.59118 -0.77946 -0.101294 -0.569853 -0.81548 
0.262242 -0.057405 -0.963293 0.241751 0.0886221 -0.966283 0.219397 0.0737351 -0.972845 
0.371717 0.519913 -0.769101 0.447499 0.498428 -0.742505 -0.192129 -0.707434 -0.680164 
0.457477 0.780108 -0.426786 0.393644 0.896802 -0.201968 0.508239 0.81519 -0.277774 
0.510995 0.843157 0.167241 0.477183 0.74262 0.469906 -0.430665 -0.587872 -0.684788 
0.415743 0.887517 0.198672 -0.390201 -0.549928 -0.738459 -0.277913 -0.301073 -0.912206 
0.206484 0.927525 -0.311546 0.267687 0.921667 -0.280843 -0.328693 -0.335766 -0.882735 
-0.0636321 0.0533441 -0.996547 -0.236399 -0.460971 -0.855348 -0.200654 -0.441602 -0.874486 
-0.122135 -0.403432 -0.906822 0.119254 0.59947 -0.791463 0.0510397 -0.0514408 -0.997371 
-0.317486 -0.553946 -0.76964 0.0974167 0.0397248 -0.994451 0.244236 0.603685 -0.758889 
0.273452 0.878054 -0.39274 -0.177987 -0.407312 -0.895778 -0.676323 -0.625531 -0.38897 
-0.867532 -0.497198 0.0134911 -0.461749 -0.60103 -0.652342 0.403563 0.431694 -0.806708 
0.433125 0.709267 -0.556186 -0.531774 -0.500806 -0.682942 -0.924543 -0.291102 0.245928 
-0.842485 0.206839 -0.49743 -0.0132008 -0.125429 -0.992015 0.330512 0.338457 -0.881027 
0.288492 0.184718 -0.939495 0.110415 0.586821 -0.802153 0.319496 0.562494 -0.762576 
-0.00414797 -0.391062 -0.920355 0.0898738 -0.521633 -0.848423 0.359579 0.0946248 -0.928304 
0.379479 0.565582 -0.732197 0.468853 0.830903 -0.299629 0.383593 0.783025 -0.48962 
0.399398 0.80037 -0.447091 -0.330642 -0.764523 -0.553336 0.61284 0.790197 0.00403407 
0.379014 0.925221 -0.017761 0.41844 0.863894 0.280347 0.42013 0.871578 0.252671 
-0.348296 -0.578053 -0.737933 0.306968 0.914006 -0.265263 0.211239 0.960023 -0.18367 
-0.474789 -0.670113 -0.570547 0.411587 0.89854 -0.15239 0.355445 0.764939 -0.537148 
-0.788747 -0.614494 0.0165997 -0.70319 -0.694463 -0.152462 -0.813634 -0.143576 0.563371 
-0.466588 0.802755 0.371321 -0.816932 0.17957 0.548067 0.492503 0.869791 0.03009 
-0.221885 0.959853 -0.171607 -0.603559 0.726239 -0.32908 0.407112 0.704554 -0.58126 
0.182996 -0.239718 -0.95344 -0.020042 -0.71219 -0.701701 0.25619 -0.14753 -0.955302 
-0.247187 -0.696343 -0.673799 0.33517 0.179871 -0.924828 0.454188 0.315078 -0.83333 
0.363293 0.45225 -0.814548 0.466769 0.559335 -0.685034 0.453796 0.677239 -0.579151 
0.415985 0.831933 -0.367212 0.388279 0.744054 -0.543712 0.46856 0.841948 -0.267535 
0.437739 0.849861 -0.293463 -0.30743 -0.858143 -0.41119 0.370793 0.924925 0.0838261 
-0.387001 -0.705222 -0.594047 -0.373661 -0.558362 -0.740682 0.324092 0.945983 -0.0089947 
-0.379405 -0.652725 -0.655745 -0.497297 -0.648152 -0.57671 -0.6121 -0.721842 -0.322919 
0.425279 0.904926 0.0157339 -0.646747 -0.714474 -0.266918 0.376658 0.906488 -0.190808 
0.374639 0.907699 -0.189018 -0.716877 0.235714 0.656145 0.371852 0.901855 0.219961 
-0.778392 0.317511 0.541565 -0.431998 0.50847 0.744873 -0.558747 0.360573 0.746853 
-0.633036 0.769102 0.0880204 0.212853 0.846401 0.488159 0.245388 0.827212 0.505475 
0.108953 0.831589 0.5446 0.435019 0.866161 -0.246016 0.0861568 -0.342881 -0.93542 
0.0352247 -0.625056 -0.779785 0.0384001 -0.658084 -0.751965 0.192323 -0.58432 -0.788404 
0.274184 -0.236089 -0.932247 0.434602 0.159826 -0.886328 0.415865 0.342318 -0.842541 
0.565233 0.428226 -0.705077 0.454277 0.336334 -0.824932 0.429778 0.42887 -0.794583 
0.568467 0.572792 -0.590554 0.50057 0.701319 -0.507525 0.502696 0.690094 -0.520641 
0.565656 0.694276 -0.444988 0.475907 0.817284 -0.3249 0.45686 0.8676 -0.196338 
0.431362 0.901971 -0.0193827 -0.3518 -0.743362 -0.568903 -0.450081 -0.694669 -0.561126 
0.370003 0.917093 0.14845 -0.516815 -0.732331 -0.443388 0.400057 0.899265 0.176851 
-0.608544 -0.711801 -0.350733 -0.748937 -0.659368 -0.0657863 -0.784873 -0.612461 0.0941585 
-0.843358 -0.358722 0.400081 -0.904858 -0.406438 0.126646 -0.976666 -0.0128316 0.214379 
-0.821268 0.55203 -0.144161 -0.899927 -0.178088 0.398016 -0.0700566 0.893882 0.442795 
0.377022 0.807629 0.45342 0.156544 0.815563 0.557092 -0.0423438 0.843386 0.535637 
-0.240362 0.830178 0.503022 0.0250481 -0.453339 -0.890986 -0.108662 -0.723145 -0.682096 
0.302866 0.185297 -0.934846 0.35363 0.240506 -0.903937 0.516994 0.708947 -0.479699 
0.487885 0.84806 -0.206789 0.481487 0.863563 -0.149767 0.399158 0.886944 0.232387 
-0.58725 -0.727026 -0.355769 -0.742397 -0.660576 -0.111743 -0.705564 -0.663211 -0.249661 
-0.850431 -0.519928 -0.0802613 0.4924 0.831579 0.256941 0.269442 0.866308 0.420608 
-0.580332 -0.0872688 0.809691 -0.533067 0.190251 0.824406 -0.0884507 0.482835 0.871233 
0.188771 0.755193 0.627734 0.24267 -0.117895 -0.962918 -0.141479 -0.415058 -0.898727 
0.115594 -0.559953 -0.820421 0.114426 -0.288746 -0.950543 0.343747 -0.157231 -0.925806 
0.306973 0.295985 -0.904522 0.549964 -0.0458718 -0.833927 0.299608 0.128943 -0.945309 
0.432081 0.398567 -0.808981 0.20701 -0.186927 -0.960315 0.508153 0.512081 -0.692498 
0.589627 0.222614 -0.776391 0.49284 0.587849 -0.641515 -0.170838 -0.790312 -0.588406 
0.464847 0.65388 -0.596957 -0.262246 -0.811231 -0.522619 0.500818 0.850442 -0.161025 
0.389307 0.880025 0.272023 -0.548542 -0.766844 -0.333244 -0.663818 -0.728813 -0.167861 
-0.790345 -0.60676 0.0848375 -0.762634 -0.646522 -0.0199519 -0.799274 -0.299279 0.521147 
-0.892756 -0.403642 0.20015 -0.878836 -0.445284 0.171373 -0.965378 -0.194221 0.174137 
-0.878364 -0.0794965 0.471335 -0.652629 0.145675 0.743542 0.373131 0.840391 0.393087 
-0.283519 0.416254 0.863916 -0.0851159 0.642748 0.761334 -0.050656 -0.513854 -0.856381 
-0.0294394 -0.624852 -0.780188 0.0484186 -0.509495 -0.85911 0.180949 -0.400466 -0.898268 
0.161757 -0.287825 -0.943924 0.184199 -0.114344 -0.976215 0.22676 -0.228912 -0.946667 
0.439381 0.0688638 -0.895657 0.181271 0.0288922 -0.983009 0.513607 0.414771 -0.751114 
0.419944 0.902756 0.0931645 -0.47781 -0.820076 -0.314916 -0.644269 -0.759646 -0.0886305 
-0.746704 -0.647249 -0.153302 -0.822392 -0.541922 0.173183 -0.819246 -0.48502 0.305927 
-0.835192 -0.0181755 0.549659 -0.770745 -0.0893995 0.630841 0.30721 0.810752 0.4983 
-0.583149 0.21135 0.784391 -0.284568 0.529706 0.79902 -0.176853 0.623099 0.761886 
0.176424 -0.207358 -0.962225 0.365547 0.265132 -0.892233 -0.212801 -0.795983 -0.56668 
-0.0680552 -0.69999 -0.710903 0.44473 0.302337 -0.843094 0.460894 0.410162 -0.786984 
-0.357644 -0.887086 -0.291838 0.475356 0.827814 -0.297927 0.386705 0.91426 0.120777 
0.321083 0.91409 0.247679 -0.78809 -0.61082 0.0762507 -0.827921 -0.341981 0.444518 
0.153266 0.774813 0.613331 0.298077 -0.272376 -0.914856 -0.352219 -0.828878 -0.43463 
0.405965 0.561678 -0.720909 -0.194147 -0.833498 -0.51729 0.423387 0.835408 -0.350481 
0.496686 0.762878 -0.413909 -0.55557 -0.809493 -0.189903 -0.813617 -0.479753 0.328428 
-0.00118791 0.699752 0.714385 0.237689 -0.544007 -0.804711 0.269204 -0.299039 -0.915481 
0.391086 -0.128902 -0.911283 0.47243 0.0533159 -0.879754 0.444956 0.251609 -0.859481 
0.552541 0.243338 -0.797173 0.532862 0.570382 -0.625077 0.513582 0.754473 -0.408661 
0.550735 0.758669 -0.348013 -0.307115 -0.873549 -0.377615 0.357842 0.933217 0.0324664 
-0.325233 -0.910615 -0.254958 -0.240337 -0.886167 -0.396164 0.288377 0.83758 0.464003 
-0.802208 -0.578324 0.148337 -0.810261 -0.267138 0.521646 -0.684827 0.089743 0.723158 
-0.425088 0.397176 0.813358 0.223793 0.740906 0.633226 0.0665298 -0.612894 -0.787359 
0.482187 -0.129228 -0.866485 0.603908 0.576789 -0.5501 0.526338 0.609408 -0.59295 
0.446343 0.8799 -0.162956 -0.313017 -0.913956 -0.258273 0.422311 0.77847 0.464368 
-0.751617 -0.643215 0.146101 -0.772341 -0.596447 0.218494 0.343397 0.804544 0.484549 
-0.791798 -0.325108 0.51707 0.176058 0.703159 0.688891 0.619901 -0.471126 -0.627506 
0.63885 -0.590004 -0.493726 0.183587 -0.608421 -0.772088 0.304675 -0.503862 -0.808267 
0.522008 -0.203381 -0.828338 0.686506 -0.288684 -0.667361 -0.317717 -0.915176 -0.248011 
-0.231599 -0.927943 -0.292032 0.472909 0.762709 -0.441172 -0.337654 -0.931554 0.134894 
-0.630358 -0.774268 -0.0562027 -0.705916 -0.372381 0.602507 -0.823567 -0.392713 0.409285 
-0.738099 -0.254799 0.62473 -0.65068 0.0183484 0.75913 0.261598 -0.799552 -0.540632 
0.407307 -0.838841 -0.361174 0.907554 -0.314972 -0.277736 -0.291171 -0.917268 -0.271732 
0.824776 -0.0451012 -0.563658 0.947006 -0.205168 -0.247156 0.639805 0.273011 -0.718411 
0.814187 0.567775 -0.121372 -0.210663 -0.976448 -0.0465937 -0.105694 -0.617072 -0.779776 
-0.40838 -0.908042 -0.0932002 0.42253 0.905506 -0.0390826 0.610463 0.782523 -0.122444 
0.430935 0.902089 0.0230489 0.307554 0.894036 0.325746 0.205223 0.838407 0.504933 
-0.233175 -0.958149 -0.166071 0.12347 0.770564 0.62529 0.407865 0.815675 0.410268 
-0.618873 -0.777261 0.113407 -0.676751 -0.648725 0.348086 -0.305365 0.363283 0.880215 
-0.505771 0.191754 0.841086 0.0403038 -0.783727 -0.619797 0.72521 -0.646713 -0.23629 
0.980982 -0.0442646 0.188983 -0.355337 -0.921055 0.159352 0.942714 0.267091 0.199881 
0.814077 0.565807 0.130921 0.539938 0.830884 0.134534 0.647318 0.703775 0.292711 
-0.404666 -0.911071 0.0787078 0.261227 0.896075 0.358902 -0.15135 -0.777177 0.61081 
-0.155287 -0.985239 0.0720364 0.300384 0.537339 0.788058 0.0821064 0.651157 0.754489 
-0.356915 -0.884172 -0.301415 0.363144 0.783756 0.503838 -0.62139 -0.783475 -0.00647414 
-0.61655 -0.458524 0.640017 -0.657058 -0.308106 0.688001 0.047559 0.704265 0.708343 
0.40676 -0.784214 -0.468566 0.582514 -0.691535 -0.42715 0.466237 -0.823168 -0.324064 
0.846651 -0.464603 -0.259472 0.79645 0.461704 0.390508 -0.414682 -0.882339 0.222524 
-0.293536 -0.933193 0.207335 0.339684 0.84354 0.415998 0.48877 0.844472 0.219023 
-0.437952 -0.776243 0.453481 0 -0.970143 -0.242536 0 -0.99919 -0.0402377 
-0.446924 -0.893848 -0.0359955 0.446924 -0.893848 -0.0359955 -0.352244 -0.637416 0.685292 
0.213189 0.797788 0.56399 -0.119629 -0.92616 0.357655 0 0.996388 0.0849172 
-0.191841 -0.124785 0.973461 -0.148152 -0.978063 0.14644 -0.185744 -0.933698 0.306118 
-0.20802 -0.910458 0.357483 0.00933475 -0.0373186 0.99926 0.108007 0.631826 0.767548 
-0.249191 -0.96829 -0.0178372 0.162161 0.579592 0.798609 0.273926 0.363348 0.890473 
0.262324 0.651874 0.71151 -0.527822 -0.848362 -0.0410468 -0.594847 -0.803057 -0.0354306 
-0.647234 -0.740894 0.179343 -0.702595 -0.654924 0.27827 -0.686035 -0.420806 0.59353 
-0.603492 -0.339701 0.721388 0.186216 0.722941 0.665342 -0.261358 0.297887 0.918126 
0.108232 0.684433 0.720997 0.0929037 0.654157 0.750632 -0.226682 0.49825 0.836876 
-0.144072 -0.945129 -0.293212 0.126973 -0.921794 -0.366297 0.26497 -0.936563 -0.229436 
0.716115 -0.687568 -0.120125 -0.363601 -0.924963 0.110622 0.981784 -0.137878 0.130726 
-0.518819 -0.851126 0.0800691 -0.308114 -0.910332 0.276335 0.704989 0.567374 0.425531 
-0.340111 -0.860587 0.379097 -0.413198 -0.434762 0.800156 -0.365644 -0.395522 0.842536 
-0.152477 -0.129165 0.97983 0 -0.986394 0.164399 -0.160163 -0.237871 0.958001 
-0.223256 0.0563853 0.973128 -0.254707 -0.0440426 0.966015 -0.182324 0.207952 0.960996 
0.173613 0.792543 0.58458 -0.0140723 0.0994829 0.99494 0.0312347 -0.838523 0.54397 
-0.112917 -0.760934 0.638929 0.128306 -0.476879 0.869554 -0.0639942 0.246555 0.967014 
0.103862 0.564582 0.818816 -0.109827 -0.957985 0.26496 0.13406 -0.445563 0.885156 
0.265379 -0.191028 0.94503 0.0664085 0.324771 0.943458 0.0749958 0.666709 0.741535 
-0.233691 -0.911145 -0.339416 0.203579 0.41489 0.886804 0.417013 0.548493 0.724745 
-0.27496 -0.916344 -0.29105 -0.606521 -0.776768 0.169599 -0.632468 -0.356053 0.687903 
-0.496499 0.0535398 0.866385 0.0534024 0.57181 0.818646 -0.293798 0.475024 0.829479 
-0.387845 0.186463 0.902667 0.265357 -0.937859 -0.22362 0.184909 -0.95639 -0.226113 
-0.421883 -0.86396 0.274933 0.939216 0.139072 0.313898 0.884785 0.305392 0.351981 
-0.360965 -0.659082 0.659784 -0.317462 -0.652114 0.688451 -0.43695 -0.493709 0.751881 
-0.379428 -0.600503 0.703868 -0.339736 -0.604121 0.720845 -0.310999 -0.478247 0.821316 