# vtk DataFile Version 4.2
vtk output
ASCII
DATASET POLYDATA
POINTS 1372 float
223.171 56.2562 88.5589 221.199 56.8907 88.3683 223.197 56.5099 88.4672 
221.547 57.2386 88.2479 222.457 57.1064 88.2079 222.736 57.0949 88.2284 
222.97 56.9827 88.3066 223.259 56.8509 88.4967 222.658 55.7236 88.7982 
221.929 56.1398 88.5732 223.43 56.0873 88.7663 223.391 56.3495 88.6558 
223.512 56.4883 88.8665 222.172 57.3624 88.2173 222.551 57.2692 88.248 
223.404 56.8004 88.6137 223.37 56.8731 88.5319 223.39 56.8736 88.5814 
219.805 57.8284 88.7136 221.96 57.5678 88.2527 222.276 57.5122 88.3217 
222.729 57.2926 88.4175 223.119 57.0609 88.5754 223.324 56.9153 88.5566 
221.574 57.8279 88.3997 221.913 57.7218 88.3319 222.117 57.6888 88.4152 
221.754 57.843 88.4164 223.796 55.3893 89.4317 217.925 57.3453 89.2528 
216.619 58.1326 89.5332 223.361 56.8526 88.7427 217.338 58.3114 89.4064 
217.909 58.5227 89.4404 220.456 58.1577 88.8989 220.059 58.3269 89.136 
220.384 58.2685 89.1652 206.817 62.1189 90.0357 206.424 62.4212 90.0215 
206.186 62.3983 90.0473 208.62 61.7574 90.0993 202.571 64.3497 90.2534 
203.278 63.8442 90.2814 206.744 62.7114 90.0757 202.187 64.9005 90.2556 
202.84 64.4546 90.1844 201.115 65.3496 90.3961 201.098 65.2703 90.4899 
201.085 65.3617 90.4293 201.181 65.3598 90.3849 201.316 65.2837 90.3983 
202.652 64.7735 90.1999 201.125 65.388 90.4109 201.256 65.4101 90.4497 
224.148 55.1996 89.8421 224.229 55.7625 90.2918 212.123 59.1996 90.4166 
222.124 57.6321 89.3745 220.557 58.2372 89.4329 207.446 61.3651 90.2074 
211.228 60.5566 90.3738 213.784 59.871 90.3771 215.682 59.4238 90.3859 
205.976 62.2937 90.149 203.388 63.1848 90.5354 205.159 62.7409 90.259 
210.403 61.4765 90.5858 202.167 63.6801 90.7596 207.7 62.7926 90.3881 
209.245 62.136 90.6016 201.311 65.0065 90.5251 203.627 64.2268 90.2144 
205.242 63.5834 90.2898 201.077 65.3646 90.5298 200.926 65.1589 90.8145 
202.069 65.3448 90.2949 202.942 64.8908 90.2513 201.079 65.4865 90.7371 
201.41 65.5682 90.5136 202.564 65.5743 90.4344 202.533 65.5241 90.4003 
202.446 65.608 90.4473 202.738 65.4605 90.4732 201.227 65.6767 90.6604 
201.12 65.6643 90.7895 201.184 65.7276 90.7306 201.384 65.7144 90.6026 
202.553 65.5938 90.5041 201.281 65.7488 90.7217 201.762 65.7421 90.6394 
224.087 54.1629 90.4608 226.291 52.5745 92.1365 225.173 53.5577 91.2673 
213.448 57.8383 90.6186 222.848 56.9224 90.7347 223.919 56.1271 90.774 
210.985 58.7171 90.9806 206.795 61.2986 90.439 215.447 59.6145 90.7559 
212.445 60.6304 90.7127 210.699 61.4466 90.8073 209.053 62.3041 90.7014 
200.634 64.4714 91.2801 208.778 62.4796 90.8582 200.68 64.8528 91.1273 
204.93 64.2529 90.9903 206.953 63.3628 90.9866 202.263 65.5602 90.4136 
201.171 65.7189 90.8335 201.021 65.5882 91.0892 202.043 65.6937 90.5708 
202.339 65.6541 90.5887 225.694 52.8771 91.7886 226.627 52.5958 92.4366 
217.907 55.232 90.9136 224.443 55.5204 91.685 219.738 58.3684 90.6983 
206.229 60.7889 91.1272 200.559 64.2647 91.5239 208.157 62.8156 91.5135 
208.996 62.3891 91.2936 199.767 64.3426 92.5719 200.177 64.8182 91.9857 
200.417 65.146 91.8118 206.076 63.766 91.3473 228.402 50.0271 94.2516 
228.822 50.0017 94.3562 225.68 51.8636 92.4543 223.562 52.1542 92.4097 
224.494 51.8208 92.5827 208.853 58.6852 92.2389 216.153 59.2707 91.895 
213.708 60.0414 92.2761 201.105 62.7986 92.3035 208.824 62.2986 92.2865 
199.626 63.5795 93.0238 199.361 64.2832 93.1808 202.328 65.4134 91.8812 
200.957 65.5149 91.8906 201.697 65.6545 91.7022 229.492 50.1607 94.5539 
228.806 51.2756 94.1059 228.12 51.9471 94.0408 228.651 51.5217 94.1156 
228.992 51.3021 94.3278 228.833 51.4701 94.2477 212.22 56.8383 92.4116 
207.804 58.887 92.909 210.419 61.221 92.9964 199.395 63.2556 93.5521 
208.623 61.9566 93.1578 199.904 64.7911 93.1779 200.229 65.0732 92.5033 
201.239 65.5202 92.1055 230.2 49.0466 95.3134 230.814 49.25 95.407 
225.288 50.4074 94.336 229.916 50.1532 94.7815 230.443 50.3008 95.2383 
230.033 50.7083 94.9692 223.851 55.0738 94.036 204.886 60.0532 93.4685 
203.962 60.4444 93.6023 199.18 62.8383 94.4457 208.924 61.306 93.876 
198.069 63.5575 94.6546 203.737 64.0152 93.4211 199.128 64.4381 94.3205 
201.178 64.8979 93.1493 232.166 47.4122 96.5071 233.776 47.0874 96.8218 
234.399 47.0595 96.9788 234.015 47.4758 96.7851 229.665 50.9887 95.1969 
206.804 59.2153 94.0022 216.449 57.9364 94.1604 213.327 59.1073 94.1736 
196.812 63.9826 95.6058 197.786 64.1487 95.0345 199.863 64.5051 94.14 
234.687 46.115 97.4122 236.113 45.6191 97.7649 234.485 46.6085 97.1344 
236.938 45.6038 97.9526 231.09 47.5005 96.5768 229.762 47.9546 96.3952 
221.436 51.664 95.0546 232.638 48.9309 96.5787 218.238 53.213 95.069 
215.58 54.6271 94.7883 214.598 55.2201 94.9096 214.127 55.4396 94.6619 
215.509 54.6402 94.3245 202.904 60.8942 94.7494 205.793 59.8558 94.5669 
212.247 58.6239 94.9602 199.57 62.4847 95.2822 199.149 62.6467 95.2591 
197.118 63.3934 95.9238 196.824 63.525 95.835 196.147 63.8258 96.0406 
201.631 63.4851 94.7939 200.219 64.2672 94.4456 196.827 64.0879 95.7009 
197.278 64.1413 95.4647 197.274 64.1487 95.5208 238.882 44.0759 98.8359 
236.573 44.6812 98.4811 238.546 44.5398 98.6193 239.431 44.3609 98.8435 
240.445 43.8632 99.1334 235.459 45.2786 98.0561 232.472 46.4919 97.3796 
239.058 45.0727 98.8072 229.419 47.7004 97.1834 234.963 47.2791 97.3414 
237.573 46.1621 98.5255 224.767 49.9439 95.9008 234.58 47.7309 97.4513 
223.206 50.6798 96.0397 233.505 48.4542 97.1277 233.8 48.2629 97.4619 
220.167 52.3015 95.6182 232.058 49.3451 96.8437 214.977 55.1474 95.2425 
216.284 54.4843 95.4465 214.572 55.5733 95.4311 213.471 56.4711 95.4616 
220.774 54.7413 96.0555 213.057 56.8212 95.4385 206.923 59.5143 94.6719 
214.096 57.4319 95.3514 203.501 60.7575 94.9991 204.024 60.6388 95.0499 
208.702 59.3521 94.9344 211.056 58.8323 95.0564 204.336 60.6728 95.1622 
209.665 59.2146 94.9979 199.788 62.4906 95.4165 201.986 61.6414 95.3281 
203.04 61.2604 95.312 195.538 63.8247 96.6062 196.203 63.6584 96.3508 
197.704 63.2629 95.8959 198.838 63.0373 95.7376 203.285 61.3848 95.3415 
193.684 64.3282 97.2892 193.398 64.3798 97.4319 193.139 64.4884 97.5087 
193.8 64.3405 97.2305 195.478 64.0635 96.4093 194.87 64.2004 96.7534 
195.809 64.1147 96.2924 197.298 64.1397 95.5581 241.623 42.7256 99.7859 
242.133 42.9521 99.7276 238.208 43.9699 98.9437 242.605 42.9615 99.8479 
235.488 44.9967 98.4174 241.883 43.5852 99.6192 241.635 43.8342 99.5935 
238.732 45.4227 98.8024 228.329 48.1667 97.1113 226.499 49.0233 96.9706 
237.429 46.341 98.6149 237.25 46.4641 98.6533 237.738 46.1846 98.8646 
225.42 49.5835 96.7936 231.576 49.414 97.4217 221.606 51.8594 96.5293 
220.196 52.7772 96.5399 221.092 52.4921 96.7488 228.2 51.2031 96.9809 
216.123 54.8341 95.701 218.589 53.6813 96.3088 219.262 53.5043 96.6152 
226.04 52.1206 96.9021 223.098 53.2559 96.6467 216.392 55.5351 95.982 
221 53.9374 96.6099 217.209 55.7546 95.9232 212.847 57.2833 95.4231 
210.403 58.4547 95.1581 213.407 57.4921 95.3817 204.87 60.5814 95.1397 
205.33 60.6837 95.1537 195.103 63.9472 96.8087 197.258 63.4846 96.1336 
204.139 61.517 95.2409 193.278 64.414 97.4965 194.788 64.0497 96.9549 
196.358 63.8296 96.4621 197.77 63.5111 96.0144 200.384 62.7946 95.527 
192.345 64.6286 97.8117 192.307 64.6387 97.827 192.259 64.6487 97.8428 
192.526 64.5864 97.7461 192.511 64.5935 97.7564 192.902 64.5032 97.6211 
194.058 64.2383 97.2115 197.303 63.7625 96.1011 188 65.0087 98.0174 
188 65.0087 98.0175 188 65.0088 98.0175 188 65.0088 98.0175 
192.226 64.6748 97.8586 197.062 63.9467 96.046 188 65.0088 98.0175 
192.169 64.7178 97.8857 191.887 64.828 97.9992 192.419 64.6845 97.7983 
193.252 64.4881 97.4836 194.21 64.3089 97.0732 195.914 64.1103 96.3703 
191.923 64.8265 97.9879 194.191 64.3203 97.1061 246.473 40.9836 101.012 
244.153 41.6177 100.643 247.36 40.9281 101.166 243.501 42.4549 100.178 
238.825 43.3456 99.6005 240.349 42.9435 99.7144 234.861 45.0684 98.7294 
236.499 44.3331 99.1357 242.08 43.8953 99.9622 239.582 45.1604 99.4284 
240.417 44.7682 99.9429 227.645 48.4734 97.3915 227.292 48.6826 97.4563 
228.296 48.2716 97.8082 239.033 45.5017 99.2916 239.222 45.4142 99.4629 
236.807 46.6752 98.8976 236.428 46.7935 99.0653 224.015 50.5377 97.2484 
229.196 49.9777 97.9626 227.987 50.8137 97.5777 222.14 52.2838 97.0075 
224.446 51.7357 97.5244 226.003 51.4424 97.5673 219.924 53.3115 96.8448 
220.438 53.3566 96.882 219.852 53.7804 96.8301 219.42 54.1379 96.6824 
219.585 53.8273 96.809 216.307 55.8835 95.9875 192.239 64.6617 97.8526 
193.52 64.4029 97.4091 195.328 64.0497 96.7756 188 65.0087 98.0175 
192.221 64.689 97.8662 191.996 64.7896 97.9594 192.784 64.5864 97.6715 
192.19 64.7496 97.8908 194.083 64.3223 97.1888 191.328 65.033 98.2182 
191.296 65.0449 98.2306 191.329 65.0322 98.2175 191.432 64.994 98.1778 
191.428 64.996 98.1796 191.632 64.9215 98.1006 191.638 64.9179 98.0975 
192.063 64.7872 97.9371 192.007 64.8036 97.9573 191.929 64.8269 97.9881 
191.331 65.0314 98.2167 191.433 64.9936 98.1771 191.632 64.9221 98.0998 
191.725 64.8916 98.0651 191.848 64.8517 98.0184 249.801 39.4491 102.024 
249.489 39.7268 101.882 241.338 42.2789 100.411 248.325 40.65 101.506 
247.254 41.4633 101.252 238.336 43.4384 99.7516 245.277 42.4609 100.777 
246.394 42.1154 101.191 234.359 45.2448 99.0359 233.999 45.4683 99.1921 
235.699 44.6071 99.5397 244.739 42.853 100.817 243.53 43.4857 100.73 
245.659 42.5865 101.204 230.83 47.1312 98.5384 239.082 45.4087 100.005 
227.914 48.5351 97.8824 236.355 46.5547 99.6586 227.79 48.8159 98.0611 
226.766 49.5814 98.038 231.721 48.2063 98.8056 228.598 49.8327 98.1922 
225.405 50.6367 97.8538 227.271 50.4473 98.0244 223.491 51.5916 97.3595 
224.826 51.6845 97.5604 225.519 51.1046 97.802 219.728 53.5078 96.854 
191.879 64.8407 98.0076 191.331 65.0316 98.2167 191.429 64.9956 98.1789 
191.611 64.9308 98.1091 191.766 64.8782 98.0501 191.918 64.8306 97.993 
[...]
POINT_DATA 1372
SCALARS scalars float
LOOKUP_TABLE default
1 1 1 1 1 1 1 1 1 
1 1 1 1 1 1 1 1 1 
1 1 1 1 1 1 1 1 1 
1 1 1 1 1 1 1 1 1 
1 1 1 1 1 1 1 1 1 
1 1 1 1 1 1 1 1 1 
1 1 1 1 1 1 1 1 1 
1 1 1 1 1 1 1 1 1 
1 1 1 1 1 1 1 1 1 
1 1 1 1 1 1 1 1 1 
1 1 1 1 1 1 1 1 1 
1 1 1 1 1 1 1 1 1 
1 1 1 1 1 1 1 1 1 
1 1 1 1 1 1 1 1 1 
1 1 1 1 1 1 1 1 1 
1 1 1 1 1 1 1 1 1 
1 1 1 1 1 1 1 1 1 
1 1 1 1 1 1 1 1 1 
1 1 1 1 1 1 1 1 1 
1 1 1 1 1 1 1 1 1 
1 1 1 1 1 1 1 1 1 
1 1 1 1 1 1 1 1 1 
1 1 1 1 1 1 1 1 1 
1 1 1 1 1 1 1 1 1 
1 1 1 1 1 1 1 1 1 
1 1 1 1 1 1 1 1 1 
1 1 1 1 1 1 1 1 1 
1 1 1 1 1 1 1 1 1 
1 1 1 1 1 1 1 1 1 
1 1 1 1 1 1 1 1 1 
1 1 1 1 1 1 1 1 1 
1 1 1 1 1 1 1 1 1 
1 1 1 1 1 1 1 1 1 
1 1 1 1 1 1 1 1 1 
1 1 1 1 1 1 1 1 1 
1 1 1 1 1 1 1 1 1 
1 1 1 1 1 1 1 1 1 
1 1 1 1 1 1 1 1 1 
1 1 1 1 1 1 1 1 1 
1 1 1 1 1 1 1 1 1 
1 1 1 1 1 1 1 1 1 
1 1 1 1 1 1 1 1 1 
1 1 1 1 1 1 1 1 1 
1 1 1 1 1 1 1 1 1 
1 1 1 1 1 1 1 1 1 
1 1 1 1 1 1 1 1 1 
1 1 1 1 1 1 1 1 1 
1 1 1 1 1 1 1 1 1 
1 1 1 1 1 1 1 1 1 
1 1 1 1 1 1 1 1 1 
1 1 1 1 1 1 1 1 1 
1 1 1 1 1 1 1 1 1 
1 1 1 1 1 1 1 1 1 
1 1 1 1 1 1 1 1 1 
1 1 1 1 1 1 1 1 1 
1 1 1 1 1 1 1 1 1 
1 1 1 1 1 1 1 1 1 
1 1 1 1 1 1 1 1 1 
1 1 1 1 1 1 1 1 1 
1 1 1 1 1 1 1 1 1 
1 1 1 1 1 1 1 1 1 
1 1 1 1 1 1 1 1 1 
1 1 1 1 1 1 1 1 1 
1 1 1 1 1 1 1 1 1 
1 1 1 1 1 1 1 1 1 
1 1 1 1 1 1 1 1 1 
1 1 1 1 1 1 1 1 1 
1 1 1 1 1 1 1 1 1 
1 1 1 1 1 1 1 1 1 
1 1 1 1 1 1 1 1 1 
1 1 1 1 1 1 1 1 1 
1 1 1 1 1 1 1 1 1 
1 1 1 1 1 1 1 1 1 
1 1 1 1 1 1 1 1 1 
1 1 1 1 1 1 1 1 1 
1 1 1 1 1 1 1 1 1 
1 1 1 1 1 1 1 1 1 
1 1 1 1 1 1 1 1 1 
1 1 1 1 1 1 1 1 1 
1 1 1 1 1 1 1 1 1 
1 1 1 1 1 1 1 1 1 
1 1 1 1 1 1 1 1 1 
1 1 1 1 1 1 1 1 1 
1 1 1 1 1 1 1 1 1 
1 1 1 1 1 1 1 1 1 
1 1 1 1 1 1 1 1 1 
1 1 1 1 1 1 1 1 1 
1 1 1 1 1 1 1 1 1 
1 1 1 1 1 1 1 1 1 
1 1 1 1 1 1 1 1 1 
1 1 1 1 1 1 1 1 1 
1 1 1 1 1 1 1 1 1 
1 1 1 1 1 1 1 1 1 
1 1 1 1 1 1 1 1 1 
1 1 1 1 1 1 1 1 1 
1 1 1 1 1 1 1 1 1 
1 1 1 1 1 1 1 1 1 
1 1 1 1 1 1 1 1 1 
1 1 1 1 1 1 1 1 1 
1 1 1 1 1 1 1 1 1 
1 1 1 1 1 1 1 1 1 
1 1 1 1 1 1 1 1 1 
1 1 1 1 1 1 1 1 1 
1 1 1 1 1 1 1 1 1 
1 1 1 1 1 1 1 1 1 
1 1 1 1 1 1 1 1 1 
1 1 1 1 1 1 1 1 1 
1 1 1 1 1 1 1 1 1 
1 1 1 1 1 1 1 1 1 
1 1 1 1 1 1 1 1 1 
1 1 1 1 1 1 1 1 1 
1 1 1 1 1 1 1 1 1 
1 1 1 1 1 1 1 1 1 
1 1 1 1 1 1 1 1 1 
1 1 1 1 1 1 1 1 1 
1 1 1 1 1 1 1 1 1 
1 1 1 1 1 1 1 1 1 
1 1 1 1 1 1 1 1 1 
1 1 1 1 1 1 1 1 1 
1 1 1 1 1 1 1 1 1 
1 1 1 1 1 1 1 1 1 
1 1 1 1 1 1 1 1 1 
1 1 1 1 1 1 1 1 1 
1 1 1 1 1 1 1 1 1 
1 1 1 1 1 1 1 1 1 
1 1 1 1 1 1 1 1 1 
1 1 1 1 1 1 1 1 1 
1 1 1 1 1 1 1 1 1 
1 1 1 1 1 1 1 1 1 
1 1 1 1 1 1 1 1 1 
1 1 1 1 1 1 1 1 1 
1 1 1 1 1 1 1 1 1 
1 1 1 1 1 1 1 1 1 
1 1 1 1 1 1 1 1 1 
1 1 1 1 1 1 1 1 1 
1 1 1 1 1 1 1 1 1 
1 1 1 1 1 1 1 1 1 
1 1 1 1 1 1 1 1 1 
1 1 1 1 1 1 1 1 1 
1 1 1 1 1 1 1 1 1 
1 1 1 1 1 1 1 1 1 
1 1 1 1 1 1 1 1 1 
1 1 1 1 1 1 1 1 1 
1 1 1 1 1 1 1 1 1 
1 1 1 1 1 1 1 1 1 
1 1 1 1 1 1 1 1 1 
1 1 1 1 1 1 1 1 1 
1 1 1 1 1 1 1 1 1 
1 1 1 1 1 1 1 1 1 
1 1 1 1 1 1 1 1 1 
1 1 1 1 1 1 1 1 1 
1 1 1 1 1 1 1 1 1 
1 1 1 1 
NORMALS Normals float
0.262056 -0.407069 -0.874998 -0.248223 -0.308072 -0.91841 0.343938 -0.23526 -0.909043 
-0.147371 -0.0370751 -0.988386 0.00449932 -0.0627655 -0.998018 0.19285 -0.0366798 -0.980542 
0.538492 0.401539 -0.740805 0.560634 0.084392 -0.823752 0.0973449 -0.627468 -0.772533 
-0.0948843 -0.481087 -0.871523 0.590866 -0.341029 -0.731147 0.701998 -0.141855 -0.697908 
0.856364 0.0163709 -0.516113 -0.0521307 0.0530025 -0.997233 0.323956 0.480776 -0.814805 
0.916127 -0.101494 -0.387828 0.660611 0.252474 -0.707 0.834782 0.546631 -0.065832 
-0.147009 0.560219 -0.815195 -0.0235243 0.266272 -0.963611 0.431502 0.679141 -0.593779 
0.513525 0.836452 -0.191416 0.543531 0.800695 -0.251918 0.467839 0.812332 -0.348199 
-0.177978 0.39802 -0.899946 0.198374 0.622242 -0.757273 0.49727 0.81924 -0.285603 
0.173565 0.909584 -0.377533 0.560842 -0.391973 -0.729255 -0.237464 -0.200726 -0.950432 
-0.153817 0.373183 -0.914918 0.706458 0.684356 0.180484 -0.261627 0.228643 -0.937696 
-0.0242195 0.728492 -0.684625 0.128284 0.873164 -0.470242 0.0880108 0.916064 -0.391257 
0.294281 0.937213 -0.187163 -0.169625 -0.255002 -0.951946 -0.0723869 -0.0820211 -0.993998 
-0.155604 -0.278723 -0.947682 0.192855 0.329734 -0.924166 -0.215961 -0.254279 -0.942711 
-0.172817 -0.454751 -0.873691 0.0660177 0.26022 -0.96329 -0.162441 -0.0484528 -0.985528 
-0.0248801 -0.0575665 -0.998032 -0.45564 -0.183364 -0.871074 -0.807335 -0.372495 -0.457665 
-0.889486 0.185758 -0.417503 0.0304939 0.365408 -0.930348 -0.0766281 0.0286883 -0.996647 
-0.0611076 0.0890681 -0.994149 -0.351197 0.782248 -0.514538 -0.131254 0.776881 -0.615816 
0.476841 -0.412983 -0.77593 0.761267 0.645039 -0.0663136 -0.152586 -0.26295 -0.952667 
0.509981 0.855334 0.0912288 0.293783 0.955374 -0.0308661 -0.208759 -0.545263 -0.811855 
0.0992386 0.292485 -0.951107 0.246727 0.818778 -0.518389 0.253438 0.931606 -0.260536 
-0.22741 -0.486702 -0.843449 -0.253406 -0.438963 -0.862031 -0.190737 -0.133989 -0.972454 
0.288613 0.750772 -0.594174 -0.366508 -0.509381 -0.77859 0.336266 0.806173 -0.486838 
0.494503 0.790884 -0.360511 -0.459266 -0.466472 -0.755962 0.0666673 -0.0306026 -0.997306 
0.235448 0.470117 -0.85062 -0.795265 0.558502 -0.235859 -0.861914 0.0191484 -0.506693 
-0.0524688 0.360696 -0.931206 0.118222 0.270003 -0.955574 -0.754317 0.461414 -0.467014 
-0.308482 0.444621 -0.840923 0.358383 0.735059 -0.575543 0.187699 0.405132 -0.894783 
0.0837641 0.836331 -0.541788 0.57561 0.780385 -0.24428 -0.542618 0.452367 -0.707763 
-0.818682 0.47552 -0.321933 -0.551311 0.752492 -0.360294 -0.178561 0.692619 -0.698853 
0.419224 0.904087 0.0829329 -0.170843 0.953395 -0.248697 0.0310709 0.978749 -0.202694 
0.166392 -0.658328 -0.73411 0.512662 -0.324304 -0.794987 0.255011 -0.531254 -0.807923 
-0.24855 -0.444282 -0.860719 0.523307 0.7835 0.335078 0.468274 0.807374 0.358982 
-0.357396 -0.430548 -0.828792 -0.349171 -0.513243 -0.784003 0.346745 0.92033 -0.181001 
0.367704 0.909317 -0.194773 0.380051 0.898219 -0.220827 -0.563389 -0.160434 -0.810465 
-0.751683 -0.211419 -0.62472 0.412896 0.900173 -0.138585 -0.806818 -0.059139 -0.587833 
0.418397 0.905419 -0.0718386 0.356081 0.932272 -0.0638329 -0.0132648 0.70446 -0.70962 
-0.34007 0.933456 0.114072 -0.629193 0.776337 -0.037632 0.114046 0.954182 -0.27664 
0.330148 0.94067 0.0783694 0.216819 -0.397851 -0.891462 0.705418 0.0469625 -0.707234 
-0.347627 -0.733735 -0.583771 0.71574 0.698351 0.00474175 0.320936 0.883498 0.341221 
-0.348182 -0.656114 -0.66954 -0.613803 -0.455685 -0.644668 0.380698 0.91708 0.118462 
0.483727 0.875119 0.0132273 -0.847952 0.059512 -0.526721 -0.846822 0.032447 -0.530886 
-0.824217 0.48072 -0.299291 0.332719 0.943015 -0.00453036 0.138514 -0.509664 -0.849151 
0.215612 -0.518829 -0.827241 0.125268 -0.648711 -0.750654 -0.203341 -0.776363 -0.596584 
-0.178453 -0.744259 -0.64361 -0.457552 -0.665271 -0.589966 0.369993 0.909694 0.188579 
0.374447 0.865602 0.33245 -0.479871 -0.660341 -0.577645 0.428419 0.840834 0.330839 
-0.700354 -0.338477 -0.628441 -0.775469 0.324557 -0.541581 0.33492 0.872369 0.356092 
-0.333941 0.922447 0.19384 0.0205043 0.982744 0.18383 0.441715 -0.0809529 -0.893496 
0.620031 0.325738 -0.713762 0.608212 0.774756 -0.172718 0.55937 0.392279 -0.73022 
0.673065 0.423412 -0.606388 0.664864 0.578731 -0.472257 -0.365678 -0.76096 -0.535928 
-0.386061 -0.83822 -0.385155 0.43889 0.862327 0.252521 -0.449656 -0.759637 -0.469853 
0.362013 0.85004 0.382595 -0.299634 0.942989 0.144881 -0.611816 0.790885 -0.013464 
0.105658 0.872528 0.477003 -0.0499796 -0.49693 -0.86635 0.369358 -0.148757 -0.917304 
-0.275173 -0.860794 -0.42815 0.454522 -0.121692 -0.882384 0.635652 0.443607 -0.631791 
0.669534 0.679824 -0.299272 0.386281 0.822722 0.417032 -0.412022 -0.906269 -0.0944182 
-0.420541 -0.8878 -0.186967 -0.365433 -0.851325 -0.376435 0.271997 0.635291 0.722789 
-0.591904 -0.512504 -0.622085 0.343003 0.803324 0.486846 -0.0613967 0.967678 0.244602 
0.0709519 0.865884 0.495188 0.00223785 -0.630096 -0.776514 0.090363 -0.511504 -0.854516 
0.363212 -0.144588 -0.920419 0.400941 -0.0133373 -0.916007 0.574109 0.818534 -0.0200284 
-0.414781 -0.89257 0.176852 0.247249 0.734447 0.632025 0.351144 0.684267 0.639121 
-0.520743 0.439422 -0.73194 -0.31042 0.919142 -0.242522 0.137263 0.912347 0.385723 
0.0387011 -0.583481 -0.811204 0.0753514 -0.555895 -0.82783 0.212583 -0.407874 -0.887946 
0.324229 -0.0810895 -0.942497 -0.157386 -0.791186 -0.590978 -0.395825 -0.633578 -0.664757 
-0.474485 -0.864894 -0.163777 0.527992 0.847924 -0.0474322 -0.437971 -0.88462 0.16009 
-0.417808 -0.889806 0.183527 -0.512727 -0.817584 0.262046 -0.498174 -0.865292 0.0556019 
-0.445912 -0.891413 -0.080904 -0.389912 -0.914186 0.110602 -0.233951 -0.744908 0.624803 
0.142953 0.42827 0.892272 -0.305463 -0.95185 0.0259735 -0.324603 -0.930155 0.171594 
-0.350236 -0.92982 -0.113008 -0.374196 -0.867973 -0.326498 -0.528428 -0.224139 -0.818856 
0.292961 0.618656 0.728998 0.189172 0.798836 0.571029 -0.165925 0.970333 -0.175846 
0.00340941 0.991149 -0.132709 0.0446013 0.99181 0.119682 0.0400074 -0.53773 -0.842167 
-0.0897477 -0.700818 -0.707672 0.136157 -0.298988 -0.944493 0.202039 -0.216192 -0.955218 
0.222941 -0.139282 -0.964831 -0.15761 -0.747592 -0.645186 -0.21054 -0.781748 -0.586978 
0.434058 0.317225 -0.843186 -0.329727 -0.839186 -0.43249 0.537551 0.403831 -0.740243 
0.507196 0.692188 -0.513447 -0.360701 -0.932326 0.0257549 0.563379 0.794423 -0.226928 
-0.408018 -0.904648 -0.123019 0.526138 0.849287 -0.0434863 0.507081 0.861377 -0.029978 
-0.505592 -0.843846 0.179723 0.567386 0.820227 -0.0728015 -0.499237 -0.744096 0.44394 
-0.403243 -0.805649 0.433964 -0.456096 -0.629325 0.629227 -0.371431 -0.394152 0.840645 
0.201186 0.715837 0.668657 -0.344591 -0.352365 0.870113 -0.274136 -0.491102 0.826842 
0.214486 0.548733 0.808015 -0.263039 -0.781663 0.56552 -0.252226 -0.893608 0.371277 
-0.011452 -0.0834832 0.996443 0.0627838 0.344673 0.936621 -0.108288 -0.519633 0.847499 
0.045258 0.0901112 0.994903 -0.164867 -0.631145 0.757941 -0.210832 -0.571397 0.79313 
-0.0381296 -0.393915 0.918356 -0.0858032 -0.925737 0.368306 -0.184995 -0.957228 0.222466 
-0.120007 -0.834229 0.538201 0.0633181 -0.446607 0.892487 0.0636887 -0.0846413 0.994374 
-0.452164 -0.460116 -0.764095 -0.1629 -0.967629 0.192763 -0.312159 0.271461 -0.910421 
-0.34715 0.329417 -0.87805 -0.399792 0.362857 -0.841725 -0.135606 0.842467 -0.521403 
-0.213343 0.853125 -0.476091 0.0351673 0.991273 0.12705 -0.0167975 -0.594368 -0.804017 
0.146423 -0.232163 -0.961593 -0.116765 -0.691872 -0.712516 0.447826 0.175444 -0.876739 
-0.172059 -0.917127 -0.359546 0.335862 0.0831239 -0.938236 0.471564 0.508429 -0.720505 
0.549947 0.570055 -0.610406 -0.410481 -0.873203 -0.262721 -0.498643 -0.862511 -0.0861962 
0.494858 0.740325 -0.45501 0.485758 0.808198 -0.332948 0.535503 0.840669 -0.0807026 
-0.420978 -0.906693 0.0261859 0.392872 0.837144 0.380581 -0.484251 -0.814179 0.320332 
-0.45317 -0.67762 0.579196 -0.360291 -0.46116 0.810877 0.292157 0.838515 0.459932 
-0.39116 -0.536009 0.748123 -0.461302 -0.608685 0.645525 -0.473053 -0.63793 0.607673 
0.228527 0.741355 0.631006 0.150598 0.585054 0.796889 -0.184753 -0.0572339 0.981117 
0.060036 0.439099 0.896431 0.109902 0.445932 0.888294 -0.0780296 0.0854764 0.99328 
0.033371 0.227857 0.973122 0.0997635 0.40381 0.909387 -0.0347269 -0.587516 0.808467 
0.131962 -0.0720396 0.988634 -0.123105 -0.943009 0.309159 0.0914521 -0.598539 0.795856 
0.275117 0.163057 0.947482 0.172897 -0.520089 0.836429 0.194873 -0.493952 0.84737 
0.332556 0.291273 0.896976 0.32697 0.242315 0.913441 0.144771 0.103625 0.984024 
0.0351389 -0.792542 0.608805 0.169056 -0.52267 0.835605 0.134699 -0.595261 0.792162 
-0.408758 -0.443902 -0.797414 0.124477 -0.628557 0.767738 0.0394312 -0.767139 0.640268 
0.208589 -0.409201 0.888282 0.40117 0.606618 0.68635 0 -0.0594313 -0.998232 
0 -0.997072 -0.0764723 -0.979214 -0.200107 -0.0331364 0.979214 -0.200107 -0.0331364 
-0.307328 0.152448 -0.939313 0.217727 0.828252 0.516326 0 0.6 -0.8 
-0.295448 0.199834 -0.934225 -0.301583 0.18563 -0.935195 0.0273485 0.846739 -0.531305 
0.113177 0.973685 -0.197808 -0.135086 0.776583 -0.615362 0.187445 0.948423 0.255652 
-0.093944 0.638315 -0.764021 0.171604 0.984069 0.0464795 0.0798103 -0.425197 -0.901575 
-0.127513 -0.60138 -0.788722 0.279583 0.0413162 -0.959232 0.14439 -0.266788 -0.952877 
-0.226803 -0.908685 -0.350502 -0.0439451 -0.65073 -0.758037 -0.393397 -0.756076 -0.523057 
-0.335907 -0.912048 -0.235234 0.493297 0.813393 -0.308301 0.577032 0.780441 -0.24072 
0.544856 0.781935 -0.302836 -0.476245 -0.87382 0.0981315 -0.568299 -0.796843 0.205126 
-0.418471 -0.84078 0.34347 0.478051 0.87111 -0.112401 0.501718 0.864795 0.0202101 
0.45958 0.87705 0.13989 0.324414 0.88608 0.331086 -0.458408 -0.597199 0.658191 
0.212356 0.652668 0.727275 0.129691 0.752249 0.645989 -0.105516 0.147259 0.983454 
-0.0442617 0.369986 0.927982 0.0688138 0.632837 0.771222 -0.214616 -0.291974 0.932036 
0.0479348 0.259608 0.964524 0.108958 0.298263 0.948244 -0.00117223 0.472891 0.88112 
-0.39962 0.0529755 0.915149 0.0588017 0.346099 0.936353 -0.287268 0.222273 -0.931704 
0.360195 0.147977 0.921066 0.362807 0.57624 0.732337 0 -0.238202 0.971216 
0.195437 -0.336744 0.921091 0.131788 -0.53291 0.835846 0.395112 0.506826 0.766168 
0.423205 0.436994 0.793684 0.337954 0.804134 0.489036 0.367328 0.0216387 0.92984 
0.143659 -0.498068 0.855155 0.160869 -0.469077 0.868382 0.145376 -0.50123 0.853015 
0.350128 -0.0287977 0.936259 0.215325 -0.370011 0.903729 0.0104176 -0.717878 0.696091 
0.279211 0.960177 -0.0100665 0.195333 0.954339 -0.226014 0.26557 0.96196 -0.0640672 
0.0167415 -0.696452 0.717408 -0.353568 0.0289542 -0.93496 -0.15521 0.505114 -0.848981 
0.152052 0.909131 -0.387763 0.179985 0.937229 -0.298675 0.100051 -0.40425 -0.90916 
0.2734 0.0945457 -0.957243 -0.283093 -0.863611 -0.417174 0.337409 -0.0867049 -0.937357 
0.45765 0.513462 -0.725888 -0.33492 -0.920613 -0.200751 0.435706 0.563595 -0.701798 
0.442196 0.555951 -0.703833 -0.396776 -0.912877 0.0960452 -0.506971 -0.859464 -0.0655813 
-0.399943 -0.915633 -0.040768 0.443477 0.816526 -0.369614 0.437753 0.886475 -0.150115 
0.38978 0.886528 -0.249277 -0.46521 -0.599212 0.651556 0.419948 0.899099 0.123552 
-0.487287 -0.698649 0.523871 0.270958 0.858647 0.435094 -0.347658 -0.490098 0.799336 
-0.328393 -0.279486 0.902245 0.0863804 0.554675 0.827571 0.0405878 0.371872 0.927396 
-0.36876 -0.28185 0.885764 0.0912604 0.536441 0.838989 -0.251027 -0.0971089 0.963097 
-0.00617139 0.370267 0.928905 -0.0872191 0.307453 0.947558 -0.3996 -0.263729 0.877933 
0.296825 -0.178702 0.938062 -0.183815 0.429794 -0.884019 0.109268 0.85083 -0.513954 
0.250324 0.946051 -0.205731 0.0207627 0.784164 -0.620207 0.34807 0.919049 0.184924 
0.137433 -0.826877 -0.545333 -0.732633 0.414263 -0.540033 0.524608 0.625326 -0.577714 
0.666727 -0.392854 0.633357 -0.129927 0.776429 0.616665 0.0332629 -0.30119 -0.952984 
0.460834 0.0168587 -0.887326 0.212066 -0.151464 -0.965446 0.291051 0.097724 -0.951704 
0.480398 0.290479 -0.82755 -0.250696 -0.786034 -0.565068 -0.444402 -0.889107 -0.109522 
0.409629 0.298666 -0.861976 -0.377122 -0.919103 0.114142 -0.447658 -0.888179 0.103634 
-0.467467 -0.789058 0.398575 -0.487664 -0.78567 0.380667 0.488568 0.772577 -0.405494 
0 -0.970142 -0.242536 0 -0.999195 -0.0401092 -0.350876 -0.935669 -0.0375591 
0.350876 -0.935669 -0.0375591 0.467864 0.827427 -0.310594 0 0.996757 0.0804736 
0.304742 0.94342 0.130732 0.402032 0.898893 -0.174245 -0.130201 -0.0987725 0.986555 
-0.214801 -0.0552365 0.975095 -0.11918 0.18651 0.975197 -0.17731 -0.0258399 0.983816 
0.0289024 0.181705 0.982928 -0.154398 0.0623116 0.986042 -0.0337155 0.251277 0.967328 
-0.471421 -0.580414 0.663989 -0.144298 -0.708375 -0.690929 -0.195553 -0.562538 -0.803312 
0.136727 -0.263488 -0.954924 -0.195315 -0.801343 -0.565422 -0.335743 -0.910164 -0.242649 
0.313799 0.236288 -0.919618 -0.341902 -0.905147 -0.25261 0.514103 0.388402 -0.76475 
-0.437215 -0.89542 0.0840588 0.490264 0.661016 -0.568066 -0.4372 -0.599493 0.670421 
0.494087 0.777205 -0.389654 -0.457272 -0.698892 0.549957 0.477354 0.87458 -0.0851047 
0.349312 0.920442 0.175407 0.373261 0.898091 0.232613 0 -0.986394 0.164399 
0.398023 0.883514 0.246943 0.24866 0.922596 0.294931 -0.253035 0.0117732 0.967385 
-0.413141 -0.274073 0.868446 -0.319979 -0.127198 0.938847 0.0152803 0.671629 0.74073 
0.107442 -0.248542 -0.962644 0.15034 -0.605372 -0.781615 0.026913 -0.46379 -0.885536 
0.0373608 -0.33022 -0.943164 0.227316 -0.0772991 -0.970748 -0.240773 -0.773575 -0.586183 
0.187101 0.0660063 -0.980121 0.404441 0.639184 -0.654119 0.427621 0.68044 -0.595098 
-0.458088 -0.86224 0.216096 0.424264 0.794152 -0.435112 -0.398488 -0.798929 0.450466 
0.490307 0.812571 -0.315164 0.405868 0.909342 -0.0914802 -0.421132 -0.43139 0.797841 
0.462954 0.884878 0.0516239 0.277757 0.894189 0.351109 0.358196 0.895404 0.264476 
0.351163 0.869285 0.34789 0.0959616 0.894367 0.43692 0.252201 0.761769 0.596743 
-0.255068 0.138484 0.956955 -0.0380744 -0.60531 -0.795078 -0.16555 -0.769505 -0.616811 
-0.0988797 -0.514545 -0.851743 -0.0562246 -0.75421 -0.654222 -0.227064 -0.809115 -0.54201 
0.224799 -0.076476 -0.971399 0.268295 0.199706 -0.942409 0.299919 -0.115635 -0.94693 
0.397576 0.435822 -0.807461 0.366558 0.627725 -0.686729 -0.492633 -0.811229 0.314991 
-0.428213 -0.895385 0.122146 0.38286 0.923751 0.0101277 0.346672 0.937328 -0.0351391 
-0.450301 -0.666085 0.594609 -0.362159 -0.59681 0.716002 0.332637 0.906455 0.260177 
-0.315378 -0.118703 0.941513 -0.197225 0.21158 0.957255 0.206244 0.732679 0.648571 
-0.0732374 0.429899 0.899902 0.0439746 0.77567 0.629604 0.172894 0.579585 0.796359 
0.194755 -0.465962 -0.863105 0.304019 -0.576424 -0.758491 0.0711277 -0.651351 -0.755436 
0.395093 -0.253457 -0.882985 0.430483 0.200482 -0.880052 -0.349505 -0.92037 -0.175402 
0.405183 0.882959 -0.237087 -0.494311 -0.454246 0.741159 0.421591 0.904344 0.0665066 
-0.457226 -0.464156 0.75862 -0.510974 -0.519801 0.684626 0.226312 0.910681 0.345605 
0.301184 0.95169 0.0597911 0.209048 0.82213 0.529529 0.0209619 0.457495 0.888965 
0.688375 -0.267665 -0.674162 0.8674 -0.481825 -0.124344 0.482805 -0.293845 -0.824957 
0.878921 0.442508 -0.178002 0.471911 -0.357223 -0.806034 0.580927 -0.204665 -0.787805 
0.444356 -0.151387 -0.882966 0.826901 -0.000431185 -0.562347 -0.416543 -0.907607 -0.0523558 
0.553483 0.555276 -0.620745 0.61988 0.564632 -0.544921 0.740132 0.557918 -0.37541 
-0.454654 -0.880527 0.134023 0.469461 0.704151 -0.532708 0.429839 0.810251 -0.398411 
0.31003 0.889229 0.336382 0.312609 0.949546 0.0252735 -0.42755 -0.309008 0.849538 
0.116506 0.808455 0.576911 0.266731 0.93197 0.245534 -0.151469 0.339855 0.9282 
0.0328073 -0.872703 -0.487149 0.185104 -0.668573 -0.720241 0.45107 -0.206903 -0.868174 
0.0621391 -0.824027 -0.563133 0.974107 0.155649 -0.163975 0.895647 -0.103628 -0.432525 
-0.46676 -0.86774 0.170772 -0.271973 -0.921029 -0.278813 0.952004 0.251484 -0.174482 
-0.392306 -0.781134 0.485722 -0.250248 -0.492642 0.833474 0.862796 0.493959 -0.107644 
-0.397835 -0.742729 0.538592 0.555023 0.780429 -0.287889 -0.414392 -0.496002 0.76306 
0.270207 0.928808 0.253583 0.192729 0.942829 0.2719 0.46985 0.88082 -0.0582818 
0.653165 0.75457 -0.0632464 -0.178289 0.217108 0.959728 0.110531 0.759039 0.641594 
0.267035 0.871163 0.412028 0.0257314 0.702073 0.71164 -0.126915 0.383916 0.914604 
0.0197542 0.602936 0.797545 0.135689 -0.9204 -0.366677 0.509967 -0.856811 -0.076217 
-0.228373 -0.896667 -0.379255 0.455333 -0.869119 -0.193143 0.927564 -0.371379 0.0412581 
-0.393979 -0.894517 0.211234 0.99345 0.07095 0.0895723 0.987765 -0.0762751 0.136023 
-0.509835 -0.729711 0.455621 0.980798 0.0116504 -0.194676 0.83049 0.500491 0.24453 