# vtk DataFile Version 4.2
vtk output
ASCII
DATASET POLYDATA
POINTS 1447 float
216.154 119.475 71.5462 216.088 119.449 71.5547 216.083 119.533 71.5312 
216.201 119.398 71.6254 215.821 120.299 71.4821 216.181 119.541 71.613 
215.116 121.063 71.4047 214.944 121.125 71.4116 215.722 118.145 71.9773 
216.078 119.181 71.6975 215.85 119.684 71.5432 214.432 120.207 71.3664 
216.28 119.812 71.7472 215.647 120.762 71.5599 214.758 121.514 71.554 
215.712 117.687 72.2362 214.042 117.942 71.8496 214.634 117.974 71.8564 
210.915 120.432 71.6814 211.071 122.668 71.783 208.022 124.661 72.4974 
214.572 115.562 73.1194 215.097 115.091 73.6742 209.544 119.108 72.2006 
217.467 119.006 73.2787 216.993 120.644 72.5522 212.505 124.822 73.0174 
210.722 125.438 73.0285 212.988 113.767 73.8578 217.524 117.955 73.8786 
217.433 121.002 73.3944 217.94 121.485 74.367 207.858 127.261 73.8988 
200.474 128.285 74.5719 212.803 111.923 75.049 211.232 112.888 74.3684 
215.333 113.784 75.0112 217.887 119.139 74.2911 218.256 121.369 74.8315 
218.388 121.725 74.972 218.437 121.703 75.0494 217.552 122.497 74.2478 
218.249 121.89 74.9367 218.408 121.793 75.1065 216.59 123.524 73.996 
199.082 126.847 74.5968 210.785 126.773 74.1727 197.72 129.213 75.3609 
199.695 129.186 75.0524 217.974 118.789 75.0686 218.356 121.364 75.193 
218.369 121.929 75.453 218.232 122.243 75.1704 218.378 122.37 75.4679 
218.14 122.639 75.3684 216.43 124.664 75.1577 214.234 125.869 74.8798 
196.387 127.4 75.5066 196.092 130.042 76.1585 214.128 110.445 76.9016 
218.326 121.035 75.9131 218.324 121.933 75.938 196.653 123.123 75.8458 
218.317 122.403 75.5747 217.923 123.221 75.6469 217.698 123.775 75.915 
210.086 128.108 75.6078 211.419 127.62 75.7081 202.182 130.35 75.9285 
195.387 131.859 77.2573 214.446 110.34 77.2646 215.089 111.076 77.3474 
217.937 118.683 76.7301 218.074 122.596 76.3716 217.828 123.52 76.2625 
216.565 124.897 75.9941 216.993 124.481 76.229 217.661 123.751 76.3312 
214.699 126.208 76.4249 216.512 125.032 76.2303 216.675 124.869 76.266 
214.083 126.57 76.2133 214.46 126.465 76.5416 216.365 125.132 76.3373 
214.357 126.545 76.5917 213.859 126.747 76.5073 209.365 128.746 76.4713 
206.703 129.731 76.7012 212.915 107.784 78.1379 214.695 109.856 78.3094 
216.884 124.205 77.1007 216.262 125.094 76.614 214.336 126.426 76.8559 
213.14 127.084 76.9595 188.829 130.823 78.5259 209.086 129.046 77.3454 
188.201 132.516 79.1286 196.378 132.422 77.7042 201.889 131.629 77.79 
193.179 133.116 78.4493 193.497 133.505 78.8343 210.731 103.791 80.1438 
208.955 104.263 79.5389 207.007 106.549 78.5322 213.155 106.275 79.7073 
213.674 107.085 79.5562 217.431 118.02 78.627 216.858 122.863 78.3009 
188.256 127.133 78.8687 209.123 128.979 78.2222 209.504 128.739 78.4034 
206.732 130.011 78.5124 186.024 132.634 79.8555 203 131.629 78.7201 
190.743 133.589 79.0872 212.223 104.757 80.2317 215.829 111.572 79.6499 
216.335 112.987 79.2896 217.112 119.221 79.2745 217.181 120.622 78.8494 
215.481 123.113 79.5319 210.863 127.223 79.4909 206.963 129.696 79.4591 
207.485 129.321 79.591 196.794 133.451 79.1407 201.416 132.27 79.4455 
201.794 132.168 79.8131 185.178 134.63 80.8092 186.556 134.995 80.8226 
193.298 134.535 80.3251 178.655 150.86 82.3149 178.936 151.526 82.47 
178.512 152.12 82.5172 178.235 152.259 82.5738 178.304 152.465 82.6825 
178.712 152.314 82.6494 178.525 152.51 82.7378 208.486 101.61 81.5626 
211.648 102.952 81.7703 212.821 105.203 80.405 213.536 105.774 81.0179 
213.992 106.558 81.1649 214.658 108.451 80.621 216.026 112.072 80.6304 
216.146 112.944 80.5919 216.181 119.161 80.5705 206.827 129.522 79.9678 
204.661 130.749 80.0479 202.399 131.847 80.172 182.5 135.72 81.621 
184.96 136.052 81.6575 189.712 135.211 80.9746 196.704 134.044 80.9419 
197.689 133.71 80.8339 186.575 135.956 81.6544 181.055 137.917 82.1985 
178.748 143.286 82.424 177.914 149.256 82.3356 177.428 151.335 82.5163 
209.869 100.824 82.7083 212.962 104.806 81.2405 215.888 113.151 81.5602 
215.904 114.337 81.7483 209.557 124.414 82.2332 205.976 127.928 82.0907 
203.418 130.072 81.9919 181.399 132.595 81.621 202.856 131.278 80.9949 
199.349 133.033 81.1231 193.249 135.006 81.5024 194.169 134.825 81.4743 
178.93 137.358 82.4315 188.131 135.954 81.8688 180.217 139.007 82.3555 
181.365 138.784 82.4371 179.85 143.926 82.662 180.196 146.89 82.9132 
180.382 151.314 83.1459 176.182 151.746 83.2665 176.931 152.062 82.9872 
180.154 152.275 83.4701 176.462 152.276 83.4073 176.784 152.328 83.1984 
177.085 152.488 83.2993 177.594 152.639 83.1792 176.631 152.332 83.268 
206.491 99.2177 83.4621 210.304 100.202 83.692 212.255 102.429 83.1961 
198.232 106.866 82.0717 214.504 107.455 82.7187 215.417 110.752 82.2777 
199.818 132.517 81.7917 185.188 137.195 82.6993 187.584 136.448 82.5501 
190.56 135.864 82.742 194.774 134.844 82.4644 182.955 138.263 82.6636 
189.568 136.178 82.9942 192.787 135.315 83.1565 195.267 134.658 82.5861 
176.35 140.166 83.116 181.194 141.355 82.983 180.704 144.159 83.123 
180.346 145.138 82.9607 174.761 147.397 83.4057 181.12 150.379 83.6434 
175.283 151.605 83.9835 176.558 152.452 83.7463 176.698 152.404 83.3627 
178.522 152.888 83.636 179.709 152.772 84.0072 180.076 152.811 84.3862 
180.598 152.53 84.1396 180.501 152.685 84.3704 208.365 97.5142 85.1324 
203.861 99.5637 83.9286 211.991 101.683 84.1971 212.816 103.4 83.4011 
214.656 108.577 84.1134 200.824 129.109 84.0866 198.886 131.57 83.58 
175.987 136.01 83.7016 195.742 134.181 83.0614 188.138 136.818 84.1742 
189.985 136.117 83.3519 182.649 139.587 83.229 181.646 143.679 83.8438 
181.273 151.647 84.2052 174.271 151.837 85.3079 174.859 151.755 84.5574 
177.023 152.89 84.7419 177.787 153.023 84.8936 176.549 152.687 84.5472 
180.799 152.613 84.6607 211.014 99.3507 85.5117 214.858 110.941 83.9796 
210.263 117.545 85.317 181.693 119.447 84.7819 193.342 134.393 84.4613 
189.342 136.327 84.4731 192.739 135.112 83.7887 183.969 139.138 83.9371 
185.109 138.642 84.7291 183.028 141.293 84.6059 182.287 143.562 84.6514 
172.406 147.781 85.024 172.26 149.413 85.5311 181.872 150.424 84.9645 
173.03 150.472 85.3474 172.825 151.033 86.1244 178.149 153.026 85.4226 
181.599 151.804 84.9093 181.468 152.068 84.8863 174.506 152.06 85.493 
181.106 152.444 84.7448 181.437 152.172 85.1146 180.28 152.818 84.9945 
181.273 152.346 85.1382 206.76 96.0434 86.2515 205.567 96.6466 85.8148 
211.085 99.2183 86.1486 211.792 100.657 85.7358 214.259 108.673 85.2592 
213.96 112.967 85.0528 173.772 130.821 85.9576 194.115 133.026 85.2467 
191.479 134.469 85.711 185.857 138.202 85.3579 183.846 140.55 85.5876 
183.138 141.603 85.0605 183.107 142.184 85.6316 182.673 143.766 85.7783 
182.018 147.824 85.2797 182.038 148.945 85.517 172.024 150.149 86.2189 
172.28 151.014 86.9994 181.676 151.631 85.0868 173.234 151.549 86.4521 
174.353 152.11 86.2362 176.091 152.665 85.6347 179.777 152.644 85.9737 
180.63 152.398 85.7984 213.33 104.405 86.6966 192.525 104.738 86.3179 
213.781 109.648 86.2049 214.078 111.522 85.3017 213.037 112.331 86.1929 
213.269 111.506 86.3322 196.139 126.638 87.5151 190.552 133.68 86.948 
190.454 134.267 86.5719 189.1 136.098 85.6762 183.689 141.043 86.3599 
182.876 143.236 86.1996 182.493 144.762 86.7836 181.8 149.565 86.425 
181.646 150.262 86.3924 171.177 150.502 88.0351 173.101 151.558 86.8756 
176.45 152.58 86.6097 179.876 152.204 86.6683 180.92 151.64 86.393 
209.369 96.1488 87.9304 213.323 105.069 87.3718 213.242 107.944 87.4995 
212.977 110.378 87.1531 212.383 111.1 87.3673 190.904 132.493 87.4493 
186.49 137.057 87.2683 185.164 138.613 86.9994 183.176 142.099 87.1054 
169.133 148.163 88.1712 181.385 149.25 87.3157 169.897 149.213 87.9553 
180.721 150.229 87.6019 169.732 149.678 88.6916 170.286 150.074 88.6 
177.153 152.017 87.8668 205.975 93.7959 88.7929 207.384 93.2553 90.0769 
205.222 93.9119 88.7308 212.917 103.988 88.4568 213.025 106.221 88.2231 
191.46 128.273 89.1449 183.74 140.265 87.8197 182.42 142.17 88.7288 
181.082 147.077 88.5659 171.484 150.797 89.5555 179.914 151.103 87.7326 
212.991 105.305 88.4108 211.843 107.781 89.6058 182.894 138.258 90.1124 
181.319 142.907 89.7163 180.444 145.117 89.8501 167.436 148.296 90.2753 
169.889 150.079 90.1722 169.483 149.849 89.791 170.631 150.363 90.2006 
173.591 151.285 89.2791 209.973 95.3688 90.9488 210.851 97.2698 90.4142 
182.442 106.832 90.8869 210.577 107.606 90.8785 177.962 149.174 90.084 
169.694 149.752 91.3257 177.76 149.863 89.791 175.649 150.848 89.7351 
211.344 98.4797 91.6637 211.973 103.136 91.0513 208.926 107.686 91.9953 
177.848 146.124 91.4131 166.527 148.327 92.1537 167.077 148.649 92.0366 
168.897 149.163 92.474 170.847 150.066 91.1188 171.338 149.816 91.5706 
205.827 90.5042 93.5157 211.236 98.8559 92.8001 211.517 100.344 92.2133 
211.49 102.063 92.2585 163.17 142.487 92.7591 163.097 145.298 93.2803 
163.209 145.806 93.373 174.587 146.904 92.9256 163.506 146.241 93.3246 
163.208 146.301 93.7449 165.6 147.965 93.6244 165.713 147.993 94.0347 
205.217 89.7254 94.5869 206.507 90.0721 94.6345 196.721 92.9962 93.8515 
209.891 94.0793 94.3525 207.022 107.131 93.4874 202.086 109.253 94.5679 
190.802 118.763 94.4971 162.002 145.154 94.4699 164.116 147.269 94.4561 
173.064 147.438 93.4339 163.751 146.972 94.0966 168.734 148.474 93.8954 
207.596 90.2942 95.3402 209.725 93.3992 95.1795 210.851 102.703 93.1773 
206.858 104.64 95.4088 161.635 136.552 94.8447 161.55 143.237 94.6056 
161.545 145.222 95.3255 163.247 146.795 94.9992 163.753 147.039 95.361 
162.115 145.91 95.1205 166.301 148.07 94.3971 206.061 88.9115 96.0969 
209.791 93.4002 95.5825 210.7 99.0787 94.8708 161.616 132.18 95.7395 
177.047 131.912 96.458 161.114 134.425 95.9492 160.851 141.366 95.6435 
172.286 143.076 96.1636 171.764 144.463 95.9443 160.782 144.343 96.2029 
162.361 146.183 95.8721 161.285 145.261 96.1808 164.167 147.023 95.8984 
[...]
POINT_DATA 1447
SCALARS scalars float
LOOKUP_TABLE default
1 1 1 1 1 1 1 1 1 
1 1 1 1 1 1 1 1 1 
1 1 1 1 1 1 1 1 1 
1 1 1 1 1 1 1 1 1 
1 1 1 1 1 1 1 1 1 
1 1 1 1 1 1 1 1 1 
1 1 1 1 1 1 1 1 1 
1 1 1 1 1 1 1 1 1 
1 1 1 1 1 1 1 1 1 
1 1 1 1 1 1 1 1 1 
1 1 1 1 1 1 1 1 1 
1 1 1 1 1 1 1 1 1 
1 1 1 1 1 1 1 1 1 
1 1 1 1 1 1 1 1 1 
1 1 1 1 1 1 1 1 1 
1 1 1 1 1 1 1 1 1 
1 1 1 1 1 1 1 1 1 
1 1 1 1 1 1 1 1 1 
1 1 1 1 1 1 1 1 1 
1 1 1 1 1 1 1 1 1 
1 1 1 1 1 1 1 1 1 
1 1 1 1 1 1 1 1 1 
1 1 1 1 1 1 1 1 1 
1 1 1 1 1 1 1 1 1 
1 1 1 1 1 1 1 1 1 
1 1 1 1 1 1 1 1 1 
1 1 1 1 1 1 1 1 1 
1 1 1 1 1 1 1 1 1 
1 1 1 1 1 1 1 1 1 
1 1 1 1 1 1 1 1 1 
1 1 1 1 1 1 1 1 1 
1 1 1 1 1 1 1 1 1 
1 1 1 1 1 1 1 1 1 
1 1 1 1 1 1 1 1 1 
1 1 1 1 1 1 1 1 1 
1 1 1 1 1 1 1 1 1 
1 1 1 1 1 1 1 1 1 
1 1 1 1 1 1 1 1 1 
1 1 1 1 1 1 1 1 1 
1 1 1 1 1 1 1 1 1 
1 1 1 1 1 1 1 1 1 
1 1 1 1 1 1 1 1 1 
1 1 1 1 1 1 1 1 1 
1 1 1 1 1 1 1 1 1 
1 1 1 1 1 1 1 1 1 
1 1 1 1 1 1 1 1 1 
1 1 1 1 1 1 1 1 1 
1 1 1 1 1 1 1 1 1 
1 1 1 1 1 1 1 1 1 
1 1 1 1 1 1 1 1 1 
1 1 1 1 1 1 1 1 1 
1 1 1 1 1 1 1 1 1 
1 1 1 1 1 1 1 1 1 
1 1 1 1 1 1 1 1 1 
1 1 1 1 1 1 1 1 1 
1 1 1 1 1 1 1 1 1 
1 1 1 1 1 1 1 1 1 
1 1 1 1 1 1 1 1 1 
1 1 1 1 1 1 1 1 1 
1 1 1 1 1 1 1 1 1 
1 1 1 1 1 1 1 1 1 
1 1 1 1 1 1 1 1 1 
1 1 1 1 1 1 1 1 1 
1 1 1 1 1 1 1 1 1 
1 1 1 1 1 1 1 1 1 
1 1 1 1 1 1 1 1 1 
1 1 1 1 1 1 1 1 1 
1 1 1 1 1 1 1 1 1 
1 1 1 1 1 1 1 1 1 
1 1 1 1 1 1 1 1 1 
1 1 1 1 1 1 1 1 1 
1 1 1 1 1 1 1 1 1 
1 1 1 1 1 1 1 1 1 
1 1 1 1 1 1 1 1 1 
1 1 1 1 1 1 1 1 1 
1 1 1 1 1 1 1 1 1 
1 1 1 1 1 1 1 1 1 
1 1 1 1 1 1 1 1 1 
1 1 1 1 1 1 1 1 1 
1 1 1 1 1 1 1 1 1 
1 1 1 1 1 1 1 1 1 
1 1 1 1 1 1 1 1 1 
1 1 1 1 1 1 1 1 1 
1 1 1 1 1 1 1 1 1 
1 1 1 1 1 1 1 1 1 
1 1 1 1 1 1 1 1 1 
1 1 1 1 1 1 1 1 1 
1 1 1 1 1 1 1 1 1 
1 1 1 1 1 1 1 1 1 
1 1 1 1 1 1 1 1 1 
1 1 1 1 1 1 1 1 1 
1 1 1 1 1 1 1 1 1 
1 1 1 1 1 1 1 1 1 
1 1 1 1 1 1 1 1 1 
1 1 1 1 1 1 1 1 1 
1 1 1 1 1 1 1 1 1 
1 1 1 1 1 1 1 1 1 
1 1 1 1 1 1 1 1 1 
1 1 1 1 1 1 1 1 1 
1 1 1 1 1 1 1 1 1 
1 1 1 1 1 1 1 1 1 
1 1 1 1 1 1 1 1 1 
1 1 1 1 1 1 1 1 1 
1 1 1 1 1 1 1 1 1 
1 1 1 1 1 1 1 1 1 
1 1 1 1 1 1 1 1 1 
1 1 1 1 1 1 1 1 1 
1 1 1 1 1 1 1 1 1 
1 1 1 1 1 1 1 1 1 
1 1 1 1 1 1 1 1 1 
1 1 1 1 1 1 1 1 1 
1 1 1 1 1 1 1 1 1 
1 1 1 1 1 1 1 1 1 
1 1 1 1 1 1 1 1 1 
1 1 1 1 1 1 1 1 1 
1 1 1 1 1 1 1 1 1 
1 1 1 1 1 1 1 1 1 
1 1 1 1 1 1 1 1 1 
1 1 1 1 1 1 1 1 1 
1 1 1 1 1 1 1 1 1 
1 1 1 1 1 1 1 1 1 
1 1 1 1 1 1 1 1 1 
1 1 1 1 1 1 1 1 1 
1 1 1 1 1 1 1 1 1 
1 1 1 1 1 1 1 1 1 
1 1 1 1 1 1 1 1 1 
1 1 1 1 1 1 1 1 1 
1 1 1 1 1 1 1 1 1 
1 1 1 1 1 1 1 1 1 
1 1 1 1 1 1 1 1 1 
1 1 1 1 1 1 1 1 1 
1 1 1 1 1 1 1 1 1 
1 1 1 1 1 1 1 1 1 
1 1 1 1 1 1 1 1 1 
1 1 1 1 1 1 1 1 1 
1 1 1 1 1 1 1 1 1 
1 1 1 1 1 1 1 1 1 
1 1 1 1 1 1 1 1 1 
1 1 1 1 1 1 1 1 1 
1 1 1 1 1 1 1 1 1 
1 1 1 1 1 1 1 1 1 
1 1 1 1 1 1 1 1 1 
1 1 1 1 1 1 1 1 1 
1 1 1 1 1 1 1 1 1 
1 1 1 1 1 1 1 1 1 
1 1 1 1 1 1 1 1 1 
1 1 1 1 1 1 1 1 1 
1 1 1 1 1 1 1 1 1 
1 1 1 1 1 1 1 1 1 
1 1 1 1 1 1 1 1 1 
1 1 1 1 1 1 1 1 1 
1 1 1 1 1 1 1 1 1 
1 1 1 1 1 1 1 1 1 
1 1 1 1 1 1 1 1 1 
1 1 1 1 1 1 1 1 1 
1 1 1 1 1 1 1 1 1 
1 1 1 1 1 1 1 1 1 
1 1 1 1 1 1 1 1 1 
1 1 1 1 1 1 1 1 1 
1 1 1 1 1 1 1 1 1 
1 1 1 1 1 1 1 
NORMALS Normals float
0.48294 -0.109531 -0.868776 -0.0303898 -0.43785 -0.898534 0.215861 0.190906 -0.95758 
0.66002 -0.231742 -0.714611 0.307562 0.10583 -0.945625 0.626195 0.350849 -0.696265 
0.287806 0.32857 -0.899561 -0.0689307 0.221667 -0.972683 0.206634 -0.338517 -0.917992 
0.49426 -0.447065 -0.745547 0.0209625 -0.046583 -0.998694 0.00332664 -0.045454 -0.998961 
0.588584 0.115563 -0.800134 0.192247 0.173014 -0.965975 0.153531 0.383486 -0.910696 
0.442047 -0.543332 -0.713712 0.0637005 -0.39901 -0.914731 0.0565562 -0.352598 -0.934064 
-0.129345 -0.0388867 -0.990837 -0.0946615 0.206987 -0.973753 -0.0290197 0.416649 -0.908604 
0.292544 -0.529104 -0.796534 0.552542 -0.497301 -0.668871 -0.294141 -0.232313 -0.927099 
0.846987 -0.206055 -0.490055 0.676141 0.30145 -0.67228 0.287274 0.607823 -0.740287 
0.094531 0.536571 -0.838544 0.164788 -0.521128 -0.837419 0.844833 -0.418025 -0.333935 
0.823714 0.182504 -0.536831 0.79157 0.188207 -0.581374 0.0935549 0.619746 -0.779206 
-0.0767589 0.354766 -0.931799 0.127954 -0.66092 -0.739468 -0.0853564 -0.538773 -0.838116 
0.467961 -0.575862 -0.67037 0.935093 -0.110233 -0.336824 0.894958 -0.206365 -0.395555 
0.803629 0.269548 -0.530589 0.975475 0.0602651 -0.211701 0.742576 0.401425 -0.536133 
0.752518 0.486676 -0.443692 0.806845 0.533936 -0.25281 0.575029 0.519979 -0.631636 
-0.217466 0.0312704 -0.975567 0.215591 0.680559 -0.700257 -0.16171 0.43399 -0.886286 
-0.152338 0.369998 -0.916457 0.953901 -0.260334 -0.14933 0.973698 -0.226661 -0.0231881 
0.988782 0.149349 0.00239178 0.746695 0.347064 -0.567444 0.942832 0.322125 -0.0854632 
0.694246 0.582928 -0.422158 0.562747 0.705836 -0.430246 0.382839 0.787411 -0.483134 
-0.469654 0.0678827 -0.880237 -0.350006 0.260479 -0.899804 0.294083 -0.641327 -0.708671 
0.98599 -0.145538 0.0815045 0.96929 0.117175 0.216211 -0.469066 -0.196282 -0.861075 
0.919106 0.332125 0.211987 0.851002 0.471912 -0.230421 0.812864 0.548245 -0.196673 
0.333224 0.854704 -0.398048 0.369252 0.854472 -0.365418 0.110187 0.72461 -0.680293 
-0.0944837 0.627983 -0.77247 0.534574 -0.65307 -0.536405 0.778214 -0.482062 -0.402492 
0.965096 -0.155291 0.210891 0.916791 0.196874 0.34747 0.892358 0.386679 0.232757 
0.5941 0.747624 -0.296821 0.741346 0.670848 0.0192278 0.765126 0.529898 0.365773 
0.590612 0.798213 -0.11846 0.627517 0.778603 -0.000148921 0.739116 0.667529 0.0900618 
0.423482 0.830124 -0.362708 0.616068 0.783832 -0.0778918 0.540877 0.841037 -0.0104444 
0.500842 0.857688 0.116312 0.374195 0.914331 -0.154842 0.390114 0.877105 -0.280174 
0.278991 0.874346 -0.397093 0.55984 -0.501436 -0.659653 0.714074 -0.591316 -0.374758 
0.614136 0.590427 0.523672 0.611962 0.681547 0.401243 0.54915 0.746421 0.375886 
0.479892 0.839976 0.253268 -0.424194 0.0747785 -0.902478 0.444149 0.895891 0.0104944 
-0.268405 0.374757 -0.887421 -0.0127028 0.702905 -0.71117 0.234737 0.893019 -0.383948 
-0.0800705 0.660172 -0.746834 0.0209402 0.829803 -0.557664 0.224484 -0.540719 -0.810697 
0.044665 -0.474171 -0.879299 -0.165654 -0.453938 -0.8755 0.620726 -0.546145 -0.562516 
0.789852 -0.418771 -0.448068 0.943257 -0.15243 0.295009 0.690274 0.421619 0.588013 
-0.425683 -0.113096 -0.897777 0.38524 0.79769 0.463984 0.470883 0.869523 0.148994 
0.371562 0.926123 0.0650943 -0.28122 0.236446 -0.930058 0.360239 0.915994 -0.176589 
-0.100237 0.734931 -0.670693 0.574095 -0.616417 -0.538929 0.93414 -0.347322 -0.0821615 
0.985303 -0.161768 0.0548559 0.848059 0.110836 0.518181 0.829129 0.155768 0.536919 
0.582481 0.45125 0.676084 0.436072 0.604803 0.666374 0.349083 0.888966 0.296447 
0.508096 0.779776 0.365769 0.0904302 0.85905 -0.503841 0.359885 0.923664 -0.131634 
0.384952 0.91711 0.103543 -0.151621 0.417024 -0.89616 -0.0750347 0.582071 -0.809668 
0.027928 0.87575 -0.481957 0.162197 0.0654149 -0.984588 0.289327 0.14114 -0.946768 
0.0576891 0.297127 -0.953094 -0.169189 0.262234 -0.950057 -0.132883 0.654582 -0.744221 
0.340204 0.566745 -0.750374 0.237187 0.786589 -0.570106 0.0942416 -0.642239 -0.760689 
0.539781 -0.642279 -0.544164 0.71154 -0.522447 -0.469851 0.819756 -0.474686 -0.320426 
0.855801 -0.458575 -0.239405 0.900269 -0.372839 -0.224736 0.974041 -0.196224 0.112872 
0.993175 -0.0330441 0.111851 0.795387 0.131487 0.591667 0.412162 0.773924 0.480795 
0.455076 0.834504 0.31066 0.432088 0.896144 0.101123 -0.0899326 0.291473 -0.952342 
0.0759719 0.60168 -0.795116 0.0997876 0.852493 -0.513126 0.223499 0.93028 -0.290909 
0.336135 0.941499 -0.0243316 0.0195253 0.714652 -0.699208 -0.00695059 0.0232026 -0.999707 
0.0133893 0.0254354 -0.999587 -0.0682758 -0.0121835 -0.997592 -0.402064 0.200605 -0.893366 
0.394175 -0.66637 -0.632912 0.788415 -0.567833 -0.236575 0.948453 0.00919858 0.316785 
0.915595 -0.0301955 0.400966 0.386877 0.36633 0.846244 0.43592 0.512967 0.739485 
0.444595 0.473781 0.760175 -0.353084 0.0344515 -0.934957 0.390863 0.797947 0.458809 
0.330744 0.940289 0.0804096 0.0849858 0.938947 -0.333402 0.236531 0.943408 -0.232452 
-0.135188 -0.228321 -0.964154 0.159113 0.826197 -0.540445 0.0408265 0.0992626 -0.994223 
0.222135 0.258389 -0.940155 0.374805 0.0583701 -0.925264 0.519811 -0.00310562 -0.854276 
0.616657 0.291686 -0.7312 -0.643016 0.421321 -0.639547 -0.306689 0.470521 -0.827376 
0.427379 0.622422 -0.655696 -0.664349 0.685205 -0.298553 -0.227404 0.699761 -0.677216 
-0.25934 0.808723 -0.52793 -0.267633 0.825311 -0.497227 -0.456469 0.625771 -0.632493 
-0.0414659 -0.636384 -0.770257 0.530548 -0.617028 -0.581202 0.809419 -0.534065 -0.244163 
-0.37639 -0.432669 -0.819224 0.931511 -0.362761 0.0263124 0.969986 -0.155513 0.186928 
0.428354 0.80043 0.419315 0.324941 0.686518 -0.650467 0.223978 0.824895 -0.51902 
0.223129 0.963673 -0.146791 0.300274 0.952059 -0.0584803 0.256778 0.447482 -0.856636 
0.275245 0.933441 -0.23006 0.281232 0.958198 0.0525844 0.375796 0.899937 0.221112 
-0.467963 -0.0592754 -0.881758 0.38504 0.191154 -0.902887 0.63214 0.154037 -0.759389 
0.471058 0.086225 -0.877878 -0.430136 0.0435701 -0.901712 0.661079 0.0157595 -0.75015 
-0.553029 0.453596 -0.698863 -0.482474 0.830732 -0.277675 -0.346404 0.865306 -0.362283 
0.138517 0.937138 -0.320291 0.172759 0.933302 -0.314804 0.172485 0.955834 -0.237972 
0.495135 0.72563 -0.47781 0.34134 0.905468 -0.252218 0.283824 -0.716695 -0.637018 
-0.309032 -0.634839 -0.708152 0.744726 -0.574037 -0.34039 0.831489 -0.515976 -0.205901 
0.934985 -0.226119 0.273263 0.534536 0.352126 0.768296 0.44813 0.554655 0.701097 
-0.360381 -0.24566 -0.899876 0.389931 0.735735 0.553759 0.388582 0.916351 -0.0964648 
0.277938 0.945434 -0.170012 0.506873 0.349663 -0.787918 0.654613 0.240911 -0.71655 
0.808011 0.258661 -0.529351 -0.57081 0.732431 -0.371108 -0.476417 0.723294 -0.499873 
-0.172678 0.978106 -0.11615 -0.0621979 0.977026 -0.203841 -0.271299 0.913107 -0.304355 
0.45891 0.875476 -0.151471 0.711971 -0.597314 -0.369206 0.903864 0.0255283 0.427058 
0.465401 0.401681 0.788704 -0.510175 -0.340378 -0.78985 0.452327 0.698202 0.5549 
0.371279 0.914883 0.158559 0.379088 0.884598 0.271624 0.586551 0.562093 -0.583103 
0.591822 0.757386 -0.275887 0.769061 0.388042 -0.507906 0.866334 0.244109 -0.435748 
-0.621004 0.107062 -0.776461 -0.690915 0.345298 -0.635142 0.942383 0.0728819 -0.326501 
-0.595774 0.407429 -0.692138 -0.569037 0.717609 -0.401541 -0.0073929 0.970114 0.242538 
0.841223 0.294327 -0.453558 0.815275 0.515471 -0.263847 -0.410111 0.87481 -0.257908 
0.626043 0.716418 -0.307922 0.826929 0.511611 0.233329 0.218919 0.974032 0.0577633 
0.630879 0.756495 0.172357 0.101955 -0.724831 -0.68134 -0.293884 -0.653971 -0.697105 
0.774438 -0.602345 -0.193459 0.884428 -0.440603 -0.153808 0.926652 -0.12663 0.35395 
0.785455 0.188632 0.589473 -0.560327 -0.16982 -0.810676 0.403747 0.593467 0.696265 
0.464815 0.674892 0.573121 0.598053 0.795199 0.0999561 0.789064 0.51597 -0.333395 
0.827414 0.437095 -0.35261 0.893451 0.37486 -0.247437 0.913812 0.2994 -0.274421 
0.998842 0.0469173 -0.0106372 0.990239 0.097207 0.0998874 -0.733037 0.451526 -0.508706 
-0.468439 0.85527 -0.221536 0.966914 0.25415 -0.0220357 -0.551414 0.760996 -0.341801 
-0.395258 0.917214 -0.049903 -0.297708 0.954392 0.022496 0.274335 0.848962 0.451669 
0.398073 0.827536 0.395882 0.982158 -0.147252 0.11697 -0.417562 -0.511102 -0.751277 
0.851091 0.196161 0.486995 0.799117 0.0806445 0.595741 0.544227 0.286892 0.788359 
0.662409 0.166071 0.730503 0.452039 0.353691 0.818879 0.445788 0.487277 0.750889 
0.495799 0.539746 0.680337 0.439045 0.794958 0.418667 0.877614 0.477953 -0.0368169 
0.95821 0.241611 -0.153158 0.966912 0.253586 0.0278413 0.918088 0.171906 0.357158 
0.838204 0.329671 0.434432 -0.659355 0.660573 -0.359018 -0.496583 0.865809 -0.0614895 
-0.110673 0.957705 0.265618 0.257701 0.783058 0.566048 0.589056 0.580366 0.562307 
0.769713 -0.53907 -0.341974 0.994309 0.0976053 0.0426913 0.846867 0.0964153 0.522991 
0.750121 0.327994 0.574229 0.686411 0.342269 0.641632 0.437728 0.47357 0.764281 
0.623256 0.745258 0.236943 0.746442 0.660178 0.0836036 0.900715 0.350607 0.25649 
-0.709475 0.227074 -0.667145 0.730093 0.270465 0.627545 -0.658875 0.482108 -0.577457 
0.654617 0.363717 0.662712 -0.648154 0.648357 -0.399411 -0.509244 0.828216 -0.233943 
0.0729077 0.863751 0.498617 -0.0124013 -0.818221 -0.57477 0.241539 -0.824199 -0.512206 
-0.178755 -0.812789 -0.554455 0.952531 -0.238055 0.189774 0.950295 0.179027 0.254734 
0.319884 0.403436 0.857271 0.819288 0.461992 0.339605 0.735294 0.379635 0.561445 
0.781072 0.233944 0.578962 -0.323289 0.941416 0.0960226 0.536911 0.520655 0.663812 
0.8914 -0.0619377 0.448965 0.721363 0.287035 0.630275 0.592657 0.501864 0.629992 
0.611167 0.16116 0.774921 0.671664 0.25009 0.697369 -0.682343 0.546035 -0.48606 
-0.390718 0.914166 0.107892 -0.50727 0.861172 -0.0325599 -0.225959 0.955807 0.188086 
-0.137943 0.928622 0.344432 0.875489 -0.472121 -0.103052 0.926439 -0.215384 -0.308742 
-0.473373 -0.521962 -0.709558 0.686228 0.411976 0.599472 0.445279 0.407203 0.797441 
-0.306834 0.902271 0.302919 0.356938 0.52849 0.770255 0.139242 0.721853 0.677893 
0.980189 -0.197676 -0.0123954 0.880361 0.0976809 0.464136 0.456668 0.541156 0.706119 
0.509233 0.199453 0.837198 -0.551515 0.822159 -0.141016 -0.455292 0.890342 0.000339521 
0.0281592 0.912213 0.408748 -0.110914 0.923728 0.366641 0.0585317 0.824163 0.56332 
0.305258 -0.79131 -0.529761 0.962847 -0.207942 0.172297 0.980046 -0.0142151 0.198262 
0.942242 0.0976749 0.320375 -0.693222 0.00320344 -0.720717 -0.710154 0.245736 -0.659769 
-0.733567 0.326308 -0.596157 0.379647 0.0563309 0.923415 -0.637688 0.482218 -0.600683 
-0.736705 0.524908 -0.426306 -0.450893 0.884506 -0.119772 -0.280988 0.952811 0.114881 
0.175894 -0.864956 -0.470013 0.346506 -0.85218 -0.392075 -0.391509 -0.67008 -0.630645 
0.935551 -0.350086 -0.0467376 0.484434 0.498286 0.719051 0.374746 0.592972 0.712706 
0.451268 0.447081 0.772319 -0.760055 0.353514 -0.545293 -0.329213 0.937404 0.113544 
0.416553 0.370775 0.830066 -0.567605 0.789505 -0.233466 0.179162 0.892863 0.413155 
0.615184 -0.69617 -0.369994 0.965719 -0.223234 -0.13249 0.843497 0.185185 0.504202 
0.53457 0.471963 0.70106 -0.770636 -0.0755852 -0.632777 -0.860071 0.0430867 -0.508351 
-0.799047 0.526662 -0.290089 -0.621129 0.78001 -0.0760481 -0.486479 0.859454 0.157087 
-0.697174 0.656165 -0.288785 -0.15275 0.94326 0.294834 0.188617 -0.79495 -0.576609 
0.886492 -0.392151 -0.245662 0.912733 0.137979 0.384552 -0.728555 -0.178057 -0.66144 
0.587505 0.315753 0.745075 -0.903343 -0.0963155 -0.417965 -0.906116 -0.0313835 -0.421864 
0.499267 0.348112 0.793442 0.527408 0.351942 0.77329 -0.84652 0.353841 -0.397744 
-0.589554 0.796143 0.136316 -0.765875 0.626877 -0.143039 -0.327477 0.869913 0.368796 
0.0122116 0.875628 0.482832 0.154856 0.764233 0.626073 0.393064 0.739392 0.546626 
-0.186827 -0.790963 -0.582643 0.642645 0.397752 0.654829 -0.741153 -0.326684 -0.586489 
-0.823048 -0.234753 -0.517187 -0.869753 -0.241799 -0.430189 -0.944744 -0.0616107 -0.321967 
-0.954748 -0.0510962 -0.292994 -0.691761 0.661928 -0.288651 -0.747515 0.633264 -0.200493 
-0.568815 0.793667 0.215739 -0.328927 0.806351 0.491533 -0.165187 0.896994 0.410019 
-0.0565991 0.768626 0.63719 0.250415 0.59774 0.761577 0.242672 -0.824697 -0.510867 
0.58764 -0.649807 -0.482111 0.825423 -0.48581 -0.287514 0.996171 -0.0740533 -0.0464677 
-0.578424 -0.474773 -0.663337 -0.969703 -0.116183 -0.21489 -0.974977 -0.0952948 -0.200843 
-0.999955 -0.00204619 -0.00928962 -0.991797 -0.0857808 0.0947642 -0.996805 -0.0626662 -0.0495358 
-0.89094 0.15729 -0.426012 -0.954871 0.130214 0.266956 -0.553608 0.798391 0.236834 
-0.713646 0.689709 0.122521 0.586234 -0.691804 -0.421588 0.976261 0.0355323 0.213665 
0.693396 0.488989 0.529237 0.621182 0.615124 0.485547 -0.718612 -0.395344 -0.572101 
-0.850523 -0.387561 -0.355538 -0.961514 -0.23077 -0.149114 -0.987427 -0.150247 0.0491218 
-0.99084 -0.0234977 0.132983 -0.777386 0.0312159 0.628249 -0.755006 0.122088 0.644252 
-0.494231 0.27254 0.825504 -0.450669 0.54145 0.709739 -0.687876 0.35305 0.634179 
-0.288919 0.732893 0.61595 0.106459 -0.931131 -0.348799 0.410821 -0.836584 -0.362426 
-0.0483943 -0.915048 -0.400432 0.7802 -0.541472 -0.313203 0.899342 0.307653 0.310697 
0.510197 0.608712 0.607593 -0.893699 -0.333078 -0.300602 -0.862072 -0.361369 -0.355309 
-0.982914 -0.147287 0.110391 -0.999074 -0.0430122 -0.00067323 -0.976983 -0.0485577 0.207716 
-0.943236 -0.0208171 0.33147 -0.891427 -0.00836473 0.453087 -0.893238 -0.00899535 0.449493 
-0.706625 0.168728 0.687177 -0.423641 0.604503 0.674614 0.298628 0.566359 0.768153 
0.670537 -0.734067 -0.10736 0.880153 -0.415807 -0.228988 0.928021 -0.368957 -0.0514526 
0.995951 0.0727901 0.0527614 0.701499 0.539943 0.465147 0.696372 0.511388 0.503536 
-0.881615 -0.424303 -0.206692 -0.88693 -0.373112 -0.272291 -0.909536 -0.375052 -0.179108 
-0.971069 -0.146017 0.188953 -0.975506 0.0616628 0.211153 -0.897865 0.037058 0.438709 
-0.89083 -0.00324062 0.454326 -0.654109 0.047117 0.754932 -0.626227 0.0783821 0.775691 
0.381511 0.326917 0.864624 -0.223881 0.620794 0.751327 -0.00828844 0.68688 0.726724 
0.346276 -0.920458 -0.181243 0.649501 -0.760215 -0.0149044 -0.233527 -0.917137 -0.322994 
0.874308 0.444788 0.194292 -0.661103 -0.628102 -0.410403 -0.75643 -0.467289 -0.457662 
-0.819681 -0.421181 -0.388239 -0.933825 -0.357694 0.0050967 -0.922283 -0.381625 0.0612941 
-0.986621 -0.150814 0.061914 -0.935615 -0.239266 0.259569 -0.965727 -0.223013 0.132799 
-0.964368 -0.111329 0.239999 -0.834611 -0.0194278 0.550498 0.392403 0.2293 0.890753 
-0.656109 0.160045 0.7375 -0.210646 0.533311 0.819273 -0.0333911 -0.991072 -0.129081 
0.0519505 -0.994508 0.0908584 0.386485 -0.911865 0.138319 -0.342961 -0.892115 -0.294123 
0.923554 -0.335956 0.184885 0.966449 0.00558021 0.256798 0.993089 0.0460026 0.107973 
0.86732 0.373402 0.329131 -0.654203 -0.639354 -0.404035 -0.790073 -0.549914 -0.270886 
-0.896514 -0.44294 -0.00823273 -0.963235 -0.033465 0.266566 -0.784895 -0.0706283 0.61559 
-0.74468 0.059875 0.664731 0.266879 0.262224 0.927369 -0.476607 0.0787579 0.875581 
-0.366423 0.262894 0.892536 -0.4038 0.0643877 0.912579 -0.320466 0.118641 0.939801 
0.081076 0.248399 0.965259 -0.144506 0.182749 0.972482 -0.338537 0.29591 0.893213 
0.102301 0.406929 0.907713 0.0520195 -0.974897 0.216493 0.322504 -0.860335 0.394734 
0.461501 -0.816038 0.347993 -0.0334309 -0.998021 0.0532498 0.431762 -0.826424 0.361394 
0.543163 -0.722738 0.427345 -0.20339 -0.961286 -0.185909 0.630251 -0.742998 0.22525 
-0.140484 -0.977789 -0.155541 0.732366 -0.616532 0.289012 0.724802 -0.522424 0.449149 
-0.388928 -0.867044 -0.311401 0.867217 -0.00851051 0.497857 0.873744 0.209598 0.438908 
0.0845206 0.753529 0.651959 -0.922858 -0.371591 0.10126 -0.925859 -0.345997 0.151889 
-0.889041 -0.288281 0.35567 -0.939192 0.0425776 0.340741 -0.570935 0.0421759 0.819911 
-0.470002 0.0859117 0.878475 -0.417339 0.221745 0.881282 -0.362221 0.0852619 0.928184 
0.0454506 0.199515 0.97884 -0.373194 0.267446 0.888369 -0.118562 -0.9897 0.0802341 
0.129022 -0.939412 0.317581 -0.282538 -0.957122 0.0639514 0.379217 -0.783754 0.491858 
0.51234 -0.671236 0.535677 0.626324 -0.47189 0.620514 -0.457109 -0.798553 -0.391618 
0.731989 0.343362 0.588468 -0.855579 -0.51417 0.0601137 -0.828083 -0.560311 0.0181636 
-0.895442 -0.395109 0.205114 -0.857592 -0.261958 0.442621 -0.835074 -0.266974 0.481015 
-0.786856 -0.0788704 0.612076 0.412298 0.420392 0.808258 -0.547124 -0.0367886 0.836243 
-0.222572 0.199095 0.95437 -0.16111 0.0764782 0.983969 -0.0338012 0.183892 0.982365 
-0.048929 0.198531 0.978872 -0.0222407 -0.956485 0.290932 0.451072 -0.548964 0.703685 