# vtk DataFile Version 4.2
vtk output
ASCII
DATASET POLYDATA
POINTS 2611 float
276.203 137.412 26.8761 276.052 137.09 26.8867 276.193 137.782 26.8197 
275.857 137.883 26.7519 276.374 137.627 26.9736 276.064 138.082 26.7865 
276.37 137.893 26.8578 276.4 138.003 26.8526 276.047 138.333 26.8454 
276.246 138.264 26.9238 276.381 138.073 26.89 276.009 138.546 26.9618 
274.289 140.49 27.1144 274.089 140.612 27.1435 275.177 135.318 27.1308 
275.138 134.758 27.3708 274.662 136.054 26.8254 276.009 136.069 27.2138 
276.029 136.558 27.0269 276.247 136.562 27.1017 276.211 136.394 27.1788 
276.304 136.562 27.1502 276.297 136.739 27.1157 276.454 137.707 27.2029 
274.206 138.597 26.6944 275.439 138.089 26.7224 276.417 137.937 26.9026 
276.375 138.042 27.0254 273.731 140.07 26.9071 274.335 139.898 26.9735 
275.717 138.945 27.1335 274.874 139.893 27.1866 274.564 140.345 27.2281 
273.925 140.853 27.3342 270.684 142.742 27.3168 268.103 144.097 27.4222 
268.909 144.39 27.7411 274.643 133.583 27.8027 273.052 133.945 27.3119 
274.228 134 27.4162 275.349 134.321 27.8464 271.172 134.199 27.3318 
275.736 134.987 27.7602 276.003 135.564 27.6048 276.151 136.064 27.4043 
276.315 136.56 27.2649 276.462 137.082 27.4857 276.506 137.454 27.3892 
276.497 137.329 27.5604 276.487 137.801 27.3686 276.337 138.169 27.3012 
276.447 137.962 27.4609 275.327 139.508 27.3675 274.656 140.307 27.3767 
273.773 141.095 27.594 266.898 144.164 27.4348 270.945 143.273 27.8325 
271.427 142.934 27.8525 269.348 144.206 27.8014 270.135 143.795 27.9441 
264.959 146.741 28.1332 272.401 130.883 28.348 277 130.009 28.5175 
277 130.009 28.5175 277 130.009 28.5175 277 130.009 28.5175 
277 130.009 28.5175 276.145 135.875 27.6649 276.432 137.409 27.718 
276.406 137.708 27.7162 266.856 138.792 27.3444 276.39 137.949 27.6224 
276.086 138.507 27.5438 276.22 138.205 27.6852 265.48 141.584 27.4064 
274.104 140.716 27.9226 272.134 142.373 28.1968 271.3 143.112 28.0775 
271.01 143.296 28.198 263.718 145.204 27.7281 269.197 144.341 28.453 
267.048 146.065 28.4814 267.672 145.537 28.4031 260.428 148.013 28.2128 
266.571 146.505 28.4491 262.486 147.542 28.1013 266 146.876 28.6457 
264.185 148.136 28.8461 257.358 151.15 28.6087 261.099 150.319 28.8436 
258.212 152.184 28.7892 258.424 153.096 29.1752 259.431 152.455 29.3739 
256.839 154.582 29.2149 255.16 156.567 29.4398 256.47 155.764 29.6138 
255.691 156.558 29.6278 256 160.009 28.0175 256 160.009 28.0175 
256 160.009 28.0175 256 160.009 28.0175 256 160.009 28.0175 
271.237 125.488 30.0637 271.687 124.995 30.5897 273.154 129.139 29.4508 
277 130.009 28.5175 277 130.009 28.5175 277 130.009 28.5175 
274.2 131.388 29.2745 277 130.009 28.5175 274.732 132.765 29.0475 
275.539 134.515 28.3808 276.265 137.152 27.9437 275.408 137.754 28.6101 
274.546 140.042 28.1578 272.153 142.226 28.4463 272.236 141.97 28.6 
271.621 142.766 28.3435 268.662 144.488 28.8899 270.668 143.347 28.4768 
267.352 145.832 28.5746 267.503 145.638 28.7114 266.626 146.392 28.8162 
265.621 147.131 29.0301 266.018 146.96 28.8365 264.089 148.3 29.0979 
266.123 146.907 28.8548 262.806 149.314 29.0991 259.96 152.028 29.4639 
255.322 153.999 28.9462 258.978 153.046 29.571 259.479 152.572 29.6833 
256.081 156.32 29.7495 253.78 158.103 29.7982 256 160.009 28.0175 
252.96 159.531 30.2631 270.283 123.242 30.7356 271.051 123.541 30.9487 
271.073 123.066 31.2908 271.409 123.995 31.0338 270.273 124.697 30.1479 
277 130.009 28.5175 274.115 131.156 29.6075 274.325 131.574 29.4575 
274.402 131.818 29.4999 274.482 132.111 29.4622 274.879 134.227 29.1985 
275.694 135.352 28.5129 272.867 136.693 30.1937 274.948 136.566 29.1474 
269.836 142.987 29.3553 267.843 145.175 28.9275 266.173 146.537 29.1908 
265.036 147.532 29.2077 250.782 150.375 29.7714 263.82 148.51 29.2315 
263.512 148.682 29.4449 262.025 150.137 29.3916 252.952 152.449 29.1865 
260.47 151.556 29.8178 258.853 153.222 29.9825 257.548 154.789 29.9407 
257.852 154.47 30.0142 257.487 154.799 30.2223 256.007 156.536 30.0402 
256.433 156.073 30.1079 255.621 156.9 30.3624 247.6 159.287 30.2978 
254.067 158.545 30.2547 253.474 159.281 30.3301 251.27 160.425 30.4698 
252.466 159.936 30.5564 246.676 162.733 30.9795 246.92 163.063 31.1223 
247.755 163.099 31.4415 246.785 163.694 31.5427 271.346 123.354 31.568 
272.125 125.617 30.9107 273.256 130.489 30.5044 274.258 131.527 29.6193 
270.623 135.583 31.1868 264.642 145.615 30.7268 263.104 148.446 30.1569 
262.134 149.583 30.0898 258.261 153.849 30.2491 256.464 155.924 30.3502 
255.038 157.392 30.6134 255.941 156.396 30.5529 254.407 158.231 30.3771 
254.649 157.92 30.485 253.039 159.614 30.5551 253.241 159.416 30.6386 
251.803 160.398 30.7333 252.384 159.959 30.8922 248.994 162.339 31.2862 
247.121 163.577 31.6459 248.785 162.534 31.5067 242.754 165.303 31.9975 
243.579 165.126 32.0064 242.118 166.123 32.3812 241.524 166.423 32.5823 
242.43 166.16 32.4551 269.463 119.346 32.1973 269.85 119.605 32.3028 
270.256 119.826 32.6445 268.857 120.23 31.7115 270.739 121.599 31.9334 
266.642 121.069 31.3899 271.458 123.48 31.7348 271.438 123.378 31.8199 
271.509 123.983 31.6932 272.091 125.671 31.0905 271.901 125.521 31.3745 
272.133 126.087 31.1412 258.178 149.75 32.0645 257.473 153.19 31.3059 
257.187 153.896 31.1733 258.456 153.076 30.6952 254.16 155.747 32.0533 
256.748 155.034 30.8489 251.894 159.226 31.8731 252.946 159.122 31.2142 
251.499 160.154 31.5522 240.153 162.785 31.8801 250.247 161.244 31.5471 
249.051 162.32 31.6261 246.864 163.765 31.9439 245.119 164.764 32.1882 
239.436 166.84 32.9038 242.329 166.327 32.6454 242.714 166.164 32.6819 
239.232 167.16 33.1197 241.584 166.639 32.8896 240.99 166.903 32.9947 
239.302 167.331 33.3198 240.632 167.04 33.1001 269.309 112.335 34.7698 
269.572 114.104 34.4583 268.743 115.365 33.4531 269.653 115.571 34.0814 
267.535 117.162 32.6331 269.985 118.024 33.0954 270.68 121.287 32.5874 
271.331 123.332 31.9471 270.678 126.52 32.3848 249.107 160.38 32.8235 
249.206 161.423 32.3 244.392 165.087 32.7148 242.292 166.376 32.8428 
238.05 167.369 33.3997 240.936 166.965 33.159 242.009 166.431 33.1399 
237.451 167.763 33.7619 238.274 167.585 33.6621 239.11 167.445 33.6053 
237.668 167.746 33.6749 268.165 111.706 34.5262 268.619 111.724 34.6212 
269.401 111.351 35.2271 266.628 113.479 33.8212 269.969 117.231 33.9506 
249.313 155.789 33.7742 247.791 160.242 33.4127 246.638 162.182 33.2818 
246.645 163.184 32.7884 233.174 165.724 34.0186 242.678 165.52 33.6117 
242.601 166.037 33.2006 236.291 167.592 33.9249 240.736 167.014 33.3857 
237.083 167.817 34.0743 238.59 167.5 33.9536 269.84 113.772 35.2137 
269.838 113.15 35.6694 269.839 115.531 34.8655 269.991 118.526 33.9056 
269.979 119.367 33.8567 243.644 158.33 35.024 230.347 162.301 34.3976 
242.034 165.118 34.1247 234.653 168.408 35.1365 234.896 168.353 35.1457 
267.636 117.988 36.0407 236.565 135.129 35.3213 236.836 167.596 34.8393 
234.03 168.434 35.4504 236.15 167.97 34.83 226.512 169.121 36.843 
233.547 168.381 35.7019 268.865 104.501 37.425 269.648 104.126 37.9744 
268.28 105.086 37.0694 267.794 104.504 37.2223 267.976 105.945 36.6907 
269.905 109.48 36.6362 269.132 113.567 36.7017 245.559 119.299 36.7865 
223.846 165.543 36.4517 224.487 167.669 36.6885 221.228 168.783 38.0158 
221.224 169.443 38.4852 224.1 169.241 37.5929 228.942 169.223 36.7482 
227.899 169.33 37.0613 228.486 169.24 37.0548 270.064 100.127 39.3487 
270.295 101.082 39.3094 269.3 102.517 38.2892 269.911 108.319 37.7077 
269.188 111.431 37.4837 269.402 111.901 37.0538 267.992 113.005 37.6627 
230.265 167.653 37.4105 229.26 168.479 37.4348 231.645 168.273 36.572 
222.56 169.797 38.6359 222.773 169.796 38.7479 223.121 169.791 38.5872 
228.882 169.049 37.1751 228.283 169.142 37.3552 220.968 169.592 38.8402 
223.452 169.708 38.3924 270.041 97.7756 40.1008 270.405 97.7507 40.2901 
269.346 98.2053 39.7558 270.502 98.5843 40.1013 270.523 101.028 39.6376 
270.118 104.695 38.5025 265.002 112.563 38.9538 229.49 145.878 39.6348 
217.544 152.465 38.4014 214.721 163.518 39.0527 228.125 163.566 38.707 
215.359 166.642 39.1816 216.706 168.461 39.3154 222.326 169.81 38.8228 
222.381 169.767 38.9596 227.842 168.988 37.6817 216.699 169.437 40.1376 
221.914 169.752 39.0349 224.709 169.508 38.2881 270.222 96.5233 40.684 
269.636 97.5524 40.0847 270.913 100.38 40.6232 269.474 107.023 39.1079 
244.146 126.142 39.8761 224.443 155.089 40.1482 224.023 169.098 39.0007 
213.157 169.338 41.2569 222.988 169.21 39.2862 224.232 169.433 38.6339 
216.5 169.526 40.4559 217.194 169.52 40.3497 270.85 94.4015 41.6864 
269.797 94.9053 41.2838 271.637 95.6101 41.6179 271.82 95.3917 41.7491 
271.523 97.0225 41.6129 271.169 98.9632 41.103 271.007 99.83 40.9931 
270.685 101.166 40.6611 270.473 102.38 40.332 270.495 102.175 40.5073 
269.031 105.134 40.3998 233.25 120.475 40.1068 211.094 169.328 42.1001 
217.828 169.475 40.4627 216.981 169.442 40.7863 217.494 169.331 40.8207 
219.447 169.518 39.99 216.242 169.509 40.7966 272.463 91.9904 42.9538 
273.028 91.5802 43.3101 264.464 94.5663 41.8869 272.08 95.0965 42.1408 
269.904 101.982 41.3245 270.438 101.918 40.7377 213.174 137.688 41.8907 
218.017 168.002 41.4469 209.684 168.49 42.0399 216.95 168.796 41.4378 
218.637 168.471 41.0611 210.784 169.455 42.5299 274.617 88.1252 44.7186 
274.57 88.0243 44.7354 274.755 88.0447 44.8778 274.529 88.273 44.6761 
273.466 91.8483 43.6713 273.123 92.726 43.3821 272.481 94.49 42.8983 
270.926 98.8769 42.0003 269.355 99.9388 42.8423 207.121 168.033 43.1027 
207.176 169.225 43.8161 208.009 169.47 43.7354 209.546 169.539 43.2664 
210.838 169.471 42.9411 275.062 86.1995 45.5379 273.329 87.1036 44.7478 
275.035 87.452 45.2103 275.286 86.9708 45.533 274.172 88.2596 44.5613 
274.472 88.7775 44.6483 274.713 88.9955 44.9581 271.702 89.8231 43.5566 
274.309 90.6578 44.8541 273.917 91.62 44.2925 219.675 138.779 43.7569 
[...]
POINT_DATA 2611
SCALARS scalars float
LOOKUP_TABLE default
1 1 1 1 1 1 1 1 1 
1 1 1 1 1 1 1 1 1 
1 1 1 1 1 1 1 1 1 
1 1 1 1 1 1 1 1 1 
1 1 1 1 1 1 1 1 1 
1 1 1 1 1 1 1 1 1 
1 1 1 1 1 1 1 1 1 
1 1 1 1 1 1 1 1 1 
1 1 1 1 1 1 1 1 1 
1 1 1 1 1 1 1 1 1 
1 1 1 1 1 1 1 1 1 
1 1 1 1 1 1 1 1 1 
1 1 1 1 1 1 1 1 1 
1 1 1 1 1 1 1 1 1 
1 1 1 1 1 1 1 1 1 
1 1 1 1 1 1 1 1 1 
1 1 1 1 1 1 1 1 1 
1 1 1 1 1 1 1 1 1 
1 1 1 1 1 1 1 1 1 
1 1 1 1 1 1 1 1 1 
1 1 1 1 1 1 1 1 1 
1 1 1 1 1 1 1 1 1 
1 1 1 1 1 1 1 1 1 
1 1 1 1 1 1 1 1 1 
1 1 1 1 1 1 1 1 1 
1 1 1 1 1 1 1 1 1 
1 1 1 1 1 1 1 1 1 
1 1 1 1 1 1 1 1 1 
1 1 1 1 1 1 1 1 1 
1 1 1 1 1 1 1 1 1 
1 1 1 1 1 1 1 1 1 
1 1 1 1 1 1 1 1 1 
1 1 1 1 1 1 1 1 1 
1 1 1 1 1 1 1 1 1 
1 1 1 1 1 1 1 1 1 
1 1 1 1 1 1 1 1 1 
1 1 1 1 1 1 1 1 1 
1 1 1 1 1 1 1 1 1 
1 1 1 1 1 1 1 1 1 
1 1 1 1 1 1 1 1 1 
1 1 1 1 1 1 1 1 1 
1 1 1 1 1 1 1 1 1 
1 1 1 1 1 1 1 1 1 
1 1 1 1 1 1 1 1 1 
1 1 1 1 1 1 1 1 1 
1 1 1 1 1 1 1 1 1 
1 1 1 1 1 1 1 1 1 
1 1 1 1 1 1 1 1 1 
1 1 1 1 1 1 1 1 1 
1 1 1 1 1 1 1 1 1 
1 1 1 1 1 1 1 1 1 
1 1 1 1 1 1 1 1 1 
1 1 1 1 1 1 1 1 1 
1 1 1 1 1 1 1 1 1 
1 1 1 1 1 1 1 1 1 
1 1 1 1 1 1 1 1 1 
1 1 1 1 1 1 1 1 1 
1 1 1 1 1 1 1 1 1 
1 1 1 1 1 1 1 1 1 
1 1 1 1 1 1 1 1 1 
1 1 1 1 1 1 1 1 1 
1 1 1 1 1 1 1 1 1 
1 1 1 1 1 1 1 1 1 
1 1 1 1 1 1 1 1 1 
1 1 1 1 1 1 1 1 1 
1 1 1 1 1 1 1 1 1 
1 1 1 1 1 1 1 1 1 
1 1 1 1 1 1 1 1 1 
1 1 1 1 1 1 1 1 1 
1 1 1 1 1 1 1 1 1 
1 1 1 1 1 1 1 1 1 
1 1 1 1 1 1 1 1 1 
1 1 1 1 1 1 1 1 1 
1 1 1 1 1 1 1 1 1 
1 1 1 1 1 1 1 1 1 
1 1 1 1 1 1 1 1 1 
1 1 1 1 1 1 1 1 1 
1 1 1 1 1 1 1 1 1 
1 1 1 1 1 1 1 1 1 
1 1 1 1 1 1 1 1 1 
1 1 1 1 1 1 1 1 1 
1 1 1 1 1 1 1 1 1 
1 1 1 1 1 1 1 1 1 
1 1 1 1 1 1 1 1 1 
1 1 1 1 1 1 1 1 1 
1 1 1 1 1 1 1 1 1 
1 1 1 1 1 1 1 1 1 
1 1 1 1 1 1 1 1 1 
1 1 1 1 1 1 1 1 1 
1 1 1 1 1 1 1 1 1 
1 1 1 1 1 1 1 1 1 
1 1 1 1 1 1 1 1 1 
1 1 1 1 1 1 1 1 1 
1 1 1 1 1 1 1 1 1 
1 1 1 1 1 1 1 1 1 
1 1 1 1 1 1 1 1 1 
1 1 1 1 1 1 1 1 1 
1 1 1 1 1 1 1 1 1 
1 1 1 1 1 1 1 1 1 
1 1 1 1 1 1 1 1 1 
1 1 1 1 1 1 1 1 1 
1 1 1 1 1 1 1 1 1 
1 1 1 1 1 1 1 1 1 
1 1 1 1 1 1 1 1 1 
1 1 1 1 1 1 1 1 1 
1 1 1 1 1 1 1 1 1 
1 1 1 1 1 1 1 1 1 
1 1 1 1 1 1 1 1 1 
1 1 1 1 1 1 1 1 1 
1 1 1 1 1 1 1 1 1 
1 1 1 1 1 1 1 1 1 
1 1 1 1 1 1 1 1 1 
1 1 1 1 1 1 1 1 1 
1 1 1 1 1 1 1 1 1 
1 1 1 1 1 1 1 1 1 
1 1 1 1 1 1 1 1 1 
1 1 1 1 1 1 1 1 1 
1 1 1 1 1 1 1 1 1 
1 1 1 1 1 1 1 1 1 
1 1 1 1 1 1 1 1 1 
1 1 1 1 1 1 1 1 1 
1 1 1 1 1 1 1 1 1 
1 1 1 1 1 1 1 1 1 
1 1 1 1 1 1 1 1 1 
1 1 1 1 1 1 1 1 1 
1 1 1 1 1 1 1 1 1 
1 1 1 1 1 1 1 1 1 
1 1 1 1 1 1 1 1 1 
1 1 1 1 1 1 1 1 1 
1 1 1 1 1 1 1 1 1 
1 1 1 1 1 1 1 1 1 
1 1 1 1 1 1 1 1 1 
1 1 1 1 1 1 1 1 1 
1 1 1 1 1 1 1 1 1 
1 1 1 1 1 1 1 1 1 
1 1 1 1 1 1 1 1 1 
1 1 1 1 1 1 1 1 1 
1 1 1 1 1 1 1 1 1 
1 1 1 1 1 1 1 1 1 
1 1 1 1 1 1 1 1 1 
1 1 1 1 1 1 1 1 1 
1 1 1 1 1 1 1 1 1 
1 1 1 1 1 1 1 1 1 
1 1 1 1 1 1 1 1 1 
1 1 1 1 1 1 1 1 1 
1 1 1 1 1 1 1 1 1 
1 1 1 1 1 1 1 1 1 
1 1 1 1 1 1 1 1 1 
1 1 1 1 1 1 1 1 1 
1 1 1 1 1 1 1 1 1 
1 1 1 1 1 1 1 1 1 
1 1 1 1 1 1 1 1 1 
1 1 1 1 1 1 1 1 1 
1 1 1 1 1 1 1 1 1 
1 1 1 1 1 1 1 1 1 
1 1 1 1 1 1 1 1 1 
1 1 1 1 1 1 1 1 1 
1 1 1 1 1 1 1 1 1 
1 1 1 1 1 1 1 1 1 
1 1 1 1 1 1 1 1 1 
1 1 1 1 1 1 1 1 1 
1 1 1 1 1 1 1 1 1 
1 1 1 1 1 1 1 1 1 
1 1 1 1 1 1 1 1 1 
1 1 1 1 1 1 1 1 1 
1 1 1 1 1 1 1 1 1 
1 1 1 1 1 1 1 1 1 
1 1 1 1 1 1 1 1 1 
1 1 1 1 1 1 1 1 1 
1 1 1 1 1 1 1 1 1 
1 1 1 1 1 1 1 1 1 
1 1 1 1 1 1 1 1 1 
1 1 1 1 1 1 1 1 1 
1 1 1 1 1 1 1 1 1 
1 1 1 1 1 1 1 1 1 
1 1 1 1 1 1 1 1 1 
1 1 1 1 1 1 1 1 1 
1 1 1 1 1 1 1 1 1 
1 1 1 1 1 1 1 1 1 
1 1 1 1 1 1 1 1 1 
1 1 1 1 1 1 1 1 1 
1 1 1 1 1 1 1 1 1 
1 1 1 1 1 1 1 1 1 
1 1 1 1 1 1 1 1 1 
1 1 1 1 1 1 1 1 1 
1 1 1 1 1 1 1 1 1 
1 1 1 1 1 1 1 1 1 
1 1 1 1 1 1 1 1 1 
1 1 1 1 1 1 1 1 1 
1 1 1 1 1 1 1 1 1 
1 1 1 1 1 1 1 1 1 
1 1 1 1 1 1 1 1 1 
1 1 1 1 1 1 1 1 1 
1 1 1 1 1 1 1 1 1 
1 1 1 1 1 1 1 1 1 
1 1 1 1 1 1 1 1 1 
1 1 1 1 1 1 1 1 1 
1 1 1 1 1 1 1 1 1 
1 1 1 1 1 1 1 1 1 
1 1 1 1 1 1 1 1 1 
1 1 1 1 1 1 1 1 1 
1 1 1 1 1 1 1 1 1 
1 1 1 1 1 1 1 1 1 
1 1 1 1 1 1 1 1 1 
1 1 1 1 1 1 1 1 1 
1 1 1 1 1 1 1 1 1 
1 1 1 1 1 1 1 1 1 
1 1 1 1 1 1 1 1 1 
1 1 1 1 1 1 1 1 1 
1 1 1 1 1 1 1 1 1 
1 1 1 1 1 1 1 1 1 
1 1 1 1 1 1 1 1 1 
1 1 1 1 1 1 1 1 1 
1 1 1 1 1 1 1 1 1 
1 1 1 1 1 1 1 1 1 
1 1 1 1 1 1 1 1 1 
1 1 1 1 1 1 1 1 1 
1 1 1 1 1 1 1 1 1 
1 1 1 1 1 1 1 1 1 
1 1 1 1 1 1 1 1 1 
1 1 1 1 1 1 1 1 1 
1 1 1 1 1 1 1 1 1 
1 1 1 1 1 1 1 1 1 
1 1 1 1 1 1 1 1 1 
1 1 1 1 1 1 1 1 1 
1 1 1 1 1 1 1 1 1 
1 1 1 1 1 1 1 1 1 
1 1 1 1 1 1 1 1 1 
1 1 1 1 1 1 1 1 1 
1 1 1 1 1 1 1 1 1 
1 1 1 1 1 1 1 1 1 
1 1 1 1 1 1 1 1 1 
1 1 1 1 1 1 1 1 1 
1 1 1 1 1 1 1 1 1 
1 1 1 1 1 1 1 1 1 
1 1 1 1 1 1 1 1 1 
1 1 1 1 1 1 1 1 1 
1 1 1 1 1 1 1 1 1 
1 1 1 1 1 1 1 1 1 
1 1 1 1 1 1 1 1 1 
1 1 1 1 1 1 1 1 1 
1 1 1 1 1 1 1 1 1 
1 1 1 1 1 1 1 1 1 
1 1 1 1 1 1 1 1 1 
1 1 1 1 1 1 1 1 1 
1 1 1 1 1 1 1 1 1 
1 1 1 1 1 1 1 1 1 
1 1 1 1 1 1 1 1 1 
1 1 1 1 1 1 1 1 1 
1 1 1 1 1 1 1 1 1 
1 1 1 1 1 1 1 1 1 
1 1 1 1 1 1 1 1 1 
1 1 1 1 1 1 1 1 1 
1 1 1 1 1 1 1 1 1 
1 1 1 1 1 1 1 1 1 
1 1 1 1 1 1 1 1 1 
1 1 1 1 1 1 1 1 1 
1 1 1 1 1 1 1 1 1 
1 1 1 1 1 1 1 1 1 
1 1 1 1 1 1 1 1 1 
1 1 1 1 1 1 1 1 1 
1 1 1 1 1 1 1 1 1 
1 1 1 1 1 1 1 1 1 
1 1 1 1 1 1 1 1 1 
1 1 1 1 1 1 1 1 1 
1 1 1 1 1 1 1 1 1 
1 1 1 1 1 1 1 1 1 
1 1 1 1 1 1 1 1 1 
1 1 1 1 1 1 1 1 1 
1 1 1 1 1 1 1 1 1 
1 1 1 1 1 1 1 1 1 
1 1 1 1 1 1 1 1 1 
1 1 1 1 1 1 1 1 1 
1 1 1 1 1 1 1 1 1 
1 1 1 1 1 1 1 1 1 
1 1 1 1 1 1 1 1 1 
1 1 1 1 1 1 1 1 1 
1 1 1 1 1 1 1 1 1 
1 1 1 1 1 1 1 1 1 
1 1 1 1 1 1 1 1 1 
1 1 1 1 1 1 1 1 1 
1 1 1 1 1 1 1 1 1 
1 1 1 1 1 1 1 1 1 
1 1 1 1 1 1 1 1 1 
1 1 1 1 1 1 1 1 1 
1 1 1 1 1 1 1 1 1 
1 1 1 1 1 1 1 1 1 
1 1 1 1 1 1 1 1 1 
1 1 1 1 1 1 1 1 1 
1 1 1 1 1 1 1 1 1 
1 
NORMALS Normals float
0.327101 -0.186523 -0.926398 0.228209 -0.213086 -0.950008 0.30779 -0.133899 -0.941985 
0.0704876 -0.0240714 -0.997222 0.857266 -0.157869 -0.490073 0.143667 0.103061 -0.984245 
0.587738 -0.249584 -0.769592 0.569999 0.179035 -0.801902 0.216437 0.355686 -0.909199 
0.73758 0.589605 -0.329153 0.897416 0.427333 -0.109688 0.484028 0.577396 -0.657519 
0.393313 0.498423 -0.77258 0.0559862 0.614967 -0.786563 0.213349 -0.314666 -0.924915 
0.499646 -0.458308 -0.735056 -0.0368671 -0.15554 -0.987141 0.521235 -0.405142 -0.751115 
0.261825 -0.260812 -0.929206 0.480663 -0.266402 -0.83546 0.661653 -0.460884 -0.59144 
0.847647 -0.283774 -0.448294 0.736669 -0.144302 -0.660678 0.95391 0.045325 -0.296651 
0.0316134 0.169181 -0.985078 0.0479668 -0.0677078 -0.996551 0.988064 -0.00249473 -0.154022 
0.963747 0.264465 0.0353611 -0.071287 0.193188 -0.978568 0.0489804 0.205506 -0.977429 
0.57284 0.602416 -0.555832 0.549389 0.433662 -0.714219 0.601559 0.734865 -0.31321 
0.418081 0.699651 -0.579393 0.157597 0.311909 -0.93695 0.0751882 0.416338 -0.906096 
0.341966 0.760922 -0.551413 0.436772 -0.486137 -0.756902 0.0837853 -0.222833 -0.971249 
0.170917 -0.263605 -0.949368 0.804932 -0.537415 -0.251534 -0.0827596 -0.159955 -0.983649 
0.829494 -0.497871 -0.253107 0.827904 -0.435128 -0.353889 0.873292 -0.383855 -0.300026 
0.951998 -0.26602 -0.151435 0.976941 -0.21153 -0.0289976 0.996431 -0.0197364 -0.0820693 
0.968608 -0.037575 0.245738 0.982916 0.175743 -0.0546817 0.900547 0.425407 -0.0896855 
0.909602 0.366985 0.194797 0.767224 0.637981 -0.065932 0.732852 0.677578 -0.0617701 
0.656571 0.742958 -0.130107 0.0115988 0.284925 -0.95848 0.495361 0.753159 -0.432862 
0.592559 0.764425 -0.254026 0.433654 0.840069 -0.325925 0.513655 0.857399 0.0320262 
0.249835 0.456776 -0.853779 0.107554 -0.373737 -0.921278 0.00452604 -0.0346087 -0.999391 
-0.0690916 -0.487025 -0.870651 -0.0993806 0.167063 -0.980925 0.165694 -0.153955 -0.974086 
0.150851 0.513826 -0.844528 0.93272 -0.306647 0.189741 0.873785 -0.082511 0.479262 
0.874446 0.162769 0.457003 -0.184437 -0.186029 -0.965078 0.683497 0.32055 0.655805 
0.776077 0.577855 0.252562 0.720469 0.458247 0.520513 -0.256185 -0.0684162 -0.964204 
0.673219 0.71243 0.198041 0.678245 0.726813 0.10829 0.623887 0.774083 0.107524 
0.553429 0.789232 0.266138 0.0534197 0.1951 -0.979328 0.5573 0.74718 0.362132 
0.566461 0.668685 0.481645 0.635616 0.771872 0.014352 -0.0601734 0.0230131 -0.997923 
0.502297 0.729509 -0.464236 -0.0939327 0.0199997 -0.995378 0.38136 0.806667 -0.451501 
0.536217 0.764601 -0.357571 -0.0814831 0.108014 -0.990804 0.344968 0.439163 -0.829538 
-0.0109176 0.302359 -0.953132 0.292529 0.424025 -0.857105 0.560698 0.557863 -0.611888 
0.331508 0.365767 -0.869665 0.13804 0.250682 -0.958177 0.592544 0.537749 -0.599765 
0.556038 0.547658 -0.625214 -0.0431661 -0.0426344 -0.998158 -0.0912931 -0.183519 -0.978768 
-0.182878 -0.0400585 -0.982319 0.0954145 -0.0443486 -0.994449 0.00388864 0.09334 -0.995627 
0.19321 -0.345151 -0.918445 0.641461 -0.425594 -0.638277 0.71933 -0.44224 -0.535713 
0.172317 -0.522948 0.834765 -0.124141 -0.194435 0.973028 0.166431 0.170081 0.971274 
0.864062 -0.45257 -0.220401 -0.106178 0.504277 0.856989 0.935027 -0.257099 0.24418 
0.885687 -0.260713 0.384171 0.741009 0.0230344 0.6711 0.56846 0.297778 0.76693 
0.668671 0.534986 0.5164 0.694378 0.577503 0.429337 0.513308 0.444452 0.734151 
0.585004 0.697994 0.413007 0.421011 0.533585 0.73351 0.499748 0.656641 0.564867 
0.605039 0.763681 0.225211 0.490068 0.701757 0.517079 0.720317 0.556377 0.414232 
0.526869 0.818931 0.22751 0.377136 0.8937 -0.243039 0.656098 0.726591 0.203963 
0.578289 0.808547 0.108783 0.611112 0.73917 -0.283143 0.605463 0.638455 -0.475173 
0.00321662 0.153097 -0.988206 0.659918 0.656046 -0.366212 0.725932 0.687544 -0.0174973 
0.560482 0.529876 -0.636467 0.0507715 0.29932 -0.952801 -0.068514 -0.127939 0.989413 
0.354007 0.679032 -0.643114 0.221315 -0.382735 -0.896958 0.475872 -0.340747 -0.810825 
0.643772 -0.442672 -0.624179 0.661453 -0.367059 -0.654024 0.0368087 -0.370178 -0.928231 
-0.00411997 -0.00489005 0.99998 0.92213 -0.362862 0.134196 0.932763 -0.35848 0.0380052 
0.6614 -0.058004 0.747787 0.890406 -0.176697 0.41947 0.645522 -0.0472365 0.76228 
0.746249 -0.120733 0.654627 0.432394 0.0929941 0.896876 0.52329 0.101264 0.846116 
0.388884 0.509897 0.767316 0.373487 0.503442 0.779136 0.572701 0.484383 0.661352 
0.615715 0.757714 0.21625 -0.115493 -0.123129 -0.985647 0.632914 0.770512 0.075699 
0.669067 0.641254 0.37569 0.691947 0.716895 0.0852647 -0.104696 -0.0611587 -0.992622 
0.648407 0.650488 0.395517 0.777295 0.615971 0.128034 0.697864 0.631319 -0.338264 
0.738048 0.584397 0.337291 0.719289 0.579849 0.382621 0.724083 0.68563 0.0749411 
0.782963 0.621695 0.0215348 0.656068 0.623134 0.425768 -0.0740394 0.136741 -0.987836 
0.689707 0.675118 0.261765 0.608688 0.734623 -0.299712 0.371834 0.723709 -0.581365 
0.52128 0.8528 -0.0316232 0.0044363 0.421004 -0.907048 0.127151 0.460061 -0.878736 
0.442745 0.774608 -0.451617 0.309388 0.80512 -0.506024 0.863826 -0.431512 -0.260003 
0.943929 -0.309748 0.114253 0.59382 -0.00677828 0.80457 0.844164 -0.269529 0.463402 
0.33689 0.220773 0.915295 0.426643 0.365159 0.827427 0.561245 0.555639 0.613408 
0.516683 0.523082 0.677808 0.639524 0.523059 0.563399 0.764985 0.562454 0.313758 
0.639967 0.616358 0.458851 0.510922 0.502958 0.697131 0.65767 0.753056 0.0194163 
0.565791 0.585227 0.580853 0.546709 0.816584 0.185201 0.640224 0.646652 0.414674 
0.499687 0.863331 -0.070521 0.561445 0.706632 0.430641 0.491251 0.771093 -0.405078 
0.48181 0.841599 -0.244069 0.550571 0.827781 -0.107937 0.0604611 0.570502 -0.819068 
0.0323639 0.488437 -0.871999 0.0225916 0.523369 -0.851807 0.0419227 0.604962 -0.79515 
0.197021 0.692573 -0.69392 0.264644 -0.351602 -0.897964 0.551961 -0.178194 -0.814608 
0.687693 -0.300965 -0.66068 0.216141 -0.264911 -0.939737 0.895408 -0.364976 -0.255025 
-0.0702125 -0.320131 -0.944768 0.95 -0.216756 -0.224758 0.898142 -0.417811 0.137019 
0.973961 -0.146954 0.172641 0.902361 -0.25606 0.346667 0.853799 -0.162589 0.494562 
0.81704 -0.103946 0.567133 0.304694 0.245879 0.920166 0.460217 0.367876 0.808002 
0.382807 0.388201 0.838307 0.612961 0.485375 0.62345 0.485167 0.391145 0.782061 
0.679003 0.447016 0.58235 0.457868 0.390035 0.798893 0.538134 0.40855 0.737224 
0.490105 0.424329 0.761408 -0.193914 0.102871 -0.97561 0.58593 0.697452 0.412609 
0.567285 0.684716 0.45755 0.515766 0.856727 -0.0021544 0.349178 0.820099 -0.453335 
-0.0467856 0.490426 -0.870226 0.267942 0.844229 -0.464203 0.496899 0.861302 0.106069 
0.0440237 0.693954 -0.718673 0.361957 0.91784 -0.162966 0.191304 0.818094 -0.542333 
0.127706 0.826088 -0.548881 0.172927 0.913295 -0.368766 0.554054 -0.194105 -0.809535 
0.733132 -0.229144 -0.640321 0.383552 -0.354891 -0.852608 0.763439 -0.260169 -0.591163 
-0.00365912 -0.310724 -0.950493 0.750464 -0.306601 -0.585491 0.955449 -0.103444 0.276435 
0.88557 -0.285512 0.3664 0.566678 0.0954741 0.818389 0.47679 0.231961 0.847859 
0.408558 0.484863 0.773297 0.519324 0.683663 0.512745 0.413942 0.90874 0.0533301 
-0.127437 0.518991 -0.845227 0.361899 0.930966 -0.0482888 0.456198 0.844374 0.280922 
-0.0640578 0.910066 -0.409484 0.15349 0.96335 -0.219994 0.207119 0.977539 -0.038972 
0.0339196 0.847912 -0.52905 0.232358 -0.309752 -0.921989 0.300997 -0.376005 -0.876368 
0.58961 -0.339831 -0.732717 0.0423633 -0.337363 -0.940421 0.971008 -0.127655 -0.20211 
0.331929 0.214048 0.918698 0.355597 0.243981 0.902233 0.320632 0.361028 0.875702 
0.3114 0.454819 0.834368 -0.161999 0.109434 -0.980704 0.438612 0.431662 0.788218 
0.429887 0.704353 0.564876 -0.187504 0.394082 -0.899745 0.38073 0.853316 0.356226 
0.151136 0.985498 -0.0771494 0.282257 0.873135 0.39745 0.999185 0.0301163 0.0268862 
0.993563 0.0681752 0.090468 0.95063 0.097742 0.294532 0.960612 0.0701357 0.268896 
0.901748 0.119388 0.415448 0.28027 0.220655 0.934216 -0.217206 0.0550646 -0.974571 
0.343374 0.464131 0.816503 0.0321948 0.963097 -0.267223 0.332918 0.671858 0.661644 
0.541659 0.23943 0.805778 -0.188124 -0.202801 -0.960979 0.334956 0.613162 0.715428 
0.266042 0.795637 0.544227 0.357924 0.89845 0.254319 -0.13967 0.58613 -0.798088 
-0.0378397 0.995657 0.0850603 0.335769 -0.356804 -0.871751 0.536008 -0.286585 -0.794081 
0.348391 -0.219549 -0.911275 0.0190398 -0.396865 -0.91768 0.12753 -0.341688 -0.93112 
0.946954 -0.0864087 -0.309534 0.550044 0.392288 0.737266 -0.21176 -0.321815 -0.922818 
-0.27259 0.198226 -0.941489 -0.306047 0.286483 -0.907889 -0.309249 0.483905 -0.818658 
-0.24745 0.682893 -0.687332 -0.225252 0.654651 -0.721591 0.183714 0.977533 0.103333 
0.103822 0.989485 0.100704 0.133405 0.928617 0.346228 0.359311 -0.169934 -0.917616 
0.446288 -0.0512473 -0.893421 0.588219 -0.193632 -0.785178 0.939302 0.140896 0.312827 
0.613673 0.277936 0.739024 0.759918 0.265055 0.593524 0.438983 0.409607 0.799698 
0.403841 0.33189 0.852503 0.338475 0.442058 0.830674 0.332146 0.580893 0.74313 
-0.129094 0.926389 -0.353748 0.17233 0.909236 0.378935 -0.0832872 0.849827 -0.52044 
0.351609 0.723238 0.594389 0.192903 0.795809 0.574001 -0.276265 0.83638 -0.47344 
0.0276044 0.977756 -0.207921 0.292054 -0.297402 -0.908987 0.442052 -0.387707 -0.808872 
0.0807378 -0.31255 -0.946464 0.554036 -0.215763 -0.804047 0.896841 0.0163857 -0.442049 
0.924114 -0.0912773 -0.371056 0.341169 0.383189 0.858353 0.0860763 0.0319303 0.995777 
-0.349329 -0.0728961 -0.93416 -0.308796 0.0422313 -0.95019 0.326124 0.12474 0.937061 
-0.267017 0.23684 -0.934135 -0.246654 0.349536 -0.903873 -0.0706593 0.9975 -8.86711e-05 
0.130962 0.84006 0.526448 0.164376 0.794042 0.585217 -0.182137 0.876458 -0.445698 
-0.0541677 0.982746 0.176851 0.279318 0.828074 0.486081 0.447447 -0.345619 -0.824827 
0.249103 -0.343504 -0.905512 0.971114 0.23581 0.0364919 0.728429 0.251728 0.637201 
0.255576 0.228847 0.939314 0.225663 0.0249219 0.973886 0.299856 0.543924 0.78373 
-0.233857 0.77202 -0.591012 0.249005 0.545389 0.800342 0.309082 0.676887 0.668051 
-0.311209 0.897027 -0.313833 0.0599921 0.992511 -0.106411 0.240229 -0.42358 -0.873424 
0.104131 -0.392583 -0.913803 0.563709 -0.184786 -0.805038 0.547008 -0.174489 -0.81874 
0.868882 0.083267 -0.487967 0.972031 0.234838 0.00254688 0.981637 0.188076 0.0318709 
0.936905 0.247311 0.247076 0.889089 0.325461 0.321862 0.745233 0.420122 0.517808 
0.57145 0.322196 0.754741 -0.225181 -0.370143 -0.90127 -0.143997 0.89404 -0.424213 
0.0979767 0.990142 0.100102 0.15269 0.851383 0.50183 0.204615 0.687992 0.696275 
0.131358 0.850852 0.508721 -0.138093 0.987648 -0.0740331 0.331917 -0.246601 -0.910505 
0.550714 -0.15885 -0.819439 -0.18904 -0.469467 -0.862476 0.776875 -0.0410057 -0.628319 
0.599005 0.392496 0.697954 0.636838 0.405262 0.655896 -0.361814 -0.25354 -0.897111 
0.436598 0.179286 0.881612 -0.399613 0.359547 -0.843229 0.257883 0.467639 0.845465 
0.385491 0.263525 0.88428 -0.114187 0.9254 -0.361382 0.524939 -0.116962 -0.843065 
0.368468 -0.393831 -0.842098 0.735568 -0.000938834 -0.67745 0.552386 0.065178 -0.831037 
0.743366 -0.0598762 -0.6662 0.758728 0.0758117 -0.646981 0.930135 0.292623 -0.221859 
0.820369 0.343492 0.457173 0.426538 0.459798 0.778878 -0.454422 0.454343 -0.766207 
-0.379986 0.714282 -0.587717 -0.227681 0.861049 -0.454705 0.0532043 0.996226 0.068579 
0.0840796 0.992477 0.088997 0.390346 -0.298795 -0.870834 -0.00345954 -0.292181 -0.956357 
0.718338 -0.11669 -0.685838 0.656138 -0.189507 -0.730458 0.267254 -0.269811 -0.925082 
0.606698 0.0526858 -0.793185 0.859257 0.227976 -0.457935 0.137954 -0.319263 -0.937571 
0.901746 0.275025 -0.33349 0.86364 0.15599 -0.479368 0.320933 0.193371 0.927152 
0.331519 0.363421 0.870644 -0.436095 0.783742 -0.442233 -0.398344 0.830956 -0.388375 
0.374607 -0.0870141 -0.923092 0.402933 -0.0465413 -0.914046 0.689283 0.0787237 -0.720202 
-0.102715 -0.315632 -0.943306 0.907131 0.138958 -0.397246 0.953427 0.296697 -0.0542915 
0.936573 0.263004 -0.231644 0.908978 0.384322 0.161417 0.962225 0.230364 0.145106 
0.910182 0.376643 -0.172361 0.857552 0.497873 0.129331 0.85428 0.501748 0.135847 
0.51476 0.637545 0.5732 0.720795 0.563031 0.404291 0.584136 0.416116 0.696874 
0.413562 0.0391591 0.909633 -0.492522 0.163035 -0.854893 0.331541 0.504456 0.797248 
-0.268295 0.930487 -0.249422 0.275428 0.744054 0.608706 -0.202917 0.971466 0.122799 
-0.124269 0.989144 -0.0784259 0.216578 0.884379 0.413481 0.662961 -0.114031 -0.739919 
0.264035 -0.336253 -0.904002 -0.275507 -0.433748 -0.85788 -0.449176 -0.00477924 -0.89343 
-0.41916 0.619486 -0.663733 0.755319 0.0621581 -0.652403 0.539192 -0.189199 -0.820656 
-0.0011945 -0.445434 -0.895314 0.814436 0.119825 -0.567747 -0.318295 -0.397502 -0.860628 
0.805043 0.442709 0.39486 0.711066 0.446326 0.543302 0.696626 0.413427 0.586337 
0.464387 0.464828 0.753844 0.281789 0.664496 0.692128 -0.504474 0.436046 -0.745231 
-0.391319 0.706171 -0.590078 0.113673 0.830025 0.546019 -0.276476 0.879663 -0.386981 
0.121806 0.866682 0.483762 0.526412 -0.194215 -0.82775 0.603127 0.155454 -0.78235 
0.559457 -0.232693 -0.795526 0.247406 -0.332617 -0.910031 0.789502 0.297021 -0.53709 
0.357755 -0.281363 -0.890419 0.940727 0.196094 -0.276733 0.887198 0.323715 -0.328768 
0.890332 0.445945 0.0918811 0.898487 0.402272 -0.175778 0.175039 0.593732 0.785394 
-0.305233 -0.428411 -0.850469 -0.207209 -0.509175 -0.835347 -0.439338 -0.170259 -0.88204 
0.348786 -0.0232718 0.936913 -0.503333 0.365641 -0.782919 -0.021645 0.998306 0.0540127 
0.0880764 0.950768 0.297123 0.427261 -0.281934 -0.859047 0.181549 -0.432212 -0.883308 
0.428715 -0.18085 -0.885153 0.751968 0.00827535 -0.659148 0.013503 -0.4349 -0.900377 
0.890225 0.282811 -0.357096 0.830264 0.460401 0.314155 0.66965 0.480165 0.566577 
0.20037 0.446767 0.871924 -0.359876 -0.46738 -0.807493 -0.125857 -0.566944 -0.814085 
0.367593 0.270038 0.889918 -0.443067 -0.336159 -0.831077 0.381564 0.466832 0.797795 
-0.524501 0.594791 -0.609198 0.349444 0.627239 0.696032 -0.189972 0.973015 -0.130966 