# vtk DataFile Version 4.2
vtk output
ASCII
DATASET POLYDATA
POINTS 2677 float
276.586 138.808 30.8992 277.147 138.575 31.1713 277.141 138.889 31.2465 
275.04 139.936 30.759 276.392 139.736 31.0615 276.711 139.535 31.177 
275.279 140.141 30.8597 276.112 140.101 31.0774 275.545 133.382 31.7361 
275.484 133.976 31.4959 274.096 136.322 30.6367 276.065 136.394 31.0281 
275.381 136.981 30.7176 277.177 137.934 31.219 277.393 138.505 31.4114 
277.301 138.921 31.4562 276.464 139.997 31.2915 276.804 139.68 31.3535 
276.225 140.243 31.1846 276.056 140.341 31.1597 276.141 140.361 31.2089 
274.409 140.983 31.168 275.094 140.785 31.2736 275.618 140.62 31.2971 
268.264 145.048 31.3982 267.786 145.221 31.3899 268.526 144.49 31.2802 
267.507 145.781 31.5697 268.753 145.298 31.6752 266.34 147.094 31.8951 
274.066 130.963 31.9958 275.016 131.111 32.3857 275.261 130.755 32.8145 
274.863 132.352 31.7828 277.161 135.92 31.9331 277.55 138.398 31.5035 
277.53 138.215 31.5317 277.586 138.356 31.5578 277.284 139.083 31.5505 
277.461 138.765 31.7693 277.547 138.475 31.5713 277.18 139.294 31.6535 
269.457 141.599 30.9041 276.164 140.349 31.4811 275.606 140.714 31.5621 
273.045 142.141 31.6491 266.789 146.175 31.676 264.923 147.485 31.8521 
264.273 148.912 32.2494 265.493 148.443 32.5804 261.454 151.175 32.3394 
260.049 152.846 32.7216 261.053 152.418 32.7762 273.851 128.065 33.0807 
273.823 127.879 33.1457 273.687 127.828 33.1354 273.914 127.934 33.1994 
273.319 127.299 33.3546 273.957 128.43 33.0054 273.383 128.779 32.6411 
274.319 128.732 33.1783 267.867 132.847 31.8395 277.62 137.641 32.1841 
273.965 141.773 31.8378 273.906 141.963 32.1656 272.428 142.887 32.0511 
264.223 144.414 31.4258 272.775 142.816 32.3704 267.059 147.112 32.4915 
266.134 148.029 32.7888 263.953 150.311 33.0484 263.374 150.887 32.8548 
263.442 150.927 32.9315 261.555 152.506 33.1115 258.331 155.196 33.4948 
253.872 158.806 33.2107 255.3 158.511 33.5752 252.38 160.362 33.532 
253.478 160.047 33.746 254.048 159.729 33.8306 251.182 161.375 33.9429 
272.478 123.47 34.5941 271.802 123.54 34.3138 273.018 124.101 34.7049 
272.351 125.583 33.7213 272.854 125.319 34.0627 273.191 124.876 34.5044 
271.124 126.62 33.1044 274.01 127.857 33.4522 276.29 132.564 33.4322 
276.903 134.233 33.178 277.105 135.142 33.1814 277.356 135.995 32.553 
277.643 137.66 32.4533 277.641 137.93 32.5274 277.658 138.34 32.1969 
277.493 138.671 32.4723 277.143 139.325 32.2518 275.493 140.79 32.4161 
274.29 141.684 32.5599 273.032 142.639 32.4979 271.046 144.142 33.0384 
255.291 146.638 32.7037 265.954 148.286 33.1913 263.97 150.42 33.562 
259.485 154.481 33.7794 256.242 157.857 33.9619 255.606 158.365 33.7099 
255.003 159.085 33.9081 252.112 161.312 34.2636 272.145 122.209 35.0834 
275.59 130.462 34.1977 276.86 134.15 33.4882 277.418 136.495 32.8662 
277.456 137.272 32.9128 277.529 138.019 32.7376 276.722 139.147 33.087 
275.331 140.705 32.8108 272.503 142.898 33.1044 265.287 148.77 33.9573 
262.734 151.689 33.7151 262.431 151.911 34.1038 261.684 152.625 34.0683 
261.972 152.285 34.2794 259.375 154.702 34.1014 257.943 156.109 34.1635 
257.48 156.682 34.3811 256.467 157.844 34.7764 255.137 159.187 34.6338 
245.418 161.931 34.3498 252.636 161.096 34.5174 250.208 162.772 34.7816 
249.902 163.012 34.9306 246.968 163.902 34.9972 248.626 163.46 34.9837 
270.449 119.775 35.5561 272.311 121.009 35.8264 273.586 124.069 35.5322 
273.527 123.572 35.6186 273.877 125.47 35.0619 276.119 132.032 34.4536 
276.695 134.536 34.1859 277.095 137.713 33.3392 275.455 138.647 34.3101 
273.184 141.826 33.7187 271.84 143.222 33.4882 264.629 149.355 34.2764 
264.309 149.827 34.302 264.217 149.987 34.2709 264.202 149.928 34.3747 
262.618 151.382 34.6217 260.504 153.643 34.267 260.874 153.264 34.4337 
257.89 156.245 34.5693 258.72 155.234 34.7684 256.671 157.494 35.1283 
253.003 160.857 34.8567 250.778 162.522 35.0324 251.536 161.938 35.2563 
241.712 165.008 35.411 246.82 164.639 35.6359 247.292 164.501 35.7546 
241.171 166.312 35.894 239.007 167.367 36.4556 240.812 166.789 36.093 
242.21 166.64 36.2899 239.082 167.682 36.6682 239.632 167.744 36.7184 
240.823 167.483 36.5946 270.207 115.638 37.2189 270.735 115.542 37.4994 
270.542 117.158 36.7006 272.687 120.246 36.7127 273.841 124.746 35.6652 
275.259 130.171 35.1506 275.887 131.469 34.7448 275.921 131.772 34.8199 
266.52 146.12 35.1379 265.229 147.972 34.8328 263.617 150.208 34.6912 
258.081 155.653 35.2431 254.689 159.467 35.1183 251.547 161.797 35.6707 
249.414 163.35 35.5123 245.842 165.226 36.2879 236.257 167.678 37.1171 
237.637 167.314 36.65 241.994 166.973 36.4978 242.284 166.918 36.7187 
241.131 167.499 36.7814 238.905 167.945 36.9779 240.613 167.69 36.8082 
237.028 168.224 37.2993 269.511 113.547 37.8761 268.815 114.127 37.5343 
269.7 114.806 37.4108 269.612 115.471 37.1311 272.26 117.236 37.9442 
273.859 124.84 36.5297 274.102 126.531 36.5302 274.036 126.354 36.6988 
274.167 128.112 36.5928 274.247 128.532 36.5622 274.431 128.981 36.3026 
274.946 132.035 35.8109 272.61 136.789 36.3399 260.906 152.165 35.5101 
254.6 159.117 35.6859 251.727 161.47 35.8893 250.666 162.445 35.868 
250.356 162.428 36.1731 232.48 165.83 37.336 233.114 167.042 37.5151 
243.477 166.356 36.9419 244.826 165.651 36.956 242.035 167.144 37.105 
234.382 167.973 37.724 240.808 167.691 36.9448 241.543 167.372 37.3049 
233.577 168.462 38.2243 235.666 168.577 38.262 237.967 168.458 37.6649 
267.004 113.382 37.8574 273.084 120.211 38.1571 273.927 126.286 36.8707 
273.818 126.674 37.0163 273.32 128.671 37.3535 273.404 127.798 37.3814 
274.118 128.415 36.7018 272.95 130.357 37.3625 256.953 154.793 36.6646 
253.166 157.046 37.5511 255.611 156.523 36.6706 252.443 159.228 37.0089 
248.121 162.498 37.6429 229.259 165.354 38.1092 230.089 166.479 38.1375 
246.318 164.952 36.8845 244.449 165.716 37.3845 231.553 167.601 38.1571 
242.745 166.599 37.6405 230.656 168.352 38.7997 232.273 168.032 38.2081 
231.294 168.645 38.9164 234.944 168.738 38.4427 235.019 168.806 38.748 
237.49 168.451 38.108 273.312 123.659 38.0416 271.627 128.099 38.5239 
228.326 150.234 38.6336 243.556 165.815 38.0144 227.283 168.193 39.6251 
241.807 166.8 38.1537 228.077 168.977 39.8168 234.434 168.916 38.8997 
228.602 169.142 39.8044 229.75 169.212 39.9022 232.415 169.032 39.4034 
228.413 169.334 40.0135 228.701 169.329 39.9746 270.733 107.382 40.9337 
270.798 106.584 41.3165 269.196 107.186 40.5381 270.213 107.788 40.5514 
269.78 107.101 40.7047 266.162 108.43 39.9913 240.834 126.892 39.8128 
252.774 146.54 39.5617 242.165 163.807 39.7535 223.466 165.188 39.9761 
241.326 166.279 38.9161 224.629 169.148 41.3884 235.559 168.403 39.6114 
225.99 169.617 41.3044 228.957 169.357 40.0653 233.485 168.947 39.6794 
270.742 105.097 41.8722 270.201 105.382 41.5405 271.253 105.763 41.96 
266.339 106.333 40.8898 271.658 107.592 41.602 221.15 159.874 40.3101 
221.976 168.005 41.4336 221.185 168.143 41.7547 239.758 166.851 39.2053 
221.182 168.656 42.108 222.766 168.454 41.4708 221.848 168.881 42.1158 
223.674 168.909 41.5541 226.289 169.722 41.3417 227.265 169.676 40.8939 
228.025 169.561 41.1088 227.093 169.743 41.1342 270.194 104.024 42.0588 
271.785 104.784 42.753 272.129 109.482 42.1807 272.33 116.706 40.8617 
272.039 116.981 41.265 234.579 166.92 41.1515 218.766 167.981 42.3077 
232.684 168.203 41.1172 217.473 169.101 43.1668 233.089 168.527 40.6161 
218.087 169.526 43.4458 219.882 169.329 43.1682 221.112 169.267 42.8879 
224.684 169.467 42.2807 271.762 99.0105 44.1739 272.533 99.0698 44.6017 
272.36 99.8546 44.2874 272.215 103.567 43.4001 272.145 106.3 43.0238 
229.227 165.489 43.3662 215.154 167.332 43.0614 215.772 168.569 43.308 
214.562 169.526 44.342 218.568 169.74 43.758 216.85 169.829 44.1042 
218.016 169.857 43.9359 271.064 98.2802 44.228 272.687 100.893 44.3885 
272.709 101.568 44.375 271.895 109.285 43.6119 270.106 116.539 42.9257 
216.343 139.846 43.8983 210.793 165.243 44.1997 213.102 169.033 44.4973 
224.656 169.142 43.2496 212.574 169.426 45.0236 217.378 169.992 44.5688 
219.331 169.671 44.3202 221.949 169.349 43.6459 273.118 94.7206 46.1181 
273.386 99.3407 45.4884 272.711 103.374 44.5636 271.408 110.629 44.0129 
270.773 110.705 44.672 210.91 167.198 44.5803 209.838 168.394 45.7032 
223.397 168.912 43.8867 215.113 169.946 45.5374 216.189 169.999 44.8356 
222.574 169.109 43.9116 212.813 169.783 45.5123 214.229 169.882 45.1552 
272.571 93.6412 46.3252 264.582 95.6857 45.8475 274.035 97.6796 46.3612 
273.96 98.1907 46.1471 273.999 98.2981 46.1767 273.803 98.8424 46.0932 
273.987 98.4106 46.2213 272.582 103.712 45.9421 248.209 104.839 45.4843 
207.644 168.123 46.7066 208.395 169.216 47.2099 209.013 169.182 46.686 
209.975 169.309 46.6307 209.239 169.459 46.7579 210.751 169.437 46.2724 
221.893 168.837 44.5205 209.061 169.577 46.7858 214.453 169.948 45.4954 
208.931 169.519 46.8491 209.019 169.567 46.816 275.598 89.6754 48.4536 
275.794 90.0343 48.4663 274.327 97.2224 46.8121 274.032 98.178 46.2748 
273.88 99.1263 46.5841 272.771 102.696 46.4173 272.096 104.541 46.3932 
205.22 162.748 46.3799 208.802 169.383 47.1265 209.248 169.308 47.3459 
209.224 169.456 46.9212 211.96 169.49 47.021 273.105 88.6665 48.2867 
275.974 91.5451 48.3749 275.149 94.179 47.7271 272.398 102.976 47.0734 
271.119 103.951 47.9161 221.838 144.449 48.3715 203.135 167.266 48.9211 
203.836 167.94 49.0169 204.124 168.151 49.0463 205.265 168.246 48.4304 
206.247 168.679 48.5837 218.556 168.818 45.9439 204.617 168.391 49.0083 
277.988 86.0405 50.306 275.712 94.1224 48.641 275.577 95.2012 49.1937 
271.827 103.003 47.8467 261.514 108.233 49.2479 202.066 166.109 48.9187 
202.028 167.494 49.965 202.887 168.044 50.2031 203.663 168.242 49.9728 
204.693 168.433 49.1305 210.806 169.02 48.0448 211.574 168.859 48.0994 
212.619 168.827 47.8764 280.399 81.6176 51.8864 279.632 82.5541 51.4304 
[...]
POINT_DATA 2677
SCALARS scalars float
LOOKUP_TABLE default
1 1 1 1 1 1 1 1 1 
1 1 1 1 1 1 1 1 1 
1 1 1 1 1 1 1 1 1 
1 1 1 1 1 1 1 1 1 
1 1 1 1 1 1 1 1 1 
1 1 1 1 1 1 1 1 1 
1 1 1 1 1 1 1 1 1 
1 1 1 1 1 1 1 1 1 
1 1 1 1 1 1 1 1 1 
1 1 1 1 1 1 1 1 1 
1 1 1 1 1 1 1 1 1 
1 1 1 1 1 1 1 1 1 
1 1 1 1 1 1 1 1 1 
1 1 1 1 1 1 1 1 1 
1 1 1 1 1 1 1 1 1 
1 1 1 1 1 1 1 1 1 
1 1 1 1 1 1 1 1 1 
1 1 1 1 1 1 1 1 1 
1 1 1 1 1 1 1 1 1 
1 1 1 1 1 1 1 1 1 
1 1 1 1 1 1 1 1 1 
1 1 1 1 1 1 1 1 1 
1 1 1 1 1 1 1 1 1 
1 1 1 1 1 1 1 1 1 
1 1 1 1 1 1 1 1 1 
1 1 1 1 1 1 1 1 1 
1 1 1 1 1 1 1 1 1 
1 1 1 1 1 1 1 1 1 
1 1 1 1 1 1 1 1 1 
1 1 1 1 1 1 1 1 1 
1 1 1 1 1 1 1 1 1 
1 1 1 1 1 1 1 1 1 
1 1 1 1 1 1 1 1 1 
1 1 1 1 1 1 1 1 1 
1 1 1 1 1 1 1 1 1 
1 1 1 1 1 1 1 1 1 
1 1 1 1 1 1 1 1 1 
1 1 1 1 1 1 1 1 1 
1 1 1 1 1 1 1 1 1 
1 1 1 1 1 1 1 1 1 
1 1 1 1 1 1 1 1 1 
1 1 1 1 1 1 1 1 1 
1 1 1 1 1 1 1 1 1 
1 1 1 1 1 1 1 1 1 
1 1 1 1 1 1 1 1 1 
1 1 1 1 1 1 1 1 1 
1 1 1 1 1 1 1 1 1 
1 1 1 1 1 1 1 1 1 
1 1 1 1 1 1 1 1 1 
1 1 1 1 1 1 1 1 1 
1 1 1 1 1 1 1 1 1 
1 1 1 1 1 1 1 1 1 
1 1 1 1 1 1 1 1 1 
1 1 1 1 1 1 1 1 1 
1 1 1 1 1 1 1 1 1 
1 1 1 1 1 1 1 1 1 
1 1 1 1 1 1 1 1 1 
1 1 1 1 1 1 1 1 1 
1 1 1 1 1 1 1 1 1 
1 1 1 1 1 1 1 1 1 
1 1 1 1 1 1 1 1 1 
1 1 1 1 1 1 1 1 1 
1 1 1 1 1 1 1 1 1 
1 1 1 1 1 1 1 1 1 
1 1 1 1 1 1 1 1 1 
1 1 1 1 1 1 1 1 1 
1 1 1 1 1 1 1 1 1 
1 1 1 1 1 1 1 1 1 
1 1 1 1 1 1 1 1 1 
1 1 1 1 1 1 1 1 1 
1 1 1 1 1 1 1 1 1 
1 1 1 1 1 1 1 1 1 
1 1 1 1 1 1 1 1 1 
1 1 1 1 1 1 1 1 1 
1 1 1 1 1 1 1 1 1 
1 1 1 1 1 1 1 1 1 
1 1 1 1 1 1 1 1 1 
1 1 1 1 1 1 1 1 1 
1 1 1 1 1 1 1 1 1 
1 1 1 1 1 1 1 1 1 
1 1 1 1 1 1 1 1 1 
1 1 1 1 1 1 1 1 1 
1 1 1 1 1 1 1 1 1 
1 1 1 1 1 1 1 1 1 
1 1 1 1 1 1 1 1 1 
1 1 1 1 1 1 1 1 1 
1 1 1 1 1 1 1 1 1 
1 1 1 1 1 1 1 1 1 
1 1 1 1 1 1 1 1 1 
1 1 1 1 1 1 1 1 1 
1 1 1 1 1 1 1 1 1 
1 1 1 1 1 1 1 1 1 
1 1 1 1 1 1 1 1 1 
1 1 1 1 1 1 1 1 1 
1 1 1 1 1 1 1 1 1 
1 1 1 1 1 1 1 1 1 
1 1 1 1 1 1 1 1 1 
1 1 1 1 1 1 1 1 1 
1 1 1 1 1 1 1 1 1 
1 1 1 1 1 1 1 1 1 
1 1 1 1 1 1 1 1 1 
1 1 1 1 1 1 1 1 1 
1 1 1 1 1 1 1 1 1 
1 1 1 1 1 1 1 1 1 
1 1 1 1 1 1 1 1 1 
1 1 1 1 1 1 1 1 1 
1 1 1 1 1 1 1 1 1 
1 1 1 1 1 1 1 1 1 
1 1 1 1 1 1 1 1 1 
1 1 1 1 1 1 1 1 1 
1 1 1 1 1 1 1 1 1 
1 1 1 1 1 1 1 1 1 
1 1 1 1 1 1 1 1 1 
1 1 1 1 1 1 1 1 1 
1 1 1 1 1 1 1 1 1 
1 1 1 1 1 1 1 1 1 
1 1 1 1 1 1 1 1 1 
1 1 1 1 1 1 1 1 1 
1 1 1 1 1 1 1 1 1 
1 1 1 1 1 1 1 1 1 
1 1 1 1 1 1 1 1 1 
1 1 1 1 1 1 1 1 1 
1 1 1 1 1 1 1 1 1 
1 1 1 1 1 1 1 1 1 
1 1 1 1 1 1 1 1 1 
1 1 1 1 1 1 1 1 1 
1 1 1 1 1 1 1 1 1 
1 1 1 1 1 1 1 1 1 
1 1 1 1 1 1 1 1 1 
1 1 1 1 1 1 1 1 1 
1 1 1 1 1 1 1 1 1 
1 1 1 1 1 1 1 1 1 
1 1 1 1 1 1 1 1 1 
1 1 1 1 1 1 1 1 1 
1 1 1 1 1 1 1 1 1 
1 1 1 1 1 1 1 1 1 
1 1 1 1 1 1 1 1 1 
1 1 1 1 1 1 1 1 1 
1 1 1 1 1 1 1 1 1 
1 1 1 1 1 1 1 1 1 
1 1 1 1 1 1 1 1 1 
1 1 1 1 1 1 1 1 1 
1 1 1 1 1 1 1 1 1 
1 1 1 1 1 1 1 1 1 
1 1 1 1 1 1 1 1 1 
1 1 1 1 1 1 1 1 1 
1 1 1 1 1 1 1 1 1 
1 1 1 1 1 1 1 1 1 
1 1 1 1 1 1 1 1 1 
1 1 1 1 1 1 1 1 1 
1 1 1 1 1 1 1 1 1 
1 1 1 1 1 1 1 1 1 
1 1 1 1 1 1 1 1 1 
1 1 1 1 1 1 1 1 1 
1 1 1 1 1 1 1 1 1 
1 1 1 1 1 1 1 1 1 
1 1 1 1 1 1 1 1 1 
1 1 1 1 1 1 1 1 1 
1 1 1 1 1 1 1 1 1 
1 1 1 1 1 1 1 1 1 
1 1 1 1 1 1 1 1 1 
1 1 1 1 1 1 1 1 1 
1 1 1 1 1 1 1 1 1 
1 1 1 1 1 1 1 1 1 
1 1 1 1 1 1 1 1 1 
1 1 1 1 1 1 1 1 1 
1 1 1 1 1 1 1 1 1 
1 1 1 1 1 1 1 1 1 
1 1 1 1 1 1 1 1 1 
1 1 1 1 1 1 1 1 1 
1 1 1 1 1 1 1 1 1 
1 1 1 1 1 1 1 1 1 
1 1 1 1 1 1 1 1 1 
1 1 1 1 1 1 1 1 1 
1 1 1 1 1 1 1 1 1 
1 1 1 1 1 1 1 1 1 
1 1 1 1 1 1 1 1 1 
1 1 1 1 1 1 1 1 1 
1 1 1 1 1 1 1 1 1 
1 1 1 1 1 1 1 1 1 
1 1 1 1 1 1 1 1 1 
1 1 1 1 1 1 1 1 1 
1 1 1 1 1 1 1 1 1 
1 1 1 1 1 1 1 1 1 
1 1 1 1 1 1 1 1 1 
1 1 1 1 1 1 1 1 1 
1 1 1 1 1 1 1 1 1 
1 1 1 1 1 1 1 1 1 
1 1 1 1 1 1 1 1 1 
1 1 1 1 1 1 1 1 1 
1 1 1 1 1 1 1 1 1 
1 1 1 1 1 1 1 1 1 
1 1 1 1 1 1 1 1 1 
1 1 1 1 1 1 1 1 1 
1 1 1 1 1 1 1 1 1 
1 1 1 1 1 1 1 1 1 
1 1 1 1 1 1 1 1 1 
1 1 1 1 1 1 1 1 1 
1 1 1 1 1 1 1 1 1 
1 1 1 1 1 1 1 1 1 
1 1 1 1 1 1 1 1 1 
1 1 1 1 1 1 1 1 1 
1 1 1 1 1 1 1 1 1 
1 1 1 1 1 1 1 1 1 
1 1 1 1 1 1 1 1 1 
1 1 1 1 1 1 1 1 1 
1 1 1 1 1 1 1 1 1 
1 1 1 1 1 1 1 1 1 
1 1 1 1 1 1 1 1 1 
1 1 1 1 1 1 1 1 1 
1 1 1 1 1 1 1 1 1 
1 1 1 1 1 1 1 1 1 
1 1 1 1 1 1 1 1 1 
1 1 1 1 1 1 1 1 1 
1 1 1 1 1 1 1 1 1 
1 1 1 1 1 1 1 1 1 
1 1 1 1 1 1 1 1 1 
1 1 1 1 1 1 1 1 1 
1 1 1 1 1 1 1 1 1 
1 1 1 1 1 1 1 1 1 
1 1 1 1 1 1 1 1 1 
1 1 1 1 1 1 1 1 1 
1 1 1 1 1 1 1 1 1 
1 1 1 1 1 1 1 1 1 
1 1 1 1 1 1 1 1 1 
1 1 1 1 1 1 1 1 1 
1 1 1 1 1 1 1 1 1 
1 1 1 1 1 1 1 1 1 
1 1 1 1 1 1 1 1 1 
1 1 1 1 1 1 1 1 1 
1 1 1 1 1 1 1 1 1 
1 1 1 1 1 1 1 1 1 
1 1 1 1 1 1 1 1 1 
1 1 1 1 1 1 1 1 1 
1 1 1 1 1 1 1 1 1 
1 1 1 1 1 1 1 1 1 
1 1 1 1 1 1 1 1 1 
1 1 1 1 1 1 1 1 1 
1 1 1 1 1 1 1 1 1 
1 1 1 1 1 1 1 1 1 
1 1 1 1 1 1 1 1 1 
1 1 1 1 1 1 1 1 1 
1 1 1 1 1 1 1 1 1 
1 1 1 1 1 1 1 1 1 
1 1 1 1 1 1 1 1 1 
1 1 1 1 1 1 1 1 1 
1 1 1 1 1 1 1 1 1 
1 1 1 1 1 1 1 1 1 
1 1 1 1 1 1 1 1 1 
1 1 1 1 1 1 1 1 1 
1 1 1 1 1 1 1 1 1 
1 1 1 1 1 1 1 1 1 
1 1 1 1 1 1 1 1 1 
1 1 1 1 1 1 1 1 1 
1 1 1 1 1 1 1 1 1 
1 1 1 1 1 1 1 1 1 
1 1 1 1 1 1 1 1 1 
1 1 1 1 1 1 1 1 1 
1 1 1 1 1 1 1 1 1 
1 1 1 1 1 1 1 1 1 
1 1 1 1 1 1 1 1 1 
1 1 1 1 1 1 1 1 1 
1 1 1 1 1 1 1 1 1 
1 1 1 1 1 1 1 1 1 
1 1 1 1 1 1 1 1 1 
1 1 1 1 1 1 1 1 1 
1 1 1 1 1 1 1 1 1 
1 1 1 1 1 1 1 1 1 
1 1 1 1 1 1 1 1 1 
1 1 1 1 1 1 1 1 1 
1 1 1 1 1 1 1 1 1 
1 1 1 1 1 1 1 1 1 
1 1 1 1 1 1 1 1 1 
1 1 1 1 1 1 1 1 1 
1 1 1 1 1 1 1 1 1 
1 1 1 1 1 1 1 1 1 
1 1 1 1 1 1 1 1 1 
1 1 1 1 1 1 1 1 1 
1 1 1 1 1 1 1 1 1 
1 1 1 1 1 1 1 1 1 
1 1 1 1 1 1 1 1 1 
1 1 1 1 1 1 1 1 1 
1 1 1 1 1 1 1 1 1 
1 1 1 1 1 1 1 1 1 
1 1 1 1 1 1 1 1 1 
1 1 1 1 1 1 1 1 1 
1 1 1 1 1 1 1 1 1 
1 1 1 1 1 1 1 1 1 
1 1 1 1 1 1 1 1 1 
1 1 1 1 1 1 1 1 1 
1 1 1 1 1 1 1 1 1 
1 1 1 1 1 1 1 1 1 
1 1 1 1 1 1 1 1 1 
1 1 1 1 1 1 1 1 1 
1 1 1 1 1 1 1 1 1 
1 1 1 1 1 1 1 1 1 
1 1 1 1 1 1 1 1 1 
1 1 1 1 
NORMALS Normals float
0.359314 0.0825493 -0.929559 0.59237 0.0815896 -0.801524 0.65482 0.308009 -0.690174 
0.0968787 0.243819 -0.96497 0.340008 0.277597 -0.898518 0.603881 0.359027 -0.711637 
0.158744 0.467063 -0.869858 0.308118 0.336017 -0.890031 0.388599 -0.332267 -0.859413 
0.307788 -0.30291 -0.901949 0.0667496 -0.188843 -0.979736 0.433589 -0.261762 -0.862253 
0.145327 -0.0356991 -0.988739 0.604258 -0.144832 -0.783515 0.717862 0.198052 -0.66742 
0.726937 0.377438 -0.573676 0.691462 0.574978 -0.437356 0.725414 0.536512 -0.431196 
0.530689 0.417971 -0.737339 0.218294 0.468201 -0.856233 0.548266 0.741659 -0.386455 
0.275214 0.665784 -0.693534 0.213767 0.718032 -0.66237 0.224318 0.697207 -0.68087 
0.0341704 0.266609 -0.963199 -0.13047 0.233189 -0.963639 0.174949 0.379095 -0.908669 
-0.0617602 0.351805 -0.934034 0.321904 0.497843 -0.805314 0.264748 0.409118 -0.87323 
0.212773 -0.347507 -0.913218 0.536691 -0.397052 -0.744522 0.698356 -0.40227 -0.592012 
0.438248 -0.288526 -0.851288 0.806538 -0.302359 -0.508011 0.738722 0.129131 -0.661525 
0.742463 -0.237037 -0.626548 0.968851 0.111308 -0.22122 0.752515 0.473188 -0.458055 
0.903227 0.398246 -0.15994 0.815171 0.440161 -0.376503 0.755114 0.578787 -0.30791 
-0.220382 -0.00387616 -0.975406 0.699274 0.711596 0.06817 0.458651 0.862309 -0.21462 
0.372467 0.669026 -0.643174 0.136055 0.325272 -0.935782 0.223744 0.379053 -0.897918 
0.245956 0.314559 -0.91682 0.438989 0.606117 -0.663258 0.20448 0.375021 -0.904183 
0.330322 0.47514 -0.815554 0.335217 0.503283 -0.796452 0.370407 -0.318587 -0.872526 
0.489662 -0.530817 -0.691711 -0.0607433 -0.260408 -0.963586 0.675277 -0.418792 -0.607135 
0.303464 -0.449897 -0.839942 0.258431 -0.240047 -0.93573 0.346576 -0.339912 -0.874268 
0.765724 -0.360621 -0.53256 -0.175627 -0.1812 -0.967637 0.972047 -0.186016 -0.143255 
0.493125 0.76854 -0.407645 0.611279 0.760107 -0.220397 0.535531 0.682806 -0.496973 
-0.0855685 0.0987555 -0.991426 0.589972 0.730294 -0.34439 0.504112 0.668372 -0.546946 
0.604553 0.758748 -0.242523 0.645388 0.550523 -0.529527 0.474345 0.508531 -0.718605 
0.603254 0.67727 -0.421177 0.53685 0.69644 -0.476197 0.67187 0.615323 -0.412272 
0.0714876 0.250617 -0.965443 0.526097 0.596216 -0.606423 0.137142 0.354164 -0.925073 
0.411267 0.602458 -0.684035 0.462947 0.61314 -0.640109 0.0954705 0.472822 -0.875971 
0.509607 -0.367531 -0.777959 0.120441 -0.36824 -0.921897 0.645811 -0.303198 -0.700713 
0.411818 -0.25527 -0.874782 0.535706 -0.255575 -0.804799 0.523676 -0.365657 -0.769453 
0.136826 -0.267607 -0.953764 0.660733 -0.540973 -0.520365 0.93759 -0.34662 -0.0279233 
0.968591 -0.242773 -0.0537947 0.966589 -0.245626 0.0733055 0.976418 -0.203903 -0.0709304 
0.945606 -0.113764 0.304773 0.991446 0.00381564 0.13046 0.96778 0.214292 0.132211 
0.866143 0.392782 0.309062 0.763075 0.613821 0.202337 0.644145 0.717985 0.263771 
0.616495 0.782862 0.084025 0.602434 0.793236 -0.0885953 0.565439 0.738731 0.366818 
-0.174312 -0.0248583 -0.984377 0.606305 0.792317 -0.0680324 0.719855 0.689124 0.0831681 
0.555454 0.729577 -0.398984 0.753763 0.570927 -0.325398 0.63114 0.606718 -0.483276 
0.549694 0.644316 -0.531689 0.429475 0.821995 -0.374 0.355384 -0.465277 -0.810691 
0.926234 -0.376948 0.00061954 0.960762 -0.188809 0.203196 0.945327 -0.0916232 0.312989 
0.95976 -0.111733 0.257636 0.865047 0.0953064 0.492555 0.633026 0.469074 0.615831 
0.626778 0.611487 0.482942 0.478488 0.683562 0.551174 0.645584 0.753799 0.122504 
0.697667 0.696379 0.168278 0.673224 0.64012 0.370156 0.641863 0.757615 0.118452 
0.633569 0.6911 0.347807 0.537252 0.806944 -0.245359 0.767573 0.591903 -0.245931 
0.715648 0.670824 -0.194534 0.777023 0.625506 0.0705477 0.68558 0.723354 -0.0820971 
-0.126681 0.261547 -0.956841 0.532206 0.834292 -0.14392 0.433864 0.779469 -0.451875 
0.420662 0.853759 -0.30682 0.0568009 0.588139 -0.806762 0.198105 0.673447 -0.712197 
0.273874 -0.408622 -0.870644 0.406782 -0.479248 -0.777721 0.908696 -0.272727 -0.316056 
0.820741 -0.31837 -0.474368 0.849006 -0.295331 -0.438143 0.927246 -0.12921 0.351454 
0.854472 -0.04505 0.517541 0.745684 0.132119 0.65307 0.516967 0.343394 0.784108 
0.48167 0.63408 0.604926 0.461048 0.686218 0.562618 0.733529 0.576008 0.360762 
0.788409 0.38607 0.478917 0.635375 0.696002 0.334484 0.582209 0.570448 0.579328 
0.607075 0.542361 0.58078 0.67057 0.727064 0.147354 0.628143 0.731024 0.266533 
0.745849 0.663477 0.0592332 0.669434 0.682194 0.294057 0.751189 0.588714 0.298548 
0.535831 0.83025 0.153528 0.518424 0.811837 -0.268622 0.637168 0.762565 0.111851 
-0.114345 0.231439 -0.966106 0.207082 0.779492 -0.591193 0.365992 0.849878 -0.379152 
0.173864 0.511876 -0.841281 -0.078053 0.527951 -0.845681 0.028903 0.450125 -0.892498 
0.313004 0.702377 -0.639292 -0.138114 0.644926 -0.751661 0.0586612 0.787601 -0.613387 
0.209476 0.660809 -0.72073 0.386613 -0.387574 -0.836849 0.458148 -0.493104 -0.73956 
0.316244 -0.351059 -0.881333 0.708933 -0.387032 -0.589593 0.966154 -0.238928 -0.0972569 
0.825613 -0.190927 0.530952 0.892481 -0.292048 0.343782 0.803728 -0.0406473 0.593607 
0.502829 0.421247 0.754794 0.6096 0.498515 0.616337 0.554569 0.374469 0.743119 
0.667939 0.551003 0.500253 0.614629 0.718786 0.324928 0.620044 0.663871 0.418115 
0.517609 0.853927 0.0537557 0.45186 0.892066 0.00642709 -0.218965 0.537003 -0.814667 
-0.191571 0.352113 -0.916142 0.374483 0.823296 -0.426552 0.496834 0.825916 -0.266494 
0.347002 0.785628 -0.512229 -0.0538756 0.756959 -0.651238 0.158021 0.815152 -0.557276 
-0.166976 0.743198 -0.647901 0.392334 -0.412301 -0.822242 0.157381 -0.41729 -0.895042 
0.214809 -0.415112 -0.884047 0.153498 -0.383561 -0.91067 0.709957 -0.320419 -0.627131 
0.981569 -0.153868 0.113342 0.939569 -0.0630583 0.336502 0.891812 -0.00375841 0.45239 
0.764271 -0.0782714 0.640128 0.748423 0.0416957 0.661909 0.848526 -0.0662409 0.524991 
0.600154 0.0238032 0.79953 0.330826 0.310152 0.891269 0.560496 0.574632 0.596357 
0.575828 0.565971 0.589999 0.603313 0.639467 0.476545 0.547854 0.751738 0.367077 
0.515903 0.626245 0.584518 -0.190436 0.168839 -0.967071 -0.16313 0.356688 -0.919871 
0.440698 0.893631 -0.0849037 0.414291 0.884255 0.215539 0.463805 0.880571 -0.0973642 
-0.155799 0.369376 -0.916127 0.281971 0.939615 -0.19395 0.365163 0.878683 0.307526 
-0.123311 0.713928 -0.689276 -0.13471 0.729411 -0.67068 0.12335 0.980382 -0.153739 
-0.0824361 -0.291104 -0.953133 0.992175 -0.114613 0.049524 0.875666 0.0243268 0.482304 
0.769317 0.0711267 0.634895 0.589384 0.052839 0.806123 0.63259 0.0496901 0.772891 
0.68101 -0.0448359 0.7309 0.541883 0.146311 0.827621 0.512554 0.38171 0.769146 
0.287762 0.30547 0.907679 0.419117 0.332566 0.844832 0.356977 0.449394 0.818909 
0.440043 0.445416 0.779722 -0.277418 0.229328 -0.932978 -0.29798 0.298166 -0.90681 
0.478409 0.826029 0.297995 0.374811 0.899245 0.225553 -0.18464 0.369087 -0.910869 
0.47179 0.793343 0.384735 -0.288045 0.669282 -0.684902 -0.194572 0.549498 -0.812523 
-0.236148 0.792444 -0.562376 0.0362504 0.901688 -0.430865 0.138607 0.990288 0.0108853 
0.141034 0.965856 0.217328 0.873491 0.0298945 0.485922 0.455444 0.206406 0.866006 
-0.226596 -0.131552 -0.965064 0.358486 0.73473 0.575898 -0.326281 0.538349 -0.776995 
0.439245 0.655253 0.614579 -0.37925 0.630335 -0.677383 0.0538014 0.980739 -0.187765 
-0.0855293 0.58772 -0.804531 0.0277059 0.888517 -0.458007 -0.0865853 0.945861 -0.312811 
-0.236952 0.804552 -0.544563 0.0368904 0.791857 -0.609591 0.4697 -0.28096 -0.836925 
0.340907 -0.430791 -0.835584 0.148335 -0.37819 -0.913767 0.280337 -0.332798 -0.900365 
0.247828 -0.290289 -0.924291 -0.0125994 -0.258946 -0.96581 -0.286735 -0.312585 -0.905579 
0.263132 0.198265 0.944168 0.371688 0.389917 0.842504 -0.333009 0.123714 -0.934773 
0.429592 0.501804 0.750762 -0.306718 0.810715 -0.498663 0.295671 0.796796 0.526968 
-0.284702 0.781324 -0.555407 0.093483 0.922625 -0.374197 0.102579 0.959535 0.26224 
0.316082 -0.483261 -0.816426 0.236402 -0.44987 -0.861238 0.621159 -0.296991 -0.72523 
-0.044084 -0.437766 -0.898008 0.737926 -0.217975 -0.638712 -0.376786 0.0352016 -0.925631 
-0.254432 0.363591 -0.896139 -0.399285 0.561017 -0.725142 0.328727 0.560567 0.760068 
-0.546162 0.557514 -0.625208 0.0333305 0.560583 -0.827427 -0.130767 0.726032 -0.675113 
-0.158182 0.639242 -0.752561 -0.156999 0.982431 -0.100896 -0.0365559 0.934611 -0.353787 
0.169972 0.976695 0.13106 0.0853202 0.992784 0.0842612 0.413091 -0.311568 -0.855734 
0.743746 -0.142432 -0.653111 0.999904 -0.0128357 -0.0052833 0.84663 0.0460395 0.530187 
0.795049 0.048521 0.604601 0.331869 0.465141 0.820675 -0.174976 0.515941 -0.838563 
0.173203 0.707672 0.684983 -0.229318 0.506293 -0.831312 0.142148 0.794656 0.590183 
-0.0307967 0.72462 -0.68846 -0.0259187 0.841668 -0.539374 -0.189417 0.862254 -0.469723 
-0.113574 0.989641 -0.0878135 0.163487 -0.100265 -0.981437 0.634935 -0.186407 -0.74974 
0.483183 -0.0880326 -0.871083 0.759715 -0.084976 -0.64468 0.93033 -0.0712455 -0.359735 
0.292147 0.275762 0.915754 -0.361191 0.210112 -0.908512 -0.257748 0.495076 -0.829738 
-0.207265 0.745561 -0.633387 0.0924621 0.858063 -0.505151 -0.195517 0.813222 -0.548127 
-0.0279119 0.92867 -0.369854 0.100855 -0.285853 -0.952951 0.842286 -0.0545959 -0.536258 
0.871846 -0.0405858 -0.488095 0.945924 0.170244 0.276124 0.569988 0.218658 0.792024 
-0.400173 -0.168605 -0.900796 -0.386435 0.190757 -0.902374 -0.337382 0.398193 -0.853004 
0.184034 0.807816 0.559968 -0.312451 0.664677 -0.678659 0.115965 0.97137 0.207349 
0.169322 0.971579 0.165419 0.127036 0.946723 0.295934 0.381436 -0.274764 -0.882616 
0.830589 -0.00365524 -0.556874 0.973188 0.143836 -0.179487 0.820415 0.192059 0.538546 
0.797498 0.237351 0.554672 -0.408409 0.330844 -0.850732 -0.420666 0.524555 -0.74019 
0.204985 0.585984 0.783967 -0.00326549 0.999973 -0.00661502 0.0548989 0.971159 0.232027 
0.210666 0.649869 0.730268 -0.213078 0.902848 -0.373447 -0.0625362 0.980632 -0.185608 
0.247338 -0.286153 -0.925711 -0.0924372 -0.426522 -0.899741 0.871701 -0.116373 -0.47602 
0.662998 -0.000358438 -0.748621 0.708298 0.145359 -0.690786 0.852786 0.152448 -0.499515 
0.814805 0.240514 -0.52749 0.881289 0.392352 0.263419 -0.189553 -0.42245 -0.886344 
-0.451391 0.488188 -0.746939 -0.353723 0.934947 0.0274575 -0.271194 0.53175 -0.802307 
-0.00212248 0.981064 -0.193673 0.221755 0.776064 -0.590381 -0.198561 0.966914 -0.16016 
0.270198 0.669359 0.692063 -0.023299 0.953973 -0.298986 -0.0712913 0.997443 0.00490031 
-0.53816 0.726505 -0.427288 -0.286442 0.949367 0.129047 0.425055 -0.175967 -0.887899 
0.446242 -0.173331 -0.877966 0.870161 0.0677073 -0.488095 0.980982 0.030402 -0.191701 
0.958057 0.18216 -0.221233 0.920923 0.222923 0.319696 0.848777 0.353562 0.393156 
-0.454211 0.13412 -0.880741 -0.0834014 0.87884 0.469771 -0.0328304 0.961955 0.271228 
0.247846 0.930292 0.270425 0.00847514 0.939864 0.341443 0.0479242 -0.341257 -0.938748 
0.709217 0.0137318 -0.704857 0.697088 -0.0050521 -0.716968 0.83566 0.20597 0.509165 
0.605358 0.422582 0.674512 0.272316 0.188965 0.94347 -0.397397 0.420093 -0.815842 
-0.392334 0.658893 -0.641821 -0.399791 0.738672 -0.542706 -0.326453 0.814811 -0.479073 
-0.110191 0.992405 0.0546804 0.299036 0.629192 0.717423 -0.307165 0.893214 -0.328358 
0.48183 -0.181897 -0.857177 0.879413 0.253779 -0.402776 0.937146 0.336555 -0.0921331 
0.786058 0.35433 0.506521 0.318388 0.247232 0.915153 -0.499903 0.361983 -0.786807 
-0.448298 0.723633 -0.52477 -0.320546 0.924089 -0.208108 -0.230762 0.966448 -0.112817 
-0.251453 0.95311 -0.168381 0.0592636 0.884724 0.462332 0.263356 0.729626 0.631102 
0.257402 0.657409 0.708207 0.453347 -0.145728 -0.87934 0.422118 0.0156972 -0.906405 
0.755369 0.0262653 -0.654773 0.923369 0.366666 0.11378 0.926174 0.366122 0.0903151 
-0.349189 -0.392601 -0.850841 -0.522024 0.451613 -0.723559 -0.537529 0.618171 -0.573522 
0.316161 0.429003 0.846167 0.366167 0.335994 0.867773 0.363985 0.522433 0.771089 
0.300054 0.675927 0.673119 -0.40331 0.768086 -0.497378 -0.391048 0.827452 -0.402995 
-0.0240412 0.976819 0.212714 0.0522121 0.86654 0.49637 0.514942 0.188936 -0.836145 
0.0207708 -0.416454 -0.90892 0.787936 0.012543 -0.615629 0.899668 0.377845 -0.218703 
-0.490529 0.440772 -0.751732 -0.563914 0.520617 -0.641061 -0.541192 0.58792 -0.601216 
-0.483076 0.792277 -0.37274 -0.42009 0.773761 -0.474151 -0.276701 0.940025 -0.199473 
0.349132 0.798793 0.489935 0.141755 0.742278 0.654927 0.179961 0.609376 0.772188 
-0.265875 0.942473 -0.202619 -0.0676415 0.995099 0.0721267 0.118151 0.883741 0.452817 
-0.0155176 -0.502383 -0.864506 0.430507 -0.20423 -0.879178 0.696487 0.110233 -0.709052 
0.686471 0.20739 -0.696956 0.85688 0.208613 -0.471421 0.80796 0.494995 0.319656 
0.653875 0.468511 0.594092 -0.394801 -0.579086 -0.713296 0.47007 0.380327 0.796483 
0.180669 0.659708 0.729482 0.208322 0.544822 0.812263 0.06105 0.782804 0.619266 
0.256258 0.849968 0.460311 0.163014 -0.316654 -0.934429 0.320214 -0.198254 -0.926368 
0.718736 0.116397 -0.685471 -0.213737 -0.53092 -0.820024 -0.296614 -0.635687 -0.712686 
-0.34739 -0.661487 -0.664646 0.822704 0.511835 0.247354 -0.301012 -0.619326 -0.725139 
0.81785 0.49905 0.286478 -0.427687 -0.641028 -0.637312 0.616356 0.525609 0.58638 
0.397816 0.61693 0.679072 -0.407721 -0.580709 -0.704656 0.3744 0.305008 0.875668 
-0.53587 -0.628459 -0.563811 -0.456848 -0.545583 -0.702588 -0.486422 -0.356071 -0.797876 
-0.353337 -0.425583 -0.833086 0.255475 0.24824 0.934403 -0.533798 0.104571 -0.839121 
0.423413 0.177372 0.888403 -0.556497 0.335333 -0.760173 -0.428748 0.701635 -0.569107 
-0.360158 0.787929 -0.499454 -0.179854 0.967747 -0.176406 0.0150865 0.921556 0.387953 
0.432736 0.534428 0.726035 -0.00766393 0.999277 -0.0372423 0.423166 -0.148482 -0.893803 
0.365224 -0.182017 -0.912952 0.0734342 -0.360989 -0.929675 0.828665 0.169667 -0.533411 
0.804895 0.463264 -0.370851 0.849348 0.456757 -0.264539 0.778372 0.626812 0.0352644 