# vtk DataFile Version 4.2
vtk output
ASCII
DATASET POLYDATA
POINTS 2435 float
278.276 138.506 40.6128 276.119 136.946 40.1232 278.292 137.186 40.799 
277.671 137.841 40.3965 273.517 140.55 39.9208 276.729 140.008 40.4108 
277.332 140.496 40.9253 277.791 140.169 41.0762 271.903 142.924 40.0853 
273.426 142.725 40.3078 271.241 145.19 40.6919 269.463 146.399 40.7191 
272.464 145.126 41.1453 268.034 147.036 40.5655 270.762 146.24 41.1244 
268.25 147.86 41.0211 266.589 149.085 41.0854 266 152.009 39.0174 
266 152.009 39.0175 266 152.009 39.0175 266 152.009 39.0175 
266 152.009 39.0175 276.047 133.51 41.0134 279.031 137.67 41.3766 
279.172 137.945 41.5107 278.981 138.458 41.2826 278.821 138.888 41.3364 
279.06 138.584 41.4162 278.242 139.81 41.2412 278.568 139.462 41.3892 
271.505 141.569 39.9277 275.08 143.032 41.0655 264.965 145.949 40.3839 
271.303 146.099 41.2967 266.859 147.101 40.4733 268.514 148.076 41.2909 
265.721 149.219 41.0081 267.216 148.689 41.1357 262.485 150.15 40.8426 
263.776 150.533 41.1065 266.826 149.685 41.6714 264.802 150.748 41.5098 
266 152.009 39.0175 260.503 152.244 41.0744 263.15 151.9 41.5148 
263.916 151.741 41.7379 260.589 153.45 41.3898 260.134 154.225 41.542 
261.841 153.514 41.8528 258.443 154.938 41.4329 261.536 154.251 42.1782 
258.775 155.696 41.7582 258 159.009 40.0174 258 159.009 40.0175 
258 159.009 40.0175 258 159.009 40.0175 257.002 160.511 40.0153 
257.002 160.511 40.0153 257.002 160.511 40.0153 258 159.009 40.0175 
257.002 160.511 40.0153 257.002 160.511 40.0153 257.002 160.511 40.0153 
257.002 160.511 40.0153 257.002 160.511 40.0153 278.763 135.212 41.9414 
279.247 138.169 41.7014 279.057 138.711 41.5122 279.064 138.818 41.7645 
265.114 143.605 40.4886 276.016 143.068 42.1104 274.722 143.834 41.5271 
271.448 146.387 41.7138 272.573 145.794 41.8495 270.39 147.451 42.2676 
269.153 148.168 41.9169 268.087 148.816 41.7052 258.637 152.756 41.1129 
259.701 152.253 41.0525 257.027 153.719 41.2652 259.126 153.985 41.2807 
261.492 154.691 42.516 259.408 156.021 42.176 260.338 155.649 42.5328 
254.366 157.413 41.9825 258 159.009 40.0175 257.002 160.511 40.0153 
257.002 160.511 40.0153 276.3 128.921 43.0705 276.77 129.067 43.2634 
279.398 136.752 42.623 277.088 142.025 42.0509 271.622 146.586 42.224 
273.486 145.295 42.2245 271.097 147.104 42.6539 258.558 148.322 41.1824 
268.433 149.076 42.3851 256.589 151.563 41.2968 264.52 152.191 42.5898 
255.539 153.279 41.4124 264.125 152.767 43.0026 251.731 155.216 42.077 
262.906 153.789 42.9995 261.312 155.249 43.0806 252.019 159.07 42.4444 
250.977 160.191 42.8021 251.796 159.857 42.6908 254.05 160.436 43.4557 
251.236 161.374 43.3048 252.549 161.393 43.6845 251.587 162.165 43.9814 
272.109 127.285 42.9533 274.499 127.129 43.2658 277.017 128.448 43.8728 
277.295 129.352 43.578 278.057 131.748 43.0748 278.341 140.8 42.6333 
275.987 143.49 43.0404 272.096 146.513 42.9661 268.446 149.306 42.8993 
265.718 151.637 43.3688 256.585 159.224 43.9289 252.049 162.055 44.1161 
243.523 166.202 44.7927 243.663 166.056 44.7474 242.549 166.923 45.2608 
274.671 120.775 45.7866 275.544 123.164 45.42 276.635 126.841 44.486 
277.312 128.888 43.9215 278.21 130.702 44.2166 279.508 135.113 44.1116 
279.595 136.741 43.7515 279.507 137.938 43.8716 276.023 143.487 43.3252 
249.417 146.202 43.6269 266.042 151.435 43.9314 263.285 153.866 44.021 
263.156 153.991 44.2974 259.144 157.371 44.4258 251.174 162.875 44.8272 
242.18 165.201 44.5742 247.737 164.758 45.0568 245.244 165.772 45.0999 
242.889 166.368 44.9812 244.032 165.962 44.7881 240.589 166.918 45.4679 
239.925 167.195 45.7903 243.591 166.512 45.2355 273.215 119.786 45.6398 
276.742 124.202 46.1744 266.83 124.912 44.3608 277.125 125.761 45.7964 
279.399 137.999 45.0541 278.954 139.307 45.0065 277.724 141.662 44.2442 
276.199 142.965 44.7066 275.359 143.863 44.4232 272.198 146.456 43.8964 
272.042 146.434 44.4513 269.148 148.737 44.563 266.052 151.384 44.3806 
265.036 152.271 44.4686 263.878 153.326 44.3049 261.225 155.659 44.8854 
240.939 162.024 44.4551 252.864 162.024 45.165 251.903 162.64 45.7302 
237.566 165.829 45.5265 245.049 166.135 45.5324 247.457 165.129 45.6684 
238.392 167.094 45.9022 239.994 167.652 46.3325 273.281 116.879 46.7617 
276.986 123.977 46.7475 277.614 126.696 46.3792 278.47 130.33 45.7038 
278.627 139.884 45.1338 278.05 140.864 45.0347 273.585 145.106 44.8638 
267.523 149.997 44.7492 261.054 155.688 45.3483 259.43 157.034 45.4298 
248.413 164.723 46.333 246.62 165.648 46.3806 233.997 167.041 47.1903 
234.08 167.644 47.6254 239.645 167.924 46.7804 240.096 167.871 46.8388 
241.516 167.563 46.4718 235.868 168.105 47.3354 237.596 167.998 46.9282 
236.077 168.253 47.425 271.815 113.941 47.5671 273.028 113.972 47.7998 
273.567 113.809 48.0702 275.812 119.407 47.4502 276.936 122.938 47.4631 
277.058 123.644 47.2078 278.407 129.99 46.8821 279.49 135.849 45.8791 
278.777 138.966 45.8744 274.586 144.107 45.3076 267.291 149.899 45.3833 
260.987 155.326 46.1757 258.88 157.141 46.2178 251.388 162.756 46.9063 
230.844 166.382 47.8102 233.237 165.781 46.8708 244.922 166.542 46.7058 
239.01 168.214 47.7088 240.497 167.857 47.1892 233.232 167.896 48.1657 
235.556 168.35 47.9443 236.922 168.275 47.507 236.005 168.397 47.7684 
276.222 118.892 48.4054 276.711 120.622 48.6571 278.195 128.823 47.2228 
278.862 133.223 46.7502 279.186 134.672 46.5852 279.016 136.99 46.4789 
278.474 137.853 46.8986 272.128 142.449 47.9821 276.496 141.534 46.2174 
273.693 143.911 46.2729 260.553 155.447 46.5492 230.023 165.055 47.6238 
247.663 165.083 47.0279 239.138 168.189 48.3375 229.231 167.875 49.347 
276.857 120.675 49.5841 277.613 126.436 48.624 277.975 128.499 48.2699 
278.128 130.487 47.9794 278.068 131.696 48.245 278.256 132.212 47.9491 
278.791 136.422 46.9612 262.212 150.706 48.3678 251.52 162.086 47.922 
225.197 165.834 49.2576 247.264 164.936 47.9887 224.773 166.667 49.7316 
227.709 166.787 48.9366 243.606 166.533 48.6562 225.473 167.56 50.1072 
225.013 168.042 50.7171 226.944 167.912 50.073 225.761 168.238 50.7922 
274.312 107.775 50.7905 277.737 129.113 48.7781 253.686 156.347 49.9461 
255.661 158.328 47.9851 250.415 162.058 48.8251 248.143 164.07 48.4946 
245.635 165.417 48.7116 223.15 166.862 50.3559 220.914 167.578 51.5298 
220.367 167.598 51.8482 238.494 168.133 49.2558 222.128 168.151 51.5534 
222.801 168.235 51.6165 223.596 168.302 51.5089 224.191 167.9 50.8219 
221.642 168.268 51.7102 221.674 168.356 51.8194 224.05 168.226 51.2444 
221.741 168.35 51.7242 275.598 109.186 51.1544 276.14 112.184 50.9615 
276.674 117.937 50.9484 244.407 121.249 50.6458 276.822 122.154 50.4937 
277.011 123.406 50.0052 276.896 124.03 50.1867 276.585 129.933 49.7119 
271.46 133.198 50.8959 250.32 156.388 51.0458 218.604 160.525 50.8507 
217.855 163.341 51.2358 249.124 162.516 49.2458 217.762 164.986 51.5569 
218.457 166.257 51.759 217.34 166.416 52.3224 218.817 166.854 51.9782 
217.943 167.119 52.6216 218.24 167.494 52.9719 221.097 168.173 52.2412 
221.61 168.346 52.0651 225.057 168.611 51.925 221.838 168.377 51.7672 
225.378 168.573 51.6069 232.297 168.634 50.7668 276.561 101.731 53.4941 
267.323 105.223 51.8351 276.252 107.591 52.2342 276.041 109.335 51.6108 
276.544 119.144 51.7629 276.344 121.101 51.5807 276.387 120.441 51.8638 
273.86 127.371 51.6156 248.199 155.019 51.8375 216.785 155.751 51.819 
240.938 164.743 51.5498 240.294 166.419 50.7103 218.166 167.746 53.5071 
226.454 168.66 52.3382 233.509 168.44 51.0717 234.036 168.171 51.4173 
235.769 167.957 51.0473 230.245 168.634 51.5785 275.132 99.8979 53.6686 
276.344 108.57 52.1907 276.726 112.062 52.6232 276.335 118.232 52.5109 
276.472 119.51 51.995 276.291 120.592 51.9393 275.806 123.492 51.537 
214.498 165.706 53.2774 237.465 166.954 51.5786 237.042 167.371 51.4541 
222.054 168.352 53.222 223.693 168.418 53.0833 227.88 168.498 52.716 
228.182 168.598 52.3525 229.904 168.521 52.1366 276.535 97.7399 54.8466 
277.785 97.7495 55.225 277.803 100.07 54.691 277.433 101.809 54.096 
277.673 104.963 54.3916 276.693 113.33 53.1746 276.431 116.524 52.9252 
276.271 115.891 53.5392 276.256 117.687 52.9234 276.184 119.077 52.5487 
275.376 118.87 53.3448 275.651 120.303 52.6255 273.62 121.83 53.2456 
220.928 138.776 53.0389 240.112 151.859 53.9348 235.18 162.557 53.9846 
210.733 163.878 54.43 210.606 165.423 55.0916 234.931 165.553 53.2377 
213.237 166.105 54.1672 235.172 166.793 52.4951 236.864 166.613 52.0462 
212.136 166.7 55.2447 234.023 167.49 52.3002 235.655 167.228 51.9974 
227.837 168.221 53.1697 229.036 168.34 52.7957 229.329 168.128 53.0393 
231.117 168.241 52.3798 278.917 95.631 56.2811 281 95.0087 55.0174 
281 95.0087 55.0175 281 95.0088 55.0175 281 95.0088 55.0175 
281 95.0088 55.0175 274.954 97.4006 54.8525 278.461 100.046 55.2694 
278.182 102.243 54.9571 276.785 110.892 54.4504 275.588 116.38 54.2147 
275.078 117.444 54.1313 274.202 118.656 54.1297 210.113 165.947 55.7995 
209.426 166.39 56.7235 212.909 167.323 56.1193 216.184 167.829 55.32 
222.023 168.051 54.3418 223.655 168.046 54.0674 227.336 167.82 53.7444 
230.753 168.014 52.8024 280.18 93.7964 57.1915 280.069 93.2116 57.3064 
276.124 94.831 56.1282 281 95.0087 55.0175 279.999 95.2919 56.8137 
278.847 101.044 55.8735 278.81 102.002 56.121 276.928 110.251 54.2997 
275.745 113.342 55.2412 276.064 113.702 54.7047 208.224 164.853 56.0836 
228.388 166.058 54.8144 209.293 166.635 57.3059 215.034 167.713 56.3576 
224.294 167.473 54.7512 228.629 167.238 54.0257 219.142 167.898 55.3631 
220.812 167.848 55.0619 222.369 167.691 54.931 281.5 92.3696 57.993 
282.402 92.1139 58.4471 274.107 93.7163 56.9598 281.195 93.8714 57.6621 
281.272 94.368 57.7124 277.153 108.014 55.9115 276.593 109.614 55.838 
275.704 111.118 56.2074 274.517 112.464 56.4704 205.169 164.991 57.9136 
205.493 165.901 58.5827 211.269 167.183 57.5361 212.941 167.387 57.212 
[...]
POINT_DATA 2435
SCALARS scalars float
LOOKUP_TABLE default
1 1 1 1 1 1 1 1 1 
1 1 1 1 1 1 1 1 1 
1 1 1 1 1 1 1 1 1 
1 1 1 1 1 1 1 1 1 
1 1 1 1 1 1 1 1 1 
1 1 1 1 1 1 1 1 1 
1 1 1 1 1 1 1 1 1 
1 1 1 1 1 1 1 1 1 
1 1 1 1 1 1 1 1 1 
1 1 1 1 1 1 1 1 1 
1 1 1 1 1 1 1 1 1 
1 1 1 1 1 1 1 1 1 
1 1 1 1 1 1 1 1 1 
1 1 1 1 1 1 1 1 1 
1 1 1 1 1 1 1 1 1 
1 1 1 1 1 1 1 1 1 
1 1 1 1 1 1 1 1 1 
1 1 1 1 1 1 1 1 1 
1 1 1 1 1 1 1 1 1 
1 1 1 1 1 1 1 1 1 
1 1 1 1 1 1 1 1 1 
1 1 1 1 1 1 1 1 1 
1 1 1 1 1 1 1 1 1 
1 1 1 1 1 1 1 1 1 
1 1 1 1 1 1 1 1 1 
1 1 1 1 1 1 1 1 1 
1 1 1 1 1 1 1 1 1 
1 1 1 1 1 1 1 1 1 
1 1 1 1 1 1 1 1 1 
1 1 1 1 1 1 1 1 1 
1 1 1 1 1 1 1 1 1 
1 1 1 1 1 1 1 1 1 
1 1 1 1 1 1 1 1 1 
1 1 1 1 1 1 1 1 1 
1 1 1 1 1 1 1 1 1 
1 1 1 1 1 1 1 1 1 
1 1 1 1 1 1 1 1 1 
1 1 1 1 1 1 1 1 1 
1 1 1 1 1 1 1 1 1 
1 1 1 1 1 1 1 1 1 
1 1 1 1 1 1 1 1 1 
1 1 1 1 1 1 1 1 1 
1 1 1 1 1 1 1 1 1 
1 1 1 1 1 1 1 1 1 
1 1 1 1 1 1 1 1 1 
1 1 1 1 1 1 1 1 1 
1 1 1 1 1 1 1 1 1 
1 1 1 1 1 1 1 1 1 
1 1 1 1 1 1 1 1 1 
1 1 1 1 1 1 1 1 1 
1 1 1 1 1 1 1 1 1 
1 1 1 1 1 1 1 1 1 
1 1 1 1 1 1 1 1 1 
1 1 1 1 1 1 1 1 1 
1 1 1 1 1 1 1 1 1 
1 1 1 1 1 1 1 1 1 
1 1 1 1 1 1 1 1 1 
1 1 1 1 1 1 1 1 1 
1 1 1 1 1 1 1 1 1 
1 1 1 1 1 1 1 1 1 
1 1 1 1 1 1 1 1 1 
1 1 1 1 1 1 1 1 1 
1 1 1 1 1 1 1 1 1 
1 1 1 1 1 1 1 1 1 
1 1 1 1 1 1 1 1 1 
1 1 1 1 1 1 1 1 1 
1 1 1 1 1 1 1 1 1 
1 1 1 1 1 1 1 1 1 
1 1 1 1 1 1 1 1 1 
1 1 1 1 1 1 1 1 1 
1 1 1 1 1 1 1 1 1 
1 1 1 1 1 1 1 1 1 
1 1 1 1 1 1 1 1 1 
1 1 1 1 1 1 1 1 1 
1 1 1 1 1 1 1 1 1 
1 1 1 1 1 1 1 1 1 
1 1 1 1 1 1 1 1 1 
1 1 1 1 1 1 1 1 1 
1 1 1 1 1 1 1 1 1 
1 1 1 1 1 1 1 1 1 
1 1 1 1 1 1 1 1 1 
1 1 1 1 1 1 1 1 1 
1 1 1 1 1 1 1 1 1 
1 1 1 1 1 1 1 1 1 
1 1 1 1 1 1 1 1 1 
1 1 1 1 1 1 1 1 1 
1 1 1 1 1 1 1 1 1 
1 1 1 1 1 1 1 1 1 
1 1 1 1 1 1 1 1 1 
1 1 1 1 1 1 1 1 1 
1 1 1 1 1 1 1 1 1 
1 1 1 1 1 1 1 1 1 
1 1 1 1 1 1 1 1 1 
1 1 1 1 1 1 1 1 1 
1 1 1 1 1 1 1 1 1 
1 1 1 1 1 1 1 1 1 
1 1 1 1 1 1 1 1 1 
1 1 1 1 1 1 1 1 1 
1 1 1 1 1 1 1 1 1 
1 1 1 1 1 1 1 1 1 
1 1 1 1 1 1 1 1 1 
1 1 1 1 1 1 1 1 1 
1 1 1 1 1 1 1 1 1 
1 1 1 1 1 1 1 1 1 
1 1 1 1 1 1 1 1 1 
1 1 1 1 1 1 1 1 1 
1 1 1 1 1 1 1 1 1 
1 1 1 1 1 1 1 1 1 
1 1 1 1 1 1 1 1 1 
1 1 1 1 1 1 1 1 1 
1 1 1 1 1 1 1 1 1 
1 1 1 1 1 1 1 1 1 
1 1 1 1 1 1 1 1 1 
1 1 1 1 1 1 1 1 1 
1 1 1 1 1 1 1 1 1 
1 1 1 1 1 1 1 1 1 
1 1 1 1 1 1 1 1 1 
1 1 1 1 1 1 1 1 1 
1 1 1 1 1 1 1 1 1 
1 1 1 1 1 1 1 1 1 
1 1 1 1 1 1 1 1 1 
1 1 1 1 1 1 1 1 1 
1 1 1 1 1 1 1 1 1 
1 1 1 1 1 1 1 1 1 
1 1 1 1 1 1 1 1 1 
1 1 1 1 1 1 1 1 1 
1 1 1 1 1 1 1 1 1 
1 1 1 1 1 1 1 1 1 
1 1 1 1 1 1 1 1 1 
1 1 1 1 1 1 1 1 1 
1 1 1 1 1 1 1 1 1 
1 1 1 1 1 1 1 1 1 
1 1 1 1 1 1 1 1 1 
1 1 1 1 1 1 1 1 1 
1 1 1 1 1 1 1 1 1 
1 1 1 1 1 1 1 1 1 
1 1 1 1 1 1 1 1 1 
1 1 1 1 1 1 1 1 1 
1 1 1 1 1 1 1 1 1 
1 1 1 1 1 1 1 1 1 
1 1 1 1 1 1 1 1 1 
1 1 1 1 1 1 1 1 1 
1 1 1 1 1 1 1 1 1 
1 1 1 1 1 1 1 1 1 
1 1 1 1 1 1 1 1 1 
1 1 1 1 1 1 1 1 1 
1 1 1 1 1 1 1 1 1 
1 1 1 1 1 1 1 1 1 
1 1 1 1 1 1 1 1 1 
1 1 1 1 1 1 1 1 1 
1 1 1 1 1 1 1 1 1 
1 1 1 1 1 1 1 1 1 
1 1 1 1 1 1 1 1 1 
1 1 1 1 1 1 1 1 1 
1 1 1 1 1 1 1 1 1 
1 1 1 1 1 1 1 1 1 
1 1 1 1 1 1 1 1 1 
1 1 1 1 1 1 1 1 1 
1 1 1 1 1 1 1 1 1 
1 1 1 1 1 1 1 1 1 
1 1 1 1 1 1 1 1 1 
1 1 1 1 1 1 1 1 1 
1 1 1 1 1 1 1 1 1 
1 1 1 1 1 1 1 1 1 
1 1 1 1 1 1 1 1 1 
1 1 1 1 1 1 1 1 1 
1 1 1 1 1 1 1 1 1 
1 1 1 1 1 1 1 1 1 
1 1 1 1 1 1 1 1 1 
1 1 1 1 1 1 1 1 1 
1 1 1 1 1 1 1 1 1 
1 1 1 1 1 1 1 1 1 
1 1 1 1 1 1 1 1 1 
1 1 1 1 1 1 1 1 1 
1 1 1 1 1 1 1 1 1 
1 1 1 1 1 1 1 1 1 
1 1 1 1 1 1 1 1 1 
1 1 1 1 1 1 1 1 1 
1 1 1 1 1 1 1 1 1 
1 1 1 1 1 1 1 1 1 
1 1 1 1 1 1 1 1 1 
1 1 1 1 1 1 1 1 1 
1 1 1 1 1 1 1 1 1 
1 1 1 1 1 1 1 1 1 
1 1 1 1 1 1 1 1 1 
1 1 1 1 1 1 1 1 1 
1 1 1 1 1 1 1 1 1 
1 1 1 1 1 1 1 1 1 
1 1 1 1 1 1 1 1 1 
1 1 1 1 1 1 1 1 1 
1 1 1 1 1 1 1 1 1 
1 1 1 1 1 1 1 1 1 
1 1 1 1 1 1 1 1 1 
1 1 1 1 1 1 1 1 1 
1 1 1 1 1 1 1 1 1 
1 1 1 1 1 1 1 1 1 
1 1 1 1 1 1 1 1 1 
1 1 1 1 1 1 1 1 1 
1 1 1 1 1 1 1 1 1 
1 1 1 1 1 1 1 1 1 
1 1 1 1 1 1 1 1 1 
1 1 1 1 1 1 1 1 1 
1 1 1 1 1 1 1 1 1 
1 1 1 1 1 1 1 1 1 
1 1 1 1 1 1 1 1 1 
1 1 1 1 1 1 1 1 1 
1 1 1 1 1 1 1 1 1 
1 1 1 1 1 1 1 1 1 
1 1 1 1 1 1 1 1 1 
1 1 1 1 1 1 1 1 1 
1 1 1 1 1 1 1 1 1 
1 1 1 1 1 1 1 1 1 
1 1 1 1 1 1 1 1 1 
1 1 1 1 1 1 1 1 1 
1 1 1 1 1 1 1 1 1 
1 1 1 1 1 1 1 1 1 
1 1 1 1 1 1 1 1 1 
1 1 1 1 1 1 1 1 1 
1 1 1 1 1 1 1 1 1 
1 1 1 1 1 1 1 1 1 
1 1 1 1 1 1 1 1 1 
1 1 1 1 1 1 1 1 1 
1 1 1 1 1 1 1 1 1 
1 1 1 1 1 1 1 1 1 
1 1 1 1 1 1 1 1 1 
1 1 1 1 1 1 1 1 1 
1 1 1 1 1 1 1 1 1 
1 1 1 1 1 1 1 1 1 
1 1 1 1 1 1 1 1 1 
1 1 1 1 1 1 1 1 1 
1 1 1 1 1 1 1 1 1 
1 1 1 1 1 1 1 1 1 
1 1 1 1 1 1 1 1 1 
1 1 1 1 1 1 1 1 1 
1 1 1 1 1 1 1 1 1 
1 1 1 1 1 1 1 1 1 
1 1 1 1 1 1 1 1 1 
1 1 1 1 1 1 1 1 1 
1 1 1 1 1 1 1 1 1 
1 1 1 1 1 1 1 1 1 
1 1 1 1 1 1 1 1 1 
1 1 1 1 1 1 1 1 1 
1 1 1 1 1 1 1 1 1 
1 1 1 1 1 1 1 1 1 
1 1 1 1 1 1 1 1 1 
1 1 1 1 1 1 1 1 1 
1 1 1 1 1 1 1 1 1 
1 1 1 1 1 1 1 1 1 
1 1 1 1 1 1 1 1 1 
1 1 1 1 1 1 1 1 1 
1 1 1 1 1 1 1 1 1 
1 1 1 1 1 1 1 1 1 
1 1 1 1 1 1 1 1 1 
1 1 1 1 1 1 1 1 1 
1 1 1 1 1 1 1 1 1 
1 1 1 1 1 1 1 1 1 
1 1 1 1 1 1 1 1 1 
1 1 1 1 1 1 1 1 1 
1 1 1 1 1 1 1 1 1 
1 1 1 1 1 1 1 1 1 
1 1 1 1 1 1 1 1 1 
1 1 1 1 1 1 1 1 1 
1 1 1 1 1 1 1 1 1 
1 1 1 1 1 1 1 1 1 
1 1 1 1 1 1 1 1 1 
1 1 1 1 1 1 1 1 1 
1 1 1 1 1 1 1 1 1 
1 1 1 1 1 1 1 1 1 
1 1 1 1 1 1 1 1 1 
1 1 1 1 1 1 1 1 1 
1 1 1 1 1 
NORMALS Normals float
0.574259 0.184382 -0.79764 0.133616 -0.180622 -0.974434 0.494724 -0.250445 -0.832181 
0.341848 -0.0354216 -0.939088 0.0229253 0.00167552 -0.999736 0.317483 0.287871 -0.903512 
0.453459 0.480159 -0.750881 0.55724 0.365796 -0.745438 0.111766 0.252287 -0.961176 
0.282883 0.359791 -0.889116 0.255793 0.427857 -0.866896 0.345973 0.527427 -0.775967 
0.406323 0.497879 -0.766171 0.193744 0.240118 -0.951213 0.358954 0.690363 -0.628133 
0.30913 0.462751 -0.830843 0.235309 0.433036 -0.87012 0 -0.121763 -0.992559 
0 -0.992432 -0.122797 -0.849089 -0.520497 -0.0901731 0.849089 -0.520497 -0.0901731 
0 0.184289 -0.982872 0.116811 -0.2965 -0.947862 0.799379 -0.191827 -0.569382 
0.929334 -0.192321 -0.315201 0.755681 0.121167 -0.643634 0.715646 0.42129 -0.557104 
0.874042 0.236477 -0.424416 0.72878 0.513858 -0.45258 0.712078 0.398418 -0.578107 
-0.0611983 -0.0491087 -0.996917 0.434899 0.451816 -0.778926 -0.0640612 -0.0377308 -0.997232 
0.554144 0.518697 -0.651059 -0.00609053 0.206131 -0.978506 0.470244 0.544371 -0.694644 
0.00550529 0.286812 -0.957971 0.289427 0.500204 -0.816105 0.105316 0.0868328 -0.99064 
0.3138 0.0931515 -0.944908 0.410034 0.651553 -0.63824 0.251305 0.288059 -0.924049 
0 -0.229113 0.9734 0.0795936 0.0687125 -0.994456 0.357917 0.503897 -0.786119 
0.417859 0.557929 -0.717014 0.219421 0.318452 -0.922194 0.21545 0.277009 -0.936401 
0.355992 0.408494 -0.840478 -0.0283409 0.212189 -0.976818 0.301367 0.535236 -0.789114 
0.171783 0.435599 -0.883597 0 -0.121763 -0.992559 0 -0.992432 -0.122797 
-0.849089 -0.520497 -0.0901731 0.849089 -0.520497 -0.0901731 0.201762 -0.161489 -0.96603 
0.0726046 -0.995322 -0.0637469 -0.221539 0.032161 -0.974621 0 0.184289 -0.982872 
0.854851 -0.473642 0.21188 -0.194097 0.383054 -0.903103 -0.489462 0.578377 -0.652616 
0.500455 0.51053 -0.699216 0.00994092 0.996332 -0.0849966 0.840454 -0.262592 -0.474007 
0.97563 0.00258552 -0.219406 0.858519 0.404194 -0.315549 0.894612 0.428785 -0.125753 
-0.116585 -0.155128 -0.980991 0.676737 0.602046 -0.423754 0.477505 0.658463 -0.581736 
0.581056 0.622068 -0.52479 0.460811 0.664049 -0.588806 0.51057 0.711917 -0.482175 
0.583909 0.711491 -0.390935 0.357423 0.694976 -0.623905 0.00834451 0.102669 -0.994681 
0.0194364 0.0545164 -0.998324 -0.125344 0.224636 -0.966347 0.154598 0.197262 -0.968084 
0.434927 0.661934 -0.610476 0.387052 0.543231 -0.745044 0.496173 0.586421 -0.640252 
0.00966136 0.209104 -0.977846 0 -0.229113 0.9734 -0.108219 -0.359215 0.926959 
0.367413 0.344937 0.863728 0.405085 -0.289735 -0.867156 0.546553 -0.211907 -0.81017 
0.96171 -0.10815 -0.25183 0.70105 0.645285 -0.303541 0.541585 0.738415 -0.401782 
0.577998 0.720655 -0.382851 0.53499 0.807477 -0.24853 -0.292014 -0.145604 -0.945266 
0.565841 0.698407 -0.438237 -0.173886 -0.141862 -0.974494 0.536115 0.615897 -0.57728 
-0.338865 -0.00733467 -0.940806 0.542174 0.731478 -0.413506 -0.170806 0.0309868 -0.984817 
0.580057 0.718463 -0.383855 0.42953 0.832625 -0.349626 -0.0351609 0.278131 -0.959899 
0.01088 0.306522 -0.951801 -0.03656 0.303862 -0.952014 0.304529 0.615423 -0.726991 
0.0847742 0.388648 -0.917478 0.319572 0.592728 -0.739288 0.349606 0.730336 -0.586844 
0.0751324 -0.303104 -0.949991 0.259384 -0.380692 -0.887577 0.753914 -0.489756 -0.437896 
0.674391 -0.193706 -0.712513 0.781167 -0.308018 -0.543049 0.84079 0.517032 -0.160468 
0.588337 0.797661 -0.132649 0.524895 0.847834 -0.0752523 0.652571 0.728071 -0.209912 
0.604028 0.738958 -0.298484 0.513261 0.776057 -0.366469 0.412445 0.808159 -0.420438 
0.0849812 0.570203 -0.817096 0.0979993 0.252482 -0.962626 0.035905 0.730955 -0.68148 
0.427718 -0.359635 -0.829289 0.493314 -0.356404 -0.793484 0.687649 -0.35387 -0.633968 
0.819328 -0.493707 -0.291471 0.869469 -0.45838 -0.184149 0.957128 -0.266196 -0.114219 
0.999611 -0.0141719 -0.0240156 0.961191 0.274929 -0.0229263 0.750336 0.660446 -0.0284104 
-0.228659 -0.198719 -0.953009 0.632958 0.770724 0.0731422 0.612382 0.76847 -0.185584 
0.700839 0.697215 0.150718 0.593911 0.803416 0.042337 0.532044 0.832948 -0.152078 
-0.131957 0.238949 -0.962024 0.35612 0.822745 -0.443023 0.441516 0.800551 -0.405193 
-0.0115264 0.555608 -0.831365 0.233103 0.586664 -0.775557 -0.149336 0.528559 -0.835658 
-0.170048 0.423464 -0.88981 0.266871 0.807359 -0.526262 0.216743 -0.379895 -0.899278 
0.764164 -0.356238 -0.537725 -0.200641 -0.333291 -0.921228 0.903254 -0.289406 -0.316822 
0.943349 0.206243 0.259917 0.91541 0.381113 0.129531 0.728955 0.663332 0.169161 
0.694615 0.676482 0.244708 0.508751 0.842952 0.174942 0.485166 0.870938 0.0779799 
0.481496 0.786096 0.387576 0.65977 0.751342 -0.0137468 0.625325 0.774273 0.0973114 
0.621358 0.756318 0.204688 0.674628 0.73264 0.090088 0.515291 0.854552 0.0649362 
-0.197552 0.107088 -0.974426 0.558111 0.815862 -0.151265 0.488594 0.870963 -0.0519684 
-0.211209 0.313696 -0.925735 0.416505 0.82465 -0.382721 0.404996 0.891132 -0.204604 
-0.181724 0.607757 -0.773051 -0.0397276 0.804978 -0.591973 0.350555 -0.389796 -0.851569 
0.873043 -0.290939 -0.391344 0.935632 -0.288147 -0.203871 0.871258 -0.438671 -0.220174 
0.837341 0.491478 0.239391 0.77967 0.540855 0.31558 0.606239 0.761953 0.227818 
0.647978 0.754186 0.106434 0.508169 0.843044 0.176182 0.614768 0.768255 0.178453 
0.566761 0.822439 0.0487482 0.380495 0.895625 -0.230391 -0.33988 0.48814 -0.803866 
-0.356542 0.644341 -0.676537 0.201726 0.963758 -0.174578 0.235635 0.915616 -0.325765 
0.276012 0.949127 -0.151574 -0.216303 0.643562 -0.734194 -0.112919 0.80886 -0.577057 
-0.110166 0.782364 -0.613 -0.0917395 -0.521591 -0.848249 0.275168 -0.351479 -0.894844 
0.396629 -0.362398 -0.843418 0.737054 -0.343882 -0.581804 0.983531 -0.1477 -0.104166 
0.906485 -0.283431 -0.312973 0.961075 -0.261306 0.0897459 0.961176 0.0476549 0.27179 
0.780418 0.389227 0.489336 0.502921 0.798329 0.331274 0.604309 0.699485 0.381485 
0.725125 0.511912 0.460586 0.55602 0.673463 0.487124 0.554882 0.775675 0.300723 
-0.199074 0.357132 -0.912593 -0.326831 0.441369 -0.835688 0.447248 0.891999 0.0656263 
-0.0326518 0.987827 -0.152093 0.262586 0.957498 -0.119362 -0.210347 0.530845 -0.820949 
-0.119627 0.941963 -0.313681 -0.0522315 0.806395 -0.589066 -0.116581 0.962038 -0.246763 
0.836218 -0.234844 -0.495569 0.962875 -0.138625 -0.231634 0.979904 -0.110803 0.165862 
0.902054 -0.332574 0.275123 0.910862 -0.0965171 0.401266 0.901653 0.170731 0.397333 
0.684924 0.275846 0.67438 0.326293 0.352936 0.876908 0.585041 0.554654 0.591681 
0.411201 0.633047 0.65587 0.602072 0.542646 0.5857 -0.255619 0.149903 -0.955085 
0.503033 0.854934 0.126668 0.267999 0.960114 0.0797313 -0.240449 0.585209 -0.774413 
0.998705 -0.0508124 0.00238219 0.982003 -0.178433 0.0619034 0.971882 -0.0991501 0.213578 
0.894777 -0.020231 0.446055 0.827136 0.0230436 0.561529 0.883338 -0.119285 0.453305 
0.656581 0.118995 0.74481 0.476584 0.485795 0.732715 0.507919 0.69725 0.505827 
-0.235867 0.273972 -0.932366 0.453517 0.778304 0.434241 -0.262429 0.454706 -0.851101 
-0.221105 0.348823 -0.910733 0.362867 0.715921 0.596477 -0.203514 0.640025 -0.740912 
-0.220866 0.756206 -0.615931 -0.171177 0.682512 -0.710546 -0.180411 0.827113 -0.532293 
0.308383 -0.369516 -0.87656 0.833435 0.0329148 0.551636 0.40388 0.227961 0.885954 
0.539203 0.529372 0.655 0.432907 0.546721 0.71672 0.376183 0.727512 0.573771 
0.397315 0.725211 0.562326 -0.300029 0.37534 -0.876985 -0.390217 0.497166 -0.774956 
-0.399939 0.520399 -0.754476 0.266128 0.911146 0.314624 -0.14572 0.638119 -0.756022 
-0.0632597 0.708561 -0.702808 -0.156992 0.832665 -0.531058 -0.195239 0.72356 -0.662075 
-0.487858 0.668512 -0.561326 -0.449244 0.866824 -0.216325 -0.0818185 0.828639 -0.553772 
-0.193688 0.762538 -0.617269 0.701128 -0.288493 -0.652067 0.917702 -0.101496 -0.384086 
0.996952 -0.0549376 0.0554006 -0.212215 -0.4261 -0.879434 0.981121 0.0230553 0.192015 
0.913814 0.0812052 0.397933 0.889287 0.0621654 0.453106 0.575326 0.141828 0.805534 
0.435898 0.271635 0.858025 0.27273 0.265653 0.924688 -0.308347 0.0474819 -0.950088 
-0.410808 0.124139 -0.903231 0.290883 0.445845 0.846528 -0.451891 0.215253 -0.865714 
-0.298888 0.412537 -0.860511 -0.523491 0.524063 -0.6718 -0.342706 0.666753 -0.66181 
-0.442378 0.67256 -0.593266 -0.449796 0.766089 -0.45912 -0.298109 0.929373 -0.217706 
-0.362727 0.929993 -0.0595194 -0.121158 0.953249 -0.276834 -0.0900439 0.939874 -0.329439 
-0.0879975 0.949391 -0.301517 0.0804929 0.970687 0.226466 0.556737 -0.0692235 -0.827799 
-0.146774 -0.406793 -0.901652 0.798128 -0.0644899 -0.599027 0.824892 -0.203666 -0.527327 
0.964663 0.0397438 0.260473 0.758924 0.264496 0.595043 0.869311 0.15569 0.469104 
0.512071 0.195229 0.836462 0.279611 0.00570033 0.960096 -0.375997 -0.11651 -0.919267 
0.32819 0.467051 0.821069 0.32211 0.599847 0.732413 -0.404986 0.767218 -0.497356 
0.0110182 0.971586 0.236431 0.074297 0.886215 0.457277 0.187268 0.807978 0.558661 
0.211733 0.786692 0.5799 0.0215711 0.99282 0.117655 -0.0116982 -0.387878 -0.921637 
0.829463 -0.103036 -0.548976 0.987873 0.0459896 -0.148294 0.886703 0.11276 0.448379 
0.925969 0.0618041 0.372508 0.709521 0.273942 0.649258 0.651203 0.194422 0.733577 
-0.47609 0.198746 -0.856643 0.414585 0.516366 0.749323 0.276541 0.690146 0.668748 
-0.0546965 0.987188 0.149895 0.0730889 0.955424 0.286047 0.0635497 0.879163 0.472264 
0.0729908 0.982775 0.169779 0.101451 0.914079 0.392641 0.237793 -0.451392 -0.860058 
0.379659 -0.335024 -0.862333 0.537487 -0.151348 -0.829579 0.672022 0.0955469 -0.734341 
0.920467 0.111211 -0.374665 0.997408 0.065836 0.0290223 0.947841 0.0567013 0.313659 
0.93641 0.0881819 0.339648 0.792158 0.228194 0.56605 0.735728 0.15319 0.659725 
0.619236 0.249408 0.744542 0.619947 0.228082 0.750762 0.563623 0.265125 0.782328 
-0.307915 -0.217648 -0.926184 0.260686 0.109008 0.95925 0.32747 0.235341 0.915084 
-0.477752 0.148466 -0.865859 -0.513632 0.391211 -0.763633 0.274093 0.4624 0.843243 
-0.388521 0.526722 -0.756052 0.284363 0.586968 0.758028 0.320295 0.486193 0.813036 
-0.30467 0.790245 -0.531685 0.148974 0.721084 0.676642 0.286889 0.62523 0.725797 
0.129216 0.80962 0.572555 0.0665307 0.878834 0.472466 0.228318 0.674789 0.701805 
0.190117 0.827899 0.527673 0.194985 -0.334624 -0.921959 0 -0.146205 -0.989254 
0 -0.995053 -0.0993498 -0.672545 -0.733586 -0.0976431 0.672545 -0.733586 -0.0976431 
0 0.447214 -0.894427 -0.0340829 -0.518353 -0.854487 0.711426 0.0328256 -0.701994 
0.764699 0.16024 -0.624146 0.926515 0.191562 0.323844 0.683268 0.264517 0.680571 
0.549108 0.327455 0.76893 0.496876 0.302638 0.813342 -0.395689 0.66775 -0.630507 
-0.276787 0.784641 -0.554732 -0.187346 0.945791 -0.265294 -0.101181 0.991551 -0.0811691 
0.0253967 0.960966 0.275498 0.133918 0.902456 0.409439 0.0804527 0.728996 0.679774 
0.193432 0.735207 0.649658 0.38178 -0.152979 -0.911505 0.142102 -0.317996 -0.937382 
0.128941 -0.540181 -0.831612 0 -0.310325 0.95063 0.472788 0.0564797 -0.879364 
0.798638 0.0726457 -0.597411 0.904227 0.29285 -0.310824 0.992307 0.0733817 -0.0997086 
0.558888 0.359223 0.747398 0.776841 0.212294 0.592832 -0.431761 0.498072 -0.752002 
0.25915 0.517342 0.815597 -0.222818 0.936736 -0.269957 -0.221443 0.974594 -0.0336031 
0.23839 0.613674 0.752712 0.193143 0.642503 0.741543 0.110382 0.936404 0.333113 
0.0766709 0.802939 0.59111 0.191916 0.751821 0.63082 0.327166 -0.242641 -0.913284 
0.574052 0.0434101 -0.817667 -0.170297 -0.586819 -0.791608 0.475929 -0.0969738 -0.874121 
0.554278 -0.00704274 -0.832302 0.917104 0.313542 0.246194 0.789832 0.24082 0.564067 
0.600446 0.167985 0.781822 0.315372 0.357966 0.878864 -0.397151 0.342029 -0.851638 
-0.352572 0.749233 -0.560662 -0.118713 0.992916 -0.00504924 -0.0179783 0.995625 0.091698 
0.128453 0.9794 0.155807 0.122579 0.867181 0.482671 0.147148 0.896916 0.417 
0.24304 -0.252104 -0.936683 0.556285 -0.0304663 -0.830433 0.666415 0.188001 -0.721489 
0.885647 0.336701 -0.319786 0.862132 0.505828 0.0294161 -0.253 -0.333972 -0.907994 
0.283832 0.203598 0.93701 -0.441141 0.0187589 -0.897242 -0.473819 0.374504 -0.797021 
-0.440625 0.535995 -0.72011 -0.518833 0.573677 -0.633803 0.304944 0.59481 0.743781 
-0.439255 0.791063 -0.425763 -0.350752 0.78465 -0.511173 -0.235503 0.940901 -0.243401 
-0.044877 0.990134 0.13274 0.032086 0.971917 0.233126 0.765205 0.342374 -0.545198 
0.783163 0.387726 -0.486131 0.880527 0.463793 0.0978158 0.886793 0.444578 0.126283 
0.823823 0.502562 0.262199 -0.45439 0.564807 -0.688856 0.365568 0.46248 0.807758 
-0.429409 0.725013 -0.538483 -0.145914 0.967169 -0.208069 0.0223251 0.966894 0.254202 
0.635173 0.155865 -0.75648 0.707398 0.290372 -0.644416 0.810771 0.422337 -0.405317 
0.883392 0.405271 -0.235315 0.841171 0.538749 0.0466968 0.761212 0.611352 0.216347 
0.787528 0.572097 0.229139 0.704554 0.541181 0.459051 0.739134 0.572046 0.355591 
0.598273 0.447006 0.665022 -0.42081 -0.422809 -0.802591 0.431035 0.336035 0.83743 
0.598045 0.350723 0.72065 0.186914 0.61784 0.763765 -0.311042 0.913697 -0.261556 
-0.113278 0.974211 0.195142 0.451299 0.579995 0.678185 -0.114177 0.992773 0.0369483 
0.134263 0.852047 0.505954 0.116961 0.838273 0.532558 -0.270711 -0.56939 -0.776215 
0.751808 0.54441 0.372024 0.598739 0.593101 0.538278 0.699427 0.649872 0.297437 
0.550152 0.553088 0.625641 0.399572 0.586991 0.704119 -0.391877 -0.70241 -0.594182 
0.238911 0.439401 0.865938 0.21219 0.30774 0.927508 -0.472749 0.0745527 -0.878038 
-0.488697 0.479549 -0.72884 -0.488865 0.628523 -0.604955 -0.465716 0.742617 -0.481278 
-0.250773 0.956653 -0.148079 0.178331 0.661836 0.728129 -0.358719 0.765656 -0.53394 
-0.312425 0.849298 -0.42554 -0.315391 0.893943 -0.318425 -0.073415 0.9937 0.0846758 
0.00646434 0.925131 0.379594 0.0426957 0.961026 0.273143 0.16948 0.672635 0.720304 
0.213413 -0.221249 -0.95158 -0.144541 -0.530457 -0.835298 0.751738 0.447435 -0.48445 
0.779867 0.336216 -0.527983 -0.32291 -0.745665 -0.582849 -0.443525 -0.730356 -0.519486 
0.821387 0.507273 -0.260763 0.8118 0.582129 -0.0458962 -0.386182 -0.682791 -0.620209 
-0.474774 -0.843155 -0.252349 -0.509927 -0.775259 -0.372758 -0.49804 -0.730527 -0.467212 
-0.494028 -0.810958 -0.313503 -0.398237 -0.777668 -0.486457 -0.383082 -0.578406 -0.720204 
-0.50729 -0.549989 -0.663453 0.357123 0.263532 0.89611 -0.621933 0.282355 -0.730393 
-0.483583 0.639618 -0.597526 -0.442723 0.854241 -0.272524 -0.0299069 0.987916 0.15208 
0.463886 -0.0646197 -0.883535 0.479666 -0.0991876 -0.871827 0.469533 -0.161693 -0.867983 