# vtk DataFile Version 4.2
vtk output
ASCII
DATASET POLYDATA
POINTS 2998 float
360.015 136.1 54.6459 359.919 135.612 54.7724 360.12 135.823 54.6328 
360.385 140.604 54.329 359.984 140.789 54.2796 359.996 140.93 54.3412 
360.104 140.875 54.2804 359.957 140.96 54.1876 359.982 140.968 54.1772 
359.95 141.009 54.1384 360.973 144.315 54.6411 361.047 144.242 54.5891 
359.069 130.902 55.3935 359.096 131.062 55.3525 360.08 134.288 54.8372 
360.344 134.299 54.7548 359.67 135.036 55.118 360.822 135.498 54.6216 
360.869 140.477 54.2738 359.939 140.772 54.754 360.289 141.331 54.4798 
360.883 142.477 54.495 361.444 141.883 54.2839 360.924 143.627 54.6633 
361.906 145.301 54.4498 361.42 148.123 55.0108 361.456 150.732 55.2075 
361.491 152.945 55.6536 361.826 153.746 55.3981 361.699 158.045 55.5606 
361.701 157.866 55.5855 361.65 158.004 55.6276 361.816 158.117 55.5745 
361.701 158.129 55.5912 358.516 122.001 56.7678 358.613 122.49 56.6172 
358.399 122.44 56.5986 358.462 122.557 56.5775 358.406 122.538 56.5699 
359.082 125.746 56.2766 358.977 126.269 56.2908 359.255 127.095 55.9651 
359.503 126.373 55.9746 359.762 126.691 55.8981 358.905 128.061 56.0918 
359.622 127.775 55.7287 360.239 128.969 55.4972 360.456 131.871 55.1024 
359.285 131.584 55.4072 362.598 140.63 54.5642 360.172 142.441 55.5599 
362.86 145.758 54.537 360.897 149.291 55.7735 360.958 149.948 55.7512 
362.649 150.457 54.706 361.234 151.094 55.5458 361.178 152.126 56.0382 
362.613 154.519 55.0921 363.057 155.368 55.0965 361.443 156.386 56.0867 
361.809 157.419 55.6166 362.635 158.005 55.3451 361.707 158.292 55.7275 
362.047 158.828 55.6789 362.034 159.572 55.9213 362.626 160.718 55.7958 
362.23 161.414 56.2452 358.433 120.658 57.2817 358.447 121.468 56.9784 
358.3 121.694 57.0426 358.323 122.338 56.9033 358.574 122.877 56.6555 
359.172 125.02 56.3682 359.604 123.974 56.4202 358.673 126.109 56.7035 
360.184 125.742 56.155 361.409 130.496 55.5141 358.894 131.639 56.2749 
362.505 137.148 54.9444 359.874 141.537 56.1561 361.152 156.302 56.4911 
364.604 156.656 55.4315 361.474 157.481 56.0208 363.506 161.564 55.7626 
361.77 161.775 57.0544 362.961 162.149 55.9924 364.411 162.123 55.9574 
363.453 162.913 56.0627 362.083 163.35 57.094 362.439 164.18 56.9299 
363.207 164.654 56.5732 362.812 165.087 56.947 362.672 166.43 57.6689 
363.074 166.6 57.2954 358.675 116.844 58.4208 358.99 118.984 57.6446 
360.026 121.163 57.1539 361.002 123.091 57.0493 358.411 125.048 57.283 
358.419 126.97 57.1825 359.96 142.683 56.9104 360.452 147.395 56.7695 
360.634 148.766 56.4518 360.541 148.534 57.0419 365.386 153.176 55.6242 
360.955 155.525 57.2801 361.512 161.099 57.4683 365.587 164.472 56.7197 
363.737 166.136 56.8316 363.551 167.025 57.1536 362.664 167.452 58.1367 
363.618 168.506 57.5368 364.379 168.583 57.3309 362.894 170.331 58.6344 
363.606 170.348 57.9962 363.173 170.816 58.4263 359.35 116.924 58.3385 
366.268 139.355 57.2756 366.693 163.075 57.1032 365.055 167.905 57.2471 
366.11 167.11 57.4575 362.404 167.812 58.7736 363.978 170.975 58.0055 
363.676 172.473 58.537 363.599 173.167 58.7983 362.952 176.834 59.9198 
363.042 176.705 59.8432 358.152 115.613 59.3166 359.068 115.403 58.8964 
359.459 114.441 59.2561 357.8 119.787 58.5752 363.394 123.998 58.3607 
358.168 126.917 58.4412 368.474 161.641 58.2612 361.68 164.22 59.1017 
365.415 170.877 57.9769 366.576 171.023 58.4871 365.099 173.611 58.6388 
364.51 174.299 58.8178 363.035 176.137 59.8477 365.159 176.116 59.2647 
363.326 176.871 59.7524 358.439 111.149 60.6667 358.414 111.578 60.4857 
358.575 111.892 60.3185 358.299 113.025 60.1668 359.062 112.656 59.8966 
358.043 114.724 59.868 357.801 116.417 59.6996 357.673 119.019 59.5965 
361.21 161.056 59.1422 367.828 170.525 59.1878 362.399 174.58 60.6325 
365.101 177.241 59.5316 364.262 178.508 59.8467 363.675 180.782 60.676 
364.095 181.017 60.6056 363.639 181.521 60.9147 363.243 182.47 61.4601 
358.23 110.962 60.6126 358.21 110.962 60.5995 358.229 110.953 60.6241 
358.281 111.035 60.6243 358.298 111.193 60.6209 358.318 110.963 60.7206 
359.155 111.171 60.792 358.632 110.663 61.1976 357.621 117.057 60.4781 
357.623 118.05 60.45 361.605 164.555 60.6335 361.969 168.461 60.7083 
365.637 181.993 61.1336 364.695 183.329 61.3685 363.212 183.264 61.7505 
362.975 183.955 62.0993 363.398 184.272 61.9498 364.006 184.722 61.9211 
362.814 186.654 62.8117 362.785 186.856 62.9137 359.599 106.885 63.1346 
359.161 107.925 62.812 358.246 111.011 60.6438 358.323 111.109 60.8128 
359.544 109.357 61.8703 358.266 111.339 61.1548 357.93 113.005 61.0827 
357.727 114.764 60.8351 358.801 132.262 60.4842 369.518 137.628 61.0601 
360.65 149.142 60.6817 368.165 177.843 61.3569 366.854 181.442 61.5995 
364.517 184.949 61.9644 364.775 185.313 62.1377 363.113 186.001 62.6038 
362.778 187.329 63.2285 359.785 105.387 63.9566 360.005 105.141 64.0451 
359.423 106.528 63.4997 360.8 109.645 61.9954 357.691 114.119 62.22 
362.319 183.956 62.7527 362.098 185.532 63.3451 363.754 187.915 63.2184 
363.44 189.358 64.0265 362.997 189.492 64.4221 359.803 105.042 64.1928 
361.258 106.236 63.6982 370.895 137.704 62.9553 362.368 189.225 65.3143 
363.337 189.911 64.4104 359.655 104.326 65.0808 360.245 104.397 64.5927 
360.345 104.759 64.2919 361.752 105.619 64.3207 363.239 107.729 64.397 
361.76 171.469 64.6474 368.797 184.258 64.3179 364.857 189.922 64.3649 
364.256 190.418 64.5203 364.055 192.616 65.6705 364.342 193.16 65.8864 
363.108 192.978 66.3584 362.767 193.335 66.9526 363.408 193.532 66.3643 
363.707 193.699 66.2894 360.345 101.949 66.5747 359.517 103.813 65.8702 
357.874 112.455 64.5841 372.852 170.969 64.6579 365.138 192.788 65.8857 
362.413 193.306 67.5069 363.432 195.095 67.1734 362.649 195.355 68.0663 
363.006 195.808 67.8295 360.655 100.229 67.7185 360.935 99.6021 68.0587 
360.797 100.595 67.3992 361.764 100.324 67.6413 369.117 122.572 65.3445 
364.888 195.084 67.0229 364.523 195.364 67.1044 363.631 196.074 67.5388 
363.966 196.239 67.5799 364.412 195.958 67.4286 363.207 196.397 67.956 
360.465 100.13 67.9964 360.13 100.8 67.8372 361.605 99.3784 68.2971 
361.82 162.939 67.1181 361.87 192.043 68.3666 367.146 192.736 67.0671 
365.258 195.822 67.5718 363.443 197.044 68.2015 363.187 198.082 69.0115 
360.987 97.6628 69.8318 361.751 97.4344 69.8662 361.581 98.1412 69.3155 
361.963 98.6382 69 359.189 103.018 68.0442 364.195 102.064 68.3923 
367.828 111.898 68.0311 374.528 144.276 68.4423 370.103 188.93 67.9214 
364.642 197.407 68.3522 362.064 200.996 71.1346 362.016 201.125 71.3134 
362.127 200.904 71.0623 362.132 201.036 71.1218 361.13 96.7488 70.4854 
361.072 96.5039 70.7484 360.545 136.086 68.7505 364.979 197.97 68.8365 
362.326 200.669 70.9435 362.184 201.395 71.3239 362.311 202.688 71.9768 
360.986 96.4665 70.7858 360.958 96.4623 70.8291 360.929 96.6414 70.7168 
361.032 96.3495 70.927 361.265 95.9401 71.4009 360.264 98.2449 70.4296 
364.57 99.6506 70.3311 373.65 183.309 70.4556 361.531 199.568 71.7914 
361.62 200.973 72.1242 363.741 202.473 71.4178 362.533 203.314 72.2439 
361.597 94.4591 72.6146 360.753 96.5783 71.3219 359.383 101.374 70.8737 
375.362 175.733 71.1857 360.99 93.2112 74.1489 360.795 95.1534 72.807 
360.348 96.5366 72.5426 375.76 147.734 72.0933 362.215 152.313 71.9035 
362.27 167.675 72.0368 362.338 167.423 72.1306 372.913 189.408 72.4611 
361.551 91.7527 74.8853 361.356 91.532 75.2005 361.397 92.3085 74.502 
362.44 93.1172 73.7064 360.348 95.787 73.373 359.967 97.4987 73.2092 
362.504 166.666 72.7553 362.299 167.952 72.1029 370.552 196.605 73.027 
365.041 203.594 72.659 363.632 204.918 73.1118 362.62 205.772 74.019 
363.432 205.405 73.5123 361.786 206.4 75.2746 361.798 89.666 76.6046 
362.546 91.3375 75.2149 362.976 91.5677 75.1593 362.771 92.7455 74.0957 
363.146 92.5016 74.4844 363.578 92.1769 75.0496 360.544 94.395 74.0439 
360.163 95.8995 74.0679 360.015 96.0781 74.8282 359.781 98.4497 73.6888 
359.319 109.317 73.6004 364.075 206.312 74.3771 363.564 206.702 74.6223 
361.712 88.7273 77.3952 361.961 89.0936 77.0083 360.881 91.5585 75.825 
364.55 92.8288 75.42 359.872 96.8687 75.3767 359.69 99.288 74.6151 
362.761 147.42 74.4614 360.908 205.624 76.7206 364.459 207.574 75.571 
363.33 207.827 75.5602 361.832 208.692 76.879 362.257 208.917 76.6946 
361.329 88.3188 78.0332 362.882 89.3402 77.0111 360.919 192.959 76.0382 
361.333 87.2973 78.8597 360.977 86.9846 79.3789 361.635 86.8988 79.0682 
360.47 89.9622 78.0097 359.661 101.17 76.2838 363.615 145.62 76.7864 
376.283 149.844 77.1154 363.637 158.484 75.4803 365.814 207.533 76.3645 
360.711 208.674 78.5437 362.472 211.428 78.1845 360.437 212.121 79.7808 
360.519 212.531 79.7673 360.973 211.64 79.0601 360.703 212.703 79.624 
361.234 85.9633 80.0043 361.862 86.3043 79.5982 362.703 87.6523 78.4747 
360.192 114.613 77.6814 376.746 165.089 77.763 360.205 211.812 80.1823 
361.883 213.142 79.2187 361 213.588 79.8617 361.667 213.34 79.3909 
360.958 84.7869 81.1144 360.783 85.2959 80.8573 361.286 84.7523 81.0193 
362.063 85.6433 80.2469 359.942 91.4755 78.8642 359.852 92.4797 78.9381 
364.303 143.911 78.3178 365.803 164.118 78.6151 374.307 191.091 79.5986 
360.213 208.441 79.8091 362.458 213.49 79.6506 362.055 213.965 79.9512 
360.14 85.7799 81.0997 362.697 85.2382 80.9462 359.728 97.0578 79.65 
376.383 176.213 79.6286 361.998 181.902 79.0718 372.723 198.544 80.4987 
363.6 213.275 80.1443 361.288 214.921 80.7867 360.123 215.131 82.1992 
361.022 215.204 81.1675 360.462 215.376 81.8363 361.157 83.493 82.2116 
360.293 84.2661 82.2006 362.051 83.7761 82.0284 363.286 85.3658 81.3151 
376.277 155.27 80.3442 369.94 158.801 81.4075 376.676 165.409 80.2219 
376.547 168.066 80.6038 368.963 168.751 81.3475 376.204 175.712 80.8018 
369.55 206.313 80.521 360.805 215.674 81.819 360.729 216.166 82.3898 
361.475 216.362 82.3974 361.257 216.643 82.7236 360.555 82.5703 83.3462 
[...]
POINT_DATA 2998
SCALARS scalars float
LOOKUP_TABLE default
1 1 1 1 1 1 1 1 1 
1 1 1 1 1 1 1 1 1 
1 1 1 1 1 1 1 1 1 
1 1 1 1 1 1 1 1 1 
1 1 1 1 1 1 1 1 1 
1 1 1 1 1 1 1 1 1 
1 1 1 1 1 1 1 1 1 
1 1 1 1 1 1 1 1 1 
1 1 1 1 1 1 1 1 1 
1 1 1 1 1 1 1 1 1 
1 1 1 1 1 1 1 1 1 
1 1 1 1 1 1 1 1 1 
1 1 1 1 1 1 1 1 1 
1 1 1 1 1 1 1 1 1 
1 1 1 1 1 1 1 1 1 
1 1 1 1 1 1 1 1 1 
1 1 1 1 1 1 1 1 1 
1 1 1 1 1 1 1 1 1 
1 1 1 1 1 1 1 1 1 
1 1 1 1 1 1 1 1 1 
1 1 1 1 1 1 1 1 1 
1 1 1 1 1 1 1 1 1 
1 1 1 1 1 1 1 1 1 
1 1 1 1 1 1 1 1 1 
1 1 1 1 1 1 1 1 1 
1 1 1 1 1 1 1 1 1 
1 1 1 1 1 1 1 1 1 
1 1 1 1 1 1 1 1 1 
1 1 1 1 1 1 1 1 1 
1 1 1 1 1 1 1 1 1 
1 1 1 1 1 1 1 1 1 
1 1 1 1 1 1 1 1 1 
1 1 1 1 1 1 1 1 1 
1 1 1 1 1 1 1 1 1 
1 1 1 1 1 1 1 1 1 
1 1 1 1 1 1 1 1 1 
1 1 1 1 1 1 1 1 1 
1 1 1 1 1 1 1 1 1 
1 1 1 1 1 1 1 1 1 
1 1 1 1 1 1 1 1 1 
1 1 1 1 1 1 1 1 1 
1 1 1 1 1 1 1 1 1 
1 1 1 1 1 1 1 1 1 
1 1 1 1 1 1 1 1 1 
1 1 1 1 1 1 1 1 1 
1 1 1 1 1 1 1 1 1 
1 1 1 1 1 1 1 1 1 
1 1 1 1 1 1 1 1 1 
1 1 1 1 1 1 1 1 1 
1 1 1 1 1 1 1 1 1 
1 1 1 1 1 1 1 1 1 
1 1 1 1 1 1 1 1 1 
1 1 1 1 1 1 1 1 1 
1 1 1 1 1 1 1 1 1 
1 1 1 1 1 1 1 1 1 
1 1 1 1 1 1 1 1 1 
1 1 1 1 1 1 1 1 1 
1 1 1 1 1 1 1 1 1 
1 1 1 1 1 1 1 1 1 
1 1 1 1 1 1 1 1 1 
1 1 1 1 1 1 1 1 1 
1 1 1 1 1 1 1 1 1 
1 1 1 1 1 1 1 1 1 
1 1 1 1 1 1 1 1 1 
1 1 1 1 1 1 1 1 1 
1 1 1 1 1 1 1 1 1 
1 1 1 1 1 1 1 1 1 
1 1 1 1 1 1 1 1 1 
1 1 1 1 1 1 1 1 1 
1 1 1 1 1 1 1 1 1 
1 1 1 1 1 1 1 1 1 
1 1 1 1 1 1 1 1 1 
1 1 1 1 1 1 1 1 1 
1 1 1 1 1 1 1 1 1 
1 1 1 1 1 1 1 1 1 
1 1 1 1 1 1 1 1 1 
1 1 1 1 1 1 1 1 1 
1 1 1 1 1 1 1 1 1 
1 1 1 1 1 1 1 1 1 
1 1 1 1 1 1 1 1 1 
1 1 1 1 1 1 1 1 1 
1 1 1 1 1 1 1 1 1 
1 1 1 1 1 1 1 1 1 
1 1 1 1 1 1 1 1 1 
1 1 1 1 1 1 1 1 1 
1 1 1 1 1 1 1 1 1 
1 1 1 1 1 1 1 1 1 
1 1 1 1 1 1 1 1 1 
1 1 1 1 1 1 1 1 1 
1 1 1 1 1 1 1 1 1 
1 1 1 1 1 1 1 1 1 
1 1 1 1 1 1 1 1 1 
1 1 1 1 1 1 1 1 1 
1 1 1 1 1 1 1 1 1 
1 1 1 1 1 1 1 1 1 
1 1 1 1 1 1 1 1 1 
1 1 1 1 1 1 1 1 1 
1 1 1 1 1 1 1 1 1 
1 1 1 1 1 1 1 1 1 
1 1 1 1 1 1 1 1 1 
1 1 1 1 1 1 1 1 1 
1 1 1 1 1 1 1 1 1 
1 1 1 1 1 1 1 1 1 
1 1 1 1 1 1 1 1 1 
1 1 1 1 1 1 1 1 1 
1 1 1 1 1 1 1 1 1 
1 1 1 1 1 1 1 1 1 
1 1 1 1 1 1 1 1 1 
1 1 1 1 1 1 1 1 1 
1 1 1 1 1 1 1 1 1 
1 1 1 1 1 1 1 1 1 
1 1 1 1 1 1 1 1 1 
1 1 1 1 1 1 1 1 1 
1 1 1 1 1 1 1 1 1 
1 1 1 1 1 1 1 1 1 
1 1 1 1 1 1 1 1 1 
1 1 1 1 1 1 1 1 1 
1 1 1 1 1 1 1 1 1 
1 1 1 1 1 1 1 1 1 
1 1 1 1 1 1 1 1 1 
1 1 1 1 1 1 1 1 1 
1 1 1 1 1 1 1 1 1 
1 1 1 1 1 1 1 1 1 
1 1 1 1 1 1 1 1 1 
1 1 1 1 1 1 1 1 1 
1 1 1 1 1 1 1 1 1 
1 1 1 1 1 1 1 1 1 
1 1 1 1 1 1 1 1 1 
1 1 1 1 1 1 1 1 1 
1 1 1 1 1 1 1 1 1 
1 1 1 1 1 1 1 1 1 
1 1 1 1 1 1 1 1 1 
1 1 1 1 1 1 1 1 1 
1 1 1 1 1 1 1 1 1 
1 1 1 1 1 1 1 1 1 
1 1 1 1 1 1 1 1 1 
1 1 1 1 1 1 1 1 1 
1 1 1 1 1 1 1 1 1 
1 1 1 1 1 1 1 1 1 
1 1 1 1 1 1 1 1 1 
1 1 1 1 1 1 1 1 1 
1 1 1 1 1 1 1 1 1 
1 1 1 1 1 1 1 1 1 
1 1 1 1 1 1 1 1 1 
1 1 1 1 1 1 1 1 1 
1 1 1 1 1 1 1 1 1 
1 1 1 1 1 1 1 1 1 
1 1 1 1 1 1 1 1 1 
1 1 1 1 1 1 1 1 1 
1 1 1 1 1 1 1 1 1 
1 1 1 1 1 1 1 1 1 
1 1 1 1 1 1 1 1 1 
1 1 1 1 1 1 1 1 1 
1 1 1 1 1 1 1 1 1 
1 1 1 1 1 1 1 1 1 
1 1 1 1 1 1 1 1 1 
1 1 1 1 1 1 1 1 1 
1 1 1 1 1 1 1 1 1 
1 1 1 1 1 1 1 1 1 
1 1 1 1 1 1 1 1 1 
1 1 1 1 1 1 1 1 1 
1 1 1 1 1 1 1 1 1 
1 1 1 1 1 1 1 1 1 
1 1 1 1 1 1 1 1 1 
1 1 1 1 1 1 1 1 1 
1 1 1 1 1 1 1 1 1 
1 1 1 1 1 1 1 1 1 
1 1 1 1 1 1 1 1 1 
1 1 1 1 1 1 1 1 1 
1 1 1 1 1 1 1 1 1 
1 1 1 1 1 1 1 1 1 
1 1 1 1 1 1 1 1 1 
1 1 1 1 1 1 1 1 1 
1 1 1 1 1 1 1 1 1 
1 1 1 1 1 1 1 1 1 
1 1 1 1 1 1 1 1 1 
1 1 1 1 1 1 1 1 1 
1 1 1 1 1 1 1 1 1 
1 1 1 1 1 1 1 1 1 
1 1 1 1 1 1 1 1 1 
1 1 1 1 1 1 1 1 1 
1 1 1 1 1 1 1 1 1 
1 1 1 1 1 1 1 1 1 
1 1 1 1 1 1 1 1 1 
1 1 1 1 1 1 1 1 1 
1 1 1 1 1 1 1 1 1 
1 1 1 1 1 1 1 1 1 
1 1 1 1 1 1 1 1 1 
1 1 1 1 1 1 1 1 1 
1 1 1 1 1 1 1 1 1 
1 1 1 1 1 1 1 1 1 
1 1 1 1 1 1 1 1 1 
1 1 1 1 1 1 1 1 1 
1 1 1 1 1 1 1 1 1 
1 1 1 1 1 1 1 1 1 
1 1 1 1 1 1 1 1 1 
1 1 1 1 1 1 1 1 1 
1 1 1 1 1 1 1 1 1 
1 1 1 1 1 1 1 1 1 
1 1 1 1 1 1 1 1 1 
1 1 1 1 1 1 1 1 1 
1 1 1 1 1 1 1 1 1 
1 1 1 1 1 1 1 1 1 
1 1 1 1 1 1 1 1 1 
1 1 1 1 1 1 1 1 1 
1 1 1 1 1 1 1 1 1 
1 1 1 1 1 1 1 1 1 
1 1 1 1 1 1 1 1 1 
1 1 1 1 1 1 1 1 1 
1 1 1 1 1 1 1 1 1 
1 1 1 1 1 1 1 1 1 
1 1 1 1 1 1 1 1 1 
1 1 1 1 1 1 1 1 1 
1 1 1 1 1 1 1 1 1 
1 1 1 1 1 1 1 1 1 
1 1 1 1 1 1 1 1 1 
1 1 1 1 1 1 1 1 1 
1 1 1 1 1 1 1 1 1 
1 1 1 1 1 1 1 1 1 
1 1 1 1 1 1 1 1 1 
1 1 1 1 1 1 1 1 1 
1 1 1 1 1 1 1 1 1 
1 1 1 1 1 1 1 1 1 
1 1 1 1 1 1 1 1 1 
1 1 1 1 1 1 1 1 1 
1 1 1 1 1 1 1 1 1 
1 1 1 1 1 1 1 1 1 
1 1 1 1 1 1 1 1 1 
1 1 1 1 1 1 1 1 1 
1 1 1 1 1 1 1 1 1 
1 1 1 1 1 1 1 1 1 
1 1 1 1 1 1 1 1 1 
1 1 1 1 1 1 1 1 1 
1 1 1 1 1 1 1 1 1 
1 1 1 1 1 1 1 1 1 
1 1 1 1 1 1 1 1 1 
1 1 1 1 1 1 1 1 1 
1 1 1 1 1 1 1 1 1 
1 1 1 1 1 1 1 1 1 
1 1 1 1 1 1 1 1 1 
1 1 1 1 1 1 1 1 1 
1 1 1 1 1 1 1 1 1 
1 1 1 1 1 1 1 1 1 
1 1 1 1 1 1 1 1 1 
1 1 1 1 1 1 1 1 1 
1 1 1 1 1 1 1 1 1 
1 1 1 1 1 1 1 1 1 
1 1 1 1 1 1 1 1 1 
1 1 1 1 1 1 1 1 1 
1 1 1 1 1 1 1 1 1 
1 1 1 1 1 1 1 1 1 
1 1 1 1 1 1 1 1 1 
1 1 1 1 1 1 1 1 1 
1 1 1 1 1 1 1 1 1 
1 1 1 1 1 1 1 1 1 
1 1 1 1 1 1 1 1 1 
1 1 1 1 1 1 1 1 1 
1 1 1 1 1 1 1 1 1 
1 1 1 1 1 1 1 1 1 
1 1 1 1 1 1 1 1 1 
1 1 1 1 1 1 1 1 1 
1 1 1 1 1 1 1 1 1 
1 1 1 1 1 1 1 1 1 
1 1 1 1 1 1 1 1 1 
1 1 1 1 1 1 1 1 1 
1 1 1 1 1 1 1 1 1 
1 1 1 1 1 1 1 1 1 
1 1 1 1 1 1 1 1 1 
1 1 1 1 1 1 1 1 1 
1 1 1 1 1 1 1 1 1 
1 1 1 1 1 1 1 1 1 
1 1 1 1 1 1 1 1 1 
1 1 1 1 1 1 1 1 1 
1 1 1 1 1 1 1 1 1 
1 1 1 1 1 1 1 1 1 
1 1 1 1 1 1 1 1 1 
1 1 1 1 1 1 1 1 1 
1 1 1 1 1 1 1 1 1 
1 1 1 1 1 1 1 1 1 
1 1 1 1 1 1 1 1 1 
1 1 1 1 1 1 1 1 1 
1 1 1 1 1 1 1 1 1 
1 1 1 1 1 1 1 1 1 
1 1 1 1 1 1 1 1 1 
1 1 1 1 1 1 1 1 1 
1 1 1 1 1 1 1 1 1 
1 1 1 1 1 1 1 1 1 
1 1 1 1 1 1 1 1 1 
1 1 1 1 1 1 1 1 1 
1 1 1 1 1 1 1 1 1 
1 1 1 1 1 1 1 1 1 
1 1 1 1 1 1 1 1 1 
1 1 1 1 1 1 1 1 1 
1 1 1 1 1 1 1 1 1 
1 1 1 1 1 1 1 1 1 
1 1 1 1 1 1 1 1 1 
1 1 1 1 1 1 1 1 1 
1 1 1 1 1 1 1 1 1 
1 1 1 1 1 1 1 1 1 
1 1 1 1 1 1 1 1 1 
1 1 1 1 1 1 1 1 1 
1 1 1 1 1 1 1 1 1 
1 1 1 1 1 1 1 1 1 
1 1 1 1 1 1 1 1 1 
1 1 1 1 1 1 1 1 1 
1 1 1 1 1 1 1 1 1 
1 1 1 1 1 1 1 1 1 
1 1 1 1 1 1 1 1 1 
1 1 1 1 1 1 1 1 1 
1 1 1 1 1 1 1 1 1 
1 1 1 1 1 1 1 1 1 
1 1 1 1 1 1 1 1 1 
1 1 1 1 1 1 1 1 1 
1 1 1 1 1 1 1 1 1 
1 1 1 1 1 1 1 1 1 
1 1 1 1 1 1 1 1 1 
1 1 1 1 1 1 1 1 1 
1 1 1 1 1 1 1 1 1 
1 1 1 1 1 1 1 1 1 
1 1 1 1 1 1 1 1 1 
1 1 1 1 1 1 1 1 1 
1 1 1 1 1 1 1 1 1 
1 1 1 1 1 1 1 1 1 
1 1 1 1 1 1 1 1 1 
1 1 1 1 1 1 1 1 1 
1 1 1 1 1 1 1 1 1 
1 1 1 1 1 1 1 1 1 
1 1 1 1 1 1 1 1 1 
1 1 1 1 1 1 1 1 1 
1 1 1 1 1 1 1 1 1 
1 1 1 1 1 1 1 1 1 
1 1 1 1 1 1 1 1 1 
1 1 1 1 1 1 1 1 1 
1 
NORMALS Normals float
-0.33186 -0.0513479 -0.94193 -0.504211 -0.21551 -0.836258 -0.25488 -0.168091 -0.952251 
0.0732369 0.0403972 -0.996496 -0.497128 -0.237909 -0.834424 -0.965229 0.211597 0.153491 
0.389625 -0.0729706 -0.918078 -0.820577 -0.415142 -0.392823 0.334962 -0.380845 -0.861834 
-0.900776 0.295102 0.318619 -0.770938 0.132437 -0.622989 -0.346086 0.0398074 -0.937358 
-0.801893 0.0111127 -0.597364 -0.526615 0.0483292 -0.848729 -0.510958 -0.00457438 -0.859593 
-0.153513 -0.0854511 -0.984445 -0.88997 0.014317 -0.455793 0.212417 -0.151933 -0.965295 
0.0490584 0.034346 -0.998205 -0.956682 0.276062 -0.0924571 -0.308718 0.308474 -0.899743 
-0.509689 0.189401 -0.839252 -0.0195623 -0.042326 -0.998912 -0.414652 -0.00849046 -0.90994 
-0.149916 0.039464 -0.987911 -0.723045 0.0596175 -0.688223 -0.716736 0.220289 -0.661636 
-0.73653 0.123975 -0.664946 -0.675849 0.0950532 -0.730885 -0.448972 0.0929011 -0.888703 
-0.445499 -0.162021 -0.8805 -0.889155 0.0346557 -0.456292 -0.15363 0.190894 -0.969514 
-0.548888 0.423133 -0.720889 -0.0523849 -0.383904 -0.921886 0.324536 -0.173191 -0.929882 
-0.391875 -0.276731 -0.877413 0.187239 -0.0502637 -0.981028 -0.595263 0.135383 -0.792044 
-0.241063 -0.292263 -0.925457 -0.711281 -0.110266 -0.694205 -0.625639 -0.0496013 -0.778534 
-0.156186 -0.295256 -0.942566 0.187494 -0.250518 -0.949782 -0.941415 0.0153716 -0.336901 
-0.173404 -0.113978 -0.978233 -0.132024 -0.130562 -0.982611 -0.0802239 -0.0836316 -0.993262 
-0.79304 0.198523 -0.575913 0.285345 -0.0360149 -0.957748 -0.896168 0.204094 -0.39399 
0.147186 0.0126553 -0.989028 -0.935639 0.144376 -0.322079 -0.92326 0.274934 -0.268333 
-0.216315 0.0850753 -0.97261 -0.838746 0.120037 -0.531127 -0.920616 0.136969 -0.365659 
-0.0589508 0.0667205 -0.996029 -0.166958 0.0742115 -0.983167 -0.814269 -0.0990835 -0.571969 
-0.503264 -0.060562 -0.862008 -0.107807 0.130496 -0.98557 -0.806253 0.493742 -0.325844 
-0.787891 0.288043 -0.544297 -0.600033 0.242989 -0.762179 -0.525726 0.160452 -0.835384 
-0.711221 0.193722 -0.675749 -0.520103 -0.271081 -0.809943 -0.121757 -0.351328 -0.928301 
-0.779228 -0.204316 -0.592502 -0.973625 0.18024 -0.139888 -0.201953 0.0772269 -0.976346 
-0.635169 -0.108107 -0.76477 0.103673 -0.160762 -0.981533 -0.866962 -0.0528632 -0.495563 
0.214456 -0.173642 -0.961175 0.479253 -0.217583 -0.850279 -0.942249 0.100209 -0.31957 
0.436846 -0.224915 -0.870964 -0.983325 0.144795 -0.110026 -0.907387 -0.0475186 -0.417601 
0.326945 0.0375547 -0.944297 -0.959038 0.202041 -0.198558 0.115498 0.00378963 -0.9933 
-0.859241 0.188777 -0.475466 -0.308421 0.290041 -0.905954 0.231862 0.0243905 -0.972443 
-0.194519 0.291061 -0.936721 -0.839808 0.209467 -0.500845 -0.700105 0.229401 -0.676186 
-0.38787 0.211382 -0.897148 -0.669702 0.327719 -0.666408 -0.685276 0.283838 -0.670696 
-0.628897 0.237562 -0.740306 -0.424028 -0.309531 -0.851111 0.182415 -0.362813 -0.913834 
0.297384 -0.257776 -0.919301 0.595462 -0.317116 -0.738148 -0.861919 0.045017 -0.505043 
-0.919865 -0.019045 -0.391772 -0.982428 0.14688 -0.115159 -0.996791 0.0552706 -0.0579017 
-0.949509 0.149889 -0.275618 -0.971261 0.23064 -0.0587956 0.374972 0.0275734 -0.926626 
-0.981251 0.0103662 -0.192453 -0.908748 0.0870852 -0.408159 0.312419 0.228254 -0.922114 
-0.240688 0.202188 -0.94931 -0.576317 0.330117 -0.747584 -0.888744 0.152145 -0.432419 
-0.501063 0.20021 -0.841933 0.136091 0.260892 -0.955727 -0.827429 0.164287 -0.537002 
-0.385532 0.194338 -0.901997 -0.637052 0.220205 -0.738698 0.266127 -0.344957 -0.9001 
0.683246 -0.093054 -0.724235 0.508404 0.00474133 -0.861105 0.140314 0.240915 -0.96035 
0.422736 0.258245 -0.868679 -0.914142 0.0109835 -0.405245 -0.25675 0.225432 -0.939819 
-0.405271 0.281078 -0.869914 -0.49262 0.219487 -0.842111 -0.639377 0.168658 -0.750168 
-0.465036 0.0789069 -0.881768 -0.837273 -0.317516 -0.445149 0.162601 -0.361335 -0.918149 
-0.0940485 -0.299466 -0.94946 -0.945422 -0.0555716 -0.321074 0.555883 -0.186363 -0.810101 
-0.996615 0.0799233 -0.0192607 0.681779 0.0849347 -0.726611 -0.985363 0.117905 -0.123117 
0.150671 0.14906 -0.977282 0.462972 0.14506 -0.874422 0.169788 0.293362 -0.940803 
0.0599465 0.247249 -0.967096 -0.647935 0.0355276 -0.760866 0.0634381 0.227306 -0.971755 
-0.326044 0.184552 -0.927166 0.254324 -0.458748 -0.851393 -0.197728 -0.314693 -0.928371 
-0.179752 -0.343836 -0.921665 -0.754232 -0.318746 -0.574052 0.401052 -0.424102 -0.81197 
-0.819488 -0.25182 -0.514807 -0.938629 -0.159729 -0.305717 -0.964636 0.223759 0.139317 
-0.976617 0.135895 -0.16659 0.600132 0.143891 -0.786853 -0.889568 0.0877517 -0.448295 
0.171211 0.246608 -0.953872 -0.126914 0.274953 -0.953045 -0.591054 0.239813 -0.770159 
-0.0250954 0.286156 -0.957854 -0.495098 0.253974 -0.830888 -0.436113 0.296981 -0.849475 
0.56998 -0.539369 -0.619842 0.460084 -0.376125 -0.804272 0.476813 -0.716913 -0.508611 
0.519648 -0.273991 -0.809256 -0.715592 -0.0885764 -0.69288 0.596507 -0.544024 -0.590099 
0.162564 -0.490912 -0.855908 -0.513891 -0.652853 -0.556506 -0.985961 -0.120098 -0.116003 
-0.984645 0.138236 0.10661 -0.993468 0.0699754 -0.0901413 -0.991499 -0.0108945 -0.12966 
0.342665 0.247845 -0.906175 0.126874 0.386721 -0.913427 -0.370146 0.233034 -0.89927 
-0.630332 0.330031 -0.702681 -0.509898 0.507859 -0.694322 -0.252502 0.43703 -0.863277 
-0.365644 0.261991 -0.893121 -0.357432 0.417839 -0.835256 -0.140911 -0.517849 -0.843787 
-0.617248 -0.448774 -0.646225 -0.857135 0.0644659 0.511041 -0.933243 -0.20732 0.293387 
-0.0592458 -0.490725 -0.869298 -0.967455 -0.239246 -0.0824145 -0.902056 -0.380548 -0.203663 
-0.953159 -0.219225 -0.208395 -0.986694 0.162098 -0.0126502 0.766178 -0.160462 -0.622273 
-0.998698 0.0212137 0.0463948 0.561399 0.214041 -0.799386 0.420933 0.297762 -0.856827 
0.132795 0.285681 -0.94908 0.14028 0.376364 -0.91579 -0.210254 0.309812 -0.927259 
-0.633358 0.408559 -0.657219 -0.691228 -0.398409 -0.602888 -0.0982042 -0.550974 -0.828724 
-0.445841 -0.49687 -0.744544 0.419818 -0.346937 -0.838682 -0.996634 -0.0819737 0.0002253 
-0.90676 0.06883 -0.415991 -0.847184 0.13745 -0.513211 -0.101813 0.428574 -0.897752 
-0.274141 0.485058 -0.830401 -0.666729 0.46132 -0.585369 -0.453922 -0.597337 -0.661168 
0.248383 -0.46118 -0.851833 0.807459 -0.104556 -0.580584 -0.952893 0.20025 -0.227805 
-0.410866 0.481039 -0.774462 -0.682719 -0.492609 -0.539658 -0.0659132 -0.636827 -0.768184 
0.00862749 -0.599111 -0.800619 0.532433 -0.50302 -0.680798 0.643744 -0.332291 -0.68933 
-0.998443 -0.0264076 -0.049128 0.670035 0.265955 -0.693052 0.275037 0.417781 -0.865918 
-0.0848874 0.429449 -0.899093 -0.178521 0.397506 -0.900066 0.131381 0.503656 -0.853856 
-0.608716 0.318799 -0.72652 -0.782529 0.330029 -0.527947 -0.591991 0.42397 -0.685417 
-0.272566 0.411423 -0.869735 -0.404469 -0.568294 -0.716552 -0.7711 -0.443025 -0.457312 
-0.98146 -0.191129 0.0143756 0.892268 0.0409103 -0.449649 0.250533 0.48455 -0.838119 
-0.817552 0.337202 -0.466801 -0.325503 0.374231 -0.868331 -0.828159 0.277148 -0.487178 
-0.643967 0.333107 -0.688728 -0.343152 -0.508905 -0.78947 -0.243552 -0.598424 -0.763264 
-0.339603 -0.529438 -0.777409 0.223023 -0.548687 -0.805731 0.796681 -0.248078 -0.551141 
0.132537 0.430386 -0.892862 0.0424086 0.415722 -0.908502 -0.340691 0.447807 -0.826679 
-0.174511 0.57421 -0.799893 0.0519365 0.523274 -0.85058 -0.576124 0.472726 -0.666791 
-0.793099 -0.444043 -0.416918 -0.77123 -0.48697 -0.409956 0.240972 -0.573612 -0.782881 
-0.997493 -0.0106655 0.0699557 -0.948575 0.0737896 -0.307831 0.552678 0.434925 -0.710906 
0.351395 0.528077 -0.773082 -0.413933 0.529432 -0.740514 -0.466867 0.435782 -0.7695 
-0.408005 -0.553134 -0.726343 0.128879 -0.645018 -0.753221 0.0519443 -0.537695 -0.841538 
0.130975 -0.542472 -0.829801 -0.953292 -0.256519 -0.159475 0.584283 -0.438148 -0.68311 
0.829193 -0.267334 -0.490888 0.943691 -0.0723635 -0.322817 0.706009 0.283499 -0.648984 
0.162424 0.620593 -0.767127 -0.448042 0.52194 -0.725835 -0.863488 0.218635 -0.454519 
-0.227717 0.405929 -0.88508 -0.317925 0.497694 -0.806985 -0.381739 -0.596091 -0.706364 
-0.0509408 -0.692231 -0.719876 -0.987212 0.108238 0.117032 0.0892533 0.593314 -0.800008 
-0.637959 0.107674 -0.762506 -0.498058 0.478161 -0.723394 -0.472303 0.470324 -0.74547 
-0.389678 -0.633858 -0.668113 -0.755984 -0.555645 -0.346044 -0.577731 -0.46815 -0.668627 
-0.331376 -0.785175 -0.523154 -0.448125 -0.711305 -0.541507 -0.839666 -0.388602 -0.379407 
0.620434 -0.470152 -0.62771 0.872287 0.189272 -0.450879 -0.891843 0.12177 -0.435647 
-0.932619 0.24706 -0.263026 -0.0839785 0.513263 -0.854113 -0.521787 0.491111 -0.69753 
-0.454186 -0.595454 -0.662683 -0.925476 -0.269338 -0.266368 -0.979463 -0.192331 -0.0605032 
0.914216 0.0840704 -0.396412 -0.771344 -0.443267 -0.456666 -0.807776 -0.482577 -0.338552 
-0.96204 -0.0371611 -0.270366 0.906485 0.209262 -0.366734 -0.921268 -0.0511592 0.385549 
-0.977826 -0.0850331 0.191381 -0.974927 -0.169786 0.143841 0.864601 0.318394 -0.388703 
-0.353598 -0.636267 -0.685662 -0.44076 -0.617483 -0.651495 -0.303554 -0.613928 -0.728661 
0.349629 -0.47606 -0.806924 -0.946061 -0.232309 -0.225834 -0.955835 -0.290975 0.0413876 
-0.955547 -0.063285 0.287966 -0.978617 -0.0314882 0.203264 0.708834 0.404638 -0.577773 
0.488245 0.541897 -0.684079 0.05733 0.56143 -0.825536 -0.442362 0.519187 -0.731273 
0.234024 0.602308 -0.763189 -0.817149 0.248962 -0.51989 -0.356633 -0.596389 -0.71912 
0.0661834 -0.601959 -0.795779 0.363318 -0.537941 -0.76067 0.265408 -0.659503 -0.703289 
0.613509 -0.317451 -0.723071 0.442969 -0.476121 -0.759663 -0.864173 -0.37959 -0.330329 
-0.943193 -0.292727 -0.157154 -0.952645 -0.283121 -0.110951 -0.985748 -0.0617959 -0.156468 
-0.994864 0.0699416 0.0731745 0.219691 0.588715 -0.777914 0.156291 0.599625 -0.784871 
-0.233227 -0.609777 -0.75748 -0.28051 -0.549398 -0.787068 -0.884376 -0.312765 -0.346492 
0.713602 -0.46479 -0.524159 -0.989789 -0.0352074 -0.13812 -0.959992 -0.219173 0.174297 
-0.966606 0.0142734 0.255871 -0.958177 0.0343995 -0.284102 0.298117 0.693019 -0.656392 
0.0720762 0.757278 -0.649104 -0.736981 0.200336 -0.645542 -0.0957995 0.601883 -0.792817 
-0.623878 -0.436681 -0.648141 0.285247 -0.64036 -0.713143 -0.996109 0.0156668 -0.08673 
-0.521881 -0.568687 -0.635795 -0.672642 -0.508726 -0.537356 -0.24217 -0.661339 -0.709919 
-0.872248 -0.31687 -0.372528 -0.996677 -0.0681312 0.044653 -0.812076 0.0788732 0.578197 
0.986948 -0.156337 -0.0386172 -0.891586 -0.11897 0.436945 0.482214 0.613545 -0.625326 
-0.851759 -0.11866 -0.510321 -0.0608483 0.477203 -0.876684 -0.800058 0.0874751 -0.593511 
-0.833775 0.275561 -0.47842 -0.675307 0.241467 -0.696889 -0.590522 0.293925 -0.751593 
-0.50989 -0.590195 -0.625845 -0.0523116 -0.685731 -0.725972 0.299301 -0.657732 -0.691236 
-0.973032 0.212668 0.0893355 0.989924 0.089155 -0.110008 -0.931397 -0.055209 -0.359793 
-0.0929322 0.458152 -0.884003 -0.507508 0.466854 -0.724212 -0.135761 0.585078 -0.799533 
-0.356766 -0.591875 -0.722774 -0.445962 -0.564916 -0.694254 -0.0976558 -0.684805 -0.722153 
0.0817195 -0.629314 -0.772843 -0.995491 -0.0876825 -0.0361892 -0.994054 -0.108696 0.00643363 
-0.722941 0.212626 0.657378 -0.707652 -0.0165786 0.706367 0.986492 0.159816 -0.0359435 
-0.949014 -0.0804191 -0.304805 0.269736 0.607076 -0.747463 -0.00349793 0.650932 -0.759128 
-0.822657 -0.289306 -0.489425 0.371032 -0.622847 -0.688765 -0.991288 -0.046829 0.123108 
0.993458 0.109416 -0.0327005 -0.961159 -0.19895 0.191291 0.951995 0.299005 -0.0655902 
0.49669 0.576133 -0.64913 -0.850163 -0.463336 -0.250083 -0.857559 0.298641 -0.418815 
-0.628104 0.416666 -0.657172 -0.677134 0.461488 -0.573166 -0.296537 -0.630911 -0.71695 
-0.646089 -0.488864 -0.586158 0.373042 -0.654387 -0.657737 0.553419 -0.579441 -0.598311 
0.993483 0.113972 -0.00133626 -0.459527 -0.0808141 0.88448 0.990726 -0.127112 -0.0479974 
0.970778 0.209097 0.11776 -0.574272 -0.104213 0.812005 0.935711 0.0218895 0.352088 
0.835258 0.472743 -0.280818 -0.295936 0.717065 -0.631063 -0.560789 0.620367 -0.548325 
-0.0367967 0.741327 -0.670135 0.20915 0.835622 -0.507929 -0.472369 -0.578947 -0.664596 
0.0506932 -0.698043 -0.714259 -0.756724 -0.513451 -0.404645 -0.943189 0.202715 0.26325 
-0.571227 0.277451 0.772477 -0.482012 0.0899919 0.871531 0.954251 0.00323338 0.29899 
0.934154 0.148063 0.324705 0.963924 0.264625 0.0287038 -0.975689 -0.086539 -0.201351 
0.500202 0.742202 -0.446021 -0.409315 0.672927 -0.616142 -0.294253 0.779462 -0.553041 
-0.261053 -0.631408 -0.730188 -0.417082 -0.565903 -0.711194 0.204938 -0.674519 -0.709242 
0.524878 -0.620241 -0.582928 -0.893414 -0.346488 -0.285933 0.987697 -0.0633425 0.142978 
0.905433 -0.0367973 0.422892 0.943588 -0.0605778 0.325534 0.909242 0.0229132 0.415638 
-0.327677 -0.0995087 0.939535 0.918347 -0.00871723 0.39568 0.858372 0.342698 0.38178 
-0.875367 0.359624 -0.323116 -0.0610162 0.847518 -0.527249 0.322992 0.864875 -0.384275 
-0.852408 0.462523 -0.243869 0.167547 -0.697831 -0.696391 0.393122 -0.678903 -0.620117 
-0.923192 -0.235856 -0.30346 0.981854 -0.173538 -0.0764719 0.965384 -0.0752085 0.249756 
0.975952 -0.162184 0.14565 0.905583 0.000502478 0.424168 0.812608 -0.0136726 0.582651 
-0.371808 -0.188099 0.909053 0.784865 -0.0271154 0.619073 0.800692 0.0309652 0.598276 