# vtk DataFile Version 4.2
vtk output
ASCII
DATASET POLYDATA
POINTS 503 float
443.932 160.436 144.17 442.035 162.02 144.137 442.536 163.282 144.154 
446.117 162.408 144.691 439.53 164.967 144.716 443.362 165.133 144.679 
444.258 157.387 145.606 441.735 157.823 145.744 442.029 157.517 145.874 
447.704 157.952 145.628 439.399 159.604 145.64 436.267 163.764 145.821 
437.029 165.646 145.563 437.587 165.674 145.27 436.762 167.069 146.051 
439.878 168.06 145.534 442.689 168.521 145.981 439.761 169.751 146.729 
445.332 155.713 146.839 448.406 155.814 146.838 434.256 164.229 147.239 
435.836 167.804 146.998 442.688 169.948 147.106 447.977 155.066 147.402 
440.929 156.194 147.725 436.527 159.25 147.555 433.708 162.438 147.955 
433.554 165.5 148.107 433.722 166.707 148.377 435.245 168.933 148.508 
437.161 170.234 148.558 441.761 170.53 147.675 443.324 170.804 148.337 
453.531 159.146 147.625 434.022 160.412 148.7 454.204 153.887 149.379 
456.493 154.105 149.989 457.755 155.39 150.053 455.947 162.931 149.604 
454.492 165.543 150.042 432.66 166.382 149.979 433.251 167.59 149.918 
433.668 168.198 149.815 448.73 169.094 149.003 439.88 171.767 149.919 
432.94 160.464 150.405 459.771 159.167 151.195 442.45 171.96 150.205 
442.267 172.153 150.626 445.67 152.437 151.137 459.08 153.687 151.829 
461.174 157.898 152.672 431.922 162.397 151.084 458.386 162.872 151.462 
448.281 170.609 150.975 450.862 150.747 152.555 459.989 153.907 152.621 
436.017 156.646 152.295 433.769 158.835 151.403 434.352 170.04 152.672 
455.607 150.485 153.431 454.155 150.15 153.772 448.103 150.653 153.292 
458.215 151.822 153.07 461.544 156.385 153.542 461.699 159.807 154.118 
457.905 165.263 153.705 431.547 166.429 153.88 459.341 152.078 153.913 
459.618 152.423 153.976 461.102 154.599 153.898 460.851 162.218 154.503 
431.116 165.102 154.262 433.314 169.324 154.533 436.1 171.198 154.077 
442.359 172.565 153.499 459.915 152.441 154.551 460.082 152.633 154.746 
459.402 152.006 154.55 462.037 156.236 155.266 433.461 157.875 154.366 
462.298 159.002 155.888 430.907 165.379 155.789 431.129 165.867 155.235 
431.566 167.138 155.709 431.541 167.15 155.947 431.938 167.659 155.764 
431.655 167.369 155.788 432.452 168.33 155.617 431.576 167.266 155.824 
452.778 169.244 154.865 453.099 148.919 156.529 462.378 157.765 156.364 
462.09 160.524 156.705 430.802 163.792 156.457 456.427 149.78 156.615 
461.781 155.011 155.912 462.395 159.342 157.357 460.635 163.49 157.144 
432.132 167.528 157.47 451.271 170.102 157.125 439.968 172.047 156.695 
430.836 163.048 157.878 459.868 164.522 158.284 431.092 160.938 158.19 
461.943 161.16 159.214 461.335 162.557 159.332 431.342 164.994 159.184 
432.307 166.975 158.925 454.745 168.081 158.943 448.091 171.176 158.841 
449.39 147.911 160.728 457.066 150.023 159.998 459.036 151.418 159.13 
457.341 166.365 159.564 460.939 153.705 160.221 434.536 154.904 160.567 
461.201 162.528 160.692 432.475 165.549 161.219 431.392 160.748 160.684 
461.53 161.433 161.461 431.694 163.015 161.433 460.414 163.081 161.771 
451.868 148.272 162.64 460.632 154.152 161.882 431.555 161.665 161.388 
433.625 166.022 162.09 448.198 170.295 161.939 449.518 147.827 162.294 
454.217 149.243 163.454 460.833 155.93 163.265 432.597 157.585 162.971 
461.296 160.934 162.643 460.414 161.975 163.331 454.974 166.529 163.632 
442.529 170.139 163.019 444.989 147.814 165.955 442.315 148.541 164.806 
461.405 158.408 163.034 460.858 159.09 164.099 461.146 159.062 163.784 
461.241 159.284 163.591 461.137 159.26 163.772 461.107 159.694 163.603 
438.314 150.616 165.391 456.617 151.787 165.741 461.216 159.172 163.703 
434.906 164.223 164.983 436.853 165.988 165.108 443.016 148.042 166.997 
450.395 149.014 166.43 435.38 161.352 167.483 456.649 163.318 166.463 
454.712 165.224 166.083 441.928 167.737 166.106 442.849 148.076 168.631 
445.759 148.008 167.647 447.888 148.675 167.832 435.42 153.923 167.747 
457.463 160.862 167.421 454.987 152.775 168.472 434.927 154.923 168.129 
434.793 156.528 168.788 456.844 156.685 168.773 442.107 148.331 170.473 
439.475 149.514 170.094 453.156 151.792 168.864 435.733 154.07 169.494 
434.89 155.525 168.714 456.306 156.21 169.231 456.087 156.588 169.482 
455.891 159.027 169.471 439.171 161.955 170.11 452.42 163.429 169.526 
449.796 165.762 168.582 447.635 150.592 171.565 435.491 155.191 170.242 
454.349 155.153 170.406 455.294 155.209 169.769 435.411 155.563 170.179 
454.873 155.684 170.209 444.043 164.375 170.103 443.836 148.474 171.132 
440.421 148.976 171.403 439.628 149.64 171.735 437.811 151.647 171.378 
436.716 153.287 171.27 454.958 155.167 170.081 455.623 155.961 169.816 
441.28 148.775 172.502 447.704 152.758 173.202 450.902 154.78 172.093 
435.776 155.599 171.022 436.941 156.981 171.992 449.385 160.562 172.305 
446.344 151.008 173.112 437.077 154.425 172.682 437.739 156.266 173.116 
443.829 158.857 173.914 446.302 159.199 173.557 441.578 149.044 173.878 
442.146 149.197 174.342 439.913 150.256 174.192 439.413 151.277 174.668 
446.045 152.199 174.203 437.752 154.11 173.477 437.462 155.16 173.14 
446.191 156.403 174.452 442.594 149.188 174.188 440.902 149.755 174.791 
441.592 149.627 175.034 442.771 149.72 175.005 438.646 153.74 174.495 
439.494 156.409 174.455 442.067 149.701 175.241 444.683 153.786 175.616 
438.905 155 174.621 443.239 155.448 175.885 440.017 155.609 175.196 
441.863 156.364 175.38 442.828 155.5 175.962 441.657 150.113 175.762 
441.988 150.021 175.695 442.862 150.709 176.159 440.627 152.377 176.708 
441.348 153.788 176.992 441.876 151.389 176.998 442.448 151.503 177.027 
442.273 151.606 177.152 442.448 151.72 177.153 442.956 152.501 176.993 
442.596 152.46 177.198 441.202 152.58 177.187 441.082 153.091 177.161 
441.243 153.185 177.245 441.615 153.495 177.21 442.04 153.502 177.199 
442.033 152.008 177.299 441.549 152.524 177.305 442.268 151.632 279.038 
442.22 151.433 279.121 442.373 151.469 279.103 442.008 152.015 279.098 
442.42 152.058 279.058 442.195 152.498 279.099 442.325 152.723 279.22 
442.115 150.906 279.433 442.043 150.627 279.633 441.851 150.918 279.58 
442.359 151.127 279.283 442.639 151.107 279.343 442.788 150.955 279.491 
442.014 151.298 279.29 442.597 151.451 279.216 442.562 152.575 279.238 
442.081 153.155 279.445 442.378 150.251 279.826 443.21 151.86 279.683 
443.199 152.391 279.69 441.155 153.082 279.817 443.059 152.825 279.674 
442.147 153.668 279.674 442.043 149.823 280.301 442.195 149.726 280.326 
442.888 150.027 280.27 443.714 151.06 280.517 440.306 153.217 280.428 
440.608 154.087 280.395 440.766 155.193 280.816 442.481 149.38 280.892 
442.503 149.173 281.354 442.33 149.272 281.086 442.131 149.43 280.885 
443.119 150.128 280.427 444.426 153.389 280.826 439.942 155.16 281.155 
441.912 155.935 281.009 442.296 149.051 281.858 442.661 149.042 281.801 
443.12 149.237 281.709 439.743 151.445 281.55 438.771 154.552 282.088 
444.299 156.289 281.54 442.977 149.055 282.024 443.909 149.503 282.379 
445.268 150.956 282.347 447.014 154.18 282.548 438.355 153.363 282.608 
442.692 157.589 282.067 442.404 148.684 283.402 438.265 151.903 283.645 
438.539 152.384 282.703 447.559 155.534 282.725 437.572 155.309 283.709 
449.588 156.869 283.567 448.446 157.864 283.252 441.835 159.483 283.479 
447.67 160.058 283.726 446.777 150.286 284.577 447.578 152.704 283.378 
449.934 155.122 283.884 437.093 156.493 284.515 452.577 160.04 285.295 
441.131 148.661 285.367 438.155 150.967 285.697 447.403 150.877 284.543 
451.366 153.399 285.352 436.539 156.172 285.464 454.452 157.814 285.919 
438.982 159.181 284.648 453.865 158.93 285.661 454.009 161.243 286.451 
446.703 163.089 285.352 445.662 148.663 286.31 452.354 151.59 287.123 
455.864 158.602 286.95 451.855 163.492 286.865 442.534 148.126 287.238 
440.005 149.082 287.139 435.678 154.6 287.469 435.437 157.876 287.693 
437.267 160.209 286.862 443.958 147.998 287.659 451.046 150.112 288.066 
457.165 153.766 289.163 435.022 155.021 288.753 434.987 156.694 288.226 
447.889 166.515 288.559 443.243 147.904 288.87 444.805 147.916 288.478 
441.598 148.294 289.155 434.255 155.96 289.904 442.153 148.147 289.905 
438.333 150.409 289.952 456.11 151.723 289.866 436.252 152.535 290.137 
434.105 161.172 290.774 456.445 163.236 289.695 447.141 168.483 290.997 
447 146.009 291.017 447 146.009 291.017 447 146.009 291.017 
447 146.009 291.017 447 146.009 291.017 452.267 148.846 291.319 
460.156 155.955 291.551 460.384 159.144 291.514 450.205 167.975 291.308 
441.175 168.641 291.986 447 146.009 291.018 456.13 150.239 292.125 
458.569 152.437 292.291 461.477 157.072 293.15 461.819 159.194 293.648 
461.814 159.362 293.745 461.87 159.224 293.769 459.494 162.661 292.766 
448.105 169.117 292.267 449.532 147.743 293.27 446.238 147.675 292.272 
434.158 155.182 293.597 460.88 155.008 293.094 461.707 159.725 293.968 
460.793 161.751 293.778 450.659 168.882 293.38 436.72 152.317 293.612 
459.481 152.408 294.042 462.179 158.844 295.228 432.097 162.3 294.521 
442.878 170.491 294.379 448.326 170.31 295.016 445.857 147.953 294.523 
455.517 149.157 294.301 461.214 153.976 295.394 431.632 160.065 295.599 
459.371 164.044 294.78 433.621 165.75 294.756 433.242 165.802 295.234 
461.752 154.97 295.912 431.994 164.742 296.672 450.63 169.704 295.654 
438.677 170.539 296.684 442.884 171.377 296.544 455.024 148.795 296.61 
460.456 152.67 297.2 434.752 155.07 296.931 432.18 158.307 296.91 
462.459 157.931 297.164 434.315 168.297 297.227 450.729 147.951 297.266 
437.323 153.261 297.875 461.884 155.15 297.604 462.325 156.654 297.725 
432.527 157.762 297.661 431.267 161.109 297.527 431.813 165.525 298.118 
439.512 171.608 298.931 461.241 153.774 298.473 456.671 166.757 298.446 
432.826 167.924 299.348 441.018 172.054 299.607 449.127 148.577 299.372 
447.13 149.026 299.576 432.408 158.435 299.768 462.388 159.158 299.53 
431.401 160.579 299.499 431.688 159.91 299.951 431.103 162.591 299.683 
[...]
POINT_DATA 503
SCALARS scalars float
LOOKUP_TABLE default
1 1 1 1 1 1 1 1 1 
1 1 1 1 1 1 1 1 1 
1 1 1 1 1 1 1 1 1 
1 1 1 1 1 1 1 1 1 
1 1 1 1 1 1 1 1 1 
1 1 1 1 1 1 1 1 1 
1 1 1 1 1 1 1 1 1 
1 1 1 1 1 1 1 1 1 
1 1 1 1 1 1 1 1 1 
1 1 1 1 1 1 1 1 1 
1 1 1 1 1 1 1 1 1 
1 1 1 1 1 1 1 1 1 
1 1 1 1 1 1 1 1 1 
1 1 1 1 1 1 1 1 1 
1 1 1 1 1 1 1 1 1 
1 1 1 1 1 1 1 1 1 
1 1 1 1 1 1 1 1 1 
1 1 1 1 1 1 1 1 1 
1 1 1 1 1 1 1 1 1 
1 1 1 1 1 1 1 1 1 
1 1 1 1 1 1 1 1 1 
1 1 1 1 1 1 1 1 1 
1 1 1 1 1 1 1 1 1 
1 1 1 1 1 1 1 1 1 
1 1 1 1 1 1 1 1 1 
1 1 1 1 1 1 1 1 1 
1 1 1 1 1 1 1 1 1 
1 1 1 1 1 1 1 1 1 
1 1 1 1 1 1 1 1 1 
1 1 1 1 1 1 1 1 1 
1 1 1 1 1 1 1 1 1 
1 1 1 1 1 1 1 1 1 
1 1 1 1 1 1 1 1 1 
1 1 1 1 1 1 1 1 1 
1 1 1 1 1 1 1 1 1 
1 1 1 1 1 1 1 1 1 
1 1 1 1 1 1 1 1 1 
1 1 1 1 1 1 1 1 1 
1 1 1 1 1 1 1 1 1 
1 1 1 1 1 1 1 1 1 
1 1 1 1 1 1 1 1 1 
1 1 1 1 1 1 1 1 1 
1 1 1 1 1 1 1 1 1 
1 1 1 1 1 1 1 1 1 
1 1 1 1 1 1 1 1 1 
1 1 1 1 1 1 1 1 1 
1 1 1 1 1 1 1 1 1 
1 1 1 1 1 1 1 1 1 
1 1 1 1 1 1 1 1 1 
1 1 1 1 1 1 1 1 1 
1 1 1 1 1 1 1 1 1 
1 1 1 1 1 1 1 1 1 
1 1 1 1 1 1 1 1 1 
1 1 1 1 1 1 1 1 1 
1 1 1 1 1 1 1 1 1 
1 1 1 1 1 1 1 1 
NORMALS Normals float
0.0446335 -0.192456 -0.98029 -0.211625 -0.155542 -0.964895 -0.0581438 0.130585 -0.989731 
0.346913 0.186096 -0.919249 -0.182539 0.0398575 -0.98239 0.171904 0.254203 -0.951751 
-0.0612147 -0.581291 -0.81139 -0.35449 -0.500717 -0.789696 -0.181039 -0.589983 -0.786858 
0.167953 -0.368313 -0.914405 -0.370528 -0.508136 -0.7775 -0.423052 -0.121985 -0.897857 
-0.466666 0.118982 -0.876394 -0.365878 0.111162 -0.924 -0.416938 0.393073 -0.819546 
-0.213195 0.439796 -0.872426 0.126507 0.474851 -0.870926 -0.123502 0.708547 -0.694772 
-0.068778 -0.677752 -0.732067 0.0652655 -0.539256 -0.839609 -0.705289 0.0349765 -0.708056 
-0.523431 0.455814 -0.719898 0.135473 0.733622 -0.665917 -0.00871147 -0.675594 -0.737222 
-0.333884 -0.714037 -0.615364 -0.474286 -0.542991 -0.692975 -0.685644 -0.222736 -0.693024 
-0.74382 0.176842 -0.644561 -0.731524 0.382177 -0.564636 -0.586846 0.638747 -0.497609 
-0.378287 0.72185 -0.579509 0.0220049 0.780347 -0.62496 0.458834 0.80201 -0.382428 
0.405935 0.0220632 -0.913636 -0.674089 -0.510153 -0.53418 0.151294 -0.569656 -0.807838 
0.344312 -0.525848 -0.777774 0.459995 -0.223961 -0.859212 0.49714 0.370523 -0.784579 
0.541963 0.633215 -0.552554 -0.882151 0.312991 -0.351918 -0.838804 0.396849 -0.372719 
-0.74682 0.56437 -0.351775 0.376602 0.586335 -0.717205 -0.191244 0.933996 -0.301789 
-0.827999 -0.455351 -0.327222 0.675646 0.124658 -0.726611 0.250093 0.879956 -0.403894 
0.311801 0.915168 -0.255438 -0.277225 -0.869645 -0.40849 0.607952 -0.373934 -0.700405 
0.842029 -0.0214457 -0.539005 -0.92731 -0.136241 -0.348617 0.647094 0.465003 -0.604186 
0.383043 0.87726 -0.289295 -0.0450531 -0.846374 -0.53068 0.761495 -0.335104 -0.554825 
-0.492197 -0.766188 -0.413156 -0.762688 -0.583556 -0.278873 -0.638762 0.733628 -0.231891 
0.246392 -0.809062 -0.533582 0.114439 -0.91335 -0.390763 -0.174934 -0.832179 -0.52619 
0.404058 -0.727762 -0.554166 0.875965 -0.218489 -0.430055 0.897802 0.182568 -0.400774 
0.626422 0.714124 -0.312445 -0.919819 0.299984 -0.25287 0.587477 -0.740825 -0.325653 
0.743422 -0.554578 -0.373854 0.844762 -0.253908 -0.471071 0.828671 0.434306 -0.353104 
-0.958478 0.186454 -0.215766 -0.637493 0.7622 0.112487 -0.429117 0.897498 0.10176 
0.0852906 0.996332 0.00699141 0.748949 -0.634925 -0.189593 0.792487 -0.605432 -0.0735963 
0.651888 -0.757295 0.0393326 0.964404 -0.090074 -0.248619 -0.669062 -0.719215 -0.187314 
0.971022 0.138644 -0.194662 -0.973507 0.228656 1.9147e-05 -0.951643 0.189503 -0.241792 
-0.857954 0.455662 -0.237248 -0.853972 0.485148 0.188051 -0.763126 0.645481 -0.0314968 
-0.757584 0.647323 -0.083897 -0.643973 0.759176 0.0946086 -0.882905 0.467874 -0.0396494 
0.5152 0.835062 -0.192978 0.125228 -0.968206 -0.216551 0.998316 -0.0579214 -0.0032212 
0.952079 0.287147 -0.105321 -0.997933 0.0388117 -0.0512233 0.398021 -0.903371 -0.159689 
0.914397 -0.398091 0.0735019 0.99394 0.0356294 0.103992 0.798198 0.596797 -0.0819371 
-0.810846 0.530776 0.246588 0.408222 0.906489 0.107856 -0.248559 0.947167 0.202716 
-0.985495 0.000818302 0.169703 0.696745 0.717314 0.00253083 -0.957633 -0.287651 -0.0139787 
0.95491 0.294261 0.0394623 0.868486 0.494965 0.0272252 -0.945404 0.210972 0.248399 
-0.6344 0.66196 0.39918 0.451614 0.882339 0.132374 0.19035 0.965526 0.177556 
-0.0375466 -0.979832 -0.196263 0.436227 -0.895472 0.0885205 0.680003 -0.72883 0.0800104 
0.588158 0.770041 0.247196 0.863007 -0.478282 0.162681 -0.727879 -0.672081 -0.13601 
0.814752 0.532811 0.228675 -0.758227 0.42405 0.495252 -0.978758 -0.1425 0.147402 
0.942928 0.269003 0.196275 -0.859813 0.25247 0.443826 0.713688 0.655485 0.246959 
0.283402 -0.946003 0.157356 0.844376 -0.46424 0.267413 -0.919408 0.080382 0.385004 
-0.518628 0.703368 0.486106 0.292586 0.883448 0.36594 0.0802933 -0.99515 0.0568352 
0.455505 -0.832947 0.31419 0.833794 -0.281767 0.474758 -0.913173 -0.386582 0.129107 
0.899322 0.281535 0.3346 0.68107 0.487596 0.546254 0.434642 0.822779 0.366225 
-0.125331 0.893838 0.430519 0.0108351 -0.999838 -0.0144071 -0.349221 -0.918967 -0.183152 
0.955357 -0.0865531 0.282493 0.747304 0.0871323 0.658744 0.758895 -0.132383 0.637615 
0.930395 0.241074 0.276131 0.749837 0.210912 0.627105 0.849662 0.276616 0.448953 
-0.588134 -0.797123 -0.136726 0.65285 -0.570649 0.498143 0.864065 0.0576873 0.500064 
-0.567405 0.457923 0.684367 -0.420886 0.619103 0.662998 -0.195906 -0.980571 -0.0100292 
0.321905 -0.888138 0.328006 -0.7369 0.325061 0.592718 0.615671 0.550462 0.563862 
0.513142 0.69344 0.505793 -0.239458 0.664658 0.707736 -0.15161 -0.981692 0.115309 
0.112336 -0.974809 0.192685 0.283151 -0.905191 0.316947 -0.807913 -0.561966 0.177399 
0.664314 0.309786 0.680235 0.546602 -0.517117 0.658647 -0.903476 -0.341799 0.258659 
-0.926323 0.00945189 0.376612 0.765395 -0.200222 0.611622 -0.273492 -0.961708 -0.0178717 
-0.65206 -0.757547 0.0306832 0.41994 -0.708079 0.567692 -0.861682 -0.440056 0.252696 
-0.906725 -0.308502 0.287534 0.745925 -0.194233 0.637079 0.717149 -0.11717 0.687 
0.532944 0.134999 0.835312 -0.415146 0.549678 0.72492 0.434281 0.516265 0.738153 
0.222025 0.786495 0.576307 0.473652 -0.657067 0.586444 -0.902164 -0.291193 0.318286 
0.4104 -0.407108 0.815987 0.662702 -0.475436 0.578608 -0.941401 -0.0198427 0.336706 
0.480135 -0.0573927 0.875315 -0.132921 0.605926 0.784338 0.218978 -0.927691 0.302386 
-0.569246 -0.801282 -0.184136 -0.701368 -0.702629 0.119982 -0.775405 -0.567093 0.277763 
-0.833034 -0.453228 0.317235 0.503746 -0.566091 0.652519 0.613283 -0.14668 0.776124 
-0.405041 -0.886362 0.224286 0.564628 -0.319859 0.760845 0.465749 -0.156266 0.87101 
-0.868045 -0.11362 0.483309 -0.668895 0.370336 0.64454 0.271837 0.378438 0.88481 
0.47803 -0.641903 0.59954 -0.823619 -0.0302476 0.566336 -0.728995 0.253543 0.635832 
-0.0783836 0.523957 0.848131 0.221537 0.363444 0.904892 -0.175348 -0.942907 0.283159 
-0.0358054 -0.894927 0.444774 -0.686664 -0.670993 0.279752 -0.677022 -0.495835 0.543865 
0.387047 -0.490834 0.780562 -0.810406 -0.202887 0.549617 -0.731504 0.127788 0.669755 
0.352233 0.240731 0.904423 0.26017 -0.892733 0.367886 -0.43038 -0.737927 0.519844 
-0.122443 -0.875798 0.466889 0.266033 -0.825555 0.49768 -0.701477 -0.0204351 0.712399 
-0.522612 0.414139 0.745228 0.0629267 -0.890377 0.450854 0.516122 -0.115835 0.848646 
-0.657661 0.206987 0.724319 0.248716 0.406193 0.879288 -0.50517 0.371573 0.778933 
-0.0205431 0.590667 0.806654 0.220231 0.415473 0.882542 -0.276377 -0.667101 0.691804 
-0.0234216 -0.775293 0.631167 0.359617 -0.599721 0.71485 -0.672319 -0.178192 0.718494 
-0.291488 0.494254 0.818992 -0.117658 -0.609925 0.783676 0.474656 -0.512378 0.715661 
-0.0239209 -0.475156 0.879577 0.405615 -0.279922 0.870127 0.611132 -0.0733833 0.78812 
0.2806 0.0228946 0.959552 -0.462092 -0.385044 0.798882 -0.611969 0.15415 0.775713 
-0.166241 0.143488 0.97559 -0.0788319 0.379826 0.921693 0.185267 0.34426 0.920413 
-0.0180785 -0.172066 0.984919 -0.168815 -0.0804494 0.982359 -0.0613232 -0.135421 -0.988889 
-0.214552 -0.415335 -0.884005 0.210685 -0.352071 -0.911953 -0.572318 -0.0818527 -0.815936 
0.435247 0.0533571 -0.898728 -0.0692181 0.260234 -0.963061 0.243597 0.475415 -0.845364 
-0.277497 -0.466395 -0.839924 -0.265952 -0.649589 -0.712252 -0.738757 -0.423074 -0.524639 
0.0446171 -0.514017 -0.856619 0.296073 -0.407594 -0.863833 0.436188 -0.454016 -0.776923 
-0.470036 -0.334784 -0.816692 0.518946 -0.19893 -0.831337 0.400998 0.340201 -0.850567 
-0.0452281 0.477102 -0.877683 -0.15256 -0.703634 -0.693992 0.71274 -0.0621382 -0.69867 
0.768252 0.132393 -0.626308 -0.508149 0.161901 -0.845915 0.699774 0.21425 -0.681478 
0.0772623 0.44109 -0.894131 -0.584739 -0.600188 -0.545761 -0.0571796 -0.784749 -0.617171 
0.434948 -0.660123 -0.61242 0.80197 -0.244137 -0.545199 -0.676226 0.0618215 -0.734095 
-0.445109 0.343089 -0.827144 -0.406477 0.458031 -0.790559 0.236125 -0.842302 -0.484533 
0.211292 -0.900136 -0.380935 -0.133612 -0.912757 -0.386035 -0.583667 -0.74151 -0.330901 
0.632064 -0.606637 -0.482168 0.558827 0.0966975 -0.823628 -0.559788 0.311283 -0.767945 
-0.078032 0.499031 -0.863064 -0.248698 -0.950698 -0.185264 0.134981 -0.961796 -0.238178 
0.505469 -0.757633 -0.412909 -0.719435 -0.34771 -0.601258 -0.703208 0.0602298 -0.708429 
0.28398 0.365741 -0.886335 0.268352 -0.947398 -0.174426 0.539386 -0.757374 -0.368032 
0.633478 -0.422506 -0.648223 0.53655 -0.0959023 -0.838402 -0.795491 -0.116633 -0.594635 
-0.141511 0.590401 -0.794608 -0.0536063 -0.978946 -0.196955 -0.85209 -0.352836 -0.386586 
-0.794286 -0.450489 -0.40764 0.383623 0.0100212 -0.923436 -0.835009 0.0248178 -0.549676 
0.388442 0.0990082 -0.916139 0.292452 0.118338 -0.94893 -0.164802 0.670628 -0.723256 
0.23028 0.405624 -0.884556 0.547151 -0.647718 -0.530177 0.56062 -0.356064 -0.747612 
0.443209 -0.180588 -0.87804 -0.746822 0.279633 -0.603376 0.355365 0.18375 -0.916489 
-0.357162 -0.915071 -0.187299 -0.712682 -0.673104 -0.197523 0.516982 -0.581977 -0.627721 
0.494376 -0.431408 -0.754639 -0.870828 0.0478115 -0.489257 0.511925 -0.0603141 -0.85691 
-0.439251 0.543441 -0.715354 0.454874 0.109054 -0.883854 0.543784 0.398521 -0.738566 
0.0550851 0.600928 -0.797403 0.383993 -0.862024 -0.330852 0.392708 -0.606275 -0.691528 
0.651929 -0.0511898 -0.75655 0.326822 0.59339 -0.735578 -0.206195 -0.97503 -0.0824622 
-0.57888 -0.813901 -0.0496207 -0.872691 -0.146423 -0.465801 -0.845779 0.134306 -0.516352 
-0.588366 0.56287 -0.58052 -0.0247988 -0.985883 -0.165591 0.322842 -0.801252 -0.503754 
0.631688 -0.359368 -0.686896 -0.847036 -0.46306 -0.260971 -0.882982 -0.0275606 -0.468596 
0.0491659 0.719387 -0.692868 -0.109428 -0.993983 -0.00489642 0.0968598 -0.993981 -0.0511844 
-0.335587 -0.942008 -0.00115943 -0.934536 -0.220587 -0.279257 -0.272132 -0.948527 0.161989 
-0.63651 -0.771064 -0.0177262 0.57363 -0.58522 -0.573119 -0.762691 -0.633219 -0.131667 
-0.576837 0.523097 -0.627399 0.551885 0.60525 -0.573668 0.120089 0.82004 -0.559565 
0 -0.970143 -0.242536 0 -1 0 -0.707107 -0.707107 0 
0.707107 -0.707107 0 0 1 0 0.266934 -0.932166 -0.244567 
0.751741 -0.285473 -0.594466 0.762344 0.179956 -0.621649 0.352877 0.764079 -0.540056 
-0.32393 0.753778 -0.571742 0 -0.970143 0.242536 0.502325 -0.774429 -0.384615 
0.678893 -0.600548 -0.422429 0.910557 -0.143647 -0.387623 0.812986 0.148402 -0.563055 
0.675992 0.456586 -0.578415 0.953785 0.161313 -0.253521 0.666266 0.538124 -0.516247 
0.205805 0.869599 -0.448822 0.106289 -0.985501 -0.132248 0.0857008 -0.99161 -0.0967727 
-0.791118 -0.611429 0.0169162 0.849573 -0.320221 -0.419147 0.805394 0.428156 -0.409905 
0.823217 0.472613 -0.314564 0.450012 0.810469 -0.375005 -0.577383 -0.789394 0.20853 
0.670169 -0.70603 -0.228901 0.984432 0.0689366 -0.161685 -0.899733 0.195418 -0.390246 
-0.0764708 0.871706 -0.484026 0.214713 0.939646 -0.266391 -0.208561 -0.95928 0.190484 
0.520971 -0.837572 -0.164509 0.833063 -0.515405 -0.200907 -0.962432 -0.126995 -0.239993 
0.666222 0.705403 -0.241982 -0.603624 0.47615 -0.639467 -0.744994 0.447392 -0.494798 
0.933948 -0.333541 -0.128421 -0.870601 0.318714 -0.374801 0.416037 0.871273 -0.260379 
-0.328703 0.828495 -0.453377 -0.0444545 0.943983 -0.326986 0.318786 -0.947079 0.0376256 
0.773784 -0.633263 -0.0153673 -0.712306 -0.691073 0.122629 -0.884977 -0.465562 -0.00824244 
0.98667 -0.0415298 -0.157346 -0.522577 0.737583 -0.42765 0.0638761 -0.990933 0.118204 
-0.573124 -0.774934 0.266469 0.941771 -0.335397 0.023998 0.976638 -0.211585 0.0375591 
-0.812868 -0.579647 0.0570516 -0.991234 -0.00830007 -0.131859 -0.890539 0.372276 -0.261439 
-0.310473 0.924242 -0.222224 0.858787 -0.510103 0.0477594 0.576639 0.815697 0.046103 
-0.773643 0.612841 -0.160939 -0.0804154 0.986285 -0.144139 -0.0406303 -0.932084 0.359955 
-0.328608 -0.882958 0.335264 -0.791858 -0.590117 0.157236 0.976364 -0.0179444 0.215386 
-0.951304 -0.301779 0.062851 -0.940742 -0.289872 0.176007 -0.991495 -0.0863146 0.0973995 
-0.999352 0.0119404 0.0339657 -0.946687 0.317944 -0.0519202 0.113443 0.985215 -0.128384 
-0.841857 0.539487 -0.0151739 0.488519 0.871842 -0.0352297 0.326219 0.94529 -0.00269727 
0.416753 -0.864408 0.281274 0.861257 -0.454216 0.22787 0.866305 0.4973 0.0470003 
0.541362 0.805303 0.241689 -0.640446 0.767936 -0.0101079 0.219725 -0.915426 0.337217 
0.601899 -0.786178 0.140152 0.894845 0.263578 0.360248 0.705448 0.550195 0.446798 
-0.240951 0.961342 0.133279 -0.40969 0.911232 -0.0425555 0.112496 -0.845671 0.521714 
0.693017 -0.579462 0.428894 -0.986344 0.111663 0.121069 0.6707 0.653066 0.351663 
-0.635321 0.698551 0.329232 -0.43 0.881208 0.196397 -0.477815 0.861959 0.169468 
-0.146989 0.98846 -0.0366189 -0.195829 -0.837933 0.509429 -0.653226 -0.669834 0.353012 
-0.916799 -0.354468 0.183934 0.805686 0.105945 0.582791 0.590955 0.544933 0.594828 
-0.818731 0.562031 0.117475 0.501389 0.819962 0.276173 -0.616878 0.746045 0.250756 
0.358906 0.889686 0.282215 -0.479713 0.794424 0.372513 0.158265 0.951315 0.264484 
-0.158476 0.978005 0.135613 0.364424 -0.741169 0.563794 0.576453 -0.482908 0.659168 
-0.437914 -0.76874 0.466122 0.774513 -0.247776 0.58201 0.66327 0.330351 0.671522 
-0.951808 -0.182754 0.246297 0.466074 0.760979 0.451316 -0.165315 0.961401 0.219953 
0.0733675 -0.750049 0.657301 0.207999 -0.712897 0.669713 -0.836359 -0.404049 0.37047 
-0.818712 0.465324 0.336428 0.184335 -0.528936 0.8284 0.39313 -0.384438 0.835258 
-0.495136 -0.774295 0.394091 -0.739612 -0.476055 0.475758 0.475809 0.533836 0.699017 
-0.325306 0.860732 0.391556 0.57429 -0.0725222 0.815433 0.454699 0.0823755 0.886828 
-0.678928 -0.299087 0.670525 0.472754 0.207224 0.856482 -0.906848 -0.0999575 0.409433 
-0.718071 0.340972 0.606723 0.341617 0.725569 0.597367 -0.207786 -0.748727 0.629471 
-0.111747 -0.733597 0.670335 0.295349 -0.477877 0.827286 0.322252 -0.254033 0.911933 
-0.510112 -0.533671 0.674523 0.35486 0.108541 0.928598 -0.720873 0.0603168 0.690437 
-0.549316 0.651241 0.523581 -0.277553 0.753552 0.595923 0.0453989 0.75364 0.655718 
0.252386 -0.459551 0.851536 -0.402268 -0.618227 0.67526 -0.450588 -0.482813 0.750908 
0.385918 -0.14119 0.911665 -0.46417 -0.00773554 0.885712 -0.408059 0.355961 0.840702 
-0.0881395 0.592618 0.800647 0.162313 0.655492 0.737554 -0.201727 0.693313 0.691826 
0.216819 -0.20516 0.95441 -0.438873 -0.509914 0.73985 -0.456012 -0.183663 0.870816 
0.35092 0.439557 0.826828 -0.260964 0.228826 0.937836 -0.287399 -0.258659 0.922224 
-0.0258121 0.229684 0.972923 0.000843066 -0.444896 0.895582 0.112511 -0.129638 0.985157 
-0.133445 -0.0758605 0.988149 0 0.707107 -0.707107 -0.242536 0.970143 0 
0.242536 0.970143 0 0 0.707107 0.707107 
