# vtk DataFile Version 4.2
vtk output
ASCII
DATASET POLYDATA
POINTS 1986 float
325.314 140.529 21.146 318.541 142.084 21.2893 320.896 141.88 21.1617 
324.169 142.379 20.5133 327.5 141.099 20.4036 313.411 144.138 20.7554 
327.861 143.377 19.9895 310.734 144.959 20.7145 315.384 145.264 20.2381 
311.32 146.034 20.3808 330.527 146.037 19.9708 338.734 145.576 21.0692 
338.932 145.376 21.06 338.63 145.86 21.3357 331.379 148.94 20.6795 
332.798 148.411 20.6899 333.848 147.803 20.6256 333.378 148.596 20.89 
323.889 150.906 20.5355 332.343 149.423 21.1682 332.899 149.287 21.2612 
331.845 149.746 21.3693 315.078 153.495 20.8002 335.135 134.064 22.1246 
333.792 136.082 21.4474 332.253 136.686 21.7058 337.141 134.955 21.1634 
342.803 136.311 21.1989 326.345 139.689 21.353 326.252 139.678 21.4298 
329.295 138.554 21.5141 325.649 140.115 21.3638 329.046 140.049 20.5952 
319.28 141.814 21.5006 312.831 143.035 21.7004 314.29 142.941 21.457 
343.244 139.695 21.3687 311.655 143.426 21.4648 313.238 143.328 21.27 
343.876 140.248 21.7528 303.753 144.257 21.6125 339.598 144.16 20.9251 
340.828 143.29 21.243 300.813 146.698 21.0283 338.877 144.935 20.9 
340.01 144.279 21.1812 341.675 143.151 21.9149 340.273 144.528 21.6401 
340.721 144.115 21.814 339.831 145.008 21.6624 338.1 146.231 21.6011 
338.927 145.735 21.549 333.813 148.632 21.0861 335.784 147.846 21.723 
313.555 151.182 20.2652 332.874 149.416 21.4637 334.39 148.613 21.4867 
324.381 151.904 21.0364 326.841 151.251 21.1314 329.327 150.463 21.2413 
306.45 153.618 20.8385 324.851 152.15 21.3116 325.58 152.039 21.4496 
327.451 151.354 21.3968 329.56 150.645 21.5443 318.282 153.614 21.1841 
322.076 153.105 21.4683 327.69 151.483 21.6629 322.67 153.233 21.8114 
324.923 152.544 21.9023 306.573 155.657 21.3853 307.868 156.053 21.7354 
311.294 155.476 21.7747 311.81 155.651 22.0241 339.747 128.483 23.305 
331.915 136.76 22.04 326.321 139.641 21.5329 346.56 137.015 22.2883 
324.239 140.755 21.7843 323.603 141.005 21.6439 347.456 137.34 22.9021 
317.876 142.035 21.679 320.51 141.656 21.9005 303.371 143.423 22.6024 
308.33 143.121 22.2391 314.88 142.607 22.004 346.081 138.911 22.6369 
309.944 143.161 22.1984 344.288 140.287 22.0124 345.355 139.817 22.607 
298.106 144.273 22.1321 343.426 141.466 22.2198 344.105 141.02 22.5632 
341.708 143.161 22.2362 339.343 145.41 21.9297 335.272 148.164 21.9626 
331.755 149.905 21.9559 331.503 149.923 22.0935 330.108 150.48 21.6898 
330.756 150.231 21.8898 328.177 151.328 21.7882 328.708 151.109 21.928 
323.768 152.934 22.2001 325.511 152.343 22.0647 320.428 153.783 22.0245 
321.878 153.487 22.2336 322.804 153.26 22.0481 318.139 154.34 22.2319 
322.262 153.428 22.1033 312.679 155.696 22.3898 313.945 155.337 22.1214 
297.421 157.715 21.805 305.329 157.243 22.0749 306.904 157.031 22.2944 
310.763 156.14 22.6757 303.564 158.448 22.6918 296.782 160.566 22.8868 
299.445 159.8 22.8276 300.656 159.675 23.0409 290.778 161.847 23.0742 
293.212 161.984 23.3055 290.669 162.798 23.6209 291.341 162.729 23.6218 
342.208 124.896 24.0317 340.683 126.766 23.9796 340.457 127.589 23.5233 
337.33 130.892 23.189 337.766 130.431 23.3659 337.096 131.186 23.186 
349.911 129.498 23.3442 336.282 132.412 23.0924 350.98 133.115 23.6267 
350.885 133.62 23.6808 351.027 133.838 23.8552 349.675 134.878 23.3781 
350.81 134.301 23.9376 350.512 134.721 23.9307 348.506 136.562 23.4144 
349.093 136.05 23.6907 349.7 135.524 23.8586 317.707 142.014 21.9986 
320.274 141.886 22.3143 346.89 138.296 22.9795 288.287 143.1 23.8431 
294.367 143.244 23.2516 293.88 143.06 23.4699 300.974 143.392 23.1821 
306.859 143.231 22.7472 315.603 142.501 22.2436 346.973 138.323 23.2383 
311.605 143.08 22.4106 286.257 144.11 23.642 287.222 143.597 23.6703 
286.465 144.862 23.3951 285.013 146.486 23.6831 341.596 143.081 22.524 
287.744 147.318 22.6725 284.802 147.785 23.7851 337.164 146.664 22.2101 
285.889 150.063 23.2831 335.86 147.617 22.2339 285.596 151.138 23.5162 
330.983 150.022 22.1522 325.864 152.117 22.383 329.085 150.867 22.116 
286.072 155.52 23.5749 322.889 152.812 22.6683 287.153 157.041 23.1016 
285.777 158.281 24.0502 310.473 156.217 23.0135 314.362 155.165 22.7723 
286.108 159.039 23.8101 311.566 155.975 22.7717 286.087 159.888 23.8921 
285.793 160.024 24.1832 289.788 159.246 22.5817 306.382 157.635 22.8485 
286.935 160.439 23.4674 303.559 158.613 22.9388 303.119 158.845 23.0775 
303.628 158.624 23.2798 305.239 158.021 23.0769 302.455 159.073 23.0504 
296.061 161.35 23.3183 297.799 160.866 23.6003 300.51 159.878 23.3226 
294.115 162.068 23.5271 296.68 161.333 23.5963 285.976 163.23 24.215 
285.604 163.752 24.4306 285.456 163.897 24.548 290.468 163.011 23.8352 
285.464 164.161 24.57 287.172 163.634 24.163 285.631 164.169 24.4954 
285.835 164.122 24.4351 340.977 125.884 24.6975 342.709 125.794 23.4785 
343.195 126.008 23.3591 339.25 128.569 24.0031 337.344 130.88 23.352 
337.589 130.747 23.6416 334.55 134.707 23.0183 334.288 135.348 23.1992 
332.376 137.673 23.0254 334.522 136.226 23.5557 351.388 133.69 24.1546 
351.93 133.232 24.4796 334.322 137.308 23.5854 350.738 134.554 24.0644 
350.515 134.784 24.13 350.984 134.28 24.2736 326.694 140.251 22.3596 
319.133 141.974 22.5811 319.01 141.94 22.4966 336.805 139.292 23.9054 
285.875 142.252 24.7502 285.328 142.01 25.002 318.584 141.999 22.4677 
323.07 141.869 22.5888 286.689 142.294 24.7909 287.688 142.491 24.5435 
292.992 142.889 23.7981 300.551 143.469 23.6157 315.615 142.703 22.601 
316.533 142.427 22.4403 323.875 142.449 22.937 286.368 143.125 24.0561 
295.237 143.106 23.8222 344.889 139.863 23.5151 346.175 139.032 23.4611 
343.606 141.287 23.1809 343.489 141.462 23.0027 342.489 141.911 23.0959 
341.862 142.547 22.8425 343.033 141.699 23.0707 284.127 146.872 24.294 
325.807 146.856 23.5456 283.94 147.663 24.623 331.553 147.038 23.1461 
284.248 148.865 24.5841 284.996 149.764 23.8336 284.791 150.876 24.2749 
317.03 150.869 23.8938 332.435 148.705 22.5464 330.428 149.773 22.4758 
324.991 151.568 22.9722 326.992 150.864 22.9601 326.565 151.599 22.6972 
285.443 155.828 24.1541 316.933 153.599 23.344 320.994 153.103 22.9082 
317.786 154.114 22.8376 314.621 154.733 23.1977 316.117 154.427 23.0693 
307.648 157.127 23.1969 307.218 157.262 23.352 305.886 157.835 23.1976 
306.123 157.685 23.3651 301.927 159.351 23.4322 301.318 159.615 23.7355 
296.244 161.431 24.1598 297.083 161.199 23.6946 294.661 162.03 23.8783 
285.388 164.054 24.6567 290.37 163.14 24.0934 285.395 164.294 24.6555 
288.285 163.529 24.1261 343.416 121.029 25.3857 355.293 125.224 25.3473 
355.9 125.806 25.5681 356.243 126.557 25.7813 354.31 128.795 24.8565 
355.526 128.498 25.6399 355.307 128.922 25.5908 340.937 133.195 25.1127 
353.005 131.939 24.8157 352.27 132.899 24.8163 351.985 133.252 24.8466 
344.924 136.199 24.9629 350.478 134.645 24.5224 344.971 136.895 24.7759 
282.221 141.463 25.6933 318.9 142.046 22.6158 282.765 141.735 25.3743 
289.763 142.477 24.6983 289.139 142.431 24.804 290.371 142.538 24.6787 
290.068 142.495 24.8542 317.491 142.438 22.6844 319.055 142.235 22.7423 
344.794 138.55 24.23 347.786 137.18 24.021 282.411 141.939 25.4735 
283.059 142.108 25.1468 287.357 142.335 24.9202 296.172 143.191 24.0203 
299.909 143.777 24.2321 302.562 143.76 23.7082 315.509 143.074 22.9479 
344.704 139.293 23.9122 282.563 142.743 25.394 294.669 143.117 24.2311 
300.081 144.054 24.4358 301.466 144.086 24.1869 318.314 143.103 23.1361 
282.692 143.357 25.3508 300.708 144.694 24.679 315.871 144.607 23.6647 
301.573 145.813 24.9462 302.242 146.578 25.0289 283.635 146.853 25.0245 
283.733 147.326 25.1041 302.822 147.53 25.1079 283.987 148.058 24.7054 
284.219 149.188 24.9788 308.726 148.763 24.6315 334.927 147.886 22.4825 
284.57 151.272 25.0283 327.478 151.17 22.7247 324.647 152.077 22.8742 
315.943 153.846 23.4366 320.318 153.413 22.8886 285.282 156.609 24.6133 
318.759 154.048 22.7205 312.775 154.931 23.461 285.496 158.623 24.6511 
309.106 156.066 23.7885 305.762 157.065 24.0795 306.874 157.238 23.5668 
300.071 159.677 24.4793 285.544 162.068 24.826 295.536 161.515 24.471 
294.129 162.008 24.5291 285.379 163.86 24.7695 290.448 163.151 24.378 
292.218 162.672 24.4686 285.418 164.222 24.7488 288.715 163.504 24.2181 
285.353 164.385 24.6958 285.355 164.393 24.7108 285.351 164.43 24.6944 
285.397 164.403 24.6678 285.508 164.384 24.6625 285.709 164.322 24.6226 
345.448 115.43 27.043 345.202 116.132 26.9627 345.151 117.354 26.347 
344.245 118.513 26.6056 350.157 118.084 25.7133 342.59 122.413 25.6553 
342.369 122.892 25.6583 341.88 124.462 25.5529 357.559 122.744 26.5296 
340.76 126.603 25.0557 356.99 125.054 26.2242 357.224 125.624 26.4601 
356.88 126.511 26.3417 357.347 126.001 26.7255 338.204 130.858 24.2718 
339.399 130.297 24.8233 356.704 127.112 26.3701 356.996 126.728 26.6821 
356.044 127.971 26.0296 355.483 128.841 25.8366 355.106 129.273 26.2256 
346.345 135.39 25.1446 349.747 133.664 25.5826 350.664 133.835 25.2608 
347.719 135.548 24.9804 346.816 136.573 24.7114 282.128 141.299 25.8691 
282.017 141.301 25.8571 282.739 141.42 25.7572 282.045 141.371 25.8052 
282.071 141.557 25.7726 284.116 141.713 25.6708 288.922 142.435 24.9983 
288.502 142.486 25.1608 346.453 137.806 24.2454 347.14 137.495 24.1543 
282.071 141.775 25.8128 286.46 142.221 25.3948 291.227 142.814 24.9359 
293.6 143.177 24.6735 299.215 143.613 24.1951 282.298 142.28 25.5877 
295.643 143.71 24.7519 282.927 144.523 25.5513 283.829 147.504 25.3337 
285.017 154.988 24.8377 285.111 155.752 24.8946 285.361 157.311 25.0821 
285.658 159.538 25.0568 297.845 158.101 25.5802 304.844 156.976 24.375 
297.53 160.68 24.5534 285.516 162.876 24.998 285.55 163.086 25.0446 
287.574 162.521 25.4938 290.439 161.637 25.5558 285.453 163.234 24.9348 
292.662 162.444 24.6432 292.175 162.497 24.7394 290.66 162.854 24.7853 
285.429 163.948 24.8639 287.242 163.767 24.8748 285.416 164.39 24.7018 
[...]
POINT_DATA 1986
SCALARS scalars float
LOOKUP_TABLE default
1 1 1 1 1 1 1 1 1 
1 1 1 1 1 1 1 1 1 
1 1 1 1 1 1 1 1 1 
1 1 1 1 1 1 1 1 1 
1 1 1 1 1 1 1 1 1 
1 1 1 1 1 1 1 1 1 
1 1 1 1 1 1 1 1 1 
1 1 1 1 1 1 1 1 1 
1 1 1 1 1 1 1 1 1 
1 1 1 1 1 1 1 1 1 
1 1 1 1 1 1 1 1 1 
1 1 1 1 1 1 1 1 1 
1 1 1 1 1 1 1 1 1 
1 1 1 1 1 1 1 1 1 
1 1 1 1 1 1 1 1 1 
1 1 1 1 1 1 1 1 1 
1 1 1 1 1 1 1 1 1 
1 1 1 1 1 1 1 1 1 
1 1 1 1 1 1 1 1 1 
1 1 1 1 1 1 1 1 1 
1 1 1 1 1 1 1 1 1 
1 1 1 1 1 1 1 1 1 
1 1 1 1 1 1 1 1 1 
1 1 1 1 1 1 1 1 1 
1 1 1 1 1 1 1 1 1 
1 1 1 1 1 1 1 1 1 
1 1 1 1 1 1 1 1 1 
1 1 1 1 1 1 1 1 1 
1 1 1 1 1 1 1 1 1 
1 1 1 1 1 1 1 1 1 
1 1 1 1 1 1 1 1 1 
1 1 1 1 1 1 1 1 1 
1 1 1 1 1 1 1 1 1 
1 1 1 1 1 1 1 1 1 
1 1 1 1 1 1 1 1 1 
1 1 1 1 1 1 1 1 1 
1 1 1 1 1 1 1 1 1 
1 1 1 1 1 1 1 1 1 
1 1 1 1 1 1 1 1 1 
1 1 1 1 1 1 1 1 1 
1 1 1 1 1 1 1 1 1 
1 1 1 1 1 1 1 1 1 
1 1 1 1 1 1 1 1 1 
1 1 1 1 1 1 1 1 1 
1 1 1 1 1 1 1 1 1 
1 1 1 1 1 1 1 1 1 
1 1 1 1 1 1 1 1 1 
1 1 1 1 1 1 1 1 1 
1 1 1 1 1 1 1 1 1 
1 1 1 1 1 1 1 1 1 
1 1 1 1 1 1 1 1 1 
1 1 1 1 1 1 1 1 1 
1 1 1 1 1 1 1 1 1 
1 1 1 1 1 1 1 1 1 
1 1 1 1 1 1 1 1 1 
1 1 1 1 1 1 1 1 1 
1 1 1 1 1 1 1 1 1 
1 1 1 1 1 1 1 1 1 
1 1 1 1 1 1 1 1 1 
1 1 1 1 1 1 1 1 1 
1 1 1 1 1 1 1 1 1 
1 1 1 1 1 1 1 1 1 
1 1 1 1 1 1 1 1 1 
1 1 1 1 1 1 1 1 1 
1 1 1 1 1 1 1 1 1 
1 1 1 1 1 1 1 1 1 
1 1 1 1 1 1 1 1 1 
1 1 1 1 1 1 1 1 1 
1 1 1 1 1 1 1 1 1 
1 1 1 1 1 1 1 1 1 
1 1 1 1 1 1 1 1 1 
1 1 1 1 1 1 1 1 1 
1 1 1 1 1 1 1 1 1 
1 1 1 1 1 1 1 1 1 
1 1 1 1 1 1 1 1 1 
1 1 1 1 1 1 1 1 1 
1 1 1 1 1 1 1 1 1 
1 1 1 1 1 1 1 1 1 
1 1 1 1 1 1 1 1 1 
1 1 1 1 1 1 1 1 1 
1 1 1 1 1 1 1 1 1 
1 1 1 1 1 1 1 1 1 
1 1 1 1 1 1 1 1 1 
1 1 1 1 1 1 1 1 1 
1 1 1 1 1 1 1 1 1 
1 1 1 1 1 1 1 1 1 
1 1 1 1 1 1 1 1 1 
1 1 1 1 1 1 1 1 1 
1 1 1 1 1 1 1 1 1 
1 1 1 1 1 1 1 1 1 
1 1 1 1 1 1 1 1 1 
1 1 1 1 1 1 1 1 1 
1 1 1 1 1 1 1 1 1 
1 1 1 1 1 1 1 1 1 
1 1 1 1 1 1 1 1 1 
1 1 1 1 1 1 1 1 1 
1 1 1 1 1 1 1 1 1 
1 1 1 1 1 1 1 1 1 
1 1 1 1 1 1 1 1 1 
1 1 1 1 1 1 1 1 1 
1 1 1 1 1 1 1 1 1 
1 1 1 1 1 1 1 1 1 
1 1 1 1 1 1 1 1 1 
1 1 1 1 1 1 1 1 1 
1 1 1 1 1 1 1 1 1 
1 1 1 1 1 1 1 1 1 
1 1 1 1 1 1 1 1 1 
1 1 1 1 1 1 1 1 1 
1 1 1 1 1 1 1 1 1 
1 1 1 1 1 1 1 1 1 
1 1 1 1 1 1 1 1 1 
1 1 1 1 1 1 1 1 1 
1 1 1 1 1 1 1 1 1 
1 1 1 1 1 1 1 1 1 
1 1 1 1 1 1 1 1 1 
1 1 1 1 1 1 1 1 1 
1 1 1 1 1 1 1 1 1 
1 1 1 1 1 1 1 1 1 
1 1 1 1 1 1 1 1 1 
1 1 1 1 1 1 1 1 1 
1 1 1 1 1 1 1 1 1 
1 1 1 1 1 1 1 1 1 
1 1 1 1 1 1 1 1 1 
1 1 1 1 1 1 1 1 1 
1 1 1 1 1 1 1 1 1 
1 1 1 1 1 1 1 1 1 
1 1 1 1 1 1 1 1 1 
1 1 1 1 1 1 1 1 1 
1 1 1 1 1 1 1 1 1 
1 1 1 1 1 1 1 1 1 
1 1 1 1 1 1 1 1 1 
1 1 1 1 1 1 1 1 1 
1 1 1 1 1 1 1 1 1 
1 1 1 1 1 1 1 1 1 
1 1 1 1 1 1 1 1 1 
1 1 1 1 1 1 1 1 1 
1 1 1 1 1 1 1 1 1 
1 1 1 1 1 1 1 1 1 
1 1 1 1 1 1 1 1 1 
1 1 1 1 1 1 1 1 1 
1 1 1 1 1 1 1 1 1 
1 1 1 1 1 1 1 1 1 
1 1 1 1 1 1 1 1 1 
1 1 1 1 1 1 1 1 1 
1 1 1 1 1 1 1 1 1 
1 1 1 1 1 1 1 1 1 
1 1 1 1 1 1 1 1 1 
1 1 1 1 1 1 1 1 1 
1 1 1 1 1 1 1 1 1 
1 1 1 1 1 1 1 1 1 
1 1 1 1 1 1 1 1 1 
1 1 1 1 1 1 1 1 1 
1 1 1 1 1 1 1 1 1 
1 1 1 1 1 1 1 1 1 
1 1 1 1 1 1 1 1 1 
1 1 1 1 1 1 1 1 1 
1 1 1 1 1 1 1 1 1 
1 1 1 1 1 1 1 1 1 
1 1 1 1 1 1 1 1 1 
1 1 1 1 1 1 1 1 1 
1 1 1 1 1 1 1 1 1 
1 1 1 1 1 1 1 1 1 
1 1 1 1 1 1 1 1 1 
1 1 1 1 1 1 1 1 1 
1 1 1 1 1 1 1 1 1 
1 1 1 1 1 1 1 1 1 
1 1 1 1 1 1 1 1 1 
1 1 1 1 1 1 1 1 1 
1 1 1 1 1 1 1 1 1 
1 1 1 1 1 1 1 1 1 
1 1 1 1 1 1 1 1 1 
1 1 1 1 1 1 1 1 1 
1 1 1 1 1 1 1 1 1 
1 1 1 1 1 1 1 1 1 
1 1 1 1 1 1 1 1 1 
1 1 1 1 1 1 1 1 1 
1 1 1 1 1 1 1 1 1 
1 1 1 1 1 1 1 1 1 
1 1 1 1 1 1 1 1 1 
1 1 1 1 1 1 1 1 1 
1 1 1 1 1 1 1 1 1 
1 1 1 1 1 1 1 1 1 
1 1 1 1 1 1 1 1 1 
1 1 1 1 1 1 1 1 1 
1 1 1 1 1 1 1 1 1 
1 1 1 1 1 1 1 1 1 
1 1 1 1 1 1 1 1 1 
1 1 1 1 1 1 1 1 1 
1 1 1 1 1 1 1 1 1 
1 1 1 1 1 1 1 1 1 
1 1 1 1 1 1 1 1 1 
1 1 1 1 1 1 1 1 1 
1 1 1 1 1 1 1 1 1 
1 1 1 1 1 1 1 1 1 
1 1 1 1 1 1 1 1 1 
1 1 1 1 1 1 1 1 1 
1 1 1 1 1 1 1 1 1 
1 1 1 1 1 1 1 1 1 
1 1 1 1 1 1 1 1 1 
1 1 1 1 1 1 1 1 1 
1 1 1 1 1 1 1 1 1 
1 1 1 1 1 1 1 1 1 
1 1 1 1 1 1 1 1 1 
1 1 1 1 1 1 1 1 1 
1 1 1 1 1 1 1 1 1 
1 1 1 1 1 1 1 1 1 
1 1 1 1 1 1 1 1 1 
1 1 1 1 1 1 1 1 1 
1 1 1 1 1 1 1 1 1 
1 1 1 1 1 1 1 1 1 
1 1 1 1 1 1 1 1 1 
1 1 1 1 1 1 1 1 1 
1 1 1 1 1 1 1 1 1 
1 1 1 1 1 1 1 1 1 
1 1 1 1 1 1 1 1 1 
1 1 1 1 1 1 1 1 1 
1 1 1 1 1 1 1 1 1 
1 1 1 1 1 1 1 1 1 
1 1 1 1 1 1 1 1 1 
1 1 1 1 1 1 1 1 1 
1 1 1 1 1 1 
NORMALS Normals float
-0.266993 -0.55549 -0.787493 -0.0834551 -0.771327 -0.630943 -0.17157 -0.736474 -0.654347 
-0.0968306 -0.228432 -0.968732 -0.178254 -0.359286 -0.916045 -0.150972 -0.461119 -0.874401 
-0.0795233 -0.12425 -0.989059 -0.0377155 -0.438085 -0.898142 -0.0127333 -0.166276 -0.985997 
-0.077069 -0.212341 -0.974152 0.0573096 0.118429 -0.991307 0.395532 0.61626 -0.681013 
0.549374 0.472452 -0.689186 0.56168 0.629395 -0.537008 0.147488 0.4878 -0.860406 
0.19648 0.2832 -0.938719 0.154138 0.116479 -0.98116 0.430792 0.430014 -0.793414 
0.0943054 0.330761 -0.938991 0.236975 0.681475 -0.692412 0.323734 0.620276 -0.714461 
0.24614 0.814468 -0.525411 0.0949134 0.355459 -0.92986 -0.485236 -0.587478 -0.647623 
-0.192233 -0.377637 -0.90578 -0.415177 -0.643869 -0.642698 -0.131661 -0.265838 -0.954985 
0.13104 -0.0425711 -0.990463 -0.282112 -0.727396 -0.625547 -0.402582 -0.872794 -0.275967 
-0.263359 -0.587235 -0.765374 -0.473602 -0.802314 -0.363309 -0.0224268 -0.268422 -0.96304 
-0.0453171 -0.996366 -0.0721234 -0.196703 -0.74722 -0.6348 -0.105384 -0.698694 -0.707616 
0.353033 0.184563 -0.917226 -0.068076 -0.639597 -0.76569 -0.256031 -0.567194 -0.782777 
0.401436 0.292187 -0.86803 -0.0692744 -0.294253 -0.953214 0.226375 0.154476 -0.961713 
0.47201 0.293561 -0.831281 -0.060511 -0.166441 -0.984193 0.349999 0.271398 -0.896574 
0.482605 0.479933 -0.732637 0.649968 0.571481 -0.500951 0.705325 0.700898 -0.106102 
0.685003 0.721848 -0.0985227 0.611931 0.591207 -0.525371 0.475777 0.844734 -0.245075 
0.681807 0.606748 -0.408652 0.402503 0.42744 -0.809498 0.518161 0.843231 -0.143074 
-0.0164485 0.0594581 -0.998095 0.407714 0.823179 -0.395153 0.48858 0.780859 -0.389292 
0.142629 0.577284 -0.80399 0.206862 0.63533 -0.744019 0.228235 0.618123 -0.752219 
-0.00560814 0.196993 -0.980389 0.118332 0.732697 -0.670189 0.276351 0.628594 -0.72698 
0.293563 0.716623 -0.632671 0.299717 0.789753 -0.535219 0.0866431 0.423569 -0.901711 
0.166991 0.746155 -0.64449 0.279904 0.857477 -0.431725 0.224524 0.875769 -0.427337 
0.268008 0.878257 -0.396027 0.062195 0.399046 -0.914819 0.233681 0.609092 -0.757892 
0.127143 0.610487 -0.781755 0.195465 0.777684 -0.597496 -0.53363 -0.58265 -0.612991 
-0.556687 -0.594904 0.579818 -0.414195 -0.903795 -0.107692 0.429846 0.207416 -0.878755 
-0.30014 -0.858447 0.415915 -0.308813 -0.93744 -0.160748 0.554312 0.331598 -0.763401 
-0.125449 -0.964297 -0.233225 -0.107094 -0.963946 -0.243598 -0.0443631 -0.952848 -0.300188 
-0.0579273 -0.887331 -0.45748 -0.154736 -0.978098 -0.139214 0.594328 0.470459 -0.652259 
-0.0606251 -0.98768 -0.144268 0.547885 0.365399 -0.752532 0.649676 0.578429 -0.493296 
-0.0914289 -0.539205 -0.837197 0.488725 0.481974 -0.72722 0.682875 0.721991 -0.111409 
0.635267 0.732146 0.245759 0.665297 0.735867 0.126017 0.482759 0.803012 0.349451 
0.36768 0.888097 0.275854 0.234743 0.594104 0.769374 0.357145 0.888588 -0.287853 
0.259604 0.869489 0.420231 0.3914 0.908033 -0.14927 0.357502 0.906439 -0.224857 
0.289406 0.886901 0.36007 0.395404 0.910742 0.119184 0.19825 0.979717 -0.0291831 
0.230248 0.872461 0.431042 0.305201 0.95097 0.0500774 0.260589 0.965238 -0.0202213 
0.221929 0.966583 -0.128319 0.264839 0.841529 -0.470839 0.216114 0.929671 -0.298339 
-0.0244389 0.253406 -0.967051 0.0718721 0.51984 -0.851235 0.284534 0.679298 -0.676457 
0.196588 0.906682 -0.373203 0.343278 0.765018 -0.544892 0.1401 0.581153 -0.801644 
0.15589 0.61364 -0.774044 0.295111 0.821624 -0.487691 -0.0740715 0.413503 -0.907485 
0.162469 0.653289 -0.739471 0.10936 0.72524 -0.679756 0.150076 0.754168 -0.639302 
-0.364031 -0.4504 -0.815243 -0.716525 -0.458002 -0.526142 -0.616589 -0.478976 -0.62482 
-0.599025 -0.606054 -0.523325 -0.737645 -0.675129 -0.00901673 -0.855244 -0.457611 0.243207 
0.250377 -0.0493838 -0.966888 -0.768115 -0.640295 -0.0047315 0.511361 0.14774 -0.846571 
0.54849 0.268368 -0.79192 0.608387 0.316054 -0.727994 0.467733 0.25573 -0.846066 
0.663802 0.447561 -0.599213 0.634242 0.531933 -0.561056 0.673528 0.450733 -0.585833 
0.67006 0.52386 -0.525918 0.66632 0.681033 -0.303663 -0.136466 -0.990389 -0.0224994 
-0.110594 -0.891323 0.439672 0.632957 0.49443 -0.595738 -0.0408637 -0.740239 -0.671101 
0.0264398 -0.86572 -0.499829 0.0119087 -0.79985 -0.600081 0.0606177 -0.972517 0.224804 
-0.0203858 -0.986412 0.163023 -0.268436 -0.937855 0.219931 0.716414 0.682458 -0.144924 
-0.0789875 -0.973607 0.214125 -0.266868 -0.324262 -0.907544 -0.102759 -0.471548 -0.875833 
-0.218499 -0.151589 -0.963991 -0.435684 -0.0618259 -0.897974 0.563934 0.679952 0.468663 
-0.177532 -0.0492143 -0.982884 -0.507623 0.0317772 -0.860993 0.324284 0.490134 0.809079 
-0.448424 0.090022 -0.889276 0.377007 0.441447 0.814242 -0.491346 0.0801845 -0.867265 
0.17202 0.815455 0.552669 0.28129 0.692571 0.664245 0.34386 0.825422 0.447704 
-0.394477 0.0184063 -0.918721 0.174542 0.581155 0.794854 -0.307771 -0.0393877 -0.950645 
-0.607739 0.0100922 -0.794073 0.282008 0.911822 0.298417 0.250208 0.812638 0.526322 
-0.533402 -0.0350424 -0.845136 0.240219 0.970349 -0.026793 -0.667387 0.0911487 -0.739112 
-0.771395 0.0369716 -0.635282 -0.107981 0.0886808 -0.99019 0.353618 0.909382 -0.219039 
-0.315403 0.0804247 -0.945544 0.592278 0.743211 -0.311198 0.342708 0.908338 -0.239736 
0.458296 0.888654 0.0160803 0.28709 0.957843 -0.0108089 0.243949 0.842595 -0.480128 
0.144144 0.675502 -0.723132 0.336031 0.880834 -0.333488 0.316058 0.894933 -0.314965 
0.195043 0.799607 -0.567967 0.325854 0.878867 -0.348443 -0.406789 0.073025 -0.910599 
-0.502865 0.0507442 -0.862874 -0.718179 -0.0242856 -0.695435 0.131103 0.795326 -0.591835 
-0.583947 0.0399943 -0.810806 0.0223993 0.541833 -0.840188 -0.327913 0.101729 -0.939215 
-0.194039 0.25857 -0.946303 -0.873688 -0.46284 -0.149828 -0.241891 -0.404236 -0.882089 
-0.0995071 -0.343612 -0.933825 -0.807541 -0.556492 0.195432 -0.77255 -0.598546 0.211917 
-0.760766 -0.426555 0.489168 -0.442589 -0.268027 0.855732 -0.155212 -0.367818 0.916853 
-0.220666 -0.229695 0.947917 -0.184812 -0.221854 0.957406 0.730039 0.466997 -0.498956 
0.728203 0.560316 -0.394673 -0.313178 -0.165798 0.93511 0.746809 0.596387 -0.294277 
0.693245 0.720702 0.000305668 0.76034 0.645328 -0.0737156 -0.256916 -0.504319 0.824413 
0.0152884 -0.826627 0.562543 -0.07826 -0.928675 0.362543 -0.00790248 -0.0241835 0.999676 
-0.0713958 -0.731439 -0.678158 0.0311656 -0.789467 -0.613001 -0.184872 -0.804461 0.564504 
-0.111684 -0.473839 0.873501 0.0496195 -0.882918 -0.466899 -0.00700664 -0.821234 -0.570548 
0.0760109 -0.988512 -0.130636 0.164529 -0.824774 0.540997 -0.373607 -0.746779 0.550217 
-0.112829 -0.76906 0.629139 -0.166113 -0.330787 0.928971 -0.127265 -0.560106 -0.818587 
0.14012 -0.99013 -0.00310211 0.533544 0.641674 0.550985 0.551129 0.683746 0.478276 
0.430102 0.627993 0.648566 0.562445 0.783798 0.263278 0.109396 0.672195 0.732247 
0.345074 0.566173 0.74858 0.349402 0.783491 0.513867 -0.68981 0.098981 -0.717192 
0.0342862 -0.0388198 0.998658 -0.843735 0.177801 -0.506457 0.115521 0.174457 0.977865 
-0.856871 0.223196 -0.464709 -0.73146 0.169468 -0.660489 -0.814131 0.101037 -0.571823 
0.125792 0.142224 0.981809 0.184772 0.442063 0.877747 0.243629 0.571188 0.78383 
0.128938 0.321003 0.93826 0.116465 0.26648 0.956778 0.285843 0.703549 0.650625 
-0.792344 0.136513 -0.594605 0.24438 0.346201 0.905772 0.0592023 0.211341 0.975618 
0.19472 0.273814 0.941865 0.259339 0.677884 0.687907 0.164821 0.433364 0.886019 
0.385396 0.747256 0.541368 0.378457 0.763687 0.523022 0.310834 0.929604 0.198036 
0.314771 0.854373 0.413481 0.449311 0.863777 0.228057 0.42006 0.905266 0.0635848 
0.341636 0.902337 0.262815 0.382114 0.923141 0.0424344 0.289412 0.95628 -0.0420623 
-0.969941 -0.023482 -0.242204 0.276135 0.920546 -0.276305 -0.891807 -0.0347818 -0.451077 
0.0252422 0.634569 -0.772454 -0.778211 -0.442834 -0.445292 0.295097 -0.0709086 -0.952833 
0.470109 0.0254249 -0.882242 0.476176 0.0802506 -0.87568 0.499367 0.202386 -0.842421 
0.696489 0.217397 -0.683843 0.653253 0.507002 -0.562325 -0.16566 0.0950385 0.981593 
0.78418 0.45817 -0.4185 0.72867 0.684434 -0.0243077 0.622495 0.600055 0.502428 
-0.304022 0.227791 0.925031 0.567819 0.724414 0.390904 0.241644 0.305215 0.921115 
-0.448459 -0.260016 -0.855147 -0.188968 -0.634887 0.749139 -0.218781 -0.469137 -0.855596 
0.0588247 -0.933377 -0.354044 0.029479 -0.996591 -0.0770577 0.124451 -0.979551 -0.158085 
0.133566 -0.939491 0.315464 -0.147233 -0.541935 0.827423 -0.0555697 -0.48156 0.87465 
-0.632706 0.198401 0.748546 0.450169 0.656719 0.605036 -0.511806 -0.0964462 -0.85367 
-0.343311 -0.226396 -0.911528 0.120277 -0.979881 -0.15927 0.07556 -0.969946 0.231291 
0.287139 -0.70641 0.646943 0.0595945 -0.700307 0.71135 -0.128653 -0.703636 0.698817 
0.128306 0.389316 0.912124 -0.747218 0.103669 -0.656443 0.165059 -0.910259 0.379716 
0.164323 -0.555566 0.815073 0.241675 -0.566342 0.787941 -0.0728762 -0.421455 0.903916 
-0.780729 0.107019 -0.615638 0.108242 -0.473421 0.874161 0.0167228 -0.28968 0.956978 
0.0809428 -0.274406 0.958201 0.301403 -0.299059 0.905384 -0.95358 0.194281 -0.230088 
-0.971269 0.229873 -0.0616044 0.155309 -0.139909 0.977908 -0.839335 0.227179 -0.493869 
-0.936907 0.217551 -0.273636 0.0930813 -0.116797 0.988784 0.267219 0.446632 0.853882 
-0.989051 0.139472 0.0482235 0.310031 0.505506 0.805198 0.197983 0.534038 0.821953 
0.185449 0.453796 0.871595 0.180053 0.720335 0.669849 -0.899726 0.139356 -0.413609 
0.188095 0.654787 0.732034 0.144705 0.39156 0.908703 -0.951581 0.071739 -0.298911 
0.232077 0.529808 0.815747 0.272394 0.540971 0.795708 0.366768 0.510305 0.777862 
0.357778 0.612547 0.704827 -0.999412 -0.0342875 0.00091574 0.279756 0.79092 0.544225 
0.27995 0.745279 0.605134 -0.998788 -0.0481882 -0.0100643 0.21242 0.917088 0.337384 
0.223 0.945019 0.239187 -0.699251 0.222038 0.67952 0.202685 0.961036 -0.187959 
-0.933582 -0.161123 -0.320102 -0.57873 0.127647 0.805468 -0.578905 0.801402 0.15041 
-0.175319 0.622445 -0.762775 0.26048 0.949894 0.172777 0.255692 0.947611 -0.191453 
-0.625492 -0.282616 -0.727247 -0.700221 -0.33127 -0.632416 -0.733001 -0.408476 -0.543927 
-0.92478 -0.37258 -0.0772369 0.10586 -0.313604 -0.943635 -0.882051 -0.466629 0.0651374 
-0.896288 -0.207267 0.392056 -0.658965 -0.0844623 0.747416 0.413051 -0.203359 -0.887713 
-0.788738 -0.288872 0.542628 0.683872 -0.0537956 -0.727616 0.872311 -0.0581652 -0.485479 
0.699993 0.179548 -0.691211 0.831258 0.170474 -0.529102 -0.639714 -0.320684 0.698519 
-0.521414 -0.134295 0.842669 0.820296 0.395775 -0.412888 0.841528 0.529847 -0.105318 
0.783099 0.36818 -0.501199 0.769882 0.618762 -0.156256 0.649203 0.690171 0.319687 
-0.105758 0.216934 0.970441 0.228953 0.441902 0.867354 0.327557 0.495384 0.804551 
0.0964716 0.264498 0.959549 -0.0492792 0.49466 0.867688 0.164767 -0.947131 0.275308 
-0.278022 -0.737879 -0.615011 0.183023 -0.983107 0.00158129 -0.571232 -0.210638 -0.793301 
-0.746122 0.0398489 -0.664615 0.229309 -0.833622 0.502485 -0.0038513 -0.986988 0.160749 
0.0989699 -0.879646 0.465217 0.334923 0.609032 0.718962 0.0540785 0.666061 0.743934 
-0.932774 0.206904 -0.295168 0.177413 -0.901442 0.394875 0.232021 -0.814866 0.531187 
0.157509 -0.693073 0.703449 0.0125575 -0.58396 0.811686 -0.701521 0.0821874 -0.707894 
0.12637 -0.686101 0.716446 -0.959311 0.278287 -0.047743 -0.92261 0.250754 0.293109 
-0.994121 0.107137 -0.0156789 -0.991368 0.112181 -0.0678578 -0.90881 0.155196 0.387271 
-0.865503 0.0514055 0.498259 0.140712 0.265046 0.953913 0.177978 0.296507 0.9383 
0.186762 0.603619 0.77509 -0.958765 -0.117665 0.258699 -0.476314 0.129838 0.869636 
0.0671613 0.316069 0.946356 0.134813 0.26523 0.954714 -0.926878 -0.0570875 0.370997 
0.265862 0.55285 0.78973 0.0945956 0.764588 0.637539 0.179918 0.686162 0.704849 
-0.729079 0.128422 0.672273 0.191917 0.712609 0.6748 0.248684 0.675823 0.693844 
-0.408579 0.128585 0.90362 0.17601 0.694332 0.697799 0.248591 0.958462 0.139829 
-0.624774 -0.28031 -0.728754 -0.420935 -0.392748 -0.817657 -0.175368 -0.378192 -0.908965 
-0.625875 -0.235669 -0.743465 -0.950341 -0.274632 -0.146383 -0.916768 -0.279392 0.285443 
-0.791588 -0.441138 0.42283 -0.664536 0.0825586 0.742681 -0.681555 -0.0384783 0.730754 
0.627207 0.0328543 -0.778159 0.7458 0.291251 -0.599129 -0.460686 0.0512384 0.886083 
0.623956 0.0731209 -0.778031 0.784519 0.444979 -0.431883 0.838968 0.357074 -0.410647 
0.838614 0.544679 0.0071643 0.791137 0.580744 0.191934 0.752505 0.654119 0.0765795 
0.625092 0.662959 0.412002 -0.0743196 -0.552618 0.830114 -0.564835 -0.770616 0.295147 
0.202625 -0.667822 0.71621 0.227227 -0.620884 0.750247 -0.913473 -0.0791219 -0.399134 
-0.98156 0.182792 0.0559169 -0.9018 0.307528 0.303617 0.21893 -0.651928 0.725989 
0.170766 -0.668163 0.724152 0.16778 -0.239908 0.956187 -0.849031 0.196854 0.4903 
-0.073788 0.00781663 0.997243 -0.861338 0.0380869 0.506603 -0.589993 0.0394584 0.806443 
-0.872471 0.130971 0.470788 -0.812735 0.115448 0.571081 -0.51453 0.133377 0.847036 
-0.600377 0.0834464 0.795352 -0.577913 0.1073 0.809013 -0.378102 0.0851758 0.921837 
-0.140145 0.0944149 0.985619 0.151329 0.348403 0.925048 -0.292713 0.0792952 0.952907 
-0.181644 0.251438 0.950676 0.146769 0.586824 0.796302 0.189686 0.629778 0.753259 
-0.142833 0.223146 0.964264 0.047264 0.387451 0.920678 -0.0418839 0.465622 0.883992 
-0.484699 -0.306478 -0.81923 -0.795897 -0.227419 -0.561096 -0.38484 -0.276846 -0.880485 
-0.934625 -0.228673 -0.272367 -0.893162 -0.226671 -0.388434 -0.459412 -0.367481 -0.80864 
-0.981115 -0.192973 -0.0132063 -0.918898 -0.0345758 0.392977 -0.823153 -0.0281749 0.567121 
-0.788243 -0.158875 0.594502 -0.655429 -0.088037 0.750108 -0.730154 -0.0345108 0.68241 
-0.642217 -0.052494 0.764724 -0.559352 0.0773307 0.825315 -0.482795 0.117307 0.867841 
0.804393 0.487552 -0.339479 0.785776 0.586217 0.197248 0.414841 0.557704 0.718939 
0.182749 0.416546 0.890557 0.452045 0.54073 0.709413 -0.82481 -0.167952 0.53989 
-0.597804 -0.10779 0.794363 -0.758996 0.111903 0.641407 0.136722 -0.449383 0.882815 
-0.699602 0.286182 0.65472 -0.655761 0.161622 0.737466 -0.572913 0.192274 0.796744 
-0.436912 0.142979 0.888068 -0.469654 0.0587801 0.880892 -0.65805 0.159132 0.735967 
-0.636655 -0.223415 -0.738076 -0.639476 -0.327524 -0.695556 -0.731959 -0.262576 -0.62872 
-0.308927 -0.338835 -0.888682 0.0228499 -0.346761 -0.937675 -0.988015 -0.136425 -0.0722121 
-0.947584 -0.0397751 0.317022 -0.843894 0.0512034 0.534061 -0.654022 0.135183 0.744299 
-0.543716 0.124246 0.830021 0.57626 -0.115413 -0.809076 0.417152 -0.0862665 -0.904733 
0.599973 -0.00351075 -0.800013 0.630826 0.407948 -0.660028 0.795087 0.19508 -0.574266 
-0.321826 0.197199 0.926035 0.738692 0.427755 -0.520922 0.809801 0.575193 0.115649 
0.800576 0.599181 0.00775124 0.805799 0.576629 -0.134861 0.687472 0.715603 0.123673 
0.7393 0.653815 0.161123 0.334503 0.478375 0.811952 0.560408 0.63205 0.535216 
-0.0701544 0.552018 0.830876 -0.150674 -0.25655 0.954714 -0.315619 -0.0303072 0.948402 
-0.446272 0.138179 0.884165 -0.774549 -0.325457 -0.542358 -0.890942 -0.335099 -0.30648 
-0.903889 -0.205238 -0.375315 -0.266792 0.254746 0.929476 0.585683 -0.0919808 -0.805304 
-0.144214 0.34991 0.925616 0.921785 0.301408 -0.243855 0.151373 -0.452609 -0.878767 
0.76863 0.603553 0.211969 0.556384 0.648597 0.519383 0.599371 0.643112 0.476615 
0.610489 0.634883 0.473526 0.0323555 0.46965 0.88226 -0.652935 -0.326772 -0.683298 