# vtk DataFile Version 4.2
vtk output
ASCII
DATASET POLYDATA
POINTS 1986 float
330.857 137.013 28.8786 331.664 137.049 28.5258 329.748 137.855 28.79 
332.922 136.695 28.4587 325.863 139.916 28.7729 326.663 139.374 28.7744 
327.654 138.95 28.8055 328.95 139.034 28.3871 326.894 139.422 28.6649 
326.592 140.506 28.3733 333.251 138.088 28.1853 334.165 139.169 28.1629 
335.944 139.472 28.4003 333.874 141.119 28.1726 331.331 143.589 28.0935 
331.618 144.035 28.1794 334.273 142.629 28.4117 325.826 144.553 28.2036 
332.897 144.632 28.5453 339.945 131.683 29.6623 333.778 134.848 29.4258 
332.192 136.034 29.1873 331.401 136.565 29.0011 330.31 137.375 28.8946 
330.652 137.114 29.0879 328.464 138.509 28.9556 326.187 139.427 29.0429 
325.393 139.969 29.0352 327.502 138.902 29.1436 322.399 141.189 29.314 
321.511 141.542 29.2643 316.771 143.26 29.5889 318.196 143.266 29.3273 
341.156 140.219 29.7439 341.02 140.291 29.7122 341.323 139.998 29.8052 
337.711 141.408 29.3683 338.934 140.982 29.617 340.62 140.799 29.754 
340.776 140.746 29.7483 341.076 140.314 29.7559 337.01 141.891 29.3617 
340.841 140.724 29.794 334.895 143.564 28.8279 335.749 143.192 29.1564 
321.93 145.513 28.7165 334.057 144.302 28.8023 331.83 145.345 28.6054 
334.862 144.127 29.2201 335.246 143.835 29.1583 328.034 147.195 28.8463 
330.552 146.309 28.7967 332.792 145.415 28.9199 333.306 145.244 29.0844 
324.181 147.538 28.9633 332.458 145.817 29.1082 333.202 145.441 29.3438 
329.938 147.191 29.1814 338.868 129.56 30.5186 338.816 129.403 30.6173 
338.68 129.616 30.6514 338.926 129.289 30.6257 338.434 130.195 30.379 
339.229 129.041 30.6942 341.4 128.604 30.5158 337.942 131.02 30.1111 
337.197 131.596 30.2516 336.718 132.143 30.0343 337.716 131.622 29.8535 
338.904 130.999 29.9046 335.591 133.194 30.0208 337.271 132.608 29.5208 
332.895 135.541 29.4384 331.451 136.618 29.3572 330.138 137.674 29.2776 
327.114 138.906 29.1846 326.98 138.933 29.1982 327.003 138.947 29.1725 
328.945 138.44 29.2619 331.68 137.4 29.7661 325.889 139.583 29.1515 
326.705 139.13 29.1293 332.141 137.802 29.9357 344.802 135.611 30.3646 
323.109 140.921 29.3691 324.816 140.358 29.4009 324.068 140.729 29.5528 
319.611 141.964 29.7992 320.87 141.675 29.7531 329.5 139.848 29.8234 
344.854 136.01 30.6819 313.112 143.045 30.6469 313.69 143.005 30.6801 
318.775 142.214 29.947 325.109 141.304 29.9385 343.846 137.244 30.436 
312.066 143.397 30.5043 314.483 142.973 30.4912 315.845 143.166 29.8902 
342.391 138.608 30.0219 342.926 138.241 30.2637 343.43 137.786 30.4236 
338.053 140.977 29.8423 339.069 140.673 29.9545 340.649 140.366 29.6472 
342.48 138.7 30.2702 312.125 144.337 30.1715 331.853 142.17 30.0902 
337.482 141.528 29.6062 339.803 141.039 29.8532 339.898 141.083 29.7612 
341.54 139.801 29.9983 336.486 142.241 29.5246 340.253 141.268 29.8766 
340.203 141.242 29.837 340.388 141.117 29.813 340.731 140.846 29.8802 
340.543 141.156 29.8736 341.015 140.571 29.8786 335.765 143.121 29.3823 
340.359 141.372 29.8636 340.403 141.385 29.8784 340.481 141.3 29.8594 
327.219 144.669 30.4142 335.112 143.78 29.4041 335.504 143.591 29.3114 
335.641 143.462 29.2594 335.513 143.618 29.1962 340.439 141.417 29.8699 
340.476 141.39 29.8704 311.651 146.96 30.1735 334.592 144.294 29.3732 
334.041 144.69 29.4381 335.324 143.795 29.257 333.571 145.124 29.4245 
327.718 147.99 29.1921 332.731 145.792 29.3762 333.183 145.353 29.4977 
330.388 147.1 29.4858 325.485 148.692 29.5216 327.318 148.438 29.5453 
329.175 147.842 29.5816 321.266 149.558 29.9988 322.067 149.639 30.125 
326.653 148.714 29.826 325.387 149.052 29.9506 340.78 126.627 31.6281 
339.821 127.973 31.2083 339.892 127.824 31.4619 340.425 127.43 31.2185 
340.289 127.313 31.5296 340.842 127.342 31.0725 345.395 126.584 31.1908 
339.506 128.309 31.1382 339.036 129.081 30.8931 337.332 131.552 30.5037 
333.284 135.569 29.741 347.484 131.465 31.1499 326.831 139.039 29.2107 
344.659 134.78 30.1864 326.073 139.508 29.2429 326.502 139.292 29.255 
347.067 133.835 31.2592 345.54 135.254 30.817 346.54 134.372 31.1705 
346.871 134.086 31.2719 319.682 142.035 29.9873 344.279 136.74 30.6682 
344.736 136.097 30.8979 312.254 143.082 30.8921 311.874 143.143 30.826 
312.923 143.056 30.8491 313.626 143.082 30.8816 315.844 142.831 30.585 
315.196 142.883 30.5517 321.956 141.924 30.0538 343.979 137.239 30.5802 
343.795 137.474 30.5233 343.881 137.392 30.5924 301.897 143.69 31.7834 
305.282 143.72 31.64 307.342 143.747 31.444 310.564 143.433 30.9719 
311.315 143.245 30.935 343.009 138.196 30.429 301.106 143.914 31.6711 
303.3 144.119 31.4336 310.257 143.917 30.6312 341.212 139.939 30.1395 
342.25 138.742 30.4174 340.748 140.531 30.0304 341.209 140.298 29.9872 
340.519 141.028 29.928 341.008 140.541 29.9717 340.463 141.392 29.881 
340.499 141.295 29.8855 300.086 145.889 31.2602 335.525 143.645 29.2553 
299.105 146.956 31.2502 331.027 145.504 29.9873 332.784 145.358 29.6463 
320.191 148.199 31.2304 329.295 147.438 29.9152 314.204 149.965 30.7117 
315.194 150.036 30.7026 325.256 148.357 30.543 327.749 147.956 30.1822 
328.113 148.332 29.7151 328.945 147.918 29.7372 314.63 150.361 30.9886 
315.294 150.425 31.1379 315.477 150.78 31.19 315.786 150.679 30.9313 
325.881 148.929 30.0077 326.4 148.748 30.0566 315.129 151.225 31.1947 
315.012 151.033 31.2401 319.78 150.274 30.4812 321.46 149.871 30.3867 
323.389 149.406 30.3357 318.128 150.8 30.8489 319.124 150.516 30.6846 
319.863 150.309 30.6787 313.194 151.853 31.4877 313.861 151.787 31.4472 
316.357 151.299 31.1091 313.721 151.858 31.5729 343.447 120.743 32.8581 
343.419 120.266 33.0908 343.703 121.196 32.6098 342.669 122.05 32.9231 
342.511 122.731 32.6613 344.586 121.728 32.3369 341.55 124.991 32.1588 
339.671 128.207 31.4404 340.236 127.46 31.7027 339.335 128.578 31.104 
338.776 130.152 31.1935 338.96 131.944 31.3347 345.203 131.383 32.6247 
348.571 130.871 31.6256 349.515 130.598 32.1616 348.254 131.651 31.5223 
339.888 134.149 31.3475 348.57 131.839 31.8071 348.961 131.562 32.0902 
349.335 131.11 32.2982 345.783 133.208 32.1503 347.998 132.701 31.6981 
348.59 132.039 32.0219 343.27 135.192 31.4728 346.031 133.797 31.9318 
347.236 133.447 31.8056 344.567 135.221 31.4287 347.131 133.809 31.3878 
345.875 134.818 31.3507 312.328 143.158 31.0442 311.737 143.176 31.0075 
295.164 143.548 32.9206 300.612 143.592 32.0219 300.406 143.447 32.2965 
301.163 143.403 32.3138 305.722 143.688 31.7851 306.722 143.761 31.7777 
310.154 143.524 31.2808 314.145 143.316 31.0584 296.47 144.126 32.2451 
297.123 144.523 31.967 301.606 144.42 31.389 341.141 140.412 30.0116 
297.785 144.987 31.7236 287.699 147.488 32.5307 300.546 148.387 31.1433 
301.717 150.806 31.3071 309.792 150.489 30.9618 314.684 150.094 31.6094 
315.266 150.03 31.4706 314.845 150.524 31.3517 325.846 148.647 30.3361 
327.595 148.254 30.076 314.325 150.691 31.1313 314.928 150.854 31.2859 
314.998 150.795 31.3793 315.257 150.876 31.3738 315.749 150.368 31.323 
325.69 148.84 30.2261 310.009 151.509 31.3148 314.156 151.082 31.2079 
315.787 150.761 31.3029 319.518 150.351 30.8587 317.354 151.071 31.0027 
316.866 151.176 31.1229 317.403 150.989 31.0663 318.064 150.78 31.0016 
309.898 152.215 31.7651 311.174 152.002 31.6705 314.346 151.789 31.503 
314.619 151.701 31.4964 315.218 151.54 31.3981 309.025 152.554 32.0956 
312.729 151.901 31.7244 313.398 151.82 31.6993 304.414 154.111 32.2018 
306.807 153.438 32.2536 307.553 153.158 32.2182 343.958 117.668 34.1076 
343.783 118.354 33.8481 344.227 117.868 33.7415 344.135 117.525 33.9786 
343.652 119.671 33.2572 343.349 120.013 33.3618 342.084 123.835 32.7945 
341.73 124.522 32.45 341.525 125.059 32.3806 340.979 126.909 32.26 
351.826 127.967 33.4858 349.788 130.486 32.568 350.189 129.968 32.88 
346.777 132.681 32.3071 348.986 131.542 32.2836 347.852 132.321 32.3356 
301.481 143.416 32.4494 302.311 143.525 32.4596 305.673 144.005 32.3145 
311.65 143.862 31.5796 288.072 144.281 33.1084 287.066 144.813 33.1394 
311.123 144.939 32.0108 309.145 147.254 32.6485 305.246 150.684 33.3883 
314.448 150.416 31.645 314.897 150.807 31.4936 306.192 152.153 33.1342 
314.019 151.08 31.7562 315.587 151.006 31.3904 316.459 150.874 31.2762 
285.243 154.077 33.741 315.328 151.312 31.4396 286.308 155.317 33.2184 
308.392 152.62 32.45 307.762 152.913 32.5773 310.776 151.986 32.0792 
312.795 151.731 31.8443 301.825 154.727 32.244 307.893 152.955 32.4828 
285.083 157.484 33.9323 294.633 156.252 32.5624 306.092 153.787 32.4362 
306.589 153.604 32.4644 301.664 155.363 32.6763 304.089 154.537 32.6868 
306.147 153.76 32.5861 286.088 158.681 33.5303 296.415 156.971 33.045 
298.48 156.426 32.9899 301.378 155.575 32.9095 303.56 154.728 32.8108 
287.506 158.894 33.3366 296.752 157.1 33.3288 297.794 156.716 33.285 
299.351 156.34 33.2023 299.335 156.315 33.0492 299.824 156.205 33.0588 
300.886 155.776 33.0282 299.602 156.295 33.1284 344.626 115.601 34.6695 
344.583 114.919 35.0325 344.976 115.437 34.5611 344.327 116.717 34.3616 
344.206 116.242 34.8659 345.549 115.381 34.4555 345.945 116.498 34.0587 
343.542 119.155 34.2236 343.34 119.77 33.7802 353.24 125.281 33.9607 
353.352 126.135 34.2494 353.717 125.632 34.5237 352.756 127.097 34.1258 
353.063 126.718 34.3417 351.803 128.047 33.7989 352.437 127.44 34.0532 
350.392 129.614 33.176 349.646 130.408 32.883 348.303 132.143 32.2864 
284.346 142.506 34.7971 285.224 142.432 34.7537 286.401 142.515 34.5509 
283.988 142.907 34.7595 294.439 143.402 33.464 301.509 143.671 32.8997 
303.11 143.767 32.6043 304.913 143.82 32.3018 283.92 143.466 34.6888 
301.935 143.847 32.959 302.787 144.11 32.9273 283.941 144.832 34.5344 
303.07 145.061 33.2517 283.91 145.53 34.4579 302.952 146.194 33.5047 
284.53 148.053 34.0602 284.814 150.404 34.1096 301.371 151.734 34.0501 
285.112 155.841 34.0583 306.52 153.038 32.8878 285.076 156.975 34.1352 
301.937 154.378 33.583 303.622 153.987 33.2849 284.988 157.708 34.1642 
[...]
POINT_DATA 1986
SCALARS scalars float
LOOKUP_TABLE default
1 1 1 1 1 1 1 1 1 
1 1 1 1 1 1 1 1 1 
1 1 1 1 1 1 1 1 1 
1 1 1 1 1 1 1 1 1 
1 1 1 1 1 1 1 1 1 
1 1 1 1 1 1 1 1 1 
1 1 1 1 1 1 1 1 1 
1 1 1 1 1 1 1 1 1 
1 1 1 1 1 1 1 1 1 
1 1 1 1 1 1 1 1 1 
1 1 1 1 1 1 1 1 1 
1 1 1 1 1 1 1 1 1 
1 1 1 1 1 1 1 1 1 
1 1 1 1 1 1 1 1 1 
1 1 1 1 1 1 1 1 1 
1 1 1 1 1 1 1 1 1 
1 1 1 1 1 1 1 1 1 
1 1 1 1 1 1 1 1 1 
1 1 1 1 1 1 1 1 1 
1 1 1 1 1 1 1 1 1 
1 1 1 1 1 1 1 1 1 
1 1 1 1 1 1 1 1 1 
1 1 1 1 1 1 1 1 1 
1 1 1 1 1 1 1 1 1 
1 1 1 1 1 1 1 1 1 
1 1 1 1 1 1 1 1 1 
1 1 1 1 1 1 1 1 1 
1 1 1 1 1 1 1 1 1 
1 1 1 1 1 1 1 1 1 
1 1 1 1 1 1 1 1 1 
1 1 1 1 1 1 1 1 1 
1 1 1 1 1 1 1 1 1 
1 1 1 1 1 1 1 1 1 
1 1 1 1 1 1 1 1 1 
1 1 1 1 1 1 1 1 1 
1 1 1 1 1 1 1 1 1 
1 1 1 1 1 1 1 1 1 
1 1 1 1 1 1 1 1 1 
1 1 1 1 1 1 1 1 1 
1 1 1 1 1 1 1 1 1 
1 1 1 1 1 1 1 1 1 
1 1 1 1 1 1 1 1 1 
1 1 1 1 1 1 1 1 1 
1 1 1 1 1 1 1 1 1 
1 1 1 1 1 1 1 1 1 
1 1 1 1 1 1 1 1 1 
1 1 1 1 1 1 1 1 1 
1 1 1 1 1 1 1 1 1 
1 1 1 1 1 1 1 1 1 
1 1 1 1 1 1 1 1 1 
1 1 1 1 1 1 1 1 1 
1 1 1 1 1 1 1 1 1 
1 1 1 1 1 1 1 1 1 
1 1 1 1 1 1 1 1 1 
1 1 1 1 1 1 1 1 1 
1 1 1 1 1 1 1 1 1 
1 1 1 1 1 1 1 1 1 
1 1 1 1 1 1 1 1 1 
1 1 1 1 1 1 1 1 1 
1 1 1 1 1 1 1 1 1 
1 1 1 1 1 1 1 1 1 
1 1 1 1 1 1 1 1 1 
1 1 1 1 1 1 1 1 1 
1 1 1 1 1 1 1 1 1 
1 1 1 1 1 1 1 1 1 
1 1 1 1 1 1 1 1 1 
1 1 1 1 1 1 1 1 1 
1 1 1 1 1 1 1 1 1 
1 1 1 1 1 1 1 1 1 
1 1 1 1 1 1 1 1 1 
1 1 1 1 1 1 1 1 1 
1 1 1 1 1 1 1 1 1 
1 1 1 1 1 1 1 1 1 
1 1 1 1 1 1 1 1 1 
1 1 1 1 1 1 1 1 1 
1 1 1 1 1 1 1 1 1 
1 1 1 1 1 1 1 1 1 
1 1 1 1 1 1 1 1 1 
1 1 1 1 1 1 1 1 1 
1 1 1 1 1 1 1 1 1 
1 1 1 1 1 1 1 1 1 
1 1 1 1 1 1 1 1 1 
1 1 1 1 1 1 1 1 1 
1 1 1 1 1 1 1 1 1 
1 1 1 1 1 1 1 1 1 
1 1 1 1 1 1 1 1 1 
1 1 1 1 1 1 1 1 1 
1 1 1 1 1 1 1 1 1 
1 1 1 1 1 1 1 1 1 
1 1 1 1 1 1 1 1 1 
1 1 1 1 1 1 1 1 1 
1 1 1 1 1 1 1 1 1 
1 1 1 1 1 1 1 1 1 
1 1 1 1 1 1 1 1 1 
1 1 1 1 1 1 1 1 1 
1 1 1 1 1 1 1 1 1 
1 1 1 1 1 1 1 1 1 
1 1 1 1 1 1 1 1 1 
1 1 1 1 1 1 1 1 1 
1 1 1 1 1 1 1 1 1 
1 1 1 1 1 1 1 1 1 
1 1 1 1 1 1 1 1 1 
1 1 1 1 1 1 1 1 1 
1 1 1 1 1 1 1 1 1 
1 1 1 1 1 1 1 1 1 
1 1 1 1 1 1 1 1 1 
1 1 1 1 1 1 1 1 1 
1 1 1 1 1 1 1 1 1 
1 1 1 1 1 1 1 1 1 
1 1 1 1 1 1 1 1 1 
1 1 1 1 1 1 1 1 1 
1 1 1 1 1 1 1 1 1 
1 1 1 1 1 1 1 1 1 
1 1 1 1 1 1 1 1 1 
1 1 1 1 1 1 1 1 1 
1 1 1 1 1 1 1 1 1 
1 1 1 1 1 1 1 1 1 
1 1 1 1 1 1 1 1 1 
1 1 1 1 1 1 1 1 1 
1 1 1 1 1 1 1 1 1 
1 1 1 1 1 1 1 1 1 
1 1 1 1 1 1 1 1 1 
1 1 1 1 1 1 1 1 1 
1 1 1 1 1 1 1 1 1 
1 1 1 1 1 1 1 1 1 
1 1 1 1 1 1 1 1 1 
1 1 1 1 1 1 1 1 1 
1 1 1 1 1 1 1 1 1 
1 1 1 1 1 1 1 1 1 
1 1 1 1 1 1 1 1 1 
1 1 1 1 1 1 1 1 1 
1 1 1 1 1 1 1 1 1 
1 1 1 1 1 1 1 1 1 
1 1 1 1 1 1 1 1 1 
1 1 1 1 1 1 1 1 1 
1 1 1 1 1 1 1 1 1 
1 1 1 1 1 1 1 1 1 
1 1 1 1 1 1 1 1 1 
1 1 1 1 1 1 1 1 1 
1 1 1 1 1 1 1 1 1 
1 1 1 1 1 1 1 1 1 
1 1 1 1 1 1 1 1 1 
1 1 1 1 1 1 1 1 1 
1 1 1 1 1 1 1 1 1 
1 1 1 1 1 1 1 1 1 
1 1 1 1 1 1 1 1 1 
1 1 1 1 1 1 1 1 1 
1 1 1 1 1 1 1 1 1 
1 1 1 1 1 1 1 1 1 
1 1 1 1 1 1 1 1 1 
1 1 1 1 1 1 1 1 1 
1 1 1 1 1 1 1 1 1 
1 1 1 1 1 1 1 1 1 
1 1 1 1 1 1 1 1 1 
1 1 1 1 1 1 1 1 1 
1 1 1 1 1 1 1 1 1 
1 1 1 1 1 1 1 1 1 
1 1 1 1 1 1 1 1 1 
1 1 1 1 1 1 1 1 1 
1 1 1 1 1 1 1 1 1 
1 1 1 1 1 1 1 1 1 
1 1 1 1 1 1 1 1 1 
1 1 1 1 1 1 1 1 1 
1 1 1 1 1 1 1 1 1 
1 1 1 1 1 1 1 1 1 
1 1 1 1 1 1 1 1 1 
1 1 1 1 1 1 1 1 1 
1 1 1 1 1 1 1 1 1 
1 1 1 1 1 1 1 1 1 
1 1 1 1 1 1 1 1 1 
1 1 1 1 1 1 1 1 1 
1 1 1 1 1 1 1 1 1 
1 1 1 1 1 1 1 1 1 
1 1 1 1 1 1 1 1 1 
1 1 1 1 1 1 1 1 1 
1 1 1 1 1 1 1 1 1 
1 1 1 1 1 1 1 1 1 
1 1 1 1 1 1 1 1 1 
1 1 1 1 1 1 1 1 1 
1 1 1 1 1 1 1 1 1 
1 1 1 1 1 1 1 1 1 
1 1 1 1 1 1 1 1 1 
1 1 1 1 1 1 1 1 1 
1 1 1 1 1 1 1 1 1 
1 1 1 1 1 1 1 1 1 
1 1 1 1 1 1 1 1 1 
1 1 1 1 1 1 1 1 1 
1 1 1 1 1 1 1 1 1 
1 1 1 1 1 1 1 1 1 
1 1 1 1 1 1 1 1 1 
1 1 1 1 1 1 1 1 1 
1 1 1 1 1 1 1 1 1 
1 1 1 1 1 1 1 1 1 
1 1 1 1 1 1 1 1 1 
1 1 1 1 1 1 1 1 1 
1 1 1 1 1 1 1 1 1 
1 1 1 1 1 1 1 1 1 
1 1 1 1 1 1 1 1 1 
1 1 1 1 1 1 1 1 1 
1 1 1 1 1 1 1 1 1 
1 1 1 1 1 1 1 1 1 
1 1 1 1 1 1 1 1 1 
1 1 1 1 1 1 1 1 1 
1 1 1 1 1 1 1 1 1 
1 1 1 1 1 1 1 1 1 
1 1 1 1 1 1 1 1 1 
1 1 1 1 1 1 1 1 1 
1 1 1 1 1 1 1 1 1 
1 1 1 1 1 1 1 1 1 
1 1 1 1 1 1 1 1 1 
1 1 1 1 1 1 1 1 1 
1 1 1 1 1 1 1 1 1 
1 1 1 1 1 1 1 1 1 
1 1 1 1 1 1 1 1 1 
1 1 1 1 1 1 1 1 1 
1 1 1 1 1 1 1 1 1 
1 1 1 1 1 1 1 1 1 
1 1 1 1 1 1 1 1 1 
1 1 1 1 1 1 1 1 1 
1 1 1 1 1 1 1 1 1 
1 1 1 1 1 1 
NORMALS Normals float
-0.404613 -0.701586 -0.586571 -0.206669 -0.234797 -0.94982 -0.456165 -0.702879 -0.545778 
-0.108918 -0.418019 -0.901885 -0.402718 -0.412018 -0.817349 -0.390455 -0.548877 -0.739107 
-0.326855 -0.775299 -0.540441 -0.169899 -0.33601 -0.926408 -0.301595 -0.385971 -0.871818 
-0.206329 -0.186319 -0.96058 -0.0363654 -0.064122 -0.997279 0.0215219 0.056351 -0.998179 
0.216436 0.0750819 -0.973405 0.0412168 0.072714 -0.996501 0.00618599 0.0984583 -0.995122 
0.0544046 0.218893 -0.974231 0.259398 0.161419 -0.952185 -0.0302422 0.155558 -0.987364 
0.244265 0.327374 -0.912777 0.0106279 -0.2773 -0.960725 -0.567073 -0.7517 -0.336713 
0.268771 0.0635395 -0.961106 -0.516576 -0.812093 -0.271394 -0.588157 -0.784449 -0.196751 
-0.59075 -0.800965 0.0973114 -0.469107 -0.876318 0.109571 -0.49462 -0.647942 -0.579242 
-0.53292 -0.825651 -0.185192 -0.208047 -0.816041 0.539253 -0.328538 -0.944463 -0.00721934 
-0.27959 -0.591182 -0.756527 -0.165682 -0.295909 -0.940737 -0.170805 -0.234751 -0.956931 
0.47951 0.24341 -0.843103 0.29654 0.349493 -0.888774 0.674401 0.410146 -0.613974 
0.427002 0.695467 -0.577923 0.179905 0.978801 -0.0978911 0.272965 0.554429 -0.786193 
0.441843 0.485368 -0.754449 0.564965 0.521019 -0.639808 0.647479 0.739783 -0.183006 
0.545826 0.737811 -0.397125 0.403775 0.256103 -0.878281 0.690117 0.437551 -0.576444 
-0.103733 0.184873 -0.977272 0.35506 0.429488 -0.830345 0.101493 0.389701 -0.915332 
0.59928 0.800539 -0.000467718 0.550318 0.689515 -0.47087 -0.12037 0.28037 -0.952315 
0.0520057 0.380589 -0.923281 0.286521 0.521069 -0.803985 0.507728 0.651404 -0.563813 
-0.0867807 0.423627 -0.90167 0.366767 0.686379 -0.627985 0.63654 0.770136 0.0413097 
0.138442 0.460315 -0.876894 -0.308376 -0.388968 -0.868106 -0.729762 -0.606727 -0.315165 
-0.784425 -0.554267 -0.278328 -0.23649 -0.401437 -0.884828 -0.272026 -0.501792 -0.821101 
-0.482109 -0.632315 -0.606423 -0.0750564 -0.298218 -0.951542 -0.49194 -0.571434 -0.656855 
-0.75685 -0.643593 -0.113866 -0.704701 -0.709303 -0.0168779 -0.265099 -0.397228 -0.878597 
-0.07071 -0.425873 -0.902016 -0.65769 -0.619878 0.428013 -0.155375 -0.313444 -0.936809 
-0.612803 -0.729402 0.304047 -0.465705 -0.657464 0.592335 -0.33913 -0.398398 0.852215 
-0.158512 -0.644402 -0.748078 -0.337722 -0.663135 -0.667979 -0.288114 -0.648546 -0.704542 
-0.310801 -0.598024 0.738763 -0.189398 -0.307279 0.932581 -0.530146 -0.83064 0.17024 
-0.425069 -0.858906 -0.285652 -0.152673 -0.17933 0.97187 0.529609 0.287256 -0.798122 
-0.261501 -0.784899 0.561739 -0.297789 -0.736568 0.60728 -0.192257 -0.514027 0.835951 
-0.23139 -0.955851 0.18113 -0.198448 -0.845537 0.495666 -0.0592038 -0.182693 0.981386 
0.76682 0.59576 -0.238866 -0.102142 -0.795647 -0.597087 -0.058466 -0.954507 -0.292399 
-0.26492 -0.925841 -0.26951 -0.062332 -0.374058 0.925308 0.613441 0.399231 -0.681399 
-0.159819 -0.586143 -0.794288 -0.129807 -0.960485 -0.246208 -0.19963 -0.675867 -0.709473 
0.611419 0.428309 -0.665371 0.671241 0.602969 -0.431119 0.677189 0.652262 -0.340543 
0.0145117 0.441632 0.897079 -0.0721957 0.274072 0.958996 0.179455 0.193029 -0.964643 
0.722333 0.690974 -0.0281248 -0.128407 -0.175728 -0.976028 -0.106417 -0.0695009 0.99189 
0.322775 0.738098 0.592476 -0.251485 0.611946 0.749852 -0.0498896 0.628063 -0.776561 
0.753942 0.607408 0.250254 0.395932 0.541695 0.741488 -0.341272 0.482117 0.806906 
-0.392223 0.802202 -0.450148 0.216003 0.249539 -0.943967 0.682888 0.725516 0.0853827 
0.898366 0.334688 -0.284468 0.769789 0.575136 -0.276846 0.53888 0.44547 0.714958 
-0.503252 0.640868 0.579677 -0.213153 0.337965 0.916703 0.462183 0.175039 -0.869338 
0.070781 -0.0863038 0.993751 0.406065 0.473865 0.781385 0.513273 0.476718 0.713646 
0.860123 0.498109 0.109887 0.590848 0.473501 -0.653219 0.00598499 0.634986 0.772501 
0.748305 0.458277 -0.479606 -0.0383308 0.125834 -0.991311 0.496176 0.556793 0.666176 
0.507445 0.553106 0.660737 0.581488 0.775806 0.244944 0.490806 0.419645 0.763549 
0.0683407 0.593262 -0.802103 0.53004 0.81489 0.234546 0.443088 0.579832 0.683717 
0.512013 0.822639 0.247198 0.0265717 0.619589 -0.784477 -0.0302715 0.611364 -0.79077 
0.434972 0.867693 -0.240643 0.0263868 0.549849 -0.834847 0.0719855 0.720138 -0.690087 
0.228105 0.946904 -0.226585 0.0945937 0.922031 -0.375382 -0.752214 -0.556269 -0.353184 
-0.658454 -0.621966 -0.423788 -0.761814 -0.445755 0.470045 -0.463602 -0.512665 -0.722667 
-0.766664 -0.625361 -0.14543 -0.381293 -0.4056 -0.830725 0.273145 -0.217924 -0.936964 
0.261031 0.0434656 -0.964351 -0.82289 -0.568096 -0.0109617 -0.72523 -0.441862 0.528014 
-0.323785 -0.249126 0.912743 0.377777 0.150814 -0.913531 -0.377866 -0.662388 0.646884 
0.301817 0.0590199 -0.951537 -0.239602 -0.458998 0.855519 -0.352757 -0.607514 0.71168 
0.641636 0.408519 -0.649165 0.660444 0.41566 -0.625332 0.673365 0.611441 -0.415596 
0.678694 0.730122 0.0793534 -0.10176 -0.803432 0.586637 0.779688 0.59018 0.209225 
0.603035 0.679369 0.418099 -0.0795106 -0.984744 0.154783 -0.1512 -0.987345 -0.0478314 
0.016476 -0.862148 0.506389 -0.00136648 -0.875782 0.482706 0.0363481 -0.743155 0.668131 
-0.0512439 -0.988856 0.139776 -0.0628333 -0.528867 0.846376 0.795606 0.463115 -0.390558 
0.709731 0.562352 -0.424313 0.588349 0.623207 0.515226 -0.0422626 -0.734058 -0.67777 
-0.00871667 -0.921593 -0.388061 -0.0756239 -0.953158 -0.292865 -0.193953 -0.942781 -0.271193 
-0.24619 -0.840528 -0.482601 0.595734 0.664645 0.450941 -0.2213 -0.519192 -0.825509 
-0.0221419 -0.30492 -0.952121 -0.160664 -0.489135 -0.857283 0.258327 0.311761 0.91437 
0.26714 0.37475 0.887805 0.129209 0.306841 0.942949 0.803213 0.542001 0.247151 
0.249478 0.222643 0.942439 0.602944 0.672732 0.428824 0.285259 0.374132 0.882413 
0.62857 0.236586 0.740896 -0.0370607 -0.293421 -0.955265 0.726304 0.669313 0.156534 
-0.169872 -0.0484031 -0.984277 0.127921 0.112661 0.985365 0.289959 0.251517 0.923398 
0.137481 0.141482 0.980348 0.285398 0.346976 0.893395 0.0626295 0.395615 -0.916279 
-0.192277 0.413327 -0.890051 0.182241 0.371126 0.910524 0.115658 0.308619 0.944128 
0.337049 0.941232 -0.0219191 0.408243 0.681457 0.607416 0.127036 0.710598 -0.692035 
-0.272976 0.961995 0.0071256 -0.497593 -0.0911312 -0.86261 -0.621426 0.389028 -0.680064 
0.253173 0.923262 0.288949 0.278599 0.815344 0.507541 -0.265798 -0.0253184 -0.963696 
-0.0691092 -0.0763824 -0.994681 0.0968331 0.748525 -0.655999 0.203796 0.940321 -0.272515 
0.234575 0.914608 0.329343 0.298839 0.953669 0.034807 0.258277 0.958987 -0.116775 
0.280855 0.957354 0.0677817 0.0232432 0.751295 -0.659558 -0.017065 0.534782 -0.844818 
0.0284105 0.835017 -0.54949 0.118387 0.966796 0.226475 -0.480518 -0.351288 -0.803554 
-0.708434 -0.329687 -0.624042 -0.354111 -0.389095 -0.850418 -0.765257 -0.351679 -0.53917 
-0.805161 -0.419231 -0.419477 0.130499 -0.35101 -0.927234 -0.836114 -0.472693 -0.278344 
-0.72583 -0.333604 0.601563 -0.825341 -0.421278 0.375948 -0.779058 -0.585075 -0.22529 
-0.252908 -0.0251891 0.967162 -0.273836 -0.115344 0.954835 -0.13295 0.328049 0.935258 
0.500589 0.0833334 -0.861665 0.650916 0.182303 -0.736935 0.39015 0.178431 -0.903297 
-0.081113 0.148529 0.985576 0.648654 0.382807 -0.657805 0.784357 0.517578 -0.341903 
0.767794 0.442643 -0.463206 -0.133322 0.388595 0.911712 0.773987 0.611223 -0.16538 
0.761035 0.642761 -0.0876592 0.00930183 0.23608 0.971689 0.0411256 0.421758 0.905775 
0.365811 0.573535 0.732967 0.231274 0.355257 0.905707 0.760607 0.649211 0.00105591 
0.175528 0.543875 0.820603 0.0192549 -0.74872 0.662606 -0.135724 -0.916451 0.376426 
-0.0446974 -0.864699 -0.500298 -0.219957 -0.555988 -0.801559 -0.0788763 -0.936527 -0.341609 
0.0147693 -0.967189 -0.253628 0.0346219 -0.966366 -0.254829 0.0547785 -0.959723 0.275555 
-0.0566383 -0.894163 0.444146 0.0563204 -0.564424 0.823562 -0.0533131 -0.637865 -0.768301 
-0.0746191 -0.401002 -0.913033 -0.218908 -0.246305 -0.944147 0.562918 0.511842 0.648954 
-0.167274 -0.208084 -0.963702 -0.278631 -0.0400954 -0.959561 -0.0810659 0.0439809 -0.995738 
-0.0506943 0.183632 -0.981687 -0.0639483 0.331441 -0.941306 0.270662 0.297451 0.915568 
0.181491 0.503652 0.844628 0.910784 0.330132 0.247962 0.207146 0.412473 0.887106 
0.178421 0.499819 0.847553 0.335193 0.329452 -0.882671 0.241381 -0.447136 -0.861281 
0.604179 -0.788557 -0.114652 0.193393 -0.886964 0.419397 -0.126693 0.190708 0.973437 
0.187124 0.661562 0.726168 -0.135703 0.428841 -0.893129 0.136931 0.249867 -0.958549 
-0.0995934 -0.349396 0.931667 0.28452 0.832938 0.47462 0.303773 0.936091 0.177358 
0.268336 0.646222 0.714418 0.292155 0.607422 0.738704 0.272622 0.708466 0.650963 
-0.0211335 0.663183 -0.748159 0.0553969 0.590005 -0.805497 0.217025 0.961561 0.168228 
0.217425 0.476958 0.851609 0.283872 0.727026 0.625179 0.33266 0.935601 0.118274 
0.125254 0.922802 0.364345 0.163062 0.542619 0.824 0.133921 0.462438 -0.876479 
0.177086 0.504716 -0.844928 0.250623 0.780972 -0.572076 -0.761954 -0.388849 -0.517902 
-0.780692 -0.371818 -0.502266 -0.139697 -0.408055 -0.902206 -0.48917 -0.420588 -0.76408 
-0.571186 -0.392032 -0.72115 -0.857291 -0.332532 -0.393034 -0.937189 -0.296528 0.183707 
-0.882572 -0.459313 -0.100491 -0.906257 -0.349856 0.237273 -0.601369 -0.0751349 0.795431 
0.767894 0.460618 -0.445163 0.800679 0.5982 0.0327193 0.745432 0.659872 0.0943434 
0.122048 0.560443 0.819151 0.697687 0.661182 0.275808 0.405337 0.731299 0.548546 
0.0387767 -0.981332 0.188371 0.126877 -0.933144 0.33637 0.106086 -0.563812 0.819062 
0.0587628 -0.604859 0.794161 -0.138354 -0.336901 -0.931319 -0.280015 -0.271873 -0.920693 
0.104182 -0.233378 0.966789 0.13221 -0.00878909 0.991183 0.075683 -0.00519247 0.997118 
0.305452 -0.0414675 0.951304 0.410899 -0.436444 0.800424 0.101538 0.165102 0.981036 
0.185467 0.0700512 0.98015 0.158256 -0.319991 0.934109 0.130859 0.0876943 0.987515 
-0.718915 -0.003169 -0.695091 0.200171 0.111227 0.973427 -0.207586 0.0548768 -0.976676 
0.33258 0.462302 0.82199 0.301713 0.257101 0.918079 0.202283 0.469503 0.859447 
0.126386 0.2447 0.961326 -0.00299452 0.314195 -0.949354 0.370644 0.68222 0.630237 
-0.692762 -0.0243942 -0.720754 0.0100996 0.306642 -0.951771 0.315468 0.901564 -0.296079 
0.38025 0.9243 -0.0328424 0.260072 0.834073 -0.486502 0.331436 0.796299 0.506021 
0.349825 0.73425 0.581807 -0.24067 0.054858 -0.969055 0.211721 0.669214 -0.712269 
0.17189 0.751111 -0.637405 0.383343 0.914171 0.131684 0.394274 0.860892 0.321579 
-0.120923 0.145732 -0.981906 0.345475 0.905964 -0.244697 0.284322 0.95246 -0.109462 
0.229388 0.903409 0.362261 0.157183 0.877306 -0.453462 0.310244 0.882969 -0.352299 
0.382928 0.921413 0.0660595 0.28083 0.95968 0.0121735 -0.38303 -0.204261 -0.900869 
-0.742477 -0.329558 -0.583197 -0.343865 -0.210351 -0.915155 -0.614274 -0.394635 -0.683323 
-0.938085 -0.277672 -0.207111 -0.138631 -0.285687 -0.948243 0.167964 -0.260605 -0.950723 
-0.943679 -0.286829 0.164923 -0.940215 -0.32054 -0.115106 0.511597 0.142868 -0.847264 
0.657603 0.317677 -0.68311 0.79536 0.461665 -0.39277 0.790237 0.567003 -0.232448 
0.818691 0.507747 -0.268213 0.587313 0.718952 0.371714 0.698232 0.713748 0.0551058 
0.389814 0.667478 0.634444 0.583316 0.663587 0.468396 0.474188 0.71227 0.51751 
-0.188572 -0.425635 -0.885028 0.0146133 -0.905416 -0.424273 0.0253022 -0.914345 -0.404145 
-0.30082 -0.226803 -0.926319 0.0893148 -0.980285 0.176251 0.0802035 -0.627795 0.774235 
0.195505 -0.678314 0.708285 0.184683 -0.55488 0.811172 -0.615482 -0.0697611 -0.785057 
0.128049 -0.491104 0.861638 0.259766 -0.561574 0.785593 -0.658348 -0.0648774 -0.749912 
0.167148 -0.30025 0.939102 -0.99125 0.0729912 -0.109984 0.0924713 -0.227379 0.969406 
-0.764154 0.0743401 -0.640736 -0.799279 0.0442901 -0.599326 0.142538 0.0489487 0.988578 
-0.988662 0.0307589 0.146976 0.162008 0.373742 0.913275 -0.97506 -0.0823511 0.206099 
0.221655 0.345093 0.91202 0.212184 0.413951 0.885225 -0.754098 -0.0550429 0.654451 
-0.94533 -0.0490364 -0.322408 0.289937 0.402105 0.868475 0.204029 0.598854 0.774432 
-0.9969 0.0410454 -0.0671261 0.311931 0.581542 0.751337 -0.791915 0.0597119 -0.607704 
-0.405023 0.0833998 -0.910495 -0.999756 -0.00624514 0.021169 0.338915 0.612542 0.714093 
0.579916 0.791279 -0.193843 0.319498 0.673497 0.666575 -0.985968 -0.130535 -0.104055 
-0.977071 -0.161801 -0.138391 0.247084 0.583679 -0.773478 0.853348 0.510727 -0.104667 
0.220556 0.664483 -0.714015 0.199605 0.35453 -0.913491 0.0829296 0.70074 -0.70858 
0.339806 0.794409 0.503434 -0.630022 -0.0401406 -0.775539 0.0730848 0.249468 -0.965621 
0.163527 0.514081 -0.842009 0.209768 0.852812 -0.478235 0.178745 0.702258 0.689118 
0.0534541 0.899813 -0.432988 0.0240669 0.0906558 -0.995591 0.443881 0.884005 0.146642 
0.256386 0.68719 0.679732 0.151869 0.42049 -0.894497 -0.840699 -0.130135 0.525633 
0.422655 0.855256 -0.299834 -0.406239 0.0342671 -0.913124 -0.971785 0.233487 -0.0334366 
0.0177134 0.278349 -0.960317 0.136999 0.502683 -0.853546 0.0837777 0.554696 -0.827824 
0.298124 0.720334 -0.626292 -0.557189 0.40368 -0.72566 -0.315729 0.270424 -0.909498 
0.307224 0.801164 -0.513566 0.323365 0.614895 -0.719263 -0.296545 -0.36576 -0.882202 
-0.689475 -0.352111 -0.632962 -0.850351 -0.259747 -0.45764 -0.0840678 -0.346618 -0.934232 
0.0563803 -0.306639 -0.950155 -0.81185 -0.129131 0.569408 -0.498547 0.136504 0.856048 
0.568686 0.0249002 -0.822178 0.765909 0.279283 -0.579124 0.647903 0.292078 -0.703501 
0.831291 0.473433 -0.291232 0.729645 0.583574 0.356454 0.706374 0.584854 0.398725 
0.203159 0.590349 0.781163 0.299352 0.588673 0.750901 0.494403 0.673497 0.549516 
0.546839 0.626763 0.555099 0.104026 0.544332 0.832395 -0.0455297 -0.773722 -0.631887 
-0.40918 -0.691332 -0.595509 -0.496274 -0.405228 -0.767791 -0.570266 -0.217881 -0.792039 
0.198777 -0.934535 0.295182 0.125107 -0.983211 -0.132836 0.183904 -0.891325 0.414391 
0.17337 -0.885947 0.430163 0.287017 -0.58452 0.758919 0.202088 -0.947114 0.249268 
0.269234 -0.694286 0.667442 0.0931646 -0.860227 0.501328 -0.93654 0.0947108 -0.337526 
-0.993884 0.101451 0.0436233 -0.929874 0.129754 0.344234 -0.805499 0.0180042 0.592323 
-0.8984 0.085517 0.430773 -0.811357 0.0206338 0.584186 -0.66559 -0.0126122 0.746211 
-0.835665 -0.020062 0.548873 0.0127561 0.0610849 0.998051 -0.963564 0.0443315 0.263779 
-0.746922 -0.0464164 0.66329 0.391749 0.202169 0.897586 -0.645541 -0.0928854 0.758056 
-0.714803 -0.138007 0.685574 0.136372 0.229676 0.963666 0.275659 0.38876 0.879135 
-0.490592 -0.0850527 0.867229 0.322304 0.374571 0.869377 0.367783 0.886738 0.280058 
-0.630256 0.546704 0.551264 0.355801 0.907414 -0.223618 0.394458 0.905561 0.156082 
-0.608242 0.286118 0.74039 -0.656367 0.460048 -0.597946 0.151922 0.477317 -0.865499 
0.31503 0.819938 -0.477973 0.364675 0.884362 0.291404 -0.159228 0.246549 0.95596 
0.115321 0.378783 -0.918273 -0.944512 -0.234347 -0.230171 -0.990183 -0.122348 0.0675872 
-0.865705 0.015067 0.500328 0.340699 -0.273156 -0.899617 -0.631211 0.0996117 0.769188 
0.42959 -0.133606 -0.893086 -0.435538 0.176296 0.882738 0.409976 0.0277115 -0.911675 
-0.336274 0.245987 0.909071 0.441646 -0.103833 -0.891161 0.541254 -0.0135409 -0.84075 
-0.130066 0.325166 0.93667 0.623236 0.075551 -0.778376 0.133024 0.46894 0.873155 
0.827033 0.399723 -0.39527 0.832794 0.491599 -0.254527 0.275947 0.569679 0.774157 
0.334921 0.650669 0.681512 0.78861 0.614378 -0.0251733 0.723479 0.658889 0.206018 
0.588731 0.678071 0.440017 0.121744 0.488322 0.86413 0.317601 0.538599 0.780411 