# vtk DataFile Version 4.2
vtk output
ASCII
DATASET POLYDATA
POINTS 1956 float
328.931 137.006 31.4066 324.803 138.76 31.6293 324.958 140.365 30.8477 
333.725 140.161 30.2092 329.671 141.683 30.194 335.862 142.139 30.6412 
338.559 141.176 31.119 326.195 143.643 30.4249 335.971 143.897 31.1992 
337.196 144.086 31.9007 334.817 133.314 31.9321 328.39 136.114 32.2153 
335.989 137.106 30.7519 341.746 137.145 31.5294 342.11 138.765 31.9209 
324.95 141.229 30.6666 320.247 142.671 31.3629 339.661 141.717 31.7799 
340.555 141.685 32.2924 324.401 147.183 31.2584 332.529 146.005 31.4898 
327.813 147.54 31.585 333.642 146.383 32.2808 320.939 148.722 31.8316 
331.211 147.437 32.2874 337.255 129.443 33.4266 338.626 130.188 32.5603 
344.772 131.576 32.5268 340.112 131.284 32.1059 331.659 133.613 33.0971 
329.351 134.954 32.9616 324.75 137.266 32.7001 345.526 136.707 33.0019 
319.206 139.693 33.2667 343.681 139.149 33.0981 341.184 141.754 32.9742 
339.464 143.184 33.1511 340.133 142.542 32.8838 337.992 144.199 32.8558 
336.347 145.215 32.6589 334.336 146.202 32.5342 312.166 148.365 32.3205 
318.632 148.18 31.8595 330.872 147.947 32.7432 329.289 148.787 32.8311 
322.887 150.534 33.1298 339.562 127.541 33.6975 341.132 126.639 33.7077 
342.534 127.797 33.1604 345.354 128.662 33.2194 334.271 131.259 33.7116 
334.766 130.851 33.8086 347.3 130.238 33.3574 332.611 132.481 33.7754 
326.708 135.86 33.5111 348.64 134.084 34.44 319.535 139.281 33.6173 
310.429 141.859 34.393 314.931 140.52 34.0694 309.49 143.192 33.6337 
309.754 144.612 32.9965 309.516 145.436 32.8308 311.328 145.206 32.5741 
305.806 146.53 33.1396 309.343 147.156 32.6511 336.359 145.4 33.5676 
337.606 144.66 33.5701 304.918 148.467 33.1479 308.331 149.014 32.8083 
331.959 147.689 33.2969 313.981 150.506 32.668 314.76 150.589 32.6607 
329.395 148.807 32.9776 305.625 152 33.4417 317.01 151.475 33.3592 
320.694 151.369 33.9656 326.351 150.028 33.4038 314.005 152.162 33.5777 
312.924 152.819 34.0467 317.167 152.402 34.3753 313.638 153.118 34.4262 
341.284 125.082 34.4336 337.087 128.523 34.3743 335.293 129.986 34.4792 
333.172 131.719 34.3602 350.419 130.189 34.7693 351.249 130.656 35.5649 
330.634 133.54 34.1856 329.196 134.529 33.7335 329.412 134.239 34.2164 
348.57 134.931 35.0111 345.633 137.991 34.393 305.137 142.033 35.2938 
309.98 141.442 34.9911 303.005 143.307 34.5744 306.071 143.039 34.2944 
301.316 144.107 34.4964 340.809 142.43 34.0206 301.12 145.652 34.0473 
337.01 144.963 34.3225 337.407 144.638 34.6474 338.078 144.321 34.4244 
332.311 147.496 34.1144 329.614 148.884 33.8499 329.961 148.736 33.9958 
330.93 148.216 33.9694 327.217 149.781 34.0507 318.576 152.346 35.0002 
307.016 153.952 34.2606 315.56 152.933 34.562 310.542 154.347 35.2448 
302.98 155.904 34.942 307.53 155.171 35.2652 296.691 156.883 34.8252 
305.268 156.054 35.5352 299.1 157.491 35.2326 301.483 157.615 35.8679 
340.825 122.325 36.2623 345.985 122.25 35.101 339.439 124.529 35.8403 
335.775 129.261 35.0506 334.646 130.226 35.2233 334.335 130.51 35.0921 
351.78 129.383 35.7039 331.924 132.541 34.7597 350.725 132.525 35.8005 
351.476 131.464 36.2613 322.782 137.467 34.6266 319.73 138.741 34.5228 
344.854 138.971 34.9842 295.764 142.926 36.3712 300.622 142.482 35.7347 
308.634 141.179 35.7437 343.601 140.246 34.9015 298.475 143.244 35.6094 
299.847 143.503 35.1276 299.891 144.217 34.7615 339.116 143.759 34.823 
340.324 142.742 34.9686 338.652 143.93 34.7724 331.555 147.819 34.336 
330.849 148.088 34.5871 327.105 149.792 34.4559 287.161 156.568 35.5761 
310.715 154.62 35.7546 314.289 153.591 35.4236 295.525 156.106 34.7047 
308.3 155.408 35.8034 289.013 158.647 35.4564 303.449 157.391 36.4409 
288.585 160.239 35.8969 290.208 160.501 35.9851 295.749 159.78 36.4129 
342.426 118.653 37.1671 343.867 117.973 36.8298 344.965 118.219 36.5209 
339.442 124.12 36.1598 338.822 125.235 35.9936 353.789 127.483 37.1174 
334.814 130.119 35.6753 353.142 128.631 36.8481 331.058 133.008 35.3609 
331.116 132.951 35.5932 332.148 132.304 35.179 329.998 133.767 35.6311 
351.117 132.421 36.4688 349.366 134.425 35.9958 324.533 136.61 35.0748 
348.733 135.098 35.7544 348.543 135.372 36.2009 323.985 136.874 35.3263 
347.554 136.244 36.6265 344.958 138.69 36.1476 305.241 141.251 36.3543 
307.705 140.934 36.4195 310.275 140.726 36.1479 343.482 140.142 35.6329 
291.541 145.556 35.6919 290.506 146.546 35.5881 336.345 144.821 35.3544 
337.543 143.989 35.6288 333.518 146.61 34.8041 332.008 147.039 35.2974 
287.669 150.339 35.5915 327.308 149.352 35.2958 284.088 154.563 36.9669 
317.723 152.802 35.7092 318.585 152.52 36.2588 319.922 152.066 35.7871 
285.098 156.267 36.3968 311.803 154.635 36.8995 312.461 154.375 36.608 
313.3 154.079 36.335 309.342 155.404 36.6191 283.853 158.8 37.3542 
307.119 156.24 36.6956 302.463 157.939 36.7031 284.961 160.894 37.0228 
294.979 160.562 36.9192 296.35 159.985 36.7901 284.362 162.507 37.7444 
287.406 162.963 37.45 288.888 162.795 37.3808 284.227 163.989 38.7999 
285.861 163.872 38.1464 342.009 118.259 37.7409 354.198 121.239 37.3879 
339.327 123.655 37.4376 338.89 124.694 36.8223 338.195 126.042 37.076 
336.411 128.684 36.6222 353.344 129.323 37.7438 332.356 132.281 35.9454 
332.593 132.371 36.4487 330.713 133.414 36.07 351.057 132.633 36.8194 
351.03 132.726 37.2192 328.888 134.443 35.6104 350.285 133.562 36.6873 
349.734 134.12 36.7887 321.619 138.039 36.143 315.211 139.657 36.5575 
301.222 141.408 37.044 305.482 140.82 37.4706 309.409 140.604 36.8753 
311.94 140.312 36.4961 313.893 139.944 36.6054 343.728 139.343 36.7167 
284.347 142.523 38.3892 293.663 141.834 37.9461 342.109 140.519 36.7372 
285.145 144.028 37.4225 339.407 142.551 36.2148 283.578 147.478 37.7331 
331.527 146.86 35.7463 283.132 150.394 38.0702 328.798 148.643 35.397 
326.795 149.043 36.0401 323.601 150.647 36.1412 323.807 150.736 35.7964 
318.32 152.529 36.7278 310.081 155.267 37.2019 312.387 154.449 37.2812 
314.026 153.909 36.7812 283.1 158.024 37.9375 307.707 156.165 37.1924 
292.38 162.017 37.7286 283.702 163.358 38.6814 287.919 163.762 38.2873 
285.148 164.479 39.0245 344.192 113.048 38.6813 345.565 112.325 38.6063 
341.434 118.174 38.484 340.064 121.982 38.3137 356.869 120.821 38.8861 
356.031 124.508 38.5705 338.058 126.891 37.9198 335.652 130.143 37.2159 
350.496 133.299 37.4356 350.406 133.21 37.93 327.824 135.605 36.6828 
323.68 137.568 36.9358 324.623 136.8 36.1966 349.115 134.592 37.4678 
347.394 135.797 37.7773 346.884 136.101 37.8775 345.099 137.69 37.4646 
283.1 142.273 39.3286 283.903 141.887 39.2772 312.239 140.176 36.848 
313.075 140.051 37.2241 283.101 142.398 39.237 294.153 141.505 38.4651 
342.757 139.386 37.3791 326.139 144.693 38.2959 332.511 144.255 37.1359 
337.347 143.327 36.4378 334.842 144.387 36.4407 282.719 148.787 38.5916 
282.503 148.486 38.9718 326.226 147.697 37.3158 324.97 149.236 36.899 
282.831 156.905 38.4012 313.843 153.898 37.4846 302.457 158.255 38.0279 
282.673 161.649 39.1297 293.82 161.712 38.0672 283.194 163.62 39.7111 
288.542 163.878 38.6896 285.064 164.723 39.5474 348.113 113.933 38.0908 
340.895 118.822 39.2027 357.615 120.457 39.4936 357.921 120.18 39.7915 
357.804 122.175 39.7196 357.786 122.328 39.7489 356.755 124.481 39.7186 
338.362 127.14 38.4953 355.646 126.462 39.4464 355.807 125.731 38.8706 
337.175 128.73 37.9407 353.547 129.416 38.98 333.679 132.232 37.2478 
353.142 129.986 38.9802 330.925 134.303 37.2509 323.884 137.692 37.213 
329.88 137.453 38.2457 347.721 135.162 38.2051 323.936 137.946 37.4589 
331.417 139.008 38.4491 315.307 139.966 37.91 283.017 142.367 39.3953 
283.252 142.059 39.9467 285.417 141.369 39.2261 303.345 140.826 39.0258 
309.836 140.61 38.4667 312.297 140.268 38.0007 328.219 140.478 38.4552 
292.403 141.334 39.433 294.471 141.244 39.3096 295.66 141.221 39.6145 
302.652 140.958 38.8813 282.333 143.588 39.7273 282.431 144.33 39.332 
338.6 141.149 37.5787 282.538 149.641 38.9156 323.871 149.553 37.1094 
282.805 152.947 38.639 318.534 151.89 37.7473 315.045 153.138 38.2992 
282.595 155.622 39.0089 309.815 155.333 38.4617 312.713 154.068 38.3941 
307.337 156.313 38.4393 307.939 156.011 38.7232 293.899 162.048 39.3659 
295.395 161.347 39.0944 282.912 163.449 40.006 282.757 163.184 40.0314 
282.798 163.379 40.2821 283.388 164.365 40.6902 283.898 164.717 40.3963 
283.696 164.684 40.6464 344.895 108.47 40.5178 344.382 108.217 40.8511 
343.774 109.119 40.8429 347.364 108.299 40.3318 341.896 114.443 40.3324 
341.585 116.088 39.7201 340.949 118.87 40.0956 359.237 118.245 41.113 
358.17 121.782 40.4489 339.127 130.551 39.5529 333.083 133.915 37.8991 
352.839 130.137 39.547 333.498 135.189 38.4127 328.168 137.219 37.9217 
348.013 134.137 39.0217 321 137.009 40.0174 321 137.009 40.0175 
321 137.009 40.0175 321 137.009 40.0175 321 137.009 40.0175 
305.794 140.767 38.8634 313.51 140.573 38.8841 285.313 141.108 39.9425 
288.661 140.979 40.8269 307.972 140.981 39.5735 318.862 143.983 39.9412 
318.162 146.233 40.1715 320.763 147.465 39.1943 282.167 149.145 40.211 
282.278 149.666 39.58 314.217 153.25 38.6716 282.274 156.861 40.0157 
282.375 160.633 39.7386 287.031 164.846 39.9968 288.317 164.407 39.9437 
341.578 115.271 40.693 341.127 119.688 40.8267 359.611 119.518 41.8944 
359.436 120.118 41.9587 357.961 122.758 40.8687 356.746 124.87 40.372 
356.197 125.67 40.5548 338.596 129.37 39.2132 351.942 130.678 39.8691 
350.893 131.555 39.8075 321 137.009 40.0175 314.082 140.886 39.4527 
318.864 140.468 38.7659 282.684 142.416 40.7661 282.44 142.709 40.8587 
292.315 141.198 40.7582 292.965 141.187 40.9084 293.294 141.182 40.6976 
293.956 141.28 40.8673 303.98 141.306 40.1613 306.77 141.214 39.9504 
282.35 142.864 41.1309 317.876 142.576 39.8757 282.083 144.345 40.6958 
282.119 148.444 41.1216 315.561 150.362 40.172 282.21 153.05 40.743 
315.861 151.548 39.4632 282.205 153.341 40.9715 315.588 152.183 39.1122 
[...]
POINT_DATA 1956
SCALARS scalars float
LOOKUP_TABLE default
1 1 1 1 1 1 1 1 1 
1 1 1 1 1 1 1 1 1 
1 1 1 1 1 1 1 1 1 
1 1 1 1 1 1 1 1 1 
1 1 1 1 1 1 1 1 1 
1 1 1 1 1 1 1 1 1 
1 1 1 1 1 1 1 1 1 
1 1 1 1 1 1 1 1 1 
1 1 1 1 1 1 1 1 1 
1 1 1 1 1 1 1 1 1 
1 1 1 1 1 1 1 1 1 
1 1 1 1 1 1 1 1 1 
1 1 1 1 1 1 1 1 1 
1 1 1 1 1 1 1 1 1 
1 1 1 1 1 1 1 1 1 
1 1 1 1 1 1 1 1 1 
1 1 1 1 1 1 1 1 1 
1 1 1 1 1 1 1 1 1 
1 1 1 1 1 1 1 1 1 
1 1 1 1 1 1 1 1 1 
1 1 1 1 1 1 1 1 1 
1 1 1 1 1 1 1 1 1 
1 1 1 1 1 1 1 1 1 
1 1 1 1 1 1 1 1 1 
1 1 1 1 1 1 1 1 1 
1 1 1 1 1 1 1 1 1 
1 1 1 1 1 1 1 1 1 
1 1 1 1 1 1 1 1 1 
1 1 1 1 1 1 1 1 1 
1 1 1 1 1 1 1 1 1 
1 1 1 1 1 1 1 1 1 
1 1 1 1 1 1 1 1 1 
1 1 1 1 1 1 1 1 1 
1 1 1 1 1 1 1 1 1 
1 1 1 1 1 1 1 1 1 
1 1 1 1 1 1 1 1 1 
1 1 1 1 1 1 1 1 1 
1 1 1 1 1 1 1 1 1 
1 1 1 1 1 1 1 1 1 
1 1 1 1 1 1 1 1 1 
1 1 1 1 1 1 1 1 1 
1 1 1 1 1 1 1 1 1 
1 1 1 1 1 1 1 1 1 
1 1 1 1 1 1 1 1 1 
1 1 1 1 1 1 1 1 1 
1 1 1 1 1 1 1 1 1 
1 1 1 1 1 1 1 1 1 
1 1 1 1 1 1 1 1 1 
1 1 1 1 1 1 1 1 1 
1 1 1 1 1 1 1 1 1 
1 1 1 1 1 1 1 1 1 
1 1 1 1 1 1 1 1 1 
1 1 1 1 1 1 1 1 1 
1 1 1 1 1 1 1 1 1 
1 1 1 1 1 1 1 1 1 
1 1 1 1 1 1 1 1 1 
1 1 1 1 1 1 1 1 1 
1 1 1 1 1 1 1 1 1 
1 1 1 1 1 1 1 1 1 
1 1 1 1 1 1 1 1 1 
1 1 1 1 1 1 1 1 1 
1 1 1 1 1 1 1 1 1 
1 1 1 1 1 1 1 1 1 
1 1 1 1 1 1 1 1 1 
1 1 1 1 1 1 1 1 1 
1 1 1 1 1 1 1 1 1 
1 1 1 1 1 1 1 1 1 
1 1 1 1 1 1 1 1 1 
1 1 1 1 1 1 1 1 1 
1 1 1 1 1 1 1 1 1 
1 1 1 1 1 1 1 1 1 
1 1 1 1 1 1 1 1 1 
1 1 1 1 1 1 1 1 1 
1 1 1 1 1 1 1 1 1 
1 1 1 1 1 1 1 1 1 
1 1 1 1 1 1 1 1 1 
1 1 1 1 1 1 1 1 1 
1 1 1 1 1 1 1 1 1 
1 1 1 1 1 1 1 1 1 
1 1 1 1 1 1 1 1 1 
1 1 1 1 1 1 1 1 1 
1 1 1 1 1 1 1 1 1 
1 1 1 1 1 1 1 1 1 
1 1 1 1 1 1 1 1 1 
1 1 1 1 1 1 1 1 1 
1 1 1 1 1 1 1 1 1 
1 1 1 1 1 1 1 1 1 
1 1 1 1 1 1 1 1 1 
1 1 1 1 1 1 1 1 1 
1 1 1 1 1 1 1 1 1 
1 1 1 1 1 1 1 1 1 
1 1 1 1 1 1 1 1 1 
1 1 1 1 1 1 1 1 1 
1 1 1 1 1 1 1 1 1 
1 1 1 1 1 1 1 1 1 
1 1 1 1 1 1 1 1 1 
1 1 1 1 1 1 1 1 1 
1 1 1 1 1 1 1 1 1 
1 1 1 1 1 1 1 1 1 
1 1 1 1 1 1 1 1 1 
1 1 1 1 1 1 1 1 1 
1 1 1 1 1 1 1 1 1 
1 1 1 1 1 1 1 1 1 
1 1 1 1 1 1 1 1 1 
1 1 1 1 1 1 1 1 1 
1 1 1 1 1 1 1 1 1 
1 1 1 1 1 1 1 1 1 
1 1 1 1 1 1 1 1 1 
1 1 1 1 1 1 1 1 1 
1 1 1 1 1 1 1 1 1 
1 1 1 1 1 1 1 1 1 
1 1 1 1 1 1 1 1 1 
1 1 1 1 1 1 1 1 1 
1 1 1 1 1 1 1 1 1 
1 1 1 1 1 1 1 1 1 
1 1 1 1 1 1 1 1 1 
1 1 1 1 1 1 1 1 1 
1 1 1 1 1 1 1 1 1 
1 1 1 1 1 1 1 1 1 
1 1 1 1 1 1 1 1 1 
1 1 1 1 1 1 1 1 1 
1 1 1 1 1 1 1 1 1 
1 1 1 1 1 1 1 1 1 
1 1 1 1 1 1 1 1 1 
1 1 1 1 1 1 1 1 1 
1 1 1 1 1 1 1 1 1 
1 1 1 1 1 1 1 1 1 
1 1 1 1 1 1 1 1 1 
1 1 1 1 1 1 1 1 1 
1 1 1 1 1 1 1 1 1 
1 1 1 1 1 1 1 1 1 
1 1 1 1 1 1 1 1 1 
1 1 1 1 1 1 1 1 1 
1 1 1 1 1 1 1 1 1 
1 1 1 1 1 1 1 1 1 
1 1 1 1 1 1 1 1 1 
1 1 1 1 1 1 1 1 1 
1 1 1 1 1 1 1 1 1 
1 1 1 1 1 1 1 1 1 
1 1 1 1 1 1 1 1 1 
1 1 1 1 1 1 1 1 1 
1 1 1 1 1 1 1 1 1 
1 1 1 1 1 1 1 1 1 
1 1 1 1 1 1 1 1 1 
1 1 1 1 1 1 1 1 1 
1 1 1 1 1 1 1 1 1 
1 1 1 1 1 1 1 1 1 
1 1 1 1 1 1 1 1 1 
1 1 1 1 1 1 1 1 1 
1 1 1 1 1 1 1 1 1 
1 1 1 1 1 1 1 1 1 
1 1 1 1 1 1 1 1 1 
1 1 1 1 1 1 1 1 1 
1 1 1 1 1 1 1 1 1 
1 1 1 1 1 1 1 1 1 
1 1 1 1 1 1 1 1 1 
1 1 1 1 1 1 1 1 1 
1 1 1 1 1 1 1 1 1 
1 1 1 1 1 1 1 1 1 
1 1 1 1 1 1 1 1 1 
1 1 1 1 1 1 1 1 1 
1 1 1 1 1 1 1 1 1 
1 1 1 1 1 1 1 1 1 
1 1 1 1 1 1 1 1 1 
1 1 1 1 1 1 1 1 1 
1 1 1 1 1 1 1 1 1 
1 1 1 1 1 1 1 1 1 
1 1 1 1 1 1 1 1 1 
1 1 1 1 1 1 1 1 1 
1 1 1 1 1 1 1 1 1 
1 1 1 1 1 1 1 1 1 
1 1 1 1 1 1 1 1 1 
1 1 1 1 1 1 1 1 1 
1 1 1 1 1 1 1 1 1 
1 1 1 1 1 1 1 1 1 
1 1 1 1 1 1 1 1 1 
1 1 1 1 1 1 1 1 1 
1 1 1 1 1 1 1 1 1 
1 1 1 1 1 1 1 1 1 
1 1 1 1 1 1 1 1 1 
1 1 1 1 1 1 1 1 1 
1 1 1 1 1 1 1 1 1 
1 1 1 1 1 1 1 1 1 
1 1 1 1 1 1 1 1 1 
1 1 1 1 1 1 1 1 1 
1 1 1 1 1 1 1 1 1 
1 1 1 1 1 1 1 1 1 
1 1 1 1 1 1 1 1 1 
1 1 1 1 1 1 1 1 1 
1 1 1 1 1 1 1 1 1 
1 1 1 1 1 1 1 1 1 
1 1 1 1 1 1 1 1 1 
1 1 1 1 1 1 1 1 1 
1 1 1 1 1 1 1 1 1 
1 1 1 1 1 1 1 1 1 
1 1 1 1 1 1 1 1 1 
1 1 1 1 1 1 1 1 1 
1 1 1 1 1 1 1 1 1 
1 1 1 1 1 1 1 1 1 
1 1 1 1 1 1 1 1 1 
1 1 1 1 1 1 1 1 1 
1 1 1 1 1 1 1 1 1 
1 1 1 1 1 1 1 1 1 
1 1 1 1 1 1 1 1 1 
1 1 1 1 1 1 1 1 1 
1 1 1 1 1 1 1 1 1 
1 1 1 1 1 1 1 1 1 
1 1 1 1 1 1 1 1 1 
1 1 1 1 1 1 1 1 1 
1 1 1 1 1 1 1 1 1 
1 1 1 1 1 1 1 1 1 
1 1 1 1 1 1 1 1 1 
1 1 1 1 1 1 1 1 1 
1 1 1 1 1 1 1 1 1 
1 1 1 1 1 1 1 1 1 
1 1 1 1 1 1 1 1 1 
1 1 1 1 1 1 1 1 1 
1 1 1 
NORMALS Normals float
-0.250236 -0.464317 -0.849583 -0.329167 -0.441375 -0.834768 -0.248431 -0.236033 -0.939452 
0.0265637 0.0132577 -0.999559 -0.0450426 -0.13341 -0.990037 0.214377 0.242802 -0.946092 
0.307668 0.158396 -0.938217 0.0185458 0.132483 -0.991012 0.22165 0.444647 -0.867848 
0.428561 0.581395 -0.691603 -0.272918 -0.505613 -0.818457 -0.386739 -0.628846 -0.674526 
0.0650283 -0.135194 -0.988683 0.327989 0.1059 -0.938727 0.425698 0.244077 -0.871325 
-0.324242 -0.185732 -0.927562 -0.179244 -0.24301 -0.953319 0.453937 0.58471 -0.672351 
0.485093 0.483449 -0.728671 -0.0232308 0.337888 -0.9409 0.227782 0.482459 -0.845783 
0.137687 0.533383 -0.834593 0.318056 0.811263 -0.490604 -0.0210903 0.420913 -0.906856 
0.293999 0.701569 -0.649126 -0.330978 -0.369851 -0.868138 -0.211239 -0.326052 -0.921449 
0.219222 -0.120775 -0.968171 -0.188274 -0.105194 -0.976467 -0.424874 -0.740969 -0.520045 
-0.297749 -0.742669 -0.599824 -0.361911 -0.735955 -0.572181 0.542917 0.307689 -0.781389 
-0.255269 -0.696722 -0.670385 0.601985 0.468297 -0.64677 0.575831 0.672338 -0.465166 
0.546431 0.776742 -0.313186 0.516543 0.7663 -0.382058 0.56934 0.76285 -0.306451 
0.484472 0.792583 -0.370269 0.368907 0.831979 -0.414391 -0.101325 0.185655 -0.977377 
-0.0393828 0.30452 -0.951692 0.337765 0.791671 -0.509089 0.305402 0.856022 -0.417079 
0.134031 0.788742 -0.599935 -0.337691 -0.629049 -0.700187 -0.315568 -0.419536 -0.851121 
0.0128488 -0.285781 -0.958209 0.0997453 -0.2356 -0.966718 -0.517473 -0.670553 -0.531583 
-0.423148 -0.659815 -0.620958 0.253448 -0.0912281 -0.963038 -0.465984 -0.753612 -0.463603 
-0.387243 -0.711556 -0.586286 0.726465 0.378198 -0.573772 -0.322144 -0.751566 -0.575649 
-0.149016 -0.640821 -0.753088 -0.247868 -0.804034 -0.540455 -0.198097 -0.553073 -0.809239 
-0.18285 -0.33602 -0.923935 -0.250015 -0.225773 -0.941551 -0.116551 -0.084581 -0.989577 
-0.109073 -0.137539 -0.984472 -0.156665 -0.0820415 -0.984238 0.419229 0.900267 0.117327 
0.525159 0.84317 -0.115205 -0.108099 0.0244306 -0.99384 -0.12118 0.0261723 -0.992285 
0.457606 0.873174 -0.167822 -0.158536 0.380999 -0.910882 0.0487331 0.464738 -0.884106 
0.334534 0.902161 -0.272384 -0.0853104 0.199339 -0.97621 0.133304 0.668338 -0.731816 
0.118883 0.729637 -0.673422 0.217403 0.865526 -0.451222 0.0506392 0.608252 -0.792127 
0.0964181 0.770423 -0.6302 0.162882 0.791749 -0.58873 0.109359 0.810598 -0.575302 
-0.172581 -0.440154 -0.881181 -0.397722 -0.785626 -0.473929 -0.457039 -0.786492 -0.415386 
-0.56154 -0.745723 -0.358567 0.533352 0.166664 -0.829313 0.625612 0.330995 -0.706436 
-0.462548 -0.848371 -0.257517 -0.423067 -0.834992 -0.351855 -0.454936 -0.841379 -0.291746 
0.723615 0.563716 -0.398253 0.714832 0.660117 -0.230781 -0.12246 -0.761735 -0.63621 
-0.179404 -0.793665 -0.5813 -0.191939 -0.443246 -0.87561 -0.102417 -0.486852 -0.86746 
-0.2119 -0.534987 -0.817855 0.55957 0.81518 -0.14954 -0.203157 -0.250065 -0.946676 
0.47879 0.869134 0.123961 0.367781 0.850956 0.374981 0.535194 0.831047 0.151421 
0.478446 0.85382 0.205136 0.322961 0.94567 0.0374859 0.358599 0.879487 0.312904 
0.472611 0.875507 -0.100634 0.416849 0.908232 0.0367647 0.276017 0.894378 -0.351998 
0.103797 0.54672 -0.830857 0.168165 0.779738 -0.6031 0.253956 0.819441 -0.513832 
0.0537777 0.459894 -0.886344 0.237688 0.728673 -0.642293 0.0425432 0.375783 -0.92573 
0.216673 0.696156 -0.684412 0.140673 0.310562 -0.940086 0.229479 0.747019 -0.623941 
-0.546782 -0.493884 -0.676098 0.0916337 -0.336109 -0.937355 -0.632979 -0.443916 -0.634253 
-0.610388 -0.761789 -0.217035 -0.580935 -0.782339 -0.224633 -0.675269 -0.736097 0.0466099 
0.689852 0.207633 -0.693536 -0.634427 -0.755993 -0.161174 0.736042 0.503478 -0.452496 
0.819993 0.401202 -0.408226 -0.402624 -0.911362 -0.0855201 -0.365193 -0.889153 -0.275757 
0.702775 0.710154 -0.0422836 -0.0876782 -0.664653 -0.74199 -0.233849 -0.653624 -0.719784 
-0.15013 -0.820618 -0.551404 0.623748 0.780689 0.0382421 -0.241819 -0.567617 -0.786978 
-0.261483 -0.624052 -0.736333 -0.220177 -0.354257 -0.908859 0.391034 0.844744 0.365375 
0.573489 0.805969 0.146711 0.473054 0.859263 0.194648 0.419498 0.851357 0.314982 
0.356483 0.822734 0.442752 0.368263 0.89878 0.23786 -0.245171 0.0733224 -0.966703 
0.461887 0.838839 -0.288115 0.211476 0.890901 -0.401963 -0.0407245 0.115956 -0.992419 
0.28471 0.78944 -0.543805 -0.163979 0.246221 -0.955241 0.354703 0.693644 -0.626932 
-0.0972751 0.225296 -0.969422 0.174447 0.397534 -0.900852 0.195078 0.700224 -0.686754 
-0.564023 -0.329926 -0.756985 -0.402631 -0.385388 -0.83028 -0.0942257 -0.304278 -0.947912 
-0.768168 -0.496048 -0.404789 -0.682587 -0.5482 -0.483272 0.744338 0.284415 -0.60421 
-0.714784 -0.689481 0.117049 0.855396 0.272008 -0.440805 -0.545123 -0.832015 -0.102921 
-0.587575 -0.804908 0.0829433 -0.636244 -0.768909 -0.06302 -0.562591 -0.809433 0.168253 
0.830691 0.490482 -0.263401 0.735201 0.646582 -0.203498 -0.435797 -0.899623 0.027575 
0.77306 0.6007 -0.203809 0.691886 0.717729 -0.0784796 -0.426158 -0.883706 0.193529 
0.662969 0.696987 0.273277 0.647223 0.726458 0.231 -0.0876013 -0.878038 -0.470505 
-0.141188 -0.945741 -0.292644 -0.159782 -0.925089 -0.344501 0.563069 0.746781 0.353937 
-0.0871987 -0.17467 -0.980758 -0.0468046 -0.208332 -0.976938 0.340808 0.794582 0.502482 
0.277197 0.799392 0.533043 0.472437 0.840721 0.264558 0.367825 0.730738 0.575089 
-0.194027 -0.0281333 -0.980593 0.458836 0.762107 0.456795 -0.642847 -0.0228902 -0.765653 
0.272146 0.955127 -0.116916 0.375642 0.919903 0.112571 0.29327 0.954306 -0.057391 
-0.501559 0.0553134 -0.863354 0.334357 0.91269 -0.234952 0.393497 0.910727 -0.125444 
0.190166 0.947543 -0.256905 0.291187 0.917769 -0.270019 -0.586481 0.123066 -0.800559 
0.262082 0.908322 -0.325982 0.199823 0.910011 -0.36325 -0.29561 0.242764 -0.923949 
0.211888 0.554745 -0.804588 0.174174 0.716101 -0.675916 -0.445702 0.337309 -0.8292 
-0.0148096 0.665436 -0.746308 0.119434 0.657297 -0.744107 -0.45663 0.669603 -0.585766 
-0.084085 0.64868 -0.756402 -0.609491 -0.411798 -0.677454 0.410449 -0.217278 -0.88562 
-0.909446 -0.403234 -0.101542 -0.830479 -0.493239 -0.25888 -0.841498 -0.503746 0.195245 
-0.761479 -0.577497 0.294358 0.858997 0.381254 -0.341715 -0.58282 -0.784941 0.21021 
-0.543164 -0.648697 0.533071 -0.586691 -0.730519 0.349479 0.815001 0.563822 -0.133709 
0.779021 0.61442 0.124956 -0.5128 -0.838939 0.182255 0.678262 0.733607 -0.0421949 
0.703358 0.70212 -0.110968 -0.311471 -0.898151 0.310339 -0.185724 -0.976289 0.111205 
-0.194814 -0.912442 -0.359857 -0.11113 -0.961007 -0.253212 -0.129972 -0.96189 -0.240573 
-0.214025 -0.972419 -0.0927023 -0.124063 -0.974058 0.189262 0.533682 0.736033 0.416459 
-0.288266 -0.519984 -0.804064 -0.0194439 -0.850798 -0.525133 0.450059 0.722181 0.525263 
-0.344221 -0.21823 -0.913175 0.298651 0.72129 0.624939 -0.645908 -0.0795257 -0.759262 
0.327192 0.689558 0.646107 -0.888205 0.0578881 -0.455785 0.347876 0.788946 0.506504 
0.42385 0.676473 0.602275 0.403165 0.812724 0.420639 0.386432 0.832351 0.397318 
0.371128 0.892087 0.257768 0.509307 0.85981 -0.0365158 0.456457 0.882192 0.115688 
0.296246 0.95473 0.0270124 -0.807048 0.0387312 -0.589214 0.343745 0.930642 -0.125481 
0.293713 0.799961 -0.523254 -0.622572 0.453857 -0.63751 0.0850447 0.831703 -0.548669 
-0.149684 0.85186 -0.501925 -0.251096 -0.354713 -0.900627 -0.0907409 -0.332965 -0.938563 
-0.846829 -0.29645 -0.441586 -0.943133 -0.204003 0.262454 0.538863 -0.140934 -0.830521 
0.709781 0.248587 -0.659103 -0.733017 -0.486678 0.475217 -0.632377 -0.474578 0.612271 
0.663563 0.742068 0.0949683 0.643636 0.712959 0.278247 -0.370392 -0.755122 0.540925 
-0.420977 -0.809375 0.4095 -0.291896 -0.8471 0.444093 0.660296 0.714276 0.23199 
0.539094 0.6737 0.505476 0.351652 0.666037 0.657826 0.438835 0.617399 0.652873 
-0.622552 -0.663486 -0.414989 -0.275881 -0.924848 -0.261812 -0.228937 -0.97077 -0.0720668 
-0.045461 -0.998074 0.0422111 -0.739416 -0.2492 -0.625431 0.020811 -0.892422 -0.450721 
0.386021 0.608573 0.693273 0.0984753 0.163504 0.981615 0.248685 0.440304 0.862721 
0.282611 0.708986 0.646119 0.190025 0.555983 0.80918 -0.837454 0.0465279 -0.544523 
-0.917512 -0.030473 -0.39654 0.339934 0.481094 0.80808 0.302925 0.522934 0.796729 
-0.832675 -0.00178965 -0.553759 0.344752 0.908775 0.235104 0.311132 0.908287 -0.279663 
-0.846769 0.170415 -0.503926 0.324509 0.792594 -0.516225 -0.698063 0.620433 -0.35745 
0.281218 0.860988 -0.423811 -0.0169806 0.973345 -0.228716 0.0724233 -0.333304 -0.940034 
-0.959136 -0.275426 0.0648062 0.720628 -0.0423719 -0.692026 0.608169 -0.169847 -0.775424 
0.821423 0.130991 -0.555072 0.861954 0.324486 -0.389543 0.783473 0.493269 -0.377963 
-0.812698 -0.341787 0.471915 0.837294 0.52449 -0.15443 0.841934 0.403295 -0.358469 
-0.737586 -0.300483 0.604712 0.887696 0.449778 -0.098465 -0.38768 -0.444295 0.807655 
0.762277 0.647198 0.00829328 -0.374864 -0.546546 0.748842 -0.24261 -0.709434 0.661698 
-0.0651345 -0.181809 0.981174 0.700824 0.577501 0.418734 -0.280191 -0.704035 0.652554 
0.0019403 0.0314155 0.999505 -0.0393564 -0.943396 0.329326 -0.889368 -0.236476 -0.391285 
-0.457248 -0.889326 0.00485272 -0.104367 -0.880521 -0.462375 -0.137137 -0.988503 0.0636767 
-0.0993626 -0.9927 0.0683582 -0.18011 -0.96608 0.185065 -0.0380074 0.0116145 0.99921 
0.00874641 -0.986949 -0.160793 -0.0494237 -0.997054 -0.0586496 0.0764122 -0.944988 -0.318055 
-0.143095 -0.988187 0.0548652 -0.920534 -0.233336 -0.313323 -0.90958 -0.0547434 -0.411907 
0.109497 0.427295 0.897457 -0.855992 0.0293596 -0.516154 0.319599 0.60236 0.731449 
-0.914679 0.0288986 -0.403147 0.406859 0.727108 0.552974 0.355739 0.824221 0.440579 
-0.947532 -0.0455701 -0.316397 0.411601 0.906528 0.0937621 0.377333 0.856897 0.351207 
0.326434 0.935407 0.135846 0.370814 0.862463 0.344462 0.409642 0.911622 0.0337476 
0.41741 0.90434 -0.0890954 -0.749823 0.610488 -0.25509 -0.911999 0.312474 -0.265738 
-0.812636 0.565894 -0.139237 -0.720404 0.632489 -0.284563 -0.401886 0.852745 -0.333637 
-0.437992 0.882304 -0.172345 -0.209588 -0.447338 -0.869461 -0.324622 -0.472051 -0.819627 
-0.680464 -0.33194 -0.653288 0.0492766 -0.464748 -0.884071 -0.918905 -0.31381 -0.239034 
-0.824335 -0.312656 -0.471931 -0.939793 -0.191511 0.283042 0.795247 -0.0494643 -0.604265 
0.85456 0.176765 -0.488345 -0.425368 -0.0325897 0.904433 -0.31835 -0.434671 0.842445 
0.691931 0.655594 0.302372 -0.221751 -0.202062 0.953938 -0.118 -0.283208 0.951771 
0.416648 0.622296 0.662686 0 -0.121763 -0.992559 0 -0.992432 -0.122797 
-0.849089 -0.520497 -0.0901731 0.849089 -0.520497 -0.0901731 0 0.184289 -0.982872 
-0.0128564 -0.935272 0.353696 -0.0953871 -0.909681 0.404205 -0.257622 -0.955159 -0.145954 
-0.0176662 -0.999071 -0.039305 -0.0263911 -0.871944 0.488893 0.20462 -0.127031 0.970564 
0.229106 0.174255 0.957677 0.21598 0.300267 0.929082 -0.978699 -0.00123004 -0.205295 
-0.966724 0.12126 -0.225255 0.304903 0.765472 0.566645 -0.98726 0.0899078 -0.131282 
-0.957584 0.105063 -0.268318 0.103023 0.921934 -0.373395 0.305139 0.930374 -0.20321 
-0.969029 -0.242706 -0.0455742 -0.857954 -0.0269288 0.51302 0.840975 0.192553 -0.505653 
0.874639 0.347458 -0.338054 0.886041 0.463442 -0.0123761 0.855644 0.513615 -0.0638227 
0.837984 0.532901 0.11747 -0.580352 -0.0234451 0.814028 0.573302 0.715328 0.399539 
0.501554 0.645166 0.576372 0 -0.229113 0.9734 -0.0223655 -0.688681 0.72472 
-0.0188088 -0.734922 0.67789 -0.519534 -0.854322 0.0147812 -0.88924 -0.418962 -0.183639 
-0.0189648 -0.994122 0.106589 -0.00647703 -0.991212 0.132123 0.0931284 -0.994187 0.0540383 
0.157602 -0.982725 0.0970253 0.0296826 -0.853491 0.520261 -0.0254109 -0.882488 0.469648 
-0.89686 -0.441046 0.0334635 0.160927 -0.291101 0.94306 -0.993496 -0.0825416 -0.0784345 
-0.998562 0.0370826 0.038702 0.272045 0.386791 0.881127 -0.99779 -0.0550265 -0.0372327 
0.326863 0.426188 0.843519 -0.999487 -0.0319326 -0.00233756 0.273201 0.568552 0.775958 
-0.999338 -0.036281 0.00251348 0.366808 0.801723 0.471902 0.34888 0.81209 0.467752 
-0.927239 0.374444 -0.00438597 0.433015 0.896895 -0.0898692 -0.813217 0.567756 -0.127798 
-0.547893 0.801221 -0.240537 -0.160226 0.977278 -0.138765 -0.574938 0.804627 -0.148398 
-0.186422 -0.423534 -0.886491 -0.966996 -0.19556 -0.163324 0.849817 -0.185776 -0.493252 
-0.98479 -0.13012 0.115144 -0.905435 -0.0618943 0.419949 0.944377 0.19001 -0.268418 
-0.699664 0.0536392 0.712456 -0.253092 0.24988 0.934615 0.650334 0.579994 0.490584 
-0.169905 0.405844 0.89801 -0.582445 -0.801784 -0.133792 -0.399982 -0.91551 0.0430782 
-0.185181 -0.978013 0.095904 -0.55247 -0.828859 0.0881483 -0.0466166 -0.917294 0.395473 
0.165335 -0.942944 0.289001 0.141304 -0.377328 0.915236 -0.989342 0.0142334 0.144911 
-0.952413 0.126964 0.277109 0.240694 0.119683 0.963194 -0.967231 0.00963704 0.253713 
-0.998014 0.0607563 0.016629 -0.983596 -0.0472312 0.174094 -0.99962 -0.0201288 0.0188363 
0.32278 0.637796 0.699306 -0.955569 0.103604 0.275961 0.359385 0.626535 0.69159 
0.331841 0.687195 0.646254 0.477948 0.805319 0.350753 0.221774 0.971652 0.0819081 
0.376291 0.913896 0.152312 -0.34533 -0.497339 -0.795865 -0.811654 0.0691168 0.580036 
0.995968 0.0453905 -0.0773841 0.929424 0.361123 0.0758994 -0.730642 0.204339 0.651466 
-0.412694 0.264317 0.871677 -0.478873 0.164104 0.86241 -0.237705 0.264727 0.934567 
0.55102 0.681536 0.481546 0.0840461 0.504661 0.859216 -0.602725 -0.795315 -0.0647774 
-0.61707 -0.764157 0.187852 -0.753381 -0.657282 -0.0199206 -0.0260179 -0.944884 0.326371 
0.212493 -0.909533 0.357208 0.0810202 -0.929457 0.359925 0.0147612 -0.736078 0.676736 
0.141661 -0.619643 0.771994 0.15475 -0.503917 0.849777 0.207774 -0.28855 0.934649 
-0.874651 -0.0523011 0.481924 -0.92625 -0.011304 0.37674 0.147384 0.25916 0.954523 
-0.931745 -0.00352033 0.363096 -0.909204 0.0711485 0.410227 0.418998 0.61841 0.664838 
-0.99095 0.0324315 0.130259 -0.969682 0.131318 0.206089 0.502749 0.701823 0.504665 
-0.970719 0.228594 0.0738266 0.428066 0.77069 0.472014 0.4075 0.707001 0.578008 
0.426904 0.828798 0.361727 0.363997 0.744781 0.559292 -0.882291 0.395351 -0.255459 
-0.159299 0.986984 0.022037 0.192332 0.969513 0.15183 -0.552829 0.758529 -0.344985 
-0.454462 0.879018 -0.144195 0.038991 -0.518443 -0.854223 0.232806 -0.408349 -0.88264 
0.464765 -0.324519 -0.823821 0.794372 -0.156989 -0.586794 -0.884528 0.111335 0.453005 
0.980447 -0.115055 -0.159641 -0.795015 0.14509 0.588983 -0.556754 0.208132 0.80418 
-0.389017 0.103781 0.915366 0.591439 0.596533 0.542538 0.443442 0.696296 0.564386 
-0.412573 -0.829527 0.376389 -0.165098 -0.952957 0.254195 -0.125127 -0.94259 0.309624 
-0.865433 -0.433454 0.251283 0.190567 -0.917593 0.348864 0.137079 -0.620591 0.77206 
0.0463944 -0.902769 0.427615 0.115006 -0.584687 0.803066 -0.916192 -0.391294 0.0864957 
0.205078 -0.754926 0.622921 -0.988113 0.0235349 0.151917 0.0758115 -0.130694 0.98852 
-0.897815 0.0791896 0.433194 0.0925612 0.059361 0.993936 0.164812 0.284931 0.944273 
-0.920557 0.0109123 0.390455 -0.861462 0.0269702 0.507105 0.315202 0.597062 0.737675 
-0.833648 0.145566 0.532767 -0.918449 0.270269 0.288802 0.32637 0.762444 0.558714 
0.414089 0.616442 0.669723 -0.897215 0.0594168 0.437579 -0.732351 0.0825471 0.675905 
-0.872675 0.467961 0.139466 -0.511723 0.854628 -0.0880425 -0.301537 0.952207 0.0487589 
-0.147226 0.979658 0.136363 -0.595696 -0.302545 -0.744052 -0.398091 -0.39651 -0.827226 
-0.673061 -0.171391 -0.719454 -0.646575 -0.249246 -0.720984 -0.413049 -0.379108 -0.828051 