# vtk DataFile Version 4.2
vtk output
ASCII
DATASET POLYDATA
POINTS 2002 float
330.946 140.466 38.4878 328.802 141.783 38.4446 334.142 141.29 38.6276 
328.625 145.411 38.5572 325.918 147.621 39.2471 327.69 147.744 39.4814 
328.746 147.253 39.2941 329.461 147.14 39.4934 328.973 147.35 39.3866 
333.502 136.309 39.3942 337.173 136.9 39.3155 327.153 139.056 39.3925 
337.887 138.403 39.3766 332.874 140.218 38.5544 339.282 139.498 40.0949 
338.856 140.42 40.3038 322.956 144.317 39.2223 336.94 141.746 39.7596 
337.495 141.596 40.0433 335.239 143.762 40.0179 330.019 146.929 39.6462 
322.178 148.729 40.266 327.764 147.954 39.7504 328.279 147.843 39.8879 
329.099 147.366 39.4851 325.263 148.789 40.2206 325.628 148.795 40.1182 
325.873 148.678 40.0372 325.75 148.772 40.0817 335.443 132.181 41.0627 
334.105 132.968 41.0518 335.281 132.813 40.6711 335.581 133.438 40.2678 
331.201 135.015 40.7012 328.117 136.339 40.8015 332.133 135.192 40.19 
336.595 134.704 39.7477 325.684 137.65 40.8766 343.275 135.155 40.804 
322.49 139.654 40.7537 322.91 139.021 41.0918 325.2 138.887 40.1041 
324.288 140.128 39.7951 338.841 138.839 39.7081 341.167 138.371 40.8127 
340.277 139.306 40.7807 340.899 138.789 40.9164 338.115 141.395 40.563 
336.249 142.883 39.9726 336.914 142.389 40.4158 334.672 144.215 40.0673 
334.876 144.054 40.3991 335.579 143.651 40.1728 335.806 143.407 40.1392 
336.13 143.069 40.0687 335.689 143.588 40.2483 318.498 147.954 40.4877 
325.802 148.82 40.5953 325.788 148.764 40.1847 318.739 150.224 41.3732 
319.788 150.471 41.6583 320.504 150.304 41.4303 339.318 128.102 42.0572 
338.862 128.344 42.1506 339.813 128.797 41.4846 340.922 127.743 41.7582 
338.216 129.589 41.5294 337.937 129.353 41.8496 342.837 128.394 41.4263 
335.19 132.004 41.4771 331.367 134.609 41.2005 332.763 133.716 41.3725 
329.529 135.675 41.0221 329.015 135.9 41.2096 330.285 135.285 41.1353 
330.958 134.86 41.3264 346.29 133.252 42.0445 323.554 138.513 41.2455 
344.727 135.144 41.6035 317.69 140.904 41.9264 342.062 137.983 41.4505 
318.497 142.537 40.7606 340.201 139.599 41.0816 337.683 141.763 40.7702 
334.117 144.485 40.6203 335.795 143.453 40.3917 333.533 144.905 40.5813 
331.074 146.385 40.5751 332.413 145.484 40.7223 329.032 147.641 40.4387 
328.751 147.672 40.7235 321.576 150.043 41.6174 322.971 149.581 41.5349 
317.211 151.438 42.4143 341.341 125.607 42.7341 341.956 125.516 42.5758 
342.869 124.73 42.716 340.472 126.095 42.9633 343.095 126.06 42.2066 
344.617 125.952 42.2543 339.291 127.723 42.4217 345.891 127.246 42.1229 
337.601 129.549 41.9368 337.972 129.058 42.1991 336.534 130.602 42.1063 
335.916 131.225 42.2203 347.741 129.492 42.4037 348.534 129.932 42.8253 
330.611 135.211 41.6338 325.757 137.213 41.6434 325.722 137.185 41.7666 
328.32 136.479 41.8432 347.746 132.234 42.7858 326.391 137.072 41.7587 
347.097 133.124 42.6893 324.098 138.044 41.8429 321.208 139.228 42.2279 
320.44 139.556 42.1539 344.766 135.646 41.9699 316.507 140.951 42.5004 
315.395 141.627 42.3905 342.598 137.511 41.7311 341.563 138.398 41.6201 
340.279 139.563 41.3404 340.947 138.897 41.6825 337.889 141.17 41.5851 
338.591 140.773 41.4712 336.982 142.014 41.3251 334.429 143.748 41.2852 
330.37 146.557 41.1114 326.364 148.607 41.2372 324.18 149.236 41.5897 
322.681 149.627 42.0667 318.104 151.41 42.7832 314.342 152.736 43.2984 
313.444 152.935 43.3963 341.719 123.24 44.0418 339.76 126.825 43.3425 
338.897 127.876 42.9021 335.962 131.302 42.525 335.383 131.867 42.3572 
350.19 128.206 43.5493 350.432 128.943 43.8725 331.35 134.835 41.7872 
348.635 131.377 43.3608 327.82 136.989 42.2054 347.514 132.883 43.0045 
347.464 133.076 43.2341 346.409 134 42.8018 322.646 138.703 42.2745 
345.043 135.355 42.4585 317.801 140.107 43.0042 317.654 140.113 43.0752 
317.547 140.185 43.0233 320.07 139.554 42.9305 344.28 135.7 42.944 
317.085 140.419 43.0923 318.356 140.037 42.9945 330.21 141.549 43.1294 
309.161 143.921 43.1522 335.159 141.802 42.2366 330.327 143.755 42.7516 
333.789 143.273 41.928 330.618 144.593 42.4205 330.486 145.88 41.7012 
321.173 150.161 42.5609 323.127 149.259 42.4208 306.448 152.706 43.2583 
317.124 151.852 43.5529 314.095 153.061 43.6998 305.983 154.658 43.9389 
306.686 155.354 44.5063 342.478 120.523 44.8748 343.052 120.98 44.2874 
343.628 120.896 44.147 341.382 123.621 44.36 351.103 122.696 44.3985 
341.044 124.443 44.3313 340.7 125.194 43.7895 340.304 125.992 43.8301 
338.493 128.684 43.2243 335.849 131.538 42.6159 350.973 128.833 44.2749 
337.204 132.833 43.5576 335.137 134.318 43.0375 349.122 131.096 43.7374 
332.312 135.768 42.6237 334.854 135.088 43.0539 337.441 134.58 43.5593 
349.006 131.295 43.9602 328.368 137.218 42.4794 347.187 133.346 43.3117 
348.044 132.379 43.786 326.979 137.952 42.6717 337.907 136.002 43.4545 
346.648 133.789 43.2331 321.905 139.32 43.0643 328.663 138.233 42.9113 
343.573 136.01 43.0718 344.567 135.145 43.3567 316.752 140.56 43.5627 
317.647 140.279 43.3714 329.974 139.288 43.1174 337.336 138.359 43.0094 
311.761 141.66 44.1371 341.203 137.74 42.6737 308.834 142.164 44.5561 
339.419 138.993 42.4872 303.828 143.13 44.8741 308.478 143.001 43.8448 
324.473 144.401 43.9013 301.44 148.204 43.5557 323.506 147.949 43.3174 
323.028 148.919 42.8882 314.035 153.168 43.9605 314.766 152.9 44.2415 
315.531 152.558 44.1883 310.408 154.425 44.6372 313.733 153.311 44.3176 
306.861 155.65 44.8157 307.933 155.487 45.1489 299.389 156.729 44.3279 
295.664 157.814 44.6024 296.98 158.496 44.9811 296.858 159.779 45.7716 
353.568 122.499 45.3717 341.158 124.572 44.7519 354.508 124.789 46.0119 
354.283 125.275 45.7499 354.257 125.483 45.7264 338.035 129.981 43.4627 
354.006 125.788 45.6371 354.201 125.585 45.7041 341.661 130.106 44.9547 
335.971 132.27 42.9907 337.94 132.074 43.7191 342.572 130.689 45.0558 
351.643 128.686 44.9939 343.495 131.274 45.086 349.524 130.763 44.4174 
348.544 131.708 44.1992 345.263 133.272 44.4306 342.959 134.726 43.9415 
345.766 133.63 44.099 342.83 135.348 43.6938 344.727 134.659 43.6774 
345.892 133.942 43.772 319.555 140.13 43.6647 320.56 140.39 43.8347 
343.39 135.597 43.4505 316.537 140.762 43.9789 314.221 141.28 44.2567 
302.186 142.528 45.7757 320.547 142.29 44.5613 293.292 144.005 45.8816 
297.258 143.534 45.7168 297.875 144.043 45.2948 322.538 148.715 43.3021 
319.753 150.27 43.7475 286.078 154.675 45.4183 315.649 152.451 44.6403 
316.147 152.131 44.7597 288.488 154.815 44.8374 294.652 154.39 44.0845 
314.18 153.141 44.6015 310.322 154.693 45.0712 310.77 154.589 45.2538 
311.155 154.419 45.3314 306.625 156.161 45.3663 307.011 156.109 45.6154 
307.691 155.825 45.6843 304.975 156.816 45.4116 304.51 157.215 45.8235 
290.602 158.498 44.9553 284.361 160.312 46.145 298.684 159.45 46.1045 
296.973 160.121 46.1411 298.18 159.784 46.2803 285.114 162.229 46.2726 
287.326 161.746 45.8531 289.823 162.155 46.1794 294.686 160.776 46.2587 
342.879 116.62 46.3695 342.515 118.437 46.0675 342.393 119.257 46.0017 
342.333 120.348 46.186 355.478 120.357 46.5589 355.861 120.976 46.6951 
356.117 121.496 46.8743 355.958 122.353 46.8711 340.126 127.737 44.3919 
354.274 125.493 45.8557 353.313 126.955 45.9216 352.18 128.199 45.4256 
352.599 127.743 45.959 345.472 130.448 45.5472 351.468 128.852 45.7002 
346.967 130.884 45.4525 347.707 131.345 45.096 348.635 131.023 45.0358 
319.112 140.512 43.945 291.143 143.106 46.9109 294.774 142.557 46.9438 
295.24 142.457 47.0683 302.083 142.318 46.0717 310.558 141.677 45.0199 
297.571 142.605 46.562 287.059 148.319 45.7121 284.459 153.216 46.3219 
316.963 151.568 44.8719 315.773 152.05 45.2439 283.638 155.42 46.7661 
309.362 155.12 45.3825 309.887 154.951 45.4628 283.38 157.56 46.7967 
282.804 157.718 47.3917 310.141 154.834 45.8751 282.725 159.242 47.1969 
283.404 159.143 46.6545 299.517 159.555 46.932 289.09 161.585 45.7784 
296.942 160.464 46.5895 297.491 160.466 46.9958 294.741 161.22 46.7247 
283.377 163.404 47.3166 283.798 163.807 47.3037 282.972 164.588 48.0209 
283.714 164.317 47.5876 284.746 163.999 47.222 289.61 163.427 47.3973 
283.234 164.764 48.0214 286.631 164.296 47.5917 344.125 111.382 47.7932 
344.586 111.89 47.4584 343.833 112.945 47.2834 356.462 119.774 47.3588 
342.292 122.363 46.0173 342.65 121.432 46.5587 356.612 120.238 47.4686 
356.691 120.607 47.6337 356.321 121.411 47.1272 343.914 124.737 46.6169 
356.372 122.054 47.5369 355.936 123.015 47.1817 356.17 122.638 47.4859 
354.352 125.545 46.6417 354.098 125.836 46.7658 349.138 127.523 47.0222 
352.9 127.052 46.6907 350.284 128.657 46.4116 351.027 129.067 45.8031 
351.519 128.605 46.0276 347.873 130.416 45.6232 349.911 129.608 45.7633 
351.079 128.762 46.1276 316.609 141.207 44.5466 305.639 141.931 46.765 
307.131 141.984 46.5062 310.117 141.911 45.827 284.748 143.707 48.6687 
288.456 142.524 48.0641 293.097 142.158 47.9198 301.459 142.037 47.4124 
300.958 142.085 47.0376 302.313 142.098 46.5795 311.865 142.418 46.1468 
312.147 143.246 46.6209 284.156 145.095 48.0116 284.715 145.844 47.2836 
283.735 146.673 47.8082 285.724 145.979 46.7211 315.462 151.601 45.858 
313.049 153.159 45.984 313.607 152.685 46.1073 311.376 153.863 46.5267 
307.404 156.076 46.4071 282.485 158.479 47.731 303.323 157.966 46.9675 
301.768 158.58 46.79 300.201 159.363 47.339 282.423 162.857 47.945 
295.691 161.288 47.3797 282.67 163.797 47.9303 282.431 163.977 48.3133 
290.735 163.332 47.8899 287.871 164.326 48.1932 282.647 164.894 48.472 
285.924 164.79 48.0097 282.791 165.057 48.4435 282.709 165.092 48.5035 
283.006 165.193 48.7056 282.81 165.174 48.5322 282.75 165.153 48.4917 
343.63 110.578 48.4753 343.377 111.413 48.3018 342.867 112.971 48.256 
342.725 115.41 47.8788 356.974 117.012 48.6959 357.243 117.213 48.8791 
357.35 117.464 48.9839 356.839 119.294 47.9007 345.497 121.656 48.1371 
343.389 122.386 46.9373 356.823 120.546 48.0684 357.072 119.911 48.553 
[...]
POINT_DATA 2002
SCALARS scalars float
LOOKUP_TABLE default
1 1 1 1 1 1 1 1 1 
1 1 1 1 1 1 1 1 1 
1 1 1 1 1 1 1 1 1 
1 1 1 1 1 1 1 1 1 
1 1 1 1 1 1 1 1 1 
1 1 1 1 1 1 1 1 1 
1 1 1 1 1 1 1 1 1 
1 1 1 1 1 1 1 1 1 
1 1 1 1 1 1 1 1 1 
1 1 1 1 1 1 1 1 1 
1 1 1 1 1 1 1 1 1 
1 1 1 1 1 1 1 1 1 
1 1 1 1 1 1 1 1 1 
1 1 1 1 1 1 1 1 1 
1 1 1 1 1 1 1 1 1 
1 1 1 1 1 1 1 1 1 
1 1 1 1 1 1 1 1 1 
1 1 1 1 1 1 1 1 1 
1 1 1 1 1 1 1 1 1 
1 1 1 1 1 1 1 1 1 
1 1 1 1 1 1 1 1 1 
1 1 1 1 1 1 1 1 1 
1 1 1 1 1 1 1 1 1 
1 1 1 1 1 1 1 1 1 
1 1 1 1 1 1 1 1 1 
1 1 1 1 1 1 1 1 1 
1 1 1 1 1 1 1 1 1 
1 1 1 1 1 1 1 1 1 
1 1 1 1 1 1 1 1 1 
1 1 1 1 1 1 1 1 1 
1 1 1 1 1 1 1 1 1 
1 1 1 1 1 1 1 1 1 
1 1 1 1 1 1 1 1 1 
1 1 1 1 1 1 1 1 1 
1 1 1 1 1 1 1 1 1 
1 1 1 1 1 1 1 1 1 
1 1 1 1 1 1 1 1 1 
1 1 1 1 1 1 1 1 1 
1 1 1 1 1 1 1 1 1 
1 1 1 1 1 1 1 1 1 
1 1 1 1 1 1 1 1 1 
1 1 1 1 1 1 1 1 1 
1 1 1 1 1 1 1 1 1 
1 1 1 1 1 1 1 1 1 
1 1 1 1 1 1 1 1 1 
1 1 1 1 1 1 1 1 1 
1 1 1 1 1 1 1 1 1 
1 1 1 1 1 1 1 1 1 
1 1 1 1 1 1 1 1 1 
1 1 1 1 1 1 1 1 1 
1 1 1 1 1 1 1 1 1 
1 1 1 1 1 1 1 1 1 
1 1 1 1 1 1 1 1 1 
1 1 1 1 1 1 1 1 1 
1 1 1 1 1 1 1 1 1 
1 1 1 1 1 1 1 1 1 
1 1 1 1 1 1 1 1 1 
1 1 1 1 1 1 1 1 1 
1 1 1 1 1 1 1 1 1 
1 1 1 1 1 1 1 1 1 
1 1 1 1 1 1 1 1 1 
1 1 1 1 1 1 1 1 1 
1 1 1 1 1 1 1 1 1 
1 1 1 1 1 1 1 1 1 
1 1 1 1 1 1 1 1 1 
1 1 1 1 1 1 1 1 1 
1 1 1 1 1 1 1 1 1 
1 1 1 1 1 1 1 1 1 
1 1 1 1 1 1 1 1 1 
1 1 1 1 1 1 1 1 1 
1 1 1 1 1 1 1 1 1 
1 1 1 1 1 1 1 1 1 
1 1 1 1 1 1 1 1 1 
1 1 1 1 1 1 1 1 1 
1 1 1 1 1 1 1 1 1 
1 1 1 1 1 1 1 1 1 
1 1 1 1 1 1 1 1 1 
1 1 1 1 1 1 1 1 1 
1 1 1 1 1 1 1 1 1 
1 1 1 1 1 1 1 1 1 
1 1 1 1 1 1 1 1 1 
1 1 1 1 1 1 1 1 1 
1 1 1 1 1 1 1 1 1 
1 1 1 1 1 1 1 1 1 
1 1 1 1 1 1 1 1 1 
1 1 1 1 1 1 1 1 1 
1 1 1 1 1 1 1 1 1 
1 1 1 1 1 1 1 1 1 
1 1 1 1 1 1 1 1 1 
1 1 1 1 1 1 1 1 1 
1 1 1 1 1 1 1 1 1 
1 1 1 1 1 1 1 1 1 
1 1 1 1 1 1 1 1 1 
1 1 1 1 1 1 1 1 1 
1 1 1 1 1 1 1 1 1 
1 1 1 1 1 1 1 1 1 
1 1 1 1 1 1 1 1 1 
1 1 1 1 1 1 1 1 1 
1 1 1 1 1 1 1 1 1 
1 1 1 1 1 1 1 1 1 
1 1 1 1 1 1 1 1 1 
1 1 1 1 1 1 1 1 1 
1 1 1 1 1 1 1 1 1 
1 1 1 1 1 1 1 1 1 
1 1 1 1 1 1 1 1 1 
1 1 1 1 1 1 1 1 1 
1 1 1 1 1 1 1 1 1 
1 1 1 1 1 1 1 1 1 
1 1 1 1 1 1 1 1 1 
1 1 1 1 1 1 1 1 1 
1 1 1 1 1 1 1 1 1 
1 1 1 1 1 1 1 1 1 
1 1 1 1 1 1 1 1 1 
1 1 1 1 1 1 1 1 1 
1 1 1 1 1 1 1 1 1 
1 1 1 1 1 1 1 1 1 
1 1 1 1 1 1 1 1 1 
1 1 1 1 1 1 1 1 1 
1 1 1 1 1 1 1 1 1 
1 1 1 1 1 1 1 1 1 
1 1 1 1 1 1 1 1 1 
1 1 1 1 1 1 1 1 1 
1 1 1 1 1 1 1 1 1 
1 1 1 1 1 1 1 1 1 
1 1 1 1 1 1 1 1 1 
1 1 1 1 1 1 1 1 1 
1 1 1 1 1 1 1 1 1 
1 1 1 1 1 1 1 1 1 
1 1 1 1 1 1 1 1 1 
1 1 1 1 1 1 1 1 1 
1 1 1 1 1 1 1 1 1 
1 1 1 1 1 1 1 1 1 
1 1 1 1 1 1 1 1 1 
1 1 1 1 1 1 1 1 1 
1 1 1 1 1 1 1 1 1 
1 1 1 1 1 1 1 1 1 
1 1 1 1 1 1 1 1 1 
1 1 1 1 1 1 1 1 1 
1 1 1 1 1 1 1 1 1 
1 1 1 1 1 1 1 1 1 
1 1 1 1 1 1 1 1 1 
1 1 1 1 1 1 1 1 1 
1 1 1 1 1 1 1 1 1 
1 1 1 1 1 1 1 1 1 
1 1 1 1 1 1 1 1 1 
1 1 1 1 1 1 1 1 1 
1 1 1 1 1 1 1 1 1 
1 1 1 1 1 1 1 1 1 
1 1 1 1 1 1 1 1 1 
1 1 1 1 1 1 1 1 1 
1 1 1 1 1 1 1 1 1 
1 1 1 1 1 1 1 1 1 
1 1 1 1 1 1 1 1 1 
1 1 1 1 1 1 1 1 1 
1 1 1 1 1 1 1 1 1 
1 1 1 1 1 1 1 1 1 
1 1 1 1 1 1 1 1 1 
1 1 1 1 1 1 1 1 1 
1 1 1 1 1 1 1 1 1 
1 1 1 1 1 1 1 1 1 
1 1 1 1 1 1 1 1 1 
1 1 1 1 1 1 1 1 1 
1 1 1 1 1 1 1 1 1 
1 1 1 1 1 1 1 1 1 
1 1 1 1 1 1 1 1 1 
1 1 1 1 1 1 1 1 1 
1 1 1 1 1 1 1 1 1 
1 1 1 1 1 1 1 1 1 
1 1 1 1 1 1 1 1 1 
1 1 1 1 1 1 1 1 1 
1 1 1 1 1 1 1 1 1 
1 1 1 1 1 1 1 1 1 
1 1 1 1 1 1 1 1 1 
1 1 1 1 1 1 1 1 1 
1 1 1 1 1 1 1 1 1 
1 1 1 1 1 1 1 1 1 
1 1 1 1 1 1 1 1 1 
1 1 1 1 1 1 1 1 1 
1 1 1 1 1 1 1 1 1 
1 1 1 1 1 1 1 1 1 
1 1 1 1 1 1 1 1 1 
1 1 1 1 1 1 1 1 1 
1 1 1 1 1 1 1 1 1 
1 1 1 1 1 1 1 1 1 
1 1 1 1 1 1 1 1 1 
1 1 1 1 1 1 1 1 1 
1 1 1 1 1 1 1 1 1 
1 1 1 1 1 1 1 1 1 
1 1 1 1 1 1 1 1 1 
1 1 1 1 1 1 1 1 1 
1 1 1 1 1 1 1 1 1 
1 1 1 1 1 1 1 1 1 
1 1 1 1 1 1 1 1 1 
1 1 1 1 1 1 1 1 1 
1 1 1 1 1 1 1 1 1 
1 1 1 1 1 1 1 1 1 
1 1 1 1 1 1 1 1 1 
1 1 1 1 1 1 1 1 1 
1 1 1 1 1 1 1 1 1 
1 1 1 1 1 1 1 1 1 
1 1 1 1 1 1 1 1 1 
1 1 1 1 1 1 1 1 1 
1 1 1 1 1 1 1 1 1 
1 1 1 1 1 1 1 1 1 
1 1 1 1 1 1 1 1 1 
1 1 1 1 1 1 1 1 1 
1 1 1 1 1 1 1 1 1 
1 1 1 1 1 1 1 1 1 
1 1 1 1 1 1 1 1 1 
1 1 1 1 1 1 1 1 1 
1 1 1 1 1 1 1 1 1 
1 1 1 1 1 1 1 1 1 
1 1 1 1 1 1 1 1 1 
1 1 1 1 1 1 1 1 1 
1 1 1 1 1 1 1 1 1 
1 1 1 1 1 1 1 1 1 
1 1 1 1 1 1 1 1 1 
1 1 1 1 1 1 1 1 1 
1 1 1 1 1 1 1 1 1 
1 1 1 1 1 1 1 1 1 
1 1 1 1 1 1 1 1 1 
1 1 1 1 1 1 1 1 1 
1 1 1 1 
NORMALS Normals float
-0.0224698 -0.17098 -0.985018 -0.162156 -0.112836 -0.980293 0.196672 0.0856865 -0.976718 
0.0749373 0.174717 -0.981763 -0.074594 0.428248 -0.900577 0.175992 0.705828 -0.686173 
0.262418 0.370555 -0.890969 0.430389 0.624024 -0.652195 0.364036 0.423212 -0.82968 
-0.0920171 -0.296688 -0.950531 0.0905795 -0.129933 -0.987377 -0.171544 -0.383366 -0.907526 
0.305373 0.160471 -0.938614 0.0302474 -0.167412 -0.985423 0.454326 0.400016 -0.795974 
0.705831 0.641765 -0.299901 -0.283934 -0.051372 -0.957467 0.493332 0.549654 -0.674169 
0.482828 0.567082 -0.667305 0.411336 0.811787 -0.414494 0.45783 0.672849 -0.58109 
-0.0738239 0.521481 -0.850064 0.237809 0.836606 -0.493494 0.272742 0.886863 -0.372942 
0.521755 0.612323 -0.593997 0.0316043 0.879315 -0.47519 -0.00901681 0.95028 -0.311266 
0.303601 0.773044 -0.556982 0.109388 0.743378 -0.659866 -0.200874 -0.515623 -0.832936 
-0.393664 -0.617991 -0.680526 -0.329259 -0.543506 -0.772133 -0.131595 -0.410183 -0.902459 
-0.451094 -0.661787 -0.598793 -0.385561 -0.858768 -0.337433 -0.344221 -0.510045 -0.788267 
-0.0567025 -0.321085 -0.945351 -0.44055 -0.693576 -0.569972 0.374049 0.159068 -0.913665 
-0.345242 -0.515586 -0.784207 -0.42123 -0.71496 -0.55803 -0.348361 -0.447133 -0.823843 
-0.33054 -0.45049 -0.829338 0.39955 0.228519 -0.887772 0.595034 0.517174 -0.615196 
0.569669 0.461913 -0.67979 0.658473 0.623045 -0.42217 0.629997 0.7758 -0.0351882 
0.495104 0.480122 -0.724124 0.670414 0.729209 -0.137109 0.509157 0.828837 -0.231925 
0.541249 0.813826 0.211512 0.472214 0.866989 -0.159198 0.642947 0.645682 -0.411964 
0.797446 0.60255 -0.031837 0.544977 0.833448 0.0914514 -0.135348 0.311867 -0.940436 
0.258428 0.959758 -0.109907 0.258673 0.962329 -0.083727 -0.0290363 0.620951 -0.783311 
0.0666164 0.811425 -0.580648 0.135887 0.87184 -0.470564 -0.240542 -0.594339 -0.767398 
-0.497884 -0.593906 -0.631971 -0.16025 -0.431696 -0.88767 -0.180607 -0.425349 -0.886825 
-0.358832 -0.516706 -0.777338 -0.371514 -0.657215 -0.655779 0.0423418 -0.216199 -0.975431 
-0.554436 -0.705729 -0.441076 -0.513603 -0.856151 0.0567319 -0.552752 -0.805484 -0.213682 
-0.385057 -0.85359 -0.350876 -0.371569 -0.892076 0.257172 -0.522326 -0.791484 -0.317376 
-0.512778 -0.858478 0.008582 0.598339 0.302222 -0.742059 -0.435618 -0.73856 -0.514554 
0.482772 0.278962 -0.830127 -0.280504 -0.639484 -0.715805 0.661657 0.66412 -0.348074 
-0.300104 -0.242707 -0.922513 0.632647 0.677432 -0.375293 0.620059 0.729344 0.289109 
0.458994 0.765979 0.450113 0.687891 0.685853 0.237511 0.46906 0.765312 0.440773 
0.527426 0.8073 0.264742 0.488698 0.755841 0.435751 0.445153 0.895453 0.00154978 
0.370936 0.849151 0.375963 0.276353 0.95809 -0.0754516 0.329979 0.943895 0.0132715 
0.121556 0.800742 -0.586546 -0.325289 -0.414372 -0.84999 -0.162455 -0.354655 -0.920776 
-0.276306 -0.392667 -0.877193 -0.636705 -0.57222 -0.516886 -0.0725885 -0.286727 -0.955258 
0.100835 -0.321557 -0.941506 -0.410402 -0.635539 -0.653958 0.236758 -0.265203 -0.934673 
-0.681515 -0.591309 -0.43115 -0.568863 -0.71054 -0.414159 -0.721623 -0.685052 -0.0998162 
-0.676692 -0.721277 0.147807 0.400359 -0.0226086 -0.91608 0.571693 0.0610011 -0.818197 
-0.421463 -0.755284 0.501911 -0.345321 -0.917435 -0.197653 -0.288989 -0.899694 0.327164 
-0.305613 -0.813535 0.494734 0.694842 0.311444 -0.648227 -0.242891 -0.874099 0.42066 
0.677664 0.500693 -0.538589 -0.455639 -0.85317 -0.253956 -0.356074 -0.823731 -0.441223 
-0.265656 -0.792832 -0.548493 0.662202 0.596506 -0.453508 -0.373037 -0.683245 -0.627709 
-0.326627 -0.627837 -0.706495 0.631045 0.756533 0.17158 0.651806 0.747383 0.128712 
0.633151 0.759525 0.149136 0.609227 0.727935 0.314568 0.438368 0.60289 0.666601 
0.452963 0.61033 0.649863 0.498294 0.698668 0.513387 0.406283 0.655654 0.636437 
0.458243 0.728918 0.508617 0.355474 0.883171 0.306019 0.253592 0.963712 0.0833733 
0.341258 0.86614 0.365164 0.193271 0.883604 -0.426487 0.301137 0.796235 -0.524716 
0.0274629 0.7753 -0.630995 -0.659694 -0.445641 -0.605151 -0.764672 -0.607107 -0.216097 
-0.754633 -0.644687 -0.122096 -0.586268 -0.520629 0.620673 -0.654753 -0.694082 0.299248 
0.473731 0.0194018 -0.880456 0.560035 0.505981 -0.656006 -0.504834 -0.677618 0.534767 
0.724681 0.439405 -0.530811 -0.205209 -0.553733 0.807012 0.722771 0.483266 -0.49402 
0.789261 0.570076 -0.228209 0.707788 0.657808 -0.257536 -0.348268 -0.924849 0.152853 
0.594462 0.752526 0.283405 -0.212664 -0.721942 -0.658463 -0.295725 -0.955267 0.00348992 
-0.3196 -0.585945 -0.744664 -0.253422 -0.920647 0.296962 0.446702 0.740389 0.502277 
-0.342568 -0.909877 -0.234032 -0.212401 -0.968485 -0.130089 0.159395 0.0938794 0.982741 
-0.203723 -0.542637 -0.814888 0.266226 0.424887 0.865214 0.193628 0.299674 0.934186 
0.292945 0.512755 0.80701 0.313537 0.429717 0.846781 0.31348 0.5633 0.764476 
0.329219 0.90733 0.26147 0.388106 0.755637 0.527624 0.0443863 0.325616 -0.94446 
0.404678 0.91394 0.0308178 0.29831 0.871315 -0.389643 0.120645 0.546546 -0.828693 
0.165283 0.643739 -0.747183 -0.680378 -0.37716 -0.62836 -0.358273 -0.45717 -0.814025 
-0.0876652 -0.443699 -0.891878 -0.957213 -0.289271 0.00807513 0.292799 -0.261683 -0.919669 
-0.890227 -0.4406 -0.115623 -0.866367 -0.495805 -0.059879 -0.853662 -0.473383 0.217185 
-0.730573 -0.468551 0.496711 -0.567221 -0.456601 0.685402 0.580759 0.424282 -0.694769 
-0.23583 -0.0188741 0.971611 -0.394795 -0.133432 0.909028 0.711955 0.516603 -0.475649 
-0.148147 -0.250015 0.956841 -0.304658 -0.182677 0.934779 -0.18495 0.065021 0.980595 
0.734985 0.666401 -0.125325 -0.148873 -0.482058 0.863398 0.669141 0.738926 -0.0789885 
0.611759 0.69204 0.383185 -0.0833841 -0.348796 0.933482 0.0335394 0.155836 0.987213 
0.586014 0.709707 0.39103 -0.0742051 -0.682836 0.726793 -0.0785608 -0.314486 0.946006 
0.356345 0.733243 0.579114 0.406549 0.592361 0.695576 -0.101396 -0.932725 0.346039 
-0.200397 -0.885696 0.418788 -0.00352326 -0.140294 0.990104 -0.0806512 0.135718 0.987459 
-0.219986 -0.87839 -0.424308 0.264281 0.560653 0.784744 -0.128394 -0.795034 -0.59282 
0.338172 0.511588 0.789884 -0.121314 -0.622326 -0.773301 -0.164291 -0.588034 -0.791975 
0.227086 0.121048 0.966323 -0.234013 -0.119404 -0.964873 0.378939 0.439267 0.814524 
0.358901 0.680689 0.638634 0.329511 0.916113 -0.228383 0.450945 0.892409 0.0159374 
0.384763 0.922762 -0.0216246 0.176113 0.771537 -0.611323 0.282845 0.95152 -0.120868 
0.280037 0.757722 -0.589437 0.491084 0.753982 -0.436288 0.0657432 0.426845 -0.901932 
0.0421391 0.358318 -0.932648 0.137456 0.443353 -0.885745 0.170222 0.643698 -0.746108 
0.408259 -0.212035 -0.887899 -0.85053 -0.221925 0.476811 0.829024 0.208646 -0.518831 
0.62965 0.0516102 -0.775163 0.726355 0.125075 -0.675843 -0.540413 -0.211433 0.814401 
0.701142 0.444885 -0.557205 0.777874 0.459704 -0.428468 -0.322586 0.238094 0.916106 
-0.379146 -0.288203 0.879311 -0.0909026 -0.153186 0.984008 -0.260177 0.224708 0.93905 
0.667354 0.693828 -0.270632 -0.2822 0.374935 0.883055 0.673827 0.724179 0.146704 
0.636487 0.716392 0.285775 0.0461455 0.491959 0.869394 0.0216154 0.420547 0.907013 
0.324694 0.633066 0.70271 -0.0564899 0.433953 0.899163 0.365022 0.587924 0.721876 
0.305081 0.63573 0.709065 -0.0932931 -0.652362 0.752144 0.0321835 -0.556186 0.830434 
0.231413 0.54206 0.807848 0.0316209 -0.847617 0.529665 -0.10244 -0.901739 0.419969 
-0.0731162 -0.796128 -0.600695 0.136645 -0.342026 0.929702 -0.182181 -0.434869 -0.881872 
-0.223173 -0.470653 -0.853627 -0.24512 -0.438479 -0.864669 0.374886 0.571506 0.72996 
0.453344 0.720648 0.524544 -0.333234 0.10609 -0.936856 0.402372 0.869449 0.286627 
0.529904 0.763528 0.369088 -0.19491 0.213049 -0.957403 -0.0315877 0.236744 -0.971058 
0.428354 0.881847 0.197128 0.3348 0.868455 -0.365644 0.419694 0.906165 -0.0521746 
0.42575 0.901324 -0.0796917 0.207562 0.850657 -0.483011 0.349911 0.882444 -0.314412 
0.571128 0.788478 -0.228289 0.399288 0.790378 -0.464621 0.455375 0.820039 -0.346655 
-0.0424374 0.204082 -0.978034 -0.355723 0.0583528 -0.932768 0.314411 0.727777 -0.609497 
0.296101 0.705866 -0.643489 0.367289 0.771517 -0.519481 -0.236213 0.313822 -0.91963 
0.00154472 0.444127 -0.895963 0.167094 0.60083 -0.781718 0.1699 0.620081 -0.76592 
-0.705141 -0.296267 -0.644207 -0.976073 -0.175038 -0.129007 -0.979807 -0.199218 -0.0170113 
-0.89877 0.0248126 0.437718 0.436077 -0.236709 -0.86822 0.601142 -0.0219513 -0.79884 
0.743806 0.0982362 -0.661137 0.678861 0.152048 -0.718352 -0.379209 -0.128061 0.916407 
0.900267 0.413425 -0.136378 0.761353 0.642232 -0.0887681 0.737095 0.675653 0.013558 
0.710963 0.70322 0.00365331 -0.0538787 0.166309 0.984601 0.599163 0.765449 0.234717 
0.062195 0.251142 0.96595 0.201623 0.614568 0.762663 0.325321 0.649835 0.686936 
-0.0999154 -0.704932 0.702202 -0.105925 -0.749163 -0.653861 -0.0664053 -0.824021 -0.562654 
-0.0558812 -0.799459 -0.598115 -0.0753282 -0.903877 -0.421108 -0.037109 -0.969395 0.242685 
-0.0734179 -0.872564 -0.482952 -0.339528 -0.189907 -0.921225 -0.540277 -0.147881 -0.828391 
0.500249 0.724656 0.473946 0.478518 0.632426 0.609146 -0.571048 0.100551 -0.814735 
0.315019 0.895268 -0.315053 0.299267 0.929757 -0.214455 -0.645288 -0.134494 -0.752007 
-0.822451 -0.121721 -0.55566 0.41758 0.901868 0.110731 -0.746013 -0.0664479 -0.662608 
-0.62712 -0.0378574 -0.778002 0.416634 0.84551 -0.333959 0.0275595 0.498351 -0.866537 
0.189681 0.842543 -0.504125 0.481433 0.767231 -0.423767 0.232634 0.785341 -0.573691 
-0.399122 0.214843 -0.891372 -0.298703 0.344825 -0.889872 -0.513217 0.358782 -0.779669 
-0.226559 0.535094 -0.813846 -0.0694685 0.489379 -0.8693 0.135124 0.780118 -0.610866 
-0.119619 0.657503 -0.743896 0.138801 0.637286 -0.758024 -0.287397 -0.424936 -0.858389 
-0.175563 -0.396023 -0.901301 -0.50009 -0.332035 -0.799789 0.777787 -0.340392 -0.528375 
-0.769274 0.0604646 0.636051 -0.669048 0.131185 0.731549 0.839552 -0.139204 -0.525142 
0.93 0.0168435 -0.367174 0.882788 0.112958 -0.455988 -0.44605 0.174974 0.877738 
0.932146 0.278678 -0.231176 0.810866 0.582953 0.0515837 0.91066 0.404147 -0.0858109 
0.826206 0.561621 -0.0443355 0.564845 0.532835 0.630108 -0.0773219 0.355376 0.93152 
0.568408 0.635114 0.523013 0.124453 0.568219 0.813411 0.321512 0.770047 0.551051 
0.510744 0.683975 0.520883 0.00494082 0.414285 0.910134 0.227514 0.673549 0.703256 
0.2944 0.657026 0.694007 0.0388537 -0.752393 0.657567 0.0446698 -0.950873 0.306342 
0.0529007 -0.915675 0.398424 0.0986427 -0.794773 0.598837 -0.463105 -0.641343 -0.61173 
-0.310246 -0.559544 -0.768543 -0.075467 -0.870695 -0.485999 0.0943833 -0.994531 -0.0447109 
-0.160066 -0.962786 -0.217764 -0.0185093 -0.967123 -0.253633 0.0800275 -0.719368 0.690004 
0.15568 -0.544147 0.82442 -0.378814 -0.609861 -0.69611 -0.40495 -0.463883 -0.787926 
-0.716881 -0.106285 -0.689047 -0.355462 -0.27521 -0.893256 0.50418 0.456493 0.733087 
0.434427 0.785425 0.440887 0.506376 0.681201 0.528724 0.434703 0.729298 0.528354 
0.468248 0.883348 0.0209575 -0.85828 -0.107131 -0.501875 0.502788 0.863622 -0.0368838 
0.418127 0.908387 -0.00137072 0.425753 0.859892 -0.281638 -0.765345 0.092213 -0.63698 
0.323988 0.841214 -0.432887 -0.588328 0.250888 -0.768716 -0.804456 0.204318 -0.557767 
0.347938 0.868053 -0.354151 0.239923 0.876862 -0.416594 -0.844199 0.371102 -0.386797 
0.0815177 0.827675 -0.555255 -0.159407 0.531041 -0.832217 -0.834672 0.462405 -0.299171 
-0.207842 0.944805 -0.253268 0.101871 0.908077 -0.406225 -0.448717 0.762754 -0.465681 
-0.397107 -0.475282 -0.78512 -0.678789 -0.277192 -0.680007 -0.967662 -0.142129 -0.208396 
-0.99318 -0.0217909 0.114534 0.618249 -0.239526 -0.748596 0.720537 -0.148379 -0.677355 
0.937038 -0.0305545 -0.347889 0.754322 -0.188425 -0.628884 -0.327862 0.228248 0.916739 
-0.465229 0.208496 0.860286 0.928396 0.366343 0.0622355 0.942199 0.0963262 -0.32091 
0.960328 0.276599 0.0355421 0.163633 0.498195 0.851485 -0.620794 -0.694886 -0.362971 
-0.341537 -0.758074 -0.555587 0.0506193 -0.995413 0.0811879 0.156591 -0.846829 0.508291 
0.0139701 -0.989812 -0.141697 -0.866762 -0.266108 -0.421795 -0.963378 -0.0905012 -0.252414 
-0.858667 -0.0809662 -0.506099 -0.892089 -0.173301 -0.417305 -0.675467 0.0266072 -0.73691 
-0.902384 0.00238099 -0.430926 0.43197 0.304274 0.849011 -0.894583 0.0563669 -0.443333 
0.510401 0.413605 0.753937 -0.865985 -0.110112 -0.487797 0.37583 0.895102 0.239885 
0.584036 0.761529 0.281025 0.452797 0.888394 -0.0757109 -0.997566 -0.0483988 -0.0501902 
0.362337 0.914202 0.181515 -0.931337 0.17153 -0.32123 -0.771563 0.612764 0.170912 
-0.767526 0.637681 -0.0653177 -0.55482 0.795843 0.242507 -0.655822 0.738293 -0.157544 
0.0365574 0.971852 -0.23274 -0.434569 0.897154 -0.0791466 -0.487675 -0.33036 -0.808106 
-0.622329 -0.421268 -0.659727 -0.201602 -0.377218 -0.903916 -0.138017 -0.367943 -0.919549 
-0.791322 -0.315807 -0.523522 -0.990235 -0.10523 -0.0914388 0.911396 -0.264578 -0.315208 
0.988897 0.136807 -0.0580192 0.882227 0.424082 0.204523 0.791497 0.480651 0.3775 
0.540658 0.675966 0.500758 0.306562 0.546646 0.779229 -0.419805 -0.879534 -0.224014 
-0.392529 -0.883273 -0.256416 -0.349075 -0.877683 -0.328358 -0.331194 -0.941345 0.0646507 
-0.116298 -0.977502 -0.175968 -0.727892 -0.546073 -0.414702 0.35107 -0.177391 0.919393 
-0.984472 -0.0481547 -0.168808 -0.990955 -0.0895103 -0.0999803 0.378551 0.838826 0.391242 
0.526154 0.713387 0.462862 0.461697 0.870758 0.169161 -0.877761 0.474101 -0.0690169 
0.288518 0.95722 -0.0220736 -0.395103 -0.334231 -0.855677 -0.497821 -0.278678 -0.821287 
-0.850857 -0.381079 -0.361691 -0.908845 -0.214761 -0.3576 -0.998266 -0.0405002 0.0427229 
0.253024 -0.31872 -0.913453 0.6059 -0.351782 -0.713537 0.700195 -0.350353 -0.622077 
-0.909179 0.0887017 0.406847 0.649609 -0.378128 -0.659566 -0.767091 0.0534791 0.639305 
0.914129 -0.288072 -0.285277 -0.431846 0.232004 0.871598 0.967937 0.1005 0.230212 
0.829792 0.372198 0.415829 0.849352 0.349411 0.395618 0.150565 0.507179 0.848587 
0.347537 0.494408 0.79673 -0.213878 -0.97091 -0.107657 -0.124943 -0.977373 0.170679 
-0.990556 -0.135709 0.0195346 0.361705 -0.282415 0.888488 -0.996105 -0.0492001 0.0731751 
-0.91113 -0.184846 0.368338 -0.98598 -0.020419 0.16561 0.447517 0.771675 0.451936 
0.522624 0.693731 0.495583 0.386134 0.789879 0.476436 0.46324 0.844163 0.269809 
-0.967865 -0.177512 0.178123 0.358811 0.92613 -0.116356 0.375855 0.923267 0.0794451 
-0.310058 0.901025 -0.303344 0.172542 0.977988 0.117339 -0.741114 -0.299027 -0.60111 
-0.39736 -0.400324 -0.82574 -0.82836 -0.20037 -0.523136 -0.997388 -0.0721405 -0.00344007 
-0.953945 0.0651229 0.292827 -0.930567 0.0827105 0.356656 -0.930672 0.0840418 0.356072 
0.876363 -0.34281 -0.338332 -0.821617 0.138359 0.552993 0.949721 -0.27165 -0.155679 
-0.61552 0.115607 0.779597 0.976862 -0.102739 0.187578 0.956119 -0.0990623 0.275723 
0.9293 0.073141 0.36201 0.141278 0.341843 0.929077 0.329782 0.337422 0.881697 
0.617802 0.431984 0.657046 0.329672 0.522753 0.786159 0.35647 0.49428 0.792853 
-0.0383861 -0.994469 -0.0977677 -0.136599 -0.954797 0.264014 -0.310752 -0.944565 -0.105969 
-0.492597 -0.869374 0.0392119 -0.361507 -0.926045 0.108409 0.103701 -0.939331 0.32696 
0.0526751 -0.928186 0.368369 0.159175 -0.836394 0.524508 0.275441 -0.861424 0.42671 
-0.835758 -0.54868 -0.0213989 0.23703 -0.514872 0.823847 0.301161 -0.550245 0.778802 
0.164058 -0.14242 0.976116 -0.870189 -0.132748 0.474499 0.283966 0.128965 0.950122 