# vtk DataFile Version 4.2
vtk output
ASCII
DATASET POLYDATA
POINTS 411 float
293.954 238.773 217.847 293.824 240.337 217.327 294.365 240.445 217.141 
295.735 240.637 216.985 293.634 240.741 217.338 298.309 241.136 217.333 
296.573 242.447 216.638 293.511 241.678 217.38 299.171 242.341 217.329 
293.638 242.039 217.347 297.439 243.337 216.804 298.081 243.324 216.95 
299.721 243.063 217.458 299.603 243.237 217.384 299.807 243.222 217.527 
298.2 243.763 217.072 298.457 243.947 217.233 299.469 243.476 217.384 
299.636 243.613 217.553 294.362 238.079 218.186 297.068 239.567 217.707 
293.081 240.24 217.883 299.337 242.108 217.499 299.555 242.085 217.69 
295.579 242.952 216.728 297.294 243.66 216.845 297.326 243.921 216.969 
299.84 243.56 217.74 293.278 244.975 218.446 293.113 244.861 218.662 
293.42 244.81 218.302 298.439 244.248 217.481 298.862 244.229 217.66 
296.147 245.493 218.109 293.25 245.495 218.726 293.367 245.739 218.787 
293.741 246.365 218.763 293.774 246.392 218.817 293.935 237.106 218.909 
293.705 237.037 219.009 293.144 237.753 218.814 292.996 238.136 218.693 
294.787 237.79 218.413 292.827 238.456 218.749 292.907 239.559 218.261 
292.786 240.241 218.314 299.29 240.903 218.302 300.322 242.736 218.556 
299.865 243.709 217.97 293.772 245.505 218.382 298.577 244.626 218.119 
293.692 246.019 218.725 294.652 245.737 218.354 293.577 246.23 219.126 
294.206 246.207 218.782 293.901 246.384 218.862 293.637 236.71 219.325 
293.42 236.639 219.454 293.31 236.724 219.409 294.697 237.048 219.179 
293.04 237.297 219.256 296.29 238.001 218.878 292.692 238.979 218.759 
292.539 240.306 218.821 298.506 240.068 218.342 300.64 242.678 219.138 
292.727 243.397 219.17 293.314 246.007 219.481 293.99 246.432 219.084 
293.778 246.428 219.325 293.252 236.593 219.674 293.653 236.18 220.192 
292.817 236.766 220.134 292.371 241.139 219.461 300.189 241.359 219.12 
300.599 242.195 219.345 300.686 242.707 219.301 300.726 242.644 219.422 
300.504 243.041 219.49 299.97 243.84 218.728 297.565 245.504 219.684 
293.111 245.769 220.377 293.31 246.075 219.977 293.564 246.35 220.105 
294.068 246.517 219.472 293.436 236.052 220.492 293.557 235.915 220.771 
293.805 235.909 220.825 292.717 236.645 220.54 296.78 237.777 219.864 
292.306 239.047 219.823 292.254 239.748 219.887 300.702 241.893 220.072 
300.685 241.621 220.387 300.671 242.354 219.822 294.469 246.598 220.15 
293.008 236.102 221.021 293.602 235.835 221.14 293.907 235.843 221.125 
292.779 236.394 220.829 299.395 239.769 220.439 300.459 240.886 220.497 
300.574 241.091 220.476 300.621 241.653 220.805 300.298 242.883 220.642 
292.702 244.344 221.114 297.254 245.619 220.83 294.752 246.555 220.471 
293.48 246.184 221.07 293.747 246.426 220.92 294.165 246.589 220.465 
293.868 246.521 220.626 293.129 235.852 221.962 292.967 235.978 221.785 
293.297 235.773 221.868 292.69 236.422 221.421 293.495 235.786 221.624 
294.171 235.893 221.228 292.535 236.862 221.365 297.815 238.352 220.628 
297.843 238.34 221.329 292.211 239.217 220.983 300.523 240.99 220.685 
300.511 241.306 221.109 300.357 242.441 221.06 298.71 244.63 220.851 
294.186 246.464 221.303 293.18 235.906 222.25 292.988 236.036 222.071 
293.324 235.788 222.127 292.447 237.544 221.806 295.98 236.978 222.033 
297.36 238.088 221.98 292.409 238.768 221.958 292.292 239.329 221.538 
300.282 241.641 221.662 292.792 243.216 222.019 300.115 242.37 221.59 
293.019 244.581 222.147 299.186 243.681 221.72 293.283 245.554 222.269 
297.345 245.269 221.743 293.437 245.858 222.334 293.518 246.045 222.083 
293.262 235.97 222.448 293.38 235.866 222.365 293.595 235.934 222.462 
292.923 236.482 222.394 294.619 236.176 222.306 298.642 239.34 222.067 
299.114 239.642 221.785 299.42 240.022 221.89 299.751 240.312 221.731 
300.058 241.608 221.978 293.161 244.118 222.528 295.716 245.838 222.175 
296.26 245.29 222.569 293.547 245.872 222.6 293.854 246.164 222.328 
294.452 246.018 222.495 293.289 236.088 222.547 292.911 236.759 222.504 
294.532 236.46 222.766 292.822 237.212 222.487 296.185 237.645 222.836 
296.422 238.224 223.137 297.643 238.825 222.621 292.712 239.548 222.511 
295.108 240.891 223.996 294.67 240.548 223.859 299.894 240.632 221.853 
298.41 240.766 223.119 299.417 240.805 222.408 295.092 241.95 223.992 
297.796 241.468 223.551 297.425 242.615 223.653 298.46 243.045 223.003 
293.504 244.908 222.844 298.393 243.452 222.857 297.623 244.544 222.533 
293.59 245.694 222.776 295.961 245.063 222.884 293.643 245.872 222.747 
293.816 246.058 222.567 293.965 245.961 222.703 294.665 245.751 222.722 
293.666 245.98 222.633 293.588 237.437 223.127 293.91 237.202 223.159 
293.146 238.194 222.973 294.397 237.589 223.356 295.275 237.316 223.128 
293.116 238.866 222.999 293.86 239.855 223.48 293.785 244.569 223.098 
295.24 243.649 223.641 294.478 245.075 223.163 293.731 245.768 222.841 
293.224 236.659 233.126 293.102 236.799 233.077 293.502 236.904 232.894 
293.393 236.724 233.028 292.94 237.135 233.127 293.443 237.105 232.82 
293.896 237.088 232.876 293.536 237.513 232.753 293.865 237.515 232.713 
293.012 237.683 233.02 293.26 237.787 232.855 293.346 238.384 232.86 
293.247 241.078 233.088 293.966 241.407 232.6 294.53 242.688 232.565 
293.506 243.199 233.263 293.088 243.84 233.862 294.364 243.789 232.98 
294.978 243.4 232.671 295.256 243.66 232.751 293.318 244.754 233.986 
293.681 244.917 233.845 293.498 245.435 234.321 293.053 236.649 233.263 
293.778 236.669 233.238 292.92 236.727 233.419 292.826 237.056 233.412 
294.216 237.198 232.982 294.196 237.741 232.704 296.344 239.768 232.685 
295.847 239.251 232.68 297.885 239.842 233.384 299.944 240.875 233.935 
300.203 241.243 234.066 300.141 241.009 234.039 300.304 241.113 234.227 
294.301 241.743 232.5 297.518 241.567 232.851 298.808 241.473 233.312 
299.75 241.436 233.764 300.1 241.548 234.032 299.182 241.856 233.512 
300.142 241.928 234.179 299.213 242.383 233.677 298.029 244.074 233.934 
293.357 236.177 233.857 293.261 236.083 233.977 293.194 236.131 233.95 
293.085 236.221 234.098 293.306 236.372 233.555 294.243 236.869 233.332 
295.061 236.613 234.266 294.726 238.126 232.744 295.339 238.235 232.934 
296.899 237.792 234.747 294.49 238.518 232.589 297.086 238.646 233.759 
298.327 239.024 234.67 300.21 240.911 234.188 292.587 241.156 234.028 
300.486 241.531 234.641 300.501 241.893 234.782 300.225 242.519 234.666 
292.651 243.929 234.775 295.739 245.415 234.084 293.814 245.91 234.707 
293.63 246.043 235.113 293.223 236.09 234.081 296.021 237.068 234.877 
297.826 238.416 235.254 292.476 239.002 234.101 300.456 242.281 234.965 
299.828 243.426 235.003 292.674 244.603 235.504 293.039 245.637 235.884 
294.409 246.306 235.109 293.328 245.965 235.545 293.606 246.245 235.515 
293.746 246.41 235.724 300.536 241.403 235.447 300.617 241.769 235.444 
300.529 242.392 235.504 300.608 242.051 235.711 294.779 246.479 235.669 
293.505 246.339 236.346 294.027 246.515 235.809 292.782 236.649 235.122 
292.94 236.533 235.368 294.143 236.121 235.222 294.027 236.115 235.376 
292.407 237.549 235.288 295.115 236.629 235.816 298.778 239.302 236.07 
300.209 240.741 235.445 300.378 241.102 236.032 300.571 241.985 236.132 
300.118 243.771 236.182 299.927 243.998 236.1 293.271 246.097 236.64 
294.495 246.666 236.53 293.794 246.539 236.57 293.352 236.384 235.758 
293.583 236.217 235.542 293.787 236.254 235.786 294.544 236.426 235.939 
295.83 237.383 237.102 292.422 242.841 236.832 300.42 243.02 237.122 
299.043 244.859 236.611 299.785 244.313 236.968 293.569 246.391 237.333 
294.258 236.605 236.491 292.505 237.723 236.369 292.703 237.538 236.583 
294.957 236.991 236.988 292.195 239.253 236.354 300.351 243.046 237.646 
300.221 243.72 237.13 297.866 245.505 237.485 295.186 246.575 237.447 
293.394 246.159 237.615 293.841 246.539 237.535 293.317 237.168 236.892 
292.664 238.163 237.159 292.447 238.377 236.893 298.578 240.11 238.131 
299.946 244.053 238.014 299.249 244.647 238.251 296.641 245.962 237.883 
298.335 245.178 237.967 295.546 246.234 238.135 294.379 246.523 238.017 
294.119 237.816 238.373 296.134 238.829 238.939 299.386 241.922 238.928 
299.881 242.686 238.677 300.054 243.562 238.49 299.968 243.864 238.515 
294.555 244.683 239.764 294.897 244.593 239.86 295.425 244.757 239.811 
295.642 244.462 239.9 294.336 245.24 239.443 299.529 244.393 238.601 
296.936 245.4 238.767 293.573 246.135 238.265 293.858 246.298 238.351 
294.627 246.341 238.319 293.901 246.415 238.19 293.793 237.959 238.385 
293.683 238.392 238.717 294.666 238.615 239.349 293.397 241.898 239.017 
298.213 241.256 239.536 298.681 241.495 239.353 294.337 244.442 239.726 
294.037 244.663 239.499 295.083 244.21 239.963 299.883 243.652 238.895 
293.906 245.063 239.262 296.106 244.395 239.845 293.671 245.038 239.05 
296.139 245.133 239.372 299.192 244.384 239.059 293.973 246.122 238.568 
293.515 238.785 238.856 294.05 238.535 239.14 294.213 238.776 239.443 
293.376 239.281 238.863 294.454 238.796 239.516 293.821 240.415 239.534 
294.569 241.244 239.95 294.747 240.571 240.068 296.406 240.654 240.291 
296.714 240.45 240.05 297.145 240.913 240.148 295.008 241.863 240.065 
296.449 240.991 240.373 294.206 242.872 239.702 297.214 242.043 240.11 
298.313 242.308 239.858 298.836 242.272 239.676 299.12 242.666 239.604 
294.573 243.368 239.87 295.164 243.228 240.031 298.713 242.954 239.764 
299.134 242.98 239.692 299.323 243.019 239.582 299.411 243.313 239.48 
299.309 243.149 239.634 299.156 243.17 239.672 299.65 243.675 239.272 
299.785 243.862 239.105 299.726 244.044 239.105 299.188 243.911 239.446 
299.604 244.183 239.106 297.602 244.589 239.364 293.946 238.965 239.385 
294.114 239.702 239.813 295.051 239.926 240.095 296.568 240.718 240.401 
296.893 240.737 240.239 296.936 240.964 240.316 296.554 240.807 240.415 
298.824 242.409 239.786 299.252 243.082 239.675 299.677 243.918 239.249 
[...]
POINT_DATA 411
SCALARS scalars float
LOOKUP_TABLE default
1 1 1 1 1 1 1 1 1 
1 1 1 1 1 1 1 1 1 
1 1 1 1 1 1 1 1 1 
1 1 1 1 1 1 1 1 1 
1 1 1 1 1 1 1 1 1 
1 1 1 1 1 1 1 1 1 
1 1 1 1 1 1 1 1 1 
1 1 1 1 1 1 1 1 1 
1 1 1 1 1 1 1 1 1 
1 1 1 1 1 1 1 1 1 
1 1 1 1 1 1 1 1 1 
1 1 1 1 1 1 1 1 1 
1 1 1 1 1 1 1 1 1 
1 1 1 1 1 1 1 1 1 
1 1 1 1 1 1 1 1 1 
1 1 1 1 1 1 1 1 1 
1 1 1 1 1 1 1 1 1 
1 1 1 1 1 1 1 1 1 
1 1 1 1 1 1 1 1 1 
1 1 1 1 1 1 1 1 1 
1 1 1 1 1 1 1 1 1 
1 1 1 1 1 1 1 1 1 
1 1 1 1 1 1 1 1 1 
1 1 1 1 1 1 1 1 1 
1 1 1 1 1 1 1 1 1 
1 1 1 1 1 1 1 1 1 
1 1 1 1 1 1 1 1 1 
1 1 1 1 1 1 1 1 1 
1 1 1 1 1 1 1 1 1 
1 1 1 1 1 1 1 1 1 
1 1 1 1 1 1 1 1 1 
1 1 1 1 1 1 1 1 1 
1 1 1 1 1 1 1 1 1 
1 1 1 1 1 1 1 1 1 
1 1 1 1 1 1 1 1 1 
1 1 1 1 1 1 1 1 1 
1 1 1 1 1 1 1 1 1 
1 1 1 1 1 1 1 1 1 
1 1 1 1 1 1 1 1 1 
1 1 1 1 1 1 1 1 1 
1 1 1 1 1 1 1 1 1 
1 1 1 1 1 1 1 1 1 
1 1 1 1 1 1 1 1 1 
1 1 1 1 1 1 1 1 1 
1 1 1 1 1 1 1 1 1 
1 1 1 1 1 1 
NORMALS Normals float
-0.205952 -0.39286 -0.896239 -0.375524 -0.200207 -0.90493 -0.156803 -0.25268 -0.95476 
0.0237567 -0.296199 -0.954831 -0.560997 0.00718715 -0.827787 0.372611 -0.356543 -0.85676 
0.0746073 -0.0368434 -0.996532 -0.529616 0.0598932 -0.84612 0.402076 -0.167668 -0.900123 
-0.70743 0.158686 -0.688739 0.252117 0.0655047 -0.965477 0.271326 0.125443 -0.954278 
0.583137 -0.167778 -0.79486 0.429013 -0.00750279 -0.903267 0.798325 0.087097 -0.595896 
0.00419713 0.545574 -0.838052 0.30483 0.455943 -0.836179 0.401274 0.366048 -0.839636 
0.554321 0.525221 -0.645656 -0.061315 -0.493591 -0.86753 0.291713 -0.581617 -0.759359 
-0.709637 -0.0926088 -0.698455 0.557969 -0.344106 -0.755157 0.667263 -0.294162 -0.684272 
-0.201395 0.186028 -0.961683 0.0263076 0.32975 -0.943702 0.186077 0.471445 -0.862041 
0.83344 0.33817 -0.437056 -0.666571 0.218477 -0.712706 -0.905392 0.115521 -0.40856 
-0.548822 0.17418 -0.817591 -0.0647609 0.766016 -0.639551 0.396897 0.688831 -0.606618 
0.0925213 0.757977 -0.645686 -0.743276 0.383432 -0.548198 -0.719625 0.525552 -0.453801 
-0.256626 0.695133 -0.671516 -0.225842 0.951128 -0.210597 -0.0496472 -0.631424 -0.773847 
-0.30501 -0.558894 -0.771107 -0.585973 -0.446424 -0.67627 -0.648755 -0.305732 -0.696883 
0.20306 -0.581547 -0.787762 -0.833745 -0.294001 -0.467369 -0.749521 -0.196201 -0.632237 
-0.865868 0.00170416 -0.50027 0.679748 -0.483365 -0.551636 0.881886 -0.0427552 -0.469521 
0.802557 0.503697 -0.319674 -0.314235 0.412141 -0.855217 0.255895 0.865759 -0.430091 
-0.477439 0.419788 -0.7719 0.0303409 0.584489 -0.810834 -0.756462 0.618923 -0.211425 
0.236202 0.68077 -0.693369 0.275164 0.850731 -0.447819 -0.0156109 -0.797709 -0.602841 
0.0155616 -0.865444 -0.500764 -0.433233 -0.625181 -0.649197 0.288524 -0.836428 -0.465984 
-0.715743 -0.423015 -0.555672 0.475966 -0.697656 -0.535474 -0.844706 -0.122733 -0.520969 
-0.926568 -0.0423539 -0.373736 0.555425 -0.642053 -0.528462 0.924906 0.0569208 -0.375911 
-0.959703 0.121332 -0.253472 -0.860259 0.492764 -0.130916 0.242616 0.928384 -0.281499 
-0.427572 0.902077 -0.0586484 -0.595499 -0.672194 -0.439928 0.398442 -0.77874 -0.48457 
-0.860185 -0.36937 -0.351636 -0.95994 0.135447 -0.245295 0.77359 -0.482394 -0.410919 
0.897269 -0.261965 -0.355363 0.887221 0.390739 -0.245281 0.992995 0.101727 -0.0600993 
0.878907 0.462788 0.115538 0.687591 0.726003 -0.0117803 0.497983 0.863485 -0.0800383 
-0.894855 0.445618 0.0256684 -0.781399 0.621076 0.0606667 -0.669172 0.743107 0.00077358 
-0.104603 0.987555 -0.117448 -0.385634 -0.843923 -0.372935 -0.198583 -0.940155 -0.2769 
0.209354 -0.907353 -0.364529 -0.774882 -0.524112 -0.353361 0.526343 -0.809474 -0.260221 
-0.965152 -0.193291 -0.176411 -0.976953 -0.0200159 -0.212514 0.998718 -0.0376703 -0.0337997 
0.968052 -0.221754 -0.117052 0.981331 0.133419 0.138522 -0.0127458 0.988336 -0.151755 
-0.564095 -0.78387 -0.259507 -0.138142 -0.984039 -0.112179 0.299185 -0.946749 -0.118974 
-0.81165 -0.541225 -0.219773 0.683449 -0.727825 -0.0562951 0.736012 -0.672682 0.0760553 
0.953245 -0.300436 -0.0325834 0.961349 0.123941 0.245859 0.805031 0.558483 0.200054 
-0.979158 0.136705 0.150206 0.506797 0.833471 0.220188 0.272038 0.962091 -0.0194017 
-0.689195 0.714053 0.123034 -0.373076 0.901984 0.217344 -0.114208 0.991318 0.0651564 
-0.52339 0.851871 0.0194593 -0.56791 -0.813548 0.124972 -0.703001 -0.710719 -0.0258396 
-0.290379 -0.952533 -0.0914358 -0.87937 -0.476009 0.0110997 0.229113 -0.972363 0.0449127 
0.461421 -0.852757 -0.244737 -0.977291 -0.211687 0.00957091 0.626062 -0.738872 -0.249228 
0.662269 -0.731656 0.161489 -0.995686 -0.0821594 0.0431286 0.683552 -0.658209 0.315464 
0.868474 -0.258756 0.422846 0.859134 0.363179 0.360541 0.636843 0.726991 0.25674 
-0.110874 0.962388 0.248026 -0.639966 -0.659115 0.394982 -0.890784 -0.387637 0.237154 
-0.13766 -0.970361 0.198619 -0.967102 -0.146321 0.208097 0.604692 -0.727504 0.324168 
0.591318 -0.802466 0.0799462 -0.962015 -0.0915809 0.257175 -0.977266 0.0938042 0.190136 
0.879765 0.0517509 0.472583 -0.9393 0.0546697 0.338713 0.827594 0.272274 0.490872 
-0.924303 0.183134 0.334852 0.692328 0.518703 0.501626 -0.902229 0.340051 0.265231 
0.57179 0.748937 0.334888 -0.837754 0.47017 0.277682 -0.656996 0.737297 0.157317 
-0.421075 -0.631342 0.651232 0.0157411 -0.93431 0.356113 0.0302711 -0.688014 0.725065 
-0.894612 -0.271243 0.355102 0.293426 -0.927518 0.23154 0.665802 -0.644723 0.375552 
0.629935 -0.664402 0.402184 0.662536 -0.611602 0.432422 0.726146 -0.583603 0.363481 
0.70872 0.0595156 0.702975 -0.828301 0.0193377 0.55995 0.2922 0.850343 0.437648 
0.424127 0.640739 0.639976 -0.793814 0.452599 0.406218 -0.102553 0.910328 0.400982 
0.181559 0.815638 0.549337 -0.48121 -0.43053 0.763597 -0.780257 -0.216114 0.586936 
0.306616 -0.654626 0.690978 -0.841522 -0.15661 0.517024 0.623269 -0.614703 0.4834 
0.545244 -0.432059 0.718355 0.557339 -0.523162 0.644729 -0.762248 0.109312 0.637988 
0.114601 -0.228708 0.966726 -0.354006 -0.0913722 0.930769 0.784538 -0.385739 0.485496 
0.506889 -0.20307 0.837751 0.595636 -0.377815 0.708854 -0.249813 0.0938832 0.963732 
0.380961 -0.0831405 0.920846 0.354916 0.193097 0.91474 0.556418 0.24012 0.79545 
-0.65511 0.155493 0.73936 0.56395 0.491637 0.663516 0.504867 0.600811 0.619786 
-0.764663 0.234462 0.600265 0.329742 0.539513 0.774723 -0.52011 0.52637 0.672622 
-0.0855423 0.82166 0.563522 0.101975 0.77403 0.624883 0.157699 0.647634 0.745454 
-0.427928 0.78308 0.451292 -0.406759 -0.118029 0.905879 -0.171741 -0.259895 0.950242 
-0.401619 -0.0647117 0.913518 -0.109745 -0.239851 0.964587 0.200245 -0.487292 0.849969 
-0.726699 -0.0175297 0.686732 -0.392315 -0.122726 0.911607 -0.50304 0.0999136 0.858469 
0.153156 0.287666 0.945405 -0.0779308 0.358834 0.930142 -0.161207 0.482485 0.860941 
-0.176433 -0.771633 -0.611109 -0.565281 -0.408653 -0.716561 0.150613 -0.616582 -0.77275 
-0.0409959 -0.679912 -0.732147 -0.736109 -0.116202 -0.666813 -0.264338 -0.207769 -0.941784 
0.194988 -0.445374 -0.873855 -0.137559 -0.0885445 -0.986528 0.113247 -0.252952 -0.960828 
-0.702688 0.090956 -0.705661 -0.494059 0.0493444 -0.868027 -0.554806 0.0401262 -0.831011 
-0.740799 0.18723 -0.645106 -0.504925 0.153054 -0.849485 -0.0650162 0.130558 -0.989307 
-0.613585 0.168177 -0.771512 -0.68856 0.205281 -0.695518 -0.30386 0.421193 -0.854556 
-0.1601 0.230609 -0.959785 0.162774 0.339715 -0.926336 -0.767744 0.378675 -0.516889 
-0.332365 0.467772 -0.818977 -0.46022 0.627208 -0.628337 -0.583677 -0.660099 -0.472853 
0.274427 -0.797936 -0.536645 -0.859211 -0.39322 -0.327315 -0.946024 -0.203833 -0.251975 
0.430007 -0.560408 -0.70784 0.151175 -0.224137 -0.962761 0.294453 -0.237961 -0.925566 
0.271977 -0.265372 -0.92499 0.438432 -0.409354 -0.800129 0.505792 -0.266176 -0.820563 
0.684369 0.036631 -0.728216 0.697425 -0.231287 -0.67831 0.905218 -0.0875515 -0.41583 
-0.126334 0.0501609 -0.990719 0.252125 0.0365842 -0.967003 0.351839 0.00509539 -0.936047 
0.513502 0.101944 -0.852011 0.684836 0.136794 -0.715742 0.384942 0.0792592 -0.919531 
0.734756 0.242746 -0.63341 0.452874 0.347566 -0.821038 0.444634 0.65158 -0.614609 
0.097387 -0.815391 -0.570661 -0.0503214 -0.948295 -0.313376 -0.454754 -0.793631 -0.404165 
-0.837705 -0.535862 -0.105366 0.0835129 -0.857961 -0.506881 0.445488 -0.67181 -0.591787 
0.406386 -0.840712 -0.357847 0.400447 -0.378735 -0.834388 0.439317 -0.517225 -0.734493 
0.57705 -0.769845 -0.272676 -0.0129245 -0.09925 -0.994979 0.510966 -0.595096 -0.620301 
0.623691 -0.706177 -0.335148 0.787493 -0.521783 -0.328021 -0.84057 0.196457 -0.504823 
0.950977 -0.00743467 -0.309173 0.942716 0.118031 -0.312017 0.775533 0.432928 -0.459481 
-0.949619 0.120798 -0.28919 0.0846038 0.719782 -0.689025 -0.381309 0.717611 -0.582785 
-0.537672 0.71561 -0.445883 -0.325782 -0.944923 0.0314186 0.528005 -0.845793 -0.0764534 
0.619819 -0.774303 -0.127588 -0.918738 0.0547032 -0.391061 0.924906 0.294818 -0.240063 
0.650559 0.611759 -0.450026 -0.928676 0.327176 -0.174689 -0.881008 0.472215 -0.0289472 
-0.110501 0.882358 -0.457421 -0.782906 0.55431 -0.282487 -0.43764 0.81222 -0.385707 
-0.561892 0.810627 -0.164807 0.959341 -0.282068 -0.0101092 0.996774 0.0133397 -0.0791442 
0.926143 0.339638 -0.164027 0.994672 -0.0317172 0.0980869 0.319272 0.906282 -0.27698 
-0.683494 0.725182 -0.0833438 -0.158847 0.942231 -0.294903 -0.809725 -0.57638 0.110144 
-0.689725 -0.67367 0.265422 0.323397 -0.946056 0.0198359 0.137574 -0.969577 0.202472 
-0.956131 -0.289748 0.0431327 0.386118 -0.893701 0.228498 0.658703 -0.728234 0.189171 
0.782768 -0.619766 0.0562504 0.915292 -0.337262 0.220216 0.993299 0.0597189 0.0989465 
0.807017 0.572359 -0.145358 0.671273 0.655381 -0.34622 -0.824085 0.566416 -0.00755823 
-0.12317 0.991309 -0.0462174 -0.443569 0.896236 -0.00267941 -0.409161 -0.817566 0.405182 
-0.297089 -0.905259 0.303718 -0.107245 -0.902059 0.418077 0.290337 -0.92693 0.237708 
0.515666 -0.809548 0.280572 -0.969749 0.107118 0.219346 0.990207 0.054013 0.128733 
0.556046 0.825817 -0.0940182 0.716899 0.696795 -0.0230911 -0.535385 0.842773 0.0556451 
0.0916231 -0.860094 0.501841 -0.817704 -0.558386 0.139874 -0.734052 -0.632147 0.248108 
0.0764971 -0.866014 0.494133 -0.998578 -0.0499562 0.0186366 0.968154 -0.0232498 0.249273 
0.902954 0.429483 0.0147914 0.405909 0.907317 0.109609 0.197213 0.9704 0.139394 
-0.78278 0.593253 0.187899 -0.313549 0.942079 0.119052 -0.416424 -0.783072 0.461941 
-0.744741 -0.366377 0.557789 -0.894485 -0.192782 0.4034 0.669487 -0.590774 0.450303 
0.861647 0.496861 0.103411 0.604002 0.789159 0.111404 0.330156 0.90588 0.26529 
0.401445 0.866778 0.29587 0.211829 0.774967 0.595445 0.00982964 0.911195 0.411858 
-0.0938872 -0.792473 0.602637 0.350736 -0.67999 0.643893 0.727059 -0.386929 0.56716 
0.810399 -0.272017 0.518902 0.946334 -0.0101048 0.323032 0.855526 0.493134 0.15778 
-0.232213 0.357316 0.904656 -0.153416 0.259411 0.953504 0.0273882 0.46302 0.885925 
0.142304 0.322926 0.935665 -0.264907 0.567429 0.779647 0.602276 0.781689 0.161943 
0.311776 0.817041 0.485015 -0.769858 0.448296 0.454257 -0.254695 0.754177 0.605266 
0.143944 0.799567 0.583072 -0.397837 0.85484 0.333129 -0.657428 -0.565375 0.498136 
-0.416206 -0.687709 0.594835 0.00285986 -0.762846 0.646574 -0.813045 0.0901404 0.57518 
0.458092 -0.377401 0.80481 0.606007 -0.40893 0.6823 -0.417898 0.124086 0.89998 
-0.592757 0.183389 0.784224 -0.0859135 0.123665 0.988598 0.925577 -0.02386 0.377808 
-0.650151 0.317719 0.690188 0.189721 0.210903 0.958919 -0.690748 0.38588 0.611526 
0.188344 0.676979 0.711496 0.269882 0.8065 0.526043 -0.190412 0.638456 0.745732 
-0.778907 -0.413393 0.471603 -0.377511 -0.679896 0.628671 -0.280017 -0.560619 0.779292 
-0.861239 -0.173476 0.477675 -0.0801933 -0.468 0.880082 -0.711853 0.0430619 0.701007 
-0.272763 0.175399 0.945957 -0.191596 0.115008 0.974712 -0.112879 -0.437146 0.892279 
0.370217 -0.681434 0.631337 0.583281 -0.390843 0.712057 -0.321627 0.14159 0.93622 
-0.156181 0.0543718 0.986231 -0.558931 0.120258 0.820447 0.221522 0.0979125 0.970227 
0.179145 -0.123723 0.976012 0.543988 -0.433092 0.718685 0.575505 -0.278645 0.768863 
-0.49032 0.115311 0.86388 -0.0548975 0.0383541 0.997755 0.154225 0.079451 0.984836 
0.303589 -0.174129 0.936757 0.716972 -0.249768 0.65082 0.655669 0.0984569 0.748601 
0.592177 0.167189 0.788273 0.205458 0.273229 0.939752 0.789147 -0.196225 0.582016 
0.881507 0.10421 0.460528 0.823648 0.416307 0.385087 0.251419 0.371309 0.893822 
0.546216 0.728651 0.413177 0.190493 0.447701 0.873657 -0.593042 -0.298938 0.747621 
-0.482995 -0.288952 0.826573 -0.0219365 -0.032676 0.999225 0.0837361 -0.596195 0.798461 
0.508582 -0.550407 0.662116 0.494987 -0.131229 0.858934 -0.307102 -0.0781438 0.948463 
0.410573 -0.222275 0.884321 0.427281 -0.0681797 0.901544 0.605196 0.185674 0.774121 
0.260399 0.525668 0.809855 0.51385 0.501989 0.695676 -0.365376 -0.0654097 0.928559 
-0.0381569 -0.396767 0.917126 0.166927 -0.062029 0.984016 0.454129 -0.456771 0.764936 

