# vtk DataFile Version 4.2
vtk output
ASCII
DATASET POLYDATA
POINTS 3683 float
351.262 225.385 172.679 352.102 225.39 172.655 350.939 225.567 172.697 
350.742 225.465 172.859 350.644 225.74 172.91 351.52 225.6 172.532 
350.947 225.832 172.63 351.177 225.92 172.502 352.024 226.063 172.476 
351.491 226.218 172.457 351.347 226.357 172.535 351.754 226.231 172.457 
350.665 225.139 173.227 350.235 225.741 173.384 353.667 225.346 173.253 
354.141 225.805 173.23 351.029 226.05 172.58 351.86 226.884 172.717 
350.884 224.665 173.614 351.739 224.561 173.441 352.6 224.602 173.433 
350.207 225.326 173.628 350.028 225.578 173.58 349.941 225.54 173.713 
349.925 225.607 173.653 349.95 225.736 173.689 349.988 226.303 173.839 
355.966 227.677 173.625 351.388 224.161 174.218 349.789 225.631 174.111 
349.387 225.915 174.678 356.13 228.267 173.713 358.773 228.571 174.832 
356.509 229.615 174 355.517 230.277 174.062 358.763 229.635 174.742 
358.174 230.806 174.662 358.591 230.632 174.781 359.021 231.003 175.053 
350.581 224.278 174.802 353.429 223.796 175.026 358.519 227.549 174.926 
350.768 229.445 175.148 352.705 231.029 175.124 355.492 224.098 175.767 
359.564 227.907 175.639 356.26 232.536 175.294 359.271 232.758 175.708 
352.215 223.228 176.814 353.565 223.404 176.018 349.543 224.267 176.933 
359.511 226.785 176.293 348.275 226.753 176.619 361.087 228.207 177.118 
357.839 233.226 175.68 355.45 223.389 177.035 347.832 226.066 177.839 
350.542 230.842 177.206 361.514 240.073 178.756 361.195 240.397 178.948 
361.612 240.924 179.175 350.65 223.292 178.779 347.831 227.665 178.576 
362.39 228.252 178.586 362.606 240.493 178.957 363.042 241.648 179.509 
352.517 222.462 179.885 357.631 223.412 178.903 347.892 225.089 179.9 
347.519 225.656 179.605 347.377 225.668 180.374 347.267 226.586 179.68 
348.491 229.315 179.345 364.816 233.552 179.274 358.76 239.914 180.084 
360.315 240.469 179.357 363.842 240.732 179.333 364.287 242.341 180.026 
362.284 243.816 180.93 363.319 243.841 180.631 360.701 225.336 179.395 
357.756 239.397 180.643 366.238 241.498 180.733 364.572 247.577 182.471 
364.747 247.073 182.145 365.06 248.012 182.562 365.005 248.185 182.745 
355.392 221.958 181.128 347.483 225.556 181.781 346.848 226.455 181.796 
362.073 245.012 182.149 365.783 244.637 181.301 365.808 247.784 182.538 
349.54 223.849 182.171 362.256 224.861 181.983 346.684 226.305 183.24 
346.998 226.18 183.174 346.754 226.426 183.792 347.735 225.711 182.816 
346.807 226.875 182.017 365.287 228.514 181.937 347.267 228.035 182.004 
364.228 247.883 183.008 367.194 248.715 183.618 366.263 249.376 183.924 
351.857 222.224 183.805 346.265 226.482 184.323 346.275 226.538 183.964 
346.438 226.655 184.504 347.96 225.988 183.473 363.942 226.105 182.532 
347.071 226.681 184.081 346.697 227.164 183.544 356.678 239.572 184.151 
362.538 246.703 183.625 367.69 248.32 183.742 358.008 221.614 184.221 
349.686 224.337 184.636 349.4 225.232 184.984 345.782 226.465 185.216 
346.006 226.578 185.117 348.319 226.601 184.371 349.06 226.784 185.094 
346.899 227.194 184.409 346.183 226.724 184.943 348.823 227.571 185.185 
346.227 226.797 184.667 347.539 227.758 184.95 347.324 228.003 184.808 
349.419 228.352 185.681 347.437 228.472 184.722 350.443 228.801 186.31 
351.648 230.198 186.772 351.407 231.866 186.71 352.241 231.518 186.66 
353.402 232.453 186.958 352.714 232.754 186.734 353.374 232.83 186.824 
352.531 235.287 184.345 353.777 236.747 184.481 358.604 241.899 184.447 
367.119 250.168 185.04 351.594 222.208 185.569 345.583 226.413 185.879 
345.602 226.419 185.777 345.722 226.469 185.605 345.76 226.526 185.641 
349.655 226.201 186.135 345.674 226.459 185.579 345.888 226.611 185.381 
349.865 227.337 186.125 350.156 227.696 186.459 345.781 226.554 185.549 
347.571 228.277 185.509 347.459 228.447 185.525 347.949 228.275 185.528 
348.117 228.888 186.055 348.214 229.583 185.047 348.666 230.081 185.986 
354.959 233.735 187.331 353.652 234.19 186.903 354.929 234.648 186.979 
353.944 235.189 186.999 356.792 235.639 187.379 354.966 236.192 186.91 
357.049 236.042 187.287 357.526 236.409 187.37 357.683 236.788 187.259 
354.855 237.282 186.995 357.802 237.283 187.197 354.126 237.214 185.92 
355.35 237.717 186.798 355.9 237.962 186.752 355.637 238.205 186.784 
357.791 237.967 187.071 358.688 237.756 187.619 356.092 238.693 186.819 
356.636 238.861 186.613 356.557 239.341 186.79 357.213 238.789 186.68 
355.846 239.049 186.123 356.86 239.467 186.45 357.296 239.775 186.223 
356.981 239.68 186.267 357.821 239.446 186.849 358.367 239.319 187.219 
356.658 239.787 186.194 356.936 239.802 186.013 357.909 240.196 186.934 
357.73 240.802 186.357 370.105 245.811 185.365 366.516 250.872 185.843 
366.172 251.415 186.74 366.954 251.273 186.303 366.708 251.805 186.971 
366.894 251.955 187.153 367.294 251.585 186.786 352.09 221.788 186.409 
362.317 222.962 185.431 349.725 225.897 186.687 345.442 226.365 186.416 
345.424 226.354 186.438 345.539 226.422 186.099 345.38 226.34 186.647 
345.439 226.365 186.395 345.453 226.379 186.575 345.591 226.459 186.145 
350.366 227.81 186.891 345.514 226.414 186.389 347.529 228.553 186.078 
347.473 228.675 186.329 347.718 228.648 186.225 347.827 228.992 186.722 
348.355 229.401 185.921 348.02 229.227 186.492 348.975 229.704 186.105 
347.927 229.237 185.95 348.489 229.973 186.6 348.538 229.956 186.747 
348.328 229.833 186.874 349.062 230.182 186.577 349.541 230.55 186.753 
349.675 230.89 187.044 350.059 231.452 187.217 352.535 234.384 187.39 
351.64 234.052 186.6 356.834 235.406 187.646 352.408 235.14 187.088 
354.049 236.078 187.258 358.034 236.608 187.656 355.138 237.986 186.691 
354.537 237.387 187.255 354.384 237.484 186.921 355.728 238.649 186.959 
355.625 238.806 186.901 356.848 239.658 186.463 356.927 239.98 186.891 
356.832 240.137 186.872 357.285 240.493 186.887 357.617 240.448 187.097 
358.542 240.509 187.623 357.132 240.622 187.242 358.485 242.31 186.341 
360.571 241.369 188.777 371.051 245.204 186.543 364.91 250.563 187.177 
365.626 251.247 187.147 368.121 250.85 186.459 366.72 251.998 187.302 
366.606 252.141 187.783 356.019 220.57 187.624 357.406 220.463 188.145 
349.847 223.639 187.894 363.587 223.057 186.885 349.717 224.403 187.161 
345.289 226.275 187.18 345.299 226.283 187.104 345.29 226.276 187.169 
349.866 226.409 187.501 345.3 226.284 187.093 345.411 226.354 186.828 
345.324 226.274 187.413 345.389 226.33 187.02 345.355 226.298 187.235 
347.501 228.726 186.84 347.414 228.766 187.181 347.627 228.845 186.906 
348.067 229.511 186.945 348.825 230.58 187.814 350.523 232.354 187.189 
349.829 231.574 187.675 354.053 232.259 187.972 349.77 231.681 187.513 
351.079 233.071 187.539 351.092 233.276 187.514 351.368 233.394 187.731 
351.955 234.135 187.341 351.592 233.767 187.8 356.199 234.367 188.321 
351.559 233.89 187.611 352.287 234.585 187.75 352.172 234.706 187.718 
358.168 236.63 187.854 354.308 237.466 187.806 359.302 238.172 188.118 
354.241 237.522 187.828 355.794 239.058 187.532 355.642 239.093 187.819 
360.466 240.135 188.749 360.05 241.785 188.811 360.55 242.035 189.03 
361.684 242.971 189.855 371.345 246.188 187.499 369.251 250.172 187.177 
366.613 252.415 188.651 367.287 252.493 188.311 367.165 252.593 188.523 
350.309 222.853 188.057 349.555 223.836 188.786 349.563 224.945 187.904 
345.221 226.182 187.958 345.223 226.203 187.806 345.23 226.208 187.76 
349.533 225.344 188.192 345.23 226.215 187.716 345.298 226.25 187.593 
345.283 226.2 187.951 349.947 226.868 188.445 345.284 226.186 188.085 
347.36 228.752 187.72 347.292 228.724 188.068 350.373 227.63 188.284 
350.713 228.156 188.242 348.258 229.857 187.664 348.739 230.323 187.535 
347.862 229.478 188.102 348.979 230.842 188.426 349.014 230.858 188.526 
349.04 230.957 188.915 349.098 230.801 188.032 349.525 231.408 188.257 
349.428 231.371 188.372 351.284 233.503 188.037 351.344 233.705 188.349 
351.46 233.789 188.469 351.577 233.979 188.393 351.547 233.978 188.284 
352.15 234.679 188.392 352.046 234.703 188.69 357.718 235.758 189.066 
353.069 235.83 188.047 352.455 235.131 188.629 352.447 235.226 188.561 
353.645 236.591 188.205 353.575 236.735 188.392 354.332 237.729 188.5 
354.214 237.631 188.401 355.445 238.982 188.441 355.318 238.958 188.78 
357.864 240.92 188.241 361.297 240.828 189.619 357.416 241.271 188.519 
358.053 242.076 188.965 361.503 241.3 189.647 362.11 242.337 190.216 
362.886 244.434 190.932 368.1 252.141 188.413 367.424 252.865 189.376 
367.556 252.921 189.676 345.224 226.072 188.827 345.205 226.117 188.523 
345.232 226.166 188.181 345.225 226.12 188.456 345.212 226.141 188.364 
345.296 226.081 188.833 345.293 226.082 188.909 347.211 228.647 188.569 
347.126 228.54 189.067 347.178 228.627 188.919 347.152 228.593 189.075 
347.368 228.898 188.525 347.412 229.035 189.075 350.942 228.639 189.187 
351.823 229.701 189.3 347.579 229.221 188.936 347.517 229.161 189.159 
349.067 230.989 189.204 349.066 231.031 189.594 349.312 231.231 188.952 
349.204 231.188 189.331 349.352 231.299 188.845 349.277 231.253 189.108 
351.392 233.781 188.688 351.458 233.955 189.318 351.447 233.957 189.313 
351.745 234.302 188.863 352.206 234.988 189.329 352.138 234.943 189.485 
353.821 237.103 188.918 353.795 237.206 189.307 354.667 238.245 189.034 
356.414 240.122 188.83 355.712 239.512 189.384 356.969 240.913 189.483 
357.602 241.338 188.964 357.252 241.17 189.282 358.291 241.969 189.7 
358.209 242.335 189.983 360.533 243.432 190.502 362.732 243.411 190.731 
361.423 244.358 190.771 363.389 244.197 191.409 362.686 245.151 191.076 
361.654 246.59 189.596 370.404 249.609 189.344 367.281 253.071 190.59 
350.097 222.354 190.587 348.979 224.641 189.858 349.077 225 189.617 
345.228 226.041 189.124 345.37 225.958 189.617 349.371 226.643 189.927 
345.235 226.058 189.06 345.399 225.97 189.71 347.06 228.444 189.442 
[...]
POINT_DATA 3683
SCALARS scalars float
LOOKUP_TABLE default
1 1 1 1 1 1 1 1 1 
1 1 1 1 1 1 1 1 1 
1 1 1 1 1 1 1 1 1 
1 1 1 1 1 1 1 1 1 
1 1 1 1 1 1 1 1 1 
1 1 1 1 1 1 1 1 1 
1 1 1 1 1 1 1 1 1 
1 1 1 1 1 1 1 1 1 
1 1 1 1 1 1 1 1 1 
1 1 1 1 1 1 1 1 1 
1 1 1 1 1 1 1 1 1 
1 1 1 1 1 1 1 1 1 
1 1 1 1 1 1 1 1 1 
1 1 1 1 1 1 1 1 1 
1 1 1 1 1 1 1 1 1 
1 1 1 1 1 1 1 1 1 
1 1 1 1 1 1 1 1 1 
1 1 1 1 1 1 1 1 1 
1 1 1 1 1 1 1 1 1 
1 1 1 1 1 1 1 1 1 
1 1 1 1 1 1 1 1 1 
1 1 1 1 1 1 1 1 1 
1 1 1 1 1 1 1 1 1 
1 1 1 1 1 1 1 1 1 
1 1 1 1 1 1 1 1 1 
1 1 1 1 1 1 1 1 1 
1 1 1 1 1 1 1 1 1 
1 1 1 1 1 1 1 1 1 
1 1 1 1 1 1 1 1 1 
1 1 1 1 1 1 1 1 1 
1 1 1 1 1 1 1 1 1 
1 1 1 1 1 1 1 1 1 
1 1 1 1 1 1 1 1 1 
1 1 1 1 1 1 1 1 1 
1 1 1 1 1 1 1 1 1 
1 1 1 1 1 1 1 1 1 
1 1 1 1 1 1 1 1 1 
1 1 1 1 1 1 1 1 1 
1 1 1 1 1 1 1 1 1 
1 1 1 1 1 1 1 1 1 
1 1 1 1 1 1 1 1 1 
1 1 1 1 1 1 1 1 1 
1 1 1 1 1 1 1 1 1 
1 1 1 1 1 1 1 1 1 
1 1 1 1 1 1 1 1 1 
1 1 1 1 1 1 1 1 1 
1 1 1 1 1 1 1 1 1 
1 1 1 1 1 1 1 1 1 
1 1 1 1 1 1 1 1 1 
1 1 1 1 1 1 1 1 1 
1 1 1 1 1 1 1 1 1 
1 1 1 1 1 1 1 1 1 
1 1 1 1 1 1 1 1 1 
1 1 1 1 1 1 1 1 1 
1 1 1 1 1 1 1 1 1 
1 1 1 1 1 1 1 1 1 
1 1 1 1 1 1 1 1 1 
1 1 1 1 1 1 1 1 1 
1 1 1 1 1 1 1 1 1 
1 1 1 1 1 1 1 1 1 
1 1 1 1 1 1 1 1 1 
1 1 1 1 1 1 1 1 1 
1 1 1 1 1 1 1 1 1 
1 1 1 1 1 1 1 1 1 
1 1 1 1 1 1 1 1 1 
1 1 1 1 1 1 1 1 1 
1 1 1 1 1 1 1 1 1 
1 1 1 1 1 1 1 1 1 
1 1 1 1 1 1 1 1 1 
1 1 1 1 1 1 1 1 1 
1 1 1 1 1 1 1 1 1 
1 1 1 1 1 1 1 1 1 
1 1 1 1 1 1 1 1 1 
1 1 1 1 1 1 1 1 1 
1 1 1 1 1 1 1 1 1 
1 1 1 1 1 1 1 1 1 
1 1 1 1 1 1 1 1 1 
1 1 1 1 1 1 1 1 1 
1 1 1 1 1 1 1 1 1 
1 1 1 1 1 1 1 1 1 
1 1 1 1 1 1 1 1 1 
1 1 1 1 1 1 1 1 1 
1 1 1 1 1 1 1 1 1 
1 1 1 1 1 1 1 1 1 
1 1 1 1 1 1 1 1 1 
1 1 1 1 1 1 1 1 1 
1 1 1 1 1 1 1 1 1 
1 1 1 1 1 1 1 1 1 
1 1 1 1 1 1 1 1 1 
1 1 1 1 1 1 1 1 1 
1 1 1 1 1 1 1 1 1 
1 1 1 1 1 1 1 1 1 
1 1 1 1 1 1 1 1 1 
1 1 1 1 1 1 1 1 1 
1 1 1 1 1 1 1 1 1 
1 1 1 1 1 1 1 1 1 
1 1 1 1 1 1 1 1 1 
1 1 1 1 1 1 1 1 1 
1 1 1 1 1 1 1 1 1 
1 1 1 1 1 1 1 1 1 
1 1 1 1 1 1 1 1 1 
1 1 1 1 1 1 1 1 1 
1 1 1 1 1 1 1 1 1 
1 1 1 1 1 1 1 1 1 
1 1 1 1 1 1 1 1 1 
1 1 1 1 1 1 1 1 1 
1 1 1 1 1 1 1 1 1 
1 1 1 1 1 1 1 1 1 
1 1 1 1 1 1 1 1 1 
1 1 1 1 1 1 1 1 1 
1 1 1 1 1 1 1 1 1 
1 1 1 1 1 1 1 1 1 
1 1 1 1 1 1 1 1 1 
1 1 1 1 1 1 1 1 1 
1 1 1 1 1 1 1 1 1 
1 1 1 1 1 1 1 1 1 
1 1 1 1 1 1 1 1 1 
1 1 1 1 1 1 1 1 1 
1 1 1 1 1 1 1 1 1 
1 1 1 1 1 1 1 1 1 
1 1 1 1 1 1 1 1 1 
1 1 1 1 1 1 1 1 1 
1 1 1 1 1 1 1 1 1 
1 1 1 1 1 1 1 1 1 
1 1 1 1 1 1 1 1 1 
1 1 1 1 1 1 1 1 1 
1 1 1 1 1 1 1 1 1 
1 1 1 1 1 1 1 1 1 
1 1 1 1 1 1 1 1 1 
1 1 1 1 1 1 1 1 1 
1 1 1 1 1 1 1 1 1 
1 1 1 1 1 1 1 1 1 
1 1 1 1 1 1 1 1 1 
1 1 1 1 1 1 1 1 1 
1 1 1 1 1 1 1 1 1 
1 1 1 1 1 1 1 1 1 
1 1 1 1 1 1 1 1 1 
1 1 1 1 1 1 1 1 1 
1 1 1 1 1 1 1 1 1 
1 1 1 1 1 1 1 1 1 
1 1 1 1 1 1 1 1 1 
1 1 1 1 1 1 1 1 1 
1 1 1 1 1 1 1 1 1 
1 1 1 1 1 1 1 1 1 
1 1 1 1 1 1 1 1 1 
1 1 1 1 1 1 1 1 1 
1 1 1 1 1 1 1 1 1 
1 1 1 1 1 1 1 1 1 
1 1 1 1 1 1 1 1 1 
1 1 1 1 1 1 1 1 1 
1 1 1 1 1 1 1 1 1 
1 1 1 1 1 1 1 1 1 
1 1 1 1 1 1 1 1 1 
1 1 1 1 1 1 1 1 1 
1 1 1 1 1 1 1 1 1 
1 1 1 1 1 1 1 1 1 
1 1 1 1 1 1 1 1 1 
1 1 1 1 1 1 1 1 1 
1 1 1 1 1 1 1 1 1 
1 1 1 1 1 1 1 1 1 
1 1 1 1 1 1 1 1 1 
1 1 1 1 1 1 1 1 1 
1 1 1 1 1 1 1 1 1 
1 1 1 1 1 1 1 1 1 
1 1 1 1 1 1 1 1 1 
1 1 1 1 1 1 1 1 1 
1 1 1 1 1 1 1 1 1 
1 1 1 1 1 1 1 1 1 
1 1 1 1 1 1 1 1 1 
1 1 1 1 1 1 1 1 1 
1 1 1 1 1 1 1 1 1 
1 1 1 1 1 1 1 1 1 
1 1 1 1 1 1 1 1 1 
1 1 1 1 1 1 1 1 1 
1 1 1 1 1 1 1 1 1 
1 1 1 1 1 1 1 1 1 
1 1 1 1 1 1 1 1 1 
1 1 1 1 1 1 1 1 1 
1 1 1 1 1 1 1 1 1 
1 1 1 1 1 1 1 1 1 
1 1 1 1 1 1 1 1 1 
1 1 1 1 1 1 1 1 1 
1 1 1 1 1 1 1 1 1 
1 1 1 1 1 1 1 1 1 
1 1 1 1 1 1 1 1 1 
1 1 1 1 1 1 1 1 1 
1 1 1 1 1 1 1 1 1 
1 1 1 1 1 1 1 1 1 
1 1 1 1 1 1 1 1 1 
1 1 1 1 1 1 1 1 1 
1 1 1 1 1 1 1 1 1 
1 1 1 1 1 1 1 1 1 
1 1 1 1 1 1 1 1 1 
1 1 1 1 1 1 1 1 1 
1 1 1 1 1 1 1 1 1 
1 1 1 1 1 1 1 1 1 
1 1 1 1 1 1 1 1 1 
1 1 1 1 1 1 1 1 1 
1 1 1 1 1 1 1 1 1 
1 1 1 1 1 1 1 1 1 
1 1 1 1 1 1 1 1 1 
1 1 1 1 1 1 1 1 1 
1 1 1 1 1 1 1 1 1 
1 1 1 1 1 1 1 1 1 
1 1 1 1 1 1 1 1 1 
1 1 1 1 1 1 1 1 1 
1 1 1 1 1 1 1 1 1 
1 1 1 1 1 1 1 1 1 
1 1 1 1 1 1 1 1 1 
1 1 1 1 1 1 1 1 1 
1 1 1 1 1 1 1 1 1 
1 1 1 1 1 1 1 1 1 
1 1 1 1 1 1 1 1 1 
1 1 1 1 1 1 1 1 1 
1 1 1 1 1 1 1 1 1 
1 1 1 1 1 1 1 1 1 
1 1 1 1 1 1 1 1 1 
1 1 1 1 1 1 1 1 1 
1 1 1 1 1 1 1 1 1 
1 1 1 1 1 1 1 1 1 
1 1 1 1 1 1 1 1 1 
1 1 1 1 1 1 1 1 1 
1 1 1 1 1 1 1 1 1 
1 1 1 1 1 1 1 1 1 
1 1 1 1 1 1 1 1 1 
1 1 1 1 1 1 1 1 1 
1 1 1 1 1 1 1 1 1 
1 1 1 1 1 1 1 1 1 
1 1 1 1 1 1 1 1 1 
1 1 1 1 1 1 1 1 1 
1 1 1 1 1 1 1 1 1 
1 1 1 1 1 1 1 1 1 
1 1 1 1 1 1 1 1 1 
1 1 1 1 1 1 1 1 1 
1 1 1 1 1 1 1 1 1 
1 1 1 1 1 1 1 1 1 
1 1 1 1 1 1 1 1 1 
1 1 1 1 1 1 1 1 1 
1 1 1 1 1 1 1 1 1 
1 1 1 1 1 1 1 1 1 
1 1 1 1 1 1 1 1 1 
1 1 1 1 1 1 1 1 1 
1 1 1 1 1 1 1 1 1 
1 1 1 1 1 1 1 1 1 
1 1 1 1 1 1 1 1 1 
1 1 1 1 1 1 1 1 1 
1 1 1 1 1 1 1 1 1 
1 1 1 1 1 1 1 1 1 
1 1 1 1 1 1 1 1 1 
1 1 1 1 1 1 1 1 1 
1 1 1 1 1 1 1 1 1 
1 1 1 1 1 1 1 1 1 
1 1 1 1 1 1 1 1 1 
1 1 1 1 1 1 1 1 1 
1 1 1 1 1 1 1 1 1 
1 1 1 1 1 1 1 1 1 
1 1 1 1 1 1 1 1 1 
1 1 1 1 1 1 1 1 1 
1 1 1 1 1 1 1 1 1 
1 1 1 1 1 1 1 1 1 
1 1 1 1 1 1 1 1 1 
1 1 1 1 1 1 1 1 1 
1 1 1 1 1 1 1 1 1 
1 1 1 1 1 1 1 1 1 
1 1 1 1 1 1 1 1 1 
1 1 1 1 1 1 1 1 1 
1 1 1 1 1 1 1 1 1 
1 1 1 1 1 1 1 1 1 
1 1 1 1 1 1 1 1 1 
1 1 1 1 1 1 1 1 1 
1 1 1 1 1 1 1 1 1 
1 1 1 1 1 1 1 1 1 
1 1 1 1 1 1 1 1 1 
1 1 1 1 1 1 1 1 1 
1 1 1 1 1 1 1 1 1 
1 1 1 1 1 1 1 1 1 
1 1 1 1 1 1 1 1 1 
1 1 1 1 1 1 1 1 1 
1 1 1 1 1 1 1 1 1 
1 1 1 1 1 1 1 1 1 
1 1 1 1 1 1 1 1 1 
1 1 1 1 1 1 1 1 1 
1 1 1 1 1 1 1 1 1 
1 1 1 1 1 1 1 1 1 
1 1 1 1 1 1 1 1 1 
1 1 1 1 1 1 1 1 1 
1 1 1 1 1 1 1 1 1 
1 1 1 1 1 1 1 1 1 
1 1 1 1 1 1 1 1 1 
1 1 1 1 1 1 1 1 1 
1 1 1 1 1 1 1 1 1 
1 1 1 1 1 1 1 1 1 
1 1 1 1 1 1 1 1 1 
1 1 1 1 1 1 1 1 1 
1 1 1 1 1 1 1 1 1 
1 1 1 1 1 1 1 1 1 
1 1 1 1 1 1 1 1 1 
1 1 1 1 1 1 1 1 1 
1 1 1 1 1 1 1 1 1 
1 1 1 1 1 1 1 1 1 
1 1 1 1 1 1 1 1 1 
1 1 1 1 1 1 1 1 1 
1 1 1 1 1 1 1 1 1 
1 1 1 1 1 1 1 1 1 
1 1 1 1 1 1 1 1 1 
1 1 1 1 1 1 1 1 1 
1 1 1 1 1 1 1 1 1 
1 1 1 1 1 1 1 1 1 
1 1 1 1 1 1 1 1 1 
1 1 1 1 1 1 1 1 1 
1 1 1 1 1 1 1 1 1 
1 1 1 1 1 1 1 1 1 
1 1 1 1 1 1 1 1 1 
1 1 1 1 1 1 1 1 1 
1 1 1 1 1 1 1 1 1 
1 1 1 1 1 1 1 1 1 
1 1 1 1 1 1 1 1 1 
1 1 1 1 1 1 1 1 1 
1 1 1 1 1 1 1 1 1 
1 1 1 1 1 1 1 1 1 
1 1 1 1 1 1 1 1 1 
1 1 1 1 1 1 1 1 1 
1 1 1 1 1 1 1 1 1 
1 1 1 1 1 1 1 1 1 
1 1 1 1 1 1 1 1 1 
1 1 1 1 1 1 1 1 1 
1 1 1 1 1 1 1 1 1 
1 1 1 1 1 1 1 1 1 
1 1 1 1 1 1 1 1 1 
1 1 1 1 1 1 1 1 1 
1 1 1 1 1 1 1 1 1 
1 1 1 1 1 1 1 1 1 
1 1 1 1 1 1 1 1 1 
1 1 1 1 1 1 1 1 1 
1 1 1 1 1 1 1 1 1 
1 1 1 1 1 1 1 1 1 
1 1 1 1 1 1 1 1 1 
1 1 1 1 1 1 1 1 1 
1 1 1 1 1 1 1 1 1 
1 1 1 1 1 1 1 1 1 
1 1 1 1 1 1 1 1 1 
1 1 1 1 1 1 1 1 1 
1 1 1 1 1 1 1 1 1 
1 1 1 1 1 1 1 1 1 
1 1 1 1 1 1 1 1 1 
1 1 1 1 1 1 1 1 1 
1 1 1 1 1 1 1 1 1 
1 1 1 1 1 1 1 1 1 
1 1 1 1 1 1 1 1 1 
1 1 1 1 1 1 1 1 1 
1 1 1 1 1 1 1 1 1 
1 1 1 1 1 1 1 1 1 
1 1 1 1 1 1 1 1 1 
1 1 1 1 1 1 1 1 1 
1 1 1 1 1 1 1 1 1 
1 1 1 1 1 1 1 1 1 
1 1 1 1 1 1 1 1 1 
1 1 1 1 1 1 1 1 1 
1 1 1 1 1 1 1 1 1 
1 1 1 1 1 1 1 1 1 
1 1 1 1 1 1 1 1 1 
1 1 1 1 1 1 1 1 1 
1 1 1 1 1 1 1 1 1 
1 1 1 1 1 1 1 1 1 
1 1 1 1 1 1 1 1 1 
1 1 1 1 1 1 1 1 1 
1 1 1 1 1 1 1 1 1 
1 1 1 1 1 1 1 1 1 
1 1 1 1 1 1 1 1 1 
1 1 1 1 1 1 1 1 1 
1 1 1 1 1 1 1 1 1 
1 1 1 1 1 1 1 1 1 
1 1 1 1 1 1 1 1 1 
1 1 1 1 1 1 1 1 1 
1 1 1 1 1 1 1 1 1 
1 1 1 1 1 1 1 1 1 
1 1 1 1 1 1 1 1 1 
1 1 1 1 1 1 1 1 1 
1 1 1 1 1 1 1 1 1 
1 1 1 1 1 1 1 1 1 
1 1 1 1 1 1 1 1 1 
1 1 1 1 1 1 1 1 1 
1 1 1 1 1 1 1 1 1 
1 1 1 1 1 1 1 1 1 
1 1 1 1 1 1 1 1 1 
1 1 1 1 1 1 1 1 1 
1 1 1 1 1 1 1 1 1 
1 1 1 1 1 1 1 1 1 
1 1 1 1 1 1 1 1 1 
1 1 1 1 1 1 1 1 1 
1 1 1 1 1 1 1 1 1 
1 1 1 1 1 1 1 1 1 
1 1 1 1 1 1 1 1 1 
1 1 1 1 1 1 1 1 1 
1 1 1 1 1 1 1 1 1 
1 1 1 1 1 1 1 1 1 
1 1 1 1 1 1 1 1 1 
1 1 1 1 1 1 1 1 1 
1 1 1 1 1 1 1 1 1 
1 1 1 1 1 1 1 1 1 
1 1 1 1 1 1 1 1 1 
1 1 1 1 1 1 1 1 1 
1 1 1 1 1 1 1 1 1 
1 1 1 1 1 1 1 1 1 
1 1 1 1 1 1 1 1 1 
1 1 1 1 1 1 1 1 1 
1 1 1 1 1 1 1 1 1 
1 1 1 1 1 1 1 1 1 
1 1 1 1 1 1 1 1 1 
1 1 
NORMALS Normals float
-0.21491 -0.537827 -0.815203 0.120331 -0.440318 -0.889742 -0.463536 -0.273652 -0.842762 
-0.481148 -0.530421 -0.697961 -0.736031 -0.0862247 -0.671434 -0.0165718 -0.394349 -0.918811 
-0.56506 -0.0788066 -0.821277 -0.299722 -0.0955466 -0.94923 0.19374 -0.0527148 -0.979636 
-0.0409419 0.0131808 -0.999075 -0.316797 0.436631 -0.842017 0.048325 0.277446 -0.959525 
-0.673194 -0.46777 -0.572714 -0.709245 -0.0518428 -0.703053 0.367917 -0.538849 -0.757812 
0.372889 -0.294098 -0.880034 -0.597079 0.425637 -0.679948 -0.145682 0.491042 -0.858868 
-0.539143 -0.726426 -0.426182 -0.0968985 -0.751933 -0.652079 0.158069 -0.776783 -0.609608 
-0.64817 -0.602356 -0.465878 -0.614514 -0.26029 -0.744729 -0.698998 -0.614476 -0.365816 
-0.825958 -0.13887 -0.546359 -0.787623 0.220678 -0.575284 -0.745933 0.38976 -0.540066 
0.565779 -0.0955835 -0.818998 -0.169791 -0.918011 -0.358367 -0.896338 -0.346968 -0.276027 
0.446192 0.885847 -0.127232 0.33117 0.0949776 -0.938779 0.665299 -0.00549323 -0.746557 
0.389732 0.124911 -0.912418 -0.0480632 0.386225 -0.921151 0.388147 0.00939602 -0.92155 
0.301271 0.34237 -0.889954 0.366159 0.356265 -0.859653 0.595955 0.178824 -0.782853 
-0.562447 -0.760609 -0.324232 0.152404 -0.87334 -0.462657 0.439448 -0.289564 -0.850316 
-0.523001 0.514789 -0.67931 -0.377927 0.662274 -0.646965 0.415947 -0.719264 -0.556459 
0.692796 -0.309771 -0.651211 0.0769782 0.553599 -0.829218 0.364209 0.253392 -0.896183 
-0.148713 -0.956515 -0.250924 0.123224 -0.932612 -0.339191 -0.53508 -0.815077 -0.222125 
0.606616 -0.565433 -0.55884 0.446192 0.885847 -0.127232 0.72584 -0.177671 -0.664522 
-0.207985 0.591521 -0.779002 0.306702 -0.876517 -0.371014 -0.885052 -0.315956 -0.34184 
-0.678136 0.671483 -0.298734 -0.0222386 0.268411 -0.963048 -0.274316 0.394488 -0.877001 
-0.0828069 0.501271 -0.861319 -0.48692 -0.856088 -0.173272 -0.912513 0.300508 -0.277517 
0.771333 -0.26197 -0.580015 0.172763 0.226132 -0.958654 0.155867 0.383898 -0.910125 
-0.100698 -0.974948 -0.198336 0.314974 -0.866629 -0.38697 -0.684647 -0.715699 -0.13796 
-0.811416 -0.537639 -0.229233 -0.834668 -0.544527 -0.0825859 -0.975402 0.0672059 -0.209937 
-0.804539 0.563658 -0.1871 0.683599 -0.202521 -0.701197 -0.622636 0.533143 -0.572786 
-0.395301 0.370648 -0.840451 0.337238 0.19906 -0.920133 0.134196 0.306196 -0.942463 
-0.269322 0.543779 -0.79484 -0.221917 0.509005 -0.831665 0.607329 -0.620725 -0.495835 
-0.594745 0.594776 -0.540851 0.563178 0.14228 -0.813994 -0.536965 0.417604 -0.73299 
-0.211016 0.397049 -0.89321 -0.162101 0.589245 -0.791526 -0.321767 0.732924 -0.599406 
0.0469308 -0.96204 -0.268844 -0.604567 -0.787262 0.121314 -0.947161 -0.139542 -0.288817 
-0.582823 0.649359 -0.488519 0.366444 0.308567 -0.877784 0.267246 0.468111 -0.842289 
-0.638823 -0.756244 0.14142 0.609626 -0.62353 -0.489456 -0.518895 -0.845919 0.123166 
-0.126611 -0.862673 0.489659 0.155487 -0.919773 0.360336 -0.560506 -0.690579 0.457093 
-0.926634 0.229879 -0.297499 0.674659 -0.466539 -0.571994 -0.783441 0.594721 -0.180352 
-0.518958 0.636041 -0.571081 0.395367 0.550692 -0.735135 -0.00885879 0.748828 -0.662705 
-0.49038 -0.87047 -0.0425503 0.189184 -0.971432 0.143281 -0.705628 -0.67392 -0.218908 
0.569179 -0.645458 0.509332 -0.808318 -0.415469 0.417143 0.601112 -0.563197 -0.566986 
0.0956308 -0.73018 0.676529 -0.781476 0.622481 0.0425726 -0.679624 0.720843 -0.136001 
-0.68799 0.650092 -0.322569 0.593032 0.413398 -0.690952 0.239328 -0.928655 -0.283411 
-0.78212 -0.614289 0.104585 -0.893593 -0.274527 0.355142 -0.95529 0.106614 -0.275779 
0.725024 -0.598256 0.341217 -0.591749 -0.460653 0.661537 -0.707257 -0.110313 0.698297 
-0.370783 0.0251638 0.928379 0.646927 0.387952 0.656489 -0.331322 -0.437061 0.836184 
-0.460138 0.885429 0.0654884 -0.344991 -0.523465 0.77908 -0.91187 -0.0251721 0.409708 
-0.172368 -0.295338 0.939715 -0.922189 0.386614 0.00987144 -0.722526 0.252549 0.643565 
-0.719147 0.374555 0.585266 0.307777 -0.494175 0.813059 -0.570383 0.180246 0.801358 
-0.456683 0.382148 0.80337 -0.0344548 -0.0223587 0.999156 -0.250475 0.169725 0.953129 
-0.777547 0.624723 -0.0717073 -0.839851 0.53845 -0.068722 -0.761353 0.642486 -0.0869126 
0.338581 0.679278 -0.65111 -0.511651 -0.843858 -0.161607 0.488687 -0.867359 0.0942015 
-0.829679 -0.486846 -0.273154 0.820682 -0.489692 0.29442 0.801629 -0.513986 0.305302 
-0.955909 0.0667696 0.285973 -0.675184 0.726064 -0.130219 -0.160545 0.968653 0.189571 
-0.879278 0.294845 0.374081 -0.83027 0.490193 0.265259 -0.718283 0.681361 -0.140774 
-0.425395 -0.751209 0.504702 -0.911526 -0.354248 0.208875 0.0932283 -0.753789 0.65047 
0.600055 -0.465338 0.650688 -0.684605 0.728831 -0.0110204 -0.890717 0.426013 0.158541 
-0.59283 0.542147 0.595507 0.108445 -0.221762 0.969052 -0.167754 0.124254 0.977967 
0.33023 -0.232688 0.91477 -0.505716 0.530851 0.680035 0.331975 -0.0644691 0.941082 
-0.43196 0.354821 0.829163 -0.389974 0.507535 0.768328 -0.430395 0.371097 0.822829 
0.446341 0.113156 0.88768 -0.197465 0.171233 0.965239 -0.809559 0.581833 0.0780125 
0.0185083 0.165431 0.986048 0.0456886 0.0964057 0.994293 0.0481748 -0.151432 0.987293 
-0.302214 0.179248 0.936235 -0.60286 0.211748 0.769235 0.392956 -0.394271 0.830744 
0.269192 0.10011 0.957869 0.741212 -0.461266 0.487688 -0.396852 0.292705 0.869961 
-0.704384 0.703175 -0.0968902 0.595049 0.153769 0.788842 -0.451402 0.522792 0.723136 
0.2696 0.729894 0.628148 -0.621714 0.157343 0.767278 -0.565259 0.0342122 0.824204 
-0.416528 0.844732 -0.336054 -0.224343 0.96683 0.122108 -0.772014 -0.240452 0.588369 
-0.949623 0.0752089 -0.304236 0.771531 0.198177 -0.604537 -0.0266362 0.778229 -0.627415 
-0.403756 0.758287 -0.511842 0.0719534 0.736092 -0.673046 -0.284371 0.806378 -0.518544 
0.176895 0.869019 -0.462075 0.36092 0.796355 -0.48534 -0.429066 -0.887835 -0.166285 
0.457456 -0.816645 -0.351888 -0.985016 0.17113 0.0214067 0.433759 -0.900974 0.00990704 
0.476703 -0.878819 0.0207635 0.831414 -0.518569 0.199592 0.873808 -0.448566 0.187747 
-0.68689 0.720318 -0.0965572 0.339574 0.928155 0.152371 0.518161 -0.854692 0.0317972 
-0.844977 0.494768 0.203026 -0.690125 0.717912 -0.0912625 -0.428274 -0.859912 0.277728 
-0.993415 0.1136 0.01487 0.427306 -0.815891 0.389527 0.757839 -0.353305 0.548503 
-0.193363 0.412556 0.890173 0.906652 -0.133611 0.400162 -0.153455 -0.379431 0.912405 
-0.590918 0.803917 0.0673313 0.247143 -0.950251 -0.189589 0.421549 -0.906756 -0.00942112 
0.387151 -0.892757 -0.230434 0.322201 -0.880893 0.346719 0.559174 -0.743898 0.365979 
0.602309 -0.627731 0.49313 0.588602 -0.436379 0.68053 0.388593 -0.535009 0.750174 
-0.771412 0.631283 0.080028 -0.617946 0.60521 0.50186 -0.828113 0.559481 0.0347938 
0.57959 -0.329775 0.745201 -0.634301 0.550003 0.543285 -0.40064 0.479717 0.780615 
0.640831 0.177056 0.746985 -0.529051 0.842998 0.0972558 -0.15052 -0.469596 0.869956 
-0.909496 0.179174 0.375119 0.891122 0.00742285 0.453703 0.900403 -0.254413 -0.352914 
-0.31941 0.680678 -0.659284 -0.199079 -0.0775842 -0.976907 0.091743 -0.995154 -0.0353767 
-0.316107 -0.584745 0.747095 -0.757293 0.598478 -0.2614 -0.80386 0.561627 -0.19592 
-0.495014 -0.215151 0.841826 0.768543 0.262116 -0.58364 -0.691259 0.690409 -0.2133 
-0.574906 0.758647 -0.306493 0.449693 0.673022 -0.587211 -0.312718 0.863208 -0.396333 
-0.435873 0.855674 -0.278992 -0.169367 -0.978095 -0.121018 0.0511757 -0.987393 -0.14979 
-0.898809 -0.375439 -0.226245 0.484809 -0.802076 -0.34876 -0.98233 -0.17932 -0.0535909 
0.192981 -0.978242 -0.0761609 0.349308 -0.935932 -0.0448826 -0.903803 0.424383 -0.0551228 
-0.9448 0.307076 -0.114269 0.965837 -0.239155 0.0998223 0.648472 -0.761232 0.00320455 
0.387692 0.90432 0.178605 0.152773 -0.982117 -0.110029 -0.210858 0.973141 0.0923843 
-0.00105782 -0.987262 0.159101 -0.0806706 -0.996581 0.0178749 0.769678 -0.563272 0.300534 
-0.771336 0.629272 -0.0951664 -0.910399 0.000435136 0.413731 -0.33282 0.140393 0.932481 
0.73701 -0.147126 0.659675 -0.731962 0.553401 0.397467 -0.430477 0.879915 0.201095 
-0.778448 0.137317 0.612505 -0.885306 0.272891 0.376514 0.465947 -0.560554 0.684597 
-0.151398 0.00171367 0.988471 0.940845 -0.142534 0.3074 -0.62201 0.7103 0.329511 
-0.333768 0.93964 0.0753365 0.254857 -0.789066 0.558948 -0.986739 -0.111569 0.117896 
-0.658426 0.693484 0.292498 0.96757 0.212581 0.136446 -0.735374 0.338892 0.586836 
-0.254021 0.947358 -0.194898 0.032184 -0.93864 0.343393 -0.913431 0.337482 -0.227487 
-0.719498 0.342883 0.603949 0.0808416 -0.663034 0.744212 -0.347429 -0.38495 0.855048 
-0.444118 -0.238696 0.863588 0.792414 0.389328 -0.469579 0.713958 0.597354 -0.365283 
-0.591645 0.785065 -0.183384 -0.00132577 0.913996 -0.405722 0.156157 0.911352 -0.380858 
-0.801125 -0.585267 -0.125148 -0.937724 -0.27915 -0.206759 -0.991026 -0.0279784 -0.130706 
-0.368025 -0.919172 -0.140288 -0.998136 -0.0457404 -0.0404143 0.228593 0.964201 0.134393 
-0.968829 0.122891 -0.215099 0.970802 -0.239144 0.018814 0.298338 -0.950396 -0.0879937 
0.0415899 -0.989809 -0.136195 -0.903285 0.416044 -0.104803 0.374581 0.920425 0.111836 
0.40508 -0.913126 0.0459439 -0.287425 -0.948572 -0.132659 -0.872837 0.473413 0.118473 
-0.876657 0.476567 0.0659981 -0.744059 0.662402 -0.0871778 0.54431 -0.75486 0.365942 
-0.767364 0.631822 -0.109333 -0.984611 0.00939433 0.174509 -0.192381 -0.940807 0.279055 
-0.495282 -0.847509 0.19085 0.580505 -0.755984 0.302493 0.897064 0.191592 0.398206 
-0.592407 0.805196 0.0267107 -0.937663 -0.121711 0.325537 -0.982506 0.13466 0.128644 
0.735676 -0.650349 0.189279 0.994235 -0.105285 -0.0202915 -0.497977 0.847835 -0.182197 
0.126982 -0.990908 0.044457 -0.910159 0.386675 -0.148636 -0.737959 0.663114 0.125286 
0.313229 -0.112736 0.942962 0.857722 -0.226112 0.461721 -0.420079 0.866333 0.270187 
0.634335 -0.574223 0.517577 -0.811259 0.579191 -0.0799806 0.729784 0.539312 -0.420187 
-0.640385 0.724412 -0.255214 -0.934792 0.0337216 -0.353592 -0.852634 0.478383 -0.210154 
0.323143 -0.796465 0.511099 -0.915234 0.348536 0.202164 -0.707906 0.70617 -0.0138588 
-0.874516 0.479424 0.0733143 -0.747362 0.0678225 0.660946 -0.832732 0.301365 0.464475 
-0.610148 -0.174674 0.772792 0.537275 0.772187 -0.33921 -0.022539 0.963977 -0.265031 
0.481639 0.858663 -0.175275 0.105006 -0.987517 -0.117407 -0.999239 -0.039016 -0.000221284 
-0.0614798 0.989571 0.130269 0.538103 -0.831905 -0.135573 -0.340969 0.93407 0.106083 
0.904707 -0.40934 -0.118095 0.30374 0.948761 0.0871441 -0.887568 -0.411512 -0.207075 
0.977853 -0.161534 0.133079 0.877357 -0.478205 0.0395443 -0.891247 0.449668 -0.0589653 
-0.838566 0.538941 -0.0796879 -0.766408 0.639906 -0.0560261 -0.844581 0.529657 -0.0784002 
-0.701545 0.677948 -0.219594 -0.754722 0.654733 -0.0414751 -0.682167 0.731159 0.00742992 
-0.174074 -0.975677 0.133237 -0.138246 -0.987386 0.077183 0.864991 -0.485292 0.127602 
-0.727476 0.685474 0.030061 0.945104 -0.272041 0.181032 -0.428044 0.902913 0.0390682 
-0.19885 -0.93021 0.308493 0.414584 -0.895961 0.159291 -0.994783 -0.0608618 0.0818695 
-0.774139 0.627223 -0.0854371 0.947258 -0.0845782 0.309111 -0.687971 0.725731 -0.0033321 
0.595378 -0.767707 0.236963 -0.783174 0.616252 -0.0829021 0.796203 -0.598895 0.0859392 
0.663746 -0.695139 0.276086 -0.704678 0.688536 -0.171311 0.728637 -0.660781 0.180159 
0.465626 -0.683286 0.562416 0.678954 -0.610804 0.407358 -0.463642 -0.740144 0.487055 
-0.993089 0.116852 -0.0109453 0.522067 -0.748344 0.409179 -0.623558 0.0796333 0.777711 
0.225896 -0.587982 0.77669 -0.829463 0.170022 0.532057 -0.219906 -0.336793 0.915539 
-0.824671 0.538018 0.174511 0.768053 0.576875 -0.278047 0.00346959 0.994436 -0.105286 
-0.570246 -0.80622 -0.157573 -0.895877 -0.220723 -0.385597 -0.920902 0.0604806 -0.385074 