# vtk DataFile Version 4.2
vtk output
ASCII
DATASET POLYDATA
POINTS 982 float
136.225 164.687 194.338 136.183 164.645 194.391 136.155 164.767 194.349 
136.284 164.568 194.408 136.217 164.789 194.33 136.144 164.931 194.371 
135.349 166.589 194.182 135.271 166.663 194.213 135.328 166.703 194.186 
135.242 166.852 194.249 133.999 169.616 194.195 134.218 169.26 194.242 
133.372 170.3 194.303 133.482 171.007 194.23 143.28 150.951 195.614 
143.525 151.272 195.518 142.736 152.634 195.222 143.602 151.643 195.467 
143.491 152.151 195.392 141.291 154.456 195.165 140.878 154.195 195.437 
142.02 154.887 195.028 139.995 156.011 195.26 141.029 158.426 195.049 
139.912 159.321 194.882 139.542 159.764 194.91 139.59 160.515 194.978 
136.245 164.42 194.55 136.045 164.81 194.473 136.48 164.421 194.537 
136.506 164.828 194.479 135.339 166.236 194.41 135.135 166.697 194.356 
135.556 166.315 194.325 136.209 165.252 194.45 135.612 166.755 194.314 
134.156 168.302 194.512 135.299 167.218 194.343 132.517 170.232 194.966 
133.182 172.729 194.449 132.103 173.288 194.678 131.831 174.385 194.766 
143.997 149.253 196.499 144.232 149.686 196.295 144.297 150.089 196.188 
144.134 152.081 195.822 143.839 154.502 195.915 139.003 158.334 195.204 
137.556 160.551 195.514 137.006 162.717 195.08 136.552 163.712 194.873 
137.934 162.797 194.972 137.013 164.337 194.716 137.926 163.775 194.944 
135.664 165.444 194.609 136.141 166.199 194.483 134.682 167.38 194.571 
135.238 168.32 194.421 131.554 172.683 195.054 133.367 176.311 195.131 
129.35 177.452 195.693 130.54 177.18 195.276 131.189 176.958 195.134 
144.61 148.373 197.114 144.585 148.131 197.307 144.743 148.091 197.374 
144.68 148.721 196.943 143.534 149.227 196.756 144.935 148.654 197.136 
139.756 154.305 196.59 142.476 158.515 195.891 142.855 158.27 196.136 
136.74 160.057 196.597 140.531 161.382 195.497 141.189 160.885 195.751 
105.173 163.657 197.417 105.15 163.884 197.344 105.802 163.655 197.488 
105.58 163.464 197.538 105.004 164.18 197.365 105.619 164.111 197.242 
105.239 164.571 197.203 106.521 164.385 197.479 104.946 164.982 197.309 
106.593 164.634 197.456 105.773 165.414 197.149 105.33 166.039 197.274 
105.661 166.405 197.296 106.151 165.864 197.252 106.544 166.062 197.403 
106.036 166.433 197.323 130.078 173.576 196.031 135.039 173.943 195.14 
128.397 177.137 196.325 131.084 179.081 195.594 133.167 179.352 196.03 
144.914 147.901 197.665 143.367 148.779 197.547 145.406 149.357 197.514 
145.037 152.926 197.016 138.57 155.907 197.21 143.576 157.825 196.794 
105.207 163.149 197.949 105.57 163.294 197.712 105.448 163.179 197.858 
105.657 163.231 197.938 105.999 163.432 198.03 104.69 163.777 197.747 
106.313 163.865 197.668 133.904 165.381 196.419 104.997 165.833 197.373 
107.302 165.657 197.999 139.047 166.258 195.85 107.244 166.228 197.918 
105.462 167.115 197.538 106.439 167.012 197.545 126.803 177.894 197.339 
127.656 181.932 196.966 144.871 147.625 198.01 145.32 147.85 198.095 
104.965 163.332 197.828 104.755 163.28 198.057 105.186 162.983 198.335 
105.431 163.074 198.148 104.61 163.4 198.111 134.568 163.057 197.732 
104.025 165.234 198.49 104.496 166.004 197.878 104.491 168.223 198.471 
107.234 169.9 198.411 136.999 174.183 196.716 124.656 179.663 198.07 
133.499 182.535 197.706 145.357 146.694 199.343 145.178 146.688 199.305 
145.48 146.464 199.725 145.033 147.15 198.753 140.413 152.116 198.495 
143.637 160.322 198.4 104.648 163.234 198.28 107.468 164.96 198.549 
108.233 169.791 198.873 108.821 169.386 199.386 105.478 171.756 199.28 
108.55 171.436 199.062 139.062 171.646 197.923 107.906 172.782 199.091 
108.532 172.904 199.188 124.762 177.846 199.038 121.078 179.324 199.491 
121.397 180.374 199.024 121.2 180.828 198.986 122.748 180.969 198.578 
123.472 182.475 198.433 123.874 182.936 198.415 130.637 184.316 197.823 
145.437 146.327 200.017 145.637 146.368 200.085 145.765 146.541 199.913 
145.778 146.731 199.685 104.846 162.712 199.072 104.759 162.672 199.304 
105.012 162.683 199.124 104.884 162.618 199.289 105.025 162.64 199.339 
106.81 163.897 199.184 103.56 165.002 199.54 107.394 172.903 199.155 
109.979 173.139 199.679 109.085 175.734 199.705 113.68 176.098 200.521 
112.262 176.903 199.92 117.156 177.744 200.531 115.631 178.16 200.119 
116.842 178.318 200.185 121.755 178.558 199.842 121.493 178.169 200.295 
124.733 177.268 199.669 117.727 179.167 199.905 116.256 179.804 199.793 
116.05 180.466 199.785 135.496 181.327 198.725 135.633 182.679 199.839 
123.26 185.37 199.39 145.505 146.146 200.651 145.748 146.267 200.505 
143.801 147.341 200.127 146.606 151.852 200.403 104.794 162.629 199.477 
104.916 162.604 199.471 105.052 162.688 199.65 106.119 163.266 200.399 
103.051 167.721 200.206 110.145 169.52 201.395 113.21 174.189 201.753 
109.181 177.073 199.999 116.55 176.592 201.464 118.046 177.46 200.944 
117.507 177.053 201.28 121.25 177.679 200.965 123.347 178.012 199.76 
112.99 180.51 200.235 116.069 181.759 199.983 131.034 187.265 199.874 
145.564 145.984 201.063 145.561 145.939 201.282 145.682 146.024 201.246 
144.919 146.305 200.794 105.39 162.872 200.297 105.215 162.887 200.56 
103.53 164.268 200.83 108.194 178.02 200.652 145.77 146.035 201.783 
104.622 163.015 200.5 105.85 163.342 201.631 107.169 164.283 201.791 
109.283 167.306 202.004 102.086 167.648 202.719 141.481 171.047 202.215 
111.788 182.196 201.283 131.625 191.149 203.305 145.465 145.959 201.866 
105.112 163.26 201.857 105.554 163.312 201.935 102.08 167.036 203.186 
127.213 173.593 202.825 121.246 176.509 203.816 122.575 176.517 203.157 
105.854 179.418 202.748 147.334 153.327 204.677 146.723 157.138 204.643 
104.462 163.626 202.962 105.211 163.604 203.283 103.279 164.518 202.952 
105.767 163.704 203.164 102.337 166.157 203.544 112.685 172.524 204.642 
133.468 190.27 204.23 145.722 146.377 204.478 146.753 147.183 204.412 
104.065 163.977 203.838 103.746 164.185 203.719 104.79 163.643 203.419 
106.799 164.736 204.959 102.334 166.188 204.742 108.935 166.861 205.014 
117.558 175.626 205.679 102.729 177.034 205.491 138.076 182.234 205.337 
133.637 190.845 205.596 145.281 146.498 205.928 146.077 146.551 205.012 
147.372 149.023 205.345 104.273 164.007 204.251 104.046 164.337 204.877 
105.301 164.173 205.179 102.767 165.611 205.255 101.606 171.889 205.816 
126.448 173.906 206.042 125.511 174.753 205.63 123.158 175.901 205.731 
103.373 182.078 207.344 110.968 190.876 205.755 125.628 197.011 206.366 
145.691 146.524 206.482 144.386 146.856 206.859 103.325 165.125 205.75 
104.023 164.625 205.702 101.673 168.607 206.19 114.989 174.316 207.605 
101.971 176.512 207.081 118.297 175.684 207.397 106.487 187.506 206.789 
135.74 188.183 206.806 111.732 195.12 207.875 131.083 194.225 206.947 
145.274 146.589 207.971 101.51 174.154 208.461 123.701 175.567 207.408 
112.899 196.667 208.224 115.18 199.657 209.313 118.251 200.853 209.458 
119.849 200.943 209.266 146.111 162.265 209.446 103.084 166.183 208.05 
105.947 165.374 208.204 122.419 175.832 208.809 105.647 189.12 209.247 
108.121 192.724 209.235 132.875 193.237 209.251 123.003 201.11 209.527 
124.914 200.883 210.039 147.251 148.013 209.562 104.001 165.759 208.674 
104.669 165.687 208.972 108.437 167.45 209.766 101.549 172.771 209.694 
141.494 175.733 210.247 103.61 186.002 210.332 127.507 199.333 210.212 
113.377 200.088 211.312 115.701 200.926 210.662 123.699 201.539 210.318 
147.655 149.38 210.917 105.295 166.032 209.806 110.186 197.166 211.508 
111.893 199.231 211.892 124.767 201.702 211.435 145.275 146.615 212.059 
146.776 147.174 210.847 147.291 148.007 211.623 147.797 154.024 211.95 
147.224 158.952 212.989 105.068 166.388 210.429 104.318 167.104 211.217 
106.92 166.811 210.874 107.397 167.042 210.923 104.082 167.597 211.774 
122.366 175.742 211.713 102.428 183.94 213.101 127.761 199.893 212.114 
114.577 201.517 212.762 146.498 146.872 212.413 106.937 167.359 212.176 
110.299 198.362 213.547 126.808 201.048 213.423 123.204 202.509 212.474 
141.3 149.948 213.765 107.427 168.048 213.339 108.792 169.004 213.587 
118.967 175.725 213.879 145.17 146.498 215.129 146.79 147.079 214.242 
105.879 167.497 212.866 106.919 168.067 213.8 104.362 168.942 214.46 
102.915 170.99 214.177 111.171 171.72 215.436 112.106 172.573 215.503 
113.029 173.334 215.66 114.403 174.218 215.543 124.095 175.108 214.921 
121.628 175.816 214.834 103.925 189.119 215.408 131.688 195.926 214.483 
118.643 203.484 215.795 145.51 146.416 215.658 146.461 146.768 214.947 
104.342 169.482 215.12 102.467 184.525 216.376 122.273 203.27 215.575 
145.96 146.348 216.618 105.462 168.958 215.343 106.391 169.134 215.952 
107.484 169.146 215.808 107.936 169.504 216.192 126.195 173.579 216.513 
123.083 175.508 216.451 110.787 199.748 217.435 114.859 202.681 217.796 
146.437 146.567 217.763 147.241 147.729 217.259 137.857 155.508 218.177 
107.66 169.778 216.967 103.405 187.858 217.766 122.948 203.255 218.177 
120.749 203.659 217.876 146.131 146.378 218.386 106.268 170.025 217.341 
106.668 170.297 217.88 107.296 170.067 217.591 108.343 170.333 217.655 
105.528 171.117 218.307 117.351 175.648 219.133 132.004 195.466 218.92 
116.325 203.307 219.258 145.629 146.279 219.051 142.853 148.516 219.236 
105.416 171.54 218.656 104.734 173.415 219.385 118.395 203.689 220.362 
145.867 146.421 219.825 146.157 146.491 219.544 146.885 147.401 219.417 
138.737 154.385 220.339 146.873 158.964 220.739 109.247 171.952 219.935 
103.51 179.638 220.174 103.32 183.974 220.499 103.167 185.318 219.817 
146.284 146.857 220.375 144.522 147.129 220.553 106.463 172.085 219.909 
108.359 171.942 220.281 110.07 173.009 221.048 103.82 183.509 221.468 
138.026 183.635 221.385 145.49 146.709 220.957 145.715 146.679 220.844 
146.156 147.029 220.929 144.342 147.696 221.306 146.965 150.022 221.191 
140.69 152.427 222.359 137.705 156.382 222.385 108.026 172.171 220.531 
[...]
POINT_DATA 982
SCALARS scalars float
LOOKUP_TABLE default
1 1 1 1 1 1 1 1 1 
1 1 1 1 1 1 1 1 1 
1 1 1 1 1 1 1 1 1 
1 1 1 1 1 1 1 1 1 
1 1 1 1 1 1 1 1 1 
1 1 1 1 1 1 1 1 1 
1 1 1 1 1 1 1 1 1 
1 1 1 1 1 1 1 1 1 
1 1 1 1 1 1 1 1 1 
1 1 1 1 1 1 1 1 1 
1 1 1 1 1 1 1 1 1 
1 1 1 1 1 1 1 1 1 
1 1 1 1 1 1 1 1 1 
1 1 1 1 1 1 1 1 1 
1 1 1 1 1 1 1 1 1 
1 1 1 1 1 1 1 1 1 
1 1 1 1 1 1 1 1 1 
1 1 1 1 1 1 1 1 1 
1 1 1 1 1 1 1 1 1 
1 1 1 1 1 1 1 1 1 
1 1 1 1 1 1 1 1 1 
1 1 1 1 1 1 1 1 1 
1 1 1 1 1 1 1 1 1 
1 1 1 1 1 1 1 1 1 
1 1 1 1 1 1 1 1 1 
1 1 1 1 1 1 1 1 1 
1 1 1 1 1 1 1 1 1 
1 1 1 1 1 1 1 1 1 
1 1 1 1 1 1 1 1 1 
1 1 1 1 1 1 1 1 1 
1 1 1 1 1 1 1 1 1 
1 1 1 1 1 1 1 1 1 
1 1 1 1 1 1 1 1 1 
1 1 1 1 1 1 1 1 1 
1 1 1 1 1 1 1 1 1 
1 1 1 1 1 1 1 1 1 
1 1 1 1 1 1 1 1 1 
1 1 1 1 1 1 1 1 1 
1 1 1 1 1 1 1 1 1 
1 1 1 1 1 1 1 1 1 
1 1 1 1 1 1 1 1 1 
1 1 1 1 1 1 1 1 1 
1 1 1 1 1 1 1 1 1 
1 1 1 1 1 1 1 1 1 
1 1 1 1 1 1 1 1 1 
1 1 1 1 1 1 1 1 1 
1 1 1 1 1 1 1 1 1 
1 1 1 1 1 1 1 1 1 
1 1 1 1 1 1 1 1 1 
1 1 1 1 1 1 1 1 1 
1 1 1 1 1 1 1 1 1 
1 1 1 1 1 1 1 1 1 
1 1 1 1 1 1 1 1 1 
1 1 1 1 1 1 1 1 1 
1 1 1 1 1 1 1 1 1 
1 1 1 1 1 1 1 1 1 
1 1 1 1 1 1 1 1 1 
1 1 1 1 1 1 1 1 1 
1 1 1 1 1 1 1 1 1 
1 1 1 1 1 1 1 1 1 
1 1 1 1 1 1 1 1 1 
1 1 1 1 1 1 1 1 1 
1 1 1 1 1 1 1 1 1 
1 1 1 1 1 1 1 1 1 
1 1 1 1 1 1 1 1 1 
1 1 1 1 1 1 1 1 1 
1 1 1 1 1 1 1 1 1 
1 1 1 1 1 1 1 1 1 
1 1 1 1 1 1 1 1 1 
1 1 1 1 1 1 1 1 1 
1 1 1 1 1 1 1 1 1 
1 1 1 1 1 1 1 1 1 
1 1 1 1 1 1 1 1 1 
1 1 1 1 1 1 1 1 1 
1 1 1 1 1 1 1 1 1 
1 1 1 1 1 1 1 1 1 
1 1 1 1 1 1 1 1 1 
1 1 1 1 1 1 1 1 1 
1 1 1 1 1 1 1 1 1 
1 1 1 1 1 1 1 1 1 
1 1 1 1 1 1 1 1 1 
1 1 1 1 1 1 1 1 1 
1 1 1 1 1 1 1 1 1 
1 1 1 1 1 1 1 1 1 
1 1 1 1 1 1 1 1 1 
1 1 1 1 1 1 1 1 1 
1 1 1 1 1 1 1 1 1 
1 1 1 1 1 1 1 1 1 
1 1 1 1 1 1 1 1 1 
1 1 1 1 1 1 1 1 1 
1 1 1 1 1 1 1 1 1 
1 1 1 1 1 1 1 1 1 
1 1 1 1 1 1 1 1 1 
1 1 1 1 1 1 1 1 1 
1 1 1 1 1 1 1 1 1 
1 1 1 1 1 1 1 1 1 
1 1 1 1 1 1 1 1 1 
1 1 1 1 1 1 1 1 1 
1 1 1 1 1 1 1 1 1 
1 1 1 1 1 1 1 1 1 
1 1 1 1 1 1 1 1 1 
1 1 1 1 1 1 1 1 1 
1 1 1 1 1 1 1 1 1 
1 1 1 1 1 1 1 1 1 
1 1 1 1 1 1 1 1 1 
1 1 1 1 1 1 1 1 1 
1 1 1 1 1 1 1 1 1 
1 1 1 1 1 1 1 1 1 
1 1 1 1 1 1 1 1 1 
1 
NORMALS Normals float
0.0253442 -0.30536 -0.9519 -0.575638 -0.501373 -0.645961 -0.556706 -0.145841 -0.817807 
-0.104338 -0.588319 -0.801869 0.0512414 0.0986155 -0.993805 -0.399002 0.102727 -0.911177 
-0.207667 -0.286399 -0.935334 -0.605613 -0.114321 -0.787505 -0.0813808 0.154427 -0.984647 
-0.47371 0.106619 -0.874203 -0.132238 -0.134554 -0.982043 -0.235024 -0.0988473 -0.96695 
-0.501205 -0.209124 -0.839679 -0.208662 0.0249796 -0.977669 -0.194937 -0.373947 -0.906732 
0.304656 -0.223001 -0.925989 -0.0424987 -0.152451 -0.987397 0.241739 -0.138696 -0.960378 
0.40838 0.0920805 -0.908156 -0.134353 -0.122226 -0.983367 -0.582441 -0.41636 -0.698145 
0.27317 0.0547969 -0.960404 -0.461918 -0.254543 -0.849612 0.407106 0.236068 -0.882347 
0.0112269 0.0316184 -0.999437 0.137617 0.151353 -0.978853 0.0544177 0.0942283 -0.994062 
-0.448576 -0.552191 -0.702755 -0.783888 -0.305905 -0.540316 0.218226 -0.378287 -0.899598 
0.498422 0.0716042 -0.863972 -0.564058 -0.418124 -0.712047 -0.721742 -0.288727 -0.629067 
0.120702 -0.27117 -0.954933 0.177684 0.232609 -0.956201 0.457276 0.158412 -0.875102 
-0.53553 -0.218775 -0.815687 0.0897842 0.273213 -0.957754 -0.62213 -0.231038 -0.748048 
-0.104203 0.108305 -0.988641 0.0726578 0.125363 -0.989447 -0.502853 -0.0625695 -0.862104 
-0.202133 -0.563268 -0.801169 0.118493 -0.381676 -0.916669 0.526368 -0.182484 -0.830444 
0.647419 0.0136968 -0.762011 0.625161 0.152073 -0.765537 -0.442336 -0.147829 -0.884582 
-0.487345 -0.264974 -0.832036 -0.233581 -0.243666 -0.941311 -0.0804862 -0.386022 -0.918972 
0.0284606 -0.057025 -0.997967 0.324366 -0.0284473 -0.945504 0.261367 -0.0218495 -0.964992 
-0.522047 -0.296122 -0.799862 0.319995 0.0789315 -0.944126 -0.527844 -0.161219 -0.8339 
0.0739283 0.00288042 -0.997259 -0.490563 -0.118572 -0.863301 0.187892 0.351254 -0.917233 
-0.417955 -0.0540205 -0.90686 -0.195847 0.0880221 -0.976676 -0.391981 -0.277117 -0.877244 
0.188813 -0.543458 -0.817926 -0.132763 -0.755247 -0.641854 0.352089 -0.595583 -0.722021 
0.51222 -0.319917 -0.797047 -0.558665 -0.598957 -0.573711 0.632021 -0.339577 -0.69659 
-0.723987 -0.474971 -0.500245 0.65375 0.394099 -0.645985 0.68894 0.332572 -0.644017 
-0.63858 -0.379711 -0.669354 0.53579 0.247493 -0.807264 0.539648 0.284624 -0.792319 
-0.371856 -0.523701 -0.76646 -0.129719 -0.300555 -0.944902 0.265998 -0.46827 -0.842596 
0.367276 -0.610963 -0.701308 -0.490828 -0.178368 -0.852803 0.130506 -0.239799 -0.962011 
-0.132508 -0.0516368 -0.989836 0.635963 -0.34099 -0.692299 -0.617453 -0.0137944 -0.786487 
0.423303 -0.105324 -0.899845 0.0772133 -0.011149 -0.996952 -0.244248 0.208927 -0.946938 
-0.228454 0.202043 -0.952359 0.183073 0.0921009 -0.978776 0.446979 0.0436205 -0.89348 
0.120076 0.190472 -0.974321 -0.721879 -0.340587 -0.602404 0.409368 0.220932 -0.885216 
-0.512578 -0.273026 -0.814076 -0.0484442 0.288622 -0.956217 0.256319 0.377216 -0.889949 
0.376417 -0.685793 -0.622896 -0.522608 -0.732681 -0.435958 0.806395 -0.0690537 -0.587332 
0.793873 0.153382 -0.588421 -0.840443 -0.472529 -0.265277 0.8098 0.390061 -0.438266 
-0.183868 -0.828659 -0.528693 0.145599 -0.76122 -0.631938 0.133278 -0.884489 -0.447119 
0.520914 -0.779566 -0.347744 0.567291 -0.780393 -0.262998 -0.731927 -0.231253 -0.640941 
0.598177 -0.592585 -0.53947 -0.707081 -0.372165 -0.601274 -0.488184 0.117356 -0.864814 
0.791197 -0.109745 -0.601634 0.561519 0.185893 -0.806313 0.699568 0.0508627 -0.712754 
-0.202186 0.297953 -0.932923 0.224301 0.254822 -0.940614 -0.569485 -0.377664 -0.730107 
-0.185131 0.294017 -0.9377 0.0125456 -0.839913 -0.542576 0.701535 -0.477721 -0.528802 
-0.381112 -0.732527 -0.564055 -0.455517 -0.753504 -0.474064 0.225268 -0.941404 -0.251023 
0.322626 -0.930143 -0.175346 -0.796427 -0.40341 -0.450515 -0.795507 -0.432922 -0.423966 
-0.838954 -0.0344852 -0.543109 -0.697007 0.194233 -0.690258 -0.650072 0.227747 -0.72494 
0.255611 0.0758711 -0.963798 0.742122 0.316058 -0.591069 -0.408046 -0.164818 -0.897961 
0.532998 0.533753 -0.656522 0.243316 -0.761787 -0.600398 -0.324112 -0.848065 -0.41921 
0.300585 -0.8245 -0.479425 0.134033 -0.76427 -0.630815 -0.795596 -0.551052 -0.251731 
0.830436 0.328932 -0.449643 -0.502776 -0.788032 -0.355278 0.870952 -0.327846 -0.366004 
0.47667 -0.197193 -0.85668 0.60915 -0.173232 -0.773904 -0.415572 0.345159 -0.841525 
0.304043 0.0391316 -0.951854 0.752264 0.267522 -0.602105 0.00918193 0.204447 -0.978835 
0.163828 0.205887 -0.964765 -0.419062 -0.593072 -0.687498 -0.163907 -0.461367 -0.871938 
-0.274599 -0.306741 -0.911321 -0.306542 -0.037134 -0.951133 -0.17724 -0.0643432 -0.982062 
-0.227392 0.104422 -0.968189 -0.195431 0.179269 -0.964194 0.173779 0.559641 -0.81031 
-0.0396042 -0.926221 -0.374894 0.37511 -0.837219 -0.39794 0.69282 -0.617364 -0.372641 
0.786091 -0.467064 -0.404861 -0.289189 -0.877622 -0.382295 -0.755852 -0.638427 -0.145253 
0.46457 -0.844815 -0.265447 -0.111757 -0.971955 -0.206916 0.528991 -0.844553 -0.0830548 
0.667178 -0.742152 -0.0639094 -0.928716 -0.266878 -0.257415 -0.078197 0.257927 -0.962995 
0.296354 0.0344041 -0.954458 0.0398312 0.206178 -0.977703 0.395076 -0.342802 -0.852292 
0.0450261 0.0816658 -0.995642 0.10854 -0.596925 -0.794921 0.0477638 -0.321929 -0.945558 
0.083534 -0.431133 -0.898413 -0.136213 -0.592662 -0.79385 0.042733 -0.742807 -0.66814 
-0.454941 -0.651821 -0.60676 -0.0511338 -0.190451 -0.980364 0.0737967 -0.0732215 -0.994582 
-0.0269214 0.0523973 -0.998263 0.636367 0.505423 -0.582739 0.75446 0.414365 -0.50901 
-0.230052 0.348494 -0.908641 -0.0645764 -0.952474 -0.297696 0.743801 -0.637422 -0.201127 
-0.691003 -0.713883 -0.113511 0.943189 0.0463214 -0.329013 -0.44125 -0.895999 0.0498471 
0.0613098 -0.988418 0.13882 0.466247 -0.879634 0.0941155 0.587328 -0.808321 0.04078 
-0.889313 0.0741666 -0.451245 0.881071 -0.392827 -0.26344 0.649275 -0.61692 -0.444805 
0.0145225 0.277265 -0.960684 0.30496 -0.707264 -0.637791 0.0846022 -0.607801 -0.78957 
0.122454 -0.854491 -0.504827 0.0191733 -0.823343 -0.567221 -0.283337 -0.554631 -0.782371 
-0.229638 0.314805 -0.920958 -0.00339988 0.146808 -0.989159 0.281009 0.559548 -0.779705 
0.228081 -0.929095 -0.29114 0.0226893 -0.996581 -0.0794481 0.599468 -0.774843 -0.200639 
-0.487932 -0.858815 -0.156077 0.364545 -0.91531 0.171217 0.200244 -0.949679 0.240858 
-0.824015 -0.566092 -0.0232208 -0.34436 0.328914 -0.879336 0.729649 -0.68334 -0.0256467 
-0.41122 -0.88197 0.230275 0.360481 -0.914291 0.184732 0.613197 -0.774551 0.155112 
0.835402 -0.549177 -0.0225305 -0.969257 -0.118862 -0.215435 0.865833 0.333916 -0.372604 
-0.268925 0.395411 -0.878254 0.487835 0.661161 -0.569985 -0.325634 -0.941978 0.0814899 
-0.00461301 -0.973445 0.228875 0.247996 -0.93358 0.258704 -0.975138 -0.18901 -0.115678 
-0.705352 -0.687926 -0.170988 0.0151918 -0.980758 -0.194638 -0.0647522 -0.955358 -0.288267 
-0.619038 0.419205 -0.664123 0.980992 0.0417191 -0.189509 0.96845 0.197878 -0.151487 
-0.271884 -0.953673 0.128788 0.104517 -0.97502 0.19599 -0.785711 -0.616557 0.0501647 
0.294798 -0.943115 0.153714 -0.888595 -0.431041 -0.156853 0.707554 -0.645037 -0.288608 
0.671498 0.557699 -0.487916 0.239254 -0.968409 0.0703007 0.884623 -0.447592 -0.13078 
-0.475867 -0.863305 0.168093 -0.635285 -0.741853 0.214633 -0.152922 -0.956578 0.248138 
0.532373 -0.770483 0.35062 -0.950342 -0.310752 0.0168159 0.745424 -0.608352 0.27249 
0.359158 -0.917924 -0.168585 -0.838239 0.276579 -0.469957 0.910543 0.360515 -0.202338 
0.706994 0.63979 -0.301377 -0.0791885 -0.994078 0.0744208 0.559233 -0.827678 0.046984 
0.952843 -0.264382 -0.148972 -0.290612 -0.897251 0.332394 -0.612801 -0.761805 0.210067 
0.117757 -0.905987 0.406596 -0.756968 -0.637232 0.144691 -0.982513 0.0408076 -0.181665 
-0.527915 -0.829251 -0.183436 -0.513027 -0.833647 -0.204537 -0.283611 -0.931922 -0.226021 
-0.848908 0.314006 -0.425153 -0.461069 0.465489 -0.75547 0.134923 0.6303 -0.764538 
-0.129056 -0.990229 0.0528192 -0.535421 -0.842979 0.0520534 -0.737705 -0.646185 0.19554 
-0.468455 -0.851332 0.236187 -0.948401 -0.28318 0.142636 0.622161 -0.781871 -0.0399218 
-0.935588 0.319226 -0.150899 0.118101 -0.990731 -0.067115 -0.623462 0.422104 -0.658121 
0.849363 0.498761 -0.172684 -0.436135 0.511806 -0.740163 0.646731 0.676658 -0.351955 
0.183214 -0.980349 0.0731325 -0.988821 0.144291 -0.0375841 -0.317536 -0.939964 -0.125053 
-0.359278 0.519672 -0.775152 -0.36825 0.637598 -0.676654 -0.162176 0.813672 -0.558245 
-0.0892873 0.721291 -0.686853 0.956588 0.24852 -0.152243 -0.685997 -0.637943 0.34991 
0.0997579 -0.942864 0.317892 -0.281481 -0.955217 -0.0912611 -0.737674 0.503296 -0.450034 
-0.761941 0.529232 -0.373308 0.817134 0.56051 -0.134613 0.0643772 0.806012 -0.588388 
0.441979 0.766243 -0.466396 0.954637 -0.295488 -0.0368144 -0.319762 -0.856613 0.404928 
-0.00477646 -0.941286 0.337576 0.71475 -0.670381 0.199301 -0.981071 0.0171099 0.19289 
0.926717 0.340391 -0.159152 -0.877745 0.398887 -0.265428 0.586446 0.696564 -0.413376 
-0.526797 0.768059 -0.364103 -0.309593 0.819334 -0.48254 0.209668 0.824755 -0.525185 
0.988958 -0.136496 -0.0577192 0.0825837 -0.935455 0.343663 -0.799918 0.476922 -0.364248 
-0.594958 0.670464 -0.443286 0.399619 0.873014 -0.279555 -0.235605 -0.971744 -0.0142978 
0.843899 -0.535471 -0.033251 0.899285 -0.436216 -0.0316622 0.996774 0.0486001 -0.0638716 
0.982044 0.18809 0.0145563 -0.177822 -0.863635 0.471715 -0.609296 -0.712242 0.348526 
0.259421 -0.910699 0.321447 0.468175 -0.850305 0.240402 -0.748695 -0.592442 0.297436 
-0.266749 -0.963606 0.0175677 -0.997402 0.0670943 -0.0262358 0.739302 0.672929 -0.0244681 
-0.319844 0.886231 -0.335104 0.50713 -0.861858 -0.00441457 0.369366 -0.852711 0.369394 
-0.766726 0.626903 -0.138288 0.697404 0.71552 -0.0407217 0.105895 0.948964 -0.297073 
-0.730211 -0.68322 -0.00154246 0.347624 -0.854972 0.384943 0.609025 -0.730564 0.308812 
0.171826 -0.984561 -0.0333879 -0.42258 -0.906292 0.00784879 0.729086 -0.682004 -0.0574863 
-0.0812296 -0.878577 0.470642 0.177283 -0.866142 0.467299 -0.244703 -0.911402 0.330857 
-0.89124 -0.344596 0.294865 0.622706 -0.743683 0.243254 0.568419 -0.7106 0.414665 
0.610293 -0.78007 0.137962 0.444821 -0.843779 0.300287 -0.451755 -0.891513 0.0334959 
-0.0991924 -0.992929 -0.0652091 -0.875935 0.467308 -0.119838 0.798096 0.590604 -0.119289 
-0.0501821 0.978329 -0.200883 0.0680296 -0.993647 -0.0896557 0.502761 -0.854587 -0.130046 
-0.607508 -0.581573 0.541024 -0.994218 0.0882782 0.0611402 0.0944764 0.96486 -0.245194 
0.124598 -0.99192 -0.0238688 0.528784 -0.547405 -0.648641 0.0114515 -0.924468 0.381087 
0.173402 -0.905821 0.38655 0.492249 -0.725188 0.48145 -0.687572 -0.726103 0.00438836 
-0.25858 -0.965447 -0.0323688 -0.838423 0.543153 -0.0450775 -0.363971 0.92212 -0.131222 
0.504515 -0.861369 -0.0592333 0.931802 -0.35238 0.0870282 -0.814485 -0.579774 0.0218145 
0.239349 -0.851256 0.466986 -0.938808 0.330694 0.0963401 0.447632 0.894003 0.0195902 
0.114185 0.99112 -0.068135 0.552144 -0.833739 -0.0039525 -0.280002 -0.765763 0.57897 
-0.209153 -0.750519 0.626878 0.0367357 -0.836869 0.546168 0.26552 -0.819439 0.507956 
-0.628951 -0.579872 0.517851 0.175695 -0.972511 0.152819 0.755921 0.649694 0.0805024 
-0.304882 0.949144 -0.0785661 -0.230386 -0.973078 0.00647134 -0.729789 -0.667929 0.14587 
-0.53694 -0.602319 0.590684 -0.809536 -0.328456 0.486589 -0.0221425 0.997119 -0.0725484 
0.172304 -0.962106 0.211336 0.542199 -0.824963 0.159551 0.872653 -0.439835 0.212182 
-0.757966 -0.640042 0.125834 0.966415 0.150273 0.208471 0.396002 -0.745974 0.535449 
-0.89597 -0.142843 0.420516 -0.943659 -0.148571 0.295692 -0.925981 0.101027 0.363802 
0.689529 -0.664763 0.287471 -0.621141 -0.734257 0.273954 -0.333222 -0.671271 0.662086 
0.0548194 -0.773159 0.631839 0.389385 -0.825024 0.40953 -0.842203 -0.121283 0.525342 
0.915358 0.388831 0.104545 -0.251671 -0.882517 0.397272 0.358995 -0.856201 0.37154 
0.714928 -0.538347 0.446162 -0.629052 -0.615768 0.474471 0.92676 -0.00807106 0.375566 
-0.688201 -0.663992 0.292393 -0.650606 -0.718372 0.24628 -0.000267738 -0.714522 0.699613 
-0.351247 -0.540513 0.764507 0.298899 -0.887999 0.349453 -0.571872 -0.356683 0.738742 
-0.832057 -0.171368 0.527555 0.673653 0.73121 0.107351 0.207113 -0.811196 0.546868 
-0.00566732 -0.683401 0.730021 0.502384 -0.632884 0.589125 -0.556305 -0.579162 0.5959 
-0.358619 -0.687372 0.631595 0.739375 -0.296932 0.604281 -0.367853 -0.546556 0.752304 
0.854285 -0.150569 0.49752 0.702626 -0.257612 0.663289 -0.593254 -0.6066 0.529232 
0.899604 -0.0373994 0.435103 -0.0431061 -0.698275 0.714531 -0.695018 -0.200873 0.690363 
0.871606 0.454522 0.183613 0.551763 -0.459339 0.696108 0.359877 -0.372548 0.855393 
0.0885223 -0.498869 0.862145 -0.642057 -0.685051 0.344192 -0.839615 -0.531027 0.114266 
-0.655444 -0.755192 0.00886102 0.00479036 -0.930768 0.365579 -0.656325 -0.237836 0.716011 
0.618948 -0.262803 0.74016 0.650056 -0.191933 0.735247 -0.404298 -0.604061 0.68677 
-0.261382 -0.613617 0.745087 -0.443186 -0.692322 0.569453 -0.696008 -0.698983 0.164304 
0.755909 -0.188687 0.626896 -0.716777 -0.682264 0.144037 0.913283 0.0792229 0.399546 
-0.00944833 -0.907502 0.419942 0.757492 0.607037 0.240232 -0.136539 -0.64877 0.748635 
0.113042 -0.485904 0.866671 0.613363 -0.129455 0.779119 0.29273 -0.494908 0.818153 
0.354352 -0.544538 0.760206 0.655174 -0.186963 0.731978 0.552457 -0.377891 0.74296 
0.907375 -0.115424 0.404162 -0.741065 -0.495986 0.452571 0.98678 0.00338616 0.162032 
-0.337207 -0.455335 0.823991 -0.0905826 -0.724045 0.683779 -0.435164 -0.894784 0.0999694 
-0.195279 -0.741143 0.642318 -0.0920356 -0.91995 0.381079 -0.274334 -0.394564 0.876961 
-0.437444 -0.304883 0.845984 -0.290363 -0.458575 0.83988 -0.834461 -0.0277755 0.550367 
-0.881442 0.0100968 0.472185 -0.722481 0.679685 -0.126686 0.561557 -0.458542 0.688762 
-0.459458 -0.845911 0.2708 0.980611 -0.0621947 0.185833 0.996055 -0.0230698 0.0856852 
-0.427754 -0.790965 0.437493 -0.277775 -0.573471 0.770696 -0.551944 -0.457427 0.697222 
-0.94097 -0.0297403 0.337181 -0.951203 0.301219 0.066927 -0.903357 0.420619 -0.0838198 
-0.881293 0.402992 -0.24682 -0.765829 0.641966 0.0372302 0.752044 0.595809 0.281854 
-0.0653946 -0.726091 0.684482 0.336983 -0.558071 0.758287 0.242665 -0.938976 0.243798 
0.360447 -0.757577 0.544202 0.0172426 -0.964117 0.264916 0.410915 -0.907736 0.0846453 
0.60352 -0.688983 0.40133 0.688107 -0.724808 -0.0340813 0.814424 -0.55116 0.181481 
0.803125 -0.539291 -0.253289 0.749894 -0.398906 0.527763 -0.702743 -0.678992 0.212419 
0.921143 -0.322294 0.218226 0.982398 -0.174565 0.0664891 0.969923 0.103193 0.220456 
-0.717593 -0.696384 -0.0104952 -0.233895 -0.907728 0.348315 -0.456517 -0.767771 0.449578 
-0.350818 -0.773435 0.527944 -0.57838 -0.475762 0.662667 -0.554408 -0.824438 0.113729 
-0.686132 -0.602975 0.406993 -0.763044 -0.320115 0.561507 -0.771281 -0.547317 0.324914 
-0.966936 -0.254032 0.0224212 -0.956444 -0.00995077 0.291746 0.817267 0.572599 -0.0648416 
0.818711 0.535854 0.206331 -0.731109 0.682243 0.00485896 0.588777 0.808064 0.0193488 
0.738781 0.654728 0.159792 -0.502338 0.864631 -0.0083137 0.433812 -0.863748 -0.25641 
0.100274 -0.985245 -0.138696 0.620069 -0.700819 -0.352658 -0.416956 -0.906023 -0.0726002 
0.929026 -0.27021 -0.252778 0.974796 -0.0635527 -0.213854 0.938116 0.345968 -0.0156455 
-0.721239 -0.656856 -0.219897 -0.804549 -0.432677 -0.406806 -0.990111 0.123926 -0.065751 
-0.755081 0.655256 0.022175 0.456586 0.875873 -0.156127 -0.037842 -0.271696 -0.961639 
0.0825057 -0.210016 -0.97421 0.194647 -0.256856 -0.946645 -0.688161 -0.687441 -0.232073 
-0.176708 -0.414687 -0.892641 0.307075 -0.0151802 -0.951564 0.722818 0.0462535 -0.689488 
-0.420192 -0.692206 -0.586762 -0.127586 -0.582508 -0.802749 -0.0828394 -0.463044 -0.882456 
0.283511 -0.213359 -0.934933 0.701734 0.0554536 -0.710277 -0.0954389 -0.708461 -0.699267 
0.164481 -0.391969 -0.905155 0.426189 -0.138903 -0.893906 -0.506106 -0.792765 -0.339676 
0.0687608 -0.773505 -0.630049 0.311203 -0.687104 -0.656537 0.363524 -0.379514 -0.850776 
0.658461 -0.00838252 -0.752568 -0.146895 -0.89976 -0.41092 0.11563 -0.912289 -0.392886 
0.564991 -0.543423 -0.620867 0.675054 -0.0380747 -0.736785 0.738988 -0.347504 -0.577181 
0.763752 -0.0815743 -0.640335 0.804282 -0.0736856 -0.589662 0.850302 -0.0525956 -0.523661 
-0.0788548 -0.910882 -0.405062 -0.132173 -0.815753 -0.563096 -0.334665 -0.91923 -0.207403 
-0.449123 -0.887882 -0.0997695 -0.463662 -0.617502 -0.635381 -0.544167 -0.585004 -0.601375 
0.856177 0.515413 -0.0362113 -0.897552 -0.0282096 -0.440004 -0.881777 -0.17233 -0.439058 
-0.946348 0.0449371 -0.32001 -0.966667 0.0337755 -0.253801 0.548766 0.811391 -0.201249 
-0.132378 -0.654379 -0.744489 0.0929012 -0.475456 -0.87482 0.490959 -0.523994 -0.695981 
-0.07699 -0.350089 -0.933547 -0.400096 -0.559283 -0.726034 0.369508 -0.273524 -0.888059 
0.551852 -0.332939 -0.764598 -0.0991196 -0.435828 -0.894556 -0.636685 -0.247275 -0.730402 
-0.430525 -0.498731 -0.752274 -0.0140283 -0.322323 -0.946526 0.624948 -0.285641 -0.726533 
-0.526696 -0.618545 -0.583089 0.783699 0.107966 -0.611686 -0.767472 -0.635162 -0.0869304 
0.899189 0.0471332 -0.435015 0.984353 0.0401491 -0.171574 0.0298986 -0.84568 -0.532852 
-0.36351 -0.923375 -0.123443 -0.666644 -0.362972 -0.651027 -0.728298 -0.642758 -0.237578 
0.892608 0.000282402 -0.450834 0.902369 0.0302053 -0.429904 0.902694 0.0703129 -0.424499 
0.103876 -0.936568 -0.33474 -0.0148693 -0.979683 -0.200001 -0.0192188 -0.933423 -0.358264 
0.103866 -0.947946 -0.301014 -0.213861 -0.912434 -0.348895 -0.0124777 -0.791165 -0.611475 
0.250243 -0.861396 -0.442013 0.583341 -0.626438 -0.517001 -0.622316 -0.702155 -0.34598 
-0.655565 -0.601868 -0.456059 -0.611828 -0.442556 -0.655599 0.885491 -0.163256 -0.435032 