# vtk DataFile Version 4.2
vtk output
ASCII
DATASET POLYDATA
POINTS 753 float
113.313 236.198 186.407 114.837 236.961 186.664 115.06 236.927 186.728 
114.866 237.07 186.747 113.4 230.137 186.102 116.251 231.069 186.504 
111.749 233.072 185.95 116.521 232.875 186.301 111.191 234.669 186.418 
113.156 235.651 186.286 112.206 236.16 186.884 114.81 237.308 187.005 
115.344 237.699 187.346 116.47 237.569 187.446 108.821 228.495 186.589 
111.58 228.968 186.365 108.43 230.064 186.466 108.736 231.578 186.481 
108.418 234.072 187.542 116.387 235.308 186.491 101.847 227.363 188.185 
114.606 227.786 187.338 102.199 230.233 188.857 106.03 230.537 187.202 
104.939 231.245 187.94 104.704 232.407 188.749 119.255 232.335 188.065 
119.13 234.629 187.836 110.685 236.461 188.191 118.311 236.659 187.729 
114.334 238.138 187.991 116.464 238.885 188.584 100.408 227.658 188.79 
98.6404 227.718 189.87 119.661 238.053 189.36 114.869 238.875 188.868 
118.744 238.708 189.161 118.035 239.561 189.861 103.098 222.887 189.144 
112.7 223.037 189.701 115.727 224.193 189.93 96.9286 224.631 190.983 
97.7154 224.76 190.143 118.791 228.289 189.059 100.766 230.443 190.032 
120.762 231.099 189.541 108.102 235.782 189.888 112.913 238.722 189.956 
120.147 238.305 190.109 116.293 240.042 190.539 108.641 221.03 190.442 
101.574 221.991 189.824 96.9203 223.236 191.277 96.4945 225.153 191.773 
118.558 226.497 189.868 98.3387 228.454 190.712 99.3026 229.456 190.507 
101.91 231.947 190.779 121.885 232.961 190.572 119.011 239.641 190.623 
117.466 240.359 191.258 98.4028 220.539 191.483 98.6769 229.286 191.161 
114.194 239.675 190.951 96.8663 220.411 192.5 99.7878 219.241 191.795 
96.2784 221.264 192.753 96.6136 227.189 192.908 123.248 233.601 192.519 
122.569 236.753 192.712 119.53 240.217 192.23 116.414 240.82 192.7 
116.822 241.051 193.361 100.23 217.697 192.791 95.9309 221.007 193.427 
119.571 223.058 193.134 95.6405 223.651 193.771 121.175 224.699 193.083 
100.432 231.93 193.209 116.603 241.203 194.005 96.1366 217.166 194.914 
96.6768 217.301 194.3 97.6037 216.975 193.988 108.933 217.049 194.214 
97.02 228.718 194.69 125.338 229.628 195.414 98.7243 230.415 193.369 
98.1919 214.485 195.783 97.4604 215.206 195.448 96.2332 216.703 195.18 
95.6301 217.71 195.377 115.872 218.91 195.226 122.701 222.436 196.177 
122.408 238.764 194.647 120.782 240.405 194.634 119.486 241.022 194.523 
118.286 241.628 195.749 97.2862 213.637 197.28 104.112 213.423 197.148 
96.674 214.344 197.185 95.8807 216.506 195.968 95.1392 218.861 195.87 
124.907 226.328 195.883 115.792 241.564 196.621 99.6465 212.417 197.876 
126.368 231.345 197.257 98.9832 211.698 199.451 102.645 212.457 198.143 
96.005 214.412 198.41 95.9865 214.201 198.875 95.5177 215.93 198.121 
125.578 235.686 198.026 122.644 240.031 197.985 97.5678 212.162 199.766 
101.961 211.434 199.856 104.858 211.995 200 95.3305 225.548 199.695 
126.74 226.188 198.809 103.436 235.667 199.48 106.83 237.905 199.48 
113.944 241.192 198.812 99.7983 211.301 200.707 97.2569 212.301 200.558 
96.9409 212.619 200.5 108.426 238.827 200.588 119.851 241.926 200.065 
102.721 210.97 201.726 121.838 217.776 200.826 98.485 231.12 201.056 
125.797 236.75 200.556 123.751 239.67 200.909 98.5588 211.532 202.2 
106.93 211.707 202.34 96.1991 213.938 201.363 127.78 224.479 201.994 
95.4432 225.466 202.621 128.19 231.414 202.91 99.7677 211.153 203.919 
98.4216 211.712 203.294 124.636 218.8 201.946 95.299 224.706 203.262 
126.359 236.355 202.318 97.731 212.602 204.611 98.2203 212.07 204.351 
128.811 228.081 204.952 98.0346 229.849 204.52 121.84 241.357 202.227 
118.149 242.031 203.545 119.458 241.989 203.461 126.776 219.111 204.117 
128.615 230.375 204.874 102.668 234.664 204.625 114.521 240.938 204.658 
121.856 241.196 203.653 96.0778 215.534 205.033 125.197 215.579 205.514 
95.0842 220.428 205.033 117.344 241.536 205.166 120.474 241.564 205.027 
118.819 213.22 206.812 124.078 214.003 206.403 125.216 213.531 207.154 
125.87 213.704 207.316 127.819 217.134 207.023 128.003 233.165 206.55 
126.826 235.696 206.766 126.063 236.973 206.39 118.849 241.415 205.999 
119.209 241.269 206.361 126.244 209.22 209.744 126.709 208.864 209.99 
126.976 210.135 209.553 127.226 209.886 209.807 126.422 211.118 208.964 
127.343 211.218 209.471 126.83 213.314 208.159 127.417 213.22 208.737 
96.5858 215.579 207.713 127.908 214.339 208.777 128.458 219.022 207.027 
96.3097 225.137 208.541 123.668 239.362 206.732 121.173 240.841 206.485 
126.56 206.484 211.323 126.849 206.627 211.087 126.74 206.49 211.218 
126.885 206.428 211.271 126.059 207.114 211.01 126.975 206.547 211.177 
127.001 206.779 211.067 127.077 206.615 211.239 126.095 207.445 210.75 
126.416 207.531 210.625 125.919 208.86 210.003 127.415 208.395 210.655 
103.989 210.44 209.576 127.537 209.846 210.155 127.809 209.356 210.72 
127.679 210.712 210.006 122.788 210.997 209.593 124.073 211.517 208.59 
120.562 211.841 209.408 121.966 212.016 208.547 97.912 213.678 209.133 
116.699 212.553 208.184 128.845 214.96 210.035 96.4118 216.493 208.744 
96.3832 216.916 209.018 98.3015 228.09 209.076 112.356 238.84 208.463 
126.928 206.333 211.454 125.869 207.016 211.304 127.162 206.569 211.511 
123.169 210.406 210.096 129.413 220.093 209.881 129.468 222.841 210.072 
103.9 233.187 209.702 128.283 231.708 209.636 121.142 240.059 208.299 
126.704 206.21 211.934 127.031 206.362 211.554 125.677 206.888 211.77 
127.785 207.378 212.181 100.28 211.77 211.001 128.592 210.61 211.784 
98.2555 214.032 211.363 129.615 217.486 211.784 96.5609 223.455 210.73 
119.29 239.126 210.315 126.676 206.126 212.465 125.767 206.401 212.738 
98.8956 213.429 212.208 96.7277 217.961 211.388 129.355 224.359 213.006 
128.482 229.868 211.711 123.426 237.445 211.088 127.794 206.983 213.358 
103.339 210.756 213.344 119.64 210.88 213.178 115.864 211.497 212.84 
129.537 214.167 213.005 129.769 218.926 213.424 103.585 230.769 212.401 
125.925 206.12 213.6 126.381 205.96 214.209 129.022 210.13 214.13 
98.3706 215.289 213.455 129.739 215.056 214.032 98.0714 223.079 213.435 
98.1874 224.69 212.693 107.769 233.44 212.975 125.184 234.619 213.324 
123.274 236.371 212.67 125.868 205.976 215.226 126.666 205.97 214.543 
127.962 207.026 214.965 109.501 210.738 214.521 118.01 211.129 214.404 
129.815 216.846 215.193 129.596 220.157 215.064 98.1992 224.831 212.648 
125.812 205.923 216.074 126.227 205.89 215.757 126.999 206.081 214.906 
128.541 208.115 215.419 98.3136 223.042 213.832 110.292 231.923 216.202 
125.232 232.605 215.775 125.501 206 216.37 127.364 206.292 216.155 
125.442 206.01 217.013 100.801 213.274 216.945 99.7504 214.538 216.236 
128.881 223.077 217.034 126.636 230.209 216.537 123.521 232.863 216.816 
118.518 234.001 216.672 105.105 211.011 217.85 107.664 210.887 217.624 
101.459 212.892 217.611 116.596 211.171 217.708 126.128 205.803 218.337 
127.393 206.274 218.102 117.316 211.061 218.499 100.558 216.582 218.698 
127.456 225.758 218.936 127.008 206.009 218.736 121.998 208.789 219.635 
104.437 211.915 219.835 119.316 210.466 219.753 128.997 219.071 220.061 
104.973 223.445 219.918 117.825 229.923 220.878 120.518 231.858 218.832 
102.241 213.354 220.076 102.462 213.319 220.392 101.451 214.291 219.597 
101.42 216.129 219.998 127.035 225.023 220.244 126.721 205.788 221.099 
127.437 206.212 221.197 128.345 207.712 221.853 102.944 213.31 221.149 
103.444 213.182 221.353 109.97 211.624 221.84 127.504 222.311 221.698 
126.844 205.779 222.105 127.15 205.924 221.487 127.048 205.841 221.892 
103.035 213.408 221.474 102.828 213.446 221.324 103.003 213.592 221.59 
106.874 212.367 222.785 102.809 213.658 221.391 115.777 211.597 223.275 
125.903 206.003 223.187 102.899 213.452 221.53 102.865 213.423 221.477 
102.854 213.502 221.513 129.059 212.042 223.775 102.82 213.474 221.46 
104.711 215.208 223.472 104.967 216.258 223.667 123.168 225.856 223.455 
102.84 213.442 221.511 105.321 214.264 223.821 105.807 213.954 224.052 
111.198 212.177 225.244 105.656 215.681 224.41 110.206 212.554 226.257 
118.113 211.201 225.681 128.172 216.493 225.65 127.228 219.289 225.408 
126.976 219.668 225.567 126.423 220.601 225.565 117.281 225.501 225.229 
127.483 207.054 225.864 128.093 208.202 226.506 128.482 209.348 226.118 
128.699 210.792 226.184 107.602 214.048 226.171 107.153 215.84 226.163 
107.634 215.305 227.025 107.678 217.686 226.143 125.729 220.414 227.388 
110.2 221.173 226.022 111.06 221.412 226.643 126.025 220.771 226.092 
113.11 222.529 227.194 113.509 222.474 227.806 124.39 221.712 227.508 
121.55 223.555 227.14 116.737 224.177 226.788 120.131 224.428 226.388 
126.565 206.538 227.167 108.673 213.859 228.144 107.902 215.27 227.714 
127.894 216.312 227.498 108.58 217.637 227.92 119.033 223.739 227.953 
108.087 215.543 228.589 108.15 216.27 228.459 109.294 218.559 228.558 
110.367 219.82 228.571 125.705 219.979 229.205 111.646 221.004 228.795 
121.69 222.954 229.211 123.266 222.146 229.065 116.425 223.418 228.478 
125.886 206.328 230.22 126.505 206.397 230.004 127.088 206.659 230.273 
125.083 206.614 229.329 127.531 207.133 230.306 128.049 208.261 229.644 
108.358 214.573 229.541 108.626 214.071 230.005 109.008 213.712 229.636 
108.125 215.287 229.625 108.327 216.861 229.425 114.571 222.83 229.253 
116.999 223.573 229.626 119.124 223.615 229.589 126.715 206.165 231.465 
125.658 206.253 231.233 124.881 206.618 231.184 127.657 207.139 231.215 
124.489 206.858 231.591 128.297 208.979 230.933 107.051 214.031 232.546 
109.975 213.091 230.261 108.359 214.02 231.025 107.805 215.045 230.888 
128 215.545 231.001 107.436 216.117 231.229 108.036 216.327 230.147 
108.529 217.597 229.873 127.306 217.55 231.038 107.953 218.162 231.282 
110.109 219.745 229.638 126.284 219.381 230.781 110.408 220.406 230.257 
113.287 222.429 229.98 115.452 223.429 230.174 119.829 223.899 230.661 
121.729 223.304 230.708 114.177 223.6 231.145 114.994 224.494 231.816 
[...]
POINT_DATA 753
SCALARS scalars float
LOOKUP_TABLE default
1 1 1 1 1 1 1 1 1 
1 1 1 1 1 1 1 1 1 
1 1 1 1 1 1 1 1 1 
1 1 1 1 1 1 1 1 1 
1 1 1 1 1 1 1 1 1 
1 1 1 1 1 1 1 1 1 
1 1 1 1 1 1 1 1 1 
1 1 1 1 1 1 1 1 1 
1 1 1 1 1 1 1 1 1 
1 1 1 1 1 1 1 1 1 
1 1 1 1 1 1 1 1 1 
1 1 1 1 1 1 1 1 1 
1 1 1 1 1 1 1 1 1 
1 1 1 1 1 1 1 1 1 
1 1 1 1 1 1 1 1 1 
1 1 1 1 1 1 1 1 1 
1 1 1 1 1 1 1 1 1 
1 1 1 1 1 1 1 1 1 
1 1 1 1 1 1 1 1 1 
1 1 1 1 1 1 1 1 1 
1 1 1 1 1 1 1 1 1 
1 1 1 1 1 1 1 1 1 
1 1 1 1 1 1 1 1 1 
1 1 1 1 1 1 1 1 1 
1 1 1 1 1 1 1 1 1 
1 1 1 1 1 1 1 1 1 
1 1 1 1 1 1 1 1 1 
1 1 1 1 1 1 1 1 1 
1 1 1 1 1 1 1 1 1 
1 1 1 1 1 1 1 1 1 
1 1 1 1 1 1 1 1 1 
1 1 1 1 1 1 1 1 1 
1 1 1 1 1 1 1 1 1 
1 1 1 1 1 1 1 1 1 
1 1 1 1 1 1 1 1 1 
1 1 1 1 1 1 1 1 1 
1 1 1 1 1 1 1 1 1 
1 1 1 1 1 1 1 1 1 
1 1 1 1 1 1 1 1 1 
1 1 1 1 1 1 1 1 1 
1 1 1 1 1 1 1 1 1 
1 1 1 1 1 1 1 1 1 
1 1 1 1 1 1 1 1 1 
1 1 1 1 1 1 1 1 1 
1 1 1 1 1 1 1 1 1 
1 1 1 1 1 1 1 1 1 
1 1 1 1 1 1 1 1 1 
1 1 1 1 1 1 1 1 1 
1 1 1 1 1 1 1 1 1 
1 1 1 1 1 1 1 1 1 
1 1 1 1 1 1 1 1 1 
1 1 1 1 1 1 1 1 1 
1 1 1 1 1 1 1 1 1 
1 1 1 1 1 1 1 1 1 
1 1 1 1 1 1 1 1 1 
1 1 1 1 1 1 1 1 1 
1 1 1 1 1 1 1 1 1 
1 1 1 1 1 1 1 1 1 
1 1 1 1 1 1 1 1 1 
1 1 1 1 1 1 1 1 1 
1 1 1 1 1 1 1 1 1 
1 1 1 1 1 1 1 1 1 
1 1 1 1 1 1 1 1 1 
1 1 1 1 1 1 1 1 1 
1 1 1 1 1 1 1 1 1 
1 1 1 1 1 1 1 1 1 
1 1 1 1 1 1 1 1 1 
1 1 1 1 1 1 1 1 1 
1 1 1 1 1 1 1 1 1 
1 1 1 1 1 1 1 1 1 
1 1 1 1 1 1 1 1 1 
1 1 1 1 1 1 1 1 1 
1 1 1 1 1 1 1 1 1 
1 1 1 1 1 1 1 1 1 
1 1 1 1 1 1 1 1 1 
1 1 1 1 1 1 1 1 1 
1 1 1 1 1 1 1 1 1 
1 1 1 1 1 1 1 1 1 
1 1 1 1 1 1 1 1 1 
1 1 1 1 1 1 1 1 1 
1 1 1 1 1 1 1 1 1 
1 1 1 1 1 1 1 1 1 
1 1 1 1 1 1 1 1 1 
1 1 1 1 1 1 
NORMALS Normals float
-0.109602 0.433108 -0.894653 -0.0288201 0.465568 -0.884543 0.284004 0.417889 -0.862966 
0.12182 0.6717 -0.730738 0.124146 -0.221089 -0.96732 0.42191 -0.232505 -0.876318 
-0.0816308 0.0750057 -0.993836 0.262992 0.0310555 -0.964298 -0.379693 0.433553 -0.81723 
-0.128723 0.255995 -0.958069 -0.360006 0.561329 -0.745188 -0.0837912 0.701517 -0.70771 
0.100952 0.652219 -0.751279 0.189761 0.58982 -0.784923 -0.103596 -0.155605 -0.982372 
-0.00744172 -0.456038 -0.889929 -0.310966 0.0634411 -0.948301 -0.235557 0.0626957 -0.969836 
-0.477682 0.435663 -0.762901 0.256623 0.273704 -0.926947 -0.317429 -0.00441504 -0.948272 
0.159106 -0.625495 -0.763833 -0.434829 0.421936 -0.795546 -0.307829 0.156338 -0.938509 
-0.419144 0.469356 -0.777189 -0.453655 0.541758 -0.707598 0.597934 -0.127361 -0.791362 
0.675961 0.0938226 -0.73094 -0.421597 0.712609 -0.560753 0.463015 0.292549 -0.83668 
-0.28202 0.772707 -0.568673 0.0312676 0.767907 -0.639797 -0.45608 0.162457 -0.874985 
-0.659215 0.348541 -0.6663 0.642637 0.358639 -0.67705 -0.148276 0.820956 -0.551403 
0.424043 0.614095 -0.665638 0.259857 0.782737 -0.565506 -0.143149 -0.378088 -0.914635 
0.215465 -0.515039 -0.829644 0.358443 -0.533846 -0.765851 -0.777611 0.137934 -0.613429 
-0.50441 -0.147983 -0.850689 0.480133 -0.350815 -0.80399 -0.578756 0.617013 -0.533232 
0.690222 -0.248206 -0.679697 -0.481612 0.800145 -0.357516 -0.553611 0.816928 -0.16169 
0.667743 0.513028 -0.539372 -0.0872482 0.906401 -0.41331 0.112616 -0.615414 -0.780117 
-0.136729 -0.478001 -0.867652 -0.693868 -0.253206 -0.674117 -0.885315 0.0765478 -0.458647 
0.365174 -0.547564 -0.752876 -0.769793 0.489659 -0.409454 -0.579862 0.517537 -0.629218 
-0.531567 0.646115 -0.547698 0.77818 -0.0522692 -0.625862 0.460188 0.756918 -0.464006 
0.0617383 0.938436 -0.339891 -0.422129 -0.37865 -0.823669 -0.664528 0.59847 -0.447477 
-0.379113 0.913915 -0.145024 -0.657143 -0.345732 -0.6698 -0.122421 -0.544413 -0.829836 
-0.701974 -0.247744 -0.667724 -0.859653 0.329201 -0.390671 0.807868 0.0501451 -0.587226 
0.845992 0.329464 -0.419227 0.31843 0.886892 -0.334702 -0.280994 0.950011 -0.136095 
0.080971 0.959024 -0.27151 -0.0673448 -0.512 -0.856342 -0.917109 -0.150097 -0.369298 
0.506017 -0.577199 -0.640927 -0.962759 0.0475448 -0.266149 0.65955 -0.369 -0.654853 
-0.624577 0.749548 -0.219276 -0.0331277 0.972332 -0.231244 -0.733285 -0.344371 -0.58626 
-0.522418 -0.405141 -0.750294 -0.270425 -0.565846 -0.778902 0.241816 -0.754235 -0.610454 
-0.794901 0.60257 -0.0710114 0.844934 -0.0680067 -0.530529 -0.72261 0.650634 -0.233475 
-0.191692 -0.683933 -0.70391 -0.57401 -0.594576 -0.56302 -0.646409 -0.519709 -0.558622 
-0.843695 -0.286629 -0.453896 0.331071 -0.718218 -0.612009 0.584429 -0.558862 -0.588316 
0.744661 0.563764 -0.357282 0.514648 0.825345 -0.232257 0.340748 0.914586 -0.217768 
0.157042 0.969727 -0.186994 -0.540487 -0.70626 -0.457242 0.167295 -0.735855 -0.656148 
-0.682396 -0.523563 -0.510115 -0.77694 -0.511638 -0.366866 -0.976451 -0.111392 -0.184758 
0.712385 -0.39261 -0.581691 -0.249657 0.95747 -0.144644 -0.112793 -0.84937 -0.515605 
0.908125 0.0838581 -0.410215 -0.228671 -0.931327 -0.283442 0.174205 -0.823415 -0.540038 
-0.908438 -0.358335 -0.215259 -0.864916 -0.4759 -0.159497 -0.918389 -0.328887 -0.219989 
0.881427 0.345346 -0.322215 0.737219 0.642912 -0.207778 -0.529509 -0.806316 -0.263583 
0.079474 -0.925643 -0.369958 0.24252 -0.87247 -0.42424 -0.98117 0.186186 -0.0513873 
0.914893 -0.107869 -0.389018 -0.618212 0.780046 -0.0966526 -0.502842 0.860321 -0.0836526 
-0.261416 0.964081 -0.0470079 -0.109426 -0.983199 -0.146099 -0.640204 -0.76777 0.0258406 
-0.744444 -0.666832 0.0337317 -0.450079 0.885409 0.116099 0.239893 0.96604 -0.0960136 
0.0784454 -0.975381 -0.206102 0.408359 -0.740566 -0.533671 -0.58738 0.799902 0.12305 
0.855317 0.478232 -0.199317 0.713704 0.688801 -0.127197 -0.418433 -0.907366 0.0400097 
0.221871 -0.945023 -0.24022 -0.947182 -0.300368 0.112359 0.83016 -0.314785 -0.460157 
-0.953245 0.30163 0.018522 0.962977 0.127588 -0.23748 -0.274321 -0.935735 0.221695 
-0.543737 -0.831146 0.116388 0.608479 -0.596491 -0.523404 -0.975586 0.175839 0.131577 
0.883685 0.452898 -0.118256 -0.675648 -0.672915 0.301141 -0.449937 -0.768261 0.455337 
0.983716 0.0172827 -0.178898 -0.782285 0.590261 0.199054 0.459496 0.887931 -0.0209986 
-0.0659906 0.990768 0.118425 0.140789 0.989554 0.0309979 0.683215 -0.494264 -0.537513 
0.988116 0.116233 -0.100583 -0.634619 0.753772 0.170544 -0.290283 0.903236 0.316071 
0.528515 0.841891 0.109046 -0.922273 -0.355262 0.152323 0.402664 -0.587488 -0.70194 
-0.994214 -0.0833146 0.0677976 -0.167398 0.952843 0.253117 0.161656 0.960477 0.226608 
0.106741 -0.839246 -0.533172 0.174077 -0.610669 -0.772516 0.220803 -0.598675 -0.769957 
0.53035 -0.382302 -0.756686 0.787778 -0.327747 -0.521525 0.940812 0.325205 -0.0954688 
0.793701 0.540415 0.279267 0.784879 0.61874 0.0335557 -0.0501852 0.919284 0.390382 
0.079526 0.919146 0.385805 0.0300315 -0.427614 -0.903462 0.316407 -0.431841 -0.84463 
0.514236 -0.263265 -0.816243 0.638573 -0.253639 -0.726562 0.272238 -0.400527 -0.874908 
0.700455 -0.193066 -0.687087 0.569128 -0.297473 -0.766553 0.724866 -0.217353 -0.653702 
-0.913347 -0.361827 0.186755 0.732883 -0.323341 -0.59861 0.936162 -0.16408 -0.310933 
-0.845419 0.383002 0.372259 0.588225 0.743716 0.317614 0.269933 0.905654 0.326998 
-0.424557 -0.764852 -0.484514 -0.0276504 -0.544611 -0.838233 -0.240434 -0.749288 -0.617057 
0.0803187 -0.779411 -0.621344 -0.406407 -0.577818 -0.707785 0.530902 -0.620658 -0.576998 
0.60173 -0.302017 -0.739396 0.825134 -0.334368 -0.455359 -0.445458 -0.45975 -0.768243 
0.00050744 -0.482449 -0.875924 -0.196615 -0.534273 -0.822128 0.674081 -0.337418 -0.657087 
-0.0723246 -0.997114 -0.0230796 0.75051 -0.227735 -0.620381 0.821792 -0.27879 -0.496925 
0.789202 -0.158136 -0.593425 -0.221883 -0.754844 -0.617235 -0.0940391 -0.690355 -0.717333 
-0.201453 -0.902834 -0.379879 -0.0748113 -0.818888 -0.569057 -0.843468 -0.476451 0.248104 
0.0666342 -0.960926 -0.268666 0.896438 -0.203729 -0.393565 -0.856459 -0.428117 0.288432 
-0.953058 -0.241192 0.183051 -0.593786 0.67394 0.439571 -0.360413 0.837698 0.410322 
0.16447 -0.923135 -0.347522 -0.712902 -0.4749 -0.515985 0.855149 -0.429519 -0.290231 
-0.411026 -0.695469 -0.58939 0.997116 0.0102729 -0.0751906 0.994055 0.0357587 -0.102837 
-0.530611 0.743006 0.407915 0.925965 0.345147 0.153174 0.27976 0.855201 0.436309 
-0.00154664 -0.980759 -0.195217 0.662902 -0.709404 -0.23939 -0.786323 -0.528037 -0.320738 
0.841619 -0.463687 -0.276896 -0.511966 -0.847089 0.142585 0.916017 -0.185673 -0.355583 
-0.833034 -0.514571 0.203153 0.974736 -0.0715668 -0.211583 -0.92359 0.14077 0.356603 
-0.0682651 0.841599 0.535772 -0.0913532 -0.984493 -0.149759 -0.798589 -0.587244 -0.131906 
-0.737721 -0.618267 0.271134 -0.930566 -0.0273126 0.365103 0.983643 0.121507 0.132979 
0.934934 0.305877 0.179828 0.424403 0.753114 0.502695 0.788832 -0.59674 -0.147122 
-0.384134 -0.906722 0.174059 -0.409385 -0.891354 -0.194659 -0.0115071 -0.982887 -0.183851 
0.980048 -0.0856425 -0.179363 0.995925 0.00701225 -0.0899147 -0.583565 0.534069 0.611737 
-0.595566 -0.797083 -0.099796 0.144996 -0.967371 -0.207774 0.948842 -0.277633 -0.150394 
-0.895845 -0.317557 0.310837 0.993245 -0.105246 -0.0488591 -0.890032 0.162781 0.425847 
-0.762636 0.290672 0.577838 -0.418404 0.726209 0.545489 0.545546 0.665493 0.509409 
0.464054 0.712848 0.525833 -0.421849 -0.902914 -0.0823985 0.284124 -0.937359 -0.20157 
0.837698 -0.541187 -0.0733409 0.0521303 -0.998581 -0.0109132 -0.0962179 -0.991967 -0.0821226 
0.99928 0.0348852 -0.014933 0.981799 0.16214 0.0988986 -0.675243 0.417583 0.608006 
-0.397453 -0.911956 -0.101817 0.0996715 -0.992904 0.064858 0.565886 -0.815787 -0.119431 
0.951427 -0.301474 0.0624421 -0.737099 0.283853 0.613281 -0.28133 0.696543 0.660062 
0.625121 0.661269 0.414664 -0.402604 -0.913475 -0.0589407 0.594297 -0.804194 0.0091053 
-0.39047 -0.920555 0.0105689 -0.707209 -0.632674 0.315561 -0.844462 -0.351345 0.404278 
0.954194 0.200154 0.222378 0.782292 0.434686 0.44617 0.351529 0.73286 0.582532 
0.098085 0.789432 0.605951 -0.138694 -0.972351 0.187877 -0.0461959 -0.975914 0.213207 
-0.674261 -0.656312 0.338566 -0.100609 -0.994694 -0.0214884 0.103584 -0.993699 -0.0427986 
0.733889 -0.668092 0.122722 -0.141383 -0.989736 0.0208265 -0.806179 0.127034 0.577874 
0.787018 0.405917 0.46458 0.64107 -0.764991 0.0617942 -0.648142 -0.750977 -0.126275 
-0.371248 -0.871825 0.319525 -0.377555 -0.9259 0.0126771 0.945161 0.23804 0.223623 
-0.543088 0.526856 0.653818 -0.00519938 0.730091 0.68333 0.0395441 0.710107 0.702983 
-0.71376 -0.538182 0.448227 -0.525795 -0.783011 0.332315 -0.815198 -0.304705 0.492552 
-0.753935 0.0505347 0.655003 0.771718 0.409664 0.486443 0.11606 -0.992207 -0.0453405 
0.713568 -0.699828 -0.0325711 0.886753 -0.453031 0.0918269 -0.663545 -0.708518 0.240229 
-0.388594 -0.732651 0.558765 -0.0748552 -0.965551 0.249213 0.840738 0.374692 0.390853 
0.123359 -0.99185 0.0318898 0.443518 -0.887822 -0.122734 0.676836 -0.731409 0.0832757 
-0.148114 -0.843931 0.515599 -0.780342 -0.619484 -0.0854705 -0.411614 -0.230226 0.881799 
-0.336696 -0.843456 0.41859 -0.93371 -0.0454301 0.355135 -0.122682 -0.98473 0.123518 
-0.361418 -0.931835 0.0325653 -0.143903 -0.519845 0.842053 -0.370282 -0.910472 0.184209 
-0.651078 0.139528 0.746076 0.99466 -0.0633466 0.0814776 -0.94917 -0.246052 0.196303 
-0.617752 -0.00332389 0.786366 -0.699316 0.0531382 0.712835 0.438756 0.641598 0.629162 
-0.653713 -0.457025 0.603148 -0.632514 -0.341985 0.694963 -0.634097 -0.48399 0.603055 
-0.157038 -0.974237 0.16187 -0.71731 -0.0638999 0.693818 -0.36349 -0.92607 0.101338 
-0.302288 -0.953186 -0.00768038 0.926434 0.274881 0.257218 0.82532 0.352903 0.440802 
0.74477 0.293808 0.599161 0.802356 0.504518 0.318883 -0.193868 0.760529 0.619687 
0.793779 -0.608192 -0.00410532 0.930471 -0.360467 0.0654848 0.953669 -0.288911 0.083937 
0.963621 -0.253697 0.0840982 -0.650649 -0.63524 0.416084 -0.820581 0.0109898 0.571424 
-0.897796 -0.103018 0.428193 -0.790666 0.282632 0.543108 0.778014 0.589115 0.21826 
-0.634665 0.50448 0.585407 -0.653851 0.630292 0.418582 0.70946 0.48355 0.512685 
-0.497111 0.738285 0.455868 -0.608264 0.757845 0.235979 0.627057 0.70391 0.333632 
0.331898 0.853867 0.400941 -0.205598 0.878568 0.4311 0.157539 0.792986 0.588519 
0.346514 -0.936162 0.0593985 -0.785298 -0.584936 0.202874 -0.96713 -0.0985614 0.234405 
0.960234 0.275499 0.0452765 -0.814263 0.5091 0.278915 0.0562583 0.950409 0.305873 
-0.993702 -0.0378764 0.105457 -0.97428 0.197097 0.109232 -0.821343 0.570291 0.0127988 
-0.750315 0.661067 0.00426666 0.662164 0.749315 0.00809144 -0.602502 0.79305 0.0897936 
0.308114 0.95028 -0.0450894 0.555684 0.829589 -0.0547531 -0.165131 0.982225 0.0892491 
-0.305604 -0.90536 -0.294838 0.166528 -0.974313 -0.1516 0.581422 -0.798419 -0.156449 
-0.355854 -0.934249 -0.0233845 0.815491 -0.559928 -0.146473 0.906276 -0.413546 -0.0874236 
-0.913052 -0.404142 0.0548277 -0.791002 -0.602511 -0.106281 -0.681383 -0.730893 0.0388998 
-0.982773 -0.171458 -0.0689914 -0.915714 0.397086 -0.0615673 -0.435538 0.900158 0.00465836 
-0.116766 0.915754 -0.384396 0.102058 0.987471 -0.120355 0.461622 -0.863883 -0.201519 
-0.337346 -0.939695 -0.0563048 -0.64007 -0.692198 -0.333426 0.826814 -0.558226 -0.0690132 
-0.611962 -0.781159 -0.123664 0.980969 -0.171648 -0.0907551 -0.616828 -0.576326 -0.53607 
-0.48102 -0.874322 -0.0646552 -0.650814 -0.660312 -0.37474 -0.871171 -0.278496 -0.404353 
0.976781 0.212718 -0.0254949 -0.810071 0.00442154 -0.586315 -0.947256 0.155435 -0.280261 
-0.848814 0.42197 -0.318523 0.85823 0.48961 -0.154023 -0.766236 0.324093 -0.554838 
-0.716839 0.622225 -0.314608 0.794901 0.602762 -0.0693519 -0.592129 0.710586 -0.380066 
-0.460908 0.80597 -0.371451 -0.26735 0.884798 -0.38165 0.176866 0.872078 -0.456289 
0.3761 0.821215 -0.429132 -0.289127 0.759944 -0.582144 -0.313374 0.696734 -0.645259 
0.710939 -0.700108 -0.0664378 0.0666265 -0.975822 -0.208162 0.977334 -0.131746 -0.165714 
-0.289517 -0.868154 -0.403098 0.90758 0.345824 -0.238128 0.612223 0.680059 -0.403364 
0.765889 0.52483 -0.371441 0.467492 0.706099 -0.53186 -0.356139 0.682916 -0.637802 
0.040302 -0.978792 -0.200853 0.567039 -0.823347 -0.0237988 0.956229 0.257596 -0.138817 
0.957291 0.195544 -0.212968 -0.511316 0.579913 -0.634237 0.0392898 -0.998865 -0.0269163 
0.415988 -0.907719 0.0547761 0.692573 -0.720174 -0.0411376 0.981212 0.15772 -0.111122 
-0.675325 -0.0915324 -0.731818 -0.66872 0.196768 -0.717005 -0.633915 0.329058 -0.699909 
0.0471826 -0.989998 0.132958 -0.0412886 -0.98912 0.1412 -0.569827 -0.821659 -0.0131371 
0.99537 -0.0837287 0.0471979 -0.645904 -0.469562 -0.601929 -0.179825 -0.952381 -0.246237 
0.108943 -0.847266 -0.519877 -0.0345946 -0.965418 -0.2584 -0.706444 -0.147019 -0.692331 
0.934934 0.195991 -0.295781 0.538526 0.366191 -0.758877 0.576302 0.300262 -0.760078 
-0.223695 0.649581 -0.72664 0.283261 0.686224 -0.66997 -0.448675 -0.796037 -0.40622 
-0.763603 -0.372761 -0.527219 -0.786347 -0.220925 -0.576932 -0.811577 0.0101566 -0.584157 
0.676833 0.412988 -0.609375 0.482807 0.560941 -0.67249 0.275207 0.683708 -0.675873 
-0.320621 -0.947203 -0.00295771 -0.528991 -0.848573 -0.00960719 -0.542102 -0.838489 0.0553268 
-0.822062 -0.0666263 -0.565487 -0.724189 0.21708 -0.654544 0.63456 0.49717 -0.59174 
0.313158 -0.948622 0.0452597 0.895985 -0.442815 -0.0335586 -0.389526 -0.870977 -0.299447 
0.0287679 -0.994645 -0.0992614 -0.127949 -0.990345 0.053346 -0.727747 -0.517041 -0.450613 
0.99449 -0.104799 -0.00263908 -0.568298 0.398299 -0.719997 0.577363 -0.810509 -0.0986299 
-0.221414 -0.949144 -0.223834 -0.472373 -0.857885 0.202233 -0.359565 -0.915544 0.180253 
-0.848665 -0.105607 -0.51828 0.993938 0.0299249 -0.105788 -0.555841 0.466223 -0.688242 
0.957632 0.192978 -0.213777 0.0774957 0.673688 -0.734942 0.399032 -0.904797 0.148714 
-0.163785 -0.972106 -0.167882 -0.43731 -0.855327 -0.277804 -0.838771 -0.295361 -0.457412 
-0.853966 0.0292686 -0.519504 -0.3003 0.68024 -0.66865 0.517592 0.612789 -0.59715 
0.267394 0.674533 -0.688118 0.731952 -0.668486 0.131801 -0.584079 -0.810614 0.0419185 
-0.375031 -0.919517 -0.11764 -0.673 -0.693739 -0.256507 -0.126751 0.731166 -0.670321 
0.48114 0.648007 -0.590416 -0.0710348 -0.991048 0.113038 -0.632037 -0.76863 0.0986756 
-0.542646 -0.80929 0.224914 -0.485887 -0.864977 0.125417 0.945163 0.25223 -0.207475 
0.645274 0.579568 -0.497718 0.585727 -0.803604 0.105572 -0.613975 -0.753542 0.234965 
0.883904 -0.443436 0.148589 -0.334431 -0.935444 0.114455 -0.901479 -0.271041 -0.33745 
0.999141 0.026541 0.0318388 -0.717031 0.393132 -0.575599 -0.536087 0.655115 -0.532386 
0.759796 0.507602 -0.406263 0.133746 0.790183 -0.5981 0.632775 -0.756078 0.167157 
-0.335916 -0.878188 0.340508 -0.50565 -0.8473 -0.162481 -0.26208 -0.928337 0.263636 
-0.917654 0.0859336 -0.387978 0.564917 0.7088 -0.422458 0.434571 0.759975 -0.483307 
0.277695 -0.935907 0.216711 -0.444082 -0.736655 0.51003 -0.352718 -0.859998 0.368773 
0.901273 -0.247378 0.355683 -0.786341 -0.548412 -0.284451 -0.817077 0.410609 -0.404704 
-0.197909 0.824613 -0.529948 0.159139 -0.925089 0.344797 -0.212402 -0.9105 0.354789 
0.741649 -0.453888 0.493905 -0.534533 -0.673536 0.510514 -0.141495 -0.988059 -0.0609791 
0.913629 -0.177042 0.365977 0.963267 0.00503507 0.268497 0.00635351 0.879509 -0.475839 
0.421795 0.825362 -0.375322 -0.0894562 -0.808932 0.581057 0.608876 -0.695237 0.381989 
-0.292796 -0.710246 0.640172 0.113058 -0.708853 0.696237 0.517656 -0.615932 0.593852 
0.852145 -0.343404 0.39487 -0.409402 -0.723707 0.555552 -0.167077 -0.538414 0.825951 
-0.0263009 -0.989221 0.144051 -0.0466211 -0.930595 0.36307 0.956234 -0.0251159 0.291525 
0.986494 -0.0607362 0.152119 -0.865594 0.429849 -0.25686 0.954491 0.272785 -0.120558 
0.903948 0.418069 -0.0899815 0.723733 0.624922 -0.292717 -0.368247 0.808469 -0.459099 
0.345689 -0.519321 0.78154 -0.257225 -0.636853 0.726811 0.609875 -0.348989 0.711519 
0.0932543 -0.463574 0.881137 -0.164523 -0.981267 -0.100233 -0.49875 -0.848925 -0.174854 
-0.190841 -0.797228 0.572719 0.719744 -0.35794 0.594851 0.155097 -0.963633 0.217616 
-0.0480063 -0.731236 0.680433 -0.721655 0.618494 -0.310933 -0.286597 0.88915 -0.356755 
0.205396 0.925852 -0.317192 0.407172 -0.48168 0.776013 -0.0353044 -0.998807 0.0337434 
0.263482 -0.403975 0.876003 0.569685 -0.44705 0.689641 -0.68266 -0.697203 -0.218821 
0.724121 -0.0868146 0.684187 -0.982687 -0.114609 -0.145568 -0.961218 -0.131183 -0.242593 
-0.419227 0.844703 -0.332754 -0.321596 0.927949 -0.188378 0.0634366 0.963454 -0.260253 
0.469771 0.874625 -0.119776 -0.360447 -0.923801 -0.129109 -0.501016 -0.842376 -0.198459 
0.177755 -0.983156 0.0425111 0.363633 -0.511523 0.778534 0.298534 -0.448181 0.842622 
-0.903577 -0.36325 -0.227152 0.505094 -0.181903 0.843677 -0.971966 0.180134 -0.151106 
-0.530283 0.824165 -0.198876 0.734609 0.671886 -0.0944366 -0.880879 -0.43682 -0.18232 
-0.0432322 -0.762832 0.64515 0.210659 -0.700122 0.682241 -0.811138 0.552744 -0.191126 
-0.657254 0.712408 -0.245951 -0.150662 0.949182 -0.276325 0.118537 0.972234 -0.201769 
-0.476963 -0.855667 -0.200848 0.220902 -0.941452 0.254697 -0.859354 -0.49765 -0.117708 
0.241497 -0.72696 0.642812 0.715996 -0.309498 0.625748 -0.945153 0.315805 -0.0833858 
0.849835 0.524819 0.0484261 0.114092 0.9923 -0.0481973 0.388209 0.921326 -0.0212845 
-0.378136 -0.916746 -0.128806 -0.236092 -0.971117 -0.0345336 0.151182 -0.978649 0.139247 
-0.610028 -0.780238 -0.138181 -0.930436 -0.343274 -0.128268 0.560951 -0.658587 0.501595 
0.977563 0.0241133 0.209259 -0.224714 0.974388 0.00842507 -0.464348 -0.882943 -0.0692354 
0.305364 -0.916511 0.25838 -0.959217 -0.278235 0.0498805 -0.989462 -0.116004 -0.0866525 
0.931239 -0.173614 0.320394 -0.810058 0.585784 -0.0257372 -0.629888 0.776524 0.0158696 
0.889522 0.35803 0.283839 -0.512699 0.856609 -0.0579705 -0.526813 -0.848021 -0.057688 
-0.885077 -0.465439 -0.00225537 -0.707552 -0.695127 -0.127154 0.320499 -0.776392 0.542675 
0.581421 -0.620833 0.525848 0.966339 0.135945 0.21842 -0.513983 -0.857675 -0.0146539 