# vtk DataFile Version 4.2
vtk output
ASCII
DATASET POLYDATA
POINTS 737 float
283.201 245.026 168.66 282.355 245.255 168.384 275.537 246.372 168.345 
276.577 245.881 168.327 278.139 245.771 168.174 279.257 246.116 168.048 
282.36 245.944 168.388 283.267 245.808 168.71 283.509 245.701 168.874 
278.016 246.625 168.033 283.003 244.731 168.781 283.194 244.682 168.935 
282.888 244.934 168.61 277.035 245.466 168.476 277.823 245.397 168.398 
283.905 245.178 169.217 283.933 245.314 169.234 272.161 247.509 168.986 
279.125 246.929 168.081 281.209 246.944 168.345 282.9 246.52 168.839 
271.583 247.89 169.029 271.14 247.854 169.187 272.71 247.912 168.786 
279.761 247.504 168.313 273.894 248.768 168.729 275.346 245.055 169.42 
277.592 244.692 169.075 281.158 244.437 168.934 283.899 244.878 169.451 
283.963 245.043 169.36 274.546 245.631 169.133 284.186 245.185 169.83 
269.879 248.29 169.647 281.419 247.711 168.82 272.519 248.846 168.918 
283.301 244.39 169.724 279.714 244.043 169.712 283.94 244.763 169.78 
284.153 244.942 170.045 271.194 245.713 170.855 269.575 246.981 170.626 
282.979 247.62 169.652 283.795 247.078 170.151 278.434 249.176 169.12 
268.48 249.802 170.332 284.531 245.747 170.999 267.056 248.455 171.364 
284.11 247.096 170.703 267.362 249.586 170.893 280.362 249.185 169.672 
267.125 250.51 171.093 269.787 250.711 170.276 267.423 251.109 171.121 
282.783 243.558 171.708 284.019 244.564 170.688 268.477 246.692 171.842 
272.129 244.714 172.437 284.574 245.168 172.22 284.811 246.077 172.313 
281.955 243.254 172.457 284.382 244.73 172.702 268.048 245.976 173.815 
263.089 249.26 173.941 262.562 249.952 173.945 262.137 250.588 174.105 
261.227 251.124 174.796 262.093 251.923 174.215 261.856 253.846 174.89 
261.135 249.797 175.278 261.453 249.116 175.511 282.732 243.506 175.452 
269.342 245.134 175.966 261.932 256.678 176.428 281.835 243.271 175.903 
284.515 245.065 176.336 258.136 250.319 178.173 283.996 244.558 176.979 
259.512 248.802 178.495 285.32 248.747 178.016 256.898 252.83 178.6 
256.703 254.313 178.893 258.103 256.376 178.436 268.8 259.961 177.814 
259.494 248.513 179.794 258.028 249.572 179.381 255.383 253.18 180.402 
255.613 254.62 180.037 256.596 255.724 179.378 281.407 256.932 178.606 
279.619 243.674 179.051 283.477 244.548 178.504 267.448 246.561 180.006 
257.698 249.66 179.977 285.362 249.173 179.77 255.236 252.575 180.969 
284.234 256.591 181.161 281.453 259.404 180.827 282.489 244.445 180.262 
259.044 248.728 181.227 255.321 251.863 181.95 253.898 254.124 182.45 
254.277 256.841 182.652 285.295 256.915 183.143 282.95 259.368 181.935 
257.338 260.397 182.051 285.308 249.875 182.367 255.275 251.848 183.32 
254.176 253.169 182.986 253.676 253.715 183.517 253.839 254.211 182.658 
255.148 259.891 183.63 266.704 264.357 182.566 253.938 253.298 184.019 
253.631 253.741 183.752 253.479 254.443 184.056 253.173 257.516 184.857 
273.545 265.51 183.918 255.941 251.433 184.455 252.742 256.648 186.042 
252.851 257.209 185.515 252.866 257.868 185.811 286.158 255.598 186 
282.771 248.212 185.73 285.564 252.813 186.087 252.593 258.408 187.526 
252.77 259.382 187.778 253.068 260.304 187.892 284.387 262.932 186.927 
279.275 266.367 187.132 281.6 247.968 186.007 277.728 248.724 186.869 
283.759 249.325 186.241 283.852 249.639 186.482 253.912 254.104 187.004 
285.618 253.669 187.32 252.545 258.537 188.025 286.215 260.05 188.897 
265.575 268.006 187.84 280.329 248.964 187.304 281.968 250.107 188.224 
284.842 251.936 187.342 252.737 256.875 188.255 284.767 252.831 188.653 
254.998 254.017 188.776 252.673 259.181 189.898 286.349 259.071 190.015 
252.725 259.919 190.154 285.974 262.658 190.569 283.799 252.18 189.289 
283.547 252.284 189.622 280.856 252.236 190.475 252.692 257.898 189.556 
252.959 262.222 191.748 284.777 264.79 191.069 282.846 266.317 191.058 
270.715 269.699 191.436 286.012 257.4 190.835 252.823 261.76 192.261 
285.917 263.51 192.063 254.171 264.963 191.5 252.819 260.554 192.596 
252.942 263.253 193.572 253.312 263.979 192.635 282.459 254.895 192.645 
285.414 256.894 191.916 257.423 269.633 194.999 284.268 255.888 192.58 
282.956 256.472 193.809 281.028 257.499 195.078 286.108 261.581 194.383 
283.342 266.899 195.024 254.451 267.932 195.805 254.791 258.72 195.182 
285.336 259.299 194.438 285.99 262.44 195.346 285.188 265.168 195.179 
255.633 269.29 196.585 254.218 259.509 195.803 255.481 258.873 196.118 
284.599 259.017 195.194 256.204 258.987 196.743 253.496 260.795 196.243 
285.775 262.083 196.108 285.699 263.847 196.569 253.135 266.688 198.148 
261.624 271.045 197.487 285.262 261.065 196.464 269.442 261.532 199.332 
285.661 263.405 197.201 252.773 264.172 197.869 252.814 265.558 198.448 
284.882 265.705 197.865 255.981 269.979 198.602 259.757 270.963 198.389 
269.109 270.993 198.414 253.991 260.994 197.83 257.056 260.066 199.051 
253.245 262.199 197.872 260.985 260.382 199.196 278.437 269.168 198.613 
272.777 270.388 199.678 254.719 260.839 198.789 285.318 263.998 199.22 
254.821 269.834 200.435 284.994 263.65 199.923 284.983 264.931 200.146 
253.469 268.278 201.339 284.36 262.325 199.661 283.252 262.419 200.676 
284.538 263.674 200.805 284.873 264.59 200.677 284.385 265.99 201.301 
281.801 267.778 201.708 272.3 270.227 201.891 253.897 262.714 202.146 
254.626 262.127 201.989 252.958 264.223 201.869 283.895 263.47 201.557 
284.378 264.194 201.591 283.46 266.88 201.773 283.911 266.404 202.141 
259.711 270.933 202.493 254.193 262.481 202.284 253.43 263.491 202.63 
254.986 262.566 203.695 284.06 264.168 202.104 275.192 263.945 204.027 
252.852 266.798 204.13 254.041 268.912 204.365 273.014 269.706 203.351 
269.464 270.191 203.855 254.054 263.096 203.509 255.318 262.815 204.79 
255.2 262.861 204.752 253.556 263.976 204.527 258.76 263.028 204.924 
277.193 264.272 204.544 281.856 264.398 203.889 282.536 264.458 203.672 
284.147 265.325 202.75 283.991 265.642 203.008 283.721 266.204 203.045 
280.448 267.631 203.731 253.671 268.418 204.91 254.365 263.39 205.321 
253.241 264.621 205.173 255.272 263.137 205.264 276.421 264.577 204.995 
278.878 264.725 204.799 253.141 267.427 206.071 253.44 267.869 206.336 
276.574 268.333 204.686 254.172 268.711 206.018 256.082 269.888 205.044 
268.682 269.762 205.081 253.36 264.496 206.079 253.898 264.108 206.178 
254.237 263.789 205.915 268.167 265.116 205.749 271.162 265.259 205.688 
282.997 265.175 204.036 283.375 265.304 203.79 283.341 265.561 203.916 
252.879 266.463 206.375 268.678 265.569 206.029 282.958 265.926 204.165 
282.145 266.162 204.631 279.94 266.842 205.113 280.684 266.992 204.643 
253.487 267.767 207.091 270.211 268.94 205.593 255.856 269.302 206.433 
266.665 269.655 205.527 253.774 264.419 206.677 253.336 265.141 207.486 
252.896 265.958 206.839 265.507 265.507 206.24 270.145 265.531 205.938 
269.214 266.01 206.218 278.638 266.244 205.757 281.952 265.904 204.804 
281.505 265.95 205.113 269.258 267.377 206.433 269.679 267.088 206.41 
271.093 267.475 206.25 279.641 266.524 205.379 278.869 266.623 205.631 
281.402 266.15 205.043 253.253 267.326 207.494 264.385 268.058 206.629 
266.376 268.078 206.504 277.537 267.15 205.687 277.811 266.912 205.774 
254.648 268.815 206.728 255.043 268.707 207.354 259.475 269.1 206.659 
266.889 268.937 206.105 268.325 268.894 205.974 254.079 264.5 207.192 
253.415 265.328 208.171 252.923 265.776 207.365 265.169 266.437 206.647 
281.332 265.875 205.214 277.147 266.542 205.96 278.471 266.485 205.78 
259.52 267.551 207.643 253.616 267.564 208.161 253.853 267.779 208.154 
258.997 268.126 207.573 255.101 268.499 207.733 255.894 268.781 207.421 
254.286 265.052 208.275 253.184 265.718 208.66 253.044 265.844 208.422 
255.614 265.296 208.448 256.367 265.946 208.614 252.981 266.089 208.512 
257.428 266.512 208.339 252.974 266.457 208.213 253.009 266.311 208.574 
257.359 267.734 208.209 258.022 267.539 208.076 254.059 267.835 208.26 
256.871 268.119 208.094 256.95 268.586 207.631 253.831 265.496 208.89 
253.125 265.877 208.774 253.312 265.792 208.911 255.251 265.686 208.844 
255.484 266.119 209.009 253.176 265.992 208.95 255.874 266.373 208.947 
253.082 266.286 208.866 256.22 267.036 208.811 253.174 266.533 208.838 
253.451 267.022 208.768 253.748 265.657 209.067 253.848 265.821 209.21 
254.631 265.903 209.165 254.567 266.217 209.305 254.892 266.488 209.252 
253.154 266.339 208.988 253.307 266.363 209.112 253.4 266.642 209.076 
253.66 266.726 209.195 253.986 266.763 209.263 254.348 267.067 209.118 
253.675 266.043 209.273 253.556 266.289 209.274 253.854 266.27 209.359 
254.19 266.259 209.372 253.754 266.509 209.317 254.223 266.26 246.948 
254.204 266.196 246.997 254.178 266.289 246.995 254.316 266.234 246.985 
254.29 266.327 246.984 253.947 265.647 247.425 254.375 266.029 247.141 
253.713 266.014 247.298 253.55 265.823 247.428 253.474 265.984 247.438 
254.05 266.177 247.124 254.601 266.366 247.061 256.007 266.303 247.272 
253.431 266.165 247.531 254.244 266.487 247.129 254.999 266.661 247.132 
253.925 266.913 247.64 253.502 265.409 247.925 253.556 265.626 247.592 
253.419 265.784 247.581 253.354 265.958 247.645 253.347 266.142 247.742 
253.983 267.166 247.956 254.819 267.753 247.941 254.617 267.862 248.235 
255.259 267.811 247.84 255.842 267.804 247.736 257.2 267.757 247.732 
253.514 265.182 248.154 253.448 265.16 248.236 254.835 264.73 248.466 
253.415 265.263 248.156 253.353 265.415 248.286 253.391 266.687 248.941 
256.424 268.202 248.022 258.394 268.295 248.238 258.971 268.525 248.491 
254.417 264.175 249.56 253.787 264.733 249.034 259.09 265.191 249.093 
253.227 266.299 249.363 260.231 267.774 248.644 268.981 267.583 249.842 
254.236 268.427 250.022 256.343 269.003 248.922 258.963 268.84 248.737 
258.477 269.384 249.284 257.535 264.588 249.126 253.253 265.35 249.621 
281.241 265.352 251.401 282.177 265.664 251.346 282.564 265.409 251.539 
[...]
POINT_DATA 737
SCALARS scalars float
LOOKUP_TABLE default
1 1 1 1 1 1 1 1 1 
1 1 1 1 1 1 1 1 1 
1 1 1 1 1 1 1 1 1 
1 1 1 1 1 1 1 1 1 
1 1 1 1 1 1 1 1 1 
1 1 1 1 1 1 1 1 1 
1 1 1 1 1 1 1 1 1 
1 1 1 1 1 1 1 1 1 
1 1 1 1 1 1 1 1 1 
1 1 1 1 1 1 1 1 1 
1 1 1 1 1 1 1 1 1 
1 1 1 1 1 1 1 1 1 
1 1 1 1 1 1 1 1 1 
1 1 1 1 1 1 1 1 1 
1 1 1 1 1 1 1 1 1 
1 1 1 1 1 1 1 1 1 
1 1 1 1 1 1 1 1 1 
1 1 1 1 1 1 1 1 1 
1 1 1 1 1 1 1 1 1 
1 1 1 1 1 1 1 1 1 
1 1 1 1 1 1 1 1 1 
1 1 1 1 1 1 1 1 1 
1 1 1 1 1 1 1 1 1 
1 1 1 1 1 1 1 1 1 
1 1 1 1 1 1 1 1 1 
1 1 1 1 1 1 1 1 1 
1 1 1 1 1 1 1 1 1 
1 1 1 1 1 1 1 1 1 
1 1 1 1 1 1 1 1 1 
1 1 1 1 1 1 1 1 1 
1 1 1 1 1 1 1 1 1 
1 1 1 1 1 1 1 1 1 
1 1 1 1 1 1 1 1 1 
1 1 1 1 1 1 1 1 1 
1 1 1 1 1 1 1 1 1 
1 1 1 1 1 1 1 1 1 
1 1 1 1 1 1 1 1 1 
1 1 1 1 1 1 1 1 1 
1 1 1 1 1 1 1 1 1 
1 1 1 1 1 1 1 1 1 
1 1 1 1 1 1 1 1 1 
1 1 1 1 1 1 1 1 1 
1 1 1 1 1 1 1 1 1 
1 1 1 1 1 1 1 1 1 
1 1 1 1 1 1 1 1 1 
1 1 1 1 1 1 1 1 1 
1 1 1 1 1 1 1 1 1 
1 1 1 1 1 1 1 1 1 
1 1 1 1 1 1 1 1 1 
1 1 1 1 1 1 1 1 1 
1 1 1 1 1 1 1 1 1 
1 1 1 1 1 1 1 1 1 
1 1 1 1 1 1 1 1 1 
1 1 1 1 1 1 1 1 1 
1 1 1 1 1 1 1 1 1 
1 1 1 1 1 1 1 1 1 
1 1 1 1 1 1 1 1 1 
1 1 1 1 1 1 1 1 1 
1 1 1 1 1 1 1 1 1 
1 1 1 1 1 1 1 1 1 
1 1 1 1 1 1 1 1 1 
1 1 1 1 1 1 1 1 1 
1 1 1 1 1 1 1 1 1 
1 1 1 1 1 1 1 1 1 
1 1 1 1 1 1 1 1 1 
1 1 1 1 1 1 1 1 1 
1 1 1 1 1 1 1 1 1 
1 1 1 1 1 1 1 1 1 
1 1 1 1 1 1 1 1 1 
1 1 1 1 1 1 1 1 1 
1 1 1 1 1 1 1 1 1 
1 1 1 1 1 1 1 1 1 
1 1 1 1 1 1 1 1 1 
1 1 1 1 1 1 1 1 1 
1 1 1 1 1 1 1 1 1 
1 1 1 1 1 1 1 1 1 
1 1 1 1 1 1 1 1 1 
1 1 1 1 1 1 1 1 1 
1 1 1 1 1 1 1 1 1 
1 1 1 1 1 1 1 1 1 
1 1 1 1 1 1 1 1 1 
1 1 1 1 1 1 1 1 
NORMALS Normals float
0.465375 -0.281968 -0.839 0.0713405 -0.27054 -0.960062 -0.219855 -0.185772 -0.957681 
-0.237509 -0.524161 -0.817829 -0.0831793 -0.26537 -0.960552 0.0799903 -0.0832504 -0.993313 
0.145185 0.072382 -0.986753 0.471436 0.0900419 -0.877292 0.691951 0.26275 -0.672434 
-0.126812 -0.0838325 -0.988378 0.139121 -0.736235 -0.662271 0.451448 -0.695088 -0.559506 
0.143539 -0.504537 -0.851375 -0.202695 -0.532146 -0.822031 -0.149965 -0.479807 -0.864463 
0.653243 -0.358868 -0.666699 0.788889 0.0829271 -0.608914 -0.297725 -0.343811 -0.890592 
-0.0141252 0.219216 -0.975574 0.265653 0.341377 -0.901604 0.623164 0.377586 -0.684905 
-0.271657 0.0177051 -0.962231 -0.364911 -0.357055 -0.859855 -0.206885 -0.0563466 -0.976741 
0.156939 0.38889 -0.907819 -0.043531 0.598446 -0.79998 -0.256396 -0.72915 -0.634509 
-0.20691 -0.795737 -0.569201 -0.0167454 -0.677729 -0.735121 0.592737 -0.648359 -0.477801 
0.824855 -0.371781 -0.425902 -0.292685 -0.611311 -0.735278 0.973091 -0.0623473 -0.221828 
-0.441704 -0.150457 -0.884455 0.307729 0.530186 -0.790067 -0.206833 0.172821 -0.962992 
0.326881 -0.899544 -0.289775 -0.0869313 -0.933292 -0.348437 0.692144 -0.696325 -0.189917 
0.836609 -0.537897 -0.103693 -0.41374 -0.736661 -0.53493 -0.476497 -0.623196 -0.620143 
0.527919 0.563475 -0.635451 0.78566 0.294105 -0.544279 0.0343843 0.721243 -0.691828 
-0.383133 0.0739729 -0.920727 0.962321 -0.111578 -0.24797 -0.540018 -0.428819 -0.72422 
0.843515 0.331557 -0.422554 -0.455489 -0.0238771 -0.889921 0.209003 0.7787 -0.591561 
-0.484477 0.17712 -0.856686 -0.136768 0.452394 -0.881268 -0.380855 0.303494 -0.873407 
0.397234 -0.910776 -0.112659 0.827503 -0.552361 -0.100684 -0.519912 -0.65733 -0.545535 
-0.280808 -0.927631 -0.246267 0.905138 -0.407786 -0.120146 0.994123 -0.0850971 -0.0669128 
0.040372 -0.97753 -0.206895 0.835456 -0.548125 -0.0396409 -0.472081 -0.83225 -0.290687 
-0.506309 -0.224052 -0.832738 -0.372125 -0.140113 -0.917546 -0.579815 -0.129105 -0.804454 
-0.601795 -0.0672069 -0.795817 -0.394218 0.109774 -0.912437 -0.42329 0.366424 -0.828588 
-0.54447 -0.451311 -0.707015 -0.520695 -0.592871 -0.614313 0.512084 -0.856492 0.0647427 
-0.323155 -0.945939 0.0277722 -0.268691 0.590667 -0.760866 0.156309 -0.983247 0.0937724 
0.900522 -0.397569 0.176065 -0.716957 -0.433131 -0.546232 0.686566 -0.713966 0.137402 
-0.544485 -0.743393 -0.388463 0.972357 0.165553 -0.164664 -0.726926 -0.118853 -0.676353 
-0.663717 0.0955914 -0.741851 -0.520717 0.339245 -0.783432 -0.0345727 0.643992 -0.764251 
-0.383994 -0.916456 -0.112505 -0.705242 -0.620516 -0.342919 -0.829441 -0.13813 -0.541246 
-0.782452 0.092821 -0.615754 -0.55291 0.486899 -0.676181 0.357652 0.695356 -0.62335 
-0.00314143 -0.941285 0.3376 0.589248 -0.750215 0.29994 -0.231338 -0.907843 0.349719 
-0.650785 -0.747479 -0.133245 0.988696 -0.111473 0.100273 -0.869942 -0.290766 -0.398317 
0.738504 0.519854 -0.429376 0.391108 0.578246 -0.716007 0.709341 -0.592788 0.381364 
-0.470578 -0.876758 0.0992549 -0.742893 -0.650081 -0.159702 -0.909552 -0.177394 -0.375827 
-0.772721 0.347908 -0.530908 0.842554 0.329487 -0.426077 0.612469 0.436712 -0.658912 
-0.487528 0.592789 -0.641029 0.996901 -0.0741718 0.026193 -0.695278 -0.716031 0.0623611 
-0.823982 -0.55345 -0.121432 -0.884771 -0.421163 -0.199503 -0.954751 -0.183909 -0.233727 
-0.743604 0.444519 -0.499456 -0.0869346 0.771682 -0.630039 -0.825427 -0.560069 0.0706573 
-0.95796 -0.285215 -0.0310616 -0.963368 -0.268164 0.0031026 -0.771643 0.280122 -0.571051 
0.0656152 0.831335 -0.551885 -0.550431 -0.803427 0.227004 -0.957206 -0.109769 -0.267784 
-0.967204 0.00899961 -0.253842 -0.939243 0.226384 -0.258017 0.991655 -0.128235 -0.0132488 
0.28901 -0.769626 0.569342 0.890127 -0.382087 0.248361 -0.929511 0.195201 -0.3129 
-0.92288 0.287752 -0.255912 -0.925782 0.304691 -0.22381 0.695235 0.551025 -0.46154 
0.258326 0.884625 -0.388209 0.200536 -0.744093 0.637269 -0.117048 -0.707876 0.696571 
0.545964 -0.641214 0.53923 0.695848 -0.560087 0.449554 -0.74559 -0.610692 0.266742 
0.926404 -0.353321 0.130157 -0.993367 0.114962 -0.00222428 0.969431 0.0830359 -0.230885 
-0.11498 0.893529 -0.434035 0.0712002 -0.745956 0.662178 0.223203 -0.683093 0.695388 
0.859756 -0.432108 0.272215 -0.971381 -0.223168 0.0813283 0.783593 -0.450036 0.428311 
-0.498653 -0.726719 0.472466 -0.990967 0.0194274 0.132691 0.993104 -0.117238 -0.000673555 
-0.9847 0.0892764 0.149649 0.980847 0.181096 -0.0717182 0.51114 -0.642226 0.57121 
0.515154 -0.63254 0.578368 0.094839 -0.706221 0.701611 -0.898533 -0.313184 0.307498 
-0.960035 0.189166 -0.206274 0.685809 0.685067 -0.245662 0.542017 0.827275 -0.147759 
0.104781 0.959815 -0.260339 0.953863 -0.268345 0.134671 -0.986359 0.10191 -0.129266 
0.717944 0.689089 -0.0985464 -0.717493 0.631425 -0.294119 -0.999997 -0.00042294 -0.00245834 
-0.942435 0.333138 -0.0289145 -0.878891 0.4768 -0.0145715 0.0498017 -0.629849 0.77512 
0.739633 -0.439082 0.510049 -0.38226 0.857899 -0.343347 0.356774 -0.696797 0.622243 
0.376461 -0.716213 0.587636 0.0335125 -0.799719 0.599439 0.979581 -0.0829703 0.183129 
0.461894 0.870732 -0.168759 -0.723243 0.628679 -0.2858 -0.535786 -0.797504 0.277347 
0.823682 -0.381258 0.419749 0.991573 -0.0791128 0.102585 0.932234 0.357003 0.0590668 
-0.556971 0.784903 -0.271496 -0.715087 -0.649316 0.258918 -0.15318 -0.950056 0.271901 
0.539628 -0.632415 0.555746 -0.178839 -0.927264 0.328935 -0.897841 -0.409151 0.162716 
0.959625 -0.186053 0.21096 0.973009 0.225412 0.0494172 -0.932324 0.339049 -0.125766 
-0.0456175 0.993728 -0.1021 0.882709 -0.361525 0.300207 0.0466136 -0.798933 0.599611 
0.97951 0.0557157 0.193534 -0.998392 -0.053349 -0.0191787 -0.984519 0.168712 -0.0475279 
0.785651 0.616747 0.0487343 -0.404433 0.898705 -0.169598 -0.148951 0.981911 -0.116893 
0.0380618 0.996707 -0.0715998 -0.640364 -0.642847 0.420335 -0.0764788 -0.886048 0.457241 
-0.838103 -0.497931 0.222817 0.0669317 -0.902057 0.426396 0.295716 0.953695 0.0549413 
0.206823 0.977339 -0.0450891 -0.554233 -0.73854 0.383907 0.954283 -0.151868 0.257449 
-0.609582 0.791343 -0.046749 0.831915 -0.417305 0.365752 0.925953 0.284337 0.248524 
-0.914397 0.404006 -0.0256333 0.708775 -0.554753 0.43576 0.249151 -0.738323 0.62674 
0.792089 -0.44446 0.41839 0.90051 0.0260489 0.434055 0.830137 0.553696 0.0655228 
0.450037 0.886568 0.107068 0.188063 0.946282 0.263025 -0.734906 -0.659009 0.160061 
-0.435029 -0.853932 0.285568 -0.976629 -0.179021 0.118941 0.563154 -0.622681 0.543255 
0.848508 -0.196152 0.491487 0.574856 0.817404 0.0373128 0.775351 0.588078 0.230206 
-0.120001 0.982869 0.139886 -0.58359 -0.780669 0.223559 -0.87127 -0.366052 0.326948 
-0.335947 -0.8875 0.315411 0.513246 -0.619265 0.594212 0.0664239 -0.909446 0.410482 
-0.928106 0.372135 -0.011651 -0.708502 0.701282 0.0789188 0.180751 0.907786 0.378488 
0.0857224 0.964891 0.248268 -0.68229 -0.635752 0.360969 -0.211261 -0.888119 0.408184 
-0.455517 -0.830434 0.320754 -0.687112 -0.69331 0.217253 0.0597413 -0.893058 0.445958 
0.160301 -0.861827 0.481204 0.208322 -0.753083 0.624074 0.405328 -0.702297 0.585225 
0.899083 -0.0762333 0.43109 0.874999 0.196249 0.442565 0.635421 0.629481 0.447207 
0.298604 0.85513 0.423778 -0.736793 0.670537 0.0866939 -0.447124 -0.833408 0.324824 
-0.851752 -0.509441 0.122425 -0.138115 -0.821522 0.553197 0.0527978 -0.626154 0.777909 
0.158119 -0.80072 0.577794 -0.873575 0.478076 0.0911576 -0.798116 0.578617 0.167969 
0.192862 0.857995 0.476077 -0.594775 0.792656 0.133935 -0.359944 0.90797 0.214549 
0.135227 0.777563 0.614092 -0.806164 -0.561174 0.187571 -0.339947 -0.787469 0.514129 
-0.493962 -0.774038 0.396064 0.130334 -0.672176 0.72883 -0.00552442 -0.707167 0.707025 
0.489644 -0.365794 0.791482 0.631882 -0.358064 0.687397 0.687536 0.029764 0.72554 
-0.992902 0.0997582 0.0647599 0.108301 -0.635086 0.764811 0.558042 0.108778 0.822652 
0.479872 0.622051 0.618688 0.301245 0.61665 0.72732 0.325106 0.618974 0.714967 
-0.719149 0.680434 0.140834 0.177674 0.752706 0.633929 -0.123578 0.914764 0.384624 
-0.0164207 0.769749 0.638135 -0.548196 -0.713847 0.435779 -0.621202 -0.739541 0.259205 
-0.95683 -0.288799 -0.0327476 0.0535587 -0.612276 0.788828 0.0363596 -0.630129 0.775639 
0.0713301 -0.299633 0.951384 0.151551 -0.179164 0.972076 0.542453 0.0925495 0.834973 
0.484178 0.28002 0.828952 0.115217 0.11834 0.986266 0.140232 0.0879717 0.986203 
0.106118 0.215793 0.970656 0.323612 0.422276 0.846734 0.292701 0.347223 0.890933 
0.362621 0.474673 0.801992 -0.832339 0.539014 0.129132 -0.105672 0.0852602 0.990739 
0.0238606 0.31179 0.949851 0.200254 0.611578 0.765422 0.15374 0.311168 0.937837 
-0.445968 0.839759 0.309705 -0.263432 0.873346 0.409721 0.112409 0.699328 0.705907 
0.00459829 0.579496 0.814962 0.143515 0.484003 0.863217 -0.501787 -0.734761 0.456439 
-0.616821 -0.744892 0.254298 -0.950337 -0.30147 0.077309 -0.0820665 -0.295111 0.951932 
0.331361 -0.00985317 0.943452 0.0782145 -0.00869412 0.996899 0.234678 0.298269 0.925182 
0.250328 0.281508 0.926331 -0.632767 0.635405 0.442569 -0.583834 0.758233 0.290207 
0.282084 0.377601 0.881956 -0.186623 0.781582 0.595232 -0.0637328 0.852415 0.518968 
-0.139063 -0.820892 0.553894 -0.605474 -0.69765 0.382995 -0.910744 -0.397032 0.113629 
0.195776 -0.686745 0.700038 0.395293 -0.386755 0.833165 -0.97933 -0.112947 0.167798 
0.345426 -0.0679485 0.935983 -0.962501 0.23972 0.126987 -0.952824 0.136044 0.271328 
0.277623 0.415933 0.865982 0.259502 0.328644 0.908104 -0.411512 0.771147 0.485789 
0.111672 0.628602 0.769668 0.119896 0.756213 0.643247 -0.139303 -0.831399 0.537931 
-0.858976 -0.314174 0.404295 -0.538677 -0.607313 0.58395 0.213679 -0.570119 0.793288 
0.286891 -0.381119 0.878887 -0.617074 -0.311337 0.722695 0.37032 -0.233536 0.899068 
-0.92468 0.0961909 0.368395 0.296545 0.186864 0.936559 -0.810878 0.431358 0.395484 
-0.60888 0.624161 0.489579 -0.330145 -0.640193 0.693655 0.00363772 -0.537379 0.843333 
0.221755 -0.429944 0.875199 0.23442 -0.24024 0.941983 0.240418 -0.068385 0.968257 
-0.815326 0.10082 0.570157 -0.627572 0.17879 0.757752 -0.600733 0.39661 0.694133 
-0.373559 0.490648 0.787222 -0.0785413 0.38828 0.918188 -0.0897067 0.57476 0.81339 
-0.333765 -0.344486 0.877457 -0.448989 0.0458788 0.892359 -0.141204 -0.112836 0.983529 
0.0698804 -0.0258312 0.997221 -0.207612 0.223546 0.952326 -0.182651 -0.0311847 -0.982683 
-0.329583 -0.540096 -0.774385 -0.628192 0.308404 -0.714325 0.277159 -0.327429 -0.903313 
0.0310909 0.46044 -0.887146 -0.119938 -0.639817 -0.75911 0.0600473 -0.582213 -0.810816 
-0.43588 -0.0511871 -0.898548 -0.461385 -0.423891 -0.779384 -0.668769 0.0418804 -0.74229 
-0.562942 -0.0998474 -0.820443 0.176322 0.0576689 -0.982642 0.229543 -0.299859 -0.925956 
-0.791517 0.303428 -0.530501 -0.322987 0.561574 -0.761784 -0.0358831 0.389833 -0.920186 
-0.580109 0.522203 -0.625122 -0.606123 -0.601605 -0.520276 -0.433551 -0.656077 -0.617735 
-0.772564 -0.387927 -0.502651 -0.940943 -0.115232 -0.318353 -0.928874 0.315174 -0.194573 
-0.703747 0.627284 -0.333549 -0.329096 0.679078 -0.656162 -0.355024 0.827386 -0.43519 
-0.168176 0.782985 -0.598876 -0.0925637 0.705322 -0.702818 0.143243 0.454243 -0.879286 
-0.339905 -0.732638 -0.589666 -0.74443 -0.627757 -0.227476 -0.0779633 -0.815432 -0.573579 
-0.784989 -0.44128 -0.434815 -0.981159 -0.152582 -0.118511 -0.931945 0.33116 -0.14769 
0.0105412 0.691059 -0.722722 0.128192 0.495224 -0.859256 0.144082 0.561264 -0.814999 
-0.130003 -0.878031 -0.46061 -0.535814 -0.791718 -0.293405 0.263928 -0.595601 -0.758685 
-0.998564 -0.00773668 -0.0530004 0.277534 0.315391 -0.907471 0.121628 0.178975 -0.976306 
-0.665403 0.681086 -0.305549 -0.115244 0.785905 -0.607513 0.160824 0.602409 -0.781818 
0.117801 0.763894 -0.634499 0.156292 -0.781004 -0.604654 -0.934434 -0.326879 -0.141363 
0.0455569 -0.467611 -0.88276 0.112337 -0.239735 -0.964317 0.119311 -0.694601 -0.709432 
0.374901 -0.456707 -0.806764 0.0388515 -0.309559 -0.950086 -0.00981623 -0.639459 -0.768763 
0.0397861 -0.349291 -0.936169 0.0327639 -0.129523 -0.991035 0.093327 -0.0739223 -0.992887 
0.148587 0.0340363 -0.988313 0.329711 -0.231081 -0.915364 0.280971 0.148361 -0.94818 
0.478281 0.0240735 -0.877877 0.154748 -0.288785 -0.944805 0.0312008 0.157207 -0.987073 
0.594841 0.582744 -0.55369 -0.941263 0.300174 -0.154661 0.106131 0.102784 -0.989026 
0.0851662 0.464227 -0.881612 0.264643 0.439453 -0.858397 -0.856746 0.490878 -0.158194 
0.0629425 0.368814 -0.92737 0.101376 0.505451 -0.856879 0.112332 0.515653 -0.849402 
0.238086 0.738529 -0.630785 0.0906242 0.627027 -0.773708 0.146424 0.60424 -0.783233 
-0.0511245 0.523059 -0.850761 0.15269 0.476708 -0.865699 0.165025 0.61814 -0.76855 
-0.599158 0.773223 -0.207692 -0.103862 0.834065 -0.5418 0.155142 0.695843 -0.701237 
0.0309044 0.824859 -0.564493 0.116816 0.839554 -0.53057 0.192071 0.614631 -0.765074 
-0.561416 -0.775448 -0.288952 -0.864036 -0.47244 -0.173901 0.199496 -0.460919 -0.864729 
0.0322101 -0.711783 -0.70166 0.173323 -0.557968 -0.811561 0.455019 -0.581213 -0.674648 
-0.989692 -0.0695509 -0.125192 0.621552 0.309736 -0.719539 0.695269 -0.22362 -0.683078 
0.733707 0.463287 -0.49703 0.905592 0.173803 -0.386904 -0.982981 0.177589 -0.0470075 
0.427829 0.640491 -0.637756 0.699954 0.672999 -0.239032 0.790753 0.603229 -0.104038 
0.26393 0.902855 -0.339403 0.363634 0.841167 -0.400261 -0.913752 0.404272 -0.0402719 
0.061819 0.707165 -0.704341 -0.758397 0.625381 -0.183665 0.00823271 0.642859 -0.76594 
0.155578 0.694923 -0.702052 0.149771 0.890143 -0.430366 -0.103834 0.732308 -0.673011 
0.104225 0.771562 -0.627558 -0.324876 0.895907 -0.302995 -0.902805 -0.410552 -0.128022 
0.142948 -0.831834 -0.5363 0.549597 -0.673162 -0.494769 0.962014 0.210269 -0.174113 
0.206063 0.830345 -0.51775 -0.688529 0.715222 -0.119934 0.338081 0.816343 -0.468279 
0.163652 0.905829 -0.390758 0.183806 0.785244 -0.591276 0.0183378 0.887893 -0.459684 
0.164272 0.896924 -0.410538 -0.557744 0.822508 -0.111366 0.0646518 0.887396 -0.456451 
-0.0039166 -0.993574 -0.113119 -0.0969408 -0.986787 0.129826 0.0993854 -0.955643 -0.277253 
-0.151478 -0.961844 -0.22784 0.126239 -0.697422 -0.705454 0.753191 -0.527954 -0.392387 
0.529082 0.834732 -0.152629 0.320262 0.908069 -0.269894 -0.8367 0.547615 0.00713122 
0.215425 0.922294 -0.320882 0.288738 -0.792361 -0.537397 0.901819 -0.300428 -0.310588 
-0.997191 0.0734616 -0.0146304 0.922884 0.362819 -0.129023 -0.949015 0.314939 0.013547 
0.355718 0.908404 -0.219699 -0.0444228 0.950357 -0.307974 0.271259 -0.853393 -0.445128 
-0.983563 -0.179524 -0.0193385 -0.204144 0.977542 -0.052312 -0.00486965 0.99593 -0.0899932 
-0.0487344 0.996859 -0.0624308 0.408241 -0.796592 -0.445847 0.981519 0.118944 -0.149907 
0.562521 -0.691406 -0.453352 0.840385 -0.417384 -0.345752 -0.960039 0.278897 0.023256 
0.733251 0.676407 -0.0693941 -0.630364 0.775117 0.0428445 0.171905 0.973969 -0.147761 
-0.328695 0.937811 0.111672 0.386489 -0.698322 -0.602472 -0.944714 -0.313872 -0.0948647 
0.0512106 0.998633 0.0104517 0.208791 -0.676849 -0.705891 -0.99633 -0.079874 -0.0307826 
-0.842643 0.53554 0.0561275 -0.698436 0.705083 0.122658 -0.392686 -0.822651 -0.411148 
-0.577957 -0.731762 -0.361235 -0.121417 -0.851799 -0.509603 0.0949882 -0.744284 -0.661073 
0.44456 -0.693936 -0.566409 -0.904589 -0.363517 -0.222653 0.642938 -0.572345 -0.508971 
0.947841 -0.184081 -0.260216 -0.995884 0.0884477 0.0197931 0.961248 0.243309 -0.129626 
0.780952 0.624587 0.00209012 -0.133212 0.972283 0.192149 -0.779933 -0.573357 -0.25093 
0.83322 -0.403156 -0.37843 -0.956721 -0.226262 -0.183001 0.982992 -0.00759616 -0.183492 
0.888229 0.4594 0.000677825 -0.783614 0.585436 0.207877 -0.633746 -0.662221 -0.399787 
0.589316 -0.613765 -0.525356 0.883791 -0.399437 -0.243648 -0.928218 -0.301173 -0.218415 
0.971352 -0.16489 -0.171137 0.957547 0.274264 -0.0887828 -0.266768 0.892955 0.362583 
0.301575 0.953039 0.0277323 -0.786598 -0.51948 -0.333773 0.764818 -0.500305 -0.405891 
0.106112 -0.626734 -0.771974 0.327878 -0.627452 -0.706258 0.450311 -0.659724 -0.601651 
0.545755 -0.630557 -0.55186 -0.00624238 -0.716395 -0.697667 0.0161324 -0.785705 -0.618391 
-0.908776 -0.366566 -0.19939 0.961681 0.273535 -0.0186426 0.48169 0.864813 0.141679 
0.139449 0.970878 0.194805 -0.812705 -0.515891 -0.270864 -0.756673 -0.523011 -0.392308 
-0.935434 -0.326965 -0.13438 0.971027 -0.0734219 -0.227412 -0.999572 -0.00535508 -0.0287795 
-0.75994 0.54798 0.349583 -0.618456 0.683832 0.387151 -0.104778 0.93633 0.335122 
0.789806 -0.461478 -0.404035 0.946849 -0.235615 -0.219005 0.991052 0.0875655 0.100738 
-0.998167 -0.0410365 0.0444749 0.982904 0.174501 0.0587238 -0.924982 0.342019 0.165625 
0.801378 0.587367 0.113104 -0.452467 0.779772 0.4327 0.123922 -0.679648 -0.722995 
-0.64104 -0.649211 -0.409381 -0.971561 0.055378 0.230221 -0.774313 0.501487 0.38594 
0.0871485 0.931995 0.35184 -0.458211 -0.806626 -0.373358 -0.979329 0.0964577 0.177796 
0.867525 0.400718 0.294661 -0.0877289 -0.730368 -0.677396 0.601396 -0.592313 -0.536179 
-0.654117 -0.704851 -0.274438 -0.998487 -0.0537697 -0.0114745 -0.986018 -0.140909 -0.0889544 
0.875572 0.373885 0.305914 0.611566 0.710828 0.347433 -0.102676 -0.873118 -0.476574 
-0.990439 -0.130001 -0.0461496 0.625199 0.614561 0.481082 -0.848256 -0.497379 -0.181867 
-0.996623 0.0439371 0.0693625 -0.950308 0.23073 0.208994 -0.361807 0.754043 0.548193 
0.312561 -0.700203 -0.64189 0.944234 -0.279122 -0.174681 0.833953 0.36229 0.416255 
0.275295 0.859614 0.430439 0.0782652 -0.856901 -0.509506 0.442012 -0.732438 -0.517842 
-0.570253 -0.795158 -0.206239 0.999896 0.00285868 0.0141385 -0.957478 -0.0979043 0.271386 
-0.977692 -0.138409 0.157988 -0.935386 0.0714585 0.346335 0.593921 -0.587893 -0.549218 
0.812655 -0.410053 -0.414064 -0.320179 -0.900825 -0.293257 0.85392 -0.242507 -0.460447 
-0.74396 -0.668202 0.00547918 -0.844936 -0.523079 0.11168 0.963561 0.214926 0.159241 
-0.764332 0.398585 0.506879 0.54243 -0.767159 -0.342398 -0.251226 -0.791618 -0.556979 
-0.147788 -0.858196 -0.491588 -0.699908 -0.703131 0.125443 0.986866 0.0475328 0.154391 
-0.943967 -0.240065 0.226483 0.951844 0.234628 0.197338 -0.526204 0.548999 0.649391 
-0.0854324 0.80475 0.587433 0.133186 0.750773 0.646994 -0.288299 -0.911391 -0.293684 