# vtk DataFile Version 4.2
vtk output
ASCII
DATASET POLYDATA
POINTS 984 float
428.805 162.443 140.351 428.644 162.389 140.505 429.244 162.423 140.234 
429.078 162.143 140.295 429.571 162.143 140.306 428.679 162.642 140.513 
428.964 162.694 140.277 429.187 162.682 140.241 428.803 162.83 140.408 
428.933 162.875 140.323 429.375 162.866 140.291 428.921 162.977 140.419 
429.064 163.015 140.34 429.27 163.066 140.343 428.983 161.423 140.519 
428.835 160.995 140.735 429.194 161.78 140.369 428.618 162.6 140.716 
430.141 162.706 140.64 428.914 163.009 140.582 429.118 163.111 140.462 
429.302 163.187 140.424 429.447 163.155 140.409 429.409 163.227 140.473 
429.553 163.19 140.511 428.135 160.245 141.405 428.05 159.964 141.587 
428.232 159.94 141.476 429.69 160.258 140.998 427.977 160.721 141.585 
429.092 160.597 140.861 428.227 161.289 141.155 428.119 161.264 141.427 
430.368 161.224 140.875 430.138 162.335 140.549 428.888 162.995 140.739 
430.46 162.48 140.963 429.617 163.176 140.638 430.28 162.711 140.925 
429.463 163.224 140.581 429.407 158.248 141.973 429.844 158.171 141.999 
428.716 158.682 141.924 427.727 159.728 142.045 427.635 159.85 142.131 
430.324 160.225 141.189 430.797 159.952 141.51 431.58 158.907 142.349 
427.65 160.035 142.135 431.63 159.654 142.383 427.778 160.388 142.054 
430.928 160.933 141.355 428.242 161.591 141.536 431.175 161.289 141.66 
428.646 162.556 141.165 428.691 162.711 141.027 430.792 161.862 141.195 
430.974 161.672 141.444 428.931 162.919 141.005 429.022 163.03 140.888 
430.077 162.819 141.157 430.324 162.667 141.16 430.031 156.364 142.795 
430.067 156.311 142.848 427.365 158.243 143.241 428.067 158.028 142.576 
428.07 161.159 141.886 431.563 160.512 142.468 428.496 161.841 141.801 
428.722 162.403 141.454 429.142 162.413 141.844 431.103 161.568 141.788 
431.318 161.223 142.017 430.576 162.373 141.406 430.822 162.021 141.662 
428.828 155.289 143.788 428.524 155.829 143.62 430.638 155.241 143.655 
431.486 155.129 143.989 431.804 155.145 144.165 430.018 155.996 143.132 
432.097 155.697 144.294 427.41 158.774 143.195 427.815 160.301 142.576 
431.573 160.388 142.957 431.331 161.097 142.305 430.658 161.991 142.122 
430.436 162.011 142.27 430.063 153.804 144.681 430.993 154.091 144.485 
430.32 154.596 144.071 432.066 154.949 144.519 427.71 155.888 144.151 
431.908 158.775 143.767 428.086 160.236 143.059 428.845 161.186 142.778 
429.859 161.76 142.634 430.624 161.593 142.645 430.362 161.519 142.823 
432.257 153.092 145.688 432.099 152.724 145.876 432.424 153.102 145.892 
428.303 153.953 145.314 428.861 154.221 144.702 427.621 155.59 144.502 
431.987 158.087 144.366 427.874 158.273 144.485 429.901 159.184 144.614 
431.742 158.574 144.478 431.879 158.257 144.543 429.074 159.856 143.914 
430.701 159.551 144.269 428.361 160.337 143.189 429.962 160.322 143.751 
431.092 160.491 143.356 431.312 151.516 146.64 431.476 150.994 147.155 
432.383 152.409 146.47 432.488 152.869 146.27 432.503 154.602 146.006 
427.176 154.943 146.059 427.21 154.609 146.549 427.24 155.036 145.697 
427.183 155.445 146.023 432.015 157.091 145.282 431.887 157.052 145.563 
427.374 156.757 145.254 431.785 157.545 145.26 428.143 157.812 145.146 
431.798 150.959 147.303 432.322 151.862 146.92 427.321 153.823 146.93 
427.267 155.078 146.581 427.271 154.156 147.375 431.743 156.713 145.964 
430.606 149.938 148.156 428.594 149.916 148.959 432.243 150.758 147.879 
432.465 150.885 148.091 432.596 150.652 148.699 427.792 150.928 148.867 
427.681 150.743 149.296 432.624 152.455 147.906 427.233 153.383 148.11 
427.366 154.246 147.721 427.747 154.728 147.838 428.949 148.895 149.746 
430.641 148.47 149.785 431.567 149.137 149.182 431.315 148.57 149.754 
432.238 148.912 149.792 432.491 148.997 149.979 428.392 148.937 150.139 
427.929 149.772 149.902 427.331 151.827 149.44 427.259 153.032 148.615 
431.539 153.828 148.565 429.993 148.165 150.213 431.696 148.11 150.397 
432.619 148.741 150.458 427.734 149.781 150.321 427.422 151.008 150.472 
427.294 151.51 150.008 427.281 151.554 150.063 427.306 151.719 149.891 
427.433 152.126 149.768 432.32 147.773 151.084 432.704 148.325 151.032 
427.789 148.788 151.566 432.905 149.192 151.485 432.529 150.603 150.841 
427.484 150.488 151.435 427.359 151.549 150.176 427.607 151.438 150.683 
431.925 151.368 150.928 427.944 152.945 149.714 431.566 151.23 151.344 
430.301 151.431 151.74 430.401 145.189 153.975 433.153 146.113 153.543 
428.747 146.839 152.703 433.463 146.538 153.674 433.394 147.508 153.279 
430.875 144.759 154.505 432.055 144.846 154.425 429.526 145.555 153.847 
429.305 145.476 154.221 427.925 147.571 153.782 433.6 147.19 153.986 
432.484 144.206 155.449 433.355 144.905 155.11 428.111 146.688 154.951 
427.955 147.731 154.614 428.067 147.802 154.926 432.005 148.282 155.564 
428.203 148.25 154.79 431.468 143.199 156.825 434.085 144.464 156.499 
428.117 146.66 155.393 433.645 146.997 155.899 428.53 147.998 155.498 
429.703 143.306 157.478 428.827 144.648 156.903 434.182 143.949 157.108 
434.596 144.781 157.308 428.226 146.566 155.958 434.8 145.083 158.145 
428.192 147.017 155.73 430.122 142.881 157.953 432.08 142.222 158.63 
433.014 142.657 158.048 434.3 142.857 158.539 434.731 143.914 157.932 
434.953 143.759 158.51 434.69 145.407 158.294 429.122 146.188 158.128 
429.704 142.518 159.507 433.297 141.916 159.42 434.667 142.918 158.865 
435.317 144.031 159.507 432.678 146.557 159.062 433.505 146.178 159.512 
430.287 146.603 158.686 430.852 147.29 157.732 434.316 141.686 160.284 
429.1 143.307 159.351 429.074 144.194 160.056 435.152 144.768 160.182 
433.076 145.995 160.288 434.434 145.611 159.707 431.451 146.575 159.15 
434.004 140.898 161.415 434.727 140.987 161.66 435.4 141.676 161.288 
435.561 142.023 161.106 429.083 143.414 160.223 435.142 144.659 161.49 
432.437 145.805 160.89 430.833 140.817 162.272 431.385 140.64 162.165 
429.516 142.559 161.655 436.286 142.258 162.488 436.148 143.259 162.503 
430.091 144.412 162.189 435.581 144.119 162.202 430.297 140.996 162.79 
435.029 140.24 163.263 429.806 141.81 162.888 429.758 143.004 163.229 
429.806 143.47 163.031 429.851 143.78 162.715 436.164 143.37 163.501 
434.995 144.523 162.61 431.029 139.859 164.54 432.074 139.557 164.286 
432.917 139.258 164.647 434.283 139.622 164.029 436.262 140.58 164.004 
430.225 143.094 164.449 430.374 143.704 163.795 431.197 144.51 163.17 
433.344 144.821 163.093 430.868 139.528 165.786 430.612 139.939 165.174 
436.023 139.365 165.512 437.178 140.99 165.091 437.591 140.993 165.9 
430.541 139.663 166.333 436.913 139.785 165.768 437.851 140.014 166.753 
430.137 140.784 166.209 437.957 141.047 166.748 430.151 142.028 165.61 
431.154 142.825 166.263 430.902 143.442 164.909 431.371 138.357 168.257 
432.788 138.391 166.938 438.311 140.098 167.389 430.552 139.158 167.817 
438.788 139.486 168.391 439.112 140.098 169.016 433.102 142.807 167.954 
438.128 141.324 168.316 434.5 143.25 167.122 434.559 137.344 169.189 
431.375 137.987 169.535 438.913 138.812 169.248 430.421 139.3 168.845 
439.271 140.09 169.633 436.152 142.602 168.002 431.481 137.614 170.789 
439.727 138.886 170.388 439.684 139.324 170.091 439.587 139.642 170.06 
437.87 136.899 171.49 431.118 137.892 171.555 432.292 137.034 171.567 
439.954 139.253 170.837 439.719 139.832 171.129 431.092 137.979 172.022 
431.281 139.129 172.595 439.395 140.314 171.914 435.609 141.798 171.05 
431.214 137.897 172.701 431.181 138.25 172.865 431.314 138.501 173.282 
437.665 141.283 171.687 437.158 135.912 174.407 438.733 136.199 174.37 
431.58 138.084 174.164 440.529 139.595 174.026 432.083 137.106 175.113 
440.183 136.514 175.134 431.865 137.504 174.92 431.959 138.432 175.04 
432.435 139.168 175.141 433.341 136.172 176.719 432.477 136.898 176.488 
432.131 137.748 176.059 433.519 139.66 176.038 433.254 136.33 177.603 
440.321 135.935 177.006 442.235 137.106 177.244 432.524 137.14 177.068 
442.539 138.248 177.176 435.198 140.162 176.86 433.339 136.368 178.125 
441.061 135.95 177.957 441.714 136.316 177.945 443.2 137.248 178.795 
438.871 140.359 177.959 433.008 137.216 178.72 443.51 137.388 179.437 
443.538 137.262 179.727 434.624 136.038 179.56 433.219 137.007 179.169 
443.188 136.844 179.535 433.332 137.504 179.639 443.696 137.676 180.4 
433.801 138.341 179.795 443.384 138.315 179.873 442.481 136.104 180.227 
433.362 137.087 179.636 433.619 137.048 180.109 442.886 136.388 180.39 
443.784 137.623 181.107 442.833 139.041 180.28 441.109 140.064 180.73 
437.964 135.572 181.594 442.22 135.947 181.1 434.702 136.917 181.735 
433.777 137.328 180.633 440.3 140.435 181.854 438.413 135.67 182.294 
439.629 135.648 182.555 443.721 137.119 182.198 434.875 138.523 182.508 
435.571 139.336 182.88 437.785 140.538 183.065 435.645 137.621 183.972 
436.608 140.1 183.481 439.286 140.928 183.864 441.694 136.052 183.651 
439.455 136.23 184.294 443.458 136.855 183.743 443.617 137.006 183.43 
443.825 137.427 183.958 435.387 137.987 184.046 436.283 137.609 184.742 
443.407 136.947 184.285 443.973 137.86 184.15 435.247 138.236 183.909 
435.381 138.374 184.373 444.017 138.274 184.644 443.816 139.089 184.606 
438.353 141.161 185.136 441.174 141.266 185.384 442.846 136.839 185.028 
440.796 136.876 185.82 443.659 137.336 184.645 435.674 138.642 185.014 
435.852 138.984 185.322 444.081 138.947 185.874 437.618 140.959 185.516 
436.551 138.303 185.902 443.915 138.125 185.963 436.494 138.555 186.062 
444.055 138.55 186.444 444.126 138.973 186.539 443.661 140.041 186.158 
443.872 139.84 186.426 444.085 139.495 186.77 436.388 139.761 185.917 
436.769 140.276 186.011 442.346 141.173 186.18 443.14 140.726 186.457 
437.578 141.013 186.127 440.491 141.942 186.743 441.769 141.635 186.663 
442.767 137.608 186.802 443.672 137.915 186.333 436.491 139.36 186.331 
437.09 139.302 187.024 436.882 139.85 186.84 439.872 142.598 188.374 
[...]
POINT_DATA 984
SCALARS scalars float
LOOKUP_TABLE default
1 1 1 1 1 1 1 1 1 
1 1 1 1 1 1 1 1 1 
1 1 1 1 1 1 1 1 1 
1 1 1 1 1 1 1 1 1 
1 1 1 1 1 1 1 1 1 
1 1 1 1 1 1 1 1 1 
1 1 1 1 1 1 1 1 1 
1 1 1 1 1 1 1 1 1 
1 1 1 1 1 1 1 1 1 
1 1 1 1 1 1 1 1 1 
1 1 1 1 1 1 1 1 1 
1 1 1 1 1 1 1 1 1 
1 1 1 1 1 1 1 1 1 
1 1 1 1 1 1 1 1 1 
1 1 1 1 1 1 1 1 1 
1 1 1 1 1 1 1 1 1 
1 1 1 1 1 1 1 1 1 
1 1 1 1 1 1 1 1 1 
1 1 1 1 1 1 1 1 1 
1 1 1 1 1 1 1 1 1 
1 1 1 1 1 1 1 1 1 
1 1 1 1 1 1 1 1 1 
1 1 1 1 1 1 1 1 1 
1 1 1 1 1 1 1 1 1 
1 1 1 1 1 1 1 1 1 
1 1 1 1 1 1 1 1 1 
1 1 1 1 1 1 1 1 1 
1 1 1 1 1 1 1 1 1 
1 1 1 1 1 1 1 1 1 
1 1 1 1 1 1 1 1 1 
1 1 1 1 1 1 1 1 1 
1 1 1 1 1 1 1 1 1 
1 1 1 1 1 1 1 1 1 
1 1 1 1 1 1 1 1 1 
1 1 1 1 1 1 1 1 1 
1 1 1 1 1 1 1 1 1 
1 1 1 1 1 1 1 1 1 
1 1 1 1 1 1 1 1 1 
1 1 1 1 1 1 1 1 1 
1 1 1 1 1 1 1 1 1 
1 1 1 1 1 1 1 1 1 
1 1 1 1 1 1 1 1 1 
1 1 1 1 1 1 1 1 1 
1 1 1 1 1 1 1 1 1 
1 1 1 1 1 1 1 1 1 
1 1 1 1 1 1 1 1 1 
1 1 1 1 1 1 1 1 1 
1 1 1 1 1 1 1 1 1 
1 1 1 1 1 1 1 1 1 
1 1 1 1 1 1 1 1 1 
1 1 1 1 1 1 1 1 1 
1 1 1 1 1 1 1 1 1 
1 1 1 1 1 1 1 1 1 
1 1 1 1 1 1 1 1 1 
1 1 1 1 1 1 1 1 1 
1 1 1 1 1 1 1 1 1 
1 1 1 1 1 1 1 1 1 
1 1 1 1 1 1 1 1 1 
1 1 1 1 1 1 1 1 1 
1 1 1 1 1 1 1 1 1 
1 1 1 1 1 1 1 1 1 
1 1 1 1 1 1 1 1 1 
1 1 1 1 1 1 1 1 1 
1 1 1 1 1 1 1 1 1 
1 1 1 1 1 1 1 1 1 
1 1 1 1 1 1 1 1 1 
1 1 1 1 1 1 1 1 1 
1 1 1 1 1 1 1 1 1 
1 1 1 1 1 1 1 1 1 
1 1 1 1 1 1 1 1 1 
1 1 1 1 1 1 1 1 1 
1 1 1 1 1 1 1 1 1 
1 1 1 1 1 1 1 1 1 
1 1 1 1 1 1 1 1 1 
1 1 1 1 1 1 1 1 1 
1 1 1 1 1 1 1 1 1 
1 1 1 1 1 1 1 1 1 
1 1 1 1 1 1 1 1 1 
1 1 1 1 1 1 1 1 1 
1 1 1 1 1 1 1 1 1 
1 1 1 1 1 1 1 1 1 
1 1 1 1 1 1 1 1 1 
1 1 1 1 1 1 1 1 1 
1 1 1 1 1 1 1 1 1 
1 1 1 1 1 1 1 1 1 
1 1 1 1 1 1 1 1 1 
1 1 1 1 1 1 1 1 1 
1 1 1 1 1 1 1 1 1 
1 1 1 1 1 1 1 1 1 
1 1 1 1 1 1 1 1 1 
1 1 1 1 1 1 1 1 1 
1 1 1 1 1 1 1 1 1 
1 1 1 1 1 1 1 1 1 
1 1 1 1 1 1 1 1 1 
1 1 1 1 1 1 1 1 1 
1 1 1 1 1 1 1 1 1 
1 1 1 1 1 1 1 1 1 
1 1 1 1 1 1 1 1 1 
1 1 1 1 1 1 1 1 1 
1 1 1 1 1 1 1 1 1 
1 1 1 1 1 1 1 1 1 
1 1 1 1 1 1 1 1 1 
1 1 1 1 1 1 1 1 1 
1 1 1 1 1 1 1 1 1 
1 1 1 1 1 1 1 1 1 
1 1 1 1 1 1 1 1 1 
1 1 1 1 1 1 1 1 1 
1 1 1 1 1 1 1 1 1 
1 1 1 1 1 1 1 1 1 
1 1 1 
NORMALS Normals float
-0.463916 -0.115725 -0.878288 -0.829869 0.0724475 -0.553235 0.0654578 -0.0105851 -0.997799 
-0.190265 -0.206407 -0.959789 0.254986 -0.283521 -0.924445 -0.890361 0.258765 -0.374563 
-0.322912 0.104712 -0.940619 -0.0806174 0.0763604 -0.993816 -0.780576 0.392402 -0.48654 
-0.464788 0.368895 -0.804916 0.188109 0.199372 -0.961699 -0.586181 0.68958 -0.425289 
-0.224517 0.480926 -0.847527 -0.0872043 0.528432 -0.844485 -0.176284 -0.382401 -0.907025 
-0.164435 -0.339715 -0.926042 -0.109477 -0.345959 -0.931841 -0.950794 0.308363 -0.030042 
0.698286 0.387198 -0.602058 -0.642841 0.763373 -0.063389 -0.409648 0.876869 -0.251572 
-0.180242 0.765406 -0.617792 0.362809 0.505567 -0.782797 -0.0652567 0.975152 -0.211705 
0.470398 0.797222 -0.378369 -0.562827 -0.270983 -0.780893 -0.734216 -0.223845 -0.640952 
-0.389729 -0.461572 -0.796908 0.054834 -0.395173 -0.916969 -0.928091 0.129318 -0.349177 
-0.0700983 -0.300407 -0.951232 -0.832922 0.0136468 -0.553222 -0.937573 0.294574 -0.184886 
0.570998 -0.158706 -0.805465 0.501273 0.0792213 -0.861655 -0.61658 0.781218 0.0976047 
0.831389 0.493267 -0.25589 0.415841 0.905168 0.0880144 0.674298 0.700749 -0.232963 
0.117029 0.931593 0.344148 -0.120208 -0.502003 -0.856471 0.119496 -0.421774 -0.898792 
-0.278292 -0.381097 -0.881657 -0.721171 -0.321121 -0.613835 -0.869424 -0.0269249 -0.493333 
0.309863 -0.262069 -0.91395 0.499533 -0.314037 -0.807371 0.953523 -0.124791 -0.274266 
-0.960814 0.226787 -0.159388 0.957383 -0.0331143 -0.286917 -0.93807 0.286499 -0.194788 
0.677414 -0.119781 -0.725784 -0.902523 0.430394 0.0146229 0.885975 0.0926316 -0.454387 
-0.949791 0.211447 0.230622 -0.755566 0.625088 0.195922 0.849936 0.27596 -0.448837 
0.833216 0.187227 -0.520286 -0.250277 0.783762 0.5684 -0.353185 0.89702 0.265737 
0.2833 0.862642 0.419035 0.663936 0.739924 0.108169 0.0162965 -0.542302 -0.840025 
0.29035 -0.49232 -0.820559 -0.857262 -0.235719 -0.457754 -0.411037 -0.511706 -0.754457 
-0.872222 0.427794 0.237108 0.980634 0.191136 0.042711 -0.708134 0.520737 0.476843 
-0.745691 0.491463 0.449899 -0.331519 0.687259 0.646352 0.858465 0.506282 -0.081947 
0.917933 0.390193 -0.071758 0.634432 0.719644 0.28215 0.755009 0.629964 0.181951 
-0.295892 -0.563747 -0.771127 -0.456492 -0.474753 -0.752479 0.0228404 -0.546799 -0.836952 
0.357224 -0.459318 -0.813276 0.557868 -0.326883 -0.762844 -0.0853063 -0.560917 -0.823465 
0.787402 -0.166028 -0.593661 -0.984528 0.147524 0.0945534 -0.772087 0.511594 0.377032 
0.788869 0.462647 0.404529 0.688636 0.597246 0.41119 0.556906 0.687767 0.465652 
0.332964 0.756185 0.56331 -0.0648394 -0.626912 -0.776388 0.070695 -0.566642 -0.820926 
0.00197481 -0.575281 -0.817953 0.76037 -0.308697 -0.57144 -0.624928 -0.443072 -0.642769 
0.98262 0.181107 0.040722 -0.597931 0.608488 0.521748 -0.34809 0.587092 0.73086 
-0.00363799 0.688967 0.724784 0.380221 0.659023 0.648938 0.0734193 0.615254 0.784902 
0.48247 -0.543007 -0.687289 0.466744 -0.569767 -0.676399 0.931137 -0.163604 -0.325911 
-0.565325 -0.587342 -0.579169 -0.273342 -0.583372 -0.764828 -0.737768 -0.386541 -0.55343 
0.967762 0.224157 0.114853 -0.625364 0.461321 0.629367 -0.0468855 0.472558 0.880052 
0.741559 0.478551 0.470191 0.866427 0.363474 0.342333 -0.205637 0.598075 0.774609 
0.317858 0.538259 0.78054 -0.424837 0.635805 0.644411 -0.00316087 0.600977 0.79926 
0.455084 0.595763 0.661789 0.185158 -0.67053 -0.718405 0.0920817 -0.64525 -0.758401 
0.651217 -0.525136 -0.547858 0.869969 -0.334081 -0.362689 0.975842 0.19767 0.093051 
-0.998243 0.0285117 -0.0519496 -0.991442 -0.127357 -0.0286917 -0.913915 -0.26656 -0.306111 
-0.987958 0.123795 0.0928121 0.848053 0.326904 0.417062 0.780057 0.363115 0.509568 
-0.892664 0.33811 0.298048 0.684752 0.466281 0.560086 -0.497864 0.49583 0.711536 
0.423991 -0.601826 -0.676784 0.593949 -0.529211 -0.605937 -0.934271 -0.277644 -0.223723 
-0.899603 0.284515 0.331309 -0.971803 0.199366 0.125905 0.642341 0.457081 0.615203 
-0.0439885 -0.736112 -0.675429 -0.328451 -0.65052 -0.684795 0.656046 -0.521551 -0.545516 
0.834422 -0.358901 -0.418246 0.901381 -0.295141 -0.316866 -0.846593 -0.380238 -0.372423 
-0.863088 -0.360624 -0.353596 0.997534 0.0594996 -0.0372203 -0.863957 0.346035 0.365838 
-0.847521 0.431583 0.308941 -0.747666 0.487491 0.450941 -0.41328 -0.658388 -0.629066 
-0.0118621 -0.694408 -0.719484 0.249079 -0.689013 -0.680603 0.109091 -0.729873 -0.674822 
0.480013 -0.617203 -0.623417 0.684084 -0.466439 -0.560771 -0.565726 -0.656411 -0.499079 
-0.76164 -0.456326 -0.460077 -0.985894 -0.131816 -0.103139 -0.990614 -0.134113 -0.026412 
0.604256 0.547633 0.578769 -0.0907871 -0.797366 -0.596628 0.268455 -0.758233 -0.594151 
0.674024 -0.541319 -0.502658 -0.869268 -0.370504 -0.327261 -0.991201 -0.129987 -0.0249656 
-0.966662 -0.205635 -0.152575 -0.96147 0.140474 0.236309 -0.952778 0.270285 0.138422 
-0.757518 0.491712 0.429401 0.366021 -0.713755 -0.597145 0.863657 -0.328557 -0.382291 
-0.941042 -0.308583 -0.138626 0.988268 0.0467774 -0.145392 0.847842 0.423734 0.318769 
-0.945085 0.191298 0.264989 -0.801023 0.359513 0.478658 -0.822033 0.371708 0.431388 
0.642146 0.539734 0.544367 -0.578666 0.588526 0.564608 0.451986 0.699166 0.553963 
0.140439 0.735802 0.662474 -0.138711 -0.803653 -0.578706 0.560761 -0.531261 -0.635066 
-0.618845 -0.661442 -0.423704 0.881035 -0.235063 -0.410515 0.877605 -0.147539 -0.456116 
-0.119231 -0.790334 -0.600962 0.159814 -0.749778 -0.6421 -0.351138 -0.787018 -0.507252 
-0.543343 -0.744373 -0.388184 -0.98892 -0.126712 -0.0773409 0.978961 0.0311837 -0.201652 
0.349512 -0.819157 -0.454778 0.656575 -0.582607 -0.479039 -0.876978 -0.467505 -0.111128 
-0.98466 0.12672 0.119947 -0.92244 0.218935 0.318074 0.423113 0.829894 0.363664 
-0.887302 0.334665 0.317323 0.031813 -0.886077 -0.462445 0.685793 -0.472703 -0.55339 
-0.970936 -0.191106 0.144092 0.837802 0.530532 0.128933 -0.743966 0.407841 0.529321 
-0.526994 -0.78395 -0.328176 -0.872456 -0.477691 -0.103111 0.538818 -0.648664 -0.537504 
0.937479 0.0645813 -0.341999 -0.949952 -0.150028 0.274011 0.94488 0.165003 -0.282801 
-0.85244 0.251565 0.458323 -0.498564 -0.843987 -0.197786 -0.0338085 -0.949836 -0.310915 
0.277746 -0.804795 -0.524559 0.447519 -0.737663 -0.50555 0.860801 -0.292424 -0.416545 
0.825758 -0.369353 -0.426266 0.847787 0.525784 -0.0693483 -0.727397 0.547581 0.41358 
-0.533874 -0.8122 -0.235179 0.178959 -0.903864 -0.388592 0.691021 -0.546021 -0.473656 
0.970656 0.062324 -0.232256 0.167172 0.941583 0.29236 0.310942 0.914357 0.259358 
-0.2374 0.883453 0.40392 -0.0236996 0.848 0.529466 0.00764186 -0.882528 -0.470198 
-0.870749 -0.487135 -0.0670562 -0.944279 0.204922 0.257573 0.792329 0.608547 -0.0434216 
0.215497 0.893734 0.393447 0.575697 0.806924 0.132083 0.021125 0.933329 0.358399 
0.177957 -0.778332 -0.602105 0.320645 -0.821165 -0.472097 0.44763 -0.644868 -0.619493 
0.645199 -0.553656 -0.526482 -0.981055 -0.131913 0.14188 0.574483 0.816982 0.0501075 
-0.0654645 0.879448 0.471472 -0.330989 -0.845979 -0.418049 -0.282414 -0.866631 -0.41133 
-0.973903 -0.205091 0.0972116 0.940184 -0.0634066 -0.334714 0.882046 0.470768 -0.0192855 
-0.559328 0.706981 0.432816 0.752004 0.641301 0.152392 -0.627668 -0.752768 -0.198424 
0.232196 -0.849453 -0.47383 -0.96042 -0.268756 0.0732421 -0.981123 0.0543739 0.185583 
-0.889508 0.367184 0.271939 -0.854451 0.430317 0.291104 0.825731 0.561946 -0.0488343 
0.480576 0.852877 0.204076 -0.407709 -0.876623 -0.255548 -0.186549 -0.891012 -0.41388 
-0.0726135 -0.927504 -0.366692 0.163733 -0.854745 -0.492547 0.608288 -0.645204 -0.462273 
-0.896651 0.308774 0.317295 -0.524162 0.715817 0.461367 -0.22472 0.824168 0.519854 
0.0100999 0.908084 0.418667 -0.572152 -0.773921 -0.271457 -0.689941 -0.70801 -0.150674 
0.321734 -0.839713 -0.437458 0.849923 -0.177835 -0.495989 0.876943 0.113933 -0.466894 
-0.839041 -0.477748 -0.260321 0.620894 -0.634596 -0.460194 0.730308 -0.470765 -0.495006 
-0.989196 -0.138189 0.0489338 0.903301 0.242116 -0.354157 -0.82817 0.396095 0.39654 
-0.68462 0.604032 0.40797 -0.438384 0.795612 0.418116 -0.387846 -0.863993 -0.321079 
-0.204256 -0.906517 -0.369468 0.811592 -0.255031 -0.525622 -0.727097 -0.654155 -0.208352 
0.803686 -0.292163 -0.518391 0.82801 0.512077 -0.228424 -0.131789 0.914436 0.382672 
0.639303 0.768843 0.0131109 -0.0200424 0.9206 0.389993 -0.105076 -0.9412 -0.321094 
-0.554584 -0.810818 -0.187113 0.591579 -0.645142 -0.483555 -0.969681 -0.234739 0.0679386 
0.824816 0.518715 -0.224975 0.326652 0.899761 0.289359 -0.551985 -0.82191 -0.140631 
0.844365 -0.376643 -0.381035 0.945754 0.124046 -0.300268 0.898432 0.399088 -0.183163 
0.226361 -0.911427 -0.343602 -0.902023 -0.430951 0.0251968 -0.297966 -0.939752 -0.167578 
0.918923 0.331334 -0.214005 0.852518 0.518985 -0.0621867 -0.991942 -0.115612 0.0518178 
-0.946782 0.254754 0.196736 0.711181 0.70096 -0.0536297 0.0836733 0.960428 0.265665 
-0.817776 -0.55811 0.140553 -0.973953 -0.038059 0.223534 -0.931442 0.100575 0.349714 
0.321618 0.928338 0.186417 0.0564745 -0.986129 -0.15608 0.395781 -0.873214 -0.284348 
-0.967725 0.0121378 0.251718 0.547443 0.836741 -0.0130886 -0.84532 -0.519967 0.122752 
0.409381 -0.867286 -0.283235 -0.957377 -0.192621 0.215237 -0.909903 0.280154 0.305926 
-0.782519 0.491862 0.381753 -0.411785 -0.911116 0.0173217 -0.825093 -0.536715 0.17652 
-0.934752 0.121155 0.334007 -0.485983 0.79327 0.366801 -0.722871 -0.664492 0.189493 
0.254563 -0.94869 -0.187574 0.723842 -0.510056 -0.464646 -0.925199 -0.261309 0.275182 
0.905774 0.246005 -0.345043 -0.363128 0.913592 0.182995 -0.648882 -0.73206 0.207462 
0.450257 -0.857244 -0.249802 0.530481 -0.805044 -0.265505 0.776905 -0.536096 -0.330181 
0.200139 0.979621 -0.0169738 -0.918855 -0.294402 0.262743 0.938658 -0.0426259 -0.342205 
0.900951 -0.40628 -0.152395 -0.486531 -0.822806 0.293732 -0.831272 -0.451065 0.32485 
0.710999 -0.653674 -0.259211 -0.932366 0.106361 0.345517 0.972188 0.139058 -0.188451 
-0.744895 0.6061 0.278879 0.887733 0.419651 -0.18927 0.500005 -0.853907 -0.144354 
-0.83314 -0.416885 0.363435 -0.655218 -0.625806 0.42315 0.653811 -0.748249 -0.112495 
0.997298 -0.0258946 -0.0687483 0.563382 0.808672 -0.169265 0.250857 0.955555 -0.154873 
-0.178781 -0.970119 0.164032 0.256745 -0.966478 0.0013549 -0.555796 -0.720054 0.415467 
-0.849421 -0.279076 0.447885 0.149176 0.957746 -0.245906 -0.170938 -0.965327 0.197293 
0.027031 -0.990375 0.135746 0.870607 -0.491172 -0.028185 -0.872516 0.356076 0.334553 
-0.665925 0.70463 0.245031 -0.206732 0.970934 -0.120621 -0.628652 -0.676214 0.384097 
-0.547634 0.834271 0.0639413 -0.191846 0.954352 -0.228925 0.265608 -0.937356 0.225426 
-0.253676 -0.865949 0.431023 0.579658 -0.813264 0.0509614 0.726835 -0.686443 0.0225245 
0.885432 -0.452185 0.107416 -0.818363 -0.496613 0.289236 -0.565705 -0.670159 0.480484 
0.656367 -0.72805 0.197801 0.963737 -0.260013 0.0600389 -0.919059 -0.249039 0.305466 
-0.827178 -0.306341 0.471097 0.973768 -0.225375 0.0313375 0.866733 0.467996 -0.172491 
-0.213944 0.926804 -0.308646 0.110797 0.948657 -0.296267 0.355898 -0.867177 0.348338 
0.0661145 -0.881627 0.467292 0.789484 -0.57736 0.208254 -0.892685 -0.00996231 0.450572 
-0.896392 0.143064 0.419541 0.987753 0.140056 -0.0687674 -0.47567 0.856779 -0.199164 
-0.442824 -0.635043 0.632952 0.92157 -0.388199 0.00325046 -0.714016 -0.393902 0.578812 
0.893654 -0.400463 0.202513 0.985662 0.138685 -0.0961055 0.77155 0.529833 -0.352118 
0.852838 0.428439 -0.298509 0.983544 0.177006 -0.0361991 -0.856725 0.412376 0.309789 
-0.762477 0.640276 0.0931483 0.480526 0.811039 -0.333631 0.619951 0.719632 -0.312714 
-0.582292 0.80853 -0.0849445 0.12263 0.904241 -0.409036 0.333041 0.865264 -0.374704 
0.244642 -0.870194 0.427683 0.694519 -0.683894 0.223455 -0.83185 0.0111272 0.554889 
-0.680198 -0.277119 0.678628 -0.839061 0.205952 0.503548 -0.0819733 0.950902 -0.29844 
-0.0918455 -0.875813 0.47383 -0.804802 0.0873337 0.587083 -0.830355 0.436136 0.346838 
0.683507 0.654558 -0.323067 -0.840021 0.431965 0.328285 0.115571 -0.902443 0.415019 
0.448455 -0.844019 0.294144 -0.225836 -0.759413 0.610157 0.0445272 -0.802422 0.595094 
0.551359 -0.74597 0.37354 -0.467214 -0.474027 0.746331 -0.585008 -0.294474 0.755679 
-0.829527 0.20447 0.519689 -0.824062 0.450127 0.343959 -0.819809 0.491183 0.294367 
0.364267 0.867307 -0.339247 0.0563194 0.986446 -0.154121 0.32335 -0.793283 0.515894 
-0.339471 -0.569454 0.748653 0.9609 -0.256532 0.104226 0.899224 0.339597 -0.275809 
0.994382 0.104163 -0.018804 0.863772 0.436015 -0.252562 -0.725674 -0.0262865 0.687536 
0.642285 0.647499 -0.41014 0.468159 0.828979 -0.305976 -0.777742 0.518056 0.356001 
-0.411408 0.911432 -0.00585568 -0.160582 0.97638 0.144553 0.551885 -0.68872 0.470199 
-0.0389889 -0.761218 0.647324 -0.569662 -0.324184 0.755242 -0.834233 0.18246 0.520349 
-0.659391 0.365516 0.656964 -0.6024 -0.0948651 0.792537 0.397504 0.890382 -0.221834 
-0.411331 0.861838 0.296719 0.0793834 -0.708613 0.701118 0.983054 0.183305 -0.00209118 
-0.488872 -0.30124 0.818694 0.800906 0.588387 -0.111137 -0.55658 -0.0117419 0.830711 
-0.494888 -0.092501 0.864019 -0.445003 0.617032 0.649033 -0.362893 0.789241 0.495385 
0.0588793 0.996815 0.0537947 0.962772 -0.207805 0.172879 -0.437243 -0.496526 0.749854 
0.946174 -0.123527 0.299158 0.881796 0.0497581 0.468998 0.952031 0.244672 0.183775 
-0.264728 -0.417428 0.869295 0.784094 0.620151 0.0246733 -0.418264 0.682264 0.599642 
-0.454962 0.32334 0.829735 0.461257 0.881243 -0.103213 -0.204522 0.906171 0.370168 
0.234776 0.965945 0.10877 0.590153 -0.545114 0.595457 -0.124766 -0.575048 0.80855 
0.309584 -0.487056 0.816661 0.785641 -0.0547823 0.616252 -0.231054 -0.30574 0.923654 
-0.331056 0.651132 0.682956 -0.433108 0.208537 0.876886 0.760541 -0.0640056 0.646127 
0.834884 0.368644 0.408743 -0.242931 0.0200151 0.969837 0.114996 -0.288854 0.950441 
0.706108 0.660039 0.256437 -0.235235 0.479026 0.845694 0.00726009 0.299562 0.954049 
0.419463 0.888681 0.185197 -0.0747849 0.825428 0.559532 0.543722 0.0673372 0.83656 
0.441618 0.503422 0.742657 0.496639 0.421731 -0.758612 0.107805 -0.205638 -0.972672 
-0.443639 0.164774 -0.880928 0.832939 -0.134 -0.536895 0.0536396 0.906043 -0.419773 
0.787398 0.609812 0.0901868 0.0348097 -0.385886 -0.921889 -0.410342 -0.309897 -0.857661 
0.798957 -0.249334 -0.547267 -0.46789 -0.0199552 -0.883561 -0.582292 -0.0443031 -0.811771 
0.971025 0.236014 -0.0375178 -0.49838 0.515902 -0.696752 0.280416 0.930045 0.237451 
0.942024 -0.243659 -0.230696 0.258776 -0.724705 -0.638622 0.457577 -0.451958 -0.76574 
0.785425 -0.530511 -0.318852 0.160703 -0.414585 -0.895709 -0.121014 -0.573244 -0.810399 
-0.136436 -0.386135 -0.912297 -0.405043 -0.247187 -0.880249 0.514256 -0.294091 -0.805637 
0.838022 -0.185039 -0.513303 -0.192028 -0.293185 -0.936573 0.945318 -0.115111 -0.305161 
0.966742 0.255652 0.0071767 -0.547589 0.295519 -0.782825 0.695526 0.684632 0.217995 
0.802442 -0.542157 -0.249305 -0.289942 -0.542977 -0.788105 -0.478284 -0.342169 -0.808804 
0.99967 0.00941466 -0.0239239 0.770587 0.587609 0.246802 -0.300348 -0.617802 -0.726713 
0.95089 0.277515 0.137087 0.656381 0.647548 0.387098 -0.690044 0.176207 -0.70199 
-0.610664 0.52162 -0.59582 -0.0387423 0.991524 -0.124013 0.237285 0.958659 0.157065 
0.129776 -0.810791 -0.570768 0.976748 -0.193111 -0.0931211 0.969981 0.212324 0.118553 
0.993522 0.0902806 0.0690238 -0.574491 -0.205564 -0.792278 -0.672384 0.516088 -0.530616 
-0.421873 -0.682168 -0.597219 -0.633375 -0.579162 -0.513233 0.982427 0.117427 0.145078 
-0.711107 -0.321157 -0.625448 -0.861046 0.295257 -0.414033 0.71214 0.624449 0.320811 
-0.726776 0.674852 -0.127952 -0.336424 0.917902 -0.210415 0.902275 -0.383559 -0.196932 
-0.891154 0.199159 -0.407652 -0.80939 -0.103605 -0.57806 -0.77406 0.628648 -0.0750527 
-0.47297 0.878275 0.0702346 -0.228037 0.96587 0.122855 0.104236 0.980371 0.167353 
0.743544 -0.588809 -0.316933 0.974582 -0.213285 -0.0685577 0.991459 0.0977187 0.0863713 
-0.900765 0.31071 -0.303448 0.703696 0.64648 0.294748 -0.698593 0.710578 0.0839404 
-0.83097 0.531933 -0.1629 -0.691522 0.720774 0.047767 -0.331508 0.878732 0.343414 
-0.0782201 0.934795 0.346467 -0.296329 -0.71269 -0.635816 0.383886 -0.774641 -0.502557 
0.874944 -0.431122 -0.22047 -0.816911 -0.142635 -0.558849 -0.899136 0.415431 -0.137735 
-0.887207 0.441581 -0.133676 -0.781242 0.623598 0.0280512 0.512196 0.772153 0.376078 
0.336781 0.877611 0.341142 0.2996 -0.874937 -0.380428 -0.0540531 -0.870065 -0.489965 
0.123022 -0.837204 -0.532875 0.542465 -0.787861 -0.29156 0.731681 -0.644713 -0.221332 
0.530492 -0.73806 -0.416949 -0.833766 -0.323475 -0.447436 -0.576492 -0.594548 -0.560509 
-0.765481 -0.199882 -0.611626 -0.899251 -0.292482 -0.325272 -0.803534 -0.348184 -0.482806 
-0.707738 0.193254 -0.67953 -0.882439 -0.213278 -0.419301 -0.774672 0.60487 -0.184432 
-0.648269 0.761189 0.0184291 -0.786862 0.507107 -0.351696 -0.739709 0.663462 0.112465 
-0.585816 0.762674 0.27413 0.322181 0.854208 0.408079 0.888964 -0.450953 -0.0799077 
-0.986628 0.158659 -0.0373156 0.918571 0.350961 0.181804 -0.892421 0.447269 0.0594572 
-0.599727 0.792731 0.109106 -0.386746 0.872414 0.298867 0.0451515 0.929104 0.367051 
-0.080397 -0.939907 -0.33183 0.357554 -0.920439 -0.157945 -0.264152 -0.89325 -0.363769 
-0.630045 -0.65626 -0.41517 -0.93515 0.170132 -0.310725 -0.895725 0.314218 -0.314554 
-0.760078 0.648839 -0.0359099 0.502539 0.798675 0.331019 -0.820295 -0.333153 -0.464892 
-0.346266 -0.861468 -0.371446 0.730328 -0.682882 -0.0171487 -0.781613 0.590319 -0.201505 
-0.0317748 -0.980755 -0.192638 -0.796126 0.537567 -0.277858 -0.735955 0.668348 -0.108078 
0.889266 0.408679 0.205396 -0.341541 -0.921248 -0.186149 0.0598699 -0.988597 -0.138174 