# vtk DataFile Version 4.2
vtk output
ASCII
DATASET POLYDATA
POINTS 1650 float
251.898 187.817 141.558 251.868 187.794 141.591 251.896 187.832 141.594 
251.91 187.791 141.586 251.938 187.829 141.589 255.56 189.369 141.073 
255.763 189.421 141.042 255.603 189.315 141.095 255.774 189.371 141.113 
255.525 189.458 141.153 255.792 189.496 141.078 255.759 189.468 141.049 
255.94 189.48 141.089 255.946 189.507 141.06 256.107 189.537 141.14 
255.973 189.543 141.103 256.137 189.576 141.158 250.285 186.399 141.989 
250.253 186.335 142.017 250.237 186.414 142.02 250.346 186.371 142.015 
250.329 186.45 142.018 251.853 187.7 141.687 251.812 187.803 141.687 
252.022 187.786 141.66 251.992 187.89 141.698 255.841 189.302 141.286 
255.127 189.765 141.513 255.785 189.471 141.206 255.914 189.5 141.155 
256.142 189.526 141.245 256.085 189.631 141.286 256.37 189.581 141.329 
256.295 189.697 141.338 259.54 191.026 142.101 261.206 191.592 142.458 
261.4 191.587 142.516 261.316 191.727 142.571 253.616 155.78 144.123 
253.612 155.744 144.148 253.571 155.813 144.159 253.01 156.745 144.01 
252.982 156.804 144.077 253.038 156.684 144.02 253.611 155.826 144.175 
253.052 156.749 144.056 243.741 180.55 142.952 243.622 180.406 143.003 
243.853 180.646 142.938 243.757 180.523 142.954 243.943 180.686 142.979 
244 180.785 142.985 247.419 183.781 142.762 247.838 184.063 142.609 
247.879 184.298 142.558 248.511 184.713 142.357 250.09 186.271 142.09 
250.342 186.189 142.107 250.552 186.454 142.074 250.259 186.584 142.121 
251.238 187.495 142.017 251.657 187.422 141.88 252.37 187.881 141.772 
256.183 189.082 141.67 255.996 189.518 141.355 256.084 189.898 141.517 
256.846 190.099 141.741 258.969 190.61 142.17 260.22 191.235 142.305 
260.316 191.585 142.4 261.642 191.651 142.635 261.978 191.614 142.798 
261.396 191.968 142.769 253.453 155.872 144.279 253.66 155.837 144.366 
252.872 156.859 144.226 253.097 156.64 144.059 253.066 156.538 144.124 
253.532 155.962 144.242 253.014 156.916 144.235 242.297 178.872 143.545 
242.184 178.821 143.592 243.372 180.135 143.181 244.331 181.004 143.118 
248.056 183.793 142.715 249.866 185.868 142.19 249.289 186.311 142.387 
251.103 186.895 142.078 250.534 187.172 142.224 253.163 188.216 141.832 
252.74 188.66 141.983 254.833 188.2 141.975 256.823 189.109 141.959 
258.006 190.152 142.083 257.408 190.634 142.061 260.891 190.712 142.718 
262.978 191.839 143.309 263.418 191.828 143.526 253.693 155.378 144.764 
253.773 155.623 144.676 253.247 155.897 144.471 253.007 156.274 144.385 
253.293 156.274 144.265 253.57 156.153 144.461 252.844 157.091 144.378 
252.976 157.241 144.543 253.407 156.549 144.473 252.296 157.719 144.887 
252.364 157.633 144.825 238.81 173.406 144.491 240.48 176.915 144.144 
240.836 176.823 144.052 242.223 176.766 143.987 241.877 178.615 143.764 
243.001 179.386 143.426 242.811 179.868 143.542 243.599 180.056 143.326 
243.966 180.648 143.25 243.447 180.39 143.435 243.815 180.762 143.262 
243.961 181.106 143.476 244.154 180.726 143.367 244.749 180.765 143.342 
244.221 181.273 143.239 244.896 181.799 143.208 262.8 191.169 143.384 
254.609 191.515 143.5 255.785 191.387 142.899 263.885 192.041 143.821 
265.143 192.125 144.534 256.88 192.139 143.407 263.311 192.336 143.709 
264.589 192.41 144.269 253.675 154.958 145.236 253.833 154.984 145.299 
253.958 156.056 145.291 252.418 157.347 144.777 253.152 157.202 144.612 
252.51 157.627 144.809 237.222 170.078 145.532 238.491 172.593 144.691 
240.157 176.861 144.3 240.541 177.874 144.322 243.957 180.388 143.506 
243.207 180.669 143.779 243.445 181.258 143.956 250.744 184.459 143.22 
253.4 191.241 143.903 265.679 191.999 144.887 253.736 154.765 145.485 
253.709 154.584 145.72 253.554 154.795 145.502 253.26 155.072 145.378 
253.387 157.166 144.934 252.966 157.896 145.244 252.384 158.202 145.36 
250.244 160.861 147.3 250.257 160.81 147.322 250.229 160.853 147.335 
250.265 160.852 147.306 250.251 160.868 147.329 236.755 166.69 146.341 
237.821 166.909 145.877 237.025 168.388 145.896 237.543 169.389 145.537 
239.254 169.698 145.299 237.7 171.915 145.192 244.681 179.264 143.794 
247.241 186.175 143.82 250.257 188.905 143.586 251.827 190.847 144.67 
265.363 191.592 144.788 266.259 191.85 145.518 266.159 192.291 145.423 
258.047 193.213 144.653 260.811 193.466 144.764 263.966 193.412 145.394 
241 146.009 145.517 241 146.009 145.517 241 146.009 145.517 
241 146.009 145.517 241 146.009 145.517 253.751 154.406 145.989 
254.153 154.648 146.107 254.132 154.889 145.838 239.22 157.365 148.02 
239.177 157.35 148.059 239.192 157.453 148.029 239.267 157.297 148.06 
251.665 156.915 146.009 239.281 157.4 148.029 251.58 157.743 146.001 
253.763 157.234 145.88 251.508 158.268 146.204 253.133 158.034 145.583 
253.429 157.823 145.796 237.93 161.123 147.117 237.904 160.757 147.26 
251.534 158.829 146.422 252.842 158.331 145.691 238.174 161.332 147.026 
250.303 160.632 147.378 250.209 160.762 147.385 250.331 160.811 147.362 
252.5 158.801 146.124 237.943 162.288 146.842 250.216 160.888 147.448 
234 166.009 145.017 234 166.009 145.017 234 166.009 145.017 
234 166.009 145.017 234 166.009 145.017 235.782 168.911 146.661 
236.081 170.266 146.414 242.386 174.275 144.891 247.058 179.254 144.993 
248.195 178.949 146.028 252.499 184.74 143.945 263.879 189.909 145.266 
266.035 191.649 145.365 265.906 191.381 145.462 241 146.009 145.518 
241 146.009 145.518 241 146.009 145.518 241 146.009 145.518 
254.188 154.145 146.867 239.224 157.162 148.173 239.034 157.523 148.133 
239.478 157.256 148.131 239.295 157.673 148.018 237.714 160.439 147.509 
238.335 159.656 147.619 251.093 158.657 146.744 238.492 160.879 147.16 
239.39 160.02 147.472 237.185 161.42 147.397 250.364 160.222 147.392 
250.071 160.559 147.543 250.618 160.536 147.382 253.717 158.812 147.577 
238.731 163.133 146.649 234 166.009 145.017 235.098 168.772 147.296 
235.272 169.137 147.108 244.927 185.344 145.733 255.727 185.004 145.898 
258.341 186.615 145.789 254.81 193.258 146.399 257.305 193.691 145.931 
241 146.009 145.518 241.214 149.806 149.153 241.218 149.819 149.155 
241.221 149.83 149.168 241.202 149.926 149.213 241.247 149.94 149.233 
240.617 152.652 149.278 240.877 152.365 149.304 254.15 153.825 147.366 
254.293 154.028 147.264 254.42 154.165 147.523 252.217 154.411 147.419 
239.381 156.82 148.32 239.445 156.332 148.545 239.748 156.619 148.382 
251.303 155.926 147.199 250.988 157.247 146.946 250.76 158.066 147.079 
238.328 158.802 148.006 250.783 159.559 147.16 251.204 160.286 147.294 
251.839 160.11 147.22 253.037 159.714 147.566 252.109 160.625 147.696 
240 162.554 147.056 249.558 161.647 148.233 250.542 161.539 147.873 
250.022 161.775 148.1 235.462 166.757 147.477 235.051 168.712 147.436 
235.035 169.492 147.579 241.329 182.36 147.15 245.409 186.363 146.431 
249.374 189.992 146.153 268.946 192.222 148.665 268.62 192.547 148.361 
268.837 192.434 148.572 264.958 193.86 147.187 241.223 149.907 149.232 
241.18 150.042 149.267 241.158 150.104 149.306 241.303 150.082 149.385 
241.349 150.247 149.403 241.421 150.269 149.536 241.271 150.525 149.426 
241.032 150.682 149.585 241.545 150.498 149.612 241.219 151.11 149.479 
241.487 150.962 149.525 253.762 152.698 149.027 253.978 152.779 149.003 
240.803 151.914 149.439 241.628 152.632 149.347 253.016 153.452 147.983 
254.187 153.531 147.998 240.663 153.672 149.078 252.713 153.688 147.838 
239.918 153.968 149.28 241.607 153.829 149.113 252.172 153.999 147.986 
239.188 155.813 148.925 248.158 164.919 149.414 248.148 164.961 149.418 
248.158 165.002 149.441 249.233 178.107 147.74 247.523 188.966 147.383 
267.373 190.39 147.999 268.772 192.571 148.624 268.481 192.859 148.711 
268.759 192.678 148.864 252.938 193.011 148.386 259.646 194.299 147.698 
241.157 150.263 149.495 241.244 150.26 149.613 241.153 150.471 149.778 
240.665 151.237 149.77 254.073 152.689 149.332 240.304 151.728 149.899 
239.896 152.134 150.161 240.556 151.807 149.606 254.176 152.757 149.417 
239.976 153.249 149.491 241.723 154.999 148.931 238.339 156.237 149.322 
238.331 155.791 149.663 251.705 162.263 148.801 248.779 162.912 148.936 
250.124 162.883 148.833 250.775 163.185 149.12 248.136 164.943 149.417 
248.103 164.872 149.416 248.416 164.998 149.523 248.172 165.223 149.538 
247.543 166.459 149.667 272.504 189.004 149.017 272.504 189.004 149.018 
272.504 189.004 149.017 272.505 189.004 149.017 272.505 189.004 149.017 
272.505 189.004 149.018 272.504 189.004 149.017 272.505 189.005 149.018 
268.12 190.413 148.747 268.895 191.195 148.84 249.708 191.353 149.047 
269.134 191.439 149.032 269.489 191.968 149.598 269.553 192.059 149.89 
251.852 192.588 148.747 241.334 150.4 149.854 240.966 150.907 150.533 
244.645 149.003 150.351 244.645 149.003 150.351 244.644 149.003 150.351 
244.645 149.003 150.351 244.645 149.003 150.351 244.645 149.003 150.351 
239.935 151.707 150.655 240.274 151.409 150.462 242.768 151.535 150.494 
244.645 149.003 150.351 244.645 149.003 150.351 253.383 152.498 149.461 
253.463 152.37 149.775 253.705 152.354 150.043 239.635 152.25 150.467 
239.443 152.486 150.685 254.262 152.678 150.113 254.404 152.889 150.016 
254.553 153.222 150.072 243.165 153.698 149.696 248.667 159.198 148.529 
235.438 160.904 150.379 243.513 162.398 148.521 248.012 162.778 149.017 
247.341 164.039 149.234 248.903 164.958 149.627 269.326 190.412 149.974 
272.504 189.004 149.018 272.505 189.004 149.018 269.471 191.257 149.588 
269.782 191.379 150.098 269.977 191.301 150.491 250.736 192.039 149.616 
268.719 192.824 149.791 269.441 192.27 150.359 267.147 193.506 149.31 
257.194 193.915 149.847 260.979 194.449 149.523 261.344 194.458 149.727 
241.071 151.082 151.173 241.676 150.763 150.531 242.318 151.062 150.814 
244.644 149.003 150.351 244.645 149.003 150.351 244.645 149.003 150.351 
244.645 149.003 150.351 243.424 151.476 151.392 244.596 152.177 151.126 
[...]
POINT_DATA 1650
SCALARS scalars float
LOOKUP_TABLE default
1 1 1 1 1 1 1 1 1 
1 1 1 1 1 1 1 1 1 
1 1 1 1 1 1 1 1 1 
1 1 1 1 1 1 1 1 1 
1 1 1 1 1 1 1 1 1 
1 1 1 1 1 1 1 1 1 
1 1 1 1 1 1 1 1 1 
1 1 1 1 1 1 1 1 1 
1 1 1 1 1 1 1 1 1 
1 1 1 1 1 1 1 1 1 
1 1 1 1 1 1 1 1 1 
1 1 1 1 1 1 1 1 1 
1 1 1 1 1 1 1 1 1 
1 1 1 1 1 1 1 1 1 
1 1 1 1 1 1 1 1 1 
1 1 1 1 1 1 1 1 1 
1 1 1 1 1 1 1 1 1 
1 1 1 1 1 1 1 1 1 
1 1 1 1 1 1 1 1 1 
1 1 1 1 1 1 1 1 1 
1 1 1 1 1 1 1 1 1 
1 1 1 1 1 1 1 1 1 
1 1 1 1 1 1 1 1 1 
1 1 1 1 1 1 1 1 1 
1 1 1 1 1 1 1 1 1 
1 1 1 1 1 1 1 1 1 
1 1 1 1 1 1 1 1 1 
1 1 1 1 1 1 1 1 1 
1 1 1 1 1 1 1 1 1 
1 1 1 1 1 1 1 1 1 
1 1 1 1 1 1 1 1 1 
1 1 1 1 1 1 1 1 1 
1 1 1 1 1 1 1 1 1 
1 1 1 1 1 1 1 1 1 
1 1 1 1 1 1 1 1 1 
1 1 1 1 1 1 1 1 1 
1 1 1 1 1 1 1 1 1 
1 1 1 1 1 1 1 1 1 
1 1 1 1 1 1 1 1 1 
1 1 1 1 1 1 1 1 1 
1 1 1 1 1 1 1 1 1 
1 1 1 1 1 1 1 1 1 
1 1 1 1 1 1 1 1 1 
1 1 1 1 1 1 1 1 1 
1 1 1 1 1 1 1 1 1 
1 1 1 1 1 1 1 1 1 
1 1 1 1 1 1 1 1 1 
1 1 1 1 1 1 1 1 1 
1 1 1 1 1 1 1 1 1 
1 1 1 1 1 1 1 1 1 
1 1 1 1 1 1 1 1 1 
1 1 1 1 1 1 1 1 1 
1 1 1 1 1 1 1 1 1 
1 1 1 1 1 1 1 1 1 
1 1 1 1 1 1 1 1 1 
1 1 1 1 1 1 1 1 1 
1 1 1 1 1 1 1 1 1 
1 1 1 1 1 1 1 1 1 
1 1 1 1 1 1 1 1 1 
1 1 1 1 1 1 1 1 1 
1 1 1 1 1 1 1 1 1 
1 1 1 1 1 1 1 1 1 
1 1 1 1 1 1 1 1 1 
1 1 1 1 1 1 1 1 1 
1 1 1 1 1 1 1 1 1 
1 1 1 1 1 1 1 1 1 
1 1 1 1 1 1 1 1 1 
1 1 1 1 1 1 1 1 1 
1 1 1 1 1 1 1 1 1 
1 1 1 1 1 1 1 1 1 
1 1 1 1 1 1 1 1 1 
1 1 1 1 1 1 1 1 1 
1 1 1 1 1 1 1 1 1 
1 1 1 1 1 1 1 1 1 
1 1 1 1 1 1 1 1 1 
1 1 1 1 1 1 1 1 1 
1 1 1 1 1 1 1 1 1 
1 1 1 1 1 1 1 1 1 
1 1 1 1 1 1 1 1 1 
1 1 1 1 1 1 1 1 1 
1 1 1 1 1 1 1 1 1 
1 1 1 1 1 1 1 1 1 
1 1 1 1 1 1 1 1 1 
1 1 1 1 1 1 1 1 1 
1 1 1 1 1 1 1 1 1 
1 1 1 1 1 1 1 1 1 
1 1 1 1 1 1 1 1 1 
1 1 1 1 1 1 1 1 1 
1 1 1 1 1 1 1 1 1 
1 1 1 1 1 1 1 1 1 
1 1 1 1 1 1 1 1 1 
1 1 1 1 1 1 1 1 1 
1 1 1 1 1 1 1 1 1 
1 1 1 1 1 1 1 1 1 
1 1 1 1 1 1 1 1 1 
1 1 1 1 1 1 1 1 1 
1 1 1 1 1 1 1 1 1 
1 1 1 1 1 1 1 1 1 
1 1 1 1 1 1 1 1 1 
1 1 1 1 1 1 1 1 1 
1 1 1 1 1 1 1 1 1 
1 1 1 1 1 1 1 1 1 
1 1 1 1 1 1 1 1 1 
1 1 1 1 1 1 1 1 1 
1 1 1 1 1 1 1 1 1 
1 1 1 1 1 1 1 1 1 
1 1 1 1 1 1 1 1 1 
1 1 1 1 1 1 1 1 1 
1 1 1 1 1 1 1 1 1 
1 1 1 1 1 1 1 1 1 
1 1 1 1 1 1 1 1 1 
1 1 1 1 1 1 1 1 1 
1 1 1 1 1 1 1 1 1 
1 1 1 1 1 1 1 1 1 
1 1 1 1 1 1 1 1 1 
1 1 1 1 1 1 1 1 1 
1 1 1 1 1 1 1 1 1 
1 1 1 1 1 1 1 1 1 
1 1 1 1 1 1 1 1 1 
1 1 1 1 1 1 1 1 1 
1 1 1 1 1 1 1 1 1 
1 1 1 1 1 1 1 1 1 
1 1 1 1 1 1 1 1 1 
1 1 1 1 1 1 1 1 1 
1 1 1 1 1 1 1 1 1 
1 1 1 1 1 1 1 1 1 
1 1 1 1 1 1 1 1 1 
1 1 1 1 1 1 1 1 1 
1 1 1 1 1 1 1 1 1 
1 1 1 1 1 1 1 1 1 
1 1 1 1 1 1 1 1 1 
1 1 1 1 1 1 1 1 1 
1 1 1 1 1 1 1 1 1 
1 1 1 1 1 1 1 1 1 
1 1 1 1 1 1 1 1 1 
1 1 1 1 1 1 1 1 1 
1 1 1 1 1 1 1 1 1 
1 1 1 1 1 1 1 1 1 
1 1 1 1 1 1 1 1 1 
1 1 1 1 1 1 1 1 1 
1 1 1 1 1 1 1 1 1 
1 1 1 1 1 1 1 1 1 
1 1 1 1 1 1 1 1 1 
1 1 1 1 1 1 1 1 1 
1 1 1 1 1 1 1 1 1 
1 1 1 1 1 1 1 1 1 
1 1 1 1 1 1 1 1 1 
1 1 1 1 1 1 1 1 1 
1 1 1 1 1 1 1 1 1 
1 1 1 1 1 1 1 1 1 
1 1 1 1 1 1 1 1 1 
1 1 1 1 1 1 1 1 1 
1 1 1 1 1 1 1 1 1 
1 1 1 1 1 1 1 1 1 
1 1 1 1 1 1 1 1 1 
1 1 1 1 1 1 1 1 1 
1 1 1 1 1 1 1 1 1 
1 1 1 1 1 1 1 1 1 
1 1 1 1 1 1 1 1 1 
1 1 1 1 1 1 1 1 1 
1 1 1 1 1 1 1 1 1 
1 1 1 1 1 1 1 1 1 
1 1 1 1 1 1 1 1 1 
1 1 1 1 1 1 1 1 1 
1 1 1 1 1 1 1 1 1 
1 1 1 1 1 1 1 1 1 
1 1 1 1 1 1 1 1 1 
1 1 1 1 1 1 1 1 1 
1 1 1 1 1 1 1 1 1 
1 1 1 1 1 1 1 1 1 
1 1 1 1 1 1 1 1 1 
1 1 1 1 1 1 1 1 1 
1 1 1 1 1 1 1 1 1 
1 1 1 1 1 1 1 1 1 
1 1 1 1 1 1 1 1 1 
1 1 1 1 1 1 1 1 1 
1 1 1 1 1 1 1 1 1 
1 1 1 1 1 1 1 1 1 
1 1 1 1 1 1 1 1 1 
1 1 1 1 1 1 1 1 1 
1 1 1 1 1 1 1 1 1 
1 1 1 1 1 1 1 1 1 
1 1 1 1 1 1 1 1 1 
1 1 1 
NORMALS Normals float
-0.118727 0.169931 -0.978278 -0.700304 -0.175878 -0.691839 -0.399889 0.835742 -0.376329 
0.255637 -0.643093 -0.72186 0.500788 0.390273 -0.772592 -0.23317 -0.0774089 -0.96935 
0.171541 -0.44276 -0.880078 0.225529 -0.640231 -0.73433 0.48889 -0.792613 -0.364351 
-0.226545 0.852399 -0.471268 -0.214198 0.963365 -0.161389 -0.183798 0.579523 -0.793959 
0.395551 -0.888728 -0.231736 0.269859 0.0782961 -0.959711 0.495313 -0.594994 -0.632967 
-0.175902 0.916266 -0.359881 0.370264 0.43515 -0.820701 -0.0735653 0.06802 -0.994968 
-0.165343 -0.344375 -0.924158 -0.458441 0.312502 -0.83197 0.289234 -0.230351 -0.92913 
0.0755525 0.438915 -0.895346 -0.221645 -0.620592 -0.752156 -0.593268 0.313869 -0.741295 
0.462977 -0.33719 -0.819729 0.0852283 0.542227 -0.835898 0.585491 -0.463243 -0.665287 
-0.220547 0.610515 -0.760678 0.316591 0.948496 0.011176 -0.168048 0.960461 0.221979 
0.129608 -0.971187 0.199992 -0.275991 -0.478858 0.833381 0.558879 -0.595234 -0.577365 
0.0754337 0.70009 -0.710059 0.126654 0.0838353 -0.988398 0.100204 0.483893 -0.869372 
0.378044 -0.104185 -0.919907 0.245706 0.623899 -0.741875 0.768622 0.0724835 -0.635583 
-0.478968 -0.565288 -0.671594 -0.476278 0.208685 -0.854172 -0.538348 0.0237851 -0.842387 
-0.0305408 0.770736 -0.636423 0.252832 -0.188864 -0.948897 0.533036 0.629489 -0.565347 
0.704399 0.454698 -0.545043 -0.616518 0.477533 -0.625993 -0.530804 0.0539915 -0.845773 
0.127015 -0.0363181 -0.991236 0.366066 -0.53321 -0.762682 0.615526 -0.526994 -0.586007 
-0.00608907 0.347967 -0.937487 -0.280114 -0.0580897 -0.958208 -0.0431934 -0.275075 -0.960452 
-0.301858 -0.00427837 -0.953343 -0.041959 -0.192832 -0.980334 -0.348097 -0.0366961 -0.93674 
0.173694 -0.446313 -0.877858 0.278899 -0.0750143 -0.957386 -0.304859 0.417691 -0.855918 
-0.419748 0.106423 -0.90138 -0.0651686 -0.45911 -0.885986 0.222993 -0.354087 -0.908238 
0.462365 -0.510576 -0.724935 0.187283 -0.100093 -0.977193 -0.215377 0.667533 -0.71275 
0.0407478 0.637909 -0.769033 0.171538 -0.284848 -0.943099 0.290862 -0.274556 -0.916525 
0.0470862 0.527615 -0.848178 0.434221 -0.163585 -0.885829 0.422165 0.282944 -0.861231 
0.148687 0.664732 -0.732137 -0.629538 -0.134748 -0.765196 0.890244 0.369996 -0.265649 
-0.590061 0.386916 -0.708607 0.526092 -0.145182 -0.837944 -0.351053 -0.574191 -0.739639 
0.325134 0.455782 -0.828584 0.300137 0.685118 -0.663725 -0.15876 -0.181289 -0.970531 
-0.517086 0.228183 -0.824957 -0.540937 0.100605 -0.835025 0.307141 -0.182241 -0.934052 
0.148028 -0.358737 -0.921627 -0.0266282 -0.232586 -0.972211 -0.418126 0.206114 -0.884696 
0.0558267 -0.228524 -0.971936 -0.390766 0.292552 -0.872763 -0.128162 0.0618127 -0.989825 
-0.246091 0.444099 -0.861519 0.217381 -0.606923 -0.764454 0.358397 -0.532527 -0.766789 
0.311457 -0.117494 -0.942969 0.0129823 0.354133 -0.935105 0.330856 -0.438099 -0.835825 
0.245707 0.369895 -0.895994 0.493383 0.0317588 -0.869232 0.337046 -0.712736 -0.615149 
0.927032 -0.0852193 -0.36517 -0.667722 -0.404988 -0.624606 -0.569361 -0.51934 -0.63727 
0.203353 -0.10935 -0.97298 0.819296 0.349445 -0.454579 -0.142224 0.596416 -0.789975 
0.295348 0.772164 -0.562612 0.78321 0.365775 -0.502784 -0.483555 0.410577 -0.773047 
-0.304557 0.247116 -0.91988 -0.675996 0.221246 -0.702908 -0.34607 -0.0220448 -0.93795 
-0.187115 -0.113251 -0.975788 0.0694376 -0.281446 -0.957062 -0.404232 0.0430185 -0.913644 
-0.145936 -0.12786 -0.980997 -0.573989 0.36436 -0.733334 0.648812 -0.302207 -0.698365 
0.439941 -0.765133 0.470131 -0.793905 0.455482 -0.402804 -0.011999 -0.120428 0.992649 
-0.301619 -0.423983 0.85397 -0.423394 -0.873968 -0.238573 0.0973102 -0.451834 -0.886779 
-0.460578 0.374426 -0.804781 0.0254465 -0.111518 -0.993437 0.465836 -0.4387 -0.768465 
-0.33246 0.831661 -0.444758 -0.216079 0.684407 -0.696345 0.49166 0.0539051 -0.869117 
0.527263 -0.000763571 -0.849702 -0.0939649 0.742617 -0.663092 0.131917 0.613818 -0.778348 
0.450388 0.509009 -0.733526 0.0249789 -0.762633 -0.646349 0.604372 -0.591689 -0.533515 
0.941841 0.193051 -0.275077 -0.615133 0.110537 -0.780636 0.659307 0.582877 -0.474941 
-0.0833403 0.530421 -0.843628 -0.501418 -0.136105 -0.854433 -0.149888 -0.197987 -0.968677 
-0.592213 0.0520787 -0.804096 -0.639671 0.311877 -0.702533 -0.125309 0.122209 -0.984562 
-0.525023 0.38517 -0.758944 -0.605467 0.337337 -0.720842 0.33243 -0.53387 -0.777478 
-0.371915 0.740207 -0.560154 0.6436 -0.0635127 -0.762722 0.17109 -0.780906 -0.600761 
0.249176 -0.791131 -0.55859 -0.367711 -0.752067 -0.546977 -0.426659 -0.750284 -0.505011 
0.707202 0.580281 -0.403906 0.438125 0.656469 -0.614081 -0.239195 0.64875 -0.722433 
-0.387392 0.42643 -0.817365 -0.206759 -0.387398 -0.898428 -0.88308 0.2539 -0.394595 
0.57006 0.300561 -0.764653 0.110969 0.975233 -0.191326 -0.429878 -0.185974 -0.883526 
-0.00399739 -0.232264 -0.972644 -0.463842 -0.170503 -0.869355 -0.325147 -0.179837 -0.928406 
-0.0152319 -0.244223 -0.9696 -0.446055 -0.0460722 -0.893819 0.22107 -0.310522 -0.924502 
-0.631822 0.525275 -0.569988 -0.493574 0.561714 -0.663974 -0.469764 0.813094 -0.343803 
0.501216 -0.491568 -0.71214 0.74867 -0.229219 -0.622055 0.647459 0.439649 -0.622499 
-0.0957336 0.891606 -0.442577 0.0613685 0.872437 -0.484858 0.0896267 0.859786 -0.502728 
0.140425 -0.109796 -0.983985 -0.29653 -0.833524 -0.466163 -0.694972 0.302182 -0.652457 
0.873464 -0.419362 -0.247379 0.447768 0.793315 -0.4125 -0.0810014 -0.845044 -0.528527 
0.838854 -0.414927 -0.352364 0.928566 -0.188541 -0.319715 -0.184998 -0.275797 -0.943245 
-0.569196 -0.404702 -0.715704 -0.354295 -0.00233817 -0.935131 -0.00439422 -0.52691 -0.84991 
-0.832607 -0.238856 -0.499713 0.215124 -0.121822 -0.968959 -0.861671 0.150686 -0.484579 
0.833765 0.399024 -0.381596 -0.786658 0.0963917 -0.609817 0.640252 0.635602 -0.431379 
0.772631 0.487057 -0.407206 -0.364812 -0.247143 -0.897682 -0.18418 -0.410723 -0.892964 
-0.404464 0.455083 -0.793289 0.485315 0.706997 -0.514417 -0.127451 -0.225542 -0.965861 
-0.212486 -0.192649 -0.957985 -0.781928 -0.114126 -0.612833 0.667122 0.410662 -0.621535 
0.113191 0.73785 -0.665406 -0.065068 -0.217031 -0.973994 -0.35028 0.703409 -0.618482 
0 0 -1 -0.894427 -0.447214 0 -1 0 0 
1 0 0 0 0.447214 -0.894427 -0.603236 -0.126681 -0.787438 
-0.678517 0.0554168 -0.732491 0.30454 -0.297 -0.905011 0.388001 -0.580934 -0.715521 
0.446682 -0.44531 -0.775999 0.309663 -0.636476 -0.706405 0.461426 -0.666317 -0.585754 
0.655209 -0.424296 -0.625039 0.592338 -0.544305 -0.594026 0.321537 -0.809896 0.490594 
-0.81872 -0.511599 0.260701 0.668455 0.386933 0.635178 -0.47612 0.754503 0.451703 
0.762523 -0.518828 -0.386493 -0.4211 -0.579285 -0.697928 -0.576794 -0.289882 -0.763726 
0.121043 -0.353452 -0.927588 -0.0197538 -0.0970346 -0.995085 -0.380296 -0.400872 -0.833472 
-0.394659 -0.348532 -0.850159 -0.529761 0.175478 -0.829795 0.06642 -0.289 -0.955022 
0.0601863 -0.238878 -0.969183 -0.567585 -0.260914 -0.780879 -0.289294 0.0909912 -0.952906 
-0.658138 0.00540827 -0.752878 0.112148 0.321832 -0.940131 0.796025 0.485716 -0.361143 
-0.0118829 -0.228039 -0.97358 0 0 1 -0.783113 -0.219064 -0.582017 
-0.653653 0.280333 -0.702959 -0.732111 0.449539 -0.511789 0.319982 -0.590454 -0.740929 
0.391392 -0.677175 -0.623094 -0.277307 0.933869 -0.225811 -0.207452 0.89135 -0.403062 
-0.125072 -0.126021 0.984112 -0.0270617 -0.871945 0.488855 0.595845 0.117445 -0.794465 
0.841602 -0.428629 0.328608 -0.953772 -0.0168563 -0.300058 0.964364 -0.224207 -0.140478 
-0.214471 -0.280524 -0.935579 -0.473872 -0.261763 -0.840789 0.630808 -0.698332 -0.338253 
0.815801 -0.517118 -0.258953 0.935431 -0.295393 -0.194196 -0.559565 -0.601564 -0.570095 
-0.367553 -0.449569 -0.814121 -0.0756323 -0.519019 -0.85141 -0.02658 -0.471892 -0.881256 
-0.752255 -0.37961 -0.538525 -0.863236 -0.16807 -0.475999 -0.776799 -0.123644 -0.617491 
-0.56199 -0.294285 -0.773022 -0.221042 0.301413 -0.927519 -0.0160525 0.466169 -0.88455 
0.144101 0.60707 -0.781474 0.568656 0.716554 -0.403956 0.415662 0.663961 -0.621596 
0.259462 -0.189541 -0.946971 -0.373388 0.3268 -0.868207 0.119695 0.557505 -0.8215 
-0.0763506 0.585854 -0.806812 -0.895247 -0.171839 -0.411101 -0.822751 -0.404807 -0.399013 
-0.89844 0.215619 -0.382511 -0.734274 0.472054 -0.487859 -0.733343 0.613709 -0.292523 
-0.592084 0.739203 -0.320961 0.852035 0.164398 -0.497001 0.667656 0.526629 -0.52621 
0.826864 0.360187 -0.431927 0.260561 0.942303 -0.210176 -0.0168401 -0.709477 0.704527 
-0.908952 -0.029033 -0.415889 -0.926576 -0.0674807 -0.370004 0.613462 -0.736306 0.285513 
0.832799 -0.0695587 -0.549188 0.805422 -0.542765 -0.23812 0.0684436 0.242775 -0.967665 
-0.852078 -0.236295 -0.467041 0.666782 -0.0710611 -0.741857 -0.233878 -0.0263936 -0.971908 
0.385237 -0.0397573 -0.921961 0.198276 -0.870201 -0.451041 0.641753 -0.674312 -0.365317 
-0.191745 -0.203596 -0.960095 0.250013 -0.195631 -0.948273 -0.317179 -0.789096 -0.526047 
0.659382 -0.660621 -0.358881 -0.207822 -0.0428445 -0.977228 -0.367418 -0.715569 -0.594109 
-0.388847 -0.143783 -0.910013 0.112098 -0.070081 -0.991223 -0.549761 -0.672838 -0.495028 
-0.358912 -0.45306 -0.816038 0.00782617 0.165696 -0.986146 -0.046512 0.326481 -0.944059 
-0.372371 0.49308 -0.786265 0.499887 -0.632024 -0.592165 -0.636105 0.719966 -0.277523 
0.489315 -0.690135 -0.533183 0.775044 0.575318 -0.261374 0.488478 0.850218 -0.196262 
0.715709 0.652685 -0.248522 -0.406086 0.871914 -0.273607 -0.0545837 0.994203 -0.0926375 
-0.819813 -0.443096 0.36273 -0.382268 -0.712869 0.587954 -0.681769 -0.66617 0.302338 
-0.649292 -0.331758 -0.684366 0.525026 -0.809502 -0.262781 -0.761745 -0.343781 -0.549144 
-0.731762 -0.325975 -0.598552 -0.610256 -0.184545 -0.77041 0.768481 -0.586045 -0.256883 
-0.651312 -0.350323 -0.673102 0.131484 -0.229885 -0.964295 -0.706751 -0.383728 -0.594353 
-0.764216 -0.437973 -0.473448 0.304443 0.587386 -0.749862 -0.0491282 0.397573 -0.916254 
-0.0878808 0.579257 -0.810394 0.15685 0.541593 -0.825878 -0.517922 0.303872 -0.799636 
-0.335841 0.37505 -0.864031 0.317861 0.286155 -0.903925 0.181509 0.372521 -0.9101 
0.387866 0.0547705 -0.920087 -0.159048 -0.424954 -0.891133 -0.394368 -0.847947 0.354202 
-0.982288 0.0159438 -0.186696 0.379788 0.46908 -0.797324 0.426666 -0.802874 -0.416353 
0.983042 0.14661 0.110157 -0.207595 0.849265 -0.485442 0.148333 0.886168 0.43898 
0.571282 -0.679301 -0.460639 0.734993 -0.37573 -0.564457 -0.574084 0.8074 -0.136133 
0.81759 -0.301794 -0.490374 0.881579 0.196608 -0.429144 0.892221 0.425049 -0.152561 
-0.372714 0.926167 0.057432 -0.331714 -0.787915 0.518802 -0.406161 -0.839066 0.361941 
0.0647428 -0.719177 0.691805 0.0165096 -0.693309 0.720451 0 -0.707107 0.707107 
0.0933 -0.7464 0.658925 0.0228708 -0.708364 0.705476 -0.152129 -0.634171 0.758079 
-0.769864 -0.62056 -0.149046 -0.712854 -0.700094 -0.0413292 0.569457 -0.458018 -0.682597 
0.0176298 0.687587 -0.725888 0.0670136 0.646824 -0.759689 -0.143134 -0.901596 -0.408214 
0.14492 -0.930757 -0.335693 0.354469 -0.911091 -0.210391 -0.829836 -0.468082 -0.303763 
-0.819736 -0.364688 -0.441628 0.739876 -0.672238 -0.0260751 0.874936 -0.48245 -0.0415777 
0.929118 -0.355059 -0.10331 0.392225 -0.215126 -0.894361 -0.471218 -0.097019 -0.876665 
-0.889911 -0.374141 -0.260914 0.208437 -0.0208835 -0.977813 -0.0595587 0.168599 -0.983884 
0.0359209 0.193641 -0.980415 0.1697 0.398276 -0.901431 0.750206 -0.474706 -0.460266 
-0.442551 0.454401 0.77309 0.208657 -0.392072 0.895959 0.793477 -0.261164 -0.549716 
0.898349 -0.0564157 -0.435645 0.903215 -0.119957 -0.412083 -0.462374 0.859003 0.219826 
0.542755 0.839824 -0.01064 0.846599 0.524929 0.0878579 0.280456 0.959809 0.0105029 
-0.228958 0.95525 0.187285 -0.174445 0.951922 0.251819 0.0160115 0.999768 -0.0144257 
-0.192154 -0.869408 0.4552 0.178685 -0.884894 0.430157 0.451443 -0.891993 0.0234155 
-0.031993 -0.674027 0.738013 -0.0340254 -0.665165 0.745921 -0.0816779 -0.652752 0.753156 
-0.13551 -0.629545 0.765055 0.355425 -0.901927 -0.24536 0.299147 -0.731166 -0.613113 
0.105212 0.626728 -0.772103 -0.147066 -0.938151 -0.31344 -0.81173 -0.581928 0.0495393 
0.342501 -0.342669 -0.874798 -0.489539 -0.422218 -0.762944 -0.360612 -0.557284 -0.747926 
-0.881677 -0.407505 -0.237877 0.152807 -0.102534 -0.982923 -0.0809925 0.0146952 -0.996606 
0.593913 -0.44784 -0.668361 0.617553 -0.717555 -0.322092 0.822776 -0.413897 -0.389524 
0.795076 -0.547809 -0.260308 0.997239 -0.01375 -0.0729688 0.908847 0.416282 0.0265744 
0.633028 0.740208 0.226643 0.30838 0.931791 0.191487 -0.267261 0.534522 0.801784 
0 0 0 -0.707107 0 0.707107 -0.51497 -0.799258 -0.309827 
-0.789869 -0.458189 0.40764 -0.446055 -0.838328 -0.313436 -0.723352 -0.648556 0.236935 
-0.420768 -0.84806 -0.3221 0.721303 0.0688795 -0.689186 0.726335 0.0989946 -0.680175 
0 -0.707107 -0.707107 0 -0.707107 0.707107 -0.456699 -0.807211 0.373948 
0.185968 -0.937333 -0.294657 0.0765803 -0.902821 -0.423142 0.655637 -0.754065 -0.0390488 
0.0663976 -0.543839 -0.836559 -0.103012 -0.370294 -0.923185 0.554498 0.355092 -0.752623 
-0.63456 0.772443 -0.0258031 0.899346 -0.4369 -0.0171881 0.9942 -0.0664832 0.0845334 
-0.153449 0.939548 0.306109 -0.00248322 0.956676 0.291145 0.707107 0.707107 0 
0.568352 0.800539 0.190036 0.533646 0.813987 0.229449 0.0530833 -0.997699 0.0421747 
0.625649 -0.77651 0.0748104 0.17397 -0.929188 -0.326106 0.0703511 -0.92802 -0.365827 
-0.021545 -0.999024 -0.0385664 -0.0791437 -0.943435 -0.321974 -0.834752 -0.548676 0.0462991 
-0.231617 -0.781569 -0.579227 -0.889545 -0.450339 -0.076838 0.968137 0.1408 -0.207091 
0.926069 0.197108 -0.321785 -0.726783 0.646572 -0.231799 -0.501438 0.844715 -0.187129 
0.299956 -0.953606 0.0257367 0.112038 -0.989004 -0.096529 0.950378 -0.311085 -0.00288069 
-0.926961 -0.324113 -0.188927 -0.547536 0.834511 -0.0616136 0.936153 0.304823 0.175213 
0.780658 -0.596226 0.187317 0.973875 -0.0637103 -0.217966 0.863325 0.0691628 -0.499887 
-0.470022 0.880164 -0.0662617 0.391796 -0.897866 0.20083 0.0574077 -0.935908 0.347536 
-0.44776 -0.770711 0.453338 0.953365 -0.0836471 -0.289997 0.754029 -0.0232477 -0.65643 
0.779309 -0.0130946 -0.626502 0.62712 -0.0665919 -0.776071 0.668315 0.0217945 -0.743559 
0.839683 -0.517245 -0.1655 0.380831 -0.881459 0.279281 0.922479 -0.017746 -0.385638 
0.847918 -0.119889 -0.516393 0.739335 -0.0944883 -0.666676 0.733905 -0.342351 -0.586667 
0.639655 -0.618272 -0.456708 -0.382154 0.917485 0.110362 0.958207 -0.269694 -0.0954145 
0.981549 -0.189842 -0.022862 0.16763 0.909433 0.380568 -0.733577 -0.560877 0.383772 
-0.803056 -0.556844 0.212194 -0.934405 -0.355283 0.0257087 0.937396 -0.0518868 -0.344379 
0.838663 -0.516118 -0.173972 -0.681328 -0.571226 0.457704 -0.385705 0.922148 -0.0295624 
0.493695 0.820462 0.288283 0.884046 -0.296598 -0.361237 0.781877 -0.254585 -0.569082 
0.972506 0.222414 0.0690193 0.328323 0.857194 0.396765 0.540844 -0.7886 0.292572 
-0.922622 0.161921 -0.350072 0.739369 0.633319 0.228564 -0.944377 -0.0154074 -0.328504 
-0.554945 0.805248 -0.208833 0.479597 -0.835163 0.269239 0.576428 -0.768345 0.278166 
0.831012 -0.546292 0.104804 -0.360859 -0.772794 0.522083 -0.728535 0.64996 -0.216308 
-0.551729 0.819991 -0.152351 -0.987024 0.158638 0.0248332 -0.241133 0.970482 -0.00430879 
-0.678095 0.706645 -0.202089 -0.715169 -0.630214 -0.302265 -0.778925 0.130285 -0.613434 
0.693989 -0.570645 -0.439026 0.929812 -0.322695 -0.176969 0.905431 -0.201464 -0.37364 
0.952278 -0.270731 -0.140964 0.143392 -0.877779 0.457103 -0.970253 0.163742 -0.178317 
-0.679017 0.733168 -0.0374326 -0.524492 0.802736 -0.283766 -0.707226 0.664061 -0.242601 
-0.266045 0.938232 -0.221223 -0.291473 0.952723 0.0858085 -0.267435 0.962658 -0.0420573 
0.660637 -0.741383 0.117936 0.429184 -0.85461 0.292305 0.702543 -0.43703 -0.561639 
0.941303 0.016431 -0.337162 0.818838 0.537706 -0.20094 0.365267 -0.818897 -0.442706 
-0.381116 -0.920521 0.0859779 0.987391 0.124398 -0.0978994 0.973615 -0.228183 -0.00269608 
0.551487 0.751891 0.361279 0.452938 0.849551 0.270389 0.357146 0.798829 0.484065 
-0.953118 -0.26727 -0.141891 -0.996537 -0.0717705 0.041977 -0.964607 0.233487 -0.122546 
0.722722 -0.377959 -0.578636 -0.134538 0.990607 0.024437 0.735997 -0.337757 -0.58671 
-0.15103 0.985537 -0.0768569 0.65946 -0.445057 -0.605835 -0.477883 0.876893 0.05183 