# vtk DataFile Version 4.2
vtk output
ASCII
DATASET POLYDATA
POINTS 1251 float
408.797 215.399 95.6073 407.043 217.387 95.9351 407.59 218.189 95.9355 
410.199 210.735 96.1585 419.628 211.951 96.2726 405.124 216.968 96.5011 
406.293 219.87 96.6127 407.991 220.195 96.3656 410.654 220.592 96.3045 
403.391 213.094 97.5935 406.401 208.261 98.2645 424.819 217.44 98.1979 
402.085 222.174 98.7028 424.335 206.3 98.7054 399.451 218.842 99.4369 
404.629 226.828 99.6845 402.409 226.747 100.733 414.715 227.569 99.4897 
422.786 199.264 101.237 414.951 200.708 100.846 406.97 203.888 100.769 
397.89 211.596 101.819 396.841 216.643 101.409 396.734 218.958 101.516 
420.222 197.896 101.639 436.736 212.134 103.402 434.868 213.951 102.248 
401.577 227.358 102.201 403.596 229.54 102.313 407.393 232.146 102.095 
406.34 232.132 102.563 426.967 198.685 102.747 400.023 205.943 103.476 
396.364 211.867 103.848 395.462 215.662 103.172 395.117 217.342 103.372 
395.444 219.607 103.034 400.311 226.61 103.19 400.736 227.027 103.46 
403.911 230.284 102.934 405.706 232.077 103.085 406.509 232.892 103.305 
418.277 234.043 102.977 409.809 234.891 103.457 411.62 235.24 103.277 
424.137 191.566 104.737 426.177 192.949 104.812 428.167 195.956 104.634 
398.24 207.941 104.139 397.085 209.858 104.497 436.933 210.267 104.063 
394.918 216.662 103.808 397.997 225.124 104.102 404.816 231.614 104.22 
405.841 232.739 104.119 407.112 234.25 104.58 409.078 235.746 104.765 
409.346 235.696 104.504 415.519 236.987 104.137 409.622 196.423 105.668 
400.58 204.188 105.492 398.781 206.693 105.44 398.088 207.757 105.134 
395.874 212.193 104.891 396.313 211.277 105.485 394.863 215.232 104.844 
394.854 216.291 104.148 394.591 216.818 104.77 395.028 222.136 105.051 
396.07 223.495 104.508 401.198 227.247 104.278 401.553 227.31 104.725 
402.558 228.331 104.638 404.926 231.723 104.493 405.077 231.972 104.364 
405.564 232.486 104.698 406.047 233.044 104.657 408.8 235.654 104.98 
409.664 236.355 105.32 412.314 237.391 104.894 416.992 190.446 106.282 
406.622 198.612 105.703 405.341 199.442 105.981 402.11 202.16 106.333 
400.924 203.67 105.905 399.954 205.048 105.862 399.65 205.57 106.043 
398.833 206.762 105.93 398.35 207.378 105.589 397.704 208.43 105.551 
395.113 214.393 105.622 394.548 217.732 105.614 394.459 218.703 105.271 
394.754 221.353 105.566 395.256 222.607 104.982 395.777 223.462 105.429 
395.747 223.404 105.544 396.138 223.68 105.344 395.862 223.58 105.452 
396.618 224.076 105.058 399.841 224.942 105.896 400.4 225.632 105.586 
403.701 226.864 106.386 395.784 223.524 105.492 403.951 228.906 105.582 
404.927 230.795 105.395 404.998 231.629 104.781 407.096 234.121 105.468 
409.039 235.937 105.744 414.459 239.63 106.972 416.274 239.922 106.567 
423.669 186.228 107.949 421.845 186.908 107.535 413.838 191.498 107.553 
408.115 196.996 106.99 407.614 197.361 107.462 404.584 199.862 107.049 
404.13 200.292 107.184 402.368 202.034 107.102 400.591 204.271 106.395 
400.7 204.455 106.75 399.033 206.818 106.39 398.128 208.077 106.187 
441.805 211.281 107.444 395.372 213.887 105.887 395.142 215.175 106.08 
394.926 216.742 106.088 441.442 217.859 106.549 394.666 220.565 105.92 
394.792 220.846 105.994 394.686 221.123 105.741 394.856 221.258 105.876 
395.172 222.311 105.59 395.744 223.163 105.689 400.377 224.666 106.277 
396.189 223.498 105.673 396.696 223.718 105.661 408.729 225.758 108.223 
406.564 233.318 105.518 408.61 235.353 106.18 410.292 236.753 106.729 
412.966 238.949 107.34 417.315 240.248 106.802 416.227 240.63 107.593 
419.994 240.758 107.582 415.385 240.486 108.006 419.474 187.293 107.927 
426.712 186.129 108.722 415.967 189.004 108.61 428.667 188.934 108.303 
413.221 191.639 108.764 411.14 193.854 108.124 410.841 194.131 108.506 
407.396 197.739 108.193 404.733 199.845 107.464 402.929 201.707 107.569 
400.404 205.183 106.844 398.868 207.332 106.571 398.178 208.622 106.624 
397.744 209.067 106.378 400.836 210.326 108.088 395.836 214.631 106.652 
395.384 218.072 106.642 395.613 220.157 106.633 395.224 221.696 106.014 
399.455 222.626 107.077 397.805 222.445 106.833 400.89 223.523 106.922 
417.404 241.02 107.899 424.753 240.599 108.841 417.274 241.298 108.515 
424.857 183.41 110.557 420.144 185.343 110.116 422.713 184.558 109.642 
415.981 188.644 109.561 413.6 191.271 109.57 411.386 193.68 109.044 
410.978 194.219 109.128 410.554 194.544 108.732 409.011 196.413 108.739 
410.105 195.2 108.881 406.36 198.962 108.42 405.114 204.602 109.108 
399.764 207.496 107.315 399.724 208.661 107.576 446.319 214.493 109.656 
396.342 216.924 107.197 443.88 222.714 109.32 396.842 222.806 106.462 
414.131 239.691 109.051 421.946 241.322 108.62 416.674 241.348 109.254 
424.924 241.24 109.504 419.612 242.144 109.597 423.947 182.977 111.187 
427.506 183.636 111.165 419.622 185.403 110.873 421.857 184.114 110.637 
416.115 188.5 110.579 415.317 189.371 110.383 413.407 191.805 110.06 
411.888 193.347 109.493 406.274 199.672 108.774 404.054 203.067 108.655 
414.411 239.669 109.91 417.24 241.783 110.386 418.742 242.358 110.491 
426.514 182.756 111.541 420.971 184.286 111.354 416.016 188.658 110.751 
416.328 188.427 110.973 414.482 190.419 110.285 414.378 191.273 110.826 
411.45 194.482 109.875 413.298 237.652 110.118 413.774 238.811 109.943 
428.678 239.762 110.344 419.021 242.67 111.634 424.035 182.348 112.227 
425.572 181.958 112.55 426.548 182.024 112.479 422.526 182.97 112.209 
428.776 183.958 111.909 417.977 186.82 111.653 449.878 216.275 112.329 
449.422 219.112 112.045 444.573 228.814 112.675 418.201 242.373 112.034 
424.094 242.847 111.387 426.091 242.699 111.937 419.576 242.928 112.394 
426.884 181.359 113.572 426.478 181.377 113.513 427.349 181.675 113.291 
427.834 181.632 113.694 421.974 183.081 113.479 420.547 184.477 112.964 
420.078 184.994 113.01 430.339 184.355 113.408 419.05 186.074 112.543 
418.111 187.058 112.258 415.631 192.68 112.207 416.892 192.004 112.915 
437.015 196.71 113.056 450.564 216.29 112.985 446.546 227.144 113.303 
416.723 240.692 112.516 432.334 240.925 113.731 418.14 242.231 112.595 
419.131 242.746 112.825 419.509 242.987 112.775 419.542 242.986 112.942 
419.737 243.062 112.81 420.264 243.118 113.003 422.013 243.326 112.795 
427.507 243.115 113.572 419.627 243.055 112.881 426.996 180.724 114.776 
427.461 181.205 114.106 424.902 181.236 114.417 422.982 182.282 113.804 
419.961 185.478 113.616 444.635 203.907 113.981 417.408 241.541 112.617 
425.178 243.485 114.209 425.811 180.45 116.172 423.949 181.542 115.253 
428.888 182.013 114.209 419.757 186.026 113.776 420.122 186.625 114.639 
419.442 189.479 114.498 420.051 188.994 114.988 420.075 190.995 115.007 
421.128 195.499 115.133 449.212 225.402 115.527 418.45 241.595 113.828 
419.323 242.313 113.869 427.407 180.276 116.094 426.32 180.318 116.533 
424.381 181.283 116.447 420.919 186.107 115.417 453.88 216.155 116.835 
451.852 221.178 116.207 449.055 226.044 116.42 419.13 229.259 115.388 
447.133 229.114 115.969 444.564 232.842 116.108 419.382 240.354 115.225 
422.013 242.81 115.264 428.112 180.346 116.961 428.083 180.282 117.084 
427.978 180.263 117.013 425.329 180.674 116.867 427.688 180.287 116.86 
431.329 183.951 116.034 422.289 188.867 117.047 451.664 221.892 117.146 
448.042 227.871 116.655 444.754 233.03 116.878 440.676 237.489 116.974 
439.97 238.078 117 432.86 242.09 116.404 427.057 180.184 117.98 
427.257 180.218 118.373 428 180.28 117.133 428.006 180.358 117.475 
422.425 186.229 117.274 445.987 198.654 117.707 454.525 208.792 117.327 
454.501 215.574 118.067 453.743 217.573 117.469 451.073 222.918 117.358 
449.323 225.62 117.743 443.623 234.61 117.286 422.078 237.266 117.655 
440.043 238.191 117.516 439.143 238.85 117.678 435.976 240.693 117.226 
428.643 242.961 117.236 430.834 242.892 117.22 426.633 180.239 118.294 
427.062 180.218 118.655 426.037 180.629 118.508 427.668 180.38 118.538 
424.529 181.676 118.094 431.317 183.507 118.019 440.836 195.372 118.807 
443.177 196.651 118.701 445.916 197.579 118.63 452.179 198.656 119.288 
453.651 200.494 118.948 457.33 204.603 119.716 457.055 207.725 119.42 
457.1 206.978 119.424 457.236 208.037 119.755 455.768 211.916 118.862 
454.091 216.664 118.199 451.439 222.116 118.035 448.734 226.384 118.47 
445.349 231.988 118.27 438.279 239.471 118.214 439.552 238.594 118.201 
436.752 240.355 117.773 428.992 242.401 118.322 431.339 242.802 117.414 
433.679 241.773 118.245 432.618 242.259 118.303 426.832 180.366 119.057 
427.045 180.298 118.96 427.273 180.404 119.158 428.713 181.095 119.166 
424.024 183.262 118.48 424.789 183.728 119.616 433.035 186.092 119.119 
437.628 192.338 119.024 451.644 196.084 120.904 451.372 196.371 120.592 
444.621 196.552 119.834 445.94 196.875 119.538 449.096 196.898 119.952 
455.782 202.507 119.199 457.98 205.932 120.501 457.197 208.707 120.171 
456.603 210.181 119.919 455.523 212.823 119.344 454.217 215.552 119.528 
453.117 217.827 119.384 451.198 221.675 119.097 443.165 234.9 118.845 
442.155 235.99 118.944 440.742 237.5 119.04 428.141 241.666 118.837 
434.785 241.143 118.762 431.246 242.724 117.843 431.339 242.511 118.259 
429.054 181.534 119.693 430.003 182.291 119.521 425.483 185.037 120.241 
432.53 185.528 119.547 434.023 187.758 119.546 427.629 189.543 120.642 
435.836 190.236 119.373 431.217 193.64 121.147 441.094 195.398 120.241 
450.473 196.279 120.709 431.771 197.478 120.745 458.45 204.735 121.053 
458.705 204.319 121.479 458.244 205.557 120.975 457.447 208.037 120.483 
455.54 212.301 120.099 455.426 211.956 120.669 436.344 214.793 121.516 
454.528 214.457 119.925 454.071 214.583 120.46 453.418 215.552 120.565 
449.594 220.659 121.157 447.979 226.297 119.876 446.066 228.453 120.486 
443.197 234.155 119.703 431.687 235.361 120.873 441.343 236.732 119.286 
440.46 237.59 119.359 439.779 238.221 119.158 440.085 237.864 119.419 
[...]
POINT_DATA 1251
SCALARS scalars float
LOOKUP_TABLE default
1 1 1 1 1 1 1 1 1 
1 1 1 1 1 1 1 1 1 
1 1 1 1 1 1 1 1 1 
1 1 1 1 1 1 1 1 1 
1 1 1 1 1 1 1 1 1 
1 1 1 1 1 1 1 1 1 
1 1 1 1 1 1 1 1 1 
1 1 1 1 1 1 1 1 1 
1 1 1 1 1 1 1 1 1 
1 1 1 1 1 1 1 1 1 
1 1 1 1 1 1 1 1 1 
1 1 1 1 1 1 1 1 1 
1 1 1 1 1 1 1 1 1 
1 1 1 1 1 1 1 1 1 
1 1 1 1 1 1 1 1 1 
1 1 1 1 1 1 1 1 1 
1 1 1 1 1 1 1 1 1 
1 1 1 1 1 1 1 1 1 
1 1 1 1 1 1 1 1 1 
1 1 1 1 1 1 1 1 1 
1 1 1 1 1 1 1 1 1 
1 1 1 1 1 1 1 1 1 
1 1 1 1 1 1 1 1 1 
1 1 1 1 1 1 1 1 1 
1 1 1 1 1 1 1 1 1 
1 1 1 1 1 1 1 1 1 
1 1 1 1 1 1 1 1 1 
1 1 1 1 1 1 1 1 1 
1 1 1 1 1 1 1 1 1 
1 1 1 1 1 1 1 1 1 
1 1 1 1 1 1 1 1 1 
1 1 1 1 1 1 1 1 1 
1 1 1 1 1 1 1 1 1 
1 1 1 1 1 1 1 1 1 
1 1 1 1 1 1 1 1 1 
1 1 1 1 1 1 1 1 1 
1 1 1 1 1 1 1 1 1 
1 1 1 1 1 1 1 1 1 
1 1 1 1 1 1 1 1 1 
1 1 1 1 1 1 1 1 1 
1 1 1 1 1 1 1 1 1 
1 1 1 1 1 1 1 1 1 
1 1 1 1 1 1 1 1 1 
1 1 1 1 1 1 1 1 1 
1 1 1 1 1 1 1 1 1 
1 1 1 1 1 1 1 1 1 
1 1 1 1 1 1 1 1 1 
1 1 1 1 1 1 1 1 1 
1 1 1 1 1 1 1 1 1 
1 1 1 1 1 1 1 1 1 
1 1 1 1 1 1 1 1 1 
1 1 1 1 1 1 1 1 1 
1 1 1 1 1 1 1 1 1 
1 1 1 1 1 1 1 1 1 
1 1 1 1 1 1 1 1 1 
1 1 1 1 1 1 1 1 1 
1 1 1 1 1 1 1 1 1 
1 1 1 1 1 1 1 1 1 
1 1 1 1 1 1 1 1 1 
1 1 1 1 1 1 1 1 1 
1 1 1 1 1 1 1 1 1 
1 1 1 1 1 1 1 1 1 
1 1 1 1 1 1 1 1 1 
1 1 1 1 1 1 1 1 1 
1 1 1 1 1 1 1 1 1 
1 1 1 1 1 1 1 1 1 
1 1 1 1 1 1 1 1 1 
1 1 1 1 1 1 1 1 1 
1 1 1 1 1 1 1 1 1 
1 1 1 1 1 1 1 1 1 
1 1 1 1 1 1 1 1 1 
1 1 1 1 1 1 1 1 1 
1 1 1 1 1 1 1 1 1 
1 1 1 1 1 1 1 1 1 
1 1 1 1 1 1 1 1 1 
1 1 1 1 1 1 1 1 1 
1 1 1 1 1 1 1 1 1 
1 1 1 1 1 1 1 1 1 
1 1 1 1 1 1 1 1 1 
1 1 1 1 1 1 1 1 1 
1 1 1 1 1 1 1 1 1 
1 1 1 1 1 1 1 1 1 
1 1 1 1 1 1 1 1 1 
1 1 1 1 1 1 1 1 1 
1 1 1 1 1 1 1 1 1 
1 1 1 1 1 1 1 1 1 
1 1 1 1 1 1 1 1 1 
1 1 1 1 1 1 1 1 1 
1 1 1 1 1 1 1 1 1 
1 1 1 1 1 1 1 1 1 
1 1 1 1 1 1 1 1 1 
1 1 1 1 1 1 1 1 1 
1 1 1 1 1 1 1 1 1 
1 1 1 1 1 1 1 1 1 
1 1 1 1 1 1 1 1 1 
1 1 1 1 1 1 1 1 1 
1 1 1 1 1 1 1 1 1 
1 1 1 1 1 1 1 1 1 
1 1 1 1 1 1 1 1 1 
1 1 1 1 1 1 1 1 1 
1 1 1 1 1 1 1 1 1 
1 1 1 1 1 1 1 1 1 
1 1 1 1 1 1 1 1 1 
1 1 1 1 1 1 1 1 1 
1 1 1 1 1 1 1 1 1 
1 1 1 1 1 1 1 1 1 
1 1 1 1 1 1 1 1 1 
1 1 1 1 1 1 1 1 1 
1 1 1 1 1 1 1 1 1 
1 1 1 1 1 1 1 1 1 
1 1 1 1 1 1 1 1 1 
1 1 1 1 1 1 1 1 1 
1 1 1 1 1 1 1 1 1 
1 1 1 1 1 1 1 1 1 
1 1 1 1 1 1 1 1 1 
1 1 1 1 1 1 1 1 1 
1 1 1 1 1 1 1 1 1 
1 1 1 1 1 1 1 1 1 
1 1 1 1 1 1 1 1 1 
1 1 1 1 1 1 1 1 1 
1 1 1 1 1 1 1 1 1 
1 1 1 1 1 1 1 1 1 
1 1 1 1 1 1 1 1 1 
1 1 1 1 1 1 1 1 1 
1 1 1 1 1 1 1 1 1 
1 1 1 1 1 1 1 1 1 
1 1 1 1 1 1 1 1 1 
1 1 1 1 1 1 1 1 1 
1 1 1 1 1 1 1 1 1 
1 1 1 1 1 1 1 1 1 
1 1 1 1 1 1 1 1 1 
1 1 1 1 1 1 1 1 1 
1 1 1 1 1 1 1 1 1 
1 1 1 1 1 1 1 1 1 
1 1 1 1 1 1 1 1 1 
1 1 1 1 1 1 1 1 1 
1 1 1 1 1 1 1 1 1 
1 1 1 1 1 1 1 1 1 
1 1 1 1 1 1 1 1 1 

NORMALS Normals float
-0.0496544 0.0173805 -0.998615 -0.283792 0.0557844 -0.957262 -0.118775 0.177648 -0.9769 
-0.187908 -0.300734 -0.935013 0.143592 -0.0855697 -0.985931 -0.353983 0.0111549 -0.935185 
-0.272819 0.436525 -0.85733 -0.0951044 0.362509 -0.927115 0.00693515 0.451903 -0.89204 
-0.463368 -0.190716 -0.8654 -0.411209 -0.45941 -0.787306 0.355243 0.280721 -0.891627 
-0.438203 0.229367 -0.86912 0.222856 -0.294064 -0.929442 -0.555309 0.151736 -0.817684 
-0.254826 0.485782 -0.83611 -0.624524 0.456186 -0.633927 0.138663 0.389074 -0.91071 
0.235758 -0.337837 -0.911199 -0.096085 -0.470681 -0.877056 -0.37464 -0.566833 -0.73372 
-0.61644 -0.368814 -0.695685 -0.620221 -0.123633 -0.774623 -0.549851 0.13757 -0.823856 
-0.12883 -0.448866 -0.884264 0.512972 -0.151851 -0.844867 0.408267 0.0168412 -0.912707 
-0.647727 0.722518 -0.241698 -0.539833 0.624327 -0.564621 -0.192756 0.553654 -0.810131 
-0.477278 0.633096 -0.609421 0.467448 -0.315867 -0.825664 -0.624674 -0.565834 -0.538158 
-0.835668 -0.378629 -0.397868 -0.834824 -0.216995 -0.505947 -0.908454 0.0649006 -0.412915 
-0.871072 0.144818 -0.469319 -0.767332 0.638019 -0.0642853 -0.612757 0.790183 0.0118213 
-0.674916 0.634483 -0.376722 -0.626987 0.678085 -0.38352 -0.513022 0.711743 -0.479823 
0.312924 0.471795 -0.824311 -0.317639 0.673848 -0.667109 -0.0977714 0.591241 -0.800547 
0.127608 -0.414773 -0.900933 0.45077 -0.35468 -0.819151 0.485925 -0.308419 -0.817774 
-0.782836 -0.541124 -0.307168 -0.909784 -0.385389 -0.154172 0.480844 -0.326656 -0.813686 
-0.928852 0.0135666 -0.370204 -0.612943 0.765134 -0.197155 -0.840239 0.520293 0.152626 
-0.651579 0.709306 -0.268941 -0.637207 0.734731 -0.232674 -0.547906 0.722164 -0.422231 
-0.429002 0.619893 -0.657032 0.00572368 0.518092 -0.855306 -0.452456 -0.641451 -0.619536 
-0.787924 -0.526198 -0.31983 -0.729136 -0.673761 0.120028 -0.81935 -0.557948 -0.131755 
-0.931171 -0.319617 -0.175402 -0.868075 -0.493947 -0.0496223 -0.956859 -0.270645 -0.105695 
-0.97194 -0.0494958 -0.229964 -0.988593 -0.0847295 -0.124518 -0.813073 0.329398 -0.48001 
-0.691165 0.589013 -0.418754 -0.70147 0.661424 0.265438 -0.587105 0.65161 0.480326 
-0.709218 0.653916 0.263447 -0.840885 0.470561 0.267367 -0.769921 0.637637 0.0253101 
-0.757135 0.603506 0.250053 -0.712854 0.700045 -0.042138 -0.644062 0.668629 -0.371645 
-0.419963 0.818837 -0.391328 -0.261359 0.744073 -0.614855 -0.365698 -0.552859 -0.74874 
-0.530367 -0.766734 -0.361704 -0.609992 -0.718996 -0.333099 -0.712693 -0.693609 -0.104766 
-0.733057 -0.676943 -0.0661429 -0.879247 -0.462087 0.115759 -0.84039 -0.525213 -0.133772 
-0.693778 -0.649597 0.310958 -0.825969 -0.551982 0.114415 -0.871582 -0.460821 0.167301 
-0.909152 -0.304304 0.284326 -0.891633 -0.0501602 0.449971 -0.994993 0.0461794 -0.088634 
-0.970569 0.237187 -0.0417018 -0.862359 0.463876 -0.202868 -0.790796 0.560786 -0.245276 
-0.831501 0.431419 0.349976 -0.412775 0.872983 0.259844 -0.570825 0.534118 -0.6236 
-0.518728 0.803221 0.292844 -0.324944 0.552023 0.767908 -0.295231 0.560496 0.773746 
-0.464589 0.333569 0.820298 -0.528427 0.659157 0.535048 -0.604657 0.510785 0.611137 
-0.733895 0.414712 0.537971 -0.81518 0.438436 0.37849 -0.744001 0.615968 0.258931 
-0.632583 0.774419 -0.0106813 -0.298204 0.806222 -0.51096 -0.124418 0.722321 -0.680273 
-0.0221629 -0.626519 -0.779091 -0.0192167 -0.489243 -0.871936 -0.639313 -0.664029 -0.387744 
-0.631658 -0.743867 -0.218337 -0.663365 -0.745388 0.0659076 -0.593449 -0.804579 0.0216944 
-0.694143 -0.680829 0.233746 -0.754801 -0.556745 0.346858 -0.772123 -0.569843 0.281255 
-0.677134 -0.425722 0.600209 -0.620462 -0.599207 0.505943 -0.742975 -0.422487 0.519127 
0.595642 -0.361822 -0.717144 -0.906548 -0.331509 0.261289 -0.829422 -0.141047 0.540523 
-0.852676 -0.1305 0.505878 0.430372 0.217334 -0.876097 -0.927231 0.0372169 0.372637 
-0.645503 0.220946 0.731101 -0.910527 0.262655 0.319301 -0.679499 0.354754 0.642208 
-0.838593 0.426655 0.338715 -0.439585 0.402505 0.802966 -0.167032 0.492949 0.853874 
-0.227922 0.597828 0.76854 -0.240025 0.622262 0.745103 -0.31499 0.0524741 0.947643 
-0.709775 0.490629 0.505473 -0.696904 0.611967 0.373927 -0.667892 0.628106 0.399255 
-0.58756 0.807201 -0.0565668 0.195598 0.721959 -0.663714 -0.235311 0.851318 -0.46892 
0.0620977 0.774585 -0.629414 -0.430029 0.851233 -0.300793 -0.293988 -0.684065 -0.667552 
0.38823 -0.455792 -0.800957 -0.606785 -0.697157 -0.381818 0.64577 -0.407932 -0.645425 
-0.757192 -0.652221 -0.0356059 -0.715273 -0.685934 -0.133709 -0.780966 -0.623423 0.0379013 
-0.649311 -0.656251 0.384356 -0.619385 -0.73148 0.28513 -0.627299 -0.429449 0.649669 
-0.717185 -0.415528 0.559448 -0.745709 -0.449216 0.49206 -0.680457 -0.30782 0.665 
-0.795131 -0.330885 0.508214 -0.246222 -0.0705691 0.966641 -0.61124 -0.168149 0.773376 
-0.553216 0.0301637 0.832492 -0.504155 0.128553 0.853992 -0.519346 0.28254 0.806505 
-0.134982 0.328119 0.934943 -0.227008 0.277909 0.933399 -0.164935 0.334722 0.92777 
0.0146738 0.831749 -0.554958 0.231643 0.617806 -0.751436 -0.190307 0.899423 -0.393474 
0.0872206 -0.724764 -0.683454 -0.54186 -0.760533 -0.35774 -0.302307 -0.698565 -0.64855 
-0.616933 -0.771877 -0.15362 -0.771767 -0.572059 0.277712 -0.689243 -0.668194 0.280107 
-0.729727 -0.534662 0.426186 -0.837648 -0.522655 0.158673 -0.673446 -0.707577 0.214022 
-0.757503 -0.610384 0.231561 -0.614916 -0.586861 0.526756 -0.17114 -0.0441787 0.984256 
-0.484709 -0.266942 0.832946 -0.453893 -0.175821 0.873538 0.61559 -0.119734 -0.778918 
-0.341079 0.00738146 0.940006 0.50788 0.267808 -0.818741 -0.301732 0.439978 0.8458 
-0.624138 0.775853 0.0922149 0.192476 0.683259 -0.70435 -0.395511 0.886647 -0.239641 
0.320663 0.704111 -0.633563 -0.0896876 0.910866 -0.40284 -0.177462 -0.794139 -0.581249 
0.381113 -0.641193 -0.666051 -0.662723 -0.737469 -0.130145 -0.483151 -0.736345 -0.473668 
-0.585655 -0.808816 0.0531543 -0.781793 -0.610195 0.128302 -0.727439 -0.473568 0.496553 
-0.74111 -0.648848 0.172485 -0.4472 -0.347297 0.824256 -0.480634 -0.184199 0.857357 
-0.681739 0.430796 0.591309 -0.375464 0.906969 -0.190877 -0.270683 0.927282 -0.258609 
0.119477 -0.754613 -0.645201 -0.595358 -0.745635 -0.299296 -0.759346 -0.59259 0.268757 
-0.630228 -0.750138 0.200265 -0.741027 -0.647423 0.178105 -0.703481 -0.427655 0.56765 
-0.670255 -0.500382 0.548066 -0.619295 0.254635 0.742721 -0.690794 0.54228 0.478264 
0.40638 0.52634 -0.746874 -0.194889 0.966861 -0.164917 -0.152251 -0.919112 -0.363391 
-0.128867 -0.93498 -0.330463 0.243669 -0.770476 -0.58906 -0.4165 -0.879733 -0.229341 
0.553161 -0.571553 -0.606086 -0.740293 -0.654688 0.152806 0.627662 -0.175568 -0.75843 
0.677424 0.174878 -0.714503 0.427534 0.411778 -0.804769 -0.54527 0.837456 0.0367147 
0.0621336 0.884878 -0.461661 0.249717 0.853626 -0.457127 -0.237682 0.943625 -0.23039 
0.169948 -0.84746 -0.50292 -0.000496706 -0.867578 -0.4973 0.287153 -0.727157 -0.623527 
0.515503 -0.714827 -0.472523 -0.650592 -0.758127 0.0444217 -0.703508 -0.60863 0.36694 
-0.763187 -0.631032 0.139085 0.715544 -0.462995 -0.523099 -0.75663 -0.56563 0.327984 
-0.715181 -0.397539 0.574873 -0.56025 -0.185299 0.807331 -0.610013 -0.173786 0.773099 
0.611234 -0.483991 -0.626215 0.70039 -0.078967 -0.709379 0.685711 0.360581 -0.632282 
-0.751592 0.534227 0.386924 0.436446 0.625924 -0.646323 -0.5117 0.816644 0.266938 
-0.527201 0.832457 0.170512 -0.446947 0.888786 -0.101474 -0.490407 0.819839 0.295574 
-0.154793 0.96418 -0.215398 -0.104385 0.992804 0.0586855 -0.0975451 0.994988 -0.0219832 
0.324357 0.860532 -0.392783 -0.296263 0.937435 0.182876 0.283136 -0.903638 -0.32136 
0.355477 -0.878132 -0.320188 -0.223795 -0.9212 -0.318288 -0.571439 -0.798594 0.188958 
-0.738 -0.509315 0.442667 0.365013 -0.472237 -0.802345 -0.737691 0.558286 0.379644 
0.0198304 0.999788 0.00555425 -0.330822 -0.932698 -0.143635 -0.572732 -0.819302 -0.0268778 
0.645357 -0.709978 -0.281861 -0.824318 -0.388644 0.411649 -0.744402 -0.249227 0.619477 
-0.682573 -0.187106 0.70646 -0.600931 -0.109968 0.7917 -0.439323 -0.0578796 0.896463 
-0.387924 0.133823 0.911924 0.830058 0.491252 -0.263959 -0.577972 0.556444 0.596924 
-0.413383 0.754905 0.50915 0.108021 -0.971988 -0.208736 -0.222295 -0.97063 -0.0919919 
-0.590094 -0.804326 0.069627 -0.709475 -0.358117 0.606957 0.863015 0.198955 -0.464351 
0.833226 0.297766 -0.465908 0.838777 0.520635 -0.159353 -0.463084 -0.0680162 0.883701 
0.779012 0.52024 -0.349988 0.735477 0.527822 -0.424827 -0.60739 0.277106 0.744506 
-0.34394 0.711027 0.613307 0.542361 -0.798701 -0.260616 0.425081 -0.905142 0.00495705 
0.152015 -0.972918 -0.174134 -0.438991 -0.893992 0.0898029 -0.0104585 -0.997289 -0.0728408 
0.802731 -0.576548 -0.152368 -0.570249 0.0497068 0.819967 0.945511 0.321997 0.0482292 
0.860977 0.50705 -0.0402236 0.865164 0.466856 -0.183131 0.701488 0.68628 -0.192184 
0.469625 0.786597 -0.400896 0.359013 0.887324 -0.289423 0.0975312 -0.994616 -0.035026 
0.201612 -0.975165 0.0916818 0.0748554 -0.975062 0.208929 0.236656 -0.960986 0.143176 
-0.76776 -0.260935 0.585199 0.26066 -0.575607 -0.77507 0.608769 -0.151886 -0.778673 
0.933752 0.351142 0.0693262 0.918631 0.394844 0.014692 0.832923 0.544489 0.098851 
0.881091 0.451148 0.141929 0.760745 0.628385 -0.162475 -0.479117 0.0785635 0.874228 
0.641106 0.763407 -0.0786995 0.499856 0.851364 -0.159133 0.475327 0.867151 -0.148706 
-0.0919017 0.920911 0.378784 0.0337764 0.985356 0.167131 -0.196576 -0.979686 0.0396616 
-0.132769 -0.968068 0.212643 -0.506642 -0.816322 0.277367 0.36348 -0.913722 0.181644 
-0.75828 -0.53533 0.372067 0.776319 -0.617539 0.126393 0.51587 -0.811928 -0.273223 
0.340466 -0.816441 -0.466376 0.259082 -0.712457 -0.652137 0.187769 -0.518092 -0.83446 
0.315551 -0.317252 -0.894303 0.714581 -0.0528694 -0.697552 0.832757 0.137055 -0.536406 
0.613905 -0.0333609 -0.788674 0.871542 0.164854 -0.461778 0.943829 0.296215 -0.146436 
0.936362 0.348606 0.041235 0.889168 0.394014 0.232668 0.816451 0.499499 0.289671 
0.863115 0.488815 0.126856 0.483818 0.858222 -0.171391 0.610729 0.788135 0.076503 
0.462834 0.87661 0.13168 -0.145514 0.835283 0.530216 0.317128 0.942616 0.104429 
0.374887 0.8973 0.233053 0.3273 0.87727 0.3511 -0.287553 -0.847931 0.445339 
0.138418 -0.945318 0.29532 0.113237 -0.876796 0.46734 0.5968 -0.785663 0.162983 
-0.737063 0.0456627 0.67428 -0.756672 -0.16893 0.631593 0.845521 -0.485296 0.222671 
0.775301 -0.593815 -0.215157 -0.186665 -0.778803 -0.59885 -0.210683 -0.738657 -0.640311 
0.0981942 -0.963433 -0.249309 0.225001 -0.850205 -0.475948 0.0206469 -0.826881 -0.561998 
0.380085 -0.212604 -0.900186 0.891455 0.19734 -0.407878 0.902648 0.419908 -0.0943629 
0.928883 0.370317 -0.00644972 0.893939 0.429818 0.126997 0.785818 0.431679 0.442881 
0.807355 0.405564 0.428597 0.775836 0.411662 0.478135 0.748684 0.599415 0.283151 
0.628099 0.553848 0.546575 0.697094 0.663682 0.271268 -0.335085 0.389845 0.857752 
0.376653 0.871943 0.312806 0.0935377 0.931019 0.352781 0.0305909 0.852443 0.521924 
0.601379 -0.745213 0.2881 0.670775 -0.693539 0.262803 -0.698617 0.187251 0.690559 
0.746935 -0.590696 0.305231 0.737126 -0.49654 0.45836 -0.533193 0.214455 0.818361 
0.698115 -0.597683 0.394222 -0.262891 0.16049 0.951384 0.542976 -0.826762 0.147109 
-0.0712911 -0.765318 -0.639692 -0.333339 0.24914 0.909293 0.87818 0.115901 -0.464077 
0.953504 0.150955 -0.260849 0.898194 0.222792 -0.378962 0.964398 0.211177 -0.159191 
0.817972 0.494699 0.29359 0.747543 0.481782 0.457236 -0.219254 0.0217986 0.975424 
0.809362 0.381411 0.446608 0.672899 0.340259 0.656834 0.616765 0.439036 0.653337 
0.512938 0.256639 0.819165 0.76072 0.408739 0.50422 0.606076 0.39411 0.690904 
0.688723 0.472147 0.550216 -0.184805 0.0557421 0.981193 0.712298 0.56254 0.419739 
0.649599 0.575242 0.49711 0.506126 0.760118 0.4075 0.539898 0.7374 0.405896 
0.475072 0.809632 0.344678 0.460994 0.721373 0.516823 -0.176095 0.390146 0.903757 
-0.048295 0.374862 0.925822 -0.0987564 0.517067 0.850229 0.286336 0.733179 0.616815 
0.176961 0.691238 0.700625 -0.176029 -0.727993 0.662601 0.258685 -0.840256 0.4765 
-0.0212954 -0.679797 0.733091 -0.53611 -0.539796 0.649005 0.39324 -0.723419 0.567474 
-0.561073 -0.310272 0.767417 -0.552417 0.0414029 0.832539 0.782297 -0.429865 0.450808 
-0.684407 0.277478 0.674235 0.345863 -0.345264 0.872451 0.432555 -0.521659 0.73537 
0.483429 -0.77164 0.413362 -0.34728 -0.876853 -0.332453 0.19533 -0.499319 -0.844113 
0.266348 -0.388732 -0.882012 0.325385 -0.692498 0.643872 0.0409775 -0.976665 0.210823 
-0.0920592 -0.971134 0.220056 -0.0346632 -0.995144 -0.092129 -0.0412983 -0.978018 -0.204388 
0.194549 -0.968241 0.157034 0.470242 -0.205849 -0.858195 0.519537 -0.148212 -0.841496 
0.716137 -0.136245 -0.684533 0.889341 -0.0228818 -0.456672 0.936964 0.0563988 -0.344843 
0.917418 0.397837 0.00839936 -0.30583 0.0389022 0.951291 0.573813 0.336175 0.74681 
0.347229 0.295825 0.889899 0.512382 0.373321 0.773367 0.5666 0.344264 0.74863 
0.508549 0.212024 0.83452 0.204835 0.127551 0.97045 -0.132576 0.00238345 0.99117 
0.743871 0.464527 0.480491 0.20109 0.0752834 0.976676 0.551767 0.267804 0.789831 
0.272349 0.246016 0.930216 0.527396 0.231953 0.817344 0.513694 0.359237 0.779145 
0.561356 0.452826 0.692697 0.404465 0.40037 0.82226 0.534873 0.547017 0.64396 
0.424704 0.486736 0.763358 0.126992 0.198665 0.971805 0.0135416 0.121301 0.992523 
0.511028 0.519238 0.685012 -0.062859 0.211217 0.975416 0.166732 0.114662 0.979313 
0.18037 0.396401 0.900185 0.132849 0.61188 0.779714 0.00101222 0.633513 0.773731 
-0.245377 -0.450671 0.858304 0.188864 -0.657499 0.7294 0.0486854 -0.509266 0.859231 
0.436309 -0.561511 0.703093 0.641775 -0.481893 0.596577 -0.333887 -0.112984 0.935817 
0.586766 -0.445811 0.675987 0.218097 -0.0916625 0.971613 0.647105 -0.422596 0.634561 
0.367172 -0.135198 0.920275 0.0760793 -0.134672 0.987965 0.0791457 -0.106299 0.991179 
-0.273642 -0.728088 -0.628496 -0.0392875 -0.629849 -0.775723 0.00772275 -0.0943483 0.995509 
-0.0747276 -0.833653 -0.547209 -0.20697 -0.976255 0.0639428 -0.291987 -0.951263 -0.0992087 
-0.464746 -0.856364 0.225058 -0.500179 -0.852954 -0.149302 -0.165361 -0.797324 -0.580457 
0.0687371 -0.389727 0.918362 -0.263758 -0.548631 0.793369 0.592808 -0.214575 -0.776232 
0.830291 -0.20312 -0.518998 0.900912 -0.129109 -0.414353 -0.0908975 -0.287201 0.953548 
0.146859 -0.476179 0.866998 -0.0282175 -0.70985 0.703788 -0.215145 0.0662996 0.974329 
0.766398 -0.119525 -0.631148 -0.10991 -0.0948937 0.989401 0.858634 -0.00233704 -0.512584 
0.967662 0.0270735 -0.250792 0.976529 0.181813 0.115479 0.924173 0.331495 0.189774 
0.905736 0.361841 0.220712 0.632882 0.461973 0.621323 0.448979 0.347581 0.823168 
0.559003 0.404776 0.723652 0.745858 0.460901 0.480901 0.243612 0.284356 0.927251 
0.137355 0.202255 0.969653 0.44565 0.141254 0.883993 0.51715 0.370955 0.771329 
0.143646 0.331841 0.932334 0.264184 0.437938 0.859312 0.0420429 0.442687 0.89569 
0.0623904 -0.317376 0.946245 -0.0354687 -0.278556 0.959765 0.350128 -0.34951 0.869053 
0.210303 -0.25605 0.94351 -0.286264 0.155881 0.945386 -0.524436 -0.75802 -0.387779 
-0.775918 -0.582927 0.241138 -0.28658 -0.696332 -0.658023 0.353781 -0.624767 -0.696064 
-0.721962 -0.671329 0.167594 -0.668206 -0.654219 0.354258 -0.585277 -0.444128 0.678381 
-0.732107 -0.595312 0.331094 -0.645102 -0.760925 -0.0695478 0.417988 -0.508344 -0.752909 
-0.334916 -0.740389 0.582801 -0.667281 -0.59075 0.453599 0.68168 -0.344063 -0.645703 
0.586869 -0.568739 -0.576298 -0.429714 -0.27754 0.859254 0.986415 -0.140765 -0.0846783 
-0.338061 -0.351353 0.873078 -0.370592 -0.350291 0.860208 0.967074 -0.083972 -0.240241 
0.94005 0.199897 0.276309 0.882982 0.348524 0.314443 0.471237 0.302473 0.82852 
0.19404 0.178336 0.964648 0.636319 0.395254 0.662475 0.282279 0.32527 0.902506 
0.662998 0.447108 0.60044 0.0340791 0.159899 0.986545 -0.462378 -0.647193 -0.606092 
-0.790471 -0.607351 0.0792477 -0.828576 -0.557418 -0.0524155 -0.358884 -0.751354 -0.553777 
-0.80344 -0.595343 0.00710283 -0.341623 -0.716559 -0.608142 0.432843 -0.433613 -0.790333 
-0.634404 -0.376718 0.674993 0.65894 -0.413764 -0.62817 -0.502434 -0.0146745 0.864491 
-0.340794 -0.111579 0.933493 -0.133318 -0.0618806 0.98914 0.430445 0.238552 0.870523 
0.620072 0.24499 0.745312 0.0592156 0.252568 0.965766 0.0892063 0.192692 0.977196 
0.558394 0.331093 0.76064 -0.142999 0.0300616 0.989266 0.359341 0.40718 0.839689 
0.267769 -0.275852 -0.92315 -0.965841 0.159853 -0.203958 0.514401 -0.38623 -0.765648 
0.599126 -0.425132 -0.678462 0.370714 -0.184474 0.910242 0.0837538 -0.250577 -0.964467 
-0.949101 0.199844 -0.243454 0.847423 -0.503374 -0.168784 -0.195279 -0.183775 -0.963376 
0.257117 -0.368981 -0.893165 -0.889395 -0.127766 -0.438922 0.390105 -0.355762 -0.849265 
-0.768371 -0.249414 0.589405 -0.837751 -0.0511382 0.543653 -0.00039521 -0.906853 -0.421447 
0.342408 -0.558893 -0.755245 -0.555487 -0.0365608 0.830721 0.701829 -0.540241 -0.464301 
0.957153 -0.265281 -0.116122 -0.303153 0.153995 0.940417 0.892107 0.0770457 0.445207 
-0.324872 -0.0324256 0.945202 -0.258241 0.190192 0.947174 0.507638 0.242163 0.826838 