# vtk DataFile Version 4.2
vtk output
ASCII
DATASET POLYDATA
POINTS 440 float
457.655 150.302 167.878 457.493 150.297 167.918 457.683 150.483 167.879 
458.614 151.049 167.767 458.71 151.342 167.707 458.921 151.421 167.726 
459.014 151.277 167.804 458.564 151.541 167.724 459.661 152.662 167.965 
459.796 152.842 168.015 460.006 153.731 168.241 460.147 154.712 168.38 
460.09 154.661 168.388 460.101 154.731 168.444 460.153 154.609 168.408 
460.164 154.711 168.427 457.278 150.156 168.007 458.183 150.698 167.851 
459.372 152.323 167.939 460.267 153.325 168.533 459.751 154.277 168.351 
460.035 154.457 168.384 459.919 154.632 168.501 460.178 154.309 168.53 
460.03 154.748 168.651 458.732 149.552 168.376 455.859 149.003 168.649 
456.492 149.075 168.529 458.961 149.852 168.373 458.767 150.249 168.099 
457.649 151.299 167.945 458.147 152.138 167.963 460.098 151.883 168.7 
460.317 153.976 168.881 459.767 154.778 168.871 460.211 154.451 168.906 
460.008 154.737 169.056 450.261 145.791 170.281 450.682 146.103 170.049 
451.622 145.673 169.972 452.66 146.367 169.587 450.617 146.718 170.012 
452.853 146.948 169.511 451.512 147.071 169.766 455.938 147.692 169.17 
459.145 149.746 168.671 455.475 150.423 168.743 460.189 151.169 169.229 
460.467 152.619 169.113 458.661 154.924 169.397 459.963 154.793 169.543 
451.852 145.389 170.103 455.155 146.668 169.606 455.135 146.531 169.678 
454.935 146.53 169.67 449.026 146.496 170.854 453.408 146.047 169.835 
458.771 148.197 169.646 449.504 147.351 170.732 455.83 147.172 169.452 
460.594 151.05 170.092 456.775 152.532 168.726 459.024 155.237 169.901 
458.708 155.324 170.283 459.322 155.201 169.893 450.131 144.07 171.432 
448.275 145.937 171.631 453.392 145.455 170.222 455.187 146.387 169.829 
450.686 148.388 170.41 451.378 148.812 170.173 454.827 151.85 169.544 
460.723 152.591 170.352 458.603 155.448 170.775 459.254 155.358 170.714 
459.358 155.28 171.075 449.346 143.675 172.319 448.682 143.859 172.571 
450.699 143.86 171.534 448.098 145.018 172.198 454.064 144.727 171.065 
448.405 146.986 171.602 460.526 149.977 171 460.701 150.369 171.172 
457.08 155.527 171.746 452.202 143.325 172.475 447.786 144.567 172.912 
447.275 145.438 173.219 458.332 145.698 172.661 457.17 145.876 171.168 
460.913 150.952 172 459.871 154.472 172.592 455.04 155.846 173.314 
458.363 155.527 172.019 458.818 155.36 172.514 449.053 143.18 173.681 
454.534 143.189 173.721 447.739 144.066 173.823 446.905 145.079 174.141 
460.578 149.339 172.54 460.934 151.609 172.549 460.899 151.451 173.108 
455.276 155.22 172.218 459.156 155.068 173.184 456.75 155.986 173.183 
449.663 142.75 174.408 452.443 142.469 174.607 458.311 145.361 173.497 
458.701 155.164 174.285 451.951 156.033 175.19 451.769 155.912 175.18 
458.032 155.575 174.087 453.068 156.346 175.214 452.923 142.414 175.209 
456.438 143.659 174.738 446.268 145.74 175.613 445.957 147.11 175.839 
446.478 147.873 174.804 460.752 149.796 173.995 459.91 153.364 175.073 
452.649 156.111 175.038 453.297 155.951 174.413 451.588 156.438 176.375 
449.434 142.602 175.89 458.471 145.397 175.557 446.334 150.162 175.929 
460.262 151.951 175.642 459.458 153.754 175.922 447.96 154.872 177.722 
449.725 155.753 176.838 453.787 156.487 176.096 452.544 142.364 176.601 
459.522 146.997 176.328 457.094 155.394 177.126 456.3 155.937 176.969 
448.984 142.972 177.493 454.798 142.961 176.961 446.452 144.818 177.793 
456.082 143.667 177.468 445.101 148.754 177.925 445.258 149.782 177.885 
451.538 156.499 177.659 445.294 146.46 178.876 444.813 147.714 179.323 
459.979 149.298 177.69 445.573 151.671 178.517 459.497 151.747 178.58 
456.931 154.809 178.806 452.387 156.427 178.101 448.53 143.69 179.269 
458.624 147.165 179.527 459.445 148.053 178.462 444.465 148.705 180.133 
452.616 156.044 179.277 457.463 145.939 180.07 445.442 146.649 181.068 
444.728 147.814 181.136 444.365 149.062 180.976 444.444 150.132 180.713 
459.163 150.634 179.953 458.02 152.505 180.729 454.924 155.161 180.131 
447.024 144.741 180.582 451.101 144.259 181.136 444.413 148.819 181.414 
444.495 151.069 182.086 457.515 152.385 181.445 457.855 152.113 181.338 
445.102 152.776 182.021 445.647 153.307 181.493 448.376 154.878 180.95 
446.752 145.573 181.79 446.17 146.194 181.916 453.485 145.591 182.328 
456.417 146.623 181.831 457.833 148.194 181.756 456.657 152.481 182.104 
445.022 152.678 182.221 446.024 153.513 181.935 446.466 153.728 182.014 
449.589 154.889 181.391 446.913 146.053 182.512 447.573 146.247 183.112 
454.473 147.048 183.267 444.55 149.705 182.615 457.841 150.667 181.937 
457.504 150.864 182.291 444.678 151.504 182.963 444.821 151.89 182.909 
456.214 151.987 182.732 444.892 152.121 182.773 453.501 153.53 182.793 
445.36 152.758 182.561 445.833 152.95 182.717 450.803 153.633 183.081 
450.921 147.326 184.185 455.46 148.93 183.694 444.808 150.037 183.28 
444.915 151.126 183.364 455.985 150.773 183.378 445.848 151.93 183.819 
447.681 147.194 183.926 445.797 148.415 183.836 448.454 148.049 184.545 
452.056 148.521 184.571 444.964 149.727 183.441 454.084 148.985 184.24 
454.385 149.705 184.245 454.027 150.551 184.247 445.527 151.13 184.057 
445.497 151.322 183.977 451.834 150.866 184.626 453.207 151.253 184.247 
447.488 152.125 184.146 446.01 149.16 184.224 453.621 149.318 184.437 
447.084 149.845 184.979 448.91 149.952 184.961 450.729 149.794 184.853 
447.496 150.467 184.877 447.128 149.612 184.983 447.393 149.563 185.023 
446.755 148.599 271.964 448.244 148.846 271.561 446.041 148.884 272.285 
450.717 149.872 271.398 452.661 149.817 271.735 447.5 150.436 271.577 
446.364 150.894 272.069 450.778 150.932 271.535 446.535 147.742 272.515 
447.652 147.404 272.328 448.587 147.668 271.964 445.412 149.191 272.8 
452.816 149.213 271.82 454.345 148.703 272.308 445.801 149.897 272.339 
445.453 149.815 272.748 455.052 149.127 272.504 455.843 150.041 272.954 
449.835 151.487 271.66 453.498 150.922 272.211 446.911 152.071 272.499 
450.261 152.435 272.196 445.588 147.459 273.403 445.015 148.496 273.471 
457.371 149.073 273.904 456.472 151.562 273.83 445.993 152.097 273.39 
449.23 152.937 272.638 448.143 153.214 273.199 451.485 145.725 273.342 
445.716 146.821 274.011 456.871 147.714 273.876 458.216 149.585 274.714 
444.963 150.652 273.833 446.507 145.381 275.018 447.736 144.537 275.385 
456.865 146.716 274.515 444.842 147.569 274.865 444.605 148.557 274.468 
458.779 148.74 275.545 444.561 150.157 274.817 457.817 151.434 274.947 
454.858 153.803 274.651 447.588 153.781 274.392 453.817 154.361 274.645 
453.449 144.296 275.471 444.446 149.12 275.121 444.671 150.793 275.347 
453.341 155.094 275.479 451.439 143.63 276.037 446.148 145.151 276.363 
455.847 144.499 276.427 458.258 147.057 275.746 444.59 147.945 275.648 
459.224 148.012 276.703 444.522 150.037 275.882 459.435 150.635 276.991 
454.971 155.278 276.647 448.245 154.935 276.53 457.925 145.872 276.823 
459.422 147.723 277.552 444.503 148.634 276.236 459.864 150.134 277.739 
445.596 152.54 277.004 455.33 155.654 277.656 451.19 155.993 277.034 
453.98 142.939 278.293 459.846 148.311 278.519 459.888 151.685 279.058 
458.608 153.434 278.244 454.454 156.197 278.108 451.426 156.323 278.336 
453.298 156.385 278.215 449.097 142.602 279.487 456.06 143.549 278.639 
446.217 144.686 278.862 445.428 145.857 278.773 445.021 148.792 278.859 
446.574 153.583 278.365 455.481 156.166 279.158 451.06 156.28 279.269 
448.927 142.647 279.903 451.816 142.247 280.084 453.151 142.367 280.083 
446.599 144.243 279.995 447.715 143.345 280.011 457.336 144.268 279.932 
458.043 145.097 279.233 445.359 146.338 279.455 446.714 153.287 279.301 
447.259 153.518 279.89 446.973 153.486 279.588 446.423 144.694 280.86 
445.845 145.648 280.454 460.593 151.139 281.239 446.864 153.439 279.469 
448.318 154.657 279.753 450.188 142.329 281.296 447.856 143.367 281.549 
456.933 143.979 281.1 445.896 146.492 281.266 446.916 149.183 282.474 
459.992 153.423 281.912 451.541 156.163 280.609 449.284 142.687 282.076 
452.023 142.539 282.224 454.992 143.1 281.793 458.187 145.263 282.108 
460.49 152.878 283.131 458.413 155.437 282.588 455.961 156.099 282.825 
456.474 156.06 283.411 456.854 156.078 283.076 457.373 155.916 283.126 
447.708 143.974 282.885 452.735 143.168 283.608 446.591 145.341 282.451 
456.935 144.606 283.12 446.53 146.645 282.883 448.592 149.388 284.25 
458.982 155.183 283.645 457.543 155.837 284.07 456.814 156.049 283.611 
448.458 143.76 283.617 447.47 144.567 283.351 447.94 144.333 283.727 
446.982 145.574 283.317 458.064 145.881 284.091 460.729 149.89 284.534 
460.868 151.531 284.698 450.285 143.373 284.043 454.471 145.33 285.779 
450.071 149.421 285.309 460.482 153.296 285.462 460.325 153.75 285.764 
459.799 154.728 285.963 451.139 144.695 285.547 448.22 146.096 284.912 
458.495 147.141 285.814 459.848 148.75 285.898 457.342 155.209 285.986 
457.403 155.473 285.58 458.674 155.485 286.148 459.138 155.351 286.407 
448.657 145.319 284.993 448.478 146.697 285.233 448.964 146.516 285.558 
459.41 149.236 287.097 455.596 151.394 287.463 460.617 151.958 286.472 
456.774 154.265 286.607 458.176 154.623 287.273 458.371 154.841 287.213 
458.621 155.263 286.844 459.704 154.959 286.7 458.815 155.317 286.862 
459.194 155.292 286.82 459.287 149.508 287.452 459.782 150.166 287.344 
460.416 151.299 286.803 458.765 153.687 288.184 459.037 154.939 287.443 
459.265 155.089 287.356 459.628 154.962 287.347 459.306 155.182 287.172 
458.857 149.517 287.754 457.32 149.754 288.401 457.785 149.978 288.534 
457.858 151.393 288.598 459.736 151.438 288.124 458.586 152.733 288.525 
460.157 153.845 287.796 459.897 154.501 287.835 459.377 154.924 287.565 
459.634 154.786 287.657 457.568 149.941 288.639 457.593 149.976 288.714 
457.556 149.971 288.699 458.234 150.131 288.477 457.641 150.024 288.683 
458.678 150.471 288.514 457.459 150.001 288.612 457.709 150.204 288.651 
[...]
POINT_DATA 440
SCALARS scalars float
LOOKUP_TABLE default
1 1 1 1 1 1 1 1 1 
1 1 1 1 1 1 1 1 1 
1 1 1 1 1 1 1 1 1 
1 1 1 1 1 1 1 1 1 
1 1 1 1 1 1 1 1 1 
1 1 1 1 1 1 1 1 1 
1 1 1 1 1 1 1 1 1 
1 1 1 1 1 1 1 1 1 
1 1 1 1 1 1 1 1 1 
1 1 1 1 1 1 1 1 1 
1 1 1 1 1 1 1 1 1 
1 1 1 1 1 1 1 1 1 
1 1 1 1 1 1 1 1 1 
1 1 1 1 1 1 1 1 1 
1 1 1 1 1 1 1 1 1 
1 1 1 1 1 1 1 1 1 
1 1 1 1 1 1 1 1 1 
1 1 1 1 1 1 1 1 1 
1 1 1 1 1 1 1 1 1 
1 1 1 1 1 1 1 1 1 
1 1 1 1 1 1 1 1 1 
1 1 1 1 1 1 1 1 1 
1 1 1 1 1 1 1 1 1 
1 1 1 1 1 1 1 1 1 
1 1 1 1 1 1 1 1 1 
1 1 1 1 1 1 1 1 1 
1 1 1 1 1 1 1 1 1 
1 1 1 1 1 1 1 1 1 
1 1 1 1 1 1 1 1 1 
1 1 1 1 1 1 1 1 1 
1 1 1 1 1 1 1 1 1 
1 1 1 1 1 1 1 1 1 
1 1 1 1 1 1 1 1 1 
1 1 1 1 1 1 1 1 1 
1 1 1 1 1 1 1 1 1 
1 1 1 1 1 1 1 1 1 
1 1 1 1 1 1 1 1 1 
1 1 1 1 1 1 1 1 1 
1 1 1 1 1 1 1 1 1 
1 1 1 1 1 1 1 1 1 
1 1 1 1 1 1 1 1 1 
1 1 1 1 1 1 1 1 1 
1 1 1 1 1 1 1 1 1 
1 1 1 1 1 1 1 1 1 
1 1 1 1 1 1 1 1 1 
1 1 1 1 1 1 1 1 1 
1 1 1 1 1 1 1 1 1 
1 1 1 1 1 1 1 1 1 
1 1 1 1 1 1 1 1 
NORMALS Normals float
-0.0500701 -0.246263 -0.967909 -0.369666 0.0840795 -0.925353 -0.353343 0.138939 -0.925119 
0.00623126 -0.256086 -0.966634 0.0610832 -0.159846 -0.98525 0.0870636 0.133354 -0.987237 
0.481083 -0.354164 -0.801952 -0.112298 0.113754 -0.987142 0.427256 -0.0189714 -0.903932 
0.218195 0.156522 -0.963271 0.517458 0.143092 -0.84366 0.30772 0.496626 -0.811585 
-0.300731 0.230229 -0.925503 -0.236183 0.903719 -0.357085 0.629537 -0.153618 -0.761633 
0.815536 0.570432 -0.0975071 -0.379117 0.0211979 -0.925106 0.0789471 -0.215318 -0.973348 
-0.324382 0.396673 -0.858736 0.870403 -0.106717 -0.480635 -0.279807 0.453742 -0.846065 
0.155121 0.111814 -0.981547 -0.490903 0.60746 -0.624505 0.902271 -0.00976752 -0.431058 
-0.00109031 0.991979 -0.126394 0.3322 -0.497417 -0.801386 -0.209878 -0.232006 -0.949802 
-0.143033 -0.299778 -0.943226 0.689089 -0.273424 -0.671115 0.490192 -0.281185 -0.825013 
-0.309134 0.0760249 -0.947975 -0.170928 0.314987 -0.933577 0.835139 -0.236457 -0.49662 
0.972342 0.180403 -0.148341 -0.145804 0.901108 -0.408345 0.94848 0.314171 0.0410074 
0.529771 0.848138 -0.00197871 -0.419284 -0.323226 -0.848366 -0.252432 -0.387852 -0.886481 
-0.131651 -0.31894 -0.938587 -0.022973 -0.26409 -0.964224 -0.342865 -0.0047721 -0.939373 
-0.160873 -0.0938091 -0.982507 -0.299774 0.101053 -0.948643 0.069698 -0.521272 -0.850539 
0.756605 -0.336182 -0.56083 -0.370052 0.0931239 -0.924332 0.812604 -0.301881 -0.498541 
0.951532 -0.0948612 -0.292554 -0.291297 0.762619 -0.577545 0.778603 0.625911 0.0448728 
-0.116668 -0.570297 -0.813111 0.208815 -0.399519 -0.892626 0.252974 -0.570701 -0.78122 
-0.0246932 -0.429871 -0.902552 -0.616948 0.0424891 -0.785856 0.146665 -0.473785 -0.868341 
0.6658 -0.583134 -0.465472 -0.559351 0.22881 -0.796726 -0.0239246 -0.346552 -0.937726 
0.944211 -0.168106 -0.283208 -0.456912 0.332573 -0.825001 0.0100049 0.942342 -0.334501 
-0.160551 0.944763 -0.285739 0.252531 0.928605 -0.271882 -0.298298 -0.780767 -0.549019 
-0.730894 -0.0653247 -0.679358 0.146085 -0.581693 -0.800183 0.295474 -0.6247 -0.722803 
-0.574078 0.412461 -0.707326 -0.350972 0.241141 -0.904804 -0.491761 0.468985 -0.733638 
0.985141 0.0359605 -0.167938 -0.169943 0.950078 -0.261669 0.363053 0.927877 -0.0850716 
0.618588 0.785106 0.0309215 -0.357271 -0.713067 -0.603236 -0.543876 -0.661051 -0.516925 
-0.0702735 -0.730851 -0.67891 -0.624407 -0.394336 -0.674252 0.254631 -0.753448 -0.6062 
-0.746612 0.274726 -0.605885 0.877596 -0.408457 -0.250976 0.971254 -0.110652 -0.210767 
-0.0583095 0.972266 -0.226493 -0.0379042 -0.922137 -0.385001 -0.72126 -0.548691 -0.422756 
-0.868042 -0.164771 -0.468352 0.712341 -0.629695 -0.309927 0.362424 -0.699421 -0.616003 
0.98943 -0.119587 -0.0820253 0.858588 0.507074 0.0755179 -0.372234 0.783676 -0.497286 
0.151311 0.986485 0.0628611 0.36961 0.907664 0.198833 -0.406709 -0.856013 -0.319108 
0.271405 -0.890591 -0.364948 -0.688288 -0.693243 -0.213715 -0.858721 -0.417107 -0.29769 
0.923002 -0.372128 -0.0979205 0.982774 0.178863 -0.0465062 0.99307 0.0136966 0.116723 
-0.390545 0.763565 -0.51424 0.481045 0.857833 0.180885 0.0998758 0.985669 -0.135945 
-0.370072 -0.909731 -0.188247 0.0743158 -0.957977 -0.27705 0.616935 -0.760812 -0.201385 
0.611507 0.74207 0.274574 -0.321686 0.743895 -0.58578 -0.456895 0.618101 -0.639686 
0.446807 0.875623 0.183432 -0.0842385 0.926007 -0.367988 0.278882 -0.951948 -0.126566 
0.46186 -0.861853 -0.20951 -0.920393 -0.237917 -0.310278 -0.92701 -0.0447076 -0.372362 
-0.844338 0.150234 -0.514318 0.989774 -0.0476784 0.134441 0.888481 0.409622 0.20691 
-0.296326 0.74422 -0.598605 -0.186628 0.861045 -0.473045 -0.21838 0.945572 -0.241254 
-0.0652623 -0.991148 0.115615 0.729768 -0.676349 0.0999528 -0.824879 0.259294 -0.502336 
0.947269 0.246254 0.205036 0.729277 0.60153 0.326063 -0.665927 0.619285 -0.415965 
-0.466301 0.838519 -0.281867 0.144709 0.988617 -0.0411804 0.015396 -0.9749 0.222109 
0.884968 -0.464266 0.0359044 0.505106 0.792733 0.341237 0.320397 0.920742 0.222666 
-0.684695 -0.728396 -0.0251423 0.334563 -0.925989 0.17496 -0.723343 -0.690433 -0.00878366 
0.440033 -0.849976 0.289677 -0.94382 -0.00392985 -0.330437 -0.901187 0.221709 -0.372434 
-0.247939 0.959345 0.134848 -0.879228 -0.475853 -0.0228385 -0.961651 -0.0426555 -0.270938 
0.951307 -0.126679 0.281012 -0.872972 0.380364 -0.305358 0.921962 0.185768 0.339818 
0.426095 0.779158 0.459735 0.0776223 0.987476 0.137354 -0.105977 -0.916343 0.386114 
0.824966 -0.367373 0.429497 0.902836 -0.309009 0.299001 -0.964699 -0.229989 -0.128296 
0.185915 0.924873 0.33173 0.694677 -0.645135 0.318159 -0.818836 -0.565487 0.0986516 
-0.864896 -0.441155 0.239452 -0.999668 -0.025083 0.00588471 -0.977038 0.13795 -0.162377 
0.884181 0.0374147 0.465644 0.727885 0.507171 0.461476 0.258171 0.82127 0.508786 
-0.580091 -0.77051 0.264214 0.0112078 -0.85588 0.517052 -0.963479 -0.201351 0.176537 
-0.978066 0.204545 0.0393377 0.55733 0.522572 0.645215 0.726505 0.359578 0.585572 
-0.860608 0.501859 -0.0865549 -0.605909 0.795363 0.0165031 -0.323098 0.880023 0.34809 
-0.422713 -0.77959 0.462118 -0.661292 -0.575696 0.480902 0.19312 -0.701536 0.685968 
0.497089 -0.621172 0.605845 0.67195 -0.241907 0.699974 0.493254 0.617241 0.612955 
-0.736808 0.659234 0.150081 -0.54756 0.802592 0.236696 -0.350945 0.861106 0.367879 
-0.0389859 0.853623 0.519431 -0.521751 -0.546201 0.655317 -0.250896 -0.655675 0.712139 
0.330344 -0.444815 0.832474 -0.956989 -0.107431 0.269502 0.795007 0.160698 0.584928 
0.658814 0.209788 0.722463 -0.915144 0.218198 0.33897 -0.666547 0.453952 0.591306 
0.358051 0.560123 0.747036 -0.929497 0.358859 0.085185 0.259577 0.599251 0.75731 
-0.511769 0.671643 0.535713 -0.402093 0.786026 0.469557 -0.083144 0.716067 0.693063 
0.0364069 -0.469163 0.882361 0.466675 -0.201836 0.86109 -0.7978 0.00780719 0.602871 
-0.726058 0.258615 0.637148 0.467736 0.182282 0.864868 -0.480489 0.548672 0.68417 
-0.281012 -0.53204 0.798727 -0.623707 -0.437995 0.647418 -0.0994986 -0.388318 0.916138 
0.140725 -0.276684 0.950601 -0.787617 -0.251968 0.562292 0.33787 -0.286588 0.8965 
0.320966 -0.06132 0.945103 0.282776 0.278915 0.917738 -0.587677 0.103223 0.802484 
-0.487329 0.316531 0.813829 0.113243 0.246959 0.962386 0.163097 0.222529 0.961187 
-0.0444793 0.491219 0.8699 -0.45271 -0.257574 0.853644 0.174947 -0.144217 0.973958 
-0.315118 0.100885 0.943675 0.0582648 0.0588103 0.996567 0.0961774 0.00771572 0.995334 
-0.10398 0.326187 0.939569 -0.325341 -0.265739 0.907489 -0.12917 -0.262417 0.95627 
-0.362654 -0.187225 -0.912923 -0.105191 -0.242306 -0.964481 -0.613838 -0.227854 -0.755834 
0.0380889 0.000281492 -0.999274 0.259286 0.0345928 -0.965181 -0.208449 0.155674 -0.965564 
-0.587213 0.271651 -0.762487 0.136365 0.211303 -0.967861 -0.377273 -0.536534 -0.754849 
-0.214896 -0.577031 -0.787944 -0.0453178 -0.550323 -0.833721 -0.811343 -0.0292799 -0.583837 
0.19436 -0.188349 -0.962678 0.295936 -0.345143 -0.890673 -0.602923 0.0127326 -0.797698 
-0.826877 0.0661042 -0.558484 0.322035 0.0952441 -0.941925 0.400821 0.139252 -0.905512 
-0.0505 0.285103 -0.957166 0.326407 0.241446 -0.913872 -0.277027 0.562171 -0.779243 
0.119091 0.571505 -0.811911 -0.703429 -0.465456 -0.537158 -0.810534 -0.229897 -0.538685 
0.623361 -0.00418275 -0.781923 0.450401 0.440971 -0.776327 -0.670889 0.637827 -0.378266 
-0.0715253 0.780615 -0.620906 -0.271486 0.785475 -0.55617 0.0359713 -0.65022 -0.758894 
-0.688097 -0.659444 -0.302749 0.563145 -0.282912 -0.77642 0.747863 -0.0720392 -0.659932 
-0.864706 0.307044 -0.397502 -0.348383 -0.738339 -0.577481 -0.390682 -0.847507 -0.359303 
0.509335 -0.553973 -0.658553 -0.869363 -0.46724 -0.160919 -0.937345 -0.115663 -0.328643 
0.851603 -0.0377667 -0.522825 -0.976474 0.111197 -0.184752 0.720755 0.475789 -0.50412 
0.395822 0.652925 -0.645765 -0.291326 0.855183 -0.428709 0.254204 0.709603 -0.657149 
0.240961 -0.736649 -0.631891 -0.993478 -0.0824139 -0.0788053 -0.942941 0.310635 -0.119866 
0.113492 0.85136 -0.512158 0.0448238 -0.885596 -0.462289 -0.699133 -0.687532 -0.196249 
0.443043 -0.791153 -0.421651 0.721832 -0.408995 -0.558285 -0.919944 -0.389529 0.0443937 
0.904061 -0.257012 -0.341494 -0.983962 0.135861 0.115589 0.878682 0.239994 -0.412699 
0.461074 0.727478 -0.508121 -0.424379 0.863872 -0.271344 0.719809 -0.622469 -0.307258 
0.861946 -0.464312 -0.203627 -0.994382 0.019338 0.104074 0.942598 0.023577 -0.333097 
-0.87748 0.461949 0.128964 0.374831 0.805105 -0.459682 -0.194093 0.928111 -0.317707 
0.205984 -0.943022 -0.261307 0.918614 -0.375998 -0.12155 0.854833 0.407978 -0.320647 
0.68966 0.612503 -0.386275 0.155115 0.944646 -0.289109 -0.0546623 0.992602 -0.108417 
0.0674159 0.943646 -0.324018 -0.196216 -0.941338 -0.274557 0.470577 -0.863241 -0.182682 
-0.747269 -0.664425 0.0113253 -0.913462 -0.406776 0.0110267 -0.959898 0.0311023 0.278618 
-0.730871 0.646383 0.219125 0.398369 0.885707 -0.23838 -0.382641 0.923574 0.0244543 
-0.414322 -0.909223 0.0406206 0.0237521 -0.989421 -0.143118 0.221538 -0.971594 -0.0832269 
-0.716635 -0.697329 0.0128886 -0.53233 -0.845995 -0.0302907 0.673988 -0.725807 -0.137639 
0.836543 -0.541875 -0.0810427 -0.930077 -0.30298 0.207752 -0.873787 0.232495 0.427133 
-0.545084 0.596417 0.589212 -0.689108 0.535174 0.488588 -0.830711 -0.495932 0.252924 
-0.9133 -0.339517 0.224969 0.978276 0.0698033 -0.195199 -0.78106 0.439953 0.443156 
-0.550286 0.759973 0.345871 -0.208084 -0.963696 0.167308 -0.611921 -0.774903 0.158359 
0.496551 -0.859304 0.122611 -0.93251 -0.110391 0.343858 -0.802922 0.393899 0.447392 
0.803818 0.546432 -0.235134 -0.29089 0.867198 0.404166 -0.364743 -0.889222 0.276129 
0.0840552 -0.964937 0.248657 0.370758 -0.878745 0.300576 0.83507 -0.534388 0.130718 
0.897053 0.416463 -0.147833 0.623316 0.761161 -0.179193 -0.00107957 0.99998 0.00623657 
-0.18927 0.909728 0.369557 0.151072 0.972736 -0.175961 0.304852 0.940901 -0.147551 
-0.694747 -0.640725 0.326799 0.132115 -0.894929 0.426201 -0.849148 -0.400136 0.344729 
0.420327 -0.836379 0.351845 -0.845609 0.0334808 0.532752 -0.647667 0.440931 0.621376 
0.641274 0.759276 -0.110762 0.155923 0.9641 0.214942 0.0155016 0.948466 0.316499 
-0.427836 -0.701831 0.569552 -0.778864 -0.469947 0.415356 -0.647846 -0.46962 0.599793 
-0.805573 -0.308852 0.50563 0.737958 -0.598222 0.312328 0.958821 -0.247301 0.139658 
0.975845 0.169193 -0.138206 -0.0851649 -0.833605 0.545755 0.24236 -0.751998 0.612992 
-0.460161 0.599169 0.65517 0.881458 0.386626 -0.271205 0.9252 0.37932 -0.0110097 
0.753344 0.60647 -0.254296 -0.168168 -0.544483 0.821741 -0.748879 -0.0932172 0.656118 
0.512829 -0.674503 0.531086 0.736385 -0.618251 0.274776 -0.424142 0.774246 0.46973 
-0.286898 0.880643 0.377037 0.00477795 0.979259 0.202555 0.415918 0.908076 0.0491006 
-0.493642 -0.385377 0.779617 -0.658274 0.0214264 0.752473 -0.433442 0.0235975 0.900873 
0.752133 -0.555833 0.354042 -0.471488 0.267401 0.840355 0.985817 -0.00802376 0.16763 
-0.516268 0.539917 0.664798 -0.477227 0.567232 0.671194 -0.405585 0.684775 0.605461 
-0.381341 0.814191 0.437805 0.755392 0.655175 -0.0113664 -0.106906 0.905383 0.410916 
0.508682 0.860312 0.0332518 0.571589 -0.459213 0.680007 0.740987 -0.368555 0.561343 
0.930349 -0.311696 0.193125 -0.34314 0.378994 0.859429 -0.286724 0.600647 0.746333 
-0.0525938 0.82169 0.567503 0.566465 0.79047 0.232967 0.251568 0.887168 0.386841 
0.401646 -0.590737 0.699793 -0.153821 -0.506491 0.848414 0.426233 -0.586805 0.688466 
-0.448774 0.217003 0.866898 0.741804 -0.284188 0.607424 -0.33098 0.344275 0.878594 
0.975919 0.141126 0.166327 0.818522 0.549 0.169177 0.00799499 0.672515 0.74004 
0.249973 0.745701 0.617612 0.0859186 -0.860044 0.502933 0.170677 -0.447391 0.877901 
-0.487331 -0.472574 0.73429 0.270524 -0.568074 0.777244 0.458425 -0.114669 0.881304 
0.376474 -0.481441 0.791506 -0.668216 -0.12139 0.733997 0.114217 0.0720582 0.990839 
-0.0844285 -0.216675 0.972586 -0.466227 0.122831 0.876096 0.274159 -0.716891 0.641018 
-0.61627 0.102663 0.780815 -0.270132 0.399047 0.876237 -0.214721 0.3401 0.915547 
0.64109 -0.00759178 0.767428 0.00648249 0.415803 0.909432 0.144257 0.166022 0.975514 
-0.20033 0.261516 0.944181 0.00277131 0.487122 0.873329 0.510782 0.773036 0.376187 
-0.0275005 0.738335 0.673873 -0.279061 0.261712 0.923922 -0.258255 0.295421 0.919799 
-0.504484 -0.776311 0.377938 -0.216762 -0.718705 0.660664 -0.758358 -0.0156812 0.65165 
0.62601 -0.701581 0.340433 0.875891 -0.140802 0.461508 0.434957 -0.0700659 0.897721 
0.0656659 0.601993 0.795797 0.629581 -0.213924 0.746903 0.0939367 0.0130301 0.995493 
0.89094 -0.173609 0.419626 0.953552 -0.179964 0.241561 0.954898 0.143156 0.260146 
0.442593 0.270879 0.854831 0.494677 0.368429 0.787118 0.688299 0.513313 0.512596 
0.0460559 0.436714 0.898421 0.779248 0.191088 0.596873 0.317191 0.190304 0.929072 
0.368067 0.0512542 0.928386 0.944954 -0.137081 0.297105 
