# vtk DataFile Version 4.2
vtk output
ASCII
DATASET POLYDATA
POINTS 4371 float
286.178 162.396 112.476 279.442 164.536 111.781 272.57 161.138 112.015 
286.661 164.217 113.026 270.17 167.172 112.498 270.779 157.697 112.851 
288.894 158.163 113.472 281.665 167.743 112.886 285.813 168.624 114.399 
275.434 169.745 113.11 263.838 167.84 113.976 278.166 172.571 114.841 
272.669 153.269 114.462 265.539 153.702 114.712 293.918 160.819 116.211 
255.342 160.816 116.054 254.712 157.991 116.399 292.294 164.709 116.452 
289.738 167.636 116.311 284.484 171.959 116.332 256.136 154.138 116.71 
295.973 155.229 117.315 291.336 167.61 117.689 262.117 171.301 116.002 
269.056 174.589 116.131 254.722 152.473 118.171 297.8 153.005 118.959 
296.065 162.461 118.686 291.265 146.157 119.077 261.621 147.304 119.561 
295.487 150.881 118.449 296.845 151.531 118.808 298.308 151.974 119.678 
296.605 163.341 119.906 262.075 146.376 120.492 255.667 149.291 120.218 
252.606 151.481 120.384 248 154.009 120.017 248 154.009 120.017 
248 154.009 120.017 248 154.009 120.017 248 154.009 120.017 
299.22 154.874 119.808 248 154.009 120.018 291.196 170.686 121.197 
273.105 180.546 121.172 283.256 142.23 121.577 299.955 150.276 121.954 
252.344 150.234 122.261 249.786 152.638 122.324 300.753 153.018 122.344 
245 159.009 122.017 245 159.009 122.017 245 159.009 122.017 
245 159.009 122.017 247.577 158.761 121.987 245 159.009 122.017 
300.328 159.7 122.45 298.951 144.4 124.013 247.558 154.376 123.659 
245 159.009 122.018 255.156 176.334 123.169 279.386 180.624 123.294 
295.369 141.675 123.698 246.962 154.988 124.106 298.374 164.425 123.788 
248.433 170.199 124.282 248.358 152.249 125.126 243 157.009 125.017 
243 157.009 125.017 243 157.009 125.017 243 157.009 125.017 
243 157.009 125.017 301.06 159.238 125.114 300.272 143.694 125.762 
249.557 150.92 125.8 243 157.009 125.018 301.477 144.124 127.049 
245.378 154.945 127.21 244.523 156.27 127.312 296.439 137.429 128.896 
298.572 139.405 127.827 338.925 132.937 131.804 338.888 132.833 131.895 
339.018 133.007 131.774 339.03 132.894 131.851 339.118 133.019 131.815 
339.345 133.272 131.876 339.307 133.371 131.867 339.37 133.323 131.896 
300.593 140.374 128.988 279.961 183.443 128.766 271.153 186.804 129.203 
338.697 132.736 132.052 338.577 132.58 132.263 338.435 132.678 132.194 
338.003 132.954 132.209 339.239 133.176 131.872 338.86 133.372 131.789 
339.114 133.453 131.821 338.844 138.363 132.478 338.7 138.883 132.452 
338.52 139.3 132.458 338.727 139.284 132.632 334.549 145.443 133.091 
338.576 132.464 132.539 338.844 132.523 132.443 336.342 133.196 132.964 
337.079 132.793 132.894 338.97 132.627 132.263 339.144 132.783 132.236 
287.374 135.629 130.825 338.823 134.628 132.017 338.268 136.009 131.938 
339.362 134.933 132.611 283.112 136.871 131.15 338.534 136.323 132.062 
338.916 136.11 132.316 337.118 138.2 131.914 336.964 138.121 131.951 
337.168 138.099 131.927 338.295 136.864 131.998 339.175 136.786 132.706 
337.189 138.272 131.923 339.267 138.363 133.141 337.47 140.625 132.388 
336.793 141.21 132.351 338.497 141.179 133.343 336.004 143.132 132.721 
337.128 142.938 132.998 303.485 146.503 131.341 334.519 144.95 133.072 
334.863 145.177 133.166 334.026 146.056 133.425 334.495 145.963 133.394 
330.422 149.569 134.27 330.388 149.56 134.289 330.396 149.593 134.318 
330.439 149.525 134.283 330.447 149.558 134.312 241.362 165.571 131.026 
339.164 132.715 132.528 339.047 132.588 132.741 294.929 135.174 132.357 
337.568 136.548 131.897 337.322 138.479 131.988 262.617 140.851 132.234 
339.005 139.835 133.513 337.745 143.083 133.486 337.5 143.597 133.561 
334.615 146.095 133.55 330.393 149.476 134.318 330.267 149.591 134.402 
330.52 149.416 134.369 330.435 149.639 134.458 324.806 154.32 135.274 
320.44 158.304 135.242 320.429 158.274 135.267 320.399 158.327 135.271 
320.465 158.267 135.279 320.435 158.32 135.283 282.486 183.105 131.702 
292.023 134.425 133.162 333.738 134.129 134 334.931 136.205 132.695 
339.571 136.5 133.602 300.776 138.599 132.719 270.703 139.699 132.055 
339.425 138.534 133.932 333.922 141.029 132.864 332.518 146.251 133.799 
333.61 147.039 134.11 334.673 146.662 134.137 330.331 149.239 134.385 
332.277 147.761 134.382 330.836 148.962 134.47 329.866 149.507 134.501 
330.028 150.061 134.733 325.167 153.252 135.271 325.741 153.34 135.432 
324.101 154.595 135.285 323.324 155.39 135.34 324.855 154.603 135.541 
320.49 158.132 135.362 320.315 158.301 135.337 320.494 158.268 135.396 
319.001 159.44 135.366 319.112 159.021 135.399 320.341 158.398 135.381 
318.602 159.567 135.31 319.185 159.483 135.469 317.979 159.989 135.445 
318.584 159.97 135.438 318.809 159.925 135.542 317.895 160.238 135.507 
317.576 160.402 135.687 317.793 160.468 135.632 318.314 160.335 135.69 
297.952 168.549 132.406 241.735 171.349 133.143 338.11 132.18 133.664 
338.906 132.485 133.817 339.244 132.845 133.87 332.885 133.498 135.081 
332.09 135.084 134.409 339.588 136.753 134.101 339.53 137.57 134.236 
265.471 139.473 134.543 307.108 139.91 137.034 306.924 140.169 136.991 
307.32 139.975 136.995 339.43 138.174 134.546 302.563 141.07 133.02 
307.125 140.444 136.841 307.455 140.232 136.919 307.154 140.78 136.807 
306.927 140.846 136.873 307.409 141.015 136.802 303.622 144.133 133.265 
338.124 143.367 134.17 338.49 142.715 134.827 337.556 145.096 135.125 
337.73 144.974 135.151 330.091 146.539 134.362 336.173 145.769 134.303 
331.041 147.854 134.332 332.299 148.506 134.775 327.312 150.889 135.06 
329.203 151.158 135.258 326.615 152.949 135.628 323.514 154.125 135.289 
302.534 154.741 134.359 322.763 155.559 135.369 323.894 155.171 135.506 
319.892 158.654 135.482 320.468 158.467 135.693 319.544 159.291 135.653 
317.282 160.505 135.951 317.603 160.562 135.69 317.638 160.607 135.726 
318.116 160.514 135.95 317.554 160.628 135.744 339.081 132.571 134.128 
339.04 132.52 134.379 336.795 132.015 135.284 337.582 132.088 134.302 
337.532 132.06 134.89 293.749 134.578 134.273 330.296 134.056 136.203 
339.519 134.166 134.407 288.136 135.163 134.391 296.801 135.596 134.663 
328.996 135.696 135.74 305 137.009 135.017 305 137.009 135.017 
305 137.009 135.017 305 137.009 135.017 265.674 139.273 135.563 
305 137.009 135.017 260.484 140.455 135.548 262.378 139.921 135.146 
306.843 139.659 137.241 306.573 139.561 137.395 307.575 139.989 137.079 
306.759 142.238 136.964 307.605 143.491 136.918 332.632 148.752 135.085 
334.512 147.971 135.571 325.56 149.382 135.429 332.091 149.61 135.509 
333.293 149.041 135.831 330.621 150.662 135.576 329.018 151.55 135.535 
326.664 153.657 136.103 321.093 157.114 135.617 321.095 158.019 135.984 
318.968 157.929 135.671 316.167 160.582 136.694 315.863 160.939 137.054 
317.23 160.753 136.264 316.794 161.05 136.864 317.725 160.729 136.29 
339.049 132.583 134.562 338.85 132.445 134.62 339.135 132.793 134.646 
335.396 132.099 136.256 336.212 132.065 135.324 333.516 132.797 135.603 
334.365 132.352 136.026 290.204 134.737 135.172 291.839 134.647 135.24 
294.628 135 135.536 326.676 135.193 137.339 328.1 134.427 137.262 
339.294 134.556 135.241 323 135.009 136.017 323 135.009 136.017 
323 135.009 136.017 323 135.009 136.017 323 135.009 136.017 
300.771 138.394 134.355 305.903 138.068 138.433 305.902 138.032 138.522 
305 137.009 135.017 262.729 139.616 136.095 265.535 139.281 136.093 
267.719 139.257 135.658 267.836 139.249 135.905 306.347 139.07 137.766 
271.264 139.903 135.553 277.066 139.778 135.804 306.221 140.024 137.599 
306.403 140.408 137.309 302.56 141.134 135.071 274.278 141.213 137.177 
306.481 141.983 137.098 303.549 143.237 135.698 305.581 143.328 137.332 
308.995 142.936 137.101 338.525 142.576 135.858 304.11 144.364 135.925 
305.532 144.472 137.192 304.294 145.498 136.058 305.548 145.339 137.53 
327.572 146.018 135.236 303.727 148.193 135.793 334.28 148.672 136.336 
333.117 149.733 136.633 327.021 154.012 136.716 320.184 155.05 135.947 
302.392 155.165 136.143 323.521 156.366 136.265 240.858 157.581 135.266 
320.272 159.416 137.041 317.892 160.846 137.133 314.972 161.099 137.641 
316.661 161.371 137.573 341 129.009 137.017 341 129.009 137.017 
341 129.009 137.017 341 129.009 137.017 338.03 132.172 135.764 
337.825 132.135 136.127 338.249 132.276 135.717 341 129.009 137.017 
337.164 132.054 136.126 333.055 132.542 136.886 338.576 132.933 135.901 
293.485 134.88 135.728 330.351 133.474 137.015 291.383 135.09 136.1 
291.036 135.269 136.28 323 135.009 136.017 323.069 136.776 138.785 
322.919 136.842 138.845 323.259 136.66 138.827 323.45 136.878 138.502 
299.839 137.806 135.568 306.146 138.058 138.488 306.528 138.148 138.316 
306.844 138.065 138.496 309 137.009 137.017 309 137.009 137.017 
309 137.009 137.017 309 137.009 137.017 323.217 136.992 138.572 
338.439 136.719 136.653 262.699 139.672 136.298 268.267 139.347 136.333 
306.042 138.334 138.316 305.838 138.261 138.627 309 137.009 137.017 
318 138.009 137.017 318 138.009 137.017 318 138.009 137.017 
318 138.009 137.017 261.786 139.975 136.475 318 138.009 137.017 
302.093 140.695 135.977 257.375 142.143 136.277 271.427 140.686 136.936 
309.765 141.231 137.703 310.565 140.908 138.343 305.384 142.321 138.03 
311.014 142.101 137.991 303.324 143.261 137.371 303.161 142.831 136.638 
304.947 142.75 138.369 304.613 143.246 138.074 304.903 143.242 137.638 
311.187 142.522 137.938 304.116 143.566 137.195 304.771 144.254 136.899 
304.821 145.313 137.025 304.101 146.466 136.748 304.647 145.839 137.785 
305.569 145.961 138.198 309.757 145.46 137.639 337.892 144.556 136.487 
306.456 146.571 138.457 324.419 146.252 136.386 309.122 146.757 137.982 
247.516 149.023 136.378 334.545 148.714 136.865 313.582 160.279 138.322 
314.394 160.354 137.767 314.749 159.411 137.59 297.878 169.168 136.615 
341 129.009 137.017 337.518 132.085 136.246 337.91 132.253 136.289 
338.139 132.386 136.151 336.517 132.214 137.02 331.008 133.085 137.467 
[...]
POINT_DATA 4371
SCALARS scalars float
LOOKUP_TABLE default
1 1 1 1 1 1 1 1 1 
1 1 1 1 1 1 1 1 1 
1 1 1 1 1 1 1 1 1 
1 1 1 1 1 1 1 1 1 
1 1 1 1 1 1 1 1 1 
1 1 1 1 1 1 1 1 1 
1 1 1 1 1 1 1 1 1 
1 1 1 1 1 1 1 1 1 
1 1 1 1 1 1 1 1 1 
1 1 1 1 1 1 1 1 1 
1 1 1 1 1 1 1 1 1 
1 1 1 1 1 1 1 1 1 
1 1 1 1 1 1 1 1 1 
1 1 1 1 1 1 1 1 1 
1 1 1 1 1 1 1 1 1 
1 1 1 1 1 1 1 1 1 
1 1 1 1 1 1 1 1 1 
1 1 1 1 1 1 1 1 1 
1 1 1 1 1 1 1 1 1 
1 1 1 1 1 1 1 1 1 
1 1 1 1 1 1 1 1 1 
1 1 1 1 1 1 1 1 1 
1 1 1 1 1 1 1 1 1 
1 1 1 1 1 1 1 1 1 
1 1 1 1 1 1 1 1 1 
1 1 1 1 1 1 1 1 1 
1 1 1 1 1 1 1 1 1 
1 1 1 1 1 1 1 1 1 
1 1 1 1 1 1 1 1 1 
1 1 1 1 1 1 1 1 1 
1 1 1 1 1 1 1 1 1 
1 1 1 1 1 1 1 1 1 
1 1 1 1 1 1 1 1 1 
1 1 1 1 1 1 1 1 1 
1 1 1 1 1 1 1 1 1 
1 1 1 1 1 1 1 1 1 
1 1 1 1 1 1 1 1 1 
1 1 1 1 1 1 1 1 1 
1 1 1 1 1 1 1 1 1 
1 1 1 1 1 1 1 1 1 
1 1 1 1 1 1 1 1 1 
1 1 1 1 1 1 1 1 1 
1 1 1 1 1 1 1 1 1 
1 1 1 1 1 1 1 1 1 
1 1 1 1 1 1 1 1 1 
1 1 1 1 1 1 1 1 1 
1 1 1 1 1 1 1 1 1 
1 1 1 1 1 1 1 1 1 
1 1 1 1 1 1 1 1 1 
1 1 1 1 1 1 1 1 1 
1 1 1 1 1 1 1 1 1 
1 1 1 1 1 1 1 1 1 
1 1 1 1 1 1 1 1 1 
1 1 1 1 1 1 1 1 1 
1 1 1 1 1 1 1 1 1 
1 1 1 1 1 1 1 1 1 
1 1 1 1 1 1 1 1 1 
1 1 1 1 1 1 1 1 1 
1 1 1 1 1 1 1 1 1 
1 1 1 1 1 1 1 1 1 
1 1 1 1 1 1 1 1 1 
1 1 1 1 1 1 1 1 1 
1 1 1 1 1 1 1 1 1 
1 1 1 1 1 1 1 1 1 
1 1 1 1 1 1 1 1 1 
1 1 1 1 1 1 1 1 1 
1 1 1 1 1 1 1 1 1 
1 1 1 1 1 1 1 1 1 
1 1 1 1 1 1 1 1 1 
1 1 1 1 1 1 1 1 1 
1 1 1 1 1 1 1 1 1 
1 1 1 1 1 1 1 1 1 
1 1 1 1 1 1 1 1 1 
1 1 1 1 1 1 1 1 1 
1 1 1 1 1 1 1 1 1 
1 1 1 1 1 1 1 1 1 
1 1 1 1 1 1 1 1 1 
1 1 1 1 1 1 1 1 1 
1 1 1 1 1 1 1 1 1 
1 1 1 1 1 1 1 1 1 
1 1 1 1 1 1 1 1 1 
1 1 1 1 1 1 1 1 1 
1 1 1 1 1 1 1 1 1 
1 1 1 1 1 1 1 1 1 
1 1 1 1 1 1 1 1 1 
1 1 1 1 1 1 1 1 1 
1 1 1 1 1 1 1 1 1 
1 1 1 1 1 1 1 1 1 
1 1 1 1 1 1 1 1 1 
1 1 1 1 1 1 1 1 1 
1 1 1 1 1 1 1 1 1 
1 1 1 1 1 1 1 1 1 
1 1 1 1 1 1 1 1 1 
1 1 1 1 1 1 1 1 1 
1 1 1 1 1 1 1 1 1 
1 1 1 1 1 1 1 1 1 
1 1 1 1 1 1 1 1 1 
1 1 1 1 1 1 1 1 1 
1 1 1 1 1 1 1 1 1 
1 1 1 1 1 1 1 1 1 
1 1 1 1 1 1 1 1 1 
1 1 1 1 1 1 1 1 1 
1 1 1 1 1 1 1 1 1 
1 1 1 1 1 1 1 1 1 
1 1 1 1 1 1 1 1 1 
1 1 1 1 1 1 1 1 1 
1 1 1 1 1 1 1 1 1 
1 1 1 1 1 1 1 1 1 
1 1 1 1 1 1 1 1 1 
1 1 1 1 1 1 1 1 1 
1 1 1 1 1 1 1 1 1 
1 1 1 1 1 1 1 1 1 
1 1 1 1 1 1 1 1 1 
1 1 1 1 1 1 1 1 1 
1 1 1 1 1 1 1 1 1 
1 1 1 1 1 1 1 1 1 
1 1 1 1 1 1 1 1 1 
1 1 1 1 1 1 1 1 1 
1 1 1 1 1 1 1 1 1 
1 1 1 1 1 1 1 1 1 
1 1 1 1 1 1 1 1 1 
1 1 1 1 1 1 1 1 1 
1 1 1 1 1 1 1 1 1 
1 1 1 1 1 1 1 1 1 
1 1 1 1 1 1 1 1 1 
1 1 1 1 1 1 1 1 1 
1 1 1 1 1 1 1 1 1 
1 1 1 1 1 1 1 1 1 
1 1 1 1 1 1 1 1 1 
1 1 1 1 1 1 1 1 1 
1 1 1 1 1 1 1 1 1 
1 1 1 1 1 1 1 1 1 
1 1 1 1 1 1 1 1 1 
1 1 1 1 1 1 1 1 1 
1 1 1 1 1 1 1 1 1 
1 1 1 1 1 1 1 1 1 
1 1 1 1 1 1 1 1 1 
1 1 1 1 1 1 1 1 1 
1 1 1 1 1 1 1 1 1 
1 1 1 1 1 1 1 1 1 
1 1 1 1 1 1 1 1 1 
1 1 1 1 1 1 1 1 1 
1 1 1 1 1 1 1 1 1 
1 1 1 1 1 1 1 1 1 
1 1 1 1 1 1 1 1 1 
1 1 1 1 1 1 1 1 1 
1 1 1 1 1 1 1 1 1 
1 1 1 1 1 1 1 1 1 
1 1 1 1 1 1 1 1 1 
1 1 1 1 1 1 1 1 1 
1 1 1 1 1 1 1 1 1 
1 1 1 1 1 1 1 1 1 
1 1 1 1 1 1 1 1 1 
1 1 1 1 1 1 1 1 1 
1 1 1 1 1 1 1 1 1 
1 1 1 1 1 1 1 1 1 
1 1 1 1 1 1 1 1 1 
1 1 1 1 1 1 1 1 1 
1 1 1 1 1 1 1 1 1 
1 1 1 1 1 1 1 1 1 
1 1 1 1 1 1 1 1 1 
1 1 1 1 1 1 1 1 1 
1 1 1 1 1 1 1 1 1 
1 1 1 1 1 1 1 1 1 
1 1 1 1 1 1 1 1 1 
1 1 1 1 1 1 1 1 1 
1 1 1 1 1 1 1 1 1 
1 1 1 1 1 1 1 1 1 
1 1 1 1 1 1 1 1 1 
1 1 1 1 1 1 1 1 1 
1 1 1 1 1 1 1 1 1 
1 1 1 1 1 1 1 1 1 
1 1 1 1 1 1 1 1 1 
1 1 1 1 1 1 1 1 1 
1 1 1 1 1 1 1 1 1 
1 1 1 1 1 1 1 1 1 
1 1 1 1 1 1 1 1 1 
1 1 1 1 1 1 1 1 1 
1 1 1 1 1 1 1 1 1 
1 1 1 1 1 1 1 1 1 
1 1 1 1 1 1 1 1 1 
1 1 1 1 1 1 1 1 1 
1 1 1 1 1 1 1 1 1 
1 1 1 1 1 1 1 1 1 
1 1 1 1 1 1 1 1 1 
1 1 1 1 1 1 1 1 1 
1 1 1 1 1 1 1 1 1 
1 1 1 1 1 1 1 1 1 
1 1 1 1 1 1 1 1 1 
1 1 1 1 1 1 1 1 1 
1 1 1 1 1 1 1 1 1 
1 1 1 1 1 1 1 1 1 
1 1 1 1 1 1 1 1 1 
1 1 1 1 1 1 1 1 1 
1 1 1 1 1 1 1 1 1 
1 1 1 1 1 1 1 1 1 
1 1 1 1 1 1 1 1 1 
1 1 1 1 1 1 1 1 1 
1 1 1 1 1 1 1 1 1 
1 1 1 1 1 1 1 1 1 
1 1 1 1 1 1 1 1 1 
1 1 1 1 1 1 1 1 1 
1 1 1 1 1 1 1 1 1 
1 1 1 1 1 1 1 1 1 
1 1 1 1 1 1 1 1 1 
1 1 1 1 1 1 1 1 1 
1 1 1 1 1 1 1 1 1 
1 1 1 1 1 1 1 1 1 
1 1 1 1 1 1 1 1 1 
1 1 1 1 1 1 1 1 1 
1 1 1 1 1 1 1 1 1 
1 1 1 1 1 1 1 1 1 
1 1 1 1 1 1 1 1 1 
1 1 1 1 1 1 1 1 1 
1 1 1 1 1 1 1 1 1 
1 1 1 1 1 1 1 1 1 
1 1 1 1 1 1 1 1 1 
1 1 1 1 1 1 1 1 1 
1 1 1 1 1 1 1 1 1 
1 1 1 1 1 1 1 1 1 
1 1 1 1 1 1 1 1 1 
1 1 1 1 1 1 1 1 1 
1 1 1 1 1 1 1 1 1 
1 1 1 1 1 1 1 1 1 
1 1 1 1 1 1 1 1 1 
1 1 1 1 1 1 1 1 1 
1 1 1 1 1 1 1 1 1 
1 1 1 1 1 1 1 1 1 
1 1 1 1 1 1 1 1 1 
1 1 1 1 1 1 1 1 1 
1 1 1 1 1 1 1 1 1 
1 1 1 1 1 1 1 1 1 
1 1 1 1 1 1 1 1 1 
1 1 1 1 1 1 1 1 1 
1 1 1 1 1 1 1 1 1 
1 1 1 1 1 1 1 1 1 
1 1 1 1 1 1 1 1 1 
1 1 1 1 1 1 1 1 1 
1 1 1 1 1 1 1 1 1 
1 1 1 1 1 1 1 1 1 
1 1 1 1 1 1 1 1 1 
1 1 1 1 1 1 1 1 1 
1 1 1 1 1 1 1 1 1 
1 1 1 1 1 1 1 1 1 
1 1 1 1 1 1 1 1 1 
1 1 1 1 1 1 1 1 1 
1 1 1 1 1 1 1 1 1 
1 1 1 1 1 1 1 1 1 
1 1 1 1 1 1 1 1 1 
1 1 1 1 1 1 1 1 1 
1 1 1 1 1 1 1 1 1 
1 1 1 1 1 1 1 1 1 
1 1 1 1 1 1 1 1 1 
1 1 1 1 1 1 1 1 1 
1 1 1 1 1 1 1 1 1 
1 1 1 1 1 1 1 1 1 
1 1 1 1 1 1 1 1 1 
1 1 1 1 1 1 1 1 1 
1 1 1 1 1 1 1 1 1 
1 1 1 1 1 1 1 1 1 
1 1 1 1 1 1 1 1 1 
1 1 1 1 1 1 1 1 1 
1 1 1 1 1 1 1 1 1 
1 1 1 1 1 1 1 1 1 
1 1 1 1 1 1 1 1 1 
1 1 1 1 1 1 1 1 1 
1 1 1 1 1 1 1 1 1 
1 1 1 1 1 1 1 1 1 
1 1 1 1 1 1 1 1 1 
1 1 1 1 1 1 1 1 1 
1 1 1 1 1 1 1 1 1 
1 1 1 1 1 1 1 1 1 
1 1 1 1 1 1 1 1 1 
1 1 1 1 1 1 1 1 1 
1 1 1 1 1 1 1 1 1 
1 1 1 1 1 1 1 1 1 
1 1 1 1 1 1 1 1 1 
1 1 1 1 1 1 1 1 1 
1 1 1 1 1 1 1 1 1 
1 1 1 1 1 1 1 1 1 
1 1 1 1 1 1 1 1 1 
1 1 1 1 1 1 1 1 1 
1 1 1 1 1 1 1 1 1 
1 1 1 1 1 1 1 1 1 
1 1 1 1 1 1 1 1 1 
1 1 1 1 1 1 1 1 1 
1 1 1 1 1 1 1 1 1 
1 1 1 1 1 1 1 1 1 
1 1 1 1 1 1 1 1 1 
1 1 1 1 1 1 1 1 1 
1 1 1 1 1 1 1 1 1 
1 1 1 1 1 1 1 1 1 
1 1 1 1 1 1 1 1 1 
1 1 1 1 1 1 1 1 1 
1 1 1 1 1 1 1 1 1 
1 1 1 1 1 1 1 1 1 
1 1 1 1 1 1 1 1 1 
1 1 1 1 1 1 1 1 1 
1 1 1 1 1 1 1 1 1 
1 1 1 1 1 1 1 1 1 
1 1 1 1 1 1 1 1 1 
1 1 1 1 1 1 1 1 1 
1 1 1 1 1 1 1 1 1 
1 1 1 1 1 1 1 1 1 
1 1 1 1 1 1 1 1 1 
1 1 1 1 1 1 1 1 1 
1 1 1 1 1 1 1 1 1 
1 1 1 1 1 1 1 1 1 
1 1 1 1 1 1 1 1 1 
1 1 1 1 1 1 1 1 1 
1 1 1 1 1 1 1 1 1 
1 1 1 1 1 1 1 1 1 
1 1 1 1 1 1 1 1 1 
1 1 1 1 1 1 1 1 1 
1 1 1 1 1 1 1 1 1 
1 1 1 1 1 1 1 1 1 
1 1 1 1 1 1 1 1 1 
1 1 1 1 1 1 1 1 1 
1 1 1 1 1 1 1 1 1 
1 1 1 1 1 1 1 1 1 
1 1 1 1 1 1 1 1 1 
1 1 1 1 1 1 1 1 1 
1 1 1 1 1 1 1 1 1 
1 1 1 1 1 1 1 1 1 
1 1 1 1 1 1 1 1 1 
1 1 1 1 1 1 1 1 1 
1 1 1 1 1 1 1 1 1 
1 1 1 1 1 1 1 1 1 
1 1 1 1 1 1 1 1 1 
1 1 1 1 1 1 1 1 1 
1 1 1 1 1 1 1 1 1 
1 1 1 1 1 1 1 1 1 
1 1 1 1 1 1 1 1 1 
1 1 1 1 1 1 1 1 1 
1 1 1 1 1 1 1 1 1 
1 1 1 1 1 1 1 1 1 
1 1 1 1 1 1 1 1 1 
1 1 1 1 1 1 1 1 1 
1 1 1 1 1 1 1 1 1 
1 1 1 1 1 1 1 1 1 
1 1 1 1 1 1 1 1 1 
1 1 1 1 1 1 1 1 1 
1 1 1 1 1 1 1 1 1 
1 1 1 1 1 1 1 1 1 
1 1 1 1 1 1 1 1 1 
1 1 1 1 1 1 1 1 1 
1 1 1 1 1 1 1 1 1 
1 1 1 1 1 1 1 1 1 
1 1 1 1 1 1 1 1 1 
1 1 1 1 1 1 1 1 1 
1 1 1 1 1 1 1 1 1 
1 1 1 1 1 1 1 1 1 
1 1 1 1 1 1 1 1 1 
1 1 1 1 1 1 1 1 1 
1 1 1 1 1 1 1 1 1 
1 1 1 1 1 1 1 1 1 
1 1 1 1 1 1 1 1 1 
1 1 1 1 1 1 1 1 1 
1 1 1 1 1 1 1 1 1 
1 1 1 1 1 1 1 1 1 
1 1 1 1 1 1 1 1 1 
1 1 1 1 1 1 1 1 1 
1 1 1 1 1 1 1 1 1 
1 1 1 1 1 1 1 1 1 
1 1 1 1 1 1 1 1 1 
1 1 1 1 1 1 1 1 1 
1 1 1 1 1 1 1 1 1 
1 1 1 1 1 1 1 1 1 
1 1 1 1 1 1 1 1 1 
1 1 1 1 1 1 1 1 1 
1 1 1 1 1 1 1 1 1 
1 1 1 1 1 1 1 1 1 
1 1 1 1 1 1 1 1 1 
1 1 1 1 1 1 1 1 1 
1 1 1 1 1 1 1 1 1 
1 1 1 1 1 1 1 1 1 
1 1 1 1 1 1 1 1 1 
1 1 1 1 1 1 1 1 1 
1 1 1 1 1 1 1 1 1 
1 1 1 1 1 1 1 1 1 
1 1 1 1 1 1 1 1 1 
1 1 1 1 1 1 1 1 1 
1 1 1 1 1 1 1 1 1 
1 1 1 1 1 1 1 1 1 
1 1 1 1 1 1 1 1 1 
1 1 1 1 1 1 1 1 1 
1 1 1 1 1 1 1 1 1 
1 1 1 1 1 1 1 1 1 
1 1 1 1 1 1 1 1 1 
1 1 1 1 1 1 1 1 1 
1 1 1 1 1 1 1 1 1 
1 1 1 1 1 1 1 1 1 
1 1 1 1 1 1 1 1 1 
1 1 1 1 1 1 1 1 1 
1 1 1 1 1 1 1 1 1 
1 1 1 1 1 1 1 1 1 
1 1 1 1 1 1 1 1 1 
1 1 1 1 1 1 1 1 1 
1 1 1 1 1 1 1 1 1 
1 1 1 1 1 1 1 1 1 
1 1 1 1 1 1 1 1 1 
1 1 1 1 1 1 1 1 1 
1 1 1 1 1 1 1 1 1 
1 1 1 1 1 1 1 1 1 
1 1 1 1 1 1 1 1 1 
1 1 1 1 1 1 1 1 1 
1 1 1 1 1 1 1 1 1 
1 1 1 1 1 1 1 1 1 
1 1 1 1 1 1 1 1 1 
1 1 1 1 1 1 1 1 1 
1 1 1 1 1 1 1 1 1 
1 1 1 1 1 1 1 1 1 
1 1 1 1 1 1 1 1 1 
1 1 1 1 1 1 1 1 1 
1 1 1 1 1 1 1 1 1 
1 1 1 1 1 1 1 1 1 
1 1 1 1 1 1 1 1 1 
1 1 1 1 1 1 1 1 1 
1 1 1 1 1 1 1 1 1 
1 1 1 1 1 1 1 1 1 
1 1 1 1 1 1 1 1 1 
1 1 1 1 1 1 1 1 1 
1 1 1 1 1 1 1 1 1 
1 1 1 1 1 1 1 1 1 
1 1 1 1 1 1 1 1 1 
1 1 1 1 1 1 1 1 1 
1 1 1 1 1 1 1 1 1 
1 1 1 1 1 1 1 1 1 
1 1 1 1 1 1 1 1 1 
1 1 1 1 1 1 1 1 1 
1 1 1 1 1 1 1 1 1 
1 1 1 1 1 1 1 1 1 
1 1 1 1 1 1 1 1 1 
1 1 1 1 1 1 1 1 1 
1 1 1 1 1 1 1 1 1 
1 1 1 1 1 1 1 1 1 
1 1 1 1 1 1 1 1 1 
1 1 1 1 1 1 1 1 1 
1 1 1 1 1 1 1 1 1 
1 1 1 1 1 1 1 1 1 
1 1 1 1 1 1 1 1 1 
1 1 1 1 1 1 1 1 1 
1 1 1 1 1 1 1 1 1 
1 1 1 1 1 1 1 1 1 
1 1 1 1 1 1 1 1 1 
1 1 1 1 1 1 1 1 1 
1 1 1 1 1 1 1 1 1 
1 1 1 1 1 1 1 1 1 
1 1 1 1 1 1 1 1 1 
1 1 1 1 1 1 1 1 1 
1 1 1 1 1 1 1 1 1 
1 1 1 1 1 1 1 1 1 
1 1 1 1 1 1 1 1 1 
1 1 1 1 1 1 1 1 1 
1 1 1 1 1 1 1 1 1 
1 1 1 1 1 1 1 1 1 
1 1 1 1 1 1 1 1 1 
1 1 1 1 1 1 1 1 1 
1 1 1 1 1 1 1 1 1 
1 1 1 1 1 1 1 1 1 
1 1 1 1 1 1 1 1 1 
1 1 1 1 1 1 1 1 1 
1 1 1 1 1 1 1 1 1 
1 1 1 1 1 1 1 1 1 
1 1 1 1 1 1 1 1 1 
1 1 1 1 1 1 1 1 1 
1 1 1 1 1 1 1 1 1 
1 1 1 1 1 1 1 1 1 
1 1 1 1 1 1 1 1 1 
1 1 1 1 1 1 1 1 1 
1 1 1 1 1 1 1 1 1 
1 1 1 1 1 1 1 1 1 
1 1 1 1 1 1 1 1 1 
1 1 1 1 1 1 1 1 1 
1 1 1 1 1 1 1 1 1 
1 1 1 1 1 1 1 1 1 
1 1 1 1 1 1 1 1 1 
1 1 1 1 1 1 1 1 1 
1 1 1 1 1 1 1 1 1 
1 1 1 1 1 1 1 1 1 
1 1 1 1 1 1 1 1 1 
1 1 1 1 1 1 1 1 1 
1 1 1 1 1 1 1 1 1 
1 1 1 1 1 1 1 1 1 
1 1 1 1 1 1 1 1 1 
1 1 1 1 1 1 
NORMALS Normals float
0.248631 0.0548751 -0.967043 0.103946 0.107603 -0.988745 -0.062482 -0.094307 -0.99358 
0.427422 0.258138 -0.866415 -0.163622 0.124667 -0.978614 -0.0160357 -0.390897 -0.920295 
0.278765 -0.1134 -0.953641 0.183129 0.384651 -0.904714 0.470388 0.490155 -0.733814 
0.0159572 0.366177 -0.930408 -0.26837 0.212112 -0.939673 0.146962 0.644936 -0.749973 
0.00525094 -0.463666 -0.885995 -0.16798 -0.263781 -0.949843 0.536932 0.278654 -0.796276 
-0.377946 0.0544878 -0.924223 -0.542344 -0.0768119 -0.836638 0.606463 0.413958 -0.678853 
0.537677 0.475746 -0.69611 0.362452 0.655385 -0.662646 -0.31387 -0.289361 -0.904299 
0.49373 -0.0868878 -0.865264 0.633165 0.443525 -0.63434 -0.331776 0.571006 -0.750917 
-0.0674307 0.63749 -0.767502 -0.478437 -0.404093 -0.77962 0.573879 -0.185796 -0.797586 
0.681429 0.386598 -0.621448 0.14093 -0.473815 -0.869275 -0.112363 -0.619387 -0.777003 
0.395687 -0.402257 -0.825604 0.478459 -0.412323 -0.775285 0.621788 -0.371096 -0.689687 
0.62183 0.499923 -0.60283 -0.242875 -0.790734 -0.561918 -0.379404 -0.759183 -0.528861 
-0.607929 -0.395264 -0.688613 0 -0.0429428 -0.999077 -0.892516 -0.446258 -0.0653447 
-0.988713 -0.130529 -0.0735456 0.988713 -0.130529 -0.0735456 0 0.351123 -0.936329 
0.725818 -0.0065852 -0.687855 0 -0.165267 0.986249 0.610245 0.639765 -0.467227 
-0.0276383 0.760541 -0.648701 -0.0442079 -0.790465 -0.610909 0.706686 -0.297311 -0.642029 
-0.570117 -0.744887 -0.346569 -0.663696 -0.49039 -0.564823 0.882377 -0.0559205 -0.467208 
0 -0.0429428 -0.999077 -0.892516 -0.446258 -0.0653447 -0.988713 -0.130529 -0.0735456 
0.988713 -0.130529 -0.0735456 -0.754434 -0.123865 -0.644582 0 0.351123 -0.936329 
0.850697 0.158171 -0.501295 0.68178 -0.295642 -0.669158 -0.67488 -0.521252 -0.522335 
0 -0.165267 0.986249 -0.419281 0.62718 -0.656391 0.333084 0.772482 -0.540673 
0.38258 -0.557057 -0.737102 -0.814095 -0.278241 -0.509737 0.827276 0.491707 -0.271733 
-0.628715 0.380112 -0.678404 -0.611762 -0.658141 -0.43886 0 -0.0429428 -0.999077 
-0.892516 -0.446258 -0.0653447 -0.988713 -0.130529 -0.0735456 0.988713 -0.130529 -0.0735456 
0 0.351123 -0.936329 0.968658 0.205429 -0.139646 0.588096 -0.289169 -0.75533 
-0.551569 -0.772501 -0.314664 0 -0.165267 0.986249 0.827947 -0.0167285 -0.560557 
-0.78497 -0.512845 -0.34758 -0.84541 -0.264355 -0.464109 0.272402 -0.749633 -0.603198 
0.437783 -0.659716 -0.610836 -0.204818 -0.43456 -0.877044 0.0193564 -0.789741 -0.613135 
0.201561 -0.173412 -0.964003 0.350501 -0.734548 -0.581024 0.616242 -0.42493 -0.663084 
0.61607 -0.297427 -0.729379 0.346048 0.102935 -0.932553 0.918734 -0.0954916 -0.383156 
0.767232 -0.48821 -0.41594 0.547724 0.75171 -0.367327 0.114685 0.889693 -0.441921 
-0.106665 -0.752597 -0.649785 -0.100026 -0.858908 -0.502266 -0.340263 -0.757308 -0.55741 
-0.390171 -0.342084 -0.854836 0.453266 -0.224811 -0.86256 -0.0918333 0.0258348 -0.995439 
0.218409 0.0839011 -0.972244 0.378927 0.0488333 -0.924137 0.678496 0.167662 -0.715215 
0.424312 0.268676 -0.864739 0.733587 0.358103 -0.577592 0.147449 0.294476 -0.944215 
-0.0228364 -0.95545 -0.294268 0.423143 -0.889571 -0.172084 -0.421359 -0.629416 -0.65291 
-0.414036 -0.651324 -0.635886 0.275209 -0.870354 -0.408342 0.73069 -0.63063 -0.261529 
-0.176176 -0.930552 -0.320991 0.411281 0.18494 -0.89255 0.316112 0.0508147 -0.94736 
0.886159 0.126238 -0.445855 -0.285971 -0.950132 -0.124375 0.385581 0.0607805 -0.92067 
0.691823 0.0911821 -0.716287 -0.151551 0.104489 -0.982911 -0.230503 0.15528 -0.960602 
0.126462 -0.0332138 -0.991415 0.455297 0.0912887 -0.885647 0.890529 0.126558 -0.436969 
-0.0481032 0.262791 -0.963653 0.872049 0.126933 -0.472672 0.308668 0.230054 -0.92293 
-0.147892 0.104924 -0.983422 0.83391 0.288797 -0.470309 0.153341 0.300307 -0.941436 
0.415978 0.369774 -0.8308 0.923674 -0.024816 -0.382375 0.164419 0.134982 -0.977111 
0.458912 0.356061 -0.814015 0.0260033 0.585182 -0.810485 0.200304 0.584674 -0.786152 
0.233811 0.520138 -0.821456 -0.533808 0.0760356 -0.84218 -0.00594351 0.889173 -0.457533 
0.276973 -0.236107 -0.931418 0.78315 0.517638 -0.344568 -0.871652 0.106972 -0.478308 
0.755323 -0.648626 -0.0936554 0.454702 -0.889105 -0.0523326 0.271474 -0.900113 -0.340731 
-0.0225119 0.000259686 -0.999747 0.147031 0.186689 -0.971354 -0.340106 -0.872638 -0.350471 
0.904815 0.313859 -0.287753 0.702755 0.296504 -0.646699 0.494741 0.462094 -0.736003 
0.415403 0.583211 -0.698073 -0.297856 -0.345557 -0.889872 -0.391935 0.389255 -0.833587 
0.605872 0.00140906 -0.795561 0.525764 0.649339 -0.549482 0.272739 0.300418 -0.913982 
0.318116 0.221365 -0.921846 -0.304241 -0.509538 -0.804866 -0.360015 0.474057 -0.803529 
0.816169 -0.0286161 -0.577104 0.626776 0.75064 -0.209027 0.519608 0.812434 -0.264497 
-0.0145345 -0.981568 -0.190559 -0.423034 -0.512121 -0.747512 -0.392485 -0.139325 -0.909145 
0.95843 0.0914676 -0.27027 0.618757 -0.764205 -0.182017 -0.0642524 -0.984773 -0.161537 
0.984786 0.152957 -0.0824647 -0.210093 0.012683 -0.977599 -0.196584 0.211676 -0.957365 
0.180326 0.613371 -0.768933 0.428196 0.674175 -0.601778 -0.0495029 0.0388323 -0.998019 
0.0873372 0.356092 -0.930361 0.400065 0.267255 -0.876654 -0.0926431 0.386886 -0.917462 
0.0789249 0.549557 -0.83172 -0.136888 -0.103851 -0.985128 0.327053 0.427995 -0.84253 
0.075945 0.358993 -0.930245 0.184917 0.145699 -0.971894 0.438762 0.630579 -0.640202 
0.285267 -0.334337 -0.898244 -0.365569 -0.114379 -0.92373 0.782878 0.472249 -0.405072 
0.316001 0.21524 -0.924021 -0.272325 -0.363489 -0.890907 0.272004 0.800598 -0.533907 
0.0618751 0.215826 -0.974469 0.436575 0.423526 -0.793743 -0.55466 -0.341028 -0.758981 
0.281922 0.51591 -0.808923 0.556686 0.679276 -0.478211 -0.308867 0.09596 -0.946252 
-0.551641 -0.0177301 -0.833893 0.0868475 0.571197 -0.816206 0.474855 0.806423 -0.352413 
0.771274 0.60253 -0.20517 -0.758472 0.426384 -0.492866 -0.0949644 -0.971518 -0.217105 
0.478755 -0.877793 -0.0164986 0.89603 -0.443941 0.00680571 -0.417609 -0.71856 -0.556124 
-0.423448 -0.251697 -0.870253 0.988709 0.138238 -0.0578284 0.991796 0.0442564 0.119921 
-0.154494 -0.969424 -0.190653 -0.0269814 -0.549339 -0.835164 -0.399107 -0.274043 -0.874994 
0.142073 -0.553394 -0.820713 0.965841 0.134861 0.221279 0.863887 -0.4751 -0.167271 
-0.122707 -0.188543 -0.974369 0.165647 -0.269184 -0.948736 -0.146971 0.0105932 -0.989084 
-0.475274 -0.0395568 -0.878948 0.0834725 -0.0110864 -0.996448 0.977934 -0.0917286 -0.187702 
0.82911 0.323847 -0.455741 0.961677 0.25203 -0.107972 0.627617 0.720363 -0.295253 
0.789782 0.561393 -0.247147 -0.164382 -0.00930514 -0.986353 0.505904 0.636347 -0.582344 
0.114699 0.155063 -0.981223 0.284945 0.442961 -0.850054 -0.00155401 0.227622 -0.973748 
0.277558 0.64353 -0.713324 0.395197 0.439564 -0.806599 -0.117733 -0.0369063 -0.992359 
0.994915 0.0985157 -0.0209544 -0.0974824 -0.208721 -0.973105 0.157933 0.232888 -0.959594 
0.133394 0.231014 -0.963762 0.575244 0.677387 -0.458522 0.579144 0.734756 -0.353165 
-0.614783 -0.0299194 -0.788128 -0.234119 0.386479 -0.892088 0.179595 0.795804 -0.57831 
0.379931 0.904465 -0.193895 -0.311849 0.709358 -0.632109 0.594968 -0.797762 -0.0979167 
0.748467 -0.659859 0.0662071 -0.0537862 -0.962066 -0.267462 0.0398651 -0.996099 -0.0787182 
0.112813 -0.986348 -0.119958 0.194642 -0.975665 0.100958 -0.361314 -0.685307 -0.632302 
0.990719 -0.0432204 0.12887 -0.307256 -0.885648 0.348168 0.446953 -0.892498 0.0606619 
-0.432714 -0.408378 -0.803732 0 -0.178885 -0.98387 0 -1 0 
-0.961524 -0.274721 3.6843e-08 0.961524 -0.274721 3.6843e-08 0.00786602 -0.99995 0.00625051 
0 0.447214 -0.894427 -0.395213 -0.902685 -0.170192 -0.450689 -0.873921 -0.182049 
-0.459132 -0.340926 -0.820346 -0.508911 -0.239923 -0.826708 0.409118 -0.505368 -0.759754 
-0.262263 0.111786 -0.9585 -0.113004 0.168059 -0.979278 0.402114 0.587298 -0.702414 
0.589293 0.659672 -0.466441 -0.20023 -0.158038 -0.966919 0.42625 0.607392 -0.670362 
0.48169 0.709368 -0.514559 0.523328 0.619862 -0.584722 0.320821 0.588226 -0.742337 
0.423934 0.595405 -0.682476 0.189058 0.110507 -0.975728 0.623046 0.587198 -0.516732 
-0.296102 -0.228128 -0.927513 -0.466518 0.286401 -0.836861 -0.301589 0.624257 -0.720657 
-0.143473 0.874697 -0.462949 -0.0955086 0.843686 -0.528273 0.339004 0.917451 -0.20823 
0.722828 -0.591401 0.357443 0.489383 -0.853194 0.180458 0.858125 -0.402583 0.318668 
-0.0905942 -0.985694 -0.142129 -0.121348 -0.931603 -0.342624 -0.297319 -0.800466 -0.520439 
-0.171597 -0.967239 -0.187091 -0.183102 -0.933853 0.307234 -0.0337529 -0.940367 0.338482 
0.28785 -0.844701 0.451246 -0.505799 -0.681405 -0.529012 -0.41954 -0.789284 -0.448349 
0.74536 0.0103849 0.666582 0 -0.178885 -0.98387 0 -1 0 
-0.961524 -0.274721 3.6843e-08 0.961524 -0.274721 3.6843e-08 0 0.447214 -0.894427 
0.730921 -0.681445 0.037244 -0.565571 -0.499664 -0.656099 -0.550109 -0.765329 -0.334142 
0 -0.178885 0.98387 -0.33979 -0.940493 0.00405642 -0.00223666 -0.99774 0.0671593 
0.11347 -0.986191 -0.120635 -0.0238318 -0.993714 0.109381 -0.583156 -0.357147 -0.72964 
0.107793 -0.928824 0.354496 -0.203107 -0.934226 0.293207 -0.725186 -0.137609 -0.674662 
-0.692968 -0.154318 -0.704259 0.789087 -0.613121 0.0377418 -0.0497653 -0.748927 0.660781 
-0.511565 0.00660482 -0.859219 0.862354 -0.49948 -0.0828574 -0.227187 -0.293475 -0.928579 
0.261903 -0.0616888 -0.963121 0.970492 0.241128 0.0018176 0.871017 -0.364886 -0.32892 
0.235666 0.112842 -0.965261 0.898167 0.143629 -0.415531 0.0457502 0.592462 -0.804298 
-0.310708 -0.0646564 -0.948304 0.981161 0.15447 0.11603 0.490063 0.691221 -0.531086 
0.567814 0.757411 -0.322361 0.501952 0.675889 -0.539647 -0.284534 -0.25173 -0.925026 
0.995923 0.0901696 -0.00248055 0.478571 0.61121 -0.630391 -0.883605 -0.327755 -0.334394 
0.484501 0.830393 -0.275148 0.403294 0.899515 -0.168009 -0.438726 0.369236 -0.819258 
0.189326 0.942164 -0.276555 0 -0.178885 -0.98387 0 -1 0 
-0.961524 -0.274721 3.6843e-08 0.961524 -0.274721 3.6843e-08 0.312047 -0.946151 0.0861681 
0.365633 -0.915217 0.169383 0.561732 -0.806501 0.184428 0 0.447214 -0.894427 
0.0730303 -0.990718 0.114653 -0.288274 -0.947885 -0.135688 0.753447 -0.257233 0.605102 