# vtk DataFile Version 4.2
vtk output
ASCII
DATASET POLYDATA
POINTS 387 float
427.5 200.643 200.395 427.274 200.404 200.524 428.418 200.68 200.366 
429.02 200.507 200.499 427.324 200.842 200.415 427.634 201.282 200.432 
427.377 201.409 200.563 429.484 201.385 200.658 426.208 199.739 201.281 
426.994 199.525 201.094 427.873 199.999 200.659 426.851 200.399 200.725 
428.961 200.344 200.535 426.04 200.616 201.184 430.938 201.391 201.366 
426.108 201.243 201.167 428.793 202.068 200.853 429.891 202.197 201.095 
430.408 202.147 201.252 430.954 202.08 201.528 425.927 198.901 201.891 
425.516 198.931 202.185 426.29 199.023 201.636 426.2 198.651 201.972 
425.428 199.618 201.999 425.199 200.196 202.175 430.073 199.974 201.386 
425.808 200.77 201.399 426.17 201.823 201.452 426.052 201.877 201.633 
427.475 202.735 201.574 430.573 202.648 201.741 431.302 202.233 201.907 
425.169 198.297 202.86 425.723 198.055 202.78 424.95 198.385 203.008 
427.056 198.769 201.703 427.679 198.828 201.647 424.639 199.16 203.078 
431.845 201.636 202.291 432.007 201.337 202.595 427.995 203.771 202.837 
429.265 203.685 202.562 425.388 197.72 203.475 426.031 197.941 202.802 
426.248 197.735 203.064 424.466 198.669 203.59 431.472 200.353 202.332 
432.254 201.367 203.176 425.928 202.675 203.138 432.038 202.216 203.15 
424.788 197.824 204.006 427.246 197.1 204.174 424.422 198.176 204.12 
424.051 199.212 204.127 432.433 200.896 203.767 424.503 200.756 203.665 
428.509 204.374 203.992 428.337 204.419 204.383 429.687 204.27 203.922 
429.504 204.404 204.152 425.178 197.129 204.989 424.114 198.047 204.813 
423.891 198.343 204.865 432.803 200.854 204.745 432.705 201.429 204.463 
424.464 201.205 204.601 425.186 202.372 205.174 431.951 202.801 204.596 
430.255 204.185 204.676 430.204 197.415 205.433 423.731 199.693 205.578 
432.902 201.161 205.485 427.683 204.258 205.105 428.54 204.536 205.309 
429.426 204.522 205.043 425.523 196.567 206.302 423.954 197.532 206.469 
423.619 198.28 206.415 431.655 198.563 205.449 423.601 199.208 206.123 
432.95 200.678 205.989 432.81 201.628 206.382 425.537 202.846 206.489 
430.508 204.093 206.063 428.885 204.553 205.685 426.519 196.145 207.472 
424.222 197.176 206.82 429.868 196.917 207.262 423.757 197.793 206.913 
432.922 201.233 206.859 432.566 202.056 206.743 427.017 203.835 206.914 
428.181 204.328 206.541 429.662 204.415 205.995 425.344 196.331 208.459 
427.541 196.158 207.742 423.924 197.43 207.544 424.588 196.724 208.171 
430.52 197.212 208.002 423.595 198.277 207.803 423.61 199.159 207.743 
432.778 199.837 207.215 432.873 201.316 207.334 425.277 202.411 208.274 
431.769 202.798 208.075 425.254 196.375 209.177 424.169 197.136 208.694 
423.931 197.456 208.228 431.593 197.979 207.883 423.633 198.742 208.397 
432.784 200.443 208.152 432.205 202.238 208.203 425.747 202.587 209.034 
426.818 203.543 208.079 427.328 196.154 209.013 432.485 201.123 208.956 
432.249 201.607 209.091 431.11 202.687 209.179 426.595 203.118 208.929 
428.372 203.683 208.408 424.867 196.679 210.028 428.717 196.76 210.124 
431.381 198.1 209.323 423.861 198.28 209.448 423.97 198.711 209.719 
432.385 200.227 209.555 431.836 201.693 209.74 431.665 201.477 210.097 
425.428 201.893 209.9 426.355 202.559 209.799 425.355 196.722 210.713 
424.956 196.792 210.419 425.666 196.548 210.545 427.879 196.448 210.059 
424.476 197.427 210.561 424.121 197.897 210.222 429.423 197.398 210.69 
430.893 198.2 210.297 424.679 200.161 210.367 431.343 200.073 211.043 
431.161 200.099 211.13 431.588 200.142 210.805 431.697 199.842 210.732 
425.365 201.434 210.352 425.579 201.479 210.469 426.98 202.313 210.232 
428.042 202.702 209.909 425.444 196.914 211.103 426.438 196.708 211.082 
424.558 197.659 210.871 426.604 196.898 211.384 427.488 196.748 210.919 
424.213 198.096 210.449 429.056 197.731 211.419 424.563 198.601 210.969 
429.6 198.236 211.46 424.809 198.936 211.168 431.71 199.423 210.566 
431.691 199.588 210.715 425.629 200.055 211.303 430.837 199.663 211.277 
431.485 199.588 210.922 431.089 200.773 210.843 428.118 201.311 211.073 
425.485 197.116 211.347 425.801 196.996 211.352 426.122 197.132 211.553 
425.291 197.349 211.375 424.772 198.04 211.274 424.955 198.199 211.441 
427.924 197.413 211.565 424.751 198.596 211.236 426.645 198.939 211.969 
430.682 199.248 211.254 431.221 199.294 210.976 428.052 199.634 211.808 
425.979 197.688 211.754 426.379 197.445 211.736 425.898 198.094 211.805 
428.31 197.777 211.718 427.036 198.279 211.97 428.149 198.059 211.863 
425.313 197.339 244.759 425.88 197.046 244.85 426.552 197.133 244.703 
425.216 197.574 244.687 425.832 197.522 244.531 426.675 197.28 244.631 
425.365 197.722 244.589 425.188 197.802 244.693 425.156 197.238 244.956 
425.069 197.434 244.866 424.878 197.531 245.068 427.749 198.071 244.784 
425.813 198.602 244.673 426.649 198.984 244.663 427.183 198.91 244.639 
428.482 199.563 244.778 428.697 199.567 244.832 428.844 199.418 244.886 
428.636 199.781 244.9 428.994 199.698 244.994 425.714 196.631 245.637 
427.066 196.63 245.612 424.976 196.937 245.846 424.72 197.66 245.314 
428.409 197.992 245.07 429.843 198.372 245.556 430.178 198.24 245.842 
424.661 198.029 245.392 430.275 198.52 245.729 424.496 199.045 245.808 
424.613 199.043 245.688 428.707 199.058 244.897 425.035 199.78 245.544 
425.027 199.897 245.677 425.074 199.895 245.549 425.143 199.868 245.511 
425.176 200.016 245.572 425.627 200.476 245.483 425.611 200.556 245.584 
425.673 200.575 245.504 425.749 200.552 245.486 425.773 200.681 245.574 
427.926 201.175 245.468 427.258 201.813 245.887 427.611 201.789 245.818 
428.469 201.699 245.868 425.499 196.368 246.715 428.499 196.673 246.303 
424.659 197.262 245.889 424.472 197.403 246.188 424.868 196.753 246.514 
424.32 197.746 246.342 429.522 197.419 246.181 431.26 198.675 246.392 
431.448 198.467 246.662 431.741 198.5 246.944 424.419 198.149 245.945 
424.651 198.648 245.581 432.219 198.92 247.217 424.992 199.444 245.553 
432.517 199.42 247.439 424.835 200.015 246.229 425.547 200.185 245.476 
425.193 200.205 245.784 426.203 200.798 245.539 427.393 202.282 246.398 
425.097 196.523 246.706 424.572 196.91 247.089 431.729 198.282 247.286 
432.296 198.792 247.584 432.606 199.322 247.74 432.626 199.876 247.589 
432.181 200.687 247.194 426.814 202.793 247.414 424.822 196.589 247.297 
424.964 196.462 247.619 424.368 197.014 247.878 430.244 197.175 247.33 
431.311 197.937 247.296 432.241 201.252 247.616 426.114 202.64 247.907 
430.22 202.851 247.649 428.066 203.505 248.211 423.87 197.75 248.423 
423.817 198.319 247.832 432.899 200.612 248.625 425.481 202.27 248.508 
431.456 202.442 248.175 426.8 196.083 248.651 429.07 196.383 248.204 
424.211 197.226 249.314 423.651 198.304 249.103 431.892 198.165 248.881 
423.665 199.107 248.966 433.003 200.576 249.669 424.232 200.67 248.985 
432.85 201.294 249.222 425.885 202.831 249.433 426.994 203.613 249.363 
431.184 203.198 249.658 428.444 204.293 249.905 429.064 204.386 250.148 
426.196 196.202 249.421 423.71 198.053 249.499 431.957 198.397 250.083 
423.739 199.627 249.948 423.911 200.143 250.238 432.941 201.312 249.798 
432.757 201.691 249.728 432.478 202.153 249.946 429.35 204.392 250.445 
425.272 196.645 250.342 427.37 196.277 249.94 427.902 196.3 249.723 
423.929 197.902 250.584 423.642 198.468 250.183 431.556 198.173 250.776 
432.892 200.474 250.941 432.841 201.644 250.928 424.405 197.631 251.191 
425.92 196.85 251.367 430.918 197.886 251.359 432.407 199.851 251.881 
429.252 204.451 251.477 425.187 197.385 251.975 427.865 196.951 251.86 
430.031 197.649 252.06 423.783 198.649 250.963 430.468 197.762 251.786 
432.227 200.129 252.688 424.308 200.462 252.597 432.578 201.04 252.441 
432.816 201.392 251.732 431.261 203.344 252.612 429.578 204.332 251.903 
428.403 204.394 252.168 424.714 198.052 252.461 425.588 197.673 252.997 
424.213 198.985 252.32 430.519 198.522 253.232 424.345 200.036 252.979 
431.883 200.328 253.632 432.246 201.103 253.222 432.683 201.381 252.19 
424.822 201.391 253.305 425.647 202.301 254.002 429.029 204.337 252.479 
425.385 197.777 252.983 426.499 197.925 253.832 424.559 200.14 253.607 
424.677 200.485 253.866 424.776 200.855 253.895 426.189 202.546 254.731 
431.741 202.651 253.688 427.351 203.44 254.231 425.918 198.245 253.967 
427.512 198.691 255.017 425.007 199.623 254.238 425.068 200.135 254.523 
431.181 200.088 254.462 431.45 202.5 254.424 431.626 202.34 254.278 
426.475 202.684 254.928 431.361 202.755 254.202 425.644 199.203 254.686 
430.069 199.601 255.199 425.493 200.225 255.18 425.851 201.031 255.849 
430.85 201.003 255.306 425.655 201.327 255.455 431.158 202.124 255.01 
426.531 202.119 255.796 430.783 202.461 255.165 430.913 202.246 255.197 
430.502 202.57 255.256 427.582 200.079 256.682 429.368 200.281 256.415 
426.082 201.194 256.099 426.288 201.066 256.335 430.662 201.474 255.6 
429.907 201.653 256.2 430.866 201.887 255.359 427.284 202.26 256.194 
429.49 202.761 255.51 426.87 200.144 256.465 426.723 200.403 256.561 
428.717 200.291 256.797 429.65 200.888 256.558 429.635 201.136 256.605 
429.377 201.218 256.8 426.997 201.42 256.761 428.095 202.191 256.439 
427.775 200.651 257.151 427.626 200.803 257.212 429.017 200.798 257.003 
428.744 200.809 257.162 429.338 200.739 256.772 427.597 200.921 257.226 
427.734 201.036 257.274 428.87 200.923 257.141 427.786 201.184 257.239 
427.975 201.291 257.212 428.683 200.978 257.203 428.622 201.213 257.161 

POLYGONS 766 3064
3 0 5 2 
3 2 3 12 
3 0 1 4 
3 4 5 0 
3 7 3 2 
3 6 5 4 
3 2 5 16 
3 7 2 16 
3 8 10 9 
3 8 13 11 
3 1 10 11 
3 10 8 11 
3 0 10 1 
3 2 10 0 
3 12 10 2 
3 1 11 4 
3 11 13 4 
3 7 14 3 
3 4 13 6 
3 6 13 15 
3 7 17 14 
3 15 28 6 
3 6 16 5 
3 17 7 16 
3 14 17 18 
3 18 19 14 
3 30 6 28 
3 16 6 30 
3 19 18 31 
3 20 22 23 
3 22 20 21 
3 24 22 21 
3 12 37 10 
3 10 37 9 
3 12 26 37 
3 8 22 24 
3 8 24 25 
3 27 13 8 
3 27 8 25 
3 13 27 15 
[...]
POINT_DATA 387
SCALARS scalars float
LOOKUP_TABLE default
1 1 1 1 1 1 1 1 1 
1 1 1 1 1 1 1 1 1 
1 1 1 1 1 1 1 1 1 
1 1 1 1 1 1 1 1 1 
1 1 1 1 1 1 1 1 1 
1 1 1 1 1 1 1 1 1 
1 1 1 1 1 1 1 1 1 
1 1 1 1 1 1 1 1 1 
1 1 1 1 1 1 1 1 1 
1 1 1 1 1 1 1 1 1 
1 1 1 1 1 1 1 1 1 
1 1 1 1 1 1 1 1 1 
1 1 1 1 1 1 1 1 1 
1 1 1 1 1 1 1 1 1 
1 1 1 1 1 1 1 1 1 
1 1 1 1 1 1 1 1 1 
1 1 1 1 1 1 1 1 1 
1 1 1 1 1 1 1 1 1 
1 1 1 1 1 1 1 1 1 
1 1 1 1 1 1 1 1 1 
1 1 1 1 1 1 1 1 1 
1 1 1 1 1 1 1 1 1 
1 1 1 1 1 1 1 1 1 
1 1 1 1 1 1 1 1 1 
1 1 1 1 1 1 1 1 1 
1 1 1 1 1 1 1 1 1 
1 1 1 1 1 1 1 1 1 
1 1 1 1 1 1 1 1 1 
1 1 1 1 1 1 1 1 1 
1 1 1 1 1 1 1 1 1 
1 1 1 1 1 1 1 1 1 
1 1 1 1 1 1 1 1 1 
1 1 1 1 1 1 1 1 1 
1 1 1 1 1 1 1 1 1 
1 1 1 1 1 1 1 1 1 
1 1 1 1 1 1 1 1 1 
1 1 1 1 1 1 1 1 1 
1 1 1 1 1 1 1 1 1 
1 1 1 1 1 1 1 1 1 
1 1 1 1 1 1 1 1 1 
1 1 1 1 1 1 1 1 1 
1 1 1 1 1 1 1 1 1 
1 1 1 1 1 1 1 1 1 

NORMALS Normals float
-0.101495 -0.177933 -0.978794 -0.293128 -0.378358 -0.878021 0.0808318 -0.0493749 -0.995504 
0.413541 -0.209506 -0.886054 -0.370563 0.0288157 -0.92836 -0.0771806 0.266507 -0.960738 
-0.340107 0.410067 -0.84627 0.265167 0.199596 -0.943318 -0.482857 -0.33392 -0.809535 
-0.173976 -0.554533 -0.813772 -0.105235 -0.506419 -0.855842 -0.413661 -0.328353 -0.849158 
0.216176 -0.494134 -0.842081 -0.576999 -0.0226095 -0.816432 0.577967 -0.0172808 -0.815877 
-0.684998 0.256746 -0.681806 0.0151109 0.571011 -0.820803 0.252115 0.457803 -0.852557 
0.323205 0.469412 -0.8217 0.530891 0.37718 -0.758874 -0.424032 -0.51625 -0.744099 
-0.563389 -0.344705 -0.750847 -0.391186 -0.411745 -0.823067 -0.0814337 -0.777006 -0.624204 
-0.68419 -0.239588 -0.688826 -0.814284 0.0400133 -0.579085 0.453993 -0.637594 -0.622386 
-0.761852 -0.00636445 -0.647719 -0.502508 0.541525 -0.673971 -0.684396 0.543891 -0.485577 
-0.28189 0.712541 -0.642513 0.384386 0.698534 -0.60357 0.655184 0.498457 -0.567692 
-0.601358 -0.503481 -0.620383 -0.367351 -0.737953 -0.566108 -0.704405 -0.469771 -0.532098 
-0.104506 -0.70015 -0.706306 0.106994 -0.775045 -0.622782 -0.80229 -0.116241 -0.585507 
0.818192 0.129112 -0.56026 0.865223 -0.0979749 -0.491722 -0.347521 0.847658 -0.400881 
0.101374 0.80067 -0.590466 -0.427923 -0.783413 -0.450717 -0.216044 -0.756076 -0.617798 
-0.148966 -0.850447 -0.504529 -0.795357 -0.405584 -0.450454 0.73613 -0.430871 -0.521979 
0.938005 -0.0473157 -0.343378 -0.68953 0.672462 -0.268966 0.86842 0.363755 -0.336939 
-0.624857 -0.662781 -0.412644 0.0981894 -0.884321 -0.456437 -0.733091 -0.518235 -0.440467 
-0.914279 -0.0793781 -0.397232 0.886734 -0.346179 -0.306369 -0.879418 0.293461 -0.374839 
-0.0619992 0.946071 -0.31797 -0.249774 0.953449 -0.168961 0.399282 0.840078 -0.367209 
0.200841 0.951928 -0.231292 -0.431664 -0.83733 -0.335478 -0.717728 -0.564056 -0.408299 
-0.90769 -0.293221 -0.300202 0.935865 -0.191324 -0.295891 0.935894 0.291018 -0.198524 
-0.888404 0.426945 -0.168688 -0.750589 0.658968 -0.0487481 0.726565 0.66854 -0.158614 
0.517586 0.854485 -0.0442706 0.403335 -0.857593 -0.319149 -0.969983 0.223095 -0.0967561 
0.958101 0.260512 -0.119063 -0.432537 0.90126 -0.0253325 -0.172548 0.984862 0.0165592 
0.135366 0.990471 -0.0253655 -0.284274 -0.935188 -0.211216 -0.781057 -0.592153 -0.198254 
-0.972364 -0.198237 -0.123331 0.700908 -0.661679 -0.266289 -0.964671 0.259826 -0.0435901 
0.93733 -0.319575 -0.138868 0.935338 0.350751 -0.0460065 -0.653647 0.75671 -0.0116054 
0.511827 0.853936 0.0939515 0.0230445 0.987749 0.154343 -0.056228 -0.98855 -0.140026 
-0.633788 -0.767093 -0.0994058 0.474843 -0.872453 -0.115541 -0.928237 -0.36782 -0.0555477 
0.965593 0.251125 0.0675762 0.817546 0.575736 0.0121534 -0.447549 0.889044 0.096438 
-0.160362 0.962073 0.220681 0.273544 0.919407 0.282603 -0.250978 -0.966988 0.0440912 
0.12502 -0.985731 -0.112713 -0.764052 -0.644928 -0.0171071 -0.619093 -0.784498 -0.0358827 
0.458656 -0.884705 0.0832556 -0.979658 -0.172703 0.102198 -0.980798 0.180748 0.0732527 
0.946887 -0.317659 0.0499772 0.971348 0.194392 0.136729 -0.723123 0.674988 0.146577 
0.53019 0.81935 0.218093 -0.304129 -0.944122 0.127042 -0.781697 -0.607605 0.14059 
-0.865453 -0.494509 0.0803288 0.668065 -0.743489 0.0302221 -0.982681 0.0422898 0.180416 
0.974927 -0.0428892 0.218353 0.835845 0.49512 0.237106 -0.548057 0.77793 0.30734 
-0.250424 0.898176 0.361343 0.0215851 -0.987123 0.158501 0.922721 0.259314 0.285205 
0.804122 0.40819 0.432168 0.470109 0.755232 0.45675 -0.291859 0.879322 0.376314 
0.0234679 0.911632 0.410336 -0.577687 -0.781958 0.234136 0.416075 -0.857195 0.303476 
0.765893 -0.590038 0.255465 -0.954246 -0.24644 0.169359 -0.938195 0.138438 0.317215 
0.910166 -0.0314863 0.413045 0.52353 0.60242 0.6025 0.640835 0.404874 0.652233 
-0.599608 0.635677 0.486195 -0.337443 0.765495 0.547859 -0.2939 -0.852353 0.43257 
-0.475093 -0.780978 0.405413 -0.129751 -0.961232 0.243306 0.242181 -0.944666 0.221255 
-0.808484 -0.483045 0.336185 -0.927127 -0.208248 0.311557 0.474128 -0.731218 0.490431 
0.571608 -0.650114 0.500615 -0.85353 0.420529 0.307639 0.575295 0.181298 0.797601 
0.451839 0.157956 0.878004 0.650208 0.35446 0.672003 0.824078 0.0374685 0.565236 
-0.624976 0.483719 0.612716 -0.36851 0.586877 0.720955 -0.1395 0.675552 0.723996 
0.138062 0.782846 0.606705 -0.465273 -0.69001 0.554443 -0.0503294 -0.868916 0.492394 
-0.75385 -0.318273 0.574815 0.0542015 -0.709675 0.702441 0.200388 -0.870906 0.448739 
-0.909532 0.0569698 0.411711 0.354597 -0.620179 0.699742 -0.868634 0.20469 0.451195 
0.441336 -0.423858 0.790928 -0.736635 0.329571 0.590552 0.752269 -0.521568 0.402564 
0.821303 -0.209281 0.530719 -0.380989 0.385626 0.840321 0.284473 0.0271163 0.958301 
0.586415 -0.21739 0.780294 0.187993 0.473383 0.860562 0.00426226 0.530907 0.84742 
-0.345264 -0.525288 0.777731 -0.230212 -0.620094 0.74999 -0.191547 -0.582682 0.789805 
-0.452418 -0.3644 0.813959 -0.699983 -0.158699 0.696304 -0.463644 0.0497798 0.884622 
0.203554 -0.603923 0.770612 -0.741341 0.094292 0.664472 -0.171368 0.095009 0.980615 
0.510931 -0.514144 0.688916 0.455673 -0.566535 0.686586 0.0238607 0.278322 0.960191 
-0.235217 -0.305659 0.92263 -0.0885535 -0.310731 0.946364 -0.245694 -0.114065 0.962613 
0.308558 -0.569617 0.761793 0.00616275 -0.0806398 0.996724 0.176896 -0.238128 0.954988 
-0.285287 -0.569054 -0.771225 -0.13652 -0.701834 -0.699136 0.257786 -0.633941 -0.729154 
-0.514148 -0.239602 -0.823555 -0.0380362 -0.257961 -0.965406 0.131849 -0.433273 -0.891566 
-0.337947 0.0181513 -0.94099 -0.658837 0.103124 -0.745184 -0.485514 -0.7279 -0.484187 
-0.6661 -0.341159 -0.663265 -0.809798 -0.171942 -0.560949 0.346592 -0.212271 -0.913682 
-0.236901 0.299605 -0.924183 -0.148501 0.322026 -0.935012 0.0645485 0.189636 -0.97973 
0.143621 0.118695 -0.982489 0.312007 0.183757 -0.93214 0.491617 -0.126611 -0.861558 
0.0543906 0.41201 -0.909555 0.514627 0.17804 -0.838725 -0.229074 -0.922394 -0.310989 
0.167054 -0.866309 -0.470747 -0.646009 -0.691966 -0.322267 -0.846377 -0.401442 -0.349987 
0.371983 -0.418268 -0.828662 0.439498 -0.430539 -0.788339 0.528485 -0.602431 -0.598148 
-0.884956 -0.00610885 -0.465634 0.604266 -0.139911 -0.784403 -0.862499 0.227577 -0.452 
-0.629397 0.238534 -0.739568 0.41071 -0.203144 -0.888848 -0.731798 0.17586 -0.658441 
-0.855508 0.400801 -0.327819 -0.637202 0.430299 -0.639387 -0.298916 0.196623 -0.933803 
-0.546545 0.572059 -0.611586 -0.517125 0.288863 -0.805692 -0.710032 0.527806 -0.466128 
-0.420899 0.56751 -0.707656 -0.0456543 0.289147 -0.956196 -0.345346 0.699178 -0.626009 
-0.0663163 0.409863 -0.909733 -0.256874 0.530009 -0.80815 -0.000509881 0.637126 -0.770759 
0.212277 0.676295 -0.705381 -0.221787 -0.958186 -0.180803 0.210543 -0.931466 -0.29672 
-0.869745 -0.347269 -0.350638 -0.830637 -0.498826 -0.247418 -0.570886 -0.75828 -0.314804 
-0.937665 -0.222412 -0.267051 0.465003 -0.708267 -0.53116 0.529684 -0.385118 -0.755725 
0.478005 -0.652169 -0.588376 0.68141 -0.515348 -0.519709 -0.917182 -0.0562018 -0.394485 
-0.737242 0.146076 -0.659649 0.667589 0.00470547 -0.744515 -0.508586 0.243759 -0.825786 
0.823485 -0.181529 -0.537512 -0.798605 0.4678 -0.378674 -0.267636 0.171101 -0.948206 
-0.678512 0.554467 -0.481858 -0.108675 0.38703 -0.915641 -0.126925 0.805523 -0.578811 
-0.513625 -0.816632 -0.263252 -0.79463 -0.595345 -0.118861 0.627065 -0.71969 -0.298054 
0.78565 -0.582601 -0.208157 0.939828 -0.318643 -0.123247 0.772377 0.0522491 -0.633011 
0.718031 0.255131 -0.647564 -0.165595 0.868767 -0.466715 -0.598784 -0.79674 -0.0816347 
-0.561842 -0.826965 0.0214957 -0.795368 -0.601157 -0.0774597 0.546297 -0.818836 -0.176259 
0.447318 -0.861562 -0.240035 0.650747 0.502017 -0.569656 -0.567841 0.7042 -0.426215 
0.353702 0.731506 -0.582918 -0.173875 0.878922 -0.444144 -0.940592 -0.320496 -0.112112 
-0.969573 -0.0542578 -0.238712 0.953645 0.131658 -0.270606 -0.764453 0.622359 -0.168171 
0.600426 0.702479 -0.382115 -0.149382 -0.98183 -0.117023 0.423334 -0.902693 -0.0770314 
-0.786668 -0.61103 0.0883013 -0.968697 -0.236178 -0.0764637 0.640997 -0.76676 0.0346614 
-0.986128 0.103465 -0.129791 0.974739 -0.219648 0.0404721 -0.874162 0.427279 -0.230813 
0.846697 0.462158 -0.263653 -0.63526 0.771574 -0.033435 -0.481877 0.858339 -0.176207 
0.534725 0.815607 -0.22103 -0.250415 0.966825 -0.050411 0.155977 0.940201 -0.302808 
-0.188796 -0.977677 0.0922181 -0.907248 -0.41936 0.0322171 0.622855 -0.775178 0.105599 
-0.970727 0.237518 0.0356853 -0.917191 0.387842 0.0913244 0.962888 0.269749 -0.00907586 
0.858472 0.50026 -0.112983 0.746692 0.665078 -0.0110668 0.17273 0.982639 -0.0677103 
-0.412369 -0.902316 0.125612 0.0394472 -0.973324 0.226018 0.25703 -0.952042 0.165985 
-0.849385 -0.468532 0.242945 -0.98137 -0.140435 0.131112 0.74678 -0.574735 0.334663 
0.983704 -0.135208 0.118511 0.913395 0.396467 0.0923193 -0.68456 -0.645516 0.338655 
-0.265901 -0.891238 0.367412 0.469648 -0.868126 0.160588 0.872276 -0.435497 0.222436 
0.195708 0.980655 -0.00367736 -0.343991 -0.857729 0.382061 0.103555 -0.923467 0.369439 
0.315738 -0.92143 0.226444 -0.948168 -0.139086 0.285714 0.597861 -0.69777 0.394562 
0.808002 -0.471392 0.353443 -0.925617 0.376703 0.03645 0.935768 -0.0766896 0.344176 
0.956459 0.133527 0.259532 0.52732 0.835399 0.155058 0.32475 0.935909 0.136428 
-0.1957 0.974856 0.106575 -0.724289 -0.496233 0.478704 -0.27854 -0.849567 0.447941 
-0.902631 -0.224853 0.367012 0.453088 -0.759588 0.466624 -0.927357 -0.0625858 0.368908 
0.816063 -0.309349 0.488205 0.872417 -0.0571048 0.485416 0.895652 0.341202 0.285289 
-0.90902 0.406561 0.091603 -0.687636 0.72463 0.0454662 0.125635 0.932392 0.338912 
-0.485573 -0.704045 0.518208 -0.0446801 -0.864323 0.500948 -0.94309 0.0164895 0.332129 
-0.922983 0.0836492 0.375641 -0.862734 0.289424 0.414638 -0.682675 0.653002 0.327937 
0.844181 0.444624 0.299445 -0.353746 0.884261 0.304871 -0.478504 -0.634081 0.607433 
-0.0400918 -0.799345 0.599533 -0.803136 -0.324212 0.49986 -0.815031 -0.107996 0.569264 
0.721981 -0.432861 0.539791 0.661995 0.531618 0.528342 0.83348 0.327206 0.445249 
-0.531528 0.725313 0.437492 0.558349 0.699075 0.4467 -0.654505 -0.454954 0.603854 
0.450288 -0.682026 0.576265 -0.779244 -0.178661 0.600716 -0.777099 0.154841 0.610034 
0.735194 -0.190101 0.650655 -0.788012 0.372556 0.490141 0.721754 0.304285 0.621677 
-0.597937 0.555496 0.577837 0.565325 0.538325 0.624991 0.544508 0.365395 0.754982 
0.387397 0.69902 0.601078 -0.0696314 -0.721163 0.689257 0.430453 -0.677628 0.596264 
-0.742891 0.0133296 0.66928 -0.65847 0.153785 0.736727 0.681509 -0.0631659 0.729079 
0.585176 0.273141 0.76352 0.692594 0.126653 0.710121 -0.25297 0.771932 0.583204 
0.153517 0.786345 0.59841 -0.33832 -0.635289 0.694225 -0.565225 -0.367651 0.738481 
0.233382 -0.679698 0.695373 0.691699 -0.218872 0.688221 0.706908 0.0278252 0.706758 
0.556901 0.0996518 0.824579 -0.503865 0.309439 0.806454 -0.0691524 0.697491 0.713249 
0.00226546 -0.485452 0.87426 -0.350309 -0.321835 0.879605 0.516365 -0.321115 0.793884 
0.251813 -0.410806 0.876259 0.517495 -0.405355 0.753582 -0.51145 0.0632246 0.856984 
-0.0743702 -0.0323744 0.996705 0.442783 -0.0201834 0.896402 -0.314275 0.452336 0.83464 
0.0127496 0.390847 0.920367 0.182225 0.0533729 0.981807 0.283319 0.471655 0.835028 

