# vtk DataFile Version 4.2
vtk output
ASCII
DATASET POLYDATA
POINTS 770 float
316.857 34.2255 126.992 316.831 34.2031 127.031 316.821 34.2669 127.023 
316.871 34.2669 127.028 316.909 34.1468 127.194 316.937 34.3221 127.188 
316.779 34.6045 127.228 316.599 34.2212 127.374 316.999 34.1238 127.325 
316.57 34.5996 127.307 317.039 34.2282 127.312 316.359 34.8817 127.471 
316.356 35.1961 127.522 316.489 35.3416 127.489 316.679 35.272 127.459 
316.546 35.6262 127.586 316.745 35.5316 127.597 316.558 36.7843 127.829 
316.501 36.6736 127.857 316.515 36.8319 127.865 316.612 36.6009 127.868 
316.557 36.8629 127.841 316.534 36.8744 127.925 316.597 36.7956 127.873 
316.571 36.8721 127.869 316.689 33.8364 127.721 316.421 33.7146 127.999 
316.945 33.8073 127.743 316.382 33.9967 127.751 316.104 34.1615 127.908 
317.213 34.0318 127.82 317.174 34.5122 127.657 316.056 35.6346 127.875 
317.074 35.2265 127.803 316.408 36.033 127.765 316.345 36.4981 127.925 
316.55 36.3425 127.819 316.768 36.2062 127.953 316.302 36.716 128.04 
316.417 36.8105 128.026 316.547 36.8446 128.175 316.588 36.8342 127.953 
316.873 33.2608 128.577 317.297 33.5699 128.439 315.572 35.752 128.463 
316.273 36.8214 128.182 316.319 36.9866 128.462 316.554 36.8751 128.544 
317.51 33.3758 129.088 316.061 36.9638 128.808 316.172 37.2125 128.597 
316.244 37.1679 128.565 316.298 37.1148 128.665 316.465 36.9574 128.935 
316.198 37.2154 128.588 316.228 37.1894 128.641 317.863 33.3561 130.068 
316.241 37.097 128.837 316.237 36.9825 129.434 315.138 32.2858 130.924 
317.067 32.4161 130.19 317.929 32.8933 130.746 313.704 34.8547 131.246 
315.118 36.4769 130.11 317.035 36.544 130.586 315.415 36.7278 130.243 
315.712 36.8845 130.39 316.084 36.9541 130.275 317.491 31.9767 131.414 
318.252 32.9157 131.493 313.342 34.3369 131.735 314.487 36.4549 132.258 
316.941 36.6057 131.315 315.121 31.0263 132.842 316.76 30.83 133.029 
312.944 33.8127 132.384 312.967 34.9709 132.554 313.282 35.3959 132.393 
313.493 35.867 132.706 317.328 36.2982 131.917 315.992 36.8334 132.158 
314.275 30.9454 133.503 312.398 32.3273 133.773 311.719 34.1541 134.151 
318.765 33.9211 133.061 318.367 34.9198 132.612 317.768 30.4465 134.328 
311.472 32.077 134.981 311.631 32.9402 134.332 311.482 33.5553 134.416 
311.997 34.8633 134.183 318.14 35.4789 133.308 318.57 34.9501 133.972 
312.776 35.9826 134.638 317.382 36.2357 133.303 319.247 31.0254 135.396 
319.256 33.3855 134.549 311.4 35.0014 135.666 318.638 35.0934 134.975 
312.113 35.4512 134.841 314.312 36.6741 135.205 313.798 36.5725 135.391 
315.476 36.7246 135.608 316.815 36.4997 134.302 317.418 36.1845 134.944 
313.094 29.3492 136.857 318.114 29.4299 136.472 318.733 30.0838 135.857 
319.122 30.2693 136.043 319.748 30.6078 136.666 319.783 31.4969 136.124 
310.784 32.2161 135.742 319.746 32.1557 135.894 319.321 34.0296 135.5 
311.334 35.2505 136.302 319.201 34.6468 136.387 318.431 35.4447 135.637 
316.709 36.4597 136.092 310.966 30.0708 137.551 314.117 28.7719 137.511 
310.061 33.7817 137.012 310.239 34.3332 137.113 310.597 34.6138 136.727 
310.722 35.195 137.498 311.05 35.5305 137.745 317.916 35.8971 136.674 
309.16 30.5586 138.845 309.491 32.2532 137.679 310.278 34.943 137.95 
311.641 35.9838 138.463 314.916 36.5789 138.928 320.04 28.8233 139.595 
308.106 29.9114 140.514 320.898 30.0901 139.384 307.313 31.14 140.617 
309.229 35.1535 140.982 310.107 35.4884 140.586 309.444 35.28 140.802 
320.817 29.1359 140.31 307.07 30.6567 141.097 306.633 32.2474 141.447 
307.146 33.4856 141.683 308.686 35.0728 142.232 306.692 28.9693 142.953 
307.856 28.0794 143.084 321.279 29.0934 141.523 306.728 34.0724 143.106 
307.613 34.6065 142.84 320.29 27.337 143.095 322.428 28.2088 144.144 
322.234 29.9217 142.809 322.38 31.2419 143.024 305.919 33.1869 143.196 
308.837 35.3851 143.744 321.589 27.4847 144.072 322.203 27.8058 144.308 
305.016 30.0764 144.011 322.422 31.9932 143.552 305.74 34.2694 145.167 
310.254 35.7766 144.325 315.221 25.7038 145.631 320.771 26.7715 144.623 
322.821 27.4225 145.454 307.645 27.2227 144.835 323.48 29.1702 145.553 
304.121 30.3897 145.121 322.667 32.3018 144.62 322.412 32.7862 144.631 
321.158 34.21 144.543 303.499 28.2091 147.314 303.176 29.2578 146.773 
303.607 30.0754 145.887 302.974 31.065 146.5 302.812 31.912 146.855 
321.766 33.7684 145.234 302.4 29.5083 147.5 302.581 29.8783 147.139 
303.008 33.3708 147.54 322.895 32.995 147.04 303.655 33.728 147.093 
303.873 34.0662 147.347 306.402 35.0746 147.009 324.597 28.4419 148.303 
301.393 30.6525 148.367 302.97 33.8229 148.161 322.975 33.1577 148.07 
321.077 34.4179 147.648 324.305 26.421 149.473 324.559 27.4248 148.9 
324.993 30.1394 149.355 300.985 31.1467 148.895 302.872 34.0348 148.729 
302.827 34.1786 149.261 306.744 25.3022 149.987 300.464 27.8147 150.952 
300.246 28.5336 150.555 325.311 29.4193 149.878 300.14 30.9119 150.091 
324.678 31.2208 149.473 322.924 33.3211 149.623 324.656 25.23 151.616 
325.693 27.1008 151.314 325.61 29.8392 150.845 299.166 31.7404 151.71 
324.426 31.8479 150.053 326.096 27.0518 152.073 326.175 29.1548 151.898 
299.156 29.8508 151.457 298.661 30.4924 152.14 298.632 31.6663 152.551 
299.067 32.2028 152.204 312.168 34.8395 152.498 319.664 34.4123 151.781 
303.253 34.5525 151.874 298.351 28.4019 153.172 298.255 29.9015 152.742 
298.023 31.1637 153.361 324.63 24.0617 153.704 326.319 24.7935 154.343 
326.904 25.5322 154.612 297.788 27.3838 154.65 326.959 27.1763 153.934 
297.567 29.8784 153.856 297.755 30.2679 153.548 298.483 32.6979 154.154 
299.147 33.3086 154.154 300.016 33.7184 153.837 308.096 23.8482 154.804 
311.704 23.5661 154.468 313.574 23.4569 154.531 327.149 25.7133 155.068 
297.89 26.5927 155.595 296.877 30.4125 155.053 296.779 31.1196 155.561 
323.214 32.8286 153.7 300.392 33.8459 154.63 302.333 34.0224 155.219 
325.945 23.8174 155.864 312.591 23.4501 155.313 314.105 23.4105 155.722 
310.789 23.5736 155.276 327.505 27.2341 155.768 325.402 31.1165 155.377 
321.601 23.5578 156.597 327.301 24.3452 156.765 296.515 27.1639 157.29 
327.582 26.6626 156.325 327.635 27.0528 156.137 327.656 27.1379 156.178 
296.326 27.8786 156.88 327.237 28.309 155.736 327.594 27.264 156.172 
323.871 31.594 156.5 297.034 32.3388 156.713 296.828 32.3243 157.163 
313.843 23.6241 156.939 325.537 23.7283 156.867 326.973 24.0636 156.841 
327.397 24.3985 156.97 327.241 24.2117 156.914 327.331 24.2693 157.101 
306.742 24.0311 156.897 311.21 23.7542 157.043 299.345 25.546 157.076 
301 25.1789 157.576 305.138 24.1906 156.875 327.534 24.8829 157.073 
327.464 24.7707 157.271 296.851 26.6953 157.519 296.747 26.6056 157.952 
327.63 27.0685 156.28 327.52 27.2323 156.525 295.507 29.8933 157.978 
295.437 30.8211 158.256 326.456 29.552 156.933 314.941 32.5951 157.11 
302.098 33.2263 157.157 308.119 32.7383 157.432 296.704 32.3383 157.714 
315.188 24.284 158.113 326.04 23.902 157.179 326.512 23.9515 157.114 
327.164 24.1385 157.092 327.27 24.2746 157.253 304.85 24.6013 158.022 
316.464 24.4998 158.292 320.038 24.4813 158.039 322.862 24.4329 158.005 
327.317 24.497 157.377 296.676 26.6262 158.463 296.408 26.8438 158.582 
297.071 26.4935 158.535 324.326 24.5429 158.161 296.205 27.0757 158.415 
318.773 25.3309 158.715 320.553 25.38 158.646 327.397 25.1431 157.464 
295.934 27.517 158.563 324.956 25.813 158.674 327.397 25.5614 157.521 
295.712 28.0727 158.632 326.753 28.6124 157.626 295.329 30.833 158.73 
295.342 30.93 158.555 325.742 29.5861 157.827 313.595 32.323 157.509 
321.46 31.3585 157.744 295.854 31.8447 158.468 302.972 32.5057 158.065 
327.087 24.1449 157.248 302.264 25.2447 158.39 302.415 25.4286 158.714 
306.508 24.6549 158.354 306.792 25.0242 158.805 310.153 24.9517 158.933 
326.432 24.3837 157.671 326.829 24.3325 157.533 300.928 26.083 158.908 
306.983 25.429 159.118 325.218 24.8736 158.239 327.12 24.562 157.55 
296.436 27.0383 158.958 296.184 27.1901 158.799 299.407 27.0123 159.481 
308.974 25.5344 159.283 295.936 27.4927 158.846 296.043 27.4729 158.992 
295.89 27.6459 158.976 299.716 27.3949 159.712 308.026 25.8867 159.38 
310.421 26.5919 159.748 319.113 26.3429 159.06 326.643 26.1562 158.256 
295.824 27.8551 159.002 300.473 27.7776 159.834 325.506 26.5867 158.75 
326.954 26.6588 157.941 295.738 28.049 158.904 301.515 28.6135 159.927 
316.336 28.6851 159.434 325.749 27.6577 158.697 326.658 28.0066 158.077 
295.432 29.5042 158.589 295.409 30.7095 158.933 303.73 29.7985 159.731 
320.531 29.349 159.001 322.264 29.3316 158.853 326.201 29.2346 157.833 
326.337 28.924 157.981 295.351 31.0753 158.691 295.488 31.3262 158.937 
303.91 31.4541 158.934 310.537 31.2668 158.645 315.448 31.1276 158.457 
320.546 31.0663 158.12 295.542 31.5115 158.787 295.717 31.7336 158.756 
299.538 32.6566 158.209 301.756 31.9979 158.652 296.334 32.1378 158.567 
296.749 32.3048 158.489 302.654 25.6016 158.926 303.997 25.4244 158.931 
305.468 25.0883 158.755 297.261 26.8007 159.075 296.355 27.3888 159.133 
296.773 27.3706 159.3 297.64 26.929 159.251 296.297 28.6313 159.486 
297.447 29.1724 159.859 297.743 29.9414 159.898 315.468 29.3498 159.304 
326.369 28.2293 158.27 295.838 30.4263 159.366 313.248 30.0151 159.139 
322.809 29.8281 158.603 324.114 29.5154 158.569 296.038 30.7274 159.449 
298.207 31.0703 159.692 295.601 31.3702 159.079 298.745 31.5999 159.387 
295.747 31.7144 158.962 298.449 32.0211 159.083 296.524 32.0813 158.823 
297.002 28.8934 159.771 296.531 31.25 159.451 295.75 31.5567 159.094 
296.39 31.5552 159.279 295.935 31.7617 159.029 296.26 31.8189 159.067 
296.918 31.5024 297.156 296.672 31.5019 297.254 297.058 31.2882 297.091 
296.661 31.752 297.362 297.258 31.6147 297.155 298.404 31.9458 297.186 
298.236 31.8073 297.135 296.82 31.9733 297.483 296.556 31.8409 297.51 
297.087 32.2184 297.723 302.559 25.0434 297.608 302.423 24.9874 297.793 
302.436 25.173 297.558 307.294 24.7802 297.61 302.693 25.14 297.511 
[...]
POINT_DATA 770
SCALARS scalars float
LOOKUP_TABLE default
1 1 1 1 1 1 1 1 1 
1 1 1 1 1 1 1 1 1 
1 1 1 1 1 1 1 1 1 
1 1 1 1 1 1 1 1 1 
1 1 1 1 1 1 1 1 1 
1 1 1 1 1 1 1 1 1 
1 1 1 1 1 1 1 1 1 
1 1 1 1 1 1 1 1 1 
1 1 1 1 1 1 1 1 1 
1 1 1 1 1 1 1 1 1 
1 1 1 1 1 1 1 1 1 
1 1 1 1 1 1 1 1 1 
1 1 1 1 1 1 1 1 1 
1 1 1 1 1 1 1 1 1 
1 1 1 1 1 1 1 1 1 
1 1 1 1 1 1 1 1 1 
1 1 1 1 1 1 1 1 1 
1 1 1 1 1 1 1 1 1 
1 1 1 1 1 1 1 1 1 
1 1 1 1 1 1 1 1 1 
1 1 1 1 1 1 1 1 1 
1 1 1 1 1 1 1 1 1 
1 1 1 1 1 1 1 1 1 
1 1 1 1 1 1 1 1 1 
1 1 1 1 1 1 1 1 1 
1 1 1 1 1 1 1 1 1 
1 1 1 1 1 1 1 1 1 
1 1 1 1 1 1 1 1 1 
1 1 1 1 1 1 1 1 1 
1 1 1 1 1 1 1 1 1 
1 1 1 1 1 1 1 1 1 
1 1 1 1 1 1 1 1 1 
1 1 1 1 1 1 1 1 1 
1 1 1 1 1 1 1 1 1 
1 1 1 1 1 1 1 1 1 
1 1 1 1 1 1 1 1 1 
1 1 1 1 1 1 1 1 1 
1 1 1 1 1 1 1 1 1 
1 1 1 1 1 1 1 1 1 
1 1 1 1 1 1 1 1 1 
1 1 1 1 1 1 1 1 1 
1 1 1 1 1 1 1 1 1 
1 1 1 1 1 1 1 1 1 
1 1 1 1 1 1 1 1 1 
1 1 1 1 1 1 1 1 1 
1 1 1 1 1 1 1 1 1 
1 1 1 1 1 1 1 1 1 
1 1 1 1 1 1 1 1 1 
1 1 1 1 1 1 1 1 1 
1 1 1 1 1 1 1 1 1 
1 1 1 1 1 1 1 1 1 
1 1 1 1 1 1 1 1 1 
1 1 1 1 1 1 1 1 1 
1 1 1 1 1 1 1 1 1 
1 1 1 1 1 1 1 1 1 
1 1 1 1 1 1 1 1 1 
1 1 1 1 1 1 1 1 1 
1 1 1 1 1 1 1 1 1 
1 1 1 1 1 1 1 1 1 
1 1 1 1 1 1 1 1 1 
1 1 1 1 1 1 1 1 1 
1 1 1 1 1 1 1 1 1 
1 1 1 1 1 1 1 1 1 
1 1 1 1 1 1 1 1 1 
1 1 1 1 1 1 1 1 1 
1 1 1 1 1 1 1 1 1 
1 1 1 1 1 1 1 1 1 
1 1 1 1 1 1 1 1 1 
1 1 1 1 1 1 1 1 1 
1 1 1 1 1 1 1 1 1 
1 1 1 1 1 1 1 1 1 
1 1 1 1 1 1 1 1 1 
1 1 1 1 1 1 1 1 1 
1 1 1 1 1 1 1 1 1 
1 1 1 1 1 1 1 1 1 
1 1 1 1 1 1 1 1 1 
1 1 1 1 1 1 1 1 1 
1 1 1 1 1 1 1 1 1 
1 1 1 1 1 1 1 1 1 
1 1 1 1 1 1 1 1 1 
1 1 1 1 1 1 1 1 1 
1 1 1 1 1 1 1 1 1 
1 1 1 1 1 1 1 1 1 
1 1 1 1 1 1 1 1 1 
1 1 1 1 1 1 1 1 1 
1 1 1 1 1 
NORMALS Normals float
0.416065 -0.41116 -0.811071 -0.624419 -0.524227 -0.57904 -0.516739 0.213213 -0.829169 
0.524145 0.473765 -0.707686 0.567184 -0.633289 -0.526543 0.821217 0.073735 -0.565833 
0.210722 0.438066 -0.873896 -0.739833 -0.363807 -0.565943 0.703959 -0.458108 -0.542751 
-0.625257 -0.000412289 -0.780419 0.845746 -0.0622686 -0.52994 -0.649749 0.0578865 -0.757942 
-0.655592 0.180962 -0.733111 -0.314908 0.259516 -0.912954 0.312301 0.341145 -0.886616 
-0.192512 0.375537 -0.906593 0.416717 0.349496 -0.839166 0.0775705 0.0470407 -0.995877 
-0.448283 0.0941245 -0.888923 -0.715376 0.373283 -0.590675 0.432346 0.0197684 -0.901491 
0.0340538 0.653492 -0.756167 -0.176275 0.982582 -0.0588168 0.891622 0.267301 -0.365459 
0.644045 0.750118 -0.150095 -0.196051 -0.816305 -0.543332 -0.455479 -0.771784 -0.443722 
0.29995 -0.802443 -0.515863 -0.590423 -0.488112 -0.642765 -0.789083 -0.295275 -0.538665 
0.861181 -0.338057 -0.379586 0.951132 0.0606972 -0.302761 -0.679863 0.191837 -0.707803 
0.815251 0.300631 -0.494961 -0.239603 0.29331 -0.925505 -0.499433 0.258504 -0.826887 
0.097304 0.196532 -0.975657 0.807277 0.245557 -0.536661 -0.650564 0.386566 -0.653707 
-0.538341 0.682647 -0.494148 0.447455 0.893926 -0.0260976 0.846709 0.513794 0.138204 
-0.227806 -0.840288 -0.491957 0.722444 -0.547328 -0.4225 -0.819691 0.15027 -0.552743 
-0.683692 0.552933 -0.476268 0.140068 0.857888 -0.494377 0.741089 0.668391 -0.0635641 
0.88551 -0.297399 -0.356968 -0.735453 0.645042 -0.207436 -0.486268 0.818541 -0.305834 
0.495695 0.655642 -0.56958 0.737537 0.675243 0.00925219 0.55038 0.834623 0.0220473 
0.216702 0.92796 -0.3032 0.472918 0.85148 0.226565 0.874079 -0.329559 -0.356898 
0.0828368 0.936343 0.341175 -0.0920345 0.991517 0.091779 -0.382316 -0.733259 -0.562285 
0.418267 -0.79783 -0.434189 0.840745 -0.397977 -0.367099 -0.791673 0.101488 -0.602457 
-0.761312 0.64042 -0.101325 0.582088 0.812684 -0.0268084 -0.463598 0.881917 0.0854334 
-0.403857 0.908193 0.109932 -0.0471035 0.998114 -0.0393546 0.423318 -0.766239 -0.483405 
0.83872 -0.383887 -0.386239 -0.702776 -0.141723 -0.697152 -0.486898 0.855256 -0.177391 
0.58043 0.813831 -0.0279334 -0.0937494 -0.901704 -0.422068 0.0553343 -0.898352 -0.435778 
-0.796942 -0.0532183 -0.601707 -0.833373 0.315699 -0.453677 -0.774484 0.476632 -0.415928 
-0.656991 0.68651 -0.311554 0.63706 0.770641 -0.0163308 0.117571 0.992348 0.0377113 
-0.297495 -0.830067 -0.471683 -0.587179 -0.514034 -0.625292 -0.873083 0.19441 -0.447135 
0.955457 0.131968 -0.263981 0.857259 0.493361 -0.147316 0.227046 -0.876943 -0.423581 
-0.738195 -0.368894 -0.564787 -0.775325 -0.182472 -0.604629 -0.824487 -0.0697318 -0.561568 
-0.797079 0.437312 -0.416442 0.823852 0.553882 -0.120344 0.858901 0.497684 -0.120827 
-0.598498 0.760645 -0.251434 0.621113 0.782655 -0.0408574 0.799703 -0.389202 -0.457161 
0.944484 0.16775 -0.282507 -0.888653 0.395379 -0.232317 0.80452 0.579107 -0.131838 
-0.765637 0.566259 -0.305206 -0.0539633 0.998244 0.0244243 -0.283164 0.958105 -0.0430391 
0.0921962 0.994941 0.0399031 0.26334 0.964382 0.0248748 0.487891 0.872865 0.00828287 
-0.394404 -0.799002 -0.453918 0.347242 -0.857235 -0.380224 0.533208 -0.769924 -0.350579 
0.687104 -0.625482 -0.369675 0.790643 -0.549577 -0.269905 0.929743 -0.212088 -0.300992 
-0.799207 -0.238913 -0.551534 0.965847 0.030594 -0.257299 0.910299 0.379226 -0.165961 
-0.771716 0.582426 -0.255411 0.86076 0.47429 -0.184773 0.687379 0.722296 -0.0761556 
0.360081 0.932422 0.0305142 -0.556519 -0.640675 -0.528982 -0.106073 -0.916534 -0.385635 
-0.85738 0.232934 -0.458958 -0.814807 0.462788 -0.349167 -0.720892 0.557881 -0.411198 
-0.641707 0.679539 -0.355581 -0.558956 0.790439 -0.25055 0.483464 0.875302 0.010423 
-0.652646 -0.388453 -0.650506 -0.795256 -0.0930074 -0.599097 -0.671894 0.698051 -0.247554 
-0.429885 0.898433 -0.0895371 -0.0164095 0.997315 0.0713631 0.458668 -0.798682 -0.389527 
-0.622824 -0.518868 -0.585548 0.854998 -0.330157 -0.399968 -0.730426 -0.186021 -0.657171 
-0.496523 0.866632 -0.0491247 -0.313674 0.949343 0.0188681 -0.487976 0.868608 -0.0860238 
0.709875 -0.600678 -0.367782 -0.696901 -0.385811 -0.604549 -0.795632 0.0830827 -0.600055 
-0.714247 0.558434 -0.421904 -0.404478 0.898853 -0.168701 -0.592353 -0.654153 -0.470321 
-0.417348 -0.758293 -0.500812 0.720359 -0.551445 -0.420704 -0.569063 0.708087 -0.418068 
-0.560443 0.729482 -0.392123 0.379072 -0.850618 -0.364353 0.789681 -0.466223 -0.398799 
0.937782 -0.166296 -0.304811 0.96449 0.0417272 -0.260803 -0.684781 0.508713 -0.521811 
-0.389438 0.914399 -0.110508 0.368265 -0.798242 -0.476645 0.652185 -0.625341 -0.42849 
-0.760173 -0.353367 -0.545224 0.947343 0.19104 -0.256992 -0.543349 0.777702 -0.316151 
-0.195374 0.980619 -0.0147037 -0.0270053 -0.937606 -0.346649 0.292116 -0.850931 -0.43656 
0.765884 -0.433362 -0.474994 -0.394942 -0.7805 -0.484604 0.90506 -0.171039 -0.389375 
-0.756967 -0.379092 -0.53225 0.922045 0.325462 -0.209542 0.836791 0.523676 -0.159826 
0.542628 0.834303 -0.0974292 -0.571277 -0.605377 -0.554222 -0.670941 -0.37347 -0.640592 
-0.668348 -0.212434 -0.712869 -0.717199 -0.00915331 -0.696808 -0.755007 0.241154 -0.609762 
0.775529 0.624547 -0.0921727 -0.745732 -0.367974 -0.555409 -0.748027 -0.21351 -0.628386 
-0.777578 0.434006 -0.454984 0.780886 0.612105 -0.12468 -0.57599 0.633892 -0.516155 
-0.452871 0.81581 -0.35967 -0.18979 0.976426 -0.102817 0.795645 -0.188391 -0.575724 
-0.837909 -0.0935777 -0.537728 -0.436512 0.802981 -0.405807 0.802328 0.584946 -0.118779 
0.407905 0.911928 -0.0447234 0.535899 -0.659341 -0.527335 0.826798 -0.278577 -0.488672 
0.922499 0.105183 -0.371393 -0.855169 -0.0316713 -0.517381 -0.98162 0.095394 -0.165291 
-0.41433 0.878052 -0.239491 -0.188079 -0.939073 -0.287696 -0.63455 -0.574339 -0.517185 
-0.748958 -0.399439 -0.528688 0.952807 0.0235062 -0.302665 -0.786907 0.114675 -0.606323 
0.860891 0.452702 -0.232224 0.600905 0.798512 -0.0359419 0.621157 -0.612712 -0.488618 
0.869631 -0.208769 -0.44739 0.942372 0.183135 -0.279995 -0.789523 0.240384 -0.564684 
0.789433 0.601448 -0.122702 0.86111 -0.193519 -0.470149 0.931314 0.215618 -0.293535 
-0.810251 -0.149132 -0.566791 -0.82287 0.0498215 -0.566041 -0.810639 0.351963 -0.467959 
-0.772864 0.399721 -0.492853 0.0498193 0.93246 0.357821 0.158317 0.976425 0.146731 
-0.247684 0.962398 -0.111551 -0.788501 -0.236937 -0.567563 -0.831335 -0.00956183 -0.555689 
-0.852218 0.242169 -0.463765 0.259933 -0.891318 -0.371466 0.665643 -0.633087 -0.39512 
0.831161 -0.368732 -0.416182 -0.692216 -0.508842 -0.511778 0.936812 0.0147972 -0.349519 
-0.876248 -0.0505114 -0.479206 -0.868307 0.00942334 -0.495938 -0.742887 0.58628 -0.323101 
-0.605903 0.752896 -0.256962 -0.309749 0.939242 -0.147916 -0.0890821 -0.987558 -0.129593 
-0.0859255 -0.990433 -0.10798 -0.0750171 -0.993889 -0.0809805 0.919202 -0.193754 -0.342822 
-0.396067 -0.802813 -0.445672 -0.891766 -0.0297821 -0.451515 -0.825706 0.43645 -0.35738 
0.484575 0.861609 0.151053 -0.271072 0.95836 0.0898071 0.00195675 0.969699 0.244294 
0.320711 -0.928672 -0.186314 -0.0604272 -0.99695 -0.0493805 -0.00976827 -0.986871 0.161217 
-0.107594 -0.989813 -0.0932413 0.920974 0.0530123 -0.386001 0.698653 0.704646 0.12393 
0.0360309 -0.969574 0.242132 0.752719 -0.546334 -0.367333 -0.723691 -0.526884 -0.445718 
0.991293 -0.122123 -0.0492258 0.962279 -0.20155 -0.18275 0.990244 0.138816 -0.0121239 
-0.781834 -0.363186 -0.506786 0.939244 0.327104 -0.104034 0.925239 0.36634 0.0986299 
0.278834 0.818248 0.502715 -0.45591 0.876961 -0.151938 -0.630729 0.733995 -0.251855 
-0.0102176 -0.976921 0.213355 0.0147195 -0.920936 0.389435 0.347964 -0.926475 -0.143405 
0.887361 -0.432999 -0.158441 0.655988 -0.724708 -0.210896 0.83927 -0.521385 0.154219 
0.0314523 -0.943508 0.329853 -0.0880571 -0.956589 0.277819 -0.325029 -0.912583 -0.248088 
-0.23494 -0.898714 0.370292 -0.134237 -0.979631 0.149345 0.989949 -0.127974 0.0601959 
0.905448 -0.212431 0.367474 -0.608077 -0.688524 -0.395193 -0.533273 -0.835805 -0.130573 
0.963212 0.0549225 0.263071 0.938093 0.185243 0.29269 -0.90174 0.0253501 -0.431534 
-0.843787 0.196528 -0.499399 0.738686 0.613074 0.280149 0.0743122 0.760509 0.645061 
0.00233354 0.894102 0.447857 0.0865114 0.804099 0.588167 -0.308621 0.950575 -0.0340706 
0.0433719 -0.857469 0.512705 0.0973515 -0.957535 0.271385 0.163532 -0.917306 0.363051 
0.505876 -0.856127 0.105527 0.615759 -0.645741 0.451508 -0.065473 -0.885324 0.460342 
0.0225175 -0.573951 0.81858 0.0923645 -0.633426 0.768271 0.00196968 -0.452339 0.891844 
0.615994 -0.324199 0.717946 -0.513167 -0.838555 0.182991 -0.588107 -0.756346 0.286481 
-0.202954 -0.893426 0.40075 0.0237395 -0.626042 0.779428 -0.792885 -0.575442 -0.200499 
0.0721823 -0.424242 0.902667 0.0766649 -0.529156 0.845054 0.754787 -0.102395 0.647928 
-0.89317 -0.429333 -0.13387 0.0243684 -0.193817 0.980735 0.766692 -0.0137067 0.641869 
-0.931524 -0.270508 -0.243081 0.837687 0.358076 0.412387 -0.999195 -0.0320195 0.024188 
-0.96837 0.0967299 -0.230004 0.441245 0.654381 0.614076 0.0086769 0.697646 0.71639 
0.114468 0.658553 0.743777 -0.675859 0.678967 -0.286737 0.0418542 0.730655 0.681463 
0.356494 -0.778052 0.517249 -0.0816992 -0.853164 0.515205 -0.124144 -0.807861 0.57615 
-0.172552 -0.787298 0.591935 -0.0771539 -0.675989 0.732862 -0.00122956 -0.601824 0.798628 
0.111694 -0.626487 0.771387 0.227917 -0.643255 0.730942 -0.0717747 -0.552087 0.830691 
-0.211145 -0.476906 0.853217 0.157185 -0.328621 0.93129 0.402777 -0.406792 0.819933 
-0.487491 -0.635118 0.599148 -0.715444 -0.615602 0.330415 -0.00700022 -0.628279 0.777956 
-0.0262689 -0.56806 0.822568 -0.812066 -0.546796 0.203869 -0.586939 -0.557093 0.587495 
-0.808869 -0.379759 0.448903 -0.0592114 -0.316678 0.946683 0.0403382 -0.305498 0.951338 
0.0319751 -0.0440252 0.998519 0.0672239 -0.24113 0.968162 0.479427 -0.152086 0.864303 
-0.759499 -0.197041 0.619948 0.0100122 -0.252602 0.967518 0.271444 -0.0738941 0.959613 
0.729735 0.109887 0.674842 -0.911135 -0.182965 0.369264 0.0316698 -0.0749495 0.996684 
0.0955275 0.0604321 0.993591 0.247858 0.105019 0.963087 0.701839 0.145939 0.697225 
-0.987971 -0.137634 0.0705035 -0.816715 0.00880878 0.576974 -0.00663772 0.357612 0.933847 
0.0976695 0.361787 0.927131 0.0711429 0.207567 0.97563 0.488546 0.569421 0.661122 
0.50719 0.449322 0.735437 -0.964273 0.256169 0.0674898 -0.855116 0.296735 0.425118 
-0.0331948 0.567261 0.822869 0.099027 0.519761 0.848553 0.0591099 0.535029 0.842764 
0.0927469 0.699607 0.708482 -0.848524 0.52823 0.0312913 -0.678881 0.73184 0.059422 
0.0462284 0.802961 0.594235 0.0671825 0.599886 0.79726 -0.412275 0.901136 0.134104 
-0.20758 0.957378 0.200842 0.0116028 -0.645627 0.763564 -0.0622187 -0.526394 0.847961 
-0.0218423 -0.699267 0.714527 -0.230816 -0.649939 0.724088 -0.431973 -0.440564 0.786958 
-0.230576 -0.358487 0.904612 -0.116877 -0.446462 0.887137 -0.48975 -0.0625221 0.869618 
-0.211163 0.0126233 0.977369 -0.0419187 0.068144 0.996794 0.0183901 0.362462 0.931817 
0.427015 0.335795 0.839583 -0.593311 0.0112278 0.804895 0.0807515 0.516378 0.852545 
0.143151 0.463209 0.874611 0.245267 0.474722 0.845271 -0.405514 0.110479 0.907388 
0.0457554 0.399693 0.915506 -0.611336 0.224597 0.758831 0.178366 0.433521 0.883315 
-0.549539 0.760211 0.346535 -0.0134046 0.705122 0.708959 -0.0888163 0.746653 0.659258 
-0.221678 -0.130156 0.966395 -0.113648 0.385613 0.915634 -0.362048 0.452461 0.814985 
-0.0905495 0.47351 0.876122 -0.289562 0.802867 0.521113 -0.172135 0.767652 0.617317 
-0.245286 0.337711 -0.908728 -0.452097 0.251793 -0.855692 -0.107723 0.0730745 -0.991492 
-0.352632 0.470501 -0.808876 -0.00544593 0.291783 -0.956469 -0.0269918 0.654983 -0.755161 
-0.0277508 0.277574 -0.960303 -0.294811 0.69981 -0.650655 -0.591733 0.546393 -0.592711 
-0.25344 0.886358 -0.387477 -0.0035365 -0.865728 -0.500502 -0.146697 -0.903078 -0.403646 
-0.330112 -0.517238 -0.789615 -0.0335888 -0.744667 -0.66659 -0.0648444 -0.650741 -0.756526 
-0.0846735 -0.629842 -0.772094 -0.521996 -0.52104 -0.675306 -0.0816414 -0.220836 -0.971888 
-0.601226 -0.250125 -0.758924 -0.314375 -0.351401 -0.881865 -0.0743559 -0.0184994 -0.99706 
-0.768815 -0.209894 -0.604042 -0.616089 -0.106641 -0.780424 -0.52533 -0.304759 -0.79445 
-0.0804582 -0.323745 -0.942717 -0.0917778 0.0480314 -0.99462 0.0102614 -0.121898 -0.99249 
0.023188 0.0396601 -0.998944 -0.744689 -0.0530004 -0.665304 -0.516576 0.109521 -0.849208 
-0.289813 0.135127 -0.947496 0.0421854 0.168427 -0.984811 -0.014625 0.294086 -0.955667 
0.720364 0.266951 -0.640167 -0.136749 0.0263525 -0.990255 -0.00702003 0.194294 -0.980918 
0.0948723 0.313311 -0.9449 0.485055 0.536082 -0.690897 0.00428928 0.242056 -0.970253 
0.156371 0.258009 -0.953404 0.0110548 0.306352 -0.951854 0.220179 0.125832 -0.96731 
0.0982848 0.590221 -0.801236 -0.0666529 0.452631 -0.889203 0.120681 0.481201 -0.868264 
-0.59002 0.587476 -0.553849 0.0936763 0.36125 -0.927751 0.132403 0.593865 -0.793596 
0.0818751 0.631504 -0.771038 0.345654 -0.493076 -0.798373 0.160553 -0.769837 -0.617716 
-0.149554 -0.555064 -0.818253 0.365034 -0.909386 -0.199416 -0.179815 -0.768933 -0.613521 
0.0098734 -0.448134 -0.893912 -0.208884 -0.85781 -0.469606 -0.055752 -0.35819 -0.931983 
-0.179131 -0.812568 -0.554658 0.274529 -0.123797 -0.953576 0.4256 -0.860655 -0.279529 
0.452162 -0.438507 -0.776698 0.732272 -0.20979 -0.647894 0.569273 -0.730232 -0.377742 
0.84492 -0.530464 0.0686899 -0.292954 -0.599677 -0.744692 0.993028 -0.104253 0.0550107 
-0.562961 -0.798822 -0.212036 -0.564088 -0.758302 -0.326776 0.0322352 -0.512474 -0.858097 
-0.0839068 -0.132283 -0.987654 0.905131 0.0178312 -0.424758 0.0822022 -0.267235 -0.960119 
0.160234 -0.496681 -0.853014 0.154022 -0.0503966 -0.986781 0.621644 0.117217 -0.77448 
-0.802163 -0.393422 -0.44917 0.0720284 -0.252727 -0.964853 0.217321 0.263476 -0.939868 
-0.0438157 -0.0783639 -0.995961 0.447383 0.0366181 -0.893593 0.87054 0.142223 -0.471098 
-0.30667 -0.117842 -0.944493 0.0712151 0.0937859 -0.993042 0.203296 0.161333 -0.965734 
0.404552 0.168349 -0.898886 0.82251 0.140248 -0.551187 0.0646049 0.119942 -0.990677 
-0.00868132 0.221854 -0.975041 0.177182 0.401386 -0.898608 -0.996146 -0.0809234 -0.0338439 
-0.908609 0.0595884 -0.413376 -0.801382 0.312193 -0.510217 -0.667727 0.0675863 -0.741332 
0.0101958 0.451089 -0.892421 0.183105 0.398281 -0.898802 0.232341 0.64239 -0.73031 
-0.679914 0.604991 -0.41437 -0.584475 0.529476 -0.614853 -0.574452 0.779948 -0.248367 
-0.631645 0.77523 -0.00647805 0.104348 0.812816 -0.573098 -0.468952 0.854414 -0.223743 
-0.259049 0.917466 -0.30191 -0.138672 -0.942555 -0.303907 0.0142363 -0.907992 -0.418747 
0.0607865 -0.931652 -0.35823 0.104251 -0.695112 -0.711303 0.0745964 -0.812336 -0.5784 
0.133002 -0.706502 -0.695101 -0.140027 -0.655041 -0.742505 -0.0667342 -0.842423 -0.534668 
-0.158841 -0.947273 -0.278287 0.0562215 -0.996651 -0.0593767 0.324743 -0.933945 0.149292 
0.550511 -0.825391 0.125164 -0.093999 -0.928276 -0.359818 -0.148815 -0.958727 -0.242272 
0.00342324 -0.98034 -0.197286 0.0967984 -0.726197 -0.680637 -0.35424 -0.86897 -0.34555 
-0.742151 -0.607487 -0.283143 -0.0107935 -0.379012 -0.925329 -0.906464 -0.38586 -0.171563 
-0.0246312 -0.359779 -0.932712 0.964541 0.119459 -0.235353 0.819087 0.169608 -0.548024 
0.93151 0.312549 -0.186019 0.82477 0.503198 -0.257966 -0.960942 0.208476 0.182013 
0.340173 0.611614 -0.71429 -0.858113 0.500841 -0.113143 -0.800065 0.53572 0.270001 
0.127461 0.669089 -0.73217 0.57146 0.743156 -0.34807 -0.646583 0.730893 0.218462 
0.0970007 0.69167 -0.715669 -0.430295 0.90206 -0.0336707 -0.432792 0.900759 0.0363862 
0.0405659 0.952037 -0.303281 0.120817 -0.943258 -0.309301 -0.0134174 -0.93893 -0.343848 
-0.0399817 -0.95723 -0.286554 0.0484603 -0.994315 -0.0948132 0.642629 -0.672877 0.36642 
-0.261794 -0.95634 -0.12991 -0.0620126 -0.991496 -0.114412 -0.0147351 -0.951847 -0.306218 
-0.577467 -0.809609 0.105191 -0.421574 -0.890271 -0.172317 -0.802209 -0.550633 0.230789 
0.989415 0.144212 -0.0161683 -0.948978 -0.138961 0.283074 0.967805 0.251216 0.0156322 
-0.908466 0.277013 0.312976 0.678811 0.688876 -0.254294 -0.813523 0.490159 0.312928 
0.418659 0.837543 -0.351065 0.085625 0.912194 -0.400713 0.0622328 0.783111 -0.61876 
-0.212318 0.96012 -0.181908 0.0403893 -0.992131 -0.118513 0.819776 -0.391438 0.418023 
-0.288833 -0.956527 0.040394 -0.107979 -0.988536 0.105537 0.9594 -0.0548726 0.276661 
-0.771595 0.538407 0.338762 0.239589 0.830617 -0.502666 -0.61987 0.731057 0.285161 
0.0665387 -0.997557 -0.0212878 0.182321 -0.96836 0.170404 0.445869 -0.821557 0.35531 
-0.0502663 -0.998156 0.0340343 0.0125712 -0.999873 -0.00983351 0.113663 -0.992234 0.0505221 
-0.0613185 -0.99721 0.0425608 -0.423468 -0.87134 0.247875 -0.858768 0.267367 0.437072 
-0.389096 0.920826 0.0261659 0.0918243 -0.988671 0.118734 -0.618866 -0.612637 0.49161 
-0.740519 -0.573452 0.350404 0.750236 0.66071 -0.0246516 0.19521 0.948295 -0.250258 
0.321833 -0.820362 0.472683 0.412015 -0.798573 0.438776 -0.426475 -0.820362 0.380954 
0.88312 -0.216864 0.416015 -0.857773 -0.220404 0.464378 0.925082 0.0867735 0.369721 
-0.833345 0.0127358 0.552606 -0.853446 0.0909002 0.513193 -0.784911 0.3874 0.483565 
-0.0769034 0.976552 -0.201076 0.193698 -0.910118 0.366288 0.860527 -0.261706 0.43704 
-0.80783 0.0872006 0.582929 0.770918 0.628075 0.105866 -0.394069 0.896177 0.203904 
0.585898 -0.641061 0.495746 -0.160648 -0.955447 0.247616 -0.750289 -0.189598 0.633339 
-0.760124 0.321227 0.564823 0.0418658 -0.943156 0.329702 -0.341884 -0.862344 0.373469 
-0.746489 -0.30171 0.593064 -0.617575 0.716549 0.324282 -0.663623 0.591231 0.458312 
0.613889 0.789056 0.0230481 0.911686 0.289605 0.291474 -0.550534 0.737454 0.391246 
-0.552251 0.754877 0.353806 -0.268653 -0.847862 0.457117 0.947185 0.10611 0.302624 
-0.547528 0.784051 0.292364 -0.749729 -0.292918 0.593384 -0.852657 0.0469469 0.520358 
0.920033 0.297053 0.255536 -0.265684 -0.892242 0.365126 -0.547951 -0.609105 0.573359 
-0.420434 -0.75384 0.504937 -0.712702 -0.36522 0.59889 -0.701838 -0.332998 0.629711 
-0.828007 -0.172332 0.533578 -0.716532 -0.372497 0.589769 -0.822337 0.294052 0.487129 