# vtk DataFile Version 4.2
vtk output
ASCII
DATASET POLYDATA
POINTS 1025 float
293.139 27.0287 106.491 296.572 26.7172 106.201 297.021 27.0091 106.174 
293.053 27.6373 106.23 292.707 27.853 106.278 293.441 27.7101 106.164 
294.652 27.6051 106.092 296.804 27.2598 106.177 297.34 27.1075 106.248 
293.072 27.8805 106.209 297.699 26.5028 106.439 299.571 26.3423 106.717 
299.976 26.0277 106.853 291.997 27.6137 106.568 291.783 27.2195 106.913 
300.039 26.5629 106.785 300.762 26.3152 106.923 290.475 28.1769 106.943 
290.749 27.9933 106.91 290.471 28.2512 106.974 290.447 28.4222 107.054 
290.756 28.3526 106.834 291.265 28.3134 106.665 292.696 28.1669 106.347 
293.864 28.2135 106.265 294.553 28.2594 106.315 299.986 27.2667 107.061 
290.668 28.5536 106.923 290.789 28.6946 106.938 291.547 28.5742 106.67 
294.317 28.5274 106.501 294.701 28.4794 106.475 294.922 28.5497 106.62 
297.364 28.0784 106.983 291.645 28.9208 106.927 292.009 28.7539 106.728 
294.064 28.6955 106.746 307.537 24.3512 108.055 307.164 24.1727 108.169 
299.053 25.5646 107.046 300.11 25.5913 107.096 301.885 25.0215 107.542 
303.35 25.3585 107.458 303.851 24.9255 107.664 304.919 25.3536 107.557 
308.295 24.4222 108.13 292.767 26.4783 107.067 304.005 25.6751 107.443 
305.809 26.2607 107.781 306.132 26.1873 107.88 290.406 28.1718 107.027 
290.279 28.1456 107.286 290.018 28.5455 107.595 290.19 28.6893 107.431 
296.611 28.3377 106.98 299.893 27.6005 107.468 290.187 28.8122 107.571 
290.114 28.8245 107.828 290.799 28.8555 107.117 310.914 23.2762 109.271 
311.609 23.6405 109.231 303.098 24.1327 108.236 310.96 24.0294 108.91 
311.892 23.7369 109.317 306.946 25.2359 107.827 307.749 25.2052 107.919 
308.877 25.3935 108.322 290.429 26.9404 108.217 289.923 27.7306 107.992 
289.763 28.2201 108.081 300.783 27.5601 108.186 307.424 26.1014 108.248 
290.113 28.8285 108.173 313.322 23.3966 110.183 311.154 24.2783 108.991 
313.177 23.6802 110.071 292.979 25.2573 108.455 311.01 24.6249 109.022 
313.011 23.9288 109.974 312.546 24.3221 109.825 289.701 27.4634 108.767 
290.788 26.5367 108.331 310.973 25.1334 109.459 289.702 28.0209 108.23 
289.652 28.1245 108.363 289.678 28.2969 108.554 298.15 28.2471 108.431 
293.657 29.0947 108.262 313.567 22.8669 110.727 307.142 23.0865 109.157 
313.56 23.3148 110.335 313.489 23.1885 110.359 313.624 23.2334 110.393 
313.53 23.47 110.41 313.659 23.2729 110.463 312.946 24.1257 110.04 
290.562 26.2331 108.965 290.163 26.3162 109.36 312.784 24.3373 110.095 
312.33 24.739 110.345 312.798 24.4419 110.373 289.599 27.9104 108.658 
289.44 28.0809 109.209 292.074 29.1154 108.994 294.108 28.9839 109.265 
313.847 22.632 111.174 301.39 22.9141 109.938 313.652 23.1503 110.52 
313.758 23.184 110.783 313.696 23.5622 110.889 289.878 25.701 110.66 
313.423 23.9415 110.706 289.32 25.9254 111.22 310.497 25.6176 110.807 
289.443 27.9131 109.948 290.485 28.6273 110.279 314.269 22.6625 111.964 
289.169 25.8239 111.73 289.634 25.0729 112.022 314.044 23.531 111.996 
288.99 26.1472 111.964 289.114 26.5421 111.229 298.192 27.9707 110.974 
289.486 27.963 110.796 289.59 28.0351 111.193 288.859 26.3559 112.584 
289.317 27.7576 111.615 289.799 28.0655 111.497 290.171 28.2516 111.347 
314.806 21.1838 113.971 314.888 22.0673 113.486 314.783 22.5064 113.218 
315.005 22.1983 113.776 314.799 22.7426 113.407 288.799 26.3479 113.535 
314.8 20.4955 114.86 315.259 21.3182 114.82 315.282 21.6744 114.778 
315.117 22.183 114.375 289.132 24.5024 114.094 290.418 23.4618 114.232 
314.918 22.6561 114.444 314.535 20.0351 115.643 315.145 20.5723 115.489 
310.369 19.9745 114.496 288.565 24.5554 115.308 288.471 24.8312 115.269 
288.499 25.2554 114.988 290.483 27.1218 114.758 313.434 19.6495 115.709 
314.965 20.1222 116.148 315.5 20.9702 116.151 315.367 21.7842 115.87 
289.064 23.369 116.323 290.103 23.0455 115.51 290.683 22.4431 116.222 
288.404 23.8437 116.846 314.787 22.738 115.571 288.543 25.6258 116.055 
288.767 25.9937 115.854 288.952 26.2459 115.519 289.305 26.4341 115.614 
315.613 20.8407 116.834 315.54 21.276 116.521 288.251 24.8314 116.501 
288.308 25.098 116.778 315.112 19.6273 117.643 315.372 19.8229 117.739 
315.506 19.8274 118.232 294.025 20.7879 117.726 315.339 21.5986 117.384 
288.041 23.502 118.389 314.622 22.3562 117.464 287.853 23.9213 118.793 
315.503 19.6952 118.766 315.662 20.1816 118.749 315.44 21.1144 118.333 
313.256 22.5058 118.94 314.006 22.5219 118.051 287.473 23.653 120.084 
288.663 25.0363 118.853 289.302 25.293 118.897 290.703 25.4521 119.245 
315.118 19.1785 119.478 315.085 19.1015 119.699 315.396 19.7346 119.569 
288.949 21.6302 120.233 315.115 20.964 119.368 310.016 22.8495 120.387 
314.459 18.8008 121.028 315.189 20.2037 120.104 314.452 21.2952 120.026 
287.298 22.7969 121.64 287.442 23.8363 120.636 314.59 19.0551 121.359 
314.718 19.3119 121.339 287.79 21.443 122.91 314.732 20.499 120.777 
287.093 23.0841 122.437 287.178 23.3771 121.873 287.457 23.8302 121.464 
314.112 19.3855 122.551 314.48 19.6548 121.87 314.675 19.9262 121.404 
287.108 22.3701 123.3 313.805 19.063 123.063 313.81 19.7179 122.914 
313.587 20.2015 122.772 287.078 22.7048 123.793 287.111 23.2718 123.042 
287.225 23.4194 122.843 312.734 18.3862 124.462 286.803 21.8125 125.803 
287.169 22.6308 124.699 287.114 23.2644 123.284 287.394 23.1135 123.92 
287.189 23.3517 123.157 310.808 17.2549 126.052 311.594 17.7129 125.932 
312.34 18.2674 125.213 313.04 18.7351 124.303 312.743 19.1352 124.832 
286.793 21.9328 126.61 284 24.0087 126.017 284 24.0087 126.017 
284 24.0087 126.017 287.148 23.2986 123.325 284 24.0087 126.017 
284 24.0088 126.017 311.321 17.6219 126.586 306.777 20.7525 127.204 
284 24.0087 126.018 311.277 17.8744 127.174 286.478 19.6187 129.225 
311.081 17.9562 127.601 287.804 18.7336 129.252 307.948 20.001 128.215 
287.163 21.8482 129.024 285.934 21.1832 129.904 307.08 16.0027 129.849 
309.971 17.1308 128.638 310.452 17.9492 128.555 310.352 18.3069 128.528 
309.402 18.8842 128.979 309.874 18.6108 128.793 307.479 16.0306 130.614 
285.677 20.7433 131.356 307.931 16.2174 131.082 309.114 17.3865 130.6 
285.679 18.8298 132.623 307.384 18.7885 131.039 308.219 18.1477 131.19 
308.734 17.9768 130.805 285.329 19.7006 132.057 285.273 19.9371 132.223 
285.596 20.5832 132.332 286.708 21.2759 131.667 285.971 20.9347 131.818 
306.936 15.6736 132.636 308.093 16.4108 131.674 308.598 16.7566 131.176 
285.325 20.2222 133.035 285.59 20.4954 133.171 307.006 15.6953 133.219 
307.026 15.7616 133.644 307.612 16.4967 132.995 285.295 20.1388 134.044 
305.477 15.0839 134.103 306.476 15.3963 133.618 306.875 15.7453 134.414 
306.969 15.8663 134.284 306.818 15.7924 134.555 307.175 17.0356 133.586 
285.468 17.8108 135.655 304.559 14.8605 135.406 306.357 15.5264 134.999 
306.215 15.5633 135.319 285.025 17.9587 136.247 284.541 18.9101 136.298 
285 17.6308 137.041 285.962 16.8168 137.568 303.51 17.7791 136.341 
284.462 19.1067 136.98 305.586 15.7325 136.37 305.325 15.5732 136.637 
305.51 15.9768 136.494 288.427 15.9156 137.504 305.07 16.2842 136.876 
305.741 16.5426 135.966 284.071 18.5307 138.059 284.094 18.7553 138.526 
284.391 19.0945 138.021 304.935 15.4055 136.924 304.319 15.408 137.774 
304.529 15.8627 137.598 284.021 17.7627 139.264 283.912 18.4453 139.328 
285.567 19.6125 139.161 284.785 19.3201 139.164 303.126 15.0878 139.161 
303.52 16.1105 138.562 286.857 19.5303 140.359 290.603 19.5735 139.635 
283.648 18.3473 141.161 283.785 18.5293 141.381 301.07 14.1798 141.186 
301.986 14.5703 140.342 299.514 13.7302 141.153 302.154 15.2637 140.818 
301.916 15.0624 141.203 283.335 17.0886 142.725 283.892 16.5888 142.241 
283.352 17.6594 141.96 283.235 17.652 142.604 301.051 14.3127 141.783 
283.456 16.6197 143.248 283.592 16.0273 144.354 300.564 15.4683 142.965 
298.988 16.2264 143.786 283.906 18.3561 143.257 300.262 14.9971 143.769 
300.045 14.814 144.147 299.792 15.4124 144.044 283.341 17.7429 145.207 
298.883 13.7397 145.332 299.8 14.2524 144.302 299.621 14.7478 144.733 
283.097 15.5092 147.163 285.446 14.5065 146.176 282.726 16.207 146.495 
282.615 16.7271 146.552 295.341 17.0815 145.459 298.979 15.5942 144.823 
282.881 17.2945 146.608 296.521 13.0287 146.952 298.766 13.8346 145.754 
298.917 14.1012 145.737 298.521 14.1943 146.422 298.584 14.5599 146.298 
282.276 16.2418 147.963 299.109 15.2366 145.098 282.609 16.9837 147.221 
296.986 13.1836 147.16 297.817 13.6733 147.185 290.934 12.9154 147.631 
294.562 12.7959 147.345 298.168 13.8749 146.851 296.782 15.2341 148.007 
297.237 14.9912 147.756 295.631 12.9274 148.576 296.177 13.0644 148.258 
297.393 13.5254 147.594 295.62 15.8247 148.339 296.724 14.1331 149.1 
296.327 14.6649 149.328 281.692 16.0842 150.811 282.516 16.9142 150.556 
282.603 17.0157 149.648 295.618 13.1214 149.627 295.852 13.3659 149.942 
295.96 13.522 150.047 281.181 15.5518 152.334 295.408 14.8404 150.366 
281.674 16.3393 151.662 293.481 12.6928 151.318 295.611 13.5017 150.482 
280.901 15.5224 153.131 281.591 16.4157 152.68 283.704 17.1567 152.049 
292.507 12.5945 152.304 280.59 15.6028 153.862 280.555 15.7893 154.105 
290.466 16.3994 152.476 282.872 16.9083 153.06 293.393 12.8596 152.404 
294.137 13.451 152.584 294.279 14.3969 152.491 280.119 15.6425 155.221 
288.035 16.8464 152.688 289.912 12.5031 154.567 293.674 13.2174 152.962 
293.851 14.1776 153.307 291.468 15.2595 154.53 280.25 15.8756 155.241 
279.965 15.7946 155.926 280.405 16.0467 155.537 281.82 16.5332 154.908 
282.435 16.6683 154.665 288.347 12.6561 155.707 289.732 12.5748 155.21 
293.234 13.7846 154.154 279.691 15.2976 156.336 279.722 15.8108 156.612 
280.528 16.1399 156.112 286.182 13.1182 156.671 279.766 14.9911 156.758 
279.143 15.2601 157.404 279.305 15.4368 156.986 279.091 15.4968 157.364 
279.247 15.5825 157.142 286.513 15.8876 156.188 281.347 16.2906 156.352 
281.98 16.3887 156.128 287.457 13.0271 156.939 288.718 12.8628 156.559 
[...]
POINT_DATA 1025
SCALARS scalars float
LOOKUP_TABLE default
1 1 1 1 1 1 1 1 1 
1 1 1 1 1 1 1 1 1 
1 1 1 1 1 1 1 1 1 
1 1 1 1 1 1 1 1 1 
1 1 1 1 1 1 1 1 1 
1 1 1 1 1 1 1 1 1 
1 1 1 1 1 1 1 1 1 
1 1 1 1 1 1 1 1 1 
1 1 1 1 1 1 1 1 1 
1 1 1 1 1 1 1 1 1 
1 1 1 1 1 1 1 1 1 
1 1 1 1 1 1 1 1 1 
1 1 1 1 1 1 1 1 1 
1 1 1 1 1 1 1 1 1 
1 1 1 1 1 1 1 1 1 
1 1 1 1 1 1 1 1 1 
1 1 1 1 1 1 1 1 1 
1 1 1 1 1 1 1 1 1 
1 1 1 1 1 1 1 1 1 
1 1 1 1 1 1 1 1 1 
1 1 1 1 1 1 1 1 1 
1 1 1 1 1 1 1 1 1 
1 1 1 1 1 1 1 1 1 
1 1 1 1 1 1 1 1 1 
1 1 1 1 1 1 1 1 1 
1 1 1 1 1 1 1 1 1 
1 1 1 1 1 1 1 1 1 
1 1 1 1 1 1 1 1 1 
1 1 1 1 1 1 1 1 1 
1 1 1 1 1 1 1 1 1 
1 1 1 1 1 1 1 1 1 
1 1 1 1 1 1 1 1 1 
1 1 1 1 1 1 1 1 1 
1 1 1 1 1 1 1 1 1 
1 1 1 1 1 1 1 1 1 
1 1 1 1 1 1 1 1 1 
1 1 1 1 1 1 1 1 1 
1 1 1 1 1 1 1 1 1 
1 1 1 1 1 1 1 1 1 
1 1 1 1 1 1 1 1 1 
1 1 1 1 1 1 1 1 1 
1 1 1 1 1 1 1 1 1 
1 1 1 1 1 1 1 1 1 
1 1 1 1 1 1 1 1 1 
1 1 1 1 1 1 1 1 1 
1 1 1 1 1 1 1 1 1 
1 1 1 1 1 1 1 1 1 
1 1 1 1 1 1 1 1 1 
1 1 1 1 1 1 1 1 1 
1 1 1 1 1 1 1 1 1 
1 1 1 1 1 1 1 1 1 
1 1 1 1 1 1 1 1 1 
1 1 1 1 1 1 1 1 1 
1 1 1 1 1 1 1 1 1 
1 1 1 1 1 1 1 1 1 
1 1 1 1 1 1 1 1 1 
1 1 1 1 1 1 1 1 1 
1 1 1 1 1 1 1 1 1 
1 1 1 1 1 1 1 1 1 
1 1 1 1 1 1 1 1 1 
1 1 1 1 1 1 1 1 1 
1 1 1 1 1 1 1 1 1 
1 1 1 1 1 1 1 1 1 
1 1 1 1 1 1 1 1 1 
1 1 1 1 1 1 1 1 1 
1 1 1 1 1 1 1 1 1 
1 1 1 1 1 1 1 1 1 
1 1 1 1 1 1 1 1 1 
1 1 1 1 1 1 1 1 1 
1 1 1 1 1 1 1 1 1 
1 1 1 1 1 1 1 1 1 
1 1 1 1 1 1 1 1 1 
1 1 1 1 1 1 1 1 1 
1 1 1 1 1 1 1 1 1 
1 1 1 1 1 1 1 1 1 
1 1 1 1 1 1 1 1 1 
1 1 1 1 1 1 1 1 1 
1 1 1 1 1 1 1 1 1 
1 1 1 1 1 1 1 1 1 
1 1 1 1 1 1 1 1 1 
1 1 1 1 1 1 1 1 1 
1 1 1 1 1 1 1 1 1 
1 1 1 1 1 1 1 1 1 
1 1 1 1 1 1 1 1 1 
1 1 1 1 1 1 1 1 1 
1 1 1 1 1 1 1 1 1 
1 1 1 1 1 1 1 1 1 
1 1 1 1 1 1 1 1 1 
1 1 1 1 1 1 1 1 1 
1 1 1 1 1 1 1 1 1 
1 1 1 1 1 1 1 1 1 
1 1 1 1 1 1 1 1 1 
1 1 1 1 1 1 1 1 1 
1 1 1 1 1 1 1 1 1 
1 1 1 1 1 1 1 1 1 
1 1 1 1 1 1 1 1 1 
1 1 1 1 1 1 1 1 1 
1 1 1 1 1 1 1 1 1 
1 1 1 1 1 1 1 1 1 
1 1 1 1 1 1 1 1 1 
1 1 1 1 1 1 1 1 1 
1 1 1 1 1 1 1 1 1 
1 1 1 1 1 1 1 1 1 
1 1 1 1 1 1 1 1 1 
1 1 1 1 1 1 1 1 1 
1 1 1 1 1 1 1 1 1 
1 1 1 1 1 1 1 1 1 
1 1 1 1 1 1 1 1 1 
1 1 1 1 1 1 1 1 1 
1 1 1 1 1 1 1 1 1 
1 1 1 1 1 1 1 1 1 
1 1 1 1 1 1 1 1 1 
1 1 1 1 1 1 1 1 1 
1 1 1 1 1 1 1 1 
NORMALS Normals float
-0.165859 -0.552947 -0.816542 -0.0142362 -0.387046 -0.92195 0.137579 -0.0789497 -0.987339 
-0.200874 -0.2438 -0.948795 -0.306461 -0.252721 -0.917722 -0.0265935 0.0722623 -0.997031 
-0.0226334 -0.0331268 -0.999195 0.154127 0.364926 -0.918191 0.231201 0.208124 -0.950384 
-0.0899249 0.181058 -0.979353 0.0516729 -0.467948 -0.882244 0.0930108 -0.176005 -0.979985 
0.120494 -0.311165 -0.942686 -0.33303 -0.253923 -0.908083 -0.33676 -0.539696 -0.771571 
0.158019 0.115566 -0.98065 0.189364 -0.105881 -0.976182 -0.52079 -0.319317 -0.791716 
-0.483077 -0.519452 -0.704845 -0.715175 0.283554 -0.638844 -0.632325 0.400539 -0.663125 
-0.410083 0.213685 -0.886663 -0.230474 0.0360314 -0.972411 -0.144013 0.336257 -0.930694 
-0.0288835 0.573114 -0.818966 0.120268 0.417199 -0.900822 0.229114 0.484046 -0.844515 
-0.507438 0.360964 -0.78244 -0.358123 0.52733 -0.770501 -0.0851805 0.27953 -0.956351 
-0.0120196 0.700108 -0.713936 0.16172 0.686593 -0.708828 0.238114 0.853138 -0.464173 
0.256577 0.764552 -0.591294 0.0111393 0.904386 -0.42657 -0.061058 0.533047 -0.84388 
0.0165604 0.957081 -0.289348 -0.00111803 -0.353804 -0.935319 0.0161511 -0.525271 -0.850782 
-0.0421336 -0.628563 -0.776617 0.0482749 -0.53611 -0.842766 -0.00550483 -0.459032 -0.888403 
0.00442029 -0.322193 -0.946664 0.0656739 -0.463631 -0.883591 0.0961313 -0.355412 -0.929753 
0.15452 -0.470887 -0.868556 -0.329636 -0.631695 -0.701642 0.092173 -0.0518392 -0.994393 
0.271758 0.774942 -0.570624 0.25726 0.203899 -0.944586 -0.81959 -0.161426 -0.549739 
-0.790792 -0.254009 -0.556891 -0.888691 0.264139 -0.374778 -0.685322 0.350648 -0.638263 
0.241784 0.829251 -0.503868 0.295186 0.916764 -0.26909 -0.441177 0.807226 -0.392108 
-0.664588 0.738692 -0.112502 -0.265137 0.902579 -0.339196 0.204158 -0.710389 -0.673548 
0.360096 -0.381885 -0.851173 0.00472082 -0.642285 -0.766451 0.285736 -0.0857478 -0.954464 
0.480805 -0.200374 -0.853626 0.161066 0.0314899 -0.986441 0.156312 0.0575429 -0.98603 
0.362897 0.39573 -0.843625 -0.616295 -0.616137 -0.490464 -0.787018 -0.358924 -0.501773 
-0.912732 0.0912224 -0.398246 0.259942 0.939794 -0.221852 0.335449 0.681711 -0.650188 
-0.469687 0.882831 0.00206048 0.359562 -0.321365 -0.876036 0.385554 0.0788445 -0.91931 
0.728425 0.278455 -0.625987 -0.298328 -0.816707 -0.493953 0.441266 0.407256 -0.799642 
0.523098 0.156248 -0.837828 0.512581 0.635149 -0.577794 -0.809676 -0.447977 -0.379132 
-0.531535 -0.673232 -0.514033 0.426852 0.786956 -0.445531 -0.893407 -0.273901 -0.356093 
-0.966497 0.119625 -0.227099 -0.90993 0.375656 -0.175811 0.241167 0.966557 -0.087211 
0.104403 0.987377 -0.119107 0.409073 -0.661773 -0.628264 -0.03702 -0.8368 -0.546256 
0.647865 0.0724897 -0.758298 0.275966 -0.606167 -0.745925 0.692355 -0.298824 -0.656771 
0.788907 0.398735 -0.467585 0.908159 0.156074 -0.388443 0.717836 0.525239 -0.456985 
-0.548058 -0.70178 -0.455123 -0.634132 -0.654587 -0.411574 0.566468 0.719629 -0.401557 
0.501522 0.861657 -0.0776133 0.580252 0.784232 -0.219744 -0.971858 -0.0741741 -0.223584 
-0.961867 0.246428 -0.118678 -0.0616811 0.99798 0.0152394 0.121788 0.979953 0.157673 
0.644319 -0.543046 -0.538474 -0.090966 -0.79127 -0.604663 0.752996 -0.470939 -0.459579 
0.929596 0.0100091 -0.368443 0.850609 0.392875 -0.349448 -0.641528 -0.615227 -0.45819 
0.635875 0.770434 -0.0457644 -0.820341 -0.394305 -0.414204 0.249045 0.953774 0.168203 
-0.884647 0.466221 0.0061435 -0.207746 0.945723 0.2499 0.918379 -0.0671879 -0.389956 
-0.832653 -0.483805 -0.269484 -0.565093 -0.716632 -0.40879 0.842501 0.502559 -0.193973 
-0.936208 -0.275397 -0.218337 -0.934952 -0.181039 -0.305107 0.20116 0.967482 0.153342 
-0.529843 0.847456 0.0329379 -0.358579 0.933155 0.0253511 -0.979586 0.1732 -0.102044 
-0.755748 0.647144 0.100248 -0.317198 0.936661 0.1485 -0.33007 0.911965 0.243668 
0.560515 -0.624 -0.544469 0.917518 -0.178924 -0.355172 0.946669 0.0411319 -0.319572 
0.968261 0.101128 -0.22857 0.931156 0.318976 -0.176643 -0.841613 0.539771 -0.0183104 
0.534176 -0.712438 -0.455069 0.919856 -0.239109 -0.310954 0.983254 0.156211 -0.0938572 
0.975201 0.0611425 -0.212707 -0.715546 -0.592789 -0.369587 -0.379445 -0.820133 -0.428256 
0.829878 0.557522 0.0217466 0.248697 -0.848096 -0.467849 0.879702 -0.359789 -0.310927 
0.0124571 -0.879237 -0.476222 -0.812584 -0.434689 -0.388267 -0.931357 -0.21598 -0.293134 
-0.948135 -0.188421 -0.256004 -0.0994031 0.937196 0.334338 0.211836 -0.937421 -0.276348 
0.609087 -0.754042 -0.245832 0.896534 -0.266362 -0.353946 0.903353 0.428889 0.00263931 
-0.622613 -0.71633 -0.315 -0.414574 -0.813928 -0.407001 -0.417874 -0.833113 -0.36236 
-0.905722 -0.345858 -0.24505 0.661884 0.739911 0.120168 -0.885463 0.464662 0.0066849 
-0.678136 0.71199 0.182215 -0.547282 0.820617 0.164529 -0.403015 0.875399 0.266936 
0.997234 -0.0330649 -0.0665668 0.941956 0.317647 -0.108711 -0.987306 0.0512927 -0.150316 
-0.896352 0.443148 0.0131486 0.58839 -0.766633 -0.257044 0.849281 -0.463247 -0.253225 
0.849627 -0.495611 -0.180284 -0.192516 -0.910754 -0.365329 0.835547 0.50972 0.205055 
-0.815401 -0.500755 -0.290457 0.61954 0.716982 0.31954 -0.975619 0.0714584 -0.207514 
0.834589 -0.549424 -0.0399429 0.995186 -0.0155154 0.0967734 0.860342 0.457322 0.225098 
0.412478 0.842339 0.346882 0.447493 0.838917 0.309788 -0.951786 -0.193109 -0.238354 
-0.532564 0.78981 0.304264 -0.355917 0.822089 0.444402 -0.159044 0.927 0.339669 
0.721917 -0.688626 -0.068041 0.67866 -0.734407 0.00821173 0.92005 -0.266334 0.287359 
-0.558663 -0.771571 -0.30426 0.710062 0.614577 0.343667 0.212182 0.927927 0.30648 
0.620405 -0.776191 0.112364 0.86804 0.230485 0.439753 0.442056 0.794829 0.415732 
-0.908908 -0.334478 -0.249021 -0.923344 0.380192 -0.0537482 0.834316 -0.441607 0.33 
0.928328 -0.222571 0.297776 -0.553423 -0.756391 -0.348704 0.858397 0.266825 0.438132 
-0.97452 0.218718 -0.0497379 -0.968593 0.240669 -0.0624953 -0.768295 0.630133 0.112497 
0.839421 0.242664 0.486298 0.872274 -0.0584587 0.485511 0.853346 0.277845 0.441138 
-0.992357 -0.0484332 -0.113499 0.856359 -0.267221 0.441861 0.822561 0.302031 0.481842 
0.604318 0.635268 0.480868 -0.948321 0.301723 0.0982355 -0.942548 0.333918 -0.0100494 
-0.68745 0.723967 0.0572978 0.753679 -0.542783 0.370615 -0.894194 0.446536 -0.0319888 
-0.656946 0.727875 0.196517 -0.864429 0.459388 0.204267 -0.461335 0.776595 0.429034 
-0.497334 0.85248 0.161049 0.439583 -0.89792 0.0225021 0.574468 -0.817482 0.0413418 
0.765975 -0.586837 0.262495 0.801162 -0.308699 0.512683 0.79897 0.15113 0.582072 
-0.753045 0.657706 0.0186054 0 -0.992278 -0.124035 0 -0.999788 -0.0206088 
-0.124009 -0.99207 -0.0204497 -0.60968 0.734995 0.296772 0.124009 -0.99207 -0.0204497 
0 0.997535 0.0701753 0.704214 -0.638433 0.310623 0.201075 0.919744 0.337104 
0 -0.996546 0.0830455 0.89779 -0.116118 0.42484 -0.77477 -0.539787 -0.329184 
0.870102 -0.0592306 0.489299 -0.374482 -0.859852 -0.347013 0.464537 0.835087 0.294677 
-0.521023 0.845676 0.115616 -0.725306 0.688228 0.016521 0.095827 -0.972784 -0.210969 
0.615003 -0.76108 0.206224 0.677952 0.201538 0.70694 0.718118 0.557994 0.415872 
0.602355 0.673587 0.428309 0.59603 0.48495 0.639978 0.375053 -0.926033 -0.0424053 
-0.702894 0.710869 0.0246022 0.473804 -0.879395 0.046617 0.832482 -0.0390819 0.552672 
-0.705864 -0.629063 -0.325631 0.257404 0.839326 0.478827 0.673167 0.464071 0.575746 
0.597059 0.592832 0.540436 -0.851078 -0.433467 -0.296263 -0.967171 0.209276 -0.144167 
-0.691592 0.717404 0.0838614 -0.382974 0.908449 0.167485 -0.476066 0.871812 0.115343 
0.647522 -0.760404 -0.050017 0.598142 -0.78046 0.181954 0.756174 -0.583257 0.296667 
-0.85244 0.522808 -0.00416754 -0.567681 0.813911 0.123636 0.620675 -0.738553 -0.263255 
0.823951 -0.553208 0.122741 0.885538 -0.174951 0.430365 -0.692199 0.714069 0.104715 
0.220594 -0.966307 -0.132624 0.328231 -0.944305 -0.0235145 0.743851 -0.612629 0.267156 
0.906551 -0.197536 0.373021 0.840977 -0.176366 0.511519 0.628114 0.532873 0.567026 
-0.666212 -0.686205 -0.292033 0.254708 -0.964386 0.0712948 0.516686 -0.805556 0.290025 
0.466476 -0.833874 0.295051 -0.667715 -0.672473 -0.319274 -0.934284 -0.229065 -0.273209 
-0.65744 -0.6625 -0.35898 -0.441333 -0.842094 -0.310005 0.426784 0.769138 0.475691 
-0.784472 0.619053 -0.0370999 0.761098 -0.510174 0.400566 0.740425 -0.34463 0.577062 
0.770104 0.0502952 0.635933 -0.134783 -0.928596 -0.345749 0.640629 0.35092 0.682971 
0.746791 0.364961 0.555973 -0.975706 -0.0242862 -0.217734 -0.844417 0.534805 -0.0307264 
-0.627798 0.778367 -0.00371049 0.572085 -0.772851 0.274627 0.701344 -0.513437 0.494469 
0.728472 0.131084 0.672418 -0.839168 -0.480997 -0.253849 -0.957401 0.271972 -0.0970328 
-0.282374 0.951647 0.120967 -0.466662 0.877625 0.109551 0.800571 -0.178061 0.572172 
0.701662 0.391334 0.595422 -0.0642952 0.96296 0.261866 0.131723 0.967584 0.215479 
-0.83611 0.547677 -0.0311382 -0.560027 0.823282 0.0926056 0.281398 -0.928239 -0.243284 
0.52052 -0.828856 0.20508 0.233124 -0.964203 -0.12636 0.784117 0.272344 0.557664 
0.842219 -0.180781 0.507923 -0.907662 -0.365951 -0.205499 -0.606964 -0.73207 -0.309302 
-0.961204 -0.146702 -0.233591 -0.994106 -0.00422061 -0.108335 0.537639 -0.80014 0.265933 
-0.803478 -0.543543 -0.242867 -0.536176 -0.796102 -0.280602 0.640271 0.620871 0.452296 
0.511953 0.808591 0.289975 -0.494763 0.856747 0.145582 0.745916 0.4607 0.481003 
0.809644 0.106744 0.577133 0.690423 0.548525 0.471631 -0.556671 0.823912 0.106241 
-0.559467 -0.426792 -0.710524 0.651404 -0.710034 0.267443 0.791363 0.229433 0.566661 
-0.639722 -0.719281 -0.270907 -0.395624 -0.876527 -0.274194 -0.782687 -0.554249 -0.283211 
-0.965944 0.215623 -0.143036 0.321529 0.888615 0.327082 0.589678 0.641214 0.491044 
-0.479928 0.860042 0.173198 0.146234 -0.988125 -0.0471646 0.719648 -0.574817 0.389477 
0.84804 -0.171044 0.50157 0.809473 -0.108594 0.577028 0.785258 0.292997 0.545457 
-0.951404 -0.180438 -0.249545 0.748979 0.398752 0.529176 -0.536857 0.834736 0.122476 
0.262567 -0.955487 0.134548 0.65257 -0.629891 0.421177 -0.164115 -0.954612 -0.248561 
0.0629788 -0.992037 -0.109069 0.75937 -0.137452 0.635974 0.624145 0.682931 0.379537 
0.599055 0.694487 0.398524 0.153743 -0.983375 0.096628 0.362079 -0.92115 0.142765 
0.624494 -0.553644 0.550894 0.474007 0.821979 0.315704 0.810448 0.131524 0.570855 
0.607957 0.644255 0.46403 -0.879472 0.438529 -0.184992 -0.511084 0.859526 -0.00264345 
-0.654733 0.755857 0.00223362 0.43726 -0.881246 0.179469 0.683443 -0.710626 0.167082 
0.768235 -0.553749 0.321212 -0.935172 -0.182006 -0.303853 0.600108 0.668134 0.439848 
-0.676296 0.731112 -0.0899911 0.173481 -0.984454 0.0274727 0.665157 -0.546336 0.509002 
-0.91603 -0.198733 -0.348417 -0.510598 0.857291 -0.0658941 -0.121678 0.992005 0.0334893 
0.12659 -0.98118 0.14581 -0.937104 0.095304 -0.335788 -0.854759 0.425026 -0.297893 
0.286018 0.919781 0.268693 -0.171636 0.977967 0.118832 0.419417 -0.870614 0.257138 
0.695281 -0.581519 0.422399 0.598367 0.671661 0.436839 -0.924045 0.144291 -0.354007 
0.152021 0.959626 0.236658 -0.00378757 -0.999915 -0.0124727 0.518456 -0.748341 0.413749 
0.770305 0.264839 0.580079 0.470288 0.75038 0.464498 -0.775103 0.579272 -0.252309 
-0.584102 0.792328 -0.176185 -0.449123 0.888444 -0.094638 -0.124704 0.984751 0.121299 
-0.107342 0.981241 0.160135 -0.093083 -0.984396 0.149332 0.111865 -0.950988 0.288286 
0.762147 -0.308852 0.568983 -0.876666 -0.250012 -0.411037 -0.421246 0.89409 -0.152166 
-0.327888 0.94222 0.0686341 -0.229836 -0.968729 0.0934846 -0.585745 -0.770746 -0.250707 
-0.777308 -0.533989 -0.332637 -0.851732 -0.213113 -0.478681 -0.878367 0.17581 -0.44448 
-0.786827 0.469987 -0.40002 0.146046 0.863103 0.48345 -0.0798037 0.986592 0.142361 
-0.0386294 0.985642 0.16437 -0.17763 -0.906914 0.382039 0.144982 -0.907872 0.39338 
-0.244168 -0.969123 0.0343725 -0.385918 -0.922532 -0.0012316 0.758181 0.155686 0.633185 
-0.562435 -0.819365 -0.110941 0.31981 0.717984 0.61824 0.567795 0.531987 0.628171 
0.654205 0.21356 0.72554 -0.907755 -0.0572663 -0.415573 0.254494 0.796385 0.548638 
-0.180946 0.981889 0.0561408 -0.134969 0.951055 0.277988 -0.23217 -0.852123 0.469024 
0.337776 -0.805005 0.487724 -0.200724 -0.954052 0.222474 0.667746 -0.35358 0.655055 
-0.718038 -0.67885 -0.153572 -0.540542 -0.824131 0.169182 -0.77398 -0.632962 0.0177337 
-0.195056 0.971525 -0.134508 0.127916 0.917364 0.376935 -0.239795 -0.735868 0.633244 
-0.0980442 -0.674452 0.73178 0.181048 -0.856525 0.483308 0.402011 -0.384264 0.831101 
-0.000439012 -0.869648 0.493672 0.067817 -0.45991 0.885372 0.0959248 -0.301166 0.948735 
0.481528 0.0987759 0.870847 -0.457272 -0.87161 0.176633 -0.33614 -0.822883 0.45812 
-0.308139 -0.916787 0.254071 0.202362 0.102968 0.973882 0.284814 0.264635 0.92133 
0.24178 0.322897 0.91503 0.129519 0.344588 0.929776 0.207748 -0.571754 0.793686 
0.475155 -0.411744 0.777622 0.669838 0.107802 0.73464 0.671292 0.282574 0.685215 
0.402819 0.676456 0.616558 0.204998 0.626522 0.751961 0.275871 0.632971 0.723355 
-0.540404 -0.639967 0.546265 -0.914534 0.0595618 -0.400099 -0.704136 -0.249816 0.664668 
-0.205142 0.967076 -0.150602 -0.0821053 0.987759 -0.132628 -0.00267023 0.974839 0.222896 
-0.00543327 0.932024 0.362357 -0.00355318 0.924695 0.380693 -0.757294 0.642074 -0.11936 
-0.00774645 -0.839005 0.544068 0.167882 -0.666694 0.726178 -0.280974 -0.74611 0.603634 
-0.105464 -0.859467 0.500194 0.258467 -0.236166 0.936707 -0.388198 -0.651345 0.65196 
-0.270996 -0.436286 0.85803 0.209845 -0.0958474 0.973025 0.248043 0.0765688 0.965718 
0.260574 0.272843 0.926098 0.442537 0.0325583 0.896159 -0.243281 -0.369496 0.896821 
-0.0711731 0.0383437 0.996727 -0.26526 -0.202252 0.942726 -0.121199 0.240924 0.962947 
-0.0104802 0.373611 0.927526 0.227644 0.23859 0.944062 0.197524 0.275095 0.940908 
-0.23196 -0.226179 0.946064 0.0544385 0.224939 0.972851 0.058547 0.726754 0.684399 
0.0125323 0.658113 0.752815 0.0482036 0.295001 0.95428 0.317936 0.303881 0.898094 
0.288708 0.549273 0.784186 -0.114967 0.4194 0.900492 -0.133904 0.622558 0.771033 
0.211133 0.563277 0.798838 0.232091 0.773398 0.589906 -0.00289794 0.828455 0.560049 
-0.122756 0.868182 0.480824 -0.205912 0.967738 0.145202 -0.163262 -0.557997 0.813625 
0.0231682 -0.644405 0.764333 -0.0873939 -0.251954 0.963785 0.141122 0.670947 0.727952 
0.0798868 0.943803 0.320707 0.0701018 -0.675365 -0.734144 -0.626643 -0.346954 -0.697812 
0.263273 -0.0729857 -0.961956 -0.0296724 0.354 -0.934774 0.0293664 -0.923622 -0.382178 
-0.5995 -0.793754 -0.102735 0.138438 -0.507874 -0.850235 -0.0213874 -0.964053 -0.264848 
-0.151823 -0.926246 -0.34499 0.0695938 -0.675268 -0.734282 0.0531313 -0.547564 -0.835075 
0.297361 -0.194102 -0.934826 -0.53295 -0.618913 -0.576984 -0.427565 -0.347198 -0.83465 
-0.440544 -0.862486 -0.249078 -0.554427 0.074791 -0.828865 -0.430586 -0.660728 -0.614844 
0.0267262 0.0831578 -0.996178 -0.440708 -0.260056 -0.859155 0.0953374 -0.315768 -0.944035 
-0.348709 0.0442592 -0.936186 -0.698622 -0.214838 -0.682475 -0.208697 -0.29255 -0.933199 
0.055467 0.200396 -0.978144 0.061457 0.140536 -0.988166 0.124078 -0.177855 -0.976203 
-0.237458 0.504081 -0.830371 -0.552674 0.481637 -0.680131 -0.0305861 0.584736 -0.810647 
-0.119558 0.252831 -0.960095 0.186375 0.476142 -0.859391 0.0177231 0.798559 -0.601655 
0.0840718 0.401445 -0.912016 0.278001 0.329636 -0.90225 -0.292706 0.856025 -0.42608 
0.0407487 0.821058 -0.569389 -0.00333117 0.728086 -0.685477 -0.054601 0.746794 -0.66281 
0.173829 0.796374 -0.579286 -0.00767729 0.879973 -0.474962 -0.215243 -0.972684 -0.0869305 
-0.624171 -0.750377 -0.217587 -0.0402142 -0.622597 -0.781509 -0.321876 -0.64517 -0.69293 
0.150726 0.298042 -0.942578 0.304285 0.000508339 -0.952581 0.333306 -0.720034 -0.608653 
-0.60433 -0.784366 -0.13984 -0.390231 -0.720712 -0.57297 0.205171 0.104839 -0.973095 
-0.113033 0.180695 -0.977022 0.0604831 0.123988 -0.990439 0.399095 0.203687 -0.893999 
0.560397 0.178463 -0.808769 0.553677 -0.187927 -0.811249 -0.784438 -0.618312 -0.0484475 
-0.950739 -0.173002 -0.257228 0.31981 0.504506 -0.801994 0.691645 0.290847 -0.661087 
-0.978516 0.0731923 0.192741 -0.794127 0.494117 -0.353851 0.341349 0.234004 -0.910342 
0.214093 0.542116 -0.812573 0.212015 0.480682 -0.850879 0.295634 0.712656 -0.636178 
0.43106 -0.613557 -0.661615 -0.380379 -0.924802 0.00729512 -0.0974593 -0.975264 -0.198396 
-0.109567 -0.952465 -0.284264 -0.00649552 -0.481054 -0.876667 0.427341 0.143702 -0.892597 
-0.504772 -0.861414 0.0563039 0.705042 -0.151596 -0.692773 -0.644416 0.75665 -0.110493 
0.443518 0.728996 -0.521399 0.0551677 0.855149 -0.515438 -0.175278 0.950768 -0.255574 
-0.833305 0.545608 0.0889692 -0.0513432 0.926336 -0.373183 -0.247431 0.959552 -0.13431 
0.746507 0.0266324 -0.664845 -0.80121 -0.524156 0.288656 -0.892076 0.363023 0.269098 
-0.661581 0.73142 0.165335 0.016326 0.906964 -0.420892 0.383569 0.781575 -0.491951 
-0.215724 0.976249 -0.0200025 -0.158508 0.95326 -0.257235 0.508916 -0.717399 -0.475756 
-0.532974 -0.823183 0.195725 -0.498995 -0.839782 0.21394 0.582779 0.602429 -0.545387 
0.649843 0.635709 -0.416626 -0.942677 0.0760289 0.32493 -0.91644 0.159032 0.367216 
0.439708 0.806285 -0.395678 -0.69688 0.666624 0.26452 -0.434497 0.86728 0.242978 
-0.322196 0.941708 0.0968248 0.171704 0.916328 -0.361747 -0.282979 -0.959042 -0.0127358 
0.793423 0.170429 -0.584324 -0.860049 -0.367027 0.354411 -0.850704 -0.376804 0.366498 
-0.212353 0.970319 -0.115705 -0.0886624 -0.995858 -0.0201273 0.594776 -0.649536 -0.473649 
0.637729 -0.601282 -0.481417 0.812632 -0.133908 -0.567184 0.28486 0.909208 -0.303638 