# vtk DataFile Version 4.2
vtk output
ASCII
DATASET POLYDATA
POINTS 1159 float
293.165 27.8359 106.06 296.045 27.6655 105.732 296.828 27.1358 105.897 
293.001 28.5206 105.884 293.757 28.342 105.764 297.221 27.9752 105.671 
297.143 26.8359 106.086 297.985 26.9888 106.092 298.603 26.3956 106.455 
299.627 27.5839 106.08 300.557 26.8638 106.369 290.488 28.9466 106.707 
293.922 28.8366 105.675 295.521 28.7847 105.555 291.507 29.2771 106.261 
291.023 30.199 106.48 297.564 29.7128 105.638 292.415 30.8184 106.066 
292.826 26.6905 106.945 289.671 29.9932 107.438 300.634 29.8712 106.137 
289.626 31.4499 107.596 290.408 33.0086 107.435 291.861 33.5895 106.959 
292.808 33.0884 106.571 294.92 33.4967 106.423 311.923 24.1461 109.139 
303.579 24.8099 107.709 308.947 24.505 108.189 312.269 24.3306 109.222 
298.041 24.7667 107.839 308.784 26.667 107.652 309.771 26.9526 107.982 
289.622 28.4198 107.907 289.253 29.3453 108.013 289.133 31.8502 108.178 
289.688 33.643 108.095 289.504 33.6721 108.228 300.218 33.8287 107.095 
293.552 25.274 108.23 308.965 25.7458 107.801 312.959 25.2458 109.442 
313.744 24.8754 109.978 291.21 26.4487 108.168 312.04 27.8263 109.105 
288.645 31.7129 108.981 289.262 34.7156 109.052 290.079 36.8073 109.195 
291.302 37.6659 108.834 310.912 22.6341 109.927 314.074 23.8559 110.365 
314.113 23.7344 110.425 314.193 23.815 110.502 311.097 29.3603 108.923 
289.339 35.1192 109.158 290.94 40.0206 110.108 313.53 22.3467 111.178 
304.027 22.9666 109.596 314.355 23.7579 110.835 290.028 25.3868 110.902 
288.862 26.2464 111.212 288.644 26.9277 110.871 314.012 26.7689 110.435 
312.632 29.4151 109.86 304.225 38.7637 109.972 289.683 39.8449 111.187 
312.13 21.2387 112.123 314.164 22.4439 111.62 299.8 22.4905 111.052 
287.583 29.516 111.511 313.742 30.3291 111.251 287.732 32.9297 111.558 
312.092 33.857 111.258 292.229 43.8595 111.488 289 45.0087 111.017 
289 45.0087 111.017 289 45.0087 111.017 289 45.0087 111.017 
289 45.0088 111.017 291.556 45.22 112.489 293.128 45.8756 112.091 
311.759 36.8243 112.432 288.776 39.7372 112.715 289 45.0087 111.018 
290.718 45.3608 113.409 290.852 45.1902 113.123 292.256 47.3202 113.523 
314.74 31.1758 112.94 287.41 35.0481 113.581 291.319 46.9478 114.042 
296.543 48.3638 113.146 314.303 20.1732 115.179 315.055 20.6735 114.901 
316.12 22.9481 114.518 315.572 28.7878 113.572 313.823 36.7134 114.606 
306.63 44.8481 113.601 290.992 47.5059 114.962 300.747 48.1609 113.679 
293.494 49.3186 114.393 296.513 50.2396 114.494 312.483 19.8059 115.069 
287.902 24.6543 115.803 288.927 23.8725 115.391 287.709 37.8119 114.548 
288.266 40.9461 115.117 289.592 45.9529 116.123 302.382 48.8541 114.63 
299.719 50.5664 115.259 293.789 51.5347 116.124 315.804 20.8812 116.283 
293.478 21.7335 115.639 287.399 25.495 115.651 312.686 43.5013 116.61 
310.441 45.9837 116.279 305.101 48.5949 115.587 304.168 49.9654 116.683 
297.905 51.8916 116.333 293.238 52.2817 117.362 301.357 51.1909 116.717 
315.122 19.9002 117.071 316.374 21.4781 116.995 287.62 24.0674 117.497 
286.866 26.1049 116.487 292.1 51.5779 117.873 300.609 51.6739 117.351 
293.629 52.7926 117.933 294.298 52.9674 117.991 314.274 19.0275 118.531 
314.881 39.5653 118.634 313.583 43.5083 118.183 312.977 45.5236 118.96 
303.842 50.6571 118.07 293.655 53.1141 118.79 309.987 18.7106 118.057 
315.986 20.0917 118.973 316.406 20.8281 119.068 287.611 41.2915 118.593 
311.989 47.1771 119.734 311.199 47.8649 119.344 307.695 49.4455 119.01 
303.078 51.042 118.692 304.076 50.7332 119.236 293.399 53.1172 119.287 
293.601 53.246 119.111 293.611 53.2652 119.262 293.739 53.2687 119.084 
294.086 53.232 119.15 293.664 53.2989 119.167 315.469 19.4507 119.66 
315.429 19.3658 119.886 288.254 21.9534 120.515 316.477 31.7146 119.567 
293.701 53.2122 119.54 293.749 53.2864 119.235 290.432 20.6069 121.121 
286.865 22.9109 121.404 316.822 28.6591 120.601 315.283 40.1436 120.697 
288.816 47.1633 121.252 307.489 49.6539 120.879 295.861 52.9828 120.57 
315.155 19.4882 121.743 286.041 23.4782 122.48 285.712 24.5689 122.058 
310.883 48.1628 121.733 290.68 50.8131 121.767 291.704 51.9005 121.315 
292.635 52.5128 121.371 294.1 52.8817 121.497 293.123 52.7709 121.232 
312.769 18.1362 122.102 315.851 21.4186 122.757 285.285 25.103 123.156 
316.561 27.6365 122.257 315.595 38.4786 123.07 314.655 42.8598 122.001 
290.452 50.5602 123.394 292.536 52.2288 122.457 285.805 22.5056 124.653 
316.014 24.5261 123.751 291.468 51.4182 123.831 314.979 21.0564 124.64 
285.339 23.5567 124.426 288.927 48.4061 124.518 299.167 51.023 124.607 
295.073 51.5838 125.38 291.128 51.0578 124.626 292.453 51.6926 124.571 
313.053 18.7756 125.816 312.492 46.287 125.617 289.964 50.1494 126.064 
311.866 18.0052 127.026 315.065 35.4196 126.565 310.184 47.1837 127.047 
292.16 51.0576 126.832 293.473 51.2316 126.715 286.687 19.82 128.035 
313.345 44.6161 127.124 289.11 49.117 128.032 290.607 50.3919 127.614 
306.004 15.9555 129.454 309.893 17.0752 128.369 313.65 42.4324 128.51 
289.251 49.3472 129.149 303.247 15.8912 129.22 291.398 17.5674 129.229 
312.037 21.3651 130.615 283.752 26.462 129.742 287.816 47.0657 129.165 
291.407 50.2875 129.467 310.736 18.0013 129.904 289.091 49.1288 131.46 
289.233 49.2364 131.029 307.912 16.2854 132.281 309.178 17.0516 131.156 
284.449 20.0993 132.422 283.286 22.9778 132.634 284.764 38.0631 132.654 
284.906 38.18 131.955 284.846 38.2823 132.43 284.882 38.4893 132.472 
289.718 49.5045 131.287 306.716 15.6321 132.838 307.983 16.4458 133.265 
309.889 18.1861 132.234 310.456 19.574 132.487 284.549 37.3464 133.049 
284.737 37.9781 132.694 284.816 38.2871 132.603 284.81 38.4651 132.839 
284.837 38.7586 133.051 285.05 39.0861 132.225 311.936 41.2469 132.282 
307.013 45.5556 133.654 289.575 49.3354 132.221 289.249 49.2781 132.196 
307.383 15.9534 133.557 300.724 14.8697 133.81 303.066 14.9759 133.294 
309.132 17.6984 133.177 308.814 17.8195 134.082 284.964 18.7994 134.039 
285.927 18.3202 133.392 283.659 20.4839 134.297 286.018 43.5569 133.155 
288.731 48.3388 133.473 292.84 49.01 133.927 289.113 49.0237 132.739 
289.328 49.2004 132.566 305.657 15.2007 134.263 307.403 16.0891 134.859 
307.56 16.2533 134.783 289.997 16.2022 135.029 285.105 18.0925 135.614 
288.183 47.6336 134.336 289.262 48.9738 133.194 289.19 49.0168 133.019 
289.481 48.8223 133.564 289.889 48.5827 134.605 308.06 17.5346 135.421 
284.537 18.3446 136.198 283.364 19.9034 136.248 310.454 38.7952 135.307 
294.703 48.1887 135.73 288.832 47.8936 135.657 291.668 48.6584 135.183 
289.263 49.0523 133.072 305.931 15.4631 135.808 306.496 15.7091 135.656 
306.551 16.1792 136.537 306.971 16.7046 136.532 308.796 42.9365 135.658 
287.537 46.8374 136.281 305.528 15.5364 136.731 283.034 19.4924 137.639 
282.261 27.3678 138.115 286.35 45.2751 137.615 289.48 47.8014 137.231 
305.598 15.8902 137.476 305.555 16.2551 138.138 301.991 14.461 139.282 
303.856 15.6269 139.864 283.223 17.7819 140.683 305.982 20.9508 140.077 
305.615 43.1347 139.614 302.394 45.0214 139.536 287.513 46.1719 139.697 
290.345 47.4171 138.995 284.096 16.8007 141.158 292.277 46.6616 141.413 
289.495 46.7797 140.651 302.052 14.7541 141.494 292.546 13.6557 142.816 
298.173 13.5936 141.5 285.261 16.0547 141.226 305.979 40.7653 141.431 
303.885 43.5691 141.054 304.897 42.6987 141.142 302.743 43.9949 141.535 
287.889 45.9907 141.719 302.435 15.5851 142.695 283.696 40.5187 142.356 
286.543 45.0363 143.034 286.589 14.5697 144.5 302.044 16.297 144.244 
281.533 19.2002 143.659 304.802 41.2749 142.668 283.911 41.7459 143.979 
285.012 43.6014 144.084 286.267 44.7993 144.386 299.399 13.8147 144.649 
302.329 17.4324 144.463 304.288 39.0449 144.367 285.777 44.3968 145.37 
286.857 45.0472 145.06 287.452 45.2509 145.116 297.987 13.3558 145.545 
299.357 14.0024 145.739 296.374 13.0836 145.626 300.493 14.6691 144.929 
300.211 14.751 145.652 302.864 40.8217 145.659 298.737 13.8168 146.41 
299.396 14.679 147.066 300.051 15.1067 146.462 284.29 43.0412 147.478 
285.387 44.0517 147.113 296.024 12.9946 147.144 299.399 15.3148 147.823 
299.884 16.9499 147.989 280.748 18.1372 147.569 301.606 41.7205 146.688 
286.526 44.6593 148.212 297.269 13.5131 148.097 300.011 42.4509 147.77 
293.406 12.6804 149.326 294.216 12.805 150.072 296.151 13.2395 149.133 
297.323 14.3579 149.922 281.219 16.0129 150.099 284.738 14.071 149.36 
297.636 15.2348 150.378 280.34 16.7429 150.787 279.853 18.4899 150.024 
279.663 27.3864 150.371 300.332 38.337 149.929 296.655 13.6966 149.785 
297.406 43.1704 150.292 294.429 13.0378 151.195 295.911 13.5847 150.674 
278.788 22.8809 152.202 278.978 24.2185 151.772 298.273 41.6283 151.568 
283.211 42.9731 152.81 292.849 44.5665 150.952 293.385 44.431 151.181 
292.702 12.7512 152.453 295.432 14.2132 152.549 278.994 18.901 152.331 
279.528 29.6013 151.899 281.186 39.1134 153.243 282.046 41.5747 153.674 
291.155 44.5654 152.939 294.765 43.6802 152.626 284.958 13.2393 153.742 
283.465 43.6686 154.228 286.413 12.9194 155.086 281.868 14.3119 154.287 
279.358 15.8726 155.353 295.837 16.5026 153.915 278.736 17.3993 154.395 
278.351 18.431 154.662 279.828 35.1362 154.669 281.772 41.9771 155.627 
296.7 41.9305 153.539 287.706 12.8795 156.079 291.25 12.8905 154.896 
296.386 39.5604 155.738 294.981 42.6604 154.923 283.07 43.8888 156.37 
286.898 44.8541 156.452 288.222 44.6812 156.252 286.083 13.1524 156.333 
293.73 14.4209 155.12 277.979 26.2738 156.622 294.954 27.119 156.675 
279.153 33.4437 156.323 296.107 40.2884 155.908 295.036 42.1172 155.782 
282.503 43.5321 156.933 285.318 44.7983 156.29 283.913 44.4746 157.117 
286.931 13.4149 157.439 291.85 13.6478 156.243 282.796 13.9625 156.841 
283.741 13.9832 157.571 278.926 15.7956 158.048 279.712 15.2572 157.979 
292.908 15.0042 156.678 277.604 19.4875 157.474 292.763 21.0843 158.187 
277.59 23.6849 157.337 278.133 28.2195 157.522 278.701 31.9401 157.715 
[...]
POINT_DATA 1159
SCALARS scalars float
LOOKUP_TABLE default
1 1 1 1 1 1 1 1 1 
1 1 1 1 1 1 1 1 1 
1 1 1 1 1 1 1 1 1 
1 1 1 1 1 1 1 1 1 
1 1 1 1 1 1 1 1 1 
1 1 1 1 1 1 1 1 1 
1 1 1 1 1 1 1 1 1 
1 1 1 1 1 1 1 1 1 
1 1 1 1 1 1 1 1 1 
1 1 1 1 1 1 1 1 1 
1 1 1 1 1 1 1 1 1 
1 1 1 1 1 1 1 1 1 
1 1 1 1 1 1 1 1 1 
1 1 1 1 1 1 1 1 1 
1 1 1 1 1 1 1 1 1 
1 1 1 1 1 1 1 1 1 
1 1 1 1 1 1 1 1 1 
1 1 1 1 1 1 1 1 1 
1 1 1 1 1 1 1 1 1 
1 1 1 1 1 1 1 1 1 
1 1 1 1 1 1 1 1 1 
1 1 1 1 1 1 1 1 1 
1 1 1 1 1 1 1 1 1 
1 1 1 1 1 1 1 1 1 
1 1 1 1 1 1 1 1 1 
1 1 1 1 1 1 1 1 1 
1 1 1 1 1 1 1 1 1 
1 1 1 1 1 1 1 1 1 
1 1 1 1 1 1 1 1 1 
1 1 1 1 1 1 1 1 1 
1 1 1 1 1 1 1 1 1 
1 1 1 1 1 1 1 1 1 
1 1 1 1 1 1 1 1 1 
1 1 1 1 1 1 1 1 1 
1 1 1 1 1 1 1 1 1 
1 1 1 1 1 1 1 1 1 
1 1 1 1 1 1 1 1 1 
1 1 1 1 1 1 1 1 1 
1 1 1 1 1 1 1 1 1 
1 1 1 1 1 1 1 1 1 
1 1 1 1 1 1 1 1 1 
1 1 1 1 1 1 1 1 1 
1 1 1 1 1 1 1 1 1 
1 1 1 1 1 1 1 1 1 
1 1 1 1 1 1 1 1 1 
1 1 1 1 1 1 1 1 1 
1 1 1 1 1 1 1 1 1 
1 1 1 1 1 1 1 1 1 
1 1 1 1 1 1 1 1 1 
1 1 1 1 1 1 1 1 1 
1 1 1 1 1 1 1 1 1 
1 1 1 1 1 1 1 1 1 
1 1 1 1 1 1 1 1 1 
1 1 1 1 1 1 1 1 1 
1 1 1 1 1 1 1 1 1 
1 1 1 1 1 1 1 1 1 
1 1 1 1 1 1 1 1 1 
1 1 1 1 1 1 1 1 1 
1 1 1 1 1 1 1 1 1 
1 1 1 1 1 1 1 1 1 
1 1 1 1 1 1 1 1 1 
1 1 1 1 1 1 1 1 1 
1 1 1 1 1 1 1 1 1 
1 1 1 1 1 1 1 1 1 
1 1 1 1 1 1 1 1 1 
1 1 1 1 1 1 1 1 1 
1 1 1 1 1 1 1 1 1 
1 1 1 1 1 1 1 1 1 
1 1 1 1 1 1 1 1 1 
1 1 1 1 1 1 1 1 1 
1 1 1 1 1 1 1 1 1 
1 1 1 1 1 1 1 1 1 
1 1 1 1 1 1 1 1 1 
1 1 1 1 1 1 1 1 1 
1 1 1 1 1 1 1 1 1 
1 1 1 1 1 1 1 1 1 
1 1 1 1 1 1 1 1 1 
1 1 1 1 1 1 1 1 1 
1 1 1 1 1 1 1 1 1 
1 1 1 1 1 1 1 1 1 
1 1 1 1 1 1 1 1 1 
1 1 1 1 1 1 1 1 1 
1 1 1 1 1 1 1 1 1 
1 1 1 1 1 1 1 1 1 
1 1 1 1 1 1 1 1 1 
1 1 1 1 1 1 1 1 1 
1 1 1 1 1 1 1 1 1 
1 1 1 1 1 1 1 1 1 
1 1 1 1 1 1 1 1 1 
1 1 1 1 1 1 1 1 1 
1 1 1 1 1 1 1 1 1 
1 1 1 1 1 1 1 1 1 
1 1 1 1 1 1 1 1 1 
1 1 1 1 1 1 1 1 1 
1 1 1 1 1 1 1 1 1 
1 1 1 1 1 1 1 1 1 
1 1 1 1 1 1 1 1 1 
1 1 1 1 1 1 1 1 1 
1 1 1 1 1 1 1 1 1 
1 1 1 1 1 1 1 1 1 
1 1 1 1 1 1 1 1 1 
1 1 1 1 1 1 1 1 1 
1 1 1 1 1 1 1 1 1 
1 1 1 1 1 1 1 1 1 
1 1 1 1 1 1 1 1 1 
1 1 1 1 1 1 1 1 1 
1 1 1 1 1 1 1 1 1 
1 1 1 1 1 1 1 1 1 
1 1 1 1 1 1 1 1 1 
1 1 1 1 1 1 1 1 1 
1 1 1 1 1 1 1 1 1 
1 1 1 1 1 1 1 1 1 
1 1 1 1 1 1 1 1 1 
1 1 1 1 1 1 1 1 1 
1 1 1 1 1 1 1 1 1 
1 1 1 1 1 1 1 1 1 
1 1 1 1 1 1 1 1 1 
1 1 1 1 1 1 1 1 1 
1 1 1 1 1 1 1 1 1 
1 1 1 1 1 1 1 1 1 
1 1 1 1 1 1 1 1 1 
1 1 1 1 1 1 1 1 1 
1 1 1 1 1 1 1 1 1 
1 1 1 1 1 1 1 1 1 
1 1 1 1 1 1 1 1 1 
1 1 1 1 1 1 1 1 1 
1 1 1 1 1 1 1 1 1 
1 1 1 1 1 1 1 1 1 
1 1 1 1 1 1 1 
NORMALS Normals float
-0.242923 -0.414346 -0.877101 -0.195258 -0.359917 -0.912323 -0.0158251 -0.396036 -0.918098 
-0.334242 -0.148575 -0.930703 0.247358 -0.425831 -0.870334 0.138135 -0.215422 -0.966702 
0.0197513 -0.538669 -0.842286 0.108688 -0.38516 -0.916427 0.0441678 -0.514851 -0.856141 
0.127526 -0.20699 -0.969996 0.0977497 -0.510053 -0.854571 -0.53277 -0.239052 -0.811795 
-0.0255372 -0.166371 -0.985732 -0.0763588 -0.140573 -0.987121 -0.176101 -0.220523 -0.959353 
-0.462268 0.114484 -0.879319 0.125394 0.0538153 -0.990646 -0.155421 0.105482 -0.9822 
-0.25208 -0.623307 -0.740232 -0.719511 -0.0196959 -0.694202 0.213519 0.0065863 -0.976917 
-0.571129 0.121719 -0.811786 -0.4399 0.296242 -0.847779 -0.281183 0.265222 -0.922276 
-0.258146 0.254065 -0.932101 -0.0339946 0.239673 -0.970258 0.334124 -0.231071 -0.913765 
0.0710037 -0.427819 -0.901071 -0.0264333 -0.602236 -0.79788 0.426943 -0.299363 -0.853289 
0.0107748 -0.703533 -0.710581 0.106396 0.0910412 -0.990147 0.354894 0.0728329 -0.932065 
-0.707546 -0.400553 -0.582182 -0.841385 -0.157505 -0.516976 -0.831132 0.116437 -0.543748 
-0.524005 0.345915 -0.778307 -0.72264 0.243545 -0.646898 0.201389 0.319186 -0.926047 
-0.113859 -0.715752 -0.68901 0.128947 -0.222382 -0.966395 0.476043 0.0450446 -0.878267 
0.72954 -0.015005 -0.683774 -0.46545 -0.564946 -0.681317 0.396857 0.230828 -0.888382 
-0.868484 0.0252246 -0.495074 -0.763029 0.308209 -0.568151 -0.691352 0.30213 -0.656315 
-0.399958 0.35581 -0.844649 0.166462 -0.710429 -0.683799 0.703923 0.125381 -0.699122 
0.624577 -0.411526 -0.663739 0.836553 0.217807 -0.502731 0.398736 0.315416 -0.861117 
-0.686703 0.33356 -0.645892 -0.537091 0.386155 -0.749945 0.368878 -0.697108 -0.614792 
-0.0383891 -0.881689 -0.470266 0.885742 0.0828305 -0.456728 -0.515949 -0.707346 -0.483175 
-0.7662 -0.515933 -0.383081 -0.798058 -0.413409 -0.438403 0.732201 0.126708 -0.669199 
0.633682 0.226236 -0.739774 0.229112 0.389317 -0.892155 -0.734894 0.307387 -0.604519 
0.0302985 -0.886433 -0.461865 0.588608 -0.62808 -0.508975 -0.034095 -0.875113 -0.482716 
-0.943141 -0.151162 -0.296032 0.686854 0.273859 -0.673226 -0.906746 0.186411 -0.378236 
0.598054 0.335666 -0.727777 -0.204259 0.397648 -0.894513 0 -0.970142 -0.242536 
0 -0.999201 -0.0399606 -0.184146 -0.982114 -0.0392772 0.184146 -0.982114 -0.0392772 
0 0.996172 0.0874195 -0.536678 0.457402 -0.709056 -0.30239 0.465696 -0.831678 
0.539962 0.364899 -0.758479 -0.916755 0.177373 -0.357908 0 -0.986394 0.164399 
-0.762746 0.366642 -0.532722 -0.740194 0.289754 -0.606758 -0.428666 0.55461 -0.7132 
0.831673 0.261961 -0.489589 -0.98161 0.0961115 -0.16494 -0.631635 0.487087 -0.603144 
-0.00993719 0.479145 -0.877679 0.33407 -0.884001 -0.327015 0.511225 -0.718427 -0.471711 
0.919727 -0.21649 -0.327467 0.940489 0.0229078 -0.33905 0.740223 0.386044 -0.550491 
0.323148 0.44611 -0.834602 -0.667004 0.529205 -0.52445 0.237794 0.521986 -0.819137 
-0.450435 0.577113 -0.681211 -0.00232215 0.66116 -0.750242 0.137495 -0.877555 -0.459338 
-0.754 -0.548763 -0.361031 -0.578827 -0.720011 -0.38281 -0.934227 0.179522 -0.308207 
-0.951958 0.181899 -0.246351 -0.875078 0.32537 -0.358291 0.268058 0.632671 -0.726548 
0.191619 0.701845 -0.686072 -0.207645 0.690201 -0.693185 0.731187 -0.625597 -0.272018 
-0.246763 -0.922179 -0.297816 -0.807534 -0.461264 -0.367592 0.688511 0.41948 -0.591598 
0.46221 0.600341 -0.65265 0.402854 0.594805 -0.69564 0.367974 0.843032 -0.392291 
0.102793 0.878195 -0.467127 -0.40178 0.747775 -0.528589 0.287776 0.79918 -0.527727 
0.591651 -0.773682 -0.226637 0.842759 -0.488032 -0.227116 -0.638756 -0.692444 -0.335428 
-0.985602 -0.0628303 -0.156976 -0.729377 0.599863 -0.328896 0.150858 0.980161 -0.128554 
-0.332255 0.847483 -0.41398 -0.065279 0.906162 -0.417862 0.329236 -0.917184 -0.224448 
0.90593 0.247248 -0.343743 0.883194 0.321586 -0.341395 0.808677 0.489873 -0.325677 
0.403785 0.877825 -0.257644 -0.439228 0.826818 -0.351355 0.00128759 -0.948694 -0.316192 
0.742364 -0.645756 -0.178594 0.976307 -0.203076 0.0747352 -0.985995 0.144468 -0.0833218 
0.776872 0.611252 -0.151134 0.569654 0.769611 -0.288432 0.40181 0.8084 -0.430162 
0.307443 0.912019 -0.271477 0.276471 0.947661 0.159693 -0.620928 0.781467 -0.0612962 
-0.493086 0.818005 -0.2962 -0.399093 0.905269 0.145644 0.0192021 0.937236 -0.348167 
0.124045 0.99174 -0.0326428 -0.193197 0.974232 -0.116389 0.687184 -0.714804 -0.12974 
0.661258 -0.750133 -0.00613776 -0.629537 -0.679979 -0.375916 0.98871 0.14623 -0.0326956 
-0.104879 0.958822 0.263932 0.0809938 0.991015 0.106444 -0.302606 -0.8906 -0.339502 
-0.737915 -0.491459 -0.462547 0.99627 -0.083059 -0.0233767 0.975438 0.166922 -0.143726 
-0.949376 0.307347 -0.0649893 0.328706 0.944347 0.01269 0.182372 0.980401 0.0745221 
0.803528 -0.564573 0.18868 -0.817949 -0.519178 -0.24782 -0.845366 -0.367387 -0.387793 
0.530229 0.843638 0.0844547 -0.779831 0.624628 -0.0412851 -0.660422 0.747155 -0.0748481 
-0.416667 0.891478 0.177919 -0.119627 0.947436 0.296739 -0.274354 0.946185 0.171653 
0.348394 -0.937206 -0.0163531 0.89533 -0.348752 0.277047 -0.947166 -0.186266 -0.261115 
0.979128 -0.0655817 0.192373 0.981066 0.109989 0.159413 0.929386 0.362311 -0.0705207 
-0.702619 0.707771 0.0733967 -0.428984 0.883465 0.188316 -0.737429 -0.587249 -0.333672 
0.96727 -0.0776714 0.24157 -0.598542 0.789026 0.138512 0.839177 -0.373702 0.395131 
-0.870757 -0.362874 -0.331821 -0.869498 0.491569 -0.0483015 0.236596 0.923906 0.3007 
0.0759169 0.95455 0.28822 -0.506472 0.855654 0.106498 -0.25944 0.930499 0.258577 
0.654618 -0.738743 0.160421 0.684495 0.70483 0.18623 -0.626343 0.779375 0.0163979 
0.626632 -0.762688 0.160122 0.943341 0.0600473 0.326347 0.379126 0.868402 0.319596 
-0.23169 0.957049 0.17429 -0.0500001 0.95463 0.293567 -0.539995 -0.776161 -0.325544 
0.798721 0.515839 0.309766 -0.773917 0.633148 -0.0132753 -0.487011 0.867525 0.101094 
0.250345 -0.94743 -0.199255 0.30819 -0.944727 -0.111844 0.912844 0.195889 0.35825 
-0.65985 0.7499 0.047424 -0.0011807 -0.959506 -0.281686 -0.215311 -0.938973 -0.268274 
0.868148 -0.154543 0.471631 -0.965317 -0.0630356 -0.253358 -0.891071 0.450145 -0.0579893 
-0.29184 0.941142 0.170534 0.729473 -0.607039 0.315234 -0.710481 0.69756 -0.0928766 
-0.769908 0.63546 -0.0585882 0.557179 -0.830282 0.0134939 0.650395 -0.752248 0.105405 
-0.830795 -0.466115 -0.304164 -0.960231 -0.159877 -0.228902 -0.966629 0.201142 -0.158649 
-0.940782 0.212991 -0.26375 -0.966743 0.20097 -0.158173 -0.96599 0.199925 -0.163992 
-0.139535 0.973261 0.182463 0.328278 -0.938819 -0.104172 0.662252 -0.736377 0.13846 
0.853583 -0.448141 0.265641 0.855924 -0.400316 0.327324 -0.969074 0.167538 -0.18118 
-0.936359 0.147045 -0.318763 -0.936359 0.147045 -0.318763 -0.964245 0.203544 -0.16971 
-0.966275 0.214444 -0.142573 -0.937249 0.235276 -0.257311 0.854275 0.194414 0.482097 
0.425873 0.802952 0.417015 0.0122485 0.984883 0.172785 -0.546314 0.832088 0.0957674 
0.674521 -0.733128 0.0868585 -0.102427 -0.979074 -0.17585 0.0642292 -0.991529 -0.112891 
0.821721 -0.485199 0.298926 0.850072 -0.37166 0.373157 -0.64141 -0.725064 -0.250749 
-0.491022 -0.831482 -0.259877 -0.742495 -0.600621 -0.296573 -0.917944 0.350546 -0.185731 
-0.800975 0.574464 0.168611 0.0655925 0.960471 0.270543 -0.755569 0.616471 0.221539 
-0.194383 0.939077 0.283459 0.295516 -0.954681 0.0354217 0.619132 -0.753909 0.219766 
0.836366 -0.526354 0.153111 -0.278755 -0.935068 -0.21896 -0.574533 -0.776677 -0.258235 
-0.713902 0.695851 0.0783308 -0.692794 0.541812 0.475896 -0.842263 0.417159 0.341426 
-0.0613488 0.90963 0.410865 -0.374588 0.876435 0.302565 0.838386 -0.410777 0.35829 
-0.588903 -0.761078 -0.271945 -0.639612 -0.691716 -0.3353 0.850629 0.126991 0.510199 
0.112654 0.957188 0.266645 -0.412903 0.885803 0.211811 -0.0813557 0.948538 0.306033 
-0.367674 0.866562 0.337469 0.333061 -0.92464 0.184693 0.578114 -0.765114 0.283521 
0.603833 -0.707764 0.366682 0.730065 -0.512087 0.452517 0.701748 0.486257 0.520676 
-0.699417 0.710395 0.0784543 0.325291 -0.907161 0.266917 -0.856883 -0.413954 -0.307235 
-0.966038 0.0162412 -0.257887 -0.805036 0.59311 -0.011694 -0.182429 0.949963 0.253555 
0.417881 -0.77951 0.466627 0.592835 -0.627315 0.504997 0.263599 -0.964543 -0.0131266 
0.629893 -0.692174 0.352321 -0.691401 -0.664698 -0.283093 0.837219 -0.13405 0.530184 
0.593837 0.665598 0.452037 0.424581 0.850199 0.311277 -0.504994 0.846027 0.170935 
-0.111247 0.965018 0.237411 -0.60858 -0.758476 -0.233117 0.0260725 0.974684 0.222061 
-0.21288 0.948794 0.233392 0.614804 -0.745806 0.256493 -0.118491 -0.964746 -0.235 
0.0428804 -0.978888 -0.19985 -0.361493 -0.858083 -0.364715 0.8015 0.278042 0.529425 
0.583383 0.695984 0.418653 0.626508 0.645723 0.436497 0.366025 0.83572 0.409386 
-0.443731 0.891217 0.0939958 0.734009 -0.598295 0.321363 -0.941558 0.290414 -0.170668 
-0.610976 0.789695 -0.0555818 -0.412471 -0.898313 -0.151333 0.69901 -0.617384 0.360863 
-0.92949 -0.271785 -0.249362 0.69116 0.454142 0.562186 -0.882651 0.46175 -0.0878291 
-0.816722 0.570723 -0.0850859 -0.524892 0.851072 0.012817 0.499107 -0.860927 0.0984697 
0.799585 -0.308903 0.515017 0.782253 0.0954723 0.615602 -0.543328 0.831467 0.116005 
-0.390003 0.899137 0.198622 -0.312965 0.936511 0.158116 0.290913 -0.950275 0.111113 
0.575961 -0.775568 0.258387 0.101676 -0.994672 0.0170025 0.779148 -0.52391 0.344161 
0.666819 -0.676237 0.313139 0.721607 0.31806 0.614915 0.404728 -0.88655 0.224107 
0.708881 -0.580576 0.400523 0.780639 -0.480207 0.400006 -0.81647 0.57521 -0.0500981 
-0.693963 0.71964 0.0231049 0.119069 -0.992093 0.039663 0.75687 -0.411856 0.507467 
0.829134 -0.279629 0.484092 -0.919623 -0.279908 -0.275583 0.611703 0.528215 0.588904 
-0.31225 0.949454 0.0322118 0.573999 -0.76191 0.300032 0.65488 0.574556 0.490935 
-0.0372878 -0.999119 -0.0192763 0.212455 -0.968395 0.130668 0.345373 -0.922284 0.173519 
0.675864 -0.658153 0.331727 -0.720025 -0.667522 -0.18968 -0.373363 -0.916518 -0.143509 
0.7283 -0.441403 0.524158 -0.765263 -0.612631 -0.197624 -0.894421 -0.284795 -0.344822 
-0.93771 0.131851 -0.321427 0.806182 0.153876 0.571307 0.584846 -0.719474 0.374583 
0.459953 0.845217 0.272123 0.289614 -0.925933 0.242428 0.316526 -0.912652 0.258605 
-0.955247 -0.0144486 -0.295455 -0.937322 0.144308 -0.317178 0.707115 0.537588 0.459334 
-0.658821 0.707155 -0.256683 0.0590429 0.976817 0.205773 0.225061 0.958774 0.173494 
0.301692 -0.922966 0.238989 0.712519 -0.576006 0.400666 -0.89718 -0.289461 -0.333589 
-0.956151 0.143792 -0.255147 -0.910747 0.356964 -0.207646 -0.835564 0.479151 -0.268788 
0.175477 0.973207 0.148581 0.36115 0.883791 0.297462 -0.125107 -0.986404 -0.106559 
-0.595789 0.763703 -0.248582 0.00839281 -0.999238 -0.038119 -0.474051 -0.878047 -0.065645 
-0.741474 -0.630591 -0.229282 0.952321 -0.148911 0.266291 -0.868787 -0.416648 -0.267606 
-0.956825 -0.214055 -0.196636 -0.942717 0.234316 -0.237445 -0.868811 0.459529 -0.184394 
0.683706 0.583562 0.43818 0.0644602 -0.992104 0.107589 0.150725 -0.97624 0.155684 
0.813731 0.166615 0.55685 0.647204 0.669832 0.363939 -0.573071 0.792814 -0.20745 
0.0173651 0.999835 -0.00525099 0.150664 0.988585 -0.000617654 -0.163558 -0.951682 0.259905 
0.634772 -0.630726 0.446373 -0.975256 0.172818 -0.137877 0.746675 -0.143433 0.649541 
-0.981096 0.16983 -0.0927825 0.787026 0.385924 0.481304 0.700351 0.585264 0.408624 
-0.693438 0.700276 -0.169576 -0.207326 0.959558 -0.190431 -0.323495 0.944283 -0.0606695 
-0.0808419 -0.922427 0.377616 0.473037 -0.727436 0.497064 -0.299214 -0.934581 0.19243 
-0.13946 -0.935226 0.325427 -0.619049 -0.775395 0.124664 -0.503616 -0.862791 0.0443122 
0.659821 -0.460769 0.593572 -0.992296 -0.109122 -0.0586686 0.461106 -0.145929 0.875264 
-0.996459 0.0803284 -0.0248387 -0.995178 0.0974413 0.0112337 -0.96699 0.249709 0.0507578 
0.669803 -0.0391496 0.741506 0.25372 0.939766 0.229053 0.321667 0.878875 0.352291 
0.464704 0.827581 0.314897 0.154896 -0.864613 0.477965 -0.162073 -0.914973 0.369535 
-0.108208 -0.853287 0.510091 0.587971 -0.464311 0.662348 -0.697315 -0.577131 0.425055 
-0.852266 -0.522004 -0.0339617 0.466789 -0.245432 0.84963 0.43353 -0.06499 0.898793 
0.670114 -0.153428 0.726228 -0.935835 -0.351895 -0.0195531 -0.956306 -0.121663 0.26585 
-0.972862 0.131451 0.190419 -0.981043 0.18999 -0.0381902 -0.986658 0.120359 0.109631 
-0.947189 0.263405 0.182897 -0.980084 0.189128 0.0605405 -0.905682 0.420522 -0.0538684 
0.60817 0.657763 0.444384 0.329861 0.838911 0.432921 -0.512509 0.823906 -0.241897 
0.0695235 -0.665817 0.742869 0.311716 -0.792273 0.524534 -0.388067 -0.855619 0.34252 
-0.126066 -0.739789 0.660923 -0.0872331 -0.569457 0.817379 -0.491203 -0.635494 0.595707 
-0.487366 -0.616683 0.618204 -0.102577 -0.529665 0.841982 0.06975 -0.538997 0.839415 
0.421678 -0.715659 0.556794 0.516468 -0.592737 0.617999 -0.726478 -0.385667 0.568762 
0.242993 -0.203297 0.948485 0.066432 -0.241153 0.968211 0.145726 -0.13495 0.980078 
0.106977 -0.371539 0.922234 0.599191 -0.160278 0.784398 -0.744498 -0.368494 0.556717 
-0.949973 -0.308441 -0.0491397 0.221638 -0.122857 0.967359 -0.85157 -0.270946 0.448795 
-0.934715 -0.283599 0.214195 0.496213 0.449379 -0.742853 -0.945376 -0.0980497 0.310886 
-0.179318 -0.737592 0.651002 0.0231159 -0.0346405 0.999132 -0.285083 -0.506197 -0.813936 
-0.963102 0.101445 0.249284 -0.944048 0.139545 0.298833 -0.805854 0.0421911 0.590609 
-0.92792 0.148437 0.341953 0.390875 -0.129628 0.91127 0.414039 -0.11113 0.90345 
0.580723 -0.0902988 0.809078 -0.902265 0.207143 0.378167 -0.944664 0.212833 0.249625 
-0.930573 0.149738 0.334086 -0.856824 0.00287764 0.5156 -0.948047 0.296969 0.11409 
0.784983 0.153742 0.600138 0.617133 0.369032 0.694955 0.582878 0.641585 0.49862 
0.372882 0.74 0.559784 0.29334 0.856609 0.424467 -0.141216 0.979926 -0.140722 
0.0128096 0.999867 -0.0101216 -0.30884 0.948224 -0.0740912 -0.358184 -0.666277 0.654048 
-0.0935941 -0.791917 0.603413 -0.527239 -0.464346 0.711619 -0.517952 -0.578406 0.630216 
0.0450404 -0.549757 0.83411 0.0442806 -0.623184 0.780821 0.286573 -0.592369 0.752977 
0.435455 -0.38825 0.812183 -0.407261 -0.337298 0.848745 -0.288074 -0.345805 0.892991 
0.0601297 -0.305643 0.950246 -0.709041 -0.208994 0.673486 -0.614869 -0.219332 0.757515 
-0.451962 -0.213458 0.866121 -0.764512 -0.259032 0.590274 -0.765701 -0.230442 0.600498 
-0.873636 -0.0572425 0.483201 -0.557338 -0.270068 0.785136 -0.687204 -0.0220811 0.726129 
-0.433742 -0.332662 0.837379 -0.0875456 -0.139253 0.98638 -0.918855 -0.0354906 0.392996 
-0.676125 0.307957 0.669341 0.157574 -0.0703923 0.984995 0.313843 -0.197315 0.928746 
-0.174597 -0.0168382 0.984496 -0.519351 0.0246215 0.854206 -0.467498 0.0580677 0.882085 
-0.549757 0.0707137 0.832326 0.39633 -0.0693227 0.915487 -0.892293 0.141767 0.42862 
-0.431576 0.0660122 0.899658 0.0966618 -0.000939664 0.995317 0.422564 -0.0303505 0.905825 
-0.874559 0.132742 0.466397 -0.877557 0.198029 0.436667 0.242152 -0.0747382 0.967355 
-0.942523 0.228569 0.243734 -0.908238 0.16912 0.382755 0.458458 -0.199021 0.866145 
0.63796 0.0805181 0.765848 -0.936 0.195508 0.292712 -0.949811 0.271973 0.154562 
0.391757 0.630277 0.670282 -0.624801 0.756857 -0.191812 -0.240421 0.970558 -0.0146512 
-0.0271485 0.989084 0.144834 -0.143518 -0.520817 0.841518 0.0245447 -0.289283 0.956929 
-0.565615 -0.0301089 0.82412 -0.420401 -0.078863 0.903905 -0.587763 0.0436783 0.807853 
-0.514509 0.120109 0.849032 0.282032 -0.0166412 0.959261 -0.693049 0.0516199 0.71904 
-0.20329 0.018158 0.97895 -0.771738 0.0987437 0.628227 -0.319874 0.0306314 0.946965 
-0.618349 0.116141 0.777274 -0.653014 0.113526 0.748788 -0.745818 0.0157886 0.665962 
-0.310584 -0.169962 0.935227 -0.852863 0.0822749 0.515612 -0.608064 -0.0492865 0.792357 
-0.334985 -0.194987 0.921827 0.258368 -0.0704157 0.963477 -0.824681 0.227197 0.51796 
0.477665 0.530484 0.700302 -0.923799 0.265198 0.276161 0.286222 0.604701 0.743246 
0.054449 0.9914 0.119006 0.33695 0.869864 0.360279 -0.2164 -0.0613398 0.974376 
-0.318565 -0.0358859 0.947221 0.0478294 -0.1088 0.992912 0.161315 0.214495 0.963311 
0.425709 0.177749 0.88723 -0.650686 0.112351 0.75099 -0.560215 0.126689 0.818602 
-0.27263 -0.0210996 0.961888 0.332118 0.331696 0.882992 0.400741 0.489255 0.77462 
-0.791067 0.0128964 0.611593 -0.922134 0.116042 0.369056 0.25055 0.410949 0.876553 
0.229841 0.426381 0.874856 0.500927 0.537364 0.678463 -0.984766 0.124821 0.121058 
0.230509 0.807865 0.54242 0.483672 0.684876 0.544983 -0.718702 0.643219 -0.264079 
-0.105406 0.972383 -0.208231 -0.517482 0.759548 -0.394079 -0.748613 -0.0800842 0.658153 
-0.576277 -0.297254 0.761279 -0.23093 -0.343236 0.910418 -0.628399 0.460768 0.626743 
0.223997 0.970683 -0.0871707 0.502102 0.826047 0.256009 0.29612 0.895615 0.331943 
-0.462363 0.859458 -0.218066 0.127004 0.991866 0.00849682 -0.122606 -0.172055 0.977428 
0.268526 -0.121078 0.955633 0.4576 0.273535 0.846038 0.466156 0.567117 0.679026 
0.620253 0.585354 0.522155 -0.0147221 0.026905 -0.99953 -0.876551 -0.198336 -0.438544 
-0.594196 0.80426 0.00984178 -0.077601 -0.3833 -0.920358 0.645127 0.497354 -0.580043 
-0.211974 0.135848 -0.967788 -0.396529 0.116379 -0.910616 -0.330339 0.0913037 -0.939436 
-0.017534 0.363356 -0.931485 -0.0577008 0.291573 -0.954807 -0.502947 -0.11217 -0.857008 