# vtk DataFile Version 4.2
vtk output
ASCII
DATASET POLYDATA
POINTS 650 float
333.765 53.2964 63.24 337.845 53.4999 63.1575 337.988 53.8341 63.0811 
333.907 53.4714 63.2671 338.78 53.9785 63.0554 339.689 54.4896 63.0773 
339.566 54.6109 63.0866 339.294 54.633 63.1262 339.851 54.6538 63.1197 
340.238 54.4811 63.2235 340.141 54.6437 63.2005 340.235 54.7463 63.3 
326.142 51.9838 64.3367 326.855 52.1642 64.2254 327.499 51.894 64.1104 
330.63 52.6722 63.7574 332.505 52.6932 63.4834 329.881 52.8188 63.9287 
339.297 54.0156 63.1411 340.603 53.7661 63.5856 331.865 53.447 63.7044 
336.04 53.9989 63.3023 338.016 54.12 63.1219 340.698 53.9452 63.5434 
340.648 54.1108 63.4847 333.048 53.7525 63.656 336.173 54.2585 63.4284 
336.54 54.4042 63.5313 337.971 54.6956 63.4939 338.462 54.831 63.5054 
340.109 54.8743 63.3494 340.42 54.753 63.4879 339.508 54.9292 63.4279 
340.223 54.9396 63.4661 327.145 51.272 64.3366 325.43 51.9743 64.458 
341.026 53.1554 64.3478 327.543 52.591 64.3666 341.07 53.5102 64.0943 
341.015 53.7168 63.9073 340.929 53.9538 63.7548 341.049 53.8393 63.9441 
332.151 53.7277 63.7919 332.891 53.8692 63.9206 334.703 54.152 63.73 
335.255 54.2274 63.6434 332.239 53.794 63.8431 332.439 53.8366 63.8794 
338.182 54.8148 63.6268 340.535 54.7329 63.7738 338.989 54.9393 63.7201 
339.578 54.9698 63.7146 339.996 55.038 63.5929 340.185 55.0197 63.542 
340.17 55.0423 63.6274 340.295 55.0072 63.6256 324.544 50.284 65.0787 
319.359 50.5093 66.0904 320.616 50.3209 65.8075 337.948 51.4991 64.2638 
320.129 50.8025 65.8682 320.833 51.1185 65.701 321.651 51.3551 65.387 
322.1 51.4605 65.2515 321.858 51.4967 65.3615 324.434 51.9983 64.7279 
323.778 51.9983 64.9537 341.118 53.4719 64.2603 327.469 52.7458 64.922 
331.097 53.415 64.589 331.97 53.6954 64.1745 332.194 53.793 63.9468 
335.179 54.1838 64.4601 336.827 54.4311 64.4894 340.759 54.4025 64.0359 
339.41 54.9133 63.972 340.42 54.8394 63.8573 340.519 54.5843 64.156 
340.788 54.2793 64.3352 340.395 54.9239 63.7036 319.723 49.8992 66.216 
321.793 49.9623 65.7238 326.837 49.7118 65.2433 319.011 50.7455 66.37 
321.302 51.2852 65.5146 319.534 50.9382 66.2917 320.573 51.2208 66.0575 
321.383 51.4995 65.9068 322.393 51.8163 65.4393 324.779 52.2827 65.6852 
326.811 52.5896 65.5791 332.76 53.6056 64.9946 338.135 54.0906 65.3884 
341.012 53.6139 64.9329 340.395 54.4195 64.5541 317.482 49.4383 67.447 
317.315 49.425 67.5483 318.062 49.1078 67.4068 317.323 49.527 67.5224 
317.254 49.7795 67.5081 327.621 49.0451 65.7877 339.543 50.1259 65.853 
340.512 50.3852 66.0721 341.153 50.1843 66.7211 341.494 50.6586 66.7278 
317.365 50.0855 67.3453 317.688 50.3557 67.1351 317.97 50.3577 66.9396 
317.982 50.5098 67.0712 318.34 50.6222 66.7943 318.829 50.7867 66.5678 
319.181 50.9252 66.5828 341.299 52.3539 65.833 318.567 50.7662 66.7627 
328.352 52.7604 65.5937 340.871 53.5571 65.2766 336.478 48.0485 67.1459 
317.262 49.4095 67.6283 317.217 49.3609 67.8418 316.992 49.5329 67.9992 
316.93 49.6838 67.8458 340.633 49.429 67.006 316.988 49.8084 67.7312 
317.155 49.9688 67.5535 317.477 50.2492 67.2749 317.324 50.1509 67.4958 
341.218 52.2954 66.4094 339.819 52.8045 66.8195 340.618 52.9875 66.2275 
317.669 48.4582 68.5097 319.004 47.9208 68.3154 319.86 48.1609 67.654 
330.884 47.6901 67.1304 317.197 49.1567 68.3675 341.422 48.6327 68.3026 
316.874 49.7618 67.94 317.064 49.4616 68.2489 316.908 49.8346 67.8533 
316.968 49.8985 67.8717 317.06 49.9627 67.8389 317.29 50.0572 67.7949 
320.052 50.8355 67.5573 324.213 51.1695 67.9656 317.726 48.1448 69.076 
342.113 47.806 69.8826 341.873 48.547 68.9541 317.319 48.9167 68.7919 
342.021 48.6271 69.3494 316.941 49.7918 67.9809 317.29 49.2739 68.621 
319.56 49.8028 69.0898 318.187 47.6495 69.6593 318.916 47.2088 69.8534 
317.575 48.329 69.1564 318.9 47.4524 69.1752 317.442 48.6241 69.0668 
321.222 49.4791 69.834 317.876 49.1159 69.2293 325.449 45.0268 70.9262 
340.898 45.2808 71.4994 318.366 47.4912 69.9103 341.538 46.3668 70.79 
342.064 47.2204 71.0183 342.128 47.5821 70.4075 317.873 48.0157 69.7798 
317.74 48.5471 69.5459 318.563 48.9686 69.6447 319.654 48.9653 69.9588 
341.828 48.7989 70.3293 324.333 44.9937 71.4532 320.036 46.6526 70.8266 
320.367 46.5544 71.0641 321.774 45.8766 71.325 341.306 44.96 72.1428 
342.155 45.2621 72.7309 318.931 47.2207 70.3158 342.089 46.3761 72.1218 
318.104 47.7758 69.9368 318.439 47.6014 70.1451 341.866 47.1332 71.9614 
317.96 48.0547 69.9175 317.791 48.1804 69.7624 318.198 47.8596 70.0476 
317.77 48.3178 69.7079 341.59 48.2983 71.0006 325.212 44.4376 72.8736 
327.322 43.9407 72.5723 341.865 44.5546 73.124 342.038 44.2922 73.7486 
321.039 46.3247 71.413 342.183 45.1607 72.9808 320.7 46.5333 71.3111 
342.192 45.191 73.2174 320.62 47.083 71.2828 341.65 46.9097 72.5338 
317.906 48.1867 69.8675 323.333 45.7479 72.5638 320.683 46.7725 71.3388 
324.335 45.9322 72.9722 325.168 46.4084 72.9864 341.036 46.661 73.3623 
342 45.6259 73.8528 330.835 42.5085 74.3648 342.116 42.952 75.3987 
325.29 44.5997 73.4755 326.414 44.098 73.8525 324.191 45.3835 73.0679 
342.036 45.0098 74.5027 330.517 42.227 75.4061 342.271 42.6417 76.0124 
327.141 43.9702 74.4694 342.366 42.5708 76.4005 339.117 45.1263 75.9967 
341.055 44.9277 75.6042 341.822 44.46 75.5905 333.6 40.9515 77.241 
329.888 42.4053 76.0148 341.318 40.9872 77.0631 329.017 42.8836 75.5687 
329.651 42.7293 76.1361 330.148 43.9751 76.0639 330.934 44.1887 76.1709 
332.176 41.3759 77.4633 331.787 41.6556 77.1295 342.393 41.9383 77.1807 
329.248 43.176 75.9569 342.189 42.7258 77.3045 332.11 43.5161 76.9906 
336.884 43.5941 77.9298 334.393 40.6149 78.643 342.282 40.0552 79.2824 
332.372 41.5189 77.6668 342.353 41.4081 78.3791 331.314 42.271 77.1641 
332.512 42.596 77.6715 337.594 39.3425 79.544 341.538 38.967 80.2382 
339.307 39.259 79.1619 341.907 39.3835 79.8186 333.177 41.3529 78.2033 
334.067 40.929 78.7499 342.403 40.3117 79.612 332.259 42.2965 77.6705 
342.122 41.5308 79.1475 342.078 42.2324 78.3158 342.052 39.2588 80.2303 
342.335 39.4802 80.5015 342.397 39.7535 80.2984 334.591 40.761 79.1944 
335.596 40.3057 79.8085 342.361 40.5667 79.685 334.858 40.79 79.4212 
342.338 40.3322 80.0909 339.212 41.3483 80.4812 341.586 41.0259 80.2678 
339.913 41.6265 80.1622 341.125 38.2994 81.4963 341.639 38.602 81.0987 
336.532 39.7827 80.2894 342.313 39.3474 80.8406 342.359 39.6618 80.6065 
335.491 40.6666 79.8086 342.273 39.6335 80.8935 336.26 40.4919 80.302 
337.737 40.9693 80.5949 338.066 40.5874 80.9167 338.809 40.6009 81.0535 
341.921 40.6916 80.3581 342.034 40.22 80.7168 340.519 38.2129 82.1911 
341.549 38.1869 82.0193 341.829 38.4031 81.7886 341.904 38.4534 81.9523 
339.226 38.6223 81.5832 339.619 38.4812 81.7577 340.115 38.348 82.0086 
339.361 38.6256 81.7794 339.737 38.5012 81.9561 342.074 38.9241 81.6212 
336.51 40.2244 80.5127 341.646 39.9002 81.3756 340.677 38.1809 82.3552 
340.92 38.1505 82.4629 341.566 38.1449 82.2477 341.751 38.2511 82.2818 
341.628 38.1439 82.3791 340.677 38.2323 82.426 340.425 38.2882 82.2799 
341.728 38.2366 82.4397 341.658 38.2346 82.5009 341.605 38.1668 82.4653 
341.878 38.4224 82.1744 339.236 38.7464 81.7859 340.045 38.4994 82.1558 
341.726 38.2816 82.4605 337.977 39.6009 81.2238 336.805 40.0961 80.6933 
340.277 39.259 82.0717 341.592 39.2977 81.8657 341.721 39.5756 81.5921 
341.138 38.1159 82.511 341.344 38.1246 82.5035 341.512 38.1118 82.4117 
340.833 38.2684 82.5053 341.131 38.1851 82.5569 341.321 38.1819 82.5743 
341.481 38.2307 82.5403 341.872 38.5023 82.1951 340.707 38.4505 82.469 
341.034 38.9567 82.2471 341.012 38.334 82.5552 341.266 38.2783 82.5743 
340.914 38.4901 82.5099 340.693 38.5222 373.432 341.189 38.5259 373.357 
341.06 38.4464 373.408 341.292 38.4634 373.455 340.484 38.6119 373.468 
340.257 38.7733 373.548 340.92 38.6746 373.32 341.157 38.6349 373.31 
341.406 38.626 373.433 340.226 39.0044 373.597 340.758 38.823 373.393 
341.301 38.6738 373.311 341.211 38.7311 373.307 341.3 38.7216 373.309 
341.104 38.3387 373.707 339.863 38.5893 373.81 341.5 38.5062 373.565 
339.556 38.691 373.898 339.345 38.8485 373.948 341.573 38.5975 373.553 
341.563 38.6578 373.544 341.636 38.6813 373.655 338.854 39.2209 374.151 
341.35 38.7226 373.364 341.389 38.8448 373.535 341.555 38.787 373.65 
341.597 38.4617 373.778 341.73 38.4903 373.952 341.63 38.4197 373.951 
341.738 38.4896 374.118 339.329 38.6122 374.199 341.752 38.6061 373.932 
341.805 38.5818 374.099 338.727 38.9309 374.387 341.723 38.8437 373.956 
338.272 39.6955 374.571 339.937 39.6734 374.05 340.398 39.8372 374.195 
338.344 40.0911 374.732 339.692 39.9741 374.332 340.83 38.2928 374.241 
340.967 38.3311 374.434 341.705 38.5192 374.341 341.949 38.9628 374.729 
337.569 39.5757 375.02 337.587 40.3605 375.157 341.09 40.227 374.809 
341.617 40.2835 375.201 337.9 40.8909 375.385 340.711 38.3482 374.503 
338.875 38.7128 375.114 336.889 39.546 375.778 341.821 38.8368 375.129 
341.975 38.9976 375.181 342.123 39.2627 375.523 335.931 40.043 376.3 
342.191 39.4436 375.554 335.246 40.5787 376.55 335.212 40.8367 376.564 
341.728 40.5191 375.614 336.576 41.1315 375.999 339.86 41.2011 375.586 
341.232 38.9176 375.802 335.054 40.3545 376.924 334.643 40.5806 377.154 
335.563 40.0785 376.839 334.735 41.534 377.005 334.079 41.7679 377.443 
336.184 41.5736 376.414 337.953 41.766 376.163 334.6 40.4754 377.596 
340.486 39.4682 377.137 342.142 39.6463 376.191 342.153 40.072 376.74 
333.434 41.0204 378.252 333.596 41.3407 377.671 342.308 40.7048 377.429 
331.821 41.8058 378.878 342.393 41.0715 377.727 342.374 41.3308 377.89 
331.284 42.2416 379.089 330.817 42.2945 379.393 342.373 41.5324 378.207 
338.856 43.417 378.008 340.129 43.4434 378.343 341.253 43.0636 378.502 
330.686 42.0146 379.831 330.476 42.1366 379.875 332.385 41.3777 379.261 
341.834 40.6107 378.242 342.237 40.7633 378.031 342.406 40.9866 377.857 
342.395 41.0925 378.148 329.708 42.9012 379.975 329.202 42.8734 380.274 
[...]
POINT_DATA 650
SCALARS scalars float
LOOKUP_TABLE default
1 1 1 1 1 1 1 1 1 
1 1 1 1 1 1 1 1 1 
1 1 1 1 1 1 1 1 1 
1 1 1 1 1 1 1 1 1 
1 1 1 1 1 1 1 1 1 
1 1 1 1 1 1 1 1 1 
1 1 1 1 1 1 1 1 1 
1 1 1 1 1 1 1 1 1 
1 1 1 1 1 1 1 1 1 
1 1 1 1 1 1 1 1 1 
1 1 1 1 1 1 1 1 1 
1 1 1 1 1 1 1 1 1 
1 1 1 1 1 1 1 1 1 
1 1 1 1 1 1 1 1 1 
1 1 1 1 1 1 1 1 1 
1 1 1 1 1 1 1 1 1 
1 1 1 1 1 1 1 1 1 
1 1 1 1 1 1 1 1 1 
1 1 1 1 1 1 1 1 1 
1 1 1 1 1 1 1 1 1 
1 1 1 1 1 1 1 1 1 
1 1 1 1 1 1 1 1 1 
1 1 1 1 1 1 1 1 1 
1 1 1 1 1 1 1 1 1 
1 1 1 1 1 1 1 1 1 
1 1 1 1 1 1 1 1 1 
1 1 1 1 1 1 1 1 1 
1 1 1 1 1 1 1 1 1 
1 1 1 1 1 1 1 1 1 
1 1 1 1 1 1 1 1 1 
1 1 1 1 1 1 1 1 1 
1 1 1 1 1 1 1 1 1 
1 1 1 1 1 1 1 1 1 
1 1 1 1 1 1 1 1 1 
1 1 1 1 1 1 1 1 1 
1 1 1 1 1 1 1 1 1 
1 1 1 1 1 1 1 1 1 
1 1 1 1 1 1 1 1 1 
1 1 1 1 1 1 1 1 1 
1 1 1 1 1 1 1 1 1 
1 1 1 1 1 1 1 1 1 
1 1 1 1 1 1 1 1 1 
1 1 1 1 1 1 1 1 1 
1 1 1 1 1 1 1 1 1 
1 1 1 1 1 1 1 1 1 
1 1 1 1 1 1 1 1 1 
1 1 1 1 1 1 1 1 1 
1 1 1 1 1 1 1 1 1 
1 1 1 1 1 1 1 1 1 
1 1 1 1 1 1 1 1 1 
1 1 1 1 1 1 1 1 1 
1 1 1 1 1 1 1 1 1 
1 1 1 1 1 1 1 1 1 
1 1 1 1 1 1 1 1 1 
1 1 1 1 1 1 1 1 1 
1 1 1 1 1 1 1 1 1 
1 1 1 1 1 1 1 1 1 
1 1 1 1 1 1 1 1 1 
1 1 1 1 1 1 1 1 1 
1 1 1 1 1 1 1 1 1 
1 1 1 1 1 1 1 1 1 
1 1 1 1 1 1 1 1 1 
1 1 1 1 1 1 1 1 1 
1 1 1 1 1 1 1 1 1 
1 1 1 1 1 1 1 1 1 
1 1 1 1 1 1 1 1 1 
1 1 1 1 1 1 1 1 1 
1 1 1 1 1 1 1 1 1 
1 1 1 1 1 1 1 1 1 
1 1 1 1 1 1 1 1 1 
1 1 1 1 1 1 1 1 1 
1 1 1 1 1 1 1 1 1 
1 1 
NORMALS Normals float
-0.104669 0.086 -0.990782 -0.130964 -0.182356 -0.974472 -0.289215 0.0319771 -0.95673 
-0.161093 0.52204 -0.83757 0.0665104 -0.156943 -0.985366 0.0626276 -0.053754 -0.996588 
-0.0431751 0.560936 -0.826732 -0.0871401 0.314303 -0.945315 0.188381 0.357619 -0.91467 
0.37498 -0.135738 -0.917041 0.49005 0.231975 -0.840261 0.451473 0.484414 -0.749343 
-0.212047 0.388742 -0.896614 -0.129259 0.837906 0.530288 0.0343299 -0.355555 -0.934025 
-0.201138 0.274563 -0.940297 -0.0471103 -0.284954 -0.957383 -0.214392 0.58818 -0.779795 
0.162038 -0.285884 -0.944465 0.368153 -0.419996 -0.829498 -0.230649 0.377972 -0.896626 
-0.0419141 0.219583 -0.974693 -0.211412 0.314848 -0.925298 0.498129 -0.289291 -0.817422 
0.541577 -0.0317064 -0.840053 -0.160353 0.654755 -0.738635 -0.0940674 0.591832 -0.800554 
-0.143398 0.887754 -0.437413 -0.173414 0.691113 -0.701634 -0.154769 0.878856 -0.451286 
0.23195 0.689987 -0.685651 0.736835 0.412424 -0.535706 -0.0834339 0.856662 -0.509087 
0.466899 0.631105 -0.619445 -0.0356179 -0.338677 -0.940228 -0.216409 -0.0996868 -0.9712 
0.673945 -0.448713 -0.586903 -0.228682 0.888874 -0.396998 0.828561 -0.300017 -0.472733 
0.604797 -0.408119 -0.683857 0.764596 -0.0285057 -0.643879 0.956973 0.240022 -0.16307 
-0.22976 0.552005 -0.801561 -0.0798354 0.889927 -0.449061 -0.166787 0.929363 -0.329343 
-0.18207 0.774001 -0.606442 -0.23229 0.901961 -0.364017 -0.107611 0.989492 -0.0965727 
-0.180522 0.983355 0.0206012 0.824737 0.560061 -0.0783657 -0.108369 0.99403 0.012674 
-0.134034 0.983538 -0.121193 -0.152029 0.880755 -0.448505 0.0731235 0.825716 -0.559326 
0.0796356 0.962467 0.259453 0.577844 0.789262 -0.207753 -0.16653 -0.579777 -0.797575 
-0.491098 -0.0492331 -0.869712 -0.194341 -0.19562 -0.961231 0.21033 -0.553072 -0.806147 
-0.297948 0.0883713 -0.950483 -0.426435 0.609163 -0.668636 -0.366478 0.227932 -0.902076 
-0.285506 0.200312 -0.937209 -0.394802 0.709198 -0.584097 -0.164791 0.756175 -0.63328 
-0.174291 0.984694 0.0004153 0.95912 -0.144388 -0.243396 -0.151942 0.977488 -0.146392 
-0.22813 0.90588 0.356846 -0.26307 0.955314 0.134795 -0.304803 0.952415 0.000711618 
-0.124519 0.974821 0.184985 -0.231646 0.870525 0.434195 0.830061 0.557506 0.0136359 
-0.0255405 0.886564 0.4619 0.457436 0.780102 0.42684 0.444979 0.779958 0.440067 
0.727496 0.61626 0.301618 0.723894 0.689889 0.00551454 -0.261453 -0.478871 -0.838049 
-0.160531 -0.361548 -0.91843 0.107408 -0.572197 -0.813052 -0.4703 0.490405 -0.733704 
-0.434056 0.453084 -0.77866 -0.266512 0.916751 -0.297554 -0.357736 0.87829 -0.317226 
-0.220708 0.965239 0.140007 -0.275097 0.895733 -0.349263 -0.253383 0.948539 0.189921 
-0.200749 0.977145 0.069908 -0.17753 0.835703 0.519696 -0.0729226 0.804875 0.588947 
0.807048 0.491183 0.32774 0.361596 0.748904 0.555329 -0.442051 -0.452858 -0.774281 
-0.452032 -0.677752 -0.57993 -0.38778 -0.568809 -0.725316 -0.790468 -0.0698531 -0.608507 
-0.641117 -0.266951 -0.719518 -0.0474751 -0.730058 -0.681734 0.249167 -0.696918 -0.672474 
0.431419 -0.560626 -0.706807 0.569103 -0.614599 -0.546251 0.816539 -0.367266 -0.445397 
-0.665502 0.0606827 -0.743925 -0.591659 0.447181 -0.670797 -0.525197 0.088199 -0.846398 
-0.490966 0.848246 -0.198574 -0.544294 0.540016 -0.641971 -0.518026 0.608694 -0.60095 
-0.213331 0.971444 -0.103859 0.991054 0.128902 -0.0345733 -0.320458 0.9324 0.167143 
0.00388221 0.892293 0.45144 0.348041 0.722127 0.597829 0.056291 -0.743425 -0.666446 
-0.850855 -0.312755 -0.422172 -0.619265 -0.657596 -0.429042 -0.847857 -0.522923 -0.0876912 
-0.766134 -0.419685 -0.486727 0.488643 -0.685941 -0.539178 -0.777948 -0.113487 -0.617994 
-0.763283 0.2142 -0.609523 -0.604005 0.772738 -0.195073 -0.660833 0.734497 -0.154316 
0.757175 0.515015 0.401803 0.0813034 0.705571 0.70396 0.552602 0.605803 0.572394 
-0.648383 -0.665345 -0.37002 -0.357079 -0.756558 -0.547828 -0.106962 -0.786684 -0.608019 
-0.0805266 -0.763114 -0.641227 -0.912273 -0.40838 0.031379 0.547782 -0.528645 -0.648436 
-0.989036 0.0440868 0.140941 -0.88711 -0.0195971 0.461143 -0.77864 0.565624 -0.271643 
-0.612749 0.752448 0.241578 -0.465942 0.872308 0.148245 -0.300493 0.92893 0.216318 
-0.106496 0.927612 0.358042 -0.0895011 0.851089 0.517336 -0.744379 -0.66612 -0.0467324 
0.776095 -0.435444 -0.456142 0.878335 0.0269534 -0.477286 -0.949532 -0.0776463 0.303909 
0.97931 0.191513 -0.0653767 -0.509533 0.655055 0.557925 -0.789923 0.262403 0.554226 
-0.112176 0.793975 0.597512 -0.610564 -0.767861 -0.193909 -0.276696 -0.926565 -0.254786 
-0.866416 -0.499036 -0.0168948 -0.284679 -0.880101 -0.379974 -0.932959 -0.107632 0.343517 
-0.00276163 0.517465 0.8557 -0.387587 0.642019 0.661504 -0.196665 -0.823634 -0.53193 
0.272686 -0.711586 -0.647524 -0.650037 -0.746416 0.142531 0.584549 -0.563911 -0.583358 
0.996384 0.0442991 0.0725065 0.999228 -0.0136522 0.0368317 -0.793697 -0.439545 0.42053 
-0.707538 0.331112 0.624303 -0.287373 0.651199 0.702394 0.0207395 0.489415 0.871804 
0.744541 0.500545 0.441717 -0.262123 -0.844709 -0.466646 -0.571774 -0.671771 0.470955 
-0.551081 -0.612904 0.566267 -0.456063 -0.863124 0.21685 0.335892 -0.766044 -0.548045 
0.875179 -0.324694 -0.358659 -0.568688 -0.738597 0.362034 0.951676 0.25094 0.177038 
-0.7291 -0.532285 0.430215 -0.515305 -0.26542 0.81487 0.739415 0.541401 0.400187 
-0.651548 -0.147564 0.744117 -0.888744 -0.211292 0.406805 -0.461433 -0.00482781 0.887162 
-0.81256 0.188467 0.551568 0.621916 0.576571 0.529893 -0.290928 -0.950618 -0.108103 
-0.17418 -0.92602 -0.334885 0.591787 -0.667494 -0.451929 0.728749 -0.572532 -0.375676 
-0.420059 -0.416516 0.806266 0.938313 -0.276098 -0.20818 -0.601134 -0.238903 0.762603 
0.998685 -0.00958184 -0.0503607 -0.4091 0.175314 0.89549 0.625091 0.639878 0.447009 
-0.299399 0.297159 0.906673 -0.522525 -0.107617 0.845805 -0.471237 -0.0230745 0.881705 
-0.319983 0.387206 0.864686 -0.209026 0.518272 0.829278 0.117845 0.834807 0.537783 
0.760388 0.520301 0.388711 -0.198088 -0.89453 -0.40072 0.775889 -0.460847 -0.430832 
-0.529986 -0.462053 0.711071 -0.482429 -0.804409 0.346684 -0.413641 -0.0390369 0.909603 
0.805708 0.471854 0.358036 -0.373031 -0.905215 -0.203553 0.814451 -0.427381 -0.392447 
-0.553359 -0.111544 0.82544 0.996553 0.0821033 -0.0118596 0.0448335 0.807918 0.587587 
0.437246 0.71109 0.550606 0.707944 0.571641 0.41478 -0.229082 -0.935025 -0.270648 
-0.557702 -0.806347 0.196908 0.220245 -0.785703 -0.578068 -0.609928 -0.69054 0.388769 
-0.604666 -0.448608 0.658126 -0.314346 0.545336 0.777043 -0.263324 0.585255 0.766901 
-0.598912 -0.668401 0.441072 -0.57755 -0.762461 0.2917 0.999872 -0.00510248 -0.0151684 
-0.497355 -0.0222263 0.867262 0.839746 0.443834 0.312791 -0.275079 0.578538 0.76787 
-0.171015 0.772519 0.61153 -0.512008 -0.805701 0.297816 0.769357 -0.517966 -0.373898 
-0.513649 -0.163758 0.842228 0.984683 0.14891 0.09069 -0.543948 -0.0992164 0.833233 
-0.379635 0.293547 0.87733 -0.335834 -0.926038 -0.172246 0.212897 -0.87892 -0.42682 
0.0620087 -0.845325 -0.530642 0.54946 -0.674537 -0.493046 -0.602564 -0.328876 0.727157 
-0.638556 -0.514315 0.572473 0.998256 0.059038 0.000261553 -0.360101 0.185438 0.914298 
0.855093 0.417641 0.307232 0.64633 0.612048 0.455691 0.630876 -0.701782 -0.330905 
0.891478 -0.405221 -0.20264 0.972368 -0.216065 -0.0884105 -0.610814 -0.456969 0.646595 
-0.612769 -0.358523 0.704255 0.829292 0.472084 0.299017 -0.597474 -0.164215 0.784894 
0.911959 0.307354 0.271778 -0.0759507 0.705253 0.704875 0.419046 0.677796 0.604146 
0.089562 0.744179 0.661949 0.0623099 -0.900302 -0.430783 0.318459 -0.84031 -0.438707 
-0.542289 -0.731026 0.414155 0.9199 -0.391539 -0.0219181 0.9656 0.129576 0.225449 
-0.547356 -0.105225 0.830259 0.842441 0.307189 0.442638 -0.410945 0.277336 0.868452 
-0.205705 0.626675 0.751641 -0.226343 0.475729 0.849971 -0.0819762 0.514559 0.853528 
0.627779 0.623684 0.465737 0.67787 0.533928 0.505384 -0.332191 -0.93035 0.155238 
0.181575 -0.95938 -0.215916 0.537049 -0.796123 -0.278867 0.871868 -0.489705 0.00594317 
-0.547736 -0.79101 0.27256 -0.271385 -0.960419 -0.0628127 -0.452714 -0.754733 0.474793 
-0.508394 -0.733872 0.450519 -0.449448 -0.707662 0.54517 0.866013 0.209959 0.453805 
-0.554641 0.0141632 0.831969 0.465739 0.58011 0.668252 -0.235688 -0.964784 0.116802 
-0.287644 -0.695535 0.658401 0.199131 -0.957415 -0.209054 0.662905 -0.747728 -0.0382176 
0.495174 -0.864891 0.0822607 -0.427818 -0.503443 0.750677 -0.51863 -0.545205 0.658615 
0.780932 -0.4796 0.400163 0.434242 -0.309111 0.846099 0.411509 -0.756567 0.508199 
0.934314 -0.30924 0.177277 -0.555095 -0.456157 0.69555 -0.47488 -0.467446 0.745643 
0.495469 0.286485 0.820023 -0.310627 0.288357 0.905738 -0.48786 -0.0396879 0.872019 
-0.0195299 0.558655 0.82917 0.374243 0.528629 0.761901 0.610789 0.482334 0.627926 
-0.113812 -0.906301 0.407021 0.0514864 -0.947824 0.314609 0.152203 -0.981022 0.120126 
-0.348416 -0.20495 0.91466 -0.143155 -0.400254 0.905154 0.100605 -0.39662 0.912453 
0.260205 0.096272 0.960742 0.893096 0.106681 0.437034 -0.331002 0.100695 0.938242 
0.0357439 0.518528 0.854313 -0.0936434 0.24916 0.963925 0.0675975 0.309417 0.948521 
0.0568378 0.414291 0.908368 -0.247566 -0.50697 -0.825647 0.17017 -0.464984 -0.868811 
0.0189705 -0.89929 -0.436942 0.343372 -0.76362 -0.54679 -0.295452 -0.108998 -0.949119 
-0.312682 0.0347939 -0.949221 -0.183992 -0.0442971 -0.981929 0.067948 -0.365096 -0.928487 
0.599707 -0.144644 -0.787039 -0.281879 0.380254 -0.880881 -0.233664 0.265252 -0.935437 
0.40451 -0.221052 -0.887416 -0.00643783 0.386001 -0.922476 0.411049 0.440089 -0.798349 
0.102492 -0.989793 -0.0990215 -0.389701 -0.655991 -0.646381 0.407766 -0.807716 -0.425818 
-0.455621 -0.592606 -0.66425 -0.446883 -0.20229 -0.871421 0.79097 -0.342913 -0.506732 
0.654933 0.294653 -0.695875 0.897915 0.0998324 -0.428698 -0.509349 -0.0687688 -0.857808 
0.77774 0.206636 -0.593651 0.610904 0.594975 -0.522303 0.594945 0.552107 -0.584138 
0.597043 -0.695984 -0.39893 0.776907 -0.569435 -0.268625 0.366445 -0.929001 -0.0517198 
0.501907 -0.851637 0.151007 -0.340278 -0.920544 -0.191857 0.902719 -0.134767 -0.408578 
0.934041 -0.348653 -0.0775203 -0.543042 -0.676166 -0.497901 0.823495 0.3572 -0.440753 
-0.469602 0.297705 -0.831171 -0.158801 0.663267 -0.731341 0.190373 0.759792 -0.621671 
-0.213082 0.551225 -0.806689 -0.18146 0.664558 -0.724869 -0.111572 -0.99214 -0.0566513 
0.190044 -0.926871 0.323718 0.415072 -0.849351 0.326065 0.942104 -0.319482 -0.101835 
-0.59415 -0.0529377 -0.802611 -0.413102 0.417859 -0.809161 0.156133 0.779041 -0.607221 
0.692229 0.506234 -0.514341 -0.25045 0.606728 -0.754424 -0.00502722 -0.935632 0.352942 
-0.244191 -0.957414 0.154041 -0.557562 -0.72192 -0.409824 0.609117 -0.731912 0.305419 
0.830763 -0.555899 0.02845 0.797924 -0.571656 0.191119 -0.572309 -0.404521 -0.71332 
0.979907 -0.194002 -0.0463213 -0.595508 -0.189525 -0.780673 -0.459682 0.126629 -0.87901 
0.562869 0.715026 -0.414629 -0.402452 0.318969 -0.858075 0.163378 0.834722 -0.525876 
0.197615 -0.888402 0.414356 -0.601179 -0.63559 -0.484365 -0.589915 -0.717253 -0.370876 
-0.419545 -0.907165 -0.0321468 -0.478396 0.28416 -0.830897 -0.38573 0.350649 -0.85338 
-0.234626 0.589495 -0.772946 -0.0348086 0.749532 -0.661053 -0.297955 -0.947757 0.113927 
0.220965 -0.83411 0.505407 0.686417 -0.630302 0.362699 0.992328 -0.123509 -0.0056305 
-0.492323 -0.840818 -0.225041 -0.595151 -0.268786 -0.75733 0.969908 -0.0767576 -0.231057 
-0.552825 -0.664867 -0.502331 0.950315 0.17384 -0.258226 0.92408 0.240652 -0.296921 
-0.558002 -0.445783 -0.699937 -0.53968 -0.362554 -0.759802 0.881948 0.423086 -0.207764 
0.0781269 0.682088 -0.727084 0.24874 0.707884 -0.661081 0.42495 0.637747 -0.642414 
-0.507385 -0.783503 -0.358725 -0.531298 -0.680489 -0.504636 -0.344926 -0.935576 0.0756519 
0.390529 -0.733854 0.555828 0.825943 -0.419767 0.376316 0.966613 -0.25174 0.0478134 
0.976801 -0.098116 0.190351 -0.497632 -0.208525 -0.84195 -0.53112 -0.510468 -0.676265 
-0.538546 -0.14463 -0.83009 0.967318 0.250402 0.0399376 0.876985 0.446064 -0.178673 
0.937696 -0.0418768 0.344925 -0.484845 0.0669988 -0.87203 -0.178242 0.776526 -0.604348 
-0.00589637 0.880795 -0.473461 0.224028 0.85365 -0.470206 -0.412087 -0.910699 -0.0285068 
-0.22867 -0.938802 0.257606 -0.398184 -0.851065 -0.342255 -0.605158 -0.518886 -0.603772 
-0.593941 -0.331941 -0.732836 0.335823 -0.758124 0.558991 0.97369 -0.00427791 0.227836 
-0.626623 -0.351168 -0.695719 0.988187 0.151714 -0.0216481 -0.42059 0.233844 -0.876596 
0.648915 0.601325 -0.466173 -0.166087 0.6242 -0.763406 -0.465666 -0.866796 -0.17838 
-0.621039 -0.730034 -0.285238 -0.0596887 -0.825369 0.56143 -0.523027 -0.269181 -0.808693 
-0.564572 -0.825098 -0.0217252 -0.353958 -0.921999 0.156947 -0.263112 -0.925526 0.272348 
-0.113975 -0.888618 0.444262 -0.516976 -0.734489 -0.439616 -0.466933 -0.85984 -0.206518 
0.949548 -0.193815 0.246565 -0.493606 -0.422612 -0.7601 -0.472087 -0.181567 -0.862651 
-0.258028 0.294236 -0.920243 -0.353936 -0.000572017 -0.93527 0.574374 0.615869 -0.539259 
-0.333904 0.255546 -0.907306 -0.232462 0.414838 -0.879699 -0.0103944 -0.869148 0.494442 
0.350784 -0.798888 0.488599 0.518431 -0.637626 0.569792 -0.455219 -0.806648 -0.376954 
-0.425558 -0.894444 -0.137366 0.592843 -0.664301 0.455239 -0.512024 -0.687235 -0.515305 
0.995225 0.01827 -0.0958783 0.795348 0.431336 -0.425878 0.995109 -0.0982742 -0.0100496 
-0.238072 0.38808 -0.890346 -0.245032 0.455025 -0.856102 0.168427 0.787749 -0.592523 
0.627408 0.580838 -0.518639 0.380065 0.720042 -0.580594 -0.450288 -0.870035 -0.200697 
0.252351 -0.641229 0.724669 -0.331284 -0.933912 0.134383 0.224018 -0.671921 0.70593 
-0.313006 -0.939317 0.140394 -0.522023 -0.665535 -0.533437 0.669809 -0.561551 0.485815 
0.81972 -0.429391 0.379054 -0.553907 -0.724181 -0.41079 0.955999 0.246101 -0.159685 
0.89701 -0.363383 0.251645 -0.509391 -0.114478 -0.852887 -0.577703 0.302903 -0.757963 
-0.66929 -0.0314655 -0.742335 -0.459589 0.236032 -0.856193 -0.314108 0.464783 -0.827836 
0.539322 0.684029 -0.491158 -0.560041 -0.761769 -0.32567 0.345095 -0.665072 0.662261 
0.643721 -0.576845 0.502865 -0.614627 -0.78843 -0.0247406 -0.761255 -0.302177 -0.573743 
-0.852413 -0.401986 -0.334365 -0.828814 0.0380825 -0.558227 -0.649123 -0.375409 -0.661595 
-0.801203 0.203094 -0.562873 -0.177701 -0.932011 0.315876 -0.843779 -0.535167 0.0404178 
-0.0908308 -0.779842 0.619352 0.767786 -0.526722 0.364785 -0.942574 -0.159295 -0.293562 
0.842451 -0.478067 0.248452 0.991588 -0.0918923 0.0911545 0.904664 -0.270332 0.329398 
-0.959214 -0.0210678 -0.281896 -0.546245 0.467817 -0.694812 0.997333 0.0558542 0.0469836 
-0.593961 0.525047 -0.609537 -0.132755 0.695905 -0.705756 -0.155159 -0.843151 0.514803 
0.603678 -0.590776 0.535309 0.707032 -0.531353 0.466658 0.819066 -0.361566 0.445423 
-0.564054 0.56021 -0.606636 -0.3171 0.686242 -0.654614 0.722161 0.556886 -0.41032 
-0.662229 -0.697357 0.274128 -0.439334 -0.696207 0.567699 -0.929916 -0.322992 -0.175875 
-0.917969 0.074904 -0.389515 -0.795445 0.35065 -0.494279 -0.668076 0.668317 -0.32715 
-0.216565 0.808648 -0.546981 -0.44018 0.734764 -0.516104 -0.108325 0.798492 -0.59218 
0.304337 0.710207 -0.634811 0.902246 0.373308 -0.215852 0.801971 0.499742 -0.327262 
-0.90816 -0.388111 -0.156895 -0.36099 -0.71239 0.601819 -0.821287 -0.398456 0.408315 
-0.43061 -0.697892 0.572296 0.256337 -0.658152 0.707903 0.498176 -0.566872 0.656107 
-0.885965 0.437889 -0.152708 -0.839211 0.524114 -0.145017 0.962382 -0.162597 0.217675 
-0.722713 0.687973 -0.0661804 -0.361002 0.800692 -0.47809 -0.499463 0.857085 -0.12626 
-0.31895 0.862679 -0.392501 -0.273987 0.953469 -0.125811 -0.0099636 0.748453 -0.663114 
0.901517 0.421113 -0.0996584 0.520902 0.667851 -0.531635 -0.148224 -0.702807 0.695768 
-0.623753 0.00294059 0.781616 -0.742718 -0.0185403 0.669348 -0.284795 -0.564499 0.774747 
-0.777198 0.590538 0.217321 -0.717115 0.258658 0.64718 0.758398 -0.384551 0.526263 
0.877387 -0.259973 0.403244 0.942775 -0.102357 0.317331 -0.560317 0.743752 0.364525 
0.970441 0.225709 0.0854383 0.927623 -0.0844865 0.363838 -0.122297 0.925212 -0.359201 
-0.192918 0.956669 -0.218097 -0.189424 0.965929 -0.176354 0.942359 0.274562 -0.191246 
0.612464 0.588868 -0.527372 0.377392 0.711361 -0.592909 -0.0169943 -0.677409 0.73541 
-0.257075 -0.538471 0.802472 -0.0496943 -0.570153 0.820034 0.0114791 -0.660754 0.750515 
-0.379888 0.924029 0.0430747 -0.421633 0.632348 0.649893 0.915359 -0.252208 0.313861 
-0.302821 0.920101 0.248421 -0.184632 0.94472 -0.270953 -0.117806 0.931107 -0.345199 
-0.120968 0.927408 -0.353952 0.218731 0.781033 -0.584931 -0.110992 0.882946 -0.456166 
-0.197289 -0.40112 0.894528 -0.390724 -0.189335 0.900826 -0.191746 -0.558624 0.806953 
-0.349364 0.040239 0.936123 -0.0861491 -0.520855 0.849287 -0.302553 -0.132682 0.943852 
-0.362768 0.53737 0.761336 -0.257826 0.0800002 0.962874 0.549119 -0.554687 0.625132 
0.361731 -0.61837 0.697689 -0.269789 0.894659 0.356089 -0.34619 0.873586 0.342054 
0.975388 0.218057 -0.0327089 -0.145259 0.958989 -0.243393 -0.183055 0.980247 0.0748746 
-0.253798 0.91739 0.306565 0.686283 0.699873 -0.197973 0.0545589 0.955855 -0.28873 
-0.229223 -0.0837909 0.969761 -0.21044 -0.265368 0.940901 -0.0182036 -0.491492 0.870692 
-0.230737 -0.206124 0.950933 -0.219301 -0.121784 0.968027 -0.143111 -0.450701 0.881129 
-0.279701 0.16921 0.945058 -0.295157 0.455501 0.839882 0.812063 -0.425052 0.399855 
0.734236 -0.440293 0.516759 -0.468971 0.580805 0.66538 -0.291623 0.763901 0.575684 
0.904806 0.0715509 0.41977 -0.0955814 0.989158 -0.11149 -0.271682 0.9032 0.332292 
-0.281181 0.904906 0.319504 -0.277344 0.927663 0.250044 -0.30393 0.914402 0.267386 
-0.181744 0.978543 -0.0970761 -0.209464 0.957664 0.197495 -0.238492 0.967245 -0.0869417 
-0.08226 0.996585 -0.00722751 -0.0200976 0.997982 0.0602257 0.419156 0.907786 0.0152571 
-0.325093 0.347778 0.879412 -0.255137 -0.00325838 0.966899 -0.00420129 -0.465061 0.885269 
-0.259098 0.51263 0.818584 -0.222173 0.323927 0.919625 0.147084 -0.467649 0.871591 
0.480297 -0.462472 0.745275 -0.305066 0.676016 0.670774 -0.282338 0.342236 0.896192 
-0.240341 0.518311 0.820725 -0.194521 0.841056 0.504763 -0.0986752 0.386211 0.917117 
-0.32594 0.798885 0.505516 -0.28055 0.949041 0.143573 -0.173264 0.782184 0.598471 
-0.0803016 0.551144 0.830537 0.732811 0.15619 0.662264 -0.149093 0.932595 0.328692 
-0.0461649 0.822063 0.567522 0.0709601 0.732184 0.6774 0.16872 0.702143 0.691758 