# vtk DataFile Version 4.2
vtk output
ASCII
DATASET POLYDATA
POINTS 2455 float
334.523 74.4501 74.8132 334.511 74.4446 74.8182 334.541 74.4583 74.8055 
334.486 74.4332 74.8288 334.432 74.4076 74.8523 334.456 74.4196 74.8415 
334.366 74.3772 74.8804 334.368 74.3785 74.8794 334.525 74.451 74.8123 
334.449 74.4156 74.8451 334.468 74.425 74.8365 334.489 74.4348 74.8274 
334.456 74.4197 74.8414 334.487 74.4338 74.8284 327.735 72.2681 76.8282 
327.613 72.253 76.8468 331.903 73.1362 76.0155 332.502 73.4377 75.7405 
332.492 73.4293 75.7482 333.14 73.7694 75.4375 333.085 73.743 75.4616 
333.773 74.09 75.1441 333.609 74.0098 75.2176 334.182 74.2907 74.9601 
333.985 74.1963 75.0469 334.227 74.3142 74.9388 334.17 74.2867 74.9641 
334.217 74.3096 74.9431 327.902 72.2722 76.8241 329 75.0087 75.0174 
329 75.0087 75.0175 329 75.0088 75.0175 329 75.0088 75.0175 
331.249 72.8565 76.2706 332.501 73.4211 75.7557 332.939 73.6625 75.5353 
334.513 74.4455 74.8174 333.462 73.9335 75.2874 334.431 74.4069 74.853 
334.143 74.2694 74.9794 334.253 74.3254 74.9284 334.357 74.3735 74.884 
329 75.0088 75.0175 334.355 74.3714 74.8858 334.446 74.4147 74.846 
329.116 71.9147 77.134 329.657 72.2007 76.8697 330.334 72.2791 76.7983 
330.981 72.1923 76.881 331.944 72.3096 76.7689 332.659 72.3434 76.7263 
332.45 72.2133 76.8543 333.237 72.4787 76.5876 333.091 72.4307 76.6358 
333.696 72.5983 76.4654 333.586 72.5691 76.4952 334.037 72.6853 76.3761 
333.959 72.6658 76.3961 334.229 72.7328 76.3271 334.197 72.7251 76.335 
334.29 72.7476 76.3118 334.303 72.7506 76.3087 334.326 72.7561 76.3029 
326.516 72.1104 77.03 326.857 72.1431 76.9835 327.23 72.1846 76.9295 
327.324 72.1927 76.9141 331.491 72.5984 76.5074 332.044 73.1198 76.0307 
332.491 73.4126 75.7634 333.033 73.713 75.4891 333.37 72.5067 76.5587 
333.644 74.0258 75.203 333.797 72.623 76.44 333.921 74.1647 75.0758 
334.13 72.7081 76.3525 334.134 74.2689 74.9804 334.274 72.7436 76.3159 
327.562 72.2343 76.8696 328.49 72.2932 76.7995 329.438 72.3919 76.7007 
329 75.0087 75.0175 330.394 72.5731 76.5305 334.135 74.2674 74.9815 
325.78 71.9787 77.2047 329.511 71.5735 77.4431 332.537 71.2355 77.8176 
333.115 71.1274 77.938 333.455 71.1663 77.9018 333.655 71.2291 77.8377 
333.731 71.2576 77.8084 333.717 71.2511 77.815 333.739 71.2595 77.8064 
325.348 72.0132 77.2159 325.86 72.033 77.155 329.191 71.6419 77.3885 
329.85 71.4879 77.5284 330.587 71.4858 77.5362 331.251 71.7932 77.2565 
332.122 71.7377 77.3236 332.552 72.1891 76.8777 332.581 71.2933 77.7724 
332.896 71.1691 77.8976 332.99 72.3826 76.6839 333.254 71.0977 77.9754 
333.48 72.5359 76.5288 333.882 72.6454 76.417 333.688 71.2374 77.8294 
334.156 72.7147 76.3457 334.286 72.7466 76.3128 330.81 72.4756 76.6187 
327.999 70.9468 78.0724 329.329 70.7797 78.1983 330.186 70.7215 78.252 
325.625 71.9242 77.277 325.262 71.9647 77.2749 326.022 71.8635 77.2991 
326.605 71.7414 77.3716 327.151 71.562 77.5117 327.535 71.3819 77.6647 
332.825 70.7236 78.3351 333.591 70.3849 78.7522 333.904 70.1811 78.9911 
334.022 70.1281 79.0558 334.052 70.1043 79.0839 324.55 71.9979 77.325 
324.551 71.998 77.325 324.503 71.9989 77.3299 324.707 71.9953 77.3084 
324.699 71.9943 77.3107 325.106 71.9902 77.2668 324.921 71.9873 77.2912 
333.276 70.837 78.2557 333.435 71.0878 77.9865 333.587 71.1847 77.884 
333.697 71.2397 77.8268 324.556 71.9984 77.3238 324.712 71.9968 77.3065 
324.932 71.9958 77.282 325.32 72.003 77.2333 324.985 69.9168 79.4035 
325.034 69.9184 79.3908 324.081 69.7693 79.6969 325.882 70.0359 79.1595 
326.9 70.153 78.9312 328.012 70.3014 78.6985 327.894 70.2205 78.7817 
329.431 70.3156 78.6505 321.642 69.3662 80.5726 323.594 69.716 79.8325 
322.951 69.5471 80.1335 324.621 69.8746 79.4972 328.768 70.588 78.3931 
329.835 70.2942 78.6705 330.107 70.7178 78.27 330.474 70.4257 78.5558 
334.253 69.6147 79.6381 320.28 69.5491 80.6182 320.832 69.5453 80.5145 
320.702 69.5179 80.5714 321.657 69.5303 80.3763 321.218 69.5042 80.4881 
322.548 69.6051 80.1299 323.213 69.6727 79.939 324.027 69.7829 79.686 
324.986 69.9358 79.3795 325.982 70.1138 79.0722 327.126 70.3934 78.6807 
334.045 69.9228 79.2873 319.616 69.5644 80.7345 319.97 69.5553 80.6743 
320.341 69.5501 80.6061 324.557 71.9984 77.3238 321.174 69.5406 80.4541 
324.704 71.9958 77.3088 321.887 69.5465 80.315 325.051 71.9848 77.28 
333.382 70.2419 78.9219 328.634 70.2109 78.7503 329.241 70.2015 78.7558 
329.964 70.1582 78.8143 330.766 70.0569 78.9532 331.59 69.8583 79.2122 
332.357 69.5675 79.578 320.681 69.2388 80.9037 322.17 69.2301 80.6421 
323.347 69.6431 79.9576 322.011 68.8099 81.1736 328.952 70.2416 78.7101 
320.426 69.4303 80.7295 320.83 69.5168 80.548 320.512 69.2576 80.9208 
321.102 69.2044 80.8684 321.345 69.503 80.4661 326.426 66.9163 82.8559 
327.812 66.746 82.9594 329.039 66.8116 82.7944 325.979 67.0731 82.7062 
325.717 67.0805 82.729 326.59 67.0001 82.7211 327.359 66.9269 82.7265 
328.057 66.8998 82.6831 328.606 66.8977 82.6324 328.431 66.9169 82.6057 
333.259 68.2903 81.12 334.249 68.5135 80.9089 322.285 68.4318 81.585 
324.255 67.4669 82.453 325.179 67.2279 82.6167 329.127 70.2088 78.7421 
332.362 69.5369 79.6316 332.715 68.1196 81.304 332.91 68.7714 80.5418 
334.307 68.8277 80.5496 328.609 66.5562 83.1769 328.531 66.45 83.3271 
329.306 66.4771 83.2744 326.106 66.901 82.9137 327.162 66.6887 83.0899 
327.834 66.756 82.9364 327.358 66.6665 83.1 328.471 66.608 83.1123 
330.284 66.8512 82.7799 329.764 66.6922 82.9794 331.357 67.0953 82.5052 
332.175 67.2075 82.3973 333.786 67.9883 81.5115 334.183 68.2516 81.2153 
319.944 68.3548 82.0599 320.422 68.389 81.9426 320.998 68.3154 81.9355 
323.107 67.8782 82.1243 325.609 67.0371 82.7994 326.241 66.9961 82.7704 
328.553 66.9268 82.5736 332.04 67.459 82.0773 331.769 67.2697 82.3025 
332.705 67.8505 81.6284 333.667 68.2901 81.1393 332.349 67.6934 81.8035 
324.666 66.6091 83.4591 328.199 66.3796 83.4445 330.144 66.3706 83.4189 
332.667 66.3482 83.4856 338 66.0087 83.0174 338 66.0087 83.0175 
338 66.0088 83.0175 338 66.0088 83.0175 320.313 67.5625 82.9091 
322.582 67.0067 83.2309 323.412 67.0777 83.0385 327.666 66.5086 83.3015 
328.563 66.3751 83.4407 329.719 66.3514 83.449 329.843 66.6378 83.056 
330.368 66.5432 83.1904 332.403 66.9234 82.7579 332.927 67.0898 82.5722 
333.449 67.4956 82.0956 338 66.0088 83.0175 319.977 67.939 82.527 
320.139 68.1445 82.2687 321.542 68.0777 82.1299 321.991 67.0913 83.2091 
322.165 67.486 82.7252 332.382 66.9302 82.7497 332.002 65.6086 84.4366 
333.257 65.3882 84.6815 324.201 66.1299 84.1049 323.681 66.0576 84.2556 
324.753 66.1786 83.9873 325.5 66.2621 83.8107 331.386 65.9311 84.0098 
332.969 65.8123 84.145 333.382 65.5729 84.431 333.346 65.6497 84.3328 
333.58 65.6336 84.3405 333.664 65.6325 84.3375 338 66.0087 83.0175 
333.674 65.6308 84.339 320.184 67.5291 82.9643 322.43 66.6542 83.6792 
323.884 66.0622 84.2258 324.371 66.2019 83.9972 324.164 66.8942 83.168 
324.7 66.52 83.5655 333.051 66.9982 82.6918 333.162 65.6824 84.3004 
333.465 67.4054 82.2069 333.454 65.6308 84.351 333.796 67.7273 81.8279 
333.996 67.9291 81.5924 320.613 67.266 83.2061 321.158 66.9796 83.4594 
321.695 66.9071 83.4683 321.599 66.3708 84.1247 327.243 65.0996 85.2154 
328.12 65.096 85.1865 331.597 65.3308 84.8115 333.658 65.2264 84.8641 
334.001 65.1871 84.8872 333.906 65.1935 84.8867 334.198 65.1749 84.8867 
334.163 65.1776 84.886 334.261 65.1708 84.8868 334.273 65.1711 84.8853 
334.297 65.1694 84.8855 321.285 66.5686 83.9287 320.994 66.7693 83.7299 
323.116 66.0973 84.2785 324.287 65.8469 84.4589 324.639 65.33 85.094 
325.949 66.2374 83.805 326.266 65.0386 85.346 326.82 65.1628 85.1497 
326.699 66.0806 83.9552 327.378 65.6032 84.5414 331.12 65.639 84.401 
331.74 65.8474 84.12 331.504 65.2416 84.9387 333.764 65.1827 84.914 
333.522 65.6101 84.3743 334.096 65.1763 84.8937 333.633 65.6257 84.3479 
334.243 65.1713 84.8876 322.46 66.3518 84.0451 323.348 66.0235 84.3407 
323.632 65.2664 85.2679 326.231 64.5541 85.9901 329.403 64.2907 86.2407 
333.203 63.8401 86.9431 333.709 63.4843 87.4806 333.993 63.3206 87.7323 
322.472 65.8684 84.6352 322.883 65.6839 84.8202 326.494 64.9417 85.4605 
328.461 64.2937 86.2471 328.812 64.6725 85.7341 332.765 64.5683 85.873 
333.088 65.0265 85.191 333.437 65.14 85.0009 333.83 65.1804 84.9111 
334.118 65.177 84.8908 334.255 65.1716 84.8861 325.551 65.0066 85.4398 
324.997 64.4765 86.1583 328.364 63.6667 87.1071 330.786 63.7485 86.9982 
333.382 63.1882 87.9063 324.495 64.7385 85.8584 324.126 64.9462 85.6252 
328.651 64.0881 86.5225 330.246 64.141 86.4482 334.157 63.0762 88.1114 
326.901 64.2002 86.431 327.873 64.1048 86.5197 329.582 62.788 88.347 
325.942 64.0608 86.6546 329.9 63.1449 87.8304 329.669 63.2577 87.6686 
330.388 63.4044 87.4698 330.585 63.3239 87.5875 331.345 63.3454 87.5789 
333.685 62.9973 88.2078 334.229 62.8411 88.4776 324.429 64.7776 85.8155 
324.839 64.5526 86.0727 328.935 63.3317 87.5687 329.75 63.2627 87.6624 
333.546 63.0273 88.1584 333.534 63.2885 87.7653 333.757 63.1034 88.0529 
334.172 62.956 88.2988 329.071 62.6064 88.5764 328.99 62.6625 88.4975 
330.195 62.302 89.0831 330.866 62.0463 89.4939 332.927 62.4727 88.9631 
326.728 63.7815 87.0045 327.811 63.2175 87.7391 330.606 62.1455 89.3342 
330.471 63.3106 87.6036 331.31 61.9857 89.6082 331.152 63.3686 87.5413 
331.825 63.2863 87.6861 332.373 63.0998 87.9829 334.276 62.7439 88.6315 
334.288 62.5873 88.8752 334.328 62.647 88.7845 329.143 62.5696 88.6387 
330.02 62.0974 89.3711 331.809 61.6966 90.0859 328.466 62.775 88.3352 
328.242 62.886 88.178 328.792 62.6561 88.5135 331.99 61.8609 89.8408 
332.527 62.0713 89.5518 333.562 61.9361 89.8389 334.273 62.198 89.4834 
331.861 61.9604 89.6794 332.591 62.0439 89.5995 332.757 62.8693 88.3532 
330.336 61.8315 89.7693 330.939 61.7157 89.9908 331.588 61.5925 90.232 
332.535 61.4554 90.5163 333.046 61.4364 90.5841 334.322 61.7988 90.1146 
[...]
POINT_DATA 2455
SCALARS scalars float
LOOKUP_TABLE default
1 1 1 1 1 1 1 1 1 
1 1 1 1 1 1 1 1 1 
1 1 1 1 1 1 1 1 1 
1 1 1 1 1 1 1 1 1 
1 1 1 1 1 1 1 1 1 
1 1 1 1 1 1 1 1 1 
1 1 1 1 1 1 1 1 1 
1 1 1 1 1 1 1 1 1 
1 1 1 1 1 1 1 1 1 
1 1 1 1 1 1 1 1 1 
1 1 1 1 1 1 1 1 1 
1 1 1 1 1 1 1 1 1 
1 1 1 1 1 1 1 1 1 
1 1 1 1 1 1 1 1 1 
1 1 1 1 1 1 1 1 1 
1 1 1 1 1 1 1 1 1 
1 1 1 1 1 1 1 1 1 
1 1 1 1 1 1 1 1 1 
1 1 1 1 1 1 1 1 1 
1 1 1 1 1 1 1 1 1 
1 1 1 1 1 1 1 1 1 
1 1 1 1 1 1 1 1 1 
1 1 1 1 1 1 1 1 1 
1 1 1 1 1 1 1 1 1 
1 1 1 1 1 1 1 1 1 
1 1 1 1 1 1 1 1 1 
1 1 1 1 1 1 1 1 1 
1 1 1 1 1 1 1 1 1 
1 1 1 1 1 1 1 1 1 
1 1 1 1 1 1 1 1 1 
1 1 1 1 1 1 1 1 1 
1 1 1 1 1 1 1 1 1 
1 1 1 1 1 1 1 1 1 
1 1 1 1 1 1 1 1 1 
1 1 1 1 1 1 1 1 1 
1 1 1 1 1 1 1 1 1 
1 1 1 1 1 1 1 1 1 
1 1 1 1 1 1 1 1 1 
1 1 1 1 1 1 1 1 1 
1 1 1 1 1 1 1 1 1 
1 1 1 1 1 1 1 1 1 
1 1 1 1 1 1 1 1 1 
1 1 1 1 1 1 1 1 1 
1 1 1 1 1 1 1 1 1 
1 1 1 1 1 1 1 1 1 
1 1 1 1 1 1 1 1 1 
1 1 1 1 1 1 1 1 1 
1 1 1 1 1 1 1 1 1 
1 1 1 1 1 1 1 1 1 
1 1 1 1 1 1 1 1 1 
1 1 1 1 1 1 1 1 1 
1 1 1 1 1 1 1 1 1 
1 1 1 1 1 1 1 1 1 
1 1 1 1 1 1 1 1 1 
1 1 1 1 1 1 1 1 1 
1 1 1 1 1 1 1 1 1 
1 1 1 1 1 1 1 1 1 
1 1 1 1 1 1 1 1 1 
1 1 1 1 1 1 1 1 1 
1 1 1 1 1 1 1 1 1 
1 1 1 1 1 1 1 1 1 
1 1 1 1 1 1 1 1 1 
1 1 1 1 1 1 1 1 1 
1 1 1 1 1 1 1 1 1 
1 1 1 1 1 1 1 1 1 
1 1 1 1 1 1 1 1 1 
1 1 1 1 1 1 1 1 1 
1 1 1 1 1 1 1 1 1 
1 1 1 1 1 1 1 1 1 
1 1 1 1 1 1 1 1 1 
1 1 1 1 1 1 1 1 1 
1 1 1 1 1 1 1 1 1 
1 1 1 1 1 1 1 1 1 
1 1 1 1 1 1 1 1 1 
1 1 1 1 1 1 1 1 1 
1 1 1 1 1 1 1 1 1 
1 1 1 1 1 1 1 1 1 
1 1 1 1 1 1 1 1 1 
1 1 1 1 1 1 1 1 1 
1 1 1 1 1 1 1 1 1 
1 1 1 1 1 1 1 1 1 
1 1 1 1 1 1 1 1 1 
1 1 1 1 1 1 1 1 1 
1 1 1 1 1 1 1 1 1 
1 1 1 1 1 1 1 1 1 
1 1 1 1 1 1 1 1 1 
1 1 1 1 1 1 1 1 1 
1 1 1 1 1 1 1 1 1 
1 1 1 1 1 1 1 1 1 
1 1 1 1 1 1 1 1 1 
1 1 1 1 1 1 1 1 1 
1 1 1 1 1 1 1 1 1 
1 1 1 1 1 1 1 1 1 
1 1 1 1 1 1 1 1 1 
1 1 1 1 1 1 1 1 1 
1 1 1 1 1 1 1 1 1 
1 1 1 1 1 1 1 1 1 
1 1 1 1 1 1 1 1 1 
1 1 1 1 1 1 1 1 1 
1 1 1 1 1 1 1 1 1 
1 1 1 1 1 1 1 1 1 
1 1 1 1 1 1 1 1 1 
1 1 1 1 1 1 1 1 1 
1 1 1 1 1 1 1 1 1 
1 1 1 1 1 1 1 1 1 
1 1 1 1 1 1 1 1 1 
1 1 1 1 1 1 1 1 1 
1 1 1 1 1 1 1 1 1 
1 1 1 1 1 1 1 1 1 
1 1 1 1 1 1 1 1 1 
1 1 1 1 1 1 1 1 1 
1 1 1 1 1 1 1 1 1 
1 1 1 1 1 1 1 1 1 
1 1 1 1 1 1 1 1 1 
1 1 1 1 1 1 1 1 1 
1 1 1 1 1 1 1 1 1 
1 1 1 1 1 1 1 1 1 
1 1 1 1 1 1 1 1 1 
1 1 1 1 1 1 1 1 1 
1 1 1 1 1 1 1 1 1 
1 1 1 1 1 1 1 1 1 
1 1 1 1 1 1 1 1 1 
1 1 1 1 1 1 1 1 1 
1 1 1 1 1 1 1 1 1 
1 1 1 1 1 1 1 1 1 
1 1 1 1 1 1 1 1 1 
1 1 1 1 1 1 1 1 1 
1 1 1 1 1 1 1 1 1 
1 1 1 1 1 1 1 1 1 
1 1 1 1 1 1 1 1 1 
1 1 1 1 1 1 1 1 1 
1 1 1 1 1 1 1 1 1 
1 1 1 1 1 1 1 1 1 
1 1 1 1 1 1 1 1 1 
1 1 1 1 1 1 1 1 1 
1 1 1 1 1 1 1 1 1 
1 1 1 1 1 1 1 1 1 
1 1 1 1 1 1 1 1 1 
1 1 1 1 1 1 1 1 1 
1 1 1 1 1 1 1 1 1 
1 1 1 1 1 1 1 1 1 
1 1 1 1 1 1 1 1 1 
1 1 1 1 1 1 1 1 1 
1 1 1 1 1 1 1 1 1 
1 1 1 1 1 1 1 1 1 
1 1 1 1 1 1 1 1 1 
1 1 1 1 1 1 1 1 1 
1 1 1 1 1 1 1 1 1 
1 1 1 1 1 1 1 1 1 
1 1 1 1 1 1 1 1 1 
1 1 1 1 1 1 1 1 1 
1 1 1 1 1 1 1 1 1 
1 1 1 1 1 1 1 1 1 
1 1 1 1 1 1 1 1 1 
1 1 1 1 1 1 1 1 1 
1 1 1 1 1 1 1 1 1 
1 1 1 1 1 1 1 1 1 
1 1 1 1 1 1 1 1 1 
1 1 1 1 1 1 1 1 1 
1 1 1 1 1 1 1 1 1 
1 1 1 1 1 1 1 1 1 
1 1 1 1 1 1 1 1 1 
1 1 1 1 1 1 1 1 1 
1 1 1 1 1 1 1 1 1 
1 1 1 1 1 1 1 1 1 
1 1 1 1 1 1 1 1 1 
1 1 1 1 1 1 1 1 1 
1 1 1 1 1 1 1 1 1 
1 1 1 1 1 1 1 1 1 
1 1 1 1 1 1 1 1 1 
1 1 1 1 1 1 1 1 1 
1 1 1 1 1 1 1 1 1 
1 1 1 1 1 1 1 1 1 
1 1 1 1 1 1 1 1 1 
1 1 1 1 1 1 1 1 1 
1 1 1 1 1 1 1 1 1 
1 1 1 1 1 1 1 1 1 
1 1 1 1 1 1 1 1 1 
1 1 1 1 1 1 1 1 1 
1 1 1 1 1 1 1 1 1 
1 1 1 1 1 1 1 1 1 
1 1 1 1 1 1 1 1 1 
1 1 1 1 1 1 1 1 1 
1 1 1 1 1 1 1 1 1 
1 1 1 1 1 1 1 1 1 
1 1 1 1 1 1 1 1 1 
1 1 1 1 1 1 1 1 1 
1 1 1 1 1 1 1 1 1 
1 1 1 1 1 1 1 1 1 
1 1 1 1 1 1 1 1 1 
1 1 1 1 1 1 1 1 1 
1 1 1 1 1 1 1 1 1 
1 1 1 1 1 1 1 1 1 
1 1 1 1 1 1 1 1 1 
1 1 1 1 1 1 1 1 1 
1 1 1 1 1 1 1 1 1 
1 1 1 1 1 1 1 1 1 
1 1 1 1 1 1 1 1 1 
1 1 1 1 1 1 1 1 1 
1 1 1 1 1 1 1 1 1 
1 1 1 1 1 1 1 1 1 
1 1 1 1 1 1 1 1 1 
1 1 1 1 1 1 1 1 1 
1 1 1 1 1 1 1 1 1 
1 1 1 1 1 1 1 1 1 
1 1 1 1 1 1 1 1 1 
1 1 1 1 1 1 1 1 1 
1 1 1 1 1 1 1 1 1 
1 1 1 1 1 1 1 1 1 
1 1 1 1 1 1 1 1 1 
1 1 1 1 1 1 1 1 1 
1 1 1 1 1 1 1 1 1 
1 1 1 1 1 1 1 1 1 
1 1 1 1 1 1 1 1 1 
1 1 1 1 1 1 1 1 1 
1 1 1 1 1 1 1 1 1 
1 1 1 1 1 1 1 1 1 
1 1 1 1 1 1 1 1 1 
1 1 1 1 1 1 1 1 1 
1 1 1 1 1 1 1 1 1 
1 1 1 1 1 1 1 1 1 
1 1 1 1 1 1 1 1 1 
1 1 1 1 1 1 1 1 1 
1 1 1 1 1 1 1 1 1 
1 1 1 1 1 1 1 1 1 
1 1 1 1 1 1 1 1 1 
1 1 1 1 1 1 1 1 1 
1 1 1 1 1 1 1 1 1 
1 1 1 1 1 1 1 1 1 
1 1 1 1 1 1 1 1 1 
1 1 1 1 1 1 1 1 1 
1 1 1 1 1 1 1 1 1 
1 1 1 1 1 1 1 1 1 
1 1 1 1 1 1 1 1 1 
1 1 1 1 1 1 1 1 1 
1 1 1 1 1 1 1 1 1 
1 1 1 1 1 1 1 1 1 
1 1 1 1 1 1 1 1 1 
1 1 1 1 1 1 1 1 1 
1 1 1 1 1 1 1 1 1 
1 1 1 1 1 1 1 1 1 
1 1 1 1 1 1 1 1 1 
1 1 1 1 1 1 1 1 1 
1 1 1 1 1 1 1 1 1 
1 1 1 1 1 1 1 1 1 
1 1 1 1 1 1 1 1 1 
1 1 1 1 1 1 1 1 1 
1 1 1 1 1 1 1 1 1 
1 1 1 1 1 1 1 1 1 
1 1 1 1 1 1 1 1 1 
1 1 1 1 1 1 1 1 1 
1 1 1 1 1 1 1 1 1 
1 1 1 1 1 1 1 1 1 
1 1 1 1 1 1 1 1 1 
1 1 1 1 1 1 1 1 1 
1 1 1 1 1 1 1 1 1 
1 1 1 1 1 1 1 1 1 
1 1 1 1 1 1 1 1 1 
1 1 1 1 1 1 1 1 1 
1 1 1 1 1 1 1 1 1 
1 1 1 1 1 1 1 1 1 
1 1 1 1 1 1 1 1 1 
1 1 1 1 1 1 1 1 1 
1 1 1 1 1 1 1 1 1 
1 1 1 1 1 1 1 1 1 
1 1 1 1 1 1 1 1 1 
1 1 1 1 1 1 1 1 1 
1 1 1 1 1 1 1 1 1 
1 1 1 1 1 1 1 1 1 
1 1 1 1 1 1 1 1 1 
1 1 1 1 1 1 1 1 1 
1 1 1 1 1 1 1 1 1 
1 1 1 1 1 1 1 
NORMALS Normals float
0.0738709 0.586591 0.806507 -0.135135 0.812007 0.567788 -0.36288 -0.0846755 -0.927981 
0.200882 0.394302 0.896756 0.0655802 0.597295 0.799336 0.230254 0.342171 0.91099 
0.0843543 0.571967 0.815928 0.112776 0.531448 0.83955 -0.00696448 -0.671779 -0.740719 
-0.219292 -0.36956 -0.90296 -0.155997 -0.468513 -0.869575 -0.356575 -0.102775 -0.928596 
0.339967 0.121739 0.932525 -0.149825 -0.477863 -0.865563 0.00406206 -0.789613 -0.613592 
0.00406206 -0.789613 -0.613592 0.00165414 -0.675792 -0.73709 0.00284442 -0.677144 -0.735845 
0.00262703 -0.676923 -0.73605 0.00199974 0.672502 0.740093 -0.00348379 0.678327 0.734752 
0.0295224 0.642096 0.766056 0.00851457 0.665784 0.746096 0.0457896 0.622217 0.781505 
0.0235011 0.648889 0.76052 0.0397432 0.629515 0.775971 0.0393839 0.629998 0.775598 
0.0400966 0.629061 0.776321 0.00406206 -0.789613 -0.613592 0 -0.222396 -0.974956 
0 -1 0 -0.775537 -0.62746 0.0695381 0.775537 -0.62746 0.0695381 
0.000592212 -0.675656 -0.737217 -0.00299272 0.676917 0.736053 -0.0159407 -0.658202 -0.752673 
-0.408221 0.0275548 -0.912467 -0.0188222 -0.654531 -0.755801 -0.0257647 0.706289 0.707455 
0.0441466 0.624627 0.779675 0.0415867 0.627334 0.777639 -0.0398041 -0.629683 -0.775832 
0 0.529999 -0.847998 -0.0739471 -0.585789 -0.807083 -0.0638424 -0.598712 -0.798416 
-0.00721059 -0.668852 -0.74336 -0.00996383 -0.668467 -0.743675 0.00141957 -0.676273 -0.73665 
-0.00073361 -0.679691 -0.733498 0.010483 0.696477 0.717503 0.0102566 0.694354 0.71956 
0.00762392 0.698132 0.715929 0.0129062 0.689609 0.724067 0.00945276 0.695363 0.718596 
0.0200153 0.676384 0.736277 0.0120564 0.691869 0.721922 -0.0128462 -0.691793 -0.721981 
-0.0228015 -0.671294 -0.740841 -0.0251901 -0.666459 -0.745116 -0.00922406 -0.699505 -0.714568 
-0.0319385 -0.652042 -0.75751 -0.0364155 -0.642013 -0.765829 -0.0317939 -0.652084 -0.75748 
-0.0359228 -0.682718 -0.729799 -0.104375 -0.325086 -0.939907 -0.135645 -0.141435 -0.98061 
-0.087248 -0.413539 -0.906297 -0.000210237 -0.675542 -0.737321 0.00114137 -0.675252 -0.737586 
0.00138342 -0.675499 -0.73736 0.00136452 -0.675936 -0.736959 -0.0096947 -0.696002 -0.717974 
-0.0217241 -0.651034 -0.758738 -0.00810869 -0.700748 -0.713363 -0.0014492 0.676892 0.736081 
-0.0142178 -0.689175 -0.724455 -0.0421673 -0.626729 -0.778096 -0.0266377 -0.663567 -0.747643 
-0.0416448 -0.634797 -0.771556 -0.00721059 -0.668852 -0.74336 -0.00996383 -0.668467 -0.743675 
0 -0.329285 0.944231 0.00028142 -0.681024 -0.732261 -0.0420435 -0.626934 -0.777937 
-0.0708901 -0.682422 -0.727512 0.00798782 0.688278 0.725403 0.0276105 0.71827 0.695216 
-0.00997957 0.704744 0.709391 0.00661151 0.694572 0.719393 -0.0434108 0.745419 0.665181 
0.00539514 0.707848 0.706344 -0.00277589 0.718792 0.695219 -0.00837479 0.724118 0.689625 
-0.0728093 -0.671313 -0.737589 -0.0682322 -0.658066 -0.749862 -0.0266999 -0.719441 -0.69404 
-0.0100385 0.700073 0.714 -0.0124163 0.705881 0.708221 -0.0147986 0.699085 0.714885 
0.0301563 0.71625 0.697192 0.00725809 0.699231 0.714859 0.0736509 -0.648694 -0.757478 
-0.106169 -0.938844 -0.327568 0.00857696 0.696978 0.717041 0.00438609 -0.849783 -0.527115 
0.0161719 0.684179 0.729135 0.0153506 0.686625 0.72685 0.00316258 -0.726475 -0.687186 
0.0171841 0.683215 0.730016 0.0449788 -0.802162 -0.595409 -0.0151124 0.671143 0.741174 
-0.0236391 -0.694407 -0.719194 0.00485755 0.700442 0.713693 0.0255723 0.730724 0.682194 
-0.0702912 -0.696118 -0.714478 -0.0754519 -0.693561 -0.716436 -0.0604111 -0.692343 -0.719036 
0.0315694 0.684158 0.728651 -0.0275065 -0.682056 -0.730783 -0.0159352 -0.681545 -0.731602 
-0.0490838 0.724148 0.687896 0.00964086 -0.743934 -0.668184 0.0271386 -0.748294 -0.662812 
0.0271386 -0.748294 -0.662812 0.0271386 -0.748294 -0.662812 0.0931587 -0.176664 0.979853 
0.0991035 0.393656 0.9139 0.102699 0.300183 0.948337 -0.0841359 -0.714003 -0.695069 
-0.079651 -0.772358 -0.630174 -0.0828922 -0.677233 -0.731085 -0.0815938 -0.725002 -0.683897 
0.0290427 -0.725676 -0.687424 0.073219 -0.750785 -0.656476 -0.11765 0.799342 0.589246 
-0.00953922 0.728629 0.684842 -0.107534 -0.368155 -0.923525 -0.100093 -0.475268 -0.874129 
-0.0832329 -0.669809 -0.737854 0.0344422 0.835826 0.547913 0.202932 0.419246 0.884902 
0.16886 0.522389 0.83582 0.111916 0.717041 0.687988 0.243778 0.131154 0.960922 
-0.0876019 -0.595613 -0.798481 -0.053171 -0.669114 -0.741255 -0.0530534 -0.677305 -0.733787 
0.0116366 -0.671745 -0.740691 0.114819 0.758783 0.641144 0.313455 -0.492641 0.811819 
0.0951441 0.770082 0.63081 -0.0530916 -0.820818 -0.568717 0.0016846 0.68792 0.725784 
-0.00483043 -0.72881 -0.684699 0.00507782 -0.690128 -0.72367 0.00279409 0.730322 0.683098 
-0.00253458 -0.753834 -0.65706 0.148572 0.632614 0.760083 0.134863 0.701652 0.699641 
0.125415 0.754922 0.643711 0.134789 0.707011 0.694238 0.122217 0.750916 0.64899 
0.130041 0.712924 0.689078 0.262543 0.134488 0.955502 -0.0622937 -0.814044 -0.577453 
-0.123985 -0.657002 -0.743623 -0.0798542 -0.696285 -0.71331 -0.0523074 -0.698124 -0.714064 
-0.0309787 0.747768 0.663237 0.127846 0.748106 0.651147 -0.128755 -0.753853 -0.644304 
0.159588 0.537549 0.827993 0.0820939 0.737864 0.669938 -0.105425 -0.831974 -0.544707 
0.0807526 0.727039 0.681831 0.132702 0.712075 0.689448 0.0880099 0.399024 0.912707 
0.019271 -0.747621 -0.663846 -0.0390748 -0.684832 -0.727653 0.00378107 0.67454 0.738228 
0.00602834 -0.711148 -0.703016 0.0284011 -0.722111 -0.691194 -0.0120027 0.76299 0.646298 
0.0789107 0.799539 0.595408 0.118959 0.928261 0.352393 0.111972 0.760608 0.639482 
-0.0854909 -0.781282 -0.618296 0.118451 0.763861 0.634418 -0.0119767 -0.67858 -0.734429 
0.126028 0.755477 0.642939 0.124942 0.754154 0.644703 0.11544 0.976097 0.184141 
0.118451 0.763861 0.634418 -0.121331 -0.72674 -0.676113 -0.0262049 -0.745487 -0.666005 
-0.0418804 -0.856705 -0.514104 0.0145491 -0.827441 -0.561364 -0.0165298 -0.712474 -0.701504 
-0.0793016 -0.791078 -0.606554 -0.0790202 -0.818642 -0.568842 -0.0704831 -0.81631 -0.573297 
-0.0548353 -0.846387 -0.529737 -0.0437614 -0.9257 -0.375719 -0.0235137 -0.84862 -0.52848 
0.0204627 -0.765538 -0.643065 0.0323551 -0.756322 -0.653399 0.101646 0.765218 0.635696 
0.0881218 0.771974 0.629516 -0.0771307 -0.766884 -0.637134 0.00251219 -0.768665 -0.639646 
0.0536454 -0.745943 -0.663846 0.023248 -0.766188 -0.642196 0.0205425 -0.762451 -0.646719 
0.0341089 -0.755112 -0.654708 -0.021323 -0.829927 -0.557465 0.204178 -0.78078 -0.590503 
-0.0104533 -0.80945 -0.587095 -0.0639335 -0.806036 -0.588404 -0.0367079 -0.781587 -0.622716 
-0.0587165 -0.794054 -0.605005 -0.0593804 -0.797702 -0.600121 0.371526 -0.700553 -0.609257 
0.0165345 -0.804635 -0.593539 0.0144424 -0.816297 -0.577452 0.0351002 -0.814219 -0.579495 
-0.0219124 0.780524 0.624742 0.036013 -0.770336 -0.63662 0.036013 -0.770336 -0.63662 
0.11328 0.750472 0.651122 0.111259 0.753895 0.647505 0.109021 0.758484 0.642508 
0.088235 0.764787 0.638212 0.0795251 0.780212 0.620439 -0.0692277 -0.793435 -0.604705 
-0.0356604 -0.908416 -0.416543 0.0113516 0.75529 0.655292 0.0379229 -0.798111 -0.601315 
-0.0354582 0.778525 0.626611 0.0317397 -0.757087 -0.652543 0.0106168 0.754459 0.656261 
0.0707598 0.780073 0.621674 -0.0111115 -0.843509 -0.537 -0.00392014 -0.8158 -0.578322 
-0.0126775 0.787797 0.615805 0 -0.222396 -0.974956 0 -1 0 
-0.775537 -0.62746 0.0695381 0.775537 -0.62746 0.0695381 0.0885714 0.747327 0.658526 
0.0796614 0.773452 0.628829 0.0796614 0.773452 0.628829 0.0298313 0.797981 0.601944 
0.0162672 0.771916 0.635517 -0.00763381 -0.813171 -0.581975 -0.00383501 -0.797854 -0.602839 
-0.0421807 0.816767 0.575424 -0.00874208 0.783498 0.621333 0.0217112 -0.774253 -0.632504 
0.0235564 -0.770813 -0.636626 0 0.529999 -0.847998 0.0885714 0.747327 0.658526 
0.101278 0.746735 0.657365 0.106036 0.76376 0.636732 0.0844422 0.75711 0.647807 
0.090815 0.762773 0.640257 -0.0142771 0.782232 0.622824 0.00334286 0.805646 0.592387 
0.075565 0.795724 0.600927 -0.0683021 -0.787322 -0.612747 -0.0742708 -0.794629 -0.602535 
0.0629882 0.784082 0.617453 -0.0748229 -0.787628 -0.611591 -0.00385877 0.795824 0.605516 
0.0237337 0.781054 0.624013 0.0387656 0.791302 0.610196 0.0307238 0.791075 0.610948 
0.0360133 0.790793 0.611023 -0.032914 -0.791343 -0.610486 0 -0.329285 0.944231 
-0.0325884 -0.791841 -0.609857 0.0885714 0.747327 0.658526 0.080938 0.766436 0.637201 
0.0725904 0.783703 0.61688 0.067908 0.779033 0.623294 0.0881218 0.771974 0.629516 
-0.0732739 -0.775529 -0.627045 0.0253644 -0.780945 -0.624085 -0.0311507 -0.785832 -0.617656 
0.0264189 -0.776092 -0.630066 -0.0341606 -0.792382 -0.609068 0.036013 -0.770336 -0.63662 
0.00322509 -0.760723 -0.649069 0.11259 0.757633 0.642897 -0.0852403 -0.760878 -0.643272 
0.0897532 0.763735 0.63926 0.0843638 0.765516 0.637862 0.0268739 0.800918 0.598171 
0.0160573 0.804488 0.593752 -0.0159032 0.817435 0.575801 0.0536148 0.802973 0.593599 
0.0513401 0.801226 0.596155 0.0519668 0.801155 0.596196 -0.0520829 -0.815125 -0.576939 
-0.0528495 -0.829612 -0.555833 -0.05199 -0.776987 -0.627366 -0.0516805 -0.807096 -0.588154 
-0.0517477 -0.78624 -0.615751 -0.0852403 -0.760878 -0.643272 0.111472 0.759203 0.641236 
-0.0765621 -0.79322 -0.604103 -0.0672301 -0.790359 -0.608944 -0.0474729 -0.7874 -0.614612 
0.0584611 0.793539 0.605704 0.035495 0.796267 0.603903 0.0268739 0.800918 0.598171 
0.0461512 0.797313 0.6018 0.0308473 0.803514 0.594486 0.00255852 0.802247 0.596987 
0.00827123 -0.794681 -0.606971 -0.00955755 0.813314 0.581747 0.0531666 0.792276 0.607842 
0.0367721 0.789627 0.612484 0.0520671 0.797146 0.601538 -0.032914 -0.791343 -0.610486 
-0.0523077 -0.750376 -0.658938 0.0776029 0.770482 0.632721 -0.0823771 -0.780608 -0.619569 
0.0567699 0.778924 0.624543 0.0208771 0.798398 0.601768 0.00305383 0.805197 0.592999 
-0.00141272 0.828026 0.560688 -0.0284321 0.830711 0.555978 -0.0234221 0.835564 0.548893 
-0.0690409 -0.767548 -0.637262 0.0657514 0.779336 0.623147 0.0268739 0.800918 0.598171 
0.00457497 0.802895 0.596103 0.0116613 0.803082 0.595754 0.0165481 0.814152 0.580415 
0.0564122 0.801132 0.595823 0.0536148 0.802973 0.593599 0.0532264 0.793369 0.60641 
0.0513 0.807378 0.5878 0.0510768 0.800378 0.597316 0.0407039 0.791958 0.609217 
0.00810364 0.763162 0.646157 0.0182634 0.806797 0.590546 -0.00165792 0.809647 0.586915 
-0.0234442 0.825084 0.564523 -0.0224319 0.734023 0.678754 -0.0601821 -0.786003 -0.615286 
0.00729219 0.802617 0.59645 -4.92612e-05 0.808672 0.588259 0.0290125 -0.838527 -0.544087 
0.032095 0.802664 0.595567 0.0246774 0.803907 0.594243 -0.000873667 0.816095 0.577917 
0.0313979 0.795637 0.60496 -0.0025824 0.818578 0.57439 -0.00129731 0.815469 0.5788 
-0.00633552 0.814231 0.580507 -0.011127 0.817403 0.575958 0.00537332 0.881805 0.471583 
0.0289662 -0.835899 -0.548118 0.0316235 -0.839091 -0.543071 0.233378 -0.514697 -0.824998 
0.156163 -0.588392 -0.793353 0.00583002 0.812698 0.582657 -0.00217934 0.796131 0.60512 
0.0302914 -0.835756 -0.548265 -0.0406139 0.834617 0.549331 -0.0241987 0.832866 0.552946 
0.0730613 0.849763 0.522077 0.423875 -0.475724 -0.770725 0.423875 -0.475724 -0.770725 
0.0220165 -0.825837 -0.563479 -0.00504095 0.847139 0.531348 -0.0385569 0.839979 0.541247 
0.0166331 0.799354 0.600631 0.0175647 0.807144 0.590093 0.00209308 0.848889 0.528566 
0.0128625 -0.817821 -0.575329 -0.0328135 0.831502 0.554552 0.0164144 -0.812322 -0.582978 
0.0235768 -0.817276 -0.575764 -0.0300151 0.827632 0.560468 0.0378208 -0.839757 -0.541644 
-0.0361325 0.842164 0.538009 0.0278778 -0.840262 -0.541464 0.423875 -0.475724 -0.770725 
-0.0410552 0.8147 0.578427 0.0404146 -0.841591 -0.538602 0.0756268 -0.760356 -0.645089 
0.0806076 -0.755631 -0.650019 0.0806076 -0.755631 -0.650019 -0.0371235 0.839608 0.541923 
-0.039636 0.839624 0.541719 -0.0403972 0.840624 0.54011 -0.039011 0.841559 0.538754 
-0.0333735 0.838586 0.543746 0.0398814 -0.840452 -0.540416 -0.0312387 0.833692 0.551346 
-0.0570775 0.810761 0.582588 -0.0389986 0.833691 0.550853 0.0404146 -0.841591 -0.538602 
0.0391557 -0.842011 -0.538037 -0.0407336 0.844057 0.534704 0.0429845 -0.843201 -0.535878 
0.0220165 -0.825837 -0.563479 -0.0570775 0.810761 0.582588 0.0401092 -0.841177 -0.53927 
-0.0389755 0.84107 0.53952 0.0404605 -0.840164 -0.54082 -0.0406582 0.839934 0.541163 
-0.0422821 0.840531 0.540111 -0.0426052 0.842937 0.536323 -0.0388639 0.841177 0.539361 
-0.0426197 0.843063 0.536123 0.0429845 -0.843201 -0.535878 0 -0.970142 -0.242536 
0 -0.999201 -0.0399606 -0.184146 -0.982114 -0.0392772 0.184146 -0.982114 -0.0392772 
-0.0393324 0.84597 0.531778 -0.035085 0.845603 0.532657 -0.0526534 0.816533 0.574892 
0 0.996172 0.0874195 0.0393025 -0.842323 -0.537538 -0.0392209 0.845951 0.531816 
-0.0392856 0.845214 0.532982 -0.0416891 0.843783 0.535063 -0.0424091 0.8429 0.536397 
0.0423661 -0.843144 -0.536016 0.0429845 -0.843201 -0.535878 0 -0.986394 0.164399 
-0.0376878 0.845743 0.532258 -0.0293798 0.844673 0.534476 -0.0280168 0.845773 0.532807 
0.0553539 -0.904664 -0.422515 -0.270365 0.627485 -0.730181 0.191521 0.657946 -0.728304 
0.270365 -0.627485 0.730181 -0.0553539 0.904664 0.422515 -0.0282248 0.846207 0.532107 
0.0155811 -0.846695 -0.53185 -0.0326723 0.845023 0.53373 -0.0301206 0.844702 0.534389 
-0.191521 -0.657946 0.728304 0.0257004 -0.846523 -0.531732 -0.0237896 0.845898 0.532814 
0.026724 -0.846633 -0.531506 0.0257004 -0.846523 -0.531732 0.0232211 -0.846159 -0.532425 
0.0214279 -0.846068 -0.532645 0.176925 -0.547893 0.817625 0.0608723 -0.861873 0.503458 
0.0615609 -0.86056 0.505616 0.0574417 0.991094 -0.120138 0.0861095 0.996124 -0.0179692 
0.0661897 0.994023 -0.0868199 0.0669348 0.994025 -0.0862238 0.0801791 0.99616 -0.0351531 
-0.0471919 -0.986515 0.15672 -0.0343179 -0.97912 0.200365 -0.0632769 -0.992832 0.101396 
-0.0371313 -0.981008 0.190382 0.0463113 0.986151 -0.159254 0.0489567 0.987427 -0.150301 
-0.0536337 0.874537 -0.481984 -0.020925 0.924269 -0.381167 0.0852571 0.996232 -0.0158937 
0.0520478 0.989228 -0.13682 0.0562703 0.990933 -0.122006 -0.191339 0.492441 -0.849053 
-0.0310981 0.910272 -0.41284 -0.0846486 0.814374 -0.574134 -0.11484 0.741287 -0.66129 
-0.257086 0.0977883 -0.961428 -0.0078615 -0.957689 0.287697 -0.0027144 -0.952458 0.304658 
0.0279181 -0.914578 0.403446 -0.0398974 -0.982456 0.182175 -0.0290887 -0.975394 0.218539 
-0.281459 -0.261922 -0.923135 -0.0184299 -0.967227 0.253245 -0.253701 -0.68419 -0.683754 