# vtk DataFile Version 4.2
vtk output
ASCII
DATASET POLYDATA
POINTS 985 float
298.911 30.6456 107.874 299.364 30.4134 108.037 301.127 30.8328 107.842 
295.926 31.5188 107.613 295.502 31.8595 107.485 298.681 30.9817 107.748 
290.491 32.8697 108.178 295.942 32.4137 107.362 290.91 33.5136 108.002 
293.287 32.9856 107.506 298.187 32.606 107.541 291.797 33.608 107.725 
295.398 33.335 107.431 304.771 30.0803 108.551 305.435 29.5663 108.855 
297.016 30.2058 108.357 302.114 30.5086 108.108 305.224 30.7023 108.471 
292.718 31.7979 108.008 298.183 31.4484 107.625 301.115 31.4823 107.762 
301.312 31.9384 107.82 303.101 31.2716 108.108 290.106 33.4213 108.59 
300.07 32.7634 107.874 301.311 32.2367 107.882 301.599 32.4782 108.015 
290.194 33.8378 108.441 290.047 33.728 108.527 290.028 33.8428 108.538 
290.01 33.9915 108.643 296.38 34.0503 107.831 297.452 34.5332 108.404 
308.61 28.5942 109.828 309.676 28.9612 109.821 290.233 31.9123 109.252 
289.945 32.0802 109.426 305.403 31.0825 108.534 304.063 31.9546 108.402 
304.769 31.8665 108.515 289.775 34.6519 109.173 300.396 34.0013 108.613 
289.81 35.1619 109.552 290.743 35.2018 108.798 291.34 35.1662 108.545 
296.073 35.0156 108.536 301.677 34.1317 109.176 290.183 35.7486 109.449 
294.944 35.6258 109.08 295.281 35.3554 108.765 290.907 36.0114 109.305 
291.651 35.9243 109.187 292.227 36.0549 109.38 290.462 36.2818 109.785 
290.6 36.3076 109.605 290.606 36.1925 109.502 291.14 36.2525 109.599 
290.668 36.2994 109.549 310.755 28.1346 110.508 312.519 28.2349 111.067 
311.975 28.5485 110.663 312.388 28.5093 110.885 297.304 29.2545 109.299 
310.911 29.7232 109.96 311.738 29.2759 110.367 293.58 30.4032 108.962 
307.185 32.1784 109.461 289.328 33.8799 109.82 302.195 34.3285 109.708 
302.695 34.2454 109.677 297.471 35.2271 109.342 298.465 35.0882 109.689 
303.191 34.0854 109.675 290.421 36.3983 110.075 290.793 36.4178 110.058 
290.258 36.383 110.231 312.951 28.0754 111.521 312.171 29.3773 110.613 
312.542 29.1205 110.901 312.262 29.9382 110.806 289.096 32.3931 110.767 
311.95 31.3342 111.475 307.449 32.7842 110.116 288.906 33.9858 110.817 
307.838 32.985 110.625 309.06 32.8149 111.361 288.997 34.7816 111.286 
306.66 33.4311 110.7 307.945 33.1582 111.024 295.404 35.945 110.451 
291.798 36.453 110.355 290.655 36.4863 110.657 307.091 27.2109 110.901 
313.534 27.9578 112.437 290.264 29.9136 111.774 292.879 29.2486 110.849 
312.83 30.3945 111.625 307.598 33.4493 111.923 312.639 27.0214 112.307 
313.581 30.0967 112.755 309.167 33.0581 112.634 304.416 34.1568 111.93 
293.391 36.3265 111.757 289.806 35.9777 111.897 304.551 25.9715 113.037 
312.568 26.305 113.234 314.07 27.5757 113.549 288.609 30.3398 113.76 
314.55 29.0256 114.204 313.591 30.4681 113.3 312.628 31.4016 113.05 
307.484 33.4824 113.286 288.325 34.2739 113.398 288.321 34.3673 113.517 
300.976 34.6741 113.547 305.674 33.8598 113.147 298.72 35.1986 113.081 
311.664 25.5339 113.994 313.816 26.4373 114.239 314.598 26.6334 115.079 
314.475 27.671 114.183 288.904 29.1947 114.735 287.848 31.9514 114.323 
288.369 34.4285 113.649 297.648 35.2041 114.139 290.314 36.174 112.445 
314.842 29.1409 115.517 307.565 33.0443 115.693 311.505 32.097 114.734 
290.987 35.9808 113.947 315.19 26.4936 116.294 315.266 28.0624 116.152 
314.916 29.2297 116.219 295.897 34.9192 116.393 315.413 26.2976 116.932 
290.63 27.1059 116.523 309.985 31.9866 117.664 287.617 33.3522 117.145 
311.447 23.5967 118.048 315.664 26.9322 117.458 315.78 27.6084 118.406 
287.211 29.3403 117.905 314.734 29.5496 117.533 286.949 31.4341 117.886 
287.818 33.5443 117.997 314.928 24.1719 119.16 315.533 24.6756 119.322 
315.778 25.3824 118.715 287.115 28.9662 118.83 288.196 33.7273 118.554 
315.353 24.3908 120.312 287.523 27.2469 120.502 288.868 26.1199 120.503 
316.076 26.5845 119.974 316.02 27.2569 119.832 315.731 27.8982 119.79 
313.993 29.8575 119.15 314.828 23.7548 120.925 315.725 25.1677 121.043 
315.95 26.2523 120.75 315.725 27.5795 120.592 315.725 27.9015 120.247 
315.736 27.9732 120.114 315.703 27.9966 120.249 315.037 28.8232 119.731 
315.406 24.5055 122.114 315.236 24.1988 122.189 286.702 27.7611 121.93 
315.69 26.2701 122.013 315.564 28.0136 120.464 314.374 28.6163 121.658 
287.115 25.9243 123.527 288.134 25.51 122.739 286.663 26.8839 123.081 
286.424 27.584 123.008 315.395 26.5953 122.563 314.913 27.6394 122.349 
312.573 29.5666 122.158 314.68 23.8594 123.623 314.923 24.5579 123.835 
314.933 26.0319 123.863 312.243 22.0871 124.266 313.024 22.4465 124.659 
286.492 25.761 125.257 314.641 25.0992 124.641 286.22 26.7219 124.455 
285.751 27.1023 125.635 313.247 22.6903 125.469 313.619 23.4342 126.16 
287 24.9177 125.725 285.284 28.8948 127.189 311.679 27.8111 126.655 
311.225 21.4465 127.659 313.056 22.7375 126.646 290.014 22.1822 129.142 
312.624 23.2551 128.117 312.271 24.1741 128.985 312.145 24.8151 129.093 
284.877 28.6677 129.278 309.209 20.6708 129.411 310.977 21.682 129.643 
311.524 26.2445 129.037 310.028 27.1125 129.612 310.909 21.9248 130.501 
310.767 22.0931 130.964 311.186 23.212 130.869 284.864 24.4285 131.309 
311.692 25.5287 129.452 309.134 20.6722 131.424 284.727 23.9885 132.416 
285.303 23.1609 132.677 310.755 23.786 131.622 284.421 24.9322 131.952 
284.145 26.9389 132.127 284.303 27.6211 131.469 292.698 30.6364 131.962 
309.603 21.2351 132.252 309.939 22.3068 132.762 310.459 24.1828 131.918 
310.271 24.8308 131.854 284.181 27.4957 132.785 309.166 26.2085 131.807 
284.909 28.9418 133.078 301.543 19.1298 133.77 302.992 18.9622 134.479 
308.845 20.8864 133.1 286.008 21.9583 134.439 309.273 21.7696 133.611 
283.849 26.1685 133.846 284.234 28.1045 134.204 284.07 27.8867 134.754 
305.546 19.3484 134.553 306.415 19.6735 134.293 308.413 21.0866 134.337 
308.119 21.3684 135.155 308.188 22.1252 135.412 308.225 22.5811 135.424 
308.02 24.313 135.088 283.506 26.4521 136.477 284.064 27.8615 136.116 
284.477 28.403 135.598 285.367 29.0749 135.705 286.525 29.6169 135.404 
287.15 29.701 135.627 306.641 20.3977 136.515 284.84 21.9798 137.027 
307.599 21.7289 136.09 307.428 22.7824 136.489 283.447 24.4181 137.286 
307.924 23.5645 135.639 306.971 24.7675 135.923 306.422 20.8758 137.415 
284.307 22.3012 137.773 306.645 21.8027 137.52 306.22 22.1601 138.147 
304.54 25.6266 137.511 305.222 25.3498 137.181 283.283 26.6991 138.4 
301.77 26.6303 138.293 305.254 20.018 138.399 288.297 19.5762 139.352 
283.152 23.3904 139.386 306.79 23.3306 137.157 305.92 24.0303 137.787 
285.561 28.8028 137.785 284.285 21.3848 139.976 305.37 21.4092 139.384 
283.322 22.5168 140.121 283.034 22.6925 140.626 304.888 24.1182 139.008 
284.546 27.9701 139.443 300.977 18.1264 140.736 302.427 18.5945 140.731 
304.46 22.8876 140.441 282.607 24.4836 140.724 301.166 18.2094 141.833 
302.965 19.3563 141.496 303.683 20.6786 141.467 303.698 22.1414 141.653 
282.313 24.398 142.3 300.251 25.888 141.339 298.615 17.6368 143.51 
301.644 18.4886 142.08 282.186 22.3988 143.547 282.312 22.5964 142.668 
282.084 22.8965 143.209 303.182 22.6496 142.244 302.951 23.9324 141.565 
282.247 25.0638 143.685 282.669 25.8656 143.504 283.953 19.8972 144.424 
302.498 21.1922 143.505 302.199 21.7168 143.942 302.098 22.1655 143.919 
302.355 23.2403 142.922 301.656 23.8515 143.127 301.218 19.2566 144.474 
301.608 20.0058 144.481 301.491 22.8428 144.318 281.711 23.8495 144.901 
299.929 23.978 144.931 297.631 25.5373 144.635 283.507 19.5721 146.358 
282.917 20.0961 146.343 300.849 20.6724 145.888 281.456 21.9365 146.589 
281.416 22.4178 146.215 300.779 21.5538 145.95 299.263 23.9124 145.733 
285.428 27.1733 145.716 298.747 17.8413 146.139 298.692 17.9156 146.668 
284.256 18.9165 146.964 282.265 19.9798 147.902 300.214 21.721 146.545 
281.093 22.8974 147.158 300.507 22.0773 146.043 297.237 17.4299 147.739 
291.188 17.182 147.267 298.927 18.5912 147.533 299.307 20.2388 147.923 
280.829 21.5678 148.93 280.871 23.6087 148.114 299.225 22.8184 146.974 
295.786 17.154 148.957 298.257 18.1968 148.084 297.927 18.3909 148.909 
282.629 19.1701 149.325 283.36 18.5268 150.203 298.732 19.2384 148.501 
280.954 20.7486 149.686 280.639 23.7311 149.065 281.018 24.8076 149.5 
281.275 25.1075 149.719 296.859 17.6345 149.183 298.286 18.7595 148.822 
280.452 22.6162 149.459 280.486 23.8427 149.719 295.462 17.2768 150.47 
296.453 17.8656 150.49 297.521 19.2249 150.251 280.016 21.3868 151.452 
279.804 21.6264 151.84 282.542 25.9071 150.576 293.244 16.8097 151.055 
293.963 16.9762 151.862 296.318 18.3827 151.604 282.854 18.3361 152.576 
296.448 18.7623 151.773 279.987 20.7416 152.321 296.469 20.2908 152.147 
279.614 21.9911 152.333 281.791 25.5407 151.398 283.609 26.0497 152.215 
294.826 17.3095 151.959 295.842 18.0329 151.973 280.303 19.8731 153.274 
296.467 19.3654 152.048 296.307 21.1808 152.151 290.596 25.1503 152.73 
286.789 26.0036 152.396 295.201 18.1154 153.211 295.439 18.9988 153.514 
279.14 20.8844 154.704 279.233 21.3783 153.887 278.987 21.571 154.502 
293.885 17.3444 153.873 294.901 20.0362 154.39 295.182 21.0168 153.754 
278.866 22.5683 154.817 278.945 23.1992 154.927 294.536 21.6845 154.051 
279.236 24.2776 155.748 279.774 24.7471 155.881 280.392 25.0313 154.644 
293.845 17.5239 154.743 293.616 17.4406 154.781 279.498 19.9326 155.477 
294.379 19.0771 155.025 294.141 21.4515 154.691 280.606 25.0818 155.946 
293.663 17.7305 155.218 285.66 17.6085 155.817 279.698 19.6777 157.4 
281.734 18.7129 156.727 278.518 20.8973 156.935 278.327 21.105 157.254 
293.425 20.7348 155.927 279.837 24.7821 156.822 281.53 25.1877 156.231 
291.899 17.1055 156.675 291.647 17.129 156.59 292.079 17.1668 156.627 
290.302 17.3273 156.715 291.054 17.1795 156.522 279.035 20.1116 157.6 
278.639 20.4617 157.568 278.392 20.7007 157.899 292.425 20.9094 156.904 
278.076 23.1108 157.409 278.598 24.0275 157.499 282.182 24.9363 157.053 
280.667 24.9224 157.003 291.941 17.1222 156.835 291.809 17.1411 156.844 
[...]
POINT_DATA 985
SCALARS scalars float
LOOKUP_TABLE default
1 1 1 1 1 1 1 1 1 
1 1 1 1 1 1 1 1 1 
1 1 1 1 1 1 1 1 1 
1 1 1 1 1 1 1 1 1 
1 1 1 1 1 1 1 1 1 
1 1 1 1 1 1 1 1 1 
1 1 1 1 1 1 1 1 1 
1 1 1 1 1 1 1 1 1 
1 1 1 1 1 1 1 1 1 
1 1 1 1 1 1 1 1 1 
1 1 1 1 1 1 1 1 1 
1 1 1 1 1 1 1 1 1 
1 1 1 1 1 1 1 1 1 
1 1 1 1 1 1 1 1 1 
1 1 1 1 1 1 1 1 1 
1 1 1 1 1 1 1 1 1 
1 1 1 1 1 1 1 1 1 
1 1 1 1 1 1 1 1 1 
1 1 1 1 1 1 1 1 1 
1 1 1 1 1 1 1 1 1 
1 1 1 1 1 1 1 1 1 
1 1 1 1 1 1 1 1 1 
1 1 1 1 1 1 1 1 1 
1 1 1 1 1 1 1 1 1 
1 1 1 1 1 1 1 1 1 
1 1 1 1 1 1 1 1 1 
1 1 1 1 1 1 1 1 1 
1 1 1 1 1 1 1 1 1 
1 1 1 1 1 1 1 1 1 
1 1 1 1 1 1 1 1 1 
1 1 1 1 1 1 1 1 1 
1 1 1 1 1 1 1 1 1 
1 1 1 1 1 1 1 1 1 
1 1 1 1 1 1 1 1 1 
1 1 1 1 1 1 1 1 1 
1 1 1 1 1 1 1 1 1 
1 1 1 1 1 1 1 1 1 
1 1 1 1 1 1 1 1 1 
1 1 1 1 1 1 1 1 1 
1 1 1 1 1 1 1 1 1 
1 1 1 1 1 1 1 1 1 
1 1 1 1 1 1 1 1 1 
1 1 1 1 1 1 1 1 1 
1 1 1 1 1 1 1 1 1 
1 1 1 1 1 1 1 1 1 
1 1 1 1 1 1 1 1 1 
1 1 1 1 1 1 1 1 1 
1 1 1 1 1 1 1 1 1 
1 1 1 1 1 1 1 1 1 
1 1 1 1 1 1 1 1 1 
1 1 1 1 1 1 1 1 1 
1 1 1 1 1 1 1 1 1 
1 1 1 1 1 1 1 1 1 
1 1 1 1 1 1 1 1 1 
1 1 1 1 1 1 1 1 1 
1 1 1 1 1 1 1 1 1 
1 1 1 1 1 1 1 1 1 
1 1 1 1 1 1 1 1 1 
1 1 1 1 1 1 1 1 1 
1 1 1 1 1 1 1 1 1 
1 1 1 1 1 1 1 1 1 
1 1 1 1 1 1 1 1 1 
1 1 1 1 1 1 1 1 1 
1 1 1 1 1 1 1 1 1 
1 1 1 1 1 1 1 1 1 
1 1 1 1 1 1 1 1 1 
1 1 1 1 1 1 1 1 1 
1 1 1 1 1 1 1 1 1 
1 1 1 1 1 1 1 1 1 
1 1 1 1 1 1 1 1 1 
1 1 1 1 1 1 1 1 1 
1 1 1 1 1 1 1 1 1 
1 1 1 1 1 1 1 1 1 
1 1 1 1 1 1 1 1 1 
1 1 1 1 1 1 1 1 1 
1 1 1 1 1 1 1 1 1 
1 1 1 1 1 1 1 1 1 
1 1 1 1 1 1 1 1 1 
1 1 1 1 1 1 1 1 1 
1 1 1 1 1 1 1 1 1 
1 1 1 1 1 1 1 1 1 
1 1 1 1 1 1 1 1 1 
1 1 1 1 1 1 1 1 1 
1 1 1 1 1 1 1 1 1 
1 1 1 1 1 1 1 1 1 
1 1 1 1 1 1 1 1 1 
1 1 1 1 1 1 1 1 1 
1 1 1 1 1 1 1 1 1 
1 1 1 1 1 1 1 1 1 
1 1 1 1 1 1 1 1 1 
1 1 1 1 1 1 1 1 1 
1 1 1 1 1 1 1 1 1 
1 1 1 1 1 1 1 1 1 
1 1 1 1 1 1 1 1 1 
1 1 1 1 1 1 1 1 1 
1 1 1 1 1 1 1 1 1 
1 1 1 1 1 1 1 1 1 
1 1 1 1 1 1 1 1 1 
1 1 1 1 1 1 1 1 1 
1 1 1 1 1 1 1 1 1 
1 1 1 1 1 1 1 1 1 
1 1 1 1 1 1 1 1 1 
1 1 1 1 1 1 1 1 1 
1 1 1 1 1 1 1 1 1 
1 1 1 1 1 1 1 1 1 
1 1 1 1 1 1 1 1 1 
1 1 1 1 1 1 1 1 1 
1 1 1 1 1 1 1 1 1 
1 1 1 1 1 1 1 1 1 
1 1 1 1 
NORMALS Normals float
-0.0380337 -0.589833 -0.806629 0.130718 -0.266672 -0.954882 0.0632352 -0.273371 -0.959828 
-0.0859172 -0.515986 -0.852277 -0.130635 -0.292236 -0.947382 0.202959 -0.117307 -0.972135 
-0.502535 -0.232576 -0.832687 0.0680219 -0.0938419 -0.993261 -0.38912 0.277635 -0.878353 
-0.0843055 -0.228362 -0.969919 0.162629 0.208985 -0.964301 -0.200988 0.0741356 -0.976784 
-0.0342405 0.406174 -0.913154 -0.021845 -0.199354 -0.979684 0.174161 -0.435892 -0.882987 
-0.0674573 -0.548028 -0.833736 0.0701813 -0.472584 -0.878487 0.0578792 -0.00441501 -0.998314 
-0.200839 -0.482464 -0.85258 0.191644 -0.0837653 -0.977883 0.149661 -0.0397 -0.98794 
0.388657 0.0268038 -0.920992 0.21286 0.118626 -0.969855 -0.821602 -0.183855 -0.539599 
0.0880971 0.195982 -0.976642 0.0877467 0.288354 -0.953495 0.396635 0.274041 -0.876118 
-0.418221 0.191686 -0.88789 -0.724929 -0.168274 -0.667954 -0.892591 0.0444469 -0.448672 
-0.688499 0.313385 -0.654033 0.125206 0.511557 -0.850078 0.172547 0.688448 -0.704462 
0.126657 -0.325164 -0.937137 0.167611 -0.357588 -0.918715 -0.563419 -0.617314 -0.549074 
-0.729456 -0.483884 -0.483478 0.198147 0.0945871 -0.975598 0.186889 0.329947 -0.925315 
0.180961 0.227659 -0.956778 -0.745985 0.341205 -0.571914 0.165868 0.639788 -0.750439 
-0.812607 0.399144 -0.424681 -0.398562 0.473102 -0.785699 -0.179503 0.514615 -0.838421 
0.108001 0.656264 -0.746762 0.221927 0.655609 -0.721751 -0.585866 0.510674 -0.629264 
0.0472983 0.796737 -0.602473 0.0811671 0.787677 -0.610718 -0.144038 0.595937 -0.790008 
-0.00100987 0.747582 -0.664168 0.0938915 0.881772 -0.462237 -0.388486 0.863206 -0.322418 
-0.369403 0.861386 -0.348649 -0.491357 0.524399 -0.695395 0.151923 0.90791 -0.390665 
-0.0469978 0.900935 -0.431401 0.228931 -0.554056 -0.800383 0.5961 -0.237695 -0.76692 
0.420735 -0.289072 -0.859895 0.560024 -0.28962 -0.776204 -0.202734 -0.765793 -0.610295 
0.286695 0.179983 -0.940963 0.390396 -0.129084 -0.911553 -0.195758 -0.689042 -0.697782 
0.323286 0.537311 -0.778963 -0.912165 0.137665 -0.38601 0.184583 0.97154 -0.148457 
0.234922 0.860107 -0.452801 0.192745 0.837498 -0.511319 0.207793 0.959984 -0.187758 
0.280208 0.937136 -0.207988 -0.195482 0.948133 -0.25066 0.010596 0.988146 -0.153154 
-0.604622 0.778094 -0.170299 0.756028 -0.175978 -0.630439 0.549705 0.00525389 -0.835342 
0.694313 -0.00531742 -0.719654 0.575357 0.278413 -0.769058 -0.843942 -0.363263 -0.394718 
0.490204 0.634961 -0.597097 0.339921 0.679349 -0.650338 -0.944285 0.0146344 -0.328802 
0.342813 0.785145 -0.515777 0.407117 0.856928 -0.316117 -0.899261 0.358507 -0.250606 
0.252544 0.845908 -0.469745 0.196395 0.91959 -0.340269 0.214814 0.958492 -0.18748 
0.0804683 0.981408 -0.17425 0.00313837 0.999818 -0.0188404 0.0196723 -0.739453 -0.672921 
0.834696 -0.0625557 -0.547146 -0.523199 -0.737158 -0.427622 -0.298712 -0.839373 -0.45412 
0.795932 0.300687 -0.525433 0.221853 0.960279 -0.169249 0.356547 -0.726852 -0.586993 
0.810322 0.416928 -0.411765 0.332889 0.937987 -0.0967723 0.218824 0.9692 0.112996 
0.141734 0.987427 0.0699918 -0.667273 0.740677 0.0783845 -0.100788 -0.868094 -0.486061 
0.455364 -0.715213 -0.530202 0.756904 -0.39338 -0.52187 -0.853537 -0.378229 -0.358354 
0.915357 0.0741118 -0.395764 0.801113 0.552593 -0.22991 0.698529 0.70936 -0.094151 
0.241258 0.970166 0.0239267 -0.999461 -0.0320785 0.00704949 -0.961961 0.270963 0.0347979 
0.259369 0.937614 0.231532 0.173251 0.982635 0.0664251 0.213853 0.964802 0.153051 
0.14236 -0.867588 -0.476471 0.598243 -0.625179 -0.501255 0.817548 -0.382632 -0.430358 
0.860444 -0.242283 -0.448257 -0.718966 -0.595979 -0.357627 -0.9713 -0.0255378 -0.236483 
-0.924464 0.367106 0.102951 0.20387 0.964347 0.168735 -0.248413 0.952392 0.176749 
0.854498 0.46591 -0.229699 0.142207 0.960667 0.238528 0.456384 0.887792 0.0594938 
-0.234678 0.938424 0.253548 0.874946 -0.226818 -0.427812 0.943586 0.107667 -0.313136 
0.883899 0.451563 -0.121709 0.204794 0.921172 0.330911 0.876491 -0.392667 -0.278524 
-0.388178 -0.83595 -0.387951 0.250168 0.92436 0.288055 -0.831171 0.551682 -0.0692981 
0.17348 -0.936327 -0.305281 0.987532 -0.0531023 -0.148195 0.986595 0.149931 -0.0644246 
-0.89353 -0.331301 -0.303057 0.680935 0.732257 0.01126 -0.991573 0.114924 -0.0597922 
-0.75658 0.632881 0.164464 0.562779 -0.750256 -0.34698 0.817326 -0.546305 -0.183109 
0.919718 -0.327447 -0.216559 -0.786493 -0.517377 -0.337268 -0.668751 0.735418 0.109238 
0.869138 -0.493631 -0.0304634 -0.688787 -0.651576 -0.317837 -0.563089 -0.739955 -0.367964 
0.997968 -0.0545976 0.0328366 0.970208 0.181583 0.160385 0.862281 0.503704 -0.0524837 
0.591619 0.796624 0.124005 0.617417 -0.782754 -0.0780485 0.931577 -0.361794 0.0356364 
0.994632 0.0172243 0.102036 0.89566 0.305215 0.323477 0.959372 0.150514 0.238644 
0.854847 0.518876 -0.00206094 0.732208 0.654471 0.188518 0.715505 0.691884 0.0966928 
0.935942 -0.306048 0.174202 0.820045 -0.565398 0.088607 -0.850752 -0.423798 -0.310831 
0.961278 0.0933233 0.259299 0.751712 0.502185 0.427481 0.63066 0.67251 0.387296 
-0.777797 -0.56033 -0.284715 -0.41082 -0.828694 -0.380122 -0.900267 -0.411421 -0.142311 
-0.950502 -0.258926 -0.171768 0.895928 0.244119 0.371105 0.813168 0.433687 0.388168 
0.51289 0.762129 0.395099 0.808884 -0.512138 0.288829 0.914053 -0.193844 0.356275 
0.811075 0.275354 0.516079 0.342648 -0.933817 -0.10285 0.60442 -0.796597 -0.0104616 
-0.774276 -0.587193 -0.236011 0.812692 -0.0267214 0.58208 -0.90089 -0.293275 -0.319978 
-0.929437 -0.287906 -0.230773 0.79452 -0.606002 0.0387253 0.894472 -0.242619 0.375574 
-0.676862 -0.687274 -0.263652 -0.97574 0.0465115 -0.213937 0.196724 0.853432 0.482653 
0.507813 -0.861125 -0.02427 0.683542 -0.699803 0.207473 -0.363685 -0.864316 -0.347407 
0.8983 -0.168383 0.405838 0.857864 -0.0342647 0.512734 0.865347 0.144506 0.479888 
-0.968634 0.15631 -0.193172 0.388066 -0.920463 -0.0464093 0.542994 -0.810211 0.220716 
0.618186 0.614058 0.490692 0.503025 0.705099 0.499801 0.778535 -0.50916 0.366932 
0.727352 -0.51 0.459194 0.867876 -0.119547 0.482182 -0.837387 -0.444096 -0.318687 
0.765203 0.29184 0.573842 0.365122 -0.928613 0.0660601 -0.800147 -0.535051 -0.271081 
-0.631426 -0.685887 -0.361746 0.842763 0.052545 0.535713 -0.956375 -0.207675 -0.205471 
-0.991988 -0.0353305 -0.121291 -0.876654 0.480573 0.0229452 0.0922019 0.981405 0.168356 
0.720153 -0.639992 0.267936 0.83384 -0.182294 0.521037 0.703581 0.194613 0.683447 
0.65523 0.389913 0.647025 -0.967659 0.241401 -0.0732303 0.451053 0.652956 0.608441 
-0.722104 0.691668 0.012693 -0.00529755 -0.949762 -0.312927 0.143525 -0.97244 -0.183743 
0.515202 -0.806424 0.290254 -0.402663 -0.872561 -0.276587 0.825106 -0.241212 0.510898 
-0.98875 0.00281026 -0.149548 -0.911849 0.39861 -0.0981875 -0.886743 0.452055 -0.0966089 
0.293849 -0.944882 -0.1444 0.388462 -0.921404 -0.0105882 0.651982 -0.662585 0.368648 
0.873473 -0.285843 0.39413 0.81746 -0.100283 0.567188 0.87712 -0.0466048 0.478005 
0.766071 0.460104 0.44882 -0.974542 0.14184 -0.173636 -0.770954 0.633232 0.0681755 
-0.674306 0.737646 0.0344967 -0.523943 0.83946 0.144189 -0.252304 0.955079 0.155457 
-0.0653534 0.948787 0.309083 0.696818 -0.610031 0.377237 -0.749526 -0.594488 -0.291196 
0.786881 -0.165882 0.594392 0.768151 0.116653 0.629552 -0.959113 -0.166941 -0.228546 
0.742106 0.146438 0.65409 0.629365 0.63971 0.441215 0.786851 -0.319011 0.528296 
-0.722283 -0.607855 -0.329877 0.830238 -0.159933 0.533972 0.789643 -0.0136009 0.613416 
0.443231 0.810136 0.383702 0.603709 0.628538 0.490383 -0.943246 0.318199 -0.095057 
0.375032 0.863965 0.33603 0.747241 -0.475104 0.464657 -0.305613 -0.92064 -0.242946 
-0.873591 -0.346468 -0.341758 0.76507 0.226082 0.602955 0.681307 0.457572 0.571357 
-0.313664 0.907201 0.280358 -0.665712 -0.676476 -0.314972 0.839055 -0.0608817 0.540629 
-0.845639 -0.421975 -0.326852 -0.866961 -0.399498 -0.297961 0.673221 0.425569 0.604702 
-0.506762 0.847223 0.159391 0.107506 -0.990388 -0.0870267 0.555079 -0.809756 0.190218 
0.736273 0.304929 0.604086 -0.962928 -0.125095 -0.238999 0.38252 -0.91909 0.0946201 
0.769566 -0.586826 0.2518 0.837386 -0.255535 0.483205 0.802486 0.134957 0.581208 
-0.973627 0.080473 -0.213481 0.435762 0.790255 0.430823 0.140997 -0.986973 -0.0774819 
0.554237 -0.804819 0.212338 -0.899251 -0.383787 -0.209894 -0.886746 -0.355077 -0.295977 
-0.974631 -0.0858322 -0.206705 0.79303 0.195139 0.577083 0.641337 0.562212 0.522115 
-0.948454 0.287303 -0.133761 -0.890679 0.434898 -0.132492 -0.674112 -0.674464 -0.301116 
0.847819 0.0690999 0.525764 0.808867 0.108091 0.577971 0.788565 0.303241 0.534986 
0.705145 0.465577 0.534798 0.597368 0.602843 0.528897 0.741125 -0.525974 0.417236 
0.801009 -0.336939 0.49483 0.641254 0.481113 0.597765 -0.979442 0.0979585 -0.176345 
0.614285 0.605553 0.505924 0.298374 0.868197 0.396494 -0.536134 -0.818735 -0.205507 
-0.684413 -0.683074 -0.254931 0.808547 -0.159546 0.566389 -0.886885 -0.374881 -0.269998 
-0.924934 -0.178066 -0.335842 0.801225 0.207105 0.561379 0.548529 0.634229 0.544858 
-0.115035 0.981732 0.151557 0.544455 -0.817273 0.188768 0.631164 -0.731696 0.257396 
-0.484592 -0.850399 -0.204919 -0.645511 -0.690617 -0.326135 0.698761 0.321189 0.639196 
-0.972167 -0.0935863 -0.214783 0.73001 0.425235 0.535033 0.392582 -0.904779 0.165087 
-0.140725 -0.988003 -0.0636132 0.722982 -0.589502 0.360257 0.790502 0.0438777 0.610886 
-0.899226 -0.285545 -0.331446 -0.970334 0.0556782 -0.235269 0.609812 0.539912 0.580193 
0.263202 -0.960663 0.0886022 0.642086 -0.677382 0.358997 0.634403 -0.634369 0.441711 
-0.608319 -0.751283 -0.255971 -0.282507 -0.935143 -0.213768 0.798308 -0.412317 0.438975 
-0.829027 -0.50017 -0.250089 -0.95324 0.0460754 -0.298681 -0.828212 0.560376 0.00656931 
-0.680013 0.732593 0.0298351 0.496211 -0.739026 0.455648 0.693432 -0.509237 0.509735 
-0.950626 -0.0935436 -0.295904 -0.921118 0.353949 -0.162054 0.453728 -0.863497 0.220236 
0.631633 -0.689712 0.354031 0.822802 -0.228647 0.520306 -0.904189 -0.200326 -0.377242 
-0.955499 -0.0852148 -0.282418 -0.288979 0.957198 0.0162364 0.0462464 -0.995574 0.08181 
0.249979 -0.965273 0.0758831 0.698835 -0.616793 0.362209 -0.478317 -0.86634 -0.143762 
0.847742 -0.335689 0.410665 -0.827105 -0.515787 -0.223296 0.883965 0.0291027 0.466646 
-0.923507 0.0570046 -0.379322 -0.497953 0.866993 0.0191465 -0.0941495 0.986114 0.136802 
0.446773 -0.876292 0.180295 0.702904 -0.570137 0.425289 -0.657452 -0.741833 -0.132061 
0.872902 -0.212825 0.43903 0.774912 0.326483 0.541222 0.438449 0.823458 0.360111 
0.089582 0.970582 0.223484 0.682391 -0.525837 0.507778 0.771799 -0.26452 0.578235 
-0.915527 -0.369732 -0.158457 -0.872427 -0.367845 -0.321808 -0.945589 -0.132596 -0.297118 
0.0934977 -0.986828 0.132015 0.771413 -0.0205907 0.636002 0.758262 0.440594 0.480537 
-0.943843 0.0437434 -0.327486 -0.937343 0.175519 -0.300967 0.692062 0.551638 0.465559 
-0.776684 0.620223 -0.109938 -0.453196 0.891381 0.00732662 -0.462769 0.883068 -0.077686 
0.651176 -0.659317 0.37586 0.444529 -0.832479 0.330715 -0.787151 -0.59728 -0.153786 
0.784505 -0.115615 0.60925 0.657734 0.440972 0.61068 -0.203074 0.969564 0.136769 
0.664832 -0.465212 0.584445 -0.179813 -0.973517 0.141182 -0.451843 -0.892055 -0.00872167 
-0.342901 -0.918768 0.195665 -0.818655 -0.506191 -0.271247 -0.943484 -0.233745 -0.234949 
0.716076 0.100285 0.690781 -0.342351 0.924692 0.166553 0.0120416 0.990319 0.138285 
0.0481216 -0.995707 -0.0790712 -0.152688 -0.976256 -0.153656 0.493027 -0.869144 0.038903 
-0.158314 -0.788992 0.593657 -0.0717207 -0.990454 0.117715 -0.592387 -0.795755 -0.125905 
-0.750157 -0.632725 -0.192156 -0.823294 -0.554667 -0.120544 0.609007 0.300737 0.733939 
-0.949289 0.3008 -0.0914825 -0.67765 0.727132 -0.109865 0.280857 0.887915 0.364315 
-0.163743 0.950124 0.265428 0.416935 -0.892915 0.169907 -0.342792 -0.90672 0.245667 
0.5368 -0.341764 0.771391 0.492477 -0.456268 0.741138 -0.105566 -0.619156 0.77814 
-0.122525 -0.347707 0.929563 0.0621672 -0.639382 0.766372 0.20277 -0.444593 0.87248 
0.588394 -0.54114 0.6008 0.69723 -0.164436 0.697733 0.324529 -0.276877 0.904445 
-0.313869 -0.938481 0.144015 -0.144839 -0.857572 0.49355 0.489857 -0.26879 0.829332 
-0.682377 -0.723553 0.104085 -0.857936 -0.500231 -0.117114 0.568531 0.0826633 0.818498 
-0.994128 -0.106288 -0.0202911 0.532502 0.547565 0.645457 0.0209533 0.918648 0.394522 
0.287477 0.841275 0.457836 0.138454 0.876075 0.461869 -0.655174 0.74966 -0.0935711 
-0.187422 0.952457 0.240206 -0.255243 0.966871 0.00332512 -0.0996956 -0.892133 0.440636 
0.53615 -0.308083 0.785893 0.0480309 -0.624795 0.77931 -0.592643 -0.803796 0.0518329 
-0.264651 -0.887027 0.378343 -0.130493 -0.874753 0.466669 -0.137055 -0.816185 0.5613 
0.00763051 -0.705725 0.708445 -0.53917 -0.737368 0.40692 -0.0345415 -0.428838 0.902721 
0.0390604 -0.575154 0.817112 0.32742 -0.119294 0.937318 -0.977469 -0.200233 0.0667907 
-0.0133788 -0.144979 0.989344 0.178485 0.163389 0.970282 -9.52502e-05 0.253101 0.96744 
0.453433 0.0546827 0.889611 -0.994422 0.0481153 0.0938595 -0.886113 0.167672 0.432076 
0.220984 0.444635 0.868024 -0.970017 0.154583 0.187539 -0.983133 0.18249 0.0121119 
-0.770017 0.0823175 0.632691 -0.806891 0.333931 0.487255 0.181503 0.76077 0.623126 
0.310106 0.78949 0.52966 -0.877223 0.478075 0.043854 -0.827967 0.521383 0.206473 
0.0775557 0.851804 0.518088 0.124203 0.684696 0.718167 0.0503137 0.895515 0.442178 
-0.438152 -0.741091 0.508731 -0.82143 -0.521164 0.231606 -0.688037 -0.264288 0.675838 
0.00317362 -0.477324 0.878722 -0.0773433 -0.632497 0.770691 -0.0495339 -0.223229 0.973507 
-0.115267 -0.217298 0.969276 0.249791 -0.335466 0.908332 -0.00164154 -0.157743 0.987479 
0.0381861 -0.114575 0.99268 0.280766 -0.122303 0.951952 -0.822528 0.0584369 0.565715 
-0.410772 0.111244 0.904926 0.0933076 0.133703 0.986619 0.389344 0.264572 0.882277 
0.0136275 0.129411 0.991497 0.060404 0.237633 0.969475 0.131725 0.53414 0.835071 
0.318981 0.251051 0.913906 -0.549679 0.263215 0.792825 0.142072 0.520545 0.841931 
0.22847 0.506669 0.831317 0.455528 0.227593 0.860637 0.498564 0.347164 0.794299 
-0.592525 0.445944 0.670856 -0.190783 0.354387 0.91543 -0.414734 0.430003 0.801931 
-0.702079 0.523356 0.48289 -0.0990535 0.546828 0.831365 0.047843 0.74768 0.662333 
0.0366125 0.844321 0.534585 -0.518935 0.844089 0.134982 -0.145264 -0.438286 0.88702 
-0.311425 0.0197926 0.950065 0.180016 -0.28585 0.941214 -0.24926 0.101151 0.96314 
-0.133885 -0.0332007 0.990441 0.203737 0.537283 0.818424 0.361959 0.510313 0.780107 
0.0075313 0.585351 0.810745 0.0241655 0.440752 0.897304 -0.331719 0.766147 0.550437 
-0.133329 0.825802 0.547973 -0.710154 -0.327896 -0.623029 -0.747115 -0.171699 -0.642136 
-0.37346 -0.156602 -0.914332 -0.772996 0.128357 -0.621291 -0.428614 0.112607 -0.896443 
-0.269025 0.216025 -0.938594 -0.36298 0.511755 -0.778686 -0.147131 0.49908 -0.853974 
0.0104919 0.59385 -0.804507 0.103124 0.0573557 -0.993014 0.205076 0.447913 -0.87024 
-0.0646191 -0.770393 -0.634286 -0.359948 -0.749223 -0.555969 -0.217294 -0.82554 -0.520832 
-0.102235 -0.630512 -0.769417 -0.492473 -0.506757 -0.707579 -0.145738 -0.478476 -0.865922 
0.132415 -0.542271 -0.829704 -0.0921678 -0.409549 -0.90762 -0.0626866 -0.25575 -0.964708 
-0.0260642 -0.418195 -0.907983 0.0515451 -0.105553 -0.993077 0.18623 -0.0154266 -0.982385 
-0.823818 -0.184484 -0.535994 0.00534582 0.0219286 -0.999745 0.130221 -0.0179625 -0.991322 
-0.00105428 0.261579 -0.965181 0.0682806 0.369853 -0.926578 0.0395504 0.296122 -0.954331 
0.369402 0.331262 -0.868221 0.116751 0.395072 -0.911201 0.338588 0.52587 -0.780268 
-0.942312 0.221232 -0.251207 -0.686023 0.457232 -0.565961 -0.351203 0.722227 -0.595857 
-0.617318 0.739075 -0.269604 0.121376 0.696311 -0.707403 0.166705 0.699037 -0.695382 
0.160858 -0.540324 -0.825938 0.149381 -0.74694 -0.647894 0.16562 -0.372603 -0.913092 
0.382656 -0.536813 -0.751935 -0.410376 -0.889449 -0.201177 -0.139859 -0.798422 -0.585629 
-0.273717 -0.845569 -0.458359 -0.0869577 -0.67369 -0.733881 0.31139 -0.281261 -0.907705 
-0.731436 -0.636052 -0.245844 -0.714643 -0.582567 -0.387171 -0.191013 -0.48493 -0.853438 
-0.0795353 -0.649886 -0.755859 0.0719611 -0.361492 -0.929594 0.116841 -0.538262 -0.834639 
0.435922 -0.23738 -0.868115 -0.859873 -0.378697 -0.342356 -0.817525 -0.451794 -0.35712 
-0.0674376 -0.0447757 -0.996718 -0.754631 -0.187219 -0.628873 -0.860721 -0.366929 -0.352877 
0.388847 -0.0175364 -0.921135 0.529767 0.0790667 -0.84445 -0.963259 0.0870335 -0.254079 
0.044794 -0.0272261 -0.998625 0.0892977 0.294401 -0.951501 -0.848946 0.484512 -0.211044 
0.295324 0.77826 -0.554161 -0.415832 0.870251 -0.264098 -0.518502 0.854485 0.0317832 
-0.129386 0.805005 -0.578987 -0.289227 0.948279 -0.130822 0.393535 -0.679362 -0.619352 
-0.00475737 -0.85976 -0.510676 -0.262425 -0.910039 -0.320876 -0.522404 -0.828577 -0.201377 
-0.736326 -0.671731 -0.0812485 -0.250096 -0.457521 -0.853303 0.626255 -0.234506 -0.743513 
-0.979072 -0.203459 -0.00480901 -0.921456 -0.385501 -0.0480446 -0.981696 0.142821 -0.125996 
0.601996 0.507556 -0.616432 0.480557 0.515045 -0.709784 -0.856145 0.508769 0.0903844 
-0.586979 0.787855 0.186388 -0.6848 0.70282 0.192597 -0.155914 0.884729 -0.439256 
-0.0901602 0.840174 -0.534769 -0.575179 -0.804299 -0.149239 -0.357146 -0.92721 -0.112822 
-0.902179 -0.431301 -0.0071825 0.705445 -0.0103575 -0.708689 -0.951457 0.280404 0.126899 
-0.847406 0.491477 0.200881 -0.63346 0.744811 0.209726 -0.276889 0.861921 -0.424764 
0.0453999 0.906334 -0.420116 0.151006 0.89059 -0.429006 -0.339267 0.927096 -0.159343 
-0.216401 -0.964192 -0.153313 -0.72384 -0.686345 -0.070617 -0.96361 -0.240963 0.115729 
0.73057 0.118772 -0.672429 -0.997764 -0.03483 0.0570481 -0.990385 -0.0585603 0.125333 