# vtk DataFile Version 4.2
vtk output
ASCII
DATASET POLYDATA
POINTS 1447 float
280.252 152.086 37.602 280.344 151.798 37.7589 278.131 152.812 36.8199 
279.472 153.52 37.0335 279.915 155.038 37.0837 279.26 156.124 36.715 
279.008 158.858 36.4714 278.336 159.976 36.2136 280.008 159.305 36.9795 
278.772 162.443 36.3227 280.064 164.217 37.1963 277.996 166.224 36.2642 
279.587 165.314 36.9278 279.899 165.654 37.234 279.775 170.42 37.6318 
278.442 171.674 37.0182 279.05 147.34 38.4727 277.682 148.288 37.9918 
279.059 150.192 37.6089 274.608 151.508 37.2445 276.966 151.295 37.0475 
280.218 151.209 37.8832 280.743 153.925 37.7474 280.826 158.786 37.7627 
280.701 160.573 37.6385 280.759 163.549 38.0025 280.663 164.395 38.0257 
280.305 167.507 38.1828 280.202 169.876 38.0758 280.363 170.261 38.2677 
280.383 170.561 38.3066 280.201 171.176 38.3049 270.002 173.675 36.7759 
272.103 176.15 37.113 279.478 144.067 39.9851 279.348 144.18 39.9071 
279.613 144.08 40.0011 279.275 144.464 39.7307 279.716 144.26 39.9151 
279.45 144.798 39.5789 278.113 145.169 39.5327 278.972 145.596 39.1707 
277.304 145.732 39.4028 276.769 147.065 38.6826 278.006 146.726 38.6306 
280.637 148.695 38.9591 271.214 150.272 39.1132 280.802 150.939 38.6705 
267.112 154.461 38.9853 270.913 153.95 37.4387 265.315 157.811 38.4944 
281.36 158.182 38.6332 281.295 159.453 38.7425 281.433 158.745 39.1495 
281.247 160.865 38.5941 281.123 161.405 38.36 280.8 164.822 38.4756 
280.476 170.377 38.5294 275.595 177.378 37.8012 278.969 177.112 38.8401 
276.118 178.527 38.5862 279.556 177.508 39.5864 272.1 179.639 38.5191 
267.857 181.052 38.8828 275.715 179.931 39.6153 270.783 181.174 39.2845 
271.515 181.557 39.7289 279.064 144.1 40.313 279.903 144.447 39.9468 
279.986 144.318 40.1134 276.432 145.44 40.1639 276.3 145.329 40.414 
276.035 145.625 40.3022 276.973 145.348 39.9435 267.604 152.013 40.5949 
281.218 151.463 39.5755 265.141 155.769 39.6753 261.885 160.531 39.2679 
281.388 160.208 39.1574 281.201 162.677 38.8195 280.669 173.236 39.5338 
280.537 174.733 39.8148 280.247 177.299 40.4813 266.355 179.315 38.3235 
277.992 179.039 39.7122 278.391 178.975 39.9227 274.216 180.769 39.7871 
274.315 181.145 40.263 272.22 181.782 40.1671 279.628 143.933 40.3612 
279.776 143.956 40.4848 279.937 144.162 40.2042 276.367 145.16 40.6681 
277.201 144.606 41.1286 274.844 146.295 40.8154 267.156 152.324 40.7875 
263.032 157.234 40.4586 263.658 155.992 41.2269 261.088 158.632 41.0307 
281.367 161.816 39.7569 281.005 165.224 40.0396 280.92 170.554 40.1645 
280.734 175.345 40.3415 280.763 175.127 40.4857 280.513 175.987 40.0995 
280.483 177.278 40.9898 277.398 180.56 41.32 259.648 182.197 40.0146 
264.345 182.385 39.7081 272.115 182.185 40.6621 263.382 183.631 40.5569 
268.26 183.56 41.114 280.096 143.612 41.792 280.072 143.606 41.8271 
280.06 143.659 41.7478 280.099 143.64 41.8453 280.088 143.689 41.7487 
280.119 144.167 41.0602 275.572 145.584 41.3821 281.002 147.251 41.3828 
269.444 150.27 40.9804 267.693 151.545 41.5091 281.443 152.717 40.899 
264.654 154.875 41.2882 281.433 153.005 41.1248 262.704 156.646 41.7157 
249.389 171.279 41.3122 280.892 171.486 40.8922 280.612 177.118 41.2651 
280.484 177.658 41.8551 252.796 181.047 41.0168 275.365 181.256 41.0376 
274.776 181.778 41.733 258.017 185.529 42.2979 280.064 143.621 41.8902 
279.964 143.674 41.8595 280.075 143.705 41.965 279.293 143.778 41.8026 
279.631 143.757 41.7142 280.004 143.884 41.5154 280.104 143.816 41.8463 
280.19 144.205 41.8314 267.323 151.895 42.3536 262.306 156.79 42.5013 
260.403 158.507 42.2677 248.537 174.206 41.4271 279.649 179.121 42.0189 
279.099 179.862 42.6176 252.739 182.595 41.4873 273.236 182.393 41.9413 
259.88 186.048 42.9979 280.077 143.967 42.1689 279.532 143.902 42.7424 
276.8 144.838 42.7199 280.544 145.713 42.5213 280.61 146.26 42.7642 
273.614 147.201 42.9824 270.678 149.234 42.5838 268.401 150.979 42.5881 
265.033 154.167 43.0274 260.69 158.085 43.0849 280.735 158.953 42.8095 
280.946 162.227 42.156 250.2 166.225 43.4539 280.513 167.396 42.4564 
246.116 168.843 44.0597 246.372 169.695 43.3245 243.801 171.836 43.7171 
278.573 180.279 42.9691 279.151 179.954 42.8621 279.215 179.87 42.9573 
279.453 179.507 43.2087 279.148 179.97 42.965 270.475 183.768 42.937 
270.384 183.839 43.024 269.815 183.938 43.0191 270.887 183.57 43.0828 
265.911 184.875 42.8199 250.962 186.274 43.4483 263.591 185.448 42.8405 
251.738 186.792 43.7317 279.876 143.868 42.3708 279.974 144.133 42.687 
277.131 144.828 43.2156 274.879 146.68 43.6106 268.064 151.575 43.4153 
265.733 153.555 43.4494 264.671 154.587 43.38 249.91 165.982 44.3038 
280.229 167.806 43.2538 241.248 171.31 45.2485 280.278 172.766 43.6562 
280.663 175.386 43.5869 278.485 180.319 43.667 241.736 183.215 44.2901 
274.574 182.128 43.5105 265.339 185.269 43.6828 261.594 186.425 44.5281 
260.398 186.472 43.9383 252.115 188.065 45.2209 279.464 143.909 43.9578 
279.122 143.995 43.8748 278.777 144.101 43.7385 279.878 144.124 43.9445 
276.697 145.568 43.8684 274.868 147.045 44.0476 280.183 146.478 43.7872 
280.378 147.831 43.8218 280.199 147.77 44.0811 271.585 149.014 43.8428 
280.464 148.411 43.7459 267.146 152.648 43.9791 265.329 154.322 44.1206 
264.952 154.469 43.8187 251.322 164.983 45.1621 253.23 163.831 45.0831 
248.445 166.708 44.8961 245.108 168.52 45.6578 238.516 173.065 45.4492 
280.484 177.277 44.0076 279.234 179.527 44.4021 275.798 181.295 44.9136 
271.614 183.267 44.2449 272.569 182.757 44.9771 261.935 186.429 45.3738 
279.78 143.883 44.3744 279.782 143.808 44.5196 279.745 143.812 44.4653 
279.801 143.867 44.516 279.629 143.869 44.3314 279.818 144.043 44.4081 
279.083 144.247 44.2689 279.9 144.893 44.0754 276.984 146.067 44.4615 
279.864 145.812 44.103 275.291 147.053 44.3373 279.466 146.916 44.5043 
280.06 147.627 44.1982 280.045 147.954 44.2362 268.461 152.129 44.551 
276.094 152.028 45.705 277.55 152.615 45.3708 278.603 153.875 44.9207 
259.563 159.746 45.4338 256.356 161.854 45.462 278.69 165.376 44.6625 
279.234 168.135 44.4731 240.892 170.379 46.5391 242.275 169.916 46.1514 
278.62 169.994 45.2292 280.339 176.976 44.5292 279.66 178.759 44.8027 
279.031 179.53 44.9328 274.248 181.954 45.2093 274.682 181.531 45.6015 
277.771 180.295 45.0255 270.213 183.595 45.3449 265.422 185.225 45.7683 
246.539 188.454 45.9744 252.009 188.495 46.2721 279.774 143.826 44.5707 
279.728 143.812 44.5249 279.769 143.927 44.5638 279.638 143.869 44.5118 
279.464 143.978 44.4194 279.738 144.126 44.5361 279.408 144.118 44.4937 
279.517 144.349 44.5687 279.636 144.175 44.5886 278.82 144.941 44.4528 
277.056 146.487 44.6966 279.576 145.285 44.371 278.916 146.131 44.6468 
274 147.009 47.0174 274 147.009 47.0175 274 147.009 47.0175 
274 147.009 47.0175 275.77 147.832 44.9284 273.035 149.063 44.7982 
274 147.009 47.0175 273.52 150.178 45.4302 274.577 150.789 45.6629 
264.623 156.645 45.522 269.477 158.653 46.7979 257.534 161.541 46.0954 
273.764 161.679 46.4439 236.971 171.178 48.0557 237.947 170.989 47.7791 
277.17 172.559 46.4104 276.801 173.227 46.6886 232.002 175.592 47.0076 
278.462 179.772 45.3665 274.895 181.058 46.0653 276.493 180.41 45.7602 
271.993 182.546 46.1109 263.156 185.836 46.5457 264.569 185.284 46.6275 
235.473 187.317 47.6247 238.379 188.393 47.6369 251.087 188.797 47.1128 
238.503 188.803 48.0169 240.695 189.205 48.182 279.71 143.872 44.5827 
279.677 144.007 44.596 279.535 144.143 44.5786 275.859 147.23 44.7778 
274 147.009 47.0175 272.303 150.197 45.2455 268.77 153.33 45.4921 
267.189 154.616 45.538 269.307 154.389 46.0479 261.116 159.826 46.4114 
265.401 158.806 46.6742 261.94 160.746 47.0591 261.536 161.617 47.3499 
263.004 161.327 47.3053 256.99 162.36 46.7642 256.361 162.432 46.4982 
261.559 162.17 47.534 251.793 165.174 47.3395 262.945 166.726 48.3126 
245.57 168.312 47.5913 247.513 167.402 47.3691 237.788 170.809 48.4152 
230.374 172.226 49.4897 232.278 172.041 49.0825 233.813 171.733 48.8542 
228.571 173.469 48.862 231.434 172.919 48.3958 228.265 174.03 48.6395 
228.115 175.615 48.1824 272.971 176.7 47.9362 278.704 177.247 46.3176 
277.248 177.502 46.9301 279.374 177.918 45.737 279.182 178.831 45.555 
278.43 179.597 45.606 278.571 179.334 45.7398 275.941 180.12 46.3028 
277.554 179.627 45.9975 272.251 182.17 46.4561 265.842 184.603 47.0618 
267.472 184.206 46.6305 269.2 183.418 46.7643 268.953 183.525 46.8464 
233.635 188.508 49.3826 251.567 188.693 48.2298 235.395 188.768 48.9956 
237.849 189.279 49.0003 257.72 162.416 47.044 255.985 163.352 47.2756 
252.382 165.275 47.822 253.406 164.793 47.6107 246.267 168.308 48.1138 
246.93 168.104 48.1309 239.788 170.212 48.4607 240.792 170.114 48.9646 
263.203 169.103 48.5622 225.886 172.543 50.1476 224.964 172.634 50.2714 
227.347 172.07 50.357 228.477 172.518 49.6256 232.827 171.684 49.5989 
227.226 172.998 49.5048 226.134 173.662 49.3871 225.948 174.41 49.1447 
226.215 178.965 48.7215 278.549 178.494 46.2086 277.807 179.106 46.2457 
226.747 182.153 49.3368 227.253 181.815 48.9261 228.256 183.608 49.1551 
269.833 182.648 47.2388 266.23 183.932 47.7506 228.583 184.947 49.8219 
230.308 186.139 49.508 256.961 186.731 48.6939 252.798 188.356 48.3282 
247.376 189.412 49.0435 233.177 188.975 50.417 241.309 189.68 49.4072 
241.751 189.716 49.9307 244.759 189.612 49.2878 234.564 189.205 50.0537 
236.731 189.44 49.6862 239.418 189.586 49.3025 252.6 165.581 48.2321 
254.557 165.187 48.2334 245.027 169.37 48.9506 240.483 170.31 49.4789 
242.367 170.025 49.209 221.263 171.87 51.6317 239.122 170.473 49.4011 
252.83 170.778 49.9165 224.591 171.739 51.1188 226.041 171.659 51.0605 
223.012 173.489 50.3086 222.488 177.622 50.1151 223.428 178.834 49.9515 
224.818 181.862 50.5636 261.432 181.067 49.6172 272.013 181.415 47.2062 
226.493 183.292 50.2464 262.409 182.477 49.3106 230.065 187.275 51.3386 
250.062 188.658 49.5159 239.379 189.775 50.3968 246.255 189.445 49.6163 
[...]
POINT_DATA 1447
SCALARS scalars float
LOOKUP_TABLE default
1 1 1 1 1 1 1 1 1 
1 1 1 1 1 1 1 1 1 
1 1 1 1 1 1 1 1 1 
1 1 1 1 1 1 1 1 1 
1 1 1 1 1 1 1 1 1 
1 1 1 1 1 1 1 1 1 
1 1 1 1 1 1 1 1 1 
1 1 1 1 1 1 1 1 1 
1 1 1 1 1 1 1 1 1 
1 1 1 1 1 1 1 1 1 
1 1 1 1 1 1 1 1 1 
1 1 1 1 1 1 1 1 1 
1 1 1 1 1 1 1 1 1 
1 1 1 1 1 1 1 1 1 
1 1 1 1 1 1 1 1 1 
1 1 1 1 1 1 1 1 1 
1 1 1 1 1 1 1 1 1 
1 1 1 1 1 1 1 1 1 
1 1 1 1 1 1 1 1 1 
1 1 1 1 1 1 1 1 1 
1 1 1 1 1 1 1 1 1 
1 1 1 1 1 1 1 1 1 
1 1 1 1 1 1 1 1 1 
1 1 1 1 1 1 1 1 1 
1 1 1 1 1 1 1 1 1 
1 1 1 1 1 1 1 1 1 
1 1 1 1 1 1 1 1 1 
1 1 1 1 1 1 1 1 1 
1 1 1 1 1 1 1 1 1 
1 1 1 1 1 1 1 1 1 
1 1 1 1 1 1 1 1 1 
1 1 1 1 1 1 1 1 1 
1 1 1 1 1 1 1 1 1 
1 1 1 1 1 1 1 1 1 
1 1 1 1 1 1 1 1 1 
1 1 1 1 1 1 1 1 1 
1 1 1 1 1 1 1 1 1 
1 1 1 1 1 1 1 1 1 
1 1 1 1 1 1 1 1 1 
1 1 1 1 1 1 1 1 1 
1 1 1 1 1 1 1 1 1 
1 1 1 1 1 1 1 1 1 
1 1 1 1 1 1 1 1 1 
1 1 1 1 1 1 1 1 1 
1 1 1 1 1 1 1 1 1 
1 1 1 1 1 1 1 1 1 
1 1 1 1 1 1 1 1 1 
1 1 1 1 1 1 1 1 1 
1 1 1 1 1 1 1 1 1 
1 1 1 1 1 1 1 1 1 
1 1 1 1 1 1 1 1 1 
1 1 1 1 1 1 1 1 1 
1 1 1 1 1 1 1 1 1 
1 1 1 1 1 1 1 1 1 
1 1 1 1 1 1 1 1 1 
1 1 1 1 1 1 1 1 1 
1 1 1 1 1 1 1 1 1 
1 1 1 1 1 1 1 1 1 
1 1 1 1 1 1 1 1 1 
1 1 1 1 1 1 1 1 1 
1 1 1 1 1 1 1 1 1 
1 1 1 1 1 1 1 1 1 
1 1 1 1 1 1 1 1 1 
1 1 1 1 1 1 1 1 1 
1 1 1 1 1 1 1 1 1 
1 1 1 1 1 1 1 1 1 
1 1 1 1 1 1 1 1 1 
1 1 1 1 1 1 1 1 1 
1 1 1 1 1 1 1 1 1 
1 1 1 1 1 1 1 1 1 
1 1 1 1 1 1 1 1 1 
1 1 1 1 1 1 1 1 1 
1 1 1 1 1 1 1 1 1 
1 1 1 1 1 1 1 1 1 
1 1 1 1 1 1 1 1 1 
1 1 1 1 1 1 1 1 1 
1 1 1 1 1 1 1 1 1 
1 1 1 1 1 1 1 1 1 
1 1 1 1 1 1 1 1 1 
1 1 1 1 1 1 1 1 1 
1 1 1 1 1 1 1 1 1 
1 1 1 1 1 1 1 1 1 
1 1 1 1 1 1 1 1 1 
1 1 1 1 1 1 1 1 1 
1 1 1 1 1 1 1 1 1 
1 1 1 1 1 1 1 1 1 
1 1 1 1 1 1 1 1 1 
1 1 1 1 1 1 1 1 1 
1 1 1 1 1 1 1 1 1 
1 1 1 1 1 1 1 1 1 
1 1 1 1 1 1 1 1 1 
1 1 1 1 1 1 1 1 1 
1 1 1 1 1 1 1 1 1 
1 1 1 1 1 1 1 1 1 
1 1 1 1 1 1 1 1 1 
1 1 1 1 1 1 1 1 1 
1 1 1 1 1 1 1 1 1 
1 1 1 1 1 1 1 1 1 
1 1 1 1 1 1 1 1 1 
1 1 1 1 1 1 1 1 1 
1 1 1 1 1 1 1 1 1 
1 1 1 1 1 1 1 1 1 
1 1 1 1 1 1 1 1 1 
1 1 1 1 1 1 1 1 1 
1 1 1 1 1 1 1 1 1 
1 1 1 1 1 1 1 1 1 
1 1 1 1 1 1 1 1 1 
1 1 1 1 1 1 1 1 1 
1 1 1 1 1 1 1 1 1 
1 1 1 1 1 1 1 1 1 
1 1 1 1 1 1 1 1 1 
1 1 1 1 1 1 1 1 1 
1 1 1 1 1 1 1 1 1 
1 1 1 1 1 1 1 1 1 
1 1 1 1 1 1 1 1 1 
1 1 1 1 1 1 1 1 1 
1 1 1 1 1 1 1 1 1 
1 1 1 1 1 1 1 1 1 
1 1 1 1 1 1 1 1 1 
1 1 1 1 1 1 1 1 1 
1 1 1 1 1 1 1 1 1 
1 1 1 1 1 1 1 1 1 
1 1 1 1 1 1 1 1 1 
1 1 1 1 1 1 1 1 1 
1 1 1 1 1 1 1 1 1 
1 1 1 1 1 1 1 1 1 
1 1 1 1 1 1 1 1 1 
1 1 1 1 1 1 1 1 1 
1 1 1 1 1 1 1 1 1 
1 1 1 1 1 1 1 1 1 
1 1 1 1 1 1 1 1 1 
1 1 1 1 1 1 1 1 1 
1 1 1 1 1 1 1 1 1 
1 1 1 1 1 1 1 1 1 
1 1 1 1 1 1 1 1 1 
1 1 1 1 1 1 1 1 1 
1 1 1 1 1 1 1 1 1 
1 1 1 1 1 1 1 1 1 
1 1 1 1 1 1 1 1 1 
1 1 1 1 1 1 1 1 1 
1 1 1 1 1 1 1 1 1 
1 1 1 1 1 1 1 1 1 
1 1 1 1 1 1 1 1 1 
1 1 1 1 1 1 1 1 1 
1 1 1 1 1 1 1 1 1 
1 1 1 1 1 1 1 1 1 
1 1 1 1 1 1 1 1 1 
1 1 1 1 1 1 1 1 1 
1 1 1 1 1 1 1 1 1 
1 1 1 1 1 1 1 1 1 
1 1 1 1 1 1 1 1 1 
1 1 1 1 1 1 1 1 1 
1 1 1 1 1 1 1 1 1 
1 1 1 1 1 1 1 1 1 
1 1 1 1 1 1 1 1 1 
1 1 1 1 1 1 1 1 1 
1 1 1 1 1 1 1 1 1 
1 1 1 1 1 1 1 1 1 
1 1 1 1 1 1 1 1 1 
1 1 1 1 1 1 1 1 1 
1 1 1 1 1 1 1 
NORMALS Normals float
0.614423 -0.157434 -0.77311 0.750996 -0.167305 -0.63876 0.0540171 -0.0891312 -0.994554 
0.321322 -0.199834 -0.925645 0.489168 0.01906 -0.871981 0.512777 0.0226567 -0.858223 
0.392106 -0.0932114 -0.915185 0.180849 -0.0208152 -0.983291 0.616479 -0.00850041 -0.787326 
0.3626 0.0220579 -0.931684 0.685401 -0.0197742 -0.727897 0.405084 0.0730668 -0.911355 
0.580218 0.152334 -0.800088 0.73653 0.16148 -0.656847 0.652555 0.111285 -0.749525 
0.477275 0.223295 -0.84991 0.171694 -0.280083 -0.944497 0.0380097 -0.323089 -0.945605 
0.292259 -0.253377 -0.922163 -0.164652 -0.333968 -0.928092 0.0693819 -0.314315 -0.94678 
0.4549 -0.23695 -0.858441 0.7701 -0.0197059 -0.637618 0.793383 0.00518883 -0.6087 
0.773789 0.0252617 -0.632939 0.856652 -0.0249179 -0.515292 0.88412 0.0660084 -0.462573 
0.819312 0.116627 -0.56136 0.770314 -0.0075824 -0.63762 0.758211 -0.00429897 -0.651995 
0.821748 0.137477 -0.553019 0.800693 0.194865 -0.566497 -0.0658555 0.0879067 -0.993949 
-0.00716006 0.239349 -0.970907 -0.0211622 -0.917515 -0.397138 -0.146191 -0.597456 -0.788463 
0.256746 -0.74343 -0.617571 -0.171562 -0.556973 -0.812618 0.340078 -0.489941 -0.802686 
0.216526 -0.360096 -0.90744 -0.267349 -0.665344 -0.697024 0.133767 -0.403885 -0.904977 
-0.361572 -0.547922 -0.754352 -0.183431 -0.433604 -0.882236 -0.0616506 -0.357337 -0.931939 
0.687434 -0.238448 -0.685986 -0.408337 -0.548883 -0.729375 0.857919 -0.120403 -0.499479 
-0.526034 -0.450703 -0.721217 -0.265759 -0.157459 -0.951093 -0.524831 -0.336787 -0.781746 
0.93106 0.035719 -0.363115 0.900121 0.0241001 -0.434973 0.990181 0.0330142 -0.135834 
0.95086 0.0544907 -0.304788 0.945764 0.104849 -0.307469 0.943962 0.0615453 -0.324266 
0.944546 0.0434206 -0.325495 0.162905 0.345053 -0.924338 0.510854 0.367743 -0.777041 
0.298809 0.435864 -0.848962 0.695656 0.504099 -0.511807 0.0866381 0.521257 -0.84899 
0.0499564 0.484069 -0.873602 0.252486 0.682158 -0.68623 0.070734 0.599801 -0.797017 
0.116561 0.718704 -0.685476 -0.396948 -0.830222 -0.391361 0.568023 -0.329764 -0.754059 
0.917155 -0.257664 -0.304034 -0.389919 -0.655496 -0.646752 -0.520614 -0.740662 -0.424712 
-0.540844 -0.571943 -0.61674 -0.378532 -0.637582 -0.670972 -0.665504 -0.582644 -0.466508 
0.959964 0.00444642 -0.280087 -0.633195 -0.339398 -0.69561 -0.408191 -0.276938 -0.869877 
0.996785 0.0590575 -0.0541403 0.935078 0.0498005 -0.350926 0.874327 0.12451 -0.469095 
0.840674 0.12002 -0.528075 0.815359 0.420851 -0.397586 -0.161435 0.252791 -0.953958 
0.394186 0.575486 -0.716542 0.497687 0.643393 -0.581681 0.223918 0.70066 -0.677449 
0.228196 0.787247 -0.57286 0.277227 0.720464 -0.63567 0.105547 -0.965906 -0.236402 
0.542656 -0.812103 -0.214509 0.560768 -0.736962 -0.377394 -0.421138 -0.843201 -0.334149 
-0.3747 -0.912125 -0.166217 -0.645458 -0.752352 -0.131722 -0.671739 -0.578966 -0.462131 
-0.617663 -0.540899 -0.570894 -0.621118 -0.680991 -0.387896 -0.581812 -0.647016 -0.492814 
0.997725 0.0652531 0.0169342 0.995224 0.049978 -0.0838485 0.998724 0.045853 -0.0211456 
0.976747 0.195662 -0.0876423 0.994925 0.0938412 -0.0363143 0.864475 0.259365 -0.430596 
0.871413 0.377924 -0.312749 0.421511 0.820362 -0.386439 -0.135369 0.303034 -0.943316 
-0.104357 0.52195 -0.846568 0.191367 0.833848 -0.51776 -0.180903 0.492848 -0.851102 
0.208026 0.801655 -0.560424 0.627442 -0.679523 -0.380217 -0.0455984 -0.998378 -0.0340949 
-0.150461 -0.735892 -0.660169 0.927075 -0.33099 0.176006 0.886332 -0.177879 -0.427522 
0.892914 -0.424882 -0.148929 -0.666786 -0.739751 -0.0903662 0.990277 -0.128799 0.0525593 
-0.551506 -0.796403 -0.248159 -0.689954 -0.722198 -0.0489311 0.996752 0.0562098 -0.0576669 
-0.728031 -0.597396 -0.336288 0.983263 0.155343 -0.0951954 -0.732701 -0.586438 -0.345311 
-0.331236 -0.184695 -0.925295 0.999341 0.00849614 -0.0352928 0.965118 0.184286 -0.185972 
0.881476 0.454846 -0.126945 -0.194965 0.215213 -0.956908 0.384871 0.811104 -0.440437 
0.375939 0.880203 -0.289676 -0.0475474 0.619505 -0.783552 0.140327 -0.856732 0.496305 
-0.306382 -0.946734 -0.0991176 0.772115 -0.393573 0.498938 -0.194742 -0.980255 -0.0342856 
0.0139668 -0.964435 -0.26395 0.565217 -0.728716 -0.386656 0.995578 -0.0873326 -0.0345939 
0.981962 -0.189077 0.00112846 -0.658893 -0.741349 0.127525 -0.701473 -0.689644 -0.179796 
-0.611365 -0.778355 -0.142814 -0.369331 0.0063599 -0.929276 0.648377 0.662696 -0.374755 
0.652686 0.62533 -0.427742 -0.210111 0.298964 -0.930846 0.338986 0.894209 -0.292366 
0.0960875 0.857557 -0.505335 0.790534 -0.432526 0.433563 0.306825 -0.923404 0.230617 
-0.562504 -0.783026 0.26544 0.959419 -0.236729 0.153213 0.931657 -0.141241 0.334764 
-0.535154 -0.765609 0.357006 -0.553965 -0.83178 -0.0355567 -0.583315 -0.746116 0.321022 
-0.693081 -0.717256 0.0719831 -0.657605 -0.746738 -0.0996952 0.952945 0.0324947 0.301397 
0.974781 0.0885462 0.204846 -0.499499 -0.677353 -0.540087 0.924346 -0.00215766 0.38155 
-0.458558 -0.621612 -0.635078 -0.427545 -0.501507 -0.752128 -0.468471 -0.303017 -0.829889 
0.427475 0.850783 -0.305669 0.631487 0.751278 -0.191849 0.86244 0.505823 0.0184401 
0.832178 0.553034 0.0404123 0.6991 0.708037 0.0997141 0.432005 0.782973 -0.447577 
0.324534 0.933318 -0.153605 0.244501 0.969541 0.0145045 0.440358 0.85684 -0.268159 
0.302474 0.9254 -0.22835 -0.164322 0.568612 -0.806026 0.197304 0.87468 -0.442726 
-0.072932 0.744402 -0.663737 0.382622 -0.808817 0.44656 0.77218 -0.608087 0.184306 
-0.412496 -0.83957 0.35351 -0.49973 -0.766816 0.40282 -0.557809 -0.766991 0.317132 
-0.657986 -0.743751 0.117855 -0.657166 -0.753257 0.0271535 -0.517894 -0.844107 -0.138812 
0.866627 -0.0657058 0.494612 -0.434767 -0.452224 -0.778763 0.931628 -0.0830101 0.353806 
0.970109 -0.00970825 0.242475 0.515745 0.837062 0.182574 -0.191127 0.392083 -0.899856 
0.419819 0.907483 0.0150725 0.282337 0.957829 -0.0533778 0.310257 0.915923 -0.254609 
0.093358 0.931563 -0.35139 0.0807413 0.883756 -0.46093 -0.0187231 -0.999362 -0.0303993 
-0.397867 -0.901302 0.171338 -0.373281 -0.915045 0.152819 0.993952 -0.0588274 0.0927283 
-0.544238 -0.599376 0.586987 -0.483611 -0.53625 0.691777 0.877311 -0.104801 0.468339 
0.868963 -0.111575 0.482136 0.782102 -0.0977885 0.61543 -0.571389 -0.721655 0.390805 
0.888628 -0.036404 0.457181 -0.56792 -0.642683 0.514224 -0.547298 -0.708459 0.445591 
-0.597809 -0.747734 0.288994 -0.543782 -0.838455 0.0359602 -0.418767 -0.838243 0.349259 
-0.4895 -0.796693 -0.354499 -0.414827 -0.90812 -0.0568955 -0.345554 -0.40503 -0.846489 
0.948226 0.262295 0.179079 0.6726 0.699457 0.241597 0.408796 0.807114 0.425973 
0.384754 0.904991 0.181535 0.40981 0.897577 0.162517 0.283992 0.957817 0.0439919 
0.708296 -0.674136 -0.209421 0.560865 -0.827888 -0.00564736 0.0809834 -0.954337 -0.287546 
0.978452 -0.118297 0.169224 -0.283117 -0.95258 -0.111515 0.975433 0.0890281 0.201505 
-0.527703 -0.541908 0.654114 0.946042 0.0511412 0.319984 -0.421534 -0.483859 0.766935 
0.831628 -0.0705558 0.550832 -0.448244 -0.60827 0.655046 0.444253 -0.0658794 0.893476 
0.594563 -0.15922 0.788127 0.629155 0.0126899 0.777176 -0.307005 -0.66932 0.676579 
0.218075 -0.0839242 0.972317 0.276964 -0.0921626 0.95645 0.371455 0.0319011 0.927903 
-0.548096 -0.711358 0.439954 -0.519639 -0.761284 0.387844 0.643684 -0.0396489 0.764264 
0.376826 -0.152496 0.913645 -0.342806 -0.844814 -0.41082 -0.386184 -0.838625 -0.384148 
0.690329 -0.0739024 0.719711 0.870851 0.058232 0.488085 0.848179 0.404192 0.342377 
0.667576 0.634422 0.38968 0.385918 0.791043 0.474677 0.383191 0.816948 0.430999 
0.391277 0.844667 0.365293 0.297324 0.922975 0.244367 0.421878 0.898358 0.122363 
-0.0586714 0.85261 -0.519244 0.313776 0.933033 -0.176053 0.45235 -0.500442 0.738198 
-0.340316 -0.908119 0.243937 0.66478 0.123024 0.73684 -0.583529 -0.743266 0.327185 
-0.569832 -0.733831 0.369842 0.723881 0.24738 0.644049 -0.591204 -0.354976 0.724203 
0.139425 0.197584 0.97032 0.237132 0.187655 0.953181 -0.147629 -0.189468 0.970725 
-0.319524 -0.367688 0.873333 0.440448 0.0966471 0.892561 0.168087 -0.122465 0.978136 
0 -0.121763 -0.992559 0 -0.992432 -0.122797 -0.849089 -0.520497 -0.0901731 
0.849089 -0.520497 -0.0901731 -0.22718 -0.337969 0.913327 -0.328675 -0.559657 0.760761 
0 0.184289 -0.982872 -0.0586337 -0.370595 0.926942 0.055649 -0.220741 0.973743 
-0.390666 -0.538459 0.74662 -0.0485491 -0.125266 0.990935 -0.325875 -0.665382 0.671619 
0.165565 -0.0352937 0.985567 -0.283751 -0.949029 0.137219 -0.283024 -0.890856 -0.355348 
0.279329 -0.246987 0.927886 0.459609 -0.0661348 0.885656 -0.268665 -0.13148 -0.954218 
0.461425 0.776427 0.429242 0.299885 0.625512 0.720281 0.322433 0.806012 0.496368 
0.321076 0.809422 0.491677 0.353277 0.932238 0.0782849 0.273862 0.893537 0.355797 
-0.34778 0.354524 -0.867964 -0.171118 0.69229 -0.701037 0.0886668 0.983722 -0.156297 
-0.0906654 0.753798 -0.650821 -0.0699146 0.848807 -0.52406 -0.330756 -0.393543 0.857744 
0.198093 0.041834 0.97929 -0.334075 -0.110616 0.936033 -0.308239 -0.316818 0.897004 
0 -0.229113 0.9734 -0.199324 -0.328355 0.923284 -0.29637 -0.585998 0.75417 
-0.291198 -0.386213 0.875239 -0.0570742 -0.368586 0.92784 -0.281477 -0.504649 0.81615 
-0.0962277 -0.219642 0.970823 0.00841717 -0.393257 0.91939 -0.066875 -0.319958 0.945069 
-0.0106322 -0.34628 0.938071 -0.374314 -0.580783 0.722897 -0.482298 -0.547826 0.683576 
-0.146362 -0.346897 0.926413 -0.456851 -0.837952 0.298535 0.0773033 -0.185272 0.979642 
-0.226425 -0.925729 0.302916 -0.351919 -0.786394 0.507678 -0.360607 -0.932244 -0.02974 
-0.0344812 -0.884893 -0.464516 -0.544041 -0.822872 -0.164015 -0.210464 -0.958767 -0.190974 
-0.177986 -0.448106 -0.876083 -0.298074 -0.697682 -0.651453 -0.207511 -0.427901 -0.879682 
-0.237673 -0.234182 -0.942693 0.126787 -0.0666194 0.98969 0.517137 0.0234452 0.855582 
0.290599 0.179472 0.939863 0.688098 0.131232 0.713652 0.702041 0.466018 0.538484 
0.452264 0.592376 0.666744 0.441569 0.515511 0.734347 0.272177 0.56339 0.780071 
0.277527 0.615565 0.737603 0.368619 0.728879 0.576936 0.5452 0.775449 0.318491 
0.328666 0.850619 0.410397 0.384626 0.841966 0.37836 0.361017 0.770809 0.5249 
-0.309667 0.736348 -0.601579 0.268105 0.941324 0.205008 -0.174389 0.779839 -0.601198 
-0.194786 0.875782 -0.44166 -0.213105 -0.474175 0.854251 -0.312546 -0.615338 0.723653 
-0.303259 -0.787208 0.53697 -0.258025 -0.753349 0.604888 -0.191586 -0.887433 0.419234 
-0.269795 -0.826327 0.494363 -0.210234 -0.977026 -0.0349464 -0.155282 -0.985293 0.0713049 
0.101799 -0.0953529 0.990225 -0.28438 -0.502158 -0.81668 -0.131278 -0.529037 -0.838383 
-0.0961922 -0.762671 -0.639594 -0.17394 -0.785561 -0.593834 -0.279315 -0.958895 -0.0500382 
-0.232541 -0.49568 -0.836795 -0.271146 -0.497294 -0.824123 -0.360726 -0.325462 -0.874043 
-0.344721 0.156582 -0.925554 0.420997 0.328684 0.845416 0.260313 0.436726 0.861108 
-0.453386 0.409582 -0.791633 -0.421753 0.316594 -0.849643 -0.516056 0.466859 -0.718142 
0.299456 0.52815 0.794597 0.347986 0.690704 0.633903 -0.552653 0.536634 -0.637651 
-0.450603 0.570032 -0.687038 0.299141 0.747405 0.593213 0.315828 0.942077 0.11289 
0.194983 0.954167 0.227038 -0.434414 0.817554 -0.378008 -0.0133453 0.993923 -0.109262 
0.0265426 0.998101 0.055586 0.0334397 0.998741 0.0373972 -0.0877241 0.934734 -0.344351 
-0.110041 0.940245 -0.322226 -0.0551423 0.945259 -0.321628 -0.232087 -0.583742 0.778063 
-0.10118 -0.436636 0.89393 -0.0711728 -0.649304 0.757191 -0.0689086 -0.921736 0.381647 
-0.231063 -0.940484 0.249199 -0.253212 -0.559034 -0.789535 -0.213364 -0.946501 0.2421 
0.0576725 -0.279115 0.958524 -0.0935931 -0.696889 -0.711046 -0.1482 -0.789048 -0.596187 
-0.2613 -0.370472 -0.891332 -0.450026 0.139668 -0.882026 -0.568566 0.300837 -0.765656 
-0.567249 0.479002 -0.669915 0.284409 -0.122765 0.95081 0.301644 0.543522 0.783323 
-0.494808 0.553593 -0.669851 0.239023 0.363063 0.900585 -0.55196 0.816635 -0.168666 
0.164076 0.922817 0.348551 -0.00338613 0.998753 -0.0498078 0.0931991 0.923851 0.371231 
-0.328915 0.922866 -0.20033 -0.105749 -0.568137 0.816112 -0.00299975 -0.527861 0.849325 
-0.10715 -0.92064 -0.37542 -0.0941698 -0.872635 -0.479208 -0.0818284 -0.88498 -0.458382 
-0.283244 -0.957989 -0.0450643 -0.0280732 -0.910477 -0.412605 0.0677926 -0.996172 -0.055183 
-0.133047 -0.969939 0.203757 0.229913 -0.390836 0.891284 0.180249 -0.139105 0.973735 
0.269496 -0.194966 0.943059 0.158381 -0.0558143 0.985799 -0.607992 0.454379 -0.651064 
-0.563785 0.373131 -0.736831 0.297003 -0.0570097 0.953173 -0.614429 0.730412 -0.298289 
-0.611215 0.563529 -0.555743 0.295482 0.133497 0.945975 -0.633132 0.688598 -0.353519 
0.321541 0.325503 0.88919 -0.0992096 0.988815 -0.111368 -0.0904789 0.995505 0.0279739 
-0.0279903 -0.748253 0.662823 0.000969856 -0.987304 -0.15884 0.0795576 -0.99683 0.00116524 
0.0657929 -0.961241 -0.267743 0.249856 -0.96826 -0.00668259 -0.0164229 -0.986554 0.162606 
0.137387 -0.236827 0.961789 -0.445254 0.139735 -0.884434 -0.534218 0.725282 -0.434254 
-0.631177 0.649215 -0.424424 -0.603007 0.788454 -0.12134 -0.540002 0.841632 0.0073659 
0.294145 0.0878596 0.951714 0.257043 0.78172 0.568192 0.142978 0.757348 0.637167 
-0.0758405 0.994321 0.0746581 0.0673559 -0.716252 0.694583 -0.310976 -0.615612 -0.724096 
-0.0224506 -0.99585 -0.0881964 0.0840055 -0.943907 0.319347 -0.327411 -0.387755 -0.861654 
0.0908365 -0.822939 0.560821 0.151945 -0.498386 0.853536 -0.49057 0.0760426 -0.868077 
0.216869 -0.394382 0.89299 -0.566164 0.407455 -0.716547 -0.513919 0.655598 -0.553244 
-0.570425 0.809182 0.140856 0.213384 0.263181 0.940852 0.105339 0.724993 0.680653 
-0.292406 0.920633 0.258714 0.0721804 0.919929 0.385383 0.0495823 0.895153 0.442992 
-0.358051 -0.573531 -0.736791 -0.224313 -0.717668 -0.65927 0.0773223 -0.961541 0.263553 
0.00283427 -0.679944 0.733258 -0.509257 -0.34187 -0.789799 -0.392243 -0.383694 -0.836017 
-0.449263 -0.225213 -0.864547 -0.53551 0.049076 -0.843101 -0.464326 0.559845 -0.686276 
-0.540811 0.332566 -0.772609 -0.563026 0.442217 -0.698173 -0.636944 0.693618 -0.336446 
-0.650861 0.720925 -0.238005 -0.497463 0.831389 -0.247633 -0.492425 0.869083 -0.0470428 
-0.440376 0.882356 0.165882 -0.584572 0.684062 0.436274 -0.529212 0.779169 0.335903 
-0.45764 0.815122 0.355165 0.106615 0.718849 0.686943 -0.112234 -0.925214 -0.362466 
0.0727423 -0.924682 0.373726 0.358915 -0.777822 0.51592 -0.498978 -0.120639 -0.858177 
-0.47117 -0.303871 -0.828047 -0.562416 0.319077 -0.762809 -0.523629 0.709715 -0.471293 
-0.452976 0.62917 -0.631631 -0.466795 0.876291 -0.119236 -0.415119 0.900409 0.130152 
-0.409824 0.845624 0.342 0.23648 -0.0181322 0.971467 0.180617 0.638079 0.748487 
-0.270729 -0.555511 -0.786202 0.0621615 -0.997324 -0.0384926 -0.34302 -0.395323 -0.85209 
0.068644 -0.984804 0.159526 0.178338 -0.758824 0.626404 0.212498 -0.713973 0.667149 
0.32181 -0.658832 0.679985 0.32682 -0.516617 0.791388 -0.615887 0.224829 -0.755073 
-0.59423 0.0759676 -0.8007 -0.587727 0.350951 -0.728979 0.346382 -0.428095 0.834718 
-0.601755 0.733124 -0.316892 0.390842 -0.118137 0.912845 -0.550217 0.816128 0.176626 
-0.428109 0.807648 0.405498 -0.418468 0.725743 0.54606 -0.412357 0.748738 0.518993 
-0.386958 0.720888 0.574965 -0.511587 0.696507 0.503147 -0.438476 0.684566 0.582329 
0.182635 0.230807 0.955705 0.137619 0.402777 0.904893 0.235018 0.373842 0.897223 
0.0202012 0.84053 0.541388 0.10247 0.642096 0.759745 -0.417986 -0.539717 -0.730748 
-0.168446 -0.808351 -0.564087 -0.0362652 -0.903004 -0.428099 0.0778289 -0.994886 0.0643703 
0.129211 -0.989026 0.0716372 0.0801645 -0.989713 0.118502 0.146027 -0.97561 -0.163891 
0.258599 -0.957288 0.129331 -0.512728 -0.175088 -0.840508 0.0325332 -0.992987 0.113658 
-0.516005 -0.00688041 -0.856558 0.337316 -0.413024 0.845949 -0.568733 0.516753 -0.639929 
0.239543 -0.177743 0.954477 -0.560082 0.701575 -0.440568 -0.626655 0.775253 0.0792869 
0.266849 -0.086985 0.959805 -0.362262 0.71894 0.593205 -0.297994 0.889466 0.346483 
-0.285614 0.593575 0.752392 0.132089 0.121872 0.983717 0.0620737 0.152264 0.986389 
-0.350727 0.513053 0.783433 -0.299257 0.606365 0.736727 0.115041 0.375446 0.919677 
-0.105161 0.775305 0.622771 -0.274645 -0.776691 -0.566851 0.0531399 -0.98376 -0.17144 
0.169905 -0.946117 0.275672 0.370093 -0.888052 0.272753 0.280747 -0.899643 0.3344 
0.26613 -0.805139 0.530024 -0.704854 0.634655 -0.316851 -0.657904 0.263937 -0.705336 
0.283856 -0.49383 0.821923 -0.463102 0.850865 0.248121 0.234444 -0.0973798 0.96724 
0.129789 0.0979562 0.986691 0 -0.0705612 -0.997508 0 -0.990451 -0.137868 
-0.958567 -0.275968 -0.070647 0.958567 -0.275968 -0.070647 0 0.242536 -0.970143 
-0.323453 0.602929 0.729284 -0.198056 0.590452 0.782394 -0.136571 -0.798099 -0.586844 