# vtk DataFile Version 4.2
vtk output
ASCII
DATASET POLYDATA
POINTS 4901 float
279.784 150.457 54.0766 279.797 150.252 54.0823 279.758 150.664 54.0758 
279.721 150.899 54.0785 279.569 149.473 54.1575 279.67 149.433 54.1373 
279.73 149.424 54.1257 279.151 149.714 54.237 279.81 149.436 54.1082 
279.906 149.474 54.0872 278.457 149.878 54.3788 279.917 149.529 54.0829 
279.885 149.668 54.0841 279.795 149.956 54.0907 279.807 149.955 54.0926 
278.55 151.183 54.3052 278.943 151.893 54.2135 279.174 152.741 54.1496 
279.374 151.887 54.1223 279.618 151.388 54.0873 279.678 151.036 54.0868 
279.284 153.625 54.1103 279.537 152.164 54.0888 279.597 151.521 54.0926 
279.316 154.525 54.0887 279.476 153.065 54.0815 279.304 155.143 54.0811 
279.292 155.43 54.0815 279.425 154.018 54.0739 279.249 156.042 54.0831 
279.221 156.33 54.0873 279.369 154.942 54.071 279.147 156.939 54.098 
279.103 157.218 54.1064 279.192 156.627 54.0901 278.997 157.817 54.1264 
278.932 158.083 54.1398 279.056 157.537 54.1147 279.119 157.202 54.1027 
279.155 157.018 54.0959 279.245 156.322 54.0819 278.791 158.659 54.1698 
278.697 158.914 54.1892 278.875 158.388 54.1521 278.934 158.173 54.1399 
279.06 157.65 54.113 278.967 158.125 54.132 278.636 159.186 54.2051 
278.75 158.865 54.1803 278.755 158.857 54.1793 278.863 158.536 54.1544 
278.469 159.639 54.2454 278.478 159.578 54.2425 278.712 158.988 54.1882 
277.721 161.248 54.4257 277.398 161.837 54.5072 277.462 161.69 54.4993 
277.111 162.316 54.5851 277.251 162.112 54.5577 276.467 163.195 54.7578 
276.842 162.699 54.6644 281.504 143.004 55.0174 281.504 143.004 55.0175 
281.504 143.004 55.0175 281.505 143.004 55.0174 281.505 143.004 55.0175 
281.505 143.004 55.0175 281.504 143.005 55.0174 281.505 143.005 55.0175 
277.675 149.322 54.594 277.654 149.28 54.6025 277.69 149.427 54.58 
279.415 149.562 54.1882 277.247 149.859 54.6234 277.467 149.638 54.6027 
277.857 149.65 54.5239 276.618 150.415 54.6886 275.439 151.296 54.8237 
275.984 150.885 54.762 276.679 150.643 54.6582 279.516 149.993 54.1571 
274.166 152.53 54.9428 274.576 152.093 54.9072 277.579 150.744 54.4977 
276.4 150.949 54.6892 273.455 153.481 54.9906 275.411 151.497 54.8189 
275.926 151.159 54.7557 275.712 151.266 54.7878 273.016 154.082 55.0255 
272.619 154.663 55.0432 274.75 152.144 54.8903 275.295 151.587 54.8369 
272.22 155.166 55.0826 271.779 155.727 55.1017 274.041 153.103 54.9513 
271.306 156.191 55.1604 270.707 156.731 55.1968 273.447 154.265 54.9848 
273.558 153.991 55.0051 269.695 157.317 55.3453 273.106 155.428 54.9955 
273.209 155.036 55.0307 279.283 155.705 54.0813 272.986 156.495 54.9804 
273.039 156.147 55.0397 279.194 156.595 54.0917 279.271 155.963 54.0816 
279.384 154.712 54.073 273.053 157.615 54.9386 273.086 157.229 55.0199 
279.057 157.473 54.1154 279.167 156.824 54.096 279.254 156.177 54.0829 
279.302 155.742 54.0767 273.264 158.026 54.9843 273.431 158.618 54.9215 
273.462 158.567 54.9863 278.865 158.331 54.1537 279.01 157.717 54.1247 
279.15 156.96 54.0987 273.83 159.394 54.8971 278.605 159.138 54.2085 
278.801 158.573 54.1674 278.945 158.063 54.1376 274.045 159.703 54.9191 
278.251 159.891 54.2836 274.29 160.12 54.9098 278.538 159.312 54.2238 
273.315 160.758 54.736 274.421 160.367 54.8391 274.694 160.695 54.8816 
277.766 160.59 54.3842 270.401 161.933 54.9396 274.996 161.038 54.7729 
275.259 161.208 54.8284 277.205 161.11 54.4974 268.242 162.883 55.4026 
276.171 161.492 54.671 268.192 163.311 55.5903 268.542 163.754 55.5613 
268.805 163.476 55.4149 268.487 164.176 55.5815 276.634 162.821 54.739 
275.922 164.123 54.9201 276.201 163.844 54.913 276.275 165.023 55.04 
276.332 165 55.0337 270.461 165.181 55.5147 276.163 164.601 54.9957 
276.013 164.988 55.0593 276.196 165.047 55.0575 276.298 165.026 55.0431 
271.088 164.863 55.3657 271.527 164.847 55.3435 272.223 164.937 55.3312 
273.091 165.287 55.353 273.686 165.716 55.3652 275.366 166.506 55.3539 
275.582 165.649 55.2274 275.991 165.079 55.0995 274.147 166.189 55.3976 
281.504 143.004 55.0175 281.505 143.004 55.0175 277.632 149.326 54.6021 
277.588 149.483 54.5951 276.987 150.105 54.6496 275.034 151.651 54.8674 
277.434 150.371 54.5485 273.858 152.912 54.9707 274.392 152.287 54.9297 
275.868 151.077 54.7725 273.376 153.57 55.0153 273.942 152.836 54.974 
272.674 154.562 55.0759 274.484 152.278 54.93 274.885 151.905 54.8879 
271.847 155.643 55.1595 268.173 157.735 55.5335 268.642 157.508 55.4879 
270.912 156.596 55.2681 268.925 157.524 55.4833 267.738 158.219 55.5501 
270.278 157.337 55.4146 266.86 159.143 55.5738 266.797 159.109 55.6725 
266.455 159.43 55.6754 267.259 158.696 55.6108 266.118 159.764 55.7286 
265.789 160.105 55.7374 267.263 159.131 55.4338 265.004 160.873 55.8455 
264.766 161.131 55.8436 273.241 158.146 55.0632 264.499 161.478 55.8801 
273.648 159.074 55.0163 264.245 161.797 55.9166 264.064 161.999 55.9205 
263.975 162.172 55.9103 263.945 162.161 55.9389 263.881 162.25 55.9361 
274.299 160.308 54.9816 263.887 162.352 55.9305 263.909 162.56 55.9398 
263.992 162.762 55.9217 263.945 162.777 55.9487 268.442 163.048 55.7241 
267.87 163.103 55.7649 264.007 162.933 55.9397 264.112 163.098 55.9433 
267.732 163.42 55.6017 268.497 163.514 55.6453 267.974 163.576 55.7072 
264.258 163.262 55.9333 264.429 163.445 55.9364 268.438 163.885 55.6591 
270.643 164.254 55.6024 264.626 163.62 55.9248 264.853 163.808 55.925 
270.815 164.855 55.5359 270.257 165.283 55.6383 276.28 164.883 55.0261 
265.139 163.99 55.9065 265.573 164.281 55.9037 266.043 164.625 55.9048 
271.057 164.951 55.431 270.548 166.114 55.6912 271.586 164.871 55.4259 
272.31 164.912 55.4203 273.04 165.084 55.4296 266.44 164.919 55.8891 
271.423 167.097 55.7683 272.383 167.748 55.7953 272.781 167.97 55.7972 
273.181 168.13 55.7967 273.555 168.233 55.7848 274.038 168.314 55.7658 
273.792 165.785 55.4235 274.532 167.123 55.5536 275.323 166.833 55.4479 
267.431 165.627 55.879 274.286 168.327 55.7484 274.466 168.037 55.6956 
275.496 167.964 55.5944 267.761 165.807 55.8641 268.202 166.041 55.8606 
268.662 166.289 55.8581 275.937 169.521 55.8168 270.313 167.02 55.8338 
271.207 167.435 55.8326 272.199 167.924 55.8369 273.271 168.495 55.8499 
274.349 169.2 55.8855 275.168 169.898 55.9402 275.283 169.978 55.9412 
276.525 170.829 55.9881 277.028 171.707 56.0936 277.431 172.413 56.1758 
277.295 172.138 56.1436 277.4 172.357 56.173 275.765 170.573 56.006 
276.241 171.222 56.0798 276.317 171.297 56.0796 277.529 172.695 56.2074 
277.545 172.729 56.2201 276.721 172.028 56.1765 277.199 173.124 56.3332 
277.748 173.256 56.2675 277.755 173.235 56.2762 277.959 173.672 56.3171 
278.084 173.971 56.3392 278.286 174.462 56.3774 278.284 174.496 56.3969 
278.528 174.985 56.4097 278.549 174.985 56.4115 278.428 175.513 56.5429 
278.902 175.593 56.42 278.863 175.395 56.3943 279.175 175.738 56.3646 
279.142 175.684 56.3644 279.311 175.836 56.3419 279.364 175.875 56.3324 
279.382 175.887 56.3293 279.399 175.898 56.326 266.47 159.499 55.7598 
267.114 158.959 55.7224 264.783 161.188 55.8957 265.256 160.789 55.8869 
258 161.009 57.0174 258 161.009 57.0175 258 161.009 57.0175 
258 161.009 57.0175 256.504 162.004 57.0174 256.504 162.004 57.0175 
256.504 162.004 57.0175 256.505 162.004 57.0174 256.505 162.004 57.0175 
258 161.009 57.0175 256.505 162.004 57.0175 255.729 167.547 57.2058 
255.708 167.518 57.2044 256.504 162.005 57.0174 256.505 162.005 57.0175 
264.06 162.959 55.9594 255.77 167.665 57.2174 255.68 167.683 57.2321 
255.759 167.63 57.2148 255.526 167.908 57.2875 255.853 167.721 57.2156 
255.963 167.818 57.2168 255.254 168.138 57.3639 254.685 168.441 57.4925 
256.278 168.058 57.2148 265.144 163.984 55.9342 256.588 168.266 57.2093 
269.918 165.748 55.7476 256.995 168.493 57.1963 257.435 168.698 57.1803 
257.863 168.89 57.1647 258.216 169.069 57.1584 258.396 169.108 57.1464 
267.765 165.787 55.8824 255.206 169.328 57.5657 255.895 169.008 57.427 
256.497 168.907 57.3319 256.54 168.902 57.32 257.378 168.964 57.2313 
258.924 169.323 57.1306 259.658 169.604 57.1109 256.987 168.926 57.2719 
257.566 169.01 57.2196 258.195 169.166 57.177 259.062 169.431 57.1366 
260.587 169.956 57.0905 260.395 169.895 57.097 261.867 170.427 57.0662 
261.853 170.422 57.0661 263.323 170.947 57.0428 263.15 170.886 57.0452 
264.675 171.413 57.0264 264.322 171.292 57.0304 265.601 171.714 57.0184 
265.311 171.619 57.0209 266.325 171.933 57.014 266.098 171.864 57.0154 
266.904 172.098 57.0115 266.711 172.043 57.0124 267.357 172.221 57.0102 
267.115 172.157 57.0108 267.389 172.229 57.0101 275.71 170.409 55.9872 
260.581 169.96 57.0921 261.861 170.423 57.0658 263.079 170.864 57.0454 
263.917 171.164 57.0334 264.245 171.275 57.0301 266.594 172.012 57.0127 
267.182 172.174 57.0107 267.687 172.306 57.0095 267.701 172.309 57.0095 
268.078 172.404 57.0089 268 172.384 57.009 268.277 172.452 57.0086 
268.204 172.435 57.0087 268.303 172.459 57.0086 276.583 171.753 56.1493 
264.511 171.373 57.0261 264.911 171.508 57.0221 266.205 171.902 57.0142 
266.9 172.097 57.0116 267.492 172.255 57.0099 267.901 172.36 57.0091 
268.177 172.428 57.0087 268.352 172.471 57.0085 268.325 172.464 57.0086 
268.359 172.472 57.0086 277.222 173.086 56.3388 277.426 174.14 56.5194 
266.367 171.948 57.0136 266.942 172.109 57.0115 267.343 172.217 57.0103 
267.362 172.222 57.0102 267.737 172.319 57.0094 268.034 172.394 57.0089 
268.238 172.443 57.0087 268.329 172.465 57.0086 277.147 176.075 56.9989 
277.22 175.923 56.9509 277.347 175.576 56.8498 277.453 174.982 56.6995 
267.603 172.286 57.0097 267.854 172.349 57.0092 268.099 172.41 57.0089 
268.253 172.447 57.0087 278.012 176.063 56.761 277.812 176.636 56.9129 
279.168 175.704 56.3612 276.78 177.473 57.2792 277.279 177.443 57.1678 
277.735 176.988 56.9921 279.352 175.858 56.3334 279.328 175.837 56.3367 
277.453 177.486 57.1377 277.72 177.2 57.0308 277.628 177.523 57.1048 
[...]
POINT_DATA 4901
SCALARS scalars float
LOOKUP_TABLE default
1 1 1 1 1 1 1 1 1 
1 1 1 1 1 1 1 1 1 
1 1 1 1 1 1 1 1 1 
1 1 1 1 1 1 1 1 1 
1 1 1 1 1 1 1 1 1 
1 1 1 1 1 1 1 1 1 
1 1 1 1 1 1 1 1 1 
1 1 1 1 1 1 1 1 1 
1 1 1 1 1 1 1 1 1 
1 1 1 1 1 1 1 1 1 
1 1 1 1 1 1 1 1 1 
1 1 1 1 1 1 1 1 1 
1 1 1 1 1 1 1 1 1 
1 1 1 1 1 1 1 1 1 
1 1 1 1 1 1 1 1 1 
1 1 1 1 1 1 1 1 1 
1 1 1 1 1 1 1 1 1 
1 1 1 1 1 1 1 1 1 
1 1 1 1 1 1 1 1 1 
1 1 1 1 1 1 1 1 1 
1 1 1 1 1 1 1 1 1 
1 1 1 1 1 1 1 1 1 
1 1 1 1 1 1 1 1 1 
1 1 1 1 1 1 1 1 1 
1 1 1 1 1 1 1 1 1 
1 1 1 1 1 1 1 1 1 
1 1 1 1 1 1 1 1 1 
1 1 1 1 1 1 1 1 1 
1 1 1 1 1 1 1 1 1 
1 1 1 1 1 1 1 1 1 
1 1 1 1 1 1 1 1 1 
1 1 1 1 1 1 1 1 1 
1 1 1 1 1 1 1 1 1 
1 1 1 1 1 1 1 1 1 
1 1 1 1 1 1 1 1 1 
1 1 1 1 1 1 1 1 1 
1 1 1 1 1 1 1 1 1 
1 1 1 1 1 1 1 1 1 
1 1 1 1 1 1 1 1 1 
1 1 1 1 1 1 1 1 1 
1 1 1 1 1 1 1 1 1 
1 1 1 1 1 1 1 1 1 
1 1 1 1 1 1 1 1 1 
1 1 1 1 1 1 1 1 1 
1 1 1 1 1 1 1 1 1 
1 1 1 1 1 1 1 1 1 
1 1 1 1 1 1 1 1 1 
1 1 1 1 1 1 1 1 1 
1 1 1 1 1 1 1 1 1 
1 1 1 1 1 1 1 1 1 
1 1 1 1 1 1 1 1 1 
1 1 1 1 1 1 1 1 1 
1 1 1 1 1 1 1 1 1 
1 1 1 1 1 1 1 1 1 
1 1 1 1 1 1 1 1 1 
1 1 1 1 1 1 1 1 1 
1 1 1 1 1 1 1 1 1 
1 1 1 1 1 1 1 1 1 
1 1 1 1 1 1 1 1 1 
1 1 1 1 1 1 1 1 1 
1 1 1 1 1 1 1 1 1 
1 1 1 1 1 1 1 1 1 
1 1 1 1 1 1 1 1 1 
1 1 1 1 1 1 1 1 1 
1 1 1 1 1 1 1 1 1 
1 1 1 1 1 1 1 1 1 
1 1 1 1 1 1 1 1 1 
1 1 1 1 1 1 1 1 1 
1 1 1 1 1 1 1 1 1 
1 1 1 1 1 1 1 1 1 
1 1 1 1 1 1 1 1 1 
1 1 1 1 1 1 1 1 1 
1 1 1 1 1 1 1 1 1 
1 1 1 1 1 1 1 1 1 
1 1 1 1 1 1 1 1 1 
1 1 1 1 1 1 1 1 1 
1 1 1 1 1 1 1 1 1 
1 1 1 1 1 1 1 1 1 
1 1 1 1 1 1 1 1 1 
1 1 1 1 1 1 1 1 1 
1 1 1 1 1 1 1 1 1 
1 1 1 1 1 1 1 1 1 
1 1 1 1 1 1 1 1 1 
1 1 1 1 1 1 1 1 1 
1 1 1 1 1 1 1 1 1 
1 1 1 1 1 1 1 1 1 
1 1 1 1 1 1 1 1 1 
1 1 1 1 1 1 1 1 1 
1 1 1 1 1 1 1 1 1 
1 1 1 1 1 1 1 1 1 
1 1 1 1 1 1 1 1 1 
1 1 1 1 1 1 1 1 1 
1 1 1 1 1 1 1 1 1 
1 1 1 1 1 1 1 1 1 
1 1 1 1 1 1 1 1 1 
1 1 1 1 1 1 1 1 1 
1 1 1 1 1 1 1 1 1 
1 1 1 1 1 1 1 1 1 
1 1 1 1 1 1 1 1 1 
1 1 1 1 1 1 1 1 1 
1 1 1 1 1 1 1 1 1 
1 1 1 1 1 1 1 1 1 
1 1 1 1 1 1 1 1 1 
1 1 1 1 1 1 1 1 1 
1 1 1 1 1 1 1 1 1 
1 1 1 1 1 1 1 1 1 
1 1 1 1 1 1 1 1 1 
1 1 1 1 1 1 1 1 1 
1 1 1 1 1 1 1 1 1 
1 1 1 1 1 1 1 1 1 
1 1 1 1 1 1 1 1 1 
1 1 1 1 1 1 1 1 1 
1 1 1 1 1 1 1 1 1 
1 1 1 1 1 1 1 1 1 
1 1 1 1 1 1 1 1 1 
1 1 1 1 1 1 1 1 1 
1 1 1 1 1 1 1 1 1 
1 1 1 1 1 1 1 1 1 
1 1 1 1 1 1 1 1 1 
1 1 1 1 1 1 1 1 1 
1 1 1 1 1 1 1 1 1 
1 1 1 1 1 1 1 1 1 
1 1 1 1 1 1 1 1 1 
1 1 1 1 1 1 1 1 1 
1 1 1 1 1 1 1 1 1 
1 1 1 1 1 1 1 1 1 
1 1 1 1 1 1 1 1 1 
1 1 1 1 1 1 1 1 1 
1 1 1 1 1 1 1 1 1 
1 1 1 1 1 1 1 1 1 
1 1 1 1 1 1 1 1 1 
1 1 1 1 1 1 1 1 1 
1 1 1 1 1 1 1 1 1 
1 1 1 1 1 1 1 1 1 
1 1 1 1 1 1 1 1 1 
1 1 1 1 1 1 1 1 1 
1 1 1 1 1 1 1 1 1 
1 1 1 1 1 1 1 1 1 
1 1 1 1 1 1 1 1 1 
1 1 1 1 1 1 1 1 1 
1 1 1 1 1 1 1 1 1 
1 1 1 1 1 1 1 1 1 
1 1 1 1 1 1 1 1 1 
1 1 1 1 1 1 1 1 1 
1 1 1 1 1 1 1 1 1 
1 1 1 1 1 1 1 1 1 
1 1 1 1 1 1 1 1 1 
1 1 1 1 1 1 1 1 1 
1 1 1 1 1 1 1 1 1 
1 1 1 1 1 1 1 1 1 
1 1 1 1 1 1 1 1 1 
1 1 1 1 1 1 1 1 1 
1 1 1 1 1 1 1 1 1 
1 1 1 1 1 1 1 1 1 
1 1 1 1 1 1 1 1 1 
1 1 1 1 1 1 1 1 1 
1 1 1 1 1 1 1 1 1 
1 1 1 1 1 1 1 1 1 
1 1 1 1 1 1 1 1 1 
1 1 1 1 1 1 1 1 1 
1 1 1 1 1 1 1 1 1 
1 1 1 1 1 1 1 1 1 
1 1 1 1 1 1 1 1 1 
1 1 1 1 1 1 1 1 1 
1 1 1 1 1 1 1 1 1 
1 1 1 1 1 1 1 1 1 
1 1 1 1 1 1 1 1 1 
1 1 1 1 1 1 1 1 1 
1 1 1 1 1 1 1 1 1 
1 1 1 1 1 1 1 1 1 
1 1 1 1 1 1 1 1 1 
1 1 1 1 1 1 1 1 1 
1 1 1 1 1 1 1 1 1 
1 1 1 1 1 1 1 1 1 
1 1 1 1 1 1 1 1 1 
1 1 1 1 1 1 1 1 1 
1 1 1 1 1 1 1 1 1 
1 1 1 1 1 1 1 1 1 
1 1 1 1 1 1 1 1 1 
1 1 1 1 1 1 1 1 1 
1 1 1 1 1 1 1 1 1 
1 1 1 1 1 1 1 1 1 
1 1 1 1 1 1 1 1 1 
1 1 1 1 1 1 1 1 1 
1 1 1 1 1 1 1 1 1 
1 1 1 1 1 1 1 1 1 
1 1 1 1 1 1 1 1 1 
1 1 1 1 1 1 1 1 1 
1 1 1 1 1 1 1 1 1 
1 1 1 1 1 1 1 1 1 
1 1 1 1 1 1 1 1 1 
1 1 1 1 1 1 1 1 1 
1 1 1 1 1 1 1 1 1 
1 1 1 1 1 1 1 1 1 
1 1 1 1 1 1 1 1 1 
1 1 1 1 1 1 1 1 1 
1 1 1 1 1 1 1 1 1 
1 1 1 1 1 1 1 1 1 
1 1 1 1 1 1 1 1 1 
1 1 1 1 1 1 1 1 1 
1 1 1 1 1 1 1 1 1 
1 1 1 1 1 1 1 1 1 
1 1 1 1 1 1 1 1 1 
1 1 1 1 1 1 1 1 1 
1 1 1 1 1 1 1 1 1 
1 1 1 1 1 1 1 1 1 
1 1 1 1 1 1 1 1 1 
1 1 1 1 1 1 1 1 1 
1 1 1 1 1 1 1 1 1 
1 1 1 1 1 1 1 1 1 
1 1 1 1 1 1 1 1 1 
1 1 1 1 1 1 1 1 1 
1 1 1 1 1 1 1 1 1 
1 1 1 1 1 1 1 1 1 
1 1 1 1 1 1 1 1 1 
1 1 1 1 1 1 1 1 1 
1 1 1 1 1 1 1 1 1 
1 1 1 1 1 1 1 1 1 
1 1 1 1 1 1 1 1 1 
1 1 1 1 1 1 1 1 1 
1 1 1 1 1 1 1 1 1 
1 1 1 1 1 1 1 1 1 
1 1 1 1 1 1 1 1 1 
1 1 1 1 1 1 1 1 1 
1 1 1 1 1 1 1 1 1 
1 1 1 1 1 1 1 1 1 
1 1 1 1 1 1 1 1 1 
1 1 1 1 1 1 1 1 1 
1 1 1 1 1 1 1 1 1 
1 1 1 1 1 1 1 1 1 
1 1 1 1 1 1 1 1 1 
1 1 1 1 1 1 1 1 1 
1 1 1 1 1 1 1 1 1 
1 1 1 1 1 1 1 1 1 
1 1 1 1 1 1 1 1 1 
1 1 1 1 1 1 1 1 1 
1 1 1 1 1 1 1 1 1 
1 1 1 1 1 1 1 1 1 
1 1 1 1 1 1 1 1 1 
1 1 1 1 1 1 1 1 1 
1 1 1 1 1 1 1 1 1 
1 1 1 1 1 1 1 1 1 
1 1 1 1 1 1 1 1 1 
1 1 1 1 1 1 1 1 1 
1 1 1 1 1 1 1 1 1 
1 1 1 1 1 1 1 1 1 
1 1 1 1 1 1 1 1 1 
1 1 1 1 1 1 1 1 1 
1 1 1 1 1 1 1 1 1 
1 1 1 1 1 1 1 1 1 
1 1 1 1 1 1 1 1 1 
1 1 1 1 1 1 1 1 1 
1 1 1 1 1 1 1 1 1 
1 1 1 1 1 1 1 1 1 
1 1 1 1 1 1 1 1 1 
1 1 1 1 1 1 1 1 1 
1 1 1 1 1 1 1 1 1 
1 1 1 1 1 1 1 1 1 
1 1 1 1 1 1 1 1 1 
1 1 1 1 1 1 1 1 1 
1 1 1 1 1 1 1 1 1 
1 1 1 1 1 1 1 1 1 
1 1 1 1 1 1 1 1 1 
1 1 1 1 1 1 1 1 1 
1 1 1 1 1 1 1 1 1 
1 1 1 1 1 1 1 1 1 
1 1 1 1 1 1 1 1 1 
1 1 1 1 1 1 1 1 1 
1 1 1 1 1 1 1 1 1 
1 1 1 1 1 1 1 1 1 
1 1 1 1 1 1 1 1 1 
1 1 1 1 1 1 1 1 1 
1 1 1 1 1 1 1 1 1 
1 1 1 1 1 1 1 1 1 
1 1 1 1 1 1 1 1 1 
1 1 1 1 1 1 1 1 1 
1 1 1 1 1 1 1 1 1 
1 1 1 1 1 1 1 1 1 
1 1 1 1 1 1 1 1 1 
1 1 1 1 1 1 1 1 1 
1 1 1 1 1 1 1 1 1 
1 1 1 1 1 1 1 1 1 
1 1 1 1 1 1 1 1 1 
1 1 1 1 1 1 1 1 1 
1 1 1 1 1 1 1 1 1 
1 1 1 1 1 1 1 1 1 
1 1 1 1 1 1 1 1 1 
1 1 1 1 1 1 1 1 1 
1 1 1 1 1 1 1 1 1 
1 1 1 1 1 1 1 1 1 
1 1 1 1 1 1 1 1 1 
1 1 1 1 1 1 1 1 1 
1 1 1 1 1 1 1 1 1 
1 1 1 1 1 1 1 1 1 
1 1 1 1 1 1 1 1 1 
1 1 1 1 1 1 1 1 1 
1 1 1 1 1 1 1 1 1 
1 1 1 1 1 1 1 1 1 
1 1 1 1 1 1 1 1 1 
1 1 1 1 1 1 1 1 1 
1 1 1 1 1 1 1 1 1 
1 1 1 1 1 1 1 1 1 
1 1 1 1 1 1 1 1 1 
1 1 1 1 1 1 1 1 1 
1 1 1 1 1 1 1 1 1 
1 1 1 1 1 1 1 1 1 
1 1 1 1 1 1 1 1 1 
1 1 1 1 1 1 1 1 1 
1 1 1 1 1 1 1 1 1 
1 1 1 1 1 1 1 1 1 
1 1 1 1 1 1 1 1 1 
1 1 1 1 1 1 1 1 1 
1 1 1 1 1 1 1 1 1 
1 1 1 1 1 1 1 1 1 
1 1 1 1 1 1 1 1 1 
1 1 1 1 1 1 1 1 1 
1 1 1 1 1 1 1 1 1 
1 1 1 1 1 1 1 1 1 
1 1 1 1 1 1 1 1 1 
1 1 1 1 1 1 1 1 1 
1 1 1 1 1 1 1 1 1 
1 1 1 1 1 1 1 1 1 
1 1 1 1 1 1 1 1 1 
1 1 1 1 1 1 1 1 1 
1 1 1 1 1 1 1 1 1 
1 1 1 1 1 1 1 1 1 
1 1 1 1 1 1 1 1 1 
1 1 1 1 1 1 1 1 1 
1 1 1 1 1 1 1 1 1 
1 1 1 1 1 1 1 1 1 
1 1 1 1 1 1 1 1 1 
1 1 1 1 1 1 1 1 1 
1 1 1 1 1 1 1 1 1 
1 1 1 1 1 1 1 1 1 
1 1 1 1 1 1 1 1 1 
1 1 1 1 1 1 1 1 1 
1 1 1 1 1 1 1 1 1 
1 1 1 1 1 1 1 1 1 
1 1 1 1 1 1 1 1 1 
1 1 1 1 1 1 1 1 1 
1 1 1 1 1 1 1 1 1 
1 1 1 1 1 1 1 1 1 
1 1 1 1 1 1 1 1 1 
1 1 1 1 1 1 1 1 1 
1 1 1 1 1 1 1 1 1 
1 1 1 1 1 1 1 1 1 
1 1 1 1 1 1 1 1 1 
1 1 1 1 1 1 1 1 1 
1 1 1 1 1 1 1 1 1 
1 1 1 1 1 1 1 1 1 
1 1 1 1 1 1 1 1 1 
1 1 1 1 1 1 1 1 1 
1 1 1 1 1 1 1 1 1 
1 1 1 1 1 1 1 1 1 
1 1 1 1 1 1 1 1 1 
1 1 1 1 1 1 1 1 1 
1 1 1 1 1 1 1 1 1 
1 1 1 1 1 1 1 1 1 
1 1 1 1 1 1 1 1 1 
1 1 1 1 1 1 1 1 1 
1 1 1 1 1 1 1 1 1 
1 1 1 1 1 1 1 1 1 
1 1 1 1 1 1 1 1 1 
1 1 1 1 1 1 1 1 1 
1 1 1 1 1 1 1 1 1 
1 1 1 1 1 1 1 1 1 
1 1 1 1 1 1 1 1 1 
1 1 1 1 1 1 1 1 1 
1 1 1 1 1 1 1 1 1 
1 1 1 1 1 1 1 1 1 
1 1 1 1 1 1 1 1 1 
1 1 1 1 1 1 1 1 1 
1 1 1 1 1 1 1 1 1 
1 1 1 1 1 1 1 1 1 
1 1 1 1 1 1 1 1 1 
1 1 1 1 1 1 1 1 1 
1 1 1 1 1 1 1 1 1 
1 1 1 1 1 1 1 1 1 
1 1 1 1 1 1 1 1 1 
1 1 1 1 1 1 1 1 1 
1 1 1 1 1 1 1 1 1 
1 1 1 1 1 1 1 1 1 
1 1 1 1 1 1 1 1 1 
1 1 1 1 1 1 1 1 1 
1 1 1 1 1 1 1 1 1 
1 1 1 1 1 1 1 1 1 
1 1 1 1 1 1 1 1 1 
1 1 1 1 1 1 1 1 1 
1 1 1 1 1 1 1 1 1 
1 1 1 1 1 1 1 1 1 
1 1 1 1 1 1 1 1 1 
1 1 1 1 1 1 1 1 1 
1 1 1 1 1 1 1 1 1 
1 1 1 1 1 1 1 1 1 
1 1 1 1 1 1 1 1 1 
1 1 1 1 1 1 1 1 1 
1 1 1 1 1 1 1 1 1 
1 1 1 1 1 1 1 1 1 
1 1 1 1 1 1 1 1 1 
1 1 1 1 1 1 1 1 1 
1 1 1 1 1 1 1 1 1 
1 1 1 1 1 1 1 1 1 
1 1 1 1 1 1 1 1 1 
1 1 1 1 1 1 1 1 1 
1 1 1 1 1 1 1 1 1 
1 1 1 1 1 1 1 1 1 
1 1 1 1 1 1 1 1 1 
1 1 1 1 1 1 1 1 1 
1 1 1 1 1 1 1 1 1 
1 1 1 1 1 1 1 1 1 
1 1 1 1 1 1 1 1 1 
1 1 1 1 1 1 1 1 1 
1 1 1 1 1 1 1 1 1 
1 1 1 1 1 1 1 1 1 
1 1 1 1 1 1 1 1 1 
1 1 1 1 1 1 1 1 1 
1 1 1 1 1 1 1 1 1 
1 1 1 1 1 1 1 1 1 
1 1 1 1 1 1 1 1 1 
1 1 1 1 1 1 1 1 1 
1 1 1 1 1 1 1 1 1 
1 1 1 1 1 1 1 1 1 
1 1 1 1 1 1 1 1 1 
1 1 1 1 1 1 1 1 1 
1 1 1 1 1 1 1 1 1 
1 1 1 1 1 1 1 1 1 
1 1 1 1 1 1 1 1 1 
1 1 1 1 1 1 1 1 1 
1 1 1 1 1 1 1 1 1 
1 1 1 1 1 1 1 1 1 
1 1 1 1 1 1 1 1 1 
1 1 1 1 1 1 1 1 1 
1 1 1 1 1 1 1 1 1 
1 1 1 1 1 1 1 1 1 
1 1 1 1 1 1 1 1 1 
1 1 1 1 1 1 1 1 1 
1 1 1 1 1 1 1 1 1 
1 1 1 1 1 1 1 1 1 
1 1 1 1 1 1 1 1 1 
1 1 1 1 1 1 1 1 1 
1 1 1 1 1 1 1 1 1 
1 1 1 1 1 1 1 1 1 
1 1 1 1 1 1 1 1 1 
1 1 1 1 1 1 1 1 1 
1 1 1 1 1 1 1 1 1 
1 1 1 1 1 1 1 1 1 
1 1 1 1 1 1 1 1 1 
1 1 1 1 1 1 1 1 1 
1 1 1 1 1 1 1 1 1 
1 1 1 1 1 1 1 1 1 
1 1 1 1 1 1 1 1 1 
1 1 1 1 1 1 1 1 1 
1 1 1 1 1 1 1 1 1 
1 1 1 1 1 1 1 1 1 
1 1 1 1 1 1 1 1 1 
1 1 1 1 1 1 1 1 1 
1 1 1 1 1 1 1 1 1 
1 1 1 1 1 1 1 1 1 
1 1 1 1 1 1 1 1 1 
1 1 1 1 1 1 1 1 1 
1 1 1 1 1 1 1 1 1 
1 1 1 1 1 1 1 1 1 
1 1 1 1 1 1 1 1 1 
1 1 1 1 1 1 1 1 1 
1 1 1 1 1 1 1 1 1 
1 1 1 1 1 1 1 1 1 
1 1 1 1 1 1 1 1 1 
1 1 1 1 1 1 1 1 1 
1 1 1 1 1 1 1 1 1 
1 1 1 1 1 1 1 1 1 
1 1 1 1 1 1 1 1 1 
1 1 1 1 1 1 1 1 1 
1 1 1 1 1 1 1 1 1 
1 1 1 1 1 1 1 1 1 
1 1 1 1 1 1 1 1 1 
1 1 1 1 1 1 1 1 1 
1 1 1 1 1 1 1 1 1 
1 1 1 1 1 1 1 1 1 
1 1 1 1 1 1 1 1 1 
1 1 1 1 1 1 1 1 1 
1 1 1 1 1 1 1 1 1 
1 1 1 1 1 1 1 1 1 
1 1 1 1 1 1 1 1 1 
1 1 1 1 1 1 1 1 1 
1 1 1 1 1 1 1 1 1 
1 1 1 1 1 1 1 1 1 
1 1 1 1 1 1 1 1 1 
1 1 1 1 1 1 1 1 1 
1 1 1 1 1 1 1 1 1 
1 1 1 1 1 1 1 1 1 
1 1 1 1 1 1 1 1 1 
1 1 1 1 1 1 1 1 1 
1 1 1 1 1 1 1 1 1 
1 1 1 1 1 1 1 1 1 
1 1 1 1 1 1 1 1 1 
1 1 1 1 1 1 1 1 1 
1 1 1 1 1 1 1 1 1 
1 1 1 1 1 1 1 1 1 
1 1 1 1 1 1 1 1 1 
1 1 1 1 1 1 1 1 1 
1 1 1 1 1 1 1 1 1 
1 1 1 1 1 1 1 1 1 
1 1 1 1 1 1 1 1 1 
1 1 1 1 1 1 1 1 1 
1 1 1 1 1 1 1 1 1 
1 1 1 1 1 1 1 1 1 
1 1 1 1 1 1 1 1 1 
1 1 1 1 1 1 1 1 1 
1 1 1 1 1 1 1 1 1 
1 1 1 1 1 1 1 1 1 
1 1 1 1 1 1 1 1 1 
1 1 1 1 1 1 1 1 1 
1 1 1 1 1 1 1 1 1 
1 1 1 1 1 1 1 1 1 
1 1 1 1 1 1 1 1 1 
1 1 1 1 1 1 1 1 1 
1 1 1 1 1 1 1 1 1 
1 1 1 1 1 1 1 1 1 
1 1 1 1 1 1 1 1 1 
1 1 1 1 1 1 1 1 1 
1 1 1 1 1 1 1 1 1 
1 1 1 1 1 1 1 1 1 
1 1 1 1 1 1 1 1 1 
1 1 1 1 1 1 1 1 1 
1 1 1 1 1 1 1 1 1 
1 1 1 1 1 1 1 1 1 
1 1 1 1 1 1 1 1 1 
1 1 1 1 1 1 1 1 1 
1 1 1 1 1 1 1 1 1 
1 1 1 1 1 1 1 1 1 
1 1 1 1 1 1 1 1 1 
1 1 1 1 1 1 1 1 1 
1 1 1 1 1 1 1 1 1 
1 1 1 1 1 1 1 1 1 
1 1 1 1 1 1 1 1 1 
1 1 1 1 1 1 1 1 1 
1 1 1 1 1 1 1 1 1 
1 1 1 1 1 1 1 1 1 
1 1 1 1 1 1 1 1 1 
1 1 1 1 1 1 1 1 1 
1 1 1 1 1 1 1 1 1 
1 1 1 1 1 1 1 1 1 
1 1 1 1 1 1 1 1 1 
1 1 1 1 1 1 1 1 1 
1 1 1 1 1 
NORMALS Normals float
-0.355121 -0.0480192 -0.933586 -0.355121 -0.0480192 -0.933586 -0.355121 -0.0480192 -0.933586 
-0.23975 -0.0313227 -0.970329 -0.185619 0.0266642 -0.98226 -0.185619 0.0266642 -0.98226 
-0.185619 0.0266642 -0.98226 -0.207447 -0.0320638 -0.977721 -0.211145 -0.0223423 -0.977199 
-0.199111 -0.0366833 -0.97929 -0.202715 -0.0492637 -0.977998 -0.211145 -0.0223423 -0.977199 
0.0802237 0.00135279 0.996776 0.0635927 0.011262 0.997912 -0.164018 -0.0232455 0.986183 
-0.196939 -0.0204291 -0.980203 -0.207344 -0.0144613 -0.978161 -0.205187 -0.0168313 -0.978578 
-0.191321 -0.0180906 -0.981361 -0.178206 -0.018311 -0.983823 0.956502 0.173966 -0.23418 
-0.200625 -0.0186163 -0.979491 0.548604 0.0555777 0.834233 0.6108 0.0965278 -0.785879 
-0.28127 -0.0175887 -0.959467 -0.186001 -0.0178909 -0.982387 -0.30508 -0.0153249 -0.952203 
-0.520378 -0.0204784 -0.85369 0.0916158 0.00790997 0.995763 0.0547724 0.00117798 0.998498 
-0.443352 -0.029115 -0.895875 -0.183111 -0.011889 -0.98302 0.114679 -0.00355907 0.993396 
-0.316203 -0.021659 -0.948444 -0.198479 -0.00502609 -0.980092 0.185099 -0.000189613 0.98272 
-0.236384 -0.00922903 -0.971616 0.239881 0.00950942 0.970756 -0.210157 -0.0055653 -0.977652 
-0.258818 -0.0133525 -0.965834 -0.215502 -0.00928209 -0.976459 0.955678 0.224634 0.190312 
-0.165266 0.01543 -0.986128 0.653133 0.10579 0.749817 0.586495 0.0808275 0.80591 
-0.245701 -0.0101535 -0.969293 -0.251414 -0.0105712 -0.967822 -0.104403 0.0379403 -0.993811 
-0.0763803 0.0411666 -0.996229 -0.30956 -0.0323447 -0.95033 -0.294986 -0.0286233 -0.955073 
-0.149615 0.0434277 -0.98779 -0.206524 0.0106749 -0.978383 -0.333458 -0.0395644 -0.941934 
0.202507 -0.0155466 0.979157 -0.0654685 0.121793 -0.990394 -0.159056 0.0596754 -0.985464 
-0.0244459 0.15256 -0.987992 0.657774 0.280124 0.699188 0.272514 0.280315 -0.920413 
-0.155968 0.0813175 -0.984409 -0.108349 -0.344077 -0.932669 -0.241692 -0.838348 0.488628 
-0.255672 -0.401407 -0.879491 0.164413 0.346341 -0.923589 0.291903 -0.814921 -0.500696 
0.364111 0.412929 -0.834813 -0.198003 0.825869 -0.527953 0.145231 0.845851 0.513268 
0.194536 0.100149 0.975769 0.194536 0.100149 0.975769 0.197939 0.100727 0.975025 
0.213484 0.0329879 0.97639 -0.19351 -0.100673 -0.975919 -0.198106 -0.105078 -0.974532 
-0.193172 -0.0891902 -0.977103 -0.174718 -0.0835512 -0.981067 -0.176846 -0.0873634 -0.980354 
-0.176186 -0.0853401 -0.980651 -0.173189 -0.0834925 -0.981343 -0.223107 -0.0312881 -0.974292 
0.492221 0.381289 0.78252 0.405996 0.323243 0.854799 -0.183773 -0.074732 -0.980124 
0.130929 -0.0234215 0.991115 0.3669 0.22115 0.903591 0.0549867 -0.10374 0.993083 
0.0328206 -0.15791 0.986908 0.0629699 -0.169062 0.983592 0.597515 0.3903 0.700458 
0.488071 0.313871 0.814415 0.114338 0.0175553 0.993287 -0.0550579 -0.263732 0.963023 
0.418162 0.282213 0.863421 0.556036 0.43991 0.705197 0.0813346 0.00495382 0.996675 
0.631164 0.600879 0.490486 0.360483 0.38246 0.85075 0.0783185 0.00498684 0.996916 
-0.40268 -0.134737 -0.90537 0.366067 0.914377 -0.172941 -0.657518 -0.121519 0.743574 
-0.891397 -0.244284 0.381754 0.154294 0.00611362 0.988006 -0.510842 0.0145641 0.859551 
-0.78425 -0.0603553 0.617502 -0.83622 -0.0772201 -0.54293 -0.110377 -0.0274586 0.99351 
-0.534246 -0.0387049 0.844442 -0.190146 0.0748632 0.978897 -0.921031 0.166942 -0.351897 
-0.322448 -0.0246125 -0.946267 -0.241755 -0.0468713 0.969205 -0.183045 -0.00461889 -0.983094 
-0.398822 -0.0275093 -0.916616 -0.916107 0.295499 0.270977 -0.305614 0.176626 0.93563 
-0.913693 0.406084 0.0161723 -0.239349 -0.0102508 -0.970879 -0.287144 -0.0196284 -0.957686 
-0.151516 0.000626967 -0.988455 -0.461129 0.292918 0.837591 -0.154643 0.0256876 -0.987637 
-0.232249 -0.00732114 -0.972629 0.613295 0.086245 0.785131 -0.864114 0.483138 -0.14101 
-0.0864155 0.0690829 -0.993861 -0.815617 0.514351 -0.264975 0.376684 0.0632242 0.924182 
-0.004132 0.0345543 0.999394 -0.627082 0.472514 0.619273 -0.718955 0.544528 -0.431964 
-0.122628 0.0705195 -0.989944 0.131027 -0.0606629 0.989521 -0.492326 0.721198 0.487328 
-0.535528 0.843494 -0.041549 -0.141856 0.0629638 -0.987883 0.174821 -0.217634 0.960246 
-0.127014 0.069352 -0.989473 0.127811 -0.360127 0.924106 0.588657 -0.00236074 0.80838 
0.290045 -0.171486 0.941524 0.211898 -0.0914853 0.973 0.482696 0.105518 0.869408 
0.0153597 0.180731 -0.983413 0.760521 0.159798 0.629343 -0.0372684 0.321957 -0.946021 
-0.00215924 0.261683 -0.965151 0.0687112 -0.300404 0.951334 0.00346341 0.13604 -0.990697 
-0.0793088 0.176723 -0.98106 -0.0465108 0.486565 -0.872405 0.0445456 0.531588 -0.845831 
0.0195839 -0.398891 0.916789 0.0199171 -0.558778 0.829078 0.173185 -0.901138 0.397439 
0.487576 -0.861431 -0.142145 -0.0884929 0.135842 -0.98677 0.189002 -0.175623 0.966144 
0.0501238 0.18964 -0.980573 0.108816 -0.221132 0.969154 0.420041 -0.427802 0.800345 
-0.19795 0.334672 0.921309 0.139749 -0.335014 0.931792 0.194536 0.100149 0.975769 
0.199107 0.0992426 0.97494 -0.177864 -0.0829109 -0.980556 -0.124185 0.0173464 -0.992107 
0.185767 0.0832081 0.979064 0.676114 0.556973 -0.482339 0.34945 0.390771 -0.851577 
0.0838221 -0.0304349 0.996016 0.680171 0.522833 -0.513822 -0.00898323 0.0637763 -0.997924 
0.598544 0.480969 -0.640636 -0.0551226 0.0345544 -0.997882 -0.389441 -0.207827 -0.897298 
0.665864 0.624921 -0.407553 0.677198 0.713987 -0.177837 0.122499 0.0694314 0.990037 
0.302447 0.4984 -0.81248 -0.0319554 0.283233 -0.958519 0.62863 0.551519 0.548317 
-0.0476219 0.205009 -0.977601 0.450932 0.33229 0.828399 0.635284 0.72479 -0.266634 
0.69785 0.711188 0.0849464 0.580362 0.615822 0.532862 0.705534 0.697168 -0.127194 
0.380852 0.226177 0.896547 0.279617 0.156488 0.947273 0.534037 0.565587 -0.628423 
0.766428 0.638276 0.0720576 -0.412034 0.135269 -0.901072 0.650972 0.505457 -0.566346 
-0.530979 0.22406 -0.817226 0.729872 0.617609 -0.292993 0.398273 0.25771 0.88032 
0.340302 0.177118 0.923485 0.558018 0.375643 0.739938 0.429739 0.230496 0.873039 
-0.465313 0.225923 -0.855829 0.20206 -0.0101164 0.979321 0.0206659 0.0273972 0.999411 
0.13996 -0.013736 0.990062 0.468724 -0.125069 0.874446 -0.0292184 -0.0586311 -0.997852 
-0.181266 -0.130979 -0.974673 0.31656 -0.155076 0.93581 0.294015 -0.206047 0.933327 
-0.0563939 -0.0763046 0.995488 0.180496 -0.179779 -0.967006 -0.0876309 -0.461806 0.882642 
0.0737435 -0.0842794 0.99371 0.423072 -0.46494 -0.777715 0.36195 0.603314 -0.710637 
-0.091737 -0.115926 -0.989012 0.219379 -0.206258 0.953588 0.546745 -0.751465 -0.369283 
-0.282915 -0.376885 -0.881996 -0.412807 -0.121402 -0.902692 -0.0760752 0.109659 -0.991054 
0.462384 -0.684751 0.563308 -0.0523091 0.0998059 0.993631 0.0476822 -0.0396334 0.998076 
-0.192009 -0.978133 0.0799322 0.127808 -0.191046 0.973225 -0.0409667 -0.834919 -0.548846 
0.136641 -0.639872 -0.756236 -0.0405297 -0.12395 -0.99146 0.0811543 -0.0240051 0.996412 
0.0893966 -0.156256 0.983663 -0.0511201 0.105495 -0.993105 -0.0629643 0.134886 -0.988859 
-0.0592407 0.128163 -0.989982 0.0858331 -0.198899 0.976254 -0.0806945 0.256503 -0.963169 
0.260741 -0.251251 -0.932141 0.177712 -0.210347 0.961339 0.0829059 0.185796 -0.979084 
0.153112 -0.200552 0.967644 -0.0806945 0.256503 -0.963169 0.0761365 -0.132616 0.988239 
0.166335 -0.166513 0.971909 0.0608674 -0.062465 0.996189 -0.0443956 0.095086 0.994479 
0.0394262 -0.0538223 0.997772 0.0732182 -0.161347 0.984178 0.067265 -0.130946 0.989105 
0.068425 -0.136377 0.988291 -0.0772534 0.16626 -0.983051 -0.0757471 0.167165 -0.983015 
0.123302 -0.218408 0.968036 0.183943 -0.27785 0.942849 0.111582 -0.200564 0.973306 
0.072039 -0.16043 0.984415 0.072778 -0.159584 0.984498 -0.918058 0.388311 -0.0798948 
-0.0381418 -0.100777 0.994178 -0.244607 0.235498 -0.940589 0.14571 -0.222844 0.963903 
0.312498 -0.315273 0.896073 0.145767 -0.206015 0.967631 -0.627097 0.15767 0.762816 
-0.685467 0.343741 -0.641855 0.299453 -0.270041 0.915099 0.274437 -0.242295 0.930579 
-0.159829 -0.0455136 0.986095 -0.915341 0.396427 -0.0706845 -0.483287 0.142157 0.863843 
0.0345266 -0.114409 0.992834 0.11942 -0.117579 0.985857 -0.499816 0.279329 -0.819853 
0.05888 -0.0479312 0.997114 -0.368475 0.219517 -0.903349 0.261011 -0.206684 0.94295 
0.303947 -0.24593 0.920399 0.0647165 0.0116733 0.997835 0.374564 -0.338884 0.863052 
0.0692235 0.0594852 0.995826 -0.0905434 -0.111663 -0.989613 0.53945 -0.630938 0.557594 
-0.231882 0.0817359 -0.969304 0.418616 -0.407287 0.811713 0.249696 0.337653 -0.907547 
0.237031 0.352306 -0.905371 0.286568 0.267228 -0.920037 0.148785 0.194086 -0.969636 
0 -0.121763 -0.992559 0 -0.992432 -0.122797 -0.849089 -0.520497 -0.0901731 
0.849089 -0.520497 -0.0901731 -0.108349 -0.344077 -0.932669 -0.241692 -0.838348 0.488628 
-0.255672 -0.401407 -0.879491 0.164413 0.346341 -0.923589 0.291903 -0.814921 -0.500696 
0 0.184289 -0.982872 0.364111 0.412929 -0.834813 -0.135699 0.146622 -0.979841 
-0.135699 0.146622 -0.979841 -0.198003 0.825869 -0.527953 0.145231 0.845851 0.513268 