# vtk DataFile Version 4.2
vtk output
ASCII
DATASET POLYDATA
POINTS 2006 float
279.166 153.498 34.0805 279.09 153.939 33.9809 279.446 154.676 34.0971 
279.5 154.264 34.2342 278.847 156.309 33.7589 279.17 156.71 33.8687 
279.623 155.81 34.1697 279.594 156.641 34.1002 278.818 144.175 35.3126 
279.254 144.378 35.3282 279.161 144.124 35.3984 279.315 144.556 35.3411 
276.442 146.451 35.216 278.885 145.368 35.0247 278.361 146.218 34.8451 
279.392 146.585 34.9591 279.567 146.822 35.0195 279.543 146.426 35.1103 
279.611 147.135 35.0342 277.046 149.599 34.2563 279.419 150.27 34.8268 
278.381 151.732 34.0457 278.28 153.561 33.8336 279.691 156.129 34.2903 
279.682 156.548 34.3024 278.394 157.087 33.804 278.976 157.18 33.905 
279.565 157.074 34.2434 278.114 158.183 33.8863 279.233 157.542 34.089 
279.383 157.93 34.3351 279.541 157.5 34.3632 279.493 157.68 34.482 
277.748 160.172 33.9959 279.043 159.555 34.4709 278.806 143.435 35.6191 
278.64 143.56 35.624 278.948 143.551 35.555 278.895 143.452 35.5888 
278.948 143.469 35.5996 278.439 143.727 35.6213 278.995 143.808 35.4791 
278.252 144.212 35.4518 279.12 143.984 35.5419 279.219 144.129 35.4501 
279.247 144.235 35.4732 276.359 145.772 35.6239 275.387 147.138 35.4178 
279.418 145.474 35.3504 279.508 146.348 35.3148 279.605 146.583 35.1768 
279.62 146.786 35.2007 279.579 148.025 35.1502 274.547 149.776 34.6823 
279.433 152.476 34.9383 279.506 153.682 34.6493 269.068 155.851 34.9797 
271.422 156.012 34.3723 279.626 156.78 34.4259 279.578 157.258 34.4193 
279.159 159.036 34.6702 279.075 159.805 34.6728 279.003 160.264 34.7675 
278.858 161.133 34.6168 278.365 163.971 34.8594 276.362 168.185 34.7123 
277.735 167.16 35.0482 273.917 168.999 34.8162 277.519 168.579 35.0271 
274.253 170.152 35.1979 275.338 170.546 35.2406 277.491 170.697 35.2643 
277.595 170.428 35.3242 271.857 171.064 35.3576 272.546 170.909 35.4993 
273.053 170.455 35.3831 273.765 170.344 35.3985 274.695 170.482 35.4104 
275.636 171.045 35.4796 276.4 172.122 35.6132 276.33 171.643 35.4266 
277.672 171.655 35.4638 272.273 171.642 35.6276 276.718 172.616 35.5913 
277.742 172.583 35.5626 277.774 173.204 35.6415 278.731 143.433 35.6537 
278.789 143.416 35.6737 278.886 143.408 35.6331 278.41 143.703 35.7272 
278.646 143.492 35.6941 279.004 143.714 35.6306 277.797 144.173 35.7747 
277.475 144.506 35.7421 278.066 143.976 35.7647 279.004 143.917 35.6677 
274.947 147.001 35.9291 271.861 149.484 36.1623 272.511 149.069 36.1255 
271.074 150.162 36.1653 270.19 151.052 36.282 269.881 151.725 35.9661 
269.657 151.642 36.2979 279.397 149.414 35.3361 268.727 152.515 36.3316 
278.486 151.317 35.8068 266.308 154.873 36.4424 266.073 155.306 36.3258 
266.851 154.395 36.3237 266.206 155.572 36.1129 268.076 154.693 35.5563 
277.844 160.476 35.5097 278.992 159.715 34.849 278.461 161.602 35.1489 
278.735 161.252 34.9582 277.979 162.78 35.3427 278.03 164.715 35.1372 
264.137 167.785 35.3049 271.488 169.99 36.2947 277.005 168.691 35.5264 
277.544 168.828 35.2955 273.082 170.515 35.6596 274.07 170.27 35.5936 
274.988 170.439 35.587 275.909 170.932 35.628 272.486 171.363 35.803 
272.605 172.718 35.9101 274.748 174.444 36.0462 274.323 174.277 36.0436 
274.439 174.334 36.0132 275.215 174.505 36.0139 276.695 172.039 35.6961 
276.589 173.17 35.7723 277.574 171.212 35.5009 273.475 173.96 35.9708 
273.738 173.922 36.0282 275.795 174.457 36.0011 275.848 174.461 35.9565 
276.325 174.009 35.906 277.781 172.712 35.6339 269.21 174.113 36.0427 
270.593 173.933 36.0605 277.863 173.579 35.7416 269.165 175.251 36.4007 
269.803 174.463 36.4206 270.979 174.187 36.3077 271.681 174.351 36.236 
273.681 174.978 36.1111 277.932 174.78 35.9071 277.97 174.428 35.8722 
272.137 174.507 36.2061 272.732 174.843 36.2371 273.268 175.302 36.2855 
278.114 175.164 36.0041 278.248 175.69 36.0907 273.656 175.924 36.3446 
273.622 176.687 36.4606 278.869 143.419 35.6662 278.569 143.567 35.7404 
278.68 143.523 35.7335 277.639 144.288 35.8402 277.813 144.166 35.8684 
278.118 144.069 35.8899 278.5 143.718 35.7939 276.83 144.956 35.8809 
277.095 144.724 35.9201 277.48 144.456 35.9548 275.946 145.807 36.0573 
278.935 144.749 35.7956 275.576 146.118 36.2564 275.069 146.797 36.2839 
273.817 148.081 36.2931 271.898 149.435 36.332 272.406 149.181 36.4428 
270.785 150.289 36.3094 270.98 150.086 36.4274 270.537 150.501 36.3957 
277.115 148.416 36.4722 269.78 151.556 36.6081 267.624 153.391 36.4726 
267.819 153.185 36.5654 268.307 152.831 36.5949 267.212 153.854 36.4603 
275.391 152.312 36.6519 265.78 155.415 36.5386 264.684 156.445 36.8181 
263.021 157.981 37.2163 261.894 159.65 36.9372 260.675 160.519 37.443 
260.374 161.162 37.2494 261.112 161.816 36.5938 269.411 166.876 36.9075 
270.24 171.579 36.6421 259.453 173.3 36.7268 269.34 172.624 36.8624 
272.038 172.462 36.1995 273.207 173.815 36.1518 269.177 174.37 36.8316 
270.094 173.952 36.5778 269.012 174.974 36.9155 269.361 175.327 36.7437 
270.451 176.847 36.7089 270.862 177.078 36.7065 271.115 177.132 36.7373 
271.925 174.375 36.2923 272.841 174.771 36.2918 277.874 174.57 35.9422 
268.991 176.222 36.5049 269.793 176.281 36.6712 271.595 177.248 36.7003 
271.482 177.241 36.7351 271.827 177.28 36.7237 273.543 175.486 36.328 
273.807 176.326 36.4352 278.237 175.588 36.0872 272.457 177.24 36.6675 
272.441 177.235 36.6361 273.263 176.972 36.5711 273.229 176.919 36.5411 
278.276 175.816 36.1263 278.25 175.974 36.1471 278.087 176.231 36.1783 
278.181 176.141 36.1687 269.617 177.779 36.8805 276.534 176.767 36.3414 
277.999 176.289 36.2058 265.871 178.516 37.4036 266.868 178.199 37.2656 
269.079 177.935 37.0209 269.821 177.9 36.9781 270.548 177.92 36.9331 
270.686 177.904 36.8706 272.694 177.707 36.7049 273.466 177.525 36.6282 
274.134 177.412 36.5783 271.066 177.965 36.8788 271.436 177.978 36.8539 
271.869 177.931 36.8 272.207 177.85 36.7676 271.661 177.978 36.8283 
278.621 144.244 35.881 276.315 145.468 36.2694 275.989 145.713 36.2495 
277.442 145.057 36.2735 275.415 146.227 36.4096 275.769 145.928 36.3536 
276.896 145.637 36.414 278.004 146.027 36.2568 274.827 147.94 36.5902 
270.854 150.168 36.6048 271.332 149.93 36.5905 272.1 149.778 36.674 
270.258 150.721 36.6584 270.407 150.48 36.6796 270.329 150.554 36.7054 
270.322 150.623 36.7167 270.37 150.82 36.7362 270.55 151.349 36.8355 
267.781 153.275 36.7051 265.53 155.571 36.8106 265.136 155.981 36.9945 
264.65 156.458 37.0118 264.072 157.123 37.241 265.725 156.918 37.5152 
264.359 159.363 37.8458 260.179 160.885 37.7467 259.696 161.389 37.7677 
259.3 161.812 37.9494 258.714 162.723 37.6566 257.4 163.643 38.2034 
265.405 165.015 37.8056 250.927 168.286 39.011 251.986 168.69 38.4681 
270.569 176.866 36.7694 269.741 176.421 36.9124 270.699 177.009 36.8441 
271.33 177.194 36.7696 257.895 177.382 38.1294 271.324 177.306 36.8282 
272.186 177.338 36.7321 273.321 177.193 36.6241 257.391 177.921 38.4631 
258.319 178.044 38.5192 258.959 178.329 38.4557 259.023 178.151 38.2219 
259.382 178.754 38.4605 259.628 179.463 38.5524 266.686 178.175 37.4923 
265.688 178.493 37.76 269.983 177.758 37.0286 273.416 177.513 36.6588 
275.183 177.142 36.4928 259.536 180.056 38.6867 261.227 179.607 38.0782 
264.89 179.201 37.6966 265.444 178.852 37.7117 267.934 178.045 37.2405 
268.901 177.906 37.1281 272.47 177.736 36.7539 260.414 180.216 38.5756 
260.772 180.559 38.6537 263.492 180.162 38.0344 264.17 179.754 37.9278 
264.811 179.407 37.8792 262.915 180.888 38.3464 263.501 180.272 38.2159 
264.228 179.725 38.0331 269.004 183.013 38.0087 269.004 183.013 38.0087 
269.004 183.013 38.0087 269.004 183.013 38.0088 269.004 183.013 38.0088 
277.374 144.843 36.2075 276.075 145.741 36.3676 275.479 146.229 36.4293 
273.02 148.808 36.542 270.611 150.348 36.6812 270.427 150.52 36.7215 
265.671 155.6 37.0611 263.08 158.062 37.5603 261.839 159.215 37.7087 
261.522 159.469 37.6369 263.177 158.055 37.6091 263.836 158.196 37.6806 
262.168 159.872 37.9984 259.764 161.299 37.9045 260.074 161.049 37.9518 
259.208 162.019 38.1655 257.922 163.273 38.4175 261.15 162.27 38.4123 
262.416 163.294 38.337 248.346 169.808 39.723 256.999 175.306 39.4548 
257.623 177.074 39.1662 258.239 177.741 38.8799 257.616 178.39 38.8788 
256.992 178.605 38.6724 257.748 179.16 38.8709 257.737 179.049 38.9687 
258.001 179.486 38.9877 259.085 178.313 38.6404 258.372 179.763 38.892 
258.681 180.017 38.9433 259.715 179.172 38.6418 258.714 180.181 38.8579 
259.338 179.981 38.7796 260.239 179.965 38.6829 259.958 180.523 38.7841 
257.182 180.964 39.3543 257.712 181.09 39.2806 260.319 180.903 38.7894 
260.526 180.878 38.8073 262.238 180.489 38.6124 258.008 181.255 39.2691 
258.143 181.608 39.3626 262.785 181.03 38.5072 269.004 183.013 38.0088 
259.862 181.99 39.1273 262.561 181.466 38.5795 262.4 181.754 38.6831 
259.796 182.384 39.2672 260.093 182.321 39.1975 260.267 182.502 39.2128 
262.1 182.037 38.7903 262.24 181.925 38.7534 261.607 182.308 38.9356 
261.923 182.153 38.8469 263.237 157.916 37.5645 261.061 160.293 37.9691 
258.846 162.546 38.3477 259.23 162.663 38.4839 256.235 164.383 38.8861 
255.737 164.612 38.8775 254.612 165.221 39.1015 255.136 164.985 39.0876 
256.781 164.956 39.166 253.862 165.802 39.2036 251.658 167.209 39.4381 
250.82 167.906 39.3081 249.789 168.74 39.5672 247.419 170.061 40.1229 
248.214 169.642 40.0387 244.323 171.54 40.6679 242.929 173.344 40.5017 
257.011 178.065 39.3105 257.563 179.109 39.1486 257.452 180.626 39.4347 
256.96 180.883 39.6039 256.72 181.343 39.4534 257.821 181.16 39.336 
257.211 181.409 39.5527 258.368 181.277 39.3135 257.426 181.733 39.4936 
257.896 181.767 39.4918 254.839 182.122 39.9403 256.176 182.114 39.7776 
259.84 182.172 39.2344 260.24 182.406 39.2162 253.302 182.878 40.5544 
254.263 182.42 40.2292 255.243 182.27 40.0824 256.404 182.277 39.9072 
257.294 182.417 39.784 260.03 182.54 39.2845 259.865 182.593 39.3111 
[...]
POINT_DATA 2006
SCALARS scalars float
LOOKUP_TABLE default
1 1 1 1 1 1 1 1 1 
1 1 1 1 1 1 1 1 1 
1 1 1 1 1 1 1 1 1 
1 1 1 1 1 1 1 1 1 
1 1 1 1 1 1 1 1 1 
1 1 1 1 1 1 1 1 1 
1 1 1 1 1 1 1 1 1 
1 1 1 1 1 1 1 1 1 
1 1 1 1 1 1 1 1 1 
1 1 1 1 1 1 1 1 1 
1 1 1 1 1 1 1 1 1 
1 1 1 1 1 1 1 1 1 
1 1 1 1 1 1 1 1 1 
1 1 1 1 1 1 1 1 1 
1 1 1 1 1 1 1 1 1 
1 1 1 1 1 1 1 1 1 
1 1 1 1 1 1 1 1 1 
1 1 1 1 1 1 1 1 1 
1 1 1 1 1 1 1 1 1 
1 1 1 1 1 1 1 1 1 
1 1 1 1 1 1 1 1 1 
1 1 1 1 1 1 1 1 1 
1 1 1 1 1 1 1 1 1 
1 1 1 1 1 1 1 1 1 
1 1 1 1 1 1 1 1 1 
1 1 1 1 1 1 1 1 1 
1 1 1 1 1 1 1 1 1 
1 1 1 1 1 1 1 1 1 
1 1 1 1 1 1 1 1 1 
1 1 1 1 1 1 1 1 1 
1 1 1 1 1 1 1 1 1 
1 1 1 1 1 1 1 1 1 
1 1 1 1 1 1 1 1 1 
1 1 1 1 1 1 1 1 1 
1 1 1 1 1 1 1 1 1 
1 1 1 1 1 1 1 1 1 
1 1 1 1 1 1 1 1 1 
1 1 1 1 1 1 1 1 1 
1 1 1 1 1 1 1 1 1 
1 1 1 1 1 1 1 1 1 
1 1 1 1 1 1 1 1 1 
1 1 1 1 1 1 1 1 1 
1 1 1 1 1 1 1 1 1 
1 1 1 1 1 1 1 1 1 
1 1 1 1 1 1 1 1 1 
1 1 1 1 1 1 1 1 1 
1 1 1 1 1 1 1 1 1 
1 1 1 1 1 1 1 1 1 
1 1 1 1 1 1 1 1 1 
1 1 1 1 1 1 1 1 1 
1 1 1 1 1 1 1 1 1 
1 1 1 1 1 1 1 1 1 
1 1 1 1 1 1 1 1 1 
1 1 1 1 1 1 1 1 1 
1 1 1 1 1 1 1 1 1 
1 1 1 1 1 1 1 1 1 
1 1 1 1 1 1 1 1 1 
1 1 1 1 1 1 1 1 1 
1 1 1 1 1 1 1 1 1 
1 1 1 1 1 1 1 1 1 
1 1 1 1 1 1 1 1 1 
1 1 1 1 1 1 1 1 1 
1 1 1 1 1 1 1 1 1 
1 1 1 1 1 1 1 1 1 
1 1 1 1 1 1 1 1 1 
1 1 1 1 1 1 1 1 1 
1 1 1 1 1 1 1 1 1 
1 1 1 1 1 1 1 1 1 
1 1 1 1 1 1 1 1 1 
1 1 1 1 1 1 1 1 1 
1 1 1 1 1 1 1 1 1 
1 1 1 1 1 1 1 1 1 
1 1 1 1 1 1 1 1 1 
1 1 1 1 1 1 1 1 1 
1 1 1 1 1 1 1 1 1 
1 1 1 1 1 1 1 1 1 
1 1 1 1 1 1 1 1 1 
1 1 1 1 1 1 1 1 1 
1 1 1 1 1 1 1 1 1 
1 1 1 1 1 1 1 1 1 
1 1 1 1 1 1 1 1 1 
1 1 1 1 1 1 1 1 1 
1 1 1 1 1 1 1 1 1 
1 1 1 1 1 1 1 1 1 
1 1 1 1 1 1 1 1 1 
1 1 1 1 1 1 1 1 1 
1 1 1 1 1 1 1 1 1 
1 1 1 1 1 1 1 1 1 
1 1 1 1 1 1 1 1 1 
1 1 1 1 1 1 1 1 1 
1 1 1 1 1 1 1 1 1 
1 1 1 1 1 1 1 1 1 
1 1 1 1 1 1 1 1 1 
1 1 1 1 1 1 1 1 1 
1 1 1 1 1 1 1 1 1 
1 1 1 1 1 1 1 1 1 
1 1 1 1 1 1 1 1 1 
1 1 1 1 1 1 1 1 1 
1 1 1 1 1 1 1 1 1 
1 1 1 1 1 1 1 1 1 
1 1 1 1 1 1 1 1 1 
1 1 1 1 1 1 1 1 1 
1 1 1 1 1 1 1 1 1 
1 1 1 1 1 1 1 1 1 
1 1 1 1 1 1 1 1 1 
1 1 1 1 1 1 1 1 1 
1 1 1 1 1 1 1 1 1 
1 1 1 1 1 1 1 1 1 
1 1 1 1 1 1 1 1 1 
1 1 1 1 1 1 1 1 1 
1 1 1 1 1 1 1 1 1 
1 1 1 1 1 1 1 1 1 
1 1 1 1 1 1 1 1 1 
1 1 1 1 1 1 1 1 1 
1 1 1 1 1 1 1 1 1 
1 1 1 1 1 1 1 1 1 
1 1 1 1 1 1 1 1 1 
1 1 1 1 1 1 1 1 1 
1 1 1 1 1 1 1 1 1 
1 1 1 1 1 1 1 1 1 
1 1 1 1 1 1 1 1 1 
1 1 1 1 1 1 1 1 1 
1 1 1 1 1 1 1 1 1 
1 1 1 1 1 1 1 1 1 
1 1 1 1 1 1 1 1 1 
1 1 1 1 1 1 1 1 1 
1 1 1 1 1 1 1 1 1 
1 1 1 1 1 1 1 1 1 
1 1 1 1 1 1 1 1 1 
1 1 1 1 1 1 1 1 1 
1 1 1 1 1 1 1 1 1 
1 1 1 1 1 1 1 1 1 
1 1 1 1 1 1 1 1 1 
1 1 1 1 1 1 1 1 1 
1 1 1 1 1 1 1 1 1 
1 1 1 1 1 1 1 1 1 
1 1 1 1 1 1 1 1 1 
1 1 1 1 1 1 1 1 1 
1 1 1 1 1 1 1 1 1 
1 1 1 1 1 1 1 1 1 
1 1 1 1 1 1 1 1 1 
1 1 1 1 1 1 1 1 1 
1 1 1 1 1 1 1 1 1 
1 1 1 1 1 1 1 1 1 
1 1 1 1 1 1 1 1 1 
1 1 1 1 1 1 1 1 1 
1 1 1 1 1 1 1 1 1 
1 1 1 1 1 1 1 1 1 
1 1 1 1 1 1 1 1 1 
1 1 1 1 1 1 1 1 1 
1 1 1 1 1 1 1 1 1 
1 1 1 1 1 1 1 1 1 
1 1 1 1 1 1 1 1 1 
1 1 1 1 1 1 1 1 1 
1 1 1 1 1 1 1 1 1 
1 1 1 1 1 1 1 1 1 
1 1 1 1 1 1 1 1 1 
1 1 1 1 1 1 1 1 1 
1 1 1 1 1 1 1 1 1 
1 1 1 1 1 1 1 1 1 
1 1 1 1 1 1 1 1 1 
1 1 1 1 1 1 1 1 1 
1 1 1 1 1 1 1 1 1 
1 1 1 1 1 1 1 1 1 
1 1 1 1 1 1 1 1 1 
1 1 1 1 1 1 1 1 1 
1 1 1 1 1 1 1 1 1 
1 1 1 1 1 1 1 1 1 
1 1 1 1 1 1 1 1 1 
1 1 1 1 1 1 1 1 1 
1 1 1 1 1 1 1 1 1 
1 1 1 1 1 1 1 1 1 
1 1 1 1 1 1 1 1 1 
1 1 1 1 1 1 1 1 1 
1 1 1 1 1 1 1 1 1 
1 1 1 1 1 1 1 1 1 
1 1 1 1 1 1 1 1 1 
1 1 1 1 1 1 1 1 1 
1 1 1 1 1 1 1 1 1 
1 1 1 1 1 1 1 1 1 
1 1 1 1 1 1 1 1 1 
1 1 1 1 1 1 1 1 1 
1 1 1 1 1 1 1 1 1 
1 1 1 1 1 1 1 1 1 
1 1 1 1 1 1 1 1 1 
1 1 1 1 1 1 1 1 1 
1 1 1 1 1 1 1 1 1 
1 1 1 1 1 1 1 1 1 
1 1 1 1 1 1 1 1 1 
1 1 1 1 1 1 1 1 1 
1 1 1 1 1 1 1 1 1 
1 1 1 1 1 1 1 1 1 
1 1 1 1 1 1 1 1 1 
1 1 1 1 1 1 1 1 1 
1 1 1 1 1 1 1 1 1 
1 1 1 1 1 1 1 1 1 
1 1 1 1 1 1 1 1 1 
1 1 1 1 1 1 1 1 1 
1 1 1 1 1 1 1 1 1 
1 1 1 1 1 1 1 1 1 
1 1 1 1 1 1 1 1 1 
1 1 1 1 1 1 1 1 1 
1 1 1 1 1 1 1 1 1 
1 1 1 1 1 1 1 1 1 
1 1 1 1 1 1 1 1 1 
1 1 1 1 1 1 1 1 1 
1 1 1 1 1 1 1 1 1 
1 1 1 1 1 1 1 1 1 
1 1 1 1 1 1 1 1 1 
1 1 1 1 1 1 1 1 1 
1 1 1 1 1 1 1 1 1 
1 1 1 1 1 1 1 1 1 
1 1 1 1 1 1 1 1 1 
1 1 1 1 1 1 1 1 1 
1 1 1 1 1 1 1 1 1 
1 1 1 1 1 1 1 1 1 
1 1 1 1 1 1 1 1 1 
1 1 1 1 1 1 1 1 1 
1 1 1 1 1 1 1 1 1 
1 1 1 1 1 1 1 1 1 
1 1 1 1 1 1 1 1 1 
1 1 1 1 1 1 1 1 1 
1 1 1 1 1 1 1 1 
NORMALS Normals float
0.582771 -0.221899 -0.781754 0.407261 -0.0887953 -0.908985 0.484769 -0.0581418 -0.872708 
0.890791 -0.144997 -0.430658 0.290806 -0.0257164 -0.956437 0.32199 0.108166 -0.940544 
0.770814 -0.0380296 -0.635924 0.660841 0.102407 -0.743507 -0.024795 -0.261059 -0.965004 
0.532733 -0.294356 -0.793442 0.505864 -0.487211 -0.711848 0.944978 -0.184585 -0.270085 
-0.381983 -0.352505 -0.8543 0.054087 -0.234252 -0.97067 -0.0757083 -0.16877 -0.982744 
0.376704 -0.13422 -0.916558 0.716526 -0.128879 -0.685552 0.88053 -0.225355 -0.416992 
0.767979 -0.0388661 -0.639295 -0.00565934 -0.146182 -0.989241 0.957753 -0.00441014 -0.287557 
0.346197 -0.158211 -0.924725 -0.00099397 -0.0490877 -0.998794 0.99882 -0.0309943 -0.0373824 
0.97842 0.0930789 -0.184474 0.0443573 0.138778 -0.98933 0.29568 0.244974 -0.923342 
0.891696 0.195482 -0.408246 0.0884982 0.13643 -0.986689 0.426764 0.269249 -0.863352 
0.740355 0.264634 -0.617934 0.950128 0.22176 -0.219268 0.950455 0.201363 0.236829 
0.0430965 0.103212 -0.993725 0.731227 0.167965 -0.661131 -0.244901 -0.611856 -0.752101 
-0.471015 -0.512327 -0.718099 0.0269468 -0.31214 -0.949654 0.0739033 -0.543854 -0.835919 
0.838352 -0.508227 -0.197156 -0.399427 -0.507018 -0.7638 0.417462 -0.419937 -0.80584 
-0.405372 -0.285323 -0.868484 0.905834 -0.407204 0.11683 0.863923 -0.431932 -0.258982 
0.826505 -0.145027 0.543927 -0.570331 -0.442507 -0.692033 -0.450738 -0.398028 -0.799005 
0.97401 -0.0995161 0.203471 0.858584 -0.0806574 0.506289 0.977757 -0.171783 -0.120337 
0.891815 -0.00916271 0.452308 0.986721 0.0604451 0.150761 -0.32267 -0.2946 -0.899497 
0.87228 0.0579875 0.485557 0.995774 -0.0576016 0.071524 -0.17499 -0.184389 -0.96715 
-0.255887 -0.150442 -0.954929 0.928646 0.0767056 0.362951 0.989181 0.12333 0.0794351 
0.972017 0.161565 0.170527 0.991312 0.116747 0.0605806 0.891217 0.106248 0.440958 
0.904896 0.171431 -0.389582 0.968747 0.178733 0.171996 0.184299 0.19346 -0.963643 
0.940233 0.0996676 0.32562 0.0196132 0.267558 -0.963342 0.460338 0.196391 -0.865748 
-0.0680593 0.604671 -0.793562 -0.139792 0.381652 -0.913674 0.336021 0.122567 -0.933845 
0.98932 0.0108091 -0.145359 0.140401 0.333845 -0.932113 0.550678 0.522097 -0.651283 
0.258016 0.718987 -0.645356 0.0752498 0.972288 -0.221346 -0.288035 0.951537 -0.107762 
-0.416418 0.520362 -0.745533 -0.468916 0.321527 -0.822641 -0.326969 0.355574 -0.87559 
0.607047 0.0700008 -0.791577 0.425216 0.256134 -0.868094 -0.195628 0.215637 -0.956677 
0.539972 0.0578712 -0.839691 0.199691 0.140681 -0.969707 -0.449952 -0.811128 -0.37365 
-0.168632 -0.931594 0.322018 0.209746 -0.951585 -0.224706 -0.631 -0.75742 0.167792 
-0.551381 -0.813509 0.184886 0.661528 -0.182748 0.727313 -0.589728 -0.740345 -0.322662 
-0.549091 -0.53762 -0.639893 -0.590506 -0.775624 -0.222958 0.630355 -0.107729 0.768796 
-0.68643 -0.67409 -0.272794 -0.529694 -0.702953 -0.474638 -0.549702 -0.765 -0.335563 
-0.505445 -0.490058 -0.710189 -0.719955 -0.572108 -0.392884 -0.512048 -0.451673 -0.730615 
-0.684647 -0.686631 -0.244535 0.849448 0.0496134 0.525335 -0.581983 -0.563696 -0.586126 
0.44546 0.078914 0.891817 -0.590947 -0.552708 -0.587619 -0.56092 -0.407785 -0.720472 
-0.595456 -0.572481 -0.563646 -0.464798 -0.31467 -0.827615 -0.310144 -0.41784 -0.853944 
0.208817 0.0424359 0.977034 0.726439 0.0618443 0.684442 0.59296 0.0603982 0.802963 
0.696933 0.105375 0.709352 0.423031 0.113312 0.899002 0.30114 0.0737783 0.950722 
-0.156713 0.0632398 -0.985617 0.234908 0.0560866 0.970398 0.231932 -0.0372274 0.972019 
0.652263 -0.0641312 0.755275 0.482304 0.861949 0.156292 0.0625825 0.546522 0.835103 
-0.18048 0.393369 0.901492 -0.133461 0.0952017 0.986471 0.7081 0.311085 -0.633893 
0.228923 0.0568527 -0.971783 0.203459 -0.588558 0.782435 0.263552 -0.490249 0.830781 
0.326769 -0.704148 -0.630395 0.0723337 -0.235752 0.969118 -0.067891 -0.0411678 0.996843 
-0.204641 0.206361 -0.956837 0.51752 -0.113397 0.848124 0.0585976 -0.0100387 -0.998231 
0.561899 -0.82573 0.0493963 -0.342656 -0.80628 -0.482182 -0.232484 -0.354107 -0.905847 
-0.206473 -0.033186 -0.977889 0.989648 -0.109599 0.0926497 0.0744538 0.319369 -0.944701 
-0.0579232 0.509728 -0.858384 0.986271 -0.112375 0.121001 0.279193 0.18875 -0.941501 
0.627173 0.771954 -0.103643 -0.0952205 0.993377 0.0643001 -0.269795 0.958607 0.0910139 
-0.120389 0.322158 -0.939 0.080754 0.161627 -0.983542 0.441465 0.0914515 -0.892606 
-0.361327 0.915763 -0.17556 -0.509589 0.859972 0.0276964 -0.194282 0.261366 -0.945485 
0.43804 0.0461566 -0.89777 0.503515 0.0652364 -0.86152 -0.0766084 0.198159 -0.977172 
-0.0912977 0.132578 -0.986959 0.413714 -0.370055 0.831805 -0.393224 -0.618223 0.68057 
-0.0238249 -0.440988 0.897197 -0.66592 -0.744572 -0.0465097 -0.483605 -0.776653 0.403653 
-0.131394 -0.407757 0.903587 -0.0651597 -0.327699 0.942532 -0.626181 -0.68701 -0.368666 
-0.612974 -0.789781 -0.0225574 -0.517183 -0.737487 0.43432 -0.673414 -0.567782 -0.473431 
0.408847 -0.0256079 0.912244 -0.70718 -0.648843 -0.280889 -0.754087 -0.51642 0.405788 
-0.508269 -0.6589 0.554539 -0.53099 -0.834581 0.146712 -0.483118 -0.72016 0.497963 
-0.614544 -0.626799 -0.479019 -0.588848 -0.798091 -0.127706 -0.683079 -0.567387 -0.459865 
0.188801 0.0144881 0.981909 -0.687982 -0.590582 0.421775 -0.418115 -0.640875 -0.643785 
-0.680414 -0.72934 0.0714113 -0.630987 -0.77021 -0.0929102 -0.647821 -0.606224 -0.461324 
0.167005 0.00672621 0.985933 -0.689973 -0.535675 -0.486816 -0.708601 -0.660495 -0.248257 
-0.679101 -0.700939 -0.217958 -0.517792 -0.527597 -0.673449 -0.65458 -0.643859 -0.396195 
-0.593169 -0.34047 -0.729542 -0.408722 -0.197444 -0.891045 0.214562 0.0164389 0.976572 
0.222976 -0.0672692 0.9725 -0.105355 0.24731 -0.963192 0.275247 -0.0135749 0.961278 
0.284389 -0.133849 0.94932 0.292039 -0.312795 0.90381 0.487172 0.116486 0.865502 
0.220353 0.306127 0.926138 0.370315 -0.111185 0.922228 0.896357 -0.132156 0.423177 
0.378402 -0.540372 -0.751538 0.199017 -0.415163 -0.887712 0.29432 -0.923571 -0.245749 
-0.185761 0.663078 0.725134 -0.0573301 0.0806249 0.995094 0.176165 -0.150523 0.972784 
0.0579251 0.00536685 -0.998307 0.715675 -0.475327 -0.511736 0.0354141 -0.60626 -0.794477 
0.198316 -0.980103 0.00827952 0.103972 -0.961456 0.254542 -0.195152 -0.00210172 0.980771 
-0.193714 -0.146317 0.970086 -0.197081 -0.133246 0.97129 -0.027526 -0.696913 0.716627 
-0.126696 -0.861739 0.491278 0.0896791 -0.495575 0.863923 -0.144432 -0.412332 0.899512 
-0.0251984 -0.13483 0.990548 0.0108237 0.121752 -0.992501 -0.172249 0.0106522 -0.984996 
0.0359969 0.143391 -0.989011 -0.0490791 0.522769 -0.85106 0.0471068 0.461117 -0.886088 
-0.115517 0.110215 -0.987172 0.280947 0.763081 -0.582044 -0.00442256 0.72022 -0.693732 
0.0917138 0.991806 -0.0889389 0.0256774 0.995981 0.0858039 -0.00871613 0.86094 0.508631 
-0.0654161 0.581061 -0.811227 -0.0667845 0.169612 -0.983246 -0.0643462 0.181595 -0.981266 
0.0285118 0.430851 -0.901973 -0.0790324 0.932785 -0.351661 0.0872684 0.343093 0.935239 
-0.0736484 0.172882 -0.982185 -0.0636481 0.174418 -0.982613 -0.0729227 0.408553 -0.909817 
0.310632 -0.080748 0.947094 -0.411882 -0.626907 0.661318 -0.64579 -0.747143 0.157264 
0.177411 -0.298103 0.937902 -0.675747 -0.593177 0.437615 -0.36451 -0.522347 0.7709 
0.0632066 -0.134415 0.988907 0.377417 -0.0965314 0.920998 -0.160339 -0.197854 0.967029 
-0.486796 -0.839124 0.242694 -0.37949 -0.726847 0.572434 -0.12954 -0.302222 0.944395 
-0.897231 -0.42704 0.112314 -0.652188 -0.756104 0.0543842 -0.677238 -0.478671 0.558768 
-0.462428 -0.0951317 0.881538 -0.232236 -0.0759648 0.969689 -0.12593 -0.140103 0.982096 
-0.470686 -0.561969 0.68018 -0.716578 -0.695001 -0.0590711 -0.69711 -0.702783 0.141896 
-0.676144 -0.675543 0.294058 -0.549789 -0.674751 0.492384 0.0237657 -0.211236 0.977146 
0.0988463 0.0641998 0.99303 -0.695028 -0.712512 -0.0962489 -0.709247 -0.542965 -0.449619 
-0.70713 -0.682186 0.185984 -0.610877 -0.439726 -0.658385 -0.554519 -0.577245 -0.599414 
0.0413124 0.301478 0.952578 -0.44707 -0.557367 -0.699621 -0.255639 -0.139058 -0.956719 
0.490631 -0.850261 -0.190626 0.42241 -0.256674 0.869303 0.221205 -0.385287 0.895892 
0.274915 -0.943649 0.18425 -0.248583 0.410169 -0.877478 0.136156 -0.206958 0.968829 
0.0948018 -0.433769 0.896023 0.255845 -0.29661 0.92009 0.0683397 0.490817 -0.868578 
-0.188418 0.940529 -0.282674 -0.567288 0.814484 -0.121658 -0.29347 0.480539 -0.826412 
-0.762959 0.615395 -0.197946 -0.613034 0.144109 -0.776802 0.363927 0.696725 0.618168 
0.308768 0.173926 0.9351 0.0941545 0.139636 0.985716 0.287133 0.171653 0.942385 
0.112469 0.0326932 0.993117 -0.230499 0.0649028 -0.970906 -0.13294 0.324557 -0.936477 
0.26142 0.630807 -0.730577 0.583068 0.806743 0.0959011 0.188736 0.657027 0.729859 
0.132013 0.370003 0.919603 0.163532 0.275924 0.947166 -0.0392862 0.999059 -0.0183605 
-0.267163 -0.151582 0.951655 0.236884 0.545242 -0.804112 0.324688 0.712474 -0.622059 
0.594131 0.80022 0.0815799 0.539055 0.646947 -0.539332 0.773736 0.514584 0.369508 
0.258284 0.163387 0.952152 0.152159 -0.65841 -0.737118 -0.447235 0.35268 -0.821947 
0.292413 0.444738 -0.846583 0.447235 -0.35268 0.821947 -0.152159 0.65841 0.737118 
0.0626176 -0.44253 0.894565 -0.31629 -0.497801 0.807561 -0.263519 -0.201454 0.943384 
-0.211858 -0.337941 0.917013 -0.21622 -0.466817 0.857514 -0.178863 -0.305753 0.935159 
-0.437564 -0.546613 0.713969 -0.54558 -0.346666 0.762998 -0.4199 -0.537354 0.731392 
-0.655174 -0.676046 0.337208 -0.287266 0.0123608 0.957771 -0.090519 -0.0994496 0.990917 
-0.0254357 -0.0777938 0.996645 -0.693171 -0.692539 0.19976 -0.581864 -0.637341 0.505204 
-0.397026 -0.530262 0.749128 -0.465366 -0.735673 0.492159 0.0320649 -0.218816 0.975239 
0.195422 -0.101863 0.975415 -0.46826 -0.730225 -0.497498 0.251857 0.0106518 0.967706 
0.193087 0.232511 0.953234 0.118217 0.534211 0.837044 0.910324 0.306299 0.278373 
0.130179 0.221072 -0.96653 0.739835 -0.461863 -0.48921 0.891446 -0.364084 0.269751 
0.714964 -0.681917 0.154322 -0.327709 0.541299 0.77434 0.607401 -0.787364 -0.105461 
0.477644 -0.583106 0.657148 -0.497863 0.0163426 0.867102 0.00288392 -0.0336026 -0.999431 
-0.480008 -0.17998 -0.858603 0.0839555 0.0389268 0.995709 0.082076 0.470308 -0.878677 
-0.155639 0.363392 -0.918544 -0.286706 0.559607 -0.777586 -0.105685 0.147347 -0.983422 
0.0792801 -0.0617607 -0.994937 0.157963 -0.319155 0.934445 -0.315202 0.433855 -0.844049 
-0.230898 0.311258 -0.921848 0.650681 0.289252 0.702102 -0.292413 -0.444738 0.846583 
-0.209549 0.285642 -0.935146 -0.206657 0.206064 -0.956468 0.0911806 0.435373 -0.895621 
-0.140799 0.276944 -0.950514 -0.278048 0.381588 -0.881521 -0.206952 0.270996 -0.94007 
0.270702 0.665432 -0.695644 0.522906 0.254634 0.813469 -0.100493 0.388341 -0.91602 
0.448635 0.879002 -0.161498 -0.372978 -0.551273 0.746315 -0.111166 -0.257245 0.959931 
-0.426285 -0.541793 0.72439 -0.0871731 -0.152201 0.984498 -0.235963 -0.628112 0.741483 
-0.341398 -0.792381 0.505549 -0.513301 -0.85704 0.0447658 -0.231755 -0.720037 0.654092 
0.12071 -0.0559066 0.991112 -0.598924 -0.77789 0.190204 -0.547688 -0.83088 -0.0983682 
-0.513008 -0.619873 -0.593784 -0.591279 -0.646862 -0.481621 -0.450771 -0.773511 -0.445517 
-0.37486 -0.865678 -0.331784 -0.400835 -0.534761 -0.743883 -0.413365 -0.314181 -0.854646 
0.501325 -0.00510346 0.865244 0.502853 -0.285081 0.816007 0.207842 0.133911 0.968953 
0.490197 -0.0227594 0.871315 -0.0342062 0.128037 -0.991179 0.0101469 0.0947789 0.995447 
0.130198 -0.0384489 -0.990742 0.141574 -0.137268 0.980364 0.000724044 0.0327572 -0.999463 
0.00972894 -0.185949 -0.982511 -0.0655441 0.491303 -0.868519 -0.150258 0.597987 -0.787296 
0.097668 -0.0180694 0.995055 0.130251 -0.276256 0.952217 0.523671 0.837746 -0.15476 
0.235901 0.922891 -0.30434 0.0804883 0.98646 -0.142892 0.00626623 0.933464 0.358617 
-0.0880148 0.828265 0.553381 -0.0815581 0.230302 -0.969696 -0.165672 0.230982 -0.958749 
0.506006 0.4001 0.764119 0.126943 -0.283937 0.950403 -0.224716 0.967005 -0.12002 
-0.19283 0.273874 -0.942236 -0.19031 0.268384 -0.944326 -0.198469 0.251697 -0.947237 
-0.185928 0.084116 -0.978956 -0.173227 0.217284 -0.960614 -0.158527 0.291099 -0.943467 
0.0314199 0.90583 -0.422475 -0.0829979 0.678184 -0.73019 0.187477 -0.204662 0.960711 
-0.544402 -0.789482 0.283451 -0.0549343 -0.422652 0.904626 -0.0778146 -0.407793 0.909752 
-0.478559 -0.805249 0.350079 -0.601136 -0.798804 -0.0234088 -0.34934 -0.745679 0.567383 
-0.183103 -0.316902 0.930616 -0.396093 -0.682132 -0.614659 -0.474923 -0.877579 0.0655979 
-0.466184 -0.649209 -0.600999 -0.419952 -0.832718 -0.360862 -0.548801 -0.47357 -0.688875 
-0.492945 -0.752029 -0.437559 -0.464185 -0.808551 -0.361631 -0.317213 -0.127464 -0.939749 
-0.143013 0.265458 -0.953457 0.344376 -0.0443097 0.937786 0.168557 -0.265501 0.949262 
0.400136 0.644512 0.651533 0.609662 0.424418 0.669463 0.210198 0.447615 0.869171 
0.205183 0.0803253 0.975422 -0.0256769 0.486593 -0.873252 0.779807 0.572878 0.252411 
0.372413 0.634194 -0.677574 0.868053 0.473324 0.149828 0.104011 0.138263 0.984919 
0.674183 0.599194 -0.431792 0.708323 0.682417 0.180515 0.165838 -0.0746827 0.983321 
0.190822 0.124802 0.973659 0.238456 0.349098 0.906239 0.170201 -0.17501 0.969744 
0.376901 0.786765 -0.488821 0.587644 0.798323 0.13174 0.535873 0.480679 0.694109 
0.447214 -0.894427 0 0.447214 -0.894427 0 0.447214 -0.894427 0 
0.447214 -0.894427 0 0.447214 -0.894427 0 0.447214 -0.894427 0 
0.447214 -0.894427 0 -0.447214 0.894427 0 -0.447214 0.894427 0 
0.447214 -0.894427 0 0.447214 -0.894427 0 0.447214 -0.894427 0 
-0.447214 0.894427 0 0 0 0 -0.447214 0.894427 0 
-0.447214 0.894427 0 -0.447214 0.894427 0 -0.351164 -0.708462 0.612181 
-0.312828 -0.544281 0.778394 -0.457326 -0.688723 0.562595 -0.173171 -0.409524 0.895713 
-0.0190223 -0.352465 0.935631 -0.402075 -0.912785 -0.0718247 -0.316687 -0.940293 0.124735 
-0.227651 -0.842935 0.487479 -0.173812 -0.959605 0.221242 -0.198284 -0.583852 -0.787274 
-0.221057 -0.074563 -0.972406 0.426378 0.014635 0.904427 0.54695 0.156342 0.822437 
0.575422 0.318928 0.75311 0.77119 0.632962 0.0680126 0.339938 0.615138 -0.71137 
0.764552 0.323945 0.557244 -0.447214 0.894427 0 0.447214 -0.894427 0 
-0.0174499 0.557508 -0.829988 0.611899 0.69787 -0.372232 -0.447214 0.894427 0 
-0.447214 0.894427 0 0.447214 -0.894427 0 0.0505357 0.752909 -0.656182 
0.685612 0.334552 0.646538 0.335559 0.801646 -0.494736 0.534435 0.79414 -0.289346 
-0.22786 -0.779229 -0.583851 -0.197268 -0.979491 -0.0410143 0.0289002 -0.838591 0.543994 
-0.0311293 -0.76642 0.641585 0.0886623 -0.507311 0.85719 0.0014526 -0.460117 0.887857 
-0.33557 -0.562922 -0.755322 -0.297672 -0.377435 -0.876889 -0.19808 0.399952 -0.894876 
0.310734 -0.0827915 0.946884 0.484816 0.0904952 0.869922 -0.558445 -0.744241 -0.366394 
0.599161 0.36089 0.714678 0.207223 0.92574 -0.316329 0.216101 0.974079 0.0668589 
0.512509 0.762296 0.39527 0.611154 0.721495 0.325478 0.066359 0.96312 -0.26076 
0.4293 0.864453 0.261577 -0.178955 -0.672721 -0.717929 -0.223717 -0.93042 -0.290293 
-0.0588252 -0.974566 0.216241 -0.0438597 -0.95965 0.277757 0.240326 -0.589541 0.771158 
0.288825 -0.370899 0.882617 -0.176718 -0.586365 -0.790536 -0.126837 -0.8846 -0.448772 
-0.193703 -0.923305 -0.331644 -0.341846 -0.0413457 -0.938846 -0.286643 0.058168 -0.95627 
0.331813 0.00966699 0.943296 -0.0445273 0.625085 -0.779286 -0.0845847 0.619427 -0.780484 