# vtk DataFile Version 4.2
vtk output
ASCII
DATASET POLYDATA
POINTS 1504 float
280.093 154.021 24.3098 280.588 154.781 24.3717 280.605 154.481 24.5114 
280.64 155.237 24.3135 280.811 155.519 24.4653 279.515 157.189 23.6492 
280.876 156.946 24.4142 280.67 158.117 24.1163 280.311 159.328 23.84 
279.766 167.906 23.7557 280.344 168.047 24.2272 279.238 169.638 23.6387 
280.348 168.632 24.3795 279.597 170.358 23.9231 279.356 170.687 23.8629 
278.999 172.016 23.8991 278.857 172.144 23.9059 279.082 171.854 23.9231 
278.085 145.101 25.4211 278.723 145.939 25.2296 279.358 145.247 25.5976 
279.399 146.939 25.2443 280.064 151.088 25.1607 280.263 152.567 25.0358 
280.388 153.791 24.6227 277.487 154.829 23.6649 280.83 155.151 24.6575 
280.596 167.439 24.5331 280.327 169.801 24.8498 278.909 171.056 23.8019 
280.221 170.812 24.7653 278.321 171.892 23.8124 279.423 172.118 24.158 
279.968 172.511 24.5703 279.399 173.094 24.3049 280.321 173.44 25.0597 
280.015 174.092 24.8474 275.851 177.738 24.6706 278.455 143.252 26.1066 
278.565 143.252 26.113 278.197 144.025 25.7952 278.489 143.867 25.8221 
279.137 144.303 25.8633 277.033 145.399 25.5605 275.55 146.501 25.6578 
274.387 147.607 25.6131 276.508 146.608 25.2509 279.53 145.383 25.7527 
274.89 148.067 25.2429 279.851 147.133 25.6976 279.83 147.687 25.419 
276.295 150.881 24.2814 280.536 153.499 25.3613 280.931 156.932 25.0306 
280.962 158.526 24.9272 280.686 165.652 25.033 280.324 169.322 25.1402 
280.369 172.522 25.1466 280.319 174.18 25.2873 280.152 175.345 25.4444 
280.086 175.651 25.6022 276.923 179.102 25.6619 277.815 178.624 25.7657 
278.776 178.124 25.9605 274.453 180.146 25.5629 275.592 180.226 25.9987 
278.469 143.209 26.1805 278.618 143.235 26.1812 277.645 143.772 26.1832 
277.793 143.611 26.2512 278.744 143.316 26.185 277.323 144.094 26.1918 
278.883 143.608 26.0246 278.877 143.493 26.1385 278.984 143.732 26.0566 
279.119 144.099 26.0552 275.364 145.541 26.6425 273.18 146.979 26.7954 
272.731 147.368 26.6676 274.112 146.812 26.2547 279.477 145.069 25.977 
279.856 147.356 25.8721 271.453 149.759 25.7786 268.51 151.571 26.3012 
269.658 151.711 25.7425 280.607 156.388 25.6894 280.847 158.853 25.2644 
261.079 165.665 25.9084 260.05 170.637 25.9862 280.215 175.11 25.8532 
280.216 175.251 25.6293 279.799 176.466 26.034 264.023 180.023 25.8399 
279.004 177.987 26.0755 279.052 178.018 26.3224 279.327 177.584 26.3125 
278.311 178.783 26.3697 276.698 179.854 26.2435 276.311 180.18 26.4273 
277.789 179.218 26.4489 265.96 182.727 26.2126 273.523 181.279 26.0047 
273.445 182 26.6471 266.856 184.348 26.9212 270.858 183.234 26.8658 
267.348 184.896 27.4139 269.089 184.152 27.2462 278.5 143.216 26.2677 
278.314 143.268 26.2612 278.651 143.258 26.2685 278.133 143.405 26.3663 
278.796 143.39 26.2632 277.487 143.884 26.4804 278.919 143.557 26.2233 
275.908 145.084 26.6355 276.188 144.877 26.7455 276.729 144.522 26.6849 
279.132 144.354 26.2552 274.505 146.107 26.9275 279.311 144.766 26.2008 
272.998 146.959 27.0538 271.147 148.208 27.0801 269.136 149.771 27.0964 
267.698 150.897 27.5776 267.24 151.347 27.4703 268.509 150.558 26.9343 
266.956 151.857 27.2053 265.932 152.59 27.5842 265.744 153.326 27.132 
280.221 151.764 26.2075 280.235 152.581 26.0909 280.301 155.754 26.0301 
261.708 158.842 27.0481 280.274 157.733 26.0259 262.88 159.076 26.3672 
279.419 158.018 26.6146 261.233 160.691 26.6634 280.582 160.145 25.6144 
258.622 163.08 27.2735 278.537 162.116 26.8084 279.106 162.995 26.5039 
257.065 167.785 27.0576 280.091 174.415 26.2419 280.06 175.319 26.1695 
279.424 177.32 26.4606 278.908 178.207 26.5721 278.092 179.028 26.5614 
277.872 179.172 26.6976 278.253 178.817 26.7186 274.158 181.702 27.0354 
275.619 180.667 26.9722 273.04 182.462 27.3718 265.788 183.741 26.602 
262.052 185.443 27.5493 271.75 183.157 27.2304 268.823 184.534 27.5966 
278.529 143.276 26.3417 278.362 143.305 26.358 278.767 143.471 26.351 
276.256 144.961 26.9892 277.143 144.432 26.8347 275.141 145.582 27.3574 
274.731 145.879 27.3248 275.675 145.346 27.1767 272.623 147.17 27.1915 
274.099 146.466 27.3619 279.22 145.906 26.5047 271.549 147.925 27.4749 
269.968 148.954 27.33 270.137 148.834 27.4756 269.906 148.95 27.4419 
277.369 147.276 27.4531 279.552 147.112 26.3588 269.733 149.136 27.4271 
278.992 148.395 26.9282 277.9 149.653 27.4612 279.676 148.724 26.4193 
279.425 149.852 26.7356 265.755 152.643 27.8854 273.938 154.155 28.3758 
262.139 156.604 28.2982 261.668 157.1 28.4275 260.741 158.353 28.1534 
260.282 158.624 28.5064 261.512 157.862 27.7447 278.189 156.551 27.2378 
258.677 161.682 27.7596 256.53 163.1 28.6015 257.902 163.406 27.5563 
275.302 175.854 28.1308 279.608 176.412 26.5707 279.234 177.481 26.6791 
278.991 177.776 26.7943 278.392 178.488 26.9162 276.124 180.321 27.1255 
271.644 183.255 27.5219 271.696 183.145 27.9651 270.878 183.673 27.6339 
262.252 185.961 27.8159 267.548 185.285 28.0471 268.908 184.662 27.975 
267.467 185.404 28.4104 261.989 187.092 28.6208 263.694 186.601 28.3861 
262.958 187.117 28.8577 278.443 143.706 26.5233 278.637 143.556 26.4315 
274.881 145.696 27.4506 274.967 145.655 27.4981 274.854 145.71 27.5108 
275.488 145.54 27.4058 276.282 145.412 27.292 274.775 145.814 27.4886 
274.626 146.141 27.5395 271.462 148.12 27.693 274.389 146.975 27.7219 
269.869 149.004 27.5107 269.546 149.631 27.9399 267.738 150.902 28.0431 
267.866 150.912 28.1644 266.603 151.827 28.1304 266.157 152.241 28.0979 
268.083 151.017 28.2822 265.64 152.758 28.1263 262.586 156.177 28.6735 
260.027 158.803 28.8004 268.605 157.395 29.1088 256.755 162.361 29.0165 
255.889 163.409 29.1332 253.96 166.862 28.5974 276.544 178.732 27.8068 
277.801 178.602 27.2623 277.399 178.907 27.4691 273.449 179.433 28.5863 
276.989 179.247 27.4702 276.345 179.605 27.7101 277.259 178.985 27.5247 
276.027 180.246 27.4139 274.236 180.947 28.0092 274.924 180.669 27.8078 
271.987 182.773 28.223 267.028 185.596 28.7586 263.701 187.073 29.22 
256.448 188.282 29.6896 259.776 187.925 29.2666 259.433 188.652 29.9964 
260.023 188.45 29.7446 276.623 144.884 27.1504 274.846 145.802 27.5447 
275.007 145.72 27.5467 275.207 145.728 27.535 271.077 148.569 27.8533 
269.82 150.42 28.4022 266.425 152.028 28.2234 265.809 152.72 28.3248 
266.295 152.289 28.3382 270.051 151.386 28.6579 260.639 158.242 29.0627 
261.677 157.375 29.0447 258.131 160.808 29.3247 257.105 161.901 29.2553 
256.361 162.665 29.3441 255.336 164.012 29.5419 253.248 165.958 29.8945 
252.726 166.424 29.87 252.584 166.743 29.6236 251.378 167.445 30.3105 
249.915 168.725 30.1697 259.855 176.359 30.7869 277.349 178.874 27.5304 
274.144 180.216 28.3155 269.722 183.845 28.7424 270.405 183.186 28.8018 
271.646 182.686 28.5233 252.72 186.545 29.7478 263.316 187.211 29.5656 
261.503 187.939 29.7192 259.252 188.901 30.3816 260.585 188.378 30.2438 
257.352 189.345 30.5276 256.887 189.605 30.9115 260.618 158.587 29.3804 
261.174 158.494 29.4638 257.806 161.267 29.4895 254.361 165.022 29.9187 
255.452 164.205 29.8971 257.479 163.636 30.1775 252.599 166.817 30.5181 
250.094 168.095 30.9375 251.702 167.285 30.5701 249.039 168.629 30.9546 
255.145 168.015 30.9362 245.267 171.694 31.3769 244.783 171.598 31.8141 
243.993 174.31 31.1815 272.127 181.919 28.6423 264.805 186.1 29.9136 
261.155 188.06 30.5422 254.696 189.356 30.6415 257.417 189.578 31.0627 
257.19 189.638 31.4555 257.916 189.406 30.8247 258.684 189.16 30.9887 
255.291 189.926 31.3784 256.239 189.825 31.3104 260.294 158.922 29.4468 
257.168 162.438 29.7694 257.433 162.995 30.024 254.355 165.789 30.4097 
249.399 168.384 31.0894 250.508 168.096 31.1635 251.62 167.626 30.923 
252.75 167.442 30.9187 254.44 166.637 30.7068 248.305 168.967 31.3753 
247.948 169.224 31.3264 246.944 169.942 31.7555 251.996 169.348 31.6274 
253.345 168.493 31.2317 244.476 171.544 32.2865 243.95 172.116 32.0475 
242.21 172.863 32.6727 243.206 173.15 31.863 260.243 188.207 31.1313 
260.777 187.808 31.1235 249.997 191.038 32.3865 251.203 191.189 32.4996 
249.191 168.487 31.3145 248.896 168.672 31.4535 251.106 168.146 31.2641 
247.964 169.253 31.5726 247.014 170.012 31.9786 246.545 170.259 31.9953 
244.843 171.364 32.7279 239.998 173.703 33.3138 241.515 173.266 32.7718 
241.445 173.086 33.1108 241.299 173.659 32.6182 240.199 179.153 32.3881 
239.679 182.178 32.7634 260.686 187.312 31.4244 252.883 190.845 32.6428 
253.593 190.48 32.8208 251.751 191.3 32.8286 251.961 191.248 32.9539 
248.193 191.994 33.6856 248.839 168.874 31.6362 249.336 168.761 31.6457 
244.276 171.229 33.0289 244.247 171.229 33.0403 244.274 171.242 33.02 
244.385 171.295 32.9761 244.314 171.352 32.9694 244.436 171.496 33.018 
246.175 170.996 32.5431 243.33 172.055 32.8194 242.957 172.292 33.0356 
244.079 171.613 32.9465 241.093 173.228 33.6351 244.415 172.788 33.503 
246.034 172.366 33.1621 235.98 174.08 34.7809 236.141 175.371 33.9829 
244.38 174.785 34.1291 235.812 176.77 33.786 248.232 179.839 34.2075 
239.784 184.644 33.0742 253.536 188.524 33.867 254.823 188.693 33.3389 
242.5 190.875 33.9844 253.017 190.365 33.4613 245.806 192.113 33.888 
249.729 191.686 34.2803 251.041 191.473 33.526 245.304 192.873 34.5929 
245.592 192.814 34.6708 245.149 192.946 34.6553 244.24 171.294 33.0341 
244.178 171.52 33.0567 243.061 172.446 33.307 243.793 171.945 33.1552 
235.964 173.881 34.9497 235.863 173.845 35.0005 235.78 173.915 34.9795 
235.971 173.848 35.001 242.182 173.099 33.6924 243.803 172.437 33.3967 
234.525 174.499 34.9428 235.371 174.064 35.0959 236.317 173.923 34.9814 
237.624 173.94 34.7685 241.088 173.959 34.3904 240.357 174.173 34.657 
240.871 174.814 34.8809 241.138 175.818 35.1799 249.875 182.933 34.3266 
251.464 186.35 34.3979 252.086 189.441 34.2894 253.634 189.324 33.6975 
252.642 190.198 33.8164 254.065 189.692 33.3844 251.013 191.172 34.06 
241.612 192.365 35.195 249.411 191.467 34.7379 246.828 192.543 34.6284 
[...]
POINT_DATA 1504
SCALARS scalars float
LOOKUP_TABLE default
1 1 1 1 1 1 1 1 1 
1 1 1 1 1 1 1 1 1 
1 1 1 1 1 1 1 1 1 
1 1 1 1 1 1 1 1 1 
1 1 1 1 1 1 1 1 1 
1 1 1 1 1 1 1 1 1 
1 1 1 1 1 1 1 1 1 
1 1 1 1 1 1 1 1 1 
1 1 1 1 1 1 1 1 1 
1 1 1 1 1 1 1 1 1 
1 1 1 1 1 1 1 1 1 
1 1 1 1 1 1 1 1 1 
1 1 1 1 1 1 1 1 1 
1 1 1 1 1 1 1 1 1 
1 1 1 1 1 1 1 1 1 
1 1 1 1 1 1 1 1 1 
1 1 1 1 1 1 1 1 1 
1 1 1 1 1 1 1 1 1 
1 1 1 1 1 1 1 1 1 
1 1 1 1 1 1 1 1 1 
1 1 1 1 1 1 1 1 1 
1 1 1 1 1 1 1 1 1 
1 1 1 1 1 1 1 1 1 
1 1 1 1 1 1 1 1 1 
1 1 1 1 1 1 1 1 1 
1 1 1 1 1 1 1 1 1 
1 1 1 1 1 1 1 1 1 
1 1 1 1 1 1 1 1 1 
1 1 1 1 1 1 1 1 1 
1 1 1 1 1 1 1 1 1 
1 1 1 1 1 1 1 1 1 
1 1 1 1 1 1 1 1 1 
1 1 1 1 1 1 1 1 1 
1 1 1 1 1 1 1 1 1 
1 1 1 1 1 1 1 1 1 
1 1 1 1 1 1 1 1 1 
1 1 1 1 1 1 1 1 1 
1 1 1 1 1 1 1 1 1 
1 1 1 1 1 1 1 1 1 
1 1 1 1 1 1 1 1 1 
1 1 1 1 1 1 1 1 1 
1 1 1 1 1 1 1 1 1 
1 1 1 1 1 1 1 1 1 
1 1 1 1 1 1 1 1 1 
1 1 1 1 1 1 1 1 1 
1 1 1 1 1 1 1 1 1 
1 1 1 1 1 1 1 1 1 
1 1 1 1 1 1 1 1 1 
1 1 1 1 1 1 1 1 1 
1 1 1 1 1 1 1 1 1 
1 1 1 1 1 1 1 1 1 
1 1 1 1 1 1 1 1 1 
1 1 1 1 1 1 1 1 1 
1 1 1 1 1 1 1 1 1 
1 1 1 1 1 1 1 1 1 
1 1 1 1 1 1 1 1 1 
1 1 1 1 1 1 1 1 1 
1 1 1 1 1 1 1 1 1 
1 1 1 1 1 1 1 1 1 
1 1 1 1 1 1 1 1 1 
1 1 1 1 1 1 1 1 1 
1 1 1 1 1 1 1 1 1 
1 1 1 1 1 1 1 1 1 
1 1 1 1 1 1 1 1 1 
1 1 1 1 1 1 1 1 1 
1 1 1 1 1 1 1 1 1 
1 1 1 1 1 1 1 1 1 
1 1 1 1 1 1 1 1 1 
1 1 1 1 1 1 1 1 1 
1 1 1 1 1 1 1 1 1 
1 1 1 1 1 1 1 1 1 
1 1 1 1 1 1 1 1 1 
1 1 1 1 1 1 1 1 1 
1 1 1 1 1 1 1 1 1 
1 1 1 1 1 1 1 1 1 
1 1 1 1 1 1 1 1 1 
1 1 1 1 1 1 1 1 1 
1 1 1 1 1 1 1 1 1 
1 1 1 1 1 1 1 1 1 
1 1 1 1 1 1 1 1 1 
1 1 1 1 1 1 1 1 1 
1 1 1 1 1 1 1 1 1 
1 1 1 1 1 1 1 1 1 
1 1 1 1 1 1 1 1 1 
1 1 1 1 1 1 1 1 1 
1 1 1 1 1 1 1 1 1 
1 1 1 1 1 1 1 1 1 
1 1 1 1 1 1 1 1 1 
1 1 1 1 1 1 1 1 1 
1 1 1 1 1 1 1 1 1 
1 1 1 1 1 1 1 1 1 
1 1 1 1 1 1 1 1 1 
1 1 1 1 1 1 1 1 1 
1 1 1 1 1 1 1 1 1 
1 1 1 1 1 1 1 1 1 
1 1 1 1 1 1 1 1 1 
1 1 1 1 1 1 1 1 1 
1 1 1 1 1 1 1 1 1 
1 1 1 1 1 1 1 1 1 
1 1 1 1 1 1 1 1 1 
1 1 1 1 1 1 1 1 1 
1 1 1 1 1 1 1 1 1 
1 1 1 1 1 1 1 1 1 
1 1 1 1 1 1 1 1 1 
1 1 1 1 1 1 1 1 1 
1 1 1 1 1 1 1 1 1 
1 1 1 1 1 1 1 1 1 
1 1 1 1 1 1 1 1 1 
1 1 1 1 1 1 1 1 1 
1 1 1 1 1 1 1 1 1 
1 1 1 1 1 1 1 1 1 
1 1 1 1 1 1 1 1 1 
1 1 1 1 1 1 1 1 1 
1 1 1 1 1 1 1 1 1 
1 1 1 1 1 1 1 1 1 
1 1 1 1 1 1 1 1 1 
1 1 1 1 1 1 1 1 1 
1 1 1 1 1 1 1 1 1 
1 1 1 1 1 1 1 1 1 
1 1 1 1 1 1 1 1 1 
1 1 1 1 1 1 1 1 1 
1 1 1 1 1 1 1 1 1 
1 1 1 1 1 1 1 1 1 
1 1 1 1 1 1 1 1 1 
1 1 1 1 1 1 1 1 1 
1 1 1 1 1 1 1 1 1 
1 1 1 1 1 1 1 1 1 
1 1 1 1 1 1 1 1 1 
1 1 1 1 1 1 1 1 1 
1 1 1 1 1 1 1 1 1 
1 1 1 1 1 1 1 1 1 
1 1 1 1 1 1 1 1 1 
1 1 1 1 1 1 1 1 1 
1 1 1 1 1 1 1 1 1 
1 1 1 1 1 1 1 1 1 
1 1 1 1 1 1 1 1 1 
1 1 1 1 1 1 1 1 1 
1 1 1 1 1 1 1 1 1 
1 1 1 1 1 1 1 1 1 
1 1 1 1 1 1 1 1 1 
1 1 1 1 1 1 1 1 1 
1 1 1 1 1 1 1 1 1 
1 1 1 1 1 1 1 1 1 
1 1 1 1 1 1 1 1 1 
1 1 1 1 1 1 1 1 1 
1 1 1 1 1 1 1 1 1 
1 1 1 1 1 1 1 1 1 
1 1 1 1 1 1 1 1 1 
1 1 1 1 1 1 1 1 1 
1 1 1 1 1 1 1 1 1 
1 1 1 1 1 1 1 1 1 
1 1 1 1 1 1 1 1 1 
1 1 1 1 1 1 1 1 1 
1 1 1 1 1 1 1 1 1 
1 1 1 1 1 1 1 1 1 
1 1 1 1 1 1 1 1 1 
1 1 1 1 1 1 1 1 1 
1 1 1 1 1 1 1 1 1 
1 1 1 1 1 1 1 1 1 
1 1 1 1 1 1 1 1 1 
1 1 1 1 1 1 1 1 1 
1 1 1 1 1 1 1 1 1 
1 1 1 1 1 1 1 1 1 
1 1 1 1 1 1 1 1 1 
1 1 1 1 1 1 1 1 1 
1 1 1 1 1 1 1 1 1 
1 1 1 1 1 1 1 1 1 
1 
NORMALS Normals float
0.463689 -0.218221 -0.858704 0.714553 -0.211504 -0.666843 0.785139 -0.294227 -0.544965 
0.532473 -0.100898 -0.840412 0.763854 -0.0873821 -0.639447 0.30792 -0.0440381 -0.950392 
0.944769 -0.0188697 -0.327192 0.642751 -0.0341028 -0.765315 0.173395 0.0422809 -0.983944 
0.573074 0.0555066 -0.817622 0.719565 0.070111 -0.690877 0.100284 0.0336916 -0.994388 
0.843924 0.120393 -0.52278 0.425899 0.0630109 -0.902574 0.320864 0.0795902 -0.943775 
0.239953 0.0687683 -0.968346 0.00398944 0.116719 -0.993157 0.224338 0.00172958 -0.97451 
-0.105219 -0.318767 -0.941975 0.144334 -0.209762 -0.967041 0.678001 -0.258507 -0.688105 
0.390557 -0.130582 -0.91127 0.660956 -0.128774 -0.739293 0.805775 -0.212351 -0.552842 
0.772214 -0.313161 -0.552825 -0.0816925 -0.0102132 -0.996605 0.957822 -0.175778 -0.227329 
0.918928 0.0540034 -0.390711 0.972648 0.0620186 -0.223851 0.260857 0.0758632 -0.962392 
0.910436 0.0420575 -0.411507 -0.0457102 0.189939 -0.980731 0.48493 0.123859 -0.865738 
0.686368 0.105121 -0.719617 0.312616 0.27689 -0.908627 0.796511 0.0941348 -0.597251 
0.617131 0.21972 -0.755562 0.0523103 0.334601 -0.940907 -0.225485 -0.582897 -0.780633 
0.30305 -0.696402 -0.650527 -0.169551 -0.433767 -0.884929 -0.0408934 -0.486231 -0.872873 
0.475525 -0.321161 -0.818982 -0.317442 -0.388773 -0.86492 -0.433371 -0.446401 -0.782889 
-0.37896 -0.381104 -0.843297 -0.24926 -0.263759 -0.931826 0.878394 -0.275588 -0.390481 
-0.31689 -0.330858 -0.888884 0.952303 -0.14674 -0.267558 0.778852 -0.147471 -0.609625 
-0.1673 -0.169727 -0.971187 0.99086 -0.100954 0.0894748 0.960292 -0.057396 0.27303 
-0.323531 -0.0550252 -0.944616 0.927742 -0.0576148 0.368748 0.979955 0.0471626 0.193556 
0.992011 0.0125049 -0.125527 0.954938 0.125384 -0.269022 0.554081 0.374072 -0.743683 
0.929115 0.363019 -0.0704498 0.308007 0.596056 -0.741518 0.443851 0.621018 -0.646013 
0.544007 0.656594 -0.522437 0.186219 0.718235 -0.670418 0.238684 0.807486 -0.53944 
-0.0857931 -0.970306 -0.226154 0.337921 -0.928934 -0.151297 -0.509418 -0.630302 -0.585844 
-0.619443 -0.779139 -0.0960895 0.641226 -0.738615 -0.208033 -0.525508 -0.57583 -0.626308 
0.317482 -0.54384 -0.776816 0.751862 -0.577871 -0.317442 0.859685 -0.413017 -0.300597 
0.936695 -0.334934 -0.102086 -0.593514 -0.762792 -0.25669 -0.431311 -0.649442 -0.626256 
-0.422474 -0.591449 -0.686807 -0.41211 -0.596276 -0.688926 0.939424 -0.223422 0.259934 
0.936871 -0.0405894 0.347311 -0.331388 -0.407909 -0.85076 -0.499266 -0.438798 -0.747121 
-0.340262 -0.230136 -0.911734 0.801975 -0.0731888 0.592857 0.843529 0.0594069 0.533788 
-0.215427 -0.109824 -0.970325 -0.31103 0.01541 -0.950275 0.976611 0.118178 0.179625 
0.995274 0.0949766 0.0202427 0.930833 0.364876 -0.0203625 -0.0825263 0.161594 -0.983401 
0.724369 0.616295 -0.308981 0.803234 0.595662 0.000968706 0.871921 0.488179 0.0378886 
0.650993 0.706823 -0.276783 0.486422 0.790558 -0.372036 0.439932 0.88591 -0.147047 
0.523326 0.770607 -0.363724 0.0864001 0.194494 -0.977091 0.130879 0.512179 -0.848848 
0.423008 0.755537 -0.500228 0.0776022 0.591808 -0.802335 0.258787 0.780537 -0.569026 
0.101586 0.708261 -0.698603 0.248374 0.532105 -0.809429 0.0112656 -0.935422 0.353353 
-0.448687 -0.893344 -0.024837 0.453402 -0.804659 0.38334 -0.429552 -0.77189 0.46869 
0.694701 -0.522689 0.494153 -0.441516 -0.712014 0.545985 0.890612 -0.392985 0.228853 
-0.590775 -0.726879 -0.350188 -0.55448 -0.809628 0.192493 -0.533882 -0.809326 0.24487 
0.722911 -0.215105 0.656604 -0.561951 -0.814434 -0.144595 0.728508 -0.184591 0.659699 
-0.477646 -0.860908 -0.175191 -0.554389 -0.782581 -0.283231 -0.505618 -0.628179 -0.591389 
-0.635979 -0.686583 -0.352327 -0.629869 -0.687595 -0.361217 -0.365506 -0.433163 -0.823878 
-0.557724 -0.594147 -0.579597 -0.735731 -0.383683 -0.55811 -0.607027 -0.394086 -0.690083 
0.81023 -0.00971886 0.586031 0.723497 0.0166329 0.690127 0.733581 -0.0700966 0.675978 
-0.379872 -0.359068 -0.852507 0.7272 0.0509791 0.68453 -0.402933 -0.318432 -0.858048 
0.506464 0.0756088 0.85894 -0.357429 -0.266737 -0.89504 0.77643 0.0601945 0.627323 
-0.42678 -0.303613 -0.851867 0.495781 -0.00944568 0.868396 0.631558 -0.0741519 0.771774 
-0.415 -0.108328 -0.903349 0.90798 -0.0309502 0.41787 0.908247 0.200346 0.367354 
0.873003 0.359068 0.330053 0.781889 0.556731 0.280535 0.652498 0.757745 0.00826509 
0.576062 0.728012 0.371687 0.70302 0.673896 0.227215 0.566639 0.822031 0.056439 
0.558977 0.793224 0.241539 0.549102 0.814009 0.189414 -0.0409634 0.448486 -0.892851 
-0.0503522 0.392215 -0.918494 0.348473 0.840707 -0.414461 0.346826 0.78282 -0.516628 
0.233991 -0.570488 0.787268 -0.128475 -0.606016 0.785008 0.526692 -0.352014 0.773745 
-0.374109 -0.706502 0.600748 -0.089295 -0.520274 0.849318 -0.3843 -0.922514 -0.0357819 
-0.675406 -0.730036 -0.104278 -0.412078 -0.87362 0.258803 -0.540955 -0.833984 -0.108805 
-0.459981 -0.702426 0.543153 0.478345 -0.0391333 0.8773 -0.524498 -0.786937 0.325011 
-0.464803 -0.624311 -0.627848 -0.481609 -0.824101 0.298178 -0.601233 -0.798526 -0.0295913 
0.198656 -0.115678 0.973219 0.45627 -0.0897808 0.8853 -0.687065 -0.726081 0.0273579 
0.542854 -0.107963 0.832859 0.325909 -0.0467582 0.944244 0.786865 0.032154 0.616288 
0.774674 0.0464843 0.63065 -0.758526 -0.595059 -0.265599 0.186303 0.00190787 0.98249 
-0.670738 -0.628977 -0.393062 -0.726262 -0.65947 -0.194018 -0.631415 -0.494617 -0.597217 
-0.702405 -0.613119 -0.361541 -0.600734 -0.586135 -0.543659 0.366384 0.0726129 0.927626 
-0.560178 -0.396211 -0.727474 -0.598847 -0.432066 -0.674316 -0.431974 -0.261852 -0.863037 
0.297687 -0.0238106 0.954367 0.592632 0.0676072 0.802631 0.638238 0.202783 0.742652 
0.716896 0.392786 0.576003 0.546284 0.358081 0.7572 0.596696 0.765358 0.241209 
0.421484 0.900072 -0.110555 0.47561 0.767306 0.43016 0.422992 0.88247 -0.205728 
0.0156771 0.551325 -0.834143 0.302698 0.878814 -0.368863 0.420818 0.842662 -0.335905 
0.412365 0.909881 -0.0455203 0.0353046 0.649918 -0.759184 0.147298 0.684819 -0.713671 
0.18453 0.826825 -0.531327 0.158023 -0.189593 0.969063 0.27059 -0.257087 0.927732 
-0.592502 -0.790691 -0.154108 -0.199452 -0.772451 0.602942 -0.580272 -0.673011 0.458629 
0.0041551 -0.637778 0.770209 0.0530992 -0.381457 0.92286 -0.80387 -0.528439 0.273031 
-0.651147 -0.443699 0.615742 -0.248897 -0.546324 0.799738 -0.213556 -0.270477 0.938742 
-0.588487 -0.704119 0.397365 -0.485416 -0.539739 0.687789 -0.602504 -0.588838 0.538757 
-0.5304 -0.244766 0.811643 -0.603214 -0.757304 0.250245 -0.678426 -0.688556 0.256181 
-0.322085 -0.227685 0.918924 -0.827337 -0.559272 -0.052236 -0.607192 -0.62411 0.491736 
-0.747542 -0.661085 -0.0644038 0.134672 0.0143053 0.990787 -0.653885 -0.559958 -0.508804 
-0.711957 -0.573648 -0.405025 -0.496508 -0.204425 -0.843617 0.259051 0.166233 0.951451 
0.605537 0.361387 0.709031 0.617571 0.593289 0.516347 0.108143 0.0242618 0.993839 
0.436307 0.487905 0.756033 0.436067 0.37253 0.819187 0.263502 0.352472 0.897959 
0.538429 0.701872 0.466337 0.370223 0.457995 0.808193 0.47502 0.612524 0.631799 
0.501994 0.608672 0.614427 0.380477 0.922677 0.0624847 0.307607 0.920103 -0.242463 
-0.0912204 0.598012 -0.796279 0.00259861 0.585335 -0.810788 0.0558303 0.826377 -0.560343 
0.186927 0.846894 -0.497824 -0.171401 -0.57408 0.800658 -0.251527 -0.243362 0.936755 
-0.047032 -0.34511 0.937383 0.0887014 -0.273158 0.957871 -0.32314 -0.565378 0.758899 
-0.0758923 -0.212467 0.974217 -0.484497 -0.616051 0.621083 -0.478787 -0.52344 0.704822 
-0.345232 -0.467771 0.813637 -0.144071 -0.177343 0.973547 -0.572333 -0.669203 0.473923 
-0.51674 -0.603481 0.607281 -0.612924 -0.664983 0.426758 -0.705063 -0.686016 0.179634 
-0.766003 -0.642021 -0.0323988 -0.701973 -0.680195 0.211113 -0.613288 -0.788993 -0.036985 
-0.629718 -0.74491 -0.220374 -0.628348 -0.656055 -0.418057 -0.556464 -0.804021 -0.20952 
-0.379628 -0.263448 -0.886836 0.271638 -0.112849 0.95576 0.317675 0.12287 0.940205 
0.236156 0.299237 0.924493 0.24273 0.346913 0.905943 0.208697 0.300878 0.930547 
0.209146 0.420272 0.882966 -0.226999 0.280085 -0.932751 0.391844 0.916687 0.0783846 
0.25345 0.859987 -0.442928 0.115449 0.909992 -0.398229 0.364164 0.930948 -0.0268435 
0.11784 0.802053 -0.585513 0.0189855 0.898 -0.439585 -0.31286 -0.561751 0.765868 
-0.20489 -0.352478 0.913115 -0.215295 -0.400504 0.890643 -0.568698 -0.726472 0.385773 
-0.460671 -0.511684 0.725232 0.114027 -0.25355 0.960578 -0.171835 -0.598026 0.782839 
-0.384 -0.916154 0.114921 -0.421496 -0.818575 0.390225 -0.523341 -0.729827 -0.439849 
0.158689 -0.197526 0.967368 -0.451804 -0.622872 -0.638673 -0.326694 -0.846659 -0.420047 
-0.377284 -0.136966 -0.915913 0.177611 0.212684 0.960843 0.442552 0.512445 0.735899 
0.516961 0.704604 0.486091 0.0159306 0.723827 -0.689797 0.20206 0.960926 -0.189192 
0.277344 0.941897 0.189502 0.274729 0.860289 -0.429449 0.32601 0.945105 -0.0222364 
0.0829941 0.936446 -0.340854 0.0593111 0.912152 -0.405538 -0.368233 -0.413696 0.832622 
-0.154985 -0.29785 0.941948 0.0413803 -0.221033 0.974388 -0.117151 -0.404964 0.906796 
-0.486723 -0.862809 -0.136606 -0.139832 -0.660047 0.738095 -0.0732154 -0.535095 0.841614 
0.178594 -0.47261 0.862986 0.0590052 -0.310065 0.948883 -0.521694 -0.851858 0.0466224 
-0.613704 -0.775598 -0.147701 -0.558715 -0.825255 -0.0824116 0.0700649 -0.266418 0.961308 
0.127558 -0.314373 0.94069 -0.427746 -0.867806 -0.252876 -0.492463 -0.560582 -0.665754 
-0.468592 -0.473807 -0.745606 -0.466991 -0.294206 -0.833884 0.417152 0.631938 0.653175 
0.553587 0.451189 0.699979 -0.154238 0.678265 -0.718447 0.17417 0.747171 -0.641405 
-0.283333 -0.857264 0.429908 -0.444387 -0.85578 0.264879 -0.0165207 -0.409135 0.912324 
-0.480871 -0.79014 0.380055 -0.408017 -0.770903 0.489112 -0.259798 -0.72725 0.635304 
-0.230063 -0.932298 0.279091 -0.339481 -0.826224 -0.449563 -0.545137 -0.613268 -0.571602 
-0.506952 -0.810444 -0.293563 -0.382946 -0.447752 -0.808004 -0.15832 0.0512197 -0.986058 
-0.221601 0.0384255 -0.97438 0.461709 0.252419 0.850358 0.251 0.947184 -0.199601 
0.418728 0.792301 0.443763 0.200887 0.898037 -0.391374 0.44471 0.894901 -0.0372194 
-0.0443328 0.850953 -0.523368 -0.15927 -0.555571 0.816072 -0.0582442 -0.496858 0.865875 
-0.186163 -0.566566 -0.802712 -0.449039 -0.362966 -0.816468 -0.352827 -0.369439 -0.859667 
-0.200176 -0.484894 -0.851356 -0.527872 -0.407076 -0.745413 0.267533 -0.273649 0.923874 
-0.134021 -0.559812 0.81771 -0.487164 -0.838608 -0.243738 -0.397719 -0.830218 0.390587 
-0.604113 -0.792117 -0.0871656 -0.205198 -0.89847 0.388131 0.0413708 -0.320527 0.946335 
0.124453 -0.36464 0.922794 -0.20244 -0.708719 -0.675823 -0.31253 -0.296009 -0.902609 
0.156856 -0.36042 0.919507 -0.310885 -0.0114935 -0.950378 0.158477 -0.148265 0.976167 
-0.266085 0.192359 -0.944562 0.371501 0.0981832 0.923227 0.353629 0.0368985 0.934658 
-0.223626 0.493666 -0.840408 0.403617 0.638618 0.65518 -0.111659 0.576989 -0.809084 
0.255908 0.831694 0.492744 0.304004 0.94229 0.140256 0.260278 0.862411 -0.434168 
0.258936 0.943073 -0.208724 -0.044685 0.857786 -0.512062 -0.581941 -0.130152 -0.802749 
-0.449693 -0.569491 0.688081 -0.199524 -0.536732 0.819823 -0.40059 -0.64425 0.651514 
-0.0318079 -0.709788 -0.703697 -0.280233 -0.940007 -0.194566 -0.423446 -0.746635 -0.51306 
0.115306 -0.9842 0.13437 -0.058402 -0.594882 0.801689 -0.113732 -0.326395 0.938366 
-0.315112 -0.533409 -0.784971 -0.294246 -0.949281 -0.110836 0.0792752 -0.996643 -0.0204632 
0.0632625 -0.91023 0.409242 0.154333 -0.53221 0.832427 0.0860583 -0.502952 0.860019 
0.181868 -0.369305 0.911338 0.158944 -0.413476 0.896535 0.173827 -0.107754 0.978863 
0.203014 -0.0729627 0.976454 0.321545 0.13675 0.936968 0.403268 0.287261 0.868825 
0.374829 0.396039 0.838246 0.419049 0.480577 0.770353 0.409041 0.61639 0.672866 
-0.243673 0.621875 -0.744241 0.332902 0.504828 0.796446 0.0573432 0.899141 -0.433886 
-0.0658218 0.996237 -0.0563845 -0.0327629 0.919125 -0.392602 0.262227 0.964931 -0.0120799 
0.198336 0.977772 0.068012 -0.0905043 0.921227 -0.378351 -0.188044 -0.869957 0.455866 
0.0776638 -0.856652 0.510015 -0.179094 -0.8573 0.48266 -0.303763 -0.243335 -0.921149 
-0.309972 -0.403145 -0.861041 0.249595 -0.261312 0.932426 0.350968 -0.0202988 0.936167 
-0.299432 0.481334 -0.823807 0.327528 0.455352 0.827877 -0.214 0.586447 -0.781207 
0.297025 0.928724 0.221919 0.396752 0.648463 0.64968 -0.0140283 0.973547 -0.228054 
0.168586 0.982401 0.0804148 0.073017 -0.644608 0.761019 -0.167728 -0.669185 -0.723919 
-0.280673 -0.59872 -0.750171 -0.0914389 -0.955213 -0.281437 -0.136541 -0.99057 -0.0112978 
-0.0868102 -0.971954 0.218562 -0.342244 -0.125209 -0.931231 -0.328694 0.0721379 -0.941678 
0.328575 0.277888 0.902672 0.354333 0.473406 0.806433 -0.218745 0.710161 -0.669195 
0.19622 0.880321 0.431894 0.278516 0.852121 0.443079 -0.159082 0.905445 -0.393526 
-0.160133 0.823681 -0.543974 0.101697 0.994708 -0.0146183 0.32983 0.864988 0.378164 
-0.0548809 0.978614 -0.198249 -0.0715066 -0.641954 -0.763402 -0.13313 -0.801934 -0.58239 
-0.279196 -0.677151 -0.68082 0.0579379 -0.905884 -0.419544 0.244435 -0.73063 0.63752 
-0.0960755 -0.893547 0.43857 0.135473 -0.772745 0.620091 0.0887896 -0.820897 0.564132 
0.0589416 -0.953966 -0.294065 0.0428248 -0.99475 -0.0929391 0.177381 -0.780183 0.599876 
-0.392655 0.395301 -0.830397 0.388983 0.0913331 0.916706 -0.291189 0.721187 -0.628569 
0.359486 0.544024 0.75816 0.202336 0.696753 0.688183 -0.160667 0.924703 -0.345124 
-0.00749163 0.999734 -0.0218189 0.0690679 0.960383 0.26999 0.127829 0.967849 0.216627 
0.169883 0.860444 0.480391 0.169805 0.797017 0.579595 -0.0989836 -0.969472 -0.224335 
0.136044 -0.990694 0.00427364 0.322597 -0.750606 0.576647 0.064126 -0.772108 0.632247 
-0.307345 -0.349588 -0.885058 0.235451 -0.912387 0.334833 0.103866 -0.940273 0.32419 
0.215788 -0.684717 0.696131 0.183743 -0.618166 0.76427 0.238345 -0.415483 0.877819 
-0.44714 0.301754 -0.842028 -0.426381 0.539511 -0.726036 0.353119 0.265123 0.897227 
0.231889 0.560336 0.795142 0.14512 0.866978 0.476749 -0.270388 0.774452 -0.571939 
-0.130357 0.89576 -0.424995 -0.155967 -0.94268 -0.295007 0.109759 -0.907197 0.406137 
0.0165385 -0.999783 -0.0126723 -0.293043 -0.614896 -0.73214 -0.243148 -0.81399 -0.527542 
-0.221072 -0.927064 -0.302787 -0.377431 -0.439277 -0.815219 -0.403013 -0.231457 -0.885442 
-0.283885 -0.267399 -0.920819 -0.372577 -0.086681 -0.923944 -0.321987 0.111499 -0.940156 
-0.559467 0.649583 -0.514819 0.268814 0.0778441 0.960041 -0.579409 0.762029 -0.289132 
0.230603 0.643887 0.729542 0.249061 0.471975 0.8457 -0.371895 0.690269 -0.620664 
0.189639 0.554085 0.810572 -0.295801 0.890871 -0.344747 -0.276728 0.914521 -0.295082 
0.151693 0.808888 0.568058 0.169435 0.886499 0.430593 -0.0475435 -0.974253 0.220387 
0.216028 -0.789828 0.574025 -0.251672 -0.750137 -0.611519 0.261056 -0.604265 0.752804 
-0.363291 -0.252189 -0.896895 -0.382255 -0.0188182 -0.923865 -0.431534 0.138114 -0.891461 
-0.467265 0.271313 -0.841459 -0.608642 0.465405 -0.642614 -0.541938 0.510776 -0.667391 
-0.618321 0.722808 -0.30859 -0.601707 0.775178 -0.192477 -0.574753 0.81414 0.0826794 
-0.640006 0.761773 -0.100467 -0.61086 0.73355 0.297917 -0.590141 0.773002 0.23281 
-0.60595 0.671158 -0.427051 -0.531308 0.799477 0.280265 0.301808 0.0336603 0.952774 
-0.584757 0.796711 -0.152679 0.267858 0.434073 0.860135 -0.545601 0.800734 -0.247275 
-0.551824 0.799272 0.238023 0.352996 0.418431 0.836845 -0.552616 0.827346 -0.100575 
-0.481844 0.769495 0.419171 0.0737987 0.837745 0.541051 0.107403 0.898433 0.425773 
0.293035 0.529197 0.796292 -0.228375 0.946756 0.22693 0.166563 -0.697545 0.696913 
-0.0494727 -0.961365 -0.270796 -0.332624 -0.493186 -0.803822 -0.0307214 -0.997588 0.0622532 
0.237341 -0.847027 0.475621 0.0412484 -0.911603 0.408996 -0.395127 -0.0499585 -0.917267 
-0.513248 0.445787 -0.733383 -0.507027 0.534087 -0.676517 -0.563018 0.673459 -0.479024 
0.238886 -0.041588 0.970157 -0.641142 0.76511 -0.0595366 -0.627385 0.778367 -0.0230986 
0.244782 -0.0126562 0.969495 -0.484024 0.780191 0.396261 -0.316656 0.682164 0.659077 
-0.434601 0.782806 0.44535 -0.37911 0.624597 0.682755 -0.378592 0.6092 0.696809 
-0.461535 0.651782 0.601802 -0.526987 0.737063 0.423112 0.0377001 0.218582 0.97509 
-0.572233 0.761609 0.304138 -0.518212 0.704699 0.484619 -0.333987 0.597159 0.729283 
-0.347439 0.605733 0.715803 0.00425706 0.45128 0.892372 0.0180476 0.41887 0.907867 
-0.0115179 0.477014 0.87882 0.0262263 0.720344 0.693121 0.0209339 -0.984001 -0.17693 
0.158718 -0.864906 0.476178 0.356992 -0.712361 0.604234 0.264524 -0.663369 0.699978 