# vtk DataFile Version 4.2
vtk output
ASCII
DATASET POLYDATA
POINTS 840 float
342.236 66.0089 79.1265 341.854 66.0177 79.3201 342.702 65.6039 79.0759 
341.859 66.3831 79.3291 348.675 67.3574 78.4259 342.283 66.6543 79.1194 
344.051 67.1926 78.6233 344.394 67.4931 78.6045 350.707 68.1938 78.347 
347.015 68.3482 78.4278 348.032 68.3327 78.3429 349.592 68.6131 78.3009 
350.037 68.9688 78.3167 354.701 69.055 78.4531 351.484 69.3452 78.3098 
351.933 69.6758 78.3595 353.106 69.4346 78.333 353.721 70.0378 78.3894 
355.548 70.4359 78.3614 355.975 70.8015 78.3876 358.468 71.3853 78.3735 
363.089 73.0991 78.5205 362.912 73.4424 78.5101 362.066 73.6546 78.5889 
369.743 75.5471 79.7034 341.893 65.0479 79.6597 343.808 65.231 79.125 
345.191 65.4773 78.949 344.649 65.5616 78.9049 345.884 66.1112 78.672 
348.059 66.185 78.7917 341.58 66.3862 79.601 341.451 66.6637 80.0716 
343.197 67.3023 78.8986 342.162 67.3682 79.4786 342.92 67.5714 79.1468 
348.351 68.7984 78.4298 356.313 68.4197 78.8264 357.54 69.0119 78.7426 
357.224 68.4824 78.9467 342.482 67.618 79.4837 342.98 67.8566 79.3124 
343.284 68.0718 79.3708 349.154 69.3168 78.5416 350.205 69.4256 78.446 
344.699 68.5621 79.2382 346.643 69.2038 79.1777 346.914 69.0868 78.9174 
349.937 69.8536 78.7356 352.112 70.1275 78.5323 354.352 70.6373 78.5097 
350.565 70.4004 79.0724 355.492 72.0124 79.3423 359.347 72.9103 78.8156 
367.637 73.5456 79.244 360.3 73.8324 79.1687 363.634 74.416 78.7211 
368.52 75.0457 79.3132 361.734 74.232 78.961 365.713 75.7062 79.1378 
370.119 75.4522 79.9985 367.857 76.0494 79.3802 368.383 76.0064 79.4729 
369.13 76.4985 79.925 341.459 65.0184 80.0172 341.213 65.4188 80.1516 
349.942 65.0378 79.854 341.307 66.5064 80.5376 357.359 68.0293 79.2366 
341.991 67.3129 79.704 342.592 67.8291 79.7003 361.258 69.799 79.2101 
342.876 68.009 79.7466 344.824 68.7654 79.4998 345.177 68.9219 79.6059 
347.92 69.7241 79.632 348.663 69.9753 79.4939 351.464 70.8806 79.5798 
355.802 72.3354 79.7896 370.991 73.8556 80.7255 358.083 73.3783 80.2936 
358.944 73.595 79.736 360.698 74.2805 79.507 363.973 75.7123 79.2772 
365.215 76.5808 79.8049 365.953 76.7304 79.7759 366.541 77.3316 80.297 
367.305 77.2822 80.0697 367.879 77.4073 80.1687 341.811 63.5752 81.1172 
341.129 64.7584 80.6388 341.152 64.356 80.9116 340.984 64.6098 81.0636 
341.602 67.0352 80.655 341.76 67.2324 80.3989 343.171 68.009 80.8174 
342.162 67.5426 80.3516 343.643 68.3214 80.1227 344.587 68.6883 80.129 
352.989 71.3723 80.3541 372.106 74.1144 81.4974 372.365 74.1161 81.7513 
356.818 72.8293 80.4505 358.677 73.6596 80.8798 360.68 74.6387 80.4482 
363.753 75.5042 79.1334 372.378 74.6938 81.9153 362.397 75.5122 80.2537 
369.995 76.5067 80.3846 363.22 76.0862 80.8648 365.005 77.0009 81.1675 
365.373 77.0182 80.4571 368.116 77.8031 80.6386 367.964 77.9179 80.7613 
344.177 62.7272 81.3228 341.095 63.6728 81.6475 340.976 63.9074 81.5583 
340.971 64.1959 81.3227 359.225 66.707 80.8806 341.707 67.0388 81.0229 
350.294 70.1119 81.5762 370.039 72.12 80.8517 356.077 72.3834 81.0923 
361.822 75.228 81.1578 371.895 75.6902 82.0412 369.636 77.2237 80.8493 
366.827 77.7809 81.4172 367.678 77.9285 80.8483 369.671 77.3454 81.1784 
367.933 78.0895 81.307 368.479 77.9499 81.1067 368.042 78.1012 81.1748 
368.234 78.0804 81.1661 344.985 62.0498 82.1972 340.958 63.3287 82.5196 
340.892 64.037 81.6931 340.853 64.0365 82.2054 341.14 65.9319 82.2687 
341.133 66.079 82.0951 359.333 73.6469 82.049 365.994 77.4032 81.7109 
367.204 77.8811 81.5899 367.386 77.7825 81.9948 369.345 77.6381 81.6508 
368.06 78.0326 81.5318 368.521 77.9659 81.5129 368.363 78.0557 81.2704 
368.986 77.8025 81.6998 341.177 61.8372 84.1086 341.527 61.3977 84.2958 
340.93 64.5828 83.3432 341.48 65.6303 83.304 372.231 75.7668 83.0717 
369.581 77.423 82.4124 342.546 60.6513 84.5333 340.766 63.7487 84.0345 
343.459 66.6856 83.6198 374.121 70.5639 84.5551 374.441 71.7305 84.4528 
374.965 71.8902 85.0442 361.003 73.8284 83.5029 372.08 75.9769 83.316 
367.863 77.2957 83.0201 341.83 59.6986 86.3157 342.084 59.6538 86.1518 
346.184 60.1189 84.9957 340.859 61.8649 84.949 340.951 61.2238 85.6989 
340.738 62.4917 84.6394 340.686 63.058 84.7224 357.356 62.9387 84.5518 
358.81 62.8906 85.3083 375.562 70.9402 85.8099 376.002 70.9543 86.3295 
374.158 73.984 84.9514 370.895 76.3905 84.4387 371.517 76.3088 83.9898 
341.217 59.9871 86.7906 340.689 61.3764 86.628 340.821 63.391 85.5046 
376.789 70.3785 87.3158 376.947 70.4401 87.5877 375.487 72.3321 85.9646 
375.821 71.9757 86.3286 367.943 75.619 85.4715 341.787 58.8108 87.8874 
347.757 59.0838 87.2802 340.666 60.5113 87.374 340.485 60.7037 88.1706 
340.802 61.9187 87.2298 359.218 62.0849 86.9532 340.686 63.0058 85.8836 
340.653 62.9039 86.052 340.682 62.9767 86.039 340.815 63.0923 86.0575 
365.596 64.163 87.1127 375.438 68.4225 87.0952 376.928 69.7212 87.6768 
375.907 72.3835 87.0808 373.553 74.537 86.7889 373.379 74.5842 87.0833 
372.085 76.0056 84.595 373.145 74.6367 87.1406 373.592 74.3818 87.4965 
341.126 58.5007 88.992 341.026 58.9088 88.5266 347.892 58.8946 87.6751 
353.088 60.0054 87.8436 340.449 60.0416 88.6303 371.28 65.7178 88.2361 
377.329 69.3028 88.5364 377.166 70.4527 88.376 374.823 73.4854 87.7811 
375.536 72.8697 87.4489 340.896 58.2184 89.7727 341.562 58.0085 89.6329 
340.634 58.7219 89.3789 343.555 58.1088 88.7779 348.849 58.9483 88.5021 
351.8 59.6901 88.6667 354.247 60.197 88.7992 340.45 60.4766 89.4648 
359.803 61.95 87.9383 341.662 61.8694 88.7913 375.981 67.841 88.3351 
377.305 68.8876 88.7665 362.59 69.74 89.0672 377.332 70.0703 88.8413 
374.951 72.9883 88.8323 373.815 73.6946 88.489 374.305 73.5348 88.5335 
340.562 58.5539 89.8018 340.687 58.2876 90.0489 340.441 58.9137 89.7353 
340.288 59.8084 90.2077 356.348 60.7991 89.0237 340.287 60.0379 90.1562 
340.313 60.1288 90.1208 367.326 64.0842 89.3157 370.696 65.1399 89.7792 
371.923 65.6589 89.4458 375.595 67.1836 89.5313 376.477 67.665 89.3661 
376.901 67.834 89.7016 377.22 68.423 89.2905 377.431 69.5883 89.5099 
376.81 71.2508 89.0277 374.551 73.3746 88.6159 341.766 57.6411 90.8262 
342.092 57.6128 90.5846 341.203 57.8596 90.7449 340.829 58.081 90.4381 
346.578 58.3684 90.1191 345.666 58.2407 89.9007 348.281 58.8132 89.9435 
352 57.0087 91.0174 352 57.0087 91.0175 352 57.0087 91.0175 
352 57.0087 91.0175 340.479 58.4393 90.479 352 57.0088 91.0175 
340.166 59.2141 90.9372 340.188 59.3331 91.048 358.853 61.5692 89.5659 
340.349 60.0588 90.2501 340.277 59.6003 90.8102 340.409 59.9008 90.5771 
345.204 61.6419 90.6096 368.019 64.2774 89.8543 370.07 64.7987 90.478 
369.793 64.7789 90.4102 370.254 64.9107 90.4508 371.878 65.5738 90.0193 
373.938 66.5396 90.3815 374.649 66.819 90.1277 376.81 67.6936 89.86 
376.901 67.7744 89.9569 377.353 68.3143 89.7841 377.156 68.0405 90.0004 
377.444 68.307 89.951 377.39 68.2293 89.9809 377.444 68.2969 90.0127 
377.424 68.4469 89.974 377.353 69.3587 89.9731 377.289 69.894 89.8182 
376.573 71.0808 90.2708 370.812 71.8188 90.4566 375.624 72.1091 90.0782 
340.618 58.2313 90.6511 346.152 58.713 90.671 352 57.0087 91.0175 
340.312 58.7662 90.9698 349.104 59.5662 90.5512 340.233 58.8989 91.2703 
352.616 60.3747 90.2311 352.343 60.5197 90.4394 340.21 59.2211 91.3201 
341.5 60.2839 90.9549 345.528 60.6711 91.2641 357.089 61.8659 90.5998 
359.746 62.6051 90.639 360.187 62.9257 90.7737 361.259 62.7584 90.3906 
362.396 63.0384 90.3752 358.363 63.2575 91.1284 358.192 63.146 91.0819 
361.955 63.2699 90.7226 363.383 63.4391 90.5894 365.311 64.2005 90.9427 
370.157 64.8184 90.5598 370.211 64.8892 90.6249 358.512 63.3892 91.1154 
369.572 64.918 90.7179 370.041 64.8683 90.6338 370.41 65.1468 90.7865 
371.126 65.4424 90.8361 370.857 65.4341 91.0172 372.875 66.2081 90.9172 
376.398 67.5754 90.2638 376.685 67.8147 90.4122 375.908 67.552 90.6947 
377.208 68.1901 90.2438 377.358 68.2624 90.0917 377.248 68.7363 90.3726 
377.223 69.0888 90.3537 367.522 69.553 91.2818 370.238 70.0607 91.5444 
376.987 69.2004 90.6546 376.552 70.5277 90.8987 376.277 71.0672 90.9291 
376.355 70.8202 91.0688 376.208 70.99 91.1292 340.742 58.1735 91.2342 
340.924 58.0835 91.3363 341.298 58.0306 91.4677 340.772 58.2733 91.4731 
342.162 58.7258 91.8125 343.746 58.8307 91.5679 340.305 58.8371 91.524 
340.222 59.0251 91.4291 345.938 59.5071 91.2738 350.534 60.2762 90.6451 
340.27 59.1364 91.5258 345.091 59.7409 91.5351 351.356 60.9001 90.7791 
342.614 60.2151 91.2987 346.69 60.4095 91.4294 354.477 61.7365 90.7676 
351.834 62.1979 90.8772 357.482 62.6348 90.9086 359.122 63.499 91.0576 
361.659 63.6569 90.983 370.128 64.8199 90.6089 357.195 63.8654 90.905 
359.626 64.9472 91.101 366.215 65.3595 91.5512 370.605 65.9679 91.5674 
370.99 66.523 91.9098 371.809 66.9436 91.9969 376.395 68.0741 90.8309 
376.775 68.4274 90.7448 375.889 69.2018 91.6381 377.031 68.8137 90.6198 
372.67 70.1407 91.9459 376.238 70.4913 91.3467 375.369 70.9007 91.5333 
374.729 71.6355 90.9427 376.057 70.9603 91.2916 340.722 58.4221 91.659 
341.008 58.5236 91.821 341.733 58.404 91.7636 340.875 58.7689 91.88 
340.87 58.6449 91.8545 340.406 58.8294 91.6854 341.017 58.8832 91.8813 
341.355 59.0843 91.7988 343.043 59.1927 91.7267 340.367 59.0831 91.6582 
340.386 59.2382 91.5714 340.532 59.3246 91.5897 346.974 60.6628 91.4041 
366.92 65.9573 91.7567 367.801 65.9312 91.8053 366.72 68.0156 91.7764 
370.749 67.6746 92.2675 371.22 67.6033 92.2754 373.707 68.3167 92.1021 
372.863 68.7987 92.2448 375.211 69.1776 91.9796 372.5 69.5421 92.1386 
374.399 70.2643 91.985 375.831 70.4074 91.6573 375.532 70.2509 91.823 
375.702 70.743 91.5834 375.944 70.6769 91.5887 376.062 70.6208 91.5411 
340.607 58.5603 91.7027 340.787 58.5272 91.7782 340.459 58.95 91.7378 
340.638 58.9626 91.807 340.815 58.9022 91.8628 369.83 66.9702 92.2113 
373.593 68.9105 92.207 376.044 70.7303 91.5391 340.705 58.4375 364.514 
340.497 58.5651 364.605 340.872 58.4842 364.434 340.43 58.7909 364.559 
[...]
POINT_DATA 840
SCALARS scalars float
LOOKUP_TABLE default
1 1 1 1 1 1 1 1 1 
1 1 1 1 1 1 1 1 1 
1 1 1 1 1 1 1 1 1 
1 1 1 1 1 1 1 1 1 
1 1 1 1 1 1 1 1 1 
1 1 1 1 1 1 1 1 1 
1 1 1 1 1 1 1 1 1 
1 1 1 1 1 1 1 1 1 
1 1 1 1 1 1 1 1 1 
1 1 1 1 1 1 1 1 1 
1 1 1 1 1 1 1 1 1 
1 1 1 1 1 1 1 1 1 
1 1 1 1 1 1 1 1 1 
1 1 1 1 1 1 1 1 1 
1 1 1 1 1 1 1 1 1 
1 1 1 1 1 1 1 1 1 
1 1 1 1 1 1 1 1 1 
1 1 1 1 1 1 1 1 1 
1 1 1 1 1 1 1 1 1 
1 1 1 1 1 1 1 1 1 
1 1 1 1 1 1 1 1 1 
1 1 1 1 1 1 1 1 1 
1 1 1 1 1 1 1 1 1 
1 1 1 1 1 1 1 1 1 
1 1 1 1 1 1 1 1 1 
1 1 1 1 1 1 1 1 1 
1 1 1 1 1 1 1 1 1 
1 1 1 1 1 1 1 1 1 
1 1 1 1 1 1 1 1 1 
1 1 1 1 1 1 1 1 1 
1 1 1 1 1 1 1 1 1 
1 1 1 1 1 1 1 1 1 
1 1 1 1 1 1 1 1 1 
1 1 1 1 1 1 1 1 1 
1 1 1 1 1 1 1 1 1 
1 1 1 1 1 1 1 1 1 
1 1 1 1 1 1 1 1 1 
1 1 1 1 1 1 1 1 1 
1 1 1 1 1 1 1 1 1 
1 1 1 1 1 1 1 1 1 
1 1 1 1 1 1 1 1 1 
1 1 1 1 1 1 1 1 1 
1 1 1 1 1 1 1 1 1 
1 1 1 1 1 1 1 1 1 
1 1 1 1 1 1 1 1 1 
1 1 1 1 1 1 1 1 1 
1 1 1 1 1 1 1 1 1 
1 1 1 1 1 1 1 1 1 
1 1 1 1 1 1 1 1 1 
1 1 1 1 1 1 1 1 1 
1 1 1 1 1 1 1 1 1 
1 1 1 1 1 1 1 1 1 
1 1 1 1 1 1 1 1 1 
1 1 1 1 1 1 1 1 1 
1 1 1 1 1 1 1 1 1 
1 1 1 1 1 1 1 1 1 
1 1 1 1 1 1 1 1 1 
1 1 1 1 1 1 1 1 1 
1 1 1 1 1 1 1 1 1 
1 1 1 1 1 1 1 1 1 
1 1 1 1 1 1 1 1 1 
1 1 1 1 1 1 1 1 1 
1 1 1 1 1 1 1 1 1 
1 1 1 1 1 1 1 1 1 
1 1 1 1 1 1 1 1 1 
1 1 1 1 1 1 1 1 1 
1 1 1 1 1 1 1 1 1 
1 1 1 1 1 1 1 1 1 
1 1 1 1 1 1 1 1 1 
1 1 1 1 1 1 1 1 1 
1 1 1 1 1 1 1 1 1 
1 1 1 1 1 1 1 1 1 
1 1 1 1 1 1 1 1 1 
1 1 1 1 1 1 1 1 1 
1 1 1 1 1 1 1 1 1 
1 1 1 1 1 1 1 1 1 
1 1 1 1 1 1 1 1 1 
1 1 1 1 1 1 1 1 1 
1 1 1 1 1 1 1 1 1 
1 1 1 1 1 1 1 1 1 
1 1 1 1 1 1 1 1 1 
1 1 1 1 1 1 1 1 1 
1 1 1 1 1 1 1 1 1 
1 1 1 1 1 1 1 1 1 
1 1 1 1 1 1 1 1 1 
1 1 1 1 1 1 1 1 1 
1 1 1 1 1 1 1 1 1 
1 1 1 1 1 1 1 1 1 
1 1 1 1 1 1 1 1 1 
1 1 1 1 1 1 1 1 1 
1 1 1 1 1 1 1 1 1 
1 1 1 1 1 1 1 1 1 
1 1 1 1 1 1 1 1 1 
1 1 1 
NORMALS Normals float
-0.370957 -0.0870896 -0.924557 -0.566517 -0.191014 -0.801606 -0.215306 -0.314596 -0.924485 
-0.621586 0.0915221 -0.777981 0.080402 -0.218303 -0.972563 -0.368175 0.12639 -0.921126 
-0.2278 0.145229 -0.962817 -0.114761 0.0625935 -0.991419 0.0737775 -0.0638431 -0.995229 
-0.14564 0.255658 -0.955734 -0.0381355 -0.0326881 -0.998738 -0.0551559 0.124323 -0.990708 
0.0643564 0.0503325 -0.996657 0.0584353 -0.331953 -0.941484 -0.073477 0.26426 -0.961648 
0.0186111 0.153076 -0.988039 -0.121273 0.237939 -0.963679 -0.232162 0.304863 -0.923666 
0.0180576 0.0446189 -0.998841 0.0342344 0.0112067 -0.999351 -0.0293352 0.16377 -0.986062 
0.116994 -0.0811508 -0.989812 -0.00128213 0.224985 -0.974361 -0.111995 0.305057 -0.945726 
0.468168 0.129677 -0.874072 -0.469062 -0.486508 -0.737083 -0.0268814 -0.658316 -0.752261 
-0.0585298 -0.598976 -0.798625 0.00306173 -0.594664 -0.803969 0.0167411 -0.349809 -0.936672 
0.0152303 -0.27448 -0.961472 -0.798534 0.190428 -0.571035 -0.873604 0.392892 -0.287145 
-0.309865 0.315557 -0.896887 -0.616775 0.440495 -0.652344 -0.369857 0.500369 -0.782839 
-0.138318 0.376699 -0.915951 0.0198458 -0.541997 -0.840146 0.146995 -0.374501 -0.915501 
0.192204 -0.380549 -0.904566 -0.515381 0.69597 -0.500009 -0.436255 0.671452 -0.599028 
-0.333201 0.792336 -0.511059 -0.213678 0.507498 -0.834738 -0.0626416 0.356144 -0.932329 
-0.344828 0.700005 -0.625369 -0.301376 0.914507 -0.269905 -0.237268 0.714126 -0.658581 
-0.237145 0.68149 -0.692339 -0.122397 0.413634 -0.902179 -0.219514 0.517262 -0.827196 
-0.134176 0.668685 -0.731339 -0.312701 0.802559 -0.508053 -0.175157 0.510429 -0.841892 
0.274112 -0.296517 -0.914844 -0.291546 0.621153 -0.727441 0.044183 0.266312 -0.962874 
0.307573 -0.0230742 -0.951245 -0.225607 0.633607 -0.740029 0.0332244 0.414922 -0.90925 
0.544813 0.0237081 -0.838222 0.092667 0.394695 -0.914127 0.148642 0.507275 -0.848868 
0.312304 0.512834 -0.799667 -0.633083 -0.422338 -0.648719 -0.856089 -0.0600488 -0.513327 
0.136489 -0.662478 -0.736541 -0.972132 0.228689 -0.051584 0.114604 -0.666008 -0.737089 
-0.692742 0.670346 -0.26598 -0.551613 0.818573 -0.160191 0.271041 -0.545519 -0.793061 
-0.458643 0.86309 -0.211477 -0.459248 0.847107 -0.267397 -0.23898 0.970244 -0.0389245 
-0.33889 0.940173 -0.035041 -0.305658 0.882367 -0.357773 -0.21319 0.954467 -0.208667 
-0.493947 0.858873 -0.135478 0.526582 -0.352447 -0.773623 -0.442281 0.896252 0.0334747 
-0.366705 0.845316 -0.388546 -0.407778 0.818274 -0.405148 -0.213628 0.676283 -0.704985 
-0.322381 0.764391 -0.558369 -0.0898526 0.686283 -0.721763 -0.117054 0.684707 -0.719357 
-0.100482 0.635654 -0.765407 0.124289 0.652994 -0.747095 -0.298677 -0.694232 -0.654854 
-0.684532 -0.465107 -0.56133 -0.695878 -0.455899 -0.554897 -0.963294 -0.0754892 -0.257616 
-0.823925 0.564242 0.0527174 -0.686346 0.724661 0.0616081 -0.427232 0.863879 0.266806 
-0.577159 0.813425 0.0723041 -0.291464 0.947695 0.13009 -0.362551 0.929466 0.0681944 
-0.244069 0.969719 -0.00866165 0.663207 0.0776315 -0.744399 0.741863 -0.118214 -0.660049 
-0.339218 0.932258 -0.125804 -0.482682 0.871549 0.0861422 -0.440423 0.895042 -0.0701962 
-0.114408 0.538629 -0.83474 0.741628 0.280585 -0.60931 -0.358954 0.84295 -0.400734 
0.623395 0.490591 -0.608851 -0.430328 0.891574 -0.141118 -0.470537 0.871064 -0.140861 
-0.353555 0.869239 -0.345575 0.161678 0.773869 -0.612362 -0.00419137 0.820737 -0.57129 
-0.0868291 -0.718848 -0.689724 -0.749218 -0.55041 -0.368404 -0.820553 -0.443991 -0.359952 
-0.767414 -0.410681 -0.492358 0.386816 -0.605858 -0.695205 -0.588346 0.736903 0.332901 
-0.317239 0.905965 0.280334 0.400361 -0.388748 -0.829811 -0.474253 0.840137 0.263162 
-0.489086 0.872024 0.0192153 0.697138 0.556729 -0.45172 0.343117 0.710794 -0.614038 
-0.389714 0.920918 0.00577273 -0.235185 0.860846 -0.451256 0.573959 0.785651 -0.230918 
-0.066391 0.989914 0.125152 0.377611 0.84477 -0.379175 -0.0158334 0.929078 -0.369546 
0.113241 0.992942 -0.0352606 -0.0433629 -0.780355 -0.623831 -0.845693 -0.44333 -0.297089 
-0.950452 -0.263545 -0.164879 -0.995892 -0.0714753 -0.0555946 -0.778533 0.531193 0.334244 
-0.838199 0.488224 0.243022 -0.453416 0.842858 0.289835 -0.410865 0.890967 0.193306 
-0.270597 0.95756 0.0992759 -0.172263 0.88416 0.434265 0.400346 0.902629 0.158063 
0.0225039 0.943451 0.330748 0.183338 0.936139 0.300052 0.298376 0.954041 0.027897 
0.368571 0.922948 0.111008 -0.77502 -0.52643 -0.349594 -0.49379 -0.722238 -0.484297 
-0.989544 0.139305 0.0373615 -0.671483 0.604553 0.428515 0.845864 0.529699 0.0627169 
0.317576 0.918572 0.235309 -0.262598 -0.797362 -0.543374 -0.983457 0.179702 0.0227967 
-0.306064 0.831609 0.463413 0.590607 -0.430482 -0.682546 0.731326 0.0624818 -0.67916 
0.754084 0.113279 -0.646935 -0.437345 0.792906 0.424297 0.713437 0.699602 0.0395483 
0.00919845 0.866567 0.498977 -0.471115 -0.629474 -0.61791 -0.474396 -0.604337 -0.640099 
0.162951 -0.849379 -0.501998 -0.851724 -0.454099 -0.261459 -0.803279 -0.488837 -0.340267 
-0.972793 -0.15177 -0.175042 -0.986398 0.156873 0.0490837 0.282758 -0.807959 -0.516962 
0.378762 -0.730595 -0.568128 0.753841 -0.161057 -0.637012 0.732253 -0.226958 -0.642103 
0.786303 0.566348 -0.246937 0.164724 0.877066 0.451244 0.618671 0.76404 0.183 
-0.737497 -0.439371 -0.512885 -0.992964 -0.071219 -0.0946079 -0.438588 0.736193 0.515424 
0.805948 0.00919887 -0.591915 0.923728 0.213532 -0.318011 0.789213 0.414541 -0.453099 
0.808878 0.323777 -0.490799 -0.138522 0.773184 0.618869 -0.46741 -0.762882 -0.446698 
0.257026 -0.812565 -0.52314 -0.862094 -0.386445 -0.327802 -0.977584 -0.0470082 -0.205232 
-0.914464 0.350615 0.202053 0.289835 -0.900253 -0.32487 -0.87385 0.451671 0.179943 
-0.91294 0.285758 0.291346 -0.7468 0.536355 0.393208 -0.590029 0.652306 0.475776 
0.343335 -0.816495 -0.464172 0.557001 -0.548917 -0.62325 0.770748 -0.251638 -0.585342 
0.81365 0.502831 -0.291777 0.455125 0.877324 0.152197 0.335959 0.930429 0.1464 
0.434822 0.866244 0.246072 0.187538 0.92057 0.342607 0.298654 0.869189 0.394102 
-0.383896 -0.765804 -0.515914 -0.477491 -0.685545 -0.549573 0.180706 -0.953695 -0.240439 
0.220639 -0.965453 -0.138632 -0.948572 -0.153848 -0.276662 0.338625 -0.875935 -0.343616 
0.914782 -0.143627 -0.377553 0.901665 0.427181 -0.0672125 0.597095 0.784036 0.169603 
0.76351 0.64444 -0.0418423 -0.545643 -0.775158 -0.318439 -0.25159 -0.903277 -0.347554 
-0.76789 -0.488151 -0.414792 -0.0448486 -0.918573 -0.392699 0.375408 -0.853927 -0.360386 
0.258934 -0.964452 -0.0527759 0.245661 -0.968809 -0.0325682 -0.948388 0.315944 0.0272137 
0.412416 -0.824985 -0.386409 -0.474 0.723963 0.501201 0.523971 -0.708968 -0.472036 
0.911702 -0.312963 -0.266183 -0.295229 0.698453 0.651922 0.968635 0.24483 0.042481 
0.512307 0.788647 0.339968 0.0948832 0.767177 0.634378 0.344772 0.800369 0.49045 
-0.835193 -0.503832 -0.220469 -0.700685 -0.697952 -0.147996 -0.947159 -0.272535 -0.169157 
-0.989772 0.134367 0.0479321 0.22896 -0.966546 -0.115611 -0.966159 0.191094 0.173264 
-0.771225 0.560552 0.301652 0.320166 -0.946121 0.0484562 0.385404 -0.921803 -0.0417602 
0.345812 -0.928056 -0.138295 0.368968 -0.913942 -0.169035 0.62011 -0.707051 -0.339915 
0.695104 -0.661701 -0.281038 0.803961 -0.48514 -0.343927 0.93832 0.32427 0.120022 
0.802182 0.584178 0.123452 0.451264 0.762243 0.464055 -0.0511009 -0.967268 0.24856 
0.00504577 -0.996492 -0.0835414 -0.42414 -0.902703 0.07234 -0.519407 -0.834289 -0.184872 
0.177646 -0.948389 0.262677 0.115277 -0.990476 0.0752856 0.260061 -0.87088 0.417057 
0 -0.970142 -0.242536 0 -0.999201 -0.0399606 -0.184146 -0.982114 -0.0392772 
0.184146 -0.982114 -0.0392772 -0.854337 -0.502506 -0.13265 0 0.996172 0.0874195 
-0.997258 -0.0553661 -0.049111 -0.919521 0.346683 0.185181 0.216109 -0.91917 0.329278 
-0.752448 0.462284 0.469165 -0.789353 0.545372 0.281943 -0.679825 0.600246 0.421358 
-0.159308 0.509759 0.845439 0.2997 -0.954032 0.00146607 0.239734 -0.942972 -0.230936 
0.123852 -0.99185 0.0298915 0.576234 -0.803503 -0.149458 0.314236 -0.948308 0.0443495 
0.427753 -0.903214 0.0350957 0.412506 -0.89168 0.1864 0.52332 -0.85212 0.00529782 
0.664663 -0.741872 0.0885934 0.781552 -0.477372 -0.401612 0.677634 -0.729563 0.0924659 
0.933322 -0.24472 -0.262719 0.699817 -0.71368 -0.0302819 0.909844 -0.259649 0.323675 
0.993596 0.0316533 0.108468 0.952695 0.118518 0.279869 0.896172 0.335885 0.289926 
0.835726 0.483893 0.259633 -0.192218 0.649975 0.735245 0.490886 0.76612 0.414838 
-0.712716 -0.701416 0.00720821 0.182562 -0.685102 0.705199 0 -0.986394 0.164399 
-0.925018 -0.378462 -0.0332952 0.232465 -0.581259 0.779806 -0.979155 -0.194563 -0.0583114 
0.1824 -0.839212 0.512302 0.0712408 -0.547499 0.833768 -0.864992 0.385303 0.32145 
-0.29713 0.7066 0.642207 -0.15996 0.374922 0.913152 -0.00487491 -0.538361 0.8427 
0.138054 -0.572573 0.808147 0.113037 -0.386617 0.915287 0.185069 -0.745881 0.639853 
0.302403 -0.721482 0.622909 -0.208607 0.120163 0.97059 -0.370156 0.278657 0.886191 
0.276764 -0.479736 0.83262 0.179786 -0.829726 0.528424 0.131291 -0.586761 0.799046 
0.502861 -0.861582 0.0693268 0.514512 -0.679197 0.52342 -0.168878 0.321744 0.931644 
0.0947024 -0.759778 0.643249 0.00129513 -0.665276 0.746596 0.345017 -0.775137 0.529269 
0.346819 -0.881196 0.321263 0.307969 -0.703429 0.64058 0.369847 -0.799045 0.474067 
0.421929 -0.811352 0.404578 0.536017 -0.692243 0.483204 0.386255 -0.640286 0.663959 
0.686896 -0.440538 0.578014 0.755318 -0.380219 0.533787 0.82604 -0.0597713 0.560433 
0.855577 0.123827 0.502648 -0.153447 0.389273 0.908251 -0.220138 0.510369 0.831302 
0.77235 0.144174 0.61862 0.848015 0.220127 0.482094 0.674264 0.616984 0.40583 
0.769338 0.370071 0.520737 0.598318 0.587873 0.544446 -0.677168 -0.714031 0.177773 
-0.41393 -0.839939 0.350947 -0.182096 -0.80057 0.570902 -0.467692 -0.719231 0.513781 
0.103262 -0.0204872 0.994443 0.209275 -0.565562 0.797712 -0.808361 -0.520981 0.2741 
-0.982677 -0.0317553 0.182586 0.262557 -0.521128 0.81209 0.161902 -0.45035 0.878051 
-0.824737 0.205343 0.526918 0.0341732 0.00822114 0.999382 0.0198253 -0.443288 0.89616 
-0.0879941 0.534283 0.840713 0.170681 -0.109633 0.979208 0.107234 -0.47167 0.87523 
0.0275113 -0.0125237 0.999543 -0.118832 -0.228 0.966382 0.0958229 -0.167331 0.981233 
0.102442 -0.397848 0.911714 0.124966 -0.866391 0.483478 -0.12923 0.116694 0.984724 
-0.130082 0.16151 0.97826 0.0150515 -0.331675 0.943274 0.181814 -0.632155 0.753209 
0.114441 -0.436567 0.892363 0.17864 -0.456087 0.871821 0.440075 -0.538654 0.718461 
0.585699 -0.272692 0.76328 0.564602 -0.174172 0.806777 0.694568 -0.0694018 0.716072 
-0.0316389 0.429256 0.902628 0.736045 -0.0347785 0.676039 0.0785291 0.583818 0.808078 
0.076849 0.734091 0.674688 0.363386 0.684284 0.632223 -0.44162 -0.715659 0.541113 
-0.087587 -0.52831 0.844522 0.153995 -0.417505 0.895531 -0.226744 -0.100514 0.968754 
-0.165759 -0.260082 0.951252 -0.745619 -0.180741 0.641393 0.0649866 0.00867984 0.997848 
-0.014904 0.326517 0.945074 0.123671 -0.0537395 0.990867 -0.47332 0.390744 0.789486 
-0.584419 0.638575 0.500676 -0.29387 0.58079 0.759159 0.140298 -0.0397476 0.989311 
-0.0127961 -0.278826 0.960256 -0.0530558 -0.0517049 0.997252 -0.0732813 0.0552022 0.995782 
-0.0987806 -0.0194358 0.994919 0.0325756 -0.220775 0.97478 0.201207 -0.188019 0.961335 
0.00407937 0.0536436 0.998552 0.320463 -0.210923 0.92348 -0.0670898 0.20715 0.976006 
0.120905 0.248776 0.960985 0.429097 -0.0201022 0.903035 0.302456 0.123032 0.94519 
0.149021 0.493223 0.857044 0.252194 0.235876 0.938488 0.570117 0.00414072 0.821553 
-0.507009 -0.346253 0.789336 -0.292605 -0.507625 0.810369 -0.454506 -0.0470935 0.889498 
-0.264052 0.229327 0.936849 -0.155065 0.368498 0.916605 -0.00030153 -0.395795 0.918339 
0.116517 0.0402862 0.992371 0.523323 0.401112 0.751826 -0.414805 -0.481475 -0.772087 
-0.713804 -0.458561 -0.529345 -0.267751 -0.27205 -0.924283 -0.638732 -0.161343 -0.752323 
-0.880012 0.0272205 -0.474171 -0.0307907 0.302878 -0.952532 -0.0483639 0.210259 -0.976449 
-0.0155466 0.133669 -0.990904 -0.505182 -0.472687 -0.722051 -0.170975 -0.448661 -0.877195 
-0.129519 -0.792948 -0.595364 0.0127179 -0.567907 -0.822994 0.122111 -0.724518 -0.678352 
0.0298468 -0.0270137 -0.999189 -0.765402 -0.572335 -0.294265 0.0402824 -0.202093 -0.978538 
0.0744046 0.0593747 -0.995459 0.175228 -0.303998 -0.936419 -0.919285 -0.311993 -0.239949 
-0.950634 0.143045 -0.275377 0.0373791 -0.0865619 -0.995545 0.00978927 0.241441 -0.970366 
0.115034 -0.204365 -0.972112 -0.87939 0.21527 -0.424655 -0.499498 0.196851 -0.843653 
-0.185656 0.44178 -0.877703 -0.0462626 0.55257 -0.832182 0.12181 0.194716 -0.973267 
-0.788088 0.446661 -0.423569 -0.579698 0.656567 -0.482566 0.300576 -0.67354 -0.675276 
-0.239158 0.13102 -0.962101 -0.130893 -0.0412872 -0.990536 -0.0441591 -0.0509205 -0.997726 
0.0640778 -0.269277 -0.960929 0.436814 -0.38325 -0.813826 -0.106654 0.119974 -0.987032 
0.0762459 -0.222611 -0.971921 0.27755 -0.177651 -0.944143 0.209759 0.305346 -0.928851 
0.565553 0.160807 -0.808882 0.485396 0.526221 -0.6982 -0.282081 -0.954784 -0.0939034 
-0.0590832 -0.91235 -0.405125 0.121707 -0.900846 -0.416729 -0.4757 -0.864495 0.162351 
-0.524722 -0.749303 -0.403995 -0.786938 -0.376056 -0.489194 -0.819934 -0.520296 -0.238746 
0.269829 -0.478932 -0.835354 0.135576 -0.58637 -0.798617 0.233516 -0.651128 -0.722151 
-0.888812 -0.458247 0.0048895 -0.785496 -0.615647 0.0630431 0.0941166 -0.325877 -0.940716 
-0.998041 -0.0156634 -0.060576 0.129056 -0.332811 -0.934121 -0.26852 0.575883 -0.772176 
-0.163773 0.670341 -0.723755 -0.319669 0.750278 -0.578701 0.0108794 -0.00508791 -0.999928 
0.0658997 -0.484733 -0.872176 -0.0503592 0.456811 -0.888137 0.0878422 0.261978 -0.961068 
-0.0244046 0.217241 -0.975813 -0.0726391 0.0934139 -0.992974 -0.0896731 0.105944 -0.990321 
-0.16188 0.298378 -0.94062 0.0217796 -0.366799 -0.930045 -0.149842 -0.167162 -0.974476 
-0.0979648 -0.401875 -0.910439 0.0255977 -0.419539 -0.907376 0.1939 -0.654025 -0.7312 
0.309909 -0.76743 -0.561256 -0.166495 0.0108364 -0.985983 0.271579 -0.788771 -0.55144 
0.0972491 -0.338965 -0.935759 0.339254 -0.739438 -0.581496 -0.211455 0.207911 -0.955018 
-0.227109 0.298044 -0.927142 0.382003 -0.521881 -0.762702 -0.2918 0.301923 -0.907577 
0.217811 -0.329475 -0.918697 0.510393 -0.271172 -0.816067 0.677757 -0.122169 -0.725065 
0.878196 0.153757 -0.452914 0.555261 0.0447652 -0.830471 0.665152 0.467358 -0.582365 
-0.236462 -0.949969 0.204071 -0.0693401 -0.995998 0.0563888 -0.0528905 -0.991721 -0.117017 
-0.793888 -0.607656 0.0222726 -0.614506 -0.757732 0.2196 -0.352079 -0.892911 0.280626 
0.123165 -0.990287 0.064519 0.334415 -0.910376 -0.243686 0.317138 -0.723808 -0.612801 
0.235298 -0.935097 -0.265005 0.0703993 -0.820266 -0.567634 0.380549 -0.889054 -0.254489 
0.190564 -0.902486 -0.386271 0.255282 -0.820703 -0.511154 0.187521 -0.653317 -0.733493 
0.126071 -0.922927 -0.363748 0.0714713 -0.857139 -0.510103 0.136337 -0.976865 -0.164763 
-0.0377779 -0.996738 0.0713204 0.0355549 -0.930628 -0.364234 0.240453 -0.820389 -0.518791 
-0.904746 -0.394068 0.161694 0.204131 -0.813774 -0.544153 0.0801129 -0.760244 -0.644679 
0.33163 -0.791368 -0.513575 0.172349 -0.90457 -0.389935 0.199448 -0.762084 -0.615993 
0.072119 -0.965047 -0.251958 0.223431 -0.972327 0.0682551 0.152694 -0.640569 -0.752566 
0.328859 -0.664902 -0.670639 0.288917 -0.91614 -0.277875 0.464708 -0.667231 -0.582107 
0.54664 -0.747312 -0.377769 -0.824345 0.498497 -0.268248 0.183438 -0.589031 -0.787016 
0.23384 -0.736661 -0.634547 0.206368 -0.8573 -0.471645 0.227999 -0.829546 -0.509774 
-0.422168 0.756914 -0.498855 -0.172229 0.68715 -0.705806 -0.125037 -0.485134 -0.865454 
0.336891 -0.941543 -0.00140691 -0.202207 0.47889 -0.85427 0.479907 -0.828028 -0.28993 
0.442237 -0.891309 -0.099968 0.487006 -0.77485 -0.403029 0.557299 -0.408761 -0.722726 
0.464468 -0.727793 -0.504566 0.721448 -0.646765 -0.247401 0.808399 -0.506763 -0.299469 
0.799338 -0.370319 -0.473204 0.724217 -0.448248 -0.524007 0.87511 -0.482565 -0.0362426 
0.78589 -0.182621 -0.590784 0.94253 -0.278911 -0.18397 0.924077 0.0937094 -0.370541 
0.968523 -0.165883 -0.185596 -0.305285 0.607205 -0.733555 0.689943 0.396281 -0.605756 
0.768346 0.182335 -0.613513 0.865284 0.129045 -0.484387 0.169822 0.736482 -0.654794 
-0.568713 -0.756513 0.322883 -0.199048 -0.911508 0.359908 0.0884869 -0.977228 0.19286 
0.167144 -0.985615 -0.0250206 -0.760794 -0.616544 0.202649 -0.779569 -0.543477 0.311296 
0.17547 -0.972137 0.155432 -0.999463 0.0162918 0.0284217 0.288722 -0.935502 -0.203655 
0.418904 -0.898106 -0.13388 -0.996791 0.000492405 0.0800449 0.240555 -0.89643 -0.372218 
0.238254 -0.961119 -0.139592 -0.742446 0.611355 -0.273897 0.244723 -0.963474 -0.108762 
-0.250775 0.759228 -0.60057 0.61726 -0.786399 0.0238164 0.444405 -0.887894 0.118945 
0.639711 -0.716289 0.278748 0.916661 -0.349879 0.193177 0.989918 0.0636012 -0.12656 
0.833766 0.476975 -0.278081 0.984766 -0.105917 0.137904 0.93252 0.309252 -0.186465 
0.664709 0.680455 -0.308453 -0.0517029 0.706945 -0.705376 0.238307 0.854134 -0.462239 
-0.658337 -0.66581 -0.351126 0.644561 0.559276 -0.521298 0.438189 -0.878831 0.188804 
0.640982 0.65839 0.394543 -0.366917 0.922613 -0.118982 -0.735833 -0.603472 0.3072 
0.152144 -0.96382 0.218867 0.147599 -0.988835 0.0204805 -0.878372 -0.41356 0.239646 
-0.81656 0.533945 -0.219393 -0.944353 0.328801 -0.00939858 0.269837 -0.959504 0.0808648 
-0.613348 0.690023 -0.384282 0.805581 -0.454663 0.379895 0.949742 -0.157404 0.27058 
0.919759 0.385152 0.0755059 -0.565103 -0.460307 0.684672 -0.600383 -0.680547 0.419996 
-0.291646 -0.8286 0.477876 -0.699238 -0.624168 0.34854 0.233353 -0.965101 0.118853 
-0.980331 0.102948 0.168384 0.291241 -0.916845 0.273081 -0.506623 0.806281 -0.305357 
0.369056 -0.834584 0.408984 0.770403 -0.415369 0.483681 0.742842 -0.251582 0.620397 
0.97614 -0.0384055 0.213718 0.878563 -0.123201 0.461464 0.922787 0.221968 0.314952 
0.871398 0.439282 0.218396 0.582118 0.802557 -0.130541 -0.826221 -0.385285 0.410992 