# vtk DataFile Version 4.2
vtk output
ASCII
DATASET POLYDATA
POINTS 881 float
359.168 55.6938 69.9712 364.029 58.5287 69.8964 365.139 58.4013 69.8625 
366.762 58.7748 69.8908 367.033 58.7474 69.9448 372.794 61.6818 69.9556 
377.041 63.44 70.3081 378.664 64.3803 70.8904 378.794 64.3002 70.9659 
346.103 52.252 71.5269 346.021 52.3025 71.6535 346.222 52.2056 71.4906 
347.768 52.1372 70.9729 347.628 51.9481 71.1094 346.214 52.343 71.4838 
347.914 52.2829 70.9245 348.905 53.1423 70.6496 349.78 52.8885 70.6 
350.145 53.1684 70.529 350.251 53.6058 70.5089 353.301 54.107 70.3907 
352.595 54.7665 70.4055 360.309 57.1785 69.9744 367.188 57.3959 70.3318 
363.064 58.6299 70.1065 367.868 59.1535 70.0272 364.611 59.1396 70.0173 
366.026 59.2305 69.9472 367.825 60.4055 70.1139 374.128 61.3606 70.171 
370.496 61.6725 70.2319 373.428 63.2487 70.1788 375.124 63.7165 70.1817 
378.104 64.26 70.7252 379.115 64.3031 71.2519 377.76 64.9545 70.9043 
378.096 64.6855 70.8791 378.096 65.0165 71.0689 346.275 51.9601 71.6182 
347.192 51.7109 71.3587 350.977 51.9759 70.9577 347.135 52.5976 71.1391 
347.016 53.5016 71.3784 347.925 54.0912 71.2849 352.32 55.2984 70.6132 
352.391 55.8383 70.978 355.859 56.3813 70.5768 351.904 55.9132 71.3468 
352.826 56.161 71.2296 353.722 56.3753 71.1554 356.642 56.9286 70.746 
357.559 57.1242 70.5583 358.765 58.3856 71.124 358.601 58.2845 71.0879 
358.844 58.3305 71.0452 362.21 58.9978 70.5968 364.385 59.3655 70.2149 
359.025 58.466 71.2198 364.132 59.6423 70.5765 364.829 60.0958 70.8417 
366.677 61.2229 71.1207 366.28 61.062 71.2568 367.028 61.4447 71.3167 
370.091 62.3589 70.8935 371.47 62.9647 71.0915 375.367 63.9756 70.2574 
375.581 64.3091 70.4568 376.739 64.9936 70.7959 378.826 64.8224 71.3161 
376.027 65.0859 71.0285 378.338 65.1703 71.3548 376.265 65.2387 71.1499 
376.641 65.3893 71.215 377.008 65.4804 71.2326 377.222 65.5627 71.3834 
377.733 65.4744 71.3631 347.123 50.8706 71.9376 345.488 52.9713 72.3382 
345.48 53.5266 72.5277 345.581 53.757 72.5858 350.621 55.1164 70.9796 
345.783 53.8769 72.4268 352.017 56.1057 71.701 353.933 56.6055 71.4419 
355.407 56.9803 71.3681 374.008 58.1189 71.6336 352.992 56.4464 71.8491 
358.139 58.2738 71.505 359.373 58.3999 70.9636 358.595 58.3952 71.3977 
367.404 61.1825 70.5141 366.575 61.2559 71.6668 369.373 62.4103 71.5823 
372.84 63.6143 71.2533 381.549 63.4185 73.1828 373.278 63.8903 71.6079 
373.717 64.0394 71.3404 375.879 64.6924 70.6598 376.684 65.4828 71.4288 
377.916 65.5611 71.603 378.247 65.5022 71.7567 376.886 65.5546 71.5737 
377.27 65.6074 71.6756 377.752 65.6278 71.7763 346.264 50.3787 72.7799 
345.347 52.2113 72.762 345.305 53.2291 72.7648 346.058 54.1028 72.6509 
347.091 54.4752 72.5349 351.894 56.1065 72.2761 354.342 56.7698 71.6124 
353.576 56.6229 72.1274 358.303 58.325 71.5747 365.573 60.6159 72.2434 
367.303 61.3091 72.7623 369.918 62.5921 72.0922 381.891 63.1719 73.4845 
374.092 64.0582 72.883 379.79 64.8042 72.3087 378.951 65.3218 72.2778 
377.316 65.5254 72.342 378.465 65.4949 72.1211 345.769 49.0012 74.4541 
345.531 49.6882 74.1457 345.126 52.3595 73.2947 345.329 53.4317 73.1977 
345.618 53.7923 73.1797 346.628 54.3439 72.8233 354.222 56.5903 73.1434 
356.079 57.0779 73.2659 370.811 62.801 72.5298 382.029 63.7093 74.2021 
376.378 64.922 73.0406 380.514 64.7125 73.2972 381.029 64.4218 73.5662 
378.211 65.4666 72.8068 379.474 65.2273 73.2584 377.914 65.5775 72.3839 
378.604 65.4477 72.8437 345.087 52.4007 74.1095 345.105 52.7801 73.7445 
345.474 53.6119 73.2799 345.663 53.4493 73.8202 349.374 55.0721 73.5126 
353.477 56.0614 73.9367 382.655 62.1639 74.2693 382.898 62.6631 74.634 
382.796 62.9996 74.7048 381.302 64.3523 74.0566 379.723 65.1384 73.7232 
379.954 65.1382 73.6663 380.151 65.0651 73.7036 345.624 48.4027 75.5972 
345.396 49.109 75.1361 345.136 51.8946 74.9818 345.071 52.2866 74.551 
345.094 52.3706 74.5742 345.237 52.7063 74.262 372.405 53.7041 74.7607 
348.954 54.3087 74.8198 364.556 58.9642 74.8129 383.959 62.0494 75.8026 
383.048 63.0273 75.2821 382.315 63.7621 75.3024 379.883 64.9392 74.2509 
346.584 46.6143 76.7135 345.391 48.1055 76.4353 344.807 50.1793 76.4298 
384.509 60.0632 76.6639 385.185 60.2197 77.2108 385.522 60.5799 77.5084 
376.442 63.2708 75.8311 381.419 64.2986 75.0148 346.106 45.9384 78.0069 
344.839 50.1704 76.7965 344.929 50.5717 76.6656 349.396 52.8274 77.1389 
386.492 60.2861 78.4477 385.086 61.3184 77.1943 386.061 60.6903 78.0951 
383.524 62.9373 76.8372 346.608 44.8796 78.942 350.09 44.7705 77.9026 
345.566 45.7496 78.9285 358.757 45.967 78.0518 345.037 49.5952 77.7676 
372.457 50.1352 78.8172 344.963 50.027 77.3565 345.056 50.5564 76.9765 
346.449 51.1747 77.8305 374.73 52.1196 77.6467 386.935 59.583 78.9055 
387.198 60.1644 79.2527 387.191 59.9538 79.1953 386.761 60.6382 78.9518 
386.537 60.9324 78.9245 345.801 44.9425 79.725 347.637 44.4749 78.9176 
345.19 46.4993 79.0356 344.885 48.4074 78.5609 346.111 50.6202 78.1575 
381.775 55.2391 78.4126 387.428 58.7758 79.6718 381.034 62.731 78.4676 
383.633 62.8001 78.0048 346.123 43.7639 81.0593 353.388 44.2653 79.1916 
357.012 44.7271 79.546 361.657 45.7355 79.6248 365.24 46.854 79.4763 
345.099 46.6476 80.2821 386.795 61.1198 80.2007 382.704 62.4799 79.1695 
383.633 62.4851 79.0064 383.552 62.7257 78.4237 385.257 62.027 79.5466 
346.149 43.4024 81.8265 345.973 43.7369 81.3994 347.81 43.0863 81.1097 
357.847 44.4497 81.01 362.714 45.63 81.0588 365.242 46.421 80.5587 
367.583 47.0558 80.7168 345.179 48.0403 80.0858 345.544 48.4122 80.19 
374.772 50.2954 80.2116 387.367 56.9398 80.9763 381.669 61.5687 80.3017 
386.261 61.4131 80.3559 346.004 43.4044 82.2188 347.471 42.734 82.0609 
349.15 42.7305 81.8989 352.614 43.2242 81.7243 345.603 44.1191 81.8231 
359.638 44.8511 81.3276 363.73 45.854 81.4844 365.567 46.3672 81.6222 
367.34 46.8026 81.3687 369.02 47.4556 81.6772 345.301 47.1834 80.8839 
373.608 49.3959 81.6686 375.216 49.8585 82.0033 346.153 48.283 80.8416 
379.372 51.8011 81.8144 380.242 52.1359 81.8785 380.589 52.3475 81.6689 
381.679 52.8311 81.7377 386.734 55.8861 81.8928 388.858 57.6456 81.9486 
388.62 58.2147 81.3561 388.057 60.0361 82.0562 388.682 59.4647 82.0798 
387.109 60.7593 81.3936 347.518 42.3808 82.9729 350.349 42.7566 82.8745 
350.93 42.9246 82.9506 353.826 43.4573 82.5539 353.436 43.4128 82.6037 
346.049 43.2418 82.6852 354.57 43.6576 82.4631 354.704 43.6515 82.0189 
355.44 43.8503 82.1138 355.624 43.9563 82.3996 345.548 44.1851 82.2402 
357.298 44.3706 82.0001 364.91 46.2594 82.3445 364.182 46.1603 82.3403 
365.484 46.4167 82.1495 366.33 46.6155 81.9622 368.328 47.2448 81.9537 
345.224 47.6479 80.5903 348.23 47.8064 82.5513 371.86 48.768 82.491 
372.416 48.947 82.1695 373.884 49.4489 82.0296 372.636 49.1235 82.5656 
375.376 49.906 82.1596 382.124 52.7885 82.4229 368.416 53.275 82.5297 
386.769 55.7335 82.4165 388.707 56.9545 82.4759 389.394 57.4962 82.6027 
389.679 57.999 82.7585 389.797 57.9405 82.9683 389.802 57.816 82.9511 
389.834 57.8531 83.1027 389.697 58.1019 83.0094 389.472 58.443 82.788 
382.249 59.8098 82.444 388.368 59.6737 82.5515 347.744 42.2603 83.6535 
348.221 42.3795 83.6578 349.862 42.733 83.3763 353.6 43.5776 82.9165 
345.854 43.5537 83.3199 355.29 44.1667 83.0297 356.095 44.2542 82.701 
357.051 44.7617 82.9687 357.82 44.8264 82.7319 357.415 45.172 83.2377 
358.914 45.4862 83.0615 367.096 46.9261 82.2093 364.742 46.79 83.0413 
346.41 46.5922 82.8906 370.186 48.2937 82.9262 369.766 48.0816 82.9193 
349.98 47.1544 83.461 370.434 48.9842 83.4819 370.782 48.9619 83.4244 
373.02 49.4992 82.9522 375.66 50.2039 82.7541 376.392 50.4784 82.8389 
377.958 51.129 82.7663 362.33 50.2838 82.9068 380.254 52.0912 83.0116 
380.963 52.3085 82.8744 382.783 53.0572 82.8863 383.777 53.6477 83.2986 
384.562 54.0696 83.067 385.926 55.1123 83.4057 388.203 56.4819 82.7831 
389.841 57.7143 83.0927 389.784 57.5893 83.1398 389.819 57.694 83.235 
389.783 57.868 83.2749 389.661 58.0532 83.3357 388.988 59.0028 82.9052 
387.617 60.0973 82.5713 387.646 59.9079 82.9057 346.77 41.98 84.069 
346.735 41.9692 84.0603 346.915 42.0646 83.9488 346.838 42.0037 84.046 
346.979 42.0826 84.0292 346.74 42.1566 83.9123 347.284 42.1867 83.8948 
347.68 42.5328 84.2036 348.079 42.8099 84.3161 347.944 43.0283 84.4572 
352.423 43.5814 83.3648 348.914 43.2285 84.3953 354.399 44.2484 83.4194 
345.548 44.4639 83.7128 353.118 44.5345 83.9123 357.276 45.4847 83.4433 
345.973 45.3111 83.9913 346.276 45.4823 83.9816 355.913 46.2475 83.8214 
360.375 46.52 83.3779 363.795 47.0092 83.3588 356.289 47.7968 83.5033 
371.124 49.0281 83.3594 363.159 48.4832 83.5424 375.502 50.4237 83.18 
363.522 49.6082 83.368 371.194 50.1473 83.8065 375.366 51.1907 83.8718 
378.044 51.7697 83.759 379.72 52.0772 83.4347 382.364 52.8961 83.3014 
369.588 52.2787 83.4368 384.866 54.5498 83.7994 386.289 55.5053 83.7314 
387.55 56.1161 83.3109 388.132 56.4236 83.2491 378.771 56.197 83.9072 
389.542 57.3122 83.227 389.525 57.3216 83.3811 378.506 57.0934 83.3071 
389.723 57.6717 83.4138 389.702 57.8441 83.4546 389.445 58.2029 83.4903 
386.111 59.4877 83.5212 388.912 58.9059 83.2398 387.436 59.5375 83.3856 
346.802 42.2953 84.0622 347.091 42.2566 84.0991 346.314 43.2059 83.9995 
347.186 43.0367 84.4166 346.085 43.6706 84.1276 345.763 44.0476 84.0211 
347.669 43.4551 84.587 345.569 44.3551 84.1416 345.517 44.4432 84.3341 
352.211 45.3169 84.2457 345.53 44.7595 84.2433 347.329 45.2337 84.3225 
361.459 47.6378 83.6178 363.133 49.0456 83.4645 370.914 50.5549 83.8646 
370.442 51.7246 83.7319 375.671 52.3438 84.2532 376.359 52.2259 84.2445 
376.923 52.7276 84.3758 378.044 52.5937 84.2811 379.664 52.8776 84.214 
382.502 53.2496 83.855 374.843 53.1228 84.1297 378.227 53.1403 84.4495 
384.548 54.093 83.6027 379.331 53.7491 84.5022 382.559 54.106 84.3609 
376.446 54.542 84.0889 387.656 56.3365 83.7434 386.934 56.4394 84.2935 
[...]
POINT_DATA 881
SCALARS scalars float
LOOKUP_TABLE default
1 1 1 1 1 1 1 1 1 
1 1 1 1 1 1 1 1 1 
1 1 1 1 1 1 1 1 1 
1 1 1 1 1 1 1 1 1 
1 1 1 1 1 1 1 1 1 
1 1 1 1 1 1 1 1 1 
1 1 1 1 1 1 1 1 1 
1 1 1 1 1 1 1 1 1 
1 1 1 1 1 1 1 1 1 
1 1 1 1 1 1 1 1 1 
1 1 1 1 1 1 1 1 1 
1 1 1 1 1 1 1 1 1 
1 1 1 1 1 1 1 1 1 
1 1 1 1 1 1 1 1 1 
1 1 1 1 1 1 1 1 1 
1 1 1 1 1 1 1 1 1 
1 1 1 1 1 1 1 1 1 
1 1 1 1 1 1 1 1 1 
1 1 1 1 1 1 1 1 1 
1 1 1 1 1 1 1 1 1 
1 1 1 1 1 1 1 1 1 
1 1 1 1 1 1 1 1 1 
1 1 1 1 1 1 1 1 1 
1 1 1 1 1 1 1 1 1 
1 1 1 1 1 1 1 1 1 
1 1 1 1 1 1 1 1 1 
1 1 1 1 1 1 1 1 1 
1 1 1 1 1 1 1 1 1 
1 1 1 1 1 1 1 1 1 
1 1 1 1 1 1 1 1 1 
1 1 1 1 1 1 1 1 1 
1 1 1 1 1 1 1 1 1 
1 1 1 1 1 1 1 1 1 
1 1 1 1 1 1 1 1 1 
1 1 1 1 1 1 1 1 1 
1 1 1 1 1 1 1 1 1 
1 1 1 1 1 1 1 1 1 
1 1 1 1 1 1 1 1 1 
1 1 1 1 1 1 1 1 1 
1 1 1 1 1 1 1 1 1 
1 1 1 1 1 1 1 1 1 
1 1 1 1 1 1 1 1 1 
1 1 1 1 1 1 1 1 1 
1 1 1 1 1 1 1 1 1 
1 1 1 1 1 1 1 1 1 
1 1 1 1 1 1 1 1 1 
1 1 1 1 1 1 1 1 1 
1 1 1 1 1 1 1 1 1 
1 1 1 1 1 1 1 1 1 
1 1 1 1 1 1 1 1 1 
1 1 1 1 1 1 1 1 1 
1 1 1 1 1 1 1 1 1 
1 1 1 1 1 1 1 1 1 
1 1 1 1 1 1 1 1 1 
1 1 1 1 1 1 1 1 1 
1 1 1 1 1 1 1 1 1 
1 1 1 1 1 1 1 1 1 
1 1 1 1 1 1 1 1 1 
1 1 1 1 1 1 1 1 1 
1 1 1 1 1 1 1 1 1 
1 1 1 1 1 1 1 1 1 
1 1 1 1 1 1 1 1 1 
1 1 1 1 1 1 1 1 1 
1 1 1 1 1 1 1 1 1 
1 1 1 1 1 1 1 1 1 
1 1 1 1 1 1 1 1 1 
1 1 1 1 1 1 1 1 1 
1 1 1 1 1 1 1 1 1 
1 1 1 1 1 1 1 1 1 
1 1 1 1 1 1 1 1 1 
1 1 1 1 1 1 1 1 1 
1 1 1 1 1 1 1 1 1 
1 1 1 1 1 1 1 1 1 
1 1 1 1 1 1 1 1 1 
1 1 1 1 1 1 1 1 1 
1 1 1 1 1 1 1 1 1 
1 1 1 1 1 1 1 1 1 
1 1 1 1 1 1 1 1 1 
1 1 1 1 1 1 1 1 1 
1 1 1 1 1 1 1 1 1 
1 1 1 1 1 1 1 1 1 
1 1 1 1 1 1 1 1 1 
1 1 1 1 1 1 1 1 1 
1 1 1 1 1 1 1 1 1 
1 1 1 1 1 1 1 1 1 
1 1 1 1 1 1 1 1 1 
1 1 1 1 1 1 1 1 1 
1 1 1 1 1 1 1 1 1 
1 1 1 1 1 1 1 1 1 
1 1 1 1 1 1 1 1 1 
1 1 1 1 1 1 1 1 1 
1 1 1 1 1 1 1 1 1 
1 1 1 1 1 1 1 1 1 
1 1 1 1 1 1 1 1 1 
1 1 1 1 1 1 1 1 1 
1 1 1 1 1 1 1 1 1 
1 1 1 1 1 1 1 1 1 
1 1 1 1 1 1 1 1 
NORMALS Normals float
-0.0727065 -0.0298684 -0.996906 -0.197628 0.228102 -0.953369 -0.0566304 -0.0426297 -0.997485 
0.0303931 -0.0630916 -0.997545 0.16837 0.0158967 -0.985596 0.0342756 -0.068032 -0.997094 
0.323188 -0.143354 -0.935414 0.433577 0.347376 -0.831469 0.473267 -0.433073 -0.767115 
-0.64404 -0.192449 -0.740389 -0.795752 0.0752214 -0.600933 -0.283257 -0.190855 -0.939862 
-0.0550498 -0.4276 -0.90229 -0.0660392 -0.540955 -0.838455 -0.476565 0.196981 -0.856787 
-0.00425677 -0.338604 -0.94092 -0.21412 -0.0101645 -0.976754 -0.112661 -0.250945 -0.961423 
0.0593599 -0.14589 -0.987518 -0.0575393 0.0554979 -0.996799 0.0701617 0.169018 -0.983112 
-0.00526385 0.173927 -0.984745 -0.169466 0.379709 -0.909451 0.132199 -0.450093 -0.883142 
-0.124097 0.108881 -0.986278 -0.00935506 -0.0282162 -0.999558 -0.0770625 0.597095 -0.79846 
-0.0361043 0.152843 -0.987591 -0.281606 0.173405 -0.943731 0.183671 -0.159126 -0.970022 
-0.16305 0.418917 -0.893265 -0.20755 0.545127 -0.812256 -0.0586394 0.286175 -0.956381 
0.314799 -0.186194 -0.930716 0.641469 -0.07822 -0.76315 0.225919 0.614341 -0.756006 
0.284088 0.402291 -0.87032 0.351052 0.595868 -0.72229 -0.353532 -0.463125 -0.81273 
-0.275211 -0.479217 -0.833433 0.0283325 -0.527343 -0.84918 -0.329097 -0.118718 -0.936804 
-0.358145 0.26031 -0.896644 -0.332386 0.579121 -0.744405 -0.0314847 0.476335 -0.8787 
-0.193638 0.687682 -0.699713 -0.231138 0.400691 -0.886579 -0.426241 0.82265 -0.376252 
-0.210684 0.808691 -0.54921 -0.197495 0.6372 -0.744964 -0.237394 0.50443 -0.830177 
-0.29743 0.518519 -0.801669 -0.249997 0.848748 -0.46597 -0.323862 0.611671 -0.721784 
-0.165867 0.580529 -0.797166 -0.205519 0.599932 -0.773204 -0.0341375 0.673008 -0.738847 
-0.151767 0.974557 -0.16494 -0.0506144 0.772591 -0.632883 -0.315724 0.816726 -0.482988 
-0.425864 0.841041 -0.333602 -0.557521 0.799893 -0.222132 -0.364703 0.920332 -0.141355 
-0.241079 0.836544 -0.492011 -0.333471 0.864685 -0.375655 0.00541628 0.308682 -0.95115 
-0.303659 0.649955 -0.69667 0.024462 0.539448 -0.841664 0.56118 0.532112 -0.633983 
-0.443744 0.841296 -0.308727 0.41819 0.698912 -0.580206 -0.334585 0.85418 -0.398033 
-0.177613 0.851886 -0.49269 -0.0479794 0.834761 -0.548518 0.0779125 0.855203 -0.512404 
0.175618 0.863367 -0.473029 -0.121358 -0.706477 -0.697254 -0.891666 -0.117176 -0.437265 
-0.82338 0.389167 -0.413031 -0.769185 0.609244 -0.192809 -0.347478 0.728337 -0.59058 
-0.549966 0.625202 -0.553768 -0.405675 0.880422 -0.24553 -0.238516 0.908161 -0.344026 
-0.295388 0.879639 -0.372803 0.265273 -0.455668 -0.849704 -0.306888 0.948706 -0.0760074 
-0.385176 0.894148 -0.22834 -0.235583 0.661888 -0.711621 -0.139913 0.980331 0.139198 
-0.310752 0.589972 -0.745229 -0.572877 0.81083 0.119859 -0.323556 0.933356 -0.155429 
-0.451159 0.880574 -0.145067 0.666201 0.120247 -0.736014 -0.486726 0.8698 0.080912 
-0.379677 0.898826 -0.21899 -0.239028 0.648472 -0.722737 -0.429253 0.903055 -0.0152574 
0.299424 0.822082 -0.48428 0.39625 0.8646 -0.308954 -0.231097 0.970269 -0.0719166 
-0.0292891 0.996201 -0.0820047 0.113358 0.989861 -0.0855895 -0.415631 -0.626241 -0.6596 
-0.806856 -0.244654 -0.537706 -0.964722 -0.001409 -0.263268 -0.427444 0.886981 -0.174801 
-0.373976 0.900184 -0.223185 -0.386473 0.919663 -0.0697087 -0.195018 0.960001 -0.200913 
-0.266446 0.963705 0.0167325 -0.094796 0.918714 0.383377 -0.374889 0.925309 0.0571071 
-0.420175 0.813073 0.402946 -0.350786 0.924209 0.150954 0.73553 0.32951 -0.591961 
-0.41268 0.873608 0.257883 0.557966 0.719965 -0.412704 0.415462 0.880868 -0.226855 
-0.16954 0.955673 0.240721 0.322649 0.936751 -0.135631 -0.490073 -0.611001 -0.621696 
-0.79686 -0.372271 -0.475845 -0.992513 0.0205705 -0.120394 -0.889642 0.453958 0.0495995 
-0.621967 0.767446 0.155514 -0.365108 0.926612 -0.0899253 -0.265072 0.941293 0.209057 
-0.182672 0.903795 0.387022 -0.397685 0.881582 0.254283 0.681647 0.665559 -0.303957 
-0.28827 0.869864 0.400297 0.550668 0.7842 -0.285998 0.661864 0.642113 -0.386816 
0.0639356 0.952787 0.296833 0.161884 0.984867 0.0618982 -0.0112012 0.96199 0.272856 
0.105901 0.936613 0.333978 -0.994979 0.0963288 0.0271531 -0.926196 0.347959 0.14521 
-0.740657 0.608609 0.284646 -0.61666 0.644392 0.452205 -0.224947 0.920114 0.320606 
-0.24039 0.876331 0.41744 0.621117 -0.109529 -0.776027 0.74673 0.318974 -0.583652 
0.750037 0.451442 -0.483368 0.650719 0.712491 -0.262531 -0.0505032 0.908293 0.415274 
0.210954 0.956456 0.201717 0.357999 0.928703 0.0966819 -0.726735 -0.504022 -0.46671 
-0.813112 -0.4348 -0.387038 -0.767283 0.485159 0.419402 -0.995388 0.0550717 0.0785422 
-0.82058 0.458459 0.341267 -0.605017 0.611592 0.509813 0.308071 -0.668015 -0.677383 
-0.307076 0.784684 0.538494 -0.236107 0.802224 0.548353 0.816357 0.377894 -0.436757 
0.774547 0.568387 -0.277513 0.636688 0.764732 -0.099064 -0.0492732 0.913003 0.404965 
-0.304998 -0.645631 -0.700097 -0.87557 -0.37322 -0.306732 -0.979744 -0.18161 -0.084381 
0.616475 -0.279572 -0.736069 0.665962 -0.0846816 -0.741164 0.677327 0.271219 -0.683863 
-0.319021 0.762051 0.563475 0.472682 0.879882 0.0487781 -0.584627 -0.613194 -0.531229 
-0.964688 0.178273 0.193896 -0.835386 0.48512 0.258437 -0.213235 0.772402 0.598269 
0.733629 0.201674 -0.648934 0.742465 0.252249 -0.620578 0.686406 0.32471 -0.6507 
0.527345 0.84165 -0.116327 -0.448061 -0.748551 -0.488786 0.0746971 -0.638314 -0.766143 
-0.721659 -0.54019 -0.432901 0.177511 -0.856321 -0.48498 -0.947246 0.198174 0.251895 
0.293721 -0.828504 -0.476769 -0.82404 0.361802 0.435955 -0.728658 0.551201 0.406491 
-0.460186 0.734094 0.499335 0.481855 -0.681132 -0.551249 0.725152 -0.0325385 -0.687819 
0.849297 0.249324 -0.46533 0.786434 0.0736747 -0.613265 0.740052 0.305327 -0.599248 
0.679965 0.631736 -0.372233 -0.62283 -0.678955 -0.38872 -0.200151 -0.838385 -0.507001 
-0.939187 -0.277142 -0.202779 -0.999183 0.0217789 0.0340545 -0.5035 0.612885 0.608983 
0.406533 -0.60387 -0.685618 0.732273 -0.240305 -0.637205 -0.265185 0.793763 0.547374 
0.234107 0.951992 0.197243 -0.606016 -0.685837 -0.402954 0.131433 -0.797297 -0.589104 
0.162539 -0.941675 -0.294669 0.152354 -0.944684 -0.290449 0.251292 -0.832736 -0.493359 
-0.992429 -0.00977961 0.122432 0.593357 0.802237 -0.0659002 0.0185105 0.869396 0.493769 
0.167033 0.854288 0.492231 0.213948 0.940791 0.262941 0.32121 0.915853 0.240908 
-0.574227 -0.754203 -0.318497 -0.620818 -0.710044 -0.332298 -0.24774 -0.856116 -0.45353 
0.181509 -0.960569 -0.210622 0.181598 -0.983345 0.00745889 0.260849 -0.933703 -0.245267 
0.341634 -0.898686 -0.275046 -0.787549 0.434051 0.437455 -0.48989 0.731952 0.473555 
0.48322 -0.78669 -0.384211 0.521813 -0.635186 -0.569429 -0.208574 0.730233 0.650582 
0.329698 0.921437 0.205554 -0.783005 -0.601847 -0.157109 -0.0171941 -0.932912 -0.359693 
0.0924243 -0.955593 -0.279822 0.174731 -0.983811 -0.0398099 -0.943209 -0.297569 -0.14768 
0.264482 -0.963756 0.034974 0.239433 -0.969533 -0.0517449 0.258428 -0.962938 -0.07723 
0.31418 -0.949354 -0.00414808 0.33357 -0.939399 -0.0791272 -0.851085 0.280286 0.443953 
0.273257 -0.954856 -0.116538 0.221221 -0.963809 0.148774 -0.453374 0.683742 0.571795 
0.416407 -0.905453 0.0822137 0.293004 -0.951586 -0.0929145 0.426772 -0.849404 -0.310449 
0.463624 -0.810525 -0.357913 0.485708 -0.81725 -0.310146 0.60386 -0.445497 -0.660974 
0.629858 -0.412618 -0.658047 0.578988 0.803353 0.139272 0.76249 0.634238 -0.127875 
0.326543 0.899427 0.290519 0.0918199 -0.945661 -0.311921 0.201422 -0.977848 -0.0569467 
0.273613 -0.958633 0.0784817 0.25838 -0.931388 0.25643 0.119655 -0.978378 0.168696 
-0.831661 -0.545595 -0.103283 0.294482 -0.930838 0.216381 0.257732 -0.96617 0.00942859 
0.27534 -0.94326 0.185602 0.299952 -0.921192 0.247859 -0.979715 -0.19384 -0.0508395 
0.254964 -0.951463 0.172368 0.180822 -0.885971 0.427034 0.179678 -0.93709 0.299296 
0.280213 -0.931252 0.232917 0.339123 -0.922496 0.184381 0.340973 -0.935152 0.0960651 
-0.910334 0.23266 0.342288 -0.156789 0.786874 0.596863 0.338513 -0.882967 0.325235 
0.423555 -0.905554 -0.0239534 0.21425 -0.970017 0.114737 0.525424 -0.831616 0.179846 
0.420402 -0.904943 0.0658798 0.416868 -0.893789 -0.165413 -0.167739 0.641717 0.748374 
0.537635 -0.83647 -0.106149 0.462263 -0.69094 -0.555801 0.699837 -0.469653 -0.538196 
0.856934 0.129711 -0.498838 0.917236 0.324063 -0.231648 0.835773 -0.255914 -0.485789 
0.97098 0.234134 0.0487855 0.807862 0.58405 0.0790263 0.808369 0.588303 0.020973 
-0.186091 0.743858 0.641908 0.593209 0.736203 0.325741 0.285374 -0.942495 -0.173971 
0.219553 -0.966301 0.134384 0.234335 -0.897324 0.374028 0.229592 -0.831981 0.505069 
-0.876676 -0.42771 0.220236 0.26634 -0.837626 0.476913 0.323125 -0.829992 0.454646 
0.179396 -0.731087 0.658277 0.401197 -0.699406 0.5915 0.36526 -0.487458 0.793076 
0.255446 -0.71621 0.649455 0.339213 -0.90381 0.260888 0.213806 -0.68214 0.699265 
-0.376666 0.65372 0.656333 0.351701 -0.863966 0.360373 0.294462 -0.8029 0.518308 
-0.0855893 0.503714 0.85962 0.134084 -0.33801 0.931542 0.242219 -0.527646 0.814199 
0.361434 -0.885784 0.291124 0.0542934 -0.882971 0.466277 0.306434 -0.812069 0.49663 
0.371168 -0.866668 0.333348 -0.152701 0.405399 0.901296 0.239092 -0.95811 0.157672 
0.347708 -0.937054 0.0320843 0.541716 -0.839159 -0.0485376 0.540236 -0.83029 0.136979 
0.560306 -0.828193 -0.0123935 0.558681 -0.825163 0.0835503 0.511458 -0.800864 -0.311492 
0.965651 -0.21616 -0.144195 0.815847 -0.578255 0.0039147 0.948536 -0.147247 0.280353 
0.898284 0.283999 0.335306 0.773221 0.536224 0.338515 0.60696 0.73017 0.313769 
0.18534 0.873527 0.450111 0.233811 0.790577 0.565968 0.195751 -0.520157 0.831335 
-0.345599 -0.938365 -0.00563063 0.150342 -0.923349 -0.353304 0.399855 -0.916438 0.0160348 
0.464199 -0.789557 0.401396 -0.674259 -0.703352 -0.225101 0.332431 -0.899251 0.284319 
0.130558 -0.585206 0.800305 0.288019 -0.681444 0.672815 0.0507998 -0.397839 0.916048 
0.218705 -0.854385 0.471376 0.232981 -0.525385 0.818346 0.221463 -0.460456 0.859613 
-0.961298 -0.27459 -0.0225116 0.23559 -0.443795 0.864606 0.254076 -0.472271 0.844041 
-0.374592 0.653971 0.657269 -0.187365 0.559046 0.807689 0.136579 -0.129515 0.982126 
0.0888522 -0.341427 0.935699 0.0796283 -0.487735 0.869353 0.00827101 0.461568 0.887066 
0.198107 -0.56626 0.800065 -0.0899858 0.0851137 0.992299 0.211835 -0.765184 0.607964 
-0.124591 0.387623 0.913359 0.138116 -0.224464 0.964645 0.0448716 -0.402946 0.914123 
0.196873 -0.589515 0.783398 0.250325 -0.90702 0.338604 0.403726 -0.889269 0.214954 
-0.0743923 0.421165 0.903928 0.496919 -0.670238 0.551229 0.544303 -0.773757 0.324091 
0.470579 -0.872668 0.130411 0.512336 -0.82008 0.254914 -0.23141 0.335999 0.912992 
0.615834 -0.770248 -0.165727 0.685241 -0.663794 0.299703 -0.307339 0.595991 0.741847 
0.830085 -0.235267 0.505578 0.77028 0.219903 0.598592 0.674581 0.551696 0.490482 
-0.0592282 0.522398 0.850643 0.598687 0.677956 0.426555 0.225229 0.703968 0.673573 
-0.58457 -0.154671 0.796464 0.163496 -0.477469 0.863303 -0.67993 -0.405993 0.610626 
-0.20353 -0.295877 0.933291 -0.545996 -0.535995 0.643893 -0.801027 -0.552264 0.230996 
-0.0310175 -0.162261 0.98626 -0.925222 -0.371386 -0.0777028 -0.956454 -0.282284 -0.074239 
0.123634 0.0644371 0.990234 -0.883105 0.439292 0.164765 -0.0761661 0.471586 0.878525 
-0.00836146 0.215938 0.976371 -0.208262 0.182971 0.960806 0.0212562 -0.0980557 0.994954 
0.0797844 0.279654 0.95678 -0.114607 -0.108449 0.987474 0.0321985 -0.218886 0.975219 
-0.0311479 -0.174631 0.984141 0.0575039 -0.369201 0.927569 0.154561 -0.570186 0.806845 
0.354183 -0.755563 0.551071 -0.200807 0.169947 0.964777 -0.0381021 -0.209199 0.977131 
0.562399 -0.762575 0.319666 -0.0140678 -0.104529 0.994422 0.124868 -0.215507 0.968486 
-0.208477 0.311921 0.926953 0.47229 -0.762437 0.442302 0.280588 -0.483066 0.829408 
0.21632 -0.274967 0.936802 0.483665 -0.658906 0.576117 0.513673 -0.65855 0.549956 
0.188166 -0.160528 0.968929 0.43989 -0.401737 0.803184 0.677279 -0.463399 0.571449 
0.473909 -0.0555854 0.878818 0.636243 -0.181378 0.749864 0.588391 0.224442 0.776803 
0.419073 0.432196 0.798489 -0.369154 -0.653956 0.660353 -0.300294 -0.539399 0.786685 
-0.708131 -0.62413 0.330171 -0.00867357 -0.3277 0.944742 -0.00224764 -0.0262948 0.999652 
0.0667183 0.0847193 0.994169 -0.982618 -0.069885 0.171983 -0.85357 0.461328 0.242063 
-0.380272 0.525488 0.761088 -0.0191719 0.26244 0.964758 -0.0541195 0.268923 0.96164 
-0.0878822 -0.0249981 0.995817 -0.130266 0.16185 0.97818 0.325703 0.114234 0.938546 
0.114088 0.28917 0.950455 -0.422511 -0.231075 0.876407 -0.479229 -0.0629465 -0.87543 
-0.670372 -0.370431 -0.642948 -0.886354 0.0896994 -0.454237 -0.12824 0.00773195 -0.991713 
-0.218353 -0.397265 -0.891349 -0.00881531 -0.131946 -0.991218 -0.557606 0.385521 -0.735152 
-0.15636 0.369262 -0.916077 -0.0605816 0.500256 -0.863755 -0.154815 0.158647 -0.975122 
0.0425519 -0.251111 -0.967023 0.124775 -0.0337152 -0.991612 0.165521 0.255121 -0.952636 
-0.106746 0.70679 -0.699324 0.395262 0.440743 -0.805924 0.14952 0.758702 -0.634046 
-0.325909 -0.582259 -0.74482 -0.0690743 -0.593878 -0.801584 -0.270879 -0.582679 -0.766231 
-0.583341 -0.682201 -0.440812 -0.515759 -0.594941 -0.616472 -0.0289741 -0.432677 -0.901084 
0.167179 -0.45177 -0.87633 -0.979784 -0.0751713 -0.185396 0.122225 -0.257328 -0.958563 
0.0770047 -0.0486479 -0.995843 0.0778685 -0.246748 -0.965946 -0.858067 0.412722 -0.305583 
0.00614403 0.323906 -0.946069 -0.405717 0.689284 -0.600234 -0.11656 0.321111 -0.939841 
-0.0224273 0.0193692 -0.999561 -0.0964668 -0.0248659 -0.995026 -0.119805 0.0051665 -0.992784 
-0.136566 0.161054 -0.977451 -0.0517232 0.0284633 -0.998256 -0.0313496 -0.129614 -0.991069 
-0.153069 0.049617 -0.986969 -0.221548 0.160828 -0.961796 0.0810592 -0.288452 -0.954057 
-0.222675 0.290578 -0.930581 0.100732 0.125327 -0.986989 0.00317096 0.138014 -0.990425 
0.181626 -0.244253 -0.952551 -0.117603 0.469041 -0.875312 0.275808 -0.0381059 -0.960457 
-0.107965 0.542923 -0.832813 0.427656 0.0756947 -0.900767 0.691989 0.360859 -0.625246 
0.062098 0.683588 -0.727222 0.522147 0.533229 -0.665604 -0.0242191 -0.756241 -0.653845 
0.150418 -0.793105 -0.590219 -0.557312 -0.726515 -0.40197 0.186083 -0.784685 -0.591306 
-0.848357 -0.477846 -0.227933 -0.833659 -0.551758 -0.0239959 -0.783499 -0.620145 0.0393783 
0.122743 -0.427801 -0.8955 0.0286148 -0.194313 -0.980522 0.150146 -0.659594 -0.736473 
0.288183 -0.773664 -0.564264 -0.995369 -0.050158 -0.0820049 0.0742826 -0.243366 -0.967086 
0.316477 -0.489737 -0.812404 0.28669 -0.468704 -0.835539 -0.936691 0.330752 -0.114948 
-0.888594 0.41119 -0.203285 0.00911199 -0.130665 -0.991385 0.0812131 0.151112 -0.985175 
-0.122058 -0.0764014 -0.989578 0.0324302 -0.28956 -0.95661 0.059013 0.306001 -0.9502 
0.0118564 0.0621604 -0.997996 0.0772659 -0.101784 -0.991801 0.0688774 -0.267549 -0.961079 
-0.106993 0.0270977 -0.99389 -0.00189924 -0.245723 -0.969338 0.0886733 -0.40466 -0.910158 
0.125015 -0.481458 -0.867508 0.518768 -0.679345 -0.519009 0.346965 -0.85659 -0.381928 
0.195129 -0.553046 -0.809978 0.587733 -0.740128 -0.326771 -0.150909 0.131576 -0.979752 
-0.00698531 -0.248588 -0.968584 0.344693 -0.326893 -0.879959 -0.0831887 -0.209097 -0.97435 
0.243248 -0.467935 -0.849628 0.257688 -0.442663 -0.858863 0.244862 -0.428665 -0.869649 
0.338377 -0.616309 -0.711101 -0.216854 0.303447 -0.927844 0.332259 -0.557694 -0.760645 
0.666472 -0.629411 -0.399572 -0.319467 0.331978 -0.887542 0.278497 -0.227333 -0.933145 
0.487484 -0.102179 -0.867132 0.954323 -0.135284 -0.266394 0.954026 -0.276614 0.115411 
0.52799 0.0709187 -0.846284 0.723181 0.146691 -0.674901 0.829998 0.435209 -0.34885 
0.705581 0.476689 -0.52433 -0.0934614 0.534074 -0.840256 0.552723 0.712431 -0.432366 
0.651621 0.665625 -0.363777 -0.0905228 -0.885406 -0.455918 -0.528172 -0.824862 -0.201588 
-0.481751 -0.63938 -0.599257 -0.252711 -0.949726 0.184816 -0.708113 -0.662483 -0.244321 
0.0204542 -0.995154 -0.0961778 0.0385729 -0.998839 0.0288506 0.156347 -0.956504 -0.246286 
-0.973702 -0.214199 0.0776049 0.111908 -0.362571 -0.925213 0.033014 -0.25042 -0.967574 
0.169383 -0.559798 -0.811132 0.209265 -0.631992 -0.746187 -0.56902 0.623919 -0.53567 
0.0642666 0.294221 -0.953574 -0.0323574 0.553556 -0.832183 0.108335 -0.422275 -0.899971 
-0.00205775 -0.172197 -0.98506 -0.0992243 0.27149 -0.957313 0.2404 -0.676277 -0.696317 
0.404583 -0.835006 -0.372931 0.159543 -0.732752 -0.661529 0.246825 -0.90396 -0.34919 
0.445441 -0.696761 -0.562234 0.617841 -0.611773 -0.493971 0.222814 -0.90074 -0.372856 
0.532763 -0.846262 -0.00204249 0.716972 -0.690923 -0.0926092 0.200782 -0.512716 -0.834751 
0.439902 -0.79108 -0.425062 0.532245 -0.816932 0.222119 -0.250742 0.468952 -0.846884 
0.514481 -0.810821 0.279066 0.770999 -0.503676 0.389707 0.89507 -0.173774 0.410673 
-0.364809 0.53731 -0.760403 0.991946 0.125262 -0.0187906 0.869502 0.481972 0.108026 
0.402644 0.826595 -0.393216 -0.693628 -0.711016 0.115485 -0.644122 -0.715514 0.270457 
-0.311149 -0.827699 0.467013 -0.117755 -0.940179 0.319684 0.219356 -0.973531 -0.0641897 
0.228246 -0.835021 -0.500644 0.190066 -0.867048 -0.460546 0.279768 -0.866106 -0.414234 
0.324574 -0.845425 -0.424156 0.358038 -0.719078 -0.595597 -0.970683 0.144933 -0.191751 
0.235629 -0.827777 -0.509181 0.335357 -0.920853 -0.198912 -0.883013 0.279871 -0.376775 
0.430272 -0.873336 -0.228363 0.263161 -0.708956 -0.654315 0.322394 -0.904281 -0.279889 
0.277453 -0.787743 -0.549983 -0.277098 0.523169 -0.805922 0.299082 -0.95155 -0.0714369 
0.43906 -0.861227 0.255959 0.332197 -0.931026 0.151112 0.349088 -0.904868 0.243619 
0.520243 -0.79779 0.304759 0.559644 -0.797523 0.22529 0.652704 -0.585154 0.48122 
0.528891 -0.64518 0.551378 0.876922 0.108751 0.468167 0.881722 0.381703 0.277254 
0.852318 0.284836 0.43866 0.608152 0.775912 -0.167663 -0.120056 0.730134 -0.672674 
0.496383 0.780546 -0.379936 -0.428256 -0.837611 0.339124 0.107102 -0.973612 0.201516 