# vtk DataFile Version 4.2
vtk output
ASCII
DATASET POLYDATA
POINTS 656 float
363.212 75.5562 65.0554 363.787 76.2316 65.0318 354.749 73.0583 65.652 
359.927 74.2361 65.2436 363.211 75.0467 65.1685 366.386 76.2568 65.6204 
366.37 76.7848 65.6321 367.431 76.6436 65.9677 362.161 77.3299 65.3316 
367.475 76.9322 65.994 367.671 77.1402 66.1617 366.223 77.9052 65.8195 
366.457 78.0222 65.9705 365.183 78.3282 65.7616 367.337 77.6705 66.2317 
350.939 70.4763 66.2914 351.289 71.6539 66.1932 363.704 73.6897 65.7038 
367.223 75.5357 66.0838 362.904 76.6767 65.0891 368.218 76.7022 66.3972 
368.419 76.7689 66.5353 368.463 76.5547 66.5812 368.533 76.6783 66.5827 
368.466 76.8967 66.7178 368.562 76.718 66.6564 365.185 78.6436 65.9693 
364.951 78.8366 66.1088 367.427 77.8975 66.5428 365.323 78.8175 66.1869 
347.965 67.9258 67.2534 348.498 69.3402 66.8401 359.258 71.3482 66.1646 
350.291 72.721 66.8487 368.774 75.6249 67.1459 359.026 76.7635 65.89 
368.679 76.5649 66.9096 368.584 76.637 66.659 365.774 78.8156 66.4052 
363.139 79.5475 66.7199 366.351 79.0996 67.1252 342.56 66.6036 68.954 
342.225 66.3945 69.3202 343.406 66.1671 68.636 345.273 66.6351 67.9837 
347.939 66.7236 67.7694 344.196 67.7771 67.9723 344.632 67.6788 67.777 
352.311 67.5798 67.429 343.513 68.7232 68.3161 346.437 69.4416 67.3483 
348.016 70.3243 66.9767 358.072 69.28 67.2378 348.539 71.1549 66.9996 
363.087 71.1987 67.1064 349.009 72.5746 67.4823 351.556 73.7733 66.881 
350.946 74.1091 67.429 351.615 74.6113 67.5571 351.969 74.9591 67.8229 
355.252 75.7864 66.6771 369.934 75.6962 68.4501 356.011 76.546 67.0245 
356.233 76.276 66.6181 369.058 76.5481 67.627 357.439 77.2404 66.9664 
356.93 77.2253 67.3204 362.014 79.5944 67.1333 342.688 65.6413 69.3851 
343.944 64.9882 69.2453 348.885 65.7194 68.4723 341.894 67.2278 69.49 
344.782 67.7845 67.7026 342.497 69.3772 69.1721 345.844 70.2595 67.7502 
346.967 70.7463 67.4571 346.466 71.2589 68.0141 348.547 73.2138 68.5614 
349.055 73.7078 68.4951 350.095 74.3148 68.3834 351.49 75.1414 68.4696 
351.533 75.0536 68.2462 352.591 75.4447 68.3516 351.826 75.2855 68.3426 
351.555 75.2212 68.351 351.605 75.2652 68.3929 351.623 75.2494 68.3257 
355.592 76.7506 67.7559 351.599 75.2799 68.3532 354.636 76.5412 68.5307 
356.614 77.2866 67.8401 360.27 79.1527 68.1771 360.769 79.4463 68.5523 
366.289 79.6246 68.484 361.802 79.9653 68.4703 362.363 80.0602 67.8711 
363.196 80.4251 68.321 364.952 80.2167 68.1232 363.45 80.5079 68.2045 
363.686 80.5636 68.2273 363.928 80.5468 68.1025 364.572 80.3921 68.223 
342.788 64.8857 70.0337 352.494 65.8457 69.0144 341.161 68.6061 70.4574 
365.103 70.2672 68.8135 341.573 69.6579 70.1771 342.62 70.2613 69.6537 
344.427 70.9182 69.0495 345.091 71.3819 69.2023 346.933 71.9608 68.4167 
370.723 73.5658 69.7383 370.987 73.5807 70.0191 351.6 75.0817 68.8365 
351.784 75.2736 68.4544 352.387 75.3482 69.0891 354.118 76.1702 69.3273 
351.673 75.2927 68.3678 355.219 76.7602 69.125 367.123 79.1617 68.862 
365.933 79.8081 68.6505 361.173 79.6322 68.7659 362.062 80.0545 68.6121 
364.763 80.2338 68.787 345.119 63.9735 70.0961 342.013 65.3168 70.479 
341.577 65.998 70.4707 341.055 68.6148 70.7545 341.258 69.5141 70.6467 
341.372 70.0216 70.6765 369.29 71.6002 70.1008 341.486 70.2275 70.5246 
341.419 70.2178 70.603 341.463 70.2829 70.5785 341.893 70.2701 70.1814 
370.234 72.6084 69.8969 342.068 70.5919 70.4412 342.077 70.5333 70.3076 
342.634 70.6969 70.2669 342.239 70.6498 70.3286 343.448 70.9575 69.9895 
370.923 72.9528 70.2728 371.286 73.3936 70.5743 371.344 73.1918 70.7777 
342.126 70.6285 70.3637 343.939 71.1876 70.1247 345.433 71.7599 70.2908 
347.754 72.8698 69.809 354.36 76.2396 69.4901 357.908 77.8549 69.4297 
359.709 78.7786 69.262 362.02 79.7733 69.2398 364.177 79.9075 69.7364 
366.835 79.1522 69.761 344.063 63.105 71.5253 349.177 63.7231 70.9335 
341.799 65.1512 71.2646 359.252 66.7026 71.1306 361.342 67.4676 70.8022 
368.071 70.3537 71.2383 341.145 69.1965 71.193 341.137 69.572 70.959 
341.129 69.626 71.0357 341.169 69.7105 70.9803 341.484 70.249 70.6572 
341.523 70.1335 70.8627 344.378 70.984 71.6084 371.215 72.8078 70.8829 
371.333 72.986 70.9949 342.189 70.5526 70.6594 342.951 70.7541 70.8658 
345.355 71.5502 71.171 371.391 73.4359 71.0573 370.347 75.7448 70.7565 
355.278 76.3717 70.0207 369.79 76.5301 70.82 364.771 79.657 70.1923 
343.883 62.848 72.1227 343.774 62.8944 72.3152 344.033 62.7799 72.2598 
344.713 62.7784 72.083 345.621 62.8756 71.907 345.781 62.8712 72.1159 
349.978 63.6856 71.5479 350.268 63.7111 71.8081 342.645 63.8637 71.8103 
341.634 65.3835 71.4861 356.424 65.728 71.6232 358.934 66.5288 71.4323 
358.649 66.4295 71.6346 361.337 67.36 71.5405 362.468 67.7009 71.4609 
365.169 68.8456 71.5507 365.056 68.782 71.909 366.257 69.3139 71.9255 
340.979 67.9164 71.7437 367.227 69.8436 71.9876 342.556 70.3024 71.5554 
371.042 72.4859 71.67 342.842 70.575 71.2988 346.734 71.7437 71.6388 
371.343 73.0321 71.2939 371.188 73.8036 71.8692 370.864 74.7154 71.579 
365.338 78.3148 71.8846 343.778 62.9523 72.5275 344.327 62.7408 72.2932 
344.414 62.7599 72.4735 344.686 62.8068 72.5471 343.023 63.3777 72.2256 
342.827 63.5575 72.2788 345.079 62.8323 72.4228 346.117 62.9552 72.2553 
342.585 63.9042 72.1762 351.014 63.902 72.2563 351.701 64.1156 72.3073 
352.044 64.259 72.1329 357.487 66.1381 72.1453 360.517 67.2599 72.216 
341.045 67.1664 72.0532 364.527 68.5944 72.0566 365.267 68.9514 72.3042 
367.357 70.0943 72.7869 367.708 70.1295 72.3745 341.753 69.0519 72.3206 
342.502 69.4474 72.5199 369.625 71.2706 72.0487 370.982 72.3532 71.9082 
370.932 72.2991 71.9867 371.24 72.8344 71.5504 370.919 72.4455 72.0897 
371.095 73.6283 72.2673 370.846 74.4872 72.125 359.444 75.6321 72.8525 
368.648 77.279 71.62 367.395 77.8273 71.8864 343.702 63.093 72.6897 
344.421 62.875 72.6566 342.82 63.6749 72.5005 343.269 63.5776 72.9194 
343.928 63.2356 72.9511 343.991 63.4947 73.2024 344.933 63.3274 73.1315 
351.258 64.0159 72.4841 342.292 64.6626 72.7587 350.052 64.0499 73.0612 
341.533 65.8422 72.5313 353.624 65.4208 73.4137 357.059 66.4093 72.913 
354.478 66.0218 73.6777 360.231 67.4624 72.8003 362.417 67.7894 72.1109 
359.772 68.0224 73.6033 363.055 68.5504 73.0719 363.529 68.9286 73.3349 
365.619 69.4723 73.0862 368.081 70.4102 72.5503 343.648 69.6297 72.8532 
366.402 70.3964 73.7131 367.509 70.9507 73.7443 367.927 71.2285 73.7761 
370.797 72.215 72.0611 370.312 74.8345 72.8885 367.148 76.6268 73.2449 
367.41 77.1644 72.6901 342.76 64.2531 72.9943 343.287 63.9448 73.176 
343.86 63.8177 73.3554 344.069 65.0598 74.021 341.86 65.6154 73.0427 
342.055 65.6405 73.2999 347.065 65.1916 74.2202 349.377 65.0066 73.9675 
348.266 65.5715 74.2887 352.799 66.1986 74.1954 341.459 67.016 73.0038 
341.627 67.922 72.9432 342.194 67.6487 73.48 353.084 67.0945 74.4811 
360.989 68.8917 73.9351 344.673 68.4442 73.955 359.243 69.1712 74.3366 
364.563 70.0647 73.9062 354.621 70.6899 74.284 370.575 72.7135 72.9862 
369.004 72.4783 74.037 361.838 73.8105 74.4651 369.228 72.9714 74.0964 
370.739 73.6794 73.0019 370.356 74.4623 73.1294 363.808 75.0944 74.2676 
368.778 76.468 72.7608 341.944 66.3562 73.4604 342.658 66.1336 73.9147 
344.093 66.1504 74.3195 342.26 66.8649 73.7136 345.142 67.005 74.464 
345.608 66.8214 74.5221 347.291 67.1853 74.6156 357.847 69.7886 74.617 
354.088 69.9793 74.4434 360.676 71.3443 74.713 360.997 71.753 74.7899 
361.466 71.9757 74.7468 364.647 71.9303 74.5812 370.276 73.1591 73.5282 
363.702 73.8396 74.7035 369.54 73.6217 73.9816 369.813 74.5851 73.546 
368.79 75.6155 73.4883 357.973 70.2662 74.7178 358.757 71.3306 74.66 
365.007 73.2808 74.6834 344.162 65.3363 381.782 342.121 65.6301 382.233 
342.44 65.8167 382.034 342.329 65.5758 382.104 343.11 65.9695 381.875 
343.458 65.8763 381.835 345.619 67.0367 381.703 345.894 66.9072 381.669 
355.776 69.2235 381.396 358.301 70.9731 381.273 361.092 70.917 381.271 
363.424 72.5061 381.233 366.75 73.1683 381.463 368.901 73.8282 381.86 
364.779 74.3607 381.454 367.404 74.4445 381.604 368.321 75.6433 382.121 
369.288 75.1986 382.269 342.765 63.7152 382.774 342.356 65.0492 382.314 
351.319 66.8371 381.699 350.876 66.2257 381.84 341.48 66.6255 382.844 
341.471 66.5214 382.869 341.559 66.5569 382.791 344.672 67.7005 382.074 
355.063 67.8657 381.629 350.769 68.7894 381.71 364.916 71.1118 381.648 
354.38 70.9488 381.795 365.206 71.4782 381.556 369.196 72.3483 382.4 
369.159 73.4678 382.056 370.214 73.466 382.74 363.445 74.799 381.69 
370.287 74.0696 382.83 366.722 75.5534 381.851 367.42 76.0257 382.215 
368.844 76.0976 382.649 369.055 75.7986 382.522 369.301 75.5173 382.47 
368.96 76.0058 382.608 342.807 63.5141 383.072 342.597 63.6924 383.044 
343.081 63.5211 382.915 346.997 63.6885 383.343 350.516 64.8235 382.521 
354.421 65.5549 382.795 341.631 66.2615 382.795 354.084 66.4683 382.061 
341.411 66.7685 383.13 341.799 66.6288 382.694 355.763 66.9068 382.137 
341.527 66.8816 383.024 342.96 67.6508 382.593 361.126 69.399 381.791 
364.043 69.7756 382.209 367.135 70.8721 382.403 367.466 70.7602 382.677 
366.713 71.2167 382.048 370.705 73.4424 383.326 370.834 73.1897 383.571 
370.581 73.8903 383.236 365.66 75.8719 382.055 369.726 75.6913 383.225 
368.367 76.7227 383.267 343.476 63.1559 383.339 343.429 63.0592 383.541 
343.2 63.1825 383.575 343.621 63.0382 383.507 343.821 63.0242 383.614 
342.877 63.3607 383.532 350.484 64.2536 383.247 350.543 64.1191 383.558 
349.641 64.4068 382.756 352.65 64.6377 383.426 354.337 64.8975 383.824 
356.381 65.3445 383.586 356.205 65.2538 383.664 356.438 65.2477 383.619 
356.382 65.234 383.622 356.426 65.2143 383.628 356.267 65.5911 383.375 
356.706 65.6007 383.702 356.485 65.3272 383.652 356.439 65.2433 383.65 
357.004 66.0296 383.364 341.349 66.7046 383.35 363.218 68.2045 383.698 
367 67.0087 383.017 367 67.0087 383.017 367 67.0088 383.017 
367 67.0088 383.017 341.489 67.0856 383.347 341.4 67.5448 383.978 
[...]
POINT_DATA 656
SCALARS scalars float
LOOKUP_TABLE default
1 1 1 1 1 1 1 1 1 
1 1 1 1 1 1 1 1 1 
1 1 1 1 1 1 1 1 1 
1 1 1 1 1 1 1 1 1 
1 1 1 1 1 1 1 1 1 
1 1 1 1 1 1 1 1 1 
1 1 1 1 1 1 1 1 1 
1 1 1 1 1 1 1 1 1 
1 1 1 1 1 1 1 1 1 
1 1 1 1 1 1 1 1 1 
1 1 1 1 1 1 1 1 1 
1 1 1 1 1 1 1 1 1 
1 1 1 1 1 1 1 1 1 
1 1 1 1 1 1 1 1 1 
1 1 1 1 1 1 1 1 1 
1 1 1 1 1 1 1 1 1 
1 1 1 1 1 1 1 1 1 
1 1 1 1 1 1 1 1 1 
1 1 1 1 1 1 1 1 1 
1 1 1 1 1 1 1 1 1 
1 1 1 1 1 1 1 1 1 
1 1 1 1 1 1 1 1 1 
1 1 1 1 1 1 1 1 1 
1 1 1 1 1 1 1 1 1 
1 1 1 1 1 1 1 1 1 
1 1 1 1 1 1 1 1 1 
1 1 1 1 1 1 1 1 1 
1 1 1 1 1 1 1 1 1 
1 1 1 1 1 1 1 1 1 
1 1 1 1 1 1 1 1 1 
1 1 1 1 1 1 1 1 1 
1 1 1 1 1 1 1 1 1 
1 1 1 1 1 1 1 1 1 
1 1 1 1 1 1 1 1 1 
1 1 1 1 1 1 1 1 1 
1 1 1 1 1 1 1 1 1 
1 1 1 1 1 1 1 1 1 
1 1 1 1 1 1 1 1 1 
1 1 1 1 1 1 1 1 1 
1 1 1 1 1 1 1 1 1 
1 1 1 1 1 1 1 1 1 
1 1 1 1 1 1 1 1 1 
1 1 1 1 1 1 1 1 1 
1 1 1 1 1 1 1 1 1 
1 1 1 1 1 1 1 1 1 
1 1 1 1 1 1 1 1 1 
1 1 1 1 1 1 1 1 1 
1 1 1 1 1 1 1 1 1 
1 1 1 1 1 1 1 1 1 
1 1 1 1 1 1 1 1 1 
1 1 1 1 1 1 1 1 1 
1 1 1 1 1 1 1 1 1 
1 1 1 1 1 1 1 1 1 
1 1 1 1 1 1 1 1 1 
1 1 1 1 1 1 1 1 1 
1 1 1 1 1 1 1 1 1 
1 1 1 1 1 1 1 1 1 
1 1 1 1 1 1 1 1 1 
1 1 1 1 1 1 1 1 1 
1 1 1 1 1 1 1 1 1 
1 1 1 1 1 1 1 1 1 
1 1 1 1 1 1 1 1 1 
1 1 1 1 1 1 1 1 1 
1 1 1 1 1 1 1 1 1 
1 1 1 1 1 1 1 1 1 
1 1 1 1 1 1 1 1 1 
1 1 1 1 1 1 1 1 1 
1 1 1 1 1 1 1 1 1 
1 1 1 1 1 1 1 1 1 
1 1 1 1 1 1 1 1 1 
1 1 1 1 1 1 1 1 1 
1 1 1 1 1 1 1 1 1 
1 1 1 1 1 1 1 1 
NORMALS Normals float
0.065694 -0.152876 -0.986059 0.12123 0.0637612 -0.990574 -0.189954 0.258649 -0.947111 
-0.0674908 -0.0783329 -0.99464 -0.0436497 -0.288526 -0.956477 0.295507 -0.127864 -0.946745 
0.295798 0.0609493 -0.953304 0.414744 -0.0299888 -0.909444 -0.169546 0.448153 -0.877732 
0.399616 0.190874 -0.89659 0.582389 0.3116 -0.750819 0.283083 0.391737 -0.875446 
0.363707 0.47447 -0.80162 0.104432 0.433095 -0.895278 0.481223 0.47379 -0.737528 
-0.139065 -0.0490398 -0.989068 -0.055146 -0.188071 -0.980606 0.298985 -0.448501 -0.842292 
0.436471 -0.275506 -0.856498 -0.14414 0.105871 -0.983878 0.499258 0.215057 -0.83934 
0.515397 0.372422 -0.771795 0.594303 -0.253206 -0.763342 0.68618 0.0662094 -0.724413 
0.677739 0.571055 -0.463213 0.816735 0.419051 -0.39666 0.230513 0.595897 -0.769266 
0.0384518 0.709554 -0.703601 0.589127 0.632241 -0.50319 0.287321 0.690457 -0.663865 
-0.0613817 -0.319282 -0.94567 -0.168781 -0.119639 -0.978366 0.0999527 -0.494782 -0.86325 
-0.396448 0.381045 -0.835245 0.694912 -0.25523 -0.672276 -0.247728 0.407087 -0.879153 
0.910408 0.0637559 -0.408769 0.857941 -0.137167 -0.495098 0.266734 0.82188 -0.503354 
-0.0957773 0.752623 -0.651448 0.396263 0.798296 -0.453541 -0.578992 -0.121091 -0.806291 
-0.659097 -0.338998 -0.67132 -0.398469 -0.38731 -0.831392 -0.158636 -0.464444 -0.871278 
0.00627579 -0.418511 -0.90819 -0.413021 -0.0851173 -0.906735 -0.371743 -0.271701 -0.887686 
0.0939955 -0.423746 -0.900891 -0.453177 0.198699 -0.868993 -0.314006 0.150592 -0.937402 
-0.345557 0.149114 -0.926475 0.197813 -0.631352 -0.749843 -0.35103 0.248913 -0.902674 
0.121514 -0.580343 -0.805255 -0.476821 0.525858 -0.704355 -0.283762 0.531261 -0.798274 
-0.447986 0.661595 -0.601333 -0.307051 0.70613 -0.638044 -0.335429 0.771261 -0.540965 
-0.381268 0.672458 -0.634378 0.858907 0.234365 -0.455359 -0.549574 0.641855 -0.534781 
-0.396035 0.524873 -0.753435 0.839554 0.351736 -0.414042 -0.297563 0.717494 -0.629808 
-0.353066 0.813529 -0.462077 -0.343977 0.716236 -0.607195 -0.550775 -0.521272 -0.651861 
-0.221941 -0.6389 -0.736579 0.0860351 -0.646075 -0.758409 -0.815171 -0.0644834 -0.57562 
-0.236115 -0.151245 -0.959883 -0.643951 0.145441 -0.751115 -0.487305 0.506026 -0.711668 
-0.386544 0.402529 -0.829791 -0.528241 0.504827 -0.682724 -0.568491 0.73196 -0.375571 
-0.527807 0.849222 0.0155296 -0.48099 0.713678 -0.509228 -0.587529 0.803886 0.0926122 
-0.405613 0.645366 -0.647287 -0.308366 0.920684 -0.239273 -0.0679016 0.836027 -0.544471 
-0.758966 0.565998 -0.321896 -0.456443 0.79243 0.404617 -0.203633 0.55904 -0.803746 
-0.527157 0.753442 -0.392976 -0.47043 0.83611 -0.282161 -0.4394 0.894248 -0.0851339 
-0.395867 0.88962 -0.227741 -0.401432 0.895774 -0.190895 -0.484427 0.849363 0.209557 
0.460412 0.883024 -0.0910455 -0.437164 0.899293 -0.0126065 -0.29952 0.912887 -0.277354 
-0.263348 0.95042 0.165376 0.480227 0.875442 -0.0546151 -0.244462 0.935708 -0.254339 
-0.0458405 0.997088 0.0609362 0.103922 0.931733 -0.347956 0.26261 0.921542 -0.286002 
-0.490384 -0.668664 -0.558939 0.197791 -0.734904 -0.648687 -0.861943 0.0466771 -0.504853 
0.310226 -0.722366 -0.618019 -0.704699 0.198083 -0.681295 -0.465398 0.549607 -0.693784 
-0.416625 0.685179 -0.597456 -0.400612 0.797571 -0.450988 -0.526307 0.696388 -0.487898 
0.616107 -0.317387 -0.720886 0.754511 -0.229424 -0.61488 -0.365987 0.867536 0.336802 
-0.194938 0.921808 0.335067 -0.381543 0.827128 0.412656 -0.534671 0.532682 0.656031 
-0.0945842 0.989433 -0.109889 -0.357454 0.913082 0.196234 0.668548 0.738793 -0.0850233 
0.378527 0.925362 0.0205799 -0.466562 0.883356 0.0447488 -0.290585 0.936532 0.196135 
0.34491 0.898814 0.270501 -0.0632494 -0.774002 -0.630016 -0.687246 -0.567318 -0.453699 
-0.855679 -0.357737 -0.37395 -0.9776 -0.0306685 -0.208226 -0.881645 0.113014 -0.458182 
-0.930706 0.363599 -0.0397654 0.489016 -0.750032 -0.445326 -0.720683 0.325726 -0.611979 
-0.917011 0.39303 -0.067963 -0.685044 0.714643 -0.141417 -0.585754 0.533549 -0.610096 
0.554197 -0.504993 -0.661701 -0.471075 0.881975 0.0144096 -0.477326 0.704375 -0.525372 
-0.246802 0.964569 -0.0932486 -0.200978 0.964437 -0.171666 -0.356576 0.923463 -0.141668 
0.637862 -0.578409 -0.508503 0.915026 -0.00164516 -0.403392 0.925282 -0.218063 -0.310325 
-0.466461 0.846827 -0.255533 -0.405517 0.908146 -0.10405 -0.39424 0.918792 0.0198929 
-0.411808 0.898163 0.154006 -0.518933 0.70076 0.489535 -0.39398 0.848632 0.352992 
-0.426449 0.863027 0.270786 -0.324802 0.751944 0.573659 -0.131912 0.844475 0.519097 
0.452857 0.854814 0.253405 -0.278786 -0.812701 -0.51166 0.160607 -0.894682 -0.416832 
-0.790293 -0.601251 -0.118041 0.207824 -0.888641 -0.40881 0.248807 -0.927795 -0.278013 
0.50001 -0.845159 -0.188934 -0.979675 0.133868 0.149385 -0.960509 0.0630738 -0.271006 
-0.889512 0.361103 0.279953 -0.889815 0.451068 -0.0690402 -0.57844 0.643877 0.50083 
-0.541155 0.699746 0.466377 -0.323888 0.878111 0.352161 0.793527 -0.551951 -0.256252 
0.946966 -0.31032 -0.0834107 -0.276823 0.915284 0.292617 -0.33737 0.923784 0.181121 
-0.267932 0.86092 0.432468 0.986442 0.154944 0.0540811 0.838841 0.533411 0.108712 
-0.438266 0.464047 0.769795 0.691023 0.71997 0.0642763 0.264309 0.862822 0.430905 
-0.339424 -0.897925 -0.280218 -0.416839 -0.893526 0.166905 -0.216683 -0.976056 -0.0190707 
0.0231265 -0.984164 -0.175745 0.137127 -0.919086 -0.369428 0.174644 -0.984609 0.00665579 
0.282813 -0.907012 -0.312003 0.194308 -0.980156 0.0392195 -0.774158 -0.60046 -0.200316 
-0.892973 -0.450108 0.0016783 0.273453 -0.961368 -0.0315499 0.348291 -0.915152 0.202955 
0.364819 -0.917945 0.155832 0.271319 -0.953192 0.13346 0.358749 -0.927132 -0.108284 
0.428991 -0.893769 -0.130933 0.4302 -0.901121 0.0539399 0.423318 -0.894543 -0.143507 
-0.962581 0.117618 0.24414 0.514165 -0.857543 0.0159408 -0.39818 0.801467 0.44621 
0.711163 -0.684471 -0.16046 -0.33636 0.80798 0.483767 -0.221143 0.828437 0.514576 
0.953097 -0.268547 0.139606 0.959182 0.180862 0.217389 0.862794 0.501027 0.0675142 
-0.0410661 0.723552 0.689047 -0.40006 -0.836729 0.373946 0.0155444 -0.99976 -0.0154271 
-0.153328 -0.901754 0.404142 0.155099 -0.919816 0.360393 -0.590287 -0.807104 0.0119789 
-0.75151 -0.653148 0.0928971 0.174954 -0.866388 0.46772 0.182255 -0.980137 0.0781962 
-0.875151 -0.478051 0.0746827 0.168148 -0.962387 0.213395 0.316979 -0.942816 -0.103063 
0.45744 -0.842836 0.283508 0.29203 -0.888698 0.353462 0.315231 -0.934924 0.162933 
-0.986767 -0.161427 -0.015256 0.345323 -0.918402 0.193106 0.442502 -0.860222 0.253397 
0.424816 -0.815652 0.392739 0.534267 -0.810319 0.240711 -0.631431 0.469582 0.61708 
-0.368758 0.642278 0.671935 0.573616 -0.753812 0.320518 0.899611 -0.418672 0.12415 
0.676583 -0.735722 0.0308107 0.942779 -0.215943 0.254041 0.864843 -0.278756 0.417542 
0.918757 0.104934 0.380623 0.874916 0.396607 0.277893 -0.277919 0.5493 0.788055 
0.488311 0.82196 0.293146 0.333833 0.845918 0.415906 -0.386477 -0.675045 0.62845 
0.00820721 -0.715562 0.698501 -0.685042 -0.581408 0.438956 -0.51474 -0.627109 0.584617 
-0.250494 -0.723701 0.643047 -0.223472 -0.596834 0.770616 0.0537899 -0.626567 0.777509 
0.250666 -0.778976 0.574772 -0.824373 -0.48351 0.294326 0.0998351 -0.687658 0.719138 
-0.897803 -0.321832 0.300622 0.323172 -0.7083 0.627591 0.341589 -0.770315 0.538453 
0.304899 -0.762832 0.570197 0.308764 -0.806561 0.504108 0.303167 -0.869949 0.388944 
0.185991 -0.540654 0.820427 0.0859089 -0.660961 0.745487 0.147118 -0.66206 0.734869 
0.351308 -0.781182 0.516079 0.536734 -0.810916 0.233092 -0.25294 0.657161 0.710042 
0.327652 -0.631531 0.702718 0.389007 -0.658538 0.644206 0.273013 -0.459682 0.845078 
0.652292 -0.592431 0.472801 0.679437 0.552877 0.482383 0.0984526 0.636074 0.765322 
0.222262 0.741054 0.633592 -0.52014 -0.399639 0.754813 -0.434448 -0.433128 0.789718 
-0.217297 -0.395248 0.892503 -0.147079 -0.402668 0.903453 -0.811345 -0.271949 0.517459 
-0.699799 -0.292286 0.651805 -0.0386077 -0.387291 0.921149 0.122988 -0.480183 0.868503 
0.0516171 -0.403106 0.913696 0.210539 -0.449783 0.867968 -0.845599 -0.00417533 0.533803 
-0.721191 0.272247 0.636997 -0.412692 0.347117 0.842137 0.15223 -0.267825 0.951365 
0.175079 -0.54594 0.819327 -0.1585 0.415714 0.895578 0.101214 -0.314046 0.943997 
0.159134 -0.390465 0.90676 -0.00971492 0.13744 0.990463 0.73425 -0.393853 0.552953 
0.39057 -0.462643 0.795874 -0.152118 0.304723 0.940215 0.258024 -0.21204 0.942583 
0.827896 0.0621023 0.557433 0.732656 0.304972 0.608446 -0.0550329 0.491382 0.869204 
0.558894 0.650562 0.514204 -0.697912 -0.0626094 0.713442 -0.352246 -0.0617364 0.933869 
-0.154123 -0.118676 0.980899 -0.450353 0.126803 0.8838 -0.137518 -0.0201992 0.990293 
-0.0996872 0.00348532 0.995013 0.0124807 -0.0184497 0.999752 0.0829921 -0.244934 0.965981 
0.0756838 0.114947 0.990484 0.118811 -0.280542 0.95246 -0.0530491 0.0653234 0.996453 
0.0769866 -0.142977 0.986727 0.22871 -0.189688 0.954835 0.633301 -0.0777904 0.769986 
-0.0533442 0.222564 0.973458 0.352094 0.192551 0.915944 0.52467 0.398127 0.752474 
0.319405 0.47302 0.821117 -0.0698305 0.0800835 0.994339 -0.0102187 0.0131942 0.999861 
0.230092 0.0265068 0.972808 -0.0449689 -0.267093 -0.962621 -0.723425 -0.191348 -0.663357 
-0.387106 0.0159044 -0.921898 -0.311678 -0.269851 -0.911064 -0.222303 0.0711423 -0.972379 
-0.169194 -0.0413516 -0.984715 -0.0448146 0.274167 -0.960637 -0.0152128 0.177104 -0.984075 
0.0346446 -0.0937086 -0.994997 0.0248301 0.0658839 -0.997518 -0.0202384 0.222982 -0.974613 
0.00918263 -0.0122582 -0.999883 0.249026 -0.134833 -0.959065 0.356211 -0.00144568 -0.934404 
-0.00124614 0.256865 -0.966446 0.17869 0.171643 -0.968818 0.308521 0.393504 -0.866008 
0.530642 0.310983 -0.788485 -0.398699 -0.491875 -0.774014 -0.559242 -0.388418 -0.732379 
0.103707 -0.237425 -0.965854 0.0284272 -0.315469 -0.94851 -0.698015 0.244762 -0.672954 
-0.877929 -0.164239 -0.44974 -0.511602 -0.0477012 -0.857897 -0.237869 0.377164 -0.895078 
0.108051 -0.337249 -0.935194 -0.0960249 0.134902 -0.986195 0.171452 -0.425979 -0.888339 
-0.121107 0.618466 -0.776423 0.171681 -0.251266 -0.952571 0.488042 -0.422809 -0.763576 
0.460978 -0.145964 -0.875325 0.667902 -0.0842439 -0.739466 -0.17413 0.378134 -0.909227 
0.753714 0.204131 -0.624696 0.0377511 0.366837 -0.929519 0.107818 0.590403 -0.799874 
0.267683 0.645913 -0.714942 0.342744 0.511333 -0.788077 0.619746 0.48259 -0.618887 
0.429506 0.630902 -0.646132 -0.554401 -0.802601 -0.220164 -0.720568 -0.642392 -0.260987 
-0.127072 -0.800977 -0.585054 0.120107 -0.807125 -0.578034 0.192956 -0.590846 -0.78337 
0.199258 -0.661043 -0.723407 -0.850231 -0.211603 -0.482008 0.154343 -0.433956 -0.887615 
-0.915845 0.266535 -0.300312 -0.40801 0.424117 -0.808488 0.19353 -0.47374 -0.859137 
-0.49928 0.650476 -0.572364 -0.407917 0.502898 -0.762035 0.193187 -0.360156 -0.91267 
0.243463 -0.62714 -0.739879 0.342958 -0.559291 -0.754701 0.445802 -0.60363 -0.660977 
0.369619 -0.329188 -0.868918 0.890898 0.20233 -0.40665 0.878259 -0.131361 -0.459788 
0.854615 0.257443 -0.450951 -0.0538055 0.552595 -0.831711 0.675517 0.592049 -0.439493 
0.241564 0.759648 -0.603807 -0.214329 -0.826036 -0.521275 -0.298965 -0.926157 -0.229898 
-0.520881 -0.849451 -0.084356 -0.0155088 -0.942053 -0.335106 0.105129 -0.977987 0.180248 
-0.480076 -0.871113 -0.10339 0.188555 -0.841135 -0.506891 0.167055 -0.927663 -0.333966 
0.0628678 -0.732259 -0.678119 0.231794 -0.954328 -0.188492 0.252134 -0.965986 0.0574378 
0.248511 -0.454661 -0.855293 -0.0610863 -0.93712 -0.343621 0.595283 -0.346427 -0.725001 
-0.117153 -0.414529 -0.902464 0.325492 -0.939985 -0.102384 0.37029 -0.578045 -0.727152 
0.657341 -0.70329 -0.270713 0.8775 -0.457976 -0.142307 0.77156 -0.53086 0.350547 
0.416218 -0.762211 -0.495779 -0.98524 -0.028937 -0.168713 0.291766 -0.85619 -0.426394 
0 -0.992278 -0.124035 0 -1 0 -0.447214 -0.894427 0 
0.447214 -0.894427 0 -0.721256 0.523131 -0.454008 -0.91748 0.186908 -0.351135 
0.26426 -0.630723 -0.729626 0.355297 -0.797279 -0.487965 0 1 0 
-0.655963 0.449474 -0.606371 -0.149907 0.649709 -0.745256 0.512915 -0.785352 -0.346614 
-0.362099 0.658028 -0.660215 0.380768 -0.456901 -0.803902 0.729072 -0.391364 -0.561505 
0.923979 0.17311 -0.341022 0.858903 0.450105 -0.244319 0.652199 0.686858 -0.320722 
0.346191 0.742952 -0.572864 -0.385186 -0.909842 0.154333 -0.0947558 -0.978643 0.182427 
-0.336099 -0.854513 0.396036 0.154778 -0.98541 -0.070783 0.242289 -0.944965 -0.219856 
0.267379 -0.963544 0.0095429 -0.851019 -0.493489 -0.179543 -0.873137 -0.430409 0.228865 
0.27731 -0.906859 0.317342 0.386769 -0.740592 0.549485 0.400824 -0.838455 0.369232 
0.354004 -0.907314 0.226852 0.333527 -0.941852 -0.0409147 0.316466 -0.947712 -0.0411213 
0.23629 -0.969069 0.0712224 0 -0.992278 0.124035 -0.977208 -0.102396 -0.185956 
0.460193 -0.841911 -0.281792 -0.899269 0.184453 -0.396602 -0.885418 0.279291 -0.371527 
0.620709 -0.751751 -0.222689 0.506909 -0.859686 -0.0631231 -0.619199 0.627742 -0.471735 
0.69051 -0.480598 -0.540575 0.581106 -0.69216 -0.428054 0.814835 -0.237584 -0.52877 
0.71194 -0.597685 -0.368665 0.89987 -0.214363 -0.379846 0.913179 0.313376 -0.260576 
0.925771 0.0110294 -0.377923 -0.18802 0.656379 -0.730627 0.0168632 0.781852 -0.623235 
-0.153202 -0.882528 0.444604 -0.632597 -0.741216 0.224545 0.0525474 -0.975963 0.211506 
0.113989 -0.898581 0.423745 0.147404 -0.960167 0.237386 -0.974962 -0.218629 -0.0406215 
0.443057 -0.896493 -0.000123355 -0.991073 -0.13261 0.0137759 0.489316 -0.855422 0.169774 
-0.969245 0.107423 -0.221413 0.536563 -0.736012 0.412779 0.544293 -0.83782 -0.0424495 
-0.760949 0.523182 -0.383716 -0.228557 0.812592 -0.536149 0.60011 -0.794679 -0.091395 
0.60519 -0.792817 -0.072016 -0.382566 0.848723 -0.365119 0.615218 -0.758337 -0.215478 
0.924826 -0.113387 -0.363097 0.907379 -0.375693 0.188465 -0.304415 0.763522 -0.569531 
0.979328 0.201033 -0.0224043 0.960595 0.157493 0.229026 0.866443 0.472513 0.16127 
0.921365 0.352587 0.163609 0.665205 0.717945 -0.205079 0.464317 0.796788 -0.386703 
-0.166328 -0.84214 0.512967 0.184456 -0.840721 0.509081 0.143726 -0.811464 0.566453 
0.226099 -0.92334 0.310358 0.322844 -0.842506 0.431225 -0.954377 0.118289 0.274175 
-0.792328 0.497896 0.352585 -0.584516 0.811363 -0.00566998 -0.580999 0.66413 0.470501 
0.549329 -0.759387 0.348668 -0.492311 0.860801 -0.129039 0.838131 -0.215538 0.501078 
0.626611 -0.474137 0.618508 0.671101 -0.583324 0.457554 -0.4404 0.865647 -0.238125 
0.801509 -0.0441014 0.596354 0.917101 0.114609 0.381825 0.846332 0.148493 0.51154 
-0.402421 0.847346 -0.3465 -0.348008 0.759022 -0.55025 -0.398085 0.838111 -0.372959 
-0.549482 -0.659965 0.512363 0.0115559 -0.815606 0.578492 -0.606974 -0.599793 0.521374 
-0.0403643 -0.638293 0.768734 0.204068 -0.74181 0.638807 0.122893 -0.791122 0.599186 
0.287476 -0.817129 0.499658 0.238746 -0.798987 0.551925 -0.892627 -0.234386 0.38507 
-0.871521 -0.0316847 0.489334 -0.807446 0.0903105 0.582988 -0.72778 0.340012 0.59559 
-0.828169 0.227599 0.512187 -0.465806 0.63585 0.615402 -0.531156 0.461508 0.710552 
-0.429586 0.785308 0.445812 -0.558458 0.677878 0.478128 0.574816 -0.586642 0.570471 
-0.535106 0.755711 0.377575 0.62554 -0.425482 0.653961 0.633773 -0.323932 0.702425 
-0.481971 0.800059 0.357225 0.605295 -0.366647 0.706532 0.811091 0.00750855 0.584871 
-0.568056 0.814136 -0.120398 -0.517259 0.677238 0.523251 -0.649443 0.757262 0.0691234 
-0.597492 0.788699 -0.144767 -0.483286 0.782501 -0.392589 -0.442775 0.826692 0.347176 
0.806646 0.583554 0.0937371 -0.51497 0.855173 -0.0590318 -0.538866 0.776008 -0.327773 
0.485689 0.855087 -0.181473 -0.107844 0.757649 -0.64369 0.0475707 0.765118 -0.642131 
0.207801 0.786181 -0.582012 0.148811 0.913233 -0.37929 0.334066 0.905375 -0.262098 
-0.696164 -0.400827 0.595562 0.0813619 -0.638084 0.765656 0.10904 -0.612518 0.7829 
0.164813 -0.712384 0.682162 -0.597959 0.125134 0.791699 -0.648694 0.12727 0.750332 
-0.516418 0.516119 0.683326 0.394933 -0.478716 0.784129 -0.580173 0.758778 0.296065 
-0.495573 0.556611 0.666777 0.572439 -0.500956 0.64912 -0.522018 0.749209 0.407656 
0.923025 0.240447 0.300351 -0.411889 0.910681 0.0317529 -0.488619 0.871942 0.03112 
-0.308455 0.866331 -0.392843 -0.411357 0.91038 0.0446606 -0.323438 0.943306 -0.0745752 
-0.599277 0.799013 -0.0494583 -0.711949 0.694652 0.102891 0.708652 0.685824 0.165702 
-0.653388 0.747026 -0.122624 -0.426285 0.901841 0.0704487 0.590717 0.778396 0.212491 
-0.376794 0.926232 0.0110174 -0.275847 0.917079 -0.287878 -0.0608824 0.922656 -0.380788 
-0.247161 0.955686 0.159925 -0.14471 0.964986 0.218771 -0.118247 0.965874 -0.230445 
0.316361 0.946111 -0.0692035 0.00744872 0.999813 0.0178155 0.170093 0.983081 -0.0679794 
-0.452326 -0.557051 0.696488 -0.269768 -0.62316 0.734096 -0.384281 -0.307799 0.870395 
-0.525994 -0.298787 0.796276 -0.591916 -0.123819 0.796432 -0.0782505 -0.561545 0.823738 
0.038629 -0.491021 0.870291 -0.445229 0.119871 0.887357 -0.390756 0.219717 0.893887 
0.0310227 -0.579232 0.814573 0.110769 -0.631348 0.767548 -0.390378 0.547216 0.740378 
0.622943 -0.280858 0.73011 -0.41091 0.678169 0.609294 0.861928 -0.0810543 0.50051 
-0.41441 0.764153 0.494302 -0.392408 0.753875 0.526961 0.827061 0.275667 0.489875 
0.840627 0.045253 0.539721 0.787499 0.550807 0.276508 -0.236447 0.969678 -0.0617801 
-0.598896 0.788955 0.137378 -0.431789 0.778575 0.455389 -0.479901 0.86831 0.125434 
-0.344684 0.801391 0.488841 -0.276318 0.848917 0.450542 -0.265573 0.900142 0.345275 
-0.0409157 0.833115 0.551584 0.441932 0.836336 0.324405 -0.349138 -0.366861 0.862273 
-0.079821 -0.335299 0.938724 -0.200618 0.0251615 0.979346 -0.296679 0.0320874 0.954438 
-0.250839 -0.0889871 0.96393 -0.388532 0.113409 0.914429 -0.44894 0.394175 0.801922 
0.644141 -0.162966 0.747345 -0.465552 0.715126 0.521398 -0.50601 0.491447 0.708826 
-0.335802 0.637873 0.693077 -0.538855 0.739999 0.402539 -0.412992 0.639809 0.648137 
-0.350074 0.778505 0.520939 0.645226 0.638829 0.419025 -0.142194 -0.140459 0.979822 
-0.0553793 -0.230569 0.971479 0.0721779 -0.479085 0.874796 -0.107849 -0.395105 0.912283 
-0.220306 0.193302 0.956086 -0.0776952 0.311065 0.947208 -0.340741 0.191332 0.920482 
0.102283 -0.399218 0.911133 -0.138426 0.50991 0.849017 0.706785 0.0134886 0.7073 
-0.250532 0.513477 0.820716 0.773425 0.317268 0.548775 -0.340392 0.461141 0.819441 
-0.327735 0.349388 0.877791 0.352593 0.646732 0.676325 -0.160768 -0.0192812 0.986804 