# vtk DataFile Version 4.2
vtk output
ASCII
DATASET POLYDATA
POINTS 732 float
368.611 71.1384 60.5874 368.758 71.4494 60.6628 369.673 71.9515 60.734 
369.544 72.0125 60.7855 369.716 72.0423 60.7622 369.788 71.9797 60.7693 
369.818 72.1433 60.8773 358.856 66.1285 60.8938 359.766 66.7207 60.7526 
362.83 68.256 60.59 362.407 69.0771 60.735 368.097 70.5118 60.5945 
365.791 70.8715 60.7837 369.6 71.6882 60.7435 368.734 72.1101 60.9658 
370.94 71.786 61.1591 371.145 72.0493 61.3943 352.991 63.5281 61.9286 
354.385 64.4284 61.6962 354.643 64.7359 61.6576 360.137 66.212 60.9258 
359.316 66.7537 60.817 359.744 67.7111 60.8788 360.77 67.7169 60.6909 
361.614 69.4475 61.0572 361.384 69.5331 61.2042 363.082 70.0285 61.0343 
361.868 69.9374 61.4524 371.175 71.5976 61.3159 371.2 71.2569 61.3896 
365.595 71.357 61.2798 367.153 71.8443 61.1864 371.415 71.9274 61.6404 
366.182 71.5757 61.1209 368.226 72.5038 61.3867 370.618 72.4337 61.3902 
370.957 72.3621 61.5051 371.188 72.1953 61.5619 369.982 72.7161 61.5502 
370.885 72.5009 61.6724 354.568 63.9552 61.7622 352.551 64.8971 62.4088 
352.968 64.6956 62.1072 354.301 65.4167 61.8859 353.22 65.3246 62.3416 
360.349 69.0222 61.3161 359.794 68.9228 61.4997 359.615 68.9889 61.7018 
360.973 69.505 61.4525 372.261 70.4513 62.3456 360.388 69.4445 61.8758 
363.393 70.5883 61.5528 372.013 71.2511 62.1183 363.955 70.8918 61.8721 
364.99 71.2864 61.73 365.46 71.5329 61.7147 365.718 71.5914 61.5342 
366.272 71.7751 61.6176 372.27 71.4133 62.5103 365.582 71.5846 61.609 
367.905 72.5537 61.8008 368.707 72.8529 61.7644 369.473 72.9491 61.8003 
368.929 72.9554 61.9565 345.491 60.3638 64.0807 345.294 60.1046 64.2332 
345.443 60.5818 64.0931 345.296 60.7119 64.224 348.617 61.438 63.224 
350.844 61.1879 62.9567 349.022 62.1849 63.0618 349.623 62.0376 62.9102 
355.395 62.4622 62.3654 350.187 63.0485 62.7805 361.148 64.2574 62.0085 
351.437 64.4689 62.7598 353.257 65.652 62.6232 354.204 66.2508 62.4881 
354.007 66.2894 62.769 354.447 66.5937 62.7989 355.693 66.9597 62.1989 
354.836 66.7807 62.6405 371.861 69.3098 62.4174 358.699 68.7053 62.3651 
359.145 68.85 61.999 373.06 70.4252 63.1558 361.64 70.1467 62.252 
371.965 71.9154 62.5308 371.397 72.4179 62.3596 371.683 72.2449 62.5349 
368.205 72.7179 62.0039 368.494 72.8445 62.1448 370.407 72.8839 62.2407 
370.949 72.6189 62.4082 369.634 73.0379 62.2699 369.935 73.0645 62.3457 
370.045 73.0741 62.3032 344.67 59.6239 64.7415 344.546 59.392 64.9758 
345.407 59.7348 64.37 345.819 59.3004 64.5071 344.648 60.0819 64.5957 
344.821 60.2497 64.4623 344.937 60.5372 64.4428 348.214 62.6522 63.4968 
353.17 65.8303 63.0397 354.871 66.8567 62.9149 355.38 67.1412 62.8182 
357.825 68.2197 63.0908 359.914 69.2298 63.1408 359.599 69.173 62.5793 
361.693 70.0226 62.9479 362.948 70.5079 62.7596 364.97 71.0766 63.1886 
366.649 71.9666 62.41 368.708 72.8735 62.3438 368.946 72.7623 62.8424 
370.391 72.8514 62.5775 370.1 73.0221 62.4123 344.632 59.0906 65.1586 
344.478 58.9116 65.5217 351.088 58.9493 64.3715 344.282 59.9297 65.1381 
344.432 60.2859 64.9174 344.441 60.5198 65.028 345.892 61.7289 64.5734 
347.151 62.3781 64.0409 346.553 62.4578 64.8591 371.896 66.1785 64.2431 
350.475 64.5612 63.9974 351.875 65.2356 64.0377 352.544 65.6206 63.7847 
356.323 67.1869 64.2722 374.869 68.625 65.1583 359.179 68.5822 63.867 
360.811 69.4124 63.5623 362.913 69.7964 64.2285 365.161 70.9303 63.6618 
369.368 72.0756 64.1745 371.858 72.1245 63.3725 370.546 72.451 63.5693 
346.034 57.4837 65.9119 349.015 57.4476 65.5978 344.129 59.3942 65.6729 
364.445 61.5675 65.408 341 63.0087 65.0174 341 63.0087 65.0175 
341 63.0087 65.0175 344.589 60.945 65.3796 341 63.0087 65.0175 
344.956 61.3256 65.4032 345.498 61.6491 64.988 341 63.0088 65.0175 
346.742 62.5907 65.0066 351.297 64.8775 64.5066 372.7 66.8732 64.1949 
359.61 68.0209 64.9621 375.091 67.9754 65.4993 375.327 67.8169 65.8148 
375.07 68.8486 65.7613 366.558 70.6298 64.8873 374.165 70.035 65.0236 
373.51 70.785 64.5186 373.787 70.4623 64.8352 373.35 70.8736 64.7548 
370.423 72.0194 64.3874 371.582 71.9135 64.3896 345.635 56.9896 66.6148 
346.991 57.0385 66.1668 354.756 58.2534 65.8691 344.061 59.5041 66.1587 
344.106 60.3326 65.9672 344.131 60.5126 65.8285 344.204 60.6508 65.7871 
341 63.0087 65.0175 344.325 60.7842 65.6654 344.841 61.1693 65.7147 
345.223 61.532 65.5174 369.405 63.2104 65.9762 371.861 64.0893 66.6971 
346.229 62.1755 65.5143 351.168 64.0626 65.9714 353.019 64.5051 66.2345 
375.192 68.7566 66.149 372.931 71.0781 64.9811 345.617 56.2067 67.6565 
345.212 56.6633 67.3643 346.945 56.4169 67.0244 348.276 56.3592 67.3847 
350.367 57.0572 66.4568 359.185 58.7687 66.9003 344.217 58.9661 67.0564 
360.91 59.529 66.9619 364.378 61.0192 66.2789 363.966 60.7988 66.6608 
365.599 61.2929 66.8185 344.536 60.8025 66.0267 369.478 62.7765 66.9923 
370.654 63.3469 66.9624 371.128 63.5906 67.0711 349.415 62.8246 66.7896 
374.328 65.5735 66.6811 375.447 66.8583 66.4652 362.925 67.1532 66.9466 
365.391 68.259 66.7677 375.147 68.7728 66.515 372.89 70.6029 65.9073 
346.132 55.7985 68.0139 346.225 55.6106 68.2303 345.317 56.3942 67.7231 
347.196 55.8885 68.1575 345.045 56.6746 67.5909 347.853 56.1256 67.984 
349.891 56.5627 67.6254 355.265 57.7492 67.2079 355.663 57.7837 67.5272 
356.784 58.0297 67.3477 357.996 58.3414 67.5913 359.556 58.7945 67.4618 
344.297 58.3115 67.7509 344.21 58.5454 67.7 344.213 58.6507 67.6725 
365.62 61.2015 67.2494 365.462 61.1742 67.1619 365.748 61.2623 67.2883 
366.106 61.475 67.3565 368.185 62.1388 67.1962 344.403 60.2314 66.5476 
344.575 59.7916 67.1657 369.876 62.9705 67.3336 372.425 64.1875 67.6089 
351.607 62.3896 67.811 374.733 65.7324 67.1949 375.175 66.1492 67.0282 
375.95 66.6435 67.3544 375.829 66.498 67.3894 375.97 66.5664 67.4834 
375.882 66.856 67.1522 376.049 66.6524 67.4869 376.034 66.7869 67.4304 
376.069 66.6897 67.5336 376.012 66.9092 67.52 376.021 66.7353 67.594 
375.809 67.456 67.1998 375.917 67.1246 67.5183 371.758 69.2745 67.491 
375.117 68.5681 67.1905 373.887 69.6311 66.6733 374.386 69.0383 67.1751 
372.948 69.9506 66.7516 373.431 69.7383 66.827 346.082 55.6324 68.3707 
345.892 55.8206 68.3154 346.352 55.547 68.3237 346.205 55.5478 68.3596 
346.304 55.4904 68.399 346.337 55.4883 68.4264 345.32 56.3293 68.1138 
346.621 55.6662 68.3388 346.406 55.5586 68.43 345.04 56.6283 68.1294 
344.798 56.9645 67.9639 348.737 56.3427 68.2288 350.455 56.6742 68.0038 
359.41 58.772 67.7486 359.967 59.0436 67.8547 358.737 58.9777 68.5373 
358.324 58.8116 68.5066 359.208 58.873 68.1953 344.455 58.5754 67.9936 
365.52 61.2165 67.3269 346.061 60.0031 68.0611 366.603 62.2955 68.388 
369.538 63.2585 68.177 362.064 64.3637 68.4079 372.979 65.3306 68.5457 
374.146 65.6121 68.2013 375.431 66.2669 67.698 375.807 66.4659 67.5543 
375.125 66.2634 68.0141 375.83 66.5918 67.7267 375.73 66.6466 67.8806 
375.999 66.6103 67.5749 367.238 67.0822 68.0866 375.843 66.733 67.8153 
375.921 66.8582 67.7004 373.387 68.6897 67.8915 373.978 68.9192 67.5589 
346.217 55.6038 68.4317 346.305 55.5405 68.4352 345.744 56.0499 68.4481 
345.484 56.2324 68.3644 346.057 55.9 68.5081 346.445 55.7656 68.4963 
346.852 56.12 68.6804 347.905 56.3095 68.6564 349.392 56.5691 68.4796 
345.054 56.8464 68.4696 348.463 56.6362 68.8529 349.972 56.838 68.714 
352.354 57.5433 68.7793 354.415 57.8118 68.4132 344.513 57.6485 68.5406 
351.764 57.7004 69.0606 356.414 58.3562 68.5074 358.069 58.5754 68.2868 
358.691 58.6423 68.1178 344.524 57.8098 68.6166 351.156 57.995 69.2171 
357.434 59.1742 68.8931 344.5 58.0167 68.4934 345.509 58.7023 68.6845 
357.939 60.3049 69.2076 358.056 60.237 69.1704 364.199 61.1216 68.0495 
351.837 60.8846 68.7746 361.881 61.1405 68.8185 359.182 61.877 68.9704 
364.788 62.2104 68.695 365.656 62.8139 68.7892 367.485 63.1505 68.6764 
362.307 62.8619 68.8988 369.355 63.5766 68.4948 360.548 63.4719 68.5914 
368.106 64.265 68.913 371.912 65.2458 68.8318 371.573 65.1598 68.8144 
370.23 64.6598 68.8266 367.405 65.6031 68.7704 374.442 66.5564 68.483 
375.009 67.1929 68.2803 375.281 67.2979 68.1205 374.52 68.0557 68.1207 
348.225 56.9637 69.0772 349.771 57.0192 68.9424 344.809 57.531 68.791 
344.64 57.776 68.7419 344.645 57.9721 68.6569 345.162 57.9086 68.8779 
347.412 58.4806 69.1722 347.556 58.1319 69.2536 350.176 58.0871 69.2829 
354.642 58.9181 69.2758 346.53 58.9461 68.8587 355.731 59.4061 69.2925 
357.704 59.8113 69.0834 354.915 59.5232 69.3461 354.926 59.9616 69.2632 
357.975 60.8402 69.1199 360.976 61.3787 68.9723 366.52 62.7696 68.7284 
363.644 62.5258 68.9141 368.997 65.2042 68.9101 370.295 65.6065 68.9264 
373.526 66.7601 68.5821 344.745 57.6746 68.8054 345.393 57.6216 68.948 
348.185 57.6537 69.2834 355.485 59.4785 69.3437 370.435 65.3323 68.9477 
347.878 56.7881 386.871 347.839 56.931 386.782 345.216 57.2062 387.157 
345.408 57.1172 387.085 345.985 57.3288 386.893 347.28 57.3346 386.732 
345.742 57.5335 386.966 349.583 58.4068 386.567 349.873 58.3553 386.598 
349.452 58.5898 386.605 350.802 59.2071 386.642 354.054 59.0383 386.78 
371.717 66.1629 387.338 371.568 66.2042 387.351 371.838 66.1315 387.382 
345.247 56.6479 387.548 345.594 56.4293 387.47 346.443 56.3209 387.199 
345.567 56.8733 387.132 350.033 57.4314 386.879 349.506 56.9714 387.055 
344.657 57.5895 387.639 344.655 57.7835 387.67 345.843 58.2505 387.163 
353.852 58.6242 386.884 355.044 58.6498 387.036 348.623 59.4727 387.036 
353.992 59.8275 386.799 362.089 60.7277 387.358 353.949 61.1042 387.087 
362.338 63.0128 387.147 364.536 62.9146 387.174 366.091 63.7233 387.185 
369.668 65.4479 387.288 372.751 65.5527 387.824 369.518 65.7287 387.297 
371.075 65.9859 387.362 373.675 66.2534 387.837 374.957 67.5409 388.271 
377.004 69.0131 386.009 377.004 69.0132 386.009 377.004 69.0132 386.009 
377.004 69.0131 386.009 377.004 69.0132 386.009 346.155 55.9915 387.614 
345.881 56.0448 387.678 346.261 55.9083 387.748 346.506 55.8999 387.858 
[...]
POINT_DATA 732
SCALARS scalars float
LOOKUP_TABLE default
1 1 1 1 1 1 1 1 1 
1 1 1 1 1 1 1 1 1 
1 1 1 1 1 1 1 1 1 
1 1 1 1 1 1 1 1 1 
1 1 1 1 1 1 1 1 1 
1 1 1 1 1 1 1 1 1 
1 1 1 1 1 1 1 1 1 
1 1 1 1 1 1 1 1 1 
1 1 1 1 1 1 1 1 1 
1 1 1 1 1 1 1 1 1 
1 1 1 1 1 1 1 1 1 
1 1 1 1 1 1 1 1 1 
1 1 1 1 1 1 1 1 1 
1 1 1 1 1 1 1 1 1 
1 1 1 1 1 1 1 1 1 
1 1 1 1 1 1 1 1 1 
1 1 1 1 1 1 1 1 1 
1 1 1 1 1 1 1 1 1 
1 1 1 1 1 1 1 1 1 
1 1 1 1 1 1 1 1 1 
1 1 1 1 1 1 1 1 1 
1 1 1 1 1 1 1 1 1 
1 1 1 1 1 1 1 1 1 
1 1 1 1 1 1 1 1 1 
1 1 1 1 1 1 1 1 1 
1 1 1 1 1 1 1 1 1 
1 1 1 1 1 1 1 1 1 
1 1 1 1 1 1 1 1 1 
1 1 1 1 1 1 1 1 1 
1 1 1 1 1 1 1 1 1 
1 1 1 1 1 1 1 1 1 
1 1 1 1 1 1 1 1 1 
1 1 1 1 1 1 1 1 1 
1 1 1 1 1 1 1 1 1 
1 1 1 1 1 1 1 1 1 
1 1 1 1 1 1 1 1 1 
1 1 1 1 1 1 1 1 1 
1 1 1 1 1 1 1 1 1 
1 1 1 1 1 1 1 1 1 
1 1 1 1 1 1 1 1 1 
1 1 1 1 1 1 1 1 1 
1 1 1 1 1 1 1 1 1 
1 1 1 1 1 1 1 1 1 
1 1 1 1 1 1 1 1 1 
1 1 1 1 1 1 1 1 1 
1 1 1 1 1 1 1 1 1 
1 1 1 1 1 1 1 1 1 
1 1 1 1 1 1 1 1 1 
1 1 1 1 1 1 1 1 1 
1 1 1 1 1 1 1 1 1 
1 1 1 1 1 1 1 1 1 
1 1 1 1 1 1 1 1 1 
1 1 1 1 1 1 1 1 1 
1 1 1 1 1 1 1 1 1 
1 1 1 1 1 1 1 1 1 
1 1 1 1 1 1 1 1 1 
1 1 1 1 1 1 1 1 1 
1 1 1 1 1 1 1 1 1 
1 1 1 1 1 1 1 1 1 
1 1 1 1 1 1 1 1 1 
1 1 1 1 1 1 1 1 1 
1 1 1 1 1 1 1 1 1 
1 1 1 1 1 1 1 1 1 
1 1 1 1 1 1 1 1 1 
1 1 1 1 1 1 1 1 1 
1 1 1 1 1 1 1 1 1 
1 1 1 1 1 1 1 1 1 
1 1 1 1 1 1 1 1 1 
1 1 1 1 1 1 1 1 1 
1 1 1 1 1 1 1 1 1 
1 1 1 1 1 1 1 1 1 
1 1 1 1 1 1 1 1 1 
1 1 1 1 1 1 1 1 1 
1 1 1 1 1 1 1 1 1 
1 1 1 1 1 1 1 1 1 
1 1 1 1 1 1 1 1 1 
1 1 1 1 1 1 1 1 1 
1 1 1 1 1 1 1 1 1 
1 1 1 1 1 1 1 1 1 
1 1 1 1 1 1 1 1 1 
1 1 1 1 1 1 1 1 1 
1 1 1 
NORMALS Normals float
0.0961542 -0.0631464 -0.993361 -0.159472 0.365496 -0.91705 0.00944976 0.129604 -0.991521 
-0.209788 0.514728 -0.83129 0.0823478 0.492095 -0.866638 0.349794 0.152793 -0.924282 
0.123873 0.683177 -0.71967 -0.0758559 -0.183356 -0.980115 -0.0819387 -0.102036 -0.9914 
-0.000981119 -0.0905545 -0.995891 -0.164217 0.346198 -0.923677 -0.0410781 -0.00727254 -0.999129 
-0.203315 0.453343 -0.867838 0.0611 0.0391873 -0.997362 -0.107611 0.548906 -0.828928 
0.426049 0.205492 -0.881053 0.600658 0.372078 -0.707649 -0.194192 -0.126853 -0.972727 
-0.191343 -0.0970445 -0.976714 -0.0495097 -0.0905774 -0.994658 0.0933121 -0.315395 -0.944362 
-0.14927 -0.0474757 -0.987656 -0.242197 0.311489 -0.918866 0.0186764 -0.034824 -0.999219 
-0.276603 0.36189 -0.89024 -0.390603 0.53871 -0.746472 -0.170457 0.42803 -0.887544 
-0.286464 0.740103 -0.608429 0.675635 0.0317193 -0.736553 0.493875 -0.177364 -0.851252 
-0.354288 0.758972 -0.546298 -0.205169 0.630693 -0.74842 0.786211 0.265329 -0.558097 
-0.294913 0.752589 -0.588759 -0.270331 0.804055 -0.529544 0.307213 0.693964 -0.651178 
0.451997 0.623215 -0.638202 0.686548 0.598817 -0.412396 0.0894508 0.801828 -0.590822 
0.445153 0.829958 -0.336166 -0.0131612 -0.160123 -0.987009 -0.46268 0.447484 -0.7653 
-0.335403 0.178021 -0.925102 -0.368584 0.381913 -0.847519 -0.508596 0.546064 -0.665691 
-0.31368 0.636736 -0.704395 -0.416854 0.613469 -0.670738 -0.427897 0.787551 -0.443473 
-0.398161 0.634427 -0.662548 0.656344 -0.0639636 -0.751745 -0.412329 0.897749 -0.155017 
-0.340125 0.858108 -0.384662 0.730291 0.197239 -0.654042 -0.393415 0.907778 0.14548 
-0.423241 0.890367 -0.167672 -0.241284 0.947818 0.208383 -0.174894 0.972097 -0.156331 
-0.327904 0.882099 -0.338201 0.791317 0.322218 -0.519608 -0.289912 0.946057 -0.144664 
-0.48798 0.828399 0.275012 -0.153486 0.847231 -0.508569 -0.0147066 0.920923 -0.389466 
-0.173302 0.983434 -0.0531371 -0.28643 -0.224546 -0.931417 -0.487819 -0.14001 -0.861644 
-0.468306 0.216376 -0.856662 -0.593438 0.347644 -0.72593 -0.198788 -0.234885 -0.951479 
-0.122771 -0.42671 -0.896016 -0.316537 -0.0805558 -0.945154 -0.163511 -0.183641 -0.969299 
0.121449 -0.441172 -0.889167 -0.21836 0.341648 -0.914109 0.18424 -0.531739 -0.826625 
-0.372433 0.433535 -0.820573 -0.548872 0.613737 -0.567509 -0.538919 0.605288 -0.585826 
-0.59529 0.774264 -0.214811 -0.541138 0.759708 -0.360572 -0.436905 0.629372 -0.642654 
-0.498423 0.755432 -0.42532 0.397889 -0.368038 -0.840376 -0.579217 0.79894 -0.16187 
-0.535131 0.733709 -0.418696 0.753413 0.0167559 -0.657335 -0.346334 0.936867 -0.0482947 
0.749556 0.552573 -0.364458 0.572565 0.779893 -0.252856 0.602995 0.792519 -0.0911681 
-0.481623 0.873583 0.0699386 -0.376247 0.916982 0.132601 0.384272 0.899957 -0.205942 
0.413996 0.907608 0.069683 -0.136802 0.96879 0.206713 -0.102378 0.868735 0.48458 
0.205386 0.977663 -0.0446182 -0.618229 -0.31388 -0.720606 -0.60005 -0.450805 -0.660844 
-0.273198 -0.415506 -0.867593 -0.222571 -0.603157 -0.76594 -0.720508 0.00334716 -0.693438 
-0.508614 -0.139773 -0.849574 -0.645712 0.32053 -0.693048 -0.420971 0.443162 -0.791449 
-0.541341 0.7884 -0.292191 -0.523318 0.843479 0.121169 -0.45748 0.876513 -0.149786 
-0.519406 0.845791 0.12188 -0.336846 0.901317 0.27233 -0.437679 0.899079 -0.00965611 
-0.338399 0.909635 0.240938 -0.269436 0.945101 0.184899 -0.36908 0.853252 0.368432 
-0.340749 0.930087 0.137216 -0.430512 0.771934 0.467737 -0.187293 0.883843 0.428651 
0.223508 0.916729 0.331137 0.0448313 0.838208 0.543504 -0.520083 -0.616937 -0.59068 
-0.558988 -0.665682 -0.494367 0.0836498 -0.623287 -0.777506 -0.897846 0.0561716 -0.436712 
-0.824838 0.0965846 -0.557059 -0.787479 0.427014 -0.44445 -0.574127 0.567546 -0.590144 
-0.473355 0.733672 -0.487503 -0.556582 0.80314 -0.212564 0.322013 -0.638468 -0.699047 
-0.492018 0.870582 -0.00256508 -0.389098 0.892972 0.226281 -0.454022 0.890976 -0.0050305 
-0.360194 0.831497 0.422934 0.826544 0.162346 -0.538951 -0.425897 0.837143 0.343226 
-0.35056 0.874636 0.334842 -0.244608 0.837181 0.489178 -0.375263 0.8359 0.400561 
-0.298355 0.773899 0.558628 0.431958 0.879094 0.201509 0.169442 0.915686 0.364429 
-0.202747 -0.722801 -0.660645 0.00169093 -0.725712 -0.687996 -0.886733 -0.320527 -0.333117 
0.263346 -0.809108 -0.52535 0 -0.970142 -0.242536 0 -1 0 
-0.184289 -0.982872 0 -0.740819 0.590616 -0.319937 0.184289 -0.982872 0 
-0.671902 0.667156 -0.321637 -0.637411 0.697359 -0.327716 0 0.992681 0.120765 
-0.455537 0.889964 0.0212132 -0.381066 0.86023 0.338811 0.512367 -0.487206 -0.707185 
-0.32577 0.736536 0.59278 0.61356 -0.341588 -0.711942 0.882834 -0.0156666 -0.469423 
0.851103 0.4874 -0.195104 -0.21371 0.80427 0.554507 0.783925 0.606459 -0.132927 
0.696097 0.712045 -0.0918698 0.742095 0.669363 0.0353418 0.56493 0.803809 0.1864 
-0.0497316 0.8083 0.586666 0.220097 0.891914 0.395027 -0.518545 -0.646636 -0.55944 
-0.046922 -0.751089 -0.658532 0.222013 -0.803723 -0.552033 -0.995527 0.021458 0.0920118 
-0.932961 0.228279 0.278338 -0.945074 0.315748 0.0844875 -0.867567 0.466868 -0.171355 
0 -0.970142 0.242536 -0.718162 0.694644 -0.0413789 -0.494344 0.760545 0.420946 
-0.58441 0.8068 0.0868269 0.369597 -0.727488 -0.578065 0.451001 -0.793771 -0.408076 
-0.482141 0.81025 0.333219 -0.308289 0.802707 0.51051 -0.23681 0.758176 0.607528 
0.904102 0.42704 -0.0153824 0.528023 0.790928 0.309232 -0.357571 -0.814283 -0.45726 
-0.576006 -0.636857 -0.512475 -0.00739887 -0.850056 -0.526641 0.135585 -0.921027 -0.365139 
0.16836 -0.883692 -0.436743 0.270075 -0.901838 -0.337266 -0.996579 -0.0682135 0.046669 
0.353271 -0.8661 -0.353653 0.220785 -0.881462 -0.417467 0.26646 -0.917771 -0.294442 
0.36617 -0.897846 -0.244525 -0.527707 0.690135 0.495216 0.447053 -0.841546 -0.303223 
0.429001 -0.866153 -0.256393 0.437612 -0.837578 -0.327045 -0.315844 0.717198 0.621184 
0.54355 -0.662076 -0.515954 0.702264 -0.429865 -0.567487 -0.178866 0.542279 0.820939 
-0.229733 0.597065 0.768594 0.691059 0.700867 0.176702 0.285418 0.802656 0.523717 
-0.203054 -0.825629 -0.526408 -0.162377 -0.820595 -0.547957 -0.579156 -0.75976 -0.295538 
0.225756 -0.89088 -0.394166 -0.828676 -0.455449 -0.325364 0.22514 -0.960571 -0.163143 
0.180767 -0.970011 -0.162488 0.22505 -0.959142 -0.171463 0.221061 -0.973255 0.0625077 
0.239173 -0.931621 -0.273638 0.259139 -0.965049 -0.0390946 0.359011 -0.933175 -0.01717 
-0.962977 -0.252492 0.0944665 -0.955079 -0.0855235 0.283742 -0.812049 0.364297 0.455921 
0.304122 -0.952459 0.018187 0.316762 -0.946273 -0.065032 0.439959 -0.897498 0.0305488 
0.362374 -0.86085 0.357242 0.374114 -0.926713 0.0352298 -0.686837 0.486387 0.540077 
-0.648283 0.540337 0.536437 0.43345 -0.895545 0.100601 0.467186 -0.855744 0.222351 
-0.182617 0.541232 0.820804 0.56757 -0.819021 -0.0840731 0.555447 -0.759674 -0.338194 
0.695348 -0.441491 -0.567077 0.576122 -0.731852 -0.363972 0.647908 -0.745772 -0.155047 
0.798472 -0.19196 -0.570608 0.852824 -0.455681 -0.255041 0.957201 0.144654 -0.250681 
0.969548 -0.105723 0.220907 0.933107 0.290235 0.212311 0.834941 0.0552202 0.547562 
0.945295 0.258509 -0.198971 0.72563 0.528239 0.440935 -0.0337433 0.595141 0.802913 
0.691501 0.572941 0.439962 0.460764 0.773988 0.434327 0.284563 0.877717 0.385535 
0.352615 0.757815 0.54898 0.238103 0.72844 0.642403 -0.602942 -0.680988 0.415592 
-0.645032 -0.663881 0.378413 0.168348 -0.857386 -0.486362 -0.523332 -0.846856 -0.0946494 
-0.363053 -0.927041 0.0937415 0.226104 -0.869666 0.438814 -0.660442 -0.750304 0.0293316 
0.414654 -0.840707 0.348244 0.323325 -0.356593 0.876528 -0.766323 -0.633452 0.107182 
-0.89498 -0.438214 0.0835421 0.219606 -0.956078 0.194133 0.352406 -0.903982 0.242131 
0.264085 -0.958233 0.109769 0.412612 -0.844718 0.340887 0.281182 -0.630683 0.723309 
0.170716 -0.596526 0.784227 0.359531 -0.768271 0.52962 -0.773715 0.293622 0.561384 
0.214689 -0.873646 0.436636 -0.34495 0.597532 0.723855 0.209118 -0.63982 0.739527 
0.266147 -0.627198 0.731976 -0.00997356 0.392527 0.919686 0.290175 -0.436615 0.851566 
0.479323 -0.641762 0.598657 0.531002 -0.811998 0.242273 0.527027 -0.829477 0.184961 
0.489924 -0.644206 0.587344 0.663698 -0.476656 0.576458 0.536686 -0.37974 0.753502 
0.699417 -0.581587 0.415419 -0.152885 0.476411 0.865829 0.690371 0.0446277 0.722078 
0.762334 0.160351 0.627005 0.046726 0.689712 0.722575 0.276173 0.765967 0.580537 
-0.375094 -0.430372 0.821026 -0.287899 -0.397357 0.871333 -0.469199 -0.523514 0.711186 
-0.667314 -0.658819 0.347346 -0.287342 -0.380492 0.879011 0.0949421 -0.374493 0.922356 
-0.0236482 -0.401651 0.915487 0.200492 -0.779305 0.593706 0.193288 -0.844364 0.499689 
-0.717567 -0.531195 0.450478 0.202265 -0.681184 0.703618 0.494346 -0.572457 0.654152 
0.273305 -0.570214 0.7747 0.196059 -0.831816 0.519272 -0.93684 -0.201379 0.285965 
0.291903 -0.156699 0.943524 0.123117 -0.655522 0.745073 0.186402 -0.878121 0.440633 
0.232821 -0.912952 0.33513 -0.810622 0.103762 0.576304 0.130828 -0.047599 0.990262 
0.0646229 -0.484743 0.872266 -0.813254 0.316931 0.48803 -0.328348 0.410517 0.850684 
-0.0820244 -0.00443952 0.99662 0.186882 -0.104182 0.976842 0.279964 -0.732611 0.620405 
-0.118525 0.27388 0.954432 0.150933 -0.398162 0.904813 -0.0777467 0.029385 0.99654 
0.118628 -0.575647 0.809047 0.0933298 -0.316281 0.944064 0.0910444 -0.391645 0.915601 
0.0159332 -0.0303156 0.999413 0.188313 -0.392311 0.90035 -0.113004 0.472662 0.873968 
0.0586844 -0.163519 0.984793 0.118882 -0.204503 0.97162 0.0747989 -0.10292 0.991873 
0.0560934 -0.290345 0.955277 -0.127617 0.254373 0.958649 0.354108 -0.188645 0.915981 
0.3126 0.142997 0.93906 0.560822 0.189848 0.805876 0.342631 0.509324 0.789426 
0.0403068 -0.436245 0.898925 0.220174 -0.524531 0.82243 -0.558723 -0.445369 0.699625 
-0.619723 0.0422584 0.783682 -0.476544 0.405594 0.779999 -0.191471 0.228309 0.954575 
-0.0180918 0.298047 0.95438 -0.14735 0.0127968 0.989002 -0.0535329 0.202341 0.977851 
-0.00829997 -0.244716 0.969559 -0.133494 0.428749 0.893506 0.198208 -0.241531 0.949935 
0.0256892 -0.241374 0.970092 -0.196179 0.0834972 0.977007 -0.0375184 0.241975 0.969557 
-0.022504 0.0927631 0.995434 -0.0632639 -0.236447 0.969583 0.159509 -0.433524 0.886912 
0.00863137 0.103226 0.99462 0.00547925 0.0420737 0.999099 -0.0379922 0.156219 0.986992 
0.0515237 0.181353 0.982067 -0.4111 0.0441973 0.910518 -0.15879 -0.082027 0.983899 
-0.0126829 -0.0442607 0.99894 0.117539 0.0756899 0.99018 -0.0277469 -0.0463848 0.998538 
-0.00276763 -0.578154 -0.815923 0.0375685 -0.442949 -0.895759 -0.558551 -0.161896 -0.813517 
-0.345046 -0.202842 -0.916405 -0.16577 -0.037458 -0.985453 -0.152783 -0.145201 -0.977535 
-0.328202 0.164151 -0.930235 -0.0921077 -0.1428 -0.985456 0.123386 -0.0448269 -0.991346 
-0.147799 0.188385 -0.97091 0.0148936 0.0924129 -0.995609 -0.0145588 -0.0946216 -0.995407 
0.197062 0.0889071 -0.976351 0.0653724 0.506625 -0.859685 0.263831 0.212186 -0.940941 
-0.70562 -0.56569 -0.426725 -0.532607 -0.679502 -0.504586 -0.095352 -0.703446 -0.704324 
-0.285264 -0.444806 -0.848983 0.149021 -0.51238 -0.84573 0.204361 -0.536212 -0.818971 
-0.760325 -0.0944801 -0.642635 -0.697342 0.295154 -0.653145 -0.234471 0.383468 -0.893295 
-0.00426833 -0.317101 -0.948382 0.222343 -0.309238 -0.924627 -0.422437 0.389193 -0.818582 
0.0708314 0.0815723 -0.994147 0.253239 -0.584373 -0.770959 0.0253106 0.356169 -0.934079 
-0.0938764 0.165921 -0.98166 -0.0179218 0.0982723 -0.994998 0.155571 -0.0691265 -0.985403 
0.17759 -0.141265 -0.973913 0.249826 -0.473488 -0.844627 -0.0324302 0.199533 -0.979354 
0.0123942 -0.00862808 -0.999886 0.319803 -0.233416 -0.918283 0.34012 0.300405 -0.891109 
0.0308745 -0.937146 -0.347568 -0.265196 -0.70719 -0.655404 0.202385 -0.730749 -0.651956 
0.490543 -0.572373 0.657082 -0.0857441 0.916076 0.39173 -0.156756 -0.809578 -0.565695 
-0.365487 -0.819222 -0.441921 -0.0680524 -0.938727 -0.337877 0.153531 -0.977443 0.145032 
0.108988 -0.913831 -0.391196 -0.701441 -0.704864 -0.105584 -0.0366109 -0.543331 -0.83872 
0.267697 -0.791455 -0.549488 0.0624105 -0.784984 -0.616365 0.172611 -0.668858 -0.723073 
0.315141 -0.894527 -0.317029 -0.900754 -0.429933 -0.0616466 0.281861 -0.783525 -0.553753 
0.0514893 -0.57067 -0.819564 0.29736 -0.920857 -0.252187 -0.941913 -0.295986 0.158718 
-0.890311 0.223058 -0.396977 -0.560883 0.440016 -0.701282 0.136796 -0.294137 -0.945923 
0.332329 -0.38478 -0.861105 0.337383 -0.391452 -0.856118 0.268201 -0.35458 -0.895735 
0.34338 -0.572955 -0.744186 0.473738 -0.799599 -0.369072 -0.126862 0.338517 -0.932369 
0.356789 -0.490668 -0.794951 0.460245 -0.353425 -0.814411 -0.118744 0.478919 -0.869791 
0.322309 0.183055 -0.928767 0.455904 -0.0910915 -0.885355 0.538057 0.240882 -0.807757 
0.684451 -0.501868 -0.528825 0.945122 0.288309 -0.153693 0.467817 0.581074 -0.665958 
0.530667 0.575721 -0.622044 0.00438107 0.468779 -0.883305 -0.412256 -0.638921 0.64948 
0.181026 0.592514 -0.784956 -0.325088 -0.889447 0.32125 -0.609426 -0.792643 0.017801 
-0.170025 -0.983872 0.0555654 -0.0243195 -0.934206 0.355904 0.190618 -0.968066 0.162825 
0.172742 -0.958913 -0.225048 -0.893737 -0.442513 0.0735908 0.263572 -0.964568 0.0117426 
0.361916 -0.913093 -0.187825 0.384464 -0.916866 -0.107441 -0.986651 -0.0192741 -0.161707 
0.339222 -0.663677 -0.666679 0.289784 -0.870118 -0.398647 -0.218447 0.483074 -0.847892 
0.343758 -0.542341 -0.766614 0.396159 -0.809009 -0.434238 0.445616 -0.741065 -0.502244 
0.409588 -0.779279 -0.474301 -0.114759 0.564361 -0.817513 0.294714 -0.546199 -0.784099 
0.234374 -0.58912 -0.773309 0.525202 -0.842871 -0.117184 0.451281 -0.774676 -0.44297 
-0.173695 0.381425 -0.907935 0.446268 -0.643868 -0.621513 0.670615 -0.366747 -0.644804 
0.822795 -0.552111 -0.134837 0.520523 -0.708853 -0.476008 0.873145 -0.455477 0.173661 
0.497529 -0.860475 -0.109765 0.822888 -0.47212 -0.316161 -0.178386 0.322597 -0.929575 
0.899346 -0.277889 0.337572 0.617173 -0.786701 0.014132 0.754211 0.596149 -0.275266 
-0.0391223 0.490935 -0.870317 0.793969 0.579383 -0.184197 0.507568 0.745809 -0.431444 
0.00520439 -0.883814 0.467809 0.233161 -0.955648 0.179927 -0.923027 -0.38464 0.00862077 
0.342851 -0.934879 0.0919537 0.28512 -0.929798 0.232771 -0.985232 -0.135306 -0.104932 
-0.957371 0.0224761 -0.287985 -0.952548 0.207438 -0.22276 0.36765 -0.929797 0.0176283 
0.373689 -0.920863 0.111211 -0.705237 0.414118 -0.575454 -0.589682 0.540004 -0.600559 
-0.426471 0.579549 -0.694439 0.465487 -0.883108 0.0586708 0.566386 -0.817959 -0.100748 
-0.228087 0.67546 -0.701235 0.548027 -0.772781 0.320118 0.721569 -0.468881 0.5094 
-0.264821 0.574761 -0.774287 0.874235 -0.200433 0.442199 0.92719 0.333152 0.171255 
0.594092 0.723496 -0.351579 0.766081 0.642728 0.00446716 0.621314 0.734096 -0.273993 
0.232227 0.775642 -0.586899 0.527579 0.69655 -0.486291 -0.706636 -0.64042 0.300879 
-0.405703 -0.759 0.509238 -0.617342 -0.642759 0.453597 -0.104645 -0.691444 0.714811 
-0.739981 -0.610814 0.281664 0.182149 -0.855176 0.48528 -0.783257 -0.502556 0.365986 
-0.884695 -0.415896 0.210581 -0.955676 -0.277219 0.0991609 0.294924 -0.773305 0.561266 
-0.764552 0.528942 -0.368349 -0.434764 0.686324 -0.583043 -0.156478 0.754728 -0.637103 
0.649727 -0.598438 0.46875 0.548342 -0.71386 0.435575 0.898812 0.0934636 0.428255 
0.887739 0.39992 0.227999 0.877911 0.11959 0.463649 0.693024 0.685282 -0.223844 
0.327244 0.890714 -0.315499 0.374339 0.898412 -0.229621 0.703559 0.698961 -0.128293 
0.489964 0.780327 -0.38862 -0.391045 -0.638576 0.6628 -0.557807 -0.553614 0.618354 
-0.586003 -0.580288 0.565567 0.333028 -0.822613 0.460868 -0.984284 -0.0593421 0.166325 
-0.974949 0.00704895 0.222318 0.299911 -0.793561 0.529447 -0.892941 0.318742 0.317899 
-0.933887 0.350921 0.0686308 -0.61979 0.744285 -0.248796 -0.471456 0.822725 -0.317573 
0.417385 -0.742162 0.52439 -0.339873 0.841648 -0.419662 -0.229202 0.909011 -0.348089 
0.567585 -0.610666 0.552209 -0.289328 0.836738 -0.46493 0.816925 0.121928 0.563708 
0.831587 0.256357 0.492691 -0.142838 0.73066 -0.667633 0.794619 0.599 0.0988931 
0.635706 0.76495 0.103581 -0.517031 -0.538883 0.665045 -0.90063 -0.254087 0.352571 
-0.804975 0.432687 0.405952 -0.818201 0.275679 0.504528 -0.633564 0.678926 0.371019 
-0.572276 0.764582 0.296503 -0.281891 0.933632 -0.22106 -0.377765 0.852308 -0.361751 
-0.395496 0.843699 -0.362982 -0.410571 0.879497 -0.240659 0.491976 -0.360917 0.792274 
0.744421 -0.21041 0.633692 0.582585 -0.170175 0.794755 0.767659 0.26358 0.584145 
-0.242598 0.694632 -0.677225 0.751905 0.652129 0.096784 0.0158257 0.859152 -0.511475 
-0.686731 -0.308895 0.658016 -0.738561 -0.249136 0.626465 -0.757802 -0.249194 0.603024 
-0.00553561 -0.494133 0.869369 -0.659376 -0.0439396 0.750528 -0.928216 0.227747 0.294186 
-0.718022 0.572852 0.395328 -0.548344 0.549185 0.630646 -0.431173 0.325834 0.841381 
-0.486451 0.352152 0.799596 0.177527 -0.617509 0.766268 -0.455343 0.392369 0.799193 
-0.512157 0.83552 0.199001 -0.465568 0.878062 0.110698 -0.510248 0.844484 0.162766 
-0.49182 0.866127 0.0890927 -0.389732 0.907546 -0.156428 -0.40846 0.879077 -0.245732 
-0.236083 0.893129 -0.382865 0.810085 0.5738 0.120482 0.421602 0.852078 -0.310185 
0.294316 0.905388 -0.306025 -0.465907 0.0339323 0.884183 -0.186527 -0.465595 0.865118 
-0.212423 0.0895769 0.973063 0.0519803 -0.520296 0.852403 -0.501445 0.49482 0.709723 
-0.330906 0.0736706 0.940784 -0.417035 0.0113136 0.90882 -0.196144 0.0289108 0.980149 
0.20433 -0.563762 0.800263 -0.521837 0.453166 0.722722 -0.621973 0.648867 0.438316 
-0.482666 0.816074 0.317895 -0.511999 0.816479 0.26687 0.303342 -0.598287 0.741644 
-0.412535 0.700277 0.582604 -0.417674 0.730449 0.540363 0 -0.992278 -0.124035 
0 -1 0 -0.447214 -0.894427 0 -0.530207 0.835472 0.144455 
0.447214 -0.894427 0 -0.513768 0.81564 0.266034 0 1 0 
-0.369619 0.929136 0.00939312 -0.401305 0.915512 0.0281638 -0.336331 0.906664 -0.254641 
0.615017 0.788088 -0.0258893 -0.28193 0.893293 -0.350062 -0.110694 0.872587 -0.475751 
0.135492 0.98414 -0.114502 0.239496 0.929387 -0.280859 -0.375883 0.0888281 0.9224 
-0.210365 -0.234677 0.949038 -0.0783902 -0.305574 0.948936 -0.488943 0.7415 0.45947 
-0.444843 0.540887 0.713832 -0.480599 0.648887 0.589891 -0.577133 0.683528 0.446887 
0.331843 -0.429701 0.839784 0 -0.992278 0.124035 -0.387418 0.785163 0.483143 