# vtk DataFile Version 4.2
vtk output
ASCII
DATASET POLYDATA
POINTS 1879 float
354.884 82.4405 72.8059 354.78 82.4262 72.7678 355.198 82.2767 73.0912 
354.868 82.4495 72.7978 355.104 82.539 72.8482 355.095 82.5287 72.8417 
355.319 82.6182 72.8883 355.738 82.7585 72.9896 356.197 82.9323 73.0721 
356.672 83.151 73.1318 357.686 83.8245 73.0926 357.949 84.0475 73.0427 
358.542 84.3425 73.0787 358.173 84.1918 73.0312 346.014 78.4091 73.1433 
345.54 78.0899 73.3076 345.878 78.3873 73.1282 346.161 78.6692 72.9494 
346.325 78.8507 72.8302 346.299 78.8174 72.8532 346.383 78.9154 72.7878 
346.373 78.9037 72.7956 346.398 78.932 72.7771 346.314 78.8391 72.8378 
346.376 78.9066 72.7937 346.392 78.9249 72.7818 353.936 82.1428 72.5933 
353.974 82.1405 72.6149 354.082 82.1338 72.6765 354.205 82.1182 72.7521 
354.34 82.088 72.8477 353.977 82.1457 72.6112 354.087 82.1595 72.6553 
354.239 82.1831 72.7135 354.609 82.0047 73.0601 354.737 82.4001 72.7709 
354.388 82.2205 72.7563 354.67 82.3123 72.8181 356.378 82.9947 73.1417 
357.086 83.4276 73.1257 358.493 84.0602 73.292 357.443 83.6624 73.1181 
357.795 83.9074 73.0883 358.731 84.348 73.1625 359.167 84.5783 73.1707 
359.082 84.4639 73.2294 359.548 84.6797 73.2586 358.788 84.4639 73.0936 
359.415 84.726 73.1571 359.549 84.8135 73.1422 359.597 84.8435 73.1381 
342.134 75.9566 74.4112 341.895 76.0201 74.3108 342.481 76.2534 74.2251 
343.241 76.5953 74.0867 344.117 76.9652 73.9575 344.053 77.0804 73.8422 
344.511 77.2464 73.804 345.561 77.69 73.6913 346.081 78.0229 73.5345 
344.382 77.298 73.7252 346.105 78.3841 73.1839 346.061 78.2968 73.257 
346.193 78.4369 73.1537 346.23 78.4643 73.1364 346.224 78.4583 73.1406 
346.234 78.4656 73.1359 344.642 77.4665 73.6379 345.011 77.7036 73.5189 
346.205 78.6961 72.9365 346.294 78.8064 72.8616 346.206 78.4415 73.1522 
346.368 78.8959 72.8013 350.506 80.0044 73.0175 350.506 80.0044 73.0175 
350.506 80.0045 73.0175 350.507 80.0043 73.0174 350.507 80.0043 73.0174 
350.507 80.0043 73.0173 346.344 78.8663 72.8211 353.982 82.1477 72.6128 
350.506 80.0045 73.0175 350.507 80.0044 73.0174 354.336 82.1082 72.8319 
354.934 81.1428 73.9975 354.87 81.0413 74.079 355.014 81.6093 73.637 
358.763 83.9266 73.5325 359.097 84.0241 73.6086 359.537 84.179 73.6898 
358.709 84.3163 73.1807 359.012 84.0062 73.5898 358.985 84.4364 73.208 
359.256 84.3294 73.426 359.587 84.6127 73.3357 359.59 84.5692 73.3751 
359.592 84.8118 73.1633 363 87.0087 73.0174 363 87.0087 73.0175 
363 87.0088 73.0175 363 87.0088 73.0175 363 87.0088 73.0175 
341.337 75.7594 74.4292 341.713 75.8053 74.4598 340.573 75.6763 74.3641 
341.592 75.849 74.3993 344.192 76.5361 74.3468 340.655 75.6958 74.3617 
340.857 75.7376 74.3615 341.274 75.8336 74.3546 344.316 76.9477 74.0215 
344.151 76.8967 74.0267 344.708 77.3641 73.7487 344.671 77.2157 73.8728 
347.154 78.1514 73.7646 348.324 78.419 73.9017 348.004 78.3345 73.8755 
349.506 78.7052 74.0385 349.168 78.6221 73.9997 350.454 78.9359 74.1631 
349.938 78.8093 74.0922 350.413 78.9237 74.1575 346.046 78.2485 73.298 
347.486 78.202 73.8264 346.15 78.3828 73.1951 348.633 78.4885 73.9417 
346.212 78.445 73.1504 350.37 78.9169 74.1502 349.681 78.7471 74.0609 
351.111 79.0915 74.2675 351.421 79.1783 74.3069 350.506 80.0045 73.0175 
350.289 78.8964 74.1379 350.898 79.0474 74.2272 350.507 80.0043 73.0174 
352.38 79.4438 74.4443 353.48 79.7886 74.5864 353.603 79.7697 74.6671 
354.762 80.8569 74.1865 354.617 80.5315 74.4281 357.652 82.1286 74.5001 
357.916 82.5965 74.2296 358.796 82.9089 74.4178 358.983 83.244 74.2175 
359.679 83.9806 73.9315 359.754 83.8892 74.0483 359.564 84.467 73.4522 
363 86.0087 74.0174 363 86.0087 74.0175 363 86.0088 74.0175 
363 86.0088 74.0175 363 87.0087 73.0175 363 86.0088 74.0175 
342.41 75.2442 75.0852 342.948 75.2664 75.177 340.645 75.6679 74.3839 
340.569 75.6668 74.3717 340.808 75.6759 74.4061 341.106 75.6869 74.4504 
341.535 75.7373 74.485 341.547 75.6876 74.5319 342.125 75.5857 74.732 
343.181 75.4818 75.0374 343.83 75.693 74.9922 341.382 75.7348 74.459 
341.618 75.8553 74.3989 343.947 76.1861 74.5791 343.908 76.1056 74.6436 
343.913 76.1222 74.6217 343.912 76.1151 74.6288 343.902 76.1009 74.637 
344.995 77.182 73.9933 345.693 77.5558 73.8577 347.506 77.0044 75.0175 
347.506 77.0044 75.0175 347.506 77.0045 75.0175 347.507 77.0043 75.0174 
347.507 77.0043 75.0174 347.507 77.0043 75.0173 350 77.0087 75.0174 
350 77.0087 75.0175 350 77.0088 75.0175 350 77.0088 75.0175 
347.506 77.0045 75.0175 346.615 77.9278 73.8013 347.507 77.0044 75.0174 
347.731 78.2526 73.8618 349.084 78.5987 73.995 350.168 78.8642 74.129 
350 77.0088 75.0175 351.506 78.0044 75.0175 351.506 78.0044 75.0175 
351.506 78.0045 75.0175 351.507 78.0043 75.0174 351.507 78.0043 75.0174 
351.507 78.0043 75.0173 350.226 78.8798 74.1352 351.506 78.0045 75.0175 
351.265 79.1324 74.293 351.507 78.0044 75.0174 352.195 79.338 74.465 
354.551 79.2595 75.4677 354.548 79.1579 75.5508 354.533 79.2064 75.5153 
353.114 79.5202 74.676 354.219 79.5482 75.1099 358.145 82.1564 74.735 
357.91 82.0397 74.7574 358.122 82.6472 74.3179 358.314 82.3775 74.6481 
359.039 82.7557 74.6652 359.019 82.8066 74.6252 359.074 83.2731 74.2474 
359.229 83.0709 74.4949 359.761 83.5484 74.3445 359.81 83.8494 74.1107 
359.818 83.8196 74.1403 363 86.0087 74.0175 364 86.0087 75.0174 
364 86.0087 75.0175 364 86.0088 75.0175 364 86.0088 75.0175 
364 86.0088 75.0175 341.974 74.5459 75.6028 341.936 74.5262 75.6123 
341.957 74.5492 75.5964 341.926 74.5215 75.6144 342.081 74.6548 75.53 
342.278 74.8462 75.4038 343.379 75.1909 75.3356 343.125 75.0378 75.4157 
344.921 75.1402 75.7317 342.081 75.6421 74.6751 343.02 75.0988 75.339 
343.25 75.5329 75.0075 343.458 75.3314 75.2288 344.336 75.3398 75.4211 
344.91 75.222 75.6633 343.834 75.9944 74.7226 343.889 76.0798 74.6552 
345.337 75.2012 75.7893 345.563 75.1954 75.8524 345.64 75.2047 75.8651 
345.813 75.2134 75.9035 345.752 75.2083 75.8913 345.828 75.2135 75.9072 
347.506 77.0045 75.0175 347.507 77.0043 75.0174 345.812 75.2136 75.9029 
345.738 75.2087 75.8874 345.853 75.2158 75.912 350 77.0087 75.0175 
354.344 78.4599 76.0307 354.429 78.5005 76.0398 354.526 78.5412 76.0539 
354.621 78.5622 76.0856 351.506 78.0045 75.0175 354.313 78.4453 76.027 
354.37 78.4884 76.02 351.507 78.0043 75.0174 354.486 78.5974 75.9882 
354.812 78.5893 76.1635 354.568 79.0977 75.6122 354.57 78.7245 75.9248 
354.654 78.9595 75.7727 355.293 79.3339 75.8326 359.536 81.5483 75.98 
359.38 83.0837 74.564 359.795 83.7432 74.1948 364 85.0087 76.0174 
364 85.0087 76.0175 364 85.0088 76.0175 364 85.0088 76.0175 
364 86.0087 75.0175 364 85.0088 76.0175 338 72.0087 77.0174 
338 72.0087 77.0175 338 72.0088 77.0175 338 72.0088 77.0175 
338 72.0088 77.0175 342.081 74.6079 75.571 342.493 74.6548 75.6171 
342.474 74.6472 75.6198 342.663 74.7881 75.5358 342.547 74.6919 75.5958 
342.617 74.7448 75.5639 343.124 72.359 77.9302 342.991 72.3298 77.9333 
343.227 72.3813 77.928 342.472 74.6623 75.6059 342.279 74.713 75.5203 
342.482 74.7293 75.549 342.837 74.8984 75.4759 343.929 75.1321 75.5083 
343.084 72.3502 77.9312 344.259 75.1144 75.5961 344.796 75.0997 75.7313 
345.299 75.1771 75.7989 348.506 75.0044 77.0175 348.506 75.0044 77.0175 
348.506 75.0045 77.0175 348.507 75.0043 77.0174 348.507 75.0043 77.0174 
348.507 75.0043 77.0173 348.506 75.0045 77.0175 345.603 75.1989 75.8602 
348.507 75.0044 77.0174 345.742 75.207 75.89 351.007 76.003 77.0175 
351.007 76.003 77.0176 351.007 76.003 77.0176 351.008 76.0028 77.0174 
351.008 76.0029 77.0174 351.008 76.0027 77.0173 351.008 76.0027 77.0173 
351.008 76.0027 77.0173 345.8 75.2116 75.9014 351.007 76.003 77.0175 
351.007 76.0029 77.0175 351.008 76.0028 77.0173 354.603 78.5695 76.0748 
354.962 77.9097 76.875 355.108 78.3699 76.5291 360.095 80.8677 76.8786 
360.65 80.5217 77.488 359.97 80.9584 76.7525 359.544 82.4069 75.2304 
360.401 80.7108 77.1842 360.352 80.7399 77.138 360.522 80.6278 77.3253 
360.47 80.6838 77.2478 359.67 82.9636 74.8067 363 83.0087 77.0174 
363 83.0087 77.0175 363 83.0088 77.0175 363 83.0088 77.0175 
363 83.0088 77.0175 359.757 83.2158 74.6314 364 84.0087 77.0174 
364 84.0087 77.0175 364 84.0088 77.0175 364 84.0088 77.0175 
364 85.0087 76.0175 364 84.0088 77.0175 365 85.0087 77.0174 
365 85.0087 77.0175 365 85.0088 77.0175 365 85.0088 77.0175 
365 85.0088 77.0175 341.368 71.9688 77.973 341.362 71.9674 77.9731 
341.328 71.9597 77.974 341.49 71.9962 77.9699 341.445 71.9861 77.971 
341.687 72.0404 77.965 341.563 72.0126 77.968 341.713 72.0461 77.9643 
338 72.0087 77.0175 341.331 71.9604 77.9739 341.435 71.9837 77.9713 
341.379 71.9711 77.9727 341.586 72.0178 77.9675 341.956 72.1005 77.9582 
341.932 72.0951 77.9589 342.435 72.207 77.9465 342.311 72.1794 77.9495 
342.8 72.2877 77.9378 342.612 72.2463 77.9423 342.856 72.2999 77.9365 
343.388 72.4159 77.9246 343.39 72.4165 77.9245 343.328 72.4029 77.9259 
343.44 72.4271 77.9235 341.474 71.9925 77.9703 341.627 72.0269 77.9664 
341.819 72.0699 77.9617 342.14 72.1415 77.9537 342.728 72.2719 77.9395 
342.534 72.229 77.9441 343.135 72.3611 77.9301 343.378 72.4139 77.9248 
343.518 72.4438 77.9219 343.515 72.4431 77.922 343.587 72.4587 77.9204 
343.582 72.4575 77.9205 343.597 72.4609 77.9202 342.853 72.2996 77.9365 
343 72.3317 77.9332 344.435 75.1124 75.6379 343.228 72.3814 77.9281 
343.432 72.4254 77.9237 344.588 75.1078 75.6766 343.552 72.4512 77.9212 
344.721 75.102 75.7117 351.6 75.2641 77.9004 351.59 75.2584 77.9019 
351.543 75.231 77.9092 351.786 75.3741 77.8706 351.711 75.3294 77.8829 
352.081 75.5543 77.8199 351.883 75.4317 77.8548 352.086 75.5573 77.8191 
348.506 75.0045 77.0175 351.552 75.2364 77.9078 351.636 75.2854 77.8947 
348.507 75.0043 77.0174 352.019 75.5157 77.831 351.81 75.3881 77.8669 
352.432 75.7773 77.7541 352.465 75.7982 77.748 353.103 76.2215 77.6178 
352.926 76.1023 77.6552 353.663 76.6167 77.4897 353.353 76.3924 77.5643 
[...]
POINT_DATA 1879
SCALARS scalars float
LOOKUP_TABLE default
1 1 1 1 1 1 1 1 1 
1 1 1 1 1 1 1 1 1 
1 1 1 1 1 1 1 1 1 
1 1 1 1 1 1 1 1 1 
1 1 1 1 1 1 1 1 1 
1 1 1 1 1 1 1 1 1 
1 1 1 1 1 1 1 1 1 
1 1 1 1 1 1 1 1 1 
1 1 1 1 1 1 1 1 1 
1 1 1 1 1 1 1 1 1 
1 1 1 1 1 1 1 1 1 
1 1 1 1 1 1 1 1 1 
1 1 1 1 1 1 1 1 1 
1 1 1 1 1 1 1 1 1 
1 1 1 1 1 1 1 1 1 
1 1 1 1 1 1 1 1 1 
1 1 1 1 1 1 1 1 1 
1 1 1 1 1 1 1 1 1 
1 1 1 1 1 1 1 1 1 
1 1 1 1 1 1 1 1 1 
1 1 1 1 1 1 1 1 1 
1 1 1 1 1 1 1 1 1 
1 1 1 1 1 1 1 1 1 
1 1 1 1 1 1 1 1 1 
1 1 1 1 1 1 1 1 1 
1 1 1 1 1 1 1 1 1 
1 1 1 1 1 1 1 1 1 
1 1 1 1 1 1 1 1 1 
1 1 1 1 1 1 1 1 1 
1 1 1 1 1 1 1 1 1 
1 1 1 1 1 1 1 1 1 
1 1 1 1 1 1 1 1 1 
1 1 1 1 1 1 1 1 1 
1 1 1 1 1 1 1 1 1 
1 1 1 1 1 1 1 1 1 
1 1 1 1 1 1 1 1 1 
1 1 1 1 1 1 1 1 1 
1 1 1 1 1 1 1 1 1 
1 1 1 1 1 1 1 1 1 
1 1 1 1 1 1 1 1 1 
1 1 1 1 1 1 1 1 1 
1 1 1 1 1 1 1 1 1 
1 1 1 1 1 1 1 1 1 
1 1 1 1 1 1 1 1 1 
1 1 1 1 1 1 1 1 1 
1 1 1 1 1 1 1 1 1 
1 1 1 1 1 1 1 1 1 
1 1 1 1 1 1 1 1 1 
1 1 1 1 1 1 1 1 1 
1 1 1 1 1 1 1 1 1 
1 1 1 1 1 1 1 1 1 
1 1 1 1 1 1 1 1 1 
1 1 1 1 1 1 1 1 1 
1 1 1 1 1 1 1 1 1 
1 1 1 1 1 1 1 1 1 
1 1 1 1 1 1 1 1 1 
1 1 1 1 1 1 1 1 1 
1 1 1 1 1 1 1 1 1 
1 1 1 1 1 1 1 1 1 
1 1 1 1 1 1 1 1 1 
1 1 1 1 1 1 1 1 1 
1 1 1 1 1 1 1 1 1 
1 1 1 1 1 1 1 1 1 
1 1 1 1 1 1 1 1 1 
1 1 1 1 1 1 1 1 1 
1 1 1 1 1 1 1 1 1 
1 1 1 1 1 1 1 1 1 
1 1 1 1 1 1 1 1 1 
1 1 1 1 1 1 1 1 1 
1 1 1 1 1 1 1 1 1 
1 1 1 1 1 1 1 1 1 
1 1 1 1 1 1 1 1 1 
1 1 1 1 1 1 1 1 1 
1 1 1 1 1 1 1 1 1 
1 1 1 1 1 1 1 1 1 
1 1 1 1 1 1 1 1 1 
1 1 1 1 1 1 1 1 1 
1 1 1 1 1 1 1 1 1 
1 1 1 1 1 1 1 1 1 
1 1 1 1 1 1 1 1 1 
1 1 1 1 1 1 1 1 1 
1 1 1 1 1 1 1 1 1 
1 1 1 1 1 1 1 1 1 
1 1 1 1 1 1 1 1 1 
1 1 1 1 1 1 1 1 1 
1 1 1 1 1 1 1 1 1 
1 1 1 1 1 1 1 1 1 
1 1 1 1 1 1 1 1 1 
1 1 1 1 1 1 1 1 1 
1 1 1 1 1 1 1 1 1 
1 1 1 1 1 1 1 1 1 
1 1 1 1 1 1 1 1 1 
1 1 1 1 1 1 1 1 1 
1 1 1 1 1 1 1 1 1 
1 1 1 1 1 1 1 1 1 
1 1 1 1 1 1 1 1 1 
1 1 1 1 1 1 1 1 1 
1 1 1 1 1 1 1 1 1 
1 1 1 1 1 1 1 1 1 
1 1 1 1 1 1 1 1 1 
1 1 1 1 1 1 1 1 1 
1 1 1 1 1 1 1 1 1 
1 1 1 1 1 1 1 1 1 
1 1 1 1 1 1 1 1 1 
1 1 1 1 1 1 1 1 1 
1 1 1 1 1 1 1 1 1 
1 1 1 1 1 1 1 1 1 
1 1 1 1 1 1 1 1 1 
1 1 1 1 1 1 1 1 1 
1 1 1 1 1 1 1 1 1 
1 1 1 1 1 1 1 1 1 
1 1 1 1 1 1 1 1 1 
1 1 1 1 1 1 1 1 1 
1 1 1 1 1 1 1 1 1 
1 1 1 1 1 1 1 1 1 
1 1 1 1 1 1 1 1 1 
1 1 1 1 1 1 1 1 1 
1 1 1 1 1 1 1 1 1 
1 1 1 1 1 1 1 1 1 
1 1 1 1 1 1 1 1 1 
1 1 1 1 1 1 1 1 1 
1 1 1 1 1 1 1 1 1 
1 1 1 1 1 1 1 1 1 
1 1 1 1 1 1 1 1 1 
1 1 1 1 1 1 1 1 1 
1 1 1 1 1 1 1 1 1 
1 1 1 1 1 1 1 1 1 
1 1 1 1 1 1 1 1 1 
1 1 1 1 1 1 1 1 1 
1 1 1 1 1 1 1 1 1 
1 1 1 1 1 1 1 1 1 
1 1 1 1 1 1 1 1 1 
1 1 1 1 1 1 1 1 1 
1 1 1 1 1 1 1 1 1 
1 1 1 1 1 1 1 1 1 
1 1 1 1 1 1 1 1 1 
1 1 1 1 1 1 1 1 1 
1 1 1 1 1 1 1 1 1 
1 1 1 1 1 1 1 1 1 
1 1 1 1 1 1 1 1 1 
1 1 1 1 1 1 1 1 1 
1 1 1 1 1 1 1 1 1 
1 1 1 1 1 1 1 1 1 
1 1 1 1 1 1 1 1 1 
1 1 1 1 1 1 1 1 1 
1 1 1 1 1 1 1 1 1 
1 1 1 1 1 1 1 1 1 
1 1 1 1 1 1 1 1 1 
1 1 1 1 1 1 1 1 1 
1 1 1 1 1 1 1 1 1 
1 1 1 1 1 1 1 1 1 
1 1 1 1 1 1 1 1 1 
1 1 1 1 1 1 1 1 1 
1 1 1 1 1 1 1 1 1 
1 1 1 1 1 1 1 1 1 
1 1 1 1 1 1 1 1 1 
1 1 1 1 1 1 1 1 1 
1 1 1 1 1 1 1 1 1 
1 1 1 1 1 1 1 1 1 
1 1 1 1 1 1 1 1 1 
1 1 1 1 1 1 1 1 1 
1 1 1 1 1 1 1 1 1 
1 1 1 1 1 1 1 1 1 
1 1 1 1 1 1 1 1 1 
1 1 1 1 1 1 1 1 1 
1 1 1 1 1 1 1 1 1 
1 1 1 1 1 1 1 1 1 
1 1 1 1 1 1 1 1 1 
1 1 1 1 1 1 1 1 1 
1 1 1 1 1 1 1 1 1 
1 1 1 1 1 1 1 1 1 
1 1 1 1 1 1 1 1 1 
1 1 1 1 1 1 1 1 1 
1 1 1 1 1 1 1 1 1 
1 1 1 1 1 1 1 1 1 
1 1 1 1 1 1 1 1 1 
1 1 1 1 1 1 1 1 1 
1 1 1 1 1 1 1 1 1 
1 1 1 1 1 1 1 1 1 
1 1 1 1 1 1 1 1 1 
1 1 1 1 1 1 1 1 1 
1 1 1 1 1 1 1 1 1 
1 1 1 1 1 1 1 1 1 
1 1 1 1 1 1 1 1 1 
1 1 1 1 1 1 1 1 1 
1 1 1 1 1 1 1 1 1 
1 1 1 1 1 1 1 1 1 
1 1 1 1 1 1 1 1 1 
1 1 1 1 1 1 1 1 1 
1 1 1 1 1 1 1 1 1 
1 1 1 1 1 1 1 1 1 
1 1 1 1 1 1 1 1 1 
1 1 1 1 1 1 1 1 1 
1 1 1 1 1 1 1 1 1 
1 1 1 1 1 1 1 1 1 
1 1 1 1 1 1 1 1 1 
1 1 1 1 1 1 1 1 1 
1 1 1 1 1 1 1 1 1 
1 1 1 1 1 1 1 1 1 
1 1 1 1 1 1 1 1 1 
1 1 1 1 1 1 1 1 1 
1 1 1 1 1 1 1 1 1 
1 1 1 1 1 1 1 1 1 
1 1 1 1 1 1 1 1 1 
1 1 1 1 1 1 1 1 1 
1 1 1 1 1 1 1 1 1 
1 1 1 1 1 1 1 1 1 
1 1 1 1 1 1 1 1 1 
1 1 1 1 1 1 1 
NORMALS Normals float
0.343283 -0.49998 -0.795096 0.361796 -0.416078 -0.834256 0.355892 -0.577036 -0.735099 
0.222949 0.0295805 -0.974381 -0.0417546 0.556297 -0.829934 0.226664 -0.0803757 -0.970651 
0.314422 -0.339693 -0.886424 0.363936 -0.594672 -0.716879 0.361354 -0.602583 -0.71156 
0.234094 -0.383258 -0.893484 0.344919 -0.590201 -0.729858 0.303877 -0.535237 -0.78815 
0.339397 -0.601377 -0.723295 0.323463 -0.588288 -0.74114 0.185924 -0.653884 -0.733395 
0.185924 -0.653884 -0.733395 0.185924 -0.653884 -0.733395 0.185836 -0.65241 -0.734729 
-0.181917 0.648561 0.739104 -0.180549 0.648063 0.739876 -0.188214 0.650989 0.735383 
-0.187038 0.650517 0.736101 -0.191774 0.652414 0.733197 0.126377 -0.621163 -0.773424 
0.175159 -0.644435 -0.744327 0.148952 -0.632899 -0.759771 -0.346552 0.635845 0.689639 
-0.351369 0.635492 0.687524 -0.353883 0.634515 0.687137 0.339226 -0.644095 -0.685615 
0.336288 -0.651054 -0.68047 -0.350111 0.635979 0.687715 -0.353774 0.635309 0.686459 
0.371949 -0.364589 -0.853656 0.336303 -0.649884 -0.68158 0.339905 -0.635535 -0.693224 
0.351535 -0.549789 -0.75773 0.339037 -0.606355 -0.719297 -0.400555 0.759273 0.512894 
0.230878 -0.383494 -0.894219 0.438871 -0.64423 -0.626386 -0.530066 0.795109 0.294672 
-0.519639 0.771555 0.366985 0.373458 -0.622078 -0.688149 0.329956 -0.61571 -0.715563 
0.332338 -0.608774 -0.720379 0.329105 -0.616542 -0.715238 0.336784 -0.604012 -0.72232 
0.329312 -0.620001 -0.712146 -0.327528 0.621822 0.711381 0.326874 -0.622706 -0.710908 
0.1544 -0.663036 -0.732492 0.14246 -0.640799 -0.754375 0.151646 -0.6463 -0.747864 
-0.165437 0.650668 0.741122 -0.165437 0.650668 0.741122 -0.165437 0.650668 0.741122 
0.189356 -0.659628 -0.727348 0.214744 -0.658759 -0.721056 0.222483 -0.677971 -0.700612 
-0.171917 0.652196 0.738298 0.147181 -0.676967 -0.721147 0.160474 -0.673077 -0.721953 
0.163739 -0.680062 -0.714637 0.180108 -0.69132 -0.699741 0.168674 -0.682311 -0.711337 
0.159899 -0.677738 -0.717707 0.185981 -0.659759 -0.728099 0.201221 -0.667732 -0.71669 
0.18318 -0.651807 -0.735929 0.195897 -0.654485 -0.730256 -0.172427 0.681231 0.711473 
0.148304 -0.633316 -0.75955 -0.311477 -0.211101 -0.926509 -0.0892813 -0.830319 0.55009 
-0.0139265 -0.41344 0.910425 -0.213981 0.0016262 -0.976837 -0.226536 -0.944988 -0.235963 
-0.242536 0 -0.970143 0.185773 -0.649785 -0.737067 0.381783 -0.484597 -0.787024 
0.0585555 0.969183 -0.239282 0.125873 0.894825 -0.428304 -0.412 0.545813 0.729619 
-0.0826643 -0.524497 -0.84739 -0.371741 -0.379622 -0.847169 0.348931 -0.635932 -0.688358 
0.331525 -0.518061 -0.788482 0.320542 -0.496504 -0.806683 0.344927 -0.613574 -0.710318 
0.441042 -0.659697 -0.608508 0.265173 -0.281993 -0.922043 -0.32859 0.610484 0.720651 
0.319471 -0.603312 -0.730721 0.334654 -0.620347 -0.709349 0.334654 -0.620347 -0.709349 
-0.32747 0.621898 0.711341 0 -0.894427 -0.447214 0 -1 0 
-0.437612 -0.733084 0.520657 0.437612 -0.733084 0.520657 0 0.640184 -0.768221 
0.13496 -0.647213 -0.750267 0.160215 -0.680186 -0.715317 -0.131584 0.64807 0.750128 
0.144077 -0.649637 -0.746467 0.145806 -0.630639 -0.762256 0.132252 -0.648756 -0.749417 
-0.135 0.647966 0.74961 -0.135384 0.642756 0.754013 0.182095 -0.653155 -0.735003 
-0.179198 0.652792 0.736037 0.200239 -0.670696 -0.714193 0.195886 -0.656627 -0.728334 
0.236319 -0.700872 -0.673002 0.232611 -0.612853 -0.755185 0.242869 -0.722395 -0.647426 
0.24003 -0.633789 -0.735321 0.258585 -0.810477 -0.525606 0.189248 -0.203858 -0.960535 
0.256754 -0.695535 -0.67105 0.26832 -0.737122 -0.620206 0.178968 -0.675894 -0.714939 
-0.239555 0.692969 0.680006 0.142961 -0.669946 -0.728516 -0.254038 0.768906 0.586727 
0.160035 -0.674835 -0.720407 -0.0883257 -0.158685 0.983371 -0.258494 0.742079 0.618465 
0.260956 -0.937632 -0.229668 0.191105 -0.178575 -0.965189 0.237021 0.41356 0.879085 
-0.132939 0.839731 -0.526478 -0.115117 0.807304 -0.5788 0.235948 -0.236162 0.942633 
0.278459 -0.63149 -0.723658 0.296849 -0.638518 -0.710053 -0.308135 0.651742 0.693026 
0.360296 -0.655066 -0.664135 0.337783 -0.634595 -0.69512 0.326085 -0.608827 -0.723186 
0.371011 -0.603959 -0.705396 0.37303 -0.617174 -0.69278 0.359941 -0.613493 -0.7029 
0.342604 -0.617766 -0.707805 -0.353046 0.612266 0.707452 -0.342218 0.616974 0.708682 
0 -0.894427 -0.447214 0 -1 0 -0.437612 -0.733084 0.520657 
0.437612 -0.733084 0.520657 0 -0.293812 0.955863 0 0.640184 -0.768221 
0.152492 -0.647982 -0.746234 0.165172 -0.656053 -0.736418 -0.131584 0.64807 0.750128 
-0.131584 0.64807 0.750128 0.13496 -0.647213 -0.750267 0.135378 -0.650721 -0.747151 
0.155212 -0.679595 -0.71698 0.141566 -0.656558 -0.740871 0.149701 -0.648317 -0.746508 
0.152518 -0.645 -0.748808 0.160857 -0.652469 -0.740546 -0.137985 0.655239 0.742713 
-0.163945 0.618671 0.768354 -0.470967 0.654214 0.591772 -0.662918 0.656178 0.360513 
-0.341306 0.649922 0.679052 -0.69941 0.631955 0.333856 -0.37219 0.692815 0.617642 
0.201637 -0.654313 -0.728847 0.221697 -0.665528 -0.712687 -0.311477 -0.211101 -0.926509 
-0.0892813 -0.830319 0.55009 -0.0139265 -0.41344 0.910425 -0.213981 0.0016262 -0.976837 
-0.226536 -0.944988 -0.235963 -0.242536 0 -0.970143 0 -0.222396 -0.974956 
0 -1 0 -0.775537 -0.62746 0.0695381 0.775537 -0.62746 0.0695381 
0.0585555 0.969183 -0.239282 -0.234192 0.683809 0.691056 0.125873 0.894825 -0.428304 
0.224609 -0.626796 -0.746108 0.25759 -0.798926 -0.543475 0.157702 -0.89938 0.407732 
0 0.529999 -0.847998 -0.311477 -0.211101 -0.926509 -0.0892813 -0.830319 0.55009 
-0.0139265 -0.41344 0.910425 -0.213981 0.0016262 -0.976837 -0.226536 -0.944988 -0.235963 
-0.242536 0 -0.970143 -0.268018 0.829349 0.490252 0.0585555 0.969183 -0.239282 
-0.218291 0.281605 0.93437 0.125873 0.894825 -0.428304 0.278459 -0.63149 -0.723658 
0.20466 -0.632484 -0.747046 -0.35542 -0.676057 -0.645464 -0.953686 -0.031563 0.299142 
0.292453 -0.637748 -0.712565 0.283405 -0.633835 -0.719676 -0.310991 0.568236 0.761835 
0.352592 -0.641969 -0.680849 0.433803 -0.621589 -0.65226 -0.255344 0.516564 0.817289 
0.358916 -0.565093 -0.742866 0.372648 -0.547064 -0.74957 0.415328 -0.625881 -0.660133 
0.325854 -0.604155 -0.727198 0.350539 -0.612286 -0.708681 -0.35401 0.611864 0.707318 
-0.354528 0.611787 0.707126 0 -0.293812 0.955863 0 -0.894427 -0.447214 
0 -1 0 -0.437612 -0.733084 0.520657 0.437612 -0.733084 0.520657 
0 0.640184 -0.768221 0.154139 -0.65006 -0.744085 0.153531 -0.649998 -0.744265 
0.153531 -0.649998 -0.744265 0.150503 -0.648551 -0.746143 0.154247 -0.650157 -0.743978 
-0.156482 0.649567 0.744027 0.163191 -0.651121 -0.741222 0.158568 -0.652752 -0.740791 
-0.193682 0.613873 0.765276 -0.206679 0.606018 0.768131 -0.159319 0.651623 0.741623 
-0.153876 0.648965 0.745095 0.160044 -0.650399 -0.742541 0.167232 -0.647995 -0.743059 
-0.193682 0.613873 0.765276 -0.280583 0.685304 0.672035 -0.544699 0.709971 0.446367 
0.195798 -0.613687 -0.764886 -0.203409 0.553263 0.80779 -0.200077 0.60089 0.773886 
-0.201092 0.604594 0.770733 -0.200953 0.604112 0.771146 -0.201815 0.596554 0.776785 
0.237021 0.41356 0.879085 0.235948 -0.236162 0.942633 0.20095 -0.605957 -0.769698 
0.199709 -0.61445 -0.763261 -0.201368 0.601346 0.773197 0 -0.329285 0.944231 
0.366238 -0.609928 -0.70275 -0.3899 0.707062 0.589951 -0.385054 0.712628 0.586426 
-0.368277 0.620704 0.692169 0.237021 0.41356 0.879085 0.377272 -0.616045 -0.691487 
0.366238 -0.609928 -0.70275 0.235948 -0.236162 0.942633 0.26975 -0.56916 -0.776719 
-0.374901 0.623346 0.686213 0.355085 -0.604182 -0.713357 0.282009 -0.576373 -0.766984 
0.327954 -0.602491 -0.727634 0.384611 -0.562024 -0.732259 -0.362534 0.616852 0.698614 
-0.355493 0.611411 0.706966 0.347529 -0.613287 -0.709298 0 -0.222396 -0.974956 
0 -1 0 -0.775537 -0.62746 0.0695381 0.775537 -0.62746 0.0695381 
0 -0.293812 0.955863 0 0.529999 -0.847998 0 -0.222396 -0.974956 
0 -1 0 -0.775537 -0.62746 0.0695381 0.775537 -0.62746 0.0695381 
0 0.529999 -0.847998 0.154645 -0.650331 -0.743743 -0.154363 0.650257 0.743867 
-0.156549 0.65413 0.740005 -0.154973 0.649032 0.74481 -0.147623 0.645003 0.749786 
0.147743 -0.644483 -0.750209 0.0684735 -0.407152 -0.91079 0.0557337 -0.352498 -0.934152 
0.0604751 -0.371817 -0.926334 -0.156549 0.65413 0.740005 -0.156076 0.649685 0.744009 
-0.157343 0.651277 0.742348 -0.162254 0.655377 0.737668 0.164971 -0.648785 -0.742875 
-0.0835997 0.473084 0.877042 0.165458 -0.639483 -0.75079 0.189361 -0.57522 -0.795779 
0.195826 -0.613681 -0.764884 -0.311477 -0.211101 -0.926509 -0.0892813 -0.830319 0.55009 
-0.0139265 -0.41344 0.910425 -0.213981 0.0016262 -0.976837 -0.226536 -0.944988 -0.235963 
-0.242536 0 -0.970143 0.0585555 0.969183 -0.239282 0.198337 -0.621019 -0.758286 
0.125873 0.894825 -0.428304 -0.202664 0.582287 0.787318 -0.327561 -0.524097 -0.786146 
-0.242536 0 -0.970143 -0.242536 0 -0.970143 -0.256814 -0.103336 -0.96092 
-0.298198 -0.188015 -0.935803 -0.00125434 0.671552 -0.740956 -0.289422 -0.112457 -0.950573 
0 0 0 0.199379 -0.619955 -0.758883 -0.333333 -0.666667 -0.666667 
0.328153 0.461543 0.824193 0.355455 0.480985 0.801439 -0.400814 0.659552 0.635877 
-0.333771 0.639679 0.692393 -0.357458 0.625832 0.693223 -0.530694 0.393048 0.750918 
-0.455341 0.487027 0.745298 0.273406 -0.679269 -0.68106 -0.360258 0.600112 0.714199 
-0.552591 0.374437 0.744607 -0.718627 -0.0835776 0.690355 -0.453028 0.543245 0.70686 
-0.556583 0.351529 0.752756 0.347267 -0.613427 -0.709305 0 -0.222396 -0.974956 
0 -1 0 -0.775537 -0.62746 0.0695381 0.775537 -0.62746 0.0695381 
0 0.529999 -0.847998 0.348669 -0.615206 -0.707073 0 -0.222396 -0.974956 
0 -1 0 -0.775537 -0.62746 0.0695381 0.775537 -0.62746 0.0695381 
0 -0.329285 0.944231 0 0.529999 -0.847998 0 -0.222396 -0.974956 
0 -1 0 -0.775537 -0.62746 0.0695381 0.775537 -0.62746 0.0695381 
0 0.529999 -0.847998 0.0409088 -0.069857 0.996718 -0.114803 0.598566 0.792804 
-0.046596 0.313083 0.948582 -0.0213786 0.204959 0.978537 -0.056119 0.354262 0.933461 
-0.0853803 0.479369 0.87345 -0.0823473 0.466122 0.88088 -0.127088 0.651651 0.747797 
0 -0.329285 0.944231 0.109684 -0.383831 0.916866 0.175039 -0.700204 0.692153 
0.0892369 -0.288992 0.953164 -0.0056224 0.135797 0.990721 -0.148799 0.739999 0.655942 
-0.128445 0.658459 0.741575 -0.1345 0.683458 0.717492 -0.14402 0.721725 0.677031 
-0.0498498 0.327051 0.943691 -0.0498498 0.327051 0.943691 0.0597503 -0.369904 -0.927147 
-0.0887917 0.497182 0.863091 -0.0819824 0.466699 0.880608 -0.0925204 0.512346 0.853781 
-0.0595633 0.367736 0.928021 -0.0710988 0.418553 0.905405 0.0861017 -0.481727 -0.872081 
0.162195 -0.792159 -0.588368 0.214883 -0.973609 -0.0768841 0.0787 -0.451125 -0.888984 
0.15094 -0.750841 -0.643005 0.0666514 -0.399652 -0.914241 -0.069388 0.411898 0.908584 
-0.106628 0.577079 0.809697 -0.133103 0.691176 0.710323 -0.199232 0.890899 -0.408173 
-0.206998 0.941794 -0.264908 -0.183379 0.800803 -0.570164 -0.0782629 0.450002 0.889591 
-0.0691943 0.410731 0.909127 0.169941 -0.639936 -0.749401 -0.0495157 0.323593 0.9449 
-0.0173695 0.17765 0.98394 0.181844 -0.611586 -0.769997 -0.178963 0.880331 0.439307 
-0.193682 0.613873 0.765276 -0.160175 0.501709 0.850078 -0.160175 0.501709 0.850078 
-0.160175 0.501709 0.850078 -0.151643 0.489535 0.858696 -0.151643 0.489535 0.858696 
-0.132534 0.465747 0.874937 -0.146477 0.483342 0.86309 -0.133615 0.466618 0.874308 
0.237021 0.41356 0.879085 0.0718027 -0.36963 -0.926401 -0.241478 0.149524 -0.958818 
0.235948 -0.236162 0.942633 0.155232 -0.495527 -0.854608 -0.24882 0.162561 -0.95481 
-0.0976162 0.419544 0.902471 -0.115021 0.442934 0.889145 -0.196017 0.54615 0.814431 
-0.196017 0.54615 0.814431 -0.302854 0.64989 0.697082 -0.200747 0.547746 0.812204 
0.157222 -0.495811 -0.85408 0.242536 0 0.970143 0.146976 -0.4846 -0.8623 
0.142831 -0.479327 -0.865936 0.197638 -0.2071 0.958148 0.0888019 -0.412708 -0.906524 
-0.337607 -0.79356 -0.506244 -0.301379 0.649734 0.697865 -0.133262 0.468863 0.87316 
0.104742 -0.428668 -0.89737 -0.310724 0.634305 0.70789 -0.340287 0.648164 0.68124 
-0.557331 0.828446 0.0553164 -0.281432 0.622856 0.729963 -0.324038 0.649302 0.688045 
-0.521388 0.836592 0.168132 -0.368389 0.708573 0.601842 -0.858289 0.319336 -0.401703 
-0.435401 0.696549 0.570303 -0.363964 0.645898 0.671078 -0.366673 0.636487 0.678553 
0.309035 -0.627246 -0.714885 -0.422783 0.52367 0.739611 -0.377017 0.607997 0.698712 
0.334152 -0.642436 -0.689651 -0.393852 0.564644 0.725299 -0.383076 0.595162 0.706424 
0.315919 -0.702466 -0.637759 0 -0.329285 0.944231 0.324492 -0.697434 -0.638976 
0.312503 -0.711996 -0.628812 0 -0.329285 0.944231 -0.0721839 -0.419234 -0.905004 
-0.230411 -0.891987 0.388934 -0.967758 0.0550292 -0.245798 0.211565 0.466386 -0.858909 
0.290023 -0.833067 -0.471048 0.996107 -0.0579323 0.0664408 0 -0.329285 0.944231 
-0.123511 0.860026 -0.495075 0.0828421 0.862985 0.498392 0.0395948 -0.283918 -0.958031 
0.0433088 -0.300063 -0.952936 -0.027734 0.0114998 -0.999549 -0.0998018 0.538339 0.836798 
0.0293783 -0.239444 -0.970466 -0.0389665 0.0636706 -0.99721 0.0826265 -0.468624 -0.879525 
0.0772207 -0.44521 -0.89209 0.0690082 -0.409748 -0.909585 -0.0688603 0.409285 0.909804 
0.0732467 -0.428533 -0.900552 0.0633091 -0.384807 -0.920823 0.0525544 -0.336836 -0.940096 
-0.0782116 0.270583 -0.959514 0.0431575 -0.324907 -0.944761 0.151687 -0.48972 -0.858583 
0.167999 -0.512342 -0.842189 -0.17175 0.517486 0.838278 0.200928 -0.553972 -0.807925 
0.223738 -0.576132 -0.786138 0.31629 -0.656353 -0.684954 -0.193439 0.544212 0.816342 
0.392168 -0.705749 -0.590019 0.145981 -0.448296 -0.881884 -0.397233 0.700844 0.592472 
0.1307 -0.377929 -0.916563 0.110806 -0.264752 -0.957929 0.354856 -0.611118 -0.707539 
0.185143 0.194438 -0.963284 -0.0552042 0.702783 -0.709259 0.323029 -0.43835 -0.83875 
-0.361436 0.612426 0.703064 -0.365281 0.742428 0.561579 -0.359641 0.702609 0.614003 
0.361712 -0.648422 -0.669861 -0.019267 -0.189423 -0.981707 -0.339682 0.72139 0.6035 
-0.363241 0.625216 0.690768 0.321014 -0.675824 -0.663485 -0.397741 0.701998 0.590762 
0.366399 -0.617954 -0.695618 -0.373566 0.621094 0.688978 -0.370832 0.611737 0.698757 
0.370741 -0.611627 -0.698901 -0.378067 0.605622 0.700205 0 -0.222396 -0.974956 
0 -1 0 -0.775537 -0.62746 0.0695381 0.775537 -0.62746 0.0695381 
0 0.529999 -0.847998 -0.0977345 0.682432 0.724385 -0.0861733 0.672528 0.735037 
-0.203698 0.626762 0.752115 -0.00411512 -0.747602 -0.664135 0.0896988 -0.703969 -0.704543 
-0.0390569 -0.784 -0.619531 -0.277792 0.44131 0.853274 0.156983 -0.509181 0.846222 
0.0432399 -0.665477 -0.745165 -0.0413247 -0.77432 -0.631444 0.347999 -0.536185 -0.769027 
0.359433 -0.603989 -0.711341 -0.35157 0.716281 0.602777 -0.360632 0.654715 0.664298 
-0.363831 0.625762 0.689963 0.362543 -0.623709 -0.692495 -0.366708 0.616983 0.696317 
-0.366708 0.616983 0.696317 -0.374557 0.611656 0.696839 0 -0.222396 -0.974956 
0 -1 0 -0.775537 -0.62746 0.0695381 0.775537 -0.62746 0.0695381 
0 -0.329285 0.944231 0 0.529999 -0.847998 -0.071786 -0.764522 -0.640588 
0.00837429 -0.73868 -0.674005 0.00182154 -0.735649 -0.67736 0.022148 -0.740512 -0.671678 
0.0290323 -0.761595 -0.647403 -0.10743 -0.779613 -0.616978 -0.0227852 0.716188 0.697536 
-0.0564566 0.761146 0.646119 -0.00198312 -0.708075 -0.706134 -0.26621 -0.812683 -0.518342 
0.0132187 0.760933 0.648696 -0.36578 0.618051 0.695858 0 -0.329285 0.944231 
0 -0.707107 -0.707107 0 -0.707107 -0.707107 -0.0016173 -0.753921 -0.656963 
-0.342846 -0.777981 -0.526499 -0.00420129 0.764502 0.644607 0.0309918 0.770672 0.636478 
0.0761865 -0.84739 -0.525477 -0.458981 0.581008 -0.672135 0.362138 0.653205 -0.664966 
0.450827 -0.534192 0.715118 -0.0717508 0.837755 0.541312 0.0871938 0.743366 0.663178 
-0.35047 -0.606726 0.71348 0 -0.992278 -0.124035 0 -1 0 
-0.447214 -0.894427 0 0.447214 -0.894427 0 0 1 0 