# vtk DataFile Version 4.2
vtk output
ASCII
DATASET POLYDATA
POINTS 727 float
371.032 69.8863 58.503 370.68 70.2136 58.5508 364.132 66.5671 58.6377 
369.071 69.385 58.4434 369.84 68.7338 58.4974 367.428 69.5399 58.5339 
372.18 69.9199 58.9476 372.042 69.4074 58.9244 369.593 70.0995 58.5275 
371.507 70.2637 58.7447 372.686 70.0998 59.2547 370.992 70.7546 58.8568 
358.588 65.566 59.2353 370.14 68.2529 58.6735 365.739 70.8746 59.0879 
368.959 72.1559 59.6834 372.009 71.3776 59.567 350.33 58.8471 60.9495 
353.559 61.3183 60.1242 353.306 62.5702 60.1379 362.572 63.4198 59.409 
353.892 64.0387 60.164 369.664 66.4676 59.2385 360.635 68.2952 59.4108 
372.849 69.0196 59.4656 364.157 69.9694 59.1027 364.706 70.6738 59.2401 
348.504 58.849 61.363 348.857 59.4733 61.2151 355.195 59.7545 60.4415 
352.442 63.3764 60.4805 375.063 68.3899 61.6619 374.145 69.02 60.6774 
374.663 69.0325 61.1693 374.882 68.9084 61.3428 345.439 56.638 63.029 
345.262 57.5528 62.7972 350.454 57.3416 61.4941 345.649 58.5082 62.4972 
349.417 60.6681 61.0468 367.039 74.8913 61.8423 368.485 75.0084 62.2018 
345.321 56.2998 63.1763 345.276 56.4206 63.1879 345.404 56.2356 63.1836 
346.397 55.5512 63.2669 345.041 56.6328 63.4182 345.687 56.0989 63.2209 
375.169 70.1889 62.7912 372.583 73.0555 62.4602 369.234 75.5285 63.0662 
370.203 75.3319 63.491 345.302 56.2848 63.2854 358.69 57.1942 63.1444 
343.761 58.8516 64.2508 343.943 59.998 63.9175 347.834 64.6124 62.9278 
376.868 65.3102 64.1895 376.971 65.9312 64.0611 377.259 65.9 64.4304 
376.872 66.3098 63.9146 377.119 66.2118 64.2272 345.261 55.0412 64.8439 
348.056 54.5594 63.7136 353.667 55.1514 63.9061 377.458 65.8861 64.7541 
346.05 53.8902 65.677 346.597 53.8457 65.0861 349.535 53.4642 65.3267 
349.764 53.7828 64.7572 358.728 56.0988 64.9037 360.077 56.4425 65.0583 
343.114 58.822 65.6698 368.14 60.0161 64.6736 377.381 64.8888 65.372 
377.651 65.1337 65.4905 345.362 65.4972 64.6876 377.644 65.3708 65.2975 
377.434 66.4598 64.9415 373.661 72.7745 64.4744 346.81 53.2477 66.2404 
346.648 53.2232 66.418 346.858 53.1735 66.4959 347.214 53.3084 65.9307 
349.491 53.3535 65.7449 350.223 53.4015 66.3519 345.68 54.1638 65.8539 
351.424 53.6702 66.052 353.747 54.4866 65.3552 355.272 54.8254 65.9165 
358.393 55.752 65.7943 359.669 56.2654 65.2997 361.797 56.9364 65.6242 
373.181 61.9961 65.4932 373.388 62.0729 65.7422 342.56 61.157 66.2664 
373.594 62.2372 65.9053 375.477 63.4257 65.5669 376.925 64.4341 65.833 
377.76 65.136 65.6682 377.61 64.9855 65.6624 377.763 65.0881 65.7142 
377.774 65.3594 65.7394 377.795 65.1635 65.7296 343.123 65.553 66.4668 
377.742 65.9854 65.8115 377.061 67.5612 65.9331 375.613 70.3784 66.0469 
374.884 71.4631 65.5719 360.575 80.1259 66.7136 346.655 53.2233 66.5667 
346.807 53.2202 66.6886 347.137 53.1848 66.685 350.75 53.5593 66.632 
345.407 54.4826 66.6922 356.509 55.2865 66.6377 362.017 57.1093 66.2276 
343.99 56.2884 66.8633 359.486 56.289 66.7966 343.099 58.1826 67.1883 
366.258 59.2653 66.7967 342.32 60.7746 67.1336 342.085 63.7758 67.5597 
377.725 65.1078 65.7913 377.683 65.172 65.9788 377.783 65.3236 66.0089 
377.781 65.3821 66.1092 346.497 53.5586 66.961 346.9 53.3566 66.9564 
347.497 53.2585 66.9829 347.994 53.5639 67.6234 345.619 54.4602 67.1322 
351.166 53.993 67.469 356.688 55.4986 67.1924 358.827 56.7125 67.9777 
361.146 57.519 67.7866 342.855 58.7748 68.3246 366.406 59.5674 67.3164 
370.209 61.0111 67.0382 372.769 62.2448 67.1098 377.416 65.0649 66.2265 
377.309 65.9187 66.8605 377.178 66.2166 67.2482 342.36 67.8195 68.0168 
375.986 69.3979 67.5353 356.836 80.1299 67.8597 362.506 82.5471 68.8033 
346.486 54.0133 67.5832 347.507 54.4471 68.6032 355.607 55.8803 68.3137 
359.747 58.2043 69.1647 365.762 60.0301 68.3087 341.952 61.7713 69.1039 
373.034 62.9836 67.9129 341.672 63.377 68.7589 340.852 67.6856 70.1123 
376.509 67.5215 67.7765 374.405 71.9273 68.2539 342.224 71.9208 69.6002 
348.261 76.7384 69.1693 360.318 83.3352 69.6882 362 86.0087 69.0174 
362 86.0087 69.0175 362 86.0088 69.0175 362 86.0088 69.0175 
362 86.0088 69.0175 346.602 54.5298 68.2483 345.239 55.5808 68.2676 
373.111 65.3654 69.7688 340.997 65.459 70.1337 375.487 66.4207 68.8357 
375.214 69.7912 69.0559 375.058 70.5084 68.7301 341.312 72.7412 70.7952 
343.934 74.6143 70.0455 349.939 78.3141 69.6546 359.228 83.8002 70.5094 
362 86.0087 69.0175 344.037 58.4306 70.038 348.665 57.0491 70.5696 
352.866 58.1295 70.8529 342.286 61.4447 70.4732 362.187 62.3732 71.2517 
340.535 67.2913 71.1987 374.848 68.0527 69.7449 375.051 69.3197 69.4725 
340.015 70.8317 71.8723 340.015 70.9713 71.8088 340.367 70.9776 71.157 
347.344 78.1655 71.529 351.256 80.0347 71.4217 354.442 82.1418 71.8606 
354.718 82.2693 71.7218 356.825 83.1859 71.4154 358.513 83.8108 70.929 
358.048 83.9083 71.5488 358.432 84.1236 71.7294 360.008 84.6092 71.6391 
344.985 58.202 70.5265 346.297 59.0158 71.645 341.897 62.8102 71.3915 
341.104 65.2144 71.9539 340.629 66.6852 71.7008 373.561 66.7083 70.2866 
374.586 68.8052 70.0226 339.972 70.9894 71.9711 339.954 71.0365 72.3473 
339.92 72.9119 72.9055 340.999 74.3531 72.3465 340.497 74.6168 73.1274 
340.449 74.5033 73.0615 340.402 74.5559 73.22 340.617 74.6087 73.0105 
342.542 75.2676 71.6714 340.653 74.721 73.2206 342.282 75.5837 72.7529 
345.511 77.2467 71.7349 346.716 77.9792 71.9998 365.048 83.0671 72.0793 
357.008 83.4021 71.9301 357.432 83.6513 72.0922 359.335 84.4995 72.1295 
360.203 84.5932 72.2961 361.192 84.7224 72.0029 362.159 84.6533 72.4255 
361.371 84.7703 72.2413 361.606 84.7817 72.3473 343.535 60.6019 71.4853 
341.761 63.8643 72.1423 340.338 67.6754 72.4791 339.904 70.3633 73.0847 
339.751 71.9972 73.5239 340.049 74.2614 73.4973 341.001 74.7773 72.8979 
340.711 74.7894 73.5066 344.182 76.7845 72.949 344.734 77.1013 72.4693 
345.231 77.345 72.6451 346.553 77.8643 72.8029 354.053 81.427 73.165 
356.232 82.7874 72.8814 359.559 84.495 72.4747 361.434 84.7364 72.5019 
362.53 84.6311 72.7574 342.423 62.739 72.2449 343.613 62.5953 73.0756 
344.445 62.8215 73.576 341.412 65.4269 73.0597 341.229 66.0683 73.3305 
339.988 69.7848 73.5626 368.26 70.7216 74.3679 371.371 71.9083 73.1502 
339.749 72.5844 74.0949 339.799 73.9165 73.7153 339.798 74.04 73.8357 
339.881 74.2023 73.8593 341.801 75.2683 73.8058 344.631 76.9636 73.2212 
345.183 76.9237 73.8926 368.094 80.0783 73.6727 356.758 82.0806 74.5752 
359.255 83.9607 73.6533 364.167 83.7911 73.63 362.637 84.4239 73.3116 
362.655 84.553 72.8857 342.706 63.0202 72.7358 341.946 65.1375 73.5328 
341.797 65.8662 73.9448 346.649 64.6639 74.8962 339.936 70.5969 74.4496 
370.389 72.2358 73.9861 339.853 73.8306 74.1288 339.926 74.2011 74.0153 
340.098 74.2804 74.1128 340.288 74.4892 73.9796 341.192 74.8748 74.1155 
342.552 75.5052 74.1519 360.457 83.3548 75.2163 363.103 84.1746 73.8735 
342.356 66.2966 74.7203 340.801 68.8969 74.9436 340.133 70.1341 74.7342 
358.495 70.525 76.295 339.941 71.5303 75.6637 339.947 71.7314 75.6451 
340.097 72.4621 75.1915 339.959 74.0432 74.1736 340.177 74.1139 74.3167 
341.906 74.6582 74.892 344.047 74.9547 75.6691 369.315 76.7913 74.7828 
369.543 76.079 74.7511 368.492 78.7863 74.9295 367.031 80.9765 75.6969 
363.116 83.8493 74.7334 344.174 68.6134 76.457 340.399 70.0911 75.2844 
349.968 69.3599 76.7358 354.329 69.4432 76.3587 340.069 71.3162 75.8236 
339.979 71.5201 75.8077 341.657 73.3474 75.9328 342.02 73.7814 75.7607 
362.339 73.9804 77.2863 351.999 77.3641 76.2629 368.568 77.779 75.5566 
365.292 82.6311 75.9162 364.359 83.1969 75.7849 341.007 70.2853 76.085 
340.582 70.4682 75.8854 340.36 70.9626 76.1066 342.85 70.2609 76.6662 
340.318 71.1255 76.1306 340.065 71.6021 75.879 340.215 71.2568 76.0504 
340.222 71.4937 76.027 340.271 71.8191 75.9469 354.759 73.3225 77.4165 
356.049 72.8542 77.3049 358.263 73.0259 77.2619 356.917 73.5001 77.427 
350.126 75.2592 76.8434 362.186 81.6939 77.3569 340.864 70.741 76.2223 
340.898 71.1258 76.3349 340.393 71.3294 76.168 343.406 71.2217 76.8163 
343.8 72.6063 76.7399 348.897 73.0874 77.1597 354.581 75.5792 77.3891 
359.651 76.7192 77.9737 363.114 76.4118 78.1071 367.867 77.6928 76.4476 
358.582 78.9504 77.5476 365.391 78.3999 78.0941 360.969 80.3678 77.8 
366.627 80.5629 77.4393 365.785 81.657 77.2705 358.5 77.8971 77.7727 
362.192 78.6223 78.3984 363.515 79.2359 78.4177 361.67 79.9886 78.124 
366.543 80.4333 77.6851 366.543 80.552 77.6837 366.486 80.523 77.7576 
366.421 80.6408 77.7257 366.041 81.2862 77.5257 366.208 81.0355 77.6625 
366.346 80.4182 77.8074 366.023 80.8488 77.846 368.004 83.0131 81.0087 
368.004 83.0132 81.0087 368.004 83.0132 81.0087 368.004 83.0131 81.0088 
368.004 83.0132 81.0088 365.597 81.0552 78.0062 368.004 83.0131 81.0088 
368 82.0087 375.017 368 82.0087 375.017 368 82.0088 375.017 
368 82.0088 375.017 368 82.0088 375.017 363.273 78.6434 377.64 
363.97 79.4904 377.778 366.054 79.5606 378.217 366.059 79.7912 378.281 
368 82.0087 375.018 340.363 70.3399 379.685 340.544 70.8241 379.42 
340.69 71.0567 379.349 341.193 70.3066 379.069 342.206 70.931 378.724 
342.143 70.5688 378.76 343.506 71.4116 378.533 344.959 72.1331 378.511 
346.882 73.0005 378.476 362.226 75.9368 377.947 362.421 76.187 377.936 
357.663 77.4705 378.275 357.541 77.3124 378.285 357.747 77.6948 378.326 
364.412 81.9125 379.149 341.684 69.961 378.961 341.94 69.7117 378.975 
341.071 72.0143 379.504 358.059 75.9563 378.233 362.053 75.5881 378.129 
359.739 76.9381 378.04 356.958 77.3386 378.421 367.14 78.6586 379.016 
366.849 79.7439 379.095 362.381 81.8904 378.896 341.005 73.1925 380.256 
366.852 75.3877 379.36 367.816 75.6474 379.825 368.273 76.3251 380.072 
367.897 78.0823 379.844 358.218 80.4352 379.293 366.927 80.2972 379.671 
365.165 82.4007 380.433 344.318 65.1402 380.774 342.071 66.296 380.828 
339.831 72.0265 381.161 368.598 77.8388 380.851 360.034 82.273 379.883 
342.576 62.9426 382.725 342.41 63.1029 382.771 342.761 62.849 382.7 
[...]
POINT_DATA 727
SCALARS scalars float
LOOKUP_TABLE default
1 1 1 1 1 1 1 1 1 
1 1 1 1 1 1 1 1 1 
1 1 1 1 1 1 1 1 1 
1 1 1 1 1 1 1 1 1 
1 1 1 1 1 1 1 1 1 
1 1 1 1 1 1 1 1 1 
1 1 1 1 1 1 1 1 1 
1 1 1 1 1 1 1 1 1 
1 1 1 1 1 1 1 1 1 
1 1 1 1 1 1 1 1 1 
1 1 1 1 1 1 1 1 1 
1 1 1 1 1 1 1 1 1 
1 1 1 1 1 1 1 1 1 
1 1 1 1 1 1 1 1 1 
1 1 1 1 1 1 1 1 1 
1 1 1 1 1 1 1 1 1 
1 1 1 1 1 1 1 1 1 
1 1 1 1 1 1 1 1 1 
1 1 1 1 1 1 1 1 1 
1 1 1 1 1 1 1 1 1 
1 1 1 1 1 1 1 1 1 
1 1 1 1 1 1 1 1 1 
1 1 1 1 1 1 1 1 1 
1 1 1 1 1 1 1 1 1 
1 1 1 1 1 1 1 1 1 
1 1 1 1 1 1 1 1 1 
1 1 1 1 1 1 1 1 1 
1 1 1 1 1 1 1 1 1 
1 1 1 1 1 1 1 1 1 
1 1 1 1 1 1 1 1 1 
1 1 1 1 1 1 1 1 1 
1 1 1 1 1 1 1 1 1 
1 1 1 1 1 1 1 1 1 
1 1 1 1 1 1 1 1 1 
1 1 1 1 1 1 1 1 1 
1 1 1 1 1 1 1 1 1 
1 1 1 1 1 1 1 1 1 
1 1 1 1 1 1 1 1 1 
1 1 1 1 1 1 1 1 1 
1 1 1 1 1 1 1 1 1 
1 1 1 1 1 1 1 1 1 
1 1 1 1 1 1 1 1 1 
1 1 1 1 1 1 1 1 1 
1 1 1 1 1 1 1 1 1 
1 1 1 1 1 1 1 1 1 
1 1 1 1 1 1 1 1 1 
1 1 1 1 1 1 1 1 1 
1 1 1 1 1 1 1 1 1 
1 1 1 1 1 1 1 1 1 
1 1 1 1 1 1 1 1 1 
1 1 1 1 1 1 1 1 1 
1 1 1 1 1 1 1 1 1 
1 1 1 1 1 1 1 1 1 
1 1 1 1 1 1 1 1 1 
1 1 1 1 1 1 1 1 1 
1 1 1 1 1 1 1 1 1 
1 1 1 1 1 1 1 1 1 
1 1 1 1 1 1 1 1 1 
1 1 1 1 1 1 1 1 1 
1 1 1 1 1 1 1 1 1 
1 1 1 1 1 1 1 1 1 
1 1 1 1 1 1 1 1 1 
1 1 1 1 1 1 1 1 1 
1 1 1 1 1 1 1 1 1 
1 1 1 1 1 1 1 1 1 
1 1 1 1 1 1 1 1 1 
1 1 1 1 1 1 1 1 1 
1 1 1 1 1 1 1 1 1 
1 1 1 1 1 1 1 1 1 
1 1 1 1 1 1 1 1 1 
1 1 1 1 1 1 1 1 1 
1 1 1 1 1 1 1 1 1 
1 1 1 1 1 1 1 1 1 
1 1 1 1 1 1 1 1 1 
1 1 1 1 1 1 1 1 1 
1 1 1 1 1 1 1 1 1 
1 1 1 1 1 1 1 1 1 
1 1 1 1 1 1 1 1 1 
1 1 1 1 1 1 1 1 1 
1 1 1 1 1 1 1 1 1 
1 1 1 1 1 1 1 
NORMALS Normals float
0.215144 -0.142333 -0.966154 0.0375609 0.253027 -0.96673 -0.0424061 -0.0285589 -0.998692 
-0.103239 -0.186625 -0.976992 -0.0248754 -0.125778 -0.991746 -0.0384097 0.0901857 -0.995184 
0.450968 0.219754 -0.865064 0.260286 -0.323099 -0.909867 0.103815 0.350168 -0.930916 
0.35955 0.284732 -0.888624 0.644739 0.229991 -0.728983 0.183333 0.525481 -0.830818 
-0.315482 0.33358 -0.888367 0.0799722 -0.378277 -0.922232 -0.0712907 0.481694 -0.873435 
0.165249 0.54935 -0.819089 0.446408 0.591473 -0.671476 -0.185506 -0.149977 -0.971131 
-0.128933 -0.12674 -0.983521 -0.2321 0.0201661 -0.972483 0.134244 -0.403856 -0.904919 
-0.234399 0.214837 -0.948105 0.227413 -0.400914 -0.887441 -0.461076 0.481546 -0.745334 
0.495602 -0.331709 -0.802713 -0.319438 0.384145 -0.866252 -0.332437 0.453549 -0.826909 
-0.390648 -0.00715533 -0.920512 -0.337368 -0.0933733 -0.936731 0.0490484 -0.556636 -0.829307 
-0.317693 0.114086 -0.941305 0.756318 -0.0575926 -0.651664 0.706614 0.126069 -0.696278 
0.655932 0.160256 -0.737612 0.776661 0.0943105 -0.622818 -0.417732 -0.264213 -0.869305 
-0.450218 -0.243514 -0.859072 -0.0902257 -0.426318 -0.900063 -0.543611 0.0430324 -0.838234 
-0.410068 0.122597 -0.903778 -0.276847 0.726981 -0.628374 0.226644 0.662801 -0.713672 
-0.503115 -0.369646 -0.781177 -0.794532 -0.238403 -0.558465 -0.391434 -0.730608 -0.559457 
-0.329858 -0.566176 -0.755406 -0.794476 -0.318275 -0.517213 -0.239361 -0.509031 -0.826797 
0.801804 0.456495 -0.385646 0.678284 0.637388 -0.365605 0.248414 0.746306 -0.61751 
0.567929 0.769522 -0.292049 -0.705813 -0.609666 -0.360743 0.229057 -0.750963 -0.619344 
-0.821266 -0.259563 -0.508085 -0.677407 0.121191 -0.725556 -0.43704 0.335419 -0.83456 
0.501134 -0.514463 -0.69584 0.72304 -0.212321 -0.657369 0.829227 -0.114508 -0.547056 
0.73033 0.0270096 -0.68256 0.825632 0.112386 -0.552903 -0.709688 -0.617377 -0.339395 
-0.0543424 -0.743029 -0.667049 0.205312 -0.793923 -0.572306 0.883307 -0.0876485 -0.460528 
-0.554678 -0.77895 -0.292521 -0.284467 -0.813245 -0.507652 0.102359 -0.908421 -0.405333 
0.245348 -0.867861 -0.431998 0.241283 -0.897725 -0.368609 0.321979 -0.914225 -0.246015 
-0.922408 -0.251081 -0.293464 0.43211 -0.873815 -0.222997 0.691879 -0.558932 -0.457055 
0.80698 -0.379764 -0.452286 -0.527355 0.285985 -0.800069 0.879024 -0.201775 -0.431976 
0.886493 0.274483 -0.372544 0.689297 0.721649 -0.0639693 -0.104654 -0.929949 -0.35248 
-0.396551 -0.901574 -0.172949 -0.0812137 -0.996154 -0.0328744 -0.0936847 -0.958126 -0.270587 
0.280777 -0.935624 -0.213945 0.146502 -0.984061 0.100807 -0.711661 -0.69633 -0.093072 
0.268502 -0.962738 -0.0322755 0.223372 -0.970465 -0.0911179 0.238735 -0.968643 -0.0688152 
0.354788 -0.934557 -0.0269914 0.279273 -0.934726 -0.219759 0.355147 -0.933987 -0.0392214 
0.498864 -0.819808 -0.281159 0.549292 -0.834343 -0.0463646 -0.924268 -0.0716101 -0.374968 
0.574416 -0.795589 0.192574 0.549529 -0.83411 -0.047735 0.58447 -0.796795 0.153338 
0.810941 -0.269866 -0.51918 0.630019 -0.776322 -0.0200081 0.781236 -0.623827 -0.0225913 
0.994638 -0.0501495 -0.0904462 0.977199 -0.180908 0.111149 -0.717176 0.134934 -0.683704 
0.979797 0.198239 -0.0264519 0.916161 0.389008 0.0965488 0.880115 0.473697 0.0317584 
0.779013 0.626788 -0.0166012 -0.156487 0.561643 -0.812446 -0.507883 -0.829206 0.233393 
-0.204618 -0.910575 0.359145 0.00854669 -0.995615 0.0931587 0.293775 -0.954591 0.049521 
-0.704645 -0.692788 0.153367 0.235217 -0.929071 0.285482 0.284679 -0.920143 0.268877 
-0.850957 -0.525019 0.0150928 0.355215 -0.903393 0.240215 -0.879351 -0.444826 -0.169918 
0.398687 -0.860267 0.317788 -0.944641 -0.225265 -0.238557 -0.899947 -0.0130054 -0.435805 
0.713253 -0.479721 0.511017 0.747826 -0.597022 0.290381 0.926976 -0.366365 0.0805768 
0.912787 -0.226514 0.339869 -0.400589 -0.684068 0.609573 -0.245699 -0.73962 0.626573 
-0.0966278 -0.826718 0.554256 0.0897863 -0.789852 0.60669 -0.630582 -0.668256 0.394715 
0.207934 -0.874777 0.43764 0.246349 -0.89675 0.367629 0.342959 -0.804362 0.485161 
0.298361 -0.791263 0.533745 -0.919943 -0.389523 0.0444651 0.362491 -0.859643 0.36002 
0.365128 -0.839968 0.401416 0.460745 -0.774591 0.43327 0.566366 -0.633268 0.527448 
0.83246 -0.11637 0.541726 0.865052 0.0142172 0.50148 -0.612085 0.315265 -0.725231 
0.906994 0.368333 0.204188 -0.247448 0.571376 -0.782495 0.0902983 0.775503 -0.624853 
-0.474838 -0.727842 0.494747 -0.222591 -0.689145 0.689588 0.205127 -0.739926 0.64065 
0.26623 -0.640901 0.719978 0.281883 -0.715511 0.639207 -0.982839 -0.164458 -0.0835589 
0.425178 -0.675988 0.601883 -0.971601 -0.192692 -0.137339 -0.888551 0.011919 -0.458622 
0.877334 0.212513 0.430259 0.779784 0.571745 0.255037 -0.610391 0.29455 -0.735298 
-0.473686 0.539063 -0.696443 -0.293557 0.600073 -0.744135 0 -0.894427 -0.447214 
0 -1 0 -0.437612 -0.733084 0.520657 0.437612 -0.733084 0.520657 
0 0.640184 -0.768221 -0.453014 -0.630131 0.630645 -0.467933 -0.606891 0.642435 
0.457631 -0.485793 0.744701 -0.969347 -0.230721 -0.0844579 0.611224 -0.322069 0.722964 
0.770035 0.277334 0.574571 0.802406 0.502433 0.322034 -0.69989 0.331911 -0.632447 
-0.416945 0.564413 -0.712457 -0.359003 0.611076 -0.705481 -0.282682 0.806528 -0.519233 
0 -0.293812 0.955863 -0.631124 -0.528427 0.567845 -0.000316593 -0.605359 0.795952 
0.15468 -0.506305 0.848369 -0.873598 -0.397426 0.280856 0.273134 -0.5087 0.816469 
-0.956278 -0.165568 -0.241079 0.73321 -0.140051 0.665424 0.744681 0.193994 0.638605 
-0.963426 -0.127443 -0.235729 -0.887472 0.25772 -0.382065 -0.82818 0.0803212 -0.554677 
-0.44559 0.848373 -0.285855 -0.453974 0.84346 -0.287199 -0.545422 0.773906 -0.321844 
-0.49602 0.836807 -0.231771 -0.476868 0.809704 -0.342018 -0.443648 0.695275 -0.565481 
-0.516252 0.771398 -0.37206 -0.349336 0.928565 -0.125423 -0.0120458 0.917183 -0.398285 
-0.404472 -0.53353 0.742798 -0.195551 -0.522764 0.829746 -0.880745 -0.322636 0.34669 
-0.88156 -0.414938 0.225117 -0.954985 -0.294194 -0.0381122 0.466559 -0.328802 0.821104 
0.608462 0.0907411 0.788378 -0.938087 0.295242 -0.181177 -0.981285 0.13615 -0.136175 
-0.908784 0.202 -0.365113 -0.612805 0.548707 -0.568674 -0.565941 0.736913 -0.369689 
-0.652753 0.429439 -0.624096 -0.726269 0.615776 -0.305538 -0.448454 0.615267 -0.648333 
-0.368175 0.800671 -0.472624 -0.446561 0.870203 -0.20816 -0.438417 0.849799 -0.292631 
-0.511316 0.773603 -0.374291 -0.453926 0.85017 -0.266763 0.475039 0.828461 -0.296631 
-0.497586 0.838357 0.222634 -0.531866 0.844047 -0.0685863 -0.303405 0.95286 -0.00188607 
-0.1145 0.965266 0.234845 -0.00128976 0.956407 -0.292034 0.263968 0.917653 -0.297041 
-0.049724 0.983613 -0.173301 0.109893 0.99361 -0.0257482 -0.512428 -0.555964 0.654464 
-0.854006 -0.399933 0.332758 -0.981042 -0.192497 0.0224118 -0.993274 -0.115384 -0.00961892 
-0.999948 -0.00911114 0.00448842 -0.785077 0.345372 -0.514171 -0.463212 0.773062 -0.433369 
-0.45023 0.8929 -0.0047705 -0.47409 0.821659 0.316411 -0.549776 0.791547 -0.266833 
-0.379352 0.923689 0.053763 -0.320903 0.92215 0.216009 -0.420642 0.834908 0.354948 
-0.445934 0.861624 0.242379 -0.194764 0.943625 0.267655 -0.104038 0.960266 0.258969 
0.281356 0.958759 0.0402422 -0.696941 -0.451926 0.556809 -0.452469 -0.496661 0.740675 
-0.267854 -0.538515 0.798909 -0.75398 -0.495846 0.430872 -0.83816 -0.353097 0.415703 
-0.923758 -0.321371 0.208307 0.372476 -0.447736 0.812892 0.591695 -0.218446 0.776002 
-0.996072 0.00207709 0.0885173 -0.885588 0.196254 -0.420973 -0.959873 0.269883 0.0762014 
-0.774119 0.623861 -0.107414 -0.462317 0.871617 0.162929 -0.447921 0.8563 0.257132 
-0.330231 0.801643 0.498314 0.849573 0.527453 0.0044559 -0.36692 0.731922 0.57416 
-0.324114 0.860632 0.392763 0.496105 0.864064 0.0852812 0.122256 0.926642 0.355511 
0.467129 0.864116 0.187337 -0.640054 -0.39164 0.661022 -0.659123 -0.496492 0.564847 
-0.650453 -0.425274 0.629327 0.0493625 -0.508864 0.859431 -0.944087 -0.245508 0.220057 
0.381614 -0.243538 0.891661 -0.844738 0.211631 0.491559 -0.750898 0.527677 0.397127 
-0.513207 0.623782 0.589504 -0.507871 0.806849 0.301764 -0.414931 0.770644 0.483674 
-0.322789 0.774835 0.543542 -0.222427 0.768479 0.599972 0.209489 0.961713 0.1767 
-0.391463 -0.404411 0.826564 -0.671619 -0.424029 0.607559 -0.921046 -0.305241 0.241871 
0.124488 -0.369804 0.920732 -0.99152 -0.0867006 0.0968023 -0.922452 0.247535 0.296325 
-0.891914 0.232982 0.387567 -0.658432 0.368422 0.656303 -0.540569 0.505949 0.672161 
-0.346889 0.727484 0.591976 -0.24017 0.608219 0.756563 0.913837 0.282595 0.291621 
0.764433 0.223312 0.604792 0.926308 0.283614 0.248026 0.863841 0.417011 0.282633 
0.181409 0.90947 0.374106 -0.0662399 -0.338594 0.938598 -0.787301 -0.439669 0.43226 
0.0612142 -0.256884 0.964502 0.12595 -0.493456 0.860603 -0.834992 -0.295182 0.464388 
-0.813138 0.225103 0.536783 -0.33231 0.387077 0.860082 -0.313366 0.603701 0.733039 
0.114821 -0.340657 0.93315 -0.266405 0.465355 0.844081 0.910413 0.166454 0.378738 
0.605723 0.778512 0.164371 0.213785 0.844144 0.491646 -0.369796 -0.39193 0.842403 
-0.632988 -0.508573 0.583677 -0.56121 -0.334013 0.757284 -0.253839 -0.296692 0.920619 
-0.508159 -0.138661 0.850028 -0.712468 0.175537 0.679394 -0.745433 -0.0764784 0.662179 
-0.642434 0.121687 0.756618 -0.631225 0.412153 0.657028 -0.0143376 -0.173617 0.984709 
0.00167546 -0.217292 0.976105 0.0702816 -0.188584 0.979539 0.0525838 -0.129851 0.990138 
-0.0839569 0.173103 0.981319 -0.114557 0.614845 0.780284 -0.31474 -0.369882 0.874143 
-0.209184 -0.135212 0.968483 -0.352189 0.128189 0.927109 -0.12916 0.0313772 0.991127 
-0.0953098 0.235605 0.967164 -0.0260466 0.092722 0.995351 -0.0474283 0.104495 0.993394 
-0.120183 0.0048456 0.99274 0.105734 -0.273232 0.956119 0.719468 0.162682 0.675204 
-0.243243 0.348348 0.905255 0.287769 -0.105928 0.951824 -0.211106 0.475166 0.854197 
0.894395 0.315076 0.317466 0.554489 0.737726 0.385099 -0.149319 0.0986875 0.983852 
-0.114843 -0.0552332 0.991847 0.0529505 0.288253 0.956089 -0.0794484 0.422379 0.902931 
0.728249 -0.142632 0.670306 0.799966 0.339967 0.494447 0.550181 0.13857 0.823468 
0.520748 0.467664 0.714221 0.536401 0.629229 0.562446 0.698214 0.586233 0.410887 
0.358156 0.0248864 0.93333 0.357668 0.292615 0.88682 0.0761865 -0.84739 -0.525477 
-0.458981 0.581008 -0.672135 0.362138 0.653205 -0.664966 0.450827 -0.534192 0.715118 
-0.0717508 0.837755 0.541312 0.217421 0.465884 0.857718 -0.35047 -0.606726 0.71348 
0 -0.992278 -0.124035 0 -1 0 -0.447214 -0.894427 0 
0.447214 -0.894427 0 0 1 0 0.021426 0.0363807 -0.999108 
0.144134 0.150592 -0.978032 0.490426 0.0656079 -0.86901 0.399128 0.466801 -0.789173 
0 -0.992278 0.124035 -0.859827 -0.130879 -0.493526 -0.531022 -0.0948024 -0.842038 
-0.723538 0.343976 -0.598476 -0.459388 -0.151525 -0.875216 -0.29523 0.0745495 -0.952513 
-0.0479718 -0.280475 -0.958662 -0.0788831 0.000622918 -0.996884 0.0208403 -0.0991855 -0.994851 
-0.105318 0.218742 -0.970083 0.186908 -0.375068 -0.907959 0.230074 -0.303261 -0.924715 
-0.12338 0.17654 -0.97653 -0.279442 0.142328 -0.949555 -0.153178 0.248755 -0.956377 
0.241338 0.720302 -0.650324 -0.351624 -0.242436 -0.904204 -0.275642 -0.416693 -0.86625 
-0.2963 0.421385 -0.857112 -0.0706927 -0.0601337 -0.995684 0.172572 -0.436045 -0.883223 
-0.109552 0.0306116 -0.99351 -0.187723 0.080676 -0.978903 0.74709 0.112927 -0.65506 
0.690158 0.397809 -0.604508 -0.0585307 0.593467 -0.802727 -0.644839 0.458108 -0.611816 
0.407557 -0.175349 -0.896186 0.438826 -0.221424 -0.870864 0.648522 0.0110809 -0.761116 
0.771523 0.17175 -0.61258 -0.291528 0.472111 -0.831939 0.763547 0.458183 -0.455042 
0.415784 0.751754 -0.511849 -0.209798 -0.444295 -0.870969 -0.430444 -0.55331 -0.713138 
-0.896484 0.309735 -0.31683 0.852727 0.302712 -0.425703 -0.226725 0.608104 -0.760793 
-0.437569 -0.398177 -0.806218 -0.527439 -0.348901 -0.774646 -0.37477 -0.44951 -0.810857 
-0.614555 -0.500456 -0.609808 0.324726 -0.318242 -0.89066 -0.785217 -0.412104 -0.462173 
0.049669 -0.303588 -0.951508 -0.954308 -0.17922 -0.239115 0.371184 -0.407877 -0.834181 
-0.977235 0.126106 -0.170612 0.53318 -0.314498 -0.785372 -0.746905 0.499696 -0.438675 
-0.299509 0.683416 -0.665761 0.804465 0.515293 -0.295481 0.590782 0.799998 -0.104782 
0.41787 0.854558 -0.308407 -0.852876 -0.430317 -0.295685 -0.908611 -0.307649 -0.282451 
0.296768 -0.435553 -0.849837 0.732937 0.0170059 -0.680084 -0.954395 0.292783 -0.0583817 
-0.786101 0.500592 -0.362565 -0.788785 0.614151 -0.0252485 -0.450143 0.799093 -0.398523 
-0.403788 0.82778 -0.389531 0.765861 0.640789 -0.0533563 -0.344771 0.763101 -0.546634 
-0.0594878 0.858329 -0.509639 0.31177 0.936733 -0.159158 -0.404477 -0.531081 -0.744548 
-0.403674 -0.611071 -0.680911 -0.563425 -0.421637 -0.710475 0.204616 -0.403189 -0.891948 
-0.308694 -0.499608 -0.809382 -0.213693 -0.44686 -0.868707 -0.669324 -0.541994 -0.508181 
-0.840915 -0.398693 -0.365932 -0.925718 -0.356128 -0.12735 -0.928151 -0.367539 -0.0587422 
-0.969704 -0.242752 -0.0273055 -0.990594 -0.0936286 -0.0997885 0.519218 -0.261201 -0.813749 
0.610443 -0.234216 -0.756639 -0.979627 0.182522 0.0837614 -0.745075 0.580627 0.328232 
-0.661667 0.749763 0.00724993 -0.53586 0.844307 -6.66681e-05 -0.50825 0.861131 0.011613 
-0.574528 0.81817 -0.0227023 -0.469318 0.830158 -0.300963 -0.50638 0.860681 -0.0529913 
-0.406453 0.829811 -0.382374 -0.498266 0.759752 -0.417741 0.150902 0.967331 -0.203715 
0.506461 0.859995 0.062506 -0.602641 -0.578043 -0.550173 -0.508631 -0.629331 -0.587569 
0.235576 -0.576481 -0.782416 -0.754544 -0.469248 -0.45877 0.273398 -0.487001 -0.829508 
-0.965406 -0.155964 0.208965 -0.982219 -0.0885907 0.165525 0.593473 -0.136369 -0.793217 
0.75767 0.142884 -0.636805 -0.62167 0.71493 0.320003 -0.597168 0.722984 0.347398 
-0.527204 0.831168 0.17668 -0.608433 0.760771 0.225914 -0.544584 0.826553 0.142265 
-0.515453 0.85673 0.0179357 -0.37698 0.892738 -0.24679 -0.33981 0.938231 -0.06521 
-0.424132 0.896871 0.125435 -0.493912 0.865433 -0.0841165 -0.513654 0.846812 -0.138092 
-0.420428 0.884262 -0.203277 -0.3812 0.923993 -0.0303809 -0.441294 0.846372 -0.298183 
-0.226231 0.835361 -0.500991 0.42513 0.878325 0.218655 -0.41529 0.909604 0.0124299 
-0.299382 0.929074 -0.217236 -0.195573 0.980586 0.0142376 -0.72609 -0.507148 -0.46432 
-0.809884 -0.447151 -0.379662 -0.942221 -0.319564 -0.100488 -0.965392 -0.233391 0.116396 
0.826065 0.296314 -0.47939 -0.837702 0.227485 0.496493 -0.78282 0.477168 0.399378 
-0.616609 0.546456 0.566727 0.846343 0.489301 -0.210448 -0.468921 0.700384 0.538122 
-0.360596 0.881794 0.303989 -0.540788 0.793724 0.278478 -0.472996 0.847167 0.242037 
-0.546027 0.833772 -0.0817238 -0.502357 0.85909 0.0979879 -0.527411 0.804566 0.272969 
-0.475594 0.841793 0.25533 -0.29636 0.858276 0.418966 -0.411604 0.86707 0.280662 
0.301744 0.946598 0.113595 -0.255796 0.923496 0.285873 -0.00791932 0.993042 -0.117493 
0.194633 0.937483 0.288519 -0.619102 -0.627541 -0.472128 -0.268058 -0.628971 -0.729754 
-0.753405 -0.555908 -0.351209 0.227151 -0.655554 -0.720174 0.486453 -0.347191 -0.801762 
0.473511 -0.15466 -0.867103 0.644405 0.112836 -0.756314 0.726991 0.304258 -0.615558 
0.798901 0.37308 -0.471771 0.823524 0.487608 -0.289908 -0.625782 0.393806 0.673286 
-0.450247 0.653555 0.608394 -0.573983 0.718855 0.392161 -0.487657 0.812848 0.318542 
-0.373383 0.856672 0.355946 -0.415471 0.875844 0.245523 -0.322325 0.836325 0.443472 
0.558442 0.768886 0.31138 0.174331 0.835465 0.52116 -0.0581875 0.815671 0.575583 
0.0447098 0.93139 0.361268 -0.360259 -0.763123 -0.536522 -0.240377 -0.729945 -0.639843 
-0.046631 -0.671059 -0.739936 -0.901646 -0.423991 -0.0852436 0.283224 -0.564473 -0.775341 
0.687153 -0.248117 -0.682831 0.702106 0.0581371 -0.709695 0.895043 -2.11819e-05 -0.445979 
0.811829 0.110945 -0.573258 0.79277 0.180022 -0.58233 -0.350493 0.909665 0.222856 
-0.363586 0.596996 0.715123 -0.339787 0.761863 0.551462 0.0587531 -0.865069 -0.498201 
-0.726496 -0.659378 -0.193454 0.303349 -0.78541 -0.539546 0.313701 -0.926906 -0.206004 
0.331479 -0.729996 -0.597685 0.566841 -0.491644 -0.661042 0.925689 -0.175232 -0.335253 
-0.755886 0.123026 0.643041 0.937567 0.253309 -0.238335 -0.618657 0.271047 0.737426 
0.899115 0.322308 -0.296159 0.877674 0.457204 -0.14371 -0.0681342 0.690809 0.71982 
-0.458444 -0.888719 -0.00255228 -0.466154 -0.813415 -0.347932 -0.28501 -0.921518 -0.263769 
-0.0826398 -0.965927 -0.245266 -0.031188 -0.874561 -0.483911 0.304108 -0.863835 -0.401631 
0.213233 -0.913475 -0.346547 0.164662 -0.879338 -0.446822 0.263729 -0.946741 -0.184738 
0.383487 -0.875374 -0.294376 0.320122 -0.89614 -0.307336 0.343653 -0.832597 -0.434378 
0.369871 -0.752691 -0.544657 0.504103 -0.838083 -0.20856 0.371016 -0.788051 -0.491246 
0.433881 -0.770906 -0.466317 0.55496 -0.654486 -0.513486 0.851101 -0.296815 -0.433046 
0.923821 -0.0819917 -0.373942 0.876766 0.385951 -0.286921 -0.446107 0.361203 0.818853 
-0.306311 -0.927867 0.212688 -0.0384996 -0.992512 -0.115925 0.128602 -0.97635 -0.173787 
0.565178 -0.776267 -0.279256 0.110262 -0.957064 0.268086 0.435488 -0.900058 0.0156795 
-0.604542 -0.796041 -0.0291107 -0.857028 -0.515222 -0.00700413 0.284537 -0.914619 -0.287248 
0.441958 -0.865459 -0.23591 0.422296 -0.905484 -0.0420184 0.341241 -0.934557 -0.100783 
0.579341 -0.800561 -0.153188 0.658847 -0.749989 0.0586256 0.539624 -0.821043 -0.186264 
0.746495 -0.631722 -0.208982 0.966478 -0.128496 -0.222281 -0.0792659 0.631437 0.771365 
0.26989 -0.95992 0.0755824 0.312013 -0.916886 0.248935 0.245979 -0.94708 0.206235 
0.292843 -0.938436 0.183252 0.332197 -0.913916 0.233244 0.389734 -0.860276 0.328684 
0.657715 -0.708784 0.255021 -0.946729 -0.198376 0.253674 0.484544 -0.827398 0.283952 
0.477095 -0.878457 0.0263362 0.537425 -0.829333 0.152909 0.659439 -0.650735 0.37641 
0.908868 -0.417085 -0.000448897 0.722026 -0.574148 0.386046 0.978167 -0.166596 0.124237 
0.993975 0.100081 0.0447007 0.975256 0.209019 0.0720154 0.717517 0.681544 0.143758 
0.227158 0.754377 0.615885 0.48165 0.728445 0.487219 0.0488672 0.613318 0.788323 
-0.416313 -0.863835 0.283678 -0.129042 -0.873483 0.469441 -0.682693 -0.698282 0.21525 
0.193714 -0.822324 0.535031 -0.785508 -0.186403 0.590111 0.308441 -0.899573 0.309244 
-0.902385 -0.0242701 0.430248 -0.859848 0.0935618 0.501904 0.43557 -0.824366 0.361523 