# vtk DataFile Version 4.2
vtk output
ASCII
DATASET POLYDATA
POINTS 1060 float
383.042 69.0143 75.7192 383.053 69.03 75.7356 383.158 69.007 75.7556 
383.071 69.039 75.7149 383.872 69.5346 75.5156 384.221 69.7063 75.4904 
384.928 70.1481 75.4112 385.399 70.386 75.392 385.191 70.4135 75.4099 
386.334 71.3865 75.3221 386.851 71.7259 75.1223 386.903 71.9118 75.1608 
386.683 71.7545 75.3232 387.608 72.2898 74.9389 387.777 72.2215 74.9969 
387.926 72.6797 74.8233 387.935 72.8258 74.8091 388.132 72.9843 74.7062 
388.293 72.994 74.7776 388.11 72.9329 74.8592 388.141 73.0537 74.6924 
388.21 73.1486 74.6124 388.246 73.188 74.5886 388.219 73.1543 74.6263 
388.246 73.1881 74.5957 383.352 68.6129 76.1963 383.226 68.7306 76.0703 
383.14 68.8621 75.9643 383.11 69.009 75.8444 383.85 69.0584 75.7693 
383.19 69.1057 75.7489 383.431 69.1994 75.664 383.474 69.3193 75.7533 
384.681 69.8374 75.4993 383.693 69.4696 75.6071 384.086 69.7593 75.5559 
384.606 70.0432 75.4754 384.417 70.0325 75.5734 385.933 70.81 75.3579 
385.582 70.8069 75.4687 385.348 70.6986 75.6928 387.975 72.2792 75.0435 
387.4 72.3116 75.3061 388.465 72.6374 75.1796 388.393 72.9424 74.8792 
388.368 73.0135 74.8067 388.391 72.9977 74.8368 388.274 73.0082 74.8208 
388.257 73.1297 74.6651 388.361 72.9952 74.8393 388.262 73.1564 74.6257 
391 76.0087 74.0174 391 76.0087 74.0175 391 76.0088 74.0175 
391 76.0088 74.0175 391 76.0088 74.0175 383.248 68.6224 76.2926 
383.163 68.78 76.205 384.165 69.8755 75.6629 386.381 70.3259 75.6926 
384.894 70.35 75.8551 388.784 72.2134 75.67 389.341 71.8818 76.314 
388.487 72.5876 75.447 388.383 72.8594 75.0219 388.912 72.2729 75.8781 
388.407 72.9151 74.927 389.23 72.0436 76.2078 391 76.0087 74.0175 
383.29 68.62 76.53 383.203 68.7791 76.3216 383.186 68.8692 76.2087 
384.444 69.8266 76.3759 384.54 67.3902 77.9864 383.515 68.1597 77.1086 
383.578 68.1087 77.3327 384.398 69.2916 77.1241 389.484 71.6347 77.2618 
389.753 71.5489 77.0156 389.604 71.7069 77.005 389.431 71.9176 76.6104 
389.916 71.4253 77.3612 384.636 67.1288 78.6053 384.105 67.5294 78.189 
383.857 67.8839 77.8017 383.641 68.1002 77.47 383.554 68.2247 77.2847 
390.004 71.2879 77.8348 385.352 66.6615 79.4716 386.21 66.2337 80.053 
384.899 66.9408 79.0475 385.835 66.8046 79.0073 383.961 67.6405 78.1309 
383.979 67.6102 78.2212 384.267 67.4062 78.5197 389.304 68.6347 78.6469 
390.794 69.3968 79.4086 390.456 70.7629 78.4955 390.171 71.1449 77.9818 
385.64 66.4287 80.0512 385.215 66.7884 79.6099 384.551 67.3002 78.87 
390.474 68.2667 79.96 391.192 69.9146 79.6045 390.939 70.2703 79.276 
391.427 69.8582 79.9057 391.5 69.8673 80.0279 390.652 70.4433 79.2499 
391.415 69.9626 79.956 385.87 66.2643 80.4697 386.177 66.086 80.8621 
385.943 66.2725 80.6563 389.244 65.8546 81.4916 389.685 66.2704 81.2825 
385.695 66.7081 80.3093 390.251 67.2719 80.6403 391.155 67.4036 81.2967 
391.879 68.92 81.1093 390.311 69.6412 80.6034 391.549 69.7365 80.123 
391.609 69.7029 80.2782 391.534 69.8463 80.1473 388.277 64.637 83.1703 
385.867 66.4026 80.5833 391.469 69.1958 81.4527 391.702 69.4624 80.6393 
391.841 69.1903 81.185 392.393 68.567 82.1868 391.524 69.6585 80.5309 
388.508 64.5002 83.6655 388.985 64.4714 83.4613 387.387 65.3216 82.493 
388.251 66.525 82.9245 393.366 67.7941 83.4989 389.943 64.5682 83.6211 
387.788 65.2643 83.1487 388.023 65.3953 83.4328 389.287 66.9824 83.325 
388.682 64.475 84.229 389.457 64.0017 84.9688 393.158 64.4526 85.9475 
394.184 66.5553 85.4539 393.91 67.5721 84.2107 393.929 67.2982 84.4794 
394.048 67.5795 84.3386 394.092 67.5648 84.408 394.017 67.6114 84.326 
393.88 67.6436 84.3013 390.941 63.18 86.4346 391.588 63.0402 86.8523 
389.613 63.9795 85.5201 392.763 63.5723 86.6575 394.27 65.4539 86.1452 
394.006 67.3454 84.7393 394.173 66.8695 85.5401 394.614 66.3415 86.4899 
394.108 67.5627 84.4514 393.77 67.2585 85.0796 390.331 63.4144 86.4961 
390.055 63.6085 86.1985 393.621 63.909 86.9147 394.586 64.7935 86.9955 
395.155 65.148 87.4747 395.428 65.6507 87.6784 394.331 66.4332 86.73 
394.121 67.5352 84.5068 395.265 65.8428 87.5354 391.133 62.9367 87.4765 
392.495 62.7993 87.8626 390.627 63.2268 87.0385 393.129 62.9135 88.0597 
390.525 63.4221 86.9425 390.986 63.7893 87.3869 395.58 65.5905 87.9694 
395.784 65.4012 88.3411 395.418 65.7501 88.1077 390.975 62.989 87.4432 
391.169 62.937 87.6674 391.441 62.8855 87.8589 391.05 63.0016 87.6028 
390.848 63.0873 87.3492 394.315 63.0713 88.8417 390.899 63.3426 87.4495 
396.066 64.8904 88.9006 396.021 65.2012 88.8963 392.861 62.7793 89.1964 
396.145 64.239 89.4465 396.143 64.9573 89.0578 396.125 65.1566 89.7393 
396.265 65.031 89.623 394.488 62.6014 90.6685 393.178 62.9113 89.7653 
396.832 63.7897 90.8695 397.15 63.7573 91.361 397.319 63.7845 91.6825 
395.884 64.6907 90.7306 396.708 64.5171 90.4714 397.171 64.1109 91.4129 
396.495 64.8051 90.4301 394.466 62.6875 91.0661 395.03 62.509 91.5941 
394.234 62.977 90.9361 394.825 63.5852 91.2702 397.36 63.3516 91.963 
397.353 64.0955 91.955 397.562 62.6352 92.9977 397.839 62.9929 93.1168 
397.875 63.6698 92.9752 397.484 64.0008 92.5662 398.453 63.6697 93.9108 
398.469 63.6416 93.9721 397.511 62.0259 94.0659 398.076 62.5536 93.9804 
395.794 62.5985 92.9126 398.195 63.66 93.6238 398.431 63.4313 94.0783 
398.479 63.5423 94.1022 396.116 62.3921 93.3275 396.6 62.2091 93.9694 
398.577 63.0474 94.6398 398.502 63.314 94.4483 398.329 63.4587 94.2185 
398.439 63.5251 94.1478 398.266 61.6132 95.9546 397.083 62.3294 94.7264 
398.214 61.5655 96.3144 399.103 61.9009 96.6347 398.766 62.5893 95.9597 
399.134 61.1806 98.0788 399.015 61.3977 97.2724 398.658 61.369 97.4496 
398.153 61.6588 96.5267 399.22 61.9682 97.0918 399.067 62.1615 96.9193 
398.935 62.1135 97.1163 399.485 61.0413 98.7977 399.802 61.0592 99.1125 
398.8 61.2894 97.8326 398.944 61.241 98.1116 398.844 61.2781 97.9473 
399.221 61.1307 98.6499 399.508 61.5702 98.04 398.46 61.6518 97.1437 
399.695 61.4517 98.7711 399.001 61.7325 97.9158 399.373 61.7163 98.2674 
399.696 60.9336 99.3929 399.194 61.2028 98.6866 399.766 60.9122 99.7608 
399.67 61.0924 99.812 399.815 61.3634 99.3082 399.705 61.4402 99.1757 
399.847 60.8836 99.7706 400.068 60.8275 100.656 400.407 60.863 101.213 
400.046 61.0511 100.704 400.054 61.1706 100.219 400.373 60.9672 101.242 
400.061 61.1253 100.52 400.067 60.8524 100.244 400.293 60.786 101.251 
400.485 60.7932 101.567 400.222 60.9165 101.308 400.391 60.9085 101.791 
400.332 60.997 101.28 400.62 60.7564 102.04 400.666 60.7368 102.232 
400.705 60.7497 102.439 400.355 60.7893 101.663 400.563 60.7547 102.063 
400.521 60.8262 102.308 400.656 60.8323 102.734 400.771 60.816 102.99 
400.53 60.8845 102.179 400.675 60.7354 102.345 400.707 60.767 102.981 
400.85 60.7532 103.205 400.864 60.7777 103.666 400.926 60.7681 103.636 
400.887 60.7898 103.648 400.687 60.8387 102.746 401.084 60.7345 104.587 
401.016 60.7478 104.348 400.972 60.7347 103.918 401.058 60.7437 104.327 
401.113 60.7567 104.854 401.103 60.7534 104.595 401.095 60.7637 104.721 
401.106 60.7618 104.693 401.248 60.7403 105.484 401.2 60.7396 105.171 
401.241 60.748 105.386 401.273 60.7573 105.742 401.263 60.7565 105.556 
401.277 60.7627 105.75 401.271 60.7622 105.665 401.372 60.7578 106.226 
401.367 60.756 106.216 401.396 60.7665 106.397 401.465 60.7856 106.972 
401.413 60.775 106.558 401.439 60.7841 106.81 401.423 60.78 106.669 
401.487 60.7816 107.035 401.496 60.784 107.112 401.552 60.8074 107.583 
401.629 60.8338 108.212 401.588 60.8267 107.937 401.566 60.8182 107.752 
401.586 60.8144 107.829 401.732 60.8852 109.176 401.669 60.8555 108.611 
401.707 60.8838 108.995 401.708 60.8829 109.018 401.875 60.9804 110.757 
401.851 60.9747 110.492 401.829 60.9384 110.177 401.793 60.9269 109.787 
401.785 60.9113 109.71 401.792 60.9456 109.889 401.8 60.9581 110.058 
401.814 60.9545 110.174 401.894 61.0031 110.99 401.909 61.03 111.345 
401.909 61.0226 111.219 401.901 61.0174 111.273 401.846 60.952 110.402 
401.877 60.9826 110.844 401.904 61.0777 111.501 401.877 61.0621 111.182 
401.868 61.034 111.068 401.902 61.034 111.484 401.9 61.0549 111.666 
401.924 61.1436 112.273 401.9 61.0866 111.843 401.931 61.1795 112.167 
401.911 61.1415 112.122 401.954 61.2681 112.763 401.967 61.3203 113.036 
401.905 61.1438 112.755 401.917 61.1409 112.498 401.909 61.0964 112.224 
401.906 61.1232 112.463 401.976 61.3682 113.27 401.962 61.3703 113.477 
401.972 61.3558 113.242 401.983 61.4027 113.412 401.99 61.4104 113.373 
401.869 61.2012 113.574 401.893 61.1982 113.254 401.893 61.1598 113.032 
401.908 61.343 113.914 401.945 61.3633 113.66 401.97 61.3809 113.454 
401.799 61.25 114.43 401.838 61.2464 114.066 401.849 61.2165 113.868 
401.811 61.3226 114.612 401.87 61.2892 114.123 401.87 61.3326 114.24 
401.916 61.3442 113.884 401.704 61.2885 115.248 401.741 61.2866 114.964 
401.763 61.2687 114.807 401.674 61.3226 115.508 401.715 61.3189 115.347 
401.736 61.303 115.188 401.695 61.3288 115.452 401.804 61.321 114.724 
401.602 61.3192 115.972 401.593 61.326 116.014 401.623 61.3241 115.914 
401.49 61.3576 116.645 401.59 61.3387 116.125 401.55 61.3484 116.332 
401.486 61.3494 116.674 401.412 61.367 117.069 401.381 61.3764 117.246 
401.497 61.3475 116.627 401.482 61.3547 116.733 401.427 61.3679 117 
401.293 61.4029 117.684 401.453 61.3645 116.901 401.304 61.4039 117.654 
401.198 61.4333 118.152 401.377 61.3844 117.283 401.189 61.4388 118.24 
401.146 61.4532 118.455 401.121 61.4608 118.556 401.151 61.4513 118.43 
401.135 61.4573 118.513 401.271 61.4044 117.747 401.278 61.404 117.727 
401.352 61.3831 117.379 401.362 61.382 117.367 401.167 61.4389 118.228 
401.341 61.3894 117.478 401.234 61.419 117.964 401.27 61.4056 117.799 
401.102 61.4657 118.619 401.125 61.4597 118.546 401.168 61.4337 118.182 
401.14 61.4436 118.294 401.15 61.4397 118.285 400.997 61.491 118.85 
401.089 61.4611 118.55 401.005 61.4916 118.887 400.488 61.6855 120.414 
[...]
POINT_DATA 1060
SCALARS scalars float
LOOKUP_TABLE default
1 1 1 1 1 1 1 1 1 
1 1 1 1 1 1 1 1 1 
1 1 1 1 1 1 1 1 1 
1 1 1 1 1 1 1 1 1 
1 1 1 1 1 1 1 1 1 
1 1 1 1 1 1 1 1 1 
1 1 1 1 1 1 1 1 1 
1 1 1 1 1 1 1 1 1 
1 1 1 1 1 1 1 1 1 
1 1 1 1 1 1 1 1 1 
1 1 1 1 1 1 1 1 1 
1 1 1 1 1 1 1 1 1 
1 1 1 1 1 1 1 1 1 
1 1 1 1 1 1 1 1 1 
1 1 1 1 1 1 1 1 1 
1 1 1 1 1 1 1 1 1 
1 1 1 1 1 1 1 1 1 
1 1 1 1 1 1 1 1 1 
1 1 1 1 1 1 1 1 1 
1 1 1 1 1 1 1 1 1 
1 1 1 1 1 1 1 1 1 
1 1 1 1 1 1 1 1 1 
1 1 1 1 1 1 1 1 1 
1 1 1 1 1 1 1 1 1 
1 1 1 1 1 1 1 1 1 
1 1 1 1 1 1 1 1 1 
1 1 1 1 1 1 1 1 1 
1 1 1 1 1 1 1 1 1 
1 1 1 1 1 1 1 1 1 
1 1 1 1 1 1 1 1 1 
1 1 1 1 1 1 1 1 1 
1 1 1 1 1 1 1 1 1 
1 1 1 1 1 1 1 1 1 
1 1 1 1 1 1 1 1 1 
1 1 1 1 1 1 1 1 1 
1 1 1 1 1 1 1 1 1 
1 1 1 1 1 1 1 1 1 
1 1 1 1 1 1 1 1 1 
1 1 1 1 1 1 1 1 1 
1 1 1 1 1 1 1 1 1 
1 1 1 1 1 1 1 1 1 
1 1 1 1 1 1 1 1 1 
1 1 1 1 1 1 1 1 1 
1 1 1 1 1 1 1 1 1 
1 1 1 1 1 1 1 1 1 
1 1 1 1 1 1 1 1 1 
1 1 1 1 1 1 1 1 1 
1 1 1 1 1 1 1 1 1 
1 1 1 1 1 1 1 1 1 
1 1 1 1 1 1 1 1 1 
1 1 1 1 1 1 1 1 1 
1 1 1 1 1 1 1 1 1 
1 1 1 1 1 1 1 1 1 
1 1 1 1 1 1 1 1 1 
1 1 1 1 1 1 1 1 1 
1 1 1 1 1 1 1 1 1 
1 1 1 1 1 1 1 1 1 
1 1 1 1 1 1 1 1 1 
1 1 1 1 1 1 1 1 1 
1 1 1 1 1 1 1 1 1 
1 1 1 1 1 1 1 1 1 
1 1 1 1 1 1 1 1 1 
1 1 1 1 1 1 1 1 1 
1 1 1 1 1 1 1 1 1 
1 1 1 1 1 1 1 1 1 
1 1 1 1 1 1 1 1 1 
1 1 1 1 1 1 1 1 1 
1 1 1 1 1 1 1 1 1 
1 1 1 1 1 1 1 1 1 
1 1 1 1 1 1 1 1 1 
1 1 1 1 1 1 1 1 1 
1 1 1 1 1 1 1 1 1 
1 1 1 1 1 1 1 1 1 
1 1 1 1 1 1 1 1 1 
1 1 1 1 1 1 1 1 1 
1 1 1 1 1 1 1 1 1 
1 1 1 1 1 1 1 1 1 
1 1 1 1 1 1 1 1 1 
1 1 1 1 1 1 1 1 1 
1 1 1 1 1 1 1 1 1 
1 1 1 1 1 1 1 1 1 
1 1 1 1 1 1 1 1 1 
1 1 1 1 1 1 1 1 1 
1 1 1 1 1 1 1 1 1 
1 1 1 1 1 1 1 1 1 
1 1 1 1 1 1 1 1 1 
1 1 1 1 1 1 1 1 1 
1 1 1 1 1 1 1 1 1 
1 1 1 1 1 1 1 1 1 
1 1 1 1 1 1 1 1 1 
1 1 1 1 1 1 1 1 1 
1 1 1 1 1 1 1 1 1 
1 1 1 1 1 1 1 1 1 
1 1 1 1 1 1 1 1 1 
1 1 1 1 1 1 1 1 1 
1 1 1 1 1 1 1 1 1 
1 1 1 1 1 1 1 1 1 
1 1 1 1 1 1 1 1 1 
1 1 1 1 1 1 1 1 1 
1 1 1 1 1 1 1 1 1 
1 1 1 1 1 1 1 1 1 
1 1 1 1 1 1 1 1 1 
1 1 1 1 1 1 1 1 1 
1 1 1 1 1 1 1 1 1 
1 1 1 1 1 1 1 1 1 
1 1 1 1 1 1 1 1 1 
1 1 1 1 1 1 1 1 1 
1 1 1 1 1 1 1 1 1 
1 1 1 1 1 1 1 1 1 
1 1 1 1 1 1 1 1 1 
1 1 1 1 1 1 1 1 1 
1 1 1 1 1 1 1 1 1 
1 1 1 1 1 1 1 1 1 
1 1 1 1 1 1 1 1 1 
1 1 1 1 1 1 1 1 1 
1 1 1 1 1 1 1 1 1 
1 1 1 1 1 1 1 1 1 
1 1 1 1 1 1 1 
NORMALS Normals float
-0.886011 0.385517 0.257608 -0.696879 0.698558 0.162408 0.0938078 -0.495328 -0.863626 
-0.57203 0.806322 -0.150423 -0.192101 0.00329997 -0.98137 -0.107045 0.0606852 -0.992401 
-0.0869344 -0.0552371 -0.994681 0.154601 -0.323188 -0.933621 -0.265858 0.313463 -0.911625 
-0.531137 0.401057 -0.746356 -0.204117 -0.0843125 -0.975309 -0.664075 0.625092 -0.410201 
-0.641099 0.712446 -0.285331 0.0534674 -0.267578 -0.962052 0.208662 -0.39018 -0.896783 
0.152992 -0.382584 -0.911166 -0.620352 0.385084 -0.683281 -0.185571 -0.318392 -0.929618 
0.374365 -0.584593 -0.719793 -0.359939 0.778782 0.513754 -0.825399 0.539421 -0.16656 
-0.620849 0.0404894 -0.782884 -0.73653 0.676342 0.00928412 -0.440743 0.767823 0.464965 
-0.0884805 0.922336 0.376122 -0.0922648 -0.79657 -0.597464 -0.256993 -0.761368 -0.595209 
-0.671234 -0.625901 -0.397107 -0.807577 0.406785 0.427019 0.164692 -0.633032 -0.756404 
-0.528043 0.79835 -0.289496 -0.385896 0.129764 -0.91337 -0.639256 0.762268 -0.101484 
0.130485 -0.37529 -0.917677 -0.612252 0.624952 -0.484337 -0.467068 0.581476 -0.666133 
-0.265678 0.245236 -0.932349 -0.537323 0.732783 -0.417508 -0.133057 0.0136465 -0.991014 
-0.484671 0.550865 -0.679443 -0.612202 0.78463 -0.0977987 0.394774 -0.432303 -0.810721 
-0.501813 0.805098 0.31623 0.874403 -0.0448075 -0.483127 0.678663 -0.429328 -0.595898 
0.484618 -0.533243 -0.693395 0.733385 -0.392692 -0.554923 0.106247 0.86761 0.485762 
0.369344 0.732038 0.572456 0.0202296 0.89715 0.441262 0.971807 0.173298 -0.159875 
0 -0.222396 -0.974956 0 -1 0 -0.775537 -0.62746 0.0695381 
0.775537 -0.62746 0.0695381 0 0.529999 -0.847998 -0.761917 -0.633886 -0.132933 
-0.975637 -0.113777 0.187583 -0.619663 0.773839 0.131116 0.328181 -0.565893 -0.756348 
-0.536297 0.817255 0.210904 0.698177 -0.213064 -0.683486 0.711849 -0.244997 -0.658216 
0.281476 0.889654 0.359566 0.308551 0.781454 0.542334 0.763335 0.592618 -0.257144 
0.810947 0.508213 0.289971 0.84561 0.368726 -0.385985 0 -0.329285 0.944231 
-0.756119 0.398693 0.518969 -0.781986 0.362266 0.507208 -0.684909 0.582561 0.437632 
-0.562236 0.723464 0.400614 -0.0990525 -0.879635 -0.465221 -0.803397 -0.595441 0.00204362 
-0.906343 -0.315755 0.280788 -0.546668 0.663445 0.510876 0.1099 0.90368 0.413866 
0.887952 0.315507 -0.334658 0.671117 0.740086 0.043289 0.638262 0.769586 0.0189433 
0.872268 0.438411 -0.216668 -0.612898 -0.789046 0.0419736 -0.590352 -0.795784 -0.134956 
-0.806344 0.230022 0.544884 -0.785493 0.213537 0.580864 -0.731825 0.421969 0.535139 
0.213268 0.903746 0.37116 -0.372633 -0.905135 -0.204635 0.113226 -0.843071 -0.525749 
-0.533143 -0.845357 -0.0336129 0.151814 -0.823315 -0.546905 -0.711996 -0.678648 -0.180276 
-0.86754 -0.404743 0.289061 -0.674262 -0.709661 0.204331 0.480188 -0.651282 -0.587581 
0.739161 -0.408321 -0.535644 0.710513 0.700358 0.068333 0.630531 0.772071 0.0796011 
-0.582116 -0.813105 0.00118117 -0.800206 -0.508761 0.31754 -0.789423 -0.0739754 0.609376 
0.432163 -0.57775 -0.692416 0.852566 0.0822094 -0.516113 0.793063 0.560621 -0.238235 
0.818426 0.0178284 -0.574335 0.874857 0.289868 -0.388075 0.362847 0.8808 0.304192 
0.450348 0.873155 0.186513 -0.703466 -0.690952 0.166492 -0.695739 -0.658025 0.288011 
-0.844979 -0.361958 0.393697 0.309943 -0.74436 -0.591493 0.363919 -0.678235 -0.638404 
-0.846763 -0.0574904 0.528855 0.483138 -0.546942 -0.68369 0.573487 -0.58393 -0.574576 
0.880018 -0.0672854 -0.470151 -0.182211 0.808539 0.559521 0.822555 -0.295783 -0.485712 
0.958776 0.194732 -0.20695 0.718017 0.6809 0.144313 -0.320273 -0.909102 -0.266381 
-0.829409 -0.117047 0.546242 0.0271337 0.79749 0.602722 0.91994 0.391995 -0.00708994 
0.740507 0.662024 0.115647 0.460093 0.861907 0.213145 0.308636 0.859241 0.40798 
-0.471736 -0.881561 -0.0177443 -0.0594326 -0.912013 -0.405832 -0.755485 -0.591222 0.28231 
-0.550529 0.547048 0.6306 0.74104 -0.290255 -0.605484 0.291038 -0.749244 -0.594921 
-0.817156 0.0291479 0.575679 -0.743049 0.203708 0.637481 -0.430231 0.67324 0.601373 
-0.790398 -0.495568 0.360117 -0.511997 -0.858979 -0.00380588 0.511658 -0.605969 -0.609104 
0.874712 -0.0891763 -0.476367 0.661137 -0.37087 -0.652191 0.731746 -0.510824 -0.451229 
0.769329 0.0639612 -0.635643 0.858194 -0.170355 -0.484234 0.717026 0.593598 -0.365396 
0.112984 0.905382 0.409289 -0.0837176 -0.935599 -0.342994 0.0333328 -0.959099 -0.281102 
-0.838654 -0.298339 0.455689 0.376416 -0.73315 -0.566393 0.610229 -0.491995 -0.620936 
0.696152 0.637992 0.32915 0.762824 0.639904 0.0928534 0.726821 0.685527 -0.0422309 
0.385615 0.895249 0.223226 0.128803 0.88499 0.447439 -0.663947 -0.740817 0.101805 
-0.807283 -0.517935 0.28291 0.563884 -0.662339 -0.493297 0.72693 -0.389589 -0.565503 
0.769245 -0.341355 -0.540129 0.852068 0.0719146 -0.518467 0.240662 0.925336 0.292978 
0.823539 -0.490804 -0.284419 0.674365 0.735086 -0.069865 -0.210153 -0.969193 -0.128454 
0.12253 -0.960838 -0.248551 -0.651335 -0.753769 0.0871542 0.396849 -0.847543 -0.352395 
-0.846366 -0.0985005 0.523414 -0.700805 0.251238 0.667647 0.892749 0.284011 -0.349767 
0.866425 0.44567 -0.225137 0.644654 0.764312 -0.0157772 -0.543024 -0.829763 0.128908 
-0.469698 -0.820773 0.325139 -0.279271 -0.941087 0.190693 -0.696177 -0.263112 0.667915 
-0.811002 -0.342927 0.474002 0.407053 -0.809257 -0.423569 -0.720337 0.0757011 0.689481 
0.8646 -0.122864 -0.487207 0.898209 0.315632 -0.305935 -0.152094 -0.984441 0.0879914 
0.75061 -0.427899 -0.503476 0.912212 0.0679861 -0.404039 0.439388 0.885292 0.152303 
0.812829 0.570505 -0.117614 -0.145922 -0.988936 -0.0266789 -0.693054 -0.348807 0.63088 
0.828079 -0.219758 -0.515744 0.746531 -0.283279 -0.602034 0.902357 0.0827482 -0.422971 
-0.303151 0.820551 0.484558 0.914621 0.291691 -0.279975 0.918652 0.233794 -0.318465 
0.788294 0.604586 -0.114316 -0.585124 -0.704076 0.402377 -0.526133 -0.816819 0.236622 
-0.771341 0.0135226 0.636279 -0.663992 0.379364 0.644358 0.721077 -0.453419 -0.523888 
0.766848 0.588974 -0.255056 0.597002 -0.633295 -0.492469 0.907133 -0.148763 -0.393674 
0.915791 0.158202 -0.369187 0.391842 0.917313 0.0706879 -0.367616 0.829559 0.420345 
-0.0485085 0.843552 0.534852 0.262192 -0.919607 -0.292537 0.810363 -0.408832 -0.419725 
-0.747954 0.193378 0.634956 0.86416 0.164609 -0.475533 0.84293 -0.347294 -0.410919 
0.856871 -0.380484 -0.347857 -0.773498 -0.365711 0.517645 -0.8273 -0.153698 0.540326 
0.901632 -0.198085 -0.384477 0.780572 0.598016 0.181891 -0.0296809 0.906747 0.42063 
0.071503 0.82419 0.561782 0.238726 -0.922061 -0.304654 -0.795339 0.23236 0.559861 
-0.432076 -0.900493 0.0492123 0.852754 -0.380776 -0.35752 0.433531 0.853818 0.288175 
0.126631 -0.966995 -0.221102 0.591201 -0.728277 -0.346546 -0.521661 -0.852076 0.0428447 
-0.825692 -0.455511 0.332779 0.854026 0.520108 -0.0112211 0.517244 0.840027 0.163748 
0.032013 0.92271 0.384163 -0.14052 -0.982115 -0.125317 0.758688 -0.555543 -0.340242 
-0.573472 -0.814099 0.0914989 -0.414175 -0.909278 0.040886 -0.847967 -0.427258 0.313693 
-0.714266 -0.671462 0.197388 0.898114 0.414648 -0.146489 -0.846256 0.206229 0.491244 
0.811515 0.574028 -0.109245 -0.58521 0.6721 0.453664 -0.0101993 0.948946 0.315274 
0.107659 -0.975829 -0.190178 -0.897072 -0.181156 0.403045 -0.490016 -0.869421 0.0631773 
-0.919323 0.11454 0.376465 0.501645 0.862379 0.0682278 0.10357 0.970353 0.218376 
0.0182232 -0.995301 -0.0950976 -0.387479 -0.919383 0.0677801 0.967419 -0.0107132 -0.252955 
-0.687162 0.639363 0.344999 0.597453 0.801889 -0.00498748 0.8054 0.577186 -0.134858 
-0.0638384 0.978053 0.198337 0.566179 -0.782315 -0.259662 -0.0266892 -0.998761 -0.042007 
0.378909 -0.909657 -0.170153 -0.916031 0.229641 0.328865 -0.781644 0.552336 0.289756 
0.137803 0.986203 0.0917285 0.959444 0.164569 -0.228874 0.449212 -0.88322 -0.13465 
0.972542 -0.154703 -0.173866 -0.807314 -0.541989 0.233434 -0.200137 -0.979624 0.0167899 
-0.948538 0.159267 0.273698 -0.463784 0.86819 0.176493 0.596374 0.799153 -0.0754498 
-0.395269 0.893561 0.212866 0.251381 -0.966936 -0.0429354 -0.667044 -0.729865 0.149496 
0.981969 0.0259151 -0.187259 -0.836249 0.507475 0.207741 0.786152 0.603188 -0.134648 
0.125401 0.991998 0.0146736 -0.195928 0.972309 0.127387 -0.203842 -0.978086 0.0423784 
-0.872139 -0.456514 0.175978 0.340088 -0.938237 -0.0636576 0.962188 -0.211187 -0.17203 
-0.879522 0.445024 0.168509 0.752995 0.645301 -0.128785 -0.233466 0.970746 0.0560792 
0.365817 0.928874 -0.0580571 -0.144017 -0.988782 0.0396076 0.591264 -0.801171 -0.0923638 
0.980317 0.113262 -0.161708 -0.954615 -0.247009 0.166425 0.623694 0.774283 -0.1072 
-0.501259 0.861912 0.0764709 0.221433 0.974176 -0.0441395 0.739033 -0.666779 -0.0961057 
0.0324633 -0.999307 0.0181952 0.794088 0.593681 -0.130255 -0.674516 -0.728313 0.120783 
0.476237 0.87476 -0.0894096 -0.675413 0.732979 0.0809859 0.174666 0.983326 -0.0506147 
0.280021 -0.959994 -0.000717693 -0.123616 -0.990968 0.0519662 0.566679 0.817511 -0.102714 
-0.678164 -0.726128 0.113272 -0.431925 -0.896609 0.0976341 0.420439 0.903089 -0.0875338 
-0.00577339 -0.999054 0.0431046 0.484374 0.869333 -0.0981943 -0.810236 -0.573789 0.119514 
-0.137603 -0.98747 0.0772552 0.994108 0.0440999 -0.0990191 -0.908419 0.417048 0.0290759 
-0.880934 -0.461927 0.102851 -0.983107 -0.159035 0.0906025 -0.797941 -0.591968 0.113418 
0.492091 0.865396 -0.0945304 -0.291419 -0.9512 0.101455 0.936478 -0.348016 -0.0435151 
0.884745 0.456036 -0.096216 -0.93593 0.350385 0.0355635 -0.840555 0.540874 -0.0303638 
-0.992817 -0.108573 0.0502536 -0.663468 0.747489 -0.0327027 0.521846 0.847991 -0.092675 
-0.377697 0.924967 -0.0421992 -0.93588 -0.344263 0.0749042 0.0512233 -0.993876 0.0979065 
0.996773 0.0580515 -0.0554344 -0.00029829 0.996309 -0.0858447 0.844476 0.53118 -0.0686183 
-0.980362 0.196786 -0.012904 0.998075 0.0546951 -0.0292437 -0.999159 0.0144322 0.0383817 
0.920363 -0.390487 0.0212588 -0.973776 0.227482 0.00343635 -0.908248 0.415983 -0.0452147 
-0.965386 0.257105 -0.0438916 -0.962742 0.26783 -0.0373522 0.192812 0.97766 -0.0836869 
0.99732 -0.0731293 0.00233466 -0.881681 0.46711 -0.0666818 -0.847593 0.527577 -0.0570012 
0.802032 -0.593525 0.0668776 -0.867273 0.496168 -0.0406839 -0.880581 0.470809 -0.0539938 
-0.986967 0.144796 -0.0702178 -0.944252 0.322683 -0.0653015 -0.878034 0.473402 -0.0703269 
-0.526504 0.849671 -0.0292018 -0.432043 0.901669 0.0182123 -0.835979 0.546043 -0.0545497 
-0.993212 -0.0680788 -0.0943101 -0.944799 0.312279 -0.0991825 -0.730183 0.677942 -0.0850103 
-0.354035 0.93436 -0.0403719 0.912869 -0.393959 0.107081 -0.0230875 0.999406 0.025581 
0.146773 0.986199 0.0766102 -0.969408 -0.213883 -0.120425 -0.947263 0.295093 -0.12495 
-0.728792 0.676722 -0.104447 -0.713308 0.689931 -0.123238 0.988976 -0.020268 0.146682 
0.88019 -0.455427 0.133609 0.373777 0.926436 0.0447945 0.952948 0.27692 0.123311 
-0.86695 -0.485478 -0.112733 -0.978282 -0.147672 -0.145456 0.764533 -0.627911 0.14566 
-0.720568 0.677083 -0.149466 0.954521 0.254923 0.154612 0.115411 0.993268 -0.0100047 
-0.934499 0.308208 -0.178101 -0.126199 0.989232 -0.0741268 -0.675815 0.717991 -0.166625 
0.569061 -0.810658 0.137853 0.670555 -0.726431 0.150514 -0.982791 0.0359766 -0.181184 
-0.49926 0.852532 -0.154686 0.960803 0.217461 0.171953 -0.642945 0.74704 -0.168976 
-0.0717201 0.99392 -0.0835456 0.498763 0.864566 0.061333 0.00799251 0.998067 -0.0616332 
0.109239 0.992929 -0.0464567 0.385159 0.921687 0.0463219 0.187901 -0.976593 0.10469 
0.4486 0.890938 0.0706192 -0.666019 0.718529 -0.20034 -0.166936 0.980923 -0.0996139 
0.141799 -0.98693 0.0765623 0.458217 -0.878851 0.132883 -0.0871929 0.991641 -0.0951071 
0.979234 -0.00827348 0.202563 0.440087 -0.88418 0.156679 0.256111 -0.959647 0.116125 
0.360762 0.931855 0.0386922 0.687692 0.70821 0.159743 -0.814019 0.526862 -0.244518 
-0.334553 0.929415 -0.155764 0.102938 -0.989567 0.100797 0.0238692 0.996538 -0.0796408 
0.0495284 -0.994183 0.0956414 0.352611 0.935422 0.0255146 -0.932761 -0.203801 -0.297357 
-0.926341 -0.24588 -0.285368 -0.920799 -0.270502 -0.280992 -0.935217 -0.18876 -0.299564 
0.389659 0.919868 0.0448178 0.256393 0.966571 -0.00193081 -0.925037 -0.248084 -0.287682 
-0.919577 -0.275304 -0.280332 -0.922901 -0.259148 -0.284774 -0.231098 -0.972762 0.0181171 
-0.932988 0.211999 -0.290843 0.16564 -0.976649 0.13682 -0.665464 0.691751 -0.280425 
-0.506601 -0.85992 -0.0623884 0.273226 -0.945113 0.17919 -0.943262 -0.157361 -0.292395 
-0.223788 0.958867 -0.174623 -0.935411 -0.206471 -0.287011 0.513493 0.853726 0.0864658 
-0.917401 -0.286021 -0.276707 0.923976 0.273523 0.267308 0.918456 0.29062 0.268287 
-0.0464276 -0.995434 0.0833991 0.941863 0.172303 0.288454 0.704206 -0.64766 0.290914 
-0.916387 -0.290905 -0.27497 -0.914618 -0.302098 -0.26872 0.917121 0.292054 0.271279 
0.916153 0.292991 0.273532 -0.917517 -0.286939 -0.27537 0.951111 0.0238268 -0.307928 
0.947281 0.0775545 -0.310876 0.950494 0.0309713 -0.309197 -0.949857 0.0471258 0.309113 
-0.948753 0.0929063 0.302054 0.950577 0.00223335 -0.310481 0.950893 -0.0011583 -0.309517 
0.949873 0.0294336 -0.311246 0.916 0.340324 -0.212422 0.926848 0.24567 -0.2839 
0.918969 0.272583 -0.284946 0.950822 0.0196899 -0.30911 0.95136 -0.00322209 -0.308066 
0.951587 -0.000342849 -0.30738 0.952241 -0.000421487 -0.305347 0.919083 0.345208 -0.190046 
0.923795 -0.00286983 -0.382878 -0.56113 -0.825346 0.0627491 0.948504 0.220889 -0.227043 
0.952748 -0.0276672 -0.302498 0.954207 0.00335391 -0.299129 0.95166 0.00220909 -0.307147 
0.951911 0.000578055 -0.306376 0.3075 -0.942446 -0.1313 0.954207 0.00335391 -0.299129 
0.9514 0.00407726 -0.307932 0.953237 -0.0185233 -0.301656 0.94827 0.00288759 -0.317452 
-0.738134 -0.667816 0.095816 0.829583 -0.516909 -0.211179 0.916689 -0.341574 -0.207386 
0.960748 0.206348 -0.185427 0.924635 0.349698 -0.150873 0.958084 -0.0312303 -0.284781 
0.962335 -0.0363449 -0.269427 -0.972165 -0.119462 0.201557 -0.980511 0.0485586 0.190371 
-0.363102 -0.931618 -0.0156223 0.883523 -0.427005 -0.192495 -0.97566 -0.00444028 0.219243 
-0.964396 0.196135 0.1774 0.851636 0.510512 -0.118716 0.980351 -0.0692721 -0.1847 
-0.971603 0.0328486 0.234325 0.899604 0.418842 -0.123626 -0.970447 0.0210256 0.240398 
-0.968888 0.017419 0.246888 0.960166 -0.0284253 -0.27798 -0.957969 0.0180982 0.286301 
-0.809351 -0.5821 0.0781659 -0.987141 -0.0498699 0.151874 0.965698 -0.201263 -0.164077 
0.00645833 -0.997064 -0.0763048 0.580782 -0.805325 -0.118929 -0.852791 0.508096 0.120773 
0.961341 0.240413 -0.134261 0.987546 0.105677 -0.116555 0.515034 0.856048 -0.0438289 
0.956169 -0.0170703 -0.292317 0.960235 -0.0251878 -0.278053 -0.835005 -0.547357 0.0562842 
-0.984959 -0.133736 0.109407 -0.294289 -0.955599 -0.0150118 0.845369 -0.524733 -0.100032 
-0.991215 0.0914208 0.0955824 0.00109143 0.999988 0.00486814 -0.87617 0.478767 0.0557553 
0.959393 0.26494 -0.0968091 -0.306571 0.951828 0.00614565 -0.827896 -0.56038 0.023722 
-0.993641 -0.0883409 0.069817 -0.211632 -0.977021 -0.0253357 0.836705 -0.544006 -0.0631034 
-0.996214 0.0682234 0.0538762 -0.756784 0.653094 0.0273126 -0.877247 0.479513 0.0224877 
0.986014 -0.15536 -0.0603239 -0.867929 0.496413 0.0165295 -0.919146 -0.393917 0.000636911 
-0.963102 -0.268912 0.0110198 0.185131 -0.982093 -0.0349337 0.98532 -0.169709 -0.0185493 
-0.847141 0.531131 -0.0158549 0.970194 -0.241509 -0.0199066 -0.92098 0.389522 -0.00832755 
-0.997581 0.068583 0.0113694 -0.961945 0.272813 -0.0153222 -0.995841 -0.088805 -0.0203595 
-0.991266 -0.129179 -0.0265375 -0.652239 0.757151 0.0361429 0.994983 0.0948378 0.031839 
-0.908231 0.418391 0.00807722 -0.929832 0.367968 -0.00340184 -0.872395 0.487745 -0.0321016 
-0.904358 0.426405 -0.017783 -0.979028 -0.195808 -0.0562408 -0.996029 -0.0698051 -0.0552603 
0.433553 -0.898887 -0.0635212 0.98868 -0.140192 0.0534519 -0.988454 -0.123604 -0.08764 
0.997012 0.0250447 0.0730684 0.989238 -0.141064 0.0388443 -0.981428 0.181629 -0.0617244 
-0.913059 0.407822 -0.00227569 -0.592308 0.799811 0.0973342 0.985908 0.117488 0.119085 
-0.137318 -0.98949 -0.0453184 -0.898037 0.43581 -0.0599865 -0.932503 0.355222 -0.0652364 
-0.721595 -0.684299 -0.105049 0.973249 -0.217143 0.0750678 -0.974948 -0.189043 -0.117212 
-0.967205 0.244967 -0.0671279 0.785039 -0.618802 0.0282303 -0.93725 0.338047 -0.0853593 
-0.846847 0.528902 -0.0557889 0.0922553 0.992997 0.0738006 0.756097 -0.653654 0.0324696 
-0.936342 0.342765 -0.0759953 0.0727287 -0.995229 -0.0650359 -0.910058 0.404058 -0.0923632 
-0.978501 0.175391 -0.108507 0.120255 0.989464 0.0806165 0.791351 -0.609061 0.0529903 
-0.672848 0.738937 -0.0353202 -0.993644 0.00301842 -0.112526 0.837439 0.527087 0.144483 
0.848991 0.507256 0.148005 0.94422 0.294994 0.14638 -0.987703 -0.0543925 -0.146578 
-0.623398 0.779887 -0.0561323 0.948202 -0.295359 0.116947 0.427298 0.898328 0.10209 
0.97481 0.175287 0.137913 -0.749414 -0.643857 -0.154358 -0.896145 -0.414446 -0.158613 
0.661307 -0.747036 0.0679021 -0.961052 -0.217415 -0.170616 -0.746599 0.655249 -0.11506 
0.346526 0.934667 0.0794817 0.968162 0.201843 0.148062 -0.956815 -0.230056 -0.177707 
-0.891471 -0.411841 -0.188855 -0.981237 -0.00206989 -0.192792 -0.190914 -0.979055 -0.0707365 
-0.47627 0.871726 -0.115152 0.945272 -0.293987 0.141536 0.196303 0.979838 0.0371842 
0.77374 0.61973 0.131386 -0.919918 0.311534 -0.238113 -0.39648 -0.911244 -0.111524 
0.735833 -0.670223 0.0967049 -0.674139 0.711901 -0.196809 -0.145802 0.984204 -0.100424 
0.916586 0.366676 0.159431 0.447929 0.892333 0.0556952 0.508574 -0.857808 0.0742883 
0.403098 -0.909304 0.103329 -0.391102 -0.914721 -0.101617 -0.784101 -0.595152 -0.176007 