# vtk DataFile Version 4.2
vtk output
ASCII
DATASET POLYDATA
POINTS 611 float
378.389 78.9112 80.0103 378.482 79.0199 79.9011 378.483 79.064 79.8608 
378.458 79.0305 79.896 378.521 79.111 79.8132 378.521 79.1204 79.8051 
378.536 79.1422 79.7837 378.505 79.101 79.8258 378.522 79.1216 79.8051 
379 83.0087 78.0174 379 83.0087 78.0175 379 83.0088 78.0175 
379 83.0088 78.0175 379 83.0088 78.0175 377.935 78.3161 80.5924 
378.311 78.5272 80.3723 378.206 78.6163 80.2921 378.103 78.5486 80.3847 
378.428 78.8765 80.0386 378.268 78.7515 80.1755 378.38 78.9077 80.0214 
378.524 79.1145 79.8107 378.491 79.0559 79.8698 378 82.0087 79.0174 
378 82.0087 79.0175 378 82.0088 79.0175 378 82.0088 79.0175 
378 82.0088 79.0175 379 83.0087 78.0175 376.53 76.8497 81.791 
376.325 76.8933 81.8346 376.217 77.0105 81.8268 377.537 77.0885 81.4741 
378.342 77.6092 81.2102 376.929 77.7142 81.264 377.456 77.9152 80.9934 
378.34 78.3661 80.5212 378.319 78.209 80.6584 378.354 78.3497 80.5383 
378.357 78.3273 80.5531 378.365 78.3347 80.5484 377.264 78.0381 81.0233 
377.061 77.9222 81.1555 377.128 77.98 81.141 377.496 78.1478 80.8948 
377.854 78.2887 80.6894 377.596 78.1699 80.9065 378.219 78.66 80.2799 
378.35 78.3031 80.5836 382.004 80.0131 80.0087 382.004 80.0132 80.0087 
382.004 80.0132 80.0087 382.004 80.0131 80.0088 377.271 78.0948 81.0272 
377.368 78.1459 80.988 377.371 78.1561 80.9474 377.46 78.19 80.9096 
382.004 80.0132 80.0088 377.408 78.1892 80.9324 378 82.0087 79.0175 
376.786 75.9347 82.4153 376.221 76.7988 81.9745 376.134 77.3522 81.7577 
376.549 77.5279 81.4954 376.496 77.5295 81.602 378.668 77.0289 81.727 
378.957 76.7419 82.0266 375.909 77.237 81.9134 376.009 77.3116 81.8624 
376.867 77.7507 81.3604 376.983 77.84 81.2102 378.246 77.4891 81.5039 
378.211 78.0076 80.9259 378.744 77.024 81.8522 378.322 78.1387 80.7424 
378.353 78.2808 80.5984 382.004 80.0131 80.0088 377.456 78.1757 80.9445 
376.336 76.3558 82.4277 376.133 76.6862 82.175 379.86 75.8556 83.0266 
379.705 76.2175 82.6441 379.548 76.3744 82.4738 379.699 76.3595 82.5111 
379.742 76.3425 82.5322 379.19 76.6227 82.2256 379.445 76.4407 82.4547 
379.642 76.3598 82.5196 375.884 77.2008 82.0153 376.244 77.37 81.8872 
376.358 77.3591 81.9127 376.11 77.2906 81.9875 377.247 77.9257 81.2514 
377.732 74.8259 83.669 376.671 75.9386 82.8176 379.848 75.03 83.8288 
379.764 75.4112 83.397 380.237 75.4315 83.5082 380.082 75.4432 83.4552 
380.428 75.2425 83.7274 380.551 75.0661 83.9313 375.828 76.8279 82.354 
379.676 76.2364 82.6617 379.712 75.9717 82.9741 380.078 75.5582 83.3883 
379.735 76.3023 82.5748 375.749 77.0327 82.1791 376.441 77.0262 82.2533 
372.339 79.0089 83.6534 372.339 79.0088 83.6534 372.339 79.0089 83.6534 
372.339 79.0088 83.6534 372.339 79.0088 83.6534 378.407 73.9196 84.7364 
377.888 74.5173 84.0772 377.918 74.4473 84.2761 380.463 74.2836 84.7935 
376.926 75.6311 83.1406 377.272 75.2978 83.5119 380.204 74.7123 84.2338 
380.548 74.4609 84.5887 380.493 74.6654 84.3449 380.711 74.4984 84.5727 
376.111 76.5665 82.5406 376.566 76.1517 82.8426 379.763 75.4282 83.5125 
379.676 75.2525 83.7706 380.018 74.88 84.1383 380.412 74.678 84.3631 
380.056 75.4023 83.5307 380.435 75.009 83.9828 380.715 74.7873 84.2575 
375.818 76.7589 82.4605 375.723 76.8035 82.4425 376.409 76.5679 82.6256 
377.035 76.0687 83.078 375.734 76.8175 82.4231 375.961 76.8585 82.3811 
375.811 76.8105 82.4312 372.34 79.0087 83.6536 372.339 79.0088 83.6535 
372.34 79.0087 83.6536 372.339 79.0087 83.6534 372.34 79.0086 83.6536 
372.339 79.0088 83.6535 372.34 79.0087 83.6535 378.841 73.5044 85.3275 
379.599 73.0387 85.8621 378.013 74.3857 84.4731 380.688 74.1317 84.9818 
380.946 73.9281 85.2599 380.604 74.1597 85.0346 380.474 74.4811 84.5975 
380.677 74.3652 84.7472 380.862 74.3584 84.7609 380.838 74.5625 84.524 
374 76.3581 85.6694 374 76.3581 85.6694 374 76.3582 85.6694 
374 76.3582 85.6694 375.835 76.7678 82.4732 374 76.3582 85.6694 
373.004 78.0131 85.0087 373.004 78.0132 85.0087 373.004 78.0132 85.0087 
373.004 78.0131 85.0088 372.34 79.0087 83.6536 372.34 79.0086 83.6536 
373.004 78.0132 85.0088 379.827 72.6953 86.3402 379.767 72.7411 86.34 
381.492 72.7356 86.8485 378.556 73.7824 85.1639 381.199 73.2494 86.1264 
381.074 73.6118 85.6904 380.947 73.9884 85.2365 385 74.0087 86.0174 
385 74.0087 86.0175 385 74.0088 86.0175 385 74.0088 86.0175 
380.828 74.3492 84.7901 380.858 74.4644 84.6435 385 74.0088 86.0175 
374 76.3582 85.6694 374 76.3582 85.6694 374 76.3583 85.6696 
374 76.3583 85.6696 374 76.3583 85.6696 374 76.3583 85.6696 
373.004 78.0131 85.0088 374 76.3584 85.6696 379.976 72.5907 86.521 
379.245 73.2286 85.9294 379.765 72.7419 86.5297 380.24 72.2872 87.0745 
382.115 72.125 87.7941 379.843 72.8379 86.6391 381.202 73.2846 86.1719 
381.36 72.9368 86.7316 381.878 72.3919 87.5067 382.975 71.8451 88.562 
383.231 71.8045 88.6739 378.807 73.7032 85.481 378.587 73.8328 85.245 
380.568 73.2315 86.4286 383.306 71.7846 88.7399 385 74.0087 86.0175 
374 76.3583 85.6696 374 76.3584 85.6696 380.276 72.2757 87.3297 
382.611 71.9012 88.313 382.736 71.8519 88.5416 383.35 71.7563 88.7753 
383.365 71.7136 88.8319 383.353 71.7382 88.8213 382.292 70.4638 89.6688 
382.638 71.0377 89.1311 380.901 71.4357 88.4579 381.245 72.037 88.1119 
383.36 71.6689 88.9044 382.278 69.9774 90.3947 381.322 70.8805 89.1821 
381.369 70.7816 89.3973 381.205 71.0095 89.1111 382.263 70.9682 89.7821 
382.432 70.8705 89.9236 382.988 71.1109 89.3262 382.927 70.8455 89.6625 
380.798 71.6871 88.2851 381.067 71.3081 88.8364 383.058 71.1531 89.4105 
383.218 71.4147 89.1478 383.316 71.5679 89.0042 383.324 71.6132 88.9857 
382.579 69.9444 90.5521 381.775 70.3392 90.1312 381.446 70.6755 89.6619 
381.425 70.675 89.8046 381.299 70.8677 89.4942 381.346 70.7655 89.6876 
381.326 70.7977 89.6473 382.55 70.7708 90.0524 382.654 70.687 90.1306 
382.905 70.7818 89.8832 381.355 70.9497 89.4723 382.946 71.2055 89.4506 
383.148 71.351 89.2618 382.465 69.7781 90.8354 382.779 69.8443 90.8799 
381.996 70.1221 90.5581 381.599 70.5214 90.0821 381.827 70.4351 90.2307 
382.833 70.2809 90.4683 382.862 70.0375 90.7189 381.391 70.757 89.7343 
382.665 70.3627 90.4924 382.714 69.648 91.1668 382.796 69.6792 91.1594 
382.208 69.8482 90.8659 382.317 69.7659 90.9766 382.432 69.7099 91.0663 
382.818 69.7646 91.0675 382.281 69.81 90.9841 382.15 69.9266 90.8134 
382.392 69.7363 91.0842 382.847 69.95 90.7961 382.828 69.9088 90.9184 
381.536 70.5628 90.0326 382.775 69.6273 91.2245 382.527 69.6851 91.184 
382.772 69.6243 91.274 382.815 69.7025 91.2058 382.233 69.8894 90.9283 
382.388 69.8074 91.0723 382.555 69.7166 91.2257 382.66 69.6427 91.3123 
382.798 69.6208 91.3417 382.749 69.6061 91.3562 382.805 69.6598 91.3257 
382.741 69.6263 91.3784 382.787 69.6112 91.3878 382.782 69.6366 91.3796 
382.392 69.6935 364.642 382.352 69.7218 364.683 382.416 69.6879 364.641 
382.398 69.6838 364.65 382.41 69.6968 364.676 382.321 69.7694 364.738 
382.406 69.7278 364.68 382.417 69.7339 364.717 382.312 69.8429 364.819 
382.405 69.8074 364.799 382.28 69.7813 364.796 382.212 69.8522 364.897 
382.145 69.9563 365.037 382.404 69.8403 364.897 382.394 69.9169 364.967 
382.287 70.0843 365.145 382.154 69.8935 365.014 382.125 69.9284 365.17 
381.981 70.0819 365.287 381.951 70.0605 365.347 382.382 69.9332 365.083 
382.336 69.9739 365.209 381.667 70.3543 365.723 381.628 70.4024 365.787 
381.776 70.2922 365.594 381.705 70.3276 365.734 382.384 70.0159 365.153 
382.344 70.3362 365.619 382.172 70.0452 365.466 382.375 70.6248 366.068 
382.376 70.7118 366.265 382.363 70.9236 366.366 382.104 70.1136 365.613 
382.376 70.8631 366.512 381.333 71.1301 366.892 382.114 70.9341 366.198 
382.349 71.1513 366.675 382.404 71.2119 366.873 382.387 71.5059 367.308 
382.02 70.4537 366.215 381.44 70.9412 366.895 381.3 71.0912 367.014 
382.403 71.2804 367.062 382.369 71.427 367.325 381.207 71.784 367.665 
382.313 71.8012 367.658 382.344 71.7755 367.741 382.338 71.9038 367.856 
382.352 71.9054 367.893 382.3 72.0009 368.019 381.875 70.6159 366.481 
381.431 71.1196 367.254 381.853 70.9782 367.043 380.971 71.5867 367.813 
380.475 72.2476 368.702 382.314 71.9339 367.972 382.243 72.0417 368.137 
380.825 71.8145 368.402 380.706 71.9282 368.546 380.552 72.0711 368.633 
381.187 71.6341 368.104 380.074 72.5958 369.318 379.103 73.595 370.588 
381.634 72.649 368.842 375 76.0087 369.017 375 76.0087 369.017 
375 76.0088 369.017 375 76.0088 369.017 375 76.0088 369.017 
380.744 72.1264 368.896 378.972 73.5596 370.709 381.802 72.5245 368.909 
381.534 72.9361 369.443 378.301 74.104 371.43 378.146 74.3315 371.64 
379.864 73.6915 370.368 380.542 73.5656 370.128 381.222 73.3077 369.823 
381.337 73.4062 370.062 381.357 73.3436 370.077 381.312 73.5637 370.332 
375 76.0087 369.018 379.075 73.4726 370.743 378.137 74.265 371.666 
378.699 73.7477 371.054 381.293 73.1061 369.882 377.908 74.5562 371.952 
381.221 73.4826 370.348 381.301 73.5412 370.36 381.254 73.6037 370.469 
377.898 74.7647 372.036 380.299 74.158 371.043 381.239 73.6873 370.541 
381.221 73.7369 370.549 379.18 74.5266 371.464 381.068 73.8926 370.755 
378.277 74.2667 371.827 377.953 74.4904 371.985 377.528 74.9672 372.443 
377.296 75.3227 372.665 377.1 75.3945 372.853 376.93 75.6029 372.999 
379.66 74.5399 371.651 379.97 74.3467 371.393 379.933 74.48 371.618 
381.099 73.8217 370.741 381.155 73.818 370.691 381.028 73.9192 370.835 
376.657 75.9027 373.28 380.473 74.2995 371.283 380.821 74.0607 371.004 
375.997 76.5008 373.802 376.059 76.431 373.751 375.973 76.511 373.839 
376.759 76.0402 373.311 378.814 75.3377 372.44 375.994 76.5793 373.878 
378.704 74.0488 371.608 377.752 74.7765 372.389 379.72 74.3441 371.603 
379.384 74.7146 372.068 380.25 74.1096 371.268 377.096 75.396 372.975 
379.638 74.7395 371.975 379.649 74.7465 371.869 379.982 74.5666 371.744 
380.452 74.2542 371.32 379.906 74.8193 371.984 380.875 73.9702 370.948 
[...]
POINT_DATA 611
SCALARS scalars float
LOOKUP_TABLE default
1 1 1 1 1 1 1 1 1 
1 1 1 1 1 1 1 1 1 
1 1 1 1 1 1 1 1 1 
1 1 1 1 1 1 1 1 1 
1 1 1 1 1 1 1 1 1 
1 1 1 1 1 1 1 1 1 
1 1 1 1 1 1 1 1 1 
1 1 1 1 1 1 1 1 1 
1 1 1 1 1 1 1 1 1 
1 1 1 1 1 1 1 1 1 
1 1 1 1 1 1 1 1 1 
1 1 1 1 1 1 1 1 1 
1 1 1 1 1 1 1 1 1 
1 1 1 1 1 1 1 1 1 
1 1 1 1 1 1 1 1 1 
1 1 1 1 1 1 1 1 1 
1 1 1 1 1 1 1 1 1 
1 1 1 1 1 1 1 1 1 
1 1 1 1 1 1 1 1 1 
1 1 1 1 1 1 1 1 1 
1 1 1 1 1 1 1 1 1 
1 1 1 1 1 1 1 1 1 
1 1 1 1 1 1 1 1 1 
1 1 1 1 1 1 1 1 1 
1 1 1 1 1 1 1 1 1 
1 1 1 1 1 1 1 1 1 
1 1 1 1 1 1 1 1 1 
1 1 1 1 1 1 1 1 1 
1 1 1 1 1 1 1 1 1 
1 1 1 1 1 1 1 1 1 
1 1 1 1 1 1 1 1 1 
1 1 1 1 1 1 1 1 1 
1 1 1 1 1 1 1 1 1 
1 1 1 1 1 1 1 1 1 
1 1 1 1 1 1 1 1 1 
1 1 1 1 1 1 1 1 1 
1 1 1 1 1 1 1 1 1 
1 1 1 1 1 1 1 1 1 
1 1 1 1 1 1 1 1 1 
1 1 1 1 1 1 1 1 1 
1 1 1 1 1 1 1 1 1 
1 1 1 1 1 1 1 1 1 
1 1 1 1 1 1 1 1 1 
1 1 1 1 1 1 1 1 1 
1 1 1 1 1 1 1 1 1 
1 1 1 1 1 1 1 1 1 
1 1 1 1 1 1 1 1 1 
1 1 1 1 1 1 1 1 1 
1 1 1 1 1 1 1 1 1 
1 1 1 1 1 1 1 1 1 
1 1 1 1 1 1 1 1 1 
1 1 1 1 1 1 1 1 1 
1 1 1 1 1 1 1 1 1 
1 1 1 1 1 1 1 1 1 
1 1 1 1 1 1 1 1 1 
1 1 1 1 1 1 1 1 1 
1 1 1 1 1 1 1 1 1 
1 1 1 1 1 1 1 1 1 
1 1 1 1 1 1 1 1 1 
1 1 1 1 1 1 1 1 1 
1 1 1 1 1 1 1 1 1 
1 1 1 1 1 1 1 1 1 
1 1 1 1 1 1 1 1 1 
1 1 1 1 1 1 1 1 1 
1 1 1 1 1 1 1 1 1 
1 1 1 1 1 1 1 1 1 
1 1 1 1 1 1 1 1 1 
1 1 1 1 1 1 1 1 
NORMALS Normals float
-0.395107 -0.498215 -0.771798 0.0154043 -0.696841 -0.71706 -0.324892 -0.549462 -0.769764 
-0.585902 -0.353688 -0.729126 0.175351 -0.720795 -0.670602 -0.587222 -0.308641 -0.748273 
0.18654 -0.720696 -0.667683 -0.797125 0.603744 0.00918653 -0.231976 0.780307 0.580783 
0 -0.222396 -0.974956 0 -1 0 -0.775537 -0.62746 0.0695381 
0.775537 -0.62746 0.0695381 0 0.529999 -0.847998 -0.42023 -0.3989 -0.815037 
0.00118624 -0.678504 -0.734596 -0.244082 -0.578204 -0.778527 -0.835193 0.236401 -0.496555 
-0.0515198 -0.677869 -0.733376 -0.87091 0.185707 -0.455004 -0.34407 0.778762 0.524543 
0.455263 -0.714299 -0.53152 0.194833 0.64292 0.740739 0 -0.222396 -0.974956 
0 -1 0 -0.775537 -0.62746 0.0695381 0.775537 -0.62746 0.0695381 
0 0.529999 -0.847998 0 -0.329285 0.944231 -0.284238 -0.542641 -0.790411 
-0.355439 -0.50642 -0.785622 -0.465059 -0.397558 -0.790991 0.0222832 -0.630299 -0.776032 
0.974356 0.193253 -0.115258 -0.449843 -0.209364 -0.868221 -0.352517 -0.347479 -0.868902 
0.153266 -0.608159 -0.778878 0.205355 -0.648917 -0.732623 0.208661 -0.521207 -0.827529 
0.1688 -0.622042 -0.764572 0.129436 -0.626896 -0.768276 -0.539304 -0.0282155 -0.841638 
-0.73018 0.525575 -0.436586 -0.604023 0.796941 0.00641303 -0.369336 0.0978644 -0.924129 
-0.402748 0.886825 0.226575 0.1317 0.865022 0.484141 -0.183759 0.784385 0.592429 
0.268307 0.642403 0.717865 0.0761865 -0.84739 -0.525477 -0.458981 0.581008 -0.672135 
0.362138 0.653205 -0.664966 0.450827 -0.534192 0.715118 -0.607012 0.794108 -0.0304829 
-0.137624 0.815299 0.562447 -0.632438 0.352802 -0.689604 -0.15294 0.732575 -0.663282 
-0.0717508 0.837755 0.541312 -0.313857 0.944741 0.0946467 0 -0.329285 0.944231 
-0.453823 -0.741196 -0.494645 -0.451734 -0.615892 -0.645456 -0.617372 0.366061 -0.696313 
-0.618147 0.347427 -0.705117 -0.269587 0.947158 0.173824 0.586271 -0.277944 -0.760943 
0.501224 -0.368034 -0.783151 -0.790764 0.322756 -0.520117 -0.467013 0.882649 0.0532004 
-0.493957 0.835988 0.239021 -0.702467 0.112463 -0.702774 0.258996 0.689771 0.676119 
0.332627 0.687579 0.645441 0.479618 0.773049 0.415165 0.708223 0.457276 0.537885 
0.302259 -0.69153 -0.656068 -0.35047 -0.606726 0.71348 0.15615 0.796065 0.584721 
-0.580129 -0.70069 -0.415312 -0.626875 -0.619618 -0.472337 0.152554 -0.663077 -0.732841 
0.489019 -0.622223 -0.611309 0.0397441 -0.702559 -0.710515 0.130408 -0.621664 -0.772352 
0.31055 -0.664006 -0.680187 0.205758 -0.621061 -0.756271 0.268232 0.904348 0.331975 
0.175423 0.933543 0.312609 -0.392657 0.802305 0.449586 -0.117856 0.850767 0.512158 
0.111813 0.7871 0.606606 -0.166909 0.805944 0.567975 -0.03898 0.738453 0.673177 
-0.0527817 -0.769809 -0.636089 -0.768478 -0.637169 0.0587884 0.943323 0.185438 -0.275235 
0.311075 -0.792559 -0.524483 0.20219 -0.649214 -0.733239 0.110554 -0.750268 -0.651825 
0.0549743 -0.71561 -0.696333 0.113929 0.783575 0.610763 -0.303885 -0.720656 -0.623144 
0.322178 0.70313 0.633885 0.162499 0.746491 0.645249 0.123461 0.784912 0.607183 
0.833975 0.228971 0.502054 -0.996302 0.0741939 -0.043325 0.0288245 0.709482 0.704134 
-0.381615 -0.887887 0.256958 -0.304149 -0.941165 0.147313 -0.200371 -0.952996 -0.227268 
-0.386051 -0.760051 0.522768 0.309094 0.935885 -0.169057 -0.381583 -0.83576 -0.394841 
-0.640282 -0.725983 -0.250973 -0.823027 -0.552834 0.130387 0.0693881 -0.773415 -0.630091 
-0.820766 -0.545207 0.170567 -0.725838 0.0304075 0.687193 0.112507 -0.751826 -0.649692 
0.0354721 -0.812465 -0.581929 0.0345449 -0.740203 -0.671496 0.00789157 -0.756881 -0.653505 
-0.720307 -0.658843 0.216987 -0.657 -0.0177832 0.753681 0.585313 0.607939 0.536488 
0.325624 0.749453 0.576446 0.470019 0.842302 0.263835 0.449169 0.717087 -0.532947 
-0.0555444 -0.956842 -0.28525 -0.144684 -0.760462 -0.633059 0.130223 -0.723998 -0.677398 
-0.511813 -0.836419 0.196089 -0.731867 -0.251568 0.633312 -0.100678 0.497044 0.861865 
-0.257698 0.559576 0.787697 -0.42441 -0.609417 -0.669692 -0.0981433 0.737639 0.668024 
-0.0273861 0.866191 0.498962 -0.313982 -0.916485 0.247932 0 0 0 
-0.294978 -0.941728 0.161666 -0.269371 -0.961102 0.0610184 -0.242536 -0.970143 0 
0.268703 0.95866 -0.0936453 0.290687 0.943791 -0.157349 -0.531222 -0.828959 -0.175018 
-0.042206 -0.811573 -0.582724 -0.817748 -0.0444383 0.573859 -0.096441 -0.75337 -0.650487 
0.598733 -0.55539 -0.577114 0.0946194 0.866235 0.490595 -0.0477864 0.724075 0.688064 
-0.339415 -0.769347 -0.541205 0.726948 -0.463223 -0.506923 0.207808 -0.725046 -0.6566 
0.00941615 0.613889 -0.789336 0 0.707107 -0.707107 -0.0284367 0.698865 -0.714688 
-0.00168304 -0.713806 0.700342 -0.201933 0.247019 0.947737 0.0216429 0.643753 -0.764927 
0.0761865 -0.84739 -0.525477 -0.458981 0.581008 -0.672135 0.362138 0.653205 -0.664966 
0.450827 -0.534192 0.715118 0.310329 0.906087 -0.287579 0.013603 -0.414226 -0.910072 
-0.0717508 0.837755 0.541312 -0.21877 -0.878476 -0.424759 -0.530009 -0.829441 -0.176404 
0.674341 -0.403714 -0.618287 -0.820144 -0.493575 0.289393 0.478003 -0.59161 -0.649238 
0.784061 -0.362722 -0.503668 0.608263 0.697505 0.378818 0 -0.176557 -0.98429 
0 -0.997331 -0.0730187 -0.838894 -0.543202 -0.0344886 0.838894 -0.543202 -0.0344886 
0.090828 0.771346 0.629901 0.207794 0.747697 0.630691 0 0.6 -0.8 
-0.00399127 -0.712821 0.701335 0 -0.707107 0.707107 0.0260728 -0.666947 0.744648 
-0.0244528 0.730847 -0.682104 -0.0489034 0.775825 -0.62905 0.133388 0.695159 -0.706372 
-0.35047 -0.606726 0.71348 0.0640811 0.807593 -0.586249 -0.157438 -0.904758 -0.395761 
-0.811869 -0.30123 0.500129 -0.82334 -0.487419 0.290749 -0.470751 -0.842343 -0.262396 
0.659234 -0.322066 -0.679473 -0.685145 0.264945 0.678513 0.817081 0.56165 0.130107 
0.452671 0.824716 0.339016 0.711076 0.700964 -0.054967 -0.0113652 0.93518 0.353991 
0.571462 -0.228705 -0.788115 -0.586947 0.307551 0.748937 -0.772494 -0.019754 0.634714 
0.00870655 0.800875 0.598768 0.127144 0.948504 0.290127 0 -0.335627 0.941995 
-0.00573245 -0.699593 0.714518 0.0192046 -0.543411 0.839247 -0.901622 -0.236436 0.362183 
0.377236 -0.596571 -0.708375 -0.0709995 0.860085 0.505186 0.782058 -0.0318173 -0.622393 
0.814397 0.515635 0.266228 0.456741 0.774373 0.437873 0.162194 -0.768769 -0.618617 
0.359819 -0.722134 -0.590807 -0.884306 -0.443121 0.147129 -0.0643318 0.81918 0.569917 
0.9743 -0.167642 0.150453 -0.0574237 -0.892444 -0.447488 -0.384987 -0.860714 -0.3331 
-0.411927 -0.87057 -0.269115 -0.845467 -0.533545 0.0227045 -0.153 0.763603 0.627297 
0.0650825 0.816967 0.572999 0.532313 -0.682509 -0.500823 0.844121 -0.476761 -0.245272 
-0.627692 0.407549 0.663255 -0.90577 0.0223253 0.42318 0.939881 -0.151251 0.306181 
0.829557 -0.553123 -0.0767511 0.932462 -0.299474 0.202066 0.447553 0.566012 0.692334 
0.370259 -0.802263 -0.468275 -0.726107 -0.676333 0.123867 -0.526561 -0.823958 -0.20935 
-0.83097 -0.544364 0.114707 -0.926928 -0.365893 0.0832274 -0.912322 -0.255604 0.3199 
-0.784846 0.378996 0.490284 0.19265 0.826687 0.528654 0.337879 0.752135 0.565802 
0.79054 0.363853 0.492603 -0.449592 0.695503 0.560485 0.152136 0.742013 0.652895 
0.662308 0.263386 0.70141 -0.111957 -0.93062 -0.348442 0.666203 -0.643185 -0.377474 
-0.890386 -0.10735 0.442368 -0.533185 0.140652 0.834225 -0.603275 0.307495 0.735871 
0.344408 -0.653715 -0.673824 0.997643 -0.063443 -0.0261284 -0.525752 0.553432 0.645986 
0.134758 0.750096 0.647454 0.0136182 -0.942944 -0.332672 0.667084 -0.668735 -0.328318 
-0.721558 -0.691387 0.0365914 -0.527686 -0.849439 -0.00085938 -0.175068 -0.980975 -0.0838951 
0.884602 -0.397037 -0.244625 -0.789245 -0.267581 0.552715 -0.870573 -0.22225 0.438984 
-0.683283 -0.506878 0.525547 0.834934 -0.482881 -0.264029 0.970423 0.135262 0.199959 
-0.772416 0.0407514 0.633808 0.398247 -0.883003 -0.248406 -0.643828 -0.567818 0.512902 
0.481599 -0.862927 -0.153031 0.950071 -0.303329 -0.0731843 -0.544302 0.427826 0.721596 
-0.440254 0.45778 0.772408 -0.613477 0.134388 0.778194 -0.642082 -0.501311 0.580015 
0.744607 -0.662653 -0.0803203 -0.196165 -0.976254 0.091913 0.900058 0.284062 0.33046 
-0.416627 0.10095 0.903455 0.548614 -0.41147 0.727815 0.189103 0.638677 0.745877 
-0.288622 0.363985 -0.885558 -0.820813 -0.205009 -0.533139 0.809717 -0.325789 -0.488078 
-0.384521 -0.92304 -0.011893 0.498377 -0.768278 0.401708 -0.530676 0.486775 -0.693854 
0.305866 0.763256 -0.56911 0.998178 0.0573385 -0.0187671 -0.160578 0.770912 -0.616368 
0.785743 0.536051 -0.308638 -0.849662 -0.428441 -0.307429 -0.781993 0.201023 -0.589981 
-0.604868 0.497272 -0.621977 0.946473 -0.246985 0.207816 0.729319 0.595347 -0.337129 
0.111104 0.796562 -0.59426 -0.842612 -0.477439 -0.249112 -0.201857 -0.926074 0.318811 
-0.617267 0.447156 -0.647328 -0.669532 -0.741502 0.0436001 0.806635 -0.459557 0.371681 
0.617518 -0.658702 0.429864 -0.806526 -0.527122 -0.267691 -0.946904 -0.124941 -0.296246 
-0.6977 0.256825 -0.668772 -0.615381 -0.775863 0.139079 0.969379 -0.144951 0.198226 
0.933013 0.296277 -0.204221 0.0659241 -0.89762 0.435812 0.997708 0.0386768 -0.0555236 
0.890034 -0.394666 0.228205 0.785902 0.494942 -0.370663 0.0980809 -0.864008 0.493833 
0.734605 -0.559867 0.383281 -0.815733 0.281517 -0.5053 0.0549937 0.798864 -0.598993 
0.709295 0.588243 -0.38842 0.972404 0.188195 -0.13789 0.958104 0.26651 -0.104923 
-0.105654 -0.891896 0.439726 -0.510014 -0.82879 0.230203 -0.852728 -0.517509 -0.0709936 
0.960855 -0.212903 0.177286 0.53538 -0.645749 0.544405 -0.421638 0.635627 -0.646684 
0.524075 0.731104 -0.436844 0.94881 -0.236914 0.208879 0.720592 0.591673 -0.361484 
0.988415 0.0842963 0.126216 0.853335 0.518079 0.0584267 0.0226855 -0.856098 0.516316 
-0.103317 -0.839447 0.53353 0.221785 -0.772296 0.59529 -0.683308 -0.720773 0.11652 
-0.888946 -0.169752 -0.425392 0.667746 -0.487651 0.562417 0.622399 -0.494817 0.606445 
-0.343282 -0.87413 0.34359 -0.251746 -0.837972 0.484176 -0.783562 -0.61938 -0.0489858 
0.089039 -0.822427 0.56186 -0.856382 -0.262302 -0.444756 -0.485596 0.433717 -0.759003 
0.138258 0.847982 -0.511675 0 -0.992278 -0.124035 0 -1 0 
-0.447214 -0.894427 0 0.447214 -0.894427 0 0 1 0 
-0.0378092 -0.823629 0.565867 -0.807377 -0.413308 -0.421092 0.641221 -0.445751 0.624613 
0.92325 0.363815 0.12348 -0.766491 -0.0706266 -0.638359 -0.676734 0.197178 -0.709332 
-0.101038 0.714384 -0.692421 -0.0339792 0.763751 -0.644616 0.289496 0.83524 -0.46751 
0.68125 0.663388 -0.30954 0.874111 -0.288167 0.391012 0.959734 0.274414 0.0600647 
0 -0.992278 0.124035 -0.226736 -0.867172 0.443399 -0.639702 -0.76175 0.102557 
-0.586015 -0.805838 0.0849195 0.476033 -0.629674 0.613924 -0.855881 -0.177637 -0.485709 
0.237065 -0.716541 0.656025 0.766843 -0.404892 0.498011 0.377086 -0.625509 0.683041 
-0.478764 0.417798 -0.772159 0.129382 0.881855 -0.453423 0.762212 -0.259643 0.592975 
0.561119 0.775175 -0.290257 -0.00760422 0.781005 -0.624478 0.356901 0.884299 -0.301061 
-0.0550008 -0.801066 0.596044 -0.627012 -0.759124 0.17489 -0.829345 -0.459362 -0.318077 
-0.50984 0.290087 -0.809885 -0.812767 -0.411507 -0.412398 -0.652784 0.0928953 -0.751826 
0.889462 0.394725 0.230325 0.304901 0.951541 -0.0400701 -0.955178 0.0325714 -0.294234 
0.436007 -0.518148 0.735812 0.864331 0.300947 0.402942 0.748479 0.17683 0.639148 
-0.570119 0.183223 -0.800871 0.294123 0.865284 -0.405926 0.732388 0.389397 0.558549 
-0.361187 0.422446 -0.831314 -0.752202 -0.41369 -0.512886 -0.885665 -0.18717 -0.424929 
-0.245979 0.536671 -0.807143 0.0179391 0.755913 -0.654427 -0.323861 0.602874 -0.729149 
-0.0561312 -0.813213 0.579253 -0.346276 -0.828924 0.439293 0.382946 -0.49945 0.777111 
0.381307 -0.60544 0.698604 0.136472 -0.686718 0.713998 -0.455699 -0.826242 0.331154 
0.17646 -0.805017 0.5664 -0.120692 0.328583 -0.936732 0.159037 -0.699946 0.696264 
0.534652 -0.300134 0.789979 0.812738 -0.00841685 0.582568 0.341622 -0.539049 0.769884 
-0.535819 0.0853203 -0.840011 -0.76732 -0.611669 -0.192564 0.164676 0.8343 -0.526142 
0.100362 0.89988 -0.424434 0.0365444 0.790442 -0.611446 0.0704096 0.936123 -0.344553 
-0.888298 -0.255049 -0.381937 0.42661 0.888553 -0.168753 0.245343 0.967724 -0.057597 
-0.896607 -0.308543 -0.317642 -0.231271 0.545808 -0.805362 -0.0360401 0.719334 -0.693729 
0.456877 0.861213 -0.222654 0 -0.992278 -0.124035 0 -1 0 
-0.447214 -0.894427 0 0.447214 -0.894427 0 0 1 0 
0.0339475 -0.735484 0.676691 0.0891202 -0.746692 0.659173 -0.198696 -0.82334 0.531631 
-0.483089 -0.798779 0.358577 0.261584 -0.637267 0.724889 0.203558 -0.696675 0.687902 
-0.678008 -0.690541 0.251911 0.48934 -0.414895 0.767078 -0.759241 -0.581661 0.291931 
-0.900829 0.113353 -0.419115 0.489916 0.816291 -0.306025 0.553991 0.820649 -0.140103 
0 -0.992278 0.124035 -0.0101379 0.738282 -0.674416 0.391783 -0.501652 0.771266 
0.780942 0.0933147 0.617594 0.848286 0.528946 0.0250588 -0.206097 0.85447 -0.47687 
-0.718411 -0.450191 0.530296 -0.221607 0.727014 -0.649878 0.469013 0.676773 -0.567455 
0.777147 0.453657 -0.436164 0.44679 0.641166 -0.623927 0.365299 0.646322 -0.669944 
-0.106977 0.860835 -0.497513 -0.0209815 0.632437 -0.774328 -0.026858 0.989981 -0.138626 
0.329297 0.85193 -0.407161 0.376254 0.924753 -0.0571386 -0.0976375 0.855386 -0.508706 
-0.041714 -0.749864 0.660276 -0.0630595 -0.710479 0.700887 -0.908054 -0.386583 0.161221 
-0.54444 -0.645828 0.535249 0.271875 -0.604666 0.748641 -0.931579 0.120097 0.343128 
-0.782705 0.21776 0.583056 -0.385922 0.105265 0.916506 0.473844 -0.250235 0.844307 
0.905176 0.415658 0.0887916 -0.27107 0.336147 0.901957 -0.0211315 0.888689 0.458022 
-0.189826 0.93438 -0.301496 0.30394 0.822084 -0.481455 0.00872758 0.801416 -0.598044 
0.104253 0.767646 -0.632338 0.532053 0.802563 -0.269837 0.517545 -0.0322087 0.85505 
0.0308745 -0.937146 -0.347568 -0.265196 -0.70719 -0.655404 0.202385 -0.730749 -0.651956 
0.490543 -0.572373 0.657082 -0.0857441 0.916076 0.39173 -0.130458 -0.625124 0.769546 
-0.419316 -0.0872032 0.903642 -0.224285 -0.120622 0.96703 -0.205429 -0.369194 0.906363 
0.080288 -0.661411 0.745714 -0.0924303 -0.705483 0.702674 -0.40093 0.893027 -0.204347 
0.351924 -0.477918 0.804825 0.986282 0.0937179 0.135887 0.262825 -0.613937 0.744315 
-0.356641 0.921713 -0.152484 -0.0627561 0.905259 -0.420199 -0.460226 0.83845 -0.291879 
0.416958 0.575378 -0.703624 -0.0592795 0.752286 -0.656164 0.086209 0.688373 -0.720216 
-0.412256 -0.638921 0.64948 -0.173907 0.753238 -0.634341 -0.418684 0.808557 -0.413448 
-0.365629 0.792892 -0.48748 -0.391749 0.772219 -0.500211 -0.679671 0.0871788 0.728318 
-0.0624712 -0.613702 0.787062 -0.616919 0.763037 -0.192837 0.0308745 -0.937146 -0.347568 
-0.265196 -0.70719 -0.655404 0.202385 -0.730749 -0.651956 0.490543 -0.572373 0.657082 
-0.0857441 0.916076 0.39173 0 -0.992278 -0.124035 0 -1 0 
-0.447214 -0.894427 0 0.447214 -0.894427 0 0 1 0 
-0.412256 -0.638921 0.64948 0 -0.992278 0.124035 0.454474 0.513934 0.727548 
0.0244856 0.702027 0.711729 -0.300964 0.778224 0.551169 0 0.351123 0.936329 
0.167419 0.65741 0.734699 0.293811 0.600864 0.743396 0.247176 0.615912 0.748035 
0 0.351123 0.936329 0.109678 0.696287 0.709334 0.108301 0.687955 0.717627 
0.386064 0.598445 0.70201 0.560189 0.50954 0.653114 0.452191 0.764231 0.459863 
0.396798 0.901656 -0.17195 0.0606029 0.922882 0.380285 0.126787 0.77119 0.623852 
0.141405 0.817959 0.557627 0.313907 0.830106 0.460855 0.243388 0.822573 0.513941 
0.113805 -0.721554 -0.68294 -0.170507 0.890789 0.421215 0.218218 0.872872 0.436436 
0.242536 0 -0.970143 0.239834 0.959337 0.148833 0.330913 0.576768 -0.746884 
0.0829879 0.811861 0.577923 0.55895 0.755631 -0.341462 0.261729 0.673051 0.691737 
0.156853 0.987581 0.0090436 -0.0962553 -0.984887 0.143987 -0.258142 -0.721006 -0.64305 
-0.1007 0.742036 0.662753 -0.0664827 0.688551 0.722134 -0.127702 0.701242 0.701393 
-0.0343538 0.753767 0.656243 0.0382426 0.907582 0.41813 0.271988 0.957821 -0.0927445 
0.242536 0.970143 0 0.423909 0.882183 0.20507 -0.560065 -0.600709 -0.570505 
-0.280736 -0.905076 -0.319413 -0.0485148 0.769735 0.636517 0.0684929 0.776941 0.625837 
0 -0.707107 0.707107 0 -0.707107 0.707107 0 -0.707107 0.707107 
0.147441 0.554229 -0.819201 0.443552 -0.656333 -0.610318 0 0.447214 0.894427 
0 0.707107 -0.707107 0.297857 0.529523 -0.794284 -0.0169731 -0.558059 0.829628 
0.137361 -0.549442 0.824163 -0.0489702 -0.195881 0.979404 0.218218 0.872872 -0.436436 
0.0658425 0.972664 0.222688 -0.338867 -0.790679 -0.509898 0.668211 0.54802 0.503158 
0 0.894427 -0.447214 -0.124035 0.992278 0 0.124035 0.992278 0 
0 0.894427 0.447214 -0.436859 0.739813 -0.511694 0.237708 -0.729194 0.641693 
0.150687 -0.752258 0.641406 0.0859641 -0.774115 0.627182 0.130627 -0.688359 0.713511 
0.103819 -0.735434 0.669596 0 0.894427 -0.447214 -0.124035 0.992278 0 
0.124035 0.992278 0 0 0.894427 0.447214 -0.816651 -0.470004 0.334928 
-0.225789 0.721699 -0.654347 0.284613 -0.639823 0.713879 0.169741 -0.560778 0.81038 
-0.0894497 -0.708087 0.700436 -0.174885 -0.676222 0.715639 0.340736 -0.579015 0.740703 
-0.260054 0.963599 0.0620463 0.0891268 0.995382 0.0356507 0.163725 -0.715109 0.679569 
0.0573029 -0.713487 0.698322 0.0567791 -0.713289 0.698566 -0.42004 -0.456089 0.78457 
-0.0623118 -0.661594 0.747269 -0.226445 -0.555514 0.800079 -0.260054 0.963599 0.0620463 
0.0891268 0.995382 0.0356507 0 0.894427 -0.447214 -0.124035 0.992278 0 
0.124035 0.992278 0 0 0.894427 0.447214 
