# vtk DataFile Version 4.2
vtk output
ASCII
DATASET POLYDATA
POINTS 1226 float
392.568 67.3407 70.3516 393.443 67.9452 70.2592 394.551 68.8915 70.1402 
395.111 68.9939 70.2052 396.093 70.22 70.4652 396.302 70.2724 70.5263 
396.059 70.2807 70.512 387.514 63.7694 71.3773 387.525 63.7397 71.4317 
387.487 63.7846 71.3776 387.573 63.8482 71.3444 389.027 64.2259 71.0707 
388.507 64.6925 70.9647 388.747 64.9063 70.9401 389.014 65.1417 70.9568 
389.763 64.8943 70.8172 389.933 65.3303 70.7806 390.631 66.2175 70.7722 
392.368 66.8922 70.4127 391.746 67.2528 70.7128 393.668 69.1413 70.5292 
394.168 69.981 70.8101 394.023 69.8256 70.8466 394.16 69.9837 70.88 
394.582 69.6945 70.4527 394.29 69.9624 70.7606 395.345 70.0418 70.4796 
395.54 69.9179 70.4059 396.608 70.2971 70.6143 396.728 70.1103 70.7202 
394.245 70.0298 70.8312 395 73.0087 69.0174 395 73.0087 69.0175 
395 73.0088 69.0175 395.707 70.2289 70.6072 395 73.0088 69.0175 
396.227 70.3736 70.6088 396.527 70.4185 70.616 396.496 70.4697 70.7153 
396.884 70.3817 70.7905 395 73.0088 69.0175 396.679 70.4922 70.687 
396.819 70.4886 70.747 387.688 63.6424 71.6293 387.505 63.8042 71.4343 
388.691 63.6514 71.5046 387.517 63.953 71.3286 387.457 63.9062 71.424 
387.464 63.9994 71.3486 388.033 64.4449 71.219 390.537 64.718 70.9475 
388.626 64.9833 71.1404 392.583 66.0741 70.7149 391.858 67.7305 71.2366 
392.766 68.7475 71.5451 397.034 69.228 71.3078 393.488 69.4583 71.3422 
397.102 69.5387 71.3076 394.017 69.857 71.0566 396.987 70.2706 71.0204 
394.401 70.0773 70.9445 394.731 70.1532 70.772 394.729 70.22 70.887 
395 73.0087 69.0175 395.204 70.2508 70.8823 394.906 70.2622 70.8234 
395.807 70.3263 70.9166 396.912 70.4447 70.8413 396.851 70.4981 70.8251 
396.909 70.4364 70.9184 394.811 70.2554 70.8248 396.715 70.5059 70.7844 
387.958 63.4301 72.0215 388.547 63.1163 72.2022 387.486 63.9293 71.5001 
387.45 63.9837 71.4084 390.755 63.8061 71.6011 387.533 64.0786 71.381 
394.066 65.2433 71.7352 388.268 64.6699 71.462 389.304 65.4983 71.5932 
390.895 66.94 71.757 396.972 67.5258 71.9557 396.401 68.4783 71.0651 
396.766 68.3255 71.4216 392.954 68.9453 71.6254 393.129 69.0669 71.72 
397.335 69.1505 71.8226 393.594 69.5505 71.4189 397.229 69.7246 71.5487 
397.211 69.9352 71.4466 396.784 70.1794 71.4916 396.898 70.3598 71.0653 
394.893 70.2656 70.8861 395.67 70.2739 71.2006 396.788 70.4605 70.9305 
389.405 62.3553 73.1808 394.975 64.5753 72.6212 391.778 67.5204 72.3787 
397.587 67.795 72.5387 393.173 68.9203 72.0317 393.945 69.6874 71.5882 
397.18 69.8232 71.716 397.22 69.8923 71.528 394.726 70.0838 71.38 
389.161 62.43 73.2484 388.688 62.8637 73.0659 388.297 64.1315 72.2761 
389.716 65.4363 72.6366 398.494 67.3128 73.9792 398.289 67.8548 73.89 
397.452 68.8968 73.3481 396.101 69.6967 72.536 390.066 61.7057 74.3894 
389.294 62.2584 73.6421 388.859 62.7496 73.5015 389.769 63.9479 74.1737 
398.671 66.8268 74.2543 399.303 66.7723 75.2419 390.798 61.3765 74.8613 
390.544 61.441 74.8622 390.264 61.5874 74.7171 389.664 62.053 74.4982 
389.135 62.4534 73.9904 389.011 62.5813 73.8216 389.273 62.3109 74.0867 
389.304 62.8005 74.167 398.345 65.5854 74.4229 399.464 66.8672 75.6586 
398.791 67.5422 75.4566 399.212 67.1962 75.6061 393.453 60.1699 77.1959 
392.016 60.8865 76.2578 393.472 60.6929 76.2296 389.833 61.9782 74.882 
389.133 62.5802 74.0095 389.704 62.3102 74.6969 400.521 65.958 77.0023 
400.608 66.1485 77.2483 400.441 66.3924 77.318 393.175 60.0987 77.7106 
394.76 59.8708 77.6324 391.84 61.0471 76.7049 391.61 61.5162 76.8303 
396.693 61.008 76.9416 400.245 66.5689 77.652 398.073 67.2158 76.8337 
394.679 59.2468 78.8362 395.041 59.2403 78.7627 393.524 59.8512 78.356 
392.104 60.9062 77.2623 392.553 60.5195 77.6578 397.271 60.3111 78.0254 
392.115 61.1172 77.6576 401.278 65.829 78.4486 400.277 66.4773 78.2865 
395.756 58.8271 79.5217 394.582 59.1464 79.5422 396.132 59.4581 78.5676 
392.977 60.3529 78.6288 392.767 60.5504 78.4538 392.62 60.8105 78.3145 
395.156 64.0187 78.9348 402.019 65.1347 79.4661 400.291 66.2991 78.9609 
410.699 75.8711 83.5257 410.695 75.847 83.5636 410.698 75.834 83.5958 
410.697 75.8381 83.5647 410.7 75.8251 83.5968 396.528 58.0072 81.1916 
395.57 58.5901 80.1777 396.767 58.4366 80.274 393.19 60.3127 78.9955 
393.7 61.6316 79.3138 394.39 61.9007 79.8438 398.711 65.6424 79.7575 
410.688 75.7786 83.648 410.684 75.7425 83.7494 410.694 75.7021 83.7491 
410.702 75.7171 83.8017 396.624 57.87 81.5651 397.451 57.5896 82.1295 
395.745 58.4043 80.7242 395.329 58.7108 80.9867 403.348 64.7392 81.5614 
400.432 65.8973 80.1087 401.014 65.7975 80.3656 410.647 75.4317 84.0038 
410.618 75.3068 84.1315 410.624 75.4368 84.0265 410.644 75.2557 84.1762 
410.661 75.6 83.8693 410.648 75.5888 84.017 410.687 75.6042 84.1007 
410.721 75.5648 84.114 397.554 57.4278 82.4829 397.584 57.3863 82.6375 
396.603 57.8518 81.9155 398.664 57.6864 82.4625 396.003 58.2356 81.7582 
395.679 58.5299 81.5963 394.307 60.5867 80.3349 395.286 59.7752 81.5629 
404.11 64.6326 82.6869 402.13 65.1835 82.4088 410.365 73.8343 85.2833 
410.417 73.763 85.329 410.596 75.0389 84.4017 410.684 75.4574 84.5566 
397.699 57.3702 82.8151 398.284 57.4172 83.2709 395.547 58.8141 81.7162 
395.691 59.0098 82.0473 405.015 64.0714 83.8346 404.452 64.5572 83.3779 
410.334 73.4859 85.5419 410.28 73.2109 85.7753 410.222 73.77 85.6327 
410.435 74.1899 85.1023 410.572 74.5748 84.7976 410.686 74.3224 85.0808 
410.489 74.7587 84.7755 410.772 74.7287 84.929 410.748 75.3449 84.866 
398.557 57.3823 83.7396 398.492 57.3696 83.8094 398.359 57.3863 83.6575 
398.647 57.4171 83.9497 398.066 57.4955 83.5745 399.053 57.4819 83.9851 
399.797 57.5873 83.9082 400.872 57.8736 83.9847 396.183 59.0198 82.7169 
396.39 59.3007 82.9714 396.982 60.1265 83.3247 399.12 62.3589 83.8936 
405.344 63.5749 84.2503 405.739 64.0586 84.9135 404.761 64.6603 84.1612 
410.197 72.5444 86.2917 410.637 73.8634 85.3575 410.492 74.9478 86.0598 
410.697 75.2458 85.4006 410.754 75.1666 85.6582 410.822 75.1386 85.3056 
398.449 57.4211 83.8676 397.268 57.8514 83.3989 398.734 57.5852 84.3162 
396.989 58.2244 83.421 401.607 58.1778 84.1338 402.75 59.0122 84.1255 
398.028 60.2876 84.2301 405.073 61.4329 84.677 406.357 63.7682 85.6379 
405.073 64.7892 85.0065 406.397 64.5757 86.0708 410.188 72.1379 86.567 
410.289 71.6824 86.868 409.999 73.8366 86.4533 410.817 74.9644 86.2512 
401.6 57.7862 85.4585 399.032 58.1197 85.2921 397.101 58.8271 83.6856 
398.36 58.4992 84.9013 398.672 58.3833 85.1486 398.292 59.0866 84.8337 
401.742 63.2714 85.6825 406.992 63.479 86.3974 407.621 64.0482 87.2302 
406.42 65.0119 86.6023 405.333 64.9862 86.2103 410.057 71.193 87.1947 
409.833 71.3061 87.2738 409.835 73.8257 87.1399 410.63 74.7972 87.4908 
399.436 57.8764 85.4295 399.305 58.9781 85.8225 399.921 60.3323 86.0506 
401.618 62.862 85.9994 407.881 63.5677 87.6485 403.921 64.3252 86.7189 
406.71 65.385 87.2764 407.779 65.1937 87.6892 405.576 65.0701 87.2492 
409.407 69.2677 88.1596 409.536 70.2691 87.8701 409.66 73.7289 87.5928 
409.618 73.8056 87.668 409.642 73.908 87.6358 409.619 73.8985 87.6558 
409.733 73.9816 87.7532 409.652 73.9637 87.6512 409.846 74.2397 87.9582 
409.629 73.9463 87.6323 410.233 74.5594 88.4116 403.417 57.8758 87.3371 
401.98 57.8307 87.5328 407.427 65.7788 87.8267 408.326 66.1779 88.2521 
407.935 66.6866 88.4322 406.548 65.6431 88.1294 408.781 67.3481 88.4515 
408.628 68.4589 88.7351 410.879 70.4766 88.1252 409.617 73.7955 87.7826 
409.549 73.4341 88.2898 406.145 59.1351 88.4705 402.885 61.4426 88.8374 
407.853 60.908 89.1004 407.219 66.0425 88.1876 407.286 66.4055 88.8232 
409.717 67.1236 88.8486 410.171 74.3993 90.342 410.473 74.5578 90.3015 
404.051 57.8589 88.7712 404.758 57.9938 88.9295 405.355 58.0589 89.7441 
402.304 59.2236 88.9065 404.346 63.0911 89.4227 410.845 67.3774 89.8995 
407.825 67.6634 90.2054 411.85 71.2661 90.4201 411.681 73.3145 90.4541 
409.692 73.778 90.5729 410.572 74.5772 91.1502 405.672 57.9863 90.4188 
404.323 58.0783 89.9235 403.775 58.1355 89.562 406.092 58.1656 90.4997 
405.929 64.1746 91.0967 406.844 65.7287 90.9288 411.548 73.808 91.3962 
406.572 58.1395 91.2377 406.384 58.1193 91.0991 406.779 58.231 91.3684 
405.382 58.113 90.8899 406.127 58.1071 91.2644 407.21 58.4564 91.534 
408.908 60.3196 91.3669 410.771 74.5457 92.3527 407.688 58.1082 93.0637 
407.042 58.1883 92.2134 404.895 58.9463 91.8321 407.752 58.0843 93.3896 
408.131 58.2713 93.2671 407.167 58.2247 93.3564 409.476 73.8617 96.0546 
409.888 74.1344 95.7639 410.345 74.282 95.2815 411.254 74.1371 94.8306 
407.646 58.1121 93.5669 407.987 58.1212 93.8002 408.946 58.2814 94.887 
408.485 58.208 94.507 409.311 58.5643 94.9776 406.329 62.1426 94.1882 
412.569 70.547 95.0043 409.44 74.0088 96.664 411.804 73.6781 95.3127 
411.605 73.8916 95.2561 411.785 73.6942 95.8371 409.94 74.2288 96.6023 
408.768 58.1308 95.134 409.139 58.2012 95.57 407.826 58.4641 95.4571 
406.989 62.8649 95.3841 408.76 72.8837 97.3375 409.064 73.6358 97.6277 
409.312 73.8932 97.5294 410.209 74.2926 97.1231 408.694 58.1826 95.8332 
407.599 64.0759 96.7445 409.116 73.761 98.1197 410.931 74.176 97.5674 
408.871 58.2385 96.4374 409.212 58.261 96.845 409.65 58.4214 96.9172 
407.688 59.0267 96.4967 407.413 59.6926 96.7019 411.332 60.3499 97.6306 
407.713 63.2265 97.6167 409.455 58.2567 97.0996 409.554 58.2964 97.2034 
407.93 59.0987 97.1589 408.543 58.8307 97.7052 409.529 58.4717 97.56 
409.52 58.2798 97.273 409.344 58.5915 98.1053 409.851 58.6934 98.4192 
407.485 59.9795 97.0192 411.645 73.4758 99.4653 410.001 74.2212 99.6738 
409.519 58.2374 97.1645 408.531 59.1576 98.2504 409.246 58.7516 98.4918 
410.097 58.8929 99.0193 409.795 58.8108 99.0203 409.838 58.734 98.7643 
407.828 59.5483 97.4696 408.024 60.6776 98.5409 411.593 73.3745 100.174 
411.882 72.9956 100.345 408.796 73.9355 101.216 408.543 73.6717 101.282 
408.938 73.9853 101.088 410.734 73.9961 100.145 410.195 59.0587 99.6865 
[...]
POINT_DATA 1226
SCALARS scalars float
LOOKUP_TABLE default
1 1 1 1 1 1 1 1 1 
1 1 1 1 1 1 1 1 1 
1 1 1 1 1 1 1 1 1 
1 1 1 1 1 1 1 1 1 
1 1 1 1 1 1 1 1 1 
1 1 1 1 1 1 1 1 1 
1 1 1 1 1 1 1 1 1 
1 1 1 1 1 1 1 1 1 
1 1 1 1 1 1 1 1 1 
1 1 1 1 1 1 1 1 1 
1 1 1 1 1 1 1 1 1 
1 1 1 1 1 1 1 1 1 
1 1 1 1 1 1 1 1 1 
1 1 1 1 1 1 1 1 1 
1 1 1 1 1 1 1 1 1 
1 1 1 1 1 1 1 1 1 
1 1 1 1 1 1 1 1 1 
1 1 1 1 1 1 1 1 1 
1 1 1 1 1 1 1 1 1 
1 1 1 1 1 1 1 1 1 
1 1 1 1 1 1 1 1 1 
1 1 1 1 1 1 1 1 1 
1 1 1 1 1 1 1 1 1 
1 1 1 1 1 1 1 1 1 
1 1 1 1 1 1 1 1 1 
1 1 1 1 1 1 1 1 1 
1 1 1 1 1 1 1 1 1 
1 1 1 1 1 1 1 1 1 
1 1 1 1 1 1 1 1 1 
1 1 1 1 1 1 1 1 1 
1 1 1 1 1 1 1 1 1 
1 1 1 1 1 1 1 1 1 
1 1 1 1 1 1 1 1 1 
1 1 1 1 1 1 1 1 1 
1 1 1 1 1 1 1 1 1 
1 1 1 1 1 1 1 1 1 
1 1 1 1 1 1 1 1 1 
1 1 1 1 1 1 1 1 1 
1 1 1 1 1 1 1 1 1 
1 1 1 1 1 1 1 1 1 
1 1 1 1 1 1 1 1 1 
1 1 1 1 1 1 1 1 1 
1 1 1 1 1 1 1 1 1 
1 1 1 1 1 1 1 1 1 
1 1 1 1 1 1 1 1 1 
1 1 1 1 1 1 1 1 1 
1 1 1 1 1 1 1 1 1 
1 1 1 1 1 1 1 1 1 
1 1 1 1 1 1 1 1 1 
1 1 1 1 1 1 1 1 1 
1 1 1 1 1 1 1 1 1 
1 1 1 1 1 1 1 1 1 
1 1 1 1 1 1 1 1 1 
1 1 1 1 1 1 1 1 1 
1 1 1 1 1 1 1 1 1 
1 1 1 1 1 1 1 1 1 
1 1 1 1 1 1 1 1 1 
1 1 1 1 1 1 1 1 1 
1 1 1 1 1 1 1 1 1 
1 1 1 1 1 1 1 1 1 
1 1 1 1 1 1 1 1 1 
1 1 1 1 1 1 1 1 1 
1 1 1 1 1 1 1 1 1 
1 1 1 1 1 1 1 1 1 
1 1 1 1 1 1 1 1 1 
1 1 1 1 1 1 1 1 1 
1 1 1 1 1 1 1 1 1 
1 1 1 1 1 1 1 1 1 
1 1 1 1 1 1 1 1 1 
1 1 1 1 1 1 1 1 1 
1 1 1 1 1 1 1 1 1 
1 1 1 1 1 1 1 1 1 
1 1 1 1 1 1 1 1 1 
1 1 1 1 1 1 1 1 1 
1 1 1 1 1 1 1 1 1 
1 1 1 1 1 1 1 1 1 
1 1 1 1 1 1 1 1 1 
1 1 1 1 1 1 1 1 1 
1 1 1 1 1 1 1 1 1 
1 1 1 1 1 1 1 1 1 
1 1 1 1 1 1 1 1 1 
1 1 1 1 1 1 1 1 1 
1 1 1 1 1 1 1 1 1 
1 1 1 1 1 1 1 1 1 
1 1 1 1 1 1 1 1 1 
1 1 1 1 1 1 1 1 1 
1 1 1 1 1 1 1 1 1 
1 1 1 1 1 1 1 1 1 
1 1 1 1 1 1 1 1 1 
1 1 1 1 1 1 1 1 1 
1 1 1 1 1 1 1 1 1 
1 1 1 1 1 1 1 1 1 
1 1 1 1 1 1 1 1 1 
1 1 1 1 1 1 1 1 1 
1 1 1 1 1 1 1 1 1 
1 1 1 1 1 1 1 1 1 
1 1 1 1 1 1 1 1 1 
1 1 1 1 1 1 1 1 1 
1 1 1 1 1 1 1 1 1 
1 1 1 1 1 1 1 1 1 
1 1 1 1 1 1 1 1 1 
1 1 1 1 1 1 1 1 1 
1 1 1 1 1 1 1 1 1 
1 1 1 1 1 1 1 1 1 
1 1 1 1 1 1 1 1 1 
1 1 1 1 1 1 1 1 1 
1 1 1 1 1 1 1 1 1 
1 1 1 1 1 1 1 1 1 
1 1 1 1 1 1 1 1 1 
1 1 1 1 1 1 1 1 1 
1 1 1 1 1 1 1 1 1 
1 1 1 1 1 1 1 1 1 
1 1 1 1 1 1 1 1 1 
1 1 1 1 1 1 1 1 1 
1 1 1 1 1 1 1 1 1 
1 1 1 1 1 1 1 1 1 
1 1 1 1 1 1 1 1 1 
1 1 1 1 1 1 1 1 1 
1 1 1 1 1 1 1 1 1 
1 1 1 1 1 1 1 1 1 
1 1 1 1 1 1 1 1 1 
1 1 1 1 1 1 1 1 1 
1 1 1 1 1 1 1 1 1 
1 1 1 1 1 1 1 1 1 
1 1 1 1 1 1 1 1 1 
1 1 1 1 1 1 1 1 1 
1 1 1 1 1 1 1 1 1 
1 1 1 1 1 1 1 1 1 
1 1 1 1 1 1 1 1 1 
1 1 1 1 1 1 1 1 1 
1 1 1 1 1 1 1 1 1 
1 1 1 1 1 1 1 1 1 
1 1 1 1 1 1 1 1 1 
1 1 1 1 1 1 1 1 1 
1 1 1 1 1 1 1 1 1 
1 1 1 1 1 1 1 1 1 
1 1 
NORMALS Normals float
-0.28852 0.13503 -0.947905 0.076821 -0.138048 -0.987442 -0.148398 0.225048 -0.962981 
0.253689 -0.41367 -0.874368 -0.0387189 0.36529 -0.930088 0.206316 0.154009 -0.966289 
-0.10478 0.686653 -0.719394 -0.119279 -0.719691 -0.683971 -0.678707 -0.734071 0.0222787 
-0.877623 -0.243392 -0.412962 -0.305292 -0.242782 -0.92079 0.0940749 -0.500368 -0.860687 
-0.396389 0.201516 -0.895693 -0.345605 0.336087 -0.87613 -0.474049 0.607124 -0.637714 
-0.02277 -0.173613 -0.984551 -0.122123 0.0498755 -0.991261 -0.393887 0.391026 -0.831836 
-0.0148124 -0.103653 -0.994503 -0.543902 0.488028 -0.682641 -0.418527 0.443107 -0.792774 
-0.524881 0.655844 -0.542557 -0.633408 0.568183 -0.525321 -0.578713 0.815137 0.0253487 
-0.309511 0.461654 -0.831311 -0.256606 0.61355 -0.7468 -0.154564 0.618823 -0.770174 
0.1679 0.0785798 -0.982667 0.38276 0.00485424 -0.923835 0.483107 -0.226818 -0.845672 
-0.257757 0.896174 -0.361157 0 -0.222396 -0.974956 0 -1 0 
-0.775537 -0.62746 0.0695381 -0.217988 0.817992 -0.532325 0.775537 -0.62746 0.0695381 
-0.130867 0.82399 -0.551284 0.117441 0.522129 -0.844742 -0.240489 0.969174 0.0535474 
0.813687 -0.0223559 -0.580874 0 0.529999 -0.847998 0.0540407 0.86314 -0.502065 
0.516291 0.449727 -0.728827 -0.539856 -0.838521 -0.0737385 -0.967569 -0.239953 0.0789534 
0.129124 -0.728634 -0.672621 -0.479029 -0.196053 -0.855625 -0.935229 -0.312523 -0.166363 
-0.808284 0.20843 -0.550667 -0.620221 0.613754 -0.4885 0.126488 -0.449386 -0.884337 
-0.624825 0.772185 -0.115431 0.289179 -0.354524 -0.889207 -0.648763 0.720328 -0.245426 
-0.737378 0.669367 0.0906742 0.695771 -0.221843 -0.683146 -0.722833 0.656516 0.215639 
0.765093 -0.150463 -0.626094 -0.600728 0.799444 0.00397358 0.867345 0.494599 0.0555352 
-0.299445 0.950845 0.0789014 -0.245324 0.699721 -0.670975 -0.42872 0.903433 -0.00298046 
0 -0.329285 0.944231 -0.0607525 0.969826 -0.236107 0.0385992 0.800699 -0.597822 
-0.0625593 0.995815 0.0666276 0.849169 0.451083 -0.274658 0.349599 0.933735 0.07694 
0.576646 0.755691 0.310501 -0.284677 0.898458 -0.334264 -0.050757 0.996773 0.062193 
-0.675795 -0.734254 0.064597 0.0333489 -0.821892 -0.568666 -0.847 0.0699585 0.526969 
-0.923453 0.329761 0.196194 0.168656 -0.680928 -0.712666 -0.666719 0.732344 0.138413 
0.343629 -0.501511 -0.793981 -0.56811 0.767421 0.297178 -0.651642 0.757945 0.029697 
-0.619483 0.730026 0.288623 0.627255 -0.353926 -0.693749 0.436569 -0.377084 -0.816832 
0.541175 -0.521947 -0.659318 -0.807311 0.589914 -0.0158103 -0.616201 0.632137 0.469786 
0.927485 0.00743115 -0.373786 -0.640585 0.589574 0.491989 0.979674 0.0161432 -0.199946 
0.904652 0.424598 -0.0363394 0.268842 0.858914 0.435879 0.2384 0.840652 0.486281 
-0.149314 0.938418 0.311572 -0.0295122 0.965302 0.259461 -0.087789 0.855217 0.510781 
-0.411865 -0.846936 -0.336253 0.379642 -0.540299 -0.750965 -0.641861 0.693497 0.327224 
0.822859 -0.110586 -0.557381 -0.494367 0.702247 0.512299 -0.431734 0.701057 0.567561 
0.748695 0.59635 0.289523 0.909752 0.359702 0.207281 -0.211354 0.919235 0.33217 
-0.649359 -0.747292 -0.141022 -0.569015 -0.804608 -0.169789 -0.627953 0.558268 0.542229 
-0.620374 0.654572 0.432055 0.845578 -0.0552455 -0.530986 0.888351 0.393002 -0.237448 
0.606686 0.759869 0.23352 -0.0755572 0.870904 0.48561 -0.469937 -0.876408 -0.105211 
-0.448752 -0.861519 -0.2375 -0.887284 -0.225324 0.402438 -0.630593 0.421797 0.65149 
0.860944 0.130312 -0.491725 0.836445 0.137263 -0.530584 0.060916 -0.839268 -0.540295 
-0.438445 -0.898328 0.027803 -0.505098 -0.863053 -0.0038725 -0.767949 -0.561106 0.308892 
-0.793374 -0.288427 0.536066 -0.896355 -0.321292 0.305482 -0.730457 -0.673314 0.114371 
-0.752736 0.172627 0.635286 0.665357 -0.369492 -0.648672 0.772833 0.463567 -0.4334 
0.608216 0.788145 -0.0943454 0.722059 0.598988 -0.346186 -0.0791713 -0.900071 -0.42849 
-0.362783 -0.923657 -0.123475 0.0407727 -0.865685 -0.498926 -0.75559 -0.400771 0.518137 
-0.764004 0.00847584 0.645156 -0.75163 0.0285829 0.658966 0.835655 0.145735 -0.529567 
0.758548 0.45858 -0.462935 0.695133 0.657603 -0.290429 -0.452821 -0.881227 -0.135616 
-0.0218541 -0.859595 -0.510509 -0.653098 -0.712228 0.257284 -0.826988 -0.141484 0.544126 
0.3247 -0.688132 -0.64888 0.574213 0.816326 0.0623835 0.0250951 0.909626 0.41467 
-0.206425 -0.92478 -0.319642 0.00935227 -0.858984 -0.511916 -0.432489 -0.893698 -0.1194 
-0.729889 -0.666963 0.14974 -0.53774 -0.842782 0.0235599 0.31897 -0.713329 -0.624035 
-0.84673 -0.141523 0.512854 0.772898 0.604269 -0.193618 0.329973 0.902887 0.275522 
0.0124768 -0.898893 -0.43799 -0.414442 -0.903922 -0.105658 0.159533 -0.759392 -0.630772 
-0.652866 -0.624544 0.428615 -0.799392 -0.389743 0.457244 -0.740465 -0.0328202 0.671293 
-0.47403 0.606245 0.638563 0.858815 0.326128 -0.395067 0.52159 0.821953 0.228775 
-0.973834 0.225223 0.0303581 -0.979484 0.200373 0.0214959 0.0962438 0.877767 0.469322 
-0.0839577 -0.772586 -0.629334 0.997158 -0.0568424 -0.0494501 -0.378224 -0.903006 -0.20378 
-0.377668 -0.908131 -0.180737 0.120796 -0.871665 -0.474983 -0.689526 -0.653779 0.311651 
-0.691213 0.214431 0.690104 -0.481782 0.218909 0.848507 -0.262768 0.825329 0.499785 
-0.810725 -0.4271 -0.400388 -0.771521 0.59073 0.236206 0.632204 -0.609344 -0.478558 
0.870061 0.458154 0.181903 -0.104486 -0.927587 -0.3587 -0.0338941 -0.923029 -0.383234 
-0.413123 -0.894926 -0.168633 -0.736798 -0.63592 0.22964 0.803336 0.350374 -0.481548 
0.134011 0.889756 0.43632 -0.00587239 0.923377 0.38385 -0.202883 -0.634998 -0.745396 
-0.553425 -0.552518 -0.623254 -0.893205 -0.218571 -0.392953 0.333414 -0.64599 -0.686682 
-0.979855 -0.00291314 -0.19969 -0.887701 0.455507 0.0670857 0.0464554 0.93566 0.349831 
0.844766 0.513092 0.15201 0.137432 -0.924062 -0.356683 -0.431611 -0.901996 -0.0107198 
-0.478137 -0.869479 -0.124061 0.251017 -0.86734 -0.42978 -0.603744 -0.796887 -0.0215299 
-0.656357 -0.751916 0.0617923 -0.584622 0.267865 0.76581 -0.811971 -0.0704865 0.579426 
0.761945 0.436231 -0.478688 -0.0733299 0.96113 0.26618 -0.540265 -0.390542 -0.74538 
0.147167 -0.573315 -0.80601 -0.694761 -0.463164 -0.55026 -0.0141645 0.962751 0.270019 
0.0876741 -0.992839 -0.0811485 0.0982001 -0.986688 -0.12963 -0.80955 -0.383946 0.444088 
-0.805158 -0.0641993 0.589575 0.790456 0.240809 -0.563197 0.403623 0.899593 -0.166794 
-0.438308 -0.525393 -0.729279 -0.461671 -0.513079 -0.723609 -0.900961 -0.14717 -0.408179 
-0.744865 -0.219988 -0.629905 -0.356963 -0.54154 -0.761125 0.597773 -0.503439 -0.623873 
-0.790939 -0.328289 -0.516374 0.931022 -0.246462 -0.269174 0.773197 0.624054 0.112797 
0.153312 -0.986075 -0.0644343 -0.120663 -0.969021 0.215495 -0.251457 -0.963671 0.0900386 
0.0134663 -0.947523 0.319404 -0.410875 -0.834402 0.367362 0.0782646 -0.990411 0.113845 
0.198198 -0.980158 0.00264221 0.382639 -0.837219 -0.390707 -0.847008 0.00720189 0.531531 
-0.803461 0.128675 0.581285 -0.734581 0.282001 0.617144 -0.618441 0.494568 0.610683 
0.774681 -0.045618 -0.630705 0.772889 0.403011 -0.490127 0.538172 0.759894 -0.364598 
-0.697496 -0.388293 -0.602269 0.78475 -0.384363 -0.486243 -0.705421 0.706223 0.0602492 
-0.00248633 0.968926 0.247339 0.495342 0.840693 0.218796 0.973317 0.22643 -0.0371954 
-0.387215 -0.803259 0.452592 -0.599705 -0.649612 0.467288 -0.305015 -0.822177 0.480614 
-0.688014 -0.296704 0.662271 0.431383 -0.887178 -0.163778 0.578953 -0.593174 -0.559426 
-0.703788 0.251155 0.664533 0.762628 -0.240547 -0.600446 0.793715 0.19644 -0.575698 
0.265022 0.915047 -0.304059 0.620063 0.5105 -0.595744 -0.483995 -0.457919 -0.745694 
-0.110484 -0.499007 -0.859526 -0.971599 0.0538959 -0.230415 0.516882 0.844232 0.141793 
0.354704 -0.90734 -0.225653 -0.60526 -0.502625 0.617275 -0.660107 -0.142279 0.737574 
-0.760483 -0.237809 0.604245 -0.643982 -0.239503 0.726585 -0.767766 0.0217634 0.640361 
-0.596913 0.691509 0.406829 0.791403 -0.1223 -0.598936 0.760426 -0.0474654 -0.647687 
0.319587 0.818504 -0.477404 -0.0769753 0.980266 -0.182079 -0.454098 -0.352051 -0.818447 
-0.560233 -0.328671 -0.760338 -0.953764 0.106267 -0.281145 -0.264133 0.956023 0.127493 
-0.374156 -0.802791 0.464256 -0.687795 0.075563 0.721961 -0.708229 0.381988 0.593714 
-0.71149 0.455388 0.535167 0.799062 -0.113278 -0.590482 -0.574622 0.758256 0.30799 
0.0579877 0.852053 -0.520234 0.581442 0.325115 -0.745805 -0.404234 0.904717 0.134472 
-0.507651 -0.163024 -0.845999 -0.761242 -0.0457257 -0.646854 -0.935788 -0.168747 -0.309557 
-0.921903 -0.13114 -0.36455 -0.00332359 0.0192997 -0.999808 -0.921168 -0.0137743 -0.388922 
0.739619 0.137989 -0.658729 0.684382 0.0831933 -0.724362 -0.90543 0.411804 0.103026 
-0.903249 0.405359 -0.140803 -0.618234 0.769295 0.161161 0.282977 -0.940772 -0.186739 
-0.183803 -0.946897 0.263825 0.107792 0.57404 -0.811701 0.515889 0.0344189 -0.855964 
-0.396305 0.551836 -0.733771 -0.623218 0.778817 -0.0710083 -0.0535901 0.0678458 -0.996255 
-0.677564 0.181235 -0.712784 0.810791 -0.319649 -0.490349 -0.979216 0.153659 0.132382 
-0.980614 0.179252 -0.0791478 0.595697 -0.65961 -0.458322 -0.675751 0.44817 0.585238 
0.729875 -0.459937 -0.505709 -0.369695 0.789098 -0.490562 -0.666882 0.702114 -0.249608 
0.425404 -0.349586 -0.834758 -0.623585 0.776932 0.0867109 0.0139467 0.999841 -0.0111493 
0.0944771 -0.994105 -0.0531915 0.32954 -0.884627 -0.329906 0.0943227 -0.995061 -0.0309415 
-0.707094 0.167737 0.686937 -0.727493 0.496978 0.47304 0.886668 -0.273981 -0.372496 
-0.928392 0.298868 -0.220831 0.984663 -0.0348422 -0.170953 0.966605 0.238625 -0.0934529 
-0.871167 0.490529 0.0211689 -0.337518 0.940359 0.0424914 0.105858 -0.993768 -0.0349264 
-0.161266 -0.958799 0.233877 -0.357801 -0.85847 0.367433 0.450411 -0.861426 -0.234679 
-0.781885 0.555196 0.283572 -0.814494 0.543705 0.202444 0.918321 0.39541 -0.0183568 
0.360256 -0.894548 -0.264575 0.457079 -0.784397 -0.419285 0.57236 -0.683995 -0.452278 
-0.173503 -0.970172 0.169304 0.0192108 -0.99834 0.0542942 0.540499 -0.744296 -0.392281 
0.727776 -0.535466 -0.428507 0.27556 0.960955 0.0251387 0.273409 -0.932726 -0.235094 
0.214837 -0.970979 -0.105097 -0.764506 -0.29685 0.572198 0.0212658 -0.999682 -0.0135772 
0.501985 -0.816444 -0.285361 -0.226566 -0.954894 0.191953 -0.761387 0.631671 -0.145882 
-0.552863 0.801844 -0.22669 -0.201928 0.978206 -0.0483573 0.475931 0.879281 0.0188332 
-0.264325 -0.943457 0.200056 0.0576164 -0.992145 0.111032 0.526827 -0.767201 -0.365863 
0.292816 -0.935894 -0.195861 0.731874 -0.605821 -0.311996 -0.874881 0.25813 0.40982 
0.993883 -0.00018177 -0.110436 -0.599687 0.798453 -0.0533772 0.819605 0.570757 -0.0498441 
0.649531 0.759981 -0.023221 0.820658 0.569588 0.0457086 -0.180826 0.98151 -0.0627749 
0.0101124 -0.999604 -0.0262477 0.384411 -0.916052 -0.114357 -0.405572 -0.885423 0.227019 
-0.916288 0.118689 0.382531 -0.929 0.356489 -0.0993757 -0.820943 0.530709 -0.210714 
-0.728371 0.674034 -0.123101 -0.210981 0.977415 -0.0121475 -0.492783 -0.83475 0.245677 
-0.964885 0.138041 0.223476 -0.705032 0.70666 -0.0596802 0.327656 0.94466 0.0161108 
-0.252055 -0.950799 0.180138 -0.144932 -0.96541 0.216743 0.730232 -0.682831 -0.0224233 
-0.656357 -0.696298 0.290454 -0.896176 -0.262781 0.357513 0.798136 -0.585652 -0.141385 
-0.978549 0.0317628 0.203551 -0.478767 -0.835846 0.268596 0.848027 -0.523489 0.0825166 
-0.705312 -0.645461 0.293115 -0.539131 -0.799093 0.26606 0.18137 -0.91732 0.354442 
0.0970136 -0.888623 0.44826 -0.324301 -0.916021 0.23608 0.194767 -0.969337 0.149837 
-0.897481 -0.191539 0.397292 0.660775 0.74709 0.0723473 0.149075 0.986916 0.0614229 
0.251187 -0.954844 0.158677 -0.670153 -0.614212 0.4167 -0.335411 -0.85716 0.390866 
0.511304 -0.85006 0.126354 -0.191005 -0.921696 0.33763 -0.0520325 -0.979418 0.195021 
-0.838605 -0.338703 0.42664 -0.924523 -0.197519 0.32595 0.764018 0.643936 -0.0402861 
0.837219 0.544073 -0.0552168 -0.58811 0.803929 -0.0884608 -0.851298 0.515816 -0.0960514 
-0.420835 0.90242 -0.0923882 0.45017 0.89036 0.067866 0.39856 -0.904649 0.150868 
0.598195 -0.799689 -0.0515767 0.739711 -0.663445 0.112549 0.932547 -0.357331 -0.0516787 
0.997738 0.0647722 0.0179588 0.950704 0.305194 -0.0549418 0.431603 0.880812 0.19465 
0.496974 -0.838779 0.222411 0.793735 -0.598034 -0.111084 0.858117 0.512467 0.0318298 
-0.2185 0.965361 0.142602 0.996217 -0.0863509 -0.00974789 -0.00923286 0.986007 0.166451 
0.794966 -0.606647 0.00267186 0.918482 0.367171 0.146888 -0.509543 0.86006 0.0257465 
0.0228086 0.999698 0.00917858 -0.949365 0.306326 -0.0697879 0.537247 0.840491 -0.0702867 
0.367056 -0.929466 0.0369189 0.641183 -0.743393 0.190397 -0.991725 0.0484133 0.118901 
0.701075 0.69066 0.177434 -0.641291 0.763686 0.0743669 0.502918 0.858097 0.103651 
-0.357434 0.930429 0.0808809 -0.251029 -0.939949 0.231258 0.309735 -0.926177 0.215084 
-0.867181 -0.453661 0.2054 0.795503 -0.580379 0.17417 -0.891966 -0.444296 0.0836504 
-0.971847 -0.2192 0.086397 -0.788396 0.615005 -0.0141418 -0.348745 0.930318 0.113517 
-0.729766 -0.665307 0.157507 -0.847993 -0.529164 0.0299057 -0.934602 0.280675 -0.218495 
-0.012755 0.991092 0.132568 -0.465181 -0.870085 0.16297 0.459573 -0.854616 0.24171 
0.543758 -0.827326 0.140925 0.0793115 -0.969916 0.230158 0.407352 -0.90596 0.115325 
-0.861767 0.41816 -0.287227 -0.463187 0.88248 -0.0817716 -0.628368 0.756873 -0.179711 
-0.302966 0.95291 0.0131644 0.30455 0.948272 0.0896066 -0.83617 0.425271 -0.346359 
0.582915 0.764381 0.275556 -0.0950697 0.995147 0.0254008 0.262816 0.946136 0.18909 
0.364847 0.903717 0.224013 -0.676133 -0.734683 -0.0555557 -0.0419721 -0.99037 0.131928 
0.964593 -0.222572 0.141496 0.983376 0.00694891 0.18145 -0.944135 -0.188135 -0.270581 
0.692825 -0.678372 0.244552 0.86414 -0.363018 0.34854 -0.474677 0.834079 -0.28106 
0.245937 0.968437 -0.0405564 0.309847 -0.916886 0.251625 0.622512 -0.670563 0.403514 
0.816883 -0.457483 0.351301 0.914501 -0.293305 0.278674 0.939603 0.273404 0.205906 
-0.919491 0.227717 -0.320439 0.180172 0.973035 -0.144017 0.365578 0.929294 -0.0525901 
0.4872 -0.836695 0.250154 0.0779776 -0.822752 -0.563026 -0.434007 0.582318 -0.687418 
0.349139 0.647329 -0.677545 0.431903 -0.52435 0.733837 -0.066905 0.810691 0.581639 
-0.975619 -0.0827195 -0.203286 0.523763 0.850489 0.0483718 0.212225 0.974608 -0.0714191 
0.624751 -0.756501 0.19337 -0.668271 -0.68985 -0.278424 -0.324094 -0.593923 0.736355 
-0.982663 0.0126646 -0.184967 0.680457 0.726924 0.0925185 -0.775308 0.575112 -0.261044 
0.581538 0.812838 0.033278 -0.262776 0.931841 -0.250242 0.250369 0.96131 -0.114882 
0.398249 0.917069 -0.0195579 -0.421346 -0.872978 -0.245718 -0.0569 -0.996358 -0.0635121 
0.966464 -0.120217 0.226926 0.756838 0.613856 0.22445 -0.751156 0.632814 -0.187913 
-0.416146 0.878806 -0.233499 0.0257544 0.996088 0.0845342 0.706021 -0.692349 0.148957 
-0.943424 0.309342 -0.119408 0.603687 0.744924 0.28399 0.571568 0.810543 0.127786 
-0.491416 0.870858 0.0107559 -0.759221 -0.624085 -0.184665 0.884673 -0.265336 0.383341 
0.921667 -0.0132964 0.387755 -0.934265 0.344566 -0.0917736 0.529216 0.802502 0.275538 
-0.435692 -0.888424 -0.144487 -0.428593 -0.895687 -0.118543 0.669266 -0.730309 0.136862 
0.894781 -0.320718 0.310656 0.809568 -0.530647 0.251024 -0.999428 0.0144402 0.0305878 
0.788051 0.550184 0.276178 0.674655 0.695289 0.247819 0.252582 0.944908 0.208208 
0.0912089 -0.993761 -0.0641868 0.513634 -0.855229 0.069021 0.902834 -0.408928 0.132926 
0.916803 -0.197018 0.347355 -0.929019 -0.363075 -0.0714089 0.902209 0.209895 0.376781 
-0.978432 0.152189 0.139674 -0.93616 0.325293 0.133377 0.696979 0.598265 0.395346 
-0.886397 0.460055 -0.0514863 0.265598 0.912468 0.311225 0.443275 0.807989 0.388151 
-0.572375 0.819749 0.0199369 -0.452438 -0.881346 -0.136123 -0.436859 -0.89478 -0.0923225 
0.719462 -0.686352 0.106281 -0.979354 0.00621353 0.202057 0.757804 0.373662 0.534893 
0.523503 0.66098 0.537634 0.472069 0.539137 0.697482 -0.812361 0.576245 0.0895094 
0.0422481 -0.994095 -0.0999468 0.891138 -0.358462 0.27817 0.700426 -0.703115 0.122608 
0.437926 -0.890644 0.122373 0.974525 -0.0589183 0.216402 -0.974096 -0.162645 0.157109 
0.615542 0.468388 0.633814 -0.834789 0.138808 0.532785 -0.874013 0.0845845 0.478484 
0.590222 0.459771 0.663513 0.251618 0.396526 0.882868 -0.682086 0.315134 0.659886 
-0.0621335 0.936466 0.345211 -0.677674 0.628776 0.381311 0.149883 -0.986158 0.070901 
0.954601 0.0753051 0.288211 0.633364 0.446431 0.632099 -0.486548 0.281144 0.827181 
-0.0533163 0.324063 0.944532 0.14034 0.651851 0.745249 -0.41946 -0.907765 -0.00411111 
-0.752675 -0.658178 -0.0168222 0.729486 -0.641202 0.23814 0.892827 -0.354974 0.277225 
-0.940502 -0.241259 0.239268 0.931966 0.119332 0.342343 0.835555 0.288387 0.467634 
-0.940606 -0.157698 0.300651 0.373309 0.545233 0.750574 0.197975 0.438275 0.876767 
-0.837408 -0.53929 0.0889674 0.915198 -0.111852 0.387172 0.552084 0.445246 0.704953 
0.606453 0.426994 0.670739 0.0790051 0.50771 0.857898 -0.590293 0.213842 0.778348 
-0.133065 0.406266 0.904014 0.770314 -0.591793 0.237481 -0.927012 -0.3343 0.169977 
-0.604581 -0.795405 0.0425684 0.836317 0.218072 0.503009 0.702273 0.392902 0.593667 
-0.406483 0.419164 0.811833 0.155827 0.550531 0.820143 -0.20042 0.504435 0.839867 