# vtk DataFile Version 4.2
vtk output
ASCII
DATASET POLYDATA
POINTS 981 float
319.062 41.5901 129.154 318.994 41.6081 129.186 319.211 41.527 129.248 
318.983 41.6882 129.101 318.923 41.7088 129.198 319.13 41.6508 129.128 
318.926 41.7968 129.109 318.884 41.8885 129.252 319.027 41.7941 129.078 
318.952 41.9085 129.117 319.688 41.5367 129.39 318.91 41.7132 129.412 
319.524 41.7229 129.256 318.858 41.8743 129.494 319.361 41.9675 129.181 
318.961 42.1013 129.222 319.161 42.1567 129.182 319.355 42.1742 129.213 
318.91 42.2908 129.37 318.871 42.3624 129.577 319.055 42.3614 129.303 
318.933 42.5519 129.654 319.052 42.5452 129.425 319.003 42.6046 129.541 
319.041 41.531 129.665 321.002 41.3623 130.154 318.867 41.941 129.789 
320.109 41.9102 129.57 319.523 42.2758 129.33 319.461 42.4461 129.415 
318.982 42.6136 129.949 319.134 42.6651 129.565 319.338 42.7151 129.656 
319.602 42.6069 129.654 319.079 42.7021 129.77 321.409 40.9257 130.624 
322.181 41.1131 131.028 318.964 41.7229 130.125 321.435 41.7195 130.459 
318.917 41.9803 130.221 320.081 42.3123 129.702 319.045 42.3064 130.719 
319.225 42.7636 129.743 319.374 42.8081 129.843 319.928 42.7216 130.023 
322.669 40.8871 131.453 321.622 42.131 130.707 321.831 42.2755 130.975 
319.527 42.8481 130.051 320.835 42.7816 130.872 319.195 42.7647 130.394 
319.669 42.8735 130.433 320.016 42.8854 130.555 321.757 40.2705 131.487 
321.279 40.1503 131.835 324.265 41.0313 132.546 321.313 42.8169 131.235 
321.554 42.7906 131.344 321.828 42.6939 131.462 321.722 42.8073 131.565 
321.1 39.8821 133.095 323.477 39.8607 133.125 324.584 41.1145 132.801 
324.943 40.9219 133.128 323.598 41.7276 132.136 323.16 42.1192 132.046 
322.403 42.5291 131.846 321.731 42.848 131.824 325.845 40.3092 134.253 
326.213 40.8242 134.293 324.748 42.0314 133.479 320.074 42.4126 133.698 
320.509 42.7805 133.31 326.927 40.5611 135.055 319.817 41.3862 134.232 
326.604 41.151 134.704 319.928 41.4618 134.721 321.06 42.8336 134.423 
324.851 42.6239 134.551 328.139 40.0069 136.307 320.863 39.9095 135.859 
323.301 38.9956 135.413 326.609 41.4217 134.833 327.064 41.5366 135.369 
320.189 41.7272 135.381 320.808 42.487 135.182 322.179 43.024 134.724 
320.666 40.2445 136.647 328.246 40.8412 136.304 320.375 40.9914 136.318 
320.78 42.1779 135.949 326.211 42.4468 135.531 321.904 39.0535 138.022 
323.314 38.4665 137.641 330.604 39.9534 138.556 329.789 41.1188 137.944 
320.581 41.2768 136.941 320.791 41.6484 137.173 322.695 42.8521 137.149 
323.448 43.0205 137.171 324.983 43.1122 137.041 331.14 39.4934 139.076 
330.253 40.7351 138.245 328.902 42.1263 138.006 321.338 42.0711 137.604 
332.273 39.2141 140.084 331.662 39.2362 139.716 322.118 38.975 140.413 
334.186 38.8557 141.795 334.41 39.3596 141.701 321.648 40.962 140.978 
323.02 42.2905 140.44 323.752 42.7662 139.784 325.973 43.0573 139.849 
331.159 42.1788 140.43 322.719 38.5243 141.062 329.819 37.6209 141.002 
330.825 37.7317 141.233 334.023 39.9718 141.402 321.769 41.0101 141.643 
333.481 38.2968 141.84 335.81 39.2804 142.899 321.911 40.4112 142.817 
334.242 40.7176 141.839 321.952 40.8615 142.399 335.047 41.0241 142.694 
337.058 38.9822 143.908 337.435 38.6944 144.292 322.107 39.5435 143.023 
322.055 39.7651 143.191 322.001 40.551 143.062 322.157 40.6132 143.38 
322.309 41.0129 142.996 323.893 42.0178 143.081 334.932 41.7014 143.545 
337.841 38.2621 144.864 322.288 39.733 143.999 335.689 41.2541 143.509 
322.708 39.6964 145.108 339.733 39.5653 145.87 334.733 42.1448 144.921 
323.741 38.2621 145.964 341.373 37.9007 147.192 340.313 38.4557 146.369 
323.247 40.3999 145.844 338.276 40.8008 145.543 338.778 40.5063 145.671 
332.045 42.6319 146.039 333.859 42.4631 146.248 334.004 42.4337 145.735 
341.145 37.0412 147.67 342.693 37.4715 148.151 343.222 37.5379 148.387 
342.483 38.4531 147.796 323.26 39.3953 146.365 323.557 38.9883 146.789 
342.447 39.3246 148.044 323.314 39.9979 146.357 334.952 42.294 146.437 
338.3 41.1725 146.264 340.199 36.3581 147.958 343.915 37.9586 148.802 
323.876 39.4571 147.671 337.98 41.5693 147.377 338.822 41.3236 147.504 
338.312 35.4534 148.776 346.573 36.8194 150.455 346.354 36.385 150.527 
347.993 36.534 151.056 324.615 38.1556 148.817 324.23 38.9821 148.468 
343.737 38.982 149.002 343.155 39.4509 148.83 344.51 39.1973 149.916 
324.351 39.7395 148.486 343.553 39.738 149.699 325.022 40.5996 148.516 
325.196 41.0146 148.04 342.156 40.2566 148.944 345.172 35.774 150.512 
347.07 35.9499 151.008 349.057 36.479 151.452 348.245 37.2604 151.125 
348.705 37.0054 151.289 324.868 38.2246 149.683 348.651 37.2798 151.337 
324.541 39.4608 149.041 326.829 41.2377 149.583 342.478 40.3324 149.853 
354.262 34.5998 153.275 354.096 34.6697 153.247 354.398 34.5943 153.305 
328.016 35.5778 150.951 345.671 34.8779 151.584 351.067 35.7591 152.304 
354.526 34.6359 153.357 349.871 36.5541 151.798 348.904 37.4363 151.569 
345.643 39.1401 151.102 344.572 39.6884 151.125 341.566 40.6819 150.337 
353.819 34.6619 153.263 354.878 34.559 153.584 327.416 35.8533 152.767 
339.624 34.163 151.859 349.303 34.7775 152.508 352.638 35.2623 152.867 
354.498 34.825 153.335 326.136 36.9478 151.625 351.965 35.9886 152.579 
352.484 35.5987 152.753 350.452 37.1926 152.317 325.621 39.4365 151.137 
342.366 40.2719 152.378 330.684 41.3143 151.642 341.302 40.6302 151.546 
343.229 40.1545 151.785 355.516 33.9259 154.33 340.893 33.8741 152.639 
344.862 33.6864 153.404 351.781 34.1853 153.559 353.07 34.8236 153.152 
355.955 34.4193 154.04 355.546 34.7537 153.74 326.227 37.0506 152.262 
354.053 35.7285 153.19 354.902 35.2947 153.385 352.747 36.4884 152.976 
354.727 35.6872 153.342 354.735 36.0476 153.446 358.283 35.5824 154.591 
353.054 36.8457 153.291 355.711 36.2796 153.839 343.856 39.6082 153.837 
358 40.0087 153.017 358 40.0087 153.017 358 40.0087 153.017 
358 40.0087 153.017 348.487 38.5804 153.356 358 40.0088 153.017 
342.907 33.2939 154.37 354.902 33.8848 154.253 358.01 34.1045 154.718 
345.695 33.4613 153.988 361.191 33.7327 155.252 360.902 33.9144 155.183 
327.625 35.7886 154.042 359.925 34.3827 154.962 360.529 34.2573 155.168 
357.669 35.6424 154.402 358.958 35.1156 154.799 326.471 37.5595 153.521 
353.773 37.0476 153.745 352.533 37.5978 153.908 354.385 37.2118 154.192 
347.858 38.6825 154.455 354.516 37.391 154.514 354.85 37.3797 154.701 
358 40.0087 153.017 356.602 36.7207 154.753 335.955 40.8943 152.991 
357.129 33.4602 155.23 357.633 33.2901 155.56 362.282 33.2709 155.533 
362.694 33.1412 155.552 348.887 33.1403 155.162 355.693 33.4596 155.092 
358.412 33.4932 155.274 361.387 33.4588 155.418 362.128 33.4067 155.448 
361.914 33.4054 155.47 362.784 33.1937 155.501 362.675 33.2569 155.479 
362.866 33.2047 155.482 362.923 33.1856 155.484 336.917 33.4116 154.597 
361.604 33.6784 155.372 362.255 33.4184 155.448 362.53 33.3182 155.472 
362.741 33.2389 155.484 360.949 34.0248 155.405 361.836 33.5939 155.449 
327.159 36.504 154.436 359.25 35.1141 155.068 327.241 36.6555 154.857 
358.445 35.7327 155.338 357.009 36.6466 155.285 353.929 37.5991 154.794 
356.363 36.9575 155.1 328.244 39.5968 153.988 354.302 37.5491 154.947 
356.406 33.1922 155.895 360.173 33.2445 155.731 361.719 33.2947 155.544 
362.097 33.2545 155.566 362.093 33.1864 155.589 362.469 33.1065 155.601 
362.904 33.0327 155.588 363.007 32.9946 155.597 363.013 32.9901 155.598 
333.796 33.4848 155.582 346.604 32.9531 155.623 350.487 33.0594 155.677 
361.761 33.403 155.56 362.129 33.3758 155.514 362.016 33.2784 155.607 
362.939 33.0106 155.597 362.886 33.1856 155.491 361.589 33.6187 155.529 
358.137 35.822 155.623 358.059 36.0335 155.498 358.081 36.0318 155.4 
356.024 36.8398 155.842 356.207 36.6572 155.98 357.83 36.2011 155.416 
327.649 37.6671 155.616 343.926 38.8539 155.801 347.688 38.4925 155.445 
354.386 37.4868 155.221 358.838 33.099 156.262 359.134 33.1917 156.288 
347.504 32.8115 156.466 349.199 32.8752 156.322 352.029 33.0596 156.118 
352.564 33.0765 156.562 359.828 33.2307 155.989 361.355 33.2 155.709 
361.991 33.1562 155.645 362.444 33.1072 155.617 362.093 33.1652 155.654 
362.763 33.0473 155.6 362.941 33.0087 155.597 360.955 33.5219 155.819 
356.122 35.8933 156.58 357.997 36.1092 155.457 345.706 37.6652 157.435 
358.251 33.0848 156.545 358.769 33.1542 156.488 359.663 33.4257 156.177 
358.823 33.3538 156.478 360.512 33.3099 155.931 332.76 33.693 157.533 
342.718 32.9298 157.049 329.006 35.2728 157.42 336.02 33.1168 157.491 
353.46 35.9712 157.419 328.081 36.8843 156.779 353.343 36.4173 157.101 
343.095 37.961 157.465 351.159 37.1302 156.917 351.555 36.6282 157.36 
333.4 38.8631 157.207 353.77 37.1721 156.24 357.487 33.267 156.734 
358.536 33.0899 156.57 358.568 33.1645 156.597 346.805 32.8922 157.803 
349.121 32.8147 157.786 350.705 33.1002 157.843 354.748 33.5834 157.276 
356.195 33.3677 156.878 358.372 33.1427 156.657 329.691 34.891 158.227 
330.542 34.5193 158.565 351.614 33.7642 158.351 351.773 33.6394 158.212 
329.655 35.0486 158.48 351.402 33.9255 158.459 351.468 34.3391 158.485 
353.424 35.0691 157.824 328.855 37.3206 157.786 330.817 38.3067 157.721 
348.336 32.8846 158.185 348.318 32.9978 158.421 349.557 32.9407 158.29 
349.734 33.0326 158.362 358.477 33.0989 156.631 330.83 34.6073 159.145 
335.859 33.5995 158.849 341.004 33.4384 158.907 344.183 33.0252 157.952 
345.985 33.2774 158.511 350.137 33.2066 158.338 352.256 33.3518 157.74 
330.169 34.8476 158.965 354.464 34.0463 157.661 350.553 34.1283 158.65 
350.613 34.6824 158.643 329.372 35.8694 158.771 350.483 35.1497 158.506 
340.79 36.6532 159.195 345.018 36.3469 158.894 346.619 36.1395 158.741 
329.011 36.9613 158.215 334.223 37.3778 158.941 347.936 33.1804 158.565 
349.135 33.0469 158.5 349.451 32.9954 158.419 330.634 34.7024 159.222 
330.415 34.7651 159.138 330.856 34.7458 159.293 341.23 33.7022 159.333 
348.502 33.3187 158.708 331.235 34.6778 159.243 335.308 34.0959 159.331 
[...]
POINT_DATA 981
SCALARS scalars float
LOOKUP_TABLE default
1 1 1 1 1 1 1 1 1 
1 1 1 1 1 1 1 1 1 
1 1 1 1 1 1 1 1 1 
1 1 1 1 1 1 1 1 1 
1 1 1 1 1 1 1 1 1 
1 1 1 1 1 1 1 1 1 
1 1 1 1 1 1 1 1 1 
1 1 1 1 1 1 1 1 1 
1 1 1 1 1 1 1 1 1 
1 1 1 1 1 1 1 1 1 
1 1 1 1 1 1 1 1 1 
1 1 1 1 1 1 1 1 1 
1 1 1 1 1 1 1 1 1 
1 1 1 1 1 1 1 1 1 
1 1 1 1 1 1 1 1 1 
1 1 1 1 1 1 1 1 1 
1 1 1 1 1 1 1 1 1 
1 1 1 1 1 1 1 1 1 
1 1 1 1 1 1 1 1 1 
1 1 1 1 1 1 1 1 1 
1 1 1 1 1 1 1 1 1 
1 1 1 1 1 1 1 1 1 
1 1 1 1 1 1 1 1 1 
1 1 1 1 1 1 1 1 1 
1 1 1 1 1 1 1 1 1 
1 1 1 1 1 1 1 1 1 
1 1 1 1 1 1 1 1 1 
1 1 1 1 1 1 1 1 1 
1 1 1 1 1 1 1 1 1 
1 1 1 1 1 1 1 1 1 
1 1 1 1 1 1 1 1 1 
1 1 1 1 1 1 1 1 1 
1 1 1 1 1 1 1 1 1 
1 1 1 1 1 1 1 1 1 
1 1 1 1 1 1 1 1 1 
1 1 1 1 1 1 1 1 1 
1 1 1 1 1 1 1 1 1 
1 1 1 1 1 1 1 1 1 
1 1 1 1 1 1 1 1 1 
1 1 1 1 1 1 1 1 1 
1 1 1 1 1 1 1 1 1 
1 1 1 1 1 1 1 1 1 
1 1 1 1 1 1 1 1 1 
1 1 1 1 1 1 1 1 1 
1 1 1 1 1 1 1 1 1 
1 1 1 1 1 1 1 1 1 
1 1 1 1 1 1 1 1 1 
1 1 1 1 1 1 1 1 1 
1 1 1 1 1 1 1 1 1 
1 1 1 1 1 1 1 1 1 
1 1 1 1 1 1 1 1 1 
1 1 1 1 1 1 1 1 1 
1 1 1 1 1 1 1 1 1 
1 1 1 1 1 1 1 1 1 
1 1 1 1 1 1 1 1 1 
1 1 1 1 1 1 1 1 1 
1 1 1 1 1 1 1 1 1 
1 1 1 1 1 1 1 1 1 
1 1 1 1 1 1 1 1 1 
1 1 1 1 1 1 1 1 1 
1 1 1 1 1 1 1 1 1 
1 1 1 1 1 1 1 1 1 
1 1 1 1 1 1 1 1 1 
1 1 1 1 1 1 1 1 1 
1 1 1 1 1 1 1 1 1 
1 1 1 1 1 1 1 1 1 
1 1 1 1 1 1 1 1 1 
1 1 1 1 1 1 1 1 1 
1 1 1 1 1 1 1 1 1 
1 1 1 1 1 1 1 1 1 
1 1 1 1 1 1 1 1 1 
1 1 1 1 1 1 1 1 1 
1 1 1 1 1 1 1 1 1 
1 1 1 1 1 1 1 1 1 
1 1 1 1 1 1 1 1 1 
1 1 1 1 1 1 1 1 1 
1 1 1 1 1 1 1 1 1 
1 1 1 1 1 1 1 1 1 
1 1 1 1 1 1 1 1 1 
1 1 1 1 1 1 1 1 1 
1 1 1 1 1 1 1 1 1 
1 1 1 1 1 1 1 1 1 
1 1 1 1 1 1 1 1 1 
1 1 1 1 1 1 1 1 1 
1 1 1 1 1 1 1 1 1 
1 1 1 1 1 1 1 1 1 
1 1 1 1 1 1 1 1 1 
1 1 1 1 1 1 1 1 1 
1 1 1 1 1 1 1 1 1 
1 1 1 1 1 1 1 1 1 
1 1 1 1 1 1 1 1 1 
1 1 1 1 1 1 1 1 1 
1 1 1 1 1 1 1 1 1 
1 1 1 1 1 1 1 1 1 
1 1 1 1 1 1 1 1 1 
1 1 1 1 1 1 1 1 1 
1 1 1 1 1 1 1 1 1 
1 1 1 1 1 1 1 1 1 
1 1 1 1 1 1 1 1 1 
1 1 1 1 1 1 1 1 1 
1 1 1 1 1 1 1 1 1 
1 1 1 1 1 1 1 1 1 
1 1 1 1 1 1 1 1 1 
1 1 1 1 1 1 1 1 1 
1 1 1 1 1 1 1 1 1 
1 1 1 1 1 1 1 1 1 
1 1 1 1 1 1 1 1 1 
1 1 1 1 1 1 1 1 1 
1 1 1 1 1 1 1 1 1 

NORMALS Normals float
-0.158086 -0.79083 -0.591267 -0.554192 -0.796933 -0.240351 0.177743 -0.679439 -0.711878 
-0.411502 -0.446213 -0.794708 -0.898187 -0.377304 -0.225614 0.241054 -0.339258 -0.909284 
-0.740956 -0.0628244 -0.668609 -0.961621 0.0305079 -0.272679 0.00272728 0.109537 -0.993979 
-0.535686 0.321613 -0.780773 0.358915 -0.46821 -0.80744 -0.911405 -0.411437 -0.00772842 
0.435509 -0.0932787 -0.895339 -0.984587 -0.17378 0.0197059 0.347391 0.076696 -0.934579 
-0.467973 0.385512 -0.795225 -0.0301608 0.336807 -0.94109 0.209013 0.422365 -0.881999 
-0.883875 0.265987 -0.384729 -0.960812 0.247277 -0.12528 -0.35731 0.490112 -0.795059 
-0.887622 0.460562 0.00325803 -0.0467283 0.67412 -0.737142 -0.666739 0.624448 -0.406847 
-0.827137 -0.559624 0.051631 0.440981 -0.119536 -0.889521 -0.993883 -0.0686075 0.0865415 
0.463742 -0.0703424 -0.883174 0.486166 0.339563 -0.805195 0.278677 0.60409 -0.746602 
-0.901386 0.418188 0.11235 -0.190353 0.864662 -0.464892 0.203776 0.801454 -0.56227 
0.35119 0.701665 -0.619945 -0.512593 0.855506 -0.0731995 0.417636 -0.46841 -0.778571 
0.544945 -0.309154 -0.779397 -0.922916 -0.344709 0.17147 0.606548 0.0692316 -0.792026 
-0.97636 -0.0604355 0.207531 0.482838 0.445441 -0.753956 -0.947555 0.153371 0.280388 
-0.195905 0.939023 -0.28259 -0.13963 0.980782 -0.136273 0.328081 0.833054 -0.445403 
0.550006 -0.354563 -0.75616 0.501418 0.492683 -0.711227 0.583783 0.483688 -0.652107 
0.206589 0.92519 -0.318345 0.124895 0.985128 -0.118004 -0.529347 0.803339 0.272835 
-0.0907743 0.995237 0.035539 -0.045682 0.973195 0.225398 0.15221 -0.849995 -0.504322 
-0.466642 -0.84272 -0.268453 0.622677 -0.00740799 -0.782444 0.319651 0.778632 -0.539959 
0.337686 0.810008 -0.479432 0.492592 0.687053 -0.534145 0.424406 0.872043 -0.243764 
-0.315794 -0.920667 -0.229447 0.287699 -0.881401 -0.374649 0.565251 -0.134098 -0.813947 
0.601239 -0.208617 -0.771357 0.578796 0.340817 -0.740837 0.510088 0.695386 -0.50621 
0.515106 0.721464 -0.46277 0.249904 0.962502 -0.105539 0.480924 -0.566689 -0.669012 
0.656679 0.0315062 -0.753512 0.61305 0.466584 -0.637549 -0.700967 0.668209 0.249285 
-0.16924 0.985 0.0336573 0.740176 -0.0479125 -0.670704 -0.963789 0.134211 0.23043 
0.725541 0.190908 -0.66117 -0.976164 -0.023812 0.215725 -0.368703 0.906864 0.204096 
0.357578 0.855288 -0.374993 0.601606 -0.385839 -0.699428 -0.778606 -0.627304 0.0162231 
-0.0705847 -0.975642 -0.207704 0.664923 0.392943 -0.635195 0.670424 0.362147 -0.647597 
-0.857825 0.442327 0.261692 -0.509044 0.819615 0.262881 -0.103985 0.994426 0.0174092 
-0.893112 -0.424487 0.148871 0.677045 0.297009 -0.673347 -0.964157 -0.159709 0.211885 
-0.691338 0.660432 0.293056 0.493954 0.768017 -0.407627 -0.634169 -0.772907 -0.0210923 
-0.164493 -0.979596 -0.115476 0.529882 -0.410555 -0.742071 0.664678 0.317919 -0.676115 
-0.944414 0.178713 0.275942 -0.731488 0.641933 0.229887 -0.364124 0.925972 0.099948 
-0.219312 0.975137 0.03179 0.0900129 0.980487 -0.174766 0.547592 -0.380197 -0.745381 
0.692865 0.261104 -0.672133 0.544583 0.705046 -0.454247 -0.481101 0.835255 0.266253 
0.541125 -0.197205 -0.817492 0.514037 -0.432035 -0.74102 -0.670913 -0.740527 0.0386746 
0.510806 -0.451412 -0.731645 0.592351 -0.0966451 -0.799862 -0.779074 0.585593 0.223886 
-0.472199 0.825612 0.308857 -0.227879 0.953332 0.198062 -0.0475151 0.989623 0.135606 
0.396623 0.845586 -0.357316 -0.626695 -0.771244 0.111514 0.141486 -0.866138 -0.479361 
0.237505 -0.829746 -0.505087 0.558747 0.0111169 -0.829264 -0.786496 0.581582 0.207816 
0.426598 -0.657668 -0.620876 0.628539 -0.165663 -0.759931 -0.964757 0.0662433 0.254669 
0.594974 0.349993 -0.72354 -0.774121 0.581777 0.249542 0.537811 0.507077 -0.673523 
0.477824 -0.416762 -0.773301 0.454996 -0.424355 -0.782881 -0.877819 -0.45236 0.157494 
-0.958541 -0.227446 0.171661 -0.89355 0.297589 0.336169 -0.838388 0.338974 0.426851 
-0.657656 0.682487 0.318905 -0.420304 0.872098 0.250577 0.351818 0.847686 -0.397055 
0.371669 -0.646902 -0.665868 -0.902879 -0.303298 0.304663 0.486481 0.778531 -0.396517 
-0.925236 -0.0428137 0.376968 0.595088 0.22122 -0.772614 0.298239 0.938736 -0.172711 
-0.664461 -0.740178 0.103096 0.379941 -0.409703 -0.82933 0.526854 -0.250534 -0.812193 
-0.790619 0.491518 0.365146 0.327333 0.711007 -0.622352 0.533394 0.623652 -0.571445 
0.0416292 0.99707 0.0641679 0.185734 0.96644 0.177475 0.19969 0.976046 -0.0863586 
0.294082 -0.607608 -0.737786 0.422619 -0.577041 -0.698868 0.560264 -0.146359 -0.815281 
0.576188 -0.0277849 -0.816845 -0.907091 0.0796515 0.41333 -0.891819 -0.300009 0.338605 
0.601007 0.340585 -0.723044 -0.847363 0.294847 0.441634 0.194799 0.972473 0.127868 
0.28277 0.880393 -0.380721 0.336929 -0.71751 -0.609637 0.512673 -0.0768615 -0.855137 
-0.916292 0.100107 0.387799 0.18016 0.972675 -0.146446 0.351765 0.926759 -0.131827 
0.159819 -0.900366 -0.404721 0.323605 -0.293526 -0.899512 0.255697 -0.465357 -0.847385 
0.362574 -0.361108 -0.859152 -0.883632 -0.340251 0.321596 -0.907968 -0.0566102 0.415197 
0.593075 0.474292 -0.650623 0.545489 0.685565 -0.482123 0.556686 0.660277 -0.504118 
-0.839527 0.356378 0.410109 0.426617 0.880263 -0.207688 -0.706635 0.577637 0.408659 
-0.479834 0.820691 0.310203 0.478292 0.786188 -0.391338 0.269318 -0.614317 -0.741675 
0.359932 -0.575156 -0.734605 0.475083 -0.0648002 -0.877552 0.440471 0.250822 -0.862017 
0.462629 0.105428 -0.880261 -0.883006 -0.412926 0.223141 0.535183 0.309155 -0.786132 
-0.884056 0.156456 0.440417 -0.315953 0.906672 0.279498 0.457575 0.877599 -0.142988 
0.129922 -0.313131 -0.940781 0.0336019 0.0798025 -0.996244 0.320674 -0.383348 -0.866148 
-0.245315 -0.960684 -0.130027 0.171846 -0.800252 -0.574513 0.348091 -0.228915 -0.909082 
0.395854 0.00303162 -0.918309 0.39049 -0.0376413 -0.919837 0.439969 0.415884 -0.795907 
0.438981 0.848609 -0.295226 0.427179 0.892374 -0.145557 0.299268 0.952105 0.0627333 
0.000761358 -0.400259 -0.916402 0.370393 -0.413989 -0.831518 -0.66152 -0.745117 0.0848033 
0.071034 -0.945289 -0.318406 0.195954 -0.636757 -0.745749 0.19752 -0.362755 -0.910711 
0.23729 -0.0262048 -0.971085 -0.873262 -0.473692 0.114145 0.25364 -0.0120904 -0.967223 
0.285788 -0.0771908 -0.955179 0.403161 0.375199 -0.834678 -0.691307 0.54932 0.469405 
0.133995 0.98456 0.112637 -0.0641824 0.970503 0.232389 0.188928 0.962887 0.192754 
0.280912 0.95843 0.0499958 0.188359 -0.757244 -0.625382 0.0160367 -0.909229 -0.415987 
0.0121023 -0.926693 -0.375623 0.0544308 -0.76028 -0.647311 0.160261 -0.337835 -0.927461 
0.373108 -0.376542 -0.847942 0.469874 -0.217385 -0.855548 -0.883647 -0.423378 0.199797 
0.275091 0.234768 -0.932314 0.444516 0.065561 -0.893368 0.245357 0.365624 -0.897842 
0.320395 0.098988 -0.942098 0.322805 0.308273 -0.894855 0.511979 0.668349 -0.539618 
0.276518 0.559205 -0.781555 0.316582 0.578818 -0.751496 0.120746 0.95216 0.280734 
0 -0.992278 -0.124035 0 -1 0 -0.242536 -0.970143 0 
0.242536 -0.970143 0 0.292939 0.955743 -0.0272537 0 1 0 
-0.00186391 -0.952195 -0.305484 0.0965583 -0.815603 -0.570498 0.0993118 -0.619833 -0.778424 
0.0910268 -0.92041 -0.380209 0.0786357 -0.30046 -0.950547 0.170503 -0.163612 -0.971679 
-0.649798 -0.747337 0.138741 0.351631 0.120558 -0.928343 0.483126 0.623171 -0.615017 
0.335296 0.208189 -0.918822 0.528917 0.580975 -0.61864 -0.932694 -0.14202 0.331531 
0.262849 0.58499 -0.767266 0.310085 0.78383 -0.538013 0.263603 0.787412 -0.557222 
0.255369 0.952865 0.163814 0.204623 0.894911 -0.396566 0.38362 0.916417 -0.114087 
0 -0.992278 0.124035 0.373591 0.765318 -0.524135 0.0834563 0.934379 0.346369 
0.00202934 -0.902267 -0.431172 -0.0421262 -0.911598 -0.408919 -0.147389 -0.361024 -0.920836 
-0.118757 -0.531552 -0.838659 0.0239791 -0.952674 -0.303046 0.0480169 -0.921382 -0.38568 
0.0184373 -0.772942 -0.634209 0.0141895 -0.639326 -0.768805 0.012004 -0.34607 -0.938132 
-0.120136 -0.899154 -0.42082 -0.134293 -0.532911 -0.835447 0.0119331 -0.153809 -0.988028 
-0.127285 -0.525007 -0.841526 0.14611 0.543303 0.826725 -0.005448 -0.978058 -0.208261 
0.393257 0.559353 -0.729708 0.261292 0.488414 -0.832574 0.333028 0.833201 0.441439 
0.255652 0.828429 0.498344 0.511931 0.857898 0.044028 0.393905 0.915906 0.0771739 
-0.824794 -0.51901 0.224371 0.552989 0.746217 -0.370626 -0.869873 -0.314474 0.380035 
0.557184 0.805819 -0.200504 0.481095 0.870883 -0.100554 0.142737 0.989306 -0.0300031 
0.363029 0.929136 -0.0701208 -0.343604 0.80647 0.481189 0.20148 0.978438 -0.0454308 
-0.115086 -0.986726 -0.114575 -0.00997594 -0.926242 -0.376797 0.0653098 -0.320904 -0.944857 
0.0321244 0.119256 -0.992344 -0.0693617 -0.671749 -0.737524 -0.126185 -0.670271 -0.73131 
-0.120541 -0.566449 -0.815233 0.121228 0.505714 0.854141 0.0620832 0.286503 0.956066 
-0.24301 -0.968538 -0.0536725 0.0313825 -0.978487 -0.203906 0.0669287 -0.959565 -0.273415 
0.925314 0.316654 0.208626 0.0295857 -0.0702526 0.99709 0.237499 0.730628 0.640138 
0.0686096 0.276113 0.958673 0.147706 0.504719 0.850554 0.315579 0.559231 0.766596 
0.465752 0.57197 0.675222 0.639947 0.624141 0.448236 0.699094 0.711578 -0.0701819 
0.248516 0.777658 0.577484 0.350515 0.752816 0.557142 0.47525 0.859581 -0.187771 
-0.816368 0.306458 0.489516 0.0505113 0.919971 0.388718 0.215011 0.917835 0.333689 
0.296834 0.900149 0.318782 0.105256 -0.994377 -0.0116656 0.381712 -0.613248 0.691537 
-0.124198 -0.98869 -0.0840658 0.0335665 -0.996837 -0.0720329 0.0377542 -0.970767 -0.237035 
0.0878194 -0.982875 0.161999 0.188124 -0.825011 0.532885 -0.0123197 -0.981827 0.189376 
-0.096421 -0.995339 -0.00184434 0.0960511 -0.0997927 0.990361 0.0900301 -0.354442 0.930734 
0.134401 0.527129 0.83909 0.0581589 0.248737 0.966823 0.2884 0.35163 0.890608 
0.28478 0.450862 0.845946 0.472658 0.784418 0.4016 0.14351 0.761018 0.632658 
-0.0646124 -0.988876 0.133978 0.46031 -0.341279 0.819539 0.30284 -0.068122 0.950604 
0.368475 0.0372586 0.928891 0.182755 -0.316625 0.930779 -0.212983 -0.971671 0.102443 
0.0139933 -0.998513 -0.0526792 -0.649686 -0.744677 0.152852 -0.100044 -0.993557 0.0532537 
0.144252 0.478102 0.866377 -0.880507 -0.00693139 0.473982 0.076965 0.597319 0.798302 
0.0184788 0.834068 0.551353 0.127007 0.773991 0.620328 0.16797 0.561677 0.810127 
-0.0338159 0.798415 0.601157 0.239364 0.832279 0.500017 -0.0153695 -0.766267 0.642338 
0.312699 -0.837917 0.447342 0.425867 -0.142818 0.893443 -0.215695 -0.955835 0.199638 
0.0455879 -0.989 0.140711 0.156194 -0.953919 0.256207 0.0875036 -0.808008 0.582637 
-0.0740566 -0.941763 0.32802 0.17259 -0.193276 0.965845 -0.671111 -0.711516 0.208218 
-0.258974 -0.949363 0.177885 0.282347 -0.39132 0.87587 0.210711 -0.688552 0.6939 
-0.779784 -0.521212 0.346807 0.0732563 -0.447119 0.89147 0.283114 0.18725 0.94063 
0.0664907 0.359108 0.930924 -0.644559 0.524624 0.55616 -0.182183 0.802551 0.568086 
-0.0734526 -0.978466 0.192895 -0.0821452 -0.794148 0.602147 0.181895 -0.943494 0.277008 
0.303034 -0.769203 0.56258 0.184714 -0.658141 0.729885 -0.158119 -0.896491 0.413888 
-0.0511778 -0.911365 0.408405 0.00490443 -0.90245 0.430767 0.0359437 -0.944926 0.325305 
-0.0926353 -0.948261 0.303677 0.266699 -0.641357 0.719398 0.327076 -0.698919 0.636029 
-0.616564 -0.694996 0.369905 0.28823 -0.103293 0.951974 0.0784357 -0.166801 0.982866 
-0.174407 0.127569 0.976375 -0.819248 -0.278999 0.500991 0.0752267 0.37919 0.922256 
0.12256 0.631769 0.765406 0.152888 0.571392 0.80631 0.194094 0.391029 0.89968 
-0.762042 0.270332 0.588398 0.056942 0.683653 0.727582 -0.126677 -0.704708 0.698097 
0.0513414 -0.752852 0.656184 0.16798 -0.629642 0.758507 -0.335539 -0.670335 0.661864 
-0.399062 -0.437918 0.805591 -0.10146 -0.532396 0.840393 0.0345586 -0.723594 0.68936 
-0.0352524 -0.512042 0.858237 -0.0124916 -0.716691 0.697279 -0.200544 -0.767023 0.609473 
0.0423915 -0.738347 0.673087 0.0727859 -0.246686 0.966358 -0.705572 -0.305731 0.639294 
-0.0517351 -0.623475 0.780129 0.131227 0.161372 0.97813 0.202904 0.218482 0.954513 
0.152991 0.387002 0.909298 0.163588 0.289997 0.942942 0.304634 0.436225 0.846703 
-0.76851 0.0121051 0.639723 -0.0339311 0.397493 0.916978 -0.633655 0.257094 0.729646 
0.0949341 -0.685879 0.721497 0.0118871 -0.674441 0.738233 0.162124 -0.466569 0.869499 
-0.167831 -0.247359 0.954278 -0.00619397 -0.389287 0.921096 -0.0127546 -0.249244 0.968357 
0.0371087 -0.23674 0.970864 0.113033 -0.169829 0.97897 -0.0277738 -0.124779 0.991796 
-0.0683054 -0.219743 0.973164 0.213813 0.283792 0.934744 0.176714 -0.206169 0.962427 
-0.516864 -0.207216 0.83061 -0.113394 0.113951 0.986994 -0.00839255 0.20837 0.978014 
0.112985 0.418491 0.901166 -0.551126 0.305375 0.776535 -0.0130104 0.512949 0.85832 
-0.353412 0.653359 0.669493 -0.275527 0.603295 0.748412 -0.254454 -0.0370715 0.966374 
-0.359161 0.3435 0.867762 0.0176445 -0.0307789 -0.999371 0.132932 -0.062858 -0.98913 
-0.384737 0.268465 -0.883122 -0.462974 -0.106982 -0.879892 -0.0929717 0.22547 -0.969804 
-0.27346 -0.694731 -0.665259 -0.344817 -0.490508 -0.800314 -0.168531 -0.758344 -0.629691 
-0.175397 -0.364183 -0.914662 -0.0522984 -0.570731 -0.81947 -0.0811751 -0.386194 -0.918839 
-0.0312086 -0.460944 -0.88688 0.164611 -0.017894 -0.986196 0.0597056 -0.559083 -0.826959 
-0.111886 -0.259715 -0.959182 -0.0567517 0.0167372 -0.998248 0.0694289 -0.270527 -0.960205 
0.0216777 -0.160283 -0.986833 0.228754 0.0570156 -0.971813 0.135234 0.0596891 -0.989014 
0.190452 0.42335 -0.885721 0.0746205 0.293454 -0.953056 -0.507781 0.448705 -0.735406 
-0.253024 0.616141 -0.745888 -0.0047261 -0.891724 -0.452556 -0.142673 -0.692803 -0.706872 
0.107695 -0.178548 -0.97802 -0.35041 -0.713654 -0.606557 -0.251958 -0.892847 -0.373285 
-0.108072 -0.805756 -0.582304 -0.06641 -0.764009 -0.641778 0.00762777 -0.838622 -0.544661 
-0.101924 -0.896009 -0.43218 -0.055425 -0.489485 -0.870249 -0.630401 -0.524359 -0.5724 
-0.153246 -0.86879 -0.470871 -0.119343 -0.9209 -0.371081 -0.0178473 -0.614075 -0.789046 
-0.0445649 -0.855861 -0.515282 -0.0403667 -0.500247 -0.864942 -0.106049 -0.826996 -0.552115 
0.0241207 -0.459779 -0.887706 0.0981256 -0.103341 -0.989794 0.0430024 -0.355401 -0.933724 
0.0520439 0.0434553 -0.997699 -0.701603 -0.0767679 -0.708421 -0.0240881 0.121675 -0.992278 
0.0540696 0.358989 -0.931774 0.172829 0.307606 -0.935686 0.266313 0.328851 -0.906054 
-0.674032 0.108463 -0.730696 -0.00389066 0.209686 -0.977761 0.083218 0.425232 -0.90125 
0.222589 0.40889 -0.885022 -0.776526 0.117316 -0.619068 0.00890636 0.58833 -0.808572 
-0.0774934 0.689858 -0.719785 -0.0318294 -0.973773 -0.225285 0.209405 -0.27621 -0.938007 
-0.0807086 -0.763114 -0.641204 0.344678 0.262512 -0.901269 -0.330684 -0.625095 -0.707039 
0.752099 0.0527782 -0.656934 -0.16867 0.0331102 -0.985116 0.220378 -0.809861 -0.543652 
-0.593347 -0.794822 -0.127268 -0.0519344 -0.884065 -0.46447 -0.317132 -0.920866 -0.226791 
-0.458075 -0.800485 -0.386511 -0.00416917 -0.918785 -0.394737 -0.157143 -0.916445 -0.368014 
0.00977351 -0.957 -0.289924 -0.0252104 -0.882461 -0.46971 0.544615 -0.0158999 -0.838536 
0.494023 -0.542097 -0.679759 0.828775 -0.534449 -0.165821 0.400017 -0.827755 0.393456 
-0.563013 -0.813316 -0.146746 0.0375792 -0.487935 -0.872071 0.239697 0.0325268 -0.970303 
0.147962 -0.570212 -0.808063 0.395143 0.0668612 -0.916183 0.222164 0.236381 -0.945921 
-0.769991 -0.269581 -0.578308 0.010854 0.485353 -0.874251 0.0464092 0.546748 -0.83601 
0.0819154 0.79954 -0.595 -0.532715 0.667164 -0.52068 0.017471 -0.977741 0.209088 
-0.477109 -0.876211 0.0679836 0.114621 -0.364088 -0.924284 -0.00568457 -0.410616 -0.911791 
-0.495317 -0.867523 0.0454282 -0.136533 -0.969656 -0.202795 -0.155885 -0.945014 -0.287486 
0.136996 -0.916652 -0.375476 0.109654 -0.799678 -0.590331 0.112522 -0.108661 -0.98769 
-0.155633 -0.983196 -0.0954189 -0.154219 -0.979875 -0.126733 -0.823494 0.151443 -0.546738 
-0.876614 -0.202888 -0.43633 0.254789 0.401081 -0.879896 -0.779201 0.478975 -0.404263 
0.121695 0.682652 -0.720539 0.00373952 -0.986682 -0.162616 0.202322 -0.62388 -0.754877 
0.221557 -0.478875 -0.849466 0.152783 -0.829536 -0.537148 0.192916 -0.290386 -0.937262 
-0.0260101 -0.802385 -0.59624 0.152095 -0.743321 -0.651415 0.20333 0.185551 -0.961368 
0.0850813 -0.546048 -0.833422 0.263375 0.433774 -0.861669 -0.108829 -0.983587 0.143921 
-0.746075 -0.582358 -0.322849 0.167257 0.808459 -0.564287 0.0783904 -0.96849 -0.236393 
-0.0286674 -0.999455 0.0163668 0.0115892 -0.999778 -0.0175978 -0.0129107 -0.98043 0.196445 
-0.0227844 -0.999708 0.00798408 -0.044038 -0.980888 -0.189526 0.241978 0.434315 -0.867651 
0.0161524 -0.999149 0.0379392 0.053927 -0.986681 0.153467 0.0490546 -0.94655 0.318805 
0.083645 -0.98022 0.179367 0.330304 0.736799 -0.589937 0.460252 -0.272425 -0.844957 
0.302683 0.931546 0.201508 0.344003 0.659657 -0.668217 0.170741 0.914775 -0.366106 
0.259028 0.853829 -0.451532 -0.697852 0.48247 -0.529364 0.273846 0.941582 -0.196042 
0.0012761 -0.899032 0.437882 -0.081832 -0.58391 0.807684 0.151851 0.865903 -0.476606 
0.205772 0.655236 -0.726859 -0.197085 -0.753797 0.626856 -0.118086 -0.992681 0.0252899 
-0.0287557 -0.860005 0.509475 0.0799925 0.293011 -0.952757 -0.139099 -0.919993 -0.366422 
-0.197085 -0.753797 0.626856 -0.492126 -0.862385 0.118756 0.229411 0.731248 -0.642376 
0.194275 0.776059 -0.599991 -0.763555 -0.645415 -0.0205464 -0.841848 -0.534758 -0.0729775 
0.534198 0.836245 -0.123799 0.50638 0.861906 -0.0264197 -0.883279 0.0768885 -0.462501 
-0.868818 0.076391 -0.489203 0.196663 0.702335 -0.684141 0.430987 0.774145 -0.463626 
0.424322 0.778373 -0.462695 0.0378884 0.896179 -0.442072 0.0816295 0.985891 -0.146135 
0.505526 0.85894 -0.0816397 -0.43109 0.771462 -0.467982 -0.15161 0.841629 -0.518338 
0.102498 0.961704 -0.254204 0.0423524 0.911244 -0.409683 -0.584243 0.654482 -0.47991 