# vtk DataFile Version 4.2
vtk output
ASCII
DATASET POLYDATA
POINTS 1044 float
386.01 74.5071 75.4997 386.173 74.4975 75.5446 386.198 75.1663 75.5643 
386.531 75.1855 75.5943 386.697 75.2965 75.6829 386.98 75.1858 75.7724 
386.081 75.4148 75.6013 386.489 75.5559 75.7642 388.004 78.0131 73.0087 
388.004 78.0132 73.0087 388.004 78.0132 73.0087 388.004 78.0131 73.0088 
388.004 78.0132 73.0088 387.211 74.9743 75.9132 387.326 75.2137 75.9458 
387.395 75.1734 75.9717 384.333 75.5616 75.6771 386.672 75.5967 75.956 
386.947 75.477 76.1278 383.377 76.6426 76.0087 383.33 76.5014 75.9788 
383.195 76.6671 76.0369 383.626 76.5586 76.0485 388.004 78.0131 73.0088 
383.347 76.7401 76.0774 386.219 75.8246 75.8952 382.624 71.7913 76.5932 
386.656 73.8782 75.9563 387.655 74.5573 76.4553 381.901 75.5841 76.047 
387.475 74.9457 76.2399 382.261 76.0614 76.0453 387.286 75.2432 76.3309 
382.823 76.4846 76.0732 383.087 76.842 76.1727 383.436 76.8645 76.2415 
384.862 76.4625 76.4488 382.651 77.1361 76.5803 383.17 77.0017 76.2718 
383.11 77.0795 76.3471 381.133 70.4675 78.0188 379.964 71.6344 77.7909 
380.872 71.2479 77.4438 383.336 70.5317 77.5167 385.759 71.9325 76.8142 
380.306 73.5871 76.7054 380.438 74.4087 76.5561 387.821 73.9949 76.7639 
387.567 74.9584 76.724 387.841 74.6419 77.2483 380.629 76.467 76.8394 
385.422 76.3625 77.0689 383.446 77.0234 76.5669 383.424 77.1319 76.9451 
380.929 78.0799 77.5072 380.905 78.0922 77.5254 380.974 78.0567 77.5151 
380.977 77.9411 77.4912 381.087 77.9345 77.514 383.246 77.0442 76.3637 
380.93 78.0962 77.5316 380.978 78.0412 77.5871 382.023 70.1198 78.071 
378.973 72.0959 78.5741 386.281 71.069 77.7033 387.827 73.1816 77.146 
378.724 74.6967 77.6375 379.855 75.7719 77.0833 387.35 75.2009 77.2672 
387.992 74.4893 77.8316 381.225 77.5847 77.3401 380.894 78.026 77.5756 
380.328 77.3607 77.8183 380.793 77.7588 77.6068 381.741 77.5937 77.5179 
381.297 77.8031 77.5621 380.903 77.9339 77.7325 380.993 78.0195 77.6584 
383.137 69.3305 78.9602 387.418 70.604 78.8008 377.885 73.341 78.991 
388.35 72.3691 78.1704 388.57 72.3781 78.4747 377.765 73.5396 78.8854 
377.754 73.5521 78.815 388.633 73.1975 78.485 377.814 73.6257 78.7614 
377.941 73.878 78.5858 388.424 73.8533 78.3206 378.423 75.6039 78.3137 
378.488 75.7955 78.3883 379.013 76.4442 78.4228 383.624 77.1192 77.7326 
379.789 76.8829 77.9066 379.573 76.8921 78.344 380.592 77.6462 77.994 
381.352 77.7706 77.8349 380.691 77.6784 78.1977 380.964 77.774 78.0277 
381.061 77.9208 77.7817 380.591 69.6245 79.9774 378.102 72.8415 79.5664 
388.537 71.5289 78.9749 389.128 72.1571 79.6029 377.743 73.6162 78.861 
377.792 73.7673 79.0138 388.925 73.0755 79.427 377.66 74.7972 79.1134 
377.591 74.7641 79.2661 377.593 74.845 79.2259 377.684 74.9583 79.2386 
385.932 75.9104 78.6235 378.645 76.1777 78.9961 379.842 77.0414 78.7307 
381.89 77.4279 78.484 382.856 68.2224 81.1062 384.951 68.1663 80.7319 
386.851 68.5922 80.6673 379.247 70.9002 80.0645 387.502 69.3025 80.1798 
378.56 71.9378 79.9006 377.908 73.6296 79.7167 389.029 72.9678 80.5442 
377.596 74.8361 79.2899 377.674 74.7534 79.4315 378.731 75.9978 79.5696 
381.379 77.1957 79.1082 381.167 68.9629 81.461 390.04 70.8771 81.6062 
390.054 71.4347 81.8508 389.323 72.4838 81.3154 388.393 73.6086 80.5013 
387.256 74.3036 80.8131 386.083 67.3666 82.1934 381.791 68.3876 82.7619 
380.859 69.2007 82.505 380.375 69.6459 81.989 379.364 71.0641 81.8108 
378.877 71.9298 81.4842 388.762 72.927 81.8327 379.233 73.8239 81.6191 
379.613 74.4247 81.5809 381.765 75.2643 81.684 387.865 67.1315 83.1365 
380.256 70.1202 82.8989 390.858 70.0453 83.3036 390.443 70.8234 82.4792 
390.533 70.7384 82.9426 390.864 70.2295 83.5604 379.014 71.9823 81.8353 
378.85 72.2866 81.5872 383.093 74.8684 82.2585 386.698 66.0562 84.6956 
382.064 68.2041 84.3858 391.464 69.3699 84.4897 380.435 70.1618 83.4087 
379.485 71.3285 82.3991 391.009 70.155 84.4095 379.271 71.9858 82.1967 
380.102 72.868 82.8475 386.747 73.0843 83.8151 382.491 73.7551 83.4292 
385.3 66.0417 85.4271 392.049 68.4392 85.7952 391.798 69.2087 85.0012 
391.826 68.9956 85.0573 391.949 69.1222 85.1395 391.934 69.0905 85.0976 
391.988 69.082 85.1506 391.892 69.1528 85.2675 391.982 69.0717 85.2183 
380.557 70.5139 83.8077 380.387 71.2215 83.5647 381.093 72.8266 83.5796 
382.405 73.0038 84.0861 383.303 72.8349 84.5154 392.361 67.1956 86.679 
382.475 67.9898 85.5088 381.473 69.4255 84.8203 382.279 68.4172 85.644 
391.97 68.9566 85.3941 391.938 69.0342 85.8955 391.967 69.04 85.1764 
396 69.0087 86.0174 396 69.0087 86.0175 396 69.0088 86.0175 
396 69.0088 86.0175 396 69.0088 86.0175 385.526 72.5999 85.0139 
390.949 65.1182 87.6999 393.438 67.534 88.2084 393.245 67.8784 88.1268 
396 69.0087 86.0175 391.405 69.5075 86.665 381.532 70.7518 84.8407 
382.23 70.5818 85.5499 389.375 64.4204 88.6504 386.814 64.9837 88.6026 
390.322 64.4017 88.8784 385.42 65.6833 88.0039 392.982 66.3532 87.9432 
383.997 66.6397 87.4249 382.79 69.0385 86.7102 391.357 64.4614 89.1721 
386.026 65.4049 89.0852 385.146 65.9733 88.7545 383.818 68.6099 88.0459 
390.951 64.1393 89.9596 384.5 66.6917 89.0088 383.855 67.4241 88.3724 
384.139 67.5509 88.8443 387.969 69.1746 89.4308 386.876 65.2989 90.5936 
394.766 64.9078 91.3785 385.047 66.5039 89.9288 384.619 66.8206 89.5432 
384.407 67.1248 89.3876 384.463 67.0637 89.5737 395.785 66.5269 91.7012 
384.611 67.272 89.6011 395.322 67.229 92.1203 395.948 66.6162 92.1015 
392.271 68.27 91.2469 390.79 63.989 92.3216 392.602 63.7622 92.2554 
394.538 63.8566 92.8859 385.968 65.8435 90.319 387.547 65.2873 91.4383 
395.259 65.0947 91.7111 385.416 66.3931 90.3294 396.457 66.0949 92.7775 
384.567 67.0256 89.674 384.696 67.0431 89.8181 388.664 67.3056 91.9433 
389.786 67.9793 91.5983 392.053 68.0579 92.0649 393.737 67.8639 92.4038 
390.208 64.4137 93.2041 389.114 64.8425 92.5705 385.041 66.7612 90.162 
385.302 66.6016 90.3736 386.138 66.3375 91.048 396.863 66.0488 93.4522 
385.744 66.6739 90.7619 387.998 66.7615 92.0241 397.028 66.1669 93.7932 
392.141 67.6765 93.212 395.027 67.5124 93.06 393.823 67.7559 93.293 
390.522 64.5799 93.9121 396.626 64.1356 94.5065 389.633 65.0625 93.3581 
387.253 66.1658 91.796 388.052 65.8535 92.398 390.25 66.4341 93.6552 
397.372 65.4047 94.4327 386.12 66.625 91.0351 392.123 67.3529 93.9731 
396.83 66.8181 94.5398 396.038 63.5242 94.8995 391.034 64.3611 94.4684 
388.646 65.4478 92.9468 388.474 65.4778 92.791 388.976 65.3891 93.0765 
389.484 65.6282 93.4214 388.874 65.6232 93.077 390.637 65.2473 94.4743 
397.541 64.6792 95.1606 386.575 66.2603 91.4335 398.269 65.5058 96.011 
394.683 67.5396 95.0137 388.531 65.5114 92.9047 388.614 65.5043 92.9901 
388.729 65.505 93.0382 388.661 65.5857 93.0026 388.557 65.5708 92.938 
391.907 65.9954 95.8373 395.924 62.4584 97.591 396.225 62.3863 97.8945 
395.1 62.5501 97.6147 398.374 64.2127 97.0013 388.635 65.533 93.0129 
398.84 66.4241 97.7482 396.795 62.3896 98.2892 394.691 62.6153 98.277 
392.76 63.6942 97.3434 393.624 63.1088 97.891 397.919 63.4093 97.3234 
389 64.0087 98.5174 389 64.0087 98.5175 389 64.0088 98.5175 
389 64.0087 98.5175 389 64.0088 98.5175 399.737 65.7132 98.9027 
399.74 66.2827 99.3709 399.924 66.0147 99.5412 394.383 62.7496 98.9248 
393.572 63.2816 98.7777 392.977 63.7935 98.2233 389 64.0087 98.5176 
389 64.0087 98.5176 389 64.0088 98.5176 389 64.0088 98.5176 
399.161 66.8074 99.0727 399.766 66.5353 99.8191 400.096 65.8058 99.9767 
397.51 67.5714 99.1544 397.335 62.0399 100.045 398.256 62.7559 99.1615 
393.442 63.4863 99.2583 389 64.0087 98.5176 393 64.6767 98.6733 
400.277 65.9661 100.814 396.063 67.4454 99.6476 397.124 67.6713 99.6975 
398.639 67.4748 99.9771 395.321 67.1349 99.5509 396.117 62.2206 101.264 
395.031 62.6604 100.589 400.335 64.5479 101.401 400.483 65.412 101.405 
395.245 66.7765 100.754 395.45 66.9793 100.622 397.235 62.0215 101.851 
398.257 62.0506 101.901 394.666 63.0448 100.954 395.925 62.4152 102.25 
399.454 62.7942 102.112 393.547 63.6093 99.8097 400.006 63.602 101.891 
395.229 66.4016 101.512 400.553 66.6913 102.599 398.437 62.0154 102.38 
398.392 61.9739 102.518 395.47 62.9783 102.837 395.862 62.6082 102.95 
393.585 63.652 99.9392 395.164 63.306 102.619 394.815 63.797 102.233 
400.421 67.5976 103.563 398.813 68.5174 103.767 398.184 68.3509 103.814 
398.328 61.9901 102.651 398.499 62.1023 103.168 400.105 63.239 103.661 
396.263 65.9088 104.768 401.05 65.9153 104.051 400.826 67.6632 104.735 
397.834 68.1408 104.255 399.468 68.7974 104.873 399.754 68.6716 104.571 
397.017 62.1908 104.454 399.496 62.5781 104.543 396.073 62.7401 104.033 
399.862 62.9032 104.13 401.15 65.4559 104.749 401.225 67.2181 105.422 
400.432 68.6078 105.351 396.017 63.9019 105.309 400.682 68.9217 106.551 
400.965 68.9567 107.002 401.085 68.8975 107.091 400.128 69.2548 106.821 
401.078 68.9669 107.372 398.636 62.1115 106.594 396.401 63.1186 106.001 
401.307 65.0433 106.253 401.341 64.7749 107.055 401.715 67.3216 107.328 
401.516 68.3438 107.696 398.178 61.9956 108.146 401.021 69.2563 108.41 
400.592 69.569 109.026 397.777 62.0838 108.312 401.489 64.799 108.376 
401.734 66.4815 108.898 401.202 69.1495 109.159 397.422 62.4965 109.524 
399.348 61.9797 109.912 397.481 65.3018 110.105 401.657 67.2892 109.724 
401.351 68.8512 109.803 400.438 69.6773 110.822 400.798 69.5629 110.435 
398.411 61.7348 111.039 397.397 62.7663 110.954 400.867 63.4373 110.259 
398.769 61.5512 112.404 397.875 61.9935 112.323 397.604 62.395 111.705 
397.409 63.1058 111.731 401.066 63.9895 111.195 398.315 66.27 111.996 
401.397 66.1055 111.65 400.492 69.6631 111.645 400.558 69.7011 111.433 
400.294 69.3451 112.22 400.438 69.556 111.916 400.532 69.5888 111.856 
399.367 61.6687 113.274 399.682 61.8696 112.822 398.025 61.7571 113.826 
400.669 63.6691 113.362 400.588 69.1605 112.412 400.274 69.2554 112.608 
400.276 69.15 112.811 400.331 69.3197 112.585 400.419 69.272 112.59 
[...]
POINT_DATA 1044
SCALARS scalars float
LOOKUP_TABLE default
1 1 1 1 1 1 1 1 1 
1 1 1 1 1 1 1 1 1 
1 1 1 1 1 1 1 1 1 
1 1 1 1 1 1 1 1 1 
1 1 1 1 1 1 1 1 1 
1 1 1 1 1 1 1 1 1 
1 1 1 1 1 1 1 1 1 
1 1 1 1 1 1 1 1 1 
1 1 1 1 1 1 1 1 1 
1 1 1 1 1 1 1 1 1 
1 1 1 1 1 1 1 1 1 
1 1 1 1 1 1 1 1 1 
1 1 1 1 1 1 1 1 1 
1 1 1 1 1 1 1 1 1 
1 1 1 1 1 1 1 1 1 
1 1 1 1 1 1 1 1 1 
1 1 1 1 1 1 1 1 1 
1 1 1 1 1 1 1 1 1 
1 1 1 1 1 1 1 1 1 
1 1 1 1 1 1 1 1 1 
1 1 1 1 1 1 1 1 1 
1 1 1 1 1 1 1 1 1 
1 1 1 1 1 1 1 1 1 
1 1 1 1 1 1 1 1 1 
1 1 1 1 1 1 1 1 1 
1 1 1 1 1 1 1 1 1 
1 1 1 1 1 1 1 1 1 
1 1 1 1 1 1 1 1 1 
1 1 1 1 1 1 1 1 1 
1 1 1 1 1 1 1 1 1 
1 1 1 1 1 1 1 1 1 
1 1 1 1 1 1 1 1 1 
1 1 1 1 1 1 1 1 1 
1 1 1 1 1 1 1 1 1 
1 1 1 1 1 1 1 1 1 
1 1 1 1 1 1 1 1 1 
1 1 1 1 1 1 1 1 1 
1 1 1 1 1 1 1 1 1 
1 1 1 1 1 1 1 1 1 
1 1 1 1 1 1 1 1 1 
1 1 1 1 1 1 1 1 1 
1 1 1 1 1 1 1 1 1 
1 1 1 1 1 1 1 1 1 
1 1 1 1 1 1 1 1 1 
1 1 1 1 1 1 1 1 1 
1 1 1 1 1 1 1 1 1 
1 1 1 1 1 1 1 1 1 
1 1 1 1 1 1 1 1 1 
1 1 1 1 1 1 1 1 1 
1 1 1 1 1 1 1 1 1 
1 1 1 1 1 1 1 1 1 
1 1 1 1 1 1 1 1 1 
1 1 1 1 1 1 1 1 1 
1 1 1 1 1 1 1 1 1 
1 1 1 1 1 1 1 1 1 
1 1 1 1 1 1 1 1 1 
1 1 1 1 1 1 1 1 1 
1 1 1 1 1 1 1 1 1 
1 1 1 1 1 1 1 1 1 
1 1 1 1 1 1 1 1 1 
1 1 1 1 1 1 1 1 1 
1 1 1 1 1 1 1 1 1 
1 1 1 1 1 1 1 1 1 
1 1 1 1 1 1 1 1 1 
1 1 1 1 1 1 1 1 1 
1 1 1 1 1 1 1 1 1 
1 1 1 1 1 1 1 1 1 
1 1 1 1 1 1 1 1 1 
1 1 1 1 1 1 1 1 1 
1 1 1 1 1 1 1 1 1 
1 1 1 1 1 1 1 1 1 
1 1 1 1 1 1 1 1 1 
1 1 1 1 1 1 1 1 1 
1 1 1 1 1 1 1 1 1 
1 1 1 1 1 1 1 1 1 
1 1 1 1 1 1 1 1 1 
1 1 1 1 1 1 1 1 1 
1 1 1 1 1 1 1 1 1 
1 1 1 1 1 1 1 1 1 
1 1 1 1 1 1 1 1 1 
1 1 1 1 1 1 1 1 1 
1 1 1 1 1 1 1 1 1 
1 1 1 1 1 1 1 1 1 
1 1 1 1 1 1 1 1 1 
1 1 1 1 1 1 1 1 1 
1 1 1 1 1 1 1 1 1 
1 1 1 1 1 1 1 1 1 
1 1 1 1 1 1 1 1 1 
1 1 1 1 1 1 1 1 1 
1 1 1 1 1 1 1 1 1 
1 1 1 1 1 1 1 1 1 
1 1 1 1 1 1 1 1 1 
1 1 1 1 1 1 1 1 1 
1 1 1 1 1 1 1 1 1 
1 1 1 1 1 1 1 1 1 
1 1 1 1 1 1 1 1 1 
1 1 1 1 1 1 1 1 1 
1 1 1 1 1 1 1 1 1 
1 1 1 1 1 1 1 1 1 
1 1 1 1 1 1 1 1 1 
1 1 1 1 1 1 1 1 1 
1 1 1 1 1 1 1 1 1 
1 1 1 1 1 1 1 1 1 
1 1 1 1 1 1 1 1 1 
1 1 1 1 1 1 1 1 1 
1 1 1 1 1 1 1 1 1 
1 1 1 1 1 1 1 1 1 
1 1 1 1 1 1 1 1 1 
1 1 1 1 1 1 1 1 1 
1 1 1 1 1 1 1 1 1 
1 1 1 1 1 1 1 1 1 
1 1 1 1 1 1 1 1 1 
1 1 1 1 1 1 1 1 1 
1 1 1 1 1 1 1 1 1 
1 1 1 1 1 1 1 1 1 
1 1 1 1 1 1 1 1 1 

NORMALS Normals float
0.03361 -0.0966688 -0.994749 0.253751 -0.234886 -0.938317 0.126918 0.173625 -0.976599 
0.219111 0.193795 -0.95626 0.337931 0.404037 -0.850033 0.420001 0.0841879 -0.903611 
0.0681872 0.335185 -0.939682 0.339698 0.543699 -0.767461 0.0761865 -0.84739 -0.525477 
-0.458981 0.581008 -0.672135 0.362138 0.653205 -0.664966 0.450827 -0.534192 0.715118 
-0.0717508 0.837755 0.541312 0.551913 -0.192178 -0.811456 0.538059 0.582821 -0.608944 
0.823645 0.30403 -0.478722 0.0490769 0.325512 -0.944264 0.524322 0.707975 -0.473136 
0.497401 0.865502 -0.0591444 0.0930519 0.40608 -0.909088 -0.0321207 0.225909 -0.973619 
-0.148412 0.416306 -0.89703 0.377118 0.527131 -0.761521 -0.35047 -0.606726 0.71348 
0.128411 0.650469 -0.748599 0.355578 0.867339 -0.348263 -0.0999828 -0.473523 -0.875088 
0.377588 -0.412838 -0.82885 0.849657 0.0309759 -0.526425 -0.204204 0.00551024 -0.978913 
0.922541 0.216117 -0.319706 -0.239852 0.359539 -0.901778 0.653328 0.754024 0.0679031 
-0.214515 0.277173 -0.936567 -0.155898 0.581017 -0.798821 0.357907 0.747294 -0.55987 
0.246351 0.829996 -0.500418 -0.11022 0.822325 -0.558241 0.133565 0.665922 -0.733968 
0.0350385 0.866013 -0.498793 -0.360858 -0.69177 -0.625488 -0.587804 -0.53561 -0.606307 
-0.374738 -0.476049 -0.795581 0.0809343 -0.730612 -0.67798 0.281216 -0.54724 -0.788318 
-0.496946 -0.202684 -0.84378 -0.458072 0.0425727 -0.887895 0.812528 -0.0975418 -0.574704 
0.653756 0.756526 -0.0164532 0.842444 0.538783 -0.000933368 -0.464081 0.385635 -0.797442 
0.389425 0.915961 -0.0967666 0.37259 0.911769 -0.172782 0.298828 0.944635 -0.135525 
0.0314894 0.508326 -0.860589 -0.755424 0.535552 -0.377517 0.578627 0.618128 -0.532079 
-0.183613 0.134996 -0.973685 0.500069 0.612968 -0.61172 0.34076 0.828454 -0.444462 
0.184045 0.969788 0.160124 0.383242 0.888399 0.252729 -0.172039 -0.772439 -0.611343 
-0.707896 -0.51022 -0.488424 0.280769 -0.623177 -0.729945 0.600139 -0.365996 -0.711253 
-0.663811 0.0629546 -0.745246 -0.604373 0.301818 -0.737319 0.580823 0.813817 0.0186309 
0.780527 0.624879 0.0174049 -0.128017 0.540841 -0.831326 -0.549505 0.612415 0.568324 
-0.64902 0.607112 -0.458462 -0.828125 0.375773 -0.415938 0.299041 0.93161 -0.206583 
0.495172 0.787317 -0.367338 -0.455219 0.79297 0.404936 0.0861588 0.898005 0.431467 
-0.144392 -0.807239 -0.572291 0.453689 -0.618989 -0.641107 -0.91406 -0.399762 0.0684452 
0.609645 -0.431685 -0.664816 0.807574 -0.303857 -0.505465 -0.902906 -0.390302 0.180068 
-0.887296 -0.262517 -0.379196 0.917416 -0.00850169 -0.397838 -0.754828 0.142409 -0.640277 
-0.807592 -0.0651808 -0.586129 0.909221 0.379699 -0.170719 -0.814332 0.335014 -0.47395 
-0.77529 0.506024 -0.377975 -0.675103 0.634399 -0.376528 0.419372 0.899699 0.121114 
-0.600198 0.666919 -0.441566 -0.539978 0.833931 -0.113941 -0.581055 0.813305 0.0301764 
0.414369 0.839289 0.351985 -0.0648816 0.848935 0.5245 -0.00228589 0.835679 0.549213 
0.281609 0.84009 0.463622 -0.50095 -0.799852 -0.330584 -0.897581 -0.44085 0.000180597 
0.781525 -0.313485 -0.539394 0.930542 0.0899708 -0.354962 -0.980844 0.148998 -0.125481 
-0.995893 -0.0257175 0.0868067 0.904791 0.411509 -0.109601 -0.83384 0.259493 -0.48721 
-0.991593 -0.118799 -0.0512759 -0.928305 0.286525 -0.236968 -0.758444 0.644594 0.0962352 
0.468807 0.872191 0.139654 -0.750609 0.660406 -0.0211972 -0.499931 0.852026 0.155308 
0.228916 0.916259 0.328737 -0.342493 -0.893865 -0.289316 0.0377447 -0.823992 -0.565343 
0.302349 -0.763074 -0.57123 -0.794847 -0.600338 -0.0883856 0.366995 -0.704465 -0.607489 
-0.877433 -0.4797 8.90158e-05 -0.94418 -0.228969 0.236849 0.714756 0.671629 0.195035 
-0.877336 0.329744 0.348642 -0.844184 0.155137 0.513114 -0.451882 0.66028 0.599861 
-0.0222814 0.831197 0.555532 -0.547995 -0.834668 -0.0550456 0.903547 -0.0919579 -0.418505 
0.890424 0.44112 -0.112064 0.856735 0.515683 0.00872029 0.697928 0.685561 0.207131 
0.427409 0.823407 0.373259 0.189269 -0.865632 -0.463529 -0.556035 -0.82663 -0.0866449 
-0.697839 -0.707828 0.109543 -0.765187 -0.635899 0.100605 -0.865974 -0.415047 0.278973 
-0.853945 -0.435434 0.284913 0.689002 0.706365 0.162248 -0.620664 0.304643 0.722474 
-0.369102 0.446915 0.814881 -0.181038 0.677012 0.713358 0.101353 -0.830018 -0.54845 
-0.851885 -0.433844 0.293379 0.931279 0.129467 -0.340527 0.967058 0.182717 -0.177241 
0.966326 0.209768 -0.149037 0.900989 0.411486 -0.13747 -0.809141 -0.209328 0.549065 
-0.89956 -0.0662162 0.431749 0.130655 0.800434 0.585008 -0.13597 -0.887614 -0.440061 
-0.742724 -0.653351 0.146608 0.846822 -0.0351912 -0.53071 -0.848336 -0.389692 0.358422 
-0.846492 -0.208077 0.490056 0.850539 0.512692 -0.117182 -0.801909 -0.184459 0.568258 
-0.609401 0.315704 0.727298 0.321611 0.877056 0.356846 -0.119775 0.680935 0.722483 
-0.29306 -0.907188 -0.301871 0.87491 -0.156109 -0.458435 0.741377 0.590214 -0.319385 
0.653635 -0.442795 -0.613754 0.70971 0.682164 -0.175966 0.682547 -0.0915062 -0.725091 
0.937597 0.046928 -0.344544 0.635238 0.754679 0.164111 0.943453 0.296249 0.148773 
-0.841115 -0.116473 0.528166 -0.723216 0.132988 0.677696 -0.455234 0.455288 0.765163 
-0.161385 0.590325 0.790868 -0.307164 0.572842 0.759936 0.850737 -0.0466384 -0.523518 
-0.723849 -0.673277 0.150801 -0.836813 -0.310672 0.450806 -0.856115 -0.338127 0.390815 
0.996635 -0.0303007 -0.076156 0.793825 0.607489 -0.0282634 0.753679 -0.560138 -0.343823 
0 -0.176557 -0.98429 0 -0.997331 -0.0730187 -0.838894 -0.543202 -0.0344886 
0.838894 -0.543202 -0.0344886 0 0.6 -0.8 -0.00911083 0.817649 0.575645 
0.315447 -0.797976 -0.513544 0.84591 0.100992 -0.523677 0.846054 0.374158 -0.379735 
0 -0.335627 0.941995 0.628459 0.774769 0.0690755 -0.578246 0.371595 0.726326 
-0.494573 0.460238 0.737277 -6.85971e-05 -0.973601 -0.228255 -0.320424 -0.943575 0.0836283 
0.0179804 -0.994775 -0.100493 -0.567003 -0.823134 0.0309309 0.735789 -0.377301 -0.562369 
-0.709651 -0.675622 0.199825 -0.646575 0.291155 0.705103 0.217625 -0.900871 -0.375594 
-0.478416 -0.864045 0.156666 -0.621527 -0.768646 0.151286 -0.714755 0.353117 0.603684 
0.0564579 -0.967057 -0.248218 -0.786943 -0.57422 0.225812 -0.828871 -0.263415 0.493543 
-0.88116 -0.221612 0.417666 -0.215096 0.755652 0.618647 -0.501099 -0.793258 0.345893 
0.557681 -0.599563 -0.574035 -0.704123 -0.612309 0.359567 -0.761664 -0.603691 0.235426 
-0.949345 -0.119906 0.29046 -0.856069 -0.0694887 0.51217 0.828889 0.207082 -0.519673 
-0.666669 0.389792 0.635306 0.610505 0.768157 -0.192921 0.763088 0.554068 -0.332724 
0.151942 0.938967 0.308634 -0.298762 -0.945088 0.132473 0.0272809 -0.978252 -0.205618 
0.376106 -0.813992 -0.442676 -0.574442 -0.743813 0.3417 -0.430752 -0.780415 0.453216 
0.638556 -0.418298 -0.645967 -0.673017 -0.49088 0.553249 0.796217 -0.0407386 -0.603638 
-0.764065 -0.214278 0.608514 -0.563242 0.36247 0.742545 -0.381995 0.56572 0.730781 
-0.243505 0.828401 0.504438 -0.167334 0.937112 0.3063 0.182786 0.982078 0.0459518 
-0.471226 -0.801216 0.368779 -0.515972 -0.756099 0.4026 -0.708109 -0.143191 0.691431 
-0.61514 -0.0730564 0.785026 -0.651918 -0.301587 0.695736 0.835789 0.117979 -0.536225 
-0.60549 0.109003 0.788353 -0.336872 0.589116 0.734479 0.845637 0.419864 -0.329564 
-0.111184 0.949911 0.292073 0.395794 0.917252 -0.0446783 0.0387267 0.988863 0.143705 
-0.588946 -0.668599 0.454002 0.654651 -0.565273 -0.501895 -0.606442 -0.484955 0.630117 
-0.564535 -0.0240911 0.825057 -0.486683 0.359203 0.796312 -0.577641 0.451679 0.679938 
0.92675 -0.0487287 -0.372504 -0.549851 0.253645 0.795819 -0.34302 0.865773 0.364382 
0.550696 0.794444 -0.256111 0.308164 -0.884852 -0.349387 -0.584125 -0.773136 0.247101 
-0.410609 -0.764258 0.497303 -0.622728 -0.582794 0.522074 -0.431935 -0.540091 0.722312 
-0.563719 0.160602 0.810203 -0.395131 0.392885 0.830369 -0.787677 -0.0938733 0.608895 
0.795622 -0.475111 -0.37584 -0.595873 -0.281867 0.751988 0.840303 -0.14 -0.523728 
0.132789 0.991116 -0.00752112 -0.748642 -0.349068 0.563636 -0.556084 -0.404872 0.725843 
-0.31139 -0.247464 0.917495 -0.358702 0.50599 0.784415 -0.698195 0.29497 0.652316 
-0.659462 0.56797 0.492462 0.0101397 -0.969037 -0.246706 0.144647 -0.939067 -0.311817 
-0.246182 -0.956678 -0.155437 0.807705 -0.449664 -0.381332 -0.473448 0.0605623 0.878737 
0.676186 0.641621 -0.36207 0.362383 -0.843775 -0.395882 -0.323063 -0.946348 -0.00748037 
-0.559279 -0.826855 0.0593036 -0.530452 -0.847698 0.00534905 0.575915 -0.652386 -0.492662 
0.00223223 -0.0476732 -0.99886 -0.137818 -0.828982 -0.542029 -0.542344 0.385516 -0.746486 
0.628692 -0.441729 -0.640017 0.154965 0.855986 -0.493228 0.911775 0.0637795 -0.405708 
0.825891 0.464313 -0.31987 0.93473 0.102913 -0.34013 -0.483244 -0.867539 0.117694 
-0.492387 -0.854872 0.163551 -0.809968 -0.518487 0.274087 0.20134 -0.825363 0.527484 
-0.537918 -0.648206 0.538955 0.419269 0.512984 0.74904 -0.239656 0.775581 0.583985 
0.571943 0.744927 -0.34346 0.78391 0.554718 -0.278878 0.945608 0.164413 -0.280701 
0.184327 0.952802 -0.241231 -0.0225643 -0.994401 -0.103234 0.655442 -0.704132 -0.27312 
-0.679491 -0.6992 0.222286 -0.0119652 -0.111053 0.993742 -0.891412 0.173375 0.418718 
0.925082 0.240786 -0.293674 -0.261393 0.962309 0.0750685 -0.130108 0.987964 -0.0836631 
0.333517 0.90315 -0.270345 -0.396986 0.896241 0.197871 -0.208739 -0.976517 -0.0533184 
-0.479779 -0.868209 0.126588 0.921348 -0.265249 -0.284184 0.962424 -0.00124382 -0.271549 
-0.665594 0.678248 0.311391 -0.485521 0.846583 0.218096 -0.0953124 -0.99543 -0.00590075 
0.476016 -0.841224 -0.256421 -0.686522 -0.666817 0.289901 -0.493379 -0.856208 0.153251 
0.636848 -0.702191 -0.318359 -0.724306 -0.596442 0.345886 0.75509 -0.554946 -0.349105 
-0.69024 0.674144 0.262866 0.823406 0.438296 -0.360415 0.13278 -0.964021 -0.230289 
0.142615 -0.988025 -0.0588832 -0.773315 -0.607151 0.182622 -0.648607 -0.756879 0.0802685 
-0.70413 -0.602094 0.37641 -0.761544 -0.609609 0.220061 -0.89557 -0.164836 0.413261 
0.745253 0.53963 -0.39166 -0.113941 0.985831 -0.123105 -0.434341 0.897289 0.0788766 
-0.281371 -0.959597 -0.00206679 0.218428 -0.973864 0.0622814 0.751755 -0.639491 -0.160985 
-0.858911 0.360672 0.363577 0.972238 0.0289598 -0.232193 0.819018 0.462911 -0.339002 
-0.561136 0.815529 0.141555 -0.192231 0.968626 -0.157517 0.463353 0.805562 -0.369288 
-0.24757 -0.966902 0.0617251 0.522543 -0.845516 -0.109778 -0.726281 -0.656212 0.204699 
0.671992 -0.720045 -0.173094 0.971603 -0.0682422 -0.226564 0.939603 0.248565 -0.23529 
0.670809 0.655258 -0.34735 -0.893914 -0.187432 0.407171 0.369093 0.887881 -0.274659 
0.379737 0.896572 -0.227944 0.705138 0.642251 -0.30049 0.231914 0.943872 -0.235204 
0.520124 0.840044 -0.154265 0.191157 -0.981558 -0.0014716 -0.948921 -0.115301 0.29369 
0.904716 -0.404092 -0.134901 0.880116 -0.446244 -0.162055 0.987707 0.0594422 -0.144573 
0.927178 0.338046 -0.161453 0.117757 -0.991578 -0.0539017 0.732068 0.66313 -0.155997 
0.160762 0.984004 -0.0767562 -0.447336 -0.894274 0.0128387 0.966397 -0.248774 0.0647233 
0.999852 -0.0156685 0.00710831 0.80247 0.592182 -0.0732338 -0.83896 -0.529002 0.127682 
0.368659 -0.92364 -0.104782 -0.926634 0.318643 0.199538 0.991057 0.00938686 0.133107 
0.960791 0.252964 0.113536 -0.547873 0.835748 0.0368724 0.731229 0.679989 0.0540208 
-0.239394 -0.967933 -0.0761292 -0.870891 -0.491105 0.0191093 0.821102 -0.568142 -0.054837 
0.0235058 -0.997947 -0.0595807 -0.741742 -0.669953 -0.0313222 -0.889686 -0.456454 0.0104265 
-0.99361 -0.0426016 0.104517 0.963449 -0.265404 0.0364206 -0.840511 0.50986 0.183259 
0.984163 -0.0365596 0.173453 -0.491539 0.856146 0.159381 0.285739 0.954637 0.0837969 
-0.706996 0.676716 0.205456 -0.267302 0.880207 0.392155 0.489385 0.796175 0.355818 
0.488439 -0.872567 0.00736471 0.667003 -0.744555 -0.0272974 -0.654432 -0.755738 -0.0240635 
0.951478 -0.243462 0.188193 0.94874 0.135229 0.285666 -0.900584 0.425188 0.0903494 
-0.77807 0.440984 0.44737 -0.104532 0.974739 0.197374 0.528702 0.782644 0.328546 
-0.517659 0.767108 0.378913 0.411652 -0.90772 0.0811603 0.507062 -0.85828 0.0790175 
0.763082 -0.634861 0.121066 -0.892683 0.335724 0.300676 -0.570206 0.670673 0.474407 
0.91439 0.201537 0.351105 0.136631 0.770944 0.622075 0.108478 0.848172 0.518495 
0.624804 0.612649 0.484026 -0.966204 -0.255272 0.0358716 -0.952097 0.226216 0.20576 
-0.738494 0.560552 0.37471 -0.575434 0.571703 0.584835 0.762514 0.321145 0.56164 
0.51476 0.365258 0.775635 -0.793833 -0.605531 -0.0562248 -0.959719 -0.274151 -0.061487 
-0.998119 -0.0598614 0.0132681 0.867465 0.223709 0.444363 0.619986 0.543516 0.565869 
-0.0517194 0.8074 0.587734 0.262464 0.629844 0.731033 -0.896127 -0.443599 0.0132777 
-0.400163 -0.914852 -0.0539984 0.871089 -0.456288 0.181674 0.900732 0.153467 0.406361 
-0.407134 0.853591 0.324999 -0.703391 0.560485 0.437148 0.671337 0.594977 0.441939 
0.112214 0.49756 0.860141 0.50992 0.804705 0.304025 0.0139604 0.822569 0.568494 
-0.826481 -0.548684 -0.125997 -0.845711 0.494491 0.200626 -0.315334 0.793136 0.521056 
-0.548753 0.682707 0.482475 0.431009 0.504912 0.74786 0.818346 0.314717 0.480899 
-0.466588 -0.865446 -0.18248 -0.305958 -0.940753 -0.146195 -0.800693 -0.5968 -0.0521608 
0.447807 -0.893553 -0.0321237 -0.921149 -0.378103 -0.0923142 -0.992518 0.106743 0.0592722 
-0.982753 0.146949 0.112264 0.855902 0.223583 0.466307 -0.812217 0.52054 0.263329 
0.471314 0.579346 0.664998 0.642116 -0.765516 -0.0408913 0.905593 -0.403034 0.132156 
-0.958805 -0.283875 0.0103768 0.0470719 0.796197 0.603204 -0.869663 -0.483335 -0.100366 
0.793761 -0.603244 0.0777223 0.702925 -0.704875 0.0951216 -0.99622 0.0320431 0.0807456 
-0.447256 0.707895 0.546669 -0.294515 0.752778 0.588716 -0.526008 -0.836577 -0.153151 
-0.858638 -0.498767 -0.118202 0.715165 -0.698786 -0.0153848 -0.990638 0.124918 0.0550651 
0.874182 0.241909 0.421053 -0.82312 0.496786 0.275094 -0.158255 0.776736 0.609621 
0.366697 0.656523 0.659175 0.53792 0.563049 0.62739 -0.654871 -0.755209 -0.0283443 
-0.949078 -0.312396 -0.0407342 0.1471 -0.986062 -0.0777426 0.959436 -0.0984105 0.264192 
-0.952435 0.275743 0.129745 -0.789625 0.540319 0.290773 -0.986818 0.0353974 0.157915 
-0.919246 -0.355457 0.169225 -0.555777 -0.831327 0.00273749 0.177578 0.799195 0.574241 
-0.660233 -0.74181 0.117522 -0.440196 -0.848876 0.292639 0.671977 0.542235 0.504409 
-0.7961 0.408539 0.446454 0.622877 -0.0675607 0.779397 -0.877125 -0.411131 -0.248239 
-0.301313 -0.941933 -0.148231 -0.827293 0.160033 -0.538494 0.856185 -0.494964 -0.148181 
-0.572775 -0.817698 -0.0574395 -0.497223 -0.86238 0.0952394 -0.701764 -0.628147 -0.336094 
-0.852655 -0.277021 -0.442989 0.0276846 -0.99911 0.0318179 -0.924094 -0.0986246 -0.36922 
-0.723759 0.437473 -0.533657 0.0966754 0.775729 -0.623617 0.704358 0.537737 -0.463378 
-0.869308 -0.494056 0.0145861 -0.97394 0.128534 -0.186867 0.78305 0.426591 -0.452607 
-0.951739 -0.305953 0.024178 -0.207134 0.764678 -0.610216 0.906517 0.153944 -0.393101 
-0.796783 0.498751 -0.341151 0.0570987 0.792639 -0.607011 -0.621156 0.674438 -0.399123 
-0.893071 -0.448089 0.0404972 -0.253531 -0.96186 0.102695 -0.976944 0.175379 -0.12175 
-0.221169 0.87699 -0.426584 -0.476555 -0.870042 0.126182 0.950831 0.02687 -0.308541 
-0.552352 0.795555 -0.248997 -0.865639 -0.494058 0.0810874 0.605048 -0.794807 -0.046892 
0.960984 -0.100426 -0.257728 -0.993849 0.107319 -0.0273178 -0.822242 0.547178 -0.156572 
-0.403517 0.734716 -0.545314 0.59387 0.527381 -0.607608 -0.0826592 0.714637 -0.694595 
0.0914093 0.695319 -0.712864 0.0267062 -0.995374 0.0922898 0.859549 -0.501176 -0.0999934 
-0.908365 -0.369207 0.196365 0.911988 0.204699 -0.355494 -0.54783 0.649742 -0.526988 
-0.09323 0.659015 -0.74633 0.452083 0.489996 -0.745335 0.439623 -0.896315 0.0578933 
0.886997 -0.453439 -0.0873434 -0.996924 0.00278302 0.0783245 -0.916456 0.385732 -0.106392 
0.956809 -0.00303528 -0.290702 0.726777 0.359892 -0.585041 -0.0118888 0.574048 -0.818735 
-0.317176 0.55796 -0.766864 -0.701882 0.53678 -0.468218 0.420458 0.45975 -0.782205 
-0.128487 0.612608 -0.779873 -0.881287 -0.469428 0.0545065 0.580915 -0.811043 0.0688969 
0.913936 0.120299 -0.387619 -0.831286 0.449444 -0.327052 0.790973 0.361872 -0.493366 
-0.19406 0.622193 -0.758431 -0.41487 0.677659 -0.607175 -0.199507 -0.976521 0.0812591 
0.475452 -0.876551 0.074864 0.961092 -0.270556 0.0556931 -0.643715 0.74026 -0.194027 
0.598968 0.674748 -0.431221 0.559471 0.517009 -0.647838 0.00166361 0.898856 -0.438241 
0.0485817 -0.987324 0.151097 0.352941 -0.930515 0.0978498 0.913052 -0.377591 0.154145 
-0.874912 0.457832 -0.157859 0.935125 0.151829 -0.32014 0.900065 0.327071 -0.287938 
-0.103245 0.957049 -0.270918 0.478962 0.833787 -0.27458 0.592264 0.697958 -0.402589 
0.0308745 -0.937146 -0.347568 -0.265196 -0.70719 -0.655404 0.202385 -0.730749 -0.651956 
0.490543 -0.572373 0.657082 -0.0857441 0.916076 0.39173 0.263584 -0.957883 0.113944 
0.683013 -0.698113 0.214781 -0.212787 -0.966338 0.144611 -0.985147 0.0865943 -0.148279 
0.955007 -0.240655 -0.173339 0.21716 0.905941 -0.363472 0.699297 0.644587 -0.309017 
-0.412256 -0.638921 0.64948 0.186959 0.951029 -0.246151 0.769281 -0.637393 0.0440067 
0.899365 -0.432536 -0.0636854 -0.923745 0.291262 -0.248722 0.99358 -0.100683 -0.0515956 
0.991035 0.112733 -0.0717046 -0.536101 0.824225 -0.182342 -0.178396 0.973875 -0.140503 
0.767843 0.613421 -0.184746 0.921564 -0.383844 0.0581673 0.202892 0.972429 -0.114961 
0.95475 0.266333 -0.13236 0.922888 0.380643 -0.05821 -0.405697 0.912897 -0.0450403 
0.572543 0.81633 -0.0761542 -0.681434 -0.720143 -0.130542 -0.841825 -0.471601 -0.26253 