# vtk DataFile Version 4.2
vtk output
ASCII
DATASET POLYDATA
POINTS 976 float
364.334 110.032 42.8238 364.295 109.658 42.9305 364.298 109.91 42.8637 
364.325 109.604 42.9544 364.334 110.352 42.7495 364.306 110.327 42.795 
364.371 110.424 42.7216 364.36 110.834 42.6414 364.389 110.83 42.624 
364.413 110.672 42.6684 364.416 111.384 42.4953 364.453 111.556 42.4507 
364.456 112.128 42.3155 364.467 112.185 42.2955 364.479 112.122 42.3148 
364.469 112.31 42.267 364.474 112.35 42.2614 364.476 112.373 42.2482 
364.484 112.353 42.2565 364.476 112.401 42.2426 364.064 107.353 43.6974 
364.203 108.213 43.3892 364.209 108.833 43.1973 364.41 110.011 42.8725 
364.436 110.151 42.8587 364.475 110.863 42.6778 364.49 112.015 42.3584 
364.494 111.727 42.4636 364.482 112.358 42.2622 364.48 112.407 42.2424 
364.491 112.385 42.2508 364.489 112.364 42.2602 364.49 112.289 42.2773 
364.493 112.363 42.2592 363.934 105.386 44.4405 364.004 105.365 44.4114 
364.326 106.917 43.9662 364.364 108.998 43.2151 364.4 108.587 43.4931 
364.302 110.295 42.9135 364.469 111.922 42.4133 364.461 111.556 42.5453 
364.493 111.453 42.5601 364.484 111.759 42.4706 364.488 112.02 42.3748 
364.491 111.59 42.5253 364.491 112.251 42.2955 363.865 103.952 44.9462 
364.048 103.721 45.036 363.878 105.603 44.4604 364.194 104.611 44.7623 
363.966 106.778 44.0844 364.321 105.314 44.6433 363.996 107.337 43.8908 
364.262 109.46 43.2603 364.354 110.29 42.9844 364.367 109.581 43.2628 
364.419 110.707 42.8451 364.401 109.792 43.1758 364.429 110.274 42.9891 
364.479 111.523 42.5565 363.459 100.466 46.349 363.449 100.972 46.1994 
363.72 101.622 45.8221 363.971 102.418 45.5339 364.014 101.831 45.7638 
364.127 103.049 45.3482 364.377 102.287 45.8585 364.172 107.723 43.9435 
364.336 107.038 44.1905 364.317 109.012 43.4726 363.614 98.0551 47.1727 
363.316 98.725 47.0719 363.492 99.7507 46.613 364.09 98.7004 46.9227 
364.33 99.2832 46.7817 363.781 101.211 45.9713 364.521 99.8217 46.6976 
364.707 100.428 46.7578 363.532 102.598 45.9076 364.425 102.506 45.9161 
364.361 103.356 45.6381 363.844 105.142 44.8394 364.071 105.087 45.0668 
364.132 105.505 44.8959 364.243 106.029 44.6651 362.962 96.8838 47.9837 
363.273 96.4424 47.8551 364.615 98.0738 47.3367 363.216 99.5087 47.2193 
364.896 97.9741 47.5197 363.401 100.849 46.7597 363.899 101.517 46.7609 
364.052 102.478 46.2693 364.58 101.216 46.7142 364.376 102.231 46.3138 
364.273 103.805 45.5631 362.863 96.8185 48.3432 364.343 96.4768 47.8837 
365.103 97.485 47.8193 363.248 99.2978 47.4745 363.307 99.862 47.2363 
365.33 97.8987 47.9246 365.672 97.3931 48.3358 363.409 100.198 47.1736 
365.577 97.9504 48.3364 365.14 99.054 47.7445 362.202 91.9334 49.9356 
362.068 91.5306 50.149 362.352 94.7805 49.1901 362.579 95.5539 49.1655 
362.216 94.8779 49.4118 363.225 98.1114 48.1149 363.44 97.0395 48.9732 
363.313 98.9273 47.7512 364.506 97.5835 49.0408 364.885 97.9711 48.829 
364.092 99.7313 47.7023 365.443 97.8843 48.7312 364.355 100.189 47.479 
364.949 99.3931 47.7494 365.925 97.5107 48.7689 361.843 90.1688 50.9157 
362.463 90.7213 50.4173 362.156 90.1256 50.7916 361.733 91.0925 50.6225 
361.585 90.5523 51.0032 361.734 91.7602 50.432 366.622 91.8111 50.5607 
367.322 92.5957 50.5883 361.885 93.3157 50.0469 361.775 92.9785 50.4265 
362.016 93.8282 50.033 367.409 93.9945 50.3912 364.232 96.6302 49.5763 
366.923 95.3317 50.0393 365.039 96.9023 49.5532 366.62 96.0647 49.64 
366.418 96.439 49.4999 361.74 87.8595 52.0432 362.272 87.107 52.2258 
361.434 88.4506 52.125 362.394 89.4156 51.0824 361.607 89.8806 51.2737 
361.472 90.232 51.432 368.26 91.9035 51.4434 361.808 92.9243 50.6151 
367.137 94.8468 50.7528 365.806 96.5414 49.7626 361.561 86.1946 52.9124 
361.443 85.8207 53.2062 361.749 86.0835 52.8879 362.403 86.4768 52.5637 
363.826 87.0711 52.2717 361.517 91.0533 51.4995 368.914 90.1661 52.4375 
361.843 92.6912 50.8494 367.233 93.7068 51.9342 368.338 93.1801 51.6558 
368.05 93.8205 51.4202 361.248 86.1686 53.3402 361.34 87.5493 53.2186 
361.469 89.3365 52.517 361.497 89.9869 52.1884 361.587 89.5952 52.5793 
366.596 93.2101 52.3221 368.648 92.524 52.6389 368.253 93.1423 52.0685 
367.869 93.7641 51.6547 361.045 84.0709 54.6159 361.904 88.7592 53.3966 
361.869 89.6429 52.8403 363.062 89.1375 53.9483 371.341 89.8065 54.4436 
370.728 90.3711 54.0506 372.096 89.4987 55.232 368.69 91.8519 53.3892 
370.194 90.9075 53.8788 373.004 93.0131 54.0087 373.004 93.0131 54.0087 
373.004 93.0132 54.0087 373.004 93.0131 54.0088 373.004 93.0132 54.0088 
360.872 83.5416 55.4088 361.15 85.2369 54.6373 362.016 86.9524 54.6175 
362.533 86.7336 55.1153 361.723 86.9685 54.3289 371.991 87.9136 54.9853 
364.924 88.4675 55.1237 373.28 88.7446 55.897 373.44 88.5593 56.0555 
370.83 90.0739 54.8764 371.744 89.6285 55.3083 372.221 89.4734 55.4571 
372.56 89.248 55.6336 373.046 88.9212 55.8256 373.004 93.0131 54.0088 
372.367 89.4025 55.5793 360.634 81.3933 56.95 360.827 82.6407 56.1451 
360.782 83.2268 55.7462 360.785 83.324 55.7449 373.637 87.6788 56.3266 
373.892 87.484 56.6482 367.629 89.3349 55.2972 373.677 88.1288 56.4509 
371.757 89.0696 56.0541 373.347 88.6983 56.0326 372.38 89.3284 55.688 
373.277 88.7051 56.1396 361.085 78.9228 58.0124 361.065 78.4682 58.3623 
360.693 79.8461 57.863 360.593 80.3545 57.6959 360.58 80.8506 57.3656 
360.588 81.1956 57.2102 360.679 81.8935 56.6969 360.656 81.5436 57.0693 
361.579 84.0433 56.1429 362.507 83.8305 56.9622 373.943 86.915 56.7761 
374.063 86.9127 56.9736 374.172 86.5836 57.3842 373.855 87.5761 57.0194 
373.428 88.4429 56.4076 360.956 77.734 58.9267 360.829 77.8011 58.9714 
360.793 78.2714 58.7311 361.183 77.9192 58.7157 361.776 78.8237 57.8948 
362.814 78.7421 57.9919 360.592 80.571 57.6959 368.541 81.3006 57.5371 
360.738 81.4009 57.3596 361.525 82.8445 57.0027 361.958 82.2671 57.7324 
374.418 84.8536 58.3489 372.954 86.6228 58.2417 374.2 86.5029 57.8178 
373.408 86.9296 57.9774 374.036 86.7511 57.891 361.129 77.1873 59.3954 
362.026 77.26 59.2888 360.645 78.1214 59.1721 360.636 78.8936 58.8876 
367.365 78.7163 59.4735 360.606 79.4061 58.6111 360.597 79.1934 58.7814 
360.595 79.2935 58.7467 374.349 83.6526 58.9594 374.492 84.5636 58.6212 
374.558 84.261 59.0203 373.989 86.0475 58.6765 374.106 86.1288 58.5558 
374.219 86.2927 58.2082 360.542 76.6527 60.1734 361.604 76.4572 60.1582 
360.653 77.0067 59.8005 360.542 76.9702 59.9878 363.413 77.1926 59.7055 
360.686 79.219 58.8708 361.66 79.3763 59.5326 363.662 81.1356 59.3042 
373.432 81.3992 59.7243 374.454 84.8793 59.2008 374.147 85.7288 58.8552 
374.239 85.983 58.5472 360.851 75.8161 60.8237 360.68 75.7474 60.9024 
360.544 75.7833 60.9186 362.083 76.1273 60.6949 362.904 76.2787 60.8692 
360.496 76.1056 60.7179 364.745 76.8374 60.9278 360.477 76.3987 60.5168 
365.807 77.3078 60.9711 362.259 77.7089 60.7699 367.822 78.1166 60.5222 
367.179 77.7638 60.9282 367.707 80.6967 60.7805 374.882 81.0721 61.1651 
374.82 82.1807 60.7059 374.535 84.0534 59.8415 359 72.0087 62.0174 
359 72.0087 62.0175 359 72.0088 62.0175 359 72.0088 62.0175 
360.36 75.4625 61.2164 360.347 75.4929 61.1972 359 72.0088 62.0175 
360.691 75.6661 60.9791 360.432 75.4971 61.1971 360.345 75.5697 61.1488 
360.683 75.6401 61.0745 361.152 75.7618 61.0449 362.534 76.1499 60.9399 
362.367 76.1082 61.0339 360.351 75.648 61.1306 363.996 76.6516 61.0474 
365.07 76.9373 61.0288 364.629 76.7948 61.0426 365.059 76.9079 61.0979 
364.935 76.8634 61.0928 365.021 76.9013 61.1163 360.535 76.4679 60.5836 
360.41 75.8492 60.9916 360.534 76.1258 60.8959 365.201 77.0325 61.1068 
365.593 77.3249 61.1601 360.752 76.6686 60.6815 362.272 77.3765 60.9214 
366.345 77.6385 61.2379 367.48 77.8308 61.3066 368.343 77.94 61.4667 
369.682 77.9799 61.8631 371.535 77.8468 62.2384 367.671 79.3664 61.3597 
374.824 79.9561 61.7238 374.51 82.4047 61.2734 374.717 81.966 61.582 
359 72.0087 62.0175 360.365 75.4778 61.2228 360.482 75.5509 61.2077 
360.352 75.5324 61.2072 360.735 75.6654 61.1842 361.873 76.0417 61.1366 
360.365 75.6088 61.1955 360.583 75.92 61.1095 361.014 76.0232 61.1696 
364.161 76.8952 61.1611 364.881 76.9014 61.1207 362.513 76.6997 61.1477 
364.712 77.3033 61.2056 373.12 77.0878 63.5721 367.969 78.0325 61.5733 
370.188 78.0401 62.3812 370.904 77.8369 62.581 367.099 78.1646 61.4545 
368.647 78.3934 61.8608 375.47 79.672 62.7723 375.269 80.4514 62.4739 
375.013 81.3807 61.8432 360.589 75.6727 61.2175 361.462 75.9643 61.1628 
374.551 76.3546 64.6818 372.757 77.1863 63.7796 371.242 77.8638 62.9297 
371.852 77.6316 63.2263 370.242 78.2726 62.499 374.337 79.8531 63.3481 
375.897 78.9628 63.747 375.387 79.7622 63.3157 373.742 76.6389 64.7971 
375.966 76.1597 65.2781 372.59 77.4444 63.8461 376.183 76.9055 64.8304 
376.244 77.361 64.6219 376.394 78.0107 64.6377 376.749 77.5113 65.2829 
376.097 78.5752 64.2424 374.318 76.1924 65.3271 377.228 75.3996 66.5628 
374.355 76.3207 65.4775 373.173 77.2715 64.3459 377.449 76.3907 66.2204 
373.52 77.3716 64.5791 375.652 77.3357 65.6679 380.004 79.0131 66.0087 
380.004 79.0132 66.0087 380.004 79.0132 66.0087 380.004 79.0131 66.0088 
376.154 78.3239 64.6745 380.004 79.0132 66.0088 377.464 74.0464 67.8845 
375.478 75.186 66.6505 375.136 75.5327 66.3298 374.778 75.8761 65.9234 
377.868 75.7385 66.8085 375.453 76.452 66.2709 378.013 76.0243 66.9282 
378.707 75.603 67.582 378.952 75.5349 67.7845 379.053 75.4817 67.8705 
377.653 76.3521 66.8644 378.424 75.8265 67.4424 378.817 75.6041 67.7237 
380.004 79.0131 66.0088 377.112 73.4753 68.6664 378.633 74.0439 68.3097 
375.089 75.6408 66.3328 379.2 74.7274 68.2386 375.497 75.6892 66.728 
379.579 74.8084 68.5915 379.859 74.5613 68.9814 379.213 75.2274 68.1678 
378.856 75.5144 67.9238 376.991 73.5815 68.6676 377.47 73.169 69.034 
378.459 72.6941 69.6445 376.694 73.948 68.3299 376.453 74.2802 68.0815 
379.934 74.3837 69.062 379.956 74.4995 69.2327 377.568 73.0262 69.5491 
[...]
POINT_DATA 976
SCALARS scalars float
LOOKUP_TABLE default
1 1 1 1 1 1 1 1 1 
1 1 1 1 1 1 1 1 1 
1 1 1 1 1 1 1 1 1 
1 1 1 1 1 1 1 1 1 
1 1 1 1 1 1 1 1 1 
1 1 1 1 1 1 1 1 1 
1 1 1 1 1 1 1 1 1 
1 1 1 1 1 1 1 1 1 
1 1 1 1 1 1 1 1 1 
1 1 1 1 1 1 1 1 1 
1 1 1 1 1 1 1 1 1 
1 1 1 1 1 1 1 1 1 
1 1 1 1 1 1 1 1 1 
1 1 1 1 1 1 1 1 1 
1 1 1 1 1 1 1 1 1 
1 1 1 1 1 1 1 1 1 
1 1 1 1 1 1 1 1 1 
1 1 1 1 1 1 1 1 1 
1 1 1 1 1 1 1 1 1 
1 1 1 1 1 1 1 1 1 
1 1 1 1 1 1 1 1 1 
1 1 1 1 1 1 1 1 1 
1 1 1 1 1 1 1 1 1 
1 1 1 1 1 1 1 1 1 
1 1 1 1 1 1 1 1 1 
1 1 1 1 1 1 1 1 1 
1 1 1 1 1 1 1 1 1 
1 1 1 1 1 1 1 1 1 
1 1 1 1 1 1 1 1 1 
1 1 1 1 1 1 1 1 1 
1 1 1 1 1 1 1 1 1 
1 1 1 1 1 1 1 1 1 
1 1 1 1 1 1 1 1 1 
1 1 1 1 1 1 1 1 1 
1 1 1 1 1 1 1 1 1 
1 1 1 1 1 1 1 1 1 
1 1 1 1 1 1 1 1 1 
1 1 1 1 1 1 1 1 1 
1 1 1 1 1 1 1 1 1 
1 1 1 1 1 1 1 1 1 
1 1 1 1 1 1 1 1 1 
1 1 1 1 1 1 1 1 1 
1 1 1 1 1 1 1 1 1 
1 1 1 1 1 1 1 1 1 
1 1 1 1 1 1 1 1 1 
1 1 1 1 1 1 1 1 1 
1 1 1 1 1 1 1 1 1 
1 1 1 1 1 1 1 1 1 
1 1 1 1 1 1 1 1 1 
1 1 1 1 1 1 1 1 1 
1 1 1 1 1 1 1 1 1 
1 1 1 1 1 1 1 1 1 
1 1 1 1 1 1 1 1 1 
1 1 1 1 1 1 1 1 1 
1 1 1 1 1 1 1 1 1 
1 1 1 1 1 1 1 1 1 
1 1 1 1 1 1 1 1 1 
1 1 1 1 1 1 1 1 1 
1 1 1 1 1 1 1 1 1 
1 1 1 1 1 1 1 1 1 
1 1 1 1 1 1 1 1 1 
1 1 1 1 1 1 1 1 1 
1 1 1 1 1 1 1 1 1 
1 1 1 1 1 1 1 1 1 
1 1 1 1 1 1 1 1 1 
1 1 1 1 1 1 1 1 1 
1 1 1 1 1 1 1 1 1 
1 1 1 1 1 1 1 1 1 
1 1 1 1 1 1 1 1 1 
1 1 1 1 1 1 1 1 1 
1 1 1 1 1 1 1 1 1 
1 1 1 1 1 1 1 1 1 
1 1 1 1 1 1 1 1 1 
1 1 1 1 1 1 1 1 1 
1 1 1 1 1 1 1 1 1 
1 1 1 1 1 1 1 1 1 
1 1 1 1 1 1 1 1 1 
1 1 1 1 1 1 1 1 1 
1 1 1 1 1 1 1 1 1 
1 1 1 1 1 1 1 1 1 
1 1 1 1 1 1 1 1 1 
1 1 1 1 1 1 1 1 1 
1 1 1 1 1 1 1 1 1 
1 1 1 1 1 1 1 1 1 
1 1 1 1 1 1 1 1 1 
1 1 1 1 1 1 1 1 1 
1 1 1 1 1 1 1 1 1 
1 1 1 1 1 1 1 1 1 
1 1 1 1 1 1 1 1 1 
1 1 1 1 1 1 1 1 1 
1 1 1 1 1 1 1 1 1 
1 1 1 1 1 1 1 1 1 
1 1 1 1 1 1 1 1 1 
1 1 1 1 1 1 1 1 1 
1 1 1 1 1 1 1 1 1 
1 1 1 1 1 1 1 1 1 
1 1 1 1 1 1 1 1 1 
1 1 1 1 1 1 1 1 1 
1 1 1 1 1 1 1 1 1 
1 1 1 1 1 1 1 1 1 
1 1 1 1 1 1 1 1 1 
1 1 1 1 1 1 1 1 1 
1 1 1 1 1 1 1 1 1 
1 1 1 1 1 1 1 1 1 
1 1 1 1 1 1 1 1 1 
1 1 1 1 1 1 1 1 1 
1 1 1 1 1 1 1 1 1 
1 1 1 1 1 1 1 1 1 
1 1 1 1 
NORMALS Normals float
0.131876 -0.26865 -0.954168 -0.101307 -0.280682 -0.954439 -0.601612 -0.170405 -0.7804 
0.586416 -0.298113 -0.753157 -0.535683 -0.167404 -0.827659 -0.912143 -0.0417155 -0.407744 
0.0351274 -0.246865 -0.968413 -0.778992 -0.0874222 -0.620909 -0.19716 -0.215933 -0.956295 
0.519733 -0.238321 -0.820415 -0.546788 -0.156899 -0.822439 0.294546 -0.237578 -0.925635 
-0.950206 -0.00847379 -0.311507 -0.218577 -0.222657 -0.950078 0.556668 -0.219052 -0.801334 
-0.898889 -0.052259 -0.435048 -0.728599 0.260004 0.633673 -0.0321406 -0.217302 -0.975575 
0.552276 -0.194998 -0.810535 -0.947469 0.0665181 -0.312855 -0.531112 -0.242775 -0.811776 
0.221598 -0.321061 -0.920768 -0.719365 -0.155171 -0.677079 0.75175 -0.254285 -0.60845 
0.909523 -0.188341 -0.370533 0.912312 -0.134292 -0.386849 0.958801 -0.0806366 -0.272395 
0.991205 0.0500975 0.122483 -0.286819 0.326237 0.900724 -0.439738 0.322338 0.838289 
-0.305181 0.413923 0.857632 -0.0677212 0.51369 0.855299 0.78509 -0.171801 -0.595078 
0.929596 0.139596 0.341121 -0.564212 -0.17706 -0.806421 -0.257686 -0.261475 -0.930177 
0.762837 -0.242336 -0.599461 0.84295 -0.205809 -0.49707 0.998664 -0.0403644 -0.0322693 
-0.876915 0.211995 0.431367 -0.0683306 0.332395 0.940662 -0.247122 0.339063 0.907726 
0.946468 0.0821616 0.312167 0.464812 0.301245 0.832587 0.772811 0.209245 0.59915 
0.798428 0.18475 0.573045 0.850952 0.158929 0.500622 -0.244977 -0.339519 -0.908137 
0.228743 -0.355637 -0.9062 -0.915259 -0.0225807 -0.402233 0.781177 -0.232659 -0.579337 
-0.9929 0.0484625 -0.10863 0.94923 -0.127824 -0.287443 -0.966404 0.151034 0.207969 
-0.78735 0.264366 0.556947 -0.409345 0.336035 0.848243 0.149928 0.336945 0.92951 
0.380804 0.28999 0.878006 0.623348 0.254304 0.739437 0.827639 0.187944 0.528858 
0.238718 0.316074 0.91821 -0.483104 -0.316735 -0.816266 -0.797438 -0.157962 -0.582357 
-0.250001 -0.300903 -0.920303 0.123203 -0.299839 -0.946001 0.365189 -0.37495 -0.852085 
0.176278 -0.342234 -0.922931 0.695114 -0.241602 -0.677086 -0.55483 0.336929 0.760685 
0.903617 0.146556 0.402491 -0.199694 0.355641 0.91304 -0.0970317 -0.318104 -0.943077 
-0.614599 -0.228466 -0.75503 -0.587446 -0.23805 -0.77346 0.0252065 -0.410428 -0.911545 
0.152403 -0.311177 -0.938053 0.164511 -0.395716 -0.903518 0.599825 -0.228657 -0.766763 
0.922119 0.00626404 -0.386856 -0.928027 0.230497 0.292637 0.966488 0.00977076 -0.256528 
0.997057 0.0723797 0.0252581 -0.736079 0.328117 0.592053 -0.0758397 0.397914 0.914283 
-0.197031 0.387894 0.900398 0.209672 0.358212 0.909792 -0.872603 -0.0534108 -0.485501 
-0.395411 -0.30638 -0.865899 0.375627 -0.111387 -0.920053 -0.99648 0.0742196 -0.0389758 
0.624628 0.0775518 -0.777062 -0.570297 0.40464 0.714863 -0.347165 0.415572 0.8407 
0.0112832 0.452194 0.891848 0.960974 0.23839 0.14035 0.616284 0.414992 0.66931 
0.502201 0.356466 0.787862 -0.962724 0.239139 0.126391 0.256858 -0.38943 -0.884516 
0.346542 -0.437395 -0.829816 -0.941704 0.125721 0.312069 -0.772514 0.34663 0.532042 
0.730605 -0.0118566 -0.682698 0.738943 -0.0705232 -0.670067 -0.737224 0.386963 0.55386 
0.909332 0.397376 -0.123319 0.961962 0.266849 -0.0584908 -0.239554 -0.347729 -0.906476 
-0.536034 -0.311962 -0.784441 -0.916586 0.0946533 -0.388472 -0.83604 0.413652 0.360458 
-0.920083 0.369136 0.131099 -0.598284 0.43072 0.675675 -0.372822 0.537664 0.756254 
-0.752007 0.294969 0.589474 -0.162901 0.594717 0.787258 -0.107611 0.594573 0.796808 
-0.180811 0.479299 0.858825 0.425673 0.643483 0.636185 -0.0187622 0.458162 0.888671 
0.639883 0.491955 0.590365 0.865629 0.500571 0.0107651 -0.535482 -0.3844 -0.751994 
-0.160875 -0.444954 -0.880985 -0.154053 -0.447005 -0.881166 -0.783235 -0.199092 -0.588986 
-0.855179 -0.157871 -0.493707 -0.843671 -0.0936598 -0.528628 0.299571 -0.366828 -0.880735 
0.431792 -0.230386 -0.872054 -0.959462 0.0919185 -0.266427 -0.989862 0.140732 0.0191994 
-0.898551 0.361063 0.249478 0.792842 0.107787 -0.599819 -0.320203 0.512363 0.79684 
0.911589 0.345814 -0.222303 -0.120703 0.534875 0.836265 0.91732 0.397654 -0.0198849 
0.679098 0.595979 0.428526 -0.445099 -0.36841 -0.816187 -0.139423 -0.409435 -0.901623 
-0.972997 -0.0623195 -0.222244 -0.169236 -0.416011 -0.893473 -0.662768 -0.346678 -0.663742 
-0.974963 -0.00871528 -0.222197 0.741253 -0.105282 -0.662918 -0.867029 0.330327 0.373021 
0.416534 0.717198 0.558682 0.179684 0.605865 0.77501 -0.515401 -0.344012 -0.784868 
-0.412427 -0.561099 -0.717685 -0.134077 -0.607317 -0.783064 -0.0835764 -0.570194 -0.817248 
0.141836 -0.437783 -0.887822 -0.936581 0.221717 0.271401 0.610216 -0.228013 -0.758714 
-0.755612 0.395779 0.521929 0.167428 0.578907 0.798019 0.809396 0.586863 0.0216933 
0.801891 0.585156 0.120676 -0.934025 -0.0937023 -0.344698 -0.928534 0.270527 0.254244 
-0.87719 0.220859 0.426332 -0.893234 0.261093 0.366011 -0.736245 0.296715 0.608197 
0.0058486 0.554563 0.832121 0.448448 0.753856 0.480203 0.603611 0.668422 0.434586 
0.385001 0.642079 0.662955 -0.738582 -0.348388 -0.577167 -0.577167 0.374712 0.725582 
-0.483012 0.507789 0.713337 -0.299818 0.631885 0.714724 0.664207 0.274969 -0.695141 
0.767013 0.320191 -0.55603 0.578427 0.800651 -0.156141 0.0664171 0.672396 0.737206 
0.388027 0.80163 0.45478 0.0860008 -0.82051 -0.565126 -0.295567 0.407997 -0.863817 
0.262443 0.444642 -0.856398 0.356989 -0.476488 0.803442 -0.0592598 0.839618 0.539935 
-0.955888 -0.0860922 -0.280832 -0.895516 0.297485 0.33099 -0.621497 0.411316 0.666753 
-0.570048 0.36742 0.73488 -0.684538 0.35192 0.638405 0.556668 -0.216803 -0.801946 
-0.270039 0.544072 0.794395 0.719136 0.508656 -0.473405 0.851756 0.203529 -0.482792 
0.120737 0.818642 0.561469 0.149568 0.897186 0.415556 0.480202 0.86975 -0.11376 
0.589404 0.800031 0.112042 0.573277 0.818975 -0.0251594 -0.228712 -0.530102 0.816507 
0.301083 0.890088 0.342187 -0.982292 -0.00431535 -0.187305 -0.975412 0.1561 0.155576 
-0.95794 -0.145734 -0.24721 -0.896686 0.275199 0.346726 0.736511 -0.121481 -0.665428 
0.835053 -0.0497791 -0.547913 -0.0993244 0.560692 0.822046 0.854544 0.508989 0.103366 
0.0721704 0.661166 0.74676 0.70217 0.704731 0.101546 0.306114 0.668786 0.67751 
0.461945 0.788703 0.405653 -0.613447 -0.417513 -0.670347 -0.285124 -0.614041 -0.735974 
-0.909904 -0.272751 -0.312541 -0.992536 -0.114856 0.0409928 -0.999794 -0.0123658 -0.0160848 
-0.940298 0.214362 0.264366 -0.98912 0.14683 -0.00910278 -0.858746 0.343766 0.379975 
-0.571452 0.435263 0.695693 -0.506163 0.477483 0.718198 0.679235 -0.301582 -0.669095 
0.974239 0.155711 -0.163135 0.969121 -0.00231539 -0.246574 0.82239 0.507742 0.256655 
0.241561 0.616319 0.749533 -0.39129 -0.571302 -0.721462 -0.620051 -0.452575 -0.640869 
-0.717496 -0.348508 -0.60311 -0.177774 -0.575239 -0.798434 -0.0800641 -0.573195 -0.815498 
0.12145 -0.642474 -0.756622 -0.912085 0.17996 0.368396 0.204498 -0.54607 -0.812396 
-0.759331 0.417062 0.499476 -0.569686 0.480382 0.666852 -0.528765 0.4916 0.691908 
0.934993 -0.0812691 -0.345231 0.0158887 0.578864 0.815269 0.979376 0.202034 0.00218389 
0.0839925 0.654383 0.751484 0.517672 0.634752 0.573678 -0.209797 -0.739052 -0.640146 
0.0522225 -0.726262 -0.685432 -0.948699 -0.139806 -0.283591 -0.90968 0.148749 0.387758 
0.219976 -0.760019 -0.611541 -0.892924 0.308067 0.3283 -0.969726 0.0128319 0.24386 
-0.798725 0.376024 0.469729 0.739976 -0.312422 -0.595674 0.795558 -0.229151 -0.560872 
0.988074 0.0228738 -0.152271 -0.0262892 0.489641 0.871528 0.436498 0.646218 0.625996 
0.837037 0.450409 0.310646 -0.743361 -0.409898 -0.528581 0.123215 -0.743874 -0.656863 
-0.426646 -0.622268 -0.65632 -0.902299 -0.202611 -0.380533 0.239981 -0.712821 -0.659011 
-0.580401 0.39516 0.712028 -0.494371 0.479735 0.724881 -0.318862 0.52039 0.792162 
0.404916 -0.538309 -0.739099 0.876874 0.345773 0.333965 0.349235 0.555134 0.754892 
0.830956 0.401475 0.385136 0.0177282 -0.76858 -0.639508 -0.376654 -0.633502 -0.675875 
-0.214028 -0.671685 -0.709247 0.261901 -0.787967 -0.557239 0.263261 -0.919787 -0.291008 
-0.803201 -0.31476 -0.505761 0.314076 -0.914928 -0.253501 -0.988479 0.138509 -0.0610252 
0.322767 -0.92598 -0.195914 -0.145722 0.384644 0.91149 0.45688 -0.73372 -0.502908 
0.225949 -0.932548 -0.281605 -0.304977 0.394195 0.866948 0.923179 -0.199722 -0.328409 
0.993488 0.0976668 -0.0586832 0.944308 0.272002 0.185196 0 -0.19093 -0.981604 
0 -0.994815 -0.101701 -0.684318 -0.722522 -0.0983355 0.684318 -0.722522 -0.0983355 
-0.0530133 -0.959559 -0.276471 -2.14844e-05 -0.533373 -0.84588 0 0.351123 -0.936329 
-0.163856 -0.843348 -0.511777 0.512522 -0.722952 0.463315 -0.732665 -0.351924 -0.582539 
0.0751155 -0.947802 -0.309887 0.257172 -0.952717 -0.161843 0.29196 -0.914267 -0.280847 
0.26495 -0.875543 0.404011 -0.959224 0.232392 0.160881 0.246477 -0.86624 0.4346 
0.415297 -0.887776 -0.198449 0.224207 -0.960985 0.161985 0.487265 -0.862127 0.138957 
0.226476 -0.93014 0.289048 0.225224 -0.557407 0.799107 -0.850428 0.466287 0.243616 
-0.934896 0.343631 0.0888088 -0.686895 0.502424 0.525114 0.44021 -0.638333 0.631464 
0.233012 -0.54649 0.804397 -0.547375 0.535501 0.643133 -0.115405 0.341161 0.932894 
0.0871833 -0.61779 0.781495 0.128342 -0.91592 0.380288 0.208968 -0.977863 -0.010763 
-0.0579167 -0.996797 -0.0551467 0.0147835 -0.928607 -0.37077 -0.369628 0.267601 0.889811 
0.84227 -0.242311 -0.481526 0.532606 0.580505 0.615909 0.50826 0.637707 0.578793 
0 -0.336861 0.941555 -0.218129 -0.199081 0.955399 0.327901 -0.440648 0.835649 
-0.673353 0.126311 0.728451 0.277801 -0.633933 0.721772 0.0708592 -0.272666 0.959496 
-0.545511 0.423003 0.723523 -0.341259 0.549185 0.762848 -0.125951 0.29968 0.945689 
0.0144104 -0.126073 0.991916 0.0839982 -0.425704 0.900955 0.00561208 0.24824 0.968682 
-0.065084 -0.00307236 0.997875 -0.233801 -0.905961 -0.352946 -0.129972 -0.603942 0.78636 
-0.327298 -0.699271 0.635528 -0.293689 -0.925906 0.23758 -0.23998 -0.0342333 0.970174 
-0.316046 -0.106775 0.942716 0.939189 0.0592217 -0.338254 0.932761 0.353741 0.0694609 
0.870577 0.429148 0.240681 0.0189781 0.0119509 0.999748 0.127535 -0.332109 0.934579 
0.0806916 -0.761862 -0.642694 -0.633766 -0.728235 0.260798 -0.477398 -0.721345 0.501749 
-0.436629 -0.881779 0.178386 -0.417331 -0.0382949 0.907947 -0.128355 0.578899 0.805233 
0.847113 0.523168 0.0932401 0.585627 0.641176 0.495917 -0.753175 -0.326612 0.57101 
0.0505048 -0.587379 -0.807735 -0.663216 -0.250971 0.705094 0.479382 -0.423729 -0.768535 
0.44906 -0.472057 -0.758622 0.91339 0.0382079 -0.405289 0.863937 0.488717 -0.121523 
0.798145 0.591921 0.112219 -0.77663 -0.515619 0.361916 0.365174 -0.575962 -0.731379 
-0.753435 -0.0788172 0.652781 -0.658509 0.060088 0.75017 0.750699 -0.111278 -0.651206 
-0.53178 0.372784 0.760422 0.198619 0.57653 0.792568 0.0761865 -0.84739 -0.525477 
-0.458981 0.581008 -0.672135 0.362138 0.653205 -0.664966 0.450827 -0.534192 0.715118 
0.493676 0.703604 0.511103 -0.0717508 0.837755 0.541312 0.149499 -0.693087 -0.705181 
-0.79801 -0.553425 0.238539 -0.778664 -0.355502 0.517012 -0.827691 -0.256356 0.499209 
0.575532 -0.342376 -0.742658 -0.321084 0.50394 0.801842 0.80585 0.368384 -0.463572 
0.702324 0.172724 -0.690585 0.643043 0.6063 -0.467864 0.777531 0.400259 -0.485014 
0.466753 0.840421 0.275381 0.602011 0.7869 -0.13554 0.484056 0.873667 -0.0489543 
-0.35047 -0.606726 0.71348 -0.393169 -0.826211 -0.403477 0.438802 -0.515974 -0.735679 
-0.761588 -0.142275 0.632251 0.635999 -0.265384 -0.724622 -0.709473 0.094362 0.698387 
0.839907 0.233932 -0.489726 0.832326 0.501411 -0.236262 0.838422 0.508982 -0.194899 
0.154006 0.864711 0.478077 -0.715811 -0.698117 -0.0157331 -0.327428 -0.861861 -0.387281 
0.0479106 -0.792215 -0.608358 -0.857994 -0.416978 0.299959 -0.832329 -0.114151 0.542401 
0.8072 -0.104649 -0.580927 0.752824 0.655112 -0.0639105 -0.872732 -0.31095 0.376362 
-0.493067 -0.830067 -0.260526 -0.710446 0.201927 0.67416 -0.590956 0.292912 0.751647 
-0.456803 0.392624 0.798234 -0.368434 0.556948 0.744356 0.76661 -0.151881 -0.623892 
0.683658 -0.374725 -0.626253 0.873687 -0.165258 -0.45756 -0.122157 0.741422 0.659826 
0.80331 0.594912 -0.027807 0.393418 0.850593 0.348875 0.843024 0.532791 -0.0737877 
-0.119174 -0.796739 -0.592456 0.163326 -0.777617 -0.607154 -0.555145 -0.798021 -0.234471 
-0.300483 -0.828867 -0.471899 0.459529 -0.645543 -0.610006 -0.696181 0.24233 0.675728 
-0.291305 0.595017 0.749063 0.925283 0.379222 -0.00654449 -0.135253 -0.885915 -0.443691 
-0.12562 -0.946515 -0.297201 -0.53225 -0.836479 -0.130432 -0.826513 -0.464469 0.318032 
-0.783771 -0.616726 0.0731619 -0.867658 -0.409606 0.281766 0.679169 -0.623274 -0.387632 
-0.271411 0.630021 0.727606 0.913074 -0.166758 -0.372138 0.888791 0.457694 0.0238009 
0.908399 0.388817 0.153731 0.257076 0.778879 0.572067 0.386967 0.738646 0.551958 
-0.128805 -0.990913 -0.038737 -0.638633 -0.723075 0.263268 0.245874 -0.966703 -0.0709296 
0.404858 -0.885444 -0.228207 0.102797 -0.991183 0.0835971 0.73125 -0.672756 0.112569 
-0.763968 0.0105971 0.645167 0.214011 -0.892617 -0.396779 0.65819 -0.752274 0.0294986 
0.781197 -0.61526 -0.105769 0.907225 -0.337182 0.251498 0.904385 -0.362654 -0.224879 
0.942201 -0.0303686 0.33367 0.836155 0.33528 0.434088 0.147795 0.664588 0.732447 
-0.624308 -0.294468 0.723552 -0.193403 -0.60156 0.775062 0.139185 -0.891532 0.431044 
0.209432 -0.648998 0.731396 0.340326 -0.703755 0.623624 -0.371993 0.0761812 0.925104 
0.262841 -0.850933 0.454782 0.357644 -0.483968 0.798665 -0.379473 0.317087 0.86917 
0.33713 -0.318296 0.88602 0.647403 -0.731562 0.213744 0.745425 -0.629834 0.218289 
0.52029 -0.198863 0.830513 -0.0953069 0.386019 0.917554 0.299221 0.367067 0.880755 
0.118456 0.419106 0.900177 0.353623 0.464764 0.811754 -0.0565917 -0.123758 0.990697 
0.0606838 -0.0619435 0.996233 -0.0588033 0.354709 0.933126 0.0432489 -0.911017 -0.410094 
0.0231843 -0.942869 0.332355 -0.250407 -0.881925 0.399381 0.317005 -0.937606 0.142842 
-0.000412952 -0.879475 0.475945 -0.440242 -0.77539 0.452721 -0.516059 -0.774002 0.366886 
0.298551 -0.262632 -0.917547 -0.209896 0.448819 -0.868622 0.135856 0.0480338 -0.989564 
0.150966 0.276543 -0.94907 0.941675 -0.121744 -0.313729 0.394026 -0.785371 -0.477426 
0.0292231 0.182075 -0.98285 0.936122 -0.296062 0.1898 0.346273 0.729209 -0.590211 
0.617294 -0.758084 -0.210373 -0.214914 0.672794 -0.707927 -0.915464 -0.379746 -0.133113 
0.400495 -0.267496 -0.876385 0.597223 -0.728907 0.334693 -0.67645 0.266184 -0.686703 
-0.699953 0.246661 -0.670242 -0.227947 0.474342 -0.850317 0.649976 -0.453275 -0.609978 
-0.0930462 0.490697 -0.866348 -0.217112 0.501138 -0.837689 0.12576 -0.316208 -0.940318 
0.5968 -0.795568 -0.104407 0.716207 -0.555416 0.422564 0.238337 0.62676 -0.741867 
0.598697 -0.569051 0.563687 0.308497 0.624153 -0.717818 0.992135 0.120871 0.0325291 
0.279551 0.830981 -0.480959 0.70831 0.701012 0.082937 0.0872734 -0.79845 0.595702 
-0.485866 -0.826049 0.285617 0.40038 -0.850727 0.340527 0.325655 -0.501797 0.801342 
-0.8619 -0.463013 -0.206755 -0.510293 -0.825563 0.240932 -0.745568 -0.666429 -0.000535681 
0.131247 -0.00326649 -0.991344 0.548055 -0.825035 0.137669 0.520062 -0.755722 -0.39802 
-0.311119 0.55906 -0.768542 0.568411 -0.611226 0.550738 0.503551 -0.676818 0.536986 
-0.239796 0.575234 -0.782051 0.775845 -0.135075 0.616294 0.399363 -0.547425 0.735415 
-0.219534 0.663182 -0.715538 0.896496 0.159911 0.413187 -0.543703 -0.769076 0.336018 
0.0232075 -0.804799 0.593093 -0.824402 -0.562071 -0.0666145 -0.884584 -0.150792 -0.44133 
-0.810805 0.0655147 -0.581638 0.441934 0.773215 -0.454788 0.876848 0.475959 -0.067837 
-0.0738458 -0.905071 0.418801 -0.285393 -0.842741 0.456441 -0.665446 -0.728101 0.164471 
-0.89544 -0.384104 -0.225058 0.216365 -0.780693 0.586264 -0.896553 -0.147847 -0.417533 
0.919734 -0.0624513 0.387542 -0.0613564 0.754256 -0.653708 0.952982 0.191707 0.234676 
0.518576 0.785748 -0.337163 0.376102 0.85307 -0.361689 0.837983 0.542709 -0.0570205 
0.201087 -0.752821 0.626758 -0.592349 -0.746213 0.303791 -0.825493 -0.563484 0.0323604 
-0.842841 -0.535914 -0.0491458 -0.598447 0.360305 -0.715571 0.813091 -0.22469 0.537027 
0.893965 0.0315684 0.447023 -0.228404 0.672007 -0.704442 0.859556 0.477183 0.182922 
0.677821 0.735226 0.00124151 -0.353373 -0.795102 0.492889 0.0864691 -0.74718 0.658973 
-0.72275 0.163124 -0.671583 -0.888644 -0.160821 -0.429475 0.299757 -0.577236 0.759569 
-0.336229 0.560789 -0.756615 0.613115 -0.351695 0.70739 0.655243 -0.186467 0.732043 
0.863991 0.131802 0.485951 0.09069 0.833148 -0.545564 0.829427 0.450836 0.329844 
-0.783212 -0.620049 -0.0460253 -0.872341 -0.173939 -0.45691 -0.703123 0.189043 -0.685478 
0.62878 -0.285724 0.723186 -0.246945 0.736774 -0.62943 0.802624 0.15126 0.576988 
-0.187385 0.774732 -0.603885 0.555712 0.794768 -0.243983 0.792819 0.532932 0.295671 
0.0043918 0.865079 -0.501616 0.909774 0.387225 0.149558 0.0308745 -0.937146 -0.347568 
-0.265196 -0.70719 -0.655404 0.202385 -0.730749 -0.651956 0.490543 -0.572373 0.657082 
-0.0857441 0.916076 0.39173 0.104439 0.797494 -0.594219 0.123812 0.761738 -0.635945 
0.715453 0.698525 -0.0137683 -0.412256 -0.638921 0.64948 0.520721 0.761668 -0.385633 
-0.782457 -0.0757307 -0.618082 -0.109166 -0.827794 0.550308 -0.73131 -0.170643 -0.660353 
-0.545884 0.378808 -0.747339 -0.65346 0.19995 -0.730075 -0.377399 0.59064 -0.713243 
0.882114 0.314507 0.350657 -0.196454 0.640237 -0.742632 0.345574 0.77777 -0.525026 
0.772555 0.625528 -0.108968 0.798093 0.599387 0.0615101 -0.735786 -0.634206 -0.237489 
0.212383 -0.721661 0.658862 -0.623204 -0.621533 -0.474672 -0.538742 -0.840393 -0.0591357 
-0.585491 0.0745784 -0.807241 -0.413627 0.448774 -0.792158 0.88366 0.254178 0.393114 
0.0822977 0.712535 -0.696793 0.583365 0.714227 -0.386736 0.214426 -0.75866 -0.615188 