# vtk DataFile Version 4.2
vtk output
ASCII
DATASET POLYDATA
POINTS 1834 float
354.039 50.9992 90.2141 355.425 51.4279 90.016 355.367 51.1222 90.1648 
355.241 51.701 89.9528 356.669 52.1538 89.8686 358.617 52.2427 90.0339 
357.006 52.4289 89.8113 360.586 53.4004 89.8297 362.355 54.2492 89.812 
362.204 54.2434 89.8135 362.557 54.197 89.8665 366.656 54.2189 90.2232 
362.436 54.4316 89.8458 367.928 54.716 90.2411 349.543 50.4221 90.6172 
356.538 51.6127 90.0498 356.099 50.949 90.3669 361.822 52.9934 90.2229 
359.971 53.3144 89.9002 361.247 53.5062 89.9407 363.781 53.5635 90.2702 
365.011 53.6424 90.3696 356.034 53.2661 89.9886 358.708 53.848 89.9265 
361.8 54.1676 89.8679 363.327 54.4289 89.9614 361.186 54.623 89.9358 
362.438 55.2685 89.9717 363.604 55.2028 89.9343 370.794 55.4853 90.4707 
372.315 56.337 90.4764 372.915 55.9938 90.7167 368.955 57.1635 90.1662 
371.924 57.6852 90.2987 375.43 57.8189 90.6609 374.078 59.0488 90.3624 
373.916 59.0303 90.37 374.286 59.0049 90.3903 379.997 59.0364 90.922 
380.029 59.6565 90.7908 383.214 59.8114 91.1781 384.666 60.9987 91.1023 
385.092 61.0034 91.1279 385.875 60.9552 91.3381 386.043 61.3818 91.3186 
386.949 61.7431 91.5841 387.145 61.7463 91.6793 386.956 61.87 91.6377 
340.078 47.7448 92.1338 340.913 47.5285 92.1487 340.306 48.1492 91.9535 
341.193 47.806 91.9766 344.062 48.8294 91.4031 349.813 51.5049 90.4942 
356.856 50.5487 90.77 358.567 50.7346 90.9369 345.09 51.3545 91.1038 
349.386 52.092 90.6376 365.003 52.3091 91.209 348.363 52.8262 91.0041 
349.225 53.2827 91.057 348.874 53.8573 91.564 353.799 54.1393 90.6555 
372.196 55.196 90.9201 355.705 55.2162 91.0403 361.477 55.7889 90.3066 
363.517 56.0297 90.1177 363.311 56.5395 90.4161 376.031 56.807 91.1742 
361.942 56.8962 90.9792 362.524 57.4578 91.4122 364.08 58.0327 91.5629 
365.929 57.715 90.6696 367.055 57.9461 90.6459 368.821 58.2832 90.5268 
371.201 58.984 90.6299 373.476 58.9124 90.4222 376.183 59.2514 90.5897 
377.317 59.2645 90.6905 364.758 58.0905 91.3056 367.841 58.4962 90.8724 
374.23 59.9637 90.7289 378.192 60.0133 90.7377 384.627 60.4926 91.2219 
384.371 59.8336 91.4667 386.519 61.3905 91.4928 380.295 61.6235 90.9531 
381.351 61.5103 90.9573 387.955 61.7616 92.1744 378.215 61.6909 91.0501 
380.442 62.1718 91.0824 383.939 62.0202 91.2341 385.547 62.2216 91.513 
386.148 62.5983 91.8348 384.371 63.1109 91.8652 338.911 47.2608 92.7401 
338.37 47.4842 92.8071 342.041 47.4997 92.1423 345.065 48.4008 91.5844 
341.186 49.5039 91.5639 341.396 50.2026 91.6144 358.731 50.3962 91.2099 
358.543 50.3537 91.2346 342.167 50.8681 91.601 343.202 50.8385 91.2997 
359.496 50.3987 91.489 369.162 53.2598 91.494 343.868 52.374 92.0035 
347.115 53.7113 91.8828 349.056 54.3578 92.0021 349.393 54.4714 92.1867 
349.634 54.6154 92.1809 349.516 54.6202 92.1352 350.071 54.7151 92.1418 
350.63 54.831 92.1485 351.888 54.9072 91.8029 352.967 54.8549 91.3955 
349.228 54.591 92.1956 349.774 54.7252 92.2453 351.004 57.0131 91.0087 
351.004 57.0131 91.0087 351.004 57.0131 91.0087 351.004 57.0131 91.0088 
351.004 57.0131 91.0088 353.372 55.3215 91.9048 359.944 57.0298 91.8597 
360.275 57.3651 92.2594 361.201 57.543 92.0444 360.573 57.4436 92.1801 
368.966 59.1184 91.1732 369.704 59.1151 90.9528 372.554 59.7939 90.9424 
367.692 59.2479 92.1176 372.162 60.1943 91.4139 376.768 60.9089 90.8405 
387.906 61.046 92.2531 372.505 60.6069 91.9247 388.791 61.803 92.747 
377.173 61.8064 91.3695 388.183 62.3988 92.4655 376.565 61.9804 91.8958 
378.443 62.654 91.7244 379.405 62.8201 91.6225 380.878 62.8845 91.4504 
387.684 62.7191 92.4644 377.337 62.4311 92.1914 378.734 62.8941 92.0524 
379.29 63.1697 92.2714 380.146 63.2786 91.9938 380.927 63.4891 91.975 
385.246 63.4505 92.3645 381.246 63.641 92.1474 382.196 63.7449 92.3025 
339.756 46.5151 93.2356 340.9 46.6817 92.8875 336.457 47.0022 93.7054 
343.876 47.3529 92.3375 336.827 48.746 93.2402 336.858 49.1754 93.3269 
357.712 49.4457 92.0556 337.616 50.2424 93.3413 339.116 50.8888 92.9346 
365.128 50.9728 92.561 339.385 51.2399 93.103 341.252 51.2246 92.2269 
340.639 51.9171 93.2876 350.531 54.6077 91.8759 348.8 54.5162 92.8632 
349.159 54.5704 92.3222 349.728 54.6796 92.2846 350.113 54.7349 92.4374 
347.501 54.2771 92.7 347.747 54.3474 92.7595 350.365 54.8498 92.4315 
351.004 57.0131 91.0088 353.579 55.4099 92.0568 361.591 57.6978 92.4262 
365.078 58.5822 92.2763 388.602 60.1537 93.1743 389.564 60.5795 93.5341 
389.587 61.6028 93.4032 390.606 61.4185 94.1995 378.156 62.4054 91.5407 
376.815 62.4286 92.8279 378.939 63.1575 92.8152 381.549 63.7725 92.5764 
382.279 63.9216 92.4962 382.192 63.9198 92.6173 382.417 63.9374 92.5522 
382.865 63.9359 92.7516 383.904 63.9719 92.9462 382.327 63.9662 92.5792 
383.004 67.0131 92.0087 383.004 67.0132 92.0087 383.004 67.0132 92.0087 
383.004 67.0131 92.0088 383.004 67.0132 92.0088 334.842 45.6787 95.0835 
334.758 45.5164 95.2933 336.018 46.3967 94.2597 346.085 46.5724 93.5055 
335.583 47.7458 93.8048 335.604 47.8846 93.7706 336.507 48.0035 93.4084 
335.508 48.5883 93.965 336.143 49.7143 94.0273 337.199 50.7066 94.069 
370.168 52.2224 92.9162 337.631 51.2159 94.4059 337.804 51.0849 94.0699 
339.566 51.563 93.4687 341.579 52.4115 93.4958 350.842 54.9505 92.9013 
360.97 57.602 92.6406 364.202 58.3358 93.5283 367.011 59.1674 93.2014 
368.94 59.7627 93.0407 390.584 60.7458 94.2188 371.38 60.5377 93.1787 
390.831 61.4351 94.4683 391.112 61.2621 94.7667 390.508 61.991 94.6925 
390.95 61.5663 94.7912 377.35 62.6242 93.4096 382.435 63.973 92.7119 
384.039 64.2142 93.7089 384.493 64.1392 93.3381 383.004 67.0131 92.0088 
384.392 64.2405 93.6339 332.659 45.6532 95.9888 332.59 45.4898 96.1618 
332.475 45.7727 96.0477 334.348 46.5936 94.8004 333.544 48.7246 95.311 
334.733 49.6284 94.9489 338.179 51.6047 94.9694 342.555 52.9492 94.0871 
345.437 53.6072 94.0978 390.432 60.0775 94.421 390.808 62.129 95.4284 
378.663 62.9609 94.1519 389.342 62.8934 94.4406 381.317 63.7052 94.3575 
332.12 45.5758 96.3819 333.145 45.1677 96.2415 340.928 45.0545 95.2915 
333.27 46.4129 95.4314 333.756 46.9034 95.0347 333.476 47.6054 95.1413 
370.345 51.1284 94.4982 334.253 49.9674 95.8394 338.433 51.7726 95.7339 
338.71 51.8357 95.2948 358.182 56.405 95.0341 391.75 61.0226 95.6875 
389.922 62.7666 95.3764 383.962 64.1122 94.7235 385.814 64.2153 94.6572 
331.421 44.7711 97.2547 331.173 44.7753 97.3364 331.859 44.7049 97.1612 
335.938 44.1535 96.8931 330.938 45.3807 97.2023 346.207 44.9666 96.3123 
331.766 47.7967 96.3869 331.262 47.959 96.864 332.031 48.8395 96.7476 
331.959 49.1614 97.253 333.566 50.0583 96.931 353.131 54.8295 96.4388 
364.186 57.8196 95.5424 372.603 60.0949 96.1947 392.359 59.7174 96.6513 
389.417 63.0546 95.744 387.325 63.6566 95.7325 330.755 44.807 97.6308 
329.716 44.9459 98.1582 329.693 46.1405 97.8211 330.171 46.5439 97.4644 
330.086 47.7549 97.8522 331.776 49.5185 98.3057 334.04 50.3864 97.9564 
368.053 58.3342 96.8749 386.71 63.5819 96.4133 331.124 43.4761 98.987 
328.485 44.8588 99.0726 328.625 46.1472 98.6544 328.97 46.5695 98.3858 
330.392 48.7094 98.5266 331.355 49.3749 98.6246 332.208 49.8014 98.8512 
363.603 56.8687 97.4435 385.605 63.3785 97.0266 327.905 43.8983 100.04 
327.13 45.783 100.071 327.797 46.6083 99.5883 328.416 47.3777 99.3333 
394.691 59.5684 100.265 325.304 43.0525 101.963 332.504 42.4161 100.316 
326.67 46.4231 100.865 326.21 46.4658 101.566 327.233 46.9761 100.625 
327.375 47.3995 101.095 327.995 47.8179 100.799 331.705 49.5396 100.527 
393.611 57.9732 99.5793 384.176 61.633 99.9419 394.01 60.8032 100.627 
395.007 59.915 101.246 383.932 61.9368 99.3423 393.424 61.1974 100.33 
325.002 42.6057 102.577 324.729 43.0234 102.471 324.855 44.1984 102.116 
395.721 58.7391 101.859 395.769 59.2342 102.102 395.98 58.974 102.4 
323.863 42.0615 103.754 323.651 42.8679 103.36 324.539 45.4076 102.756 
325.588 46.6238 102.966 394.438 60.7998 102.076 394.885 60.59 102.573 
387.257 61.728 100.901 323.389 43.0875 103.534 324 45.0735 103.2 
323.701 45.2998 103.741 394.302 56.2499 102.222 386.63 60.233 103.251 
395.376 60.3648 103.52 395.858 59.9878 103.925 394.419 60.8724 103.315 
322.441 41.2921 105.509 324.516 40.8422 104.789 322.122 42.0845 105.232 
322.451 42.82 104.646 323.561 45.5622 104.312 324.513 46.4214 104.793 
325.381 46.8291 104.474 396.84 58.7041 104.564 390.558 60.9654 103.721 
392.175 60.9795 104.191 321.084 42.0677 106.274 366.652 44.5837 104.365 
322.214 44.7952 105.357 322.356 45.2474 105.751 323.122 45.7633 105.639 
325.931 39.6768 106.232 320.903 43.4777 106.394 322.377 45.4837 106.542 
396.177 56.0113 105.189 396.695 56.6088 105.469 397.01 56.9437 105.86 
397.274 57.9423 105.878 397.437 58.3119 106.365 397.433 58.825 106.65 
396.092 60.1205 106.099 319.94 42.8601 107.699 321.263 44.8317 107.222 
320.979 45.0921 107.951 321.946 45.366 107.406 321.423 45.2706 107.709 
395.935 60.1435 106.716 319.432 41.0143 108.653 319.451 41.5248 108.373 
318.992 41.6667 108.883 319.023 42.089 108.94 319.598 43.3697 108.691 
320.796 44.8967 108.323 320.868 45.1027 108.106 320.845 45.0932 108.162 
320.879 45.149 108.104 320.966 45.1743 108.031 321.11 45.2194 108.047 
376.656 53.8969 108.351 396.302 54.5205 107.344 383.889 56.2338 107.836 
397.064 56.0784 106.897 397.549 58.7487 107.786 394.206 60.1028 107.332 
318.688 40.1526 110.051 318.683 41.0496 109.51 318.368 41.4345 109.929 
318.96 42.5527 109.283 318.763 42.7124 109.869 320.939 45.1388 108.149 
321.185 45.1767 108.277 397.082 54.7007 108.655 319.035 38.9698 111.032 
320.763 38.0962 111.186 322.944 37.928 110.57 318.056 40.3417 110.78 
317.623 41.1507 111.3 319.261 43.5812 110.676 322.179 45.1899 110.025 
389.862 47.8346 109.972 397.912 55.6882 109.761 398.081 57.2288 109.896 
397.764 58.2969 109.117 397.566 58.6415 109.053 397.345 58.7699 109.429 
317.511 39.2922 112.466 317.524 40.7473 111.46 317.878 42.0826 111.313 
[...]
POINT_DATA 1834
SCALARS scalars float
LOOKUP_TABLE default
1 1 1 1 1 1 1 1 1 
1 1 1 1 1 1 1 1 1 
1 1 1 1 1 1 1 1 1 
1 1 1 1 1 1 1 1 1 
1 1 1 1 1 1 1 1 1 
1 1 1 1 1 1 1 1 1 
1 1 1 1 1 1 1 1 1 
1 1 1 1 1 1 1 1 1 
1 1 1 1 1 1 1 1 1 
1 1 1 1 1 1 1 1 1 
1 1 1 1 1 1 1 1 1 
1 1 1 1 1 1 1 1 1 
1 1 1 1 1 1 1 1 1 
1 1 1 1 1 1 1 1 1 
1 1 1 1 1 1 1 1 1 
1 1 1 1 1 1 1 1 1 
1 1 1 1 1 1 1 1 1 
1 1 1 1 1 1 1 1 1 
1 1 1 1 1 1 1 1 1 
1 1 1 1 1 1 1 1 1 
1 1 1 1 1 1 1 1 1 
1 1 1 1 1 1 1 1 1 
1 1 1 1 1 1 1 1 1 
1 1 1 1 1 1 1 1 1 
1 1 1 1 1 1 1 1 1 
1 1 1 1 1 1 1 1 1 
1 1 1 1 1 1 1 1 1 
1 1 1 1 1 1 1 1 1 
1 1 1 1 1 1 1 1 1 
1 1 1 1 1 1 1 1 1 
1 1 1 1 1 1 1 1 1 
1 1 1 1 1 1 1 1 1 
1 1 1 1 1 1 1 1 1 
1 1 1 1 1 1 1 1 1 
1 1 1 1 1 1 1 1 1 
1 1 1 1 1 1 1 1 1 
1 1 1 1 1 1 1 1 1 
1 1 1 1 1 1 1 1 1 
1 1 1 1 1 1 1 1 1 
1 1 1 1 1 1 1 1 1 
1 1 1 1 1 1 1 1 1 
1 1 1 1 1 1 1 1 1 
1 1 1 1 1 1 1 1 1 
1 1 1 1 1 1 1 1 1 
1 1 1 1 1 1 1 1 1 
1 1 1 1 1 1 1 1 1 
1 1 1 1 1 1 1 1 1 
1 1 1 1 1 1 1 1 1 
1 1 1 1 1 1 1 1 1 
1 1 1 1 1 1 1 1 1 
1 1 1 1 1 1 1 1 1 
1 1 1 1 1 1 1 1 1 
1 1 1 1 1 1 1 1 1 
1 1 1 1 1 1 1 1 1 
1 1 1 1 1 1 1 1 1 
1 1 1 1 1 1 1 1 1 
1 1 1 1 1 1 1 1 1 
1 1 1 1 1 1 1 1 1 
1 1 1 1 1 1 1 1 1 
1 1 1 1 1 1 1 1 1 
1 1 1 1 1 1 1 1 1 
1 1 1 1 1 1 1 1 1 
1 1 1 1 1 1 1 1 1 
1 1 1 1 1 1 1 1 1 
1 1 1 1 1 1 1 1 1 
1 1 1 1 1 1 1 1 1 
1 1 1 1 1 1 1 1 1 
1 1 1 1 1 1 1 1 1 
1 1 1 1 1 1 1 1 1 
1 1 1 1 1 1 1 1 1 
1 1 1 1 1 1 1 1 1 
1 1 1 1 1 1 1 1 1 
1 1 1 1 1 1 1 1 1 
1 1 1 1 1 1 1 1 1 
1 1 1 1 1 1 1 1 1 
1 1 1 1 1 1 1 1 1 
1 1 1 1 1 1 1 1 1 
1 1 1 1 1 1 1 1 1 
1 1 1 1 1 1 1 1 1 
1 1 1 1 1 1 1 1 1 
1 1 1 1 1 1 1 1 1 
1 1 1 1 1 1 1 1 1 
1 1 1 1 1 1 1 1 1 
1 1 1 1 1 1 1 1 1 
1 1 1 1 1 1 1 1 1 
1 1 1 1 1 1 1 1 1 
1 1 1 1 1 1 1 1 1 
1 1 1 1 1 1 1 1 1 
1 1 1 1 1 1 1 1 1 
1 1 1 1 1 1 1 1 1 
1 1 1 1 1 1 1 1 1 
1 1 1 1 1 1 1 1 1 
1 1 1 1 1 1 1 1 1 
1 1 1 1 1 1 1 1 1 
1 1 1 1 1 1 1 1 1 
1 1 1 1 1 1 1 1 1 
1 1 1 1 1 1 1 1 1 
1 1 1 1 1 1 1 1 1 
1 1 1 1 1 1 1 1 1 
1 1 1 1 1 1 1 1 1 
1 1 1 1 1 1 1 1 1 
1 1 1 1 1 1 1 1 1 
1 1 1 1 1 1 1 1 1 
1 1 1 1 1 1 1 1 1 
1 1 1 1 1 1 1 1 1 
1 1 1 1 1 1 1 1 1 
1 1 1 1 1 1 1 1 1 
1 1 1 1 1 1 1 1 1 
1 1 1 1 1 1 1 1 1 
1 1 1 1 1 1 1 1 1 
1 1 1 1 1 1 1 1 1 
1 1 1 1 1 1 1 1 1 
1 1 1 1 1 1 1 1 1 
1 1 1 1 1 1 1 1 1 
1 1 1 1 1 1 1 1 1 
1 1 1 1 1 1 1 1 1 
1 1 1 1 1 1 1 1 1 
1 1 1 1 1 1 1 1 1 
1 1 1 1 1 1 1 1 1 
1 1 1 1 1 1 1 1 1 
1 1 1 1 1 1 1 1 1 
1 1 1 1 1 1 1 1 1 
1 1 1 1 1 1 1 1 1 
1 1 1 1 1 1 1 1 1 
1 1 1 1 1 1 1 1 1 
1 1 1 1 1 1 1 1 1 
1 1 1 1 1 1 1 1 1 
1 1 1 1 1 1 1 1 1 
1 1 1 1 1 1 1 1 1 
1 1 1 1 1 1 1 1 1 
1 1 1 1 1 1 1 1 1 
1 1 1 1 1 1 1 1 1 
1 1 1 1 1 1 1 1 1 
1 1 1 1 1 1 1 1 1 
1 1 1 1 1 1 1 1 1 
1 1 1 1 1 1 1 1 1 
1 1 1 1 1 1 1 1 1 
1 1 1 1 1 1 1 1 1 
1 1 1 1 1 1 1 1 1 
1 1 1 1 1 1 1 1 1 
1 1 1 1 1 1 1 1 1 
1 1 1 1 1 1 1 1 1 
1 1 1 1 1 1 1 1 1 
1 1 1 1 1 1 1 1 1 
1 1 1 1 1 1 1 1 1 
1 1 1 1 1 1 1 1 1 
1 1 1 1 1 1 1 1 1 
1 1 1 1 1 1 1 1 1 
1 1 1 1 1 1 1 1 1 
1 1 1 1 1 1 1 1 1 
1 1 1 1 1 1 1 1 1 
1 1 1 1 1 1 1 1 1 
1 1 1 1 1 1 1 1 1 
1 1 1 1 1 1 1 1 1 
1 1 1 1 1 1 1 1 1 
1 1 1 1 1 1 1 1 1 
1 1 1 1 1 1 1 1 1 
1 1 1 1 1 1 1 1 1 
1 1 1 1 1 1 1 1 1 
1 1 1 1 1 1 1 1 1 
1 1 1 1 1 1 1 1 1 
1 1 1 1 1 1 1 1 1 
1 1 1 1 1 1 1 1 1 
1 1 1 1 1 1 1 1 1 
1 1 1 1 1 1 1 1 1 
1 1 1 1 1 1 1 1 1 
1 1 1 1 1 1 1 1 1 
1 1 1 1 1 1 1 1 1 
1 1 1 1 1 1 1 1 1 
1 1 1 1 1 1 1 1 1 
1 1 1 1 1 1 1 1 1 
1 1 1 1 1 1 1 1 1 
1 1 1 1 1 1 1 1 1 
1 1 1 1 1 1 1 1 1 
1 1 1 1 1 1 1 1 1 
1 1 1 1 1 1 1 1 1 
1 1 1 1 1 1 1 1 1 
1 1 1 1 1 1 1 1 1 
1 1 1 1 1 1 1 1 1 
1 1 1 1 1 1 1 1 1 
1 1 1 1 1 1 1 1 1 
1 1 1 1 1 1 1 1 1 
1 1 1 1 1 1 1 1 1 
1 1 1 1 1 1 1 1 1 
1 1 1 1 1 1 1 1 1 
1 1 1 1 1 1 1 1 1 
1 1 1 1 1 1 1 1 1 
1 1 1 1 1 1 1 1 1 
1 1 1 1 1 1 1 1 1 
1 1 1 1 1 1 1 1 1 
1 1 1 1 1 1 1 1 1 
1 1 1 1 1 1 1 1 1 
1 1 1 1 1 1 1 1 1 
1 1 1 1 1 1 1 1 1 
1 1 1 1 1 1 1 1 1 
1 1 1 1 1 1 1 1 1 
1 1 1 1 1 1 1 1 1 
1 1 1 1 1 1 1 1 1 
1 1 1 1 1 1 1 1 1 
1 1 1 1 1 1 1 1 1 
1 1 1 1 1 1 1 1 1 
1 1 1 1 1 1 1 1 1 
1 1 1 1 1 1 1 1 1 
1 1 1 1 1 1 1 
NORMALS Normals float
-0.0743657 -0.270512 -0.95984 -0.0299869 -0.359916 -0.932503 0.0206264 -0.493733 -0.869369 
-0.132346 -0.146109 -0.980376 -0.01887 -0.238444 -0.970973 0.124019 -0.330934 -0.935469 
0.0785502 -0.20311 -0.976 0.0855719 -0.400496 -0.912294 0.101514 -0.162215 -0.98152 
-0.0373683 -0.160162 -0.986383 0.15694 -0.291633 -0.943568 0.190166 -0.332844 -0.923608 
-0.00251011 0.163954 -0.986465 0.159404 -0.38178 -0.910404 -0.0925771 -0.288731 -0.952924 
0.0889921 -0.39928 -0.9125 0.00931431 -0.576125 -0.817309 0.105938 -0.430539 -0.896333 
0.0826159 -0.43942 -0.894475 0.119098 -0.404172 -0.906896 0.10885 -0.427331 -0.897519 
0.17282 -0.575557 -0.799292 -0.133722 0.201037 -0.970414 -0.0517165 0.178684 -0.982546 
-0.0496258 -0.0253993 -0.998445 0.153323 -0.126146 -0.980091 -0.0396107 0.126594 -0.991163 
-0.0906254 0.279927 -0.955734 0.0940386 -0.0318564 -0.995059 0.190159 -0.406883 -0.893468 
0.2027 -0.222817 -0.953554 0.316928 -0.3942 -0.862649 -0.056176 0.223073 -0.973182 
0.055429 0.057453 -0.996808 0.13327 -0.196087 -0.971488 0.0450732 0.0859337 -0.995281 
-0.0615947 -0.0329981 -0.997556 0.0660799 0.000440598 -0.997814 0.287983 -0.648081 -0.705023 
0.103461 -0.0548963 -0.993117 0.111825 -0.193239 -0.974758 -0.0288775 -0.111699 -0.993322 
0.177253 -0.121601 -0.976624 0.301349 -0.453781 -0.838613 0.30911 -0.0599829 -0.949133 
0.261014 0.210011 -0.942214 0.420273 0.0906256 -0.902861 0.388731 0.514927 -0.764028 
-0.182867 -0.510494 -0.840211 -0.0769555 -0.451178 -0.88911 -0.244284 -0.233699 -0.941122 
-0.0310404 -0.45136 -0.891802 -0.0248833 -0.335338 -0.941769 -0.105898 0.13004 -0.985837 
0.136304 -0.582303 -0.801464 0.158213 -0.576562 -0.801589 -0.127079 0.143329 -0.981482 
-0.165456 0.161909 -0.972836 0.0716471 -0.624282 -0.777907 -0.210936 0.343127 -0.915297 
-0.132721 0.514128 -0.847383 -0.165224 0.679147 -0.715165 -0.131975 0.525299 -0.840621 
0.30466 -0.540896 -0.783973 -0.1912 0.642451 -0.742091 -0.168847 0.438258 -0.882848 
-0.040028 0.272466 -0.961332 -0.179283 0.56545 -0.805062 0.219786 -0.364276 -0.904985 
-0.21668 0.612029 -0.760572 -0.182966 0.793524 -0.580382 -0.259599 0.75022 -0.608094 
-0.199251 0.533246 -0.822161 -0.156428 0.603742 -0.781682 -0.126698 0.460313 -0.878669 
-0.140425 0.420969 -0.896139 -0.0791643 0.197724 -0.977056 0.152926 -0.071043 -0.985681 
0.130523 -0.0997569 -0.986414 -0.222737 0.801639 -0.554763 -0.239942 0.605232 -0.759027 
-0.10488 0.456242 -0.883653 0.0909047 -0.00843908 -0.995824 -0.00888133 -0.298399 -0.9544 
0.167311 -0.529601 -0.831583 0.339258 -0.148873 -0.928838 0.162659 0.0119721 -0.98661 
0.0859397 0.0680058 -0.993977 0.583937 -0.0841328 -0.807427 -0.0663538 0.243255 -0.96769 
-0.00717444 0.477121 -0.878808 0.068301 0.230134 -0.970759 0.135143 0.39661 -0.907985 
0.255878 0.571983 -0.779334 0.0946144 0.603452 -0.791766 -0.30508 -0.515572 -0.800694 
-0.315824 -0.412524 -0.854447 0.0303249 -0.576557 -0.816494 0.0141227 -0.399847 -0.916473 
-0.227646 -0.0321654 -0.973213 -0.43526 0.2834 -0.854537 0.167492 -0.701711 -0.692495 
0.071185 -0.739576 -0.669298 -0.243958 0.386152 -0.889591 -0.217036 0.389787 -0.894965 
0.214734 -0.724214 -0.655289 0.194525 -0.648921 -0.735569 -0.29424 0.670961 -0.680613 
-0.264413 0.76555 -0.586531 0.027318 0.411241 -0.911117 0.531504 0.70708 -0.466413 
0.328679 -0.917668 -0.223283 -0.00850416 0.346524 -0.938003 0.0199997 -0.719399 -0.694309 
-0.140697 0.81976 -0.555156 -0.175787 0.919022 -0.352841 -0.0449117 0.695225 -0.717388 
-0.234867 0.913618 -0.331872 -0.214641 0.976082 0.0345372 0.0553539 -0.904664 -0.422515 
-0.270365 0.627485 -0.730181 0.191521 0.657946 -0.728304 0.270365 -0.627485 0.730181 
-0.0553539 0.904664 0.422515 -0.0385053 0.826662 -0.56138 -0.33858 0.883239 -0.324425 
-0.423507 0.76519 -0.484898 -0.259418 0.787285 -0.55936 -0.125191 -0.429372 -0.894409 
-0.229005 0.812017 -0.536828 -0.146896 0.521649 -0.840419 -0.1419 0.615281 -0.775431 
-0.252252 0.929556 -0.268876 -0.214052 0.771147 -0.599595 -0.092426 0.347941 -0.932949 
0.367971 -0.427026 -0.825982 -0.257535 0.839695 -0.478109 0.588993 -0.0858362 -0.803567 
-0.291464 0.665323 -0.687309 0.536828 0.437843 -0.721186 -0.300293 0.783982 -0.54332 
-0.3165 0.759775 -0.567952 -0.178286 0.74872 -0.638461 0.061678 0.499381 -0.864184 
0.317635 0.752408 -0.577053 -0.314771 0.878857 -0.35851 -0.399004 0.887132 -0.231931 
-0.186492 0.956499 -0.224345 -0.210753 0.797343 -0.565532 -0.17528 0.843678 -0.507429 
0.285789 0.802777 -0.52333 -0.17227 0.929347 -0.326555 0.000886542 0.780922 -0.624628 
-0.155013 -0.734715 -0.660428 -0.000634298 -0.711833 -0.702348 -0.331447 -0.337509 -0.88104 
0.04758 -0.71592 -0.696559 -0.413157 0.108602 -0.904161 -0.520284 0.295071 -0.801397 
0.101031 -0.764301 -0.636896 -0.419231 0.413346 -0.808326 -0.418836 0.607082 -0.675298 
0.156517 -0.738915 -0.655367 -0.436363 0.700492 -0.564711 -0.374761 0.50767 -0.775774 
-0.308954 0.77082 -0.557121 -0.191249 0.766763 -0.612779 -0.097599 0.991256 0.0887997 
0.026349 0.878563 0.476898 -0.0595489 -0.0116395 0.998158 -0.297254 0.954796 0.00225509 
-0.307048 0.907984 -0.285107 -0.232109 0.939137 -0.253272 -0.24908 0.95736 0.146359 
-0.191521 -0.657946 0.728304 -0.161686 0.915004 -0.369629 -0.196469 0.975124 -0.102627 
-0.195348 0.978695 -0.0632071 0.350891 -0.603695 -0.715841 0.532721 -0.239961 -0.811559 
0.534984 -0.246115 -0.80822 0.66722 0.305409 -0.67937 -0.317787 0.740351 -0.592361 
-0.312221 0.927297 -0.20649 -0.305491 0.951858 -0.0253303 -0.243441 0.959261 -0.143372 
-0.170653 0.843249 -0.509714 -0.320435 0.932862 -0.164592 0.206639 0.836598 -0.50735 
0.120981 0.935884 -0.330884 -0.14254 0.93668 -0.319864 -0.0824497 0.970867 -0.224988 
0.0779776 -0.822752 -0.563026 -0.434007 0.582318 -0.687418 0.349139 0.647329 -0.677545 
0.431903 -0.52435 0.733837 -0.066905 0.810691 0.581639 -0.294449 -0.618452 -0.728572 
-0.282035 -0.639135 -0.715515 -0.204697 -0.609202 -0.766141 0.0775885 -0.745362 -0.662129 
-0.563801 -0.127497 -0.81601 -0.499325 -0.0631319 -0.864112 -0.450215 -0.0214622 -0.892662 
-0.607447 0.175563 -0.774717 -0.518179 0.569501 -0.638091 -0.526323 0.620793 -0.581034 
0.312479 -0.702746 -0.639144 -0.468764 0.824514 -0.316918 -0.336858 0.785396 -0.519308 
-0.439182 0.8084 -0.391929 -0.322004 0.835241 -0.445741 -0.174733 0.984232 0.0274863 
-0.198253 0.979445 0.0372013 -0.264958 0.94694 0.181941 -0.172296 0.984765 -0.023485 
-0.320046 0.94632 -0.0452625 0.68457 -0.159752 -0.711226 -0.337382 0.937242 -0.0880396 
0.740586 0.292361 -0.605027 0.81404 0.0506448 -0.578596 0.650395 0.647018 -0.397937 
0.696002 0.577285 -0.426992 -0.29709 0.95458 0.0226758 -0.019057 0.999696 -0.0156136 
-0.313479 0.936365 -0.157961 0.141066 0.934927 -0.325596 -0.324094 -0.593923 0.736355 
0.144908 0.981594 -0.124399 -0.347233 -0.498704 -0.794181 -0.413855 -0.60986 -0.675866 
-0.586971 -0.236422 -0.774319 -0.45652 -0.347501 -0.819044 -0.590746 0.450635 -0.669289 
-0.559905 0.381314 -0.735599 -0.317924 0.91356 -0.253638 -0.284811 0.934225 -0.214723 
-0.246064 0.964611 0.0947546 0.589967 -0.43892 -0.677708 0.636188 0.745315 -0.199425 
-0.278064 0.953812 0.113678 0.471267 0.810119 -0.348733 -0.179377 0.968649 0.171882 
-0.406084 -0.507267 -0.760116 -0.263215 -0.699314 -0.664589 0.0440147 -0.88666 -0.460321 
-0.524232 -0.21614 -0.82369 -0.460764 -0.260088 -0.848558 -0.533004 0.075832 -0.842708 
0.231936 -0.793535 -0.56259 -0.476647 0.762036 -0.438301 -0.362272 0.931984 -0.0128213 
-0.298982 0.932823 -0.201123 -0.268075 0.934463 0.234337 0.815165 0.384254 -0.433422 
0.556013 0.814913 -0.163605 -0.196947 0.953261 0.229143 0.208041 0.977122 -0.0441865 
-0.247852 -0.73704 -0.628761 -0.342805 -0.703909 -0.62209 -0.115874 -0.627763 -0.769732 
-0.014591 -0.865683 -0.50038 -0.479139 -0.266603 -0.83627 0.0546598 -0.914839 -0.400103 
-0.626758 0.0975673 -0.773081 -0.64595 0.246477 -0.722494 -0.586978 0.493553 -0.641764 
-0.507354 0.775521 -0.375711 -0.487125 0.788797 -0.374845 -0.183664 0.962628 0.199036 
-0.253184 0.932963 0.255888 -0.304011 0.816252 0.491233 0.628923 -0.523835 -0.574502 
0.255465 0.945452 0.202132 0.18226 0.983249 -0.00164963 -0.368276 -0.675136 -0.639191 
-0.524898 -0.292476 -0.799337 -0.602705 -0.0346433 -0.797211 -0.570573 -0.0825925 -0.817083 
-0.680803 0.475946 -0.556761 -0.401786 0.895714 -0.190433 -0.334319 0.939752 -0.0713883 
-0.257008 0.914195 0.313359 0.142131 0.900722 0.410487 -0.208609 -0.733999 -0.646319 
-0.525295 -0.451495 -0.721261 -0.718882 0.156268 -0.67734 -0.748155 0.173453 -0.640451 
-0.586008 0.729401 -0.352942 -0.497651 0.849444 -0.175467 -0.355146 0.922817 -0.149269 
-0.333656 0.853347 0.400592 -0.0460321 0.94706 0.31774 -0.318112 -0.646899 -0.693056 
-0.727074 0.0739026 -0.68257 -0.712614 0.386867 -0.585249 -0.678291 0.474935 -0.560677 
0.817274 0.328098 -0.473725 -0.527482 -0.398009 -0.750567 -0.0984881 -0.830431 -0.548347 
-0.741008 0.424579 -0.52023 -0.674842 0.550439 -0.491534 -0.686396 0.525143 -0.503076 
-0.621436 0.756117 -0.205193 -0.605257 0.744435 -0.281922 -0.35937 0.927185 0.105745 
0.605497 -0.536311 -0.588 -0.169928 0.762725 0.623999 0.707408 0.620409 -0.338626 
0.769636 0.494954 -0.403336 -0.0483395 0.854405 0.517354 0.586655 0.776125 -0.231227 
-0.336356 -0.662588 -0.669209 -0.671471 -0.224461 -0.706218 -0.707843 0.000600835 -0.70637 
0.852956 -0.156528 -0.497961 0.809293 0.508769 -0.293597 0.902033 0.250807 -0.35133 
-0.541659 -0.537281 -0.646479 -0.601643 -0.398394 -0.692321 -0.747486 0.284883 -0.600088 
-0.549091 0.769934 -0.325115 0.633409 0.742278 -0.218669 0.726608 0.686659 -0.0232564 
-0.265992 0.809076 0.524065 -0.729087 -0.0541753 -0.682273 -0.64481 0.517859 -0.562176 
-0.715863 0.477607 -0.509344 0.54589 -0.646591 -0.532845 -0.292255 0.816886 0.497277 
0.579145 0.802119 -0.145587 0.733877 0.664791 -0.13956 0.406734 0.913171 0.0261847 
-0.474107 -0.629703 -0.615383 -0.256603 -0.779189 -0.571857 -0.682167 -0.203984 -0.702168 
-0.684111 -0.193742 -0.703176 -0.57868 0.721224 -0.380743 -0.51007 0.836501 -0.200237 
-0.38502 0.920535 -0.0661404 0.932817 0.0822611 -0.350835 -0.0744731 0.938436 0.337329 
-0.0444879 0.955224 0.292521 -0.716817 -0.196865 -0.668893 0.148512 -0.90431 -0.400209 
-0.753966 0.440724 -0.487132 -0.709241 0.636228 -0.303631 -0.635058 0.697336 -0.332302 
-0.0503567 -0.863845 -0.501234 -0.799867 0.214981 -0.560353 -0.628923 0.755287 -0.184385 
0.72022 -0.564646 -0.40306 0.851748 -0.361339 -0.37942 0.892136 -0.358783 -0.274533 
0.923576 -0.0761053 -0.375786 0.971742 -0.0514671 -0.230364 0.820637 0.55339 -0.14253 
0.578263 0.81579 -0.00991089 -0.815426 0.179805 -0.550228 -0.630374 0.663904 -0.402318 
-0.743984 0.519112 -0.420726 -0.502671 0.821646 -0.268738 -0.34922 0.89848 -0.266042 
0.282953 0.935734 0.210567 -0.652075 -0.424114 -0.628431 -0.766487 -0.102757 -0.633986 
-0.809304 -0.0798424 -0.581939 -0.821522 0.146396 -0.551062 -0.832455 0.355879 -0.424699 
-0.741522 0.637774 0.208301 -0.841791 0.0822806 -0.533496 -0.815814 0.541234 0.203748 
-0.676004 0.732705 -0.0784986 -0.522813 0.791769 -0.315859 -0.217038 0.966874 0.134345 
-0.249005 0.852025 0.460488 0.743612 -0.530889 -0.406446 -0.293974 0.839197 0.457524 
0.866442 -0.374892 -0.329748 0.892054 0.449956 -0.0421759 -0.158613 0.90154 0.402576 
-0.71202 -0.430608 -0.554622 -0.832901 -0.169891 -0.5267 -0.875988 0.0343406 -0.481109 
-0.826985 0.401354 -0.393714 -0.805423 0.472718 -0.357534 -0.27115 0.847501 0.456311 
-0.395798 0.908739 0.132429 0.79631 -0.479245 -0.369073 -0.524313 -0.680982 -0.511234 
-0.288877 -0.859768 -0.421128 -0.165865 -0.885997 -0.433011 -0.780316 -0.319016 -0.5379 
-0.920326 0.0850318 -0.381799 -0.665271 0.745795 -0.034699 -0.143178 0.958988 0.244625 
0.409612 -0.766247 -0.495059 0.953364 -0.165105 -0.252661 0.979948 0.153134 -0.12748 
0.940563 0.338899 -0.0221013 0.767369 0.627317 0.132736 0.577933 0.799634 0.16303 
-0.655364 -0.595285 -0.464902 -0.946606 -0.0354646 -0.320438 -0.902047 0.393748 -0.176844 
-0.913107 -0.28768 -0.288923 -0.546693 0.829733 0.112559 -0.0958911 0.910685 0.401817 
-0.109643 0.894671 0.433062 0.68554 0.703238 0.18839 0.430799 0.834206 0.344256 
0.662184 0.721821 0.201215 0.207721 0.906722 0.367025 -0.508746 -0.761504 -0.401608 
0.650929 -0.613237 -0.447473 0.972606 0.220743 0.0728771 0.964458 0.263049 0.0250212 
-0.544169 -0.814928 -0.19943 -0.347942 -0.883242 -0.314355 -0.521684 0.853065 -0.0111864 
0.993361 -0.109559 -0.0350733 0.952057 0.24897 0.177769 0.771408 0.569866 0.283166 
0.388081 0.851018 0.353782 0.37534 0.835853 0.400587 0.820439 0.532225 0.208846 
-0.0113248 -0.949184 -0.314518 -0.282403 -0.918662 -0.27624 -0.970509 0.140276 -0.196049 
-0.501756 0.851825 0.15045 0.101239 0.894809 0.434819 0.967013 -0.229735 -0.110032 
0.126597 0.844368 0.520592 0.65051 0.631948 0.421282 -0.799864 -0.485782 -0.352467 
-0.723005 -0.679024 -0.127243 -0.890206 -0.325927 -0.318284 -0.964739 -0.059495 -0.256395 
-0.98937 0.0160606 0.144533 -0.967133 0.254255 -0.00276245 -0.818499 0.571922 -0.0544522 
0.809678 -0.453142 -0.37294 -0.799026 -0.592265 -0.103823 -0.945998 -0.32358 0.0195622 
0.977359 0.182002 0.107914 0.11452 0.842831 0.525852 -0.800369 -0.592197 0.0933426 
-0.954168 -0.293997 0.055947 -0.928316 0.217404 0.301605 -0.8949 0.29918 0.331126 
-0.859565 0.468852 0.203285 -0.288772 0.943545 0.162279 -0.0923006 0.943971 0.316858 
0.520025 -0.744515 -0.418654 -0.151831 0.8662 0.476072 0.960961 0.203388 0.187584 
0.872907 0.398307 0.281754 0.148054 0.820982 0.551424 0.58464 0.66607 0.463191 
-0.63496 -0.763584 -0.117321 -0.835284 -0.543602 0.0824437 -0.919293 0.144215 0.3662 
-0.937526 0.119175 0.326867 -0.667355 0.616493 0.417821 -0.760697 0.437151 0.479833 
0.907091 -0.343697 -0.24302 0.350151 0.737924 0.576943 -0.591333 -0.796279 -0.127539 
-0.968309 -0.0935366 0.231578 -0.517649 -0.83572 0.183336 -0.363037 -0.929132 -0.0701224 
0.244891 -0.861358 -0.445074 -0.783066 0.51424 0.349806 -0.714461 0.534163 0.451902 
-0.284959 0.852966 0.437318 -0.817615 -0.423059 0.390546 -0.408118 -0.912928 -0.00163901 
-0.82515 -0.478817 0.299769 -0.908878 -0.278455 0.310491 -0.915678 0.0367961 0.400225 
-0.825062 0.422236 0.375485 -0.504887 0.756272 0.416104 0.976585 -0.166115 -0.136702 
0.960779 -0.277303 0.00257663 0.387248 0.695501 0.605242 0.563027 0.666468 0.488693 
0.0463904 0.850588 0.523783 -0.864235 -0.259263 0.431139 -0.812876 -0.0674837 0.578515 
-0.873058 -0.0121904 0.487464 -0.744371 0.403515 0.53206 0.759154 -0.620592 -0.196341 
0.833784 0.337956 0.436567 0.474334 0.70554 0.526517 -0.198399 -0.977785 -0.0676316 
-0.616776 -0.738659 0.271974 0.114781 -0.930268 -0.348464 -0.826354 -0.182893 0.532625 
-0.591292 0.452793 0.667348 -0.327152 0.772429 0.544357 0.00825534 0.793206 0.608898 
-0.348035 -0.916246 0.198407 -0.720246 -0.465094 0.514717 -0.804249 -0.091554 0.587197 
-0.454106 0.677575 0.578515 -0.0695625 0.826718 0.558299 -0.0600245 0.863996 0.499908 
0.516698 -0.783371 -0.345475 0.247567 0.78249 0.571331 0.0281432 0.878603 0.476723 
0.89403 -0.448007 0.000386354 0.353556 0.722436 0.594209 -0.46092 -0.760649 0.457128 
-0.539352 -0.723058 0.431609 -0.670898 -0.151357 0.725938 -0.741255 0.0617564 0.668376 
-0.620342 0.0769763 0.780545 -0.324038 0.799151 0.506318 -0.376511 -0.811041 0.44772 
-0.443698 -0.830287 0.337278 -0.0972684 -0.994972 -0.0238519 -0.426203 -0.720912 0.546477 
-0.583052 0.334212 0.740509 -0.490172 0.525577 0.695342 0.912452 -0.396128 0.10254 
-0.13994 -0.990042 -0.0152948 -0.433346 -0.616691 0.657193 -0.689754 -0.355037 0.631021 
-0.676376 0.139359 0.723253 -0.595279 0.153714 0.788679 -0.502121 0.502593 0.703758 
-0.375036 0.732091 0.568675 0.980232 -0.0348497 0.194758 -0.192477 -0.968947 0.155221 
0.316157 -0.875617 -0.365156 -0.613804 0.0113843 0.789376 -0.502933 0.366607 0.782724 