# vtk DataFile Version 4.2
vtk output
ASCII
DATASET POLYDATA
POINTS 995 float
317.192 47.6698 75.7749 316.724 48.3094 75.624 316.701 48.142 75.7261 
316.556 48.3583 75.7287 316.637 48.4335 75.5945 316.584 48.4583 75.6135 
316.609 48.489 75.5935 316.749 48.4204 75.5998 316.678 48.5103 75.6288 
316.908 47.8393 75.8183 316.891 47.4044 76.0844 317.563 47.3739 76.0251 
317.187 48.0797 75.7571 317.627 48.0534 75.9114 318.011 47.8158 76.0604 
316.586 48.5149 75.6812 316.463 48.5617 75.9003 316.702 48.6498 75.8278 
317.106 46.9942 76.3216 321.543 46.252 77.3157 321.657 46.1239 77.3832 
318.533 47.4469 76.2995 318.898 48.0939 76.5123 315.993 48.8854 76.5138 
315.891 48.9704 76.6333 316.462 48.8195 76.0967 315.936 49.0699 76.6559 
316.045 49.2323 76.5882 316.426 49.1269 76.3377 316.804 49.2671 76.433 
317.147 49.1187 76.3311 318.58 45.9239 77.0263 321.591 45.8517 77.4806 
322.111 45.7704 77.6791 315.951 47.0184 77.1354 317.349 46.1792 76.9516 
320.023 46.4686 76.965 315.666 47.5473 77.199 322.147 46.3087 77.6468 
315.556 48.0602 77.2743 320.427 47.3559 77.086 315.852 48.9759 76.7409 
315.799 48.9135 77.0451 318.597 48.6837 76.7522 316.079 49.3221 76.6359 
316.16 49.4218 76.7411 316.109 49.4948 76.8952 316.127 49.5367 77.0192 
316.209 49.5431 76.8799 316.697 49.468 76.6961 316.332 49.591 77.0323 
316.634 49.5694 76.955 317.011 45.7275 77.4606 321.706 46.9721 77.5828 
322.808 46.5949 78.0904 315.32 47.5485 77.6871 315.641 48.8022 77.7 
316.008 49.3588 77.0101 315.948 49.235 77.5158 318.347 48.994 76.9844 
319.122 48.7924 77.7251 316.046 49.4791 77.2083 316.089 49.5334 77.2688 
317.239 49.4505 76.9664 317.718 49.3068 77.1225 316.165 49.5679 77.1848 
316.962 49.5451 77.1874 317.844 44.5065 78.2822 321.589 43.9749 78.6754 
325.159 44.6529 79.4588 324.846 45.0856 79.2481 314.623 46.3739 79.0139 
314.579 46.6466 78.9207 324.286 45.9452 78.9449 314.756 47.0758 78.6479 
321.605 47.4503 77.844 321.973 47.6899 78.5748 318.009 49.2676 77.9166 
319.424 48.7715 78.4106 316.654 49.4265 77.9134 317.108 49.4302 77.9471 
317.573 49.3776 77.9277 326.956 43.372 80.647 314.253 45.1518 80.1318 
327.646 44.0088 80.8562 324.579 46.2179 79.3327 314.971 48.1079 78.9983 
323.51 47.3452 79.5868 316.427 49.2304 78.3186 328.816 42.9846 81.5645 
328.323 42.8559 81.3896 314.082 43.3891 81.3227 316.177 42.9509 80.4318 
328.241 44.1901 81.2324 313.806 46.0928 80.8226 314.335 47.1762 79.7668 
323.624 47.3676 79.8304 317.545 48.7687 80.0589 319.613 48.5195 80.2285 
320.674 48.3703 79.3876 329.472 43.6567 81.9061 328.611 44.3566 81.5844 
313.394 45.732 81.677 327.45 45.1006 81.1154 314.509 47.2971 80.7891 
314.566 47.5308 80.2825 320.412 48.2433 80.7781 321.241 48.0892 80.6228 
322.772 47.6892 80.5343 324.819 46.8733 81.142 325.234 41.0699 81.8903 
326.755 40.7539 82.4398 332.114 41.5639 83.7076 312.002 43.8335 83.2595 
331.069 43.3344 83.0658 312.461 44.5972 82.778 329.233 44.8379 82.7249 
313.432 46.0043 82.3101 327.716 45.5425 82.1593 328.168 45.4428 82.5336 
324.085 47.0899 81.7761 327.102 45.8751 82.3668 328.738 40.2056 83.3474 
332.495 40.7748 84.2222 311.98 41.6511 84.1956 313.32 41.1106 83.7599 
311.59 42.534 84.024 332.21 42.3627 83.666 333.546 42.2427 84.6113 
311.524 43.0583 83.8025 332.746 42.7446 84.1488 312.111 44.2453 83.1785 
327.689 45.6901 82.9051 328.929 45.2294 83.2285 329.156 45.0862 83.0748 
313.151 45.7824 83.2972 329.085 45.1742 83.1619 334.441 40.2113 85.399 
335.47 40.4519 85.7786 335.089 40.7383 85.5346 335.74 40.569 85.9152 
311.461 41.8336 84.561 334.353 41.9259 85.1597 311.445 43.1336 83.9334 
311.161 43.0071 84.4673 333.233 43.0607 84.957 311.332 44.0976 84.6097 
312.207 44.9382 83.79 323.417 46.7525 83.5903 326.807 45.8113 84.0118 
329.143 45.0976 83.726 334.918 39.5115 86.0958 336.368 39.909 86.4404 
335.704 40.8199 85.9075 335.989 40.5871 86.1339 334.725 42.0017 85.5542 
333.512 43.1141 85.5767 314.07 46.1951 84.3526 324.483 38.0624 85.6745 
336.82 39.5713 86.5797 336.788 39.5322 86.5873 336.878 39.5293 86.5906 
336.086 39.6078 86.4764 336.834 39.6076 86.631 336.887 39.5449 86.5996 
309.465 40.2384 87.2405 336.221 40.4968 86.3629 336.376 40.3056 86.5844 
336.637 39.8415 86.6724 336.265 40.5765 86.4817 335.528 41.4341 86.0802 
310.081 42.4834 86.0663 335.392 41.6827 86.1812 334.489 42.5166 85.883 
311.223 44.352 85.3092 311.058 44.237 85.8363 333.873 43.0208 85.9346 
313.052 45.4296 85.9289 313.726 45.6687 85.821 311.863 44.9005 85.5017 
334.407 38.7784 86.9202 334.822 39.032 86.6774 335.239 39.0554 87.0639 
336.415 39.5062 86.6452 336.854 39.5314 86.6171 336.79 39.5484 86.6782 
335.861 39.3865 86.8564 336.844 39.5904 86.6855 336.814 39.6559 86.6873 
336.825 39.6184 86.7128 308.689 40.2447 87.9703 336.459 40.1178 86.8541 
336.513 39.8393 86.8924 308.803 41.0668 87.7227 336.335 40.5215 86.9546 
336.277 40.8187 86.953 336.338 40.7316 87.0237 336.134 41.0169 87.1939 
336.297 40.8317 87.0721 310.233 43.2454 86.3954 310.413 43.3268 85.84 
334.863 42.3271 86.3364 310.279 43.4456 86.8134 333.778 42.9212 86.4573 
333.959 42.9384 86.0766 312.189 44.9191 86.615 324.701 45.2225 86.6177 
311.497 44.5853 86.4572 336.511 39.5411 86.7784 336.203 39.6792 87.0651 
336.238 40.1125 87.1743 335.991 40.56 87.5334 308.421 41.2886 88.4597 
335.952 40.8615 87.5442 336.112 41.1277 87.3608 336.076 41.1552 87.4239 
308.437 41.6252 88.6604 335.872 41.4288 87.2444 336.004 41.2279 87.3872 
308.894 42.2325 88.5291 309.444 42.7347 88.1118 333.969 42.4268 87.5193 
335.235 41.9639 87.0733 334.993 42.2263 86.7938 335.611 41.7469 87.2127 
335.752 41.637 87.2375 335.69 41.6865 87.2983 328.949 36.6871 89.0696 
332.86 38.1525 88.5837 311.826 37.202 88.9516 334.207 39.1758 88.6003 
334.87 39.5577 88.2251 308.119 40.2617 88.6991 334.935 39.9056 88.3396 
335.135 40.2608 88.2366 307.646 41.0955 89.9217 335.749 41.1208 87.6805 
308.418 41.8242 88.9973 335.661 41.4231 87.5534 333.031 42.2933 88.3259 
335.042 41.761 87.6905 335.734 41.5911 87.3472 309.246 42.7908 89.503 
312.357 44.1294 89.0996 314.951 44.4409 89.1128 308.602 36.9792 90.6783 
333.159 38.3971 88.8911 306.701 38.0721 91.1227 333.601 38.7212 88.8394 
333.888 39.415 89.0402 334.017 40.6483 88.9809 334.428 41.1945 88.5351 
330.251 42.4101 89.5432 316.254 44.2991 89.4214 330.315 36.9929 90.3468 
330.556 37.163 90.4465 331.921 38.6107 90.5582 332.802 38.5861 89.5882 
306.378 39.2078 91.226 332.35 39.2234 90.3521 307.53 41.6062 91.0832 
334.657 41.6448 88.1985 311.137 43.2052 91.0694 308.91 42.582 90.8204 
327.532 36.0617 90.7532 305.896 39.6591 92.086 331.891 39.431 90.7019 
331.83 40.3597 90.5316 331.401 40.64 90.6101 311.801 42.9614 91.9888 
307.259 41.6197 92.369 325.053 35.0774 93.0028 325.736 35.3545 92.8394 
327.971 36.3483 91.9788 328.797 37.3187 92.5236 329.238 37.9272 92.4661 
330.319 38.1958 91.6936 329.806 38.6355 92.1356 306.011 40.5723 92.9888 
328.812 39.9898 92.2087 313.849 42.4261 93.2988 329.093 37.6424 92.4892 
325.284 40.0617 93.8472 314.417 32.7799 95.4012 323.321 34.2155 94.4324 
324.721 34.9302 94.3076 324.644 34.9476 94.8319 325.601 36.0566 94.928 
326.798 36.183 93.5032 303.827 37.7427 94.6243 324.088 35.097 96.1676 
323.884 34.7402 96.022 324.55 35.3048 95.7777 325.708 37.6604 95.0807 
323.572 34.4682 96.0054 301.553 34.543 97.9905 301.478 35.8835 97.3937 
301.573 37.0451 97.2292 301.144 37.2609 97.7829 301.902 37.8659 97.1406 
301.566 37.9789 97.6304 301.57 38.2784 97.969 303.361 39.3548 97.2935 
300.4 33.8601 99.5379 301.511 33.818 98.6998 301.089 33.5647 99.3097 
322.968 35.8915 97.7228 300.617 36.8722 98.2857 323.283 37.8094 96.821 
324.352 37.9627 95.9584 301.482 38.573 98.6287 299.329 34.5999 99.9162 
300.293 37.0501 98.7016 301.605 38.8525 99.33 302.507 39.1545 98.9679 
301.06 38.6985 99.4764 318.643 31.7429 100.47 319.603 32.4017 99.682 
301.907 32.6042 100.119 303.668 32.2846 99.6232 299.81 33.382 100.542 
299.377 33.8441 100.417 298.565 34.4604 100.722 321.35 34.4624 99.2993 
298.926 35.1152 100.139 299.791 37.6321 99.7823 319.078 37.7717 99.4971 
299.632 37.6769 100.129 313.286 30.3475 100.888 315.69 30.6585 100.396 
297.576 33.2236 102.713 299.781 32.9866 101.11 297.526 33.8291 101.915 
319.423 32.7014 101.078 320.286 33.6138 100.314 297.368 33.9563 101.941 
297.231 34.0838 102.004 306.234 39.0211 101.45 302.129 39.0122 100.606 
317.092 30.7369 101.764 296.771 33.9185 102.643 319.01 33.1505 102.03 
296.916 34.1232 102.281 296.74 34.0876 102.456 296.734 34.1781 102.404 
296.868 34.7021 102.238 296.602 34.657 102.54 298.642 37.3526 101.614 
299.291 38.0058 101.861 299.502 38.2302 101.657 299.591 38.2953 101.569 
302.392 38.7886 101.888 317.129 30.7509 103.372 317.531 31.0188 102.912 
298.047 32.6694 103.602 300.7 31.7835 103.345 317.711 31.3835 103.343 
296.788 33.3556 103.659 318.124 32.0453 103.099 296.368 33.7855 103.319 
296.18 34.5991 103.115 297.398 37.0253 103.118 298.8 37.7664 102.727 
299.666 38.2903 101.635 299.924 38.314 101.882 297.513 32.897 104.128 
317.685 32.0595 103.957 295.943 34.0762 103.822 318.217 33.311 103.175 
295.779 35.2459 103.914 300.307 37.9259 103.806 297.541 37.2218 103.65 
297.963 37.4132 103.776 298.698 37.6908 103.422 315.724 29.8693 104.807 
316.098 30.0643 104.793 316.478 30.3419 104.694 312.867 29.5679 104.097 
316.979 31.0975 104.97 295.772 33.9909 104.537 295.693 34.0365 104.491 
295.628 35.3038 104.31 316.816 34.7036 104.129 304.473 37.8472 104.013 
315.025 29.6146 105.71 316.474 30.4622 105.135 300.4 31.9745 105.123 
300.243 31.981 104.967 302.517 31.5152 105.263 316.518 30.8587 105.65 
295 31.0087 106.017 295 31.0087 106.017 295 31.0087 106.017 
295 31.0087 106.017 299.713 32.1651 104.892 316.69 31.1838 105.526 
295 31.0088 106.017 297.873 33.0349 105.27 298.042 33.0732 105.426 
296.172 34.5203 105.367 297.808 33.974 105.869 295.517 35.2002 105.053 
295.43 35.3799 105.022 295.459 35.4486 104.867 311.229 35.9702 105.638 
295.685 35.9564 104.888 295.676 35.9038 105.189 296.009 36.3523 104.976 
[...]
POINT_DATA 995
SCALARS scalars float
LOOKUP_TABLE default
1 1 1 1 1 1 1 1 1 
1 1 1 1 1 1 1 1 1 
1 1 1 1 1 1 1 1 1 
1 1 1 1 1 1 1 1 1 
1 1 1 1 1 1 1 1 1 
1 1 1 1 1 1 1 1 1 
1 1 1 1 1 1 1 1 1 
1 1 1 1 1 1 1 1 1 
1 1 1 1 1 1 1 1 1 
1 1 1 1 1 1 1 1 1 
1 1 1 1 1 1 1 1 1 
1 1 1 1 1 1 1 1 1 
1 1 1 1 1 1 1 1 1 
1 1 1 1 1 1 1 1 1 
1 1 1 1 1 1 1 1 1 
1 1 1 1 1 1 1 1 1 
1 1 1 1 1 1 1 1 1 
1 1 1 1 1 1 1 1 1 
1 1 1 1 1 1 1 1 1 
1 1 1 1 1 1 1 1 1 
1 1 1 1 1 1 1 1 1 
1 1 1 1 1 1 1 1 1 
1 1 1 1 1 1 1 1 1 
1 1 1 1 1 1 1 1 1 
1 1 1 1 1 1 1 1 1 
1 1 1 1 1 1 1 1 1 
1 1 1 1 1 1 1 1 1 
1 1 1 1 1 1 1 1 1 
1 1 1 1 1 1 1 1 1 
1 1 1 1 1 1 1 1 1 
1 1 1 1 1 1 1 1 1 
1 1 1 1 1 1 1 1 1 
1 1 1 1 1 1 1 1 1 
1 1 1 1 1 1 1 1 1 
1 1 1 1 1 1 1 1 1 
1 1 1 1 1 1 1 1 1 
1 1 1 1 1 1 1 1 1 
1 1 1 1 1 1 1 1 1 
1 1 1 1 1 1 1 1 1 
1 1 1 1 1 1 1 1 1 
1 1 1 1 1 1 1 1 1 
1 1 1 1 1 1 1 1 1 
1 1 1 1 1 1 1 1 1 
1 1 1 1 1 1 1 1 1 
1 1 1 1 1 1 1 1 1 
1 1 1 1 1 1 1 1 1 
1 1 1 1 1 1 1 1 1 
1 1 1 1 1 1 1 1 1 
1 1 1 1 1 1 1 1 1 
1 1 1 1 1 1 1 1 1 
1 1 1 1 1 1 1 1 1 
1 1 1 1 1 1 1 1 1 
1 1 1 1 1 1 1 1 1 
1 1 1 1 1 1 1 1 1 
1 1 1 1 1 1 1 1 1 
1 1 1 1 1 1 1 1 1 
1 1 1 1 1 1 1 1 1 
1 1 1 1 1 1 1 1 1 
1 1 1 1 1 1 1 1 1 
1 1 1 1 1 1 1 1 1 
1 1 1 1 1 1 1 1 1 
1 1 1 1 1 1 1 1 1 
1 1 1 1 1 1 1 1 1 
1 1 1 1 1 1 1 1 1 
1 1 1 1 1 1 1 1 1 
1 1 1 1 1 1 1 1 1 
1 1 1 1 1 1 1 1 1 
1 1 1 1 1 1 1 1 1 
1 1 1 1 1 1 1 1 1 
1 1 1 1 1 1 1 1 1 
1 1 1 1 1 1 1 1 1 
1 1 1 1 1 1 1 1 1 
1 1 1 1 1 1 1 1 1 
1 1 1 1 1 1 1 1 1 
1 1 1 1 1 1 1 1 1 
1 1 1 1 1 1 1 1 1 
1 1 1 1 1 1 1 1 1 
1 1 1 1 1 1 1 1 1 
1 1 1 1 1 1 1 1 1 
1 1 1 1 1 1 1 1 1 
1 1 1 1 1 1 1 1 1 
1 1 1 1 1 1 1 1 1 
1 1 1 1 1 1 1 1 1 
1 1 1 1 1 1 1 1 1 
1 1 1 1 1 1 1 1 1 
1 1 1 1 1 1 1 1 1 
1 1 1 1 1 1 1 1 1 
1 1 1 1 1 1 1 1 1 
1 1 1 1 1 1 1 1 1 
1 1 1 1 1 1 1 1 1 
1 1 1 1 1 1 1 1 1 
1 1 1 1 1 1 1 1 1 
1 1 1 1 1 1 1 1 1 
1 1 1 1 1 1 1 1 1 
1 1 1 1 1 1 1 1 1 
1 1 1 1 1 1 1 1 1 
1 1 1 1 1 1 1 1 1 
1 1 1 1 1 1 1 1 1 
1 1 1 1 1 1 1 1 1 
1 1 1 1 1 1 1 1 1 
1 1 1 1 1 1 1 1 1 
1 1 1 1 1 1 1 1 1 
1 1 1 1 1 1 1 1 1 
1 1 1 1 1 1 1 1 1 
1 1 1 1 1 1 1 1 1 
1 1 1 1 1 1 1 1 1 
1 1 1 1 1 1 1 1 1 
1 1 1 1 1 1 1 1 1 
1 1 1 1 1 1 1 1 1 
1 1 1 1 1 1 1 1 1 
1 1 1 1 1 
NORMALS Normals float
0.0647982 -0.291331 -0.954425 -0.205294 -0.386804 -0.89902 -0.65842 -0.473007 -0.585447 
-0.815655 -0.356474 -0.455668 -0.188699 -0.19894 -0.961673 -0.811428 -0.0680283 -0.58048 
-0.334009 0.453662 -0.826213 0.347175 0.344969 -0.872047 0.156306 0.669198 -0.726459 
-0.328495 -0.395073 -0.857909 -0.342662 -0.561277 -0.75336 0.143244 -0.528183 -0.836961 
0.215099 0.023082 -0.976319 0.382914 0.203295 -0.901137 0.382478 0.0483958 -0.922696 
-0.672294 0.608105 -0.422172 -0.810472 0.122518 -0.572822 -0.10825 0.770384 -0.628323 
-0.131222 -0.654703 -0.744409 0.136561 -0.151014 -0.979054 0.45554 -0.114017 -0.882883 
0.262414 -0.306815 -0.914879 0.417324 0.295737 -0.85929 -0.699921 0.206742 -0.683643 
-0.877593 0.0878873 -0.471282 -0.355805 0.565412 -0.744118 -0.80253 0.477054 -0.358281 
-0.61461 0.431749 -0.660187 -0.148417 0.677681 -0.720223 0.0226048 0.730341 -0.682709 
0.183666 0.696942 -0.693209 0.0174353 -0.592048 -0.805714 0.0978069 -0.390342 -0.91546 
0.429192 -0.205979 -0.879413 -0.587606 -0.430637 -0.685033 -0.175162 -0.594649 -0.784672 
0.193464 -0.389845 -0.900329 -0.576375 -0.106273 -0.810246 0.486267 -0.0302969 -0.873285 
-0.834476 0.0451723 -0.549189 0.416693 0.262474 -0.87033 -0.948263 0.221595 -0.22736 
-0.935521 0.32363 -0.141645 0.417807 0.57718 -0.701641 -0.679764 0.617667 -0.395485 
-0.470658 0.714952 -0.517034 -0.684843 0.653724 -0.321924 -0.55627 0.821746 -0.123682 
-0.202572 0.890073 -0.408331 0.141762 0.848891 -0.509203 -0.0929056 0.994036 -0.0571004 
0.093293 0.988182 -0.121626 -0.458802 -0.574882 -0.677504 0.528109 0.349667 -0.773844 
0.556151 0.356068 -0.750941 -0.881615 -0.123983 -0.455394 -0.87546 0.474047 -0.0940711 
-0.86087 0.482782 -0.1607 -0.767835 0.615529 0.177634 0.372188 0.899919 -0.227203 
0.299526 0.942764 -0.146562 -0.787333 0.612873 -0.0670344 -0.571617 0.796935 0.195316 
0.287024 0.936693 -0.200557 0.422969 0.757895 -0.496682 -0.211968 0.975082 0.065462 
0.141774 0.989841 -0.0107581 -0.0450278 -0.682577 -0.729425 0.0254256 -0.621087 -0.783329 
0.455668 -0.139243 -0.879192 0.539918 -0.0725963 -0.838581 -0.775949 -0.244498 -0.581484 
-0.855168 -0.151868 -0.495604 0.56668 0.290238 -0.771126 -0.751599 -0.147916 -0.642822 
0.490303 0.726375 -0.481645 0.44941 0.822121 -0.349496 0.333977 0.941628 -0.042379 
0.229339 0.972571 -0.0388499 -0.176785 0.934698 0.308361 0.112537 0.956055 0.27073 
0.144822 0.972179 0.184107 0.378387 -0.370151 -0.848417 -0.748796 -0.226177 -0.623015 
0.522484 -0.00241221 -0.852646 0.617788 0.37074 -0.693462 -0.734499 0.67816 0.0246907 
0.497434 0.757188 -0.423349 -0.338152 0.871325 0.355592 0.456029 -0.224889 -0.861082 
0.333634 -0.400942 -0.85319 -0.568026 -0.415379 -0.710497 -0.29035 -0.681445 -0.671811 
0.527159 0.0379225 -0.84892 -0.927451 0.130243 -0.350531 -0.930987 0.300171 -0.207751 
0.415061 0.901758 -0.120651 -0.070866 0.926597 0.369319 0.142408 0.966653 0.212843 
0.309384 0.949786 -0.0467771 0.555695 0.32164 -0.766649 0.578105 0.469431 -0.667405 
-0.889625 0.340611 -0.304222 0.548095 0.573324 -0.609009 -0.881956 0.469762 0.0384453 
-0.826716 0.55754 0.0754298 0.154105 0.931619 0.329146 0.298815 0.945403 0.130087 
0.267289 0.959465 0.0893503 0.507745 0.859698 -0.0558089 0.113534 -0.679808 -0.724549 
0.125668 -0.719352 -0.683184 0.493186 -0.19613 -0.847526 -0.845253 0.120873 -0.520516 
0.566713 0.246366 -0.786219 -0.832241 0.341044 -0.437108 0.46331 0.740847 -0.486302 
-0.789035 0.612224 -0.051052 0.459748 0.816805 -0.348512 0.459722 0.878976 -0.126717 
0.363831 0.915013 0.17429 0.35359 0.930392 -0.0966637 0.223231 -0.654211 -0.722617 
0.378774 -0.46526 -0.800039 -0.524481 -0.604804 -0.599276 -0.268408 -0.737692 -0.61949 
-0.690177 -0.334716 -0.641577 0.575386 -0.00920032 -0.81783 0.615157 0.191911 -0.764691 
-0.717506 -0.239302 -0.654156 0.634347 0.248108 -0.732152 -0.892109 0.257798 -0.371054 
0.442952 0.894772 0.0563509 0.223634 0.93171 -0.286188 0.42659 0.827812 -0.364345 
-0.642132 0.765268 -0.0450712 0.418502 0.871947 -0.254096 0.277008 -0.566312 -0.776246 
0.461212 -0.269958 -0.845225 0.4525 -0.195368 -0.8701 0.584733 -0.175296 -0.79206 
-0.661222 -0.448667 -0.601235 0.602472 0.152523 -0.783431 -0.880628 -0.0287917 -0.472934 
-0.869442 -0.0227529 -0.493511 0.578581 0.652548 -0.48931 -0.79821 0.460665 -0.388135 
-0.817138 0.509335 -0.269933 0.196126 0.928938 0.31402 0.309544 0.91033 0.274741 
0.385348 0.916931 0.103656 0.279821 -0.622709 -0.730708 0.489932 -0.0545469 -0.870053 
0.493904 0.166311 -0.853463 0.720743 0.0533809 -0.691144 0.649417 0.521511 -0.553429 
0.296651 0.952924 0.0627229 -0.302159 0.898153 0.319406 0.0661855 -0.854826 -0.514676 
0.4055 0.316944 -0.857389 0.0499889 -0.715707 -0.696609 0.423936 -0.704053 -0.569726 
0.183175 -0.738869 -0.648475 0.937223 0.344532 -0.0539584 0.424038 0.498255 -0.756263 
-0.560546 -0.442367 -0.700072 0.778181 0.0868296 -0.622009 0.890177 0.219237 -0.399401 
0.804786 0.588033 -0.0808452 0.863345 0.35474 -0.358881 0.670672 0.501844 -0.546216 
-0.893517 0.18434 -0.409446 0.694432 0.57363 -0.434411 0.638988 0.757029 -0.136384 
-0.719815 0.660845 -0.212486 -0.639205 0.768759 -0.0206775 0.492162 0.857576 -0.149461 
-0.37572 0.894809 0.241144 -0.281409 0.921579 0.267398 -0.615063 0.787932 -0.029325 
0.200043 -0.862667 -0.46453 0.328281 -0.805937 -0.492642 0.443066 -0.891191 -0.0973245 
0.0704798 -0.981526 -0.177873 0.356915 -0.79881 0.484267 0.510393 -0.638744 0.575765 
0.307611 -0.950627 0.0410385 0.963641 -0.151086 0.220382 0.822158 0.55369 0.132223 
0.632249 -0.0287785 0.774231 -0.731216 -0.221582 -0.645155 0.895866 0.289881 0.33674 
0.72682 0.181009 0.662547 -0.810749 0.120882 -0.572776 0.983113 0.182984 -0.00226584 
0.851712 0.474638 -0.222049 0.928852 0.0966635 0.357618 0.895327 0.389042 0.216877 
0.880498 0.410512 0.237071 -0.949782 0.174726 -0.259588 -0.889299 0.348003 -0.296717 
0.646109 0.745242 -0.164798 -0.785832 0.618228 -0.0161702 0.362203 0.887522 0.284805 
0.583737 0.781528 0.22015 -0.351484 0.922504 0.159516 0.136875 0.833425 0.535414 
-0.547587 0.828783 0.115183 0.234956 -0.839726 0.489546 0.557488 -0.475241 0.6807 
0.799691 -0.0401153 0.59907 0.705184 -0.0435399 0.707687 -0.872601 0.211795 -0.440126 
0.786949 0.00222548 0.617014 0.934317 0.311939 0.172467 0.723334 0.413887 0.552707 
-0.855521 0.357081 -0.374935 0.82949 0.552792 0.0797919 0.690374 0.718167 0.0872943 
-0.757223 0.529554 -0.382343 -0.723429 0.656878 -0.212513 0.315081 0.782444 0.537127 
0.524372 0.845282 0.102625 0.616998 0.780305 0.102169 0.574316 0.806186 -0.142211 
0.749282 0.658958 -0.065961 0.548558 0.737772 0.393417 0.211097 -0.921047 -0.327277 
0.443521 -0.885124 0.140869 -0.271017 -0.732346 -0.624676 0.63692 -0.319208 0.701741 
0.668654 -0.386614 0.635163 -0.850295 0.0798661 -0.520211 0.62314 -0.227186 0.748387 
0.644438 -0.0205764 0.76438 -0.833374 0.439845 -0.334699 0.563057 0.277799 0.778329 
-0.868791 0.429634 -0.246206 0.569425 0.559382 0.602368 0.290163 0.761714 0.579307 
0.427108 0.715003 0.553489 0.735294 0.484121 0.47431 -0.586174 0.807449 -0.0665335 
-0.306866 0.898916 0.312703 -0.103869 0.898799 0.425878 -0.359717 -0.714829 -0.599686 
0.499883 -0.806354 0.316086 -0.733448 -0.269119 -0.624203 0.602562 -0.641897 0.474222 
0.66896 -0.201604 0.715436 0.55236 0.140093 0.82175 0.388749 0.466454 0.794541 
0.224478 0.77204 0.594612 0.0169046 0.881134 0.472565 0.460433 -0.885999 -0.0548363 
0.583437 -0.761375 0.282683 0.622715 -0.348787 0.70041 0.596011 -0.587083 0.547817 
-0.826985 0.171307 -0.535489 0.653673 -0.0876374 0.751686 -0.743828 0.643488 -0.180674 
0.466705 0.590389 0.658503 -0.169659 0.951348 0.257202 -0.410521 0.901084 0.139713 
0.198119 -0.976066 -0.0896915 -0.809124 0.237671 -0.53743 0.510014 0.0726769 0.85709 
0.52605 0.272286 0.805687 0.429183 0.372677 0.822748 -0.091491 0.906766 0.411588 
-0.592985 0.804034 -0.0435797 0.337944 -0.939089 -0.0624956 0.228828 -0.972319 -0.0472666 
0.523713 -0.797723 0.298936 0.624405 -0.445542 0.641569 0.528651 -0.197398 0.825568 
0.603194 -0.283502 0.745509 0.61419 0.0116066 0.789073 -0.738675 0.546867 -0.394075 
0.329707 0.560492 0.759698 -0.0225964 0.892979 0.449531 0.62861 -0.408115 0.662036 
0.220366 0.671212 0.707752 -0.0521147 -0.873334 -0.484325 0.372532 -0.924816 -0.0770401 
0.566349 -0.811219 0.145508 0.584314 -0.778014 0.230805 0.681831 -0.58846 0.434536 
0.517089 -0.807548 0.283698 -0.783851 0.0495866 -0.618966 0.655651 -0.45797 0.600321 
0.614835 -0.657081 0.436146 0.675662 -0.629938 0.382961 0.569441 0.182441 0.801531 
0.627418 -0.707368 0.32554 -0.446218 -0.555516 -0.701635 -0.659822 -0.134319 -0.73932 
-0.604635 0.0985208 -0.790386 -0.770527 0.238914 -0.590939 -0.652771 0.379727 -0.655513 
-0.738119 0.396607 -0.545788 -0.556918 0.704513 -0.439891 -0.656591 0.691816 -0.300463 
-0.472112 -0.534537 -0.700986 -0.297799 -0.69095 -0.658714 -0.450971 -0.552462 -0.701007 
0.672838 -0.036494 0.738889 -0.710321 0.246835 -0.659178 0.57152 0.393245 0.720224 
0.370701 0.547942 0.749894 -0.390893 0.831131 -0.395506 -0.581754 -0.350353 -0.73404 
-0.780807 0.133031 -0.610445 -0.248464 0.944915 -0.213074 -0.311844 0.948898 -0.0484266 
-0.410573 0.905822 -0.104483 0.623176 -0.77675 0.0911658 0.625689 -0.774979 0.0889996 
-0.283492 -0.815342 -0.504827 -0.23839 -0.852844 -0.464573 -0.50449 -0.658863 -0.558022 
-0.547645 -0.583068 -0.600097 -0.566578 -0.544848 -0.618167 0.70736 -0.12636 0.695468 
-0.727562 0.087241 -0.680472 -0.694143 0.521392 -0.496301 0.174896 0.782053 0.598168 
-0.780003 0.477799 -0.404108 -0.0178057 -0.946846 -0.321195 0.245875 -0.93602 -0.251817 
-0.496713 -0.736575 -0.459057 -0.445303 -0.759974 -0.47344 -0.540186 -0.743857 -0.393544 
0.703538 -0.596179 0.386788 0.770749 -0.412462 0.485614 -0.634677 -0.370692 -0.678066 
-0.640183 -0.502508 -0.581078 0.00185393 0.929166 0.369658 -0.234027 0.96718 0.0989694 
0.379942 -0.919749 -0.0985206 -0.616965 -0.666519 -0.418458 0.812438 -0.18059 0.554375 
-0.588495 -0.405164 -0.699654 -0.801962 -0.426121 -0.418661 -0.753402 -0.196832 -0.62741 
-0.624225 0.128328 -0.770633 -0.848053 0.127239 -0.514409 -0.74831 0.542343 -0.381964 
-0.618225 0.785676 0.0225977 -0.565008 0.809963 0.157246 -0.602408 0.782971 -0.155113 
-0.109031 0.965104 0.23809 0.682892 -0.707409 0.182291 0.717736 -0.687547 0.110152 
-0.40552 -0.900651 -0.156144 -0.236642 -0.969367 -0.065788 0.775307 -0.526453 0.348922 
-0.523953 -0.822832 -0.220048 0.872167 -0.35148 0.340274 -0.730676 -0.508266 -0.455828 
-0.84205 -0.1351 -0.522207 -0.611926 0.729096 -0.306539 -0.429823 0.902858 -0.0100162 
-0.22881 0.916508 0.328113 -0.281875 0.945135 0.165128 -0.429944 -0.900885 -0.0596134 
0.836132 -0.145901 0.528768 -0.840369 -0.414813 -0.348871 0.80989 0.112137 0.575763 
-0.874363 0.176694 -0.451961 -0.0499412 0.926603 0.372711 -0.494325 0.868788 -0.0291685 
-0.287208 0.95311 0.0953534 -0.328201 0.916841 0.227347 0.374886 -0.920591 -0.10942 
0.549588 -0.826076 0.124703 0.659808 -0.75129 -0.0147279 -0.102909 -0.991468 -0.0800044 
0.833805 -0.460166 0.304987 -0.557067 -0.767001 0.318411 -0.89193 -0.451869 0.0165562 
-0.952163 0.0579487 -0.300046 0.626389 0.456915 0.631559 0.0205202 0.845962 0.532849 
0.170562 -0.985335 -0.0047468 0.701662 -0.624797 0.342488 -0.194424 -0.912435 0.360086 
-0.152339 -0.981483 0.116119 -0.209184 -0.958482 0.193787 0.738211 -0.503892 0.448484 
0 -0.992278 -0.124035 0 -0.999788 -0.0206088 -0.124009 -0.99207 -0.0204497 
0.124009 -0.99207 -0.0204497 -0.38958 -0.833755 0.391253 0.851443 -0.234885 0.468907 
0 0.997535 0.0701753 -0.423796 -0.812489 0.400323 -0.215055 -0.581033 0.784954 
-0.474897 -0.30342 0.826081 -0.237472 -0.377555 0.895019 -0.912784 -0.360066 0.192817 
-0.984973 0.125975 0.118144 -0.96841 -0.00301152 -0.249346 0.184548 0.760555 0.622493 
-0.841599 0.517197 -0.155624 -0.85372 0.47587 0.211448 -0.580976 0.811415 -0.0638212 
-0.0459921 0.819129 0.571762 -0.254865 0.924973 0.281901 -0.34959 0.905537 0.240395 
-0.336624 0.910816 0.238952 0.388318 -0.92017 0.0499693 0.63623 -0.735641 0.232475 
-0.169601 -0.894287 0.41411 0.699032 -0.652654 0.292227 -0.412673 -0.709312 0.571469 
-0.23852 -0.803906 0.544834 -0.307849 -0.874279 0.375319 0 -0.996546 0.0830455 
-0.198549 -0.713267 0.672182 -0.385286 -0.700568 0.600632 -0.261335 -0.633227 0.728511 
-0.783245 -0.113515 0.611263 -0.197996 -0.145589 0.969331 -0.871948 0.274845 0.405175 
-0.685504 0.0753461 0.72416 -0.667681 0.398855 0.628583 0.057894 0.721069 0.69044 
-0.680573 0.573075 0.456515 -0.620846 0.73369 0.276132 -0.102064 0.799201 0.592335 
0.0806393 0.666513 0.74112 -0.104318 0.856258 0.505905 0.588738 -0.68176 0.434271 
-0.1992 -0.920703 0.335596 -0.0861153 -0.982941 0.162517 0.216917 -0.957614 0.189533 
0.702484 -0.403401 0.586331 0.756024 -0.354646 0.55014 -0.172701 -0.868275 0.465051 
-0.184654 -0.569828 0.800749 0.75615 0.00472606 0.654381 -0.223231 -0.328733 0.917661 
0.632734 0.389897 0.66905 -0.0961193 0.0462712 0.994294 0.343033 0.655412 0.672877 
-0.187156 0.331409 0.924738 -0.0726242 -0.00349502 0.997353 -0.532423 0.337541 0.776268 
-0.477085 0.0968333 0.873506 0.0779302 0.592874 0.801516 0.000649939 0.677144 0.735851 
-0.0210227 0.405343 0.913923 0.0553539 -0.904664 -0.422515 -0.270365 0.627485 -0.730181 
0.191521 0.657946 -0.728304 0.270365 -0.627485 0.730181 -0.278308 0.670174 0.688049 
-0.495326 0.631961 0.596052 -0.256628 0.809006 0.528821 -0.136963 0.433068 0.890895 
-0.0553539 0.904664 0.422515 -0.0241166 -0.998238 0.0542197 0.295245 -0.887778 0.353101 
-0.154908 -0.882706 0.443659 0.554337 -0.726526 0.406043 -0.168035 -0.853928 0.492514 
-0.112493 -0.749826 0.652002 0.521937 -0.599515 0.606765 -0.0454063 -0.783946 0.619166 
-0.10576 -0.436551 0.893442 0.545333 -0.131853 0.827784 -0.0974436 -0.0486056 0.994053 
0.383621 0.609095 0.694145 -0.0779354 0.18786 0.979099 0.312269 0.489283 0.814304 
-0.0845246 0.335575 0.938214 0.0355415 0.0998035 0.994372 -0.0645823 0.355643 0.932388 
0.0621549 0.305083 0.950295 0.0209314 0.471586 0.881571 -0.241835 0.432975 0.86836 
-0.132851 0.565302 0.814116 -0.191521 -0.657946 0.728304 0.288373 -0.502105 0.815311 
0.363051 -0.48378 0.796336 -0.0928897 -0.59637 0.797317 0.233003 -0.469364 0.851708 
-0.130872 -0.38601 0.913164 0.493863 -0.357866 0.792484 0.146043 -0.269672 0.951813 
-0.0950776 0.0309023 0.99499 -0.0342355 0.0555232 0.99787 0.0532185 0.0684858 0.996232 
0.299539 0.385779 0.872612 0.148205 0.497553 0.854679 0.253858 -0.191547 0.948085 
0.146908 -0.311027 0.938978 0.016468 0.0819895 0.996497 0.551586 -0.0140793 0.833999 
0.0283176 0.329643 0.943681 0.464979 0.386547 0.796477 0.312325 0.211243 0.926191 
0.0692804 0.0333951 -0.997038 0.607278 0.407712 -0.681898 0.284362 -0.439027 -0.852287 
0.50608 -0.387531 -0.770521 -0.131293 -0.273181 -0.952961 -0.293974 -0.0230875 -0.955534 
-0.118568 -0.294191 -0.948363 -0.0671965 -0.0377033 -0.997027 -0.0832256 -0.224814 -0.970841 
0.565339 0.169534 -0.807248 -0.0849504 0.251547 -0.96411 -0.0741089 0.237378 -0.968586 
0.16958 0.381899 -0.908513 0.456768 0.536025 -0.709957 0.00723215 0.39254 -0.919707 
0.0147652 -0.746575 -0.665138 0.36829 -0.720083 -0.588084 0.321012 -0.62945 -0.707633 
-0.181091 -0.603596 -0.776452 0.5249 -0.596789 -0.606895 -0.138844 -0.360383 -0.922413 
-0.145782 -0.558873 -0.816338 -0.0280026 -0.251481 -0.967457 0.209969 -0.155141 -0.965321 
0.616218 -0.0734887 -0.78414 -0.344825 -0.263195 -0.901013 0.00640157 0.0481347 -0.99882 
-0.153919 0.231885 -0.960489 0.0853584 0.579713 -0.810338 -0.0686702 -0.773944 -0.62952 
0.256722 -0.874701 -0.411086 -0.197478 -0.911696 -0.360294 -0.15472 -0.947891 -0.278503 
0.338685 -0.856105 -0.390354 0.543984 -0.783115 -0.301352 -0.269671 -0.862708 -0.427799 
-0.116028 -0.874366 -0.471191 0.748874 -0.416637 -0.515366 -0.199944 -0.631265 -0.749351 
-0.213218 -0.387151 -0.897024 -0.265922 -0.360096 -0.894213 -0.186572 0.0683432 -0.980061 
-0.0914212 0.342047 -0.935225 -0.142936 0.584052 -0.799032 0.197286 -0.966198 -0.165948 
0.33283 -0.92904 -0.161585 -0.165587 -0.86376 -0.47592 -0.185184 -0.80932 -0.557412 
-0.28045 -0.659358 -0.697564 -0.202156 -0.625204 -0.753825 -0.257201 -0.460296 -0.849691 
-0.15497 -0.124495 -0.980044 -0.214743 -0.123746 -0.968799 -0.0427949 -0.0388083 -0.99833 
-0.0787696 0.256614 -0.963299 0.046622 0.637682 -0.768887 0.177439 0.670236 -0.720625 
-0.622401 0.270445 -0.734491 -0.70813 0.654551 -0.264792 -0.253215 0.342996 -0.904564 
-0.367417 0.0262101 -0.929687 -0.137998 0.36255 -0.921691 -0.0625081 0.593282 -0.802564 
-0.387271 0.600149 -0.699887 -0.157695 0.635533 -0.755798 -0.444967 0.85556 -0.264615 
-0.218662 -0.917786 -0.331445 -0.243472 -0.956954 -0.157991 -0.273265 -0.843281 -0.462822 
-0.237809 -0.785408 -0.571472 -0.261827 -0.658863 -0.705228 -0.245253 -0.696439 -0.674406 
-0.251952 -0.810929 -0.528123 -0.465602 -0.686695 -0.55827 -0.306816 -0.703552 -0.640998 
-0.364571 -0.537467 -0.760406 -0.137326 -0.477453 -0.86786 -0.171056 -0.143819 -0.974708 
-0.779305 -0.246146 -0.576277 -0.931482 -0.235786 -0.277031 -0.42078 -0.333592 -0.8436 
0.03072 -0.32106 -0.946561 -0.589662 -0.102976 -0.801058 -0.945973 -0.294799 -0.135018 
-0.913091 -0.0216289 -0.407182 -0.683995 0.515828 -0.515822 -0.805732 0.557676 -0.19948 
-0.220177 0.821484 -0.52601 -0.626116 0.777273 -0.0618471 0.151431 -0.988065 -0.0282303 
0.593397 -0.796954 -0.112892 -0.256158 -0.951843 -0.168457 -0.150807 -0.984499 -0.0895514 
-0.24545 -0.965832 -0.0832011 -0.226117 -0.937039 -0.266139 -0.466612 -0.839388 -0.278747 
-0.483963 -0.818274 -0.310173 -0.467872 -0.624525 -0.625351 -0.697964 -0.442675 -0.562925 