# vtk DataFile Version 4.2
vtk output
ASCII
DATASET POLYDATA
POINTS 449 float
213.343 262.239 188.508 213.434 260.992 188.981 212.491 261.6 188.593 
213.584 261.214 188.936 213.589 261.469 188.832 213.788 262.075 188.767 
212.266 263.612 188.582 214.132 262.628 189.047 213.965 263.426 189.14 
211.044 264.845 189.063 211.592 264.657 188.94 213.438 263.996 188.974 
213.795 263.95 189.229 210.935 265.127 189.292 212.476 264.834 189.156 
212.961 264.626 189.148 213.769 264.331 189.428 214.032 264.119 189.641 
212.327 265.186 189.488 213.291 264.774 189.45 213.61 264.586 189.488 
212.918 260.011 189.51 212.776 260.364 189.204 210.566 260.763 189.201 
211.864 260.744 188.984 213.642 261.011 189.109 213.771 260.803 189.457 
211.016 262.108 188.686 214.282 261.99 189.343 210.509 263.774 188.79 
210.099 263.507 188.859 209.393 264.958 189.686 210.021 265.58 190.026 
214.14 264.316 190.1 211.477 259.172 190.222 212.836 259.767 189.707 
213.486 260.444 189.479 214.446 261.429 190 214.557 261.855 190.089 
207.961 263.841 189.833 207.098 264.016 190.335 214.555 263.476 190.434 
210.328 265.976 190.533 212.575 265.57 190.28 213.305 259.901 189.964 
206.003 259.306 191.298 214.365 261.026 190.304 214.683 261.906 190.67 
214.726 263.054 190.929 205.922 264.521 191.324 214.475 264.161 191.164 
208.441 266.067 191.672 213.598 265.399 191.167 213.856 264.945 190.541 
205.02 258.466 192.322 210.107 258.022 191.845 212.313 258.672 191.515 
204.542 258.859 192.216 206.14 258.606 191.743 207.139 258.219 191.834 
213.56 259.716 190.934 214.305 260.508 191.237 214.463 260.942 190.86 
204.974 264.946 192.256 210.456 266.427 192.049 213.153 265.756 191.685 
209.057 257.629 192.449 211.24 258.112 192.154 204.133 259.83 191.961 
203.059 260.058 192.463 214.719 261.48 191.897 214.815 262.081 192.044 
213.55 265.57 191.885 207.312 266.474 193.361 210.225 266.576 192.769 
202.357 258.558 193.745 202.078 258.3 194.178 201.967 259.206 193.477 
202.039 259.581 193.262 202.522 259.539 192.982 200.618 261 193.9 
214.803 262.187 192.786 202.32 262.987 192.914 201.675 263.738 193.921 
201.898 264.311 194.3 214.576 264.04 193.13 210.729 266.596 193.369 
202.549 257.744 194.666 204.022 257.491 194.267 204.696 257.138 194.914 
208.403 257.194 193.853 211.536 258.048 193.173 200.246 259.668 194.516 
214.327 260.493 192.907 199.891 262.003 194.618 200.779 262.998 194.256 
212.525 266.131 193.722 208.871 257.244 194.879 200.027 258.218 195.631 
212.326 258.441 193.591 213.676 259.645 193.715 198.669 259.576 195.787 
214.38 261.034 194.073 214.569 261.796 194.196 198.512 262.379 196.183 
199.152 263.657 196.623 201.607 265.178 196.09 214.06 264.771 194.754 
211.761 266.349 194.568 198.864 257.863 196.754 199.959 257.511 196.516 
207.294 257.163 196.066 198.235 258.701 196.58 213.267 259.691 195.183 
214.102 260.425 194.238 214.509 262.584 194.995 213.265 265.611 194.858 
212.938 265.775 195.115 209.842 266.779 195.954 199.223 256.954 197.983 
197.828 257.388 198.035 197.612 257.553 198.082 202.74 256.972 196.941 
208.673 257.423 196.08 209.929 257.872 196.315 197.289 258.233 197.816 
211.428 258.789 196.529 213.582 260.459 196.035 213.741 260.801 196.101 
197.348 261.175 197.344 201.751 265.636 197.385 203.151 266.137 197.057 
213.054 265.441 196.072 197.481 257.339 198.757 199.189 256.888 198.31 
197.024 257.968 198.471 196.732 259.272 198.188 213.083 260.508 196.947 
196.768 260.223 198.262 214.01 263.534 196.409 200.843 265.366 198.347 
213.63 264.818 196.381 213.609 264.665 196.617 202.871 266.085 197.742 
209.109 266.524 197.317 197.768 257.142 199.108 196.855 257.753 199.185 
196.716 257.881 199.394 196.697 257.989 199.133 196.578 258.121 199.425 
206.395 257.949 198.931 196.64 259.109 198.453 196.797 261.81 199.8 
213.112 264.35 197.555 212.019 265.152 197.859 202.001 265.818 198.584 
204.177 266.332 198.404 196.903 257.809 199.898 201.871 257.137 199.028 
196.461 258.924 199.456 196.545 260.769 199.933 211.469 261.196 198.987 
197.351 262.955 200.094 198.931 264.379 199.657 202.62 265.94 199.127 
196.892 257.943 200.159 198.117 257.498 200.093 196.61 258.323 200.025 
206.961 258.66 199.728 207.399 259.19 200.036 196.811 261.996 200.661 
196.991 262.356 200.729 210.766 262.882 199.934 212.587 264.284 198.385 
209.701 264.782 199.975 210.335 264.523 199.818 202.458 265.693 200.246 
209.077 265.055 199.99 203.954 265.838 200.269 197.042 258.016 200.355 
196.845 258.484 200.548 196.687 258.5 200.349 196.582 258.78 200.215 
196.863 261.576 201.19 208.947 261.923 200.755 209.478 263.247 200.709 
209.881 263.549 200.429 198.914 264.095 201.06 209.45 263.915 200.604 
208.601 264.797 200.48 206.423 265.673 200.261 204.329 265.695 200.564 
197.413 259.235 201.332 199.311 258.924 201.809 197.29 259.627 201.373 
196.877 260.706 201.191 202.81 259.984 202.218 202.547 260.34 202.469 
205.269 260.829 202.046 197.053 261.652 201.561 205.631 261.347 202.146 
206.487 262.275 202.084 197.214 262.318 201.553 208.853 263.908 200.895 
202.19 265.282 201.122 203.368 265.291 201.212 198.403 259.604 201.96 
197.429 260.135 201.635 201.701 260.819 202.69 204.208 261.476 202.624 
197.255 261.756 201.805 205.488 262.395 202.44 205.961 262.771 202.296 
197.705 262.744 201.806 205.761 263.426 202.242 197.876 262.971 201.741 
199.51 263.738 201.836 201.475 264.292 201.992 204.521 264.399 201.984 
204.48 264.826 201.624 197.933 261.621 202.182 199.095 261.538 202.535 
200.55 261.321 202.739 203.067 261.491 202.766 198.339 262.083 202.276 
202.09 261.991 202.82 197.687 262.442 201.933 201.123 262.614 202.685 
204.918 262.562 202.576 198.556 262.987 202.011 200.174 263.221 202.331 
202.605 263.113 202.676 200.071 263.734 202.021 201.754 263.827 202.327 
204.659 263.536 202.415 204.032 263.959 202.302 197.518 261.255 254.301 
197.296 260.932 254.498 197.976 261.279 254.099 198.804 260.774 253.898 
197.429 261.548 254.348 197.483 261.76 254.34 202.093 261.578 253.523 
204.169 262.162 253.626 198.151 262.342 254.205 202.179 262.694 253.512 
198.095 262.961 254.559 201.123 263.218 253.72 205.485 263.277 253.954 
198.486 263.158 254.453 200.151 263.779 254.181 202.585 263.797 253.771 
200.269 264.309 254.542 201.666 264.309 254.148 201.616 264.801 254.551 
198.014 259.075 254.723 197.562 259.831 254.582 199.149 259.707 254.139 
199.803 259.241 254.341 202.969 261.195 253.71 197.455 262.296 254.642 
197.28 262.284 254.906 206.45 262.5 254.358 206.094 263.316 254.171 
200.589 264.725 254.855 205.096 264.689 254.332 205.981 264.633 254.555 
206.497 264.116 254.486 202.492 265.241 254.792 197.451 258.666 255.36 
197.115 259.189 255.256 196.84 261.516 255.549 206.38 261.624 254.602 
197.743 263.049 255.222 208.488 264.608 255.404 207.98 264.882 255.297 
201.232 265.351 255.554 202.746 265.804 255.523 204.672 265.495 254.938 
206.058 265.244 254.971 205.296 265.768 255.389 197.525 258.146 255.932 
208.865 263.961 255.539 196.789 257.968 256.838 196.623 258.106 256.883 
196.545 258.571 256.585 211.48 262.839 257.129 198.089 263.827 256.922 
200.909 265.548 256.512 198.133 257.09 257.781 196.699 257.913 257.075 
197.136 257.521 257.452 196.404 258.476 257.136 202.498 257.223 257.606 
204.628 257.899 257.046 206.614 258.507 257.122 210.835 260.584 257.477 
212.3 261.085 258.216 213.759 262.133 258.982 211.979 263.681 257.587 
211.809 264.362 257.68 211.903 264.853 258.008 210.087 265.99 257.901 
212.298 264.99 258.452 210.899 265.8 258.209 197.671 257.198 258.102 
197.976 257.086 258.05 196.558 257.983 257.505 196.53 258.074 257.71 
196.326 258.853 257.453 212.222 259.703 259.196 213.692 261.461 259.131 
196.976 262.449 257.674 213.51 264.069 259.129 200.869 265.565 258.44 
209.189 266.148 257.54 209.939 266.658 258.992 198.425 257.054 258.57 
198.279 257.104 258.658 196.96 257.666 258.181 196.8 257.757 258.013 
196.473 258.402 257.801 207.907 257.689 259.156 196.698 258.412 258.309 
196.761 259.511 258.732 196.579 260.573 258.141 213.75 260.786 259.663 
213.908 260.743 259.957 196.861 262.011 258.271 214.158 263.557 259.867 
199.047 264.384 258.806 213.854 264.21 259.787 213.632 264.671 260.005 
206.309 266.933 259.003 209.237 266.935 259.489 198.115 257.201 258.7 
196.832 257.826 258.209 197.497 257.622 258.727 201.371 257.104 260.08 
197.312 257.93 258.849 196.957 258.607 258.808 213.483 260.06 260.175 
214.619 262.393 260.803 197.805 262.995 259.381 213.698 264.997 260.759 
214.045 264.485 260.809 206.563 267.01 260.222 205.434 256.975 260.069 
205.949 257 260.748 206.729 257.058 260.823 199.361 257.805 260.352 
207.463 257.223 260.381 197.557 258.709 259.555 197.932 262.228 260.13 
202.5 265.917 260.594 208.548 267.117 261.272 211.7 266.587 261.474 
213.306 265.586 261.245 201.452 257.632 261.448 198.661 263.237 260.436 
214.369 264.437 262.322 214.057 265.004 262.449 206.519 266.82 262.036 
204.804 257.225 262.024 202.579 257.907 262.515 213.184 259.163 262.105 
200.694 260.146 262.593 199.905 263.321 261.607 199.294 263.507 260.886 
201.625 264.787 262.175 201.811 264.829 262.409 202.165 264.949 262.515 
209.914 266.993 262.889 213.227 265.912 262.685 204.875 257.466 262.682 
206.245 257.659 263.346 207.295 257.429 262.835 201.668 258.424 262.537 
212.093 258.419 263.03 201.846 258.62 262.8 201.579 262.226 263.363 
214.731 263.605 263.646 203.751 265.034 263.692 204.42 265.441 263.786 
212.599 266.333 263.371 205.426 258.496 264.263 212.105 258.651 264.2 
213.901 260.227 264.201 203.582 260.262 264.498 203.44 262.829 264.585 
214.481 264.338 264.562 206.119 265.745 264.77 213.667 265.68 264.422 
208.883 266.734 264.376 206.716 258.306 264.455 205.063 259.584 264.936 
204.552 264.044 264.966 208.93 266.51 265.095 213.631 265.571 265.481 
210.272 258.634 265.264 209.297 259.283 265.919 208.014 260.302 266.295 
207.735 262.16 266.786 214.505 263.421 265.601 205.865 264.794 265.526 
[...]
POINT_DATA 449
SCALARS scalars float
LOOKUP_TABLE default
1 1 1 1 1 1 1 1 1 
1 1 1 1 1 1 1 1 1 
1 1 1 1 1 1 1 1 1 
1 1 1 1 1 1 1 1 1 
1 1 1 1 1 1 1 1 1 
1 1 1 1 1 1 1 1 1 
1 1 1 1 1 1 1 1 1 
1 1 1 1 1 1 1 1 1 
1 1 1 1 1 1 1 1 1 
1 1 1 1 1 1 1 1 1 
1 1 1 1 1 1 1 1 1 
1 1 1 1 1 1 1 1 1 
1 1 1 1 1 1 1 1 1 
1 1 1 1 1 1 1 1 1 
1 1 1 1 1 1 1 1 1 
1 1 1 1 1 1 1 1 1 
1 1 1 1 1 1 1 1 1 
1 1 1 1 1 1 1 1 1 
1 1 1 1 1 1 1 1 1 
1 1 1 1 1 1 1 1 1 
1 1 1 1 1 1 1 1 1 
1 1 1 1 1 1 1 1 1 
1 1 1 1 1 1 1 1 1 
1 1 1 1 1 1 1 1 1 
1 1 1 1 1 1 1 1 1 
1 1 1 1 1 1 1 1 1 
1 1 1 1 1 1 1 1 1 
1 1 1 1 1 1 1 1 1 
1 1 1 1 1 1 1 1 1 
1 1 1 1 1 1 1 1 1 
1 1 1 1 1 1 1 1 1 
1 1 1 1 1 1 1 1 1 
1 1 1 1 1 1 1 1 1 
1 1 1 1 1 1 1 1 1 
1 1 1 1 1 1 1 1 1 
1 1 1 1 1 1 1 1 1 
1 1 1 1 1 1 1 1 1 
1 1 1 1 1 1 1 1 1 
1 1 1 1 1 1 1 1 1 
1 1 1 1 1 1 1 1 1 
1 1 1 1 1 1 1 1 1 
1 1 1 1 1 1 1 1 1 
1 1 1 1 1 1 1 1 1 
1 1 1 1 1 1 1 1 1 
1 1 1 1 1 1 1 1 1 
1 1 1 1 1 1 1 1 1 
1 1 1 1 1 1 1 1 1 
1 1 1 1 1 1 1 1 1 
1 1 1 1 1 1 1 1 1 
1 1 1 1 1 1 1 1 
NORMALS Normals float
0.337908 0.0887435 -0.936986 0.320233 -0.512843 -0.796519 0.036317 -0.265463 -0.963437 
0.588705 -0.331259 -0.737356 0.361793 -0.319396 -0.875838 0.627016 -0.174351 -0.759245 
0.00420648 0.187171 -0.982318 0.747478 0.103756 -0.656133 0.836181 0.219966 -0.502411 
-0.181657 0.483154 -0.856483 0.0290649 0.517451 -0.855219 0.362291 0.366401 -0.857027 
0.583179 0.34595 -0.734997 -0.0869596 0.717108 -0.691516 0.176719 0.476041 -0.861485 
0.319642 0.634496 -0.703736 0.653399 0.463463 -0.598558 0.806356 0.385756 -0.44831 
0.150644 0.758577 -0.63393 0.418707 0.758149 -0.499895 0.582458 0.570195 -0.579328 
0.203937 -0.648761 -0.733157 0.168822 -0.567216 -0.80608 -0.250677 -0.410924 -0.876528 
-0.0689949 -0.485226 -0.871662 0.661687 -0.444194 -0.604038 0.728649 -0.511765 -0.455156 
-0.225683 -0.138895 -0.964249 0.871698 -0.145787 -0.467856 -0.199068 0.187843 -0.961815 
-0.343716 0.192167 -0.919201 -0.393978 0.600418 -0.695902 -0.350474 0.710003 -0.61079 
0.865065 0.397034 -0.306638 -0.0075777 -0.737267 -0.675559 0.306065 -0.808611 -0.502467 
0.56579 -0.594236 -0.571633 0.879839 -0.321598 -0.349939 0.962132 -0.0627137 -0.265273 
-0.425278 0.128356 -0.895915 -0.449187 0.293782 -0.843755 0.937971 0.224957 -0.263827 
-0.126551 0.888776 -0.440525 0.268747 0.875722 -0.401106 0.557286 -0.700103 -0.446417 
-0.30189 -0.25108 -0.919685 0.905189 -0.370483 -0.208269 0.979066 -0.102138 -0.17606 
0.99054 0.0803949 -0.111205 -0.392941 0.628387 -0.671362 0.888548 0.448871 -0.0948574 
-0.2471 0.928309 -0.27782 0.585174 0.780561 -0.219764 0.738153 0.619388 -0.267374 
-0.260843 -0.642048 -0.720927 0.145535 -0.942708 -0.300201 0.508126 -0.838221 -0.197976 
-0.38835 -0.515185 -0.764048 -0.284299 -0.808929 -0.514595 -0.202391 -0.76639 -0.609659 
0.68108 -0.691338 -0.241209 0.8517 -0.513321 -0.105399 0.836056 -0.498008 -0.230215 
-0.436671 0.672013 -0.598095 0.0922346 0.960864 -0.261215 0.325522 0.939866 -0.103376 
-0.0403426 -0.938465 -0.343011 0.274795 -0.912024 -0.304467 -0.250457 0.101608 -0.962781 
-0.40957 -0.347553 -0.84348 0.974789 -0.215352 -0.0583976 0.997432 -0.0699821 0.015205 
0.615524 0.788098 -0.00569752 -0.244453 0.929004 -0.277839 -0.0427265 0.997453 -0.057115 
-0.294426 -0.612094 -0.73393 -0.462917 -0.691559 -0.554485 -0.486378 -0.432907 -0.758965 
-0.454238 -0.353221 -0.817865 -0.446023 -0.364864 -0.817275 -0.528744 0.0782235 -0.845169 
0.99123 -0.0435034 0.124779 -0.535606 0.367097 -0.760504 -0.553138 0.540676 -0.633804 
-0.488259 0.71398 -0.501833 0.97214 0.228719 0.0512911 -0.00857083 0.999617 0.0263169 
-0.344996 -0.846055 -0.406409 -0.28918 -0.789752 -0.540987 -0.0620775 -0.980653 -0.18565 
0.0547976 -0.99756 -0.0432612 0.319497 -0.947536 -0.00987102 -0.626593 -0.247852 -0.738885 
0.871317 -0.489814 0.0298016 -0.708067 0.121267 -0.695655 -0.65218 0.397905 -0.645238 
0.417698 0.907106 -0.0518309 0.278736 -0.96029 0.0122135 -0.410801 -0.670896 -0.617366 
0.57552 -0.810152 0.111492 0.785483 -0.608709 0.111759 -0.689772 -0.227751 -0.687273 
0.916526 -0.370499 0.150703 0.973098 -0.149013 0.175715 -0.766504 0.364407 -0.528847 
-0.640849 0.667288 -0.379525 -0.476474 0.811364 -0.338615 0.843301 0.522438 0.126101 
0.335777 0.936722 0.0990251 -0.385684 -0.661289 -0.643385 -0.326792 -0.697672 -0.637542 
0.145661 -0.94679 0.287004 -0.520146 -0.452999 -0.724044 0.709715 -0.656877 0.254592 
0.8226 -0.506644 0.258147 0.979231 0.0126491 0.202351 0.585205 0.801644 0.122074 
0.548059 0.802007 0.23752 0.130495 0.975027 0.179705 -0.172533 -0.941815 -0.288474 
-0.473169 -0.735038 -0.485623 -0.667934 -0.590532 -0.45292 -0.151651 -0.956483 -0.249282 
0.118934 -0.951781 0.282786 0.324467 -0.874603 0.360265 -0.7542 -0.380801 -0.534951 
0.472098 -0.793556 0.383917 0.790466 -0.532789 0.302159 0.866012 -0.254153 0.430615 
-0.821995 0.217943 -0.526142 -0.343503 0.938957 -0.0190998 -0.244784 0.95315 -0.177724 
0.511972 0.789903 0.337549 -0.616822 -0.747232 -0.247334 -0.0340238 -0.997098 0.0681064 
-0.829062 -0.329561 -0.451714 -0.905202 0.00638492 -0.424934 0.657891 -0.575202 0.48613 
-0.923121 0.096366 -0.372237 0.910924 0.120215 0.394671 -0.481609 0.874476 -0.0578358 
0.797301 0.520278 0.305976 0.72684 0.501053 0.469733 -0.37713 0.923661 0.067991 
0.150025 0.942092 0.299926 -0.344164 -0.935532 0.0795666 -0.675504 -0.725781 -0.130139 
-0.721556 -0.688168 0.0760353 -0.83431 -0.443466 -0.327513 -0.964459 -0.215913 -0.152316 
0.30155 -0.822065 0.482987 -0.946259 -0.104114 -0.306192 -0.957348 0.267002 -0.110424 
0.74362 0.363098 0.561417 0.295017 0.711151 0.638145 -0.281894 0.95928 0.0178206 
-0.113009 0.970354 0.21364 -0.64661 -0.717501 0.259014 0.1014 -0.976639 0.189459 
-0.997327 0.03833 -0.0622099 -0.988128 0.150784 -0.0294382 0.62998 -0.321588 0.706899 
-0.779429 0.619457 -0.0936161 -0.589952 0.804321 -0.0708858 -0.191918 0.968527 0.158502 
-0.50355 -0.719027 0.478997 -0.0621957 -0.783053 0.618837 -0.859638 -0.394139 0.325079 
0.371156 -0.721265 0.584825 0.474807 -0.576665 0.664843 -0.940226 0.300855 0.159569 
-0.845611 0.515399 0.138948 0.558801 -0.103369 0.822834 0.573221 0.252704 0.77946 
0.418609 0.596596 0.684718 0.491459 0.567299 0.660787 -0.19198 0.945341 0.263581 
0.282367 0.713422 0.641325 -0.064446 0.901543 0.427864 -0.509926 -0.545252 0.665339 
-0.500893 -0.391887 0.771706 -0.809581 -0.314969 0.495352 -0.908985 -0.095798 0.40567 
-0.927606 0.163325 0.335965 0.469169 -0.193337 0.861685 0.467818 0.00279213 0.88382 
0.542405 0.132365 0.829625 -0.391817 0.817972 0.421191 0.439857 0.374077 0.816451 
0.271043 0.66386 0.697012 0.135535 0.859056 0.493613 0.0205711 0.884076 0.46689 
-0.584371 -0.300819 0.75367 -0.0600667 -0.446235 0.892898 -0.421627 -0.310762 0.851855 
-0.798464 -0.0811131 0.596553 0.137668 -0.602671 0.786025 0.0665649 -0.367238 0.927742 
0.27229 -0.437573 0.856964 -0.76916 -0.0215737 0.638692 0.315269 -0.300651 0.900119 
0.436555 -0.0146388 0.899558 -0.796104 0.476383 0.373201 0.335259 0.272599 0.901827 
-0.181525 0.827242 0.531713 -0.0143039 0.799099 0.601029 -0.285257 -0.410802 0.86595 
-0.59798 -0.211149 0.773198 -0.0339952 -0.280624 0.959216 0.177566 -0.183198 0.966907 
-0.705306 0.232872 0.669562 0.262091 -0.0473273 0.963882 0.35867 0.00606061 0.933445 
-0.581924 0.426953 0.692153 0.326614 0.28776 0.900288 -0.489106 0.596101 0.636742 
-0.27116 0.548041 0.79128 -0.112474 0.612164 0.782691 0.12615 0.571369 0.81094 
0.132613 0.680964 0.72021 -0.232686 -0.304658 0.923602 -0.21757 0.0610938 0.974131 
-0.153982 -0.200724 0.967471 0.123498 -0.160586 0.979265 -0.313345 0.239031 0.919064 
-0.0244335 0.0220042 0.999459 -0.395909 0.312249 0.863572 -0.116705 0.254876 0.959905 
0.147067 0.00119534 0.989126 -0.254295 0.476145 0.841795 -0.20499 0.339824 0.917878 
0.057571 0.265951 0.962266 -0.175251 0.611564 0.771542 -0.0585773 0.411333 0.909601 
0.108283 0.323093 0.940152 0.0114642 0.43868 0.89857 -0.440117 -0.0636558 -0.895681 
-0.729068 -0.117363 -0.674304 -0.306623 -0.0136021 -0.951734 -0.120834 -0.0223584 -0.992421 
-0.772881 0.116105 -0.623838 -0.408583 0.24185 -0.880096 -0.0234032 -0.130636 -0.991154 
0.283166 -0.17272 -0.94339 -0.339204 0.335114 -0.878999 -0.01339 0.122739 -0.992349 
-0.546406 0.576069 -0.607935 -0.167423 0.2846 -0.943913 0.307508 -0.00268701 -0.951542 
-0.452271 0.610075 -0.650584 -0.155289 0.52416 -0.837342 0.00363996 0.426889 -0.904297 
-0.372571 0.651764 -0.660602 -0.161448 0.486897 -0.858409 -0.156662 0.699278 -0.697472 
-0.274693 -0.590132 -0.759136 -0.431125 -0.283389 -0.856634 -0.0897512 -0.477208 -0.874195 
0.0817869 -0.57542 -0.813758 0.278324 -0.419457 -0.864055 -0.659195 0.403404 -0.634608 
-0.849065 0.388632 -0.357845 0.416845 -0.0648517 -0.906661 0.408008 0.0634318 -0.910772 
-0.292883 0.69788 -0.653593 0.16096 0.514624 -0.842172 0.205099 0.482649 -0.85146 
0.366785 0.271198 -0.889899 -0.139214 0.785776 -0.60264 -0.492782 -0.609621 -0.620909 
-0.680086 -0.406817 -0.609904 -0.95132 0.216318 -0.219539 0.345549 -0.41493 -0.841683 
-0.69646 0.664921 -0.269857 0.447311 0.356583 -0.82022 0.336927 0.425664 -0.839816 
-0.249104 0.876412 -0.412128 -0.172335 0.953099 -0.248804 0.0244533 0.711886 -0.701869 
0.205077 0.594275 -0.777677 0.122156 0.803119 -0.583162 -0.275968 -0.791942 -0.544675 
0.456832 -0.0140898 -0.889441 -0.514269 -0.696939 -0.499803 -0.782573 -0.503181 -0.36659 
-0.885354 -0.205147 -0.417209 0.544051 -0.0617022 -0.83678 -0.673156 0.739396 -0.0124338 
-0.443703 0.866549 -0.228516 -0.132358 -0.967679 -0.214657 -0.623521 -0.746318 -0.232876 
-0.43814 -0.871672 -0.219592 -0.940056 -0.300436 -0.161348 0.0982471 -0.943862 -0.31539 
0.228974 -0.790777 -0.567664 0.279545 -0.815624 -0.50657 0.442417 -0.522724 -0.728716 
0.592021 -0.328399 -0.735979 0.730794 0.00380078 -0.682587 0.642197 0.109688 -0.758651 
0.510195 0.380018 -0.771549 0.484579 0.495053 -0.721183 0.340794 0.772993 -0.535108 
0.637242 0.491386 -0.593686 0.419676 0.696951 -0.581491 -0.454489 -0.884814 0.102683 
-0.266886 -0.962318 0.0521024 -0.904521 -0.426267 -0.0117584 -0.919828 -0.345137 0.18654 
-0.998571 -0.0526285 -0.00925548 0.469295 -0.738071 -0.484781 0.730658 -0.351962 -0.585032 
-0.88952 0.456846 0.00674987 0.728083 0.351539 -0.588486 -0.39518 0.906653 0.147696 
0.275857 0.827455 -0.489102 0.274804 0.887286 -0.370414 -0.213205 -0.976971 -0.00840316 
-0.366947 -0.915017 0.167613 -0.601815 -0.6977 0.388629 -0.763796 -0.619776 0.18026 
-0.943663 -0.1251 0.306348 0.247914 -0.894945 -0.370961 -0.86849 -0.210665 0.448716 
-0.767295 -0.0289302 0.640641 -0.98278 0.0864122 0.163328 0.587705 -0.529339 -0.611885 
0.915929 -0.345995 -0.203375 -0.916744 0.291949 0.272664 0.925332 0.165287 -0.341235 
-0.529929 0.810259 0.250311 0.831238 0.449004 -0.327778 0.730275 0.597737 -0.33077 
-0.136159 0.98213 -0.129926 0.106239 0.957872 -0.266823 -0.423536 -0.84727 0.320548 
-0.774287 -0.447031 0.447932 -0.461547 -0.675855 0.574625 -0.150876 -0.941439 0.301543 
-0.599932 -0.384672 0.701505 -0.833193 -0.0781138 0.547438 0.58174 -0.630176 -0.514254 
0.983022 0.0398061 -0.179117 -0.809582 0.450124 0.376782 0.654163 0.679402 -0.332392 
0.875089 0.445139 -0.189924 -0.116945 0.989424 -0.0858129 0.0722068 -0.988288 -0.134437 
0.0964945 -0.993958 0.0523081 0.0565565 -0.998036 0.0269399 -0.415787 -0.661369 0.624269 
0.212 -0.972391 -0.0975273 -0.613473 -0.27299 0.741031 -0.729006 0.196551 0.655682 
-0.422639 0.873059 0.243197 -0.141775 0.988561 0.0514523 0.395559 0.887068 -0.238 
0.6988 0.679783 -0.222652 -0.448193 -0.652993 0.610511 -0.671665 0.530382 0.517263 
0.897873 0.417651 -0.139254 0.800554 0.598813 -0.0231377 -0.289475 0.942616 0.166373 
-0.0669901 -0.962829 0.261673 -0.241386 -0.791154 0.561968 0.667736 -0.73285 -0.13061 
-0.637319 -0.23974 0.732359 -0.629629 0.390761 0.67147 -0.559167 0.585762 0.586698 
-0.549112 0.794353 0.259767 -0.524927 0.560498 0.640541 -0.480695 0.600461 0.639045 
0.109323 0.988932 0.100305 0.629349 0.776877 -0.0195502 -0.0821815 -0.874727 0.477596 
-0.0835863 -0.902477 0.422551 0.0861193 -0.946484 0.311049 -0.541531 -0.553902 0.632405 
0.419162 -0.907458 -0.0286975 -0.430473 -0.410726 0.80374 -0.574133 0.135433 0.807484 
0.996658 0.0757365 0.0305949 -0.53213 0.564329 0.631166 -0.432713 0.747623 0.503805 
0.458337 0.886851 0.0584899 -0.280313 -0.675447 0.682052 0.389622 -0.864018 0.318853 
0.818702 -0.55747 0.137674 -0.454075 -0.239898 0.858059 -0.557774 0.095896 0.824434 
0.911171 0.401872 0.0909209 -0.408955 0.737581 0.537336 0.757931 0.652012 -0.0204994 
-0.361084 0.904243 0.227956 -0.108352 -0.759732 0.641145 -0.310732 -0.479938 0.82043 
-0.509545 0.313856 0.801161 -0.263596 0.903774 0.337208 0.720272 0.672195 0.171354 
0.0644208 -0.851179 0.520906 -0.14559 -0.636729 0.757218 -0.162857 -0.378772 0.911049 
-0.341878 -0.134437 0.930079 0.95666 0.0522998 0.286473 -0.480443 0.532741 0.696679 
0.0540513 0.911149 0.408517 0.15377 -0.737458 0.657655 0.579164 -0.714711 0.392118 
0.541433 -0.661995 0.518279 -0.221244 -0.409185 0.885223 0.911307 0.242255 0.332914 
-0.45507 0.356101 0.816152 -0.385588 0.511871 0.767665 0.691225 0.670206 0.270244 
0.00577607 -0.480136 0.877175 0.878239 -0.265892 0.39749 -0.247459 0.160626 0.955491 
0.794374 0.351817 0.495172 0.790913 0.518433 0.325091 -0.220166 0.700711 0.678624 
0.456295 0.802545 0.384338 0.562447 0.562214 0.606275 -0.267543 0.583605 0.766698 
0.182033 -0.592162 0.784989 0.353244 -0.633456 0.688442 0.490353 -0.642448 0.58891 
0.598534 -0.259198 0.758006 -0.0458027 -0.178247 0.982919 0.182811 -0.330149 0.926057 
0.558876 -0.00973271 0.829194 0.712073 -0.14013 0.68798 -0.120923 0.336423 0.933915 
0.0089516 0.0799008 0.996763 0.209131 0.0697434 0.975397 0.720915 -0.128861 0.680938 
0.831008 0.126978 0.541574 0.789087 0.450364 0.417748 -0.25303 0.415493 0.873694 
-0.0365782 0.283628 0.958236 0.450735 0.590456 0.669477 0.261909 0.49216 0.83017 
-0.143028 0.598211 0.788471 -0.199443 0.352862 0.914172 -0.039661 0.481782 0.875393 
-0.121846 0.64774 0.752055 0.418991 -0.0838396 0.904112 0.536921 0.0981711 0.837901 
0.254965 0.438991 0.861556 0.161369 0.673267 0.721576 
