# vtk DataFile Version 4.2
vtk output
ASCII
DATASET POLYDATA
POINTS 2834 float
434.839 180.266 137.604 434.988 180.593 137.634 435.477 182.213 137.874 
435.316 177.571 137.578 436.136 176.748 137.43 436.373 178.239 137.3 
437.628 177.95 137.327 434.447 178.927 137.926 433.942 178.692 138.385 
435.455 180.755 137.567 434.453 180.862 138.076 435.542 182.667 138.111 
435.846 182.924 138.242 435.746 172.885 138.641 434.652 175.18 138.363 
436.883 175.418 137.67 433.946 179.934 138.393 439.566 180.075 137.927 
437.944 182.119 138.153 434.958 183.115 138.775 444.14 193.32 139.743 
444.022 193.493 139.791 444.402 193.42 139.618 444.027 193.868 139.728 
444.395 193.727 139.594 443.993 194.218 139.818 444.139 194.096 139.684 
444.006 194.466 139.919 444.115 194.632 139.992 444.412 194.393 139.769 
444.57 194.23 139.701 437.491 174.416 137.997 439.75 177.347 138.001 
433.221 178.518 139.311 434.495 183.997 139.758 444.409 192.41 140.049 
443.8 193.144 140.275 444.418 192.85 139.835 443.73 194.47 140.315 
444.933 193.891 139.694 445.1 194.036 139.793 443.968 194.643 140.105 
444.121 194.913 140.309 434.925 171.246 139.763 443.452 180.156 139.59 
432.605 181.158 140.16 441.604 182.067 139.389 429.228 187.862 141.812 
429.299 187.954 141.845 445.242 193.233 139.813 445.402 193.989 139.949 
445.88 194.396 140.394 443.952 195.125 140.7 439.542 170.169 140.882 
443.368 173.995 140.515 445.394 178.59 140.419 432.133 181.346 140.672 
441.498 183.042 139.825 443.522 182.766 140.113 431.976 183.528 140.973 
445.438 184.318 140.667 429.581 185.775 141.616 445.17 186.503 140.882 
429.309 186.632 141.681 430.129 186.101 141.565 428.708 186.51 141.912 
428.472 187.63 142.324 428.859 188.464 142.45 429.226 188.386 142.153 
444.332 190.217 141.022 444.205 195.763 141.261 445.2 195.642 141.053 
434.652 169.189 141.562 431.408 182.502 141.23 441.349 183.606 140.142 
443.285 183.658 140.378 441.564 184.19 140.591 428.008 184.711 142.725 
428.897 185.113 141.965 429.238 184.958 141.836 430.392 184.675 141.556 
432.305 184.966 141.254 444.141 186.11 141.105 431.568 185.204 141.508 
433.398 186.057 141.421 436.905 186.224 141.597 444.317 187.923 141.299 
433.349 187.276 142.035 447.78 189.16 140.903 430.357 189.025 142.59 
450.509 190.393 141.983 443.375 195.504 142.109 445.445 175.491 141.037 
431.868 178.02 141.762 431.388 179.81 141.827 442.25 184.698 140.948 
431.765 185.492 141.701 432.023 185.384 141.623 432.268 185.818 141.637 
431.473 186.761 141.828 443.837 187.417 141.578 428.372 188.972 143.45 
429.144 189.725 143.519 429.792 189.459 142.974 429.638 189.87 143.436 
443.04 195.023 142.513 442.844 194.567 142.841 451.21 194.346 143.745 
444.16 196.936 142.933 443.95 197.265 143.694 444.434 197.237 143.24 
444.738 197.486 143.592 444.545 159.451 144.404 443.945 160.421 144.126 
444.452 162.188 144.042 442.631 163.21 143.831 433.263 170.472 142.537 
448.496 171.822 143.521 448.892 176.993 142.277 451.276 176.019 143.368 
430.746 179.318 142.904 431.929 185.391 141.814 431.91 185.345 141.921 
431.951 185.326 141.95 431.99 185.447 141.852 431.914 185.422 141.895 
431.905 185.767 141.763 442.757 186.749 142.127 431.928 186.368 141.783 
426.787 186.751 144.479 447.679 195.684 142.533 442.973 196.104 143.547 
443.582 196.729 143.288 445.846 197.344 143.415 439.711 161.354 144.614 
439.029 165.549 143.463 438.749 166.112 143.217 438.485 166.822 142.827 
455.257 169.984 145.937 455.682 171.588 145.576 429.957 179.673 143.498 
427.206 181.248 145.028 431.954 185.235 142.07 431.966 185.262 142.045 
431.96 185.267 142.048 431.945 185.264 142.044 432.749 189.258 143.046 
432.816 189.327 143.1 432.736 189.365 143.105 435.195 189.197 143.532 
433.087 190.06 143.703 428.291 190.165 144.95 429.56 190.679 144.39 
442.339 195.116 144.14 442.473 195.673 144.133 450.085 196.367 144.746 
442.815 196.614 144.444 444.115 197.88 144.986 445.633 197.883 144.458 
449.323 157.276 146.234 442.029 157.513 145.865 437.783 160.975 145.512 
435.067 164.675 145.172 436.485 164.235 144.638 442.76 167.605 143.275 
427.827 179.668 145.496 431.968 185.194 142.128 431.967 185.181 142.141 
431.969 185.16 142.168 431.967 185.174 142.152 431.965 185.169 142.154 
431.961 185.197 142.124 441.208 186.122 142.413 456.437 183.761 145.025 
431.96 185.191 142.128 440.049 186.696 143.027 442.354 188.061 143.286 
432.764 189.33 143.076 432.782 189.331 143.081 432.775 189.341 143.087 
432.757 189.34 143.082 442.556 191.562 143.966 442.526 197.458 146.045 
432.599 169.081 145.57 454.454 168.999 146.113 432.447 169.93 145.333 
446.795 167.743 144.685 430.766 176.566 145.415 430.32 177.396 145.278 
431.969 185.154 142.174 431.966 185.162 142.164 441.684 187.235 143.268 
441.776 187.565 143.477 441.972 188.057 143.646 440.734 188.022 144.153 
432.772 189.336 143.08 439.586 188.763 144.515 452.903 194.908 145.846 
448.079 198.064 146.114 436.187 159.445 147.532 425.381 184.397 147.226 
441.215 187.499 143.686 441.242 188.499 144.375 441.436 188.842 144.501 
441.878 189.364 144.447 439.828 190.307 145.368 426.755 190 147.295 
441.888 191.417 144.838 431.994 193.784 147.507 440.78 195.598 146.282 
452.786 196.191 147.024 439.433 196.557 147.717 450.45 155.072 147.853 
438.972 157.248 147.907 456.166 156.504 148.967 453.125 159.504 147.265 
432.538 163.55 148.62 456.499 168.145 148.047 430.339 175.817 148.034 
427.18 178.16 148.149 439.681 192.037 146.035 440.395 191.822 145.913 
439.543 192.505 146.171 433.885 194.038 147.316 440.074 193.412 146.28 
440.804 193.852 145.989 439.642 194.664 146.661 440.163 193.82 146.31 
440.487 193.915 146.181 449.794 198.867 149.003 453.847 153.524 149.54 
454.89 163.578 148.007 455.38 164.883 148.199 455.859 166.258 148.25 
459.151 171.229 149.501 431.502 173.48 148.074 430.848 175.254 148.309 
430.96 175.02 148.811 430.683 175.44 148.629 430.75 175.458 148.481 
430.941 175.331 148.699 430.875 175.408 148.702 460.222 188.699 149.545 
440.722 191.877 145.791 429.111 193.407 149.626 454.099 152.47 150.433 
447.645 152.579 150.259 432.618 160.993 150.23 459.785 159.181 151.131 
457.514 164.624 150.12 431.864 169.811 149.713 465.336 174.988 151.172 
430.117 174.64 150.052 431.103 174.316 149.279 430.736 175.091 149.014 
430.908 175.355 148.829 430.998 175.324 148.868 431.036 175.399 148.874 
431.019 175.405 148.833 463.942 180.219 149.693 424.415 184.158 150.117 
454.672 196.628 149.705 440.624 198.944 150.348 461.077 156.646 152.648 
460.807 157.584 152.18 431.26 166.326 151.835 458.288 167.902 151.056 
431.173 173.731 150.281 431.08 175.415 148.898 431.085 175.416 148.898 
431.089 175.432 148.891 431.084 175.431 148.891 424.61 179.634 151.54 
424.198 186.161 151.982 425.365 190.021 152.24 430.799 195.073 151.296 
459.989 153.907 152.62 461.441 159.365 153.351 459.624 163.429 152.601 
458.898 168.589 152.206 432.103 170.263 152.538 459.074 169.154 151.957 
432.312 171.372 152.44 460.482 170.539 152.216 431.893 172.353 151.499 
467.04 174.371 152.786 427.496 174.308 152.257 430.699 173.406 151.531 
431.616 172.829 151.344 431.2 173.463 150.891 425.573 176.301 152.495 
431.103 175.437 148.905 435.903 197.964 152.42 455.607 150.485 153.431 
448.103 150.653 153.292 460.909 161.247 153.261 432.306 171.018 152.537 
460.085 169.725 153.342 432.369 171.558 152.852 431.461 172.505 152.492 
459.341 152.078 153.912 461.697 155.743 154.234 458.959 167.434 153.536 
431.785 169.448 153.922 426.817 172.853 154.528 428.754 171.942 154.326 
431.297 171.938 153.72 431.549 171.521 154.355 432.543 171.418 153.426 
470.52 175.669 154.994 462.308 159.011 155.879 462.122 160.262 156.065 
430.568 163.927 154.811 459.098 167.198 154.519 430.773 167.965 155.017 
459.346 168.242 155.496 459.591 168.748 154.778 431.741 169.667 154.812 
430.661 171.027 154.83 432.297 170.168 154.648 461.084 169.555 155.552 
431.781 171.236 154.789 432.769 170.983 154.296 432.801 171.263 154.479 
464.691 170.898 154.769 468.469 172.406 155.494 432.617 171.373 154.673 
470.001 174.076 155.285 453.099 148.919 156.529 462.382 157.769 156.361 
430.954 161.394 155.723 459.592 165.718 155.891 459.165 167.747 156.202 
431.42 169.465 155.031 431.517 169.721 155.138 460.027 168.901 156.332 
462.654 169.549 156.818 430.62 170.417 155.251 431.281 170.672 155.123 
432.135 170.212 155.224 433.037 170.644 155.413 432.905 170.78 154.841 
433.628 171.008 155.903 432.813 171.1 155.414 472.272 178.401 156.504 
454.399 199.615 155.823 446.135 149.351 157.469 456.427 149.78 156.615 
460.966 153.463 156.516 461.782 155.012 155.912 431.457 159.838 156.46 
461.852 161.561 157.599 430.052 167.709 156.276 430.409 168.979 155.765 
429.745 169.135 156.157 431.173 169.965 155.354 460.075 168.824 157.089 
460.71 169.129 156.733 432.128 170.614 155.396 432.978 170.658 155.783 
433.653 170.759 156.268 433.953 170.811 156.475 433.53 170.884 155.795 
434.196 170.893 156.701 467.739 170.637 157.498 433.005 170.852 155.826 
433.826 170.827 156.537 434.243 170.939 156.804 471.959 173.424 157.479 
429.384 166.235 157.97 458.785 167.792 158.379 426.923 169.559 158.117 
459.077 168.331 158.898 434.398 170.82 157.091 434.81 170.823 157.53 
434.49 170.844 157.222 434.364 170.871 157.08 435.13 170.845 157.912 
435.271 170.825 158.107 434.784 170.867 157.533 475.405 176.28 158.942 
475.118 176.828 158.606 462.268 156.743 158.491 458.591 167.193 158.964 
458.502 166.94 159.491 458.131 167.596 159.938 458.487 167.934 159.342 
458.271 168.225 160.141 458.378 168.377 160.378 459.058 168.434 159.662 
435.02 170.811 157.815 435.405 170.782 158.286 435.67 170.756 158.617 
435.38 170.808 158.236 435.833 170.742 158.831 458.571 168.433 160.189 
434.929 170.824 157.718 435.519 170.785 158.438 435.223 170.82 158.071 
467.952 188.382 157.526 449.39 147.911 160.728 429.209 164.691 159.708 
457.133 167.907 161.514 436.071 170.704 159.139 435.969 170.717 159.009 
[...]
POINT_DATA 2834
SCALARS scalars float
LOOKUP_TABLE default
1 1 1 1 1 1 1 1 1 
1 1 1 1 1 1 1 1 1 
1 1 1 1 1 1 1 1 1 
1 1 1 1 1 1 1 1 1 
1 1 1 1 1 1 1 1 1 
1 1 1 1 1 1 1 1 1 
1 1 1 1 1 1 1 1 1 
1 1 1 1 1 1 1 1 1 
1 1 1 1 1 1 1 1 1 
1 1 1 1 1 1 1 1 1 
1 1 1 1 1 1 1 1 1 
1 1 1 1 1 1 1 1 1 
1 1 1 1 1 1 1 1 1 
1 1 1 1 1 1 1 1 1 
1 1 1 1 1 1 1 1 1 
1 1 1 1 1 1 1 1 1 
1 1 1 1 1 1 1 1 1 
1 1 1 1 1 1 1 1 1 
1 1 1 1 1 1 1 1 1 
1 1 1 1 1 1 1 1 1 
1 1 1 1 1 1 1 1 1 
1 1 1 1 1 1 1 1 1 
1 1 1 1 1 1 1 1 1 
1 1 1 1 1 1 1 1 1 
1 1 1 1 1 1 1 1 1 
1 1 1 1 1 1 1 1 1 
1 1 1 1 1 1 1 1 1 
1 1 1 1 1 1 1 1 1 
1 1 1 1 1 1 1 1 1 
1 1 1 1 1 1 1 1 1 
1 1 1 1 1 1 1 1 1 
1 1 1 1 1 1 1 1 1 
1 1 1 1 1 1 1 1 1 
1 1 1 1 1 1 1 1 1 
1 1 1 1 1 1 1 1 1 
1 1 1 1 1 1 1 1 1 
1 1 1 1 1 1 1 1 1 
1 1 1 1 1 1 1 1 1 
1 1 1 1 1 1 1 1 1 
1 1 1 1 1 1 1 1 1 
1 1 1 1 1 1 1 1 1 
1 1 1 1 1 1 1 1 1 
1 1 1 1 1 1 1 1 1 
1 1 1 1 1 1 1 1 1 
1 1 1 1 1 1 1 1 1 
1 1 1 1 1 1 1 1 1 
1 1 1 1 1 1 1 1 1 
1 1 1 1 1 1 1 1 1 
1 1 1 1 1 1 1 1 1 
1 1 1 1 1 1 1 1 1 
1 1 1 1 1 1 1 1 1 
1 1 1 1 1 1 1 1 1 
1 1 1 1 1 1 1 1 1 
1 1 1 1 1 1 1 1 1 
1 1 1 1 1 1 1 1 1 
1 1 1 1 1 1 1 1 1 
1 1 1 1 1 1 1 1 1 
1 1 1 1 1 1 1 1 1 
1 1 1 1 1 1 1 1 1 
1 1 1 1 1 1 1 1 1 
1 1 1 1 1 1 1 1 1 
1 1 1 1 1 1 1 1 1 
1 1 1 1 1 1 1 1 1 
1 1 1 1 1 1 1 1 1 
1 1 1 1 1 1 1 1 1 
1 1 1 1 1 1 1 1 1 
1 1 1 1 1 1 1 1 1 
1 1 1 1 1 1 1 1 1 
1 1 1 1 1 1 1 1 1 
1 1 1 1 1 1 1 1 1 
1 1 1 1 1 1 1 1 1 
1 1 1 1 1 1 1 1 1 
1 1 1 1 1 1 1 1 1 
1 1 1 1 1 1 1 1 1 
1 1 1 1 1 1 1 1 1 
1 1 1 1 1 1 1 1 1 
1 1 1 1 1 1 1 1 1 
1 1 1 1 1 1 1 1 1 
1 1 1 1 1 1 1 1 1 
1 1 1 1 1 1 1 1 1 
1 1 1 1 1 1 1 1 1 
1 1 1 1 1 1 1 1 1 
1 1 1 1 1 1 1 1 1 
1 1 1 1 1 1 1 1 1 
1 1 1 1 1 1 1 1 1 
1 1 1 1 1 1 1 1 1 
1 1 1 1 1 1 1 1 1 
1 1 1 1 1 1 1 1 1 
1 1 1 1 1 1 1 1 1 
1 1 1 1 1 1 1 1 1 
1 1 1 1 1 1 1 1 1 
1 1 1 1 1 1 1 1 1 
1 1 1 1 1 1 1 1 1 
1 1 1 1 1 1 1 1 1 
1 1 1 1 1 1 1 1 1 
1 1 1 1 1 1 1 1 1 
1 1 1 1 1 1 1 1 1 
1 1 1 1 1 1 1 1 1 
1 1 1 1 1 1 1 1 1 
1 1 1 1 1 1 1 1 1 
1 1 1 1 1 1 1 1 1 
1 1 1 1 1 1 1 1 1 
1 1 1 1 1 1 1 1 1 
1 1 1 1 1 1 1 1 1 
1 1 1 1 1 1 1 1 1 
1 1 1 1 1 1 1 1 1 
1 1 1 1 1 1 1 1 1 
1 1 1 1 1 1 1 1 1 
1 1 1 1 1 1 1 1 1 
1 1 1 1 1 1 1 1 1 
1 1 1 1 1 1 1 1 1 
1 1 1 1 1 1 1 1 1 
1 1 1 1 1 1 1 1 1 
1 1 1 1 1 1 1 1 1 
1 1 1 1 1 1 1 1 1 
1 1 1 1 1 1 1 1 1 
1 1 1 1 1 1 1 1 1 
1 1 1 1 1 1 1 1 1 
1 1 1 1 1 1 1 1 1 
1 1 1 1 1 1 1 1 1 
1 1 1 1 1 1 1 1 1 
1 1 1 1 1 1 1 1 1 
1 1 1 1 1 1 1 1 1 
1 1 1 1 1 1 1 1 1 
1 1 1 1 1 1 1 1 1 
1 1 1 1 1 1 1 1 1 
1 1 1 1 1 1 1 1 1 
1 1 1 1 1 1 1 1 1 
1 1 1 1 1 1 1 1 1 
1 1 1 1 1 1 1 1 1 
1 1 1 1 1 1 1 1 1 
1 1 1 1 1 1 1 1 1 
1 1 1 1 1 1 1 1 1 
1 1 1 1 1 1 1 1 1 
1 1 1 1 1 1 1 1 1 
1 1 1 1 1 1 1 1 1 
1 1 1 1 1 1 1 1 1 
1 1 1 1 1 1 1 1 1 
1 1 1 1 1 1 1 1 1 
1 1 1 1 1 1 1 1 1 
1 1 1 1 1 1 1 1 1 
1 1 1 1 1 1 1 1 1 
1 1 1 1 1 1 1 1 1 
1 1 1 1 1 1 1 1 1 
1 1 1 1 1 1 1 1 1 
1 1 1 1 1 1 1 1 1 
1 1 1 1 1 1 1 1 1 
1 1 1 1 1 1 1 1 1 
1 1 1 1 1 1 1 1 1 
1 1 1 1 1 1 1 1 1 
1 1 1 1 1 1 1 1 1 
1 1 1 1 1 1 1 1 1 
1 1 1 1 1 1 1 1 1 
1 1 1 1 1 1 1 1 1 
1 1 1 1 1 1 1 1 1 
1 1 1 1 1 1 1 1 1 
1 1 1 1 1 1 1 1 1 
1 1 1 1 1 1 1 1 1 
1 1 1 1 1 1 1 1 1 
1 1 1 1 1 1 1 1 1 
1 1 1 1 1 1 1 1 1 
1 1 1 1 1 1 1 1 1 
1 1 1 1 1 1 1 1 1 
1 1 1 1 1 1 1 1 1 
1 1 1 1 1 1 1 1 1 
1 1 1 1 1 1 1 1 1 
1 1 1 1 1 1 1 1 1 
1 1 1 1 1 1 1 1 1 
1 1 1 1 1 1 1 1 1 
1 1 1 1 1 1 1 1 1 
1 1 1 1 1 1 1 1 1 
1 1 1 1 1 1 1 1 1 
1 1 1 1 1 1 1 1 1 
1 1 1 1 1 1 1 1 1 
1 1 1 1 1 1 1 1 1 
1 1 1 1 1 1 1 1 1 
1 1 1 1 1 1 1 1 1 
1 1 1 1 1 1 1 1 1 
1 1 1 1 1 1 1 1 1 
1 1 1 1 1 1 1 1 1 
1 1 1 1 1 1 1 1 1 
1 1 1 1 1 1 1 1 1 
1 1 1 1 1 1 1 1 1 
1 1 1 1 1 1 1 1 1 
1 1 1 1 1 1 1 1 1 
1 1 1 1 1 1 1 1 1 
1 1 1 1 1 1 1 1 1 
1 1 1 1 1 1 1 1 1 
1 1 1 1 1 1 1 1 1 
1 1 1 1 1 1 1 1 1 
1 1 1 1 1 1 1 1 1 
1 1 1 1 1 1 1 1 1 
1 1 1 1 1 1 1 1 1 
1 1 1 1 1 1 1 1 1 
1 1 1 1 1 1 1 1 1 
1 1 1 1 1 1 1 1 1 
1 1 1 1 1 1 1 1 1 
1 1 1 1 1 1 1 1 1 
1 1 1 1 1 1 1 1 1 
1 1 1 1 1 1 1 1 1 
1 1 1 1 1 1 1 1 1 
1 1 1 1 1 1 1 1 1 
1 1 1 1 1 1 1 1 1 
1 1 1 1 1 1 1 1 1 
1 1 1 1 1 1 1 1 1 
1 1 1 1 1 1 1 1 1 
1 1 1 1 1 1 1 1 1 
1 1 1 1 1 1 1 1 1 
1 1 1 1 1 1 1 1 1 
1 1 1 1 1 1 1 1 1 
1 1 1 1 1 1 1 1 1 
1 1 1 1 1 1 1 1 1 
1 1 1 1 1 1 1 1 1 
1 1 1 1 1 1 1 1 1 
1 1 1 1 1 1 1 1 1 
1 1 1 1 1 1 1 1 1 
1 1 1 1 1 1 1 1 1 
1 1 1 1 1 1 1 1 1 
1 1 1 1 1 1 1 1 1 
1 1 1 1 1 1 1 1 1 
1 1 1 1 1 1 1 1 1 
1 1 1 1 1 1 1 1 1 
1 1 1 1 1 1 1 1 1 
1 1 1 1 1 1 1 1 1 
1 1 1 1 1 1 1 1 1 
1 1 1 1 1 1 1 1 1 
1 1 1 1 1 1 1 1 1 
1 1 1 1 1 1 1 1 1 
1 1 1 1 1 1 1 1 1 
1 1 1 1 1 1 1 1 1 
1 1 1 1 1 1 1 1 1 
1 1 1 1 1 1 1 1 1 
1 1 1 1 1 1 1 1 1 
1 1 1 1 1 1 1 1 1 
1 1 1 1 1 1 1 1 1 
1 1 1 1 1 1 1 1 1 
1 1 1 1 1 1 1 1 1 
1 1 1 1 1 1 1 1 1 
1 1 1 1 1 1 1 1 1 
1 1 1 1 1 1 1 1 1 
1 1 1 1 1 1 1 1 1 
1 1 1 1 1 1 1 1 1 
1 1 1 1 1 1 1 1 1 
1 1 1 1 1 1 1 1 1 
1 1 1 1 1 1 1 1 1 
1 1 1 1 1 1 1 1 1 
1 1 1 1 1 1 1 1 1 
1 1 1 1 1 1 1 1 1 
1 1 1 1 1 1 1 1 1 
1 1 1 1 1 1 1 1 1 
1 1 1 1 1 1 1 1 1 
1 1 1 1 1 1 1 1 1 
1 1 1 1 1 1 1 1 1 
1 1 1 1 1 1 1 1 1 
1 1 1 1 1 1 1 1 1 
1 1 1 1 1 1 1 1 1 
1 1 1 1 1 1 1 1 1 
1 1 1 1 1 1 1 1 1 
1 1 1 1 1 1 1 1 1 
1 1 1 1 1 1 1 1 1 
1 1 1 1 1 1 1 1 1 
1 1 1 1 1 1 1 1 1 
1 1 1 1 1 1 1 1 1 
1 1 1 1 1 1 1 1 1 
1 1 1 1 1 1 1 1 1 
1 1 1 1 1 1 1 1 1 
1 1 1 1 1 1 1 1 1 
1 1 1 1 1 1 1 1 1 
1 1 1 1 1 1 1 1 1 
1 1 1 1 1 1 1 1 1 
1 1 1 1 1 1 1 1 1 
1 1 1 1 1 1 1 1 1 
1 1 1 1 1 1 1 1 1 
1 1 1 1 1 1 1 1 1 
1 1 1 1 1 1 1 1 1 
1 1 1 1 1 1 1 1 1 
1 1 1 1 1 1 1 1 1 
1 1 1 1 1 1 1 1 1 
1 1 1 1 1 1 1 1 1 
1 1 1 1 1 1 1 1 1 
1 1 1 1 1 1 1 1 1 
1 1 1 1 1 1 1 1 1 
1 1 1 1 1 1 1 1 1 
1 1 1 1 1 1 1 1 1 
1 1 1 1 1 1 1 1 1 
1 1 1 1 1 1 1 1 1 
1 1 1 1 1 1 1 1 1 
1 1 1 1 1 1 1 1 1 
1 1 1 1 1 1 1 1 1 
1 1 1 1 1 1 1 1 1 
1 1 1 1 1 1 1 1 1 
1 1 1 1 1 1 1 1 1 
1 1 1 1 1 1 1 1 1 
1 1 1 1 1 1 1 1 1 
1 1 1 1 1 1 1 1 1 
1 1 1 1 1 1 1 1 1 
1 1 1 1 1 1 1 1 1 
1 1 1 1 1 1 1 1 1 
1 1 1 1 1 1 1 1 1 
1 1 1 1 1 1 1 1 1 
1 1 1 1 1 1 1 1 1 
1 1 1 1 1 1 1 1 1 
1 1 1 1 1 1 1 1 1 
1 1 1 1 1 1 1 1 1 
1 1 1 1 1 1 1 1 1 
1 1 1 1 1 1 1 1 1 
1 1 1 1 1 1 1 1 1 
1 1 1 1 1 1 1 1 1 
1 1 1 1 1 1 1 1 1 
1 1 1 1 1 1 1 1 1 
1 1 1 1 1 1 1 1 1 
1 1 1 1 1 1 1 1 1 
1 1 1 1 1 1 1 1 1 
1 1 1 1 1 1 1 1 1 
1 1 1 1 1 1 1 1 
NORMALS Normals float
-0.364391 0.0976703 -0.92611 -0.351469 0.370826 -0.859626 -0.228429 0.364447 -0.902773 
-0.375655 -0.174278 -0.910226 -0.22808 -0.190939 -0.954737 -0.0757672 -0.0509131 -0.995825 
0.0789797 0.0251743 -0.996558 -0.720552 0.0491554 -0.691656 -0.690103 -0.199822 -0.695578 
-0.051901 0.254406 -0.965704 -0.587241 0.328305 -0.73984 -0.264636 0.546122 -0.794807 
0.0462908 0.51947 -0.853234 -0.0316999 -0.489832 -0.87124 -0.50986 -0.255123 -0.821557 
-0.0954728 -0.287386 -0.953045 -0.736422 0.158211 -0.657763 0.335265 0.169698 -0.926715 
0.171814 0.343858 -0.923169 -0.56892 0.458806 -0.682515 -0.488866 -0.221475 -0.843777 
-0.813902 -0.25284 -0.523102 -0.0312128 -0.186462 -0.981966 -0.671098 -0.0168445 -0.741178 
-0.13955 0.0188577 -0.990035 -0.601865 0.283861 -0.746446 -0.227794 0.178275 -0.95725 
-0.520963 0.448847 -0.72604 -0.228379 0.665456 -0.710642 -0.0907108 0.520773 -0.848862 
0.238806 0.466198 -0.85184 0.112833 -0.346464 -0.931253 0.349029 -0.130153 -0.928029 
-0.797464 -0.140364 -0.586813 -0.356056 0.490248 -0.795538 -0.726545 -0.291761 -0.6221 
-0.842214 -0.322633 -0.431952 -0.488468 -0.437455 -0.755005 -0.872749 0.270724 -0.406223 
0.253511 0.090044 -0.963132 0.398938 0.415332 -0.817525 -0.603184 0.592021 -0.53449 
-0.417998 0.718699 -0.555652 -0.576001 -0.409785 -0.707318 0.345222 0.0376202 -0.937767 
-0.641787 0.188102 -0.743456 0.214433 0.371013 -0.903531 -0.32619 0.309941 -0.893049 
0.124208 0.358751 -0.925133 0.432102 -0.0111656 -0.901756 0.507804 0.288221 -0.811827 
0.485889 0.318079 -0.814087 -0.551368 0.674787 -0.490567 0.258287 -0.531477 -0.806734 
0.448964 -0.276227 -0.849783 0.299097 -0.285849 -0.910402 -0.761129 -0.0579621 -0.646006 
0.17613 0.461853 -0.869293 0.0999962 0.256009 -0.961489 -0.415835 0.156122 -0.895939 
0.196021 0.0678672 -0.978248 -0.211907 -0.1024 -0.97191 -0.220913 0.100248 -0.970128 
-0.114186 0.12439 -0.985641 -0.029934 0.0334083 -0.998993 -0.611548 0.029377 -0.790662 
-0.634825 0.273292 -0.722709 -0.602583 0.515767 -0.608997 -0.321675 0.552338 -0.769057 
-0.875125 0.0127375 -0.483729 -0.553988 0.681978 -0.477496 0.0864655 0.73185 -0.675958 
-0.358032 -0.55495 -0.750895 -0.568128 -0.119957 -0.81415 0.0647562 0.55666 -0.828213 
-0.122533 0.356806 -0.926107 0.127368 0.527805 -0.839761 -0.674427 -0.207866 -0.708477 
-0.453667 -0.151696 -0.878165 -0.344192 -0.225886 -0.911322 -0.213577 0.0945278 -0.972342 
-0.256851 0.428603 -0.866214 -0.342638 0.371141 -0.863049 0.18952 0.195018 -0.962315 
-0.0989297 0.449767 -0.88765 0.0991751 0.673471 -0.73253 -0.698002 -0.0124526 -0.715987 
0.0177805 0.447819 -0.893947 0.188012 -0.116358 -0.97525 0.116937 0.474475 -0.872467 
0.539595 0.185034 -0.82134 -0.752897 0.382296 -0.53572 0.405156 -0.310265 -0.859991 
-0.79643 -0.319169 -0.513644 -0.774285 -0.127004 -0.619962 -0.14587 0.528076 -0.836575 
0.660723 0.489451 -0.569107 -0.358244 0.804033 -0.474544 -0.449001 0.192243 -0.872606 
0.112447 0.30692 -0.945069 -0.427598 0.0648579 -0.901639 -0.627035 0.529388 -0.571468 
-0.413485 0.669405 -0.617193 -0.216646 0.678025 -0.702386 -0.213307 0.75294 -0.62256 
-0.824303 0.181965 -0.536109 -0.890797 -0.0524115 -0.451369 0.564526 0.40641 -0.71843 
-0.391856 0.754137 -0.526998 -0.517972 0.7584 -0.395644 -0.237231 0.821049 -0.519231 
-0.126443 0.9071 -0.401475 -0.00976952 -0.384864 -0.922921 0.0834916 -0.151779 -0.984882 
0.129468 -0.0909706 -0.987402 0.0719534 -0.159549 -0.984564 -0.826585 -0.346903 -0.443188 
0.17323 -0.340967 -0.923977 0.203356 -0.38652 -0.899582 0.307674 -0.238617 -0.921086 
-0.740379 -0.13954 -0.657547 -0.112549 0.958133 0.263277 0.783259 0.617581 0.0714062 
-0.376162 0.762433 0.526496 -0.837921 0.110906 -0.534404 0.434301 -0.458058 -0.775606 
0.156937 -0.167577 -0.973288 -0.493147 0.35475 -0.794329 -0.138162 0.169269 -0.975838 
-0.865939 0.20025 -0.458312 0.437731 0.599607 -0.669973 -0.809836 0.413035 -0.416615 
-0.660877 0.627323 -0.411955 0.135082 0.851494 -0.506667 -0.224549 -0.396365 -0.890209 
-0.17958 -0.362526 -0.914509 -0.266119 -0.480506 -0.83564 -0.0654949 -0.446988 -0.892139 
0.422786 -0.375685 -0.82469 0.472109 -0.267043 -0.84012 -0.678244 -0.28537 -0.677162 
-0.726306 -0.313112 -0.611915 0.246231 0.799677 0.547619 -0.921833 0.314217 0.226918 
-0.169008 -0.711663 -0.681889 0.848066 -0.274642 -0.453163 0.101994 0.34662 -0.932444 
0.367995 0.511495 -0.7765 0.0563741 0.661863 -0.747502 0.139935 0.568319 -0.810822 
0.128959 0.575293 -0.807718 -0.599157 0.655684 -0.459444 -0.29696 0.768551 -0.566695 
-0.922481 0.262696 -0.282878 -0.926057 0.304515 -0.22291 0.440925 0.716907 -0.540027 
-0.801566 0.363973 -0.474358 -0.199953 0.92556 -0.321493 0.00700191 0.943506 -0.331283 
0.220084 -0.341867 -0.913614 -0.185234 -0.617877 -0.764145 -0.336908 -0.453674 -0.825029 
-0.41072 -0.541624 -0.733453 -0.447663 -0.432903 -0.782427 0.172727 -0.338639 -0.924927 
-0.694541 -0.462819 -0.550828 -0.914669 -0.319531 -0.247549 -0.557752 0.630492 0.539808 
-0.660439 0.562325 0.497605 0.0215425 -0.740834 -0.671343 0.448155 0.744728 0.494507 
0.489868 -0.621485 -0.61138 -0.159306 0.661255 -0.733051 0.513792 0.063319 -0.855575 
0.989554 0.125542 -0.0708668 0.0364581 0.694755 -0.718321 -0.675747 0.3101 -0.668734 
0.0785738 0.400897 -0.912748 0.385855 0.443151 -0.809156 0.310751 0.768113 -0.559853 
-0.0689496 0.611801 -0.788001 -0.816279 -0.112194 -0.566659 -0.558853 0.664635 -0.495928 
-0.96339 -0.131237 -0.233786 0.292359 -0.368564 -0.882432 -0.919258 -0.292433 -0.263529 
0.283369 -0.192391 -0.939515 -0.779001 -0.470713 -0.41423 -0.647223 -0.478212 -0.593645 
-0.0216467 0.806414 0.590955 0.874879 -0.266684 -0.404308 -0.440342 0.599389 -0.668456 
-0.468478 0.517129 -0.716314 -0.620984 0.447267 -0.643685 -0.0567449 0.554559 -0.830207 
0.219803 0.605222 -0.76511 0.0904921 0.607598 -0.789073 0.576289 0.498105 -0.647906 
0.183943 0.912729 -0.364817 -0.473779 -0.585684 -0.657653 -0.919767 -0.133159 -0.369185 
-0.0998749 0.654049 -0.74983 -0.354279 0.499513 -0.790552 -0.441095 0.43428 -0.785389 
-0.67879 0.285694 -0.676478 0.0332393 0.42482 -0.904667 -0.732068 0.592892 -0.335493 
-0.653169 0.105566 -0.749817 -0.196807 0.844955 -0.497311 -0.563864 0.303565 -0.768053 
0.410933 0.699337 -0.58486 -0.401658 0.611366 -0.681838 0.154086 -0.545353 -0.823922 
-0.476407 -0.753373 -0.453283 0.443371 -0.252242 -0.860114 0.434879 -0.174145 -0.88349 
-0.776657 -0.396785 -0.48925 0.674791 -0.366965 -0.640308 -0.722926 -0.690224 -0.0311161 
-0.69968 -0.579416 -0.418002 -0.100296 0.132449 -0.986103 -0.280806 0.316627 -0.906032 
-0.018246 0.270747 -0.962478 0.025244 0.848352 -0.528831 -0.305857 0.2179 -0.926807 
-0.465053 0.177512 -0.867304 -0.188789 0.298076 -0.935687 -0.312793 0.176867 -0.933209 
-0.528434 0.140428 -0.83728 0.21364 0.903581 -0.371349 0.3139 -0.488184 -0.814336 
0.713595 -0.173779 -0.678662 0.725903 -0.112553 -0.678525 0.623642 -0.276433 -0.731201 
0.701833 -0.516649 -0.490411 -0.94216 -0.335154 0.00242589 -0.870201 -0.390378 0.30059 
-0.974138 -0.159493 -0.160055 -0.275875 -0.847078 -0.45426 -0.602707 -0.794332 0.0760347 
-0.893233 -0.241651 0.37913 -0.258825 -0.965645 -0.0232024 0.674085 0.327218 -0.662222 
-0.667245 0.0424498 -0.743628 -0.489773 0.816976 -0.304422 0.141459 -0.730769 -0.667807 
-0.135429 -0.78481 -0.604758 -0.808326 -0.439322 -0.391924 0.626569 -0.00605915 -0.779343 
0.81648 0.0208025 -0.576998 -0.996071 0.0883849 -0.00562229 0.551195 -0.484339 -0.679412 
-0.49336 -0.671931 -0.552363 -0.789074 -0.48787 -0.37329 -0.369461 -0.538985 -0.756963 
0.286403 -0.725785 -0.625467 -0.587235 0.142503 -0.796774 0.532544 -0.51156 -0.674316 
-0.374246 -0.838688 0.395654 0.622599 0.114462 -0.774124 -0.973385 -0.00859968 -0.229013 
0.563357 0.653821 -0.505121 -0.248624 0.910277 -0.33103 0.746887 -0.181289 -0.639761 
0.735975 0.00272807 -0.677003 -0.968894 0.09557 -0.228277 0.854981 -0.269734 -0.443002 
-0.646042 -0.691169 -0.323906 0.355258 -0.0744437 -0.931799 -0.0845375 0.382908 -0.91991 
-0.694592 0.426841 0.579093 0.509285 -0.79762 -0.323159 -0.908056 -0.233977 -0.347403 
-0.968002 0.17236 -0.182385 -0.847703 0.498918 -0.180223 -0.562804 0.808639 -0.171329 
0.664896 -0.425477 -0.613908 0.896998 0.0799631 -0.434741 0.853908 0.275665 -0.441417 
0.895445 -0.336513 -0.291438 -0.956023 0.23576 0.174465 0.803273 -0.493842 -0.332974 
-0.961823 0.0143418 0.273296 0.549533 -0.724284 -0.416445 -0.919742 -0.392459 0.00717984 
0.552824 -0.317409 -0.770478 -0.493493 -0.655248 -0.57194 -0.40638 -0.802538 -0.436793 
-0.724559 -0.650487 -0.227775 -0.677061 -0.695547 -0.240422 -0.777247 -0.426412 -0.462666 
0.399665 -0.522413 -0.753228 -0.284962 0.867797 -0.407092 0.239782 -0.862852 -0.444963 
-0.156425 -0.877889 -0.452595 0.864992 0.289098 -0.410136 -0.964071 0.179344 0.195967 
0.696495 -0.654106 -0.295024 -0.990317 0.0175431 0.137713 -0.414462 -0.808032 -0.418694 
0.568629 -0.718522 -0.400483 0.930381 -0.236123 -0.280424 0.977684 -0.0385054 -0.206521 
-0.814088 0.550962 -0.18358 -0.531177 -0.628606 -0.568072 -0.210907 -0.690925 -0.691478 
-0.031289 -0.839353 -0.542686 0.138419 -0.820805 -0.554183 -0.947513 -0.242093 0.208831 
0.689695 -0.181846 -0.700895 0.971378 0.102056 -0.214498 0.979084 0.199469 -0.0400678 
-0.962052 -0.155282 -0.224372 0.996722 0.0282212 -0.0758268 -0.836928 0.317403 -0.445877 
0.897539 -0.439848 -0.0309534 0.77454 -0.611215 -0.162798 -0.648112 0.680239 -0.342382 
0.0240323 -0.663005 -0.748229 -0.649827 0.750583 -0.119793 0.442923 -0.847783 -0.291689 
0.246145 -0.641915 -0.726194 -0.927885 0.135129 0.347518 -0.856841 -0.418143 0.301629 
0.362495 -0.823289 -0.436799 0.50015 -0.662559 -0.557553 -0.369515 -0.91504 -0.161739 
0.64166 -0.514987 -0.568385 0.0367363 -0.929739 -0.366381 0.999737 -0.0159322 -0.0164703 
-0.953663 -0.276273 -0.119162 0.960322 0.276322 -0.0377828 0.997403 0.00270316 0.0719777 
-0.657624 0.45133 -0.603184 -0.429351 0.548369 -0.7176 0.471196 -0.869918 -0.145662 
0.298424 -0.945081 -0.133286 -0.134985 -0.40932 -0.90235 0.109091 -0.486112 -0.86706 
-0.343442 0.726591 -0.595074 -0.466896 0.876899 0.114268 -0.774852 0.595682 0.211583 
-0.812144 -0.31368 0.491963 0.393579 -0.73216 -0.555911 0.65775 -0.0241038 -0.752851 
0.300874 0.936108 -0.182145 -0.298321 -0.912784 -0.278981 0.410904 -0.910629 -0.0437289 
0.818063 -0.556832 -0.143913 0.921605 -0.385882 -0.0417185 -0.772275 -0.598462 -0.213156 
0.887643 0.460082 -0.0203397 -0.818665 -0.0492848 -0.572153 -0.588835 -0.0375377 -0.807381 
-0.385535 -0.443673 -0.809022 -0.189522 0.0771006 -0.978845 0.5216 -0.848613 -0.0882544 
0.270339 -0.957215 -0.103226 0.285089 -0.0982767 -0.953449 0.20752 0.743835 -0.63533 
-0.00558341 0.99032 -0.138688 -0.438282 0.848292 0.29717 -0.775059 0.407157 0.483225 
-0.792645 0.166581 0.586485 0.398213 -0.822622 -0.405856 0.471939 -0.42955 -0.769909 
0.646237 0.264059 -0.715996 -0.39576 -0.900965 0.177863 0.565488 -0.481664 -0.669495 
-0.851282 -0.31753 -0.417725 0.926787 -0.293149 0.234796 -0.686907 -0.462733 -0.560389 
0.380026 -0.910509 0.162955 0.293056 0.913246 -0.283021 -0.279524 0.927973 0.246441 
0.670467 0.43518 -0.60091 0.714401 -0.221524 -0.663746 -0.679527 -0.562397 0.471118 
0.0822221 -0.982032 -0.169862 0.375992 -0.837285 -0.396969 0.651678 -0.154459 -0.742603 
0.63249 0.105682 -0.767325 0.986936 -0.138685 0.0820034 0.934614 0.282771 0.215726 
0.925223 0.279126 0.257003 0.89612 0.202987 0.394672 0.787809 -0.458036 0.411777 
0.62195 -0.703731 0.343427 0.535924 -0.828967 0.159997 -0.189841 -0.981807 -0.00385054 
0.300295 0.93121 -0.206569 0.326507 0.924965 -0.194506 -0.765534 0.205036 0.609851 
-0.68906 -0.554751 0.466312 -0.389695 -0.901237 0.189498 0.293456 -0.946429 0.134742 
0.651421 0.540137 -0.532825 0.287935 -0.900597 -0.325606 0.761364 -0.0656345 -0.644994 
0.624796 0.316984 -0.713548 0.0467823 -0.990864 -0.126488 -0.888179 -0.394867 -0.234984 
0.82606 -0.0345769 0.56252 -0.177067 0.953133 0.245326 0.295024 0.946764 -0.128833 
-0.333888 0.869715 0.363477 -0.145271 0.961422 0.23359 0.179045 -0.98278 0.0456745 
0.341784 -0.844342 -0.412638 0.641749 0.61037 -0.464335 -0.0543897 0.986759 0.152804 
0.240807 0.968926 -0.056515 0.382309 -0.83368 -0.39852 -0.800923 -0.0564539 0.5961 
-0.348006 0.855925 0.382472 -0.805512 -0.0318547 0.591722 -0.784371 -0.310291 0.537105 
-0.806534 -0.0199759 0.590849 0.748772 0.377524 -0.544808 0.517463 -0.705888 -0.483688 
0.688575 0.163805 -0.706422 -0.986808 0.116908 -0.111991 0.589382 0.292192 -0.753162 
0.378664 0.898967 -0.220165 0.773701 -0.623654 0.111548 0.929342 0.291834 0.226179 
-0.25521 0.517724 0.816597 0.692036 0.576344 0.434642 -0.00483239 0.999222 0.0391549 
-0.655156 0.62897 -0.41853 0.810531 0.523061 0.263526 0.277982 -0.537517 0.796117 
0.64183 -0.628522 -0.439335 -0.647445 -0.6053 0.463063 0.0136815 -0.999523 0.0276817 
0.756044 0.0577695 0.651967 0.739277 0.22767 0.633748 0.763464 0.37602 -0.525102 
0.784925 -0.151525 -0.600777 0.780309 -0.181297 -0.598539 0.490531 -0.734929 -0.468251 
0.551715 -0.640172 0.534594 -0.0693677 -0.995601 0.0629749 -0.48701 0.734053 0.473273 
-0.762762 0.245242 0.598373 -0.75816 0.264193 0.59615 -0.787231 0.155188 0.596812 
-0.779616 0.197209 0.594396 -0.507238 0.709864 0.488675 0.797973 -0.0871705 -0.596356 
0.644556 -0.520718 -0.559822 0.702337 -0.293736 -0.648414 0.49185 0.349257 -0.797561 
-0.874153 0.473554 -0.107721 0.930429 -0.215499 0.296415 -0.839231 -0.531137 -0.116557 
0.760158 0.622257 0.186968 0.266608 0.526555 -0.807255 -0.252305 -0.550738 -0.795632 
-0.0089481 -0.969397 -0.245335 0.714297 0.644944 0.271713 0.758772 -0.262371 -0.596177 