# vtk DataFile Version 4.2
vtk output
ASCII
DATASET POLYDATA
POINTS 821 float
83.9949 118.498 196.473 83.9941 118.514 196.531 83.9946 118.504 196.494 
83.994 118.518 196.546 83.9949 118.498 196.473 83.994 118.518 196.544 
83.9943 118.512 196.523 83.9942 118.512 196.525 83.9919 118.56 196.698 
83.9926 118.545 196.64 83.992 118.559 196.695 83.9911 118.574 196.747 
83.9925 118.548 196.655 83.993 118.537 196.615 83.9883 118.633 196.956 
83.9865 118.66 197.041 83.9874 118.648 197.004 83.986 118.669 197.071 
83.9907 118.585 196.785 83.9848 118.701 197.193 83.9751 118.846 197.653 
83.9777 118.804 197.515 83.9739 118.869 197.733 83.9681 118.946 197.967 
83.9686 118.938 197.936 83.9595 119.049 198.265 83.9658 118.971 198.033 
83.9576 119.074 198.339 83.9682 118.948 197.976 83.9557 119.096 198.406 
83.9582 119.065 198.314 83.9547 119.105 198.428 83.9372 119.288 198.941 
83.9453 119.206 198.711 83.9403 119.258 198.86 83.9397 119.27 198.898 
83.9328 119.332 199.065 83.9248 119.408 199.27 83.9067 119.565 199.693 
83.9168 119.476 199.455 83.9126 119.515 199.559 83.9198 119.459 199.414 
83.8928 119.681 200.002 83.8963 119.648 199.914 83.8872 119.719 200.1 
83.8842 119.746 200.172 83.8596 119.91 200.597 83.8747 119.805 200.325 
83.8514 119.969 200.751 83.8614 119.912 200.604 83.8484 119.985 200.791 
83.834 120.074 201.02 83.7984 120.272 201.527 83.8136 120.183 201.301 
83.8065 120.228 201.415 83.8266 120.13 201.165 83.7916 120.321 201.652 
83.7777 120.381 201.805 83.7546 120.483 202.068 83.756 120.489 202.082 
83.7149 120.661 202.525 83.735 120.567 202.286 83.7425 120.552 202.244 
83.6745 120.821 202.941 83.6891 120.764 202.793 83.6566 120.876 203.091 
83.646 120.928 203.222 83.5998 121.071 203.607 83.6223 120.994 203.403 
83.5628 121.185 203.916 83.5768 121.149 203.815 83.5928 121.1 203.681 
83.5416 121.242 204.077 83.4714 121.42 204.584 83.442 121.498 204.8 
83.4837 121.409 204.535 83.4724 121.433 204.607 83.3983 121.588 205.078 
83.3909 121.622 205.156 83.3131 121.766 205.613 83.2523 121.874 205.958 
83.361 121.666 205.312 83.3214 121.743 205.551 83.3934 121.613 205.136 
83.1865 121.96 206.28 83.1766 121.975 206.328 83.2216 121.891 206.07 
83.1987 121.962 206.247 83.0714 122.104 206.813 83.1201 122.044 206.599 
83.0165 122.141 207.021 83.0307 122.121 206.961 83.0106 122.142 207.042 
82.8694 122.28 207.615 82.9151 122.274 207.489 82.2209 122.567 209.734 
82.1549 122.592 209.884 83.0159 122.148 207.045 82.2617 122.548 209.62 
82.8497 122.263 207.659 82.7135 122.357 208.129 82.862 122.264 207.634 
82.77 122.342 207.992 82.517 122.507 208.819 82.831 122.325 207.776 
82.6404 122.44 208.459 81.9911 122.586 210.377 82.4399 122.482 209.057 
82.1717 122.561 209.893 82.2341 122.576 209.771 82.3178 122.557 209.392 
82.6006 122.426 208.573 82.5764 122.471 208.696 82.1385 122.753 210.027 
82.1802 122.738 209.994 82.4173 122.575 209.233 81.9568 122.896 210.644 
81.8981 122.585 210.642 81.8736 122.583 210.716 81.6529 122.667 211.067 
81.9068 122.597 210.651 81.7054 122.873 211.011 81.7027 122.995 211.174 
81.8578 122.965 211.101 81.6619 123.112 211.457 81.0527 122.518 212.242 
81.7951 122.584 210.886 80.9209 122.419 212.657 81.2423 122.646 211.843 
81.4807 122.583 211.592 81.6572 123.109 211.927 81.5643 123.287 212.107 
81.3366 123.577 212.724 80.1776 122.202 213.617 80.3961 122.223 213.381 
81.0467 123.89 213.34 81.2487 123.756 213.216 79.8638 122.359 213.883 
81.0933 122.743 213.415 81.376 122.934 212.815 80.6355 123.897 213.514 
81.2711 123.744 213.427 80.8596 124.35 214.19 79.6866 122.149 214.498 
80.1741 122.152 214.085 80.6488 122.729 214.653 79.4299 123.293 214.472 
81.035 122.911 213.87 79.6682 124.103 214.524 81.1711 123.913 214.01 
80.9773 124.351 214.518 80.2191 125.25 215.148 79.1955 122.284 215.161 
79.8388 122.132 214.773 80.9254 123.941 215.106 78.8271 124.604 215.544 
81.0577 124.166 214.585 79.0695 125.365 215.707 79.8044 125.124 215.16 
79.2854 125.588 215.724 80.5923 125.369 215.919 79.6706 125.997 215.958 
80.1864 126.054 216.162 78.7866 122.508 215.641 80.0318 122.366 215.16 
79.9656 122.568 215.652 77.6561 125.363 216.986 77.5074 126.636 217.365 
77.6611 126.969 217.385 80.2642 126.405 216.984 78.4489 122.373 216.31 
78.3735 122.457 216.381 78.5349 122.35 216.251 78.796 122.336 216.085 
77.9866 123.202 216.746 79.3389 122.334 216.057 79.3921 122.46 216.299 
77.1288 126.566 217.806 80.3459 126.254 217.439 77.3232 127.525 217.916 
76.5856 128.076 218.812 76.694 128.097 218.675 76.5477 128.51 219.004 
76.7326 128.284 218.702 76.8673 128.391 218.688 78.4487 122.41 216.422 
78.5478 122.58 217.06 78.8207 122.527 216.867 79.3195 122.637 216.634 
77.0929 125.534 218.073 80.3919 125.265 217.299 80.3139 126.23 217.84 
80.2248 126.395 218.149 76.3836 128.374 219.288 79.1464 128.314 218.213 
79.8609 127.877 218.343 76.4682 129.015 219.486 79.6678 128.409 218.697 
79.4922 128.775 218.96 78.0366 122.912 217.315 77.9323 123.122 217.27 
78.3176 122.624 217.204 78.2837 122.68 217.353 78.2984 122.792 217.434 
80.1572 124.373 217.253 79.9252 124.505 217.621 80.2708 125.023 217.487 
80.1211 125.127 217.783 80.2518 125.673 217.826 80.0258 127.491 218.725 
79.9576 127.881 218.701 76.1115 129.506 220.039 76.2848 129.533 219.965 
76.6134 129.485 219.823 79.5079 128.938 219.262 77.9667 123.201 217.536 
78.2125 122.779 217.396 77.8372 124.048 218.207 77.9212 124.225 218.411 
77.2879 125.354 218.717 78.6003 125.047 218.939 79.8471 124.983 217.991 
76.6793 127.145 219.245 79.698 125.498 218.429 79.9635 127.323 218.983 
79.8867 127.443 219.217 79.892 128.161 219.199 76.0902 129.135 220.015 
79.7814 128.559 219.263 76.0413 129.348 220.141 76.123 129.626 220.097 
76.0523 129.619 220.168 76.4211 129.628 220.069 78.2739 129.419 219.621 
78.6551 129.353 219.515 76.1022 129.684 220.163 77.6968 124.488 218.462 
77.982 125.193 219.099 78.2772 124.981 219.022 78.1543 125.11 219.146 
78.339 125.232 219.174 78.1728 125.223 219.206 78.2106 125.546 219.324 
78.9042 126.804 219.733 76.265 128.526 220.158 79.5842 127.798 219.726 
76.2055 128.74 220.217 79.8519 128.126 219.487 79.7441 128.289 219.719 
76.1388 128.861 220.146 76.0949 129.12 220.168 79.81 128.379 219.573 
79.7382 128.648 219.578 76.0756 129.383 220.257 76.0345 129.526 220.218 
79.603 128.958 219.748 76.0687 129.643 220.252 76.1857 129.695 220.183 
77.0864 129.556 220.076 76.0838 129.691 220.213 79.1341 129.388 219.93 
78.227 125.119 219.161 77.1573 127.439 220.048 77.4675 127.159 220.01 
76.6667 128.079 220.148 78.3856 127.147 220.03 79.4028 128.008 219.928 
76.2864 128.818 220.308 79.5919 128.427 219.896 76.1737 129.416 220.332 
76.0993 129.544 220.296 79.4795 129.092 219.934 76.1692 129.636 220.296 
76.1407 129.69 220.248 76.3059 129.609 220.32 78.4624 129.357 220.074 
78.8708 129.316 220.104 79.3976 129.242 219.97 79.2794 129.291 220.044 
79.3457 129.19 220.046 79.1195 129.349 220.039 77.2476 128.11 220.32 
78.1567 127.602 220.191 76.7947 128.707 220.406 77.5705 128.354 220.379 
78.0593 128.16 220.314 76.3397 129.016 220.354 76.6235 128.986 220.407 
79.4714 128.67 219.987 78.6737 129.128 220.206 76.9657 128.469 236.887 
76.8259 128.24 236.987 77.204 128.375 236.81 77.1784 128.081 236.829 
77.9675 128.463 236.82 78.0358 128.059 236.831 77.1128 128.928 236.943 
78.2901 128.689 236.919 78.7267 128.551 237.015 79.0448 128.198 237.149 
79.2643 128.453 237.25 76.7779 129.13 237.121 77.3593 129.103 237.012 
78.1863 128.972 237.01 78.9707 128.789 237.157 79.2475 128.679 237.27 
76.8917 129.263 237.195 78.4984 129.1 237.186 77.5958 125.613 237.719 
77.8778 125.492 237.746 78.4851 125.862 237.674 77.3497 127.124 237.042 
77.5378 127.298 236.969 77.6352 127.932 236.794 79.1628 127.502 237.318 
79.6035 128.247 237.613 76.4439 129.258 237.412 79.4094 128.721 237.441 
76.7292 129.341 237.355 77.0733 129.359 237.326 78.4171 129.231 237.382 
78.7753 129.155 237.377 78.1673 124.771 238.281 76.5237 127.364 237.819 
79.0764 126.376 237.685 79.3567 126.944 237.641 76.2929 128.454 237.58 
76.3353 128.971 237.501 76.2398 129.334 237.562 76.3086 129.398 237.517 
76.2411 129.415 237.576 76.5302 129.411 237.521 76.3411 129.461 237.535 
77.2806 129.382 237.489 77.7184 129.334 237.613 79.4135 129.033 237.707 
76.2773 129.463 237.554 79.3923 129.119 237.8 79.5259 129.007 237.884 
78.2131 122.646 239.81 78.1486 122.8 239.634 78.3646 122.551 239.892 
78.1766 123.077 239.446 78.0507 122.939 239.572 78.5362 122.586 239.872 
78.0218 123.63 239.119 79.0224 122.914 239.813 77.7618 124.231 238.786 
77.4965 124.288 239.005 78.7251 123.922 239.021 76.6631 125.929 238.34 
76.6983 125.773 238.546 76.5997 125.995 238.418 76.5994 126.169 238.274 
76.5859 126.603 238.15 80.0799 125.116 239.227 80.1293 125.971 238.888 
76.3311 128.054 237.823 79.8026 127.444 238.024 76.3676 128.845 237.806 
76.2494 129.301 237.63 77.6904 129.265 237.889 77.9058 129.082 238.21 
79.8396 128.5 238.334 76.2749 129.377 237.636 76.3606 129.455 237.58 
79.6358 128.871 238.112 76.279 129.446 237.596 78.0919 122.777 239.725 
78.3251 122.532 240.024 78.5253 122.433 240.133 78.6682 122.433 240.083 
78.7051 122.521 239.979 76.6216 125.955 238.546 80.2657 124.827 239.633 
76.6218 127.095 238.521 80.177 127.464 239.038 76.3714 129.205 237.74 
76.6459 129.237 237.819 77.4389 128.946 238.29 79.6896 128.622 238.757 
79.8839 128.472 238.662 79.7707 128.655 238.63 78.4498 122.499 240.365 
78.6696 122.347 240.442 78.8776 122.272 240.512 78.7647 122.333 240.331 
79.6161 123.034 240.245 80.6921 124.906 240.495 77.0046 127.976 238.788 
77.1645 128.598 238.492 77.4364 128.244 238.88 78.5473 128.53 238.953 
79.0339 128.425 239.105 79.5281 128.04 239.519 79.8338 128.494 238.809 
78.8167 122.284 240.561 78.0073 123.47 240.664 80.5023 123.174 241.507 
79.5916 126.91 240.612 79.9087 127.964 239.375 78.3815 122.852 240.975 
78.6673 122.681 241.298 79.0046 122.501 241.513 79.9495 122.476 241.609 
[...]
POINT_DATA 821
SCALARS scalars float
LOOKUP_TABLE default
1 1 1 1 1 1 1 1 1 
1 1 1 1 1 1 1 1 1 
1 1 1 1 1 1 1 1 1 
1 1 1 1 1 1 1 1 1 
1 1 1 1 1 1 1 1 1 
1 1 1 1 1 1 1 1 1 
1 1 1 1 1 1 1 1 1 
1 1 1 1 1 1 1 1 1 
1 1 1 1 1 1 1 1 1 
1 1 1 1 1 1 1 1 1 
1 1 1 1 1 1 1 1 1 
1 1 1 1 1 1 1 1 1 
1 1 1 1 1 1 1 1 1 
1 1 1 1 1 1 1 1 1 
1 1 1 1 1 1 1 1 1 
1 1 1 1 1 1 1 1 1 
1 1 1 1 1 1 1 1 1 
1 1 1 1 1 1 1 1 1 
1 1 1 1 1 1 1 1 1 
1 1 1 1 1 1 1 1 1 
1 1 1 1 1 1 1 1 1 
1 1 1 1 1 1 1 1 1 
1 1 1 1 1 1 1 1 1 
1 1 1 1 1 1 1 1 1 
1 1 1 1 1 1 1 1 1 
1 1 1 1 1 1 1 1 1 
1 1 1 1 1 1 1 1 1 
1 1 1 1 1 1 1 1 1 
1 1 1 1 1 1 1 1 1 
1 1 1 1 1 1 1 1 1 
1 1 1 1 1 1 1 1 1 
1 1 1 1 1 1 1 1 1 
1 1 1 1 1 1 1 1 1 
1 1 1 1 1 1 1 1 1 
1 1 1 1 1 1 1 1 1 
1 1 1 1 1 1 1 1 1 
1 1 1 1 1 1 1 1 1 
1 1 1 1 1 1 1 1 1 
1 1 1 1 1 1 1 1 1 
1 1 1 1 1 1 1 1 1 
1 1 1 1 1 1 1 1 1 
1 1 1 1 1 1 1 1 1 
1 1 1 1 1 1 1 1 1 
1 1 1 1 1 1 1 1 1 
1 1 1 1 1 1 1 1 1 
1 1 1 1 1 1 1 1 1 
1 1 1 1 1 1 1 1 1 
1 1 1 1 1 1 1 1 1 
1 1 1 1 1 1 1 1 1 
1 1 1 1 1 1 1 1 1 
1 1 1 1 1 1 1 1 1 
1 1 1 1 1 1 1 1 1 
1 1 1 1 1 1 1 1 1 
1 1 1 1 1 1 1 1 1 
1 1 1 1 1 1 1 1 1 
1 1 1 1 1 1 1 1 1 
1 1 1 1 1 1 1 1 1 
1 1 1 1 1 1 1 1 1 
1 1 1 1 1 1 1 1 1 
1 1 1 1 1 1 1 1 1 
1 1 1 1 1 1 1 1 1 
1 1 1 1 1 1 1 1 1 
1 1 1 1 1 1 1 1 1 
1 1 1 1 1 1 1 1 1 
1 1 1 1 1 1 1 1 1 
1 1 1 1 1 1 1 1 1 
1 1 1 1 1 1 1 1 1 
1 1 1 1 1 1 1 1 1 
1 1 1 1 1 1 1 1 1 
1 1 1 1 1 1 1 1 1 
1 1 1 1 1 1 1 1 1 
1 1 1 1 1 1 1 1 1 
1 1 1 1 1 1 1 1 1 
1 1 1 1 1 1 1 1 1 
1 1 1 1 1 1 1 1 1 
1 1 1 1 1 1 1 1 1 
1 1 1 1 1 1 1 1 1 
1 1 1 1 1 1 1 1 1 
1 1 1 1 1 1 1 1 1 
1 1 1 1 1 1 1 1 1 
1 1 1 1 1 1 1 1 1 
1 1 1 1 1 1 1 1 1 
1 1 1 1 1 1 1 1 1 
1 1 1 1 1 1 1 1 1 
1 1 1 1 1 1 1 1 1 
1 1 1 1 1 1 1 1 1 
1 1 1 1 1 1 1 1 1 
1 1 1 1 1 1 1 1 1 
1 1 1 1 1 1 1 1 1 
1 1 1 1 1 1 1 1 1 
1 1 1 1 1 1 1 1 1 
1 1 
NORMALS Normals float
-0.997235 0.0678776 -0.030262 -0.975807 -0.213666 0.0463478 -0.975895 -0.213285 0.0462377 
-0.999871 -0.01308 -0.0093484 0.853556 0.506372 -0.122594 0.988183 0.150579 -0.0286365 
-0.79058 0.588026 -0.170906 0.389865 0.889343 -0.238903 -0.980162 -0.193959 0.0407808 
-0.974556 -0.218972 0.0478656 -0.975343 0.209056 -0.0707246 0.989947 0.13923 -0.0249164 
-0.327788 0.909383 -0.256083 0.921044 0.378305 -0.0925399 -0.983075 -0.179496 0.0366822 
-0.980702 -0.19136 0.0400732 0.979506 0.197076 -0.0415722 0.991228 0.130329 -0.0219216 
0.97959 0.196643 -0.0416535 -0.98153 -0.187345 0.0387447 -0.977331 -0.206967 0.0446062 
0.964715 0.256389 -0.0599231 0.982956 0.180214 -0.0363486 -0.98362 -0.177188 0.0331093 
-0.976115 0.196742 -0.0921559 0.723936 0.65902 -0.203982 -0.955028 -0.287857 0.0711286 
-0.428139 0.850865 -0.30451 0.974995 0.217204 -0.0469783 -0.903713 -0.41203 0.116341 
-0.934144 -0.344887 0.0917999 0.956674 0.282777 -0.0693646 -0.976539 -0.21113 0.0423821 
0.947893 0.308852 -0.0781672 0.824455 0.541549 -0.16431 -0.853361 -0.499375 0.149661 
-0.859042 -0.49053 0.146381 0.854079 0.498246 -0.149332 -0.872909 -0.468239 0.137049 
0.840042 0.519332 -0.156921 0.780556 0.596165 -0.187935 -0.729645 -0.65027 0.211582 
-0.500651 -0.816999 0.286115 -0.634942 -0.732064 0.246843 0.667309 0.706451 -0.235851 
-0.714008 -0.665479 0.217556 0.520735 0.80617 -0.280937 -0.614133 -0.747357 0.253572 
0.515757 0.808901 -0.282267 -0.380379 -0.869732 0.31445 -0.385415 -0.867841 0.31354 
0.22136 0.913319 -0.34183 -0.282387 -0.900047 0.331923 0.225198 0.913173 -0.339707 
0.435895 0.847982 -0.301533 -0.162722 -0.922618 0.349712 0.0214858 -0.930514 0.365626 
0.028592 -0.930076 0.366254 -0.237827 0.897891 -0.370446 0.381025 -0.850401 0.362819 
-0.210673 0.904866 -0.369911 0.293638 -0.881956 0.368686 0.131501 -0.919694 0.369959 
-0.449988 0.817643 -0.359125 -0.406369 0.838521 -0.362969 -0.528104 0.773813 -0.349741 
0.627882 -0.701708 0.336706 -0.497924 0.791986 -0.353313 0.576805 -0.741449 0.342854 
0.875387 -0.407876 0.259488 -0.618668 0.709877 -0.336637 -0.631482 0.699919 -0.333683 
-0.684032 0.653635 -0.323823 -0.636492 0.69576 -0.33286 0.760046 -0.572606 0.307332 
0.106573 -0.935713 0.336279 0.492284 -0.798308 0.346931 -0.735256 0.600133 -0.315021 
0.642265 -0.69145 0.330745 -0.176433 -0.947182 0.267801 0.256543 -0.908321 0.330361 
-0.567826 0.75036 -0.338428 0.856091 -0.431709 0.28414 0.176556 -0.923974 0.339265 
-0.975571 0.0592392 -0.211548 -0.955971 0.167587 -0.240904 -0.621365 0.716664 -0.316698 
0.849642 -0.436435 0.296027 -0.757253 0.572645 -0.314079 0.475246 -0.824703 0.306605 
-0.466267 -0.882382 0.0632273 -0.281616 0.915284 -0.288006 0.950655 0.260375 0.168701 
0.967852 0.0399699 0.248326 0.609631 -0.721735 0.327795 -0.723284 -0.663816 -0.190286 
-0.769604 -0.595485 -0.230449 -0.793035 0.524449 -0.309917 -0.841881 -0.49648 -0.211529 
-0.459013 -0.887727 0.0353324 -0.907431 -0.373739 -0.192061 0.906897 -0.303434 0.292345 
0.964947 -0.0268385 0.261068 -0.469966 0.826988 -0.308581 -0.70397 0.633652 -0.320798 
0.735575 0.672351 0.0829047 -0.388353 -0.911409 -0.136073 -0.944518 -0.19616 -0.263451 
-0.43511 -0.894767 -0.100356 0.651394 -0.706623 0.276352 -0.909128 -0.320175 -0.266408 
0.744687 -0.593715 0.304866 0.937437 -0.191912 0.290485 -0.229339 0.930671 -0.285052 
0.687158 0.724615 0.0524181 0.826085 0.544862 0.143904 0.153524 0.97063 -0.185222 
0.341617 -0.934218 0.10264 0.582673 -0.781515 0.222995 -0.866634 -0.299143 -0.399324 
0.676438 -0.681865 0.278372 -0.864233 0.299682 -0.404094 -0.63848 0.6818 -0.357061 
0.846539 0.522627 0.10116 -0.0573079 0.942465 -0.329355 -0.392305 -0.829535 -0.397454 
0.375306 -0.911465 0.168453 0.25781 -0.961579 -0.0943336 -0.77587 -0.232629 -0.586438 
-0.0517957 -0.992938 -0.106733 0.974895 0.10833 0.194535 0.677019 0.730551 -0.0891083 
0.578151 0.795161 -0.182923 -0.386311 -0.842312 -0.375866 -0.076475 -0.965604 -0.248517 
0.235996 0.891186 -0.387419 0.682356 0.712062 -0.165401 -0.818522 -0.3658 -0.442959 
0.8171 -0.52687 0.233999 0.873937 -0.399457 0.27689 -0.543363 0.667597 -0.50899 
0.908596 0.415533 0.0422641 0.693169 0.683154 -0.229819 -0.327931 -0.934237 -0.140224 
0.402241 -0.908969 0.109445 0.748712 -0.564255 0.347917 -0.870543 0.106949 -0.48033 
0.840777 -0.472281 0.264661 -0.546846 0.58652 -0.597456 0.965319 0.246126 0.0870736 
0.866318 0.499393 -0.00998109 -0.174841 0.677231 -0.714695 -0.661883 -0.680975 -0.313342 
0.223399 -0.952311 0.207838 0.925718 -0.171765 0.336961 -0.831892 0.149375 -0.534456 
0.932234 0.287006 0.220379 -0.655927 0.400045 -0.640097 -0.48576 0.470872 -0.736422 
-0.426492 0.661251 -0.617132 0.951913 0.30616 -0.0113067 -0.215104 0.735109 -0.642919 
0.591009 0.691067 -0.416095 -0.736776 -0.52493 -0.426156 0.62289 -0.690232 0.368222 
0.604174 -0.68214 0.411896 -0.853256 -0.0303149 -0.52061 -0.524969 0.243893 -0.815429 
-0.310591 0.31907 -0.895393 0.804452 0.525515 -0.27693 -0.68869 -0.593785 -0.416084 
-0.811984 -0.569227 -0.129086 -0.51312 0.222793 -0.828897 -0.266036 -0.96011 -0.0861063 
-0.893 -0.124772 -0.432415 0.176527 -0.939047 0.295006 0.553467 -0.669288 0.495709 
-0.816169 0.0822629 -0.571928 0.982882 0.172045 0.065913 -0.538729 0.359939 -0.761719 
-0.82126 0.108489 -0.560145 -0.621933 0.200089 -0.757076 -0.718693 0.343389 -0.604619 
-0.596223 0.304694 -0.742752 -0.358587 0.528129 -0.769737 -0.22994 -0.936399 0.265112 
0.176435 -0.873858 0.453037 0.199808 -0.880319 0.43025 0.507292 -0.663918 0.549425 
-0.935908 -0.168736 -0.309198 0.948402 -0.0950341 0.302495 0.984655 0.035865 0.170787 
0.861121 -0.0882653 0.500679 -0.949306 -0.0725886 -0.305856 0.154075 0.699044 -0.698282 
0.736268 0.504334 -0.451172 -0.547286 0.4871 -0.680597 0.725157 0.537896 -0.429901 
0.345606 0.719688 -0.602168 -0.785003 -0.60338 0.140368 -0.924148 -0.368518 0.10072 
-0.463965 -0.859784 0.213327 -0.153928 -0.804835 0.57319 0.174728 -0.613833 0.769857 
0.756387 -0.42262 0.499272 0.588689 -0.467538 0.659434 0.808142 -0.313455 0.49865 
0.791703 -0.270676 0.547669 0.877212 -0.179718 0.445197 0.987419 0.12626 0.0951908 
0.933306 0.322919 -0.157047 -0.613203 0.280083 -0.738604 -0.241044 0.586331 -0.773378 
-0.213439 0.660603 -0.719755 0.547056 0.767347 -0.334527 -0.702894 -0.487496 0.517965 
-0.581297 -0.621416 0.525296 -0.460246 -0.652131 0.60241 -0.128807 -0.605208 0.785577 
-0.614341 -0.472265 0.632101 0.463086 -0.389425 0.796178 0.66307 -0.379955 0.644959 
-0.917023 -0.362168 0.167044 0.596029 -0.302464 0.743818 0.725219 -0.414475 0.549789 
0.869915 -0.257864 0.420422 0.978807 0.201211 0.0380964 -0.94178 -0.0464269 -0.333008 
0.864914 0.466667 -0.184788 -0.995582 -0.0931606 -0.0117469 -0.488095 0.512152 -0.706728 
-0.891761 0.294324 -0.343708 0.0660308 0.945925 -0.317593 0.0596919 0.951765 -0.300965 
0.155313 0.966287 -0.205347 -0.305389 0.788848 -0.533345 -0.600611 -0.497664 0.625778 
-0.472729 -0.417884 0.775822 0.149349 -0.687476 0.710684 -0.281273 -0.619311 0.733034 
0.365876 -0.3857 0.846977 -0.121394 -0.36326 0.923745 -0.0589803 -0.206652 0.976635 
0.298263 -0.363101 0.882721 -0.588392 -0.455289 0.668212 0.496465 -0.435253 0.751051 
-0.751039 -0.194248 0.631037 0.92151 -0.0687302 0.382224 0.784171 -0.0886442 0.614181 
-0.956625 -0.271096 0.106655 -0.889479 -0.215667 0.402884 0.923896 0.169501 0.343054 
0.92956 0.303819 0.208833 -0.774708 -0.172112 0.608444 -0.947433 0.0285101 0.318681 
0.890047 0.441299 0.114332 -0.701099 0.398153 0.591552 0.0815733 0.994517 -0.0654304 
0.169592 0.968906 0.180168 -0.524145 0.848848 0.0687694 0.212527 0.974104 0.077162 
0.126587 -0.525574 0.841278 -0.153619 -0.362961 0.919054 -0.177917 -0.465982 0.866721 
-0.47965 -0.420404 0.770192 0.0872713 -0.340674 0.936122 0.468826 -0.242831 0.849256 
-0.248864 -0.299937 0.920926 0.600014 -0.00204472 0.799987 -0.444523 -0.0886167 0.891373 
-0.493049 0.0803703 0.866281 0.799779 0.173455 0.574688 -0.212449 0.421667 0.881511 
0.0040281 0.884485 0.466551 0.097448 0.433908 0.895671 0.0786374 0.899043 0.43074 
0.0560129 0.709956 0.702015 0.675601 0.698236 0.236706 0.397238 0.587921 0.704663 
0.426875 0.175598 0.887098 0.218597 0.675513 0.7042 -0.107362 -0.30972 0.944747 
0.229072 -0.212563 0.949917 -0.0248195 -0.0818338 0.996337 0.0656662 -0.104236 0.992382 
0.104158 -0.175075 0.97903 -0.178397 -0.133068 0.974919 -0.000947513 -0.0192826 0.999814 
0.447221 -0.0555261 0.892698 0.178192 0.130674 0.975281 -0.460114 0.0817119 -0.884092 
-0.615766 -0.193125 -0.763894 -0.159171 0.0760788 -0.984315 -0.184401 -0.0838637 -0.979267 
0.0674119 0.145486 -0.987061 0.181855 -0.0370913 -0.982625 -0.152554 0.357795 -0.921254 
0.245937 0.242701 -0.938409 0.303076 0.088379 -0.94886 0.477611 -0.13293 -0.868457 
0.567427 0.02801 -0.822947 -0.370426 0.460314 -0.806781 0.0315109 0.5483 -0.835688 
0.13866 0.44864 -0.88289 0.397764 0.360398 -0.84374 0.521653 0.4799 -0.70539 
-0.134427 0.69408 -0.707236 0.251399 0.659423 -0.708491 -0.257564 -0.492749 -0.831179 
0.00830542 -0.46956 -0.882861 0.27022 -0.389862 -0.880334 -0.178849 -0.396591 -0.900405 
-0.0895574 -0.349822 -0.932526 0.0774066 -0.172167 -0.982022 0.362673 -0.281814 -0.888284 
0.804708 -0.000419112 -0.59367 -0.521382 0.239865 -0.818918 0.643009 0.371134 -0.669925 
-0.196878 0.83396 -0.51551 0.056089 0.90867 -0.413731 0.152909 0.955429 -0.252534 
0.303904 0.868262 -0.392128 0.147715 -0.585922 -0.796791 -0.928792 -0.246759 -0.276505 
0.580006 -0.377147 -0.722048 0.599009 -0.262821 -0.756381 -0.875945 -0.116715 -0.468079 
-0.955925 -0.0468797 -0.289844 -0.903256 -0.0649921 -0.424152 -0.372787 0.280053 -0.884647 
-0.943072 0.331498 0.0269241 -0.0117084 0.781209 -0.62416 0.0257514 0.834633 -0.550204 
0.0544797 0.983609 -0.171886 0.169507 0.983524 0.0628323 0.637451 0.398209 -0.65961 
-0.430058 0.869533 -0.242821 0.303419 0.952727 -0.0157278 0.841841 0.458873 -0.284147 
-0.192141 -0.797592 -0.571777 -0.195589 -0.684658 -0.702132 -0.155421 -0.869306 -0.469204 
0.137372 -0.552801 -0.821913 -0.493692 -0.562399 -0.663306 0.0756181 -0.722911 -0.686791 
-0.236114 -0.537086 -0.809808 0.479851 -0.605312 -0.635091 -0.331951 -0.596686 -0.730598 
-0.823016 -0.506841 -0.25643 0.341272 -0.490268 -0.801979 -0.687779 -0.436992 -0.579653 
-0.88756 -0.45945 -0.0338037 -0.953776 -0.281648 -0.104818 -0.927274 -0.143224 -0.345903 
-0.919197 -0.173424 -0.353555 0.724704 -0.302831 -0.618948 0.76459 -0.255428 -0.591743 
-0.987716 -0.0622572 0.143325 0.871852 -0.120297 -0.474766 -0.851304 0.0347596 0.523521 
-0.860776 0.057798 0.505692 0.0405705 0.894554 0.445114 0.0071708 0.799872 0.600128 
0.936033 0.276013 -0.21831 -0.554133 0.338541 0.760477 0.0583155 0.971421 0.230086 
0.883599 0.420175 -0.206653 -0.307592 0.669432 0.676201 -0.819007 -0.571443 -0.0517786 
-0.591032 -0.806366 -0.0213278 -0.278375 -0.931572 -0.233841 0.214037 -0.847276 -0.486119 
0.3519 -0.643844 -0.679435 -0.935996 -0.103958 0.33631 0.73714 -0.374071 -0.562756 
-0.890846 0.038993 0.452629 0.971326 0.216058 -0.0992189 -0.377922 0.285901 0.880588 
-0.305632 0.523261 0.795479 -0.108607 0.695933 0.709846 0.172749 0.847028 0.502693 
0.903961 0.422174 0.0679935 0.556378 0.801892 0.217745 -0.671668 -0.703616 0.231919 
-0.463439 -0.884987 0.0449809 0.302731 -0.896064 -0.324691 -0.162054 -0.957357 -0.239177 
0.658816 -0.520527 -0.543151 0.883657 -0.238115 -0.403052 -0.566468 0.329628 0.755288 
-0.256134 0.557323 0.789802 -0.272798 0.564321 0.779181 -0.0607872 0.74194 0.667705 
0.018504 0.78906 0.614038 0.220813 0.758168 0.613533 0.593076 0.638698 0.490231 
-0.4349 -0.883585 0.173609 -0.882844 -0.184467 0.431924 0.745703 -0.516535 -0.420854 
-0.0860682 0.665475 0.741441 0.278709 0.745679 0.605214 -0.736669 -0.615925 0.279203 
-0.733082 -0.555964 0.391785 -0.444426 -0.854095 0.270197 0.540036 -0.81763 -0.199603 
0.667146 -0.605507 -0.433909 0.880442 -0.33764 -0.332899 0.974415 0.174738 -0.141358 
0.0501686 -0.996397 0.0683826 -0.780101 -0.355127 0.515098 -0.68265 0.311557 0.661 
-0.222509 0.727411 0.649124 0.697081 0.644645 0.313863 0.320633 0.763617 0.560431 
-0.0162185 -0.994607 0.10244 -0.79692 -0.180476 0.576496 -0.717159 -0.451986 0.530463 
-0.807149 0.148886 0.571265 -0.51271 0.618872 0.595085 0.0890938 0.840457 0.534505 
-0.558702 -0.734001 0.386127 -0.294256 -0.919101 0.262044 -0.735283 -0.41263 0.537677 
0.872549 -0.370333 -0.318607 0.958932 0.238117 -0.154106 0.609364 0.76551 0.206565 
0.122824 0.913812 0.387119 0.15574 -0.987796 0.00225738 0.810101 -0.496296 -0.312132 
-0.772915 -0.0476537 0.632717 0.970938 -0.0428813 -0.235457 -0.785467 0.250657 0.565873 
0.49544 0.848808 0.184568 -0.318207 0.832198 0.454082 0.481985 -0.852604 -0.201883 
-0.213648 -0.959157 0.185398 0.736453 -0.60805 -0.296499 -0.778606 -0.343833 0.52493 
0.86534 -0.401067 -0.300553 0.412988 -0.902272 -0.123878 0.477985 -0.853263 -0.2085 
-0.904334 0.00924323 0.426725 -0.932555 0.0492607 0.357652 0.639326 0.76654 0.0606473 
-0.881022 0.24029 0.407505 -0.151813 -0.983732 0.096042 0.547635 -0.773655 -0.318674 
0.239789 -0.930502 -0.276888 -0.247979 -0.961032 -0.122165 0.90758 -0.267092 -0.323977 
-0.681067 -0.677025 0.278899 -0.592793 -0.804837 0.02886 0.966203 0.137227 -0.21822 
0.620011 0.781502 0.0695745 -0.238966 -0.951211 -0.195175 -0.44284 -0.892234 -0.0883845 
0.968346 -0.00884917 -0.249457 0.681086 -0.649845 -0.337376 0.964817 0.199 -0.171832 
-0.92247 -0.342813 0.177561 0.972905 0.139582 -0.184319 -0.76803 0.526198 0.365029 
-0.45587 0.80337 0.383118 0.684072 0.727006 0.0592327 -0.976425 -0.00298462 0.215838 
-0.913988 -0.388198 0.118017 -0.125992 -0.962682 -0.239519 0.965166 -0.110037 -0.237373 
-0.961724 -0.212852 0.172571 -0.968807 -0.163618 0.186123 -0.946364 0.185962 0.264221 
0.969462 -0.0795798 -0.231972 -0.935395 -0.335981 0.110242 -0.617442 -0.77498 -0.134802 
0.0398006 -0.945535 -0.323077 -0.0904714 -0.948861 -0.302452 -0.273722 0.896475 0.348437 
-0.828463 -0.55965 -0.0210058 0.755353 -0.566668 -0.329136 0.587796 -0.728446 -0.351941 
-0.936818 0.223524 0.26909 0.239676 -0.904023 -0.353974 -0.354399 0.86484 0.355602 
-0.525609 -0.821196 -0.222197 0.897306 0.441233 0.0124465 0.558075 -0.752149 -0.350463 
-0.583421 0.735119 0.345283 -0.690042 0.638181 0.341419 0.194323 -0.914218 -0.35559 
-0.257503 -0.917026 -0.304556 0.14316 0.93427 0.326566 -0.80931 0.51685 0.279078 
0.458718 -0.81521 -0.353569 0.211966 0.923801 0.318846 0.318223 0.898419 0.302617 
-0.652483 -0.728584 -0.2084 0.353526 0.888245 0.293326 -0.971496 0.183232 0.150408 
-0.0880569 0.93123 0.353635 -0.367754 0.859165 0.355798 -0.356175 -0.886031 -0.296798 
-0.165785 -0.930765 -0.325872 -0.210281 -0.923731 -0.32016 0.368829 0.882288 0.292459 
0.195727 0.926223 0.322183 -0.748448 -0.637428 -0.18306 -0.651332 -0.726162 -0.220126 
0.588416 0.772202 0.239729 0.977685 0.209295 0.018107 -0.673402 -0.708245 -0.211941 
-0.830751 -0.537405 -0.14508 -0.846554 -0.514388 -0.136933 -0.795517 -0.583669 -0.162737 
0.809517 0.566027 0.155868 -0.755392 -0.629995 -0.18025 -0.788159 -0.592675 -0.165956 
-0.779793 -0.602621 -0.16962 0.856221 0.499508 0.13182 0.91283 0.396734 0.0966612 
0.850975 0.507679 0.134549 -0.806948 -0.569438 -0.156767 -0.866329 -0.483185 -0.126517 
-0.91896 -0.383222 -0.0930199 -0.912266 -0.397746 -0.0978246 0.87613 0.466781 0.120466 
0.914553 0.392873 0.0961442 0.91257 0.397107 0.0975811 0.91257 0.397107 0.0975811 
0.915476 0.390865 0.09554 0.922942 0.374196 0.0903084 0.929821 0.358027 0.0851491 
-0.9148 -0.392329 -0.0960124 0.945392 0.317664 0.0729581 0.915104 0.39172 0.0956019 
0.915104 0.39172 0.0956019 0.955278 0.288694 0.0640275 -0.918426 -0.384509 -0.0929878 
0.966335 0.251802 0.0528404 0.963743 0.260876 0.0560656 -0.928425 0.351495 0.120327 
-0.942833 -0.324712 -0.0750195 0.92869 0.360859 0.0855351 -0.974309 -0.220836 -0.0441873 
0.99704 0.076849 0.0021598 0.943581 0.322702 0.0742842 -0.996457 0.0735374 0.0408101 
-0.997804 -0.0662263 0.00117147 0.645763 -0.732501 0.215481 0.987222 -0.14925 0.0558333 
0.980352 0.193062 -0.0404655 0.973018 0.22528 -0.0498478 -0.97109 -0.23296 0.0520926 
0.966508 0.250209 -0.0570789 0.978397 0.20217 -0.0431964 0.978291 0.202419 -0.0444243 
-0.97109 -0.23296 0.0520926 -0.97109 -0.23296 0.0520926 0.978223 0.202951 -0.0434729 
0.860641 0.491427 -0.133402 -0.980609 -0.191906 0.0397149 0.940771 0.328268 -0.0847991 
-0.971662 -0.230543 0.0521871 -0.980528 -0.19229 0.0398617 -0.959504 -0.273746 0.066449 
0.93636 0.339499 -0.0892794 0.93636 0.339499 -0.0892794 -0.983039 -0.180393 0.033068 
0.972154 0.22872 -0.0510259 -0.94261 -0.323142 0.0840621 0.967689 0.245817 -0.0561452 
0.93636 0.339499 -0.0892794 -0.98917 -0.14534 0.0204635 0.847831 0.507959 -0.152185 
-0.883014 -0.45082 0.130567 0.866939 0.478234 -0.140389 0.847831 0.507959 -0.152185 
-0.872909 -0.468239 0.137049 0.780556 0.596165 -0.187935 -0.930312 -0.354706 0.0932891 
-0.941407 -0.326523 0.0844719 0.683771 0.694695 -0.223285 -0.883014 -0.45082 0.130567 
0.840042 0.519332 -0.156921 -0.900819 -0.41795 0.117656 -0.930312 -0.354706 0.0932891 
-0.900819 -0.41795 0.117656 0.846992 0.509058 -0.153182 0.925133 0.366398 -0.0994015 
0.847831 0.507959 -0.152185 -0.872909 -0.468239 0.137049 0.743781 0.636314 -0.20468 
-0.883014 -0.45082 0.130567 0.840042 0.519332 -0.156921 -0.810445 -0.559623 0.173208 
0.780556 0.596165 -0.187935 0.743781 0.636314 -0.20468 -0.853177 -0.499963 0.148747 
0.613207 0.748101 -0.253619 -0.68962 -0.687797 0.226625 -0.900819 -0.41795 0.117656 
0.846992 0.509058 -0.153182 -0.810445 -0.559623 0.173208 -0.767008 -0.611602 0.194013 
0.598033 0.758868 -0.257828 -0.930312 -0.354706 0.0932891 0.846992 0.509058 -0.153182 
-0.758164 -0.621112 0.198512 0.871567 0.470411 -0.138148 0.791008 0.583726 -0.18322 
0.743781 0.636314 -0.20468 -0.68962 -0.687797 0.226625 0.645604 0.724023 -0.242871 
-0.810445 -0.559623 0.173208 0.598033 0.758868 -0.257828 -0.677418 -0.698617 0.230303 
0.600705 0.756797 -0.257705 -0.68962 -0.687797 0.226625 0.645604 0.724023 -0.242871 