# vtk DataFile Version 4.2
vtk output
ASCII
DATASET POLYDATA
POINTS 2274 float
286.178 162.396 112.476 279.442 164.536 111.781 272.57 161.138 112.015 
277.036 161.937 111.79 284.493 162.517 112.273 274.598 166.802 112.188 
270.17 167.172 112.498 279.587 155.925 113.094 270.779 157.697 112.851 
288.894 158.163 113.472 264.796 159.442 113.218 281.665 167.743 112.886 
284.109 168.209 113.666 265.998 169.335 113.78 275.434 169.745 113.11 
284.675 154.367 113.916 258.835 162.273 114.659 290.831 162.569 114.499 
288.518 165.343 114.181 263.838 167.84 113.976 269.844 171.926 114.417 
278.166 172.571 114.841 272.669 153.269 114.462 265.539 153.702 114.712 
293.19 158.205 115.463 293.918 160.819 116.211 255.342 160.816 116.054 
287.582 168.951 115.679 264.749 171.978 115.447 259.676 151.58 116.628 
257.528 156.373 115.54 254.712 157.991 116.399 289.738 167.636 116.311 
282.814 172.269 115.843 261.01 149.256 117.757 267.133 148.781 117.391 
281.334 148.912 116.608 256.136 154.138 116.71 295.973 155.229 117.315 
253.156 156.491 117.535 256.421 166.004 116.612 291.336 167.61 117.689 
254.722 152.473 118.171 297.8 153.005 118.959 296.065 162.461 118.686 
293.226 165.83 118.197 286.745 171.836 117.693 269.654 176.863 117.782 
287.072 144.8 119.252 291.265 146.157 119.077 295.487 150.881 118.449 
296.845 151.531 118.808 298.308 151.974 119.678 299.178 158.329 119.898 
296.605 163.341 119.906 258.094 172.687 118.75 281.017 176.782 119.44 
255.667 149.291 120.218 253.941 150.167 120.575 298.828 150.686 120.64 
252.606 151.481 120.384 248 154.009 120.017 248 154.009 120.017 
248 154.009 120.017 248 154.009 120.017 248 154.009 120.017 
299.22 154.874 119.808 249.81 155.982 120.259 250.811 164.038 119.687 
293.368 143.525 121.396 272.64 144.454 120.794 293.975 144.316 121.061 
262.005 146.297 120.699 267.494 145.15 120.868 256.29 148.684 120.57 
248 154.009 120.018 298.729 160.978 120.594 299.77 159.79 121.301 
252.124 171.25 121.699 285.549 175.161 120.685 273.105 180.546 121.172 
283.256 142.23 121.577 275.582 142.874 122.133 299.955 150.276 121.954 
300.774 154.332 122.09 300.807 157.048 122.33 245 159.009 122.017 
245 159.009 122.017 245 159.009 122.017 245 159.009 122.017 
247.577 158.761 121.987 245 159.009 122.017 300.328 159.7 122.45 
294.982 167.306 122.028 265.496 144.229 122.743 298.951 144.4 124.012 
256.887 147.333 122.458 247.558 154.376 123.659 245 159.009 122.018 
256.032 176.65 122.87 257.872 178.259 123.149 270.826 182.704 123.504 
285.344 140.009 123.826 295.369 141.675 123.698 298.233 141.962 125.043 
299.543 146.076 123.644 300.264 146.974 124.089 249.894 151.218 124.34 
301.495 153.266 124.116 246.962 154.988 124.106 299.406 163.063 124.197 
298.374 164.425 123.788 246.887 166.223 123.933 248.433 170.199 124.282 
262.475 181.844 124.238 292.013 139.253 125.011 264.207 143.468 124.849 
300.495 145.63 125.016 247.347 153.319 125.325 243 157.009 125.017 
243 157.009 125.017 243 157.009 125.017 243 157.009 125.017 
243 157.009 125.017 301.06 159.238 125.114 244.579 162.091 125.357 
279.236 181.774 124.945 300.271 143.695 125.762 301.597 148.459 125.833 
301.643 156.329 126.987 243 157.009 125.018 243.99 159.036 126.476 
300.341 161.852 125.803 291.258 173.605 126.173 286.381 177.699 125.605 
301.474 144.127 127.047 302.13 145.793 127.515 245.378 154.945 127.21 
244.534 166.487 126.632 248.937 174.431 126.763 296.439 137.429 128.895 
247.055 152.753 127.205 302.173 153.191 127.889 269.678 186.649 128.681 
289.186 135.92 129.615 279.624 138.383 128.875 300.591 140.376 128.985 
243.906 155.784 129.377 241.841 160.248 130.084 242.332 167.099 129.938 
266.028 187.012 129.326 281.801 137.52 129.785 241.61 162.444 130.16 
244.913 171.899 129.198 287.487 178.6 129.928 257.477 184.449 129.566 
287.374 135.629 130.825 271.927 139.793 130.637 302.683 142.592 131.072 
303.158 151.14 131.688 241.885 158.047 131.449 298.401 167.559 130.554 
251.491 181.103 130.499 282.152 182.919 130.553 274.685 186.79 131.063 
294.929 135.174 132.357 281.429 137.369 131.498 262.617 140.851 132.234 
255.824 144.636 131.893 302.729 153.615 132.728 240.73 161.284 132.357 
296.048 170.691 131.885 251.314 182.053 131.744 253.558 184.578 132.707 
257.775 186.268 131.762 260.893 187.524 131.827 292.023 134.425 133.162 
289.695 134.834 132.495 281.932 137.27 133.176 278.383 138.37 132.191 
300.769 138.604 132.707 270.703 139.699 132.055 271.864 139.594 133.188 
302.336 140.872 132.56 303.444 144.833 132.269 266.041 189.333 133.677 
270.356 188.99 133.669 285.688 135.857 133.479 284.076 136.644 134.154 
298.015 136.379 133.519 263.885 139.898 133.742 265.471 139.473 134.543 
275.693 139.429 134.138 302.78 141.84 133.648 303.305 150.827 134.498 
243.763 174.351 132.766 292.862 134.546 134.769 293.749 134.578 134.273 
296.801 135.597 134.662 281.236 137.727 134.255 265.674 139.273 135.563 
260.484 140.455 135.548 262.378 139.921 135.146 275.302 139.614 134.543 
275.386 140.154 135.815 303.261 143.647 133.974 303.409 146.321 134.709 
242.976 154.412 134.854 239.295 163.615 135.418 287.011 180.158 134.569 
290.204 134.737 135.172 291.839 134.647 135.24 294.628 135 135.536 
297.364 136.11 135.496 262.729 139.616 136.095 264.194 139.433 135.633 
265.535 139.281 136.093 267.719 139.257 135.658 267.836 139.249 135.905 
270.571 139.734 135.408 271.264 139.903 135.553 273.27 140.377 135.96 
274.278 141.213 137.177 302.968 143.692 135.204 303.253 147.372 135.596 
299.346 166.682 134.463 239.859 169.964 136.021 296.019 171.257 135.799 
241.677 173.732 135.662 259.223 188.941 136.056 262.424 189.944 136.45 
293.485 134.88 135.728 291.383 135.09 136.1 292.728 135.075 136.099 
291.036 135.269 136.279 299.834 137.815 135.553 262.699 139.672 136.298 
268.267 139.347 136.333 283.205 137.99 136.389 301.038 138.997 135.522 
261.786 139.975 136.475 256.596 142.588 136.876 254.858 143.622 136.914 
302.885 144.815 135.932 303.041 151.122 136.236 240.134 171.43 136.659 
243.311 176.74 136.853 245.898 179.992 137.098 247.649 181.692 136.753 
248.587 182.715 137.077 252.815 186.327 137.704 258.684 189.018 137.25 
293.813 135.088 136.009 293.409 135.371 136.422 292.435 135.907 137.061 
296.619 136.109 136.276 298.329 137.233 136.567 298.696 137.452 136.517 
263.832 139.507 136.991 268.05 139.338 136.503 269.933 140.415 137.265 
284.056 138.547 137.438 284.948 138.546 137.778 301.166 139.764 136.429 
279.813 140.081 137.39 260.107 141.021 138.078 302.18 142.36 136.639 
269.519 142.166 138.847 302.25 144.16 137.019 268.972 144.409 139.919 
266.684 146.894 140.683 302.771 147.877 136.978 264.348 148.797 141.054 
262.54 149.739 141.225 302.866 149.892 136.983 257.974 152.721 141.533 
257.825 152.821 141.558 257.95 152.654 141.549 256.83 153.747 141.708 
256.681 153.829 141.764 239.952 158.056 137.689 299.164 167.213 137.392 
298.766 167.85 136.788 256.726 188.385 138.268 288.095 136.991 137.352 
297.153 137.019 137.009 264.92 139.566 137.715 267.554 139.666 137.427 
292.574 137.599 138.407 294.558 138.207 138.54 299.276 139.009 137.481 
301.562 140.756 136.661 301.52 141.66 137.217 300.558 141.682 138.025 
267.655 144.115 140.101 301.819 146.668 138.155 263.247 149.02 141.16 
265.294 148.534 141.125 258.097 152.396 141.636 257.466 153.195 141.676 
257.223 152.93 141.783 257.51 152.786 141.687 256.548 153.759 141.852 
256.255 153.973 141.994 256.701 154.268 141.934 256.096 154.57 142.16 
300.812 163.45 138.813 238.145 164.93 139.513 239.94 172.392 138.746 
265.824 139.803 138.161 267.28 139.944 138.029 268.534 140.878 138.563 
292.444 140.917 139.957 256.023 143.173 139.367 295.966 141.221 139.653 
285.342 141.844 140.212 298.06 142.492 139.509 264.877 146.522 140.85 
270.935 145.404 140.337 268.951 146.566 140.835 261.295 150.11 141.451 
261.861 148.868 141.402 263.525 149.889 141.426 301.742 149.686 138.775 
260.328 150.494 141.571 256.739 154.545 142.075 255.596 155.142 142.529 
253.868 156.445 143.63 253.752 156.627 143.75 255.289 155.453 142.799 
301.572 157.753 140.389 242.676 176.756 140.113 279.82 186.727 138.884 
253.599 186.921 140.121 269.864 190.712 139.893 264.611 190.688 140.343 
263.136 140.422 139.008 263.68 140.801 139.551 265.147 140.966 139.709 
266.168 140.714 139.329 259.074 142.194 139.796 266.273 142.419 140.19 
294.197 143.202 140.632 263.761 146.55 141.131 263.267 146.485 141.292 
299.917 149.788 140.64 301.413 151.091 139.474 300.666 152.249 140.66 
242.112 152.752 141.11 259.263 153.014 142.003 254.995 154.681 142.983 
255.674 155.3 142.587 254.533 155.95 143.296 255.067 156.106 143.18 
301.441 157.323 140.854 253.773 156.981 143.897 237.99 164.575 140.836 
239.261 171.222 140.872 240.268 173.274 141.003 244.178 178.649 140.704 
275.213 189.427 140.532 261.225 142.093 140.493 263.126 141.797 140.407 
264.972 141.924 140.376 267.031 141.406 139.607 261.929 142.408 140.894 
259.833 143.131 141.323 255.922 143.993 141.118 264.244 143.784 141.11 
257.12 144.353 142.033 295.693 146.529 141.471 244.091 149.925 141.606 
299.14 152.833 142.274 256.127 155.635 142.846 300.969 156.129 141.666 
253.163 156.647 144.283 254.739 156.502 143.412 239.305 157.911 141.928 
254.138 157.239 143.929 254.652 156.885 143.669 252.552 157.923 144.991 
252.787 158.076 144.841 238.149 161.549 141.692 300.89 165.173 142.504 
238.199 167.37 141.456 245.247 179.517 142.034 255.995 187.723 141.786 
259.806 189.318 141.869 272.107 190.552 141.439 262.898 142.666 141.107 
261.934 143.565 141.587 264.745 142.855 140.782 254.766 144.567 141.568 
260.058 143.73 141.846 259.979 145.577 142.508 247.601 147.044 143.342 
244.789 148.514 143.595 260.795 146.379 142.245 259.983 146.781 142.564 
259.527 148.263 142.591 255.314 152.875 143.709 252.529 157.095 144.942 
253.954 157.602 144.171 254.172 157.578 144.14 253.034 158.067 144.694 
301.377 162.342 142.786 240.298 172.59 142.647 250.689 184.557 141.632 
[...]
POINT_DATA 2274
SCALARS scalars float
LOOKUP_TABLE default
1 1 1 1 1 1 1 1 1 
1 1 1 1 1 1 1 1 1 
1 1 1 1 1 1 1 1 1 
1 1 1 1 1 1 1 1 1 
1 1 1 1 1 1 1 1 1 
1 1 1 1 1 1 1 1 1 
1 1 1 1 1 1 1 1 1 
1 1 1 1 1 1 1 1 1 
1 1 1 1 1 1 1 1 1 
1 1 1 1 1 1 1 1 1 
1 1 1 1 1 1 1 1 1 
1 1 1 1 1 1 1 1 1 
1 1 1 1 1 1 1 1 1 
1 1 1 1 1 1 1 1 1 
1 1 1 1 1 1 1 1 1 
1 1 1 1 1 1 1 1 1 
1 1 1 1 1 1 1 1 1 
1 1 1 1 1 1 1 1 1 
1 1 1 1 1 1 1 1 1 
1 1 1 1 1 1 1 1 1 
1 1 1 1 1 1 1 1 1 
1 1 1 1 1 1 1 1 1 
1 1 1 1 1 1 1 1 1 
1 1 1 1 1 1 1 1 1 
1 1 1 1 1 1 1 1 1 
1 1 1 1 1 1 1 1 1 
1 1 1 1 1 1 1 1 1 
1 1 1 1 1 1 1 1 1 
1 1 1 1 1 1 1 1 1 
1 1 1 1 1 1 1 1 1 
1 1 1 1 1 1 1 1 1 
1 1 1 1 1 1 1 1 1 
1 1 1 1 1 1 1 1 1 
1 1 1 1 1 1 1 1 1 
1 1 1 1 1 1 1 1 1 
1 1 1 1 1 1 1 1 1 
1 1 1 1 1 1 1 1 1 
1 1 1 1 1 1 1 1 1 
1 1 1 1 1 1 1 1 1 
1 1 1 1 1 1 1 1 1 
1 1 1 1 1 1 1 1 1 
1 1 1 1 1 1 1 1 1 
1 1 1 1 1 1 1 1 1 
1 1 1 1 1 1 1 1 1 
1 1 1 1 1 1 1 1 1 
1 1 1 1 1 1 1 1 1 
1 1 1 1 1 1 1 1 1 
1 1 1 1 1 1 1 1 1 
1 1 1 1 1 1 1 1 1 
1 1 1 1 1 1 1 1 1 
1 1 1 1 1 1 1 1 1 
1 1 1 1 1 1 1 1 1 
1 1 1 1 1 1 1 1 1 
1 1 1 1 1 1 1 1 1 
1 1 1 1 1 1 1 1 1 
1 1 1 1 1 1 1 1 1 
1 1 1 1 1 1 1 1 1 
1 1 1 1 1 1 1 1 1 
1 1 1 1 1 1 1 1 1 
1 1 1 1 1 1 1 1 1 
1 1 1 1 1 1 1 1 1 
1 1 1 1 1 1 1 1 1 
1 1 1 1 1 1 1 1 1 
1 1 1 1 1 1 1 1 1 
1 1 1 1 1 1 1 1 1 
1 1 1 1 1 1 1 1 1 
1 1 1 1 1 1 1 1 1 
1 1 1 1 1 1 1 1 1 
1 1 1 1 1 1 1 1 1 
1 1 1 1 1 1 1 1 1 
1 1 1 1 1 1 1 1 1 
1 1 1 1 1 1 1 1 1 
1 1 1 1 1 1 1 1 1 
1 1 1 1 1 1 1 1 1 
1 1 1 1 1 1 1 1 1 
1 1 1 1 1 1 1 1 1 
1 1 1 1 1 1 1 1 1 
1 1 1 1 1 1 1 1 1 
1 1 1 1 1 1 1 1 1 
1 1 1 1 1 1 1 1 1 
1 1 1 1 1 1 1 1 1 
1 1 1 1 1 1 1 1 1 
1 1 1 1 1 1 1 1 1 
1 1 1 1 1 1 1 1 1 
1 1 1 1 1 1 1 1 1 
1 1 1 1 1 1 1 1 1 
1 1 1 1 1 1 1 1 1 
1 1 1 1 1 1 1 1 1 
1 1 1 1 1 1 1 1 1 
1 1 1 1 1 1 1 1 1 
1 1 1 1 1 1 1 1 1 
1 1 1 1 1 1 1 1 1 
1 1 1 1 1 1 1 1 1 
1 1 1 1 1 1 1 1 1 
1 1 1 1 1 1 1 1 1 
1 1 1 1 1 1 1 1 1 
1 1 1 1 1 1 1 1 1 
1 1 1 1 1 1 1 1 1 
1 1 1 1 1 1 1 1 1 
1 1 1 1 1 1 1 1 1 
1 1 1 1 1 1 1 1 1 
1 1 1 1 1 1 1 1 1 
1 1 1 1 1 1 1 1 1 
1 1 1 1 1 1 1 1 1 
1 1 1 1 1 1 1 1 1 
1 1 1 1 1 1 1 1 1 
1 1 1 1 1 1 1 1 1 
1 1 1 1 1 1 1 1 1 
1 1 1 1 1 1 1 1 1 
1 1 1 1 1 1 1 1 1 
1 1 1 1 1 1 1 1 1 
1 1 1 1 1 1 1 1 1 
1 1 1 1 1 1 1 1 1 
1 1 1 1 1 1 1 1 1 
1 1 1 1 1 1 1 1 1 
1 1 1 1 1 1 1 1 1 
1 1 1 1 1 1 1 1 1 
1 1 1 1 1 1 1 1 1 
1 1 1 1 1 1 1 1 1 
1 1 1 1 1 1 1 1 1 
1 1 1 1 1 1 1 1 1 
1 1 1 1 1 1 1 1 1 
1 1 1 1 1 1 1 1 1 
1 1 1 1 1 1 1 1 1 
1 1 1 1 1 1 1 1 1 
1 1 1 1 1 1 1 1 1 
1 1 1 1 1 1 1 1 1 
1 1 1 1 1 1 1 1 1 
1 1 1 1 1 1 1 1 1 
1 1 1 1 1 1 1 1 1 
1 1 1 1 1 1 1 1 1 
1 1 1 1 1 1 1 1 1 
1 1 1 1 1 1 1 1 1 
1 1 1 1 1 1 1 1 1 
1 1 1 1 1 1 1 1 1 
1 1 1 1 1 1 1 1 1 
1 1 1 1 1 1 1 1 1 
1 1 1 1 1 1 1 1 1 
1 1 1 1 1 1 1 1 1 
1 1 1 1 1 1 1 1 1 
1 1 1 1 1 1 1 1 1 
1 1 1 1 1 1 1 1 1 
1 1 1 1 1 1 1 1 1 
1 1 1 1 1 1 1 1 1 
1 1 1 1 1 1 1 1 1 
1 1 1 1 1 1 1 1 1 
1 1 1 1 1 1 1 1 1 
1 1 1 1 1 1 1 1 1 
1 1 1 1 1 1 1 1 1 
1 1 1 1 1 1 1 1 1 
1 1 1 1 1 1 1 1 1 
1 1 1 1 1 1 1 1 1 
1 1 1 1 1 1 1 1 1 
1 1 1 1 1 1 1 1 1 
1 1 1 1 1 1 1 1 1 
1 1 1 1 1 1 1 1 1 
1 1 1 1 1 1 1 1 1 
1 1 1 1 1 1 1 1 1 
1 1 1 1 1 1 1 1 1 
1 1 1 1 1 1 1 1 1 
1 1 1 1 1 1 1 1 1 
1 1 1 1 1 1 1 1 1 
1 1 1 1 1 1 1 1 1 
1 1 1 1 1 1 1 1 1 
1 1 1 1 1 1 1 1 1 
1 1 1 1 1 1 1 1 1 
1 1 1 1 1 1 1 1 1 
1 1 1 1 1 1 1 1 1 
1 1 1 1 1 1 1 1 1 
1 1 1 1 1 1 1 1 1 
1 1 1 1 1 1 1 1 1 
1 1 1 1 1 1 1 1 1 
1 1 1 1 1 1 1 1 1 
1 1 1 1 1 1 1 1 1 
1 1 1 1 1 1 1 1 1 
1 1 1 1 1 1 1 1 1 
1 1 1 1 1 1 1 1 1 
1 1 1 1 1 1 1 1 1 
1 1 1 1 1 1 1 1 1 
1 1 1 1 1 1 1 1 1 
1 1 1 1 1 1 1 1 1 
1 1 1 1 1 1 1 1 1 
1 1 1 1 1 1 1 1 1 
1 1 1 1 1 1 1 1 1 
1 1 1 1 1 1 1 1 1 
1 1 1 1 1 1 1 1 1 
1 1 1 1 1 1 1 1 1 
1 1 1 1 1 1 1 1 1 
1 1 1 1 1 1 1 1 1 
1 1 1 1 1 1 1 1 1 
1 1 1 1 1 1 1 1 1 
1 1 1 1 1 1 1 1 1 
1 1 1 1 1 1 1 1 1 
1 1 1 1 1 1 1 1 1 
1 1 1 1 1 1 1 1 1 
1 1 1 1 1 1 1 1 1 
1 1 1 1 1 1 1 1 1 
1 1 1 1 1 1 1 1 1 
1 1 1 1 1 1 1 1 1 
1 1 1 1 1 1 1 1 1 
1 1 1 1 1 1 1 1 1 
1 1 1 1 1 1 1 1 1 
1 1 1 1 1 1 1 1 1 
1 1 1 1 1 1 1 1 1 
1 1 1 1 1 1 1 1 1 
1 1 1 1 1 1 1 1 1 
1 1 1 1 1 1 1 1 1 
1 1 1 1 1 1 1 1 1 
1 1 1 1 1 1 1 1 1 
1 1 1 1 1 1 1 1 1 
1 1 1 1 1 1 1 1 1 
1 1 1 1 1 1 1 1 1 
1 1 1 1 1 1 1 1 1 
1 1 1 1 1 1 1 1 1 
1 1 1 1 1 1 1 1 1 
1 1 1 1 1 1 1 1 1 
1 1 1 1 1 1 1 1 1 
1 1 1 1 1 1 1 1 1 
1 1 1 1 1 1 1 1 1 
1 1 1 1 1 1 1 1 1 
1 1 1 1 1 1 1 1 1 
1 1 1 1 1 1 1 1 1 
1 1 1 1 1 1 1 1 1 
1 1 1 1 1 1 1 1 1 
1 1 1 1 1 1 1 1 1 
1 1 1 1 1 1 1 1 1 
1 1 1 1 1 1 1 1 1 
1 1 1 1 1 1 1 1 1 
1 1 1 1 1 1 1 1 1 
1 1 1 1 1 1 1 1 1 
1 1 1 1 1 1 1 1 1 
1 1 1 1 1 1 1 1 1 
1 1 1 1 1 1 1 1 1 
1 1 1 1 1 1 1 1 1 
1 1 1 1 1 1 1 1 1 
1 1 1 1 1 1 1 1 1 
1 1 1 1 1 1 1 1 1 
1 1 1 1 1 1 1 1 1 
1 1 1 1 1 1 1 1 1 
1 1 1 1 1 1 1 1 1 
1 1 1 1 1 1 1 1 1 
1 1 1 1 1 1 1 1 1 
1 1 1 1 1 1 1 1 1 
1 1 1 1 1 1 1 1 1 
1 1 1 1 1 1 1 1 1 
1 1 1 1 1 1 1 1 1 
1 1 1 1 1 1 1 1 1 
1 1 1 1 1 1 1 1 1 
1 1 1 1 1 1 1 1 1 
1 1 1 1 1 1 1 1 1 
1 1 1 1 1 1 1 1 1 
1 1 1 1 1 1 1 1 1 
1 1 1 1 1 1 
NORMALS Normals float
0.269076 0.128543 -0.954502 0.0615766 0.12233 -0.990577 -0.0517885 -0.125146 -0.990786 
0.00356825 -0.072782 -0.997341 0.126044 -0.0129784 -0.99194 -0.0289461 0.205885 -0.978148 
-0.131272 0.176574 -0.975494 0.0273372 -0.324469 -0.945501 -0.0491105 -0.324171 -0.944723 
0.290513 -0.171211 -0.941429 -0.186258 -0.0944683 -0.977949 0.14331 0.346337 -0.927099 
0.265514 0.380418 -0.885881 -0.195261 0.398377 -0.896197 0.0648698 0.402897 -0.912943 
0.112459 -0.328089 -0.937929 -0.329769 0.0668319 -0.941693 0.497755 0.205948 -0.842511 
0.478678 0.363247 -0.799325 -0.306781 0.240255 -0.920958 -0.0760939 0.451957 -0.888788 
0.107259 0.566036 -0.817373 -0.0318169 -0.392084 -0.919379 -0.116734 -0.364214 -0.92397 
0.433885 -0.111813 -0.894003 0.53139 0.266541 -0.804102 -0.451135 0.0634968 -0.890194 
0.468152 0.551548 -0.690383 -0.289527 0.522809 -0.801776 -0.240416 -0.460313 -0.854583 
-0.301411 -0.193482 -0.933657 -0.520102 -0.0361953 -0.853337 0.451305 0.725461 -0.519644 
0.266095 0.553544 -0.789166 -0.23858 -0.678082 -0.695187 -0.0626939 -0.572006 -0.81785 
-0.0254506 -0.54731 -0.836543 -0.461847 -0.2763 -0.842826 0.480178 -0.11769 -0.86924 
-0.531045 -0.200487 -0.823284 -0.459487 0.279541 -0.843047 0.510688 0.679659 -0.526556 
-0.47614 -0.446314 -0.75769 0.577798 -0.195014 -0.792539 0.644936 0.414283 -0.642206 
0.618791 0.440159 -0.65066 0.482286 0.638001 -0.600296 -0.0680097 0.62531 -0.777407 
0.0929631 -0.529725 -0.843059 0.242668 -0.392606 -0.887115 0.34933 -0.394189 -0.850049 
0.478459 -0.412323 -0.775285 0.634893 -0.354856 -0.686285 0.744915 0.151162 -0.649809 
0.647035 0.487492 -0.586257 -0.408779 0.450641 -0.793613 0.293123 0.708628 -0.641813 
-0.413257 -0.669712 -0.617012 -0.548269 -0.693558 -0.46731 0.622531 -0.321449 -0.71353 
-0.637184 -0.501564 -0.585175 0 -0.0429428 -0.999077 -0.892516 -0.446258 -0.0653447 
-0.988713 -0.130529 -0.0735456 0.988713 -0.130529 -0.0735456 0 0.351123 -0.936329 
0.740986 -0.0630376 -0.668555 -0.65941 -0.264261 -0.703807 -0.605809 0.190767 -0.772401 
0.156198 -0.596336 -0.787392 -0.16328 -0.847303 -0.505388 0.399011 -0.459111 -0.79373 
-0.216139 -0.78536 -0.58008 -0.0483345 -0.83544 -0.547453 -0.354912 -0.772208 -0.527003 
0 -0.165267 0.986249 0.746078 0.417889 -0.518397 0.832913 0.283013 -0.475561 
-0.537893 0.440672 -0.718665 0.531396 0.690384 -0.490906 0.119734 0.727901 -0.675147 
-0.0272806 -0.682025 -0.73082 -0.105844 -0.736908 -0.667655 0.746911 -0.280375 -0.602921 
0.822623 -0.115975 -0.556634 0.928946 0.0925129 -0.358469 0 -0.0429428 -0.999077 
-0.892516 -0.446258 -0.0653447 -0.988713 -0.130529 -0.0735456 0.988713 -0.130529 -0.0735456 
-0.727378 -0.0730336 -0.682339 0 0.351123 -0.936329 0.880455 0.315022 -0.354345 
0.602712 0.684108 -0.410774 -0.0421249 -0.908936 -0.414802 0.606273 -0.394589 -0.690458 
-0.45704 -0.806269 -0.375559 -0.773192 -0.394808 -0.496286 0 -0.165267 0.986249 
-0.43005 0.566452 -0.702986 -0.383323 0.61377 -0.69018 0.00298116 0.767264 -0.641324 
-0.0711543 -0.798214 -0.598157 0.355652 -0.551675 -0.754431 0.473814 -0.599973 -0.644618 
0.652186 -0.386256 -0.652272 0.851784 -0.31917 -0.415446 -0.61359 -0.703332 -0.35893 
0.948751 -0.045328 -0.312756 -0.804343 -0.365993 -0.468062 0.840853 0.484405 -0.24149 
0.800598 0.479878 -0.358832 -0.712289 0.24925 -0.65614 -0.667318 0.363448 -0.650071 
-0.236912 0.684207 -0.689735 0.17438 -0.747207 -0.641305 -0.222926 -0.903135 -0.366949 
0.772825 -0.313882 -0.551561 -0.759792 -0.582912 -0.287976 0 -0.0429428 -0.999077 
-0.892516 -0.446258 -0.0653447 -0.988713 -0.130529 -0.0735456 0.988713 -0.130529 -0.0735456 
0 0.351123 -0.936329 0.96909 0.209502 -0.130279 -0.798761 0.0484145 -0.599698 
0.31297 0.798478 -0.514278 0.707777 -0.336921 -0.620916 0.954499 -0.0584762 -0.292423 
0.981972 0.182831 0.0479973 0 -0.165267 0.986249 -0.830132 -0.243687 -0.501496 
0.925672 0.378111 -0.0127657 0.663512 0.672688 -0.32748 0.537979 0.76268 -0.359023 
0.811755 -0.306088 -0.497358 0.872723 -0.175762 -0.45548 -0.80692 -0.401087 -0.4336 
-0.751712 0.252515 -0.609234 -0.652445 0.459359 -0.602748 0.373102 -0.789158 -0.487878 
-0.761747 -0.610869 -0.215826 0.990799 0.135336 -0.00158077 0.116356 0.848592 -0.516094 
-0.0217396 -0.881898 -0.470939 -0.274216 -0.921209 -0.276006 0.701369 -0.551607 -0.451454 
-0.796772 -0.566332 -0.210767 -0.90783 -0.119383 -0.401985 -0.857577 0.200191 -0.473799 
-0.101518 0.822383 -0.559803 -0.229617 -0.94564 -0.230308 -0.904858 0.00326928 -0.4257 
-0.735261 0.380541 -0.560874 0.577667 0.775221 -0.255604 -0.361121 0.707601 -0.607365 
-0.213738 -0.940799 -0.263083 -0.222499 -0.949507 -0.221204 0.944253 -0.232144 -0.233441 
0.970338 0.207296 -0.124389 -0.89014 -0.379258 -0.252617 0.82752 0.521378 -0.208271 
-0.58026 0.59556 -0.555524 0.511592 0.804353 -0.302142 0.328889 0.872745 -0.360762 
0.276108 -0.914329 -0.296253 -0.272175 -0.961631 -0.0344325 -0.303938 -0.871511 -0.384825 
-0.554549 -0.78398 -0.279018 0.982058 0.1704 -0.0807875 -0.92195 -0.0239905 -0.386566 
0.721583 0.672791 -0.163308 -0.551557 0.638692 -0.536523 -0.48081 0.781233 -0.398116 
-0.359753 0.785466 -0.503608 -0.238602 0.835555 -0.494891 0.00183955 -0.994219 -0.107351 
-0.168043 -0.97359 -0.154542 -0.256163 -0.959191 0.119722 -0.384108 -0.902375 0.195398 
0.679487 -0.704699 -0.204198 -0.055524 -0.992986 -0.10438 0.0331017 -0.99883 0.0352669 
0.88803 -0.436309 -0.145041 0.999132 -0.0407516 -0.0085863 -0.0281679 0.940332 -0.339091 
0.151283 0.922741 -0.354489 -0.312504 -0.943856 0.107131 -0.341364 -0.919692 0.194005 
0.573922 -0.81609 -0.0678989 -0.150003 -0.930765 -0.333429 -0.101318 -0.966649 -0.235209 
-0.180414 -0.975047 0.129358 0.934366 -0.346176 0.0843906 0.983003 0.139943 0.118836 
-0.72874 0.480995 -0.487424 0.0388196 -0.973456 0.225558 0.213446 -0.972483 0.0933722 
0.399813 -0.911473 0.0967817 -0.386413 -0.880209 0.27553 0.00786602 -0.99995 0.00625051 
-0.40701 -0.89528 -0.181151 -0.42861 -0.884324 -0.185105 -0.0631067 -0.971445 0.228717 
-0.0759606 -0.836747 0.542295 0.973124 -0.217401 0.0759377 0.993653 -0.0318703 0.107877 
-0.749659 -0.610785 -0.25486 -0.951505 -0.0476106 -0.303927 0.625316 0.765706 -0.15058 
-0.209191 -0.929566 0.303555 -0.0658033 -0.928683 0.364991 0.273714 -0.860253 0.430168 
0.509325 -0.799459 0.318517 -0.352724 -0.935516 0.0199105 -0.114616 -0.987191 -0.110979 
-0.00223666 -0.99774 0.0671593 0.11347 -0.986191 -0.120635 -0.0238318 -0.993714 0.109381 
0.149476 -0.967072 0.205984 0.0789405 -0.919416 0.385282 0.0643705 -0.821995 0.565845 
0.0179756 -0.744971 0.666855 0.951805 -0.152072 0.266346 0.939852 -0.103547 0.325509 
0.864986 0.494326 -0.0862613 -0.894868 0.237044 -0.378182 0.762467 0.64377 -0.0648397 
-0.806944 0.467758 -0.360616 -0.29044 0.923886 -0.249157 -0.219121 0.942701 -0.251598 
0.113382 -0.904745 0.410587 -0.0600427 -0.855469 0.514361 -0.0197446 -0.851348 0.52423 
-0.157233 -0.778288 0.607902 0.604289 -0.724901 0.330687 -0.422304 -0.900646 0.102452 
0.294162 -0.924994 0.240531 -0.3791 -0.798718 0.46726 0.844424 -0.511296 0.159765 
-0.389271 -0.92078 0.0251627 -0.474569 -0.877544 -0.0685567 -0.512957 -0.858093 -0.0235014 
0.941206 -0.0972878 0.323522 0.953521 0.0962591 0.285537 -0.885291 0.323646 -0.333937 
-0.729619 0.638133 -0.24585 -0.715343 0.636946 -0.287375 -0.687265 0.683109 -0.247039 
-0.67649 0.694876 -0.243943 -0.552294 0.818851 -0.156382 -0.315739 0.93405 -0.166913 
0.211243 -0.847651 0.486687 0.148531 -0.708118 0.690295 -0.00973666 -0.734998 0.678 
0.297493 -0.778234 0.553036 0.503012 -0.760552 0.410536 0.454046 -0.567888 0.686546 
-0.167442 -0.97184 0.165801 0.114906 -0.950484 0.288752 0.235036 -0.812795 0.533032 
-0.401839 -0.57029 0.716446 -0.217021 -0.632218 0.743776 0.666129 -0.511609 0.542705 
-0.260625 -0.898052 0.354368 -0.3178 -0.884612 0.341269 0.883224 -0.26816 0.384715 
0.218227 -0.499706 0.838255 0.807118 -0.146422 0.571945 0.165447 -0.341451 0.925223 
0.0653091 -0.244192 0.967525 0.930058 -0.0740811 0.359866 0.0162414 -0.180379 0.983463 
0.0375536 -0.204804 0.978082 0.908079 0.0415262 0.416736 -0.0518574 0.0423416 0.997757 
0.364303 0.166409 0.916292 0.349245 0.365961 0.862613 0.118612 -0.124377 0.98512 
0.436579 -0.155802 0.886072 -0.901925 -0.368531 -0.225202 0.897777 0.432015 -0.0857882 
0.860533 0.506948 -0.0498619 -0.4 0.911759 -0.0932493 -0.207554 -0.698274 0.68508 
0.35973 -0.607462 0.708226 -0.0632929 -0.911639 0.406089 0.0873412 -0.907899 0.409988 
-0.0223961 -0.559425 0.828579 0.194892 -0.517335 0.833295 0.450198 -0.507637 0.734593 
0.787572 -0.388951 0.477962 0.696152 -0.251721 0.672317 0.542624 -0.293849 0.786901 
0.121954 -0.207527 0.970598 0.816585 -0.146939 0.558209 0.106544 -0.0235358 0.994029 
-0.168441 -0.368194 0.914364 0.458827 0.485014 0.744472 0.0791136 -0.133291 0.987914 
0.485501 0.442074 0.754228 0.412314 0.320882 0.852662 0.506992 0.180082 0.842929 
0.52855 0.0696571 0.84604 0.213822 -0.34443 0.914138 0.345375 -0.251092 0.90425 
0.959245 0.267148 -0.0920964 -0.987222 0.0885645 -0.132473 -0.876774 0.448857 -0.172613 
0.120275 -0.909603 0.397688 0.065677 -0.875708 0.478354 0.365498 -0.588502 0.721164 
0.0433292 -0.30749 0.950564 -0.346278 -0.875833 0.336165 0.234745 -0.340776 0.910366 
-0.149016 -0.517181 0.842803 0.185451 -0.345575 0.919883 0.142608 0.0381332 0.989044 
-0.136226 -0.642794 0.753829 -0.0398285 -0.459479 0.887295 0.0640847 -0.246606 0.966995 
0.230912 0.125892 0.964796 -0.117365 -0.393571 0.911772 0.775906 -0.0653939 0.62745 
0.259656 0.126163 0.957424 -0.163963 -0.530281 0.831817 0.224619 -0.308241 0.92441 
0.443083 -0.161783 0.881762 0.548737 -0.264929 0.792906 0.340323 -0.370625 0.864186 
0.997172 -0.0241741 0.0711545 -0.806611 0.589539 0.0427001 0.540682 0.829007 -0.142863 
-0.501172 0.850751 0.158271 0.105825 0.979111 -0.173616 -0.114067 0.992708 -0.0389888 
-0.156937 -0.798954 0.580555 -0.0248835 -0.720796 0.6927 0.0831839 -0.678592 0.72979 
0.16823 -0.655991 0.735782 -0.313433 -0.846832 0.429691 0.280463 -0.286056 0.916249 
0.0882349 -0.311364 0.946186 0.263351 -0.0163933 0.964561 0.314072 -0.00535233 0.949384 
0.619459 -0.195499 0.760297 0.814273 -0.0772019 0.575325 0.702704 -0.241807 0.669131 
-0.827892 -0.512424 -0.22807 -0.339963 -0.396302 0.85286 0.693698 0.0903131 0.714582 
-0.00884668 -0.46242 0.886617 0.652814 0.108526 0.749704 0.0236218 -0.517794 0.855179 
0.956718 -0.206659 0.204897 0.356305 -0.374704 0.855946 -0.995172 0.0642928 0.0741534 
-0.947552 0.31915 -0.0169834 -0.834205 0.543703 0.0921356 -0.649808 0.754538 -0.0917723 
0.337343 0.932628 -0.128084 -0.17751 -0.726423 0.663928 0.0028053 -0.617474 0.786586 
0.129955 -0.495181 0.859015 0.319151 -0.404758 0.856921 -0.0543245 -0.691873 0.719973 
-0.123741 -0.691048 0.712138 -0.191282 -0.82602 0.530191 0.261256 -0.0991136 0.960168 
-0.065011 -0.694427 0.71662 0.069852 -0.397222 0.91506 -0.723859 -0.648831 -0.234619 
0.600277 -0.441455 0.666922 -0.103199 -0.564952 0.818644 0.877984 -0.237179 0.415802 
0.728966 0.157759 0.666123 0.151222 -0.483107 0.862404 -0.921085 -0.389346 0.00333696 
-0.0533982 -0.546436 0.835797 0.150285 -0.484717 0.861664 0.686119 -0.195655 0.700686 
0.518747 -0.301678 0.799933 -0.987792 -0.151991 -0.0341389 0.940339 0.314395 -0.130069 
-0.976306 0.215307 0.021676 -0.701843 0.677611 0.219681 -0.417684 0.876665 0.238742 
-0.282181 0.952897 0.111183 0.191482 0.97981 -0.0575067 0.184156 -0.565462 0.803952 
0.0717671 -0.36352 0.928818 0.230562 -0.308423 0.922885 -0.238701 -0.88769 0.393736 
-0.0387948 -0.597825 0.800687 0.459828 -0.347764 0.817079 -0.394925 -0.914765 -0.0850784 
-0.485516 -0.842814 -0.232248 0.363203 -0.123021 0.923553 0.373036 0.0566341 0.926087 
0.518819 0.147436 0.842075 0.700606 0.426922 0.571742 0.761016 0.276452 0.586881 
0.142526 -0.517329 0.843835 -0.187161 -0.591586 0.784218 0.285867 -0.489407 0.82387 
0.997656 0.0683626 -0.00286865 -0.801564 0.415157 0.430279 -0.605309 0.762699 0.227795 
-0.0329487 0.99558 0.087946 0.0796962 -0.578304 0.81192 0.204298 -0.291811 0.934403 
0.1891 -0.420892 0.887181 -0.00694283 -0.719903 0.69404 0.274966 -0.360377 0.89136 
-0.473084 -0.863947 -0.172586 -0.618957 -0.784935 0.0277244 -0.416362 -0.902505 0.110122 
-0.225033 -0.956393 0.186206 0.0838295 -0.735234 0.672609 -0.733913 -0.658112 -0.168107 
0.06651 -0.508768 0.858331 0.445787 -0.0600946 0.893119 -0.888993 -0.457401 0.0217911 
0.324903 -0.411285 0.851635 -0.897721 -0.429183 0.0994902 -0.183732 -0.695567 0.694571 
-0.241818 -0.730813 0.638307 -0.933878 -0.211025 0.288686 -0.0412796 -0.677559 0.734309 
0.608789 -0.248985 0.753248 0.148499 -0.655215 0.740704 0.533581 -0.314974 0.784909 
0.288745 -0.459564 0.839897 0.420004 -0.492839 0.762041 0.997969 -0.0320833 0.0550312 
-0.953694 0.13118 0.270665 -0.795943 0.327316 0.509253 0.654938 0.740929 -0.148597 
-0.255867 0.934039 0.249204 -0.00890981 -0.390421 0.920593 -0.438292 -0.886125 0.150609 
-0.0396365 -0.928728 0.368637 0.259879 -0.482654 0.836366 0.459209 -0.271994 0.845663 
0.708812 0.250942 0.659252 -0.0500077 -0.555708 0.829872 -0.930279 -0.199224 0.308045 
-0.831293 -0.485859 0.269988 -0.363341 -0.759529 0.539536 0.777187 -0.351681 0.521825 
-0.272056 -0.710902 0.64854 0.996746 0.0715015 -0.0372267 -0.700883 0.536957 0.46951 
0.204317 -0.572433 0.794088 0.370687 -0.537436 0.757465 0.275805 -0.521539 0.807421 
0.59451 -0.176896 0.784389 -0.710667 -0.648839 0.271957 0.761193 0.140165 0.633197 
0.744515 0.103457 0.659541 -0.836202 -0.491813 0.242664 -0.932078 -0.31679 0.175712 
0.458815 -0.53249 0.711297 -0.899669 -0.0179674 0.436203 0.254079 -0.502573 0.826356 
0.928748 -0.266318 0.257881 0.443113 -0.323489 0.836066 0.297662 -0.486565 0.821372 
-0.740401 0.118173 0.661696 -0.685324 0.294859 0.665875 0.812177 0.534529 -0.233769 
-0.522508 0.7179 0.460005 -0.462725 0.780378 0.42059 0.122342 0.990896 0.0561914 
-0.131601 -0.865391 0.483508 0.636975 -0.13235 0.759438 -0.921619 -0.211528 0.325382 
0.310051 -0.370184 0.87569 -0.813216 -0.240221 0.53007 0.718329 0.0203269 0.695406 
0.725012 -0.516512 0.455602 -0.770884 -0.0377741 0.635855 0.874536 -0.383442 0.296918 
0.456544 -0.0996551 0.884102 -0.0448328 -0.661824 0.748318 -0.572061 0.214026 0.791795 
0.958747 0.257304 -0.120828 -0.353787 -0.83834 0.414753 0.144604 -0.768138 0.623742 
0.221939 -0.700549 0.678214 0.483385 -0.39393 0.781766 0.66936 -0.0330324 0.742203 
-0.725392 -0.237771 0.645965 -0.213791 -0.522546 0.825372 -0.692814 -0.118743 0.711273 
0.396631 -0.41172 0.82047 0.691628 -0.51902 0.502265 -0.659771 0.0218472 0.751149 
0.234601 -0.521439 0.820405 -0.592583 0.0872534 0.80077 0.290427 -0.398458 0.86999 
-0.117133 -0.103775 0.987679 0.997179 0.0316697 0.0680547 0.908176 0.416037 -0.0461454 
-0.636725 0.340687 0.691747 -0.599276 0.630123 0.493775 -0.641916 -0.585102 0.49558 