# vtk DataFile Version 4.2
vtk output
ASCII
DATASET POLYDATA
POINTS 769 float
299.467 167.788 146.126 299.511 167.514 146.199 299.348 167.68 146.125 
299.255 167.943 146.093 299.157 167.76 146.159 299.576 167.951 146.213 
299.159 168.269 146.129 299.322 168.292 146.131 299.46 168.184 146.164 
299.176 168.554 146.247 299.428 167.032 146.397 299.298 166.856 146.528 
299.623 166.641 146.584 300.028 166.96 146.63 298.861 167.681 146.351 
300.072 167.554 146.713 299.394 168.376 146.229 298.947 169.109 146.512 
298.034 169.862 146.621 299.866 166.289 146.739 299.849 166.091 146.861 
300.006 166.257 146.78 299.983 166.075 146.895 300.131 166.185 146.918 
298.902 166.982 146.686 300.262 166.397 146.971 298.426 167.579 146.644 
300.489 167.111 147.37 299.795 168.389 146.823 296.359 171.026 147.174 
297.45 171.046 147.153 295.915 171.557 147.317 295.659 171.493 147.388 
295.437 171.919 147.506 293.599 173.917 147.894 293.874 173.809 147.942 
292.627 174.848 148.008 291.931 175.64 148.268 291.934 175.521 148.257 
291.76 175.784 148.409 292.038 175.73 148.335 299.921 165.553 147.456 
300.228 165.426 147.652 299.831 165.861 147.12 300.134 165.894 147.137 
300.304 165.521 147.577 299.236 165.969 147.312 295.414 171.273 147.557 
294.65 171.515 147.981 293.683 173.366 147.96 293.287 173.018 148.226 
292.895 174.296 148.056 294.397 173.205 147.867 292.053 175.134 148.275 
293.204 174.539 148.051 291.164 175.487 148.698 292.276 175.401 148.224 
290.397 176.752 149.206 291.021 176.896 148.985 300.333 165.42 147.766 
300.632 167.556 148.004 293.765 171.91 148.447 291.966 174.132 148.666 
294.203 174.828 148.647 290.376 177.148 149.315 291.103 177.182 149.158 
290.437 177.766 149.635 300.063 165.17 148.609 298.417 165.812 148.526 
292.412 173.191 148.836 289.307 177.207 150.275 289.468 177.773 150.126 
290.407 178.219 150.051 291.27 177.695 149.716 289.341 178.384 150.458 
289.814 178.432 150.288 289.419 178.836 150.695 300.313 165.168 148.953 
300.581 165.357 149.047 298.966 165.279 149.352 292.638 171.992 149.756 
291.977 173 149.633 297.69 172.596 149.137 289.924 175.982 149.902 
292.738 176.622 149.408 289.113 177.129 150.603 288.606 178.351 151.155 
290.668 178.319 150.176 288.341 179.41 151.672 288.713 179.242 151.32 
300.474 165.162 149.252 300.465 165.119 149.415 300.375 165.097 149.344 
300.533 165.239 149.524 294.531 175.624 149.873 288.982 176.685 151.27 
292.418 177.55 150.452 291.015 178.391 150.477 288.015 178.78 151.962 
287.906 179.248 152.137 290.081 179.232 151.261 289.174 179.6 151.504 
300.394 165.116 149.554 299.016 165.166 150.251 298.721 165.313 150.545 
300.986 166.727 150.687 293.252 170.328 151.391 292.252 171.48 151.455 
299.267 171.652 151.18 290.286 173.952 151.77 292.247 178.27 151.764 
287.566 179.424 152.723 287.363 180.029 153.082 287.304 180.526 153.315 
299.331 165.155 151.247 299.801 165.152 150.997 298.154 165.716 151.44 
295.214 168.19 151.466 290.791 179.292 151.918 287.087 180.128 153.514 
286.909 180.05 153.905 286.645 181.901 154.799 299.104 165.199 151.161 
299.578 165.378 151.9 299.862 165.455 151.963 299.694 165.564 152.318 
297.14 166.469 152.068 286.223 182.285 155.376 286.133 182.707 155.655 
286.273 182.841 155.659 286.538 182.786 155.552 286.08 182.99 155.926 
298.814 165.652 152.431 300.293 165.756 151.912 299.043 165.839 153.022 
300.798 167.186 152.731 300.849 168.163 153.379 286.173 181.137 155.389 
285.907 183.268 156.408 297.688 166.375 153.394 300.036 166.163 153.185 
296.439 167.274 154.115 300.373 166.705 153.466 290.427 180.761 155.302 
285.154 183.262 157.473 300.459 167.525 154.401 284.995 183.616 157.925 
286.431 183.544 156.721 285.584 183.834 157.366 285.631 184.028 157.716 
298.488 166.915 155.428 298.909 167.248 156.011 300.211 167.547 155.065 
300.365 168.824 156.048 300.195 169.967 156.672 286.727 183.691 157.433 
285.902 184.054 157.825 300.209 168.209 155.945 296.537 176.017 157.708 
286.349 184.23 158.907 284.714 184.638 159.532 285.32 184.555 159.182 
284.746 184.799 159.803 299.468 168.473 157.65 295.343 168.927 159.183 
299.608 171.853 159.079 283.878 184.823 161.254 284.98 184.82 159.824 
285.326 184.802 159.961 284.423 184.983 160.616 297.546 168.525 159.445 
299.09 172.984 160.117 287.742 183.625 159.875 283.472 184.633 162.12 
284.592 185.079 160.853 299.614 171.371 161.264 299.397 172.26 160.98 
288.207 175.219 160.265 297.875 168.864 160.586 290.544 172.975 161.607 
283.238 184.885 163.318 284.731 185.209 161.961 283.543 185.095 162.981 
297.206 169.329 161.988 296.718 169.726 162.779 299.475 170.688 162.015 
283.672 185.228 163.392 298.204 169.822 162.879 298.637 169.736 162.154 
299.28 170.491 162.485 294.992 177.403 164.108 283.615 185.275 164.26 
299.059 170.413 162.983 299.174 171.624 164.245 283.652 185.331 165.019 
284.036 185.326 165.236 280 188.009 165.017 280 188.009 165.017 
280 188.009 165.017 280 188.009 165.017 283.234 185.237 165.315 
280 188.009 165.017 295.956 171.049 165.399 298.977 172.326 165.531 
298.739 173.083 165.626 288.499 175.581 165.004 298.472 173.515 165.85 
292.475 179.186 165.521 282.252 184.48 166.208 282.015 184.678 167.277 
283.804 185.286 166.174 280 188.009 165.017 293.505 172.922 165.932 
295.167 172.411 166.72 287.46 176.787 166.04 289.172 175.611 166 
297.758 174.209 166.845 282.489 182.621 167.073 289.194 182.039 166.39 
281.916 184.168 167.564 281.913 184.498 167.537 281.906 184.67 167.783 
282.495 185.152 167.247 297.709 171.221 167.048 298.571 173.075 167.179 
289.358 175.202 165.694 293.997 174.39 167.368 287.901 176.449 166.484 
287.723 176.601 166.491 288.127 176.511 166.576 287.822 176.583 166.638 
297.591 174.103 167.655 287.669 177.024 166.739 287.734 176.631 166.646 
289.65 176.673 167.123 284.613 179.775 166.914 287.672 177.973 167.549 
289.121 177.958 167.671 292.575 178.303 166.667 291.593 179.506 166.536 
283.394 181.26 167.346 287.746 183.111 166.863 281.7 184.335 168.551 
284.83 184.712 167.509 283.887 185.072 167.434 282.095 184.991 168.085 
297.308 171.538 167.836 298.412 171.365 166.926 297.092 171.687 167.914 
298.246 173.339 168.136 287.794 176.485 166.619 287.774 176.488 166.589 
287.761 176.521 166.651 294.486 174.704 167.731 287.741 176.525 166.621 
294.058 175.305 167.633 286.065 178.709 167.289 286.763 178.33 167.39 
284.98 179.623 167.479 287.357 178.41 167.726 290.497 177.751 167.572 
292.294 177.658 167.242 294.209 176.473 167.234 287.258 179.002 168.06 
283.395 181.362 168.159 287.979 179.776 168.306 290.313 180.246 167.278 
289.274 181.234 167.458 281.772 183.821 168.781 281.67 184.145 168.788 
281.604 184.339 169.11 285.763 184.156 167.633 281.666 184.636 169.26 
282.153 185.007 168.428 298.139 171.654 168.362 296.34 173.649 168.597 
296.857 173.087 168.953 287.759 176.485 166.638 296.84 174.202 168.378 
294.462 175.55 167.65 295.121 174.878 167.957 295.917 174.811 168.101 
295.353 175.212 167.843 285.218 179.857 168.108 291.689 178.568 167.328 
284.684 180.726 168.547 290.104 179.825 167.716 288.185 180.774 168.359 
289.177 180.593 167.951 282.412 182.566 168.951 285.632 181.392 169.04 
281.902 183.484 169.291 286.645 181.75 168.851 288.195 182.058 167.996 
281.52 184.123 169.631 286.45 182.907 168.624 285.879 183.519 168.543 
284.313 184.439 168.666 298.095 172.039 169.638 297.644 172.283 169.494 
296.969 173.574 168.961 297.484 172.899 169.631 295.928 174.47 168.326 
297.614 173.178 169.589 297.894 173.18 169.567 296.309 174.229 168.522 
283.06 181.885 169.152 284.951 180.08 168.2 290.901 179.264 167.572 
289.858 180.289 167.791 283.809 182.333 169.603 283.457 182.602 169.715 
288.561 181.365 168.173 281.93 183.559 169.975 283.717 182.65 169.727 
283.86 182.841 169.731 287.913 181.764 168.448 281.474 183.949 170.473 
286.033 183.118 168.898 285.921 183.234 168.93 287.734 182.086 168.406 
281.232 184.403 170.497 285.762 183.336 168.911 281.758 184.735 169.984 
282.887 184.598 169.485 298.48 172.109 169.698 298.582 172.448 169.945 
298.399 172.743 169.983 298.003 172.923 170.133 295.614 174.777 168.191 
282.457 183.133 169.827 281.286 184.051 170.906 281.167 184.13 171.158 
287.824 181.934 168.449 280.966 184.301 171.115 281.722 183.899 170.573 
282.368 183.757 170.278 281.938 184.034 170.563 284.482 183.199 169.498 
285.457 183.233 169.107 285.824 183.188 168.995 281.068 184.422 170.945 
280.975 184.402 171.129 282.727 183.976 170.109 282.332 184.198 170.311 
284.761 183.59 169.206 281.193 184.48 170.895 281.395 184.561 170.72 
282.593 184.256 170.096 282.265 184.605 169.979 298.475 172.246 170.493 
298.58 172.358 170.24 298.568 172.458 170.288 298.14 172.633 170.666 
298.163 172.761 170.535 298.3 172.652 170.764 281.517 184.171 170.867 
280.938 184.37 171.217 281.377 184.414 170.908 281.028 184.336 171.296 
280.994 184.378 171.245 281.462 184.557 170.749 298.524 172.316 170.652 
298.451 172.314 170.757 298.56 172.345 170.519 298.533 172.414 170.762 
298.395 172.389 170.923 298.477 172.52 170.772 298.367 172.46 171.048 
298.275 172.52 170.923 298.284 172.591 170.907 298.196 172.681 170.7 
298.377 172.545 171.03 280.807 184.19 171.557 280.818 184.207 171.56 
280.745 184.223 171.594 280.71 184.245 171.64 280.705 184.261 171.626 
280.887 184.289 171.473 280.738 184.285 171.567 280.765 184.3 171.554 
280.887 184.327 171.437 281.529 184.59 170.683 298.514 172.363 170.877 
298.519 172.403 170.986 298.484 172.392 171.011 298.495 172.453 170.994 
298.402 172.481 171.166 298.436 172.464 171.079 298.491 172.428 171.081 
298.402 172.501 171.157 280.764 184.208 171.602 280.751 184.236 171.62 
280.728 184.269 171.623 280.783 184.266 171.588 298.508 172.415 171.061 
298.391 172.499 171.181 298.641 172.021 285.028 298.637 172.015 285.034 
298.621 172.037 285.078 298.639 172.013 285.091 298.562 172.074 285.226 
298.39 172.338 285.53 298.387 172.296 285.538 298.336 172.375 285.631 
298.591 172.081 285.238 298.425 172.312 285.546 298.381 172.367 285.581 
[...]
POINT_DATA 769
SCALARS scalars float
LOOKUP_TABLE default
1 1 1 1 1 1 1 1 1 
1 1 1 1 1 1 1 1 1 
1 1 1 1 1 1 1 1 1 
1 1 1 1 1 1 1 1 1 
1 1 1 1 1 1 1 1 1 
1 1 1 1 1 1 1 1 1 
1 1 1 1 1 1 1 1 1 
1 1 1 1 1 1 1 1 1 
1 1 1 1 1 1 1 1 1 
1 1 1 1 1 1 1 1 1 
1 1 1 1 1 1 1 1 1 
1 1 1 1 1 1 1 1 1 
1 1 1 1 1 1 1 1 1 
1 1 1 1 1 1 1 1 1 
1 1 1 1 1 1 1 1 1 
1 1 1 1 1 1 1 1 1 
1 1 1 1 1 1 1 1 1 
1 1 1 1 1 1 1 1 1 
1 1 1 1 1 1 1 1 1 
1 1 1 1 1 1 1 1 1 
1 1 1 1 1 1 1 1 1 
1 1 1 1 1 1 1 1 1 
1 1 1 1 1 1 1 1 1 
1 1 1 1 1 1 1 1 1 
1 1 1 1 1 1 1 1 1 
1 1 1 1 1 1 1 1 1 
1 1 1 1 1 1 1 1 1 
1 1 1 1 1 1 1 1 1 
1 1 1 1 1 1 1 1 1 
1 1 1 1 1 1 1 1 1 
1 1 1 1 1 1 1 1 1 
1 1 1 1 1 1 1 1 1 
1 1 1 1 1 1 1 1 1 
1 1 1 1 1 1 1 1 1 
1 1 1 1 1 1 1 1 1 
1 1 1 1 1 1 1 1 1 
1 1 1 1 1 1 1 1 1 
1 1 1 1 1 1 1 1 1 
1 1 1 1 1 1 1 1 1 
1 1 1 1 1 1 1 1 1 
1 1 1 1 1 1 1 1 1 
1 1 1 1 1 1 1 1 1 
1 1 1 1 1 1 1 1 1 
1 1 1 1 1 1 1 1 1 
1 1 1 1 1 1 1 1 1 
1 1 1 1 1 1 1 1 1 
1 1 1 1 1 1 1 1 1 
1 1 1 1 1 1 1 1 1 
1 1 1 1 1 1 1 1 1 
1 1 1 1 1 1 1 1 1 
1 1 1 1 1 1 1 1 1 
1 1 1 1 1 1 1 1 1 
1 1 1 1 1 1 1 1 1 
1 1 1 1 1 1 1 1 1 
1 1 1 1 1 1 1 1 1 
1 1 1 1 1 1 1 1 1 
1 1 1 1 1 1 1 1 1 
1 1 1 1 1 1 1 1 1 
1 1 1 1 1 1 1 1 1 
1 1 1 1 1 1 1 1 1 
1 1 1 1 1 1 1 1 1 
1 1 1 1 1 1 1 1 1 
1 1 1 1 1 1 1 1 1 
1 1 1 1 1 1 1 1 1 
1 1 1 1 1 1 1 1 1 
1 1 1 1 1 1 1 1 1 
1 1 1 1 1 1 1 1 1 
1 1 1 1 1 1 1 1 1 
1 1 1 1 1 1 1 1 1 
1 1 1 1 1 1 1 1 1 
1 1 1 1 1 1 1 1 1 
1 1 1 1 1 1 1 1 1 
1 1 1 1 1 1 1 1 1 
1 1 1 1 1 1 1 1 1 
1 1 1 1 1 1 1 1 1 
1 1 1 1 1 1 1 1 1 
1 1 1 1 1 1 1 1 1 
1 1 1 1 1 1 1 1 1 
1 1 1 1 1 1 1 1 1 
1 1 1 1 1 1 1 1 1 
1 1 1 1 1 1 1 1 1 
1 1 1 1 1 1 1 1 1 
1 1 1 1 1 1 1 1 1 
1 1 1 1 1 1 1 1 1 
1 1 1 1 1 1 1 1 1 
1 1 1 1 
NORMALS Normals float
0.346574 -0.0357825 -0.93734 0.215674 -0.327896 -0.919766 -0.0947277 -0.316656 -0.943799 
-0.0963201 -0.0343397 -0.994758 -0.420674 -0.327356 -0.846092 0.634738 0.0848641 -0.768053 
-0.256252 0.141554 -0.956189 0.248841 0.231259 -0.94053 0.600159 0.276289 -0.750649 
0.311114 0.559807 -0.768 -0.25084 -0.393828 -0.884296 -0.365096 -0.54863 -0.752137 
-0.148524 -0.525232 -0.837897 0.718485 -0.0574886 -0.693163 -0.437046 -0.310455 -0.844162 
0.811679 0.157924 -0.562349 0.565809 0.546631 -0.617297 0.390035 0.544332 -0.742681 
0.0947291 0.394392 -0.914047 -0.251534 -0.499315 -0.829105 -0.375903 -0.578917 -0.723569 
0.401322 -0.344967 -0.848492 0.245702 -0.617455 -0.747248 0.619286 -0.414056 -0.667115 
-0.49987 -0.524248 -0.689415 0.789392 -0.216466 -0.574458 -0.567889 -0.312024 -0.761672 
0.924923 0.00541545 -0.380116 0.739814 0.501024 -0.449054 -0.309054 -0.0944302 -0.946345 
0.289469 0.530335 -0.796839 -0.156618 0.0663929 -0.985425 -0.330187 -0.163849 -0.929586 
-0.313235 0.115618 -0.942611 0.00034811 0.0835014 -0.996508 0.223793 0.256165 -0.94037 
-0.145895 0.0727565 -0.986621 -0.0490463 0.264457 -0.96315 -0.421796 -0.0537873 -0.905094 
-0.402299 0.23175 -0.88569 0.168128 0.543381 -0.822478 -0.099028 -0.83992 -0.5336 
-0.0180224 -0.9531 -0.302118 -0.272337 -0.69969 -0.660505 0.420669 -0.611939 -0.669753 
0.811084 -0.393443 -0.432833 -0.446962 -0.749527 -0.488298 -0.397241 -0.183215 -0.89924 
-0.553059 -0.471892 -0.686617 -0.287649 -0.185525 -0.939595 -0.543068 -0.446803 -0.710946 
-0.330562 -0.172827 -0.927825 -0.0582698 0.157187 -0.985848 -0.395846 -0.137378 -0.907983 
0.258631 0.460895 -0.848932 -0.619728 -0.17778 -0.764416 0.0668554 0.329034 -0.941949 
-0.551382 0.129898 -0.824078 -0.277162 0.322583 -0.905053 0.623549 -0.727008 -0.287481 
0.935702 0.283061 -0.210566 -0.550876 -0.45608 -0.698947 -0.704346 -0.318729 -0.634278 
0.300591 0.582088 -0.755526 -0.360819 0.384589 -0.849648 0.104363 0.596925 -0.79548 
-0.0672283 0.621416 -0.780591 -0.0289281 -0.987136 -0.157246 -0.648078 -0.706758 -0.283706 
-0.607439 -0.555494 -0.567841 -0.789851 -0.241033 -0.56395 -0.698926 0.15825 -0.697467 
-0.198189 0.756492 -0.62325 0.297608 0.689433 -0.660387 -0.426408 0.381016 -0.820367 
-0.0751531 0.635272 -0.768623 -0.15842 0.647376 -0.745525 0.107443 -0.982252 -0.153744 
0.911137 -0.398586 -0.104686 -0.313372 -0.930227 -0.190986 -0.666135 -0.582938 -0.465238 
-0.819818 -0.454155 -0.348772 0.676301 0.687921 -0.263402 -0.792831 -0.376785 -0.479011 
0.515394 0.643423 -0.566017 -0.835865 -0.193006 -0.513885 -0.807108 -0.00470652 -0.590385 
0.128786 0.843379 -0.521657 -0.613926 0.396893 -0.682327 -0.554989 0.367821 -0.74612 
0.660724 -0.726416 -0.18911 0.579871 -0.814146 0.0302613 -0.00276165 -0.996297 -0.0859303 
0.820871 -0.551576 0.148102 0.505374 0.721942 -0.472649 -0.838762 -0.397153 -0.372489 
0.521032 0.695591 -0.494651 0.202657 0.89199 -0.404083 -0.903982 -0.21792 -0.367868 
-0.776496 0.108847 -0.62065 0.256474 0.795737 -0.548656 -0.070806 0.781212 -0.620237 
0.0958177 -0.982734 0.158284 -0.28607 -0.957935 -0.0228948 -0.411431 -0.911435 0.00322279 
0.986035 -0.166482 0.00436111 -0.724679 -0.652599 -0.221256 -0.86591 -0.495565 -0.067933 
0.72986 0.681139 -0.0579062 -0.823588 -0.532958 -0.19406 0.589672 0.741531 -0.320029 
-0.851342 0.00544234 -0.524584 -0.790672 0.0376449 -0.611081 -0.688678 0.352402 -0.633669 
-0.0232643 -0.980375 0.195764 0.200567 -0.971336 0.127594 -0.481488 -0.867231 0.126808 
-0.684721 -0.728805 0.000524282 0.37991 0.836336 -0.395234 -0.88189 0.0461886 -0.469187 
-0.911312 -0.0963406 -0.400287 -0.626155 0.371259 -0.685636 -0.276318 -0.952276 0.12969 
-0.101883 -0.93499 0.339725 0.336911 -0.883825 0.324567 0.225311 -0.879731 0.418698 
-0.557022 -0.818403 0.14122 -0.719821 0.242807 -0.65031 -0.75308 0.312074 -0.579207 
-0.35312 0.603092 -0.715252 0.0153521 0.798997 -0.601139 -0.339818 0.73312 -0.589117 
-0.265736 -0.910915 0.315624 0.765719 -0.585327 0.266585 -0.127482 -0.920562 0.369207 
0.900241 -0.378355 0.21544 0.986104 -0.0343509 0.162538 -0.929659 -0.166028 -0.328891 
-0.616187 0.570092 -0.543423 -0.467681 -0.858471 0.210481 0.491112 -0.758707 0.427986 
-0.573938 -0.781988 0.243083 0.841978 -0.455891 0.288505 0.499197 0.841676 -0.205872 
-0.769935 0.357778 -0.52839 0.854962 -0.382892 0.349905 -0.932331 0.0037861 -0.361586 
0.11023 0.877744 -0.466278 -0.164425 0.854854 -0.492128 -0.0147439 0.936334 -0.3508 
-0.173193 -0.861185 0.477875 0.0458257 -0.866663 0.496784 0.804326 -0.441609 0.397544 
0.916109 -0.208392 0.342516 0.945444 0.305452 0.113288 0.345071 0.889466 -0.299626 
0.125802 0.924923 -0.358737 0.699456 -0.481443 0.52818 0.705426 0.706278 -0.0595444 
0.263664 0.951636 -0.157702 -0.366052 0.793257 -0.486568 0.158864 0.950776 -0.266061 
-0.274418 0.927396 -0.254227 0.686353 -0.629354 0.364462 -0.457123 -0.853866 0.248902 
0.971053 0.234243 -0.0467467 -0.672969 0.670449 -0.312427 -0.0310242 0.974274 -0.223223 
0.206056 0.976125 -0.0687063 -0.396015 0.902096 -0.171448 0.154065 -0.944464 0.290262 
0.8081 0.588822 -0.0162382 0.539581 0.841699 -0.0198821 -0.823227 0.508045 -0.253353 
0.0609121 0.988543 -0.138106 0.985862 0.133194 0.101665 0.962082 0.272138 0.0184286 
-0.715021 -0.698241 0.0347029 -0.160945 -0.956354 0.243892 -0.567321 -0.799175 0.198663 
-0.692827 0.70003 -0.173057 0.0637261 0.99564 -0.0681185 -0.524504 0.82751 -0.200305 
-0.0840628 -0.958397 0.272778 -0.402401 -0.87925 0.254937 0.97589 -0.099945 0.194036 
-0.321001 0.942215 -0.0958583 0.192394 -0.905824 0.37745 0.49944 -0.823132 0.270211 
0.883031 -0.357471 0.304091 0.693272 0.708952 0.129466 -0.273094 0.957971 -0.087816 
0.628134 -0.72229 0.289388 0.990191 0.00247931 0.139695 -0.0984045 0.995014 0.0162365 
0.106704 0.993687 0.0346372 0 -0.159641 -0.987175 0 -1 0 
-0.963361 -0.268207 4.13429e-08 0.963361 -0.268207 4.13429e-08 -0.346837 0.937526 -0.027382 
0 0.5547 -0.83205 -0.332518 -0.860839 0.385211 0.974485 0.0930545 0.204255 
0.904213 0.415752 0.0977224 -0.599956 -0.767721 0.22507 0.84716 0.514102 0.134238 
0.634681 0.692302 0.343364 -0.929235 0.241801 -0.279382 -0.891688 0.364855 -0.267906 
0.173521 0.980266 0.0947048 0 -0.159641 0.987175 -0.455344 -0.702408 0.547069 
-0.599025 -0.563365 0.569025 -0.707038 -0.663777 0.243921 -0.402662 -0.700268 0.589481 
0.622833 0.750119 0.22226 -0.880182 -0.454074 -0.138191 0.705684 0.655894 0.26798 
-0.963444 -0.160764 -0.214313 -0.975869 0.0665132 -0.207979 -0.943816 0.293243 -0.152379 
-0.0705486 0.995624 0.0612777 -0.0613332 -0.956846 0.284049 0.891049 0.408559 0.197764 
-0.526892 -0.739914 0.418226 -0.302911 -0.479396 0.823665 -0.341651 -0.839726 0.42206 
-0.883799 -0.467838 -0.0052291 -0.116825 -0.447544 0.886598 0.251134 -0.311702 0.916392 
0.599676 0.76326 0.240464 -0.421485 -0.482894 0.76757 -0.699669 -0.158211 0.69673 
-0.219023 -0.458484 0.861291 -0.706456 -0.706354 0.0445424 -0.219375 -0.567091 0.793903 
-0.0181525 -0.369557 0.929031 0.581715 0.589789 0.560139 0.668032 0.646315 0.368797 
-0.755136 -0.652359 0.0647849 0.626977 0.714938 0.309458 -0.974455 -0.0517644 -0.218535 
0.456368 0.84017 0.292989 0.140073 0.962503 0.232308 -0.668687 0.729317 -0.144756 
-0.335048 -0.885278 0.322532 0.591614 -0.773726 0.226586 -0.461951 -0.814828 0.350223 
0.781282 0.575548 0.241542 0.333156 -0.74554 0.577215 -0.555763 -0.801717 -0.219949 
-0.158287 -0.226549 0.961052 -0.363759 -0.125818 0.922957 -0.938389 -0.31504 0.142044 
-0.145728 0.00114945 0.989324 -0.494134 -0.807422 0.322337 -0.488865 -0.69167 0.531604 
-0.598083 -0.712395 0.367137 -0.13837 -0.473236 0.870001 0.0303679 -0.110835 0.993375 
0.297475 0.287544 0.910399 0.343334 0.624567 0.701454 -0.188611 -0.494636 0.848387 
-0.691316 -0.693475 0.202913 0.114094 -0.250983 0.961244 0.724285 0.511653 0.462193 
0.62057 0.562465 0.546376 -0.924573 -0.342444 -0.16702 -0.960881 -0.214435 -0.175285 
-0.98361 0.00914852 -0.180076 0.49665 0.830368 0.252643 -0.876083 0.446951 -0.180869 
-0.311919 0.947786 0.0663921 0.170095 -0.940598 0.293843 -0.495621 -0.0861253 0.864258 
-0.697681 -0.12915 0.704671 -0.504118 -0.771955 0.387235 0.305348 0.781129 0.54461 
-0.0639381 0.255396 0.96472 -0.278318 0.293083 0.914681 0.196672 0.683144 0.703303 
0.0244253 0.562999 0.826097 -0.274255 -0.5965 0.754303 0.62123 0.467155 0.629158 
-0.234421 -0.601624 0.763606 0.328383 0.0769886 0.941402 0.186834 -0.0587526 0.980633 
0.405893 0.137675 0.903491 -0.837159 -0.54213 0.0725173 0.154208 -0.310866 0.93786 
-0.808808 -0.581341 0.0887241 0.382675 -0.0137246 0.923781 0.641922 0.576036 0.506081 
-0.904258 -0.387675 -0.178958 0.559886 0.552227 0.617716 0.425033 0.756338 0.497292 
0.435732 0.776829 0.454615 -0.371066 -0.865295 0.337008 -0.684272 -0.532727 0.49797 
-0.345343 0.459717 0.818168 -0.753021 0.0617323 0.655094 -0.132124 0.368024 0.920381 
-0.334852 0.731716 0.593689 0.22305 0.870262 0.439195 -0.11688 0.45804 0.881214 
-0.383931 -0.674905 0.630159 -0.557269 -0.6746 0.484113 0.556273 0.371776 0.743198 
0.578427 0.423215 0.697361 0.143617 -0.374994 0.915835 -0.0405464 -0.194871 0.979991 
0.639764 0.370972 0.673113 -0.639813 -0.756122 0.137546 0.102748 -0.206477 0.973042 
0.0449495 0.236621 0.970562 0.556519 0.314759 0.768904 -0.590495 -0.803242 -0.0782167 
0.428595 0.0787535 0.900058 0.508105 0.546232 0.665927 0.670811 0.558564 0.487872 
-0.942973 0.10298 -0.316539 0.251281 0.717095 0.650103 0.213069 0.942859 0.256161 
0.427929 0.741242 0.517143 0.885276 -0.45167 0.110817 0.982414 0.181483 0.0439009 
0.646272 0.715626 0.264976 0.00853894 0.920613 0.390383 -0.162705 0.391706 0.90559 
-0.445225 -0.694376 0.565347 -0.145933 -0.976453 0.15888 0.43351 -0.698196 0.569729 
0.351703 0.0566211 0.934398 -0.917807 0.00497277 -0.396996 0.0368755 -0.794208 0.606526 
0.311116 -0.290275 0.904957 0.529028 0.0865552 0.844179 0.303139 0.148322 0.941333 
0.305655 0.403884 0.862237 0.344154 0.213042 0.914424 -0.861059 0.408516 -0.302806 
-0.557904 0.82832 -0.0512845 0.523516 0.20276 0.827538 0.459796 0.319441 0.82858 
0.312691 0.645369 0.696938 -0.143147 0.964764 0.220769 -0.119849 0.919962 0.373237 
0.559754 0.496461 0.663477 0.392762 0.719644 0.572581 0.380545 -0.896382 0.227344 
0.959531 -0.280344 0.0266064 0.80048 0.585147 0.129752 -0.824699 0.192755 0.531711 
-0.00882312 0.917515 0.397603 0.23955 0.918382 0.314945 0.621413 -0.196277 0.758499 
-0.799649 0.549647 -0.241761 0.446866 0.587346 0.674786 0.59465 0.532302 0.602533 
-0.00861295 0.964452 0.264117 0.0423164 0.801888 0.595974 0.738818 -0.657832 0.146306 
0.0601453 -0.958316 0.279308 0.966981 -0.235991 0.0962094 0.98931 0.107444 0.0986022 
-0.339722 -0.858351 0.384478 0.649035 0.75857 0.0576744 -0.512371 -0.789091 0.338838 
-0.85705 -0.28916 0.42644 -0.466856 0.730975 0.497716 -0.300969 0.814425 0.496114 
0.412563 0.889694 0.195542 0.101386 -0.928693 0.356721 0.689814 -0.123998 0.713289 
-0.553943 -0.832468 -0.0119709 -0.237694 -0.297237 0.924744 -0.981229 0.0894669 -0.170839 
0.629901 0.439528 0.640343 -0.621848 0.775488 -0.109193 -0.15837 0.961837 0.223132 
0.388768 0.764955 0.51352 0.220836 0.839587 0.496311 0.675856 -0.70912 0.200917 
0.94267 -0.284703 0.174119 -0.0329939 -0.925276 0.377856 0.767312 0.616075 0.177999 
0.538349 -0.607763 0.583786 0.534493 -0.332917 0.776842 -0.31378 -0.834471 0.45299 
0.809272 0.516514 0.279809 -0.0289785 -0.77221 0.634707 0.356712 -0.254425 0.898902 
0.196925 0.743212 0.639418 0.61122 0.335855 0.716667 0.858245 -0.305079 0.412726 
-0.394343 0.419777 0.817484 0.725332 0.604677 -0.329027 -0.616199 -0.650492 -0.444026 
-0.534702 0.726786 -0.431134 0.840033 -0.542525 -0.00332961 -0.718337 0.474958 -0.508336 
-0.159066 0.479475 -0.863019 -0.597003 0.0360391 -0.801429 -0.755934 0.406606 -0.513064 
0.279865 0.92812 -0.245497 0.618945 0.566743 -0.543792 0.234231 0.89536 -0.378769 
0.67073 -0.729562 -0.13364 -0.86035 -0.0261955 -0.50903 0.20932 0.809048 -0.549205 
-0.0677734 0.924388 -0.375384 -0.395529 0.779471 -0.48578 0.698614 0.707854 -0.104312 
0.361442 -0.183954 -0.914068 -0.503458 -0.851057 -0.149104 -0.372032 -0.899744 -0.228149 
-0.0866542 -0.829955 -0.551059 -0.0893402 0.91303 -0.397989 -0.0637048 0.871361 -0.486489 
0.433631 0.424438 -0.794869 -0.822497 0.226456 -0.521744 0.489962 0.852787 -0.180808 
-0.631988 -0.774651 0.0224989 -0.983456 0.159509 0.0858553 -0.976625 -0.0201403 0.214005 
0.233862 -0.245496 -0.940766 -0.382603 -0.842506 -0.379208 -0.968338 0.00212827 0.249634 
-0.505333 0.855373 -0.113909 -0.856678 0.510026 -0.077307 0.442509 0.381987 -0.81134 
0.391638 0.786051 -0.478271 -0.0895577 -0.978561 -0.185469 0.884482 0.464866 -0.0398967 
-0.511001 0.500738 -0.69867 0.108642 0.654674 -0.748063 0.369817 0.859965 -0.351704 
0.734583 0.644107 -0.21334 0.65099 0.732644 -0.198608 0.0175227 -0.168599 -0.985529 
-0.298099 -0.902684 -0.310322 -0.771265 0.377342 -0.512604 0.779926 -0.510166 -0.362555 
0.380194 0.816953 -0.433635 -0.436316 -0.750966 -0.495659 -0.599956 -0.610431 -0.517134 
-0.500846 -0.751526 -0.429375 -0.777432 -0.59992 0.188933 -0.218523 -0.581327 -0.783777 
-0.587556 -0.697827 -0.409653 -0.168911 -0.583657 -0.794238 0.0425284 -0.461739 -0.885996 
-0.698382 -0.703713 -0.130578 0.139406 -0.27751 -0.950555 -0.744461 0.655021 0.129328 
0.418166 0.283975 -0.862841 0.343752 0.0160789 -0.938923 0.356208 0.119789 -0.926697 
-0.250235 0.960472 -0.121966 0.0652967 0.957055 -0.282459 -0.0834676 0.982462 -0.166736 
-0.763203 -0.538914 -0.356501 -0.364042 -0.879108 -0.307639 -0.80459 -0.0814018 -0.588225 
-0.547989 0.232473 -0.803533 0.951407 0.293512 -0.0931409 0.175064 0.704337 -0.687941 
-0.450233 0.220704 -0.865205 0.55873 0.777046 -0.289862 0.251066 0.7352 -0.62964 
-0.124476 0.500394 -0.856803 0.185876 0.597714 -0.779865 0.355986 -0.873211 0.33283 
-0.758005 -0.546918 0.355401 0.75294 0.435507 0.493372 -0.466891 -0.587136 -0.661274 
-0.344545 0.837505 0.424116 -0.758097 -0.64203 -0.114393 0.658212 0.466478 -0.590893 
0.576784 0.226466 -0.784878 0.249373 0.410271 -0.877206 -0.346732 -0.534099 -0.771048 
0.466614 0.656423 -0.592773 -0.0127383 -0.406858 -0.913403 -0.928611 0.334679 0.160226 
0.510069 0.484721 -0.710546 -0.824156 0.53695 0.180145 -0.524451 0.84886 -0.066239 
0.399573 0.707148 -0.583338 0.943207 -0.306538 -0.128047 -0.730635 -0.109012 -0.67401 
0.0393079 0.59533 -0.802519 -0.212529 0.453082 -0.865764 0.427114 0.772201 -0.470403 
-0.500072 -0.693681 -0.518397 0.471109 0.638497 -0.608587 0.512284 0.581975 -0.631562 
0.0821577 0.415483 -0.905883 -0.528444 -0.591284 -0.609204 0.678243 0.588494 -0.44007 
0.443203 0.352022 -0.82441 0.49806 0.695699 -0.517628 -0.0278678 -0.0640736 0.997556 
-0.325044 -0.489113 -0.809392 0.34443 0.375064 -0.860637 0.42159 0.850372 -0.314847 
0.495948 0.143371 -0.856435 0.175507 -0.100139 -0.979372 0.322595 -0.0895139 -0.942295 
0.336578 0.265544 -0.903439 -0.819521 -0.571911 -0.0360989 -0.938502 -0.324169 0.118861 
-0.767686 0.567763 0.297159 -0.250314 0.958539 -0.136186 0.213125 0.883398 -0.417355 
0.812357 -0.538638 -0.223485 -0.632947 -0.414823 -0.653681 -0.523825 -0.767069 -0.370423 
-0.442708 -0.818527 -0.366092 -0.345855 0.0517427 -0.93686 0.0172079 0.357749 -0.933659 
-0.301179 -0.640997 -0.705984 0.370751 0.494278 -0.786278 0.583876 0.685027 -0.435691 
0.102697 -0.012488 -0.994634 0.282042 0.244813 -0.927642 0.184742 -0.018984 -0.982604 
0.376806 0.842389 -0.385224 -0.751378 -0.610082 -0.251459 -0.126671 -0.441773 -0.888139 
0.290517 0.552856 -0.780993 0.655095 0.61897 -0.433276 0.569223 0.688491 -0.449406 
-0.653746 -0.670506 -0.350768 0.254853 0.00136449 -0.966979 0.23571 -0.279238 -0.930842 
-0.976623 -0.112855 0.18295 -0.610864 0.787736 0.0794774 0.418375 0.857625 -0.299067 
0.364454 -0.89099 -0.270759 0.992944 -0.0404096 -0.111485 -0.571088 -0.319703 -0.756075 
-0.442878 -0.485574 -0.753709 -0.557456 -0.662848 -0.499875 -0.742731 -0.664219 -0.0846403 
-0.779879 -0.592004 -0.203272 0.203273 -0.374069 -0.904849 0.00469613 -0.218796 -0.975759 
0.478769 0.356445 -0.802326 0.536098 0.810094 -0.237373 -0.92823 0.349865 0.126425 
-0.753912 0.656974 0.00149416 -0.114389 0.986207 -0.119629 -0.519248 -0.758058 -0.394626 
-0.558094 -0.701512 -0.443185 0.759766 0.640515 -0.111786 -0.44348 -0.655819 -0.610923 
-0.180622 -0.407793 -0.895031 -0.0243906 -0.138756 -0.990026 0.430002 0.863152 -0.264704 
-0.256905 -0.757332 -0.600374 0.0169926 -0.289684 -0.956971 -0.856072 -0.508426 0.0929722 
-0.0355929 -0.41492 -0.909161 0.642265 0.743292 -0.187118 -0.561316 0.811577 0.162072 
-0.907844 0.418059 0.0323352 -0.362341 0.93192 0.0153155 -0.499733 -0.830476 -0.246121 
-0.332967 -0.800338 -0.49859 0.818036 -0.483416 -0.311649 0.591303 0.796166 -0.128378 
0.0490501 0.998092 -0.0375116 -0.0631564 -0.90578 -0.419015 0.832064 -0.426784 -0.354296 
0.939856 -0.260181 -0.221304 0.84984 0.526748 -0.0175584 0.595716 0.779653 -0.193037 
0.38153 0.92125 0.0757179 -0.921956 0.328483 0.205173 -0.43916 0.89407 0.0881905 
0.483149 -0.800943 -0.353634 0.725327 -0.595456 -0.345446 0.84125 -0.489437 -0.229673 
-0.730138 0.655904 0.191544 0.117108 0.967287 0.225037 -0.208775 0.93802 0.276645 
0.685766 -0.67679 -0.267732 0.983444 0.13474 -0.121177 -0.635681 -0.733483 -0.240649 
-0.962745 -0.0592335 0.263844 0.145962 -0.805677 -0.57409 0.168363 -0.919631 -0.354869 
-0.732927 0.368766 -0.57169 0.942347 -0.00475784 0.334605 0.203166 0.893592 0.400272 
0.456498 -0.831812 -0.315749 -0.92661 -0.18286 0.328568 0.0674227 -0.994254 -0.0831466 
-0.718951 -0.558689 -0.413492 0.734864 -0.0589412 0.675649 -0.343439 0.897497 0.276673 
0.0971462 -0.990518 0.0971462 -0.370241 0.901791 0.222923 0.171502 -0.920285 -0.351656 
0.81789 -0.474854 -0.324915 -0.224764 -0.910824 -0.346237 0.382734 0.919394 0.0907199 
-0.859619 0.115444 0.497722 -0.887841 0.306557 0.343164 -0.0889909 0.966318 0.241476 
0.461238 -0.795152 -0.393691 0.844055 -0.462809 -0.270884 -0.278566 -0.906231 -0.318037 
-0.3063 -0.902467 -0.302876 -0.584754 -0.779643 -0.224099 0.356241 0.931031 0.0792057 
-0.584397 0.736172 0.341367 -0.722709 0.49843 0.47881 0.476162 -0.770022 -0.42466 