# vtk DataFile Version 4.2
vtk output
ASCII
DATASET POLYDATA
POINTS 469 float
329.582 185.302 216.74 328.856 185.814 217.168 329.215 185.441 216.918 
330.009 185.546 216.648 330.401 185.141 216.507 330.681 185.172 216.471 
329.058 185.889 217.116 329.842 185.763 216.824 330.786 185.31 216.497 
331.049 185.341 216.561 329.674 185.987 217.113 335.978 181.519 217.435 
336.366 181.809 217.487 336.593 181.543 217.655 332.944 182.937 216.817 
333.666 182.687 216.859 335.287 182.376 217.097 336.174 182.198 217.428 
333.874 183.121 216.773 332.903 183.785 216.626 334.758 183.375 217.052 
330.744 184.893 216.511 332.621 184.239 216.599 333.861 183.997 216.897 
328.498 185.578 217.421 328.858 185.281 217.211 334.09 184.312 217.126 
333.11 184.847 216.959 331.154 185.77 217.074 333.612 181.961 217.197 
336.847 182.329 217.962 335.766 183.417 217.66 333.994 184.534 217.23 
330.482 186.189 217.639 331.68 185.791 217.397 336.235 179.985 218.336 
337.683 179.741 218.616 335.078 180.692 217.889 334.544 180.801 217.905 
338.487 180.056 218.927 338.497 180.648 219.022 337.57 181.587 218.467 
336.052 183.433 217.968 327.434 185.183 218.548 327.12 185.085 218.982 
326.42 185.918 219.074 326.113 185.842 219.315 325.986 186.019 219.358 
327.514 185.578 218.32 325.974 186.169 219.388 325.752 186.161 219.593 
325.723 186.294 219.645 327.021 186.062 218.806 325.883 186.339 219.562 
325.634 186.423 219.873 326.078 186.402 219.578 326.576 186.412 219.487 
338.818 177.427 219.795 338.7 177.004 220.099 337.837 177.926 219.583 
340.318 177.005 220.21 336.854 178.603 219.321 338.665 178.59 219.263 
339.343 178.252 219.562 333.831 180.203 219.064 336.078 179.005 219.238 
331.254 182.255 218.287 338.044 181.559 218.944 338.26 181.761 219.399 
334.657 184.79 218.53 325.646 186.141 219.812 325.429 186.516 220.306 
327.734 186.631 219.558 340.728 176.591 220.524 341.325 176.274 220.898 
332.207 181.003 219.276 331.861 180.909 219.864 325.955 185.755 219.768 
325.644 186.045 220.238 325.399 186.461 220.572 333.309 185.633 218.769 
325.739 186.61 220.534 342.174 173.714 222.124 342.963 173.213 222.506 
342.87 173.002 222.63 343.154 173.18 222.637 342.944 173.584 222.392 
341.801 174.878 221.48 337.438 177.337 220.302 337.199 183.378 220.099 
325.786 186.049 221.199 325.593 186.528 221.078 325.949 186.343 221.76 
325.013 186.8 221.582 325.092 186.727 221.296 326.229 186.598 221.531 
325.067 186.761 221.228 342.327 172.785 222.952 343.124 172.692 222.966 
343.398 173.954 222.909 337.301 176.591 221.566 342.108 177.339 221.91 
330.652 181.271 221.178 340.175 180.477 221.209 327.166 184.163 221.018 
336.64 184.115 221.176 326.055 186.279 222.556 332.183 186.34 220.548 
324.718 186.955 222.305 324.778 186.916 222.095 324.885 186.866 221.75 
324.818 186.892 221.906 342.976 171.986 223.742 343.383 172.065 223.681 
343.349 171.9 223.838 342.389 172.4 223.446 343.046 172.404 223.211 
343.19 175.467 222.746 324.586 187.04 223.127 324.61 187.022 222.913 
324.667 186.984 222.501 326.318 186.518 223.13 324.635 187.003 222.701 
343.253 171.653 224.269 343.612 171.855 224.325 338.856 174.745 223.167 
325.821 185.957 224.54 325.97 186.272 224.248 324.587 187.062 224.023 
324.581 187.061 223.799 324.576 187.049 223.344 327.764 186.926 223.272 
324.578 187.055 223.569 343.518 171.509 224.783 342.19 172.033 224.453 
343.921 172.205 224.919 344.105 173.1 225.105 343.211 177.1 224.505 
341.278 180.021 223.511 337.826 183.637 224.583 325.795 186.314 225.086 
324.701 187.02 224.965 324.678 187.042 224.757 324.616 187.051 224.253 
326.124 186.571 224.869 324.66 187.044 224.514 325.7 185.613 225.743 
325.518 186.36 225.817 324.899 186.902 225.914 324.837 186.986 225.734 
324.801 186.976 225.202 325.83 186.676 225.751 324.905 186.979 225.598 
343.358 171.301 225.91 343.577 171.399 225.832 343.817 171.598 226.015 
340.024 173.073 226.532 326.095 184.813 226.646 325.058 186.672 226.904 
325.219 186.764 226.053 325.645 186.879 226.37 325.301 186.949 226.476 
342.842 171.355 226.57 344.083 171.911 226.915 344.276 174.368 226.921 
343.873 176.281 227.393 326.867 183.859 226.971 325.032 186.809 227.732 
325.136 186.956 227.501 339.679 182.286 228.041 325.02 186.755 228.825 
343.508 171.303 227.781 344.171 172.013 228.445 342.029 171.673 228.349 
343.217 177.975 229.528 325.183 186.427 230.147 324.974 186.845 229.852 
343.494 171.319 228.376 343.853 171.549 228.774 344.023 171.763 228.979 
325.459 186.122 230.834 325.028 186.764 230.497 324.873 186.944 230.632 
325.34 187.01 230.422 325.004 186.987 230.275 344.142 172.164 229.938 
325.272 186.874 231.12 325.668 186.487 231.694 325.712 185.985 231.975 
324.703 187.06 231.704 324.77 187.003 231.354 326.023 186.83 231.715 
324.743 187.045 231.212 342.836 171.606 230.659 325.858 185.577 232.588 
325.929 186.32 232.784 331.1 186.752 231.91 324.413 187.138 232.512 
324.471 187.117 232.28 324.576 187.104 231.881 324.509 187.11 232.059 
343.553 171.707 231.054 336.877 175.833 232.277 326.026 186.245 233.768 
324.27 187.148 233.355 324.296 187.149 233.14 324.36 187.147 232.715 
329.274 187.026 232.845 324.325 187.148 232.923 343.879 172.854 232.153 
339.37 174.281 233.543 343.352 176.216 233.015 342.788 177.798 233.418 
332.417 179.668 234.203 340.401 180.951 233.793 337.602 183.503 234.178 
325.908 185.633 234.45 325.885 185.936 234.876 324.251 187.097 234.199 
324.247 187.114 233.989 324.255 187.139 233.565 326.296 186.461 234.437 
327.818 186.95 234.043 324.249 187.128 233.777 343.341 172.249 232.592 
343.051 172.272 232.718 343.637 172.639 232.572 342.05 172.869 233.533 
343.677 173.371 232.92 340.316 173.762 233.851 342.257 177.983 234.53 
325.95 186.181 235.397 324.353 186.986 235.024 324.318 187.02 234.821 
324.27 187.072 234.408 327.167 186.768 235.007 324.294 187.046 234.617 
343.262 172.352 232.826 342.477 172.625 233.316 342.806 172.609 233.27 
343.418 172.683 232.996 342.13 173.189 233.998 343.461 173.44 233.328 
343.353 174.378 233.591 339.349 175.067 234.984 325.693 185.908 236.166 
325.791 186.17 236.048 324.571 186.819 235.812 324.5 186.873 235.622 
324.412 186.943 235.237 324.46 186.909 235.431 342.9 173.028 233.626 
343.262 172.892 233.303 341.322 173.934 234.723 342.695 174.061 234.438 
340.469 174.787 235.339 342.764 175.221 234.602 341.813 177.559 235.495 
340.734 179.221 235.956 331.459 181.076 236.652 325.315 186.161 237.036 
325.544 186.181 236.518 324.852 186.621 236.427 324.791 186.668 236.418 
324.719 186.738 236.076 325.81 186.389 236.615 324.706 186.749 236.161 
341.404 174.351 235.122 342.164 174.289 234.935 342.521 174.82 234.882 
340.52 175.179 235.689 342.237 175.861 235.364 338.734 176.405 236.143 
341.287 177.568 235.981 340.721 178.881 236.173 340.48 178.702 236.467 
326.429 185.196 237.708 335.586 184.434 237.025 325.23 186.427 236.716 
325.113 186.393 237.043 325.088 186.507 237.077 325.575 186.476 237.18 
325.026 186.604 236.659 331.877 186.325 236.849 324.928 186.625 236.687 
341.954 174.716 235.28 340.913 175.381 235.827 340.08 176.329 236.338 
340.628 176.026 236.159 341.575 175.625 235.792 338.438 177.043 236.599 
339.681 178.202 237.056 338.578 180.855 237.766 325.646 185.858 237.994 
325.322 186.164 237.619 325.289 186.329 237.613 325.178 186.538 237.047 
336.446 179.16 238.02 338.788 178.791 237.715 338.476 179.002 237.917 
338.731 179.136 237.843 338.797 179.578 237.834 332.329 181.762 238.704 
338.573 180.565 237.922 330.953 182.363 238.479 329.41 183.307 238.355 
336.867 182.424 238.39 326.182 185.667 238.532 325.543 186.084 238.209 
325.411 186.178 237.969 325.9 185.975 238.543 326.235 185.737 238.693 
333.996 185.082 238.066 325.427 186.257 237.992 326.138 185.857 238.699 
327.816 186.413 238.264 338.027 179.108 238.055 337.637 180.182 238.57 
331.232 182.911 239.202 329.541 184.023 239.19 330.109 183.575 239.152 
326.823 185.536 238.916 335.086 183.503 239.092 325.681 186.07 238.37 
326.482 185.747 238.849 325.834 186.138 238.425 326.205 185.973 238.723 
326.116 186.105 238.622 328.304 186.247 238.711 336.242 181.279 239.129 
332.564 182.86 239.7 333.376 182.907 239.852 335.947 181.824 239.234 
330.809 183.457 239.402 333.809 183.213 239.873 334.076 183.571 239.733 
327.721 185.451 239.281 326.783 186.034 238.903 327.169 185.895 239.096 
332.88 184.956 239.261 327.108 186.082 238.928 328.125 186.076 239.028 
329.451 185.934 239.121 332.108 183.323 239.776 329.269 184.835 239.513 
331.048 184.386 239.815 332.347 183.995 239.936 330.652 184.797 239.756 
333.248 184.014 239.819 333.784 183.944 239.66 328.297 185.677 239.374 
331.76 184.837 239.718 327.499 185.948 239.133 328.522 185.84 239.291 
330.627 185.452 239.457 325.013 186.8 221.582 324.718 186.955 222.305 
324.718 186.955 222.305 324.718 186.955 222.305 324.718 186.955 222.305 
324.718 186.955 222.305 324.778 186.916 222.095 324.885 186.866 221.75 
324.818 186.892 221.906 324.586 187.04 223.127 324.586 187.04 223.127 
324.586 187.04 223.127 324.586 187.04 223.127 324.586 187.04 223.127 
324.61 187.022 222.913 324.61 187.022 222.913 324.61 187.022 222.913 
324.61 187.022 222.913 324.61 187.022 222.913 324.667 186.984 222.501 
324.667 186.984 222.501 324.667 186.984 222.501 324.667 186.984 222.501 
324.667 186.984 222.501 324.635 187.003 222.701 324.635 187.003 222.701 
324.635 187.003 222.701 324.587 187.062 224.023 324.587 187.062 224.023 
324.581 187.061 223.799 324.581 187.061 223.799 324.581 187.061 223.799 
324.576 187.049 223.344 324.576 187.049 223.344 324.576 187.049 223.344 
324.576 187.049 223.344 324.576 187.049 223.344 324.578 187.055 223.569 
324.578 187.055 223.569 324.578 187.055 223.569 324.578 187.055 223.569 
324.578 187.055 223.569 324.616 187.051 224.253 324.616 187.051 224.253 
324.616 187.051 224.253 324.66 187.044 224.514 324.801 186.976 225.202 
324.703 187.06 231.704 324.413 187.138 232.512 324.413 187.138 232.512 
[...]
POINT_DATA 469
SCALARS scalars float
LOOKUP_TABLE default
1 1 1 1 1 1 1 1 1 
1 1 1 1 1 1 1 1 1 
1 1 1 1 1 1 1 1 1 
1 1 1 1 1 1 1 1 1 
1 1 1 1 1 1 1 1 1 
1 1 1 1 1 1 1 1 1 
1 1 1 1 1 1 1 1 1 
1 1 1 1 1 1 1 1 1 
1 1 1 1 1 1 1 1 1 
1 1 1 1 1 1 1 1 1 
1 1 1 1 1 1 1 1 1 
1 1 1 1 1 1 1 1 1 
1 1 1 1 1 1 1 1 1 
1 1 1 1 1 1 1 1 1 
1 1 1 1 1 1 1 1 1 
1 1 1 1 1 1 1 1 1 
1 1 1 1 1 1 1 1 1 
1 1 1 1 1 1 1 1 1 
1 1 1 1 1 1 1 1 1 
1 1 1 1 1 1 1 1 1 
1 1 1 1 1 1 1 1 1 
1 1 1 1 1 1 1 1 1 
1 1 1 1 1 1 1 1 1 
1 1 1 1 1 1 1 1 1 
1 1 1 1 1 1 1 1 1 
1 1 1 1 1 1 1 1 1 
1 1 1 1 1 1 1 1 1 
1 1 1 1 1 1 1 1 1 
1 1 1 1 1 1 1 1 1 
1 1 1 1 1 1 1 1 1 
1 1 1 1 1 1 1 1 1 
1 1 1 1 1 1 1 1 1 
1 1 1 1 1 1 1 1 1 
1 1 1 1 1 1 1 1 1 
1 1 1 1 1 1 1 1 1 
1 1 1 1 1 1 1 1 1 
1 1 1 1 1 1 1 1 1 
1 1 1 1 1 1 1 1 1 
1 1 1 1 1 1 1 1 1 
1 1 1 1 1 1 1 1 1 
1 1 1 1 1 1 1 1 1 
1 1 1 1 1 1 1 1 1 
1 1 1 1 1 1 1 1 1 
1 1 1 1 1 1 1 1 1 
1 1 1 1 1 1 1 1 1 
1 1 1 1 1 1 1 1 1 
1 1 1 1 1 1 1 1 1 
1 1 1 1 1 1 1 1 1 
1 1 1 1 1 1 1 1 1 
1 1 1 1 1 1 1 1 1 
1 1 1 1 1 1 1 1 1 
1 1 1 1 1 1 1 1 1 
1 
NORMALS Normals float
-0.367601 -0.142135 -0.919058 -0.504979 0.231331 -0.831554 -0.504506 -0.0346636 -0.862712 
-0.119386 0.465061 -0.877192 -0.206646 0.00997421 -0.978365 0.0634045 0.0144669 -0.997883 
-0.256555 0.753899 -0.604827 -0.119321 0.618735 -0.776485 -0.046508 0.289123 -0.956161 
0.195248 0.559994 -0.805161 0.0132983 0.872777 -0.487938 0.189709 -0.310588 -0.931421 
0.460678 -0.0194088 -0.887355 0.508349 -0.0944565 -0.855955 -0.13254 -0.302506 -0.943887 
0.0981829 -0.276211 -0.956069 0.212649 -0.125149 -0.969081 0.519005 0.190065 -0.833372 
0.178623 -0.0991015 -0.978914 0.123051 0.031551 -0.991899 0.36242 0.105707 -0.926001 
-0.0730952 -0.212766 -0.974365 0.0802469 0.0532158 -0.995353 0.316638 0.316428 -0.894211 
-0.642939 -0.0812313 -0.761598 -0.541028 -0.392829 -0.743622 0.48939 0.532487 -0.690619 
0.355009 0.53583 -0.766064 0.18013 0.798783 -0.574019 -0.274178 -0.57891 -0.767913 
0.686481 0.341206 -0.642123 0.511997 0.452002 -0.730447 0.451444 0.595014 -0.664948 
0.0655628 0.934428 -0.350065 0.311249 0.851589 -0.421805 -0.0085089 -0.594452 -0.804086 
0.185218 -0.419222 -0.88879 -0.0981352 -0.608891 -0.78716 -0.247505 -0.715326 -0.65349 
0.62113 0.0290821 -0.783167 0.693393 0.163507 -0.701763 0.6745 0.375978 -0.635366 
0.622277 0.610671 -0.489747 -0.525311 -0.578235 -0.624254 -0.517296 -0.737259 -0.434573 
-0.508041 0.123137 -0.852486 -0.668539 -0.5034 -0.547397 -0.656925 -0.108194 -0.746153 
-0.620039 -0.0434464 -0.783367 -0.528344 0.316672 -0.787763 -0.796449 -0.2278 -0.560158 
-0.745082 0.278225 -0.606171 -0.429846 0.57395 -0.697003 -0.313174 0.672931 -0.670139 
-0.348514 0.839734 -0.416395 -0.15309 0.876561 -0.456295 -0.117115 0.921031 -0.371463 
-0.0437794 -0.507229 -0.860698 -0.153123 -0.673122 -0.723505 -0.0730276 -0.535291 -0.841505 
0.400326 -0.225407 -0.888218 -0.273667 -0.575423 -0.77071 0.268387 -0.30843 -0.9126 
0.259198 -0.26209 -0.929583 -0.364532 -0.777979 -0.511727 -0.176931 -0.617269 -0.766599 
-0.515802 -0.693783 -0.502607 0.646085 0.336006 -0.685328 0.73772 0.539171 -0.406281 
0.535048 0.777466 -0.33056 -0.909638 -0.27345 -0.312706 -0.934112 0.00974343 -0.356846 
-0.0872587 0.965855 -0.243947 0.153123 -0.565099 -0.810689 0.281138 -0.321303 -0.904282 
-0.506458 -0.706758 -0.493957 -0.522604 -0.784019 -0.334962 -0.733151 -0.65127 -0.195798 
-0.802853 -0.592229 0.0684956 -0.775701 -0.631072 0.00596758 0.419679 0.870578 -0.256833 
0.363066 0.931427 0.0250376 -0.125181 -0.558476 -0.820021 0.392901 -0.404384 -0.825895 
-0.0351085 -0.571568 -0.819803 0.685822 -0.259096 -0.680086 0.478674 -0.166297 -0.8621 
-0.103876 -0.461147 -0.881223 -0.343035 -0.681116 -0.646845 0.723645 0.617282 -0.308708 
-0.979794 -0.160592 0.119225 -0.817708 -0.158352 0.553424 -0.82484 0.464276 0.322623 
-0.127373 -0.973506 0.189901 -0.417114 -0.904491 0.0889464 -0.190154 0.981605 0.0170923 
-0.81622 0.423546 -0.39293 -0.307769 -0.72709 -0.613692 0.311276 -0.607285 -0.730966 
0.908983 0.00192063 -0.416828 -0.53731 -0.768286 -0.347901 0.780856 0.263017 -0.566645 
-0.592679 -0.800908 -0.085315 0.753934 0.578811 -0.310744 -0.690849 -0.689637 -0.217093 
0.596965 0.792857 -0.122514 -0.743547 0.667681 0.0366082 0.265785 0.962353 -0.0568717 
-0.218112 -0.968689 0.118615 -0.322254 -0.942456 0.0890402 0.216522 0.975532 -0.0381526 
-0.5701 -0.821031 -0.0298966 -0.374402 -0.863953 -0.336761 0.72407 -0.444869 -0.52708 
0.274911 -0.789419 -0.548855 -0.403163 -0.763731 -0.504158 0.00439667 -0.736893 -0.675995 
0.857341 0.14625 -0.493536 -0.370067 -0.928295 0.0363053 -0.370067 -0.928295 0.0363053 
-0.31185 -0.948354 0.058089 -0.479069 0.877775 -0.00216981 -0.502698 -0.864442 0.00586131 
-0.328703 -0.912157 -0.244795 0.852901 -0.432862 -0.291875 -0.530402 -0.783922 -0.322708 
-0.99417 -0.0356673 -0.101754 -0.816426 0.570472 -0.0894998 -0.666924 -0.744884 0.0189829 
-0.666924 -0.744884 0.0189829 -0.47436 -0.88016 0.0173463 -0.165808 0.983593 -0.0710812 
-0.371566 -0.927948 0.0291783 0.358694 -0.900835 -0.244611 -0.509156 -0.806758 -0.299836 
0.942643 -0.261993 -0.206841 0.96939 -0.0755806 -0.233602 0.931269 0.299819 -0.206996 
0.809095 0.563536 -0.166713 0.592936 0.803079 -0.0590856 -0.889428 0.378322 -0.256497 
-0.835719 -0.542422 0.0857467 -0.0994643 0.993532 0.0547904 -0.411167 -0.911501 0.0103322 
-0.681021 0.703921 -0.201757 0.725415 0.680361 -0.104318 -0.913764 -0.354366 -0.198648 
-0.877281 -0.0066788 -0.479931 -0.579448 -0.814474 -0.0295183 -0.774255 0.62445 0.10291 
-0.36577 -0.930201 -0.0306268 -0.63546 0.594227 -0.493036 0.634307 0.755792 -0.162583 
-0.0149636 -0.992181 -0.123911 0.717044 -0.695984 -0.0381406 0.854858 -0.510155 -0.0946535 
-0.609307 -0.792931 0.00246651 -0.821006 -0.570185 0.0289525 -0.857269 -0.51378 -0.0334781 
-0.134565 0.302254 -0.943681 -0.0521929 0.990461 -0.127524 0.273505 0.948085 -0.162265 
-0.336364 -0.938601 -0.0767293 0.974505 -0.220366 -0.0421732 0.994798 0.0872746 -0.0525443 
0.921224 0.388844 -0.0120916 -0.663639 -0.739983 0.109582 -0.988327 0.150552 0.0233344 
-0.261342 0.9649 0.0258401 0.719796 0.692572 -0.0473122 -0.960486 -0.275045 -0.042617 
0.359986 -0.932911 0.00933893 0.907085 -0.419337 -0.0367777 -0.49893 -0.864075 0.0666501 
0.930802 0.362647 0.0457621 -0.820898 -0.561931 0.101783 -0.99307 -0.100966 -0.0601461 
0.528294 -0.845983 -0.0722305 0.764423 -0.641582 -0.0634804 0.855672 -0.493792 -0.154901 
-0.831491 -0.523076 0.187118 -0.689057 -0.7155 0.115154 -0.967558 -0.207552 -0.14406 
0.174718 0.982142 0.0697939 -0.644388 0.757569 -0.104177 0.989968 -0.0714781 0.121876 
-0.743675 -0.249112 0.620396 -0.894309 0.204734 0.397864 -0.987056 0.077518 0.140398 
0.00726834 -0.990592 0.136654 -0.42447 -0.904456 0.0422486 -0.273349 0.949815 0.152089 
-0.80685 0.54348 -0.231565 -0.263609 -0.941558 0.209709 -0.875251 -0.479348 0.0645107 
-0.877182 0.44263 0.186092 0.180576 0.983561 0.000693436 -0.0715911 -0.994993 0.0697399 
-0.200284 -0.979176 0.0331691 -0.109755 0.992121 -0.0604064 -0.516818 -0.852971 -0.0730662 
0.527133 -0.816955 0.233912 -0.638999 -0.745163 0.19082 -0.843527 0.534251 0.0551306 
-0.324689 -0.944801 -0.0438983 -0.324689 -0.944801 -0.0438983 -0.299335 0.94605 -0.124045 
0.0873714 0.993215 0.0767423 -0.445597 -0.893439 -0.0566626 0.950537 -0.225613 0.213492 
-0.524859 -0.792226 0.311288 0.957297 0.159847 0.240896 0.886986 0.342484 0.309774 
-0.556789 -0.799118 0.226707 0.833256 0.520249 0.187152 0.534959 0.838735 0.1017 
-0.888048 -0.459742 0.00276175 -0.958739 0.281795 -0.0375609 -0.452075 -0.889691 -0.0638654 
-0.452075 -0.889691 -0.0638654 -0.498511 -0.864114 -0.069243 -0.569925 0.816629 0.0911223 
-0.109217 0.987618 0.112618 -0.426109 -0.902562 -0.0617455 0.491972 -0.783758 0.379061 
-0.00203446 -0.832866 0.553471 0.847861 -0.344379 0.403155 -0.155852 -0.823171 0.545985 
0.905716 -0.128206 0.404031 -0.430953 -0.808564 0.400629 0.765402 0.437811 0.471679 
-0.758597 0.648539 -0.0626688 -0.51758 -0.854154 -0.0503192 -0.51758 -0.854154 -0.0503192 
-0.455893 -0.887822 -0.0627172 -0.17714 0.983137 0.0454136 -0.457622 -0.887019 -0.0614794 
0.176348 -0.68675 0.705178 -0.160415 -0.851685 0.498898 0.214054 -0.731031 0.6479 
0.481612 -0.563234 0.671429 -0.0507411 -0.760022 0.647913 0.74258 -0.190723 0.642028 
0.919948 0.023015 0.391365 -0.566781 -0.684077 0.459127 -0.971032 -0.0753728 -0.22675 
-0.728629 0.617709 -0.295863 -0.328081 -0.937417 -0.116673 -0.682556 0.639932 0.352994 
-0.408218 -0.910052 -0.0718564 0.262532 0.959003 0.10673 0.238428 -0.639485 0.730897 
0.685696 -0.329856 0.648858 0.036956 -0.683296 0.729206 0.547614 -0.441212 0.71095 
-0.208082 -0.686337 0.696881 0.811237 0.077059 0.579617 0.681336 0.253053 0.686837 
0.740149 0.470356 0.480568 -0.573031 -0.762089 0.301423 -0.775158 -0.601611 -0.192859 
-0.782812 0.213484 -0.584491 -0.363596 -0.917572 -0.160813 -0.936897 -0.0954763 0.336317 
-0.180154 -0.958091 -0.222722 -0.216706 0.934466 -0.28251 0.0222843 0.977397 0.210235 
-0.117639 -0.651134 0.74979 0.371899 -0.537022 0.757165 0.68616 -0.129981 0.715744 
-0.158435 -0.595796 0.787354 0.774161 0.0285711 0.632343 -0.358918 -0.646691 0.67303 
0.64646 0.232209 0.726752 0.944682 -0.05876 0.322681 0.348214 0.566018 0.747242 
-0.587409 -0.791568 0.168435 0.573777 0.742571 0.345497 -0.288469 -0.102778 -0.951957 
-0.807176 -0.58851 0.0460711 -0.763914 0.453063 0.459532 0.152491 0.987955 -0.0262916 
0.419061 0.904616 -0.0778299 0.31151 0.932756 0.181462 -0.243306 0.914018 0.324611 
0.353665 -0.392764 0.848915 0.0834043 -0.523605 0.847869 0.183096 -0.289853 0.939394 
0.0782901 -0.363841 0.928165 0.447739 -0.085742 0.890044 -0.300767 -0.666236 0.6824 
0.476554 -0.206233 0.854613 0.770307 0.364171 0.523456 -0.648289 -0.716294 0.258155 
-0.827887 -0.543098 0.140172 -0.908283 0.197809 0.368637 -0.116865 0.953432 0.278047 
-0.233049 -0.59271 0.770963 0.380596 -0.390344 0.838319 0.270954 -0.308812 0.911712 
0.452063 -0.105065 0.885777 0.606817 0.0106357 0.79477 -0.334516 -0.710818 0.618738 
0.638981 0.187718 0.745966 -0.410487 -0.698118 0.586627 -0.536886 -0.700277 0.470495 
0.605147 0.39985 0.688417 -0.487184 -0.759474 0.431104 -0.727048 -0.513751 0.455478 
-0.902885 -0.0065625 0.429833 -0.647996 -0.228959 0.726415 -0.515979 -0.624583 0.586227 
0.420802 0.815938 0.396448 -0.422186 0.786772 0.450277 -0.527475 -0.212375 0.822598 
-0.0205625 0.969083 0.245876 0.172416 -0.372582 0.911842 0.332023 -0.145895 0.93192 
-0.245074 -0.568467 0.785356 -0.417319 -0.485869 0.767968 -0.43244 -0.538343 0.723314 
-0.437323 -0.573213 0.692947 0.512506 0.564361 0.647174 -0.682705 0.235427 0.691729 
-0.433961 -0.480222 0.762276 -0.449006 0.527541 0.721175 -0.43021 0.225728 0.874051 
-0.30308 0.632154 0.713109 0.121497 0.967963 0.21974 0.173552 -0.14442 0.974178 
-0.183593 -0.30621 0.934093 -0.0748286 -0.357963 0.930733 0.264783 -0.0231661 0.96403 
-0.325003 -0.494445 0.806162 0.112614 0.0826696 0.990194 0.418028 0.457247 0.78497 
-0.294644 -0.174954 0.939455 -0.164551 0.813925 0.55718 -0.267596 0.335877 0.903094 
0.311244 0.703285 0.639154 -0.115975 0.795169 0.595195 -0.000332331 0.830787 0.556591 
0.2252 0.800482 0.55544 -0.244144 -0.470132 0.848156 -0.340613 -0.322636 0.883113 
-0.161273 -0.0830557 0.983409 -0.0110014 0.0234689 0.999664 -0.161938 -0.0812855 0.983447 
0.190724 0.394548 0.898864 0.426394 0.523961 0.737328 -0.055516 0.31074 0.948872 
0.0938231 0.415733 0.904634 -0.110514 0.660603 0.742557 0.0426331 0.663534 0.74693 
0.234972 0.847754 0.475501 0.664012 0.694434 0.277217 0.449159 0.893413 -0.00827156 
-0.370067 -0.928295 0.0363053 0.591054 0.806458 0.0167412 -0.31185 -0.948354 0.058089 
0.399627 0.916178 -0.0302777 0.591054 0.806458 0.0167412 -0.31185 -0.948354 0.058089 
-0.206439 0.948109 -0.241811 0.399627 0.916178 -0.0302777 -0.666924 -0.744884 0.0189829 
0.443346 0.89599 -0.0254252 -0.47436 -0.88016 0.0173463 0.387521 0.921575 -0.0229788 
0.591054 0.806458 0.0167412 -0.419403 -0.907248 0.0316496 0.443346 0.89599 -0.0254252 
-0.371566 -0.927948 0.0291783 0.482702 0.87553 -0.021149 0.399627 0.916178 -0.0302777 
0.039724 0.988894 -0.143218 -0.536253 -0.844042 -0.00503433 -0.47436 -0.88016 0.0173463 
0.32032 0.946502 -0.039113 0.482702 0.87553 -0.021149 0.32032 0.946502 -0.039113 
-0.417393 -0.908312 0.0274359 0.387521 0.921575 -0.0229788 -0.895121 -0.43852 0.0803635 
0.443346 0.89599 -0.0254252 -0.371566 -0.927948 0.0291783 0.393222 0.919194 -0.0214458 
0.387521 0.921575 -0.0229788 0.32032 0.946502 -0.039113 -0.417393 -0.908312 0.0274359 
-0.495456 -0.86831 0.0236829 0.559696 0.828276 -0.0264488 0.482702 0.87553 -0.021149 
-0.417393 -0.908312 0.0274359 0.461472 0.886674 -0.0292217 0.559696 0.828276 -0.0264488 
-0.192279 -0.981328 0.00484213 0.559696 0.828276 -0.0264488 -0.192279 -0.981328 0.00484213 
0.863266 0.487918 -0.129259 -0.192279 -0.981328 0.00484213 0.941343 0.26438 -0.209706 
0.515085 0.836362 0.187578 -0.0782105 0.99447 -0.0700868 -0.324689 -0.944801 -0.0438983 
0.724293 0.678545 0.122377 0.724293 0.678545 0.122377 -0.287154 0.947811 -0.138553 
0.352088 0.934701 0.0486572 -0.452075 -0.889691 -0.0638654 0.491161 0.868702 0.0641753 
-0.498511 -0.864114 -0.069243 0.397693 0.915268 0.064224 0.724293 0.678545 0.122377 
-0.417753 -0.907077 -0.0518998 0.491161 0.868702 0.0641753 -0.426109 -0.902562 -0.0617455 
0.539879 0.838979 0.0681493 -0.655932 -0.747186 -0.107081 -0.498511 -0.864114 -0.069243 
0.270429 0.961818 0.0421303 0.539879 0.838979 0.0681493 0.270429 0.961818 0.0421303 
-0.477005 -0.876608 -0.0634419 0.397693 0.915268 0.064224 -0.51758 -0.854154 -0.0503192 
0.431513 0.899751 0.0651549 -0.455893 -0.887822 -0.0627172 0.449003 0.891255 0.0637272 
0.491161 0.868702 0.0641753 -0.426109 -0.902562 -0.0617455 0.431513 0.899751 0.0651549 
-0.457622 -0.887019 -0.0614794 0.461527 0.885028 0.0609743 0.397693 0.915268 0.064224 
0.270429 0.961818 0.0421303 -0.477005 -0.876608 -0.0634419 -0.455893 -0.887822 -0.0627172 
0.443785 0.893887 0.0634135 0.539879 0.838979 0.0681493 -0.477005 -0.876608 -0.0634419 
0.461527 0.885028 0.0609743 0.443785 0.893887 0.0634135 -0.417103 -0.906502 -0.0654133 
0.449003 0.891255 0.0637272 -0.59313 -0.805077 -0.0068699 0.33611 0.936985 0.0953356 
-0.408218 -0.910052 -0.0718564 0.937074 -0.181948 -0.297971 0.431513 0.899751 0.0651549 
-0.457622 -0.887019 -0.0614794 0.089469 0.983275 0.158638 0.449003 0.891255 0.0637272 
0.443785 0.893887 0.0634135 -0.417103 -0.906502 -0.0654133 -0.408218 -0.910052 -0.0718564 
0.475704 0.877869 0.0552447 0.461527 0.885028 0.0609743 -0.417103 -0.906502 -0.0654133 
0.406264 0.911013 0.0707514 0.475704 0.877869 0.0552447 -0.145206 -0.980068 -0.135579 
0.465271 -0.830071 -0.307416 0.475704 0.877869 0.0552447 -0.145206 -0.980068 -0.135579 
0.495069 0.868293 0.0311945 -0.145206 -0.980068 -0.135579 0.558269 0.827827 -0.0551224 
0.396156 -0.891506 -0.21972 
