# vtk DataFile Version 4.2
vtk output
ASCII
DATASET POLYDATA
POINTS 383 float
389.925 166.242 208.661 391.934 166.343 208.3 393.073 166.684 208.193 
389.352 167.925 208.188 392.05 167.366 208.069 388.53 168.51 208.319 
391.467 168.425 208.062 387.524 169.354 208.675 387.251 169.538 208.865 
388.505 169.423 208.388 389.261 169.969 208.423 389.562 170.227 208.534 
391.865 169.552 208.451 393.819 164.374 209.447 388.61 165.554 209.626 
390.736 164.974 209.431 392.017 165.309 208.869 396.97 164.666 209.355 
396.28 165.557 208.937 397.969 165.419 209.224 398.268 165.108 209.364 
387.189 166.957 209.472 387.372 166.383 209.74 397.657 165.882 209.118 
399.286 165.574 209.6 395.726 166.915 208.724 399.31 166.269 209.663 
394.616 167.922 208.584 397.15 166.966 209.103 386.226 169.492 209.608 
396.949 168.398 209.661 393.158 170.493 209.396 390.111 171.184 209.273 
399.607 164.08 210.353 396.207 164.173 209.656 398.384 164.688 209.608 
400.972 164.565 210.82 388.022 165.527 209.988 386.583 166.683 210.341 
386.116 167.703 210.018 399.148 166.989 209.88 399.617 167.156 210.292 
400.034 167.065 210.568 400.721 166.483 210.911 385.197 169.999 210.841 
397.013 168.882 210.036 399.812 167.329 210.62 396.673 169.282 210.18 
385.37 170.698 210.949 386.25 170.797 210.109 385.837 171.246 210.805 
386.034 171.438 210.799 388.901 172.016 210.172 396.317 163.591 210.446 
398.01 163.598 210.579 390.534 164.106 210.601 397.559 163.888 210.132 
400.154 163.96 210.647 387.722 165.285 210.721 389.111 164.458 211.012 
400.67 164.167 210.721 401.22 164.956 211.231 385.015 169.381 211.107 
397.7 168.887 210.695 399.164 167.939 210.91 384.962 170.383 211.64 
396.868 169.404 210.536 385.297 171.148 211.626 395.354 170.345 210.654 
386.459 171.997 211.31 390.786 172.349 210.858 390.38 163.799 211.368 
391.423 163.428 212.075 398.962 163.324 211.405 400.176 163.61 211.273 
400.933 163.842 211.415 389.57 163.957 211.926 401.038 163.977 211.365 
386.477 166.262 211.426 385.117 168.61 211.275 384.968 168.863 211.507 
400.981 166.485 211.546 384.823 170.248 212.103 385.068 170.833 211.75 
395.903 170.268 211.591 385.857 171.833 211.899 391.719 172.207 211.043 
388.476 172.589 211.651 395.491 163.131 212.116 401.062 163.922 211.551 
389.567 163.95 212.5 387.755 165.102 212.35 401.512 164.584 212.083 
401.539 164.888 212.02 401.602 164.998 212.366 401.438 165.651 212.16 
385.585 167.48 212.311 385.299 167.991 211.945 400.845 166.755 211.904 
399.425 168.013 211.855 392.118 172.214 211.802 387.641 172.58 212.322 
388.95 172.655 212.049 390.362 172.553 211.865 390.395 163.632 212.876 
397.102 163.113 212.527 401.589 164.723 212.592 401.186 166.175 212.619 
384.889 168.99 212.454 384.8 169.493 212.665 399.878 167.617 212.512 
398.777 168.368 212.528 384.965 170.869 213.269 395.343 170.563 212.636 
385.114 171.217 212.998 385.353 171.57 213.264 386.003 172.171 213.146 
386.833 172.442 212.979 390.898 172.455 212.308 392.394 163.504 213.445 
397.788 163.191 212.955 399.844 163.363 212.625 401.266 164.151 212.904 
401.472 164.432 212.756 386.862 166.133 213.407 401.482 165.051 213.126 
385.968 167.189 213.258 401.073 166.21 212.967 400.346 166.833 213.208 
384.859 169.594 213.186 398.835 167.839 213.415 385.895 172.078 213.448 
390.53 172.266 213.411 387.883 172.511 213.283 390.618 163.81 213.563 
391.578 163.797 213.892 396.866 163.388 213.567 389.049 164.598 213.666 
401.142 164.16 213.252 401.378 164.723 213.317 387.164 166.308 214.195 
401.245 165.354 213.553 401.07 165.471 213.694 399.738 166.902 213.742 
396.65 169.194 213.649 385.057 170.609 213.932 393.65 170.914 213.83 
385.454 171.515 214.025 385.61 171.734 213.923 389.096 172.368 213.599 
395.335 163.869 214.311 400.191 163.619 213.297 388.447 165.664 214.589 
401.193 164.423 213.445 387.788 166.11 214.611 401.093 164.952 213.764 
400.836 165.362 213.891 400.893 165.069 213.909 386.072 168.226 214.549 
385.78 168.385 214.297 399.739 166.06 214.2 396.867 168.417 214.195 
385.24 170.976 214.159 385.776 171.555 214.348 385.893 171.796 214.176 
386.218 171.892 214.299 390.015 171.841 214.303 386.434 172.04 214.208 
398.293 163.846 214.119 399.613 163.786 213.796 400.511 163.815 213.445 
396.117 164.595 214.835 397.493 164.319 214.57 398.922 164.133 214.261 
400.105 164.064 213.899 400.604 164.07 213.664 398.162 164.645 214.639 
399.481 164.438 214.312 400.028 164.38 214.13 395.734 165.561 215.148 
400.379 164.658 214.099 387.456 167.198 215.054 388.601 166.945 215.418 
391.355 166.571 215.676 396.396 165.998 215.098 399.344 165.301 214.492 
389.611 167.106 215.713 392.797 167.491 215.69 385.769 169.13 214.634 
386.599 169.191 215.269 394.124 168.397 215.251 385.812 170.838 214.713 
386.245 171.145 214.86 389.95 170.463 215.487 386.674 171.15 215.07 
389.016 170.934 215.324 391.602 166.969 215.798 387.24 169.635 215.577 
388.367 169.165 215.807 389.516 169.417 215.866 391.456 167.369 240.458 
388.425 168.364 240.535 387.908 169.058 240.698 388.735 169.351 240.472 
390.381 169.183 240.406 388.131 169.733 240.716 389.937 170.116 240.739 
400.672 163.917 241.856 400.822 163.785 241.97 401.031 163.785 242.049 
396.734 164.122 241.656 401.143 163.891 242.027 401.248 163.975 242.119 
389.924 165.754 241.317 393.137 165.364 241.185 396.204 164.945 241.295 
399.099 164.68 241.477 400.279 164.478 241.677 401.069 164.307 241.984 
388.763 165.876 241.545 394.642 165.771 241.054 399.504 164.989 241.532 
392.144 166.89 240.651 396.114 166.169 241.14 386.52 167.862 241.648 
399.038 166.002 241.678 400.772 165.467 242.139 396.313 167.342 241.383 
386.376 169.003 241.571 385.632 170.109 242.289 385.839 170.413 242.21 
389.875 171.393 241.727 401.079 163.738 242.191 390.803 164.437 242.277 
392.324 164.378 241.939 392.891 163.92 242.315 388.541 165.38 242.174 
401.482 164.756 242.517 401.181 165.544 242.538 398.455 167.181 242.062 
385.487 169.211 242.445 385.726 170.846 242.575 388.994 171.79 242.208 
394.249 163.473 242.689 399.606 163.356 242.624 401.201 163.8 242.313 
391.217 163.887 242.888 401.632 164.384 242.81 401.658 164.617 242.764 
401.728 164.541 242.981 387.323 165.977 242.473 401.626 165.16 242.905 
401.722 165.073 243.098 385.122 168.947 243.071 397.257 168.738 242.654 
386.13 171.529 243.011 390.96 171.685 242.206 388.591 172.364 243.25 
391.239 163.689 243.407 389.511 164.21 243.497 390.265 163.971 243.395 
401.751 164.616 243.256 386.895 166.031 243.168 401.722 165.24 243.424 
400.694 166.737 243.326 384.931 169.407 243.575 399.476 167.776 243.331 
384.947 170.277 243.956 395.703 170.118 243.082 385.328 170.877 243.402 
386.031 171.91 243.989 390.538 172.127 242.837 387.311 172.501 244.169 
389.828 172.431 243.496 391.214 172.183 243.395 390.142 163.723 244.483 
393.685 163.119 244.327 401.759 165.062 243.649 386.336 166.455 244.522 
401.685 165.354 243.803 401.407 165.946 243.757 384.944 169.014 243.884 
400.753 166.831 243.992 397.332 169.363 243.628 398.287 168.846 244.205 
395.444 170.572 243.952 396.748 169.878 244.132 385.54 171.602 244.675 
393.45 171.495 243.942 392.233 171.969 244.141 386.624 172.359 244.682 
388.941 172.618 244.189 390.575 163.601 245.287 392.653 163.232 245.05 
399.107 163.182 244.002 389.563 164.049 245.237 401.167 164.127 244.156 
401.59 164.497 243.817 401.618 164.724 244.008 400.598 166.979 244.509 
384.859 170.041 244.721 395.977 170.318 244.803 396.62 169.973 244.646 
394.764 170.914 244.634 387.51 172.579 244.952 390.117 172.516 244.5 
390.443 163.712 245.636 398.305 163.219 244.681 390.046 163.935 245.739 
386.395 166.761 245.812 401.46 165.513 244.489 385.108 168.786 245.26 
384.93 170.086 245.197 397.732 169.286 244.948 397.888 169.111 245.174 
399.05 168.205 245.109 391.723 172.037 245.261 386.406 172.218 245.552 
387.916 172.554 245.336 389.269 172.55 245.125 391.021 163.756 246.158 
393.214 163.461 246.021 394.731 163.423 245.946 399.939 163.754 245.003 
389.554 164.57 246.404 388.937 164.697 246.036 400.441 164.082 245.064 
387.828 165.649 246.374 385.772 167.798 246.029 385.076 169.115 245.456 
400.515 166.731 245.201 399.631 167.566 245.474 396.704 169.553 245.929 
385.277 170.934 245.897 395.316 170.463 245.556 385.507 171.393 245.893 
392.517 171.548 245.79 386.342 172.089 245.842 392.573 163.852 246.656 
398.763 163.706 245.48 398.567 164.013 245.946 387.87 165.895 246.729 
397.595 164.34 246.558 399 164.39 246.131 399.494 164.496 245.986 
399.696 164.826 246.062 387.3 166.394 246.654 400.116 165.019 245.837 
386.364 167.163 246.351 385.729 168.076 246.192 399.874 166.254 246.028 
385.889 168.202 246.44 398.721 167.165 246.505 398.908 166.8 246.525 
398.158 167.806 246.48 396.175 169.232 246.639 385.655 170.743 246.536 
387.16 171.93 246.458 388.062 172.226 246.161 392.327 164.483 247.257 
395.647 164.319 247.007 388.147 165.933 246.966 389.38 165.531 247.228 
388.287 166.155 247.18 394.758 165.321 247.794 396.136 165.893 247.677 
396.309 166.235 247.685 398.371 165.766 246.848 396.235 167.149 247.625 
386.483 169.278 247.191 393.376 169.09 247.821 386.287 170.178 247.126 
386.463 170.435 247.182 387.441 171.648 246.799 388.406 171.236 247.186 
389.555 171.537 246.873 392.456 165.415 247.854 388.362 167.354 247.621 
392.609 167.02 248.239 394.642 167.134 248.026 387.433 169.578 247.624 
388.61 169.224 247.915 392.217 168.207 248.22 
POLYGONS 758 3032
3 0 4 1 
3 1 2 16 
3 0 5 3 
3 4 0 3 
3 4 3 6 
3 2 1 4 
3 27 2 4 
3 6 3 5 
3 4 6 12 
3 27 4 12 
3 9 5 7 
3 6 5 10 
3 10 5 9 
3 10 9 7 
3 10 11 6 
3 12 6 11 
3 14 0 59 
3 59 0 15 
3 15 16 55 
3 13 16 2 
3 34 53 13 
3 14 37 22 
3 0 14 5 
3 1 15 0 
3 16 15 1 
3 34 13 18 
3 18 13 2 
3 17 34 18 
3 38 21 22 
3 14 22 5 
3 25 18 2 
3 19 17 23 
3 23 17 18 
3 20 19 24 
3 22 21 5 
3 25 2 27 
3 18 25 28 
3 23 18 28 
3 19 23 28 
3 24 19 26 
3 26 19 28 
3 5 39 7 
3 5 21 39 
3 28 25 30 
3 30 26 28 
3 25 27 31 
3 30 25 31 
3 7 39 8 
[...]
POINT_DATA 383
SCALARS scalars float
LOOKUP_TABLE default
1 1 1 1 1 1 1 1 1 
1 1 1 1 1 1 1 1 1 
1 1 1 1 1 1 1 1 1 
1 1 1 1 1 1 1 1 1 
1 1 1 1 1 1 1 1 1 
1 1 1 1 1 1 1 1 1 
1 1 1 1 1 1 1 1 1 
1 1 1 1 1 1 1 1 1 
1 1 1 1 1 1 1 1 1 
1 1 1 1 1 1 1 1 1 
1 1 1 1 1 1 1 1 1 
1 1 1 1 1 1 1 1 1 
1 1 1 1 1 1 1 1 1 
1 1 1 1 1 1 1 1 1 
1 1 1 1 1 1 1 1 1 
1 1 1 1 1 1 1 1 1 
1 1 1 1 1 1 1 1 1 
1 1 1 1 1 1 1 1 1 
1 1 1 1 1 1 1 1 1 
1 1 1 1 1 1 1 1 1 
1 1 1 1 1 1 1 1 1 
1 1 1 1 1 1 1 1 1 
1 1 1 1 1 1 1 1 1 
1 1 1 1 1 1 1 1 1 
1 1 1 1 1 1 1 1 1 
1 1 1 1 1 1 1 1 1 
1 1 1 1 1 1 1 1 1 
1 1 1 1 1 1 1 1 1 
1 1 1 1 1 1 1 1 1 
1 1 1 1 1 1 1 1 1 
1 1 1 1 1 1 1 1 1 
1 1 1 1 1 1 1 1 1 
1 1 1 1 1 1 1 1 1 
1 1 1 1 1 1 1 1 1 
1 1 1 1 1 1 1 1 1 
1 1 1 1 1 1 1 1 1 
1 1 1 1 1 1 1 1 1 
1 1 1 1 1 1 1 1 1 
1 1 1 1 1 1 1 1 1 
1 1 1 1 1 1 1 1 1 
1 1 1 1 1 1 1 1 1 
1 1 1 1 1 1 1 1 1 
1 1 1 1 1 
NORMALS Normals float
-0.244508 -0.485144 -0.839554 -0.0998526 -0.397031 -0.912357 0.1014 -0.227181 -0.968559 
-0.16457 -0.1554 -0.974047 0.0507495 -0.0432006 -0.997777 -0.297016 -0.17268 -0.939129 
0.0448502 0.170514 -0.984334 -0.36802 0.246465 -0.896558 -0.496211 0.20014 -0.844819 
-0.195705 0.199368 -0.960183 -0.177591 0.443714 -0.878396 -0.0270221 0.489744 -0.871447 
0.206371 0.44688 -0.870465 -0.0354924 -0.70979 -0.703518 -0.311055 -0.59937 -0.737564 
-0.241118 -0.658317 -0.713078 -0.075154 -0.60656 -0.791478 0.107566 -0.510692 -0.853008 
0.117224 -0.257441 -0.959157 0.238832 -0.124602 -0.963034 0.175231 -0.37012 -0.912308 
-0.520768 -0.411739 -0.747845 -0.492047 -0.566752 -0.660819 0.275866 -0.0386956 -0.960417 
0.451664 -0.121823 -0.883832 0.292924 0.210387 -0.932702 0.457569 0.241543 -0.855738 
0.285699 0.270112 -0.919465 0.330167 0.19744 -0.923042 -0.687577 0.12936 -0.714495 
0.39035 0.501481 -0.772103 0.330259 0.59853 -0.729857 0.0113171 0.694372 -0.719528 
0.198659 -0.714595 -0.670738 0.0583096 -0.642254 -0.76427 0.197203 -0.520179 -0.830978 
0.795324 -0.191595 -0.57511 -0.508258 -0.682616 -0.52508 -0.685164 -0.561926 -0.463454 
-0.739653 -0.286246 -0.609079 0.384473 0.545414 -0.744785 0.475727 0.54006 -0.694276 
0.622738 0.475664 -0.621242 0.766546 0.444907 -0.463104 -0.821545 0.126615 -0.555907 
0.510621 0.58273 -0.632212 0.536482 0.712791 -0.451792 0.416989 0.70866 -0.569141 
-0.788484 0.356332 -0.501319 -0.375185 0.561239 -0.737731 -0.690792 0.432702 -0.579289 
-0.500495 0.690179 -0.522645 -0.0951945 0.842861 -0.529645 0.0415805 -0.876655 -0.479319 
0.0695562 -0.868596 -0.490614 -0.212987 -0.844992 -0.490535 0.0921207 -0.810975 -0.577784 
0.285407 -0.762051 -0.581224 -0.577153 -0.77819 -0.247618 -0.440546 -0.82808 -0.346702 
0.457224 -0.46082 -0.760652 0.895371 0.0917419 -0.435769 -0.9337 -0.0686781 -0.351409 
0.571178 0.709134 -0.413381 0.51044 0.808098 -0.293986 -0.933917 0.251361 -0.254198 
0.573677 0.768148 -0.284331 -0.720058 0.621089 -0.309458 0.401446 0.838478 -0.368505 
-0.363641 0.840145 -0.402395 0.183135 0.857397 -0.48097 -0.264475 -0.930129 -0.254782 
-0.110217 -0.973584 -0.199966 0.117535 -0.962495 -0.244516 0.220472 -0.911156 -0.348118 
0.512125 -0.773538 -0.373319 -0.43208 -0.88385 -0.179208 0.784847 -0.464713 -0.409948 
-0.71786 -0.673402 -0.176657 -0.857922 -0.429727 -0.281611 -0.959146 -0.234694 -0.157979 
0.858689 0.478778 -0.182826 -0.986179 0.114916 -0.119352 -0.86388 0.413093 -0.288212 
0.515456 0.844691 -0.144228 -0.636604 0.739483 -0.218864 0.260972 0.916544 -0.303053 
-0.0782267 0.97812 -0.192772 -0.0127385 -0.988315 -0.151892 0.8227 -0.538798 -0.181278 
-0.57372 -0.814618 0.0851114 -0.581568 -0.807462 0.0989173 0.926005 -0.343204 -0.157243 
0.940531 -0.0661013 -0.333215 0.997657 0.0549048 -0.0408245 0.957382 0.27083 -0.100355 
-0.820806 -0.566207 -0.0754196 -0.888572 -0.455568 0.0538323 0.727695 0.685862 0.00729703 
0.600124 0.792016 -0.112081 0.351332 0.935613 0.0345489 -0.166956 0.985675 -0.0238746 
0.049049 0.998554 -0.021981 0.0650454 0.996042 -0.0605773 -0.261638 -0.939295 0.221971 
-0.0271378 -0.996703 0.0764666 0.982552 -0.167324 0.081206 0.882528 0.45945 0.100251 
-0.964088 -0.264835 0.0199047 -0.972346 -0.202778 0.115866 0.620944 0.767123 0.161091 
0.521341 0.805656 0.281287 -0.951588 0.277969 0.131197 0.488637 0.858391 0.1562 
-0.850438 0.524394 -0.042021 -0.8071 0.586954 0.0638387 -0.527291 0.846592 -0.0724303 
-0.170236 0.978327 0.117883 0.18125 0.98285 0.0339718 -0.0854777 -0.916852 0.389968 
0.0797055 -0.963507 0.25554 0.305634 -0.94787 0.0901708 0.71479 -0.685081 0.140496 
0.914919 -0.36989 0.161566 -0.684984 -0.671982 0.281493 0.961004 0.103731 0.256342 
-0.814121 -0.481445 0.324681 0.78322 0.492714 0.379209 0.648279 0.593673 0.476746 
-0.973206 -0.0883971 0.212264 0.422663 0.653909 0.627502 -0.517149 0.832014 0.200771 
0.196798 0.928712 0.314267 -0.0259613 0.920567 0.389721 -0.296227 -0.834487 0.464631 
-0.122123 -0.704516 0.699102 -0.0182472 -0.885386 0.464498 -0.464821 -0.778609 0.421555 
0.719319 -0.575794 0.38864 0.876541 -0.236857 0.419016 -0.622544 -0.56541 0.541064 
0.832077 0.19514 0.5192 0.613082 0.360128 0.703163 0.501497 0.623302 0.599996 
0.39882 0.612421 0.682556 -0.891041 0.170018 0.420881 0.346749 0.746547 0.567832 
-0.768412 0.536486 0.348892 -0.636601 0.748884 0.184152 0.0520449 0.920848 0.386432 
-0.0636507 -0.778387 0.62455 0.247357 -0.83334 0.494326 -0.274103 -0.648631 0.710032 
0.609682 -0.438399 0.660374 -0.526058 -0.674128 0.518473 0.673234 -0.0433352 0.738158 
0.461811 0.171492 0.870242 0.47217 -0.122581 0.872943 -0.554695 -0.438668 0.707025 
-0.823442 -0.349075 0.447315 0.41982 0.399991 0.814713 0.391804 0.532942 0.749975 
-0.774567 0.135547 0.617797 -0.538212 0.492155 0.684186 -0.452241 0.708691 0.541512 
-0.35748 0.790055 0.498017 0.189529 0.722987 0.664356 -0.168626 0.871804 0.459917 
0.0880637 -0.72253 0.685707 0.163321 -0.759636 0.629507 0.4652 -0.788088 0.40312 
0.0340002 -0.420961 0.906441 -0.0123011 -0.419618 0.907617 0.15006 -0.465582 0.87219 
0.31678 -0.604272 0.731099 0.377789 -0.596227 0.708371 0.0162678 -0.165443 0.986085 
0.195534 -0.387702 0.900807 0.270657 -0.3993 0.875959 0.0805535 -0.198981 0.976687 
0.4052 -0.243358 0.881244 -0.470047 -0.345388 0.812258 -0.246898 -0.32512 0.912874 
-0.000487529 -0.32963 0.94411 0.218456 0.0635252 0.973777 0.186112 0.00570699 0.982512 
-0.147786 -0.360794 0.920862 0.174941 -0.0468509 0.983464 -0.683697 -0.0285785 0.729206 
-0.500955 -0.217358 0.837735 0.252178 0.340715 0.905715 -0.592244 0.127331 0.795634 
-0.365391 0.445881 0.817116 0.114085 0.447198 0.887129 -0.143285 0.543175 0.827303 
-0.00755733 0.532028 0.846693 0.0549672 -0.200069 0.978239 -0.413583 -0.0199627 0.910248 
-0.202735 0.0107894 0.979174 -0.0207839 0.051765 0.998443 -0.0674983 -0.232191 -0.970325 
-0.271837 -0.153569 -0.950011 -0.417978 0.00204418 -0.908455 -0.107585 0.133206 -0.985232 
0.177368 0.305867 -0.935407 -0.284347 0.359064 -0.888943 0.105453 0.515245 -0.85053 
0.173513 -0.291322 -0.940758 0.143832 -0.812439 -0.565027 0.358917 -0.746059 -0.560869 
0.0450508 -0.479945 -0.876141 0.58955 -0.354712 -0.725679 0.832665 -0.218292 -0.508938 
-0.163754 -0.540611 -0.825182 -0.0589811 -0.49791 -0.865221 0.0604853 -0.345819 -0.93635 
0.084964 -0.0875769 -0.992528 0.273352 0.0251219 -0.961586 0.513232 0.0952348 -0.852949 
-0.312311 -0.475214 -0.822577 0.0262741 -0.124986 -0.991811 0.175118 0.0577427 -0.982853 
0.134272 -0.127661 -0.982687 0.18347 0.0659784 -0.980809 -0.553244 -0.397351 -0.732143 
0.283823 0.354037 -0.891124 0.479162 0.396105 -0.783265 0.227221 0.289744 -0.929741 
-0.62619 -0.0552156 -0.777713 -0.775351 0.181221 -0.604971 -0.450169 0.43752 -0.778411 
-0.0616512 0.676886 -0.733501 0.380605 -0.884568 -0.269591 -0.307588 -0.742296 -0.595303 
-0.139664 -0.671925 -0.727331 -0.0895536 -0.783396 -0.615038 -0.398553 -0.73497 -0.548612 
0.740873 0.143199 -0.656202 0.706021 0.46933 -0.530343 0.370616 0.442896 -0.816386 
-0.817883 -0.0665761 -0.57152 -0.652924 0.49049 -0.577156 -0.0442587 0.832339 -0.552496 
-0.107861 -0.831642 -0.544737 0.00850368 -0.985036 -0.172138 0.640885 -0.767396 0.0192331 
-0.278635 -0.835081 -0.474343 0.887605 -0.381642 -0.257889 0.891345 -0.0193024 -0.452914 
0.97044 -0.107337 -0.21616 -0.57981 -0.653255 -0.486906 0.848283 0.394505 -0.353246 
0.972904 0.151076 -0.175026 -0.859358 -0.288051 -0.422528 0.420725 0.674999 -0.606108 
-0.36471 0.734969 -0.571671 0.289314 0.697227 -0.655875 -0.0542549 0.909029 -0.413186 
-0.248231 -0.925662 -0.285537 -0.495985 -0.8272 -0.264081 -0.214583 -0.922889 -0.319734 
0.930267 -0.359726 0.0721117 -0.690202 -0.693774 -0.205667 0.884402 0.448351 -0.129667 
0.627307 0.731218 -0.267968 -0.953654 0.0415211 -0.298025 0.520841 0.667156 -0.532567 
-0.959814 0.245485 -0.135994 0.405328 0.833705 -0.375026 -0.81267 0.489553 -0.316079 
-0.580587 0.788437 -0.203191 0.117496 0.908605 -0.400788 -0.14987 0.976415 -0.15541 
0.0661617 0.973916 -0.217049 0.260334 0.943088 -0.206908 -0.327204 -0.943265 -0.0564796 
-0.0479676 -0.998843 0.00355711 0.993548 -0.00627211 0.113237 -0.752116 -0.65162 0.0985526 
0.928068 0.358462 0.100969 0.843573 0.529959 -0.0867656 -0.960289 -0.269938 -0.0705558 
0.789668 0.608902 0.0752476 0.543993 0.801958 -0.24685 0.616007 0.777369 -0.127409 
0.390442 0.912075 -0.125196 0.480966 0.846564 -0.228039 -0.796044 0.604318 -0.0333782 
0.371559 0.919468 -0.128538 0.34631 0.936084 0.0617672 -0.349585 0.925244 -0.147355 
0.0511718 0.986035 -0.15848 -0.231391 -0.972186 0.0362244 -0.146585 -0.985669 0.0834837 
0.209567 -0.973883 0.0873698 -0.531533 -0.833115 0.152944 0.698727 -0.528832 0.481786 
0.859731 -0.462985 0.215659 0.884662 -0.206291 0.418111 0.691321 0.715775 0.0986961 
-0.996745 0.0499971 0.0632377 0.475475 0.879164 0.0315488 0.537898 0.839917 0.0721503 
0.326226 0.943309 -0.0611951 -0.102155 0.99432 0.0298766 0.248084 0.96126 0.120137 
-0.32779 -0.904625 0.272411 0.038604 -0.940288 0.338184 -0.352343 -0.819175 0.452556 
-0.737815 -0.613957 0.28051 0.853827 0.146862 0.499411 -0.910978 -0.373356 0.175284 
-0.966492 0.0604143 0.249488 0.552331 0.829574 0.0820746 0.595977 0.710486 0.374195 
0.607103 0.745655 0.274636 0.206882 0.907102 0.366559 -0.379292 0.910389 0.165315 
-0.0420693 0.980152 0.193734 0.188216 0.9496 0.250668 -0.225974 -0.844787 0.485047 
0.0459123 -0.89078 0.45211 0.00888018 -0.902659 0.430265 0.394101 -0.77043 0.50112 
-0.318411 -0.763587 0.561738 -0.566923 -0.754173 0.331392 0.50442 -0.707911 0.494392 
-0.571163 -0.758472 0.313837 -0.781985 -0.543666 0.304838 -0.925803 -0.134282 0.353351 
0.765442 0.421136 0.486563 0.615918 0.585929 0.526624 0.489581 0.779721 0.390316 
-0.923542 0.232251 0.30517 0.381285 0.879367 0.285195 -0.708945 0.617756 0.340256 
0.268515 0.81637 0.511312 -0.415091 0.707686 0.571735 -0.0135857 -0.82653 0.562729 
0.216865 -0.825258 0.521458 0.190701 -0.686375 0.701799 -0.516937 -0.527816 0.673934 
0.262032 -0.539839 0.799946 0.235131 -0.505069 0.830433 0.399614 -0.555877 0.72891 
0.471521 -0.194688 0.860096 -0.584768 -0.518788 0.623622 0.611507 -0.3138 0.726353 
-0.737063 -0.565505 0.370058 -0.805209 -0.28035 0.522535 0.605243 0.110794 0.788293 
-0.733025 -0.219025 0.643974 0.448088 0.387965 0.805419 0.516848 0.225655 0.825801 
0.489899 0.465324 0.737206 0.399613 0.599004 0.693905 -0.658606 0.27425 0.700732 
-0.218165 0.790626 0.572114 0.100214 0.811083 0.576282 -0.0718058 -0.639814 0.765168 
0.124656 -0.666293 0.735197 -0.438898 -0.559078 0.703421 -0.240605 -0.564213 0.789793 
-0.459297 -0.366203 0.809285 0.0474726 -0.478154 0.876992 0.184252 -0.215417 0.958982 
0.327013 0.0333178 0.944432 0.317446 -0.202961 0.926301 0.333207 0.253243 0.908208 
-0.444287 -0.159671 0.881541 0.169173 0.400156 0.900698 -0.589203 0.00433062 0.807973 
-0.359578 0.339923 0.868998 -0.140571 0.626734 0.766449 -0.0433356 0.492528 0.869217 
0.136774 0.634692 0.760565 -0.136738 -0.250268 0.958472 -0.3496 -0.254682 0.901619 
0.0057803 -0.057384 0.998335 0.181067 0.0625155 0.981482 -0.260751 0.0910738 0.961101 
-0.0933107 0.0613888 0.993743 -0.0934107 0.0498605 0.994378 
