# vtk DataFile Version 4.2
vtk output
ASCII
DATASET POLYDATA
POINTS 1654 float
400.427 229.588 106.696 400.443 229.501 106.754 400.528 229.606 106.68 
400.374 229.767 106.7 401.899 228.459 107.307 401.241 228.998 106.941 
400.085 229.814 106.974 399.77 230.134 107.109 401.516 229.24 106.933 
399.571 230.692 107.053 399.413 230.711 107.172 399.365 230.978 107.224 
400.042 230.442 106.86 399.514 230.993 107.122 399.613 231.214 107.188 
400.019 230.794 106.95 404.121 227.342 108.063 401.346 228.49 107.724 
402.382 228.378 107.412 402.21 228.105 107.681 399.593 230.287 107.363 
402.592 229.495 107.386 403.815 228.935 107.853 399.304 230.845 107.32 
399.268 231.061 107.356 399.465 231.529 107.428 400.623 231.407 107.357 
406.823 225.093 109.319 406.352 225.316 109.274 407.633 224.656 109.554 
404.45 226.925 108.368 402.941 227.562 108.08 402.472 227.758 108.103 
403.596 227.287 108.17 404.96 227.127 108.334 400.496 229.154 107.693 
400.317 229.347 107.766 400.236 229.545 107.959 399.288 230.829 107.476 
402.841 230.012 107.569 403.652 229.595 107.937 399.291 230.936 107.677 
401.758 231.278 107.683 399.238 231.73 107.864 400.029 231.758 107.505 
399.312 231.972 107.94 399.399 232.078 107.917 406.425 225.073 109.537 
404.526 226.347 109.218 403.989 226.745 108.812 403.442 227.049 108.804 
407.904 225.622 109.669 401.963 228.061 108.588 399.243 231.25 107.802 
399.278 231.88 108.097 399.352 232.109 108.179 399.76 232.372 108.181 
401.341 232.367 108.582 406.639 241.005 110.882 406.641 240.972 110.965 
406.606 241.132 110.94 406.736 240.924 110.882 406.706 241.029 110.859 
410 220.009 109.017 410 220.009 109.017 410 220.009 109.017 
410 220.009 109.017 408.409 223.253 110.848 410 220.009 109.017 
407.439 224.055 110.648 400.997 228.97 108.658 400.932 229.186 108.807 
404.939 229.812 109.183 399.459 231.71 108.539 404.335 231.031 109.752 
399.44 231.946 108.553 399.484 232.155 108.611 399.505 232.28 108.565 
403.244 231.921 109.585 399.739 232.576 108.631 403.056 232.128 109.733 
399.942 232.654 108.706 400.197 232.794 108.913 401.966 232.639 109.578 
400.332 232.827 108.955 410.39 238.482 111.188 410.28 238.441 111.261 
410.191 238.612 111.142 410.549 238.469 111.225 410.745 238.396 111.363 
409.946 239.434 110.864 409.822 239.33 110.872 406.538 241.166 111.104 
406.965 240.918 110.84 406.883 240.743 111.004 407.234 240.565 110.905 
407.786 240.66 110.735 407.775 240.206 110.894 408.662 240.378 110.699 
406.738 241.209 110.895 407.306 241.051 110.773 407.117 241.472 110.867 
410 220.009 109.018 412.157 220.42 112.028 410.348 221.551 111.818 
410.21 222.31 111.288 408.545 222.936 111.511 406.941 224.484 110.831 
404.007 226.69 109.546 403.902 226.886 109.837 405.786 229.601 110.058 
399.792 232.593 108.733 399.933 232.563 108.947 400.719 232.808 109.364 
400.4 232.787 109.253 400.598 232.691 109.528 402.651 232.467 110.071 
400.374 232.828 109.094 401.305 232.765 109.715 409.757 238.219 112.018 
410.376 238.268 111.545 410.869 238.209 111.614 410.857 237.993 111.964 
411.279 238.145 111.812 411.198 237.991 111.951 411.523 237.961 112.098 
409.294 238.75 111.332 411.089 238.49 111.534 408.555 238.996 111.51 
408.925 239.287 111 409.981 238.982 111.026 408.328 239.583 111.035 
408.613 239.565 110.854 408.837 239.544 110.815 408.754 239.718 110.759 
409.31 239.583 110.844 408.402 239.843 110.796 406.487 241.231 111.563 
410.28 240.881 111.254 407.188 242.293 111.192 409.713 241.892 111.379 
406.88 242.966 111.61 410.226 221.299 112.346 408.769 222.725 111.929 
412.371 221.82 112.008 409.825 225.166 111.333 404.834 226.541 110.796 
403.796 227.756 110.791 406.143 229.431 110.453 400.158 231.756 109.308 
404.874 230.837 110.478 400.879 232.735 109.755 402.337 232.613 110.062 
401.154 232.723 109.918 402.254 232.62 110.24 408.547 238.832 111.968 
412.215 238.035 112.374 408.64 239.652 110.777 406.678 240.882 111.575 
406.951 240.573 111.806 406.363 241.699 111.682 406.285 242.596 112.05 
406.496 242.899 111.841 406.985 244.01 112.376 409.311 243.566 112.097 
416.508 214.645 113.37 414.52 215.615 113.653 414.421 217.032 113.009 
416.349 216.276 113.13 413.745 217.394 113.021 412.262 218.74 113.091 
409.253 222.282 112.544 413.379 220.679 112.331 412.355 222.296 112.082 
413.043 221.477 112.289 412.165 222.766 112.118 410.986 224.515 112.081 
408.266 227.455 111.721 406.294 229.423 111.28 404.464 231.219 110.955 
401.066 232.403 110.078 401.366 232.172 110.346 401.198 232.592 110.094 
401.968 232.496 110.506 402.792 232.321 110.791 401.518 232.616 110.229 
409.085 238.424 112.314 409.217 238.365 112.51 410.266 237.923 113.07 
412.26 237.412 113.15 413.091 237.272 113.433 413.74 237.186 113.717 
412.956 240.181 112.592 406.359 241.783 112.256 406.251 242.435 112.269 
406.336 243.274 112.573 406.68 244.384 113.109 408.348 244.075 112.265 
417.84 209.583 114.291 417.882 209.444 114.333 417.77 209.548 114.338 
417.203 210.299 114.237 417.236 210.165 114.278 417.805 209.833 114.27 
417.162 211.794 113.977 415.79 214.129 113.705 415.641 213.612 113.995 
410.778 220.502 113.413 404.499 228.181 111.652 404.25 229.109 111.744 
407.272 228.382 111.994 401.657 232.271 110.519 401.716 232.437 110.477 
402.004 235.013 113.009 402.004 235.013 113.009 402.004 235.013 113.009 
402.004 235.013 113.009 403.169 232.078 111.172 402.004 235.013 113.009 
409.194 238.468 112.858 411.828 237.32 113.633 414.383 237.874 113.733 
406.291 242.107 112.366 406.314 242.82 112.979 407.171 246.124 114.256 
407.684 246.522 114.357 419.467 206.723 114.978 419.817 206.225 115.139 
418.755 206.905 115.085 420.131 207.104 114.847 418.017 209.136 114.48 
417.383 209.818 114.417 417.594 210.66 114.139 416.002 211.323 114.809 
416.954 210.951 114.245 415.994 211.964 114.487 415.239 213.012 114.898 
415.3 213.574 114.343 417.886 219.641 113.982 410.622 221.061 114.236 
412.964 224.142 113.544 411.04 225.592 113.487 405.438 228.003 112.226 
405.765 228.124 112.39 406.704 228.817 112.011 403.743 231.318 111.615 
404.316 230.849 111.669 403.345 231.653 111.502 403.593 231.672 111.599 
403.711 231.608 111.615 403.878 231.496 111.505 403.67 231.705 111.59 
403.244 231.902 111.444 403.486 231.815 111.468 403.208 231.999 111.371 
403.603 231.754 111.598 415.029 235.48 115.483 415.351 235.546 115.337 
402.004 235.013 113.009 413.363 236.491 114.729 415.05 236.073 114.908 
409.243 238.897 114.093 406.397 243.701 113.241 406.827 245.872 114.631 
410.525 246.014 114.44 406.986 246.17 114.546 407.55 246.877 114.952 
421.068 204.015 115.952 418.383 205.688 115.991 417.596 207.747 115.358 
417.475 207.449 115.672 420.739 208.15 114.726 416.339 209.577 115.471 
415.959 210.45 115.601 409.634 222.64 114.029 415.011 223.266 114.129 
411.328 225.567 113.948 406.497 227.597 112.687 407.543 227.153 113.173 
408.375 226.683 113.763 409.331 226.713 113.204 408.412 226.99 113.522 
407.565 227.717 112.812 405.351 229.215 112.139 405.705 229.421 112.059 
417.717 232.135 116.731 403.648 231.712 111.627 415.368 234.969 116.063 
403.126 231.993 111.384 413.64 236.265 115.272 412.348 237.077 115.004 
410.874 237.96 114.753 406.761 244.106 114.507 406.92 244.737 115.116 
413.226 244.382 114.62 406.771 245.5 114.868 406.966 246.383 114.855 
407.06 246.698 115.108 409.214 247.121 115.249 407.711 247.207 115.455 
419.267 203.439 116.933 419.232 203.071 117.288 423.438 203.034 116.376 
424.519 204.481 116.31 424.923 204.792 116.399 417.243 207.082 116.792 
416.273 209.287 116.165 415.544 211.692 115.97 413.352 216.612 115.141 
416.261 224.268 115.176 413.921 225.1 115.214 412.09 225.387 115.253 
413.361 225.299 115.419 409.96 226.272 113.934 408.711 226.786 113.871 
417.993 229.458 116.931 408.727 226.726 113.96 418.298 230.273 116.851 
415.625 234.546 116.636 417.347 233.623 116.378 413.98 236.076 116.015 
418.583 235.084 116.41 412.744 237.095 115.813 407.618 243.84 115.806 
416.603 243.144 116.519 406.881 245.65 115.316 407.047 245.369 115.544 
406.898 246.157 115.404 407 246.954 115.688 407.095 247.227 115.743 
407.602 247.414 115.818 407.172 247.443 115.935 407.387 247.502 115.97 
420.137 201.602 117.951 419.285 202.637 117.916 427.019 202.446 117.509 
417.326 206.846 117.293 416.001 210.289 116.446 415.829 211.513 116.949 
415.098 213.538 116.597 413.231 217.208 115.591 409.823 224.868 114.833 
419.25 225.426 116.15 410.402 224.959 115.186 420.716 226.049 116.558 
409.503 226.027 114.417 410.318 225.651 114.808 411.203 225.299 115.32 
410.902 225.684 114.765 413.31 225.344 116.219 414.353 225.561 116.129 
418.122 228.065 116.724 417.529 230.183 117.232 417.377 230.544 117.413 
417.207 231.62 117.407 420.619 231.066 117.067 416.711 232.93 117.242 
415.867 234.247 117.42 412.529 237.677 116.322 411.518 239.268 116.738 
407.51 244.886 116.042 407.684 245.185 116.288 413.105 246.576 116.637 
413.401 246.652 117.014 407.659 247.509 116.04 407.869 247.484 116.258 
408.612 247.369 116.422 412.131 247.031 116.971 412.771 246.908 117.109 
407.105 247.533 116.103 425.033 196.476 119.359 423.852 197.238 119.155 
424.241 198.111 118.448 425.374 197.97 118.458 422.731 198.968 118.329 
425.632 200.625 117.452 419.536 202.245 118.321 418.683 203.732 118.002 
418.515 204.13 118.072 417.271 207.415 117.712 416.335 211.66 117.84 
415.995 212.362 117.604 414.072 217.182 116.852 426.103 218.27 117.239 
411.04 224.11 115.728 413.069 223.591 117.102 413.109 225.023 116.67 
415.41 225.893 116.321 416.833 226.388 116.388 413.416 225.214 116.897 
413.419 225.265 116.909 413.347 225.226 116.838 413.775 225.401 116.821 
415.087 226.002 116.795 416.043 226.591 116.818 413.438 225.288 116.881 
416.258 227.08 117.326 416.793 227.967 117.574 416.87 227.602 117.061 
417.215 228.709 117.332 417.137 229.022 117.774 417.281 230.288 117.845 
417.224 231.401 118.081 416.506 233.44 118.007 414.549 235.912 117.066 
415.617 234.884 117.692 420.876 235.762 117.769 414.369 236.618 117.463 
[...]
POINT_DATA 1654
SCALARS scalars float
LOOKUP_TABLE default
1 1 1 1 1 1 1 1 1 
1 1 1 1 1 1 1 1 1 
1 1 1 1 1 1 1 1 1 
1 1 1 1 1 1 1 1 1 
1 1 1 1 1 1 1 1 1 
1 1 1 1 1 1 1 1 1 
1 1 1 1 1 1 1 1 1 
1 1 1 1 1 1 1 1 1 
1 1 1 1 1 1 1 1 1 
1 1 1 1 1 1 1 1 1 
1 1 1 1 1 1 1 1 1 
1 1 1 1 1 1 1 1 1 
1 1 1 1 1 1 1 1 1 
1 1 1 1 1 1 1 1 1 
1 1 1 1 1 1 1 1 1 
1 1 1 1 1 1 1 1 1 
1 1 1 1 1 1 1 1 1 
1 1 1 1 1 1 1 1 1 
1 1 1 1 1 1 1 1 1 
1 1 1 1 1 1 1 1 1 
1 1 1 1 1 1 1 1 1 
1 1 1 1 1 1 1 1 1 
1 1 1 1 1 1 1 1 1 
1 1 1 1 1 1 1 1 1 
1 1 1 1 1 1 1 1 1 
1 1 1 1 1 1 1 1 1 
1 1 1 1 1 1 1 1 1 
1 1 1 1 1 1 1 1 1 
1 1 1 1 1 1 1 1 1 
1 1 1 1 1 1 1 1 1 
1 1 1 1 1 1 1 1 1 
1 1 1 1 1 1 1 1 1 
1 1 1 1 1 1 1 1 1 
1 1 1 1 1 1 1 1 1 
1 1 1 1 1 1 1 1 1 
1 1 1 1 1 1 1 1 1 
1 1 1 1 1 1 1 1 1 
1 1 1 1 1 1 1 1 1 
1 1 1 1 1 1 1 1 1 
1 1 1 1 1 1 1 1 1 
1 1 1 1 1 1 1 1 1 
1 1 1 1 1 1 1 1 1 
1 1 1 1 1 1 1 1 1 
1 1 1 1 1 1 1 1 1 
1 1 1 1 1 1 1 1 1 
1 1 1 1 1 1 1 1 1 
1 1 1 1 1 1 1 1 1 
1 1 1 1 1 1 1 1 1 
1 1 1 1 1 1 1 1 1 
1 1 1 1 1 1 1 1 1 
1 1 1 1 1 1 1 1 1 
1 1 1 1 1 1 1 1 1 
1 1 1 1 1 1 1 1 1 
1 1 1 1 1 1 1 1 1 
1 1 1 1 1 1 1 1 1 
1 1 1 1 1 1 1 1 1 
1 1 1 1 1 1 1 1 1 
1 1 1 1 1 1 1 1 1 
1 1 1 1 1 1 1 1 1 
1 1 1 1 1 1 1 1 1 
1 1 1 1 1 1 1 1 1 
1 1 1 1 1 1 1 1 1 
1 1 1 1 1 1 1 1 1 
1 1 1 1 1 1 1 1 1 
1 1 1 1 1 1 1 1 1 
1 1 1 1 1 1 1 1 1 
1 1 1 1 1 1 1 1 1 
1 1 1 1 1 1 1 1 1 
1 1 1 1 1 1 1 1 1 
1 1 1 1 1 1 1 1 1 
1 1 1 1 1 1 1 1 1 
1 1 1 1 1 1 1 1 1 
1 1 1 1 1 1 1 1 1 
1 1 1 1 1 1 1 1 1 
1 1 1 1 1 1 1 1 1 
1 1 1 1 1 1 1 1 1 
1 1 1 1 1 1 1 1 1 
1 1 1 1 1 1 1 1 1 
1 1 1 1 1 1 1 1 1 
1 1 1 1 1 1 1 1 1 
1 1 1 1 1 1 1 1 1 
1 1 1 1 1 1 1 1 1 
1 1 1 1 1 1 1 1 1 
1 1 1 1 1 1 1 1 1 
1 1 1 1 1 1 1 1 1 
1 1 1 1 1 1 1 1 1 
1 1 1 1 1 1 1 1 1 
1 1 1 1 1 1 1 1 1 
1 1 1 1 1 1 1 1 1 
1 1 1 1 1 1 1 1 1 
1 1 1 1 1 1 1 1 1 
1 1 1 1 1 1 1 1 1 
1 1 1 1 1 1 1 1 1 
1 1 1 1 1 1 1 1 1 
1 1 1 1 1 1 1 1 1 
1 1 1 1 1 1 1 1 1 
1 1 1 1 1 1 1 1 1 
1 1 1 1 1 1 1 1 1 
1 1 1 1 1 1 1 1 1 
1 1 1 1 1 1 1 1 1 
1 1 1 1 1 1 1 1 1 
1 1 1 1 1 1 1 1 1 
1 1 1 1 1 1 1 1 1 
1 1 1 1 1 1 1 1 1 
1 1 1 1 1 1 1 1 1 
1 1 1 1 1 1 1 1 1 
1 1 1 1 1 1 1 1 1 
1 1 1 1 1 1 1 1 1 
1 1 1 1 1 1 1 1 1 
1 1 1 1 1 1 1 1 1 
1 1 1 1 1 1 1 1 1 
1 1 1 1 1 1 1 1 1 
1 1 1 1 1 1 1 1 1 
1 1 1 1 1 1 1 1 1 
1 1 1 1 1 1 1 1 1 
1 1 1 1 1 1 1 1 1 
1 1 1 1 1 1 1 1 1 
1 1 1 1 1 1 1 1 1 
1 1 1 1 1 1 1 1 1 
1 1 1 1 1 1 1 1 1 
1 1 1 1 1 1 1 1 1 
1 1 1 1 1 1 1 1 1 
1 1 1 1 1 1 1 1 1 
1 1 1 1 1 1 1 1 1 
1 1 1 1 1 1 1 1 1 
1 1 1 1 1 1 1 1 1 
1 1 1 1 1 1 1 1 1 
1 1 1 1 1 1 1 1 1 
1 1 1 1 1 1 1 1 1 
1 1 1 1 1 1 1 1 1 
1 1 1 1 1 1 1 1 1 
1 1 1 1 1 1 1 1 1 
1 1 1 1 1 1 1 1 1 
1 1 1 1 1 1 1 1 1 
1 1 1 1 1 1 1 1 1 
1 1 1 1 1 1 1 1 1 
1 1 1 1 1 1 1 1 1 
1 1 1 1 1 1 1 1 1 
1 1 1 1 1 1 1 1 1 
1 1 1 1 1 1 1 1 1 
1 1 1 1 1 1 1 1 1 
1 1 1 1 1 1 1 1 1 
1 1 1 1 1 1 1 1 1 
1 1 1 1 1 1 1 1 1 
1 1 1 1 1 1 1 1 1 
1 1 1 1 1 1 1 1 1 
1 1 1 1 1 1 1 1 1 
1 1 1 1 1 1 1 1 1 
1 1 1 1 1 1 1 1 1 
1 1 1 1 1 1 1 1 1 
1 1 1 1 1 1 1 1 1 
1 1 1 1 1 1 1 1 1 
1 1 1 1 1 1 1 1 1 
1 1 1 1 1 1 1 1 1 
1 1 1 1 1 1 1 1 1 
1 1 1 1 1 1 1 1 1 
1 1 1 1 1 1 1 1 1 
1 1 1 1 1 1 1 1 1 
1 1 1 1 1 1 1 1 1 
1 1 1 1 1 1 1 1 1 
1 1 1 1 1 1 1 1 1 
1 1 1 1 1 1 1 1 1 
1 1 1 1 1 1 1 1 1 
1 1 1 1 1 1 1 1 1 
1 1 1 1 1 1 1 1 1 
1 1 1 1 1 1 1 1 1 
1 1 1 1 1 1 1 1 1 
1 1 1 1 1 1 1 1 1 
1 1 1 1 1 1 1 1 1 
1 1 1 1 1 1 1 1 1 
1 1 1 1 1 1 1 1 1 
1 1 1 1 1 1 1 1 1 
1 1 1 1 1 1 1 1 1 
1 1 1 1 1 1 1 1 1 
1 1 1 1 1 1 1 1 1 
1 1 1 1 1 1 1 1 1 
1 1 1 1 1 1 1 1 1 
1 1 1 1 1 1 1 1 1 
1 1 1 1 1 1 1 1 1 
1 1 1 1 1 1 1 1 1 
1 1 1 1 1 1 1 1 1 
1 1 1 1 1 1 1 1 1 
1 1 1 1 1 1 1 1 1 
1 1 1 1 1 1 1 
NORMALS Normals float
-0.297344 -0.378072 -0.876726 -0.589241 -0.688522 -0.422768 0.164425 0.116756 -0.979455 
-0.423703 -0.0854005 -0.901766 -0.102183 -0.702 -0.704808 -0.140235 -0.617222 -0.774191 
-0.745816 -0.532585 -0.40014 -0.694233 -0.391136 -0.604196 0.250856 -0.10704 -0.962088 
-0.406013 0.0473407 -0.91264 -0.815841 -0.311021 -0.487514 -0.689104 0.112629 -0.715856 
-0.100998 0.142676 -0.984603 -0.416557 0.33782 -0.844013 -0.10784 0.426738 -0.897923 
-0.0379209 0.32945 -0.943411 0.120817 -0.404178 -0.906666 -0.490129 -0.83085 -0.263557 
0.122762 -0.439477 -0.889825 -0.342306 -0.815035 -0.467487 -0.839396 -0.536947 0.0842726 
0.357884 0.114403 -0.926732 0.445698 0.0909108 -0.890555 -0.908131 -0.197199 -0.369337 
-0.903821 0.154888 -0.398896 -0.335371 0.49324 -0.802647 0.193666 0.555148 -0.808891 
-0.284501 -0.697109 -0.658102 -0.39651 -0.710589 -0.581244 0.359782 -0.192418 -0.91298 
-0.118751 -0.687313 -0.716589 -0.27559 -0.821914 -0.498506 -0.467484 -0.852748 -0.23298 
-0.262475 -0.800908 -0.538194 0.185059 -0.287599 -0.939702 -0.697626 -0.703432 0.136018 
-0.747775 -0.663334 0.0286404 -0.737107 -0.550562 0.391861 -0.935293 -0.353057 -0.0240352 
0.459008 0.504374 -0.731381 0.534036 0.271477 -0.800691 -0.886804 -0.337307 0.315914 
0.387856 0.45765 -0.800077 -0.940435 0.23645 -0.244283 0.0119681 0.64676 -0.7626 
-0.875298 0.421981 -0.236188 -0.557693 0.633758 -0.536031 -0.762992 -0.628056 -0.152936 
-0.457368 -0.876807 -0.148406 -0.396562 -0.855962 -0.331764 -0.535063 -0.838527 -0.102863 
0.620225 0.251844 -0.742897 -0.611891 -0.771859 0.172694 -0.931401 -0.224442 0.286563 
-0.976337 0.0992788 0.192118 -0.898626 0.426391 0.103258 -0.038203 0.842389 -0.537515 
0.239745 0.797184 -0.554094 -0.687767 -0.288764 -0.666027 -0.819089 -0.54466 -0.180105 
-0.780767 0.219208 -0.585107 -0.399025 -0.577453 -0.712268 -0.25661 0.0480918 -0.965318 
0 -0.116042 -0.993244 0 -0.99336 -0.11505 -0.897652 -0.431672 -0.0887646 
0.897652 -0.431672 -0.0887646 -0.509576 -0.812402 -0.283434 0 0.447214 -0.894427 
-0.472048 -0.81913 -0.325878 -0.680903 -0.612118 0.402097 -0.713699 -0.469299 0.519993 
0.665387 0.396386 -0.632565 -0.79457 -0.207619 0.570573 0.624327 0.679275 -0.385747 
-0.89268 0.0330697 0.449475 -0.800084 0.159146 0.578392 -0.842248 0.448951 0.29843 
0.484869 0.689166 -0.538472 -0.5475 0.826789 -0.129089 0.545039 0.80475 -0.235181 
-0.350584 0.93532 -0.0476176 -0.196221 0.939988 -0.279142 0.370708 0.860241 -0.350087 
0.0611131 0.973129 -0.222001 0.00874912 -0.529362 -0.848351 -0.285451 -0.773841 -0.56541 
-0.417203 -0.564798 -0.712 0.281531 -0.448623 -0.84822 0.395092 -0.548896 -0.736624 
0.194877 -0.0905594 -0.976638 0.0107787 -0.29962 -0.953998 -0.946801 -0.268848 -0.176886 
-0.190226 -0.247615 -0.95 -0.576533 -0.712984 -0.399078 -0.323558 -0.424404 -0.84569 
-0.116312 -0.0606877 -0.991357 -0.456062 -0.570587 -0.682963 0.0981111 0.049938 -0.993922 
-0.297736 0.303166 -0.905231 -0.024164 0.0944824 -0.995233 -0.280624 0.442616 -0.85167 
0 -0.271731 0.962373 0.0931799 -0.212933 -0.972613 -0.360771 -0.685545 -0.632355 
0.181547 -0.266117 -0.94669 -0.674838 -0.737832 -0.0140801 -0.721854 -0.685771 0.0929812 
-0.524712 -0.837629 0.151834 -0.609627 -0.725992 0.318263 0.730607 0.538106 -0.420305 
-0.681352 0.646006 0.344143 -0.636225 0.56718 0.522996 -0.0925077 0.9742 0.205854 
-0.41073 0.804804 0.428477 -0.618158 0.518316 0.590957 0.492442 0.862329 -0.117851 
-0.30664 0.927357 0.214432 0.117493 0.991363 -0.0582582 -0.272769 -0.950007 -0.151934 
-0.150771 -0.891862 -0.426439 0.163615 -0.746124 -0.645391 -0.108535 -0.930268 -0.350459 
0.376019 -0.551877 -0.744339 0.104383 -0.845741 -0.523284 0.224495 -0.786903 -0.574792 
-0.278975 -0.724269 -0.630561 0.496474 -0.311005 -0.810425 -0.505622 -0.734838 -0.452062 
-0.205125 -0.642359 -0.738444 -0.135134 -0.420451 -0.897195 -0.550891 -0.623858 -0.554366 
-0.349547 -0.605618 -0.714873 -0.036311 -0.483412 -0.87464 0.0767832 0.0781891 -0.993977 
0.074457 -0.113712 -0.99072 -0.24059 -0.200357 -0.949723 -0.90254 -0.381718 0.199282 
0.367146 0.196494 -0.909172 -0.0889524 0.396315 -0.913795 0.239296 0.352892 -0.904547 
-0.165703 0.502622 -0.848477 -0.652608 -0.738551 -0.16925 -0.673418 -0.73926 -0.00198239 
0.454161 0.121856 -0.882547 0.67794 0.439684 -0.589132 -0.644271 -0.526739 0.554492 
-0.633028 -0.488321 0.600681 0.746805 0.494781 -0.444382 -0.697477 -0.169778 0.696205 
0.787687 0.611884 -0.0717457 -0.420177 0.749547 0.511498 0.326109 0.945295 -0.0083809 
-0.0959735 0.954699 0.28167 0.0969628 0.970419 0.2211 -0.696663 -0.709685 -0.104914 
0.344453 -0.588874 -0.73115 -0.196831 -0.385109 -0.901636 -0.834974 -0.537279 0.11895 
-0.694323 -0.609431 0.382766 -0.988457 -0.0919861 -0.120378 -0.953237 0.156943 -0.258281 
-0.663305 0.367734 -0.651766 -0.40923 0.549959 -0.728063 0.215854 0.468267 -0.856816 
-0.079854 -0.241707 -0.967058 -0.432072 -0.426676 -0.794519 -0.0869565 -0.137216 -0.986717 
0.220165 -0.0149469 -0.975348 -0.244436 -0.334442 -0.910164 -0.761285 -0.560018 -0.326841 
-0.736911 -0.671043 0.0816339 0.453585 0.186183 -0.871548 0.615264 0.207023 -0.760652 
0.491059 0.170715 -0.854235 0.485407 0.211793 -0.848247 0.624311 0.471919 -0.622517 
0.698358 0.696938 -0.163014 0.663119 0.746683 0.0523291 0.722893 0.673607 0.153881 
-0.623208 0.148126 0.7679 -0.638887 0.00648991 0.769273 -0.428713 0.515946 0.741623 
-0.127692 0.742405 0.65767 0.334997 0.912383 0.235234 -0.343642 0.620551 0.704859 
-0.491738 -0.861478 -0.126686 -0.327713 -0.934334 0.140087 -0.360368 -0.932764 -0.00935242 
-0.0550416 -0.887108 -0.458268 0.180861 -0.784747 -0.592842 0.227345 -0.693389 -0.683759 
0.552165 0.202597 -0.808745 -0.930008 -0.320052 0.180699 -0.99593 -0.0523682 -0.0733581 
-0.951059 0.258396 -0.169462 -0.78824 0.46508 -0.402962 0.190125 0.551953 -0.811911 
0.23409 -0.130604 -0.963403 -0.0547499 -0.378571 -0.923951 -0.462184 -0.363972 -0.808648 
-0.163666 -0.262983 -0.950817 -0.50389 -0.370349 -0.780344 -0.00145646 -0.138074 -0.990421 
-0.282854 -0.274388 -0.919078 -0.430564 -0.303663 -0.849943 -0.579856 -0.349207 -0.736085 
-0.759915 -0.643394 -0.0925965 -0.527137 -0.240438 0.815056 -0.489477 -0.139565 0.860775 
0.522515 0.714394 0.465425 -0.465014 0.251108 0.848944 -0.340262 0.474958 0.811565 
0.163812 -0.750206 -0.640591 -0.549782 0.381596 -0.743051 0.385893 0.536203 -0.750715 
0.549782 -0.381596 0.743051 0.432769 0.885071 0.171346 -0.163812 0.750206 0.64059 
-0.508592 -0.835961 0.206164 -0.320641 -0.938187 -0.130361 0.530331 -0.159813 -0.832592 
-0.803164 -0.331848 0.494777 -0.945124 -0.155019 0.287594 -0.32839 0.565253 -0.756736 
0.567104 -0.583331 -0.58148 -0.188491 -0.353778 -0.91614 -0.0296451 -0.437766 -0.8986 
-0.3465 -0.299641 -0.888906 0.00522755 -0.238184 -0.971206 0.114661 -0.289751 -0.950209 
-0.291902 -0.36861 -0.882564 -0.242909 -0.225698 -0.943428 -0.76302 -0.292716 -0.576297 
-0.505232 -0.248065 -0.826562 -0.70508 -0.292623 -0.645936 -0.857247 -0.415768 -0.303752 
-0.629998 -0.3786 -0.678059 0.311936 0.253087 -0.915775 -0.823485 -0.497627 0.272471 
0.59563 0.442683 -0.670266 0.55793 0.793638 -0.242597 -0.482629 -0.141931 0.864248 
-0.264122 0.112484 0.957907 0.477585 0.594215 0.647164 -0.0052143 0.0646719 0.997893 
-0.0393275 0.202964 0.978396 -0.365135 0.0785382 0.927636 -0.408162 0.0435481 0.91187 
0.401637 0.160145 0.901688 0.614156 0.600055 0.512588 0.704228 0.689877 0.167729 
-0.0608679 0.397894 0.91541 0.240863 0.805936 0.540788 0.183238 0.799381 0.572201 
-0.0206213 0.731532 0.681495 -0.259268 -0.826294 -0.500018 0.0720212 -0.579949 -0.811463 
-0.385893 -0.536203 0.750715 -0.548142 -0.836358 -0.00677337 0.247502 -0.550961 -0.796984 
-0.644948 -0.665271 0.376106 -0.989983 0.0383897 0.135864 -0.932192 0.29825 -0.205099 
0.278917 0.608945 -0.742557 -0.771586 0.440369 -0.459053 -0.291829 0.790245 -0.53884 
-0.016213 -0.281499 -0.959425 -0.532819 -0.497667 -0.68442 -0.534757 -0.385879 -0.751753 
-0.705506 -0.446078 -0.550705 0.24061 -0.219677 -0.945436 -0.80154 -0.406011 -0.438963 
-0.946265 -0.290488 -0.142128 -0.757949 -0.351272 0.549655 0.370733 0.397923 -0.839175 
0.368677 0.892006 -0.261539 -0.221533 0.319397 0.921362 -0.40128 0.242306 0.883324 
-0.539858 0.216681 0.81339 0.515739 0.856744 -0.00138289 0.0864716 0.826044 0.556932 
0.0404547 0.624037 0.780347 -0.2637 0.0836816 0.960968 0.0901055 0.351634 0.931791 
-0.317361 -0.197825 -0.927441 0.234858 0.379977 0.894684 -0.49579 -0.76862 -0.404247 
-0.255092 0.547663 0.796865 -0.654395 -0.754585 -0.0486596 -0.562474 -0.788412 0.249057 
-0.592597 -0.725349 0.350281 -0.944928 -0.171798 0.278561 -0.864952 -0.136479 0.482941 
0.507921 0.499804 -0.701578 -0.980646 -0.0362421 0.192408 -0.685861 0.592576 -0.422431 
-0.654136 0.632195 -0.415252 0.191283 0.830348 -0.523386 -0.0942956 0.870843 -0.482432 
-0.454052 -0.527359 -0.718142 -0.673465 -0.58778 -0.448285 0.150996 -0.265912 -0.952098 
0.28868 -0.178907 -0.940562 0.324238 -0.0629203 -0.943881 -0.903257 -0.406511 -0.137392 
-0.910515 -0.406947 -0.0731895 -0.954458 -0.255414 0.154186 -0.878506 -0.415124 0.236429 
0.226122 0.506211 -0.832238 0.218653 0.788033 -0.575496 -0.00988133 0.970785 0.239749 
0.064968 0.987244 -0.145357 0.425933 0.880209 0.209314 0.23409 0.887728 0.396411 
-0.2832 0.042172 -0.958133 -0.137199 0.637667 0.757996 -0.163431 -0.0755165 -0.98366 
-0.794462 -0.607259 0.00819563 -0.183284 -0.458185 -0.869755 -0.72733 -0.63257 0.26617 
0.374515 -0.0369033 -0.926486 -0.615711 -0.732313 0.290892 -0.718287 -0.329294 0.612885 
0.665936 0.402897 -0.627856 -0.921532 -0.11917 0.369563 -0.855948 -0.135594 0.498966 
-0.95926 0.026644 0.281266 -0.950378 0.049584 0.307119 -0.591008 0.626076 -0.508664 
0.130483 0.848264 -0.513247 -0.208741 0.782967 -0.585995 -0.0281733 0.858821 -0.511501 
-0.658455 -0.639596 -0.396679 -0.847468 -0.519874 -0.107375 0.434432 -0.187697 -0.88093 
-0.934753 -0.301302 0.188291 -0.945597 -0.299767 0.126434 -0.880673 -0.292184 0.372885 
-0.702193 -0.0853694 0.70685 -0.839459 -0.477603 0.259239 -0.497704 0.0872972 0.862942 
0.225747 0.176967 -0.957978 -0.499119 0.12273 0.857798 0.236997 0.0967654 -0.966679 
-0.195105 0.431611 0.880708 -0.235602 0.518662 0.821877 -0.213629 0.70824 0.672873 
0.158389 0.901657 0.402403 -0.312176 0.946695 0.0794592 -0.151937 0.930536 -0.333193 
-0.211799 0.21828 -0.952625 -0.631665 -0.0348538 -0.774457 -0.920284 0.0033234 -0.391237 
-0.90082 -0.197381 -0.386735 0.169613 0.0160065 -0.985381 -0.813851 -0.500658 -0.294938 
-0.834278 -0.47157 0.285659 -0.608143 -0.615432 0.501403 -0.597621 -0.439129 0.670832 
-0.658172 -0.221833 0.719444 -0.683199 -0.167458 0.710772 0.431403 0.691004 -0.580003 
0.431976 0.842557 -0.321705 0.240579 0.908132 -0.342662 0.262576 0.964148 -0.0383684 
0.0666648 0.984709 0.160947 0.158133 0.986284 -0.0473082 0.210966 0.976035 -0.0533777 
-0.526723 0.728197 -0.438511 -0.140166 -0.686724 -0.713277 -0.316515 -0.573937 -0.755258 
-0.181054 -0.484298 -0.855964 0.0625 -0.495297 -0.866473 -0.340772 -0.55348 -0.759957 
0.287476 -0.325352 -0.900835 -0.774834 -0.623167 -0.106279 -0.838302 -0.437651 0.325131 
-0.829957 -0.384693 0.40396 -0.836391 -0.134927 0.531266 -0.735622 -0.208985 0.644348 
-0.823957 -0.102271 0.557346 -0.663416 -0.298327 0.686207 0.463759 0.0609778 -0.883861 
-0.522462 0.152149 0.838978 -0.43104 0.169872 0.886199 -0.553386 0.542647 0.6319 
-0.179775 0.772327 -0.609255 -0.0605196 0.444772 -0.893597 -0.462373 -0.153636 0.873274 
-0.55788 0.380087 0.737769 -0.754631 0.518652 0.401909 -0.283782 0.868383 0.406669 
-0.425152 0.898675 -0.107837 -0.494601 0.716998 -0.491207 -0.404691 0.892517 0.199094 
-0.731133 0.639168 -0.238556 -0.881848 0.44023 -0.168943 -0.57838 0.491846 -0.650819 
-0.716885 0.20601 -0.666059 -0.963729 0.198573 -0.178313 -0.999794 0.0171287 0.010918 
-0.963418 -0.245778 0.106864 -0.851852 -0.30102 0.428643 -0.682109 -0.487733 0.544833 
-0.766616 -0.525553 0.368909 0.520634 0.197909 -0.830525 -0.647845 -0.494051 0.579837 
-0.635845 -0.566364 0.524341 0.79075 0.546828 -0.275125 0.658275 0.614318 -0.435072 
-0.599784 -0.0743626 0.796699 -0.475113 0.160068 0.865243 0.488547 0.788716 -0.373161 
0.500241 0.843992 -0.193484 0.652143 0.70849 -0.269724 -0.205161 0.548818 0.810375 
-0.473922 0.488744 0.73248 0.483777 0.825507 -0.290685 -0.922913 0.358507 0.140368 
-0.266198 0.959467 -0.0925259 0.0815175 0.996543 -0.0160051 -0.501695 -0.734713 -0.456617 
0.306183 -0.439616 -0.844387 -0.634694 -0.620648 -0.460392 -0.682628 -0.651976 -0.33007 
0.562846 -0.302193 -0.76934 -0.833611 -0.551685 0.0271595 -0.852186 -0.385215 0.354102 
-0.728151 -0.27902 0.626055 -0.688657 -0.22865 0.688092 -0.308481 0.30482 0.901068 
-0.291427 0.46692 0.834899 -0.123402 0.787955 0.60324 -0.537215 0.678782 0.500654 
-0.659515 0.750721 0.0381781 -0.801339 0.513423 0.307007 -0.858452 0.269855 0.436162 
0.534238 0.200257 -0.821271 0.5927 0.454393 -0.665007 0.610449 0.194874 -0.767709 
0.68054 0.182628 -0.709585 -0.575201 -0.402392 0.712197 0.646903 0.315695 -0.694156 
0.750713 0.616554 -0.237255 0.742279 0.637375 0.206819 -0.36475 -0.0116834 0.931032 
-0.249845 0.258152 0.933239 0.423855 0.860365 0.283053 -0.267945 0.502108 0.822249 
-0.530807 0.150947 0.833942 -0.273736 0.717882 0.640089 -0.0418268 0.623216 0.780931 
-0.352122 0.561835 0.748567 -0.106217 0.894878 0.433487 0.295868 0.941197 0.163126 
-0.42072 -0.846261 -0.32686 -0.61586 -0.756262 -0.220874 0.0492296 -0.663494 -0.74656 
-0.746866 -0.653318 -0.123966 0.411903 -0.573497 -0.708122 -0.816855 -0.44038 0.372577 
-0.710397 -0.0421513 0.702538 0.496619 -0.143165 -0.85608 -0.554417 0.131359 0.821807 
-0.671097 0.443281 0.594248 -0.623548 0.324301 0.711349 -0.469319 0.104008 0.876882 
-0.849552 -0.0700182 0.522837 -0.60171 -0.0154208 0.798565 0.758484 0.297564 -0.57979 
0.786079 0.36084 -0.501871 0.759266 0.392774 -0.518887 -0.694384 -0.331286 0.638811 
0.830826 0.526509 -0.180321 0.683156 0.258355 -0.683045 0.874725 0.312833 -0.370123 
0.709648 0.542311 -0.449776 0.803344 0.517204 -0.295193 0.782103 0.614943 -0.100802 
0.642169 0.729272 0.236181 -0.161327 0.435071 0.885826 -0.196336 0.254058 0.947051 
0.0213334 0.850351 0.525784 -0.342983 -0.854858 -0.389334 -0.043468 -0.789509 -0.612198 
-0.0275582 -0.69334 -0.720083 0.285508 -0.603335 -0.744629 -0.705073 -0.708821 0.0210808 
-0.804928 -0.391085 0.446255 -0.604637 -0.0114146 0.796419 0.641451 -0.129762 -0.75611 
0.741542 0.180918 -0.646053 0.610504 0.188003 -0.769376 0.721371 0.312853 -0.617857 
0.857219 0.513917 -0.0326262 0.747602 0.485958 -0.452699 -0.37399 -0.0669007 0.925017 
-0.58347 -0.162816 0.795647 -0.434118 -0.143704 0.889321 -0.323115 -0.0585789 0.944545 
-0.0669135 0.0121154 0.997685 0.875631 0.475966 -0.0820205 0.852958 0.518159 0.0630301 
0.770394 0.530344 -0.353875 0.603703 0.503573 0.618027 0.788208 0.554938 0.26603 
0.802159 0.552757 0.225832 0.804051 0.573482 0.156908 -0.407916 -0.0846755 0.909085 
0.816216 0.522094 0.247404 0.782379 0.614733 0.0999307 -0.182811 0.15864 0.970265 
0.388879 0.467434 0.793901 -0.0160397 0.218756 0.975648 0.287554 0.505066 0.81377 
-0.135581 0.382199 0.914079 -0.0268168 0.803657 0.594488 0.119637 0.719171 0.684457 
-0.319661 -0.881538 -0.347431 0.0110043 -0.778112 -0.628029 -0.41629 -0.852375 -0.31648 
0.695582 -0.0081675 -0.7184 0.704118 0.144545 -0.695216 0.858261 0.148428 -0.491282 
0.793411 0.387826 -0.469136 0.805538 0.203046 -0.556669 0.900618 0.354449 -0.251501 
-0.141403 0.127439 0.981715 0.819914 0.476432 -0.317418 0.765667 0.563995 -0.309296 
0.736636 0.558263 -0.381719 0.647738 0.589594 0.482508 0.785325 0.532199 0.316274 
0.674246 0.538089 0.505819 0.464413 0.418564 0.780464 0.561068 0.33362 0.757562 
-0.378258 -0.0937105 0.920945 0.498629 0.382816 0.777702 -0.176051 -0.0152959 0.984262 
0.63962 0.442097 0.628837 0.490682 0.404375 0.771823 0.584355 0.477512 0.656133 
-0.0199828 0.212767 0.976899 -0.0112507 0.243301 0.969886 0.718206 0.49213 0.491923 
-0.161677 0.118169 0.979743 0.216853 0.362608 0.906361 0.500952 0.490685 0.712935 
0.133398 0.578926 0.804394 0.187158 0.363171 0.912732 -0.118464 -0.884059 -0.452113 
-0.674666 -0.735659 0.0602582 0.359235 -0.60559 -0.710078 0.677544 -0.298866 -0.672022 