# vtk DataFile Version 4.2
vtk output
ASCII
DATASET POLYDATA
POINTS 319 float
234.037 199.145 219.322 233.857 198.944 219.488 234.205 198.877 219.336 
234.796 199.256 219.057 235.141 199.015 219.075 235.623 199.342 218.988 
234.116 199.469 219.281 235.015 199.573 219.001 236.67 197.135 219.894 
238.491 197.498 219.509 234.988 198.583 219.276 238.52 198.532 219.123 
236.213 199.797 218.968 234.374 200.949 219.431 234.631 200.891 219.351 
236.757 200.358 219.009 234.304 201.137 219.57 236.275 201.714 219.318 
236.248 201.984 219.467 238.396 196.478 220.264 238.951 197.141 219.712 
234.12 197.447 220.333 232.512 198.841 220.515 232.115 198.918 220.823 
231.886 199.225 220.969 232.067 199.56 220.75 232.079 199.918 220.794 
233.999 200.275 219.483 234.672 200.484 219.266 244.271 199.074 219.595 
233.547 200.971 220.026 234.693 201.45 219.632 238.028 201.653 219.285 
263.788 207.607 220.663 265.313 208 220.761 265.666 208.229 220.89 
266.005 208.079 220.948 261.91 209.318 221.147 264.354 208.839 220.953 
265.639 208.604 221.069 264.781 209.128 221.217 238.181 196.145 220.669 
233.39 197.414 220.856 231.898 198.287 221.49 231.33 200.381 221.721 
231.436 200.873 221.803 242.162 201.144 219.227 248.996 200.651 220.863 
236.038 203.474 220.606 238.119 204.404 220.762 237.238 195.668 221.617 
232.991 197.084 221.654 230.433 199.764 222.604 271.093 201.974 223.03 
271.384 201.911 223.2 231.129 201.373 222.656 267.93 203.163 222.147 
271.229 202.702 222.878 271.519 202.187 223.147 271.695 202.284 223.267 
271.451 202.918 223.025 268.161 204.368 221.815 265.436 205.417 221.207 
267.876 205.047 221.658 271.616 203.738 223.333 244.135 205.97 221.132 
266.733 205.895 221.315 267.24 206.492 221.424 268.092 206.282 221.721 
269.509 205.698 222.249 243.509 207.466 222.264 268.63 206.754 222.063 
268.366 208.138 222.507 269.541 207.363 222.918 263.765 209.943 221.862 
259.694 210.335 222.327 266.253 209.622 222.444 236.753 195.232 222.655 
243.048 195.344 222.284 235.241 195.675 222.635 230.16 199.391 223.204 
230.281 199.843 222.849 253.64 200.809 222.106 255.576 200.604 222.618 
254.702 200.053 222.738 230.476 200.534 222.953 264.749 202.57 222.372 
258.266 202.784 221.962 263.522 203.102 222.055 232.158 203.052 223.397 
253.207 204.139 221.197 271.796 204.586 223.883 253.051 207.422 221.602 
252.818 209.606 222.917 264.099 210.491 222.914 253.692 210.639 223.936 
257.352 210.743 223.315 243.338 194.91 223.446 248.608 196.849 223.105 
251.141 199.25 222.208 271.667 200.345 224.385 272.459 201.001 224.715 
230.534 201.201 223.589 259.072 201.078 222.987 272.535 201.457 224.696 
231.265 202.306 223.781 261.644 201.8 222.803 272.656 202.725 224.839 
242.302 207.622 222.84 270.565 207.021 223.792 268.744 208.72 223.516 
267.662 209.612 223.732 249.163 210.315 224.388 251.999 210.594 224.131 
250.474 196.407 224.844 271.765 198.926 225.426 271.534 198.836 225.4 
271.885 198.702 225.719 229.792 198.781 224.686 229.621 198.876 225.046 
230.374 197.872 224.84 270.395 199.157 224.979 271.845 199.268 225.234 
229.738 199.295 224.538 271.214 199.639 224.68 266.692 200.383 224.045 
259.066 200.59 223.372 258.305 200.042 223.674 272.473 200.558 224.975 
241.656 208.525 224.908 252.891 211.25 225.211 263.032 211.306 224.566 
236.069 194.685 225.285 272.086 198.555 226.12 272.717 199.944 225.727 
235.52 205.948 225.288 268.977 209.246 225 249.456 210.935 225.675 
242.923 194.271 225.878 272.249 197.683 227.401 271.789 198.138 226.42 
271.392 198.303 226.046 229.491 199.17 225.623 260.823 198.889 225.969 
272.9 199.332 226.795 229.538 200.053 226.174 270.656 208.048 225.942 
267.15 210.463 225.92 250.273 195.598 227.467 271.791 197.608 227.243 
270.418 197.62 227.498 229.983 198.105 227.282 261.571 198.42 227.535 
268.188 198.335 226.716 229.531 198.97 227.26 271.645 207.116 227.201 
249.247 211.274 227.221 271.552 197.382 227.863 229.703 198.621 227.846 
229.479 199.829 227.796 271.884 197.401 228.639 272.49 197.901 228.637 
270.489 197.339 228.679 230.611 197.278 228.796 229.846 198.48 229.336 
229.621 199.039 228.711 230.788 202.651 228.866 236.098 206.839 229.363 
271.196 207.848 229.298 244.133 210.089 229.033 257.925 212.163 228.719 
239.935 193.95 229.941 271.2 197.292 229.111 272.239 197.656 228.964 
272.133 197.661 229.406 272.618 205.463 229.965 251.956 211.734 230.258 
244.256 194.29 230.317 271.496 197.461 229.744 257.46 197.73 231.055 
273.308 201.456 230.342 230.215 201.597 231.314 273.074 203.563 230.883 
271.598 197.878 230.781 272.439 198.303 230.389 230.918 197.281 232.479 
268.522 197.978 230.454 270.918 197.915 231.167 229.773 198.552 233.289 
229.642 198.751 233.065 229.631 198.854 232.71 262.081 198.838 231.826 
229.736 200.358 231.494 231.064 202.665 232.308 260.024 211.874 231.845 
272.249 198.5 231.342 254.435 197.674 232.584 271.443 198.192 231.534 
270.614 198.303 231.788 229.628 199.764 232.145 272.501 204.182 232.423 
238.199 207.607 232.114 239.95 208.42 231.971 269.323 209.152 231.956 
265.842 210.746 232.48 251.57 211.178 232.468 240.563 194.245 233.147 
231.688 196.863 233.487 272.049 198.446 231.529 271.139 198.418 231.87 
272.324 198.995 231.673 255.364 198.628 233.472 272.61 199.822 231.67 
229.588 199.108 233.53 268.257 199.37 232.986 272.523 203.714 232.641 
238.769 207.612 232.896 267.774 209.732 233.144 263.77 211.185 233.175 
241.731 194.648 233.749 234.537 195.541 234.257 247.125 196.192 234.399 
271.417 198.901 232.2 229.888 199.023 234.493 229.73 199.019 234.169 
272.073 202.434 233.386 272.025 203.123 233.438 233.24 203.995 234.771 
239.65 207.01 234.682 239.434 207.559 233.647 253.656 210.777 233.832 
231.024 197.992 234.983 255.314 200.029 234.683 229.99 200.007 234.808 
252.365 200.594 235.715 271.158 200.865 233.718 271.711 201.465 233.59 
271.724 202.04 233.708 230.532 201.1 235.07 263.129 202.684 235.555 
270.721 206.061 234.219 249.198 207.53 235.747 269.869 207.176 234.407 
253.337 209.215 235.663 253.571 209.539 235.469 260.541 210.885 234.446 
265.373 210.07 234.695 236.577 195.525 235.461 242.227 195.585 235.47 
244.454 196.838 236.422 230.117 199.494 235.068 248.224 198.17 235.843 
230.679 199.555 235.806 246.443 198.424 236.732 248.873 198.912 236.044 
230.782 200.073 235.919 270.915 201.825 234.214 230.921 201.203 235.602 
231.777 202.313 235.511 248.882 203.833 236.825 267.938 205.774 236 
270.615 205.055 234.532 241.91 206.721 235.679 244.756 206.639 236.038 
259.642 206.294 236.754 268.688 206.517 235.56 268.633 207.202 235.355 
252.881 208.07 236.125 266.693 208.93 235.456 254.283 209.467 235.692 
265.423 209.448 235.546 255.755 209.89 235.441 235.014 196.72 236.701 
238.39 196.139 236.523 234.592 196.92 236.712 232.231 198.025 236.382 
245.682 200.172 237.403 232.834 201.92 236.902 237.529 202.855 237.713 
232.761 202.82 236.085 238.035 204.09 237.041 235.983 204.228 236.553 
234.112 203.94 235.957 237.61 205.205 235.971 265.632 206.071 236.682 
267.626 207.178 236.063 266.417 208.777 235.784 265.969 208.78 235.955 
258.047 209.531 235.883 260.207 209.1 236.391 263.714 209.294 236.092 
261.577 209.704 235.949 243.441 196.92 236.725 239.347 198.099 237.941 
242.861 198.964 237.884 231.886 200.067 237.079 232.084 200.692 237.107 
234.901 201.108 238.2 234.587 201.242 238.072 235.399 201.24 238.232 
236.17 202.275 237.927 266.403 206.599 236.597 267.334 206.481 236.332 
264.879 206.894 236.74 265.275 207.513 236.648 260.871 208.426 236.677 
265.639 207.901 236.498 264.728 208.606 236.324 265.626 208.41 236.263 
235.57 198.193 237.868 233.312 198.956 237.751 234.211 199.475 238.209 
234.984 199.19 238.217 233.228 201.046 237.574 235.438 200.424 238.365 
243.128 200.108 237.966 229.479 199.829 227.796 229.846 198.48 229.336 
229.621 199.039 228.711 
POLYGONS 628 2512
3 1 0 2 
3 3 7 4 
3 0 3 4 
3 4 7 5 
3 0 1 6 
3 3 0 6 
3 8 21 1 
3 9 11 20 
3 8 1 2 
3 10 8 2 
3 8 10 5 
3 9 8 12 
3 11 9 12 
3 10 2 0 
3 4 10 0 
3 5 10 4 
3 12 8 5 
3 29 20 11 
3 3 6 7 
3 11 12 32 
3 32 12 15 
3 27 13 14 
3 29 11 32 
3 13 27 16 
3 14 13 16 
3 31 17 15 
3 17 31 18 
3 15 17 18 
3 20 41 19 
3 41 20 78 
3 9 19 8 
3 20 19 9 
3 78 20 29 
3 22 1 42 
3 42 1 21 
3 24 22 23 
3 22 24 25 
3 25 26 22 
3 22 26 1 
3 1 30 6 
3 1 26 30 
3 30 27 6 
3 6 28 7 
3 27 28 6 
3 7 28 5 
3 5 28 12 
3 16 27 30 
3 14 28 27 
3 14 31 28 
3 12 28 15 
3 28 31 15 
3 29 32 46 
3 14 16 31 
3 15 18 32 
3 32 18 48 
3 46 32 49 
3 37 38 33 
3 34 33 38 
3 34 35 36 
3 34 38 40 
3 35 34 39 
3 39 34 40 
3 39 36 35 
3 21 8 42 
3 8 19 50 
3 23 43 24 
3 22 42 23 
3 23 42 43 
3 78 29 47 
3 24 26 25 
3 26 24 45 
3 44 45 24 
3 45 30 26 
3 29 46 47 
3 30 31 16 
3 45 48 30 
3 31 30 48 
3 31 48 18 
3 32 48 49 
3 49 48 89 
3 37 75 38 
3 39 40 76 
3 41 77 50 
3 42 79 51 
3 41 50 19 
3 78 47 98 
3 43 42 51 
3 52 43 81 
3 52 24 43 
3 44 55 45 
3 44 52 55 
3 44 24 52 
3 56 69 53 
3 58 54 53 
3 58 53 57 
3 56 86 61 
3 57 53 69 
3 58 57 60 
3 60 59 58 
3 49 65 46 
3 33 62 86 
3 69 56 61 
3 60 57 64 
3 66 86 62 
3 61 86 63 
3 63 86 66 
3 63 66 68 
3 69 61 63 
3 65 49 108 
3 34 62 33 
3 68 66 67 
3 67 66 62 
3 57 69 91 
3 108 70 65 
3 67 62 34 
3 63 68 71 
3 71 68 67 
3 69 63 71 
3 67 34 36 
3 71 67 72 
3 72 67 36 
3 69 71 73 
3 73 71 72 
3 38 75 74 
3 38 74 40 
3 36 39 76 
3 37 92 96 
3 37 96 75 
3 8 79 42 
3 77 8 50 
3 79 8 77 
3 51 120 43 
3 81 43 80 
3 99 47 90 
3 90 82 99 
3 99 82 114 
3 114 84 83 
3 114 83 127 
3 81 80 85 
3 52 81 85 
3 85 55 52 
3 84 82 90 
3 83 84 90 
3 127 83 90 
3 87 127 90 
3 56 53 86 
3 54 58 59 
3 104 54 59 
3 55 85 105 
3 45 55 105 
3 89 45 105 
3 89 48 45 
3 46 90 47 
3 106 87 33 
3 33 87 90 
3 86 88 33 
3 59 60 104 
3 90 46 92 
3 60 64 104 
3 64 57 91 
3 49 89 129 
3 46 65 92 
3 92 65 70 
3 92 70 113 
3 37 90 92 
3 33 90 37 
3 109 91 69 
3 93 92 113 
3 92 93 96 
3 74 94 40 
3 40 94 76 
3 36 76 111 
3 72 36 110 
3 36 111 110 
3 113 130 93 
3 96 93 95 
3 74 75 131 
3 94 74 131 
3 93 130 95 
3 96 95 176 
3 77 41 132 
3 78 97 41 
3 97 78 98 
3 79 163 51 
3 77 132 79 
3 114 98 47 
3 99 114 47 
3 123 80 43 
3 84 114 82 
3 80 123 85 
3 54 100 125 
3 53 54 125 
3 104 100 54 
3 101 128 100 
3 101 100 104 
3 85 102 105 
3 106 103 87 
3 88 106 33 
3 104 91 107 
3 104 64 91 
3 108 49 129 
3 107 91 109 
3 69 73 109 
3 72 110 73 
3 76 147 111 
3 76 94 131 
3 163 120 51 
3 115 117 116 
3 118 123 120 
3 119 118 120 
3 120 123 43 
3 121 122 116 
3 150 121 116 
3 116 122 115 
3 118 119 123 
3 122 121 124 
3 134 115 122 
3 124 134 122 
3 126 103 143 
3 121 125 124 
3 124 100 128 
3 124 128 134 
3 123 102 85 
3 87 126 127 
3 100 124 125 
3 87 103 126 
3 125 143 106 
3 106 143 103 
3 53 125 86 
3 101 104 128 
3 128 104 107 
3 88 125 106 
3 86 125 88 
3 108 129 70 
3 129 113 70 
3 147 110 111 
3 76 131 147 
3 113 112 130 
3 95 130 176 
3 117 115 133 
3 142 123 119 
3 127 152 114 
3 115 134 133 
3 123 142 102 
3 143 127 126 
3 121 153 125 
3 125 152 143 
3 107 134 128 
3 102 166 105 
3 166 89 105 
3 89 135 129 
3 107 109 146 
3 110 136 73 
3 146 109 73 
3 136 146 73 
3 136 110 147 
3 112 156 137 
3 112 137 130 
3 96 176 170 
3 75 96 170 
3 75 170 131 
3 79 132 163 
3 97 98 177 
3 114 148 98 
3 117 140 141 
3 116 117 141 
3 133 144 139 
3 133 139 140 
3 133 140 117 
3 154 119 120 
3 116 141 150 
3 134 144 133 
3 125 153 152 
3 102 142 145 
3 145 166 102 
3 134 107 144 
3 135 89 166 
3 202 135 167 
3 129 135 202 
3 112 169 156 
3 137 156 176 
3 41 171 132 
3 41 138 171 
3 97 138 41 
3 163 132 220 
3 149 139 157 
3 114 152 148 
3 149 157 150 
3 149 140 139 
3 120 163 151 
3 150 140 149 
3 151 154 120 
3 141 140 150 
3 119 154 142 
3 145 142 154 
3 143 152 127 
3 150 153 121 
3 175 144 107 
3 166 167 135 
3 107 146 155 
3 112 129 169 
3 112 113 129 
3 130 137 176 
3 131 170 194 
3 97 177 138 
3 98 148 177 
3 139 160 157 
3 150 162 153 
3 151 165 158 
3 154 151 158 
3 165 151 163 
3 139 144 161 
3 158 159 154 
3 153 186 152 
3 145 154 159 
3 159 166 145 
3 155 203 168 
3 146 203 155 
3 203 146 136 
3 129 202 169 
3 136 147 203 
3 148 221 177 
3 157 160 172 
3 160 139 161 
3 157 172 150 
3 150 172 162 
3 158 165 159 
3 175 107 155 
3 156 169 176 
3 194 218 131 
3 131 218 147 
3 132 171 220 
3 138 177 171 
3 160 173 172 
3 160 161 173 
3 172 178 162 
3 163 185 164 
3 165 163 164 
3 152 191 148 
3 152 186 191 
3 161 144 212 
3 318 317 316 
3 212 144 180 
3 180 144 182 
3 182 144 175 
3 155 168 175 
3 167 201 202 
3 169 228 176 
3 171 206 220 
3 171 177 206 
3 173 178 172 
3 178 173 174 
3 185 163 220 
3 174 184 178 
3 173 184 174 
3 184 173 161 
3 212 184 161 
3 153 162 186 
3 186 214 191 
3 164 190 192 
3 185 190 164 
3 164 192 159 
3 192 166 159 
3 181 166 192 
3 166 193 227 
3 240 175 168 
3 147 218 204 
3 147 204 203 
3 176 230 170 
3 177 221 219 
3 148 196 221 
3 196 148 179 
3 184 195 183 
3 184 183 178 
3 162 178 186 
3 186 178 187 
3 187 178 183 
3 190 188 189 
3 188 190 185 
3 191 179 148 
3 187 198 186 
3 181 192 193 
3 180 182 212 
3 193 166 181 
3 200 212 182 
3 227 167 166 
3 182 175 240 
3 240 168 203 
3 176 205 230 
3 185 220 207 
3 195 187 183 
3 197 187 195 
3 210 195 184 
3 188 224 213 
3 189 188 213 
3 185 224 188 
3 196 179 211 
3 210 184 212 
3 213 190 189 
3 199 190 213 
3 199 213 192 
3 192 190 199 
3 215 212 200 
3 182 240 200 
3 227 216 167 
3 167 216 201 
3 240 203 242 
3 169 202 228 
3 170 230 194 
3 177 219 206 
3 207 231 224 
3 185 207 224 
3 197 208 209 
3 187 197 209 
3 208 197 195 
3 208 195 210 
3 209 198 187 
3 179 232 211 
3 191 232 179 
3 214 186 198 
3 192 213 233 
3 235 239 191 
3 235 191 214 
3 192 233 238 
3 192 238 193 
3 202 201 229 
3 201 216 229 
3 203 268 242 
3 203 217 268 
3 205 176 228 
3 218 246 204 
3 217 203 204 
3 194 230 288 
3 220 206 247 
3 220 272 207 
3 208 222 209 
3 222 208 210 
3 224 231 223 
3 196 254 221 
3 235 198 222 
3 198 209 222 
3 232 196 211 
3 214 198 235 
3 236 235 222 
3 210 212 222 
3 224 233 213 
3 232 234 196 
3 222 212 236 
3 212 225 236 
3 193 238 258 
3 226 225 212 
3 258 227 193 
3 215 226 212 
3 215 200 226 
3 200 261 226 
3 200 240 261 
3 283 216 227 
3 202 229 228 
3 218 291 246 
3 230 271 288 
3 218 194 245 
3 206 219 273 
3 207 272 274 
3 231 250 223 
3 223 233 224 
3 234 254 196 
3 232 264 234 
3 259 234 264 
3 236 225 237 
3 238 257 258 
3 239 232 191 
3 279 227 258 
3 282 227 279 
3 264 232 239 
3 283 228 216 
3 263 259 241 
3 241 259 264 
3 241 228 263 
3 229 216 228 
3 243 241 267 
3 243 205 241 
3 241 205 228 
3 244 230 243 
3 244 269 230 
3 243 230 205 
3 288 289 245 
3 246 291 290 
3 204 246 270 
3 268 217 204 
3 270 268 204 
3 271 230 269 
3 245 194 288 
3 291 218 245 
3 247 206 273 
3 273 219 248 
3 247 273 220 
3 219 292 248 
3 292 219 249 
3 221 249 219 
3 274 231 207 
3 275 231 274 
3 251 249 221 
3 252 233 250 
3 252 250 275 
3 275 250 231 
3 249 251 253 
3 223 250 233 
3 221 254 251 
3 255 233 252 
3 251 276 253 
3 254 276 251 
3 276 254 234 
3 255 238 233 
3 276 234 259 
3 260 235 256 
3 236 237 235 
3 255 257 238 
3 256 261 260 
3 237 225 256 
3 235 237 256 
3 225 226 256 
3 260 239 235 
3 226 261 256 
3 262 280 259 
3 259 263 262 
3 260 301 239 
3 228 283 280 
3 228 280 262 
3 261 265 260 
3 263 228 262 
3 267 241 264 
3 266 260 265 
3 285 260 266 
3 261 266 265 
3 240 242 261 
3 268 285 266 
3 286 285 268 
3 261 242 266 
3 242 268 266 
3 290 307 270 
3 270 287 268 
3 245 289 291 
3 246 290 270 
3 273 248 292 
3 273 272 220 
3 252 275 255 
3 276 259 315 
3 296 258 255 
3 258 257 255 
3 296 277 258 
3 277 279 258 
3 281 300 278 
3 280 283 278 
3 283 281 278 
3 227 282 281 
3 281 283 227 
3 284 239 301 
3 260 302 301 
3 239 303 264 
3 302 260 285 
3 264 288 267 
3 269 243 267 
3 288 271 267 
3 289 264 305 
3 289 288 264 
3 243 269 244 
3 271 269 267 
3 268 287 286 
3 293 273 292 
3 273 274 272 
3 275 274 310 
3 309 274 273 
3 293 309 273 
3 275 310 295 
3 294 293 292 
3 253 276 249 
3 275 295 255 
3 292 315 294 
3 292 249 276 
3 255 295 296 
3 297 314 299 
3 298 314 297 
3 300 314 259 
3 299 314 300 
3 292 276 315 
3 281 297 299 
3 300 281 299 
3 278 300 259 
3 313 279 277 
3 313 281 279 
3 280 278 259 
3 282 279 281 
3 264 303 290 
3 305 264 290 
3 239 284 303 
3 303 284 304 
3 301 304 284 
3 290 291 305 
3 303 307 290 
3 304 307 303 
3 301 306 304 
3 302 285 301 
3 301 286 306 
3 285 286 301 
3 291 289 305 
3 306 308 304 
3 308 307 304 
3 286 287 308 
3 286 308 306 
3 308 270 307 
3 287 270 308 
3 310 274 311 
3 311 274 312 
3 312 274 309 
3 309 314 312 
3 293 314 309 
3 314 311 312 
3 259 314 293 
3 295 313 296 
3 313 311 298 
3 295 311 313 
3 314 298 311 
3 294 315 293 
3 313 277 296 
3 298 297 281 
3 293 315 259 
3 281 313 298 
3 295 310 311 

POINT_DATA 319
SCALARS scalars float
LOOKUP_TABLE default
1 1 1 1 1 1 1 1 1 
1 1 1 1 1 1 1 1 1 
1 1 1 1 1 1 1 1 1 
1 1 1 1 1 1 1 1 1 
1 1 1 1 1 1 1 1 1 
1 1 1 1 1 1 1 1 1 
1 1 1 1 1 1 1 1 1 
1 1 1 1 1 1 1 1 1 
1 1 1 1 1 1 1 1 1 
1 1 1 1 1 1 1 1 1 
1 1 1 1 1 1 1 1 1 
1 1 1 1 1 1 1 1 1 
1 1 1 1 1 1 1 1 1 
1 1 1 1 1 1 1 1 1 
1 1 1 1 1 1 1 1 1 
1 1 1 1 1 1 1 1 1 
1 1 1 1 1 1 1 1 1 
1 1 1 1 1 1 1 1 1 
1 1 1 1 1 1 1 1 1 
1 1 1 1 1 1 1 1 1 
1 1 1 1 1 1 1 1 1 
1 1 1 1 1 1 1 1 1 
1 1 1 1 1 1 1 1 1 
1 1 1 1 1 1 1 1 1 
1 1 1 1 1 1 1 1 1 
1 1 1 1 1 1 1 1 1 
1 1 1 1 1 1 1 1 1 
1 1 1 1 1 1 1 1 1 
1 1 1 1 1 1 1 1 1 
1 1 1 1 1 1 1 1 1 
1 1 1 1 1 1 1 1 1 
1 1 1 1 1 1 1 1 1 
1 1 1 1 1 1 1 1 1 
1 1 1 1 1 1 1 1 1 
1 1 1 1 1 1 1 1 1 
1 1 1 1 
NORMALS Normals float
-0.364597 -0.197582 -0.909961 -0.547181 -0.267575 -0.793093 -0.32604 -0.477582 -0.815851 
-0.234595 -0.141694 -0.961711 -0.0935117 -0.306958 -0.947118 0.045161 -0.145204 -0.988371 
-0.508643 0.0848871 -0.856782 -0.131442 0.0455818 -0.990275 -0.180938 -0.666588 -0.723133 
-0.0546073 -0.449459 -0.89163 -0.100173 -0.401043 -0.910566 0.0617514 -0.189019 -0.98003 
0.0869905 -0.21742 -0.972194 -0.364842 0.326763 -0.871846 -0.0446632 0.331239 -0.942489 
0.211826 0.13567 -0.967845 -0.417782 0.473521 -0.775394 0.102716 0.377217 -0.920411 
0.0413111 0.495174 -0.867811 -0.0277549 -0.715089 -0.698482 0.186537 -0.599965 -0.777976 
-0.306655 -0.689648 -0.656009 -0.564778 -0.199057 -0.800875 -0.651368 -0.362243 -0.666708 
-0.735048 -0.0479359 -0.676318 -0.617609 0.0249101 -0.786091 -0.635693 0.126732 -0.761468 
-0.489829 0.179689 -0.8531 -0.0611588 0.225168 -0.972398 0.173232 -0.296396 -0.939223 
-0.596797 0.370787 -0.711583 -0.170033 0.485905 -0.857313 0.11122 0.155326 -0.981582 
-0.00752658 -0.133435 -0.991029 0.154719 0.168079 -0.973556 0.209201 0.348625 -0.913617 
0.434843 0.416775 -0.798254 -0.10046 0.416012 -0.903793 0.0580637 0.532104 -0.844686 
0.275534 0.514327 -0.812126 0.202003 0.652033 -0.730786 0.0897739 -0.923619 -0.372652 
-0.445753 -0.66866 -0.595146 -0.723218 -0.490162 -0.486515 -0.739308 0.241995 -0.628381 
-0.637872 0.454293 -0.621881 0.0813014 0.154135 -0.984699 0.300162 -0.406602 -0.862889 
-0.331514 0.648633 -0.685108 -0.209609 0.668366 -0.713688 -0.217681 -0.799672 -0.55959 
-0.502428 -0.79392 -0.342428 -0.807116 0.0358951 -0.589301 0.185799 -0.42766 -0.884639 
0.45908 -0.524993 -0.716678 -0.724614 0.45114 -0.520967 0.211178 -0.316464 -0.9248 
0.249142 0.0861006 -0.964632 0.539382 -0.24832 -0.804614 0.735657 -0.200945 -0.646862 
0.686523 0.0686195 -0.723863 0.22672 -0.2299 -0.946438 0.0852123 -0.189299 -0.978215 
0.264454 -0.102672 -0.958917 0.475956 0.304175 -0.825193 -0.11269 0.500668 -0.858273 
0.182955 -0.138027 -0.973384 0.302291 0.0858228 -0.949344 0.390282 0.0206728 -0.920463 
0.464966 0.0559281 -0.88356 -0.149389 0.711175 -0.68696 0.445961 0.214138 -0.869059 
0.480947 0.456906 -0.748283 0.634232 0.511915 -0.579389 0.0673125 0.791911 -0.606915 
-0.0355079 0.826138 -0.562348 0.373604 0.785656 -0.493117 -0.060213 -0.928245 -0.367063 
0.209965 -0.742021 -0.636647 -0.343653 -0.865022 -0.365566 -0.938972 -0.131964 -0.317674 
-0.910579 -0.0658153 -0.408061 0.257768 -0.438568 -0.860938 0.262001 -0.49284 -0.829738 
0.256465 -0.490353 -0.832935 -0.85654 0.358577 -0.371164 0.0179223 -0.413942 -0.910127 
-0.00245921 -0.48041 -0.87704 -0.0267009 -0.456697 -0.889222 -0.525079 0.755345 -0.392104 
0.139722 -0.175533 -0.974508 0.678173 0.337392 -0.652877 -0.116336 0.432939 -0.893885 
-0.204072 0.677862 -0.706298 0.204477 0.86727 -0.453907 0.0513445 0.92424 -0.378343 
-0.124053 0.794126 -0.594957 0.204462 -0.942651 -0.263827 0.275375 -0.837991 -0.471105 
0.225083 -0.502808 -0.834579 0.42934 -0.436464 -0.790675 0.702403 -0.235422 -0.671718 
-0.880632 0.411932 -0.234093 0.111924 -0.622516 -0.774562 0.835269 -0.0992395 -0.540812 
-0.690675 0.62766 -0.35918 0.0320792 -0.544734 -0.837995 0.959607 0.15901 -0.2321 
-0.236768 0.733175 -0.637491 0.789104 0.458359 -0.408927 0.531718 0.721712 -0.443179 
0.491816 0.749584 -0.44299 -0.273222 0.837813 -0.472672 -0.179953 0.666685 -0.723289 
0.252971 -0.749287 -0.612025 0.59238 -0.486204 -0.642411 0.0922471 -0.691699 -0.71627 
0.452914 -0.661298 -0.597958 -0.714927 -0.391599 -0.579249 -0.916798 -0.356942 -0.17909 
-0.720893 -0.622443 -0.304758 0.0200046 -0.732004 -0.681007 0.401864 -0.49174 -0.772461 
-0.904727 -0.116283 -0.409814 0.345488 -0.531393 -0.773472 0.01476 -0.698238 -0.715714 
0.129443 -0.625706 -0.769244 0.118569 -0.664236 -0.738059 0.813323 -0.337676 -0.473793 
-0.306926 0.840033 -0.447371 0.0203287 0.928922 -0.369717 0.137034 0.964711 -0.224842 
-0.150469 -0.981479 -0.11857 0.692243 -0.518331 -0.502128 0.777149 -0.34261 -0.52788 
-0.463018 0.863516 -0.199885 0.604335 0.763306 -0.228347 -0.19454 0.947877 -0.252356 
0.0824563 -0.983175 -0.162997 0.562196 -0.771742 -0.297237 0.237788 -0.812424 -0.532376 
0.000487407 -0.812174 -0.583415 -0.989866 0.0395829 -0.136375 0.122432 -0.821278 -0.557237 
0.970987 -0.177726 -0.159993 -0.969073 0.235622 -0.073344 0.733157 0.638081 -0.23523 
0.375107 0.916551 -0.138666 0.191891 -0.9814 0.00557844 0.0934276 -0.89833 -0.429273 
-0.127583 -0.904748 -0.40639 -0.829932 -0.556642 0.0369034 0.0471722 -0.970139 -0.237916 
-0.157496 -0.924475 -0.34719 -0.952553 -0.304351 0.00372909 0.770093 0.616114 -0.165407 
-0.268121 0.945633 -0.184092 0.0939435 -0.97885 -0.181735 -0.917281 -0.383499 0.107345 
-0.997839 0.0486645 0.044144 0.431972 -0.901736 0.0164985 0.863034 -0.504721 0.0206999 
-0.188599 -0.9819 0.0174256 -0.643196 -0.764483 -0.0431825 -0.924597 -0.380938 -0.00258389 
-0.881427 -0.468989 0.0559947 -0.775035 0.630994 -0.0341783 -0.588832 0.799088 0.121387 
0.725163 0.684104 0.0783626 -0.255246 0.966184 0.0365747 -0.0198019 0.997699 -0.0648464 
-0.0556258 -0.997793 -0.0362583 0.0805374 -0.994494 0.067045 0.55346 -0.822786 0.12925 
0.529605 -0.817098 0.227747 0.941284 0.334834 0.043243 -0.0321902 0.998806 0.0367497 
0.229472 -0.972897 0.0285462 0.173328 -0.94746 0.268843 0.263697 -0.84823 0.459314 
0.990912 -0.0655858 0.117437 -0.887064 0.44843 0.109674 0.962637 0.235642 0.13343 
0.380332 -0.84694 0.371539 0.774406 -0.584459 0.242285 -0.66133 -0.746035 0.0779398 
-0.134368 -0.961792 0.238541 0.0976655 -0.89762 0.429813 -0.810197 -0.580049 0.0844078 
-0.910261 -0.414023 0.00307548 -0.931062 -0.346708 -0.113653 0.0581555 -0.851564 0.521015 
-0.971118 0.235574 0.0378785 -0.768756 0.616901 0.168664 0.00376427 0.970751 0.240058 
0.563463 -0.750364 0.345633 0.209314 -0.780788 0.588691 0.282776 -0.866868 0.410581 
-0.0119269 -0.745342 0.666575 -0.994957 0.0148004 -0.0992071 0.881035 0.248273 0.402663 
-0.386084 0.896059 0.219127 -0.282664 0.947884 0.147029 0.593148 0.791951 0.144877 
0.420274 0.872987 0.247514 -0.191421 0.852038 0.487226 -0.00525201 -0.956734 0.290917 
-0.526739 -0.803799 0.276501 0.441963 -0.66131 0.606083 0.139144 -0.714346 0.685819 
0.74014 -0.363875 0.565498 0.263545 -0.688314 0.675846 0.920839 -0.16385 0.353847 
-0.993361 -0.0358487 0.109309 -0.0611118 -0.679655 0.730982 0.91219 0.0980377 0.397867 
-0.424913 0.821781 0.379638 0.459766 0.81086 0.362107 0.173142 0.950369 0.258496 
0.197506 -0.888475 0.414249 -0.366081 -0.890903 0.268842 0.329759 -0.833065 0.444141 
0.381859 -0.490617 0.783249 -0.832576 -0.293598 0.4697 -0.830091 -0.467375 0.304153 
0.760022 -0.00352969 0.649888 0.777496 0.0824581 0.623458 -0.503139 0.815956 0.284722 
-0.189306 0.838359 0.511192 -0.119819 0.953309 0.27721 -0.120433 0.886401 0.446978 
-0.617525 -0.650124 0.442722 0.159491 -0.61655 0.770992 -0.910145 0.146274 0.387608 
0.214235 -0.404496 0.889093 0.191096 -0.445521 0.874639 0.661142 -0.283973 0.694442 
0.566545 -0.0811906 0.820021 -0.826599 0.453445 0.33335 0.105166 -0.455188 0.884163 
0.788822 0.465201 0.401682 -0.123956 0.479012 0.869012 0.611022 0.478309 0.630771 
-0.267566 0.622104 0.735795 -0.285753 0.713171 0.640103 -0.039451 0.843338 0.535934 
0.300144 0.814562 0.496388 -0.262668 -0.721713 0.640419 0.237825 -0.83421 0.497528 
0.222109 -0.615269 0.75638 -0.775412 -0.265752 0.572811 0.396935 -0.512215 0.761629 
-0.715362 -0.116751 0.688932 0.286619 -0.347586 0.892767 0.356659 -0.540509 0.762 
-0.692139 0.133191 0.709368 0.452618 -0.0954955 0.886577 -0.636716 0.397949 0.660477 
-0.643857 0.56346 0.517649 0.019452 0.21571 0.976264 0.323626 -0.11518 0.939148 
0.605585 0.132947 0.784596 -0.089265 0.596917 0.797322 -0.0664506 0.587296 0.80664 
-0.00852425 -0.0286017 0.999555 0.456272 0.202489 0.866495 0.515773 0.334526 0.788714 
-0.0676872 0.294491 0.953254 0.442067 0.687533 0.576086 -0.0923666 0.584772 0.805922 
0.313993 0.684155 0.658286 -0.0125377 0.635919 0.771654 -0.270242 -0.698544 0.662575 
-0.0548616 -0.653314 0.755097 -0.280693 -0.614312 0.73745 -0.579106 -0.464108 0.670254 
0.241173 -0.257135 0.935798 -0.385897 0.556311 0.735936 -0.099388 0.494891 0.863252 
-0.38686 0.642318 0.66164 -0.136675 0.572282 0.808587 -0.258199 0.630474 0.732008 
-0.38748 0.767201 0.511138 -0.28831 0.724937 0.625575 0.142627 -0.181487 0.972995 
0.457772 0.303553 0.835643 0.352944 0.475324 0.805914 0.247238 0.627796 0.738069 
-0.0793335 0.663698 0.743782 -0.0999013 0.47872 0.872265 0.0924869 0.465757 0.880066 
0.0599125 0.712285 0.699329 0.281857 -0.575667 0.76757 -0.0231359 -0.190332 0.981447 
0.29854 -0.266191 0.916524 -0.563805 -0.0560929 0.824001 -0.596534 0.327017 0.732945 
-0.21953 0.276173 0.9357 -0.307398 0.252702 0.917414 -0.132012 0.347854 0.928208 
-0.0432127 0.346968 0.936881 0.279684 -0.00834506 0.960056 0.373791 0.0282377 0.927083 
-0.0335288 0.0461196 0.998373 0.0612471 0.216242 0.974417 0.0281266 0.265235 0.963773 
0.226025 0.338019 0.913595 0.0680428 0.400074 0.913953 0.170825 0.461811 0.870373 
-0.0521534 -0.436616 0.898135 -0.407894 -0.38818 0.826401 -0.27166 -0.117688 0.95517 
-0.0917913 -0.338548 0.936461 -0.312284 0.379208 0.871022 -0.0275403 0.00372719 0.999614 
0.174568 0.031585 0.984138 0.118804 0.760791 0.638031 0.118804 0.760791 0.638031 
0.118804 0.760791 0.638031 
