# vtk DataFile Version 4.2
vtk output
ASCII
DATASET POLYDATA
POINTS 1275 float
188.485 84.2231 222.853 183.213 86.0286 223.007 182.017 87.1462 222.638 
181.148 87.0856 222.921 184.078 86.9305 222.267 242.504 86.0044 222.017 
242.504 86.0043 222.018 242.504 86.0044 222.017 242.505 86.0044 222.017 
242.505 86.0043 222.017 242.505 86.0044 222.018 186.343 87.281 221.906 
237.993 88.1201 222.064 238.113 88.0815 222.058 237.676 88.2194 222.08 
238.347 88.0031 222.048 238.336 88.0068 222.048 238.458 87.9649 222.044 
238.482 87.9568 222.043 242.504 86.0044 222.017 238.527 87.9407 222.041 
242.505 86.0044 222.018 180.079 89.0166 222.147 236.562 88.5244 222.145 
237.193 88.364 222.107 237.145 88.3748 222.109 237.734 88.2024 222.077 
238.183 88.058 222.055 238.378 87.9925 222.047 238.482 87.9567 222.043 
187.802 88.8213 221.706 233.791 88.7544 222.288 233.285 88.1306 222.377 
234.797 88.7857 222.269 234.54 88.5371 222.391 236.182 88.6358 222.175 
236.674 88.5094 222.146 237.243 88.3457 222.109 237.823 88.1724 222.074 
238.185 88.0572 222.055 183.213 90.1675 221.512 234.017 89.0725 222.29 
235.624 88.7763 222.234 231.846 89.7828 222.288 232.959 89.435 222.329 
233.669 89.3 222.38 234.388 89.0843 222.351 229.063 90.7191 222.132 
229.814 90.6602 222.25 233.121 89.5025 222.482 174.451 93.5913 221.819 
185.614 92.6386 221.418 229.59 91.0394 222.433 229.091 91.3376 222.547 
219.769 94.6174 221.91 216.859 95.8465 221.87 220.914 94.6904 222.052 
224.964 93.3512 222.508 169.659 97.3362 221.597 218.138 95.9519 222.015 
221.453 95.0088 222.391 155.74 99.2953 222.922 161.798 98.5948 221.882 
154.656 100.385 222.974 207.961 98.8637 221.789 212.415 98.3465 221.949 
214.948 97.5837 222.056 217.463 96.9775 222.38 209.644 99.4986 221.873 
211.959 98.8951 222.009 215.515 97.9047 222.39 216.965 97.2926 222.475 
154.232 101.58 223.017 204.885 101.033 221.801 209.324 100.146 221.949 
210.887 99.6206 222.036 213.321 98.9245 222.465 154.584 102.374 222.573 
155.908 102.342 221.904 206.526 101.329 221.9 211.379 99.9639 222.383 
211.955 99.6901 222.453 153.924 103.221 223.11 173.848 102.856 221.181 
206.171 101.944 222 210.899 100.296 222.465 153.821 104.122 223.159 
198.95 103.788 221.799 202.502 103.408 221.899 203.32 103.227 221.951 
204.92 102.689 222.028 209.017 101.275 222.495 204.767 103.169 222.225 
205.504 103.003 222.372 206.949 102.346 222.479 154.879 106.038 222.242 
157.282 106.043 221.4 196.264 105.123 221.819 197.823 105.786 221.892 
205.022 103.331 222.505 196.742 106.54 221.924 199.13 105.832 222.032 
201.394 105.19 222.351 199.704 105.978 222.236 200.909 105.545 222.437 
154.652 109.077 222.412 196.752 107.416 222.195 155.508 110.135 221.967 
197.007 107.598 222.443 154.24 111.443 222.747 186.201 111.175 221.859 
186.632 112.491 221.992 188.959 111.642 222.088 190.42 111.268 222.381 
189.939 111.645 222.464 186.77 113.225 222.288 185.446 114.188 222.467 
186.96 113.388 222.552 180.302 116.636 222.205 179.604 116.715 222.233 
181.941 115.861 222.171 184.911 114.584 222.567 179.505 117.46 222.355 
178.998 117.762 222.629 182.339 116.157 222.464 177.423 118.378 222.525 
178.668 118.279 222.467 178.286 118.302 222.597 179.807 117.707 222.382 
180.423 117.417 222.445 176.598 119.587 222.523 175.945 119.869 222.746 
179.928 117.796 222.488 174.595 120.886 222.428 174.375 120.446 222.438 
175.589 120.371 222.537 175.2 120.403 222.609 176.063 120.275 222.523 
177.026 119.636 222.52 177.64 119.3 222.535 178.942 118.458 222.51 
177.104 119.638 222.607 172.272 121.892 222.188 174.08 121.753 222.458 
175.121 121.113 222.593 173.81 122.161 222.574 172.062 123.33 222.537 
172.474 123.233 222.711 171.437 123.804 222.639 172.044 123.567 222.656 
154.461 127.015 222.889 168.128 127.41 222.589 168.39 127.475 222.688 
171.608 123.85 222.719 168.524 127.375 222.77 171.836 123.754 222.72 
154.743 127.772 222.791 155.426 127.373 222.349 168.453 127.581 222.758 
156.72 128.088 222.054 167.1 129.441 222.662 168.102 128.408 223.06 
164.48 137.043 222.243 164.87 136.991 222.441 165.178 136.68 222.608 
164.834 137.596 222.692 164.086 138.476 222.487 164.479 138.179 222.607 
160.793 140.176 222.507 164.334 138.525 222.666 161.499 140.622 222.79 
163.254 139.645 222.794 163.713 139.38 222.894 160.867 141.149 223.036 
161.261 140.999 222.955 161.504 140.916 223.18 161.08 141.11 222.964 
239.979 58.6058 224.529 239.956 58.4376 224.636 239.811 58.5567 224.534 
240.073 58.4634 224.704 239.281 58.9461 224.372 240.024 58.8317 224.492 
237.82 60.1426 224.002 237.168 60.0891 224.227 239.231 59.423 224.159 
239.479 59.8004 224.099 233.279 62.1646 223.968 236.093 61.616 223.593 
238.24 61.203 223.601 240.165 59.774 224.565 231.342 63.1564 223.873 
234.125 63.02 223.251 229.253 64.0544 223.957 235.531 63.4096 222.983 
238.584 62.5269 223.551 239.184 62.1713 223.897 239.702 61.7705 224.326 
227.164 65.0853 223.9 230.16 64.9889 223.168 233.623 64.5068 222.804 
236.213 64.1146 222.852 238.37 64.3294 223.389 239.513 63.5429 224.264 
223.105 67.0981 223.794 229.63 66.5094 222.731 238.92 64.9121 223.745 
225.447 69.3729 222.509 237.475 68.4653 222.895 215.374 70.7775 223.802 
216.945 71.7767 222.907 238.165 70.169 223.22 239.329 69.3612 224.206 
211.885 72.5009 223.775 211.379 72.744 223.811 212.193 73.8856 223.009 
220.288 73.2116 222.286 238.813 73.8126 223.665 205.084 76.9895 223.141 
203.076 77.9872 223.134 234.927 76.8942 222.213 238.403 77.2815 223.2 
239.488 76.4221 224.234 196.646 79.7068 223.894 203.524 79.4404 222.614 
231.974 78.9592 222.048 196.259 81.1214 223.145 238.792 79.513 223.076 
239.923 78.6367 224.252 203.282 81.2279 222.327 240.063 80.5347 223.443 
240.515 79.97 224.238 243.305 82.0938 223.613 245.833 82.2785 223.613 
246.348 82.2801 223.679 247.013 82.4062 223.711 246.778 82.3207 223.704 
247.001 82.3423 223.771 195.731 82.5772 222.723 241.352 81.1011 223.911 
241.358 81.7405 223.423 242.805 82.2446 223.463 242.55 81.8247 223.759 
246.391 82.5213 223.574 247.287 82.5322 223.762 247.498 82.537 223.876 
190.848 83.8844 222.914 240.778 82.3564 223.158 246.627 82.6409 223.626 
247.539 82.5827 223.821 247.585 82.6187 223.834 185.003 84.7138 223.454 
243.188 83.1217 223.457 183.64 84.9057 223.985 195.292 85.2257 222.268 
204.05 85.0355 222.06 240.961 83.465 223.342 243.348 83.3956 223.731 
245.196 83.1411 223.757 246.688 82.8718 223.817 180.839 86.7501 223.317 
242.504 86.0044 222.018 242.505 86.0044 222.018 244.42 83.2998 223.64 
220.848 86.8432 221.956 234.32 85.865 222.665 238 88.1156 222.064 
237.747 84.8622 223.324 238.296 88.0202 222.05 238.459 87.9645 222.044 
233.318 87.1729 222.514 234.247 86.8045 222.838 236.498 88.5079 222.168 
235.532 86.3424 223.372 237.329 88.3129 222.104 237.977 88.1225 222.066 
238.305 88.0166 222.05 193.173 89.1803 221.985 196.065 89.0574 222.029 
198.034 89.025 222.028 234.017 88.0034 222.858 234.693 88.6524 222.488 
234.896 86.7869 223.255 235.627 88.6164 222.271 236.456 88.5323 222.177 
172.214 90.7858 223.765 233.796 88.9246 222.731 233.516 88.6837 223.1 
234.55 88.951 222.436 169.404 92.0356 223.929 174.197 91.1321 222.692 
195.063 91.0666 221.986 231.038 90.2043 223.388 233.74 89.2498 222.513 
167.406 93.0115 223.888 229.984 90.9265 223.05 231.641 90.1606 222.71 
168.134 93.744 223.021 228.524 91.5329 223.32 229.762 91.0718 222.676 
206.712 94.7182 221.913 223.123 94.2771 223.126 222.519 94.4318 223.436 
163.632 96.2431 222.62 167.203 95.8925 222.182 157.089 97.9291 223.409 
220.132 95.7819 223.077 154.927 99.2408 223.625 217.617 97.039 222.692 
154.052 100.847 223.496 203.178 99.1944 221.826 212.322 99.5493 223.356 
213.898 98.7869 222.921 214.826 98.3719 222.721 212.021 99.7807 223.065 
210.574 100.553 222.716 207.057 102.248 223.466 153.228 105.957 223.912 
201.821 104.971 223.504 200.133 106.029 223.078 153.101 107.577 224.091 
197.841 107.071 223.493 199.6 106.343 222.754 153.682 108.841 223.215 
196.118 108.135 223.073 195.479 108.331 223.414 194.911 108.76 222.937 
195.812 108.322 222.725 190.977 111.081 223.132 190.345 111.414 223.339 
153.736 112.548 223.291 189.172 112.052 223.455 190.052 111.667 223.056 
188.62 112.522 222.774 184.527 114.9 222.84 181.63 116.49 223.578 
182.966 115.862 223.145 175.503 117.637 222.199 177.234 117.547 222.405 
178.395 117.181 222.464 180.308 117.323 223.211 181.451 116.842 222.748 
153.745 118.536 223.312 178.171 118.128 222.853 178.74 118.241 222.695 
178.82 117.713 222.903 179.771 117.693 222.828 179.488 117.616 223.1 
180.446 117.456 222.642 174.222 119.659 222.349 175.403 119.33 222.561 
177.85 118.641 223.113 177.876 118.84 222.838 179.417 118.093 222.592 
175.034 120.31 222.818 175.566 120.373 222.761 175.615 119.965 223.175 
176.678 119.74 222.813 176.468 119.567 223.316 177.706 119.204 222.64 
169.053 121.825 221.942 174.821 120.863 223.258 174.873 121.05 222.953 
175.572 120.691 222.703 173.072 122.809 223.264 173.893 122.157 222.752 
170.017 123.829 222.52 168.229 125.664 222.519 169.449 125.101 222.915 
170.81 124.236 223.127 172.073 123.607 222.789 153.92 126.403 223.379 
168.763 126.557 222.995 153.675 129.93 224.109 155.754 129.927 222.567 
154.895 130.929 223.077 162.714 130.674 221.925 158.116 132.893 222.134 
166.195 133.666 223.338 154.818 134.951 223.211 154.178 135.962 223.679 
165.158 137.229 223.274 164.945 137.674 223.405 154.015 140.821 223.875 
164.064 139.2 223.253 153.539 141.828 224.426 155.097 141.595 223.307 
156.566 141.383 223.02 159.603 140.737 222.852 162.211 140.542 223.173 
162.715 140.271 223.348 153.899 142.668 224.038 154.384 142.569 223.692 
160.455 141.369 223.47 161.052 141.154 223.099 154.802 143.292 223.606 
155.403 143.158 223.489 157.811 142.564 223.567 158.488 142.581 223.799 
155.884 143.854 223.75 156.634 143.755 223.909 157.3 143.366 223.945 
153.454 147.546 224.831 153.485 147.551 224.722 239.992 58.3532 224.87 
238.786 58.8029 224.735 239.564 58.3792 224.91 240.277 58.7229 225.038 
240.365 59.1697 225.061 235.261 60.6029 224.597 232.971 61.84 224.383 
[...]
POINT_DATA 1275
COLOR_SCALARS scalars 3
0.25098 0.65098 0.4 0.25098 0.65098 0.4 0.25098 0.65098 0.4 
0.25098 0.65098 0.4 0.25098 0.65098 0.4 
0.25098 0.65098 0.4 0.25098 0.65098 0.4 
0.25098 0.65098 0.4 0.25098 0.65098 0.4 
0.25098 0.65098 0.4 0.25098 0.65098 0.4 
0.25098 0.65098 0.4 0.25098 0.65098 0.4 
0.25098 0.65098 0.4 0.25098 0.65098 0.4 
0.25098 0.65098 0.4 0.25098 0.65098 0.4 
0.25098 0.65098 0.4 0.25098 0.65098 0.4 
0.25098 0.65098 0.4 0.25098 0.65098 0.4 
0.25098 0.65098 0.4 0.25098 0.65098 0.4 
0.25098 0.65098 0.4 0.25098 0.65098 0.4 
0.25098 0.65098 0.4 0.25098 0.65098 0.4 
0.25098 0.65098 0.4 0.25098 0.65098 0.4 
0.25098 0.65098 0.4 0.25098 0.65098 0.4 
0.25098 0.65098 0.4 0.25098 0.65098 0.4 
0.25098 0.65098 0.4 0.25098 0.65098 0.4 
0.25098 0.65098 0.4 0.25098 0.65098 0.4 
0.25098 0.65098 0.4 0.25098 0.65098 0.4 
0.25098 0.65098 0.4 0.25098 0.65098 0.4 
0.25098 0.65098 0.4 0.25098 0.65098 0.4 
0.25098 0.65098 0.4 0.25098 0.65098 0.4 
0.25098 0.65098 0.4 0.25098 0.65098 0.4 
0.25098 0.65098 0.4 0.25098 0.65098 0.4 
0.25098 0.65098 0.4 0.25098 0.65098 0.4 
0.25098 0.65098 0.4 0.25098 0.65098 0.4 
0.25098 0.65098 0.4 0.25098 0.65098 0.4 
0.25098 0.65098 0.4 0.25098 0.65098 0.4 
0.25098 0.65098 0.4 0.25098 0.65098 0.4 
0.25098 0.65098 0.4 0.25098 0.65098 0.4 
0.25098 0.65098 0.4 0.25098 0.65098 0.4 
0.25098 0.65098 0.4 0.25098 0.65098 0.4 
0.25098 0.65098 0.4 0.25098 0.65098 0.4 
0.25098 0.65098 0.4 0.25098 0.65098 0.4 
0.25098 0.65098 0.4 0.25098 0.65098 0.4 
0.25098 0.65098 0.4 0.25098 0.65098 0.4 
0.25098 0.65098 0.4 0.25098 0.65098 0.4 
0.25098 0.65098 0.4 0.25098 0.65098 0.4 
0.25098 0.65098 0.4 0.25098 0.65098 0.4 
0.25098 0.65098 0.4 0.25098 0.65098 0.4 
0.25098 0.65098 0.4 0.25098 0.65098 0.4 
0.25098 0.65098 0.4 0.25098 0.65098 0.4 
0.25098 0.65098 0.4 0.25098 0.65098 0.4 
0.25098 0.65098 0.4 0.25098 0.65098 0.4 
0.25098 0.65098 0.4 0.25098 0.65098 0.4 
0.25098 0.65098 0.4 0.25098 0.65098 0.4 
0.25098 0.65098 0.4 0.25098 0.65098 0.4 
0.25098 0.65098 0.4 0.25098 0.65098 0.4 
0.25098 0.65098 0.4 0.25098 0.65098 0.4 
0.25098 0.65098 0.4 0.25098 0.65098 0.4 
0.25098 0.65098 0.4 0.25098 0.65098 0.4 
0.25098 0.65098 0.4 0.25098 0.65098 0.4 
0.25098 0.65098 0.4 0.25098 0.65098 0.4 
0.25098 0.65098 0.4 0.25098 0.65098 0.4 
0.25098 0.65098 0.4 0.25098 0.65098 0.4 
0.25098 0.65098 0.4 0.25098 0.65098 0.4 
0.25098 0.65098 0.4 0.25098 0.65098 0.4 
0.25098 0.65098 0.4 0.25098 0.65098 0.4 
0.25098 0.65098 0.4 0.25098 0.65098 0.4 
0.25098 0.65098 0.4 0.25098 0.65098 0.4 
0.25098 0.65098 0.4 0.25098 0.65098 0.4 
0.25098 0.65098 0.4 0.25098 0.65098 0.4 
0.25098 0.65098 0.4 0.25098 0.65098 0.4 
0.25098 0.65098 0.4 0.25098 0.65098 0.4 
0.25098 0.65098 0.4 0.25098 0.65098 0.4 
0.25098 0.65098 0.4 0.25098 0.65098 0.4 
0.25098 0.65098 0.4 0.25098 0.65098 0.4 
0.25098 0.65098 0.4 0.25098 0.65098 0.4 
0.25098 0.65098 0.4 0.25098 0.65098 0.4 
0.25098 0.65098 0.4 0.25098 0.65098 0.4 
0.25098 0.65098 0.4 0.25098 0.65098 0.4 
0.25098 0.65098 0.4 0.25098 0.65098 0.4 
0.25098 0.65098 0.4 0.25098 0.65098 0.4 
0.25098 0.65098 0.4 0.25098 0.65098 0.4 
0.25098 0.65098 0.4 0.25098 0.65098 0.4 
0.25098 0.65098 0.4 0.25098 0.65098 0.4 
0.25098 0.65098 0.4 0.25098 0.65098 0.4 
0.25098 0.65098 0.4 0.25098 0.65098 0.4 
0.25098 0.65098 0.4 0.25098 0.65098 0.4 
0.25098 0.65098 0.4 0.25098 0.65098 0.4 
0.25098 0.65098 0.4 0.25098 0.65098 0.4 
0.25098 0.65098 0.4 0.25098 0.65098 0.4 
0.25098 0.65098 0.4 0.25098 0.65098 0.4 
0.25098 0.65098 0.4 0.25098 0.65098 0.4 
0.25098 0.65098 0.4 0.25098 0.65098 0.4 
0.25098 0.65098 0.4 0.25098 0.65098 0.4 
0.25098 0.65098 0.4 0.25098 0.65098 0.4 
0.25098 0.65098 0.4 0.25098 0.65098 0.4 
0.25098 0.65098 0.4 0.25098 0.65098 0.4 
0.25098 0.65098 0.4 0.25098 0.65098 0.4 
0.25098 0.65098 0.4 0.25098 0.65098 0.4 
0.25098 0.65098 0.4 0.25098 0.65098 0.4 
0.25098 0.65098 0.4 0.25098 0.65098 0.4 
0.25098 0.65098 0.4 0.25098 0.65098 0.4 
0.25098 0.65098 0.4 0.25098 0.65098 0.4 
0.25098 0.65098 0.4 0.25098 0.65098 0.4 
0.25098 0.65098 0.4 0.25098 0.65098 0.4 
0.25098 0.65098 0.4 0.25098 0.65098 0.4 
0.25098 0.65098 0.4 0.25098 0.65098 0.4 
0.25098 0.65098 0.4 0.25098 0.65098 0.4 
0.25098 0.65098 0.4 0.25098 0.65098 0.4 
0.25098 0.65098 0.4 0.25098 0.65098 0.4 
0.25098 0.65098 0.4 0.25098 0.65098 0.4 
0.25098 0.65098 0.4 0.25098 0.65098 0.4 
0.25098 0.65098 0.4 0.25098 0.65098 0.4 
0.25098 0.65098 0.4 0.25098 0.65098 0.4 
0.25098 0.65098 0.4 0.25098 0.65098 0.4 
0.25098 0.65098 0.4 0.25098 0.65098 0.4 
0.25098 0.65098 0.4 0.25098 0.65098 0.4 
0.25098 0.65098 0.4 0.25098 0.65098 0.4 
0.25098 0.65098 0.4 0.25098 0.65098 0.4 
0.25098 0.65098 0.4 0.25098 0.65098 0.4 
0.25098 0.65098 0.4 0.25098 0.65098 0.4 
0.25098 0.65098 0.4 0.25098 0.65098 0.4 
0.25098 0.65098 0.4 0.25098 0.65098 0.4 
0.25098 0.65098 0.4 0.25098 0.65098 0.4 
0.25098 0.65098 0.4 0.25098 0.65098 0.4 
0.25098 0.65098 0.4 0.25098 0.65098 0.4 
0.25098 0.65098 0.4 0.25098 0.65098 0.4 
0.25098 0.65098 0.4 0.25098 0.65098 0.4 
0.25098 0.65098 0.4 0.25098 0.65098 0.4 
0.25098 0.65098 0.4 0.25098 0.65098 0.4 
0.25098 0.65098 0.4 0.25098 0.65098 0.4 
0.25098 0.65098 0.4 0.25098 0.65098 0.4 
0.25098 0.65098 0.4 0.25098 0.65098 0.4 
0.25098 0.65098 0.4 0.25098 0.65098 0.4 
0.25098 0.65098 0.4 0.25098 0.65098 0.4 
0.25098 0.65098 0.4 0.25098 0.65098 0.4 
0.25098 0.65098 0.4 0.25098 0.65098 0.4 
0.25098 0.65098 0.4 0.25098 0.65098 0.4 
0.25098 0.65098 0.4 0.25098 0.65098 0.4 
0.25098 0.65098 0.4 0.25098 0.65098 0.4 
0.25098 0.65098 0.4 0.25098 0.65098 0.4 
0.25098 0.65098 0.4 0.25098 0.65098 0.4 
0.25098 0.65098 0.4 0.25098 0.65098 0.4 
0.25098 0.65098 0.4 0.25098 0.65098 0.4 
0.25098 0.65098 0.4 0.25098 0.65098 0.4 
0.25098 0.65098 0.4 0.25098 0.65098 0.4 
0.25098 0.65098 0.4 0.25098 0.65098 0.4 
0.25098 0.65098 0.4 0.25098 0.65098 0.4 
0.25098 0.65098 0.4 0.25098 0.65098 0.4 
0.25098 0.65098 0.4 0.25098 0.65098 0.4 
0.25098 0.65098 0.4 0.25098 0.65098 0.4 
0.25098 0.65098 0.4 0.25098 0.65098 0.4 
0.25098 0.65098 0.4 0.25098 0.65098 0.4 
0.25098 0.65098 0.4 0.25098 0.65098 0.4 
0.25098 0.65098 0.4 0.25098 0.65098 0.4 
0.25098 0.65098 0.4 0.25098 0.65098 0.4 
0.25098 0.65098 0.4 0.25098 0.65098 0.4 
0.25098 0.65098 0.4 0.25098 0.65098 0.4 
0.25098 0.65098 0.4 0.25098 0.65098 0.4 
0.25098 0.65098 0.4 0.25098 0.65098 0.4 
0.25098 0.65098 0.4 0.25098 0.65098 0.4 
0.25098 0.65098 0.4 0.25098 0.65098 0.4 
0.25098 0.65098 0.4 0.25098 0.65098 0.4 
0.25098 0.65098 0.4 0.25098 0.65098 0.4 
0.25098 0.65098 0.4 0.25098 0.65098 0.4 
0.25098 0.65098 0.4 0.25098 0.65098 0.4 
0.25098 0.65098 0.4 0.25098 0.65098 0.4 
0.25098 0.65098 0.4 0.25098 0.65098 0.4 
0.25098 0.65098 0.4 0.25098 0.65098 0.4 
0.25098 0.65098 0.4 0.25098 0.65098 0.4 
0.25098 0.65098 0.4 0.25098 0.65098 0.4 
0.25098 0.65098 0.4 0.25098 0.65098 0.4 
0.25098 0.65098 0.4 0.25098 0.65098 0.4 
0.25098 0.65098 0.4 0.25098 0.65098 0.4 
0.25098 0.65098 0.4 0.25098 0.65098 0.4 
0.25098 0.65098 0.4 0.25098 0.65098 0.4 
0.25098 0.65098 0.4 0.25098 0.65098 0.4 
0.25098 0.65098 0.4 0.25098 0.65098 0.4 
0.25098 0.65098 0.4 0.25098 0.65098 0.4 
0.25098 0.65098 0.4 0.25098 0.65098 0.4 
0.25098 0.65098 0.4 0.25098 0.65098 0.4 
0.25098 0.65098 0.4 0.25098 0.65098 0.4 
0.25098 0.65098 0.4 0.25098 0.65098 0.4 
0.25098 0.65098 0.4 0.25098 0.65098 0.4 
0.25098 0.65098 0.4 0.25098 0.65098 0.4 
0.25098 0.65098 0.4 0.25098 0.65098 0.4 
0.25098 0.65098 0.4 0.25098 0.65098 0.4 
0.25098 0.65098 0.4 0.25098 0.65098 0.4 
0.25098 0.65098 0.4 0.25098 0.65098 0.4 
0.25098 0.65098 0.4 0.25098 0.65098 0.4 
0.25098 0.65098 0.4 0.25098 0.65098 0.4 
0.25098 0.65098 0.4 0.25098 0.65098 0.4 
0.25098 0.65098 0.4 0.25098 0.65098 0.4 
0.25098 0.65098 0.4 0.25098 0.65098 0.4 
0.25098 0.65098 0.4 0.25098 0.65098 0.4 
0.25098 0.65098 0.4 0.25098 0.65098 0.4 
0.25098 0.65098 0.4 0.25098 0.65098 0.4 
0.25098 0.65098 0.4 0.25098 0.65098 0.4 
0.25098 0.65098 0.4 0.25098 0.65098 0.4 
0.25098 0.65098 0.4 0.25098 0.65098 0.4 
0.25098 0.65098 0.4 0.25098 0.65098 0.4 
0.25098 0.65098 0.4 0.25098 0.65098 0.4 
0.25098 0.65098 0.4 0.25098 0.65098 0.4 
0.25098 0.65098 0.4 0.25098 0.65098 0.4 
0.25098 0.65098 0.4 0.25098 0.65098 0.4 
0.25098 0.65098 0.4 0.25098 0.65098 0.4 
0.25098 0.65098 0.4 0.25098 0.65098 0.4 
0.25098 0.65098 0.4 0.25098 0.65098 0.4 
0.25098 0.65098 0.4 0.25098 0.65098 0.4 
0.25098 0.65098 0.4 0.25098 0.65098 0.4 
0.25098 0.65098 0.4 0.25098 0.65098 0.4 
0.25098 0.65098 0.4 0.25098 0.65098 0.4 
0.25098 0.65098 0.4 0.25098 0.65098 0.4 
0.25098 0.65098 0.4 0.25098 0.65098 0.4 
0.25098 0.65098 0.4 0.25098 0.65098 0.4 
0.25098 0.65098 0.4 0.25098 0.65098 0.4 
0.25098 0.65098 0.4 0.25098 0.65098 0.4 
0.25098 0.65098 0.4 0.25098 0.65098 0.4 
0.25098 0.65098 0.4 0.25098 0.65098 0.4 
0.25098 0.65098 0.4 0.25098 0.65098 0.4 
0.25098 0.65098 0.4 0.25098 0.65098 0.4 
0.25098 0.65098 0.4 0.25098 0.65098 0.4 
0.25098 0.65098 0.4 0.25098 0.65098 0.4 
0.25098 0.65098 0.4 0.25098 0.65098 0.4 
0.25098 0.65098 0.4 0.25098 0.65098 0.4 
0.25098 0.65098 0.4 0.25098 0.65098 0.4 
0.25098 0.65098 0.4 0.25098 0.65098 0.4 
0.25098 0.65098 0.4 0.25098 0.65098 0.4 
0.25098 0.65098 0.4 0.25098 0.65098 0.4 
0.25098 0.65098 0.4 0.25098 0.65098 0.4 
0.25098 0.65098 0.4 0.25098 0.65098 0.4 
0.25098 0.65098 0.4 0.25098 0.65098 0.4 
0.25098 0.65098 0.4 0.25098 0.65098 0.4 
0.25098 0.65098 0.4 0.25098 0.65098 0.4 
0.25098 0.65098 0.4 0.25098 0.65098 0.4 
0.25098 0.65098 0.4 0.25098 0.65098 0.4 
0.25098 0.65098 0.4 0.25098 0.65098 0.4 
0.25098 0.65098 0.4 0.25098 0.65098 0.4 
0.25098 0.65098 0.4 0.25098 0.65098 0.4 
0.25098 0.65098 0.4 0.25098 0.65098 0.4 
0.25098 0.65098 0.4 0.25098 0.65098 0.4 
0.25098 0.65098 0.4 0.25098 0.65098 0.4 
0.25098 0.65098 0.4 0.25098 0.65098 0.4 
0.25098 0.65098 0.4 0.25098 0.65098 0.4 
0.25098 0.65098 0.4 0.25098 0.65098 0.4 
0.25098 0.65098 0.4 0.25098 0.65098 0.4 
0.25098 0.65098 0.4 0.25098 0.65098 0.4 
0.25098 0.65098 0.4 0.25098 0.65098 0.4 
0.25098 0.65098 0.4 0.25098 0.65098 0.4 
0.25098 0.65098 0.4 0.25098 0.65098 0.4 
0.25098 0.65098 0.4 0.25098 0.65098 0.4 
0.25098 0.65098 0.4 0.25098 0.65098 0.4 
0.25098 0.65098 0.4 0.25098 0.65098 0.4 
0.25098 0.65098 0.4 0.25098 0.65098 0.4 
0.25098 0.65098 0.4 0.25098 0.65098 0.4 
0.25098 0.65098 0.4 0.25098 0.65098 0.4 
0.25098 0.65098 0.4 0.25098 0.65098 0.4 
0.25098 0.65098 0.4 0.25098 0.65098 0.4 
0.25098 0.65098 0.4 0.25098 0.65098 0.4 
0.25098 0.65098 0.4 0.25098 0.65098 0.4 
0.25098 0.65098 0.4 0.25098 0.65098 0.4 
0.25098 0.65098 0.4 0.25098 0.65098 0.4 
0.25098 0.65098 0.4 0.25098 0.65098 0.4 
0.25098 0.65098 0.4 0.25098 0.65098 0.4 
0.25098 0.65098 0.4 0.25098 0.65098 0.4 
0.25098 0.65098 0.4 0.25098 0.65098 0.4 
0.25098 0.65098 0.4 0.25098 0.65098 0.4 
0.25098 0.65098 0.4 0.25098 0.65098 0.4 
0.25098 0.65098 0.4 0.25098 0.65098 0.4 
0.25098 0.65098 0.4 0.25098 0.65098 0.4 
0.25098 0.65098 0.4 0.25098 0.65098 0.4 
0.25098 0.65098 0.4 0.25098 0.65098 0.4 
0.25098 0.65098 0.4 0.25098 0.65098 0.4 
0.25098 0.65098 0.4 0.25098 0.65098 0.4 
0.25098 0.65098 0.4 0.25098 0.65098 0.4 
0.25098 0.65098 0.4 0.25098 0.65098 0.4 
0.25098 0.65098 0.4 0.25098 0.65098 0.4 
0.25098 0.65098 0.4 0.25098 0.65098 0.4 
0.25098 0.65098 0.4 0.25098 0.65098 0.4 
0.25098 0.65098 0.4 0.25098 0.65098 0.4 
0.25098 0.65098 0.4 0.25098 0.65098 0.4 
0.25098 0.65098 0.4 0.25098 0.65098 0.4 
0.25098 0.65098 0.4 0.25098 0.65098 0.4 
0.25098 0.65098 0.4 0.25098 0.65098 0.4 
0.25098 0.65098 0.4 0.25098 0.65098 0.4 
0.25098 0.65098 0.4 0.25098 0.65098 0.4 
0.25098 0.65098 0.4 0.25098 0.65098 0.4 
0.25098 0.65098 0.4 0.25098 0.65098 0.4 
0.25098 0.65098 0.4 0.25098 0.65098 0.4 
0.25098 0.65098 0.4 0.25098 0.65098 0.4 
0.25098 0.65098 0.4 0.25098 0.65098 0.4 
0.25098 0.65098 0.4 0.25098 0.65098 0.4 
0.25098 0.65098 0.4 0.25098 0.65098 0.4 
0.25098 0.65098 0.4 0.25098 0.65098 0.4 
0.25098 0.65098 0.4 0.25098 0.65098 0.4 
0.25098 0.65098 0.4 0.25098 0.65098 0.4 
0.25098 0.65098 0.4 0.25098 0.65098 0.4 
0.25098 0.65098 0.4 0.25098 0.65098 0.4 
0.25098 0.65098 0.4 0.25098 0.65098 0.4 
0.25098 0.65098 0.4 0.25098 0.65098 0.4 
0.25098 0.65098 0.4 0.25098 0.65098 0.4 
0.25098 0.65098 0.4 0.25098 0.65098 0.4 
0.25098 0.65098 0.4 0.25098 0.65098 0.4 
0.25098 0.65098 0.4 0.25098 0.65098 0.4 
0.25098 0.65098 0.4 0.25098 0.65098 0.4 
0.25098 0.65098 0.4 0.25098 0.65098 0.4 
0.25098 0.65098 0.4 0.25098 0.65098 0.4 
0.25098 0.65098 0.4 0.25098 0.65098 0.4 
0.25098 0.65098 0.4 0.25098 0.65098 0.4 
0.25098 0.65098 0.4 0.25098 0.65098 0.4 
0.25098 0.65098 0.4 0.25098 0.65098 0.4 
0.25098 0.65098 0.4 0.25098 0.65098 0.4 
0.25098 0.65098 0.4 0.25098 0.65098 0.4 
0.25098 0.65098 0.4 0.25098 0.65098 0.4 
0.25098 0.65098 0.4 0.25098 0.65098 0.4 
0.25098 0.65098 0.4 0.25098 0.65098 0.4 
0.25098 0.65098 0.4 0.25098 0.65098 0.4 
0.25098 0.65098 0.4 0.25098 0.65098 0.4 
0.25098 0.65098 0.4 0.25098 0.65098 0.4 
0.25098 0.65098 0.4 0.25098 0.65098 0.4 
0.25098 0.65098 0.4 0.25098 0.65098 0.4 
0.25098 0.65098 0.4 0.25098 0.65098 0.4 
0.25098 0.65098 0.4 0.25098 0.65098 0.4 
0.25098 0.65098 0.4 0.25098 0.65098 0.4 
0.25098 0.65098 0.4 0.25098 0.65098 0.4 
0.25098 0.65098 0.4 0.25098 0.65098 0.4 
0.25098 0.65098 0.4 0.25098 0.65098 0.4 
0.25098 0.65098 0.4 0.25098 0.65098 0.4 
0.25098 0.65098 0.4 0.25098 0.65098 0.4 
0.25098 0.65098 0.4 0.25098 0.65098 0.4 
0.25098 0.65098 0.4 0.25098 0.65098 0.4 
0.25098 0.65098 0.4 0.25098 0.65098 0.4 
0.25098 0.65098 0.4 0.25098 0.65098 0.4 
0.25098 0.65098 0.4 0.25098 0.65098 0.4 
0.25098 0.65098 0.4 0.25098 0.65098 0.4 
0.25098 0.65098 0.4 0.25098 0.65098 0.4 
0.25098 0.65098 0.4 0.25098 0.65098 0.4 
0.25098 0.65098 0.4 0.25098 0.65098 0.4 
0.25098 0.65098 0.4 0.25098 0.65098 0.4 
0.25098 0.65098 0.4 0.25098 0.65098 0.4 
0.25098 0.65098 0.4 0.25098 0.65098 0.4 
0.25098 0.65098 0.4 0.25098 0.65098 0.4 
0.25098 0.65098 0.4 0.25098 0.65098 0.4 
0.25098 0.65098 0.4 0.25098 0.65098 0.4 
0.25098 0.65098 0.4 0.25098 0.65098 0.4 
0.25098 0.65098 0.4 0.25098 0.65098 0.4 
0.25098 0.65098 0.4 0.25098 0.65098 0.4 
0.25098 0.65098 0.4 0.25098 0.65098 0.4 
0.25098 0.65098 0.4 0.25098 0.65098 0.4 
0.25098 0.65098 0.4 0.25098 0.65098 0.4 
0.25098 0.65098 0.4 0.25098 0.65098 0.4 
0.25098 0.65098 0.4 0.25098 0.65098 0.4 
0.25098 0.65098 0.4 0.25098 0.65098 0.4 
0.25098 0.65098 0.4 0.25098 0.65098 0.4 
0.25098 0.65098 0.4 0.25098 0.65098 0.4 
0.25098 0.65098 0.4 0.25098 0.65098 0.4 
0.25098 0.65098 0.4 0.25098 0.65098 0.4 
0.25098 0.65098 0.4 0.25098 0.65098 0.4 
0.25098 0.65098 0.4 0.25098 0.65098 0.4 
0.25098 0.65098 0.4 0.25098 0.65098 0.4 
0.25098 0.65098 0.4 0.25098 0.65098 0.4 
0.25098 0.65098 0.4 0.25098 0.65098 0.4 
0.25098 0.65098 0.4 0.25098 0.65098 0.4 
0.25098 0.65098 0.4 0.25098 0.65098 0.4 
0.25098 0.65098 0.4 0.25098 0.65098 0.4 
0.25098 0.65098 0.4 0.25098 0.65098 0.4 
0.25098 0.65098 0.4 0.25098 0.65098 0.4 
0.25098 0.65098 0.4 0.25098 0.65098 0.4 
0.25098 0.65098 0.4 0.25098 0.65098 0.4 
0.25098 0.65098 0.4 0.25098 0.65098 0.4 
0.25098 0.65098 0.4 0.25098 0.65098 0.4 
0.25098 0.65098 0.4 0.25098 0.65098 0.4 
0.25098 0.65098 0.4 0.25098 0.65098 0.4 
0.25098 0.65098 0.4 0.25098 0.65098 0.4 
0.25098 0.65098 0.4 0.25098 0.65098 0.4 
0.25098 0.65098 0.4 0.25098 0.65098 0.4 
0.25098 0.65098 0.4 0.25098 0.65098 0.4 
0.25098 0.65098 0.4 0.25098 0.65098 0.4 
0.25098 0.65098 0.4 0.25098 0.65098 0.4 
0.25098 0.65098 0.4 0.25098 0.65098 0.4 
0.25098 0.65098 0.4 0.25098 0.65098 0.4 
0.25098 0.65098 0.4 0.25098 0.65098 0.4 
0.25098 0.65098 0.4 0.25098 0.65098 0.4 
0.25098 0.65098 0.4 0.25098 0.65098 0.4 
0.25098 0.65098 0.4 0.25098 0.65098 0.4 
0.25098 0.65098 0.4 0.25098 0.65098 0.4 
0.25098 0.65098 0.4 0.25098 0.65098 0.4 
0.25098 0.65098 0.4 0.25098 0.65098 0.4 
0.25098 0.65098 0.4 0.25098 0.65098 0.4 
0.25098 0.65098 0.4 0.25098 0.65098 0.4 
0.25098 0.65098 0.4 0.25098 0.65098 0.4 
0.25098 0.65098 0.4 0.25098 0.65098 0.4 
0.25098 0.65098 0.4 0.25098 0.65098 0.4 
0.25098 0.65098 0.4 0.25098 0.65098 0.4 
0.25098 0.65098 0.4 0.25098 0.65098 0.4 
0.25098 0.65098 0.4 0.25098 0.65098 0.4 
0.25098 0.65098 0.4 0.25098 0.65098 0.4 
0.25098 0.65098 0.4 0.25098 0.65098 0.4 
0.25098 0.65098 0.4 0.25098 0.65098 0.4 
0.25098 0.65098 0.4 0.25098 0.65098 0.4 
0.25098 0.65098 0.4 0.25098 0.65098 0.4 
0.25098 0.65098 0.4 0.25098 0.65098 0.4 
0.25098 0.65098 0.4 0.25098 0.65098 0.4 
0.25098 0.65098 0.4 0.25098 0.65098 0.4 
0.25098 0.65098 0.4 0.25098 0.65098 0.4 
0.25098 0.65098 0.4 0.25098 0.65098 0.4 
0.25098 0.65098 0.4 0.25098 0.65098 0.4 
0.25098 0.65098 0.4 0.25098 0.65098 0.4 
0.25098 0.65098 0.4 0.25098 0.65098 0.4 
0.25098 0.65098 0.4 0.25098 0.65098 0.4 
0.25098 0.65098 0.4 0.25098 0.65098 0.4 
0.25098 0.65098 0.4 0.25098 0.65098 0.4 
0.25098 0.65098 0.4 0.25098 0.65098 0.4 
0.25098 0.65098 0.4 0.25098 0.65098 0.4 
0.25098 0.65098 0.4 0.25098 0.65098 0.4 
0.25098 0.65098 0.4 0.25098 0.65098 0.4 
0.25098 0.65098 0.4 0.25098 0.65098 0.4 
0.25098 0.65098 0.4 0.25098 0.65098 0.4 
0.25098 0.65098 0.4 0.25098 0.65098 0.4 
0.25098 0.65098 0.4 0.25098 0.65098 0.4 
0.25098 0.65098 0.4 0.25098 0.65098 0.4 
0.25098 0.65098 0.4 0.25098 0.65098 0.4 
0.25098 0.65098 0.4 0.25098 0.65098 0.4 
0.25098 0.65098 0.4 0.25098 0.65098 0.4 
0.25098 0.65098 0.4 0.25098 0.65098 0.4 
0.25098 0.65098 0.4 0.25098 0.65098 0.4 
0.25098 0.65098 0.4 0.25098 0.65098 0.4 
0.25098 0.65098 0.4 0.25098 0.65098 0.4 
0.25098 0.65098 0.4 0.25098 0.65098 0.4 
0.25098 0.65098 0.4 0.25098 0.65098 0.4 
0.25098 0.65098 0.4 0.25098 0.65098 0.4 
0.25098 0.65098 0.4 0.25098 0.65098 0.4 
0.25098 0.65098 0.4 0.25098 0.65098 0.4 
0.25098 0.65098 0.4 0.25098 0.65098 0.4 
0.25098 0.65098 0.4 0.25098 0.65098 0.4 
0.25098 0.65098 0.4 0.25098 0.65098 0.4 
0.25098 0.65098 0.4 0.25098 0.65098 0.4 
0.25098 0.65098 0.4 0.25098 0.65098 0.4 
0.25098 0.65098 0.4 0.25098 0.65098 0.4 
0.25098 0.65098 0.4 0.25098 0.65098 0.4 
0.25098 0.65098 0.4 0.25098 0.65098 0.4 
0.25098 0.65098 0.4 0.25098 0.65098 0.4 
0.25098 0.65098 0.4 0.25098 0.65098 0.4 
0.25098 0.65098 0.4 0.25098 0.65098 0.4 
0.25098 0.65098 0.4 0.25098 0.65098 0.4 
0.25098 0.65098 0.4 0.25098 0.65098 0.4 
0.25098 0.65098 0.4 0.25098 0.65098 0.4 
0.25098 0.65098 0.4 0.25098 0.65098 0.4 
0.25098 0.65098 0.4 0.25098 0.65098 0.4 
0.25098 0.65098 0.4 0.25098 0.65098 0.4 
0.25098 0.65098 0.4 0.25098 0.65098 0.4 
0.25098 0.65098 0.4 0.25098 0.65098 0.4 
0.25098 0.65098 0.4 0.25098 0.65098 0.4 
0.25098 0.65098 0.4 0.25098 0.65098 0.4 
0.25098 0.65098 0.4 0.25098 0.65098 0.4 
0.25098 0.65098 0.4 0.25098 0.65098 0.4 
0.25098 0.65098 0.4 0.25098 0.65098 0.4 
0.25098 0.65098 0.4 0.25098 0.65098 0.4 
0.25098 0.65098 0.4 0.25098 0.65098 0.4 
0.25098 0.65098 0.4 0.25098 0.65098 0.4 
0.25098 0.65098 0.4 0.25098 0.65098 0.4 
0.25098 0.65098 0.4 0.25098 0.65098 0.4 
0.25098 0.65098 0.4 0.25098 0.65098 0.4 
0.25098 0.65098 0.4 0.25098 0.65098 0.4 
0.25098 0.65098 0.4 0.25098 0.65098 0.4 
0.25098 0.65098 0.4 0.25098 0.65098 0.4 
0.25098 0.65098 0.4 0.25098 0.65098 0.4 
0.25098 0.65098 0.4 0.25098 0.65098 0.4 
0.25098 0.65098 0.4 0.25098 0.65098 0.4 
0.25098 0.65098 0.4 0.25098 0.65098 0.4 
0.25098 0.65098 0.4 0.25098 0.65098 0.4 
0.25098 0.65098 0.4 0.25098 0.65098 0.4 
0.25098 0.65098 0.4 0.25098 0.65098 0.4 
0.25098 0.65098 0.4 0.25098 0.65098 0.4 
0.25098 0.65098 0.4 0.25098 0.65098 0.4 
0.25098 0.65098 0.4 0.25098 0.65098 0.4 
0.25098 0.65098 0.4 0.25098 0.65098 0.4 
0.25098 0.65098 0.4 0.25098 0.65098 0.4 
0.25098 0.65098 0.4 0.25098 0.65098 0.4 
0.25098 0.65098 0.4 0.25098 0.65098 0.4 
0.25098 0.65098 0.4 0.25098 0.65098 0.4 
0.25098 0.65098 0.4 0.25098 0.65098 0.4 
0.25098 0.65098 0.4 0.25098 0.65098 0.4 
0.25098 0.65098 0.4 0.25098 0.65098 0.4 
0.25098 0.65098 0.4 0.25098 0.65098 0.4 
0.25098 0.65098 0.4 0.25098 0.65098 0.4 
0.25098 0.65098 0.4 0.25098 0.65098 0.4 
0.25098 0.65098 0.4 0.25098 0.65098 0.4 
0.25098 0.65098 0.4 0.25098 0.65098 0.4 
0.25098 0.65098 0.4 0.25098 0.65098 0.4 
0.25098 0.65098 0.4 0.25098 0.65098 0.4 
0.25098 0.65098 0.4 0.25098 0.65098 0.4 
0.25098 0.65098 0.4 0.25098 0.65098 0.4 
0.25098 0.65098 0.4 0.25098 0.65098 0.4 