# vtk DataFile Version 4.2
vtk output
ASCII
DATASET POLYDATA
POINTS 566 float
246.267 129.859 187.683 247.298 130.266 187.68 241.617 132.481 188.137 
241.87 134.053 187.603 243.797 133.692 187.21 247.163 133.445 187.34 
245.364 134.5 187.227 245.438 128.583 188.365 248.558 129.625 188.38 
241.855 131.149 188.603 239.676 134.619 188.767 246.595 136.54 187.771 
239.749 137.181 188.516 248.617 136.914 188.414 247.243 127.01 189.629 
247.434 127.648 189.192 238.453 135.303 189.76 238.105 137.652 189.625 
250.687 137.163 189.645 240.662 139.614 189.036 249.656 139.09 189.731 
245.319 127.051 189.883 244.902 126.831 190.422 248.659 126.416 190.323 
241.006 130.518 190.212 251.559 131.208 190.097 236.262 140.707 191.066 
238.218 140.558 189.993 236.81 141.516 190.794 249.566 125.738 191.26 
249.371 125.452 191.49 251.534 127.69 191.296 236.514 137.907 191.225 
236.375 137.649 191.613 235.827 140.443 191.512 235.169 142.754 192.194 
235.657 143.121 191.808 236.441 143.902 191.58 247.352 124.816 192.572 
248.432 124.531 192.821 249.6 125.149 191.992 244.179 126.409 192.261 
250.559 125.826 191.804 251.522 140.621 192.371 250.695 141.814 192.426 
234.691 142.824 192.679 234.483 142.534 193.022 249.39 143.353 192.76 
237.068 145.029 191.799 234.586 146.276 192.822 233.825 147.088 193.686 
251.213 124.797 193.547 253.446 131.867 192.884 235.932 137.599 192.911 
234.466 142.061 193.289 234.242 142.596 193.491 233.649 144.401 193.792 
241.753 146.02 192.598 235.311 147.69 192.958 235.775 148.509 193.206 
234.454 148.924 193.787 234.922 148.95 193.592 234.19 149.182 194.102 
249.63 124.119 193.84 249.161 124.065 194.014 250.064 124.017 194.265 
250.519 124.11 194.211 251.556 124.949 193.71 252.466 126.56 193.247 
239.753 130.52 193.75 253.888 134.3 194.498 253.526 137.233 194.713 
233.776 143.258 194.437 247.477 145.178 193.261 247.696 146.154 194.158 
233.324 147.48 194.754 233.39 149.172 195.179 235.858 150.394 194.106 
249.523 123.93 194.74 250.87 124.168 194.508 251.947 124.817 194.896 
252.501 125.173 195.084 252.752 125.456 195.045 243.269 126.728 195.311 
253.65 128.378 194.427 233.18 148.643 195.588 233.197 150.394 195.949 
235.268 151.798 194.811 233.431 152.411 195.844 233.096 152.157 196.186 
234.369 152.278 195.249 233.311 153.173 196.087 253.154 125.933 195.77 
253.724 127.327 195.912 253.013 138.561 196.056 233.7 143.392 196.018 
233.144 146.374 195.77 249.222 146.408 195.932 248.164 147.528 195.885 
233.079 148.945 196.259 232.994 151.743 196.414 232.865 153.742 196.904 
236.701 153.68 195.766 233.329 154.379 196.491 233.111 155.519 197.311 
233.939 155.622 196.71 248.856 124.306 196.202 251.779 124.759 196.61 
252.711 125.391 196.45 251.381 142.662 197.041 233.223 145.87 196.239 
233.109 148.319 196.809 249.015 147.046 196.633 233.016 150.173 197.098 
247.472 149.11 197.448 244.329 150.924 196.672 246.623 150.059 197.568 
247.104 149.671 197.789 232.8 152.684 197.139 237.823 155.019 196.818 
233.326 157.06 197.766 233.495 157.699 197.923 250.675 124.458 196.726 
245.869 125.501 197.66 252.726 125.617 197.067 253.21 126.206 197.135 
253.809 127.29 197.933 254.078 128.056 197.224 254.001 127.732 197.723 
241.478 128.85 198.205 254.167 129.088 197.736 254.187 130.118 197.385 
253.768 133.332 197.471 249.133 147.047 197.471 248.566 147.87 197.668 
232.901 152.91 198.052 232.808 154.305 197.873 232.904 156.149 198.326 
234.094 158.495 198.074 248.238 125.247 198.38 252.268 125.561 197.7 
244.873 126.405 198.649 253.435 127.199 198.671 253.741 127.337 198.344 
253.841 127.932 198.569 240.258 130.321 198.454 253.624 132.519 198.115 
234.425 142.887 198.03 250.341 143.273 198.698 233.546 146.991 197.846 
249.251 146.563 198.341 247.977 148.61 198.721 233.342 150.366 198.388 
244.632 152.642 198.826 244.878 152.559 199.33 233.055 155.008 198.937 
239.656 156.857 198.799 233.32 159.366 199.386 233.587 160.438 199.628 
233.751 160.924 199.864 234.853 160.831 199.61 234.022 161.065 199.783 
251.096 125.621 198.598 246.432 126.249 199.387 243.809 127.579 199.608 
253.739 127.585 198.57 252.556 131.583 199.789 236.708 138.074 199.447 
234.832 147.198 199.509 248.363 147.715 199.19 233.744 149.726 198.87 
247.218 149.577 199.272 245.233 152.126 199.511 233.851 153.765 199.825 
244.509 152.961 199.65 244.886 152.511 199.73 241.272 156.095 199.402 
239.43 157.582 199.257 240.995 156.961 200.39 237.015 158.895 198.932 
239.783 157.906 199.89 233.337 159.457 199.771 233.427 159.212 200.004 
237.458 159.35 199.54 233.75 160.92 200.151 235.691 160.834 199.834 
233.926 161.342 200.001 233.858 161.354 200.142 233.972 161.609 200.162 
233.971 161.647 200.282 234.08 161.728 200.233 234.323 161.726 200.366 
233.993 161.747 200.248 246.839 126.426 199.746 251.991 126.736 199.465 
252.747 127.438 199.54 243.307 128.314 200.006 250.087 131.791 201.08 
239.697 132.583 200.206 250.156 135.048 200.513 236.64 139.984 199.936 
239.163 142.805 201.307 247.59 147.759 200.077 243.625 153.52 200.621 
242.889 154.806 200.634 242.931 154.633 200.783 239.841 158.339 200.714 
240.5 157.605 201.1 234.159 159.456 200.803 233.912 160.334 200.531 
236.71 160.387 200.085 238.73 159.543 201.147 239.194 159.131 201.131 
234.22 160.679 200.759 237.068 160.844 201.121 236.303 161.263 200.877 
236.602 161.144 201.016 234.139 161.691 200.427 234.072 161.766 200.313 
234.435 161.808 200.531 234.337 161.772 200.54 234.71 161.677 200.601 
234.47 161.803 200.588 247.618 127.414 200.766 244.606 128.339 200.794 
245.8 128.4 201.163 248.923 127.877 201.091 250.102 128.239 201.041 
249.131 129.586 201.508 244.583 134.351 201.836 243.119 134.609 201.847 
241.92 136.313 201.741 238.808 138.569 200.954 240.394 139.265 201.472 
242.337 139.062 201.703 237.417 141.971 200.677 246.542 144.071 201.401 
244.043 144.846 201.851 239.929 147.932 201.708 238.839 150.109 201.692 
245.717 149.56 200.974 243.969 151.841 201.237 243.145 153.562 201.138 
242.941 153.179 201.415 242.879 154.311 201.006 240.084 158.073 201.319 
240.325 157.625 201.426 239.672 158.509 201.46 238.474 159.842 201.363 
235.156 160.787 201.288 237.394 160.697 201.355 238.269 159.998 201.546 
234.717 161.516 200.821 236.357 161.295 201.077 234.489 161.715 200.647 
235.181 161.498 200.926 244.281 129.907 201.407 248.321 128.875 201.509 
247.44 129.646 201.692 243.425 131.531 201.67 241.744 132.346 201.31 
246.435 143.974 201.457 240.462 152.516 202.071 241.676 152.73 201.945 
238.75 156.098 202.224 241.202 155.108 201.746 240.013 156.702 202.017 
239.632 157.239 202.188 239.469 157.608 202.186 240.379 157.122 201.65 
236.239 159.047 201.917 238.553 159.4 201.964 237.278 159.726 202.154 
238.241 159.757 201.972 235.629 161.003 201.393 237.556 160.501 201.741 
235.514 161.322 201.19 236.901 160.721 201.747 237.286 160.607 201.802 
239.416 157.214 202.27 237.742 159.569 202.186 237.365 160.099 202.063 
237.205 160.473 201.923 245.417 130.554 253.404 248.317 130.108 253.604 
242.599 132.74 253.482 244.548 147.174 253.682 244.825 146.861 253.739 
242.22 151.218 253.285 243.426 150.703 253.513 241.653 152.705 253.287 
239.848 155.14 253.196 238.17 157.293 253.202 241.145 156.091 253.8 
240.811 156.713 253.814 236.333 159.677 253.524 237.095 159.912 253.524 
237.687 159.737 253.599 238.273 159.529 253.719 235.548 160.739 253.917 
235.248 160.481 253.98 235.99 160.772 253.819 237.483 160.279 253.825 
235.5 161.28 254.242 236.292 160.915 253.91 237.126 160.685 254.001 
236.393 161.114 254.13 246.148 128.135 254.325 244.425 128.798 254.255 
250.291 128.136 254.406 251.096 127.83 254.744 243.389 129.576 254.194 
240.808 132.213 254.447 240.825 134.07 254.033 239.904 136.585 254.203 
246.545 142.733 254.189 247.037 143.974 254.335 243.745 145.997 253.694 
245.296 147.01 253.931 241.754 148.174 253.46 244.623 147.8 253.77 
244.433 151.032 254.083 237.498 151.327 253.832 242.476 154.58 254.087 
241.651 155.886 254.11 242.034 155.671 254.38 240.773 156.994 253.917 
241.083 156.708 254.133 240.652 157.245 254.02 238.436 159.614 253.954 
238.89 159.212 254.045 234.827 160.891 254.382 237.636 160.347 254.054 
238.082 159.997 254.105 234.902 161.237 254.481 234.595 161.05 254.655 
235.207 161.337 254.392 236.764 160.982 254.111 236.967 160.882 254.235 
237.31 160.635 254.239 235.011 161.399 254.603 236.086 161.27 254.41 
252.561 127.186 255.832 252.941 127.204 256.06 244.802 127.966 254.829 
251.857 128.424 255.042 252.42 130.05 255.331 252.755 129.691 255.567 
238.629 133.44 255.973 237.585 138.248 255.439 237.091 137.789 255.943 
249.993 138.726 255.304 238.482 141.066 254.66 248.677 145.347 255.487 
244.758 151.857 254.66 245.493 151.619 255.483 234.411 153.853 255.082 
244.457 152.992 255.232 241.646 156.209 254.488 240.626 157.412 254.33 
240.503 157.578 254.707 233.503 158.506 255.613 240.046 157.99 254.944 
238.86 159.189 254.802 238.368 159.512 255.053 237.408 160.177 255.151 
238.161 159.821 254.757 234.074 160.517 255.139 234.046 160.697 255.354 
236.524 160.952 254.869 237.762 160.249 254.405 234.32 160.986 255.004 
235.726 161.29 254.973 234.368 161.335 255.345 234.636 161.468 255.165 
234.472 161.457 255.233 247.043 126.285 255.949 248.685 125.589 256.506 
250.482 125.794 256.312 251.323 125.973 256.332 253.561 127.623 256.619 
241.975 128.56 256.487 253.65 128.955 256.576 240.135 130.579 256.328 
253.468 132.234 256.965 251.735 136.001 255.959 236.985 137.239 256.265 
236.692 137.04 256.83 235.829 140.185 256.47 235.653 139.806 256.822 
234.744 144.351 256.412 249.374 146.273 256.744 234.033 148.016 256.368 
248.713 147.362 256.456 246.293 150.813 255.88 233.253 156.815 255.999 
241.283 156.548 255.289 233.228 158.225 256.123 233.109 157.731 256.443 
238.033 159.107 255.786 233.447 159.428 256.391 236.39 160.508 255.495 
234.02 160.551 255.741 235.115 161.103 255.528 234.614 161.338 255.456 
234.435 161.308 255.474 234.543 161.435 255.324 252.199 125.594 257.406 
252.781 126.108 257.056 253.705 126.996 257.409 239.738 130.598 257.424 
253.495 133.486 257.459 250.763 143.44 257.458 233.592 145.012 257.749 
[...]
POINT_DATA 566
COLOR_SCALARS scalars 3
1 0.564706 0.623529 1 0.564706 0.623529 1 0.564706 0.623529 
1 0.564706 0.623529 1 0.564706 0.623529 
1 0.564706 0.623529 1 0.564706 0.623529 
1 0.564706 0.623529 1 0.564706 0.623529 
1 0.564706 0.623529 1 0.564706 0.623529 
1 0.564706 0.623529 1 0.564706 0.623529 
1 0.564706 0.623529 1 0.564706 0.623529 
1 0.564706 0.623529 1 0.564706 0.623529 
1 0.564706 0.623529 1 0.564706 0.623529 
1 0.564706 0.623529 1 0.564706 0.623529 
1 0.564706 0.623529 1 0.564706 0.623529 
1 0.564706 0.623529 1 0.564706 0.623529 
1 0.564706 0.623529 1 0.564706 0.623529 
1 0.564706 0.623529 1 0.564706 0.623529 
1 0.564706 0.623529 1 0.564706 0.623529 
1 0.564706 0.623529 1 0.564706 0.623529 
1 0.564706 0.623529 1 0.564706 0.623529 
1 0.564706 0.623529 1 0.564706 0.623529 
1 0.564706 0.623529 1 0.564706 0.623529 
1 0.564706 0.623529 1 0.564706 0.623529 
1 0.564706 0.623529 1 0.564706 0.623529 
1 0.564706 0.623529 1 0.564706 0.623529 
1 0.564706 0.623529 1 0.564706 0.623529 
1 0.564706 0.623529 1 0.564706 0.623529 
1 0.564706 0.623529 1 0.564706 0.623529 
1 0.564706 0.623529 1 0.564706 0.623529 
1 0.564706 0.623529 1 0.564706 0.623529 
1 0.564706 0.623529 1 0.564706 0.623529 
1 0.564706 0.623529 1 0.564706 0.623529 
1 0.564706 0.623529 1 0.564706 0.623529 
1 0.564706 0.623529 1 0.564706 0.623529 
1 0.564706 0.623529 1 0.564706 0.623529 
1 0.564706 0.623529 1 0.564706 0.623529 
1 0.564706 0.623529 1 0.564706 0.623529 
1 0.564706 0.623529 1 0.564706 0.623529 
1 0.564706 0.623529 1 0.564706 0.623529 
1 0.564706 0.623529 1 0.564706 0.623529 
1 0.564706 0.623529 1 0.564706 0.623529 
1 0.564706 0.623529 1 0.564706 0.623529 
1 0.564706 0.623529 1 0.564706 0.623529 
1 0.564706 0.623529 1 0.564706 0.623529 
1 0.564706 0.623529 1 0.564706 0.623529 
1 0.564706 0.623529 1 0.564706 0.623529 
1 0.564706 0.623529 1 0.564706 0.623529 
1 0.564706 0.623529 1 0.564706 0.623529 
1 0.564706 0.623529 1 0.564706 0.623529 
1 0.564706 0.623529 1 0.564706 0.623529 
1 0.564706 0.623529 1 0.564706 0.623529 
1 0.564706 0.623529 1 0.564706 0.623529 
1 0.564706 0.623529 1 0.564706 0.623529 
1 0.564706 0.623529 1 0.564706 0.623529 
1 0.564706 0.623529 1 0.564706 0.623529 
1 0.564706 0.623529 1 0.564706 0.623529 
1 0.564706 0.623529 1 0.564706 0.623529 
1 0.564706 0.623529 1 0.564706 0.623529 
1 0.564706 0.623529 1 0.564706 0.623529 
1 0.564706 0.623529 1 0.564706 0.623529 
1 0.564706 0.623529 1 0.564706 0.623529 
1 0.564706 0.623529 1 0.564706 0.623529 
1 0.564706 0.623529 1 0.564706 0.623529 
1 0.564706 0.623529 1 0.564706 0.623529 
1 0.564706 0.623529 1 0.564706 0.623529 
1 0.564706 0.623529 1 0.564706 0.623529 
1 0.564706 0.623529 1 0.564706 0.623529 
1 0.564706 0.623529 1 0.564706 0.623529 
1 0.564706 0.623529 1 0.564706 0.623529 
1 0.564706 0.623529 1 0.564706 0.623529 
1 0.564706 0.623529 1 0.564706 0.623529 
1 0.564706 0.623529 1 0.564706 0.623529 
1 0.564706 0.623529 1 0.564706 0.623529 
1 0.564706 0.623529 1 0.564706 0.623529 
1 0.564706 0.623529 1 0.564706 0.623529 
1 0.564706 0.623529 1 0.564706 0.623529 
1 0.564706 0.623529 1 0.564706 0.623529 
1 0.564706 0.623529 1 0.564706 0.623529 
1 0.564706 0.623529 1 0.564706 0.623529 
1 0.564706 0.623529 1 0.564706 0.623529 
1 0.564706 0.623529 1 0.564706 0.623529 
1 0.564706 0.623529 1 0.564706 0.623529 
1 0.564706 0.623529 1 0.564706 0.623529 
1 0.564706 0.623529 1 0.564706 0.623529 
1 0.564706 0.623529 1 0.564706 0.623529 
1 0.564706 0.623529 1 0.564706 0.623529 
1 0.564706 0.623529 1 0.564706 0.623529 
1 0.564706 0.623529 1 0.564706 0.623529 
1 0.564706 0.623529 1 0.564706 0.623529 
1 0.564706 0.623529 1 0.564706 0.623529 
1 0.564706 0.623529 1 0.564706 0.623529 
1 0.564706 0.623529 1 0.564706 0.623529 
1 0.564706 0.623529 1 0.564706 0.623529 
1 0.564706 0.623529 1 0.564706 0.623529 
1 0.564706 0.623529 1 0.564706 0.623529 
1 0.564706 0.623529 1 0.564706 0.623529 
1 0.564706 0.623529 1 0.564706 0.623529 
1 0.564706 0.623529 1 0.564706 0.623529 
1 0.564706 0.623529 1 0.564706 0.623529 
1 0.564706 0.623529 1 0.564706 0.623529 
1 0.564706 0.623529 1 0.564706 0.623529 
1 0.564706 0.623529 1 0.564706 0.623529 
1 0.564706 0.623529 1 0.564706 0.623529 
1 0.564706 0.623529 1 0.564706 0.623529 
1 0.564706 0.623529 1 0.564706 0.623529 
1 0.564706 0.623529 1 0.564706 0.623529 
1 0.564706 0.623529 1 0.564706 0.623529 
1 0.564706 0.623529 1 0.564706 0.623529 
1 0.564706 0.623529 1 0.564706 0.623529 
1 0.564706 0.623529 1 0.564706 0.623529 
1 0.564706 0.623529 1 0.564706 0.623529 
1 0.564706 0.623529 1 0.564706 0.623529 
1 0.564706 0.623529 1 0.564706 0.623529 
1 0.564706 0.623529 1 0.564706 0.623529 
1 0.564706 0.623529 1 0.564706 0.623529 
1 0.564706 0.623529 1 0.564706 0.623529 
1 0.564706 0.623529 1 0.564706 0.623529 
1 0.564706 0.623529 1 0.564706 0.623529 
1 0.564706 0.623529 1 0.564706 0.623529 
1 0.564706 0.623529 1 0.564706 0.623529 
1 0.564706 0.623529 1 0.564706 0.623529 
1 0.564706 0.623529 1 0.564706 0.623529 
1 0.564706 0.623529 1 0.564706 0.623529 
1 0.564706 0.623529 1 0.564706 0.623529 
1 0.564706 0.623529 1 0.564706 0.623529 
1 0.564706 0.623529 1 0.564706 0.623529 
1 0.564706 0.623529 1 0.564706 0.623529 
1 0.564706 0.623529 1 0.564706 0.623529 
1 0.564706 0.623529 1 0.564706 0.623529 
1 0.564706 0.623529 1 0.564706 0.623529 
1 0.564706 0.623529 1 0.564706 0.623529 
1 0.564706 0.623529 1 0.564706 0.623529 
1 0.564706 0.623529 1 0.564706 0.623529 
1 0.564706 0.623529 1 0.564706 0.623529 
1 0.564706 0.623529 1 0.564706 0.623529 
1 0.564706 0.623529 1 0.564706 0.623529 
1 0.564706 0.623529 1 0.564706 0.623529 
1 0.564706 0.623529 1 0.564706 0.623529 
1 0.564706 0.623529 1 0.564706 0.623529 
1 0.564706 0.623529 1 0.564706 0.623529 
1 0.564706 0.623529 1 0.564706 0.623529 
1 0.564706 0.623529 1 0.564706 0.623529 
1 0.564706 0.623529 1 0.564706 0.623529 
1 0.564706 0.623529 1 0.564706 0.623529 
1 0.564706 0.623529 1 0.564706 0.623529 
1 0.564706 0.623529 1 0.564706 0.623529 
1 0.564706 0.623529 1 0.564706 0.623529 
1 0.564706 0.623529 1 0.564706 0.623529 
1 0.564706 0.623529 1 0.564706 0.623529 
1 0.564706 0.623529 1 0.564706 0.623529 
1 0.564706 0.623529 1 0.564706 0.623529 
1 0.564706 0.623529 1 0.564706 0.623529 
1 0.564706 0.623529 1 0.564706 0.623529 
1 0.564706 0.623529 1 0.564706 0.623529 
1 0.564706 0.623529 1 0.564706 0.623529 
1 0.564706 0.623529 1 0.564706 0.623529 
1 0.564706 0.623529 1 0.564706 0.623529 
1 0.564706 0.623529 1 0.564706 0.623529 
1 0.564706 0.623529 1 0.564706 0.623529 
1 0.564706 0.623529 1 0.564706 0.623529 
1 0.564706 0.623529 1 0.564706 0.623529 
1 0.564706 0.623529 1 0.564706 0.623529 
1 0.564706 0.623529 1 0.564706 0.623529 
1 0.564706 0.623529 1 0.564706 0.623529 
1 0.564706 0.623529 1 0.564706 0.623529 
1 0.564706 0.623529 1 0.564706 0.623529 
1 0.564706 0.623529 1 0.564706 0.623529 
1 0.564706 0.623529 1 0.564706 0.623529 
1 0.564706 0.623529 1 0.564706 0.623529 
1 0.564706 0.623529 1 0.564706 0.623529 
1 0.564706 0.623529 1 0.564706 0.623529 
1 0.564706 0.623529 1 0.564706 0.623529 
1 0.564706 0.623529 1 0.564706 0.623529 
1 0.564706 0.623529 1 0.564706 0.623529 
1 0.564706 0.623529 1 0.564706 0.623529 
1 0.564706 0.623529 1 0.564706 0.623529 
1 0.564706 0.623529 1 0.564706 0.623529 
1 0.564706 0.623529 1 0.564706 0.623529 
1 0.564706 0.623529 1 0.564706 0.623529 
1 0.564706 0.623529 1 0.564706 0.623529 
1 0.564706 0.623529 1 0.564706 0.623529 
1 0.564706 0.623529 1 0.564706 0.623529 
1 0.564706 0.623529 1 0.564706 0.623529 
1 0.564706 0.623529 1 0.564706 0.623529 
1 0.564706 0.623529 1 0.564706 0.623529 
1 0.564706 0.623529 1 0.564706 0.623529 
1 0.564706 0.623529 1 0.564706 0.623529 
1 0.564706 0.623529 1 0.564706 0.623529 
1 0.564706 0.623529 1 0.564706 0.623529 
1 0.564706 0.623529 1 0.564706 0.623529 
1 0.564706 0.623529 1 0.564706 0.623529 
1 0.564706 0.623529 1 0.564706 0.623529 
1 0.564706 0.623529 1 0.564706 0.623529 
1 0.564706 0.623529 1 0.564706 0.623529 
1 0.564706 0.623529 1 0.564706 0.623529 
1 0.564706 0.623529 1 0.564706 0.623529 
1 0.564706 0.623529 1 0.564706 0.623529 
1 0.564706 0.623529 1 0.564706 0.623529 
1 0.564706 0.623529 1 0.564706 0.623529 
1 0.564706 0.623529 1 0.564706 0.623529 
1 0.564706 0.623529 1 0.564706 0.623529 
1 0.564706 0.623529 1 0.564706 0.623529 
1 0.564706 0.623529 1 0.564706 0.623529 
1 0.564706 0.623529 1 0.564706 0.623529 
1 0.564706 0.623529 1 0.564706 0.623529 
1 0.564706 0.623529 1 0.564706 0.623529 
1 0.564706 0.623529 1 0.564706 0.623529 
1 0.564706 0.623529 1 0.564706 0.623529 
1 0.564706 0.623529 1 0.564706 0.623529 
1 0.564706 0.623529 1 0.564706 0.623529 
1 0.564706 0.623529 1 0.564706 0.623529 
1 0.564706 0.623529 1 0.564706 0.623529 
1 0.564706 0.623529 1 0.564706 0.623529 
1 0.564706 0.623529 1 0.564706 0.623529 
1 0.564706 0.623529 1 0.564706 0.623529 
1 0.564706 0.623529 1 0.564706 0.623529 
1 0.564706 0.623529 1 0.564706 0.623529 
1 0.564706 0.623529 1 0.564706 0.623529 
1 0.564706 0.623529 1 0.564706 0.623529 
1 0.564706 0.623529 1 0.564706 0.623529 
1 0.564706 0.623529 1 0.564706 0.623529 
1 0.564706 0.623529 1 0.564706 0.623529 
1 0.564706 0.623529 1 0.564706 0.623529 
1 0.564706 0.623529 1 0.564706 0.623529 
1 0.564706 0.623529 1 0.564706 0.623529 
1 0.564706 0.623529 1 0.564706 0.623529 
1 0.564706 0.623529 1 0.564706 0.623529 
1 0.564706 0.623529 1 0.564706 0.623529 
1 0.564706 0.623529 1 0.564706 0.623529 
1 0.564706 0.623529 1 0.564706 0.623529 
1 0.564706 0.623529 1 0.564706 0.623529 
1 0.564706 0.623529 1 0.564706 0.623529 
1 0.564706 0.623529 1 0.564706 0.623529 
1 0.564706 0.623529 1 0.564706 0.623529 
1 0.564706 0.623529 1 0.564706 0.623529 
1 0.564706 0.623529 1 0.564706 0.623529 
1 0.564706 0.623529 1 0.564706 0.623529 
1 0.564706 0.623529 1 0.564706 0.623529 
1 0.564706 0.623529 1 0.564706 0.623529 
1 0.564706 0.623529 1 0.564706 0.623529 
1 0.564706 0.623529 1 0.564706 0.623529 
1 0.564706 0.623529 1 0.564706 0.623529 
1 0.564706 0.623529 1 0.564706 0.623529 
1 0.564706 0.623529 1 0.564706 0.623529 
1 0.564706 0.623529 1 0.564706 0.623529 
1 0.564706 0.623529 1 0.564706 0.623529 
1 0.564706 0.623529 1 0.564706 0.623529 
1 0.564706 0.623529 1 0.564706 0.623529 
1 0.564706 0.623529 1 0.564706 0.623529 
1 0.564706 0.623529 1 0.564706 0.623529 
1 0.564706 0.623529 1 0.564706 0.623529 
1 0.564706 0.623529 1 0.564706 0.623529 
1 0.564706 0.623529 1 0.564706 0.623529 
1 0.564706 0.623529 1 0.564706 0.623529 
1 0.564706 0.623529 1 0.564706 0.623529 
1 0.564706 0.623529 1 0.564706 0.623529 
1 0.564706 0.623529 1 0.564706 0.623529 
1 0.564706 0.623529 1 0.564706 0.623529 
1 0.564706 0.623529 1 0.564706 0.623529 
1 0.564706 0.623529 1 0.564706 0.623529 
1 0.564706 0.623529 1 0.564706 0.623529 
1 0.564706 0.623529 1 0.564706 0.623529 
1 0.564706 0.623529 1 0.564706 0.623529 
1 0.564706 0.623529 1 0.564706 0.623529 
1 0.564706 0.623529 1 0.564706 0.623529 
1 0.564706 0.623529 1 0.564706 0.623529 
1 0.564706 0.623529 1 0.564706 0.623529 
1 0.564706 0.623529 1 0.564706 0.623529 
1 0.564706 0.623529 1 0.564706 0.623529 
1 0.564706 0.623529 1 0.564706 0.623529 
1 0.564706 0.623529 1 0.564706 0.623529 
1 0.564706 0.623529 1 0.564706 0.623529 
1 0.564706 0.623529 1 0.564706 0.623529 
1 0.564706 0.623529 1 0.564706 0.623529 
1 0.564706 0.623529 1 0.564706 0.623529 
1 0.564706 0.623529 1 0.564706 0.623529 
1 0.564706 0.623529 1 0.564706 0.623529 
1 0.564706 0.623529 1 0.564706 0.623529 
1 0.564706 0.623529 1 0.564706 0.623529 
1 0.564706 0.623529 1 0.564706 0.623529 
1 0.564706 0.623529 1 0.564706 0.623529 
1 0.564706 0.623529 1 0.564706 0.623529 
1 0.564706 0.623529 1 0.564706 0.623529 
1 0.564706 0.623529 1 0.564706 0.623529 
1 0.564706 0.623529 1 0.564706 0.623529 
1 0.564706 0.623529 
NORMALS Normals float
-0.0525148 -0.328838 -0.942925 0.240335 -0.240886 -0.940326 -0.47602 -0.285319 -0.831864 
-0.34733 -0.0967105 -0.932743 -0.119377 -0.0504132 -0.991568 0.268026 -0.0113335 -0.963345 
0.0665864 0.160226 -0.984832 -0.229568 -0.58587 -0.777209 0.410749 -0.364278 -0.835815 
-0.489561 -0.437318 -0.754376 -0.622844 -0.257332 -0.738813 0.088398 0.346272 -0.93396 
-0.367711 0.0923233 -0.925346 0.335493 0.219513 -0.916111 0.103445 -0.721758 -0.684372 
0.153754 -0.593805 -0.789782 -0.749951 -0.299378 -0.58987 -0.668986 -0.154674 -0.727003 
0.617135 0.183431 -0.765178 -0.207748 0.244535 -0.947124 0.363037 0.464983 -0.807462 
-0.19231 -0.709556 -0.677899 -0.344357 -0.776004 -0.528428 0.0922165 -0.712828 -0.69525 
-0.704585 -0.557558 -0.438964 0.782577 -0.0219658 -0.622166 -0.574359 0.046984 -0.817254 
-0.337016 0.172917 -0.925484 -0.464429 0.22481 -0.856601 0.257273 -0.5948 -0.761593 
0.121158 -0.731833 -0.670628 0.617557 -0.405125 -0.674164 -0.838933 -0.207629 -0.503072 
-0.827265 -0.291221 -0.480441 -0.795408 -0.0482236 -0.604152 -0.707066 -0.0235548 -0.706756 
-0.615266 0.158652 -0.77219 -0.247538 0.304016 -0.919945 -0.217129 -0.862686 -0.456758 
-0.337043 -0.930859 -0.141079 0.169955 -0.826903 -0.536048 -0.564989 -0.788903 -0.241704 
0.464991 -0.629781 -0.622222 0.857438 0.329995 -0.394846 0.664 0.533482 -0.523928 
-0.752483 -0.0808468 -0.65363 -0.821987 -0.169932 -0.543563 0.512309 0.577066 -0.63603 
-0.211946 0.309749 -0.926895 -0.483253 0.186242 -0.855442 -0.73115 0.152521 -0.664949 
0.452972 -0.684803 -0.570843 0.87811 -0.0436452 -0.476464 -0.911495 -0.350902 -0.214581 
-0.854802 -0.275075 -0.440053 -0.914975 -0.263723 -0.305403 -0.940593 -0.11317 -0.320122 
0.111594 0.488347 -0.865485 -0.252194 0.328724 -0.910131 -0.079766 0.478193 -0.874625 
-0.43401 0.308672 -0.846379 -0.169917 0.537365 -0.826055 -0.61751 0.29272 -0.730066 
0.0507504 -0.935855 -0.348712 -0.211326 -0.948104 -0.23757 0.164624 -0.913016 -0.373231 
0.364319 -0.876725 -0.314044 0.598543 -0.691134 -0.405068 0.786842 -0.35932 -0.501766 
-0.824628 -0.563167 -0.0532191 0.96915 0.0722066 -0.235659 0.967174 0.235523 -0.0954073 
-0.936636 -0.334698 -0.103395 0.378744 0.55403 -0.741353 0.438562 0.616862 -0.653563 
-0.916525 -0.0935411 -0.388887 -0.898616 0.0817696 -0.431048 -0.0147077 0.421634 -0.906647 
-0.150656 -0.987756 0.0405173 0.365455 -0.929345 -0.052539 0.578218 -0.781739 -0.233556 
0.683531 -0.717406 -0.134588 0.771372 -0.545838 -0.32718 -0.582959 -0.811668 0.0368068 
0.954716 -0.143277 -0.260748 -0.93869 0.0599408 -0.339513 -0.949767 0.0607003 -0.307014 
-0.288817 0.42765 -0.856563 -0.662261 0.0325173 -0.748567 -0.84253 -0.00370586 -0.538637 
-0.390226 0.224394 -0.892956 -0.539718 0.297243 -0.787624 0.842987 -0.537914 0.00460265 
0.924439 -0.337302 -0.177876 0.933517 0.314913 0.171391 -0.941403 -0.316195 0.117389 
-0.95779 -0.247305 -0.146558 0.692707 0.551506 -0.464755 0.609887 0.647552 -0.456852 
-0.993087 0.0541283 -0.10416 -0.946838 -0.110124 -0.302276 -0.952576 0.104902 -0.285648 
-0.203151 0.634168 -0.74603 -0.752915 0.245049 -0.610795 -0.820903 0.229588 -0.522883 
-0.389753 0.368831 -0.843834 -0.10723 -0.935866 0.335644 0.430762 -0.868537 0.245127 
0.645448 -0.75075 0.140609 0.886997 0.460968 -0.0272907 -0.955444 -0.27651 -0.103291 
-0.995528 -0.0447224 0.0832149 0.81872 0.510647 -0.262559 -0.98799 -0.125022 0.0908042 
0.656522 0.681401 -0.323532 0.423261 0.541012 -0.726744 0.686319 0.59567 -0.417305 
0.691144 0.561249 -0.455323 -0.99458 -0.0528906 -0.0895196 0.19221 0.562674 -0.804024 
-0.658399 0.331385 -0.675792 -0.710619 0.352848 -0.608703 0.13795 -0.938176 0.317484 
-0.290254 -0.914088 0.283187 0.713658 -0.654166 0.250517 0.845925 -0.522724 0.105695 
0.862888 -0.468823 0.188758 0.983441 -0.178549 -0.031036 0.957542 -0.283573 0.0519621 
-0.66129 -0.670166 0.337006 0.974735 -0.0114399 0.223073 0.976247 0.0598546 0.208227 
0.927939 0.167603 0.332924 0.905161 0.424459 0.0227528 0.793659 0.604685 -0.0667971 
-0.973324 -0.0828253 0.213962 -0.977878 -0.0576488 0.201073 -0.978738 0.141276 -0.1487 
-0.0715323 0.457971 -0.886085 -0.0541054 -0.845692 0.530921 0.565147 -0.724825 0.394002 
-0.423096 -0.761338 0.491278 0.624338 -0.496159 0.603347 0.823303 -0.472655 0.314274 
0.877369 -0.11186 0.466596 -0.799256 -0.566964 0.199351 0.927895 0.109068 0.356531 
-0.872949 -0.292886 0.390099 0.73543 0.188317 0.650907 -0.899522 -0.131792 0.416523 
0.90554 0.307525 0.292278 0.800215 0.557625 0.220702 -0.77546 -0.220295 0.591719 
0.670116 0.671999 -0.315216 0.752185 0.652271 -0.0935997 -0.90879 -0.06773 0.411721 
0.46163 0.532534 -0.70944 -0.992828 0.109055 -0.0489755 -0.808123 0.415041 -0.417945 
-0.797533 0.434652 -0.418353 0.173659 0.565421 -0.806314 -0.157391 0.576491 -0.801802 
0.160596 -0.791805 0.589283 -0.220548 -0.80778 0.546672 -0.551139 -0.71181 0.435398 
0.74554 -0.301244 0.594493 0.638929 0.104517 0.762132 -0.792272 -0.348864 0.500598 
-0.543864 -0.10216 0.832932 0.820327 0.451425 0.351111 -0.848717 -0.131326 0.512282 
0.775612 0.569234 0.272761 0.804741 0.58147 0.119518 -0.701041 -0.174388 0.691469 
0.753898 0.616827 0.226189 0.73978 0.577293 0.345628 0.586373 0.611529 -0.531225 
0.370811 0.581799 -0.723885 0.79089 0.605968 -0.0854142 0.385641 0.509798 -0.769017 
0.600443 0.656212 -0.457005 -0.947307 0.128561 0.293397 -0.908374 -0.00777966 0.418087 
0.545949 0.588851 -0.595981 -0.94247 0.157471 0.294878 0.218408 0.750948 -0.623197 
-0.488119 0.513988 -0.705376 -0.918179 0.365566 -0.152672 -0.661024 0.494527 -0.564349 
-0.819341 0.171564 0.547033 0.168775 0.572363 -0.802444 0.127497 0.902998 -0.410291 
-0.586222 0.769447 -0.253566 -0.181636 -0.743281 0.64385 0.378747 -0.644473 0.664232 
0.567526 -0.29638 0.768162 -0.533635 -0.54378 0.647717 0.20581 0.122224 0.970929 
-0.593883 -0.4303 0.679812 0.279518 0.169787 0.945009 -0.624719 -0.182086 0.759322 
-0.241334 -0.0568541 0.968775 0.703421 0.295162 0.646589 0.743693 0.352532 0.568015 
0.691356 0.651664 0.312027 0.478769 0.550811 0.683657 0.742459 0.654281 -0.143773 
0.825867 0.560211 0.064088 -0.733208 -0.0114088 0.679909 -0.756451 -0.0284836 0.65343 
0.435995 0.586386 -0.682686 0.741759 0.664792 0.0885789 0.630759 0.687171 -0.360471 
-0.6141 0.138498 0.776981 0.565485 0.750857 -0.341234 0.147326 0.93456 -0.323873 
0.516648 0.771264 -0.371789 -0.520896 0.474324 0.709707 -0.251483 0.925774 0.282308 
0.0773977 0.970401 -0.228759 -0.449366 0.819396 0.355895 0.376296 0.895275 -0.238503 
0.00789725 0.864292 0.502928 0.0361972 -0.676597 0.735464 -0.304592 -0.52713 0.793321 
-0.17724 -0.43742 0.881618 0.0615556 -0.525106 0.848808 0.303426 -0.471588 0.827972 
0.211897 -0.0501753 0.976003 0.0708905 0.0956099 0.992891 -0.228071 0.00962457 0.973597 
-0.0719032 0.00155021 0.99741 -0.363544 -0.167729 0.916353 -0.25928 -0.0816149 0.962347 
-0.0267579 -0.0612749 0.997762 -0.3809 -0.110483 0.917992 0.400104 0.154422 0.903366 
0.0985064 0.115694 0.988388 -0.0200151 0.0105433 0.999744 -0.168206 -0.133714 0.976641 
0.454351 0.230515 0.860481 0.565891 0.301511 0.767371 0.618725 0.276138 0.735478 
0.518243 0.220145 0.826414 0.460871 0.454995 0.761956 0.687016 0.522596 0.504878 
0.726927 0.420344 0.543035 0.713642 0.63026 0.305756 0.694313 0.719285 0.0236385 
-0.390174 0.17658 0.90365 0.48127 0.872265 0.0867958 0.724645 0.570196 0.386996 
-0.302131 0.476068 0.825879 0.24421 0.96224 0.120234 -0.277506 0.269877 0.92204 
-0.164083 0.691839 0.703161 -0.251153 -0.304442 0.918824 -0.0226414 -0.125794 0.991798 
-0.0414984 -0.172905 0.984064 -0.211912 -0.253053 0.943958 -0.40405 -0.211875 0.889861 
0.343028 0.0333134 0.938734 0.0271699 -0.0604123 0.997804 0.184741 -0.00450843 0.982777 
-0.0345343 -0.0546766 0.997907 0.469252 0.264954 0.842379 0.432437 0.121607 0.893426 
0.439908 0.0199575 0.897821 0.37725 0.279176 0.883031 0.581442 0.327607 0.744714 
-0.356306 -0.0374117 0.93362 0.576874 0.456201 0.677567 -0.174349 0.131059 0.975923 
0.53121 0.532194 0.659231 -0.311801 0.348452 0.883946 0.496537 0.716325 0.490234 
-0.105198 0.673869 0.731323 -0.0659857 0.550925 0.831942 0.291413 0.782524 0.550214 
0.0867817 0.0518278 0.994878 0.0880072 0.139674 0.986279 -0.0281164 0.347878 0.937118 
0.120847 0.474845 0.871733 -0.0751383 -0.298757 -0.951367 0.217355 -0.022227 -0.975839 
-0.1167 -0.0278944 -0.992775 0.0542721 0.0612657 -0.996645 0.320788 -0.110214 -0.940717 