# vtk DataFile Version 4.2
vtk output
ASCII
DATASET POLYDATA
POINTS 4800 float
276.386 192.291 29.4289 276.99 192.316 29.4611 276.879 192.185 29.5139 
277.039 192.195 29.6125 276.315 192.669 29.2445 277.164 192.39 29.6342 
276.03 193.201 29.0947 276.997 192.99 29.3772 276.192 194.249 29.0887 
276.558 191.926 29.9845 269.27 194.789 30.0223 268.741 194.432 30.4378 
271.022 194.572 29.6626 270.364 194.099 30.0708 277.697 193.422 30.1811 
272.988 195.922 29.1485 277.078 195.305 29.6962 277.557 195.811 30.1896 
275.895 197.204 29.5375 267.949 194.827 30.5174 264.002 195.883 31.0453 
266.634 195.769 30.4945 278.017 194.511 30.636 267.355 196.367 30.171 
269.114 197.023 29.7871 276.392 197.76 29.8485 277.036 198.109 30.3154 
275.778 199.481 30.2132 275.939 191.637 30.7278 270.308 193.277 30.8025 
278.184 193.321 31.2544 266.716 194.437 31.3214 264.891 194.982 31.4921 
263.367 198.187 30.8826 277.955 200.452 31.7079 275.938 191.214 32.4323 
277.171 191.749 31.6272 273.841 191.464 32.0389 278.359 192.629 32.4284 
267.129 193.434 32.5089 278.773 193.726 32.6244 264.885 194.517 32.0589 
260.821 195.626 32.5951 271.397 191.927 32.62 278.145 192.225 32.6662 
250.982 198.66 33.8654 252.414 197.72 34.0106 250.808 199.974 33.5618 
256.115 201.791 32.9135 278.127 205.542 34.129 245.275 199.586 35.1688 
245.958 200.222 34.7846 246.256 200.6 34.6766 246.595 200.204 34.6404 
276.747 206.724 33.9936 276.492 190.814 34.6994 278.197 191.771 34.2187 
254.713 196.11 35.3115 243.08 199.916 35.7473 244.374 198.922 35.907 
247.096 198.491 35.3682 242.867 201.014 35.5668 247.118 202.739 34.9492 
275.764 208.687 34.9452 279.94 196.249 35.6545 248.797 197.262 36.128 
238.927 200.687 36.8288 239.762 200.994 36.511 243.274 202.852 35.8876 
278.219 191.037 36.5794 279.5 192.43 37.0492 279.756 192.994 37.0594 
279.89 193.646 36.8996 238.496 199.243 37.8578 277.5 211.741 37.8298 
277.818 211.526 37.7177 277.927 211.404 37.6844 275.507 190.258 37.7723 
279.624 192.212 37.7769 239.969 198.621 37.996 232.929 200.74 38.8931 
233.602 200.134 38.9084 235.408 202.641 38.1381 240.753 204.926 37.5213 
279.356 209.324 38.1595 278.396 210.986 38.1944 277.956 211.705 38.4661 
275.497 213.069 38.2388 276.287 213.036 38.6161 279.684 191.879 38.8585 
234.61 199.496 39.0016 229.684 200.281 40.3213 230.78 201.044 39.6547 
231.719 201.261 39.3185 238.658 205.7 38.5417 259.192 211.61 38.8278 
277.172 212.695 38.998 270.977 214.264 39.1686 234.74 198.528 40.0681 
227.822 200.915 40.8929 228.78 201.879 40.3604 269.467 215.108 40.0365 
226.779 200.264 41.7043 277.116 212.956 41.1878 270.439 216.048 41.5902 
280.888 193.279 41.9541 281.875 204.396 42.0749 272.97 215.31 41.7727 
270.103 216.337 42.2628 268.601 216.794 42.2484 279.348 190.442 42.2181 
279.31 190.25 42.7236 280.051 191.027 42.7193 226.644 199.14 42.8242 
229.06 198.216 43.1071 222.087 201.158 43.6348 227.623 206.558 42.6755 
274.002 214.813 42.7496 257.2 215.764 42.7578 262.374 217.078 43.1119 
266.719 217.256 43.545 278.987 190.038 42.9972 279.843 190.522 43.421 
221.084 200.833 44.3539 220.287 202.086 44.3705 220.82 202.837 44.1502 
220.535 200.058 45.2575 218.97 202.225 45.0785 282.735 204.107 44.9855 
283.013 203.511 45.6247 282.685 205.014 45.8628 235.737 212.125 44.1424 
272.379 215.253 44.7521 266.059 217.551 45.0203 259.503 218.362 44.9984 
258.828 218.71 45.6888 260.601 218.67 45.2853 260.87 218.652 45.3109 
279.547 190.085 44.2505 277.71 189.371 45.5382 280.624 190.949 45.0091 
217.089 200.876 46.3842 216.459 201.682 46.3567 215.986 201.79 46.5662 
216.841 202.897 46.1248 254.754 218.31 45.8826 261.583 218.512 45.5927 
258.904 219.036 46.3735 259.4 218.925 46.0309 259.94 218.915 46.1684 
218.123 199.321 47.362 222.155 198.263 47.1873 282.655 205.472 47.0581 
255.759 218.774 46.3679 259.121 219.049 46.6018 255.67 219.242 47.469 
281.565 191.21 47.6535 231.607 196.172 47.8119 210.852 200.425 49.221 
210.674 200.246 49.4425 212.047 201.087 48.5522 213.001 203.356 48.0783 
265.624 217.218 47.9345 256.959 219.305 48.198 283.929 198.784 49.23 
210.088 200.109 49.8099 212.463 199.874 49.2309 209.106 201.008 49.8946 
209.979 201.288 49.4273 283.743 203.644 49.3149 244.308 219.001 48.9253 
281.483 190.45 49.2706 208.122 200.227 50.6808 244.894 219.683 49.6801 
245.217 219.944 50.0541 280.487 189.523 50.3704 207.152 199.898 51.4721 
206.202 200.981 51.4074 206.278 201.419 51.2989 245.189 220.338 51.1674 
275.006 188.906 52.0687 276.046 188.776 52.2514 277.301 188.7 52.3112 
283.037 192.017 51.6501 205.157 199.839 52.5342 204.417 200.621 52.4579 
203.973 200.288 52.8271 204.845 201.223 52.1074 235.172 219.878 52.1612 
278.863 188.721 52.7892 204.73 199.576 52.9513 203.765 201.308 52.6866 
284.439 202.862 53.1521 242.784 220.554 53.0479 200.479 199.671 54.6842 
201.721 198.79 54.8933 204.19 198.605 54.2824 205.741 198.441 53.9206 
200.268 200.604 54.4377 204.052 205.676 53.5997 242.279 220.476 54.1437 
198.579 199.205 55.5538 207.057 197.509 55.4326 199.354 198.967 55.5564 
198.254 200.258 55.3908 285.499 200.475 54.5637 284.029 203.363 55.1315 
225.042 220.509 55.5933 283.208 190.408 55.6832 207.802 197.248 55.9245 
197.739 198.804 56.4291 221.819 220.542 56.006 223.742 220.871 56.2827 
194.54 198.648 57.7597 195.827 198.084 57.923 200.242 197.511 57.2262 
195.156 199.278 57.3363 194.815 200.747 57.2248 280.663 206.95 56.5163 
215.201 219.796 56.9625 217.122 220.582 57.2293 222.559 220.988 57.3776 
279.928 188.569 57.7791 281.621 189.07 57.2835 236.353 193.359 58.3717 
285.894 194.923 58.0397 210.171 196.379 58.272 194.402 198.07 58.4307 
192.865 199.313 58.3581 193.655 198.573 58.2851 286.081 200.326 57.9111 
285.961 200.687 57.9319 285.803 200.945 58.1969 215.779 220.612 57.7237 
215.946 220.992 58.4036 216.296 220.858 57.9733 219.765 221.185 58.0501 
283.02 189.746 57.7567 195.301 197.255 59.2551 286.487 199.511 59.4267 
277.684 209.128 58.4934 265.675 213.601 58.9342 213.134 220.885 59.3549 
213.417 220.719 58.9082 218.952 221.233 59.2191 286.841 198.147 60.0238 
281.837 205.117 60.0738 211.205 220.906 60.5292 215.669 221.225 59.7519 
283.21 189.56 59.748 186.625 197.414 61.8065 286.776 199.233 61.2069 
286.709 199.419 61.2347 286.545 199.633 61.301 188.254 201.74 60.7212 
201.529 217.495 60.7679 213.542 221.132 60.5117 279.88 188.348 61.9352 
282.556 189.006 61.2962 185.524 196.979 62.6861 186.658 196.4 62.7021 
184.858 197.664 62.7366 185.125 198.056 62.4411 282.891 203.52 61.4425 
279.452 207.189 61.2418 204.699 220.007 62.0138 284.033 189.673 61.9072 
284.859 190.394 61.7434 285.797 191.759 61.7623 184.219 196.819 63.8746 
184.112 196.95 63.736 184.631 196.947 63.2881 184.607 196.646 63.6425 
190.855 195.592 63.0597 184.085 197.167 63.7091 183.958 197.692 63.6723 
287.369 197.27 62.9182 183.964 198.723 63.4643 184.157 199.577 63.3052 
185.206 201.002 62.5525 218.641 220.303 62.8796 200.975 219.546 63.2383 
201.712 219.595 62.8627 201.647 219.802 63.3418 205.276 220.387 63.0181 
184.572 196.446 64.2381 184.287 196.614 64.5583 186.673 195.53 64.1121 
184.051 196.986 63.8891 183.982 197.141 64.3116 183.653 197.759 64.301 
183.72 198.175 63.8185 183.558 198.332 64.0974 286.945 198.346 64.1899 
198.883 219.49 64.3607 199.847 219.734 64.5626 199.258 219.691 64.5336 
202.419 220.109 64.3484 204.386 220.328 64.2281 199.071 219.674 64.5637 
184.478 196.437 65.2962 185.919 195.628 64.5151 287.616 195.31 65.176 
184.022 196.975 64.9232 287.442 196.868 65.1895 183.53 198.658 64.299 
183.23 202.18 65.3665 183.554 204.914 65.382 184.316 205.934 64.8238 
184.201 207.249 65.3588 188.417 211.667 64.0409 193.585 218.492 65.6032 
198.278 219.597 65.4573 284.938 189.962 64.8907 286.357 191.63 65.4289 
287.489 194.237 65.7285 186.566 195.282 66.1826 184.332 196.855 66.0415 
183.709 198.083 65.4271 287.253 197.518 65.9681 287.152 197.663 66.3408 
285.783 199.354 65.9656 183.213 202.624 66.1017 183.591 206.169 65.7994 
183.481 208.083 66.549 185.68 212.167 66.0378 189.721 216.099 65.7151 
193.353 218.699 66.2019 185.743 195.909 67.265 220.242 194.178 67.0785 
183.198 205.415 66.3771 183.118 206.697 67.3444 183.118 207.562 67.1881 
183.339 208.97 66.994 184.088 210.011 66.4585 254.067 214.171 66.0787 
236.568 216.664 66.8179 188.447 217.328 67.4715 190.9 217.565 66.4015 
189.281 217.976 67.954 193.254 218.822 67.3666 197.521 219.518 66.6951 
185.405 196.346 67.6525 286.824 197.709 67.8547 285.523 198.927 68.1542 
283.944 200.485 67.5943 182.933 207.899 67.8375 183.598 212.263 68.1994 
184.624 213.72 67.6921 250.448 214.305 67.6154 191.003 218.533 68.5267 
202.682 219.477 67.8134 280.246 188.594 68.9289 285.538 190.993 67.5827 
187.503 195.138 69.4709 188.592 194.543 69.6037 190.275 194.036 69.378 
192.794 193.94 68.9982 287.114 194.627 68.0409 287.324 195.822 68.1941 
287.266 195.974 68.4111 287.267 196.415 68.2778 287.242 196.229 68.4334 
184.55 199.956 68.9849 277.233 204.596 69.3538 183.344 206.112 69.1693 
182.985 211.427 69.3186 183.033 212.018 69.2473 183.291 212.275 68.7522 
183.354 213.076 68.9957 183.138 213.167 69.5144 185.905 217.482 69.7877 
196.507 219.137 68.7344 199.959 218.997 69.3234 278.979 188.362 69.0229 
279.761 188.711 69.6063 281.14 189.019 69.2725 270.387 188.174 69.5978 
284.604 190.2 67.6017 284.065 191.532 69.5887 284.271 192.749 70.0836 
191.763 193.781 69.8647 286.369 195.568 69.3484 185.853 197.459 69.741 
286.325 196.023 69.4421 287.064 196.003 68.662 286.515 196.564 69.2057 
285.14 198.908 68.9656 284.094 199.487 69.7951 285.593 197.843 69.4216 
263.943 210.315 70.0584 182.947 212.057 69.9721 183.117 213.603 69.9801 
184.171 215.647 69.6027 185.531 217.681 70.4221 186.095 217.936 70.5226 
267.882 188.232 70.5762 270.056 188.231 70.6893 279.036 188.97 70.3841 
279.873 188.994 70.0391 267.151 188.381 70.5842 276.833 188.25 69.6464 
281.447 189.848 70.0924 191.021 193.768 71.0978 285.335 196.244 70.0191 
285.732 196.72 69.7314 283.926 198.894 70.4488 283.96 199.414 70.4178 
283.956 199.542 70.4806 283.988 199.51 70.5224 283.972 199.531 70.5509 
[...]
POINT_DATA 4800
COLOR_SCALARS scalars 3
0.129412 0.596078 0.4 0.129412 0.596078 0.4 0.129412 0.596078 0.4 
0.129412 0.596078 0.4 0.129412 0.596078 0.4 
0.129412 0.596078 0.4 0.129412 0.596078 0.4 
0.129412 0.596078 0.4 0.129412 0.596078 0.4 
0.129412 0.596078 0.4 0.129412 0.596078 0.4 
0.129412 0.596078 0.4 0.129412 0.596078 0.4 
0.129412 0.596078 0.4 0.129412 0.596078 0.4 
0.129412 0.596078 0.4 0.129412 0.596078 0.4 
0.129412 0.596078 0.4 0.129412 0.596078 0.4 
0.129412 0.596078 0.4 0.129412 0.596078 0.4 
0.129412 0.596078 0.4 0.129412 0.596078 0.4 
0.129412 0.596078 0.4 0.129412 0.596078 0.4 
0.129412 0.596078 0.4 0.129412 0.596078 0.4 
0.129412 0.596078 0.4 0.129412 0.596078 0.4 
0.129412 0.596078 0.4 0.129412 0.596078 0.4 
0.129412 0.596078 0.4 0.129412 0.596078 0.4 
0.129412 0.596078 0.4 0.129412 0.596078 0.4 
0.129412 0.596078 0.4 0.129412 0.596078 0.4 
0.129412 0.596078 0.4 0.129412 0.596078 0.4 
0.129412 0.596078 0.4 0.129412 0.596078 0.4 
0.129412 0.596078 0.4 0.129412 0.596078 0.4 
0.129412 0.596078 0.4 0.129412 0.596078 0.4 
0.129412 0.596078 0.4 0.129412 0.596078 0.4 
0.129412 0.596078 0.4 0.129412 0.596078 0.4 
0.129412 0.596078 0.4 0.129412 0.596078 0.4 
0.129412 0.596078 0.4 0.129412 0.596078 0.4 
0.129412 0.596078 0.4 0.129412 0.596078 0.4 
0.129412 0.596078 0.4 0.129412 0.596078 0.4 
0.129412 0.596078 0.4 0.129412 0.596078 0.4 
0.129412 0.596078 0.4 0.129412 0.596078 0.4 
0.129412 0.596078 0.4 0.129412 0.596078 0.4 
0.129412 0.596078 0.4 0.129412 0.596078 0.4 
0.129412 0.596078 0.4 0.129412 0.596078 0.4 
0.129412 0.596078 0.4 0.129412 0.596078 0.4 
0.129412 0.596078 0.4 0.129412 0.596078 0.4 
0.129412 0.596078 0.4 0.129412 0.596078 0.4 
0.129412 0.596078 0.4 0.129412 0.596078 0.4 
0.129412 0.596078 0.4 0.129412 0.596078 0.4 
0.129412 0.596078 0.4 0.129412 0.596078 0.4 
0.129412 0.596078 0.4 0.129412 0.596078 0.4 
0.129412 0.596078 0.4 0.129412 0.596078 0.4 
0.129412 0.596078 0.4 0.129412 0.596078 0.4 
0.129412 0.596078 0.4 0.129412 0.596078 0.4 
0.129412 0.596078 0.4 0.129412 0.596078 0.4 
0.129412 0.596078 0.4 0.129412 0.596078 0.4 
0.129412 0.596078 0.4 0.129412 0.596078 0.4 
0.129412 0.596078 0.4 0.129412 0.596078 0.4 
0.129412 0.596078 0.4 0.129412 0.596078 0.4 
0.129412 0.596078 0.4 0.129412 0.596078 0.4 
0.129412 0.596078 0.4 0.129412 0.596078 0.4 
0.129412 0.596078 0.4 0.129412 0.596078 0.4 
0.129412 0.596078 0.4 0.129412 0.596078 0.4 
0.129412 0.596078 0.4 0.129412 0.596078 0.4 
0.129412 0.596078 0.4 0.129412 0.596078 0.4 
0.129412 0.596078 0.4 0.129412 0.596078 0.4 
0.129412 0.596078 0.4 0.129412 0.596078 0.4 
0.129412 0.596078 0.4 0.129412 0.596078 0.4 
0.129412 0.596078 0.4 0.129412 0.596078 0.4 
0.129412 0.596078 0.4 0.129412 0.596078 0.4 
0.129412 0.596078 0.4 0.129412 0.596078 0.4 
0.129412 0.596078 0.4 0.129412 0.596078 0.4 
0.129412 0.596078 0.4 0.129412 0.596078 0.4 
0.129412 0.596078 0.4 0.129412 0.596078 0.4 
0.129412 0.596078 0.4 0.129412 0.596078 0.4 
0.129412 0.596078 0.4 0.129412 0.596078 0.4 
0.129412 0.596078 0.4 0.129412 0.596078 0.4 
0.129412 0.596078 0.4 0.129412 0.596078 0.4 
0.129412 0.596078 0.4 0.129412 0.596078 0.4 
0.129412 0.596078 0.4 0.129412 0.596078 0.4 
0.129412 0.596078 0.4 0.129412 0.596078 0.4 
0.129412 0.596078 0.4 0.129412 0.596078 0.4 
0.129412 0.596078 0.4 0.129412 0.596078 0.4 
0.129412 0.596078 0.4 0.129412 0.596078 0.4 
0.129412 0.596078 0.4 0.129412 0.596078 0.4 
0.129412 0.596078 0.4 0.129412 0.596078 0.4 
0.129412 0.596078 0.4 0.129412 0.596078 0.4 
0.129412 0.596078 0.4 0.129412 0.596078 0.4 
0.129412 0.596078 0.4 0.129412 0.596078 0.4 
0.129412 0.596078 0.4 0.129412 0.596078 0.4 
0.129412 0.596078 0.4 0.129412 0.596078 0.4 
0.129412 0.596078 0.4 0.129412 0.596078 0.4 
0.129412 0.596078 0.4 0.129412 0.596078 0.4 
0.129412 0.596078 0.4 0.129412 0.596078 0.4 
0.129412 0.596078 0.4 0.129412 0.596078 0.4 
0.129412 0.596078 0.4 0.129412 0.596078 0.4 
0.129412 0.596078 0.4 0.129412 0.596078 0.4 
0.129412 0.596078 0.4 0.129412 0.596078 0.4 
0.129412 0.596078 0.4 0.129412 0.596078 0.4 
0.129412 0.596078 0.4 0.129412 0.596078 0.4 
0.129412 0.596078 0.4 0.129412 0.596078 0.4 
0.129412 0.596078 0.4 0.129412 0.596078 0.4 
0.129412 0.596078 0.4 0.129412 0.596078 0.4 
0.129412 0.596078 0.4 0.129412 0.596078 0.4 
0.129412 0.596078 0.4 0.129412 0.596078 0.4 
0.129412 0.596078 0.4 0.129412 0.596078 0.4 
0.129412 0.596078 0.4 0.129412 0.596078 0.4 
0.129412 0.596078 0.4 0.129412 0.596078 0.4 
0.129412 0.596078 0.4 0.129412 0.596078 0.4 
0.129412 0.596078 0.4 0.129412 0.596078 0.4 
0.129412 0.596078 0.4 0.129412 0.596078 0.4 
0.129412 0.596078 0.4 0.129412 0.596078 0.4 
0.129412 0.596078 0.4 0.129412 0.596078 0.4 
0.129412 0.596078 0.4 0.129412 0.596078 0.4 
0.129412 0.596078 0.4 0.129412 0.596078 0.4 
0.129412 0.596078 0.4 0.129412 0.596078 0.4 
0.129412 0.596078 0.4 0.129412 0.596078 0.4 
0.129412 0.596078 0.4 0.129412 0.596078 0.4 
0.129412 0.596078 0.4 0.129412 0.596078 0.4 
0.129412 0.596078 0.4 0.129412 0.596078 0.4 
0.129412 0.596078 0.4 0.129412 0.596078 0.4 
0.129412 0.596078 0.4 0.129412 0.596078 0.4 
0.129412 0.596078 0.4 0.129412 0.596078 0.4 
0.129412 0.596078 0.4 0.129412 0.596078 0.4 
0.129412 0.596078 0.4 0.129412 0.596078 0.4 
0.129412 0.596078 0.4 0.129412 0.596078 0.4 
0.129412 0.596078 0.4 0.129412 0.596078 0.4 
0.129412 0.596078 0.4 0.129412 0.596078 0.4 
0.129412 0.596078 0.4 0.129412 0.596078 0.4 
0.129412 0.596078 0.4 0.129412 0.596078 0.4 
0.129412 0.596078 0.4 0.129412 0.596078 0.4 
0.129412 0.596078 0.4 0.129412 0.596078 0.4 
0.129412 0.596078 0.4 0.129412 0.596078 0.4 
0.129412 0.596078 0.4 0.129412 0.596078 0.4 
0.129412 0.596078 0.4 0.129412 0.596078 0.4 
0.129412 0.596078 0.4 0.129412 0.596078 0.4 
0.129412 0.596078 0.4 0.129412 0.596078 0.4 
0.129412 0.596078 0.4 0.129412 0.596078 0.4 
0.129412 0.596078 0.4 0.129412 0.596078 0.4 
0.129412 0.596078 0.4 0.129412 0.596078 0.4 
0.129412 0.596078 0.4 0.129412 0.596078 0.4 
0.129412 0.596078 0.4 0.129412 0.596078 0.4 
0.129412 0.596078 0.4 0.129412 0.596078 0.4 
0.129412 0.596078 0.4 0.129412 0.596078 0.4 
0.129412 0.596078 0.4 0.129412 0.596078 0.4 
0.129412 0.596078 0.4 0.129412 0.596078 0.4 
0.129412 0.596078 0.4 0.129412 0.596078 0.4 
0.129412 0.596078 0.4 0.129412 0.596078 0.4 
0.129412 0.596078 0.4 0.129412 0.596078 0.4 
0.129412 0.596078 0.4 0.129412 0.596078 0.4 
0.129412 0.596078 0.4 0.129412 0.596078 0.4 
0.129412 0.596078 0.4 0.129412 0.596078 0.4 
0.129412 0.596078 0.4 0.129412 0.596078 0.4 
0.129412 0.596078 0.4 0.129412 0.596078 0.4 
0.129412 0.596078 0.4 0.129412 0.596078 0.4 
0.129412 0.596078 0.4 0.129412 0.596078 0.4 
0.129412 0.596078 0.4 0.129412 0.596078 0.4 
0.129412 0.596078 0.4 0.129412 0.596078 0.4 
0.129412 0.596078 0.4 0.129412 0.596078 0.4 
0.129412 0.596078 0.4 0.129412 0.596078 0.4 
0.129412 0.596078 0.4 0.129412 0.596078 0.4 
0.129412 0.596078 0.4 0.129412 0.596078 0.4 
0.129412 0.596078 0.4 0.129412 0.596078 0.4 
0.129412 0.596078 0.4 0.129412 0.596078 0.4 
0.129412 0.596078 0.4 0.129412 0.596078 0.4 
0.129412 0.596078 0.4 0.129412 0.596078 0.4 
0.129412 0.596078 0.4 0.129412 0.596078 0.4 
0.129412 0.596078 0.4 0.129412 0.596078 0.4 
0.129412 0.596078 0.4 0.129412 0.596078 0.4 
0.129412 0.596078 0.4 0.129412 0.596078 0.4 
0.129412 0.596078 0.4 0.129412 0.596078 0.4 
0.129412 0.596078 0.4 0.129412 0.596078 0.4 
0.129412 0.596078 0.4 0.129412 0.596078 0.4 
0.129412 0.596078 0.4 0.129412 0.596078 0.4 
0.129412 0.596078 0.4 0.129412 0.596078 0.4 
0.129412 0.596078 0.4 0.129412 0.596078 0.4 
0.129412 0.596078 0.4 0.129412 0.596078 0.4 
0.129412 0.596078 0.4 0.129412 0.596078 0.4 
0.129412 0.596078 0.4 0.129412 0.596078 0.4 
0.129412 0.596078 0.4 0.129412 0.596078 0.4 
0.129412 0.596078 0.4 0.129412 0.596078 0.4 
0.129412 0.596078 0.4 0.129412 0.596078 0.4 
0.129412 0.596078 0.4 0.129412 0.596078 0.4 
0.129412 0.596078 0.4 0.129412 0.596078 0.4 
0.129412 0.596078 0.4 0.129412 0.596078 0.4 
0.129412 0.596078 0.4 0.129412 0.596078 0.4 
0.129412 0.596078 0.4 0.129412 0.596078 0.4 
0.129412 0.596078 0.4 0.129412 0.596078 0.4 
0.129412 0.596078 0.4 0.129412 0.596078 0.4 
0.129412 0.596078 0.4 0.129412 0.596078 0.4 
0.129412 0.596078 0.4 0.129412 0.596078 0.4 
0.129412 0.596078 0.4 0.129412 0.596078 0.4 
0.129412 0.596078 0.4 0.129412 0.596078 0.4 
0.129412 0.596078 0.4 0.129412 0.596078 0.4 
0.129412 0.596078 0.4 0.129412 0.596078 0.4 
0.129412 0.596078 0.4 0.129412 0.596078 0.4 
0.129412 0.596078 0.4 0.129412 0.596078 0.4 
0.129412 0.596078 0.4 0.129412 0.596078 0.4 
0.129412 0.596078 0.4 0.129412 0.596078 0.4 
0.129412 0.596078 0.4 0.129412 0.596078 0.4 
0.129412 0.596078 0.4 0.129412 0.596078 0.4 
0.129412 0.596078 0.4 0.129412 0.596078 0.4 
0.129412 0.596078 0.4 0.129412 0.596078 0.4 
0.129412 0.596078 0.4 0.129412 0.596078 0.4 
0.129412 0.596078 0.4 0.129412 0.596078 0.4 
0.129412 0.596078 0.4 0.129412 0.596078 0.4 
0.129412 0.596078 0.4 0.129412 0.596078 0.4 
0.129412 0.596078 0.4 0.129412 0.596078 0.4 
0.129412 0.596078 0.4 0.129412 0.596078 0.4 
0.129412 0.596078 0.4 0.129412 0.596078 0.4 
0.129412 0.596078 0.4 0.129412 0.596078 0.4 
0.129412 0.596078 0.4 0.129412 0.596078 0.4 
0.129412 0.596078 0.4 0.129412 0.596078 0.4 
0.129412 0.596078 0.4 0.129412 0.596078 0.4 
0.129412 0.596078 0.4 0.129412 0.596078 0.4 
0.129412 0.596078 0.4 0.129412 0.596078 0.4 
0.129412 0.596078 0.4 0.129412 0.596078 0.4 
0.129412 0.596078 0.4 0.129412 0.596078 0.4 
0.129412 0.596078 0.4 0.129412 0.596078 0.4 
0.129412 0.596078 0.4 0.129412 0.596078 0.4 
0.129412 0.596078 0.4 0.129412 0.596078 0.4 
0.129412 0.596078 0.4 0.129412 0.596078 0.4 
0.129412 0.596078 0.4 0.129412 0.596078 0.4 
0.129412 0.596078 0.4 0.129412 0.596078 0.4 
0.129412 0.596078 0.4 0.129412 0.596078 0.4 
0.129412 0.596078 0.4 0.129412 0.596078 0.4 
0.129412 0.596078 0.4 0.129412 0.596078 0.4 
0.129412 0.596078 0.4 0.129412 0.596078 0.4 
0.129412 0.596078 0.4 0.129412 0.596078 0.4 
0.129412 0.596078 0.4 0.129412 0.596078 0.4 
0.129412 0.596078 0.4 0.129412 0.596078 0.4 
0.129412 0.596078 0.4 0.129412 0.596078 0.4 
0.129412 0.596078 0.4 0.129412 0.596078 0.4 
0.129412 0.596078 0.4 0.129412 0.596078 0.4 
0.129412 0.596078 0.4 0.129412 0.596078 0.4 
0.129412 0.596078 0.4 0.129412 0.596078 0.4 
0.129412 0.596078 0.4 0.129412 0.596078 0.4 
0.129412 0.596078 0.4 0.129412 0.596078 0.4 
0.129412 0.596078 0.4 0.129412 0.596078 0.4 
0.129412 0.596078 0.4 0.129412 0.596078 0.4 
0.129412 0.596078 0.4 0.129412 0.596078 0.4 
0.129412 0.596078 0.4 0.129412 0.596078 0.4 
0.129412 0.596078 0.4 0.129412 0.596078 0.4 
0.129412 0.596078 0.4 0.129412 0.596078 0.4 
0.129412 0.596078 0.4 0.129412 0.596078 0.4 
0.129412 0.596078 0.4 0.129412 0.596078 0.4 
0.129412 0.596078 0.4 0.129412 0.596078 0.4 
0.129412 0.596078 0.4 0.129412 0.596078 0.4 
0.129412 0.596078 0.4 0.129412 0.596078 0.4 
0.129412 0.596078 0.4 0.129412 0.596078 0.4 
0.129412 0.596078 0.4 0.129412 0.596078 0.4 
0.129412 0.596078 0.4 0.129412 0.596078 0.4 
0.129412 0.596078 0.4 0.129412 0.596078 0.4 
0.129412 0.596078 0.4 0.129412 0.596078 0.4 
0.129412 0.596078 0.4 0.129412 0.596078 0.4 
0.129412 0.596078 0.4 0.129412 0.596078 0.4 
0.129412 0.596078 0.4 0.129412 0.596078 0.4 
0.129412 0.596078 0.4 0.129412 0.596078 0.4 
0.129412 0.596078 0.4 0.129412 0.596078 0.4 
0.129412 0.596078 0.4 0.129412 0.596078 0.4 
0.129412 0.596078 0.4 0.129412 0.596078 0.4 
0.129412 0.596078 0.4 0.129412 0.596078 0.4 
0.129412 0.596078 0.4 0.129412 0.596078 0.4 
0.129412 0.596078 0.4 0.129412 0.596078 0.4 
0.129412 0.596078 0.4 0.129412 0.596078 0.4 
0.129412 0.596078 0.4 0.129412 0.596078 0.4 
0.129412 0.596078 0.4 0.129412 0.596078 0.4 
0.129412 0.596078 0.4 0.129412 0.596078 0.4 
0.129412 0.596078 0.4 0.129412 0.596078 0.4 
0.129412 0.596078 0.4 0.129412 0.596078 0.4 
0.129412 0.596078 0.4 0.129412 0.596078 0.4 
0.129412 0.596078 0.4 0.129412 0.596078 0.4 
0.129412 0.596078 0.4 0.129412 0.596078 0.4 
0.129412 0.596078 0.4 0.129412 0.596078 0.4 
0.129412 0.596078 0.4 0.129412 0.596078 0.4 
0.129412 0.596078 0.4 0.129412 0.596078 0.4 
0.129412 0.596078 0.4 0.129412 0.596078 0.4 
0.129412 0.596078 0.4 0.129412 0.596078 0.4 
0.129412 0.596078 0.4 0.129412 0.596078 0.4 
0.129412 0.596078 0.4 0.129412 0.596078 0.4 
0.129412 0.596078 0.4 0.129412 0.596078 0.4 
0.129412 0.596078 0.4 0.129412 0.596078 0.4 
0.129412 0.596078 0.4 0.129412 0.596078 0.4 
0.129412 0.596078 0.4 0.129412 0.596078 0.4 
0.129412 0.596078 0.4 0.129412 0.596078 0.4 
0.129412 0.596078 0.4 0.129412 0.596078 0.4 
0.129412 0.596078 0.4 0.129412 0.596078 0.4 
0.129412 0.596078 0.4 0.129412 0.596078 0.4 
0.129412 0.596078 0.4 0.129412 0.596078 0.4 
0.129412 0.596078 0.4 0.129412 0.596078 0.4 
0.129412 0.596078 0.4 0.129412 0.596078 0.4 
0.129412 0.596078 0.4 0.129412 0.596078 0.4 
0.129412 0.596078 0.4 0.129412 0.596078 0.4 
0.129412 0.596078 0.4 0.129412 0.596078 0.4 
0.129412 0.596078 0.4 0.129412 0.596078 0.4 
0.129412 0.596078 0.4 0.129412 0.596078 0.4 
0.129412 0.596078 0.4 0.129412 0.596078 0.4 
0.129412 0.596078 0.4 0.129412 0.596078 0.4 
0.129412 0.596078 0.4 0.129412 0.596078 0.4 
0.129412 0.596078 0.4 0.129412 0.596078 0.4 
0.129412 0.596078 0.4 0.129412 0.596078 0.4 
0.129412 0.596078 0.4 0.129412 0.596078 0.4 
0.129412 0.596078 0.4 0.129412 0.596078 0.4 
0.129412 0.596078 0.4 0.129412 0.596078 0.4 
0.129412 0.596078 0.4 0.129412 0.596078 0.4 
0.129412 0.596078 0.4 0.129412 0.596078 0.4 
0.129412 0.596078 0.4 0.129412 0.596078 0.4 
0.129412 0.596078 0.4 0.129412 0.596078 0.4 
0.129412 0.596078 0.4 0.129412 0.596078 0.4 
0.129412 0.596078 0.4 0.129412 0.596078 0.4 
0.129412 0.596078 0.4 0.129412 0.596078 0.4 
0.129412 0.596078 0.4 0.129412 0.596078 0.4 
0.129412 0.596078 0.4 0.129412 0.596078 0.4 
0.129412 0.596078 0.4 0.129412 0.596078 0.4 
0.129412 0.596078 0.4 0.129412 0.596078 0.4 
0.129412 0.596078 0.4 0.129412 0.596078 0.4 
0.129412 0.596078 0.4 0.129412 0.596078 0.4 
0.129412 0.596078 0.4 0.129412 0.596078 0.4 
0.129412 0.596078 0.4 0.129412 0.596078 0.4 
0.129412 0.596078 0.4 0.129412 0.596078 0.4 
0.129412 0.596078 0.4 0.129412 0.596078 0.4 
0.129412 0.596078 0.4 0.129412 0.596078 0.4 
0.129412 0.596078 0.4 0.129412 0.596078 0.4 
0.129412 0.596078 0.4 0.129412 0.596078 0.4 
0.129412 0.596078 0.4 0.129412 0.596078 0.4 
0.129412 0.596078 0.4 0.129412 0.596078 0.4 
0.129412 0.596078 0.4 0.129412 0.596078 0.4 
0.129412 0.596078 0.4 0.129412 0.596078 0.4 
0.129412 0.596078 0.4 0.129412 0.596078 0.4 
0.129412 0.596078 0.4 0.129412 0.596078 0.4 
0.129412 0.596078 0.4 0.129412 0.596078 0.4 
0.129412 0.596078 0.4 0.129412 0.596078 0.4 
0.129412 0.596078 0.4 0.129412 0.596078 0.4 
0.129412 0.596078 0.4 0.129412 0.596078 0.4 
0.129412 0.596078 0.4 0.129412 0.596078 0.4 
0.129412 0.596078 0.4 0.129412 0.596078 0.4 
0.129412 0.596078 0.4 0.129412 0.596078 0.4 
0.129412 0.596078 0.4 0.129412 0.596078 0.4 
0.129412 0.596078 0.4 0.129412 0.596078 0.4 
0.129412 0.596078 0.4 0.129412 0.596078 0.4 
0.129412 0.596078 0.4 0.129412 0.596078 0.4 
0.129412 0.596078 0.4 0.129412 0.596078 0.4 
0.129412 0.596078 0.4 0.129412 0.596078 0.4 
0.129412 0.596078 0.4 0.129412 0.596078 0.4 
0.129412 0.596078 0.4 0.129412 0.596078 0.4 
0.129412 0.596078 0.4 0.129412 0.596078 0.4 
0.129412 0.596078 0.4 0.129412 0.596078 0.4 
0.129412 0.596078 0.4 0.129412 0.596078 0.4 
0.129412 0.596078 0.4 0.129412 0.596078 0.4 
0.129412 0.596078 0.4 0.129412 0.596078 0.4 
0.129412 0.596078 0.4 0.129412 0.596078 0.4 
0.129412 0.596078 0.4 0.129412 0.596078 0.4 
0.129412 0.596078 0.4 0.129412 0.596078 0.4 
0.129412 0.596078 0.4 0.129412 0.596078 0.4 
0.129412 0.596078 0.4 0.129412 0.596078 0.4 
0.129412 0.596078 0.4 0.129412 0.596078 0.4 
0.129412 0.596078 0.4 0.129412 0.596078 0.4 
0.129412 0.596078 0.4 0.129412 0.596078 0.4 
0.129412 0.596078 0.4 0.129412 0.596078 0.4 
0.129412 0.596078 0.4 0.129412 0.596078 0.4 
0.129412 0.596078 0.4 0.129412 0.596078 0.4 
0.129412 0.596078 0.4 0.129412 0.596078 0.4 
0.129412 0.596078 0.4 0.129412 0.596078 0.4 
0.129412 0.596078 0.4 0.129412 0.596078 0.4 
0.129412 0.596078 0.4 0.129412 0.596078 0.4 
0.129412 0.596078 0.4 0.129412 0.596078 0.4 
0.129412 0.596078 0.4 0.129412 0.596078 0.4 
0.129412 0.596078 0.4 0.129412 0.596078 0.4 
0.129412 0.596078 0.4 0.129412 0.596078 0.4 
0.129412 0.596078 0.4 0.129412 0.596078 0.4 
0.129412 0.596078 0.4 0.129412 0.596078 0.4 
0.129412 0.596078 0.4 0.129412 0.596078 0.4 
0.129412 0.596078 0.4 0.129412 0.596078 0.4 
0.129412 0.596078 0.4 0.129412 0.596078 0.4 
0.129412 0.596078 0.4 0.129412 0.596078 0.4 
0.129412 0.596078 0.4 0.129412 0.596078 0.4 
0.129412 0.596078 0.4 0.129412 0.596078 0.4 
0.129412 0.596078 0.4 0.129412 0.596078 0.4 
0.129412 0.596078 0.4 0.129412 0.596078 0.4 
0.129412 0.596078 0.4 0.129412 0.596078 0.4 
0.129412 0.596078 0.4 0.129412 0.596078 0.4 
0.129412 0.596078 0.4 0.129412 0.596078 0.4 
0.129412 0.596078 0.4 0.129412 0.596078 0.4 
0.129412 0.596078 0.4 0.129412 0.596078 0.4 
0.129412 0.596078 0.4 0.129412 0.596078 0.4 
0.129412 0.596078 0.4 0.129412 0.596078 0.4 
0.129412 0.596078 0.4 0.129412 0.596078 0.4 
0.129412 0.596078 0.4 0.129412 0.596078 0.4 
0.129412 0.596078 0.4 0.129412 0.596078 0.4 
0.129412 0.596078 0.4 0.129412 0.596078 0.4 
0.129412 0.596078 0.4 0.129412 0.596078 0.4 
0.129412 0.596078 0.4 0.129412 0.596078 0.4 
0.129412 0.596078 0.4 0.129412 0.596078 0.4 
0.129412 0.596078 0.4 0.129412 0.596078 0.4 
0.129412 0.596078 0.4 0.129412 0.596078 0.4 
0.129412 0.596078 0.4 0.129412 0.596078 0.4 
0.129412 0.596078 0.4 0.129412 0.596078 0.4 
0.129412 0.596078 0.4 0.129412 0.596078 0.4 
0.129412 0.596078 0.4 0.129412 0.596078 0.4 
0.129412 0.596078 0.4 0.129412 0.596078 0.4 
0.129412 0.596078 0.4 0.129412 0.596078 0.4 
0.129412 0.596078 0.4 0.129412 0.596078 0.4 
0.129412 0.596078 0.4 0.129412 0.596078 0.4 
0.129412 0.596078 0.4 0.129412 0.596078 0.4 
0.129412 0.596078 0.4 0.129412 0.596078 0.4 
0.129412 0.596078 0.4 0.129412 0.596078 0.4 
0.129412 0.596078 0.4 0.129412 0.596078 0.4 
0.129412 0.596078 0.4 0.129412 0.596078 0.4 
0.129412 0.596078 0.4 0.129412 0.596078 0.4 
0.129412 0.596078 0.4 0.129412 0.596078 0.4 
0.129412 0.596078 0.4 0.129412 0.596078 0.4 
0.129412 0.596078 0.4 0.129412 0.596078 0.4 
0.129412 0.596078 0.4 0.129412 0.596078 0.4 
0.129412 0.596078 0.4 0.129412 0.596078 0.4 
0.129412 0.596078 0.4 0.129412 0.596078 0.4 
0.129412 0.596078 0.4 0.129412 0.596078 0.4 
0.129412 0.596078 0.4 0.129412 0.596078 0.4 
0.129412 0.596078 0.4 0.129412 0.596078 0.4 
0.129412 0.596078 0.4 0.129412 0.596078 0.4 
0.129412 0.596078 0.4 0.129412 0.596078 0.4 
0.129412 0.596078 0.4 0.129412 0.596078 0.4 
0.129412 0.596078 0.4 0.129412 0.596078 0.4 
0.129412 0.596078 0.4 0.129412 0.596078 0.4 
0.129412 0.596078 0.4 0.129412 0.596078 0.4 
0.129412 0.596078 0.4 0.129412 0.596078 0.4 
0.129412 0.596078 0.4 0.129412 0.596078 0.4 
0.129412 0.596078 0.4 0.129412 0.596078 0.4 
0.129412 0.596078 0.4 0.129412 0.596078 0.4 
0.129412 0.596078 0.4 0.129412 0.596078 0.4 
0.129412 0.596078 0.4 0.129412 0.596078 0.4 
0.129412 0.596078 0.4 0.129412 0.596078 0.4 
0.129412 0.596078 0.4 0.129412 0.596078 0.4 
0.129412 0.596078 0.4 0.129412 0.596078 0.4 
0.129412 0.596078 0.4 0.129412 0.596078 0.4 
0.129412 0.596078 0.4 0.129412 0.596078 0.4 
0.129412 0.596078 0.4 0.129412 0.596078 0.4 
0.129412 0.596078 0.4 0.129412 0.596078 0.4 
0.129412 0.596078 0.4 0.129412 0.596078 0.4 
0.129412 0.596078 0.4 0.129412 0.596078 0.4 
0.129412 0.596078 0.4 0.129412 0.596078 0.4 
0.129412 0.596078 0.4 0.129412 0.596078 0.4 
0.129412 0.596078 0.4 0.129412 0.596078 0.4 
0.129412 0.596078 0.4 0.129412 0.596078 0.4 
0.129412 0.596078 0.4 0.129412 0.596078 0.4 
0.129412 0.596078 0.4 0.129412 0.596078 0.4 
0.129412 0.596078 0.4 0.129412 0.596078 0.4 
0.129412 0.596078 0.4 0.129412 0.596078 0.4 
0.129412 0.596078 0.4 0.129412 0.596078 0.4 
0.129412 0.596078 0.4 0.129412 0.596078 0.4 
0.129412 0.596078 0.4 0.129412 0.596078 0.4 
0.129412 0.596078 0.4 0.129412 0.596078 0.4 
0.129412 0.596078 0.4 0.129412 0.596078 0.4 
0.129412 0.596078 0.4 0.129412 0.596078 0.4 
0.129412 0.596078 0.4 0.129412 0.596078 0.4 