# vtk DataFile Version 4.2
vtk output
ASCII
DATASET POLYDATA
POINTS 729 float
159.258 178.883 136.472 159.299 178.924 136.416 159.313 178.939 136.399 
158.981 178.61 136.849 158.71 178.311 137.197 158.849 178.466 137.02 
159.139 178.767 136.635 159.089 178.752 136.725 159.235 178.873 136.513 
159.289 178.92 136.433 158.513 178.068 137.437 158.145 177.608 137.885 
158.163 177.713 137.893 158.676 178.308 137.26 158.998 178.7 136.874 
158.979 178.703 136.914 157.312 176.271 138.845 156.962 175.59 139.258 
157.269 176.288 138.923 157.675 176.915 138.433 157.459 176.659 138.705 
157.68 177.022 138.454 157.829 177.436 138.353 158.78 178.449 137.146 
158.852 178.549 137.067 158.922 178.648 136.992 158.956 178.688 136.951 
156.414 174.436 139.93 156.571 174.778 139.738 156.74 175.131 139.524 
156.846 175.392 139.418 157.447 176.713 138.743 157.608 176.905 138.534 
157.559 176.979 138.643 157.627 177.047 138.551 157.643 177.33 138.631 
158.888 178.599 137.029 157.729 177.483 138.545 157.695 177.505 138.613 
157.719 177.558 138.594 157.712 177.563 138.608 155.903 173.344 140.604 
156.529 174.701 139.809 156.075 173.717 140.409 156.288 174.192 140.128 
156.923 175.589 139.325 157.128 176.077 139.095 157.127 176.075 139.101 
157.31 176.533 138.917 157.403 176.773 138.835 157.51 177.009 138.737 
155.306 172.106 141.367 155.026 171.603 141.693 155.411 172.293 141.253 
155.19 171.874 141.519 155.376 172.218 141.31 155.587 172.67 141.019 
155.586 172.653 141.041 155.632 172.795 140.954 156.041 173.677 140.465 
155.997 173.573 140.531 157.232 176.345 138.992 157.335 176.605 138.895 
157.418 176.811 138.82 154.623 170.923 142.139 154.308 170.397 142.475 
154.866 171.32 141.879 154.487 170.692 142.289 154.793 171.203 141.963 
154.399 170.568 142.385 154.97 171.535 141.751 155.093 171.711 141.637 
155.243 171.961 141.471 155.26 172.075 141.426 155.461 172.468 141.197 
155.744 173.051 140.86 155.817 173.202 140.777 155.903 173.385 140.663 
153.719 169.417 143.065 153.874 169.679 142.916 154.063 169.996 142.731 
154.071 170.013 142.722 154.229 170.284 142.569 154.13 170.14 142.686 
154.963 171.521 141.772 154.144 170.162 142.671 154.083 170.07 142.741 
155.343 172.226 141.346 155.567 172.677 141.082 155.519 172.558 141.147 
155.697 172.94 140.93 151.802 165.316 146.221 151.786 165.278 146.242 
151.806 165.333 146.232 153.592 169.202 143.185 153.624 169.256 143.155 
153.61 169.235 143.171 153.64 169.292 143.145 153.819 169.608 142.986 
153.697 169.393 143.096 153.917 169.786 142.901 153.993 169.918 142.831 
154.05 170.015 142.776 151.757 165.207 146.29 151.693 165.055 146.394 
151.812 165.363 146.26 153.956 169.855 142.868 151.567 164.747 146.578 
151.448 164.453 146.739 151.822 165.405 146.29 151.825 165.41 146.291 
151.835 165.448 146.306 151.302 164.09 146.94 151.283 164.041 146.967 
151.306 164.101 146.934 151.37 164.26 146.848 151.361 164.24 146.859 
151.38 164.295 146.842 151.587 164.809 146.578 151.744 165.216 146.416 
151.838 165.465 146.327 151.279 164.034 146.973 151.338 164.197 146.901 
151.315 164.142 146.934 151.302 164.113 146.951 151.809 165.393 146.373 
151.83 165.451 146.357 151.838 165.469 146.341 149.776 158.827 149.987 
149.756 158.738 150.035 149.776 158.828 149.987 149.759 158.751 150.028 
149.793 158.898 149.949 149.789 158.884 149.957 149.785 158.862 149.968 
149.804 158.947 149.923 149.803 158.942 149.926 149.803 158.941 149.927 
149.808 158.967 149.913 149.725 158.61 150.105 149.703 158.515 150.157 
149.704 158.521 150.154 149.736 158.654 150.08 149.714 158.558 150.133 
149.73 158.626 150.096 149.721 158.593 150.115 149.755 158.737 150.037 
149.764 158.774 150.017 149.784 158.86 149.97 149.793 158.9 149.949 
149.797 158.92 149.939 149.805 158.954 149.92 149.696 158.484 150.173 
149.69 158.457 150.188 149.693 158.472 150.18 149.706 158.522 150.152 
149.695 158.478 150.177 149.707 158.53 150.149 149.695 158.484 150.174 
149.73 158.629 150.095 149.706 158.53 150.15 149.723 158.603 150.11 
149.757 158.747 150.031 149.782 158.852 149.975 149.002 155.511 152.015 
149.002 155.511 152.015 149.002 155.511 152.015 149.002 155.511 152.015 
149.002 155.511 152.015 149.002 155.511 152.015 149.002 155.511 152.015 
149.692 158.47 150.182 149.002 155.511 152.015 149.694 158.476 150.179 
149.701 158.509 150.161 149.705 158.524 150.153 148 154.009 153.017 
148 154.009 153.017 148 154.009 153.017 148 154.009 153.017 
148 154.009 153.017 149.002 155.511 152.015 149.002 155.511 152.015 
148 153.009 154.017 148 153.009 154.017 148 153.009 154.017 
148 153.009 154.017 148 154.009 153.017 148 153.009 154.017 
148.002 151.511 155.015 148.002 151.511 155.015 148.002 151.511 155.015 
148.002 151.511 155.015 148.002 151.511 155.015 148.002 151.511 155.015 
148.002 151.511 155.015 148 153.009 154.017 148.002 151.511 155.015 
148.002 151.511 155.015 148.002 151.511 155.015 147.504 149.004 157.017 
147.504 149.004 157.018 147.504 149.004 157.017 147.504 149.004 157.017 
147.504 149.004 157.017 147.505 149.004 157.018 147.504 149.005 157.017 
147.504 149.005 157.018 147.504 149.004 157.018 147.504 149.004 157.018 
147.504 150.004 299.017 147.504 150.004 299.018 147.504 150.004 299.017 
147.504 150.004 299.017 147.504 150.004 299.017 147.505 150.004 299.018 
147.504 150.005 299.017 147.504 150.005 299.018 147.504 150.004 299.018 
147.504 150.004 299.018 148.004 151.013 300.009 148.004 151.013 300.009 
148.004 151.013 300.009 148.004 151.013 300.009 148.004 151.013 300.009 
148.004 151.013 300.009 148.004 152.013 301.009 148.004 152.013 301.009 
148.004 152.013 301.009 148.004 152.013 301.009 148.004 152.013 301.009 
148.004 152.013 301.009 148.004 153.513 302.011 148.004 153.513 302.011 
148.004 153.513 302.011 148.004 153.513 302.011 148.004 153.513 302.011 
148.004 153.513 302.011 148.004 153.513 302.011 148.004 153.513 302.011 
148.004 153.513 302.011 148.004 153.513 302.011 149.371 156.987 304.319 
149.381 157.025 304.345 149.377 157.007 304.333 149.383 157.029 304.348 
149.387 157.047 304.36 149.41 157.133 304.421 149.403 157.105 304.401 
149.405 157.111 304.405 149.381 157.022 304.344 149.397 157.081 304.385 
149.413 157.143 304.428 149.417 157.154 304.437 149.445 157.262 304.51 
149.471 157.363 304.581 149.459 157.311 304.546 149.49 157.433 304.63 
149.516 157.532 304.7 149.508 157.506 304.68 149.534 157.604 304.75 
149.427 157.194 304.465 149.469 157.351 304.574 149.468 157.351 304.574 
149.498 157.458 304.649 149.536 157.609 304.754 149.546 157.656 304.786 
149.528 157.586 304.737 149.571 157.754 304.854 149.584 157.807 304.891 
149.584 157.811 304.894 149.646 158.062 305.069 149.609 157.912 304.964 
149.633 158.006 305.03 149.656 158.102 305.097 149.52 157.553 304.715 
149.517 157.533 304.702 149.582 157.799 304.886 149.564 157.722 304.834 
149.634 158.013 305.035 149.68 158.203 305.168 149.667 158.147 305.129 
149.683 158.215 305.176 149.696 158.268 305.213 149.681 158.206 305.169 
149.703 158.298 305.233 149.685 158.222 305.181 149.703 158.298 305.234 
149.706 158.311 305.243 149.704 158.303 305.238 149.712 158.338 305.262 
151.361 164.172 308.615 151.362 164.16 308.621 151.371 164.207 308.628 
149.714 158.345 305.267 151.375 164.138 308.651 151.377 164.135 308.657 
151.372 164.156 308.64 151.382 164.245 308.643 151.397 164.288 308.664 
151.699 165.118 309.069 151.728 165.204 309.106 151.747 165.269 309.137 
151.765 165.324 309.169 151.404 164.208 308.699 151.447 164.317 308.768 
151.499 164.543 308.812 151.421 164.35 308.699 151.631 164.92 308.998 
151.636 164.926 308.993 151.774 165.355 309.197 151.55 164.605 308.918 
151.661 164.972 309.069 151.726 165.181 309.159 151.767 165.323 309.213 
151.78 165.37 309.226 153.407 168.879 312.069 153.428 168.925 312.093 
153.422 168.91 312.085 153.419 168.904 312.083 153.489 169.058 312.163 
153.474 169.022 312.144 153.471 169.014 312.141 153.548 169.181 312.227 
153.615 169.325 312.304 153.586 169.253 312.268 153.657 169.403 312.346 
153.421 168.91 312.087 153.44 168.953 312.108 153.464 169.002 312.136 
153.534 169.157 312.218 153.562 169.206 312.247 153.626 169.354 312.322 
153.702 169.489 312.398 153.795 169.668 312.489 153.852 169.783 312.555 
153.815 169.716 312.512 153.749 169.602 312.454 154.002 170.063 312.697 
154.033 170.12 312.732 153.912 169.914 312.618 154.095 170.258 312.803 
154.059 170.18 312.758 154.353 170.706 313.039 153.464 169.007 312.139 
153.548 169.184 312.235 153.693 169.48 312.396 153.668 169.438 312.371 
153.809 169.723 312.523 153.897 169.892 312.61 153.976 170.043 312.696 
154.264 170.549 312.962 154.583 171.115 313.262 154.73 171.373 313.395 
154.836 171.559 313.499 154.443 170.884 313.134 154.86 171.627 313.524 
154.871 171.674 313.553 155.003 171.856 313.654 155.124 172.145 313.793 
155.162 172.233 313.847 155.121 172.081 313.766 155.294 172.404 313.942 
155.283 172.465 313.965 155.429 172.751 314.123 155.457 172.786 314.138 
153.818 169.736 312.534 153.989 170.061 312.71 154.089 170.254 312.812 
154.207 170.466 312.924 154.496 170.978 313.191 155.199 172.21 313.844 
155.328 172.456 313.983 155.432 172.674 314.096 155.455 172.808 314.169 
155.523 172.93 314.222 155.547 172.989 314.264 155.578 173.041 314.29 
154.105 170.281 312.828 155.174 172.225 313.865 155.325 172.455 313.993 
155.446 172.702 314.127 155.448 172.774 314.166 155.519 172.858 314.204 
155.543 172.976 314.273 155.572 172.989 314.273 155.608 173.089 314.326 
155.606 173.102 314.331 155.376 172.573 314.063 155.54 172.951 314.269 
155.558 172.955 314.267 155.594 173.066 314.329 155.608 173.076 314.329 
155.621 173.121 314.354 155.624 173.135 314.355 157.58 176.739 316.835 
157.538 176.701 316.792 157.519 176.709 316.77 157.48 176.697 316.727 
157.447 176.685 316.692 157.431 176.678 316.675 158.085 177.712 317.261 
158.103 177.75 317.275 158.122 177.781 317.294 155.569 172.997 314.296 
155.604 173.072 314.333 157.654 176.848 316.905 157.764 177.034 317.006 
157.65 176.929 316.888 157.488 176.734 316.732 157.896 177.328 317.111 
[...]
POINT_DATA 729
COLOR_SCALARS scalars 3
0.129412 0.596078 0.4 0.129412 0.596078 0.4 0.129412 0.596078 0.4 
0.129412 0.596078 0.4 0.129412 0.596078 0.4 
0.129412 0.596078 0.4 0.129412 0.596078 0.4 
0.129412 0.596078 0.4 0.129412 0.596078 0.4 
0.129412 0.596078 0.4 0.129412 0.596078 0.4 
0.129412 0.596078 0.4 0.129412 0.596078 0.4 
0.129412 0.596078 0.4 0.129412 0.596078 0.4 
0.129412 0.596078 0.4 0.129412 0.596078 0.4 
0.129412 0.596078 0.4 0.129412 0.596078 0.4 
0.129412 0.596078 0.4 0.129412 0.596078 0.4 
0.129412 0.596078 0.4 0.129412 0.596078 0.4 
0.129412 0.596078 0.4 0.129412 0.596078 0.4 
0.129412 0.596078 0.4 0.129412 0.596078 0.4 
0.129412 0.596078 0.4 0.129412 0.596078 0.4 
0.129412 0.596078 0.4 0.129412 0.596078 0.4 
0.129412 0.596078 0.4 0.129412 0.596078 0.4 
0.129412 0.596078 0.4 0.129412 0.596078 0.4 
0.129412 0.596078 0.4 0.129412 0.596078 0.4 
0.129412 0.596078 0.4 0.129412 0.596078 0.4 
0.129412 0.596078 0.4 0.129412 0.596078 0.4 
0.129412 0.596078 0.4 0.129412 0.596078 0.4 
0.129412 0.596078 0.4 0.129412 0.596078 0.4 
0.129412 0.596078 0.4 0.129412 0.596078 0.4 
0.129412 0.596078 0.4 0.129412 0.596078 0.4 
0.129412 0.596078 0.4 0.129412 0.596078 0.4 
0.129412 0.596078 0.4 0.129412 0.596078 0.4 
0.129412 0.596078 0.4 0.129412 0.596078 0.4 
0.129412 0.596078 0.4 0.129412 0.596078 0.4 
0.129412 0.596078 0.4 0.129412 0.596078 0.4 
0.129412 0.596078 0.4 0.129412 0.596078 0.4 
0.129412 0.596078 0.4 0.129412 0.596078 0.4 
0.129412 0.596078 0.4 0.129412 0.596078 0.4 
0.129412 0.596078 0.4 0.129412 0.596078 0.4 
0.129412 0.596078 0.4 0.129412 0.596078 0.4 
0.129412 0.596078 0.4 0.129412 0.596078 0.4 
0.129412 0.596078 0.4 0.129412 0.596078 0.4 
0.129412 0.596078 0.4 0.129412 0.596078 0.4 
0.129412 0.596078 0.4 0.129412 0.596078 0.4 
0.129412 0.596078 0.4 0.129412 0.596078 0.4 
0.129412 0.596078 0.4 0.129412 0.596078 0.4 
0.129412 0.596078 0.4 0.129412 0.596078 0.4 
0.129412 0.596078 0.4 0.129412 0.596078 0.4 
0.129412 0.596078 0.4 0.129412 0.596078 0.4 
0.129412 0.596078 0.4 0.129412 0.596078 0.4 
0.129412 0.596078 0.4 0.129412 0.596078 0.4 
0.129412 0.596078 0.4 0.129412 0.596078 0.4 
0.129412 0.596078 0.4 0.129412 0.596078 0.4 
0.129412 0.596078 0.4 0.129412 0.596078 0.4 
0.129412 0.596078 0.4 0.129412 0.596078 0.4 
0.129412 0.596078 0.4 0.129412 0.596078 0.4 
0.129412 0.596078 0.4 0.129412 0.596078 0.4 
0.129412 0.596078 0.4 0.129412 0.596078 0.4 
0.129412 0.596078 0.4 0.129412 0.596078 0.4 
0.129412 0.596078 0.4 0.129412 0.596078 0.4 
0.129412 0.596078 0.4 0.129412 0.596078 0.4 
0.129412 0.596078 0.4 0.129412 0.596078 0.4 
0.129412 0.596078 0.4 0.129412 0.596078 0.4 
0.129412 0.596078 0.4 0.129412 0.596078 0.4 
0.129412 0.596078 0.4 0.129412 0.596078 0.4 
0.129412 0.596078 0.4 0.129412 0.596078 0.4 
0.129412 0.596078 0.4 0.129412 0.596078 0.4 
0.129412 0.596078 0.4 0.129412 0.596078 0.4 
0.129412 0.596078 0.4 0.129412 0.596078 0.4 
0.129412 0.596078 0.4 0.129412 0.596078 0.4 
0.129412 0.596078 0.4 0.129412 0.596078 0.4 
0.129412 0.596078 0.4 0.129412 0.596078 0.4 
0.129412 0.596078 0.4 0.129412 0.596078 0.4 
0.129412 0.596078 0.4 0.129412 0.596078 0.4 
0.129412 0.596078 0.4 0.129412 0.596078 0.4 
0.129412 0.596078 0.4 0.129412 0.596078 0.4 
0.129412 0.596078 0.4 0.129412 0.596078 0.4 
0.129412 0.596078 0.4 0.129412 0.596078 0.4 
0.129412 0.596078 0.4 0.129412 0.596078 0.4 
0.129412 0.596078 0.4 0.129412 0.596078 0.4 
0.129412 0.596078 0.4 0.129412 0.596078 0.4 
0.129412 0.596078 0.4 0.129412 0.596078 0.4 
0.129412 0.596078 0.4 0.129412 0.596078 0.4 
0.129412 0.596078 0.4 0.129412 0.596078 0.4 
0.129412 0.596078 0.4 0.129412 0.596078 0.4 
0.129412 0.596078 0.4 0.129412 0.596078 0.4 
0.129412 0.596078 0.4 0.129412 0.596078 0.4 
0.129412 0.596078 0.4 0.129412 0.596078 0.4 
0.129412 0.596078 0.4 0.129412 0.596078 0.4 
0.129412 0.596078 0.4 0.129412 0.596078 0.4 
0.129412 0.596078 0.4 0.129412 0.596078 0.4 
0.129412 0.596078 0.4 0.129412 0.596078 0.4 
0.129412 0.596078 0.4 0.129412 0.596078 0.4 
0.129412 0.596078 0.4 0.129412 0.596078 0.4 
0.129412 0.596078 0.4 0.129412 0.596078 0.4 
0.129412 0.596078 0.4 0.129412 0.596078 0.4 
0.129412 0.596078 0.4 0.129412 0.596078 0.4 
0.129412 0.596078 0.4 0.129412 0.596078 0.4 
0.129412 0.596078 0.4 0.129412 0.596078 0.4 
0.129412 0.596078 0.4 0.129412 0.596078 0.4 
0.129412 0.596078 0.4 0.129412 0.596078 0.4 
0.129412 0.596078 0.4 0.129412 0.596078 0.4 
0.129412 0.596078 0.4 0.129412 0.596078 0.4 
0.129412 0.596078 0.4 0.129412 0.596078 0.4 
0.129412 0.596078 0.4 0.129412 0.596078 0.4 
0.129412 0.596078 0.4 0.129412 0.596078 0.4 
0.129412 0.596078 0.4 0.129412 0.596078 0.4 
0.129412 0.596078 0.4 0.129412 0.596078 0.4 
0.129412 0.596078 0.4 0.129412 0.596078 0.4 
0.129412 0.596078 0.4 0.129412 0.596078 0.4 
0.129412 0.596078 0.4 0.129412 0.596078 0.4 
0.129412 0.596078 0.4 0.129412 0.596078 0.4 
0.129412 0.596078 0.4 0.129412 0.596078 0.4 
0.129412 0.596078 0.4 0.129412 0.596078 0.4 
0.129412 0.596078 0.4 0.129412 0.596078 0.4 
0.129412 0.596078 0.4 0.129412 0.596078 0.4 
0.129412 0.596078 0.4 0.129412 0.596078 0.4 
0.129412 0.596078 0.4 0.129412 0.596078 0.4 
0.129412 0.596078 0.4 0.129412 0.596078 0.4 
0.129412 0.596078 0.4 0.129412 0.596078 0.4 
0.129412 0.596078 0.4 0.129412 0.596078 0.4 
0.129412 0.596078 0.4 0.129412 0.596078 0.4 
0.129412 0.596078 0.4 0.129412 0.596078 0.4 
0.129412 0.596078 0.4 0.129412 0.596078 0.4 
0.129412 0.596078 0.4 0.129412 0.596078 0.4 
0.129412 0.596078 0.4 0.129412 0.596078 0.4 
0.129412 0.596078 0.4 0.129412 0.596078 0.4 
0.129412 0.596078 0.4 0.129412 0.596078 0.4 
0.129412 0.596078 0.4 0.129412 0.596078 0.4 
0.129412 0.596078 0.4 0.129412 0.596078 0.4 
0.129412 0.596078 0.4 0.129412 0.596078 0.4 
0.129412 0.596078 0.4 0.129412 0.596078 0.4 
0.129412 0.596078 0.4 0.129412 0.596078 0.4 
0.129412 0.596078 0.4 0.129412 0.596078 0.4 
0.129412 0.596078 0.4 0.129412 0.596078 0.4 
0.129412 0.596078 0.4 0.129412 0.596078 0.4 
0.129412 0.596078 0.4 0.129412 0.596078 0.4 
0.129412 0.596078 0.4 0.129412 0.596078 0.4 
0.129412 0.596078 0.4 0.129412 0.596078 0.4 
0.129412 0.596078 0.4 0.129412 0.596078 0.4 
0.129412 0.596078 0.4 0.129412 0.596078 0.4 
0.129412 0.596078 0.4 0.129412 0.596078 0.4 
0.129412 0.596078 0.4 0.129412 0.596078 0.4 
0.129412 0.596078 0.4 0.129412 0.596078 0.4 
0.129412 0.596078 0.4 0.129412 0.596078 0.4 
0.129412 0.596078 0.4 0.129412 0.596078 0.4 
0.129412 0.596078 0.4 0.129412 0.596078 0.4 
0.129412 0.596078 0.4 0.129412 0.596078 0.4 
0.129412 0.596078 0.4 0.129412 0.596078 0.4 
0.129412 0.596078 0.4 0.129412 0.596078 0.4 
0.129412 0.596078 0.4 0.129412 0.596078 0.4 
0.129412 0.596078 0.4 0.129412 0.596078 0.4 
0.129412 0.596078 0.4 0.129412 0.596078 0.4 
0.129412 0.596078 0.4 0.129412 0.596078 0.4 
0.129412 0.596078 0.4 0.129412 0.596078 0.4 
0.129412 0.596078 0.4 0.129412 0.596078 0.4 
0.129412 0.596078 0.4 0.129412 0.596078 0.4 
0.129412 0.596078 0.4 0.129412 0.596078 0.4 
0.129412 0.596078 0.4 0.129412 0.596078 0.4 
0.129412 0.596078 0.4 0.129412 0.596078 0.4 
0.129412 0.596078 0.4 0.129412 0.596078 0.4 
0.129412 0.596078 0.4 0.129412 0.596078 0.4 
0.129412 0.596078 0.4 0.129412 0.596078 0.4 
0.129412 0.596078 0.4 0.129412 0.596078 0.4 
0.129412 0.596078 0.4 0.129412 0.596078 0.4 
0.129412 0.596078 0.4 0.129412 0.596078 0.4 
0.129412 0.596078 0.4 0.129412 0.596078 0.4 
0.129412 0.596078 0.4 0.129412 0.596078 0.4 
0.129412 0.596078 0.4 0.129412 0.596078 0.4 
0.129412 0.596078 0.4 0.129412 0.596078 0.4 
0.129412 0.596078 0.4 0.129412 0.596078 0.4 
0.129412 0.596078 0.4 0.129412 0.596078 0.4 
0.129412 0.596078 0.4 0.129412 0.596078 0.4 
0.129412 0.596078 0.4 0.129412 0.596078 0.4 
0.129412 0.596078 0.4 0.129412 0.596078 0.4 
0.129412 0.596078 0.4 0.129412 0.596078 0.4 
0.129412 0.596078 0.4 0.129412 0.596078 0.4 
0.129412 0.596078 0.4 0.129412 0.596078 0.4 
0.129412 0.596078 0.4 0.129412 0.596078 0.4 
0.129412 0.596078 0.4 0.129412 0.596078 0.4 
0.129412 0.596078 0.4 0.129412 0.596078 0.4 
0.129412 0.596078 0.4 0.129412 0.596078 0.4 
0.129412 0.596078 0.4 0.129412 0.596078 0.4 
0.129412 0.596078 0.4 0.129412 0.596078 0.4 
0.129412 0.596078 0.4 0.129412 0.596078 0.4 
0.129412 0.596078 0.4 0.129412 0.596078 0.4 
0.129412 0.596078 0.4 0.129412 0.596078 0.4 
0.129412 0.596078 0.4 0.129412 0.596078 0.4 
0.129412 0.596078 0.4 0.129412 0.596078 0.4 
0.129412 0.596078 0.4 0.129412 0.596078 0.4 
0.129412 0.596078 0.4 0.129412 0.596078 0.4 
0.129412 0.596078 0.4 0.129412 0.596078 0.4 
0.129412 0.596078 0.4 0.129412 0.596078 0.4 
0.129412 0.596078 0.4 0.129412 0.596078 0.4 
0.129412 0.596078 0.4 0.129412 0.596078 0.4 
0.129412 0.596078 0.4 0.129412 0.596078 0.4 
0.129412 0.596078 0.4 0.129412 0.596078 0.4 
0.129412 0.596078 0.4 0.129412 0.596078 0.4 
0.129412 0.596078 0.4 0.129412 0.596078 0.4 
0.129412 0.596078 0.4 0.129412 0.596078 0.4 
0.129412 0.596078 0.4 0.129412 0.596078 0.4 
0.129412 0.596078 0.4 0.129412 0.596078 0.4 
0.129412 0.596078 0.4 0.129412 0.596078 0.4 
0.129412 0.596078 0.4 0.129412 0.596078 0.4 
0.129412 0.596078 0.4 0.129412 0.596078 0.4 
0.129412 0.596078 0.4 0.129412 0.596078 0.4 
0.129412 0.596078 0.4 0.129412 0.596078 0.4 
0.129412 0.596078 0.4 0.129412 0.596078 0.4 
0.129412 0.596078 0.4 0.129412 0.596078 0.4 
0.129412 0.596078 0.4 0.129412 0.596078 0.4 
0.129412 0.596078 0.4 0.129412 0.596078 0.4 
0.129412 0.596078 0.4 0.129412 0.596078 0.4 
0.129412 0.596078 0.4 0.129412 0.596078 0.4 
0.129412 0.596078 0.4 0.129412 0.596078 0.4 
0.129412 0.596078 0.4 0.129412 0.596078 0.4 
0.129412 0.596078 0.4 0.129412 0.596078 0.4 
0.129412 0.596078 0.4 0.129412 0.596078 0.4 
0.129412 0.596078 0.4 0.129412 0.596078 0.4 
0.129412 0.596078 0.4 0.129412 0.596078 0.4 
0.129412 0.596078 0.4 0.129412 0.596078 0.4 
0.129412 0.596078 0.4 0.129412 0.596078 0.4 
0.129412 0.596078 0.4 0.129412 0.596078 0.4 
0.129412 0.596078 0.4 0.129412 0.596078 0.4 
0.129412 0.596078 0.4 0.129412 0.596078 0.4 
0.129412 0.596078 0.4 0.129412 0.596078 0.4 
0.129412 0.596078 0.4 0.129412 0.596078 0.4 
0.129412 0.596078 0.4 0.129412 0.596078 0.4 
0.129412 0.596078 0.4 0.129412 0.596078 0.4 
0.129412 0.596078 0.4 0.129412 0.596078 0.4 
0.129412 0.596078 0.4 0.129412 0.596078 0.4 
0.129412 0.596078 0.4 0.129412 0.596078 0.4 
0.129412 0.596078 0.4 0.129412 0.596078 0.4 
0.129412 0.596078 0.4 0.129412 0.596078 0.4 
0.129412 0.596078 0.4 0.129412 0.596078 0.4 
0.129412 0.596078 0.4 0.129412 0.596078 0.4 
0.129412 0.596078 0.4 0.129412 0.596078 0.4 
0.129412 0.596078 0.4 0.129412 0.596078 0.4 
0.129412 0.596078 0.4 0.129412 0.596078 0.4 
0.129412 0.596078 0.4 0.129412 0.596078 0.4 
0.129412 0.596078 0.4 0.129412 0.596078 0.4 
0.129412 0.596078 0.4 0.129412 0.596078 0.4 
0.129412 0.596078 0.4 0.129412 0.596078 0.4 
0.129412 0.596078 0.4 0.129412 0.596078 0.4 
0.129412 0.596078 0.4 0.129412 0.596078 0.4 
0.129412 0.596078 0.4 0.129412 0.596078 0.4 
0.129412 0.596078 0.4 0.129412 0.596078 0.4 
0.129412 0.596078 0.4 0.129412 0.596078 0.4 
0.129412 0.596078 0.4 0.129412 0.596078 0.4 
0.129412 0.596078 0.4 0.129412 0.596078 0.4 
0.129412 0.596078 0.4 0.129412 0.596078 0.4 
0.129412 0.596078 0.4 0.129412 0.596078 0.4 
0.129412 0.596078 0.4 0.129412 0.596078 0.4 
0.129412 0.596078 0.4 0.129412 0.596078 0.4 
0.129412 0.596078 0.4 0.129412 0.596078 0.4 
0.129412 0.596078 0.4 0.129412 0.596078 0.4 
0.129412 0.596078 0.4 0.129412 0.596078 0.4 
0.129412 0.596078 0.4 0.129412 0.596078 0.4 
0.129412 0.596078 0.4 0.129412 0.596078 0.4 
0.129412 0.596078 0.4 0.129412 0.596078 0.4 
0.129412 0.596078 0.4 0.129412 0.596078 0.4 
0.129412 0.596078 0.4 0.129412 0.596078 0.4 
0.129412 0.596078 0.4 0.129412 0.596078 0.4 
0.129412 0.596078 0.4 0.129412 0.596078 0.4 
0.129412 0.596078 0.4 0.129412 0.596078 0.4 
0.129412 0.596078 0.4 0.129412 0.596078 0.4 
0.129412 0.596078 0.4 0.129412 0.596078 0.4 
0.129412 0.596078 0.4 0.129412 0.596078 0.4 
0.129412 0.596078 0.4 0.129412 0.596078 0.4 
0.129412 0.596078 0.4 0.129412 0.596078 0.4 
0.129412 0.596078 0.4 0.129412 0.596078 0.4 
0.129412 0.596078 0.4 0.129412 0.596078 0.4 
0.129412 0.596078 0.4 0.129412 0.596078 0.4 
0.129412 0.596078 0.4 0.129412 0.596078 0.4 
0.129412 0.596078 0.4 0.129412 0.596078 0.4 
0.129412 0.596078 0.4 0.129412 0.596078 0.4 
0.129412 0.596078 0.4 0.129412 0.596078 0.4 
0.129412 0.596078 0.4 0.129412 0.596078 0.4 
0.129412 0.596078 0.4 0.129412 0.596078 0.4 
0.129412 0.596078 0.4 0.129412 0.596078 0.4 
0.129412 0.596078 0.4 0.129412 0.596078 0.4 
0.129412 0.596078 0.4 0.129412 0.596078 0.4 
0.129412 0.596078 0.4 0.129412 0.596078 0.4 
0.129412 0.596078 0.4 0.129412 0.596078 0.4 
0.129412 0.596078 0.4 0.129412 0.596078 0.4 
0.129412 0.596078 0.4 0.129412 0.596078 0.4 
0.129412 0.596078 0.4 0.129412 0.596078 0.4 
0.129412 0.596078 0.4 0.129412 0.596078 0.4 
0.129412 0.596078 0.4 0.129412 0.596078 0.4 
0.129412 0.596078 0.4 0.129412 0.596078 0.4 
0.129412 0.596078 0.4 0.129412 0.596078 0.4 
0.129412 0.596078 0.4 0.129412 0.596078 0.4 
0.129412 0.596078 0.4 0.129412 0.596078 0.4 
0.129412 0.596078 0.4 0.129412 0.596078 0.4 
0.129412 0.596078 0.4 0.129412 0.596078 0.4 
0.129412 0.596078 0.4 0.129412 0.596078 0.4 
0.129412 0.596078 0.4 0.129412 0.596078 0.4 
0.129412 0.596078 0.4 0.129412 0.596078 0.4 
0.129412 0.596078 0.4 0.129412 0.596078 0.4 
0.129412 0.596078 0.4 0.129412 0.596078 0.4 
0.129412 0.596078 0.4 0.129412 0.596078 0.4 
0.129412 0.596078 0.4 0.129412 0.596078 0.4 
0.129412 0.596078 0.4 0.129412 0.596078 0.4 
0.129412 0.596078 0.4 0.129412 0.596078 0.4 
0.129412 0.596078 0.4 0.129412 0.596078 0.4 
0.129412 0.596078 0.4 0.129412 0.596078 0.4 
0.129412 0.596078 0.4 0.129412 0.596078 0.4 
0.129412 0.596078 0.4 0.129412 0.596078 0.4 
0.129412 0.596078 0.4 0.129412 0.596078 0.4 
0.129412 0.596078 0.4 0.129412 0.596078 0.4 
0.129412 0.596078 0.4 0.129412 0.596078 0.4 
0.129412 0.596078 0.4 0.129412 0.596078 0.4 
0.129412 0.596078 0.4 0.129412 0.596078 0.4 
0.129412 0.596078 0.4 0.129412 0.596078 0.4 
0.129412 0.596078 0.4 0.129412 0.596078 0.4 
0.129412 0.596078 0.4 0.129412 0.596078 0.4 
0.129412 0.596078 0.4 0.129412 0.596078 0.4 
0.129412 0.596078 0.4 0.129412 0.596078 0.4 
0.129412 0.596078 0.4 0.129412 0.596078 0.4 
0.129412 0.596078 0.4 0.129412 0.596078 0.4 
0.129412 0.596078 0.4 0.129412 0.596078 0.4 
0.129412 0.596078 0.4 0.129412 0.596078 0.4 
0.129412 0.596078 0.4 0.129412 0.596078 0.4 
0.129412 0.596078 0.4 0.129412 0.596078 0.4 
0.129412 0.596078 0.4 0.129412 0.596078 0.4 
0.129412 0.596078 0.4 0.129412 0.596078 0.4 
0.129412 0.596078 0.4 0.129412 0.596078 0.4 
0.129412 0.596078 0.4 0.129412 0.596078 0.4 
0.129412 0.596078 0.4 0.129412 0.596078 0.4 
0.129412 0.596078 0.4 0.129412 0.596078 0.4 
0.129412 0.596078 0.4 0.129412 0.596078 0.4 
0.129412 0.596078 0.4 0.129412 0.596078 0.4 
0.129412 0.596078 0.4 0.129412 0.596078 0.4 
0.129412 0.596078 0.4 0.129412 0.596078 0.4 
0.129412 0.596078 0.4 0.129412 0.596078 0.4 
0.129412 0.596078 0.4 0.129412 0.596078 0.4 
0.129412 0.596078 0.4 0.129412 0.596078 0.4 
0.129412 0.596078 0.4 0.129412 0.596078 0.4 
0.129412 0.596078 0.4 0.129412 0.596078 0.4 
0.129412 0.596078 0.4 0.129412 0.596078 0.4 
0.129412 0.596078 0.4 0.129412 0.596078 0.4 
0.129412 0.596078 0.4 0.129412 0.596078 0.4 
0.129412 0.596078 0.4 0.129412 0.596078 0.4 
0.129412 0.596078 0.4 0.129412 0.596078 0.4 
0.129412 0.596078 0.4 0.129412 0.596078 0.4 
0.129412 0.596078 0.4 0.129412 0.596078 0.4 
0.129412 0.596078 0.4 0.129412 0.596078 0.4 
0.129412 0.596078 0.4 0.129412 0.596078 0.4 
0.129412 0.596078 0.4 0.129412 0.596078 0.4 
0.129412 0.596078 0.4 0.129412 0.596078 0.4 
0.129412 0.596078 0.4 0.129412 0.596078 0.4 
0.129412 0.596078 0.4 0.129412 0.596078 0.4 
0.129412 0.596078 0.4 0.129412 0.596078 0.4 
0.129412 0.596078 0.4 0.129412 0.596078 0.4 
0.129412 0.596078 0.4 0.129412 0.596078 0.4 
0.129412 0.596078 0.4 0.129412 0.596078 0.4 
0.129412 0.596078 0.4 0.129412 0.596078 0.4 
0.129412 0.596078 0.4 0.129412 0.596078 0.4 
0.129412 0.596078 0.4 0.129412 0.596078 0.4 
0.129412 0.596078 0.4 0.129412 0.596078 0.4 
0.129412 0.596078 0.4 0.129412 0.596078 0.4 
0.129412 0.596078 0.4 0.129412 0.596078 0.4 
0.129412 0.596078 0.4 0.129412 0.596078 0.4 
0.129412 0.596078 0.4 0.129412 0.596078 0.4 
0.129412 0.596078 0.4 0.129412 0.596078 0.4 
0.129412 0.596078 0.4 0.129412 0.596078 0.4 
0.129412 0.596078 0.4 0.129412 0.596078 0.4 
0.129412 0.596078 0.4 0.129412 0.596078 0.4 
0.129412 0.596078 0.4 0.129412 0.596078 0.4 
0.129412 0.596078 0.4 0.129412 0.596078 0.4 
0.129412 0.596078 0.4 0.129412 0.596078 0.4 

NORMALS Normals float
-0.859441 0.273854 -0.4317 -0.859446 0.2739 -0.431661 -0.859683 0.272448 -0.432108 
0.860799 -0.353437 0.366206 0.860799 -0.353437 0.366206 0.860799 -0.353437 0.366206 
-0.859042 0.276302 -0.430933 -0.859179 0.280772 -0.427761 -0.859436 0.273809 -0.43174 
-0.859441 0.273854 -0.4317 -0.843948 0.18266 -0.504368 -0.843948 0.18266 -0.504368 
-0.843948 0.18266 -0.504368 -0.857392 0.270376 -0.437922 -0.859034 0.283141 -0.426489 
-0.858838 0.287847 -0.423724 -0.858417 0.144827 -0.492083 -0.874122 0.170876 -0.454656 
-0.874144 0.171025 -0.454557 -0.848229 0.182813 -0.497078 -0.85803 0.149969 -0.491216 
-0.732185 -0.00544878 -0.681084 -0.843019 0.170873 -0.510021 0.781839 -0.0737881 0.619098 
-0.869072 0.352321 -0.347251 -0.867428 0.336442 -0.366573 -0.858625 0.287932 -0.424098 
-0.91686 0.241386 -0.317963 -0.924339 0.28743 -0.250962 0.922413 -0.274799 0.271369 
-0.802007 0.0603159 -0.594262 -0.912048 0.254922 -0.32122 -0.37429 -0.334426 -0.864908 
-0.894989 0.235097 -0.379109 -0.842814 0.182485 -0.506324 0.842763 -0.184948 0.505515 
-0.858503 0.281732 -0.428485 -0.840565 0.184187 -0.509436 -0.850272 0.200219 -0.486775 
-0.849559 0.202395 -0.487119 -0.850558 0.203627 -0.484858 -0.754322 -0.0463909 -0.654864 
0.916923 -0.22951 0.326463 0.918512 -0.226274 0.324246 -0.927148 0.287464 -0.240335 
-0.829836 0.0845184 -0.551569 -0.922735 0.249534 -0.293755 -0.933848 0.253336 -0.252486 
-0.865559 0.17869 -0.467843 -0.752586 0.0631463 -0.65546 0.72955 -0.0516047 0.681978 
-0.202146 -0.445412 -0.872207 -0.178143 -0.463008 -0.868268 0.601552 -0.617296 -0.507031 
0.585275 -0.643755 -0.492983 0.884104 -0.4663 -0.0304088 0.0601026 -0.541713 -0.838412 
0.900632 -0.434379 -0.0133226 -0.911058 0.244355 -0.332061 -0.927415 0.310851 -0.208022 
0.803293 0.0122128 0.595459 -0.939226 0.322975 -0.116367 -0.646319 -0.0197434 -0.762812 
0.8137 -0.115809 0.569632 -0.313543 -0.381045 -0.869768 0.888731 -0.41416 0.196545 
0.692585 -0.634628 -0.34289 0.884823 -0.43999 0.153287 0.757571 -0.0313351 0.652 
-0.887565 0.343125 -0.307398 -0.866434 0.184462 -0.463968 0.855202 -0.192487 0.481225 
0.858042 -0.171819 0.483985 -0.832705 0.531523 0.155195 -0.858214 0.500717 0.112917 
-0.833037 0.514234 0.203994 -0.772558 0.549114 0.318791 -0.911055 0.410776 -0.0352315 
-0.870495 0.287855 -0.399222 -0.799572 0.134119 -0.585403 0.855857 -0.229914 0.463302 
-0.84891 0.217551 -0.481687 0.8407 -0.181408 0.51021 -0.873641 0.471182 -0.121409 
0.573242 0.179663 0.799447 -0.729528 0.64049 0.239918 -0.879649 0.43866 -0.183833 
-0.195112 0.569919 0.7982 -0.584119 0.602741 0.543607 0.783107 -0.0142014 0.621725 
0.371576 0.332926 0.866655 -0.941395 0.31839 -0.11137 -0.941395 0.31839 -0.11137 
-0.941395 0.31839 -0.11137 0.869776 -0.289939 0.399282 0.869776 -0.289939 0.399282 
0.869776 -0.289939 0.399282 -0.869489 0.289029 -0.400565 0.872895 -0.296525 0.387462 
-0.868085 0.276382 -0.412361 0.871868 -0.292549 0.39276 0.877151 -0.304709 0.371158 
-0.883084 0.323757 -0.339623 -0.942152 0.316837 -0.109383 -0.941647 0.313335 -0.122976 
0.943192 -0.314396 0.107443 -0.888745 0.357655 -0.286731 -0.941647 0.313335 -0.122976 
-0.941836 0.313377 -0.121411 0.943441 -0.308674 0.120995 -0.6511 0.461585 -0.602501 
-0.774015 0.405972 -0.485889 -0.904335 0.414993 0.0997965 0.566848 0.208063 0.797116 
0.608667 0.177294 0.773363 -0.719776 0.533878 0.443731 0.719682 0.0887991 0.688602 
-0.937135 0.330602 -0.111712 -0.941647 0.313335 -0.122976 -0.94237 0.31338 -0.117181 