# vtk DataFile Version 4.2
vtk output
ASCII
DATASET POLYDATA
POINTS 401 float
461.492 262.609 168.385 461.174 262.7 168.49 461.822 262.668 168.379 
461.709 262.311 168.389 462.114 262.865 168.466 458.186 262.076 169.128 
459.664 262.016 168.731 461.018 262.027 168.479 460.616 261.522 168.631 
457.978 262.345 169.287 457.679 262.334 169.45 464.036 262.886 168.65 
464.484 262.328 168.633 466.565 262.343 168.76 471.604 262.801 169.115 
472.048 262.599 169.247 472.505 262.789 169.334 458.63 262.903 169.394 
464.692 263.395 168.856 467.764 263.395 168.947 472.137 263.187 169.266 
461.685 263.536 169.094 464.321 263.832 169.157 468.392 263.866 169.219 
457.393 260.588 169.986 458.528 260.33 169.722 459.74 260.607 169.186 
456.691 260.979 170.269 465.379 261.187 168.992 467.89 260.792 169.523 
469.461 261.36 169.384 456.401 261.814 170.447 463.888 261.743 168.677 
465.97 261.769 168.828 468.021 261.814 168.984 472.511 261.938 169.718 
474.94 262.481 170.26 474.026 262.973 169.937 475.058 262.667 170.222 
475.344 262.793 170.32 473.944 263.361 170.138 475.149 262.965 170.287 
460.651 263.728 169.741 462.915 264.277 169.955 468.52 264.208 169.523 
469.125 264.106 169.467 473.219 263.574 169.991 456.921 260.376 170.788 
458.633 259.756 170.49 461.284 259.416 170.28 462.719 259.725 169.809 
466.333 260.212 169.767 465.871 259.767 170.161 469.208 260.499 170.093 
470.315 260.641 170.359 471.422 261.325 169.867 471.799 261.149 170.334 
473.738 261.914 170.196 474.158 261.984 170.32 456.053 261.784 170.913 
475.815 262.513 170.619 476.073 262.635 170.672 456.604 262.19 170.384 
456.382 262.134 170.755 475.806 262.753 170.54 457.264 262.846 170.559 
474.793 263.248 170.42 475.208 263.082 170.423 458.837 263.51 170.579 
459.659 263.707 170.471 462.143 264.286 170.591 471.234 264.065 169.899 
472.782 263.802 170.128 474.283 263.428 170.585 463.707 264.523 170.625 
467.161 264.536 170.398 469.025 264.428 170.192 473.004 263.836 170.436 
461.499 259.047 171.254 457.948 259.807 171.297 467.352 259.713 170.727 
467.892 259.693 171.167 469.689 260.163 171.124 456.397 260.6 171.394 
455.813 261.327 171.135 455.679 261.427 171.293 472.437 261.233 170.814 
474.532 261.952 170.84 455.723 261.587 171.312 475.199 262.196 170.835 
476.341 262.753 170.826 476.295 262.561 170.862 476.831 262.721 171.006 
476.901 262.674 171.028 455.864 261.736 171.206 475.738 262.966 170.653 
476.173 262.917 170.919 477.022 262.691 171.088 476.974 262.74 171.092 
477.098 262.716 171.126 475.974 262.992 171.029 476.354 262.852 171.117 
477.021 262.728 171.145 457.917 263.251 171.187 459.361 263.659 171.074 
461.314 264.091 170.88 472.21 264.004 170.856 473.462 263.701 170.612 
475.531 263.078 171.07 462.658 264.408 170.984 467.763 264.523 170.893 
469.533 264.417 170.662 459.811 259.206 171.688 459.335 259.321 171.453 
460.399 259.129 171.71 462.058 259.041 171.718 463.86 259.055 171.697 
465.424 259.144 171.653 465.909 259.284 171.902 457.226 260.076 171.831 
469.643 260.149 171.467 456.128 260.852 171.583 455.683 261.349 171.433 
455.871 261.182 171.526 472.349 261.273 171.431 473.375 261.577 171.057 
455.743 261.391 171.556 455.688 261.497 171.449 476.354 262.523 171.111 
456.198 262.005 171.555 476.975 262.662 171.13 477.092 262.699 171.14 
476.999 262.697 171.162 456.435 262.251 171.452 457.774 263.149 171.537 
459.037 263.482 171.689 462.592 264.231 171.703 470.299 264.196 171.373 
460.048 259.311 172.036 462.643 259.169 172.173 457.077 260.192 171.956 
459.439 259.662 172.279 462.331 259.436 172.592 467.826 259.812 172.061 
468.439 260.147 172.369 456.268 260.772 171.83 457.55 260.271 172.313 
469.963 260.539 172.081 470.446 260.893 172.267 456.395 260.862 172.004 
456.134 261.035 171.815 472.7 261.673 171.835 455.775 261.507 171.572 
456.011 261.424 171.754 472.739 261.934 172.051 473.372 262.095 171.825 
457.181 262.396 172.122 475.71 262.622 171.291 476.417 262.619 171.191 
476.829 262.662 171.167 457.927 263.077 171.874 459.437 263.24 172.447 
471.977 263.255 172.096 472.191 262.969 172.199 475.071 262.815 171.387 
463.5 263.864 172.507 467.009 263.987 172.435 469.655 263.81 172.173 
469.855 264.115 171.703 471.296 263.498 172.064 467.444 264.225 171.98 
461.06 259.891 172.888 464.87 259.814 172.922 466.873 260.041 172.802 
457.55 260.701 172.524 459.088 260.657 173.001 460.755 260.402 173.152 
465.533 260.271 173.215 467.118 260.444 173.143 467.555 260.743 173.236 
468.704 260.621 172.757 458.142 261.073 172.868 469.596 261.282 172.866 
469.146 261.461 173.129 470.355 261.953 172.789 469.659 262.207 173.02 
458.013 262.281 172.718 469.54 262.683 172.942 471.128 262.428 172.584 
460.057 263.313 172.506 463 263.097 173.168 463.401 263.469 172.949 
467.741 263.408 172.876 468.862 262.905 172.977 470.676 263.207 172.441 
464.067 263.55 172.924 461.443 260.879 173.396 464.343 260.763 173.485 
466.172 260.767 173.413 466.822 261.279 173.488 457.785 261.915 172.745 
460.924 262.038 173.379 465.729 261.878 173.579 468.303 261.845 173.326 
462.488 262.574 173.364 465.236 263.061 173.252 467.237 262.903 173.202 
459.236 261.349 282.024 458.91 261.118 282.182 460.596 261.312 281.811 
461.838 260.805 281.807 464.24 261.308 281.637 465.977 261.451 281.713 
465.58 260.913 281.816 459.055 261.637 282.097 459.2 261.93 282.165 
460.217 261.758 281.894 462.965 261.951 281.663 464.685 261.759 281.616 
467.712 261.837 281.925 461.516 262.345 281.897 463.091 262.489 281.769 
463.516 262.784 281.886 464.646 262.315 281.704 465.008 262.825 281.903 
463.687 259.822 282.326 464.69 259.89 282.347 465.252 259.591 282.761 
466.569 260.168 282.408 458.857 260.693 282.405 458.456 260.346 282.807 
457.153 260.962 283.214 469.917 261.597 282.511 470.247 261.332 282.717 
457.309 261.581 282.983 457.855 261.726 282.727 470.497 262.055 282.591 
471.005 261.879 282.774 457.746 262.135 282.923 457.964 262.435 283.049 
459.125 262.368 282.49 460.151 262.735 282.419 462.029 262.852 282.091 
470.948 262.56 282.735 471.569 262.456 282.902 460.215 263.208 282.811 
460.657 263.494 283.012 464.896 263.335 282.256 470.368 262.967 282.744 
469.22 263.767 283.023 461.452 258.987 283.644 461.109 259.148 283.263 
463.587 259.143 283.111 464.581 259.073 283.424 457.97 260.217 283.301 
457.407 260.24 283.755 458.844 259.939 283.058 459.541 259.513 283.369 
468.938 260.105 283.39 456.637 260.749 283.798 456.349 260.975 283.93 
456.868 260.456 283.995 470.13 260.909 282.987 471.449 260.82 283.853 
456.178 261.333 283.973 471.003 261.465 282.98 474.24 261.875 283.997 
456.187 261.768 284.04 472.801 262.159 283.374 475.405 262.549 283.907 
475.762 262.512 284.015 456.536 261.975 283.788 475.882 262.635 283.981 
476.153 262.752 284.048 459.126 263.409 283.775 472.427 263.155 283.421 
473.201 263.005 283.562 462.309 264.036 283.41 465.958 264.221 283.232 
469.39 264.151 283.432 473.779 263.219 283.894 460.141 259.121 283.976 
459.718 259.273 283.841 461.405 258.949 284.087 465.734 259.243 283.746 
465.293 259.13 283.887 469.311 260.066 283.863 469.878 260.195 284.164 
456.11 261.04 284.305 455.884 261.333 284.258 455.825 261.294 284.435 
455.745 261.465 284.4 474.545 261.927 284.143 474.496 261.885 284.365 
455.886 261.549 284.222 455.773 261.624 284.403 475.065 262.15 284.229 
476.206 262.614 284.082 476.61 262.671 284.148 455.924 261.749 284.318 
456.2 261.998 284.417 476.542 262.716 284.105 476.824 262.73 284.196 
476.877 262.747 284.148 477.112 262.769 284.156 477.088 262.759 284.161 
477.179 262.77 284.158 475.11 263.022 283.98 476.055 262.88 284.162 
476.568 262.783 284.143 476.924 262.777 284.172 477.126 262.774 284.165 
458.333 263.277 284.517 459.94 263.81 284.463 469.737 264.277 283.706 
463.742 264.596 284.499 469.809 264.396 284.128 461.053 259.038 284.392 
461.77 259.004 284.451 465.174 259.181 284.251 456.926 260.354 284.821 
467.679 259.748 284.372 468.636 259.913 284.19 469.178 260.104 284.585 
456.48 260.637 284.81 456.216 260.889 284.701 471.267 260.681 284.541 
455.756 261.41 284.555 455.954 261.243 284.676 473.165 261.401 284.496 
455.751 261.57 284.558 455.888 261.759 284.544 456.16 261.904 284.84 
476.494 262.792 284.261 476.058 262.822 284.426 476.96 262.771 284.189 
477.103 262.764 284.17 475.477 262.966 284.5 464.164 264.638 284.908 
468.619 264.56 284.757 472.733 263.767 284.947 457.152 260.271 285.083 
464.692 259.596 285.306 456.354 260.817 284.967 457.051 260.462 285.226 
469.369 260.397 285.077 456.221 261.096 284.992 473.999 261.794 284.763 
455.894 261.656 284.737 456.141 261.535 285.014 456.36 261.893 285.193 
474.907 262.775 284.889 456.497 262.137 285.128 473.876 263.06 285.237 
457.957 263.086 285.445 460.175 263.82 285.495 471.754 263.95 285.336 
471.865 263.728 285.644 468.248 264.524 285.296 471.094 264.142 285.15 
461.077 259.846 285.703 464.903 260.356 286.131 457.466 261.385 286.07 
460.705 260.842 286.506 464.56 260.807 286.482 457.025 261.743 285.883 
457.297 261.631 286.052 468.262 261.859 286.678 473.91 262.246 285.177 
456.632 262.086 285.381 456.994 261.981 285.82 472.997 262.877 285.803 
474.44 262.606 285.083 458.874 263.147 286.278 472.506 263.219 285.882 
472.674 263.017 285.923 464.2 264.403 285.815 465.559 264.157 286.279 
467.855 264.384 285.795 469.868 263.834 286.133 459.196 261.516 286.596 
457.887 262.066 286.327 458.256 261.949 286.466 459.826 261.928 286.777 
462.801 261.807 286.939 464.789 261.863 286.937 457.797 262.361 286.168 
458.985 262.607 286.583 459.666 262.462 286.764 463.396 262.355 287.018 
467.304 262.495 286.935 459.241 263.243 286.386 459.502 263.169 286.547 
469.501 263.264 286.626 469.538 263.544 286.487 472.106 263.011 286.068 
466.023 263.81 286.616 468.914 263.763 286.438 463.974 262.882 286.987 
460.01 263.191 286.608 465.506 263.387 286.858 
POLYGONS 794 3176
3 0 2 3 
3 1 0 3 
3 3 2 4 
3 0 1 2 
3 5 27 10 
3 5 6 27 
3 27 6 8 
3 9 5 10 
3 17 5 9 
3 6 5 17 
3 8 6 1 
3 7 8 1 
3 3 7 1 
3 4 11 32 
3 3 4 32 
3 11 18 12 
3 32 11 12 
3 18 19 13 
3 19 14 34 
3 14 20 15 
3 15 20 16 
3 1 6 17 
3 1 17 2 
3 17 4 2 
3 11 4 22 
[...]
POINT_DATA 401
COLOR_SCALARS scalars 3
1 0.701961 0.85098 1 0.701961 0.85098 1 0.701961 0.85098 
1 0.701961 0.85098 1 0.701961 0.85098 
1 0.701961 0.85098 1 0.701961 0.85098 
1 0.701961 0.85098 1 0.701961 0.85098 
1 0.701961 0.85098 1 0.701961 0.85098 
1 0.701961 0.85098 1 0.701961 0.85098 
1 0.701961 0.85098 1 0.701961 0.85098 
1 0.701961 0.85098 1 0.701961 0.85098 
1 0.701961 0.85098 1 0.701961 0.85098 
1 0.701961 0.85098 1 0.701961 0.85098 
1 0.701961 0.85098 1 0.701961 0.85098 
1 0.701961 0.85098 1 0.701961 0.85098 
1 0.701961 0.85098 1 0.701961 0.85098 
1 0.701961 0.85098 1 0.701961 0.85098 
1 0.701961 0.85098 1 0.701961 0.85098 
1 0.701961 0.85098 1 0.701961 0.85098 
1 0.701961 0.85098 1 0.701961 0.85098 
1 0.701961 0.85098 1 0.701961 0.85098 
1 0.701961 0.85098 1 0.701961 0.85098 
1 0.701961 0.85098 1 0.701961 0.85098 
1 0.701961 0.85098 1 0.701961 0.85098 
1 0.701961 0.85098 1 0.701961 0.85098 
1 0.701961 0.85098 1 0.701961 0.85098 
1 0.701961 0.85098 1 0.701961 0.85098 
1 0.701961 0.85098 1 0.701961 0.85098 
1 0.701961 0.85098 1 0.701961 0.85098 
1 0.701961 0.85098 1 0.701961 0.85098 
1 0.701961 0.85098 1 0.701961 0.85098 
1 0.701961 0.85098 1 0.701961 0.85098 
1 0.701961 0.85098 1 0.701961 0.85098 
1 0.701961 0.85098 1 0.701961 0.85098 
1 0.701961 0.85098 1 0.701961 0.85098 
1 0.701961 0.85098 1 0.701961 0.85098 
1 0.701961 0.85098 1 0.701961 0.85098 
1 0.701961 0.85098 1 0.701961 0.85098 
1 0.701961 0.85098 1 0.701961 0.85098 
1 0.701961 0.85098 1 0.701961 0.85098 
1 0.701961 0.85098 1 0.701961 0.85098 
1 0.701961 0.85098 1 0.701961 0.85098 
1 0.701961 0.85098 1 0.701961 0.85098 
1 0.701961 0.85098 1 0.701961 0.85098 
1 0.701961 0.85098 1 0.701961 0.85098 
1 0.701961 0.85098 1 0.701961 0.85098 
1 0.701961 0.85098 1 0.701961 0.85098 
1 0.701961 0.85098 1 0.701961 0.85098 
1 0.701961 0.85098 1 0.701961 0.85098 
1 0.701961 0.85098 1 0.701961 0.85098 
1 0.701961 0.85098 1 0.701961 0.85098 
1 0.701961 0.85098 1 0.701961 0.85098 
1 0.701961 0.85098 1 0.701961 0.85098 
1 0.701961 0.85098 1 0.701961 0.85098 
1 0.701961 0.85098 1 0.701961 0.85098 
1 0.701961 0.85098 1 0.701961 0.85098 
1 0.701961 0.85098 1 0.701961 0.85098 
1 0.701961 0.85098 1 0.701961 0.85098 
1 0.701961 0.85098 1 0.701961 0.85098 
1 0.701961 0.85098 1 0.701961 0.85098 
1 0.701961 0.85098 1 0.701961 0.85098 
1 0.701961 0.85098 1 0.701961 0.85098 
1 0.701961 0.85098 1 0.701961 0.85098 
1 0.701961 0.85098 1 0.701961 0.85098 
1 0.701961 0.85098 1 0.701961 0.85098 
1 0.701961 0.85098 1 0.701961 0.85098 
1 0.701961 0.85098 1 0.701961 0.85098 
1 0.701961 0.85098 1 0.701961 0.85098 
1 0.701961 0.85098 1 0.701961 0.85098 
1 0.701961 0.85098 1 0.701961 0.85098 
1 0.701961 0.85098 1 0.701961 0.85098 
1 0.701961 0.85098 1 0.701961 0.85098 
1 0.701961 0.85098 1 0.701961 0.85098 
1 0.701961 0.85098 1 0.701961 0.85098 
1 0.701961 0.85098 1 0.701961 0.85098 
1 0.701961 0.85098 1 0.701961 0.85098 
1 0.701961 0.85098 1 0.701961 0.85098 
1 0.701961 0.85098 1 0.701961 0.85098 
1 0.701961 0.85098 1 0.701961 0.85098 
1 0.701961 0.85098 1 0.701961 0.85098 
1 0.701961 0.85098 1 0.701961 0.85098 
1 0.701961 0.85098 1 0.701961 0.85098 
1 0.701961 0.85098 1 0.701961 0.85098 
1 0.701961 0.85098 1 0.701961 0.85098 
1 0.701961 0.85098 1 0.701961 0.85098 
1 0.701961 0.85098 1 0.701961 0.85098 
1 0.701961 0.85098 1 0.701961 0.85098 
1 0.701961 0.85098 1 0.701961 0.85098 
1 0.701961 0.85098 1 0.701961 0.85098 
1 0.701961 0.85098 1 0.701961 0.85098 
1 0.701961 0.85098 1 0.701961 0.85098 
1 0.701961 0.85098 1 0.701961 0.85098 
1 0.701961 0.85098 1 0.701961 0.85098 
1 0.701961 0.85098 1 0.701961 0.85098 
1 0.701961 0.85098 1 0.701961 0.85098 
1 0.701961 0.85098 1 0.701961 0.85098 
1 0.701961 0.85098 1 0.701961 0.85098 
1 0.701961 0.85098 1 0.701961 0.85098 
1 0.701961 0.85098 1 0.701961 0.85098 
1 0.701961 0.85098 1 0.701961 0.85098 
1 0.701961 0.85098 1 0.701961 0.85098 
1 0.701961 0.85098 1 0.701961 0.85098 
1 0.701961 0.85098 1 0.701961 0.85098 
1 0.701961 0.85098 1 0.701961 0.85098 
1 0.701961 0.85098 1 0.701961 0.85098 
1 0.701961 0.85098 1 0.701961 0.85098 
1 0.701961 0.85098 1 0.701961 0.85098 
1 0.701961 0.85098 1 0.701961 0.85098 
1 0.701961 0.85098 1 0.701961 0.85098 
1 0.701961 0.85098 1 0.701961 0.85098 
1 0.701961 0.85098 1 0.701961 0.85098 
1 0.701961 0.85098 1 0.701961 0.85098 
1 0.701961 0.85098 1 0.701961 0.85098 
1 0.701961 0.85098 1 0.701961 0.85098 
1 0.701961 0.85098 1 0.701961 0.85098 
1 0.701961 0.85098 1 0.701961 0.85098 
1 0.701961 0.85098 1 0.701961 0.85098 
1 0.701961 0.85098 1 0.701961 0.85098 
1 0.701961 0.85098 1 0.701961 0.85098 
1 0.701961 0.85098 1 0.701961 0.85098 
1 0.701961 0.85098 1 0.701961 0.85098 
1 0.701961 0.85098 1 0.701961 0.85098 
1 0.701961 0.85098 1 0.701961 0.85098 
1 0.701961 0.85098 1 0.701961 0.85098 
1 0.701961 0.85098 1 0.701961 0.85098 
1 0.701961 0.85098 1 0.701961 0.85098 
1 0.701961 0.85098 1 0.701961 0.85098 
1 0.701961 0.85098 1 0.701961 0.85098 
1 0.701961 0.85098 1 0.701961 0.85098 
1 0.701961 0.85098 1 0.701961 0.85098 
1 0.701961 0.85098 1 0.701961 0.85098 
1 0.701961 0.85098 1 0.701961 0.85098 
1 0.701961 0.85098 1 0.701961 0.85098 
1 0.701961 0.85098 1 0.701961 0.85098 
1 0.701961 0.85098 1 0.701961 0.85098 
1 0.701961 0.85098 1 0.701961 0.85098 
1 0.701961 0.85098 1 0.701961 0.85098 
1 0.701961 0.85098 1 0.701961 0.85098 
1 0.701961 0.85098 1 0.701961 0.85098 
1 0.701961 0.85098 1 0.701961 0.85098 
1 0.701961 0.85098 1 0.701961 0.85098 
1 0.701961 0.85098 1 0.701961 0.85098 
1 0.701961 0.85098 1 0.701961 0.85098 
1 0.701961 0.85098 1 0.701961 0.85098 
1 0.701961 0.85098 1 0.701961 0.85098 
1 0.701961 0.85098 1 0.701961 0.85098 
1 0.701961 0.85098 1 0.701961 0.85098 
1 0.701961 0.85098 1 0.701961 0.85098 
1 0.701961 0.85098 1 0.701961 0.85098 
1 0.701961 0.85098 1 0.701961 0.85098 
1 0.701961 0.85098 1 0.701961 0.85098 
1 0.701961 0.85098 1 0.701961 0.85098 
1 0.701961 0.85098 1 0.701961 0.85098 
1 0.701961 0.85098 1 0.701961 0.85098 
1 0.701961 0.85098 1 0.701961 0.85098 
1 0.701961 0.85098 1 0.701961 0.85098 
1 0.701961 0.85098 1 0.701961 0.85098 
1 0.701961 0.85098 1 0.701961 0.85098 
1 0.701961 0.85098 1 0.701961 0.85098 
1 0.701961 0.85098 1 0.701961 0.85098 
1 0.701961 0.85098 1 0.701961 0.85098 
1 0.701961 0.85098 1 0.701961 0.85098 
1 0.701961 0.85098 1 0.701961 0.85098 
1 0.701961 0.85098 1 0.701961 0.85098 
1 0.701961 0.85098 1 0.701961 0.85098 
1 0.701961 0.85098 1 0.701961 0.85098 
1 0.701961 0.85098 1 0.701961 0.85098 
1 0.701961 0.85098 1 0.701961 0.85098 
1 0.701961 0.85098 1 0.701961 0.85098 
1 0.701961 0.85098 1 0.701961 0.85098 
1 0.701961 0.85098 1 0.701961 0.85098 
1 0.701961 0.85098 1 0.701961 0.85098 
1 0.701961 0.85098 1 0.701961 0.85098 
1 0.701961 0.85098 1 0.701961 0.85098 
1 0.701961 0.85098 1 0.701961 0.85098 
1 0.701961 0.85098 1 0.701961 0.85098 
1 0.701961 0.85098 1 0.701961 0.85098 
1 0.701961 0.85098 1 0.701961 0.85098 
1 0.701961 0.85098 1 0.701961 0.85098 
1 0.701961 0.85098 1 0.701961 0.85098 
1 0.701961 0.85098 1 0.701961 0.85098 
1 0.701961 0.85098 1 0.701961 0.85098 
1 0.701961 0.85098 1 0.701961 0.85098 
1 0.701961 0.85098 1 0.701961 0.85098 
1 0.701961 0.85098 1 0.701961 0.85098 
1 0.701961 0.85098 1 0.701961 0.85098 
1 0.701961 0.85098 1 0.701961 0.85098 
1 0.701961 0.85098 1 0.701961 0.85098 
1 0.701961 0.85098 1 0.701961 0.85098 
1 0.701961 0.85098 1 0.701961 0.85098 
1 0.701961 0.85098 1 0.701961 0.85098 
1 0.701961 0.85098 1 0.701961 0.85098 
1 0.701961 0.85098 1 0.701961 0.85098 
1 0.701961 0.85098 1 0.701961 0.85098 
1 0.701961 0.85098 1 0.701961 0.85098 
1 0.701961 0.85098 1 0.701961 0.85098 
1 0.701961 0.85098 1 0.701961 0.85098 
1 0.701961 0.85098 1 0.701961 0.85098 
1 0.701961 0.85098 1 0.701961 0.85098 
1 0.701961 0.85098 1 0.701961 0.85098 
1 0.701961 0.85098 1 0.701961 0.85098 
1 0.701961 0.85098 1 0.701961 0.85098 
1 0.701961 0.85098 1 0.701961 0.85098 

NORMALS Normals float
-0.180139 0.0906638 -0.979454 -0.251331 0.28221 -0.925846 0.0156384 0.478826 -0.87777 
2.4255e-05 -0.246347 -0.969182 0.0358277 0.339552 -0.939905 -0.365262 0.0722779 -0.928095 
-0.257946 -0.0546643 -0.964612 -0.107106 -0.183035 -0.977255 -0.191477 -0.261658 -0.945976 
-0.386701 0.542243 -0.745945 -0.566787 0.316942 -0.760461 0.0365093 0.220174 -0.974777 
0.0920618 -0.03571 -0.995113 0.0537422 -0.136832 -0.989135 0.120742 -0.205124 -0.97126 
0.198704 -0.259597 -0.945054 0.349138 -0.0624344 -0.934989 -0.261722 0.7174 -0.64563 
0.0388806 0.260624 -0.964657 0.0540563 0.339009 -0.939229 0.21908 0.415357 -0.882883 
-0.148024 0.806919 -0.571814 -0.0162599 0.724905 -0.688657 0.0235999 0.547672 -0.83636 
-0.418283 -0.46388 -0.780932 -0.335673 -0.60212 -0.724414 -0.171085 -0.573229 -0.801336 
-0.53313 -0.36494 -0.763276 0.0558989 -0.47542 -0.877981 0.130561 -0.562709 -0.81628 
0.15921 -0.622764 -0.76604 -0.744518 0.180478 -0.642745 0.0550425 -0.163678 -0.984977 
0.10208 -0.248593 -0.963214 0.0984443 -0.340716 -0.934998 0.242726 -0.689155 -0.682751 
0.318964 -0.413147 -0.852978 0.304972 0.169715 -0.937117 0.282071 -0.22191 -0.933377 
0.401732 -0.123454 -0.907398 0.299767 0.76393 -0.571446 0.339017 0.442658 -0.830133 
-0.144351 0.950624 -0.274732 -0.160711 0.920944 -0.355013 -0.0032095 0.853001 -0.521899 
0.132961 0.680971 -0.720139 0.338464 0.660247 -0.67046 -0.475337 -0.815463 -0.330265 
-0.257523 -0.855203 -0.449788 -0.100825 -0.893347 -0.43791 0.0536335 -0.66023 -0.749146 
0.130812 -0.641599 -0.755803 0.0836927 -0.822445 -0.562655 0.195159 -0.771492 -0.605569 
0.344112 -0.853679 -0.390922 0.214458 -0.757387 -0.616744 0.288816 -0.823761 -0.487856 
0.263557 -0.675445 -0.688703 0.281076 -0.703279 -0.65299 -0.773378 0.452394 -0.444102 
0.36332 -0.671908 -0.645398 0.459698 -0.241622 -0.854574 -0.666757 0.620288 -0.413131 
-0.723634 0.643616 -0.249225 0.449041 0.341671 -0.825605 -0.497027 0.819563 -0.285099 
0.314173 0.856785 -0.408918 0.381634 0.828346 -0.410119 -0.298234 0.95047 -0.0875394 
-0.191048 0.964194 -0.183928 -0.262685 0.962293 -0.070631 0.161965 0.927153 -0.337868 
0.24785 0.881164 -0.402641 0.287197 0.957477 0.0274802 -0.0244345 0.998824 -0.041885 
-0.0215452 0.994368 -0.103766 0.200144 0.916897 -0.345315 0.257203 0.952525 -0.16292 
0.0822548 -0.948208 -0.306814 -0.394582 -0.888493 -0.234275 0.187742 -0.892565 -0.409976 
0.25556 -0.965035 -0.0582777 0.348303 -0.917586 -0.191629 -0.655033 -0.744939 -0.12648 
-0.79 -0.297236 -0.536238 -0.92192 0.0784272 -0.379359 0.351142 -0.921116 -0.168061 
0.260858 -0.95521 -0.13974 -0.808506 0.588481 0.00278639 0.305216 -0.939778 -0.153821 
0.426276 0.32105 -0.845704 0.382001 -0.670959 -0.635523 0.377364 0.384626 -0.842413 
0.387908 -0.432565 -0.813888 -0.748109 0.645084 -0.155561 0.365998 0.790383 -0.491264 
0.279923 0.917682 -0.281962 0.490055 -0.321368 -0.810289 0.300036 0.846568 -0.439661 
0.676958 0.666681 -0.311873 0.250503 0.967711 0.0280011 0.190693 0.865344 0.463482 
0.20163 0.759186 0.618856 -0.289848 0.953393 0.0838416 -0.152432 0.97991 0.128614 
-0.225892 0.970498 -0.0842975 0.213267 0.956145 0.200759 0.339667 0.939984 -0.0325153 
0.236617 0.947739 0.214016 -0.170616 0.984929 0.0283784 -0.022449 0.995529 0.091748 
0.121836 0.990576 0.0625701 -0.246046 -0.940144 0.235779 -0.269873 -0.961904 0.0437017 
-0.116329 -0.993135 0.0122827 0.0309987 -0.966586 0.254461 0.0674469 -0.944877 0.320403 
0.101774 -0.994805 -0.00209784 0.172778 -0.950663 0.257659 -0.432662 -0.892416 0.128051 
0.380862 -0.888554 0.255766 -0.758943 -0.584166 0.287673 -0.848199 -0.521388 0.093339 
-0.691707 -0.407767 0.596043 0.308813 -0.846335 0.433995 0.333856 -0.915053 0.226313 
-0.743123 -0.156151 0.65068 -0.92312 0.255565 0.28729 0.231018 -0.782891 0.577679 
-0.647421 0.693499 0.316078 0.243988 -0.951459 0.187605 0.57816 -0.548868 0.603718 
0.153589 -0.0936773 0.983684 -0.602754 0.796555 0.0467787 -0.477236 0.832173 0.282371 
-0.229771 0.947517 0.222298 -0.0942109 0.93468 0.342779 0.296832 0.931721 0.209253 
-0.189224 -0.780491 0.595842 0.210623 -0.964274 0.160665 -0.447355 -0.68565 0.574245 
-0.230639 -0.722608 0.651646 -0.0246238 -0.728401 0.684709 0.228697 -0.83458 0.501173 
0.261499 -0.841576 0.472618 -0.67874 -0.646703 0.347976 -0.3129 -0.570012 0.759724 
0.323422 -0.763007 0.559659 0.383682 -0.658447 0.647485 -0.5472 -0.269703 0.792359 
-0.754542 -0.299601 0.58387 0.25363 -0.72335 0.642212 -0.670317 0.498041 0.550119 
-0.571243 0.078424 0.817026 0.276365 -0.562611 0.77916 0.37047 -0.422496 0.827193 
-0.525229 0.561271 0.639617 0.214573 -0.100535 0.97152 0.118072 -0.509538 0.852309 
0.131251 -0.665903 0.734402 -0.300686 0.864417 0.402953 -0.173337 0.789747 0.588433 
0.225187 0.67786 0.699854 0.312582 0.128717 0.941129 0.196726 0.383271 0.902442 
0.0128369 0.892486 0.450893 -0.0431705 0.858415 0.511136 0.0881877 0.789812 0.606976 
-0.0225407 0.896635 0.442197 0.225545 0.665755 0.711267 0.110643 0.830115 0.546504 
-0.102265 -0.66306 0.741548 0.13578 -0.805112 0.577372 0.190236 -0.73149 0.654776 
-0.380817 -0.268254 0.884883 -0.174436 -0.431811 0.884936 -0.17609 -0.398136 0.900267 
0.203162 -0.548952 0.810788 0.148173 -0.534214 0.832262 0.230633 -0.512637 0.82705 
0.241919 -0.666856 0.704825 -0.289861 -0.25372 0.922826 0.331874 -0.42482 0.842252 
0.227784 -0.140908 0.963462 0.333523 -0.1261 0.934271 0.276885 0.0397577 0.96008 
-0.295774 0.488091 0.821148 0.139087 0.413525 0.899806 0.267203 0.191687 0.944383 
-0.166394 0.863266 0.476534 -0.0893885 0.543553 0.834601 0.0590275 0.48837 0.870638 
0.15702 0.565818 0.809441 0.210983 0.442702 0.871494 0.240515 0.370412 0.897189 
0.0741805 0.769337 0.634521 -0.0513914 -0.256859 0.965082 -0.0128431 -0.30144 0.953399 
0.156757 -0.526298 0.835726 0.11074 -0.0533515 0.992416 -0.408088 0.142361 0.901775 
-0.160483 0.120784 0.979621 0.0310927 0.00674043 0.999494 0.162812 0.0985419 0.981724 
0.0711975 0.107601 0.991642 0.123613 0.610573 0.782253 0.0711903 0.375088 0.924251 
-0.186463 -0.0712541 -0.979875 -0.414453 -0.198157 -0.888236 -0.0954691 -0.132949 -0.986514 
-0.0589501 -0.179493 -0.981991 -0.0154432 -0.138259 -0.990276 0.14271 -0.115464 -0.983007 
0.110196 -0.401282 -0.909302 -0.383022 0.264475 -0.885069 -0.234001 0.381151 -0.894409 
-0.12081 0.305311 -0.944558 -0.0362781 0.160901 -0.986304 0.068585 0.0391992 -0.996875 
0.192061 -0.119562 -0.974073 -0.135272 0.37092 -0.91876 -0.0492252 0.299073 -0.95296 
0.00244554 0.360371 -0.932806 -0.0494569 0.289678 -0.955846 0.0940377 0.407 -0.908575 
1.47614e-07 -0.683316 -0.730122 0.0741591 -0.633266 -0.770373 0.166276 -0.764217 -0.623157 
0.220919 -0.615646 -0.756423 -0.183538 -0.551018 -0.814059 -0.417907 -0.499094 -0.759117 
-0.568003 -0.393028 -0.723119 0.180283 -0.235083 -0.95511 0.288949 -0.427255 -0.856716 
-0.537518 -0.0154443 -0.843111 -0.416785 0.282435 -0.864014 0.227598 -0.11698 -0.966703 
0.336742 -0.225403 -0.91422 -0.403643 0.441148 -0.801537 -0.371893 0.647451 -0.665209 
-0.307796 0.58439 -0.750833 -0.231763 0.601744 -0.764324 -0.125383 0.564519 -0.815841 
0.280677 0.29 -0.914943 0.372866 -0.0317312 -0.927342 -0.275824 0.783038 -0.55747 
-0.194207 0.754764 -0.62659 -0.0453467 0.689819 -0.72256 0.211636 0.38173 -0.899718 
0.164596 0.591249 -0.789514 -0.00536511 -0.972598 -0.23243 -0.178507 -0.902745 -0.39139 
-0.0114009 -0.951395 -0.307763 0.0803404 -0.944072 -0.319803 -0.371821 -0.833515 -0.408658 
-0.389681 -0.8592 -0.331548 -0.29725 -0.807465 -0.509551 -0.276429 -0.84297 -0.461508 
0.240731 -0.863794 -0.442615 -0.600762 -0.637418 -0.482476 -0.711922 -0.418337 -0.564058 
-0.499735 -0.82233 -0.272102 0.267434 -0.659659 -0.702374 0.346159 -0.816815 -0.461505 
-0.676924 -0.126815 -0.725046 0.367512 -0.462735 -0.806729 0.326774 -0.719291 -0.613057 
-0.64376 0.4374 -0.627896 0.318001 -0.125219 -0.939785 0.21424 -0.313694 -0.925039 
0.272995 -0.649861 -0.709333 -0.613696 0.458988 -0.642423 0.218552 -0.186332 -0.95787 
0.169348 0.25248 -0.952667 -0.358875 0.850895 -0.383648 0.2697 0.406217 -0.873069 
0.283274 0.591351 -0.755023 -0.178275 0.942066 -0.284131 0.0390374 0.855705 -0.51599 
0.0513433 0.880483 -0.471289 0.193881 0.49234 -0.848535 -0.233299 -0.971978 0.028829 
-0.342735 -0.916192 -0.207666 -0.128563 -0.99152 -0.0189524 0.259345 -0.964962 0.039854 
0.167386 -0.983741 0.0650803 0.275736 -0.941312 -0.194683 0.293968 -0.950596 0.0997484 
-0.709823 -0.660814 -0.243877 -0.736637 -0.376737 -0.561636 -0.783508 -0.61468 -0.091013 
-0.94369 -0.126134 -0.305842 0.331527 -0.921338 -0.203041 0.319362 -0.946379 0.0487408 
-0.720369 0.156126 -0.67579 -0.852044 0.44246 -0.279733 0.40916 -0.906728 -0.102134 
0.232614 -0.490702 -0.839704 0.249725 -0.792069 -0.557013 -0.660528 0.635915 -0.399143 
-0.584838 0.801728 -0.123273 0.163599 -0.0732601 -0.983803 0.322454 -0.719247 0.615392 
0.148863 -0.306652 -0.940108 0.0219765 0.346566 -0.937768 0.109779 -0.946075 -0.304778 
0.587962 -0.802671 -0.100096 0.185566 0.750073 -0.634788 0.176711 0.970469 -0.164204 
0.119353 0.771089 -0.625441 0.0281967 0.946738 -0.320767 0.088626 0.924005 0.371968 
-0.387038 0.918506 -0.0809209 -0.280895 0.940312 -0.192122 0.270977 0.830117 -0.487316 
-0.211458 0.966732 -0.143924 0.129868 0.984708 -0.116125 -0.173494 -0.960609 0.217094 
0.0399648 -0.963894 0.263269 0.112648 -0.958494 0.261916 -0.512978 -0.830212 0.218177 
0.1421 -0.957738 0.25009 0.137915 -0.982653 0.123989 0.178369 -0.941895 0.284636 
-0.62725 -0.775461 0.0722401 -0.776373 -0.609015 0.162314 0.321162 -0.902188 0.287942 
-0.876004 -0.282286 0.391065 -0.76371 -0.53809 0.356659 0.313172 -0.905585 0.286075 
-0.935301 0.273886 0.224049 -0.709853 0.696291 0.106242 -0.713488 0.585246 0.385256 
0.166652 0.91094 0.377379 0.313772 0.651371 0.690842 0.130482 0.433166 0.891819 
0.167427 -0.435378 0.884541 0.220296 0.906435 0.360341 -0.0600683 0.997885 0.0248474 
-0.0715203 0.996029 -0.0530224 0.274095 0.958689 0.0760755 -0.337545 -0.926743 0.164959 
0.116509 -0.815434 0.567003 -0.640534 -0.613445 0.461954 -0.508827 -0.545235 0.666193 
0.169221 -0.810768 0.560375 -0.694711 -0.284482 0.660641 0.327214 -0.857971 0.396002 
-0.76442 0.308348 0.566201 -0.697067 -0.0267656 0.716507 -0.736234 0.317728 0.597501 
0.414067 0.110888 0.903467 -0.547949 0.773671 0.318098 0.367336 0.635937 0.678711 
-0.500146 0.808556 0.309987 -0.259434 0.960288 0.10267 0.247057 0.945859 0.210508 
0.225168 0.742625 0.63072 9.02536e-05 0.983888 0.178784 0.199581 0.955748 0.216134 
-0.0977832 -0.745822 0.65893 0.0960174 -0.576425 0.811489 -0.34577 -0.410409 0.843805 
-0.0726528 -0.476184 0.876339 0.016237 -0.507323 0.861603 -0.643327 -0.142139 0.752281 
-0.497724 0.0198084 0.867109 0.184941 -0.411664 0.892373 0.334677 -0.533606 0.776696 
-0.625317 0.280334 0.72828 -0.507548 0.519296 0.687551 0.358457 -0.107836 0.927297 
0.445575 -0.115199 0.887802 -0.372442 0.8037 0.464062 0.34174 0.583922 0.736375 
0.344206 0.241679 0.907256 -0.168169 0.888602 0.426739 -0.0501113 0.818679 0.572061 
-0.12184 0.932739 0.339341 0.244055 0.683467 0.687975 -0.203525 -0.332981 0.920707 
-0.380835 0.106335 0.918508 -0.280532 0.0518795 0.958441 -0.0819872 -0.0632622 0.994624 
-0.135481 -0.189995 0.972392 0.0793893 -0.208015 0.974898 -0.436148 0.408457 0.801834 
-0.292183 0.175647 0.940094 -0.0916808 0.140267 0.98586 -0.204064 0.0347414 0.978341 
0.0828805 -0.0448921 0.995548 -0.291696 0.747363 0.596961 -0.215561 0.45977 0.861479 
0.198072 0.124022 0.97231 0.282277 0.490026 0.824739 0.212102 0.183055 0.95995 
0.041049 0.540469 0.840362 0.119596 0.738929 0.663084 -0.143992 0.257799 0.955409 
-0.0465023 0.489977 0.870494 -0.0281971 0.404617 0.914051 
