# vtk DataFile Version 4.2
vtk output
ASCII
DATASET POLYDATA
POINTS 496 float
246.801 166.258 189.715 246.688 166.402 189.7 246.982 166.123 189.831 
246.926 166.376 189.714 247.181 165.564 190.221 248.597 165.727 190.492 
245.505 166.577 189.902 245.403 167.111 189.834 248.024 166.899 189.926 
244.257 167.467 190.055 248.023 165.103 190.766 244.136 166.033 190.566 
245.128 165.616 190.55 249.221 166.121 190.602 245.91 168.628 190.058 
249.482 164.915 191.501 250.345 167.245 191.214 249.471 168.89 190.827 
241.084 169.394 191.305 250.572 169.143 191.485 245.459 170.954 191.084 
250.312 163.811 192.942 250.829 163.865 193.404 248.108 164.178 191.844 
242.612 165.32 191.994 251.315 166.388 192.266 251.88 168.707 192.539 
238.936 169.781 192.225 250.392 171.448 192.263 250.151 163.626 193.082 
250.691 163.475 193.827 247.039 163.897 192.326 251.478 164.522 193.784 
252.19 165.94 193.605 250.964 163.484 194.145 250.972 163.378 194.338 
250.324 163.053 194.318 253.563 168.778 194.994 253.405 171.663 194.57 
250.269 162.599 194.913 250.25 162.52 195.004 250.137 162.53 194.988 
250.297 162.577 195.035 249.992 162.672 194.747 249.855 162.517 195.199 
250.359 162.805 194.762 250.669 163.149 194.897 243.022 163.321 195.138 
253.17 167.164 195.102 253.262 167.531 194.863 254.335 170.651 195.948 
232.275 173.395 195.989 253.203 173.505 195.305 231.904 175.857 196.509 
232.707 176.369 195.72 233.064 177.101 195.657 234.708 177.9 195.21 
249.325 162.395 195.4 249.258 162.353 195.642 250.183 162.531 195.088 
249.506 162.447 195.635 247.328 162.219 195.863 248.462 162.303 195.938 
249.889 162.62 195.588 250.246 162.696 195.222 250.242 162.989 195.791 
252.337 165.413 195.396 234.212 169.616 195.548 254.733 172.674 196.977 
231.519 175.652 197.122 246.757 162.116 196.747 247.624 162.179 196.71 
248.136 162.362 196.688 250.117 163.316 196.762 231.862 171.631 197.283 
255.1 171.754 197.788 255.046 172.562 197.589 232.023 178.828 197.187 
232.266 181.458 197.878 233.094 182.097 197.526 234.633 182.179 196.96 
245.402 162.139 197.756 247.342 162.124 196.803 244.623 162.231 197.45 
240.589 163.329 197.772 247.897 162.707 197.616 232.362 170.267 197.634 
255.269 171.99 198.643 232.363 183.496 198.792 243.219 162.319 198.609 
243.148 162.295 198.809 245.567 162.385 198.39 250.343 165.039 198.904 
252.862 167.98 199.322 232.284 169.977 198.627 254.366 169.947 198.717 
231.174 173.52 198.721 255.419 173.328 199.696 255.159 174.236 199.016 
251.803 177.601 198.249 245.935 181.135 198.201 231.336 181.459 199.816 
232.294 185 199.865 232.429 185.721 200.127 239.942 185.557 198.842 
232.907 186.645 200.135 233.129 186.948 200.193 236.078 187.438 199.486 
243.224 162.54 199.361 231.918 170.722 199.842 231.047 174.506 199.561 
230.994 175.366 199.666 231.026 179.051 200.131 232.873 186.821 200.42 
232.711 186.797 200.943 237.72 188.462 200.174 234.799 166.239 201.045 
234.906 166.167 201.087 236.232 165.268 200.834 235.233 166.02 201.206 
248.429 165.801 201.187 255.191 172.628 201.07 255.399 173.321 200.978 
255.562 174.617 201.615 231.031 178.363 200.789 231.313 182.806 201.302 
231.387 183.475 201.5 233.949 188.191 201.16 236.049 190.104 202.184 
239.542 164.079 201.264 236.358 165.295 201.846 234.848 166.467 201.435 
254.328 171.163 201.373 254.762 172.129 202.031 231.402 173.644 200.989 
255.636 174.958 202.409 233.086 187.598 202.159 233.483 188.156 202.682 
234.034 188.734 202.386 238.183 190.253 201.85 240.131 164.261 201.78 
236.124 165.505 201.973 236.056 165.759 202.237 233.917 168.959 202.696 
231.435 177.697 202.385 255.986 176.978 203.666 255.372 177.725 202.523 
231.448 183.173 202.559 231.641 184.493 202.568 237.318 191.132 203.891 
237.087 166.671 203.565 239.288 166.265 203.81 245.314 166.947 203.599 
233.539 170.036 202.831 253.32 171.545 203.62 232.648 175.737 204.006 
256.084 176.239 204.38 256.162 176.702 204.281 231.511 178.935 202.833 
232.965 187.389 203.516 235.03 189.714 204.356 241.046 191.136 203.875 
236.355 169.706 204.885 250.589 170.804 204.935 254.655 174.152 205.485 
256.061 176.148 204.977 253.633 182.803 205.181 251.616 183.811 204.181 
232.803 186.715 204.08 233.844 188.213 204.686 244.985 189.422 204.365 
245.408 189.708 205.116 237.724 191.262 205.467 249.547 171.231 205.875 
255.263 181.28 205.905 233.067 182.085 205.6 253.164 184.274 206.116 
233.373 186.517 205.367 237.702 191.168 206.113 241.749 191.519 205.849 
256.314 177.478 206.934 256.439 178.486 207.117 255.568 181.616 206.9 
253.909 184.333 207.203 238.524 191.314 206.919 244.813 171.961 207.58 
255.43 182.538 207.862 250.705 187.509 207.442 241.44 191.571 207.383 
255.457 177.023 208.955 256.332 179.424 208.871 237.22 188.329 209.037 
238.462 190.432 208.516 241.941 191.272 208.794 242.955 191.356 207.953 
244.626 190.938 208.773 255.74 178.045 209.662 256.171 179.074 209.418 
255.154 183.654 210.122 236.818 186.066 209.381 250.673 188.192 209.634 
238.771 189.531 209.781 240.868 190.932 209.4 255.445 178.011 210.189 
256.165 180.491 210.141 241.116 190.246 210.608 242.34 190.742 210.176 
254.588 177.926 211.18 255.78 179.322 210.71 254.942 183.884 211.27 
253.581 185.609 211.208 239.303 188.313 211.153 240.796 189.78 211.036 
252.187 177.806 212.413 253.369 178.46 212.558 255.119 182.541 211.938 
254.974 183.235 211.85 250.937 187.506 212.593 241.455 188.615 212.487 
247.698 189.433 211.821 249.017 178.108 213.189 243.607 180.065 213.526 
254.902 180.741 212.617 254.672 180.397 212.816 254.858 181.405 212.636 
254.006 182.249 213.416 241.784 183.084 213.919 254.049 183.209 213.13 
240.477 185.859 213.094 252.228 185.206 213.662 241.439 187.077 213.578 
251.08 186.655 213.52 248.868 187.947 213.713 247.513 188.665 213.347 
254.191 179.694 212.936 245.733 180.205 214.407 251.249 180.126 214.267 
252.653 181.346 214.143 253.93 181.071 213.436 253.432 181.896 213.782 
242.977 186.677 214.688 242.221 187.238 214.016 247.199 187.856 214.433 
251.504 180.612 214.424 246.665 181.381 215.178 243.297 183.412 214.882 
248.828 184.022 215.563 249.4 185.132 215.233 243.943 186.643 215.178 
248.055 186.488 215.102 243.599 185.07 215.24 245.07 185.202 215.544 
246.868 184.691 215.662 244.358 186.239 215.473 244.449 186.59 215.324 
245.034 186.684 215.32 244.163 186.149 215.476 246.609 183.81 239.414 
247.726 183.044 239.566 244.465 184.622 239.745 244.257 184.999 239.806 
245.582 185.201 239.542 246.774 184.764 239.434 244.808 186.519 239.933 
247.856 186.1 239.871 245.62 182.088 240.092 245.39 182.801 239.867 
249.081 186.236 240.389 247.269 187.427 240.545 253.354 179.702 241.809 
254.499 179.681 242.273 253.103 180.317 241.554 254.332 180.213 242.007 
254.542 179.989 242.187 251.577 183.812 240.929 250.611 185.671 240.906 
242.021 186.74 241.435 251.205 178.389 242.127 251.49 178.115 242.389 
245.143 179.334 241.919 254.929 179.405 242.913 254.686 180.404 242.276 
255.035 180.794 242.645 254.478 181.778 242.183 255.07 182.512 243.067 
240.796 185.953 242.194 250.371 187.124 241.701 241.885 188.4 242.531 
253.005 178.064 242.853 254.342 178.532 243.046 254.636 178.459 243.352 
253.551 185.328 243.1 251.211 187.106 242.42 246.607 189.541 243.111 
247.477 189.417 243.187 247.889 189.568 243.793 254.151 177.246 244.312 
254.937 178.627 243.557 239.358 183.488 243.554 238.771 184.022 244.005 
255.413 182.877 244.347 254.426 184.79 244.418 250.158 188.383 243.472 
239.649 189.343 244.756 248.806 189.314 244.031 256.198 179.041 245.58 
256.303 179.558 245.664 255.14 183.791 245.212 237.833 187.411 245.202 
250.038 188.668 245.059 242.437 190.737 245.294 247.537 189.896 245.093 
256.432 179.608 246.373 251.703 187.496 245.461 249.377 189.122 245.287 
238.698 190.305 246.683 243.277 173.529 246.75 256.349 178.266 246.971 
256.4 180.447 247.096 254.946 183.822 246.808 237.116 189.426 247.24 
238.225 190.204 246.98 241.423 191.463 247.845 242.984 191.335 247.521 
254.282 175.011 247.66 234.711 182.42 247.953 248.592 189.109 247.288 
237.637 171.72 249.016 238.143 172.384 248.539 236.524 173.154 248.946 
235.288 189.35 249.522 236.873 190.497 249.183 240.289 191.553 249.413 
242.498 191.368 248.767 243.834 169.041 249.849 245.531 169.266 249.981 
234.586 175.184 249.595 232.688 183.007 250.27 233.424 186.493 250.027 
234.426 188.42 249.702 234.113 188.206 250.041 243.428 190.956 249.476 
235.981 168.984 251.001 256.032 179.042 250.342 255.425 180.131 250.578 
232.273 181.371 250.828 231.871 182.748 251.612 243.049 190.367 251.219 
237.238 191.097 251.438 237.358 165.711 252.565 236.194 166.585 252.325 
234.056 169.645 252.19 250.996 169.876 251.517 255.007 173.714 250.823 
256.043 177.979 250.99 231.366 183.187 253.207 233.386 188.055 252.309 
243.905 189.264 252.027 236.645 165.148 253.911 236.349 165.384 253.556 
241.797 164.564 253.098 236.053 165.561 253.562 233.682 168.436 253.629 
232.352 171.12 253.535 239.623 190.917 252.149 238.232 191.026 252.208 
231.429 172.908 254.406 254.023 178.571 254.132 231.507 184.065 254.525 
243.917 187.632 253.548 233.415 188.067 254.056 235.816 190.098 253.253 
242.054 162.77 255.844 242.48 162.872 255.321 235.168 166.46 256.002 
231.817 170.976 255.272 255.542 173.495 254.641 230.873 176.919 255.017 
231.095 181.715 255.256 233.513 188.021 254.537 238.022 189.067 254.749 
244.25 162.65 255.79 239.831 163.492 256.485 245.975 163.045 255.769 
237.912 164.416 256.019 254.401 170.092 255.678 255.076 171.416 255.84 
255.255 172.013 255.217 255.052 175.598 255.771 233.038 187.296 254.952 
233.863 188.199 254.714 244.96 162.277 256.667 244.938 162.18 256.818 
244.373 162.321 256.743 247.719 163.085 256.734 250.573 165.001 256.517 
255.281 172.31 256.419 231.27 172.988 256.327 255.146 174.584 256.299 
230.939 176.293 256.561 253.958 175.785 257.084 245.974 180.944 257.391 
248.07 180.884 256.443 232.835 185.485 256.061 234.657 186.864 256.156 
244.937 162.191 256.953 246.472 162.17 257.973 243.621 162.422 257.591 
233.215 169.442 257.932 231.759 171.538 256.969 231.192 173.96 257.021 
[...]
POINT_DATA 496
COLOR_SCALARS scalars 3
1 0.564706 0.623529 1 0.564706 0.623529 1 0.564706 0.623529 
1 0.564706 0.623529 1 0.564706 0.623529 
1 0.564706 0.623529 1 0.564706 0.623529 
1 0.564706 0.623529 1 0.564706 0.623529 
1 0.564706 0.623529 1 0.564706 0.623529 
1 0.564706 0.623529 1 0.564706 0.623529 
1 0.564706 0.623529 1 0.564706 0.623529 
1 0.564706 0.623529 1 0.564706 0.623529 
1 0.564706 0.623529 1 0.564706 0.623529 
1 0.564706 0.623529 1 0.564706 0.623529 
1 0.564706 0.623529 1 0.564706 0.623529 
1 0.564706 0.623529 1 0.564706 0.623529 
1 0.564706 0.623529 1 0.564706 0.623529 
1 0.564706 0.623529 1 0.564706 0.623529 
1 0.564706 0.623529 1 0.564706 0.623529 
1 0.564706 0.623529 1 0.564706 0.623529 
1 0.564706 0.623529 1 0.564706 0.623529 
1 0.564706 0.623529 1 0.564706 0.623529 
1 0.564706 0.623529 1 0.564706 0.623529 
1 0.564706 0.623529 1 0.564706 0.623529 
1 0.564706 0.623529 1 0.564706 0.623529 
1 0.564706 0.623529 1 0.564706 0.623529 
1 0.564706 0.623529 1 0.564706 0.623529 
1 0.564706 0.623529 1 0.564706 0.623529 
1 0.564706 0.623529 1 0.564706 0.623529 
1 0.564706 0.623529 1 0.564706 0.623529 
1 0.564706 0.623529 1 0.564706 0.623529 
1 0.564706 0.623529 1 0.564706 0.623529 
1 0.564706 0.623529 1 0.564706 0.623529 
1 0.564706 0.623529 1 0.564706 0.623529 
1 0.564706 0.623529 1 0.564706 0.623529 
1 0.564706 0.623529 1 0.564706 0.623529 
1 0.564706 0.623529 1 0.564706 0.623529 
1 0.564706 0.623529 1 0.564706 0.623529 
1 0.564706 0.623529 1 0.564706 0.623529 
1 0.564706 0.623529 1 0.564706 0.623529 
1 0.564706 0.623529 1 0.564706 0.623529 
1 0.564706 0.623529 1 0.564706 0.623529 
1 0.564706 0.623529 1 0.564706 0.623529 
1 0.564706 0.623529 1 0.564706 0.623529 
1 0.564706 0.623529 1 0.564706 0.623529 
1 0.564706 0.623529 1 0.564706 0.623529 
1 0.564706 0.623529 1 0.564706 0.623529 
1 0.564706 0.623529 1 0.564706 0.623529 
1 0.564706 0.623529 1 0.564706 0.623529 
1 0.564706 0.623529 1 0.564706 0.623529 
1 0.564706 0.623529 1 0.564706 0.623529 
1 0.564706 0.623529 1 0.564706 0.623529 
1 0.564706 0.623529 1 0.564706 0.623529 
1 0.564706 0.623529 1 0.564706 0.623529 
1 0.564706 0.623529 1 0.564706 0.623529 
1 0.564706 0.623529 1 0.564706 0.623529 
1 0.564706 0.623529 1 0.564706 0.623529 
1 0.564706 0.623529 1 0.564706 0.623529 
1 0.564706 0.623529 1 0.564706 0.623529 
1 0.564706 0.623529 1 0.564706 0.623529 
1 0.564706 0.623529 1 0.564706 0.623529 
1 0.564706 0.623529 1 0.564706 0.623529 
1 0.564706 0.623529 1 0.564706 0.623529 
1 0.564706 0.623529 1 0.564706 0.623529 
1 0.564706 0.623529 1 0.564706 0.623529 
1 0.564706 0.623529 1 0.564706 0.623529 
1 0.564706 0.623529 1 0.564706 0.623529 
1 0.564706 0.623529 1 0.564706 0.623529 
1 0.564706 0.623529 1 0.564706 0.623529 
1 0.564706 0.623529 1 0.564706 0.623529 
1 0.564706 0.623529 1 0.564706 0.623529 
1 0.564706 0.623529 1 0.564706 0.623529 
1 0.564706 0.623529 1 0.564706 0.623529 
1 0.564706 0.623529 1 0.564706 0.623529 
1 0.564706 0.623529 1 0.564706 0.623529 
1 0.564706 0.623529 1 0.564706 0.623529 
1 0.564706 0.623529 1 0.564706 0.623529 
1 0.564706 0.623529 1 0.564706 0.623529 
1 0.564706 0.623529 1 0.564706 0.623529 
1 0.564706 0.623529 1 0.564706 0.623529 
1 0.564706 0.623529 1 0.564706 0.623529 
1 0.564706 0.623529 1 0.564706 0.623529 
1 0.564706 0.623529 1 0.564706 0.623529 
1 0.564706 0.623529 1 0.564706 0.623529 
1 0.564706 0.623529 1 0.564706 0.623529 
1 0.564706 0.623529 1 0.564706 0.623529 
1 0.564706 0.623529 1 0.564706 0.623529 
1 0.564706 0.623529 1 0.564706 0.623529 
1 0.564706 0.623529 1 0.564706 0.623529 
1 0.564706 0.623529 1 0.564706 0.623529 
1 0.564706 0.623529 1 0.564706 0.623529 
1 0.564706 0.623529 1 0.564706 0.623529 
1 0.564706 0.623529 1 0.564706 0.623529 
1 0.564706 0.623529 1 0.564706 0.623529 
1 0.564706 0.623529 1 0.564706 0.623529 
1 0.564706 0.623529 1 0.564706 0.623529 
1 0.564706 0.623529 1 0.564706 0.623529 
1 0.564706 0.623529 1 0.564706 0.623529 
1 0.564706 0.623529 1 0.564706 0.623529 
1 0.564706 0.623529 1 0.564706 0.623529 
1 0.564706 0.623529 1 0.564706 0.623529 
1 0.564706 0.623529 1 0.564706 0.623529 
1 0.564706 0.623529 1 0.564706 0.623529 
1 0.564706 0.623529 1 0.564706 0.623529 
1 0.564706 0.623529 1 0.564706 0.623529 
1 0.564706 0.623529 1 0.564706 0.623529 
1 0.564706 0.623529 1 0.564706 0.623529 
1 0.564706 0.623529 1 0.564706 0.623529 
1 0.564706 0.623529 1 0.564706 0.623529 
1 0.564706 0.623529 1 0.564706 0.623529 
1 0.564706 0.623529 1 0.564706 0.623529 
1 0.564706 0.623529 1 0.564706 0.623529 
1 0.564706 0.623529 1 0.564706 0.623529 
1 0.564706 0.623529 1 0.564706 0.623529 
1 0.564706 0.623529 1 0.564706 0.623529 
1 0.564706 0.623529 1 0.564706 0.623529 
1 0.564706 0.623529 1 0.564706 0.623529 
1 0.564706 0.623529 1 0.564706 0.623529 
1 0.564706 0.623529 1 0.564706 0.623529 
1 0.564706 0.623529 1 0.564706 0.623529 
1 0.564706 0.623529 1 0.564706 0.623529 
1 0.564706 0.623529 1 0.564706 0.623529 
1 0.564706 0.623529 1 0.564706 0.623529 
1 0.564706 0.623529 1 0.564706 0.623529 
1 0.564706 0.623529 1 0.564706 0.623529 
1 0.564706 0.623529 1 0.564706 0.623529 
1 0.564706 0.623529 1 0.564706 0.623529 
1 0.564706 0.623529 1 0.564706 0.623529 
1 0.564706 0.623529 1 0.564706 0.623529 
1 0.564706 0.623529 1 0.564706 0.623529 
1 0.564706 0.623529 1 0.564706 0.623529 
1 0.564706 0.623529 1 0.564706 0.623529 
1 0.564706 0.623529 1 0.564706 0.623529 
1 0.564706 0.623529 1 0.564706 0.623529 
1 0.564706 0.623529 1 0.564706 0.623529 
1 0.564706 0.623529 1 0.564706 0.623529 
1 0.564706 0.623529 1 0.564706 0.623529 
1 0.564706 0.623529 1 0.564706 0.623529 
1 0.564706 0.623529 1 0.564706 0.623529 
1 0.564706 0.623529 1 0.564706 0.623529 
1 0.564706 0.623529 1 0.564706 0.623529 
1 0.564706 0.623529 1 0.564706 0.623529 
1 0.564706 0.623529 1 0.564706 0.623529 
1 0.564706 0.623529 1 0.564706 0.623529 
1 0.564706 0.623529 1 0.564706 0.623529 
1 0.564706 0.623529 1 0.564706 0.623529 
1 0.564706 0.623529 1 0.564706 0.623529 
1 0.564706 0.623529 1 0.564706 0.623529 
1 0.564706 0.623529 1 0.564706 0.623529 
1 0.564706 0.623529 1 0.564706 0.623529 
1 0.564706 0.623529 1 0.564706 0.623529 
1 0.564706 0.623529 1 0.564706 0.623529 
1 0.564706 0.623529 1 0.564706 0.623529 
1 0.564706 0.623529 1 0.564706 0.623529 
1 0.564706 0.623529 1 0.564706 0.623529 
1 0.564706 0.623529 1 0.564706 0.623529 
1 0.564706 0.623529 1 0.564706 0.623529 
1 0.564706 0.623529 1 0.564706 0.623529 
1 0.564706 0.623529 1 0.564706 0.623529 
1 0.564706 0.623529 1 0.564706 0.623529 
1 0.564706 0.623529 1 0.564706 0.623529 
1 0.564706 0.623529 1 0.564706 0.623529 
1 0.564706 0.623529 1 0.564706 0.623529 
1 0.564706 0.623529 1 0.564706 0.623529 
1 0.564706 0.623529 1 0.564706 0.623529 
1 0.564706 0.623529 1 0.564706 0.623529 
1 0.564706 0.623529 1 0.564706 0.623529 
1 0.564706 0.623529 1 0.564706 0.623529 
1 0.564706 0.623529 1 0.564706 0.623529 
1 0.564706 0.623529 1 0.564706 0.623529 
1 0.564706 0.623529 1 0.564706 0.623529 
1 0.564706 0.623529 1 0.564706 0.623529 
1 0.564706 0.623529 1 0.564706 0.623529 
1 0.564706 0.623529 1 0.564706 0.623529 
1 0.564706 0.623529 1 0.564706 0.623529 
1 0.564706 0.623529 1 0.564706 0.623529 
1 0.564706 0.623529 1 0.564706 0.623529 
1 0.564706 0.623529 1 0.564706 0.623529 
1 0.564706 0.623529 1 0.564706 0.623529 
1 0.564706 0.623529 1 0.564706 0.623529 
1 0.564706 0.623529 1 0.564706 0.623529 
1 0.564706 0.623529 1 0.564706 0.623529 
1 0.564706 0.623529 1 0.564706 0.623529 
1 0.564706 0.623529 1 0.564706 0.623529 
1 0.564706 0.623529 1 0.564706 0.623529 
1 0.564706 0.623529 1 0.564706 0.623529 
1 0.564706 0.623529 1 0.564706 0.623529 
1 0.564706 0.623529 1 0.564706 0.623529 
1 0.564706 0.623529 1 0.564706 0.623529 
1 0.564706 0.623529 1 0.564706 0.623529 
1 0.564706 0.623529 1 0.564706 0.623529 
1 0.564706 0.623529 1 0.564706 0.623529 
1 0.564706 0.623529 1 0.564706 0.623529 
1 0.564706 0.623529 1 0.564706 0.623529 
1 0.564706 0.623529 1 0.564706 0.623529 
1 0.564706 0.623529 1 0.564706 0.623529 
1 0.564706 0.623529 1 0.564706 0.623529 
1 0.564706 0.623529 1 0.564706 0.623529 
1 0.564706 0.623529 1 0.564706 0.623529 
1 0.564706 0.623529 1 0.564706 0.623529 
1 0.564706 0.623529 1 0.564706 0.623529 
1 0.564706 0.623529 1 0.564706 0.623529 
1 0.564706 0.623529 1 0.564706 0.623529 
1 0.564706 0.623529 1 0.564706 0.623529 
1 0.564706 0.623529 1 0.564706 0.623529 
1 0.564706 0.623529 1 0.564706 0.623529 
1 0.564706 0.623529 1 0.564706 0.623529 
1 0.564706 0.623529 1 0.564706 0.623529 
1 0.564706 0.623529 1 0.564706 0.623529 
1 0.564706 0.623529 1 0.564706 0.623529 
1 0.564706 0.623529 1 0.564706 0.623529 
1 0.564706 0.623529 1 0.564706 0.623529 
1 0.564706 0.623529 1 0.564706 0.623529 
1 0.564706 0.623529 1 0.564706 0.623529 
1 0.564706 0.623529 1 0.564706 0.623529 
1 0.564706 0.623529 1 0.564706 0.623529 
1 0.564706 0.623529 1 0.564706 0.623529 
1 0.564706 0.623529 1 0.564706 0.623529 
1 0.564706 0.623529 1 0.564706 0.623529 
1 0.564706 0.623529 1 0.564706 0.623529 
1 0.564706 0.623529 1 0.564706 0.623529 
1 0.564706 0.623529 1 0.564706 0.623529 
1 0.564706 0.623529 1 0.564706 0.623529 
1 0.564706 0.623529 1 0.564706 0.623529 
1 0.564706 0.623529 1 0.564706 0.623529 
1 0.564706 0.623529 1 0.564706 0.623529 
1 0.564706 0.623529 1 0.564706 0.623529 
1 0.564706 0.623529 1 0.564706 0.623529 
1 0.564706 0.623529 1 0.564706 0.623529 
1 0.564706 0.623529 1 0.564706 0.623529 
1 0.564706 0.623529 1 0.564706 0.623529 
1 0.564706 0.623529 1 0.564706 0.623529 
1 0.564706 0.623529 1 0.564706 0.623529 
1 0.564706 0.623529 1 0.564706 0.623529 
1 0.564706 0.623529 1 0.564706 0.623529 
1 0.564706 0.623529 1 0.564706 0.623529 
1 0.564706 0.623529 1 0.564706 0.623529 
1 0.564706 0.623529 1 0.564706 0.623529 
1 0.564706 0.623529 1 0.564706 0.623529 
1 0.564706 0.623529 1 0.564706 0.623529 
1 0.564706 0.623529 1 0.564706 0.623529 
1 0.564706 0.623529 1 0.564706 0.623529 
1 0.564706 0.623529 1 0.564706 0.623529 
1 0.564706 0.623529 1 0.564706 0.623529 
1 0.564706 0.623529 1 0.564706 0.623529 
1 0.564706 0.623529 1 0.564706 0.623529 
1 0.564706 0.623529 1 0.564706 0.623529 
1 0.564706 0.623529 1 0.564706 0.623529 
1 0.564706 0.623529 1 0.564706 0.623529 
1 0.564706 0.623529 1 0.564706 0.623529 
1 0.564706 0.623529 1 0.564706 0.623529 
1 0.564706 0.623529 
NORMALS Normals float
0.0126064 -0.399057 -0.91684 -0.0800477 -0.0642803 -0.994716 0.483523 -0.332326 -0.809793 
0.367021 -0.138119 -0.919902 0.243545 -0.524589 -0.815777 0.310661 -0.509388 -0.802505 
-0.105735 -0.232752 -0.966771 -0.0815739 -0.0878631 -0.992787 0.291653 -0.0364376 -0.95583 
-0.34871 -0.012244 -0.937151 0.0756868 -0.73918 -0.669241 -0.3594 -0.496323 -0.79025 
-0.212685 -0.646742 -0.732454 0.498987 -0.281204 -0.819717 0.0556522 0.226615 -0.972393 
0.48806 -0.512494 -0.706504 0.58973 -0.090137 -0.802554 0.328196 0.270698 -0.904992 
-0.281081 0.284284 -0.916611 0.599686 0.146677 -0.786678 -0.0360112 0.436903 -0.898787 
0.46255 -0.638316 -0.615304 0.643137 -0.555766 -0.526781 0.15875 -0.759364 -0.631003 
-0.425918 -0.655304 -0.623835 0.690945 -0.200413 -0.694571 0.712497 0.0455436 -0.700196 
-0.472137 -0.0426694 -0.880492 0.332786 0.486155 -0.808027 0.285164 -0.803136 -0.52312 
0.546204 -0.7131 -0.439487 -0.100918 -0.857473 -0.504534 0.790997 -0.502948 -0.348379 
0.814776 -0.342602 -0.467722 0.67198 -0.597887 -0.437007 0.671053 -0.707191 -0.222641 
0.459907 -0.803075 -0.378887 0.923526 -0.220643 -0.313715 0.764064 0.146511 -0.628283 
0.434617 -0.717093 -0.544871 0.38486 -0.915527 -0.117018 -0.0340437 -0.945126 -0.324929 
0.770687 -0.625417 0.122048 0.0688108 -0.861013 -0.503906 0.191692 -0.978955 0.0700156 
0.605364 -0.6553 -0.451793 0.77327 -0.631261 0.0597004 -0.236056 -0.905872 -0.351671 
0.919679 -0.390014 -0.0456095 0.926454 -0.26601 -0.266313 0.888528 0.0270015 -0.458027 
-0.714134 -0.105063 -0.692079 0.655449 0.383538 -0.650604 -0.874335 0.0848487 -0.477847 
-0.556752 0.222947 -0.800201 -0.466855 0.25768 -0.845959 -0.353406 0.265337 -0.897051 
0.0813342 -0.967997 -0.237415 0.23253 -0.960814 0.150885 0.269947 -0.87757 0.396232 
0.366561 -0.868183 0.334501 -0.0777023 -0.95416 -0.289033 0.214132 -0.975689 0.0466731 
0.44952 -0.820981 0.352025 0.578421 -0.67834 0.453083 0.638468 -0.677096 0.365923 
0.8276 -0.550598 0.10918 -0.636895 -0.556836 -0.533196 0.859609 0.170308 -0.481735 
-0.957748 0.0991359 -0.269981 0.0292434 -0.998448 -0.0473946 0.179481 -0.983249 0.0317558 
0.457085 -0.803345 0.381719 0.501817 -0.749014 0.432617 -0.859934 -0.231928 -0.454667 
0.961649 -0.101378 -0.254861 0.938268 0.0887095 -0.334341 -0.739697 0.247831 -0.625642 
-0.69722 0.204266 -0.687138 -0.4539 0.344413 -0.8218 -0.180557 0.377923 -0.90806 
-0.0134024 -0.999861 -0.00987115 0.201536 -0.952258 0.22932 -0.0981794 -0.959731 -0.263207 
-0.453519 -0.861604 -0.227946 0.420731 -0.77851 0.465734 -0.839426 -0.467719 -0.276773 
0.967932 -0.249758 -0.0269928 -0.798055 0.322659 -0.508919 0.0102627 -0.99981 -0.0165934 
-0.104142 -0.9936 0.0437357 0.184441 -0.88526 0.426961 0.601411 -0.636671 0.482654 
0.669532 -0.584586 0.458243 -0.797363 -0.599821 -0.0665407 0.851537 -0.502602 0.149248 
-0.97211 -0.168027 -0.163612 0.999083 -0.0208468 -0.0373939 0.888193 0.306965 -0.341884 
0.424125 0.613312 -0.666308 0.30435 0.497519 -0.812309 -0.970686 0.109893 -0.213756 
-0.875534 0.347876 -0.335295 -0.732792 0.25128 -0.632356 0.143282 0.397125 -0.906511 
0.617218 -0.313519 -0.721628 -0.436788 0.570907 -0.695185 -0.13456 0.448191 -0.883753 
0.152624 -0.860381 0.486261 -0.922699 -0.356923 0.145712 -0.982359 -0.064214 0.175636 
-0.998192 -0.00995128 0.0592784 -0.992951 0.100245 -0.063232 -0.747838 0.594638 -0.2952 
-0.873451 0.4738 -0.112235 0.0292758 0.632626 -0.773904 -0.680395 -0.715099 0.160299 
0.275038 -0.152611 -0.949244 -0.595002 -0.802599 0.0425169 0.275038 -0.152611 -0.949244 
0.375617 -0.661366 0.649236 0.932223 -0.335549 0.135525 0.989213 -0.112879 0.0933559 
0.994795 -0.10186 -0.00268652 -0.990068 -0.0182557 0.1394 -0.989491 0.104708 -0.0997242 
-0.96984 0.206609 -0.12932 -0.643091 0.700256 -0.30996 -0.35641 0.801351 -0.480424 
-0.27462 -0.896111 0.348666 -0.333752 -0.810182 0.481887 -0.685269 -0.552174 0.474879 
0.788406 -0.558479 0.257911 0.874852 -0.410784 0.256694 -0.944302 -0.17243 0.28029 
0.98985 -0.114653 -0.0839766 -0.892505 0.448922 -0.0436404 -0.743358 0.668318 -0.0277342 
-0.687684 0.72536 -0.0307164 0.193798 0.77201 -0.605345 -0.0497005 -0.773966 0.631274 
-0.725028 -0.64137 0.250955 -0.609554 -0.600977 0.516982 -0.740244 -0.427819 0.518661 
-0.95055 -0.0216558 0.309816 0.95348 0.0669416 -0.29393 0.873266 0.310289 -0.37567 
-0.967104 0.0528152 0.248839 -0.948735 0.307431 0.0734064 -0.205872 0.960865 -0.185351 
-0.29418 -0.589625 0.752198 -0.120172 -0.620105 0.77526 0.110835 -0.619678 0.776991 
-0.756699 -0.38085 0.531375 0.592032 -0.633774 0.497824 -0.828307 -0.170339 0.533753 
0.942494 -0.320319 -0.0953957 0.98525 -0.100606 -0.138424 -0.925989 -0.0441443 0.374961 
-0.824674 0.531339 0.193888 -0.622725 0.768883 0.145026 0.321724 0.879516 -0.350635 
-0.443565 -0.377688 0.812775 0.33009 -0.705917 0.626676 0.745591 -0.592061 0.305872 
0.933075 -0.353383 0.0670106 0.601004 0.496549 -0.626286 0.542984 0.534016 -0.648071 
-0.914573 0.25365 0.31499 -0.768927 0.510262 0.385206 0.444991 0.61686 -0.649204 
0.489029 0.740201 -0.461468 -0.146846 0.987371 -0.0594545 0.299211 -0.724199 0.621295 
0.724474 0.435712 -0.534127 -0.74357 -0.0621294 0.665766 0.625754 0.554916 -0.548179 
-0.80466 0.309908 0.506438 -0.419138 0.873789 0.246608 0.126174 0.990056 -0.0622023 
0.943717 -0.274468 0.184571 0.994526 0.0750511 -0.0727026 0.943458 0.284759 -0.169702 
0.721951 0.620857 -0.305489 -0.370232 0.896253 0.244251 -0.0985241 -0.714266 0.692905 
0.819983 0.467321 -0.330512 0.578847 0.693097 -0.429596 0.0107118 0.990636 0.136106 
0.741939 -0.555978 0.374719 0.975531 -0.19084 0.109173 -0.686246 0.49063 0.536981 
-0.349194 0.775103 0.526572 0.0341177 0.960565 0.275954 0.287255 0.957574 0.023145 
0.330488 0.943174 0.0346372 0.789033 -0.564885 0.24152 0.920349 -0.24867 0.301861 
0.924392 0.380567 0.0258301 -0.705579 0.221603 0.67309 0.504312 0.859205 -0.0862387 
-0.398169 0.564395 0.723132 -0.268055 0.85184 0.450017 0.789362 -0.497903 0.359167 
0.979474 0.0542243 0.19414 -0.309454 0.806071 0.504468 -0.00809201 0.860051 0.510143 
0.548651 -0.650932 0.524662 0.843461 -0.296798 0.447756 0.847146 0.466785 0.253879 
0.725592 0.652851 0.217492 -0.481049 0.599881 0.639323 -0.340577 0.712777 0.613152 
0.239429 -0.660296 0.711817 0.319725 -0.563159 0.761989 0.879347 0.178027 0.44165 
0.84428 0.354109 0.402241 0.461117 0.803605 0.376285 -0.380824 0.598202 0.705073 
0.289642 0.910423 0.29536 -0.0416973 -0.582953 0.811435 -0.450635 -0.521235 0.724736 
0.851724 -0.189858 0.488386 0.729873 -0.205148 0.652073 0.735743 0.0524894 0.675224 
0.645505 0.110953 0.755654 -0.699568 -0.282932 0.656166 0.662853 0.326021 0.674045 
-0.7221 0.0126276 0.691674 0.537655 0.354065 0.765222 -0.59289 0.2949 0.749343 
0.471917 0.616923 0.629842 0.368724 0.645002 0.66934 0.178009 0.803441 0.568151 
0.479683 -0.403126 0.779355 -0.204827 -0.53734 0.818114 0.197702 -0.433408 0.879245 
0.373115 -0.0959661 0.922808 0.514446 -0.114808 0.849803 0.410907 0.0185626 0.911488 
-0.415735 0.381713 0.825506 -0.468976 0.370786 0.801611 0.0609518 0.612951 0.787767 
0.103884 -0.271403 0.956843 -0.0593207 -0.279274 0.958377 -0.296725 -0.234617 0.925694 
0.174662 -0.0312318 0.984133 0.324474 0.366787 0.871885 -0.264803 0.597199 0.757121 
0.223857 0.490776 0.842037 -0.485813 0.0178031 0.873882 -0.0323771 0.0192139 0.999291 
0.000156527 0.102216 0.994762 0.048881 0.268137 0.96214 -0.0388562 0.427556 0.903153 
-0.0159672 0.444009 0.89588 -0.25906 0.205137 0.943826 0.0403203 -0.0743106 -0.99642 
0.0909966 -0.214192 -0.972544 -0.389985 -0.0961192 -0.915791 -0.623668 -0.150359 -0.767092 
-0.11266 0.0906029 -0.989494 0.130039 0.094488 -0.986996 -0.172921 0.426714 -0.887701 
0.227093 0.229868 -0.946356 -0.336768 -0.446447 -0.829019 -0.413279 -0.327377 -0.849721 
0.38404 0.371341 -0.845352 0.222442 0.650584 -0.726127 0.231694 -0.4306 -0.872297 
0.659056 -0.346745 -0.667393 0.139068 -0.277771 -0.950528 0.470611 -0.0232545 -0.882034 
0.590715 -0.246523 -0.768298 0.399563 0.189055 -0.896999 0.306768 0.351537 -0.884486 
-0.520264 0.297445 -0.800532 -0.0646496 -0.673677 -0.736193 0.00627737 -0.74249 -0.669827 
-0.0959689 -0.520334 -0.848553 0.785042 -0.337174 -0.519637 0.734118 -0.0168362 -0.678814 
0.862071 0.0311096 -0.505832 0.576807 0.159676 -0.801123 0.820464 0.32304 -0.471682 
-0.589725 0.0810738 -0.803524 0.439051 0.638648 -0.631952 -0.363501 0.609751 -0.704323 
0.181535 -0.686058 -0.704535 0.481455 -0.549461 -0.682857 0.517278 -0.612006 -0.598224 
0.696207 0.491161 -0.523504 0.615388 0.715369 -0.330976 0.0630195 0.833374 -0.549106 
0.214164 0.870611 -0.442911 0.220649 0.932612 -0.285569 0.53643 -0.67783 -0.502782 
0.793585 -0.387733 -0.468921 -0.558678 -0.111503 -0.821855 -0.650775 -0.0674993 -0.756264 
0.951229 0.261594 -0.163498 0.795227 0.596369 -0.109351 0.528459 0.791675 -0.306563 
-0.486622 0.585231 -0.648617 0.396098 0.892215 -0.216928 0.917966 -0.237017 -0.318059 
0.944982 0.00466228 -0.32709 0.880173 0.432375 -0.195825 -0.656793 0.211988 -0.723661 
0.602075 0.798378 -0.00994715 -0.157575 0.929247 -0.334169 0.252085 0.961586 -0.108654 
0.992439 -0.035533 -0.117483 0.644274 0.764169 0.0309283 0.451817 0.889442 0.0689501 
-0.385617 0.827675 -0.407742 -0.00649877 -0.654857 -0.755725 0.921393 -0.337612 -0.192491 
0.976933 0.212787 0.0180038 0.810585 0.536162 0.235546 -0.611362 0.518965 -0.597422 
-0.373803 0.881395 -0.288816 -0.0867488 0.980114 -0.178472 0.191759 0.97893 -0.0701786 
0.281261 -0.776935 -0.563263 -0.703684 -0.0817246 -0.705797 0.518872 0.773833 0.363255 
-0.381411 -0.484763 -0.787102 -0.301519 -0.367997 -0.879582 -0.48323 -0.291987 -0.825368 
-0.651886 0.580212 -0.488261 -0.452186 0.836736 -0.30887 -0.0729901 0.99727 0.0111991 
0.168034 0.972344 0.162209 0.100378 -0.666285 -0.738911 0.116081 -0.67137 -0.731975 