# vtk DataFile Version 4.2
vtk output
ASCII
DATASET POLYDATA
POINTS 603 float
238.458 177.683 184.804 238.959 177.279 184.81 235.378 178.018 185.733 
241.207 179.442 185.17 236.875 180.898 185.516 238.585 180.957 185.262 
243.662 180.39 186.154 241.938 170.268 187.489 244.527 170.346 187.591 
239.016 171.288 187.457 241.256 171.424 186.779 233.885 175.529 187.156 
233.313 180.575 187.351 235.185 183.35 187.158 239.475 185.165 186.962 
242.286 185.017 187.024 244.715 169.375 188.244 244.681 169.258 188.309 
244.508 169.328 188.271 244.77 169.277 188.336 243.306 169.649 188.005 
244.324 169.643 188.03 244.084 169.358 188.4 244.953 169.414 188.402 
241.263 169.667 188.263 240.109 170.09 188.192 232.967 174.678 188.44 
232.084 176.496 188.31 231.967 178.513 188.284 232.324 177.937 187.885 
246.041 178.344 187.274 236.105 185.358 187.884 236.602 185.605 187.835 
243.635 185.798 187.785 242.149 169.114 189.129 244.656 169.288 188.435 
240.529 169.544 189.098 241.917 169.359 188.57 244.512 169.347 188.748 
244.961 169.416 188.646 245.166 169.508 188.564 245.681 169.988 188.757 
238.141 170.571 188.888 246.863 171.358 189.384 236.262 171.658 188.96 
235.291 172.303 189.093 232.239 174.99 189.016 232.186 174.677 189.565 
231.631 175.836 189.318 231.796 179.877 188.826 233.019 184.645 189.598 
236.505 187.164 189.094 238.994 188.784 189.436 240.464 169.519 189.485 
241.902 169.366 189.898 243.871 169.585 189.828 244.292 169.838 190.033 
237.19 170.725 189.759 246.324 170.66 189.469 246.582 170.928 189.335 
247.072 171.666 189.771 235.425 171.729 190.318 248.126 173.293 190 
231.964 174.63 190.295 230.938 176.078 190.508 231.64 183.079 190.664 
247.624 186.972 190.317 240.778 169.604 190.155 237.769 170.523 190.621 
242.951 169.737 190.288 236.528 171.027 190.378 236.266 171.201 190.866 
240.372 170.113 190.95 246.083 170.788 190.095 246.436 170.905 189.85 
235.853 171.514 191.116 235.306 171.808 190.839 248.274 173.151 190.672 
248.148 172.981 191.162 233.003 173.478 190.73 249.049 173.839 191.471 
249.39 174.299 191.482 231.113 175.595 191.141 249.624 175.47 190.792 
230.595 177.016 191.386 230.67 177.818 190.714 230.875 180.806 191.309 
231.265 183.106 191.87 231.584 183.753 191.471 234.599 187.822 191.199 
237.368 170.772 191.03 238.676 170.514 191.237 236.995 171.056 191.322 
239.054 170.921 191.765 242.197 171.638 192.159 232.564 173.886 191.445 
246.782 172.662 192.047 248.341 173.303 191.752 248.901 173.703 191.74 
231.189 175.595 191.761 230.713 179.87 191.675 233.736 187.448 191.748 
243.141 192.437 192.09 237.717 171.371 191.963 235.977 172.05 192.095 
234.261 172.912 192.248 235.113 172.843 192.693 236.111 172.806 192.919 
232.61 174.021 191.998 249.068 174.001 192.358 232.233 174.565 192.319 
247.865 173.829 193.045 250.467 175.051 193.222 230.705 177.255 192.362 
230.911 181.867 193.128 234.41 173.411 192.966 232.78 174.236 192.603 
233.986 174.354 193.533 247.489 174.196 193.596 249.209 174.566 193.622 
249.945 174.797 193.54 231.217 176.089 192.578 240.516 174.471 193.967 
244.955 174.609 194.058 252.248 176.041 194.219 230.789 178.76 193.085 
238.399 192.52 194.12 241.704 194.441 194.56 247.39 176.137 195.554 
231.69 178.08 194.144 232.388 178.079 194.693 233.135 177.246 194.638 
231.428 178.926 194.108 237.966 177.887 195.523 231.13 182.345 194.551 
231.779 185.654 194.925 245.347 194.455 194.926 244.009 195.392 195.998 
251.532 175.759 195.593 252.535 175.956 195.58 252.937 176.129 195.382 
253.402 176.369 195.696 251.553 175.979 196.15 253.918 176.601 196.343 
254.478 176.911 196.66 254.919 178.148 196.467 237.605 178.469 195.753 
231.315 181.918 194.949 231.54 184.516 195.71 233.446 188.48 195.727 
251.79 189.354 195.748 235.776 191.132 195.739 238.249 193.077 195.334 
239.931 194.947 196.741 242.18 195.985 197.348 254.484 176.697 197.057 
254.24 176.652 197.113 254.583 176.798 196.992 252.829 176.24 196.62 
254.814 177.077 197.126 252.054 176.577 197.36 231.991 180.545 195.337 
232.018 181.937 195.971 231.604 182.881 195.821 232.319 182.654 196.516 
235.539 181.422 196.82 231.949 185.244 196.317 231.965 185.618 196.074 
232.896 187.31 196.69 235.395 190.827 196.829 238.462 193.823 196.671 
242.327 196.23 197.881 245.282 195.388 197.018 255.077 177.309 197.487 
251.337 177.101 197.921 247.048 178.974 197.804 256.05 181.555 198.492 
234.202 183.874 197.497 232.95 185.276 197.337 254.758 186.64 197.958 
233.171 187.457 197.16 234.421 189.559 197.405 236.271 191.719 197.834 
242.912 196.317 198.377 242.142 196.4 198.675 254.622 177.12 198.417 
256.174 180.28 199.198 231.964 183.857 196.626 232.015 184.145 196.729 
233.37 187.235 197.495 234.272 187.518 198.129 234.541 189.413 197.834 
253.701 188.83 198.782 235.834 191.078 198.081 237.102 192.469 198.866 
237.775 193.424 198.332 239.043 194.7 199.275 242.727 196.405 199.088 
255.219 177.603 198.838 253.454 177.605 199.491 254.395 177.56 199.413 
253.131 178.133 200.157 252.617 178.364 200.166 255.918 179.016 199.506 
255.805 186.04 200.51 235.911 190.423 198.923 238.147 193.612 199.692 
248.757 193.596 199.605 240.636 195.896 199.827 255.238 177.723 199.147 
254.904 178.01 199.952 253.944 178.171 200.419 253.854 178.601 200.95 
256.367 180.275 200.533 256.301 180.055 200.959 243.772 185.716 201.17 
238.023 193.042 200.546 247.241 194.393 200.922 241.429 196.152 200.568 
254.366 178.95 201.404 256.562 181.273 202.041 251.883 190.855 201.029 
237.999 192.062 200.934 238.103 192.542 201.012 238.113 192.867 200.876 
249.893 192.183 201.788 240.511 195.212 201.889 241.34 195.898 201.348 
241.975 196.104 201.176 255.41 178.854 200.873 256.42 180.991 202.304 
254.164 180.391 203.026 252.717 189.521 202.97 249.459 191.808 202.891 
244.365 195.273 202.331 241.723 195.98 201.431 255.918 180.447 202.599 
254.797 180.693 203.403 256.566 182.995 203.564 255.803 186.268 203.776 
252.414 188.967 204.078 249.936 190.067 204.029 249.509 190.93 203.667 
241.07 194.619 202.969 241.772 195.422 202.433 242.889 195.49 202.526 
243.673 194.938 203.123 256.45 183.291 204.263 256.445 183.9 204.445 
249.314 185.64 204.044 250.678 188.336 204.684 251.642 188.251 204.78 
253.021 188.734 204.048 244.977 189.581 204.299 241.974 191.541 203.965 
243.267 191.068 204.352 246.243 193.124 204.196 243.761 194.141 203.935 
244.708 193.983 203.906 256.065 182.303 204.411 254.714 182.483 205.236 
256.197 184.445 205.145 250.803 186.279 204.997 249.996 187.916 204.676 
251.906 186.898 205.455 254.892 186.869 205.547 245.518 189.901 204.563 
246.775 189.832 204.557 246.731 191.382 204.649 242.023 192.922 204.288 
243.026 192.095 204.51 245.738 192.552 204.671 241.771 193.453 204.094 
242.249 193.465 204.254 244.429 193.025 204.598 245.69 192.997 204.449 
255.511 182.587 205.238 255.046 183.175 205.77 255.911 183.254 205.364 
256.164 184.139 205.338 256.019 184.031 205.562 253.012 184.848 205.969 
246.201 190.454 204.704 244.822 191.939 204.823 242.457 193.051 204.406 
243.982 192.699 204.675 255.373 183.461 205.873 255.722 184.12 205.848 
254.736 183.879 206.171 253.903 184.762 206.361 255.348 185.434 206.066 
254.916 186.322 206.166 254.681 186.369 206.273 254.546 185.672 206.563 
254.395 185.557 206.605 255.429 184.371 248.682 255.253 184.459 248.62 
254.994 184.541 248.598 255.374 184.931 248.718 254.677 185.282 248.586 
254.402 185.401 248.618 254.941 185.301 248.604 255.09 185.661 248.88 
255.328 185.484 248.965 255.657 183.864 249.124 255.037 183.975 248.839 
255.839 184.215 249.281 254.173 185.459 248.736 254.217 184.854 248.753 
254.018 185.843 248.939 254.224 186.034 248.972 255.224 185.751 249.12 
255.532 183.319 249.389 255.477 182.82 249.675 254.958 183.612 249.136 
256.268 183.418 250.266 252.908 185.154 249.616 252.76 186.756 249.95 
254.028 186.961 249.938 254.894 186.673 250.049 247.328 190.569 250.548 
245.763 191.251 250.308 246.823 191.309 250.457 245.553 191.46 250.311 
246.105 191.75 250.363 255.763 182.224 250.278 255.966 181.853 250.812 
256.248 182.295 250.833 253.373 183.948 249.772 256.479 183.396 250.883 
255.857 185.693 250.833 252.498 187.477 250.411 255.107 186.655 250.407 
245.744 190.286 250.532 247.637 191.329 250.814 243.805 191.812 250.821 
247.954 191.672 251.171 241.621 192.656 251.532 241.711 192.988 251.44 
242.657 192.807 251.16 243.687 192.513 250.891 244.481 192.594 250.757 
242.579 193.406 251.271 242.886 193.721 251.348 245.611 193.158 250.959 
255.31 181.114 251.211 255.936 181.182 251.497 254.628 181.38 251.086 
248.569 187.338 251.096 248.561 188.427 250.936 250.361 187.929 250.879 
248.245 189.413 250.881 252.441 188.584 251.415 245.083 189.414 251.136 
248.649 190.7 251.257 243.1 190.497 251.448 241.01 192.722 251.946 
240.98 193.292 251.914 245.886 193.4 251.205 241.474 194.276 251.963 
241.197 194.342 252.135 242.869 194.241 251.721 244.502 194.291 251.787 
255.686 180.776 251.744 253.247 181.266 251.947 256.641 182.161 252.133 
256.712 183.363 252.214 248.731 185.239 251.877 255.797 186.08 252.341 
250.79 189.213 251.477 252.67 188.902 251.94 253.39 188.925 252.756 
249.073 191.46 252.015 241.375 191.379 252.078 240.397 192.637 252.477 
240.336 193.806 252.609 240.822 193.728 252.125 247.232 193.155 251.755 
240.327 194.262 252.787 241.054 195.255 253.24 243.966 195.204 252.935 
242.836 195.48 253.018 254.333 179.622 253.094 255.63 180.06 252.782 
256.394 180.936 252.82 248.091 184.948 252.409 240.245 194.545 253.137 
246.739 194.272 252.94 240.693 195.187 253.43 254.781 179.045 253.829 
255.1 178.718 254.504 256.497 180.906 253.521 256.75 182.719 253.45 
255.133 187.278 254.194 237.649 191.519 254.905 243.13 196.121 254.469 
244.655 195.716 254.406 241.599 196.032 254.555 242.364 196.216 254.76 
255.276 178.343 255.354 255.674 178.78 255.376 256.061 179.768 254.18 
256.313 180.261 254.252 256.639 181.72 254.127 238.508 188.916 254.917 
238.382 189.625 254.74 236.554 190.852 256.08 251.696 191.079 254.985 
237.262 191.956 255.599 237.416 192.52 255.826 237.719 193.095 256.04 
[...]
POINT_DATA 603
COLOR_SCALARS scalars 3
1 0.564706 0.623529 1 0.564706 0.623529 1 0.564706 0.623529 
1 0.564706 0.623529 1 0.564706 0.623529 
1 0.564706 0.623529 1 0.564706 0.623529 
1 0.564706 0.623529 1 0.564706 0.623529 
1 0.564706 0.623529 1 0.564706 0.623529 
1 0.564706 0.623529 1 0.564706 0.623529 
1 0.564706 0.623529 1 0.564706 0.623529 
1 0.564706 0.623529 1 0.564706 0.623529 
1 0.564706 0.623529 1 0.564706 0.623529 
1 0.564706 0.623529 1 0.564706 0.623529 
1 0.564706 0.623529 1 0.564706 0.623529 
1 0.564706 0.623529 1 0.564706 0.623529 
1 0.564706 0.623529 1 0.564706 0.623529 
1 0.564706 0.623529 1 0.564706 0.623529 
1 0.564706 0.623529 1 0.564706 0.623529 
1 0.564706 0.623529 1 0.564706 0.623529 
1 0.564706 0.623529 1 0.564706 0.623529 
1 0.564706 0.623529 1 0.564706 0.623529 
1 0.564706 0.623529 1 0.564706 0.623529 
1 0.564706 0.623529 1 0.564706 0.623529 
1 0.564706 0.623529 1 0.564706 0.623529 
1 0.564706 0.623529 1 0.564706 0.623529 
1 0.564706 0.623529 1 0.564706 0.623529 
1 0.564706 0.623529 1 0.564706 0.623529 
1 0.564706 0.623529 1 0.564706 0.623529 
1 0.564706 0.623529 1 0.564706 0.623529 
1 0.564706 0.623529 1 0.564706 0.623529 
1 0.564706 0.623529 1 0.564706 0.623529 
1 0.564706 0.623529 1 0.564706 0.623529 
1 0.564706 0.623529 1 0.564706 0.623529 
1 0.564706 0.623529 1 0.564706 0.623529 
1 0.564706 0.623529 1 0.564706 0.623529 
1 0.564706 0.623529 1 0.564706 0.623529 
1 0.564706 0.623529 1 0.564706 0.623529 
1 0.564706 0.623529 1 0.564706 0.623529 
1 0.564706 0.623529 1 0.564706 0.623529 
1 0.564706 0.623529 1 0.564706 0.623529 
1 0.564706 0.623529 1 0.564706 0.623529 
1 0.564706 0.623529 1 0.564706 0.623529 
1 0.564706 0.623529 1 0.564706 0.623529 
1 0.564706 0.623529 1 0.564706 0.623529 
1 0.564706 0.623529 1 0.564706 0.623529 
1 0.564706 0.623529 1 0.564706 0.623529 
1 0.564706 0.623529 1 0.564706 0.623529 
1 0.564706 0.623529 1 0.564706 0.623529 
1 0.564706 0.623529 1 0.564706 0.623529 
1 0.564706 0.623529 1 0.564706 0.623529 
1 0.564706 0.623529 1 0.564706 0.623529 
1 0.564706 0.623529 1 0.564706 0.623529 
1 0.564706 0.623529 1 0.564706 0.623529 
1 0.564706 0.623529 1 0.564706 0.623529 
1 0.564706 0.623529 1 0.564706 0.623529 
1 0.564706 0.623529 1 0.564706 0.623529 
1 0.564706 0.623529 1 0.564706 0.623529 
1 0.564706 0.623529 1 0.564706 0.623529 
1 0.564706 0.623529 1 0.564706 0.623529 
1 0.564706 0.623529 1 0.564706 0.623529 
1 0.564706 0.623529 1 0.564706 0.623529 
1 0.564706 0.623529 1 0.564706 0.623529 
1 0.564706 0.623529 1 0.564706 0.623529 
1 0.564706 0.623529 1 0.564706 0.623529 
1 0.564706 0.623529 1 0.564706 0.623529 
1 0.564706 0.623529 1 0.564706 0.623529 
1 0.564706 0.623529 1 0.564706 0.623529 
1 0.564706 0.623529 1 0.564706 0.623529 
1 0.564706 0.623529 1 0.564706 0.623529 
1 0.564706 0.623529 1 0.564706 0.623529 
1 0.564706 0.623529 1 0.564706 0.623529 
1 0.564706 0.623529 1 0.564706 0.623529 
1 0.564706 0.623529 1 0.564706 0.623529 
1 0.564706 0.623529 1 0.564706 0.623529 
1 0.564706 0.623529 1 0.564706 0.623529 
1 0.564706 0.623529 1 0.564706 0.623529 
1 0.564706 0.623529 1 0.564706 0.623529 
1 0.564706 0.623529 1 0.564706 0.623529 
1 0.564706 0.623529 1 0.564706 0.623529 
1 0.564706 0.623529 1 0.564706 0.623529 
1 0.564706 0.623529 1 0.564706 0.623529 
1 0.564706 0.623529 1 0.564706 0.623529 
1 0.564706 0.623529 1 0.564706 0.623529 
1 0.564706 0.623529 1 0.564706 0.623529 
1 0.564706 0.623529 1 0.564706 0.623529 
1 0.564706 0.623529 1 0.564706 0.623529 
1 0.564706 0.623529 1 0.564706 0.623529 
1 0.564706 0.623529 1 0.564706 0.623529 
1 0.564706 0.623529 1 0.564706 0.623529 
1 0.564706 0.623529 1 0.564706 0.623529 
1 0.564706 0.623529 1 0.564706 0.623529 
1 0.564706 0.623529 1 0.564706 0.623529 
1 0.564706 0.623529 1 0.564706 0.623529 
1 0.564706 0.623529 1 0.564706 0.623529 
1 0.564706 0.623529 1 0.564706 0.623529 
1 0.564706 0.623529 1 0.564706 0.623529 
1 0.564706 0.623529 1 0.564706 0.623529 
1 0.564706 0.623529 1 0.564706 0.623529 
1 0.564706 0.623529 1 0.564706 0.623529 
1 0.564706 0.623529 1 0.564706 0.623529 
1 0.564706 0.623529 1 0.564706 0.623529 
1 0.564706 0.623529 1 0.564706 0.623529 
1 0.564706 0.623529 1 0.564706 0.623529 
1 0.564706 0.623529 1 0.564706 0.623529 
1 0.564706 0.623529 1 0.564706 0.623529 
1 0.564706 0.623529 1 0.564706 0.623529 
1 0.564706 0.623529 1 0.564706 0.623529 
1 0.564706 0.623529 1 0.564706 0.623529 
1 0.564706 0.623529 1 0.564706 0.623529 
1 0.564706 0.623529 1 0.564706 0.623529 
1 0.564706 0.623529 1 0.564706 0.623529 
1 0.564706 0.623529 1 0.564706 0.623529 
1 0.564706 0.623529 1 0.564706 0.623529 
1 0.564706 0.623529 1 0.564706 0.623529 
1 0.564706 0.623529 1 0.564706 0.623529 
1 0.564706 0.623529 1 0.564706 0.623529 
1 0.564706 0.623529 1 0.564706 0.623529 
1 0.564706 0.623529 1 0.564706 0.623529 
1 0.564706 0.623529 1 0.564706 0.623529 
1 0.564706 0.623529 1 0.564706 0.623529 
1 0.564706 0.623529 1 0.564706 0.623529 
1 0.564706 0.623529 1 0.564706 0.623529 
1 0.564706 0.623529 1 0.564706 0.623529 
1 0.564706 0.623529 1 0.564706 0.623529 
1 0.564706 0.623529 1 0.564706 0.623529 
1 0.564706 0.623529 1 0.564706 0.623529 
1 0.564706 0.623529 1 0.564706 0.623529 
1 0.564706 0.623529 1 0.564706 0.623529 
1 0.564706 0.623529 1 0.564706 0.623529 
1 0.564706 0.623529 1 0.564706 0.623529 
1 0.564706 0.623529 1 0.564706 0.623529 
1 0.564706 0.623529 1 0.564706 0.623529 
1 0.564706 0.623529 1 0.564706 0.623529 
1 0.564706 0.623529 1 0.564706 0.623529 
1 0.564706 0.623529 1 0.564706 0.623529 
1 0.564706 0.623529 1 0.564706 0.623529 
1 0.564706 0.623529 1 0.564706 0.623529 
1 0.564706 0.623529 1 0.564706 0.623529 
1 0.564706 0.623529 1 0.564706 0.623529 
1 0.564706 0.623529 1 0.564706 0.623529 
1 0.564706 0.623529 1 0.564706 0.623529 
1 0.564706 0.623529 1 0.564706 0.623529 
1 0.564706 0.623529 1 0.564706 0.623529 
1 0.564706 0.623529 1 0.564706 0.623529 
1 0.564706 0.623529 1 0.564706 0.623529 
1 0.564706 0.623529 1 0.564706 0.623529 
1 0.564706 0.623529 1 0.564706 0.623529 
1 0.564706 0.623529 1 0.564706 0.623529 
1 0.564706 0.623529 1 0.564706 0.623529 
1 0.564706 0.623529 1 0.564706 0.623529 
1 0.564706 0.623529 1 0.564706 0.623529 
1 0.564706 0.623529 1 0.564706 0.623529 
1 0.564706 0.623529 1 0.564706 0.623529 
1 0.564706 0.623529 1 0.564706 0.623529 
1 0.564706 0.623529 1 0.564706 0.623529 
1 0.564706 0.623529 1 0.564706 0.623529 
1 0.564706 0.623529 1 0.564706 0.623529 
1 0.564706 0.623529 1 0.564706 0.623529 
1 0.564706 0.623529 1 0.564706 0.623529 
1 0.564706 0.623529 1 0.564706 0.623529 
1 0.564706 0.623529 1 0.564706 0.623529 
1 0.564706 0.623529 1 0.564706 0.623529 
1 0.564706 0.623529 1 0.564706 0.623529 
1 0.564706 0.623529 1 0.564706 0.623529 
1 0.564706 0.623529 1 0.564706 0.623529 
1 0.564706 0.623529 1 0.564706 0.623529 
1 0.564706 0.623529 1 0.564706 0.623529 
1 0.564706 0.623529 1 0.564706 0.623529 
1 0.564706 0.623529 1 0.564706 0.623529 
1 0.564706 0.623529 1 0.564706 0.623529 
1 0.564706 0.623529 1 0.564706 0.623529 
1 0.564706 0.623529 1 0.564706 0.623529 
1 0.564706 0.623529 1 0.564706 0.623529 
1 0.564706 0.623529 1 0.564706 0.623529 
1 0.564706 0.623529 1 0.564706 0.623529 
1 0.564706 0.623529 1 0.564706 0.623529 
1 0.564706 0.623529 1 0.564706 0.623529 
1 0.564706 0.623529 1 0.564706 0.623529 
1 0.564706 0.623529 1 0.564706 0.623529 
1 0.564706 0.623529 1 0.564706 0.623529 
1 0.564706 0.623529 1 0.564706 0.623529 
1 0.564706 0.623529 1 0.564706 0.623529 
1 0.564706 0.623529 1 0.564706 0.623529 
1 0.564706 0.623529 1 0.564706 0.623529 
1 0.564706 0.623529 1 0.564706 0.623529 
1 0.564706 0.623529 1 0.564706 0.623529 
1 0.564706 0.623529 1 0.564706 0.623529 
1 0.564706 0.623529 1 0.564706 0.623529 
1 0.564706 0.623529 1 0.564706 0.623529 
1 0.564706 0.623529 1 0.564706 0.623529 
1 0.564706 0.623529 1 0.564706 0.623529 
1 0.564706 0.623529 1 0.564706 0.623529 
1 0.564706 0.623529 1 0.564706 0.623529 
1 0.564706 0.623529 1 0.564706 0.623529 
1 0.564706 0.623529 1 0.564706 0.623529 
1 0.564706 0.623529 1 0.564706 0.623529 
1 0.564706 0.623529 1 0.564706 0.623529 
1 0.564706 0.623529 1 0.564706 0.623529 
1 0.564706 0.623529 1 0.564706 0.623529 
1 0.564706 0.623529 1 0.564706 0.623529 
1 0.564706 0.623529 1 0.564706 0.623529 
1 0.564706 0.623529 1 0.564706 0.623529 
1 0.564706 0.623529 1 0.564706 0.623529 
1 0.564706 0.623529 1 0.564706 0.623529 
1 0.564706 0.623529 1 0.564706 0.623529 
1 0.564706 0.623529 1 0.564706 0.623529 
1 0.564706 0.623529 1 0.564706 0.623529 
1 0.564706 0.623529 1 0.564706 0.623529 
1 0.564706 0.623529 1 0.564706 0.623529 
1 0.564706 0.623529 1 0.564706 0.623529 
1 0.564706 0.623529 1 0.564706 0.623529 
1 0.564706 0.623529 1 0.564706 0.623529 
1 0.564706 0.623529 1 0.564706 0.623529 
1 0.564706 0.623529 1 0.564706 0.623529 
1 0.564706 0.623529 1 0.564706 0.623529 
1 0.564706 0.623529 1 0.564706 0.623529 
1 0.564706 0.623529 1 0.564706 0.623529 
1 0.564706 0.623529 1 0.564706 0.623529 
1 0.564706 0.623529 1 0.564706 0.623529 
1 0.564706 0.623529 1 0.564706 0.623529 
1 0.564706 0.623529 1 0.564706 0.623529 
1 0.564706 0.623529 1 0.564706 0.623529 
1 0.564706 0.623529 1 0.564706 0.623529 
1 0.564706 0.623529 1 0.564706 0.623529 
1 0.564706 0.623529 1 0.564706 0.623529 
1 0.564706 0.623529 1 0.564706 0.623529 
1 0.564706 0.623529 1 0.564706 0.623529 
1 0.564706 0.623529 1 0.564706 0.623529 
1 0.564706 0.623529 1 0.564706 0.623529 
1 0.564706 0.623529 1 0.564706 0.623529 
1 0.564706 0.623529 1 0.564706 0.623529 
1 0.564706 0.623529 1 0.564706 0.623529 
1 0.564706 0.623529 1 0.564706 0.623529 
1 0.564706 0.623529 1 0.564706 0.623529 
1 0.564706 0.623529 1 0.564706 0.623529 
1 0.564706 0.623529 1 0.564706 0.623529 
1 0.564706 0.623529 1 0.564706 0.623529 
1 0.564706 0.623529 1 0.564706 0.623529 
1 0.564706 0.623529 1 0.564706 0.623529 
1 0.564706 0.623529 1 0.564706 0.623529 
1 0.564706 0.623529 1 0.564706 0.623529 
1 0.564706 0.623529 1 0.564706 0.623529 
1 0.564706 0.623529 1 0.564706 0.623529 
1 0.564706 0.623529 1 0.564706 0.623529 
1 0.564706 0.623529 1 0.564706 0.623529 
1 0.564706 0.623529 1 0.564706 0.623529 
1 0.564706 0.623529 1 0.564706 0.623529 
1 0.564706 0.623529 1 0.564706 0.623529 
1 0.564706 0.623529 1 0.564706 0.623529 
1 0.564706 0.623529 1 0.564706 0.623529 
1 0.564706 0.623529 1 0.564706 0.623529 
1 0.564706 0.623529 1 0.564706 0.623529 
1 0.564706 0.623529 1 0.564706 0.623529 
1 0.564706 0.623529 1 0.564706 0.623529 
1 0.564706 0.623529 1 0.564706 0.623529 
1 0.564706 0.623529 1 0.564706 0.623529 
1 0.564706 0.623529 1 0.564706 0.623529 
1 0.564706 0.623529 1 0.564706 0.623529 
1 0.564706 0.623529 1 0.564706 0.623529 
1 0.564706 0.623529 1 0.564706 0.623529 
1 0.564706 0.623529 1 0.564706 0.623529 
1 0.564706 0.623529 1 0.564706 0.623529 
1 0.564706 0.623529 1 0.564706 0.623529 
1 0.564706 0.623529 1 0.564706 0.623529 
1 0.564706 0.623529 1 0.564706 0.623529 
1 0.564706 0.623529 1 0.564706 0.623529 
1 0.564706 0.623529 1 0.564706 0.623529 
1 0.564706 0.623529 1 0.564706 0.623529 
1 0.564706 0.623529 1 0.564706 0.623529 
1 0.564706 0.623529 1 0.564706 0.623529 
1 0.564706 0.623529 1 0.564706 0.623529 
1 0.564706 0.623529 1 0.564706 0.623529 
1 0.564706 0.623529 1 0.564706 0.623529 
1 0.564706 0.623529 1 0.564706 0.623529 
1 0.564706 0.623529 1 0.564706 0.623529 
1 0.564706 0.623529 1 0.564706 0.623529 
1 0.564706 0.623529 1 0.564706 0.623529 
1 0.564706 0.623529 1 0.564706 0.623529 
1 0.564706 0.623529 1 0.564706 0.623529 
1 0.564706 0.623529 1 0.564706 0.623529 
1 0.564706 0.623529 1 0.564706 0.623529 
1 0.564706 0.623529 1 0.564706 0.623529 
1 0.564706 0.623529 1 0.564706 0.623529 
1 0.564706 0.623529 1 0.564706 0.623529 
1 0.564706 0.623529 1 0.564706 0.623529 
1 0.564706 0.623529 1 0.564706 0.623529 
1 0.564706 0.623529 1 0.564706 0.623529 
1 0.564706 0.623529 1 0.564706 0.623529 
1 0.564706 0.623529 1 0.564706 0.623529 
1 0.564706 0.623529 1 0.564706 0.623529 
1 0.564706 0.623529 1 0.564706 0.623529 
1 0.564706 0.623529 1 0.564706 0.623529 
1 0.564706 0.623529 1 0.564706 0.623529 
1 0.564706 0.623529 1 0.564706 0.623529 
1 0.564706 0.623529 1 0.564706 0.623529 
1 0.564706 0.623529 1 0.564706 0.623529 
1 0.564706 0.623529 1 0.564706 0.623529 
1 0.564706 0.623529 1 0.564706 0.623529 
1 0.564706 0.623529 1 0.564706 0.623529 
1 0.564706 0.623529 1 0.564706 0.623529 
1 0.564706 0.623529 1 0.564706 0.623529 
1 0.564706 0.623529 1 0.564706 0.623529 
1 0.564706 0.623529 1 0.564706 0.623529 
1 0.564706 0.623529 1 0.564706 0.623529 

NORMALS Normals float
-0.118262 -0.00699526 -0.992958 0.00997592 -0.250783 -0.967992 -0.356224 -0.129104 -0.925438 
0.219657 0.0745757 -0.972723 -0.284689 0.286244 -0.914886 -0.0207821 0.242668 -0.969887 
0.404983 0.304599 -0.862095 -0.0840151 -0.667385 -0.739958 0.290208 -0.372738 -0.881388 
-0.376603 -0.557137 -0.740113 -0.0893894 -0.521404 -0.848615 -0.552654 -0.321296 -0.768988 
-0.60525 0.177721 -0.775943 -0.522901 0.402334 -0.751466 -0.0526553 0.436091 -0.898361 
0.148837 0.385768 -0.910511 0.373294 -0.379271 -0.846643 0.0207425 -0.916587 -0.399296 
-0.167492 -0.827082 -0.536546 0.454968 -0.857517 -0.240144 0.00317487 -0.719786 -0.694189 
-0.0237937 -0.639715 -0.768243 -0.0852921 -0.936084 -0.341278 0.61117 -0.738258 -0.285387 
-0.195523 -0.859949 -0.471442 -0.351866 -0.783355 -0.512391 -0.589755 -0.615988 -0.522252 
-0.821956 -0.156366 -0.547665 -0.813094 0.0555249 -0.579479 -0.619824 0.0396615 -0.783738 
0.57812 -0.0147698 -0.815818 -0.3622 0.496451 -0.78889 -0.26641 0.496797 -0.825966 
0.261069 0.494566 -0.829004 -0.0528492 -0.995357 -0.0804428 0.0709274 -0.981774 0.176321 
-0.292995 -0.932665 -0.210453 -0.111955 -0.85652 -0.503825 0.160351 -0.946404 0.280368 
0.402915 -0.874452 0.270173 0.637305 -0.360787 -0.680937 0.695813 -0.71689 -0.0437346 
-0.415561 -0.835478 -0.359563 0.797189 -0.450167 -0.402292 -0.506116 -0.758633 -0.410272 
-0.586907 -0.668179 -0.457249 -0.759767 -0.422443 -0.494263 -0.695754 -0.654548 -0.295792 
-0.822621 -0.317199 -0.471888 -0.858143 0.115538 -0.500241 -0.700711 0.437673 -0.563424 
-0.462446 0.572567 -0.676987 -0.212928 0.64212 -0.73644 -0.292047 -0.956072 0.0252102 
-0.0333983 -0.91598 0.399833 0.147322 -0.90418 0.400942 0.293123 -0.754148 0.587656 
-0.465885 -0.85683 -0.220893 0.665068 -0.702359 0.253726 0.800087 -0.599227 -0.0280562 
0.621526 -0.679765 0.389391 -0.610528 -0.78181 -0.126607 0.733338 -0.507401 -0.452503 
-0.804101 -0.587577 -0.0904097 -0.924947 -0.344537 -0.160522 -0.854865 0.257747 -0.450302 
0.608596 0.283606 -0.741066 -0.226835 -0.908782 0.350229 -0.284842 -0.947441 0.145669 
0.131886 -0.788893 0.600211 -0.490651 -0.871356 0.00115956 -0.487101 -0.782322 0.388207 
-0.0634099 -0.806707 0.58754 0.378899 -0.704249 0.60039 0.696831 -0.637967 0.327758 
-0.489039 -0.833684 0.256539 -0.611133 -0.782517 0.119093 0.6605 -0.741527 -0.117798 
0.594003 -0.794208 0.128041 -0.622531 -0.772085 -0.127827 0.729548 -0.677727 -0.0919022 
0.801438 -0.578657 -0.151176 -0.86399 -0.498856 -0.068298 0.80279 -0.122495 -0.583543 
-0.990168 -0.137798 0.0240652 -0.962971 0.00943125 -0.269441 -0.977268 0.163806 -0.134592 
-0.949441 0.304073 -0.0781151 -0.878174 0.443686 -0.178758 -0.489611 0.699019 -0.521204 
-0.324547 -0.886531 0.329746 -0.120407 -0.827988 0.547666 -0.392915 -0.785512 0.478109 
-0.0140396 -0.684626 0.72876 0.0935569 -0.650379 0.753826 -0.552225 -0.816288 0.169472 
0.35158 -0.778308 0.520219 0.56415 -0.795426 0.221431 0.694652 -0.713687 0.0900506 
-0.824083 -0.536703 0.18121 -0.98722 0.1211 -0.10359 -0.663385 0.575593 -0.478135 
-0.00226442 0.715359 -0.698753 -0.19862 -0.672656 0.7128 -0.360501 -0.759873 0.540955 
-0.421314 -0.833458 0.357552 -0.193296 -0.797983 0.570842 -0.137445 -0.719217 0.681055 
-0.556914 -0.7886 0.260685 0.562639 -0.791264 0.239457 -0.66103 -0.547618 0.512985 
0.261604 -0.801614 0.537567 0.535254 -0.843609 -0.042752 -0.919697 -0.282811 0.272352 
-0.98265 0.164565 0.0855366 -0.416541 -0.677512 0.606193 -0.380042 -0.746677 0.545932 
-0.272643 -0.478587 0.834638 -0.166505 -0.733371 0.659123 0.291131 -0.882612 0.369107 
0.255894 -0.927531 0.272406 -0.763639 -0.418755 0.491426 0.0125817 -0.458736 0.888484 
0.100891 -0.721809 0.684699 0.602806 -0.74279 -0.291355 -0.963774 -0.0025418 0.266708 
-0.571175 0.708069 -0.415207 -0.273978 0.776947 -0.566824 -0.102169 -0.748852 0.654815 
-0.667516 -0.333749 0.665609 -0.528714 -0.319582 0.786339 -0.360931 -0.407844 0.838685 
-0.82884 -0.158832 0.536466 -0.0375586 -0.385799 0.921818 -0.95346 0.0113508 0.301307 
-0.940993 0.338266 0.0104231 0.437278 0.71048 -0.551367 0.0491948 0.884743 -0.463476 
0.0786297 -0.982335 0.16981 0.221036 -0.965217 0.139642 0.368833 -0.9105 -0.186956 
0.575924 -0.792877 -0.199144 -0.18105 -0.893645 0.410634 0.494203 -0.849156 -0.186271 
0.72384 -0.527599 -0.44463 0.810363 -0.260789 -0.524691 0.00328419 -0.365627 0.930756 
-0.848212 -0.10051 0.520033 -0.949716 0.155208 0.271936 -0.789593 0.610508 0.0618355 
0.71266 0.535904 -0.452684 -0.693646 0.711129 -0.114678 -0.771296 0.56548 -0.292123 
-0.434886 0.844877 -0.311541 -0.130483 0.901485 -0.412674 0.56202 -0.826165 -0.0398088 
0.183479 -0.944439 0.27271 0.7106 -0.657159 -0.251378 0.165158 -0.9555 0.244422 
0.833876 -0.478028 -0.275934 0.00759847 -0.868882 0.494962 -0.61284 -0.288203 0.735776 
-0.769606 -0.186724 0.610607 -0.827664 -0.177361 0.532462 -0.472978 -0.284819 0.833768 
-0.08634 -0.346383 0.934111 -0.857728 0.259958 0.443537 -0.868381 0.357032 0.344154 
-0.856761 0.354136 0.374899 -0.754815 0.633368 0.170583 -0.54136 0.76895 -0.340067 
-0.042639 0.942302 -0.332036 0.431037 0.889984 -0.148779 0.933983 -0.296688 -0.199128 
-0.252917 -0.786977 0.562761 -0.27268 -0.608604 0.745149 0.921745 0.0282367 -0.386767 
-0.140768 -0.250277 0.957886 -0.61177 0.0172166 0.790849 0.81628 0.327606 -0.475773 
-0.74082 0.434045 0.51263 -0.845544 0.437917 0.305423 -0.74195 0.637893 0.206403 
0.166596 0.956772 -0.238395 -0.269836 0.949882 -0.15784 0.214447 -0.914033 0.344318 
0.925076 -0.265278 -0.271777 -0.814965 -0.0940331 0.57183 -0.758945 -0.016626 0.650943 
-0.684568 0.219099 0.695243 -0.72059 0.2621 0.641914 -0.761857 0.566205 0.314619 
0.67767 0.693619 -0.244245 -0.769757 0.595383 0.230201 -0.803434 0.547302 0.234426 
-0.783741 0.620347 -0.0303295 -0.647526 0.758861 0.0695757 0.108621 0.989654 0.0937413 
0.574715 -0.774188 0.265209 -0.118901 -0.873394 0.472277 0.119589 -0.860758 0.494767 
-0.176634 -0.77304 0.60927 -0.315642 -0.672887 0.669024 0.902335 -0.410756 -0.130654 
0.881351 0.444536 -0.160022 -0.758292 0.587696 0.282146 -0.659874 0.682333 0.314624 
0.609139 0.792935 -0.0142355 -0.427805 0.901602 0.0640106 0.841872 -0.503256 0.194896 
0.231675 -0.842552 0.486243 -0.0196859 -0.777021 0.629167 -0.088886 -0.742799 0.663589 
0.978896 -0.179523 -0.0976444 0.88947 -0.443443 0.110463 -0.282675 -0.476409 0.832544 
-0.830285 0.432705 0.351274 0.471109 0.860672 0.193131 -0.323925 0.932005 0.162601 
-0.236664 -0.714177 0.658743 0.979659 -0.199976 -0.0166571 0.652824 0.747916 0.12018 
-0.804925 0.303092 0.510129 -0.783517 0.10711 0.61207 -0.680823 0.52364 0.512134 
0.608792 0.745357 0.271687 -0.602183 0.669126 0.435484 -0.333754 0.887179 0.318624 
-0.0491033 0.950147 0.307913 0.527024 -0.719906 0.451643 0.839103 -0.538618 0.0761341 
-0.426346 -0.644149 0.63506 0.489684 0.7449 0.453137 0.528367 0.615453 0.584847 
0.345865 0.828834 0.439786 -0.209122 0.873224 0.440167 0.628057 -0.683091 0.372736 
0.0113827 -0.729237 0.684167 0.993944 -0.0349022 0.104196 0.907192 0.41773 0.0500438 
0.223134 0.672888 0.705289 0.210126 0.417148 0.884214 0.500985 0.605522 0.618349 
-0.385824 0.557008 0.735447 -0.174423 0.801075 0.572586 0.0406094 0.834918 0.548874 
0.185167 0.756382 0.627375 0.982405 -0.0769512 0.170171 0.986089 0.0265422 0.164083 
-0.36311 -0.313538 0.877408 -0.0297579 0.392992 0.91906 -0.0583441 0.486385 0.871795 
0.43044 0.739609 0.517396 -0.374726 -0.285455 0.882098 -0.497877 -0.20665 0.842267 
-0.231945 -0.253269 0.939179 0.374604 0.546855 0.748747 0.00801191 0.6805 0.732705 
0.214832 0.675693 0.705185 0.818046 -0.388382 0.424216 -0.233365 -0.608033 0.758839 