# vtk DataFile Version 4.2
vtk output
ASCII
DATASET POLYDATA
POINTS 1319 float
72.2688 146.084 167.493 72.2397 146.185 167.473 72.9869 147.235 167.502 
73.2545 147.783 167.385 74.1112 149.238 167.453 74.3359 149.595 167.394 
74.3994 149.84 167.322 75.1569 151.116 167.372 75.2867 151.374 167.364 
75.3337 151.605 167.317 75.4521 151.902 167.34 76.2206 153.13 167.445 
76.4523 153.491 167.393 76.4954 153.369 167.572 76.5061 153.739 167.324 
77.5592 155.531 167.348 78.8324 157.024 167.647 79.2324 157.389 167.677 
79.4369 157.714 167.682 79.7792 157.943 167.947 79.2637 158.628 167.594 
79.9726 158.432 167.895 79.9084 158.796 167.812 79.3073 159.12 167.669 
79.527 159.479 167.828 80.4856 159.483 168.178 79.9519 159.658 167.992 
70 139.009 167.017 70 139.009 167.017 70 139.009 167.017 
70 139.009 167.017 70 139.009 167.017 70.8506 143.536 168.131 
70.6589 143.264 168.235 70.4149 143.339 168.169 70.5415 144.002 167.9 
71.0297 143.593 168.229 71.8449 146.008 167.517 72.5115 146.715 167.519 
72.2545 148.327 167.399 73.6618 148.262 167.899 73.5648 148.638 167.434 
74.9109 150.668 167.459 74.4766 150.616 167.277 75.8277 152.135 167.938 
75.6259 152.506 167.41 74.3688 154.276 167.631 76.1788 156.816 167.617 
77.5482 156.376 167.382 79.4813 157.523 167.835 78.3873 158.869 167.686 
80.713 160.504 168.585 81.5096 160.155 168.801 81.6571 160.381 168.958 
81.2573 160.675 168.884 81.6172 160.582 169.007 69 138.009 168.017 
69 138.009 168.017 69 138.009 168.017 69 138.009 168.017 
69 138.009 168.017 70 139.009 167.017 69.6989 142.042 168.827 
69.6127 142.099 168.784 76.855 140.827 168.686 69.9411 142.606 168.549 
70.1035 142.532 168.863 78.3102 141.355 168.491 70.4853 143.008 168.451 
70.7431 143.182 168.475 79.7731 141.879 168.649 71.3334 143.987 168.468 
77.5488 143.305 168.514 77.5899 144.621 168.65 69.4024 145.632 168.036 
80.6915 145.744 168.411 79.2148 147.734 168.679 79.9283 147.901 168.542 
82.1759 147.205 168.714 80.7824 148.604 168.537 81.049 150.149 168.784 
75.9549 152.168 168.544 80.158 160.523 168.538 67.1755 138.273 170.477 
67.1158 138.179 170.505 67.0894 138.313 170.438 75.8025 137.672 169.366 
67.238 138.491 170.489 69 138.009 168.017 67.9486 140.396 169.636 
67.9492 139.959 170.03 68.1488 141.705 168.98 69.2432 141.714 169.138 
69.7125 142.111 169.38 75.3842 141.318 169.289 66.839 142.585 169.232 
70.6025 143.054 168.745 81.5773 142.265 169.428 77.1847 146.843 169.487 
67.9987 147.559 169.08 78.751 147.954 168.954 83.6087 147.565 169.342 
73.9195 148.791 169.026 79.4474 150.747 169.704 79.6812 151.078 169.713 
75.7856 151.897 168.941 81.8985 151.394 169.134 83.5453 151.641 169.253 
84.3067 151.61 169.443 82.5634 153.154 169.649 83.178 152.997 169.53 
80.6026 158.378 169.515 81.7571 159.834 170.106 82.1249 160.959 170.005 
76.8007 135.603 170.103 66.8914 138.045 170.489 66.8245 137.905 170.533 
66.8751 137.916 170.544 66.3257 138.104 170.59 66.9421 138.018 170.629 
67.3143 139.056 170.285 67.3415 138.724 170.784 79.536 138.027 169.902 
66.2572 139.494 170.042 67.9062 139.747 170.587 68.1472 140.05 170.219 
65.5626 140.407 170.032 83.7374 145.708 169.812 79.5397 152.005 170.364 
85.5646 151.849 170.024 85.457 154.631 170.435 83.1378 154.964 170.573 
85.6996 155.646 170.921 82.3775 161.018 170.499 76.3836 133.741 171.01 
64.8228 136.178 171.941 65.2016 136.385 171.87 65.4379 136.513 171.967 
77.8101 135.639 170.329 64.4714 136.953 171.448 65.8875 137.066 171.802 
66.767 137.863 170.631 66.4156 137.71 171.002 66.775 137.965 171.254 
64.2897 140.92 170.581 77.3188 149.905 171.094 83.1465 155.986 171.541 
86.9465 156.343 171.638 86.9555 156.854 171.924 86.0318 157.317 172.248 
82.6037 161.083 171.607 76.2198 161.853 171.428 82.3932 161.64 170.927 
81.743 162.864 171.714 78.8126 163.2 171.913 72.0446 131.626 172.468 
64.2622 135.037 172.8 63.6943 134.93 172.905 63.5143 135.221 172.647 
63.1302 135.374 172.644 79.2666 135.393 171.128 62.8402 136.576 172.217 
65.8236 136.998 172.488 70.9088 137.693 172.036 82.7808 140.269 171.474 
69.8612 143.942 171.656 88.6043 155.386 172.146 82.8037 161.942 172.293 
82.1386 163.07 172.304 78.4319 128.129 174.096 78.9425 128.385 174.09 
79.1669 128.684 174.019 79.5135 128.814 174.258 78.8143 130.007 173.144 
70.2569 131.141 173.493 62.7271 134.063 173.761 63.0215 134.13 173.811 
64.1911 134.955 172.911 69.9696 132.875 173.134 62.2302 134.31 173.612 
63.9955 134.838 173.214 65.1468 136.082 172.686 61.9681 137.678 172.417 
85.2767 140.798 173.344 85.933 140.99 173.846 82.6958 161.035 172.898 
82.8336 162.883 173.25 79.9628 128.829 174.815 69.7596 129.643 174.612 
80.5088 129.489 174.944 63.1935 133.895 174.654 81.4314 131.547 174.256 
61.6382 133.656 174.393 61.4624 133.909 174.246 64.4711 135.328 173.859 
65.7183 137.194 173.35 65.4653 137.163 173.953 60.1566 140.695 173.618 
60.342 142.991 173.833 89.4267 158.242 174.296 83.3062 162.023 174.139 
83.2106 162.544 174.1 83.322 162.178 174.28 83.03 163.134 174.104 
75.8264 126.1 175.72 77.865 125.932 176.014 77.5389 126.619 175.133 
78.0907 126.234 175.715 78.4909 126.6 175.623 73.5017 127.46 174.957 
61.1861 133.099 175.155 61.1654 132.804 175.496 61.6204 133.336 174.785 
61.6034 132.933 175.403 59.8735 134.021 175.325 61.4014 147.665 174.952 
75.7203 151.129 174.552 90.7279 157.684 174.867 91.1325 158.1 175.564 
87.2037 159.541 175.657 89.7804 159.171 175.754 83.2957 161.996 174.385 
83.3279 162.214 174.878 83.4392 162.708 175.22 83.0215 163.915 175.211 
75.4575 125.63 176.631 77.5185 125.604 176.494 78.0473 125.769 176.408 
79.6932 127.41 176.092 68.504 129.082 175.984 60.8689 132.123 176.469 
60.5577 132.179 176.43 67.4724 130.835 176.141 62.7334 133.259 176.256 
67.2544 132.52 175.915 58.1385 137.669 175.753 68.4086 140.073 175.56 
66.0267 141.386 176.062 88.4746 141.839 176.225 93.6348 151.973 176.044 
90.8384 158.9 176.221 81.0476 159.968 176.206 82.6454 161.267 176.056 
83.4629 162.446 175.793 82.7643 164.715 175.887 77.5204 125.194 177.329 
78.3909 125.859 176.584 73.9071 125.905 176.963 61.1494 131.91 177.067 
60.0119 131.686 177.273 61.817 132.25 177.46 62.5909 133.194 177.407 
57.5929 134.738 177.317 66.2194 135.96 177.39 61.4314 150.164 177.114 
94.6532 154.093 177.736 81.3687 157.822 176.666 85.9762 159.917 177.1 
82.3346 161.088 176.905 83.413 162.107 177.695 84.2987 163.95 177.622 
81.7607 165.739 176.888 80.2437 166.318 177.814 77.7037 124.975 177.926 
77.4407 124.769 178.315 79.4382 126.189 177.73 68.2398 127.987 177.575 
67.6053 128.158 178.215 61.9372 132.317 178.028 95.2886 153.741 178.97 
93.1036 157.236 177.608 84.7116 163.788 178.571 84.8716 163.693 179.111 
84.3737 164.645 178.194 83.3413 165.397 177.684 75.3724 124.754 179.171 
66.4645 129.378 178.786 66.1745 129.64 179.103 58.5396 131.251 179.481 
55.67 138.945 179.555 66.0098 138.626 178.887 67.4546 141.834 178.289 
94.7973 149.308 179.411 69.6609 150.203 178.745 95.3642 152.078 178.756 
76.2355 153.905 178.145 95.4517 153.682 179.589 79.3437 157.148 179.245 
81.3254 160.597 178.681 87.9665 160.767 179.506 84.3137 162.804 179.175 
84.9434 164.187 179.011 85.1062 164.107 179.529 84.98 164.445 179.226 
75.1926 165.732 179.226 78.4811 167.001 179.851 79.2989 125.507 179.544 
69.3924 126.342 180.691 68.2231 127.072 180.187 58.8113 130.741 180.282 
60.7434 131.321 180.257 57.4504 132.1 179.813 61.6988 132.184 179.69 
56.3367 133.953 179.914 55.3334 136.278 180.638 64.8604 136.354 180.913 
64.6157 141.722 180.044 95.4993 153.968 180.349 93.3055 158.517 180.3 
72.0872 163.864 179.834 84.9932 165.018 179.766 82.9665 166.734 180.094 
78.3438 124.7 180.733 59.0173 130.594 180.719 58.7796 130.675 180.681 
59.1629 130.631 180.959 61.1591 131.779 181.051 61.9175 132.749 180.493 
54.9652 139.238 181.901 65.802 140.219 181.37 59.0248 148.6 180.649 
71.4296 149.332 180.853 95.6339 151.4 180.743 95.7408 152.788 181.004 
85.9871 164.29 181.959 83.7883 166.703 180.88 84.9405 165.734 180.764 
79.4351 167.706 181.704 81.5021 167.683 181.525 68.2506 126.853 181.825 
69.3689 126.278 182.185 70.59 125.925 181.774 66.5165 128.28 182.23 
65.4419 129.925 181.593 56.1924 132.999 182.089 55.1638 141.069 182.795 
67.7764 144.617 182.558 74.4079 152.999 182.311 94.4336 157.08 181.441 
81.9136 159.126 182.326 92.4598 159.87 182.135 69.6864 162.071 182.301 
76.6461 167.072 182.33 57.8034 131.21 182.247 57.898 131.207 183.047 
56.3745 132.65 182.522 65.7509 145.321 183.052 95.6752 151.675 182.342 
86.5348 164.331 183.569 76.8776 124.487 183.549 68.6879 126.691 183.705 
68.3436 126.982 184.003 66.5476 128.398 183.891 55.7163 133.859 183.751 
64.4817 132.872 184.122 64.3506 133.898 183.771 71.1169 149.207 183.761 
94.2669 157.637 184.076 87.4998 161.171 184.265 90.7318 161.052 183.966 
84.0018 167.696 183.608 76.3663 124.692 184.511 78.1872 124.794 183.887 
57.4813 131.647 184.328 82.8488 129.793 185.362 60.6755 132.198 183.999 
70.8331 148.664 185.085 95.1661 150.605 184.508 60.0774 150.218 184.65 
73.6902 151.882 185.57 95.2609 153.093 184.624 72.2011 153.437 185.496 
75.7215 153.947 185.614 93.5228 159.264 185.092 92.5194 160.343 184.733 
93.0133 159.911 185.077 91.4142 160.887 184.8 71.3829 163.494 185.265 
86.7929 165.355 184.845 80.3734 168.369 185.286 77.0817 124.782 185.021 
68.6787 127.522 185.856 58.8151 131.181 184.811 58.7356 131.25 185.035 
57.308 132.223 185.384 56.7883 132.779 185.361 64.9064 132.308 185.445 
60.6596 132.846 185.055 60.9601 133.608 185.402 55.3777 135.172 184.795 
55.0672 137.687 185.037 56.2431 143.42 185.509 74.2176 165.601 186.292 
78.1539 167.736 186.338 85.1551 167.616 185.53 77.9256 125.199 185.718 
66.3337 129.672 186.204 57.6114 132.231 185.832 58.8196 131.841 185.889 
57.7071 132.451 186.174 56.3713 133.725 185.857 61.0121 134.465 186.354 
61.5817 135.193 185.819 88.9964 138.884 186.623 71.1738 148.399 186.879 
60.2782 149.588 186.645 69.0079 149.381 187.243 68.1372 159.651 186.529 
93.1103 159.89 187.056 81.9888 168.649 187.159 77.985 125.582 186.513 
69.411 127.712 186.712 75.4703 126.745 187.767 81.3349 128.409 187.829 
[...]
POINT_DATA 1319
COLOR_SCALARS scalars 3
0.615686 0.941176 0.823529 0.615686 0.941176 0.823529 0.615686 0.941176 0.823529 
0.615686 0.941176 0.823529 0.615686 0.941176 0.823529 
0.615686 0.941176 0.823529 0.615686 0.941176 0.823529 
0.615686 0.941176 0.823529 0.615686 0.941176 0.823529 
0.615686 0.941176 0.823529 0.615686 0.941176 0.823529 
0.615686 0.941176 0.823529 0.615686 0.941176 0.823529 
0.615686 0.941176 0.823529 0.615686 0.941176 0.823529 
0.615686 0.941176 0.823529 0.615686 0.941176 0.823529 
0.615686 0.941176 0.823529 0.615686 0.941176 0.823529 
0.615686 0.941176 0.823529 0.615686 0.941176 0.823529 
0.615686 0.941176 0.823529 0.615686 0.941176 0.823529 
0.615686 0.941176 0.823529 0.615686 0.941176 0.823529 
0.615686 0.941176 0.823529 0.615686 0.941176 0.823529 
0.615686 0.941176 0.823529 0.615686 0.941176 0.823529 
0.615686 0.941176 0.823529 0.615686 0.941176 0.823529 
0.615686 0.941176 0.823529 0.615686 0.941176 0.823529 
0.615686 0.941176 0.823529 0.615686 0.941176 0.823529 
0.615686 0.941176 0.823529 0.615686 0.941176 0.823529 
0.615686 0.941176 0.823529 0.615686 0.941176 0.823529 
0.615686 0.941176 0.823529 0.615686 0.941176 0.823529 
0.615686 0.941176 0.823529 0.615686 0.941176 0.823529 
0.615686 0.941176 0.823529 0.615686 0.941176 0.823529 
0.615686 0.941176 0.823529 0.615686 0.941176 0.823529 
0.615686 0.941176 0.823529 0.615686 0.941176 0.823529 
0.615686 0.941176 0.823529 0.615686 0.941176 0.823529 
0.615686 0.941176 0.823529 0.615686 0.941176 0.823529 
0.615686 0.941176 0.823529 0.615686 0.941176 0.823529 
0.615686 0.941176 0.823529 0.615686 0.941176 0.823529 
0.615686 0.941176 0.823529 0.615686 0.941176 0.823529 
0.615686 0.941176 0.823529 0.615686 0.941176 0.823529 
0.615686 0.941176 0.823529 0.615686 0.941176 0.823529 
0.615686 0.941176 0.823529 0.615686 0.941176 0.823529 
0.615686 0.941176 0.823529 0.615686 0.941176 0.823529 
0.615686 0.941176 0.823529 0.615686 0.941176 0.823529 
0.615686 0.941176 0.823529 0.615686 0.941176 0.823529 
0.615686 0.941176 0.823529 0.615686 0.941176 0.823529 
0.615686 0.941176 0.823529 0.615686 0.941176 0.823529 
0.615686 0.941176 0.823529 0.615686 0.941176 0.823529 
0.615686 0.941176 0.823529 0.615686 0.941176 0.823529 
0.615686 0.941176 0.823529 0.615686 0.941176 0.823529 
0.615686 0.941176 0.823529 0.615686 0.941176 0.823529 
0.615686 0.941176 0.823529 0.615686 0.941176 0.823529 
0.615686 0.941176 0.823529 0.615686 0.941176 0.823529 
0.615686 0.941176 0.823529 0.615686 0.941176 0.823529 
0.615686 0.941176 0.823529 0.615686 0.941176 0.823529 
0.615686 0.941176 0.823529 0.615686 0.941176 0.823529 
0.615686 0.941176 0.823529 0.615686 0.941176 0.823529 
0.615686 0.941176 0.823529 0.615686 0.941176 0.823529 
0.615686 0.941176 0.823529 0.615686 0.941176 0.823529 
0.615686 0.941176 0.823529 0.615686 0.941176 0.823529 
0.615686 0.941176 0.823529 0.615686 0.941176 0.823529 
0.615686 0.941176 0.823529 0.615686 0.941176 0.823529 
0.615686 0.941176 0.823529 0.615686 0.941176 0.823529 
0.615686 0.941176 0.823529 0.615686 0.941176 0.823529 
0.615686 0.941176 0.823529 0.615686 0.941176 0.823529 
0.615686 0.941176 0.823529 0.615686 0.941176 0.823529 
0.615686 0.941176 0.823529 0.615686 0.941176 0.823529 
0.615686 0.941176 0.823529 0.615686 0.941176 0.823529 
0.615686 0.941176 0.823529 0.615686 0.941176 0.823529 
0.615686 0.941176 0.823529 0.615686 0.941176 0.823529 
0.615686 0.941176 0.823529 0.615686 0.941176 0.823529 
0.615686 0.941176 0.823529 0.615686 0.941176 0.823529 
0.615686 0.941176 0.823529 0.615686 0.941176 0.823529 
0.615686 0.941176 0.823529 0.615686 0.941176 0.823529 
0.615686 0.941176 0.823529 0.615686 0.941176 0.823529 
0.615686 0.941176 0.823529 0.615686 0.941176 0.823529 
0.615686 0.941176 0.823529 0.615686 0.941176 0.823529 
0.615686 0.941176 0.823529 0.615686 0.941176 0.823529 
0.615686 0.941176 0.823529 0.615686 0.941176 0.823529 
0.615686 0.941176 0.823529 0.615686 0.941176 0.823529 
0.615686 0.941176 0.823529 0.615686 0.941176 0.823529 
0.615686 0.941176 0.823529 0.615686 0.941176 0.823529 
0.615686 0.941176 0.823529 0.615686 0.941176 0.823529 
0.615686 0.941176 0.823529 0.615686 0.941176 0.823529 
0.615686 0.941176 0.823529 0.615686 0.941176 0.823529 
0.615686 0.941176 0.823529 0.615686 0.941176 0.823529 
0.615686 0.941176 0.823529 0.615686 0.941176 0.823529 
0.615686 0.941176 0.823529 0.615686 0.941176 0.823529 
0.615686 0.941176 0.823529 0.615686 0.941176 0.823529 
0.615686 0.941176 0.823529 0.615686 0.941176 0.823529 
0.615686 0.941176 0.823529 0.615686 0.941176 0.823529 
0.615686 0.941176 0.823529 0.615686 0.941176 0.823529 
0.615686 0.941176 0.823529 0.615686 0.941176 0.823529 
0.615686 0.941176 0.823529 0.615686 0.941176 0.823529 
0.615686 0.941176 0.823529 0.615686 0.941176 0.823529 
0.615686 0.941176 0.823529 0.615686 0.941176 0.823529 
0.615686 0.941176 0.823529 0.615686 0.941176 0.823529 
0.615686 0.941176 0.823529 0.615686 0.941176 0.823529 
0.615686 0.941176 0.823529 0.615686 0.941176 0.823529 
0.615686 0.941176 0.823529 0.615686 0.941176 0.823529 
0.615686 0.941176 0.823529 0.615686 0.941176 0.823529 
0.615686 0.941176 0.823529 0.615686 0.941176 0.823529 
0.615686 0.941176 0.823529 0.615686 0.941176 0.823529 
0.615686 0.941176 0.823529 0.615686 0.941176 0.823529 
0.615686 0.941176 0.823529 0.615686 0.941176 0.823529 
0.615686 0.941176 0.823529 0.615686 0.941176 0.823529 
0.615686 0.941176 0.823529 0.615686 0.941176 0.823529 
0.615686 0.941176 0.823529 0.615686 0.941176 0.823529 
0.615686 0.941176 0.823529 0.615686 0.941176 0.823529 
0.615686 0.941176 0.823529 0.615686 0.941176 0.823529 
0.615686 0.941176 0.823529 0.615686 0.941176 0.823529 
0.615686 0.941176 0.823529 0.615686 0.941176 0.823529 
0.615686 0.941176 0.823529 0.615686 0.941176 0.823529 
0.615686 0.941176 0.823529 0.615686 0.941176 0.823529 
0.615686 0.941176 0.823529 0.615686 0.941176 0.823529 
0.615686 0.941176 0.823529 0.615686 0.941176 0.823529 
0.615686 0.941176 0.823529 0.615686 0.941176 0.823529 
0.615686 0.941176 0.823529 0.615686 0.941176 0.823529 
0.615686 0.941176 0.823529 0.615686 0.941176 0.823529 
0.615686 0.941176 0.823529 0.615686 0.941176 0.823529 
0.615686 0.941176 0.823529 0.615686 0.941176 0.823529 
0.615686 0.941176 0.823529 0.615686 0.941176 0.823529 
0.615686 0.941176 0.823529 0.615686 0.941176 0.823529 
0.615686 0.941176 0.823529 0.615686 0.941176 0.823529 
0.615686 0.941176 0.823529 0.615686 0.941176 0.823529 
0.615686 0.941176 0.823529 0.615686 0.941176 0.823529 
0.615686 0.941176 0.823529 0.615686 0.941176 0.823529 
0.615686 0.941176 0.823529 0.615686 0.941176 0.823529 
0.615686 0.941176 0.823529 0.615686 0.941176 0.823529 
0.615686 0.941176 0.823529 0.615686 0.941176 0.823529 
0.615686 0.941176 0.823529 0.615686 0.941176 0.823529 
0.615686 0.941176 0.823529 0.615686 0.941176 0.823529 
0.615686 0.941176 0.823529 0.615686 0.941176 0.823529 
0.615686 0.941176 0.823529 0.615686 0.941176 0.823529 
0.615686 0.941176 0.823529 0.615686 0.941176 0.823529 
0.615686 0.941176 0.823529 0.615686 0.941176 0.823529 
0.615686 0.941176 0.823529 0.615686 0.941176 0.823529 
0.615686 0.941176 0.823529 0.615686 0.941176 0.823529 
0.615686 0.941176 0.823529 0.615686 0.941176 0.823529 
0.615686 0.941176 0.823529 0.615686 0.941176 0.823529 
0.615686 0.941176 0.823529 0.615686 0.941176 0.823529 
0.615686 0.941176 0.823529 0.615686 0.941176 0.823529 
0.615686 0.941176 0.823529 0.615686 0.941176 0.823529 
0.615686 0.941176 0.823529 0.615686 0.941176 0.823529 
0.615686 0.941176 0.823529 0.615686 0.941176 0.823529 
0.615686 0.941176 0.823529 0.615686 0.941176 0.823529 
0.615686 0.941176 0.823529 0.615686 0.941176 0.823529 
0.615686 0.941176 0.823529 0.615686 0.941176 0.823529 
0.615686 0.941176 0.823529 0.615686 0.941176 0.823529 
0.615686 0.941176 0.823529 0.615686 0.941176 0.823529 
0.615686 0.941176 0.823529 0.615686 0.941176 0.823529 
0.615686 0.941176 0.823529 0.615686 0.941176 0.823529 
0.615686 0.941176 0.823529 0.615686 0.941176 0.823529 
0.615686 0.941176 0.823529 0.615686 0.941176 0.823529 
0.615686 0.941176 0.823529 0.615686 0.941176 0.823529 
0.615686 0.941176 0.823529 0.615686 0.941176 0.823529 
0.615686 0.941176 0.823529 0.615686 0.941176 0.823529 
0.615686 0.941176 0.823529 0.615686 0.941176 0.823529 
0.615686 0.941176 0.823529 0.615686 0.941176 0.823529 
0.615686 0.941176 0.823529 0.615686 0.941176 0.823529 
0.615686 0.941176 0.823529 0.615686 0.941176 0.823529 
0.615686 0.941176 0.823529 0.615686 0.941176 0.823529 
0.615686 0.941176 0.823529 0.615686 0.941176 0.823529 
0.615686 0.941176 0.823529 0.615686 0.941176 0.823529 
0.615686 0.941176 0.823529 0.615686 0.941176 0.823529 
0.615686 0.941176 0.823529 0.615686 0.941176 0.823529 
0.615686 0.941176 0.823529 0.615686 0.941176 0.823529 
0.615686 0.941176 0.823529 0.615686 0.941176 0.823529 
0.615686 0.941176 0.823529 0.615686 0.941176 0.823529 
0.615686 0.941176 0.823529 0.615686 0.941176 0.823529 
0.615686 0.941176 0.823529 0.615686 0.941176 0.823529 
0.615686 0.941176 0.823529 0.615686 0.941176 0.823529 
0.615686 0.941176 0.823529 0.615686 0.941176 0.823529 
0.615686 0.941176 0.823529 0.615686 0.941176 0.823529 
0.615686 0.941176 0.823529 0.615686 0.941176 0.823529 
0.615686 0.941176 0.823529 0.615686 0.941176 0.823529 
0.615686 0.941176 0.823529 0.615686 0.941176 0.823529 
0.615686 0.941176 0.823529 0.615686 0.941176 0.823529 
0.615686 0.941176 0.823529 0.615686 0.941176 0.823529 
0.615686 0.941176 0.823529 0.615686 0.941176 0.823529 
0.615686 0.941176 0.823529 0.615686 0.941176 0.823529 
0.615686 0.941176 0.823529 0.615686 0.941176 0.823529 
0.615686 0.941176 0.823529 0.615686 0.941176 0.823529 
0.615686 0.941176 0.823529 0.615686 0.941176 0.823529 
0.615686 0.941176 0.823529 0.615686 0.941176 0.823529 
0.615686 0.941176 0.823529 0.615686 0.941176 0.823529 
0.615686 0.941176 0.823529 0.615686 0.941176 0.823529 
0.615686 0.941176 0.823529 0.615686 0.941176 0.823529 
0.615686 0.941176 0.823529 0.615686 0.941176 0.823529 
0.615686 0.941176 0.823529 0.615686 0.941176 0.823529 
0.615686 0.941176 0.823529 0.615686 0.941176 0.823529 
0.615686 0.941176 0.823529 0.615686 0.941176 0.823529 
0.615686 0.941176 0.823529 0.615686 0.941176 0.823529 
0.615686 0.941176 0.823529 0.615686 0.941176 0.823529 
0.615686 0.941176 0.823529 0.615686 0.941176 0.823529 
0.615686 0.941176 0.823529 0.615686 0.941176 0.823529 
0.615686 0.941176 0.823529 0.615686 0.941176 0.823529 
0.615686 0.941176 0.823529 0.615686 0.941176 0.823529 
0.615686 0.941176 0.823529 0.615686 0.941176 0.823529 
0.615686 0.941176 0.823529 0.615686 0.941176 0.823529 
0.615686 0.941176 0.823529 0.615686 0.941176 0.823529 
0.615686 0.941176 0.823529 0.615686 0.941176 0.823529 
0.615686 0.941176 0.823529 0.615686 0.941176 0.823529 
0.615686 0.941176 0.823529 0.615686 0.941176 0.823529 
0.615686 0.941176 0.823529 0.615686 0.941176 0.823529 
0.615686 0.941176 0.823529 0.615686 0.941176 0.823529 
0.615686 0.941176 0.823529 0.615686 0.941176 0.823529 
0.615686 0.941176 0.823529 0.615686 0.941176 0.823529 
0.615686 0.941176 0.823529 0.615686 0.941176 0.823529 
0.615686 0.941176 0.823529 0.615686 0.941176 0.823529 
0.615686 0.941176 0.823529 0.615686 0.941176 0.823529 
0.615686 0.941176 0.823529 0.615686 0.941176 0.823529 
0.615686 0.941176 0.823529 0.615686 0.941176 0.823529 
0.615686 0.941176 0.823529 0.615686 0.941176 0.823529 
0.615686 0.941176 0.823529 0.615686 0.941176 0.823529 
0.615686 0.941176 0.823529 0.615686 0.941176 0.823529 
0.615686 0.941176 0.823529 0.615686 0.941176 0.823529 
0.615686 0.941176 0.823529 0.615686 0.941176 0.823529 
0.615686 0.941176 0.823529 0.615686 0.941176 0.823529 
0.615686 0.941176 0.823529 0.615686 0.941176 0.823529 
0.615686 0.941176 0.823529 0.615686 0.941176 0.823529 
0.615686 0.941176 0.823529 0.615686 0.941176 0.823529 
0.615686 0.941176 0.823529 0.615686 0.941176 0.823529 
0.615686 0.941176 0.823529 0.615686 0.941176 0.823529 
0.615686 0.941176 0.823529 0.615686 0.941176 0.823529 
0.615686 0.941176 0.823529 0.615686 0.941176 0.823529 
0.615686 0.941176 0.823529 0.615686 0.941176 0.823529 
0.615686 0.941176 0.823529 0.615686 0.941176 0.823529 
0.615686 0.941176 0.823529 0.615686 0.941176 0.823529 
0.615686 0.941176 0.823529 0.615686 0.941176 0.823529 
0.615686 0.941176 0.823529 0.615686 0.941176 0.823529 
0.615686 0.941176 0.823529 0.615686 0.941176 0.823529 
0.615686 0.941176 0.823529 0.615686 0.941176 0.823529 
0.615686 0.941176 0.823529 0.615686 0.941176 0.823529 
0.615686 0.941176 0.823529 0.615686 0.941176 0.823529 
0.615686 0.941176 0.823529 0.615686 0.941176 0.823529 
0.615686 0.941176 0.823529 0.615686 0.941176 0.823529 
0.615686 0.941176 0.823529 0.615686 0.941176 0.823529 
0.615686 0.941176 0.823529 0.615686 0.941176 0.823529 
0.615686 0.941176 0.823529 0.615686 0.941176 0.823529 
0.615686 0.941176 0.823529 0.615686 0.941176 0.823529 
0.615686 0.941176 0.823529 0.615686 0.941176 0.823529 
0.615686 0.941176 0.823529 0.615686 0.941176 0.823529 
0.615686 0.941176 0.823529 0.615686 0.941176 0.823529 
0.615686 0.941176 0.823529 0.615686 0.941176 0.823529 
0.615686 0.941176 0.823529 0.615686 0.941176 0.823529 
0.615686 0.941176 0.823529 0.615686 0.941176 0.823529 
0.615686 0.941176 0.823529 0.615686 0.941176 0.823529 
0.615686 0.941176 0.823529 0.615686 0.941176 0.823529 
0.615686 0.941176 0.823529 0.615686 0.941176 0.823529 
0.615686 0.941176 0.823529 0.615686 0.941176 0.823529 
0.615686 0.941176 0.823529 0.615686 0.941176 0.823529 
0.615686 0.941176 0.823529 0.615686 0.941176 0.823529 
0.615686 0.941176 0.823529 0.615686 0.941176 0.823529 
0.615686 0.941176 0.823529 0.615686 0.941176 0.823529 
0.615686 0.941176 0.823529 0.615686 0.941176 0.823529 
0.615686 0.941176 0.823529 0.615686 0.941176 0.823529 
0.615686 0.941176 0.823529 0.615686 0.941176 0.823529 
0.615686 0.941176 0.823529 0.615686 0.941176 0.823529 
0.615686 0.941176 0.823529 0.615686 0.941176 0.823529 
0.615686 0.941176 0.823529 0.615686 0.941176 0.823529 
0.615686 0.941176 0.823529 0.615686 0.941176 0.823529 
0.615686 0.941176 0.823529 0.615686 0.941176 0.823529 
0.615686 0.941176 0.823529 0.615686 0.941176 0.823529 
0.615686 0.941176 0.823529 0.615686 0.941176 0.823529 
0.615686 0.941176 0.823529 0.615686 0.941176 0.823529 
0.615686 0.941176 0.823529 0.615686 0.941176 0.823529 
0.615686 0.941176 0.823529 0.615686 0.941176 0.823529 
0.615686 0.941176 0.823529 0.615686 0.941176 0.823529 
0.615686 0.941176 0.823529 0.615686 0.941176 0.823529 
0.615686 0.941176 0.823529 0.615686 0.941176 0.823529 
0.615686 0.941176 0.823529 0.615686 0.941176 0.823529 
0.615686 0.941176 0.823529 0.615686 0.941176 0.823529 
0.615686 0.941176 0.823529 0.615686 0.941176 0.823529 
0.615686 0.941176 0.823529 0.615686 0.941176 0.823529 
0.615686 0.941176 0.823529 0.615686 0.941176 0.823529 
0.615686 0.941176 0.823529 0.615686 0.941176 0.823529 
0.615686 0.941176 0.823529 0.615686 0.941176 0.823529 
0.615686 0.941176 0.823529 0.615686 0.941176 0.823529 
0.615686 0.941176 0.823529 0.615686 0.941176 0.823529 
0.615686 0.941176 0.823529 0.615686 0.941176 0.823529 
0.615686 0.941176 0.823529 0.615686 0.941176 0.823529 
0.615686 0.941176 0.823529 0.615686 0.941176 0.823529 
0.615686 0.941176 0.823529 0.615686 0.941176 0.823529 
0.615686 0.941176 0.823529 0.615686 0.941176 0.823529 
0.615686 0.941176 0.823529 0.615686 0.941176 0.823529 
0.615686 0.941176 0.823529 0.615686 0.941176 0.823529 
0.615686 0.941176 0.823529 0.615686 0.941176 0.823529 
0.615686 0.941176 0.823529 0.615686 0.941176 0.823529 
0.615686 0.941176 0.823529 0.615686 0.941176 0.823529 
0.615686 0.941176 0.823529 0.615686 0.941176 0.823529 
0.615686 0.941176 0.823529 0.615686 0.941176 0.823529 
0.615686 0.941176 0.823529 0.615686 0.941176 0.823529 
0.615686 0.941176 0.823529 0.615686 0.941176 0.823529 
0.615686 0.941176 0.823529 0.615686 0.941176 0.823529 
0.615686 0.941176 0.823529 0.615686 0.941176 0.823529 
0.615686 0.941176 0.823529 0.615686 0.941176 0.823529 
0.615686 0.941176 0.823529 0.615686 0.941176 0.823529 
0.615686 0.941176 0.823529 0.615686 0.941176 0.823529 
0.615686 0.941176 0.823529 0.615686 0.941176 0.823529 
0.615686 0.941176 0.823529 0.615686 0.941176 0.823529 
0.615686 0.941176 0.823529 0.615686 0.941176 0.823529 
0.615686 0.941176 0.823529 0.615686 0.941176 0.823529 
0.615686 0.941176 0.823529 0.615686 0.941176 0.823529 
0.615686 0.941176 0.823529 0.615686 0.941176 0.823529 
0.615686 0.941176 0.823529 0.615686 0.941176 0.823529 
0.615686 0.941176 0.823529 0.615686 0.941176 0.823529 
0.615686 0.941176 0.823529 0.615686 0.941176 0.823529 
0.615686 0.941176 0.823529 0.615686 0.941176 0.823529 
0.615686 0.941176 0.823529 0.615686 0.941176 0.823529 
0.615686 0.941176 0.823529 0.615686 0.941176 0.823529 
0.615686 0.941176 0.823529 0.615686 0.941176 0.823529 
0.615686 0.941176 0.823529 0.615686 0.941176 0.823529 
0.615686 0.941176 0.823529 0.615686 0.941176 0.823529 
0.615686 0.941176 0.823529 0.615686 0.941176 0.823529 
0.615686 0.941176 0.823529 0.615686 0.941176 0.823529 
0.615686 0.941176 0.823529 0.615686 0.941176 0.823529 
0.615686 0.941176 0.823529 0.615686 0.941176 0.823529 
0.615686 0.941176 0.823529 0.615686 0.941176 0.823529 
0.615686 0.941176 0.823529 0.615686 0.941176 0.823529 
0.615686 0.941176 0.823529 0.615686 0.941176 0.823529 
0.615686 0.941176 0.823529 0.615686 0.941176 0.823529 
0.615686 0.941176 0.823529 0.615686 0.941176 0.823529 
0.615686 0.941176 0.823529 0.615686 0.941176 0.823529 
0.615686 0.941176 0.823529 0.615686 0.941176 0.823529 
0.615686 0.941176 0.823529 0.615686 0.941176 0.823529 
0.615686 0.941176 0.823529 0.615686 0.941176 0.823529 
0.615686 0.941176 0.823529 0.615686 0.941176 0.823529 
0.615686 0.941176 0.823529 0.615686 0.941176 0.823529 
0.615686 0.941176 0.823529 0.615686 0.941176 0.823529 
0.615686 0.941176 0.823529 0.615686 0.941176 0.823529 
0.615686 0.941176 0.823529 0.615686 0.941176 0.823529 
0.615686 0.941176 0.823529 0.615686 0.941176 0.823529 
0.615686 0.941176 0.823529 0.615686 0.941176 0.823529 
0.615686 0.941176 0.823529 0.615686 0.941176 0.823529 
0.615686 0.941176 0.823529 0.615686 0.941176 0.823529 
0.615686 0.941176 0.823529 0.615686 0.941176 0.823529 
0.615686 0.941176 0.823529 0.615686 0.941176 0.823529 
0.615686 0.941176 0.823529 0.615686 0.941176 0.823529 
0.615686 0.941176 0.823529 0.615686 0.941176 0.823529 
0.615686 0.941176 0.823529 0.615686 0.941176 0.823529 
0.615686 0.941176 0.823529 0.615686 0.941176 0.823529 
0.615686 0.941176 0.823529 0.615686 0.941176 0.823529 
0.615686 0.941176 0.823529 0.615686 0.941176 0.823529 
0.615686 0.941176 0.823529 0.615686 0.941176 0.823529 
0.615686 0.941176 0.823529 0.615686 0.941176 0.823529 
0.615686 0.941176 0.823529 0.615686 0.941176 0.823529 
0.615686 0.941176 0.823529 0.615686 0.941176 0.823529 
0.615686 0.941176 0.823529 0.615686 0.941176 0.823529 
0.615686 0.941176 0.823529 0.615686 0.941176 0.823529 
0.615686 0.941176 0.823529 0.615686 0.941176 0.823529 
0.615686 0.941176 0.823529 0.615686 0.941176 0.823529 
0.615686 0.941176 0.823529 0.615686 0.941176 0.823529 
0.615686 0.941176 0.823529 0.615686 0.941176 0.823529 
0.615686 0.941176 0.823529 0.615686 0.941176 0.823529 
0.615686 0.941176 0.823529 0.615686 0.941176 0.823529 
0.615686 0.941176 0.823529 0.615686 0.941176 0.823529 
0.615686 0.941176 0.823529 0.615686 0.941176 0.823529 
0.615686 0.941176 0.823529 0.615686 0.941176 0.823529 
0.615686 0.941176 0.823529 0.615686 0.941176 0.823529 
0.615686 0.941176 0.823529 0.615686 0.941176 0.823529 
0.615686 0.941176 0.823529 0.615686 0.941176 0.823529 
0.615686 0.941176 0.823529 0.615686 0.941176 0.823529 
0.615686 0.941176 0.823529 0.615686 0.941176 0.823529 
0.615686 0.941176 0.823529 0.615686 0.941176 0.823529 
0.615686 0.941176 0.823529 0.615686 0.941176 0.823529 
0.615686 0.941176 0.823529 0.615686 0.941176 0.823529 
0.615686 0.941176 0.823529 0.615686 0.941176 0.823529 
0.615686 0.941176 0.823529 0.615686 0.941176 0.823529 
0.615686 0.941176 0.823529 0.615686 0.941176 0.823529 
0.615686 0.941176 0.823529 0.615686 0.941176 0.823529 
0.615686 0.941176 0.823529 0.615686 0.941176 0.823529 