# vtk DataFile Version 4.2
vtk output
ASCII
DATASET POLYDATA
POINTS 816 float
72.2688 146.084 167.493 72.2397 146.185 167.473 72.9869 147.235 167.502 
73.2545 147.783 167.385 74.1112 149.238 167.453 74.3359 149.595 167.394 
74.3994 149.84 167.322 75.1569 151.116 167.372 75.2867 151.374 167.364 
75.3337 151.605 167.317 75.4521 151.902 167.34 76.2206 153.13 167.445 
76.4523 153.491 167.393 76.4954 153.369 167.572 76.5061 153.739 167.324 
77.5592 155.531 167.348 78.8324 157.024 167.647 79.2324 157.389 167.677 
79.4369 157.714 167.682 79.7792 157.943 167.947 79.2637 158.628 167.594 
79.9726 158.432 167.895 79.9084 158.796 167.812 79.3073 159.12 167.669 
79.527 159.479 167.828 80.4856 159.483 168.178 79.9519 159.658 167.992 
70 139.009 167.017 70 139.009 167.017 70 139.009 167.017 
70 139.009 167.017 70 139.009 167.017 70.8506 143.536 168.131 
70.6589 143.264 168.235 70.4149 143.339 168.169 70.5415 144.002 167.9 
71.0297 143.593 168.229 71.8449 146.008 167.517 72.5115 146.715 167.519 
72.2545 148.327 167.399 73.6618 148.262 167.899 73.5648 148.638 167.434 
74.9109 150.668 167.459 74.4766 150.616 167.277 75.8277 152.135 167.938 
75.6259 152.506 167.41 74.3688 154.276 167.631 76.1788 156.816 167.617 
77.5482 156.376 167.382 79.4813 157.523 167.835 78.3873 158.869 167.686 
80.713 160.504 168.585 81.5096 160.155 168.801 81.6571 160.381 168.958 
81.2573 160.675 168.884 81.6172 160.582 169.007 69 138.009 168.017 
69 138.009 168.017 69 138.009 168.017 69 138.009 168.017 
69 138.009 168.017 70 139.009 167.017 69.6989 142.042 168.827 
69.6127 142.099 168.784 69.9411 142.606 168.549 70.1035 142.532 168.863 
70.4853 143.008 168.451 70.7431 143.182 168.475 71.3334 143.987 168.468 
69.4024 145.632 168.036 75.9549 152.168 168.544 80.158 160.523 168.538 
67.1755 138.273 170.477 67.1158 138.179 170.505 67.0894 138.313 170.438 
67.238 138.491 170.489 69 138.009 168.017 67.9486 140.396 169.636 
67.9492 139.959 170.03 68.1488 141.705 168.98 69.2432 141.714 169.138 
69.7125 142.111 169.38 66.839 142.585 169.232 70.6025 143.054 168.745 
67.9987 147.559 169.08 73.9195 148.791 169.026 75.7856 151.897 168.941 
80.6026 158.378 169.515 81.7571 159.834 170.106 82.1249 160.959 170.005 
66.8914 138.045 170.489 66.8245 137.905 170.533 66.8751 137.916 170.544 
66.3257 138.104 170.59 66.9421 138.018 170.629 67.3143 139.056 170.285 
67.3415 138.724 170.784 66.2572 139.494 170.042 67.9062 139.747 170.587 
68.1472 140.05 170.219 65.5626 140.407 170.032 82.3775 161.018 170.499 
64.8228 136.178 171.941 65.2016 136.385 171.87 65.4379 136.513 171.967 
64.4714 136.953 171.448 65.8875 137.066 171.802 66.767 137.863 170.631 
66.4156 137.71 171.002 66.775 137.965 171.254 64.2897 140.92 170.581 
82.6037 161.083 171.607 76.2198 161.853 171.428 82.3932 161.64 170.927 
81.743 162.864 171.714 78.8126 163.2 171.913 64.2622 135.037 172.8 
63.6943 134.93 172.905 63.5143 135.221 172.647 63.1302 135.374 172.644 
62.8402 136.576 172.217 65.8236 136.998 172.488 69.8612 143.942 171.656 
82.8037 161.942 172.293 82.1386 163.07 172.304 62.7271 134.063 173.761 
63.0215 134.13 173.811 64.1911 134.955 172.911 62.2302 134.31 173.612 
63.9955 134.838 173.214 65.1468 136.082 172.686 61.9681 137.678 172.417 
82.6958 161.035 172.898 82.8336 162.883 173.25 63.1935 133.895 174.654 
61.6382 133.656 174.393 61.4624 133.909 174.246 64.4711 135.328 173.859 
65.7183 137.194 173.35 65.4653 137.163 173.953 60.1566 140.695 173.618 
60.342 142.991 173.833 83.3062 162.023 174.139 83.2106 162.544 174.1 
83.322 162.178 174.28 83.03 163.134 174.104 61.1861 133.099 175.155 
61.1654 132.804 175.496 61.6204 133.336 174.785 61.6034 132.933 175.403 
59.8735 134.021 175.325 61.4014 147.665 174.952 83.2957 161.996 174.385 
83.3279 162.214 174.878 83.4392 162.708 175.22 83.0215 163.915 175.211 
60.8689 132.123 176.469 60.5577 132.179 176.43 62.7334 133.259 176.256 
58.1385 137.669 175.753 66.0267 141.386 176.062 81.0476 159.968 176.206 
82.6454 161.267 176.056 83.4629 162.446 175.793 82.7643 164.715 175.887 
61.1494 131.91 177.067 60.0119 131.686 177.273 61.817 132.25 177.46 
62.5909 133.194 177.407 57.5929 134.738 177.317 61.4314 150.164 177.114 
82.3346 161.088 176.905 83.413 162.107 177.695 84.2987 163.95 177.622 
81.7607 165.739 176.888 80.2437 166.318 177.814 61.9372 132.317 178.028 
84.7116 163.788 178.571 84.8716 163.693 179.111 84.3737 164.645 178.194 
83.3413 165.397 177.684 58.5396 131.251 179.481 55.67 138.945 179.555 
69.6609 150.203 178.745 81.3254 160.597 178.681 84.3137 162.804 179.175 
84.9434 164.187 179.011 85.1062 164.107 179.529 84.98 164.445 179.226 
75.1926 165.732 179.226 78.4811 167.001 179.851 58.8113 130.741 180.282 
60.7434 131.321 180.257 57.4504 132.1 179.813 61.6988 132.184 179.69 
56.3367 133.953 179.914 55.3334 136.278 180.638 64.6157 141.722 180.044 
72.0872 163.864 179.834 84.9932 165.018 179.766 82.9665 166.734 180.094 
59.0173 130.594 180.719 58.7796 130.675 180.681 59.1629 130.631 180.959 
61.1591 131.779 181.051 61.9175 132.749 180.493 54.9652 139.238 181.901 
59.0248 148.6 180.649 85.9871 164.29 181.959 83.7883 166.703 180.88 
84.9405 165.734 180.764 79.4351 167.706 181.704 81.5021 167.683 181.525 
56.1924 132.999 182.089 55.1638 141.069 182.795 69.6864 162.071 182.301 
76.6461 167.072 182.33 57.8034 131.21 182.247 57.898 131.207 183.047 
56.3745 132.65 182.522 65.7509 145.321 183.052 86.5348 164.331 183.569 
55.7163 133.859 183.751 84.0018 167.696 183.608 57.4813 131.647 184.328 
60.6755 132.198 183.999 60.0774 150.218 184.65 72.2011 153.437 185.496 
71.3829 163.494 185.265 86.7929 165.355 184.845 80.3734 168.369 185.286 
58.8151 131.181 184.811 58.7356 131.25 185.035 57.308 132.223 185.384 
56.7883 132.779 185.361 60.6596 132.846 185.055 60.9601 133.608 185.402 
55.3777 135.172 184.795 55.0672 137.687 185.037 56.2431 143.42 185.509 
74.2176 165.601 186.292 78.1539 167.736 186.338 85.1551 167.616 185.53 
57.6114 132.231 185.832 58.8196 131.841 185.889 57.7071 132.451 186.174 
56.3713 133.725 185.857 61.0121 134.465 186.354 61.5817 135.193 185.819 
60.2782 149.588 186.645 69.0079 149.381 187.243 68.1372 159.651 186.529 
81.9888 168.649 187.159 57.6031 132.798 186.426 59.1156 132.661 186.515 
58.8896 133.019 186.818 57.3316 133.264 186.542 60.4512 133.983 186.746 
56.7297 134.703 186.901 60.9567 135.116 186.968 56.4304 141.828 187.084 
63.3805 153.364 187.608 76.773 156.892 188.091 68.91 159.446 188.179 
74.9516 165.571 187.864 82.8963 168.698 187.536 58.3311 133.23 186.917 
58.3818 133.995 187.367 59.7398 133.757 187.063 58.8509 134.576 187.713 
60.222 134.257 187.113 58.6516 135.361 188.135 57.4677 136.388 188.127 
57.8658 136.083 188.26 57.1345 139.103 188.347 57.2627 140.694 188.424 
64.0855 141.667 188.601 64.984 143.07 188.613 65.2389 143.483 188.322 
60.0197 147.503 188.17 71.1796 161.997 188.22 84.5403 161.603 189.191 
87.353 164.405 188.572 87.634 165.61 189.115 87.2475 166.494 188.385 
86.2195 167.501 187.838 59.7911 136.629 188.708 59.0166 138.214 189.309 
57.6633 139.607 188.798 58.2622 139.288 189.157 64.2026 141.987 189.136 
58.9675 143.432 189.189 69.2711 158.826 189.28 87.1201 166.991 189.52 
82.0047 168.326 189.829 84.5823 168.536 189.128 60.2774 138.018 189.3 
59.5575 138.856 189.578 60.1931 138.74 189.589 60.8525 138.73 189.46 
61.5542 138.73 189.104 62.9014 140.729 189.615 61.5294 140.946 190.253 
60.2162 142.336 190.042 61.5323 142.2 190.518 64.4511 142.58 189.705 
67.6583 146.746 189.653 63.9053 149.317 190.597 87.068 163.463 189.833 
87.866 165.393 190.519 87.8065 166.025 191.155 86.8645 167.272 189.769 
80.9669 167.683 190.539 83.1186 168.446 190.35 85.451 168.189 190.272 
62.8497 141.226 190.031 65.3896 144.453 190.469 67.4032 146.565 190.538 
63.1373 146.227 190.937 64.5849 146.889 191.324 68.5213 147.978 190.445 
68.905 148.766 190.828 69.3971 149.245 190.597 65.3344 150.54 191.086 
71.4587 151.514 190.624 71.6143 151.784 190.885 74.6521 154.251 191.011 
78.1049 157.234 191.259 71.2438 158.402 191.169 81.3016 159.379 191.595 
87.7606 164.525 191.411 78.3002 165.618 191.042 87.8559 165.442 191.897 
81.054 167.443 191.068 87.4836 166.439 191.819 82.5084 167.731 191.421 
65.9591 145.853 191.092 66.6753 146.138 190.908 65.3401 146.788 191.421 
66.8582 147.596 191.45 67.5036 147.614 191.225 68.3559 148.489 191.151 
66.2024 149.439 191.629 69.4492 150.371 191.526 68.8162 151.238 191.883 
71.0603 151.505 191.244 70.3987 152.035 191.897 74.2525 154.065 191.484 
75.0225 154.653 191.651 75.1192 154.657 191.409 73.3432 156.034 192.681 
77.206 156.487 191.419 78.333 157.436 191.534 78.5168 157.689 191.849 
79.6935 158.634 192.24 81.5874 159.567 191.841 81.9178 159.854 192.226 
83.0903 160.391 191.955 83.2731 160.542 192.295 77.4674 161.385 192.964 
87.7366 165.071 192.267 82.2891 166.542 192.753 87.5752 166.075 192.332 
75.3523 155.628 192.325 77.8747 157.418 192.161 78.1605 158.297 192.78 
80.0659 159.217 192.728 83.2165 160.645 192.615 83.7151 161.035 192.813 
79.4569 161.003 193.573 85.1332 161.667 192.313 86.2189 162.554 192.278 
86.2108 162.727 192.612 86.9772 163.58 192.523 87.4654 164.594 192.635 
82.9573 166.497 193.028 87.3744 166.142 192.701 83.5528 167.203 192.62 
87.1128 166.341 192.772 80.1677 159.893 193.23 80.9279 160.022 193.123 
79.5056 160.508 193.517 81.0397 161.417 193.691 85.7015 162.539 192.933 
83.6369 162.982 193.938 85.3953 163.863 194.041 86.5925 164.271 193.805 
84.7649 164.623 194.003 86.8469 165.31 193.675 84.4768 166.209 193.382 
86.0992 165.371 193.935 86.7862 165.725 193.459 85.8678 166.499 193.122 
86.3017 164.273 193.976 85.91 164.732 194.13 86.3088 164.678 194.059 
86.2591 165.066 194.037 86.6203 165.017 193.906 85.0354 162.391 261.939 
84.5156 161.962 262.121 85.5439 162.422 262.174 85.3746 162.087 262.453 
85.0116 162.873 261.661 84.2061 163.426 261.387 85.6446 163.464 261.624 
83.3207 164.076 261.386 85.5849 164.069 261.484 86.8106 164.058 261.958 
87.5289 164.07 262.506 83.326 165.152 261.597 87.5925 164.458 262.478 
83.9873 165.575 261.627 86.0773 165.24 261.663 86.5891 165.094 261.791 
[...]
POINT_DATA 816
COLOR_SCALARS scalars 3
0.584314 0.894118 0.784314 0.584314 0.894118 0.784314 0.584314 0.894118 0.784314 
0.584314 0.894118 0.784314 0.584314 0.894118 0.784314 
0.584314 0.894118 0.784314 0.584314 0.894118 0.784314 
0.584314 0.894118 0.784314 0.584314 0.894118 0.784314 
0.584314 0.894118 0.784314 0.584314 0.894118 0.784314 
0.584314 0.894118 0.784314 0.584314 0.894118 0.784314 
0.584314 0.894118 0.784314 0.584314 0.894118 0.784314 
0.584314 0.894118 0.784314 0.584314 0.894118 0.784314 
0.584314 0.894118 0.784314 0.584314 0.894118 0.784314 
0.584314 0.894118 0.784314 0.584314 0.894118 0.784314 
0.584314 0.894118 0.784314 0.584314 0.894118 0.784314 
0.584314 0.894118 0.784314 0.584314 0.894118 0.784314 
0.584314 0.894118 0.784314 0.584314 0.894118 0.784314 
0.584314 0.894118 0.784314 0.584314 0.894118 0.784314 
0.584314 0.894118 0.784314 0.584314 0.894118 0.784314 
0.584314 0.894118 0.784314 0.584314 0.894118 0.784314 
0.584314 0.894118 0.784314 0.584314 0.894118 0.784314 
0.584314 0.894118 0.784314 0.584314 0.894118 0.784314 
0.584314 0.894118 0.784314 0.584314 0.894118 0.784314 
0.584314 0.894118 0.784314 0.584314 0.894118 0.784314 
0.584314 0.894118 0.784314 0.584314 0.894118 0.784314 
0.584314 0.894118 0.784314 0.584314 0.894118 0.784314 
0.584314 0.894118 0.784314 0.584314 0.894118 0.784314 
0.584314 0.894118 0.784314 0.584314 0.894118 0.784314 
0.584314 0.894118 0.784314 0.584314 0.894118 0.784314 
0.584314 0.894118 0.784314 0.584314 0.894118 0.784314 
0.584314 0.894118 0.784314 0.584314 0.894118 0.784314 
0.584314 0.894118 0.784314 0.584314 0.894118 0.784314 
0.584314 0.894118 0.784314 0.584314 0.894118 0.784314 
0.584314 0.894118 0.784314 0.584314 0.894118 0.784314 
0.584314 0.894118 0.784314 0.584314 0.894118 0.784314 
0.584314 0.894118 0.784314 0.584314 0.894118 0.784314 
0.584314 0.894118 0.784314 0.584314 0.894118 0.784314 
0.584314 0.894118 0.784314 0.584314 0.894118 0.784314 
0.584314 0.894118 0.784314 0.584314 0.894118 0.784314 
0.584314 0.894118 0.784314 0.584314 0.894118 0.784314 
0.584314 0.894118 0.784314 0.584314 0.894118 0.784314 
0.584314 0.894118 0.784314 0.584314 0.894118 0.784314 
0.584314 0.894118 0.784314 0.584314 0.894118 0.784314 
0.584314 0.894118 0.784314 0.584314 0.894118 0.784314 
0.584314 0.894118 0.784314 0.584314 0.894118 0.784314 
0.584314 0.894118 0.784314 0.584314 0.894118 0.784314 
0.584314 0.894118 0.784314 0.584314 0.894118 0.784314 
0.584314 0.894118 0.784314 0.584314 0.894118 0.784314 
0.584314 0.894118 0.784314 0.584314 0.894118 0.784314 
0.584314 0.894118 0.784314 0.584314 0.894118 0.784314 
0.584314 0.894118 0.784314 0.584314 0.894118 0.784314 
0.584314 0.894118 0.784314 0.584314 0.894118 0.784314 
0.584314 0.894118 0.784314 0.584314 0.894118 0.784314 
0.584314 0.894118 0.784314 0.584314 0.894118 0.784314 
0.584314 0.894118 0.784314 0.584314 0.894118 0.784314 
0.584314 0.894118 0.784314 0.584314 0.894118 0.784314 
0.584314 0.894118 0.784314 0.584314 0.894118 0.784314 
0.584314 0.894118 0.784314 0.584314 0.894118 0.784314 
0.584314 0.894118 0.784314 0.584314 0.894118 0.784314 
0.584314 0.894118 0.784314 0.584314 0.894118 0.784314 
0.584314 0.894118 0.784314 0.584314 0.894118 0.784314 
0.584314 0.894118 0.784314 0.584314 0.894118 0.784314 
0.584314 0.894118 0.784314 0.584314 0.894118 0.784314 
0.584314 0.894118 0.784314 0.584314 0.894118 0.784314 
0.584314 0.894118 0.784314 0.584314 0.894118 0.784314 
0.584314 0.894118 0.784314 0.584314 0.894118 0.784314 
0.584314 0.894118 0.784314 0.584314 0.894118 0.784314 
0.584314 0.894118 0.784314 0.584314 0.894118 0.784314 
0.584314 0.894118 0.784314 0.584314 0.894118 0.784314 
0.584314 0.894118 0.784314 0.584314 0.894118 0.784314 
0.584314 0.894118 0.784314 0.584314 0.894118 0.784314 
0.584314 0.894118 0.784314 0.584314 0.894118 0.784314 
0.584314 0.894118 0.784314 0.584314 0.894118 0.784314 
0.584314 0.894118 0.784314 0.584314 0.894118 0.784314 
0.584314 0.894118 0.784314 0.584314 0.894118 0.784314 
0.584314 0.894118 0.784314 0.584314 0.894118 0.784314 
0.584314 0.894118 0.784314 0.584314 0.894118 0.784314 
0.584314 0.894118 0.784314 0.584314 0.894118 0.784314 
0.584314 0.894118 0.784314 0.584314 0.894118 0.784314 
0.584314 0.894118 0.784314 0.584314 0.894118 0.784314 
0.584314 0.894118 0.784314 0.584314 0.894118 0.784314 
0.584314 0.894118 0.784314 0.584314 0.894118 0.784314 
0.584314 0.894118 0.784314 0.584314 0.894118 0.784314 
0.584314 0.894118 0.784314 0.584314 0.894118 0.784314 
0.584314 0.894118 0.784314 0.584314 0.894118 0.784314 
0.584314 0.894118 0.784314 0.584314 0.894118 0.784314 
0.584314 0.894118 0.784314 0.584314 0.894118 0.784314 
0.584314 0.894118 0.784314 0.584314 0.894118 0.784314 
0.584314 0.894118 0.784314 0.584314 0.894118 0.784314 
0.584314 0.894118 0.784314 0.584314 0.894118 0.784314 
0.584314 0.894118 0.784314 0.584314 0.894118 0.784314 
0.584314 0.894118 0.784314 0.584314 0.894118 0.784314 
0.584314 0.894118 0.784314 0.584314 0.894118 0.784314 
0.584314 0.894118 0.784314 0.584314 0.894118 0.784314 
0.584314 0.894118 0.784314 0.584314 0.894118 0.784314 
0.584314 0.894118 0.784314 0.584314 0.894118 0.784314 
0.584314 0.894118 0.784314 0.584314 0.894118 0.784314 
0.584314 0.894118 0.784314 0.584314 0.894118 0.784314 
0.584314 0.894118 0.784314 0.584314 0.894118 0.784314 
0.584314 0.894118 0.784314 0.584314 0.894118 0.784314 
0.584314 0.894118 0.784314 0.584314 0.894118 0.784314 
0.584314 0.894118 0.784314 0.584314 0.894118 0.784314 
0.584314 0.894118 0.784314 0.584314 0.894118 0.784314 
0.584314 0.894118 0.784314 0.584314 0.894118 0.784314 
0.584314 0.894118 0.784314 0.584314 0.894118 0.784314 
0.584314 0.894118 0.784314 0.584314 0.894118 0.784314 
0.584314 0.894118 0.784314 0.584314 0.894118 0.784314 
0.584314 0.894118 0.784314 0.584314 0.894118 0.784314 
0.584314 0.894118 0.784314 0.584314 0.894118 0.784314 
0.584314 0.894118 0.784314 0.584314 0.894118 0.784314 
0.584314 0.894118 0.784314 0.584314 0.894118 0.784314 
0.584314 0.894118 0.784314 0.584314 0.894118 0.784314 
0.584314 0.894118 0.784314 0.584314 0.894118 0.784314 
0.584314 0.894118 0.784314 0.584314 0.894118 0.784314 
0.584314 0.894118 0.784314 0.584314 0.894118 0.784314 
0.584314 0.894118 0.784314 0.584314 0.894118 0.784314 
0.584314 0.894118 0.784314 0.584314 0.894118 0.784314 
0.584314 0.894118 0.784314 0.584314 0.894118 0.784314 
0.584314 0.894118 0.784314 0.584314 0.894118 0.784314 
0.584314 0.894118 0.784314 0.584314 0.894118 0.784314 
0.584314 0.894118 0.784314 0.584314 0.894118 0.784314 
0.584314 0.894118 0.784314 0.584314 0.894118 0.784314 
0.584314 0.894118 0.784314 0.584314 0.894118 0.784314 
0.584314 0.894118 0.784314 0.584314 0.894118 0.784314 
0.584314 0.894118 0.784314 0.584314 0.894118 0.784314 
0.584314 0.894118 0.784314 0.584314 0.894118 0.784314 
0.584314 0.894118 0.784314 0.584314 0.894118 0.784314 
0.584314 0.894118 0.784314 0.584314 0.894118 0.784314 
0.584314 0.894118 0.784314 0.584314 0.894118 0.784314 
0.584314 0.894118 0.784314 0.584314 0.894118 0.784314 
0.584314 0.894118 0.784314 0.584314 0.894118 0.784314 
0.584314 0.894118 0.784314 0.584314 0.894118 0.784314 
0.584314 0.894118 0.784314 0.584314 0.894118 0.784314 
0.584314 0.894118 0.784314 0.584314 0.894118 0.784314 
0.584314 0.894118 0.784314 0.584314 0.894118 0.784314 
0.584314 0.894118 0.784314 0.584314 0.894118 0.784314 
0.584314 0.894118 0.784314 0.584314 0.894118 0.784314 
0.584314 0.894118 0.784314 0.584314 0.894118 0.784314 
0.584314 0.894118 0.784314 0.584314 0.894118 0.784314 
0.584314 0.894118 0.784314 0.584314 0.894118 0.784314 
0.584314 0.894118 0.784314 0.584314 0.894118 0.784314 
0.584314 0.894118 0.784314 0.584314 0.894118 0.784314 
0.584314 0.894118 0.784314 0.584314 0.894118 0.784314 
0.584314 0.894118 0.784314 0.584314 0.894118 0.784314 
0.584314 0.894118 0.784314 0.584314 0.894118 0.784314 
0.584314 0.894118 0.784314 0.584314 0.894118 0.784314 
0.584314 0.894118 0.784314 0.584314 0.894118 0.784314 
0.584314 0.894118 0.784314 0.584314 0.894118 0.784314 
0.584314 0.894118 0.784314 0.584314 0.894118 0.784314 
0.584314 0.894118 0.784314 0.584314 0.894118 0.784314 
0.584314 0.894118 0.784314 0.584314 0.894118 0.784314 
0.584314 0.894118 0.784314 0.584314 0.894118 0.784314 
0.584314 0.894118 0.784314 0.584314 0.894118 0.784314 
0.584314 0.894118 0.784314 0.584314 0.894118 0.784314 
0.584314 0.894118 0.784314 0.584314 0.894118 0.784314 
0.584314 0.894118 0.784314 0.584314 0.894118 0.784314 
0.584314 0.894118 0.784314 0.584314 0.894118 0.784314 
0.584314 0.894118 0.784314 0.584314 0.894118 0.784314 
0.584314 0.894118 0.784314 0.584314 0.894118 0.784314 
0.584314 0.894118 0.784314 0.584314 0.894118 0.784314 
0.584314 0.894118 0.784314 0.584314 0.894118 0.784314 
0.584314 0.894118 0.784314 0.584314 0.894118 0.784314 
0.584314 0.894118 0.784314 0.584314 0.894118 0.784314 
0.584314 0.894118 0.784314 0.584314 0.894118 0.784314 
0.584314 0.894118 0.784314 0.584314 0.894118 0.784314 
0.584314 0.894118 0.784314 0.584314 0.894118 0.784314 
0.584314 0.894118 0.784314 0.584314 0.894118 0.784314 
0.584314 0.894118 0.784314 0.584314 0.894118 0.784314 
0.584314 0.894118 0.784314 0.584314 0.894118 0.784314 
0.584314 0.894118 0.784314 0.584314 0.894118 0.784314 
0.584314 0.894118 0.784314 0.584314 0.894118 0.784314 
0.584314 0.894118 0.784314 0.584314 0.894118 0.784314 
0.584314 0.894118 0.784314 0.584314 0.894118 0.784314 
0.584314 0.894118 0.784314 0.584314 0.894118 0.784314 
0.584314 0.894118 0.784314 0.584314 0.894118 0.784314 
0.584314 0.894118 0.784314 0.584314 0.894118 0.784314 
0.584314 0.894118 0.784314 0.584314 0.894118 0.784314 
0.584314 0.894118 0.784314 0.584314 0.894118 0.784314 
0.584314 0.894118 0.784314 0.584314 0.894118 0.784314 
0.584314 0.894118 0.784314 0.584314 0.894118 0.784314 
0.584314 0.894118 0.784314 0.584314 0.894118 0.784314 
0.584314 0.894118 0.784314 0.584314 0.894118 0.784314 
0.584314 0.894118 0.784314 0.584314 0.894118 0.784314 
0.584314 0.894118 0.784314 0.584314 0.894118 0.784314 
0.584314 0.894118 0.784314 0.584314 0.894118 0.784314 
0.584314 0.894118 0.784314 0.584314 0.894118 0.784314 
0.584314 0.894118 0.784314 0.584314 0.894118 0.784314 
0.584314 0.894118 0.784314 0.584314 0.894118 0.784314 
0.584314 0.894118 0.784314 0.584314 0.894118 0.784314 
0.584314 0.894118 0.784314 0.584314 0.894118 0.784314 
0.584314 0.894118 0.784314 0.584314 0.894118 0.784314 
0.584314 0.894118 0.784314 0.584314 0.894118 0.784314 
0.584314 0.894118 0.784314 0.584314 0.894118 0.784314 
0.584314 0.894118 0.784314 0.584314 0.894118 0.784314 
0.584314 0.894118 0.784314 0.584314 0.894118 0.784314 
0.584314 0.894118 0.784314 0.584314 0.894118 0.784314 
0.584314 0.894118 0.784314 0.584314 0.894118 0.784314 
0.584314 0.894118 0.784314 0.584314 0.894118 0.784314 
0.584314 0.894118 0.784314 0.584314 0.894118 0.784314 
0.584314 0.894118 0.784314 0.584314 0.894118 0.784314 
0.584314 0.894118 0.784314 0.584314 0.894118 0.784314 
0.584314 0.894118 0.784314 0.584314 0.894118 0.784314 
0.584314 0.894118 0.784314 0.584314 0.894118 0.784314 
0.584314 0.894118 0.784314 0.584314 0.894118 0.784314 
0.584314 0.894118 0.784314 0.584314 0.894118 0.784314 
0.584314 0.894118 0.784314 0.584314 0.894118 0.784314 
0.584314 0.894118 0.784314 0.584314 0.894118 0.784314 
0.584314 0.894118 0.784314 0.584314 0.894118 0.784314 
0.584314 0.894118 0.784314 0.584314 0.894118 0.784314 
0.584314 0.894118 0.784314 0.584314 0.894118 0.784314 
0.584314 0.894118 0.784314 0.584314 0.894118 0.784314 
0.584314 0.894118 0.784314 0.584314 0.894118 0.784314 
0.584314 0.894118 0.784314 0.584314 0.894118 0.784314 
0.584314 0.894118 0.784314 0.584314 0.894118 0.784314 
0.584314 0.894118 0.784314 0.584314 0.894118 0.784314 
0.584314 0.894118 0.784314 0.584314 0.894118 0.784314 
0.584314 0.894118 0.784314 0.584314 0.894118 0.784314 
0.584314 0.894118 0.784314 0.584314 0.894118 0.784314 
0.584314 0.894118 0.784314 0.584314 0.894118 0.784314 
0.584314 0.894118 0.784314 0.584314 0.894118 0.784314 
0.584314 0.894118 0.784314 0.584314 0.894118 0.784314 
0.584314 0.894118 0.784314 0.584314 0.894118 0.784314 
0.584314 0.894118 0.784314 0.584314 0.894118 0.784314 
0.584314 0.894118 0.784314 0.584314 0.894118 0.784314 
0.584314 0.894118 0.784314 0.584314 0.894118 0.784314 
0.584314 0.894118 0.784314 0.584314 0.894118 0.784314 
0.584314 0.894118 0.784314 0.584314 0.894118 0.784314 
0.584314 0.894118 0.784314 0.584314 0.894118 0.784314 
0.584314 0.894118 0.784314 0.584314 0.894118 0.784314 
0.584314 0.894118 0.784314 0.584314 0.894118 0.784314 
0.584314 0.894118 0.784314 0.584314 0.894118 0.784314 
0.584314 0.894118 0.784314 0.584314 0.894118 0.784314 
0.584314 0.894118 0.784314 0.584314 0.894118 0.784314 
0.584314 0.894118 0.784314 0.584314 0.894118 0.784314 
0.584314 0.894118 0.784314 0.584314 0.894118 0.784314 
0.584314 0.894118 0.784314 0.584314 0.894118 0.784314 
0.584314 0.894118 0.784314 0.584314 0.894118 0.784314 
0.584314 0.894118 0.784314 0.584314 0.894118 0.784314 
0.584314 0.894118 0.784314 0.584314 0.894118 0.784314 
0.584314 0.894118 0.784314 0.584314 0.894118 0.784314 
0.584314 0.894118 0.784314 0.584314 0.894118 0.784314 
0.584314 0.894118 0.784314 0.584314 0.894118 0.784314 
0.584314 0.894118 0.784314 0.584314 0.894118 0.784314 
0.584314 0.894118 0.784314 0.584314 0.894118 0.784314 
0.584314 0.894118 0.784314 0.584314 0.894118 0.784314 
0.584314 0.894118 0.784314 0.584314 0.894118 0.784314 
0.584314 0.894118 0.784314 0.584314 0.894118 0.784314 
0.584314 0.894118 0.784314 0.584314 0.894118 0.784314 
0.584314 0.894118 0.784314 0.584314 0.894118 0.784314 
0.584314 0.894118 0.784314 0.584314 0.894118 0.784314 
0.584314 0.894118 0.784314 0.584314 0.894118 0.784314 
0.584314 0.894118 0.784314 0.584314 0.894118 0.784314 
0.584314 0.894118 0.784314 0.584314 0.894118 0.784314 
0.584314 0.894118 0.784314 0.584314 0.894118 0.784314 
0.584314 0.894118 0.784314 0.584314 0.894118 0.784314 
0.584314 0.894118 0.784314 0.584314 0.894118 0.784314 
0.584314 0.894118 0.784314 0.584314 0.894118 0.784314 
0.584314 0.894118 0.784314 0.584314 0.894118 0.784314 
0.584314 0.894118 0.784314 0.584314 0.894118 0.784314 
0.584314 0.894118 0.784314 0.584314 0.894118 0.784314 
0.584314 0.894118 0.784314 0.584314 0.894118 0.784314 
0.584314 0.894118 0.784314 0.584314 0.894118 0.784314 
0.584314 0.894118 0.784314 0.584314 0.894118 0.784314 
0.584314 0.894118 0.784314 0.584314 0.894118 0.784314 
0.584314 0.894118 0.784314 0.584314 0.894118 0.784314 
0.584314 0.894118 0.784314 0.584314 0.894118 0.784314 
0.584314 0.894118 0.784314 0.584314 0.894118 0.784314 
0.584314 0.894118 0.784314 0.584314 0.894118 0.784314 
0.584314 0.894118 0.784314 0.584314 0.894118 0.784314 
0.584314 0.894118 0.784314 0.584314 0.894118 0.784314 
0.584314 0.894118 0.784314 0.584314 0.894118 0.784314 
0.584314 0.894118 0.784314 0.584314 0.894118 0.784314 
0.584314 0.894118 0.784314 0.584314 0.894118 0.784314 
0.584314 0.894118 0.784314 0.584314 0.894118 0.784314 
0.584314 0.894118 0.784314 0.584314 0.894118 0.784314 
0.584314 0.894118 0.784314 0.584314 0.894118 0.784314 
0.584314 0.894118 0.784314 0.584314 0.894118 0.784314 
0.584314 0.894118 0.784314 0.584314 0.894118 0.784314 
0.584314 0.894118 0.784314 0.584314 0.894118 0.784314 
0.584314 0.894118 0.784314 0.584314 0.894118 0.784314 
0.584314 0.894118 0.784314 0.584314 0.894118 0.784314 
0.584314 0.894118 0.784314 0.584314 0.894118 0.784314 
0.584314 0.894118 0.784314 0.584314 0.894118 0.784314 
0.584314 0.894118 0.784314 0.584314 0.894118 0.784314 
0.584314 0.894118 0.784314 0.584314 0.894118 0.784314 
0.584314 0.894118 0.784314 0.584314 0.894118 0.784314 
0.584314 0.894118 0.784314 0.584314 0.894118 0.784314 
0.584314 0.894118 0.784314 0.584314 0.894118 0.784314 
0.584314 0.894118 0.784314 0.584314 0.894118 0.784314 
0.584314 0.894118 0.784314 0.584314 0.894118 0.784314 
0.584314 0.894118 0.784314 0.584314 0.894118 0.784314 
0.584314 0.894118 0.784314 0.584314 0.894118 0.784314 
0.584314 0.894118 0.784314 0.584314 0.894118 0.784314 
0.584314 0.894118 0.784314 0.584314 0.894118 0.784314 
0.584314 0.894118 0.784314 0.584314 0.894118 0.784314 
0.584314 0.894118 0.784314 0.584314 0.894118 0.784314 
0.584314 0.894118 0.784314 0.584314 0.894118 0.784314 
0.584314 0.894118 0.784314 0.584314 0.894118 0.784314 
0.584314 0.894118 0.784314 0.584314 0.894118 0.784314 
0.584314 0.894118 0.784314 0.584314 0.894118 0.784314 
0.584314 0.894118 0.784314 0.584314 0.894118 0.784314 
0.584314 0.894118 0.784314 0.584314 0.894118 0.784314 
0.584314 0.894118 0.784314 0.584314 0.894118 0.784314 
0.584314 0.894118 0.784314 0.584314 0.894118 0.784314 
0.584314 0.894118 0.784314 0.584314 0.894118 0.784314 
0.584314 0.894118 0.784314 0.584314 0.894118 0.784314 
0.584314 0.894118 0.784314 0.584314 0.894118 0.784314 
0.584314 0.894118 0.784314 0.584314 0.894118 0.784314 
0.584314 0.894118 0.784314 0.584314 0.894118 0.784314 
0.584314 0.894118 0.784314 0.584314 0.894118 0.784314 
0.584314 0.894118 0.784314 0.584314 0.894118 0.784314 
0.584314 0.894118 0.784314 0.584314 0.894118 0.784314 
0.584314 0.894118 0.784314 0.584314 0.894118 0.784314 
0.584314 0.894118 0.784314 0.584314 0.894118 0.784314 
0.584314 0.894118 0.784314 0.584314 0.894118 0.784314 
0.584314 0.894118 0.784314 0.584314 0.894118 0.784314 
0.584314 0.894118 0.784314 0.584314 0.894118 0.784314 
0.584314 0.894118 0.784314 0.584314 0.894118 0.784314 
0.584314 0.894118 0.784314 0.584314 0.894118 0.784314 
0.584314 0.894118 0.784314 0.584314 0.894118 0.784314 
0.584314 0.894118 0.784314 0.584314 0.894118 0.784314 
0.584314 0.894118 0.784314 0.584314 0.894118 0.784314 
0.584314 0.894118 0.784314 0.584314 0.894118 0.784314 
0.584314 0.894118 0.784314 0.584314 0.894118 0.784314 
0.584314 0.894118 0.784314 0.584314 0.894118 0.784314 
0.584314 0.894118 0.784314 0.584314 0.894118 0.784314 
0.584314 0.894118 0.784314 0.584314 0.894118 0.784314 
0.584314 0.894118 0.784314 0.584314 0.894118 0.784314 
0.584314 0.894118 0.784314 0.584314 0.894118 0.784314 
0.584314 0.894118 0.784314 0.584314 0.894118 0.784314 
0.584314 0.894118 0.784314 0.584314 0.894118 0.784314 
0.584314 0.894118 0.784314 0.584314 0.894118 0.784314 
0.584314 0.894118 0.784314 0.584314 0.894118 0.784314 
0.584314 0.894118 0.784314 0.584314 0.894118 0.784314 
0.584314 0.894118 0.784314 0.584314 0.894118 0.784314 
0.584314 0.894118 0.784314 0.584314 0.894118 0.784314 
0.584314 0.894118 0.784314 0.584314 0.894118 0.784314 
0.584314 0.894118 0.784314 0.584314 0.894118 0.784314 
0.584314 0.894118 0.784314 0.584314 0.894118 0.784314 
0.584314 0.894118 0.784314 0.584314 0.894118 0.784314 
0.584314 0.894118 0.784314 0.584314 0.894118 0.784314 
0.584314 0.894118 0.784314 0.584314 0.894118 0.784314 
0.584314 0.894118 0.784314 0.584314 0.894118 0.784314 
0.584314 0.894118 0.784314 0.584314 0.894118 0.784314 
0.584314 0.894118 0.784314 0.584314 0.894118 0.784314 
0.584314 0.894118 0.784314 0.584314 0.894118 0.784314 
0.584314 0.894118 0.784314 0.584314 0.894118 0.784314 
0.584314 0.894118 0.784314 0.584314 0.894118 0.784314 
0.584314 0.894118 0.784314 0.584314 0.894118 0.784314 
0.584314 0.894118 0.784314 0.584314 0.894118 0.784314 
0.584314 0.894118 0.784314 0.584314 0.894118 0.784314 
0.584314 0.894118 0.784314 0.584314 0.894118 0.784314 
0.584314 0.894118 0.784314 0.584314 0.894118 0.784314 
0.584314 0.894118 0.784314 0.584314 0.894118 0.784314 
0.584314 0.894118 0.784314 0.584314 0.894118 0.784314 
0.584314 0.894118 0.784314 0.584314 0.894118 0.784314 
0.584314 0.894118 0.784314 0.584314 0.894118 0.784314 
0.584314 0.894118 0.784314 0.584314 0.894118 0.784314 
0.584314 0.894118 0.784314 0.584314 0.894118 0.784314 
0.584314 0.894118 0.784314 0.584314 0.894118 0.784314 
0.584314 0.894118 0.784314 0.584314 0.894118 0.784314 
0.584314 0.894118 0.784314 0.584314 0.894118 0.784314 
0.584314 0.894118 0.784314 0.584314 0.894118 0.784314 
0.584314 0.894118 0.784314 0.584314 0.894118 0.784314 
0.584314 0.894118 0.784314 0.584314 0.894118 0.784314 
0.584314 0.894118 0.784314 0.584314 0.894118 0.784314 