# vtk DataFile Version 4.2
vtk output
ASCII
DATASET POLYDATA
POINTS 532 float
78.5123 130.903 173.076 78.1532 130.382 173.211 77.9909 130.767 173.158 
78.5342 130.321 173.211 77.6788 130.955 173.251 80.136 131.154 173.42 
79.2307 132.191 172.94 79.8204 131.987 173.042 78.1883 134.173 173.301 
80.0884 133.834 172.9 79.242 135.15 173.113 81.4135 134.981 173.105 
79.6505 136.914 173.216 80.9707 136.801 173.019 82.4244 136.57 173.315 
81.7741 137.615 173.075 82.5382 138.242 173.176 81.6944 139.846 173.232 
82.5485 139.503 173.181 77.2568 128.481 174.069 77.0588 128.886 173.959 
77.7894 128.32 174.091 78.9745 128.394 174.181 76.686 129.065 174.105 
79.1945 128.693 174.103 76.9432 130.201 173.781 79.3054 129.761 173.669 
77.1767 131.084 173.587 80.8146 131.042 173.994 77.265 133.557 173.894 
83.3286 136.649 173.814 79.6624 137.867 173.52 83.6472 137.678 173.763 
81.9574 140.966 173.65 82.7683 142.593 174.178 83.9316 144.186 174.19 
88.0909 144.678 174.216 89.7752 146.372 174.472 87.6674 148.702 174.237 
88.7787 149.954 174.446 90.5505 150.533 174.561 76.0621 127.661 174.948 
76.7845 127.263 174.886 77.9089 127.675 174.49 78.3254 127.612 174.566 
80.5174 129.492 174.98 75.8396 130.419 174.796 77.3774 135.656 174.885 
90.5156 146.611 174.844 90.8509 148.289 174.489 87.5861 149.329 174.678 
92.0121 149.846 175.087 91.399 151.411 174.981 91.9525 151.234 175.157 
90.0557 151.869 175.221 91.5763 152.335 175.424 75.7266 126.289 176.107 
78.1225 126.241 175.78 75.5153 131.183 175.486 82.8565 133.3 175.228 
88.9027 143.778 175.074 85.3719 147.188 174.932 93.1658 152.035 176.011 
91.1614 152.967 175.92 91.0017 153.26 176.355 91.7114 152.892 175.828 
92.9457 153.168 176.288 92.7109 153.473 176.415 76.8104 125.363 177.051 
74.6429 126.887 176.751 91.6872 146.541 176.14 85.4168 148.125 175.982 
87.0948 149.727 175.623 93.6666 151.218 176.413 93.5384 151.805 176.275 
94.1057 152.515 176.957 93.5014 154.321 177.484 77.3658 124.922 177.876 
73.9804 127.067 177.962 75.0036 131.576 176.832 76.1977 134.999 176.985 
90.807 144.383 176.939 85.3841 148.564 176.925 87.7325 151.05 176.81 
94.7057 151.139 177.805 89.5267 152.856 177.217 94.2776 153.882 177.706 
93.0611 154.688 177.933 93.4431 154.602 177.826 93.4133 154.824 178.315 
76.1285 124.919 178.406 77.1572 124.664 178.727 77.7293 124.991 177.959 
77.472 124.792 178.35 74.8628 125.86 177.752 78.234 125.309 177.781 
79.4421 126.191 177.738 73.9637 126.558 178.596 80.308 127.149 178.064 
90.7319 143.893 177.387 94.3076 149.051 178.416 94.8341 153.897 178.685 
94.4621 154.383 178.564 93.8848 154.832 178.746 74.0749 126.201 179.492 
73.8774 126.616 179.111 73.7094 128.23 179.104 90.7232 143.375 178.125 
94.7766 149.904 178.674 95.3836 151.247 179.355 90.1109 153.741 178.725 
95.1449 153.778 179.234 94.3007 154.643 178.793 93.3034 155.114 179.728 
75.4781 124.914 180.075 76.5876 124.492 180.406 77.1764 124.484 180.133 
74.446 125.732 179.902 73.6323 127.687 179.626 78.0111 139.951 179.978 
78.3535 124.712 180.74 89.9006 141.235 180.201 95.6706 152.696 181.008 
92.0603 155.012 180.978 73.6017 127.372 181.723 92.6656 155.061 182.46 
94.665 154.701 181.52 75.4394 124.864 182.662 73.8542 126.634 182.428 
74.1126 126.234 182.736 81.9137 145.511 182.739 95.5434 152.997 182.465 
95.1547 154.095 182.518 94.959 154.381 182.5 93.176 155.056 182.912 
78.5642 124.926 183.473 73.7773 127.294 183.468 73.7528 129.186 183.729 
85.1496 149.111 183.478 88.1649 152.011 183.665 92.8579 154.829 183.847 
94.5048 154.575 183.182 76.4423 124.792 184.497 74.6498 126.346 184.987 
74.2861 126.77 184.664 80.0306 143.11 184.447 91.6479 143.073 185.26 
81.6857 144.95 185.032 94.7678 149.138 184.335 95.0928 150.573 184.444 
95.396 151.321 183.605 95.2766 152.653 183.775 92.0396 154.484 184.233 
93.1615 154.789 184.072 93.3152 154.624 184.41 93.5216 154.763 184.004 
77.1176 124.833 185.01 74.0747 127.758 185.068 73.8859 128.449 185.24 
94.1218 154.23 184.547 94.1008 153.895 184.968 75.759 126.111 186.457 
76.6683 125.656 186.507 79.1991 125.802 185.918 75.9557 135.507 186.783 
93.159 146.096 186.026 94.5542 150.813 185.733 93.8255 152.686 186.187 
92.0222 153.535 186.082 76.5762 125.894 186.929 78.0064 125.614 186.494 
78.6104 125.773 186.573 79.7676 126.641 187.052 81.3367 128.412 187.826 
79.0363 140.666 188.139 83.7063 145.948 188.376 93.3477 147.843 187.388 
93.6877 151.317 186.953 93.3912 152.768 186.597 92.0392 153.243 186.534 
92.8906 153.151 186.585 93.0578 152.872 186.768 77.1859 126.612 187.914 
78.3326 126.937 188.256 80.2222 127.531 188.048 75.4863 128.69 187.9 
82.4177 130.117 189.011 88.7182 138.98 189.161 91.3707 143.887 188.467 
92.8263 150.935 187.972 90.3064 151.485 188.005 90.5373 151.302 188.312 
91.408 152.046 187.645 93.0802 152.397 187.035 77.5773 127.649 188.914 
80.5519 128.312 188.901 75.6475 132.154 188.377 91.7314 146.064 189.263 
85.6126 146.895 189.815 92.5871 149.679 188.539 90.2247 150.489 188.932 
91.9947 150.614 188.645 90.8948 151.274 188.411 92.3215 151.066 188.245 
91.8639 151.132 188.404 91.3815 151.391 188.281 80.448 128.693 189.384 
77.8917 129.58 190.201 77.3148 130.285 190.151 77.675 129.992 190.297 
77.2119 131.021 190.222 82.9242 131.332 190.223 78.3389 137.708 190.513 
79.5814 139.895 190.378 89.564 141.25 190.209 89.3341 141.347 190.793 
86.87 147.858 189.989 89.073 149.335 189.744 81.8254 130.574 190.5 
81.6239 130.913 190.942 78.4827 131.525 191.216 78.3203 132.228 191.271 
85.5199 145.508 191.203 90.5931 145.824 190.608 81.082 131 191.195 
80.2424 131.868 191.78 83.7952 133.449 191.595 78.6972 135.564 191.614 
81.5935 139.886 192.441 82.7383 140.914 192.751 88.6439 141.161 191.689 
83.3678 141.635 192.77 88.2599 142.311 192.325 88.9273 143.624 192.028 
88.0393 146.738 191.455 88.0896 146.221 191.769 80.592 135.514 192.752 
82.777 135.522 193.189 83.6671 135.884 193.244 82.1513 136.179 193.256 
82.582 135.955 193.296 81.9617 137.763 193.198 86.2847 137.878 192.69 
82.4179 138.95 193.226 86.9066 140.045 192.94 83.7427 141.161 193.168 
84.0239 140.908 193.292 83.6889 141.525 192.996 88.3803 143.237 192.318 
85.0082 143.655 192.357 85.3635 143.03 192.859 88.4817 144.562 192.195 
88.4654 145.309 192.039 85.2855 136.993 193.023 85.5461 138.757 193.281 
85.5686 140.717 193.333 84.9784 141.972 193.147 86.9719 141.311 193 
86.2087 142.21 193.1 84.0104 137.22 261.958 84.4275 138.36 261.808 
85.0518 138.177 261.968 84.2662 139.552 261.776 85.1148 141.068 261.938 
81.9002 134.2 262.694 81.7003 134.69 262.539 83.2403 134.726 262.738 
81.7741 136.379 262.278 85.1132 135.81 263.016 84.9017 137.06 262.259 
82.3972 137.976 262.085 86.7251 139.194 262.595 82.2612 139.459 262.356 
86.9343 140.057 262.54 83.2439 141.043 262.535 87.9546 140.811 263.124 
87.399 141.608 262.636 86.5818 143.198 262.566 87.3132 143.172 262.696 
86.0034 144 262.858 87.6857 144.436 263.088 79.4856 131.481 263.742 
78.9888 132.617 263.548 79.7896 133.476 263.101 80.9505 133.146 263.026 
81.7655 133.385 263.013 83.2569 132.577 263.975 79.6642 134.112 263.087 
85.3839 135.433 263.562 85.163 135.057 263.678 85.4704 135.252 263.901 
78.4495 135.629 263.949 86.3328 137.28 263.202 80.0116 138.939 263.654 
87.4646 139.194 263.275 85.4895 145.72 264.22 88.6016 145.446 263.658 
89.8183 144.788 264.312 88.366 146.081 263.801 89.9308 145.78 264.429 
87.0724 146.527 264.08 88.0743 147.163 264.257 88.1924 146.774 264.064 
79.056 129.394 264.901 80.2565 129.906 264.592 78.2632 130.003 264.701 
80.755 129.865 264.706 81.1845 130.039 264.766 77.2952 132.244 264.714 
84.5631 133.684 264.517 87.6244 138.344 264.286 89.4894 142.221 264.421 
90.7878 147.979 265.269 90.0943 148.75 265.302 90.6613 148.578 265.381 
77.6264 128.296 265.81 79.4406 128.132 265.918 80.9257 129.596 265.023 
76.5884 129.447 265.842 82.492 130.745 265.292 76.6591 134.026 265.611 
91.943 148.085 266.204 89.3467 149.806 266.092 90.5659 149.995 266.066 
77.4144 127.337 266.633 76.212 128.019 266.814 81.8208 129.439 266.348 
76.3809 134.296 266.211 86.1896 135.166 266.126 85.3864 146.93 265.781 
92.9265 149.683 267.164 92.1702 150.486 266.813 92.1382 151.119 267.103 
77.7682 126.392 267.6 79.1342 126.816 267.236 82.6129 129.817 267.558 
92.8483 148.512 267.066 92.9901 152.305 268.292 91.7967 152.795 268.41 
92.441 152.664 268.334 92.9809 152.773 268.578 76.6978 125.883 268.55 
75.8582 126.195 268.709 74.5752 129.254 268.578 75.9315 134.799 267.655 
81.4249 143.91 267.927 93.2924 147.45 268.232 93.2472 152.985 268.93 
79.1915 126.06 268.629 74.1207 128.15 269.765 74.5307 131.154 269.196 
90.5212 152.872 269.221 94.3992 152.448 269.749 94.7983 152.095 270.238 
94.2975 153.347 270.316 92.9818 154.227 270.354 93.4347 154.084 270.348 
78.1082 124.872 270.603 73.9595 127.519 270.542 73.8884 127.897 270.225 
73.8214 127.938 270.308 73.8732 128.083 270.22 75.3756 134.752 270.221 
92.3891 154.478 270.969 76.5984 124.834 271.006 77.2595 124.55 271.705 
74.6012 126.043 271.103 73.8627 126.809 271.788 73.7279 127.203 271.677 
73.8205 127.969 270.474 73.8209 129.564 271.41 95.4154 151.602 271.501 
95.292 152.715 271.501 94.4241 154.052 271.164 93.4625 154.728 271.602 
93.3432 154.896 272.052 73.627 128.21 271.915 74.2592 131.83 272.167 
78.3524 140.875 272.077 95.5098 151.384 271.864 92.1047 154.64 271.884 
94.2221 154.594 271.889 94.0183 154.928 272.764 76.0434 124.613 273.516 
75.5271 124.862 273.156 76.6487 124.462 273.459 74.9647 125.261 273.183 
95.695 152.702 273.326 91.7715 154.805 273.54 95.1662 154.058 272.965 
75.9262 124.639 274.474 77.1196 124.448 273.855 78.3211 124.692 273.235 
73.5415 127.748 273.394 95.0831 154.339 274.309 75.3729 124.91 274.84 
74.4286 125.704 274.721 80.5831 126.935 275.302 95.7139 152.446 274.569 
91.0481 154.506 274.724 95.2892 154.024 274.843 93.1747 155.142 275.18 
75.8359 124.775 276.121 76.9466 124.565 275.548 75.0141 125.355 276.305 
74.0991 126.342 276.001 75.8067 135.467 275.926 95.5451 153.135 275.266 
94.9573 154.389 275.445 75.4728 124.987 276.367 77.4439 124.713 276.06 
[...]
POINT_DATA 532
COLOR_SCALARS scalars 3
0.615686 0.941176 0.823529 0.615686 0.941176 0.823529 0.615686 0.941176 0.823529 
0.615686 0.941176 0.823529 0.615686 0.941176 0.823529 
0.615686 0.941176 0.823529 0.615686 0.941176 0.823529 
0.615686 0.941176 0.823529 0.615686 0.941176 0.823529 
0.615686 0.941176 0.823529 0.615686 0.941176 0.823529 
0.615686 0.941176 0.823529 0.615686 0.941176 0.823529 
0.615686 0.941176 0.823529 0.615686 0.941176 0.823529 
0.615686 0.941176 0.823529 0.615686 0.941176 0.823529 
0.615686 0.941176 0.823529 0.615686 0.941176 0.823529 
0.615686 0.941176 0.823529 0.615686 0.941176 0.823529 
0.615686 0.941176 0.823529 0.615686 0.941176 0.823529 
0.615686 0.941176 0.823529 0.615686 0.941176 0.823529 
0.615686 0.941176 0.823529 0.615686 0.941176 0.823529 
0.615686 0.941176 0.823529 0.615686 0.941176 0.823529 
0.615686 0.941176 0.823529 0.615686 0.941176 0.823529 
0.615686 0.941176 0.823529 0.615686 0.941176 0.823529 
0.615686 0.941176 0.823529 0.615686 0.941176 0.823529 
0.615686 0.941176 0.823529 0.615686 0.941176 0.823529 
0.615686 0.941176 0.823529 0.615686 0.941176 0.823529 
0.615686 0.941176 0.823529 0.615686 0.941176 0.823529 
0.615686 0.941176 0.823529 0.615686 0.941176 0.823529 
0.615686 0.941176 0.823529 0.615686 0.941176 0.823529 
0.615686 0.941176 0.823529 0.615686 0.941176 0.823529 
0.615686 0.941176 0.823529 0.615686 0.941176 0.823529 
0.615686 0.941176 0.823529 0.615686 0.941176 0.823529 
0.615686 0.941176 0.823529 0.615686 0.941176 0.823529 
0.615686 0.941176 0.823529 0.615686 0.941176 0.823529 
0.615686 0.941176 0.823529 0.615686 0.941176 0.823529 
0.615686 0.941176 0.823529 0.615686 0.941176 0.823529 
0.615686 0.941176 0.823529 0.615686 0.941176 0.823529 
0.615686 0.941176 0.823529 0.615686 0.941176 0.823529 
0.615686 0.941176 0.823529 0.615686 0.941176 0.823529 
0.615686 0.941176 0.823529 0.615686 0.941176 0.823529 
0.615686 0.941176 0.823529 0.615686 0.941176 0.823529 
0.615686 0.941176 0.823529 0.615686 0.941176 0.823529 
0.615686 0.941176 0.823529 0.615686 0.941176 0.823529 
0.615686 0.941176 0.823529 0.615686 0.941176 0.823529 
0.615686 0.941176 0.823529 0.615686 0.941176 0.823529 
0.615686 0.941176 0.823529 0.615686 0.941176 0.823529 
0.615686 0.941176 0.823529 0.615686 0.941176 0.823529 
0.615686 0.941176 0.823529 0.615686 0.941176 0.823529 
0.615686 0.941176 0.823529 0.615686 0.941176 0.823529 
0.615686 0.941176 0.823529 0.615686 0.941176 0.823529 
0.615686 0.941176 0.823529 0.615686 0.941176 0.823529 
0.615686 0.941176 0.823529 0.615686 0.941176 0.823529 
0.615686 0.941176 0.823529 0.615686 0.941176 0.823529 
0.615686 0.941176 0.823529 0.615686 0.941176 0.823529 
0.615686 0.941176 0.823529 0.615686 0.941176 0.823529 
0.615686 0.941176 0.823529 0.615686 0.941176 0.823529 
0.615686 0.941176 0.823529 0.615686 0.941176 0.823529 
0.615686 0.941176 0.823529 0.615686 0.941176 0.823529 
0.615686 0.941176 0.823529 0.615686 0.941176 0.823529 
0.615686 0.941176 0.823529 0.615686 0.941176 0.823529 
0.615686 0.941176 0.823529 0.615686 0.941176 0.823529 
0.615686 0.941176 0.823529 0.615686 0.941176 0.823529 
0.615686 0.941176 0.823529 0.615686 0.941176 0.823529 
0.615686 0.941176 0.823529 0.615686 0.941176 0.823529 
0.615686 0.941176 0.823529 0.615686 0.941176 0.823529 
0.615686 0.941176 0.823529 0.615686 0.941176 0.823529 
0.615686 0.941176 0.823529 0.615686 0.941176 0.823529 
0.615686 0.941176 0.823529 0.615686 0.941176 0.823529 
0.615686 0.941176 0.823529 0.615686 0.941176 0.823529 
0.615686 0.941176 0.823529 0.615686 0.941176 0.823529 
0.615686 0.941176 0.823529 0.615686 0.941176 0.823529 
0.615686 0.941176 0.823529 0.615686 0.941176 0.823529 
0.615686 0.941176 0.823529 0.615686 0.941176 0.823529 
0.615686 0.941176 0.823529 0.615686 0.941176 0.823529 
0.615686 0.941176 0.823529 0.615686 0.941176 0.823529 
0.615686 0.941176 0.823529 0.615686 0.941176 0.823529 
0.615686 0.941176 0.823529 0.615686 0.941176 0.823529 
0.615686 0.941176 0.823529 0.615686 0.941176 0.823529 
0.615686 0.941176 0.823529 0.615686 0.941176 0.823529 
0.615686 0.941176 0.823529 0.615686 0.941176 0.823529 
0.615686 0.941176 0.823529 0.615686 0.941176 0.823529 
0.615686 0.941176 0.823529 0.615686 0.941176 0.823529 
0.615686 0.941176 0.823529 0.615686 0.941176 0.823529 
0.615686 0.941176 0.823529 0.615686 0.941176 0.823529 
0.615686 0.941176 0.823529 0.615686 0.941176 0.823529 
0.615686 0.941176 0.823529 0.615686 0.941176 0.823529 
0.615686 0.941176 0.823529 0.615686 0.941176 0.823529 
0.615686 0.941176 0.823529 0.615686 0.941176 0.823529 
0.615686 0.941176 0.823529 0.615686 0.941176 0.823529 
0.615686 0.941176 0.823529 0.615686 0.941176 0.823529 
0.615686 0.941176 0.823529 0.615686 0.941176 0.823529 
0.615686 0.941176 0.823529 0.615686 0.941176 0.823529 
0.615686 0.941176 0.823529 0.615686 0.941176 0.823529 
0.615686 0.941176 0.823529 0.615686 0.941176 0.823529 
0.615686 0.941176 0.823529 0.615686 0.941176 0.823529 
0.615686 0.941176 0.823529 0.615686 0.941176 0.823529 
0.615686 0.941176 0.823529 0.615686 0.941176 0.823529 
0.615686 0.941176 0.823529 0.615686 0.941176 0.823529 
0.615686 0.941176 0.823529 0.615686 0.941176 0.823529 
0.615686 0.941176 0.823529 0.615686 0.941176 0.823529 
0.615686 0.941176 0.823529 0.615686 0.941176 0.823529 
0.615686 0.941176 0.823529 0.615686 0.941176 0.823529 
0.615686 0.941176 0.823529 0.615686 0.941176 0.823529 
0.615686 0.941176 0.823529 0.615686 0.941176 0.823529 
0.615686 0.941176 0.823529 0.615686 0.941176 0.823529 
0.615686 0.941176 0.823529 0.615686 0.941176 0.823529 
0.615686 0.941176 0.823529 0.615686 0.941176 0.823529 
0.615686 0.941176 0.823529 0.615686 0.941176 0.823529 
0.615686 0.941176 0.823529 0.615686 0.941176 0.823529 
0.615686 0.941176 0.823529 0.615686 0.941176 0.823529 
0.615686 0.941176 0.823529 0.615686 0.941176 0.823529 
0.615686 0.941176 0.823529 0.615686 0.941176 0.823529 
0.615686 0.941176 0.823529 0.615686 0.941176 0.823529 
0.615686 0.941176 0.823529 0.615686 0.941176 0.823529 
0.615686 0.941176 0.823529 0.615686 0.941176 0.823529 
0.615686 0.941176 0.823529 0.615686 0.941176 0.823529 
0.615686 0.941176 0.823529 0.615686 0.941176 0.823529 
0.615686 0.941176 0.823529 0.615686 0.941176 0.823529 
0.615686 0.941176 0.823529 0.615686 0.941176 0.823529 
0.615686 0.941176 0.823529 0.615686 0.941176 0.823529 
0.615686 0.941176 0.823529 0.615686 0.941176 0.823529 
0.615686 0.941176 0.823529 0.615686 0.941176 0.823529 
0.615686 0.941176 0.823529 0.615686 0.941176 0.823529 
0.615686 0.941176 0.823529 0.615686 0.941176 0.823529 
0.615686 0.941176 0.823529 0.615686 0.941176 0.823529 
0.615686 0.941176 0.823529 0.615686 0.941176 0.823529 
0.615686 0.941176 0.823529 0.615686 0.941176 0.823529 
0.615686 0.941176 0.823529 0.615686 0.941176 0.823529 
0.615686 0.941176 0.823529 0.615686 0.941176 0.823529 
0.615686 0.941176 0.823529 0.615686 0.941176 0.823529 
0.615686 0.941176 0.823529 0.615686 0.941176 0.823529 
0.615686 0.941176 0.823529 0.615686 0.941176 0.823529 
0.615686 0.941176 0.823529 0.615686 0.941176 0.823529 
0.615686 0.941176 0.823529 0.615686 0.941176 0.823529 
0.615686 0.941176 0.823529 0.615686 0.941176 0.823529 
0.615686 0.941176 0.823529 0.615686 0.941176 0.823529 
0.615686 0.941176 0.823529 0.615686 0.941176 0.823529 
0.615686 0.941176 0.823529 0.615686 0.941176 0.823529 
0.615686 0.941176 0.823529 0.615686 0.941176 0.823529 
0.615686 0.941176 0.823529 0.615686 0.941176 0.823529 
0.615686 0.941176 0.823529 0.615686 0.941176 0.823529 
0.615686 0.941176 0.823529 0.615686 0.941176 0.823529 
0.615686 0.941176 0.823529 0.615686 0.941176 0.823529 
0.615686 0.941176 0.823529 0.615686 0.941176 0.823529 
0.615686 0.941176 0.823529 0.615686 0.941176 0.823529 
0.615686 0.941176 0.823529 0.615686 0.941176 0.823529 
0.615686 0.941176 0.823529 0.615686 0.941176 0.823529 
0.615686 0.941176 0.823529 0.615686 0.941176 0.823529 
0.615686 0.941176 0.823529 0.615686 0.941176 0.823529 
0.615686 0.941176 0.823529 0.615686 0.941176 0.823529 
0.615686 0.941176 0.823529 0.615686 0.941176 0.823529 
0.615686 0.941176 0.823529 0.615686 0.941176 0.823529 
0.615686 0.941176 0.823529 0.615686 0.941176 0.823529 
0.615686 0.941176 0.823529 0.615686 0.941176 0.823529 
0.615686 0.941176 0.823529 0.615686 0.941176 0.823529 
0.615686 0.941176 0.823529 0.615686 0.941176 0.823529 
0.615686 0.941176 0.823529 0.615686 0.941176 0.823529 
0.615686 0.941176 0.823529 0.615686 0.941176 0.823529 
0.615686 0.941176 0.823529 0.615686 0.941176 0.823529 
0.615686 0.941176 0.823529 0.615686 0.941176 0.823529 
0.615686 0.941176 0.823529 0.615686 0.941176 0.823529 
0.615686 0.941176 0.823529 0.615686 0.941176 0.823529 
0.615686 0.941176 0.823529 0.615686 0.941176 0.823529 
0.615686 0.941176 0.823529 0.615686 0.941176 0.823529 
0.615686 0.941176 0.823529 0.615686 0.941176 0.823529 
0.615686 0.941176 0.823529 0.615686 0.941176 0.823529 
0.615686 0.941176 0.823529 0.615686 0.941176 0.823529 
0.615686 0.941176 0.823529 0.615686 0.941176 0.823529 
0.615686 0.941176 0.823529 0.615686 0.941176 0.823529 
0.615686 0.941176 0.823529 0.615686 0.941176 0.823529 
0.615686 0.941176 0.823529 0.615686 0.941176 0.823529 
0.615686 0.941176 0.823529 0.615686 0.941176 0.823529 
0.615686 0.941176 0.823529 0.615686 0.941176 0.823529 
0.615686 0.941176 0.823529 0.615686 0.941176 0.823529 
0.615686 0.941176 0.823529 0.615686 0.941176 0.823529 
0.615686 0.941176 0.823529 0.615686 0.941176 0.823529 
0.615686 0.941176 0.823529 0.615686 0.941176 0.823529 
0.615686 0.941176 0.823529 0.615686 0.941176 0.823529 
0.615686 0.941176 0.823529 0.615686 0.941176 0.823529 
0.615686 0.941176 0.823529 0.615686 0.941176 0.823529 
0.615686 0.941176 0.823529 0.615686 0.941176 0.823529 
0.615686 0.941176 0.823529 0.615686 0.941176 0.823529 
0.615686 0.941176 0.823529 0.615686 0.941176 0.823529 
0.615686 0.941176 0.823529 0.615686 0.941176 0.823529 
0.615686 0.941176 0.823529 0.615686 0.941176 0.823529 
0.615686 0.941176 0.823529 0.615686 0.941176 0.823529 
0.615686 0.941176 0.823529 0.615686 0.941176 0.823529 
0.615686 0.941176 0.823529 0.615686 0.941176 0.823529 
0.615686 0.941176 0.823529 0.615686 0.941176 0.823529 
0.615686 0.941176 0.823529 0.615686 0.941176 0.823529 
0.615686 0.941176 0.823529 0.615686 0.941176 0.823529 
0.615686 0.941176 0.823529 0.615686 0.941176 0.823529 
0.615686 0.941176 0.823529 0.615686 0.941176 0.823529 
0.615686 0.941176 0.823529 0.615686 0.941176 0.823529 
0.615686 0.941176 0.823529 0.615686 0.941176 0.823529 
0.615686 0.941176 0.823529 0.615686 0.941176 0.823529 
0.615686 0.941176 0.823529 0.615686 0.941176 0.823529 
0.615686 0.941176 0.823529 0.615686 0.941176 0.823529 
0.615686 0.941176 0.823529 0.615686 0.941176 0.823529 
0.615686 0.941176 0.823529 0.615686 0.941176 0.823529 
0.615686 0.941176 0.823529 0.615686 0.941176 0.823529 
0.615686 0.941176 0.823529 0.615686 0.941176 0.823529 
0.615686 0.941176 0.823529 0.615686 0.941176 0.823529 
0.615686 0.941176 0.823529 0.615686 0.941176 0.823529 
0.615686 0.941176 0.823529 0.615686 0.941176 0.823529 
0.615686 0.941176 0.823529 0.615686 0.941176 0.823529 
0.615686 0.941176 0.823529 0.615686 0.941176 0.823529 
0.615686 0.941176 0.823529 0.615686 0.941176 0.823529 
0.615686 0.941176 0.823529 0.615686 0.941176 0.823529 
0.615686 0.941176 0.823529 0.615686 0.941176 0.823529 
0.615686 0.941176 0.823529 0.615686 0.941176 0.823529 
0.615686 0.941176 0.823529 0.615686 0.941176 0.823529 
0.615686 0.941176 0.823529 0.615686 0.941176 0.823529 
0.615686 0.941176 0.823529 0.615686 0.941176 0.823529 
0.615686 0.941176 0.823529 0.615686 0.941176 0.823529 
0.615686 0.941176 0.823529 0.615686 0.941176 0.823529 
0.615686 0.941176 0.823529 0.615686 0.941176 0.823529 
0.615686 0.941176 0.823529 0.615686 0.941176 0.823529 
0.615686 0.941176 0.823529 0.615686 0.941176 0.823529 
0.615686 0.941176 0.823529 0.615686 0.941176 0.823529 
0.615686 0.941176 0.823529 0.615686 0.941176 0.823529 
0.615686 0.941176 0.823529 0.615686 0.941176 0.823529 
0.615686 0.941176 0.823529 0.615686 0.941176 0.823529 
0.615686 0.941176 0.823529 0.615686 0.941176 0.823529 
0.615686 0.941176 0.823529 0.615686 0.941176 0.823529 
0.615686 0.941176 0.823529 0.615686 0.941176 0.823529 
0.615686 0.941176 0.823529 0.615686 0.941176 0.823529 
0.615686 0.941176 0.823529 0.615686 0.941176 0.823529 
0.615686 0.941176 0.823529 0.615686 0.941176 0.823529 
0.615686 0.941176 0.823529 0.615686 0.941176 0.823529 
0.615686 0.941176 0.823529 0.615686 0.941176 0.823529 
0.615686 0.941176 0.823529 0.615686 0.941176 0.823529 
0.615686 0.941176 0.823529 0.615686 0.941176 0.823529 
0.615686 0.941176 0.823529 0.615686 0.941176 0.823529 
0.615686 0.941176 0.823529 0.615686 0.941176 0.823529 
0.615686 0.941176 0.823529 0.615686 0.941176 0.823529 
0.615686 0.941176 0.823529 0.615686 0.941176 0.823529 
0.615686 0.941176 0.823529 0.615686 0.941176 0.823529 
0.615686 0.941176 0.823529 0.615686 0.941176 0.823529 
0.615686 0.941176 0.823529 0.615686 0.941176 0.823529 
0.615686 0.941176 0.823529 0.615686 0.941176 0.823529 
0.615686 0.941176 0.823529 0.615686 0.941176 0.823529 
0.615686 0.941176 0.823529 0.615686 0.941176 0.823529 
0.615686 0.941176 0.823529 0.615686 0.941176 0.823529 
0.615686 0.941176 0.823529 0.615686 0.941176 0.823529 
0.615686 0.941176 0.823529 0.615686 0.941176 0.823529 
0.615686 0.941176 0.823529 0.615686 0.941176 0.823529 
0.615686 0.941176 0.823529 0.615686 0.941176 0.823529 
0.615686 0.941176 0.823529 0.615686 0.941176 0.823529 
0.615686 0.941176 0.823529 0.615686 0.941176 0.823529 
0.615686 0.941176 0.823529 0.615686 0.941176 0.823529 
0.615686 0.941176 0.823529 0.615686 0.941176 0.823529 
0.615686 0.941176 0.823529 0.615686 0.941176 0.823529 
0.615686 0.941176 0.823529 0.615686 0.941176 0.823529 
0.615686 0.941176 0.823529 0.615686 0.941176 0.823529 
0.615686 0.941176 0.823529 0.615686 0.941176 0.823529 
0.615686 0.941176 0.823529 0.615686 0.941176 0.823529 
0.615686 0.941176 0.823529 0.615686 0.941176 0.823529 
0.615686 0.941176 0.823529 0.615686 0.941176 0.823529 
0.615686 0.941176 0.823529 0.615686 0.941176 0.823529 
0.615686 0.941176 0.823529 0.615686 0.941176 0.823529 
0.615686 0.941176 0.823529 0.615686 0.941176 0.823529 
0.615686 0.941176 0.823529 0.615686 0.941176 0.823529 
0.615686 0.941176 0.823529 0.615686 0.941176 0.823529 
0.615686 0.941176 0.823529 0.615686 0.941176 0.823529 
0.615686 0.941176 0.823529 0.615686 0.941176 0.823529 
0.615686 0.941176 0.823529 0.615686 0.941176 0.823529 
0.615686 0.941176 0.823529 0.615686 0.941176 0.823529 
0.615686 0.941176 0.823529 0.615686 0.941176 0.823529 
0.615686 0.941176 0.823529 0.615686 0.941176 0.823529 
0.615686 0.941176 0.823529 0.615686 0.941176 0.823529 
0.615686 0.941176 0.823529 0.615686 0.941176 0.823529 
0.615686 0.941176 0.823529 
NORMALS Normals float
-0.0477315 -0.0889026 -0.994896 -0.260014 -0.317354 -0.911965 -0.253011 -0.110541 -0.961128 
0.0984807 -0.389309 -0.915828 -0.408023 -0.0889707 -0.908626 0.41587 -0.278988 -0.865574 
-0.0122119 -0.127823 -0.991722 0.254892 -0.226102 -0.940164 -0.404132 0.161874 -0.900264 
0.110252 -0.0258305 -0.993568 -0.446792 0.266917 -0.853892 0.201755 -0.0702962 -0.97691 
-0.245591 0.158105 -0.956393 0.0251316 0.000247799 -0.999684 0.342114 -0.0539606 -0.938108 
0.182057 0.022148 -0.983038 0.114962 0.0264724 -0.993017 -0.189306 0.218575 -0.957282 
0.117782 0.0976616 -0.988225 -0.283037 -0.431472 -0.856576 -0.28072 -0.319683 -0.904986 
-0.0102261 -0.435092 -0.900328 0.45151 -0.577166 -0.680455 -0.575778 -0.190015 -0.79522 
0.406532 -0.440703 -0.80032 -0.63033 0.0485567 -0.774808 0.329007 -0.473373 -0.817112 
-0.613501 -0.0418595 -0.788583 0.729917 -0.395881 -0.557224 -0.759208 0.281267 -0.586934 
0.59695 -0.215264 -0.772859 -0.645223 0.419771 -0.638341 0.525515 -0.232771 -0.818323 
-0.287966 0.415814 -0.862656 -0.405135 0.3926 -0.82567 -0.328711 0.299365 -0.895728 
0.230734 -0.108556 -0.966942 0.530063 -0.41316 -0.740495 -0.379259 0.336407 -0.861971 
-0.364351 0.49353 -0.789732 0.146198 0.21971 -0.964548 -0.411629 -0.411556 -0.813132 
-0.142364 -0.603209 -0.784775 -0.0473149 -0.51919 -0.853348 0.121664 -0.641449 -0.757457 
0.726771 -0.488196 -0.483186 -0.802087 0.041411 -0.595769 -0.74483 0.381263 -0.547601 
0.584206 -0.450372 -0.67518 0.37197 -0.102511 -0.922567 -0.555023 0.560774 -0.614395 
0.534161 -0.0448481 -0.844192 0.216693 0.280509 -0.935072 0.462049 0.157376 -0.872779 
-0.222305 0.591296 -0.775209 0.211141 0.435788 -0.874933 -0.379613 -0.677681 -0.629796 
0.233697 -0.763004 -0.60267 -0.818831 0.213269 -0.532947 0.818608 -0.398376 -0.413736 
0.586297 -0.408837 -0.699363 -0.713272 0.478164 -0.512448 0.525742 0.166471 -0.834196 
-0.125738 0.727588 -0.674393 -0.335779 0.793983 -0.506798 0.0332737 0.651046 -0.758308 
0.458905 0.44545 -0.768753 0.300231 0.636023 -0.71087 -0.038228 -0.854436 -0.518148 
-0.822586 -0.200079 -0.532278 0.775931 -0.411219 -0.478361 -0.749217 0.512514 -0.419528 
-0.667963 0.566217 -0.482932 0.711509 -0.154811 -0.685411 0.692602 0.0979725 -0.714635 
0.746113 0.260089 -0.612918 0.365143 0.730125 -0.577571 0.0682713 -0.917219 -0.39249 
-0.931356 -0.0950669 -0.351481 -0.946464 0.201912 -0.251867 -0.872697 0.397541 -0.283481 
0.607075 -0.553731 -0.569949 -0.802602 0.557486 -0.212226 -0.629363 0.704118 -0.328814 
0.854437 -0.0694528 -0.514891 -0.553244 0.750082 -0.362352 0.708162 0.372756 -0.599632 
-0.138374 0.900052 -0.41323 0.41829 0.790153 -0.447987 0.358075 0.871644 -0.334694 
-0.303956 -0.909198 -0.284553 -0.0816344 -0.97898 -0.186905 0.335303 -0.848116 -0.410208 
0.279556 -0.940971 -0.190846 -0.575562 -0.738228 -0.351777 0.435282 -0.848605 -0.300665 
0.650781 -0.715811 -0.253178 -0.880304 -0.418897 -0.222688 0.831775 -0.522653 -0.187042 
0.401226 -0.686812 -0.606058 0.85542 -0.429842 -0.28895 0.833401 0.427995 -0.349661 
0.577513 0.6911 -0.43458 0.363082 0.874109 -0.322653 -0.877469 -0.479453 -0.0131118 
-0.947032 -0.320256 -0.0237898 -0.97528 0.10956 -0.191902 0.871771 -0.438921 -0.21763 
0.879673 -0.364818 -0.305097 0.967546 -0.140125 -0.210285 -0.540282 0.836033 -0.0956277 
0.904554 0.274611 -0.326144 0.607275 0.768566 -0.201304 0.0424729 0.992841 -0.111637 
-0.388491 -0.916498 -0.0954266 -0.104539 -0.994447 -0.0121052 0.0258845 -0.992051 -0.123142 
-0.731818 -0.676238 -0.0845235 -0.989464 -0.135058 -0.0521652 -0.823117 0.547562 -0.15051 
0.398539 -0.917085 -0.0109928 0.789199 -0.535608 -0.300482 0.994194 0.107477 0.00516503 
-0.284997 0.958527 -0.00178403 -0.980491 -0.194074 0.0311795 -0.379626 0.913862 0.144017 
0.683563 0.729624 -0.0197683 -0.511645 -0.848029 0.138079 -0.950072 -0.307777 0.05135 
-0.81366 -0.564764 0.137835 -0.773651 0.632729 -0.0334186 0.952536 0.254493 -0.167058 
0.826654 0.506296 0.245576 0.672343 0.725826 -0.145366 0.0904568 0.990718 0.101469 
0.740121 -0.672119 0.021853 -0.957844 -0.239602 0.158513 -0.996222 0.0730554 0.0469466 
-0.700223 0.703025 0.124269 -0.626037 0.737422 0.253548 -0.136576 0.947981 0.287541 
0.603427 0.736417 0.305884 -0.293476 -0.926417 0.235846 -0.70245 -0.621489 0.346864 
-0.829076 -0.462528 0.314166 -0.764361 0.631333 0.13104 0.876838 -0.449075 0.171715 
-0.744226 0.658169 0.11376 0.938995 -0.315398 0.137162 0.938494 -0.139473 0.315874 
0.967773 -0.235328 0.0896467 0.912843 0.183779 0.364612 -0.366284 0.892631 0.262764 
-0.0196919 0.941846 0.335466 0.123614 0.851065 0.510302 0.233337 0.930899 0.281035 
0.0116663 -0.986473 0.16351 -0.912153 -0.300096 0.279139 -0.950812 -0.0372758 0.307518 
0.536367 0.711405 0.454107 0.616391 0.577904 0.534873 -0.568646 -0.600577 0.562094 
-0.242061 -0.841886 0.482321 0.476815 -0.855012 0.203968 -0.916085 0.353105 0.190013 
0.881831 -0.446862 0.150626 0.854138 0.0916075 0.511914 0.713728 0.385816 0.584583 
-0.208188 0.829669 0.517984 -0.28495 -0.77574 0.563055 0.150682 -0.836623 0.526648 
0.254947 -0.822958 0.507683 0.42554 -0.75656 0.49652 0.734076 -0.622151 0.272142 
-0.759147 0.584399 0.286661 -0.670982 0.612217 0.418299 0.852497 -0.256692 0.455366 
0.705883 0.262946 0.657715 0.577248 0.529277 0.621812 -0.097826 0.724571 0.682222 