# vtk DataFile Version 4.2
vtk output
ASCII
DATASET POLYDATA
POINTS 3308 float
116.23 200.641 143.078 116.566 200.434 143.178 115.67 201.712 143.019 
116.137 202.23 142.974 116.599 201.817 143.089 115.652 206.363 143.126 
115.71 207.253 143.226 117.114 205.977 143.338 116.245 208.45 143.291 
115.945 208.653 143.407 116.226 208.942 143.404 116.628 208.976 143.442 
116.682 209.535 143.613 116.517 209.706 143.695 117.082 209.46 143.734 
115.755 197.026 143.922 116.267 196.475 144.178 116.673 196.685 144.224 
116.161 198.433 143.578 117.049 197.616 144.083 115.291 199.24 143.443 
116.599 199.208 143.517 117.135 199.768 143.721 114.565 202.452 143.376 
117.458 202.559 143.682 115.119 205.83 143.263 115.276 207.648 143.534 
115.506 208.555 143.672 115.293 209.457 144.394 116.035 210.299 144.432 
117.578 210.177 144.2 116.955 211.138 144.675 117.715 210.922 144.498 
117.518 211.306 144.682 115.651 195.176 144.811 116.514 195.716 144.648 
117.276 197.209 144.438 117.605 197.511 144.816 118.148 202.182 144.802 
113.613 205.11 144.252 113.931 207.346 144.614 118.776 210.109 144.964 
118.016 211.863 145.075 119.367 211.902 145.43 119.467 212.922 145.706 
119.188 213.74 145.978 113.48 194.853 145.38 114.557 195.247 144.896 
117.133 195.618 145.12 112.495 200.271 144.965 112.707 204.111 145.029 
113.341 206.354 144.936 114.121 208.536 145.17 115.611 210.866 145.64 
118.61 213.957 146.349 120.227 213.832 146.449 115.22 192.439 146.506 
114.823 192.699 146.287 113.037 193.196 146.299 116.866 193.597 146.291 
117.72 213.485 146.579 120.624 212.858 146.804 120.445 215.488 147.558 
114.851 191.496 147.227 115.975 191.371 147.605 116.405 191.502 147.721 
111.444 192.811 147.134 117.396 194.239 146.39 117.971 194.888 147.141 
110.922 198.711 146.423 112.426 207.245 147.027 120.524 210.556 147.365 
115.754 211.733 146.868 117.077 213.212 146.996 120.803 212.609 147.147 
118.857 215.207 147.507 121.23 214.998 148.194 120.033 215.86 147.683 
120.594 216.54 148.251 120.537 216.801 148.473 120.803 216.382 148.31 
115.922 190.122 148.629 111.355 191.572 147.756 110.492 192.293 147.805 
110.008 195.61 147.33 121.804 214.376 149.124 119.85 216.299 148.111 
119.535 216.56 148.616 120.017 216.693 148.449 120.324 216.884 148.578 
120.679 217.19 149.037 112.044 190.162 148.408 109.602 191.133 148.674 
116.962 190.869 148.85 108.958 194.494 148.176 119.795 204.732 148.982 
121.384 217.289 149.654 120.97 218.098 149.943 121.236 219.003 150.563 
121.357 218.672 150.434 112.432 188.021 149.836 117.727 190.887 150.054 
122.161 213.684 150.333 119.989 219.022 151.075 122.26 218.821 151.448 
121.375 219.963 151.348 105.261 194.836 150.718 105.673 198.018 151.067 
109.864 205.577 150.607 122.456 219.191 151.942 121.269 220.591 152.002 
115.187 186.176 151.919 103.933 188.497 151.966 122.906 217.225 152.326 
121.331 221.289 152.724 122.197 220.61 152.657 122.622 220.38 153.271 
121.628 221.496 153.08 117.854 188.02 153.105 102.863 193.75 152.527 
121.103 221.488 153.042 121.504 222.26 153.849 122.025 221.817 153.768 
122.6 221.37 154.221 117.151 186.005 153.959 100.34 190.17 154.012 
119.457 195.979 153.657 104.231 199.553 153.335 118.982 220.685 153.86 
119.852 222.085 154.551 121.78 223.048 154.844 121.615 223.284 155.038 
122.139 222.797 154.926 121.908 223.562 155.531 115.941 183.523 155.253 
116.113 183.881 155 118.844 189.939 154.981 111.351 211.428 154.908 
123.476 219.453 155.421 121.312 223.446 155.249 121.751 224.225 156.042 
121.533 224.393 156.122 97.439 182.188 155.877 111.939 181.312 155.944 
97.7702 186.534 155.322 97.331 188.008 155.684 123.194 222.863 157.012 
122.53 224.051 156.67 121.64 225.178 156.937 121.442 225.333 157.034 
97.0803 179.981 156.631 103.087 179.732 156.333 118.386 186.046 156.961 
96.6139 189.686 156.452 103.424 202.431 156.524 123.448 213.387 156.404 
120.635 225.696 157.749 121.572 226.021 157.799 121.379 226.166 157.908 
122.019 225.917 158.011 93.1725 177.83 158.075 104.809 178.103 157.874 
116.224 181.7 157.731 97.5916 195.007 157.573 118.936 224.863 158.146 
121.689 227.105 159.235 90.766 176.499 159.021 92.38 176.347 158.7 
115.348 180.194 158.841 117.176 181.924 158.824 123.193 225.818 159.722 
121.119 227.318 159.437 122.151 227.346 159.901 90.3675 174.29 159.768 
91.8861 173.484 159.952 94.9359 174.034 159.745 97.8136 174.792 159.616 
88.3858 179.152 159.583 117.537 182.338 159.008 118.153 183.087 159.828 
118.753 184.965 159.93 123.175 226.875 160.701 121.387 228.151 160.478 
121.952 228.009 160.512 87.6556 173.232 160.577 107.503 214.026 160.911 
123.841 225.018 160.723 121.518 229.684 162.053 87.0559 170.196 161.573 
93.7802 170.931 161.774 120.112 229.548 162.183 122.068 230.135 162.551 
81.4414 165.937 163.576 81.6409 165.396 163.752 82.1283 165.381 163.624 
83.6419 166.304 163.126 80.9724 167.484 163.316 82.1753 169.721 162.476 
82.2958 182.693 162.921 119.595 186.063 163.047 124.792 222.8 163.13 
115.241 225.889 162.961 123.448 230.102 163.39 80.5686 164.705 164.719 
82.4812 164.09 164.499 80.0518 166.059 164.32 87.9426 165.696 164.185 
79.5458 178.984 164.059 116.729 227.806 163.234 124.782 227.433 164.195 
118.294 229.765 163.654 124.319 230.182 164.358 123.558 231.449 164.207 
123.472 232.046 164.436 121.933 233.335 164.771 83.2485 162.824 166.101 
80.1451 164.108 165.716 85.0611 163.093 165.912 86.5775 164.039 165.304 
89.8354 164.977 165.687 78.8897 166.032 165.343 78.7781 165.739 165.71 
78.6136 167.385 164.994 77.5277 169.98 165.768 78.0714 174.6 164.857 
116.389 177.138 164.146 82.9728 191.567 165.104 121.465 233.476 164.988 
123.336 233.674 165.183 124.224 234.171 165.641 124.282 235.313 165.997 
127.76 240.423 166.345 129.045 240.346 166.371 128.978 242.517 166.39 
81.8312 162.763 166.9 80.728 163.316 166.599 78.5574 165.753 166.142 
102.368 169.935 165.933 116.617 176.354 165.665 117.143 176.879 165.824 
125.291 229.181 165.361 125.15 235.383 166.208 124.205 237.437 166.655 
126.304 237.886 166.581 127.641 241.177 166.375 127.033 241.26 166.695 
127.879 242.002 166.471 130.194 241.864 166.518 129.324 244.277 167.079 
129.851 244.658 167.261 130.283 244.538 167.33 80.0848 163.597 167.588 
78.5879 165.166 167.363 118.166 178.095 166.813 77.1929 178.919 166.422 
120.927 187.866 166.973 79.8441 190.98 166.994 126.091 232.865 166.491 
125.556 234.154 166.236 129.248 238.795 166.905 129.291 239.723 166.57 
131.654 242.353 167.771 128.782 243.975 167.016 131.073 243.665 167.5 
128.974 245.436 167.65 130.889 244.673 167.715 129.071 245.995 167.852 
129.796 246.54 168.051 130.311 246.274 168.079 129.454 247.208 168.381 
77.4185 167.202 167.545 78.6813 190.163 167.728 126.505 222.096 167.829 
126.651 231.524 166.894 130.226 239.25 167.228 132.126 243.722 168.461 
128.599 245.789 167.924 129.461 248.04 169.042 84.2324 161.894 169.1 
81.8838 162.547 168.73 88.9096 162.412 168.996 116.351 174.625 167.914 
80.7488 198.085 169.023 127.454 222.38 169.593 127.651 245.84 168.497 
127.584 247.646 169.801 131.507 247.338 169.416 128.949 248.357 169.507 
129.396 249.174 170.149 130.118 249.019 169.988 130.345 249.229 170.335 
79.9436 163.727 169.807 89.8305 162.3 169.857 78.6009 165.071 170.057 
77.5291 166.42 169.273 75.7686 184.759 170.523 76.4492 189.148 170.255 
128.489 223.217 170.652 129.748 226.414 170.123 130.609 226.289 170.919 
129.796 233.486 168.553 133.608 239.884 169.649 133.316 242.543 169.593 
133.92 242.2 170.174 87.7975 161.729 171.08 79.7271 164.172 170.901 
76.0939 168.97 171.047 114.705 171.717 170.949 75.1491 176.377 170.865 
118.372 176.082 170.854 78.6861 199.905 171.199 83.6777 205.031 170.134 
134.951 235.5 170.435 134.971 240.835 170.704 135.032 241.872 171.038 
131.462 249.118 171.041 130.024 250.113 171.461 80.4765 164.202 172.393 
115.978 172.088 171.762 77.15 198.735 172.4 77.9728 198.787 171.453 
125.117 200.844 171.971 138.835 232.563 171.924 139.758 232.697 172.083 
141.604 233.537 172.263 140.079 235.077 171.623 143.612 234.78 172.702 
139.935 235.974 171.53 143.694 236.262 172.623 142.959 237.321 172.291 
136.007 239.627 170.974 140.393 238.57 171.775 125.784 248.03 171.753 
127.306 249.554 171.985 90.6247 161.494 173.088 91.9468 161.422 173.769 
86.8078 161.851 173.34 93.5806 161.718 173.915 116.263 172.188 172.018 
117.529 173.515 172.435 79.0469 205.547 173.136 92.6174 218.737 172.995 
134.185 228.478 172.164 137.675 229.415 173.142 142.49 231.607 173.523 
141.278 232.104 172.772 144.111 232.357 174.042 144.308 233.289 173.686 
144.642 233.303 173.974 144.753 234.22 173.715 144.669 235.592 173.467 
144.623 237.425 173.448 143.947 238.65 173.071 141.531 240.728 172.706 
144.292 240.742 174.308 140.952 242.221 173.349 135.904 244.011 172.795 
128.885 251.337 173.426 78.8948 165.573 173.675 75.9238 198.592 174.689 
77.6531 204.049 173.797 128.264 219.391 174.44 141.835 229.818 174.681 
143.546 231.481 174.265 144.889 233.625 174.129 145.104 234.082 174.367 
145.29 235.624 174.436 145.283 237.482 174.49 144.87 239.792 174.35 
144.936 239.94 174.714 143.006 242.366 174.362 141.126 243.366 174.292 
130.62 251.961 174.606 75.0636 171.176 174.486 76.0151 201.653 175.701 
76.518 204.817 175.995 143.257 230.711 174.922 144.911 233.113 174.807 
145.545 236.052 175.434 145.333 239.067 175.619 140.367 244.509 175.155 
131.249 251.931 175.059 125.926 202.736 175.411 77.4312 207.661 175.788 
126.45 209.149 175.788 79.2893 211.173 175.755 126.803 213.052 175.873 
81.5967 214.229 175.962 144.055 231.36 175.632 144.794 232.511 176.119 
118.207 244.892 175.876 133.054 250.729 175.85 132.163 251.595 175.677 
92.9012 160.807 177.262 76.4843 168.836 176.478 114.785 169.297 176.378 
116.174 170.417 175.892 74.4789 174.523 177.146 125.227 198.091 177.043 
126.641 212.17 176.757 78.0611 211.824 178 79.0527 213.338 177.695 
81.3025 215.635 177.265 127.603 216.45 176.817 130.35 220.682 176.763 
141.266 228.179 176.938 142.827 229.521 177.146 145.405 235.171 176.826 
145.364 238.846 177.082 113.138 242.815 177.775 143.166 244.447 176.99 
[...]
POINT_DATA 3308
COLOR_SCALARS scalars 3
0.329412 0.74902 0.580392 0.329412 0.74902 0.580392 0.329412 0.74902 0.580392 
0.329412 0.74902 0.580392 0.329412 0.74902 0.580392 
0.329412 0.74902 0.580392 0.329412 0.74902 0.580392 
0.329412 0.74902 0.580392 0.329412 0.74902 0.580392 
0.329412 0.74902 0.580392 0.329412 0.74902 0.580392 
0.329412 0.74902 0.580392 0.329412 0.74902 0.580392 
0.329412 0.74902 0.580392 0.329412 0.74902 0.580392 
0.329412 0.74902 0.580392 0.329412 0.74902 0.580392 
0.329412 0.74902 0.580392 0.329412 0.74902 0.580392 
0.329412 0.74902 0.580392 0.329412 0.74902 0.580392 
0.329412 0.74902 0.580392 0.329412 0.74902 0.580392 
0.329412 0.74902 0.580392 0.329412 0.74902 0.580392 
0.329412 0.74902 0.580392 0.329412 0.74902 0.580392 
0.329412 0.74902 0.580392 0.329412 0.74902 0.580392 
0.329412 0.74902 0.580392 0.329412 0.74902 0.580392 
0.329412 0.74902 0.580392 0.329412 0.74902 0.580392 
0.329412 0.74902 0.580392 0.329412 0.74902 0.580392 
0.329412 0.74902 0.580392 0.329412 0.74902 0.580392 
0.329412 0.74902 0.580392 0.329412 0.74902 0.580392 
0.329412 0.74902 0.580392 0.329412 0.74902 0.580392 
0.329412 0.74902 0.580392 0.329412 0.74902 0.580392 
0.329412 0.74902 0.580392 0.329412 0.74902 0.580392 
0.329412 0.74902 0.580392 0.329412 0.74902 0.580392 
0.329412 0.74902 0.580392 0.329412 0.74902 0.580392 
0.329412 0.74902 0.580392 0.329412 0.74902 0.580392 
0.329412 0.74902 0.580392 0.329412 0.74902 0.580392 
0.329412 0.74902 0.580392 0.329412 0.74902 0.580392 
0.329412 0.74902 0.580392 0.329412 0.74902 0.580392 
0.329412 0.74902 0.580392 0.329412 0.74902 0.580392 
0.329412 0.74902 0.580392 0.329412 0.74902 0.580392 
0.329412 0.74902 0.580392 0.329412 0.74902 0.580392 
0.329412 0.74902 0.580392 0.329412 0.74902 0.580392 
0.329412 0.74902 0.580392 0.329412 0.74902 0.580392 
0.329412 0.74902 0.580392 0.329412 0.74902 0.580392 
0.329412 0.74902 0.580392 0.329412 0.74902 0.580392 
0.329412 0.74902 0.580392 0.329412 0.74902 0.580392 
0.329412 0.74902 0.580392 0.329412 0.74902 0.580392 
0.329412 0.74902 0.580392 0.329412 0.74902 0.580392 
0.329412 0.74902 0.580392 0.329412 0.74902 0.580392 
0.329412 0.74902 0.580392 0.329412 0.74902 0.580392 
0.329412 0.74902 0.580392 0.329412 0.74902 0.580392 
0.329412 0.74902 0.580392 0.329412 0.74902 0.580392 
0.329412 0.74902 0.580392 0.329412 0.74902 0.580392 
0.329412 0.74902 0.580392 0.329412 0.74902 0.580392 
0.329412 0.74902 0.580392 0.329412 0.74902 0.580392 
0.329412 0.74902 0.580392 0.329412 0.74902 0.580392 
0.329412 0.74902 0.580392 0.329412 0.74902 0.580392 
0.329412 0.74902 0.580392 0.329412 0.74902 0.580392 
0.329412 0.74902 0.580392 0.329412 0.74902 0.580392 
0.329412 0.74902 0.580392 0.329412 0.74902 0.580392 
0.329412 0.74902 0.580392 0.329412 0.74902 0.580392 
0.329412 0.74902 0.580392 0.329412 0.74902 0.580392 
0.329412 0.74902 0.580392 0.329412 0.74902 0.580392 
0.329412 0.74902 0.580392 0.329412 0.74902 0.580392 
0.329412 0.74902 0.580392 0.329412 0.74902 0.580392 
0.329412 0.74902 0.580392 0.329412 0.74902 0.580392 
0.329412 0.74902 0.580392 0.329412 0.74902 0.580392 
0.329412 0.74902 0.580392 0.329412 0.74902 0.580392 
0.329412 0.74902 0.580392 0.329412 0.74902 0.580392 
0.329412 0.74902 0.580392 0.329412 0.74902 0.580392 
0.329412 0.74902 0.580392 0.329412 0.74902 0.580392 
0.329412 0.74902 0.580392 0.329412 0.74902 0.580392 
0.329412 0.74902 0.580392 0.329412 0.74902 0.580392 
0.329412 0.74902 0.580392 0.329412 0.74902 0.580392 
0.329412 0.74902 0.580392 0.329412 0.74902 0.580392 
0.329412 0.74902 0.580392 0.329412 0.74902 0.580392 
0.329412 0.74902 0.580392 0.329412 0.74902 0.580392 
0.329412 0.74902 0.580392 0.329412 0.74902 0.580392 
0.329412 0.74902 0.580392 0.329412 0.74902 0.580392 
0.329412 0.74902 0.580392 0.329412 0.74902 0.580392 
0.329412 0.74902 0.580392 0.329412 0.74902 0.580392 
0.329412 0.74902 0.580392 0.329412 0.74902 0.580392 
0.329412 0.74902 0.580392 0.329412 0.74902 0.580392 
0.329412 0.74902 0.580392 0.329412 0.74902 0.580392 
0.329412 0.74902 0.580392 0.329412 0.74902 0.580392 
0.329412 0.74902 0.580392 0.329412 0.74902 0.580392 
0.329412 0.74902 0.580392 0.329412 0.74902 0.580392 
0.329412 0.74902 0.580392 0.329412 0.74902 0.580392 
0.329412 0.74902 0.580392 0.329412 0.74902 0.580392 
0.329412 0.74902 0.580392 0.329412 0.74902 0.580392 
0.329412 0.74902 0.580392 0.329412 0.74902 0.580392 
0.329412 0.74902 0.580392 0.329412 0.74902 0.580392 
0.329412 0.74902 0.580392 0.329412 0.74902 0.580392 
0.329412 0.74902 0.580392 0.329412 0.74902 0.580392 
0.329412 0.74902 0.580392 0.329412 0.74902 0.580392 
0.329412 0.74902 0.580392 0.329412 0.74902 0.580392 
0.329412 0.74902 0.580392 0.329412 0.74902 0.580392 
0.329412 0.74902 0.580392 0.329412 0.74902 0.580392 
0.329412 0.74902 0.580392 0.329412 0.74902 0.580392 
0.329412 0.74902 0.580392 0.329412 0.74902 0.580392 
0.329412 0.74902 0.580392 0.329412 0.74902 0.580392 
0.329412 0.74902 0.580392 0.329412 0.74902 0.580392 
0.329412 0.74902 0.580392 0.329412 0.74902 0.580392 
0.329412 0.74902 0.580392 0.329412 0.74902 0.580392 
0.329412 0.74902 0.580392 0.329412 0.74902 0.580392 
0.329412 0.74902 0.580392 0.329412 0.74902 0.580392 
0.329412 0.74902 0.580392 0.329412 0.74902 0.580392 
0.329412 0.74902 0.580392 0.329412 0.74902 0.580392 
0.329412 0.74902 0.580392 0.329412 0.74902 0.580392 
0.329412 0.74902 0.580392 0.329412 0.74902 0.580392 
0.329412 0.74902 0.580392 0.329412 0.74902 0.580392 
0.329412 0.74902 0.580392 0.329412 0.74902 0.580392 
0.329412 0.74902 0.580392 0.329412 0.74902 0.580392 
0.329412 0.74902 0.580392 0.329412 0.74902 0.580392 
0.329412 0.74902 0.580392 0.329412 0.74902 0.580392 
0.329412 0.74902 0.580392 0.329412 0.74902 0.580392 
0.329412 0.74902 0.580392 0.329412 0.74902 0.580392 
0.329412 0.74902 0.580392 0.329412 0.74902 0.580392 
0.329412 0.74902 0.580392 0.329412 0.74902 0.580392 
0.329412 0.74902 0.580392 0.329412 0.74902 0.580392 
0.329412 0.74902 0.580392 0.329412 0.74902 0.580392 
0.329412 0.74902 0.580392 0.329412 0.74902 0.580392 
0.329412 0.74902 0.580392 0.329412 0.74902 0.580392 
0.329412 0.74902 0.580392 0.329412 0.74902 0.580392 
0.329412 0.74902 0.580392 0.329412 0.74902 0.580392 
0.329412 0.74902 0.580392 0.329412 0.74902 0.580392 
0.329412 0.74902 0.580392 0.329412 0.74902 0.580392 
0.329412 0.74902 0.580392 0.329412 0.74902 0.580392 
0.329412 0.74902 0.580392 0.329412 0.74902 0.580392 
0.329412 0.74902 0.580392 0.329412 0.74902 0.580392 
0.329412 0.74902 0.580392 0.329412 0.74902 0.580392 
0.329412 0.74902 0.580392 0.329412 0.74902 0.580392 
0.329412 0.74902 0.580392 0.329412 0.74902 0.580392 
0.329412 0.74902 0.580392 0.329412 0.74902 0.580392 
0.329412 0.74902 0.580392 0.329412 0.74902 0.580392 
0.329412 0.74902 0.580392 0.329412 0.74902 0.580392 
0.329412 0.74902 0.580392 0.329412 0.74902 0.580392 
0.329412 0.74902 0.580392 0.329412 0.74902 0.580392 
0.329412 0.74902 0.580392 0.329412 0.74902 0.580392 
0.329412 0.74902 0.580392 0.329412 0.74902 0.580392 
0.329412 0.74902 0.580392 0.329412 0.74902 0.580392 
0.329412 0.74902 0.580392 0.329412 0.74902 0.580392 
0.329412 0.74902 0.580392 0.329412 0.74902 0.580392 
0.329412 0.74902 0.580392 0.329412 0.74902 0.580392 
0.329412 0.74902 0.580392 0.329412 0.74902 0.580392 
0.329412 0.74902 0.580392 0.329412 0.74902 0.580392 
0.329412 0.74902 0.580392 0.329412 0.74902 0.580392 
0.329412 0.74902 0.580392 0.329412 0.74902 0.580392 
0.329412 0.74902 0.580392 0.329412 0.74902 0.580392 
0.329412 0.74902 0.580392 0.329412 0.74902 0.580392 
0.329412 0.74902 0.580392 0.329412 0.74902 0.580392 
0.329412 0.74902 0.580392 0.329412 0.74902 0.580392 
0.329412 0.74902 0.580392 0.329412 0.74902 0.580392 
0.329412 0.74902 0.580392 0.329412 0.74902 0.580392 
0.329412 0.74902 0.580392 0.329412 0.74902 0.580392 
0.329412 0.74902 0.580392 0.329412 0.74902 0.580392 
0.329412 0.74902 0.580392 0.329412 0.74902 0.580392 
0.329412 0.74902 0.580392 0.329412 0.74902 0.580392 
0.329412 0.74902 0.580392 0.329412 0.74902 0.580392 
0.329412 0.74902 0.580392 0.329412 0.74902 0.580392 
0.329412 0.74902 0.580392 0.329412 0.74902 0.580392 
0.329412 0.74902 0.580392 0.329412 0.74902 0.580392 
0.329412 0.74902 0.580392 0.329412 0.74902 0.580392 
0.329412 0.74902 0.580392 0.329412 0.74902 0.580392 
0.329412 0.74902 0.580392 0.329412 0.74902 0.580392 
0.329412 0.74902 0.580392 0.329412 0.74902 0.580392 
0.329412 0.74902 0.580392 0.329412 0.74902 0.580392 
0.329412 0.74902 0.580392 0.329412 0.74902 0.580392 
0.329412 0.74902 0.580392 0.329412 0.74902 0.580392 
0.329412 0.74902 0.580392 0.329412 0.74902 0.580392 
0.329412 0.74902 0.580392 0.329412 0.74902 0.580392 
0.329412 0.74902 0.580392 0.329412 0.74902 0.580392 
0.329412 0.74902 0.580392 0.329412 0.74902 0.580392 
0.329412 0.74902 0.580392 0.329412 0.74902 0.580392 
0.329412 0.74902 0.580392 0.329412 0.74902 0.580392 
0.329412 0.74902 0.580392 0.329412 0.74902 0.580392 
0.329412 0.74902 0.580392 0.329412 0.74902 0.580392 
0.329412 0.74902 0.580392 0.329412 0.74902 0.580392 
0.329412 0.74902 0.580392 0.329412 0.74902 0.580392 
0.329412 0.74902 0.580392 0.329412 0.74902 0.580392 
0.329412 0.74902 0.580392 0.329412 0.74902 0.580392 
0.329412 0.74902 0.580392 0.329412 0.74902 0.580392 
0.329412 0.74902 0.580392 0.329412 0.74902 0.580392 
0.329412 0.74902 0.580392 0.329412 0.74902 0.580392 
0.329412 0.74902 0.580392 0.329412 0.74902 0.580392 
0.329412 0.74902 0.580392 0.329412 0.74902 0.580392 
0.329412 0.74902 0.580392 0.329412 0.74902 0.580392 
0.329412 0.74902 0.580392 0.329412 0.74902 0.580392 
0.329412 0.74902 0.580392 0.329412 0.74902 0.580392 
0.329412 0.74902 0.580392 0.329412 0.74902 0.580392 
0.329412 0.74902 0.580392 0.329412 0.74902 0.580392 
0.329412 0.74902 0.580392 0.329412 0.74902 0.580392 
0.329412 0.74902 0.580392 0.329412 0.74902 0.580392 
0.329412 0.74902 0.580392 0.329412 0.74902 0.580392 
0.329412 0.74902 0.580392 0.329412 0.74902 0.580392 
0.329412 0.74902 0.580392 0.329412 0.74902 0.580392 
0.329412 0.74902 0.580392 0.329412 0.74902 0.580392 
0.329412 0.74902 0.580392 0.329412 0.74902 0.580392 
0.329412 0.74902 0.580392 0.329412 0.74902 0.580392 
0.329412 0.74902 0.580392 0.329412 0.74902 0.580392 
0.329412 0.74902 0.580392 0.329412 0.74902 0.580392 
0.329412 0.74902 0.580392 0.329412 0.74902 0.580392 
0.329412 0.74902 0.580392 0.329412 0.74902 0.580392 
0.329412 0.74902 0.580392 0.329412 0.74902 0.580392 
0.329412 0.74902 0.580392 0.329412 0.74902 0.580392 
0.329412 0.74902 0.580392 0.329412 0.74902 0.580392 
0.329412 0.74902 0.580392 0.329412 0.74902 0.580392 
0.329412 0.74902 0.580392 0.329412 0.74902 0.580392 
0.329412 0.74902 0.580392 0.329412 0.74902 0.580392 
0.329412 0.74902 0.580392 0.329412 0.74902 0.580392 
0.329412 0.74902 0.580392 0.329412 0.74902 0.580392 
0.329412 0.74902 0.580392 0.329412 0.74902 0.580392 
0.329412 0.74902 0.580392 0.329412 0.74902 0.580392 
0.329412 0.74902 0.580392 0.329412 0.74902 0.580392 
0.329412 0.74902 0.580392 0.329412 0.74902 0.580392 
0.329412 0.74902 0.580392 0.329412 0.74902 0.580392 
0.329412 0.74902 0.580392 0.329412 0.74902 0.580392 
0.329412 0.74902 0.580392 0.329412 0.74902 0.580392 
0.329412 0.74902 0.580392 0.329412 0.74902 0.580392 
0.329412 0.74902 0.580392 0.329412 0.74902 0.580392 
0.329412 0.74902 0.580392 0.329412 0.74902 0.580392 
0.329412 0.74902 0.580392 0.329412 0.74902 0.580392 
0.329412 0.74902 0.580392 0.329412 0.74902 0.580392 
0.329412 0.74902 0.580392 0.329412 0.74902 0.580392 
0.329412 0.74902 0.580392 0.329412 0.74902 0.580392 
0.329412 0.74902 0.580392 0.329412 0.74902 0.580392 
0.329412 0.74902 0.580392 0.329412 0.74902 0.580392 
0.329412 0.74902 0.580392 0.329412 0.74902 0.580392 
0.329412 0.74902 0.580392 0.329412 0.74902 0.580392 
0.329412 0.74902 0.580392 0.329412 0.74902 0.580392 
0.329412 0.74902 0.580392 0.329412 0.74902 0.580392 
0.329412 0.74902 0.580392 0.329412 0.74902 0.580392 
0.329412 0.74902 0.580392 0.329412 0.74902 0.580392 
0.329412 0.74902 0.580392 0.329412 0.74902 0.580392 
0.329412 0.74902 0.580392 0.329412 0.74902 0.580392 
0.329412 0.74902 0.580392 0.329412 0.74902 0.580392 
0.329412 0.74902 0.580392 0.329412 0.74902 0.580392 
0.329412 0.74902 0.580392 0.329412 0.74902 0.580392 
0.329412 0.74902 0.580392 0.329412 0.74902 0.580392 
0.329412 0.74902 0.580392 0.329412 0.74902 0.580392 
0.329412 0.74902 0.580392 0.329412 0.74902 0.580392 
0.329412 0.74902 0.580392 0.329412 0.74902 0.580392 
0.329412 0.74902 0.580392 0.329412 0.74902 0.580392 
0.329412 0.74902 0.580392 0.329412 0.74902 0.580392 
0.329412 0.74902 0.580392 0.329412 0.74902 0.580392 
0.329412 0.74902 0.580392 0.329412 0.74902 0.580392 
0.329412 0.74902 0.580392 0.329412 0.74902 0.580392 
0.329412 0.74902 0.580392 0.329412 0.74902 0.580392 
0.329412 0.74902 0.580392 0.329412 0.74902 0.580392 
0.329412 0.74902 0.580392 0.329412 0.74902 0.580392 
0.329412 0.74902 0.580392 0.329412 0.74902 0.580392 
0.329412 0.74902 0.580392 0.329412 0.74902 0.580392 
0.329412 0.74902 0.580392 0.329412 0.74902 0.580392 
0.329412 0.74902 0.580392 0.329412 0.74902 0.580392 
0.329412 0.74902 0.580392 0.329412 0.74902 0.580392 
0.329412 0.74902 0.580392 0.329412 0.74902 0.580392 
0.329412 0.74902 0.580392 0.329412 0.74902 0.580392 
0.329412 0.74902 0.580392 0.329412 0.74902 0.580392 
0.329412 0.74902 0.580392 0.329412 0.74902 0.580392 
0.329412 0.74902 0.580392 0.329412 0.74902 0.580392 
0.329412 0.74902 0.580392 0.329412 0.74902 0.580392 
0.329412 0.74902 0.580392 0.329412 0.74902 0.580392 
0.329412 0.74902 0.580392 0.329412 0.74902 0.580392 
0.329412 0.74902 0.580392 0.329412 0.74902 0.580392 
0.329412 0.74902 0.580392 0.329412 0.74902 0.580392 
0.329412 0.74902 0.580392 0.329412 0.74902 0.580392 
0.329412 0.74902 0.580392 0.329412 0.74902 0.580392 
0.329412 0.74902 0.580392 0.329412 0.74902 0.580392 
0.329412 0.74902 0.580392 0.329412 0.74902 0.580392 
0.329412 0.74902 0.580392 0.329412 0.74902 0.580392 
0.329412 0.74902 0.580392 0.329412 0.74902 0.580392 
0.329412 0.74902 0.580392 0.329412 0.74902 0.580392 
0.329412 0.74902 0.580392 0.329412 0.74902 0.580392 
0.329412 0.74902 0.580392 0.329412 0.74902 0.580392 
0.329412 0.74902 0.580392 0.329412 0.74902 0.580392 
0.329412 0.74902 0.580392 0.329412 0.74902 0.580392 
0.329412 0.74902 0.580392 0.329412 0.74902 0.580392 
0.329412 0.74902 0.580392 0.329412 0.74902 0.580392 
0.329412 0.74902 0.580392 0.329412 0.74902 0.580392 
0.329412 0.74902 0.580392 0.329412 0.74902 0.580392 
0.329412 0.74902 0.580392 0.329412 0.74902 0.580392 
0.329412 0.74902 0.580392 0.329412 0.74902 0.580392 
0.329412 0.74902 0.580392 0.329412 0.74902 0.580392 
0.329412 0.74902 0.580392 0.329412 0.74902 0.580392 
0.329412 0.74902 0.580392 0.329412 0.74902 0.580392 
0.329412 0.74902 0.580392 0.329412 0.74902 0.580392 
0.329412 0.74902 0.580392 0.329412 0.74902 0.580392 
0.329412 0.74902 0.580392 0.329412 0.74902 0.580392 
0.329412 0.74902 0.580392 0.329412 0.74902 0.580392 
0.329412 0.74902 0.580392 0.329412 0.74902 0.580392 
0.329412 0.74902 0.580392 0.329412 0.74902 0.580392 
0.329412 0.74902 0.580392 0.329412 0.74902 0.580392 
0.329412 0.74902 0.580392 0.329412 0.74902 0.580392 
0.329412 0.74902 0.580392 0.329412 0.74902 0.580392 
0.329412 0.74902 0.580392 0.329412 0.74902 0.580392 
0.329412 0.74902 0.580392 0.329412 0.74902 0.580392 
0.329412 0.74902 0.580392 0.329412 0.74902 0.580392 
0.329412 0.74902 0.580392 0.329412 0.74902 0.580392 
0.329412 0.74902 0.580392 0.329412 0.74902 0.580392 
0.329412 0.74902 0.580392 0.329412 0.74902 0.580392 
0.329412 0.74902 0.580392 0.329412 0.74902 0.580392 
0.329412 0.74902 0.580392 0.329412 0.74902 0.580392 
0.329412 0.74902 0.580392 0.329412 0.74902 0.580392 
0.329412 0.74902 0.580392 0.329412 0.74902 0.580392 
0.329412 0.74902 0.580392 0.329412 0.74902 0.580392 
0.329412 0.74902 0.580392 0.329412 0.74902 0.580392 
0.329412 0.74902 0.580392 0.329412 0.74902 0.580392 
0.329412 0.74902 0.580392 0.329412 0.74902 0.580392 
0.329412 0.74902 0.580392 0.329412 0.74902 0.580392 
0.329412 0.74902 0.580392 0.329412 0.74902 0.580392 
0.329412 0.74902 0.580392 0.329412 0.74902 0.580392 
0.329412 0.74902 0.580392 0.329412 0.74902 0.580392 
0.329412 0.74902 0.580392 0.329412 0.74902 0.580392 
0.329412 0.74902 0.580392 0.329412 0.74902 0.580392 
0.329412 0.74902 0.580392 0.329412 0.74902 0.580392 
0.329412 0.74902 0.580392 0.329412 0.74902 0.580392 
0.329412 0.74902 0.580392 0.329412 0.74902 0.580392 
0.329412 0.74902 0.580392 0.329412 0.74902 0.580392 
0.329412 0.74902 0.580392 0.329412 0.74902 0.580392 
0.329412 0.74902 0.580392 0.329412 0.74902 0.580392 
0.329412 0.74902 0.580392 0.329412 0.74902 0.580392 
0.329412 0.74902 0.580392 0.329412 0.74902 0.580392 
0.329412 0.74902 0.580392 0.329412 0.74902 0.580392 
0.329412 0.74902 0.580392 0.329412 0.74902 0.580392 
0.329412 0.74902 0.580392 0.329412 0.74902 0.580392 
0.329412 0.74902 0.580392 0.329412 0.74902 0.580392 
0.329412 0.74902 0.580392 0.329412 0.74902 0.580392 
0.329412 0.74902 0.580392 0.329412 0.74902 0.580392 
0.329412 0.74902 0.580392 0.329412 0.74902 0.580392 
0.329412 0.74902 0.580392 0.329412 0.74902 0.580392 
0.329412 0.74902 0.580392 0.329412 0.74902 0.580392 
0.329412 0.74902 0.580392 0.329412 0.74902 0.580392 
0.329412 0.74902 0.580392 0.329412 0.74902 0.580392 
0.329412 0.74902 0.580392 0.329412 0.74902 0.580392 
0.329412 0.74902 0.580392 0.329412 0.74902 0.580392 
0.329412 0.74902 0.580392 0.329412 0.74902 0.580392 
0.329412 0.74902 0.580392 0.329412 0.74902 0.580392 
0.329412 0.74902 0.580392 0.329412 0.74902 0.580392 
0.329412 0.74902 0.580392 0.329412 0.74902 0.580392 
0.329412 0.74902 0.580392 0.329412 0.74902 0.580392 
0.329412 0.74902 0.580392 0.329412 0.74902 0.580392 
0.329412 0.74902 0.580392 0.329412 0.74902 0.580392 
0.329412 0.74902 0.580392 0.329412 0.74902 0.580392 
0.329412 0.74902 0.580392 0.329412 0.74902 0.580392 
0.329412 0.74902 0.580392 0.329412 0.74902 0.580392 
0.329412 0.74902 0.580392 0.329412 0.74902 0.580392 
0.329412 0.74902 0.580392 0.329412 0.74902 0.580392 
0.329412 0.74902 0.580392 0.329412 0.74902 0.580392 
0.329412 0.74902 0.580392 0.329412 0.74902 0.580392 
0.329412 0.74902 0.580392 0.329412 0.74902 0.580392 
0.329412 0.74902 0.580392 0.329412 0.74902 0.580392 
0.329412 0.74902 0.580392 0.329412 0.74902 0.580392 
0.329412 0.74902 0.580392 0.329412 0.74902 0.580392 
0.329412 0.74902 0.580392 0.329412 0.74902 0.580392 
0.329412 0.74902 0.580392 0.329412 0.74902 0.580392 
0.329412 0.74902 0.580392 0.329412 0.74902 0.580392 
0.329412 0.74902 0.580392 0.329412 0.74902 0.580392 
0.329412 0.74902 0.580392 0.329412 0.74902 0.580392 
0.329412 0.74902 0.580392 0.329412 0.74902 0.580392 
0.329412 0.74902 0.580392 0.329412 0.74902 0.580392 
0.329412 0.74902 0.580392 0.329412 0.74902 0.580392 
0.329412 0.74902 0.580392 0.329412 0.74902 0.580392 
0.329412 0.74902 0.580392 0.329412 0.74902 0.580392 
0.329412 0.74902 0.580392 0.329412 0.74902 0.580392 
0.329412 0.74902 0.580392 0.329412 0.74902 0.580392 
0.329412 0.74902 0.580392 0.329412 0.74902 0.580392 
0.329412 0.74902 0.580392 0.329412 0.74902 0.580392 
0.329412 0.74902 0.580392 0.329412 0.74902 0.580392 
0.329412 0.74902 0.580392 0.329412 0.74902 0.580392 
0.329412 0.74902 0.580392 0.329412 0.74902 0.580392 
0.329412 0.74902 0.580392 0.329412 0.74902 0.580392 
0.329412 0.74902 0.580392 0.329412 0.74902 0.580392 
0.329412 0.74902 0.580392 0.329412 0.74902 0.580392 
0.329412 0.74902 0.580392 0.329412 0.74902 0.580392 
0.329412 0.74902 0.580392 0.329412 0.74902 0.580392 
0.329412 0.74902 0.580392 0.329412 0.74902 0.580392 
0.329412 0.74902 0.580392 0.329412 0.74902 0.580392 
0.329412 0.74902 0.580392 0.329412 0.74902 0.580392 
0.329412 0.74902 0.580392 0.329412 0.74902 0.580392 
0.329412 0.74902 0.580392 0.329412 0.74902 0.580392 
0.329412 0.74902 0.580392 0.329412 0.74902 0.580392 
0.329412 0.74902 0.580392 0.329412 0.74902 0.580392 
0.329412 0.74902 0.580392 0.329412 0.74902 0.580392 
0.329412 0.74902 0.580392 0.329412 0.74902 0.580392 
0.329412 0.74902 0.580392 0.329412 0.74902 0.580392 
0.329412 0.74902 0.580392 0.329412 0.74902 0.580392 