# vtk DataFile Version 4.2
vtk output
ASCII
DATASET POLYDATA
POINTS 348 float
384.997 179.639 214.393 385.575 179.951 214.317 383.973 180.197 214.149 
385.189 180.648 213.949 385.894 180.161 214.408 382.136 181.069 214.209 
384.692 182.872 213.464 378.814 184.255 213.718 385.939 183.226 214.006 
381.677 185.736 212.958 377.6 187.72 213.454 379.551 187.36 213.146 
383.531 186.945 213.49 379.188 188.775 213.588 384.259 179.144 214.913 
385.251 179.116 214.87 382.104 180.401 214.72 386.392 179.999 215.126 
386.534 182.868 214.479 377.424 184.318 214.555 375.188 187.535 214.88 
385.271 187.554 214.401 375.789 188.565 214.499 375.367 189.254 214.979 
376.837 190.361 214.957 385.293 178.456 215.669 385.277 178.336 215.918 
385.122 178.423 215.705 384.112 178.942 215.213 383.825 178.939 215.436 
384.758 178.506 215.736 381.291 180.532 215.445 379.763 181.997 214.918 
376.989 184.07 215.533 374.851 187.105 215.542 374.432 187.851 215.81 
374.373 188.295 215.801 387.64 187.46 216.19 374.354 188.766 215.883 
386.889 188.347 215.973 374.563 189.063 215.683 376.898 191.318 216.083 
385.161 178.272 216.297 385.443 178.342 216.155 385.703 178.503 216.264 
384.314 178.511 216.269 385.903 178.797 215.911 386.253 179.185 216.055 
381.55 180.108 216.466 378.166 182.692 216.179 388.334 183.832 216.644 
375.792 185.299 216.508 388.747 185.743 217.017 374.354 187.664 216.45 
374.241 188.481 216.118 387.606 188.077 216.563 374.357 189.315 216.445 
385.077 189.412 215.635 386.693 188.868 216.284 374.837 190.135 216.668 
376.074 191.265 216.64 383.962 178.626 216.893 387.166 180.518 217.007 
378.279 182.661 217.058 388.542 183.746 217.117 389.031 185.144 217.742 
388.96 185.962 217.466 374.26 187.99 216.578 374.286 188.175 216.862 
374.252 188.963 216.68 387.827 188.152 217.08 386.885 188.996 216.799 
374.526 189.694 216.729 384.313 190.602 216.88 375.646 190.972 217.463 
376.638 191.758 217.741 377.277 191.925 217.147 378.721 192.132 217.13 
377.154 191.998 217.665 379.055 192.293 217.63 385.27 178.359 217.121 
385.494 178.372 216.931 385.693 178.518 217.046 384.323 178.575 217.297 
380.208 181.202 217.707 379.258 181.923 217.769 377.938 183.368 218.122 
388.542 183.505 217.455 374.369 189.143 217.082 374.481 189.547 217.062 
382.943 191.504 217.768 376.667 191.742 218.176 381.597 191.877 218.066 
377.576 192.128 218.109 378.212 192.248 218.11 379.454 192.315 218.049 
387.487 180.994 218.094 379.963 181.649 218.325 388.848 184.305 218.656 
388.928 184.835 218.841 376.132 185.763 218.406 389.056 185.447 218.713 
374.795 187.821 217.781 389.028 186.471 218.933 388.892 187.189 218.492 
375.13 188.771 218.352 388.235 188.127 218.282 375.192 189.447 218.353 
375.057 190.062 217.924 385.417 190.352 218.556 375.926 191.072 218.222 
376.955 191.857 218.424 382.921 191.553 218.658 378.694 192.238 218.587 
379.336 192.266 218.542 383.307 179.728 218.768 386.261 179.887 218.58 
380.31 181.813 218.826 378.702 183.522 219.196 388.331 183.55 219.404 
388.539 184.003 219.335 376.449 186.133 219.016 376.073 188.74 219.226 
388.422 187.749 219.145 388.693 187.405 219.167 376.443 191.249 218.74 
378.474 191.834 219.389 382.006 191.65 219.368 386.189 181.09 219.817 
384.204 181.841 220.494 387.236 182.477 220.049 388.386 186.175 220.242 
379.398 186.322 220.882 388.224 187.33 220.077 387.564 188.179 220.038 
387.888 187.626 220.247 376.719 190.704 219.268 385.192 190.2 219.91 
378 190.688 220.052 378.746 191.532 219.763 379.605 191.552 219.911 
381.042 191.468 220.078 382.547 191.346 219.856 383.835 184.49 221.589 
387.171 184.452 221.027 387.563 186.112 220.997 387.355 187.625 220.702 
386.616 188.809 220.563 386.236 188.91 220.79 380.061 189.999 221.118 
384.997 190.043 220.436 384.572 190.029 220.709 381.345 190.688 220.926 
382.363 191.056 220.396 385.138 185.597 221.81 387.08 185.664 221.279 
381.98 187.493 221.806 384.913 187.03 221.898 381.646 189.201 221.623 
385.293 188.212 221.577 381.355 189.722 221.45 382.838 189.462 221.525 
384.282 188.988 221.531 382.541 190.095 221.218 385.202 186.817 233.339 
386.398 185.813 233.656 386.285 187.115 233.624 386.991 186.399 233.867 
382.391 189.602 233.623 383.553 189.294 233.575 385.214 189.091 233.87 
382.309 190.372 234.077 383.568 190.376 234.227 386.218 182.489 234.678 
382.754 183.784 234.086 384.463 183.643 233.992 386.584 182.893 234.603 
387.66 183.71 234.895 380.82 185.583 234.045 387.962 187.144 234.661 
379.808 188.805 234.15 379.036 189.085 234.5 387.235 188.325 234.444 
378.93 190.459 234.972 384.738 190.095 234.375 379.508 191.101 235.257 
383.478 190.922 234.886 386.21 179.926 236.243 387.101 180.957 236.246 
381.38 182.304 235.255 387.918 183.572 235.231 388.346 183.811 235.732 
388.799 185.034 235.733 388.906 186.155 235.769 388.687 186.881 235.466 
388.855 186.722 235.781 378.436 188.496 234.711 387.995 187.913 235.05 
377.287 190.807 235.915 383.972 190.869 235.169 385.066 179.367 236.479 
385.519 179.273 236.583 385.838 179.275 236.724 383.893 179.172 237.044 
387.041 180.343 237.122 388.131 182.685 236.336 388.742 184.561 235.997 
376.072 187.09 236.399 375.953 188.705 236.287 375.488 189.447 236.809 
385.829 190.136 235.934 376.286 190.971 236.839 378.156 191.909 236.632 
377.858 192.035 236.983 380.023 192.056 236.531 382.315 191.556 235.995 
379.123 192.183 236.855 379.652 192.177 236.776 385.01 178.396 237.769 
384.67 178.492 237.657 385.313 178.634 237.317 385.254 178.498 237.548 
382.702 179.817 237.047 375.728 185.374 237.971 375.597 185.734 237.729 
388.991 185.386 236.709 388.724 187.617 236.621 375.927 191.089 237.624 
377.46 191.976 237.167 377.262 192.02 237.493 379.512 192.263 237.194 
385.357 178.405 237.904 385.708 178.561 238.067 383.827 178.735 238.063 
382.201 179.773 238.042 386.787 179.777 238.257 387.559 181.101 237.887 
377.364 183.376 238.622 388.466 183.19 237.33 376.467 184.362 238.191 
388.602 183.637 237.463 388.949 185.716 237.278 388.843 187.093 237.152 
374.404 187.879 238.366 374.332 187.647 238.65 374.234 188.086 238.728 
387.967 188.296 237.826 374.389 188.924 238.476 375.124 190.243 237.863 
385.521 190.32 237.356 375.229 190.521 238.128 382.909 191.473 237.332 
379.979 192.202 237.535 377.741 192.232 237.948 378.113 192.294 237.82 
378.646 192.298 237.908 385.177 178.265 238.595 384.812 178.3 238.51 
385.713 178.522 238.561 383.599 178.811 238.845 379.759 181.511 239.356 
376.148 184.668 238.943 375.79 185.243 239.268 375.266 185.938 238.867 
388.629 184.843 238.129 374.389 187.409 239.333 374.244 187.745 239.024 
374.151 188.6 239.269 387.167 188.665 238.824 374.32 189.114 238.806 
382.159 191.523 238.248 377.099 191.998 238.279 378.617 192.183 238.412 
377.506 192.124 238.287 385.236 178.329 238.894 385.459 178.358 238.726 
385.648 178.5 238.844 384.02 178.758 239.419 385.881 178.828 238.991 
383.691 179.082 239.679 386.696 180.033 239.404 379.922 181.606 240.038 
387.059 181.187 239.775 375.087 186.544 239.891 374.418 187.586 239.681 
388.141 186.992 238.983 374.193 188.329 239.52 387.507 187.764 239.308 
374.309 189.12 239.583 374.514 189.515 239.475 374.801 189.999 239.44 
380.735 191.298 239.469 375.907 191.117 239.098 376.405 191.359 239.096 
378.864 191.564 239.486 384.202 178.858 239.713 384.551 178.855 239.819 
385.659 179.058 239.758 382.603 179.835 240.017 383.009 179.742 240.259 
386.377 180.076 239.98 379.645 181.876 240.216 386.74 181.338 240.31 
378.461 182.739 240.079 387.304 183.488 240.146 375.041 186.802 240.1 
374.362 188.013 239.798 374.36 188.508 239.86 386.047 187.798 240.394 
374.428 189.248 239.735 374.696 189.336 239.971 374.961 190.14 239.603 
375.2 190.188 239.812 381.657 190.033 240.559 376.928 190.771 240.193 
377.761 190.809 240.338 384.815 179.047 240.033 383.221 179.898 240.552 
385.961 179.801 240.281 385.779 179.939 240.535 381.769 180.909 240.746 
382.104 180.94 240.937 383.259 180.306 240.866 380.529 181.694 240.714 
386.312 182.216 240.947 377.839 184.049 240.827 379.477 183.047 241.044 
386.343 183.803 241.012 375.954 186.392 240.816 385.628 185.066 241.382 
375.954 189.411 240.952 376.207 189.714 240.885 379.153 189.596 241.3 
384.773 180.107 240.859 385.377 179.97 240.683 384.17 180.984 241.345 
385.803 180.348 240.721 382.536 182.067 241.601 383.224 181.779 241.59 
385.238 181.891 241.448 385.151 182.656 241.602 376.784 186.903 241.374 
383.974 185.081 241.943 377.475 187.39 241.677 381.222 187.174 241.994 
375.98 189.005 241.083 377.923 188.585 241.652 378.545 189.091 241.537 

POLYGONS 688 2752
3 1 0 2 
3 5 3 2 
3 2 3 1 
3 4 1 3 
3 5 32 7 
3 3 5 6 
3 6 5 7 
3 4 3 6 
3 6 7 9 
3 8 6 9 
3 8 9 12 
3 21 18 8 
3 12 21 8 
3 11 7 10 
3 9 7 11 
3 9 11 13 
3 11 10 13 
3 15 28 14 
3 28 15 25 
3 2 14 29 
3 16 2 29 
3 15 14 2 
3 15 2 0 
3 0 1 15 
3 2 16 5 
3 16 31 5 
3 31 32 5 
3 32 19 7 
3 4 6 18 
3 18 50 4 
3 6 8 18 
3 7 19 10 
3 20 10 19 
3 10 20 22 
3 9 13 12 
3 13 57 12 
3 57 21 12 
3 10 22 24 
3 24 22 23 
3 10 24 13 
3 57 13 24 
3 25 26 27 
3 27 30 25 
3 30 28 25 
3 25 15 4 
3 31 16 29 
3 14 28 29 
3 15 1 4 
3 17 4 50 
3 33 19 49 
3 49 19 32 
3 19 33 51 
3 18 21 50 
3 50 21 52 
3 20 19 34 
3 21 37 52 
3 20 34 35 
3 39 37 21 
3 40 35 36 
3 38 40 36 
3 20 35 22 
3 35 40 22 
3 58 39 21 
3 22 40 23 
3 59 23 40 
3 23 59 41 
3 41 24 23 
3 24 41 57 
3 42 26 43 
3 43 26 25 
3 44 43 25 
3 28 45 29 
3 42 30 26 
3 42 45 30 
3 45 28 30 
3 27 26 30 
3 25 46 44 
3 4 46 25 
3 47 46 4 
3 29 61 31 
3 31 61 48 
3 4 17 47 
3 32 84 49 
3 31 84 32 
3 17 50 62 
3 33 49 51 
3 19 51 53 
3 34 19 53 
3 52 37 70 
3 70 66 52 
3 35 53 67 
3 35 67 36 
3 36 67 54 
3 34 53 35 
3 37 39 55 
3 36 54 38 
3 38 56 40 
3 57 58 21 
3 40 56 72 
3 59 40 72 
3 109 58 57 
3 59 60 41 
3 41 60 75 
3 41 75 76 
3 57 41 76 
3 42 43 80 
3 82 43 44 
3 61 29 45 
3 61 45 80 
3 80 45 42 
3 46 82 44 
3 82 46 47 
3 47 17 62 
3 49 84 63 
3 48 84 31 
3 63 86 49 
3 87 62 50 
3 64 87 50 
3 53 51 100 
3 50 52 64 
3 52 65 64 
3 65 52 66 
3 67 68 54 
3 53 68 67 
3 66 70 104 
3 54 69 38 
3 37 55 70 
3 38 69 56 
3 69 89 56 
3 39 58 71 
3 39 71 70 
3 39 70 55 
3 56 89 72 
3 108 59 72 
3 109 57 73 
3 58 109 71 
3 74 60 59 
3 92 90 57 
3 73 57 90 
3 76 77 57 
3 79 57 77 
3 79 95 57 
3 76 75 78 
3 93 76 78 
3 94 76 93 
3 77 76 94 
3 79 77 94 
3 43 81 80 
3 81 43 82 
3 115 61 83 
3 83 61 80 
3 62 82 47 
3 48 61 115 
3 84 85 63 
3 115 84 48 
3 62 87 96 
3 87 64 98 
3 49 100 51 
3 65 98 64 
3 65 66 101 
3 101 66 103 
3 68 69 54 
3 53 100 68 
3 103 66 104 
3 105 69 68 
3 88 69 105 
3 106 104 70 
3 69 88 89 
3 89 88 105 
3 71 106 70 
3 89 108 72 
3 71 109 106 
3 108 74 59 
3 110 74 108 
3 112 73 90 
3 109 73 112 
3 60 74 110 
3 110 75 60 
3 91 75 110 
3 57 95 92 
3 75 91 111 
3 78 75 111 
3 78 111 93 
3 81 82 80 
3 80 115 83 
3 82 116 80 
3 82 62 116 
3 116 62 96 
3 84 97 85 
3 118 86 63 
3 85 118 63 
3 87 119 96 
3 120 119 87 
3 120 87 98 
3 86 100 49 
3 98 65 99 
3 99 65 101 
3 102 105 68 
3 100 102 68 
3 105 108 89 
3 107 108 105 
3 91 125 111 
3 110 125 91 
3 95 114 92 
3 90 92 127 
3 112 90 127 
3 93 111 94 
3 79 94 113 
3 95 79 114 
3 79 113 114 
3 116 96 119 
3 97 117 85 
3 84 117 97 
3 84 115 117 
3 117 118 85 
3 86 118 100 
3 120 98 99 
3 120 99 101 
3 122 105 102 
3 100 122 102 
3 103 104 124 
3 107 105 122 
3 104 123 124 
3 106 123 104 
3 108 107 122 
3 106 134 123 
3 106 109 147 
3 109 137 147 
3 147 134 106 
3 110 108 125 
3 109 112 137 
3 125 126 111 
3 92 114 141 
3 92 141 127 
3 94 111 126 
3 94 126 113 
3 114 113 126 
3 80 116 129 
3 115 80 129 
3 129 116 128 
3 129 118 115 
3 116 130 128 
3 116 119 130 
3 117 115 118 
3 120 130 119 
3 118 132 100 
3 120 145 130 
3 120 131 145 
3 120 101 131 
3 100 132 121 
3 101 103 131 
3 121 122 100 
3 132 122 121 
3 133 131 103 
3 149 122 132 
3 124 133 103 
3 133 134 135 
3 124 123 133 
3 149 136 122 
3 123 134 133 
3 122 136 108 
3 149 138 136 
3 147 137 148 
3 137 150 148 
3 108 136 125 
3 125 136 126 
3 126 136 138 
3 112 142 137 
3 126 138 139 
3 126 140 114 
3 139 140 126 
3 114 140 141 
3 112 127 142 
3 129 128 130 
3 129 143 118 
3 130 154 129 
3 154 143 129 
3 130 144 154 
3 156 118 143 
3 145 144 130 
3 156 132 118 
3 146 131 133 
3 135 146 133 
3 135 134 146 
3 134 147 146 
3 140 138 149 
3 142 153 137 
3 153 151 137 
3 137 151 150 
3 138 140 139 
3 141 140 149 
3 152 141 149 
3 127 141 152 
3 153 127 152 
3 142 127 153 
3 154 144 155 
3 154 157 143 
3 157 156 143 
3 144 145 155 
3 154 159 157 
3 145 154 155 
3 156 158 149 
3 132 156 149 
3 161 158 156 
3 145 159 154 
3 131 146 145 
3 156 162 161 
3 157 162 156 
3 159 162 157 
3 145 147 159 
3 145 146 147 
3 158 160 149 
3 148 162 159 
3 147 148 159 
3 158 152 160 
3 152 149 160 
3 161 163 158 
3 163 152 158 
3 151 161 162 
3 150 151 162 
3 148 150 162 
3 163 153 152 
3 161 153 163 
3 151 153 161 
3 167 165 164 
3 167 164 166 
3 166 164 170 
3 167 166 170 
3 170 179 167 
3 170 164 169 
3 179 170 182 
3 169 168 172 
3 184 169 172 
3 170 169 184 
3 182 170 184 
3 168 185 171 
3 172 168 171 
3 173 175 165 
3 176 173 165 
3 165 175 174 
3 177 176 165 
3 165 174 164 
3 164 174 178 
3 167 177 165 
3 164 178 169 
3 179 177 167 
3 179 194 177 
3 169 178 180 
3 181 180 178 
3 169 180 168 
3 179 182 197 
3 194 179 197 
3 185 180 181 
3 183 185 181 
3 168 180 185 
3 171 186 172 
3 215 171 185 
3 186 171 215 
3 187 200 173 
3 188 187 173 
3 173 200 189 
3 176 188 173 
3 205 188 176 
3 205 236 188 
3 175 189 174 
3 173 189 175 
3 190 205 176 
3 174 189 178 
3 177 190 176 
3 189 207 178 
3 177 191 190 
3 192 177 193 
3 177 194 193 
3 195 193 194 
3 178 207 196 
3 178 196 181 
3 183 196 198 
3 196 183 181 
3 172 199 184 
3 214 183 198 
3 185 183 214 
3 199 172 186 
3 200 201 220 
3 220 201 202 
3 200 187 202 
3 200 202 201 
3 189 200 203 
3 187 188 204 
3 189 237 207 
3 190 191 205 
3 205 191 240 
3 191 206 240 
3 177 206 191 
3 206 177 192 
3 193 195 226 
3 196 207 208 
3 196 208 198 
3 197 226 194 
3 226 195 194 
3 208 209 198 
3 197 182 226 
3 209 211 198 
3 184 210 182 
3 184 199 210 
3 199 251 210 
3 212 198 213 
3 198 216 214 
3 212 216 198 
3 216 217 214 
3 185 214 215 
3 186 215 251 
3 251 199 186 
3 212 213 254 
3 216 212 254 
3 220 218 219 
3 218 220 221 
3 220 219 200 
3 233 203 219 
3 200 219 203 
3 202 187 232 
3 237 189 234 
3 189 222 234 
3 189 203 222 
3 187 204 232 
3 232 204 236 
3 188 236 204 
3 236 205 238 
3 240 238 205 
3 239 207 237 
3 239 223 207 
3 240 206 192 
3 225 240 192 
3 207 223 224 
3 192 193 225 
3 209 208 224 
3 207 224 208 
3 209 248 211 
3 182 210 246 
3 210 249 246 
3 246 226 182 
3 210 251 249 
3 228 211 229 
3 228 213 211 
3 213 198 211 
3 215 214 270 
3 228 229 253 
3 213 228 253 
3 213 253 254 
3 217 216 230 
3 216 254 230 
3 230 214 217 
3 219 218 256 
3 221 231 218 
3 218 231 256 
3 231 221 220 
3 232 231 220 
3 219 257 233 
3 257 219 256 
3 202 232 220 
3 234 222 203 
3 234 203 259 
3 259 203 233 
3 232 236 235 
3 235 236 280 
3 223 262 224 
3 239 262 223 
3 241 240 225 
3 225 193 241 
3 241 193 226 
3 243 244 245 
3 243 209 244 
3 209 224 244 
3 243 245 209 
3 226 246 242 
3 245 267 247 
3 247 209 245 
3 247 269 209 
3 269 248 209 
3 268 246 249 
3 250 211 248 
3 250 227 211 
3 227 250 229 
3 211 227 229 
3 214 252 270 
3 270 251 215 
3 254 255 230 
3 252 214 230 
3 256 231 232 
3 258 256 232 
3 259 233 257 
3 259 257 277 
3 234 260 237 
3 280 236 282 
3 237 260 303 
3 261 239 237 
3 240 264 238 
3 264 236 238 
3 224 262 263 
3 261 262 239 
3 240 241 264 
3 265 263 283 
3 265 224 263 
3 285 264 241 
3 244 265 266 
3 265 244 224 
3 242 285 241 
3 241 226 242 
3 244 266 245 
3 245 266 286 
3 242 287 285 
3 245 286 267 
3 242 268 287 
3 242 246 268 
3 269 247 267 
3 269 267 288 
3 290 248 269 
3 248 290 250 
3 270 249 251 
3 229 250 292 
3 229 292 271 
3 272 294 252 
3 294 291 252 
3 252 291 270 
3 271 273 229 
3 229 273 253 
3 253 273 254 
3 272 255 254 
3 230 255 272 
3 252 230 272 
3 256 274 257 
3 274 256 275 
3 275 256 258 
3 276 275 258 
3 296 277 257 
3 274 296 257 
3 258 278 276 
3 232 278 258 
3 278 232 235 
3 297 278 235 
3 259 299 298 
3 234 259 298 
3 279 299 259 
3 277 279 259 
3 235 280 297 
3 298 260 234 
3 260 281 301 
3 260 323 281 
3 301 303 260 
3 282 236 302 
3 237 303 328 
3 328 261 237 
3 236 264 304 
3 304 264 285 
3 263 262 328 
3 328 262 261 
3 265 283 305 
3 328 283 263 
3 265 284 306 
3 266 265 306 
3 284 265 305 
3 266 306 286 
3 269 288 289 
3 289 290 269 
3 250 290 311 
3 311 292 250 
3 291 249 270 
3 271 292 293 
3 271 272 273 
3 254 273 272 
3 275 276 274 
3 296 295 277 
3 276 297 274 
3 297 296 274 
3 278 297 276 
3 317 299 279 
3 295 279 277 
3 295 296 279 
3 296 317 279 
3 300 297 280 
3 260 298 320 
3 323 301 281 
3 320 323 260 
3 280 282 302 
3 328 303 325 
3 304 302 236 
3 304 324 302 
3 283 328 305 
3 306 307 286 
3 345 306 284 
3 307 306 345 
3 308 285 287 
3 307 309 267 
3 286 307 267 
3 309 307 345 
3 267 309 288 
3 308 268 313 
3 287 268 308 
3 288 309 289 
3 289 311 290 
3 289 310 311 
3 289 309 310 
3 268 249 313 
3 311 312 292 
3 292 331 293 
3 293 314 315 
3 331 314 293 
3 294 332 313 
3 315 332 294 
3 313 249 291 
3 315 271 293 
3 272 271 315 
3 294 272 315 
3 291 294 313 
3 316 296 297 
3 333 317 296 
3 316 333 296 
3 318 316 297 
3 297 300 318 
3 321 320 298 
3 317 298 299 
3 317 322 298 
3 322 321 298 
3 319 318 300 
3 319 300 336 
3 336 300 280 
3 280 302 336 
3 323 326 301 
3 301 326 303 
3 326 325 303 
3 324 304 340 
3 327 340 304 
3 304 285 327 
3 327 308 329 
3 327 285 308 
3 305 345 284 
3 328 345 305 
3 329 308 313 
3 345 310 309 
3 310 345 330 
3 330 311 310 
3 332 344 313 
3 312 311 330 
3 331 312 330 
3 315 347 332 
3 331 347 315 
3 331 292 312 
3 315 314 331 
3 333 335 317 
3 316 318 334 
3 333 316 334 
3 318 319 334 
3 321 322 335 
3 322 317 335 
3 334 336 333 
3 336 335 333 
3 319 336 334 
3 320 337 323 
3 320 321 337 
3 335 338 321 
3 338 337 321 
3 336 339 335 
3 323 341 326 
3 323 337 341 
3 341 337 342 
3 335 339 338 
3 339 337 338 
3 302 324 339 
3 336 302 339 
3 325 326 341 
3 339 342 337 
3 340 342 339 
3 324 340 339 
3 328 325 341 
3 340 327 342 
3 342 344 341 
3 327 329 342 
3 328 341 345 
3 343 346 341 
3 346 345 341 
3 344 343 341 
3 342 313 344 
3 329 313 342 
3 344 332 343 
3 330 345 331 
3 346 331 345 
3 343 347 346 
3 347 331 346 
3 343 332 347 

POINT_DATA 348
COLOR_SCALARS scalars 3
1 0.564706 1 1 0.564706 1 1 0.564706 1 
1 0.564706 1 1 0.564706 1 
1 0.564706 1 1 0.564706 1 
1 0.564706 1 1 0.564706 1 
1 0.564706 1 1 0.564706 1 
1 0.564706 1 1 0.564706 1 
1 0.564706 1 1 0.564706 1 
1 0.564706 1 1 0.564706 1 
1 0.564706 1 1 0.564706 1 
1 0.564706 1 1 0.564706 1 
1 0.564706 1 1 0.564706 1 
1 0.564706 1 1 0.564706 1 
1 0.564706 1 1 0.564706 1 
1 0.564706 1 1 0.564706 1 
1 0.564706 1 1 0.564706 1 
1 0.564706 1 1 0.564706 1 
1 0.564706 1 1 0.564706 1 
1 0.564706 1 1 0.564706 1 
1 0.564706 1 1 0.564706 1 
1 0.564706 1 1 0.564706 1 
1 0.564706 1 1 0.564706 1 
1 0.564706 1 1 0.564706 1 
1 0.564706 1 1 0.564706 1 
1 0.564706 1 1 0.564706 1 
1 0.564706 1 1 0.564706 1 
1 0.564706 1 1 0.564706 1 
1 0.564706 1 1 0.564706 1 
1 0.564706 1 1 0.564706 1 
1 0.564706 1 1 0.564706 1 
1 0.564706 1 1 0.564706 1 
1 0.564706 1 1 0.564706 1 
1 0.564706 1 1 0.564706 1 
1 0.564706 1 1 0.564706 1 
1 0.564706 1 1 0.564706 1 
1 0.564706 1 1 0.564706 1 
1 0.564706 1 1 0.564706 1 
1 0.564706 1 1 0.564706 1 
1 0.564706 1 1 0.564706 1 
1 0.564706 1 1 0.564706 1 
1 0.564706 1 1 0.564706 1 
1 0.564706 1 1 0.564706 1 
1 0.564706 1 1 0.564706 1 
1 0.564706 1 1 0.564706 1 
1 0.564706 1 1 0.564706 1 
1 0.564706 1 1 0.564706 1 
1 0.564706 1 1 0.564706 1 
1 0.564706 1 1 0.564706 1 
1 0.564706 1 1 0.564706 1 
1 0.564706 1 1 0.564706 1 
1 0.564706 1 1 0.564706 1 
1 0.564706 1 1 0.564706 1 
1 0.564706 1 1 0.564706 1 
1 0.564706 1 1 0.564706 1 
1 0.564706 1 1 0.564706 1 
1 0.564706 1 1 0.564706 1 
1 0.564706 1 1 0.564706 1 
1 0.564706 1 1 0.564706 1 
1 0.564706 1 1 0.564706 1 
1 0.564706 1 1 0.564706 1 
1 0.564706 1 1 0.564706 1 
1 0.564706 1 1 0.564706 1 
1 0.564706 1 1 0.564706 1 
1 0.564706 1 1 0.564706 1 
1 0.564706 1 1 0.564706 1 
1 0.564706 1 1 0.564706 1 
1 0.564706 1 1 0.564706 1 
1 0.564706 1 1 0.564706 1 
1 0.564706 1 1 0.564706 1 
1 0.564706 1 1 0.564706 1 
1 0.564706 1 1 0.564706 1 
1 0.564706 1 1 0.564706 1 
1 0.564706 1 1 0.564706 1 
1 0.564706 1 1 0.564706 1 
1 0.564706 1 1 0.564706 1 
1 0.564706 1 1 0.564706 1 
1 0.564706 1 1 0.564706 1 
1 0.564706 1 1 0.564706 1 
1 0.564706 1 1 0.564706 1 
1 0.564706 1 1 0.564706 1 
1 0.564706 1 1 0.564706 1 
1 0.564706 1 1 0.564706 1 
1 0.564706 1 1 0.564706 1 
1 0.564706 1 1 0.564706 1 
1 0.564706 1 1 0.564706 1 
1 0.564706 1 1 0.564706 1 
1 0.564706 1 1 0.564706 1 
1 0.564706 1 1 0.564706 1 
1 0.564706 1 1 0.564706 1 
1 0.564706 1 1 0.564706 1 
1 0.564706 1 1 0.564706 1 
1 0.564706 1 1 0.564706 1 
1 0.564706 1 1 0.564706 1 
1 0.564706 1 1 0.564706 1 
1 0.564706 1 1 0.564706 1 
1 0.564706 1 1 0.564706 1 
1 0.564706 1 1 0.564706 1 
1 0.564706 1 1 0.564706 1 
1 0.564706 1 1 0.564706 1 
1 0.564706 1 1 0.564706 1 
1 0.564706 1 1 0.564706 1 
1 0.564706 1 1 0.564706 1 
1 0.564706 1 1 0.564706 1 
1 0.564706 1 1 0.564706 1 
1 0.564706 1 1 0.564706 1 
1 0.564706 1 1 0.564706 1 
1 0.564706 1 1 0.564706 1 
1 0.564706 1 1 0.564706 1 
1 0.564706 1 1 0.564706 1 
1 0.564706 1 1 0.564706 1 
1 0.564706 1 1 0.564706 1 
1 0.564706 1 1 0.564706 1 
1 0.564706 1 1 0.564706 1 
1 0.564706 1 1 0.564706 1 
1 0.564706 1 1 0.564706 1 
1 0.564706 1 1 0.564706 1 
1 0.564706 1 1 0.564706 1 
1 0.564706 1 1 0.564706 1 
1 0.564706 1 1 0.564706 1 
1 0.564706 1 1 0.564706 1 
1 0.564706 1 1 0.564706 1 
1 0.564706 1 1 0.564706 1 
1 0.564706 1 1 0.564706 1 
1 0.564706 1 1 0.564706 1 
1 0.564706 1 1 0.564706 1 
1 0.564706 1 1 0.564706 1 
1 0.564706 1 1 0.564706 1 
1 0.564706 1 1 0.564706 1 
1 0.564706 1 1 0.564706 1 
1 0.564706 1 1 0.564706 1 
1 0.564706 1 1 0.564706 1 
1 0.564706 1 1 0.564706 1 
1 0.564706 1 1 0.564706 1 
1 0.564706 1 1 0.564706 1 
1 0.564706 1 1 0.564706 1 
1 0.564706 1 1 0.564706 1 
1 0.564706 1 1 0.564706 1 
1 0.564706 1 1 0.564706 1 
1 0.564706 1 1 0.564706 1 
1 0.564706 1 1 0.564706 1 
1 0.564706 1 1 0.564706 1 
1 0.564706 1 1 0.564706 1 
1 0.564706 1 1 0.564706 1 
1 0.564706 1 1 0.564706 1 
1 0.564706 1 1 0.564706 1 
1 0.564706 1 1 0.564706 1 
1 0.564706 1 1 0.564706 1 
1 0.564706 1 1 0.564706 1 
1 0.564706 1 1 0.564706 1 
1 0.564706 1 1 0.564706 1 
1 0.564706 1 1 0.564706 1 
1 0.564706 1 1 0.564706 1 
1 0.564706 1 1 0.564706 1 
1 0.564706 1 1 0.564706 1 
1 0.564706 1 1 0.564706 1 
1 0.564706 1 1 0.564706 1 
1 0.564706 1 1 0.564706 1 
1 0.564706 1 1 0.564706 1 
1 0.564706 1 1 0.564706 1 
1 0.564706 1 1 0.564706 1 
1 0.564706 1 1 0.564706 1 
1 0.564706 1 1 0.564706 1 
1 0.564706 1 1 0.564706 1 
1 0.564706 1 1 0.564706 1 
1 0.564706 1 1 0.564706 1 
1 0.564706 1 1 0.564706 1 
1 0.564706 1 1 0.564706 1 
1 0.564706 1 1 0.564706 1 
1 0.564706 1 1 0.564706 1 
1 0.564706 1 1 0.564706 1 
1 0.564706 1 1 0.564706 1 
1 0.564706 1 1 0.564706 1 
1 0.564706 1 1 0.564706 1 
1 0.564706 1 1 0.564706 1 
1 0.564706 1 
NORMALS Normals float
0.0132379 -0.566128 -0.824211 0.262341 -0.461298 -0.847574 -0.179672 -0.530369 -0.828509 
0.150532 -0.24262 -0.958371 0.626238 -0.391912 -0.673967 -0.31869 -0.434924 -0.842186 
0.221173 -0.162345 -0.961627 -0.290133 -0.320229 -0.901818 0.443941 0.0436611 -0.894992 
0.0993588 0.073841 -0.992308 -0.347139 0.0694359 -0.93524 -0.0766748 0.0868033 -0.99327 
0.250202 0.323768 -0.912455 0.0532385 0.454591 -0.889108 -0.278723 -0.671662 -0.686428 
0.146952 -0.710485 -0.688198 -0.436828 -0.632932 -0.639201 0.803312 -0.421027 -0.42122 
0.645935 -0.0512523 -0.76167 -0.657942 -0.517683 -0.546916 -0.661827 -0.153463 -0.733781 
0.540961 0.286696 -0.790675 -0.557232 0.184402 -0.809622 -0.547434 0.515044 -0.65958 
-0.188974 0.60083 -0.776719 0.311843 -0.763524 -0.565496 0.0698464 -0.957834 -0.278703 
-0.109411 -0.794948 -0.59673 -0.233354 -0.826284 -0.512641 -0.450787 -0.776612 -0.440074 
-0.245903 -0.86711 -0.433188 -0.581821 -0.74443 -0.327579 -0.537883 -0.704251 -0.46337 
-0.723558 -0.607064 -0.328537 -0.810624 -0.4594 -0.363099 -0.831385 -0.135904 -0.538822 
-0.84718 -0.0728731 -0.526284 0.731952 0.278316 -0.621921 -0.914443 0.183535 -0.360705 
0.622756 0.540541 -0.565676 -0.723113 0.298687 -0.622811 -0.301076 0.790728 -0.533012 
-0.0628954 -0.995464 -0.0713876 0.412075 -0.905363 -0.102528 0.647402 -0.744529 -0.162934 
-0.316924 -0.939593 -0.129324 0.71544 -0.640759 -0.278522 0.766163 -0.593834 -0.245676 
-0.564128 -0.824719 0.0399929 -0.696843 -0.714005 -0.0678724 0.820175 -0.198863 -0.536438 
-0.812623 -0.577265 -0.0800594 0.822292 0.0577038 -0.566133 -0.886563 -0.46194 0.0248506 
-0.989616 0.000627691 -0.143733 0.723135 0.500066 -0.476455 -0.908941 0.38273 -0.165359 
0.236942 0.741963 -0.627176 0.498984 0.692808 -0.520608 -0.711476 0.647266 -0.273584 
-0.551686 0.807842 -0.207445 -0.435241 -0.89968 0.0337944 0.860288 -0.50255 -0.0857204 
-0.657853 -0.728118 0.192546 0.914141 -0.265254 -0.306571 0.979531 -0.130574 -0.153194 
0.953507 0.149643 -0.261594 -0.979567 -0.196181 -0.0442795 -0.93639 -0.172818 0.305462 
-0.987287 0.104408 0.119849 0.777296 0.492972 -0.390882 0.631908 0.708298 -0.314653 
-0.82796 0.556106 -0.0723078 0.432713 0.847503 -0.307404 -0.691406 0.716915 0.0893923 
-0.493033 0.865729 -0.0862076 -0.197883 0.900929 -0.386225 -0.0303935 0.872182 -0.488237 
-0.341986 0.937407 -0.0656753 0.0369862 0.988759 -0.144873 0.0555123 -0.931488 0.359511 
0.37077 -0.917117 0.146375 0.659761 -0.734427 0.159159 -0.263439 -0.904808 0.334549 
-0.56682 -0.813046 0.132931 -0.640042 -0.670559 0.375096 -0.696419 -0.652021 0.299782 
0.905061 -0.414762 -0.0940027 -0.917962 0.0587991 0.392286 -0.906735 0.335847 0.255024 
0.214519 0.931127 -0.29493 -0.585934 0.778821 0.223874 0.158728 0.98159 -0.106238 
-0.217945 0.974696 0.0496792 -0.180598 0.979073 0.0938081 0.146671 0.971284 -0.187335 
0.836246 -0.519186 0.17646 -0.518962 -0.703598 0.485415 0.955099 -0.290466 0.0584457 
0.954825 -0.171665 0.242569 -0.735342 -0.484623 0.473723 0.970113 -0.0584931 0.2355 
-0.788701 -0.2205 0.573873 0.961335 0.13458 0.240257 0.897352 0.434486 -0.0773399 
-0.835949 0.00621427 0.548772 0.700012 0.71386 0.0196528 -0.703344 0.212045 0.678487 
-0.778649 0.424845 0.46175 0.535522 0.84036 -0.0837342 -0.674368 0.704545 0.221006 
-0.38019 0.877081 0.293572 0.363448 0.928306 0.0784475 -0.103872 0.968025 0.22834 
0.0359666 0.960893 0.274575 -0.343232 -0.753603 0.560601 0.521411 -0.679891 0.515635 
-0.483118 -0.647924 0.58889 -0.450259 -0.53394 0.715664 0.81483 -0.410264 0.409554 
0.830432 -0.265189 0.489956 -0.605197 -0.364703 0.707621 -0.61522 0.018649 0.788135 
0.734907 0.637332 0.231776 0.853712 0.437725 0.282088 -0.579305 0.576323 0.576418 
-0.258266 0.766524 0.587997 0.131963 0.94337 0.304366 0.2743 -0.560455 0.781441 
0.00311984 -0.522211 0.852811 0.537994 -0.374036 0.75542 0.791295 0.0302824 0.610684 
-0.396192 -0.294875 0.869529 0.751068 0.382199 0.538351 0.652471 0.630066 0.421069 
0.636261 0.481329 0.602905 -0.543768 0.26509 0.796268 0.424296 0.829518 0.363143 
-0.359668 0.40744 0.839423 -0.224516 0.589756 0.775745 -0.098847 0.70504 0.702245 
0.0258258 0.850313 0.525643 0.266879 0.880687 0.391364 -0.140861 -0.251896 0.957448 
0.488328 -0.252269 0.835402 0.548374 0.0377623 0.83538 0.55542 0.33625 0.760556 
0.573674 0.569204 0.588986 0.460206 0.561849 0.687413 -0.305662 0.260716 0.91575 
0.395105 0.701374 0.593268 0.279655 0.708976 0.647415 0.0485164 0.63892 0.767742 
0.243689 0.767921 0.592379 0.227758 -0.131123 0.964849 0.377372 0.00620778 0.926041 
-0.132191 -0.0537439 0.989766 0.113883 0.0557882 0.991927 -0.0238435 0.288912 0.957059 
0.403536 0.222436 0.887514 -0.00163068 0.39155 0.920156 0.193958 0.427346 0.883038 
0.214962 0.387776 0.896337 0.20593 0.548072 0.810685 0.104493 0.00151235 -0.994525 
0.219379 -0.20026 -0.954866 0.391778 0.20932 -0.895933 0.496878 0.0720308 -0.864826 
-0.0941353 0.343723 -0.934341 0.0482049 0.2213 -0.974014 0.354807 0.332716 -0.873734 
-0.0203636 0.71545 -0.698367 0.197421 0.656516 -0.728019 0.171994 -0.464031 -0.868961 
-0.116547 -0.29704 -0.947726 -0.0146263 -0.399205 -0.916745 0.480168 -0.436505 -0.760856 
0.668645 -0.200071 -0.716161 -0.318997 -0.162197 -0.933773 0.62046 0.11178 -0.776231 
-0.263651 0.0791361 -0.961366 -0.299923 0.171935 -0.938341 0.595819 0.632677 -0.494691 
-0.382795 0.499101 -0.77741 0.366222 0.681801 -0.633268 -0.203877 0.609465 -0.766151 
0.212656 0.884013 -0.41629 0.514789 -0.626028 -0.585732 0.70748 -0.493239 -0.506149 
-0.373128 -0.57883 -0.725074 0.691683 -0.406415 -0.596994 0.861597 -0.280146 -0.423283 
0.929299 -0.181813 -0.321476 0.949594 0.0306088 -0.311983 0.833827 0.170978 -0.524879 
0.955433 0.194186 -0.222349 -0.478628 0.0535089 -0.876386 0.750104 0.49518 -0.43834 
-0.382828 0.50624 -0.772763 0.351562 0.871073 -0.342981 -0.0207324 -0.555389 -0.831333 
0.254384 -0.389795 -0.88507 0.509374 -0.540121 -0.669931 -0.45616 -0.752448 -0.475121 
0.785876 -0.576607 -0.223435 0.842144 -0.410365 -0.349849 0.902972 -0.281394 -0.324743 
-0.539754 -0.395022 -0.743386 -0.700179 0.00919179 -0.713908 -0.751978 0.0671236 -0.655762 
0.537421 0.827563 -0.16223 -0.600144 0.607702 -0.52012 -0.133584 0.825297 -0.548671 
-0.285149 0.850081 -0.442777 -0.00520154 0.927751 -0.373163 0.121909 0.945197 -0.302886 
-0.0775116 0.870377 -0.486246 0.050412 0.95561 -0.290291 -0.0440415 -0.943593 -0.328166 
-0.214675 -0.897941 -0.384211 0.187283 -0.833431 -0.519922 0.172481 -0.898544 -0.403571 
-0.514774 -0.733589 -0.443683 -0.718074 -0.572182 -0.396204 -0.840167 -0.402625 -0.363336 
0.995127 -0.0956661 -0.0238911 0.895876 0.436724 -0.0817174 -0.644449 0.73244 -0.219584 
-0.347199 0.852321 -0.391155 -0.486927 0.862323 -0.138926 0.0962946 0.994108 -0.0497736 
0.340516 -0.906178 -0.250778 0.672333 -0.7146 -0.193172 -0.544586 -0.812517 -0.207948 
-0.575423 -0.800939 -0.165485 0.80234 -0.592952 0.0682581 0.941069 -0.330319 0.0726509 
-0.659218 -0.740805 -0.128996 0.910503 -0.355927 0.210476 -0.693195 -0.612645 -0.379666 
0.964613 -0.25708 0.0585831 0.989277 0.0236933 0.144118 0.896535 0.332537 0.29265 