# vtk DataFile Version 4.2
vtk output
ASCII
DATASET POLYDATA
POINTS 962 float
295.611 124.502 63.5881 295.431 124.565 63.6056 295.642 124.623 63.6803 
296.266 121.299 63.8276 297.328 122.34 64.3754 296.177 123.425 63.7719 
290.228 124.647 63.7793 292.435 124.973 63.7038 294.964 124.395 63.584 
290.009 125.465 63.9692 295.16 125.375 64.2329 289.455 123.057 64.0733 
296.32 124.528 64.107 288.752 125.29 64.2704 296.178 124.876 64.2231 
296.514 124.758 64.4541 286.099 125.974 65.2797 285.972 125.824 65.4386 
286.034 126.056 65.3871 286.128 125.715 65.2366 286.952 126.234 65.1404 
289.129 126.563 64.7159 291.952 126.626 64.697 287.307 126.745 65.3865 
297.095 117.649 65.0164 287.407 121.753 65.3106 298.28 121.832 65.347 
286.569 122.534 65.5548 285.816 123.998 65.5698 285.546 124.285 65.7189 
286.218 123.986 65.252 285.489 124.539 65.7384 285.586 124.807 65.6748 
285.985 125.143 65.3831 286.073 126.16 65.6192 285.813 125.748 65.9525 
293.386 126.915 65.3051 294.875 126.478 65.3556 287.357 127.161 65.7643 
286.697 127.076 66.28 301.536 113.455 67.0194 299.686 114.387 66.2549 
296.888 115.355 65.526 300.485 115.578 66.7284 287.499 119.717 66.4301 
285.579 123.195 66.5559 285.446 124.682 65.9187 297.042 125.236 65.5873 
286.003 126.667 67.1188 312.048 104.026 68.6707 312.306 103.87 68.7753 
310.126 104.991 68.3144 310.083 104.848 68.31 308.343 106.14 68.2783 
308.977 105.94 68.3535 301.843 110.829 67.0845 303.893 110.09 67.7465 
298.095 111.99 66.5138 302.882 111.843 67.551 289.971 115.492 67.1677 
287.204 119.123 67.254 285.659 126.188 67.4789 295.506 126.838 66.2821 
296.703 126.23 66.5734 315.351 101.559 69.2821 315.23 101.95 69.3234 
315.598 102.054 69.5687 308.441 104.354 68.2878 311.196 104.567 68.623 
296.259 110.012 67.71 291.901 112.42 68.0503 289.8 113.915 68.5986 
290.293 113.653 68.2986 301.955 114.251 67.5423 288.195 116.147 68.5102 
288.355 116.342 68.0763 285.493 122.794 67.7587 299.539 122.046 67.6737 
285.461 123.072 68.1163 285.36 125.116 67.6226 298.508 124.782 67.6608 
293.766 127.881 67.4268 295.029 127.602 67.7139 286.15 127.151 68.1935 
318.181 98.3871 70.2022 318.069 99.6751 70.2138 311.027 102.164 68.6842 
312.895 104.45 69.4399 309.056 107.436 69.3541 293.591 109.97 68.8955 
290.526 112.315 69.638 292.51 111.072 68.7175 305.017 111.161 68.8655 
290.888 112.415 68.872 289.599 113.842 69.0871 303.373 113.509 68.7619 
287.874 116.295 69.2038 301.873 116.636 68.9962 286.355 120.327 68.8745 
285.388 124.367 68.4268 298.309 125.467 68.3459 286.857 127.932 69.0595 
291.056 128.868 69.2153 287.689 128.548 69.6891 289.148 128.896 69.337 
318.793 96.9935 70.8759 319.388 97.0664 71.2283 313.104 99.6755 69.3439 
317.852 100.744 70.4391 313.851 104.259 70.1157 312.634 105.07 69.8418 
296.701 106.386 69.8872 309.885 107.384 70 292.28 109.922 70.4808 
290.939 111.687 70.3499 289.9 113.073 69.7638 304.969 111.961 69.5399 
289.117 114.394 70.2013 303.166 114.85 69.7408 287.444 117.45 69.7002 
299.253 124.22 69.5773 298.895 124.773 69.9386 292.251 128.76 69.508 
295.343 127.581 69.6287 287.89 128.774 70.7645 317.897 95.1396 71.3092 
318.783 95.6283 71.3148 319.376 95.528 71.5815 319.84 95.7674 71.8017 
320.336 95.2585 72.3012 319.894 96.5706 71.7281 319.811 98.0124 71.6796 
319.157 99.678 71.2607 302.758 101.293 70.9402 318.453 100.814 71.1885 
315.408 103.456 70.738 295.897 105.804 71.1639 310.617 107.272 70.7015 
305.128 112.767 71.137 301.617 118.013 70.1769 301.499 118.348 70.5792 
300.594 120.402 70.3662 299.641 122.627 70.4837 286.134 124.528 70.8948 
286.535 127.247 70.6959 297.292 126.39 70.2715 286.778 127.673 70.844 
296.188 127.065 70.1058 291.652 128.865 70.7097 320.571 93.5728 72.8876 
319.117 93.7133 72.2359 319.605 99.119 71.6653 319.661 99.3235 71.9648 
319.32 99.9897 71.8024 297.675 103.674 72.3455 310.784 107.352 71.199 
292.382 109.766 71.8422 306.814 110.763 71.9323 305.499 112.445 71.8264 
288.88 115.617 71.6748 303.065 115.523 71.3841 302.557 116.209 71.6883 
297.791 124.732 71.6496 297.006 125.536 71.6608 295.22 127.103 71.2558 
288.834 129.089 70.9082 291.75 128.81 71.2399 291.657 128.708 71.5644 
289.021 129.005 71.4099 321.304 91.661 73.8834 317.395 92.3318 72.8757 
321.282 92.7348 73.5941 318.66 93.1268 72.461 320.439 97.8464 72.8685 
302.391 98.8669 73.3463 303.562 98.6364 72.6313 301.427 100.372 72.4902 
319.74 99.3853 72.537 299.775 101.207 73.9762 298.878 102.277 73.2731 
298.744 102.297 73.804 318.729 100.945 72.1742 317.54 102.26 72.5713 
316.257 103.274 72.0533 295.46 105.81 73.2104 310.909 107.362 71.6526 
309.589 108.332 72.5348 310.765 107.459 72.135 291.995 110.923 72.864 
306.421 111.17 72.5049 308.063 109.494 72.7582 305.504 112.377 72.2035 
289.927 114.489 72.7054 301.32 117.995 72.1619 300.185 119.182 72.7688 
301.207 118.497 71.7809 286.998 123.934 72.5551 287.008 125.67 72.3622 
287.88 128.271 72.6443 289.669 128.722 72.269 289.974 128.515 72.5321 
292.704 128.269 71.6479 287.989 128.491 72.4145 321.849 90.3242 74.7933 
319.265 90.561 73.9747 322.375 91.1667 74.902 322.438 92.5215 74.9083 
303.59 97.1481 74.3541 302.574 98.1159 74.3924 303.622 97.7747 73.4362 
320.341 98.3717 73.8304 299.373 101.629 74.3065 298.378 102.766 74.2366 
309.592 108.131 73.23 306.212 111.093 73.1093 305.848 111.069 73.6412 
305.915 111.662 72.7545 291.09 113.831 73.9017 304.52 113.21 72.7334 
300.9 116.743 73.6453 300.199 116.977 74.0534 293.993 125.433 73.3774 
290.172 127.613 73.3147 289.276 128.228 73.0296 288.847 128.233 73.0835 
288.057 128.257 72.8888 288.425 128.491 72.7931 288.146 128.452 72.7103 
320.06 89.2535 74.8493 320.797 89.1956 74.9855 322.353 89.6689 75.3888 
322.027 88.852 75.5693 322.915 89.4649 75.8628 323.232 90.4615 76.1212 
308.518 93.3606 74.7744 322.172 94.1265 74.9929 304.27 96.1786 75.2726 
304.207 96.1391 75.814 305.568 95.3415 74.8279 303.326 97.1245 75.7035 
321.764 95.4083 74.9854 321.136 96.783 74.4035 301.897 98.7236 75.1035 
320.296 98.3205 74.3551 300.257 100.704 74.9232 318.94 100.043 74.44 
299.019 102.327 75.0299 298.226 103.063 74.5191 310.17 106.039 75.0343 
312.593 105.338 73.8661 295.723 106.947 75.1498 309.795 107.34 74.1148 
305.525 109.071 75.3925 303.412 110.956 75.4113 303.663 112.491 74.3773 
290.223 116.874 74.4511 293.071 123.932 74.3595 290.307 124.428 74.5726 
291.059 125.822 74.0734 288.181 128.067 73.0619 323.003 87.3489 76.8197 
314.403 89.3239 75.6884 311.699 90.4749 75.9436 307.589 93.1942 75.9592 
305.976 94.4249 76.0478 321.243 96.3419 75.4977 294.173 110.172 75.4572 
290.233 118.735 75.1032 323.653 86.6576 77.7494 321.711 87.0162 76.5325 
314.085 88.0807 77.1766 313.035 88.7157 77.2228 323.864 89.2957 77.2218 
323.665 90.5681 77.2711 307.942 92.5936 77.2027 323.131 92.2165 77.2518 
305.669 94.7219 77.0664 304.369 96.1684 76.7239 321.878 94.7753 76.53 
304.081 96.8345 77.1728 319.654 96.7917 77.0659 321.058 96.2723 76.0681 
301.495 100.838 77.0854 298.201 105.477 76.6104 294.105 111.616 76.0344 
298.878 112.762 76.4097 292.793 114.535 75.8447 292.924 116.371 76.0461 
293.645 115.655 76.2778 289.858 120.843 75.0547 319.559 85.231 77.9718 
323.563 85.3579 78.7768 317.249 85.7098 78.1839 324.214 86.5075 78.5943 
315.088 87.39 77.4025 324.248 87.0643 78.439 312.168 88.9547 78.0671 
311.977 89.037 78.5147 324.345 88.5802 78.5307 309.839 91.0233 78.4905 
308.682 92.0098 78.0991 309.111 91.7561 78.4482 322.882 92.6788 77.3661 
322.689 92.7911 77.7741 305.362 95.5258 77.6724 321.433 95.1473 76.8408 
304.199 97.4927 77.8806 304.328 104.274 77.9024 302.199 106.029 77.6586 
301.376 106.361 77.6303 297.804 107.311 77.0409 293.467 115.29 76.2685 
291.941 117.21 75.8965 291.948 117.483 75.918 322.797 84.5229 79.0094 
322.811 84.3375 79.2742 323.167 84.5729 79.1206 323.147 84.4459 79.2824 
319.217 84.1163 79.3091 322.698 84.8227 78.6502 323.308 84.5951 79.386 
323.394 84.8403 79.0853 315.668 85.6932 79.816 316.642 85.3342 79.123 
324.332 86.0172 79.2477 324.024 85.5292 79.3742 315.745 86.283 78.4833 
324.512 86.2439 79.4706 313.2 87.9019 79.3285 311.648 89.3534 78.6728 
310.028 91.0753 78.96 311.359 89.9142 79.3632 310.324 91.1169 79.4493 
308.785 92.4506 78.9492 308.192 92.9556 78.7939 319.319 94.4358 79.1092 
322.211 93.2203 78.0403 305.338 96.2013 78.2738 305.436 96.4946 78.5551 
306.29 101.679 78.5693 302.112 102.522 78.0112 304.333 102.26 78.464 
301.283 103.116 77.7971 302.685 103.646 78.106 298.222 108.495 77.3185 
296.067 110.504 76.8951 295.155 111.526 76.6906 319.563 83.3904 80.466 
316.992 84.2236 80.6694 317.618 84.2308 79.8744 318.315 84.0056 79.7551 
322.423 84.2153 79.8739 323.374 84.6774 79.938 315.812 85.4477 80.3697 
324.171 85.5424 79.8429 324.365 85.8139 80.0072 313.729 87.3895 79.8982 
324.691 86.6949 79.9361 324.635 87.527 80.1669 324.709 86.9643 80.0639 
307.979 93.5429 79.1039 304.011 100.352 78.7062 317.967 83.0446 81.5768 
318.453 83.053 81.0934 318.753 82.8451 81.3874 319.177 82.9288 81.2514 
317.16 83.874 81.4886 315.882 85.415 81.0645 314.389 86.8463 80.5529 
313.413 87.9718 80.4195 314.294 87.0903 80.807 324.602 86.6685 80.363 
313.591 88.134 80.8799 324.665 87.5015 80.9328 324.618 87.7557 81.2995 
313.257 88.5976 80.8193 324.433 88.4274 80.5375 310.742 91.8453 80.301 
308.927 93.3999 79.8046 313.351 94.2272 80.7278 313.788 93.4671 81.0134 
306.292 96.9476 79.27 305.519 99.1117 79.1246 303.825 100.678 78.7369 
318.186 82.8268 81.7799 317.907 83.0501 81.9113 318.496 82.7262 81.7056 
318.38 82.7066 81.9472 318.792 82.7043 81.7192 318.941 82.7177 81.9113 
317.662 83.3882 82.1312 317.268 83.8368 81.9632 320.78 83.5028 81.5992 
320.579 83.4432 81.8882 316.215 85.3111 81.8538 315.602 86.0478 81.5726 
324.058 86.164 81.5298 314.215 87.418 81.0993 324.51 87.5052 81.7032 
314.406 87.5383 81.4244 324.544 87.798 81.6139 324.454 88.0932 81.507 
316.396 91.3513 81.7936 317.699 90.8773 81.9381 312.398 92.9368 81.101 
311.75 93.0124 80.9604 309.295 95.196 80.3237 317.99 83.0716 82.2681 
318.242 82.8895 82.3342 318.672 82.8115 82.408 318.962 82.8561 82.3683 
320.39 83.4684 82.2208 317.381 84.4585 82.876 316.582 85.6807 82.7018 
[...]
POINT_DATA 962
COLOR_SCALARS scalars 3
0.00392157 0.576471 0.6 0.00392157 0.576471 0.6 0.00392157 0.576471 0.6 
0.00392157 0.576471 0.6 0.00392157 0.576471 0.6 
0.00392157 0.576471 0.6 0.00392157 0.576471 0.6 
0.00392157 0.576471 0.6 0.00392157 0.576471 0.6 
0.00392157 0.576471 0.6 0.00392157 0.576471 0.6 
0.00392157 0.576471 0.6 0.00392157 0.576471 0.6 
0.00392157 0.576471 0.6 0.00392157 0.576471 0.6 
0.00392157 0.576471 0.6 0.00392157 0.576471 0.6 
0.00392157 0.576471 0.6 0.00392157 0.576471 0.6 
0.00392157 0.576471 0.6 0.00392157 0.576471 0.6 
0.00392157 0.576471 0.6 0.00392157 0.576471 0.6 
0.00392157 0.576471 0.6 0.00392157 0.576471 0.6 
0.00392157 0.576471 0.6 0.00392157 0.576471 0.6 
0.00392157 0.576471 0.6 0.00392157 0.576471 0.6 
0.00392157 0.576471 0.6 0.00392157 0.576471 0.6 
0.00392157 0.576471 0.6 0.00392157 0.576471 0.6 
0.00392157 0.576471 0.6 0.00392157 0.576471 0.6 
0.00392157 0.576471 0.6 0.00392157 0.576471 0.6 
0.00392157 0.576471 0.6 0.00392157 0.576471 0.6 
0.00392157 0.576471 0.6 0.00392157 0.576471 0.6 
0.00392157 0.576471 0.6 0.00392157 0.576471 0.6 
0.00392157 0.576471 0.6 0.00392157 0.576471 0.6 
0.00392157 0.576471 0.6 0.00392157 0.576471 0.6 
0.00392157 0.576471 0.6 0.00392157 0.576471 0.6 
0.00392157 0.576471 0.6 0.00392157 0.576471 0.6 
0.00392157 0.576471 0.6 0.00392157 0.576471 0.6 
0.00392157 0.576471 0.6 0.00392157 0.576471 0.6 
0.00392157 0.576471 0.6 0.00392157 0.576471 0.6 
0.00392157 0.576471 0.6 0.00392157 0.576471 0.6 
0.00392157 0.576471 0.6 0.00392157 0.576471 0.6 
0.00392157 0.576471 0.6 0.00392157 0.576471 0.6 
0.00392157 0.576471 0.6 0.00392157 0.576471 0.6 
0.00392157 0.576471 0.6 0.00392157 0.576471 0.6 
0.00392157 0.576471 0.6 0.00392157 0.576471 0.6 
0.00392157 0.576471 0.6 0.00392157 0.576471 0.6 
0.00392157 0.576471 0.6 0.00392157 0.576471 0.6 
0.00392157 0.576471 0.6 0.00392157 0.576471 0.6 
0.00392157 0.576471 0.6 0.00392157 0.576471 0.6 
0.00392157 0.576471 0.6 0.00392157 0.576471 0.6 
0.00392157 0.576471 0.6 0.00392157 0.576471 0.6 
0.00392157 0.576471 0.6 0.00392157 0.576471 0.6 
0.00392157 0.576471 0.6 0.00392157 0.576471 0.6 
0.00392157 0.576471 0.6 0.00392157 0.576471 0.6 
0.00392157 0.576471 0.6 0.00392157 0.576471 0.6 
0.00392157 0.576471 0.6 0.00392157 0.576471 0.6 
0.00392157 0.576471 0.6 0.00392157 0.576471 0.6 
0.00392157 0.576471 0.6 0.00392157 0.576471 0.6 
0.00392157 0.576471 0.6 0.00392157 0.576471 0.6 
0.00392157 0.576471 0.6 0.00392157 0.576471 0.6 
0.00392157 0.576471 0.6 0.00392157 0.576471 0.6 
0.00392157 0.576471 0.6 0.00392157 0.576471 0.6 
0.00392157 0.576471 0.6 0.00392157 0.576471 0.6 
0.00392157 0.576471 0.6 0.00392157 0.576471 0.6 
0.00392157 0.576471 0.6 0.00392157 0.576471 0.6 
0.00392157 0.576471 0.6 0.00392157 0.576471 0.6 
0.00392157 0.576471 0.6 0.00392157 0.576471 0.6 
0.00392157 0.576471 0.6 0.00392157 0.576471 0.6 
0.00392157 0.576471 0.6 0.00392157 0.576471 0.6 
0.00392157 0.576471 0.6 0.00392157 0.576471 0.6 
0.00392157 0.576471 0.6 0.00392157 0.576471 0.6 
0.00392157 0.576471 0.6 0.00392157 0.576471 0.6 
0.00392157 0.576471 0.6 0.00392157 0.576471 0.6 
0.00392157 0.576471 0.6 0.00392157 0.576471 0.6 
0.00392157 0.576471 0.6 0.00392157 0.576471 0.6 
0.00392157 0.576471 0.6 0.00392157 0.576471 0.6 
0.00392157 0.576471 0.6 0.00392157 0.576471 0.6 
0.00392157 0.576471 0.6 0.00392157 0.576471 0.6 
0.00392157 0.576471 0.6 0.00392157 0.576471 0.6 
0.00392157 0.576471 0.6 0.00392157 0.576471 0.6 
0.00392157 0.576471 0.6 0.00392157 0.576471 0.6 
0.00392157 0.576471 0.6 0.00392157 0.576471 0.6 
0.00392157 0.576471 0.6 0.00392157 0.576471 0.6 
0.00392157 0.576471 0.6 0.00392157 0.576471 0.6 
0.00392157 0.576471 0.6 0.00392157 0.576471 0.6 
0.00392157 0.576471 0.6 0.00392157 0.576471 0.6 
0.00392157 0.576471 0.6 0.00392157 0.576471 0.6 
0.00392157 0.576471 0.6 0.00392157 0.576471 0.6 
0.00392157 0.576471 0.6 0.00392157 0.576471 0.6 
0.00392157 0.576471 0.6 0.00392157 0.576471 0.6 
0.00392157 0.576471 0.6 0.00392157 0.576471 0.6 
0.00392157 0.576471 0.6 0.00392157 0.576471 0.6 
0.00392157 0.576471 0.6 0.00392157 0.576471 0.6 
0.00392157 0.576471 0.6 0.00392157 0.576471 0.6 
0.00392157 0.576471 0.6 0.00392157 0.576471 0.6 
0.00392157 0.576471 0.6 0.00392157 0.576471 0.6 
0.00392157 0.576471 0.6 0.00392157 0.576471 0.6 
0.00392157 0.576471 0.6 0.00392157 0.576471 0.6 
0.00392157 0.576471 0.6 0.00392157 0.576471 0.6 
0.00392157 0.576471 0.6 0.00392157 0.576471 0.6 
0.00392157 0.576471 0.6 0.00392157 0.576471 0.6 
0.00392157 0.576471 0.6 0.00392157 0.576471 0.6 
0.00392157 0.576471 0.6 0.00392157 0.576471 0.6 
0.00392157 0.576471 0.6 0.00392157 0.576471 0.6 
0.00392157 0.576471 0.6 0.00392157 0.576471 0.6 
0.00392157 0.576471 0.6 0.00392157 0.576471 0.6 
0.00392157 0.576471 0.6 0.00392157 0.576471 0.6 
0.00392157 0.576471 0.6 0.00392157 0.576471 0.6 
0.00392157 0.576471 0.6 0.00392157 0.576471 0.6 
0.00392157 0.576471 0.6 0.00392157 0.576471 0.6 
0.00392157 0.576471 0.6 0.00392157 0.576471 0.6 
0.00392157 0.576471 0.6 0.00392157 0.576471 0.6 
0.00392157 0.576471 0.6 0.00392157 0.576471 0.6 
0.00392157 0.576471 0.6 0.00392157 0.576471 0.6 
0.00392157 0.576471 0.6 0.00392157 0.576471 0.6 
0.00392157 0.576471 0.6 0.00392157 0.576471 0.6 
0.00392157 0.576471 0.6 0.00392157 0.576471 0.6 
0.00392157 0.576471 0.6 0.00392157 0.576471 0.6 
0.00392157 0.576471 0.6 0.00392157 0.576471 0.6 
0.00392157 0.576471 0.6 0.00392157 0.576471 0.6 
0.00392157 0.576471 0.6 0.00392157 0.576471 0.6 
0.00392157 0.576471 0.6 0.00392157 0.576471 0.6 
0.00392157 0.576471 0.6 0.00392157 0.576471 0.6 
0.00392157 0.576471 0.6 0.00392157 0.576471 0.6 
0.00392157 0.576471 0.6 0.00392157 0.576471 0.6 
0.00392157 0.576471 0.6 0.00392157 0.576471 0.6 
0.00392157 0.576471 0.6 0.00392157 0.576471 0.6 
0.00392157 0.576471 0.6 0.00392157 0.576471 0.6 
0.00392157 0.576471 0.6 0.00392157 0.576471 0.6 
0.00392157 0.576471 0.6 0.00392157 0.576471 0.6 
0.00392157 0.576471 0.6 0.00392157 0.576471 0.6 
0.00392157 0.576471 0.6 0.00392157 0.576471 0.6 
0.00392157 0.576471 0.6 0.00392157 0.576471 0.6 
0.00392157 0.576471 0.6 0.00392157 0.576471 0.6 
0.00392157 0.576471 0.6 0.00392157 0.576471 0.6 
0.00392157 0.576471 0.6 0.00392157 0.576471 0.6 
0.00392157 0.576471 0.6 0.00392157 0.576471 0.6 
0.00392157 0.576471 0.6 0.00392157 0.576471 0.6 
0.00392157 0.576471 0.6 0.00392157 0.576471 0.6 
0.00392157 0.576471 0.6 0.00392157 0.576471 0.6 
0.00392157 0.576471 0.6 0.00392157 0.576471 0.6 
0.00392157 0.576471 0.6 0.00392157 0.576471 0.6 
0.00392157 0.576471 0.6 0.00392157 0.576471 0.6 
0.00392157 0.576471 0.6 0.00392157 0.576471 0.6 
0.00392157 0.576471 0.6 0.00392157 0.576471 0.6 
0.00392157 0.576471 0.6 0.00392157 0.576471 0.6 
0.00392157 0.576471 0.6 0.00392157 0.576471 0.6 
0.00392157 0.576471 0.6 0.00392157 0.576471 0.6 
0.00392157 0.576471 0.6 0.00392157 0.576471 0.6 
0.00392157 0.576471 0.6 0.00392157 0.576471 0.6 
0.00392157 0.576471 0.6 0.00392157 0.576471 0.6 
0.00392157 0.576471 0.6 0.00392157 0.576471 0.6 
0.00392157 0.576471 0.6 0.00392157 0.576471 0.6 
0.00392157 0.576471 0.6 0.00392157 0.576471 0.6 
0.00392157 0.576471 0.6 0.00392157 0.576471 0.6 
0.00392157 0.576471 0.6 0.00392157 0.576471 0.6 
0.00392157 0.576471 0.6 0.00392157 0.576471 0.6 
0.00392157 0.576471 0.6 0.00392157 0.576471 0.6 
0.00392157 0.576471 0.6 0.00392157 0.576471 0.6 
0.00392157 0.576471 0.6 0.00392157 0.576471 0.6 
0.00392157 0.576471 0.6 0.00392157 0.576471 0.6 
0.00392157 0.576471 0.6 0.00392157 0.576471 0.6 
0.00392157 0.576471 0.6 0.00392157 0.576471 0.6 
0.00392157 0.576471 0.6 0.00392157 0.576471 0.6 
0.00392157 0.576471 0.6 0.00392157 0.576471 0.6 
0.00392157 0.576471 0.6 0.00392157 0.576471 0.6 
0.00392157 0.576471 0.6 0.00392157 0.576471 0.6 
0.00392157 0.576471 0.6 0.00392157 0.576471 0.6 
0.00392157 0.576471 0.6 0.00392157 0.576471 0.6 
0.00392157 0.576471 0.6 0.00392157 0.576471 0.6 
0.00392157 0.576471 0.6 0.00392157 0.576471 0.6 
0.00392157 0.576471 0.6 0.00392157 0.576471 0.6 
0.00392157 0.576471 0.6 0.00392157 0.576471 0.6 
0.00392157 0.576471 0.6 0.00392157 0.576471 0.6 
0.00392157 0.576471 0.6 0.00392157 0.576471 0.6 
0.00392157 0.576471 0.6 0.00392157 0.576471 0.6 
0.00392157 0.576471 0.6 0.00392157 0.576471 0.6 
0.00392157 0.576471 0.6 0.00392157 0.576471 0.6 
0.00392157 0.576471 0.6 0.00392157 0.576471 0.6 
0.00392157 0.576471 0.6 0.00392157 0.576471 0.6 
0.00392157 0.576471 0.6 0.00392157 0.576471 0.6 
0.00392157 0.576471 0.6 0.00392157 0.576471 0.6 
0.00392157 0.576471 0.6 0.00392157 0.576471 0.6 
0.00392157 0.576471 0.6 0.00392157 0.576471 0.6 
0.00392157 0.576471 0.6 0.00392157 0.576471 0.6 
0.00392157 0.576471 0.6 0.00392157 0.576471 0.6 
0.00392157 0.576471 0.6 0.00392157 0.576471 0.6 
0.00392157 0.576471 0.6 0.00392157 0.576471 0.6 
0.00392157 0.576471 0.6 0.00392157 0.576471 0.6 
0.00392157 0.576471 0.6 0.00392157 0.576471 0.6 
0.00392157 0.576471 0.6 0.00392157 0.576471 0.6 
0.00392157 0.576471 0.6 0.00392157 0.576471 0.6 
0.00392157 0.576471 0.6 0.00392157 0.576471 0.6 
0.00392157 0.576471 0.6 0.00392157 0.576471 0.6 
0.00392157 0.576471 0.6 0.00392157 0.576471 0.6 
0.00392157 0.576471 0.6 0.00392157 0.576471 0.6 
0.00392157 0.576471 0.6 0.00392157 0.576471 0.6 
0.00392157 0.576471 0.6 0.00392157 0.576471 0.6 
0.00392157 0.576471 0.6 0.00392157 0.576471 0.6 
0.00392157 0.576471 0.6 0.00392157 0.576471 0.6 
0.00392157 0.576471 0.6 0.00392157 0.576471 0.6 
0.00392157 0.576471 0.6 0.00392157 0.576471 0.6 
0.00392157 0.576471 0.6 0.00392157 0.576471 0.6 
0.00392157 0.576471 0.6 0.00392157 0.576471 0.6 
0.00392157 0.576471 0.6 0.00392157 0.576471 0.6 
0.00392157 0.576471 0.6 0.00392157 0.576471 0.6 
0.00392157 0.576471 0.6 0.00392157 0.576471 0.6 
0.00392157 0.576471 0.6 0.00392157 0.576471 0.6 
0.00392157 0.576471 0.6 0.00392157 0.576471 0.6 
0.00392157 0.576471 0.6 0.00392157 0.576471 0.6 
0.00392157 0.576471 0.6 0.00392157 0.576471 0.6 
0.00392157 0.576471 0.6 0.00392157 0.576471 0.6 
0.00392157 0.576471 0.6 0.00392157 0.576471 0.6 
0.00392157 0.576471 0.6 0.00392157 0.576471 0.6 
0.00392157 0.576471 0.6 0.00392157 0.576471 0.6 
0.00392157 0.576471 0.6 0.00392157 0.576471 0.6 
0.00392157 0.576471 0.6 0.00392157 0.576471 0.6 
0.00392157 0.576471 0.6 0.00392157 0.576471 0.6 
0.00392157 0.576471 0.6 0.00392157 0.576471 0.6 
0.00392157 0.576471 0.6 0.00392157 0.576471 0.6 
0.00392157 0.576471 0.6 0.00392157 0.576471 0.6 
0.00392157 0.576471 0.6 0.00392157 0.576471 0.6 
0.00392157 0.576471 0.6 0.00392157 0.576471 0.6 
0.00392157 0.576471 0.6 0.00392157 0.576471 0.6 
0.00392157 0.576471 0.6 0.00392157 0.576471 0.6 
0.00392157 0.576471 0.6 0.00392157 0.576471 0.6 
0.00392157 0.576471 0.6 0.00392157 0.576471 0.6 
0.00392157 0.576471 0.6 0.00392157 0.576471 0.6 
0.00392157 0.576471 0.6 0.00392157 0.576471 0.6 
0.00392157 0.576471 0.6 0.00392157 0.576471 0.6 
0.00392157 0.576471 0.6 0.00392157 0.576471 0.6 
0.00392157 0.576471 0.6 0.00392157 0.576471 0.6 
0.00392157 0.576471 0.6 0.00392157 0.576471 0.6 
0.00392157 0.576471 0.6 0.00392157 0.576471 0.6 
0.00392157 0.576471 0.6 0.00392157 0.576471 0.6 
0.00392157 0.576471 0.6 0.00392157 0.576471 0.6 
0.00392157 0.576471 0.6 0.00392157 0.576471 0.6 
0.00392157 0.576471 0.6 0.00392157 0.576471 0.6 
0.00392157 0.576471 0.6 0.00392157 0.576471 0.6 
0.00392157 0.576471 0.6 0.00392157 0.576471 0.6 
0.00392157 0.576471 0.6 0.00392157 0.576471 0.6 
0.00392157 0.576471 0.6 0.00392157 0.576471 0.6 
0.00392157 0.576471 0.6 0.00392157 0.576471 0.6 
0.00392157 0.576471 0.6 0.00392157 0.576471 0.6 
0.00392157 0.576471 0.6 0.00392157 0.576471 0.6 
0.00392157 0.576471 0.6 0.00392157 0.576471 0.6 
0.00392157 0.576471 0.6 0.00392157 0.576471 0.6 
0.00392157 0.576471 0.6 0.00392157 0.576471 0.6 
0.00392157 0.576471 0.6 0.00392157 0.576471 0.6 
0.00392157 0.576471 0.6 0.00392157 0.576471 0.6 
0.00392157 0.576471 0.6 0.00392157 0.576471 0.6 
0.00392157 0.576471 0.6 0.00392157 0.576471 0.6 
0.00392157 0.576471 0.6 0.00392157 0.576471 0.6 
0.00392157 0.576471 0.6 0.00392157 0.576471 0.6 
0.00392157 0.576471 0.6 0.00392157 0.576471 0.6 
0.00392157 0.576471 0.6 0.00392157 0.576471 0.6 
0.00392157 0.576471 0.6 0.00392157 0.576471 0.6 
0.00392157 0.576471 0.6 0.00392157 0.576471 0.6 
0.00392157 0.576471 0.6 0.00392157 0.576471 0.6 
0.00392157 0.576471 0.6 0.00392157 0.576471 0.6 
0.00392157 0.576471 0.6 0.00392157 0.576471 0.6 
0.00392157 0.576471 0.6 0.00392157 0.576471 0.6 
0.00392157 0.576471 0.6 0.00392157 0.576471 0.6 
0.00392157 0.576471 0.6 0.00392157 0.576471 0.6 
0.00392157 0.576471 0.6 0.00392157 0.576471 0.6 
0.00392157 0.576471 0.6 0.00392157 0.576471 0.6 
0.00392157 0.576471 0.6 0.00392157 0.576471 0.6 
0.00392157 0.576471 0.6 0.00392157 0.576471 0.6 
0.00392157 0.576471 0.6 0.00392157 0.576471 0.6 
0.00392157 0.576471 0.6 0.00392157 0.576471 0.6 
0.00392157 0.576471 0.6 0.00392157 0.576471 0.6 
0.00392157 0.576471 0.6 0.00392157 0.576471 0.6 
0.00392157 0.576471 0.6 0.00392157 0.576471 0.6 
0.00392157 0.576471 0.6 0.00392157 0.576471 0.6 
0.00392157 0.576471 0.6 0.00392157 0.576471 0.6 
0.00392157 0.576471 0.6 0.00392157 0.576471 0.6 
0.00392157 0.576471 0.6 0.00392157 0.576471 0.6 
0.00392157 0.576471 0.6 0.00392157 0.576471 0.6 
0.00392157 0.576471 0.6 0.00392157 0.576471 0.6 
0.00392157 0.576471 0.6 0.00392157 0.576471 0.6 
0.00392157 0.576471 0.6 0.00392157 0.576471 0.6 
0.00392157 0.576471 0.6 0.00392157 0.576471 0.6 
0.00392157 0.576471 0.6 0.00392157 0.576471 0.6 
0.00392157 0.576471 0.6 0.00392157 0.576471 0.6 
0.00392157 0.576471 0.6 0.00392157 0.576471 0.6 
0.00392157 0.576471 0.6 0.00392157 0.576471 0.6 
0.00392157 0.576471 0.6 0.00392157 0.576471 0.6 
0.00392157 0.576471 0.6 0.00392157 0.576471 0.6 
0.00392157 0.576471 0.6 0.00392157 0.576471 0.6 
0.00392157 0.576471 0.6 0.00392157 0.576471 0.6 
0.00392157 0.576471 0.6 0.00392157 0.576471 0.6 
0.00392157 0.576471 0.6 0.00392157 0.576471 0.6 
0.00392157 0.576471 0.6 0.00392157 0.576471 0.6 
0.00392157 0.576471 0.6 0.00392157 0.576471 0.6 
0.00392157 0.576471 0.6 0.00392157 0.576471 0.6 
0.00392157 0.576471 0.6 0.00392157 0.576471 0.6 
0.00392157 0.576471 0.6 0.00392157 0.576471 0.6 
0.00392157 0.576471 0.6 0.00392157 0.576471 0.6 
0.00392157 0.576471 0.6 0.00392157 0.576471 0.6 
0.00392157 0.576471 0.6 0.00392157 0.576471 0.6 
0.00392157 0.576471 0.6 0.00392157 0.576471 0.6 
0.00392157 0.576471 0.6 0.00392157 0.576471 0.6 
0.00392157 0.576471 0.6 0.00392157 0.576471 0.6 
0.00392157 0.576471 0.6 0.00392157 0.576471 0.6 
0.00392157 0.576471 0.6 0.00392157 0.576471 0.6 
0.00392157 0.576471 0.6 0.00392157 0.576471 0.6 
0.00392157 0.576471 0.6 0.00392157 0.576471 0.6 
0.00392157 0.576471 0.6 0.00392157 0.576471 0.6 
0.00392157 0.576471 0.6 0.00392157 0.576471 0.6 
0.00392157 0.576471 0.6 0.00392157 0.576471 0.6 
0.00392157 0.576471 0.6 0.00392157 0.576471 0.6 
0.00392157 0.576471 0.6 0.00392157 0.576471 0.6 
0.00392157 0.576471 0.6 0.00392157 0.576471 0.6 
0.00392157 0.576471 0.6 0.00392157 0.576471 0.6 
0.00392157 0.576471 0.6 0.00392157 0.576471 0.6 
0.00392157 0.576471 0.6 0.00392157 0.576471 0.6 
0.00392157 0.576471 0.6 0.00392157 0.576471 0.6 
0.00392157 0.576471 0.6 0.00392157 0.576471 0.6 
0.00392157 0.576471 0.6 0.00392157 0.576471 0.6 
0.00392157 0.576471 0.6 0.00392157 0.576471 0.6 
0.00392157 0.576471 0.6 0.00392157 0.576471 0.6 
0.00392157 0.576471 0.6 0.00392157 0.576471 0.6 
0.00392157 0.576471 0.6 0.00392157 0.576471 0.6 
0.00392157 0.576471 0.6 0.00392157 0.576471 0.6 
0.00392157 0.576471 0.6 0.00392157 0.576471 0.6 
0.00392157 0.576471 0.6 0.00392157 0.576471 0.6 
0.00392157 0.576471 0.6 0.00392157 0.576471 0.6 
0.00392157 0.576471 0.6 0.00392157 0.576471 0.6 
0.00392157 0.576471 0.6 0.00392157 0.576471 0.6 
0.00392157 0.576471 0.6 0.00392157 0.576471 0.6 
0.00392157 0.576471 0.6 0.00392157 0.576471 0.6 
0.00392157 0.576471 0.6 0.00392157 0.576471 0.6 
0.00392157 0.576471 0.6 0.00392157 0.576471 0.6 
0.00392157 0.576471 0.6 0.00392157 0.576471 0.6 
0.00392157 0.576471 0.6 0.00392157 0.576471 0.6 
0.00392157 0.576471 0.6 0.00392157 0.576471 0.6 
0.00392157 0.576471 0.6 0.00392157 0.576471 0.6 
0.00392157 0.576471 0.6 0.00392157 0.576471 0.6 
0.00392157 0.576471 0.6 0.00392157 0.576471 0.6 
0.00392157 0.576471 0.6 0.00392157 0.576471 0.6 
0.00392157 0.576471 0.6 0.00392157 0.576471 0.6 
0.00392157 0.576471 0.6 0.00392157 0.576471 0.6 
0.00392157 0.576471 0.6 0.00392157 0.576471 0.6 
0.00392157 0.576471 0.6 0.00392157 0.576471 0.6 
0.00392157 0.576471 0.6 0.00392157 0.576471 0.6 
0.00392157 0.576471 0.6 0.00392157 0.576471 0.6 
0.00392157 0.576471 0.6 0.00392157 0.576471 0.6 
0.00392157 0.576471 0.6 0.00392157 0.576471 0.6 
0.00392157 0.576471 0.6 0.00392157 0.576471 0.6 
0.00392157 0.576471 0.6 0.00392157 0.576471 0.6 
0.00392157 0.576471 0.6 0.00392157 0.576471 0.6 
0.00392157 0.576471 0.6 0.00392157 0.576471 0.6 
0.00392157 0.576471 0.6 0.00392157 0.576471 0.6 
0.00392157 0.576471 0.6 0.00392157 0.576471 0.6 
0.00392157 0.576471 0.6 0.00392157 0.576471 0.6 
0.00392157 0.576471 0.6 0.00392157 0.576471 0.6 
0.00392157 0.576471 0.6 0.00392157 0.576471 0.6 
0.00392157 0.576471 0.6 0.00392157 0.576471 0.6 
0.00392157 0.576471 0.6 0.00392157 0.576471 0.6 
0.00392157 0.576471 0.6 0.00392157 0.576471 0.6 
0.00392157 0.576471 0.6 0.00392157 0.576471 0.6 
0.00392157 0.576471 0.6 0.00392157 0.576471 0.6 
0.00392157 0.576471 0.6 0.00392157 0.576471 0.6 
0.00392157 0.576471 0.6 0.00392157 0.576471 0.6 
0.00392157 0.576471 0.6 0.00392157 0.576471 0.6 
0.00392157 0.576471 0.6 0.00392157 0.576471 0.6 
0.00392157 0.576471 0.6 0.00392157 0.576471 0.6 
0.00392157 0.576471 0.6 0.00392157 0.576471 0.6 
0.00392157 0.576471 0.6 0.00392157 0.576471 0.6 
0.00392157 0.576471 0.6 0.00392157 0.576471 0.6 
0.00392157 0.576471 0.6 0.00392157 0.576471 0.6 
0.00392157 0.576471 0.6 0.00392157 0.576471 0.6 
0.00392157 0.576471 0.6 0.00392157 0.576471 0.6 
0.00392157 0.576471 0.6 0.00392157 0.576471 0.6 
0.00392157 0.576471 0.6 0.00392157 0.576471 0.6 
0.00392157 0.576471 0.6 0.00392157 0.576471 0.6 
0.00392157 0.576471 0.6 0.00392157 0.576471 0.6 
0.00392157 0.576471 0.6 0.00392157 0.576471 0.6 
0.00392157 0.576471 0.6 0.00392157 0.576471 0.6 
0.00392157 0.576471 0.6 0.00392157 0.576471 0.6 
0.00392157 0.576471 0.6 0.00392157 0.576471 0.6 
0.00392157 0.576471 0.6 0.00392157 0.576471 0.6 
0.00392157 0.576471 0.6 0.00392157 0.576471 0.6 
0.00392157 0.576471 0.6 0.00392157 0.576471 0.6 
0.00392157 0.576471 0.6 0.00392157 0.576471 0.6 
0.00392157 0.576471 0.6 0.00392157 0.576471 0.6 
0.00392157 0.576471 0.6 0.00392157 0.576471 0.6 
0.00392157 0.576471 0.6 0.00392157 0.576471 0.6 
0.00392157 0.576471 0.6 0.00392157 0.576471 0.6 
0.00392157 0.576471 0.6 0.00392157 0.576471 0.6 
0.00392157 0.576471 0.6 0.00392157 0.576471 0.6 
0.00392157 0.576471 0.6 0.00392157 0.576471 0.6 
0.00392157 0.576471 0.6 0.00392157 0.576471 0.6 
0.00392157 0.576471 0.6 0.00392157 0.576471 0.6 
0.00392157 0.576471 0.6 0.00392157 0.576471 0.6 
0.00392157 0.576471 0.6 0.00392157 0.576471 0.6 
0.00392157 0.576471 0.6 0.00392157 0.576471 0.6 
0.00392157 0.576471 0.6 0.00392157 0.576471 0.6 
0.00392157 0.576471 0.6 0.00392157 0.576471 0.6 
0.00392157 0.576471 0.6 0.00392157 0.576471 0.6 
0.00392157 0.576471 0.6 0.00392157 0.576471 0.6 
0.00392157 0.576471 0.6 0.00392157 0.576471 0.6 
0.00392157 0.576471 0.6 0.00392157 0.576471 0.6 
0.00392157 0.576471 0.6 0.00392157 0.576471 0.6 
0.00392157 0.576471 0.6 0.00392157 0.576471 0.6 
0.00392157 0.576471 0.6 0.00392157 0.576471 0.6 
0.00392157 0.576471 0.6 0.00392157 0.576471 0.6 
0.00392157 0.576471 0.6 0.00392157 0.576471 0.6 
0.00392157 0.576471 0.6 0.00392157 0.576471 0.6 
0.00392157 0.576471 0.6 0.00392157 0.576471 0.6 
0.00392157 0.576471 0.6 0.00392157 0.576471 0.6 
0.00392157 0.576471 0.6 0.00392157 0.576471 0.6 
0.00392157 0.576471 0.6 0.00392157 0.576471 0.6 
0.00392157 0.576471 0.6 0.00392157 0.576471 0.6 
0.00392157 0.576471 0.6 0.00392157 0.576471 0.6 
0.00392157 0.576471 0.6 0.00392157 0.576471 0.6 
0.00392157 0.576471 0.6 0.00392157 0.576471 0.6 