# vtk DataFile Version 4.2
vtk output
ASCII
DATASET POLYDATA
POINTS 1146 float
290.69 118.457 45.1239 290.702 118.352 45.1143 290.535 118.445 45.1552 
290.802 118.376 45.1926 290.648 118.564 45.2237 291.094 117.601 45.2975 
290.706 118.051 45.172 291.088 117.888 45.3002 289.258 118.602 45.3499 
291.085 118.157 45.3807 289.482 118.848 45.4861 290.837 115.724 45.6334 
292.096 115.332 46.4081 290.168 116.247 45.4395 291.221 116.618 45.5579 
292.025 116.076 46.2311 291.651 117.583 45.8283 286.867 118.489 45.8527 
291.16 118.386 45.5974 286.112 119.12 46.2178 285.723 118.948 46.2552 
289.145 119.204 45.769 288.807 119.342 45.9656 289.481 119.192 45.7782 
291.293 118.413 45.8911 286.177 119.514 46.4749 291.101 118.674 46.0153 
291.948 114.005 46.567 291.307 114.582 46.1585 292.198 116.633 46.5744 
291.718 117.717 46.0744 285.604 118.357 46.2059 291.565 118.098 46.1553 
288.458 119.334 46.0023 290.008 119.231 46.0424 285.347 119.713 46.8133 
289.303 119.421 46.4076 293.028 111.165 47.7461 291.68 112.404 46.9867 
293.228 112.184 47.771 290.127 112.937 46.7703 292.651 115.276 47.188 
292.577 115.777 47.2614 281.533 118.822 47.7575 281.509 119.361 47.8409 
281.193 119.018 47.9492 281.047 119.317 48.0577 280.846 119.425 48.2623 
280.833 119.699 48.4318 281.373 119.827 48.0886 282.551 119.841 47.6846 
285.646 120.189 47.2868 286.244 120.177 47.1931 286.058 120.271 47.3593 
286.739 120.079 47.1312 289.792 119.277 46.7632 281.111 119.96 48.3821 
294.7 108.608 49.0802 294.65 108.457 49.0846 294.908 108.47 49.2729 
288.219 112.103 47.6707 293.167 113.65 47.8293 282.996 115.548 47.9871 
281.484 116.623 48.4499 281.771 117.749 47.8264 291.945 117.526 47.0273 
292.122 117.117 47.3004 280.599 118.491 48.789 280.874 119 48.2387 
291.19 118.487 46.9952 280.722 119.696 48.7193 284.862 120.369 47.6866 
285.323 120.405 47.7352 285.996 120.315 47.5838 290.213 118.995 47.2445 
280.897 119.944 48.6533 281.232 120.267 48.813 283.173 120.627 48.4584 
285.017 120.457 48.0843 296.734 105.418 50.4218 296.582 105.662 50.4107 
295.942 106.766 50.0036 294.01 107.829 49.1287 295.804 107.33 49.7754 
294.203 110.608 48.8968 294.097 111.616 49.2244 293.36 113.721 48.7971 
281.108 115.524 49.7699 280.741 116.719 49.2597 280.55 116.828 49.3937 
292.084 116.707 48.1702 291.818 116.84 48.5319 280.549 116.95 49.354 
280.586 117.304 49.3301 291.176 117.567 48.5213 291.482 117.143 48.6519 
289.631 118.486 48.762 280.636 119.433 49.0183 288.595 119.27 48.3809 
281.099 120.217 49.4588 281.291 120.47 49.163 282.822 120.819 48.9157 
282.493 120.848 49.144 283.232 120.785 48.9202 285.61 120.289 48.4784 
281.442 120.59 49.3773 281.815 120.754 49.2835 282.921 120.823 49.2722 
295.998 105.729 50.1766 297.166 104.998 50.7486 294.045 106.478 49.6731 
291.856 107.22 49.5446 295.962 107.371 50.146 293.809 112.45 49.6105 
281.472 114.116 50.7203 293.55 112.961 49.653 281.134 114.947 50.6178 
292.267 114.724 49.9587 292.739 114.268 49.7139 280.737 116.213 50.0845 
291.656 116.565 48.9801 290.089 117.706 49.2809 280.595 118.363 49.9212 
281.19 120.259 49.9371 282.156 120.822 49.1534 283.441 120.761 49.1574 
283.852 120.616 49.2734 281.713 120.683 49.5965 300.687 100.631 52.0468 
301.602 100.752 52.5255 297.862 103.431 51.1579 299.292 103.063 51.8903 
296.508 106.771 50.971 295.868 107.895 50.5421 294.761 109.976 50.3804 
294.243 110.955 50.5051 293.828 111.864 50.3894 282.168 112.571 50.761 
280.973 115.408 50.7572 291.745 114.903 50.3133 280.808 116.203 50.5664 
284.322 119.433 50.7313 281.198 119.916 50.4735 283.391 120.258 50.2435 
283.102 120.032 50.5994 285.042 119.885 49.8223 282.243 120.574 50.0707 
282.462 120.41 50.3222 283.964 120.368 49.7429 281.409 120.399 50.0611 
305.247 97.0401 53.1002 302.839 98.5917 52.6708 305.565 97.298 53.3209 
302.607 99.5737 52.7898 302.158 100.357 52.8345 301.442 101.168 52.5938 
300.575 102.184 52.5631 299.122 103.414 51.9817 298.57 104.241 52.3324 
297.493 105.462 51.7974 297.048 106.045 52.0759 283.647 109.042 52.2018 
282.62 110.347 52.3922 282.901 109.983 52.2243 282.216 111.46 51.9254 
293.355 110.849 51.8959 293.914 110.451 51.6185 281.881 112.435 51.9422 
281.608 113.275 51.7321 281.307 115.327 51.7305 280.986 117.785 50.9722 
282.636 118.826 51.461 281.079 118.98 50.93 281.591 120.279 50.3363 
311.232 93.1835 54.2699 308.338 94.3012 53.7121 309.43 94.6986 54.0688 
310.159 94.5906 54.3794 306.787 95.8193 53.4835 306.741 96.3536 53.5472 
308.045 96.0324 54.0235 305.954 97.3987 53.6447 305.432 97.8687 53.6335 
291.441 102.103 52.7322 301.374 101.501 52.8722 300.301 102.513 52.6824 
300.25 102.6 53.0325 284.351 107.724 53.0265 284.398 107.417 53.6118 
283.739 108.711 52.6632 294.87 108.435 52.4194 282.353 110.934 52.4381 
282.381 111.026 52.91 291.145 111.367 52.9031 292.775 110.945 52.2656 
281.953 112.311 52.5135 282.234 111.803 52.9797 281.741 113.135 52.3276 
283.397 115.688 52.8561 281.871 116.68 52.0596 282.011 117.463 51.8592 
281.721 118.297 51.4946 281.722 118.934 51.2737 314.552 90.7454 55.133 
314.492 90.6723 55.156 314.668 90.6507 55.2245 312.429 91.6469 54.6561 
313.053 92.2072 54.8145 312.941 92.6083 54.846 312.157 93.2171 54.685 
302.692 94.8588 53.8591 312.288 93.4625 55.0029 309.721 95.2576 54.7009 
306.502 97.1737 53.837 305.187 98.1538 53.7645 299.677 103.077 53.2473 
297.649 104.908 53.4052 297.154 105.102 53.7481 298.188 104.587 53.0216 
284.076 107.907 53.8653 295.699 106.673 53.4098 284.079 108.053 54.2109 
282.879 109.848 53.4129 282.926 109.973 53.6461 282.347 112.416 53.2211 
281.848 113.687 52.6738 281.919 114.347 52.7393 282.336 114.752 52.9726 
284.511 114.744 53.2011 315.498 89.7642 55.7558 316.301 89.4083 56.2956 
314.717 90.2494 55.3873 313.981 90.8983 55.1048 315.494 90.613 55.8054 
316.004 90.261 56.1515 314.468 91.1979 55.3441 315.42 90.9976 55.9323 
313.153 92.7263 55.0796 313.281 92.8573 55.4311 310.811 94.6433 55.0125 
311.622 94.1744 55.351 307.086 97.0111 54.2216 308.022 96.4746 54.6087 
290.66 99.2461 55.0556 289.465 99.975 55.4428 303.833 99.263 54.4391 
289.37 100.986 54.5807 302.215 100.629 54.1444 287.526 102.761 54.6521 
300.306 101.735 54.9154 285.741 104.917 55.3532 285.005 106.374 54.9049 
283.912 108.497 54.332 286.883 109.36 55.1067 283.271 110.329 54.1914 
285.16 111.998 54.2131 282.707 113.834 53.3131 283.445 113.333 53.6315 
282.278 114.316 53.0377 315.435 88.0629 56.3866 313.885 89.0789 55.6885 
313.443 88.5476 55.9458 316.923 89.3041 56.9507 315.843 90.847 56.437 
314.359 92.1247 56.2531 311.793 94.0587 55.7781 291.625 97.0004 56.334 
290.872 97.9909 56.0292 288.992 99.7844 56.5212 288.015 101.367 56.2498 
287.564 102.019 56.1089 299.385 101.161 56.152 287.16 102.612 55.9498 
286.925 103.079 56.1357 285.843 104.805 55.6419 286.628 103.711 56.133 
285.465 106.402 55.5609 285.438 107.4 55.4896 287.046 107.314 55.928 
283.866 109.231 54.6124 284.287 109.419 54.8347 283.772 109.817 54.6427 
283.558 109.986 54.4969 317.559 86.6397 57.7045 314.616 86.6458 57.0975 
313.794 92.5876 56.6843 291.703 96.2077 57.4857 307.095 95.8816 57.1913 
289.888 98.2132 57.2521 289.136 99.3786 57.279 288.596 100.416 57.166 
287.805 101.878 56.8573 285.827 105.199 55.9243 285.927 105.273 56.0607 
287.463 105.251 56.7007 283.63 109.777 54.5779 318.136 85.7259 58.4088 
317.942 85.0097 58.6369 318.657 85.4844 58.8661 312.284 86.1009 57.6566 
318.82 86.2342 59.0424 297.872 90.8847 58.1666 315.881 90.8512 57.2563 
292.826 94.6998 58.6238 291.781 95.955 57.9522 292.175 95.4833 58.2876 
289.95 98.0308 57.6395 290.154 97.7932 57.8423 289.946 98.0962 57.8943 
288.839 100.423 57.868 288.147 101.774 57.3187 287.845 102.348 57.1651 
316.813 84.4527 58.6795 318.737 84.0245 59.5964 303.151 87.3401 58.8443 
318.643 86.8409 58.9506 317.326 89.0055 58.3642 295.775 91.5411 60.0758 
315.706 90.455 58.3879 294.844 92.5537 59.7325 291.918 95.8847 58.6967 
289.836 98.4425 58.0853 290.145 98.3243 58.5093 290.095 98.6958 58.7008 
288.798 100.734 57.9391 291.257 101.324 58.6303 288.913 100.851 58.082 
290.258 101.518 58.5546 288.64 101.828 57.7938 286.582 104.751 56.5949 
319.65 82.8575 60.7404 319.513 84.6283 60.2165 319.378 85.2194 60.047 
319.272 85.6036 60.1679 318.721 86.8809 59.3859 318.954 86.3293 59.9229 
299.309 88.145 60.2844 318.426 87.3632 59.3998 317.706 88.3167 59.1486 
318.433 87.2407 59.7872 293.622 93.9656 59.6222 292.753 95.1909 59.5041 
292.02 96.1834 59.1826 290.802 98.471 59.1694 289.749 99.6942 58.6565 
289.985 100.758 58.7335 291.129 100.128 59.129 289.604 100.646 58.5637 
320.564 81.5939 61.8508 318.366 81.5719 61.0398 319.529 82.131 61.0223 
320.788 81.678 62.0919 320.686 82.2419 61.9354 305.472 84.1707 60.8588 
304.012 84.5782 61.2075 301.605 86.2871 60.8066 318.419 86.4488 60.9642 
317.294 87.1843 61.0533 318.273 87.2179 60.0981 296.492 90.7965 61.0927 
295.279 92.2814 60.7823 292.56 95.7626 59.5917 296.747 95.937 60.9769 
292.255 97.536 59.7976 291.53 98.217 59.5251 293.044 97.8494 59.9792 
292.027 98.5834 59.6765 305.208 83.0937 62.348 303.265 84.1656 62.6717 
301.777 85.2674 62.5666 299.701 87.2085 62.0157 299.607 87.3085 62.3074 
297.542 89.4899 61.501 295.521 92.2267 61.216 296.36 91.3404 61.607 
294.33 93.7861 60.653 297.794 94.345 61.8296 293.676 96.5798 60.4298 
292.149 98.0575 59.8725 320.742 79.5422 63.221 321.762 79.5842 63.8145 
320.381 80.1179 62.6774 321.551 79.9855 63.507 321.477 80.5971 63.3721 
301.333 85.7199 63.0418 300.415 86.5869 62.6468 299.758 87.2691 62.6587 
298.04 89.367 62.4964 296.843 91.3757 62.1443 295.595 92.6505 61.538 
300.137 92.8053 62.4917 297.046 93.3567 62.2046 297.718 93.1582 62.3903 
295.418 94.5297 61.4016 295.997 93.7981 61.7639 296.269 94.3289 61.7173 
312.344 79.0805 63.7084 309.339 79.8199 64.2377 310.851 79.3723 63.9494 
322.209 79.6809 64.4963 306.105 81.6539 64.7009 306.536 81.6311 63.7407 
321.483 81.0575 63.6063 321.132 81.803 63.4262 303.473 83.7067 63.9407 
297.476 91.2644 62.6625 298.461 91.8452 62.9967 298.913 91.4431 63.2013 
300.085 91.6947 63.1599 297.871 91.9245 62.807 295.919 93.1713 61.7885 
[...]
POINT_DATA 1146
COLOR_SCALARS scalars 3
0.00392157 0.576471 0.6 0.00392157 0.576471 0.6 0.00392157 0.576471 0.6 
0.00392157 0.576471 0.6 0.00392157 0.576471 0.6 
0.00392157 0.576471 0.6 0.00392157 0.576471 0.6 
0.00392157 0.576471 0.6 0.00392157 0.576471 0.6 
0.00392157 0.576471 0.6 0.00392157 0.576471 0.6 
0.00392157 0.576471 0.6 0.00392157 0.576471 0.6 
0.00392157 0.576471 0.6 0.00392157 0.576471 0.6 
0.00392157 0.576471 0.6 0.00392157 0.576471 0.6 
0.00392157 0.576471 0.6 0.00392157 0.576471 0.6 
0.00392157 0.576471 0.6 0.00392157 0.576471 0.6 
0.00392157 0.576471 0.6 0.00392157 0.576471 0.6 
0.00392157 0.576471 0.6 0.00392157 0.576471 0.6 
0.00392157 0.576471 0.6 0.00392157 0.576471 0.6 
0.00392157 0.576471 0.6 0.00392157 0.576471 0.6 
0.00392157 0.576471 0.6 0.00392157 0.576471 0.6 
0.00392157 0.576471 0.6 0.00392157 0.576471 0.6 
0.00392157 0.576471 0.6 0.00392157 0.576471 0.6 
0.00392157 0.576471 0.6 0.00392157 0.576471 0.6 
0.00392157 0.576471 0.6 0.00392157 0.576471 0.6 
0.00392157 0.576471 0.6 0.00392157 0.576471 0.6 
0.00392157 0.576471 0.6 0.00392157 0.576471 0.6 
0.00392157 0.576471 0.6 0.00392157 0.576471 0.6 
0.00392157 0.576471 0.6 0.00392157 0.576471 0.6 
0.00392157 0.576471 0.6 0.00392157 0.576471 0.6 
0.00392157 0.576471 0.6 0.00392157 0.576471 0.6 
0.00392157 0.576471 0.6 0.00392157 0.576471 0.6 
0.00392157 0.576471 0.6 0.00392157 0.576471 0.6 
0.00392157 0.576471 0.6 0.00392157 0.576471 0.6 
0.00392157 0.576471 0.6 0.00392157 0.576471 0.6 
0.00392157 0.576471 0.6 0.00392157 0.576471 0.6 
0.00392157 0.576471 0.6 0.00392157 0.576471 0.6 
0.00392157 0.576471 0.6 0.00392157 0.576471 0.6 
0.00392157 0.576471 0.6 0.00392157 0.576471 0.6 
0.00392157 0.576471 0.6 0.00392157 0.576471 0.6 
0.00392157 0.576471 0.6 0.00392157 0.576471 0.6 
0.00392157 0.576471 0.6 0.00392157 0.576471 0.6 
0.00392157 0.576471 0.6 0.00392157 0.576471 0.6 
0.00392157 0.576471 0.6 0.00392157 0.576471 0.6 
0.00392157 0.576471 0.6 0.00392157 0.576471 0.6 
0.00392157 0.576471 0.6 0.00392157 0.576471 0.6 
0.00392157 0.576471 0.6 0.00392157 0.576471 0.6 
0.00392157 0.576471 0.6 0.00392157 0.576471 0.6 
0.00392157 0.576471 0.6 0.00392157 0.576471 0.6 
0.00392157 0.576471 0.6 0.00392157 0.576471 0.6 
0.00392157 0.576471 0.6 0.00392157 0.576471 0.6 
0.00392157 0.576471 0.6 0.00392157 0.576471 0.6 
0.00392157 0.576471 0.6 0.00392157 0.576471 0.6 
0.00392157 0.576471 0.6 0.00392157 0.576471 0.6 
0.00392157 0.576471 0.6 0.00392157 0.576471 0.6 
0.00392157 0.576471 0.6 0.00392157 0.576471 0.6 
0.00392157 0.576471 0.6 0.00392157 0.576471 0.6 
0.00392157 0.576471 0.6 0.00392157 0.576471 0.6 
0.00392157 0.576471 0.6 0.00392157 0.576471 0.6 
0.00392157 0.576471 0.6 0.00392157 0.576471 0.6 
0.00392157 0.576471 0.6 0.00392157 0.576471 0.6 
0.00392157 0.576471 0.6 0.00392157 0.576471 0.6 
0.00392157 0.576471 0.6 0.00392157 0.576471 0.6 
0.00392157 0.576471 0.6 0.00392157 0.576471 0.6 
0.00392157 0.576471 0.6 0.00392157 0.576471 0.6 
0.00392157 0.576471 0.6 0.00392157 0.576471 0.6 
0.00392157 0.576471 0.6 0.00392157 0.576471 0.6 
0.00392157 0.576471 0.6 0.00392157 0.576471 0.6 
0.00392157 0.576471 0.6 0.00392157 0.576471 0.6 
0.00392157 0.576471 0.6 0.00392157 0.576471 0.6 
0.00392157 0.576471 0.6 0.00392157 0.576471 0.6 
0.00392157 0.576471 0.6 0.00392157 0.576471 0.6 
0.00392157 0.576471 0.6 0.00392157 0.576471 0.6 
0.00392157 0.576471 0.6 0.00392157 0.576471 0.6 
0.00392157 0.576471 0.6 0.00392157 0.576471 0.6 
0.00392157 0.576471 0.6 0.00392157 0.576471 0.6 
0.00392157 0.576471 0.6 0.00392157 0.576471 0.6 
0.00392157 0.576471 0.6 0.00392157 0.576471 0.6 
0.00392157 0.576471 0.6 0.00392157 0.576471 0.6 
0.00392157 0.576471 0.6 0.00392157 0.576471 0.6 
0.00392157 0.576471 0.6 0.00392157 0.576471 0.6 
0.00392157 0.576471 0.6 0.00392157 0.576471 0.6 
0.00392157 0.576471 0.6 0.00392157 0.576471 0.6 
0.00392157 0.576471 0.6 0.00392157 0.576471 0.6 
0.00392157 0.576471 0.6 0.00392157 0.576471 0.6 
0.00392157 0.576471 0.6 0.00392157 0.576471 0.6 
0.00392157 0.576471 0.6 0.00392157 0.576471 0.6 
0.00392157 0.576471 0.6 0.00392157 0.576471 0.6 
0.00392157 0.576471 0.6 0.00392157 0.576471 0.6 
0.00392157 0.576471 0.6 0.00392157 0.576471 0.6 
0.00392157 0.576471 0.6 0.00392157 0.576471 0.6 
0.00392157 0.576471 0.6 0.00392157 0.576471 0.6 
0.00392157 0.576471 0.6 0.00392157 0.576471 0.6 
0.00392157 0.576471 0.6 0.00392157 0.576471 0.6 
0.00392157 0.576471 0.6 0.00392157 0.576471 0.6 
0.00392157 0.576471 0.6 0.00392157 0.576471 0.6 
0.00392157 0.576471 0.6 0.00392157 0.576471 0.6 
0.00392157 0.576471 0.6 0.00392157 0.576471 0.6 
0.00392157 0.576471 0.6 0.00392157 0.576471 0.6 
0.00392157 0.576471 0.6 0.00392157 0.576471 0.6 
0.00392157 0.576471 0.6 0.00392157 0.576471 0.6 
0.00392157 0.576471 0.6 0.00392157 0.576471 0.6 
0.00392157 0.576471 0.6 0.00392157 0.576471 0.6 
0.00392157 0.576471 0.6 0.00392157 0.576471 0.6 
0.00392157 0.576471 0.6 0.00392157 0.576471 0.6 
0.00392157 0.576471 0.6 0.00392157 0.576471 0.6 
0.00392157 0.576471 0.6 0.00392157 0.576471 0.6 
0.00392157 0.576471 0.6 0.00392157 0.576471 0.6 
0.00392157 0.576471 0.6 0.00392157 0.576471 0.6 
0.00392157 0.576471 0.6 0.00392157 0.576471 0.6 
0.00392157 0.576471 0.6 0.00392157 0.576471 0.6 
0.00392157 0.576471 0.6 0.00392157 0.576471 0.6 
0.00392157 0.576471 0.6 0.00392157 0.576471 0.6 
0.00392157 0.576471 0.6 0.00392157 0.576471 0.6 
0.00392157 0.576471 0.6 0.00392157 0.576471 0.6 
0.00392157 0.576471 0.6 0.00392157 0.576471 0.6 
0.00392157 0.576471 0.6 0.00392157 0.576471 0.6 
0.00392157 0.576471 0.6 0.00392157 0.576471 0.6 
0.00392157 0.576471 0.6 0.00392157 0.576471 0.6 
0.00392157 0.576471 0.6 0.00392157 0.576471 0.6 
0.00392157 0.576471 0.6 0.00392157 0.576471 0.6 
0.00392157 0.576471 0.6 0.00392157 0.576471 0.6 
0.00392157 0.576471 0.6 0.00392157 0.576471 0.6 
0.00392157 0.576471 0.6 0.00392157 0.576471 0.6 
0.00392157 0.576471 0.6 0.00392157 0.576471 0.6 
0.00392157 0.576471 0.6 0.00392157 0.576471 0.6 
0.00392157 0.576471 0.6 0.00392157 0.576471 0.6 
0.00392157 0.576471 0.6 0.00392157 0.576471 0.6 
0.00392157 0.576471 0.6 0.00392157 0.576471 0.6 
0.00392157 0.576471 0.6 0.00392157 0.576471 0.6 
0.00392157 0.576471 0.6 0.00392157 0.576471 0.6 
0.00392157 0.576471 0.6 0.00392157 0.576471 0.6 
0.00392157 0.576471 0.6 0.00392157 0.576471 0.6 
0.00392157 0.576471 0.6 0.00392157 0.576471 0.6 
0.00392157 0.576471 0.6 0.00392157 0.576471 0.6 
0.00392157 0.576471 0.6 0.00392157 0.576471 0.6 
0.00392157 0.576471 0.6 0.00392157 0.576471 0.6 
0.00392157 0.576471 0.6 0.00392157 0.576471 0.6 
0.00392157 0.576471 0.6 0.00392157 0.576471 0.6 
0.00392157 0.576471 0.6 0.00392157 0.576471 0.6 
0.00392157 0.576471 0.6 0.00392157 0.576471 0.6 
0.00392157 0.576471 0.6 0.00392157 0.576471 0.6 
0.00392157 0.576471 0.6 0.00392157 0.576471 0.6 
0.00392157 0.576471 0.6 0.00392157 0.576471 0.6 
0.00392157 0.576471 0.6 0.00392157 0.576471 0.6 
0.00392157 0.576471 0.6 0.00392157 0.576471 0.6 
0.00392157 0.576471 0.6 0.00392157 0.576471 0.6 
0.00392157 0.576471 0.6 0.00392157 0.576471 0.6 
0.00392157 0.576471 0.6 0.00392157 0.576471 0.6 
0.00392157 0.576471 0.6 0.00392157 0.576471 0.6 
0.00392157 0.576471 0.6 0.00392157 0.576471 0.6 
0.00392157 0.576471 0.6 0.00392157 0.576471 0.6 
0.00392157 0.576471 0.6 0.00392157 0.576471 0.6 
0.00392157 0.576471 0.6 0.00392157 0.576471 0.6 
0.00392157 0.576471 0.6 0.00392157 0.576471 0.6 
0.00392157 0.576471 0.6 0.00392157 0.576471 0.6 
0.00392157 0.576471 0.6 0.00392157 0.576471 0.6 
0.00392157 0.576471 0.6 0.00392157 0.576471 0.6 
0.00392157 0.576471 0.6 0.00392157 0.576471 0.6 
0.00392157 0.576471 0.6 0.00392157 0.576471 0.6 
0.00392157 0.576471 0.6 0.00392157 0.576471 0.6 
0.00392157 0.576471 0.6 0.00392157 0.576471 0.6 
0.00392157 0.576471 0.6 0.00392157 0.576471 0.6 
0.00392157 0.576471 0.6 0.00392157 0.576471 0.6 
0.00392157 0.576471 0.6 0.00392157 0.576471 0.6 
0.00392157 0.576471 0.6 0.00392157 0.576471 0.6 
0.00392157 0.576471 0.6 0.00392157 0.576471 0.6 
0.00392157 0.576471 0.6 0.00392157 0.576471 0.6 
0.00392157 0.576471 0.6 0.00392157 0.576471 0.6 
0.00392157 0.576471 0.6 0.00392157 0.576471 0.6 
0.00392157 0.576471 0.6 0.00392157 0.576471 0.6 
0.00392157 0.576471 0.6 0.00392157 0.576471 0.6 
0.00392157 0.576471 0.6 0.00392157 0.576471 0.6 
0.00392157 0.576471 0.6 0.00392157 0.576471 0.6 
0.00392157 0.576471 0.6 0.00392157 0.576471 0.6 
0.00392157 0.576471 0.6 0.00392157 0.576471 0.6 
0.00392157 0.576471 0.6 0.00392157 0.576471 0.6 
0.00392157 0.576471 0.6 0.00392157 0.576471 0.6 
0.00392157 0.576471 0.6 0.00392157 0.576471 0.6 
0.00392157 0.576471 0.6 0.00392157 0.576471 0.6 
0.00392157 0.576471 0.6 0.00392157 0.576471 0.6 
0.00392157 0.576471 0.6 0.00392157 0.576471 0.6 
0.00392157 0.576471 0.6 0.00392157 0.576471 0.6 
0.00392157 0.576471 0.6 0.00392157 0.576471 0.6 
0.00392157 0.576471 0.6 0.00392157 0.576471 0.6 
0.00392157 0.576471 0.6 0.00392157 0.576471 0.6 
0.00392157 0.576471 0.6 0.00392157 0.576471 0.6 
0.00392157 0.576471 0.6 0.00392157 0.576471 0.6 
0.00392157 0.576471 0.6 0.00392157 0.576471 0.6 
0.00392157 0.576471 0.6 0.00392157 0.576471 0.6 
0.00392157 0.576471 0.6 0.00392157 0.576471 0.6 
0.00392157 0.576471 0.6 0.00392157 0.576471 0.6 
0.00392157 0.576471 0.6 0.00392157 0.576471 0.6 
0.00392157 0.576471 0.6 0.00392157 0.576471 0.6 
0.00392157 0.576471 0.6 0.00392157 0.576471 0.6 
0.00392157 0.576471 0.6 0.00392157 0.576471 0.6 
0.00392157 0.576471 0.6 0.00392157 0.576471 0.6 
0.00392157 0.576471 0.6 0.00392157 0.576471 0.6 
0.00392157 0.576471 0.6 0.00392157 0.576471 0.6 
0.00392157 0.576471 0.6 0.00392157 0.576471 0.6 
0.00392157 0.576471 0.6 0.00392157 0.576471 0.6 
0.00392157 0.576471 0.6 0.00392157 0.576471 0.6 
0.00392157 0.576471 0.6 0.00392157 0.576471 0.6 
0.00392157 0.576471 0.6 0.00392157 0.576471 0.6 
0.00392157 0.576471 0.6 0.00392157 0.576471 0.6 
0.00392157 0.576471 0.6 0.00392157 0.576471 0.6 
0.00392157 0.576471 0.6 0.00392157 0.576471 0.6 
0.00392157 0.576471 0.6 0.00392157 0.576471 0.6 
0.00392157 0.576471 0.6 0.00392157 0.576471 0.6 
0.00392157 0.576471 0.6 0.00392157 0.576471 0.6 
0.00392157 0.576471 0.6 0.00392157 0.576471 0.6 
0.00392157 0.576471 0.6 0.00392157 0.576471 0.6 
0.00392157 0.576471 0.6 0.00392157 0.576471 0.6 
0.00392157 0.576471 0.6 0.00392157 0.576471 0.6 
0.00392157 0.576471 0.6 0.00392157 0.576471 0.6 
0.00392157 0.576471 0.6 0.00392157 0.576471 0.6 
0.00392157 0.576471 0.6 0.00392157 0.576471 0.6 
0.00392157 0.576471 0.6 0.00392157 0.576471 0.6 
0.00392157 0.576471 0.6 0.00392157 0.576471 0.6 
0.00392157 0.576471 0.6 0.00392157 0.576471 0.6 
0.00392157 0.576471 0.6 0.00392157 0.576471 0.6 
0.00392157 0.576471 0.6 0.00392157 0.576471 0.6 
0.00392157 0.576471 0.6 0.00392157 0.576471 0.6 
0.00392157 0.576471 0.6 0.00392157 0.576471 0.6 
0.00392157 0.576471 0.6 0.00392157 0.576471 0.6 
0.00392157 0.576471 0.6 0.00392157 0.576471 0.6 
0.00392157 0.576471 0.6 0.00392157 0.576471 0.6 
0.00392157 0.576471 0.6 0.00392157 0.576471 0.6 
0.00392157 0.576471 0.6 0.00392157 0.576471 0.6 
0.00392157 0.576471 0.6 0.00392157 0.576471 0.6 
0.00392157 0.576471 0.6 0.00392157 0.576471 0.6 
0.00392157 0.576471 0.6 0.00392157 0.576471 0.6 
0.00392157 0.576471 0.6 0.00392157 0.576471 0.6 
0.00392157 0.576471 0.6 0.00392157 0.576471 0.6 
0.00392157 0.576471 0.6 0.00392157 0.576471 0.6 
0.00392157 0.576471 0.6 0.00392157 0.576471 0.6 
0.00392157 0.576471 0.6 0.00392157 0.576471 0.6 
0.00392157 0.576471 0.6 0.00392157 0.576471 0.6 
0.00392157 0.576471 0.6 0.00392157 0.576471 0.6 
0.00392157 0.576471 0.6 0.00392157 0.576471 0.6 
0.00392157 0.576471 0.6 0.00392157 0.576471 0.6 
0.00392157 0.576471 0.6 0.00392157 0.576471 0.6 
0.00392157 0.576471 0.6 0.00392157 0.576471 0.6 
0.00392157 0.576471 0.6 0.00392157 0.576471 0.6 
0.00392157 0.576471 0.6 0.00392157 0.576471 0.6 
0.00392157 0.576471 0.6 0.00392157 0.576471 0.6 
0.00392157 0.576471 0.6 0.00392157 0.576471 0.6 
0.00392157 0.576471 0.6 0.00392157 0.576471 0.6 
0.00392157 0.576471 0.6 0.00392157 0.576471 0.6 
0.00392157 0.576471 0.6 0.00392157 0.576471 0.6 
0.00392157 0.576471 0.6 0.00392157 0.576471 0.6 
0.00392157 0.576471 0.6 0.00392157 0.576471 0.6 
0.00392157 0.576471 0.6 0.00392157 0.576471 0.6 
0.00392157 0.576471 0.6 0.00392157 0.576471 0.6 
0.00392157 0.576471 0.6 0.00392157 0.576471 0.6 
0.00392157 0.576471 0.6 0.00392157 0.576471 0.6 
0.00392157 0.576471 0.6 0.00392157 0.576471 0.6 
0.00392157 0.576471 0.6 0.00392157 0.576471 0.6 
0.00392157 0.576471 0.6 0.00392157 0.576471 0.6 
0.00392157 0.576471 0.6 0.00392157 0.576471 0.6 
0.00392157 0.576471 0.6 0.00392157 0.576471 0.6 
0.00392157 0.576471 0.6 0.00392157 0.576471 0.6 
0.00392157 0.576471 0.6 0.00392157 0.576471 0.6 
0.00392157 0.576471 0.6 0.00392157 0.576471 0.6 
0.00392157 0.576471 0.6 0.00392157 0.576471 0.6 
0.00392157 0.576471 0.6 0.00392157 0.576471 0.6 
0.00392157 0.576471 0.6 0.00392157 0.576471 0.6 
0.00392157 0.576471 0.6 0.00392157 0.576471 0.6 
0.00392157 0.576471 0.6 0.00392157 0.576471 0.6 
0.00392157 0.576471 0.6 0.00392157 0.576471 0.6 
0.00392157 0.576471 0.6 0.00392157 0.576471 0.6 
0.00392157 0.576471 0.6 0.00392157 0.576471 0.6 
0.00392157 0.576471 0.6 0.00392157 0.576471 0.6 
0.00392157 0.576471 0.6 0.00392157 0.576471 0.6 
0.00392157 0.576471 0.6 0.00392157 0.576471 0.6 
0.00392157 0.576471 0.6 0.00392157 0.576471 0.6 
0.00392157 0.576471 0.6 0.00392157 0.576471 0.6 
0.00392157 0.576471 0.6 0.00392157 0.576471 0.6 
0.00392157 0.576471 0.6 0.00392157 0.576471 0.6 
0.00392157 0.576471 0.6 0.00392157 0.576471 0.6 
0.00392157 0.576471 0.6 0.00392157 0.576471 0.6 
0.00392157 0.576471 0.6 0.00392157 0.576471 0.6 
0.00392157 0.576471 0.6 0.00392157 0.576471 0.6 
0.00392157 0.576471 0.6 0.00392157 0.576471 0.6 
0.00392157 0.576471 0.6 0.00392157 0.576471 0.6 
0.00392157 0.576471 0.6 0.00392157 0.576471 0.6 
0.00392157 0.576471 0.6 0.00392157 0.576471 0.6 
0.00392157 0.576471 0.6 0.00392157 0.576471 0.6 
0.00392157 0.576471 0.6 0.00392157 0.576471 0.6 
0.00392157 0.576471 0.6 0.00392157 0.576471 0.6 
0.00392157 0.576471 0.6 0.00392157 0.576471 0.6 
0.00392157 0.576471 0.6 0.00392157 0.576471 0.6 
0.00392157 0.576471 0.6 0.00392157 0.576471 0.6 
0.00392157 0.576471 0.6 0.00392157 0.576471 0.6 
0.00392157 0.576471 0.6 0.00392157 0.576471 0.6 
0.00392157 0.576471 0.6 0.00392157 0.576471 0.6 
0.00392157 0.576471 0.6 0.00392157 0.576471 0.6 
0.00392157 0.576471 0.6 0.00392157 0.576471 0.6 
0.00392157 0.576471 0.6 0.00392157 0.576471 0.6 
0.00392157 0.576471 0.6 0.00392157 0.576471 0.6 
0.00392157 0.576471 0.6 0.00392157 0.576471 0.6 
0.00392157 0.576471 0.6 0.00392157 0.576471 0.6 
0.00392157 0.576471 0.6 0.00392157 0.576471 0.6 
0.00392157 0.576471 0.6 0.00392157 0.576471 0.6 
0.00392157 0.576471 0.6 0.00392157 0.576471 0.6 
0.00392157 0.576471 0.6 0.00392157 0.576471 0.6 
0.00392157 0.576471 0.6 0.00392157 0.576471 0.6 
0.00392157 0.576471 0.6 0.00392157 0.576471 0.6 
0.00392157 0.576471 0.6 0.00392157 0.576471 0.6 
0.00392157 0.576471 0.6 0.00392157 0.576471 0.6 
0.00392157 0.576471 0.6 0.00392157 0.576471 0.6 
0.00392157 0.576471 0.6 0.00392157 0.576471 0.6 
0.00392157 0.576471 0.6 0.00392157 0.576471 0.6 
0.00392157 0.576471 0.6 0.00392157 0.576471 0.6 
0.00392157 0.576471 0.6 0.00392157 0.576471 0.6 
0.00392157 0.576471 0.6 0.00392157 0.576471 0.6 
0.00392157 0.576471 0.6 0.00392157 0.576471 0.6 
0.00392157 0.576471 0.6 0.00392157 0.576471 0.6 
0.00392157 0.576471 0.6 0.00392157 0.576471 0.6 
0.00392157 0.576471 0.6 0.00392157 0.576471 0.6 
0.00392157 0.576471 0.6 0.00392157 0.576471 0.6 
0.00392157 0.576471 0.6 0.00392157 0.576471 0.6 
0.00392157 0.576471 0.6 0.00392157 0.576471 0.6 
0.00392157 0.576471 0.6 0.00392157 0.576471 0.6 
0.00392157 0.576471 0.6 0.00392157 0.576471 0.6 
0.00392157 0.576471 0.6 0.00392157 0.576471 0.6 
0.00392157 0.576471 0.6 0.00392157 0.576471 0.6 
0.00392157 0.576471 0.6 0.00392157 0.576471 0.6 
0.00392157 0.576471 0.6 0.00392157 0.576471 0.6 
0.00392157 0.576471 0.6 0.00392157 0.576471 0.6 
0.00392157 0.576471 0.6 0.00392157 0.576471 0.6 
0.00392157 0.576471 0.6 0.00392157 0.576471 0.6 
0.00392157 0.576471 0.6 0.00392157 0.576471 0.6 
0.00392157 0.576471 0.6 0.00392157 0.576471 0.6 
0.00392157 0.576471 0.6 0.00392157 0.576471 0.6 
0.00392157 0.576471 0.6 0.00392157 0.576471 0.6 
0.00392157 0.576471 0.6 0.00392157 0.576471 0.6 
0.00392157 0.576471 0.6 0.00392157 0.576471 0.6 
0.00392157 0.576471 0.6 0.00392157 0.576471 0.6 
0.00392157 0.576471 0.6 0.00392157 0.576471 0.6 
0.00392157 0.576471 0.6 0.00392157 0.576471 0.6 
0.00392157 0.576471 0.6 0.00392157 0.576471 0.6 
0.00392157 0.576471 0.6 0.00392157 0.576471 0.6 
0.00392157 0.576471 0.6 0.00392157 0.576471 0.6 
0.00392157 0.576471 0.6 0.00392157 0.576471 0.6 
0.00392157 0.576471 0.6 0.00392157 0.576471 0.6 
0.00392157 0.576471 0.6 0.00392157 0.576471 0.6 
0.00392157 0.576471 0.6 0.00392157 0.576471 0.6 
0.00392157 0.576471 0.6 0.00392157 0.576471 0.6 
0.00392157 0.576471 0.6 0.00392157 0.576471 0.6 
0.00392157 0.576471 0.6 0.00392157 0.576471 0.6 
0.00392157 0.576471 0.6 0.00392157 0.576471 0.6 
0.00392157 0.576471 0.6 0.00392157 0.576471 0.6 
0.00392157 0.576471 0.6 0.00392157 0.576471 0.6 
0.00392157 0.576471 0.6 0.00392157 0.576471 0.6 
0.00392157 0.576471 0.6 0.00392157 0.576471 0.6 
0.00392157 0.576471 0.6 0.00392157 0.576471 0.6 
0.00392157 0.576471 0.6 0.00392157 0.576471 0.6 
0.00392157 0.576471 0.6 0.00392157 0.576471 0.6 
0.00392157 0.576471 0.6 0.00392157 0.576471 0.6 
0.00392157 0.576471 0.6 0.00392157 0.576471 0.6 
0.00392157 0.576471 0.6 0.00392157 0.576471 0.6 
0.00392157 0.576471 0.6 0.00392157 0.576471 0.6 
0.00392157 0.576471 0.6 0.00392157 0.576471 0.6 
0.00392157 0.576471 0.6 0.00392157 0.576471 0.6 
0.00392157 0.576471 0.6 0.00392157 0.576471 0.6 
0.00392157 0.576471 0.6 0.00392157 0.576471 0.6 
0.00392157 0.576471 0.6 0.00392157 0.576471 0.6 
0.00392157 0.576471 0.6 0.00392157 0.576471 0.6 
0.00392157 0.576471 0.6 0.00392157 0.576471 0.6 
0.00392157 0.576471 0.6 0.00392157 0.576471 0.6 
0.00392157 0.576471 0.6 0.00392157 0.576471 0.6 
0.00392157 0.576471 0.6 0.00392157 0.576471 0.6 
0.00392157 0.576471 0.6 0.00392157 0.576471 0.6 
0.00392157 0.576471 0.6 0.00392157 0.576471 0.6 
0.00392157 0.576471 0.6 0.00392157 0.576471 0.6 
0.00392157 0.576471 0.6 0.00392157 0.576471 0.6 
0.00392157 0.576471 0.6 0.00392157 0.576471 0.6 
0.00392157 0.576471 0.6 0.00392157 0.576471 0.6 
0.00392157 0.576471 0.6 0.00392157 0.576471 0.6 
0.00392157 0.576471 0.6 0.00392157 0.576471 0.6 
0.00392157 0.576471 0.6 0.00392157 0.576471 0.6 
0.00392157 0.576471 0.6 0.00392157 0.576471 0.6 
0.00392157 0.576471 0.6 0.00392157 0.576471 0.6 
0.00392157 0.576471 0.6 0.00392157 0.576471 0.6 
0.00392157 0.576471 0.6 0.00392157 0.576471 0.6 
0.00392157 0.576471 0.6 0.00392157 0.576471 0.6 
0.00392157 0.576471 0.6 0.00392157 0.576471 0.6 
0.00392157 0.576471 0.6 0.00392157 0.576471 0.6 
0.00392157 0.576471 0.6 0.00392157 0.576471 0.6 
0.00392157 0.576471 0.6 0.00392157 0.576471 0.6 
0.00392157 0.576471 0.6 0.00392157 0.576471 0.6 
0.00392157 0.576471 0.6 0.00392157 0.576471 0.6 
0.00392157 0.576471 0.6 0.00392157 0.576471 0.6 
0.00392157 0.576471 0.6 0.00392157 0.576471 0.6 
0.00392157 0.576471 0.6 0.00392157 0.576471 0.6 
0.00392157 0.576471 0.6 0.00392157 0.576471 0.6 
0.00392157 0.576471 0.6 0.00392157 0.576471 0.6 
0.00392157 0.576471 0.6 0.00392157 0.576471 0.6 
0.00392157 0.576471 0.6 0.00392157 0.576471 0.6 
0.00392157 0.576471 0.6 0.00392157 0.576471 0.6 
0.00392157 0.576471 0.6 0.00392157 0.576471 0.6 
0.00392157 0.576471 0.6 0.00392157 0.576471 0.6 
0.00392157 0.576471 0.6 0.00392157 0.576471 0.6 
0.00392157 0.576471 0.6 0.00392157 0.576471 0.6 
0.00392157 0.576471 0.6 0.00392157 0.576471 0.6 
0.00392157 0.576471 0.6 0.00392157 0.576471 0.6 
0.00392157 0.576471 0.6 0.00392157 0.576471 0.6 
0.00392157 0.576471 0.6 0.00392157 0.576471 0.6 
0.00392157 0.576471 0.6 0.00392157 0.576471 0.6 
0.00392157 0.576471 0.6 0.00392157 0.576471 0.6 
0.00392157 0.576471 0.6 0.00392157 0.576471 0.6 