# vtk DataFile Version 4.2
vtk output
ASCII
DATASET POLYDATA
POINTS 962 float
289.397 114.039 36.5358 289.305 113.961 36.5195 289.254 114.091 36.4809 
289.574 113.902 36.7188 287.578 115.224 36.1843 288.334 114.871 36.2383 
289.367 114.193 36.5939 288.85 115.038 36.4212 287.938 115.63 36.2602 
288.683 115.36 36.2505 288.55 115.503 36.2229 288.686 115.483 36.2564 
288.438 115.663 36.3059 288.66 115.587 36.3627 288.867 114.164 36.4372 
285.083 114.592 36.5423 284.806 115.53 36.6903 284.095 115.843 36.8982 
286.486 115.485 36.4751 288.778 115.418 36.3624 288.923 115.545 36.7236 
282.219 116.685 37.378 285.321 116.285 36.9358 288.08 116.068 36.72 
288.486 115.807 36.5546 290.156 110.023 37.7813 290.59 109.521 38.1405 
289.312 109.846 37.5482 287.211 111.213 37.0209 290.547 111.055 37.8346 
290.419 112.59 37.5262 285.129 113.95 36.5942 290.268 113.983 37.5299 
280.645 115.695 37.6026 280.007 116.264 37.9052 279.709 116.345 38.0646 
278.998 116.984 38.6691 278.952 116.777 38.631 280.028 116.651 38.1134 
280.954 116.966 38.0027 284.05 117.222 37.7265 283.352 117.141 37.5291 
285.701 109.568 37.8385 288.68 109.671 37.5473 290.758 114.305 38.4685 
278.419 115.001 38.9565 278.331 115.528 39.1056 278.624 116.036 38.8252 
279.233 116.292 38.3849 278.704 116.614 38.9107 279.583 116.999 38.5115 
280.904 117.473 38.4201 289.509 116.217 38.3471 289.752 106.395 38.7921 
288.243 106.879 38.6112 280.915 110.278 38.9427 278.583 113.014 39.2164 
278.226 113.192 39.5885 278.126 113.903 39.547 281.24 117.791 38.7059 
286.29 117.864 39.0194 278.533 117.171 39.7388 281.296 118.261 39.4355 
292.92 102.817 40.7069 293.74 102.597 41.136 292.012 104.573 40.0215 
292.76 105.95 40.3771 292.309 109.016 39.974 279.431 109.826 40.2091 
278.826 110.785 40.1952 291.793 113.431 40.173 277.837 114.994 40.1422 
291.684 114.192 40.6484 278.145 116.915 40.4705 289.008 117.247 39.8675 
279.877 118.357 40.1833 280.984 118.608 40.075 294.977 99.8623 41.8986 
295.256 100.911 42.0205 295.26 101.608 42.1054 293.699 104.68 41.204 
279.945 106.979 41.7384 279.101 109.176 41.1138 278.741 109.559 41.5073 
278.162 111.85 40.6567 277.968 112.106 41.3314 277.659 114.618 41.3045 
278.21 117.052 41.578 295.331 97.8105 42.4187 297.277 98.6108 43.0885 
296.688 99.348 42.8568 290.185 99.9442 41.5773 282.983 102.993 42.1914 
279.68 106.852 42.2859 294.097 105.799 42.0581 278.703 109.009 42.6539 
278.41 110.26 41.8789 291.77 114.515 42.1624 278.011 116.421 42.2787 
282.141 119.096 41.1166 287.421 118.498 41.8445 279.59 118.839 42.3491 
279.412 118.778 42.7491 279.965 119.013 42.2711 300.568 94.5165 44.0607 
293.924 95.8933 43.0368 300.446 95.9249 44.3522 298.599 97.6856 43.7378 
285.179 100.9 42.4404 281.708 102.608 44.0141 281.697 103.392 42.9857 
279.968 105.291 43.319 279.943 105.462 43.2586 279.33 107.188 42.9197 
278.476 109.772 43.1925 290.485 116.861 42.3801 290.313 117.08 42.1807 
290.366 117.084 42.3632 287.97 118.281 42.4473 289.025 117.755 42.4383 
279.12 118.522 42.9328 280.947 119.29 42.5537 304.164 92.0611 44.9841 
299.075 94.0719 43.7595 285.157 99.2338 43.6265 283.04 100.507 44.4273 
282.62 100.923 44.6945 283.628 100.273 43.9641 279.917 105.365 43.4356 
279.879 105.54 43.7696 295.488 104.734 43.9924 294.738 106.097 43.5691 
291.215 115.454 43.1528 290.897 115.913 43.2096 278.424 117.129 44.0278 
290.215 117.018 42.6953 289.796 117.159 43.0162 290.344 117.07 42.466 
278.944 118.159 44.0339 280.48 119.213 44.0225 283.775 119.217 43.6246 
308.724 88.9869 46.132 300.702 90.7448 45.0164 301.891 92.03 44.6423 
290.38 94.072 44.7811 304.351 93.553 45.5891 303.481 95.0257 45.986 
285.957 96.4083 45.5033 287.053 95.5609 45.2573 283.758 98.5585 46.0123 
283.339 99.2583 45.5254 283.21 99.2989 45.7575 283.166 99.3622 45.6097 
283.128 99.4815 45.5523 283.018 99.8948 45.4694 282.485 100.786 45.8313 
281.352 102.844 44.9648 280.337 104.659 44.7908 294.28 107.48 43.6134 
278.605 110.204 44.811 290.077 115.764 44.6082 289.625 116.907 43.5976 
284.543 118.861 44.442 284.948 118.612 44.7388 279.827 118.858 44.9455 
312.616 88.3667 47.6522 290.068 92.9906 45.6243 287.382 94.0201 46.3234 
285.94 95.8764 46.1081 281.386 102.808 45.6573 294.377 107.797 44.9974 
283.499 118.454 45.6393 283.871 118.129 45.8916 285.135 118.161 45.2745 
282.596 118.884 45.2121 279.898 118.868 45.3715 280.425 119.096 45.2823 
280.07 118.973 45.5073 280.265 119.041 45.4881 313.338 85.5876 47.858 
314.405 86.2527 48.1818 292.132 89.8084 47.1309 289.347 91.1733 47.8593 
286.145 94.6427 47.6287 285.496 95.7127 47.4219 301.959 97.3229 46.7328 
282.216 101.447 46.825 295.571 105.759 46.0328 292.313 110.5 46.8494 
282.261 117.379 47.0202 279.977 117.732 46.4902 280.685 118.235 46.452 
280.972 118.549 46.1256 280.624 118.915 45.6542 307.329 85.1355 47.5332 
313.278 84.3921 48.2252 315.808 84.9607 49.0017 314.753 87.3604 48.6384 
291.285 89.0193 48.3729 311.744 89.8578 47.8973 301.789 97.7376 47.1161 
282.031 102.379 47.7188 281.85 103.377 48.3184 295.435 105.967 46.9607 
293.938 108.084 46.9199 283.353 116.133 47.5734 280.978 116.853 47.4417 
280.499 117.356 47.0899 280.663 117.028 47.3063 294.924 85.9242 49.2503 
291.252 88.1905 49.8585 292.034 87.9069 49.1627 315.57 86.893 49.0568 
286.223 94.5487 48.9732 308.143 93.6151 48.9341 301.284 98.921 48.8043 
298.584 101.8 48.0362 296.649 104.091 48.2638 295.382 105.692 48.0321 
281.429 115.807 47.9333 280.165 116.652 47.2071 280.344 117.032 47.1783 
316.873 82.6143 50.3018 317.527 83.199 50.7702 293.686 85.9419 50.4045 
293.624 85.7422 50.9749 290.574 88.8034 50.1226 287.454 92.962 49.784 
286.083 95.0581 49.5923 283.356 101.05 49.7328 290.015 108.771 49.6947 
280.945 113.924 48.6777 318.616 80.3595 52.225 293.298 85.9652 51.4228 
291.355 88.0206 50.7895 315.294 88.9427 51.0377 304.622 96.5969 49.7585 
301.986 98.3321 50.4512 300.093 99.7484 50.5685 298.791 100.628 50.9457 
283.254 102.526 50.6542 281.446 107.703 49.8793 281.377 109.327 50.0588 
285.021 110.212 50.4151 319.678 79.9246 53.264 299.828 80.5329 52.0114 
319.299 81.0506 52.8159 294.965 84.0003 52.0758 318.476 83.1998 52.0332 
317.68 85.3618 51.4865 293.439 85.8194 52.3464 290.997 88.6005 51.401 
291.033 88.8529 51.9412 289.087 91.6808 51.7482 293.863 103.208 51.8445 
283.697 103.273 51.6183 283.633 103.779 51.6725 282.461 107.857 50.7502 
282.156 108.529 50.608 282.297 108.88 50.6736 283.37 107.742 51.2404 
284.017 108.563 51.1493 281.973 109.085 50.4916 282.382 109.476 50.5485 
320.02 77.1638 54.08 299.021 79.881 54.0157 299.514 79.6431 53.6354 
320.082 80.7672 53.8435 295.685 83.0862 53.1805 293.216 86.2005 52.6222 
293.255 86.4092 53.1643 315.518 89.1055 52.3388 285.256 100.57 52.3856 
284.451 102.749 52.3845 284.18 103.87 52.1573 286.986 104.549 52.8508 
288.37 104.591 52.7071 283.53 105.28 51.5985 284.932 105.68 52.2325 
283.839 106.564 51.6 282.077 108.844 50.6038 307.947 76.8824 53.1081 
319.189 76.363 54.046 300.406 78.6491 54.7309 301.182 78.095 54.7185 
295.283 83.8248 54.0804 317.62 86.5281 53.4174 312.525 90.8115 53.4914 
289.905 92.8784 54.0598 288.16 96.552 54.0233 286.072 100.05 52.9693 
285.598 101.362 52.8496 287.286 103.225 53.2895 288.088 102.785 53.4616 
286.407 104.043 52.9644 319.942 75.3133 54.9535 321.477 75.3035 55.8062 
321.612 75.476 55.772 321.283 77.9176 55.2678 299.53 79.344 55.6994 
320.344 81.8011 55.1699 312.849 89.6536 55.0838 315.295 89.0752 53.7269 
301.024 95.5394 54.4302 287.462 97.3549 53.641 286.965 101.815 53.4644 
288.034 101.494 53.7871 285.491 102.624 52.8964 303.337 76.1068 56.7074 
321.898 75.423 56.3337 321.698 75.4373 55.9159 302.372 76.8447 56.8745 
295.405 84.7142 55.4327 316.171 87.222 55.7254 313.486 88.4828 56.0112 
291.563 92.5404 55.5281 290.093 95.1461 55.1285 290.156 95.6302 55.2683 
294.017 96.106 55.7473 291.098 96.6315 55.5185 288.656 97.8083 54.7347 
289.295 97.5966 54.88 290.13 97.0038 55.2449 306.704 73.7919 57.7129 
305.056 74.9511 57.3405 301.567 77.5889 56.8584 315.738 86.9489 56.4025 
292.139 93.2844 56.0107 294.327 94.029 56.5184 293.623 93.8027 56.4952 
292.334 93.8641 56.0926 290.528 95.8974 55.4317 291.191 96.0619 55.5988 
288.503 97.9687 54.7014 312.26 70.9845 58.1977 313.974 70.7339 58.0632 
309.659 72.2833 57.8446 305.635 74.5575 58.6636 323.427 74.3671 58.5997 
303.48 76.1202 57.8688 315.164 86.0237 57.6336 298.212 91.7226 57.4362 
292.776 92.5726 56.3201 321.322 69.9527 59.1325 302.999 77.0136 58.6763 
322.797 77.2965 58.3945 321.978 79.4072 58.8194 297.494 85.4271 58.4227 
298.097 85.1873 58.8308 301.357 88.2542 58.9979 311.83 69.7148 60.6012 
323.908 70.0081 60.5559 324.368 71.1919 60.5967 302.678 78.2597 59.5622 
298.086 85.5667 58.9144 298.341 85.9533 59.0899 313.073 68.6775 61.5357 
313.584 68.4764 61.2626 316.86 67.7102 60.9783 318.744 67.6951 60.9694 
322.033 68.5979 60.7448 323.621 69.163 61.086 324.437 69.3525 61.728 
324.486 69.2784 62.0352 324.721 72.7525 61.3791 322.123 78.9258 60.2503 
321.093 80.301 60.1855 319.843 81.3042 60.205 311.657 82.6687 61.3322 
302.383 84.686 60.6794 314.687 67.7975 61.7561 314.454 67.6848 62.3681 
319.541 67.0372 62.1225 321.339 67.4813 62.3443 322.353 67.8547 62.5066 
312.539 69.0053 61.6795 324.148 68.8676 62.3185 311.087 70.357 62.2708 
324.918 70.1089 62.2013 324.956 70.905 61.9756 309.167 72.3871 61.6129 
324.994 71.5178 62.4252 307.051 74.547 61.2068 324.332 74.7768 61.8428 
316.461 66.745 62.7007 316.901 66.4132 63.2201 319.255 66.4834 63.2442 
323.078 68.2203 63.0842 323.928 68.8183 63.0314 311.553 69.88 62.3238 
312.095 69.7189 63.2017 325.011 71.0335 63.3162 309.919 72.1387 62.5732 
325.145 71.7201 63.2279 307.364 75.3999 62.3305 308.396 81.1787 62.6789 
302.844 81.8975 61.4392 316.018 66.3289 64.723 318.886 66.1651 64.0432 
319.196 66.2683 64.2071 313.216 68.6833 63.7861 323.516 68.5926 63.3133 
324.363 69.4532 63.396 311.778 70.6897 63.9724 324.938 71.0488 63.9428 
324.97 71.8369 64.0058 324.162 74.8847 63.3559 307.291 76.7078 63.0185 
322.955 76.8832 63.1721 307.058 79.8868 63.0315 316.795 65.9119 65.1045 
[...]
POINT_DATA 962
COLOR_SCALARS scalars 3
0.00392157 0.576471 0.6 0.00392157 0.576471 0.6 0.00392157 0.576471 0.6 
0.00392157 0.576471 0.6 0.00392157 0.576471 0.6 
0.00392157 0.576471 0.6 0.00392157 0.576471 0.6 
0.00392157 0.576471 0.6 0.00392157 0.576471 0.6 
0.00392157 0.576471 0.6 0.00392157 0.576471 0.6 
0.00392157 0.576471 0.6 0.00392157 0.576471 0.6 
0.00392157 0.576471 0.6 0.00392157 0.576471 0.6 
0.00392157 0.576471 0.6 0.00392157 0.576471 0.6 
0.00392157 0.576471 0.6 0.00392157 0.576471 0.6 
0.00392157 0.576471 0.6 0.00392157 0.576471 0.6 
0.00392157 0.576471 0.6 0.00392157 0.576471 0.6 
0.00392157 0.576471 0.6 0.00392157 0.576471 0.6 
0.00392157 0.576471 0.6 0.00392157 0.576471 0.6 
0.00392157 0.576471 0.6 0.00392157 0.576471 0.6 
0.00392157 0.576471 0.6 0.00392157 0.576471 0.6 
0.00392157 0.576471 0.6 0.00392157 0.576471 0.6 
0.00392157 0.576471 0.6 0.00392157 0.576471 0.6 
0.00392157 0.576471 0.6 0.00392157 0.576471 0.6 
0.00392157 0.576471 0.6 0.00392157 0.576471 0.6 
0.00392157 0.576471 0.6 0.00392157 0.576471 0.6 
0.00392157 0.576471 0.6 0.00392157 0.576471 0.6 
0.00392157 0.576471 0.6 0.00392157 0.576471 0.6 
0.00392157 0.576471 0.6 0.00392157 0.576471 0.6 
0.00392157 0.576471 0.6 0.00392157 0.576471 0.6 
0.00392157 0.576471 0.6 0.00392157 0.576471 0.6 
0.00392157 0.576471 0.6 0.00392157 0.576471 0.6 
0.00392157 0.576471 0.6 0.00392157 0.576471 0.6 
0.00392157 0.576471 0.6 0.00392157 0.576471 0.6 
0.00392157 0.576471 0.6 0.00392157 0.576471 0.6 
0.00392157 0.576471 0.6 0.00392157 0.576471 0.6 
0.00392157 0.576471 0.6 0.00392157 0.576471 0.6 
0.00392157 0.576471 0.6 0.00392157 0.576471 0.6 
0.00392157 0.576471 0.6 0.00392157 0.576471 0.6 
0.00392157 0.576471 0.6 0.00392157 0.576471 0.6 
0.00392157 0.576471 0.6 0.00392157 0.576471 0.6 
0.00392157 0.576471 0.6 0.00392157 0.576471 0.6 
0.00392157 0.576471 0.6 0.00392157 0.576471 0.6 
0.00392157 0.576471 0.6 0.00392157 0.576471 0.6 
0.00392157 0.576471 0.6 0.00392157 0.576471 0.6 
0.00392157 0.576471 0.6 0.00392157 0.576471 0.6 
0.00392157 0.576471 0.6 0.00392157 0.576471 0.6 
0.00392157 0.576471 0.6 0.00392157 0.576471 0.6 
0.00392157 0.576471 0.6 0.00392157 0.576471 0.6 
0.00392157 0.576471 0.6 0.00392157 0.576471 0.6 
0.00392157 0.576471 0.6 0.00392157 0.576471 0.6 
0.00392157 0.576471 0.6 0.00392157 0.576471 0.6 
0.00392157 0.576471 0.6 0.00392157 0.576471 0.6 
0.00392157 0.576471 0.6 0.00392157 0.576471 0.6 
0.00392157 0.576471 0.6 0.00392157 0.576471 0.6 
0.00392157 0.576471 0.6 0.00392157 0.576471 0.6 
0.00392157 0.576471 0.6 0.00392157 0.576471 0.6 
0.00392157 0.576471 0.6 0.00392157 0.576471 0.6 
0.00392157 0.576471 0.6 0.00392157 0.576471 0.6 
0.00392157 0.576471 0.6 0.00392157 0.576471 0.6 
0.00392157 0.576471 0.6 0.00392157 0.576471 0.6 
0.00392157 0.576471 0.6 0.00392157 0.576471 0.6 
0.00392157 0.576471 0.6 0.00392157 0.576471 0.6 
0.00392157 0.576471 0.6 0.00392157 0.576471 0.6 
0.00392157 0.576471 0.6 0.00392157 0.576471 0.6 
0.00392157 0.576471 0.6 0.00392157 0.576471 0.6 
0.00392157 0.576471 0.6 0.00392157 0.576471 0.6 
0.00392157 0.576471 0.6 0.00392157 0.576471 0.6 
0.00392157 0.576471 0.6 0.00392157 0.576471 0.6 
0.00392157 0.576471 0.6 0.00392157 0.576471 0.6 
0.00392157 0.576471 0.6 0.00392157 0.576471 0.6 
0.00392157 0.576471 0.6 0.00392157 0.576471 0.6 
0.00392157 0.576471 0.6 0.00392157 0.576471 0.6 
0.00392157 0.576471 0.6 0.00392157 0.576471 0.6 
0.00392157 0.576471 0.6 0.00392157 0.576471 0.6 
0.00392157 0.576471 0.6 0.00392157 0.576471 0.6 
0.00392157 0.576471 0.6 0.00392157 0.576471 0.6 
0.00392157 0.576471 0.6 0.00392157 0.576471 0.6 
0.00392157 0.576471 0.6 0.00392157 0.576471 0.6 
0.00392157 0.576471 0.6 0.00392157 0.576471 0.6 
0.00392157 0.576471 0.6 0.00392157 0.576471 0.6 
0.00392157 0.576471 0.6 0.00392157 0.576471 0.6 
0.00392157 0.576471 0.6 0.00392157 0.576471 0.6 
0.00392157 0.576471 0.6 0.00392157 0.576471 0.6 
0.00392157 0.576471 0.6 0.00392157 0.576471 0.6 
0.00392157 0.576471 0.6 0.00392157 0.576471 0.6 
0.00392157 0.576471 0.6 0.00392157 0.576471 0.6 
0.00392157 0.576471 0.6 0.00392157 0.576471 0.6 
0.00392157 0.576471 0.6 0.00392157 0.576471 0.6 
0.00392157 0.576471 0.6 0.00392157 0.576471 0.6 
0.00392157 0.576471 0.6 0.00392157 0.576471 0.6 
0.00392157 0.576471 0.6 0.00392157 0.576471 0.6 
0.00392157 0.576471 0.6 0.00392157 0.576471 0.6 
0.00392157 0.576471 0.6 0.00392157 0.576471 0.6 
0.00392157 0.576471 0.6 0.00392157 0.576471 0.6 
0.00392157 0.576471 0.6 0.00392157 0.576471 0.6 
0.00392157 0.576471 0.6 0.00392157 0.576471 0.6 
0.00392157 0.576471 0.6 0.00392157 0.576471 0.6 
0.00392157 0.576471 0.6 0.00392157 0.576471 0.6 
0.00392157 0.576471 0.6 0.00392157 0.576471 0.6 
0.00392157 0.576471 0.6 0.00392157 0.576471 0.6 
0.00392157 0.576471 0.6 0.00392157 0.576471 0.6 
0.00392157 0.576471 0.6 0.00392157 0.576471 0.6 
0.00392157 0.576471 0.6 0.00392157 0.576471 0.6 
0.00392157 0.576471 0.6 0.00392157 0.576471 0.6 
0.00392157 0.576471 0.6 0.00392157 0.576471 0.6 
0.00392157 0.576471 0.6 0.00392157 0.576471 0.6 
0.00392157 0.576471 0.6 0.00392157 0.576471 0.6 
0.00392157 0.576471 0.6 0.00392157 0.576471 0.6 
0.00392157 0.576471 0.6 0.00392157 0.576471 0.6 
0.00392157 0.576471 0.6 0.00392157 0.576471 0.6 
0.00392157 0.576471 0.6 0.00392157 0.576471 0.6 
0.00392157 0.576471 0.6 0.00392157 0.576471 0.6 
0.00392157 0.576471 0.6 0.00392157 0.576471 0.6 
0.00392157 0.576471 0.6 0.00392157 0.576471 0.6 
0.00392157 0.576471 0.6 0.00392157 0.576471 0.6 
0.00392157 0.576471 0.6 0.00392157 0.576471 0.6 
0.00392157 0.576471 0.6 0.00392157 0.576471 0.6 
0.00392157 0.576471 0.6 0.00392157 0.576471 0.6 
0.00392157 0.576471 0.6 0.00392157 0.576471 0.6 
0.00392157 0.576471 0.6 0.00392157 0.576471 0.6 
0.00392157 0.576471 0.6 0.00392157 0.576471 0.6 
0.00392157 0.576471 0.6 0.00392157 0.576471 0.6 
0.00392157 0.576471 0.6 0.00392157 0.576471 0.6 
0.00392157 0.576471 0.6 0.00392157 0.576471 0.6 
0.00392157 0.576471 0.6 0.00392157 0.576471 0.6 
0.00392157 0.576471 0.6 0.00392157 0.576471 0.6 
0.00392157 0.576471 0.6 0.00392157 0.576471 0.6 
0.00392157 0.576471 0.6 0.00392157 0.576471 0.6 
0.00392157 0.576471 0.6 0.00392157 0.576471 0.6 
0.00392157 0.576471 0.6 0.00392157 0.576471 0.6 
0.00392157 0.576471 0.6 0.00392157 0.576471 0.6 
0.00392157 0.576471 0.6 0.00392157 0.576471 0.6 
0.00392157 0.576471 0.6 0.00392157 0.576471 0.6 
0.00392157 0.576471 0.6 0.00392157 0.576471 0.6 
0.00392157 0.576471 0.6 0.00392157 0.576471 0.6 
0.00392157 0.576471 0.6 0.00392157 0.576471 0.6 
0.00392157 0.576471 0.6 0.00392157 0.576471 0.6 
0.00392157 0.576471 0.6 0.00392157 0.576471 0.6 
0.00392157 0.576471 0.6 0.00392157 0.576471 0.6 
0.00392157 0.576471 0.6 0.00392157 0.576471 0.6 
0.00392157 0.576471 0.6 0.00392157 0.576471 0.6 
0.00392157 0.576471 0.6 0.00392157 0.576471 0.6 
0.00392157 0.576471 0.6 0.00392157 0.576471 0.6 
0.00392157 0.576471 0.6 0.00392157 0.576471 0.6 
0.00392157 0.576471 0.6 0.00392157 0.576471 0.6 
0.00392157 0.576471 0.6 0.00392157 0.576471 0.6 
0.00392157 0.576471 0.6 0.00392157 0.576471 0.6 
0.00392157 0.576471 0.6 0.00392157 0.576471 0.6 
0.00392157 0.576471 0.6 0.00392157 0.576471 0.6 
0.00392157 0.576471 0.6 0.00392157 0.576471 0.6 
0.00392157 0.576471 0.6 0.00392157 0.576471 0.6 
0.00392157 0.576471 0.6 0.00392157 0.576471 0.6 
0.00392157 0.576471 0.6 0.00392157 0.576471 0.6 
0.00392157 0.576471 0.6 0.00392157 0.576471 0.6 
0.00392157 0.576471 0.6 0.00392157 0.576471 0.6 
0.00392157 0.576471 0.6 0.00392157 0.576471 0.6 
0.00392157 0.576471 0.6 0.00392157 0.576471 0.6 
0.00392157 0.576471 0.6 0.00392157 0.576471 0.6 
0.00392157 0.576471 0.6 0.00392157 0.576471 0.6 
0.00392157 0.576471 0.6 0.00392157 0.576471 0.6 
0.00392157 0.576471 0.6 0.00392157 0.576471 0.6 
0.00392157 0.576471 0.6 0.00392157 0.576471 0.6 
0.00392157 0.576471 0.6 0.00392157 0.576471 0.6 
0.00392157 0.576471 0.6 0.00392157 0.576471 0.6 
0.00392157 0.576471 0.6 0.00392157 0.576471 0.6 
0.00392157 0.576471 0.6 0.00392157 0.576471 0.6 
0.00392157 0.576471 0.6 0.00392157 0.576471 0.6 
0.00392157 0.576471 0.6 0.00392157 0.576471 0.6 
0.00392157 0.576471 0.6 0.00392157 0.576471 0.6 
0.00392157 0.576471 0.6 0.00392157 0.576471 0.6 
0.00392157 0.576471 0.6 0.00392157 0.576471 0.6 
0.00392157 0.576471 0.6 0.00392157 0.576471 0.6 
0.00392157 0.576471 0.6 0.00392157 0.576471 0.6 
0.00392157 0.576471 0.6 0.00392157 0.576471 0.6 
0.00392157 0.576471 0.6 0.00392157 0.576471 0.6 
0.00392157 0.576471 0.6 0.00392157 0.576471 0.6 
0.00392157 0.576471 0.6 0.00392157 0.576471 0.6 
0.00392157 0.576471 0.6 0.00392157 0.576471 0.6 
0.00392157 0.576471 0.6 0.00392157 0.576471 0.6 
0.00392157 0.576471 0.6 0.00392157 0.576471 0.6 
0.00392157 0.576471 0.6 0.00392157 0.576471 0.6 
0.00392157 0.576471 0.6 0.00392157 0.576471 0.6 
0.00392157 0.576471 0.6 0.00392157 0.576471 0.6 
0.00392157 0.576471 0.6 0.00392157 0.576471 0.6 
0.00392157 0.576471 0.6 0.00392157 0.576471 0.6 
0.00392157 0.576471 0.6 0.00392157 0.576471 0.6 
0.00392157 0.576471 0.6 0.00392157 0.576471 0.6 
0.00392157 0.576471 0.6 0.00392157 0.576471 0.6 
0.00392157 0.576471 0.6 0.00392157 0.576471 0.6 
0.00392157 0.576471 0.6 0.00392157 0.576471 0.6 
0.00392157 0.576471 0.6 0.00392157 0.576471 0.6 
0.00392157 0.576471 0.6 0.00392157 0.576471 0.6 
0.00392157 0.576471 0.6 0.00392157 0.576471 0.6 
0.00392157 0.576471 0.6 0.00392157 0.576471 0.6 
0.00392157 0.576471 0.6 0.00392157 0.576471 0.6 
0.00392157 0.576471 0.6 0.00392157 0.576471 0.6 
0.00392157 0.576471 0.6 0.00392157 0.576471 0.6 
0.00392157 0.576471 0.6 0.00392157 0.576471 0.6 
0.00392157 0.576471 0.6 0.00392157 0.576471 0.6 
0.00392157 0.576471 0.6 0.00392157 0.576471 0.6 
0.00392157 0.576471 0.6 0.00392157 0.576471 0.6 
0.00392157 0.576471 0.6 0.00392157 0.576471 0.6 
0.00392157 0.576471 0.6 0.00392157 0.576471 0.6 
0.00392157 0.576471 0.6 0.00392157 0.576471 0.6 
0.00392157 0.576471 0.6 0.00392157 0.576471 0.6 
0.00392157 0.576471 0.6 0.00392157 0.576471 0.6 
0.00392157 0.576471 0.6 0.00392157 0.576471 0.6 
0.00392157 0.576471 0.6 0.00392157 0.576471 0.6 
0.00392157 0.576471 0.6 0.00392157 0.576471 0.6 
0.00392157 0.576471 0.6 0.00392157 0.576471 0.6 
0.00392157 0.576471 0.6 0.00392157 0.576471 0.6 
0.00392157 0.576471 0.6 0.00392157 0.576471 0.6 
0.00392157 0.576471 0.6 0.00392157 0.576471 0.6 
0.00392157 0.576471 0.6 0.00392157 0.576471 0.6 
0.00392157 0.576471 0.6 0.00392157 0.576471 0.6 
0.00392157 0.576471 0.6 0.00392157 0.576471 0.6 
0.00392157 0.576471 0.6 0.00392157 0.576471 0.6 
0.00392157 0.576471 0.6 0.00392157 0.576471 0.6 
0.00392157 0.576471 0.6 0.00392157 0.576471 0.6 
0.00392157 0.576471 0.6 0.00392157 0.576471 0.6 
0.00392157 0.576471 0.6 0.00392157 0.576471 0.6 
0.00392157 0.576471 0.6 0.00392157 0.576471 0.6 
0.00392157 0.576471 0.6 0.00392157 0.576471 0.6 
0.00392157 0.576471 0.6 0.00392157 0.576471 0.6 
0.00392157 0.576471 0.6 0.00392157 0.576471 0.6 
0.00392157 0.576471 0.6 0.00392157 0.576471 0.6 
0.00392157 0.576471 0.6 0.00392157 0.576471 0.6 
0.00392157 0.576471 0.6 0.00392157 0.576471 0.6 
0.00392157 0.576471 0.6 0.00392157 0.576471 0.6 
0.00392157 0.576471 0.6 0.00392157 0.576471 0.6 
0.00392157 0.576471 0.6 0.00392157 0.576471 0.6 
0.00392157 0.576471 0.6 0.00392157 0.576471 0.6 
0.00392157 0.576471 0.6 0.00392157 0.576471 0.6 
0.00392157 0.576471 0.6 0.00392157 0.576471 0.6 
0.00392157 0.576471 0.6 0.00392157 0.576471 0.6 
0.00392157 0.576471 0.6 0.00392157 0.576471 0.6 
0.00392157 0.576471 0.6 0.00392157 0.576471 0.6 
0.00392157 0.576471 0.6 0.00392157 0.576471 0.6 
0.00392157 0.576471 0.6 0.00392157 0.576471 0.6 
0.00392157 0.576471 0.6 0.00392157 0.576471 0.6 
0.00392157 0.576471 0.6 0.00392157 0.576471 0.6 
0.00392157 0.576471 0.6 0.00392157 0.576471 0.6 
0.00392157 0.576471 0.6 0.00392157 0.576471 0.6 
0.00392157 0.576471 0.6 0.00392157 0.576471 0.6 
0.00392157 0.576471 0.6 0.00392157 0.576471 0.6 
0.00392157 0.576471 0.6 0.00392157 0.576471 0.6 
0.00392157 0.576471 0.6 0.00392157 0.576471 0.6 
0.00392157 0.576471 0.6 0.00392157 0.576471 0.6 
0.00392157 0.576471 0.6 0.00392157 0.576471 0.6 
0.00392157 0.576471 0.6 0.00392157 0.576471 0.6 
0.00392157 0.576471 0.6 0.00392157 0.576471 0.6 
0.00392157 0.576471 0.6 0.00392157 0.576471 0.6 
0.00392157 0.576471 0.6 0.00392157 0.576471 0.6 
0.00392157 0.576471 0.6 0.00392157 0.576471 0.6 
0.00392157 0.576471 0.6 0.00392157 0.576471 0.6 
0.00392157 0.576471 0.6 0.00392157 0.576471 0.6 
0.00392157 0.576471 0.6 0.00392157 0.576471 0.6 
0.00392157 0.576471 0.6 0.00392157 0.576471 0.6 
0.00392157 0.576471 0.6 0.00392157 0.576471 0.6 
0.00392157 0.576471 0.6 0.00392157 0.576471 0.6 
0.00392157 0.576471 0.6 0.00392157 0.576471 0.6 
0.00392157 0.576471 0.6 0.00392157 0.576471 0.6 
0.00392157 0.576471 0.6 0.00392157 0.576471 0.6 
0.00392157 0.576471 0.6 0.00392157 0.576471 0.6 
0.00392157 0.576471 0.6 0.00392157 0.576471 0.6 
0.00392157 0.576471 0.6 0.00392157 0.576471 0.6 
0.00392157 0.576471 0.6 0.00392157 0.576471 0.6 
0.00392157 0.576471 0.6 0.00392157 0.576471 0.6 
0.00392157 0.576471 0.6 0.00392157 0.576471 0.6 
0.00392157 0.576471 0.6 0.00392157 0.576471 0.6 
0.00392157 0.576471 0.6 0.00392157 0.576471 0.6 
0.00392157 0.576471 0.6 0.00392157 0.576471 0.6 
0.00392157 0.576471 0.6 0.00392157 0.576471 0.6 
0.00392157 0.576471 0.6 0.00392157 0.576471 0.6 
0.00392157 0.576471 0.6 0.00392157 0.576471 0.6 
0.00392157 0.576471 0.6 0.00392157 0.576471 0.6 
0.00392157 0.576471 0.6 0.00392157 0.576471 0.6 
0.00392157 0.576471 0.6 0.00392157 0.576471 0.6 
0.00392157 0.576471 0.6 0.00392157 0.576471 0.6 
0.00392157 0.576471 0.6 0.00392157 0.576471 0.6 
0.00392157 0.576471 0.6 0.00392157 0.576471 0.6 
0.00392157 0.576471 0.6 0.00392157 0.576471 0.6 
0.00392157 0.576471 0.6 0.00392157 0.576471 0.6 
0.00392157 0.576471 0.6 0.00392157 0.576471 0.6 
0.00392157 0.576471 0.6 0.00392157 0.576471 0.6 
0.00392157 0.576471 0.6 0.00392157 0.576471 0.6 
0.00392157 0.576471 0.6 0.00392157 0.576471 0.6 
0.00392157 0.576471 0.6 0.00392157 0.576471 0.6 
0.00392157 0.576471 0.6 0.00392157 0.576471 0.6 
0.00392157 0.576471 0.6 0.00392157 0.576471 0.6 
0.00392157 0.576471 0.6 0.00392157 0.576471 0.6 
0.00392157 0.576471 0.6 0.00392157 0.576471 0.6 
0.00392157 0.576471 0.6 0.00392157 0.576471 0.6 
0.00392157 0.576471 0.6 0.00392157 0.576471 0.6 
0.00392157 0.576471 0.6 0.00392157 0.576471 0.6 
0.00392157 0.576471 0.6 0.00392157 0.576471 0.6 
0.00392157 0.576471 0.6 0.00392157 0.576471 0.6 
0.00392157 0.576471 0.6 0.00392157 0.576471 0.6 
0.00392157 0.576471 0.6 0.00392157 0.576471 0.6 
0.00392157 0.576471 0.6 0.00392157 0.576471 0.6 
0.00392157 0.576471 0.6 0.00392157 0.576471 0.6 
0.00392157 0.576471 0.6 0.00392157 0.576471 0.6 
0.00392157 0.576471 0.6 0.00392157 0.576471 0.6 
0.00392157 0.576471 0.6 0.00392157 0.576471 0.6 
0.00392157 0.576471 0.6 0.00392157 0.576471 0.6 
0.00392157 0.576471 0.6 0.00392157 0.576471 0.6 
0.00392157 0.576471 0.6 0.00392157 0.576471 0.6 
0.00392157 0.576471 0.6 0.00392157 0.576471 0.6 
0.00392157 0.576471 0.6 0.00392157 0.576471 0.6 
0.00392157 0.576471 0.6 0.00392157 0.576471 0.6 
0.00392157 0.576471 0.6 0.00392157 0.576471 0.6 
0.00392157 0.576471 0.6 0.00392157 0.576471 0.6 
0.00392157 0.576471 0.6 0.00392157 0.576471 0.6 
0.00392157 0.576471 0.6 0.00392157 0.576471 0.6 
0.00392157 0.576471 0.6 0.00392157 0.576471 0.6 
0.00392157 0.576471 0.6 0.00392157 0.576471 0.6 
0.00392157 0.576471 0.6 0.00392157 0.576471 0.6 
0.00392157 0.576471 0.6 0.00392157 0.576471 0.6 
0.00392157 0.576471 0.6 0.00392157 0.576471 0.6 
0.00392157 0.576471 0.6 0.00392157 0.576471 0.6 
0.00392157 0.576471 0.6 0.00392157 0.576471 0.6 
0.00392157 0.576471 0.6 0.00392157 0.576471 0.6 
0.00392157 0.576471 0.6 0.00392157 0.576471 0.6 
0.00392157 0.576471 0.6 0.00392157 0.576471 0.6 
0.00392157 0.576471 0.6 0.00392157 0.576471 0.6 
0.00392157 0.576471 0.6 0.00392157 0.576471 0.6 
0.00392157 0.576471 0.6 0.00392157 0.576471 0.6 
0.00392157 0.576471 0.6 0.00392157 0.576471 0.6 
0.00392157 0.576471 0.6 0.00392157 0.576471 0.6 
0.00392157 0.576471 0.6 0.00392157 0.576471 0.6 
0.00392157 0.576471 0.6 0.00392157 0.576471 0.6 
0.00392157 0.576471 0.6 0.00392157 0.576471 0.6 
0.00392157 0.576471 0.6 0.00392157 0.576471 0.6 
0.00392157 0.576471 0.6 0.00392157 0.576471 0.6 
0.00392157 0.576471 0.6 0.00392157 0.576471 0.6 
0.00392157 0.576471 0.6 0.00392157 0.576471 0.6 
0.00392157 0.576471 0.6 0.00392157 0.576471 0.6 
0.00392157 0.576471 0.6 0.00392157 0.576471 0.6 
0.00392157 0.576471 0.6 0.00392157 0.576471 0.6 
0.00392157 0.576471 0.6 0.00392157 0.576471 0.6 
0.00392157 0.576471 0.6 0.00392157 0.576471 0.6 
0.00392157 0.576471 0.6 0.00392157 0.576471 0.6 
0.00392157 0.576471 0.6 0.00392157 0.576471 0.6 
0.00392157 0.576471 0.6 0.00392157 0.576471 0.6 
0.00392157 0.576471 0.6 0.00392157 0.576471 0.6 
0.00392157 0.576471 0.6 0.00392157 0.576471 0.6 
0.00392157 0.576471 0.6 0.00392157 0.576471 0.6 
0.00392157 0.576471 0.6 0.00392157 0.576471 0.6 
0.00392157 0.576471 0.6 0.00392157 0.576471 0.6 
0.00392157 0.576471 0.6 0.00392157 0.576471 0.6 
0.00392157 0.576471 0.6 0.00392157 0.576471 0.6 
0.00392157 0.576471 0.6 0.00392157 0.576471 0.6 
0.00392157 0.576471 0.6 0.00392157 0.576471 0.6 
0.00392157 0.576471 0.6 0.00392157 0.576471 0.6 
0.00392157 0.576471 0.6 0.00392157 0.576471 0.6 
0.00392157 0.576471 0.6 0.00392157 0.576471 0.6 
0.00392157 0.576471 0.6 0.00392157 0.576471 0.6 
0.00392157 0.576471 0.6 0.00392157 0.576471 0.6 
0.00392157 0.576471 0.6 0.00392157 0.576471 0.6 
0.00392157 0.576471 0.6 0.00392157 0.576471 0.6 
0.00392157 0.576471 0.6 0.00392157 0.576471 0.6 
0.00392157 0.576471 0.6 0.00392157 0.576471 0.6 
0.00392157 0.576471 0.6 0.00392157 0.576471 0.6 
0.00392157 0.576471 0.6 0.00392157 0.576471 0.6 
0.00392157 0.576471 0.6 0.00392157 0.576471 0.6 
0.00392157 0.576471 0.6 0.00392157 0.576471 0.6 
0.00392157 0.576471 0.6 0.00392157 0.576471 0.6 
0.00392157 0.576471 0.6 0.00392157 0.576471 0.6 
0.00392157 0.576471 0.6 0.00392157 0.576471 0.6 
0.00392157 0.576471 0.6 0.00392157 0.576471 0.6 
0.00392157 0.576471 0.6 0.00392157 0.576471 0.6 
0.00392157 0.576471 0.6 0.00392157 0.576471 0.6 
0.00392157 0.576471 0.6 0.00392157 0.576471 0.6 
0.00392157 0.576471 0.6 0.00392157 0.576471 0.6 
0.00392157 0.576471 0.6 0.00392157 0.576471 0.6 
0.00392157 0.576471 0.6 0.00392157 0.576471 0.6 
0.00392157 0.576471 0.6 0.00392157 0.576471 0.6 
0.00392157 0.576471 0.6 0.00392157 0.576471 0.6 
0.00392157 0.576471 0.6 0.00392157 0.576471 0.6 
0.00392157 0.576471 0.6 0.00392157 0.576471 0.6 
0.00392157 0.576471 0.6 0.00392157 0.576471 0.6 
0.00392157 0.576471 0.6 0.00392157 0.576471 0.6 
0.00392157 0.576471 0.6 0.00392157 0.576471 0.6 
0.00392157 0.576471 0.6 0.00392157 0.576471 0.6 
0.00392157 0.576471 0.6 0.00392157 0.576471 0.6 
0.00392157 0.576471 0.6 0.00392157 0.576471 0.6 
0.00392157 0.576471 0.6 0.00392157 0.576471 0.6 
0.00392157 0.576471 0.6 0.00392157 0.576471 0.6 
0.00392157 0.576471 0.6 0.00392157 0.576471 0.6 
0.00392157 0.576471 0.6 0.00392157 0.576471 0.6 
0.00392157 0.576471 0.6 0.00392157 0.576471 0.6 
0.00392157 0.576471 0.6 0.00392157 0.576471 0.6 
0.00392157 0.576471 0.6 0.00392157 0.576471 0.6 
0.00392157 0.576471 0.6 0.00392157 0.576471 0.6 
0.00392157 0.576471 0.6 0.00392157 0.576471 0.6 
0.00392157 0.576471 0.6 0.00392157 0.576471 0.6 
0.00392157 0.576471 0.6 0.00392157 0.576471 0.6 
0.00392157 0.576471 0.6 0.00392157 0.576471 0.6 
0.00392157 0.576471 0.6 0.00392157 0.576471 0.6 
0.00392157 0.576471 0.6 0.00392157 0.576471 0.6 
0.00392157 0.576471 0.6 0.00392157 0.576471 0.6 
0.00392157 0.576471 0.6 0.00392157 0.576471 0.6 
0.00392157 0.576471 0.6 0.00392157 0.576471 0.6 
0.00392157 0.576471 0.6 0.00392157 0.576471 0.6 
0.00392157 0.576471 0.6 0.00392157 0.576471 0.6 
0.00392157 0.576471 0.6 0.00392157 0.576471 0.6 
0.00392157 0.576471 0.6 0.00392157 0.576471 0.6 
0.00392157 0.576471 0.6 0.00392157 0.576471 0.6 
0.00392157 0.576471 0.6 0.00392157 0.576471 0.6 
0.00392157 0.576471 0.6 0.00392157 0.576471 0.6 
0.00392157 0.576471 0.6 0.00392157 0.576471 0.6 