# vtk DataFile Version 4.2
vtk output
ASCII
DATASET POLYDATA
POINTS 1972 float
336.357 125.28 60.0082 336.543 125.162 60.0564 333.134 126.925 59.6526 
334.51 126.665 59.7157 336.128 125.445 60.022 334.958 126.272 59.8213 
336.582 125.121 60.1112 332.444 128.034 59.4363 332.945 127.712 59.4884 
333.489 127.475 59.5743 334.148 127.041 59.6689 334.628 126.656 59.7999 
331.549 128.724 59.3743 332.054 128.426 59.4069 333.815 127.347 59.6758 
334.19 127.063 59.7436 331.146 129.117 59.3658 332.178 128.639 59.548 
330.832 129.554 59.4203 331.314 129.32 59.5029 331.73 129.008 59.5569 
326.98 131.492 59.5387 328.252 131.022 59.5291 330.013 130.115 59.4688 
330.5 129.904 59.5168 330.914 129.631 59.5354 330.076 130.173 59.6033 
324.852 132.892 59.8892 325.929 132.606 59.8706 326.347 132.426 59.9293 
338.866 122.78 60.7992 336.631 124.207 60.3739 336.014 124.293 60.5749 
338.39 123.288 60.6186 338.657 123.115 60.7595 334.564 124.734 60.4107 
335.39 124.75 60.4153 337.025 124.418 60.2701 332.016 126.459 60.1062 
331.698 125.999 60.3995 331.378 126.588 60.4838 335.531 125.582 59.981 
337.307 124.32 60.3884 330.231 127.539 59.9938 329.981 127.041 60.3406 
330.739 127.072 60.338 335.346 126.011 59.9536 335.876 125.598 60.0817 
334.63 126.485 60.0063 334.353 126.89 59.8307 329.105 128.704 59.6521 
329.908 129.981 60.0628 328.397 130.897 60.2189 330.544 129.861 59.6615 
324.142 132.916 59.9823 326.772 132.183 60.0264 321.698 133.984 60.4662 
322.773 133.904 60.2757 324.377 133.266 60.0911 324.895 133.122 60.1476 
325.614 132.772 60.1056 321.03 134.867 60.7397 321.985 134.521 60.5026 
323.1 134.012 60.3785 323.705 133.698 60.3253 322.665 134.265 60.5086 
321.507 134.867 60.6896 340.367 120.765 61.6343 340.585 120.356 61.8717 
335.022 122.121 61.3046 335.767 121.914 61.2564 339.486 121.652 61.1373 
340.028 121.168 61.4068 340.167 121.141 61.5647 340.393 120.742 61.8339 
339.745 121.672 61.3461 334.85 123.97 60.6653 335.727 123.759 60.6974 
338.404 123.296 60.8148 339.126 122.428 61.2411 335.112 124.535 60.6705 
335.665 124.801 60.5115 335.597 124.092 60.8812 336.414 124.365 60.6541 
336.19 123.956 60.946 337.651 123.855 60.6961 329.915 126.31 60.5969 
330.955 126.027 60.6276 334.348 125.011 60.875 335.567 125.265 60.3838 
325.966 126.96 60.906 330.459 126.985 60.706 331.156 127.132 60.5286 
330.952 126.425 60.8742 332.01 126.761 60.6129 330.66 128.445 60.4851 
331.33 128.243 60.3325 329.593 129.817 60.3401 321.716 133.455 60.4964 
324.82 133.09 60.4117 320.263 134.903 60.9229 319.539 135.521 61.1796 
320.596 135.091 61.0236 319.714 135.532 61.25 316.239 136.37 62.1125 
317.144 136.305 61.7819 317.667 136.205 61.6363 318.88 135.901 61.3598 
319.271 135.769 61.3113 316.581 136.376 62.0151 317.218 136.321 61.8086 
317.77 136.195 61.7061 318.483 136.046 61.525 318.941 135.918 61.4178 
339.503 119.498 61.9038 340.21 118.921 62.391 340.675 119.618 62.198 
340.548 119.134 62.4813 340.721 119.545 62.3359 335.343 120.639 62.3348 
336.482 119.708 62.1405 340.307 119.956 61.8344 340.71 119.935 62.136 
331.472 121.911 62.1245 332.88 121.192 62.2978 333.989 121.409 62.1774 
334.771 121.291 62.0541 340.62 120.308 62.0291 331.269 122.801 61.7564 
330.4 122.716 62.3526 339.56 121.096 62.1271 340.099 120.816 62.0439 
329.016 123.544 61.9152 328.863 123.027 62.2979 329.626 123.171 62.2285 
339.484 121.885 61.5018 336.493 123.42 61.3085 331.014 126.036 61.292 
329.715 127.475 61.1515 319.006 132.252 62.1704 319.411 132.887 61.6954 
318.827 132.974 62.2386 318.201 133.427 62.4594 317.55 134.214 62.4109 
317.343 134.766 62.2762 317.036 135.047 62.2851 316.39 135.136 62.5273 
315.861 135.673 62.5447 319.836 134.946 61.6664 320.861 134.73 61.3142 
315.73 136.029 62.4609 318.255 135.738 61.8538 314.88 136.179 62.7369 
314.445 136.305 62.8693 315.831 136.281 62.3042 314.875 136.357 62.7101 
315.586 136.368 62.4271 338.081 117.395 62.9916 339.451 117.668 62.9235 
340.183 117.19 63.593 340.271 118.302 62.8721 340.305 117.832 63.3353 
330.974 119.426 63.257 340.413 118.724 62.9618 340.636 119.334 62.5439 
333.011 120.291 62.6936 333.974 120.002 62.7923 334.984 119.749 62.6264 
340.696 119.687 62.3682 327.939 121.096 63.2555 333.434 120.967 62.639 
334.053 121.687 62.3299 333.863 120.275 62.975 334.694 120.083 62.8886 
334.928 121.439 62.2508 335.961 121.012 62.5071 335.564 120.279 62.8715 
338.644 120.754 62.6095 340.611 120.029 62.2581 328.017 122.21 62.6977 
328.876 122.266 62.6108 330.009 122.028 62.582 332.663 121.365 62.8805 
329.382 122.937 62.6372 330.081 123.401 62.4342 329.912 122.385 62.8319 
331.179 122.902 62.5033 330.676 122.241 62.8489 328.813 123.477 62.9429 
331.891 123.57 62.2002 318.762 129.521 62.971 318.429 131.811 62.503 
315.284 132.814 63.2578 317.857 132.765 62.6384 318.658 132.459 62.6431 
318.054 133.019 62.7291 319.307 132.874 62.4938 313.981 134.14 63.2577 
317.027 133.576 62.6823 319.992 133.354 62.2736 316.074 134.372 62.7757 
317.28 134.876 62.3497 316.752 134.127 62.8015 316.225 134.717 62.8131 
318.007 134.361 62.3766 317.451 133.898 62.7072 315.24 135.145 62.8172 
316.238 135.263 62.6473 316.962 135.367 62.3552 314.339 135.733 62.9815 
315.734 136.077 62.4761 315.081 135.599 62.9184 314.699 135.961 62.951 
316.367 135.749 62.4203 311.985 136.195 63.6755 311.383 136.258 63.9514 
312.614 136.237 63.4958 314.939 136.239 62.7645 315.596 136.274 62.4705 
311.979 136.327 63.8278 313.724 136.316 63.2378 335.206 116.823 63.8735 
334.414 116.839 64.3726 337.778 116.27 63.6827 340.049 116.632 63.9806 
332.353 117.626 63.9116 332.773 116.954 64.2953 333.682 117.159 64.2197 
340.171 117.238 63.8157 329.458 118.676 64.408 340.229 117.98 63.5121 
327.987 119.211 64.342 328.791 119.199 64.2541 338.073 118.404 63.9984 
339.275 118.889 63.5194 340.174 118.527 63.3269 326.396 120.632 64.3266 
334.041 119.811 63.3976 335.047 119.85 63.2225 324.857 121.113 64.4018 
325.618 121.173 64.2512 333.153 120.532 63.15 323.474 122.564 64.4045 
323.237 123.186 64.213 322.89 123.538 64.1808 324.253 123.264 63.4212 
329.006 122.668 63.1957 322.191 123.642 64.49 321.485 124.499 64.3954 
321.247 125.14 64.1867 320.897 125.507 64.1472 320.178 125.648 64.4397 
319.503 126.48 64.3624 319.264 127.126 64.1673 318.918 127.494 64.1354 
318.209 127.624 64.4262 317.538 128.461 64.3602 317.3 129.115 64.1746 
316.956 129.483 64.1487 316.248 129.602 64.4371 315.579 130.443 64.379 
315.334 131.091 64.1911 314.984 131.436 64.1546 314.274 131.575 64.4409 
313.649 132.099 64.1666 318.988 131.72 63.1403 314.516 134.683 63.8764 
315.154 135.277 63.1778 309.298 135.961 64.6083 310.725 136.109 64.1493 
313.182 136.22 63.6439 314.423 136.063 63.1322 309.902 136.206 64.5878 
310.893 136.283 64.3381 312.555 136.308 63.7882 333.565 114.786 65.0917 
334.884 114.516 65.145 338.668 114.928 64.8087 334.919 115.631 64.5362 
339.334 115.553 64.664 339.849 116.165 64.2033 339.712 115.915 64.4098 
339.909 116.224 64.3064 330.181 116.582 64.7765 333.021 116.214 64.6191 
334.027 116.149 64.5949 340.007 116.631 64.193 333.385 116.895 64.6052 
334.067 117.434 64.3988 333.942 116.498 64.8307 335.037 117.262 64.5398 
334.68 116.582 64.8719 338.611 117.183 64.5092 339.994 116.991 64.1265 
327.894 118.424 64.6674 329.02 118.052 64.6238 332.618 117.316 64.8583 
323.967 119.129 65.2073 328.443 118.966 64.6005 329.142 119.351 64.4086 
328.94 118.457 64.801 330.168 118.92 64.5318 329.655 118.325 64.8628 
324.848 120.326 64.6769 325.992 119.973 64.59 325.365 120.879 64.6144 
326.033 121.31 64.3788 325.936 120.277 64.7867 327.159 120.739 64.4093 
326.709 120.087 64.7597 322.951 121.817 64.7028 324.788 121.31 64.8306 
321.933 122.68 64.8004 323.186 123.336 64.3544 322.804 122.34 64.8202 
322.116 122.923 64.9342 324.115 122.725 64.4667 323.586 122.129 64.813 
320.952 123.73 64.7415 321.967 123.815 64.683 324.628 123.569 64.206 
317.608 125.363 65.0405 319.908 124.684 64.7619 321.148 125.306 64.3201 
320.628 124.382 64.8222 320.032 125.09 64.7942 321.938 124.703 64.4189 
321.36 124.129 64.7619 318.975 125.709 64.7034 319.968 125.826 64.6121 
320.712 126.038 64.3549 317.954 126.65 64.7409 319.162 127.287 64.2956 
318.672 126.337 64.786 318.071 127.048 64.7693 319.94 126.682 64.3782 
319.4 126.095 64.7074 317.03 127.673 64.7021 317.997 127.793 64.5919 
318.727 128.012 64.3297 316.013 128.604 64.7524 317.193 129.271 64.2922 
316.719 128.301 64.7833 316.114 129.02 64.7798 317.962 128.657 64.3578 
315.077 129.618 64.7157 313.994 130.58 64.7417 315.234 131.279 64.3178 
314.809 130.269 64.7945 314.131 130.981 64.9738 315.997 130.661 64.3671 
315.44 130.069 64.7299 314.061 132.007 64.8074 314.831 132.111 64.424 
308.753 134.024 64.9832 307.496 135.926 65.3896 307.027 135.769 65.6249 
307.253 135.973 65.5868 307.953 136.01 65.2121 310.667 136.087 64.8678 
311.224 136.186 64.5157 310.522 136.217 64.7351 307.667 136.071 65.4287 
308.19 136.107 65.2302 308.907 136.149 65.0883 333.719 113.067 66.2106 
334.895 113.779 65.8958 336.387 114.4 65.2262 336.023 114.221 65.5345 
338.171 114.57 65.1387 338.66 114.78 64.9774 338.488 114.653 65.0828 
338.659 114.807 65.0581 330.231 114.761 65.7276 329.349 114.702 66.3287 
327.68 114.987 66.3139 328.575 115.104 66.2175 339.518 115.867 64.6512 
339.705 115.929 64.514 326.179 116.423 65.9724 325.44 116.581 66.4088 
333.448 115.427 65.843 334.072 116.028 65.3532 339.457 116.144 64.6461 
324.282 117.614 65.871 323.968 117.048 66.2777 324.77 117.095 66.2471 
333.046 116.554 65.1632 327.232 117.946 65.8201 328.969 118.06 65.2218 
320.247 120.62 66.2753 318.937 121.59 65.9601 318.773 121.065 66.2763 
319.518 121.162 66.1957 324.238 120.464 65.5473 322.754 121.94 65.2728 
316.346 123.178 66.1241 315.542 124.431 66.3907 319.507 123.522 65.9226 
315.346 125.077 66.2152 315.03 125.429 66.1867 316.389 125.109 65.5226 
314.342 125.593 66.4586 313.043 127.255 66.1967 314.575 126.989 65.5785 
312.776 127.984 66.1526 316.818 127.79 65.0869 312.015 128.466 66.3101 
311.825 129.834 65.4338 314.636 129.903 65.2291 310.575 133.883 66.1069 
[...]
POINT_DATA 1972
COLOR_SCALARS scalars 3
0.00392157 0.576471 0.6 0.00392157 0.576471 0.6 0.00392157 0.576471 0.6 
0.00392157 0.576471 0.6 0.00392157 0.576471 0.6 
0.00392157 0.576471 0.6 0.00392157 0.576471 0.6 
0.00392157 0.576471 0.6 0.00392157 0.576471 0.6 
0.00392157 0.576471 0.6 0.00392157 0.576471 0.6 
0.00392157 0.576471 0.6 0.00392157 0.576471 0.6 
0.00392157 0.576471 0.6 0.00392157 0.576471 0.6 
0.00392157 0.576471 0.6 0.00392157 0.576471 0.6 
0.00392157 0.576471 0.6 0.00392157 0.576471 0.6 
0.00392157 0.576471 0.6 0.00392157 0.576471 0.6 
0.00392157 0.576471 0.6 0.00392157 0.576471 0.6 
0.00392157 0.576471 0.6 0.00392157 0.576471 0.6 
0.00392157 0.576471 0.6 0.00392157 0.576471 0.6 
0.00392157 0.576471 0.6 0.00392157 0.576471 0.6 
0.00392157 0.576471 0.6 0.00392157 0.576471 0.6 
0.00392157 0.576471 0.6 0.00392157 0.576471 0.6 
0.00392157 0.576471 0.6 0.00392157 0.576471 0.6 
0.00392157 0.576471 0.6 0.00392157 0.576471 0.6 
0.00392157 0.576471 0.6 0.00392157 0.576471 0.6 
0.00392157 0.576471 0.6 0.00392157 0.576471 0.6 
0.00392157 0.576471 0.6 0.00392157 0.576471 0.6 
0.00392157 0.576471 0.6 0.00392157 0.576471 0.6 
0.00392157 0.576471 0.6 0.00392157 0.576471 0.6 
0.00392157 0.576471 0.6 0.00392157 0.576471 0.6 
0.00392157 0.576471 0.6 0.00392157 0.576471 0.6 
0.00392157 0.576471 0.6 0.00392157 0.576471 0.6 
0.00392157 0.576471 0.6 0.00392157 0.576471 0.6 
0.00392157 0.576471 0.6 0.00392157 0.576471 0.6 
0.00392157 0.576471 0.6 0.00392157 0.576471 0.6 
0.00392157 0.576471 0.6 0.00392157 0.576471 0.6 
0.00392157 0.576471 0.6 0.00392157 0.576471 0.6 
0.00392157 0.576471 0.6 0.00392157 0.576471 0.6 
0.00392157 0.576471 0.6 0.00392157 0.576471 0.6 
0.00392157 0.576471 0.6 0.00392157 0.576471 0.6 
0.00392157 0.576471 0.6 0.00392157 0.576471 0.6 
0.00392157 0.576471 0.6 0.00392157 0.576471 0.6 
0.00392157 0.576471 0.6 0.00392157 0.576471 0.6 
0.00392157 0.576471 0.6 0.00392157 0.576471 0.6 
0.00392157 0.576471 0.6 0.00392157 0.576471 0.6 
0.00392157 0.576471 0.6 0.00392157 0.576471 0.6 
0.00392157 0.576471 0.6 0.00392157 0.576471 0.6 
0.00392157 0.576471 0.6 0.00392157 0.576471 0.6 
0.00392157 0.576471 0.6 0.00392157 0.576471 0.6 
0.00392157 0.576471 0.6 0.00392157 0.576471 0.6 
0.00392157 0.576471 0.6 0.00392157 0.576471 0.6 
0.00392157 0.576471 0.6 0.00392157 0.576471 0.6 
0.00392157 0.576471 0.6 0.00392157 0.576471 0.6 
0.00392157 0.576471 0.6 0.00392157 0.576471 0.6 
0.00392157 0.576471 0.6 0.00392157 0.576471 0.6 
0.00392157 0.576471 0.6 0.00392157 0.576471 0.6 
0.00392157 0.576471 0.6 0.00392157 0.576471 0.6 
0.00392157 0.576471 0.6 0.00392157 0.576471 0.6 
0.00392157 0.576471 0.6 0.00392157 0.576471 0.6 
0.00392157 0.576471 0.6 0.00392157 0.576471 0.6 
0.00392157 0.576471 0.6 0.00392157 0.576471 0.6 
0.00392157 0.576471 0.6 0.00392157 0.576471 0.6 
0.00392157 0.576471 0.6 0.00392157 0.576471 0.6 
0.00392157 0.576471 0.6 0.00392157 0.576471 0.6 
0.00392157 0.576471 0.6 0.00392157 0.576471 0.6 
0.00392157 0.576471 0.6 0.00392157 0.576471 0.6 
0.00392157 0.576471 0.6 0.00392157 0.576471 0.6 
0.00392157 0.576471 0.6 0.00392157 0.576471 0.6 
0.00392157 0.576471 0.6 0.00392157 0.576471 0.6 
0.00392157 0.576471 0.6 0.00392157 0.576471 0.6 
0.00392157 0.576471 0.6 0.00392157 0.576471 0.6 
0.00392157 0.576471 0.6 0.00392157 0.576471 0.6 
0.00392157 0.576471 0.6 0.00392157 0.576471 0.6 
0.00392157 0.576471 0.6 0.00392157 0.576471 0.6 
0.00392157 0.576471 0.6 0.00392157 0.576471 0.6 
0.00392157 0.576471 0.6 0.00392157 0.576471 0.6 
0.00392157 0.576471 0.6 0.00392157 0.576471 0.6 
0.00392157 0.576471 0.6 0.00392157 0.576471 0.6 
0.00392157 0.576471 0.6 0.00392157 0.576471 0.6 
0.00392157 0.576471 0.6 0.00392157 0.576471 0.6 
0.00392157 0.576471 0.6 0.00392157 0.576471 0.6 
0.00392157 0.576471 0.6 0.00392157 0.576471 0.6 
0.00392157 0.576471 0.6 0.00392157 0.576471 0.6 
0.00392157 0.576471 0.6 0.00392157 0.576471 0.6 
0.00392157 0.576471 0.6 0.00392157 0.576471 0.6 
0.00392157 0.576471 0.6 0.00392157 0.576471 0.6 
0.00392157 0.576471 0.6 0.00392157 0.576471 0.6 
0.00392157 0.576471 0.6 0.00392157 0.576471 0.6 
0.00392157 0.576471 0.6 0.00392157 0.576471 0.6 
0.00392157 0.576471 0.6 0.00392157 0.576471 0.6 
0.00392157 0.576471 0.6 0.00392157 0.576471 0.6 
0.00392157 0.576471 0.6 0.00392157 0.576471 0.6 
0.00392157 0.576471 0.6 0.00392157 0.576471 0.6 
0.00392157 0.576471 0.6 0.00392157 0.576471 0.6 
0.00392157 0.576471 0.6 0.00392157 0.576471 0.6 
0.00392157 0.576471 0.6 0.00392157 0.576471 0.6 
0.00392157 0.576471 0.6 0.00392157 0.576471 0.6 
0.00392157 0.576471 0.6 0.00392157 0.576471 0.6 
0.00392157 0.576471 0.6 0.00392157 0.576471 0.6 
0.00392157 0.576471 0.6 0.00392157 0.576471 0.6 
0.00392157 0.576471 0.6 0.00392157 0.576471 0.6 
0.00392157 0.576471 0.6 0.00392157 0.576471 0.6 
0.00392157 0.576471 0.6 0.00392157 0.576471 0.6 
0.00392157 0.576471 0.6 0.00392157 0.576471 0.6 
0.00392157 0.576471 0.6 0.00392157 0.576471 0.6 
0.00392157 0.576471 0.6 0.00392157 0.576471 0.6 
0.00392157 0.576471 0.6 0.00392157 0.576471 0.6 
0.00392157 0.576471 0.6 0.00392157 0.576471 0.6 
0.00392157 0.576471 0.6 0.00392157 0.576471 0.6 
0.00392157 0.576471 0.6 0.00392157 0.576471 0.6 
0.00392157 0.576471 0.6 0.00392157 0.576471 0.6 
0.00392157 0.576471 0.6 0.00392157 0.576471 0.6 
0.00392157 0.576471 0.6 0.00392157 0.576471 0.6 
0.00392157 0.576471 0.6 0.00392157 0.576471 0.6 
0.00392157 0.576471 0.6 0.00392157 0.576471 0.6 
0.00392157 0.576471 0.6 0.00392157 0.576471 0.6 
0.00392157 0.576471 0.6 0.00392157 0.576471 0.6 
0.00392157 0.576471 0.6 0.00392157 0.576471 0.6 
0.00392157 0.576471 0.6 0.00392157 0.576471 0.6 
0.00392157 0.576471 0.6 0.00392157 0.576471 0.6 
0.00392157 0.576471 0.6 0.00392157 0.576471 0.6 
0.00392157 0.576471 0.6 0.00392157 0.576471 0.6 
0.00392157 0.576471 0.6 0.00392157 0.576471 0.6 
0.00392157 0.576471 0.6 0.00392157 0.576471 0.6 
0.00392157 0.576471 0.6 0.00392157 0.576471 0.6 
0.00392157 0.576471 0.6 0.00392157 0.576471 0.6 
0.00392157 0.576471 0.6 0.00392157 0.576471 0.6 
0.00392157 0.576471 0.6 0.00392157 0.576471 0.6 
0.00392157 0.576471 0.6 0.00392157 0.576471 0.6 
0.00392157 0.576471 0.6 0.00392157 0.576471 0.6 
0.00392157 0.576471 0.6 0.00392157 0.576471 0.6 
0.00392157 0.576471 0.6 0.00392157 0.576471 0.6 
0.00392157 0.576471 0.6 0.00392157 0.576471 0.6 
0.00392157 0.576471 0.6 0.00392157 0.576471 0.6 
0.00392157 0.576471 0.6 0.00392157 0.576471 0.6 
0.00392157 0.576471 0.6 0.00392157 0.576471 0.6 
0.00392157 0.576471 0.6 0.00392157 0.576471 0.6 
0.00392157 0.576471 0.6 0.00392157 0.576471 0.6 
0.00392157 0.576471 0.6 0.00392157 0.576471 0.6 
0.00392157 0.576471 0.6 0.00392157 0.576471 0.6 
0.00392157 0.576471 0.6 0.00392157 0.576471 0.6 
0.00392157 0.576471 0.6 0.00392157 0.576471 0.6 
0.00392157 0.576471 0.6 0.00392157 0.576471 0.6 
0.00392157 0.576471 0.6 0.00392157 0.576471 0.6 
0.00392157 0.576471 0.6 0.00392157 0.576471 0.6 
0.00392157 0.576471 0.6 0.00392157 0.576471 0.6 
0.00392157 0.576471 0.6 0.00392157 0.576471 0.6 
0.00392157 0.576471 0.6 0.00392157 0.576471 0.6 
0.00392157 0.576471 0.6 0.00392157 0.576471 0.6 
0.00392157 0.576471 0.6 0.00392157 0.576471 0.6 
0.00392157 0.576471 0.6 0.00392157 0.576471 0.6 
0.00392157 0.576471 0.6 0.00392157 0.576471 0.6 
0.00392157 0.576471 0.6 0.00392157 0.576471 0.6 
0.00392157 0.576471 0.6 0.00392157 0.576471 0.6 
0.00392157 0.576471 0.6 0.00392157 0.576471 0.6 
0.00392157 0.576471 0.6 0.00392157 0.576471 0.6 
0.00392157 0.576471 0.6 0.00392157 0.576471 0.6 
0.00392157 0.576471 0.6 0.00392157 0.576471 0.6 
0.00392157 0.576471 0.6 0.00392157 0.576471 0.6 
0.00392157 0.576471 0.6 0.00392157 0.576471 0.6 
0.00392157 0.576471 0.6 0.00392157 0.576471 0.6 
0.00392157 0.576471 0.6 0.00392157 0.576471 0.6 
0.00392157 0.576471 0.6 0.00392157 0.576471 0.6 
0.00392157 0.576471 0.6 0.00392157 0.576471 0.6 
0.00392157 0.576471 0.6 0.00392157 0.576471 0.6 
0.00392157 0.576471 0.6 0.00392157 0.576471 0.6 
0.00392157 0.576471 0.6 0.00392157 0.576471 0.6 
0.00392157 0.576471 0.6 0.00392157 0.576471 0.6 
0.00392157 0.576471 0.6 0.00392157 0.576471 0.6 
0.00392157 0.576471 0.6 0.00392157 0.576471 0.6 
0.00392157 0.576471 0.6 0.00392157 0.576471 0.6 
0.00392157 0.576471 0.6 0.00392157 0.576471 0.6 
0.00392157 0.576471 0.6 0.00392157 0.576471 0.6 
0.00392157 0.576471 0.6 0.00392157 0.576471 0.6 
0.00392157 0.576471 0.6 0.00392157 0.576471 0.6 
0.00392157 0.576471 0.6 0.00392157 0.576471 0.6 
0.00392157 0.576471 0.6 0.00392157 0.576471 0.6 
0.00392157 0.576471 0.6 0.00392157 0.576471 0.6 
0.00392157 0.576471 0.6 0.00392157 0.576471 0.6 
0.00392157 0.576471 0.6 0.00392157 0.576471 0.6 
0.00392157 0.576471 0.6 0.00392157 0.576471 0.6 
0.00392157 0.576471 0.6 0.00392157 0.576471 0.6 
0.00392157 0.576471 0.6 0.00392157 0.576471 0.6 
0.00392157 0.576471 0.6 0.00392157 0.576471 0.6 
0.00392157 0.576471 0.6 0.00392157 0.576471 0.6 
0.00392157 0.576471 0.6 0.00392157 0.576471 0.6 
0.00392157 0.576471 0.6 0.00392157 0.576471 0.6 
0.00392157 0.576471 0.6 0.00392157 0.576471 0.6 
0.00392157 0.576471 0.6 0.00392157 0.576471 0.6 
0.00392157 0.576471 0.6 0.00392157 0.576471 0.6 
0.00392157 0.576471 0.6 0.00392157 0.576471 0.6 
0.00392157 0.576471 0.6 0.00392157 0.576471 0.6 
0.00392157 0.576471 0.6 0.00392157 0.576471 0.6 
0.00392157 0.576471 0.6 0.00392157 0.576471 0.6 
0.00392157 0.576471 0.6 0.00392157 0.576471 0.6 
0.00392157 0.576471 0.6 0.00392157 0.576471 0.6 
0.00392157 0.576471 0.6 0.00392157 0.576471 0.6 
0.00392157 0.576471 0.6 0.00392157 0.576471 0.6 
0.00392157 0.576471 0.6 0.00392157 0.576471 0.6 
0.00392157 0.576471 0.6 0.00392157 0.576471 0.6 
0.00392157 0.576471 0.6 0.00392157 0.576471 0.6 
0.00392157 0.576471 0.6 0.00392157 0.576471 0.6 
0.00392157 0.576471 0.6 0.00392157 0.576471 0.6 
0.00392157 0.576471 0.6 0.00392157 0.576471 0.6 
0.00392157 0.576471 0.6 0.00392157 0.576471 0.6 
0.00392157 0.576471 0.6 0.00392157 0.576471 0.6 
0.00392157 0.576471 0.6 0.00392157 0.576471 0.6 
0.00392157 0.576471 0.6 0.00392157 0.576471 0.6 
0.00392157 0.576471 0.6 0.00392157 0.576471 0.6 
0.00392157 0.576471 0.6 0.00392157 0.576471 0.6 
0.00392157 0.576471 0.6 0.00392157 0.576471 0.6 
0.00392157 0.576471 0.6 0.00392157 0.576471 0.6 
0.00392157 0.576471 0.6 0.00392157 0.576471 0.6 
0.00392157 0.576471 0.6 0.00392157 0.576471 0.6 
0.00392157 0.576471 0.6 0.00392157 0.576471 0.6 
0.00392157 0.576471 0.6 0.00392157 0.576471 0.6 
0.00392157 0.576471 0.6 0.00392157 0.576471 0.6 
0.00392157 0.576471 0.6 0.00392157 0.576471 0.6 
0.00392157 0.576471 0.6 0.00392157 0.576471 0.6 
0.00392157 0.576471 0.6 0.00392157 0.576471 0.6 
0.00392157 0.576471 0.6 0.00392157 0.576471 0.6 
0.00392157 0.576471 0.6 0.00392157 0.576471 0.6 
0.00392157 0.576471 0.6 0.00392157 0.576471 0.6 
0.00392157 0.576471 0.6 0.00392157 0.576471 0.6 
0.00392157 0.576471 0.6 0.00392157 0.576471 0.6 
0.00392157 0.576471 0.6 0.00392157 0.576471 0.6 
0.00392157 0.576471 0.6 0.00392157 0.576471 0.6 
0.00392157 0.576471 0.6 0.00392157 0.576471 0.6 
0.00392157 0.576471 0.6 0.00392157 0.576471 0.6 
0.00392157 0.576471 0.6 0.00392157 0.576471 0.6 
0.00392157 0.576471 0.6 0.00392157 0.576471 0.6 
0.00392157 0.576471 0.6 0.00392157 0.576471 0.6 
0.00392157 0.576471 0.6 0.00392157 0.576471 0.6 
0.00392157 0.576471 0.6 0.00392157 0.576471 0.6 
0.00392157 0.576471 0.6 0.00392157 0.576471 0.6 
0.00392157 0.576471 0.6 0.00392157 0.576471 0.6 
0.00392157 0.576471 0.6 0.00392157 0.576471 0.6 
0.00392157 0.576471 0.6 0.00392157 0.576471 0.6 
0.00392157 0.576471 0.6 0.00392157 0.576471 0.6 
0.00392157 0.576471 0.6 0.00392157 0.576471 0.6 
0.00392157 0.576471 0.6 0.00392157 0.576471 0.6 
0.00392157 0.576471 0.6 0.00392157 0.576471 0.6 
0.00392157 0.576471 0.6 0.00392157 0.576471 0.6 
0.00392157 0.576471 0.6 0.00392157 0.576471 0.6 
0.00392157 0.576471 0.6 0.00392157 0.576471 0.6 
0.00392157 0.576471 0.6 0.00392157 0.576471 0.6 
0.00392157 0.576471 0.6 0.00392157 0.576471 0.6 
0.00392157 0.576471 0.6 0.00392157 0.576471 0.6 
0.00392157 0.576471 0.6 0.00392157 0.576471 0.6 
0.00392157 0.576471 0.6 0.00392157 0.576471 0.6 
0.00392157 0.576471 0.6 0.00392157 0.576471 0.6 
0.00392157 0.576471 0.6 0.00392157 0.576471 0.6 
0.00392157 0.576471 0.6 0.00392157 0.576471 0.6 
0.00392157 0.576471 0.6 0.00392157 0.576471 0.6 
0.00392157 0.576471 0.6 0.00392157 0.576471 0.6 
0.00392157 0.576471 0.6 0.00392157 0.576471 0.6 
0.00392157 0.576471 0.6 0.00392157 0.576471 0.6 
0.00392157 0.576471 0.6 0.00392157 0.576471 0.6 
0.00392157 0.576471 0.6 0.00392157 0.576471 0.6 
0.00392157 0.576471 0.6 0.00392157 0.576471 0.6 
0.00392157 0.576471 0.6 0.00392157 0.576471 0.6 
0.00392157 0.576471 0.6 0.00392157 0.576471 0.6 
0.00392157 0.576471 0.6 0.00392157 0.576471 0.6 
0.00392157 0.576471 0.6 0.00392157 0.576471 0.6 
0.00392157 0.576471 0.6 0.00392157 0.576471 0.6 
0.00392157 0.576471 0.6 0.00392157 0.576471 0.6 
0.00392157 0.576471 0.6 0.00392157 0.576471 0.6 
0.00392157 0.576471 0.6 0.00392157 0.576471 0.6 
0.00392157 0.576471 0.6 0.00392157 0.576471 0.6 
0.00392157 0.576471 0.6 0.00392157 0.576471 0.6 
0.00392157 0.576471 0.6 0.00392157 0.576471 0.6 
0.00392157 0.576471 0.6 0.00392157 0.576471 0.6 
0.00392157 0.576471 0.6 0.00392157 0.576471 0.6 
0.00392157 0.576471 0.6 0.00392157 0.576471 0.6 
0.00392157 0.576471 0.6 0.00392157 0.576471 0.6 
0.00392157 0.576471 0.6 0.00392157 0.576471 0.6 
0.00392157 0.576471 0.6 0.00392157 0.576471 0.6 
0.00392157 0.576471 0.6 0.00392157 0.576471 0.6 
0.00392157 0.576471 0.6 0.00392157 0.576471 0.6 
0.00392157 0.576471 0.6 0.00392157 0.576471 0.6 
0.00392157 0.576471 0.6 0.00392157 0.576471 0.6 
0.00392157 0.576471 0.6 0.00392157 0.576471 0.6 
0.00392157 0.576471 0.6 0.00392157 0.576471 0.6 
0.00392157 0.576471 0.6 0.00392157 0.576471 0.6 
0.00392157 0.576471 0.6 0.00392157 0.576471 0.6 
0.00392157 0.576471 0.6 0.00392157 0.576471 0.6 
0.00392157 0.576471 0.6 0.00392157 0.576471 0.6 
0.00392157 0.576471 0.6 0.00392157 0.576471 0.6 
0.00392157 0.576471 0.6 0.00392157 0.576471 0.6 
0.00392157 0.576471 0.6 0.00392157 0.576471 0.6 
0.00392157 0.576471 0.6 0.00392157 0.576471 0.6 
0.00392157 0.576471 0.6 0.00392157 0.576471 0.6 
0.00392157 0.576471 0.6 0.00392157 0.576471 0.6 
0.00392157 0.576471 0.6 0.00392157 0.576471 0.6 
0.00392157 0.576471 0.6 0.00392157 0.576471 0.6 
0.00392157 0.576471 0.6 0.00392157 0.576471 0.6 
0.00392157 0.576471 0.6 0.00392157 0.576471 0.6 
0.00392157 0.576471 0.6 0.00392157 0.576471 0.6 
0.00392157 0.576471 0.6 0.00392157 0.576471 0.6 
0.00392157 0.576471 0.6 0.00392157 0.576471 0.6 
0.00392157 0.576471 0.6 0.00392157 0.576471 0.6 
0.00392157 0.576471 0.6 0.00392157 0.576471 0.6 
0.00392157 0.576471 0.6 0.00392157 0.576471 0.6 
0.00392157 0.576471 0.6 0.00392157 0.576471 0.6 
0.00392157 0.576471 0.6 0.00392157 0.576471 0.6 
0.00392157 0.576471 0.6 0.00392157 0.576471 0.6 
0.00392157 0.576471 0.6 0.00392157 0.576471 0.6 
0.00392157 0.576471 0.6 0.00392157 0.576471 0.6 
0.00392157 0.576471 0.6 0.00392157 0.576471 0.6 
0.00392157 0.576471 0.6 0.00392157 0.576471 0.6 
0.00392157 0.576471 0.6 0.00392157 0.576471 0.6 
0.00392157 0.576471 0.6 0.00392157 0.576471 0.6 
0.00392157 0.576471 0.6 0.00392157 0.576471 0.6 
0.00392157 0.576471 0.6 0.00392157 0.576471 0.6 
0.00392157 0.576471 0.6 0.00392157 0.576471 0.6 
0.00392157 0.576471 0.6 0.00392157 0.576471 0.6 
0.00392157 0.576471 0.6 0.00392157 0.576471 0.6 
0.00392157 0.576471 0.6 0.00392157 0.576471 0.6 
0.00392157 0.576471 0.6 0.00392157 0.576471 0.6 
0.00392157 0.576471 0.6 0.00392157 0.576471 0.6 
0.00392157 0.576471 0.6 0.00392157 0.576471 0.6 
0.00392157 0.576471 0.6 0.00392157 0.576471 0.6 
0.00392157 0.576471 0.6 0.00392157 0.576471 0.6 
0.00392157 0.576471 0.6 0.00392157 0.576471 0.6 
0.00392157 0.576471 0.6 0.00392157 0.576471 0.6 
0.00392157 0.576471 0.6 0.00392157 0.576471 0.6 
0.00392157 0.576471 0.6 0.00392157 0.576471 0.6 
0.00392157 0.576471 0.6 0.00392157 0.576471 0.6 
0.00392157 0.576471 0.6 0.00392157 0.576471 0.6 
0.00392157 0.576471 0.6 0.00392157 0.576471 0.6 
0.00392157 0.576471 0.6 0.00392157 0.576471 0.6 
0.00392157 0.576471 0.6 0.00392157 0.576471 0.6 
0.00392157 0.576471 0.6 0.00392157 0.576471 0.6 
0.00392157 0.576471 0.6 0.00392157 0.576471 0.6 
0.00392157 0.576471 0.6 0.00392157 0.576471 0.6 
0.00392157 0.576471 0.6 0.00392157 0.576471 0.6 
0.00392157 0.576471 0.6 0.00392157 0.576471 0.6 
0.00392157 0.576471 0.6 0.00392157 0.576471 0.6 
0.00392157 0.576471 0.6 0.00392157 0.576471 0.6 
0.00392157 0.576471 0.6 0.00392157 0.576471 0.6 
0.00392157 0.576471 0.6 0.00392157 0.576471 0.6 
0.00392157 0.576471 0.6 0.00392157 0.576471 0.6 
0.00392157 0.576471 0.6 0.00392157 0.576471 0.6 
0.00392157 0.576471 0.6 0.00392157 0.576471 0.6 
0.00392157 0.576471 0.6 0.00392157 0.576471 0.6 
0.00392157 0.576471 0.6 0.00392157 0.576471 0.6 
0.00392157 0.576471 0.6 0.00392157 0.576471 0.6 
0.00392157 0.576471 0.6 0.00392157 0.576471 0.6 
0.00392157 0.576471 0.6 0.00392157 0.576471 0.6 
0.00392157 0.576471 0.6 0.00392157 0.576471 0.6 
0.00392157 0.576471 0.6 0.00392157 0.576471 0.6 
0.00392157 0.576471 0.6 0.00392157 0.576471 0.6 
0.00392157 0.576471 0.6 0.00392157 0.576471 0.6 
0.00392157 0.576471 0.6 0.00392157 0.576471 0.6 
0.00392157 0.576471 0.6 0.00392157 0.576471 0.6 
0.00392157 0.576471 0.6 0.00392157 0.576471 0.6 
0.00392157 0.576471 0.6 0.00392157 0.576471 0.6 
0.00392157 0.576471 0.6 0.00392157 0.576471 0.6 
0.00392157 0.576471 0.6 0.00392157 0.576471 0.6 
0.00392157 0.576471 0.6 0.00392157 0.576471 0.6 
0.00392157 0.576471 0.6 0.00392157 0.576471 0.6 
0.00392157 0.576471 0.6 0.00392157 0.576471 0.6 
0.00392157 0.576471 0.6 0.00392157 0.576471 0.6 
0.00392157 0.576471 0.6 0.00392157 0.576471 0.6 
0.00392157 0.576471 0.6 0.00392157 0.576471 0.6 
0.00392157 0.576471 0.6 0.00392157 0.576471 0.6 
0.00392157 0.576471 0.6 0.00392157 0.576471 0.6 
0.00392157 0.576471 0.6 0.00392157 0.576471 0.6 
0.00392157 0.576471 0.6 0.00392157 0.576471 0.6 
0.00392157 0.576471 0.6 0.00392157 0.576471 0.6 
0.00392157 0.576471 0.6 0.00392157 0.576471 0.6 
0.00392157 0.576471 0.6 0.00392157 0.576471 0.6 
0.00392157 0.576471 0.6 0.00392157 0.576471 0.6 
0.00392157 0.576471 0.6 0.00392157 0.576471 0.6 
0.00392157 0.576471 0.6 0.00392157 0.576471 0.6 
0.00392157 0.576471 0.6 0.00392157 0.576471 0.6 
0.00392157 0.576471 0.6 0.00392157 0.576471 0.6 
0.00392157 0.576471 0.6 0.00392157 0.576471 0.6 
0.00392157 0.576471 0.6 0.00392157 0.576471 0.6 
0.00392157 0.576471 0.6 0.00392157 0.576471 0.6 
0.00392157 0.576471 0.6 0.00392157 0.576471 0.6 
0.00392157 0.576471 0.6 0.00392157 0.576471 0.6 
0.00392157 0.576471 0.6 0.00392157 0.576471 0.6 
0.00392157 0.576471 0.6 0.00392157 0.576471 0.6 
0.00392157 0.576471 0.6 0.00392157 0.576471 0.6 
0.00392157 0.576471 0.6 0.00392157 0.576471 0.6 
0.00392157 0.576471 0.6 0.00392157 0.576471 0.6 
0.00392157 0.576471 0.6 0.00392157 0.576471 0.6 
0.00392157 0.576471 0.6 0.00392157 0.576471 0.6 
0.00392157 0.576471 0.6 0.00392157 0.576471 0.6 
0.00392157 0.576471 0.6 0.00392157 0.576471 0.6 
0.00392157 0.576471 0.6 0.00392157 0.576471 0.6 
0.00392157 0.576471 0.6 0.00392157 0.576471 0.6 
0.00392157 0.576471 0.6 0.00392157 0.576471 0.6 
0.00392157 0.576471 0.6 0.00392157 0.576471 0.6 
0.00392157 0.576471 0.6 0.00392157 0.576471 0.6 
0.00392157 0.576471 0.6 0.00392157 0.576471 0.6 
0.00392157 0.576471 0.6 0.00392157 0.576471 0.6 
0.00392157 0.576471 0.6 0.00392157 0.576471 0.6 
0.00392157 0.576471 0.6 0.00392157 0.576471 0.6 
0.00392157 0.576471 0.6 0.00392157 0.576471 0.6 
0.00392157 0.576471 0.6 0.00392157 0.576471 0.6 
0.00392157 0.576471 0.6 0.00392157 0.576471 0.6 
0.00392157 0.576471 0.6 0.00392157 0.576471 0.6 
0.00392157 0.576471 0.6 0.00392157 0.576471 0.6 
0.00392157 0.576471 0.6 0.00392157 0.576471 0.6 
0.00392157 0.576471 0.6 0.00392157 0.576471 0.6 
0.00392157 0.576471 0.6 0.00392157 0.576471 0.6 
0.00392157 0.576471 0.6 0.00392157 0.576471 0.6 
0.00392157 0.576471 0.6 0.00392157 0.576471 0.6 
0.00392157 0.576471 0.6 0.00392157 0.576471 0.6 
0.00392157 0.576471 0.6 0.00392157 0.576471 0.6 