# vtk DataFile Version 4.2
vtk output
ASCII
DATASET POLYDATA
POINTS 860 float
349.227 120.439 56.7793 349.218 120.352 56.7626 349.259 120.436 56.7257 
347.88 118.765 57.4979 348.305 118.782 57.4458 348.832 119.572 57.1361 
348.836 119.877 57.0765 348.999 119.827 57.0904 348.748 120.129 57.2583 
348.95 120.277 57.4255 349.164 120.392 56.9395 349.239 120.422 56.7974 
346.164 117.231 58.1004 345.805 117.224 58.302 347.355 116.774 57.9611 
348.491 117.5 57.885 348.553 117.396 57.9987 346.145 117.949 58.2689 
346.576 117.853 57.9779 348.524 117.875 57.7939 348.697 118.656 57.7242 
349.04 119.933 57.3276 345.219 115.565 58.8009 346.932 115.52 58.4305 
346.99 115.064 58.6856 344.675 116.193 59.2714 347.3 115.496 58.5317 
347.681 115.742 58.6106 345.766 117.554 58.4311 346.119 118.387 58.6021 
348.234 120.77 58.7271 348.732 120.527 58.6954 348.554 120.781 58.6572 
344.198 113.638 59.7774 345.376 114.218 59.1367 343.846 114.633 59.9463 
347.75 114.896 59.4653 344.548 116.696 59.7063 344.766 117.35 59.8559 
345.187 117.811 59.4658 348.813 118.989 58.9265 347.471 120.296 58.9145 
348.464 120.998 58.9416 348.58 120.929 59.0764 348.503 121.149 59.1242 
342.565 112.263 61.1012 343.181 111.709 60.7771 343.871 111.682 60.5214 
343.83 115.441 60.261 348.209 115.654 59.8038 344.06 116.191 60.3814 
348.419 116.421 59.772 348.558 117.184 59.7884 344.65 117.409 60.4359 
345.646 118.608 59.7279 348.591 118.195 59.8992 347.861 120.704 59.3502 
347.854 120.64 59.5828 348.04 120.845 59.4328 348.484 121.242 59.2215 
348.532 121.201 59.2326 348.502 121.269 59.2809 342.082 110.48 61.6414 
345.756 110.887 61.2391 344.818 111.203 60.6865 342.674 113.449 61.3772 
343.193 114.777 61.3056 343.528 115.534 61.492 345.24 118.162 60.6439 
348.505 119.897 59.8687 346.51 119.335 60.2765 348.366 120.261 59.8755 
347.697 120.297 59.9052 348.388 120.994 59.4563 340.298 108.43 63.009 
340.427 107.81 63.0078 341.668 108.419 62.3167 343.503 108.408 62.1357 
344.291 108.594 62.2528 346.035 109.679 62.7641 341.165 110.964 62.5511 
347.277 112.594 61.7802 342.48 113.587 62.0592 343.451 115.336 62.0828 
343.88 116.182 61.351 347.548 117.419 61.6759 345.091 117.93 61.0112 
345.171 117.845 61.2823 348.05 118.841 60.7056 347.266 119.772 60.2757 
348.154 119.644 60.4533 340.043 106.513 63.5064 339.532 105.926 63.9131 
341.045 105.851 63.455 342.262 107.239 62.669 344.146 106.678 63.4142 
345.094 108.126 63.1546 339.805 108.871 63.5269 346.969 111.943 62.9046 
347.508 115.952 62.2193 344.101 116.018 62.3694 344.531 116.301 62.5296 
344.929 116.866 62.2391 345.535 117.382 62.032 346.815 116.845 62.4509 
347.143 117.257 62.0616 346.744 118.041 61.6551 348.245 119.582 60.4475 
338.421 104.948 64.7979 341.305 105.234 63.7439 340.707 104.59 64.1361 
344.776 106.093 64.5321 345.063 106.614 64.5154 345.89 108.9 64.387 
346.627 111.387 63.695 342.088 112.939 63.5445 344.856 115.369 63.4882 
345.289 115.91 63.2339 347.077 115.877 62.7202 345.84 116.33 62.9768 
346.864 116.328 62.6974 338.534 103.349 65.1296 338.8 102.652 65.3393 
341.274 103.399 64.8843 342.138 103.563 64.9828 337.466 103.932 65.4486 
337.603 104.732 65.3978 344.818 105.744 65.1438 337.65 105.508 65.5099 
344.967 105.991 65.2493 338.649 107.532 64.9576 345.777 108.85 65.0994 
345.895 113.261 64.4412 345.792 114.6 63.8854 338.763 100.85 66.2802 
334.775 102.377 67.2013 342.193 102.084 66.5173 343.241 102.867 66.7027 
343.74 103.506 66.6016 336.055 103.877 66.5305 337.084 105.628 66.4949 
344.835 105.989 66.1814 338.02 106.841 66.0437 345.365 107.378 65.537 
345.634 109.825 65.5426 340.137 109.935 65.4145 346.075 111.76 64.6505 
345.55 111.392 65.2275 341.497 111.624 65.0631 342.139 111.882 65.2476 
342.839 112.027 65.4075 344.143 112.7 65.0931 332.42 100.012 68.1392 
333.631 100.05 67.5853 334.806 99.5411 67.3565 338.638 99.688 67.0887 
340.17 100.471 66.8723 332.709 100.507 68.1032 333.013 101.185 68.1682 
342.042 101.153 67.7363 334.147 102.338 67.7607 335.618 103.644 66.918 
337.066 105.83 67.1054 337.819 106.691 66.8203 345.105 106.846 66.0656 
338.789 107.851 66.4307 342.658 110.238 66.6763 343.211 110.833 66.3198 
344.561 110.577 66.206 331.633 99.0066 68.4496 332.418 99.0968 68.1453 
333.317 98.9738 67.8853 335.518 98.2748 67.8198 341.802 100.552 68.7464 
331.979 100.177 68.4824 333.041 101.717 68.5422 343.03 102.403 67.5893 
343.605 103.327 67.5453 343.803 103.807 67.5641 336.112 104.826 67.4434 
336.749 105.516 67.5878 344.378 106.242 67.322 337.716 106.498 67.3393 
338.613 107.466 66.9606 340.887 108.337 67.6566 342.294 108.974 67.4244 
343.275 108.162 67.6804 343.973 107.978 67.4533 344.69 108.591 66.8675 
345.119 108.842 66.543 345.014 108.857 66.7069 342.866 109.583 67.0601 
322.358 97.2423 70.4256 322.287 96.985 70.5792 322.041 97.3379 70.6662 
322.88 97.2296 70.2504 324.057 96.6003 70.0712 327.279 97.2044 69.5721 
329.329 97.1588 69.2026 322.103 97.528 70.4998 321.946 97.6052 70.6221 
321.985 97.6559 70.5495 327.936 97.9273 69.5718 329.078 97.8493 69.2713 
336.842 97.709 68.1946 322.135 97.7719 70.5882 326.235 98.229 70.0206 
342.233 101.202 68.8165 332.559 101.664 69.155 334.328 103.232 68.8767 
343.57 104.397 68.3022 337.376 105.771 68.4183 338.018 106.499 67.8577 
338.834 106.799 68.1735 344.012 107.203 67.6326 345.106 108.971 66.6257 
324.754 95.3577 70.311 338.721 95.4255 70.7001 322.471 96.5927 70.7149 
322.116 96.9376 70.8585 323.012 96.315 70.5369 322.728 95.9948 71.0386 
329.061 95.8692 69.5089 321.944 97.7079 70.64 321.896 97.7845 70.9413 
324.963 98.0295 70.1039 340.582 98.2059 70.5545 321.392 98.8785 71.5838 
321.312 99.0426 71.6478 321.327 99.0095 71.5656 321.451 98.9527 71.5227 
322.306 98.2589 70.8795 327.585 98.8662 70.1475 321.339 99.0678 71.5873 
329.371 99.5203 69.9178 328.795 99.5846 70.4153 341.259 99.5966 70.0164 
342.231 101.359 69.2683 341.943 101.246 69.8355 331.657 101.237 69.8557 
331.998 101.534 70.0086 342.335 101.781 69.4193 333.785 102.797 69.7749 
343.079 104.408 68.9846 343.099 105.114 68.8973 338.749 105.227 69.7411 
342.487 105.683 69.0779 342.679 105.123 69.1936 323.753 94.1949 71.5249 
337.364 93.9686 71.3105 338.953 95.004 71.6953 323.262 95.1712 71.1974 
323.093 94.8169 71.7033 321.981 96.915 71.326 321.663 98.0178 71.6458 
340.66 98.3848 70.9421 321.475 98.6321 71.7343 321.724 98.5573 71.3757 
322.226 98.8244 71.3377 324.252 98.7227 70.817 326.183 99.0854 70.8292 
340.758 98.827 71.1132 321.362 99.1174 71.6756 321.386 99.0919 71.81 
321.473 99.0921 71.6195 321.727 98.9679 71.5246 328.138 99.6118 70.9784 
321.529 99.1569 71.7973 330.143 100.419 70.7879 333.514 102.376 70.7167 
336.096 103.363 70.8432 336.714 103.949 70.4284 337.858 103.515 71.0423 
339.335 104.079 70.6147 323.528 93.7572 72.2023 323.238 94.0432 72.3571 
322.554 95.3605 72.2767 321.805 97.2829 71.8567 321.427 98.8036 71.963 
322.741 98.9535 71.3578 321.524 98.8513 72.2001 321.438 99.0004 72.0003 
324.371 99.2477 71.6681 340.777 99.6763 71.4297 321.592 99.1347 72.0419 
328.254 99.7896 71.7398 330.317 100.505 71.7964 339.859 102.762 71.2672 
342.524 103.663 69.6943 324.864 91.5667 73.4213 325.437 91.2299 73.3459 
335.959 91.4361 72.9904 336.154 91.0015 73.5176 337.051 91.7088 73.6415 
324.706 92.4476 72.5815 328.014 91.6379 72.1109 323.11 94.05 72.8227 
323.044 94.1051 73.5153 322.556 95.2568 72.8281 322.33 95.9879 73.1023 
339.914 97.624 72.4918 339.9 98.2896 72.5704 321.795 98.8151 72.642 
322.333 99.2175 71.9385 324.073 99.3363 72.0528 321.923 99.1524 72.4204 
327.791 99.6624 72.4643 338.192 101.09 72.583 339.957 100.11 72.2131 
324.668 91.0026 74.6805 331.601 89.3558 73.7725 335.996 90.0984 74.4591 
336.9 90.8968 74.5296 324.026 92.1592 73.9601 337.286 91.4747 74.5809 
323.988 92.1107 74.5752 337.594 92.0528 74.7072 338.258 93.517 74.0425 
322.565 96.2144 74.0293 322.218 98.0768 73.484 322.072 98.7748 73.1254 
328.661 99.4999 73.3372 338.749 99.6539 73.0606 338.941 98.8665 73.2534 
340.034 99.6001 72.2762 321.993 99.1277 72.7693 322.222 99.2471 72.7653 
322.547 99.2593 72.9131 323.841 99.2377 73.1058 322.146 99.1963 72.9527 
322.34 99.231 73.019 326.234 88.4319 75.7407 334.235 88.4001 75.2834 
325.462 89.3426 75.7684 326.567 89.253 74.6679 334.671 89.1284 74.6537 
335.063 88.9011 75.156 335.621 89.1831 75.3732 324.63 90.7805 75.7401 
338.291 94.1286 74.642 322.606 96.7568 74.1238 329.423 98.2697 74.9687 
322.844 97.5262 74.2391 323.823 98.5634 74.1465 325.005 98.2826 74.6273 
325.5 98.7277 74.2208 337.62 98.51 74.0708 322.781 98.4038 73.864 
323.256 98.5077 74.0078 327.084 99.0952 73.8131 322.667 99.1088 73.2471 
326.222 87.9758 76.5178 331.294 87.4807 75.7641 334.792 88.2919 75.8986 
334.906 88.2069 76.259 335.482 88.6421 76.3364 336.71 90.3698 75.524 
324.357 91.5034 75.8586 336.949 90.9833 76.3286 324.248 92.2096 76.1265 
337.935 96.3278 74.8807 327.613 86.6307 77.2885 327.162 86.811 77.4666 
327.961 86.3965 77.6321 329.617 86.2802 77.3837 330.905 86.8007 76.7968 
331.456 86.8483 77.4022 325.864 88.3349 76.7094 335.042 88.2548 76.7422 
336.279 89.85 76.8256 325.036 89.985 77.084 327.379 86.5691 78.222 
327.759 86.3933 78.0264 326.633 87.2032 77.8761 331.042 86.6845 77.6153 
325.856 88.2643 77.3572 334.124 87.8811 77.3161 333.847 87.8641 77.7108 
325.594 88.7404 77.5804 335.243 88.7084 77.5883 336.399 90.644 77.4166 
327.053 86.8184 78.4038 328.002 86.3735 78.7059 330.286 86.5795 78.1991 
333.037 87.9092 78.6079 334.845 88.6136 77.9131 335.532 89.4513 78.0434 
335.318 89.4381 78.3393 328.181 86.6758 79.3043 327.033 87.6022 79.6784 
330.035 87.0552 79.3664 334.359 89.7033 79.2191 335.64 90.6251 78.5686 
333.272 91.4378 79.4999 334.051 91.3965 79.3119 335.554 91.6031 78.5274 
327.207 87.5605 80.0061 327.494 87.4973 80.0372 327.266 87.5806 80.1034 
329.046 87.5242 80.2428 327.175 87.6693 80.0544 327.216 88.0274 80.1336 
330.549 88.1874 80.2688 332.472 89.3596 80.0348 326.706 89.5402 79.7793 
333.661 89.869 79.654 327.318 90.2268 79.9694 327.648 90.8334 79.8389 
332.972 90.3781 79.9 327.611 87.821 80.2938 328.144 87.6154 80.2715 
[...]
POINT_DATA 860
COLOR_SCALARS scalars 3
0.00392157 0.576471 0.6 0.00392157 0.576471 0.6 0.00392157 0.576471 0.6 
0.00392157 0.576471 0.6 0.00392157 0.576471 0.6 
0.00392157 0.576471 0.6 0.00392157 0.576471 0.6 
0.00392157 0.576471 0.6 0.00392157 0.576471 0.6 
0.00392157 0.576471 0.6 0.00392157 0.576471 0.6 
0.00392157 0.576471 0.6 0.00392157 0.576471 0.6 
0.00392157 0.576471 0.6 0.00392157 0.576471 0.6 
0.00392157 0.576471 0.6 0.00392157 0.576471 0.6 
0.00392157 0.576471 0.6 0.00392157 0.576471 0.6 
0.00392157 0.576471 0.6 0.00392157 0.576471 0.6 
0.00392157 0.576471 0.6 0.00392157 0.576471 0.6 
0.00392157 0.576471 0.6 0.00392157 0.576471 0.6 
0.00392157 0.576471 0.6 0.00392157 0.576471 0.6 
0.00392157 0.576471 0.6 0.00392157 0.576471 0.6 
0.00392157 0.576471 0.6 0.00392157 0.576471 0.6 
0.00392157 0.576471 0.6 0.00392157 0.576471 0.6 
0.00392157 0.576471 0.6 0.00392157 0.576471 0.6 
0.00392157 0.576471 0.6 0.00392157 0.576471 0.6 
0.00392157 0.576471 0.6 0.00392157 0.576471 0.6 
0.00392157 0.576471 0.6 0.00392157 0.576471 0.6 
0.00392157 0.576471 0.6 0.00392157 0.576471 0.6 
0.00392157 0.576471 0.6 0.00392157 0.576471 0.6 
0.00392157 0.576471 0.6 0.00392157 0.576471 0.6 
0.00392157 0.576471 0.6 0.00392157 0.576471 0.6 
0.00392157 0.576471 0.6 0.00392157 0.576471 0.6 
0.00392157 0.576471 0.6 0.00392157 0.576471 0.6 
0.00392157 0.576471 0.6 0.00392157 0.576471 0.6 
0.00392157 0.576471 0.6 0.00392157 0.576471 0.6 
0.00392157 0.576471 0.6 0.00392157 0.576471 0.6 
0.00392157 0.576471 0.6 0.00392157 0.576471 0.6 
0.00392157 0.576471 0.6 0.00392157 0.576471 0.6 
0.00392157 0.576471 0.6 0.00392157 0.576471 0.6 
0.00392157 0.576471 0.6 0.00392157 0.576471 0.6 
0.00392157 0.576471 0.6 0.00392157 0.576471 0.6 
0.00392157 0.576471 0.6 0.00392157 0.576471 0.6 
0.00392157 0.576471 0.6 0.00392157 0.576471 0.6 
0.00392157 0.576471 0.6 0.00392157 0.576471 0.6 
0.00392157 0.576471 0.6 0.00392157 0.576471 0.6 
0.00392157 0.576471 0.6 0.00392157 0.576471 0.6 
0.00392157 0.576471 0.6 0.00392157 0.576471 0.6 
0.00392157 0.576471 0.6 0.00392157 0.576471 0.6 
0.00392157 0.576471 0.6 0.00392157 0.576471 0.6 
0.00392157 0.576471 0.6 0.00392157 0.576471 0.6 
0.00392157 0.576471 0.6 0.00392157 0.576471 0.6 
0.00392157 0.576471 0.6 0.00392157 0.576471 0.6 
0.00392157 0.576471 0.6 0.00392157 0.576471 0.6 
0.00392157 0.576471 0.6 0.00392157 0.576471 0.6 
0.00392157 0.576471 0.6 0.00392157 0.576471 0.6 
0.00392157 0.576471 0.6 0.00392157 0.576471 0.6 
0.00392157 0.576471 0.6 0.00392157 0.576471 0.6 
0.00392157 0.576471 0.6 0.00392157 0.576471 0.6 
0.00392157 0.576471 0.6 0.00392157 0.576471 0.6 
0.00392157 0.576471 0.6 0.00392157 0.576471 0.6 
0.00392157 0.576471 0.6 0.00392157 0.576471 0.6 
0.00392157 0.576471 0.6 0.00392157 0.576471 0.6 
0.00392157 0.576471 0.6 0.00392157 0.576471 0.6 
0.00392157 0.576471 0.6 0.00392157 0.576471 0.6 
0.00392157 0.576471 0.6 0.00392157 0.576471 0.6 
0.00392157 0.576471 0.6 0.00392157 0.576471 0.6 
0.00392157 0.576471 0.6 0.00392157 0.576471 0.6 
0.00392157 0.576471 0.6 0.00392157 0.576471 0.6 
0.00392157 0.576471 0.6 0.00392157 0.576471 0.6 
0.00392157 0.576471 0.6 0.00392157 0.576471 0.6 
0.00392157 0.576471 0.6 0.00392157 0.576471 0.6 
0.00392157 0.576471 0.6 0.00392157 0.576471 0.6 
0.00392157 0.576471 0.6 0.00392157 0.576471 0.6 
0.00392157 0.576471 0.6 0.00392157 0.576471 0.6 
0.00392157 0.576471 0.6 0.00392157 0.576471 0.6 
0.00392157 0.576471 0.6 0.00392157 0.576471 0.6 
0.00392157 0.576471 0.6 0.00392157 0.576471 0.6 
0.00392157 0.576471 0.6 0.00392157 0.576471 0.6 
0.00392157 0.576471 0.6 0.00392157 0.576471 0.6 
0.00392157 0.576471 0.6 0.00392157 0.576471 0.6 
0.00392157 0.576471 0.6 0.00392157 0.576471 0.6 
0.00392157 0.576471 0.6 0.00392157 0.576471 0.6 
0.00392157 0.576471 0.6 0.00392157 0.576471 0.6 
0.00392157 0.576471 0.6 0.00392157 0.576471 0.6 
0.00392157 0.576471 0.6 0.00392157 0.576471 0.6 
0.00392157 0.576471 0.6 0.00392157 0.576471 0.6 
0.00392157 0.576471 0.6 0.00392157 0.576471 0.6 
0.00392157 0.576471 0.6 0.00392157 0.576471 0.6 
0.00392157 0.576471 0.6 0.00392157 0.576471 0.6 
0.00392157 0.576471 0.6 0.00392157 0.576471 0.6 
0.00392157 0.576471 0.6 0.00392157 0.576471 0.6 
0.00392157 0.576471 0.6 0.00392157 0.576471 0.6 
0.00392157 0.576471 0.6 0.00392157 0.576471 0.6 
0.00392157 0.576471 0.6 0.00392157 0.576471 0.6 
0.00392157 0.576471 0.6 0.00392157 0.576471 0.6 
0.00392157 0.576471 0.6 0.00392157 0.576471 0.6 
0.00392157 0.576471 0.6 0.00392157 0.576471 0.6 
0.00392157 0.576471 0.6 0.00392157 0.576471 0.6 
0.00392157 0.576471 0.6 0.00392157 0.576471 0.6 
0.00392157 0.576471 0.6 0.00392157 0.576471 0.6 
0.00392157 0.576471 0.6 0.00392157 0.576471 0.6 
0.00392157 0.576471 0.6 0.00392157 0.576471 0.6 
0.00392157 0.576471 0.6 0.00392157 0.576471 0.6 
0.00392157 0.576471 0.6 0.00392157 0.576471 0.6 
0.00392157 0.576471 0.6 0.00392157 0.576471 0.6 
0.00392157 0.576471 0.6 0.00392157 0.576471 0.6 
0.00392157 0.576471 0.6 0.00392157 0.576471 0.6 
0.00392157 0.576471 0.6 0.00392157 0.576471 0.6 
0.00392157 0.576471 0.6 0.00392157 0.576471 0.6 
0.00392157 0.576471 0.6 0.00392157 0.576471 0.6 
0.00392157 0.576471 0.6 0.00392157 0.576471 0.6 
0.00392157 0.576471 0.6 0.00392157 0.576471 0.6 
0.00392157 0.576471 0.6 0.00392157 0.576471 0.6 
0.00392157 0.576471 0.6 0.00392157 0.576471 0.6 
0.00392157 0.576471 0.6 0.00392157 0.576471 0.6 
0.00392157 0.576471 0.6 0.00392157 0.576471 0.6 
0.00392157 0.576471 0.6 0.00392157 0.576471 0.6 
0.00392157 0.576471 0.6 0.00392157 0.576471 0.6 
0.00392157 0.576471 0.6 0.00392157 0.576471 0.6 
0.00392157 0.576471 0.6 0.00392157 0.576471 0.6 
0.00392157 0.576471 0.6 0.00392157 0.576471 0.6 
0.00392157 0.576471 0.6 0.00392157 0.576471 0.6 
0.00392157 0.576471 0.6 0.00392157 0.576471 0.6 
0.00392157 0.576471 0.6 0.00392157 0.576471 0.6 
0.00392157 0.576471 0.6 0.00392157 0.576471 0.6 
0.00392157 0.576471 0.6 0.00392157 0.576471 0.6 
0.00392157 0.576471 0.6 0.00392157 0.576471 0.6 
0.00392157 0.576471 0.6 0.00392157 0.576471 0.6 
0.00392157 0.576471 0.6 0.00392157 0.576471 0.6 
0.00392157 0.576471 0.6 0.00392157 0.576471 0.6 
0.00392157 0.576471 0.6 0.00392157 0.576471 0.6 
0.00392157 0.576471 0.6 0.00392157 0.576471 0.6 
0.00392157 0.576471 0.6 0.00392157 0.576471 0.6 
0.00392157 0.576471 0.6 0.00392157 0.576471 0.6 
0.00392157 0.576471 0.6 0.00392157 0.576471 0.6 
0.00392157 0.576471 0.6 0.00392157 0.576471 0.6 
0.00392157 0.576471 0.6 0.00392157 0.576471 0.6 
0.00392157 0.576471 0.6 0.00392157 0.576471 0.6 
0.00392157 0.576471 0.6 0.00392157 0.576471 0.6 
0.00392157 0.576471 0.6 0.00392157 0.576471 0.6 
0.00392157 0.576471 0.6 0.00392157 0.576471 0.6 
0.00392157 0.576471 0.6 0.00392157 0.576471 0.6 
0.00392157 0.576471 0.6 0.00392157 0.576471 0.6 
0.00392157 0.576471 0.6 0.00392157 0.576471 0.6 
0.00392157 0.576471 0.6 0.00392157 0.576471 0.6 
0.00392157 0.576471 0.6 0.00392157 0.576471 0.6 
0.00392157 0.576471 0.6 0.00392157 0.576471 0.6 
0.00392157 0.576471 0.6 0.00392157 0.576471 0.6 
0.00392157 0.576471 0.6 0.00392157 0.576471 0.6 
0.00392157 0.576471 0.6 0.00392157 0.576471 0.6 
0.00392157 0.576471 0.6 0.00392157 0.576471 0.6 
0.00392157 0.576471 0.6 0.00392157 0.576471 0.6 
0.00392157 0.576471 0.6 0.00392157 0.576471 0.6 
0.00392157 0.576471 0.6 0.00392157 0.576471 0.6 
0.00392157 0.576471 0.6 0.00392157 0.576471 0.6 
0.00392157 0.576471 0.6 0.00392157 0.576471 0.6 
0.00392157 0.576471 0.6 0.00392157 0.576471 0.6 
0.00392157 0.576471 0.6 0.00392157 0.576471 0.6 
0.00392157 0.576471 0.6 0.00392157 0.576471 0.6 
0.00392157 0.576471 0.6 0.00392157 0.576471 0.6 
0.00392157 0.576471 0.6 0.00392157 0.576471 0.6 
0.00392157 0.576471 0.6 0.00392157 0.576471 0.6 
0.00392157 0.576471 0.6 0.00392157 0.576471 0.6 
0.00392157 0.576471 0.6 0.00392157 0.576471 0.6 
0.00392157 0.576471 0.6 0.00392157 0.576471 0.6 
0.00392157 0.576471 0.6 0.00392157 0.576471 0.6 
0.00392157 0.576471 0.6 0.00392157 0.576471 0.6 
0.00392157 0.576471 0.6 0.00392157 0.576471 0.6 
0.00392157 0.576471 0.6 0.00392157 0.576471 0.6 
0.00392157 0.576471 0.6 0.00392157 0.576471 0.6 
0.00392157 0.576471 0.6 0.00392157 0.576471 0.6 
0.00392157 0.576471 0.6 0.00392157 0.576471 0.6 
0.00392157 0.576471 0.6 0.00392157 0.576471 0.6 
0.00392157 0.576471 0.6 0.00392157 0.576471 0.6 
0.00392157 0.576471 0.6 0.00392157 0.576471 0.6 
0.00392157 0.576471 0.6 0.00392157 0.576471 0.6 
0.00392157 0.576471 0.6 0.00392157 0.576471 0.6 
0.00392157 0.576471 0.6 0.00392157 0.576471 0.6 
0.00392157 0.576471 0.6 0.00392157 0.576471 0.6 
0.00392157 0.576471 0.6 0.00392157 0.576471 0.6 
0.00392157 0.576471 0.6 0.00392157 0.576471 0.6 
0.00392157 0.576471 0.6 0.00392157 0.576471 0.6 
0.00392157 0.576471 0.6 0.00392157 0.576471 0.6 
0.00392157 0.576471 0.6 0.00392157 0.576471 0.6 
0.00392157 0.576471 0.6 0.00392157 0.576471 0.6 
0.00392157 0.576471 0.6 0.00392157 0.576471 0.6 
0.00392157 0.576471 0.6 0.00392157 0.576471 0.6 
0.00392157 0.576471 0.6 0.00392157 0.576471 0.6 
0.00392157 0.576471 0.6 0.00392157 0.576471 0.6 
0.00392157 0.576471 0.6 0.00392157 0.576471 0.6 
0.00392157 0.576471 0.6 0.00392157 0.576471 0.6 
0.00392157 0.576471 0.6 0.00392157 0.576471 0.6 
0.00392157 0.576471 0.6 0.00392157 0.576471 0.6 
0.00392157 0.576471 0.6 0.00392157 0.576471 0.6 
0.00392157 0.576471 0.6 0.00392157 0.576471 0.6 
0.00392157 0.576471 0.6 0.00392157 0.576471 0.6 
0.00392157 0.576471 0.6 0.00392157 0.576471 0.6 
0.00392157 0.576471 0.6 0.00392157 0.576471 0.6 
0.00392157 0.576471 0.6 0.00392157 0.576471 0.6 
0.00392157 0.576471 0.6 0.00392157 0.576471 0.6 
0.00392157 0.576471 0.6 0.00392157 0.576471 0.6 
0.00392157 0.576471 0.6 0.00392157 0.576471 0.6 
0.00392157 0.576471 0.6 0.00392157 0.576471 0.6 
0.00392157 0.576471 0.6 0.00392157 0.576471 0.6 
0.00392157 0.576471 0.6 0.00392157 0.576471 0.6 
0.00392157 0.576471 0.6 0.00392157 0.576471 0.6 
0.00392157 0.576471 0.6 0.00392157 0.576471 0.6 
0.00392157 0.576471 0.6 0.00392157 0.576471 0.6 
0.00392157 0.576471 0.6 0.00392157 0.576471 0.6 
0.00392157 0.576471 0.6 0.00392157 0.576471 0.6 
0.00392157 0.576471 0.6 0.00392157 0.576471 0.6 
0.00392157 0.576471 0.6 0.00392157 0.576471 0.6 
0.00392157 0.576471 0.6 0.00392157 0.576471 0.6 
0.00392157 0.576471 0.6 0.00392157 0.576471 0.6 
0.00392157 0.576471 0.6 0.00392157 0.576471 0.6 
0.00392157 0.576471 0.6 0.00392157 0.576471 0.6 
0.00392157 0.576471 0.6 0.00392157 0.576471 0.6 
0.00392157 0.576471 0.6 0.00392157 0.576471 0.6 
0.00392157 0.576471 0.6 0.00392157 0.576471 0.6 
0.00392157 0.576471 0.6 0.00392157 0.576471 0.6 
0.00392157 0.576471 0.6 0.00392157 0.576471 0.6 
0.00392157 0.576471 0.6 0.00392157 0.576471 0.6 
0.00392157 0.576471 0.6 0.00392157 0.576471 0.6 
0.00392157 0.576471 0.6 0.00392157 0.576471 0.6 
0.00392157 0.576471 0.6 0.00392157 0.576471 0.6 
0.00392157 0.576471 0.6 0.00392157 0.576471 0.6 
0.00392157 0.576471 0.6 0.00392157 0.576471 0.6 
0.00392157 0.576471 0.6 0.00392157 0.576471 0.6 
0.00392157 0.576471 0.6 0.00392157 0.576471 0.6 
0.00392157 0.576471 0.6 0.00392157 0.576471 0.6 
0.00392157 0.576471 0.6 0.00392157 0.576471 0.6 
0.00392157 0.576471 0.6 0.00392157 0.576471 0.6 
0.00392157 0.576471 0.6 0.00392157 0.576471 0.6 
0.00392157 0.576471 0.6 0.00392157 0.576471 0.6 
0.00392157 0.576471 0.6 0.00392157 0.576471 0.6 
0.00392157 0.576471 0.6 0.00392157 0.576471 0.6 
0.00392157 0.576471 0.6 0.00392157 0.576471 0.6 
0.00392157 0.576471 0.6 0.00392157 0.576471 0.6 
0.00392157 0.576471 0.6 0.00392157 0.576471 0.6 
0.00392157 0.576471 0.6 0.00392157 0.576471 0.6 
0.00392157 0.576471 0.6 0.00392157 0.576471 0.6 
0.00392157 0.576471 0.6 0.00392157 0.576471 0.6 
0.00392157 0.576471 0.6 0.00392157 0.576471 0.6 
0.00392157 0.576471 0.6 0.00392157 0.576471 0.6 
0.00392157 0.576471 0.6 0.00392157 0.576471 0.6 
0.00392157 0.576471 0.6 0.00392157 0.576471 0.6 
0.00392157 0.576471 0.6 0.00392157 0.576471 0.6 
0.00392157 0.576471 0.6 0.00392157 0.576471 0.6 
0.00392157 0.576471 0.6 0.00392157 0.576471 0.6 
0.00392157 0.576471 0.6 0.00392157 0.576471 0.6 
0.00392157 0.576471 0.6 0.00392157 0.576471 0.6 
0.00392157 0.576471 0.6 0.00392157 0.576471 0.6 
0.00392157 0.576471 0.6 0.00392157 0.576471 0.6 
0.00392157 0.576471 0.6 0.00392157 0.576471 0.6 
0.00392157 0.576471 0.6 0.00392157 0.576471 0.6 
0.00392157 0.576471 0.6 0.00392157 0.576471 0.6 
0.00392157 0.576471 0.6 0.00392157 0.576471 0.6 
0.00392157 0.576471 0.6 0.00392157 0.576471 0.6 
0.00392157 0.576471 0.6 0.00392157 0.576471 0.6 
0.00392157 0.576471 0.6 0.00392157 0.576471 0.6 
0.00392157 0.576471 0.6 0.00392157 0.576471 0.6 
0.00392157 0.576471 0.6 0.00392157 0.576471 0.6 
0.00392157 0.576471 0.6 0.00392157 0.576471 0.6 
0.00392157 0.576471 0.6 0.00392157 0.576471 0.6 
0.00392157 0.576471 0.6 0.00392157 0.576471 0.6 
0.00392157 0.576471 0.6 0.00392157 0.576471 0.6 
0.00392157 0.576471 0.6 0.00392157 0.576471 0.6 
0.00392157 0.576471 0.6 0.00392157 0.576471 0.6 
0.00392157 0.576471 0.6 0.00392157 0.576471 0.6 
0.00392157 0.576471 0.6 0.00392157 0.576471 0.6 
0.00392157 0.576471 0.6 0.00392157 0.576471 0.6 
0.00392157 0.576471 0.6 0.00392157 0.576471 0.6 
0.00392157 0.576471 0.6 0.00392157 0.576471 0.6 
0.00392157 0.576471 0.6 0.00392157 0.576471 0.6 
0.00392157 0.576471 0.6 0.00392157 0.576471 0.6 
0.00392157 0.576471 0.6 0.00392157 0.576471 0.6 
0.00392157 0.576471 0.6 0.00392157 0.576471 0.6 
0.00392157 0.576471 0.6 0.00392157 0.576471 0.6 
0.00392157 0.576471 0.6 0.00392157 0.576471 0.6 
0.00392157 0.576471 0.6 0.00392157 0.576471 0.6 
0.00392157 0.576471 0.6 0.00392157 0.576471 0.6 
0.00392157 0.576471 0.6 0.00392157 0.576471 0.6 
0.00392157 0.576471 0.6 0.00392157 0.576471 0.6 
0.00392157 0.576471 0.6 0.00392157 0.576471 0.6 
0.00392157 0.576471 0.6 0.00392157 0.576471 0.6 
0.00392157 0.576471 0.6 0.00392157 0.576471 0.6 
0.00392157 0.576471 0.6 0.00392157 0.576471 0.6 
0.00392157 0.576471 0.6 0.00392157 0.576471 0.6 
0.00392157 0.576471 0.6 0.00392157 0.576471 0.6 
0.00392157 0.576471 0.6 0.00392157 0.576471 0.6 
0.00392157 0.576471 0.6 0.00392157 0.576471 0.6 
0.00392157 0.576471 0.6 0.00392157 0.576471 0.6 
0.00392157 0.576471 0.6 0.00392157 0.576471 0.6 
0.00392157 0.576471 0.6 0.00392157 0.576471 0.6 
0.00392157 0.576471 0.6 0.00392157 0.576471 0.6 
0.00392157 0.576471 0.6 0.00392157 0.576471 0.6 
0.00392157 0.576471 0.6 0.00392157 0.576471 0.6 
0.00392157 0.576471 0.6 0.00392157 0.576471 0.6 
0.00392157 0.576471 0.6 0.00392157 0.576471 0.6 
0.00392157 0.576471 0.6 0.00392157 0.576471 0.6 
0.00392157 0.576471 0.6 0.00392157 0.576471 0.6 
0.00392157 0.576471 0.6 0.00392157 0.576471 0.6 
0.00392157 0.576471 0.6 0.00392157 0.576471 0.6 
0.00392157 0.576471 0.6 0.00392157 0.576471 0.6 
0.00392157 0.576471 0.6 0.00392157 0.576471 0.6 
0.00392157 0.576471 0.6 0.00392157 0.576471 0.6 
0.00392157 0.576471 0.6 0.00392157 0.576471 0.6 
0.00392157 0.576471 0.6 0.00392157 0.576471 0.6 
0.00392157 0.576471 0.6 0.00392157 0.576471 0.6 
0.00392157 0.576471 0.6 0.00392157 0.576471 0.6 
0.00392157 0.576471 0.6 0.00392157 0.576471 0.6 
0.00392157 0.576471 0.6 0.00392157 0.576471 0.6 
0.00392157 0.576471 0.6 0.00392157 0.576471 0.6 
0.00392157 0.576471 0.6 0.00392157 0.576471 0.6 
0.00392157 0.576471 0.6 0.00392157 0.576471 0.6 
0.00392157 0.576471 0.6 0.00392157 0.576471 0.6 
0.00392157 0.576471 0.6 0.00392157 0.576471 0.6 
0.00392157 0.576471 0.6 0.00392157 0.576471 0.6 
0.00392157 0.576471 0.6 0.00392157 0.576471 0.6 
0.00392157 0.576471 0.6 0.00392157 0.576471 0.6 
0.00392157 0.576471 0.6 0.00392157 0.576471 0.6 
0.00392157 0.576471 0.6 0.00392157 0.576471 0.6 
0.00392157 0.576471 0.6 0.00392157 0.576471 0.6 
0.00392157 0.576471 0.6 0.00392157 0.576471 0.6 
0.00392157 0.576471 0.6 0.00392157 0.576471 0.6 
0.00392157 0.576471 0.6 0.00392157 0.576471 0.6 
0.00392157 0.576471 0.6 0.00392157 0.576471 0.6 
0.00392157 0.576471 0.6 0.00392157 0.576471 0.6 
0.00392157 0.576471 0.6 0.00392157 0.576471 0.6 
0.00392157 0.576471 0.6 0.00392157 0.576471 0.6 
0.00392157 0.576471 0.6 0.00392157 0.576471 0.6 
0.00392157 0.576471 0.6 0.00392157 0.576471 0.6 
0.00392157 0.576471 0.6 0.00392157 0.576471 0.6 
0.00392157 0.576471 0.6 0.00392157 0.576471 0.6 
0.00392157 0.576471 0.6 0.00392157 0.576471 0.6 
0.00392157 0.576471 0.6 0.00392157 0.576471 0.6 
0.00392157 0.576471 0.6 0.00392157 0.576471 0.6 
0.00392157 0.576471 0.6 0.00392157 0.576471 0.6 
0.00392157 0.576471 0.6 0.00392157 0.576471 0.6 
0.00392157 0.576471 0.6 0.00392157 0.576471 0.6 
0.00392157 0.576471 0.6 0.00392157 0.576471 0.6 
0.00392157 0.576471 0.6 0.00392157 0.576471 0.6 
0.00392157 0.576471 0.6 0.00392157 0.576471 0.6 
0.00392157 0.576471 0.6 0.00392157 0.576471 0.6 
0.00392157 0.576471 0.6 0.00392157 0.576471 0.6 
0.00392157 0.576471 0.6 0.00392157 0.576471 0.6 
0.00392157 0.576471 0.6 0.00392157 0.576471 0.6 
0.00392157 0.576471 0.6 0.00392157 0.576471 0.6 
0.00392157 0.576471 0.6 0.00392157 0.576471 0.6 
0.00392157 0.576471 0.6 0.00392157 0.576471 0.6 
0.00392157 0.576471 0.6 0.00392157 0.576471 0.6 
0.00392157 0.576471 0.6 0.00392157 0.576471 0.6 
0.00392157 0.576471 0.6 0.00392157 0.576471 0.6 
0.00392157 0.576471 0.6 0.00392157 0.576471 0.6 
0.00392157 0.576471 0.6 0.00392157 0.576471 0.6 
0.00392157 0.576471 0.6 0.00392157 0.576471 0.6 
0.00392157 0.576471 0.6 0.00392157 0.576471 0.6 
0.00392157 0.576471 0.6 0.00392157 0.576471 0.6 
0.00392157 0.576471 0.6 0.00392157 0.576471 0.6 
0.00392157 0.576471 0.6 0.00392157 0.576471 0.6 
0.00392157 0.576471 0.6 0.00392157 0.576471 0.6 
0.00392157 0.576471 0.6 0.00392157 0.576471 0.6 
0.00392157 0.576471 0.6 0.00392157 0.576471 0.6 
0.00392157 0.576471 0.6 0.00392157 0.576471 0.6 
0.00392157 0.576471 0.6 0.00392157 0.576471 0.6 
0.00392157 0.576471 0.6 0.00392157 0.576471 0.6 
0.00392157 0.576471 0.6 0.00392157 0.576471 0.6 
0.00392157 0.576471 0.6 0.00392157 0.576471 0.6 
0.00392157 0.576471 0.6 0.00392157 0.576471 0.6 
0.00392157 0.576471 0.6 0.00392157 0.576471 0.6 
0.00392157 0.576471 0.6 0.00392157 0.576471 0.6 
0.00392157 0.576471 0.6 0.00392157 0.576471 0.6 
0.00392157 0.576471 0.6 0.00392157 0.576471 0.6 
0.00392157 0.576471 0.6 0.00392157 0.576471 0.6 
0.00392157 0.576471 0.6 0.00392157 0.576471 0.6 
0.00392157 0.576471 0.6 0.00392157 0.576471 0.6 
0.00392157 0.576471 0.6 0.00392157 0.576471 0.6 
0.00392157 0.576471 0.6 0.00392157 0.576471 0.6 
0.00392157 0.576471 0.6 0.00392157 0.576471 0.6 
0.00392157 0.576471 0.6 0.00392157 0.576471 0.6 
0.00392157 0.576471 0.6 0.00392157 0.576471 0.6 
0.00392157 0.576471 0.6 0.00392157 0.576471 0.6 
0.00392157 0.576471 0.6 0.00392157 0.576471 0.6 
0.00392157 0.576471 0.6 0.00392157 0.576471 0.6 
0.00392157 0.576471 0.6 0.00392157 0.576471 0.6 
0.00392157 0.576471 0.6 0.00392157 0.576471 0.6 
0.00392157 0.576471 0.6 0.00392157 0.576471 0.6 
0.00392157 0.576471 0.6 0.00392157 0.576471 0.6 
0.00392157 0.576471 0.6 0.00392157 0.576471 0.6 
0.00392157 0.576471 0.6 0.00392157 0.576471 0.6 
0.00392157 0.576471 0.6 0.00392157 0.576471 0.6 
0.00392157 0.576471 0.6 0.00392157 0.576471 0.6 
0.00392157 0.576471 0.6 0.00392157 0.576471 0.6 
0.00392157 0.576471 0.6 0.00392157 0.576471 0.6 
0.00392157 0.576471 0.6 0.00392157 0.576471 0.6 
0.00392157 0.576471 0.6 0.00392157 0.576471 0.6 
0.00392157 0.576471 0.6 0.00392157 0.576471 0.6 
0.00392157 0.576471 0.6 0.00392157 0.576471 0.6 
0.00392157 0.576471 0.6 0.00392157 0.576471 0.6 
0.00392157 0.576471 0.6 0.00392157 0.576471 0.6 
0.00392157 0.576471 0.6 0.00392157 0.576471 0.6 
0.00392157 0.576471 0.6 0.00392157 0.576471 0.6 
0.00392157 0.576471 0.6 0.00392157 0.576471 0.6 
0.00392157 0.576471 0.6 0.00392157 0.576471 0.6 
0.00392157 0.576471 0.6 0.00392157 0.576471 0.6 
0.00392157 0.576471 0.6 0.00392157 0.576471 0.6 
0.00392157 0.576471 0.6 0.00392157 0.576471 0.6 
0.00392157 0.576471 0.6 0.00392157 0.576471 0.6 
0.00392157 0.576471 0.6 0.00392157 0.576471 0.6 
0.00392157 0.576471 0.6 0.00392157 0.576471 0.6 
0.00392157 0.576471 0.6 0.00392157 0.576471 0.6 
0.00392157 0.576471 0.6 0.00392157 0.576471 0.6 
0.00392157 0.576471 0.6 0.00392157 0.576471 0.6 