# vtk DataFile Version 4.2
vtk output
ASCII
DATASET POLYDATA
POINTS 1444 float
309.48 125.321 22.9357 317.911 124.876 23.346 321.453 124.467 23.8576 
322.84 124.518 24.283 322.635 124.029 24.097 322.157 125.085 24.2861 
323.199 124.683 24.5235 303.826 126.737 23.264 305.421 127.242 23.1722 
311.134 126.97 22.9664 314.656 126.569 23.1665 321.281 125.616 24.4506 
306.181 127.907 23.2518 308.093 127.876 23.1678 316.113 127.187 23.7076 
318.126 126.908 24.2107 302.627 128.775 23.9194 303.295 128.669 23.7545 
312.535 128.095 23.3737 315.206 127.778 23.7265 316.043 127.894 24.0759 
301.55 129.328 24.7267 302.405 129.147 24.2195 303.888 129.185 23.957 
305.618 129.196 23.8335 308.525 129.119 23.7066 302.906 129.577 24.4844 
310.109 129.779 24.2452 312.246 129.333 24.207 319.496 120.396 23.7378 
325.901 121.886 24.7318 325.739 121.306 24.6005 326.257 122.18 24.9882 
316.613 123.52 23.1826 322.219 123.354 23.8824 305.745 124.706 23.2059 
298.514 125.913 24.2163 322.871 125.257 24.7147 297.624 126.861 24.7098 
299.485 126.873 24.0974 319.721 126.664 24.7661 322.107 125.708 24.8821 
297.035 127.189 25.1051 296.383 126.849 25.3273 298.398 127.445 24.6522 
299.266 127.428 24.346 297.675 128 25.2983 317.223 128.248 25.0433 
299.526 128.533 24.9294 314.443 128.963 24.2713 314.985 128.945 24.4416 
315.517 128.735 24.5034 305.822 130.14 24.6998 309.447 130.214 24.6468 
309.951 130.157 24.4649 310.932 130.187 24.8407 313.099 129.634 24.7522 
310.06 130.243 24.5257 322.324 117.1 24.5946 327.358 116.81 25.0726 
330.419 117.94 25.5143 298.922 120.746 24.8092 301.289 121.244 24.3424 
328.343 120.261 25.3257 329.376 121.101 26.1156 294.1 124.05 25.7613 
298.073 123.857 24.3541 326.873 122.99 25.883 293.542 124.844 26.4387 
295.591 124.839 25.132 296.37 124.764 24.8073 324.297 124.686 25.3927 
294.75 125.621 25.8125 296.967 125.517 24.6721 323.168 125.355 25.0617 
323.506 125.427 25.5062 295.517 126.927 26.0322 297.814 128.621 25.9193 
303.292 130.295 25.4555 304.273 130.386 25.2237 304.812 130.48 25.1218 
315.641 129.303 25.3717 304.949 130.576 25.2162 311.534 113.494 25.6256 
334.209 116.513 26.7838 335.357 116.4 27.4135 335.086 116.931 27.3638 
293.191 121.311 26.1764 330.741 120.919 26.9025 291.929 122.709 27.1157 
293.561 123.372 26.0144 292.962 124.671 26.9665 293.896 125.942 26.8498 
294.65 126.808 26.9199 322.915 126.068 26.212 317.48 128.872 26.2705 
299.698 129.816 26.8717 307.665 131.326 26.9098 332.654 112.336 26.8953 
335.008 113.252 27.142 304.806 113.716 26.0866 336.1 114.425 27.4361 
336.655 115.233 27.8513 336.275 115.927 27.9159 335.505 117.021 27.7879 
291.998 119.041 27.1587 293.491 119.187 26.4593 291.5 120.598 27.3436 
290.95 120.071 27.9102 328.362 122.646 26.7418 298.017 129.228 27.055 
338.014 111.478 28.2965 296.743 112.513 27.6884 339.639 112.153 28.97 
340.037 113.038 29.3423 338.004 114.851 28.7303 291.72 116.086 28.0103 
290.533 117.605 28.5303 291.04 118.406 27.9449 289.964 119.219 29.2769 
290.633 121.373 28.4666 321.612 127.345 27.9988 312.022 131.194 27.3155 
313.237 131.216 28.3247 319.179 105.935 28.188 313.862 106.71 27.908 
340.028 109.54 29.3037 341.64 111.534 30.1644 290.768 113.622 29.4179 
340.428 113.173 29.7595 290.131 114.961 29.6366 291.394 114.666 28.6046 
340.093 113.769 29.8526 289.969 115.724 29.6673 290.749 115.387 28.8275 
290.193 116.226 29.2047 335.765 117.858 28.8568 331.792 121.163 28.4519 
329.251 123.094 28.687 293.789 126.892 29.2098 301.951 130.987 28.5654 
327.648 103.502 29.7159 335.119 106.966 29.1537 342.436 108.995 30.4428 
342.799 109.481 30.66 290.242 112.764 30.5353 342.471 111.529 30.859 
341.569 112.57 30.5848 290.041 114.297 30.0786 340.79 113.64 30.4731 
289.58 119.291 30.3402 290.119 121.221 29.9719 292.549 125.675 30.4791 
308.359 132.226 30.4654 312.693 100.364 30.7086 304.97 102.792 30.231 
341.776 106.126 30.9088 293.5 107.894 30.4932 344.154 107.025 31.6277 
344.716 107.751 31.9929 291.052 109.739 31.5031 291.229 110.088 31.0134 
342.488 111.812 31.0556 289.859 113.443 31.0802 289.705 113.776 31.5867 
289.376 118.462 31.1745 316.636 130.633 30.774 298.406 102.109 31.7162 
341.838 104.114 31.7916 345.228 105.524 32.7777 292.244 107.203 31.88 
344.956 106.602 32.3508 345.646 106.129 33.1554 345.369 107.765 32.7816 
345.124 109.041 32.8046 290.001 112.245 32.1877 343.594 111.285 32.2191 
289.315 117.267 31.4761 336.874 117.984 31.2406 296.192 129.177 32.1496 
298.942 99.678 32.8713 296.262 100.856 33.1957 292.986 103.945 33.5846 
293.61 102.989 33.7295 294.564 103.076 32.7106 343.36 102.545 33.1907 
345.645 104.57 33.6705 345.863 105.601 33.6672 291.702 106.812 33.7049 
291.571 107.491 32.9717 291.181 108.277 33.2127 290.714 109.682 32.4163 
341.556 113.94 32.3626 323.775 94.6566 33.885 305.912 95.5595 33.8258 
319.032 95.7252 33.0558 299.024 97.8259 34.0031 334.716 97.4572 33.7464 
296.789 99.3355 34.0233 293.934 101.867 34.587 294.806 101.439 33.8161 
345.021 102.145 34.9574 344.887 102.812 34.1586 345.751 104.428 33.936 
292.358 104.658 34.7229 345.364 109.875 34.3687 290.001 112.715 34.4025 
289.633 115.877 34.1463 302.07 94.8839 35.0345 300.881 95.5203 34.96 
296.062 98.8461 35.2781 295.843 98.7183 35.8879 340.329 97.7469 34.9037 
294.819 100.202 35.3142 343.337 99.5842 35.2999 293.881 101.541 35.5046 
344.694 101.1 35.5538 346.071 104.606 34.819 292.011 105.749 35.6891 
346.249 107.61 35.2773 342.022 114.226 34.3385 289.977 119.714 34.7079 
318.434 130.864 35.3828 311.104 133.052 35.372 302.622 93.5289 36.0101 
300.43 94.3251 36.426 329.223 93.7466 35.0038 298.866 95.3232 36.615 
297.93 96.5139 36.1221 297.281 96.772 36.968 296.362 97.8764 36.7354 
295.506 99.0072 36.1948 293.274 102.673 35.9592 345.886 103.53 35.9235 
346.379 106.715 36.1041 327.447 126.187 35.6713 293.294 126.838 35.7917 
316.245 131.861 35.2146 312.801 89.6406 36.8903 322.505 89.7286 36.8533 
304.806 91.5647 37.1071 301.584 92.8514 37.9628 302.592 92.6028 37.1941 
303.399 92.5022 36.7734 305.361 92.1334 36.2926 301.553 93.5284 36.6479 
339.194 93.9024 37.1427 297.951 95.832 37.8056 342.374 96.7867 37.3988 
295.441 99.0356 36.7131 295.123 99.5194 36.9834 344.385 99.8898 37.3693 
345.155 101.51 37.0799 346.389 105.75 35.9382 291.227 123.181 37.176 
295.456 129.079 37.4032 317.937 131.469 36.8513 314.854 132.666 36.9113 
316.538 132.034 36.6257 304.305 90.8441 38.9625 303.05 91.8035 38.2277 
302.493 92.0553 38.7158 303.831 91.4612 37.9865 301.809 92.5702 38.5039 
338.079 92.4129 37.7576 338.631 92.4691 38.0122 339.218 92.7535 38.1972 
339.866 93.0513 38.5401 340.436 93.3823 38.9978 299.104 94.65 38.6081 
340.963 94.5116 38.2702 297.264 96.6803 38.2347 295.233 99.7473 38.2269 
346.193 106.362 37.7553 293.111 126.573 38.1007 298.512 131.157 38.377 
311.401 87.3577 39.3498 303.611 91.1725 39.4155 302.535 92.0207 39.422 
339.899 92.4574 39.5297 301.432 92.9292 39.5477 299.726 94.1696 39.3276 
340.984 93.9681 39.4602 297.896 96.2342 39.2438 343.401 97.9325 38.7009 
293.84 102.904 38.8943 342.474 114.976 38.8107 290.954 121.573 39.5164 
317.419 132.069 38.4175 310.724 133.76 38.9338 316.359 86.0666 39.4434 
334.267 87.86 40.0947 305.687 89.88 40.2151 334.058 88.784 39.1779 
337.061 89.3508 40.6372 338.418 90.7812 40.0362 339.042 91.3164 40.1803 
303.636 91.2445 40.0427 340.134 92.6577 39.862 341.242 94.2782 40.2864 
297.254 97.6324 40.1318 345.109 102.471 39.533 304.173 133.339 40.1143 
314.444 85.1305 41.2777 313.882 85.3052 41.6247 316.402 84.3649 41.5063 
319.089 83.9886 41.2904 316.337 85.1146 40.4293 322.237 84.8749 40.2799 
310.923 86.8499 41.4039 326.181 85.6755 39.9921 331.706 85.8001 41.1151 
309.19 87.8479 41.1925 333.737 86.642 41.1503 335.683 87.8478 41.3427 
307.609 88.7418 40.6487 335.609 88.2113 40.6661 336.796 88.668 41.755 
306.336 89.5306 40.774 339.05 91.1649 41.1018 303.211 91.8504 40.7895 
343.674 100.074 41.4212 291.199 116.741 40.8684 315.55 84.3403 42.1964 
316.554 83.9216 42.7683 320.205 83.1399 42.3289 321.675 83.4238 41.6588 
321.18 83.051 42.2274 323.073 82.9749 42.1252 330.026 84.8419 41.4642 
331.097 85.1373 41.6048 331.493 84.7748 42.3528 333.756 85.7212 42.8443 
311.749 86.4766 41.9121 334.747 86.5537 42.5904 335.898 87.6294 42.7534 
336.994 88.7807 42.2826 307.565 89.1052 41.9965 307.969 89.0273 42.4294 
339.87 92.4539 41.8167 345.518 109.86 41.7003 295.866 129.664 41.8828 
302.948 133.388 42.2286 318.939 82.9289 43.8801 319.844 82.8815 43.0238 
321.385 82.394 43.4214 322.288 82.3235 43.2495 326.564 82.4693 43.0711 
328.39 82.9693 43.0209 330.543 83.7857 43.2184 330.938 83.891 43.5207 
331.472 84.2239 43.6788 333.324 85.3584 42.9402 333.207 85.231 43.0826 
333.019 85.1736 42.9744 333.382 85.3727 43.2615 332.324 84.8597 43.1079 
310.352 87.5592 42.9168 336.274 88.0456 43.1291 307.551 89.8641 43.3959 
291.984 115.702 43.2262 291.601 117.774 42.9171 291.274 119.48 42.0595 
321.229 82.1025 44.6983 320.55 82.3438 44.5951 322.855 82.0803 43.7066 
325.975 82.0575 44.1031 328.303 82.3439 44.1217 329.066 82.7179 44.1769 
330.366 83.4527 44.1213 315.795 84.256 43.9094 332.046 84.6476 44.2327 
310.144 88.0967 43.7145 337.104 89.4565 44.1898 293.19 126.14 43.9381 
321.73 81.9906 44.9512 323.194 81.8951 44.7148 324.416 81.9022 44.9589 
327.328 82.1583 44.4408 320.674 82.3151 45.1922 329.957 83.2884 44.705 
314.15 85.9113 45.1816 333.461 85.7207 44.5603 302.305 95.2559 45.018 
298.131 100.274 45.1348 293.561 110.998 45.4196 298.699 132.009 45.4268 
322.115 81.9928 45.2884 320.522 82.4723 45.5636 324.49 82.306 46.312 
327.011 82.3163 45.474 326.199 82.4662 46.2169 329.428 83.23 45.479 
317.128 84.1298 45.615 332.912 85.684 45.6111 341.145 118.236 45.3869 
292.15 120.852 45.5515 327.661 82.6175 45.7817 297.677 102.567 46.9165 
323.099 83.0427 47.684 319.397 83.9968 47.7153 328.744 83.996 47.4094 
318.3 84.6188 47.797 331.155 85.685 47.7794 335.252 89.8288 47.9757 
321.2 83.5139 48.0571 325.536 84.0962 48.9866 337.718 94.0098 48.647 
299.714 100.945 48.7282 296.965 105.263 48.4884 344.375 112.041 48.6099 
293.067 124.014 48.7261 297.097 131.088 49.12 296.036 108.583 49.8626 
[...]
POINT_DATA 1444
COLOR_SCALARS scalars 3
0.00392157 0.576471 0.6 0.00392157 0.576471 0.6 0.00392157 0.576471 0.6 
0.00392157 0.576471 0.6 0.00392157 0.576471 0.6 
0.00392157 0.576471 0.6 0.00392157 0.576471 0.6 
0.00392157 0.576471 0.6 0.00392157 0.576471 0.6 
0.00392157 0.576471 0.6 0.00392157 0.576471 0.6 
0.00392157 0.576471 0.6 0.00392157 0.576471 0.6 
0.00392157 0.576471 0.6 0.00392157 0.576471 0.6 
0.00392157 0.576471 0.6 0.00392157 0.576471 0.6 
0.00392157 0.576471 0.6 0.00392157 0.576471 0.6 
0.00392157 0.576471 0.6 0.00392157 0.576471 0.6 
0.00392157 0.576471 0.6 0.00392157 0.576471 0.6 
0.00392157 0.576471 0.6 0.00392157 0.576471 0.6 
0.00392157 0.576471 0.6 0.00392157 0.576471 0.6 
0.00392157 0.576471 0.6 0.00392157 0.576471 0.6 
0.00392157 0.576471 0.6 0.00392157 0.576471 0.6 
0.00392157 0.576471 0.6 0.00392157 0.576471 0.6 
0.00392157 0.576471 0.6 0.00392157 0.576471 0.6 
0.00392157 0.576471 0.6 0.00392157 0.576471 0.6 
0.00392157 0.576471 0.6 0.00392157 0.576471 0.6 
0.00392157 0.576471 0.6 0.00392157 0.576471 0.6 
0.00392157 0.576471 0.6 0.00392157 0.576471 0.6 
0.00392157 0.576471 0.6 0.00392157 0.576471 0.6 
0.00392157 0.576471 0.6 0.00392157 0.576471 0.6 
0.00392157 0.576471 0.6 0.00392157 0.576471 0.6 
0.00392157 0.576471 0.6 0.00392157 0.576471 0.6 
0.00392157 0.576471 0.6 0.00392157 0.576471 0.6 
0.00392157 0.576471 0.6 0.00392157 0.576471 0.6 
0.00392157 0.576471 0.6 0.00392157 0.576471 0.6 
0.00392157 0.576471 0.6 0.00392157 0.576471 0.6 
0.00392157 0.576471 0.6 0.00392157 0.576471 0.6 
0.00392157 0.576471 0.6 0.00392157 0.576471 0.6 
0.00392157 0.576471 0.6 0.00392157 0.576471 0.6 
0.00392157 0.576471 0.6 0.00392157 0.576471 0.6 
0.00392157 0.576471 0.6 0.00392157 0.576471 0.6 
0.00392157 0.576471 0.6 0.00392157 0.576471 0.6 
0.00392157 0.576471 0.6 0.00392157 0.576471 0.6 
0.00392157 0.576471 0.6 0.00392157 0.576471 0.6 
0.00392157 0.576471 0.6 0.00392157 0.576471 0.6 
0.00392157 0.576471 0.6 0.00392157 0.576471 0.6 
0.00392157 0.576471 0.6 0.00392157 0.576471 0.6 
0.00392157 0.576471 0.6 0.00392157 0.576471 0.6 
0.00392157 0.576471 0.6 0.00392157 0.576471 0.6 
0.00392157 0.576471 0.6 0.00392157 0.576471 0.6 
0.00392157 0.576471 0.6 0.00392157 0.576471 0.6 
0.00392157 0.576471 0.6 0.00392157 0.576471 0.6 
0.00392157 0.576471 0.6 0.00392157 0.576471 0.6 
0.00392157 0.576471 0.6 0.00392157 0.576471 0.6 
0.00392157 0.576471 0.6 0.00392157 0.576471 0.6 
0.00392157 0.576471 0.6 0.00392157 0.576471 0.6 
0.00392157 0.576471 0.6 0.00392157 0.576471 0.6 
0.00392157 0.576471 0.6 0.00392157 0.576471 0.6 
0.00392157 0.576471 0.6 0.00392157 0.576471 0.6 
0.00392157 0.576471 0.6 0.00392157 0.576471 0.6 
0.00392157 0.576471 0.6 0.00392157 0.576471 0.6 
0.00392157 0.576471 0.6 0.00392157 0.576471 0.6 
0.00392157 0.576471 0.6 0.00392157 0.576471 0.6 
0.00392157 0.576471 0.6 0.00392157 0.576471 0.6 
0.00392157 0.576471 0.6 0.00392157 0.576471 0.6 
0.00392157 0.576471 0.6 0.00392157 0.576471 0.6 
0.00392157 0.576471 0.6 0.00392157 0.576471 0.6 
0.00392157 0.576471 0.6 0.00392157 0.576471 0.6 
0.00392157 0.576471 0.6 0.00392157 0.576471 0.6 
0.00392157 0.576471 0.6 0.00392157 0.576471 0.6 
0.00392157 0.576471 0.6 0.00392157 0.576471 0.6 
0.00392157 0.576471 0.6 0.00392157 0.576471 0.6 
0.00392157 0.576471 0.6 0.00392157 0.576471 0.6 
0.00392157 0.576471 0.6 0.00392157 0.576471 0.6 
0.00392157 0.576471 0.6 0.00392157 0.576471 0.6 
0.00392157 0.576471 0.6 0.00392157 0.576471 0.6 
0.00392157 0.576471 0.6 0.00392157 0.576471 0.6 
0.00392157 0.576471 0.6 0.00392157 0.576471 0.6 
0.00392157 0.576471 0.6 0.00392157 0.576471 0.6 
0.00392157 0.576471 0.6 0.00392157 0.576471 0.6 
0.00392157 0.576471 0.6 0.00392157 0.576471 0.6 
0.00392157 0.576471 0.6 0.00392157 0.576471 0.6 
0.00392157 0.576471 0.6 0.00392157 0.576471 0.6 
0.00392157 0.576471 0.6 0.00392157 0.576471 0.6 
0.00392157 0.576471 0.6 0.00392157 0.576471 0.6 
0.00392157 0.576471 0.6 0.00392157 0.576471 0.6 
0.00392157 0.576471 0.6 0.00392157 0.576471 0.6 
0.00392157 0.576471 0.6 0.00392157 0.576471 0.6 
0.00392157 0.576471 0.6 0.00392157 0.576471 0.6 
0.00392157 0.576471 0.6 0.00392157 0.576471 0.6 
0.00392157 0.576471 0.6 0.00392157 0.576471 0.6 
0.00392157 0.576471 0.6 0.00392157 0.576471 0.6 
0.00392157 0.576471 0.6 0.00392157 0.576471 0.6 
0.00392157 0.576471 0.6 0.00392157 0.576471 0.6 
0.00392157 0.576471 0.6 0.00392157 0.576471 0.6 
0.00392157 0.576471 0.6 0.00392157 0.576471 0.6 
0.00392157 0.576471 0.6 0.00392157 0.576471 0.6 
0.00392157 0.576471 0.6 0.00392157 0.576471 0.6 
0.00392157 0.576471 0.6 0.00392157 0.576471 0.6 
0.00392157 0.576471 0.6 0.00392157 0.576471 0.6 
0.00392157 0.576471 0.6 0.00392157 0.576471 0.6 
0.00392157 0.576471 0.6 0.00392157 0.576471 0.6 
0.00392157 0.576471 0.6 0.00392157 0.576471 0.6 
0.00392157 0.576471 0.6 0.00392157 0.576471 0.6 
0.00392157 0.576471 0.6 0.00392157 0.576471 0.6 
0.00392157 0.576471 0.6 0.00392157 0.576471 0.6 
0.00392157 0.576471 0.6 0.00392157 0.576471 0.6 
0.00392157 0.576471 0.6 0.00392157 0.576471 0.6 
0.00392157 0.576471 0.6 0.00392157 0.576471 0.6 
0.00392157 0.576471 0.6 0.00392157 0.576471 0.6 
0.00392157 0.576471 0.6 0.00392157 0.576471 0.6 
0.00392157 0.576471 0.6 0.00392157 0.576471 0.6 
0.00392157 0.576471 0.6 0.00392157 0.576471 0.6 
0.00392157 0.576471 0.6 0.00392157 0.576471 0.6 
0.00392157 0.576471 0.6 0.00392157 0.576471 0.6 
0.00392157 0.576471 0.6 0.00392157 0.576471 0.6 
0.00392157 0.576471 0.6 0.00392157 0.576471 0.6 
0.00392157 0.576471 0.6 0.00392157 0.576471 0.6 
0.00392157 0.576471 0.6 0.00392157 0.576471 0.6 
0.00392157 0.576471 0.6 0.00392157 0.576471 0.6 
0.00392157 0.576471 0.6 0.00392157 0.576471 0.6 
0.00392157 0.576471 0.6 0.00392157 0.576471 0.6 
0.00392157 0.576471 0.6 0.00392157 0.576471 0.6 
0.00392157 0.576471 0.6 0.00392157 0.576471 0.6 
0.00392157 0.576471 0.6 0.00392157 0.576471 0.6 
0.00392157 0.576471 0.6 0.00392157 0.576471 0.6 
0.00392157 0.576471 0.6 0.00392157 0.576471 0.6 
0.00392157 0.576471 0.6 0.00392157 0.576471 0.6 
0.00392157 0.576471 0.6 0.00392157 0.576471 0.6 
0.00392157 0.576471 0.6 0.00392157 0.576471 0.6 
0.00392157 0.576471 0.6 0.00392157 0.576471 0.6 
0.00392157 0.576471 0.6 0.00392157 0.576471 0.6 
0.00392157 0.576471 0.6 0.00392157 0.576471 0.6 
0.00392157 0.576471 0.6 0.00392157 0.576471 0.6 
0.00392157 0.576471 0.6 0.00392157 0.576471 0.6 
0.00392157 0.576471 0.6 0.00392157 0.576471 0.6 
0.00392157 0.576471 0.6 0.00392157 0.576471 0.6 
0.00392157 0.576471 0.6 0.00392157 0.576471 0.6 
0.00392157 0.576471 0.6 0.00392157 0.576471 0.6 
0.00392157 0.576471 0.6 0.00392157 0.576471 0.6 
0.00392157 0.576471 0.6 0.00392157 0.576471 0.6 
0.00392157 0.576471 0.6 0.00392157 0.576471 0.6 
0.00392157 0.576471 0.6 0.00392157 0.576471 0.6 
0.00392157 0.576471 0.6 0.00392157 0.576471 0.6 
0.00392157 0.576471 0.6 0.00392157 0.576471 0.6 
0.00392157 0.576471 0.6 0.00392157 0.576471 0.6 
0.00392157 0.576471 0.6 0.00392157 0.576471 0.6 
0.00392157 0.576471 0.6 0.00392157 0.576471 0.6 
0.00392157 0.576471 0.6 0.00392157 0.576471 0.6 
0.00392157 0.576471 0.6 0.00392157 0.576471 0.6 
0.00392157 0.576471 0.6 0.00392157 0.576471 0.6 
0.00392157 0.576471 0.6 0.00392157 0.576471 0.6 
0.00392157 0.576471 0.6 0.00392157 0.576471 0.6 
0.00392157 0.576471 0.6 0.00392157 0.576471 0.6 
0.00392157 0.576471 0.6 0.00392157 0.576471 0.6 
0.00392157 0.576471 0.6 0.00392157 0.576471 0.6 
0.00392157 0.576471 0.6 0.00392157 0.576471 0.6 
0.00392157 0.576471 0.6 0.00392157 0.576471 0.6 
0.00392157 0.576471 0.6 0.00392157 0.576471 0.6 
0.00392157 0.576471 0.6 0.00392157 0.576471 0.6 
0.00392157 0.576471 0.6 0.00392157 0.576471 0.6 
0.00392157 0.576471 0.6 0.00392157 0.576471 0.6 
0.00392157 0.576471 0.6 0.00392157 0.576471 0.6 
0.00392157 0.576471 0.6 0.00392157 0.576471 0.6 
0.00392157 0.576471 0.6 0.00392157 0.576471 0.6 
0.00392157 0.576471 0.6 0.00392157 0.576471 0.6 
0.00392157 0.576471 0.6 0.00392157 0.576471 0.6 
0.00392157 0.576471 0.6 0.00392157 0.576471 0.6 
0.00392157 0.576471 0.6 0.00392157 0.576471 0.6 
0.00392157 0.576471 0.6 0.00392157 0.576471 0.6 
0.00392157 0.576471 0.6 0.00392157 0.576471 0.6 
0.00392157 0.576471 0.6 0.00392157 0.576471 0.6 
0.00392157 0.576471 0.6 0.00392157 0.576471 0.6 
0.00392157 0.576471 0.6 0.00392157 0.576471 0.6 
0.00392157 0.576471 0.6 0.00392157 0.576471 0.6 
0.00392157 0.576471 0.6 0.00392157 0.576471 0.6 
0.00392157 0.576471 0.6 0.00392157 0.576471 0.6 
0.00392157 0.576471 0.6 0.00392157 0.576471 0.6 
0.00392157 0.576471 0.6 0.00392157 0.576471 0.6 
0.00392157 0.576471 0.6 0.00392157 0.576471 0.6 
0.00392157 0.576471 0.6 0.00392157 0.576471 0.6 
0.00392157 0.576471 0.6 0.00392157 0.576471 0.6 
0.00392157 0.576471 0.6 0.00392157 0.576471 0.6 
0.00392157 0.576471 0.6 0.00392157 0.576471 0.6 
0.00392157 0.576471 0.6 0.00392157 0.576471 0.6 
0.00392157 0.576471 0.6 0.00392157 0.576471 0.6 
0.00392157 0.576471 0.6 0.00392157 0.576471 0.6 
0.00392157 0.576471 0.6 0.00392157 0.576471 0.6 
0.00392157 0.576471 0.6 0.00392157 0.576471 0.6 
0.00392157 0.576471 0.6 0.00392157 0.576471 0.6 
0.00392157 0.576471 0.6 0.00392157 0.576471 0.6 
0.00392157 0.576471 0.6 0.00392157 0.576471 0.6 
0.00392157 0.576471 0.6 0.00392157 0.576471 0.6 
0.00392157 0.576471 0.6 0.00392157 0.576471 0.6 
0.00392157 0.576471 0.6 0.00392157 0.576471 0.6 
0.00392157 0.576471 0.6 0.00392157 0.576471 0.6 
0.00392157 0.576471 0.6 0.00392157 0.576471 0.6 
0.00392157 0.576471 0.6 0.00392157 0.576471 0.6 
0.00392157 0.576471 0.6 0.00392157 0.576471 0.6 
0.00392157 0.576471 0.6 0.00392157 0.576471 0.6 
0.00392157 0.576471 0.6 0.00392157 0.576471 0.6 
0.00392157 0.576471 0.6 0.00392157 0.576471 0.6 
0.00392157 0.576471 0.6 0.00392157 0.576471 0.6 
0.00392157 0.576471 0.6 0.00392157 0.576471 0.6 
0.00392157 0.576471 0.6 0.00392157 0.576471 0.6 
0.00392157 0.576471 0.6 0.00392157 0.576471 0.6 
0.00392157 0.576471 0.6 0.00392157 0.576471 0.6 
0.00392157 0.576471 0.6 0.00392157 0.576471 0.6 
0.00392157 0.576471 0.6 0.00392157 0.576471 0.6 
0.00392157 0.576471 0.6 0.00392157 0.576471 0.6 
0.00392157 0.576471 0.6 0.00392157 0.576471 0.6 
0.00392157 0.576471 0.6 0.00392157 0.576471 0.6 
0.00392157 0.576471 0.6 0.00392157 0.576471 0.6 
0.00392157 0.576471 0.6 0.00392157 0.576471 0.6 
0.00392157 0.576471 0.6 0.00392157 0.576471 0.6 
0.00392157 0.576471 0.6 0.00392157 0.576471 0.6 
0.00392157 0.576471 0.6 0.00392157 0.576471 0.6 
0.00392157 0.576471 0.6 0.00392157 0.576471 0.6 
0.00392157 0.576471 0.6 0.00392157 0.576471 0.6 
0.00392157 0.576471 0.6 0.00392157 0.576471 0.6 
0.00392157 0.576471 0.6 0.00392157 0.576471 0.6 
0.00392157 0.576471 0.6 0.00392157 0.576471 0.6 
0.00392157 0.576471 0.6 0.00392157 0.576471 0.6 
0.00392157 0.576471 0.6 0.00392157 0.576471 0.6 
0.00392157 0.576471 0.6 0.00392157 0.576471 0.6 
0.00392157 0.576471 0.6 0.00392157 0.576471 0.6 
0.00392157 0.576471 0.6 0.00392157 0.576471 0.6 
0.00392157 0.576471 0.6 0.00392157 0.576471 0.6 
0.00392157 0.576471 0.6 0.00392157 0.576471 0.6 
0.00392157 0.576471 0.6 0.00392157 0.576471 0.6 
0.00392157 0.576471 0.6 0.00392157 0.576471 0.6 
0.00392157 0.576471 0.6 0.00392157 0.576471 0.6 
0.00392157 0.576471 0.6 0.00392157 0.576471 0.6 
0.00392157 0.576471 0.6 0.00392157 0.576471 0.6 
0.00392157 0.576471 0.6 0.00392157 0.576471 0.6 
0.00392157 0.576471 0.6 0.00392157 0.576471 0.6 
0.00392157 0.576471 0.6 0.00392157 0.576471 0.6 
0.00392157 0.576471 0.6 0.00392157 0.576471 0.6 
0.00392157 0.576471 0.6 0.00392157 0.576471 0.6 
0.00392157 0.576471 0.6 0.00392157 0.576471 0.6 
0.00392157 0.576471 0.6 0.00392157 0.576471 0.6 
0.00392157 0.576471 0.6 0.00392157 0.576471 0.6 
0.00392157 0.576471 0.6 0.00392157 0.576471 0.6 
0.00392157 0.576471 0.6 0.00392157 0.576471 0.6 
0.00392157 0.576471 0.6 0.00392157 0.576471 0.6 
0.00392157 0.576471 0.6 0.00392157 0.576471 0.6 
0.00392157 0.576471 0.6 0.00392157 0.576471 0.6 
0.00392157 0.576471 0.6 0.00392157 0.576471 0.6 
0.00392157 0.576471 0.6 0.00392157 0.576471 0.6 
0.00392157 0.576471 0.6 0.00392157 0.576471 0.6 
0.00392157 0.576471 0.6 0.00392157 0.576471 0.6 
0.00392157 0.576471 0.6 0.00392157 0.576471 0.6 
0.00392157 0.576471 0.6 0.00392157 0.576471 0.6 
0.00392157 0.576471 0.6 0.00392157 0.576471 0.6 
0.00392157 0.576471 0.6 0.00392157 0.576471 0.6 
0.00392157 0.576471 0.6 0.00392157 0.576471 0.6 
0.00392157 0.576471 0.6 0.00392157 0.576471 0.6 
0.00392157 0.576471 0.6 0.00392157 0.576471 0.6 
0.00392157 0.576471 0.6 0.00392157 0.576471 0.6 
0.00392157 0.576471 0.6 0.00392157 0.576471 0.6 
0.00392157 0.576471 0.6 0.00392157 0.576471 0.6 
0.00392157 0.576471 0.6 0.00392157 0.576471 0.6 
0.00392157 0.576471 0.6 0.00392157 0.576471 0.6 
0.00392157 0.576471 0.6 0.00392157 0.576471 0.6 
0.00392157 0.576471 0.6 0.00392157 0.576471 0.6 
0.00392157 0.576471 0.6 0.00392157 0.576471 0.6 
0.00392157 0.576471 0.6 0.00392157 0.576471 0.6 
0.00392157 0.576471 0.6 0.00392157 0.576471 0.6 
0.00392157 0.576471 0.6 0.00392157 0.576471 0.6 
0.00392157 0.576471 0.6 0.00392157 0.576471 0.6 
0.00392157 0.576471 0.6 0.00392157 0.576471 0.6 
0.00392157 0.576471 0.6 0.00392157 0.576471 0.6 
0.00392157 0.576471 0.6 0.00392157 0.576471 0.6 
0.00392157 0.576471 0.6 0.00392157 0.576471 0.6 
0.00392157 0.576471 0.6 0.00392157 0.576471 0.6 
0.00392157 0.576471 0.6 0.00392157 0.576471 0.6 
0.00392157 0.576471 0.6 0.00392157 0.576471 0.6 
0.00392157 0.576471 0.6 0.00392157 0.576471 0.6 
0.00392157 0.576471 0.6 0.00392157 0.576471 0.6 
0.00392157 0.576471 0.6 0.00392157 0.576471 0.6 
0.00392157 0.576471 0.6 0.00392157 0.576471 0.6 
0.00392157 0.576471 0.6 0.00392157 0.576471 0.6 
0.00392157 0.576471 0.6 0.00392157 0.576471 0.6 
0.00392157 0.576471 0.6 0.00392157 0.576471 0.6 
0.00392157 0.576471 0.6 0.00392157 0.576471 0.6 
0.00392157 0.576471 0.6 0.00392157 0.576471 0.6 
0.00392157 0.576471 0.6 0.00392157 0.576471 0.6 
0.00392157 0.576471 0.6 0.00392157 0.576471 0.6 
0.00392157 0.576471 0.6 0.00392157 0.576471 0.6 
0.00392157 0.576471 0.6 0.00392157 0.576471 0.6 
0.00392157 0.576471 0.6 0.00392157 0.576471 0.6 
0.00392157 0.576471 0.6 0.00392157 0.576471 0.6 
0.00392157 0.576471 0.6 0.00392157 0.576471 0.6 
0.00392157 0.576471 0.6 0.00392157 0.576471 0.6 
0.00392157 0.576471 0.6 0.00392157 0.576471 0.6 
0.00392157 0.576471 0.6 0.00392157 0.576471 0.6 
0.00392157 0.576471 0.6 0.00392157 0.576471 0.6 
0.00392157 0.576471 0.6 0.00392157 0.576471 0.6 
0.00392157 0.576471 0.6 0.00392157 0.576471 0.6 
0.00392157 0.576471 0.6 0.00392157 0.576471 0.6 
0.00392157 0.576471 0.6 0.00392157 0.576471 0.6 
0.00392157 0.576471 0.6 0.00392157 0.576471 0.6 
0.00392157 0.576471 0.6 0.00392157 0.576471 0.6 
0.00392157 0.576471 0.6 0.00392157 0.576471 0.6 
0.00392157 0.576471 0.6 0.00392157 0.576471 0.6 
0.00392157 0.576471 0.6 0.00392157 0.576471 0.6 
0.00392157 0.576471 0.6 0.00392157 0.576471 0.6 
0.00392157 0.576471 0.6 0.00392157 0.576471 0.6 
0.00392157 0.576471 0.6 0.00392157 0.576471 0.6 
0.00392157 0.576471 0.6 0.00392157 0.576471 0.6 
0.00392157 0.576471 0.6 0.00392157 0.576471 0.6 
0.00392157 0.576471 0.6 0.00392157 0.576471 0.6 
0.00392157 0.576471 0.6 0.00392157 0.576471 0.6 
0.00392157 0.576471 0.6 0.00392157 0.576471 0.6 
0.00392157 0.576471 0.6 0.00392157 0.576471 0.6 
0.00392157 0.576471 0.6 0.00392157 0.576471 0.6 
0.00392157 0.576471 0.6 0.00392157 0.576471 0.6 
0.00392157 0.576471 0.6 0.00392157 0.576471 0.6 
0.00392157 0.576471 0.6 0.00392157 0.576471 0.6 
0.00392157 0.576471 0.6 0.00392157 0.576471 0.6 
0.00392157 0.576471 0.6 0.00392157 0.576471 0.6 
0.00392157 0.576471 0.6 0.00392157 0.576471 0.6 
0.00392157 0.576471 0.6 0.00392157 0.576471 0.6 
0.00392157 0.576471 0.6 0.00392157 0.576471 0.6 
0.00392157 0.576471 0.6 0.00392157 0.576471 0.6 
0.00392157 0.576471 0.6 0.00392157 0.576471 0.6 
0.00392157 0.576471 0.6 0.00392157 0.576471 0.6 
0.00392157 0.576471 0.6 0.00392157 0.576471 0.6 
0.00392157 0.576471 0.6 0.00392157 0.576471 0.6 
0.00392157 0.576471 0.6 0.00392157 0.576471 0.6 
0.00392157 0.576471 0.6 0.00392157 0.576471 0.6 
0.00392157 0.576471 0.6 0.00392157 0.576471 0.6 
0.00392157 0.576471 0.6 0.00392157 0.576471 0.6 
0.00392157 0.576471 0.6 0.00392157 0.576471 0.6 
0.00392157 0.576471 0.6 0.00392157 0.576471 0.6 
0.00392157 0.576471 0.6 0.00392157 0.576471 0.6 
0.00392157 0.576471 0.6 0.00392157 0.576471 0.6 
0.00392157 0.576471 0.6 0.00392157 0.576471 0.6 
0.00392157 0.576471 0.6 0.00392157 0.576471 0.6 
0.00392157 0.576471 0.6 0.00392157 0.576471 0.6 
0.00392157 0.576471 0.6 0.00392157 0.576471 0.6 
0.00392157 0.576471 0.6 0.00392157 0.576471 0.6 
0.00392157 0.576471 0.6 0.00392157 0.576471 0.6 
0.00392157 0.576471 0.6 0.00392157 0.576471 0.6 
0.00392157 0.576471 0.6 0.00392157 0.576471 0.6 
0.00392157 0.576471 0.6 0.00392157 0.576471 0.6 
0.00392157 0.576471 0.6 0.00392157 0.576471 0.6 
0.00392157 0.576471 0.6 0.00392157 0.576471 0.6 
0.00392157 0.576471 0.6 0.00392157 0.576471 0.6 
0.00392157 0.576471 0.6 0.00392157 0.576471 0.6 
0.00392157 0.576471 0.6 0.00392157 0.576471 0.6 
0.00392157 0.576471 0.6 0.00392157 0.576471 0.6 
0.00392157 0.576471 0.6 0.00392157 0.576471 0.6 
0.00392157 0.576471 0.6 0.00392157 0.576471 0.6 
0.00392157 0.576471 0.6 0.00392157 0.576471 0.6 
0.00392157 0.576471 0.6 0.00392157 0.576471 0.6 
0.00392157 0.576471 0.6 0.00392157 0.576471 0.6 
0.00392157 0.576471 0.6 0.00392157 0.576471 0.6 
0.00392157 0.576471 0.6 0.00392157 0.576471 0.6 
0.00392157 0.576471 0.6 0.00392157 0.576471 0.6 
0.00392157 0.576471 0.6 0.00392157 0.576471 0.6 
0.00392157 0.576471 0.6 0.00392157 0.576471 0.6 
0.00392157 0.576471 0.6 0.00392157 0.576471 0.6 
0.00392157 0.576471 0.6 0.00392157 0.576471 0.6 
0.00392157 0.576471 0.6 0.00392157 0.576471 0.6 
0.00392157 0.576471 0.6 0.00392157 0.576471 0.6 
0.00392157 0.576471 0.6 0.00392157 0.576471 0.6 
0.00392157 0.576471 0.6 0.00392157 0.576471 0.6 
0.00392157 0.576471 0.6 0.00392157 0.576471 0.6 
0.00392157 0.576471 0.6 0.00392157 0.576471 0.6 
0.00392157 0.576471 0.6 0.00392157 0.576471 0.6 
0.00392157 0.576471 0.6 0.00392157 0.576471 0.6 
0.00392157 0.576471 0.6 0.00392157 0.576471 0.6 
0.00392157 0.576471 0.6 0.00392157 0.576471 0.6 
0.00392157 0.576471 0.6 0.00392157 0.576471 0.6 
0.00392157 0.576471 0.6 0.00392157 0.576471 0.6 
0.00392157 0.576471 0.6 0.00392157 0.576471 0.6 
0.00392157 0.576471 0.6 0.00392157 0.576471 0.6 
0.00392157 0.576471 0.6 0.00392157 0.576471 0.6 
0.00392157 0.576471 0.6 0.00392157 0.576471 0.6 
0.00392157 0.576471 0.6 0.00392157 0.576471 0.6 
0.00392157 0.576471 0.6 0.00392157 0.576471 0.6 
0.00392157 0.576471 0.6 0.00392157 0.576471 0.6 
0.00392157 0.576471 0.6 0.00392157 0.576471 0.6 
0.00392157 0.576471 0.6 0.00392157 0.576471 0.6 
0.00392157 0.576471 0.6 0.00392157 0.576471 0.6 
0.00392157 0.576471 0.6 0.00392157 0.576471 0.6 
0.00392157 0.576471 0.6 0.00392157 0.576471 0.6 
0.00392157 0.576471 0.6 0.00392157 0.576471 0.6 
0.00392157 0.576471 0.6 0.00392157 0.576471 0.6 
0.00392157 0.576471 0.6 0.00392157 0.576471 0.6 
0.00392157 0.576471 0.6 0.00392157 0.576471 0.6 
0.00392157 0.576471 0.6 0.00392157 0.576471 0.6 
0.00392157 0.576471 0.6 0.00392157 0.576471 0.6 
0.00392157 0.576471 0.6 0.00392157 0.576471 0.6 
0.00392157 0.576471 0.6 0.00392157 0.576471 0.6 
0.00392157 0.576471 0.6 0.00392157 0.576471 0.6 
0.00392157 0.576471 0.6 0.00392157 0.576471 0.6 
0.00392157 0.576471 0.6 0.00392157 0.576471 0.6 
0.00392157 0.576471 0.6 0.00392157 0.576471 0.6 
0.00392157 0.576471 0.6 0.00392157 0.576471 0.6 
0.00392157 0.576471 0.6 0.00392157 0.576471 0.6 
0.00392157 0.576471 0.6 0.00392157 0.576471 0.6 
0.00392157 0.576471 0.6 0.00392157 0.576471 0.6 
0.00392157 0.576471 0.6 0.00392157 0.576471 0.6 
0.00392157 0.576471 0.6 0.00392157 0.576471 0.6 
0.00392157 0.576471 0.6 0.00392157 0.576471 0.6 
0.00392157 0.576471 0.6 0.00392157 0.576471 0.6 
0.00392157 0.576471 0.6 0.00392157 0.576471 0.6 
0.00392157 0.576471 0.6 0.00392157 0.576471 0.6 
0.00392157 0.576471 0.6 0.00392157 0.576471 0.6 
0.00392157 0.576471 0.6 0.00392157 0.576471 0.6 
0.00392157 0.576471 0.6 0.00392157 0.576471 0.6 