# vtk DataFile Version 4.2
vtk output
ASCII
DATASET POLYDATA
POINTS 907 float
354 113.009 36.0174 354 113.009 36.0175 354 113.009 36.0175 
354 113.009 36.0175 354 113.009 36.0175 349.834 108.881 38.4214 
349.704 108.844 38.4804 351.087 109.964 38.3257 351.842 109.845 38.3093 
351.413 110.851 38.382 352.178 110.21 38.3365 352.17 110.613 38.2878 
352.409 110.729 38.3393 352.413 110.5 38.3416 352.499 110.604 38.3226 
351.537 111.58 38.5946 351.775 111.306 38.45 352.19 111.071 38.4231 
352.457 110.85 38.5362 352.511 110.604 38.4028 352.118 111.684 38.6308 
354 113.009 36.0175 352.196 112.085 38.8087 352.139 112.338 38.9616 
352.294 112.223 38.9662 348.223 106.75 39.1379 349.303 107.482 38.6961 
349.431 106.988 38.7623 348.086 107.771 39.2369 348.595 107.979 38.9745 
349.904 108.29 38.5296 350.357 107.695 38.6099 350.93 107.889 38.6224 
349.357 108.676 38.7042 352.134 109.151 38.5885 352.506 109.079 38.8245 
352.489 110.229 38.6434 351.372 111.662 38.7244 352.106 112.549 39.1803 
346.732 104.728 40.1521 347.189 105.429 39.7877 350.246 105.52 39.3543 
349.253 106.246 39.0044 346.835 106.464 40.0861 347.889 107.932 39.4761 
351.377 107.816 38.7959 351.948 107.903 39.126 351.56 112.26 39.2106 
351.717 112.468 39.3564 351.927 112.572 39.3243 352.222 112.61 39.2919 
352.089 112.646 39.447 352.226 112.643 39.4049 345.38 102.356 41.182 
347.048 103.05 40.3402 348.353 102.96 40.2063 346.122 104.785 40.7335 
351.801 105.67 40.2096 351.852 105.46 40.5188 346.247 106.209 40.8276 
352.302 106.925 40.354 352.519 107.956 40.3616 347.822 108.537 40.0082 
349.921 110.849 39.5048 351.187 112.293 40.0097 351.477 112.481 39.9786 
351.71 112.57 40.2489 352.199 112.608 39.5573 346.514 100.78 41.2632 
345.538 101.669 41.2858 349.359 101.614 41.2123 345.681 103.08 41.0402 
345.656 103.895 41.1515 345.611 104.602 41.3355 352.487 107.122 41.377 
349.363 110.587 40.6464 350.269 111.483 40.0825 352.035 112.335 40.3372 
351.681 112.646 40.5812 351.628 112.614 40.729 351.71 112.647 40.6816 
343.442 98.1992 43.0862 344.159 98.0856 42.7599 343.241 99.5131 43.144 
345.894 98.6844 42.1888 343.566 99.9449 42.8123 343.919 101.168 42.542 
345.151 104.763 42.4581 352.34 106.841 42.0107 346.328 107.364 42.1212 
346.965 108.266 41.9323 348.075 109.369 41.1713 352.452 109.629 41.3709 
352.022 110.405 41.6942 349.806 111.095 40.6839 350.915 111.912 41.1172 
351.238 112.138 41.1114 351.493 112.414 40.9086 351.44 112.078 41.2015 
351.644 112.319 40.9846 341.454 95.6101 44.4603 341.838 95.2847 44.2536 
341.835 95.5982 44.2101 343.748 96.7416 43.246 349.572 99.8325 42.5365 
351.613 103.398 42.8324 344.971 104.687 43.1865 345.465 105.571 42.3666 
346.869 108.112 42.3787 347.62 108.919 42.1203 350.529 111.319 41.5538 
351.084 110.658 42.3008 342.013 94.853 44.3409 349.924 97.9066 44.3605 
350.102 97.8704 44.7082 341.922 98.0304 44.3339 342.501 99.3485 44.0874 
343.309 100.831 43.3613 350.908 100.997 43.5164 345.417 105.395 43.7996 
345.776 106.303 42.9441 351.8 107.026 43.3884 346.166 106.956 43.0557 
346.22 106.847 43.5357 351.705 107.899 43.2391 347.111 108.157 42.8353 
348.776 108.832 43.5361 349.439 109.449 43.1646 350.746 110.262 42.6745 
345.091 93.4328 44.9336 346.401 93.9154 45.0001 348.145 94.8593 45.2901 
349.133 95.7361 45.4903 349.626 96.1932 45.8236 350.172 97.7559 45.036 
350.418 98.3266 45.3682 342.813 100.902 44.7176 351.576 105.19 44.0544 
345.727 105.583 44.2711 348.433 107.217 44.7251 346.468 107.119 43.6005 
346.855 107.307 43.7855 347.483 107.567 44.0138 348.275 107.856 44.1684 
349.522 107.371 44.731 348.921 108.47 43.8916 350.322 107.853 44.3256 
338.456 91.8244 46.6019 342.054 91.9295 45.5225 347.847 93.3358 46.5389 
349.068 94.9366 46.4108 349.548 95.7134 46.4181 349.793 96.0866 46.1774 
349.874 96.2971 46.1186 349.891 96.1906 46.2227 349.955 96.7628 46.1217 
349.913 96.3231 46.2803 350.412 98.9663 46.27 343.484 102.298 44.9755 
344.126 103.173 45.1547 345.13 104.105 45.2848 346.549 104.734 45.9011 
346.121 105.807 44.6001 350.559 105.838 45.1162 350.769 105.406 45.1075 
351.103 106.675 44.3804 350.447 107.339 44.5356 346.918 91.8207 47.2954 
337.608 91.8901 47.1916 337.015 91.7354 47.7348 345.828 91.9631 46.3399 
337.944 92.8595 47.2638 349.831 96.1127 46.3393 349.821 96.3187 46.6244 
343.13 101.382 46.4218 344.1 102.609 46.0154 345.069 102.355 47.1736 
349.512 105.279 45.7686 330.885 85.7866 49.2407 331.216 85.8179 49.2174 
330.909 85.917 49.2725 347.069 91.3178 48.3188 347.867 92.4344 47.999 
337.388 92.9393 48.1489 342.992 100.824 47.0036 344.347 101.713 47.346 
349.421 102.593 47.1489 319.976 83.5216 50.7375 320.433 83.3583 50.5519 
321.478 83.4222 50.2879 319.39 84.2942 50.8981 319.346 84.5986 50.8703 
320.705 84.2278 50.2604 319.504 84.678 50.6996 319.37 84.9337 50.9292 
319.76 84.6012 50.539 326.722 84.4173 50.0054 319.922 84.8226 50.5495 
330.821 86.2145 49.4364 333.093 88.6232 49.51 335.023 90.6307 49.2815 
348.15 93.2005 49.3094 337.556 93.5316 48.8835 348.322 94.0423 49.5368 
349.474 96.1424 47.9552 349.504 98.2667 48.4456 345.619 100.325 48.9271 
347.91 100.988 48.5266 348.462 100.894 48.4356 320.197 83.1334 50.8455 
320.161 82.9029 51.2354 320.536 82.9452 50.7251 320.783 82.6538 50.8637 
319.515 83.7983 51.1588 322.18 83.4171 50.2972 321.65 82.9231 50.4746 
319.238 84.5149 51.0892 320.682 84.5069 50.326 322.809 83.8954 50.3044 
320.405 84.86 50.524 327.395 84.9819 50.0287 341.345 84.8285 50.0636 
319.477 85.1807 50.9739 319.322 85.3042 51.3407 319.664 85.2223 50.8792 
328.342 86.0641 50.3012 328.955 86.4257 50.3462 345.189 88.0113 49.9065 
345.357 88.0542 50.3806 346.116 89.2869 50.006 334.325 90.5338 50.2156 
347.298 91.3652 49.5865 340.886 97.3868 48.8016 347.224 99.6372 49.3876 
349.091 100.569 48.2413 320.945 81.65 52.1013 329.026 81.807 50.4027 
319.698 83.2584 51.8809 342.98 84.392 51.6418 319.064 84.8271 51.8462 
320.818 84.9856 50.5604 344.359 86.02 51.9589 319.231 85.6613 51.9101 
319.874 85.3811 50.9786 344.26 86.4984 50.8309 330.556 88.0903 51.1193 
345.8 88.7435 51.3778 346.717 90.4886 50.9368 335.543 91.7494 50.2838 
347.486 92.0074 50.1978 336.209 92.338 51.0347 336.681 92.7205 50.8565 
347.57 96.2001 50.5989 345.878 97.0618 50.9047 347.535 98.5571 49.7765 
322.945 79.8625 52.3607 321.629 80.9055 52.2897 321.387 80.6761 52.9357 
320.582 81.8504 52.4854 319.773 83.1346 52.4621 343.168 83.908 52.5227 
319.023 85.1302 52.1138 319.024 85.2684 52.4716 319.069 85.553 52.3043 
319.364 85.9974 52.0769 319.567 86.1352 52.0787 345.07 87.4124 52.069 
319.44 86.2199 52.3299 345.363 88.2293 52.4296 333.842 90.5259 52.1898 
346.561 91.5971 51.9182 336.187 92.2 51.4888 346.67 96.4225 51.0167 
346.76 95.7858 51.234 348.461 97.612 49.7372 320.883 81.1482 53.6082 
341.276 81.4106 53.4868 343.479 83.9434 53.3263 319.39 84.0469 52.8505 
319.127 85.226 52.9399 344.432 86.0261 52.7999 320.173 86.7612 52.9723 
329.708 88.0853 52.0933 319.638 86.6134 53.117 330.313 88.5006 52.7059 
346.004 90.2449 52.3753 346.189 91.5218 52.4152 336.604 92.3338 51.7794 
337.124 92.0633 52.6679 346.37 93.8504 52.0163 339.748 80.1401 53.7309 
341.76 81.6395 53.8073 320.548 81.9942 54.4209 320.291 82.6522 54.3913 
319.582 84.5535 53.8849 344.16 85.9824 54.2402 319.26 85.9512 53.4911 
319.225 86.125 53.262 319.363 86.3798 53.4152 320.284 86.868 53.2449 
320.551 86.9073 53.4364 321.085 86.9013 53.5298 344.93 88.1318 53.4841 
319.86 86.7488 53.486 320.22 86.871 53.5074 332.387 89.4668 53.4529 
345.871 91.7743 52.7323 344.371 92.2271 53.4636 344.996 92.2208 53.238 
341.095 79.9354 55.409 342.221 81.6161 55.0448 342.399 81.8501 55.2534 
320.25 83.0914 54.6582 343.698 84.6206 54.5051 319.616 84.9367 54.0863 
319.828 85.1131 54.4248 319.394 86.232 53.6276 319.532 86.4637 53.661 
325.491 87.2572 53.9473 344.607 87.6883 53.9896 319.808 86.62 53.765 
323.201 87.0319 54.4565 333.656 89.1792 54.6477 344.137 88.5988 54.6727 
337.093 89.5773 55.2464 345.478 91.3926 53.0935 338.609 77.331 55.9398 
339.851 77.9769 56.4414 321.337 80.6195 55.5783 320.851 82.0689 55.5852 
320.473 83.73 55.2882 319.942 85.4641 54.5262 343.635 85.4869 55.3718 
320.272 85.6525 54.7736 319.926 85.9132 54.3499 322.678 86.6225 55.1865 
322.113 86.3828 55.3127 343.649 86.6522 55.5053 343.264 86.7384 55.9402 
320.779 86.4955 54.5094 320.611 86.7517 54.0976 322.82 86.9087 54.7437 
324.329 86.9484 54.9996 343.653 88.5492 55.1493 341.958 89.2679 55.7028 
343.067 89.6693 55.082 336.57 74.9327 57.1433 338.907 76.1608 57.51 
339.825 77.1782 57.6672 321.089 82.6971 56.2658 321.273 83.1467 56.4967 
342.435 83.5181 57.1461 324.922 85.532 57.0244 343.505 85.7807 55.6896 
343.145 85.8617 56.1672 342.665 87.1882 56.3279 326.643 72.7929 58.17 
335.526 74.0573 57.6029 339.043 75.5658 58.4446 338.625 75.0168 58.5273 
339.967 77.0071 58.6792 341.201 79.5005 57.293 322.493 79.6553 58.0178 
341.311 80.2162 58.2378 321.973 83.8602 57.0353 341.137 86.2101 57.6085 
341.692 86.2032 57.3966 340.696 87.6181 56.9368 326.611 71.951 59.7706 
328.265 71.3678 59.431 332.833 72.1108 59.0602 338.369 74.1105 59.5453 
338.594 74.37 59.3883 339.669 76.1422 59.4518 341.593 80.9667 58.076 
321.944 82.6444 57.4877 342.152 85.557 57.29 327.921 71.1228 59.9392 
332.37 71.7455 59.5471 336.755 72.9952 60.15 338.609 74.3092 59.6935 
323.26 79.6313 59.4115 340.849 80.8456 59.3729 323.343 81.2508 59.1183 
324.216 82.0531 59.4084 325.691 82.3897 59.7311 327.819 70.7793 60.9195 
327.856 70.6484 61.3121 329.29 70.512 60.742 329.171 70.4743 60.9219 
326.867 71.4381 60.943 333.392 71.77 60.7175 333.13 71.703 60.9629 
337.708 73.6911 61.1088 339.451 75.7301 60.5601 339.601 77.2518 61.5399 
339.972 80.4636 60.5328 323.95 81.6092 59.4803 328.337 70.5415 61.6038 
328.931 70.6236 61.8231 326.958 71.5656 62.1809 332.421 71.692 61.7418 
333.745 72.4527 62.3025 338.747 74.715 61.1111 324.253 78.993 60.908 
323.976 79.2961 60.5378 339.088 81.2305 60.9681 327.815 70.7982 61.8767 
327.373 71.4828 62.7158 327.156 71.5566 62.7668 330.747 71.7811 62.9577 
333.697 72.8458 62.9154 338.283 75.1042 62.1954 337.833 75.3395 62.8374 
[...]
POINT_DATA 907
COLOR_SCALARS scalars 3
0.00392157 0.576471 0.6 0.00392157 0.576471 0.6 0.00392157 0.576471 0.6 
0.00392157 0.576471 0.6 0.00392157 0.576471 0.6 
0.00392157 0.576471 0.6 0.00392157 0.576471 0.6 
0.00392157 0.576471 0.6 0.00392157 0.576471 0.6 
0.00392157 0.576471 0.6 0.00392157 0.576471 0.6 
0.00392157 0.576471 0.6 0.00392157 0.576471 0.6 
0.00392157 0.576471 0.6 0.00392157 0.576471 0.6 
0.00392157 0.576471 0.6 0.00392157 0.576471 0.6 
0.00392157 0.576471 0.6 0.00392157 0.576471 0.6 
0.00392157 0.576471 0.6 0.00392157 0.576471 0.6 
0.00392157 0.576471 0.6 0.00392157 0.576471 0.6 
0.00392157 0.576471 0.6 0.00392157 0.576471 0.6 
0.00392157 0.576471 0.6 0.00392157 0.576471 0.6 
0.00392157 0.576471 0.6 0.00392157 0.576471 0.6 
0.00392157 0.576471 0.6 0.00392157 0.576471 0.6 
0.00392157 0.576471 0.6 0.00392157 0.576471 0.6 
0.00392157 0.576471 0.6 0.00392157 0.576471 0.6 
0.00392157 0.576471 0.6 0.00392157 0.576471 0.6 
0.00392157 0.576471 0.6 0.00392157 0.576471 0.6 
0.00392157 0.576471 0.6 0.00392157 0.576471 0.6 
0.00392157 0.576471 0.6 0.00392157 0.576471 0.6 
0.00392157 0.576471 0.6 0.00392157 0.576471 0.6 
0.00392157 0.576471 0.6 0.00392157 0.576471 0.6 
0.00392157 0.576471 0.6 0.00392157 0.576471 0.6 
0.00392157 0.576471 0.6 0.00392157 0.576471 0.6 
0.00392157 0.576471 0.6 0.00392157 0.576471 0.6 
0.00392157 0.576471 0.6 0.00392157 0.576471 0.6 
0.00392157 0.576471 0.6 0.00392157 0.576471 0.6 
0.00392157 0.576471 0.6 0.00392157 0.576471 0.6 
0.00392157 0.576471 0.6 0.00392157 0.576471 0.6 
0.00392157 0.576471 0.6 0.00392157 0.576471 0.6 
0.00392157 0.576471 0.6 0.00392157 0.576471 0.6 
0.00392157 0.576471 0.6 0.00392157 0.576471 0.6 
0.00392157 0.576471 0.6 0.00392157 0.576471 0.6 
0.00392157 0.576471 0.6 0.00392157 0.576471 0.6 
0.00392157 0.576471 0.6 0.00392157 0.576471 0.6 
0.00392157 0.576471 0.6 0.00392157 0.576471 0.6 
0.00392157 0.576471 0.6 0.00392157 0.576471 0.6 
0.00392157 0.576471 0.6 0.00392157 0.576471 0.6 
0.00392157 0.576471 0.6 0.00392157 0.576471 0.6 
0.00392157 0.576471 0.6 0.00392157 0.576471 0.6 
0.00392157 0.576471 0.6 0.00392157 0.576471 0.6 
0.00392157 0.576471 0.6 0.00392157 0.576471 0.6 
0.00392157 0.576471 0.6 0.00392157 0.576471 0.6 
0.00392157 0.576471 0.6 0.00392157 0.576471 0.6 
0.00392157 0.576471 0.6 0.00392157 0.576471 0.6 
0.00392157 0.576471 0.6 0.00392157 0.576471 0.6 
0.00392157 0.576471 0.6 0.00392157 0.576471 0.6 
0.00392157 0.576471 0.6 0.00392157 0.576471 0.6 
0.00392157 0.576471 0.6 0.00392157 0.576471 0.6 
0.00392157 0.576471 0.6 0.00392157 0.576471 0.6 
0.00392157 0.576471 0.6 0.00392157 0.576471 0.6 
0.00392157 0.576471 0.6 0.00392157 0.576471 0.6 
0.00392157 0.576471 0.6 0.00392157 0.576471 0.6 
0.00392157 0.576471 0.6 0.00392157 0.576471 0.6 
0.00392157 0.576471 0.6 0.00392157 0.576471 0.6 
0.00392157 0.576471 0.6 0.00392157 0.576471 0.6 
0.00392157 0.576471 0.6 0.00392157 0.576471 0.6 
0.00392157 0.576471 0.6 0.00392157 0.576471 0.6 
0.00392157 0.576471 0.6 0.00392157 0.576471 0.6 
0.00392157 0.576471 0.6 0.00392157 0.576471 0.6 
0.00392157 0.576471 0.6 0.00392157 0.576471 0.6 
0.00392157 0.576471 0.6 0.00392157 0.576471 0.6 
0.00392157 0.576471 0.6 0.00392157 0.576471 0.6 
0.00392157 0.576471 0.6 0.00392157 0.576471 0.6 
0.00392157 0.576471 0.6 0.00392157 0.576471 0.6 
0.00392157 0.576471 0.6 0.00392157 0.576471 0.6 
0.00392157 0.576471 0.6 0.00392157 0.576471 0.6 
0.00392157 0.576471 0.6 0.00392157 0.576471 0.6 
0.00392157 0.576471 0.6 0.00392157 0.576471 0.6 
0.00392157 0.576471 0.6 0.00392157 0.576471 0.6 
0.00392157 0.576471 0.6 0.00392157 0.576471 0.6 
0.00392157 0.576471 0.6 0.00392157 0.576471 0.6 
0.00392157 0.576471 0.6 0.00392157 0.576471 0.6 
0.00392157 0.576471 0.6 0.00392157 0.576471 0.6 
0.00392157 0.576471 0.6 0.00392157 0.576471 0.6 
0.00392157 0.576471 0.6 0.00392157 0.576471 0.6 
0.00392157 0.576471 0.6 0.00392157 0.576471 0.6 
0.00392157 0.576471 0.6 0.00392157 0.576471 0.6 
0.00392157 0.576471 0.6 0.00392157 0.576471 0.6 
0.00392157 0.576471 0.6 0.00392157 0.576471 0.6 
0.00392157 0.576471 0.6 0.00392157 0.576471 0.6 
0.00392157 0.576471 0.6 0.00392157 0.576471 0.6 
0.00392157 0.576471 0.6 0.00392157 0.576471 0.6 
0.00392157 0.576471 0.6 0.00392157 0.576471 0.6 
0.00392157 0.576471 0.6 0.00392157 0.576471 0.6 
0.00392157 0.576471 0.6 0.00392157 0.576471 0.6 
0.00392157 0.576471 0.6 0.00392157 0.576471 0.6 
0.00392157 0.576471 0.6 0.00392157 0.576471 0.6 
0.00392157 0.576471 0.6 0.00392157 0.576471 0.6 
0.00392157 0.576471 0.6 0.00392157 0.576471 0.6 
0.00392157 0.576471 0.6 0.00392157 0.576471 0.6 
0.00392157 0.576471 0.6 0.00392157 0.576471 0.6 
0.00392157 0.576471 0.6 0.00392157 0.576471 0.6 
0.00392157 0.576471 0.6 0.00392157 0.576471 0.6 
0.00392157 0.576471 0.6 0.00392157 0.576471 0.6 
0.00392157 0.576471 0.6 0.00392157 0.576471 0.6 
0.00392157 0.576471 0.6 0.00392157 0.576471 0.6 
0.00392157 0.576471 0.6 0.00392157 0.576471 0.6 
0.00392157 0.576471 0.6 0.00392157 0.576471 0.6 
0.00392157 0.576471 0.6 0.00392157 0.576471 0.6 
0.00392157 0.576471 0.6 0.00392157 0.576471 0.6 
0.00392157 0.576471 0.6 0.00392157 0.576471 0.6 
0.00392157 0.576471 0.6 0.00392157 0.576471 0.6 
0.00392157 0.576471 0.6 0.00392157 0.576471 0.6 
0.00392157 0.576471 0.6 0.00392157 0.576471 0.6 
0.00392157 0.576471 0.6 0.00392157 0.576471 0.6 
0.00392157 0.576471 0.6 0.00392157 0.576471 0.6 
0.00392157 0.576471 0.6 0.00392157 0.576471 0.6 
0.00392157 0.576471 0.6 0.00392157 0.576471 0.6 
0.00392157 0.576471 0.6 0.00392157 0.576471 0.6 
0.00392157 0.576471 0.6 0.00392157 0.576471 0.6 
0.00392157 0.576471 0.6 0.00392157 0.576471 0.6 
0.00392157 0.576471 0.6 0.00392157 0.576471 0.6 
0.00392157 0.576471 0.6 0.00392157 0.576471 0.6 
0.00392157 0.576471 0.6 0.00392157 0.576471 0.6 
0.00392157 0.576471 0.6 0.00392157 0.576471 0.6 
0.00392157 0.576471 0.6 0.00392157 0.576471 0.6 
0.00392157 0.576471 0.6 0.00392157 0.576471 0.6 
0.00392157 0.576471 0.6 0.00392157 0.576471 0.6 
0.00392157 0.576471 0.6 0.00392157 0.576471 0.6 
0.00392157 0.576471 0.6 0.00392157 0.576471 0.6 
0.00392157 0.576471 0.6 0.00392157 0.576471 0.6 
0.00392157 0.576471 0.6 0.00392157 0.576471 0.6 
0.00392157 0.576471 0.6 0.00392157 0.576471 0.6 
0.00392157 0.576471 0.6 0.00392157 0.576471 0.6 
0.00392157 0.576471 0.6 0.00392157 0.576471 0.6 
0.00392157 0.576471 0.6 0.00392157 0.576471 0.6 
0.00392157 0.576471 0.6 0.00392157 0.576471 0.6 
0.00392157 0.576471 0.6 0.00392157 0.576471 0.6 
0.00392157 0.576471 0.6 0.00392157 0.576471 0.6 
0.00392157 0.576471 0.6 0.00392157 0.576471 0.6 
0.00392157 0.576471 0.6 0.00392157 0.576471 0.6 
0.00392157 0.576471 0.6 0.00392157 0.576471 0.6 
0.00392157 0.576471 0.6 0.00392157 0.576471 0.6 
0.00392157 0.576471 0.6 0.00392157 0.576471 0.6 
0.00392157 0.576471 0.6 0.00392157 0.576471 0.6 
0.00392157 0.576471 0.6 0.00392157 0.576471 0.6 
0.00392157 0.576471 0.6 0.00392157 0.576471 0.6 
0.00392157 0.576471 0.6 0.00392157 0.576471 0.6 
0.00392157 0.576471 0.6 0.00392157 0.576471 0.6 
0.00392157 0.576471 0.6 0.00392157 0.576471 0.6 
0.00392157 0.576471 0.6 0.00392157 0.576471 0.6 
0.00392157 0.576471 0.6 0.00392157 0.576471 0.6 
0.00392157 0.576471 0.6 0.00392157 0.576471 0.6 
0.00392157 0.576471 0.6 0.00392157 0.576471 0.6 
0.00392157 0.576471 0.6 0.00392157 0.576471 0.6 
0.00392157 0.576471 0.6 0.00392157 0.576471 0.6 
0.00392157 0.576471 0.6 0.00392157 0.576471 0.6 
0.00392157 0.576471 0.6 0.00392157 0.576471 0.6 
0.00392157 0.576471 0.6 0.00392157 0.576471 0.6 
0.00392157 0.576471 0.6 0.00392157 0.576471 0.6 
0.00392157 0.576471 0.6 0.00392157 0.576471 0.6 
0.00392157 0.576471 0.6 0.00392157 0.576471 0.6 
0.00392157 0.576471 0.6 0.00392157 0.576471 0.6 
0.00392157 0.576471 0.6 0.00392157 0.576471 0.6 
0.00392157 0.576471 0.6 0.00392157 0.576471 0.6 
0.00392157 0.576471 0.6 0.00392157 0.576471 0.6 
0.00392157 0.576471 0.6 0.00392157 0.576471 0.6 
0.00392157 0.576471 0.6 0.00392157 0.576471 0.6 
0.00392157 0.576471 0.6 0.00392157 0.576471 0.6 
0.00392157 0.576471 0.6 0.00392157 0.576471 0.6 
0.00392157 0.576471 0.6 0.00392157 0.576471 0.6 
0.00392157 0.576471 0.6 0.00392157 0.576471 0.6 
0.00392157 0.576471 0.6 0.00392157 0.576471 0.6 
0.00392157 0.576471 0.6 0.00392157 0.576471 0.6 
0.00392157 0.576471 0.6 0.00392157 0.576471 0.6 
0.00392157 0.576471 0.6 0.00392157 0.576471 0.6 
0.00392157 0.576471 0.6 0.00392157 0.576471 0.6 
0.00392157 0.576471 0.6 0.00392157 0.576471 0.6 
0.00392157 0.576471 0.6 0.00392157 0.576471 0.6 
0.00392157 0.576471 0.6 0.00392157 0.576471 0.6 
0.00392157 0.576471 0.6 0.00392157 0.576471 0.6 
0.00392157 0.576471 0.6 0.00392157 0.576471 0.6 
0.00392157 0.576471 0.6 0.00392157 0.576471 0.6 
0.00392157 0.576471 0.6 0.00392157 0.576471 0.6 
0.00392157 0.576471 0.6 0.00392157 0.576471 0.6 
0.00392157 0.576471 0.6 0.00392157 0.576471 0.6 
0.00392157 0.576471 0.6 0.00392157 0.576471 0.6 
0.00392157 0.576471 0.6 0.00392157 0.576471 0.6 
0.00392157 0.576471 0.6 0.00392157 0.576471 0.6 
0.00392157 0.576471 0.6 0.00392157 0.576471 0.6 
0.00392157 0.576471 0.6 0.00392157 0.576471 0.6 
0.00392157 0.576471 0.6 0.00392157 0.576471 0.6 
0.00392157 0.576471 0.6 0.00392157 0.576471 0.6 
0.00392157 0.576471 0.6 0.00392157 0.576471 0.6 
0.00392157 0.576471 0.6 0.00392157 0.576471 0.6 
0.00392157 0.576471 0.6 0.00392157 0.576471 0.6 
0.00392157 0.576471 0.6 0.00392157 0.576471 0.6 
0.00392157 0.576471 0.6 0.00392157 0.576471 0.6 
0.00392157 0.576471 0.6 0.00392157 0.576471 0.6 
0.00392157 0.576471 0.6 0.00392157 0.576471 0.6 
0.00392157 0.576471 0.6 0.00392157 0.576471 0.6 
0.00392157 0.576471 0.6 0.00392157 0.576471 0.6 
0.00392157 0.576471 0.6 0.00392157 0.576471 0.6 
0.00392157 0.576471 0.6 0.00392157 0.576471 0.6 
0.00392157 0.576471 0.6 0.00392157 0.576471 0.6 
0.00392157 0.576471 0.6 0.00392157 0.576471 0.6 
0.00392157 0.576471 0.6 0.00392157 0.576471 0.6 
0.00392157 0.576471 0.6 0.00392157 0.576471 0.6 
0.00392157 0.576471 0.6 0.00392157 0.576471 0.6 
0.00392157 0.576471 0.6 0.00392157 0.576471 0.6 
0.00392157 0.576471 0.6 0.00392157 0.576471 0.6 
0.00392157 0.576471 0.6 0.00392157 0.576471 0.6 
0.00392157 0.576471 0.6 0.00392157 0.576471 0.6 
0.00392157 0.576471 0.6 0.00392157 0.576471 0.6 
0.00392157 0.576471 0.6 0.00392157 0.576471 0.6 
0.00392157 0.576471 0.6 0.00392157 0.576471 0.6 
0.00392157 0.576471 0.6 0.00392157 0.576471 0.6 
0.00392157 0.576471 0.6 0.00392157 0.576471 0.6 
0.00392157 0.576471 0.6 0.00392157 0.576471 0.6 
0.00392157 0.576471 0.6 0.00392157 0.576471 0.6 
0.00392157 0.576471 0.6 0.00392157 0.576471 0.6 
0.00392157 0.576471 0.6 0.00392157 0.576471 0.6 
0.00392157 0.576471 0.6 0.00392157 0.576471 0.6 
0.00392157 0.576471 0.6 0.00392157 0.576471 0.6 
0.00392157 0.576471 0.6 0.00392157 0.576471 0.6 
0.00392157 0.576471 0.6 0.00392157 0.576471 0.6 
0.00392157 0.576471 0.6 0.00392157 0.576471 0.6 
0.00392157 0.576471 0.6 0.00392157 0.576471 0.6 
0.00392157 0.576471 0.6 0.00392157 0.576471 0.6 
0.00392157 0.576471 0.6 0.00392157 0.576471 0.6 
0.00392157 0.576471 0.6 0.00392157 0.576471 0.6 
0.00392157 0.576471 0.6 0.00392157 0.576471 0.6 
0.00392157 0.576471 0.6 0.00392157 0.576471 0.6 
0.00392157 0.576471 0.6 0.00392157 0.576471 0.6 
0.00392157 0.576471 0.6 0.00392157 0.576471 0.6 
0.00392157 0.576471 0.6 0.00392157 0.576471 0.6 
0.00392157 0.576471 0.6 0.00392157 0.576471 0.6 
0.00392157 0.576471 0.6 0.00392157 0.576471 0.6 
0.00392157 0.576471 0.6 0.00392157 0.576471 0.6 
0.00392157 0.576471 0.6 0.00392157 0.576471 0.6 
0.00392157 0.576471 0.6 0.00392157 0.576471 0.6 
0.00392157 0.576471 0.6 0.00392157 0.576471 0.6 
0.00392157 0.576471 0.6 0.00392157 0.576471 0.6 
0.00392157 0.576471 0.6 0.00392157 0.576471 0.6 
0.00392157 0.576471 0.6 0.00392157 0.576471 0.6 
0.00392157 0.576471 0.6 0.00392157 0.576471 0.6 
0.00392157 0.576471 0.6 0.00392157 0.576471 0.6 
0.00392157 0.576471 0.6 0.00392157 0.576471 0.6 
0.00392157 0.576471 0.6 0.00392157 0.576471 0.6 
0.00392157 0.576471 0.6 0.00392157 0.576471 0.6 
0.00392157 0.576471 0.6 0.00392157 0.576471 0.6 
0.00392157 0.576471 0.6 0.00392157 0.576471 0.6 
0.00392157 0.576471 0.6 0.00392157 0.576471 0.6 
0.00392157 0.576471 0.6 0.00392157 0.576471 0.6 
0.00392157 0.576471 0.6 0.00392157 0.576471 0.6 
0.00392157 0.576471 0.6 0.00392157 0.576471 0.6 
0.00392157 0.576471 0.6 0.00392157 0.576471 0.6 
0.00392157 0.576471 0.6 0.00392157 0.576471 0.6 
0.00392157 0.576471 0.6 0.00392157 0.576471 0.6 
0.00392157 0.576471 0.6 0.00392157 0.576471 0.6 
0.00392157 0.576471 0.6 0.00392157 0.576471 0.6 
0.00392157 0.576471 0.6 0.00392157 0.576471 0.6 
0.00392157 0.576471 0.6 0.00392157 0.576471 0.6 
0.00392157 0.576471 0.6 0.00392157 0.576471 0.6 
0.00392157 0.576471 0.6 0.00392157 0.576471 0.6 
0.00392157 0.576471 0.6 0.00392157 0.576471 0.6 
0.00392157 0.576471 0.6 0.00392157 0.576471 0.6 
0.00392157 0.576471 0.6 0.00392157 0.576471 0.6 
0.00392157 0.576471 0.6 0.00392157 0.576471 0.6 
0.00392157 0.576471 0.6 0.00392157 0.576471 0.6 
0.00392157 0.576471 0.6 0.00392157 0.576471 0.6 
0.00392157 0.576471 0.6 0.00392157 0.576471 0.6 
0.00392157 0.576471 0.6 0.00392157 0.576471 0.6 
0.00392157 0.576471 0.6 0.00392157 0.576471 0.6 
0.00392157 0.576471 0.6 0.00392157 0.576471 0.6 
0.00392157 0.576471 0.6 0.00392157 0.576471 0.6 
0.00392157 0.576471 0.6 0.00392157 0.576471 0.6 
0.00392157 0.576471 0.6 0.00392157 0.576471 0.6 
0.00392157 0.576471 0.6 0.00392157 0.576471 0.6 
0.00392157 0.576471 0.6 0.00392157 0.576471 0.6 
0.00392157 0.576471 0.6 0.00392157 0.576471 0.6 
0.00392157 0.576471 0.6 0.00392157 0.576471 0.6 
0.00392157 0.576471 0.6 0.00392157 0.576471 0.6 
0.00392157 0.576471 0.6 0.00392157 0.576471 0.6 
0.00392157 0.576471 0.6 0.00392157 0.576471 0.6 
0.00392157 0.576471 0.6 0.00392157 0.576471 0.6 
0.00392157 0.576471 0.6 0.00392157 0.576471 0.6 
0.00392157 0.576471 0.6 0.00392157 0.576471 0.6 
0.00392157 0.576471 0.6 0.00392157 0.576471 0.6 
0.00392157 0.576471 0.6 0.00392157 0.576471 0.6 
0.00392157 0.576471 0.6 0.00392157 0.576471 0.6 
0.00392157 0.576471 0.6 0.00392157 0.576471 0.6 
0.00392157 0.576471 0.6 0.00392157 0.576471 0.6 
0.00392157 0.576471 0.6 0.00392157 0.576471 0.6 
0.00392157 0.576471 0.6 0.00392157 0.576471 0.6 
0.00392157 0.576471 0.6 0.00392157 0.576471 0.6 
0.00392157 0.576471 0.6 0.00392157 0.576471 0.6 
0.00392157 0.576471 0.6 0.00392157 0.576471 0.6 
0.00392157 0.576471 0.6 0.00392157 0.576471 0.6 
0.00392157 0.576471 0.6 0.00392157 0.576471 0.6 
0.00392157 0.576471 0.6 0.00392157 0.576471 0.6 
0.00392157 0.576471 0.6 0.00392157 0.576471 0.6 
0.00392157 0.576471 0.6 0.00392157 0.576471 0.6 
0.00392157 0.576471 0.6 0.00392157 0.576471 0.6 
0.00392157 0.576471 0.6 0.00392157 0.576471 0.6 
0.00392157 0.576471 0.6 0.00392157 0.576471 0.6 
0.00392157 0.576471 0.6 0.00392157 0.576471 0.6 
0.00392157 0.576471 0.6 0.00392157 0.576471 0.6 
0.00392157 0.576471 0.6 0.00392157 0.576471 0.6 
0.00392157 0.576471 0.6 0.00392157 0.576471 0.6 
0.00392157 0.576471 0.6 0.00392157 0.576471 0.6 
0.00392157 0.576471 0.6 0.00392157 0.576471 0.6 
0.00392157 0.576471 0.6 0.00392157 0.576471 0.6 
0.00392157 0.576471 0.6 0.00392157 0.576471 0.6 
0.00392157 0.576471 0.6 0.00392157 0.576471 0.6 
0.00392157 0.576471 0.6 0.00392157 0.576471 0.6 
0.00392157 0.576471 0.6 0.00392157 0.576471 0.6 
0.00392157 0.576471 0.6 0.00392157 0.576471 0.6 
0.00392157 0.576471 0.6 0.00392157 0.576471 0.6 
0.00392157 0.576471 0.6 0.00392157 0.576471 0.6 
0.00392157 0.576471 0.6 0.00392157 0.576471 0.6 
0.00392157 0.576471 0.6 0.00392157 0.576471 0.6 
0.00392157 0.576471 0.6 0.00392157 0.576471 0.6 
0.00392157 0.576471 0.6 0.00392157 0.576471 0.6 
0.00392157 0.576471 0.6 0.00392157 0.576471 0.6 
0.00392157 0.576471 0.6 0.00392157 0.576471 0.6 
0.00392157 0.576471 0.6 0.00392157 0.576471 0.6 
0.00392157 0.576471 0.6 0.00392157 0.576471 0.6 
0.00392157 0.576471 0.6 0.00392157 0.576471 0.6 
0.00392157 0.576471 0.6 0.00392157 0.576471 0.6 
0.00392157 0.576471 0.6 0.00392157 0.576471 0.6 
0.00392157 0.576471 0.6 0.00392157 0.576471 0.6 
0.00392157 0.576471 0.6 0.00392157 0.576471 0.6 
0.00392157 0.576471 0.6 0.00392157 0.576471 0.6 
0.00392157 0.576471 0.6 0.00392157 0.576471 0.6 
0.00392157 0.576471 0.6 0.00392157 0.576471 0.6 
0.00392157 0.576471 0.6 0.00392157 0.576471 0.6 
0.00392157 0.576471 0.6 0.00392157 0.576471 0.6 
0.00392157 0.576471 0.6 0.00392157 0.576471 0.6 
0.00392157 0.576471 0.6 0.00392157 0.576471 0.6 
0.00392157 0.576471 0.6 0.00392157 0.576471 0.6 
0.00392157 0.576471 0.6 0.00392157 0.576471 0.6 
0.00392157 0.576471 0.6 0.00392157 0.576471 0.6 
0.00392157 0.576471 0.6 0.00392157 0.576471 0.6 
0.00392157 0.576471 0.6 0.00392157 0.576471 0.6 
0.00392157 0.576471 0.6 0.00392157 0.576471 0.6 
0.00392157 0.576471 0.6 0.00392157 0.576471 0.6 
0.00392157 0.576471 0.6 0.00392157 0.576471 0.6 
0.00392157 0.576471 0.6 0.00392157 0.576471 0.6 
0.00392157 0.576471 0.6 0.00392157 0.576471 0.6 
0.00392157 0.576471 0.6 0.00392157 0.576471 0.6 
0.00392157 0.576471 0.6 0.00392157 0.576471 0.6 
0.00392157 0.576471 0.6 0.00392157 0.576471 0.6 
0.00392157 0.576471 0.6 0.00392157 0.576471 0.6 
0.00392157 0.576471 0.6 0.00392157 0.576471 0.6 
0.00392157 0.576471 0.6 0.00392157 0.576471 0.6 
0.00392157 0.576471 0.6 0.00392157 0.576471 0.6 
0.00392157 0.576471 0.6 0.00392157 0.576471 0.6 
0.00392157 0.576471 0.6 0.00392157 0.576471 0.6 
0.00392157 0.576471 0.6 0.00392157 0.576471 0.6 
0.00392157 0.576471 0.6 0.00392157 0.576471 0.6 
0.00392157 0.576471 0.6 0.00392157 0.576471 0.6 
0.00392157 0.576471 0.6 0.00392157 0.576471 0.6 
0.00392157 0.576471 0.6 0.00392157 0.576471 0.6 
0.00392157 0.576471 0.6 0.00392157 0.576471 0.6 
0.00392157 0.576471 0.6 0.00392157 0.576471 0.6 
0.00392157 0.576471 0.6 0.00392157 0.576471 0.6 
0.00392157 0.576471 0.6 0.00392157 0.576471 0.6 
0.00392157 0.576471 0.6 0.00392157 0.576471 0.6 
0.00392157 0.576471 0.6 0.00392157 0.576471 0.6 
0.00392157 0.576471 0.6 0.00392157 0.576471 0.6 
0.00392157 0.576471 0.6 0.00392157 0.576471 0.6 
0.00392157 0.576471 0.6 0.00392157 0.576471 0.6 
0.00392157 0.576471 0.6 0.00392157 0.576471 0.6 
0.00392157 0.576471 0.6 0.00392157 0.576471 0.6 
0.00392157 0.576471 0.6 0.00392157 0.576471 0.6 
0.00392157 0.576471 0.6 0.00392157 0.576471 0.6 
0.00392157 0.576471 0.6 0.00392157 0.576471 0.6 
0.00392157 0.576471 0.6 0.00392157 0.576471 0.6 
0.00392157 0.576471 0.6 0.00392157 0.576471 0.6 
0.00392157 0.576471 0.6 0.00392157 0.576471 0.6 
0.00392157 0.576471 0.6 0.00392157 0.576471 0.6 
0.00392157 0.576471 0.6 0.00392157 0.576471 0.6 
0.00392157 0.576471 0.6 0.00392157 0.576471 0.6 
0.00392157 0.576471 0.6 0.00392157 0.576471 0.6 
0.00392157 0.576471 0.6 0.00392157 0.576471 0.6 
0.00392157 0.576471 0.6 0.00392157 0.576471 0.6 
0.00392157 0.576471 0.6 0.00392157 0.576471 0.6 
0.00392157 0.576471 0.6 0.00392157 0.576471 0.6 
0.00392157 0.576471 0.6 0.00392157 0.576471 0.6 
0.00392157 0.576471 0.6 0.00392157 0.576471 0.6 
0.00392157 0.576471 0.6 0.00392157 0.576471 0.6 
0.00392157 0.576471 0.6 0.00392157 0.576471 0.6 
0.00392157 0.576471 0.6 0.00392157 0.576471 0.6 
0.00392157 0.576471 0.6 0.00392157 0.576471 0.6 
0.00392157 0.576471 0.6 0.00392157 0.576471 0.6 
0.00392157 0.576471 0.6 0.00392157 0.576471 0.6 
0.00392157 0.576471 0.6 0.00392157 0.576471 0.6 
0.00392157 0.576471 0.6 0.00392157 0.576471 0.6 
0.00392157 0.576471 0.6 0.00392157 0.576471 0.6 
0.00392157 0.576471 0.6 0.00392157 0.576471 0.6 
0.00392157 0.576471 0.6 0.00392157 0.576471 0.6 
0.00392157 0.576471 0.6 0.00392157 0.576471 0.6 
0.00392157 0.576471 0.6 0.00392157 0.576471 0.6 
0.00392157 0.576471 0.6 0.00392157 0.576471 0.6 
0.00392157 0.576471 0.6 0.00392157 0.576471 0.6 
0.00392157 0.576471 0.6 0.00392157 0.576471 0.6 
0.00392157 0.576471 0.6 0.00392157 0.576471 0.6 
0.00392157 0.576471 0.6 0.00392157 0.576471 0.6 
0.00392157 0.576471 0.6 0.00392157 0.576471 0.6 
0.00392157 0.576471 0.6 0.00392157 0.576471 0.6 
0.00392157 0.576471 0.6 0.00392157 0.576471 0.6 
0.00392157 0.576471 0.6 0.00392157 0.576471 0.6 
0.00392157 0.576471 0.6 0.00392157 0.576471 0.6 