# vtk DataFile Version 4.2
vtk output
ASCII
DATASET POLYDATA
POINTS 1036 float
353.192 109.419 34.2095 353.272 109.699 34.241 353.258 109.931 34.302 
353.375 109.847 34.3292 348.527 104.819 34.6002 348.621 104.724 34.5671 
348.677 104.937 34.5614 349.855 105.893 34.1862 349.763 105.706 34.2214 
349.706 105.87 34.2566 351.196 106.933 34.0481 352.56 107.217 34.1987 
352.053 108.912 34.3948 353.379 108.933 34.5513 353.478 109.412 34.6101 
353.382 110.035 34.4049 353.281 110.155 34.4636 353.403 110.14 34.5701 
347.966 103.063 35.2401 348.554 104.287 34.7045 350.268 103.935 34.4918 
351.207 104.572 34.4391 349.404 105.563 34.3864 350.663 106.331 34.1824 
352.661 105.915 34.6709 353.007 106.439 34.9164 350.76 107.632 34.5015 
351.398 108.585 34.6624 353.402 108.302 34.9011 352.164 109.504 34.9292 
352.953 110.088 34.5727 353.146 110.21 34.5619 353.455 110.076 34.8378 
353.308 110.328 34.7439 348.116 101.884 35.455 348.748 101.214 35.501 
347.43 103.209 35.8495 347.879 104.068 35.2665 347.597 103.883 35.7264 
352.06 103.15 35.2945 352.623 103.986 35.4125 347.713 104.525 35.8517 
352.112 104.588 34.7444 349.684 107.028 35.1434 351.632 109.169 35.3294 
353.199 110.427 34.9826 353.351 110.515 34.9349 353.337 110.549 35.0244 
353.39 110.555 34.9942 345.573 98.1 37.4157 347.683 99.8624 36.2198 
346.765 101.086 36.4995 347.088 101.681 36.2227 351.731 100.906 36.3725 
352.756 101.983 36.781 347.3 103.394 36.2072 352.901 102.881 36.4656 
353.218 104.868 36.231 348.133 105.546 35.9128 348.757 106.412 35.8777 
353.362 109.258 35.6116 352.095 109.402 35.7279 353.324 109.876 35.4314 
352.943 110.175 35.3408 353.093 110.348 35.1857 353.26 110.426 35.1688 
353.373 110.507 35.0669 344.357 96.2622 38.2659 347.52 97.1573 37.3058 
350.681 99.9251 36.4601 347.441 104.102 36.7815 348.884 106.692 36.2169 
348.895 106.688 36.4865 349.608 107.3 36.1931 350.255 107.77 36.3187 
352.08 109.075 36.1879 353.204 110.159 35.3981 343.257 95.363 39.2601 
344.925 94.8434 38.4722 346.334 95.6277 38.0028 348.223 96.3907 37.7526 
344.634 96.9122 38.1496 344.187 96.9139 38.5499 352.974 101.634 37.6974 
353.089 102.068 37.7917 353.027 102.127 38.2002 353 101.653 38.0589 
346.539 102.108 37.9491 353.146 102.535 37.7376 347.482 103.93 37.4235 
353.241 104.122 37.4386 353.201 104.676 37.5329 348.263 105.525 37.1766 
349.35 106.394 37.4907 349.794 106.951 37.2275 353.066 107.043 36.9095 
349.211 106.907 36.6137 350.208 107.016 37.423 351.241 107.379 37.4595 
342.953 92.3557 39.7748 343.655 93.5182 39.2405 342.786 94.5129 39.7029 
349.806 96.0833 38.5007 350.26 95.3215 39.278 351.051 95.8014 39.9267 
343.506 96.2087 39.1631 351.443 96.9305 39.7074 344.313 97.8548 38.9691 
352.872 101.204 38.0622 346.889 102.592 38.2662 347.425 103.324 38.2698 
347.983 103.765 38.5862 353.108 103.479 37.9529 352.812 103.773 38.4092 
352.593 104.677 38.4035 351.886 105.349 38.5946 352.387 106.375 37.8014 
352.798 106.696 37.379 343.561 91.5065 39.9795 341.985 92.2579 40.3551 
346.965 92.2517 39.8318 342.26 94.0505 40.1463 342.7 95.1611 40.1124 
350.989 95.0546 40.5413 342.979 95.8782 40.2573 344.123 97.8037 39.6392 
345.09 99.4296 39.5119 352.372 100.184 39.5719 346.743 101.912 39.0658 
348.355 103.141 39.4436 349.32 103.309 39.7302 339.318 88.2407 42.1677 
339.994 88.1892 41.896 339.362 89.6697 42.2466 340.557 90.1988 41.4364 
345.965 90.2544 40.8736 349.372 92.011 41.2702 349.87 92.3663 41.4302 
350.287 93.4779 40.794 350.547 93.3953 41.2372 341.89 93.879 40.7147 
342.353 94.8555 40.6497 342.89 95.8601 40.7516 351.559 97.2037 41.01 
344.166 97.8369 40.261 351.807 98.8078 40.6701 348.165 101.967 40.1887 
348.822 101.209 40.9099 352.129 100.919 39.9122 351.912 102.445 39.6768 
336.921 86.6133 43.2954 338.085 86.4129 42.7632 340.417 87.5841 41.978 
338.727 89.3057 42.7611 346.853 89.789 41.5435 347.859 90.0096 41.9694 
350.054 92.0883 42.2301 350.566 93.1682 41.6734 350.98 94.1575 41.8138 
350.919 94.2201 42.2493 350.865 93.7649 42.0775 351.035 96.8161 42.101 
344.017 97.195 41.2479 351.339 97.3245 41.5649 349.609 99.9088 41.627 
333.025 83.5626 44.4671 332.736 83.3113 44.5531 332.835 83.6652 44.5986 
335.088 84.009 43.9156 336.417 84.5848 43.4992 335.855 83.9924 43.7451 
335.582 85.1172 43.7235 338.369 85.3049 43.02 335.552 85.5409 43.7984 
336.086 86.3872 43.7744 337.831 88.7921 43.503 348.503 90.1853 42.4078 
349.95 91.6475 42.9201 339.923 91.4709 42.8432 350.078 91.877 43.057 
350.71 93.3467 42.0563 350.656 94.2328 42.9462 341.99 94.2644 42.274 
350.802 95.0058 42.766 344.394 96.29 42.6723 350.556 96.4984 42.707 
349.583 97.7855 42.6817 350.092 97.6882 42.5218 351.173 98.4241 41.5179 
319.435 80.9168 45.7649 319.259 81.0094 45.8748 319.655 80.8782 45.7412 
319.633 80.7087 45.8039 319.877 80.6958 45.8019 319.316 81.1154 45.7896 
319.194 81.2691 45.9276 319.525 81.0843 45.7561 319.354 81.2954 45.8406 
319.616 81.2866 45.8495 332.29 82.2544 44.6566 333.657 82.321 44.4557 
331.478 83.1778 45.0846 337.193 83.9904 43.5882 337.986 83.2813 43.9217 
332.867 84.1295 44.8482 333.833 84.3176 44.4 346.132 86.1216 44.319 
347.037 86.8978 44.4479 347.547 88.1157 43.6364 336.762 87.963 44.2537 
338.268 89.6129 44.0046 349.852 91.9028 43.916 339.779 91.3377 43.3924 
350.188 92.4412 43.4678 350 93.6567 43.9524 342.356 94.1171 43.094 
350.339 95.7079 43.1998 319.689 80.3069 46.2546 323.579 79.082 45.8811 
319.257 80.8807 46.027 319.455 80.5906 46.1943 327.775 79.5809 45.6357 
324.125 80.6026 45.7789 331.703 80.4387 45.1977 319.233 81.4706 45.9859 
330.168 81.6743 45.173 319.503 81.7186 46.156 330.792 83.3184 45.5744 
332.15 84.352 45.6012 332.801 85.0427 45.8055 347.312 86.5713 45.5393 
335.861 87.4665 45.3944 348.413 88.5415 45.2467 337.616 89.0003 44.5146 
349.003 89.7439 44.6384 338.704 90.0634 44.8154 339.427 90.7306 44.5041 
340.806 91.6034 44.8118 340.688 92.2072 43.6181 343.823 92.5587 45.4201 
349.738 92.6826 44.2856 342.397 93.5913 43.7433 348.979 93.9166 44.5938 
349.775 94.5359 43.9843 350.233 94.7951 43.665 350.113 94.8102 43.8125 
320.875 78.7282 47.1763 321.487 78.2622 47.1402 319.069 81.2699 46.3659 
320.435 81.4814 46.1166 323.38 81.4006 46.2349 319.142 81.8351 46.3299 
319.052 81.8905 46.5516 319.71 81.8934 46.4093 319.165 82.0318 46.5047 
346.332 84.9192 46.3827 331.204 84.1012 46.2524 347.104 86.0913 46.0263 
335.737 87.4196 45.8986 348.153 88.0651 45.548 336.455 87.9088 45.7808 
348.306 88.4431 45.6624 339.083 90.2816 45.0017 342.402 90.9162 46.2787 
347.871 92.3819 45.7029 348.971 93.2455 44.866 350.21 94.9258 43.7268 
322.08 77.1161 47.8549 331.811 77.5712 46.8792 320.126 79.578 47.3411 
319.539 80.4701 47.0215 340.345 80.2351 46.5254 343.17 80.9559 47.1443 
319.055 81.5766 46.8121 322.852 81.6901 46.5822 319.139 81.7023 47.0259 
320.571 81.9499 47.0075 345.489 83.23 47.6915 319.096 82.1199 46.6773 
319.071 82.0863 46.8375 319.232 82.1754 46.6805 319.147 82.2222 46.8258 
319.292 82.2405 46.832 331.388 84.4212 46.8684 346.689 85.4665 46.8498 
332.157 84.9545 46.9615 347.085 86.1153 46.5347 346.935 86.1705 47.1231 
335.443 87.0934 46.5283 337.11 88.0806 46.4283 340.526 89.3288 46.9469 
348.281 88.6896 45.8936 348.41 89.3673 45.8577 346.963 91.0017 46.5176 
348.25 90.1678 46.0845 348.683 90.9102 45.6034 348.32 90.8399 45.9848 
347.529 90.9156 46.3997 347.986 90.9904 46.1651 348.827 92.1248 45.2979 
322.409 76.6452 48.1065 322.309 76.3901 48.5775 325.84 75.6463 48.025 
321.11 77.9905 48.3967 319.721 80.3745 47.5072 320.089 79.9242 47.9313 
343.688 80.6148 47.9457 343.773 80.314 48.4121 319.845 80.5084 47.8259 
344.712 81.7331 47.9729 345.225 82.4879 48.3281 319.878 82.0834 47.0583 
320.501 81.8931 47.5327 326.785 82.569 47.3276 319.16 82.1162 47.0251 
319.456 82.2124 46.943 325.283 82.3991 48.0572 329.355 83.4033 47.8303 
345.953 84.1059 47.5118 345.827 84.0216 48.1206 319.142 82.2113 46.9487 
319.26 82.2448 46.9593 331.637 84.6098 47.2757 332.565 85.0982 47.4799 
334.318 86.0057 47.3244 347.234 86.8447 46.9884 346.949 86.7701 47.418 
344.189 89.3324 47.6282 322.898 75.5599 49.2938 323.445 75.2538 49.2803 
321.678 76.9522 48.9238 321.385 77.4242 49.0258 342.21 78.1747 49.2756 
342.734 79.1884 48.6538 344.255 80.4339 49.2996 319.845 80.8156 47.8963 
320.001 80.9272 48.0665 319.8 81.1816 47.7702 344.936 81.9397 49.2609 
319.95 81.6389 47.6543 320.695 81.5703 48.1155 319.251 82.1759 47.0605 
323.935 82.1828 48.5777 330.364 83.7109 48.2269 332.288 84.7479 47.9158 
333.67 85.4056 47.8679 342.919 87.9291 48.3931 343.878 87.9404 48.4105 
344.766 87.1901 48.7232 345.666 88.5257 47.9165 346.223 87.6801 48.0285 
322.039 76.2677 50.0831 342.678 77.9011 50.1486 343.701 79.346 50.3611 
321.101 79.4243 49.5065 320.775 81.2591 48.5129 323.506 81.9732 48.9522 
328.303 82.629 49.1303 344.923 82.533 49.7438 332.32 83.8409 49.2214 
345.573 85.697 48.8385 344.955 86.6696 48.8818 346.213 87.1204 48.1688 
323.851 73.891 51.7659 324.409 73.4427 51.7714 326.436 73.1928 50.6338 
322.911 75.0167 51.0573 341.62 76.4263 50.8014 321.696 77.2264 50.1732 
342.743 77.5084 50.9816 343.088 78.0213 51.065 321.658 77.9243 50.3315 
343.388 78.7186 51.1017 344.051 80.0878 50.2672 323.12 80.3001 50.5385 
329.09 81.891 50.3922 344.729 82.6985 50.0339 344.901 83.9382 49.6852 
344.479 83.8106 50.0609 343.475 83.993 50.4922 339.45 74.0901 51.6549 
322.751 75.4459 51.5394 322.295 76.8299 51.2379 322.054 77.9477 50.897 
343.451 79.2965 51.4654 322.709 79.7107 50.7134 325.565 71.5373 53.707 
326.533 70.8754 53.522 327.559 71.1107 52.6977 325.058 72.2001 53.4383 
324.635 72.7847 53.2414 323.813 73.9386 52.5811 341.883 75.7168 52.6178 
341.973 76.1161 53.4183 322.444 78.0398 51.2715 323.48 77.3022 52.2469 
342.892 78.7869 52.4662 326.13 70.5179 54.6275 328.983 69.5844 54.094 
325.53 71.302 54.3659 339.686 72.4563 53.6717 341.338 74.5251 53.8866 
341.797 76.0351 53.9338 342.129 78.1162 53.5263 331.247 69.1589 54.5722 
337.486 70.3997 54.6681 325.464 71.3708 54.8806 339.475 71.3069 55.0041 
325.061 72.5682 54.9413 341.289 74.6349 54.483 341.099 74.6873 55.0443 
[...]
POINT_DATA 1036
COLOR_SCALARS scalars 3
0.00392157 0.576471 0.6 0.00392157 0.576471 0.6 0.00392157 0.576471 0.6 
0.00392157 0.576471 0.6 0.00392157 0.576471 0.6 
0.00392157 0.576471 0.6 0.00392157 0.576471 0.6 
0.00392157 0.576471 0.6 0.00392157 0.576471 0.6 
0.00392157 0.576471 0.6 0.00392157 0.576471 0.6 
0.00392157 0.576471 0.6 0.00392157 0.576471 0.6 
0.00392157 0.576471 0.6 0.00392157 0.576471 0.6 
0.00392157 0.576471 0.6 0.00392157 0.576471 0.6 
0.00392157 0.576471 0.6 0.00392157 0.576471 0.6 
0.00392157 0.576471 0.6 0.00392157 0.576471 0.6 
0.00392157 0.576471 0.6 0.00392157 0.576471 0.6 
0.00392157 0.576471 0.6 0.00392157 0.576471 0.6 
0.00392157 0.576471 0.6 0.00392157 0.576471 0.6 
0.00392157 0.576471 0.6 0.00392157 0.576471 0.6 
0.00392157 0.576471 0.6 0.00392157 0.576471 0.6 
0.00392157 0.576471 0.6 0.00392157 0.576471 0.6 
0.00392157 0.576471 0.6 0.00392157 0.576471 0.6 
0.00392157 0.576471 0.6 0.00392157 0.576471 0.6 
0.00392157 0.576471 0.6 0.00392157 0.576471 0.6 
0.00392157 0.576471 0.6 0.00392157 0.576471 0.6 
0.00392157 0.576471 0.6 0.00392157 0.576471 0.6 
0.00392157 0.576471 0.6 0.00392157 0.576471 0.6 
0.00392157 0.576471 0.6 0.00392157 0.576471 0.6 
0.00392157 0.576471 0.6 0.00392157 0.576471 0.6 
0.00392157 0.576471 0.6 0.00392157 0.576471 0.6 
0.00392157 0.576471 0.6 0.00392157 0.576471 0.6 
0.00392157 0.576471 0.6 0.00392157 0.576471 0.6 
0.00392157 0.576471 0.6 0.00392157 0.576471 0.6 
0.00392157 0.576471 0.6 0.00392157 0.576471 0.6 
0.00392157 0.576471 0.6 0.00392157 0.576471 0.6 
0.00392157 0.576471 0.6 0.00392157 0.576471 0.6 
0.00392157 0.576471 0.6 0.00392157 0.576471 0.6 
0.00392157 0.576471 0.6 0.00392157 0.576471 0.6 
0.00392157 0.576471 0.6 0.00392157 0.576471 0.6 
0.00392157 0.576471 0.6 0.00392157 0.576471 0.6 
0.00392157 0.576471 0.6 0.00392157 0.576471 0.6 
0.00392157 0.576471 0.6 0.00392157 0.576471 0.6 
0.00392157 0.576471 0.6 0.00392157 0.576471 0.6 
0.00392157 0.576471 0.6 0.00392157 0.576471 0.6 
0.00392157 0.576471 0.6 0.00392157 0.576471 0.6 
0.00392157 0.576471 0.6 0.00392157 0.576471 0.6 
0.00392157 0.576471 0.6 0.00392157 0.576471 0.6 
0.00392157 0.576471 0.6 0.00392157 0.576471 0.6 
0.00392157 0.576471 0.6 0.00392157 0.576471 0.6 
0.00392157 0.576471 0.6 0.00392157 0.576471 0.6 
0.00392157 0.576471 0.6 0.00392157 0.576471 0.6 
0.00392157 0.576471 0.6 0.00392157 0.576471 0.6 
0.00392157 0.576471 0.6 0.00392157 0.576471 0.6 
0.00392157 0.576471 0.6 0.00392157 0.576471 0.6 
0.00392157 0.576471 0.6 0.00392157 0.576471 0.6 
0.00392157 0.576471 0.6 0.00392157 0.576471 0.6 
0.00392157 0.576471 0.6 0.00392157 0.576471 0.6 
0.00392157 0.576471 0.6 0.00392157 0.576471 0.6 
0.00392157 0.576471 0.6 0.00392157 0.576471 0.6 
0.00392157 0.576471 0.6 0.00392157 0.576471 0.6 
0.00392157 0.576471 0.6 0.00392157 0.576471 0.6 
0.00392157 0.576471 0.6 0.00392157 0.576471 0.6 
0.00392157 0.576471 0.6 0.00392157 0.576471 0.6 
0.00392157 0.576471 0.6 0.00392157 0.576471 0.6 
0.00392157 0.576471 0.6 0.00392157 0.576471 0.6 
0.00392157 0.576471 0.6 0.00392157 0.576471 0.6 
0.00392157 0.576471 0.6 0.00392157 0.576471 0.6 
0.00392157 0.576471 0.6 0.00392157 0.576471 0.6 
0.00392157 0.576471 0.6 0.00392157 0.576471 0.6 
0.00392157 0.576471 0.6 0.00392157 0.576471 0.6 
0.00392157 0.576471 0.6 0.00392157 0.576471 0.6 
0.00392157 0.576471 0.6 0.00392157 0.576471 0.6 
0.00392157 0.576471 0.6 0.00392157 0.576471 0.6 
0.00392157 0.576471 0.6 0.00392157 0.576471 0.6 
0.00392157 0.576471 0.6 0.00392157 0.576471 0.6 
0.00392157 0.576471 0.6 0.00392157 0.576471 0.6 
0.00392157 0.576471 0.6 0.00392157 0.576471 0.6 
0.00392157 0.576471 0.6 0.00392157 0.576471 0.6 
0.00392157 0.576471 0.6 0.00392157 0.576471 0.6 
0.00392157 0.576471 0.6 0.00392157 0.576471 0.6 
0.00392157 0.576471 0.6 0.00392157 0.576471 0.6 
0.00392157 0.576471 0.6 0.00392157 0.576471 0.6 
0.00392157 0.576471 0.6 0.00392157 0.576471 0.6 
0.00392157 0.576471 0.6 0.00392157 0.576471 0.6 
0.00392157 0.576471 0.6 0.00392157 0.576471 0.6 
0.00392157 0.576471 0.6 0.00392157 0.576471 0.6 
0.00392157 0.576471 0.6 0.00392157 0.576471 0.6 
0.00392157 0.576471 0.6 0.00392157 0.576471 0.6 
0.00392157 0.576471 0.6 0.00392157 0.576471 0.6 
0.00392157 0.576471 0.6 0.00392157 0.576471 0.6 
0.00392157 0.576471 0.6 0.00392157 0.576471 0.6 
0.00392157 0.576471 0.6 0.00392157 0.576471 0.6 
0.00392157 0.576471 0.6 0.00392157 0.576471 0.6 
0.00392157 0.576471 0.6 0.00392157 0.576471 0.6 
0.00392157 0.576471 0.6 0.00392157 0.576471 0.6 
0.00392157 0.576471 0.6 0.00392157 0.576471 0.6 
0.00392157 0.576471 0.6 0.00392157 0.576471 0.6 
0.00392157 0.576471 0.6 0.00392157 0.576471 0.6 
0.00392157 0.576471 0.6 0.00392157 0.576471 0.6 
0.00392157 0.576471 0.6 0.00392157 0.576471 0.6 
0.00392157 0.576471 0.6 0.00392157 0.576471 0.6 
0.00392157 0.576471 0.6 0.00392157 0.576471 0.6 
0.00392157 0.576471 0.6 0.00392157 0.576471 0.6 
0.00392157 0.576471 0.6 0.00392157 0.576471 0.6 
0.00392157 0.576471 0.6 0.00392157 0.576471 0.6 
0.00392157 0.576471 0.6 0.00392157 0.576471 0.6 
0.00392157 0.576471 0.6 0.00392157 0.576471 0.6 
0.00392157 0.576471 0.6 0.00392157 0.576471 0.6 
0.00392157 0.576471 0.6 0.00392157 0.576471 0.6 
0.00392157 0.576471 0.6 0.00392157 0.576471 0.6 
0.00392157 0.576471 0.6 0.00392157 0.576471 0.6 
0.00392157 0.576471 0.6 0.00392157 0.576471 0.6 
0.00392157 0.576471 0.6 0.00392157 0.576471 0.6 
0.00392157 0.576471 0.6 0.00392157 0.576471 0.6 
0.00392157 0.576471 0.6 0.00392157 0.576471 0.6 
0.00392157 0.576471 0.6 0.00392157 0.576471 0.6 
0.00392157 0.576471 0.6 0.00392157 0.576471 0.6 
0.00392157 0.576471 0.6 0.00392157 0.576471 0.6 
0.00392157 0.576471 0.6 0.00392157 0.576471 0.6 
0.00392157 0.576471 0.6 0.00392157 0.576471 0.6 
0.00392157 0.576471 0.6 0.00392157 0.576471 0.6 
0.00392157 0.576471 0.6 0.00392157 0.576471 0.6 
0.00392157 0.576471 0.6 0.00392157 0.576471 0.6 
0.00392157 0.576471 0.6 0.00392157 0.576471 0.6 
0.00392157 0.576471 0.6 0.00392157 0.576471 0.6 
0.00392157 0.576471 0.6 0.00392157 0.576471 0.6 
0.00392157 0.576471 0.6 0.00392157 0.576471 0.6 
0.00392157 0.576471 0.6 0.00392157 0.576471 0.6 
0.00392157 0.576471 0.6 0.00392157 0.576471 0.6 
0.00392157 0.576471 0.6 0.00392157 0.576471 0.6 
0.00392157 0.576471 0.6 0.00392157 0.576471 0.6 
0.00392157 0.576471 0.6 0.00392157 0.576471 0.6 
0.00392157 0.576471 0.6 0.00392157 0.576471 0.6 
0.00392157 0.576471 0.6 0.00392157 0.576471 0.6 
0.00392157 0.576471 0.6 0.00392157 0.576471 0.6 
0.00392157 0.576471 0.6 0.00392157 0.576471 0.6 
0.00392157 0.576471 0.6 0.00392157 0.576471 0.6 
0.00392157 0.576471 0.6 0.00392157 0.576471 0.6 
0.00392157 0.576471 0.6 0.00392157 0.576471 0.6 
0.00392157 0.576471 0.6 0.00392157 0.576471 0.6 
0.00392157 0.576471 0.6 0.00392157 0.576471 0.6 
0.00392157 0.576471 0.6 0.00392157 0.576471 0.6 
0.00392157 0.576471 0.6 0.00392157 0.576471 0.6 
0.00392157 0.576471 0.6 0.00392157 0.576471 0.6 
0.00392157 0.576471 0.6 0.00392157 0.576471 0.6 
0.00392157 0.576471 0.6 0.00392157 0.576471 0.6 
0.00392157 0.576471 0.6 0.00392157 0.576471 0.6 
0.00392157 0.576471 0.6 0.00392157 0.576471 0.6 
0.00392157 0.576471 0.6 0.00392157 0.576471 0.6 
0.00392157 0.576471 0.6 0.00392157 0.576471 0.6 
0.00392157 0.576471 0.6 0.00392157 0.576471 0.6 
0.00392157 0.576471 0.6 0.00392157 0.576471 0.6 
0.00392157 0.576471 0.6 0.00392157 0.576471 0.6 
0.00392157 0.576471 0.6 0.00392157 0.576471 0.6 
0.00392157 0.576471 0.6 0.00392157 0.576471 0.6 
0.00392157 0.576471 0.6 0.00392157 0.576471 0.6 
0.00392157 0.576471 0.6 0.00392157 0.576471 0.6 
0.00392157 0.576471 0.6 0.00392157 0.576471 0.6 
0.00392157 0.576471 0.6 0.00392157 0.576471 0.6 
0.00392157 0.576471 0.6 0.00392157 0.576471 0.6 
0.00392157 0.576471 0.6 0.00392157 0.576471 0.6 
0.00392157 0.576471 0.6 0.00392157 0.576471 0.6 
0.00392157 0.576471 0.6 0.00392157 0.576471 0.6 
0.00392157 0.576471 0.6 0.00392157 0.576471 0.6 
0.00392157 0.576471 0.6 0.00392157 0.576471 0.6 
0.00392157 0.576471 0.6 0.00392157 0.576471 0.6 
0.00392157 0.576471 0.6 0.00392157 0.576471 0.6 
0.00392157 0.576471 0.6 0.00392157 0.576471 0.6 
0.00392157 0.576471 0.6 0.00392157 0.576471 0.6 
0.00392157 0.576471 0.6 0.00392157 0.576471 0.6 
0.00392157 0.576471 0.6 0.00392157 0.576471 0.6 
0.00392157 0.576471 0.6 0.00392157 0.576471 0.6 
0.00392157 0.576471 0.6 0.00392157 0.576471 0.6 
0.00392157 0.576471 0.6 0.00392157 0.576471 0.6 
0.00392157 0.576471 0.6 0.00392157 0.576471 0.6 
0.00392157 0.576471 0.6 0.00392157 0.576471 0.6 
0.00392157 0.576471 0.6 0.00392157 0.576471 0.6 
0.00392157 0.576471 0.6 0.00392157 0.576471 0.6 
0.00392157 0.576471 0.6 0.00392157 0.576471 0.6 
0.00392157 0.576471 0.6 0.00392157 0.576471 0.6 
0.00392157 0.576471 0.6 0.00392157 0.576471 0.6 
0.00392157 0.576471 0.6 0.00392157 0.576471 0.6 
0.00392157 0.576471 0.6 0.00392157 0.576471 0.6 
0.00392157 0.576471 0.6 0.00392157 0.576471 0.6 
0.00392157 0.576471 0.6 0.00392157 0.576471 0.6 
0.00392157 0.576471 0.6 0.00392157 0.576471 0.6 
0.00392157 0.576471 0.6 0.00392157 0.576471 0.6 
0.00392157 0.576471 0.6 0.00392157 0.576471 0.6 
0.00392157 0.576471 0.6 0.00392157 0.576471 0.6 
0.00392157 0.576471 0.6 0.00392157 0.576471 0.6 
0.00392157 0.576471 0.6 0.00392157 0.576471 0.6 
0.00392157 0.576471 0.6 0.00392157 0.576471 0.6 
0.00392157 0.576471 0.6 0.00392157 0.576471 0.6 
0.00392157 0.576471 0.6 0.00392157 0.576471 0.6 
0.00392157 0.576471 0.6 0.00392157 0.576471 0.6 
0.00392157 0.576471 0.6 0.00392157 0.576471 0.6 
0.00392157 0.576471 0.6 0.00392157 0.576471 0.6 
0.00392157 0.576471 0.6 0.00392157 0.576471 0.6 
0.00392157 0.576471 0.6 0.00392157 0.576471 0.6 
0.00392157 0.576471 0.6 0.00392157 0.576471 0.6 
0.00392157 0.576471 0.6 0.00392157 0.576471 0.6 
0.00392157 0.576471 0.6 0.00392157 0.576471 0.6 
0.00392157 0.576471 0.6 0.00392157 0.576471 0.6 
0.00392157 0.576471 0.6 0.00392157 0.576471 0.6 
0.00392157 0.576471 0.6 0.00392157 0.576471 0.6 
0.00392157 0.576471 0.6 0.00392157 0.576471 0.6 
0.00392157 0.576471 0.6 0.00392157 0.576471 0.6 
0.00392157 0.576471 0.6 0.00392157 0.576471 0.6 
0.00392157 0.576471 0.6 0.00392157 0.576471 0.6 
0.00392157 0.576471 0.6 0.00392157 0.576471 0.6 
0.00392157 0.576471 0.6 0.00392157 0.576471 0.6 
0.00392157 0.576471 0.6 0.00392157 0.576471 0.6 
0.00392157 0.576471 0.6 0.00392157 0.576471 0.6 
0.00392157 0.576471 0.6 0.00392157 0.576471 0.6 
0.00392157 0.576471 0.6 0.00392157 0.576471 0.6 
0.00392157 0.576471 0.6 0.00392157 0.576471 0.6 
0.00392157 0.576471 0.6 0.00392157 0.576471 0.6 
0.00392157 0.576471 0.6 0.00392157 0.576471 0.6 
0.00392157 0.576471 0.6 0.00392157 0.576471 0.6 
0.00392157 0.576471 0.6 0.00392157 0.576471 0.6 
0.00392157 0.576471 0.6 0.00392157 0.576471 0.6 
0.00392157 0.576471 0.6 0.00392157 0.576471 0.6 
0.00392157 0.576471 0.6 0.00392157 0.576471 0.6 
0.00392157 0.576471 0.6 0.00392157 0.576471 0.6 
0.00392157 0.576471 0.6 0.00392157 0.576471 0.6 
0.00392157 0.576471 0.6 0.00392157 0.576471 0.6 
0.00392157 0.576471 0.6 0.00392157 0.576471 0.6 
0.00392157 0.576471 0.6 0.00392157 0.576471 0.6 
0.00392157 0.576471 0.6 0.00392157 0.576471 0.6 
0.00392157 0.576471 0.6 0.00392157 0.576471 0.6 
0.00392157 0.576471 0.6 0.00392157 0.576471 0.6 
0.00392157 0.576471 0.6 0.00392157 0.576471 0.6 
0.00392157 0.576471 0.6 0.00392157 0.576471 0.6 
0.00392157 0.576471 0.6 0.00392157 0.576471 0.6 
0.00392157 0.576471 0.6 0.00392157 0.576471 0.6 
0.00392157 0.576471 0.6 0.00392157 0.576471 0.6 
0.00392157 0.576471 0.6 0.00392157 0.576471 0.6 
0.00392157 0.576471 0.6 0.00392157 0.576471 0.6 
0.00392157 0.576471 0.6 0.00392157 0.576471 0.6 
0.00392157 0.576471 0.6 0.00392157 0.576471 0.6 
0.00392157 0.576471 0.6 0.00392157 0.576471 0.6 
0.00392157 0.576471 0.6 0.00392157 0.576471 0.6 
0.00392157 0.576471 0.6 0.00392157 0.576471 0.6 
0.00392157 0.576471 0.6 0.00392157 0.576471 0.6 
0.00392157 0.576471 0.6 0.00392157 0.576471 0.6 
0.00392157 0.576471 0.6 0.00392157 0.576471 0.6 
0.00392157 0.576471 0.6 0.00392157 0.576471 0.6 
0.00392157 0.576471 0.6 0.00392157 0.576471 0.6 
0.00392157 0.576471 0.6 0.00392157 0.576471 0.6 
0.00392157 0.576471 0.6 0.00392157 0.576471 0.6 
0.00392157 0.576471 0.6 0.00392157 0.576471 0.6 
0.00392157 0.576471 0.6 0.00392157 0.576471 0.6 
0.00392157 0.576471 0.6 0.00392157 0.576471 0.6 
0.00392157 0.576471 0.6 0.00392157 0.576471 0.6 
0.00392157 0.576471 0.6 0.00392157 0.576471 0.6 
0.00392157 0.576471 0.6 0.00392157 0.576471 0.6 
0.00392157 0.576471 0.6 0.00392157 0.576471 0.6 
0.00392157 0.576471 0.6 0.00392157 0.576471 0.6 
0.00392157 0.576471 0.6 0.00392157 0.576471 0.6 
0.00392157 0.576471 0.6 0.00392157 0.576471 0.6 
0.00392157 0.576471 0.6 0.00392157 0.576471 0.6 
0.00392157 0.576471 0.6 0.00392157 0.576471 0.6 
0.00392157 0.576471 0.6 0.00392157 0.576471 0.6 
0.00392157 0.576471 0.6 0.00392157 0.576471 0.6 
0.00392157 0.576471 0.6 0.00392157 0.576471 0.6 
0.00392157 0.576471 0.6 0.00392157 0.576471 0.6 
0.00392157 0.576471 0.6 0.00392157 0.576471 0.6 
0.00392157 0.576471 0.6 0.00392157 0.576471 0.6 
0.00392157 0.576471 0.6 0.00392157 0.576471 0.6 
0.00392157 0.576471 0.6 0.00392157 0.576471 0.6 
0.00392157 0.576471 0.6 0.00392157 0.576471 0.6 
0.00392157 0.576471 0.6 0.00392157 0.576471 0.6 
0.00392157 0.576471 0.6 0.00392157 0.576471 0.6 
0.00392157 0.576471 0.6 0.00392157 0.576471 0.6 
0.00392157 0.576471 0.6 0.00392157 0.576471 0.6 
0.00392157 0.576471 0.6 0.00392157 0.576471 0.6 
0.00392157 0.576471 0.6 0.00392157 0.576471 0.6 
0.00392157 0.576471 0.6 0.00392157 0.576471 0.6 
0.00392157 0.576471 0.6 0.00392157 0.576471 0.6 
0.00392157 0.576471 0.6 0.00392157 0.576471 0.6 
0.00392157 0.576471 0.6 0.00392157 0.576471 0.6 
0.00392157 0.576471 0.6 0.00392157 0.576471 0.6 
0.00392157 0.576471 0.6 0.00392157 0.576471 0.6 
0.00392157 0.576471 0.6 0.00392157 0.576471 0.6 
0.00392157 0.576471 0.6 0.00392157 0.576471 0.6 
0.00392157 0.576471 0.6 0.00392157 0.576471 0.6 
0.00392157 0.576471 0.6 0.00392157 0.576471 0.6 
0.00392157 0.576471 0.6 0.00392157 0.576471 0.6 
0.00392157 0.576471 0.6 0.00392157 0.576471 0.6 
0.00392157 0.576471 0.6 0.00392157 0.576471 0.6 
0.00392157 0.576471 0.6 0.00392157 0.576471 0.6 
0.00392157 0.576471 0.6 0.00392157 0.576471 0.6 
0.00392157 0.576471 0.6 0.00392157 0.576471 0.6 
0.00392157 0.576471 0.6 0.00392157 0.576471 0.6 
0.00392157 0.576471 0.6 0.00392157 0.576471 0.6 
0.00392157 0.576471 0.6 0.00392157 0.576471 0.6 
0.00392157 0.576471 0.6 0.00392157 0.576471 0.6 
0.00392157 0.576471 0.6 0.00392157 0.576471 0.6 
0.00392157 0.576471 0.6 0.00392157 0.576471 0.6 
0.00392157 0.576471 0.6 0.00392157 0.576471 0.6 
0.00392157 0.576471 0.6 0.00392157 0.576471 0.6 
0.00392157 0.576471 0.6 0.00392157 0.576471 0.6 
0.00392157 0.576471 0.6 0.00392157 0.576471 0.6 
0.00392157 0.576471 0.6 0.00392157 0.576471 0.6 
0.00392157 0.576471 0.6 0.00392157 0.576471 0.6 
0.00392157 0.576471 0.6 0.00392157 0.576471 0.6 
0.00392157 0.576471 0.6 0.00392157 0.576471 0.6 
0.00392157 0.576471 0.6 0.00392157 0.576471 0.6 
0.00392157 0.576471 0.6 0.00392157 0.576471 0.6 
0.00392157 0.576471 0.6 0.00392157 0.576471 0.6 
0.00392157 0.576471 0.6 0.00392157 0.576471 0.6 
0.00392157 0.576471 0.6 0.00392157 0.576471 0.6 
0.00392157 0.576471 0.6 0.00392157 0.576471 0.6 
0.00392157 0.576471 0.6 0.00392157 0.576471 0.6 
0.00392157 0.576471 0.6 0.00392157 0.576471 0.6 
0.00392157 0.576471 0.6 0.00392157 0.576471 0.6 
0.00392157 0.576471 0.6 0.00392157 0.576471 0.6 
0.00392157 0.576471 0.6 0.00392157 0.576471 0.6 
0.00392157 0.576471 0.6 0.00392157 0.576471 0.6 
0.00392157 0.576471 0.6 0.00392157 0.576471 0.6 
0.00392157 0.576471 0.6 0.00392157 0.576471 0.6 
0.00392157 0.576471 0.6 0.00392157 0.576471 0.6 
0.00392157 0.576471 0.6 0.00392157 0.576471 0.6 
0.00392157 0.576471 0.6 0.00392157 0.576471 0.6 
0.00392157 0.576471 0.6 0.00392157 0.576471 0.6 
0.00392157 0.576471 0.6 0.00392157 0.576471 0.6 
0.00392157 0.576471 0.6 0.00392157 0.576471 0.6 
0.00392157 0.576471 0.6 0.00392157 0.576471 0.6 
0.00392157 0.576471 0.6 0.00392157 0.576471 0.6 
0.00392157 0.576471 0.6 0.00392157 0.576471 0.6 
0.00392157 0.576471 0.6 0.00392157 0.576471 0.6 
0.00392157 0.576471 0.6 0.00392157 0.576471 0.6 
0.00392157 0.576471 0.6 0.00392157 0.576471 0.6 
0.00392157 0.576471 0.6 0.00392157 0.576471 0.6 
0.00392157 0.576471 0.6 0.00392157 0.576471 0.6 
0.00392157 0.576471 0.6 0.00392157 0.576471 0.6 
0.00392157 0.576471 0.6 0.00392157 0.576471 0.6 
0.00392157 0.576471 0.6 0.00392157 0.576471 0.6 
0.00392157 0.576471 0.6 0.00392157 0.576471 0.6 
0.00392157 0.576471 0.6 0.00392157 0.576471 0.6 
0.00392157 0.576471 0.6 0.00392157 0.576471 0.6 
0.00392157 0.576471 0.6 0.00392157 0.576471 0.6 
0.00392157 0.576471 0.6 0.00392157 0.576471 0.6 
0.00392157 0.576471 0.6 0.00392157 0.576471 0.6 
0.00392157 0.576471 0.6 0.00392157 0.576471 0.6 
0.00392157 0.576471 0.6 0.00392157 0.576471 0.6 
0.00392157 0.576471 0.6 0.00392157 0.576471 0.6 
0.00392157 0.576471 0.6 0.00392157 0.576471 0.6 
0.00392157 0.576471 0.6 0.00392157 0.576471 0.6 
0.00392157 0.576471 0.6 0.00392157 0.576471 0.6 
0.00392157 0.576471 0.6 0.00392157 0.576471 0.6 
0.00392157 0.576471 0.6 0.00392157 0.576471 0.6 
0.00392157 0.576471 0.6 0.00392157 0.576471 0.6 
0.00392157 0.576471 0.6 0.00392157 0.576471 0.6 
0.00392157 0.576471 0.6 0.00392157 0.576471 0.6 
0.00392157 0.576471 0.6 0.00392157 0.576471 0.6 
0.00392157 0.576471 0.6 0.00392157 0.576471 0.6 
0.00392157 0.576471 0.6 0.00392157 0.576471 0.6 
0.00392157 0.576471 0.6 0.00392157 0.576471 0.6 
0.00392157 0.576471 0.6 0.00392157 0.576471 0.6 
0.00392157 0.576471 0.6 0.00392157 0.576471 0.6 
0.00392157 0.576471 0.6 0.00392157 0.576471 0.6 
0.00392157 0.576471 0.6 0.00392157 0.576471 0.6 
0.00392157 0.576471 0.6 0.00392157 0.576471 0.6 
0.00392157 0.576471 0.6 0.00392157 0.576471 0.6 
0.00392157 0.576471 0.6 0.00392157 0.576471 0.6 
0.00392157 0.576471 0.6 0.00392157 0.576471 0.6 
0.00392157 0.576471 0.6 0.00392157 0.576471 0.6 
0.00392157 0.576471 0.6 0.00392157 0.576471 0.6 
0.00392157 0.576471 0.6 0.00392157 0.576471 0.6 
0.00392157 0.576471 0.6 0.00392157 0.576471 0.6 
0.00392157 0.576471 0.6 0.00392157 0.576471 0.6 
0.00392157 0.576471 0.6 0.00392157 0.576471 0.6 
0.00392157 0.576471 0.6 0.00392157 0.576471 0.6 
0.00392157 0.576471 0.6 0.00392157 0.576471 0.6 
0.00392157 0.576471 0.6 0.00392157 0.576471 0.6 
0.00392157 0.576471 0.6 0.00392157 0.576471 0.6 
0.00392157 0.576471 0.6 0.00392157 0.576471 0.6 
0.00392157 0.576471 0.6 0.00392157 0.576471 0.6 
0.00392157 0.576471 0.6 0.00392157 0.576471 0.6 
0.00392157 0.576471 0.6 0.00392157 0.576471 0.6 
0.00392157 0.576471 0.6 0.00392157 0.576471 0.6 
0.00392157 0.576471 0.6 0.00392157 0.576471 0.6 
0.00392157 0.576471 0.6 0.00392157 0.576471 0.6 
0.00392157 0.576471 0.6 0.00392157 0.576471 0.6 
0.00392157 0.576471 0.6 0.00392157 0.576471 0.6 
0.00392157 0.576471 0.6 0.00392157 0.576471 0.6 
0.00392157 0.576471 0.6 0.00392157 0.576471 0.6 
0.00392157 0.576471 0.6 0.00392157 0.576471 0.6 
0.00392157 0.576471 0.6 0.00392157 0.576471 0.6 
0.00392157 0.576471 0.6 0.00392157 0.576471 0.6 
0.00392157 0.576471 0.6 0.00392157 0.576471 0.6 
0.00392157 0.576471 0.6 0.00392157 0.576471 0.6 
0.00392157 0.576471 0.6 0.00392157 0.576471 0.6 
0.00392157 0.576471 0.6 0.00392157 0.576471 0.6 
0.00392157 0.576471 0.6 0.00392157 0.576471 0.6 
0.00392157 0.576471 0.6 0.00392157 0.576471 0.6 
0.00392157 0.576471 0.6 0.00392157 0.576471 0.6 
0.00392157 0.576471 0.6 0.00392157 0.576471 0.6 
0.00392157 0.576471 0.6 0.00392157 0.576471 0.6 
0.00392157 0.576471 0.6 0.00392157 0.576471 0.6 
0.00392157 0.576471 0.6 0.00392157 0.576471 0.6 
0.00392157 0.576471 0.6 0.00392157 0.576471 0.6 
0.00392157 0.576471 0.6 0.00392157 0.576471 0.6 
0.00392157 0.576471 0.6 0.00392157 0.576471 0.6 
0.00392157 0.576471 0.6 0.00392157 0.576471 0.6 
0.00392157 0.576471 0.6 0.00392157 0.576471 0.6 
0.00392157 0.576471 0.6 0.00392157 0.576471 0.6 
0.00392157 0.576471 0.6 0.00392157 0.576471 0.6 
0.00392157 0.576471 0.6 0.00392157 0.576471 0.6 
0.00392157 0.576471 0.6 0.00392157 0.576471 0.6 