# vtk DataFile Version 4.2
vtk output
ASCII
DATASET POLYDATA
POINTS 899 float
352 117.009 45.0174 352 117.009 45.0175 352 117.009 45.0175 
352 117.009 45.0175 352 117.009 45.0175 350.4 114.909 47.9374 
349.877 115.476 47.9443 350.187 115.506 47.9473 350.4 115.283 47.9631 
350.24 116.196 48.2431 352 117.009 45.0175 350.42 116.085 48.198 
346.048 110.934 48.6302 345.861 110.682 48.7858 345.755 111.077 48.8801 
346.309 111.038 48.4981 346.546 111.343 48.4291 348.328 112.648 47.9464 
347.668 113.108 48.0849 348.732 112.566 47.9552 349.171 112.692 48.0065 
347.619 113.475 48.1392 350.291 113.918 48.2267 348.42 114.5 48.1945 
350.557 114.817 47.9988 350.573 114.668 48.0146 349.671 115.61 48.0681 
350.582 115.123 48.1625 350.612 114.742 48.1157 345.843 110.292 48.8979 
345.533 111.634 49.2662 349.855 111.955 48.6564 347.462 113.633 48.2932 
350.453 116.643 48.5926 350.361 116.735 48.7615 350.55 116.519 48.6546 
350.495 116.718 48.6977 344.572 108.722 50.2601 345.988 108.164 49.7538 
348.107 109.421 49.3325 347.903 110.074 48.9426 349.969 111.8 48.8979 
349.435 116.474 49.2936 349.673 116.713 49.8958 350.146 116.716 49.1048 
350.537 116.451 49.0369 350.366 116.752 48.9855 350.525 116.68 48.8102 
350.464 116.766 48.8199 344.852 107.032 50.6189 348.787 108.684 50.2567 
349.777 110.018 50.1559 350.522 112.583 49.8969 347.751 115.997 50.2157 
349.469 117.014 50.7692 349.266 117.148 50.9738 350.176 116.406 50.2937 
350.285 116.601 49.3994 349.364 117.227 51.3938 349.243 108.257 51.4027 
344.159 110.275 50.7285 349.882 109.959 50.9355 349.01 117.214 51.2017 
342.084 102.957 52.9525 342.691 103.001 52.7201 341.505 104.718 53.0577 
349.31 107.784 52.2845 350.447 111.962 52.1066 347.583 116.834 51.7996 
349.833 116.871 52.6451 349.531 117.459 52.9378 349.139 117.867 52.9817 
341.741 101.552 53.4705 340.153 102.298 54.0612 342.341 101.481 53.3799 
343.267 102.929 52.662 347.429 103.825 53.4914 348.112 104.827 53.3539 
348.743 117.914 53.0263 348.556 118.044 53.6011 349.552 117.486 53.5614 
349.137 118.106 53.4767 349.026 118.234 53.6751 349.164 118.171 53.7882 
340.921 100.218 54.0977 343.446 100.588 53.9148 345.229 101.993 53.4582 
339.711 102.714 54.5956 348.164 104.388 54.0221 341.471 106.755 53.8217 
349.677 108.519 53.5782 342.759 110.751 54.4016 344.476 113.962 53.6453 
349.922 115.817 53.9461 349.598 117.186 53.961 347.967 117.707 53.8352 
348.85 118.229 53.7307 349.258 118.015 54.0084 348.971 118.267 53.9617 
349.126 118.204 54.0575 337.028 97.5131 56.123 340.368 98.5109 54.9323 
337.232 98.7636 56.0301 344.517 99.1363 55.4013 347.149 101.721 55.6385 
348.894 105.87 54.9554 349.544 108.352 54.6418 349.553 116.815 54.4145 
347.246 117.112 54.6825 348.123 117.787 54.5841 349.216 117.783 54.3963 
349.14 118.093 54.2484 348.82 118.233 54.2044 348.991 118.202 54.2461 
335.927 95.8069 56.8727 336.959 96.2266 56.3634 340.73 96.621 55.9775 
343.471 98.0286 55.7365 347.41 102.049 56.0689 342.954 111.727 56.085 
349.553 112.235 56.0465 349.758 114.268 55.2837 349.329 114.714 55.9272 
349.126 115.248 55.9341 346.348 116.153 55.3099 347.185 116.914 55.123 
349.125 117.358 54.8129 348.755 117.808 54.7559 349.001 117.719 54.7121 
348.778 118.089 54.4593 332.254 93.0869 58.2544 332.078 92.8901 58.3507 
333.53 95.1212 58.0628 345.032 97.5328 57.5644 345.699 98.2707 57.454 
345.944 99.0849 57.2156 346.239 99.6482 56.8241 347.718 102.733 56.5243 
337.976 102.489 57.311 348.463 105.269 56.7758 342.926 111.612 56.9035 
348.046 116.44 55.8939 348.111 115.783 56.3536 349.017 116.529 55.3886 
347.504 116.952 55.3359 348.913 116.926 55.2492 328.691 91.4899 59.231 
329.866 91.7733 59.007 335.307 93.2286 57.7622 332.627 93.9281 58.2845 
343.19 95.1006 58.4871 344.408 96.0907 59.1251 345.788 98.5003 57.9264 
343.609 112.264 57.6537 344.543 113.682 57.112 347.009 114.806 57.3009 
347.096 114.361 57.644 346.294 115.27 56.6319 348.135 115.198 56.7522 
320.968 90.2445 60.7821 320.655 90.6276 60.9356 323.737 89.6774 59.9693 
325.145 90.3296 59.7131 320.457 91.3875 61.0152 322.875 90.77 60.0253 
328.9 90.9142 59.2278 320.715 91.4373 60.784 320.962 91.4994 60.6225 
321.233 91.4365 60.4932 330.711 92.2353 58.8868 331.901 91.9391 58.6617 
336.13 91.2037 58.8752 339.792 92.2554 58.8987 343.086 94.0777 59.6987 
344.386 95.9333 59.5509 345.465 97.8847 58.9341 348.114 111.145 58.5047 
346.273 113.071 58.5273 346.101 113.648 58.071 347.308 113.073 58.3349 
347.644 113.643 57.8945 322.51 89.2805 60.4171 324.659 88.4666 60.2284 
326.121 89.07 59.8534 327.621 88.4888 60.0098 331.203 89.1286 59.7486 
320.363 90.6871 61.4333 320.177 91.1982 61.5305 324.057 91.2425 59.9911 
320.287 92.1918 61.6363 321.122 91.7078 60.6579 327.597 92.0684 59.6864 
333.144 97.6769 60.4162 336.717 101.984 59.5861 347.49 105.949 59.8368 
341.769 109.381 59.0747 343.803 111.63 58.7087 344.607 111.256 59.5409 
347.587 112.403 58.4965 325.926 86.6434 61.1036 321.963 88.3598 61.3615 
320.531 90.1026 61.6969 320.049 91.534 61.8121 341.076 90.6459 61.4244 
320.389 92.6257 61.8166 320.151 92.6962 62.2044 320.673 92.931 61.9049 
321.226 92.7934 61.5805 343.08 93.5914 61.0232 329.154 94.4095 60.7465 
344.36 96.1905 61.3187 345.972 99.9057 60.4735 345.828 110.078 60.3328 
347.374 108.955 59.8487 346.441 111.339 59.5 324.925 85.6708 62.0341 
336.845 87.868 61.47 339.819 89.3218 61.6387 340.672 89.47 62.3801 
340.981 89.7172 62.6023 320.24 90.4795 62.3602 341.83 91.2429 62.4833 
319.895 92.0893 62.5199 319.851 92.3195 62.954 342.685 92.85 62.0334 
320.248 93.1247 62.4312 320.354 93.4744 62.7839 336.526 102.422 61.6059 
339.684 105.957 61.1745 344.043 108.748 61.1763 346.37 109.313 60.4861 
323.765 85.5957 62.6885 338.68 87.8974 62.2792 341.166 89.817 63.0805 
320.199 90.572 63.508 319.858 92.7684 63.3374 331.208 97.3331 62.6265 
338.534 104.418 62.0612 341.619 106.214 62.4373 340.076 106.291 61.2683 
323.947 83.8509 64.7868 324.514 83.3752 64.8311 322.471 85.8455 64.3148 
337.143 84.8797 64.0177 339.013 86.3916 64.1265 341.563 90.4396 64.0177 
319.925 93.6514 64.4401 321.637 94.0705 63.0062 329.366 96.4157 63.2468 
337.569 103.292 63.0564 339.518 104.598 62.8967 340.387 104.824 63.1446 
342.474 104.336 63.7553 327.062 81.6681 65.2059 338.911 85.2215 65.4974 
339.061 85.2298 65.8425 319.988 93.979 65.417 320.332 94.5725 64.7627 
330.789 97.8945 64.5901 331.254 98.2171 64.806 338.615 102.922 64.3072 
338.859 102.425 64.8648 334.401 81.0894 66.1465 336.687 82.1854 66.4652 
338.356 83.9306 66.6942 339.491 85.97 66.2364 341.669 91.1892 65.3557 
320.169 94.6278 65.6572 327.624 96.2791 64.5818 337.926 100.75 66.1023 
339.457 100.898 66.1543 336.122 101.442 64.4187 341.817 101.718 65.286 
326.576 80.0387 67.344 326.099 80.2829 67.5064 327.624 79.3896 67.6068 
330.581 79.6542 66.9411 333.707 80.1607 67.0868 334.991 80.7384 66.8439 
336.879 81.7939 67.3679 337.876 83.1202 67.502 322.8 85.3461 67.0434 
320.322 94.0316 66.6914 320.383 95.0057 66.5739 319.004 97.0131 67.0087 
319.004 97.0131 67.0087 319.004 97.0132 67.0087 319.004 97.0131 67.0088 
320.816 95.56 66.8016 326.163 96.3632 66.3668 319.004 97.0132 67.0088 
330.053 97.7189 66.0626 331.237 98.2388 66.3368 335.446 99.8685 66.1868 
334.851 80.2206 67.6476 335.376 80.355 67.9796 335.223 80.2014 68.3931 
336.486 81.142 67.9888 320.539 95.2938 67.2895 319.004 97.0131 67.0088 
320.429 95.8119 67.2897 320.434 96.0628 67.4 320.711 95.8536 67.4164 
321.448 95.5801 67.4043 320.256 96.2957 67.5636 320.283 96.2743 67.5417 
320.304 96.2663 67.5545 320.402 96.1512 67.5434 327.432 96.6753 67.2587 
329.04 97.0967 67.5382 341.685 97.6594 66.8302 320.257 96.3136 67.5813 
320.293 96.2725 67.5844 331.02 97.7931 67.2966 331.874 97.9148 67.5195 
327.159 78.8689 69.4734 328.206 78.5023 68.926 328.078 78.4336 69.4099 
329.378 78.4204 68.7671 329.085 78.3222 69.0609 329.886 78.3788 69.1547 
327.781 78.7882 68.5974 332.102 79.1694 69.0147 334.326 79.8473 68.4686 
336.369 80.9865 68.7226 322.921 86.7226 69.2527 340.375 91.6631 68.7891 
321.411 92.5074 68.5768 340.79 93.8101 68.3574 320.845 95.517 67.6307 
321.309 94.7576 68.1355 320.5 95.982 67.5798 326.765 96.3475 67.9166 
337.192 97.1607 68.7213 320.394 96.034 67.5374 333.97 97.6891 68.2468 
327.232 78.7731 69.8897 328.537 78.356 69.659 329.738 78.3644 69.3929 
327.168 78.8613 70.198 325.792 80.2761 69.4738 332.431 79.3589 69.6805 
332.92 79.6638 70.0376 334.965 80.4264 69.8274 324.863 81.7052 69.5487 
337.856 83.5802 69.8991 321.524 93.1043 68.7563 340.135 92.8492 69.1799 
321.617 93.6402 68.8427 321.834 93.8238 69.0253 338.371 94.6193 69.931 
328.272 95.807 69.2273 339.266 94.8955 69.4444 320.459 95.9601 67.5804 
327.982 78.5324 70.228 327.352 78.8788 70.5127 327.174 79.2665 70.9217 
325.531 80.9231 70.4463 326.114 80.3953 71.0658 335.408 81.1503 70.6143 
322.811 90.7534 70.3388 327.475 93.4983 71.1488 339.582 92.8624 69.7449 
322.58 93.1813 69.8562 323.151 93.7627 69.9698 323.484 93.4857 70.2733 
337.072 94.0895 70.5514 338.259 93.3091 70.508 323.669 94.5186 69.6126 
339.896 94.2192 69.2215 327.202 79.594 71.4476 326.541 80.1598 71.6347 
326.716 80.4333 72.3173 324.623 83.3968 71.4526 337.062 83.3189 71.2677 
338.158 88.2809 72.1664 325.805 92.376 71.6039 338.591 92.4821 70.6097 
327.466 79.8733 71.9745 326.791 80.5457 72.8378 327.381 80.3128 72.5994 
326.566 81.0686 72.9974 331.296 81.717 73.5933 325.394 82.9357 72.7871 
336.077 83.3475 72.5995 324.708 84.2168 72.2944 337.741 86.388 72.5562 
337.8 88.5943 72.5778 323.864 91.5679 71.1511 324.506 91.5669 71.5029 
326.906 80.7835 73.1037 326.936 80.9886 73.3712 326.837 81.0739 73.4171 
326.779 81.0013 73.2791 328.633 81.098 73.591 326.787 81.6831 73.6815 
334.706 83.0292 73.2725 336.227 84.1877 73.2226 325.108 89.0991 72.89 
325.184 89.6599 72.7 337.108 89.3696 72.9392 327.034 82.4057 74.393 
328.752 82.1997 74.6546 326.134 83.3172 74.1987 336.759 86.0559 73.7944 
325.782 86.1885 74.2418 336.946 87.188 73.8232 336.654 87.3062 74.1216 
328.075 87.6048 74.836 336.372 87.6322 74.2254 336.989 88.415 73.4506 
328.164 82.6083 75.0181 326.97 83.3319 75.0921 329.119 83.0711 75.2785 
[...]
POINT_DATA 899
COLOR_SCALARS scalars 3
0.00392157 0.576471 0.6 0.00392157 0.576471 0.6 0.00392157 0.576471 0.6 
0.00392157 0.576471 0.6 0.00392157 0.576471 0.6 
0.00392157 0.576471 0.6 0.00392157 0.576471 0.6 
0.00392157 0.576471 0.6 0.00392157 0.576471 0.6 
0.00392157 0.576471 0.6 0.00392157 0.576471 0.6 
0.00392157 0.576471 0.6 0.00392157 0.576471 0.6 
0.00392157 0.576471 0.6 0.00392157 0.576471 0.6 
0.00392157 0.576471 0.6 0.00392157 0.576471 0.6 
0.00392157 0.576471 0.6 0.00392157 0.576471 0.6 
0.00392157 0.576471 0.6 0.00392157 0.576471 0.6 
0.00392157 0.576471 0.6 0.00392157 0.576471 0.6 
0.00392157 0.576471 0.6 0.00392157 0.576471 0.6 
0.00392157 0.576471 0.6 0.00392157 0.576471 0.6 
0.00392157 0.576471 0.6 0.00392157 0.576471 0.6 
0.00392157 0.576471 0.6 0.00392157 0.576471 0.6 
0.00392157 0.576471 0.6 0.00392157 0.576471 0.6 
0.00392157 0.576471 0.6 0.00392157 0.576471 0.6 
0.00392157 0.576471 0.6 0.00392157 0.576471 0.6 
0.00392157 0.576471 0.6 0.00392157 0.576471 0.6 
0.00392157 0.576471 0.6 0.00392157 0.576471 0.6 
0.00392157 0.576471 0.6 0.00392157 0.576471 0.6 
0.00392157 0.576471 0.6 0.00392157 0.576471 0.6 
0.00392157 0.576471 0.6 0.00392157 0.576471 0.6 
0.00392157 0.576471 0.6 0.00392157 0.576471 0.6 
0.00392157 0.576471 0.6 0.00392157 0.576471 0.6 
0.00392157 0.576471 0.6 0.00392157 0.576471 0.6 
0.00392157 0.576471 0.6 0.00392157 0.576471 0.6 
0.00392157 0.576471 0.6 0.00392157 0.576471 0.6 
0.00392157 0.576471 0.6 0.00392157 0.576471 0.6 
0.00392157 0.576471 0.6 0.00392157 0.576471 0.6 
0.00392157 0.576471 0.6 0.00392157 0.576471 0.6 
0.00392157 0.576471 0.6 0.00392157 0.576471 0.6 
0.00392157 0.576471 0.6 0.00392157 0.576471 0.6 
0.00392157 0.576471 0.6 0.00392157 0.576471 0.6 
0.00392157 0.576471 0.6 0.00392157 0.576471 0.6 
0.00392157 0.576471 0.6 0.00392157 0.576471 0.6 
0.00392157 0.576471 0.6 0.00392157 0.576471 0.6 
0.00392157 0.576471 0.6 0.00392157 0.576471 0.6 
0.00392157 0.576471 0.6 0.00392157 0.576471 0.6 
0.00392157 0.576471 0.6 0.00392157 0.576471 0.6 
0.00392157 0.576471 0.6 0.00392157 0.576471 0.6 
0.00392157 0.576471 0.6 0.00392157 0.576471 0.6 
0.00392157 0.576471 0.6 0.00392157 0.576471 0.6 
0.00392157 0.576471 0.6 0.00392157 0.576471 0.6 
0.00392157 0.576471 0.6 0.00392157 0.576471 0.6 
0.00392157 0.576471 0.6 0.00392157 0.576471 0.6 
0.00392157 0.576471 0.6 0.00392157 0.576471 0.6 
0.00392157 0.576471 0.6 0.00392157 0.576471 0.6 
0.00392157 0.576471 0.6 0.00392157 0.576471 0.6 
0.00392157 0.576471 0.6 0.00392157 0.576471 0.6 
0.00392157 0.576471 0.6 0.00392157 0.576471 0.6 
0.00392157 0.576471 0.6 0.00392157 0.576471 0.6 
0.00392157 0.576471 0.6 0.00392157 0.576471 0.6 
0.00392157 0.576471 0.6 0.00392157 0.576471 0.6 
0.00392157 0.576471 0.6 0.00392157 0.576471 0.6 
0.00392157 0.576471 0.6 0.00392157 0.576471 0.6 
0.00392157 0.576471 0.6 0.00392157 0.576471 0.6 
0.00392157 0.576471 0.6 0.00392157 0.576471 0.6 
0.00392157 0.576471 0.6 0.00392157 0.576471 0.6 
0.00392157 0.576471 0.6 0.00392157 0.576471 0.6 
0.00392157 0.576471 0.6 0.00392157 0.576471 0.6 
0.00392157 0.576471 0.6 0.00392157 0.576471 0.6 
0.00392157 0.576471 0.6 0.00392157 0.576471 0.6 
0.00392157 0.576471 0.6 0.00392157 0.576471 0.6 
0.00392157 0.576471 0.6 0.00392157 0.576471 0.6 
0.00392157 0.576471 0.6 0.00392157 0.576471 0.6 
0.00392157 0.576471 0.6 0.00392157 0.576471 0.6 
0.00392157 0.576471 0.6 0.00392157 0.576471 0.6 
0.00392157 0.576471 0.6 0.00392157 0.576471 0.6 
0.00392157 0.576471 0.6 0.00392157 0.576471 0.6 
0.00392157 0.576471 0.6 0.00392157 0.576471 0.6 
0.00392157 0.576471 0.6 0.00392157 0.576471 0.6 
0.00392157 0.576471 0.6 0.00392157 0.576471 0.6 
0.00392157 0.576471 0.6 0.00392157 0.576471 0.6 
0.00392157 0.576471 0.6 0.00392157 0.576471 0.6 
0.00392157 0.576471 0.6 0.00392157 0.576471 0.6 
0.00392157 0.576471 0.6 0.00392157 0.576471 0.6 
0.00392157 0.576471 0.6 0.00392157 0.576471 0.6 
0.00392157 0.576471 0.6 0.00392157 0.576471 0.6 
0.00392157 0.576471 0.6 0.00392157 0.576471 0.6 
0.00392157 0.576471 0.6 0.00392157 0.576471 0.6 
0.00392157 0.576471 0.6 0.00392157 0.576471 0.6 
0.00392157 0.576471 0.6 0.00392157 0.576471 0.6 
0.00392157 0.576471 0.6 0.00392157 0.576471 0.6 
0.00392157 0.576471 0.6 0.00392157 0.576471 0.6 
0.00392157 0.576471 0.6 0.00392157 0.576471 0.6 
0.00392157 0.576471 0.6 0.00392157 0.576471 0.6 
0.00392157 0.576471 0.6 0.00392157 0.576471 0.6 
0.00392157 0.576471 0.6 0.00392157 0.576471 0.6 
0.00392157 0.576471 0.6 0.00392157 0.576471 0.6 
0.00392157 0.576471 0.6 0.00392157 0.576471 0.6 
0.00392157 0.576471 0.6 0.00392157 0.576471 0.6 
0.00392157 0.576471 0.6 0.00392157 0.576471 0.6 
0.00392157 0.576471 0.6 0.00392157 0.576471 0.6 
0.00392157 0.576471 0.6 0.00392157 0.576471 0.6 
0.00392157 0.576471 0.6 0.00392157 0.576471 0.6 
0.00392157 0.576471 0.6 0.00392157 0.576471 0.6 
0.00392157 0.576471 0.6 0.00392157 0.576471 0.6 
0.00392157 0.576471 0.6 0.00392157 0.576471 0.6 
0.00392157 0.576471 0.6 0.00392157 0.576471 0.6 
0.00392157 0.576471 0.6 0.00392157 0.576471 0.6 
0.00392157 0.576471 0.6 0.00392157 0.576471 0.6 
0.00392157 0.576471 0.6 0.00392157 0.576471 0.6 
0.00392157 0.576471 0.6 0.00392157 0.576471 0.6 
0.00392157 0.576471 0.6 0.00392157 0.576471 0.6 
0.00392157 0.576471 0.6 0.00392157 0.576471 0.6 
0.00392157 0.576471 0.6 0.00392157 0.576471 0.6 
0.00392157 0.576471 0.6 0.00392157 0.576471 0.6 
0.00392157 0.576471 0.6 0.00392157 0.576471 0.6 
0.00392157 0.576471 0.6 0.00392157 0.576471 0.6 
0.00392157 0.576471 0.6 0.00392157 0.576471 0.6 
0.00392157 0.576471 0.6 0.00392157 0.576471 0.6 
0.00392157 0.576471 0.6 0.00392157 0.576471 0.6 
0.00392157 0.576471 0.6 0.00392157 0.576471 0.6 
0.00392157 0.576471 0.6 0.00392157 0.576471 0.6 
0.00392157 0.576471 0.6 0.00392157 0.576471 0.6 
0.00392157 0.576471 0.6 0.00392157 0.576471 0.6 
0.00392157 0.576471 0.6 0.00392157 0.576471 0.6 
0.00392157 0.576471 0.6 0.00392157 0.576471 0.6 
0.00392157 0.576471 0.6 0.00392157 0.576471 0.6 
0.00392157 0.576471 0.6 0.00392157 0.576471 0.6 
0.00392157 0.576471 0.6 0.00392157 0.576471 0.6 
0.00392157 0.576471 0.6 0.00392157 0.576471 0.6 
0.00392157 0.576471 0.6 0.00392157 0.576471 0.6 
0.00392157 0.576471 0.6 0.00392157 0.576471 0.6 
0.00392157 0.576471 0.6 0.00392157 0.576471 0.6 
0.00392157 0.576471 0.6 0.00392157 0.576471 0.6 
0.00392157 0.576471 0.6 0.00392157 0.576471 0.6 
0.00392157 0.576471 0.6 0.00392157 0.576471 0.6 
0.00392157 0.576471 0.6 0.00392157 0.576471 0.6 
0.00392157 0.576471 0.6 0.00392157 0.576471 0.6 
0.00392157 0.576471 0.6 0.00392157 0.576471 0.6 
0.00392157 0.576471 0.6 0.00392157 0.576471 0.6 
0.00392157 0.576471 0.6 0.00392157 0.576471 0.6 
0.00392157 0.576471 0.6 0.00392157 0.576471 0.6 
0.00392157 0.576471 0.6 0.00392157 0.576471 0.6 
0.00392157 0.576471 0.6 0.00392157 0.576471 0.6 
0.00392157 0.576471 0.6 0.00392157 0.576471 0.6 
0.00392157 0.576471 0.6 0.00392157 0.576471 0.6 
0.00392157 0.576471 0.6 0.00392157 0.576471 0.6 
0.00392157 0.576471 0.6 0.00392157 0.576471 0.6 
0.00392157 0.576471 0.6 0.00392157 0.576471 0.6 
0.00392157 0.576471 0.6 0.00392157 0.576471 0.6 
0.00392157 0.576471 0.6 0.00392157 0.576471 0.6 
0.00392157 0.576471 0.6 0.00392157 0.576471 0.6 
0.00392157 0.576471 0.6 0.00392157 0.576471 0.6 
0.00392157 0.576471 0.6 0.00392157 0.576471 0.6 
0.00392157 0.576471 0.6 0.00392157 0.576471 0.6 
0.00392157 0.576471 0.6 0.00392157 0.576471 0.6 
0.00392157 0.576471 0.6 0.00392157 0.576471 0.6 
0.00392157 0.576471 0.6 0.00392157 0.576471 0.6 
0.00392157 0.576471 0.6 0.00392157 0.576471 0.6 
0.00392157 0.576471 0.6 0.00392157 0.576471 0.6 
0.00392157 0.576471 0.6 0.00392157 0.576471 0.6 
0.00392157 0.576471 0.6 0.00392157 0.576471 0.6 
0.00392157 0.576471 0.6 0.00392157 0.576471 0.6 
0.00392157 0.576471 0.6 0.00392157 0.576471 0.6 
0.00392157 0.576471 0.6 0.00392157 0.576471 0.6 
0.00392157 0.576471 0.6 0.00392157 0.576471 0.6 
0.00392157 0.576471 0.6 0.00392157 0.576471 0.6 
0.00392157 0.576471 0.6 0.00392157 0.576471 0.6 
0.00392157 0.576471 0.6 0.00392157 0.576471 0.6 
0.00392157 0.576471 0.6 0.00392157 0.576471 0.6 
0.00392157 0.576471 0.6 0.00392157 0.576471 0.6 
0.00392157 0.576471 0.6 0.00392157 0.576471 0.6 
0.00392157 0.576471 0.6 0.00392157 0.576471 0.6 
0.00392157 0.576471 0.6 0.00392157 0.576471 0.6 
0.00392157 0.576471 0.6 0.00392157 0.576471 0.6 
0.00392157 0.576471 0.6 0.00392157 0.576471 0.6 
0.00392157 0.576471 0.6 0.00392157 0.576471 0.6 
0.00392157 0.576471 0.6 0.00392157 0.576471 0.6 
0.00392157 0.576471 0.6 0.00392157 0.576471 0.6 
0.00392157 0.576471 0.6 0.00392157 0.576471 0.6 
0.00392157 0.576471 0.6 0.00392157 0.576471 0.6 
0.00392157 0.576471 0.6 0.00392157 0.576471 0.6 
0.00392157 0.576471 0.6 0.00392157 0.576471 0.6 
0.00392157 0.576471 0.6 0.00392157 0.576471 0.6 
0.00392157 0.576471 0.6 0.00392157 0.576471 0.6 
0.00392157 0.576471 0.6 0.00392157 0.576471 0.6 
0.00392157 0.576471 0.6 0.00392157 0.576471 0.6 
0.00392157 0.576471 0.6 0.00392157 0.576471 0.6 
0.00392157 0.576471 0.6 0.00392157 0.576471 0.6 
0.00392157 0.576471 0.6 0.00392157 0.576471 0.6 
0.00392157 0.576471 0.6 0.00392157 0.576471 0.6 
0.00392157 0.576471 0.6 0.00392157 0.576471 0.6 
0.00392157 0.576471 0.6 0.00392157 0.576471 0.6 
0.00392157 0.576471 0.6 0.00392157 0.576471 0.6 
0.00392157 0.576471 0.6 0.00392157 0.576471 0.6 
0.00392157 0.576471 0.6 0.00392157 0.576471 0.6 
0.00392157 0.576471 0.6 0.00392157 0.576471 0.6 
0.00392157 0.576471 0.6 0.00392157 0.576471 0.6 
0.00392157 0.576471 0.6 0.00392157 0.576471 0.6 
0.00392157 0.576471 0.6 0.00392157 0.576471 0.6 
0.00392157 0.576471 0.6 0.00392157 0.576471 0.6 
0.00392157 0.576471 0.6 0.00392157 0.576471 0.6 
0.00392157 0.576471 0.6 0.00392157 0.576471 0.6 
0.00392157 0.576471 0.6 0.00392157 0.576471 0.6 
0.00392157 0.576471 0.6 0.00392157 0.576471 0.6 
0.00392157 0.576471 0.6 0.00392157 0.576471 0.6 
0.00392157 0.576471 0.6 0.00392157 0.576471 0.6 
0.00392157 0.576471 0.6 0.00392157 0.576471 0.6 
0.00392157 0.576471 0.6 0.00392157 0.576471 0.6 
0.00392157 0.576471 0.6 0.00392157 0.576471 0.6 
0.00392157 0.576471 0.6 0.00392157 0.576471 0.6 
0.00392157 0.576471 0.6 0.00392157 0.576471 0.6 
0.00392157 0.576471 0.6 0.00392157 0.576471 0.6 
0.00392157 0.576471 0.6 0.00392157 0.576471 0.6 
0.00392157 0.576471 0.6 0.00392157 0.576471 0.6 
0.00392157 0.576471 0.6 0.00392157 0.576471 0.6 
0.00392157 0.576471 0.6 0.00392157 0.576471 0.6 
0.00392157 0.576471 0.6 0.00392157 0.576471 0.6 
0.00392157 0.576471 0.6 0.00392157 0.576471 0.6 
0.00392157 0.576471 0.6 0.00392157 0.576471 0.6 
0.00392157 0.576471 0.6 0.00392157 0.576471 0.6 
0.00392157 0.576471 0.6 0.00392157 0.576471 0.6 
0.00392157 0.576471 0.6 0.00392157 0.576471 0.6 
0.00392157 0.576471 0.6 0.00392157 0.576471 0.6 
0.00392157 0.576471 0.6 0.00392157 0.576471 0.6 
0.00392157 0.576471 0.6 0.00392157 0.576471 0.6 
0.00392157 0.576471 0.6 0.00392157 0.576471 0.6 
0.00392157 0.576471 0.6 0.00392157 0.576471 0.6 
0.00392157 0.576471 0.6 0.00392157 0.576471 0.6 
0.00392157 0.576471 0.6 0.00392157 0.576471 0.6 
0.00392157 0.576471 0.6 0.00392157 0.576471 0.6 
0.00392157 0.576471 0.6 0.00392157 0.576471 0.6 
0.00392157 0.576471 0.6 0.00392157 0.576471 0.6 
0.00392157 0.576471 0.6 0.00392157 0.576471 0.6 
0.00392157 0.576471 0.6 0.00392157 0.576471 0.6 
0.00392157 0.576471 0.6 0.00392157 0.576471 0.6 
0.00392157 0.576471 0.6 0.00392157 0.576471 0.6 
0.00392157 0.576471 0.6 0.00392157 0.576471 0.6 
0.00392157 0.576471 0.6 0.00392157 0.576471 0.6 
0.00392157 0.576471 0.6 0.00392157 0.576471 0.6 
0.00392157 0.576471 0.6 0.00392157 0.576471 0.6 
0.00392157 0.576471 0.6 0.00392157 0.576471 0.6 
0.00392157 0.576471 0.6 0.00392157 0.576471 0.6 
0.00392157 0.576471 0.6 0.00392157 0.576471 0.6 
0.00392157 0.576471 0.6 0.00392157 0.576471 0.6 
0.00392157 0.576471 0.6 0.00392157 0.576471 0.6 
0.00392157 0.576471 0.6 0.00392157 0.576471 0.6 
0.00392157 0.576471 0.6 0.00392157 0.576471 0.6 
0.00392157 0.576471 0.6 0.00392157 0.576471 0.6 
0.00392157 0.576471 0.6 0.00392157 0.576471 0.6 
0.00392157 0.576471 0.6 0.00392157 0.576471 0.6 
0.00392157 0.576471 0.6 0.00392157 0.576471 0.6 
0.00392157 0.576471 0.6 0.00392157 0.576471 0.6 
0.00392157 0.576471 0.6 0.00392157 0.576471 0.6 
0.00392157 0.576471 0.6 0.00392157 0.576471 0.6 
0.00392157 0.576471 0.6 0.00392157 0.576471 0.6 
0.00392157 0.576471 0.6 0.00392157 0.576471 0.6 
0.00392157 0.576471 0.6 0.00392157 0.576471 0.6 
0.00392157 0.576471 0.6 0.00392157 0.576471 0.6 
0.00392157 0.576471 0.6 0.00392157 0.576471 0.6 
0.00392157 0.576471 0.6 0.00392157 0.576471 0.6 
0.00392157 0.576471 0.6 0.00392157 0.576471 0.6 
0.00392157 0.576471 0.6 0.00392157 0.576471 0.6 
0.00392157 0.576471 0.6 0.00392157 0.576471 0.6 
0.00392157 0.576471 0.6 0.00392157 0.576471 0.6 
0.00392157 0.576471 0.6 0.00392157 0.576471 0.6 
0.00392157 0.576471 0.6 0.00392157 0.576471 0.6 
0.00392157 0.576471 0.6 0.00392157 0.576471 0.6 
0.00392157 0.576471 0.6 0.00392157 0.576471 0.6 
0.00392157 0.576471 0.6 0.00392157 0.576471 0.6 
0.00392157 0.576471 0.6 0.00392157 0.576471 0.6 
0.00392157 0.576471 0.6 0.00392157 0.576471 0.6 
0.00392157 0.576471 0.6 0.00392157 0.576471 0.6 
0.00392157 0.576471 0.6 0.00392157 0.576471 0.6 
0.00392157 0.576471 0.6 0.00392157 0.576471 0.6 
0.00392157 0.576471 0.6 0.00392157 0.576471 0.6 
0.00392157 0.576471 0.6 0.00392157 0.576471 0.6 
0.00392157 0.576471 0.6 0.00392157 0.576471 0.6 
0.00392157 0.576471 0.6 0.00392157 0.576471 0.6 
0.00392157 0.576471 0.6 0.00392157 0.576471 0.6 
0.00392157 0.576471 0.6 0.00392157 0.576471 0.6 
0.00392157 0.576471 0.6 0.00392157 0.576471 0.6 
0.00392157 0.576471 0.6 0.00392157 0.576471 0.6 
0.00392157 0.576471 0.6 0.00392157 0.576471 0.6 
0.00392157 0.576471 0.6 0.00392157 0.576471 0.6 
0.00392157 0.576471 0.6 0.00392157 0.576471 0.6 
0.00392157 0.576471 0.6 0.00392157 0.576471 0.6 
0.00392157 0.576471 0.6 0.00392157 0.576471 0.6 
0.00392157 0.576471 0.6 0.00392157 0.576471 0.6 
0.00392157 0.576471 0.6 0.00392157 0.576471 0.6 
0.00392157 0.576471 0.6 0.00392157 0.576471 0.6 
0.00392157 0.576471 0.6 0.00392157 0.576471 0.6 
0.00392157 0.576471 0.6 0.00392157 0.576471 0.6 
0.00392157 0.576471 0.6 0.00392157 0.576471 0.6 
0.00392157 0.576471 0.6 0.00392157 0.576471 0.6 
0.00392157 0.576471 0.6 0.00392157 0.576471 0.6 
0.00392157 0.576471 0.6 0.00392157 0.576471 0.6 
0.00392157 0.576471 0.6 0.00392157 0.576471 0.6 
0.00392157 0.576471 0.6 0.00392157 0.576471 0.6 
0.00392157 0.576471 0.6 0.00392157 0.576471 0.6 
0.00392157 0.576471 0.6 0.00392157 0.576471 0.6 
0.00392157 0.576471 0.6 0.00392157 0.576471 0.6 
0.00392157 0.576471 0.6 0.00392157 0.576471 0.6 
0.00392157 0.576471 0.6 0.00392157 0.576471 0.6 
0.00392157 0.576471 0.6 0.00392157 0.576471 0.6 
0.00392157 0.576471 0.6 0.00392157 0.576471 0.6 
0.00392157 0.576471 0.6 0.00392157 0.576471 0.6 
0.00392157 0.576471 0.6 0.00392157 0.576471 0.6 
0.00392157 0.576471 0.6 0.00392157 0.576471 0.6 
0.00392157 0.576471 0.6 0.00392157 0.576471 0.6 
0.00392157 0.576471 0.6 0.00392157 0.576471 0.6 
0.00392157 0.576471 0.6 0.00392157 0.576471 0.6 
0.00392157 0.576471 0.6 0.00392157 0.576471 0.6 
0.00392157 0.576471 0.6 0.00392157 0.576471 0.6 
0.00392157 0.576471 0.6 0.00392157 0.576471 0.6 
0.00392157 0.576471 0.6 0.00392157 0.576471 0.6 
0.00392157 0.576471 0.6 0.00392157 0.576471 0.6 
0.00392157 0.576471 0.6 0.00392157 0.576471 0.6 
0.00392157 0.576471 0.6 0.00392157 0.576471 0.6 
0.00392157 0.576471 0.6 0.00392157 0.576471 0.6 
0.00392157 0.576471 0.6 0.00392157 0.576471 0.6 
0.00392157 0.576471 0.6 0.00392157 0.576471 0.6 
0.00392157 0.576471 0.6 0.00392157 0.576471 0.6 
0.00392157 0.576471 0.6 0.00392157 0.576471 0.6 
0.00392157 0.576471 0.6 0.00392157 0.576471 0.6 
0.00392157 0.576471 0.6 0.00392157 0.576471 0.6 
0.00392157 0.576471 0.6 0.00392157 0.576471 0.6 
0.00392157 0.576471 0.6 0.00392157 0.576471 0.6 
0.00392157 0.576471 0.6 0.00392157 0.576471 0.6 
0.00392157 0.576471 0.6 0.00392157 0.576471 0.6 
0.00392157 0.576471 0.6 0.00392157 0.576471 0.6 
0.00392157 0.576471 0.6 0.00392157 0.576471 0.6 
0.00392157 0.576471 0.6 0.00392157 0.576471 0.6 
0.00392157 0.576471 0.6 0.00392157 0.576471 0.6 
0.00392157 0.576471 0.6 0.00392157 0.576471 0.6 
0.00392157 0.576471 0.6 0.00392157 0.576471 0.6 
0.00392157 0.576471 0.6 0.00392157 0.576471 0.6 
0.00392157 0.576471 0.6 0.00392157 0.576471 0.6 
0.00392157 0.576471 0.6 0.00392157 0.576471 0.6 
0.00392157 0.576471 0.6 0.00392157 0.576471 0.6 
0.00392157 0.576471 0.6 0.00392157 0.576471 0.6 
0.00392157 0.576471 0.6 0.00392157 0.576471 0.6 
0.00392157 0.576471 0.6 0.00392157 0.576471 0.6 
0.00392157 0.576471 0.6 0.00392157 0.576471 0.6 
0.00392157 0.576471 0.6 0.00392157 0.576471 0.6 
0.00392157 0.576471 0.6 0.00392157 0.576471 0.6 
0.00392157 0.576471 0.6 0.00392157 0.576471 0.6 
0.00392157 0.576471 0.6 0.00392157 0.576471 0.6 
0.00392157 0.576471 0.6 0.00392157 0.576471 0.6 
0.00392157 0.576471 0.6 0.00392157 0.576471 0.6 
0.00392157 0.576471 0.6 0.00392157 0.576471 0.6 
0.00392157 0.576471 0.6 0.00392157 0.576471 0.6 
0.00392157 0.576471 0.6 0.00392157 0.576471 0.6 
0.00392157 0.576471 0.6 0.00392157 0.576471 0.6 
0.00392157 0.576471 0.6 0.00392157 0.576471 0.6 
0.00392157 0.576471 0.6 0.00392157 0.576471 0.6 
0.00392157 0.576471 0.6 0.00392157 0.576471 0.6 
0.00392157 0.576471 0.6 0.00392157 0.576471 0.6 
0.00392157 0.576471 0.6 0.00392157 0.576471 0.6 
0.00392157 0.576471 0.6 0.00392157 0.576471 0.6 
0.00392157 0.576471 0.6 0.00392157 0.576471 0.6 
0.00392157 0.576471 0.6 0.00392157 0.576471 0.6 
0.00392157 0.576471 0.6 0.00392157 0.576471 0.6 
0.00392157 0.576471 0.6 0.00392157 0.576471 0.6 
0.00392157 0.576471 0.6 0.00392157 0.576471 0.6 
0.00392157 0.576471 0.6 0.00392157 0.576471 0.6 
0.00392157 0.576471 0.6 0.00392157 0.576471 0.6 
0.00392157 0.576471 0.6 0.00392157 0.576471 0.6 
0.00392157 0.576471 0.6 0.00392157 0.576471 0.6 
0.00392157 0.576471 0.6 0.00392157 0.576471 0.6 
0.00392157 0.576471 0.6 0.00392157 0.576471 0.6 
0.00392157 0.576471 0.6 0.00392157 0.576471 0.6 
0.00392157 0.576471 0.6 0.00392157 0.576471 0.6 
0.00392157 0.576471 0.6 0.00392157 0.576471 0.6 
0.00392157 0.576471 0.6 0.00392157 0.576471 0.6 
0.00392157 0.576471 0.6 0.00392157 0.576471 0.6 
0.00392157 0.576471 0.6 0.00392157 0.576471 0.6 
0.00392157 0.576471 0.6 0.00392157 0.576471 0.6 
0.00392157 0.576471 0.6 0.00392157 0.576471 0.6 
0.00392157 0.576471 0.6 0.00392157 0.576471 0.6 
0.00392157 0.576471 0.6 0.00392157 0.576471 0.6 
0.00392157 0.576471 0.6 0.00392157 0.576471 0.6 
0.00392157 0.576471 0.6 0.00392157 0.576471 0.6 
0.00392157 0.576471 0.6 0.00392157 0.576471 0.6 
0.00392157 0.576471 0.6 0.00392157 0.576471 0.6 
0.00392157 0.576471 0.6 0.00392157 0.576471 0.6 
0.00392157 0.576471 0.6 0.00392157 0.576471 0.6 
0.00392157 0.576471 0.6 0.00392157 0.576471 0.6 
0.00392157 0.576471 0.6 0.00392157 0.576471 0.6 
0.00392157 0.576471 0.6 0.00392157 0.576471 0.6 
0.00392157 0.576471 0.6 0.00392157 0.576471 0.6 
0.00392157 0.576471 0.6 0.00392157 0.576471 0.6 
0.00392157 0.576471 0.6 0.00392157 0.576471 0.6 
0.00392157 0.576471 0.6 0.00392157 0.576471 0.6 
0.00392157 0.576471 0.6 0.00392157 0.576471 0.6 
0.00392157 0.576471 0.6 0.00392157 0.576471 0.6 
0.00392157 0.576471 0.6 0.00392157 0.576471 0.6 
0.00392157 0.576471 0.6 0.00392157 0.576471 0.6 
0.00392157 0.576471 0.6 0.00392157 0.576471 0.6 
0.00392157 0.576471 0.6 0.00392157 0.576471 0.6 
0.00392157 0.576471 0.6 0.00392157 0.576471 0.6 
0.00392157 0.576471 0.6 0.00392157 0.576471 0.6 
0.00392157 0.576471 0.6 0.00392157 0.576471 0.6 
0.00392157 0.576471 0.6 0.00392157 0.576471 0.6 
0.00392157 0.576471 0.6 0.00392157 0.576471 0.6 
0.00392157 0.576471 0.6 0.00392157 0.576471 0.6 
0.00392157 0.576471 0.6 0.00392157 0.576471 0.6 
0.00392157 0.576471 0.6 0.00392157 0.576471 0.6 
0.00392157 0.576471 0.6 0.00392157 0.576471 0.6 
0.00392157 0.576471 0.6 0.00392157 0.576471 0.6 
0.00392157 0.576471 0.6 0.00392157 0.576471 0.6 
0.00392157 0.576471 0.6 0.00392157 0.576471 0.6 
0.00392157 0.576471 0.6 0.00392157 0.576471 0.6 