# vtk DataFile Version 4.2
vtk output
ASCII
DATASET POLYDATA
POINTS 876 float
347.14 120.728 62.111 347.303 120.97 62.0182 347.305 120.87 62.0314 
347.63 121.286 61.8569 347.557 121.108 61.9438 347.495 121.214 61.911 
347.644 121.402 61.8283 347.652 121.41 61.8115 347.719 121.465 61.7824 
347.716 121.414 61.8117 347.747 121.541 61.7604 347.801 121.607 61.731 
347.786 121.588 61.7341 347.797 121.581 61.7368 347.823 121.633 61.7162 
344.917 118.26 63.1974 344.88 118.139 63.2563 345.035 118.298 63.1776 
345.043 118.363 63.1746 345.931 119.238 62.7609 345.923 119.275 62.7845 
346.853 119.704 62.5893 346.294 119.714 62.6079 346.586 120.051 62.471 
346.705 120.187 62.3642 346.96 120.395 62.2376 347.433 120.845 62.0804 
347.045 120.625 62.1913 347.599 121.181 61.9302 347.571 121.19 61.939 
347.705 121.404 61.8288 347.788 121.562 61.7514 344.552 117.111 63.8371 
344.625 117.484 63.6819 346.429 118.534 63.1628 344.764 117.853 63.5211 
345.511 118.696 63.0112 346.615 119.084 62.9241 344.909 118.174 63.3127 
345.219 118.483 63.1857 345.635 118.916 62.9997 346.898 119.8 62.6039 
347.329 120.652 62.1865 347.431 120.882 62.0843 344.389 116.438 64.2241 
345.255 116.366 64.3676 345.661 117.286 63.8222 346.202 118.038 63.4056 
346.313 118.24 63.3332 346.409 118.552 63.2161 346.451 119.323 62.9116 
343.263 114.274 65.4086 343.424 114.465 65.305 343.734 114.857 65.1057 
344.11 115.564 64.7419 344.127 115.268 64.8449 345.432 114.325 65.5476 
344.349 116.18 64.4627 345.259 115.374 64.9343 345.43 114.947 65.194 
345.529 114.642 65.3963 345.544 114.783 65.3051 345.584 114.779 65.3247 
345.166 115.592 64.8718 345.652 117.374 63.8635 345.358 115.094 65.149 
345.961 117.751 63.6211 345.525 114.866 65.2756 346.16 117.981 63.4708 
344.831 117.612 63.7514 343.362 114.117 65.5297 343.262 114.175 65.4755 
343.561 114.014 65.6051 343.842 113.779 65.7611 344.071 113.366 66.012 
345.179 113.668 65.9035 344.907 113.151 66.1992 345.153 113.561 65.9967 
343.231 114.248 65.4386 345.302 113.955 65.7775 343.285 114.348 65.3813 
343.463 114.521 65.3066 344.634 115.827 64.7559 340.567 109.867 68.1318 
340.845 109.803 67.9581 341.297 109.912 67.8132 344.144 110.937 67.4766 
340.815 110.18 67.9874 341.038 110.377 67.9087 341.074 110.332 67.8434 
342.102 110.702 67.5669 342.744 111.001 67.3707 343.41 111.481 67.0814 
344.442 112.193 66.7207 344.357 111.692 67.0907 341.252 110.492 67.8171 
342.487 110.961 67.541 343.798 113.977 65.6859 343.165 111.411 67.2568 
344.076 113.473 66.0194 343.903 112.394 66.6488 344.676 112.695 66.5169 
344.999 113.323 66.1515 340.077 108.511 68.5874 340.151 108.903 68.4703 
340.454 108.462 68.4712 342.812 108.762 68.3207 343.448 109.024 68.5274 
340.259 109.293 68.4386 343.744 109.777 68.1989 344.003 110.445 67.8336 
340.501 109.757 68.2878 344.145 111.014 67.544 340.666 110.025 68.1324 
341.259 110.47 67.9138 342.181 110.758 67.7947 343.049 110.823 67.8525 
338.552 106.971 69.7189 342.747 107.377 69.4673 342.845 108.256 68.683 
343.052 107.964 69.1236 343.26 108.444 68.9553 339.096 107.775 69.3689 
339.617 108.277 68.9469 343.43 109.083 68.7307 339.947 108.752 68.9525 
340.507 109.507 68.5519 341.03 109.153 69.0648 342.75 109.853 68.5954 
342.846 109.337 68.9127 343.633 109.883 68.3251 343.875 110.154 68.0701 
343.92 110.497 67.9135 337.656 105.801 70.3865 337.119 105.208 70.7228 
337.116 105.413 70.7499 337.553 105.259 70.5107 338.89 105.381 70.1398 
342.418 106.758 69.928 338.144 106.514 70.1779 342.689 107.278 69.7653 
343.168 108.774 69.0803 335.424 103.637 71.7243 334.886 103.171 71.9813 
335.449 103.261 71.7547 336.123 104.469 71.5299 339.788 104.908 70.4187 
341.27 104.835 71.0555 341.518 105.23 70.9143 336.641 104.899 71.0754 
341.905 105.987 70.4682 336.929 105.31 70.972 337.188 105.534 70.9604 
337.749 105.959 70.7832 342.531 107.747 69.8236 333.328 102.278 72.6856 
332.737 101.884 72.9151 332.754 102.066 72.9664 333.868 102.37 72.4497 
334.028 102.047 72.4666 338.078 102.994 71.57 339.04 102.587 72.0239 
340.148 103.507 71.6438 340.226 103.297 71.9602 333.332 102.446 72.8449 
334.172 102.831 72.3588 335.75 104.034 72.0512 336.554 104.771 71.5654 
341.239 104.759 71.283 341.497 105.331 71.0552 336.85 105.199 71.1902 
339.869 105.91 71.297 341.701 105.996 70.7948 342.054 106.327 70.4712 
330.21 100.652 73.854 334.507 101.035 72.8029 339.425 101.663 73.0441 
339.376 101.45 73.2937 330.871 101.055 73.658 339.549 102.134 72.6862 
331.903 101.672 73.4967 331.987 101.599 73.2748 340.001 102.838 72.4825 
340.45 103.608 72.1573 333.725 102.636 72.9996 340.288 104.276 72.1153 
341.101 104.754 71.5108 328.783 99.9702 74.6518 337.114 99.4822 73.8969 
338.232 100.222 73.6713 326.974 100.051 74.8232 326.646 99.885 74.939 
326.389 99.937 74.9781 327.591 100.145 74.6809 327.549 100.109 74.7215 
328.542 100.211 74.462 328.194 100.17 74.5928 339.001 100.861 73.7301 
327.608 100.129 74.7073 328.768 100.397 74.3755 329.572 100.641 74.2584 
337.217 102.299 73.7791 332.314 101.618 73.9121 339.74 102.822 72.8679 
329.917 97.8123 75.0939 338.227 98.9289 74.906 324.562 99.0844 75.5414 
323.582 99.6266 75.5982 324.158 99.2006 75.6159 327.325 99.4037 75.0618 
328.341 99.2977 74.865 338.587 100.057 74.4924 323.256 99.9677 75.4374 
323.974 99.7691 75.3944 324.671 99.7035 75.3165 325.673 99.7197 75.1535 
327.096 99.845 74.9618 327.904 100.181 74.643 327.29 99.6203 75.2018 
328.06 99.6117 75.1286 328.617 100.297 74.531 329.708 100.445 74.5827 
338.886 101.074 73.9851 339.207 101.275 73.6658 323.254 100.007 75.4053 
323.237 100.017 75.4168 323.331 100.011 75.3949 323.635 99.9216 75.4085 
324.209 99.8188 75.4027 325.013 99.7773 75.3361 325.971 99.8548 75.1698 
326.692 99.9055 75.0586 339.344 101.647 73.5232 323.233 100.044 75.3965 
326.463 97.0252 76.2429 337.24 97.3075 75.9695 324.588 98.2867 76.0808 
324.399 98.3048 76.3111 337.851 98.1799 75.6608 338.113 98.5305 75.3543 
338.153 98.6812 75.3606 327.379 99.4674 75.5545 327.792 99.153 75.9706 
323.796 99.8262 75.5044 324.49 99.7201 75.5307 336.45 95.6124 77.1109 
336.412 95.3516 77.4344 325.618 96.1453 77.3499 335.513 95.9577 76.3517 
336.571 96.1244 76.7117 324.984 96.9487 77.0952 324.712 97.5473 76.7344 
337.011 96.8479 76.5122 337.44 97.5987 76.1717 324.651 97.7823 76.7671 
328.824 97.6892 77.1677 337.213 97.6406 76.3823 324.178 98.9408 76.0691 
324.573 98.3186 76.5083 329.545 94.439 77.916 328.831 94.6183 78.329 
336.178 94.9265 77.6845 336.25 95.0203 77.8123 326.006 95.2456 78.1492 
326.802 94.979 78.1738 327.446 95.5732 77.3995 327.563 95.294 77.8936 
328.333 95.158 77.8502 336.453 95.537 77.5343 325.295 96.3939 77.4881 
336.627 96.191 77.1963 325.056 96.8121 77.3196 324.832 97.2559 77.0552 
325.754 96.8009 77.5867 336.801 96.9648 76.837 324.852 97.4394 77.0585 
325.114 97.3277 77.2139 326.661 93.578 79.339 333.083 93.2134 78.4319 
335.502 93.832 78.5711 335.184 93.3021 78.9253 335.362 93.4433 79.0545 
326.482 93.9607 79.17 327.05 94.214 78.7723 327.712 94.0037 78.8857 
328.568 93.793 78.7853 335.628 94.141 78.6999 336.026 94.7442 78.1681 
325.765 95.7136 78.0044 326.263 94.6588 78.7324 327.205 94.7928 78.5453 
327.57 95.5854 78.0859 327.681 94.2674 78.8935 328.267 94.1738 78.9234 
328.375 95.3915 78.1061 329.336 95.1646 78.5117 329.032 94.4453 78.9602 
336.223 95.1706 77.9098 325.378 96.4692 77.6054 326.17 95.2531 78.4074 
326.992 92.5811 80.0694 334.406 92.7104 79.2618 334.894 92.8978 79.2466 
335.16 93.069 79.2455 334.972 92.8091 79.4802 335.14 93.028 79.4542 
326.686 93.3278 79.6772 326.539 93.8815 79.3535 327.653 94.1331 79.1962 
328.555 94.0129 79.381 330.708 93.6838 80.0171 332.477 93.7102 79.9887 
334.599 93.6108 79.6766 326.782 94.1312 79.2648 327.71 91.6777 80.6545 
327.42 91.7818 80.8105 331.578 91.4818 80.6165 334.183 92.2611 79.9206 
333.78 92.1013 80.219 334.543 92.3947 79.8941 334.31 92.2668 80.0657 
334.563 92.4129 80.0026 327.111 92.3103 80.361 326.895 92.7279 80.0925 
334.824 92.6446 79.7591 334.967 92.9271 79.7291 329.339 93.1612 80.351 
330.543 92.7121 80.7497 334.272 92.8281 80.1543 327.879 90.8747 81.6449 
328.512 90.7545 81.6273 331.089 91.2611 81.1055 331.513 91.3981 81.0408 
327.561 91.4584 81.2329 332.995 92.0137 80.6674 327.16 92.3503 80.5115 
327.467 91.8312 80.9986 328.835 91.7607 81.3766 328.091 90.6013 81.9151 
327.963 90.4984 82.0825 328.171 90.4942 82.0812 328.438 90.5867 82.0018 
327.774 91.0987 81.5897 327.924 90.6563 81.9697 328.836 90.7341 81.7849 
329.61 90.9577 81.5533 330.305 91.2653 81.4329 329.599 91.0804 81.6438 
331.054 91.3462 81.2122 327.986 91.304 81.5739 328.636 91.007 81.8398 
328.027 90.4291 82.1884 327.944 90.4492 82.1636 328.225 90.551 82.1042 
328.669 90.761 81.9303 329.164 90.8843 81.7679 327.959 90.4181 82.2145 
328.097 90.3031 373.767 328.123 90.3107 373.806 328.057 90.3243 373.79 
328.22 90.3354 373.796 328.121 90.4198 373.83 328.15 90.3689 373.906 
328.018 90.4318 373.902 328.516 90.4868 373.868 328.39 90.3656 373.891 
329.582 90.5996 374.052 329.254 90.4851 374.005 327.961 90.6641 374.005 
327.886 90.7198 374.169 330.534 90.8897 374.31 327.978 90.9484 374.123 
330.475 91.0005 374.293 328.065 90.4951 374.037 327.692 91.0996 374.461 
330.386 90.8031 374.44 327.794 91.2645 374.36 327.594 91.515 374.646 
331.459 91.4416 374.615 332.269 91.3733 374.848 332.356 91.5256 374.795 
334.04 91.8823 375.114 334.427 91.9877 375.205 334.388 91.9385 375.209 
334.632 92.0627 375.292 327.732 91.1512 374.608 327.784 91.4011 374.859 
327.582 91.4832 374.793 331.76 91.2723 374.9 332.578 91.4724 375.046 
333.162 91.6031 375.096 334.817 92.2755 375.471 334.687 92.0972 375.369 
334.93 92.3488 375.592 327.469 92.1384 375.011 327.379 92.0918 375.163 
331.481 91.8633 374.874 335.059 92.6323 375.785 327.176 92.7011 375.47 
327.609 92.7706 375.332 334.699 92.1475 375.471 333.719 91.9649 375.451 
334.918 92.3787 375.662 335.075 92.682 375.876 329.642 92.5157 375.351 
331.299 92.1541 375.225 333.015 92.1949 375.364 333.806 92.3756 375.539 
334.56 92.7487 375.854 335.24 93.2569 376.299 326.871 93.6822 376.105 
[...]
POINT_DATA 876
COLOR_SCALARS scalars 3
0.00392157 0.576471 0.6 0.00392157 0.576471 0.6 0.00392157 0.576471 0.6 
0.00392157 0.576471 0.6 0.00392157 0.576471 0.6 
0.00392157 0.576471 0.6 0.00392157 0.576471 0.6 
0.00392157 0.576471 0.6 0.00392157 0.576471 0.6 
0.00392157 0.576471 0.6 0.00392157 0.576471 0.6 
0.00392157 0.576471 0.6 0.00392157 0.576471 0.6 
0.00392157 0.576471 0.6 0.00392157 0.576471 0.6 
0.00392157 0.576471 0.6 0.00392157 0.576471 0.6 
0.00392157 0.576471 0.6 0.00392157 0.576471 0.6 
0.00392157 0.576471 0.6 0.00392157 0.576471 0.6 
0.00392157 0.576471 0.6 0.00392157 0.576471 0.6 
0.00392157 0.576471 0.6 0.00392157 0.576471 0.6 
0.00392157 0.576471 0.6 0.00392157 0.576471 0.6 
0.00392157 0.576471 0.6 0.00392157 0.576471 0.6 
0.00392157 0.576471 0.6 0.00392157 0.576471 0.6 
0.00392157 0.576471 0.6 0.00392157 0.576471 0.6 
0.00392157 0.576471 0.6 0.00392157 0.576471 0.6 
0.00392157 0.576471 0.6 0.00392157 0.576471 0.6 
0.00392157 0.576471 0.6 0.00392157 0.576471 0.6 
0.00392157 0.576471 0.6 0.00392157 0.576471 0.6 
0.00392157 0.576471 0.6 0.00392157 0.576471 0.6 
0.00392157 0.576471 0.6 0.00392157 0.576471 0.6 
0.00392157 0.576471 0.6 0.00392157 0.576471 0.6 
0.00392157 0.576471 0.6 0.00392157 0.576471 0.6 
0.00392157 0.576471 0.6 0.00392157 0.576471 0.6 
0.00392157 0.576471 0.6 0.00392157 0.576471 0.6 
0.00392157 0.576471 0.6 0.00392157 0.576471 0.6 
0.00392157 0.576471 0.6 0.00392157 0.576471 0.6 
0.00392157 0.576471 0.6 0.00392157 0.576471 0.6 
0.00392157 0.576471 0.6 0.00392157 0.576471 0.6 
0.00392157 0.576471 0.6 0.00392157 0.576471 0.6 
0.00392157 0.576471 0.6 0.00392157 0.576471 0.6 
0.00392157 0.576471 0.6 0.00392157 0.576471 0.6 
0.00392157 0.576471 0.6 0.00392157 0.576471 0.6 
0.00392157 0.576471 0.6 0.00392157 0.576471 0.6 
0.00392157 0.576471 0.6 0.00392157 0.576471 0.6 
0.00392157 0.576471 0.6 0.00392157 0.576471 0.6 
0.00392157 0.576471 0.6 0.00392157 0.576471 0.6 
0.00392157 0.576471 0.6 0.00392157 0.576471 0.6 
0.00392157 0.576471 0.6 0.00392157 0.576471 0.6 
0.00392157 0.576471 0.6 0.00392157 0.576471 0.6 
0.00392157 0.576471 0.6 0.00392157 0.576471 0.6 
0.00392157 0.576471 0.6 0.00392157 0.576471 0.6 
0.00392157 0.576471 0.6 0.00392157 0.576471 0.6 
0.00392157 0.576471 0.6 0.00392157 0.576471 0.6 
0.00392157 0.576471 0.6 0.00392157 0.576471 0.6 
0.00392157 0.576471 0.6 0.00392157 0.576471 0.6 
0.00392157 0.576471 0.6 0.00392157 0.576471 0.6 
0.00392157 0.576471 0.6 0.00392157 0.576471 0.6 
0.00392157 0.576471 0.6 0.00392157 0.576471 0.6 
0.00392157 0.576471 0.6 0.00392157 0.576471 0.6 
0.00392157 0.576471 0.6 0.00392157 0.576471 0.6 
0.00392157 0.576471 0.6 0.00392157 0.576471 0.6 
0.00392157 0.576471 0.6 0.00392157 0.576471 0.6 
0.00392157 0.576471 0.6 0.00392157 0.576471 0.6 
0.00392157 0.576471 0.6 0.00392157 0.576471 0.6 
0.00392157 0.576471 0.6 0.00392157 0.576471 0.6 
0.00392157 0.576471 0.6 0.00392157 0.576471 0.6 
0.00392157 0.576471 0.6 0.00392157 0.576471 0.6 
0.00392157 0.576471 0.6 0.00392157 0.576471 0.6 
0.00392157 0.576471 0.6 0.00392157 0.576471 0.6 
0.00392157 0.576471 0.6 0.00392157 0.576471 0.6 
0.00392157 0.576471 0.6 0.00392157 0.576471 0.6 
0.00392157 0.576471 0.6 0.00392157 0.576471 0.6 
0.00392157 0.576471 0.6 0.00392157 0.576471 0.6 
0.00392157 0.576471 0.6 0.00392157 0.576471 0.6 
0.00392157 0.576471 0.6 0.00392157 0.576471 0.6 
0.00392157 0.576471 0.6 0.00392157 0.576471 0.6 
0.00392157 0.576471 0.6 0.00392157 0.576471 0.6 
0.00392157 0.576471 0.6 0.00392157 0.576471 0.6 
0.00392157 0.576471 0.6 0.00392157 0.576471 0.6 
0.00392157 0.576471 0.6 0.00392157 0.576471 0.6 
0.00392157 0.576471 0.6 0.00392157 0.576471 0.6 
0.00392157 0.576471 0.6 0.00392157 0.576471 0.6 
0.00392157 0.576471 0.6 0.00392157 0.576471 0.6 
0.00392157 0.576471 0.6 0.00392157 0.576471 0.6 
0.00392157 0.576471 0.6 0.00392157 0.576471 0.6 
0.00392157 0.576471 0.6 0.00392157 0.576471 0.6 
0.00392157 0.576471 0.6 0.00392157 0.576471 0.6 
0.00392157 0.576471 0.6 0.00392157 0.576471 0.6 
0.00392157 0.576471 0.6 0.00392157 0.576471 0.6 
0.00392157 0.576471 0.6 0.00392157 0.576471 0.6 
0.00392157 0.576471 0.6 0.00392157 0.576471 0.6 
0.00392157 0.576471 0.6 0.00392157 0.576471 0.6 
0.00392157 0.576471 0.6 0.00392157 0.576471 0.6 
0.00392157 0.576471 0.6 0.00392157 0.576471 0.6 
0.00392157 0.576471 0.6 0.00392157 0.576471 0.6 
0.00392157 0.576471 0.6 0.00392157 0.576471 0.6 
0.00392157 0.576471 0.6 0.00392157 0.576471 0.6 
0.00392157 0.576471 0.6 0.00392157 0.576471 0.6 
0.00392157 0.576471 0.6 0.00392157 0.576471 0.6 
0.00392157 0.576471 0.6 0.00392157 0.576471 0.6 
0.00392157 0.576471 0.6 0.00392157 0.576471 0.6 
0.00392157 0.576471 0.6 0.00392157 0.576471 0.6 
0.00392157 0.576471 0.6 0.00392157 0.576471 0.6 
0.00392157 0.576471 0.6 0.00392157 0.576471 0.6 
0.00392157 0.576471 0.6 0.00392157 0.576471 0.6 
0.00392157 0.576471 0.6 0.00392157 0.576471 0.6 
0.00392157 0.576471 0.6 0.00392157 0.576471 0.6 
0.00392157 0.576471 0.6 0.00392157 0.576471 0.6 
0.00392157 0.576471 0.6 0.00392157 0.576471 0.6 
0.00392157 0.576471 0.6 0.00392157 0.576471 0.6 
0.00392157 0.576471 0.6 0.00392157 0.576471 0.6 
0.00392157 0.576471 0.6 0.00392157 0.576471 0.6 
0.00392157 0.576471 0.6 0.00392157 0.576471 0.6 
0.00392157 0.576471 0.6 0.00392157 0.576471 0.6 
0.00392157 0.576471 0.6 0.00392157 0.576471 0.6 
0.00392157 0.576471 0.6 0.00392157 0.576471 0.6 
0.00392157 0.576471 0.6 0.00392157 0.576471 0.6 
0.00392157 0.576471 0.6 0.00392157 0.576471 0.6 
0.00392157 0.576471 0.6 0.00392157 0.576471 0.6 
0.00392157 0.576471 0.6 0.00392157 0.576471 0.6 
0.00392157 0.576471 0.6 0.00392157 0.576471 0.6 
0.00392157 0.576471 0.6 0.00392157 0.576471 0.6 
0.00392157 0.576471 0.6 0.00392157 0.576471 0.6 
0.00392157 0.576471 0.6 0.00392157 0.576471 0.6 
0.00392157 0.576471 0.6 0.00392157 0.576471 0.6 
0.00392157 0.576471 0.6 0.00392157 0.576471 0.6 
0.00392157 0.576471 0.6 0.00392157 0.576471 0.6 
0.00392157 0.576471 0.6 0.00392157 0.576471 0.6 
0.00392157 0.576471 0.6 0.00392157 0.576471 0.6 
0.00392157 0.576471 0.6 0.00392157 0.576471 0.6 
0.00392157 0.576471 0.6 0.00392157 0.576471 0.6 
0.00392157 0.576471 0.6 0.00392157 0.576471 0.6 
0.00392157 0.576471 0.6 0.00392157 0.576471 0.6 
0.00392157 0.576471 0.6 0.00392157 0.576471 0.6 
0.00392157 0.576471 0.6 0.00392157 0.576471 0.6 
0.00392157 0.576471 0.6 0.00392157 0.576471 0.6 
0.00392157 0.576471 0.6 0.00392157 0.576471 0.6 
0.00392157 0.576471 0.6 0.00392157 0.576471 0.6 
0.00392157 0.576471 0.6 0.00392157 0.576471 0.6 
0.00392157 0.576471 0.6 0.00392157 0.576471 0.6 
0.00392157 0.576471 0.6 0.00392157 0.576471 0.6 
0.00392157 0.576471 0.6 0.00392157 0.576471 0.6 
0.00392157 0.576471 0.6 0.00392157 0.576471 0.6 
0.00392157 0.576471 0.6 0.00392157 0.576471 0.6 
0.00392157 0.576471 0.6 0.00392157 0.576471 0.6 
0.00392157 0.576471 0.6 0.00392157 0.576471 0.6 
0.00392157 0.576471 0.6 0.00392157 0.576471 0.6 
0.00392157 0.576471 0.6 0.00392157 0.576471 0.6 
0.00392157 0.576471 0.6 0.00392157 0.576471 0.6 
0.00392157 0.576471 0.6 0.00392157 0.576471 0.6 
0.00392157 0.576471 0.6 0.00392157 0.576471 0.6 
0.00392157 0.576471 0.6 0.00392157 0.576471 0.6 
0.00392157 0.576471 0.6 0.00392157 0.576471 0.6 
0.00392157 0.576471 0.6 0.00392157 0.576471 0.6 
0.00392157 0.576471 0.6 0.00392157 0.576471 0.6 
0.00392157 0.576471 0.6 0.00392157 0.576471 0.6 
0.00392157 0.576471 0.6 0.00392157 0.576471 0.6 
0.00392157 0.576471 0.6 0.00392157 0.576471 0.6 
0.00392157 0.576471 0.6 0.00392157 0.576471 0.6 
0.00392157 0.576471 0.6 0.00392157 0.576471 0.6 
0.00392157 0.576471 0.6 0.00392157 0.576471 0.6 
0.00392157 0.576471 0.6 0.00392157 0.576471 0.6 
0.00392157 0.576471 0.6 0.00392157 0.576471 0.6 
0.00392157 0.576471 0.6 0.00392157 0.576471 0.6 
0.00392157 0.576471 0.6 0.00392157 0.576471 0.6 
0.00392157 0.576471 0.6 0.00392157 0.576471 0.6 
0.00392157 0.576471 0.6 0.00392157 0.576471 0.6 
0.00392157 0.576471 0.6 0.00392157 0.576471 0.6 
0.00392157 0.576471 0.6 0.00392157 0.576471 0.6 
0.00392157 0.576471 0.6 0.00392157 0.576471 0.6 
0.00392157 0.576471 0.6 0.00392157 0.576471 0.6 
0.00392157 0.576471 0.6 0.00392157 0.576471 0.6 
0.00392157 0.576471 0.6 0.00392157 0.576471 0.6 
0.00392157 0.576471 0.6 0.00392157 0.576471 0.6 
0.00392157 0.576471 0.6 0.00392157 0.576471 0.6 
0.00392157 0.576471 0.6 0.00392157 0.576471 0.6 
0.00392157 0.576471 0.6 0.00392157 0.576471 0.6 
0.00392157 0.576471 0.6 0.00392157 0.576471 0.6 
0.00392157 0.576471 0.6 0.00392157 0.576471 0.6 
0.00392157 0.576471 0.6 0.00392157 0.576471 0.6 
0.00392157 0.576471 0.6 0.00392157 0.576471 0.6 
0.00392157 0.576471 0.6 0.00392157 0.576471 0.6 
0.00392157 0.576471 0.6 0.00392157 0.576471 0.6 
0.00392157 0.576471 0.6 0.00392157 0.576471 0.6 
0.00392157 0.576471 0.6 0.00392157 0.576471 0.6 
0.00392157 0.576471 0.6 0.00392157 0.576471 0.6 
0.00392157 0.576471 0.6 0.00392157 0.576471 0.6 
0.00392157 0.576471 0.6 0.00392157 0.576471 0.6 
0.00392157 0.576471 0.6 0.00392157 0.576471 0.6 
0.00392157 0.576471 0.6 0.00392157 0.576471 0.6 
0.00392157 0.576471 0.6 0.00392157 0.576471 0.6 
0.00392157 0.576471 0.6 0.00392157 0.576471 0.6 
0.00392157 0.576471 0.6 0.00392157 0.576471 0.6 
0.00392157 0.576471 0.6 0.00392157 0.576471 0.6 
0.00392157 0.576471 0.6 0.00392157 0.576471 0.6 
0.00392157 0.576471 0.6 0.00392157 0.576471 0.6 
0.00392157 0.576471 0.6 0.00392157 0.576471 0.6 
0.00392157 0.576471 0.6 0.00392157 0.576471 0.6 
0.00392157 0.576471 0.6 0.00392157 0.576471 0.6 
0.00392157 0.576471 0.6 0.00392157 0.576471 0.6 
0.00392157 0.576471 0.6 0.00392157 0.576471 0.6 
0.00392157 0.576471 0.6 0.00392157 0.576471 0.6 
0.00392157 0.576471 0.6 0.00392157 0.576471 0.6 
0.00392157 0.576471 0.6 0.00392157 0.576471 0.6 
0.00392157 0.576471 0.6 0.00392157 0.576471 0.6 
0.00392157 0.576471 0.6 0.00392157 0.576471 0.6 
0.00392157 0.576471 0.6 0.00392157 0.576471 0.6 
0.00392157 0.576471 0.6 0.00392157 0.576471 0.6 
0.00392157 0.576471 0.6 0.00392157 0.576471 0.6 
0.00392157 0.576471 0.6 0.00392157 0.576471 0.6 
0.00392157 0.576471 0.6 0.00392157 0.576471 0.6 
0.00392157 0.576471 0.6 0.00392157 0.576471 0.6 
0.00392157 0.576471 0.6 0.00392157 0.576471 0.6 
0.00392157 0.576471 0.6 0.00392157 0.576471 0.6 
0.00392157 0.576471 0.6 0.00392157 0.576471 0.6 
0.00392157 0.576471 0.6 0.00392157 0.576471 0.6 
0.00392157 0.576471 0.6 0.00392157 0.576471 0.6 
0.00392157 0.576471 0.6 0.00392157 0.576471 0.6 
0.00392157 0.576471 0.6 0.00392157 0.576471 0.6 
0.00392157 0.576471 0.6 0.00392157 0.576471 0.6 
0.00392157 0.576471 0.6 0.00392157 0.576471 0.6 
0.00392157 0.576471 0.6 0.00392157 0.576471 0.6 
0.00392157 0.576471 0.6 0.00392157 0.576471 0.6 
0.00392157 0.576471 0.6 0.00392157 0.576471 0.6 
0.00392157 0.576471 0.6 0.00392157 0.576471 0.6 
0.00392157 0.576471 0.6 0.00392157 0.576471 0.6 
0.00392157 0.576471 0.6 0.00392157 0.576471 0.6 
0.00392157 0.576471 0.6 0.00392157 0.576471 0.6 
0.00392157 0.576471 0.6 0.00392157 0.576471 0.6 
0.00392157 0.576471 0.6 0.00392157 0.576471 0.6 
0.00392157 0.576471 0.6 0.00392157 0.576471 0.6 
0.00392157 0.576471 0.6 0.00392157 0.576471 0.6 
0.00392157 0.576471 0.6 0.00392157 0.576471 0.6 
0.00392157 0.576471 0.6 0.00392157 0.576471 0.6 
0.00392157 0.576471 0.6 0.00392157 0.576471 0.6 
0.00392157 0.576471 0.6 0.00392157 0.576471 0.6 
0.00392157 0.576471 0.6 0.00392157 0.576471 0.6 
0.00392157 0.576471 0.6 0.00392157 0.576471 0.6 
0.00392157 0.576471 0.6 0.00392157 0.576471 0.6 
0.00392157 0.576471 0.6 0.00392157 0.576471 0.6 
0.00392157 0.576471 0.6 0.00392157 0.576471 0.6 
0.00392157 0.576471 0.6 0.00392157 0.576471 0.6 
0.00392157 0.576471 0.6 0.00392157 0.576471 0.6 
0.00392157 0.576471 0.6 0.00392157 0.576471 0.6 
0.00392157 0.576471 0.6 0.00392157 0.576471 0.6 
0.00392157 0.576471 0.6 0.00392157 0.576471 0.6 
0.00392157 0.576471 0.6 0.00392157 0.576471 0.6 
0.00392157 0.576471 0.6 0.00392157 0.576471 0.6 
0.00392157 0.576471 0.6 0.00392157 0.576471 0.6 
0.00392157 0.576471 0.6 0.00392157 0.576471 0.6 
0.00392157 0.576471 0.6 0.00392157 0.576471 0.6 
0.00392157 0.576471 0.6 0.00392157 0.576471 0.6 
0.00392157 0.576471 0.6 0.00392157 0.576471 0.6 
0.00392157 0.576471 0.6 0.00392157 0.576471 0.6 
0.00392157 0.576471 0.6 0.00392157 0.576471 0.6 
0.00392157 0.576471 0.6 0.00392157 0.576471 0.6 
0.00392157 0.576471 0.6 0.00392157 0.576471 0.6 
0.00392157 0.576471 0.6 0.00392157 0.576471 0.6 
0.00392157 0.576471 0.6 0.00392157 0.576471 0.6 
0.00392157 0.576471 0.6 0.00392157 0.576471 0.6 
0.00392157 0.576471 0.6 0.00392157 0.576471 0.6 
0.00392157 0.576471 0.6 0.00392157 0.576471 0.6 
0.00392157 0.576471 0.6 0.00392157 0.576471 0.6 
0.00392157 0.576471 0.6 0.00392157 0.576471 0.6 
0.00392157 0.576471 0.6 0.00392157 0.576471 0.6 
0.00392157 0.576471 0.6 0.00392157 0.576471 0.6 
0.00392157 0.576471 0.6 0.00392157 0.576471 0.6 
0.00392157 0.576471 0.6 0.00392157 0.576471 0.6 
0.00392157 0.576471 0.6 0.00392157 0.576471 0.6 
0.00392157 0.576471 0.6 0.00392157 0.576471 0.6 
0.00392157 0.576471 0.6 0.00392157 0.576471 0.6 
0.00392157 0.576471 0.6 0.00392157 0.576471 0.6 
0.00392157 0.576471 0.6 0.00392157 0.576471 0.6 
0.00392157 0.576471 0.6 0.00392157 0.576471 0.6 
0.00392157 0.576471 0.6 0.00392157 0.576471 0.6 
0.00392157 0.576471 0.6 0.00392157 0.576471 0.6 
0.00392157 0.576471 0.6 0.00392157 0.576471 0.6 
0.00392157 0.576471 0.6 0.00392157 0.576471 0.6 
0.00392157 0.576471 0.6 0.00392157 0.576471 0.6 
0.00392157 0.576471 0.6 0.00392157 0.576471 0.6 
0.00392157 0.576471 0.6 0.00392157 0.576471 0.6 
0.00392157 0.576471 0.6 0.00392157 0.576471 0.6 
0.00392157 0.576471 0.6 0.00392157 0.576471 0.6 
0.00392157 0.576471 0.6 0.00392157 0.576471 0.6 
0.00392157 0.576471 0.6 0.00392157 0.576471 0.6 
0.00392157 0.576471 0.6 0.00392157 0.576471 0.6 
0.00392157 0.576471 0.6 0.00392157 0.576471 0.6 
0.00392157 0.576471 0.6 0.00392157 0.576471 0.6 
0.00392157 0.576471 0.6 0.00392157 0.576471 0.6 
0.00392157 0.576471 0.6 0.00392157 0.576471 0.6 
0.00392157 0.576471 0.6 0.00392157 0.576471 0.6 
0.00392157 0.576471 0.6 0.00392157 0.576471 0.6 
0.00392157 0.576471 0.6 0.00392157 0.576471 0.6 
0.00392157 0.576471 0.6 0.00392157 0.576471 0.6 
0.00392157 0.576471 0.6 0.00392157 0.576471 0.6 
0.00392157 0.576471 0.6 0.00392157 0.576471 0.6 
0.00392157 0.576471 0.6 0.00392157 0.576471 0.6 
0.00392157 0.576471 0.6 0.00392157 0.576471 0.6 
0.00392157 0.576471 0.6 0.00392157 0.576471 0.6 
0.00392157 0.576471 0.6 0.00392157 0.576471 0.6 
0.00392157 0.576471 0.6 0.00392157 0.576471 0.6 
0.00392157 0.576471 0.6 0.00392157 0.576471 0.6 
0.00392157 0.576471 0.6 0.00392157 0.576471 0.6 
0.00392157 0.576471 0.6 0.00392157 0.576471 0.6 
0.00392157 0.576471 0.6 0.00392157 0.576471 0.6 
0.00392157 0.576471 0.6 0.00392157 0.576471 0.6 
0.00392157 0.576471 0.6 0.00392157 0.576471 0.6 
0.00392157 0.576471 0.6 0.00392157 0.576471 0.6 
0.00392157 0.576471 0.6 0.00392157 0.576471 0.6 
0.00392157 0.576471 0.6 0.00392157 0.576471 0.6 
0.00392157 0.576471 0.6 0.00392157 0.576471 0.6 
0.00392157 0.576471 0.6 0.00392157 0.576471 0.6 
0.00392157 0.576471 0.6 0.00392157 0.576471 0.6 
0.00392157 0.576471 0.6 0.00392157 0.576471 0.6 
0.00392157 0.576471 0.6 0.00392157 0.576471 0.6 
0.00392157 0.576471 0.6 0.00392157 0.576471 0.6 
0.00392157 0.576471 0.6 0.00392157 0.576471 0.6 
0.00392157 0.576471 0.6 0.00392157 0.576471 0.6 
0.00392157 0.576471 0.6 0.00392157 0.576471 0.6 
0.00392157 0.576471 0.6 0.00392157 0.576471 0.6 
0.00392157 0.576471 0.6 0.00392157 0.576471 0.6 
0.00392157 0.576471 0.6 0.00392157 0.576471 0.6 
0.00392157 0.576471 0.6 0.00392157 0.576471 0.6 
0.00392157 0.576471 0.6 0.00392157 0.576471 0.6 
0.00392157 0.576471 0.6 0.00392157 0.576471 0.6 
0.00392157 0.576471 0.6 0.00392157 0.576471 0.6 
0.00392157 0.576471 0.6 0.00392157 0.576471 0.6 
0.00392157 0.576471 0.6 0.00392157 0.576471 0.6 
0.00392157 0.576471 0.6 0.00392157 0.576471 0.6 
0.00392157 0.576471 0.6 0.00392157 0.576471 0.6 
0.00392157 0.576471 0.6 0.00392157 0.576471 0.6 
0.00392157 0.576471 0.6 0.00392157 0.576471 0.6 
0.00392157 0.576471 0.6 0.00392157 0.576471 0.6 
0.00392157 0.576471 0.6 0.00392157 0.576471 0.6 
0.00392157 0.576471 0.6 0.00392157 0.576471 0.6 
0.00392157 0.576471 0.6 0.00392157 0.576471 0.6 
0.00392157 0.576471 0.6 0.00392157 0.576471 0.6 
0.00392157 0.576471 0.6 0.00392157 0.576471 0.6 
0.00392157 0.576471 0.6 0.00392157 0.576471 0.6 
0.00392157 0.576471 0.6 0.00392157 0.576471 0.6 
0.00392157 0.576471 0.6 0.00392157 0.576471 0.6 
0.00392157 0.576471 0.6 0.00392157 0.576471 0.6 
0.00392157 0.576471 0.6 0.00392157 0.576471 0.6 
0.00392157 0.576471 0.6 0.00392157 0.576471 0.6 
0.00392157 0.576471 0.6 0.00392157 0.576471 0.6 
0.00392157 0.576471 0.6 0.00392157 0.576471 0.6 
0.00392157 0.576471 0.6 0.00392157 0.576471 0.6 
0.00392157 0.576471 0.6 0.00392157 0.576471 0.6 
0.00392157 0.576471 0.6 0.00392157 0.576471 0.6 
0.00392157 0.576471 0.6 0.00392157 0.576471 0.6 
0.00392157 0.576471 0.6 0.00392157 0.576471 0.6 
0.00392157 0.576471 0.6 0.00392157 0.576471 0.6 
0.00392157 0.576471 0.6 0.00392157 0.576471 0.6 
0.00392157 0.576471 0.6 0.00392157 0.576471 0.6 
0.00392157 0.576471 0.6 0.00392157 0.576471 0.6 
0.00392157 0.576471 0.6 0.00392157 0.576471 0.6 
0.00392157 0.576471 0.6 0.00392157 0.576471 0.6 
0.00392157 0.576471 0.6 0.00392157 0.576471 0.6 
0.00392157 0.576471 0.6 0.00392157 0.576471 0.6 
0.00392157 0.576471 0.6 0.00392157 0.576471 0.6 
0.00392157 0.576471 0.6 0.00392157 0.576471 0.6 
0.00392157 0.576471 0.6 0.00392157 0.576471 0.6 
0.00392157 0.576471 0.6 0.00392157 0.576471 0.6 
0.00392157 0.576471 0.6 0.00392157 0.576471 0.6 
0.00392157 0.576471 0.6 0.00392157 0.576471 0.6 
0.00392157 0.576471 0.6 0.00392157 0.576471 0.6 
0.00392157 0.576471 0.6 0.00392157 0.576471 0.6 
0.00392157 0.576471 0.6 0.00392157 0.576471 0.6 
0.00392157 0.576471 0.6 0.00392157 0.576471 0.6 
0.00392157 0.576471 0.6 0.00392157 0.576471 0.6 
0.00392157 0.576471 0.6 0.00392157 0.576471 0.6 
0.00392157 0.576471 0.6 0.00392157 0.576471 0.6 
0.00392157 0.576471 0.6 0.00392157 0.576471 0.6 
0.00392157 0.576471 0.6 0.00392157 0.576471 0.6 
0.00392157 0.576471 0.6 0.00392157 0.576471 0.6 
0.00392157 0.576471 0.6 0.00392157 0.576471 0.6 
0.00392157 0.576471 0.6 0.00392157 0.576471 0.6 
0.00392157 0.576471 0.6 0.00392157 0.576471 0.6 
0.00392157 0.576471 0.6 0.00392157 0.576471 0.6 
0.00392157 0.576471 0.6 0.00392157 0.576471 0.6 
0.00392157 0.576471 0.6 0.00392157 0.576471 0.6 
0.00392157 0.576471 0.6 0.00392157 0.576471 0.6 
0.00392157 0.576471 0.6 0.00392157 0.576471 0.6 
0.00392157 0.576471 0.6 0.00392157 0.576471 0.6 
0.00392157 0.576471 0.6 0.00392157 0.576471 0.6 
0.00392157 0.576471 0.6 0.00392157 0.576471 0.6 
0.00392157 0.576471 0.6 0.00392157 0.576471 0.6 
0.00392157 0.576471 0.6 0.00392157 0.576471 0.6 
0.00392157 0.576471 0.6 0.00392157 0.576471 0.6 
0.00392157 0.576471 0.6 0.00392157 0.576471 0.6 
0.00392157 0.576471 0.6 0.00392157 0.576471 0.6 
0.00392157 0.576471 0.6 0.00392157 0.576471 0.6 
0.00392157 0.576471 0.6 0.00392157 0.576471 0.6 
0.00392157 0.576471 0.6 0.00392157 0.576471 0.6 
0.00392157 0.576471 0.6 0.00392157 0.576471 0.6 
0.00392157 0.576471 0.6 0.00392157 0.576471 0.6 
0.00392157 0.576471 0.6 0.00392157 0.576471 0.6 
0.00392157 0.576471 0.6 0.00392157 0.576471 0.6 
0.00392157 0.576471 0.6 0.00392157 0.576471 0.6 
0.00392157 0.576471 0.6 0.00392157 0.576471 0.6 
0.00392157 0.576471 0.6 0.00392157 0.576471 0.6 
0.00392157 0.576471 0.6 0.00392157 0.576471 0.6 
0.00392157 0.576471 0.6 0.00392157 0.576471 0.6 
0.00392157 0.576471 0.6 0.00392157 0.576471 0.6 
0.00392157 0.576471 0.6 0.00392157 0.576471 0.6 
0.00392157 0.576471 0.6 0.00392157 0.576471 0.6 
0.00392157 0.576471 0.6 0.00392157 0.576471 0.6 
0.00392157 0.576471 0.6 0.00392157 0.576471 0.6 
0.00392157 0.576471 0.6 0.00392157 0.576471 0.6 
0.00392157 0.576471 0.6 0.00392157 0.576471 0.6 
0.00392157 0.576471 0.6 0.00392157 0.576471 0.6 
0.00392157 0.576471 0.6 0.00392157 0.576471 0.6 
0.00392157 0.576471 0.6 0.00392157 0.576471 0.6 
0.00392157 0.576471 0.6 0.00392157 0.576471 0.6 