# vtk DataFile Version 4.2
vtk output
ASCII
DATASET POLYDATA
POINTS 941 float
350.774 113.504 43.7481 350.551 113.217 43.7606 350.581 113.466 43.7615 
350.995 113.837 43.8241 351.112 114.168 43.8785 351.108 114.339 43.927 
351.189 114.267 43.9842 347.049 109.861 44.623 346.967 109.833 44.7582 
347.261 109.929 44.571 347.088 109.949 44.6343 348.389 110.595 44.1879 
348.349 110.853 44.2057 348.464 111.26 44.2652 350.352 111.89 43.9198 
350.564 111.501 44.081 350.318 112.635 43.8392 350.247 113.244 43.8897 
350.719 114.082 43.9246 351.248 113.665 44.1918 350.863 114.296 43.968 
351.019 114.386 43.9644 351.253 114.154 44.1884 351.145 114.446 44.1043 
348.862 109.901 44.2397 347.208 110.147 44.7254 347.865 110.499 44.4278 
347.503 110.595 44.7619 349.183 112.671 44.3897 349.434 113.028 44.3993 
351.258 113.204 44.5238 350.46 114.148 44.4193 350.927 114.422 44.1046 
351.039 114.535 44.2825 351.187 114.585 44.2549 351.164 114.603 44.3385 
351.221 114.6 44.3138 345.854 107.041 46.0308 348.891 107.601 45.3112 
349.818 108.111 45.4095 347.168 110.335 45.0126 351.019 111.174 45.1286 
347.851 111.342 45.1199 349.851 113.566 44.7835 350.877 114.444 44.4625 
351.054 114.468 44.4991 345.205 105.595 46.7497 345.296 104.893 46.8904 
345.333 106.861 46.4912 350.168 107.709 46.118 350.26 107.298 46.8042 
345.951 108.648 45.9531 350.892 109.26 46.5022 347.468 110.868 45.7565 
348.005 111.527 45.7653 348.61 112.354 45.3484 351.07 112.722 45.3661 
348.837 112.546 45.4288 349.572 113.239 45.1365 350.458 114.004 44.868 
350.413 113.641 45.2317 350.891 113.94 45.0314 349.112 104.861 47.4478 
349.819 105.573 47.6654 344.934 106.677 46.9615 350.586 108.082 46.6169 
345.662 108.496 46.8845 345.891 108.841 47.0261 350.774 109.523 47.0685 
348.434 111.851 45.9439 348.887 111.57 46.6141 349.487 112.46 46.002 
349.683 112.002 46.4315 349.531 112.971 45.4935 342.281 101.494 48.9417 
341.909 101.005 49.2503 342.354 100.924 49.0043 342.196 101.889 48.9776 
348.625 103.599 48.0765 343.851 105.058 48.2487 349.929 105.384 48.4091 
344.672 106.568 47.7667 346.22 109.19 47.1239 350.205 110.612 47.2759 
350.36 111.226 46.7615 341.262 99.5674 49.8853 340.659 98.9335 50.3525 
341.412 100.834 49.7195 342.63 100.307 49.0922 343.321 99.4622 49.2737 
343.937 99.647 49.1799 341.613 101.603 49.6238 348.967 102.879 49.1955 
344.094 105.59 48.7993 350.023 107.972 48.6514 350.32 109.066 47.8845 
349.29 109.628 48.1747 349.606 109.514 48.1644 350.207 110.222 47.5153 
339.775 98.5804 51.0478 345.172 99.1983 49.6374 346.279 99.3835 49.9376 
347.154 100.142 49.8544 348.417 101.342 49.9899 348.597 101.184 50.3547 
341.86 102.186 49.5109 348.762 101.901 50.1331 348.639 101.308 50.3922 
343.996 105.36 49.2607 344.965 106.585 48.9806 345.019 106.233 49.5032 
347.18 107.834 49.2705 347.955 107.67 49.4719 349.137 108.065 49.0573 
350.034 108.906 48.24 339.792 95.5562 51.4276 338.071 95.862 51.985 
338.142 96.125 51.967 338.641 96.2591 51.7237 340.41 95.4977 51.341 
338.152 96.4208 52.0808 338.783 97.2609 51.8332 347.328 98.903 51.2837 
339.414 98.5669 51.7113 347.958 99.6719 51.5253 340.179 99.6637 51.2057 
348.456 101.038 50.7908 341.028 101.107 50.6877 349.041 102.702 50.2794 
349.047 103.386 50.6837 344.111 104.201 50.9737 348.711 106.677 49.8639 
337.127 95.0558 52.6225 343.361 94.9051 52.101 337.609 96.1712 52.6048 
346.483 97.4916 51.741 347.788 99.2221 51.8643 347.976 99.6324 51.9098 
340.996 100.944 51.6255 342.694 102.817 51.4315 348.725 102.932 51.1615 
348.472 103.498 51.4028 332.501 90.7442 54.5375 332.848 90.8691 54.4776 
332.52 90.8759 54.567 335.252 92.949 53.6783 334.777 93.2317 54.0588 
336.499 95.2988 53.6897 337.691 96.5703 52.9833 347.187 97.9276 53.1153 
347.483 98.6173 52.8963 338.698 97.8581 52.9639 340.012 99.5246 52.2602 
348.009 99.8753 52.1564 347.825 99.8267 52.6893 340.527 99.9244 52.6669 
342.593 101.848 52.3982 348.247 102.727 51.8454 347.539 103.483 51.9917 
347.839 102.856 52.1647 348.121 103.87 51.5446 332.12 90.0849 54.7269 
331.31 90.2356 55.0885 335.38 91.1604 53.9017 332.457 91.1069 54.7516 
333.622 91.5517 54.3027 344.728 94.2961 53.5941 335.077 94.0075 54.3862 
346.784 97.4684 54.0291 338.578 97.5275 53.7915 340.244 99.1385 53.5507 
319.698 88.9388 56.6205 319.654 88.9566 56.6265 319.85 88.865 56.6708 
320.084 88.8611 56.7264 319.682 88.9775 56.6639 319.816 89.0038 56.7341 
337.129 89.3204 54.9324 330.801 90.3083 55.4659 340.651 90.3484 54.9655 
345.115 93.9556 54.7424 335.756 94.82 54.5934 345.899 95.8682 55.1135 
336.214 95.2426 54.661 346.391 97.0484 54.5856 339.17 97.948 53.9403 
339.296 97.533 54.6096 346.984 98.1481 53.8796 346.932 98.9164 53.9509 
346.421 98.3336 54.493 342.957 99.8644 54.2284 344.803 99.1072 54.8248 
346.718 99.739 53.9512 347.382 99.9724 53.4841 347.143 99.8828 53.7352 
323.436 87.4725 56.7044 322.996 87.0142 56.9023 324.409 87.4014 56.624 
328.481 86.8717 56.3468 320.142 88.6347 56.846 320.613 88.0426 57.1569 
324.956 87.961 56.5475 327.931 87.7763 56.1776 319.739 88.9898 56.8795 
325.011 88.4048 56.614 325.348 88.5876 56.6513 326.655 88.4057 56.4293 
319.597 89.2118 56.9586 319.588 89.2515 56.9432 319.641 89.1866 56.9047 
319.789 89.1297 56.8596 327.272 88.9493 56.5282 328.217 89.1353 56.2908 
319.698 89.2555 56.9956 330.66 90.7586 55.9939 343.841 91.9471 55.8064 
331.775 91.5989 56.2076 344.286 92.5739 56.3081 344.85 93.4639 55.4533 
345.06 93.8399 55.5922 334.979 94.0601 55.4171 336.313 95.0232 55.568 
345.645 95.7797 55.496 339.787 96.5775 55.8082 346.103 96.5033 54.9778 
343.364 97.8446 55.6346 345.629 97.7608 55.1511 347.256 99.7466 53.7091 
321.848 86.2972 57.7636 322.349 86.0769 57.6694 323.085 85.9139 57.5001 
323.947 85.7705 57.3617 329.43 86.1986 56.6587 339.527 87.9582 56.6056 
319.647 89.2622 57.1721 321.616 88.8769 56.9772 325.89 89.1487 57.1414 
325.395 89.1953 57.4114 342.36 90.1314 56.3373 343.06 90.4611 57.3583 
319.235 89.866 57.5449 319.227 89.8718 57.5345 319.276 89.8234 57.5156 
319.9 89.3449 57.2409 327.45 89.5807 57.3584 330.664 90.9844 56.7472 
331.117 91.239 57.0318 334.424 93.2509 56.4381 345.02 93.9826 55.8948 
344.694 93.8212 56.3975 341.326 95.4608 56.9894 344.778 94.5606 56.4067 
343.854 96.1503 56.4522 344.321 95.9401 56.4058 344.786 95.8978 56.1765 
345.685 97.0582 55.3069 322.174 85.2304 58.7021 321.89 85.537 58.7288 
322.598 85.0701 58.5091 323.286 84.8421 58.329 320.148 88.5129 57.5549 
320.585 87.9775 57.9451 319.571 89.4582 57.4943 322.725 89.0261 57.3953 
319.371 89.7133 57.5226 319.482 89.6286 57.4546 320.342 89.2648 57.4525 
325.165 89.2173 57.8713 319.312 89.8034 57.555 319.492 89.6743 57.5518 
331.532 91.3934 57.2561 344.239 93.338 56.9612 344.343 94.7261 56.7355 
322.335 84.6938 59.4231 320.127 88.9669 57.7727 342.367 89.1757 59.0427 
320.466 89.0972 57.8296 319.9 89.358 57.7118 322.1 88.7203 58.511 
323.506 88.989 58.2822 326.72 89.1364 58.9379 327.851 89.572 58.4982 
319.458 89.663 57.569 319.677 89.4624 57.6291 319.774 89.4806 57.6428 
329.849 90.4228 57.94 331.573 91.2105 57.7175 332.362 91.4175 57.8858 
336.125 91.4418 59.1855 339.358 91.9559 59.2301 342.695 92.348 58.4178 
342.558 93.6111 57.8939 323.416 83.2021 60.4792 322.94 83.7957 60.2666 
324.944 82.5476 60.0398 339.198 84.4312 59.9502 340.367 85.6127 59.8931 
321.73 87.4049 59.3106 322.574 88.4075 59.0089 342.046 89.1422 59.7715 
335.818 90.5462 59.8381 342.062 89.9997 59.539 324.504 81.8762 61.2152 
324.112 82.0686 61.3953 324.925 81.3241 61.6608 323.839 82.3949 61.3791 
338.906 83.2339 61.277 339.783 84.2385 61.1345 322.301 84.7129 60.1133 
323.064 83.6579 60.9229 340.114 84.7513 61.1381 322.454 84.6947 60.5205 
322.113 85.2509 60.0463 323.404 86.5941 60.6672 322.127 87.5866 59.4939 
322.664 87.5768 59.7395 336.835 88.6421 61.3528 341.475 90.2852 59.8133 
324.309 81.5863 62.1866 336.496 80.8571 62.0933 323.773 82.4952 61.7567 
323.537 83.2536 61.6754 339.694 83.8646 61.8148 322.717 84.6706 60.9135 
322.534 85.4866 60.6776 325.671 79.8291 63.2111 325.263 80.1079 63.438 
330.54 79.198 62.5954 333.626 78.9953 63.1069 326.516 79.9551 62.4116 
327.312 79.8152 62.2805 335.558 79.6206 62.9715 337.623 80.6364 63.0885 
337.968 80.7716 63.371 338.592 82.0128 62.8265 339.029 82.7571 62.9269 
324.032 82.7998 62.4255 339.297 83.3596 62.794 339.774 84.1789 62.1877 
340.086 85.3074 62.0565 340.229 86.4683 61.9593 325.342 79.8474 63.9487 
337.954 80.5204 63.7169 337.653 80.0436 63.8848 337.947 80.3293 64.2135 
324.345 81.6399 62.8464 324.442 81.686 63.0707 324.397 82.4404 62.9105 
338.82 82.5039 63.5045 339.072 83.2093 63.2448 339.189 84.384 63.0614 
340.4 86.5696 61.8323 327.253 77.7004 64.9321 335.51 78.0701 65.1807 
326.033 78.6679 64.9195 335.799 78.2296 64.9381 335.808 78.4892 64.4984 
336.569 78.7935 64.5028 337.478 79.3332 64.7397 337.448 79.238 65.0346 
325.258 80.1929 64.2592 325.634 79.8072 64.7662 325.128 80.6407 64.0388 
325.113 81.2502 63.883 326.326 81.4718 64.5873 338.3 82.3429 64.3665 
327.499 76.9961 65.934 329.304 76.6285 66.1908 332.637 77.1609 65.9522 
326.307 78.1282 65.5334 334.515 77.7957 65.7641 336.248 78.273 65.5481 
336.853 78.5733 65.3106 336.652 78.4319 65.4846 326.075 78.6309 65.3877 
326.097 79.0438 65.5001 337.721 79.9123 65.1764 326.078 79.6316 65.3528 
337.786 81.0148 65.2682 334.96 81.851 65.6256 336.53 81.7675 65.5611 
337.435 81.4823 65.4475 337.542 81.2283 65.4779 338.005 82.1027 64.7766 
327.303 76.8062 66.6662 328.021 76.479 66.8791 328.748 76.4743 66.5428 
329.231 76.5075 66.6007 329.331 76.5652 66.8642 327.035 77.0529 66.5587 
326.483 77.8416 66.0219 335.246 78.0874 66.1343 326.554 77.8702 66.2789 
333.795 77.989 66.6373 334.914 78.191 66.533 335.478 78.2926 66.4532 
335.773 78.5368 66.5391 326.503 78.6198 66.0963 327.521 78.8311 66.5844 
336.229 78.7564 66.3776 326.35 79.8639 65.4867 336.553 80.8065 66.0186 
337.046 80.661 65.9418 327.359 76.7411 66.974 327.588 76.6749 67.1729 
328.339 76.4777 67.0524 327.334 76.8268 67.105 327.126 77.0011 66.8373 
330.341 77.0487 66.9759 332.087 77.4124 66.7675 332.401 77.733 66.8905 
[...]
POINT_DATA 941
COLOR_SCALARS scalars 3
0.00392157 0.576471 0.6 0.00392157 0.576471 0.6 0.00392157 0.576471 0.6 
0.00392157 0.576471 0.6 0.00392157 0.576471 0.6 
0.00392157 0.576471 0.6 0.00392157 0.576471 0.6 
0.00392157 0.576471 0.6 0.00392157 0.576471 0.6 
0.00392157 0.576471 0.6 0.00392157 0.576471 0.6 
0.00392157 0.576471 0.6 0.00392157 0.576471 0.6 
0.00392157 0.576471 0.6 0.00392157 0.576471 0.6 
0.00392157 0.576471 0.6 0.00392157 0.576471 0.6 
0.00392157 0.576471 0.6 0.00392157 0.576471 0.6 
0.00392157 0.576471 0.6 0.00392157 0.576471 0.6 
0.00392157 0.576471 0.6 0.00392157 0.576471 0.6 
0.00392157 0.576471 0.6 0.00392157 0.576471 0.6 
0.00392157 0.576471 0.6 0.00392157 0.576471 0.6 
0.00392157 0.576471 0.6 0.00392157 0.576471 0.6 
0.00392157 0.576471 0.6 0.00392157 0.576471 0.6 
0.00392157 0.576471 0.6 0.00392157 0.576471 0.6 
0.00392157 0.576471 0.6 0.00392157 0.576471 0.6 
0.00392157 0.576471 0.6 0.00392157 0.576471 0.6 
0.00392157 0.576471 0.6 0.00392157 0.576471 0.6 
0.00392157 0.576471 0.6 0.00392157 0.576471 0.6 
0.00392157 0.576471 0.6 0.00392157 0.576471 0.6 
0.00392157 0.576471 0.6 0.00392157 0.576471 0.6 
0.00392157 0.576471 0.6 0.00392157 0.576471 0.6 
0.00392157 0.576471 0.6 0.00392157 0.576471 0.6 
0.00392157 0.576471 0.6 0.00392157 0.576471 0.6 
0.00392157 0.576471 0.6 0.00392157 0.576471 0.6 
0.00392157 0.576471 0.6 0.00392157 0.576471 0.6 
0.00392157 0.576471 0.6 0.00392157 0.576471 0.6 
0.00392157 0.576471 0.6 0.00392157 0.576471 0.6 
0.00392157 0.576471 0.6 0.00392157 0.576471 0.6 
0.00392157 0.576471 0.6 0.00392157 0.576471 0.6 
0.00392157 0.576471 0.6 0.00392157 0.576471 0.6 
0.00392157 0.576471 0.6 0.00392157 0.576471 0.6 
0.00392157 0.576471 0.6 0.00392157 0.576471 0.6 
0.00392157 0.576471 0.6 0.00392157 0.576471 0.6 
0.00392157 0.576471 0.6 0.00392157 0.576471 0.6 
0.00392157 0.576471 0.6 0.00392157 0.576471 0.6 
0.00392157 0.576471 0.6 0.00392157 0.576471 0.6 
0.00392157 0.576471 0.6 0.00392157 0.576471 0.6 
0.00392157 0.576471 0.6 0.00392157 0.576471 0.6 
0.00392157 0.576471 0.6 0.00392157 0.576471 0.6 
0.00392157 0.576471 0.6 0.00392157 0.576471 0.6 
0.00392157 0.576471 0.6 0.00392157 0.576471 0.6 
0.00392157 0.576471 0.6 0.00392157 0.576471 0.6 
0.00392157 0.576471 0.6 0.00392157 0.576471 0.6 
0.00392157 0.576471 0.6 0.00392157 0.576471 0.6 
0.00392157 0.576471 0.6 0.00392157 0.576471 0.6 
0.00392157 0.576471 0.6 0.00392157 0.576471 0.6 
0.00392157 0.576471 0.6 0.00392157 0.576471 0.6 
0.00392157 0.576471 0.6 0.00392157 0.576471 0.6 
0.00392157 0.576471 0.6 0.00392157 0.576471 0.6 
0.00392157 0.576471 0.6 0.00392157 0.576471 0.6 
0.00392157 0.576471 0.6 0.00392157 0.576471 0.6 
0.00392157 0.576471 0.6 0.00392157 0.576471 0.6 
0.00392157 0.576471 0.6 0.00392157 0.576471 0.6 
0.00392157 0.576471 0.6 0.00392157 0.576471 0.6 
0.00392157 0.576471 0.6 0.00392157 0.576471 0.6 
0.00392157 0.576471 0.6 0.00392157 0.576471 0.6 
0.00392157 0.576471 0.6 0.00392157 0.576471 0.6 
0.00392157 0.576471 0.6 0.00392157 0.576471 0.6 
0.00392157 0.576471 0.6 0.00392157 0.576471 0.6 
0.00392157 0.576471 0.6 0.00392157 0.576471 0.6 
0.00392157 0.576471 0.6 0.00392157 0.576471 0.6 
0.00392157 0.576471 0.6 0.00392157 0.576471 0.6 
0.00392157 0.576471 0.6 0.00392157 0.576471 0.6 
0.00392157 0.576471 0.6 0.00392157 0.576471 0.6 
0.00392157 0.576471 0.6 0.00392157 0.576471 0.6 
0.00392157 0.576471 0.6 0.00392157 0.576471 0.6 
0.00392157 0.576471 0.6 0.00392157 0.576471 0.6 
0.00392157 0.576471 0.6 0.00392157 0.576471 0.6 
0.00392157 0.576471 0.6 0.00392157 0.576471 0.6 
0.00392157 0.576471 0.6 0.00392157 0.576471 0.6 
0.00392157 0.576471 0.6 0.00392157 0.576471 0.6 
0.00392157 0.576471 0.6 0.00392157 0.576471 0.6 
0.00392157 0.576471 0.6 0.00392157 0.576471 0.6 
0.00392157 0.576471 0.6 0.00392157 0.576471 0.6 
0.00392157 0.576471 0.6 0.00392157 0.576471 0.6 
0.00392157 0.576471 0.6 0.00392157 0.576471 0.6 
0.00392157 0.576471 0.6 0.00392157 0.576471 0.6 
0.00392157 0.576471 0.6 0.00392157 0.576471 0.6 
0.00392157 0.576471 0.6 0.00392157 0.576471 0.6 
0.00392157 0.576471 0.6 0.00392157 0.576471 0.6 
0.00392157 0.576471 0.6 0.00392157 0.576471 0.6 
0.00392157 0.576471 0.6 0.00392157 0.576471 0.6 
0.00392157 0.576471 0.6 0.00392157 0.576471 0.6 
0.00392157 0.576471 0.6 0.00392157 0.576471 0.6 
0.00392157 0.576471 0.6 0.00392157 0.576471 0.6 
0.00392157 0.576471 0.6 0.00392157 0.576471 0.6 
0.00392157 0.576471 0.6 0.00392157 0.576471 0.6 
0.00392157 0.576471 0.6 0.00392157 0.576471 0.6 
0.00392157 0.576471 0.6 0.00392157 0.576471 0.6 
0.00392157 0.576471 0.6 0.00392157 0.576471 0.6 
0.00392157 0.576471 0.6 0.00392157 0.576471 0.6 
0.00392157 0.576471 0.6 0.00392157 0.576471 0.6 
0.00392157 0.576471 0.6 0.00392157 0.576471 0.6 
0.00392157 0.576471 0.6 0.00392157 0.576471 0.6 
0.00392157 0.576471 0.6 0.00392157 0.576471 0.6 
0.00392157 0.576471 0.6 0.00392157 0.576471 0.6 
0.00392157 0.576471 0.6 0.00392157 0.576471 0.6 
0.00392157 0.576471 0.6 0.00392157 0.576471 0.6 
0.00392157 0.576471 0.6 0.00392157 0.576471 0.6 
0.00392157 0.576471 0.6 0.00392157 0.576471 0.6 
0.00392157 0.576471 0.6 0.00392157 0.576471 0.6 
0.00392157 0.576471 0.6 0.00392157 0.576471 0.6 
0.00392157 0.576471 0.6 0.00392157 0.576471 0.6 
0.00392157 0.576471 0.6 0.00392157 0.576471 0.6 
0.00392157 0.576471 0.6 0.00392157 0.576471 0.6 
0.00392157 0.576471 0.6 0.00392157 0.576471 0.6 
0.00392157 0.576471 0.6 0.00392157 0.576471 0.6 
0.00392157 0.576471 0.6 0.00392157 0.576471 0.6 
0.00392157 0.576471 0.6 0.00392157 0.576471 0.6 
0.00392157 0.576471 0.6 0.00392157 0.576471 0.6 
0.00392157 0.576471 0.6 0.00392157 0.576471 0.6 
0.00392157 0.576471 0.6 0.00392157 0.576471 0.6 
0.00392157 0.576471 0.6 0.00392157 0.576471 0.6 
0.00392157 0.576471 0.6 0.00392157 0.576471 0.6 
0.00392157 0.576471 0.6 0.00392157 0.576471 0.6 
0.00392157 0.576471 0.6 0.00392157 0.576471 0.6 
0.00392157 0.576471 0.6 0.00392157 0.576471 0.6 
0.00392157 0.576471 0.6 0.00392157 0.576471 0.6 
0.00392157 0.576471 0.6 0.00392157 0.576471 0.6 
0.00392157 0.576471 0.6 0.00392157 0.576471 0.6 
0.00392157 0.576471 0.6 0.00392157 0.576471 0.6 
0.00392157 0.576471 0.6 0.00392157 0.576471 0.6 
0.00392157 0.576471 0.6 0.00392157 0.576471 0.6 
0.00392157 0.576471 0.6 0.00392157 0.576471 0.6 
0.00392157 0.576471 0.6 0.00392157 0.576471 0.6 
0.00392157 0.576471 0.6 0.00392157 0.576471 0.6 
0.00392157 0.576471 0.6 0.00392157 0.576471 0.6 
0.00392157 0.576471 0.6 0.00392157 0.576471 0.6 
0.00392157 0.576471 0.6 0.00392157 0.576471 0.6 
0.00392157 0.576471 0.6 0.00392157 0.576471 0.6 
0.00392157 0.576471 0.6 0.00392157 0.576471 0.6 
0.00392157 0.576471 0.6 0.00392157 0.576471 0.6 
0.00392157 0.576471 0.6 0.00392157 0.576471 0.6 
0.00392157 0.576471 0.6 0.00392157 0.576471 0.6 
0.00392157 0.576471 0.6 0.00392157 0.576471 0.6 
0.00392157 0.576471 0.6 0.00392157 0.576471 0.6 
0.00392157 0.576471 0.6 0.00392157 0.576471 0.6 
0.00392157 0.576471 0.6 0.00392157 0.576471 0.6 
0.00392157 0.576471 0.6 0.00392157 0.576471 0.6 
0.00392157 0.576471 0.6 0.00392157 0.576471 0.6 
0.00392157 0.576471 0.6 0.00392157 0.576471 0.6 
0.00392157 0.576471 0.6 0.00392157 0.576471 0.6 
0.00392157 0.576471 0.6 0.00392157 0.576471 0.6 
0.00392157 0.576471 0.6 0.00392157 0.576471 0.6 
0.00392157 0.576471 0.6 0.00392157 0.576471 0.6 
0.00392157 0.576471 0.6 0.00392157 0.576471 0.6 
0.00392157 0.576471 0.6 0.00392157 0.576471 0.6 
0.00392157 0.576471 0.6 0.00392157 0.576471 0.6 
0.00392157 0.576471 0.6 0.00392157 0.576471 0.6 
0.00392157 0.576471 0.6 0.00392157 0.576471 0.6 
0.00392157 0.576471 0.6 0.00392157 0.576471 0.6 
0.00392157 0.576471 0.6 0.00392157 0.576471 0.6 
0.00392157 0.576471 0.6 0.00392157 0.576471 0.6 
0.00392157 0.576471 0.6 0.00392157 0.576471 0.6 
0.00392157 0.576471 0.6 0.00392157 0.576471 0.6 
0.00392157 0.576471 0.6 0.00392157 0.576471 0.6 
0.00392157 0.576471 0.6 0.00392157 0.576471 0.6 
0.00392157 0.576471 0.6 0.00392157 0.576471 0.6 
0.00392157 0.576471 0.6 0.00392157 0.576471 0.6 
0.00392157 0.576471 0.6 0.00392157 0.576471 0.6 
0.00392157 0.576471 0.6 0.00392157 0.576471 0.6 
0.00392157 0.576471 0.6 0.00392157 0.576471 0.6 
0.00392157 0.576471 0.6 0.00392157 0.576471 0.6 
0.00392157 0.576471 0.6 0.00392157 0.576471 0.6 
0.00392157 0.576471 0.6 0.00392157 0.576471 0.6 
0.00392157 0.576471 0.6 0.00392157 0.576471 0.6 
0.00392157 0.576471 0.6 0.00392157 0.576471 0.6 
0.00392157 0.576471 0.6 0.00392157 0.576471 0.6 
0.00392157 0.576471 0.6 0.00392157 0.576471 0.6 
0.00392157 0.576471 0.6 0.00392157 0.576471 0.6 
0.00392157 0.576471 0.6 0.00392157 0.576471 0.6 
0.00392157 0.576471 0.6 0.00392157 0.576471 0.6 
0.00392157 0.576471 0.6 0.00392157 0.576471 0.6 
0.00392157 0.576471 0.6 0.00392157 0.576471 0.6 
0.00392157 0.576471 0.6 0.00392157 0.576471 0.6 
0.00392157 0.576471 0.6 0.00392157 0.576471 0.6 
0.00392157 0.576471 0.6 0.00392157 0.576471 0.6 
0.00392157 0.576471 0.6 0.00392157 0.576471 0.6 
0.00392157 0.576471 0.6 0.00392157 0.576471 0.6 
0.00392157 0.576471 0.6 0.00392157 0.576471 0.6 
0.00392157 0.576471 0.6 0.00392157 0.576471 0.6 
0.00392157 0.576471 0.6 0.00392157 0.576471 0.6 
0.00392157 0.576471 0.6 0.00392157 0.576471 0.6 
0.00392157 0.576471 0.6 0.00392157 0.576471 0.6 
0.00392157 0.576471 0.6 0.00392157 0.576471 0.6 
0.00392157 0.576471 0.6 0.00392157 0.576471 0.6 
0.00392157 0.576471 0.6 0.00392157 0.576471 0.6 
0.00392157 0.576471 0.6 0.00392157 0.576471 0.6 
0.00392157 0.576471 0.6 0.00392157 0.576471 0.6 
0.00392157 0.576471 0.6 0.00392157 0.576471 0.6 
0.00392157 0.576471 0.6 0.00392157 0.576471 0.6 
0.00392157 0.576471 0.6 0.00392157 0.576471 0.6 
0.00392157 0.576471 0.6 0.00392157 0.576471 0.6 
0.00392157 0.576471 0.6 0.00392157 0.576471 0.6 
0.00392157 0.576471 0.6 0.00392157 0.576471 0.6 
0.00392157 0.576471 0.6 0.00392157 0.576471 0.6 
0.00392157 0.576471 0.6 0.00392157 0.576471 0.6 
0.00392157 0.576471 0.6 0.00392157 0.576471 0.6 
0.00392157 0.576471 0.6 0.00392157 0.576471 0.6 
0.00392157 0.576471 0.6 0.00392157 0.576471 0.6 
0.00392157 0.576471 0.6 0.00392157 0.576471 0.6 
0.00392157 0.576471 0.6 0.00392157 0.576471 0.6 
0.00392157 0.576471 0.6 0.00392157 0.576471 0.6 
0.00392157 0.576471 0.6 0.00392157 0.576471 0.6 
0.00392157 0.576471 0.6 0.00392157 0.576471 0.6 
0.00392157 0.576471 0.6 0.00392157 0.576471 0.6 
0.00392157 0.576471 0.6 0.00392157 0.576471 0.6 
0.00392157 0.576471 0.6 0.00392157 0.576471 0.6 
0.00392157 0.576471 0.6 0.00392157 0.576471 0.6 
0.00392157 0.576471 0.6 0.00392157 0.576471 0.6 
0.00392157 0.576471 0.6 0.00392157 0.576471 0.6 
0.00392157 0.576471 0.6 0.00392157 0.576471 0.6 
0.00392157 0.576471 0.6 0.00392157 0.576471 0.6 
0.00392157 0.576471 0.6 0.00392157 0.576471 0.6 
0.00392157 0.576471 0.6 0.00392157 0.576471 0.6 
0.00392157 0.576471 0.6 0.00392157 0.576471 0.6 
0.00392157 0.576471 0.6 0.00392157 0.576471 0.6 
0.00392157 0.576471 0.6 0.00392157 0.576471 0.6 
0.00392157 0.576471 0.6 0.00392157 0.576471 0.6 
0.00392157 0.576471 0.6 0.00392157 0.576471 0.6 
0.00392157 0.576471 0.6 0.00392157 0.576471 0.6 
0.00392157 0.576471 0.6 0.00392157 0.576471 0.6 
0.00392157 0.576471 0.6 0.00392157 0.576471 0.6 
0.00392157 0.576471 0.6 0.00392157 0.576471 0.6 
0.00392157 0.576471 0.6 0.00392157 0.576471 0.6 
0.00392157 0.576471 0.6 0.00392157 0.576471 0.6 
0.00392157 0.576471 0.6 0.00392157 0.576471 0.6 
0.00392157 0.576471 0.6 0.00392157 0.576471 0.6 
0.00392157 0.576471 0.6 0.00392157 0.576471 0.6 
0.00392157 0.576471 0.6 0.00392157 0.576471 0.6 
0.00392157 0.576471 0.6 0.00392157 0.576471 0.6 
0.00392157 0.576471 0.6 0.00392157 0.576471 0.6 
0.00392157 0.576471 0.6 0.00392157 0.576471 0.6 
0.00392157 0.576471 0.6 0.00392157 0.576471 0.6 
0.00392157 0.576471 0.6 0.00392157 0.576471 0.6 
0.00392157 0.576471 0.6 0.00392157 0.576471 0.6 
0.00392157 0.576471 0.6 0.00392157 0.576471 0.6 
0.00392157 0.576471 0.6 0.00392157 0.576471 0.6 
0.00392157 0.576471 0.6 0.00392157 0.576471 0.6 
0.00392157 0.576471 0.6 0.00392157 0.576471 0.6 
0.00392157 0.576471 0.6 0.00392157 0.576471 0.6 
0.00392157 0.576471 0.6 0.00392157 0.576471 0.6 
0.00392157 0.576471 0.6 0.00392157 0.576471 0.6 
0.00392157 0.576471 0.6 0.00392157 0.576471 0.6 
0.00392157 0.576471 0.6 0.00392157 0.576471 0.6 
0.00392157 0.576471 0.6 0.00392157 0.576471 0.6 
0.00392157 0.576471 0.6 0.00392157 0.576471 0.6 
0.00392157 0.576471 0.6 0.00392157 0.576471 0.6 
0.00392157 0.576471 0.6 0.00392157 0.576471 0.6 
0.00392157 0.576471 0.6 0.00392157 0.576471 0.6 
0.00392157 0.576471 0.6 0.00392157 0.576471 0.6 
0.00392157 0.576471 0.6 0.00392157 0.576471 0.6 
0.00392157 0.576471 0.6 0.00392157 0.576471 0.6 
0.00392157 0.576471 0.6 0.00392157 0.576471 0.6 
0.00392157 0.576471 0.6 0.00392157 0.576471 0.6 
0.00392157 0.576471 0.6 0.00392157 0.576471 0.6 
0.00392157 0.576471 0.6 0.00392157 0.576471 0.6 
0.00392157 0.576471 0.6 0.00392157 0.576471 0.6 
0.00392157 0.576471 0.6 0.00392157 0.576471 0.6 
0.00392157 0.576471 0.6 0.00392157 0.576471 0.6 
0.00392157 0.576471 0.6 0.00392157 0.576471 0.6 
0.00392157 0.576471 0.6 0.00392157 0.576471 0.6 
0.00392157 0.576471 0.6 0.00392157 0.576471 0.6 
0.00392157 0.576471 0.6 0.00392157 0.576471 0.6 
0.00392157 0.576471 0.6 0.00392157 0.576471 0.6 
0.00392157 0.576471 0.6 0.00392157 0.576471 0.6 
0.00392157 0.576471 0.6 0.00392157 0.576471 0.6 
0.00392157 0.576471 0.6 0.00392157 0.576471 0.6 
0.00392157 0.576471 0.6 0.00392157 0.576471 0.6 
0.00392157 0.576471 0.6 0.00392157 0.576471 0.6 
0.00392157 0.576471 0.6 0.00392157 0.576471 0.6 
0.00392157 0.576471 0.6 0.00392157 0.576471 0.6 
0.00392157 0.576471 0.6 0.00392157 0.576471 0.6 
0.00392157 0.576471 0.6 0.00392157 0.576471 0.6 
0.00392157 0.576471 0.6 0.00392157 0.576471 0.6 
0.00392157 0.576471 0.6 0.00392157 0.576471 0.6 
0.00392157 0.576471 0.6 0.00392157 0.576471 0.6 
0.00392157 0.576471 0.6 0.00392157 0.576471 0.6 
0.00392157 0.576471 0.6 0.00392157 0.576471 0.6 
0.00392157 0.576471 0.6 0.00392157 0.576471 0.6 
0.00392157 0.576471 0.6 0.00392157 0.576471 0.6 
0.00392157 0.576471 0.6 0.00392157 0.576471 0.6 
0.00392157 0.576471 0.6 0.00392157 0.576471 0.6 
0.00392157 0.576471 0.6 0.00392157 0.576471 0.6 
0.00392157 0.576471 0.6 0.00392157 0.576471 0.6 
0.00392157 0.576471 0.6 0.00392157 0.576471 0.6 
0.00392157 0.576471 0.6 0.00392157 0.576471 0.6 
0.00392157 0.576471 0.6 0.00392157 0.576471 0.6 
0.00392157 0.576471 0.6 0.00392157 0.576471 0.6 
0.00392157 0.576471 0.6 0.00392157 0.576471 0.6 
0.00392157 0.576471 0.6 0.00392157 0.576471 0.6 
0.00392157 0.576471 0.6 0.00392157 0.576471 0.6 
0.00392157 0.576471 0.6 0.00392157 0.576471 0.6 
0.00392157 0.576471 0.6 0.00392157 0.576471 0.6 
0.00392157 0.576471 0.6 0.00392157 0.576471 0.6 
0.00392157 0.576471 0.6 0.00392157 0.576471 0.6 
0.00392157 0.576471 0.6 0.00392157 0.576471 0.6 
0.00392157 0.576471 0.6 0.00392157 0.576471 0.6 
0.00392157 0.576471 0.6 0.00392157 0.576471 0.6 
0.00392157 0.576471 0.6 0.00392157 0.576471 0.6 
0.00392157 0.576471 0.6 0.00392157 0.576471 0.6 
0.00392157 0.576471 0.6 0.00392157 0.576471 0.6 
0.00392157 0.576471 0.6 0.00392157 0.576471 0.6 
0.00392157 0.576471 0.6 0.00392157 0.576471 0.6 
0.00392157 0.576471 0.6 0.00392157 0.576471 0.6 
0.00392157 0.576471 0.6 0.00392157 0.576471 0.6 
0.00392157 0.576471 0.6 0.00392157 0.576471 0.6 
0.00392157 0.576471 0.6 0.00392157 0.576471 0.6 
0.00392157 0.576471 0.6 0.00392157 0.576471 0.6 
0.00392157 0.576471 0.6 0.00392157 0.576471 0.6 
0.00392157 0.576471 0.6 0.00392157 0.576471 0.6 
0.00392157 0.576471 0.6 0.00392157 0.576471 0.6 
0.00392157 0.576471 0.6 0.00392157 0.576471 0.6 
0.00392157 0.576471 0.6 0.00392157 0.576471 0.6 
0.00392157 0.576471 0.6 0.00392157 0.576471 0.6 
0.00392157 0.576471 0.6 0.00392157 0.576471 0.6 
0.00392157 0.576471 0.6 0.00392157 0.576471 0.6 
0.00392157 0.576471 0.6 0.00392157 0.576471 0.6 
0.00392157 0.576471 0.6 0.00392157 0.576471 0.6 
0.00392157 0.576471 0.6 0.00392157 0.576471 0.6 
0.00392157 0.576471 0.6 0.00392157 0.576471 0.6 
0.00392157 0.576471 0.6 0.00392157 0.576471 0.6 
0.00392157 0.576471 0.6 0.00392157 0.576471 0.6 
0.00392157 0.576471 0.6 0.00392157 0.576471 0.6 
0.00392157 0.576471 0.6 0.00392157 0.576471 0.6 
0.00392157 0.576471 0.6 0.00392157 0.576471 0.6 
0.00392157 0.576471 0.6 0.00392157 0.576471 0.6 
0.00392157 0.576471 0.6 0.00392157 0.576471 0.6 
0.00392157 0.576471 0.6 0.00392157 0.576471 0.6 
0.00392157 0.576471 0.6 0.00392157 0.576471 0.6 
0.00392157 0.576471 0.6 0.00392157 0.576471 0.6 
0.00392157 0.576471 0.6 0.00392157 0.576471 0.6 
0.00392157 0.576471 0.6 0.00392157 0.576471 0.6 
0.00392157 0.576471 0.6 0.00392157 0.576471 0.6 
0.00392157 0.576471 0.6 0.00392157 0.576471 0.6 
0.00392157 0.576471 0.6 0.00392157 0.576471 0.6 
0.00392157 0.576471 0.6 0.00392157 0.576471 0.6 
0.00392157 0.576471 0.6 0.00392157 0.576471 0.6 
0.00392157 0.576471 0.6 0.00392157 0.576471 0.6 
0.00392157 0.576471 0.6 0.00392157 0.576471 0.6 
0.00392157 0.576471 0.6 0.00392157 0.576471 0.6 
0.00392157 0.576471 0.6 0.00392157 0.576471 0.6 
0.00392157 0.576471 0.6 0.00392157 0.576471 0.6 
0.00392157 0.576471 0.6 0.00392157 0.576471 0.6 
0.00392157 0.576471 0.6 0.00392157 0.576471 0.6 
0.00392157 0.576471 0.6 0.00392157 0.576471 0.6 
0.00392157 0.576471 0.6 0.00392157 0.576471 0.6 
0.00392157 0.576471 0.6 0.00392157 0.576471 0.6 
0.00392157 0.576471 0.6 0.00392157 0.576471 0.6 
0.00392157 0.576471 0.6 0.00392157 0.576471 0.6 
0.00392157 0.576471 0.6 0.00392157 0.576471 0.6 
0.00392157 0.576471 0.6 0.00392157 0.576471 0.6 
0.00392157 0.576471 0.6 0.00392157 0.576471 0.6 
0.00392157 0.576471 0.6 0.00392157 0.576471 0.6 
0.00392157 0.576471 0.6 0.00392157 0.576471 0.6 
0.00392157 0.576471 0.6 0.00392157 0.576471 0.6 
0.00392157 0.576471 0.6 0.00392157 0.576471 0.6 
0.00392157 0.576471 0.6 0.00392157 0.576471 0.6 
0.00392157 0.576471 0.6 0.00392157 0.576471 0.6 
0.00392157 0.576471 0.6 0.00392157 0.576471 0.6 
0.00392157 0.576471 0.6 0.00392157 0.576471 0.6 
0.00392157 0.576471 0.6 0.00392157 0.576471 0.6 
0.00392157 0.576471 0.6 0.00392157 0.576471 0.6 
0.00392157 0.576471 0.6 0.00392157 0.576471 0.6 
0.00392157 0.576471 0.6 0.00392157 0.576471 0.6 
0.00392157 0.576471 0.6 0.00392157 0.576471 0.6 
0.00392157 0.576471 0.6 0.00392157 0.576471 0.6 
0.00392157 0.576471 0.6 0.00392157 0.576471 0.6 
0.00392157 0.576471 0.6 0.00392157 0.576471 0.6 
0.00392157 0.576471 0.6 0.00392157 0.576471 0.6 
0.00392157 0.576471 0.6 0.00392157 0.576471 0.6 
0.00392157 0.576471 0.6 0.00392157 0.576471 0.6 
0.00392157 0.576471 0.6 0.00392157 0.576471 0.6 
0.00392157 0.576471 0.6 0.00392157 0.576471 0.6 
0.00392157 0.576471 0.6 0.00392157 0.576471 0.6 
0.00392157 0.576471 0.6 0.00392157 0.576471 0.6 
0.00392157 0.576471 0.6 0.00392157 0.576471 0.6 
0.00392157 0.576471 0.6 0.00392157 0.576471 0.6 
0.00392157 0.576471 0.6 0.00392157 0.576471 0.6 
0.00392157 0.576471 0.6 0.00392157 0.576471 0.6 
0.00392157 0.576471 0.6 0.00392157 0.576471 0.6 
0.00392157 0.576471 0.6 0.00392157 0.576471 0.6 
0.00392157 0.576471 0.6 0.00392157 0.576471 0.6 
0.00392157 0.576471 0.6 0.00392157 0.576471 0.6 
0.00392157 0.576471 0.6 0.00392157 0.576471 0.6 
0.00392157 0.576471 0.6 0.00392157 0.576471 0.6 
0.00392157 0.576471 0.6 0.00392157 0.576471 0.6 
0.00392157 0.576471 0.6 0.00392157 0.576471 0.6 
0.00392157 0.576471 0.6 0.00392157 0.576471 0.6 
0.00392157 0.576471 0.6 0.00392157 0.576471 0.6 
0.00392157 0.576471 0.6 0.00392157 0.576471 0.6 
0.00392157 0.576471 0.6 0.00392157 0.576471 0.6 
0.00392157 0.576471 0.6 0.00392157 0.576471 0.6 
0.00392157 0.576471 0.6 0.00392157 0.576471 0.6 
0.00392157 0.576471 0.6 0.00392157 0.576471 0.6 
0.00392157 0.576471 0.6 0.00392157 0.576471 0.6 
0.00392157 0.576471 0.6 0.00392157 0.576471 0.6 
0.00392157 0.576471 0.6 0.00392157 0.576471 0.6 
0.00392157 0.576471 0.6 0.00392157 0.576471 0.6 
0.00392157 0.576471 0.6 0.00392157 0.576471 0.6 
0.00392157 0.576471 0.6 0.00392157 0.576471 0.6 
0.00392157 0.576471 0.6 0.00392157 0.576471 0.6 
0.00392157 0.576471 0.6 0.00392157 0.576471 0.6 
0.00392157 0.576471 0.6 0.00392157 0.576471 0.6 