# vtk DataFile Version 4.2
vtk output
ASCII
DATASET POLYDATA
POINTS 769 float
325.646 126.455 39.4489 323.253 127.477 39.0732 322.934 127.337 38.9941 
324.156 127.374 39.2764 320.964 128.446 39.1265 323.246 127.823 39.3042 
320.021 129.583 39.6196 329.76 123.181 40.0262 329.99 124.198 40.4114 
318.832 125.966 39.0375 321.494 126.367 38.8776 324.917 126.555 39.3348 
325.615 127.018 39.9033 317.47 129.023 39.2164 314.272 129.943 39.3666 
316.689 130.248 39.5202 312.175 131.616 39.8691 310.974 132.412 40.401 
313.022 132.342 40.245 312.537 132.898 40.6742 314.509 132.455 40.4862 
326.228 120.739 39.8351 332.205 121.69 40.7391 332.896 122.343 41.2559 
331.955 123.115 41.0634 332.624 122.881 41.3662 330.309 124.515 40.8247 
331.518 123.668 41.1068 310.797 128.587 39.8618 310.181 129.9 39.9251 
309.937 131.378 40.1825 307.909 131.854 40.7985 315.886 132.101 40.4041 
308.567 132.565 41.091 310.768 132.881 40.863 312.207 133.317 41.0372 
311.853 133.473 41.2722 314.344 132.984 41.0283 332.295 120.546 40.7719 
325.59 127.802 40.6614 303.838 131.947 42.1363 306.877 131.301 40.9124 
304.301 132.179 41.9806 304.199 132.339 42.0928 304.701 132.246 41.9141 
304.415 132.449 42.1537 305.724 132.652 42.0176 331.516 124.906 42.3098 
301.431 130.93 42.7933 304.073 132.397 42.2786 304.39 132.818 42.7041 
314.931 133.586 42.2167 322.357 114.244 42.4263 338.883 115.863 43.77 
338.905 116.804 43.7368 338.632 118.101 43.839 298.72 127.939 43.294 
298.096 128.923 43.7754 299.591 128.775 42.9788 299.307 130.147 43.5686 
298.84 130.493 44.0657 299.933 131.275 43.9656 305.741 133.834 43.8546 
313.961 134.018 42.7034 332.685 112.507 43.7879 296.279 126.805 44.5867 
299.457 131.291 44.3599 301.308 132.649 44.5613 303.39 133.282 44.1512 
314.416 111.213 44.6993 341.98 113.162 45.7882 342.492 113.938 46.2022 
342.92 114.047 46.7484 339.836 118.512 45.3026 336.908 121.603 44.8817 
294.917 125.638 45.6909 295.178 126.6 45.6092 328.852 127.817 44.7012 
298.978 131.716 45.7331 301.489 132.888 44.883 307.279 134.629 45.2683 
342.692 112.223 46.6178 342.343 115.466 46.335 342.4 115.88 46.74 
340.782 117.779 45.8183 295.352 121.284 46.2804 294.747 122.155 46.4918 
300.954 132.913 45.7114 341.564 109.759 47.2771 342.652 110.295 47.6568 
342.899 110.696 47.6026 342.947 111.18 47.3257 343.232 111.05 47.8725 
343.248 111.386 47.5069 343.311 111.606 47.4623 343.533 113.279 47.9585 
299.013 117.449 45.9956 295.462 119.693 46.9578 294.007 121.983 47.5932 
338.393 107.26 47.8757 342.929 110.006 48.3644 301.75 111.498 47.8469 
297.045 115.24 48.149 342.854 116.492 48.3583 294.584 118.55 49.0643 
293.514 124.256 48.0941 334.296 125.005 47.8213 341.705 107.96 49.2429 
340.848 108.127 48.2858 343.155 109.887 49.2068 300.282 110.62 49.0676 
296.819 113.49 49.5137 295.444 115.875 49.3621 294.451 118.378 49.5999 
293.699 121.568 48.7653 293.457 122.826 48.9513 295.068 128.468 49.1931 
328.384 129.154 48.1735 297.158 131.042 49.1597 325.189 130.907 48.1665 
338.454 104.837 50.1602 339.807 106.16 49.6718 342.132 107.996 49.8385 
296.139 113.878 50.1401 295.882 113.964 50.5711 343.876 114.505 50.5317 
342.877 117.299 50.14 331.622 127.246 49.3205 294.698 127.661 50.3813 
339.678 105.225 50.7155 340.171 105.07 51.7808 299.33 109.781 50.4038 
296.796 111.839 51.3365 297.338 110.972 51.6337 296.978 111.921 50.8888 
295.587 114.352 51.1113 343.31 116.631 51.0273 293.964 120.009 51.0724 
333.319 126.032 50.0066 330.952 127.757 50.3489 324.157 131.605 49.8231 
321.112 133.042 50.5899 339.173 103.857 52.1482 298.916 108.63 52.8574 
297.903 109.784 52.8855 296.939 111.397 52.0043 296.466 112.234 51.9038 
295.683 114.083 51.8881 341.176 119.614 51.3091 332.4 126.592 51.0554 
329.815 128.332 50.85 321.219 132.932 50.9899 322.113 132.324 51.3234 
317.994 134.585 50.7053 315.696 135.355 51.3686 337.721 101.537 53.9601 
338.339 102.411 53.3563 340.47 105.082 52.9372 296.875 111.509 52.6953 
343.805 114.461 52.5124 341.004 119.582 52.62 339.224 121.177 52.2972 
335.132 124.321 51.8156 332.43 125.923 52.2076 330.053 126.974 52.7598 
328.291 127.994 52.757 328.86 128.16 52.2026 295.961 129.59 53.0513 
325.954 129.611 52.4572 324.409 130.289 52.6891 325.646 130.131 51.9821 
323.403 131.021 52.478 300.17 133.461 52.908 320.828 132.702 52.0714 
317.104 134.736 52.0045 309.18 135.671 52.9891 319.011 96.7827 53.9449 
332.293 97.6908 54.0236 336.581 100.195 54.228 308.641 100.38 54.0596 
302.816 103.793 54.8739 303.22 103.552 54.5246 300.967 105.704 54.6306 
297.273 111.084 54.2389 343.672 113.108 53.0916 343.132 116.8 53.4013 
340.139 119.963 53.4855 336.558 122.517 53.2051 338.566 121.275 53.1468 
332.159 124.083 53.9664 332.659 124.956 53.0697 325.486 127.435 54.1791 
321.143 131.029 53.6311 317.615 133.985 52.8914 335.993 99.3295 55.1398 
337.116 100.474 54.9073 337.358 100.756 55.2223 340.911 105.959 54.2355 
343.201 113.148 54.688 343.186 114.622 54.8033 336.384 120.327 55.1411 
340.927 119.145 53.7958 336.711 121.548 54.0883 338.279 121.024 53.7608 
310.682 134.717 54.5247 310.258 135.067 54.1678 314.734 134.454 53.6471 
306.057 135.2 54.514 318.047 94.8186 56.0778 329.466 94.7662 56.0096 
331.912 95.8508 55.9501 333.003 96.0918 57.2519 332.685 96.4193 55.7544 
333.249 96.6021 56.2003 334.522 97.6082 56.2626 306.258 101.259 56.3602 
303.563 103.202 56.0817 339.379 103.839 55.7468 296.38 115.026 56.0862 
342.789 116.448 54.8139 299.125 132.252 56.0033 310.74 132.293 56.0937 
306.594 134.852 55.1002 305.951 134.969 54.9351 329.908 94.1631 57.0329 
330.372 94.137 57.5079 317.256 94.5662 57.0596 317.036 94.4732 57.595 
332.511 95.6367 57.3893 305.556 101.781 56.6404 337.503 101.21 56.7347 
340.823 116.606 56.2575 341.776 115.606 56.2431 296.424 129.072 56.6344 
297.403 130.431 56.7905 306.916 133.406 56.3219 301.685 133.516 56.0158 
302.129 133.701 56.0439 302.03 133.52 56.2793 319.019 93.3925 58.0647 
319.088 93.2427 58.5515 322.597 92.7065 57.6966 323.885 92.4063 58.1909 
325.339 92.7593 57.7776 327.626 93.0774 58.0431 327.635 92.9903 58.4826 
329.422 93.7388 57.8925 316.667 94.6706 57.8376 330.965 94.4755 58.3293 
332.834 96.0238 58.6594 339.983 106.108 57.4403 341.672 112.088 57.2219 
337.618 114.625 58.2306 340.227 114.131 57.7655 342.143 114.334 56.3779 
295.465 124.147 57.6196 297.536 129.775 57.8272 299.355 131.758 57.1414 
300.912 132.191 57.3042 302.266 132.943 56.8519 322.022 92.2504 59.1518 
321.513 92.4281 59.1396 322.499 92.1932 59.0763 323.828 92.1548 58.9809 
324.309 92.171 58.9409 325.202 92.3858 59.05 328.009 93.1529 59.0079 
317.21 94.4472 59.2438 338.076 103.475 58.9138 303.128 105.056 58.8403 
340.542 112.722 58.1466 295.515 126.064 57.3984 296.715 128.115 58.324 
297.866 129.686 58.2619 298.649 130.551 57.9569 321.882 92.2887 59.3512 
322.862 92.1871 59.4463 320.368 92.8762 59.569 321.801 92.4107 59.6904 
326.116 92.6142 59.4451 331.847 95.7141 60.0068 339.848 107.539 58.7739 
337.343 111.369 59.8679 297.965 115.574 59.9665 297.224 118.671 59.8042 
296.703 122.618 59.7182 303.222 126.895 59.7417 296.878 127.858 58.6636 
317.019 94.9901 60.4078 311.85 98.8225 60.4351 337.3 109.303 60.6396 
297.215 121.785 60.3335 299.956 124.581 60.9086 297.09 125.005 59.8384 
298.455 125.552 60.428 298.09 128.383 59.222 323.169 93.104 61.6451 
326.517 93.2966 61.1062 328.356 94.1974 61.549 335.25 100.624 61.3896 
336.956 104.449 61.2562 335.453 107.442 61.8541 338.521 107.803 60.2006 
301.808 109.23 61.6339 338.312 108.419 60.3233 300.19 112.352 61.6487 
299.39 114.529 61.555 298.11 120.842 61.0791 297.906 122.188 60.9585 
297.621 124.816 60.2296 321.646 93.6084 62.2099 329.691 95.8103 62.9318 
333.288 106.36 62.8216 337.138 106.243 61.2649 300.159 113.395 62.0538 
299.731 115.43 62.1216 298.375 122.015 61.2171 299.123 121.834 61.4941 
332.91 100.007 63.8918 301.702 112.302 63.0413 301.929 115.408 63.344 
300.537 115.926 62.748 322.154 95.1911 64.6871 331.008 98.4134 64.5479 
332.632 100.436 64.2473 328.722 102.784 65.1597 308.815 104.181 63.9476 
303.527 109.77 63.7313 308.17 110.98 64.5806 302.476 112.121 63.4554 
303.974 111.906 64.1104 322.849 95.8412 65.5503 328.435 97.0981 65.3255 
330.483 98.813 65.167 330.857 99.4073 65.2023 332.655 101.117 64.3503 
331.665 101.748 64.7658 310.014 104.146 64.6341 317.017 104.286 65.7136 
308.585 105.694 64.8155 311.31 106.412 65.4288 309.203 107.998 65.2216 
310.065 108.229 65.1884 306.025 110.024 64.6755 323.918 96.0352 65.7567 
321.849 96.6667 66.0148 328.196 98.1895 66.1801 317.448 99.5656 65.9158 
330.504 100.102 65.4495 310.014 105.366 65.115 305.249 109.082 64.5115 
325.082 97.1748 66.5593 320.286 98.3941 66.5899 321.057 98.2453 66.776 
327.142 97.7475 66.378 320.039 99.2826 66.78 321.315 98.5554 66.9357 
321.05 99.9251 66.836 321.642 97.9312 66.8037 319.66 99.1467 66.711 
321.71 98.2267 388.52 322.061 98.485 388.411 322.167 98.746 388.4 
321.608 97.9082 388.766 322.664 97.7696 388.769 324.538 97.5961 388.941 
328.249 98.1743 389.652 319.456 98.7866 388.967 321.917 99.1155 388.423 
327.461 98.7071 389.261 319.134 99.5577 388.877 316.296 101.012 389.324 
319.754 100.246 388.728 322.092 96.1486 389.941 317.461 99.4528 389.586 
329.072 99.3466 389.712 317.047 101.336 389.22 313.512 102.527 389.818 
315.414 101.993 389.481 316.834 102.272 389.247 318.806 101.753 389.077 
311.765 103.518 390.032 312.156 104.17 389.726 310.459 104.897 389.975 
309.405 105.442 390.119 309.18 105.966 390.065 311.554 105.535 389.71 
308.03 107.246 390.024 306.472 108.024 390.287 306.362 108.034 390.34 
306.425 108.243 390.335 323.414 96.0225 389.967 328.914 97.2612 390.474 
332.67 100.892 391.183 312.324 102.628 390.257 316.956 103.558 389.444 
311.089 103.317 390.451 309.084 104.778 390.663 312.921 105.329 389.658 
306.164 107.963 390.528 303.392 111.096 391.252 323.838 95.1037 390.953 
327.919 95.6619 391.451 317.898 97.2142 391.081 331.654 98.9453 391.097 
311.954 101.509 391.444 332.076 103.468 391.35 312.738 108.102 390.423 
303.463 110.409 391.509 304.133 110.838 391.117 304.84 111.518 390.979 
[...]
POINT_DATA 769
COLOR_SCALARS scalars 3
0.00392157 0.576471 0.6 0.00392157 0.576471 0.6 0.00392157 0.576471 0.6 
0.00392157 0.576471 0.6 0.00392157 0.576471 0.6 
0.00392157 0.576471 0.6 0.00392157 0.576471 0.6 
0.00392157 0.576471 0.6 0.00392157 0.576471 0.6 
0.00392157 0.576471 0.6 0.00392157 0.576471 0.6 
0.00392157 0.576471 0.6 0.00392157 0.576471 0.6 
0.00392157 0.576471 0.6 0.00392157 0.576471 0.6 
0.00392157 0.576471 0.6 0.00392157 0.576471 0.6 
0.00392157 0.576471 0.6 0.00392157 0.576471 0.6 
0.00392157 0.576471 0.6 0.00392157 0.576471 0.6 
0.00392157 0.576471 0.6 0.00392157 0.576471 0.6 
0.00392157 0.576471 0.6 0.00392157 0.576471 0.6 
0.00392157 0.576471 0.6 0.00392157 0.576471 0.6 
0.00392157 0.576471 0.6 0.00392157 0.576471 0.6 
0.00392157 0.576471 0.6 0.00392157 0.576471 0.6 
0.00392157 0.576471 0.6 0.00392157 0.576471 0.6 
0.00392157 0.576471 0.6 0.00392157 0.576471 0.6 
0.00392157 0.576471 0.6 0.00392157 0.576471 0.6 
0.00392157 0.576471 0.6 0.00392157 0.576471 0.6 
0.00392157 0.576471 0.6 0.00392157 0.576471 0.6 
0.00392157 0.576471 0.6 0.00392157 0.576471 0.6 
0.00392157 0.576471 0.6 0.00392157 0.576471 0.6 
0.00392157 0.576471 0.6 0.00392157 0.576471 0.6 
0.00392157 0.576471 0.6 0.00392157 0.576471 0.6 
0.00392157 0.576471 0.6 0.00392157 0.576471 0.6 
0.00392157 0.576471 0.6 0.00392157 0.576471 0.6 
0.00392157 0.576471 0.6 0.00392157 0.576471 0.6 
0.00392157 0.576471 0.6 0.00392157 0.576471 0.6 
0.00392157 0.576471 0.6 0.00392157 0.576471 0.6 
0.00392157 0.576471 0.6 0.00392157 0.576471 0.6 
0.00392157 0.576471 0.6 0.00392157 0.576471 0.6 
0.00392157 0.576471 0.6 0.00392157 0.576471 0.6 
0.00392157 0.576471 0.6 0.00392157 0.576471 0.6 
0.00392157 0.576471 0.6 0.00392157 0.576471 0.6 
0.00392157 0.576471 0.6 0.00392157 0.576471 0.6 
0.00392157 0.576471 0.6 0.00392157 0.576471 0.6 
0.00392157 0.576471 0.6 0.00392157 0.576471 0.6 
0.00392157 0.576471 0.6 0.00392157 0.576471 0.6 
0.00392157 0.576471 0.6 0.00392157 0.576471 0.6 
0.00392157 0.576471 0.6 0.00392157 0.576471 0.6 
0.00392157 0.576471 0.6 0.00392157 0.576471 0.6 
0.00392157 0.576471 0.6 0.00392157 0.576471 0.6 
0.00392157 0.576471 0.6 0.00392157 0.576471 0.6 
0.00392157 0.576471 0.6 0.00392157 0.576471 0.6 
0.00392157 0.576471 0.6 0.00392157 0.576471 0.6 
0.00392157 0.576471 0.6 0.00392157 0.576471 0.6 
0.00392157 0.576471 0.6 0.00392157 0.576471 0.6 
0.00392157 0.576471 0.6 0.00392157 0.576471 0.6 
0.00392157 0.576471 0.6 0.00392157 0.576471 0.6 
0.00392157 0.576471 0.6 0.00392157 0.576471 0.6 
0.00392157 0.576471 0.6 0.00392157 0.576471 0.6 
0.00392157 0.576471 0.6 0.00392157 0.576471 0.6 
0.00392157 0.576471 0.6 0.00392157 0.576471 0.6 
0.00392157 0.576471 0.6 0.00392157 0.576471 0.6 
0.00392157 0.576471 0.6 0.00392157 0.576471 0.6 
0.00392157 0.576471 0.6 0.00392157 0.576471 0.6 
0.00392157 0.576471 0.6 0.00392157 0.576471 0.6 
0.00392157 0.576471 0.6 0.00392157 0.576471 0.6 
0.00392157 0.576471 0.6 0.00392157 0.576471 0.6 
0.00392157 0.576471 0.6 0.00392157 0.576471 0.6 
0.00392157 0.576471 0.6 0.00392157 0.576471 0.6 
0.00392157 0.576471 0.6 0.00392157 0.576471 0.6 
0.00392157 0.576471 0.6 0.00392157 0.576471 0.6 
0.00392157 0.576471 0.6 0.00392157 0.576471 0.6 
0.00392157 0.576471 0.6 0.00392157 0.576471 0.6 
0.00392157 0.576471 0.6 0.00392157 0.576471 0.6 
0.00392157 0.576471 0.6 0.00392157 0.576471 0.6 
0.00392157 0.576471 0.6 0.00392157 0.576471 0.6 
0.00392157 0.576471 0.6 0.00392157 0.576471 0.6 
0.00392157 0.576471 0.6 0.00392157 0.576471 0.6 
0.00392157 0.576471 0.6 0.00392157 0.576471 0.6 
0.00392157 0.576471 0.6 0.00392157 0.576471 0.6 
0.00392157 0.576471 0.6 0.00392157 0.576471 0.6 
0.00392157 0.576471 0.6 0.00392157 0.576471 0.6 
0.00392157 0.576471 0.6 0.00392157 0.576471 0.6 
0.00392157 0.576471 0.6 0.00392157 0.576471 0.6 
0.00392157 0.576471 0.6 0.00392157 0.576471 0.6 
0.00392157 0.576471 0.6 0.00392157 0.576471 0.6 
0.00392157 0.576471 0.6 0.00392157 0.576471 0.6 
0.00392157 0.576471 0.6 0.00392157 0.576471 0.6 
0.00392157 0.576471 0.6 0.00392157 0.576471 0.6 
0.00392157 0.576471 0.6 0.00392157 0.576471 0.6 
0.00392157 0.576471 0.6 0.00392157 0.576471 0.6 
0.00392157 0.576471 0.6 0.00392157 0.576471 0.6 
0.00392157 0.576471 0.6 0.00392157 0.576471 0.6 
0.00392157 0.576471 0.6 0.00392157 0.576471 0.6 
0.00392157 0.576471 0.6 0.00392157 0.576471 0.6 
0.00392157 0.576471 0.6 0.00392157 0.576471 0.6 
0.00392157 0.576471 0.6 0.00392157 0.576471 0.6 
0.00392157 0.576471 0.6 0.00392157 0.576471 0.6 
0.00392157 0.576471 0.6 0.00392157 0.576471 0.6 
0.00392157 0.576471 0.6 0.00392157 0.576471 0.6 
0.00392157 0.576471 0.6 0.00392157 0.576471 0.6 
0.00392157 0.576471 0.6 0.00392157 0.576471 0.6 
0.00392157 0.576471 0.6 0.00392157 0.576471 0.6 
0.00392157 0.576471 0.6 0.00392157 0.576471 0.6 
0.00392157 0.576471 0.6 0.00392157 0.576471 0.6 
0.00392157 0.576471 0.6 0.00392157 0.576471 0.6 
0.00392157 0.576471 0.6 0.00392157 0.576471 0.6 
0.00392157 0.576471 0.6 0.00392157 0.576471 0.6 
0.00392157 0.576471 0.6 0.00392157 0.576471 0.6 
0.00392157 0.576471 0.6 0.00392157 0.576471 0.6 
0.00392157 0.576471 0.6 0.00392157 0.576471 0.6 
0.00392157 0.576471 0.6 0.00392157 0.576471 0.6 
0.00392157 0.576471 0.6 0.00392157 0.576471 0.6 
0.00392157 0.576471 0.6 0.00392157 0.576471 0.6 
0.00392157 0.576471 0.6 0.00392157 0.576471 0.6 
0.00392157 0.576471 0.6 0.00392157 0.576471 0.6 
0.00392157 0.576471 0.6 0.00392157 0.576471 0.6 
0.00392157 0.576471 0.6 0.00392157 0.576471 0.6 
0.00392157 0.576471 0.6 0.00392157 0.576471 0.6 
0.00392157 0.576471 0.6 0.00392157 0.576471 0.6 
0.00392157 0.576471 0.6 0.00392157 0.576471 0.6 
0.00392157 0.576471 0.6 0.00392157 0.576471 0.6 
0.00392157 0.576471 0.6 0.00392157 0.576471 0.6 
0.00392157 0.576471 0.6 0.00392157 0.576471 0.6 
0.00392157 0.576471 0.6 0.00392157 0.576471 0.6 
0.00392157 0.576471 0.6 0.00392157 0.576471 0.6 
0.00392157 0.576471 0.6 0.00392157 0.576471 0.6 
0.00392157 0.576471 0.6 0.00392157 0.576471 0.6 
0.00392157 0.576471 0.6 0.00392157 0.576471 0.6 
0.00392157 0.576471 0.6 0.00392157 0.576471 0.6 
0.00392157 0.576471 0.6 0.00392157 0.576471 0.6 
0.00392157 0.576471 0.6 0.00392157 0.576471 0.6 
0.00392157 0.576471 0.6 0.00392157 0.576471 0.6 
0.00392157 0.576471 0.6 0.00392157 0.576471 0.6 
0.00392157 0.576471 0.6 0.00392157 0.576471 0.6 
0.00392157 0.576471 0.6 0.00392157 0.576471 0.6 
0.00392157 0.576471 0.6 0.00392157 0.576471 0.6 
0.00392157 0.576471 0.6 0.00392157 0.576471 0.6 
0.00392157 0.576471 0.6 0.00392157 0.576471 0.6 
0.00392157 0.576471 0.6 0.00392157 0.576471 0.6 
0.00392157 0.576471 0.6 0.00392157 0.576471 0.6 
0.00392157 0.576471 0.6 0.00392157 0.576471 0.6 
0.00392157 0.576471 0.6 0.00392157 0.576471 0.6 
0.00392157 0.576471 0.6 0.00392157 0.576471 0.6 
0.00392157 0.576471 0.6 0.00392157 0.576471 0.6 
0.00392157 0.576471 0.6 0.00392157 0.576471 0.6 
0.00392157 0.576471 0.6 0.00392157 0.576471 0.6 
0.00392157 0.576471 0.6 0.00392157 0.576471 0.6 
0.00392157 0.576471 0.6 0.00392157 0.576471 0.6 
0.00392157 0.576471 0.6 0.00392157 0.576471 0.6 
0.00392157 0.576471 0.6 0.00392157 0.576471 0.6 
0.00392157 0.576471 0.6 0.00392157 0.576471 0.6 
0.00392157 0.576471 0.6 0.00392157 0.576471 0.6 
0.00392157 0.576471 0.6 0.00392157 0.576471 0.6 
0.00392157 0.576471 0.6 0.00392157 0.576471 0.6 
0.00392157 0.576471 0.6 0.00392157 0.576471 0.6 
0.00392157 0.576471 0.6 0.00392157 0.576471 0.6 
0.00392157 0.576471 0.6 0.00392157 0.576471 0.6 
0.00392157 0.576471 0.6 0.00392157 0.576471 0.6 
0.00392157 0.576471 0.6 0.00392157 0.576471 0.6 
0.00392157 0.576471 0.6 0.00392157 0.576471 0.6 
0.00392157 0.576471 0.6 0.00392157 0.576471 0.6 
0.00392157 0.576471 0.6 0.00392157 0.576471 0.6 
0.00392157 0.576471 0.6 0.00392157 0.576471 0.6 
0.00392157 0.576471 0.6 0.00392157 0.576471 0.6 
0.00392157 0.576471 0.6 0.00392157 0.576471 0.6 
0.00392157 0.576471 0.6 0.00392157 0.576471 0.6 
0.00392157 0.576471 0.6 0.00392157 0.576471 0.6 
0.00392157 0.576471 0.6 0.00392157 0.576471 0.6 
0.00392157 0.576471 0.6 0.00392157 0.576471 0.6 
0.00392157 0.576471 0.6 0.00392157 0.576471 0.6 
0.00392157 0.576471 0.6 0.00392157 0.576471 0.6 
0.00392157 0.576471 0.6 0.00392157 0.576471 0.6 
0.00392157 0.576471 0.6 0.00392157 0.576471 0.6 
0.00392157 0.576471 0.6 0.00392157 0.576471 0.6 
0.00392157 0.576471 0.6 0.00392157 0.576471 0.6 
0.00392157 0.576471 0.6 0.00392157 0.576471 0.6 
0.00392157 0.576471 0.6 0.00392157 0.576471 0.6 
0.00392157 0.576471 0.6 0.00392157 0.576471 0.6 
0.00392157 0.576471 0.6 0.00392157 0.576471 0.6 
0.00392157 0.576471 0.6 0.00392157 0.576471 0.6 
0.00392157 0.576471 0.6 0.00392157 0.576471 0.6 
0.00392157 0.576471 0.6 0.00392157 0.576471 0.6 
0.00392157 0.576471 0.6 0.00392157 0.576471 0.6 
0.00392157 0.576471 0.6 0.00392157 0.576471 0.6 
0.00392157 0.576471 0.6 0.00392157 0.576471 0.6 
0.00392157 0.576471 0.6 0.00392157 0.576471 0.6 
0.00392157 0.576471 0.6 0.00392157 0.576471 0.6 
0.00392157 0.576471 0.6 0.00392157 0.576471 0.6 
0.00392157 0.576471 0.6 0.00392157 0.576471 0.6 
0.00392157 0.576471 0.6 0.00392157 0.576471 0.6 
0.00392157 0.576471 0.6 0.00392157 0.576471 0.6 
0.00392157 0.576471 0.6 0.00392157 0.576471 0.6 
0.00392157 0.576471 0.6 0.00392157 0.576471 0.6 
0.00392157 0.576471 0.6 0.00392157 0.576471 0.6 
0.00392157 0.576471 0.6 0.00392157 0.576471 0.6 
0.00392157 0.576471 0.6 0.00392157 0.576471 0.6 
0.00392157 0.576471 0.6 0.00392157 0.576471 0.6 
0.00392157 0.576471 0.6 0.00392157 0.576471 0.6 
0.00392157 0.576471 0.6 0.00392157 0.576471 0.6 
0.00392157 0.576471 0.6 0.00392157 0.576471 0.6 
0.00392157 0.576471 0.6 0.00392157 0.576471 0.6 
0.00392157 0.576471 0.6 0.00392157 0.576471 0.6 
0.00392157 0.576471 0.6 0.00392157 0.576471 0.6 
0.00392157 0.576471 0.6 0.00392157 0.576471 0.6 
0.00392157 0.576471 0.6 0.00392157 0.576471 0.6 
0.00392157 0.576471 0.6 0.00392157 0.576471 0.6 
0.00392157 0.576471 0.6 0.00392157 0.576471 0.6 
0.00392157 0.576471 0.6 0.00392157 0.576471 0.6 
0.00392157 0.576471 0.6 0.00392157 0.576471 0.6 
0.00392157 0.576471 0.6 0.00392157 0.576471 0.6 
0.00392157 0.576471 0.6 0.00392157 0.576471 0.6 
0.00392157 0.576471 0.6 0.00392157 0.576471 0.6 
0.00392157 0.576471 0.6 0.00392157 0.576471 0.6 
0.00392157 0.576471 0.6 0.00392157 0.576471 0.6 
0.00392157 0.576471 0.6 0.00392157 0.576471 0.6 
0.00392157 0.576471 0.6 0.00392157 0.576471 0.6 
0.00392157 0.576471 0.6 0.00392157 0.576471 0.6 
0.00392157 0.576471 0.6 0.00392157 0.576471 0.6 
0.00392157 0.576471 0.6 0.00392157 0.576471 0.6 
0.00392157 0.576471 0.6 0.00392157 0.576471 0.6 
0.00392157 0.576471 0.6 0.00392157 0.576471 0.6 
0.00392157 0.576471 0.6 0.00392157 0.576471 0.6 
0.00392157 0.576471 0.6 0.00392157 0.576471 0.6 
0.00392157 0.576471 0.6 0.00392157 0.576471 0.6 
0.00392157 0.576471 0.6 0.00392157 0.576471 0.6 
0.00392157 0.576471 0.6 0.00392157 0.576471 0.6 
0.00392157 0.576471 0.6 0.00392157 0.576471 0.6 
0.00392157 0.576471 0.6 0.00392157 0.576471 0.6 
0.00392157 0.576471 0.6 0.00392157 0.576471 0.6 
0.00392157 0.576471 0.6 0.00392157 0.576471 0.6 
0.00392157 0.576471 0.6 0.00392157 0.576471 0.6 
0.00392157 0.576471 0.6 0.00392157 0.576471 0.6 
0.00392157 0.576471 0.6 0.00392157 0.576471 0.6 
0.00392157 0.576471 0.6 0.00392157 0.576471 0.6 
0.00392157 0.576471 0.6 0.00392157 0.576471 0.6 
0.00392157 0.576471 0.6 0.00392157 0.576471 0.6 
0.00392157 0.576471 0.6 0.00392157 0.576471 0.6 
0.00392157 0.576471 0.6 0.00392157 0.576471 0.6 
0.00392157 0.576471 0.6 0.00392157 0.576471 0.6 
0.00392157 0.576471 0.6 0.00392157 0.576471 0.6 
0.00392157 0.576471 0.6 0.00392157 0.576471 0.6 
0.00392157 0.576471 0.6 0.00392157 0.576471 0.6 
0.00392157 0.576471 0.6 0.00392157 0.576471 0.6 
0.00392157 0.576471 0.6 0.00392157 0.576471 0.6 
0.00392157 0.576471 0.6 0.00392157 0.576471 0.6 
0.00392157 0.576471 0.6 0.00392157 0.576471 0.6 
0.00392157 0.576471 0.6 0.00392157 0.576471 0.6 
0.00392157 0.576471 0.6 0.00392157 0.576471 0.6 
0.00392157 0.576471 0.6 0.00392157 0.576471 0.6 
0.00392157 0.576471 0.6 0.00392157 0.576471 0.6 
0.00392157 0.576471 0.6 0.00392157 0.576471 0.6 
0.00392157 0.576471 0.6 0.00392157 0.576471 0.6 
0.00392157 0.576471 0.6 0.00392157 0.576471 0.6 
0.00392157 0.576471 0.6 0.00392157 0.576471 0.6 
0.00392157 0.576471 0.6 0.00392157 0.576471 0.6 
0.00392157 0.576471 0.6 0.00392157 0.576471 0.6 
0.00392157 0.576471 0.6 0.00392157 0.576471 0.6 
0.00392157 0.576471 0.6 0.00392157 0.576471 0.6 
0.00392157 0.576471 0.6 0.00392157 0.576471 0.6 
0.00392157 0.576471 0.6 0.00392157 0.576471 0.6 
0.00392157 0.576471 0.6 0.00392157 0.576471 0.6 
0.00392157 0.576471 0.6 0.00392157 0.576471 0.6 
0.00392157 0.576471 0.6 0.00392157 0.576471 0.6 
0.00392157 0.576471 0.6 0.00392157 0.576471 0.6 
0.00392157 0.576471 0.6 0.00392157 0.576471 0.6 
0.00392157 0.576471 0.6 0.00392157 0.576471 0.6 
0.00392157 0.576471 0.6 0.00392157 0.576471 0.6 
0.00392157 0.576471 0.6 0.00392157 0.576471 0.6 
0.00392157 0.576471 0.6 0.00392157 0.576471 0.6 
0.00392157 0.576471 0.6 0.00392157 0.576471 0.6 
0.00392157 0.576471 0.6 0.00392157 0.576471 0.6 
0.00392157 0.576471 0.6 0.00392157 0.576471 0.6 
0.00392157 0.576471 0.6 0.00392157 0.576471 0.6 
0.00392157 0.576471 0.6 0.00392157 0.576471 0.6 
0.00392157 0.576471 0.6 0.00392157 0.576471 0.6 
0.00392157 0.576471 0.6 0.00392157 0.576471 0.6 
0.00392157 0.576471 0.6 0.00392157 0.576471 0.6 
0.00392157 0.576471 0.6 0.00392157 0.576471 0.6 
0.00392157 0.576471 0.6 0.00392157 0.576471 0.6 
0.00392157 0.576471 0.6 0.00392157 0.576471 0.6 
0.00392157 0.576471 0.6 0.00392157 0.576471 0.6 
0.00392157 0.576471 0.6 0.00392157 0.576471 0.6 
0.00392157 0.576471 0.6 0.00392157 0.576471 0.6 
0.00392157 0.576471 0.6 0.00392157 0.576471 0.6 
0.00392157 0.576471 0.6 0.00392157 0.576471 0.6 
0.00392157 0.576471 0.6 0.00392157 0.576471 0.6 
0.00392157 0.576471 0.6 0.00392157 0.576471 0.6 
0.00392157 0.576471 0.6 0.00392157 0.576471 0.6 
0.00392157 0.576471 0.6 0.00392157 0.576471 0.6 
0.00392157 0.576471 0.6 0.00392157 0.576471 0.6 
0.00392157 0.576471 0.6 0.00392157 0.576471 0.6 
0.00392157 0.576471 0.6 0.00392157 0.576471 0.6 
0.00392157 0.576471 0.6 0.00392157 0.576471 0.6 
0.00392157 0.576471 0.6 0.00392157 0.576471 0.6 
0.00392157 0.576471 0.6 0.00392157 0.576471 0.6 
0.00392157 0.576471 0.6 0.00392157 0.576471 0.6 
0.00392157 0.576471 0.6 0.00392157 0.576471 0.6 
0.00392157 0.576471 0.6 0.00392157 0.576471 0.6 
0.00392157 0.576471 0.6 0.00392157 0.576471 0.6 
0.00392157 0.576471 0.6 0.00392157 0.576471 0.6 
0.00392157 0.576471 0.6 0.00392157 0.576471 0.6 
0.00392157 0.576471 0.6 0.00392157 0.576471 0.6 
0.00392157 0.576471 0.6 0.00392157 0.576471 0.6 
0.00392157 0.576471 0.6 0.00392157 0.576471 0.6 
0.00392157 0.576471 0.6 0.00392157 0.576471 0.6 
0.00392157 0.576471 0.6 0.00392157 0.576471 0.6 
0.00392157 0.576471 0.6 0.00392157 0.576471 0.6 
0.00392157 0.576471 0.6 0.00392157 0.576471 0.6 
0.00392157 0.576471 0.6 0.00392157 0.576471 0.6 
0.00392157 0.576471 0.6 0.00392157 0.576471 0.6 
0.00392157 0.576471 0.6 0.00392157 0.576471 0.6 
0.00392157 0.576471 0.6 0.00392157 0.576471 0.6 
0.00392157 0.576471 0.6 0.00392157 0.576471 0.6 
0.00392157 0.576471 0.6 0.00392157 0.576471 0.6 
0.00392157 0.576471 0.6 0.00392157 0.576471 0.6 
0.00392157 0.576471 0.6 0.00392157 0.576471 0.6 
0.00392157 0.576471 0.6 0.00392157 0.576471 0.6 
0.00392157 0.576471 0.6 0.00392157 0.576471 0.6 
0.00392157 0.576471 0.6 0.00392157 0.576471 0.6 
0.00392157 0.576471 0.6 0.00392157 0.576471 0.6 
0.00392157 0.576471 0.6 0.00392157 0.576471 0.6 
0.00392157 0.576471 0.6 0.00392157 0.576471 0.6 
0.00392157 0.576471 0.6 0.00392157 0.576471 0.6 
0.00392157 0.576471 0.6 0.00392157 0.576471 0.6 
0.00392157 0.576471 0.6 0.00392157 0.576471 0.6 
0.00392157 0.576471 0.6 0.00392157 0.576471 0.6 
0.00392157 0.576471 0.6 0.00392157 0.576471 0.6 
0.00392157 0.576471 0.6 0.00392157 0.576471 0.6 
0.00392157 0.576471 0.6 0.00392157 0.576471 0.6 
0.00392157 0.576471 0.6 0.00392157 0.576471 0.6 
0.00392157 0.576471 0.6 0.00392157 0.576471 0.6 
0.00392157 0.576471 0.6 0.00392157 0.576471 0.6 
0.00392157 0.576471 0.6 0.00392157 0.576471 0.6 
0.00392157 0.576471 0.6 0.00392157 0.576471 0.6 
0.00392157 0.576471 0.6 0.00392157 0.576471 0.6 
0.00392157 0.576471 0.6 0.00392157 0.576471 0.6 
0.00392157 0.576471 0.6 0.00392157 0.576471 0.6 
0.00392157 0.576471 0.6 0.00392157 0.576471 0.6 
0.00392157 0.576471 0.6 0.00392157 0.576471 0.6 
0.00392157 0.576471 0.6 0.00392157 0.576471 0.6 
0.00392157 0.576471 0.6 0.00392157 0.576471 0.6 
0.00392157 0.576471 0.6 0.00392157 0.576471 0.6 
0.00392157 0.576471 0.6 0.00392157 0.576471 0.6 
0.00392157 0.576471 0.6 0.00392157 0.576471 0.6 
0.00392157 0.576471 0.6 0.00392157 0.576471 0.6 
0.00392157 0.576471 0.6 0.00392157 0.576471 0.6 
0.00392157 0.576471 0.6 0.00392157 0.576471 0.6 
0.00392157 0.576471 0.6 0.00392157 0.576471 0.6 
0.00392157 0.576471 0.6 0.00392157 0.576471 0.6 
0.00392157 0.576471 0.6 0.00392157 0.576471 0.6 
0.00392157 0.576471 0.6 0.00392157 0.576471 0.6 
0.00392157 0.576471 0.6 0.00392157 0.576471 0.6 
0.00392157 0.576471 0.6 0.00392157 0.576471 0.6 
0.00392157 0.576471 0.6 0.00392157 0.576471 0.6 
0.00392157 0.576471 0.6 0.00392157 0.576471 0.6 
0.00392157 0.576471 0.6 0.00392157 0.576471 0.6 
0.00392157 0.576471 0.6 0.00392157 0.576471 0.6 
0.00392157 0.576471 0.6 0.00392157 0.576471 0.6 
0.00392157 0.576471 0.6 0.00392157 0.576471 0.6 
0.00392157 0.576471 0.6 0.00392157 0.576471 0.6 
0.00392157 0.576471 0.6 0.00392157 0.576471 0.6 
0.00392157 0.576471 0.6 0.00392157 0.576471 0.6 
0.00392157 0.576471 0.6 0.00392157 0.576471 0.6 
0.00392157 0.576471 0.6 0.00392157 0.576471 0.6 
0.00392157 0.576471 0.6 0.00392157 0.576471 0.6 
0.00392157 0.576471 0.6 0.00392157 0.576471 0.6 
0.00392157 0.576471 0.6 0.00392157 0.576471 0.6 
0.00392157 0.576471 0.6 0.00392157 0.576471 0.6 
0.00392157 0.576471 0.6 0.00392157 0.576471 0.6 
0.00392157 0.576471 0.6 0.00392157 0.576471 0.6 
0.00392157 0.576471 0.6 0.00392157 0.576471 0.6 
0.00392157 0.576471 0.6 0.00392157 0.576471 0.6 
0.00392157 0.576471 0.6 0.00392157 0.576471 0.6 
0.00392157 0.576471 0.6 0.00392157 0.576471 0.6 
0.00392157 0.576471 0.6 0.00392157 0.576471 0.6 
0.00392157 0.576471 0.6 0.00392157 0.576471 0.6 
0.00392157 0.576471 0.6 0.00392157 0.576471 0.6 
0.00392157 0.576471 0.6 0.00392157 0.576471 0.6 
0.00392157 0.576471 0.6 0.00392157 0.576471 0.6 
0.00392157 0.576471 0.6 0.00392157 0.576471 0.6 
0.00392157 0.576471 0.6 0.00392157 0.576471 0.6 
0.00392157 0.576471 0.6 0.00392157 0.576471 0.6 
0.00392157 0.576471 0.6 0.00392157 0.576471 0.6 
0.00392157 0.576471 0.6 0.00392157 0.576471 0.6 
0.00392157 0.576471 0.6 0.00392157 0.576471 0.6 
0.00392157 0.576471 0.6 0.00392157 0.576471 0.6 
0.00392157 0.576471 0.6 0.00392157 0.576471 0.6 
0.00392157 0.576471 0.6 0.00392157 0.576471 0.6 
0.00392157 0.576471 0.6 0.00392157 0.576471 0.6 
0.00392157 0.576471 0.6 0.00392157 0.576471 0.6 
0.00392157 0.576471 0.6 0.00392157 0.576471 0.6 

NORMALS Normals float
0.380043 0.150645 -0.912619 0.237517 0.119906 -0.963955 0.180571 0.259246 -0.948781 
0.320962 0.387999 -0.863968 0.0449959 0.259902 -0.964586 0.216827 0.619246 -0.754666 
0.242145 0.616938 -0.748835 0.370548 0.115461 -0.921609 0.533236 0.297523 -0.791921 
-0.139484 -0.218086 -0.96591 0.140708 -0.211811 -0.967128 0.24116 0.239069 -0.940578 
0.572483 0.491594 -0.6562 0.0100729 0.271198 -0.962471 0.00106665 0.258491 -0.966013 
-3.31729e-05 0.259725 -0.965683 -0.0867942 0.313361 -0.945659 -0.138609 0.495165 -0.857671 
0.0542211 0.552558 -0.831709 -0.0575862 0.603921 -0.794961 0.169375 0.630315 -0.757638 
0.0235724 -0.218389 -0.975577 0.395526 0.203777 -0.895564 0.633901 0.284498 -0.719187 
0.405617 0.506114 -0.761133 0.624036 0.459942 -0.63169 0.558008 0.521008 -0.645892 
0.535273 0.486169 -0.69074 -0.232059 -0.10033 -0.967514 -0.179218 0.111807 -0.977436 
-0.191661 0.374911 -0.907032 -0.268079 0.37635 -0.886845 0.234216 0.598531 -0.766096 
-0.201131 0.699162 -0.686089 -0.208653 0.625257 -0.752009 -0.00889744 0.755044 -0.655614 