# vtk DataFile Version 4.2
vtk output
ASCII
DATASET POLYDATA
POINTS 1192 float
339.136 137.366 49.4043 342.213 136.788 50.0001 342.702 136.876 50.25 
339.941 138.116 49.5937 342.678 137.306 50.395 336.203 139.196 49.3365 
338.128 138.886 49.4639 340.483 138.407 49.8346 342.424 137.674 50.4602 
340.11 139.026 49.9599 335.13 140.779 49.5125 334.003 141.898 49.6651 
335.486 141.512 49.8398 331.453 142.698 49.6266 337.557 141.067 50.2298 
333.492 143.128 50.1548 334.937 142.517 50.3156 330.841 144.004 50.0709 
333.113 143.59 50.4048 329.569 145.178 50.5164 345.028 133.739 50.7812 
345.5 133.925 51.0885 341.744 134.995 49.8435 342.653 134.856 50.0507 
345.961 134.098 51.505 344.658 135.149 50.8994 345.082 134.929 51.0868 
343.591 136.68 50.8479 342.877 137.499 50.7046 330.799 138.573 49.8076 
333.187 139.03 49.4535 341.507 138.587 50.4886 341.909 138.435 50.724 
331.083 140.837 49.5233 336.154 142.225 50.8279 327.047 144.13 50.1274 
325.515 144.372 50.2447 330.005 144.368 50.2549 328.737 145.115 50.4954 
330.939 144.74 50.8135 326.718 146.046 50.8424 328.44 145.742 50.9042 
329.208 145.584 50.9792 324.327 146.784 51.0615 327.316 146.297 51.1809 
324.518 147.237 51.4878 325.24 147.101 51.4358 345.074 130.255 51.0509 
345.934 129.605 51.3479 337.38 131.642 50.5948 346.8 129.973 51.6196 
347.481 130.644 52.0679 346.203 134.276 51.8474 344.987 135.599 51.589 
343.471 137.348 51.3383 342.07 138.532 51.1819 322.772 141.408 50.7749 
339.386 140.447 50.8218 337.49 141.599 51.1748 331.778 144.688 51.2559 
320.17 146.837 51.1398 327.89 146.379 51.5252 317.622 148.884 52.0892 
317.018 148.769 52.0793 317.122 149.133 52.3546 318.211 148.959 52.124 
319.919 148.926 52.265 345.021 128.119 51.57 346.549 127.196 52.1478 
348.359 127.791 52.9878 348.389 128.512 52.7122 333.486 130.142 52.2231 
334.601 130.591 51.512 347.748 131.533 52.6339 326.718 134.445 52.1313 
347.202 132.699 52.5123 346.114 134.604 52.0147 344.601 136.397 52.3636 
343.252 137.655 51.5421 322.509 139.044 51.3438 341.491 139.101 52.0356 
340.29 139.93 51.9005 339.218 140.719 51.6839 336.572 142.155 52.0945 
316.428 144.105 51.6974 332.938 144.362 51.9302 331.074 145.26 52.0813 
315.078 147.875 52.0464 324.109 147.933 52.5359 312.988 148.871 52.6655 
314.325 149.207 52.6336 313.539 149.667 53.0487 315.003 149.787 53.0216 
316.939 149.562 52.8881 317.803 149.633 53.042 319.124 149.34 52.6903 
313.794 150.088 53.4641 338.912 125.882 53.2454 347.242 124.661 53.3941 
348.304 124.934 53.8412 348.526 125.375 53.8708 335.659 127.495 53.8343 
348.657 127.071 53.5855 348.461 128.358 52.8707 348.594 128.454 53.2533 
331.899 130.556 52.9489 348.493 129.974 53.6327 325.062 134.154 53.3406 
325.069 133.862 53.8964 326.682 133.166 53.7133 348.039 131.536 53.6341 
324.703 134.623 52.9579 320.534 136.283 53.8338 321.878 135.553 53.9711 
346.465 134.329 52.6444 319.26 137.048 53.7394 321.295 136.977 52.6404 
344.944 135.968 52.9384 317.132 138.4 53.4066 343.091 137.771 52.6189 
317.981 139.93 52.2834 339.613 140.374 52.1092 338.151 141.314 52.0285 
338.543 141.006 52.3521 337.006 141.72 52.6636 311.561 144.321 52.7325 
335.203 142.898 52.4934 332.789 144.445 52.3002 311.231 146.316 52.6256 
330.904 145.37 52.4988 328.405 146.469 52.4417 310.576 148.072 52.8684 
313.465 147.387 52.231 325.847 147.488 52.5606 326.21 147.409 52.8048 
323.974 148.138 53.0916 324.709 147.857 53.1988 308.45 149.607 53.7532 
320.057 149.395 53.1535 308.498 150.178 54.1129 315.706 150.117 53.4587 
318.328 149.731 53.4902 308.991 150.53 54.4244 313.733 150.435 54.0075 
339.805 124.244 54.5603 347.935 122.948 54.8227 348.421 123.427 54.8067 
348.59 123.788 54.7038 337.999 125.581 54.835 337.25 126.181 54.4719 
338.731 125.172 54.4088 348.912 124.794 54.7022 334.575 128.028 54.2345 
333.453 128.874 54.0707 348.239 130.981 54.1384 324.63 134.038 54.0686 
325.533 133.57 54.2872 320.475 136.109 54.2334 320.823 135.857 54.6606 
346.792 133.746 53.9154 319.139 136.787 54.2572 316.508 137.914 54.2368 
317.23 137.919 53.8708 313.863 138.458 54.4043 343.455 137.298 53.0589 
313.365 139.49 53.7477 312.409 139.512 53.9459 342.208 138.393 52.938 
311.734 139.776 53.9554 313.224 140.173 53.4309 338.617 140.436 53.2287 
340.633 139.202 53.2167 312.234 141.775 53.1123 337.233 141.019 53.5131 
336.266 141.859 53.1564 326.296 147.364 53.1311 303.713 148.986 54.2828 
306.264 148.577 53.77 303.513 149.6 54.455 323.287 148.359 53.7742 
303.182 150.233 54.7567 315.844 150.275 53.7965 316.223 150.287 54.083 
302.338 151.102 55.3738 302.17 150.919 55.2806 303.621 150.559 54.9474 
307.119 150.713 54.856 311.484 150.698 54.6583 343.754 121.044 56.029 
345.792 120.748 55.8108 345.285 121.638 54.9389 346.594 121.115 55.6121 
347.814 122.062 55.5052 347.992 122.078 55.7624 339.766 124.082 54.991 
348.647 123.608 54.9464 348.763 123.661 55.2708 339.596 124.172 55.2864 
338.064 125.521 55.5391 336.785 126.482 54.9647 335.704 127.416 55.3735 
333.991 128.475 54.6582 333.317 129.205 55.253 333.976 128.668 55.1406 
348.857 128.269 54.7082 329.184 131.642 54.6734 348.249 130.45 54.8417 
325.267 133.697 54.6083 325.414 133.781 55.1535 346.331 134.075 54.324 
320.407 136.023 55.0698 312.933 137.764 55.7552 316.07 137.444 55.6183 
341.9 136.855 54.6751 343.381 136.408 54.2879 307.762 138.938 55.2487 
312.01 138.452 54.8315 334.459 139.651 55.3086 335.335 140.417 54.7455 
338.493 139.393 54.2342 340.236 138.945 53.7763 335.455 141.355 54.1374 
332.26 143.033 54.4847 333.338 143.041 53.9385 328.284 145.57 54.5388 
303.659 146.506 54.1478 327.331 146.496 54.0267 298.097 148.491 55.2857 
324.487 147.592 54.5202 297.098 149.886 55.9081 299.551 149.85 55.2897 
320.423 149.419 54.1834 302.396 150.299 54.9622 316.211 150.361 54.6224 
317.671 149.963 54.8911 297.548 150.919 56.4408 301.485 151.361 55.8313 
301.553 150.95 55.4754 304.8 151.265 55.5514 307.609 151.214 55.5177 
302.028 151.422 55.8709 344.706 120.211 56.827 345.234 120.073 56.8839 
346.523 120.418 56.7233 346.641 120.876 55.9877 347.754 121.737 56.4174 
347.886 121.863 56.0067 341.872 122.322 56.6182 342.362 121.874 56.5138 
348.227 122.408 55.8342 339.702 124.151 55.7477 349.099 124.52 55.6848 
337.673 125.91 55.7769 338.639 125.22 56.0707 349.263 125.627 55.7294 
349.2 125.291 56.0341 335.797 127.568 55.8239 329.844 131.465 55.2723 
346.922 132.721 55.0029 346.513 133.453 54.8235 343.203 134.109 55.9119 
344.063 133.929 55.8063 343.47 135.311 55.1125 305.388 138.009 56.4923 
307.366 138.037 56.1996 308.152 137.758 56.5257 304.668 138.196 56.3716 
306.296 138.604 55.8064 303.293 139.414 55.8245 304.946 140.188 55.1987 
328.678 141.412 56.2946 328.308 143.736 55.6513 324.843 147.126 54.916 
293.161 150.088 57.2033 316.05 150.378 55.2911 316.604 150.106 55.7966 
300.397 151.511 56.2372 300.769 151.652 56.3277 313.628 150.807 55.7277 
315.274 150.542 55.4596 304.292 151.758 56.5474 345.368 119.847 57.2466 
345.252 119.751 57.4343 345.133 119.849 57.285 344.78 120.041 57.3094 
345.796 120.053 57.1581 346.995 120.72 57.1144 342.817 121.505 57.0002 
341.839 122.449 57.0495 341.606 122.848 57.1995 341.041 123.308 56.7172 
348.691 123.634 56.6225 348.878 124.348 56.6228 338.764 125.415 56.5863 
348.997 125.136 56.5225 336.14 127.565 56.1474 333.816 129.437 56.1099 
347.813 129.762 56.1538 339.485 131.612 57.0882 346.096 130.277 57.0015 
346.56 130.802 56.5589 329.893 132.055 56.1064 345.996 132.148 56.1073 
325.46 134.469 56.338 300.518 137.006 57.3951 302.741 136.783 57.7133 
304 137.108 57.4897 302.956 137.579 56.9233 306.092 137.179 57.7681 
316.812 137.312 56.4907 319.022 137.008 56.7303 302.663 138.073 56.5892 
293.51 145.189 56.3631 323.94 145.57 56.4591 287.636 148.174 58.1136 
287.961 149.03 58.3132 287.621 149.096 58.6204 291.891 148.937 56.9546 
289.612 149.931 58.2606 316.295 150.006 56.3535 297.224 151.489 57.3201 
307.323 151.744 56.7626 309.742 151.463 56.7247 303.17 151.998 57.3558 
345.273 119.739 57.5937 345.075 119.816 57.5573 345.391 119.782 57.673 
345.628 119.975 57.7911 346.017 120.308 58.1129 347.265 121.235 57.6631 
347.131 121.27 58.0248 342.056 122.47 57.4624 339.751 125.395 57.3373 
337.902 126.689 56.9167 347.935 127.844 57.0124 335.809 128.958 56.9225 
336.168 129.327 57.1017 343.421 128.41 57.9829 347.667 128.505 56.9738 
333.526 130.221 56.6348 334.906 129.963 56.8333 331.282 131.627 56.4935 
332.806 131.146 56.6731 333.552 130.618 56.7921 331.678 131.935 56.7165 
331.806 131.566 56.712 328.122 133.581 56.4567 328.98 133.613 56.6662 
330.772 132.728 56.7277 299.716 135.206 58.6314 299.491 135.222 58.6266 
327.69 134.515 56.919 322.786 135.89 56.9335 328.593 135.006 57.0154 
297.313 136.24 57.9502 303.479 136.347 58.7711 328.547 135.812 57.0943 
307.874 137.29 57.8635 319.978 137.181 57.2885 289.545 144.802 57.368 
286.13 146.906 59.1793 316.965 149.24 57.0756 288.689 150.021 58.8973 
290.628 150.674 58.8003 292.436 150.925 58.5192 295.994 151.805 58.5959 
308.941 151.652 57.4201 312.223 150.87 57.3959 345.234 119.838 57.7973 
344.501 120.271 58.1989 345.239 120.019 58.2154 343.646 120.954 58.0317 
342.354 122.509 57.8692 339.957 125.623 57.6269 341.272 125.243 57.9676 
339.694 126.709 57.6852 341.142 127.039 58.0049 347.721 125.792 58.0606 
341.807 127.749 58.0239 347.599 127.183 57.5905 335.586 129.226 56.9534 
335.876 129.191 57.0362 333.429 130.434 56.7245 331.863 131.434 56.6815 
330.735 132.089 56.5937 296.993 134.312 58.9506 299.652 134.841 59.1724 
304.483 136.467 59.4481 321.361 137.292 57.642 321.871 137.471 57.8363 
310.714 137.662 58.885 316.563 138.237 58.3191 322.303 138.746 58.0929 
286.438 141.031 59.5819 319.323 140.812 58.9478 285.819 145.084 59.6714 
316.099 145.668 59.3662 285.824 147.861 60.0366 315.006 148.736 58.5031 
316.31 149.027 57.612 288.514 150.221 59.4608 290.322 150.814 59.2009 
313.107 149.9 58.602 312.288 150.614 58.1777 303.721 152.067 58.8303 
307.428 151.653 58.5638 344.871 120.274 58.7459 345.124 120.175 58.6381 
345.304 120.284 58.7758 345.568 120.541 58.8396 345.936 120.983 58.9184 
[...]
POINT_DATA 1192
COLOR_SCALARS scalars 3
0.00392157 0.576471 0.6 0.00392157 0.576471 0.6 0.00392157 0.576471 0.6 
0.00392157 0.576471 0.6 0.00392157 0.576471 0.6 
0.00392157 0.576471 0.6 0.00392157 0.576471 0.6 
0.00392157 0.576471 0.6 0.00392157 0.576471 0.6 
0.00392157 0.576471 0.6 0.00392157 0.576471 0.6 
0.00392157 0.576471 0.6 0.00392157 0.576471 0.6 
0.00392157 0.576471 0.6 0.00392157 0.576471 0.6 
0.00392157 0.576471 0.6 0.00392157 0.576471 0.6 
0.00392157 0.576471 0.6 0.00392157 0.576471 0.6 
0.00392157 0.576471 0.6 0.00392157 0.576471 0.6 
0.00392157 0.576471 0.6 0.00392157 0.576471 0.6 
0.00392157 0.576471 0.6 0.00392157 0.576471 0.6 
0.00392157 0.576471 0.6 0.00392157 0.576471 0.6 
0.00392157 0.576471 0.6 0.00392157 0.576471 0.6 
0.00392157 0.576471 0.6 0.00392157 0.576471 0.6 
0.00392157 0.576471 0.6 0.00392157 0.576471 0.6 
0.00392157 0.576471 0.6 0.00392157 0.576471 0.6 
0.00392157 0.576471 0.6 0.00392157 0.576471 0.6 
0.00392157 0.576471 0.6 0.00392157 0.576471 0.6 
0.00392157 0.576471 0.6 0.00392157 0.576471 0.6 
0.00392157 0.576471 0.6 0.00392157 0.576471 0.6 
0.00392157 0.576471 0.6 0.00392157 0.576471 0.6 
0.00392157 0.576471 0.6 0.00392157 0.576471 0.6 
0.00392157 0.576471 0.6 0.00392157 0.576471 0.6 
0.00392157 0.576471 0.6 0.00392157 0.576471 0.6 
0.00392157 0.576471 0.6 0.00392157 0.576471 0.6 
0.00392157 0.576471 0.6 0.00392157 0.576471 0.6 
0.00392157 0.576471 0.6 0.00392157 0.576471 0.6 
0.00392157 0.576471 0.6 0.00392157 0.576471 0.6 
0.00392157 0.576471 0.6 0.00392157 0.576471 0.6 
0.00392157 0.576471 0.6 0.00392157 0.576471 0.6 
0.00392157 0.576471 0.6 0.00392157 0.576471 0.6 
0.00392157 0.576471 0.6 0.00392157 0.576471 0.6 
0.00392157 0.576471 0.6 0.00392157 0.576471 0.6 
0.00392157 0.576471 0.6 0.00392157 0.576471 0.6 
0.00392157 0.576471 0.6 0.00392157 0.576471 0.6 
0.00392157 0.576471 0.6 0.00392157 0.576471 0.6 
0.00392157 0.576471 0.6 0.00392157 0.576471 0.6 
0.00392157 0.576471 0.6 0.00392157 0.576471 0.6 
0.00392157 0.576471 0.6 0.00392157 0.576471 0.6 
0.00392157 0.576471 0.6 0.00392157 0.576471 0.6 
0.00392157 0.576471 0.6 0.00392157 0.576471 0.6 
0.00392157 0.576471 0.6 0.00392157 0.576471 0.6 
0.00392157 0.576471 0.6 0.00392157 0.576471 0.6 
0.00392157 0.576471 0.6 0.00392157 0.576471 0.6 
0.00392157 0.576471 0.6 0.00392157 0.576471 0.6 
0.00392157 0.576471 0.6 0.00392157 0.576471 0.6 
0.00392157 0.576471 0.6 0.00392157 0.576471 0.6 
0.00392157 0.576471 0.6 0.00392157 0.576471 0.6 
0.00392157 0.576471 0.6 0.00392157 0.576471 0.6 
0.00392157 0.576471 0.6 0.00392157 0.576471 0.6 
0.00392157 0.576471 0.6 0.00392157 0.576471 0.6 
0.00392157 0.576471 0.6 0.00392157 0.576471 0.6 
0.00392157 0.576471 0.6 0.00392157 0.576471 0.6 
0.00392157 0.576471 0.6 0.00392157 0.576471 0.6 
0.00392157 0.576471 0.6 0.00392157 0.576471 0.6 
0.00392157 0.576471 0.6 0.00392157 0.576471 0.6 
0.00392157 0.576471 0.6 0.00392157 0.576471 0.6 
0.00392157 0.576471 0.6 0.00392157 0.576471 0.6 
0.00392157 0.576471 0.6 0.00392157 0.576471 0.6 
0.00392157 0.576471 0.6 0.00392157 0.576471 0.6 
0.00392157 0.576471 0.6 0.00392157 0.576471 0.6 
0.00392157 0.576471 0.6 0.00392157 0.576471 0.6 
0.00392157 0.576471 0.6 0.00392157 0.576471 0.6 
0.00392157 0.576471 0.6 0.00392157 0.576471 0.6 
0.00392157 0.576471 0.6 0.00392157 0.576471 0.6 
0.00392157 0.576471 0.6 0.00392157 0.576471 0.6 
0.00392157 0.576471 0.6 0.00392157 0.576471 0.6 
0.00392157 0.576471 0.6 0.00392157 0.576471 0.6 
0.00392157 0.576471 0.6 0.00392157 0.576471 0.6 
0.00392157 0.576471 0.6 0.00392157 0.576471 0.6 
0.00392157 0.576471 0.6 0.00392157 0.576471 0.6 
0.00392157 0.576471 0.6 0.00392157 0.576471 0.6 
0.00392157 0.576471 0.6 0.00392157 0.576471 0.6 
0.00392157 0.576471 0.6 0.00392157 0.576471 0.6 
0.00392157 0.576471 0.6 0.00392157 0.576471 0.6 
0.00392157 0.576471 0.6 0.00392157 0.576471 0.6 
0.00392157 0.576471 0.6 0.00392157 0.576471 0.6 
0.00392157 0.576471 0.6 0.00392157 0.576471 0.6 
0.00392157 0.576471 0.6 0.00392157 0.576471 0.6 
0.00392157 0.576471 0.6 0.00392157 0.576471 0.6 
0.00392157 0.576471 0.6 0.00392157 0.576471 0.6 
0.00392157 0.576471 0.6 0.00392157 0.576471 0.6 
0.00392157 0.576471 0.6 0.00392157 0.576471 0.6 
0.00392157 0.576471 0.6 0.00392157 0.576471 0.6 
0.00392157 0.576471 0.6 0.00392157 0.576471 0.6 
0.00392157 0.576471 0.6 0.00392157 0.576471 0.6 
0.00392157 0.576471 0.6 0.00392157 0.576471 0.6 
0.00392157 0.576471 0.6 0.00392157 0.576471 0.6 
0.00392157 0.576471 0.6 0.00392157 0.576471 0.6 
0.00392157 0.576471 0.6 0.00392157 0.576471 0.6 
0.00392157 0.576471 0.6 0.00392157 0.576471 0.6 
0.00392157 0.576471 0.6 0.00392157 0.576471 0.6 
0.00392157 0.576471 0.6 0.00392157 0.576471 0.6 
0.00392157 0.576471 0.6 0.00392157 0.576471 0.6 
0.00392157 0.576471 0.6 0.00392157 0.576471 0.6 
0.00392157 0.576471 0.6 0.00392157 0.576471 0.6 
0.00392157 0.576471 0.6 0.00392157 0.576471 0.6 
0.00392157 0.576471 0.6 0.00392157 0.576471 0.6 
0.00392157 0.576471 0.6 0.00392157 0.576471 0.6 
0.00392157 0.576471 0.6 0.00392157 0.576471 0.6 
0.00392157 0.576471 0.6 0.00392157 0.576471 0.6 
0.00392157 0.576471 0.6 0.00392157 0.576471 0.6 
0.00392157 0.576471 0.6 0.00392157 0.576471 0.6 
0.00392157 0.576471 0.6 0.00392157 0.576471 0.6 
0.00392157 0.576471 0.6 0.00392157 0.576471 0.6 
0.00392157 0.576471 0.6 0.00392157 0.576471 0.6 
0.00392157 0.576471 0.6 0.00392157 0.576471 0.6 
0.00392157 0.576471 0.6 0.00392157 0.576471 0.6 
0.00392157 0.576471 0.6 0.00392157 0.576471 0.6 
0.00392157 0.576471 0.6 0.00392157 0.576471 0.6 
0.00392157 0.576471 0.6 0.00392157 0.576471 0.6 
0.00392157 0.576471 0.6 0.00392157 0.576471 0.6 
0.00392157 0.576471 0.6 0.00392157 0.576471 0.6 
0.00392157 0.576471 0.6 0.00392157 0.576471 0.6 
0.00392157 0.576471 0.6 0.00392157 0.576471 0.6 
0.00392157 0.576471 0.6 0.00392157 0.576471 0.6 
0.00392157 0.576471 0.6 0.00392157 0.576471 0.6 
0.00392157 0.576471 0.6 0.00392157 0.576471 0.6 
0.00392157 0.576471 0.6 0.00392157 0.576471 0.6 
0.00392157 0.576471 0.6 0.00392157 0.576471 0.6 
0.00392157 0.576471 0.6 0.00392157 0.576471 0.6 
0.00392157 0.576471 0.6 0.00392157 0.576471 0.6 
0.00392157 0.576471 0.6 0.00392157 0.576471 0.6 
0.00392157 0.576471 0.6 0.00392157 0.576471 0.6 
0.00392157 0.576471 0.6 0.00392157 0.576471 0.6 
0.00392157 0.576471 0.6 0.00392157 0.576471 0.6 
0.00392157 0.576471 0.6 0.00392157 0.576471 0.6 
0.00392157 0.576471 0.6 0.00392157 0.576471 0.6 
0.00392157 0.576471 0.6 0.00392157 0.576471 0.6 
0.00392157 0.576471 0.6 0.00392157 0.576471 0.6 
0.00392157 0.576471 0.6 0.00392157 0.576471 0.6 
0.00392157 0.576471 0.6 0.00392157 0.576471 0.6 
0.00392157 0.576471 0.6 0.00392157 0.576471 0.6 
0.00392157 0.576471 0.6 0.00392157 0.576471 0.6 
0.00392157 0.576471 0.6 0.00392157 0.576471 0.6 
0.00392157 0.576471 0.6 0.00392157 0.576471 0.6 
0.00392157 0.576471 0.6 0.00392157 0.576471 0.6 
0.00392157 0.576471 0.6 0.00392157 0.576471 0.6 
0.00392157 0.576471 0.6 0.00392157 0.576471 0.6 
0.00392157 0.576471 0.6 0.00392157 0.576471 0.6 
0.00392157 0.576471 0.6 0.00392157 0.576471 0.6 
0.00392157 0.576471 0.6 0.00392157 0.576471 0.6 
0.00392157 0.576471 0.6 0.00392157 0.576471 0.6 
0.00392157 0.576471 0.6 0.00392157 0.576471 0.6 
0.00392157 0.576471 0.6 0.00392157 0.576471 0.6 
0.00392157 0.576471 0.6 0.00392157 0.576471 0.6 
0.00392157 0.576471 0.6 0.00392157 0.576471 0.6 
0.00392157 0.576471 0.6 0.00392157 0.576471 0.6 
0.00392157 0.576471 0.6 0.00392157 0.576471 0.6 
0.00392157 0.576471 0.6 0.00392157 0.576471 0.6 
0.00392157 0.576471 0.6 0.00392157 0.576471 0.6 
0.00392157 0.576471 0.6 0.00392157 0.576471 0.6 
0.00392157 0.576471 0.6 0.00392157 0.576471 0.6 
0.00392157 0.576471 0.6 0.00392157 0.576471 0.6 
0.00392157 0.576471 0.6 0.00392157 0.576471 0.6 
0.00392157 0.576471 0.6 0.00392157 0.576471 0.6 
0.00392157 0.576471 0.6 0.00392157 0.576471 0.6 
0.00392157 0.576471 0.6 0.00392157 0.576471 0.6 
0.00392157 0.576471 0.6 0.00392157 0.576471 0.6 
0.00392157 0.576471 0.6 0.00392157 0.576471 0.6 
0.00392157 0.576471 0.6 0.00392157 0.576471 0.6 
0.00392157 0.576471 0.6 0.00392157 0.576471 0.6 
0.00392157 0.576471 0.6 0.00392157 0.576471 0.6 
0.00392157 0.576471 0.6 0.00392157 0.576471 0.6 
0.00392157 0.576471 0.6 0.00392157 0.576471 0.6 
0.00392157 0.576471 0.6 0.00392157 0.576471 0.6 
0.00392157 0.576471 0.6 0.00392157 0.576471 0.6 
0.00392157 0.576471 0.6 0.00392157 0.576471 0.6 
0.00392157 0.576471 0.6 0.00392157 0.576471 0.6 
0.00392157 0.576471 0.6 0.00392157 0.576471 0.6 
0.00392157 0.576471 0.6 0.00392157 0.576471 0.6 
0.00392157 0.576471 0.6 0.00392157 0.576471 0.6 
0.00392157 0.576471 0.6 0.00392157 0.576471 0.6 
0.00392157 0.576471 0.6 0.00392157 0.576471 0.6 
0.00392157 0.576471 0.6 0.00392157 0.576471 0.6 
0.00392157 0.576471 0.6 0.00392157 0.576471 0.6 
0.00392157 0.576471 0.6 0.00392157 0.576471 0.6 
0.00392157 0.576471 0.6 0.00392157 0.576471 0.6 
0.00392157 0.576471 0.6 0.00392157 0.576471 0.6 
0.00392157 0.576471 0.6 0.00392157 0.576471 0.6 
0.00392157 0.576471 0.6 0.00392157 0.576471 0.6 
0.00392157 0.576471 0.6 0.00392157 0.576471 0.6 
0.00392157 0.576471 0.6 0.00392157 0.576471 0.6 
0.00392157 0.576471 0.6 0.00392157 0.576471 0.6 
0.00392157 0.576471 0.6 0.00392157 0.576471 0.6 
0.00392157 0.576471 0.6 0.00392157 0.576471 0.6 
0.00392157 0.576471 0.6 0.00392157 0.576471 0.6 
0.00392157 0.576471 0.6 0.00392157 0.576471 0.6 
0.00392157 0.576471 0.6 0.00392157 0.576471 0.6 
0.00392157 0.576471 0.6 0.00392157 0.576471 0.6 
0.00392157 0.576471 0.6 0.00392157 0.576471 0.6 
0.00392157 0.576471 0.6 0.00392157 0.576471 0.6 
0.00392157 0.576471 0.6 0.00392157 0.576471 0.6 
0.00392157 0.576471 0.6 0.00392157 0.576471 0.6 
0.00392157 0.576471 0.6 0.00392157 0.576471 0.6 
0.00392157 0.576471 0.6 0.00392157 0.576471 0.6 
0.00392157 0.576471 0.6 0.00392157 0.576471 0.6 
0.00392157 0.576471 0.6 0.00392157 0.576471 0.6 
0.00392157 0.576471 0.6 0.00392157 0.576471 0.6 
0.00392157 0.576471 0.6 0.00392157 0.576471 0.6 
0.00392157 0.576471 0.6 0.00392157 0.576471 0.6 
0.00392157 0.576471 0.6 0.00392157 0.576471 0.6 
0.00392157 0.576471 0.6 0.00392157 0.576471 0.6 
0.00392157 0.576471 0.6 0.00392157 0.576471 0.6 
0.00392157 0.576471 0.6 0.00392157 0.576471 0.6 
0.00392157 0.576471 0.6 0.00392157 0.576471 0.6 
0.00392157 0.576471 0.6 0.00392157 0.576471 0.6 
0.00392157 0.576471 0.6 0.00392157 0.576471 0.6 
0.00392157 0.576471 0.6 0.00392157 0.576471 0.6 
0.00392157 0.576471 0.6 0.00392157 0.576471 0.6 
0.00392157 0.576471 0.6 0.00392157 0.576471 0.6 
0.00392157 0.576471 0.6 0.00392157 0.576471 0.6 
0.00392157 0.576471 0.6 0.00392157 0.576471 0.6 
0.00392157 0.576471 0.6 0.00392157 0.576471 0.6 
0.00392157 0.576471 0.6 0.00392157 0.576471 0.6 
0.00392157 0.576471 0.6 0.00392157 0.576471 0.6 
0.00392157 0.576471 0.6 0.00392157 0.576471 0.6 
0.00392157 0.576471 0.6 0.00392157 0.576471 0.6 
0.00392157 0.576471 0.6 0.00392157 0.576471 0.6 
0.00392157 0.576471 0.6 0.00392157 0.576471 0.6 
0.00392157 0.576471 0.6 0.00392157 0.576471 0.6 
0.00392157 0.576471 0.6 0.00392157 0.576471 0.6 
0.00392157 0.576471 0.6 0.00392157 0.576471 0.6 
0.00392157 0.576471 0.6 0.00392157 0.576471 0.6 
0.00392157 0.576471 0.6 0.00392157 0.576471 0.6 
0.00392157 0.576471 0.6 0.00392157 0.576471 0.6 
0.00392157 0.576471 0.6 0.00392157 0.576471 0.6 
0.00392157 0.576471 0.6 0.00392157 0.576471 0.6 
0.00392157 0.576471 0.6 0.00392157 0.576471 0.6 
0.00392157 0.576471 0.6 0.00392157 0.576471 0.6 
0.00392157 0.576471 0.6 0.00392157 0.576471 0.6 
0.00392157 0.576471 0.6 0.00392157 0.576471 0.6 
0.00392157 0.576471 0.6 0.00392157 0.576471 0.6 
0.00392157 0.576471 0.6 0.00392157 0.576471 0.6 
0.00392157 0.576471 0.6 0.00392157 0.576471 0.6 
0.00392157 0.576471 0.6 0.00392157 0.576471 0.6 
0.00392157 0.576471 0.6 0.00392157 0.576471 0.6 
0.00392157 0.576471 0.6 0.00392157 0.576471 0.6 
0.00392157 0.576471 0.6 0.00392157 0.576471 0.6 
0.00392157 0.576471 0.6 0.00392157 0.576471 0.6 
0.00392157 0.576471 0.6 0.00392157 0.576471 0.6 
0.00392157 0.576471 0.6 0.00392157 0.576471 0.6 
0.00392157 0.576471 0.6 0.00392157 0.576471 0.6 
0.00392157 0.576471 0.6 0.00392157 0.576471 0.6 
0.00392157 0.576471 0.6 0.00392157 0.576471 0.6 
0.00392157 0.576471 0.6 0.00392157 0.576471 0.6 
0.00392157 0.576471 0.6 0.00392157 0.576471 0.6 
0.00392157 0.576471 0.6 0.00392157 0.576471 0.6 
0.00392157 0.576471 0.6 0.00392157 0.576471 0.6 
0.00392157 0.576471 0.6 0.00392157 0.576471 0.6 
0.00392157 0.576471 0.6 0.00392157 0.576471 0.6 
0.00392157 0.576471 0.6 0.00392157 0.576471 0.6 
0.00392157 0.576471 0.6 0.00392157 0.576471 0.6 
0.00392157 0.576471 0.6 0.00392157 0.576471 0.6 
0.00392157 0.576471 0.6 0.00392157 0.576471 0.6 
0.00392157 0.576471 0.6 0.00392157 0.576471 0.6 
0.00392157 0.576471 0.6 0.00392157 0.576471 0.6 
0.00392157 0.576471 0.6 0.00392157 0.576471 0.6 
0.00392157 0.576471 0.6 0.00392157 0.576471 0.6 
0.00392157 0.576471 0.6 0.00392157 0.576471 0.6 
0.00392157 0.576471 0.6 0.00392157 0.576471 0.6 
0.00392157 0.576471 0.6 0.00392157 0.576471 0.6 
0.00392157 0.576471 0.6 0.00392157 0.576471 0.6 
0.00392157 0.576471 0.6 0.00392157 0.576471 0.6 
0.00392157 0.576471 0.6 0.00392157 0.576471 0.6 
0.00392157 0.576471 0.6 0.00392157 0.576471 0.6 
0.00392157 0.576471 0.6 0.00392157 0.576471 0.6 
0.00392157 0.576471 0.6 0.00392157 0.576471 0.6 
0.00392157 0.576471 0.6 0.00392157 0.576471 0.6 
0.00392157 0.576471 0.6 0.00392157 0.576471 0.6 
0.00392157 0.576471 0.6 0.00392157 0.576471 0.6 
0.00392157 0.576471 0.6 0.00392157 0.576471 0.6 
0.00392157 0.576471 0.6 0.00392157 0.576471 0.6 
0.00392157 0.576471 0.6 0.00392157 0.576471 0.6 
0.00392157 0.576471 0.6 0.00392157 0.576471 0.6 
0.00392157 0.576471 0.6 0.00392157 0.576471 0.6 
0.00392157 0.576471 0.6 0.00392157 0.576471 0.6 
0.00392157 0.576471 0.6 0.00392157 0.576471 0.6 
0.00392157 0.576471 0.6 0.00392157 0.576471 0.6 
0.00392157 0.576471 0.6 0.00392157 0.576471 0.6 
0.00392157 0.576471 0.6 0.00392157 0.576471 0.6 
0.00392157 0.576471 0.6 0.00392157 0.576471 0.6 
0.00392157 0.576471 0.6 0.00392157 0.576471 0.6 
0.00392157 0.576471 0.6 0.00392157 0.576471 0.6 
0.00392157 0.576471 0.6 0.00392157 0.576471 0.6 
0.00392157 0.576471 0.6 0.00392157 0.576471 0.6 
0.00392157 0.576471 0.6 0.00392157 0.576471 0.6 
0.00392157 0.576471 0.6 0.00392157 0.576471 0.6 
0.00392157 0.576471 0.6 0.00392157 0.576471 0.6 
0.00392157 0.576471 0.6 0.00392157 0.576471 0.6 
0.00392157 0.576471 0.6 0.00392157 0.576471 0.6 
0.00392157 0.576471 0.6 0.00392157 0.576471 0.6 
0.00392157 0.576471 0.6 0.00392157 0.576471 0.6 
0.00392157 0.576471 0.6 0.00392157 0.576471 0.6 
0.00392157 0.576471 0.6 0.00392157 0.576471 0.6 
0.00392157 0.576471 0.6 0.00392157 0.576471 0.6 
0.00392157 0.576471 0.6 0.00392157 0.576471 0.6 
0.00392157 0.576471 0.6 0.00392157 0.576471 0.6 
0.00392157 0.576471 0.6 0.00392157 0.576471 0.6 
0.00392157 0.576471 0.6 0.00392157 0.576471 0.6 
0.00392157 0.576471 0.6 0.00392157 0.576471 0.6 
0.00392157 0.576471 0.6 0.00392157 0.576471 0.6 
0.00392157 0.576471 0.6 0.00392157 0.576471 0.6 
0.00392157 0.576471 0.6 0.00392157 0.576471 0.6 
0.00392157 0.576471 0.6 0.00392157 0.576471 0.6 
0.00392157 0.576471 0.6 0.00392157 0.576471 0.6 
0.00392157 0.576471 0.6 0.00392157 0.576471 0.6 
0.00392157 0.576471 0.6 0.00392157 0.576471 0.6 
0.00392157 0.576471 0.6 0.00392157 0.576471 0.6 
0.00392157 0.576471 0.6 0.00392157 0.576471 0.6 
0.00392157 0.576471 0.6 0.00392157 0.576471 0.6 
0.00392157 0.576471 0.6 0.00392157 0.576471 0.6 
0.00392157 0.576471 0.6 0.00392157 0.576471 0.6 
0.00392157 0.576471 0.6 0.00392157 0.576471 0.6 
0.00392157 0.576471 0.6 0.00392157 0.576471 0.6 
0.00392157 0.576471 0.6 0.00392157 0.576471 0.6 
0.00392157 0.576471 0.6 0.00392157 0.576471 0.6 
0.00392157 0.576471 0.6 0.00392157 0.576471 0.6 
0.00392157 0.576471 0.6 0.00392157 0.576471 0.6 
0.00392157 0.576471 0.6 0.00392157 0.576471 0.6 
0.00392157 0.576471 0.6 0.00392157 0.576471 0.6 
0.00392157 0.576471 0.6 0.00392157 0.576471 0.6 
0.00392157 0.576471 0.6 0.00392157 0.576471 0.6 
0.00392157 0.576471 0.6 0.00392157 0.576471 0.6 
0.00392157 0.576471 0.6 0.00392157 0.576471 0.6 
0.00392157 0.576471 0.6 0.00392157 0.576471 0.6 
0.00392157 0.576471 0.6 0.00392157 0.576471 0.6 
0.00392157 0.576471 0.6 0.00392157 0.576471 0.6 
0.00392157 0.576471 0.6 0.00392157 0.576471 0.6 
0.00392157 0.576471 0.6 0.00392157 0.576471 0.6 
0.00392157 0.576471 0.6 0.00392157 0.576471 0.6 
0.00392157 0.576471 0.6 0.00392157 0.576471 0.6 
0.00392157 0.576471 0.6 0.00392157 0.576471 0.6 
0.00392157 0.576471 0.6 0.00392157 0.576471 0.6 
0.00392157 0.576471 0.6 0.00392157 0.576471 0.6 
0.00392157 0.576471 0.6 0.00392157 0.576471 0.6 
0.00392157 0.576471 0.6 0.00392157 0.576471 0.6 
0.00392157 0.576471 0.6 0.00392157 0.576471 0.6 
0.00392157 0.576471 0.6 0.00392157 0.576471 0.6 
0.00392157 0.576471 0.6 0.00392157 0.576471 0.6 
0.00392157 0.576471 0.6 0.00392157 0.576471 0.6 
0.00392157 0.576471 0.6 0.00392157 0.576471 0.6 
0.00392157 0.576471 0.6 0.00392157 0.576471 0.6 
0.00392157 0.576471 0.6 0.00392157 0.576471 0.6 
0.00392157 0.576471 0.6 0.00392157 0.576471 0.6 
0.00392157 0.576471 0.6 0.00392157 0.576471 0.6 
0.00392157 0.576471 0.6 0.00392157 0.576471 0.6 
0.00392157 0.576471 0.6 0.00392157 0.576471 0.6 
0.00392157 0.576471 0.6 0.00392157 0.576471 0.6 
0.00392157 0.576471 0.6 0.00392157 0.576471 0.6 
0.00392157 0.576471 0.6 0.00392157 0.576471 0.6 
0.00392157 0.576471 0.6 0.00392157 0.576471 0.6 
0.00392157 0.576471 0.6 0.00392157 0.576471 0.6 
0.00392157 0.576471 0.6 0.00392157 0.576471 0.6 
0.00392157 0.576471 0.6 0.00392157 0.576471 0.6 
0.00392157 0.576471 0.6 0.00392157 0.576471 0.6 
0.00392157 0.576471 0.6 0.00392157 0.576471 0.6 
0.00392157 0.576471 0.6 0.00392157 0.576471 0.6 
0.00392157 0.576471 0.6 0.00392157 0.576471 0.6 
0.00392157 0.576471 0.6 0.00392157 0.576471 0.6 
0.00392157 0.576471 0.6 0.00392157 0.576471 0.6 
0.00392157 0.576471 0.6 0.00392157 0.576471 0.6 
0.00392157 0.576471 0.6 0.00392157 0.576471 0.6 
0.00392157 0.576471 0.6 0.00392157 0.576471 0.6 
0.00392157 0.576471 0.6 0.00392157 0.576471 0.6 
0.00392157 0.576471 0.6 0.00392157 0.576471 0.6 
0.00392157 0.576471 0.6 0.00392157 0.576471 0.6 
0.00392157 0.576471 0.6 0.00392157 0.576471 0.6 
0.00392157 0.576471 0.6 0.00392157 0.576471 0.6 
0.00392157 0.576471 0.6 0.00392157 0.576471 0.6 
0.00392157 0.576471 0.6 0.00392157 0.576471 0.6 
0.00392157 0.576471 0.6 0.00392157 0.576471 0.6 
0.00392157 0.576471 0.6 0.00392157 0.576471 0.6 
0.00392157 0.576471 0.6 0.00392157 0.576471 0.6 
0.00392157 0.576471 0.6 0.00392157 0.576471 0.6 
0.00392157 0.576471 0.6 0.00392157 0.576471 0.6 
0.00392157 0.576471 0.6 0.00392157 0.576471 0.6 
0.00392157 0.576471 0.6 0.00392157 0.576471 0.6 
0.00392157 0.576471 0.6 0.00392157 0.576471 0.6 
0.00392157 0.576471 0.6 0.00392157 0.576471 0.6 
0.00392157 0.576471 0.6 0.00392157 0.576471 0.6 
0.00392157 0.576471 0.6 0.00392157 0.576471 0.6 
0.00392157 0.576471 0.6 0.00392157 0.576471 0.6 
0.00392157 0.576471 0.6 0.00392157 0.576471 0.6 
0.00392157 0.576471 0.6 0.00392157 0.576471 0.6 
0.00392157 0.576471 0.6 0.00392157 0.576471 0.6 
0.00392157 0.576471 0.6 0.00392157 0.576471 0.6 
0.00392157 0.576471 0.6 0.00392157 0.576471 0.6 
0.00392157 0.576471 0.6 0.00392157 0.576471 0.6 
0.00392157 0.576471 0.6 0.00392157 0.576471 0.6 
0.00392157 0.576471 0.6 0.00392157 0.576471 0.6 
0.00392157 0.576471 0.6 0.00392157 0.576471 0.6 
0.00392157 0.576471 0.6 0.00392157 0.576471 0.6 
0.00392157 0.576471 0.6 0.00392157 0.576471 0.6 
0.00392157 0.576471 0.6 0.00392157 0.576471 0.6 
0.00392157 0.576471 0.6 0.00392157 0.576471 0.6 
0.00392157 0.576471 0.6 0.00392157 0.576471 0.6 
0.00392157 0.576471 0.6 0.00392157 0.576471 0.6 
0.00392157 0.576471 0.6 0.00392157 0.576471 0.6 
0.00392157 0.576471 0.6 0.00392157 0.576471 0.6 
0.00392157 0.576471 0.6 0.00392157 0.576471 0.6 
0.00392157 0.576471 0.6 0.00392157 0.576471 0.6 
0.00392157 0.576471 0.6 0.00392157 0.576471 0.6 
0.00392157 0.576471 0.6 0.00392157 0.576471 0.6 
0.00392157 0.576471 0.6 0.00392157 0.576471 0.6 