# vtk DataFile Version 4.2
vtk output
ASCII
DATASET POLYDATA
POINTS 1735 float
307.677 231.593 79.5589 318.799 237.927 79.5162 322.116 242.362 80.733 
320.701 244.108 80.7979 311.135 225.161 81.7188 317.505 225.915 81.4358 
306.288 227.143 81.1313 315.21 228.138 80.1819 320.761 227.86 81.276 
321.057 231.01 80.5429 321.262 236.069 79.8905 325.188 236.809 81.1267 
297.321 238.157 80.4651 323.379 243.072 81.6027 320.25 245.786 81.4498 
318.047 247.292 81.8261 314.901 224.728 82.0359 319.772 225.803 82.0782 
327.733 238.599 82.7928 290.513 243.081 82.1617 325.14 242.748 82.7169 
292.303 244.105 82.1569 312.025 245.092 81.6322 316.148 247.732 82.3164 
320.811 247.377 82.7059 318.391 248.306 82.6815 317.083 223.495 83.8409 
311.032 223.669 83.2176 323.589 225.902 83.6479 323.446 226.607 83.036 
326.566 229.118 83.1857 329.732 232.472 83.3787 329.204 235.672 83.0658 
287.731 238.179 82.629 311.909 247.023 82.787 315.955 249.32 83.9604 
319.335 248.994 83.7085 310.078 222.934 84.4968 307.267 223.654 84.0268 
322.38 224.697 84.2719 322.528 224.547 84.6497 324.04 225.512 84.306 
325.68 226.214 84.8765 329.325 230.612 83.8322 288.264 233.723 83.1705 
331.302 233.99 84.2043 330.43 237.788 84.5007 284.684 242.244 83.7277 
286.137 244.402 83.6647 307.645 247.035 83.4767 311.412 248.33 84.1028 
320.365 248.449 83.6134 300.286 256.782 83.9847 301.124 256.834 84.0754 
296.444 258.526 83.8151 299.211 263.291 83.8726 289.549 228.429 84.7934 
333.284 231.858 85.7657 332.842 234.916 85.5062 303.609 248.562 84.6939 
309.812 248.76 85.1429 295.637 249.617 84.4766 314.331 249.853 85.3474 
316.779 250.274 85.5179 303.849 253.202 85.1495 305.041 252.968 85.7695 
305.454 253.44 86.0675 304.985 254.476 85.5822 303.465 256.893 84.7327 
302.801 258.295 84.4142 305.499 257.007 85.9683 304.799 258.579 85.4662 
305.355 259.12 85.9637 302.747 263.272 84.9282 303.719 264.568 85.9041 
301.857 267.494 86.0575 295.206 268.212 84.8987 315.441 222.246 86.4188 
319.056 223.067 86.5476 325.28 225.535 85.7062 329.377 228.036 86.0202 
332.518 230.232 86.1237 333.545 230.966 86.4094 334.464 233.196 86.5292 
334.411 233.721 86.5756 333.165 236.622 86.5177 330.099 240.099 85.702 
281.921 244.941 85.0916 306.144 248.952 85.6253 307.14 248.853 85.6617 
321.659 248.427 85.1609 285.59 249.301 85.9328 293.701 250.606 84.8253 
303.157 250.303 85.3183 312.004 249.648 86.0359 311.787 249.73 86.467 
303.536 250.782 85.4511 304.484 251.059 85.9021 315.621 250.432 86.3769 
305.614 252.378 86.6497 317.169 250.546 86.6076 305.764 253.172 86.5289 
306.046 258.34 86.6887 288.338 262.232 85.7302 305.387 261.321 86.3986 
288.059 266.255 86.0106 289.347 269.356 86.1556 291.316 270.665 86.2645 
267.767 222.165 87.0975 289.477 225.19 86.6577 325.541 225.357 87.331 
275.978 229.459 85.991 334.576 230.434 87.9362 335.775 231.57 88.3146 
274.748 233.541 85.7807 335.354 234.723 87.9418 266.732 236.366 87.1371 
304.008 249.644 85.4531 305.717 249.585 86.2617 304.843 250.207 86.1013 
305.701 250.357 87.1143 306.533 249.797 87.469 307.589 249.456 87.2314 
310.172 249.615 87.5631 320.84 249.208 86.2577 305.301 251.109 86.7492 
319.405 249.987 86.9938 306.103 252.876 87.484 316.954 250.564 87.0944 
288.819 252.812 86.5314 305.998 261.137 87.358 304.512 265.45 87.1856 
301.169 269.265 86.955 294.244 272.193 87.3284 308.865 221.406 88.2359 
263.834 224.087 87.6593 276.654 224.603 86.8395 327.475 226.305 87.7769 
333.789 229.669 88.1804 335.296 230.714 88.3662 336.588 233.45 89.1601 
326.053 245.685 87.1271 306.028 250.379 88.215 306.5 249.899 88.7809 
287.159 251.321 86.6853 290.68 251.487 85.728 305.738 251.129 87.9111 
305.871 251.993 88.3017 310.694 249.707 88.0972 314.642 250.402 87.6542 
306.383 260.367 87.9757 284.516 262.296 87.6962 305.464 264.744 88.9091 
298.67 271.494 87.756 299.73 271.088 87.9868 297.159 272.467 88.3078 
278.693 218.789 89.0291 261.943 222.219 88.9985 289.515 222.862 88.4619 
262.096 226.661 88.1322 331.492 228.257 89.4799 336.584 231.656 89.9355 
336.909 232.75 89.7319 336.015 235.119 89.0652 272.165 247.641 89.0729 
305.959 250.302 89.043 305.924 249.99 89.6694 307.176 249.554 89.2295 
305.698 250.843 88.9848 314.077 250.108 88.5672 317.761 250.119 88.7227 
284.575 272.681 89.3504 294.855 273.634 89.1911 289.23 274.113 89.3384 
273.778 216.542 89.9685 277.278 216.898 90.0901 280 217.277 90.3908 
264.021 218.692 89.9658 281.207 218.238 89.9714 259.14 224.511 89.9271 
325.665 246.75 89.4767 305.337 250.239 90.1217 306.085 249.562 90.2188 
320.499 249.349 88.764 305.175 250.876 90.0464 306.608 258.263 89.4728 
306.526 260.259 89.4459 303.526 268.502 89.3009 301.832 270.482 89.8091 
298.951 272.564 89.8759 297.139 273.494 90.1463 290.874 274.716 90.0558 
292.567 274.707 90.314 274.913 215.746 91.0407 274.654 215.365 91.7334 
277.336 215.601 91.6448 267.538 216.352 91.2055 277.682 215.843 91.3358 
281.641 216.681 91.5319 261.244 219.253 91.5087 287.471 219.287 91.2123 
295.344 221.611 90.2193 297.023 221.288 90.6469 330.262 227.933 91.4223 
334.877 230.171 91.5019 337.035 235.751 91.7175 331.16 243.492 90.7488 
325.356 246.891 90.8855 270.514 249.281 90.9455 303.611 249.427 91.6561 
307.316 249.017 90.5488 308.788 248.616 91.0284 310.305 249.047 90.3278 
311.855 248.733 91.0438 313.373 249.178 90.5695 304.505 250.086 90.9507 
302.492 250.468 91.9646 280.274 253.148 90.0811 305.658 254.095 90.4356 
306.047 257.303 90.7496 306.204 258.963 90.6325 305.192 266.128 90.8989 
280.171 269.942 90.4579 279.635 272.004 91.1928 297.756 273.465 90.9052 
295.822 274.197 91.2518 284.792 275.375 91.3438 290.313 275.778 91.8207 
268.218 215.54 92.5914 275.407 215.133 92.4327 262.861 217.834 92.4073 
256.921 221.765 92.457 256.001 223.165 92.1641 336.412 231.496 91.6596 
329.347 245.098 90.9312 322.903 247.597 91.229 325.204 246.803 91.6866 
295.278 248.945 93.9505 296.105 248.543 93.7681 297.403 248.935 93.409 
298.159 248.499 93.304 298.885 249.634 93.0397 303.391 251.331 91.6984 
278.98 254.364 91.2551 304.408 253.959 91.8909 277.999 262.838 91.2854 
305.45 265.288 91.5352 286.173 276.432 92.542 281.22 215.624 93.011 
288.39 218.118 92.9234 291.414 218.766 93.2914 257.833 220.105 94.0081 
306.286 219.869 93.892 253.243 225.944 93.2726 324.57 225.727 92.5771 
336.637 232.163 92.7465 337.378 234.531 93.4677 324.114 246.72 92.4983 
326.877 246.02 93.2717 298.532 247.996 93.4212 312.817 247.802 92.2089 
266.262 249.037 92.9563 291.99 248.772 94.9656 291.457 248.908 95.1666 
291.457 248.505 95.2161 293.173 248.502 94.635 293.022 249.223 94.7098 
297.44 250.021 93.6115 296.916 250.252 93.8991 305.328 257.611 91.9163 
305.124 264.802 92.6449 304.564 267.122 92.3538 301.603 270.908 92.9724 
297.862 273.531 92.2917 279.047 275.621 93.5966 293.394 275.292 93.1176 
282.416 276.883 93.7122 287.517 276.695 93.1749 269.545 215.076 94.4517 
273.06 214.827 94.1094 275.986 214.861 93.9644 288.177 217.415 93.9459 
261.557 218.135 94.4758 290.596 218.185 93.7932 258.632 219.58 94.3737 
254.643 221.881 94.2112 301.648 219.746 93.1251 253.042 223.137 94.6008 
252.558 229.384 93.9427 336.389 232.291 93.8057 334.871 241.288 93.8787 
260.09 243.064 93.2309 304.887 245.744 94.1562 312.098 246.101 93.6507 
315.506 245.492 94.0972 330.786 244.942 93.2545 329.405 245.445 93.5411 
289.514 248.975 95.9521 292.072 248.067 95.1628 275.274 253.37 93.1329 
302.449 255.938 94.1287 299.046 272.766 93.2949 288.501 276.772 93.7731 
280.387 215.171 94.6644 258.674 219.435 94.9944 293.125 218.26 94.6693 
253.956 221.865 95.7953 253.377 222.303 95.5909 251.942 223.443 96.0488 
251.611 223.954 95.824 251.552 224.503 95.3673 251.258 225.39 95.1859 
337.399 235.706 95.3647 335.455 240.853 94.7448 311.608 243.621 95.2369 
333.414 243.136 94.2651 325.197 245.157 94.8704 326.966 245.465 94.6729 
292.628 247.543 95.2809 287.595 249.026 96.8696 289.834 249.479 95.971 
266.02 251.702 95.379 274.776 253.965 94.1556 275.359 254.685 94.135 
274.831 255.505 94.6994 274.648 255.913 94.8184 302.558 259.576 95.2647 
273.154 267.064 94.5654 301.345 270.444 94.7519 287.427 277.303 95.267 
285.098 277.81 95.5612 267.627 215.618 95.4282 273.657 214.944 95.6179 
276.578 214.951 95.498 266.098 216.149 95.156 284.888 216.182 96.3982 
294.838 217.837 95.9955 259.56 219.15 96.3237 303.425 218.884 95.4294 
305.426 219.064 96.2185 253.932 221.788 96.4749 332.065 230.485 95.7083 
336.34 233.335 95.7321 336.645 239.234 95.8149 335.11 241.54 95.9038 
331.001 244.735 95.1015 329.223 245.238 95.0388 289.365 247.599 96.576 
286.234 248.899 97.5498 285.721 248.644 97.9481 288.457 247.966 96.808 
288.697 249.691 96.5885 274.361 254.924 95.1216 274.012 255.25 95.4716 
302.295 269.06 94.8337 295.236 274.234 95.4366 289.488 276.659 95.436 
281.916 278.35 96.8433 283.993 278.084 96.4238 273.439 215.131 96.3488 
279.879 215.415 96.6625 268.424 215.783 96.5492 284.383 216.109 96.6685 
293.089 217.263 96.7742 302.645 217.992 97.4007 305.806 219.127 96.5321 
256.725 220.514 96.8234 253.846 221.84 96.9315 250.475 224.936 97.1735 
249.235 226.867 97.1878 249.11 226.694 97.7176 248.642 227.878 97.5905 
248.399 229.37 97.4803 249.513 233.416 97.0992 336.416 234.372 97.1076 
337.161 237.947 96.8174 319.079 241.176 96.8997 335.891 240.43 96.3173 
327.127 243.718 96.9295 284.926 249.536 98.2326 267.557 253.939 97.6258 
271.922 254.505 96.5599 272.716 254.33 96.1161 273.394 254.288 95.6112 
273.457 254.618 96.0088 273.276 254.782 96.2797 272.908 255.115 96.4623 
301.706 266.092 96.8161 279.188 278.351 97.3485 282.084 278.568 97.5296 
271.581 215.392 96.8977 293.319 217.077 97.4973 294.851 217.229 97.5185 
301.054 217.469 98.1981 256.886 220.618 97.3482 253.994 221.831 97.2782 
309.31 220.74 97.8545 252.443 222.966 97.6284 251.332 223.871 97.6875 
249.944 225.515 98.2612 249.466 226.1 98.1503 248.362 227.818 98.183 
247.77 230.008 98.2441 248.042 231.517 97.9742 336.125 234.208 97.4227 
309.6 237.834 98.2794 335.19 241.317 97.0363 253.181 243.201 98.1475 
334.269 242.333 96.6728 334.869 241.597 97.2721 333.309 242.632 97.5456 
[...]
POINT_DATA 1735
COLOR_SCALARS scalars 3
0.615686 0.905882 0.611765 0.615686 0.905882 0.611765 0.615686 0.905882 0.611765 
0.615686 0.905882 0.611765 0.615686 0.905882 0.611765 
0.615686 0.905882 0.611765 0.615686 0.905882 0.611765 
0.615686 0.905882 0.611765 0.615686 0.905882 0.611765 
0.615686 0.905882 0.611765 0.615686 0.905882 0.611765 
0.615686 0.905882 0.611765 0.615686 0.905882 0.611765 
0.615686 0.905882 0.611765 0.615686 0.905882 0.611765 
0.615686 0.905882 0.611765 0.615686 0.905882 0.611765 
0.615686 0.905882 0.611765 0.615686 0.905882 0.611765 
0.615686 0.905882 0.611765 0.615686 0.905882 0.611765 
0.615686 0.905882 0.611765 0.615686 0.905882 0.611765 
0.615686 0.905882 0.611765 0.615686 0.905882 0.611765 
0.615686 0.905882 0.611765 0.615686 0.905882 0.611765 
0.615686 0.905882 0.611765 0.615686 0.905882 0.611765 
0.615686 0.905882 0.611765 0.615686 0.905882 0.611765 
0.615686 0.905882 0.611765 0.615686 0.905882 0.611765 
0.615686 0.905882 0.611765 0.615686 0.905882 0.611765 
0.615686 0.905882 0.611765 0.615686 0.905882 0.611765 
0.615686 0.905882 0.611765 0.615686 0.905882 0.611765 
0.615686 0.905882 0.611765 0.615686 0.905882 0.611765 
0.615686 0.905882 0.611765 0.615686 0.905882 0.611765 
0.615686 0.905882 0.611765 0.615686 0.905882 0.611765 
0.615686 0.905882 0.611765 0.615686 0.905882 0.611765 
0.615686 0.905882 0.611765 0.615686 0.905882 0.611765 
0.615686 0.905882 0.611765 0.615686 0.905882 0.611765 
0.615686 0.905882 0.611765 0.615686 0.905882 0.611765 
0.615686 0.905882 0.611765 0.615686 0.905882 0.611765 
0.615686 0.905882 0.611765 0.615686 0.905882 0.611765 
0.615686 0.905882 0.611765 0.615686 0.905882 0.611765 
0.615686 0.905882 0.611765 0.615686 0.905882 0.611765 
0.615686 0.905882 0.611765 0.615686 0.905882 0.611765 
0.615686 0.905882 0.611765 0.615686 0.905882 0.611765 
0.615686 0.905882 0.611765 0.615686 0.905882 0.611765 
0.615686 0.905882 0.611765 0.615686 0.905882 0.611765 
0.615686 0.905882 0.611765 0.615686 0.905882 0.611765 
0.615686 0.905882 0.611765 0.615686 0.905882 0.611765 
0.615686 0.905882 0.611765 0.615686 0.905882 0.611765 
0.615686 0.905882 0.611765 0.615686 0.905882 0.611765 
0.615686 0.905882 0.611765 0.615686 0.905882 0.611765 
0.615686 0.905882 0.611765 0.615686 0.905882 0.611765 
0.615686 0.905882 0.611765 0.615686 0.905882 0.611765 
0.615686 0.905882 0.611765 0.615686 0.905882 0.611765 
0.615686 0.905882 0.611765 0.615686 0.905882 0.611765 
0.615686 0.905882 0.611765 0.615686 0.905882 0.611765 
0.615686 0.905882 0.611765 0.615686 0.905882 0.611765 
0.615686 0.905882 0.611765 0.615686 0.905882 0.611765 
0.615686 0.905882 0.611765 0.615686 0.905882 0.611765 
0.615686 0.905882 0.611765 0.615686 0.905882 0.611765 
0.615686 0.905882 0.611765 0.615686 0.905882 0.611765 
0.615686 0.905882 0.611765 0.615686 0.905882 0.611765 
0.615686 0.905882 0.611765 0.615686 0.905882 0.611765 
0.615686 0.905882 0.611765 0.615686 0.905882 0.611765 
0.615686 0.905882 0.611765 0.615686 0.905882 0.611765 
0.615686 0.905882 0.611765 0.615686 0.905882 0.611765 
0.615686 0.905882 0.611765 0.615686 0.905882 0.611765 
0.615686 0.905882 0.611765 0.615686 0.905882 0.611765 
0.615686 0.905882 0.611765 0.615686 0.905882 0.611765 
0.615686 0.905882 0.611765 0.615686 0.905882 0.611765 
0.615686 0.905882 0.611765 0.615686 0.905882 0.611765 
0.615686 0.905882 0.611765 0.615686 0.905882 0.611765 
0.615686 0.905882 0.611765 0.615686 0.905882 0.611765 
0.615686 0.905882 0.611765 0.615686 0.905882 0.611765 
0.615686 0.905882 0.611765 0.615686 0.905882 0.611765 
0.615686 0.905882 0.611765 0.615686 0.905882 0.611765 
0.615686 0.905882 0.611765 0.615686 0.905882 0.611765 
0.615686 0.905882 0.611765 0.615686 0.905882 0.611765 
0.615686 0.905882 0.611765 0.615686 0.905882 0.611765 
0.615686 0.905882 0.611765 0.615686 0.905882 0.611765 
0.615686 0.905882 0.611765 0.615686 0.905882 0.611765 
0.615686 0.905882 0.611765 0.615686 0.905882 0.611765 
0.615686 0.905882 0.611765 0.615686 0.905882 0.611765 
0.615686 0.905882 0.611765 0.615686 0.905882 0.611765 
0.615686 0.905882 0.611765 0.615686 0.905882 0.611765 
0.615686 0.905882 0.611765 0.615686 0.905882 0.611765 
0.615686 0.905882 0.611765 0.615686 0.905882 0.611765 
0.615686 0.905882 0.611765 0.615686 0.905882 0.611765 
0.615686 0.905882 0.611765 0.615686 0.905882 0.611765 
0.615686 0.905882 0.611765 0.615686 0.905882 0.611765 
0.615686 0.905882 0.611765 0.615686 0.905882 0.611765 
0.615686 0.905882 0.611765 0.615686 0.905882 0.611765 
0.615686 0.905882 0.611765 0.615686 0.905882 0.611765 
0.615686 0.905882 0.611765 0.615686 0.905882 0.611765 
0.615686 0.905882 0.611765 0.615686 0.905882 0.611765 
0.615686 0.905882 0.611765 0.615686 0.905882 0.611765 
0.615686 0.905882 0.611765 0.615686 0.905882 0.611765 
0.615686 0.905882 0.611765 0.615686 0.905882 0.611765 
0.615686 0.905882 0.611765 0.615686 0.905882 0.611765 
0.615686 0.905882 0.611765 0.615686 0.905882 0.611765 
0.615686 0.905882 0.611765 0.615686 0.905882 0.611765 
0.615686 0.905882 0.611765 0.615686 0.905882 0.611765 
0.615686 0.905882 0.611765 0.615686 0.905882 0.611765 
0.615686 0.905882 0.611765 0.615686 0.905882 0.611765 
0.615686 0.905882 0.611765 0.615686 0.905882 0.611765 
0.615686 0.905882 0.611765 0.615686 0.905882 0.611765 
0.615686 0.905882 0.611765 0.615686 0.905882 0.611765 
0.615686 0.905882 0.611765 0.615686 0.905882 0.611765 
0.615686 0.905882 0.611765 0.615686 0.905882 0.611765 
0.615686 0.905882 0.611765 0.615686 0.905882 0.611765 
0.615686 0.905882 0.611765 0.615686 0.905882 0.611765 
0.615686 0.905882 0.611765 0.615686 0.905882 0.611765 
0.615686 0.905882 0.611765 0.615686 0.905882 0.611765 
0.615686 0.905882 0.611765 0.615686 0.905882 0.611765 
0.615686 0.905882 0.611765 0.615686 0.905882 0.611765 
0.615686 0.905882 0.611765 0.615686 0.905882 0.611765 
0.615686 0.905882 0.611765 0.615686 0.905882 0.611765 
0.615686 0.905882 0.611765 0.615686 0.905882 0.611765 
0.615686 0.905882 0.611765 0.615686 0.905882 0.611765 
0.615686 0.905882 0.611765 0.615686 0.905882 0.611765 
0.615686 0.905882 0.611765 0.615686 0.905882 0.611765 
0.615686 0.905882 0.611765 0.615686 0.905882 0.611765 
0.615686 0.905882 0.611765 0.615686 0.905882 0.611765 
0.615686 0.905882 0.611765 0.615686 0.905882 0.611765 
0.615686 0.905882 0.611765 0.615686 0.905882 0.611765 
0.615686 0.905882 0.611765 0.615686 0.905882 0.611765 
0.615686 0.905882 0.611765 0.615686 0.905882 0.611765 
0.615686 0.905882 0.611765 0.615686 0.905882 0.611765 
0.615686 0.905882 0.611765 0.615686 0.905882 0.611765 
0.615686 0.905882 0.611765 0.615686 0.905882 0.611765 
0.615686 0.905882 0.611765 0.615686 0.905882 0.611765 
0.615686 0.905882 0.611765 0.615686 0.905882 0.611765 
0.615686 0.905882 0.611765 0.615686 0.905882 0.611765 
0.615686 0.905882 0.611765 0.615686 0.905882 0.611765 
0.615686 0.905882 0.611765 0.615686 0.905882 0.611765 
0.615686 0.905882 0.611765 0.615686 0.905882 0.611765 
0.615686 0.905882 0.611765 0.615686 0.905882 0.611765 
0.615686 0.905882 0.611765 0.615686 0.905882 0.611765 
0.615686 0.905882 0.611765 0.615686 0.905882 0.611765 
0.615686 0.905882 0.611765 0.615686 0.905882 0.611765 
0.615686 0.905882 0.611765 0.615686 0.905882 0.611765 
0.615686 0.905882 0.611765 0.615686 0.905882 0.611765 
0.615686 0.905882 0.611765 0.615686 0.905882 0.611765 
0.615686 0.905882 0.611765 0.615686 0.905882 0.611765 
0.615686 0.905882 0.611765 0.615686 0.905882 0.611765 
0.615686 0.905882 0.611765 0.615686 0.905882 0.611765 
0.615686 0.905882 0.611765 0.615686 0.905882 0.611765 
0.615686 0.905882 0.611765 0.615686 0.905882 0.611765 
0.615686 0.905882 0.611765 0.615686 0.905882 0.611765 
0.615686 0.905882 0.611765 0.615686 0.905882 0.611765 
0.615686 0.905882 0.611765 0.615686 0.905882 0.611765 
0.615686 0.905882 0.611765 0.615686 0.905882 0.611765 
0.615686 0.905882 0.611765 0.615686 0.905882 0.611765 
0.615686 0.905882 0.611765 0.615686 0.905882 0.611765 
0.615686 0.905882 0.611765 0.615686 0.905882 0.611765 
0.615686 0.905882 0.611765 0.615686 0.905882 0.611765 
0.615686 0.905882 0.611765 0.615686 0.905882 0.611765 
0.615686 0.905882 0.611765 0.615686 0.905882 0.611765 
0.615686 0.905882 0.611765 0.615686 0.905882 0.611765 
0.615686 0.905882 0.611765 0.615686 0.905882 0.611765 
0.615686 0.905882 0.611765 0.615686 0.905882 0.611765 
0.615686 0.905882 0.611765 0.615686 0.905882 0.611765 
0.615686 0.905882 0.611765 0.615686 0.905882 0.611765 
0.615686 0.905882 0.611765 0.615686 0.905882 0.611765 
0.615686 0.905882 0.611765 0.615686 0.905882 0.611765 
0.615686 0.905882 0.611765 0.615686 0.905882 0.611765 
0.615686 0.905882 0.611765 0.615686 0.905882 0.611765 
0.615686 0.905882 0.611765 0.615686 0.905882 0.611765 
0.615686 0.905882 0.611765 0.615686 0.905882 0.611765 
0.615686 0.905882 0.611765 0.615686 0.905882 0.611765 
0.615686 0.905882 0.611765 0.615686 0.905882 0.611765 
0.615686 0.905882 0.611765 0.615686 0.905882 0.611765 
0.615686 0.905882 0.611765 0.615686 0.905882 0.611765 
0.615686 0.905882 0.611765 0.615686 0.905882 0.611765 
0.615686 0.905882 0.611765 0.615686 0.905882 0.611765 
0.615686 0.905882 0.611765 0.615686 0.905882 0.611765 
0.615686 0.905882 0.611765 0.615686 0.905882 0.611765 
0.615686 0.905882 0.611765 0.615686 0.905882 0.611765 
0.615686 0.905882 0.611765 0.615686 0.905882 0.611765 
0.615686 0.905882 0.611765 0.615686 0.905882 0.611765 
0.615686 0.905882 0.611765 0.615686 0.905882 0.611765 
0.615686 0.905882 0.611765 0.615686 0.905882 0.611765 
0.615686 0.905882 0.611765 0.615686 0.905882 0.611765 
0.615686 0.905882 0.611765 0.615686 0.905882 0.611765 
0.615686 0.905882 0.611765 0.615686 0.905882 0.611765 
0.615686 0.905882 0.611765 0.615686 0.905882 0.611765 
0.615686 0.905882 0.611765 0.615686 0.905882 0.611765 
0.615686 0.905882 0.611765 0.615686 0.905882 0.611765 
0.615686 0.905882 0.611765 0.615686 0.905882 0.611765 
0.615686 0.905882 0.611765 0.615686 0.905882 0.611765 
0.615686 0.905882 0.611765 0.615686 0.905882 0.611765 
0.615686 0.905882 0.611765 0.615686 0.905882 0.611765 
0.615686 0.905882 0.611765 0.615686 0.905882 0.611765 
0.615686 0.905882 0.611765 0.615686 0.905882 0.611765 
0.615686 0.905882 0.611765 0.615686 0.905882 0.611765 
0.615686 0.905882 0.611765 0.615686 0.905882 0.611765 
0.615686 0.905882 0.611765 0.615686 0.905882 0.611765 
0.615686 0.905882 0.611765 0.615686 0.905882 0.611765 
0.615686 0.905882 0.611765 0.615686 0.905882 0.611765 
0.615686 0.905882 0.611765 0.615686 0.905882 0.611765 
0.615686 0.905882 0.611765 0.615686 0.905882 0.611765 
0.615686 0.905882 0.611765 0.615686 0.905882 0.611765 
0.615686 0.905882 0.611765 0.615686 0.905882 0.611765 
0.615686 0.905882 0.611765 0.615686 0.905882 0.611765 
0.615686 0.905882 0.611765 0.615686 0.905882 0.611765 
0.615686 0.905882 0.611765 0.615686 0.905882 0.611765 
0.615686 0.905882 0.611765 0.615686 0.905882 0.611765 
0.615686 0.905882 0.611765 0.615686 0.905882 0.611765 
0.615686 0.905882 0.611765 0.615686 0.905882 0.611765 
0.615686 0.905882 0.611765 0.615686 0.905882 0.611765 
0.615686 0.905882 0.611765 0.615686 0.905882 0.611765 
0.615686 0.905882 0.611765 0.615686 0.905882 0.611765 
0.615686 0.905882 0.611765 0.615686 0.905882 0.611765 
0.615686 0.905882 0.611765 0.615686 0.905882 0.611765 
0.615686 0.905882 0.611765 0.615686 0.905882 0.611765 
0.615686 0.905882 0.611765 0.615686 0.905882 0.611765 
0.615686 0.905882 0.611765 0.615686 0.905882 0.611765 
0.615686 0.905882 0.611765 0.615686 0.905882 0.611765 
0.615686 0.905882 0.611765 0.615686 0.905882 0.611765 
0.615686 0.905882 0.611765 0.615686 0.905882 0.611765 
0.615686 0.905882 0.611765 0.615686 0.905882 0.611765 
0.615686 0.905882 0.611765 0.615686 0.905882 0.611765 
0.615686 0.905882 0.611765 0.615686 0.905882 0.611765 
0.615686 0.905882 0.611765 0.615686 0.905882 0.611765 
0.615686 0.905882 0.611765 0.615686 0.905882 0.611765 
0.615686 0.905882 0.611765 0.615686 0.905882 0.611765 
0.615686 0.905882 0.611765 0.615686 0.905882 0.611765 
0.615686 0.905882 0.611765 0.615686 0.905882 0.611765 
0.615686 0.905882 0.611765 0.615686 0.905882 0.611765 
0.615686 0.905882 0.611765 0.615686 0.905882 0.611765 
0.615686 0.905882 0.611765 0.615686 0.905882 0.611765 
0.615686 0.905882 0.611765 0.615686 0.905882 0.611765 
0.615686 0.905882 0.611765 0.615686 0.905882 0.611765 
0.615686 0.905882 0.611765 0.615686 0.905882 0.611765 
0.615686 0.905882 0.611765 0.615686 0.905882 0.611765 
0.615686 0.905882 0.611765 0.615686 0.905882 0.611765 
0.615686 0.905882 0.611765 0.615686 0.905882 0.611765 
0.615686 0.905882 0.611765 0.615686 0.905882 0.611765 
0.615686 0.905882 0.611765 0.615686 0.905882 0.611765 
0.615686 0.905882 0.611765 0.615686 0.905882 0.611765 
0.615686 0.905882 0.611765 0.615686 0.905882 0.611765 
0.615686 0.905882 0.611765 0.615686 0.905882 0.611765 
0.615686 0.905882 0.611765 0.615686 0.905882 0.611765 
0.615686 0.905882 0.611765 0.615686 0.905882 0.611765 
0.615686 0.905882 0.611765 0.615686 0.905882 0.611765 
0.615686 0.905882 0.611765 0.615686 0.905882 0.611765 
0.615686 0.905882 0.611765 0.615686 0.905882 0.611765 
0.615686 0.905882 0.611765 0.615686 0.905882 0.611765 
0.615686 0.905882 0.611765 0.615686 0.905882 0.611765 
0.615686 0.905882 0.611765 0.615686 0.905882 0.611765 
0.615686 0.905882 0.611765 0.615686 0.905882 0.611765 
0.615686 0.905882 0.611765 0.615686 0.905882 0.611765 
0.615686 0.905882 0.611765 0.615686 0.905882 0.611765 
0.615686 0.905882 0.611765 0.615686 0.905882 0.611765 
0.615686 0.905882 0.611765 0.615686 0.905882 0.611765 
0.615686 0.905882 0.611765 0.615686 0.905882 0.611765 
0.615686 0.905882 0.611765 0.615686 0.905882 0.611765 
0.615686 0.905882 0.611765 0.615686 0.905882 0.611765 
0.615686 0.905882 0.611765 0.615686 0.905882 0.611765 
0.615686 0.905882 0.611765 0.615686 0.905882 0.611765 
0.615686 0.905882 0.611765 0.615686 0.905882 0.611765 
0.615686 0.905882 0.611765 0.615686 0.905882 0.611765 
0.615686 0.905882 0.611765 0.615686 0.905882 0.611765 
0.615686 0.905882 0.611765 0.615686 0.905882 0.611765 
0.615686 0.905882 0.611765 0.615686 0.905882 0.611765 
0.615686 0.905882 0.611765 0.615686 0.905882 0.611765 
0.615686 0.905882 0.611765 0.615686 0.905882 0.611765 
0.615686 0.905882 0.611765 0.615686 0.905882 0.611765 
0.615686 0.905882 0.611765 0.615686 0.905882 0.611765 
0.615686 0.905882 0.611765 0.615686 0.905882 0.611765 
0.615686 0.905882 0.611765 0.615686 0.905882 0.611765 
0.615686 0.905882 0.611765 0.615686 0.905882 0.611765 
0.615686 0.905882 0.611765 0.615686 0.905882 0.611765 
0.615686 0.905882 0.611765 0.615686 0.905882 0.611765 
0.615686 0.905882 0.611765 0.615686 0.905882 0.611765 
0.615686 0.905882 0.611765 0.615686 0.905882 0.611765 
0.615686 0.905882 0.611765 0.615686 0.905882 0.611765 
0.615686 0.905882 0.611765 0.615686 0.905882 0.611765 
0.615686 0.905882 0.611765 0.615686 0.905882 0.611765 
0.615686 0.905882 0.611765 0.615686 0.905882 0.611765 
0.615686 0.905882 0.611765 0.615686 0.905882 0.611765 
0.615686 0.905882 0.611765 0.615686 0.905882 0.611765 
0.615686 0.905882 0.611765 0.615686 0.905882 0.611765 
0.615686 0.905882 0.611765 0.615686 0.905882 0.611765 
0.615686 0.905882 0.611765 0.615686 0.905882 0.611765 
0.615686 0.905882 0.611765 0.615686 0.905882 0.611765 
0.615686 0.905882 0.611765 0.615686 0.905882 0.611765 
0.615686 0.905882 0.611765 0.615686 0.905882 0.611765 
0.615686 0.905882 0.611765 0.615686 0.905882 0.611765 
0.615686 0.905882 0.611765 0.615686 0.905882 0.611765 
0.615686 0.905882 0.611765 0.615686 0.905882 0.611765 
0.615686 0.905882 0.611765 0.615686 0.905882 0.611765 
0.615686 0.905882 0.611765 0.615686 0.905882 0.611765 
0.615686 0.905882 0.611765 0.615686 0.905882 0.611765 
0.615686 0.905882 0.611765 0.615686 0.905882 0.611765 
0.615686 0.905882 0.611765 0.615686 0.905882 0.611765 
0.615686 0.905882 0.611765 0.615686 0.905882 0.611765 
0.615686 0.905882 0.611765 0.615686 0.905882 0.611765 
0.615686 0.905882 0.611765 0.615686 0.905882 0.611765 
0.615686 0.905882 0.611765 0.615686 0.905882 0.611765 
0.615686 0.905882 0.611765 0.615686 0.905882 0.611765 
0.615686 0.905882 0.611765 0.615686 0.905882 0.611765 
0.615686 0.905882 0.611765 0.615686 0.905882 0.611765 
0.615686 0.905882 0.611765 0.615686 0.905882 0.611765 
0.615686 0.905882 0.611765 0.615686 0.905882 0.611765 
0.615686 0.905882 0.611765 0.615686 0.905882 0.611765 
0.615686 0.905882 0.611765 0.615686 0.905882 0.611765 
0.615686 0.905882 0.611765 0.615686 0.905882 0.611765 
0.615686 0.905882 0.611765 0.615686 0.905882 0.611765 
0.615686 0.905882 0.611765 0.615686 0.905882 0.611765 
0.615686 0.905882 0.611765 0.615686 0.905882 0.611765 
0.615686 0.905882 0.611765 0.615686 0.905882 0.611765 
0.615686 0.905882 0.611765 0.615686 0.905882 0.611765 
0.615686 0.905882 0.611765 0.615686 0.905882 0.611765 
0.615686 0.905882 0.611765 0.615686 0.905882 0.611765 
0.615686 0.905882 0.611765 0.615686 0.905882 0.611765 
0.615686 0.905882 0.611765 0.615686 0.905882 0.611765 
0.615686 0.905882 0.611765 0.615686 0.905882 0.611765 
0.615686 0.905882 0.611765 0.615686 0.905882 0.611765 
0.615686 0.905882 0.611765 0.615686 0.905882 0.611765 
0.615686 0.905882 0.611765 0.615686 0.905882 0.611765 
0.615686 0.905882 0.611765 0.615686 0.905882 0.611765 
0.615686 0.905882 0.611765 0.615686 0.905882 0.611765 
0.615686 0.905882 0.611765 0.615686 0.905882 0.611765 
0.615686 0.905882 0.611765 0.615686 0.905882 0.611765 
0.615686 0.905882 0.611765 0.615686 0.905882 0.611765 
0.615686 0.905882 0.611765 0.615686 0.905882 0.611765 
0.615686 0.905882 0.611765 0.615686 0.905882 0.611765 
0.615686 0.905882 0.611765 0.615686 0.905882 0.611765 
0.615686 0.905882 0.611765 0.615686 0.905882 0.611765 
0.615686 0.905882 0.611765 0.615686 0.905882 0.611765 
0.615686 0.905882 0.611765 0.615686 0.905882 0.611765 
0.615686 0.905882 0.611765 0.615686 0.905882 0.611765 
0.615686 0.905882 0.611765 0.615686 0.905882 0.611765 
0.615686 0.905882 0.611765 0.615686 0.905882 0.611765 
0.615686 0.905882 0.611765 0.615686 0.905882 0.611765 
0.615686 0.905882 0.611765 0.615686 0.905882 0.611765 
0.615686 0.905882 0.611765 0.615686 0.905882 0.611765 
0.615686 0.905882 0.611765 0.615686 0.905882 0.611765 
0.615686 0.905882 0.611765 0.615686 0.905882 0.611765 
0.615686 0.905882 0.611765 0.615686 0.905882 0.611765 
0.615686 0.905882 0.611765 0.615686 0.905882 0.611765 
0.615686 0.905882 0.611765 0.615686 0.905882 0.611765 
0.615686 0.905882 0.611765 0.615686 0.905882 0.611765 
0.615686 0.905882 0.611765 0.615686 0.905882 0.611765 
0.615686 0.905882 0.611765 0.615686 0.905882 0.611765 
0.615686 0.905882 0.611765 0.615686 0.905882 0.611765 
0.615686 0.905882 0.611765 0.615686 0.905882 0.611765 
0.615686 0.905882 0.611765 0.615686 0.905882 0.611765 
0.615686 0.905882 0.611765 0.615686 0.905882 0.611765 
0.615686 0.905882 0.611765 0.615686 0.905882 0.611765 
0.615686 0.905882 0.611765 0.615686 0.905882 0.611765 
0.615686 0.905882 0.611765 0.615686 0.905882 0.611765 
0.615686 0.905882 0.611765 0.615686 0.905882 0.611765 
0.615686 0.905882 0.611765 0.615686 0.905882 0.611765 
0.615686 0.905882 0.611765 0.615686 0.905882 0.611765 
0.615686 0.905882 0.611765 0.615686 0.905882 0.611765 
0.615686 0.905882 0.611765 0.615686 0.905882 0.611765 
0.615686 0.905882 0.611765 0.615686 0.905882 0.611765 
0.615686 0.905882 0.611765 0.615686 0.905882 0.611765 
0.615686 0.905882 0.611765 0.615686 0.905882 0.611765 
0.615686 0.905882 0.611765 0.615686 0.905882 0.611765 
0.615686 0.905882 0.611765 0.615686 0.905882 0.611765 
0.615686 0.905882 0.611765 0.615686 0.905882 0.611765 
0.615686 0.905882 0.611765 0.615686 0.905882 0.611765 
0.615686 0.905882 0.611765 0.615686 0.905882 0.611765 
0.615686 0.905882 0.611765 0.615686 0.905882 0.611765 
0.615686 0.905882 0.611765 0.615686 0.905882 0.611765 
0.615686 0.905882 0.611765 0.615686 0.905882 0.611765 
0.615686 0.905882 0.611765 0.615686 0.905882 0.611765 
0.615686 0.905882 0.611765 0.615686 0.905882 0.611765 
0.615686 0.905882 0.611765 0.615686 0.905882 0.611765 
0.615686 0.905882 0.611765 0.615686 0.905882 0.611765 
0.615686 0.905882 0.611765 0.615686 0.905882 0.611765 