# vtk DataFile Version 4.2
vtk output
ASCII
DATASET POLYDATA
POINTS 842 float
267.748 222.161 87.1229 268.371 226.339 86.4832 272.738 230.373 87.2037 
264.967 233.083 87.2603 271.381 232.617 86.7351 272.701 232.215 87.2243 
270.604 238.627 87.0215 272.24 243.019 87.9278 263.569 222.715 88.0557 
274.229 223.252 87.9438 273.933 229.208 87.928 266.072 236.145 87.3664 
273.798 233.837 88.1094 272.622 244.649 88.4304 273.233 244.495 88.5597 
273.219 245.217 88.6547 273.66 244.848 88.7401 273.611 245.203 88.6081 
273.582 245.541 89.0256 273.84 245.678 88.6535 273.737 245.567 88.6247 
273.84 245.554 88.5791 273.915 245.747 88.5426 273.937 245.744 88.5542 
273.914 245.721 88.5285 273.962 245.781 88.5109 266.046 218.247 89.4035 
276.347 217.804 89.4505 263.697 219.83 89.2326 278.115 219.144 89.3684 
273.787 245.061 88.9478 271.074 246.782 89.6265 273.081 245.985 89.3805 
273.849 245.555 88.6817 273.618 245.93 89.9685 273.935 245.717 88.5411 
275 250.009 89.0174 275 250.009 89.0175 275 250.009 89.0175 
275 250.009 89.0175 275 250.009 89.0175 273.314 216.062 90.5233 
275.157 216.541 90.1175 279.891 217.427 90.5538 280.206 222.032 89.7192 
260.018 222.557 89.9944 280.315 222.878 89.8449 259.14 224.511 89.9271 
272.001 248.655 90.7597 272.344 248.795 90.9192 272.697 248.666 91.0395 
273.184 248.634 91.5373 275 250.009 89.0175 272.776 248.967 91.319 
275.004 251.013 90.0087 275.004 251.013 90.0087 275.004 251.013 90.0087 
275.004 251.013 90.0088 275.004 251.013 90.0088 271.973 215.645 91.1892 
274.642 215.37 91.7427 267.096 216.125 91.88 281.177 216.445 91.7987 
261.244 219.253 91.5087 286.24 219.458 91.6399 259.31 221.042 91.2911 
283.674 221.125 90.5383 277.674 227.847 90.4974 269.506 246.882 90.0821 
270.945 249.545 91.4166 271.698 250.027 91.8373 272.602 249.406 91.6518 
275.004 251.013 90.0088 279.535 215.686 92.1923 279.924 215.549 92.5854 
284.264 217.226 92.3553 284.565 225.71 91.714 269.191 249.69 92.0996 
272.215 250.641 92.6496 267.605 215.557 93.3333 274.211 214.901 93.2579 
278.155 215.125 93.1702 283.83 216.482 93.12 289.4 218.99 93.0992 
253.243 225.944 93.2726 273.749 250.121 93.5413 272.042 251.286 93.6912 
272.857 250.993 93.6678 273.059 214.828 94.11 283.594 216.076 94.0174 
286.047 216.776 94.3422 261.557 218.135 94.4758 289.844 218.462 93.7072 
290.382 218.071 94.3429 258.632 219.58 94.3737 254.643 221.881 94.2112 
296.881 221.19 94.4976 253.042 223.137 94.6008 296.13 222.683 94.2309 
273.759 250.729 94.5518 274.819 214.835 94.8024 278.62 214.979 94.6225 
286.969 216.754 95.2494 290.227 217.595 94.965 297.388 219.195 95.5503 
298.642 219.876 95.3567 253.956 221.865 95.7953 253.377 222.303 95.5909 
302.203 220.746 95.7981 297.448 222.418 94.5955 251.942 223.443 96.0488 
251.611 223.954 95.824 251.552 224.503 95.3673 251.258 225.39 95.1859 
276.041 243.065 94.4965 267.627 215.618 95.4282 271.813 215.022 95.7252 
282.324 215.562 95.7493 266.098 216.149 95.156 289.979 217.098 96.0341 
259.56 219.15 96.3237 300.385 219.428 95.988 303.16 219.955 96.5503 
253.932 221.788 96.4749 303.13 222.068 96.1058 302.988 223.498 96.2709 
250.654 232.142 95.8675 255.352 241.481 95.7026 275.374 215.112 96.3029 
280.209 215.318 96.2177 268.424 215.783 96.5492 284.382 216.112 96.6711 
286.938 216.586 97.2642 297.069 217.772 97.0896 302.702 218.741 97.2918 
304.989 219.943 97.6975 305.05 219.661 97.9793 253.846 221.84 96.9315 
250.475 224.936 97.1735 249.235 226.867 97.1878 249.11 226.694 97.7176 
248.399 229.37 97.4803 271.882 253.325 97.1431 271.581 215.392 96.8977 
274.8 215.689 97.6958 295.869 217.366 97.6474 300.228 218.076 97.325 
304.055 218.57 98.2837 253.994 221.831 97.2782 306.032 220.765 98.712 
252.443 222.966 97.6284 251.332 223.871 97.6875 249.944 225.515 98.2612 
249.466 226.1 98.1503 248.362 227.818 98.183 304.737 226.619 98.4147 
247.77 230.008 98.2441 248.042 231.517 97.9742 291.558 232.621 97.4666 
258.912 250.17 98.449 281.15 216.556 98.7695 286.759 216.96 99.0184 
292.996 216.923 99.033 296.416 216.925 99.2563 303.163 217.648 99.3999 
261.397 219.312 98.4053 306.055 220.105 99.2725 251.858 223.735 98.5526 
250.993 224.391 98.3874 248.734 226.998 98.5876 305.65 226.808 99.3905 
247.291 229.559 99.2576 247.249 229.366 99.7381 300.459 230.058 98.7214 
303.386 229.801 99.9495 277.98 247.088 99.112 267.127 254.411 99.3558 
286.961 217.265 99.7539 295.163 216.846 100.054 281.291 217.46 99.985 
305.883 219.552 100.017 251.931 224.102 99.2491 306.572 226.247 100.386 
247.82 228.308 100.081 305.289 228.375 100.135 304.466 229.252 100.232 
246.514 231.691 99.952 301.394 231.341 100.463 294.025 234.217 99.4887 
294.755 234.348 100.045 279.954 246.446 100.674 275.774 250.728 99.4885 
262.184 253.388 100.455 273.534 253.068 99.5976 269.401 254.636 99.8276 
294.053 216.976 101.148 297.118 216.731 100.966 304.188 217.998 100.539 
305.331 218.857 100.591 270.369 218.758 100.844 286.134 218.375 101.354 
306.915 220.964 101.211 307.329 221.792 101.497 307.439 222.289 101.525 
256.596 222.905 100.438 247.642 228.664 100.355 247.965 228.299 100.495 
306.387 227.596 101.578 246.353 230.916 101.106 301.656 231.445 100.847 
302.229 231.424 101.539 283.12 243.698 101.195 251.756 244.998 100.778 
281.106 245.152 100.585 264.462 254.438 101.247 270.193 254.703 100.93 
280.985 218.999 101.565 259.753 222.896 101.519 307.646 223.683 102.489 
252.341 225.894 101.34 307.35 225.66 102.085 248.66 228.103 101.146 
246.949 229.996 101.541 247.238 229.721 101.67 305.476 228.879 101.995 
244.885 232.671 102.371 244.817 234.114 102.054 294.529 235.703 101.813 
283.218 244.223 102.621 253.947 247.934 101.772 257.456 250.912 102.483 
263.974 254.353 102.326 266.328 254.79 102.236 300.125 216.579 102.611 
300.4 216.598 102.621 297.013 216.909 102.82 291.772 218.112 102.883 
304.158 218.102 102.894 307.158 221.361 102.311 247.473 229.804 102.099 
247.061 230.273 102.252 248.06 229.841 102.636 302.229 231.568 102.738 
243.977 233.701 103.075 244.699 232.74 103.421 297.021 234.434 103.422 
249.417 244.111 102.82 277.073 250.414 102.529 259.892 252.558 102.672 
268.527 254.837 102.328 306.342 220.272 103.396 305.697 228.66 103.522 
305.286 229.168 103.468 242.673 234.096 104.342 243.178 233.723 104.265 
244.301 233.124 104.008 242.516 234.293 104.497 243.025 234.299 103.889 
290.233 238.91 103.94 286.338 241.517 103.531 247.874 243.291 104.096 
283.751 243.859 103.84 250.209 245.802 104.117 258.393 251.522 103.626 
276.605 250.923 103.472 261.074 252.898 104.065 268.558 254.581 103.561 
302.022 217.412 104.347 307.19 226.313 104.401 304.824 229.246 104.927 
303.776 229.953 105.105 301.292 231.834 104.605 242.591 234.126 104.57 
242.76 234.019 104.661 243.107 233.82 104.58 242.4 234.46 104.657 
242.421 234.359 104.772 242.336 234.493 104.794 242.584 234.208 104.824 
243.71 233.784 105.025 245.008 233.291 104.953 242.466 234.955 104.828 
242.37 234.945 105.232 247.47 243.4 104.954 250.966 246.57 104.734 
275.971 251.301 104.373 264.535 253.731 105.02 297.874 217.489 105.112 
304.91 219.827 105.656 307.117 223.3 104.981 307.129 225.873 105.083 
303.824 229.589 105.858 245.746 233.23 105.169 242.81 234.48 105.425 
242.256 235.456 105.761 242.295 235.346 105.53 242.384 235.932 105.641 
294.554 235.808 105.998 291.121 238.022 105.777 249.761 245.811 105.947 
281.359 245.92 106.495 279.014 248.666 105.04 258.491 250.972 105.433 
276.861 250.298 105.594 260.683 251.799 105.931 263.217 253.072 105.515 
270.802 253.358 105.566 293.549 219.694 106.226 307.04 224.172 105.5 
306.41 225.844 106.444 306.245 226.248 106.565 305.926 227.02 106.395 
303.449 229.33 106.734 242.436 235.381 106.106 250.861 234.455 107.019 
242.461 235.931 106.739 288.166 239.554 106.426 247.773 244.288 106.242 
274.455 251.108 106.97 266.48 252.826 106.832 300.746 218.489 106.652 
304.709 221.235 107.296 305.99 223.256 107.115 304.636 227.486 107.479 
304.758 227.064 107.713 242.438 236.37 107.494 241.972 237.226 107.685 
292.215 236.766 107.425 242.111 237.663 107.361 242.685 238.804 107.452 
287.464 239.168 108.081 244.023 240.303 107.602 245.374 241.784 107.829 
251.383 246.667 107.322 264.146 251.743 107.586 302.449 220.192 107.989 
293.954 221.773 108.513 304.827 224.567 108.483 304.607 226.088 108.352 
297.483 232.318 108.723 242.627 236.538 107.958 241.316 237.72 108.751 
241.142 237.805 108.961 241.588 237.63 108.35 241.783 237.41 108.534 
241.082 237.907 108.94 242.78 239.404 108.619 245.835 242.262 108.261 
247.545 244.085 107.918 248.914 245.007 108.273 252.3 246.729 107.962 
252.659 246.384 108.559 273.099 249.782 109.142 275.042 249.644 108.435 
296.58 221.894 109.429 302.928 222.217 109.172 288.956 226.001 109.911 
299.694 229.351 109.675 296.635 232.003 109.727 241.087 237.902 109.103 
242.845 237.25 108.916 243.102 237.577 109.278 290.758 236.634 109.058 
240.941 237.996 109.123 240.974 238.015 109.197 240.907 238.044 109.193 
241.052 238.062 108.997 240.952 238.08 109.143 241.158 238.209 109.07 
241.382 238.384 109.104 241.619 238.544 109.002 243.494 239.817 109.016 
251.503 241.303 110.011 245.248 241.443 108.889 246.205 242.529 108.585 
246.523 242.532 108.935 248.889 244.711 108.625 249.515 244.809 108.865 
250.07 245.333 108.588 280.134 245.077 109.843 252.096 245.76 108.945 
276.367 247.814 109.685 272.294 249.123 109.914 267.082 249.923 109.57 
300.959 222.485 109.751 297.08 223.322 110.25 298.465 224.087 110.618 
298.126 228.352 110.783 281.006 229.942 110.398 296.509 230.576 110.671 
242.057 237.827 109.213 241.312 238.259 109.203 242.369 238.242 109.404 
243.194 237.943 109.531 287.379 237.72 109.979 242.318 238.737 109.264 
244.083 239.205 109.773 245.07 239.127 109.987 284.447 239.118 110.761 
243.008 239.29 109.232 244.648 239.536 109.947 245.489 240.72 109.684 
245.391 241.255 109.233 246.3 241.748 109.387 248.142 242.027 109.834 
249.046 241.998 109.941 249.818 243.636 109.614 251.617 244.462 109.596 
278.558 245.185 110.888 295.998 226.531 111.2 299.028 225.759 110.875 
293.778 227.13 111.365 294.306 227.938 111.594 294.834 229.976 111.526 
[...]
POINT_DATA 842
COLOR_SCALARS scalars 3
0.615686 0.905882 0.611765 0.615686 0.905882 0.611765 0.615686 0.905882 0.611765 
0.615686 0.905882 0.611765 0.615686 0.905882 0.611765 
0.615686 0.905882 0.611765 0.615686 0.905882 0.611765 
0.615686 0.905882 0.611765 0.615686 0.905882 0.611765 
0.615686 0.905882 0.611765 0.615686 0.905882 0.611765 
0.615686 0.905882 0.611765 0.615686 0.905882 0.611765 
0.615686 0.905882 0.611765 0.615686 0.905882 0.611765 
0.615686 0.905882 0.611765 0.615686 0.905882 0.611765 
0.615686 0.905882 0.611765 0.615686 0.905882 0.611765 
0.615686 0.905882 0.611765 0.615686 0.905882 0.611765 
0.615686 0.905882 0.611765 0.615686 0.905882 0.611765 
0.615686 0.905882 0.611765 0.615686 0.905882 0.611765 
0.615686 0.905882 0.611765 0.615686 0.905882 0.611765 
0.615686 0.905882 0.611765 0.615686 0.905882 0.611765 
0.615686 0.905882 0.611765 0.615686 0.905882 0.611765 
0.615686 0.905882 0.611765 0.615686 0.905882 0.611765 
0.615686 0.905882 0.611765 0.615686 0.905882 0.611765 
0.615686 0.905882 0.611765 0.615686 0.905882 0.611765 
0.615686 0.905882 0.611765 0.615686 0.905882 0.611765 
0.615686 0.905882 0.611765 0.615686 0.905882 0.611765 
0.615686 0.905882 0.611765 0.615686 0.905882 0.611765 
0.615686 0.905882 0.611765 0.615686 0.905882 0.611765 
0.615686 0.905882 0.611765 0.615686 0.905882 0.611765 
0.615686 0.905882 0.611765 0.615686 0.905882 0.611765 
0.615686 0.905882 0.611765 0.615686 0.905882 0.611765 
0.615686 0.905882 0.611765 0.615686 0.905882 0.611765 
0.615686 0.905882 0.611765 0.615686 0.905882 0.611765 
0.615686 0.905882 0.611765 0.615686 0.905882 0.611765 
0.615686 0.905882 0.611765 0.615686 0.905882 0.611765 
0.615686 0.905882 0.611765 0.615686 0.905882 0.611765 
0.615686 0.905882 0.611765 0.615686 0.905882 0.611765 
0.615686 0.905882 0.611765 0.615686 0.905882 0.611765 
0.615686 0.905882 0.611765 0.615686 0.905882 0.611765 
0.615686 0.905882 0.611765 0.615686 0.905882 0.611765 
0.615686 0.905882 0.611765 0.615686 0.905882 0.611765 
0.615686 0.905882 0.611765 0.615686 0.905882 0.611765 
0.615686 0.905882 0.611765 0.615686 0.905882 0.611765 
0.615686 0.905882 0.611765 0.615686 0.905882 0.611765 
0.615686 0.905882 0.611765 0.615686 0.905882 0.611765 
0.615686 0.905882 0.611765 0.615686 0.905882 0.611765 
0.615686 0.905882 0.611765 0.615686 0.905882 0.611765 
0.615686 0.905882 0.611765 0.615686 0.905882 0.611765 
0.615686 0.905882 0.611765 0.615686 0.905882 0.611765 
0.615686 0.905882 0.611765 0.615686 0.905882 0.611765 
0.615686 0.905882 0.611765 0.615686 0.905882 0.611765 
0.615686 0.905882 0.611765 0.615686 0.905882 0.611765 
0.615686 0.905882 0.611765 0.615686 0.905882 0.611765 
0.615686 0.905882 0.611765 0.615686 0.905882 0.611765 
0.615686 0.905882 0.611765 0.615686 0.905882 0.611765 
0.615686 0.905882 0.611765 0.615686 0.905882 0.611765 
0.615686 0.905882 0.611765 0.615686 0.905882 0.611765 
0.615686 0.905882 0.611765 0.615686 0.905882 0.611765 
0.615686 0.905882 0.611765 0.615686 0.905882 0.611765 
0.615686 0.905882 0.611765 0.615686 0.905882 0.611765 
0.615686 0.905882 0.611765 0.615686 0.905882 0.611765 
0.615686 0.905882 0.611765 0.615686 0.905882 0.611765 
0.615686 0.905882 0.611765 0.615686 0.905882 0.611765 
0.615686 0.905882 0.611765 0.615686 0.905882 0.611765 
0.615686 0.905882 0.611765 0.615686 0.905882 0.611765 
0.615686 0.905882 0.611765 0.615686 0.905882 0.611765 
0.615686 0.905882 0.611765 0.615686 0.905882 0.611765 
0.615686 0.905882 0.611765 0.615686 0.905882 0.611765 
0.615686 0.905882 0.611765 0.615686 0.905882 0.611765 
0.615686 0.905882 0.611765 0.615686 0.905882 0.611765 
0.615686 0.905882 0.611765 0.615686 0.905882 0.611765 
0.615686 0.905882 0.611765 0.615686 0.905882 0.611765 
0.615686 0.905882 0.611765 0.615686 0.905882 0.611765 
0.615686 0.905882 0.611765 0.615686 0.905882 0.611765 
0.615686 0.905882 0.611765 0.615686 0.905882 0.611765 
0.615686 0.905882 0.611765 0.615686 0.905882 0.611765 
0.615686 0.905882 0.611765 0.615686 0.905882 0.611765 
0.615686 0.905882 0.611765 0.615686 0.905882 0.611765 
0.615686 0.905882 0.611765 0.615686 0.905882 0.611765 
0.615686 0.905882 0.611765 0.615686 0.905882 0.611765 
0.615686 0.905882 0.611765 0.615686 0.905882 0.611765 
0.615686 0.905882 0.611765 0.615686 0.905882 0.611765 
0.615686 0.905882 0.611765 0.615686 0.905882 0.611765 
0.615686 0.905882 0.611765 0.615686 0.905882 0.611765 
0.615686 0.905882 0.611765 0.615686 0.905882 0.611765 
0.615686 0.905882 0.611765 0.615686 0.905882 0.611765 
0.615686 0.905882 0.611765 0.615686 0.905882 0.611765 
0.615686 0.905882 0.611765 0.615686 0.905882 0.611765 
0.615686 0.905882 0.611765 0.615686 0.905882 0.611765 
0.615686 0.905882 0.611765 0.615686 0.905882 0.611765 
0.615686 0.905882 0.611765 0.615686 0.905882 0.611765 
0.615686 0.905882 0.611765 0.615686 0.905882 0.611765 
0.615686 0.905882 0.611765 0.615686 0.905882 0.611765 
0.615686 0.905882 0.611765 0.615686 0.905882 0.611765 
0.615686 0.905882 0.611765 0.615686 0.905882 0.611765 
0.615686 0.905882 0.611765 0.615686 0.905882 0.611765 
0.615686 0.905882 0.611765 0.615686 0.905882 0.611765 
0.615686 0.905882 0.611765 0.615686 0.905882 0.611765 
0.615686 0.905882 0.611765 0.615686 0.905882 0.611765 
0.615686 0.905882 0.611765 0.615686 0.905882 0.611765 
0.615686 0.905882 0.611765 0.615686 0.905882 0.611765 
0.615686 0.905882 0.611765 0.615686 0.905882 0.611765 
0.615686 0.905882 0.611765 0.615686 0.905882 0.611765 
0.615686 0.905882 0.611765 0.615686 0.905882 0.611765 
0.615686 0.905882 0.611765 0.615686 0.905882 0.611765 
0.615686 0.905882 0.611765 0.615686 0.905882 0.611765 
0.615686 0.905882 0.611765 0.615686 0.905882 0.611765 
0.615686 0.905882 0.611765 0.615686 0.905882 0.611765 
0.615686 0.905882 0.611765 0.615686 0.905882 0.611765 
0.615686 0.905882 0.611765 0.615686 0.905882 0.611765 
0.615686 0.905882 0.611765 0.615686 0.905882 0.611765 
0.615686 0.905882 0.611765 0.615686 0.905882 0.611765 
0.615686 0.905882 0.611765 0.615686 0.905882 0.611765 
0.615686 0.905882 0.611765 0.615686 0.905882 0.611765 
0.615686 0.905882 0.611765 0.615686 0.905882 0.611765 
0.615686 0.905882 0.611765 0.615686 0.905882 0.611765 
0.615686 0.905882 0.611765 0.615686 0.905882 0.611765 
0.615686 0.905882 0.611765 0.615686 0.905882 0.611765 
0.615686 0.905882 0.611765 0.615686 0.905882 0.611765 
0.615686 0.905882 0.611765 0.615686 0.905882 0.611765 
0.615686 0.905882 0.611765 0.615686 0.905882 0.611765 
0.615686 0.905882 0.611765 0.615686 0.905882 0.611765 
0.615686 0.905882 0.611765 0.615686 0.905882 0.611765 
0.615686 0.905882 0.611765 0.615686 0.905882 0.611765 
0.615686 0.905882 0.611765 0.615686 0.905882 0.611765 
0.615686 0.905882 0.611765 0.615686 0.905882 0.611765 
0.615686 0.905882 0.611765 0.615686 0.905882 0.611765 
0.615686 0.905882 0.611765 0.615686 0.905882 0.611765 
0.615686 0.905882 0.611765 0.615686 0.905882 0.611765 
0.615686 0.905882 0.611765 0.615686 0.905882 0.611765 
0.615686 0.905882 0.611765 0.615686 0.905882 0.611765 
0.615686 0.905882 0.611765 0.615686 0.905882 0.611765 
0.615686 0.905882 0.611765 0.615686 0.905882 0.611765 
0.615686 0.905882 0.611765 0.615686 0.905882 0.611765 
0.615686 0.905882 0.611765 0.615686 0.905882 0.611765 
0.615686 0.905882 0.611765 0.615686 0.905882 0.611765 
0.615686 0.905882 0.611765 0.615686 0.905882 0.611765 
0.615686 0.905882 0.611765 0.615686 0.905882 0.611765 
0.615686 0.905882 0.611765 0.615686 0.905882 0.611765 
0.615686 0.905882 0.611765 0.615686 0.905882 0.611765 
0.615686 0.905882 0.611765 0.615686 0.905882 0.611765 
0.615686 0.905882 0.611765 0.615686 0.905882 0.611765 
0.615686 0.905882 0.611765 0.615686 0.905882 0.611765 
0.615686 0.905882 0.611765 0.615686 0.905882 0.611765 
0.615686 0.905882 0.611765 0.615686 0.905882 0.611765 
0.615686 0.905882 0.611765 0.615686 0.905882 0.611765 
0.615686 0.905882 0.611765 0.615686 0.905882 0.611765 
0.615686 0.905882 0.611765 0.615686 0.905882 0.611765 
0.615686 0.905882 0.611765 0.615686 0.905882 0.611765 
0.615686 0.905882 0.611765 0.615686 0.905882 0.611765 
0.615686 0.905882 0.611765 0.615686 0.905882 0.611765 
0.615686 0.905882 0.611765 0.615686 0.905882 0.611765 
0.615686 0.905882 0.611765 0.615686 0.905882 0.611765 
0.615686 0.905882 0.611765 0.615686 0.905882 0.611765 
0.615686 0.905882 0.611765 0.615686 0.905882 0.611765 
0.615686 0.905882 0.611765 0.615686 0.905882 0.611765 
0.615686 0.905882 0.611765 0.615686 0.905882 0.611765 
0.615686 0.905882 0.611765 0.615686 0.905882 0.611765 
0.615686 0.905882 0.611765 0.615686 0.905882 0.611765 
0.615686 0.905882 0.611765 0.615686 0.905882 0.611765 
0.615686 0.905882 0.611765 0.615686 0.905882 0.611765 
0.615686 0.905882 0.611765 0.615686 0.905882 0.611765 
0.615686 0.905882 0.611765 0.615686 0.905882 0.611765 
0.615686 0.905882 0.611765 0.615686 0.905882 0.611765 
0.615686 0.905882 0.611765 0.615686 0.905882 0.611765 
0.615686 0.905882 0.611765 0.615686 0.905882 0.611765 
0.615686 0.905882 0.611765 0.615686 0.905882 0.611765 
0.615686 0.905882 0.611765 0.615686 0.905882 0.611765 
0.615686 0.905882 0.611765 0.615686 0.905882 0.611765 
0.615686 0.905882 0.611765 0.615686 0.905882 0.611765 
0.615686 0.905882 0.611765 0.615686 0.905882 0.611765 
0.615686 0.905882 0.611765 0.615686 0.905882 0.611765 
0.615686 0.905882 0.611765 0.615686 0.905882 0.611765 
0.615686 0.905882 0.611765 0.615686 0.905882 0.611765 
0.615686 0.905882 0.611765 0.615686 0.905882 0.611765 
0.615686 0.905882 0.611765 0.615686 0.905882 0.611765 
0.615686 0.905882 0.611765 0.615686 0.905882 0.611765 
0.615686 0.905882 0.611765 0.615686 0.905882 0.611765 
0.615686 0.905882 0.611765 0.615686 0.905882 0.611765 
0.615686 0.905882 0.611765 0.615686 0.905882 0.611765 
0.615686 0.905882 0.611765 0.615686 0.905882 0.611765 
0.615686 0.905882 0.611765 0.615686 0.905882 0.611765 
0.615686 0.905882 0.611765 0.615686 0.905882 0.611765 
0.615686 0.905882 0.611765 0.615686 0.905882 0.611765 
0.615686 0.905882 0.611765 0.615686 0.905882 0.611765 
0.615686 0.905882 0.611765 0.615686 0.905882 0.611765 
0.615686 0.905882 0.611765 0.615686 0.905882 0.611765 
0.615686 0.905882 0.611765 0.615686 0.905882 0.611765 
0.615686 0.905882 0.611765 0.615686 0.905882 0.611765 
0.615686 0.905882 0.611765 0.615686 0.905882 0.611765 
0.615686 0.905882 0.611765 0.615686 0.905882 0.611765 
0.615686 0.905882 0.611765 0.615686 0.905882 0.611765 
0.615686 0.905882 0.611765 0.615686 0.905882 0.611765 
0.615686 0.905882 0.611765 0.615686 0.905882 0.611765 
0.615686 0.905882 0.611765 0.615686 0.905882 0.611765 
0.615686 0.905882 0.611765 0.615686 0.905882 0.611765 
0.615686 0.905882 0.611765 0.615686 0.905882 0.611765 
0.615686 0.905882 0.611765 0.615686 0.905882 0.611765 
0.615686 0.905882 0.611765 0.615686 0.905882 0.611765 
0.615686 0.905882 0.611765 0.615686 0.905882 0.611765 
0.615686 0.905882 0.611765 0.615686 0.905882 0.611765 
0.615686 0.905882 0.611765 0.615686 0.905882 0.611765 
0.615686 0.905882 0.611765 0.615686 0.905882 0.611765 
0.615686 0.905882 0.611765 0.615686 0.905882 0.611765 
0.615686 0.905882 0.611765 0.615686 0.905882 0.611765 
0.615686 0.905882 0.611765 0.615686 0.905882 0.611765 
0.615686 0.905882 0.611765 0.615686 0.905882 0.611765 
0.615686 0.905882 0.611765 0.615686 0.905882 0.611765 
0.615686 0.905882 0.611765 0.615686 0.905882 0.611765 
0.615686 0.905882 0.611765 0.615686 0.905882 0.611765 
0.615686 0.905882 0.611765 0.615686 0.905882 0.611765 
0.615686 0.905882 0.611765 0.615686 0.905882 0.611765 
0.615686 0.905882 0.611765 0.615686 0.905882 0.611765 
0.615686 0.905882 0.611765 0.615686 0.905882 0.611765 
0.615686 0.905882 0.611765 0.615686 0.905882 0.611765 
0.615686 0.905882 0.611765 0.615686 0.905882 0.611765 
0.615686 0.905882 0.611765 0.615686 0.905882 0.611765 
0.615686 0.905882 0.611765 0.615686 0.905882 0.611765 
0.615686 0.905882 0.611765 0.615686 0.905882 0.611765 
0.615686 0.905882 0.611765 0.615686 0.905882 0.611765 
0.615686 0.905882 0.611765 0.615686 0.905882 0.611765 
0.615686 0.905882 0.611765 0.615686 0.905882 0.611765 
0.615686 0.905882 0.611765 0.615686 0.905882 0.611765 
0.615686 0.905882 0.611765 0.615686 0.905882 0.611765 
0.615686 0.905882 0.611765 0.615686 0.905882 0.611765 
0.615686 0.905882 0.611765 0.615686 0.905882 0.611765 
0.615686 0.905882 0.611765 0.615686 0.905882 0.611765 
0.615686 0.905882 0.611765 0.615686 0.905882 0.611765 
0.615686 0.905882 0.611765 0.615686 0.905882 0.611765 
0.615686 0.905882 0.611765 0.615686 0.905882 0.611765 
0.615686 0.905882 0.611765 0.615686 0.905882 0.611765 
0.615686 0.905882 0.611765 0.615686 0.905882 0.611765 
0.615686 0.905882 0.611765 0.615686 0.905882 0.611765 
0.615686 0.905882 0.611765 0.615686 0.905882 0.611765 
0.615686 0.905882 0.611765 0.615686 0.905882 0.611765 
0.615686 0.905882 0.611765 0.615686 0.905882 0.611765 
0.615686 0.905882 0.611765 0.615686 0.905882 0.611765 
0.615686 0.905882 0.611765 0.615686 0.905882 0.611765 
0.615686 0.905882 0.611765 0.615686 0.905882 0.611765 
0.615686 0.905882 0.611765 0.615686 0.905882 0.611765 
0.615686 0.905882 0.611765 0.615686 0.905882 0.611765 
0.615686 0.905882 0.611765 0.615686 0.905882 0.611765 
0.615686 0.905882 0.611765 0.615686 0.905882 0.611765 
0.615686 0.905882 0.611765 0.615686 0.905882 0.611765 
0.615686 0.905882 0.611765 0.615686 0.905882 0.611765 
0.615686 0.905882 0.611765 0.615686 0.905882 0.611765 
0.615686 0.905882 0.611765 0.615686 0.905882 0.611765 
0.615686 0.905882 0.611765 0.615686 0.905882 0.611765 
0.615686 0.905882 0.611765 0.615686 0.905882 0.611765 
0.615686 0.905882 0.611765 0.615686 0.905882 0.611765 
0.615686 0.905882 0.611765 0.615686 0.905882 0.611765 
0.615686 0.905882 0.611765 0.615686 0.905882 0.611765 
0.615686 0.905882 0.611765 0.615686 0.905882 0.611765 
0.615686 0.905882 0.611765 0.615686 0.905882 0.611765 
0.615686 0.905882 0.611765 0.615686 0.905882 0.611765 
0.615686 0.905882 0.611765 0.615686 0.905882 0.611765 
0.615686 0.905882 0.611765 0.615686 0.905882 0.611765 
0.615686 0.905882 0.611765 0.615686 0.905882 0.611765 
0.615686 0.905882 0.611765 0.615686 0.905882 0.611765 
0.615686 0.905882 0.611765 0.615686 0.905882 0.611765 
0.615686 0.905882 0.611765 0.615686 0.905882 0.611765 
0.615686 0.905882 0.611765 0.615686 0.905882 0.611765 
0.615686 0.905882 0.611765 0.615686 0.905882 0.611765 
0.615686 0.905882 0.611765 0.615686 0.905882 0.611765 
0.615686 0.905882 0.611765 0.615686 0.905882 0.611765 
0.615686 0.905882 0.611765 0.615686 0.905882 0.611765 
0.615686 0.905882 0.611765 0.615686 0.905882 0.611765 
0.615686 0.905882 0.611765 0.615686 0.905882 0.611765 
0.615686 0.905882 0.611765 0.615686 0.905882 0.611765 
0.615686 0.905882 0.611765 0.615686 0.905882 0.611765 
0.615686 0.905882 0.611765 0.615686 0.905882 0.611765 
0.615686 0.905882 0.611765 0.615686 0.905882 0.611765 
0.615686 0.905882 0.611765 0.615686 0.905882 0.611765 
0.615686 0.905882 0.611765 0.615686 0.905882 0.611765 
0.615686 0.905882 0.611765 0.615686 0.905882 0.611765 
0.615686 0.905882 0.611765 0.615686 0.905882 0.611765 
0.615686 0.905882 0.611765 0.615686 0.905882 0.611765 
0.615686 0.905882 0.611765 0.615686 0.905882 0.611765 
0.615686 0.905882 0.611765 0.615686 0.905882 0.611765 
0.615686 0.905882 0.611765 0.615686 0.905882 0.611765 
0.615686 0.905882 0.611765 0.615686 0.905882 0.611765 
0.615686 0.905882 0.611765 0.615686 0.905882 0.611765 
0.615686 0.905882 0.611765 0.615686 0.905882 0.611765 
0.615686 0.905882 0.611765 0.615686 0.905882 0.611765 
0.615686 0.905882 0.611765 0.615686 0.905882 0.611765 
0.615686 0.905882 0.611765 0.615686 0.905882 0.611765 
0.615686 0.905882 0.611765 0.615686 0.905882 0.611765 
0.615686 0.905882 0.611765 0.615686 0.905882 0.611765 
0.615686 0.905882 0.611765 0.615686 0.905882 0.611765 
0.615686 0.905882 0.611765 0.615686 0.905882 0.611765 
0.615686 0.905882 0.611765 0.615686 0.905882 0.611765 
0.615686 0.905882 0.611765 0.615686 0.905882 0.611765 
0.615686 0.905882 0.611765 0.615686 0.905882 0.611765 
0.615686 0.905882 0.611765 0.615686 0.905882 0.611765 
0.615686 0.905882 0.611765 0.615686 0.905882 0.611765 
0.615686 0.905882 0.611765 0.615686 0.905882 0.611765 
0.615686 0.905882 0.611765 0.615686 0.905882 0.611765 
0.615686 0.905882 0.611765 0.615686 0.905882 0.611765 
0.615686 0.905882 0.611765 0.615686 0.905882 0.611765 
0.615686 0.905882 0.611765 0.615686 0.905882 0.611765 
0.615686 0.905882 0.611765 0.615686 0.905882 0.611765 
0.615686 0.905882 0.611765 0.615686 0.905882 0.611765 
0.615686 0.905882 0.611765 0.615686 0.905882 0.611765 
0.615686 0.905882 0.611765 0.615686 0.905882 0.611765 
0.615686 0.905882 0.611765 0.615686 0.905882 0.611765 
0.615686 0.905882 0.611765 0.615686 0.905882 0.611765 
0.615686 0.905882 0.611765 0.615686 0.905882 0.611765 
0.615686 0.905882 0.611765 0.615686 0.905882 0.611765 
0.615686 0.905882 0.611765 0.615686 0.905882 0.611765 
0.615686 0.905882 0.611765 0.615686 0.905882 0.611765 
0.615686 0.905882 0.611765 0.615686 0.905882 0.611765 
0.615686 0.905882 0.611765 0.615686 0.905882 0.611765 
0.615686 0.905882 0.611765 0.615686 0.905882 0.611765 
0.615686 0.905882 0.611765 0.615686 0.905882 0.611765 
0.615686 0.905882 0.611765 0.615686 0.905882 0.611765 
0.615686 0.905882 0.611765 0.615686 0.905882 0.611765 
0.615686 0.905882 0.611765 0.615686 0.905882 0.611765 
0.615686 0.905882 0.611765 0.615686 0.905882 0.611765 
0.615686 0.905882 0.611765 0.615686 0.905882 0.611765 
0.615686 0.905882 0.611765 0.615686 0.905882 0.611765 
0.615686 0.905882 0.611765 0.615686 0.905882 0.611765 
0.615686 0.905882 0.611765 0.615686 0.905882 0.611765 
0.615686 0.905882 0.611765 0.615686 0.905882 0.611765 
0.615686 0.905882 0.611765 0.615686 0.905882 0.611765 
0.615686 0.905882 0.611765 0.615686 0.905882 0.611765 
0.615686 0.905882 0.611765 0.615686 0.905882 0.611765 
0.615686 0.905882 0.611765 0.615686 0.905882 0.611765 
0.615686 0.905882 0.611765 0.615686 0.905882 0.611765 
0.615686 0.905882 0.611765 0.615686 0.905882 0.611765 
0.615686 0.905882 0.611765 0.615686 0.905882 0.611765 
0.615686 0.905882 0.611765 0.615686 0.905882 0.611765 
0.615686 0.905882 0.611765 0.615686 0.905882 0.611765 
0.615686 0.905882 0.611765 0.615686 0.905882 0.611765 
0.615686 0.905882 0.611765 0.615686 0.905882 0.611765 
0.615686 0.905882 0.611765 0.615686 0.905882 0.611765 
0.615686 0.905882 0.611765 0.615686 0.905882 0.611765 
0.615686 0.905882 0.611765 0.615686 0.905882 0.611765 
0.615686 0.905882 0.611765 0.615686 0.905882 0.611765 
0.615686 0.905882 0.611765 0.615686 0.905882 0.611765 
0.615686 0.905882 0.611765 0.615686 0.905882 0.611765 
0.615686 0.905882 0.611765 0.615686 0.905882 0.611765 
0.615686 0.905882 0.611765 0.615686 0.905882 0.611765 
0.615686 0.905882 0.611765 0.615686 0.905882 0.611765 
0.615686 0.905882 0.611765 0.615686 0.905882 0.611765 
0.615686 0.905882 0.611765 0.615686 0.905882 0.611765 
0.615686 0.905882 0.611765 0.615686 0.905882 0.611765 
0.615686 0.905882 0.611765 0.615686 0.905882 0.611765 
0.615686 0.905882 0.611765 0.615686 0.905882 0.611765 
0.615686 0.905882 0.611765 0.615686 0.905882 0.611765 
0.615686 0.905882 0.611765 0.615686 0.905882 0.611765 
0.615686 0.905882 0.611765 0.615686 0.905882 0.611765 
0.615686 0.905882 0.611765 0.615686 0.905882 0.611765 
0.615686 0.905882 0.611765 0.615686 0.905882 0.611765 
0.615686 0.905882 0.611765 0.615686 0.905882 0.611765 
0.615686 0.905882 0.611765 0.615686 0.905882 0.611765 
0.615686 0.905882 0.611765 0.615686 0.905882 0.611765 
0.615686 0.905882 0.611765 0.615686 0.905882 0.611765 
0.615686 0.905882 0.611765 0.615686 0.905882 0.611765 
0.615686 0.905882 0.611765 0.615686 0.905882 0.611765 
0.615686 0.905882 0.611765 0.615686 0.905882 0.611765 
0.615686 0.905882 0.611765 0.615686 0.905882 0.611765 
0.615686 0.905882 0.611765 0.615686 0.905882 0.611765 
0.615686 0.905882 0.611765 0.615686 0.905882 0.611765 
0.615686 0.905882 0.611765 0.615686 0.905882 0.611765 
0.615686 0.905882 0.611765 0.615686 0.905882 0.611765 
0.615686 0.905882 0.611765 0.615686 0.905882 0.611765 
0.615686 0.905882 0.611765 0.615686 0.905882 0.611765 
0.615686 0.905882 0.611765 0.615686 0.905882 0.611765 