# vtk DataFile Version 4.2
vtk output
ASCII
DATASET POLYDATA
POINTS 1447 float
311.562 251.846 90.1124 314.96 253.056 90.3014 308.163 255.337 90.3784 
310.984 254.836 89.8767 309.411 256.754 90.2517 309.784 257.743 90.4591 
319.452 250.632 91.8309 316.057 251.318 90.8141 316.532 254.248 91.0572 
318.144 254.879 92.1213 318.583 254.348 92.1446 316.276 255.959 91.5099 
316.779 256.479 92.0373 315.857 257.448 92.0326 311.512 259.171 91.1306 
307.849 260.907 91.8648 308.699 260.965 91.7754 317.162 249.163 91.6042 
320.564 251.168 92.4543 319.585 253.109 92.2775 304.927 254.578 91.685 
319.51 253.945 92.6456 317.713 255.813 92.3092 316.733 257.128 92.4663 
315.768 258.09 92.4865 312.692 260.37 92.1746 311.017 261.248 92.2361 
307.539 262.268 92.9114 311.064 261.649 92.7001 308.831 262.392 92.9049 
322.256 247.782 93.766 301.603 249.169 92.7993 299.833 249.828 93.2885 
322.443 249.62 93.8732 321.388 251.673 93.193 320.666 253.075 93.259 
317.028 257.195 92.8918 316.698 257.716 93.2673 312.317 261.061 92.6772 
311.092 262.043 93.2373 309.812 262.583 93.4093 310.62 262.378 93.5849 
298.818 248.141 93.7786 300.295 251.389 93.2647 322.434 251.015 94.3098 
304.455 261.346 94.0585 312.871 261.087 93.5915 305.25 262.478 94.2276 
311.268 262.144 93.6338 306.035 262.982 94.1806 299.34 244.995 94.8803 
324.43 245.447 95.7369 324.764 245.239 96.0338 294.758 247.016 95.3584 
296.16 251.563 95.0474 310.456 262.845 95.1005 305.737 263.805 95.4881 
307.533 263.915 95.5158 309.183 263.341 95.2041 307.151 264.085 95.8146 
320.08 242.896 95.3319 323.622 243.878 95.8776 325.245 246.149 96.345 
325.543 246.447 96.736 291.305 248.149 96.4422 324.597 248.843 96.5871 
317.779 257.18 95.3528 312.546 261.506 95.1802 303.56 263.347 96.283 
304.428 263.977 96.6028 323.466 250.8 96.6826 314.973 259.37 96.7684 
301.474 263.231 97.6539 309.728 263.116 96.9751 306.986 264.224 96.9183 
326.359 243.101 98.1462 323.16 251.29 98.0006 309.773 262.562 98.2992 
301.735 263.912 98.4801 303.266 264.343 98.5518 304.696 264.384 97.8182 
302.918 236.873 98.9045 326.327 241.239 99.0819 327.351 243.359 99.8158 
327.117 245.252 99.4902 285.616 250.195 99.3069 288.285 250.965 98.29 
320.741 253.625 98.7868 327.038 241.561 99.8823 285.929 245.823 99.9375 
283.985 247.385 100.743 317.284 255.959 99.837 307.461 263.22 99.8241 
310.438 232.33 100.641 314.56 232.338 100.652 316 231.852 101.222 
306.5 233.069 100.643 321.219 234.279 100.709 322.378 233.961 101.54 
327.34 241.004 101.073 327.372 245.126 101.218 284.084 246.715 101.002 
325.083 248.741 100.547 282.593 251.073 101.633 286.575 253.711 100.663 
298.532 264.037 101.692 316.853 230.898 102.466 319.402 232.328 101.653 
323.106 233.316 103.049 323.967 234.243 102.793 281.608 248.47 102.798 
319.454 253.146 101.8 295.557 262.768 102.131 314.591 229.853 103.255 
312.397 230.226 102.47 318.055 230.508 103.73 318.567 230.856 103.453 
302.921 232.229 102.613 324.583 234.486 103.748 325.151 235.685 102.556 
289.768 240.026 102.85 327.639 243.112 102.762 283.561 245.006 103.193 
327.358 244.645 102.606 280.607 249.541 103.702 293.418 261.951 102.803 
294.977 262.79 102.644 294.624 263.203 103.692 297.229 264.031 103.416 
311.155 229.301 103.718 315.85 229.658 104.175 306.135 229.608 104.25 
318.387 230.464 104.493 324.622 234.431 104.522 325.959 236.295 103.776 
327.146 238.529 103.512 312.031 256.524 103.979 298.851 264.173 103.567 
300.169 264.05 103.307 297.723 264.145 103.551 311.839 228.6 105.334 
317.24 230.008 104.858 327.384 239.297 104.271 327.51 241.62 104.249 
327.42 242.251 104.304 326.454 245.146 104.175 279.463 250.994 105.401 
288.229 261.12 105.055 291.009 263.289 105.847 294.395 263.59 105.508 
295.245 263.644 105.218 297.91 264.074 103.995 311.297 228.375 106.089 
313.987 228.972 105.647 321.664 232.211 106.27 327.252 239.168 104.935 
327.357 240.424 104.967 327.215 239.962 105.31 327.332 241.122 104.884 
278.951 252.103 106.075 315.049 252.824 105.742 269.626 257.408 105.945 
265.894 260.655 105.786 262.225 261.706 106.256 288.422 262.232 105.84 
289.054 262.978 106.247 300.413 262.381 106.087 289.555 263.208 106.272 
292.864 263.682 106.489 293.948 263.624 106.276 307.18 228.005 107.624 
319.246 230.989 106.546 326.083 236.762 106.034 326.727 240.717 106.082 
324.582 245.194 106.287 276.826 253.494 107.01 278.363 253.156 106.578 
278.895 253.828 106.316 267.101 255.028 107.147 277.494 254.498 106.808 
265.737 257.165 106.757 260.509 260.277 107.534 297.387 263.034 106.826 
287.941 263.544 107.698 292.538 263.849 107.46 290.729 264.172 107.736 
262.067 267.882 106.13 266.834 270.572 106.331 270.061 270.121 106.923 
263.432 272.962 107.194 305.111 228.247 107.807 302.533 229.353 107.652 
322.946 233.723 107.814 324.646 235.413 107.769 325.089 242.06 107.633 
278.381 249.579 107.325 277.795 251.268 107.216 266.165 253.729 108.403 
278.964 255.314 106.626 278.327 258.537 107.341 259.282 260.188 108.462 
285.854 261.929 107.202 295.384 263.049 108.062 265.32 275.544 108.532 
305.717 227.834 108.969 306.561 227.83 109.227 324.153 235.468 108.489 
325.006 236.913 108.237 285.482 239.795 108.901 279.094 247.309 108.161 
316.246 248.139 109.007 276.745 250.577 108.132 277.059 251.885 107.425 
264.023 255.158 109.641 259.295 259.816 108.936 282.988 261.27 108.335 
286.182 263.761 109.213 294.282 263.08 109.043 256.1 270.896 108.739 
273.483 272.203 108.961 269.348 275.391 108.872 264.424 276.173 109.234 
304.636 228.018 109.269 308.266 228.291 109.971 314.912 229.95 109.046 
297.391 231.857 109.876 324.331 238.1 109.059 267.478 250.467 109.985 
265.061 252.858 110.598 257.339 260.278 110.31 255.35 261.21 110.658 
281.575 261.315 108.643 283.129 262.075 108.791 251.325 266.222 109.987 
255.315 273.798 110.256 273.46 273.661 109.636 270.41 276.305 110.226 
305.003 227.988 110.012 302.746 228.747 110.971 316.766 232.154 110.899 
292.286 234.995 110.911 321.242 235.706 110.835 289.816 236.345 111.033 
322.344 238.268 110.486 319.705 241.536 111.141 275.683 248.702 110.101 
276.69 248.574 109.657 264.756 252.894 111.434 281.914 261.134 108.56 
251.524 262.075 111.476 282.703 262.778 109.234 284.944 263.92 109.943 
250.581 263.871 110.752 282.125 264.768 109.899 284.053 264.132 110.112 
285.614 264.586 110.841 286.499 264.387 110.682 289.52 264.271 110.142 
282.07 269.26 111.22 249.886 270.187 111.154 252.112 272.916 111.186 
275.105 274.916 111.563 258.295 276.576 111.564 274.334 275.436 111.751 
263.912 277.462 111.17 318.623 233.429 111.024 291.564 235.278 111.728 
289.359 236.472 111.961 287.281 237.703 112.041 316.271 243.826 111.544 
267.501 248.363 112.279 266.443 249.328 112.345 261.166 257.627 111.611 
259.409 258.801 111.728 254.241 260.712 112.525 247.923 262.49 112.278 
284.517 264.122 110.159 284.873 264.597 110.639 285.285 265.239 111.378 
286.352 264.809 111.767 285.892 265.182 111.842 287.357 264.394 111.551 
248.226 266.784 111.366 284.504 268.118 112.247 285.178 268.018 112.993 
249.474 272.051 112.116 279.853 271.97 111.698 250.358 272.923 112.132 
280.995 272.255 112.539 253.511 274.65 111.692 269.388 277.375 111.661 
267.815 277.752 112.151 302.418 229.032 111.849 298.168 231.426 112.94 
296.003 232.701 112.925 317.606 236.827 112.892 286.566 238.152 113.112 
316.909 240.91 112.583 281.065 242.015 113.152 269.81 246.282 113.728 
276.803 245.824 112.623 267.754 247.552 113.55 266.754 248.426 113.785 
274.412 246.903 112.581 249.242 260.549 113.648 252.319 260.595 113.503 
254.981 260.313 113.21 245.871 262.283 112.945 244.925 263.449 112.999 
289.593 263.43 112.532 286.689 264.994 112.978 287.363 264.396 112.658 
284.734 270.13 114.092 247.156 271.946 113.392 284.454 270.65 114.257 
283.696 271.342 114.032 281.191 273.076 113.621 250.07 274.619 113.81 
280.878 273.353 113.816 251.435 275.029 113.478 273.016 276.544 112.862 
259.303 277.497 113.028 266.773 277.91 112.931 301.581 229.778 113.042 
302.666 229.589 113.166 304.236 229.473 113.17 306.453 229.968 113.502 
297.142 232.379 113.773 292.127 235.339 113.892 289.463 236.505 113.248 
313.189 242.231 113.663 271.465 245.595 114.686 268.926 246.251 114.516 
265.717 250.234 113.98 264.87 252.41 113.81 262.163 256.706 113.794 
243.863 260.492 114.13 243.184 261.506 114.046 251.291 260.175 114.318 
242.969 262.425 113.947 290.858 261.87 114.133 287.527 264.193 113.954 
243.4 264.963 113.575 285.628 269.036 114.872 281.752 273.044 114.293 
252.445 276.015 114.523 256.675 277.119 114.33 308.294 232.51 115.125 
313.318 233.622 113.82 296.536 234.05 115.707 287.695 237.662 114.212 
267.725 247.154 115.086 273.576 245.774 114.719 275.829 245.277 114.956 
266.407 248.856 114.675 243.029 258.395 115.297 245.012 258.316 115.12 
288.001 263.372 115.119 288.83 262.505 115.271 241.431 265.935 114.677 
242.38 269.107 114.983 243.265 270.679 115.187 282.728 272.542 114.785 
258.979 277.651 114.558 302.162 231.232 114.952 310.728 235.704 115.809 
285.732 239.119 115.155 280.644 242.112 116.104 268.995 246.029 116.372 
276.229 244.968 115.374 275.158 245.323 115.802 267.191 247.769 115.884 
274.493 245.425 116.08 264.234 254.662 116.057 262.333 256.731 115.61 
240.132 258.632 116.075 250.211 258.753 116.049 288.237 262.574 116.197 
287.442 264.04 116.181 287.222 264.877 116.547 244.819 273.098 116.383 
251 275.985 116.657 274.244 276.325 115.637 256.214 277.112 115.941 
309.788 237.637 116.417 286.754 239.099 116.11 287.706 239.396 117.285 
278.261 243.592 116.908 241.014 256.148 117.292 260.574 257.975 117.186 
252.263 258.952 116.951 237.418 262.994 116.555 236.972 266.376 117.279 
286.991 266.364 117.587 285.525 269.977 117.811 241.069 271.587 117.645 
242.212 272.441 117.874 244.994 273.553 117.109 304.755 235.635 117.87 
277.917 243.976 118.437 275.78 244.957 117.518 302.818 245.414 118.222 
268.261 247.021 117.907 267.437 247.79 117.206 264.538 254.996 118.252 
235.632 260.988 117.604 283.467 272.091 118.25 243.491 273.268 118.331 
244.102 273.624 118.642 244.952 273.904 118.524 256.517 276.929 117.38 
[...]
POINT_DATA 1447
COLOR_SCALARS scalars 3
0.517647 0.917647 0.505882 0.517647 0.917647 0.505882 0.517647 0.917647 0.505882 
0.517647 0.917647 0.505882 0.517647 0.917647 0.505882 
0.517647 0.917647 0.505882 0.517647 0.917647 0.505882 
0.517647 0.917647 0.505882 0.517647 0.917647 0.505882 
0.517647 0.917647 0.505882 0.517647 0.917647 0.505882 
0.517647 0.917647 0.505882 0.517647 0.917647 0.505882 
0.517647 0.917647 0.505882 0.517647 0.917647 0.505882 
0.517647 0.917647 0.505882 0.517647 0.917647 0.505882 
0.517647 0.917647 0.505882 0.517647 0.917647 0.505882 
0.517647 0.917647 0.505882 0.517647 0.917647 0.505882 
0.517647 0.917647 0.505882 0.517647 0.917647 0.505882 
0.517647 0.917647 0.505882 0.517647 0.917647 0.505882 
0.517647 0.917647 0.505882 0.517647 0.917647 0.505882 
0.517647 0.917647 0.505882 0.517647 0.917647 0.505882 
0.517647 0.917647 0.505882 0.517647 0.917647 0.505882 
0.517647 0.917647 0.505882 0.517647 0.917647 0.505882 
0.517647 0.917647 0.505882 0.517647 0.917647 0.505882 
0.517647 0.917647 0.505882 0.517647 0.917647 0.505882 
0.517647 0.917647 0.505882 0.517647 0.917647 0.505882 
0.517647 0.917647 0.505882 0.517647 0.917647 0.505882 
0.517647 0.917647 0.505882 0.517647 0.917647 0.505882 
0.517647 0.917647 0.505882 0.517647 0.917647 0.505882 
0.517647 0.917647 0.505882 0.517647 0.917647 0.505882 
0.517647 0.917647 0.505882 0.517647 0.917647 0.505882 
0.517647 0.917647 0.505882 0.517647 0.917647 0.505882 
0.517647 0.917647 0.505882 0.517647 0.917647 0.505882 
0.517647 0.917647 0.505882 0.517647 0.917647 0.505882 
0.517647 0.917647 0.505882 0.517647 0.917647 0.505882 
0.517647 0.917647 0.505882 0.517647 0.917647 0.505882 
0.517647 0.917647 0.505882 0.517647 0.917647 0.505882 
0.517647 0.917647 0.505882 0.517647 0.917647 0.505882 
0.517647 0.917647 0.505882 0.517647 0.917647 0.505882 
0.517647 0.917647 0.505882 0.517647 0.917647 0.505882 
0.517647 0.917647 0.505882 0.517647 0.917647 0.505882 
0.517647 0.917647 0.505882 0.517647 0.917647 0.505882 
0.517647 0.917647 0.505882 0.517647 0.917647 0.505882 
0.517647 0.917647 0.505882 0.517647 0.917647 0.505882 
0.517647 0.917647 0.505882 0.517647 0.917647 0.505882 
0.517647 0.917647 0.505882 0.517647 0.917647 0.505882 
0.517647 0.917647 0.505882 0.517647 0.917647 0.505882 
0.517647 0.917647 0.505882 0.517647 0.917647 0.505882 
0.517647 0.917647 0.505882 0.517647 0.917647 0.505882 
0.517647 0.917647 0.505882 0.517647 0.917647 0.505882 
0.517647 0.917647 0.505882 0.517647 0.917647 0.505882 
0.517647 0.917647 0.505882 0.517647 0.917647 0.505882 
0.517647 0.917647 0.505882 0.517647 0.917647 0.505882 
0.517647 0.917647 0.505882 0.517647 0.917647 0.505882 
0.517647 0.917647 0.505882 0.517647 0.917647 0.505882 
0.517647 0.917647 0.505882 0.517647 0.917647 0.505882 
0.517647 0.917647 0.505882 0.517647 0.917647 0.505882 
0.517647 0.917647 0.505882 0.517647 0.917647 0.505882 
0.517647 0.917647 0.505882 0.517647 0.917647 0.505882 
0.517647 0.917647 0.505882 0.517647 0.917647 0.505882 
0.517647 0.917647 0.505882 0.517647 0.917647 0.505882 
0.517647 0.917647 0.505882 0.517647 0.917647 0.505882 
0.517647 0.917647 0.505882 0.517647 0.917647 0.505882 
0.517647 0.917647 0.505882 0.517647 0.917647 0.505882 
0.517647 0.917647 0.505882 0.517647 0.917647 0.505882 
0.517647 0.917647 0.505882 0.517647 0.917647 0.505882 
0.517647 0.917647 0.505882 0.517647 0.917647 0.505882 
0.517647 0.917647 0.505882 0.517647 0.917647 0.505882 
0.517647 0.917647 0.505882 0.517647 0.917647 0.505882 
0.517647 0.917647 0.505882 0.517647 0.917647 0.505882 
0.517647 0.917647 0.505882 0.517647 0.917647 0.505882 
0.517647 0.917647 0.505882 0.517647 0.917647 0.505882 
0.517647 0.917647 0.505882 0.517647 0.917647 0.505882 
0.517647 0.917647 0.505882 0.517647 0.917647 0.505882 
0.517647 0.917647 0.505882 0.517647 0.917647 0.505882 
0.517647 0.917647 0.505882 0.517647 0.917647 0.505882 
0.517647 0.917647 0.505882 0.517647 0.917647 0.505882 
0.517647 0.917647 0.505882 0.517647 0.917647 0.505882 
0.517647 0.917647 0.505882 0.517647 0.917647 0.505882 
0.517647 0.917647 0.505882 0.517647 0.917647 0.505882 
0.517647 0.917647 0.505882 0.517647 0.917647 0.505882 
0.517647 0.917647 0.505882 0.517647 0.917647 0.505882 
0.517647 0.917647 0.505882 0.517647 0.917647 0.505882 
0.517647 0.917647 0.505882 0.517647 0.917647 0.505882 
0.517647 0.917647 0.505882 0.517647 0.917647 0.505882 
0.517647 0.917647 0.505882 0.517647 0.917647 0.505882 
0.517647 0.917647 0.505882 0.517647 0.917647 0.505882 
0.517647 0.917647 0.505882 0.517647 0.917647 0.505882 
0.517647 0.917647 0.505882 0.517647 0.917647 0.505882 
0.517647 0.917647 0.505882 0.517647 0.917647 0.505882 
0.517647 0.917647 0.505882 0.517647 0.917647 0.505882 
0.517647 0.917647 0.505882 0.517647 0.917647 0.505882 
0.517647 0.917647 0.505882 0.517647 0.917647 0.505882 
0.517647 0.917647 0.505882 0.517647 0.917647 0.505882 
0.517647 0.917647 0.505882 0.517647 0.917647 0.505882 
0.517647 0.917647 0.505882 0.517647 0.917647 0.505882 
0.517647 0.917647 0.505882 0.517647 0.917647 0.505882 
0.517647 0.917647 0.505882 0.517647 0.917647 0.505882 
0.517647 0.917647 0.505882 0.517647 0.917647 0.505882 
0.517647 0.917647 0.505882 0.517647 0.917647 0.505882 
0.517647 0.917647 0.505882 0.517647 0.917647 0.505882 
0.517647 0.917647 0.505882 0.517647 0.917647 0.505882 
0.517647 0.917647 0.505882 0.517647 0.917647 0.505882 
0.517647 0.917647 0.505882 0.517647 0.917647 0.505882 
0.517647 0.917647 0.505882 0.517647 0.917647 0.505882 
0.517647 0.917647 0.505882 0.517647 0.917647 0.505882 
0.517647 0.917647 0.505882 0.517647 0.917647 0.505882 
0.517647 0.917647 0.505882 0.517647 0.917647 0.505882 
0.517647 0.917647 0.505882 0.517647 0.917647 0.505882 
0.517647 0.917647 0.505882 0.517647 0.917647 0.505882 
0.517647 0.917647 0.505882 0.517647 0.917647 0.505882 
0.517647 0.917647 0.505882 0.517647 0.917647 0.505882 
0.517647 0.917647 0.505882 0.517647 0.917647 0.505882 
0.517647 0.917647 0.505882 0.517647 0.917647 0.505882 
0.517647 0.917647 0.505882 0.517647 0.917647 0.505882 
0.517647 0.917647 0.505882 0.517647 0.917647 0.505882 
0.517647 0.917647 0.505882 0.517647 0.917647 0.505882 
0.517647 0.917647 0.505882 0.517647 0.917647 0.505882 
0.517647 0.917647 0.505882 0.517647 0.917647 0.505882 
0.517647 0.917647 0.505882 0.517647 0.917647 0.505882 
0.517647 0.917647 0.505882 0.517647 0.917647 0.505882 
0.517647 0.917647 0.505882 0.517647 0.917647 0.505882 
0.517647 0.917647 0.505882 0.517647 0.917647 0.505882 
0.517647 0.917647 0.505882 0.517647 0.917647 0.505882 
0.517647 0.917647 0.505882 0.517647 0.917647 0.505882 
0.517647 0.917647 0.505882 0.517647 0.917647 0.505882 
0.517647 0.917647 0.505882 0.517647 0.917647 0.505882 
0.517647 0.917647 0.505882 0.517647 0.917647 0.505882 
0.517647 0.917647 0.505882 0.517647 0.917647 0.505882 
0.517647 0.917647 0.505882 0.517647 0.917647 0.505882 
0.517647 0.917647 0.505882 0.517647 0.917647 0.505882 
0.517647 0.917647 0.505882 0.517647 0.917647 0.505882 
0.517647 0.917647 0.505882 0.517647 0.917647 0.505882 
0.517647 0.917647 0.505882 0.517647 0.917647 0.505882 
0.517647 0.917647 0.505882 0.517647 0.917647 0.505882 
0.517647 0.917647 0.505882 0.517647 0.917647 0.505882 
0.517647 0.917647 0.505882 0.517647 0.917647 0.505882 
0.517647 0.917647 0.505882 0.517647 0.917647 0.505882 
0.517647 0.917647 0.505882 0.517647 0.917647 0.505882 
0.517647 0.917647 0.505882 0.517647 0.917647 0.505882 
0.517647 0.917647 0.505882 0.517647 0.917647 0.505882 
0.517647 0.917647 0.505882 0.517647 0.917647 0.505882 
0.517647 0.917647 0.505882 0.517647 0.917647 0.505882 
0.517647 0.917647 0.505882 0.517647 0.917647 0.505882 
0.517647 0.917647 0.505882 0.517647 0.917647 0.505882 
0.517647 0.917647 0.505882 0.517647 0.917647 0.505882 
0.517647 0.917647 0.505882 0.517647 0.917647 0.505882 
0.517647 0.917647 0.505882 0.517647 0.917647 0.505882 
0.517647 0.917647 0.505882 0.517647 0.917647 0.505882 
0.517647 0.917647 0.505882 0.517647 0.917647 0.505882 
0.517647 0.917647 0.505882 0.517647 0.917647 0.505882 
0.517647 0.917647 0.505882 0.517647 0.917647 0.505882 
0.517647 0.917647 0.505882 0.517647 0.917647 0.505882 
0.517647 0.917647 0.505882 0.517647 0.917647 0.505882 
0.517647 0.917647 0.505882 0.517647 0.917647 0.505882 
0.517647 0.917647 0.505882 0.517647 0.917647 0.505882 
0.517647 0.917647 0.505882 0.517647 0.917647 0.505882 
0.517647 0.917647 0.505882 0.517647 0.917647 0.505882 
0.517647 0.917647 0.505882 0.517647 0.917647 0.505882 
0.517647 0.917647 0.505882 0.517647 0.917647 0.505882 
0.517647 0.917647 0.505882 0.517647 0.917647 0.505882 
0.517647 0.917647 0.505882 0.517647 0.917647 0.505882 
0.517647 0.917647 0.505882 0.517647 0.917647 0.505882 
0.517647 0.917647 0.505882 0.517647 0.917647 0.505882 
0.517647 0.917647 0.505882 0.517647 0.917647 0.505882 
0.517647 0.917647 0.505882 0.517647 0.917647 0.505882 
0.517647 0.917647 0.505882 0.517647 0.917647 0.505882 
0.517647 0.917647 0.505882 0.517647 0.917647 0.505882 
0.517647 0.917647 0.505882 0.517647 0.917647 0.505882 
0.517647 0.917647 0.505882 0.517647 0.917647 0.505882 
0.517647 0.917647 0.505882 0.517647 0.917647 0.505882 
0.517647 0.917647 0.505882 0.517647 0.917647 0.505882 
0.517647 0.917647 0.505882 0.517647 0.917647 0.505882 
0.517647 0.917647 0.505882 0.517647 0.917647 0.505882 
0.517647 0.917647 0.505882 0.517647 0.917647 0.505882 
0.517647 0.917647 0.505882 0.517647 0.917647 0.505882 
0.517647 0.917647 0.505882 0.517647 0.917647 0.505882 
0.517647 0.917647 0.505882 0.517647 0.917647 0.505882 
0.517647 0.917647 0.505882 0.517647 0.917647 0.505882 
0.517647 0.917647 0.505882 0.517647 0.917647 0.505882 
0.517647 0.917647 0.505882 0.517647 0.917647 0.505882 
0.517647 0.917647 0.505882 0.517647 0.917647 0.505882 
0.517647 0.917647 0.505882 0.517647 0.917647 0.505882 
0.517647 0.917647 0.505882 0.517647 0.917647 0.505882 
0.517647 0.917647 0.505882 0.517647 0.917647 0.505882 
0.517647 0.917647 0.505882 0.517647 0.917647 0.505882 
0.517647 0.917647 0.505882 0.517647 0.917647 0.505882 
0.517647 0.917647 0.505882 0.517647 0.917647 0.505882 
0.517647 0.917647 0.505882 0.517647 0.917647 0.505882 
0.517647 0.917647 0.505882 0.517647 0.917647 0.505882 
0.517647 0.917647 0.505882 0.517647 0.917647 0.505882 
0.517647 0.917647 0.505882 0.517647 0.917647 0.505882 
0.517647 0.917647 0.505882 0.517647 0.917647 0.505882 
0.517647 0.917647 0.505882 0.517647 0.917647 0.505882 
0.517647 0.917647 0.505882 0.517647 0.917647 0.505882 
0.517647 0.917647 0.505882 0.517647 0.917647 0.505882 
0.517647 0.917647 0.505882 0.517647 0.917647 0.505882 
0.517647 0.917647 0.505882 0.517647 0.917647 0.505882 
0.517647 0.917647 0.505882 0.517647 0.917647 0.505882 
0.517647 0.917647 0.505882 0.517647 0.917647 0.505882 
0.517647 0.917647 0.505882 0.517647 0.917647 0.505882 
0.517647 0.917647 0.505882 0.517647 0.917647 0.505882 
0.517647 0.917647 0.505882 0.517647 0.917647 0.505882 
0.517647 0.917647 0.505882 0.517647 0.917647 0.505882 
0.517647 0.917647 0.505882 0.517647 0.917647 0.505882 
0.517647 0.917647 0.505882 0.517647 0.917647 0.505882 
0.517647 0.917647 0.505882 0.517647 0.917647 0.505882 
0.517647 0.917647 0.505882 0.517647 0.917647 0.505882 
0.517647 0.917647 0.505882 0.517647 0.917647 0.505882 
0.517647 0.917647 0.505882 0.517647 0.917647 0.505882 
0.517647 0.917647 0.505882 0.517647 0.917647 0.505882 
0.517647 0.917647 0.505882 0.517647 0.917647 0.505882 
0.517647 0.917647 0.505882 0.517647 0.917647 0.505882 
0.517647 0.917647 0.505882 0.517647 0.917647 0.505882 
0.517647 0.917647 0.505882 0.517647 0.917647 0.505882 
0.517647 0.917647 0.505882 0.517647 0.917647 0.505882 
0.517647 0.917647 0.505882 0.517647 0.917647 0.505882 
0.517647 0.917647 0.505882 0.517647 0.917647 0.505882 
0.517647 0.917647 0.505882 0.517647 0.917647 0.505882 
0.517647 0.917647 0.505882 0.517647 0.917647 0.505882 
0.517647 0.917647 0.505882 0.517647 0.917647 0.505882 
0.517647 0.917647 0.505882 0.517647 0.917647 0.505882 
0.517647 0.917647 0.505882 0.517647 0.917647 0.505882 
0.517647 0.917647 0.505882 0.517647 0.917647 0.505882 
0.517647 0.917647 0.505882 0.517647 0.917647 0.505882 
0.517647 0.917647 0.505882 0.517647 0.917647 0.505882 
0.517647 0.917647 0.505882 0.517647 0.917647 0.505882 
0.517647 0.917647 0.505882 0.517647 0.917647 0.505882 
0.517647 0.917647 0.505882 0.517647 0.917647 0.505882 
0.517647 0.917647 0.505882 0.517647 0.917647 0.505882 
0.517647 0.917647 0.505882 0.517647 0.917647 0.505882 
0.517647 0.917647 0.505882 0.517647 0.917647 0.505882 
0.517647 0.917647 0.505882 0.517647 0.917647 0.505882 
0.517647 0.917647 0.505882 0.517647 0.917647 0.505882 
0.517647 0.917647 0.505882 0.517647 0.917647 0.505882 
0.517647 0.917647 0.505882 0.517647 0.917647 0.505882 
0.517647 0.917647 0.505882 0.517647 0.917647 0.505882 
0.517647 0.917647 0.505882 0.517647 0.917647 0.505882 
0.517647 0.917647 0.505882 0.517647 0.917647 0.505882 
0.517647 0.917647 0.505882 0.517647 0.917647 0.505882 
0.517647 0.917647 0.505882 0.517647 0.917647 0.505882 
0.517647 0.917647 0.505882 0.517647 0.917647 0.505882 
0.517647 0.917647 0.505882 0.517647 0.917647 0.505882 
0.517647 0.917647 0.505882 0.517647 0.917647 0.505882 
0.517647 0.917647 0.505882 0.517647 0.917647 0.505882 
0.517647 0.917647 0.505882 0.517647 0.917647 0.505882 
0.517647 0.917647 0.505882 0.517647 0.917647 0.505882 
0.517647 0.917647 0.505882 0.517647 0.917647 0.505882 
0.517647 0.917647 0.505882 0.517647 0.917647 0.505882 
0.517647 0.917647 0.505882 0.517647 0.917647 0.505882 
0.517647 0.917647 0.505882 0.517647 0.917647 0.505882 
0.517647 0.917647 0.505882 0.517647 0.917647 0.505882 
0.517647 0.917647 0.505882 0.517647 0.917647 0.505882 
0.517647 0.917647 0.505882 0.517647 0.917647 0.505882 
0.517647 0.917647 0.505882 0.517647 0.917647 0.505882 
0.517647 0.917647 0.505882 0.517647 0.917647 0.505882 
0.517647 0.917647 0.505882 0.517647 0.917647 0.505882 
0.517647 0.917647 0.505882 0.517647 0.917647 0.505882 
0.517647 0.917647 0.505882 0.517647 0.917647 0.505882 
0.517647 0.917647 0.505882 0.517647 0.917647 0.505882 
0.517647 0.917647 0.505882 0.517647 0.917647 0.505882 
0.517647 0.917647 0.505882 0.517647 0.917647 0.505882 
0.517647 0.917647 0.505882 0.517647 0.917647 0.505882 
0.517647 0.917647 0.505882 0.517647 0.917647 0.505882 
0.517647 0.917647 0.505882 0.517647 0.917647 0.505882 
0.517647 0.917647 0.505882 0.517647 0.917647 0.505882 
0.517647 0.917647 0.505882 0.517647 0.917647 0.505882 
0.517647 0.917647 0.505882 0.517647 0.917647 0.505882 
0.517647 0.917647 0.505882 0.517647 0.917647 0.505882 
0.517647 0.917647 0.505882 0.517647 0.917647 0.505882 
0.517647 0.917647 0.505882 0.517647 0.917647 0.505882 
0.517647 0.917647 0.505882 0.517647 0.917647 0.505882 
0.517647 0.917647 0.505882 0.517647 0.917647 0.505882 
0.517647 0.917647 0.505882 0.517647 0.917647 0.505882 
0.517647 0.917647 0.505882 0.517647 0.917647 0.505882 
0.517647 0.917647 0.505882 0.517647 0.917647 0.505882 
0.517647 0.917647 0.505882 0.517647 0.917647 0.505882 
0.517647 0.917647 0.505882 0.517647 0.917647 0.505882 
0.517647 0.917647 0.505882 0.517647 0.917647 0.505882 
0.517647 0.917647 0.505882 0.517647 0.917647 0.505882 
0.517647 0.917647 0.505882 0.517647 0.917647 0.505882 
0.517647 0.917647 0.505882 0.517647 0.917647 0.505882 
0.517647 0.917647 0.505882 0.517647 0.917647 0.505882 
0.517647 0.917647 0.505882 0.517647 0.917647 0.505882 
0.517647 0.917647 0.505882 0.517647 0.917647 0.505882 
0.517647 0.917647 0.505882 0.517647 0.917647 0.505882 
0.517647 0.917647 0.505882 0.517647 0.917647 0.505882 
0.517647 0.917647 0.505882 0.517647 0.917647 0.505882 
0.517647 0.917647 0.505882 0.517647 0.917647 0.505882 
0.517647 0.917647 0.505882 0.517647 0.917647 0.505882 
0.517647 0.917647 0.505882 0.517647 0.917647 0.505882 
0.517647 0.917647 0.505882 0.517647 0.917647 0.505882 
0.517647 0.917647 0.505882 0.517647 0.917647 0.505882 
0.517647 0.917647 0.505882 0.517647 0.917647 0.505882 
0.517647 0.917647 0.505882 0.517647 0.917647 0.505882 
0.517647 0.917647 0.505882 0.517647 0.917647 0.505882 
0.517647 0.917647 0.505882 0.517647 0.917647 0.505882 
0.517647 0.917647 0.505882 0.517647 0.917647 0.505882 
0.517647 0.917647 0.505882 0.517647 0.917647 0.505882 
0.517647 0.917647 0.505882 0.517647 0.917647 0.505882 
0.517647 0.917647 0.505882 0.517647 0.917647 0.505882 
0.517647 0.917647 0.505882 0.517647 0.917647 0.505882 
0.517647 0.917647 0.505882 0.517647 0.917647 0.505882 
0.517647 0.917647 0.505882 0.517647 0.917647 0.505882 
0.517647 0.917647 0.505882 0.517647 0.917647 0.505882 
0.517647 0.917647 0.505882 0.517647 0.917647 0.505882 
0.517647 0.917647 0.505882 0.517647 0.917647 0.505882 
0.517647 0.917647 0.505882 0.517647 0.917647 0.505882 
0.517647 0.917647 0.505882 0.517647 0.917647 0.505882 
0.517647 0.917647 0.505882 0.517647 0.917647 0.505882 
0.517647 0.917647 0.505882 0.517647 0.917647 0.505882 
0.517647 0.917647 0.505882 0.517647 0.917647 0.505882 
0.517647 0.917647 0.505882 0.517647 0.917647 0.505882 
0.517647 0.917647 0.505882 0.517647 0.917647 0.505882 
0.517647 0.917647 0.505882 0.517647 0.917647 0.505882 
0.517647 0.917647 0.505882 0.517647 0.917647 0.505882 
0.517647 0.917647 0.505882 0.517647 0.917647 0.505882 
0.517647 0.917647 0.505882 0.517647 0.917647 0.505882 
0.517647 0.917647 0.505882 0.517647 0.917647 0.505882 
0.517647 0.917647 0.505882 0.517647 0.917647 0.505882 
0.517647 0.917647 0.505882 0.517647 0.917647 0.505882 
0.517647 0.917647 0.505882 0.517647 0.917647 0.505882 
0.517647 0.917647 0.505882 0.517647 0.917647 0.505882 
0.517647 0.917647 0.505882 0.517647 0.917647 0.505882 
0.517647 0.917647 0.505882 0.517647 0.917647 0.505882 
0.517647 0.917647 0.505882 0.517647 0.917647 0.505882 
0.517647 0.917647 0.505882 0.517647 0.917647 0.505882 
0.517647 0.917647 0.505882 0.517647 0.917647 0.505882 
0.517647 0.917647 0.505882 0.517647 0.917647 0.505882 
0.517647 0.917647 0.505882 0.517647 0.917647 0.505882 
0.517647 0.917647 0.505882 0.517647 0.917647 0.505882 
0.517647 0.917647 0.505882 0.517647 0.917647 0.505882 
0.517647 0.917647 0.505882 0.517647 0.917647 0.505882 
0.517647 0.917647 0.505882 0.517647 0.917647 0.505882 
0.517647 0.917647 0.505882 0.517647 0.917647 0.505882 
0.517647 0.917647 0.505882 0.517647 0.917647 0.505882 
0.517647 0.917647 0.505882 0.517647 0.917647 0.505882 
0.517647 0.917647 0.505882 0.517647 0.917647 0.505882 
0.517647 0.917647 0.505882 0.517647 0.917647 0.505882 
0.517647 0.917647 0.505882 0.517647 0.917647 0.505882 
0.517647 0.917647 0.505882 0.517647 0.917647 0.505882 
0.517647 0.917647 0.505882 0.517647 0.917647 0.505882 
0.517647 0.917647 0.505882 0.517647 0.917647 0.505882 
0.517647 0.917647 0.505882 0.517647 0.917647 0.505882 
0.517647 0.917647 0.505882 0.517647 0.917647 0.505882 
0.517647 0.917647 0.505882 0.517647 0.917647 0.505882 
0.517647 0.917647 0.505882 0.517647 0.917647 0.505882 
0.517647 0.917647 0.505882 0.517647 0.917647 0.505882 
0.517647 0.917647 0.505882 0.517647 0.917647 0.505882 
0.517647 0.917647 0.505882 0.517647 0.917647 0.505882 
0.517647 0.917647 0.505882 0.517647 0.917647 0.505882 
0.517647 0.917647 0.505882 0.517647 0.917647 0.505882 
0.517647 0.917647 0.505882 0.517647 0.917647 0.505882 
0.517647 0.917647 0.505882 0.517647 0.917647 0.505882 
0.517647 0.917647 0.505882 0.517647 0.917647 0.505882 
0.517647 0.917647 0.505882 0.517647 0.917647 0.505882 
0.517647 0.917647 0.505882 0.517647 0.917647 0.505882 
0.517647 0.917647 0.505882 0.517647 0.917647 0.505882 
0.517647 0.917647 0.505882 0.517647 0.917647 0.505882 
0.517647 0.917647 0.505882 0.517647 0.917647 0.505882 
0.517647 0.917647 0.505882 0.517647 0.917647 0.505882 
0.517647 0.917647 0.505882 0.517647 0.917647 0.505882 
0.517647 0.917647 0.505882 0.517647 0.917647 0.505882 
0.517647 0.917647 0.505882 0.517647 0.917647 0.505882 
0.517647 0.917647 0.505882 0.517647 0.917647 0.505882 
0.517647 0.917647 0.505882 0.517647 0.917647 0.505882 
0.517647 0.917647 0.505882 0.517647 0.917647 0.505882 
0.517647 0.917647 0.505882 0.517647 0.917647 0.505882 
0.517647 0.917647 0.505882 0.517647 0.917647 0.505882 