# vtk DataFile Version 4.2
vtk output
ASCII
DATASET POLYDATA
POINTS 767 float
272.167 255.588 106.255 273.638 255.344 106.42 269.626 257.408 105.946 
266.773 258.51 106.046 265.894 260.655 105.786 262.225 261.706 106.256 
263.401 265.121 105.686 266.63 266.514 105.694 264.004 267.738 105.795 
272.855 252.739 107.421 276.863 253.45 108.093 277.039 254.89 107.798 
274.957 257.298 106.562 260.509 260.277 107.534 262.951 268.846 106.115 
269.861 270.867 107.038 268.797 272.683 107.316 274.802 251.77 108.264 
270.302 252.165 107.902 276.006 252.421 108.203 265.869 254.174 108.317 
259.282 260.188 108.462 263.502 274.329 107.908 265.32 275.544 108.532 
274.332 250.347 109.412 267.48 251.645 109.067 268.924 250.647 109.276 
276.084 251.324 109.329 266.602 251.763 109.437 266.299 251.955 109.567 
264.023 255.158 109.641 278.87 255.515 109.26 259.295 259.816 108.936 
256.1 270.896 108.739 269.348 275.391 108.872 264.424 276.173 109.234 
268.348 249.837 110.108 279.59 255.407 110.178 257.339 260.278 110.31 
255.35 261.21 110.658 251.325 266.222 109.987 255.315 273.798 110.256 
270.41 276.305 110.226 267.265 249.352 111.228 275.608 249.678 111.136 
264.756 252.894 111.434 251.524 262.075 111.476 250.581 263.871 110.752 
283.227 266.605 111.17 284.3 266.971 111.901 249.886 270.187 111.154 
276.886 271.977 110.438 252.112 272.916 111.186 258.295 276.576 111.564 
263.912 277.462 111.17 267.857 248.107 112.353 270.953 246.859 112.758 
272.554 247.131 112.697 267.686 248.66 111.752 277.555 250.884 112.209 
279.738 253.77 112.229 261.166 257.627 111.611 259.409 258.801 111.728 
254.241 260.712 112.525 247.923 262.49 112.278 248.226 266.784 111.366 
284.838 267.622 112.622 281.68 270.254 111.547 249.474 272.051 112.116 
250.358 272.923 112.132 280.994 272.254 112.54 280.085 272.882 112.538 
253.511 274.65 111.692 269.388 277.375 111.661 267.815 277.752 112.151 
269.878 246.57 113.322 271.374 246.468 113.303 249.242 260.549 113.648 
252.319 260.595 113.503 254.981 260.313 113.21 245.871 262.283 112.945 
244.925 263.449 112.999 285.373 264.765 113.006 284.153 269.573 112.922 
284.721 270.119 114.104 247.156 271.946 113.392 281.191 273.076 113.621 
250.07 274.619 113.81 280.878 273.353 113.817 251.435 275.029 113.478 
275.598 275.524 113.17 259.303 277.497 113.028 266.773 277.91 112.931 
271.163 245.83 114.353 268.927 246.263 114.513 265.717 250.234 113.98 
262.163 256.706 113.794 243.863 260.492 114.13 251.291 260.175 114.318 
243.4 264.963 113.575 285.792 268.214 114.63 285.347 269.736 115.173 
281.752 273.044 114.293 279.834 274.027 114.453 252.445 276.015 114.523 
256.675 277.119 114.33 272.076 245.698 115.131 276.618 248.821 115.383 
243.029 258.395 115.297 245.012 258.316 115.12 286.565 265.322 115.465 
242.38 269.107 114.983 243.265 270.679 115.187 282.728 272.542 114.785 
258.979 277.651 114.558 268.682 246.217 115.974 269.594 245.787 116.56 
273.8 246.388 116.164 267.191 247.77 115.884 264.234 254.662 116.057 
262.333 256.731 115.61 250.211 258.753 116.049 286.607 263.752 116.185 
285.88 269.217 116.634 285.085 270.496 116.29 244.819 273.098 116.383 
275.938 275.769 115.67 251 275.985 116.657 256.214 277.112 115.941 
271.425 245.481 116.619 272.606 245.75 116.954 241.014 256.148 117.292 
260.574 257.975 117.186 252.263 258.952 116.951 286.935 263.912 117.307 
286.988 265.535 117.513 236.972 266.376 117.279 241.069 271.587 117.645 
242.212 272.441 117.874 283.613 272.054 117.397 244.994 273.553 117.109 
269.842 245.86 118.072 270.861 245.522 117.535 268.74 246.67 118.173 
268.263 247.025 117.904 267.437 247.791 117.206 264.538 254.996 118.252 
285.595 259.736 117.387 235.632 260.988 117.604 243.491 273.268 118.331 
244.102 273.624 118.642 244.952 273.904 118.524 256.517 276.929 117.38 
273.471 276.214 117.212 271.937 245.695 118.42 242.471 254.284 118.939 
235.162 256.803 119.311 254.072 259.006 117.769 258.25 258.641 118.541 
286.935 266.473 119.621 286.526 267.877 119.069 234.761 267.926 119.494 
284.616 271.031 119.095 244.977 273.985 119.395 247.822 274.928 118.812 
269.972 246.429 119.671 267.652 250.379 120.473 260.602 257.723 120.11 
234.638 268.608 120.119 235.151 269.598 120.751 244.665 273.886 119.986 
247.368 274.584 119.895 252.356 275.837 119.342 272.334 246.371 120.601 
274.825 247.286 120.849 239.503 253.315 121.24 267.012 252.394 121.325 
232.163 257.048 121.524 256.898 258.298 119.915 230.198 262.077 121.508 
287.089 264.893 121.015 285.286 269.726 121.323 236.347 270.627 121.195 
238.018 271.669 121.786 240.592 272.583 120.926 278.104 274.081 120.187 
255.778 275.644 120.849 266.164 276.045 120.136 247.877 252.326 122.234 
250.087 253.25 121.627 236.246 254.231 121.675 232.392 256.23 122.266 
254.358 256.14 121.617 255.531 256.993 121.561 229.607 260.337 122.706 
231.82 267.668 121.857 233.791 269.77 122.806 243.197 251.677 123.675 
248.65 251.832 123.387 234.749 254.496 122.818 228.56 262.533 123.634 
229.24 265.524 123.092 286.768 265.661 122.476 286.69 265.41 122.938 
284.982 269.527 122.749 235.799 270.843 122.989 246.343 273.473 123.016 
273.203 247.456 123.236 279.904 251.13 123.223 241.376 251.948 123.62 
249.983 251.675 124.257 234.871 254.176 124.549 266.583 253.871 124.347 
257.881 256.625 123.229 260.081 256.744 123.649 260.893 257.07 122.686 
286.669 261.044 123.088 228.405 261.752 124.409 228.186 264.048 124.337 
283.238 270.444 123.973 236.184 271.074 124.164 238.025 271.724 123.657 
279.633 272.198 123.581 259.584 274.455 123.68 274.65 248.256 124.217 
244.782 251.148 125.056 248.388 250.993 125.608 239.341 252.23 124.945 
240.87 251.736 125.526 236.895 253.16 125.512 283.27 254.26 123.96 
231.578 256.443 125.17 258.326 255.543 124.928 259.083 255.803 125.046 
285.722 258.686 124.399 228.204 261.858 125.088 227.84 262.777 125.363 
286.241 262.295 124.605 286.563 262.96 123.906 284.432 269.044 124.675 
271.746 248.409 124.871 244.62 250.909 126.727 232.647 255.711 126.092 
230.292 257.904 125.539 263.811 255.706 126.051 228.374 266.608 126.068 
284.515 268.176 125.364 236.899 271.132 125.461 281.555 270.544 125.126 
270.919 249.74 126.176 274.802 249.562 126.247 247.235 250.713 127.29 
241.627 251.573 127.145 282.85 254.492 125.679 266.885 254.327 127.243 
284.118 257.266 126.448 230.204 258.17 126.236 284.736 259.287 126.391 
284.36 266.053 126.381 228.817 267.442 126.964 283.557 267.732 126.376 
229.909 268.457 127.219 241.983 271.219 127.495 272.794 271.637 126.804 
272.071 249.819 126.572 275.2 250.866 127.377 246.227 250.762 128.207 
255.963 252.265 127.404 239.276 252.711 128.248 281.879 254.356 126.553 
231.519 257.298 127.465 282.896 258.237 127.612 228.723 261.309 128.255 
284.28 262.524 126.969 227.922 266.251 128.476 276.459 269.708 127.665 
273.702 270.857 127.443 268.665 271.68 127.938 269.915 271.916 127.24 
243.538 251.312 129.028 272.546 251.815 128.378 273.694 252.785 128.82 
259.62 253.766 128.72 278.227 253.253 127.865 274.618 254.697 129.223 
260.895 254.537 128.768 267.501 254.612 128.616 261.871 255.032 128.688 
265.001 255.339 128.1 281.455 255.873 127.728 281.531 257.658 128.1 
229.861 259.892 128.553 227.782 263.249 128.32 276.485 262.371 129.356 
227.532 264.655 128.282 227.589 265.166 128.577 280.909 265.05 128.256 
274.082 268.914 128.738 232.984 269.759 129.055 236.626 270.327 128.616 
269.465 270.893 128.697 254.922 251.374 129.449 267.679 255.082 129.298 
265.411 255.581 129.622 227.688 265.255 129.259 227.974 266.163 129.755 
230.357 268.463 130.179 242.126 270.226 129.553 269.866 269.754 129.621 
249.637 250.966 130.434 252.202 251.003 130.144 255.401 251.595 130.592 
258.408 252.683 130.151 262.935 255.13 130.151 263.457 255.311 129.623 
266.056 256.045 130.488 268.26 256.234 130.391 270.844 257.014 130.341 
231.328 260.009 130.906 270.343 263.245 131.188 271.816 262.681 130.64 
227.973 265.06 130.194 229.128 266.976 131.18 237.712 269.437 130.727 
246.04 269.97 130.604 267.016 269.789 130.54 258.344 252.693 131.329 
243.163 252.932 132.043 261.58 254.59 131.878 264.224 256 131.604 
238.801 255.249 131.931 266.169 257.11 131.677 266.898 257.306 131.47 
266.947 257.892 131.795 267.184 258.545 131.953 229.431 263.061 131.573 
228.691 266.514 131.002 268.438 266.938 131.507 267.712 267.703 131.559 
231.341 268.574 131.276 240.565 268.46 131.773 245.693 268.989 131.6 
236.4 269.014 131.449 251.878 270.477 132.027 251.227 251.502 131.806 
257.83 252.577 131.666 261.681 254.927 132.514 265.13 258.313 132.904 
266.592 258.843 132.321 229.425 263.901 132.018 228.708 265.878 131.401 
245.908 267.015 132.93 264.958 267.155 132.932 230.124 267.086 132.509 
244.606 267.792 132.294 245.701 267.868 132.423 231.708 268.113 132.22 
260.62 269.87 132.517 251.038 252.932 133.813 244.876 253.604 133.672 
262.385 256.133 133.404 243.291 262.953 134.432 245.154 262.858 134.547 
230.252 263.921 132.919 263.732 265.918 133.884 229.736 266.357 132.526 
238.411 266.71 133.467 230.426 267.185 132.674 230.682 267.05 132.934 
236.604 267.386 133.355 250.031 267.63 134.519 249.692 254.254 134.823 
253.866 253.875 134.644 258.388 254.493 134.427 240.88 256.025 133.862 
238.935 257.097 133.701 233.605 261.249 134.045 240.363 261.831 134.97 
231.487 263.035 133.638 237.069 264.438 134.988 231.441 265.908 133.831 
231.855 266.114 133.99 232.115 267.027 133.464 250.487 266.945 135.301 
244.674 255.266 134.843 247.543 255.161 135.3 238.923 258.471 134.375 
239.882 257.904 134.483 241.039 258.758 135.112 247.024 260.634 135.756 
236.377 262.265 135.247 235.004 262.585 135.22 236.125 263.487 135.356 
236.221 262.986 135.375 233.391 263.734 135.014 235.164 264.701 135.26 
235.417 264.305 135.331 233.188 264.831 134.926 260.361 266.893 135.246 
253.715 256.914 136.63 257.015 257.979 136.766 235.722 263.105 135.391 
258.292 263.34 137.098 234.773 263.742 135.385 234.166 264.35 135.301 
251.099 265.888 136.323 256.806 267.797 136.407 252.382 258.464 137.141 
256.82 261.52 137.653 251.167 264.158 136.889 252.928 267.121 136.856 
[...]
POINT_DATA 767
COLOR_SCALARS scalars 3
0.517647 0.917647 0.505882 0.517647 0.917647 0.505882 0.517647 0.917647 0.505882 
0.517647 0.917647 0.505882 0.517647 0.917647 0.505882 
0.517647 0.917647 0.505882 0.517647 0.917647 0.505882 
0.517647 0.917647 0.505882 0.517647 0.917647 0.505882 
0.517647 0.917647 0.505882 0.517647 0.917647 0.505882 
0.517647 0.917647 0.505882 0.517647 0.917647 0.505882 
0.517647 0.917647 0.505882 0.517647 0.917647 0.505882 
0.517647 0.917647 0.505882 0.517647 0.917647 0.505882 
0.517647 0.917647 0.505882 0.517647 0.917647 0.505882 
0.517647 0.917647 0.505882 0.517647 0.917647 0.505882 
0.517647 0.917647 0.505882 0.517647 0.917647 0.505882 
0.517647 0.917647 0.505882 0.517647 0.917647 0.505882 
0.517647 0.917647 0.505882 0.517647 0.917647 0.505882 
0.517647 0.917647 0.505882 0.517647 0.917647 0.505882 
0.517647 0.917647 0.505882 0.517647 0.917647 0.505882 
0.517647 0.917647 0.505882 0.517647 0.917647 0.505882 
0.517647 0.917647 0.505882 0.517647 0.917647 0.505882 
0.517647 0.917647 0.505882 0.517647 0.917647 0.505882 
0.517647 0.917647 0.505882 0.517647 0.917647 0.505882 
0.517647 0.917647 0.505882 0.517647 0.917647 0.505882 
0.517647 0.917647 0.505882 0.517647 0.917647 0.505882 
0.517647 0.917647 0.505882 0.517647 0.917647 0.505882 
0.517647 0.917647 0.505882 0.517647 0.917647 0.505882 
0.517647 0.917647 0.505882 0.517647 0.917647 0.505882 
0.517647 0.917647 0.505882 0.517647 0.917647 0.505882 
0.517647 0.917647 0.505882 0.517647 0.917647 0.505882 
0.517647 0.917647 0.505882 0.517647 0.917647 0.505882 
0.517647 0.917647 0.505882 0.517647 0.917647 0.505882 
0.517647 0.917647 0.505882 0.517647 0.917647 0.505882 
0.517647 0.917647 0.505882 0.517647 0.917647 0.505882 
0.517647 0.917647 0.505882 0.517647 0.917647 0.505882 
0.517647 0.917647 0.505882 0.517647 0.917647 0.505882 
0.517647 0.917647 0.505882 0.517647 0.917647 0.505882 
0.517647 0.917647 0.505882 0.517647 0.917647 0.505882 
0.517647 0.917647 0.505882 0.517647 0.917647 0.505882 
0.517647 0.917647 0.505882 0.517647 0.917647 0.505882 
0.517647 0.917647 0.505882 0.517647 0.917647 0.505882 
0.517647 0.917647 0.505882 0.517647 0.917647 0.505882 
0.517647 0.917647 0.505882 0.517647 0.917647 0.505882 
0.517647 0.917647 0.505882 0.517647 0.917647 0.505882 
0.517647 0.917647 0.505882 0.517647 0.917647 0.505882 
0.517647 0.917647 0.505882 0.517647 0.917647 0.505882 
0.517647 0.917647 0.505882 0.517647 0.917647 0.505882 
0.517647 0.917647 0.505882 0.517647 0.917647 0.505882 
0.517647 0.917647 0.505882 0.517647 0.917647 0.505882 
0.517647 0.917647 0.505882 0.517647 0.917647 0.505882 
0.517647 0.917647 0.505882 0.517647 0.917647 0.505882 
0.517647 0.917647 0.505882 0.517647 0.917647 0.505882 
0.517647 0.917647 0.505882 0.517647 0.917647 0.505882 
0.517647 0.917647 0.505882 0.517647 0.917647 0.505882 
0.517647 0.917647 0.505882 0.517647 0.917647 0.505882 
0.517647 0.917647 0.505882 0.517647 0.917647 0.505882 
0.517647 0.917647 0.505882 0.517647 0.917647 0.505882 
0.517647 0.917647 0.505882 0.517647 0.917647 0.505882 
0.517647 0.917647 0.505882 0.517647 0.917647 0.505882 
0.517647 0.917647 0.505882 0.517647 0.917647 0.505882 
0.517647 0.917647 0.505882 0.517647 0.917647 0.505882 
0.517647 0.917647 0.505882 0.517647 0.917647 0.505882 
0.517647 0.917647 0.505882 0.517647 0.917647 0.505882 
0.517647 0.917647 0.505882 0.517647 0.917647 0.505882 
0.517647 0.917647 0.505882 0.517647 0.917647 0.505882 
0.517647 0.917647 0.505882 0.517647 0.917647 0.505882 
0.517647 0.917647 0.505882 0.517647 0.917647 0.505882 
0.517647 0.917647 0.505882 0.517647 0.917647 0.505882 
0.517647 0.917647 0.505882 0.517647 0.917647 0.505882 
0.517647 0.917647 0.505882 0.517647 0.917647 0.505882 
0.517647 0.917647 0.505882 0.517647 0.917647 0.505882 
0.517647 0.917647 0.505882 0.517647 0.917647 0.505882 
0.517647 0.917647 0.505882 0.517647 0.917647 0.505882 
0.517647 0.917647 0.505882 0.517647 0.917647 0.505882 
0.517647 0.917647 0.505882 0.517647 0.917647 0.505882 
0.517647 0.917647 0.505882 0.517647 0.917647 0.505882 
0.517647 0.917647 0.505882 0.517647 0.917647 0.505882 
0.517647 0.917647 0.505882 0.517647 0.917647 0.505882 
0.517647 0.917647 0.505882 0.517647 0.917647 0.505882 
0.517647 0.917647 0.505882 0.517647 0.917647 0.505882 
0.517647 0.917647 0.505882 0.517647 0.917647 0.505882 
0.517647 0.917647 0.505882 0.517647 0.917647 0.505882 
0.517647 0.917647 0.505882 0.517647 0.917647 0.505882 
0.517647 0.917647 0.505882 0.517647 0.917647 0.505882 
0.517647 0.917647 0.505882 0.517647 0.917647 0.505882 
0.517647 0.917647 0.505882 0.517647 0.917647 0.505882 
0.517647 0.917647 0.505882 0.517647 0.917647 0.505882 
0.517647 0.917647 0.505882 0.517647 0.917647 0.505882 
0.517647 0.917647 0.505882 0.517647 0.917647 0.505882 
0.517647 0.917647 0.505882 0.517647 0.917647 0.505882 
0.517647 0.917647 0.505882 0.517647 0.917647 0.505882 
0.517647 0.917647 0.505882 0.517647 0.917647 0.505882 
0.517647 0.917647 0.505882 0.517647 0.917647 0.505882 
0.517647 0.917647 0.505882 0.517647 0.917647 0.505882 
0.517647 0.917647 0.505882 0.517647 0.917647 0.505882 
0.517647 0.917647 0.505882 0.517647 0.917647 0.505882 
0.517647 0.917647 0.505882 0.517647 0.917647 0.505882 
0.517647 0.917647 0.505882 0.517647 0.917647 0.505882 
0.517647 0.917647 0.505882 0.517647 0.917647 0.505882 
0.517647 0.917647 0.505882 0.517647 0.917647 0.505882 
0.517647 0.917647 0.505882 0.517647 0.917647 0.505882 
0.517647 0.917647 0.505882 0.517647 0.917647 0.505882 
0.517647 0.917647 0.505882 0.517647 0.917647 0.505882 
0.517647 0.917647 0.505882 0.517647 0.917647 0.505882 
0.517647 0.917647 0.505882 0.517647 0.917647 0.505882 
0.517647 0.917647 0.505882 0.517647 0.917647 0.505882 
0.517647 0.917647 0.505882 0.517647 0.917647 0.505882 
0.517647 0.917647 0.505882 0.517647 0.917647 0.505882 
0.517647 0.917647 0.505882 0.517647 0.917647 0.505882 
0.517647 0.917647 0.505882 0.517647 0.917647 0.505882 
0.517647 0.917647 0.505882 0.517647 0.917647 0.505882 
0.517647 0.917647 0.505882 0.517647 0.917647 0.505882 
0.517647 0.917647 0.505882 0.517647 0.917647 0.505882 
0.517647 0.917647 0.505882 0.517647 0.917647 0.505882 
0.517647 0.917647 0.505882 0.517647 0.917647 0.505882 
0.517647 0.917647 0.505882 0.517647 0.917647 0.505882 
0.517647 0.917647 0.505882 0.517647 0.917647 0.505882 
0.517647 0.917647 0.505882 0.517647 0.917647 0.505882 
0.517647 0.917647 0.505882 0.517647 0.917647 0.505882 
0.517647 0.917647 0.505882 0.517647 0.917647 0.505882 
0.517647 0.917647 0.505882 0.517647 0.917647 0.505882 
0.517647 0.917647 0.505882 0.517647 0.917647 0.505882 
0.517647 0.917647 0.505882 0.517647 0.917647 0.505882 
0.517647 0.917647 0.505882 0.517647 0.917647 0.505882 
0.517647 0.917647 0.505882 0.517647 0.917647 0.505882 
0.517647 0.917647 0.505882 0.517647 0.917647 0.505882 
0.517647 0.917647 0.505882 0.517647 0.917647 0.505882 
0.517647 0.917647 0.505882 0.517647 0.917647 0.505882 
0.517647 0.917647 0.505882 0.517647 0.917647 0.505882 
0.517647 0.917647 0.505882 0.517647 0.917647 0.505882 
0.517647 0.917647 0.505882 0.517647 0.917647 0.505882 
0.517647 0.917647 0.505882 0.517647 0.917647 0.505882 
0.517647 0.917647 0.505882 0.517647 0.917647 0.505882 
0.517647 0.917647 0.505882 0.517647 0.917647 0.505882 
0.517647 0.917647 0.505882 0.517647 0.917647 0.505882 
0.517647 0.917647 0.505882 0.517647 0.917647 0.505882 
0.517647 0.917647 0.505882 0.517647 0.917647 0.505882 
0.517647 0.917647 0.505882 0.517647 0.917647 0.505882 
0.517647 0.917647 0.505882 0.517647 0.917647 0.505882 
0.517647 0.917647 0.505882 0.517647 0.917647 0.505882 
0.517647 0.917647 0.505882 0.517647 0.917647 0.505882 
0.517647 0.917647 0.505882 0.517647 0.917647 0.505882 
0.517647 0.917647 0.505882 0.517647 0.917647 0.505882 
0.517647 0.917647 0.505882 0.517647 0.917647 0.505882 
0.517647 0.917647 0.505882 0.517647 0.917647 0.505882 
0.517647 0.917647 0.505882 0.517647 0.917647 0.505882 
0.517647 0.917647 0.505882 0.517647 0.917647 0.505882 
0.517647 0.917647 0.505882 0.517647 0.917647 0.505882 
0.517647 0.917647 0.505882 0.517647 0.917647 0.505882 
0.517647 0.917647 0.505882 0.517647 0.917647 0.505882 
0.517647 0.917647 0.505882 0.517647 0.917647 0.505882 
0.517647 0.917647 0.505882 0.517647 0.917647 0.505882 
0.517647 0.917647 0.505882 0.517647 0.917647 0.505882 
0.517647 0.917647 0.505882 0.517647 0.917647 0.505882 
0.517647 0.917647 0.505882 0.517647 0.917647 0.505882 
0.517647 0.917647 0.505882 0.517647 0.917647 0.505882 
0.517647 0.917647 0.505882 0.517647 0.917647 0.505882 
0.517647 0.917647 0.505882 0.517647 0.917647 0.505882 
0.517647 0.917647 0.505882 0.517647 0.917647 0.505882 
0.517647 0.917647 0.505882 0.517647 0.917647 0.505882 
0.517647 0.917647 0.505882 0.517647 0.917647 0.505882 
0.517647 0.917647 0.505882 0.517647 0.917647 0.505882 
0.517647 0.917647 0.505882 0.517647 0.917647 0.505882 
0.517647 0.917647 0.505882 0.517647 0.917647 0.505882 
0.517647 0.917647 0.505882 0.517647 0.917647 0.505882 
0.517647 0.917647 0.505882 0.517647 0.917647 0.505882 
0.517647 0.917647 0.505882 0.517647 0.917647 0.505882 
0.517647 0.917647 0.505882 0.517647 0.917647 0.505882 
0.517647 0.917647 0.505882 0.517647 0.917647 0.505882 
0.517647 0.917647 0.505882 0.517647 0.917647 0.505882 
0.517647 0.917647 0.505882 0.517647 0.917647 0.505882 
0.517647 0.917647 0.505882 0.517647 0.917647 0.505882 
0.517647 0.917647 0.505882 0.517647 0.917647 0.505882 
0.517647 0.917647 0.505882 0.517647 0.917647 0.505882 
0.517647 0.917647 0.505882 0.517647 0.917647 0.505882 
0.517647 0.917647 0.505882 0.517647 0.917647 0.505882 
0.517647 0.917647 0.505882 0.517647 0.917647 0.505882 
0.517647 0.917647 0.505882 0.517647 0.917647 0.505882 
0.517647 0.917647 0.505882 0.517647 0.917647 0.505882 
0.517647 0.917647 0.505882 0.517647 0.917647 0.505882 
0.517647 0.917647 0.505882 0.517647 0.917647 0.505882 
0.517647 0.917647 0.505882 0.517647 0.917647 0.505882 
0.517647 0.917647 0.505882 0.517647 0.917647 0.505882 
0.517647 0.917647 0.505882 0.517647 0.917647 0.505882 
0.517647 0.917647 0.505882 0.517647 0.917647 0.505882 
0.517647 0.917647 0.505882 0.517647 0.917647 0.505882 
0.517647 0.917647 0.505882 0.517647 0.917647 0.505882 
0.517647 0.917647 0.505882 0.517647 0.917647 0.505882 
0.517647 0.917647 0.505882 0.517647 0.917647 0.505882 
0.517647 0.917647 0.505882 0.517647 0.917647 0.505882 
0.517647 0.917647 0.505882 0.517647 0.917647 0.505882 
0.517647 0.917647 0.505882 0.517647 0.917647 0.505882 
0.517647 0.917647 0.505882 0.517647 0.917647 0.505882 
0.517647 0.917647 0.505882 0.517647 0.917647 0.505882 
0.517647 0.917647 0.505882 0.517647 0.917647 0.505882 
0.517647 0.917647 0.505882 0.517647 0.917647 0.505882 
0.517647 0.917647 0.505882 0.517647 0.917647 0.505882 
0.517647 0.917647 0.505882 0.517647 0.917647 0.505882 
0.517647 0.917647 0.505882 0.517647 0.917647 0.505882 
0.517647 0.917647 0.505882 0.517647 0.917647 0.505882 
0.517647 0.917647 0.505882 0.517647 0.917647 0.505882 
0.517647 0.917647 0.505882 0.517647 0.917647 0.505882 
0.517647 0.917647 0.505882 0.517647 0.917647 0.505882 
0.517647 0.917647 0.505882 0.517647 0.917647 0.505882 
0.517647 0.917647 0.505882 0.517647 0.917647 0.505882 
0.517647 0.917647 0.505882 0.517647 0.917647 0.505882 
0.517647 0.917647 0.505882 0.517647 0.917647 0.505882 
0.517647 0.917647 0.505882 0.517647 0.917647 0.505882 
0.517647 0.917647 0.505882 0.517647 0.917647 0.505882 
0.517647 0.917647 0.505882 0.517647 0.917647 0.505882 
0.517647 0.917647 0.505882 0.517647 0.917647 0.505882 
0.517647 0.917647 0.505882 0.517647 0.917647 0.505882 
0.517647 0.917647 0.505882 0.517647 0.917647 0.505882 
0.517647 0.917647 0.505882 0.517647 0.917647 0.505882 
0.517647 0.917647 0.505882 0.517647 0.917647 0.505882 
0.517647 0.917647 0.505882 0.517647 0.917647 0.505882 
0.517647 0.917647 0.505882 0.517647 0.917647 0.505882 
0.517647 0.917647 0.505882 0.517647 0.917647 0.505882 
0.517647 0.917647 0.505882 0.517647 0.917647 0.505882 
0.517647 0.917647 0.505882 0.517647 0.917647 0.505882 
0.517647 0.917647 0.505882 0.517647 0.917647 0.505882 
0.517647 0.917647 0.505882 0.517647 0.917647 0.505882 
0.517647 0.917647 0.505882 0.517647 0.917647 0.505882 
0.517647 0.917647 0.505882 0.517647 0.917647 0.505882 
0.517647 0.917647 0.505882 0.517647 0.917647 0.505882 
0.517647 0.917647 0.505882 0.517647 0.917647 0.505882 
0.517647 0.917647 0.505882 0.517647 0.917647 0.505882 
0.517647 0.917647 0.505882 0.517647 0.917647 0.505882 
0.517647 0.917647 0.505882 0.517647 0.917647 0.505882 
0.517647 0.917647 0.505882 0.517647 0.917647 0.505882 
0.517647 0.917647 0.505882 0.517647 0.917647 0.505882 
0.517647 0.917647 0.505882 0.517647 0.917647 0.505882 
0.517647 0.917647 0.505882 0.517647 0.917647 0.505882 
0.517647 0.917647 0.505882 0.517647 0.917647 0.505882 
0.517647 0.917647 0.505882 0.517647 0.917647 0.505882 
0.517647 0.917647 0.505882 0.517647 0.917647 0.505882 
0.517647 0.917647 0.505882 0.517647 0.917647 0.505882 
0.517647 0.917647 0.505882 0.517647 0.917647 0.505882 
0.517647 0.917647 0.505882 0.517647 0.917647 0.505882 
0.517647 0.917647 0.505882 0.517647 0.917647 0.505882 
0.517647 0.917647 0.505882 0.517647 0.917647 0.505882 
0.517647 0.917647 0.505882 0.517647 0.917647 0.505882 
0.517647 0.917647 0.505882 0.517647 0.917647 0.505882 
0.517647 0.917647 0.505882 0.517647 0.917647 0.505882 
0.517647 0.917647 0.505882 0.517647 0.917647 0.505882 
0.517647 0.917647 0.505882 0.517647 0.917647 0.505882 
0.517647 0.917647 0.505882 0.517647 0.917647 0.505882 
0.517647 0.917647 0.505882 0.517647 0.917647 0.505882 
0.517647 0.917647 0.505882 0.517647 0.917647 0.505882 
0.517647 0.917647 0.505882 0.517647 0.917647 0.505882 
0.517647 0.917647 0.505882 0.517647 0.917647 0.505882 
0.517647 0.917647 0.505882 0.517647 0.917647 0.505882 
0.517647 0.917647 0.505882 0.517647 0.917647 0.505882 
0.517647 0.917647 0.505882 0.517647 0.917647 0.505882 
0.517647 0.917647 0.505882 0.517647 0.917647 0.505882 
0.517647 0.917647 0.505882 0.517647 0.917647 0.505882 
0.517647 0.917647 0.505882 0.517647 0.917647 0.505882 
0.517647 0.917647 0.505882 0.517647 0.917647 0.505882 
0.517647 0.917647 0.505882 0.517647 0.917647 0.505882 
0.517647 0.917647 0.505882 0.517647 0.917647 0.505882 
0.517647 0.917647 0.505882 0.517647 0.917647 0.505882 
0.517647 0.917647 0.505882 0.517647 0.917647 0.505882 
0.517647 0.917647 0.505882 0.517647 0.917647 0.505882 
0.517647 0.917647 0.505882 0.517647 0.917647 0.505882 
0.517647 0.917647 0.505882 0.517647 0.917647 0.505882 
0.517647 0.917647 0.505882 0.517647 0.917647 0.505882 
0.517647 0.917647 0.505882 0.517647 0.917647 0.505882 
0.517647 0.917647 0.505882 0.517647 0.917647 0.505882 
0.517647 0.917647 0.505882 0.517647 0.917647 0.505882 
0.517647 0.917647 0.505882 0.517647 0.917647 0.505882 
0.517647 0.917647 0.505882 0.517647 0.917647 0.505882 
0.517647 0.917647 0.505882 0.517647 0.917647 0.505882 
0.517647 0.917647 0.505882 0.517647 0.917647 0.505882 
0.517647 0.917647 0.505882 0.517647 0.917647 0.505882 
0.517647 0.917647 0.505882 0.517647 0.917647 0.505882 
0.517647 0.917647 0.505882 0.517647 0.917647 0.505882 
0.517647 0.917647 0.505882 0.517647 0.917647 0.505882 
0.517647 0.917647 0.505882 0.517647 0.917647 0.505882 
0.517647 0.917647 0.505882 0.517647 0.917647 0.505882 
0.517647 0.917647 0.505882 0.517647 0.917647 0.505882 
0.517647 0.917647 0.505882 0.517647 0.917647 0.505882 
0.517647 0.917647 0.505882 0.517647 0.917647 0.505882 
0.517647 0.917647 0.505882 0.517647 0.917647 0.505882 
0.517647 0.917647 0.505882 0.517647 0.917647 0.505882 
0.517647 0.917647 0.505882 0.517647 0.917647 0.505882 
0.517647 0.917647 0.505882 0.517647 0.917647 0.505882 
0.517647 0.917647 0.505882 0.517647 0.917647 0.505882 
0.517647 0.917647 0.505882 0.517647 0.917647 0.505882 
0.517647 0.917647 0.505882 0.517647 0.917647 0.505882 
0.517647 0.917647 0.505882 0.517647 0.917647 0.505882 
0.517647 0.917647 0.505882 0.517647 0.917647 0.505882 
0.517647 0.917647 0.505882 0.517647 0.917647 0.505882 
0.517647 0.917647 0.505882 0.517647 0.917647 0.505882 
0.517647 0.917647 0.505882 0.517647 0.917647 0.505882 
0.517647 0.917647 0.505882 0.517647 0.917647 0.505882 
0.517647 0.917647 0.505882 0.517647 0.917647 0.505882 
0.517647 0.917647 0.505882 0.517647 0.917647 0.505882 
0.517647 0.917647 0.505882 0.517647 0.917647 0.505882 
0.517647 0.917647 0.505882 0.517647 0.917647 0.505882 
0.517647 0.917647 0.505882 0.517647 0.917647 0.505882 
0.517647 0.917647 0.505882 0.517647 0.917647 0.505882 
0.517647 0.917647 0.505882 0.517647 0.917647 0.505882 
0.517647 0.917647 0.505882 0.517647 0.917647 0.505882 
0.517647 0.917647 0.505882 0.517647 0.917647 0.505882 
0.517647 0.917647 0.505882 0.517647 0.917647 0.505882 
0.517647 0.917647 0.505882 0.517647 0.917647 0.505882 
0.517647 0.917647 0.505882 0.517647 0.917647 0.505882 
0.517647 0.917647 0.505882 0.517647 0.917647 0.505882 
0.517647 0.917647 0.505882 0.517647 0.917647 0.505882 
0.517647 0.917647 0.505882 0.517647 0.917647 0.505882 
0.517647 0.917647 0.505882 0.517647 0.917647 0.505882 
0.517647 0.917647 0.505882 0.517647 0.917647 0.505882 
0.517647 0.917647 0.505882 0.517647 0.917647 0.505882 
0.517647 0.917647 0.505882 0.517647 0.917647 0.505882 
0.517647 0.917647 0.505882 0.517647 0.917647 0.505882 
0.517647 0.917647 0.505882 0.517647 0.917647 0.505882 
0.517647 0.917647 0.505882 0.517647 0.917647 0.505882 
0.517647 0.917647 0.505882 0.517647 0.917647 0.505882 
0.517647 0.917647 0.505882 0.517647 0.917647 0.505882 
0.517647 0.917647 0.505882 0.517647 0.917647 0.505882 
0.517647 0.917647 0.505882 0.517647 0.917647 0.505882 
0.517647 0.917647 0.505882 0.517647 0.917647 0.505882 
0.517647 0.917647 0.505882 0.517647 0.917647 0.505882 
0.517647 0.917647 0.505882 0.517647 0.917647 0.505882 
0.517647 0.917647 0.505882 0.517647 0.917647 0.505882 
0.517647 0.917647 0.505882 0.517647 0.917647 0.505882 
0.517647 0.917647 0.505882 0.517647 0.917647 0.505882 
0.517647 0.917647 0.505882 0.517647 0.917647 0.505882 
0.517647 0.917647 0.505882 0.517647 0.917647 0.505882 
0.517647 0.917647 0.505882 0.517647 0.917647 0.505882 
0.517647 0.917647 0.505882 0.517647 0.917647 0.505882 
0.517647 0.917647 0.505882 0.517647 0.917647 0.505882 
0.517647 0.917647 0.505882 0.517647 0.917647 0.505882 
0.517647 0.917647 0.505882 0.517647 0.917647 0.505882 
0.517647 0.917647 0.505882 0.517647 0.917647 0.505882 
0.517647 0.917647 0.505882 0.517647 0.917647 0.505882 
0.517647 0.917647 0.505882 0.517647 0.917647 0.505882 
0.517647 0.917647 0.505882 0.517647 0.917647 0.505882 
0.517647 0.917647 0.505882 0.517647 0.917647 0.505882 
0.517647 0.917647 0.505882 0.517647 0.917647 0.505882 
0.517647 0.917647 0.505882 0.517647 0.917647 0.505882 
0.517647 0.917647 0.505882 0.517647 0.917647 0.505882 
0.517647 0.917647 0.505882 0.517647 0.917647 0.505882 
0.517647 0.917647 0.505882 0.517647 0.917647 0.505882 
0.517647 0.917647 0.505882 0.517647 0.917647 0.505882 
0.517647 0.917647 0.505882 0.517647 0.917647 0.505882 
0.517647 0.917647 0.505882 0.517647 0.917647 0.505882 
0.517647 0.917647 0.505882 0.517647 0.917647 0.505882 
0.517647 0.917647 0.505882 0.517647 0.917647 0.505882 
0.517647 0.917647 0.505882 0.517647 0.917647 0.505882 
0.517647 0.917647 0.505882 0.517647 0.917647 0.505882 
0.517647 0.917647 0.505882 0.517647 0.917647 0.505882 
0.517647 0.917647 0.505882 0.517647 0.917647 0.505882 
0.517647 0.917647 0.505882 0.517647 0.917647 0.505882 
0.517647 0.917647 0.505882 0.517647 0.917647 0.505882 
0.517647 0.917647 0.505882 0.517647 0.917647 0.505882 
0.517647 0.917647 0.505882 0.517647 0.917647 0.505882 
0.517647 0.917647 0.505882 0.517647 0.917647 0.505882 
0.517647 0.917647 0.505882 0.517647 0.917647 0.505882 
0.517647 0.917647 0.505882 0.517647 0.917647 0.505882 
0.517647 0.917647 0.505882 0.517647 0.917647 0.505882 
0.517647 0.917647 0.505882 0.517647 0.917647 0.505882 
0.517647 0.917647 0.505882 0.517647 0.917647 0.505882 
0.517647 0.917647 0.505882 0.517647 0.917647 0.505882 
0.517647 0.917647 0.505882 0.517647 0.917647 0.505882 
0.517647 0.917647 0.505882 0.517647 0.917647 0.505882 