# vtk DataFile Version 4.2
vtk output
ASCII
DATASET POLYDATA
POINTS 763 float
311.562 251.846 90.1124 312.78 251.053 90.3466 314.96 253.056 90.3014 
310.984 254.836 89.8767 309.411 256.754 90.2517 309.784 257.743 90.4591 
306.576 249.78 91.3404 313.033 249.013 91.2274 319.452 250.632 91.8309 
306.703 251.325 90.9282 316.057 251.318 90.8141 305.367 251.666 91.3016 
316.532 254.248 91.0572 318.144 254.879 92.1213 318.583 254.348 92.1446 
316.276 255.959 91.5099 316.779 256.479 92.0373 315.857 257.448 92.0326 
306.927 259.301 91.7047 311.512 259.171 91.1306 307.849 260.907 91.8648 
308.699 260.965 91.7754 317.162 249.163 91.6042 320.564 251.168 92.4543 
319.585 253.109 92.2775 319.51 253.945 92.6456 317.713 255.813 92.3092 
316.733 257.128 92.4663 315.768 258.09 92.4865 312.692 260.37 92.1746 
311.017 261.248 92.2361 307.539 262.268 92.9114 311.064 261.649 92.7001 
308.831 262.392 92.9049 303.251 248.218 92.6141 307.854 247.693 92.1237 
322.256 247.782 93.766 299.833 249.828 93.2885 322.443 249.62 93.8732 
321.388 251.673 93.193 320.666 253.075 93.259 317.028 257.195 92.8918 
316.698 257.716 93.2673 312.317 261.061 92.6772 311.092 262.043 93.2373 
309.812 262.583 93.4093 310.62 262.378 93.5849 298.818 248.141 93.7786 
322.434 251.015 94.3098 304.455 261.346 94.0585 312.871 261.087 93.5915 
305.25 262.478 94.2276 311.268 262.144 93.6338 306.035 262.982 94.1806 
299.34 244.995 94.8803 324.43 245.447 95.7369 324.764 245.239 96.0338 
294.758 247.016 95.3584 293.529 249.531 95.5579 293.038 249.703 95.7805 
296.16 251.563 95.0474 297.891 252.102 94.5088 310.456 262.845 95.1005 
305.737 263.805 95.4881 307.533 263.915 95.5158 309.183 263.341 95.2041 
307.151 264.085 95.8146 320.08 242.896 95.3319 323.622 243.878 95.8776 
325.245 246.149 96.345 325.543 246.447 96.736 291.305 248.149 96.4422 
324.493 248.555 96.0654 324.597 248.843 96.5871 294.847 251.86 95.6983 
320.807 254.002 95.9143 317.779 257.18 95.3528 312.546 261.506 95.1802 
303.56 263.347 96.283 304.428 263.977 96.6028 317.375 240.147 96.4876 
324.348 241.755 97.3556 293.208 244.647 96.9634 289.849 246.668 97.4163 
325.464 247.842 97.5841 291.324 251.486 97.1018 323.466 250.8 96.6826 
314.973 259.37 96.7684 301.474 263.231 97.6539 309.728 263.116 96.9751 
306.986 264.224 96.9183 326.359 243.101 98.1462 325.134 248.572 97.9084 
323.16 251.29 98.0006 309.773 262.562 98.2992 304.696 264.384 97.8182 
302.918 236.873 98.9045 326.327 241.239 99.0819 327.351 243.359 99.8158 
327.117 245.252 99.4902 285.182 248.329 99.4638 285.264 249.921 99.4469 
285.616 250.195 99.3069 320.883 235.331 99.8478 323.3 237.319 99.6221 
327.038 241.561 99.8823 289.976 243.02 99.5671 285.929 245.823 99.9375 
292.931 256.197 99.2537 312.654 259.355 100.095 298.542 263.117 99.972 
307.461 263.22 99.8241 299.498 264.033 100.799 310.438 232.33 100.641 
314.56 232.338 100.652 316 231.852 101.222 306.5 233.069 100.643 
321.219 234.279 100.709 322.378 233.961 101.54 295.291 237.644 101.347 
327.34 241.004 101.073 327.372 245.126 101.218 326.97 246.052 101.005 
325.083 248.741 100.547 297.371 262.31 100.149 300.305 264.301 101.535 
316.853 230.898 102.466 319.402 232.328 101.653 323.106 233.316 103.049 
323.967 234.243 102.793 326.18 238.12 101.407 281.61 248.469 102.802 
325.463 247.823 102.191 281.653 251.05 102.493 319.454 253.146 101.8 
314.591 229.853 103.255 308.849 229.731 103.3 312.397 230.226 102.47 
318.055 230.508 103.73 318.567 230.856 103.453 320.803 231.823 103.276 
302.921 232.229 102.613 324.583 234.486 103.748 325.151 235.685 102.556 
280.617 249.536 103.723 281.959 252.882 103.092 294.977 262.79 102.644 
305.295 262.28 102.944 297.229 264.031 103.416 300.574 264.12 102.847 
302.335 263.802 102.477 311.155 229.301 103.718 315.85 229.658 104.175 
306.135 229.608 104.25 318.387 230.464 104.493 322.365 232.493 104.057 
324.622 234.431 104.522 325.959 236.295 103.776 327.146 238.529 103.512 
327.493 243.337 103.402 327.374 243.941 103.346 282.944 244.979 104.267 
284.299 255.824 103.577 297.723 264.145 103.551 311.839 228.6 105.334 
317.24 230.008 104.858 327.384 239.297 104.271 327.51 241.62 104.249 
325.324 246.259 104.673 280.853 247.348 105.008 280.068 252.964 105.725 
295.245 263.643 105.218 297.91 264.074 103.995 299.187 263.56 104.886 
311.297 228.375 106.089 313.987 228.972 105.647 324.477 234.422 106.113 
327.252 239.168 104.935 327.357 240.424 104.967 327.215 239.962 105.31 
327.332 241.122 104.884 285.304 241.555 105.732 279.514 249.593 105.891 
308.206 257.316 105.904 289.558 263.199 106.283 299.274 262.918 105.986 
292.864 263.681 106.489 307.18 228.005 107.624 319.246 230.989 106.546 
326.083 236.762 106.034 326.727 240.717 106.082 279.015 250.272 107.103 
280.532 255.147 107.407 286.293 261.69 106.887 305.111 228.247 107.807 
302.533 229.353 107.652 316.411 229.942 107.438 322.946 233.723 107.814 
324.646 235.413 107.769 289.904 237.723 107.082 323.7 244.218 107.659 
284.123 260.689 108.425 285.706 262.464 108.654 288.708 263.956 108.101 
292.359 263.864 108.397 305.717 227.834 108.969 306.561 227.83 109.227 
307.2 227.92 108.93 324.153 235.468 108.489 325.006 236.913 108.237 
324.488 239.873 108.8 313.25 249.592 109.34 282.406 258.782 109.386 
284.08 260.966 109.384 286.388 263.332 109.649 294.281 263.079 109.042 
287.534 264.023 109.738 291.163 264.172 108.782 288.601 264.294 109.323 
289.744 264.329 108.817 304.636 228.018 109.269 302.763 228.722 110.128 
308.266 228.291 109.971 314.912 229.95 109.046 297.391 231.857 109.876 
324.331 238.1 109.059 285.335 239.68 109.487 283.879 260.833 110.282 
286.014 263.086 109.985 287.629 264.073 110.177 305.003 227.988 110.012 
302.746 228.747 110.971 296.356 232.3 111.644 292.286 234.995 110.911 
321.242 235.706 110.835 290.532 236.093 110.469 319.705 241.536 111.141 
278.05 246.086 111.831 278.276 251.35 110.681 299.269 258.323 110.788 
292.886 262.646 111.111 286.011 262.958 111.384 287.937 264.158 110.309 
305.504 228.58 111.618 309.09 229.164 111.428 295.474 232.93 112.383 
291.564 235.278 111.728 315.788 242.89 112.218 278.645 244.519 112.393 
277.518 246.771 112.71 277.642 248.405 111.778 291.599 262.98 111.562 
302.418 229.032 111.849 298.168 231.426 112.94 296.003 232.701 112.925 
317.606 236.827 112.892 278.546 243.918 113.666 277.182 247.71 113.58 
277.51 249.161 112.863 278.006 250.854 112.886 283.638 259.632 113.718 
286.984 263.232 112.245 301.581 229.778 113.042 302.666 229.589 113.166 
304.236 229.473 113.17 299.534 230.793 113.283 297.142 232.379 113.773 
292.127 235.339 113.892 315.641 235.86 113.671 281.097 241.781 114.426 
286.602 262.555 113.175 305.236 230.895 114.68 308.294 232.51 115.125 
296.536 234.05 115.707 287.695 237.662 114.212 285.779 260.899 114.968 
286.853 261.781 114.433 288.771 261.955 114.515 309.324 234.139 115.758 
311.227 236.574 115.751 288.989 238.295 116.523 308.362 242.38 116.03 
276.832 245.711 116.11 276.651 246.748 116.58 301.452 233.645 116.903 
308.441 236.76 116.942 290.939 237.817 117.074 309.948 238.669 116.303 
278.424 243.72 116.976 305.165 243.202 117.667 277.104 245.203 117.292 
276.686 246.233 117.107 277.145 248.658 117.6 292.598 258.135 117.294 
286.121 259.525 117.349 289.761 259.964 116.962 288.973 239.386 118.01 
276.856 245.733 117.621 304.111 237.603 118.849 304.443 240.607 118.996 
297.926 237.03 119.107 294.97 237.755 118.955 303.942 239.041 119.228 
280.117 243.244 119.339 277.282 245.624 119.71 276.868 246.449 119.4 
276.847 246.864 119.545 277.44 248.354 120.546 282.823 255.011 120.036 
287 258.443 119.429 287.6 258.584 119.421 288.59 258.297 119.809 
300.201 239.106 120.5 301.052 239.646 120.557 301.116 241.634 120.774 
289.215 241.93 121.338 278.129 244.866 120.445 278.944 244.416 120.85 
277.3 246.362 120.653 297.849 240.295 121.325 279.323 244.422 121.273 
282.175 244.053 122.287 297.335 247.974 121.885 277.876 248.733 121.687 
279.748 250.954 122.201 295.803 250.513 121.962 286.742 256.887 121.509 
296.042 242.743 122.614 296.853 242.783 122.483 297.445 242.954 122.375 
278.034 246.164 122.26 285.521 255.772 122.437 291.992 243.146 123.057 
294.694 243.271 123.046 295.645 244.13 123.242 279.4 245.662 123.269 
280.123 245.421 123.354 289.684 244.55 124.172 278.743 246.1 123.281 
278.183 246.987 123.216 278.613 248.551 123.521 279.315 249.621 123.655 
293.526 251.75 123.562 279.205 246.049 123.574 280.783 245.706 123.956 
291.384 245.481 124.741 279.566 246.93 124.29 278.222 247.647 123.386 
293.686 249.366 124.456 279.868 249.793 124.233 282.895 252.929 123.901 
285.817 254.715 124.015 288.891 254.467 124.449 285.767 246.148 125.271 
278.815 247.352 123.95 279.428 248.973 124.286 292.345 249.202 125.321 
282.034 251.698 124.516 290.808 251.87 125.512 284.89 253.706 124.576 
289.505 253.282 125.229 280.67 247.98 124.999 284.042 248.304 126.092 
286.02 247.927 126.284 288.757 248.099 126.332 288.538 248.53 126.522 
282.259 250.109 125.414 290.296 249.921 126.167 285.356 251.355 126.247 
286.414 251.851 126.198 288.111 251.628 126.324 285.644 249.391 126.572 
289.236 249.151 126.521 284.768 250.189 126.397 288.218 250.257 126.685 
291.818 247.634 329.901 280.699 248.042 330.057 280.638 248.362 330.061 
284.547 248.477 329.239 287.467 248.401 329.135 280.883 248.716 329.97 
283.301 249.251 329.368 290.68 249.052 329.55 287.869 249.941 329.073 
282.328 250.938 330.061 283.791 250.788 329.528 291.748 250.545 330.172 
287.38 251.508 329.274 289.076 251.385 329.481 290.6 252.355 330.27 
286.104 253.485 330.199 279.846 247.112 330.819 279.858 248.565 330.658 
292.873 249.873 330.611 282.502 251.975 330.682 291.709 251.751 330.555 
282.997 252.382 330.715 284.862 253.309 330.418 288.546 254.083 330.543 
294.543 245.048 331.551 295.253 245.145 331.781 295.813 245.378 332.01 
278.609 246.581 331.935 280.743 246.346 330.884 279.286 249.596 331.987 
293.984 249.964 331.43 292.746 251.749 331.273 286.436 255.638 332.105 
294.913 243.153 332.367 296.383 243.401 332.605 290.33 244.007 331.567 
283.649 244.424 331.975 296.951 246.66 332.827 294.248 241.926 333.023 
[...]
POINT_DATA 763
COLOR_SCALARS scalars 3
0.517647 0.917647 0.505882 0.517647 0.917647 0.505882 0.517647 0.917647 0.505882 
0.517647 0.917647 0.505882 0.517647 0.917647 0.505882 
0.517647 0.917647 0.505882 0.517647 0.917647 0.505882 
0.517647 0.917647 0.505882 0.517647 0.917647 0.505882 
0.517647 0.917647 0.505882 0.517647 0.917647 0.505882 
0.517647 0.917647 0.505882 0.517647 0.917647 0.505882 
0.517647 0.917647 0.505882 0.517647 0.917647 0.505882 
0.517647 0.917647 0.505882 0.517647 0.917647 0.505882 
0.517647 0.917647 0.505882 0.517647 0.917647 0.505882 
0.517647 0.917647 0.505882 0.517647 0.917647 0.505882 
0.517647 0.917647 0.505882 0.517647 0.917647 0.505882 
0.517647 0.917647 0.505882 0.517647 0.917647 0.505882 
0.517647 0.917647 0.505882 0.517647 0.917647 0.505882 
0.517647 0.917647 0.505882 0.517647 0.917647 0.505882 
0.517647 0.917647 0.505882 0.517647 0.917647 0.505882 
0.517647 0.917647 0.505882 0.517647 0.917647 0.505882 
0.517647 0.917647 0.505882 0.517647 0.917647 0.505882 
0.517647 0.917647 0.505882 0.517647 0.917647 0.505882 
0.517647 0.917647 0.505882 0.517647 0.917647 0.505882 
0.517647 0.917647 0.505882 0.517647 0.917647 0.505882 
0.517647 0.917647 0.505882 0.517647 0.917647 0.505882 
0.517647 0.917647 0.505882 0.517647 0.917647 0.505882 
0.517647 0.917647 0.505882 0.517647 0.917647 0.505882 
0.517647 0.917647 0.505882 0.517647 0.917647 0.505882 
0.517647 0.917647 0.505882 0.517647 0.917647 0.505882 
0.517647 0.917647 0.505882 0.517647 0.917647 0.505882 
0.517647 0.917647 0.505882 0.517647 0.917647 0.505882 
0.517647 0.917647 0.505882 0.517647 0.917647 0.505882 
0.517647 0.917647 0.505882 0.517647 0.917647 0.505882 
0.517647 0.917647 0.505882 0.517647 0.917647 0.505882 
0.517647 0.917647 0.505882 0.517647 0.917647 0.505882 
0.517647 0.917647 0.505882 0.517647 0.917647 0.505882 
0.517647 0.917647 0.505882 0.517647 0.917647 0.505882 
0.517647 0.917647 0.505882 0.517647 0.917647 0.505882 
0.517647 0.917647 0.505882 0.517647 0.917647 0.505882 
0.517647 0.917647 0.505882 0.517647 0.917647 0.505882 
0.517647 0.917647 0.505882 0.517647 0.917647 0.505882 
0.517647 0.917647 0.505882 0.517647 0.917647 0.505882 
0.517647 0.917647 0.505882 0.517647 0.917647 0.505882 
0.517647 0.917647 0.505882 0.517647 0.917647 0.505882 
0.517647 0.917647 0.505882 0.517647 0.917647 0.505882 
0.517647 0.917647 0.505882 0.517647 0.917647 0.505882 
0.517647 0.917647 0.505882 0.517647 0.917647 0.505882 
0.517647 0.917647 0.505882 0.517647 0.917647 0.505882 
0.517647 0.917647 0.505882 0.517647 0.917647 0.505882 
0.517647 0.917647 0.505882 0.517647 0.917647 0.505882 
0.517647 0.917647 0.505882 0.517647 0.917647 0.505882 
0.517647 0.917647 0.505882 0.517647 0.917647 0.505882 
0.517647 0.917647 0.505882 0.517647 0.917647 0.505882 
0.517647 0.917647 0.505882 0.517647 0.917647 0.505882 
0.517647 0.917647 0.505882 0.517647 0.917647 0.505882 
0.517647 0.917647 0.505882 0.517647 0.917647 0.505882 
0.517647 0.917647 0.505882 0.517647 0.917647 0.505882 
0.517647 0.917647 0.505882 0.517647 0.917647 0.505882 
0.517647 0.917647 0.505882 0.517647 0.917647 0.505882 
0.517647 0.917647 0.505882 0.517647 0.917647 0.505882 
0.517647 0.917647 0.505882 0.517647 0.917647 0.505882 
0.517647 0.917647 0.505882 0.517647 0.917647 0.505882 
0.517647 0.917647 0.505882 0.517647 0.917647 0.505882 
0.517647 0.917647 0.505882 0.517647 0.917647 0.505882 
0.517647 0.917647 0.505882 0.517647 0.917647 0.505882 
0.517647 0.917647 0.505882 0.517647 0.917647 0.505882 
0.517647 0.917647 0.505882 0.517647 0.917647 0.505882 
0.517647 0.917647 0.505882 0.517647 0.917647 0.505882 
0.517647 0.917647 0.505882 0.517647 0.917647 0.505882 
0.517647 0.917647 0.505882 0.517647 0.917647 0.505882 
0.517647 0.917647 0.505882 0.517647 0.917647 0.505882 
0.517647 0.917647 0.505882 0.517647 0.917647 0.505882 
0.517647 0.917647 0.505882 0.517647 0.917647 0.505882 
0.517647 0.917647 0.505882 0.517647 0.917647 0.505882 
0.517647 0.917647 0.505882 0.517647 0.917647 0.505882 
0.517647 0.917647 0.505882 0.517647 0.917647 0.505882 
0.517647 0.917647 0.505882 0.517647 0.917647 0.505882 
0.517647 0.917647 0.505882 0.517647 0.917647 0.505882 
0.517647 0.917647 0.505882 0.517647 0.917647 0.505882 
0.517647 0.917647 0.505882 0.517647 0.917647 0.505882 
0.517647 0.917647 0.505882 0.517647 0.917647 0.505882 
0.517647 0.917647 0.505882 0.517647 0.917647 0.505882 
0.517647 0.917647 0.505882 0.517647 0.917647 0.505882 
0.517647 0.917647 0.505882 0.517647 0.917647 0.505882 
0.517647 0.917647 0.505882 0.517647 0.917647 0.505882 
0.517647 0.917647 0.505882 0.517647 0.917647 0.505882 
0.517647 0.917647 0.505882 0.517647 0.917647 0.505882 
0.517647 0.917647 0.505882 0.517647 0.917647 0.505882 
0.517647 0.917647 0.505882 0.517647 0.917647 0.505882 
0.517647 0.917647 0.505882 0.517647 0.917647 0.505882 
0.517647 0.917647 0.505882 0.517647 0.917647 0.505882 
0.517647 0.917647 0.505882 0.517647 0.917647 0.505882 
0.517647 0.917647 0.505882 0.517647 0.917647 0.505882 
0.517647 0.917647 0.505882 0.517647 0.917647 0.505882 
0.517647 0.917647 0.505882 0.517647 0.917647 0.505882 
0.517647 0.917647 0.505882 0.517647 0.917647 0.505882 
0.517647 0.917647 0.505882 0.517647 0.917647 0.505882 
0.517647 0.917647 0.505882 0.517647 0.917647 0.505882 
0.517647 0.917647 0.505882 0.517647 0.917647 0.505882 
0.517647 0.917647 0.505882 0.517647 0.917647 0.505882 
0.517647 0.917647 0.505882 0.517647 0.917647 0.505882 
0.517647 0.917647 0.505882 0.517647 0.917647 0.505882 
0.517647 0.917647 0.505882 0.517647 0.917647 0.505882 
0.517647 0.917647 0.505882 0.517647 0.917647 0.505882 
0.517647 0.917647 0.505882 0.517647 0.917647 0.505882 
0.517647 0.917647 0.505882 0.517647 0.917647 0.505882 
0.517647 0.917647 0.505882 0.517647 0.917647 0.505882 
0.517647 0.917647 0.505882 0.517647 0.917647 0.505882 
0.517647 0.917647 0.505882 0.517647 0.917647 0.505882 
0.517647 0.917647 0.505882 0.517647 0.917647 0.505882 
0.517647 0.917647 0.505882 0.517647 0.917647 0.505882 
0.517647 0.917647 0.505882 0.517647 0.917647 0.505882 
0.517647 0.917647 0.505882 0.517647 0.917647 0.505882 
0.517647 0.917647 0.505882 0.517647 0.917647 0.505882 
0.517647 0.917647 0.505882 0.517647 0.917647 0.505882 
0.517647 0.917647 0.505882 0.517647 0.917647 0.505882 
0.517647 0.917647 0.505882 0.517647 0.917647 0.505882 
0.517647 0.917647 0.505882 0.517647 0.917647 0.505882 
0.517647 0.917647 0.505882 0.517647 0.917647 0.505882 
0.517647 0.917647 0.505882 0.517647 0.917647 0.505882 
0.517647 0.917647 0.505882 0.517647 0.917647 0.505882 
0.517647 0.917647 0.505882 0.517647 0.917647 0.505882 
0.517647 0.917647 0.505882 0.517647 0.917647 0.505882 
0.517647 0.917647 0.505882 0.517647 0.917647 0.505882 
0.517647 0.917647 0.505882 0.517647 0.917647 0.505882 
0.517647 0.917647 0.505882 0.517647 0.917647 0.505882 
0.517647 0.917647 0.505882 0.517647 0.917647 0.505882 
0.517647 0.917647 0.505882 0.517647 0.917647 0.505882 
0.517647 0.917647 0.505882 0.517647 0.917647 0.505882 
0.517647 0.917647 0.505882 0.517647 0.917647 0.505882 
0.517647 0.917647 0.505882 0.517647 0.917647 0.505882 
0.517647 0.917647 0.505882 0.517647 0.917647 0.505882 
0.517647 0.917647 0.505882 0.517647 0.917647 0.505882 
0.517647 0.917647 0.505882 0.517647 0.917647 0.505882 
0.517647 0.917647 0.505882 0.517647 0.917647 0.505882 
0.517647 0.917647 0.505882 0.517647 0.917647 0.505882 
0.517647 0.917647 0.505882 0.517647 0.917647 0.505882 
0.517647 0.917647 0.505882 0.517647 0.917647 0.505882 
0.517647 0.917647 0.505882 0.517647 0.917647 0.505882 
0.517647 0.917647 0.505882 0.517647 0.917647 0.505882 
0.517647 0.917647 0.505882 0.517647 0.917647 0.505882 
0.517647 0.917647 0.505882 0.517647 0.917647 0.505882 
0.517647 0.917647 0.505882 0.517647 0.917647 0.505882 
0.517647 0.917647 0.505882 0.517647 0.917647 0.505882 
0.517647 0.917647 0.505882 0.517647 0.917647 0.505882 
0.517647 0.917647 0.505882 0.517647 0.917647 0.505882 
0.517647 0.917647 0.505882 0.517647 0.917647 0.505882 
0.517647 0.917647 0.505882 0.517647 0.917647 0.505882 
0.517647 0.917647 0.505882 0.517647 0.917647 0.505882 
0.517647 0.917647 0.505882 0.517647 0.917647 0.505882 
0.517647 0.917647 0.505882 0.517647 0.917647 0.505882 
0.517647 0.917647 0.505882 0.517647 0.917647 0.505882 
0.517647 0.917647 0.505882 0.517647 0.917647 0.505882 
0.517647 0.917647 0.505882 0.517647 0.917647 0.505882 
0.517647 0.917647 0.505882 0.517647 0.917647 0.505882 
0.517647 0.917647 0.505882 0.517647 0.917647 0.505882 
0.517647 0.917647 0.505882 0.517647 0.917647 0.505882 
0.517647 0.917647 0.505882 0.517647 0.917647 0.505882 
0.517647 0.917647 0.505882 0.517647 0.917647 0.505882 
0.517647 0.917647 0.505882 0.517647 0.917647 0.505882 
0.517647 0.917647 0.505882 0.517647 0.917647 0.505882 
0.517647 0.917647 0.505882 0.517647 0.917647 0.505882 
0.517647 0.917647 0.505882 0.517647 0.917647 0.505882 
0.517647 0.917647 0.505882 0.517647 0.917647 0.505882 
0.517647 0.917647 0.505882 0.517647 0.917647 0.505882 
0.517647 0.917647 0.505882 0.517647 0.917647 0.505882 
0.517647 0.917647 0.505882 0.517647 0.917647 0.505882 
0.517647 0.917647 0.505882 0.517647 0.917647 0.505882 
0.517647 0.917647 0.505882 0.517647 0.917647 0.505882 
0.517647 0.917647 0.505882 0.517647 0.917647 0.505882 
0.517647 0.917647 0.505882 0.517647 0.917647 0.505882 
0.517647 0.917647 0.505882 0.517647 0.917647 0.505882 
0.517647 0.917647 0.505882 0.517647 0.917647 0.505882 
0.517647 0.917647 0.505882 0.517647 0.917647 0.505882 
0.517647 0.917647 0.505882 0.517647 0.917647 0.505882 
0.517647 0.917647 0.505882 0.517647 0.917647 0.505882 
0.517647 0.917647 0.505882 0.517647 0.917647 0.505882 
0.517647 0.917647 0.505882 0.517647 0.917647 0.505882 
0.517647 0.917647 0.505882 0.517647 0.917647 0.505882 
0.517647 0.917647 0.505882 0.517647 0.917647 0.505882 
0.517647 0.917647 0.505882 0.517647 0.917647 0.505882 
0.517647 0.917647 0.505882 0.517647 0.917647 0.505882 
0.517647 0.917647 0.505882 0.517647 0.917647 0.505882 
0.517647 0.917647 0.505882 0.517647 0.917647 0.505882 
0.517647 0.917647 0.505882 0.517647 0.917647 0.505882 
0.517647 0.917647 0.505882 0.517647 0.917647 0.505882 
0.517647 0.917647 0.505882 0.517647 0.917647 0.505882 
0.517647 0.917647 0.505882 0.517647 0.917647 0.505882 
0.517647 0.917647 0.505882 0.517647 0.917647 0.505882 
0.517647 0.917647 0.505882 0.517647 0.917647 0.505882 
0.517647 0.917647 0.505882 0.517647 0.917647 0.505882 
0.517647 0.917647 0.505882 0.517647 0.917647 0.505882 
0.517647 0.917647 0.505882 0.517647 0.917647 0.505882 
0.517647 0.917647 0.505882 0.517647 0.917647 0.505882 
0.517647 0.917647 0.505882 0.517647 0.917647 0.505882 
0.517647 0.917647 0.505882 0.517647 0.917647 0.505882 
0.517647 0.917647 0.505882 0.517647 0.917647 0.505882 
0.517647 0.917647 0.505882 0.517647 0.917647 0.505882 
0.517647 0.917647 0.505882 0.517647 0.917647 0.505882 
0.517647 0.917647 0.505882 0.517647 0.917647 0.505882 
0.517647 0.917647 0.505882 0.517647 0.917647 0.505882 
0.517647 0.917647 0.505882 0.517647 0.917647 0.505882 
0.517647 0.917647 0.505882 0.517647 0.917647 0.505882 
0.517647 0.917647 0.505882 0.517647 0.917647 0.505882 
0.517647 0.917647 0.505882 0.517647 0.917647 0.505882 
0.517647 0.917647 0.505882 0.517647 0.917647 0.505882 
0.517647 0.917647 0.505882 0.517647 0.917647 0.505882 
0.517647 0.917647 0.505882 0.517647 0.917647 0.505882 
0.517647 0.917647 0.505882 0.517647 0.917647 0.505882 
0.517647 0.917647 0.505882 0.517647 0.917647 0.505882 
0.517647 0.917647 0.505882 0.517647 0.917647 0.505882 
0.517647 0.917647 0.505882 0.517647 0.917647 0.505882 
0.517647 0.917647 0.505882 0.517647 0.917647 0.505882 
0.517647 0.917647 0.505882 0.517647 0.917647 0.505882 
0.517647 0.917647 0.505882 0.517647 0.917647 0.505882 
0.517647 0.917647 0.505882 0.517647 0.917647 0.505882 
0.517647 0.917647 0.505882 0.517647 0.917647 0.505882 
0.517647 0.917647 0.505882 0.517647 0.917647 0.505882 
0.517647 0.917647 0.505882 0.517647 0.917647 0.505882 
0.517647 0.917647 0.505882 0.517647 0.917647 0.505882 
0.517647 0.917647 0.505882 0.517647 0.917647 0.505882 
0.517647 0.917647 0.505882 0.517647 0.917647 0.505882 
0.517647 0.917647 0.505882 0.517647 0.917647 0.505882 
0.517647 0.917647 0.505882 0.517647 0.917647 0.505882 
0.517647 0.917647 0.505882 0.517647 0.917647 0.505882 
0.517647 0.917647 0.505882 0.517647 0.917647 0.505882 
0.517647 0.917647 0.505882 0.517647 0.917647 0.505882 
0.517647 0.917647 0.505882 0.517647 0.917647 0.505882 
0.517647 0.917647 0.505882 0.517647 0.917647 0.505882 
0.517647 0.917647 0.505882 0.517647 0.917647 0.505882 
0.517647 0.917647 0.505882 0.517647 0.917647 0.505882 
0.517647 0.917647 0.505882 0.517647 0.917647 0.505882 
0.517647 0.917647 0.505882 0.517647 0.917647 0.505882 
0.517647 0.917647 0.505882 0.517647 0.917647 0.505882 
0.517647 0.917647 0.505882 0.517647 0.917647 0.505882 
0.517647 0.917647 0.505882 0.517647 0.917647 0.505882 
0.517647 0.917647 0.505882 0.517647 0.917647 0.505882 
0.517647 0.917647 0.505882 0.517647 0.917647 0.505882 
0.517647 0.917647 0.505882 0.517647 0.917647 0.505882 
0.517647 0.917647 0.505882 0.517647 0.917647 0.505882 
0.517647 0.917647 0.505882 0.517647 0.917647 0.505882 
0.517647 0.917647 0.505882 0.517647 0.917647 0.505882 
0.517647 0.917647 0.505882 0.517647 0.917647 0.505882 
0.517647 0.917647 0.505882 0.517647 0.917647 0.505882 
0.517647 0.917647 0.505882 0.517647 0.917647 0.505882 
0.517647 0.917647 0.505882 0.517647 0.917647 0.505882 
0.517647 0.917647 0.505882 0.517647 0.917647 0.505882 
0.517647 0.917647 0.505882 0.517647 0.917647 0.505882 
0.517647 0.917647 0.505882 0.517647 0.917647 0.505882 
0.517647 0.917647 0.505882 0.517647 0.917647 0.505882 
0.517647 0.917647 0.505882 0.517647 0.917647 0.505882 
0.517647 0.917647 0.505882 0.517647 0.917647 0.505882 
0.517647 0.917647 0.505882 0.517647 0.917647 0.505882 
0.517647 0.917647 0.505882 0.517647 0.917647 0.505882 
0.517647 0.917647 0.505882 0.517647 0.917647 0.505882 
0.517647 0.917647 0.505882 0.517647 0.917647 0.505882 
0.517647 0.917647 0.505882 0.517647 0.917647 0.505882 
0.517647 0.917647 0.505882 0.517647 0.917647 0.505882 
0.517647 0.917647 0.505882 0.517647 0.917647 0.505882 
0.517647 0.917647 0.505882 0.517647 0.917647 0.505882 
0.517647 0.917647 0.505882 0.517647 0.917647 0.505882 
0.517647 0.917647 0.505882 0.517647 0.917647 0.505882 
0.517647 0.917647 0.505882 0.517647 0.917647 0.505882 
0.517647 0.917647 0.505882 0.517647 0.917647 0.505882 
0.517647 0.917647 0.505882 0.517647 0.917647 0.505882 
0.517647 0.917647 0.505882 0.517647 0.917647 0.505882 
0.517647 0.917647 0.505882 0.517647 0.917647 0.505882 
0.517647 0.917647 0.505882 0.517647 0.917647 0.505882 
0.517647 0.917647 0.505882 0.517647 0.917647 0.505882 
0.517647 0.917647 0.505882 0.517647 0.917647 0.505882 
0.517647 0.917647 0.505882 0.517647 0.917647 0.505882 
0.517647 0.917647 0.505882 0.517647 0.917647 0.505882 
0.517647 0.917647 0.505882 0.517647 0.917647 0.505882 
0.517647 0.917647 0.505882 0.517647 0.917647 0.505882 
0.517647 0.917647 0.505882 0.517647 0.917647 0.505882 
0.517647 0.917647 0.505882 0.517647 0.917647 0.505882 
0.517647 0.917647 0.505882 0.517647 0.917647 0.505882 
0.517647 0.917647 0.505882 0.517647 0.917647 0.505882 
0.517647 0.917647 0.505882 0.517647 0.917647 0.505882 
0.517647 0.917647 0.505882 0.517647 0.917647 0.505882 
0.517647 0.917647 0.505882 0.517647 0.917647 0.505882 
0.517647 0.917647 0.505882 0.517647 0.917647 0.505882 
0.517647 0.917647 0.505882 0.517647 0.917647 0.505882 
0.517647 0.917647 0.505882 0.517647 0.917647 0.505882 
0.517647 0.917647 0.505882 0.517647 0.917647 0.505882 
0.517647 0.917647 0.505882 0.517647 0.917647 0.505882 
0.517647 0.917647 0.505882 0.517647 0.917647 0.505882 
0.517647 0.917647 0.505882 0.517647 0.917647 0.505882 
0.517647 0.917647 0.505882 0.517647 0.917647 0.505882 
0.517647 0.917647 0.505882 0.517647 0.917647 0.505882 
0.517647 0.917647 0.505882 0.517647 0.917647 0.505882 
0.517647 0.917647 0.505882 0.517647 0.917647 0.505882 
0.517647 0.917647 0.505882 0.517647 0.917647 0.505882 
0.517647 0.917647 0.505882 0.517647 0.917647 0.505882 
0.517647 0.917647 0.505882 0.517647 0.917647 0.505882 
0.517647 0.917647 0.505882 0.517647 0.917647 0.505882 
0.517647 0.917647 0.505882 0.517647 0.917647 0.505882 
0.517647 0.917647 0.505882 0.517647 0.917647 0.505882 
0.517647 0.917647 0.505882 0.517647 0.917647 0.505882 
0.517647 0.917647 0.505882 0.517647 0.917647 0.505882 
0.517647 0.917647 0.505882 0.517647 0.917647 0.505882 
0.517647 0.917647 0.505882 0.517647 0.917647 0.505882 
0.517647 0.917647 0.505882 0.517647 0.917647 0.505882 
0.517647 0.917647 0.505882 0.517647 0.917647 0.505882 
0.517647 0.917647 0.505882 0.517647 0.917647 0.505882 
0.517647 0.917647 0.505882 0.517647 0.917647 0.505882 
0.517647 0.917647 0.505882 0.517647 0.917647 0.505882 
0.517647 0.917647 0.505882 0.517647 0.917647 0.505882 
0.517647 0.917647 0.505882 0.517647 0.917647 0.505882 
0.517647 0.917647 0.505882 0.517647 0.917647 0.505882 
0.517647 0.917647 0.505882 0.517647 0.917647 0.505882 
0.517647 0.917647 0.505882 0.517647 0.917647 0.505882 
0.517647 0.917647 0.505882 0.517647 0.917647 0.505882 
0.517647 0.917647 0.505882 0.517647 0.917647 0.505882 
0.517647 0.917647 0.505882 0.517647 0.917647 0.505882 
0.517647 0.917647 0.505882 0.517647 0.917647 0.505882 
0.517647 0.917647 0.505882 0.517647 0.917647 0.505882 
0.517647 0.917647 0.505882 0.517647 0.917647 0.505882 
0.517647 0.917647 0.505882 0.517647 0.917647 0.505882 
0.517647 0.917647 0.505882 0.517647 0.917647 0.505882 
0.517647 0.917647 0.505882 0.517647 0.917647 0.505882 
0.517647 0.917647 0.505882 0.517647 0.917647 0.505882 
0.517647 0.917647 0.505882 0.517647 0.917647 0.505882 
0.517647 0.917647 0.505882 0.517647 0.917647 0.505882 
0.517647 0.917647 0.505882 0.517647 0.917647 0.505882 
0.517647 0.917647 0.505882 0.517647 0.917647 0.505882 
0.517647 0.917647 0.505882 0.517647 0.917647 0.505882 
0.517647 0.917647 0.505882 0.517647 0.917647 0.505882 
0.517647 0.917647 0.505882 0.517647 0.917647 0.505882 
0.517647 0.917647 0.505882 0.517647 0.917647 0.505882 
0.517647 0.917647 0.505882 0.517647 0.917647 0.505882 
0.517647 0.917647 0.505882 0.517647 0.917647 0.505882 
0.517647 0.917647 0.505882 0.517647 0.917647 0.505882 
0.517647 0.917647 0.505882 0.517647 0.917647 0.505882 
0.517647 0.917647 0.505882 0.517647 0.917647 0.505882 
0.517647 0.917647 0.505882 0.517647 0.917647 0.505882 
0.517647 0.917647 0.505882 0.517647 0.917647 0.505882 
0.517647 0.917647 0.505882 0.517647 0.917647 0.505882 
0.517647 0.917647 0.505882 0.517647 0.917647 0.505882 
0.517647 0.917647 0.505882 0.517647 0.917647 0.505882 
0.517647 0.917647 0.505882 0.517647 0.917647 0.505882 
0.517647 0.917647 0.505882 0.517647 0.917647 0.505882 
0.517647 0.917647 0.505882 0.517647 0.917647 0.505882 
0.517647 0.917647 0.505882 0.517647 0.917647 0.505882 
0.517647 0.917647 0.505882 0.517647 0.917647 0.505882 
0.517647 0.917647 0.505882 0.517647 0.917647 0.505882 
0.517647 0.917647 0.505882 0.517647 0.917647 0.505882 
0.517647 0.917647 0.505882 0.517647 0.917647 0.505882 
0.517647 0.917647 0.505882 0.517647 0.917647 0.505882 
0.517647 0.917647 0.505882 0.517647 0.917647 0.505882 
0.517647 0.917647 0.505882 0.517647 0.917647 0.505882 
0.517647 0.917647 0.505882 0.517647 0.917647 0.505882 
0.517647 0.917647 0.505882 0.517647 0.917647 0.505882 
0.517647 0.917647 0.505882 0.517647 0.917647 0.505882 
0.517647 0.917647 0.505882 0.517647 0.917647 0.505882 
0.517647 0.917647 0.505882 0.517647 0.917647 0.505882 
0.517647 0.917647 0.505882 0.517647 0.917647 0.505882 
0.517647 0.917647 0.505882 0.517647 0.917647 0.505882 
0.517647 0.917647 0.505882 0.517647 0.917647 0.505882 
0.517647 0.917647 0.505882 0.517647 0.917647 0.505882 
0.517647 0.917647 0.505882 0.517647 0.917647 0.505882 
0.517647 0.917647 0.505882 0.517647 0.917647 0.505882 
0.517647 0.917647 0.505882 0.517647 0.917647 0.505882 
0.517647 0.917647 0.505882 0.517647 0.917647 0.505882 
0.517647 0.917647 0.505882 0.517647 0.917647 0.505882 
0.517647 0.917647 0.505882 0.517647 0.917647 0.505882 