# vtk DataFile Version 4.2
vtk output
ASCII
DATASET POLYDATA
POINTS 2691 float
232.504 161.004 168.017 232.504 161.004 168.018 232.504 161.004 168.017 
232.505 161.004 168.017 232.505 161.004 168.017 232.505 161.004 168.018 
232.504 161.005 168.017 232.505 161.005 168.018 229.352 161.662 169.013 
229.352 161.662 169.013 229.352 161.662 169.013 229.352 161.662 169.013 
232.504 161.004 168.018 232.505 161.004 168.018 229.352 161.662 169.013 
229.352 161.662 169.013 229.353 161.662 169.013 229.353 161.662 169.013 
229.353 161.662 169.013 229.353 161.662 169.013 229.353 161.662 169.013 
231.506 163.007 169.013 231.506 163.007 169.013 231.506 163.007 169.013 
231.507 163.007 169.013 231.507 163.007 169.013 231.507 163.007 169.013 
231.506 163.007 169.013 231.507 163.007 169.013 229.352 161.662 169.013 
228 162.009 170.017 228 162.009 170.017 228 162.009 170.017 
229.353 161.662 169.013 228 162.009 170.017 229.353 161.662 169.013 
228 162.009 170.017 230.225 163.687 170.009 230.214 163.685 170.008 
230.219 163.686 170.008 230.236 163.688 170.009 230.238 163.689 170.01 
231.506 163.007 169.013 230.257 163.691 170.011 231.507 163.007 169.013 
230.214 163.685 170.008 230.214 163.685 170.008 230.228 163.687 170.009 
230.259 163.692 170.011 230.285 163.695 170.013 230.291 163.696 170.013 
230.301 163.698 170.014 230.303 163.698 170.014 230.22 163.686 170.008 
230.24 163.689 170.01 230.269 163.693 170.012 230.292 163.697 170.013 
228 162.009 170.017 230.224 163.687 170.009 230.243 163.689 170.01 
230.225 163.687 170.009 230.245 163.69 170.01 230.273 163.694 170.012 
230.297 163.697 170.013 229.168 165.362 171.009 229.167 165.362 171.009 
229.151 165.361 171.009 229.214 165.366 171.01 229.214 165.366 171.01 
229.293 165.371 171.011 229.279 165.371 171.011 229.34 165.374 171.012 
229.371 165.376 171.013 229.391 165.378 171.013 229.403 165.378 171.014 
229.407 165.379 171.014 229.165 165.362 171.009 229.195 165.365 171.009 
229.234 165.368 171.01 229.246 165.368 171.01 229.307 165.373 171.011 
229.362 165.376 171.013 229.394 165.378 171.013 229.276 165.371 171.011 
229.324 165.374 171.012 229.369 165.377 171.013 229.164 165.362 171.009 
229.21 165.366 171.01 229.278 165.37 171.011 229.35 165.375 171.013 
229.394 165.378 171.013 229.275 165.37 171.011 229.335 165.374 171.012 
229.385 165.377 171.013 231 154.009 173.017 231 154.009 173.017 
231 154.009 173.017 231 154.009 173.017 231 154.009 173.017 
224 164.009 173.017 224 164.009 173.017 224 164.009 173.017 
224 164.009 173.017 224 164.009 173.017 231 154.009 173.017 
224 163.009 174.017 224 163.009 174.017 224 163.009 174.017 
224 163.009 174.017 224 164.009 173.017 224 163.009 174.017 
224 168.009 174.017 224 168.009 174.017 224 168.009 174.017 
224 168.009 174.017 224 168.009 174.017 226 170.009 174.017 
226 170.009 174.017 226 170.009 174.017 226 170.009 174.017 
226 170.009 174.017 224 163.009 174.017 224 168.009 174.017 
223.002 169.511 175.015 223.002 169.511 175.015 223.002 169.511 175.015 
223.002 169.511 175.015 223.002 169.511 175.015 223.002 169.511 175.015 
223.002 169.511 175.015 226 170.009 174.017 223.002 169.511 175.015 
224.004 171.013 175.009 224.004 171.013 175.009 224.004 171.013 175.009 
224.004 171.013 175.009 224.004 171.013 175.009 225.004 172.013 175.009 
225.004 172.013 175.009 225.004 172.013 175.009 225.004 172.013 175.009 
225.004 172.013 175.009 227.007 173.004 175.015 227.007 173.004 175.014 
227.007 173.004 175.014 227.007 173.004 175.014 227.007 173.004 175.014 
227.008 173.005 175.015 227.008 173.004 175.015 227.008 173.004 175.015 
227.007 173.004 175.014 227.007 173.005 175.015 227.008 173.004 175.015 
229.646 158.877 177.58 229.651 158.85 177.559 229.648 158.861 177.565 
229.628 158.933 177.622 222 169.511 176.013 222 169.511 176.013 
222 169.511 176.013 223.002 169.511 175.015 222 169.511 176.013 
222 169.511 176.013 222 169.511 176.013 222 169.511 176.013 
223.002 169.511 175.015 222 169.511 176.013 224.004 171.013 175.009 
224.8 173.601 176.008 224.752 173.581 176.008 224.756 173.583 176.008 
224.797 173.599 176.009 225.004 172.013 175.009 224.823 173.61 176.008 
224.78 173.593 176.008 224.879 173.632 176.009 224.972 173.669 176.009 
225.025 173.69 176.009 227.007 173.004 175.015 227.007 173.004 175.015 
227.008 173.004 175.015 224.838 173.617 176.008 224.918 173.649 176.009 
224.951 173.662 176.009 225.224 173.768 176.009 225.217 173.766 176.009 
225.482 173.867 176.01 225.473 173.865 176.01 225.609 173.916 176.011 
225.676 173.94 176.011 225.714 173.955 176.011 225.749 173.967 176.011 
225.761 173.972 176.011 225.047 173.701 176.009 225.204 173.762 176.009 
225.363 173.824 176.01 225.4 173.838 176.01 225.588 173.908 176.011 
225.678 173.942 176.011 225.731 173.961 176.011 225.498 173.876 176.01 
225.594 173.911 176.011 218.509 216.393 175.801 219.767 217.834 175.826 
217.356 219.721 176.125 220.247 220.286 176.262 229.626 158.912 177.612 
229.564 159.087 177.745 229.261 159.846 178.304 229.487 159.423 178.04 
229.333 159.936 178.362 222 169.511 176.013 222 169.511 176.013 
224.779 173.593 176.008 224.849 173.621 176.008 224.915 173.647 176.009 
225.009 173.685 176.009 225.205 173.761 176.009 225.451 173.855 176.01 
225.615 173.917 176.011 225.722 173.957 176.011 225.47 173.864 176.01 
225.631 173.924 176.011 229.004 175.013 177.009 229.004 175.013 177.009 
229.004 175.013 177.009 229.004 175.013 177.009 229.004 175.013 177.009 
224 177.009 177.017 224 177.009 177.017 224 177.009 177.017 
224 177.009 177.017 228 177.009 177.017 228 177.009 177.017 
228 177.009 177.017 228 177.009 177.017 224 177.009 177.017 
226.007 178.004 177.015 226.007 178.004 177.014 226.007 178.004 177.014 
226.007 178.004 177.014 226.007 178.004 177.015 226.008 178.005 177.015 
226.008 178.004 177.015 228 177.009 177.017 226.008 178.004 177.015 
226.007 178.004 177.014 226.007 178.005 177.015 226.008 178.004 177.015 
214.583 210.434 176.932 214.371 212.339 177.051 213.977 216.375 177.469 
215.524 215.64 176.564 213.494 221.334 177.335 213.02 222.382 177.493 
223.872 221.531 177.758 213.442 223.3 177.51 213.667 223.707 177.61 
229.383 159.456 178.068 229.481 159.274 177.943 229.392 159.567 178.22 
229.151 159.819 178.427 219.587 169.268 179.002 219.596 169.221 178.963 
219.574 169.28 178.996 219.58 169.25 179.014 219.549 169.419 179.078 
219.481 169.441 179.134 219.539 169.392 179.171 219.465 169.744 179.187 
219.234 169.893 179.308 219.37 170.275 179.278 219.52 170.01 179.347 
219.186 172.257 179.41 221.002 175.511 178.015 221.002 175.511 178.015 
221.002 175.511 178.015 221.002 175.511 178.015 229.004 175.013 177.009 
221.002 175.511 178.015 221.002 175.511 178.015 221.002 175.511 178.015 
221.002 175.511 178.015 224 177.009 177.017 228 177.009 177.017 
228.497 176.198 179.87 222 178.009 178.017 222 178.009 178.017 
222 178.009 178.017 222 178.009 178.017 226.007 178.004 177.015 
226.007 178.004 177.015 226.008 178.004 177.015 222 178.009 178.017 
227.616 178.617 179.674 227.662 178.87 179.662 227 180.009 178.017 
227 180.009 178.017 227 180.009 178.017 227 180.009 178.017 
226 181.009 178.017 226 181.009 178.017 226 181.009 178.017 
227 180.009 178.017 226 181.009 178.017 226 181.009 178.017 
210.62 206.297 177.828 210.719 208.179 177.899 212.092 211.001 178.056 
212.231 212.412 178.492 211.364 222.077 178.065 210.554 222.972 178.207 
209.928 222.424 178.418 220.935 223.546 177.81 210.388 224.41 178.368 
215.668 224.628 177.944 229.336 159.559 178.211 228.831 160.235 178.77 
227.144 161.378 179.698 227.095 161.303 179.871 226.797 161.419 179.889 
227.824 161.141 179.401 227.625 161.127 179.733 228.49 160.748 179.002 
228.339 160.704 179.27 226.266 161.639 179.991 226.13 161.699 180.023 
226.563 161.603 179.876 226.482 161.565 180.049 227.371 161.582 179.521 
228.641 161.062 179.018 226.407 161.976 179.911 229.049 161.405 179.453 
228.208 162.582 179.54 228.901 162.395 179.873 228.247 163.073 179.71 
220.002 165.511 179.015 220.002 165.511 179.015 220.002 165.511 179.015 
220.002 165.511 179.015 220.002 165.511 179.015 220.002 165.511 179.015 
220.002 165.511 179.015 218.87 168.877 180.322 220.002 165.511 179.015 
219.567 169.261 179.008 218.99 169.181 179.969 219.518 169.318 179.131 
219.344 169.441 179.514 219.543 169.7 179.51 218.326 171.217 179.522 
218.216 172.169 179.46 218.665 172.699 179.386 228.482 173.837 180.12 
228.881 173.313 180.44 218.854 174.414 179.589 221.002 175.511 178.015 
218.946 175.544 179.73 221.002 175.511 178.015 229.053 176.008 180.466 
218.646 178.364 179.435 222 178.009 178.017 227.797 178.074 179.763 
218.078 179.512 179.206 219.362 179.201 179.646 219.302 180.788 179.196 
220.135 180.036 180.097 227 180.009 178.017 220.81 181.717 179.468 
226 181.009 178.017 228.262 180.548 180.153 219.253 182.562 178.826 
221.746 182.611 179.409 223.079 183.108 179.605 224.162 183.057 179.804 
225.827 183.452 179.586 225.057 182.989 179.742 223.702 184.881 178.978 
218.293 191.135 178.367 219.19 194.081 178.241 217.974 199.02 177.946 
228.299 200.14 179.281 229.248 207.16 179.247 227.056 209.084 178.159 
209.528 209.672 178.671 209.245 210.526 179.187 210.346 210.577 178.845 
207.387 211.235 179.539 208.127 211.378 179.795 209.9 211.228 179.608 
211.269 212.052 179.352 207.017 212.64 180.139 206.621 213.026 180.107 
206.553 213.214 180.25 212.358 215.016 179.374 206.689 213.126 180.192 
212.049 216.941 179.576 211.917 217.834 179.287 211.552 218.435 179.381 
210.07 219.876 179.582 203.234 221.062 179.699 206.973 221.523 179.376 
210.579 220.879 178.682 202.136 222.591 179.552 201.281 224.378 179.841 
211.219 226.207 179.172 228.77 160.33 178.987 228.974 160.209 178.904 
226.83 161.413 180.023 227.177 161.346 180.071 226.067 161.787 180.074 
225.945 162.075 180.242 226.266 161.784 180.274 225.366 162.28 180.225 
225.336 162.31 180.247 225.309 162.287 180.22 225.491 162.336 180.297 
225.576 162.279 180.211 225.971 162.349 180.106 225.386 162.307 180.218 
225.567 162.462 180.262 225.99 162.903 180.22 226.707 163.488 180.001 
[...]
POINT_DATA 2691
COLOR_SCALARS scalars 3
0.701961 0.752941 0.87451 0.701961 0.752941 0.87451 0.701961 0.752941 0.87451 
0.701961 0.752941 0.87451 0.701961 0.752941 0.87451 
0.701961 0.752941 0.87451 0.701961 0.752941 0.87451 
0.701961 0.752941 0.87451 0.701961 0.752941 0.87451 
0.701961 0.752941 0.87451 0.701961 0.752941 0.87451 
0.701961 0.752941 0.87451 0.701961 0.752941 0.87451 
0.701961 0.752941 0.87451 0.701961 0.752941 0.87451 
0.701961 0.752941 0.87451 0.701961 0.752941 0.87451 
0.701961 0.752941 0.87451 0.701961 0.752941 0.87451 
0.701961 0.752941 0.87451 0.701961 0.752941 0.87451 
0.701961 0.752941 0.87451 0.701961 0.752941 0.87451 
0.701961 0.752941 0.87451 0.701961 0.752941 0.87451 
0.701961 0.752941 0.87451 0.701961 0.752941 0.87451 
0.701961 0.752941 0.87451 0.701961 0.752941 0.87451 
0.701961 0.752941 0.87451 0.701961 0.752941 0.87451 
0.701961 0.752941 0.87451 0.701961 0.752941 0.87451 
0.701961 0.752941 0.87451 0.701961 0.752941 0.87451 
0.701961 0.752941 0.87451 0.701961 0.752941 0.87451 
0.701961 0.752941 0.87451 0.701961 0.752941 0.87451 
0.701961 0.752941 0.87451 0.701961 0.752941 0.87451 
0.701961 0.752941 0.87451 0.701961 0.752941 0.87451 
0.701961 0.752941 0.87451 0.701961 0.752941 0.87451 
0.701961 0.752941 0.87451 0.701961 0.752941 0.87451 
0.701961 0.752941 0.87451 0.701961 0.752941 0.87451 
0.701961 0.752941 0.87451 0.701961 0.752941 0.87451 
0.701961 0.752941 0.87451 0.701961 0.752941 0.87451 
0.701961 0.752941 0.87451 0.701961 0.752941 0.87451 
0.701961 0.752941 0.87451 0.701961 0.752941 0.87451 
0.701961 0.752941 0.87451 0.701961 0.752941 0.87451 
0.701961 0.752941 0.87451 0.701961 0.752941 0.87451 
0.701961 0.752941 0.87451 0.701961 0.752941 0.87451 
0.701961 0.752941 0.87451 0.701961 0.752941 0.87451 
0.701961 0.752941 0.87451 0.701961 0.752941 0.87451 
0.701961 0.752941 0.87451 0.701961 0.752941 0.87451 
0.701961 0.752941 0.87451 0.701961 0.752941 0.87451 
0.701961 0.752941 0.87451 0.701961 0.752941 0.87451 
0.701961 0.752941 0.87451 0.701961 0.752941 0.87451 
0.701961 0.752941 0.87451 0.701961 0.752941 0.87451 
0.701961 0.752941 0.87451 0.701961 0.752941 0.87451 
0.701961 0.752941 0.87451 0.701961 0.752941 0.87451 
0.701961 0.752941 0.87451 0.701961 0.752941 0.87451 
0.701961 0.752941 0.87451 0.701961 0.752941 0.87451 
0.701961 0.752941 0.87451 0.701961 0.752941 0.87451 
0.701961 0.752941 0.87451 0.701961 0.752941 0.87451 
0.701961 0.752941 0.87451 0.701961 0.752941 0.87451 
0.701961 0.752941 0.87451 0.701961 0.752941 0.87451 
0.701961 0.752941 0.87451 0.701961 0.752941 0.87451 
0.701961 0.752941 0.87451 0.701961 0.752941 0.87451 
0.701961 0.752941 0.87451 0.701961 0.752941 0.87451 
0.701961 0.752941 0.87451 0.701961 0.752941 0.87451 
0.701961 0.752941 0.87451 0.701961 0.752941 0.87451 
0.701961 0.752941 0.87451 0.701961 0.752941 0.87451 
0.701961 0.752941 0.87451 0.701961 0.752941 0.87451 
0.701961 0.752941 0.87451 0.701961 0.752941 0.87451 
0.701961 0.752941 0.87451 0.701961 0.752941 0.87451 
0.701961 0.752941 0.87451 0.701961 0.752941 0.87451 
0.701961 0.752941 0.87451 0.701961 0.752941 0.87451 
0.701961 0.752941 0.87451 0.701961 0.752941 0.87451 
0.701961 0.752941 0.87451 0.701961 0.752941 0.87451 
0.701961 0.752941 0.87451 0.701961 0.752941 0.87451 
0.701961 0.752941 0.87451 0.701961 0.752941 0.87451 
0.701961 0.752941 0.87451 0.701961 0.752941 0.87451 
0.701961 0.752941 0.87451 0.701961 0.752941 0.87451 
0.701961 0.752941 0.87451 0.701961 0.752941 0.87451 
0.701961 0.752941 0.87451 0.701961 0.752941 0.87451 
0.701961 0.752941 0.87451 0.701961 0.752941 0.87451 
0.701961 0.752941 0.87451 0.701961 0.752941 0.87451 
0.701961 0.752941 0.87451 0.701961 0.752941 0.87451 
0.701961 0.752941 0.87451 0.701961 0.752941 0.87451 
0.701961 0.752941 0.87451 0.701961 0.752941 0.87451 
0.701961 0.752941 0.87451 0.701961 0.752941 0.87451 
0.701961 0.752941 0.87451 0.701961 0.752941 0.87451 
0.701961 0.752941 0.87451 0.701961 0.752941 0.87451 
0.701961 0.752941 0.87451 0.701961 0.752941 0.87451 
0.701961 0.752941 0.87451 0.701961 0.752941 0.87451 
0.701961 0.752941 0.87451 0.701961 0.752941 0.87451 
0.701961 0.752941 0.87451 0.701961 0.752941 0.87451 
0.701961 0.752941 0.87451 0.701961 0.752941 0.87451 
0.701961 0.752941 0.87451 0.701961 0.752941 0.87451 
0.701961 0.752941 0.87451 0.701961 0.752941 0.87451 
0.701961 0.752941 0.87451 0.701961 0.752941 0.87451 
0.701961 0.752941 0.87451 0.701961 0.752941 0.87451 
0.701961 0.752941 0.87451 0.701961 0.752941 0.87451 
0.701961 0.752941 0.87451 0.701961 0.752941 0.87451 
0.701961 0.752941 0.87451 0.701961 0.752941 0.87451 
0.701961 0.752941 0.87451 0.701961 0.752941 0.87451 
0.701961 0.752941 0.87451 0.701961 0.752941 0.87451 
0.701961 0.752941 0.87451 0.701961 0.752941 0.87451 
0.701961 0.752941 0.87451 0.701961 0.752941 0.87451 
0.701961 0.752941 0.87451 0.701961 0.752941 0.87451 
0.701961 0.752941 0.87451 0.701961 0.752941 0.87451 
0.701961 0.752941 0.87451 0.701961 0.752941 0.87451 
0.701961 0.752941 0.87451 0.701961 0.752941 0.87451 
0.701961 0.752941 0.87451 0.701961 0.752941 0.87451 
0.701961 0.752941 0.87451 0.701961 0.752941 0.87451 
0.701961 0.752941 0.87451 0.701961 0.752941 0.87451 
0.701961 0.752941 0.87451 0.701961 0.752941 0.87451 
0.701961 0.752941 0.87451 0.701961 0.752941 0.87451 
0.701961 0.752941 0.87451 0.701961 0.752941 0.87451 
0.701961 0.752941 0.87451 0.701961 0.752941 0.87451 
0.701961 0.752941 0.87451 0.701961 0.752941 0.87451 
0.701961 0.752941 0.87451 0.701961 0.752941 0.87451 
0.701961 0.752941 0.87451 0.701961 0.752941 0.87451 
0.701961 0.752941 0.87451 0.701961 0.752941 0.87451 
0.701961 0.752941 0.87451 0.701961 0.752941 0.87451 
0.701961 0.752941 0.87451 0.701961 0.752941 0.87451 
0.701961 0.752941 0.87451 0.701961 0.752941 0.87451 
0.701961 0.752941 0.87451 0.701961 0.752941 0.87451 
0.701961 0.752941 0.87451 0.701961 0.752941 0.87451 
0.701961 0.752941 0.87451 0.701961 0.752941 0.87451 
0.701961 0.752941 0.87451 0.701961 0.752941 0.87451 
0.701961 0.752941 0.87451 0.701961 0.752941 0.87451 
0.701961 0.752941 0.87451 0.701961 0.752941 0.87451 
0.701961 0.752941 0.87451 0.701961 0.752941 0.87451 
0.701961 0.752941 0.87451 0.701961 0.752941 0.87451 
0.701961 0.752941 0.87451 0.701961 0.752941 0.87451 
0.701961 0.752941 0.87451 0.701961 0.752941 0.87451 
0.701961 0.752941 0.87451 0.701961 0.752941 0.87451 
0.701961 0.752941 0.87451 0.701961 0.752941 0.87451 
0.701961 0.752941 0.87451 0.701961 0.752941 0.87451 
0.701961 0.752941 0.87451 0.701961 0.752941 0.87451 
0.701961 0.752941 0.87451 0.701961 0.752941 0.87451 
0.701961 0.752941 0.87451 0.701961 0.752941 0.87451 
0.701961 0.752941 0.87451 0.701961 0.752941 0.87451 
0.701961 0.752941 0.87451 0.701961 0.752941 0.87451 
0.701961 0.752941 0.87451 0.701961 0.752941 0.87451 
0.701961 0.752941 0.87451 0.701961 0.752941 0.87451 
0.701961 0.752941 0.87451 0.701961 0.752941 0.87451 
0.701961 0.752941 0.87451 0.701961 0.752941 0.87451 
0.701961 0.752941 0.87451 0.701961 0.752941 0.87451 
0.701961 0.752941 0.87451 0.701961 0.752941 0.87451 
0.701961 0.752941 0.87451 0.701961 0.752941 0.87451 
0.701961 0.752941 0.87451 0.701961 0.752941 0.87451 
0.701961 0.752941 0.87451 0.701961 0.752941 0.87451 
0.701961 0.752941 0.87451 0.701961 0.752941 0.87451 
0.701961 0.752941 0.87451 0.701961 0.752941 0.87451 
0.701961 0.752941 0.87451 0.701961 0.752941 0.87451 
0.701961 0.752941 0.87451 0.701961 0.752941 0.87451 
0.701961 0.752941 0.87451 0.701961 0.752941 0.87451 
0.701961 0.752941 0.87451 0.701961 0.752941 0.87451 
0.701961 0.752941 0.87451 0.701961 0.752941 0.87451 
0.701961 0.752941 0.87451 0.701961 0.752941 0.87451 
0.701961 0.752941 0.87451 0.701961 0.752941 0.87451 
0.701961 0.752941 0.87451 0.701961 0.752941 0.87451 
0.701961 0.752941 0.87451 0.701961 0.752941 0.87451 
0.701961 0.752941 0.87451 0.701961 0.752941 0.87451 
0.701961 0.752941 0.87451 0.701961 0.752941 0.87451 
0.701961 0.752941 0.87451 0.701961 0.752941 0.87451 
0.701961 0.752941 0.87451 0.701961 0.752941 0.87451 
0.701961 0.752941 0.87451 0.701961 0.752941 0.87451 
0.701961 0.752941 0.87451 0.701961 0.752941 0.87451 
0.701961 0.752941 0.87451 0.701961 0.752941 0.87451 
0.701961 0.752941 0.87451 0.701961 0.752941 0.87451 
0.701961 0.752941 0.87451 0.701961 0.752941 0.87451 
0.701961 0.752941 0.87451 0.701961 0.752941 0.87451 
0.701961 0.752941 0.87451 0.701961 0.752941 0.87451 
0.701961 0.752941 0.87451 0.701961 0.752941 0.87451 
0.701961 0.752941 0.87451 0.701961 0.752941 0.87451 
0.701961 0.752941 0.87451 0.701961 0.752941 0.87451 
0.701961 0.752941 0.87451 0.701961 0.752941 0.87451 
0.701961 0.752941 0.87451 0.701961 0.752941 0.87451 
0.701961 0.752941 0.87451 0.701961 0.752941 0.87451 
0.701961 0.752941 0.87451 0.701961 0.752941 0.87451 
0.701961 0.752941 0.87451 0.701961 0.752941 0.87451 
0.701961 0.752941 0.87451 0.701961 0.752941 0.87451 
0.701961 0.752941 0.87451 0.701961 0.752941 0.87451 
0.701961 0.752941 0.87451 0.701961 0.752941 0.87451 
0.701961 0.752941 0.87451 0.701961 0.752941 0.87451 
0.701961 0.752941 0.87451 0.701961 0.752941 0.87451 
0.701961 0.752941 0.87451 0.701961 0.752941 0.87451 
0.701961 0.752941 0.87451 0.701961 0.752941 0.87451 
0.701961 0.752941 0.87451 0.701961 0.752941 0.87451 
0.701961 0.752941 0.87451 0.701961 0.752941 0.87451 
0.701961 0.752941 0.87451 0.701961 0.752941 0.87451 
0.701961 0.752941 0.87451 0.701961 0.752941 0.87451 
0.701961 0.752941 0.87451 0.701961 0.752941 0.87451 
0.701961 0.752941 0.87451 0.701961 0.752941 0.87451 
0.701961 0.752941 0.87451 0.701961 0.752941 0.87451 
0.701961 0.752941 0.87451 0.701961 0.752941 0.87451 
0.701961 0.752941 0.87451 0.701961 0.752941 0.87451 
0.701961 0.752941 0.87451 0.701961 0.752941 0.87451 
0.701961 0.752941 0.87451 0.701961 0.752941 0.87451 
0.701961 0.752941 0.87451 0.701961 0.752941 0.87451 
0.701961 0.752941 0.87451 0.701961 0.752941 0.87451 
0.701961 0.752941 0.87451 0.701961 0.752941 0.87451 
0.701961 0.752941 0.87451 0.701961 0.752941 0.87451 
0.701961 0.752941 0.87451 0.701961 0.752941 0.87451 
0.701961 0.752941 0.87451 0.701961 0.752941 0.87451 
0.701961 0.752941 0.87451 0.701961 0.752941 0.87451 
0.701961 0.752941 0.87451 0.701961 0.752941 0.87451 
0.701961 0.752941 0.87451 0.701961 0.752941 0.87451 
0.701961 0.752941 0.87451 0.701961 0.752941 0.87451 
0.701961 0.752941 0.87451 0.701961 0.752941 0.87451 
0.701961 0.752941 0.87451 0.701961 0.752941 0.87451 
0.701961 0.752941 0.87451 0.701961 0.752941 0.87451 
0.701961 0.752941 0.87451 0.701961 0.752941 0.87451 
0.701961 0.752941 0.87451 0.701961 0.752941 0.87451 
0.701961 0.752941 0.87451 0.701961 0.752941 0.87451 
0.701961 0.752941 0.87451 0.701961 0.752941 0.87451 
0.701961 0.752941 0.87451 0.701961 0.752941 0.87451 
0.701961 0.752941 0.87451 0.701961 0.752941 0.87451 
0.701961 0.752941 0.87451 0.701961 0.752941 0.87451 
0.701961 0.752941 0.87451 0.701961 0.752941 0.87451 
0.701961 0.752941 0.87451 0.701961 0.752941 0.87451 
0.701961 0.752941 0.87451 0.701961 0.752941 0.87451 
0.701961 0.752941 0.87451 0.701961 0.752941 0.87451 
0.701961 0.752941 0.87451 0.701961 0.752941 0.87451 
0.701961 0.752941 0.87451 0.701961 0.752941 0.87451 
0.701961 0.752941 0.87451 0.701961 0.752941 0.87451 
0.701961 0.752941 0.87451 0.701961 0.752941 0.87451 
0.701961 0.752941 0.87451 0.701961 0.752941 0.87451 
0.701961 0.752941 0.87451 0.701961 0.752941 0.87451 
0.701961 0.752941 0.87451 0.701961 0.752941 0.87451 
0.701961 0.752941 0.87451 0.701961 0.752941 0.87451 
0.701961 0.752941 0.87451 0.701961 0.752941 0.87451 
0.701961 0.752941 0.87451 0.701961 0.752941 0.87451 
0.701961 0.752941 0.87451 0.701961 0.752941 0.87451 
0.701961 0.752941 0.87451 0.701961 0.752941 0.87451 
0.701961 0.752941 0.87451 0.701961 0.752941 0.87451 
0.701961 0.752941 0.87451 0.701961 0.752941 0.87451 
0.701961 0.752941 0.87451 0.701961 0.752941 0.87451 
0.701961 0.752941 0.87451 0.701961 0.752941 0.87451 
0.701961 0.752941 0.87451 0.701961 0.752941 0.87451 
0.701961 0.752941 0.87451 0.701961 0.752941 0.87451 
0.701961 0.752941 0.87451 0.701961 0.752941 0.87451 
0.701961 0.752941 0.87451 0.701961 0.752941 0.87451 
0.701961 0.752941 0.87451 0.701961 0.752941 0.87451 
0.701961 0.752941 0.87451 0.701961 0.752941 0.87451 
0.701961 0.752941 0.87451 0.701961 0.752941 0.87451 
0.701961 0.752941 0.87451 0.701961 0.752941 0.87451 
0.701961 0.752941 0.87451 0.701961 0.752941 0.87451 
0.701961 0.752941 0.87451 0.701961 0.752941 0.87451 
0.701961 0.752941 0.87451 0.701961 0.752941 0.87451 
0.701961 0.752941 0.87451 0.701961 0.752941 0.87451 
0.701961 0.752941 0.87451 0.701961 0.752941 0.87451 
0.701961 0.752941 0.87451 0.701961 0.752941 0.87451 
0.701961 0.752941 0.87451 0.701961 0.752941 0.87451 
0.701961 0.752941 0.87451 0.701961 0.752941 0.87451 
0.701961 0.752941 0.87451 0.701961 0.752941 0.87451 
0.701961 0.752941 0.87451 0.701961 0.752941 0.87451 
0.701961 0.752941 0.87451 0.701961 0.752941 0.87451 
0.701961 0.752941 0.87451 0.701961 0.752941 0.87451 
0.701961 0.752941 0.87451 0.701961 0.752941 0.87451 
0.701961 0.752941 0.87451 0.701961 0.752941 0.87451 
0.701961 0.752941 0.87451 0.701961 0.752941 0.87451 
0.701961 0.752941 0.87451 0.701961 0.752941 0.87451 
0.701961 0.752941 0.87451 0.701961 0.752941 0.87451 
0.701961 0.752941 0.87451 0.701961 0.752941 0.87451 
0.701961 0.752941 0.87451 0.701961 0.752941 0.87451 
0.701961 0.752941 0.87451 0.701961 0.752941 0.87451 
0.701961 0.752941 0.87451 0.701961 0.752941 0.87451 
0.701961 0.752941 0.87451 0.701961 0.752941 0.87451 
0.701961 0.752941 0.87451 0.701961 0.752941 0.87451 
0.701961 0.752941 0.87451 0.701961 0.752941 0.87451 
0.701961 0.752941 0.87451 0.701961 0.752941 0.87451 
0.701961 0.752941 0.87451 0.701961 0.752941 0.87451 
0.701961 0.752941 0.87451 0.701961 0.752941 0.87451 
0.701961 0.752941 0.87451 0.701961 0.752941 0.87451 
0.701961 0.752941 0.87451 0.701961 0.752941 0.87451 
0.701961 0.752941 0.87451 0.701961 0.752941 0.87451 
0.701961 0.752941 0.87451 0.701961 0.752941 0.87451 
0.701961 0.752941 0.87451 0.701961 0.752941 0.87451 
0.701961 0.752941 0.87451 0.701961 0.752941 0.87451 
0.701961 0.752941 0.87451 0.701961 0.752941 0.87451 
0.701961 0.752941 0.87451 0.701961 0.752941 0.87451 
0.701961 0.752941 0.87451 0.701961 0.752941 0.87451 
0.701961 0.752941 0.87451 0.701961 0.752941 0.87451 
0.701961 0.752941 0.87451 0.701961 0.752941 0.87451 
0.701961 0.752941 0.87451 0.701961 0.752941 0.87451 
0.701961 0.752941 0.87451 0.701961 0.752941 0.87451 
0.701961 0.752941 0.87451 0.701961 0.752941 0.87451 
0.701961 0.752941 0.87451 0.701961 0.752941 0.87451 
0.701961 0.752941 0.87451 0.701961 0.752941 0.87451 
0.701961 0.752941 0.87451 0.701961 0.752941 0.87451 
0.701961 0.752941 0.87451 0.701961 0.752941 0.87451 
0.701961 0.752941 0.87451 0.701961 0.752941 0.87451 
0.701961 0.752941 0.87451 0.701961 0.752941 0.87451 
0.701961 0.752941 0.87451 0.701961 0.752941 0.87451 
0.701961 0.752941 0.87451 0.701961 0.752941 0.87451 
0.701961 0.752941 0.87451 0.701961 0.752941 0.87451 
0.701961 0.752941 0.87451 0.701961 0.752941 0.87451 
0.701961 0.752941 0.87451 0.701961 0.752941 0.87451 
0.701961 0.752941 0.87451 0.701961 0.752941 0.87451 
0.701961 0.752941 0.87451 0.701961 0.752941 0.87451 
0.701961 0.752941 0.87451 0.701961 0.752941 0.87451 
0.701961 0.752941 0.87451 0.701961 0.752941 0.87451 
0.701961 0.752941 0.87451 0.701961 0.752941 0.87451 
0.701961 0.752941 0.87451 0.701961 0.752941 0.87451 
0.701961 0.752941 0.87451 0.701961 0.752941 0.87451 
0.701961 0.752941 0.87451 0.701961 0.752941 0.87451 
0.701961 0.752941 0.87451 0.701961 0.752941 0.87451 
0.701961 0.752941 0.87451 0.701961 0.752941 0.87451 
0.701961 0.752941 0.87451 0.701961 0.752941 0.87451 
0.701961 0.752941 0.87451 0.701961 0.752941 0.87451 
0.701961 0.752941 0.87451 0.701961 0.752941 0.87451 
0.701961 0.752941 0.87451 0.701961 0.752941 0.87451 
0.701961 0.752941 0.87451 0.701961 0.752941 0.87451 
0.701961 0.752941 0.87451 0.701961 0.752941 0.87451 
0.701961 0.752941 0.87451 0.701961 0.752941 0.87451 
0.701961 0.752941 0.87451 0.701961 0.752941 0.87451 
0.701961 0.752941 0.87451 0.701961 0.752941 0.87451 
0.701961 0.752941 0.87451 0.701961 0.752941 0.87451 
0.701961 0.752941 0.87451 0.701961 0.752941 0.87451 
0.701961 0.752941 0.87451 0.701961 0.752941 0.87451 
0.701961 0.752941 0.87451 0.701961 0.752941 0.87451 
0.701961 0.752941 0.87451 0.701961 0.752941 0.87451 
0.701961 0.752941 0.87451 0.701961 0.752941 0.87451 
0.701961 0.752941 0.87451 0.701961 0.752941 0.87451 
0.701961 0.752941 0.87451 0.701961 0.752941 0.87451 
0.701961 0.752941 0.87451 0.701961 0.752941 0.87451 
0.701961 0.752941 0.87451 0.701961 0.752941 0.87451 
0.701961 0.752941 0.87451 0.701961 0.752941 0.87451 
0.701961 0.752941 0.87451 0.701961 0.752941 0.87451 
0.701961 0.752941 0.87451 0.701961 0.752941 0.87451 
0.701961 0.752941 0.87451 0.701961 0.752941 0.87451 
0.701961 0.752941 0.87451 0.701961 0.752941 0.87451 
0.701961 0.752941 0.87451 0.701961 0.752941 0.87451 
0.701961 0.752941 0.87451 0.701961 0.752941 0.87451 
0.701961 0.752941 0.87451 0.701961 0.752941 0.87451 
0.701961 0.752941 0.87451 0.701961 0.752941 0.87451 
0.701961 0.752941 0.87451 0.701961 0.752941 0.87451 
0.701961 0.752941 0.87451 0.701961 0.752941 0.87451 
0.701961 0.752941 0.87451 0.701961 0.752941 0.87451 
0.701961 0.752941 0.87451 0.701961 0.752941 0.87451 
0.701961 0.752941 0.87451 0.701961 0.752941 0.87451 
0.701961 0.752941 0.87451 0.701961 0.752941 0.87451 
0.701961 0.752941 0.87451 0.701961 0.752941 0.87451 
0.701961 0.752941 0.87451 0.701961 0.752941 0.87451 
0.701961 0.752941 0.87451 0.701961 0.752941 0.87451 
0.701961 0.752941 0.87451 0.701961 0.752941 0.87451 
0.701961 0.752941 0.87451 0.701961 0.752941 0.87451 
0.701961 0.752941 0.87451 0.701961 0.752941 0.87451 
0.701961 0.752941 0.87451 0.701961 0.752941 0.87451 
0.701961 0.752941 0.87451 0.701961 0.752941 0.87451 
0.701961 0.752941 0.87451 0.701961 0.752941 0.87451 
0.701961 0.752941 0.87451 0.701961 0.752941 0.87451 
0.701961 0.752941 0.87451 0.701961 0.752941 0.87451 
0.701961 0.752941 0.87451 0.701961 0.752941 0.87451 
0.701961 0.752941 0.87451 0.701961 0.752941 0.87451 
0.701961 0.752941 0.87451 0.701961 0.752941 0.87451 
0.701961 0.752941 0.87451 0.701961 0.752941 0.87451 
0.701961 0.752941 0.87451 0.701961 0.752941 0.87451 
0.701961 0.752941 0.87451 0.701961 0.752941 0.87451 
0.701961 0.752941 0.87451 0.701961 0.752941 0.87451 
0.701961 0.752941 0.87451 0.701961 0.752941 0.87451 
0.701961 0.752941 0.87451 0.701961 0.752941 0.87451 
0.701961 0.752941 0.87451 0.701961 0.752941 0.87451 
0.701961 0.752941 0.87451 0.701961 0.752941 0.87451 
0.701961 0.752941 0.87451 0.701961 0.752941 0.87451 
0.701961 0.752941 0.87451 0.701961 0.752941 0.87451 
0.701961 0.752941 0.87451 0.701961 0.752941 0.87451 
0.701961 0.752941 0.87451 0.701961 0.752941 0.87451 
0.701961 0.752941 0.87451 0.701961 0.752941 0.87451 
0.701961 0.752941 0.87451 0.701961 0.752941 0.87451 
0.701961 0.752941 0.87451 0.701961 0.752941 0.87451 
0.701961 0.752941 0.87451 0.701961 0.752941 0.87451 
0.701961 0.752941 0.87451 0.701961 0.752941 0.87451 
0.701961 0.752941 0.87451 0.701961 0.752941 0.87451 
0.701961 0.752941 0.87451 0.701961 0.752941 0.87451 
0.701961 0.752941 0.87451 0.701961 0.752941 0.87451 
0.701961 0.752941 0.87451 0.701961 0.752941 0.87451 
0.701961 0.752941 0.87451 0.701961 0.752941 0.87451 
0.701961 0.752941 0.87451 0.701961 0.752941 0.87451 
0.701961 0.752941 0.87451 0.701961 0.752941 0.87451 
0.701961 0.752941 0.87451 0.701961 0.752941 0.87451 
0.701961 0.752941 0.87451 0.701961 0.752941 0.87451 
0.701961 0.752941 0.87451 0.701961 0.752941 0.87451 
0.701961 0.752941 0.87451 0.701961 0.752941 0.87451 
0.701961 0.752941 0.87451 0.701961 0.752941 0.87451 
0.701961 0.752941 0.87451 0.701961 0.752941 0.87451 
0.701961 0.752941 0.87451 0.701961 0.752941 0.87451 
0.701961 0.752941 0.87451 0.701961 0.752941 0.87451 
0.701961 0.752941 0.87451 0.701961 0.752941 0.87451 
0.701961 0.752941 0.87451 0.701961 0.752941 0.87451 
0.701961 0.752941 0.87451 0.701961 0.752941 0.87451 
0.701961 0.752941 0.87451 0.701961 0.752941 0.87451 