# vtk DataFile Version 4.2
vtk output
ASCII
DATASET POLYDATA
POINTS 4877 float
313.413 153.604 72.2415 313.758 154.656 72.1855 313.487 159.75 72.2125 
313.249 160.91 72.3786 313.442 161.166 72.3275 313.562 161.627 72.4138 
313.277 147.623 73.0625 312.922 150.283 73.0154 312.899 153.101 72.9158 
314.177 155.125 72.2727 312.879 158.26 72.8011 312.897 159.146 72.6786 
313.013 159.609 72.4696 314.458 160.983 72.56 313.408 164.62 73.002 
313.265 167.04 73.3593 313.479 167.287 73.3298 313.359 167.65 73.4339 
313.831 167.268 73.3713 312.947 142.64 74.2072 312.628 146.871 73.5372 
314.511 146.856 73.599 312.604 147.754 73.4544 312.624 148.381 73.4707 
312.854 152.254 73.2573 312.978 156.9 73.5912 313.009 164.954 73.3008 
312.98 167.21 73.774 314.523 166.422 73.4658 313.151 167.696 73.6076 
313.456 168.4 73.6255 313.088 170.457 74.1959 313.343 170.486 74.1006 
313.345 171.194 74.2263 313.264 171.575 74.3569 312 140.477 75.2071 
312.09 141.139 75.0184 312.36 142.673 74.5251 312.319 145.954 74.3834 
315.272 146.904 74.0355 312.978 166.917 74.5055 312.892 170.275 74.7808 
313.012 170.859 74.3681 312.932 171.007 74.6478 313.087 171.63 74.5331 
312.965 173 75.1804 313.396 172.286 74.5864 313.106 173.358 75.0215 
313.3 174.525 75.2446 313.515 174.644 75.2459 311.717 137.231 76.3779 
311.573 137.537 76.3983 312.22 137.585 76.1614 311.605 138.378 76.3096 
311.707 139.379 75.9898 311.791 139.974 75.5523 311.691 139.924 75.7632 
311.684 140.081 75.6044 312.018 139.897 75.3533 311.719 140.247 75.5491 
311.867 140.753 75.4869 312.022 141.878 75.5038 312.526 146.109 74.9752 
313.429 155.705 74.5232 312.929 170.375 75.1572 312.974 170.818 75.4333 
315.239 170.406 74.7492 313.036 173.764 75.2246 313.115 174.545 75.4264 
314.154 174.232 75.2341 313.404 175.232 75.491 313.127 177.023 76.1895 
313.25 177.386 76.2269 311.43 135.257 77.2739 311.27 135.807 77.1585 
311.219 137.258 76.8416 311.425 137.964 76.9244 311.707 140.199 75.6803 
312.071 142.067 75.7778 317.642 147.038 75.9081 313.312 169.762 75.9078 
312.969 173.201 75.9786 313.116 172.803 76.2639 315.03 174.325 75.686 
312.956 176.963 76.6829 313.127 177.553 76.4281 313.209 179.003 76.9254 
313.367 179.386 76.9797 310.804 132.848 78.4081 310.624 133.437 78.332 
311.63 133.569 77.9947 310.512 134.224 78.3062 312.483 133.79 78.0758 
310.557 135.009 77.908 312.031 134.789 77.4703 310.582 135.216 77.9277 
310.888 135.578 77.5248 313.733 135.962 77.4568 310.728 135.543 77.8415 
313.74 146.164 76.6309 314.541 167.179 76.8711 314.98 178.668 77.0807 
313.558 180.083 77.2441 313.979 180.704 77.4663 314.295 181.189 77.6964 
313.148 182.194 78.1228 313.39 182.259 78.0169 313.326 182.901 78.2188 
313.223 183.078 78.3247 310.675 131.197 78.9897 310.168 130.949 79.1768 
309.89 131.101 79.3419 311.077 131.831 78.7186 312.225 132.434 78.7513 
312.831 133.209 78.5825 310.645 135.336 78.0992 310.656 135.152 78.4401 
313.125 142.028 77.5872 313.055 179.149 77.99 315.872 179.927 78.0063 
313.006 182.067 78.8178 313.07 182.562 78.3425 313.014 182.771 78.6973 
314.49 182.898 78.4385 313.244 183.949 78.8052 313.404 184.473 78.9794 
313.805 183.765 78.6387 309.426 128.195 80.3662 310.324 128.019 80.5768 
309.278 129.121 79.9952 310.11 129.084 79.9351 309.225 129.807 80.0102 
309.443 130.661 79.9347 309.723 131.355 79.7666 310.803 135.347 78.6418 
317.587 166.621 79.4749 315.18 182.025 78.4202 313.065 182.769 79.6201 
313.562 185.186 79.3478 313.345 187.138 80.2078 313.225 187.511 80.4253 
313.618 187.201 80.2409 308.827 128.777 80.4851 308.71 128.82 80.5748 
308.973 129.39 80.4378 312.347 130.217 80.0747 310.453 133.681 79.7032 
319.112 163.622 80.4299 317.214 181.743 79.6502 314.281 186.945 80.2613 
312.981 187.087 80.4642 313.361 187.887 80.6159 313.406 188.452 81.0411 
308.663 124.84 82.2763 308.455 125.227 82.1356 308.467 125.803 81.8987 
308.22 125.31 82.2741 309.727 125.501 82.0183 311.095 127.361 81.3957 
308.272 127.267 81.8257 308.737 128.659 81.3016 319.689 162.175 80.845 
314.8 187.874 81.0132 313.015 188.63 81.7444 313.287 189.895 82.0401 
313.689 190.803 82.455 308.315 122.815 83.5257 307.744 124.079 83.1659 
308.205 124.645 82.5648 307.955 125.03 82.7494 308.67 127.77 82.7055 
312.973 187.762 81.7707 313.097 189.446 81.9974 313.11 189.987 82.3131 
307.968 121.752 84.1445 307.288 122.096 83.9994 306.911 122.079 84.3099 
307.588 122.193 83.8509 307.086 122.767 83.9962 307.403 123.229 83.6081 
307.154 123.25 83.9561 307.867 125.484 83.42 321.89 156.36 82.6933 
315.107 184.012 82.8823 313.162 188.846 82.9464 313.071 190.572 83.2155 
313.379 193.513 84.6476 313.611 193.622 84.5106 306.855 121.211 84.6883 
306.567 121.597 84.735 306.418 121.504 84.8816 306.461 121.66 84.8181 
309.016 122.166 84.2414 306.596 121.945 84.8061 307.081 123.287 84.2906 
307.874 125.219 84.0244 326.672 147.808 83.7184 323.178 149.306 84.3258 
315.57 191.617 83.7061 313.186 192.919 84.6579 313.571 194.032 84.8327 
313.716 194.505 85.1277 305.891 118.258 86.4197 305.955 119.038 86.0526 
306.088 119.728 85.7792 305.766 119.815 86.2565 306.097 120.44 85.6394 
306.985 123.033 84.7066 307.498 123.782 85.3691 322.133 142.067 85.8718 
314.147 190.451 85.3721 313.124 191.728 84.2004 313.249 192.127 84.7864 
313.521 191.335 84.962 313.088 193.253 85.1584 313.095 193.531 85.2757 
313.274 194.282 85.6301 313.832 196.673 86.6656 305.742 117.772 86.7934 
305.029 117.499 87.2657 306.131 120.943 86.0861 309.549 125.873 86.3085 
321.107 133.781 85.7705 313.162 193.439 85.4376 313.329 193.019 85.5341 
313.17 193.812 85.5231 313.37 195.862 86.8092 315.021 195.5 85.9751 
314.45 196.586 86.5263 313.544 197.198 87.3543 304.62 115.031 88.6194 
304.429 115.417 88.4206 305.201 115.625 88.2207 305.311 115.285 88.5091 
304.533 116.023 88.1247 304.498 116.591 88.0256 304.944 116.787 87.6435 
304.71 117.434 87.7605 304.383 117.184 88.389 306.52 121.466 86.7023 
330.952 153.988 86.9496 323.38 179.667 87.2648 321.395 188.305 86.2279 
314.745 191.262 86.4795 313.7 194.172 86.8914 313.447 195.249 87.0324 
313.3 195.81 87.0355 313.313 195.865 87.1895 313.263 195.974 87.1292 
313.287 196.073 87.1024 313.696 197.999 87.7199 313.995 198.155 87.6932 
313.783 198.808 88.2957 303.908 114.135 89.221 303.564 113.855 89.4769 
303.643 114.386 89.3217 305.668 115.202 88.7663 304.147 116.664 88.9129 
304.442 117.428 88.8325 304.785 117.93 88.699 331.266 155.163 87.5024 
331.844 161.533 87.3959 329.818 177.806 87.793 313.301 196.127 87.2568 
313.504 197.108 88.1686 313.5 197.837 88.3185 303.401 113.473 89.7266 
303.146 114.334 90.2574 306.118 115.26 89.0074 304.297 117.059 89.1713 
304.505 117.08 89.8837 330.095 143.511 89.203 330.283 144.142 88.9557 
330.426 144.632 88.9942 328.318 144.933 89.282 330.345 145.715 88.0021 
328.781 146.158 89.1628 330.786 147.378 88.1773 330.799 147.013 88.6596 
331.078 149.103 88.367 328.898 153.387 88.3661 329.427 153.942 88.6512 
331.495 156.233 88.4637 331.663 157.584 88.6146 330.171 157.521 88.919 
332.668 162.272 88.8465 332.758 163.547 88.6488 332.881 164.122 88.9296 
313.983 196.684 89.0766 313.724 197.878 89.3687 314.871 199.728 89.083 
313.738 200.331 90.001 314.654 200.613 89.7215 313.792 201.382 90.6977 
314.005 201.662 90.6439 302.714 111.854 91.1747 302.319 112.358 91.3587 
302.503 112.747 90.915 302.361 112.647 91.0925 302.405 112.786 91.0285 
302.538 113.049 91.0359 302.86 113.731 90.7103 303.094 114.309 90.8158 
329.16 140.554 89.5469 329.755 142.101 89.4071 329.722 141.953 89.6733 
327.905 143.287 89.6145 330.323 144.297 89.1671 330.17 144.319 89.4177 
329.102 145.441 89.4547 330.539 146.241 89.249 330.738 148.011 89.1164 
331.202 152.213 88.8003 330.63 157.556 89.0873 330.889 157.925 89.1432 
331.655 158.447 88.9903 332.227 160.666 89.2068 332.69 162.312 89.0768 
331.261 166.724 89.7421 333.087 172.579 89.5318 331.298 179.297 89.7288 
313.645 199.011 89.748 313.915 202.051 91.0335 313.955 202.558 91.4106 
302.118 110.567 92.4464 301.743 110.514 92.7341 302.505 110.828 92.1469 
302.816 110.471 92.5157 301.643 111.104 92.6254 303.385 114.708 91.2542 
328.612 139.278 90.5088 329.556 141.521 89.8395 329.414 141.442 90.0935 
328.026 141.507 90.3232 328.847 143.168 89.9792 329.713 142.915 89.8539 
329.429 143.643 89.8655 329.875 144.85 89.5976 330.5 150.194 89.1783 
331.013 151.226 89.1365 330.741 154.425 89.0243 330.904 157.273 89.1074 
331.591 160.032 89.3122 332.145 161.411 89.5423 332.192 163.914 89.7042 
332.818 164.899 89.619 333.002 166.565 89.6439 333.273 171.808 90.2424 
333.445 172.624 90.4048 333.499 173.871 90.4516 333.326 174.393 90.2777 
333.617 174.314 90.8894 331.341 174.859 90.8097 333.324 175.159 90.944 
333.447 174.697 91.0574 333.311 175.876 90.9887 313.752 203.194 92.268 
301.907 109.633 93.2743 301.284 110.461 93.2593 301.33 110.828 92.9874 
301.248 110.72 93.0932 301.269 110.832 93.0599 301.39 111.02 93.0896 
326.899 135.335 91.7628 326.981 135.991 90.9005 325.798 138.036 91.0934 
328.143 138.614 90.8608 328.452 139.006 90.653 327.331 139.826 90.8112 
328.594 140.251 90.645 328.207 139.774 90.8516 328.399 140.977 90.5685 
328.973 140.975 90.5121 329.276 142.098 90.2986 329.211 142.478 90.243 
331.088 151.032 89.1292 332.275 161.593 89.5535 332.328 161.928 89.5846 
332.809 165.432 89.7399 332.884 170.109 90.1906 332.566 173.418 90.8351 
333.568 173.416 90.8401 333.656 173.905 90.9129 333.446 174.069 91.0291 
333.679 174.525 91.0944 332.414 175.131 91.1317 332.941 175.06 91.1367 
333.561 174.807 91.1745 333.615 175.197 91.2509 333.673 174.927 91.1986 
333.372 175.396 91.2121 333.51 175.735 91.2652 333.735 175.289 91.3311 
333.752 175.44 91.3816 333.533 175.908 91.3765 333.688 175.59 91.3941 
333.049 177.486 91.3066 332.918 178.336 91.3436 332.86 179.465 91.9032 
332.894 178.573 91.5121 332.421 180.915 91.7406 332.772 180.297 91.9058 
315.098 198.465 91.9443 313.704 202.339 92.36 313.676 202.954 92.4914 
314.484 203.358 91.9513 313.876 203.767 92.5173 313.986 204.207 92.8304 
300.863 108.58 94.2593 300.541 108.37 94.5332 300.327 108.397 94.7232 
[...]
POINT_DATA 4877
COLOR_SCALARS scalars 3
0.494118 0.815686 0.294118 0.494118 0.815686 0.294118 0.494118 0.815686 0.294118 
0.494118 0.815686 0.294118 0.494118 0.815686 0.294118 
0.494118 0.815686 0.294118 0.494118 0.815686 0.294118 
0.494118 0.815686 0.294118 0.494118 0.815686 0.294118 
0.494118 0.815686 0.294118 0.494118 0.815686 0.294118 
0.494118 0.815686 0.294118 0.494118 0.815686 0.294118 
0.494118 0.815686 0.294118 0.494118 0.815686 0.294118 
0.494118 0.815686 0.294118 0.494118 0.815686 0.294118 
0.494118 0.815686 0.294118 0.494118 0.815686 0.294118 
0.494118 0.815686 0.294118 0.494118 0.815686 0.294118 
0.494118 0.815686 0.294118 0.494118 0.815686 0.294118 
0.494118 0.815686 0.294118 0.494118 0.815686 0.294118 
0.494118 0.815686 0.294118 0.494118 0.815686 0.294118 
0.494118 0.815686 0.294118 0.494118 0.815686 0.294118 
0.494118 0.815686 0.294118 0.494118 0.815686 0.294118 
0.494118 0.815686 0.294118 0.494118 0.815686 0.294118 
0.494118 0.815686 0.294118 0.494118 0.815686 0.294118 
0.494118 0.815686 0.294118 0.494118 0.815686 0.294118 
0.494118 0.815686 0.294118 0.494118 0.815686 0.294118 
0.494118 0.815686 0.294118 0.494118 0.815686 0.294118 
0.494118 0.815686 0.294118 0.494118 0.815686 0.294118 
0.494118 0.815686 0.294118 0.494118 0.815686 0.294118 
0.494118 0.815686 0.294118 0.494118 0.815686 0.294118 
0.494118 0.815686 0.294118 0.494118 0.815686 0.294118 
0.494118 0.815686 0.294118 0.494118 0.815686 0.294118 
0.494118 0.815686 0.294118 0.494118 0.815686 0.294118 
0.494118 0.815686 0.294118 0.494118 0.815686 0.294118 
0.494118 0.815686 0.294118 0.494118 0.815686 0.294118 
0.494118 0.815686 0.294118 0.494118 0.815686 0.294118 
0.494118 0.815686 0.294118 0.494118 0.815686 0.294118 
0.494118 0.815686 0.294118 0.494118 0.815686 0.294118 
0.494118 0.815686 0.294118 0.494118 0.815686 0.294118 
0.494118 0.815686 0.294118 0.494118 0.815686 0.294118 
0.494118 0.815686 0.294118 0.494118 0.815686 0.294118 
0.494118 0.815686 0.294118 0.494118 0.815686 0.294118 
0.494118 0.815686 0.294118 0.494118 0.815686 0.294118 
0.494118 0.815686 0.294118 0.494118 0.815686 0.294118 
0.494118 0.815686 0.294118 0.494118 0.815686 0.294118 
0.494118 0.815686 0.294118 0.494118 0.815686 0.294118 
0.494118 0.815686 0.294118 0.494118 0.815686 0.294118 
0.494118 0.815686 0.294118 0.494118 0.815686 0.294118 
0.494118 0.815686 0.294118 0.494118 0.815686 0.294118 
0.494118 0.815686 0.294118 0.494118 0.815686 0.294118 
0.494118 0.815686 0.294118 0.494118 0.815686 0.294118 
0.494118 0.815686 0.294118 0.494118 0.815686 0.294118 
0.494118 0.815686 0.294118 0.494118 0.815686 0.294118 
0.494118 0.815686 0.294118 0.494118 0.815686 0.294118 
0.494118 0.815686 0.294118 0.494118 0.815686 0.294118 
0.494118 0.815686 0.294118 0.494118 0.815686 0.294118 
0.494118 0.815686 0.294118 0.494118 0.815686 0.294118 
0.494118 0.815686 0.294118 0.494118 0.815686 0.294118 
0.494118 0.815686 0.294118 0.494118 0.815686 0.294118 
0.494118 0.815686 0.294118 0.494118 0.815686 0.294118 
0.494118 0.815686 0.294118 0.494118 0.815686 0.294118 
0.494118 0.815686 0.294118 0.494118 0.815686 0.294118 
0.494118 0.815686 0.294118 0.494118 0.815686 0.294118 
0.494118 0.815686 0.294118 0.494118 0.815686 0.294118 
0.494118 0.815686 0.294118 0.494118 0.815686 0.294118 
0.494118 0.815686 0.294118 0.494118 0.815686 0.294118 
0.494118 0.815686 0.294118 0.494118 0.815686 0.294118 
0.494118 0.815686 0.294118 0.494118 0.815686 0.294118 
0.494118 0.815686 0.294118 0.494118 0.815686 0.294118 
0.494118 0.815686 0.294118 0.494118 0.815686 0.294118 
0.494118 0.815686 0.294118 0.494118 0.815686 0.294118 
0.494118 0.815686 0.294118 0.494118 0.815686 0.294118 
0.494118 0.815686 0.294118 0.494118 0.815686 0.294118 
0.494118 0.815686 0.294118 0.494118 0.815686 0.294118 
0.494118 0.815686 0.294118 0.494118 0.815686 0.294118 
0.494118 0.815686 0.294118 0.494118 0.815686 0.294118 
0.494118 0.815686 0.294118 0.494118 0.815686 0.294118 
0.494118 0.815686 0.294118 0.494118 0.815686 0.294118 
0.494118 0.815686 0.294118 0.494118 0.815686 0.294118 
0.494118 0.815686 0.294118 0.494118 0.815686 0.294118 
0.494118 0.815686 0.294118 0.494118 0.815686 0.294118 
0.494118 0.815686 0.294118 0.494118 0.815686 0.294118 
0.494118 0.815686 0.294118 0.494118 0.815686 0.294118 
0.494118 0.815686 0.294118 0.494118 0.815686 0.294118 
0.494118 0.815686 0.294118 0.494118 0.815686 0.294118 
0.494118 0.815686 0.294118 0.494118 0.815686 0.294118 
0.494118 0.815686 0.294118 0.494118 0.815686 0.294118 
0.494118 0.815686 0.294118 0.494118 0.815686 0.294118 
0.494118 0.815686 0.294118 0.494118 0.815686 0.294118 
0.494118 0.815686 0.294118 0.494118 0.815686 0.294118 
0.494118 0.815686 0.294118 0.494118 0.815686 0.294118 
0.494118 0.815686 0.294118 0.494118 0.815686 0.294118 
0.494118 0.815686 0.294118 0.494118 0.815686 0.294118 
0.494118 0.815686 0.294118 0.494118 0.815686 0.294118 
0.494118 0.815686 0.294118 0.494118 0.815686 0.294118 
0.494118 0.815686 0.294118 0.494118 0.815686 0.294118 
0.494118 0.815686 0.294118 0.494118 0.815686 0.294118 
0.494118 0.815686 0.294118 0.494118 0.815686 0.294118 
0.494118 0.815686 0.294118 0.494118 0.815686 0.294118 
0.494118 0.815686 0.294118 0.494118 0.815686 0.294118 
0.494118 0.815686 0.294118 0.494118 0.815686 0.294118 
0.494118 0.815686 0.294118 0.494118 0.815686 0.294118 
0.494118 0.815686 0.294118 0.494118 0.815686 0.294118 
0.494118 0.815686 0.294118 0.494118 0.815686 0.294118 
0.494118 0.815686 0.294118 0.494118 0.815686 0.294118 
0.494118 0.815686 0.294118 0.494118 0.815686 0.294118 
0.494118 0.815686 0.294118 0.494118 0.815686 0.294118 
0.494118 0.815686 0.294118 0.494118 0.815686 0.294118 
0.494118 0.815686 0.294118 0.494118 0.815686 0.294118 
0.494118 0.815686 0.294118 0.494118 0.815686 0.294118 
0.494118 0.815686 0.294118 0.494118 0.815686 0.294118 
0.494118 0.815686 0.294118 0.494118 0.815686 0.294118 
0.494118 0.815686 0.294118 0.494118 0.815686 0.294118 
0.494118 0.815686 0.294118 0.494118 0.815686 0.294118 
0.494118 0.815686 0.294118 0.494118 0.815686 0.294118 
0.494118 0.815686 0.294118 0.494118 0.815686 0.294118 
0.494118 0.815686 0.294118 0.494118 0.815686 0.294118 
0.494118 0.815686 0.294118 0.494118 0.815686 0.294118 
0.494118 0.815686 0.294118 0.494118 0.815686 0.294118 
0.494118 0.815686 0.294118 0.494118 0.815686 0.294118 
0.494118 0.815686 0.294118 0.494118 0.815686 0.294118 
0.494118 0.815686 0.294118 0.494118 0.815686 0.294118 
0.494118 0.815686 0.294118 0.494118 0.815686 0.294118 
0.494118 0.815686 0.294118 0.494118 0.815686 0.294118 
0.494118 0.815686 0.294118 0.494118 0.815686 0.294118 
0.494118 0.815686 0.294118 0.494118 0.815686 0.294118 
0.494118 0.815686 0.294118 0.494118 0.815686 0.294118 
0.494118 0.815686 0.294118 0.494118 0.815686 0.294118 
0.494118 0.815686 0.294118 0.494118 0.815686 0.294118 
0.494118 0.815686 0.294118 0.494118 0.815686 0.294118 
0.494118 0.815686 0.294118 0.494118 0.815686 0.294118 
0.494118 0.815686 0.294118 0.494118 0.815686 0.294118 
0.494118 0.815686 0.294118 0.494118 0.815686 0.294118 
0.494118 0.815686 0.294118 0.494118 0.815686 0.294118 
0.494118 0.815686 0.294118 0.494118 0.815686 0.294118 
0.494118 0.815686 0.294118 0.494118 0.815686 0.294118 
0.494118 0.815686 0.294118 0.494118 0.815686 0.294118 
0.494118 0.815686 0.294118 0.494118 0.815686 0.294118 
0.494118 0.815686 0.294118 0.494118 0.815686 0.294118 
0.494118 0.815686 0.294118 0.494118 0.815686 0.294118 
0.494118 0.815686 0.294118 0.494118 0.815686 0.294118 
0.494118 0.815686 0.294118 0.494118 0.815686 0.294118 
0.494118 0.815686 0.294118 0.494118 0.815686 0.294118 
0.494118 0.815686 0.294118 0.494118 0.815686 0.294118 
0.494118 0.815686 0.294118 0.494118 0.815686 0.294118 
0.494118 0.815686 0.294118 0.494118 0.815686 0.294118 
0.494118 0.815686 0.294118 0.494118 0.815686 0.294118 
0.494118 0.815686 0.294118 0.494118 0.815686 0.294118 
0.494118 0.815686 0.294118 0.494118 0.815686 0.294118 
0.494118 0.815686 0.294118 0.494118 0.815686 0.294118 
0.494118 0.815686 0.294118 0.494118 0.815686 0.294118 
0.494118 0.815686 0.294118 0.494118 0.815686 0.294118 
0.494118 0.815686 0.294118 0.494118 0.815686 0.294118 
0.494118 0.815686 0.294118 0.494118 0.815686 0.294118 
0.494118 0.815686 0.294118 0.494118 0.815686 0.294118 
0.494118 0.815686 0.294118 0.494118 0.815686 0.294118 
0.494118 0.815686 0.294118 0.494118 0.815686 0.294118 
0.494118 0.815686 0.294118 0.494118 0.815686 0.294118 
0.494118 0.815686 0.294118 0.494118 0.815686 0.294118 
0.494118 0.815686 0.294118 0.494118 0.815686 0.294118 
0.494118 0.815686 0.294118 0.494118 0.815686 0.294118 
0.494118 0.815686 0.294118 0.494118 0.815686 0.294118 
0.494118 0.815686 0.294118 0.494118 0.815686 0.294118 
0.494118 0.815686 0.294118 0.494118 0.815686 0.294118 
0.494118 0.815686 0.294118 0.494118 0.815686 0.294118 
0.494118 0.815686 0.294118 0.494118 0.815686 0.294118 
0.494118 0.815686 0.294118 0.494118 0.815686 0.294118 
0.494118 0.815686 0.294118 0.494118 0.815686 0.294118 
0.494118 0.815686 0.294118 0.494118 0.815686 0.294118 
0.494118 0.815686 0.294118 0.494118 0.815686 0.294118 
0.494118 0.815686 0.294118 0.494118 0.815686 0.294118 
0.494118 0.815686 0.294118 0.494118 0.815686 0.294118 
0.494118 0.815686 0.294118 0.494118 0.815686 0.294118 
0.494118 0.815686 0.294118 0.494118 0.815686 0.294118 
0.494118 0.815686 0.294118 0.494118 0.815686 0.294118 
0.494118 0.815686 0.294118 0.494118 0.815686 0.294118 
0.494118 0.815686 0.294118 0.494118 0.815686 0.294118 
0.494118 0.815686 0.294118 0.494118 0.815686 0.294118 
0.494118 0.815686 0.294118 0.494118 0.815686 0.294118 
0.494118 0.815686 0.294118 0.494118 0.815686 0.294118 
0.494118 0.815686 0.294118 0.494118 0.815686 0.294118 
0.494118 0.815686 0.294118 0.494118 0.815686 0.294118 
0.494118 0.815686 0.294118 0.494118 0.815686 0.294118 
0.494118 0.815686 0.294118 0.494118 0.815686 0.294118 
0.494118 0.815686 0.294118 0.494118 0.815686 0.294118 
0.494118 0.815686 0.294118 0.494118 0.815686 0.294118 
0.494118 0.815686 0.294118 0.494118 0.815686 0.294118 
0.494118 0.815686 0.294118 0.494118 0.815686 0.294118 
0.494118 0.815686 0.294118 0.494118 0.815686 0.294118 
0.494118 0.815686 0.294118 0.494118 0.815686 0.294118 
0.494118 0.815686 0.294118 0.494118 0.815686 0.294118 
0.494118 0.815686 0.294118 0.494118 0.815686 0.294118 
0.494118 0.815686 0.294118 0.494118 0.815686 0.294118 
0.494118 0.815686 0.294118 0.494118 0.815686 0.294118 
0.494118 0.815686 0.294118 0.494118 0.815686 0.294118 
0.494118 0.815686 0.294118 0.494118 0.815686 0.294118 
0.494118 0.815686 0.294118 0.494118 0.815686 0.294118 
0.494118 0.815686 0.294118 0.494118 0.815686 0.294118 
0.494118 0.815686 0.294118 0.494118 0.815686 0.294118 
0.494118 0.815686 0.294118 0.494118 0.815686 0.294118 
0.494118 0.815686 0.294118 0.494118 0.815686 0.294118 
0.494118 0.815686 0.294118 0.494118 0.815686 0.294118 
0.494118 0.815686 0.294118 0.494118 0.815686 0.294118 
0.494118 0.815686 0.294118 0.494118 0.815686 0.294118 
0.494118 0.815686 0.294118 0.494118 0.815686 0.294118 
0.494118 0.815686 0.294118 0.494118 0.815686 0.294118 
0.494118 0.815686 0.294118 0.494118 0.815686 0.294118 
0.494118 0.815686 0.294118 0.494118 0.815686 0.294118 
0.494118 0.815686 0.294118 0.494118 0.815686 0.294118 
0.494118 0.815686 0.294118 0.494118 0.815686 0.294118 
0.494118 0.815686 0.294118 0.494118 0.815686 0.294118 
0.494118 0.815686 0.294118 0.494118 0.815686 0.294118 
0.494118 0.815686 0.294118 0.494118 0.815686 0.294118 
0.494118 0.815686 0.294118 0.494118 0.815686 0.294118 
0.494118 0.815686 0.294118 0.494118 0.815686 0.294118 
0.494118 0.815686 0.294118 0.494118 0.815686 0.294118 
0.494118 0.815686 0.294118 0.494118 0.815686 0.294118 
0.494118 0.815686 0.294118 0.494118 0.815686 0.294118 
0.494118 0.815686 0.294118 0.494118 0.815686 0.294118 
0.494118 0.815686 0.294118 0.494118 0.815686 0.294118 
0.494118 0.815686 0.294118 0.494118 0.815686 0.294118 
0.494118 0.815686 0.294118 0.494118 0.815686 0.294118 
0.494118 0.815686 0.294118 0.494118 0.815686 0.294118 
0.494118 0.815686 0.294118 0.494118 0.815686 0.294118 
0.494118 0.815686 0.294118 0.494118 0.815686 0.294118 
0.494118 0.815686 0.294118 0.494118 0.815686 0.294118 
0.494118 0.815686 0.294118 0.494118 0.815686 0.294118 
0.494118 0.815686 0.294118 0.494118 0.815686 0.294118 
0.494118 0.815686 0.294118 0.494118 0.815686 0.294118 
0.494118 0.815686 0.294118 0.494118 0.815686 0.294118 
0.494118 0.815686 0.294118 0.494118 0.815686 0.294118 
0.494118 0.815686 0.294118 0.494118 0.815686 0.294118 
0.494118 0.815686 0.294118 0.494118 0.815686 0.294118 
0.494118 0.815686 0.294118 0.494118 0.815686 0.294118 
0.494118 0.815686 0.294118 0.494118 0.815686 0.294118 
0.494118 0.815686 0.294118 0.494118 0.815686 0.294118 
0.494118 0.815686 0.294118 0.494118 0.815686 0.294118 
0.494118 0.815686 0.294118 0.494118 0.815686 0.294118 
0.494118 0.815686 0.294118 0.494118 0.815686 0.294118 
0.494118 0.815686 0.294118 0.494118 0.815686 0.294118 
0.494118 0.815686 0.294118 0.494118 0.815686 0.294118 
0.494118 0.815686 0.294118 0.494118 0.815686 0.294118 
0.494118 0.815686 0.294118 0.494118 0.815686 0.294118 
0.494118 0.815686 0.294118 0.494118 0.815686 0.294118 
0.494118 0.815686 0.294118 0.494118 0.815686 0.294118 
0.494118 0.815686 0.294118 0.494118 0.815686 0.294118 
0.494118 0.815686 0.294118 0.494118 0.815686 0.294118 
0.494118 0.815686 0.294118 0.494118 0.815686 0.294118 
0.494118 0.815686 0.294118 0.494118 0.815686 0.294118 
0.494118 0.815686 0.294118 0.494118 0.815686 0.294118 
0.494118 0.815686 0.294118 0.494118 0.815686 0.294118 
0.494118 0.815686 0.294118 0.494118 0.815686 0.294118 
0.494118 0.815686 0.294118 0.494118 0.815686 0.294118 
0.494118 0.815686 0.294118 0.494118 0.815686 0.294118 
0.494118 0.815686 0.294118 0.494118 0.815686 0.294118 
0.494118 0.815686 0.294118 0.494118 0.815686 0.294118 
0.494118 0.815686 0.294118 0.494118 0.815686 0.294118 
0.494118 0.815686 0.294118 0.494118 0.815686 0.294118 
0.494118 0.815686 0.294118 0.494118 0.815686 0.294118 
0.494118 0.815686 0.294118 0.494118 0.815686 0.294118 
0.494118 0.815686 0.294118 0.494118 0.815686 0.294118 
0.494118 0.815686 0.294118 0.494118 0.815686 0.294118 
0.494118 0.815686 0.294118 0.494118 0.815686 0.294118 
0.494118 0.815686 0.294118 0.494118 0.815686 0.294118 
0.494118 0.815686 0.294118 0.494118 0.815686 0.294118 
0.494118 0.815686 0.294118 0.494118 0.815686 0.294118 
0.494118 0.815686 0.294118 0.494118 0.815686 0.294118 
0.494118 0.815686 0.294118 0.494118 0.815686 0.294118 
0.494118 0.815686 0.294118 0.494118 0.815686 0.294118 
0.494118 0.815686 0.294118 0.494118 0.815686 0.294118 
0.494118 0.815686 0.294118 0.494118 0.815686 0.294118 
0.494118 0.815686 0.294118 0.494118 0.815686 0.294118 
0.494118 0.815686 0.294118 0.494118 0.815686 0.294118 
0.494118 0.815686 0.294118 0.494118 0.815686 0.294118 
0.494118 0.815686 0.294118 0.494118 0.815686 0.294118 
0.494118 0.815686 0.294118 0.494118 0.815686 0.294118 
0.494118 0.815686 0.294118 0.494118 0.815686 0.294118 
0.494118 0.815686 0.294118 0.494118 0.815686 0.294118 
0.494118 0.815686 0.294118 0.494118 0.815686 0.294118 
0.494118 0.815686 0.294118 0.494118 0.815686 0.294118 
0.494118 0.815686 0.294118 0.494118 0.815686 0.294118 
0.494118 0.815686 0.294118 0.494118 0.815686 0.294118 
0.494118 0.815686 0.294118 0.494118 0.815686 0.294118 
0.494118 0.815686 0.294118 0.494118 0.815686 0.294118 
0.494118 0.815686 0.294118 0.494118 0.815686 0.294118 
0.494118 0.815686 0.294118 0.494118 0.815686 0.294118 
0.494118 0.815686 0.294118 0.494118 0.815686 0.294118 
0.494118 0.815686 0.294118 0.494118 0.815686 0.294118 
0.494118 0.815686 0.294118 0.494118 0.815686 0.294118 
0.494118 0.815686 0.294118 0.494118 0.815686 0.294118 
0.494118 0.815686 0.294118 0.494118 0.815686 0.294118 
0.494118 0.815686 0.294118 0.494118 0.815686 0.294118 
0.494118 0.815686 0.294118 0.494118 0.815686 0.294118 
0.494118 0.815686 0.294118 0.494118 0.815686 0.294118 
0.494118 0.815686 0.294118 0.494118 0.815686 0.294118 
0.494118 0.815686 0.294118 0.494118 0.815686 0.294118 
0.494118 0.815686 0.294118 0.494118 0.815686 0.294118 
0.494118 0.815686 0.294118 0.494118 0.815686 0.294118 
0.494118 0.815686 0.294118 0.494118 0.815686 0.294118 
0.494118 0.815686 0.294118 0.494118 0.815686 0.294118 
0.494118 0.815686 0.294118 0.494118 0.815686 0.294118 
0.494118 0.815686 0.294118 0.494118 0.815686 0.294118 
0.494118 0.815686 0.294118 0.494118 0.815686 0.294118 
0.494118 0.815686 0.294118 0.494118 0.815686 0.294118 
0.494118 0.815686 0.294118 0.494118 0.815686 0.294118 
0.494118 0.815686 0.294118 0.494118 0.815686 0.294118 
0.494118 0.815686 0.294118 0.494118 0.815686 0.294118 
0.494118 0.815686 0.294118 0.494118 0.815686 0.294118 
0.494118 0.815686 0.294118 0.494118 0.815686 0.294118 
0.494118 0.815686 0.294118 0.494118 0.815686 0.294118 
0.494118 0.815686 0.294118 0.494118 0.815686 0.294118 
0.494118 0.815686 0.294118 0.494118 0.815686 0.294118 
0.494118 0.815686 0.294118 0.494118 0.815686 0.294118 
0.494118 0.815686 0.294118 0.494118 0.815686 0.294118 
0.494118 0.815686 0.294118 0.494118 0.815686 0.294118 
0.494118 0.815686 0.294118 0.494118 0.815686 0.294118 
0.494118 0.815686 0.294118 0.494118 0.815686 0.294118 
0.494118 0.815686 0.294118 0.494118 0.815686 0.294118 
0.494118 0.815686 0.294118 0.494118 0.815686 0.294118 
0.494118 0.815686 0.294118 0.494118 0.815686 0.294118 
0.494118 0.815686 0.294118 0.494118 0.815686 0.294118 
0.494118 0.815686 0.294118 0.494118 0.815686 0.294118 
0.494118 0.815686 0.294118 0.494118 0.815686 0.294118 
0.494118 0.815686 0.294118 0.494118 0.815686 0.294118 
0.494118 0.815686 0.294118 0.494118 0.815686 0.294118 
0.494118 0.815686 0.294118 0.494118 0.815686 0.294118 
0.494118 0.815686 0.294118 0.494118 0.815686 0.294118 
0.494118 0.815686 0.294118 0.494118 0.815686 0.294118 
0.494118 0.815686 0.294118 0.494118 0.815686 0.294118 
0.494118 0.815686 0.294118 0.494118 0.815686 0.294118 
0.494118 0.815686 0.294118 0.494118 0.815686 0.294118 
0.494118 0.815686 0.294118 0.494118 0.815686 0.294118 
0.494118 0.815686 0.294118 0.494118 0.815686 0.294118 
0.494118 0.815686 0.294118 0.494118 0.815686 0.294118 
0.494118 0.815686 0.294118 0.494118 0.815686 0.294118 
0.494118 0.815686 0.294118 0.494118 0.815686 0.294118 
0.494118 0.815686 0.294118 0.494118 0.815686 0.294118 
0.494118 0.815686 0.294118 0.494118 0.815686 0.294118 
0.494118 0.815686 0.294118 0.494118 0.815686 0.294118 
0.494118 0.815686 0.294118 0.494118 0.815686 0.294118 
0.494118 0.815686 0.294118 0.494118 0.815686 0.294118 
0.494118 0.815686 0.294118 0.494118 0.815686 0.294118 
0.494118 0.815686 0.294118 0.494118 0.815686 0.294118 
0.494118 0.815686 0.294118 0.494118 0.815686 0.294118 
0.494118 0.815686 0.294118 0.494118 0.815686 0.294118 
0.494118 0.815686 0.294118 0.494118 0.815686 0.294118 
0.494118 0.815686 0.294118 0.494118 0.815686 0.294118 
0.494118 0.815686 0.294118 0.494118 0.815686 0.294118 
0.494118 0.815686 0.294118 0.494118 0.815686 0.294118 
0.494118 0.815686 0.294118 0.494118 0.815686 0.294118 
0.494118 0.815686 0.294118 0.494118 0.815686 0.294118 
0.494118 0.815686 0.294118 0.494118 0.815686 0.294118 
0.494118 0.815686 0.294118 0.494118 0.815686 0.294118 
0.494118 0.815686 0.294118 0.494118 0.815686 0.294118 
0.494118 0.815686 0.294118 0.494118 0.815686 0.294118 
0.494118 0.815686 0.294118 0.494118 0.815686 0.294118 
0.494118 0.815686 0.294118 0.494118 0.815686 0.294118 
0.494118 0.815686 0.294118 0.494118 0.815686 0.294118 
0.494118 0.815686 0.294118 0.494118 0.815686 0.294118 
0.494118 0.815686 0.294118 0.494118 0.815686 0.294118 
0.494118 0.815686 0.294118 0.494118 0.815686 0.294118 
0.494118 0.815686 0.294118 0.494118 0.815686 0.294118 
0.494118 0.815686 0.294118 0.494118 0.815686 0.294118 
0.494118 0.815686 0.294118 0.494118 0.815686 0.294118 
0.494118 0.815686 0.294118 0.494118 0.815686 0.294118 
0.494118 0.815686 0.294118 0.494118 0.815686 0.294118 
0.494118 0.815686 0.294118 0.494118 0.815686 0.294118 
0.494118 0.815686 0.294118 0.494118 0.815686 0.294118 
0.494118 0.815686 0.294118 0.494118 0.815686 0.294118 