# vtk DataFile Version 4.2
vtk output
ASCII
DATASET POLYDATA
POINTS 4878 float
311.094 150.332 74.0835 311.458 149.924 74.1747 311.258 152.129 73.9633 
311.193 153.158 73.9459 311.782 152.162 73.9705 312.197 152.492 74.0656 
311.716 153.769 73.942 310.609 155.554 74.0931 311.081 157.998 74.0046 
310.781 159.206 74.1573 312.12 158.39 74.0373 311.245 159.796 74.078 
311.709 160.384 74.0985 311.164 163.219 74.4726 311.41 163.742 74.5393 
310.482 144.762 75.129 310.259 144.306 75.2882 309.98 145.726 75.057 
310.523 146.392 74.8526 311.065 145.454 74.9932 310.26 148.191 74.6018 
312.51 147.906 74.9785 310.142 150.975 74.2975 312.09 151.151 74.1598 
310.115 152.913 74.2676 309.584 154.292 74.6163 310.087 154.926 74.313 
310.106 157.735 74.3853 312.897 157.737 74.2943 310.333 162.378 74.7285 
312.092 162.838 74.4288 310.389 164.211 75.0433 311.257 165.509 74.9237 
310.821 165.854 75.1566 311.845 166.536 75.0329 311.271 167.213 75.2598 
310.983 167.845 75.5368 309.138 143.409 75.8708 310.429 143.509 75.5665 
308.897 145.314 75.6225 312.051 146.364 75.0879 309.832 159.908 74.8126 
309.891 161.866 75.0027 310.426 167.267 75.7116 313.122 166.163 75.2984 
310.908 168.893 75.834 312.603 168.47 75.5992 311.317 169.529 75.8308 
311.268 172.158 76.4945 310.965 172.664 76.7779 309.61 139.199 77.1648 
309.508 140.263 76.7165 310.854 140.236 76.8639 308.668 142.698 76.2831 
312.261 143.331 76.1405 308.414 144.657 76.0587 314.159 150.972 75.3594 
314.916 154.009 75.6888 309.805 164.885 75.6805 309.367 165.026 76.2242 
309.636 167.209 76.4231 310.351 169.175 76.2424 312.212 172.173 76.4195 
311.011 174.512 77.4503 309.537 137.762 77.8219 310.016 137.663 77.9097 
308.647 138.487 77.6035 310.584 137.92 77.9543 307.357 145.389 76.9502 
307.767 151.913 76.4337 309.188 168.269 77.3001 309.538 169.969 77.311 
314.724 169.718 77.0261 310.052 172.362 77.4002 311.513 175.187 77.5488 
312.35 176.257 77.8541 308.657 135.484 78.8708 307.815 136.459 78.6549 
308.106 138.179 77.9204 311.624 138.083 78.3175 307.777 160.603 77.6894 
308.44 166.91 78.1511 309.568 172.973 78.2448 310.03 174.294 78.1447 
310.737 177.741 78.9149 311.769 179.52 79.232 307.926 132.15 80.2694 
307.339 132.778 80.0538 307.295 135.852 79.0658 306.049 142.56 78.699 
313.059 179.002 79.111 311.588 181.155 80.0539 312.315 181.899 80.2158 
307.131 130.333 81.1635 306.91 130.906 80.9339 307.562 130.203 81.2502 
309.216 132.839 80.1218 311.143 135.832 79.3919 306.007 137.712 79.4473 
312.826 137.995 79.1771 314.18 139.871 79.2035 319.013 164.117 79.494 
315.21 177.712 79.7189 310.801 181.936 80.9263 313.186 181.494 80.1056 
311.168 183.661 81.522 311.969 183.233 80.9216 312.198 183.844 81.1861 
306.558 129.478 81.6244 306.726 128.969 81.8688 307.348 128.816 82.0053 
305.836 130.465 81.4797 307.844 129.827 81.5257 305.536 132.874 80.8978 
304.817 134.011 81.27 310.137 181.29 81.3616 313.863 182.13 80.7178 
310.719 183.083 81.6117 311.03 184.554 82.1515 312.598 184.283 81.4147 
311.209 185.517 82.5786 306.598 126.819 83.054 306.107 128.586 82.1595 
305.187 128.705 82.4053 309.119 129.742 82.0746 310.41 130.722 82.1913 
310.837 185.693 83.0839 312.964 185.245 81.9793 312.283 186.496 82.7314 
304.63 126.474 83.5713 305.152 127.125 83.1092 307.92 127.3 83.1153 
312.214 131.829 82.8229 306.73 167.813 82.3325 307.563 173.836 83.3227 
314.658 185.634 82.9666 310.792 186.725 83.8976 311.738 187.313 83.4984 
312.971 187.666 83.504 312.232 187.999 83.7614 312.181 188.871 84.3389 
305.188 123.743 84.7668 304.392 124.712 84.3877 309.059 127.039 84.1008 
305.791 165.492 83.7799 311.611 188.484 84.3631 311.774 190.245 85.4134 
312.793 189.435 84.5774 312.284 190.514 85.3294 312.504 190.981 85.558 
304.328 121.502 86.3118 303.836 121.712 86.2064 304.892 122.021 85.991 
303.19 122.722 85.807 303.33 123.886 85.239 302.723 130.763 84.1174 
302.746 144.813 84.2219 323.181 145.494 84.4655 308.844 182.385 85.1094 
313.479 190.403 85.2109 303.561 120.997 86.6976 302.966 121.023 86.7965 
305.082 121.229 86.7225 318.348 135.887 85.6552 301.776 137.753 85.442 
326.236 148.928 86.0372 303.776 157.732 85.5061 304.827 163.59 85.7356 
322.667 179.956 86.0724 310.496 189.83 86.6404 316.112 189.853 86.2873 
314.241 190.71 85.6362 311.174 191.154 86.5849 311.966 192.636 86.9931 
312.979 192.273 86.4194 312.376 193.112 87.1201 312.041 193.483 87.5659 
304.064 119.652 87.7354 301.937 120.539 87.5006 302.12 122.063 86.7129 
308.229 123.23 86.9524 301.801 146.539 86.8048 314.25 193.046 87.2864 
312.357 194.021 87.7902 311.998 194.273 88.226 312.856 194.172 87.785 
302.402 118.659 88.3681 303.193 117.756 88.9445 301.38 118.734 88.575 
304.037 118.504 88.6952 300.15 131.355 87.8396 328.22 148.03 88.018 
312.754 194.858 88.3356 301.119 115.681 90.3151 300.909 116.521 89.8893 
303.276 116.871 89.7147 299.888 119.033 89.3762 329.856 152.956 88.7899 
330.604 159.601 88.99 310.03 191.207 88.954 313.147 196.432 89.5521 
313.005 196.912 89.9047 312.827 197.194 90.2265 300.582 115.241 90.6615 
302.33 115.319 90.6252 299.78 116.286 90.4847 299.559 118.265 89.8871 
299.133 119.883 89.8196 300.824 145.652 89.5639 330.19 146.929 90.5517 
301.324 149.625 90.3125 312.091 197.513 91.1338 313.145 197.241 90.1462 
299.765 113.219 92.132 300.117 114.37 91.3375 299.471 114.319 91.5394 
299.092 114.581 91.5949 298.701 116.074 91.2912 298.185 121.402 90.7068 
298.556 134.028 91.474 299.504 140.002 91.4076 328.053 140.861 91.1615 
329.415 143.275 91.2856 331.264 151.099 90.7335 304.671 167.071 91.5055 
333.298 168.409 91.2073 333.046 171.302 91.1273 332.051 174.498 90.8501 
322.353 189.779 91.0382 311.463 196.72 91.1727 313.702 198.01 90.8908 
312.604 198.313 91.4419 313.085 198.928 91.7511 313.545 199.225 91.9236 
300.748 112.28 93.0872 303.87 115.431 91.5055 330.656 145.287 91.9941 
303.034 158.876 91.8387 333.343 175.877 92.0005 326.741 184.843 91.4406 
310.33 194.983 91.8724 312.106 199.546 93.0371 313.831 199.568 92.2588 
299.303 110.596 94.4078 299.204 111.744 93.4573 297.415 114.008 93.0854 
297.188 115.628 92.8107 296.47 123.042 93.1127 323.5 133.821 92.2464 
327.547 139.078 91.9915 305.197 169.765 93.0259 329.334 182.025 91.7826 
328.177 184.138 92.073 311.455 198.934 93.3612 312.595 200.467 93.3888 
298.488 110.031 94.878 298.798 109.625 95.2599 297.553 110.378 94.7536 
301.266 111.491 94.3161 296.237 126.472 94.0375 335.222 169.046 93.0992 
335.285 179.008 94.3179 308.723 190.376 93.6939 310.966 198.573 93.9608 
311.682 200.813 94.727 314.016 201.885 94.2141 312.916 202.306 94.6963 
312.742 202.431 94.9019 297.545 108.711 95.9783 299.12 109.563 95.4153 
296.4 111.469 94.9063 319.671 127.223 95.0091 333.703 150.462 94.1723 
336.706 170.932 94.8148 305.993 173.999 94.8861 336.069 174.163 94.1704 
334.297 182.238 94.7237 333.034 183.045 94.3303 309.62 194.839 94.2703 
310.911 199.532 95.0247 315.12 201.992 94.6521 311.991 202.678 95.9531 
313.214 203.728 95.7958 302.031 111.25 95.3679 299.761 144.063 95.4551 
335.029 149.54 95.8004 335.91 154.445 95.3012 337.514 168.141 95.6993 
335.118 184.614 96.4001 330.239 188.569 95.9716 317.367 200.73 95.1558 
315.105 203.966 96.15 314.231 204.997 96.55 313.357 205.517 97.0071 
313.02 205.723 97.383 296.899 106.689 98.0393 295.463 106.986 97.9189 
298.13 107.737 97.1113 307.192 114.81 96.3748 331.907 141.808 96.4649 
300.872 147.68 97.1739 336.761 151.348 96.4354 343.035 157.038 97.1143 
342.308 159.519 96.9792 342.517 159.992 97.0334 344.279 159.278 97.3894 
338.802 162.909 96.4318 338.609 167.688 96.6521 338.358 172.504 97.0089 
306.485 177.759 97.3175 306.797 180.492 96.6919 334.09 187.665 97.4996 
311.488 203.784 97.7041 312.174 205.053 97.6562 312.469 205.762 97.9294 
313.314 206.259 97.6373 312.999 206.514 98.096 313.747 206.39 97.6244 
297.605 106.428 98.5933 293.377 111.267 97.8648 301.782 150.401 97.6053 
339.313 153.004 96.9394 303.773 158.441 97.5666 346.05 157.749 98.1424 
342.84 161.552 97.2621 340.846 163.319 97.182 304.955 164.76 97.6918 
345.305 164.226 98.2507 337.296 184.512 98.5915 314.108 206.479 97.6852 
313.334 207.023 98.3286 313.547 207.437 98.6583 293.657 106.258 99.2642 
292.41 118.169 99.165 294.428 127.466 99.3527 298.114 138.107 98.9108 
334.75 143.773 97.8413 339.96 148.817 97.9566 344.718 150.243 99.0174 
347.276 154.943 99.276 339.749 167.93 97.4408 341.068 168.44 98.1233 
344.981 169.136 99.3264 307.679 187.489 98.3786 310.166 201.3 99.0749 
312.491 207.646 99.6702 313.108 208.355 99.7858 314.189 208.566 99.615 
294.525 103.749 100.854 293.154 104.435 100.642 292.018 109.037 99.6762 
292.134 119.528 100.046 333.373 140.595 98.7379 334.138 142.104 98.357 
301.72 148.385 99.4931 347.986 162.16 99.3731 347.199 168.114 99.9333 
339.331 176.282 99.1153 336.676 187.448 99.4484 311.156 205.344 99.8937 
313.619 210.087 101.062 292.679 103.514 101.5 292.005 104.244 101.429 
291.752 105.227 101.146 300.178 106.891 100.492 291.904 120.566 100.991 
338.599 139.401 101.115 300.004 142.328 101.071 335.24 141.811 99.0353 
340.006 142.277 100.202 301.152 145.907 100.408 345.687 145.597 101.121 
349.612 164.918 100.929 347.049 170.337 100.564 339.525 178.611 100.136 
322.144 202.205 100.219 293.159 101.712 103.106 292.538 101.806 103.053 
293.538 101.867 102.949 291.983 102.179 102.834 326.97 131.353 101.24 
329.206 133.791 100.761 302.992 149.505 101.525 348.811 150.181 101.55 
350.691 156.794 101.874 306.45 163.215 101.894 349.908 167.068 101.609 
346.351 175.302 102.269 307.112 178.003 101.877 315.307 210.999 102.074 
312.711 211.812 103.142 314.374 211.942 102.573 291.255 101.198 103.872 
293.582 101.562 103.393 289.292 109.314 102.853 289.765 113.975 102.63 
319.446 121.444 102.582 292.328 123.895 103.043 343.877 138.877 103.5 
300.262 141.161 103.294 349.193 146.693 103.107 305.101 153.188 103.177 
304.91 154.333 102.333 351.26 159.336 102.337 307.07 162.056 103.28 
306.888 164.537 102.425 342.456 176.717 101.592 308.465 197.16 103.877 
309.262 201.681 103.309 317.792 210.058 103.073 311.985 210.508 102.957 
[...]
POINT_DATA 4878
COLOR_SCALARS scalars 3
0.494118 0.815686 0.294118 0.494118 0.815686 0.294118 0.494118 0.815686 0.294118 
0.494118 0.815686 0.294118 0.494118 0.815686 0.294118 
0.494118 0.815686 0.294118 0.494118 0.815686 0.294118 
0.494118 0.815686 0.294118 0.494118 0.815686 0.294118 
0.494118 0.815686 0.294118 0.494118 0.815686 0.294118 
0.494118 0.815686 0.294118 0.494118 0.815686 0.294118 
0.494118 0.815686 0.294118 0.494118 0.815686 0.294118 
0.494118 0.815686 0.294118 0.494118 0.815686 0.294118 
0.494118 0.815686 0.294118 0.494118 0.815686 0.294118 
0.494118 0.815686 0.294118 0.494118 0.815686 0.294118 
0.494118 0.815686 0.294118 0.494118 0.815686 0.294118 
0.494118 0.815686 0.294118 0.494118 0.815686 0.294118 
0.494118 0.815686 0.294118 0.494118 0.815686 0.294118 
0.494118 0.815686 0.294118 0.494118 0.815686 0.294118 
0.494118 0.815686 0.294118 0.494118 0.815686 0.294118 
0.494118 0.815686 0.294118 0.494118 0.815686 0.294118 
0.494118 0.815686 0.294118 0.494118 0.815686 0.294118 
0.494118 0.815686 0.294118 0.494118 0.815686 0.294118 
0.494118 0.815686 0.294118 0.494118 0.815686 0.294118 
0.494118 0.815686 0.294118 0.494118 0.815686 0.294118 
0.494118 0.815686 0.294118 0.494118 0.815686 0.294118 
0.494118 0.815686 0.294118 0.494118 0.815686 0.294118 
0.494118 0.815686 0.294118 0.494118 0.815686 0.294118 
0.494118 0.815686 0.294118 0.494118 0.815686 0.294118 
0.494118 0.815686 0.294118 0.494118 0.815686 0.294118 
0.494118 0.815686 0.294118 0.494118 0.815686 0.294118 
0.494118 0.815686 0.294118 0.494118 0.815686 0.294118 
0.494118 0.815686 0.294118 0.494118 0.815686 0.294118 
0.494118 0.815686 0.294118 0.494118 0.815686 0.294118 
0.494118 0.815686 0.294118 0.494118 0.815686 0.294118 
0.494118 0.815686 0.294118 0.494118 0.815686 0.294118 
0.494118 0.815686 0.294118 0.494118 0.815686 0.294118 
0.494118 0.815686 0.294118 0.494118 0.815686 0.294118 
0.494118 0.815686 0.294118 0.494118 0.815686 0.294118 
0.494118 0.815686 0.294118 0.494118 0.815686 0.294118 
0.494118 0.815686 0.294118 0.494118 0.815686 0.294118 
0.494118 0.815686 0.294118 0.494118 0.815686 0.294118 
0.494118 0.815686 0.294118 0.494118 0.815686 0.294118 
0.494118 0.815686 0.294118 0.494118 0.815686 0.294118 
0.494118 0.815686 0.294118 0.494118 0.815686 0.294118 
0.494118 0.815686 0.294118 0.494118 0.815686 0.294118 
0.494118 0.815686 0.294118 0.494118 0.815686 0.294118 
0.494118 0.815686 0.294118 0.494118 0.815686 0.294118 
0.494118 0.815686 0.294118 0.494118 0.815686 0.294118 
0.494118 0.815686 0.294118 0.494118 0.815686 0.294118 
0.494118 0.815686 0.294118 0.494118 0.815686 0.294118 
0.494118 0.815686 0.294118 0.494118 0.815686 0.294118 
0.494118 0.815686 0.294118 0.494118 0.815686 0.294118 
0.494118 0.815686 0.294118 0.494118 0.815686 0.294118 
0.494118 0.815686 0.294118 0.494118 0.815686 0.294118 
0.494118 0.815686 0.294118 0.494118 0.815686 0.294118 
0.494118 0.815686 0.294118 0.494118 0.815686 0.294118 
0.494118 0.815686 0.294118 0.494118 0.815686 0.294118 
0.494118 0.815686 0.294118 0.494118 0.815686 0.294118 
0.494118 0.815686 0.294118 0.494118 0.815686 0.294118 
0.494118 0.815686 0.294118 0.494118 0.815686 0.294118 
0.494118 0.815686 0.294118 0.494118 0.815686 0.294118 
0.494118 0.815686 0.294118 0.494118 0.815686 0.294118 
0.494118 0.815686 0.294118 0.494118 0.815686 0.294118 
0.494118 0.815686 0.294118 0.494118 0.815686 0.294118 
0.494118 0.815686 0.294118 0.494118 0.815686 0.294118 
0.494118 0.815686 0.294118 0.494118 0.815686 0.294118 
0.494118 0.815686 0.294118 0.494118 0.815686 0.294118 
0.494118 0.815686 0.294118 0.494118 0.815686 0.294118 
0.494118 0.815686 0.294118 0.494118 0.815686 0.294118 
0.494118 0.815686 0.294118 0.494118 0.815686 0.294118 
0.494118 0.815686 0.294118 0.494118 0.815686 0.294118 
0.494118 0.815686 0.294118 0.494118 0.815686 0.294118 
0.494118 0.815686 0.294118 0.494118 0.815686 0.294118 
0.494118 0.815686 0.294118 0.494118 0.815686 0.294118 
0.494118 0.815686 0.294118 0.494118 0.815686 0.294118 
0.494118 0.815686 0.294118 0.494118 0.815686 0.294118 
0.494118 0.815686 0.294118 0.494118 0.815686 0.294118 
0.494118 0.815686 0.294118 0.494118 0.815686 0.294118 
0.494118 0.815686 0.294118 0.494118 0.815686 0.294118 
0.494118 0.815686 0.294118 0.494118 0.815686 0.294118 
0.494118 0.815686 0.294118 0.494118 0.815686 0.294118 
0.494118 0.815686 0.294118 0.494118 0.815686 0.294118 
0.494118 0.815686 0.294118 0.494118 0.815686 0.294118 
0.494118 0.815686 0.294118 0.494118 0.815686 0.294118 
0.494118 0.815686 0.294118 0.494118 0.815686 0.294118 
0.494118 0.815686 0.294118 0.494118 0.815686 0.294118 
0.494118 0.815686 0.294118 0.494118 0.815686 0.294118 
0.494118 0.815686 0.294118 0.494118 0.815686 0.294118 
0.494118 0.815686 0.294118 0.494118 0.815686 0.294118 
0.494118 0.815686 0.294118 0.494118 0.815686 0.294118 
0.494118 0.815686 0.294118 0.494118 0.815686 0.294118 
0.494118 0.815686 0.294118 0.494118 0.815686 0.294118 
0.494118 0.815686 0.294118 0.494118 0.815686 0.294118 
0.494118 0.815686 0.294118 0.494118 0.815686 0.294118 
0.494118 0.815686 0.294118 0.494118 0.815686 0.294118 
0.494118 0.815686 0.294118 0.494118 0.815686 0.294118 
0.494118 0.815686 0.294118 0.494118 0.815686 0.294118 
0.494118 0.815686 0.294118 0.494118 0.815686 0.294118 
0.494118 0.815686 0.294118 0.494118 0.815686 0.294118 
0.494118 0.815686 0.294118 0.494118 0.815686 0.294118 
0.494118 0.815686 0.294118 0.494118 0.815686 0.294118 
0.494118 0.815686 0.294118 0.494118 0.815686 0.294118 
0.494118 0.815686 0.294118 0.494118 0.815686 0.294118 
0.494118 0.815686 0.294118 0.494118 0.815686 0.294118 
0.494118 0.815686 0.294118 0.494118 0.815686 0.294118 
0.494118 0.815686 0.294118 0.494118 0.815686 0.294118 
0.494118 0.815686 0.294118 0.494118 0.815686 0.294118 
0.494118 0.815686 0.294118 0.494118 0.815686 0.294118 
0.494118 0.815686 0.294118 0.494118 0.815686 0.294118 
0.494118 0.815686 0.294118 0.494118 0.815686 0.294118 
0.494118 0.815686 0.294118 0.494118 0.815686 0.294118 
0.494118 0.815686 0.294118 0.494118 0.815686 0.294118 
0.494118 0.815686 0.294118 0.494118 0.815686 0.294118 
0.494118 0.815686 0.294118 0.494118 0.815686 0.294118 
0.494118 0.815686 0.294118 0.494118 0.815686 0.294118 
0.494118 0.815686 0.294118 0.494118 0.815686 0.294118 
0.494118 0.815686 0.294118 0.494118 0.815686 0.294118 
0.494118 0.815686 0.294118 0.494118 0.815686 0.294118 
0.494118 0.815686 0.294118 0.494118 0.815686 0.294118 
0.494118 0.815686 0.294118 0.494118 0.815686 0.294118 
0.494118 0.815686 0.294118 0.494118 0.815686 0.294118 
0.494118 0.815686 0.294118 0.494118 0.815686 0.294118 
0.494118 0.815686 0.294118 0.494118 0.815686 0.294118 
0.494118 0.815686 0.294118 0.494118 0.815686 0.294118 
0.494118 0.815686 0.294118 0.494118 0.815686 0.294118 
0.494118 0.815686 0.294118 0.494118 0.815686 0.294118 
0.494118 0.815686 0.294118 0.494118 0.815686 0.294118 
0.494118 0.815686 0.294118 0.494118 0.815686 0.294118 
0.494118 0.815686 0.294118 0.494118 0.815686 0.294118 
0.494118 0.815686 0.294118 0.494118 0.815686 0.294118 
0.494118 0.815686 0.294118 0.494118 0.815686 0.294118 
0.494118 0.815686 0.294118 0.494118 0.815686 0.294118 
0.494118 0.815686 0.294118 0.494118 0.815686 0.294118 
0.494118 0.815686 0.294118 0.494118 0.815686 0.294118 
0.494118 0.815686 0.294118 0.494118 0.815686 0.294118 
0.494118 0.815686 0.294118 0.494118 0.815686 0.294118 
0.494118 0.815686 0.294118 0.494118 0.815686 0.294118 
0.494118 0.815686 0.294118 0.494118 0.815686 0.294118 
0.494118 0.815686 0.294118 0.494118 0.815686 0.294118 
0.494118 0.815686 0.294118 0.494118 0.815686 0.294118 
0.494118 0.815686 0.294118 0.494118 0.815686 0.294118 
0.494118 0.815686 0.294118 0.494118 0.815686 0.294118 
0.494118 0.815686 0.294118 0.494118 0.815686 0.294118 
0.494118 0.815686 0.294118 0.494118 0.815686 0.294118 
0.494118 0.815686 0.294118 0.494118 0.815686 0.294118 
0.494118 0.815686 0.294118 0.494118 0.815686 0.294118 
0.494118 0.815686 0.294118 0.494118 0.815686 0.294118 
0.494118 0.815686 0.294118 0.494118 0.815686 0.294118 
0.494118 0.815686 0.294118 0.494118 0.815686 0.294118 
0.494118 0.815686 0.294118 0.494118 0.815686 0.294118 
0.494118 0.815686 0.294118 0.494118 0.815686 0.294118 
0.494118 0.815686 0.294118 0.494118 0.815686 0.294118 
0.494118 0.815686 0.294118 0.494118 0.815686 0.294118 
0.494118 0.815686 0.294118 0.494118 0.815686 0.294118 
0.494118 0.815686 0.294118 0.494118 0.815686 0.294118 
0.494118 0.815686 0.294118 0.494118 0.815686 0.294118 
0.494118 0.815686 0.294118 0.494118 0.815686 0.294118 
0.494118 0.815686 0.294118 0.494118 0.815686 0.294118 
0.494118 0.815686 0.294118 0.494118 0.815686 0.294118 
0.494118 0.815686 0.294118 0.494118 0.815686 0.294118 
0.494118 0.815686 0.294118 0.494118 0.815686 0.294118 
0.494118 0.815686 0.294118 0.494118 0.815686 0.294118 
0.494118 0.815686 0.294118 0.494118 0.815686 0.294118 
0.494118 0.815686 0.294118 0.494118 0.815686 0.294118 
0.494118 0.815686 0.294118 0.494118 0.815686 0.294118 
0.494118 0.815686 0.294118 0.494118 0.815686 0.294118 
0.494118 0.815686 0.294118 0.494118 0.815686 0.294118 
0.494118 0.815686 0.294118 0.494118 0.815686 0.294118 
0.494118 0.815686 0.294118 0.494118 0.815686 0.294118 
0.494118 0.815686 0.294118 0.494118 0.815686 0.294118 
0.494118 0.815686 0.294118 0.494118 0.815686 0.294118 
0.494118 0.815686 0.294118 0.494118 0.815686 0.294118 
0.494118 0.815686 0.294118 0.494118 0.815686 0.294118 
0.494118 0.815686 0.294118 0.494118 0.815686 0.294118 
0.494118 0.815686 0.294118 0.494118 0.815686 0.294118 
0.494118 0.815686 0.294118 0.494118 0.815686 0.294118 
0.494118 0.815686 0.294118 0.494118 0.815686 0.294118 
0.494118 0.815686 0.294118 0.494118 0.815686 0.294118 
0.494118 0.815686 0.294118 0.494118 0.815686 0.294118 
0.494118 0.815686 0.294118 0.494118 0.815686 0.294118 
0.494118 0.815686 0.294118 0.494118 0.815686 0.294118 
0.494118 0.815686 0.294118 0.494118 0.815686 0.294118 
0.494118 0.815686 0.294118 0.494118 0.815686 0.294118 
0.494118 0.815686 0.294118 0.494118 0.815686 0.294118 
0.494118 0.815686 0.294118 0.494118 0.815686 0.294118 
0.494118 0.815686 0.294118 0.494118 0.815686 0.294118 
0.494118 0.815686 0.294118 0.494118 0.815686 0.294118 
0.494118 0.815686 0.294118 0.494118 0.815686 0.294118 
0.494118 0.815686 0.294118 0.494118 0.815686 0.294118 
0.494118 0.815686 0.294118 0.494118 0.815686 0.294118 
0.494118 0.815686 0.294118 0.494118 0.815686 0.294118 
0.494118 0.815686 0.294118 0.494118 0.815686 0.294118 
0.494118 0.815686 0.294118 0.494118 0.815686 0.294118 
0.494118 0.815686 0.294118 0.494118 0.815686 0.294118 
0.494118 0.815686 0.294118 0.494118 0.815686 0.294118 
0.494118 0.815686 0.294118 0.494118 0.815686 0.294118 
0.494118 0.815686 0.294118 0.494118 0.815686 0.294118 
0.494118 0.815686 0.294118 0.494118 0.815686 0.294118 
0.494118 0.815686 0.294118 0.494118 0.815686 0.294118 
0.494118 0.815686 0.294118 0.494118 0.815686 0.294118 
0.494118 0.815686 0.294118 0.494118 0.815686 0.294118 
0.494118 0.815686 0.294118 0.494118 0.815686 0.294118 
0.494118 0.815686 0.294118 0.494118 0.815686 0.294118 
0.494118 0.815686 0.294118 0.494118 0.815686 0.294118 
0.494118 0.815686 0.294118 0.494118 0.815686 0.294118 
0.494118 0.815686 0.294118 0.494118 0.815686 0.294118 
0.494118 0.815686 0.294118 0.494118 0.815686 0.294118 
0.494118 0.815686 0.294118 0.494118 0.815686 0.294118 
0.494118 0.815686 0.294118 0.494118 0.815686 0.294118 
0.494118 0.815686 0.294118 0.494118 0.815686 0.294118 
0.494118 0.815686 0.294118 0.494118 0.815686 0.294118 
0.494118 0.815686 0.294118 0.494118 0.815686 0.294118 
0.494118 0.815686 0.294118 0.494118 0.815686 0.294118 
0.494118 0.815686 0.294118 0.494118 0.815686 0.294118 
0.494118 0.815686 0.294118 0.494118 0.815686 0.294118 
0.494118 0.815686 0.294118 0.494118 0.815686 0.294118 
0.494118 0.815686 0.294118 0.494118 0.815686 0.294118 
0.494118 0.815686 0.294118 0.494118 0.815686 0.294118 
0.494118 0.815686 0.294118 0.494118 0.815686 0.294118 
0.494118 0.815686 0.294118 0.494118 0.815686 0.294118 
0.494118 0.815686 0.294118 0.494118 0.815686 0.294118 
0.494118 0.815686 0.294118 0.494118 0.815686 0.294118 
0.494118 0.815686 0.294118 0.494118 0.815686 0.294118 
0.494118 0.815686 0.294118 0.494118 0.815686 0.294118 
0.494118 0.815686 0.294118 0.494118 0.815686 0.294118 
0.494118 0.815686 0.294118 0.494118 0.815686 0.294118 
0.494118 0.815686 0.294118 0.494118 0.815686 0.294118 
0.494118 0.815686 0.294118 0.494118 0.815686 0.294118 
0.494118 0.815686 0.294118 0.494118 0.815686 0.294118 
0.494118 0.815686 0.294118 0.494118 0.815686 0.294118 
0.494118 0.815686 0.294118 0.494118 0.815686 0.294118 
0.494118 0.815686 0.294118 0.494118 0.815686 0.294118 
0.494118 0.815686 0.294118 0.494118 0.815686 0.294118 
0.494118 0.815686 0.294118 0.494118 0.815686 0.294118 
0.494118 0.815686 0.294118 0.494118 0.815686 0.294118 
0.494118 0.815686 0.294118 0.494118 0.815686 0.294118 
0.494118 0.815686 0.294118 0.494118 0.815686 0.294118 
0.494118 0.815686 0.294118 0.494118 0.815686 0.294118 
0.494118 0.815686 0.294118 0.494118 0.815686 0.294118 
0.494118 0.815686 0.294118 0.494118 0.815686 0.294118 
0.494118 0.815686 0.294118 0.494118 0.815686 0.294118 
0.494118 0.815686 0.294118 0.494118 0.815686 0.294118 
0.494118 0.815686 0.294118 0.494118 0.815686 0.294118 
0.494118 0.815686 0.294118 0.494118 0.815686 0.294118 
0.494118 0.815686 0.294118 0.494118 0.815686 0.294118 
0.494118 0.815686 0.294118 0.494118 0.815686 0.294118 
0.494118 0.815686 0.294118 0.494118 0.815686 0.294118 
0.494118 0.815686 0.294118 0.494118 0.815686 0.294118 
0.494118 0.815686 0.294118 0.494118 0.815686 0.294118 
0.494118 0.815686 0.294118 0.494118 0.815686 0.294118 
0.494118 0.815686 0.294118 0.494118 0.815686 0.294118 
0.494118 0.815686 0.294118 0.494118 0.815686 0.294118 
0.494118 0.815686 0.294118 0.494118 0.815686 0.294118 
0.494118 0.815686 0.294118 0.494118 0.815686 0.294118 
0.494118 0.815686 0.294118 0.494118 0.815686 0.294118 
0.494118 0.815686 0.294118 0.494118 0.815686 0.294118 
0.494118 0.815686 0.294118 0.494118 0.815686 0.294118 
0.494118 0.815686 0.294118 0.494118 0.815686 0.294118 
0.494118 0.815686 0.294118 0.494118 0.815686 0.294118 
0.494118 0.815686 0.294118 0.494118 0.815686 0.294118 
0.494118 0.815686 0.294118 0.494118 0.815686 0.294118 
0.494118 0.815686 0.294118 0.494118 0.815686 0.294118 
0.494118 0.815686 0.294118 0.494118 0.815686 0.294118 
0.494118 0.815686 0.294118 0.494118 0.815686 0.294118 
0.494118 0.815686 0.294118 0.494118 0.815686 0.294118 
0.494118 0.815686 0.294118 0.494118 0.815686 0.294118 
0.494118 0.815686 0.294118 0.494118 0.815686 0.294118 
0.494118 0.815686 0.294118 0.494118 0.815686 0.294118 
0.494118 0.815686 0.294118 0.494118 0.815686 0.294118 
0.494118 0.815686 0.294118 0.494118 0.815686 0.294118 
0.494118 0.815686 0.294118 0.494118 0.815686 0.294118 
0.494118 0.815686 0.294118 0.494118 0.815686 0.294118 
0.494118 0.815686 0.294118 0.494118 0.815686 0.294118 
0.494118 0.815686 0.294118 0.494118 0.815686 0.294118 
0.494118 0.815686 0.294118 0.494118 0.815686 0.294118 
0.494118 0.815686 0.294118 0.494118 0.815686 0.294118 
0.494118 0.815686 0.294118 0.494118 0.815686 0.294118 
0.494118 0.815686 0.294118 0.494118 0.815686 0.294118 
0.494118 0.815686 0.294118 0.494118 0.815686 0.294118 
0.494118 0.815686 0.294118 0.494118 0.815686 0.294118 
0.494118 0.815686 0.294118 0.494118 0.815686 0.294118 
0.494118 0.815686 0.294118 0.494118 0.815686 0.294118 
0.494118 0.815686 0.294118 0.494118 0.815686 0.294118 
0.494118 0.815686 0.294118 0.494118 0.815686 0.294118 
0.494118 0.815686 0.294118 0.494118 0.815686 0.294118 
0.494118 0.815686 0.294118 0.494118 0.815686 0.294118 
0.494118 0.815686 0.294118 0.494118 0.815686 0.294118 
0.494118 0.815686 0.294118 0.494118 0.815686 0.294118 
0.494118 0.815686 0.294118 0.494118 0.815686 0.294118 
0.494118 0.815686 0.294118 0.494118 0.815686 0.294118 
0.494118 0.815686 0.294118 0.494118 0.815686 0.294118 
0.494118 0.815686 0.294118 0.494118 0.815686 0.294118 
0.494118 0.815686 0.294118 0.494118 0.815686 0.294118 
0.494118 0.815686 0.294118 0.494118 0.815686 0.294118 
0.494118 0.815686 0.294118 0.494118 0.815686 0.294118 
0.494118 0.815686 0.294118 0.494118 0.815686 0.294118 
0.494118 0.815686 0.294118 0.494118 0.815686 0.294118 
0.494118 0.815686 0.294118 0.494118 0.815686 0.294118 
0.494118 0.815686 0.294118 0.494118 0.815686 0.294118 
0.494118 0.815686 0.294118 0.494118 0.815686 0.294118 
0.494118 0.815686 0.294118 0.494118 0.815686 0.294118 
0.494118 0.815686 0.294118 0.494118 0.815686 0.294118 
0.494118 0.815686 0.294118 0.494118 0.815686 0.294118 
0.494118 0.815686 0.294118 0.494118 0.815686 0.294118 
0.494118 0.815686 0.294118 0.494118 0.815686 0.294118 
0.494118 0.815686 0.294118 0.494118 0.815686 0.294118 
0.494118 0.815686 0.294118 0.494118 0.815686 0.294118 
0.494118 0.815686 0.294118 0.494118 0.815686 0.294118 
0.494118 0.815686 0.294118 0.494118 0.815686 0.294118 
0.494118 0.815686 0.294118 0.494118 0.815686 0.294118 
0.494118 0.815686 0.294118 0.494118 0.815686 0.294118 
0.494118 0.815686 0.294118 0.494118 0.815686 0.294118 
0.494118 0.815686 0.294118 0.494118 0.815686 0.294118 
0.494118 0.815686 0.294118 0.494118 0.815686 0.294118 
0.494118 0.815686 0.294118 0.494118 0.815686 0.294118 
0.494118 0.815686 0.294118 0.494118 0.815686 0.294118 
0.494118 0.815686 0.294118 0.494118 0.815686 0.294118 
0.494118 0.815686 0.294118 0.494118 0.815686 0.294118 
0.494118 0.815686 0.294118 0.494118 0.815686 0.294118 
0.494118 0.815686 0.294118 0.494118 0.815686 0.294118 
0.494118 0.815686 0.294118 0.494118 0.815686 0.294118 
0.494118 0.815686 0.294118 0.494118 0.815686 0.294118 
0.494118 0.815686 0.294118 0.494118 0.815686 0.294118 
0.494118 0.815686 0.294118 0.494118 0.815686 0.294118 
0.494118 0.815686 0.294118 0.494118 0.815686 0.294118 
0.494118 0.815686 0.294118 0.494118 0.815686 0.294118 
0.494118 0.815686 0.294118 0.494118 0.815686 0.294118 
0.494118 0.815686 0.294118 0.494118 0.815686 0.294118 
0.494118 0.815686 0.294118 0.494118 0.815686 0.294118 
0.494118 0.815686 0.294118 0.494118 0.815686 0.294118 
0.494118 0.815686 0.294118 0.494118 0.815686 0.294118 
0.494118 0.815686 0.294118 0.494118 0.815686 0.294118 
0.494118 0.815686 0.294118 0.494118 0.815686 0.294118 
0.494118 0.815686 0.294118 0.494118 0.815686 0.294118 
0.494118 0.815686 0.294118 0.494118 0.815686 0.294118 
0.494118 0.815686 0.294118 0.494118 0.815686 0.294118 
0.494118 0.815686 0.294118 0.494118 0.815686 0.294118 
0.494118 0.815686 0.294118 0.494118 0.815686 0.294118 
0.494118 0.815686 0.294118 0.494118 0.815686 0.294118 
0.494118 0.815686 0.294118 0.494118 0.815686 0.294118 
0.494118 0.815686 0.294118 0.494118 0.815686 0.294118 
0.494118 0.815686 0.294118 0.494118 0.815686 0.294118 
0.494118 0.815686 0.294118 0.494118 0.815686 0.294118 
0.494118 0.815686 0.294118 0.494118 0.815686 0.294118 
0.494118 0.815686 0.294118 0.494118 0.815686 0.294118 
0.494118 0.815686 0.294118 0.494118 0.815686 0.294118 
0.494118 0.815686 0.294118 0.494118 0.815686 0.294118 
0.494118 0.815686 0.294118 0.494118 0.815686 0.294118 
0.494118 0.815686 0.294118 0.494118 0.815686 0.294118 
0.494118 0.815686 0.294118 0.494118 0.815686 0.294118 
0.494118 0.815686 0.294118 0.494118 0.815686 0.294118 
0.494118 0.815686 0.294118 0.494118 0.815686 0.294118 
0.494118 0.815686 0.294118 0.494118 0.815686 0.294118 
0.494118 0.815686 0.294118 0.494118 0.815686 0.294118 
0.494118 0.815686 0.294118 0.494118 0.815686 0.294118 
0.494118 0.815686 0.294118 0.494118 0.815686 0.294118 
0.494118 0.815686 0.294118 0.494118 0.815686 0.294118 
0.494118 0.815686 0.294118 0.494118 0.815686 0.294118 
0.494118 0.815686 0.294118 0.494118 0.815686 0.294118 
0.494118 0.815686 0.294118 0.494118 0.815686 0.294118 
0.494118 0.815686 0.294118 0.494118 0.815686 0.294118 
0.494118 0.815686 0.294118 0.494118 0.815686 0.294118 
0.494118 0.815686 0.294118 0.494118 0.815686 0.294118 
0.494118 0.815686 0.294118 0.494118 0.815686 0.294118 
0.494118 0.815686 0.294118 0.494118 0.815686 0.294118 
0.494118 0.815686 0.294118 0.494118 0.815686 0.294118 