# vtk DataFile Version 4.2
vtk output
ASCII
DATASET POLYDATA
POINTS 28896 float
430.012 210.666 42.8745 430.195 214.219 42.4525 424.065 216.577 43.2569 
433.584 215.648 42.6705 424.681 219.326 42.9505 428.877 219.909 42.3354 
427.703 222.735 42.52 433.211 222.362 42.7959 424.489 223.851 43.2582 
425.368 225.011 43.1404 429.505 225.555 42.8 434.63 204.917 44.0004 
435.915 208.964 43.5462 423.532 211.502 44.349 425.292 212.233 43.3737 
423.447 224.231 43.8804 422.991 225.458 44.4429 432.657 228.612 43.4508 
425.47 229.542 44.2768 429.773 230.957 43.8662 436.421 201.805 44.9865 
430.09 202.095 45.074 438.522 202.728 45.0484 427.171 204.124 45.0299 
439.924 203.97 45.1396 428.415 205.357 44.3032 421.203 220.67 45.1545 
421.983 221.883 44.5964 422.187 223.959 44.767 439.211 229.61 44.8316 
425.254 231.822 45.1899 427.665 234.009 45.1867 427.211 201.142 46.2375 
440.815 202.268 45.7935 425.209 203.415 46.2216 424.128 205.167 46.1903 
441.171 208.263 45.0778 422.055 209.401 46.1776 441.341 215.356 44.93 
421.07 215.564 45.5161 441.242 223.372 45.0022 421.781 227.897 46.3428 
425.815 234.426 46.0828 429.941 235.05 45.1333 431.679 236.547 45.5177 
434.469 198.447 46.2809 421.249 208.3 47.7024 420.128 222.632 46.6927 
443.51 230.058 46.4657 423.722 233.446 47.0673 425.532 236.09 47.1419 
437.741 238.669 46.4595 434.089 240.978 47.1284 440.39 195.929 48.0197 
425.904 198.895 48.1671 447.507 209.581 47.7886 446.853 211.932 47.4318 
418.675 217.757 48.5055 419.963 224.77 47.5532 444.783 234.934 47.6599 
440.878 240.926 47.7188 429.839 241.4 48.2306 435.426 242.435 47.7537 
430.39 195.974 48.145 426.449 197.132 49.0066 447.372 199.549 49.0153 
423.605 200.349 49.3385 449.296 205.401 48.9395 419.516 210.657 49.2238 
448.089 220.216 48.1516 420.913 230.483 48.9761 425.8 238.718 48.7454 
433.877 244.557 48.9988 436.001 245.055 49.0459 432.721 192.737 49.8452 
417.969 221.368 50.169 422.896 236.183 50.026 423.748 237.583 49.947 
426.945 241.07 49.6378 446.142 243.241 49.9173 432.01 245.537 50.0763 
441.813 191.043 51.3473 436.98 191.803 50.1684 449.327 196.474 51.1397 
419.323 208.628 51.0631 451.002 237.3 50.9219 425.243 240.316 50.5775 
439.282 248.429 50.859 434.844 189.676 51.9887 440.364 189.792 52.0239 
429.015 191.539 51.9937 446.198 193.081 51.4445 422.522 198.849 52.0836 
420.603 204.043 52.0592 453.235 204.335 51.2121 417.001 215.688 52.6078 
419.102 229.014 52.0207 452.909 230.082 51.3649 428.887 245.627 51.8846 
430.544 247.188 52.0657 445.532 248.755 51.8608 437.479 249.696 51.7272 
423.626 195.557 53.0456 420.674 202.514 53.3129 417.527 223.845 52.5114 
420.848 234.198 52.7688 424.098 240.949 52.8344 425.353 242.956 53.0749 
451.198 246.585 52.9856 435.946 251.262 53.217 445.094 251.133 53.0656 
434.964 187.59 53.9197 440.997 188.036 53.7154 430.237 188.806 53.9378 
451.914 194.689 53.5899 456.18 202.16 53.5099 457.34 204.147 53.8917 
416.508 217.675 54.4287 417.117 223.872 54.063 426.428 245.128 53.9148 
453.601 194.105 55.187 417.1 211.205 54.9837 459.485 210.713 54.8824 
417.969 227.943 55.1202 455.614 244.093 54.6507 429.526 249.923 55.5202 
440.976 253.249 54.2591 448.859 253.17 55.3008 432.785 185.953 56.0381 
444.934 186.707 56.2856 448.691 188.886 56.0267 425.288 190.21 56.0045 
459.939 218.936 55.5171 451.459 251.889 55.3642 433.586 253.26 56.0876 
446.276 254.558 55.7979 438.975 184.467 57.1983 428.545 186.522 57.1231 
455.391 192.873 57.685 416.472 222.545 57.389 417.565 227.542 57.4971 
422.72 241.354 57.6406 455.918 249.23 56.3067 422.88 192.065 57.7439 
461.121 202.41 57.5957 416.58 211.037 57.9342 461.092 238.87 57.5236 
423.848 243.841 57.705 459.679 245.518 57.6522 425.608 246.943 57.893 
451.698 255.006 57.6126 442.907 257.478 58.2729 425.154 187.275 59.3637 
459.179 250.869 59.1391 430.374 253.096 58.4145 455.761 254.631 59.2579 
432.93 255.467 59.3212 434.577 255.946 58.7507 438.213 258.003 59.6716 
433.973 182.865 59.5917 461.531 198.528 60.0809 465.113 208.568 59.9317 
464.267 225.317 59.1791 416.91 225.258 60.468 441.199 128.711 61.0426 
440.95 131.617 61.0635 442.473 131.231 60.7317 448.9 130.302 61.1422 
443.991 131.861 60.5948 445.606 131.642 60.5937 444.242 135.669 61.1337 
437.866 181.433 61.2536 448.792 185.091 60.6877 453.18 187.997 60.7724 
457.608 191.999 61.0278 465.056 204.461 61.1545 416.557 209.177 60.8042 
428.251 209.386 62.3601 428.016 209.301 62.5447 427.924 208.769 62.524 
428.194 208.831 62.4253 428.583 209.107 62.3594 428.26 209.989 62.4382 
428.518 210.472 62.325 428.383 210.379 62.4587 429.116 210.667 62.2139 
428.6 210.784 62.3691 428.888 211.076 62.3068 428.804 211.156 62.419 
429.109 211.544 62.4067 429.773 211.871 62.3295 466.564 213.671 60.99 
428.183 251.968 60.3661 430.87 255.008 60.8457 440.005 259.432 61.083 
448.855 259.315 60.9264 444.571 122.762 61.4809 447.812 124.296 61.341 
438.943 127.459 61.8401 451.183 127.476 62.0331 449.143 135.734 62.1451 
446.731 136.434 61.5902 442.56 138.73 62.0416 446.191 183.014 61.8995 
427.386 183.545 61.9132 450.902 185.563 61.9227 426.886 205.704 63.2151 
426.635 205.517 63.4162 426.611 205.053 63.5249 427.251 205.882 63.0813 
426.882 206.166 63.1615 427.583 205.944 63.0511 427.724 206.548 62.889 
426.903 206.594 63.1801 426.715 206.261 63.4817 428.338 207.403 62.7193 
427.244 207.42 62.9549 427.265 207.71 63.0735 427.596 208.327 62.7806 
429.114 209.26 62.4176 467.046 209.185 62.0405 428.564 210.78 62.4915 
431.335 211.521 62.671 430.974 212.747 62.519 430.236 213.072 62.612 
429.972 212.843 62.8443 430.77 213.584 62.6016 431.138 213.56 62.5926 
430.853 214.138 62.7582 430.754 214.27 62.9685 431.088 214.98 63.0674 
432.451 215.122 62.9191 431.349 215.428 63.0585 431.66 215.751 63.0216 
431.643 215.947 63.2125 431.932 216.375 63.1696 432.254 216.889 63.2658 
432.653 217.276 63.2913 425.174 247.923 62.0517 463.096 249.294 61.5625 
434.66 258.163 62.1695 446.79 117.985 63.0348 443.447 119.759 62.4222 
439.912 120.606 62.8736 436.085 128.721 62.9732 436.104 135.392 63.109 
451.882 134.895 63.3824 464.658 136.873 62.8254 438.975 139.65 62.9658 
462.491 141.425 62.4814 466.073 141.086 62.3596 446.687 141.106 63.3507 
443.034 141.783 63.2241 460.718 143.403 62.7323 465.828 144.834 62.3184 
470.96 144.489 62.9118 467.343 147.339 62.5542 462.242 148.412 62.9702 
464.074 149.377 62.9244 442.738 180.916 63.3539 426.461 204.025 63.9787 
426.367 204.438 63.8409 426.219 204.177 64.0427 427.241 204.833 63.5205 
426.257 204.424 63.9486 426.409 204.877 63.8807 426.544 205.587 63.8288 
416.924 206.39 62.9858 426.796 206.512 63.5175 429.204 207.283 62.9365 
430.227 213.102 63.1992 430.935 214.61 63.1872 431.467 215.512 63.3879 
431.907 216.333 63.4875 432.205 216.935 63.5025 432.575 217.505 63.5165 
433.418 219.039 63.6655 433.355 219.08 63.7576 433.565 219.438 63.794 
433.827 219.689 63.7903 434.331 220.287 63.9286 434.796 220.637 64.0541 
434.395 220.67 64.0721 468.46 228.519 63.0063 468.396 234.471 63.1549 
467.701 240.033 63.0835 423.087 243.394 63.1232 465.217 246.088 62.2872 
427.656 252.457 63.342 459.492 255.943 63.0701 453.665 259.513 62.8838 
437.54 260.146 63.4309 443.657 116.027 63.9027 450.259 117.66 63.7227 
453.931 121.69 63.9968 454.915 124.734 64.3047 466.01 132.754 63.8138 
463.363 134.594 63.4354 459.1 136.75 63.9052 446.031 143.122 64.2839 
473.482 144.832 63.5685 457.622 145.795 63.9075 472.007 152.077 63.8639 
438.451 179.929 63.8796 465.545 201.065 63.9335 426.486 202.913 64.7547 
426.269 202.449 65.2939 426.398 202.196 65.3279 427.083 202.65 64.8065 
428.218 203.107 64.6501 426.342 203.971 64.702 431.027 204.819 64.5952 
416.957 205.674 64.3631 426.563 205.425 64.1215 433.037 206.933 64.5986 
427.989 208.864 63.402 433.396 208.877 64.1186 430.326 212.735 63.5891 
435.498 212.499 64.4161 430.966 214.369 63.4261 436.151 214.645 64.5213 
431.833 215.832 63.7095 435.623 217.911 64.1144 416.332 218.996 63.9878 
433.525 219.372 63.889 435.678 220.705 64.3215 469.034 220.921 63.5895 
434.666 221.149 64.2907 435.965 222.101 64.6168 417.102 223.888 64.1387 
435.357 222.183 64.662 435.801 222.847 64.9907 436.154 223.159 64.9663 
422.596 241.691 64.337 462.903 252.936 63.725 429.078 254.682 64.4541 
444.098 262.306 64.3402 439.539 115.715 64.8806 435.817 120.798 64.6408 
433.273 126.516 64.8772 466.892 129.075 65.01 471.023 132.174 64.6696 
433.231 133.075 64.5207 453.468 134.636 64.2917 433.481 137.169 64.7687 
457.103 136.586 64.6378 472.064 137.031 63.9206 451.256 139.334 64.457 
475.731 140.719 64.6067 439.657 143.611 64.4829 455.604 145.266 64.7581 
474.716 151.035 64.2805 462.479 155.136 65.0071 466.576 156.327 64.8167 
470.371 156.381 64.8582 426.57 182.289 64.7025 461.606 194.392 64.1891 
426.546 201.686 65.6513 426.783 203.948 65.6113 428.827 209.348 64.0156 
430.637 212.261 64.1557 431.274 211.262 65.1694 432.2 214.12 64.7536 
433.412 217.923 64.5141 436.935 221.086 64.8935 435.994 223.089 65.2995 
436.368 223.713 65.2185 436.268 223.646 65.3365 436.56 224.145 65.4225 
436.808 224.541 65.5884 437.104 224.923 65.7288 437.398 225.11 65.7669 
437.555 225.552 66.0865 420.81 235.327 65.3659 468.984 242.374 65.1375 
458.974 257.229 64.0081 451.807 113.805 65.9185 453.932 116.962 65.2862 
435.497 118.015 65.7906 456.944 120.697 66.1241 455.989 129.567 65.1375 
452.34 139.238 64.8264 435.166 143.785 65.947 438.4 145.948 66.0626 
443.583 145.809 65.6762 478.745 147.952 65.4056 455.373 149.307 65.6145 
475.555 156.634 65.8592 465.912 158.499 65.8902 469.699 158.335 65.6314 
441.057 179.053 66.5944 431.552 179.544 65.9579 443.586 179.768 66.4433 
423.436 184.765 65.4175 457.532 189.038 65.6739 460.032 191.531 65.75 
426.067 199.965 67.1541 425.962 199.496 67.5705 426.398 200.358 66.6891 
426.653 199.816 67.003 426.929 200.443 66.4813 427.647 200.126 66.7372 
426.091 200.569 66.8397 426.071 200.969 66.9743 466.912 201.695 65.915 
426.423 202.938 65.9166 469.045 207.461 65.7599 434.773 217.651 65.7447 
435.754 222.056 65.4719 436.404 223.677 65.6062 436.499 223.374 65.8544 
[...]
POINT_DATA 28896
COLOR_SCALARS scalars 3
0.941176 0.941176 0.501961 0.941176 0.941176 0.501961 0.941176 0.941176 0.501961 
0.941176 0.941176 0.501961 0.941176 0.941176 0.501961 
0.941176 0.941176 0.501961 0.941176 0.941176 0.501961 
0.941176 0.941176 0.501961 0.941176 0.941176 0.501961 
0.941176 0.941176 0.501961 0.941176 0.941176 0.501961 
0.941176 0.941176 0.501961 0.941176 0.941176 0.501961 
0.941176 0.941176 0.501961 0.941176 0.941176 0.501961 
0.941176 0.941176 0.501961 0.941176 0.941176 0.501961 
0.941176 0.941176 0.501961 0.941176 0.941176 0.501961 
0.941176 0.941176 0.501961 0.941176 0.941176 0.501961 
0.941176 0.941176 0.501961 0.941176 0.941176 0.501961 
0.941176 0.941176 0.501961 0.941176 0.941176 0.501961 
0.941176 0.941176 0.501961 0.941176 0.941176 0.501961 
0.941176 0.941176 0.501961 0.941176 0.941176 0.501961 
0.941176 0.941176 0.501961 0.941176 0.941176 0.501961 
0.941176 0.941176 0.501961 0.941176 0.941176 0.501961 
0.941176 0.941176 0.501961 0.941176 0.941176 0.501961 
0.941176 0.941176 0.501961 0.941176 0.941176 0.501961 
0.941176 0.941176 0.501961 0.941176 0.941176 0.501961 
0.941176 0.941176 0.501961 0.941176 0.941176 0.501961 
0.941176 0.941176 0.501961 0.941176 0.941176 0.501961 
0.941176 0.941176 0.501961 0.941176 0.941176 0.501961 
0.941176 0.941176 0.501961 0.941176 0.941176 0.501961 
0.941176 0.941176 0.501961 0.941176 0.941176 0.501961 
0.941176 0.941176 0.501961 0.941176 0.941176 0.501961 
0.941176 0.941176 0.501961 0.941176 0.941176 0.501961 
0.941176 0.941176 0.501961 0.941176 0.941176 0.501961 
0.941176 0.941176 0.501961 0.941176 0.941176 0.501961 
0.941176 0.941176 0.501961 0.941176 0.941176 0.501961 
0.941176 0.941176 0.501961 0.941176 0.941176 0.501961 
0.941176 0.941176 0.501961 0.941176 0.941176 0.501961 
0.941176 0.941176 0.501961 0.941176 0.941176 0.501961 
0.941176 0.941176 0.501961 0.941176 0.941176 0.501961 
0.941176 0.941176 0.501961 0.941176 0.941176 0.501961 
0.941176 0.941176 0.501961 0.941176 0.941176 0.501961 
0.941176 0.941176 0.501961 0.941176 0.941176 0.501961 
0.941176 0.941176 0.501961 0.941176 0.941176 0.501961 
0.941176 0.941176 0.501961 0.941176 0.941176 0.501961 
0.941176 0.941176 0.501961 0.941176 0.941176 0.501961 
0.941176 0.941176 0.501961 0.941176 0.941176 0.501961 
0.941176 0.941176 0.501961 0.941176 0.941176 0.501961 
0.941176 0.941176 0.501961 0.941176 0.941176 0.501961 
0.941176 0.941176 0.501961 0.941176 0.941176 0.501961 
0.941176 0.941176 0.501961 0.941176 0.941176 0.501961 
0.941176 0.941176 0.501961 0.941176 0.941176 0.501961 
0.941176 0.941176 0.501961 0.941176 0.941176 0.501961 
0.941176 0.941176 0.501961 0.941176 0.941176 0.501961 
0.941176 0.941176 0.501961 0.941176 0.941176 0.501961 
0.941176 0.941176 0.501961 0.941176 0.941176 0.501961 
0.941176 0.941176 0.501961 0.941176 0.941176 0.501961 
0.941176 0.941176 0.501961 0.941176 0.941176 0.501961 
0.941176 0.941176 0.501961 0.941176 0.941176 0.501961 
0.941176 0.941176 0.501961 0.941176 0.941176 0.501961 
0.941176 0.941176 0.501961 0.941176 0.941176 0.501961 
0.941176 0.941176 0.501961 0.941176 0.941176 0.501961 
0.941176 0.941176 0.501961 0.941176 0.941176 0.501961 
0.941176 0.941176 0.501961 0.941176 0.941176 0.501961 
0.941176 0.941176 0.501961 0.941176 0.941176 0.501961 
0.941176 0.941176 0.501961 0.941176 0.941176 0.501961 
0.941176 0.941176 0.501961 0.941176 0.941176 0.501961 
0.941176 0.941176 0.501961 0.941176 0.941176 0.501961 
0.941176 0.941176 0.501961 0.941176 0.941176 0.501961 
0.941176 0.941176 0.501961 0.941176 0.941176 0.501961 
0.941176 0.941176 0.501961 0.941176 0.941176 0.501961 
0.941176 0.941176 0.501961 0.941176 0.941176 0.501961 
0.941176 0.941176 0.501961 0.941176 0.941176 0.501961 
0.941176 0.941176 0.501961 0.941176 0.941176 0.501961 
0.941176 0.941176 0.501961 0.941176 0.941176 0.501961 
0.941176 0.941176 0.501961 0.941176 0.941176 0.501961 
0.941176 0.941176 0.501961 0.941176 0.941176 0.501961 
0.941176 0.941176 0.501961 0.941176 0.941176 0.501961 
0.941176 0.941176 0.501961 0.941176 0.941176 0.501961 
0.941176 0.941176 0.501961 0.941176 0.941176 0.501961 
0.941176 0.941176 0.501961 0.941176 0.941176 0.501961 
0.941176 0.941176 0.501961 0.941176 0.941176 0.501961 
0.941176 0.941176 0.501961 0.941176 0.941176 0.501961 
0.941176 0.941176 0.501961 0.941176 0.941176 0.501961 
0.941176 0.941176 0.501961 0.941176 0.941176 0.501961 
0.941176 0.941176 0.501961 0.941176 0.941176 0.501961 
0.941176 0.941176 0.501961 0.941176 0.941176 0.501961 
0.941176 0.941176 0.501961 0.941176 0.941176 0.501961 
0.941176 0.941176 0.501961 0.941176 0.941176 0.501961 
0.941176 0.941176 0.501961 0.941176 0.941176 0.501961 
0.941176 0.941176 0.501961 0.941176 0.941176 0.501961 
0.941176 0.941176 0.501961 0.941176 0.941176 0.501961 
0.941176 0.941176 0.501961 0.941176 0.941176 0.501961 
0.941176 0.941176 0.501961 0.941176 0.941176 0.501961 
0.941176 0.941176 0.501961 0.941176 0.941176 0.501961 
0.941176 0.941176 0.501961 0.941176 0.941176 0.501961 
0.941176 0.941176 0.501961 0.941176 0.941176 0.501961 
0.941176 0.941176 0.501961 0.941176 0.941176 0.501961 
0.941176 0.941176 0.501961 0.941176 0.941176 0.501961 
0.941176 0.941176 0.501961 0.941176 0.941176 0.501961 
0.941176 0.941176 0.501961 0.941176 0.941176 0.501961 
0.941176 0.941176 0.501961 0.941176 0.941176 0.501961 
0.941176 0.941176 0.501961 0.941176 0.941176 0.501961 
0.941176 0.941176 0.501961 0.941176 0.941176 0.501961 
0.941176 0.941176 0.501961 0.941176 0.941176 0.501961 
0.941176 0.941176 0.501961 0.941176 0.941176 0.501961 
0.941176 0.941176 0.501961 0.941176 0.941176 0.501961 
0.941176 0.941176 0.501961 0.941176 0.941176 0.501961 
0.941176 0.941176 0.501961 0.941176 0.941176 0.501961 
0.941176 0.941176 0.501961 0.941176 0.941176 0.501961 
0.941176 0.941176 0.501961 0.941176 0.941176 0.501961 
0.941176 0.941176 0.501961 0.941176 0.941176 0.501961 
0.941176 0.941176 0.501961 0.941176 0.941176 0.501961 
0.941176 0.941176 0.501961 0.941176 0.941176 0.501961 
0.941176 0.941176 0.501961 0.941176 0.941176 0.501961 
0.941176 0.941176 0.501961 0.941176 0.941176 0.501961 
0.941176 0.941176 0.501961 0.941176 0.941176 0.501961 
0.941176 0.941176 0.501961 0.941176 0.941176 0.501961 
0.941176 0.941176 0.501961 0.941176 0.941176 0.501961 
0.941176 0.941176 0.501961 0.941176 0.941176 0.501961 
0.941176 0.941176 0.501961 0.941176 0.941176 0.501961 
0.941176 0.941176 0.501961 0.941176 0.941176 0.501961 
0.941176 0.941176 0.501961 0.941176 0.941176 0.501961 
0.941176 0.941176 0.501961 0.941176 0.941176 0.501961 
0.941176 0.941176 0.501961 0.941176 0.941176 0.501961 
0.941176 0.941176 0.501961 0.941176 0.941176 0.501961 
0.941176 0.941176 0.501961 0.941176 0.941176 0.501961 
0.941176 0.941176 0.501961 0.941176 0.941176 0.501961 
0.941176 0.941176 0.501961 0.941176 0.941176 0.501961 
0.941176 0.941176 0.501961 0.941176 0.941176 0.501961 
0.941176 0.941176 0.501961 0.941176 0.941176 0.501961 
0.941176 0.941176 0.501961 0.941176 0.941176 0.501961 
0.941176 0.941176 0.501961 0.941176 0.941176 0.501961 
0.941176 0.941176 0.501961 0.941176 0.941176 0.501961 
0.941176 0.941176 0.501961 0.941176 0.941176 0.501961 
0.941176 0.941176 0.501961 0.941176 0.941176 0.501961 
0.941176 0.941176 0.501961 0.941176 0.941176 0.501961 
0.941176 0.941176 0.501961 0.941176 0.941176 0.501961 
0.941176 0.941176 0.501961 0.941176 0.941176 0.501961 
0.941176 0.941176 0.501961 0.941176 0.941176 0.501961 
0.941176 0.941176 0.501961 0.941176 0.941176 0.501961 
0.941176 0.941176 0.501961 0.941176 0.941176 0.501961 
0.941176 0.941176 0.501961 0.941176 0.941176 0.501961 
0.941176 0.941176 0.501961 0.941176 0.941176 0.501961 
0.941176 0.941176 0.501961 0.941176 0.941176 0.501961 
0.941176 0.941176 0.501961 0.941176 0.941176 0.501961 
0.941176 0.941176 0.501961 0.941176 0.941176 0.501961 
0.941176 0.941176 0.501961 0.941176 0.941176 0.501961 
0.941176 0.941176 0.501961 0.941176 0.941176 0.501961 
0.941176 0.941176 0.501961 0.941176 0.941176 0.501961 
0.941176 0.941176 0.501961 0.941176 0.941176 0.501961 
0.941176 0.941176 0.501961 0.941176 0.941176 0.501961 
0.941176 0.941176 0.501961 0.941176 0.941176 0.501961 
0.941176 0.941176 0.501961 0.941176 0.941176 0.501961 
0.941176 0.941176 0.501961 0.941176 0.941176 0.501961 
0.941176 0.941176 0.501961 0.941176 0.941176 0.501961 
0.941176 0.941176 0.501961 0.941176 0.941176 0.501961 
0.941176 0.941176 0.501961 0.941176 0.941176 0.501961 
0.941176 0.941176 0.501961 0.941176 0.941176 0.501961 
0.941176 0.941176 0.501961 0.941176 0.941176 0.501961 
0.941176 0.941176 0.501961 0.941176 0.941176 0.501961 
0.941176 0.941176 0.501961 0.941176 0.941176 0.501961 
0.941176 0.941176 0.501961 0.941176 0.941176 0.501961 
0.941176 0.941176 0.501961 0.941176 0.941176 0.501961 
0.941176 0.941176 0.501961 0.941176 0.941176 0.501961 
0.941176 0.941176 0.501961 0.941176 0.941176 0.501961 
0.941176 0.941176 0.501961 0.941176 0.941176 0.501961 
0.941176 0.941176 0.501961 0.941176 0.941176 0.501961 
0.941176 0.941176 0.501961 0.941176 0.941176 0.501961 
0.941176 0.941176 0.501961 0.941176 0.941176 0.501961 
0.941176 0.941176 0.501961 0.941176 0.941176 0.501961 
0.941176 0.941176 0.501961 0.941176 0.941176 0.501961 
0.941176 0.941176 0.501961 0.941176 0.941176 0.501961 
0.941176 0.941176 0.501961 0.941176 0.941176 0.501961 
0.941176 0.941176 0.501961 0.941176 0.941176 0.501961 
0.941176 0.941176 0.501961 0.941176 0.941176 0.501961 
0.941176 0.941176 0.501961 0.941176 0.941176 0.501961 
0.941176 0.941176 0.501961 0.941176 0.941176 0.501961 
0.941176 0.941176 0.501961 0.941176 0.941176 0.501961 
0.941176 0.941176 0.501961 0.941176 0.941176 0.501961 
0.941176 0.941176 0.501961 0.941176 0.941176 0.501961 
0.941176 0.941176 0.501961 0.941176 0.941176 0.501961 
0.941176 0.941176 0.501961 0.941176 0.941176 0.501961 
0.941176 0.941176 0.501961 0.941176 0.941176 0.501961 
0.941176 0.941176 0.501961 0.941176 0.941176 0.501961 
0.941176 0.941176 0.501961 0.941176 0.941176 0.501961 
0.941176 0.941176 0.501961 0.941176 0.941176 0.501961 
0.941176 0.941176 0.501961 0.941176 0.941176 0.501961 
0.941176 0.941176 0.501961 0.941176 0.941176 0.501961 
0.941176 0.941176 0.501961 0.941176 0.941176 0.501961 
0.941176 0.941176 0.501961 0.941176 0.941176 0.501961 
0.941176 0.941176 0.501961 0.941176 0.941176 0.501961 
0.941176 0.941176 0.501961 0.941176 0.941176 0.501961 
0.941176 0.941176 0.501961 0.941176 0.941176 0.501961 
0.941176 0.941176 0.501961 0.941176 0.941176 0.501961 
0.941176 0.941176 0.501961 0.941176 0.941176 0.501961 
0.941176 0.941176 0.501961 0.941176 0.941176 0.501961 
0.941176 0.941176 0.501961 0.941176 0.941176 0.501961 
0.941176 0.941176 0.501961 0.941176 0.941176 0.501961 
0.941176 0.941176 0.501961 0.941176 0.941176 0.501961 
0.941176 0.941176 0.501961 0.941176 0.941176 0.501961 
0.941176 0.941176 0.501961 0.941176 0.941176 0.501961 
0.941176 0.941176 0.501961 0.941176 0.941176 0.501961 
0.941176 0.941176 0.501961 0.941176 0.941176 0.501961 
0.941176 0.941176 0.501961 0.941176 0.941176 0.501961 
0.941176 0.941176 0.501961 0.941176 0.941176 0.501961 
0.941176 0.941176 0.501961 0.941176 0.941176 0.501961 
0.941176 0.941176 0.501961 0.941176 0.941176 0.501961 
0.941176 0.941176 0.501961 0.941176 0.941176 0.501961 
0.941176 0.941176 0.501961 0.941176 0.941176 0.501961 
0.941176 0.941176 0.501961 0.941176 0.941176 0.501961 
0.941176 0.941176 0.501961 0.941176 0.941176 0.501961 
0.941176 0.941176 0.501961 0.941176 0.941176 0.501961 
0.941176 0.941176 0.501961 0.941176 0.941176 0.501961 
0.941176 0.941176 0.501961 0.941176 0.941176 0.501961 
0.941176 0.941176 0.501961 0.941176 0.941176 0.501961 
0.941176 0.941176 0.501961 0.941176 0.941176 0.501961 
0.941176 0.941176 0.501961 0.941176 0.941176 0.501961 
0.941176 0.941176 0.501961 0.941176 0.941176 0.501961 
0.941176 0.941176 0.501961 0.941176 0.941176 0.501961 
0.941176 0.941176 0.501961 0.941176 0.941176 0.501961 
0.941176 0.941176 0.501961 0.941176 0.941176 0.501961 
0.941176 0.941176 0.501961 0.941176 0.941176 0.501961 
0.941176 0.941176 0.501961 0.941176 0.941176 0.501961 
0.941176 0.941176 0.501961 0.941176 0.941176 0.501961 
0.941176 0.941176 0.501961 0.941176 0.941176 0.501961 
0.941176 0.941176 0.501961 0.941176 0.941176 0.501961 
0.941176 0.941176 0.501961 0.941176 0.941176 0.501961 
0.941176 0.941176 0.501961 0.941176 0.941176 0.501961 
0.941176 0.941176 0.501961 0.941176 0.941176 0.501961 
0.941176 0.941176 0.501961 0.941176 0.941176 0.501961 
0.941176 0.941176 0.501961 0.941176 0.941176 0.501961 
0.941176 0.941176 0.501961 0.941176 0.941176 0.501961 
0.941176 0.941176 0.501961 0.941176 0.941176 0.501961 
0.941176 0.941176 0.501961 0.941176 0.941176 0.501961 
0.941176 0.941176 0.501961 0.941176 0.941176 0.501961 
0.941176 0.941176 0.501961 0.941176 0.941176 0.501961 
0.941176 0.941176 0.501961 0.941176 0.941176 0.501961 
0.941176 0.941176 0.501961 0.941176 0.941176 0.501961 
0.941176 0.941176 0.501961 0.941176 0.941176 0.501961 
0.941176 0.941176 0.501961 0.941176 0.941176 0.501961 
0.941176 0.941176 0.501961 0.941176 0.941176 0.501961 
0.941176 0.941176 0.501961 0.941176 0.941176 0.501961 
0.941176 0.941176 0.501961 0.941176 0.941176 0.501961 
0.941176 0.941176 0.501961 0.941176 0.941176 0.501961 
0.941176 0.941176 0.501961 0.941176 0.941176 0.501961 
0.941176 0.941176 0.501961 0.941176 0.941176 0.501961 
0.941176 0.941176 0.501961 0.941176 0.941176 0.501961 
0.941176 0.941176 0.501961 0.941176 0.941176 0.501961 
0.941176 0.941176 0.501961 0.941176 0.941176 0.501961 
0.941176 0.941176 0.501961 0.941176 0.941176 0.501961 
0.941176 0.941176 0.501961 0.941176 0.941176 0.501961 
0.941176 0.941176 0.501961 0.941176 0.941176 0.501961 
0.941176 0.941176 0.501961 0.941176 0.941176 0.501961 
0.941176 0.941176 0.501961 0.941176 0.941176 0.501961 
0.941176 0.941176 0.501961 0.941176 0.941176 0.501961 
0.941176 0.941176 0.501961 0.941176 0.941176 0.501961 
0.941176 0.941176 0.501961 0.941176 0.941176 0.501961 
0.941176 0.941176 0.501961 0.941176 0.941176 0.501961 
0.941176 0.941176 0.501961 0.941176 0.941176 0.501961 
0.941176 0.941176 0.501961 0.941176 0.941176 0.501961 
0.941176 0.941176 0.501961 0.941176 0.941176 0.501961 
0.941176 0.941176 0.501961 0.941176 0.941176 0.501961 
0.941176 0.941176 0.501961 0.941176 0.941176 0.501961 
0.941176 0.941176 0.501961 0.941176 0.941176 0.501961 
0.941176 0.941176 0.501961 0.941176 0.941176 0.501961 
0.941176 0.941176 0.501961 0.941176 0.941176 0.501961 
0.941176 0.941176 0.501961 0.941176 0.941176 0.501961 
0.941176 0.941176 0.501961 0.941176 0.941176 0.501961 
0.941176 0.941176 0.501961 0.941176 0.941176 0.501961 
0.941176 0.941176 0.501961 0.941176 0.941176 0.501961 
0.941176 0.941176 0.501961 0.941176 0.941176 0.501961 
0.941176 0.941176 0.501961 0.941176 0.941176 0.501961 
0.941176 0.941176 0.501961 0.941176 0.941176 0.501961 
0.941176 0.941176 0.501961 0.941176 0.941176 0.501961 
0.941176 0.941176 0.501961 0.941176 0.941176 0.501961 
0.941176 0.941176 0.501961 0.941176 0.941176 0.501961 
0.941176 0.941176 0.501961 0.941176 0.941176 0.501961 
0.941176 0.941176 0.501961 0.941176 0.941176 0.501961 
0.941176 0.941176 0.501961 0.941176 0.941176 0.501961 
0.941176 0.941176 0.501961 0.941176 0.941176 0.501961 
0.941176 0.941176 0.501961 0.941176 0.941176 0.501961 
0.941176 0.941176 0.501961 0.941176 0.941176 0.501961 
0.941176 0.941176 0.501961 0.941176 0.941176 0.501961 
0.941176 0.941176 0.501961 0.941176 0.941176 0.501961 
0.941176 0.941176 0.501961 0.941176 0.941176 0.501961 
0.941176 0.941176 0.501961 0.941176 0.941176 0.501961 
0.941176 0.941176 0.501961 0.941176 0.941176 0.501961 
0.941176 0.941176 0.501961 0.941176 0.941176 0.501961 
0.941176 0.941176 0.501961 0.941176 0.941176 0.501961 
0.941176 0.941176 0.501961 0.941176 0.941176 0.501961 
0.941176 0.941176 0.501961 0.941176 0.941176 0.501961 
0.941176 0.941176 0.501961 0.941176 0.941176 0.501961 
0.941176 0.941176 0.501961 0.941176 0.941176 0.501961 
0.941176 0.941176 0.501961 0.941176 0.941176 0.501961 
0.941176 0.941176 0.501961 0.941176 0.941176 0.501961 
0.941176 0.941176 0.501961 0.941176 0.941176 0.501961 
0.941176 0.941176 0.501961 0.941176 0.941176 0.501961 
0.941176 0.941176 0.501961 0.941176 0.941176 0.501961 
0.941176 0.941176 0.501961 0.941176 0.941176 0.501961 
0.941176 0.941176 0.501961 0.941176 0.941176 0.501961 
0.941176 0.941176 0.501961 0.941176 0.941176 0.501961 
0.941176 0.941176 0.501961 0.941176 0.941176 0.501961 
0.941176 0.941176 0.501961 0.941176 0.941176 0.501961 
0.941176 0.941176 0.501961 0.941176 0.941176 0.501961 
0.941176 0.941176 0.501961 0.941176 0.941176 0.501961 
0.941176 0.941176 0.501961 0.941176 0.941176 0.501961 
0.941176 0.941176 0.501961 0.941176 0.941176 0.501961 
0.941176 0.941176 0.501961 0.941176 0.941176 0.501961 
0.941176 0.941176 0.501961 0.941176 0.941176 0.501961 
0.941176 0.941176 0.501961 0.941176 0.941176 0.501961 
0.941176 0.941176 0.501961 0.941176 0.941176 0.501961 
0.941176 0.941176 0.501961 0.941176 0.941176 0.501961 
0.941176 0.941176 0.501961 0.941176 0.941176 0.501961 
0.941176 0.941176 0.501961 0.941176 0.941176 0.501961 
0.941176 0.941176 0.501961 0.941176 0.941176 0.501961 
0.941176 0.941176 0.501961 0.941176 0.941176 0.501961 
0.941176 0.941176 0.501961 0.941176 0.941176 0.501961 
0.941176 0.941176 0.501961 0.941176 0.941176 0.501961 
0.941176 0.941176 0.501961 0.941176 0.941176 0.501961 
0.941176 0.941176 0.501961 0.941176 0.941176 0.501961 
0.941176 0.941176 0.501961 0.941176 0.941176 0.501961 
0.941176 0.941176 0.501961 0.941176 0.941176 0.501961 
0.941176 0.941176 0.501961 0.941176 0.941176 0.501961 
0.941176 0.941176 0.501961 0.941176 0.941176 0.501961 
0.941176 0.941176 0.501961 0.941176 0.941176 0.501961 
0.941176 0.941176 0.501961 0.941176 0.941176 0.501961 
0.941176 0.941176 0.501961 0.941176 0.941176 0.501961 
0.941176 0.941176 0.501961 0.941176 0.941176 0.501961 
0.941176 0.941176 0.501961 0.941176 0.941176 0.501961 
0.941176 0.941176 0.501961 0.941176 0.941176 0.501961 
0.941176 0.941176 0.501961 0.941176 0.941176 0.501961 
0.941176 0.941176 0.501961 0.941176 0.941176 0.501961 
0.941176 0.941176 0.501961 0.941176 0.941176 0.501961 
0.941176 0.941176 0.501961 0.941176 0.941176 0.501961 
0.941176 0.941176 0.501961 0.941176 0.941176 0.501961 
0.941176 0.941176 0.501961 0.941176 0.941176 0.501961 
0.941176 0.941176 0.501961 0.941176 0.941176 0.501961 
0.941176 0.941176 0.501961 0.941176 0.941176 0.501961 
0.941176 0.941176 0.501961 0.941176 0.941176 0.501961 
0.941176 0.941176 0.501961 0.941176 0.941176 0.501961 
0.941176 0.941176 0.501961 0.941176 0.941176 0.501961 
0.941176 0.941176 0.501961 0.941176 0.941176 0.501961 
0.941176 0.941176 0.501961 0.941176 0.941176 0.501961 
0.941176 0.941176 0.501961 0.941176 0.941176 0.501961 
0.941176 0.941176 0.501961 0.941176 0.941176 0.501961 
0.941176 0.941176 0.501961 0.941176 0.941176 0.501961 
0.941176 0.941176 0.501961 0.941176 0.941176 0.501961 
0.941176 0.941176 0.501961 0.941176 0.941176 0.501961 
0.941176 0.941176 0.501961 0.941176 0.941176 0.501961 
0.941176 0.941176 0.501961 0.941176 0.941176 0.501961 
0.941176 0.941176 0.501961 0.941176 0.941176 0.501961 
0.941176 0.941176 0.501961 0.941176 0.941176 0.501961 
0.941176 0.941176 0.501961 0.941176 0.941176 0.501961 
0.941176 0.941176 0.501961 0.941176 0.941176 0.501961 
0.941176 0.941176 0.501961 0.941176 0.941176 0.501961 
0.941176 0.941176 0.501961 0.941176 0.941176 0.501961 
0.941176 0.941176 0.501961 0.941176 0.941176 0.501961 
0.941176 0.941176 0.501961 0.941176 0.941176 0.501961 
0.941176 0.941176 0.501961 0.941176 0.941176 0.501961 
0.941176 0.941176 0.501961 0.941176 0.941176 0.501961 
0.941176 0.941176 0.501961 0.941176 0.941176 0.501961 
0.941176 0.941176 0.501961 0.941176 0.941176 0.501961 
0.941176 0.941176 0.501961 0.941176 0.941176 0.501961 
0.941176 0.941176 0.501961 0.941176 0.941176 0.501961 
0.941176 0.941176 0.501961 0.941176 0.941176 0.501961 
0.941176 0.941176 0.501961 0.941176 0.941176 0.501961 
0.941176 0.941176 0.501961 0.941176 0.941176 0.501961 
0.941176 0.941176 0.501961 0.941176 0.941176 0.501961 