# vtk DataFile Version 4.2
vtk output
ASCII
DATASET POLYDATA
POINTS 1741 float
295.116 217.625 112.142 295.071 217.535 112.153 295.053 217.639 112.119 
295.14 217.528 112.285 295.046 217.838 112.196 294.147 220.117 111.751 
292.38 221.857 111.665 292.252 221.861 111.673 292.263 222.076 111.739 
290.339 224.218 111.954 290.309 224.176 111.975 290.296 224.255 111.987 
290.399 224.165 111.992 290.386 224.244 112.004 295.022 217.337 112.281 
294.837 217.6 112.159 293.644 218.986 111.905 294.516 220.127 112.006 
292.032 221.754 111.748 292.106 222.523 111.855 290.378 223.969 112.054 
290.179 224.231 112.057 290.626 224.174 112.139 289.551 224.704 112.24 
290.313 224.367 112.113 288.272 225.874 112.668 288.227 225.842 112.702 
288.264 225.93 112.73 288.296 225.822 112.663 294.775 216.95 112.444 
294.509 216.314 112.683 294.375 216.76 112.453 294.027 217.022 112.38 
293.652 218.415 112.026 292.432 220.366 111.858 293.417 222.155 112.099 
293.894 221.824 112.236 289.928 224.042 112.17 291.018 223.459 112.102 
289.255 224.556 112.376 289.901 224.528 112.228 288.131 225.657 112.742 
288.057 226.045 112.876 288.381 225.673 112.699 289.842 224.991 112.479 
286.34 226.826 113.168 286.658 226.861 113.242 288.466 225.98 112.847 
284.365 227.677 113.247 284.894 227.421 113.211 285.262 227.5 113.277 
280.669 230.214 113.306 280.768 229.86 113.234 276.236 231.258 113.022 
278.265 231.156 113.173 280.729 230.545 113.487 275.515 231.624 113.004 
275.32 231.846 113.037 273.251 233.105 113.05 275.565 232.274 113.12 
271.903 234.265 112.997 272.221 234.132 113.034 272.133 234.452 113.066 
267.279 236.123 113.273 267.144 236.138 113.309 265.952 236.93 113.498 
267.226 236.364 113.313 266.088 236.983 113.48 281.743 205.025 114.389 
281.269 205.108 114.443 282.284 205.052 114.324 282.831 205.112 114.272 
282.736 205.091 114.297 283.257 205.203 114.25 283.17 205.165 114.251 
283.709 205.355 114.256 275.864 205.33 114.548 276.257 205.162 114.607 
286.498 205.978 113.975 286.762 205.971 113.91 286.869 205.979 113.889 
272.618 206.173 114.892 272.255 206.336 114.993 272.991 206.154 114.797 
273.388 205.986 114.768 286.928 206.049 113.905 289.004 206.013 113.009 
289.004 206.013 113.009 289.004 206.013 113.009 289.004 206.013 113.009 
273.424 206.313 114.728 289.004 206.013 113.009 291 207.009 113.017 
291 207.009 113.017 291 207.009 113.017 291 207.009 113.017 
291 207.009 113.017 291.258 208.963 113.981 291.2 208.979 113.963 
291.352 209.014 113.949 291.442 209.118 113.971 292.334 209.886 113.962 
292.756 210.282 113.902 292.854 210.99 113.729 293.294 210.707 114.092 
294.131 212.129 114.076 294.341 212.628 114.189 294.319 214.245 113.445 
293.303 215.955 112.801 295.432 216.91 113.615 295.559 217.67 113.666 
292.674 218.947 112.147 294.889 221.984 113.52 288.395 224.936 112.674 
293.636 224.018 113.45 285.849 225.562 113.171 288.862 225.552 112.745 
284.451 227.172 113.22 284.222 226.616 113.268 283.934 228.562 113.491 
279.301 230.12 113.213 276.762 230.138 113.254 274.246 231.761 113.185 
270.343 234.332 113.226 267.882 235.312 113.391 272.076 234.992 113.222 
266.882 236.079 113.448 270.549 235.959 113.285 271.904 236.517 113.662 
269.121 237.3 113.445 263.765 238.876 114.528 262 240.009 113.017 
262 240.009 113.017 262 240.009 113.017 262 240.009 113.017 
262 240.009 113.017 278.306 204.827 114.765 277.9 204.522 114.978 
280.222 204.873 114.745 273.115 205.606 115.146 275.129 204.931 115.025 
276.969 205.207 114.613 281.052 205.43 114.492 281.719 205.391 114.542 
282.352 205.292 114.497 282.741 205.578 114.625 284.758 205.718 114.243 
285.975 205.965 114.089 287.116 206.303 113.968 271.946 206.302 115.154 
272.52 205.782 115.281 283.435 205.761 114.535 284.001 205.847 114.515 
284.493 206.216 114.611 289.004 206.013 113.009 288.283 207.069 113.997 
268.668 207.226 115.94 268.911 207.141 115.93 275.155 206.467 114.582 
285.245 206.434 114.5 286.015 206.426 114.342 287.025 206.603 114.14 
288.841 207.451 113.999 288.971 207.528 114.012 289.731 208.054 114.002 
289.448 207.844 114.015 291 207.009 113.018 290.096 208.322 114.046 
268.854 207.402 115.902 290.551 208.672 113.995 290.88 208.817 114.054 
291.571 209.277 114.056 289.673 208.325 114.089 290.09 209.261 114.364 
290.579 209.13 114.03 291.605 209.473 113.949 292.109 209.687 114.159 
292.649 210.004 114.161 292.515 209.926 114.248 290.775 210.655 113.992 
293.874 211.53 114.453 294.08 211.898 114.433 294.521 223.574 113.918 
295.093 222.975 114.547 293.617 224.887 114.181 286.911 228.191 114.047 
274.146 230.734 113.563 264.322 237.458 114.435 262 240.009 113.018 
265.844 239.176 114.196 261.764 240.841 115.669 262.067 240.677 115.58 
261.815 240.982 115.704 277.569 204.281 115.24 277.062 204.242 115.339 
278.45 204.301 115.361 275.567 204.67 115.162 279.608 204.651 115.176 
281.004 204.983 114.891 282.092 205.244 114.64 281.799 205.382 114.812 
282.812 205.383 114.557 281.575 205.866 114.596 282.319 205.839 114.69 
282.352 205.566 114.932 283.01 205.665 114.829 283.727 205.746 114.568 
283.601 205.976 114.742 283.197 206.308 114.64 284.071 206.502 114.722 
284.081 206.281 115.052 284.877 206.365 114.758 285.803 206.352 114.385 
285.437 206.824 114.786 268.087 207.108 116.45 267.789 207.433 116.356 
270.574 207.103 115.572 273.997 207.255 114.842 280.862 207.915 114.714 
284.045 207.234 114.658 284.996 207.153 114.695 285.883 207.731 114.944 
285.829 207.545 115.387 287.901 206.964 114.054 288.69 207.413 114.036 
266.094 208.18 116.854 265.777 208.326 117.044 266.389 208.185 116.698 
266.443 207.98 116.761 287.332 208.603 115.407 288.899 207.605 114.044 
289.551 208.196 114.125 290.336 208.718 114.21 266.162 208.469 116.854 
266.748 208.3 116.613 287.539 209.33 114.799 288.378 209.358 114.947 
288.609 209.202 115.512 289.3 209.431 114.866 289.866 209.444 115.086 
290.814 209.413 114.659 288.511 210.088 114.567 289.48 209.976 114.465 
292.657 210.282 114.603 293.338 210.987 114.686 293.68 211.341 114.615 
293.912 211.819 114.726 295.639 218.108 114.906 272.052 239.059 114.922 
262.424 239.858 115.364 264.503 241.219 115.296 261.779 241.601 116.127 
276.937 204.182 115.522 277.758 204.24 115.86 275.05 204.678 115.632 
276.227 204.404 115.885 272.723 205.393 115.944 270.645 206.056 116.536 
270.041 206.356 116.331 271.623 205.695 116.434 265.45 208.314 117.293 
265.252 208.101 117.626 266.58 207.636 117.015 267.243 207.879 116.508 
269.132 208.29 116.012 286.414 208.152 116.085 266.748 208.766 116.74 
288.287 209.344 116.432 283.679 216.35 115.288 295.578 221.747 116.003 
288.629 229.121 115.43 261.439 239.707 115.924 259.892 242.45 117.477 
261.628 242.159 116.566 270.134 241.939 116.243 274.796 204.774 116.261 
275.217 204.727 116.433 272.336 205.431 117.042 271.797 205.568 116.892 
273.723 205.181 116.919 265.896 207.49 117.889 294.63 215.892 116.697 
295.516 221.146 116.534 294.333 226.503 117.125 290.533 229.659 116.968 
265.122 243.005 116.55 271.796 205.596 117.27 275.463 205.233 117.367 
277.928 205.796 117.838 265.011 207.763 118.648 262.052 209.438 119.545 
261.825 209.336 119.897 263.443 209.31 118.658 264.046 209.603 118.246 
264.722 209.655 117.9 270.842 212.127 117.15 292.123 229.379 118.001 
293.123 228.626 118.32 276 239.294 117.644 271.32 243.445 118.039 
273.854 205.67 118.055 276.122 206.355 118.714 261.421 209.6 120.132 
262.831 208.728 119.783 261.657 210.09 119.681 261.518 210.641 119.798 
287.51 210.805 118.652 293.327 218.851 119.273 293.926 219.704 118.968 
294.946 220.655 117.807 269.603 222.009 118.469 294.277 226.657 118.386 
294.071 227.184 118.459 292.1 229.846 119.29 292.68 229.244 119.12 
289.71 231.588 119.06 291.27 230.714 119.427 272.228 206.646 119.594 
275.036 207.26 119.786 261.149 209.65 120.539 261.357 209.355 120.772 
262.676 208.679 120.471 260.692 210.407 120.566 260.69 211.003 120.449 
261.975 212.25 119.699 262.226 212.69 119.695 291.073 215.152 119.432 
266.038 216.489 119.369 293.188 228.444 119.483 292.908 228.933 119.454 
290.482 231.454 119.689 290.769 231.297 119.869 288.153 232.816 119.711 
257.436 236.015 119.629 282.665 235.516 119.569 281.248 236.477 119.759 
257.459 244.635 120.952 257.418 244.453 120.87 257.632 244.843 121.055 
267.656 245.813 120.192 271.257 245.147 120.44 263.299 208.384 120.785 
261.881 209.064 121.636 261.329 209.325 121.256 260.052 210.705 121.248 
260.812 209.679 121.485 258.362 211.882 122.034 261.072 211.888 120.143 
275.911 210.77 121.784 292.804 227.816 120.574 247.523 231.556 122.859 
247.384 231.611 122.916 291.674 230.206 120.449 247.319 231.942 122.953 
247.62 231.964 122.831 289.525 232.329 120.648 290.162 231.811 120.758 
283.973 235.536 120.693 280.447 238.038 121.195 257.426 243.939 120.641 
257.037 245.265 121.872 263.814 208.328 121.583 256.798 212.589 122.742 
257.235 212.252 122.815 275.045 211.95 122.624 289.604 217.78 121.145 
292.352 224.856 121.271 247.202 231.452 123.134 291.252 230.528 120.96 
246.96 231.918 123.19 290.696 231.097 121.248 290.981 230.788 121.197 
286.859 234.122 121.566 287.303 233.759 121.914 284.766 235.436 121.415 
254.899 241.12 121.734 275.235 243.28 121.072 256.485 212.953 123.058 
254.677 214.119 123.98 254.482 213.828 124.453 256.574 213.657 122.669 
289.773 225.362 122.864 247.754 230.546 123.376 291.076 229.403 121.841 
290.218 230.676 122.182 289.573 231.518 122.326 246.143 233.466 123.593 
251.265 233.915 122.465 287.918 232.891 122.692 288.367 232.375 122.806 
245.56 234.04 123.989 281.725 237.744 122.914 282.396 237.272 123.204 
276.587 242.592 122.319 272.494 245.579 122.441 261.566 209.51 123.551 
257.956 211.28 124.517 257.373 211.692 124.004 254.101 214.076 124.657 
254.801 213.357 124.891 253.516 215.4 124.513 274.191 217.889 124.911 
288.301 228.015 123.854 289.108 229.667 123.425 248.265 236.228 123.451 
245.626 235.925 124.391 284.412 235.651 123.321 283.344 236.372 123.76 
281.16 238.304 123.381 279.631 239.646 123.033 274.899 244.34 123.664 
254.255 244.947 124.114 265.247 247.5 124.357 259.402 210.48 124.222 
[...]
POINT_DATA 1741
COLOR_SCALARS scalars 3
0.501961 0.752941 0.886275 0.501961 0.752941 0.886275 0.501961 0.752941 0.886275 
0.501961 0.752941 0.886275 0.501961 0.752941 0.886275 
0.501961 0.752941 0.886275 0.501961 0.752941 0.886275 
0.501961 0.752941 0.886275 0.501961 0.752941 0.886275 
0.501961 0.752941 0.886275 0.501961 0.752941 0.886275 
0.501961 0.752941 0.886275 0.501961 0.752941 0.886275 
0.501961 0.752941 0.886275 0.501961 0.752941 0.886275 
0.501961 0.752941 0.886275 0.501961 0.752941 0.886275 
0.501961 0.752941 0.886275 0.501961 0.752941 0.886275 
0.501961 0.752941 0.886275 0.501961 0.752941 0.886275 
0.501961 0.752941 0.886275 0.501961 0.752941 0.886275 
0.501961 0.752941 0.886275 0.501961 0.752941 0.886275 
0.501961 0.752941 0.886275 0.501961 0.752941 0.886275 
0.501961 0.752941 0.886275 0.501961 0.752941 0.886275 
0.501961 0.752941 0.886275 0.501961 0.752941 0.886275 
0.501961 0.752941 0.886275 0.501961 0.752941 0.886275 
0.501961 0.752941 0.886275 0.501961 0.752941 0.886275 
0.501961 0.752941 0.886275 0.501961 0.752941 0.886275 
0.501961 0.752941 0.886275 0.501961 0.752941 0.886275 
0.501961 0.752941 0.886275 0.501961 0.752941 0.886275 
0.501961 0.752941 0.886275 0.501961 0.752941 0.886275 
0.501961 0.752941 0.886275 0.501961 0.752941 0.886275 
0.501961 0.752941 0.886275 0.501961 0.752941 0.886275 
0.501961 0.752941 0.886275 0.501961 0.752941 0.886275 
0.501961 0.752941 0.886275 0.501961 0.752941 0.886275 
0.501961 0.752941 0.886275 0.501961 0.752941 0.886275 
0.501961 0.752941 0.886275 0.501961 0.752941 0.886275 
0.501961 0.752941 0.886275 0.501961 0.752941 0.886275 
0.501961 0.752941 0.886275 0.501961 0.752941 0.886275 
0.501961 0.752941 0.886275 0.501961 0.752941 0.886275 
0.501961 0.752941 0.886275 0.501961 0.752941 0.886275 
0.501961 0.752941 0.886275 0.501961 0.752941 0.886275 
0.501961 0.752941 0.886275 0.501961 0.752941 0.886275 
0.501961 0.752941 0.886275 0.501961 0.752941 0.886275 
0.501961 0.752941 0.886275 0.501961 0.752941 0.886275 
0.501961 0.752941 0.886275 0.501961 0.752941 0.886275 
0.501961 0.752941 0.886275 0.501961 0.752941 0.886275 
0.501961 0.752941 0.886275 0.501961 0.752941 0.886275 
0.501961 0.752941 0.886275 0.501961 0.752941 0.886275 
0.501961 0.752941 0.886275 0.501961 0.752941 0.886275 
0.501961 0.752941 0.886275 0.501961 0.752941 0.886275 
0.501961 0.752941 0.886275 0.501961 0.752941 0.886275 
0.501961 0.752941 0.886275 0.501961 0.752941 0.886275 
0.501961 0.752941 0.886275 0.501961 0.752941 0.886275 
0.501961 0.752941 0.886275 0.501961 0.752941 0.886275 
0.501961 0.752941 0.886275 0.501961 0.752941 0.886275 
0.501961 0.752941 0.886275 0.501961 0.752941 0.886275 
0.501961 0.752941 0.886275 0.501961 0.752941 0.886275 
0.501961 0.752941 0.886275 0.501961 0.752941 0.886275 
0.501961 0.752941 0.886275 0.501961 0.752941 0.886275 
0.501961 0.752941 0.886275 0.501961 0.752941 0.886275 
0.501961 0.752941 0.886275 0.501961 0.752941 0.886275 
0.501961 0.752941 0.886275 0.501961 0.752941 0.886275 
0.501961 0.752941 0.886275 0.501961 0.752941 0.886275 
0.501961 0.752941 0.886275 0.501961 0.752941 0.886275 
0.501961 0.752941 0.886275 0.501961 0.752941 0.886275 
0.501961 0.752941 0.886275 0.501961 0.752941 0.886275 
0.501961 0.752941 0.886275 0.501961 0.752941 0.886275 
0.501961 0.752941 0.886275 0.501961 0.752941 0.886275 
0.501961 0.752941 0.886275 0.501961 0.752941 0.886275 
0.501961 0.752941 0.886275 0.501961 0.752941 0.886275 
0.501961 0.752941 0.886275 0.501961 0.752941 0.886275 
0.501961 0.752941 0.886275 0.501961 0.752941 0.886275 
0.501961 0.752941 0.886275 0.501961 0.752941 0.886275 
0.501961 0.752941 0.886275 0.501961 0.752941 0.886275 
0.501961 0.752941 0.886275 0.501961 0.752941 0.886275 
0.501961 0.752941 0.886275 0.501961 0.752941 0.886275 
0.501961 0.752941 0.886275 0.501961 0.752941 0.886275 
0.501961 0.752941 0.886275 0.501961 0.752941 0.886275 
0.501961 0.752941 0.886275 0.501961 0.752941 0.886275 
0.501961 0.752941 0.886275 0.501961 0.752941 0.886275 
0.501961 0.752941 0.886275 0.501961 0.752941 0.886275 
0.501961 0.752941 0.886275 0.501961 0.752941 0.886275 
0.501961 0.752941 0.886275 0.501961 0.752941 0.886275 
0.501961 0.752941 0.886275 0.501961 0.752941 0.886275 
0.501961 0.752941 0.886275 0.501961 0.752941 0.886275 
0.501961 0.752941 0.886275 0.501961 0.752941 0.886275 
0.501961 0.752941 0.886275 0.501961 0.752941 0.886275 
0.501961 0.752941 0.886275 0.501961 0.752941 0.886275 
0.501961 0.752941 0.886275 0.501961 0.752941 0.886275 
0.501961 0.752941 0.886275 0.501961 0.752941 0.886275 
0.501961 0.752941 0.886275 0.501961 0.752941 0.886275 
0.501961 0.752941 0.886275 0.501961 0.752941 0.886275 
0.501961 0.752941 0.886275 0.501961 0.752941 0.886275 
0.501961 0.752941 0.886275 0.501961 0.752941 0.886275 
0.501961 0.752941 0.886275 0.501961 0.752941 0.886275 
0.501961 0.752941 0.886275 0.501961 0.752941 0.886275 
0.501961 0.752941 0.886275 0.501961 0.752941 0.886275 
0.501961 0.752941 0.886275 0.501961 0.752941 0.886275 
0.501961 0.752941 0.886275 0.501961 0.752941 0.886275 
0.501961 0.752941 0.886275 0.501961 0.752941 0.886275 
0.501961 0.752941 0.886275 0.501961 0.752941 0.886275 
0.501961 0.752941 0.886275 0.501961 0.752941 0.886275 
0.501961 0.752941 0.886275 0.501961 0.752941 0.886275 
0.501961 0.752941 0.886275 0.501961 0.752941 0.886275 
0.501961 0.752941 0.886275 0.501961 0.752941 0.886275 
0.501961 0.752941 0.886275 0.501961 0.752941 0.886275 
0.501961 0.752941 0.886275 0.501961 0.752941 0.886275 
0.501961 0.752941 0.886275 0.501961 0.752941 0.886275 
0.501961 0.752941 0.886275 0.501961 0.752941 0.886275 
0.501961 0.752941 0.886275 0.501961 0.752941 0.886275 
0.501961 0.752941 0.886275 0.501961 0.752941 0.886275 
0.501961 0.752941 0.886275 0.501961 0.752941 0.886275 
0.501961 0.752941 0.886275 0.501961 0.752941 0.886275 
0.501961 0.752941 0.886275 0.501961 0.752941 0.886275 
0.501961 0.752941 0.886275 0.501961 0.752941 0.886275 
0.501961 0.752941 0.886275 0.501961 0.752941 0.886275 
0.501961 0.752941 0.886275 0.501961 0.752941 0.886275 
0.501961 0.752941 0.886275 0.501961 0.752941 0.886275 
0.501961 0.752941 0.886275 0.501961 0.752941 0.886275 
0.501961 0.752941 0.886275 0.501961 0.752941 0.886275 
0.501961 0.752941 0.886275 0.501961 0.752941 0.886275 
0.501961 0.752941 0.886275 0.501961 0.752941 0.886275 
0.501961 0.752941 0.886275 0.501961 0.752941 0.886275 
0.501961 0.752941 0.886275 0.501961 0.752941 0.886275 
0.501961 0.752941 0.886275 0.501961 0.752941 0.886275 
0.501961 0.752941 0.886275 0.501961 0.752941 0.886275 
0.501961 0.752941 0.886275 0.501961 0.752941 0.886275 
0.501961 0.752941 0.886275 0.501961 0.752941 0.886275 
0.501961 0.752941 0.886275 0.501961 0.752941 0.886275 
0.501961 0.752941 0.886275 0.501961 0.752941 0.886275 
0.501961 0.752941 0.886275 0.501961 0.752941 0.886275 
0.501961 0.752941 0.886275 0.501961 0.752941 0.886275 
0.501961 0.752941 0.886275 0.501961 0.752941 0.886275 
0.501961 0.752941 0.886275 0.501961 0.752941 0.886275 
0.501961 0.752941 0.886275 0.501961 0.752941 0.886275 
0.501961 0.752941 0.886275 0.501961 0.752941 0.886275 
0.501961 0.752941 0.886275 0.501961 0.752941 0.886275 
0.501961 0.752941 0.886275 0.501961 0.752941 0.886275 
0.501961 0.752941 0.886275 0.501961 0.752941 0.886275 
0.501961 0.752941 0.886275 0.501961 0.752941 0.886275 
0.501961 0.752941 0.886275 0.501961 0.752941 0.886275 
0.501961 0.752941 0.886275 0.501961 0.752941 0.886275 
0.501961 0.752941 0.886275 0.501961 0.752941 0.886275 
0.501961 0.752941 0.886275 0.501961 0.752941 0.886275 
0.501961 0.752941 0.886275 0.501961 0.752941 0.886275 
0.501961 0.752941 0.886275 0.501961 0.752941 0.886275 
0.501961 0.752941 0.886275 0.501961 0.752941 0.886275 
0.501961 0.752941 0.886275 0.501961 0.752941 0.886275 
0.501961 0.752941 0.886275 0.501961 0.752941 0.886275 
0.501961 0.752941 0.886275 0.501961 0.752941 0.886275 
0.501961 0.752941 0.886275 0.501961 0.752941 0.886275 
0.501961 0.752941 0.886275 0.501961 0.752941 0.886275 
0.501961 0.752941 0.886275 0.501961 0.752941 0.886275 
0.501961 0.752941 0.886275 0.501961 0.752941 0.886275 
0.501961 0.752941 0.886275 0.501961 0.752941 0.886275 
0.501961 0.752941 0.886275 0.501961 0.752941 0.886275 
0.501961 0.752941 0.886275 0.501961 0.752941 0.886275 
0.501961 0.752941 0.886275 0.501961 0.752941 0.886275 
0.501961 0.752941 0.886275 0.501961 0.752941 0.886275 
0.501961 0.752941 0.886275 0.501961 0.752941 0.886275 
0.501961 0.752941 0.886275 0.501961 0.752941 0.886275 
0.501961 0.752941 0.886275 0.501961 0.752941 0.886275 
0.501961 0.752941 0.886275 0.501961 0.752941 0.886275 
0.501961 0.752941 0.886275 0.501961 0.752941 0.886275 
0.501961 0.752941 0.886275 0.501961 0.752941 0.886275 
0.501961 0.752941 0.886275 0.501961 0.752941 0.886275 
0.501961 0.752941 0.886275 0.501961 0.752941 0.886275 
0.501961 0.752941 0.886275 0.501961 0.752941 0.886275 
0.501961 0.752941 0.886275 0.501961 0.752941 0.886275 
0.501961 0.752941 0.886275 0.501961 0.752941 0.886275 
0.501961 0.752941 0.886275 0.501961 0.752941 0.886275 
0.501961 0.752941 0.886275 0.501961 0.752941 0.886275 
0.501961 0.752941 0.886275 0.501961 0.752941 0.886275 
0.501961 0.752941 0.886275 0.501961 0.752941 0.886275 
0.501961 0.752941 0.886275 0.501961 0.752941 0.886275 
0.501961 0.752941 0.886275 0.501961 0.752941 0.886275 
0.501961 0.752941 0.886275 0.501961 0.752941 0.886275 
0.501961 0.752941 0.886275 0.501961 0.752941 0.886275 
0.501961 0.752941 0.886275 0.501961 0.752941 0.886275 
0.501961 0.752941 0.886275 0.501961 0.752941 0.886275 
0.501961 0.752941 0.886275 0.501961 0.752941 0.886275 
0.501961 0.752941 0.886275 0.501961 0.752941 0.886275 
0.501961 0.752941 0.886275 0.501961 0.752941 0.886275 
0.501961 0.752941 0.886275 0.501961 0.752941 0.886275 
0.501961 0.752941 0.886275 0.501961 0.752941 0.886275 
0.501961 0.752941 0.886275 0.501961 0.752941 0.886275 
0.501961 0.752941 0.886275 0.501961 0.752941 0.886275 
0.501961 0.752941 0.886275 0.501961 0.752941 0.886275 
0.501961 0.752941 0.886275 0.501961 0.752941 0.886275 
0.501961 0.752941 0.886275 0.501961 0.752941 0.886275 
0.501961 0.752941 0.886275 0.501961 0.752941 0.886275 
0.501961 0.752941 0.886275 0.501961 0.752941 0.886275 
0.501961 0.752941 0.886275 0.501961 0.752941 0.886275 
0.501961 0.752941 0.886275 0.501961 0.752941 0.886275 
0.501961 0.752941 0.886275 0.501961 0.752941 0.886275 
0.501961 0.752941 0.886275 0.501961 0.752941 0.886275 
0.501961 0.752941 0.886275 0.501961 0.752941 0.886275 
0.501961 0.752941 0.886275 0.501961 0.752941 0.886275 
0.501961 0.752941 0.886275 0.501961 0.752941 0.886275 
0.501961 0.752941 0.886275 0.501961 0.752941 0.886275 
0.501961 0.752941 0.886275 0.501961 0.752941 0.886275 
0.501961 0.752941 0.886275 0.501961 0.752941 0.886275 
0.501961 0.752941 0.886275 0.501961 0.752941 0.886275 
0.501961 0.752941 0.886275 0.501961 0.752941 0.886275 
0.501961 0.752941 0.886275 0.501961 0.752941 0.886275 
0.501961 0.752941 0.886275 0.501961 0.752941 0.886275 
0.501961 0.752941 0.886275 0.501961 0.752941 0.886275 
0.501961 0.752941 0.886275 0.501961 0.752941 0.886275 
0.501961 0.752941 0.886275 0.501961 0.752941 0.886275 
0.501961 0.752941 0.886275 0.501961 0.752941 0.886275 
0.501961 0.752941 0.886275 0.501961 0.752941 0.886275 
0.501961 0.752941 0.886275 0.501961 0.752941 0.886275 
0.501961 0.752941 0.886275 0.501961 0.752941 0.886275 
0.501961 0.752941 0.886275 0.501961 0.752941 0.886275 
0.501961 0.752941 0.886275 0.501961 0.752941 0.886275 
0.501961 0.752941 0.886275 0.501961 0.752941 0.886275 
0.501961 0.752941 0.886275 0.501961 0.752941 0.886275 
0.501961 0.752941 0.886275 0.501961 0.752941 0.886275 
0.501961 0.752941 0.886275 0.501961 0.752941 0.886275 
0.501961 0.752941 0.886275 0.501961 0.752941 0.886275 
0.501961 0.752941 0.886275 0.501961 0.752941 0.886275 
0.501961 0.752941 0.886275 0.501961 0.752941 0.886275 
0.501961 0.752941 0.886275 0.501961 0.752941 0.886275 
0.501961 0.752941 0.886275 0.501961 0.752941 0.886275 
0.501961 0.752941 0.886275 0.501961 0.752941 0.886275 
0.501961 0.752941 0.886275 0.501961 0.752941 0.886275 
0.501961 0.752941 0.886275 0.501961 0.752941 0.886275 
0.501961 0.752941 0.886275 0.501961 0.752941 0.886275 
0.501961 0.752941 0.886275 0.501961 0.752941 0.886275 
0.501961 0.752941 0.886275 0.501961 0.752941 0.886275 
0.501961 0.752941 0.886275 0.501961 0.752941 0.886275 
0.501961 0.752941 0.886275 0.501961 0.752941 0.886275 
0.501961 0.752941 0.886275 0.501961 0.752941 0.886275 
0.501961 0.752941 0.886275 0.501961 0.752941 0.886275 
0.501961 0.752941 0.886275 0.501961 0.752941 0.886275 
0.501961 0.752941 0.886275 0.501961 0.752941 0.886275 
0.501961 0.752941 0.886275 0.501961 0.752941 0.886275 
0.501961 0.752941 0.886275 0.501961 0.752941 0.886275 
0.501961 0.752941 0.886275 0.501961 0.752941 0.886275 
0.501961 0.752941 0.886275 0.501961 0.752941 0.886275 
0.501961 0.752941 0.886275 0.501961 0.752941 0.886275 
0.501961 0.752941 0.886275 0.501961 0.752941 0.886275 
0.501961 0.752941 0.886275 0.501961 0.752941 0.886275 
0.501961 0.752941 0.886275 0.501961 0.752941 0.886275 
0.501961 0.752941 0.886275 0.501961 0.752941 0.886275 
0.501961 0.752941 0.886275 0.501961 0.752941 0.886275 
0.501961 0.752941 0.886275 0.501961 0.752941 0.886275 
0.501961 0.752941 0.886275 0.501961 0.752941 0.886275 
0.501961 0.752941 0.886275 0.501961 0.752941 0.886275 
0.501961 0.752941 0.886275 0.501961 0.752941 0.886275 
0.501961 0.752941 0.886275 0.501961 0.752941 0.886275 
0.501961 0.752941 0.886275 0.501961 0.752941 0.886275 
0.501961 0.752941 0.886275 0.501961 0.752941 0.886275 
0.501961 0.752941 0.886275 0.501961 0.752941 0.886275 
0.501961 0.752941 0.886275 0.501961 0.752941 0.886275 
0.501961 0.752941 0.886275 0.501961 0.752941 0.886275 
0.501961 0.752941 0.886275 0.501961 0.752941 0.886275 
0.501961 0.752941 0.886275 0.501961 0.752941 0.886275 
0.501961 0.752941 0.886275 0.501961 0.752941 0.886275 
0.501961 0.752941 0.886275 0.501961 0.752941 0.886275 
0.501961 0.752941 0.886275 0.501961 0.752941 0.886275 
0.501961 0.752941 0.886275 0.501961 0.752941 0.886275 
0.501961 0.752941 0.886275 0.501961 0.752941 0.886275 
0.501961 0.752941 0.886275 0.501961 0.752941 0.886275 
0.501961 0.752941 0.886275 0.501961 0.752941 0.886275 
0.501961 0.752941 0.886275 0.501961 0.752941 0.886275 
0.501961 0.752941 0.886275 0.501961 0.752941 0.886275 
0.501961 0.752941 0.886275 0.501961 0.752941 0.886275 
0.501961 0.752941 0.886275 0.501961 0.752941 0.886275 
0.501961 0.752941 0.886275 0.501961 0.752941 0.886275 
0.501961 0.752941 0.886275 0.501961 0.752941 0.886275 
0.501961 0.752941 0.886275 0.501961 0.752941 0.886275 
0.501961 0.752941 0.886275 0.501961 0.752941 0.886275 
0.501961 0.752941 0.886275 0.501961 0.752941 0.886275 
0.501961 0.752941 0.886275 0.501961 0.752941 0.886275 
0.501961 0.752941 0.886275 0.501961 0.752941 0.886275 
0.501961 0.752941 0.886275 0.501961 0.752941 0.886275 
0.501961 0.752941 0.886275 0.501961 0.752941 0.886275 
0.501961 0.752941 0.886275 0.501961 0.752941 0.886275 
0.501961 0.752941 0.886275 0.501961 0.752941 0.886275 
0.501961 0.752941 0.886275 0.501961 0.752941 0.886275 
0.501961 0.752941 0.886275 0.501961 0.752941 0.886275 
0.501961 0.752941 0.886275 0.501961 0.752941 0.886275 
0.501961 0.752941 0.886275 0.501961 0.752941 0.886275 
0.501961 0.752941 0.886275 0.501961 0.752941 0.886275 
0.501961 0.752941 0.886275 0.501961 0.752941 0.886275 
0.501961 0.752941 0.886275 0.501961 0.752941 0.886275 
0.501961 0.752941 0.886275 0.501961 0.752941 0.886275 
0.501961 0.752941 0.886275 0.501961 0.752941 0.886275 
0.501961 0.752941 0.886275 0.501961 0.752941 0.886275 
0.501961 0.752941 0.886275 0.501961 0.752941 0.886275 
0.501961 0.752941 0.886275 0.501961 0.752941 0.886275 
0.501961 0.752941 0.886275 0.501961 0.752941 0.886275 
0.501961 0.752941 0.886275 0.501961 0.752941 0.886275 
0.501961 0.752941 0.886275 0.501961 0.752941 0.886275 
0.501961 0.752941 0.886275 0.501961 0.752941 0.886275 
0.501961 0.752941 0.886275 0.501961 0.752941 0.886275 
0.501961 0.752941 0.886275 0.501961 0.752941 0.886275 
0.501961 0.752941 0.886275 0.501961 0.752941 0.886275 
0.501961 0.752941 0.886275 0.501961 0.752941 0.886275 
0.501961 0.752941 0.886275 0.501961 0.752941 0.886275 
0.501961 0.752941 0.886275 0.501961 0.752941 0.886275 
0.501961 0.752941 0.886275 0.501961 0.752941 0.886275 
0.501961 0.752941 0.886275 0.501961 0.752941 0.886275 
0.501961 0.752941 0.886275 0.501961 0.752941 0.886275 
0.501961 0.752941 0.886275 0.501961 0.752941 0.886275 
0.501961 0.752941 0.886275 0.501961 0.752941 0.886275 
0.501961 0.752941 0.886275 0.501961 0.752941 0.886275 
0.501961 0.752941 0.886275 0.501961 0.752941 0.886275 
0.501961 0.752941 0.886275 0.501961 0.752941 0.886275 
0.501961 0.752941 0.886275 0.501961 0.752941 0.886275 
0.501961 0.752941 0.886275 0.501961 0.752941 0.886275 
0.501961 0.752941 0.886275 0.501961 0.752941 0.886275 
0.501961 0.752941 0.886275 0.501961 0.752941 0.886275 
0.501961 0.752941 0.886275 0.501961 0.752941 0.886275 
0.501961 0.752941 0.886275 0.501961 0.752941 0.886275 
0.501961 0.752941 0.886275 0.501961 0.752941 0.886275 
0.501961 0.752941 0.886275 0.501961 0.752941 0.886275 
0.501961 0.752941 0.886275 0.501961 0.752941 0.886275 
0.501961 0.752941 0.886275 0.501961 0.752941 0.886275 
0.501961 0.752941 0.886275 0.501961 0.752941 0.886275 
0.501961 0.752941 0.886275 0.501961 0.752941 0.886275 
0.501961 0.752941 0.886275 0.501961 0.752941 0.886275 
0.501961 0.752941 0.886275 0.501961 0.752941 0.886275 
0.501961 0.752941 0.886275 0.501961 0.752941 0.886275 
0.501961 0.752941 0.886275 0.501961 0.752941 0.886275 
0.501961 0.752941 0.886275 0.501961 0.752941 0.886275 
0.501961 0.752941 0.886275 0.501961 0.752941 0.886275 
0.501961 0.752941 0.886275 0.501961 0.752941 0.886275 
0.501961 0.752941 0.886275 0.501961 0.752941 0.886275 
0.501961 0.752941 0.886275 0.501961 0.752941 0.886275 
0.501961 0.752941 0.886275 0.501961 0.752941 0.886275 
0.501961 0.752941 0.886275 0.501961 0.752941 0.886275 
0.501961 0.752941 0.886275 0.501961 0.752941 0.886275 
0.501961 0.752941 0.886275 0.501961 0.752941 0.886275 
0.501961 0.752941 0.886275 0.501961 0.752941 0.886275 
0.501961 0.752941 0.886275 0.501961 0.752941 0.886275 
0.501961 0.752941 0.886275 0.501961 0.752941 0.886275 
0.501961 0.752941 0.886275 0.501961 0.752941 0.886275 
0.501961 0.752941 0.886275 0.501961 0.752941 0.886275 
0.501961 0.752941 0.886275 0.501961 0.752941 0.886275 
0.501961 0.752941 0.886275 0.501961 0.752941 0.886275 
0.501961 0.752941 0.886275 0.501961 0.752941 0.886275 
0.501961 0.752941 0.886275 0.501961 0.752941 0.886275 
0.501961 0.752941 0.886275 0.501961 0.752941 0.886275 
0.501961 0.752941 0.886275 0.501961 0.752941 0.886275 
0.501961 0.752941 0.886275 0.501961 0.752941 0.886275 
0.501961 0.752941 0.886275 0.501961 0.752941 0.886275 
0.501961 0.752941 0.886275 0.501961 0.752941 0.886275 
0.501961 0.752941 0.886275 0.501961 0.752941 0.886275 
0.501961 0.752941 0.886275 0.501961 0.752941 0.886275 
0.501961 0.752941 0.886275 0.501961 0.752941 0.886275 
0.501961 0.752941 0.886275 0.501961 0.752941 0.886275 
0.501961 0.752941 0.886275 0.501961 0.752941 0.886275 
0.501961 0.752941 0.886275 0.501961 0.752941 0.886275 
0.501961 0.752941 0.886275 0.501961 0.752941 0.886275 
0.501961 0.752941 0.886275 0.501961 0.752941 0.886275 
0.501961 0.752941 0.886275 0.501961 0.752941 0.886275 
0.501961 0.752941 0.886275 0.501961 0.752941 0.886275 
0.501961 0.752941 0.886275 0.501961 0.752941 0.886275 
0.501961 0.752941 0.886275 0.501961 0.752941 0.886275 
0.501961 0.752941 0.886275 0.501961 0.752941 0.886275 
0.501961 0.752941 0.886275 0.501961 0.752941 0.886275 
0.501961 0.752941 0.886275 0.501961 0.752941 0.886275 
0.501961 0.752941 0.886275 0.501961 0.752941 0.886275 
0.501961 0.752941 0.886275 0.501961 0.752941 0.886275 
0.501961 0.752941 0.886275 0.501961 0.752941 0.886275 
0.501961 0.752941 0.886275 0.501961 0.752941 0.886275 
0.501961 0.752941 0.886275 0.501961 0.752941 0.886275 
0.501961 0.752941 0.886275 0.501961 0.752941 0.886275 
0.501961 0.752941 0.886275 0.501961 0.752941 0.886275 