# vtk DataFile Version 4.2
vtk output
ASCII
DATASET POLYDATA
POINTS 7892 float
305.494 191.915 94.9253 305.308 191.531 95.0108 305.308 191.999 94.904 
305.483 191.537 95.1062 305.442 193.599 94.7392 305.882 194.305 94.6491 
306.096 193.846 94.8486 306.402 194.971 94.7783 305.95 195.92 94.505 
306.249 198.564 94.6261 307.04 198.795 94.7765 306.944 200.137 94.5306 
307.136 199.668 94.6127 307.258 200.287 94.5729 307.021 201.742 94.539 
307.195 202.367 94.5519 307.455 203.526 94.6297 307.668 204.066 94.7252 
308.329 205.787 94.8045 308.644 205.528 94.9537 308.916 206.262 95.0124 
308.802 207.28 94.8669 309.043 206.824 94.9304 309.208 207.223 95.0209 
308.904 207.8 94.93 309.077 208.1 95.0004 309.074 207.703 94.9182 
309.23 208.108 95.073 304.688 189.771 95.7763 304.865 190.671 95.3511 
305.183 190.558 95.5108 305.185 190.981 95.2435 305.43 191.08 95.409 
305.91 192.442 95.2861 305.051 192.945 94.9287 304.694 193.17 95.1868 
306.192 193.428 95.3241 304.712 194.114 95.2168 306.324 194.427 94.8411 
305.096 194.516 94.8938 306.578 195.385 94.9742 305.795 196.215 94.5481 
305.571 197.727 94.8597 307.185 198.314 95.277 306.085 199.562 94.7963 
307.508 199.707 95.1432 307.368 200.089 94.6856 306.225 201.587 95.0021 
306.897 202.094 94.6063 308.237 204.817 94.8629 307.381 204.551 94.8938 
307.852 205.08 94.8171 308.148 207.453 95.2407 309.371 207.493 95.311 
309.205 208.624 95.251 309.421 208.387 95.3806 309.079 209.408 95.5253 
309.219 209.628 95.6049 304.649 189.446 95.9956 304.236 189.162 96.125 
305.841 191.955 95.605 306.69 195.445 95.4012 308.278 202.991 95.9332 
308.474 204.184 95.4429 308.687 204.721 95.6916 307.726 207.295 95.5019 
309.613 210.767 96.2411 309.755 210.242 96.2494 309.856 210.955 96.3947 
309.84 211.285 96.4519 309.981 211.361 96.5912 309.827 211.574 96.6137 
309.951 211.582 96.6231 297.274 154.087 96.1999 297.27 154.018 96.1905 
297.275 154.091 96.2002 297.275 154.099 96.2018 297.287 154.3 96.2285 
297.288 154.322 96.2318 297.287 154.317 96.2321 297.314 154.745 96.2901 
297.313 154.773 96.2971 297.307 154.658 96.2795 297.327 154.987 96.3253 
297.345 155.305 96.3707 297.376 155.87 96.4564 297.408 156.539 96.566 
297.408 157.117 96.6982 297.452 157.528 96.7423 297.441 157.276 96.699 
297.441 157.209 96.6841 297.48 158.036 96.8377 297.474 158.072 96.8504 
297.469 158.044 96.8607 297.509 158.718 96.9753 297.492 158.867 97.022 
297.53 159.46 97.129 297.538 159.508 97.1724 297.549 159.578 97.1476 
298.546 163.012 96.9105 298.526 163.061 96.9441 298.532 163.059 96.9476 
298.52 163.022 96.9524 298.501 163.202 97.0248 298.45 163.522 97.1559 
298.484 163.435 97.1556 298.5 163.893 97.2943 298.578 164.677 97.4581 
298.602 165.427 97.518 298.495 165.964 97.5974 300.431 176.345 97.6957 
300.724 176.3 97.8826 301.011 176.993 97.7134 301.098 177.492 97.591 
301.223 177.378 97.7603 300.913 178.283 97.4231 300.78 178.868 97.4387 
301.92 179.899 97.7601 302.156 180.758 97.6188 302.234 181.417 97.4773 
301.899 182.096 97.2765 302.832 182.853 97.5024 303.075 183.381 97.5528 
302.402 185.887 97.1968 303.006 186.607 96.9739 303.4 186.342 97.0792 
303.618 185.838 97.4031 303.637 187.717 96.7246 304.045 187.251 97.2758 
303.305 188.779 96.5796 304.377 188.563 96.6027 303.43 190.074 96.411 
303.98 193.647 96.0242 306.936 196.49 96.2425 304.568 198.999 96.3359 
305.92 203.69 95.9892 308.512 203.837 96.7204 307.253 208.376 96.6215 
309.742 209.022 96.4036 308.063 209.503 96.3762 309.1 211.094 96.6835 
309.801 211.763 96.831 309.939 211.786 96.7991 310.042 211.724 96.8269 
309.998 211.941 97.0475 296.003 150.77 97.381 296.003 150.712 97.3692 
296.003 150.777 97.3825 296.003 150.771 97.3813 296.002 150.957 97.4196 
296.002 150.964 97.421 296.002 150.942 97.4166 296.002 151.281 97.4869 
296.002 151.371 97.5058 296.002 151.339 97.4994 296.002 151.613 97.5565 
296.003 151.835 97.6034 296.002 151.731 97.5816 297.275 154.103 96.2021 
296.003 152.056 97.6505 296.005 152.415 97.7275 296.005 152.332 97.7098 
297.288 154.341 96.2357 296.006 152.611 97.7694 297.313 154.829 96.3081 
297.341 155.511 96.4185 297.356 156.009 96.5079 297.36 156.112 96.5266 
297.37 156.719 96.6503 297.393 157.443 96.7946 297.436 157.23 96.6919 
297.386 157.817 96.9012 297.407 158.09 96.9364 297.459 157.783 96.8007 
297.452 158.433 96.9778 297.473 159.011 97.1329 297.39 159.913 97.423 
297.575 160.139 97.2723 298.513 163.024 96.9505 297.627 160.752 97.4591 
297.747 161.556 97.456 297.841 162.127 97.6811 298.441 163.013 97.0455 
297.687 163.236 97.746 298.19 162.856 97.3274 298.522 164.194 97.5087 
298.796 165.548 97.8493 297.982 166.209 97.9537 298.876 167.135 97.8739 
298.979 168.829 98.0763 298.835 170.199 98.1338 299.201 170.86 98.2314 
299.51 171.482 98.4782 299.786 172.744 98.5154 299.206 174.275 98.0775 
300.49 175.276 98.2792 300.307 178.116 97.5627 302.217 180.161 98.2424 
301.894 185.124 97.4183 302.861 188.238 96.9267 306.033 192.657 97.0289 
307.242 198.379 97.2567 307.838 200.821 96.4839 308.677 204.801 97.6609 
308.039 210.251 97.0013 309.858 212.002 97.5486 310.039 212.039 97.1836 
310.037 212.051 97.2505 310.079 211.948 97.0535 310.081 212.04 97.1516 
294.002 143.511 98.0152 294.002 143.511 98.0152 294.002 143.511 98.0152 
294.002 143.511 98.0153 294.002 143.511 98.0152 294.002 143.511 98.0153 
294.002 143.511 98.0153 294.002 143.511 98.0153 295 148.494 98.0113 
295 148.491 98.0111 295 148.493 98.0112 295 148.495 98.0114 
295 148.5 98.0115 295.001 148.502 98.0116 295.001 148.507 98.0118 
296.003 150.778 97.3827 295.001 148.514 98.0121 295.002 148.518 98.0122 
295.002 148.525 98.0126 296.002 150.951 97.4183 295.002 148.528 98.0127 
295.002 148.529 98.0127 295.002 148.533 98.0129 296.002 151.193 97.4687 
295.002 148.534 98.0129 296.002 151.602 97.5544 296.003 151.906 97.6186 
296.003 151.997 97.6383 296.005 152.375 97.7187 296.006 152.628 97.7731 
296.012 153.226 97.9014 296.011 153.11 97.8766 296.011 153.158 97.8869 
296.023 154.073 98.0816 296.022 154.056 98.0779 296.024 154.119 98.0909 
296.036 154.805 98.2346 296.045 155.095 98.292 296.047 155.22 98.3176 
297.363 156.407 96.587 296.06 155.638 98.4006 296.085 156.205 98.5027 
296.078 156.124 98.4914 297.372 156.932 96.6982 296.093 156.436 98.5461 
297.375 157.632 96.8637 297.367 158.221 97.0256 297.362 158.62 97.1496 
297.36 159.205 97.3384 297.246 160.172 97.7287 298.239 164.493 98.3044 
298.807 166.06 98.2894 298.12 167.019 97.9739 298.895 166.343 98.1863 
297.818 168.081 98.4469 299.23 169.171 98.65 299.041 175.272 98.1634 
299.088 175.961 98.2018 302.795 181.787 98.5618 304.124 186.583 98.2958 
302.933 193.549 97.5617 305.648 205.798 97.3755 310.037 211.703 97.4131 
309.937 211.706 98.1875 310.057 211.953 97.2206 290.444 133.468 100.249 
290.154 132.915 100.428 290.318 133.048 100.421 290.57 133.59 100.206 
290.666 133.979 100.127 290.689 133.927 100.15 290.771 134.586 100.087 
290.783 134.409 100.109 290.884 135.312 100.072 290.994 136.108 100.086 
290.984 135.867 100.089 291.105 137.045 100.133 291.071 136.683 100.139 
291.255 138.223 100.191 291.209 137.79 100.194 291.531 139.587 100.167 
291.454 139.225 100.209 291.685 140.052 100.105 291.809 140.573 100.072 
291.828 140.642 100.075 291.984 141.285 100.04 291.987 141.752 100.161 
292.222 142.381 100.029 292.214 142.206 99.9906 292.481 143.054 99.8766 
294.002 143.511 98.0153 292.819 144.05 99.7131 294.002 143.511 98.0153 
293.029 144.562 99.5816 293.073 144.764 99.5781 293.268 145.165 99.4382 
293.204 145.006 99.4774 293.247 145.09 99.4454 293.353 145.347 99.38 
293.373 145.393 99.3671 293.38 145.404 99.361 295 148.494 98.0113 
293.433 145.528 99.3271 293.44 145.544 99.3221 293.453 145.572 99.3137 
295.001 148.505 98.0117 293.464 145.6 99.3062 295.002 148.521 98.0124 
295.002 148.532 98.0128 296.003 152.051 97.6496 294.999 153.01 99.0115 
294.999 153.01 99.0115 294.999 153.01 99.0115 296.006 152.541 97.7544 
295 153.011 99.0116 295 153.011 99.0116 295 153.012 99.0116 
295 153.012 99.0117 296.012 153.245 97.9055 295 153.012 99.0118 
295.001 153.013 99.0118 295.001 153.013 99.0118 296.024 154.102 98.0872 
295.001 153.013 99.0118 296.042 155.025 98.2788 296.063 155.767 98.4264 
296.071 155.915 98.451 296.086 156.291 98.5209 296.142 157.174 98.6596 
296.132 157.022 98.6361 296.133 157.075 98.6474 296.207 157.96 98.7615 
296.246 158.392 98.8142 297.351 158.74 97.185 296.323 158.906 98.8312 
297.32 159.303 97.3969 296.539 159.957 98.7831 297.265 159.887 97.6743 
296.997 160.662 98.3047 296.749 161.585 98.8954 297.075 162.145 98.5033 
297.147 163.084 98.6988 298.605 165.966 98.5744 298.399 166.226 98.9844 
297.489 166.398 98.6513 298.691 167.415 99.1582 299.049 169.17 99.3772 
297.978 172.032 98.8378 301.795 178.801 99.2439 302.318 180.465 99.3664 
303.696 184.918 98.8369 308.522 212.246 98.8576 289.122 130.202 101.287 
288.922 130.197 101.29 289.243 130.357 101.295 289.43 131.176 100.977 
289.503 131.018 101.164 289.756 131.662 100.87 290.187 134.668 100.734 
290.602 135.527 100.408 290.617 136.312 100.551 291.3 140.459 100.687 
291.584 141.058 100.487 291.965 142.02 100.263 292.092 141.868 100.059 
291.969 142.16 100.306 292.184 142.481 100.108 292.053 142.92 100.415 
292.555 143.673 99.9556 292.747 144.102 99.8195 292.922 144.53 99.7059 
293.237 145.084 99.4562 293.012 144.736 99.6448 292.995 144.743 99.6676 
293.023 144.816 99.6506 293.374 145.391 99.3648 293.019 144.816 99.6555 
293.443 145.551 99.3196 294.005 149.513 100.011 294.004 149.513 100.011 
294.005 149.513 100.011 294.005 149.513 100.011 294.004 149.513 100.011 
294.004 149.513 100.011 294.005 149.513 100.011 294.004 149.513 100.011 
295 153.011 99.0115 295 153.012 99.0117 295.001 153.013 99.0118 
295.001 156.492 100.009 295.001 156.494 100.009 295.001 156.495 100.009 
295.001 156.497 100.009 295.002 156.501 100.009 295.002 156.503 100.009 
295.002 156.508 100.01 296.093 156.428 98.5455 295.002 156.515 100.01 
295.003 156.519 100.01 295.003 156.526 100.01 296.139 157.183 98.6651 
295.003 156.529 100.011 295.003 156.531 100.011 295.003 156.534 100.011 
[...]
POINT_DATA 7892
COLOR_SCALARS scalars 3
0.666667 0.666667 0.666667 0.666667 0.666667 0.666667 0.666667 0.666667 0.666667 
0.666667 0.666667 0.666667 0.666667 0.666667 0.666667 
0.666667 0.666667 0.666667 0.666667 0.666667 0.666667 
0.666667 0.666667 0.666667 0.666667 0.666667 0.666667 
0.666667 0.666667 0.666667 0.666667 0.666667 0.666667 
0.666667 0.666667 0.666667 0.666667 0.666667 0.666667 
0.666667 0.666667 0.666667 0.666667 0.666667 0.666667 
0.666667 0.666667 0.666667 0.666667 0.666667 0.666667 
0.666667 0.666667 0.666667 0.666667 0.666667 0.666667 
0.666667 0.666667 0.666667 0.666667 0.666667 0.666667 
0.666667 0.666667 0.666667 0.666667 0.666667 0.666667 
0.666667 0.666667 0.666667 0.666667 0.666667 0.666667 
0.666667 0.666667 0.666667 0.666667 0.666667 0.666667 
0.666667 0.666667 0.666667 0.666667 0.666667 0.666667 
0.666667 0.666667 0.666667 0.666667 0.666667 0.666667 
0.666667 0.666667 0.666667 0.666667 0.666667 0.666667 
0.666667 0.666667 0.666667 0.666667 0.666667 0.666667 
0.666667 0.666667 0.666667 0.666667 0.666667 0.666667 
0.666667 0.666667 0.666667 0.666667 0.666667 0.666667 
0.666667 0.666667 0.666667 0.666667 0.666667 0.666667 
0.666667 0.666667 0.666667 0.666667 0.666667 0.666667 
0.666667 0.666667 0.666667 0.666667 0.666667 0.666667 
0.666667 0.666667 0.666667 0.666667 0.666667 0.666667 
0.666667 0.666667 0.666667 0.666667 0.666667 0.666667 
0.666667 0.666667 0.666667 0.666667 0.666667 0.666667 
0.666667 0.666667 0.666667 0.666667 0.666667 0.666667 
0.666667 0.666667 0.666667 0.666667 0.666667 0.666667 
0.666667 0.666667 0.666667 0.666667 0.666667 0.666667 
0.666667 0.666667 0.666667 0.666667 0.666667 0.666667 
0.666667 0.666667 0.666667 0.666667 0.666667 0.666667 
0.666667 0.666667 0.666667 0.666667 0.666667 0.666667 
0.666667 0.666667 0.666667 0.666667 0.666667 0.666667 
0.666667 0.666667 0.666667 0.666667 0.666667 0.666667 
0.666667 0.666667 0.666667 0.666667 0.666667 0.666667 
0.666667 0.666667 0.666667 0.666667 0.666667 0.666667 
0.666667 0.666667 0.666667 0.666667 0.666667 0.666667 
0.666667 0.666667 0.666667 0.666667 0.666667 0.666667 
0.666667 0.666667 0.666667 0.666667 0.666667 0.666667 
0.666667 0.666667 0.666667 0.666667 0.666667 0.666667 
0.666667 0.666667 0.666667 0.666667 0.666667 0.666667 
0.666667 0.666667 0.666667 0.666667 0.666667 0.666667 
0.666667 0.666667 0.666667 0.666667 0.666667 0.666667 
0.666667 0.666667 0.666667 0.666667 0.666667 0.666667 
0.666667 0.666667 0.666667 0.666667 0.666667 0.666667 
0.666667 0.666667 0.666667 0.666667 0.666667 0.666667 
0.666667 0.666667 0.666667 0.666667 0.666667 0.666667 
0.666667 0.666667 0.666667 0.666667 0.666667 0.666667 
0.666667 0.666667 0.666667 0.666667 0.666667 0.666667 
0.666667 0.666667 0.666667 0.666667 0.666667 0.666667 
0.666667 0.666667 0.666667 0.666667 0.666667 0.666667 
0.666667 0.666667 0.666667 0.666667 0.666667 0.666667 
0.666667 0.666667 0.666667 0.666667 0.666667 0.666667 
0.666667 0.666667 0.666667 0.666667 0.666667 0.666667 
0.666667 0.666667 0.666667 0.666667 0.666667 0.666667 
0.666667 0.666667 0.666667 0.666667 0.666667 0.666667 
0.666667 0.666667 0.666667 0.666667 0.666667 0.666667 
0.666667 0.666667 0.666667 0.666667 0.666667 0.666667 
0.666667 0.666667 0.666667 0.666667 0.666667 0.666667 
0.666667 0.666667 0.666667 0.666667 0.666667 0.666667 
0.666667 0.666667 0.666667 0.666667 0.666667 0.666667 
0.666667 0.666667 0.666667 0.666667 0.666667 0.666667 
0.666667 0.666667 0.666667 0.666667 0.666667 0.666667 
0.666667 0.666667 0.666667 0.666667 0.666667 0.666667 
0.666667 0.666667 0.666667 0.666667 0.666667 0.666667 
0.666667 0.666667 0.666667 0.666667 0.666667 0.666667 
0.666667 0.666667 0.666667 0.666667 0.666667 0.666667 
0.666667 0.666667 0.666667 0.666667 0.666667 0.666667 
0.666667 0.666667 0.666667 0.666667 0.666667 0.666667 
0.666667 0.666667 0.666667 0.666667 0.666667 0.666667 
0.666667 0.666667 0.666667 0.666667 0.666667 0.666667 
0.666667 0.666667 0.666667 0.666667 0.666667 0.666667 
0.666667 0.666667 0.666667 0.666667 0.666667 0.666667 
0.666667 0.666667 0.666667 0.666667 0.666667 0.666667 
0.666667 0.666667 0.666667 0.666667 0.666667 0.666667 
0.666667 0.666667 0.666667 0.666667 0.666667 0.666667 
0.666667 0.666667 0.666667 0.666667 0.666667 0.666667 
0.666667 0.666667 0.666667 0.666667 0.666667 0.666667 
0.666667 0.666667 0.666667 0.666667 0.666667 0.666667 
0.666667 0.666667 0.666667 0.666667 0.666667 0.666667 
0.666667 0.666667 0.666667 0.666667 0.666667 0.666667 
0.666667 0.666667 0.666667 0.666667 0.666667 0.666667 
0.666667 0.666667 0.666667 0.666667 0.666667 0.666667 
0.666667 0.666667 0.666667 0.666667 0.666667 0.666667 
0.666667 0.666667 0.666667 0.666667 0.666667 0.666667 
0.666667 0.666667 0.666667 0.666667 0.666667 0.666667 
0.666667 0.666667 0.666667 0.666667 0.666667 0.666667 
0.666667 0.666667 0.666667 0.666667 0.666667 0.666667 
0.666667 0.666667 0.666667 0.666667 0.666667 0.666667 
0.666667 0.666667 0.666667 0.666667 0.666667 0.666667 
0.666667 0.666667 0.666667 0.666667 0.666667 0.666667 
0.666667 0.666667 0.666667 0.666667 0.666667 0.666667 
0.666667 0.666667 0.666667 0.666667 0.666667 0.666667 
0.666667 0.666667 0.666667 0.666667 0.666667 0.666667 
0.666667 0.666667 0.666667 0.666667 0.666667 0.666667 
0.666667 0.666667 0.666667 0.666667 0.666667 0.666667 
0.666667 0.666667 0.666667 0.666667 0.666667 0.666667 
0.666667 0.666667 0.666667 0.666667 0.666667 0.666667 
0.666667 0.666667 0.666667 0.666667 0.666667 0.666667 
0.666667 0.666667 0.666667 0.666667 0.666667 0.666667 
0.666667 0.666667 0.666667 0.666667 0.666667 0.666667 
0.666667 0.666667 0.666667 0.666667 0.666667 0.666667 
0.666667 0.666667 0.666667 0.666667 0.666667 0.666667 
0.666667 0.666667 0.666667 0.666667 0.666667 0.666667 
0.666667 0.666667 0.666667 0.666667 0.666667 0.666667 
0.666667 0.666667 0.666667 0.666667 0.666667 0.666667 
0.666667 0.666667 0.666667 0.666667 0.666667 0.666667 
0.666667 0.666667 0.666667 0.666667 0.666667 0.666667 
0.666667 0.666667 0.666667 0.666667 0.666667 0.666667 
0.666667 0.666667 0.666667 0.666667 0.666667 0.666667 
0.666667 0.666667 0.666667 0.666667 0.666667 0.666667 
0.666667 0.666667 0.666667 0.666667 0.666667 0.666667 
0.666667 0.666667 0.666667 0.666667 0.666667 0.666667 
0.666667 0.666667 0.666667 0.666667 0.666667 0.666667 
0.666667 0.666667 0.666667 0.666667 0.666667 0.666667 
0.666667 0.666667 0.666667 0.666667 0.666667 0.666667 
0.666667 0.666667 0.666667 0.666667 0.666667 0.666667 
0.666667 0.666667 0.666667 0.666667 0.666667 0.666667 
0.666667 0.666667 0.666667 0.666667 0.666667 0.666667 
0.666667 0.666667 0.666667 0.666667 0.666667 0.666667 
0.666667 0.666667 0.666667 0.666667 0.666667 0.666667 
0.666667 0.666667 0.666667 0.666667 0.666667 0.666667 
0.666667 0.666667 0.666667 0.666667 0.666667 0.666667 
0.666667 0.666667 0.666667 0.666667 0.666667 0.666667 
0.666667 0.666667 0.666667 0.666667 0.666667 0.666667 
0.666667 0.666667 0.666667 0.666667 0.666667 0.666667 
0.666667 0.666667 0.666667 0.666667 0.666667 0.666667 
0.666667 0.666667 0.666667 0.666667 0.666667 0.666667 
0.666667 0.666667 0.666667 0.666667 0.666667 0.666667 
0.666667 0.666667 0.666667 0.666667 0.666667 0.666667 
0.666667 0.666667 0.666667 0.666667 0.666667 0.666667 
0.666667 0.666667 0.666667 0.666667 0.666667 0.666667 
0.666667 0.666667 0.666667 0.666667 0.666667 0.666667 
0.666667 0.666667 0.666667 0.666667 0.666667 0.666667 
0.666667 0.666667 0.666667 0.666667 0.666667 0.666667 
0.666667 0.666667 0.666667 0.666667 0.666667 0.666667 
0.666667 0.666667 0.666667 0.666667 0.666667 0.666667 
0.666667 0.666667 0.666667 0.666667 0.666667 0.666667 
0.666667 0.666667 0.666667 0.666667 0.666667 0.666667 
0.666667 0.666667 0.666667 0.666667 0.666667 0.666667 
0.666667 0.666667 0.666667 0.666667 0.666667 0.666667 
0.666667 0.666667 0.666667 0.666667 0.666667 0.666667 
0.666667 0.666667 0.666667 0.666667 0.666667 0.666667 
0.666667 0.666667 0.666667 0.666667 0.666667 0.666667 
0.666667 0.666667 0.666667 0.666667 0.666667 0.666667 
0.666667 0.666667 0.666667 0.666667 0.666667 0.666667 
0.666667 0.666667 0.666667 0.666667 0.666667 0.666667 
0.666667 0.666667 0.666667 0.666667 0.666667 0.666667 
0.666667 0.666667 0.666667 0.666667 0.666667 0.666667 
0.666667 0.666667 0.666667 0.666667 0.666667 0.666667 
0.666667 0.666667 0.666667 0.666667 0.666667 0.666667 
0.666667 0.666667 0.666667 0.666667 0.666667 0.666667 
0.666667 0.666667 0.666667 0.666667 0.666667 0.666667 
0.666667 0.666667 0.666667 0.666667 0.666667 0.666667 
0.666667 0.666667 0.666667 0.666667 0.666667 0.666667 
0.666667 0.666667 0.666667 0.666667 0.666667 0.666667 
0.666667 0.666667 0.666667 0.666667 0.666667 0.666667 
0.666667 0.666667 0.666667 0.666667 0.666667 0.666667 
0.666667 0.666667 0.666667 0.666667 0.666667 0.666667 
0.666667 0.666667 0.666667 0.666667 0.666667 0.666667 
0.666667 0.666667 0.666667 0.666667 0.666667 0.666667 
0.666667 0.666667 0.666667 0.666667 0.666667 0.666667 
0.666667 0.666667 0.666667 0.666667 0.666667 0.666667 
0.666667 0.666667 0.666667 0.666667 0.666667 0.666667 
0.666667 0.666667 0.666667 0.666667 0.666667 0.666667 
0.666667 0.666667 0.666667 0.666667 0.666667 0.666667 
0.666667 0.666667 0.666667 0.666667 0.666667 0.666667 
0.666667 0.666667 0.666667 0.666667 0.666667 0.666667 
0.666667 0.666667 0.666667 0.666667 0.666667 0.666667 
0.666667 0.666667 0.666667 0.666667 0.666667 0.666667 
0.666667 0.666667 0.666667 0.666667 0.666667 0.666667 
0.666667 0.666667 0.666667 0.666667 0.666667 0.666667 
0.666667 0.666667 0.666667 0.666667 0.666667 0.666667 
0.666667 0.666667 0.666667 0.666667 0.666667 0.666667 
0.666667 0.666667 0.666667 0.666667 0.666667 0.666667 
0.666667 0.666667 0.666667 0.666667 0.666667 0.666667 
0.666667 0.666667 0.666667 0.666667 0.666667 0.666667 
0.666667 0.666667 0.666667 0.666667 0.666667 0.666667 
0.666667 0.666667 0.666667 0.666667 0.666667 0.666667 
0.666667 0.666667 0.666667 0.666667 0.666667 0.666667 
0.666667 0.666667 0.666667 0.666667 0.666667 0.666667 
0.666667 0.666667 0.666667 0.666667 0.666667 0.666667 
0.666667 0.666667 0.666667 0.666667 0.666667 0.666667 
0.666667 0.666667 0.666667 0.666667 0.666667 0.666667 
0.666667 0.666667 0.666667 0.666667 0.666667 0.666667 
0.666667 0.666667 0.666667 0.666667 0.666667 0.666667 
0.666667 0.666667 0.666667 0.666667 0.666667 0.666667 
0.666667 0.666667 0.666667 0.666667 0.666667 0.666667 
0.666667 0.666667 0.666667 0.666667 0.666667 0.666667 
0.666667 0.666667 0.666667 0.666667 0.666667 0.666667 
0.666667 0.666667 0.666667 0.666667 0.666667 0.666667 
0.666667 0.666667 0.666667 0.666667 0.666667 0.666667 
0.666667 0.666667 0.666667 0.666667 0.666667 0.666667 
0.666667 0.666667 0.666667 0.666667 0.666667 0.666667 
0.666667 0.666667 0.666667 0.666667 0.666667 0.666667 
0.666667 0.666667 0.666667 0.666667 0.666667 0.666667 
0.666667 0.666667 0.666667 0.666667 0.666667 0.666667 
0.666667 0.666667 0.666667 0.666667 0.666667 0.666667 
0.666667 0.666667 0.666667 0.666667 0.666667 0.666667 
0.666667 0.666667 0.666667 0.666667 0.666667 0.666667 
0.666667 0.666667 0.666667 0.666667 0.666667 0.666667 
0.666667 0.666667 0.666667 0.666667 0.666667 0.666667 
0.666667 0.666667 0.666667 0.666667 0.666667 0.666667 
0.666667 0.666667 0.666667 0.666667 0.666667 0.666667 
0.666667 0.666667 0.666667 0.666667 0.666667 0.666667 
0.666667 0.666667 0.666667 0.666667 0.666667 0.666667 
0.666667 0.666667 0.666667 0.666667 0.666667 0.666667 
0.666667 0.666667 0.666667 0.666667 0.666667 0.666667 
0.666667 0.666667 0.666667 0.666667 0.666667 0.666667 
0.666667 0.666667 0.666667 0.666667 0.666667 0.666667 
0.666667 0.666667 0.666667 0.666667 0.666667 0.666667 
0.666667 0.666667 0.666667 0.666667 0.666667 0.666667 
0.666667 0.666667 0.666667 0.666667 0.666667 0.666667 
0.666667 0.666667 0.666667 0.666667 0.666667 0.666667 
0.666667 0.666667 0.666667 0.666667 0.666667 0.666667 
0.666667 0.666667 0.666667 0.666667 0.666667 0.666667 
0.666667 0.666667 0.666667 0.666667 0.666667 0.666667 
0.666667 0.666667 0.666667 0.666667 0.666667 0.666667 
0.666667 0.666667 0.666667 0.666667 0.666667 0.666667 
0.666667 0.666667 0.666667 0.666667 0.666667 0.666667 
0.666667 0.666667 0.666667 0.666667 0.666667 0.666667 
0.666667 0.666667 0.666667 0.666667 0.666667 0.666667 
0.666667 0.666667 0.666667 0.666667 0.666667 0.666667 
0.666667 0.666667 0.666667 0.666667 0.666667 0.666667 
0.666667 0.666667 0.666667 0.666667 0.666667 0.666667 
0.666667 0.666667 0.666667 0.666667 0.666667 0.666667 
0.666667 0.666667 0.666667 0.666667 0.666667 0.666667 
0.666667 0.666667 0.666667 0.666667 0.666667 0.666667 
0.666667 0.666667 0.666667 0.666667 0.666667 0.666667 
0.666667 0.666667 0.666667 0.666667 0.666667 0.666667 
0.666667 0.666667 0.666667 0.666667 0.666667 0.666667 
0.666667 0.666667 0.666667 0.666667 0.666667 0.666667 
0.666667 0.666667 0.666667 0.666667 0.666667 0.666667 
0.666667 0.666667 0.666667 0.666667 0.666667 0.666667 
0.666667 0.666667 0.666667 0.666667 0.666667 0.666667 
0.666667 0.666667 0.666667 0.666667 0.666667 0.666667 
0.666667 0.666667 0.666667 0.666667 0.666667 0.666667 
0.666667 0.666667 0.666667 0.666667 0.666667 0.666667 
0.666667 0.666667 0.666667 0.666667 0.666667 0.666667 
0.666667 0.666667 0.666667 0.666667 0.666667 0.666667 
0.666667 0.666667 0.666667 0.666667 0.666667 0.666667 
0.666667 0.666667 0.666667 0.666667 0.666667 0.666667 
0.666667 0.666667 0.666667 0.666667 0.666667 0.666667 
0.666667 0.666667 0.666667 0.666667 0.666667 0.666667 
0.666667 0.666667 0.666667 0.666667 0.666667 0.666667 
0.666667 0.666667 0.666667 0.666667 0.666667 0.666667 
0.666667 0.666667 0.666667 0.666667 0.666667 0.666667 
0.666667 0.666667 0.666667 0.666667 0.666667 0.666667 
0.666667 0.666667 0.666667 0.666667 0.666667 0.666667 
0.666667 0.666667 0.666667 0.666667 0.666667 0.666667 
0.666667 0.666667 0.666667 0.666667 0.666667 0.666667 
0.666667 0.666667 0.666667 0.666667 0.666667 0.666667 
0.666667 0.666667 0.666667 0.666667 0.666667 0.666667 
0.666667 0.666667 0.666667 0.666667 0.666667 0.666667 
0.666667 0.666667 0.666667 0.666667 0.666667 0.666667 
0.666667 0.666667 0.666667 0.666667 0.666667 0.666667 
0.666667 0.666667 0.666667 0.666667 0.666667 0.666667 
0.666667 0.666667 0.666667 0.666667 0.666667 0.666667 
0.666667 0.666667 0.666667 0.666667 0.666667 0.666667 
0.666667 0.666667 0.666667 0.666667 0.666667 0.666667 
0.666667 0.666667 0.666667 0.666667 0.666667 0.666667 
0.666667 0.666667 0.666667 0.666667 0.666667 0.666667 
0.666667 0.666667 0.666667 0.666667 0.666667 0.666667 
0.666667 0.666667 0.666667 0.666667 0.666667 0.666667 
0.666667 0.666667 0.666667 0.666667 0.666667 0.666667 
0.666667 0.666667 0.666667 0.666667 0.666667 0.666667 
0.666667 0.666667 0.666667 0.666667 0.666667 0.666667 
0.666667 0.666667 0.666667 0.666667 0.666667 0.666667 
0.666667 0.666667 0.666667 0.666667 0.666667 0.666667 
0.666667 0.666667 0.666667 0.666667 0.666667 0.666667 
0.666667 0.666667 0.666667 0.666667 0.666667 0.666667 
0.666667 0.666667 0.666667 0.666667 0.666667 0.666667 
0.666667 0.666667 0.666667 0.666667 0.666667 0.666667 
0.666667 0.666667 0.666667 0.666667 0.666667 0.666667 
0.666667 0.666667 0.666667 0.666667 0.666667 0.666667 
0.666667 0.666667 0.666667 0.666667 0.666667 0.666667 
0.666667 0.666667 0.666667 0.666667 0.666667 0.666667 
0.666667 0.666667 0.666667 0.666667 0.666667 0.666667 
0.666667 0.666667 0.666667 0.666667 0.666667 0.666667 
0.666667 0.666667 0.666667 0.666667 0.666667 0.666667 
0.666667 0.666667 0.666667 0.666667 0.666667 0.666667 
0.666667 0.666667 0.666667 0.666667 0.666667 0.666667 
0.666667 0.666667 0.666667 0.666667 0.666667 0.666667 
0.666667 0.666667 0.666667 0.666667 0.666667 0.666667 
0.666667 0.666667 0.666667 0.666667 0.666667 0.666667 
0.666667 0.666667 0.666667 0.666667 0.666667 0.666667 
0.666667 0.666667 0.666667 0.666667 0.666667 0.666667 
0.666667 0.666667 0.666667 0.666667 0.666667 0.666667 
0.666667 0.666667 0.666667 0.666667 0.666667 0.666667 
0.666667 0.666667 0.666667 0.666667 0.666667 0.666667 
0.666667 0.666667 0.666667 0.666667 0.666667 0.666667 
0.666667 0.666667 0.666667 0.666667 0.666667 0.666667 
0.666667 0.666667 0.666667 0.666667 0.666667 0.666667 
0.666667 0.666667 0.666667 0.666667 0.666667 0.666667 
0.666667 0.666667 0.666667 0.666667 0.666667 0.666667 
0.666667 0.666667 0.666667 0.666667 0.666667 0.666667 
0.666667 0.666667 0.666667 0.666667 0.666667 0.666667 
0.666667 0.666667 0.666667 0.666667 0.666667 0.666667 
0.666667 0.666667 0.666667 0.666667 0.666667 0.666667 
0.666667 0.666667 0.666667 0.666667 0.666667 0.666667 
0.666667 0.666667 0.666667 0.666667 0.666667 0.666667 
0.666667 0.666667 0.666667 0.666667 0.666667 0.666667 
0.666667 0.666667 0.666667 0.666667 0.666667 0.666667 
0.666667 0.666667 0.666667 0.666667 0.666667 0.666667 
0.666667 0.666667 0.666667 0.666667 0.666667 0.666667 
0.666667 0.666667 0.666667 0.666667 0.666667 0.666667 
0.666667 0.666667 0.666667 0.666667 0.666667 0.666667 
0.666667 0.666667 0.666667 0.666667 0.666667 0.666667 
0.666667 0.666667 0.666667 0.666667 0.666667 0.666667 
0.666667 0.666667 0.666667 0.666667 0.666667 0.666667 
0.666667 0.666667 0.666667 0.666667 0.666667 0.666667 
0.666667 0.666667 0.666667 0.666667 0.666667 0.666667 
0.666667 0.666667 0.666667 0.666667 0.666667 0.666667 
0.666667 0.666667 0.666667 0.666667 0.666667 0.666667 
0.666667 0.666667 0.666667 0.666667 0.666667 0.666667 
0.666667 0.666667 0.666667 0.666667 0.666667 0.666667 
0.666667 0.666667 0.666667 0.666667 0.666667 0.666667 
0.666667 0.666667 0.666667 0.666667 0.666667 0.666667 
0.666667 0.666667 0.666667 0.666667 0.666667 0.666667 
0.666667 0.666667 0.666667 0.666667 0.666667 0.666667 
0.666667 0.666667 0.666667 0.666667 0.666667 0.666667 
0.666667 0.666667 0.666667 0.666667 0.666667 0.666667 
0.666667 0.666667 0.666667 0.666667 0.666667 0.666667 
0.666667 0.666667 0.666667 0.666667 0.666667 0.666667 
0.666667 0.666667 0.666667 0.666667 0.666667 0.666667 
0.666667 0.666667 0.666667 0.666667 0.666667 0.666667 
0.666667 0.666667 0.666667 0.666667 0.666667 0.666667 
0.666667 0.666667 0.666667 0.666667 0.666667 0.666667 
0.666667 0.666667 0.666667 0.666667 0.666667 0.666667 
0.666667 0.666667 0.666667 0.666667 0.666667 0.666667 
0.666667 0.666667 0.666667 0.666667 0.666667 0.666667 
0.666667 0.666667 0.666667 0.666667 0.666667 0.666667 
0.666667 0.666667 0.666667 0.666667 0.666667 0.666667 
0.666667 0.666667 0.666667 0.666667 0.666667 0.666667 
0.666667 0.666667 0.666667 0.666667 0.666667 0.666667 
0.666667 0.666667 0.666667 0.666667 0.666667 0.666667 
0.666667 0.666667 0.666667 0.666667 0.666667 0.666667 
0.666667 0.666667 0.666667 0.666667 0.666667 0.666667 
0.666667 0.666667 0.666667 0.666667 0.666667 0.666667 
0.666667 0.666667 0.666667 0.666667 0.666667 0.666667 
0.666667 0.666667 0.666667 0.666667 0.666667 0.666667 
0.666667 0.666667 0.666667 0.666667 0.666667 0.666667 
0.666667 0.666667 0.666667 0.666667 0.666667 0.666667 
0.666667 0.666667 0.666667 0.666667 0.666667 0.666667 
0.666667 0.666667 0.666667 0.666667 0.666667 0.666667 
0.666667 0.666667 0.666667 0.666667 0.666667 0.666667 
0.666667 0.666667 0.666667 0.666667 0.666667 0.666667 
0.666667 0.666667 0.666667 0.666667 0.666667 0.666667 
0.666667 0.666667 0.666667 0.666667 0.666667 0.666667 
0.666667 0.666667 0.666667 0.666667 0.666667 0.666667 
0.666667 0.666667 0.666667 0.666667 0.666667 0.666667 
0.666667 0.666667 0.666667 0.666667 0.666667 0.666667 
0.666667 0.666667 0.666667 0.666667 0.666667 0.666667 
0.666667 0.666667 0.666667 0.666667 0.666667 0.666667 
0.666667 0.666667 0.666667 0.666667 0.666667 0.666667 
0.666667 0.666667 0.666667 0.666667 0.666667 0.666667 
0.666667 0.666667 0.666667 0.666667 0.666667 0.666667 
0.666667 0.666667 0.666667 0.666667 0.666667 0.666667 
0.666667 0.666667 0.666667 0.666667 0.666667 0.666667 
0.666667 0.666667 0.666667 0.666667 0.666667 0.666667 
0.666667 0.666667 0.666667 0.666667 0.666667 0.666667 
0.666667 0.666667 0.666667 0.666667 0.666667 0.666667 
0.666667 0.666667 0.666667 0.666667 0.666667 0.666667 