# vtk DataFile Version 4.2
vtk output
ASCII
DATASET POLYDATA
POINTS 233 float
370.244 171.727 219.535 371.475 171.328 219.803 372.291 171.427 220.183 
368.403 173.463 219.335 365.565 173.972 219.427 371.591 173.247 220.34 
365.807 175.563 219.271 366.47 175.346 219.293 368.565 174.772 219.568 
364.463 177.564 219.263 364.608 178.92 219.434 361.461 181.56 219.094 
358.863 182.626 219.206 357.12 184.69 219.412 358.752 184.504 219.102 
356.874 186.182 219.393 361.157 185.603 219.615 357.908 186.804 219.331 
355.737 187.112 219.78 356.485 187.631 219.639 358.158 188.182 219.784 
356.452 188.558 220.07 357.792 188.543 219.945 373.016 168.487 220.954 
371.195 169.811 220.015 373.222 168.871 220.919 373.529 169.118 221.086 
364.372 173.406 219.906 372.584 172.246 220.685 362.399 175.328 219.892 
369.825 175.676 220.473 358.705 179.325 219.973 365.958 180.079 220.337 
365.256 181.836 220.716 356.713 182.67 219.929 355.795 183.93 220.127 
363.262 184.709 220.429 354.723 187.55 220.688 355.024 188.572 220.772 
355.361 188.896 220.717 355.098 188.949 220.949 359.908 188.845 220.698 
374.246 167.607 221.971 374.061 166.976 222.129 368.428 168.364 221.001 
374.022 169.078 221.534 365.418 169.871 221.22 374.062 169.803 221.571 
374.266 170.061 221.868 373.467 171.991 221.707 360.558 174.936 220.949 
369.694 176.739 221.39 357.294 178.39 221.138 356.503 179.247 221.27 
364.524 183.634 221.081 353.864 184.846 221.79 362.807 186.439 221.14 
354.268 188.731 221.774 361.097 189.068 221.639 355.12 190.02 222.055 
357.89 190.62 221.822 370.987 166.127 222.226 373.596 166.5 222.166 
374.92 168.057 222.626 374.979 168.619 222.69 375.119 168.848 223.004 
363.405 170.482 222.286 374.268 170.446 222.066 357.421 176.53 222.329 
366.753 180.79 221.726 353.562 188.298 222.883 354.252 189.059 222.143 
354.819 189.921 222.348 356.37 190.937 222.576 358.474 190.985 222.663 
373.684 165.206 223.328 369.658 165.235 223.692 374.253 165.257 223.574 
374.667 165.908 223.323 374.776 165.73 223.656 375.178 166.969 223.567 
373.037 173.205 222.627 356.81 176.191 223.503 369.626 177.634 223.019 
352.853 187.057 223.763 363.628 186.659 222.823 354.242 189.588 223.303 
360.225 190.206 222.721 356.758 191.325 223.503 372.82 164.682 223.695 
374.286 164.969 223.969 374.448 164.957 224.243 367.235 165.909 224.257 
364.383 167.838 224.636 374.286 171.326 223.787 353.691 181.085 223.955 
356.581 191.321 223.939 357.592 191.361 223.682 373.918 164.322 224.802 
373.795 164.189 225.03 369.819 164.403 225.001 374.694 165.217 224.345 
367.498 165.227 225.7 375.294 166.604 224.69 375.39 168.812 224.676 
369.226 178.518 225.283 363.245 187.649 224.536 354.785 190.338 224.598 
355.982 191.132 224.469 358.875 191.007 224.937 372.6 163.762 225.715 
373.756 164.133 225.413 374.063 164.33 225.636 374.71 165.148 225.652 
375.003 169.884 225.558 356.124 175.905 226.247 353.319 181.349 225.908 
353.72 189.064 225.703 370.554 163.677 226.952 375.256 166.64 226.595 
356.188 190.647 227.157 366.309 165.599 227.788 363.853 167.71 227.351 
367.794 180.602 227.768 352.948 186.257 227.709 354.824 189.892 228.029 
356.763 190.764 228.117 370.266 163.834 229.153 373.674 164.018 228.633 
372.059 163.781 229.773 373.374 163.964 229.546 374.678 165.017 229.952 
375.005 165.454 229.937 375.148 165.746 229.759 365.718 166.465 230.03 
367.294 181.436 230.36 352.995 186.871 230.635 359.324 190.803 229.684 
369.584 164.431 230.549 374.624 165.091 230.513 374.918 165.429 230.366 
375.192 166.491 230.982 375.36 167.667 231.301 372.97 173.445 230.719 
356.056 176.773 231.051 369.572 178.003 231.072 352.978 184.324 230.785 
352.857 187.187 231.666 352.903 187.471 231.727 353 187.688 231.497 
353.253 188.12 231.451 354.734 190.181 231.702 358.283 191.268 231.384 
371.079 164.419 231.178 373.968 164.717 230.892 374.369 165.046 230.928 
374.885 166.008 231.284 365.689 167.283 231.602 375.18 169.333 231.521 
357.567 175.289 231.818 353.682 181.478 231.513 352.959 186.889 232.124 
352.89 187.212 231.931 352.957 187.494 231.988 359.937 190.585 231.329 
355.984 191.127 232.285 356.494 191.269 232.137 357.625 191.328 231.931 
373.876 165.67 232.367 371.064 165.795 232.872 375.156 168.674 232.233 
375.115 169.1 232.193 371.786 174.918 232.328 369.878 177.352 232.358 
367.058 181.478 232.175 353.34 187.562 232.691 360.293 190.262 232.161 
355.613 190.866 232.906 357.419 191.273 232.377 373.188 166.21 233.103 
374.088 166.749 233.078 374.731 167.335 232.683 367.193 167.736 233.278 
373.243 172.2 233.551 359.913 173.875 232.982 358.921 174.76 232.879 
370.664 175.878 233.349 369.759 176.961 233.416 355.192 179.673 232.89 
353.618 184.424 232.978 364.759 184.535 233.064 364.689 184.341 233.407 
363.498 186.261 233.355 353.904 188.346 233.504 354.239 189.124 233.422 
355.856 190.948 233.072 356.007 190.853 233.319 359.234 190.291 233.389 
372.06 173.122 234.39 368.831 176.987 234.555 366.44 180.538 234.358 
354.503 184.367 234.069 363.526 184.456 234.693 354.314 187.636 234.275 
357.59 190.069 234.382 357.1 190.806 233.492 372.386 168.47 234.72 
369.648 169.029 235.053 371.399 169.06 235.12 363.655 174.158 235.321 
370.383 174.713 234.858 370.676 173.692 235.163 369.288 175.581 235.084 
366.833 177.909 235.366 364.762 180.903 235.394 357.06 183.991 235.677 
355.31 186.929 235.058 360.684 187.34 235.158 355.488 189.54 234.421 
358.332 188.883 235.154 359.234 189.09 234.781 372.93 169.349 234.764 
371.115 170.431 235.483 370.432 172.508 235.539 367.914 173.96 235.824 
368.172 175.454 235.572 362.535 178.806 236.079 363.765 179.005 236.032 
358.751 183.717 236.07 361.363 183.384 236.009 358.176 186.085 235.951 
360.307 185.235 235.939 357.097 187.749 235.57 
POLYGONS 462 1848
3 2 1 0 
3 2 0 5 
3 5 0 3 
3 5 28 2 
3 3 4 7 
3 30 5 3 
3 7 4 6 
3 3 7 8 
3 30 3 8 
3 8 7 6 
3 8 6 9 
3 11 9 6 
3 10 9 11 
3 9 30 8 
3 32 9 10 
3 30 9 32 
3 33 10 11 
3 33 32 10 
3 33 11 16 
3 11 12 16 
3 12 14 16 
3 13 15 17 
3 14 13 17 
3 16 14 17 
3 17 15 18 
3 17 18 19 
3 20 17 19 
3 16 17 41 
3 41 17 20 
3 18 21 19 
3 22 19 21 
3 20 19 22 
3 25 23 24 
3 1 24 0 
3 25 24 1 
3 47 25 1 
3 47 26 25 
3 0 24 3 
3 2 47 1 
3 49 47 2 
3 28 49 2 
3 4 46 27 
3 3 46 4 
3 6 27 29 
3 4 27 6 
3 28 5 30 
3 29 31 6 
3 6 31 11 
3 31 53 12 
3 11 31 12 
3 53 34 14 
3 12 53 14 
3 14 35 13 
3 14 34 35 
3 36 54 16 
3 35 15 13 
3 15 35 37 
3 18 15 37 
3 41 56 16 
3 39 37 38 
3 18 37 39 
3 18 39 21 
3 22 41 20 
3 40 39 38 
3 73 39 40 
3 21 39 73 
3 22 21 73 
3 41 22 60 
3 44 23 61 
3 23 42 62 
3 62 42 43 
3 23 44 24 
3 26 23 25 
3 26 45 23 
3 45 42 23 
3 44 46 3 
3 24 44 3 
3 26 47 45 
3 47 48 45 
3 47 67 48 
3 47 49 67 
3 27 66 29 
3 49 28 30 
3 66 50 29 
3 31 29 68 
3 29 50 68 
3 68 52 31 
3 31 52 53 
3 30 32 51 
3 32 33 69 
3 34 55 35 
3 34 53 55 
3 33 16 54 
3 35 55 37 
3 54 36 85 
3 36 16 56 
3 56 85 36 
3 37 55 57 
3 58 56 41 
3 57 40 37 
3 37 40 38 
3 40 57 59 
3 59 73 40 
3 73 60 22 
3 41 60 87 
3 58 41 87 
3 62 61 23 
3 42 63 43 
3 46 44 93 
3 63 45 64 
3 42 45 63 
3 64 65 63 
3 46 93 66 
3 64 45 65 
3 45 48 65 
3 46 66 27 
3 49 30 81 
3 66 68 50 
3 51 81 30 
3 52 95 53 
3 32 69 51 
3 33 123 69 
3 85 33 54 
3 55 70 57 
3 71 57 70 
3 71 70 72 
3 59 71 72 
3 59 57 71 
3 87 60 74 
3 60 73 88 
3 89 75 90 
3 76 61 89 
3 61 62 89 
3 62 75 89 
3 77 90 75 
3 77 75 78 
3 78 75 62 
3 76 92 61 
3 93 44 92 
3 62 43 78 
3 78 43 80 
3 61 92 44 
3 43 63 80 
3 80 63 65 
3 65 94 104 
3 65 48 94 
3 94 48 67 
3 66 122 82 
3 67 49 94 
3 94 49 81 
3 66 82 68 
3 82 52 68 
3 52 82 95 
3 83 51 123 
3 95 55 53 
3 69 123 51 
3 33 85 123 
3 55 124 84 
3 84 70 55 
3 106 85 56 
3 56 58 106 
3 72 70 86 
3 87 106 58 
3 72 86 73 
3 59 72 73 
3 74 60 97 
3 60 88 97 
3 90 98 89 
3 98 90 91 
3 92 76 102 
3 102 76 100 
3 100 76 89 
3 90 101 91 
3 90 77 101 
3 77 78 101 
3 101 78 79 
3 79 78 103 
3 78 80 103 
3 105 51 83 
3 84 86 70 
3 73 86 107 
3 108 73 107 
3 88 73 96 
3 73 108 96 
3 88 96 97 
3 118 89 110 
3 99 110 89 
3 98 99 89 
3 92 102 121 
3 89 118 100 
3 101 79 103 
3 92 121 93 
3 80 65 103 
3 122 66 93 
3 103 65 104 
3 104 94 114 
3 81 51 105 
3 116 95 82 
3 83 123 105 
3 84 124 117 
3 117 86 84 
3 86 117 107 
3 109 87 74 
3 74 97 109 
3 99 111 110 
3 111 99 98 
3 112 111 98 
3 100 118 102 
3 113 98 91 
3 113 112 98 
3 91 101 113 
3 121 102 138 
3 113 101 103 
3 93 121 122 
3 82 122 115 
3 94 81 114 
3 143 81 105 
3 115 116 82 
3 55 95 124 
3 108 107 117 
3 97 96 108 
3 110 111 112 
3 128 110 112 
3 128 112 119 
3 113 119 112 
3 103 119 113 
3 103 104 114 
3 81 143 114 
3 87 137 192 
3 106 87 192 
3 117 125 108 
3 125 120 108 
3 97 108 120 
3 109 97 120 
3 87 109 137 
3 110 129 118 
3 118 138 102 
3 103 114 158 
3 143 158 114 
3 95 116 124 
3 85 192 123 
3 106 192 85 
3 150 125 117 
3 109 120 126 
3 120 125 126 
3 109 126 137 
3 129 127 118 
3 130 129 110 
3 128 130 110 
3 121 138 134 
3 118 127 138 
3 128 119 133 
3 119 103 158 
3 158 133 119 
3 122 184 115 
3 115 159 144 
3 184 159 115 
3 116 115 160 
3 174 105 123 
3 123 135 174 
3 160 124 116 
3 136 124 146 
3 150 124 136 
3 124 150 117 
3 126 125 165 
3 166 126 165 
3 137 126 166 
3 132 131 133 
3 131 128 133 
3 122 121 134 
3 158 142 133 
3 133 142 141 
3 143 105 186 
3 105 145 186 
3 144 160 115 
3 160 146 124 
3 123 192 135 
3 192 137 164 
3 137 166 152 
3 153 138 127 
3 129 153 127 
3 128 131 154 
3 154 131 139 
3 131 140 139 
3 132 140 131 
3 140 132 133 
3 134 157 122 
3 105 174 145 
3 148 136 147 
3 149 136 148 
3 149 150 136 
3 125 150 151 
3 125 151 165 
3 167 152 166 
3 152 164 137 
3 130 128 154 
3 129 130 154 
3 155 154 139 
3 139 140 155 
3 156 140 133 
3 133 141 156 
3 156 141 142 
3 142 158 171 
3 142 171 170 
3 184 122 157 
3 186 172 143 
3 144 188 160 
3 186 145 173 
3 160 189 146 
3 190 135 192 
3 136 146 161 
3 147 161 162 
3 147 162 148 
3 148 162 163 
3 136 161 147 
3 149 148 163 
3 163 150 149 
3 150 193 151 
3 176 192 164 
3 177 165 151 
3 167 166 178 
3 129 154 168 
3 134 138 169 
3 138 153 169 
3 179 129 168 
3 179 169 129 
3 169 153 129 
3 155 140 156 
3 155 156 154 
3 154 156 168 
3 168 156 180 
3 157 134 182 
3 169 182 134 
3 156 181 180 
3 181 156 142 
3 181 142 170 
3 158 183 171 
3 158 143 183 
3 184 185 159 
3 172 183 143 
3 159 185 144 
3 187 173 145 
3 145 174 200 
3 135 191 174 
3 189 161 146 
3 161 163 162 
3 175 163 161 
3 163 175 150 
3 175 193 150 
3 151 193 194 
3 194 177 151 
3 176 164 197 
3 197 164 152 
3 165 177 195 
3 166 165 178 
3 167 178 152 
3 180 179 168 
3 207 182 169 
3 179 207 169 
3 171 183 170 
3 144 185 188 
3 186 173 187 
3 145 200 187 
3 190 191 135 
3 161 193 175 
3 192 176 197 
3 178 165 205 
3 165 195 205 
3 179 180 221 
3 209 182 207 
3 181 170 221 
3 180 181 221 
3 157 182 209 
3 170 183 221 
3 184 157 209 
3 172 198 183 
3 185 184 209 
3 186 210 211 
3 198 186 211 
3 198 172 186 
3 186 212 210 
3 188 185 209 
3 187 199 212 
3 186 187 212 
3 199 187 213 
3 213 187 200 
3 188 201 160 
3 200 191 214 
3 200 174 191 
3 160 201 189 
3 202 214 191 
3 189 201 161 
3 161 201 203 
3 203 201 215 
3 191 190 202 
3 202 190 192 
3 161 203 193 
3 194 193 203 
3 220 217 192 
3 194 196 177 
3 196 204 205 
3 204 219 197 
3 219 220 197 
3 192 197 220 
3 177 196 195 
3 152 205 204 
3 197 152 204 
3 205 195 196 
3 152 178 205 
3 207 179 208 
3 208 179 206 
3 179 221 206 
3 221 208 206 
3 221 183 198 
3 198 211 221 
3 199 213 225 
3 199 225 212 
3 226 228 209 
3 228 188 209 
3 200 214 213 
3 201 188 215 
3 215 188 228 
3 215 216 203 
3 194 232 218 
3 194 203 232 
3 194 218 196 
3 218 232 196 
3 208 222 207 
3 222 208 221 
3 207 224 209 
3 222 224 207 
3 222 223 224 
3 221 223 222 
3 221 211 223 
3 210 223 211 
3 223 212 224 
3 212 225 224 
3 223 210 212 
3 224 227 209 
3 225 213 224 
3 227 226 209 
3 213 214 224 
3 224 214 227 
3 214 226 227 
3 214 228 226 
3 214 229 228 
3 214 202 229 
3 228 230 215 
3 231 230 228 
3 229 231 228 
3 202 192 229 
3 215 232 216 
3 230 232 215 
3 229 192 231 
3 192 217 231 
3 231 217 230 
3 216 232 203 
3 230 219 232 
3 230 220 219 
3 217 220 230 
3 204 196 232 
3 219 204 232 

POINT_DATA 233
COLOR_SCALARS scalars 3
1 0.65098 1 1 0.65098 1 1 0.65098 1 
1 0.65098 1 1 0.65098 1 
1 0.65098 1 1 0.65098 1 
1 0.65098 1 1 0.65098 1 
1 0.65098 1 1 0.65098 1 
1 0.65098 1 1 0.65098 1 
1 0.65098 1 1 0.65098 1 
1 0.65098 1 1 0.65098 1 
1 0.65098 1 1 0.65098 1 
1 0.65098 1 1 0.65098 1 
1 0.65098 1 1 0.65098 1 
1 0.65098 1 1 0.65098 1 
1 0.65098 1 1 0.65098 1 
1 0.65098 1 1 0.65098 1 
1 0.65098 1 1 0.65098 1 
1 0.65098 1 1 0.65098 1 
1 0.65098 1 1 0.65098 1 
1 0.65098 1 1 0.65098 1 
1 0.65098 1 1 0.65098 1 
1 0.65098 1 1 0.65098 1 
1 0.65098 1 1 0.65098 1 
1 0.65098 1 1 0.65098 1 
1 0.65098 1 1 0.65098 1 
1 0.65098 1 1 0.65098 1 
1 0.65098 1 1 0.65098 1 
1 0.65098 1 1 0.65098 1 
1 0.65098 1 1 0.65098 1 
1 0.65098 1 1 0.65098 1 
1 0.65098 1 1 0.65098 1 
1 0.65098 1 1 0.65098 1 
1 0.65098 1 1 0.65098 1 
1 0.65098 1 1 0.65098 1 
1 0.65098 1 1 0.65098 1 
1 0.65098 1 1 0.65098 1 
1 0.65098 1 1 0.65098 1 
1 0.65098 1 1 0.65098 1 
1 0.65098 1 1 0.65098 1 
1 0.65098 1 1 0.65098 1 
1 0.65098 1 1 0.65098 1 
1 0.65098 1 1 0.65098 1 
1 0.65098 1 1 0.65098 1 
1 0.65098 1 1 0.65098 1 
1 0.65098 1 1 0.65098 1 
1 0.65098 1 1 0.65098 1 
1 0.65098 1 1 0.65098 1 
1 0.65098 1 1 0.65098 1 
1 0.65098 1 1 0.65098 1 
1 0.65098 1 1 0.65098 1 
1 0.65098 1 1 0.65098 1 
1 0.65098 1 1 0.65098 1 
1 0.65098 1 1 0.65098 1 
1 0.65098 1 1 0.65098 1 
1 0.65098 1 1 0.65098 1 
1 0.65098 1 1 0.65098 1 
1 0.65098 1 1 0.65098 1 
1 0.65098 1 1 0.65098 1 
1 0.65098 1 1 0.65098 1 
1 0.65098 1 1 0.65098 1 
1 0.65098 1 1 0.65098 1 
1 0.65098 1 1 0.65098 1 
1 0.65098 1 1 0.65098 1 
1 0.65098 1 1 0.65098 1 
1 0.65098 1 1 0.65098 1 
1 0.65098 1 1 0.65098 1 
1 0.65098 1 1 0.65098 1 
1 0.65098 1 1 0.65098 1 
1 0.65098 1 1 0.65098 1 
1 0.65098 1 1 0.65098 1 
1 0.65098 1 1 0.65098 1 
1 0.65098 1 1 0.65098 1 
1 0.65098 1 1 0.65098 1 
1 0.65098 1 1 0.65098 1 
1 0.65098 1 1 0.65098 1 
1 0.65098 1 1 0.65098 1 
1 0.65098 1 1 0.65098 1 
1 0.65098 1 1 0.65098 1 
1 0.65098 1 1 0.65098 1 
1 0.65098 1 1 0.65098 1 
1 0.65098 1 1 0.65098 1 
1 0.65098 1 1 0.65098 1 
1 0.65098 1 1 0.65098 1 
1 0.65098 1 1 0.65098 1 
1 0.65098 1 1 0.65098 1 
1 0.65098 1 1 0.65098 1 
1 0.65098 1 1 0.65098 1 
1 0.65098 1 1 0.65098 1 
1 0.65098 1 1 0.65098 1 
1 0.65098 1 1 0.65098 1 
1 0.65098 1 1 0.65098 1 
1 0.65098 1 1 0.65098 1 
1 0.65098 1 1 0.65098 1 
1 0.65098 1 1 0.65098 1 
1 0.65098 1 1 0.65098 1 
1 0.65098 1 1 0.65098 1 
1 0.65098 1 1 0.65098 1 
1 0.65098 1 1 0.65098 1 
1 0.65098 1 1 0.65098 1 
1 0.65098 1 1 0.65098 1 
1 0.65098 1 1 0.65098 1 
1 0.65098 1 1 0.65098 1 
1 0.65098 1 1 0.65098 1 
1 0.65098 1 1 0.65098 1 
1 0.65098 1 1 0.65098 1 
1 0.65098 1 1 0.65098 1 
1 0.65098 1 1 0.65098 1 
1 0.65098 1 1 0.65098 1 
1 0.65098 1 1 0.65098 1 
1 0.65098 1 1 0.65098 1 
1 0.65098 1 1 0.65098 1 
1 0.65098 1 1 0.65098 1 
1 0.65098 1 1 0.65098 1 
1 0.65098 1 1 0.65098 1 
1 0.65098 1 1 0.65098 1 
1 0.65098 1 1 0.65098 1 
1 0.65098 1 1 0.65098 1 
1 0.65098 1 1 0.65098 1 

NORMALS Normals float
0.192382 0.0814877 -0.977931 0.383565 -0.0235919 -0.923212 0.547199 0.180554 -0.817297 
0.067766 -0.081837 -0.994339 -0.138752 -0.201939 -0.96952 0.455472 0.31399 -0.83304 
-0.00472692 0.0818395 -0.996634 0.117273 0.231844 -0.965658 0.315854 0.334082 -0.888046 
0.319464 0.192182 -0.927906 0.353527 0.199119 -0.913986 0.155559 0.0874908 -0.983944 
-0.208245 -0.0814588 -0.974679 -0.22674 -0.132767 -0.964864 -0.149159 -0.124473 -0.980947 
-0.402159 -0.122264 -0.90737 0.316996 0.202292 -0.926602 0.0155692 0.167055 -0.985825 
-0.442029 0.112815 -0.889878 -0.154967 0.306246 -0.939254 0.134149 0.37818 -0.915961 
-0.231385 0.532577 -0.814139 -0.00429953 0.579216 -0.815163 0.343089 -0.409089 -0.845539 
0.0683995 -0.313177 -0.947229 0.409061 -0.0465352 -0.91132 0.555017 -0.0492564 -0.830379 
-0.344263 -0.30884 -0.886623 0.700703 0.377013 -0.605703 -0.357024 -0.314755 -0.879467 
0.579119 0.429362 -0.693014 -0.327143 -0.286144 -0.900611 0.534438 0.354991 -0.767044 
0.638862 0.433978 -0.635231 -0.454861 -0.291485 -0.841509 -0.496232 -0.196427 -0.845677 
0.614224 0.291323 -0.733389 -0.719506 0.056902 -0.692151 -0.649355 0.328617 -0.68582 
-0.410378 0.465045 -0.784426 -0.606517 0.530101 -0.592562 0.335416 0.547717 -0.766487 
0.55802 -0.268105 -0.785324 0.620803 -0.36098 -0.695915 -0.235504 -0.548935 -0.802002 
0.736425 -0.0451647 -0.675009 -0.332919 -0.505832 -0.795801 0.609535 0.163274 -0.775764 
0.875299 0.156685 -0.457496 0.796622 0.377188 -0.472358 -0.470403 -0.401515 -0.785816 
0.769307 0.528676 -0.358703 -0.625236 -0.468305 -0.624316 -0.565004 -0.314647 -0.762737 
0.663818 0.282776 -0.692375 -0.850787 -0.138749 -0.506864 0.613068 0.535723 -0.580645 
-0.786847 0.336898 -0.517079 0.595796 0.654128 -0.465987 -0.561488 0.655808 -0.504627 
0.0962853 0.829643 -0.549929 -0.110888 -0.644724 -0.75633 0.257081 -0.532224 -0.806627 
0.828951 -0.155603 -0.537241 0.845064 0.0698344 -0.530085 0.938827 0.108473 -0.32686 
-0.58445 -0.565795 -0.581631 0.863904 0.273669 -0.422817 -0.549559 -0.45575 -0.700198 
0.71058 0.598785 -0.369502 -0.866955 0.369534 -0.334414 -0.753939 0.523735 -0.396582 
-0.684556 0.682327 -0.256541 -0.36361 0.831184 -0.42062 0.272175 0.919326 -0.284182 
0.29553 -0.679171 -0.671855 -0.277594 -0.799544 -0.532608 0.541653 -0.620617 -0.566963 
0.653301 -0.497587 -0.570618 0.805104 -0.452533 -0.383434 0.900323 -0.209952 -0.381233 
0.804437 0.57129 -0.162819 -0.754382 -0.549511 -0.35909 0.86578 0.485224 -0.122403 
-0.96731 0.213707 -0.13653 0.820585 0.508151 -0.261576 -0.762659 0.635171 -0.122101 
0.518555 0.820826 -0.239469 -0.117093 0.96326 -0.241702 0.0368744 -0.84069 -0.54026 
0.486967 -0.718664 -0.496371 0.704301 -0.671485 -0.230365 -0.459339 -0.748803 -0.47781 
-0.594374 -0.69864 -0.398273 0.917843 0.384087 -0.100209 -0.882798 -0.334838 -0.329471 
-0.22947 0.973264 0.00999938 0.0524995 0.99862 -0.00137838 0.564997 -0.788904 -0.24168 
0.323251 -0.910426 -0.258135 -0.254929 -0.888794 -0.380864 0.758575 -0.572579 -0.310994 
-0.436022 -0.876742 -0.202999 0.984303 -0.166194 -0.0593921 0.984599 0.173705 0.0197754 
0.875285 0.483315 0.0168211 0.735521 0.662017 -0.144021 -0.621975 0.783036 -0.00154195 
-0.378033 0.915872 0.135164 0.18732 0.982193 0.0144488 0.165334 -0.982503 -0.0857415 
0.499038 -0.866468 0.0139096 0.646067 -0.756924 0.0983017 0.826546 -0.561243 0.0427525 
0.928304 0.358062 0.100217 -0.781704 -0.623649 0.000119363 -0.943917 -0.319571 -0.0830326 
-0.807625 0.585337 0.0715765 -0.276938 -0.952144 -0.129335 0.931656 -0.353622 0.0834721 
-0.192834 0.970653 0.143694 -0.561725 -0.825668 -0.0523178 -0.735191 -0.677802 -0.00891612 
0.77707 0.620272 -0.106889 -0.998674 -0.000567463 -0.0514719 -0.573615 0.818862 0.0207503 
-0.213984 0.975855 -0.0438035 -0.275813 -0.944386 0.179062 0.63701 -0.770838 0.00518779 
0.0874206 -0.927799 0.362693 0.300583 -0.940784 0.156765 0.73227 -0.680793 0.017346 
0.852625 -0.522327 -0.0142893 0.94313 -0.330824 -0.0325657 -0.507804 -0.775504 0.375138 
0.860605 0.492368 0.130128 -0.986095 0.107976 -0.126328 0.355009 0.92958 -0.099244 
-0.424738 -0.864167 0.26984 0.686995 -0.678866 0.259188 0.840093 -0.483891 0.24514 
0.925143 -0.280937 0.255312 0.981724 -0.0736562 0.175478 0.786491 0.61583 -0.0467541 
-0.788612 -0.504883 0.350976 0.776466 0.604146 0.179188 -0.989696 -0.11856 0.0802861 
-0.999181 -0.0395279 0.00867919 -0.966325 0.257252 0.00616452 -0.896473 0.433778 -0.0904044 
-0.867394 0.495325 0.0477653 -0.760927 0.648048 0.0319833 0.254535 0.953604 0.160782 
-0.0454743 -0.873786 0.484181 0.476016 -0.785692 0.395091 0.636388 -0.590966 0.495752 
0.779602 -0.434963 0.450587 -0.568371 -0.65873 0.492979 0.975483 0.218044 0.029837 
-0.670105 -0.656534 0.346298 -0.918286 -0.320954 0.231819 -0.923148 -0.0532664 0.380737 
-0.969393 0.0764519 0.233306 -0.886062 0.354459 0.298753 0.561326 0.827053 0.0299425 
-0.325676 0.93997 0.101937 -0.109192 0.992978 -0.0455171 0.0587551 0.997035 0.0496976 
0.387638 -0.698967 0.600984 -0.116008 -0.733702 0.669495 0.858951 0.0500478 0.509607 
0.933171 0.196992 0.300641 0.708956 0.7015 0.0726566 0.683478 0.686804 0.247302 
0.853313 0.487262 0.185558 -0.857988 0.271441 0.436093 0.599896 0.767981 0.224344 
-0.604198 0.738229 0.299938 0.11454 0.934284 0.337629 0.160252 -0.610914 0.775308 
0.563271 -0.440293 0.699191 0.808533 -0.224851 0.543798 -0.357973 -0.671189 0.649123 
0.815797 0.379418 0.436483 -0.609365 -0.66115 0.437669 -0.589329 -0.460344 0.663909 
0.749982 0.608091 0.260292 0.63336 0.616469 0.467784 -0.6014 -0.386362 0.699315 
-0.875058 -0.157532 0.457664 0.762871 0.514849 0.391098 0.733719 0.495089 0.465341 
0.734756 0.596304 0.32335 -0.869806 0.297773 0.393406 -0.698135 0.471772 0.538552 
-0.257718 0.90074 0.349642 -0.308019 0.698699 0.645712 0.355556 0.800086 0.483158 
0.67816 0.42385 0.600375 0.525521 0.508207 0.682315 0.687174 0.464383 0.558696 
-0.720724 -0.169955 0.672066 0.538641 0.483801 0.689784 -0.664859 0.116144 0.737884 
0.0624884 0.725512 0.685367 0.137129 0.890705 0.433406 0.264455 -0.40243 0.876421 
-0.123702 -0.418517 0.899745 0.0905075 -0.378879 0.92101 -0.327915 -0.337898 0.882211 
0.498126 0.412523 0.76269 0.522177 0.33287 0.785193 0.486765 0.377911 0.787555 
0.446044 0.379511 0.810566 0.337433 0.240513 0.910106 -0.424649 -0.152969 0.892342 
-0.497921 0.0363267 0.866461 0.37754 0.376151 0.846152 -0.417564 0.459811 0.783718 
0.141579 0.500694 0.853968 0.365713 0.53655 0.760505 0.535117 -0.048987 0.843356 
0.136881 -0.107468 0.984741 0.290211 0.187673 0.93838 0.121594 0.0359066 0.99193 
0.334728 0.251946 0.908009 -0.0185943 0.0243156 0.999531 0.0485746 0.0562362 0.997235 
-0.130001 -0.124932 0.983611 0.239574 0.219623 0.945711 0.0267564 0.181471 0.983032 
0.271732 0.199668 0.941432 -0.264059 0.311494 0.912822 
