# vtk DataFile Version 4.2
vtk output
ASCII
DATASET POLYDATA
POINTS 21904 float
301.67 164.621 70.9586 300.807 171.836 70.5564 305.001 171.529 72.1534 
297.752 172.832 70.637 305.033 172.086 72.1993 297.314 174.48 71.0822 
303.286 174.282 71.3701 302.446 175.386 71.4692 304.618 174.75 72.104 
301.056 176.072 71.6319 303.235 176.791 72.0881 302.22 155.031 72.5101 
302.386 154.578 72.7388 302.862 155.76 72.7885 293.586 158.594 71.3549 
303.356 156.96 73.066 298.421 158.522 71.086 303.524 163.573 72.1291 
305.505 172.991 72.9038 305.093 175.238 72.6465 305.481 174.744 73.0615 
303.503 177.998 72.8311 286.389 179.058 72.2975 285.867 179.427 72.3432 
286.067 179.485 72.3821 285.93 179.586 72.3813 302.345 151.091 73.5893 
300.84 152.004 72.7798 302.756 151.543 73.7901 303.027 151.066 74.2171 
302.232 152.681 73.1769 303.349 153.986 73.9059 303.053 155.337 73.0876 
303.457 155.209 73.6929 304.423 163.627 73.2458 277.045 166.714 72.7686 
277.343 175.284 72.5091 305.799 175.077 73.7664 278.066 180.918 72.8371 
285.834 180.005 72.5879 285.923 179.7 72.4307 305.073 178.705 74.5091 
295.933 149.09 73.2843 302.64 148.953 74.5494 303.157 150.245 74.7311 
303.671 153.385 74.6384 304.455 160.003 74.0301 304.835 165.109 73.7662 
278.165 186.132 74.1308 301.307 144.791 75.3165 301.859 144.923 75.4603 
302.443 145.512 75.5768 301.386 147.656 74.3235 303.046 147.145 75.7763 
304.816 162.077 74.379 306.174 174.75 75.1629 301.805 143.358 76.0628 
302.415 142.796 76.5774 302.634 143.214 76.6025 302.706 144.661 76.2048 
303.247 146.579 76.4055 274.362 154.292 75.6496 304.168 154.208 76.1625 
304.676 158.471 75.2449 304.984 161.409 75.7758 306.189 173.091 75.8292 
304.473 180.743 75.7932 304.92 181.155 76.6093 304.689 181.455 76.6147 
305.362 180.789 77.0431 276.105 189.876 75.6753 302.877 140.931 77.7555 
302.685 141.938 77.1824 303.229 144.884 77.1737 304.114 153.392 76.9112 
304.896 160.497 76.8986 305.964 179.481 77.5012 274.453 192.29 77.0498 
273.42 193.531 77.5046 273.843 193.475 77.5619 302.716 139.199 77.9125 
302.636 139.199 77.905 302.731 139.262 77.9336 302.488 139.172 77.9703 
302.158 139.14 78.0236 301.5 138.735 78.4498 300.948 139.688 77.4402 
302.853 140.552 78.0936 303.655 148.568 77.6104 305.139 183.706 79.0162 
299.055 185.701 77.8237 270.863 195.393 78.2035 298.831 136.085 79.2575 
300.456 136.764 79.2887 300.708 136.549 79.7154 294.861 136.504 78.7903 
300.822 137.266 79.2548 300.928 137.118 79.6151 302.639 139.185 77.9745 
299.81 137.829 78.3666 300.942 137.804 78.9091 302.371 139.186 78.1553 
301.87 139.189 79.2559 302.571 140.733 79.1184 303.52 147.933 78.3227 
303.615 152.23 79.0306 303.961 154.877 78.5937 304.527 160.442 78.8613 
234.955 170.634 78.9111 305.659 183.123 79.76 304.326 184.865 78.995 
305.116 185.142 80.1744 307.004 187.013 79.0087 307.004 187.013 79.0087 
307.004 187.013 79.0087 307.004 187.013 79.0088 236.871 187.509 78.95 
307.004 187.013 79.0088 300.257 135.814 79.8756 300.212 135.66 80.0076 
300.326 135.759 80.0088 297.262 135.17 79.6249 298.381 134.772 80.1625 
299.439 135.147 80.3931 300.454 135.944 79.9367 300.496 136.142 79.7746 
301.417 138.46 79.9662 303.14 149.565 79.808 303.319 151.531 79.6562 
246.773 158.414 79.7188 306.188 176.664 79.4444 306.022 181.173 79.876 
304.861 186.055 80.4441 304.677 186.561 80.6049 307.004 187.013 79.0088 
307.004 188.013 80.0087 307.004 188.013 80.0087 307.004 188.013 80.0087 
307.004 188.013 80.0088 307.004 188.013 80.0088 271.439 197.503 79.8751 
272.004 197.786 80.4989 298.815 133.486 81.3365 298.686 133.447 81.3222 
298.864 133.556 81.3814 297.151 133.43 80.7783 298.23 133.095 81.5383 
299 133.999 81.1683 299.001 133.852 81.3736 299.019 134.315 80.9028 
299.868 135.551 80.9681 300.162 135.777 80.4294 300.405 135.911 80.1167 
305.883 183.135 80.9335 305.519 186.315 81.9424 303.786 187.834 80.9146 
307.004 188.013 80.0088 300.377 188.929 80.533 304.448 187.896 81.4552 
307.005 189.513 81.0109 307.004 189.513 81.0109 307.005 189.513 81.0108 
307.005 189.513 81.0109 307.004 189.513 81.0109 307.004 189.513 81.011 
307.005 189.513 81.0109 307.004 189.513 81.011 297.455 131.592 82.5165 
297.809 131.993 82.4501 298.078 132.53 82.2145 298.602 133.392 82.0501 
298.766 133.52 81.5632 302.077 148.694 81.5675 305.772 185.154 82.062 
305.043 188.168 82.3598 307.004 189.513 81.011 307.004 189.513 81.011 
307.004 192.604 82.8157 307.004 192.617 82.8221 307.004 192.612 82.8198 
307.004 192.614 82.8208 307.004 192.627 82.8275 307.003 192.647 82.8375 
307.004 192.634 82.8309 307.003 192.652 82.8399 272.026 198.545 81.4095 
294.665 129.254 83.0754 295.744 129.939 82.9102 296.484 129.719 83.6076 
297.122 130.676 83.4488 298.929 134.861 82.9239 299.389 135.617 82.4664 
300.883 152.985 83.3718 302.939 160.785 82.3736 305.865 184.314 82.9576 
304.203 189.883 82.8187 304.587 190.234 83.3945 305.033 190.234 84.0289 
307.004 192.607 82.8173 307.004 192.624 82.8258 307.003 192.641 82.8345 
307.003 192.645 82.8364 307.002 192.68 82.8541 307.002 192.681 82.8546 
307.003 192.679 82.8537 307.002 192.705 82.8667 307.002 192.714 82.8713 
307.002 192.705 82.8666 307.002 192.72 82.8739 264.42 204.664 83.6744 
294.348 127.29 84.2888 295.885 128.09 84.652 296.557 129.53 84.1625 
296.733 129.855 83.785 296.919 130.145 83.8268 297.452 131.396 83.6995 
299.54 141.504 83.9202 301.921 160.471 83.6983 304.604 191.576 84.4306 
307.003 192.653 82.8403 307.002 192.681 82.8546 307.002 192.707 82.8675 
307.002 192.71 82.8693 307.002 192.716 82.8719 307.002 192.723 82.8758 
260.749 204.952 83.4707 260.935 205.646 83.8741 262.609 206.525 84.71 
263.121 206.241 84.5158 263.068 206.388 84.6164 294.602 125.065 85.7352 
294.495 125.293 85.5231 294.793 125.104 85.9222 293.771 125.332 85.323 
294.962 125.985 85.4508 295.019 125.64 85.8104 295.056 126.733 85.0566 
288.543 127.125 84.7533 295.637 127.417 85.3067 296.98 130.984 84.8799 
307.002 192.721 82.8745 307 196.009 85.0174 307 196.009 85.0175 
307 196.009 85.0175 307 196.009 85.0175 307 196.009 85.0175 
261.332 206.431 84.4629 263.43 206.49 85.0609 260.501 207.319 85.141 
263.229 206.36 84.6942 261.234 207.581 85.4458 261.442 207.707 85.5987 
293.348 124.242 86.0789 295.729 127.672 85.973 295.986 128.629 85.9939 
296.194 129.613 86.0312 298.088 146.792 85.5054 305.264 192.453 86.2962 
307 196.009 85.0175 307.004 197.013 86.0087 307.004 197.013 86.0087 
307.004 197.013 86.0087 307.004 197.013 86.0088 307.004 197.013 86.0088 
262.203 207.636 85.9604 293.949 123.149 87.1724 293.821 123.143 87.1861 
294.001 123.224 87.194 293.577 123.322 87.0031 293.577 123.055 87.4522 
294.11 123.518 87.1192 294.421 124.159 86.9209 294.598 124.449 86.5331 
298.47 161.122 87.4407 305.125 184.418 87.7017 305.341 192.655 86.8734 
304.393 195.296 87.3372 304.845 194.784 87.3853 307.004 197.013 86.0088 
265.347 206.287 86.4916 293.08 122.794 87.7357 293.066 122.687 87.9678 
293.89 123.122 87.2702 293.265 122.854 87.9967 292.557 122.765 87.6805 
292.147 122.464 88.219 293.941 123.266 87.3731 294.128 123.673 87.4485 
303.714 174.321 88.0532 305.343 193.113 87.6252 305.253 193.794 87.8148 
304.631 195.808 88.275 304.851 195.566 88.0233 304.902 195.458 87.9225 
291.103 121.612 89.5798 293.002 122.654 88.1204 289.907 122.083 88.5358 
292.767 122.614 88.4959 305.117 194.533 88.8596 304.208 196.82 88.7947 
304.911 195.374 88.0066 304.636 196.767 89.4647 302.071 197.855 88.7013 
303.974 197.534 89.1755 304.444 197.337 89.3148 304.223 197.963 89.8068 
304.514 197.608 89.4486 304.497 197.714 89.4955 251.022 213.324 89.0929 
291.366 121.497 89.9319 291.363 121.427 90.0488 291.157 121.414 90.0962 
291.454 121.495 90.0149 290.498 121.249 90.1757 291.615 121.747 89.9252 
283.679 121.596 89.8285 292.634 122.854 89.7339 301.151 171.416 90.2744 
304.543 197.478 89.664 304.548 197.52 90.2708 302.982 198.618 89.7056 
304.498 197.696 89.5642 306.004 200.013 90.0087 306.004 200.013 90.0087 
306.004 200.013 90.0087 306.004 200.013 90.0088 306.004 200.013 90.0088 
290.435 121.068 90.7564 291.363 121.471 90.1554 290.578 121.092 91.0043 
291.098 121.466 90.6927 287.434 145.599 91.4924 304.94 194.501 90.5647 
306.004 200.013 90.0088 306.004 202.013 91.0087 306.004 202.013 91.0087 
306.004 202.013 91.0087 306.004 202.013 91.0088 306.004 202.013 91.0088 
287.033 119.645 91.7274 287.928 119.848 91.7501 290.601 121.139 91.304 
304.062 200.14 92.3372 306.004 202.013 91.0088 275.194 206.668 91.6053 
249.91 218.673 92.3638 251.203 217.894 92.5033 287.712 119.063 93.8067 
290.872 121.666 92.0069 291.287 123.478 92.7085 291.076 124.334 93.2111 
303.364 202.185 93.9901 257.36 213.956 92.7511 251.545 218.555 93.4857 
249.644 219.789 92.9975 249.542 220.374 93.5072 249.724 220.217 93.3078 
249.809 220.009 93.177 249.777 220.143 93.2421 286.411 118.07 94.3753 
284.528 117.639 94.0653 287.042 118.514 94.3027 288.798 120.043 94.3768 
289.475 120.559 93.5056 290.825 122.4 92.8786 288.951 130.596 94.2947 
200.411 184.461 93.7473 303.744 193.881 94.4606 302.839 203.385 94.5185 
251.729 218.697 93.8861 244.086 220.984 93.6347 250.165 219.962 93.5892 
249.861 220.101 93.3228 248.176 221.603 94.4227 249.119 221.161 94.1157 
283.634 116.853 95.1237 303.961 199.299 94.9163 301.791 204.999 95.3292 
217.41 217.009 95.0057 247.874 222.799 95.6283 284.073 116.602 95.7583 
285.084 116.768 96.3256 288.613 120.194 95.3528 288.789 120.667 95.4957 
287.148 129.365 96.4583 286.536 165.286 96.2416 302.505 205.756 96.4875 
250.133 221.436 96.1242 244.195 224.483 95.9405 288.744 121.026 95.8642 
285.606 129.623 98.2263 196.111 168.571 97.0259 286.887 169.484 97.4456 
294.796 173.462 97.1368 301.712 206.955 97.1222 302.833 205.905 97.1957 
254.178 218.451 96.0708 246.429 226.006 97.4509 246.104 226.416 97.4828 
280.674 114.575 98.2522 283.885 115.783 98.4146 286.644 128.241 97.8822 
284.388 130.398 98.9071 285.686 129.276 99.1475 285.374 129.838 99.256 
283.088 131.398 98.4582 299.619 184.024 98.0522 301.845 207.851 98.0723 
256.555 218.39 97.3586 218.59 221.923 97.3779 282.434 114.777 98.9779 
[...]
POINT_DATA 21904
COLOR_SCALARS scalars 3
0.596078 0.839216 0.976471 0.596078 0.839216 0.976471 0.596078 0.839216 0.976471 
0.596078 0.839216 0.976471 0.596078 0.839216 0.976471 
0.596078 0.839216 0.976471 0.596078 0.839216 0.976471 
0.596078 0.839216 0.976471 0.596078 0.839216 0.976471 
0.596078 0.839216 0.976471 0.596078 0.839216 0.976471 
0.596078 0.839216 0.976471 0.596078 0.839216 0.976471 
0.596078 0.839216 0.976471 0.596078 0.839216 0.976471 
0.596078 0.839216 0.976471 0.596078 0.839216 0.976471 
0.596078 0.839216 0.976471 0.596078 0.839216 0.976471 
0.596078 0.839216 0.976471 0.596078 0.839216 0.976471 
0.596078 0.839216 0.976471 0.596078 0.839216 0.976471 
0.596078 0.839216 0.976471 0.596078 0.839216 0.976471 
0.596078 0.839216 0.976471 0.596078 0.839216 0.976471 
0.596078 0.839216 0.976471 0.596078 0.839216 0.976471 
0.596078 0.839216 0.976471 0.596078 0.839216 0.976471 
0.596078 0.839216 0.976471 0.596078 0.839216 0.976471 
0.596078 0.839216 0.976471 0.596078 0.839216 0.976471 
0.596078 0.839216 0.976471 0.596078 0.839216 0.976471 
0.596078 0.839216 0.976471 0.596078 0.839216 0.976471 
0.596078 0.839216 0.976471 0.596078 0.839216 0.976471 
0.596078 0.839216 0.976471 0.596078 0.839216 0.976471 
0.596078 0.839216 0.976471 0.596078 0.839216 0.976471 
0.596078 0.839216 0.976471 0.596078 0.839216 0.976471 
0.596078 0.839216 0.976471 0.596078 0.839216 0.976471 
0.596078 0.839216 0.976471 0.596078 0.839216 0.976471 
0.596078 0.839216 0.976471 0.596078 0.839216 0.976471 
0.596078 0.839216 0.976471 0.596078 0.839216 0.976471 
0.596078 0.839216 0.976471 0.596078 0.839216 0.976471 
0.596078 0.839216 0.976471 0.596078 0.839216 0.976471 
0.596078 0.839216 0.976471 0.596078 0.839216 0.976471 
0.596078 0.839216 0.976471 0.596078 0.839216 0.976471 
0.596078 0.839216 0.976471 0.596078 0.839216 0.976471 
0.596078 0.839216 0.976471 0.596078 0.839216 0.976471 
0.596078 0.839216 0.976471 0.596078 0.839216 0.976471 
0.596078 0.839216 0.976471 0.596078 0.839216 0.976471 
0.596078 0.839216 0.976471 0.596078 0.839216 0.976471 
0.596078 0.839216 0.976471 0.596078 0.839216 0.976471 
0.596078 0.839216 0.976471 0.596078 0.839216 0.976471 
0.596078 0.839216 0.976471 0.596078 0.839216 0.976471 
0.596078 0.839216 0.976471 0.596078 0.839216 0.976471 
0.596078 0.839216 0.976471 0.596078 0.839216 0.976471 
0.596078 0.839216 0.976471 0.596078 0.839216 0.976471 
0.596078 0.839216 0.976471 0.596078 0.839216 0.976471 
0.596078 0.839216 0.976471 0.596078 0.839216 0.976471 
0.596078 0.839216 0.976471 0.596078 0.839216 0.976471 
0.596078 0.839216 0.976471 0.596078 0.839216 0.976471 
0.596078 0.839216 0.976471 0.596078 0.839216 0.976471 
0.596078 0.839216 0.976471 0.596078 0.839216 0.976471 
0.596078 0.839216 0.976471 0.596078 0.839216 0.976471 
0.596078 0.839216 0.976471 0.596078 0.839216 0.976471 
0.596078 0.839216 0.976471 0.596078 0.839216 0.976471 
0.596078 0.839216 0.976471 0.596078 0.839216 0.976471 
0.596078 0.839216 0.976471 0.596078 0.839216 0.976471 
0.596078 0.839216 0.976471 0.596078 0.839216 0.976471 
0.596078 0.839216 0.976471 0.596078 0.839216 0.976471 
0.596078 0.839216 0.976471 0.596078 0.839216 0.976471 
0.596078 0.839216 0.976471 0.596078 0.839216 0.976471 
0.596078 0.839216 0.976471 0.596078 0.839216 0.976471 
0.596078 0.839216 0.976471 0.596078 0.839216 0.976471 
0.596078 0.839216 0.976471 0.596078 0.839216 0.976471 
0.596078 0.839216 0.976471 0.596078 0.839216 0.976471 
0.596078 0.839216 0.976471 0.596078 0.839216 0.976471 
0.596078 0.839216 0.976471 0.596078 0.839216 0.976471 
0.596078 0.839216 0.976471 0.596078 0.839216 0.976471 
0.596078 0.839216 0.976471 0.596078 0.839216 0.976471 
0.596078 0.839216 0.976471 0.596078 0.839216 0.976471 
0.596078 0.839216 0.976471 0.596078 0.839216 0.976471 
0.596078 0.839216 0.976471 0.596078 0.839216 0.976471 
0.596078 0.839216 0.976471 0.596078 0.839216 0.976471 
0.596078 0.839216 0.976471 0.596078 0.839216 0.976471 
0.596078 0.839216 0.976471 0.596078 0.839216 0.976471 
0.596078 0.839216 0.976471 0.596078 0.839216 0.976471 
0.596078 0.839216 0.976471 0.596078 0.839216 0.976471 
0.596078 0.839216 0.976471 0.596078 0.839216 0.976471 
0.596078 0.839216 0.976471 0.596078 0.839216 0.976471 
0.596078 0.839216 0.976471 0.596078 0.839216 0.976471 
0.596078 0.839216 0.976471 0.596078 0.839216 0.976471 
0.596078 0.839216 0.976471 0.596078 0.839216 0.976471 
0.596078 0.839216 0.976471 0.596078 0.839216 0.976471 
0.596078 0.839216 0.976471 0.596078 0.839216 0.976471 
0.596078 0.839216 0.976471 0.596078 0.839216 0.976471 
0.596078 0.839216 0.976471 0.596078 0.839216 0.976471 
0.596078 0.839216 0.976471 0.596078 0.839216 0.976471 
0.596078 0.839216 0.976471 0.596078 0.839216 0.976471 
0.596078 0.839216 0.976471 0.596078 0.839216 0.976471 
0.596078 0.839216 0.976471 0.596078 0.839216 0.976471 
0.596078 0.839216 0.976471 0.596078 0.839216 0.976471 
0.596078 0.839216 0.976471 0.596078 0.839216 0.976471 
0.596078 0.839216 0.976471 0.596078 0.839216 0.976471 
0.596078 0.839216 0.976471 0.596078 0.839216 0.976471 
0.596078 0.839216 0.976471 0.596078 0.839216 0.976471 
0.596078 0.839216 0.976471 0.596078 0.839216 0.976471 
0.596078 0.839216 0.976471 0.596078 0.839216 0.976471 
0.596078 0.839216 0.976471 0.596078 0.839216 0.976471 
0.596078 0.839216 0.976471 0.596078 0.839216 0.976471 
0.596078 0.839216 0.976471 0.596078 0.839216 0.976471 
0.596078 0.839216 0.976471 0.596078 0.839216 0.976471 
0.596078 0.839216 0.976471 0.596078 0.839216 0.976471 
0.596078 0.839216 0.976471 0.596078 0.839216 0.976471 
0.596078 0.839216 0.976471 0.596078 0.839216 0.976471 
0.596078 0.839216 0.976471 0.596078 0.839216 0.976471 
0.596078 0.839216 0.976471 0.596078 0.839216 0.976471 
0.596078 0.839216 0.976471 0.596078 0.839216 0.976471 
0.596078 0.839216 0.976471 0.596078 0.839216 0.976471 
0.596078 0.839216 0.976471 0.596078 0.839216 0.976471 
0.596078 0.839216 0.976471 0.596078 0.839216 0.976471 
0.596078 0.839216 0.976471 0.596078 0.839216 0.976471 
0.596078 0.839216 0.976471 0.596078 0.839216 0.976471 
0.596078 0.839216 0.976471 0.596078 0.839216 0.976471 
0.596078 0.839216 0.976471 0.596078 0.839216 0.976471 
0.596078 0.839216 0.976471 0.596078 0.839216 0.976471 
0.596078 0.839216 0.976471 0.596078 0.839216 0.976471 
0.596078 0.839216 0.976471 0.596078 0.839216 0.976471 
0.596078 0.839216 0.976471 0.596078 0.839216 0.976471 
0.596078 0.839216 0.976471 0.596078 0.839216 0.976471 
0.596078 0.839216 0.976471 0.596078 0.839216 0.976471 
0.596078 0.839216 0.976471 0.596078 0.839216 0.976471 
0.596078 0.839216 0.976471 0.596078 0.839216 0.976471 
0.596078 0.839216 0.976471 0.596078 0.839216 0.976471 
0.596078 0.839216 0.976471 0.596078 0.839216 0.976471 
0.596078 0.839216 0.976471 0.596078 0.839216 0.976471 
0.596078 0.839216 0.976471 0.596078 0.839216 0.976471 
0.596078 0.839216 0.976471 0.596078 0.839216 0.976471 
0.596078 0.839216 0.976471 0.596078 0.839216 0.976471 
0.596078 0.839216 0.976471 0.596078 0.839216 0.976471 
0.596078 0.839216 0.976471 0.596078 0.839216 0.976471 
0.596078 0.839216 0.976471 0.596078 0.839216 0.976471 
0.596078 0.839216 0.976471 0.596078 0.839216 0.976471 
0.596078 0.839216 0.976471 0.596078 0.839216 0.976471 
0.596078 0.839216 0.976471 0.596078 0.839216 0.976471 
0.596078 0.839216 0.976471 0.596078 0.839216 0.976471 
0.596078 0.839216 0.976471 0.596078 0.839216 0.976471 
0.596078 0.839216 0.976471 0.596078 0.839216 0.976471 
0.596078 0.839216 0.976471 0.596078 0.839216 0.976471 
0.596078 0.839216 0.976471 0.596078 0.839216 0.976471 
0.596078 0.839216 0.976471 0.596078 0.839216 0.976471 
0.596078 0.839216 0.976471 0.596078 0.839216 0.976471 
0.596078 0.839216 0.976471 0.596078 0.839216 0.976471 
0.596078 0.839216 0.976471 0.596078 0.839216 0.976471 
0.596078 0.839216 0.976471 0.596078 0.839216 0.976471 
0.596078 0.839216 0.976471 0.596078 0.839216 0.976471 
0.596078 0.839216 0.976471 0.596078 0.839216 0.976471 
0.596078 0.839216 0.976471 0.596078 0.839216 0.976471 
0.596078 0.839216 0.976471 0.596078 0.839216 0.976471 
0.596078 0.839216 0.976471 0.596078 0.839216 0.976471 
0.596078 0.839216 0.976471 0.596078 0.839216 0.976471 
0.596078 0.839216 0.976471 0.596078 0.839216 0.976471 
0.596078 0.839216 0.976471 0.596078 0.839216 0.976471 
0.596078 0.839216 0.976471 0.596078 0.839216 0.976471 
0.596078 0.839216 0.976471 0.596078 0.839216 0.976471 
0.596078 0.839216 0.976471 0.596078 0.839216 0.976471 
0.596078 0.839216 0.976471 0.596078 0.839216 0.976471 
0.596078 0.839216 0.976471 0.596078 0.839216 0.976471 
0.596078 0.839216 0.976471 0.596078 0.839216 0.976471 
0.596078 0.839216 0.976471 0.596078 0.839216 0.976471 
0.596078 0.839216 0.976471 0.596078 0.839216 0.976471 
0.596078 0.839216 0.976471 0.596078 0.839216 0.976471 
0.596078 0.839216 0.976471 0.596078 0.839216 0.976471 
0.596078 0.839216 0.976471 0.596078 0.839216 0.976471 
0.596078 0.839216 0.976471 0.596078 0.839216 0.976471 
0.596078 0.839216 0.976471 0.596078 0.839216 0.976471 
0.596078 0.839216 0.976471 0.596078 0.839216 0.976471 
0.596078 0.839216 0.976471 0.596078 0.839216 0.976471 
0.596078 0.839216 0.976471 0.596078 0.839216 0.976471 
0.596078 0.839216 0.976471 0.596078 0.839216 0.976471 
0.596078 0.839216 0.976471 0.596078 0.839216 0.976471 
0.596078 0.839216 0.976471 0.596078 0.839216 0.976471 
0.596078 0.839216 0.976471 0.596078 0.839216 0.976471 
0.596078 0.839216 0.976471 0.596078 0.839216 0.976471 
0.596078 0.839216 0.976471 0.596078 0.839216 0.976471 
0.596078 0.839216 0.976471 0.596078 0.839216 0.976471 
0.596078 0.839216 0.976471 0.596078 0.839216 0.976471 
0.596078 0.839216 0.976471 0.596078 0.839216 0.976471 
0.596078 0.839216 0.976471 0.596078 0.839216 0.976471 
0.596078 0.839216 0.976471 0.596078 0.839216 0.976471 
0.596078 0.839216 0.976471 0.596078 0.839216 0.976471 
0.596078 0.839216 0.976471 0.596078 0.839216 0.976471 
0.596078 0.839216 0.976471 0.596078 0.839216 0.976471 
0.596078 0.839216 0.976471 0.596078 0.839216 0.976471 
0.596078 0.839216 0.976471 0.596078 0.839216 0.976471 
0.596078 0.839216 0.976471 0.596078 0.839216 0.976471 
0.596078 0.839216 0.976471 0.596078 0.839216 0.976471 
0.596078 0.839216 0.976471 0.596078 0.839216 0.976471 
0.596078 0.839216 0.976471 0.596078 0.839216 0.976471 
0.596078 0.839216 0.976471 0.596078 0.839216 0.976471 
0.596078 0.839216 0.976471 0.596078 0.839216 0.976471 
0.596078 0.839216 0.976471 0.596078 0.839216 0.976471 
0.596078 0.839216 0.976471 0.596078 0.839216 0.976471 
0.596078 0.839216 0.976471 0.596078 0.839216 0.976471 
0.596078 0.839216 0.976471 0.596078 0.839216 0.976471 
0.596078 0.839216 0.976471 0.596078 0.839216 0.976471 
0.596078 0.839216 0.976471 0.596078 0.839216 0.976471 
0.596078 0.839216 0.976471 0.596078 0.839216 0.976471 
0.596078 0.839216 0.976471 0.596078 0.839216 0.976471 
0.596078 0.839216 0.976471 0.596078 0.839216 0.976471 
0.596078 0.839216 0.976471 0.596078 0.839216 0.976471 
0.596078 0.839216 0.976471 0.596078 0.839216 0.976471 
0.596078 0.839216 0.976471 0.596078 0.839216 0.976471 
0.596078 0.839216 0.976471 0.596078 0.839216 0.976471 
0.596078 0.839216 0.976471 0.596078 0.839216 0.976471 
0.596078 0.839216 0.976471 0.596078 0.839216 0.976471 
0.596078 0.839216 0.976471 0.596078 0.839216 0.976471 
0.596078 0.839216 0.976471 0.596078 0.839216 0.976471 
0.596078 0.839216 0.976471 0.596078 0.839216 0.976471 
0.596078 0.839216 0.976471 0.596078 0.839216 0.976471 
0.596078 0.839216 0.976471 0.596078 0.839216 0.976471 
0.596078 0.839216 0.976471 0.596078 0.839216 0.976471 
0.596078 0.839216 0.976471 0.596078 0.839216 0.976471 
0.596078 0.839216 0.976471 0.596078 0.839216 0.976471 
0.596078 0.839216 0.976471 0.596078 0.839216 0.976471 
0.596078 0.839216 0.976471 0.596078 0.839216 0.976471 
0.596078 0.839216 0.976471 0.596078 0.839216 0.976471 
0.596078 0.839216 0.976471 0.596078 0.839216 0.976471 
0.596078 0.839216 0.976471 0.596078 0.839216 0.976471 
0.596078 0.839216 0.976471 0.596078 0.839216 0.976471 
0.596078 0.839216 0.976471 0.596078 0.839216 0.976471 
0.596078 0.839216 0.976471 0.596078 0.839216 0.976471 
0.596078 0.839216 0.976471 0.596078 0.839216 0.976471 
0.596078 0.839216 0.976471 0.596078 0.839216 0.976471 
0.596078 0.839216 0.976471 0.596078 0.839216 0.976471 
0.596078 0.839216 0.976471 0.596078 0.839216 0.976471 
0.596078 0.839216 0.976471 0.596078 0.839216 0.976471 
0.596078 0.839216 0.976471 0.596078 0.839216 0.976471 
0.596078 0.839216 0.976471 0.596078 0.839216 0.976471 
0.596078 0.839216 0.976471 0.596078 0.839216 0.976471 
0.596078 0.839216 0.976471 0.596078 0.839216 0.976471 
0.596078 0.839216 0.976471 0.596078 0.839216 0.976471 
0.596078 0.839216 0.976471 0.596078 0.839216 0.976471 
0.596078 0.839216 0.976471 0.596078 0.839216 0.976471 
0.596078 0.839216 0.976471 0.596078 0.839216 0.976471 
0.596078 0.839216 0.976471 0.596078 0.839216 0.976471 
0.596078 0.839216 0.976471 0.596078 0.839216 0.976471 
0.596078 0.839216 0.976471 0.596078 0.839216 0.976471 
0.596078 0.839216 0.976471 0.596078 0.839216 0.976471 
0.596078 0.839216 0.976471 0.596078 0.839216 0.976471 
0.596078 0.839216 0.976471 0.596078 0.839216 0.976471 
0.596078 0.839216 0.976471 0.596078 0.839216 0.976471 
0.596078 0.839216 0.976471 0.596078 0.839216 0.976471 
0.596078 0.839216 0.976471 0.596078 0.839216 0.976471 
0.596078 0.839216 0.976471 0.596078 0.839216 0.976471 
0.596078 0.839216 0.976471 0.596078 0.839216 0.976471 
0.596078 0.839216 0.976471 0.596078 0.839216 0.976471 
0.596078 0.839216 0.976471 0.596078 0.839216 0.976471 
0.596078 0.839216 0.976471 0.596078 0.839216 0.976471 
0.596078 0.839216 0.976471 0.596078 0.839216 0.976471 
0.596078 0.839216 0.976471 0.596078 0.839216 0.976471 
0.596078 0.839216 0.976471 0.596078 0.839216 0.976471 
0.596078 0.839216 0.976471 0.596078 0.839216 0.976471 
0.596078 0.839216 0.976471 0.596078 0.839216 0.976471 
0.596078 0.839216 0.976471 0.596078 0.839216 0.976471 
0.596078 0.839216 0.976471 0.596078 0.839216 0.976471 
0.596078 0.839216 0.976471 0.596078 0.839216 0.976471 
0.596078 0.839216 0.976471 0.596078 0.839216 0.976471 
0.596078 0.839216 0.976471 0.596078 0.839216 0.976471 
0.596078 0.839216 0.976471 0.596078 0.839216 0.976471 
0.596078 0.839216 0.976471 0.596078 0.839216 0.976471 
0.596078 0.839216 0.976471 0.596078 0.839216 0.976471 
0.596078 0.839216 0.976471 0.596078 0.839216 0.976471 
0.596078 0.839216 0.976471 0.596078 0.839216 0.976471 
0.596078 0.839216 0.976471 0.596078 0.839216 0.976471 
0.596078 0.839216 0.976471 0.596078 0.839216 0.976471 
0.596078 0.839216 0.976471 0.596078 0.839216 0.976471 
0.596078 0.839216 0.976471 0.596078 0.839216 0.976471 
0.596078 0.839216 0.976471 0.596078 0.839216 0.976471 
0.596078 0.839216 0.976471 0.596078 0.839216 0.976471 
0.596078 0.839216 0.976471 0.596078 0.839216 0.976471 
0.596078 0.839216 0.976471 0.596078 0.839216 0.976471 
0.596078 0.839216 0.976471 0.596078 0.839216 0.976471 
0.596078 0.839216 0.976471 0.596078 0.839216 0.976471 
0.596078 0.839216 0.976471 0.596078 0.839216 0.976471 
0.596078 0.839216 0.976471 0.596078 0.839216 0.976471 
0.596078 0.839216 0.976471 0.596078 0.839216 0.976471 
0.596078 0.839216 0.976471 0.596078 0.839216 0.976471 
0.596078 0.839216 0.976471 0.596078 0.839216 0.976471 
0.596078 0.839216 0.976471 0.596078 0.839216 0.976471 
0.596078 0.839216 0.976471 0.596078 0.839216 0.976471 
0.596078 0.839216 0.976471 0.596078 0.839216 0.976471 
0.596078 0.839216 0.976471 0.596078 0.839216 0.976471 
0.596078 0.839216 0.976471 0.596078 0.839216 0.976471 
0.596078 0.839216 0.976471 0.596078 0.839216 0.976471 
0.596078 0.839216 0.976471 0.596078 0.839216 0.976471 
0.596078 0.839216 0.976471 0.596078 0.839216 0.976471 
0.596078 0.839216 0.976471 0.596078 0.839216 0.976471 
0.596078 0.839216 0.976471 0.596078 0.839216 0.976471 
0.596078 0.839216 0.976471 0.596078 0.839216 0.976471 
0.596078 0.839216 0.976471 0.596078 0.839216 0.976471 
0.596078 0.839216 0.976471 0.596078 0.839216 0.976471 
0.596078 0.839216 0.976471 0.596078 0.839216 0.976471 
0.596078 0.839216 0.976471 0.596078 0.839216 0.976471 
0.596078 0.839216 0.976471 0.596078 0.839216 0.976471 
0.596078 0.839216 0.976471 0.596078 0.839216 0.976471 
0.596078 0.839216 0.976471 0.596078 0.839216 0.976471 
0.596078 0.839216 0.976471 0.596078 0.839216 0.976471 
0.596078 0.839216 0.976471 0.596078 0.839216 0.976471 
0.596078 0.839216 0.976471 0.596078 0.839216 0.976471 
0.596078 0.839216 0.976471 0.596078 0.839216 0.976471 
0.596078 0.839216 0.976471 0.596078 0.839216 0.976471 
0.596078 0.839216 0.976471 0.596078 0.839216 0.976471 
0.596078 0.839216 0.976471 0.596078 0.839216 0.976471 
0.596078 0.839216 0.976471 0.596078 0.839216 0.976471 
0.596078 0.839216 0.976471 0.596078 0.839216 0.976471 
0.596078 0.839216 0.976471 0.596078 0.839216 0.976471 
0.596078 0.839216 0.976471 0.596078 0.839216 0.976471 
0.596078 0.839216 0.976471 0.596078 0.839216 0.976471 
0.596078 0.839216 0.976471 0.596078 0.839216 0.976471 
0.596078 0.839216 0.976471 0.596078 0.839216 0.976471 
0.596078 0.839216 0.976471 0.596078 0.839216 0.976471 
0.596078 0.839216 0.976471 0.596078 0.839216 0.976471 
0.596078 0.839216 0.976471 0.596078 0.839216 0.976471 
0.596078 0.839216 0.976471 0.596078 0.839216 0.976471 
0.596078 0.839216 0.976471 0.596078 0.839216 0.976471 
0.596078 0.839216 0.976471 0.596078 0.839216 0.976471 
0.596078 0.839216 0.976471 0.596078 0.839216 0.976471 
0.596078 0.839216 0.976471 0.596078 0.839216 0.976471 
0.596078 0.839216 0.976471 0.596078 0.839216 0.976471 
0.596078 0.839216 0.976471 0.596078 0.839216 0.976471 
0.596078 0.839216 0.976471 0.596078 0.839216 0.976471 
0.596078 0.839216 0.976471 0.596078 0.839216 0.976471 
0.596078 0.839216 0.976471 0.596078 0.839216 0.976471 
0.596078 0.839216 0.976471 0.596078 0.839216 0.976471 
0.596078 0.839216 0.976471 0.596078 0.839216 0.976471 
0.596078 0.839216 0.976471 0.596078 0.839216 0.976471 
0.596078 0.839216 0.976471 0.596078 0.839216 0.976471 
0.596078 0.839216 0.976471 0.596078 0.839216 0.976471 
0.596078 0.839216 0.976471 0.596078 0.839216 0.976471 
0.596078 0.839216 0.976471 0.596078 0.839216 0.976471 
0.596078 0.839216 0.976471 0.596078 0.839216 0.976471 
0.596078 0.839216 0.976471 0.596078 0.839216 0.976471 
0.596078 0.839216 0.976471 0.596078 0.839216 0.976471 
0.596078 0.839216 0.976471 0.596078 0.839216 0.976471 
0.596078 0.839216 0.976471 0.596078 0.839216 0.976471 
0.596078 0.839216 0.976471 0.596078 0.839216 0.976471 
0.596078 0.839216 0.976471 0.596078 0.839216 0.976471 
0.596078 0.839216 0.976471 0.596078 0.839216 0.976471 
0.596078 0.839216 0.976471 0.596078 0.839216 0.976471 
0.596078 0.839216 0.976471 0.596078 0.839216 0.976471 
0.596078 0.839216 0.976471 0.596078 0.839216 0.976471 
0.596078 0.839216 0.976471 0.596078 0.839216 0.976471 
0.596078 0.839216 0.976471 0.596078 0.839216 0.976471 
0.596078 0.839216 0.976471 0.596078 0.839216 0.976471 
0.596078 0.839216 0.976471 0.596078 0.839216 0.976471 
0.596078 0.839216 0.976471 0.596078 0.839216 0.976471 
0.596078 0.839216 0.976471 0.596078 0.839216 0.976471 
0.596078 0.839216 0.976471 0.596078 0.839216 0.976471 
0.596078 0.839216 0.976471 0.596078 0.839216 0.976471 
0.596078 0.839216 0.976471 0.596078 0.839216 0.976471 
0.596078 0.839216 0.976471 0.596078 0.839216 0.976471 
0.596078 0.839216 0.976471 0.596078 0.839216 0.976471 
0.596078 0.839216 0.976471 0.596078 0.839216 0.976471 
0.596078 0.839216 0.976471 0.596078 0.839216 0.976471 
0.596078 0.839216 0.976471 0.596078 0.839216 0.976471 
0.596078 0.839216 0.976471 0.596078 0.839216 0.976471 
0.596078 0.839216 0.976471 0.596078 0.839216 0.976471 
0.596078 0.839216 0.976471 0.596078 0.839216 0.976471 
0.596078 0.839216 0.976471 0.596078 0.839216 0.976471 
0.596078 0.839216 0.976471 0.596078 0.839216 0.976471 
0.596078 0.839216 0.976471 0.596078 0.839216 0.976471 
0.596078 0.839216 0.976471 0.596078 0.839216 0.976471 
0.596078 0.839216 0.976471 0.596078 0.839216 0.976471 
0.596078 0.839216 0.976471 0.596078 0.839216 0.976471 
0.596078 0.839216 0.976471 0.596078 0.839216 0.976471 
0.596078 0.839216 0.976471 0.596078 0.839216 0.976471 