# vtk DataFile Version 4.2
vtk output
ASCII
DATASET POLYDATA
POINTS 775 float
268.018 281.581 111.614 270.222 281.939 111.728 267.663 283.362 111.181 
266.277 284.856 111.297 267.292 284.472 111.18 268.472 285.135 111.35 
272.008 280.619 112.848 272.093 282.098 112.59 271.498 283.484 112.275 
271.248 285.201 112.381 270.145 285.988 112.044 270.687 279.044 113.475 
262.147 280.325 113.328 264.38 280.198 112.922 262.441 282.01 112.503 
261.76 283.132 112.434 267.238 292.025 113.077 269.547 278.388 114.018 
265.645 278.537 114.221 274.842 279.477 114.59 270.795 289.987 113.714 
265.371 294.931 114.018 267.816 294.797 114.479 275.585 278.152 115.63 
258.983 278.71 115.228 252.28 281.74 115.095 252.601 284.186 114.758 
255.825 286.64 113.886 272.055 291.124 115.361 270.197 294.166 115.481 
255.312 294.525 115.163 269.277 294.933 115.331 258.627 295.514 114.818 
263.812 296.264 114.825 258.301 296.919 115.65 268.471 296.171 115.974 
264.158 297.235 115.934 262.126 277.569 116.159 277.818 278.897 116.696 
251.568 280.313 115.636 270.328 295.12 116.545 255.707 296.261 115.837 
266.92 296.997 116.333 260.57 297.928 116.559 264.781 297.512 116.535 
278.564 277.01 117.901 247.16 278.842 117.222 255.152 277.336 117.179 
246.426 283.789 116.85 247.243 286.732 116.821 270.219 295.341 116.797 
258.58 298.227 117.064 263.567 297.989 117.376 264.49 297.815 117.22 
247.964 276.906 118.284 279.707 279.361 118.277 274.229 291.467 118.252 
252.191 297.478 118.407 261.68 298.463 117.869 279.319 275.723 119.322 
250.692 275.794 119.198 244.544 277.18 118.776 280.573 278.363 119.299 
241.923 280.298 118.832 245.409 293.139 119.186 247.193 295.443 119.449 
265.97 297.698 118.658 264.091 298.143 118.661 278.698 274.548 120.45 
242.627 275.774 120.23 240.732 277.248 120.038 281.381 277.969 120.598 
280.802 280.916 119.781 279.23 285.648 119.66 265.115 297.899 119.56 
253.712 298.844 120.556 257.819 298.925 119.721 243.577 274.289 121.409 
277.822 274.201 120.667 280.135 274.995 121.063 240.551 290.372 121.001 
242.374 293.692 121.398 279.202 273.761 122.145 280.089 274.567 121.605 
280.698 285.899 121.761 275.042 292.729 122.266 271.923 294.715 121.602 
256.462 299.007 121.46 276.473 273.139 122.791 274.022 273.633 121.932 
280.946 275.129 122.449 282.19 279.435 123.427 281.791 284.849 123.616 
280.427 288.662 123.449 279.026 290.084 122.933 238.9 293.082 123.82 
239.862 294.058 124.076 235.391 273.246 124.405 279.181 273.37 123.891 
265.033 273.428 124.01 282.244 282.329 124.382 241.957 295.66 125.024 
238.575 272.164 124.831 240.501 272.097 124.762 278.074 272.768 125.182 
280.966 274.728 124.425 281.153 275.019 123.981 231.509 278.324 124.815 
282.097 278.196 124.909 281.131 288.134 124.778 234.538 289.562 125.145 
245.876 297.143 125.41 235.7 271.733 126.116 237.931 271.304 126.542 
276.885 272.572 125.117 231.092 272.948 126.245 265.449 272.852 125.331 
271.737 272.513 125.676 281.139 288.445 126.532 237.697 293.494 126.112 
239.729 294.882 126.644 262.988 296.863 126.413 233.343 271.181 127.546 
248.145 271.545 127.111 278.021 272.886 126.188 279.914 273.839 125.954 
280.487 274.431 125.978 282.299 283.037 126.931 281.289 288.135 126.884 
227.539 271.376 128.565 238.993 271.014 128.062 227.56 272.265 127.946 
270.098 272.343 127.033 270.84 272.463 128.096 275.209 272.948 127.827 
226.841 273.962 127.616 281.914 285.898 127.934 275.539 291.788 127.654 
228.683 270.595 129.083 232.774 270.404 128.983 243.842 271.212 128.904 
247.747 271.198 129.269 265.983 272.06 128.832 267.115 272.183 127.938 
268.03 272.274 128.859 270.377 272.71 129.16 279.059 273.791 127.164 
280.239 275.469 127.739 223.664 278.298 128.964 281.922 281.683 128.46 
223.758 282.307 129.319 224.562 284.509 129.579 280.992 287.429 129.403 
280.321 288.624 128.682 235.458 292.826 128.978 240.047 294.94 128.982 
243.614 296.079 129.495 251.317 297.921 127.932 227.404 269.729 131.018 
228.639 269.812 130.294 224.702 270.896 130.628 224.25 271.028 130.828 
234.123 270.232 130.072 223.972 271.281 130.868 248.109 271.258 130.147 
249.272 271.177 130.343 224.152 272.021 130.072 255.798 271.183 129.686 
271.392 273.446 129.964 222.675 273.965 130.437 222.265 281.086 130.571 
222.343 281.969 130.719 225.298 270.113 131.675 226.681 269.585 132.029 
227.306 269.519 131.758 230.294 269.417 131.306 224.062 271.039 131.125 
224.073 270.938 131.609 235.266 270.514 130.627 248.057 271.508 131.193 
250.181 271.191 131.275 253.41 270.902 131.294 261.232 271.309 130.304 
222.813 272.446 131.627 267.528 272.55 130.31 221.93 273.966 131.663 
221.497 276.851 131.523 223.622 285.375 131.575 280.878 286.571 130.738 
229.042 289.877 131.746 224.754 270.323 132.556 230.792 269.458 132.137 
223.526 271.468 132.189 232.367 269.838 131.515 234.575 270.529 131.922 
222.999 272.087 131.945 237.698 271.407 131.193 255.234 270.816 132.082 
258.08 270.932 131.916 261.563 271.288 131.368 242.16 272.266 131.385 
221.973 273.69 131.97 268.47 273.485 131.309 280.332 280.857 131.174 
222.416 284.32 132.952 280.329 286.003 131.828 227.161 269.472 133.11 
228.624 269.309 132.76 224.753 270.411 133.217 234.493 270.821 132.752 
254.16 270.883 132.99 222.742 272.49 133.302 247.334 272.622 132.513 
248.173 272.431 132.742 263.184 271.82 132.19 240.134 273.34 132.428 
238.545 274.451 133.421 242.015 273.982 132.557 267.024 274.564 133.074 
268.373 274.471 132.285 221.247 276.525 132.73 238.836 276.243 133.926 
221.142 278.185 132.876 280.791 284.98 131.563 278.751 286.824 132.681 
227.626 289.197 133.255 268.692 292.192 132.684 247.669 296.238 132.426 
225.592 269.934 133.586 230.585 269.569 133.379 252.336 271.449 134.228 
235.463 272.124 133.793 263.672 272.717 133.376 264.691 273.813 133.842 
221.731 274.662 133.753 237.646 275.993 134.387 268.185 277.792 134.179 
240.502 279.443 134.829 244.729 278.991 134.718 221.353 281.753 134.083 
279.132 282.209 132.638 278.268 282.592 133.11 279.634 284.25 132.86 
280.013 284.701 132.541 279.392 285.322 132.91 274.254 288.49 133.874 
226.01 270.022 134.177 254.1 271.225 134.739 261.018 272.465 135.023 
234.732 273.715 135.503 262.725 273.32 134.658 264.322 275.666 135.306 
221.205 277.679 134.147 235.858 276.552 135.777 279.278 283.314 132.932 
221.781 283.203 134.646 278.698 283.969 133.292 231.476 290.721 134.843 
228.718 269.707 134.533 253.403 271.76 135.841 255.828 271.276 135.188 
233.025 272.342 136.13 222.811 284.253 136.376 225.905 287.865 136.157 
227.374 288.949 135.643 236.425 291.21 135.421 242.64 293.479 135.15 
244.591 293.788 135.775 247.31 295.055 135.42 231.915 271.422 136.079 
258.226 271.893 135.878 252.169 272.643 136.24 236.926 281.81 137.299 
222.128 282.347 136.71 222.425 283.543 136.362 240.17 284.104 136.799 
267.369 284.572 137.505 240.007 286.305 137.087 237.504 287.781 137.279 
239.286 288.537 136.941 243.415 288.313 137.391 243.516 291.144 137.032 
254.234 272.014 136.645 253.221 272.792 137.095 246.059 284.225 137.577 
224.451 285.851 138.116 225.444 286.946 138.019 235.932 287.004 137.911 
235.463 286.509 138.255 269.36 287.595 136.942 245.511 291.782 137.886 
254.814 273.032 137.755 223.9 284.548 138.973 234.058 286.57 139.008 
233.234 288.216 138.5 229.503 289.14 138.218 228.624 273.398 139.285 
225.894 275.016 139.435 254.141 275.998 139.653 224.143 277.431 139.467 
223.298 279.192 139.038 251.282 279.382 139.608 223.809 283.004 139.853 
230.541 288.408 139.473 264.825 289.722 138.999 265.223 288.784 139.326 
249.555 293.349 139.465 229.45 274.566 140.329 256.798 275.709 139.619 
257.452 278.168 140.708 224.05 281.186 140.416 227.92 287.206 141.074 
265.03 287.778 139.709 258.711 290.754 141.432 248.214 291.5 139.921 
251.017 293.482 139.661 229.711 275.802 141.149 252.265 280.848 141.191 
225.733 284.768 141.579 231.723 284.458 141.919 250.913 284.635 141.513 
230.78 286.447 141.684 230.688 286.972 141.236 228.755 287.388 141.118 
260.977 289.2 141.634 249.449 291.818 140.73 249.756 292.049 140.783 
249.825 292.422 140.512 228.711 276.306 141.533 227.373 278.969 142.586 
254.84 281.422 142.372 225.83 282.274 142.388 253.102 282.519 142.257 
227.602 286.179 142.311 227.823 286.071 142.614 230.189 286.006 142.444 
252.801 286.73 143.124 229.692 286.828 141.84 260.426 288.071 142.428 
252.868 291.588 142.043 230.732 280.163 142.674 227.418 280.923 143.276 
230.256 280.833 143.148 230.74 283.609 142.945 227.486 285.16 143.032 
228.096 286.07 142.74 228.291 285.83 142.979 229.434 286.127 142.662 
258.986 286.564 143.212 228.455 286.176 142.685 251.573 289.047 142.496 
251.994 290.669 142.352 254.759 290.605 142.759 251.894 291.267 142.043 
229.398 281.462 143.659 230.215 282.289 143.379 227.328 283.323 143.409 
227.871 283.632 143.688 229.03 284.583 143.663 229.208 284.196 143.744 
255.997 285.364 143.624 227.797 285.32 143.14 229.537 285.259 143.201 
256.757 287.795 143.57 258.834 287.501 143.251 258.295 287.996 143.307 
254.341 289.634 143.208 228.387 281.785 143.75 228.839 282.308 143.861 
228.29 283.268 143.865 229.266 282.823 143.83 228.66 283.59 143.907 
229.136 283.594 143.841 228.389 284.357 143.751 228.658 282.073 311.34 
228.491 282.381 311.286 228.984 282.137 311.375 228.248 282.575 311.358 
228.89 282.879 311.253 229.148 282.62 311.363 228.5 283.247 311.317 
228.791 283.228 311.288 228.974 283.591 311.442 229.437 279.392 312.122 
227.82 281.066 311.771 227.747 282.722 311.651 227.546 284.492 312.083 
227.777 285.203 312.229 228.468 284.943 312.042 229.368 285.62 312.499 
257.027 287.248 311.699 258.755 287.582 312.151 258.428 288.539 312.252 
253.543 289.321 312.099 255.895 289.439 312.091 228.473 278.396 312.584 
228.938 278.65 312.399 231.205 281.025 312.878 256.421 282.203 312.642 
226.009 282.89 312.765 230.549 283.912 312.339 228.482 286.063 312.734 
260.559 286.8 313.014 254.615 287.284 311.763 256.535 290.317 312.721 
254.268 291.1 313.058 226.902 278.394 313.252 230.591 279.042 312.969 
225.573 280.99 313.18 253.536 281.027 313.417 254.473 281.535 312.951 
[...]
POINT_DATA 775
COLOR_SCALARS scalars 3
0.380392 0.905882 0.717647 0.380392 0.905882 0.717647 0.380392 0.905882 0.717647 
0.380392 0.905882 0.717647 0.380392 0.905882 0.717647 
0.380392 0.905882 0.717647 0.380392 0.905882 0.717647 
0.380392 0.905882 0.717647 0.380392 0.905882 0.717647 
0.380392 0.905882 0.717647 0.380392 0.905882 0.717647 
0.380392 0.905882 0.717647 0.380392 0.905882 0.717647 
0.380392 0.905882 0.717647 0.380392 0.905882 0.717647 
0.380392 0.905882 0.717647 0.380392 0.905882 0.717647 
0.380392 0.905882 0.717647 0.380392 0.905882 0.717647 
0.380392 0.905882 0.717647 0.380392 0.905882 0.717647 
0.380392 0.905882 0.717647 0.380392 0.905882 0.717647 
0.380392 0.905882 0.717647 0.380392 0.905882 0.717647 
0.380392 0.905882 0.717647 0.380392 0.905882 0.717647 
0.380392 0.905882 0.717647 0.380392 0.905882 0.717647 
0.380392 0.905882 0.717647 0.380392 0.905882 0.717647 
0.380392 0.905882 0.717647 0.380392 0.905882 0.717647 
0.380392 0.905882 0.717647 0.380392 0.905882 0.717647 
0.380392 0.905882 0.717647 0.380392 0.905882 0.717647 
0.380392 0.905882 0.717647 0.380392 0.905882 0.717647 
0.380392 0.905882 0.717647 0.380392 0.905882 0.717647 
0.380392 0.905882 0.717647 0.380392 0.905882 0.717647 
0.380392 0.905882 0.717647 0.380392 0.905882 0.717647 
0.380392 0.905882 0.717647 0.380392 0.905882 0.717647 
0.380392 0.905882 0.717647 0.380392 0.905882 0.717647 
0.380392 0.905882 0.717647 0.380392 0.905882 0.717647 
0.380392 0.905882 0.717647 0.380392 0.905882 0.717647 
0.380392 0.905882 0.717647 0.380392 0.905882 0.717647 
0.380392 0.905882 0.717647 0.380392 0.905882 0.717647 
0.380392 0.905882 0.717647 0.380392 0.905882 0.717647 
0.380392 0.905882 0.717647 0.380392 0.905882 0.717647 
0.380392 0.905882 0.717647 0.380392 0.905882 0.717647 
0.380392 0.905882 0.717647 0.380392 0.905882 0.717647 
0.380392 0.905882 0.717647 0.380392 0.905882 0.717647 
0.380392 0.905882 0.717647 0.380392 0.905882 0.717647 
0.380392 0.905882 0.717647 0.380392 0.905882 0.717647 
0.380392 0.905882 0.717647 0.380392 0.905882 0.717647 
0.380392 0.905882 0.717647 0.380392 0.905882 0.717647 
0.380392 0.905882 0.717647 0.380392 0.905882 0.717647 
0.380392 0.905882 0.717647 0.380392 0.905882 0.717647 
0.380392 0.905882 0.717647 0.380392 0.905882 0.717647 
0.380392 0.905882 0.717647 0.380392 0.905882 0.717647 
0.380392 0.905882 0.717647 0.380392 0.905882 0.717647 
0.380392 0.905882 0.717647 0.380392 0.905882 0.717647 
0.380392 0.905882 0.717647 0.380392 0.905882 0.717647 
0.380392 0.905882 0.717647 0.380392 0.905882 0.717647 
0.380392 0.905882 0.717647 0.380392 0.905882 0.717647 
0.380392 0.905882 0.717647 0.380392 0.905882 0.717647 
0.380392 0.905882 0.717647 0.380392 0.905882 0.717647 
0.380392 0.905882 0.717647 0.380392 0.905882 0.717647 
0.380392 0.905882 0.717647 0.380392 0.905882 0.717647 
0.380392 0.905882 0.717647 0.380392 0.905882 0.717647 
0.380392 0.905882 0.717647 0.380392 0.905882 0.717647 
0.380392 0.905882 0.717647 0.380392 0.905882 0.717647 
0.380392 0.905882 0.717647 0.380392 0.905882 0.717647 
0.380392 0.905882 0.717647 0.380392 0.905882 0.717647 
0.380392 0.905882 0.717647 0.380392 0.905882 0.717647 
0.380392 0.905882 0.717647 0.380392 0.905882 0.717647 
0.380392 0.905882 0.717647 0.380392 0.905882 0.717647 
0.380392 0.905882 0.717647 0.380392 0.905882 0.717647 
0.380392 0.905882 0.717647 0.380392 0.905882 0.717647 
0.380392 0.905882 0.717647 0.380392 0.905882 0.717647 
0.380392 0.905882 0.717647 0.380392 0.905882 0.717647 
0.380392 0.905882 0.717647 0.380392 0.905882 0.717647 
0.380392 0.905882 0.717647 0.380392 0.905882 0.717647 
0.380392 0.905882 0.717647 0.380392 0.905882 0.717647 
0.380392 0.905882 0.717647 0.380392 0.905882 0.717647 
0.380392 0.905882 0.717647 0.380392 0.905882 0.717647 
0.380392 0.905882 0.717647 0.380392 0.905882 0.717647 
0.380392 0.905882 0.717647 0.380392 0.905882 0.717647 
0.380392 0.905882 0.717647 0.380392 0.905882 0.717647 
0.380392 0.905882 0.717647 0.380392 0.905882 0.717647 
0.380392 0.905882 0.717647 0.380392 0.905882 0.717647 
0.380392 0.905882 0.717647 0.380392 0.905882 0.717647 
0.380392 0.905882 0.717647 0.380392 0.905882 0.717647 
0.380392 0.905882 0.717647 0.380392 0.905882 0.717647 
0.380392 0.905882 0.717647 0.380392 0.905882 0.717647 
0.380392 0.905882 0.717647 0.380392 0.905882 0.717647 
0.380392 0.905882 0.717647 0.380392 0.905882 0.717647 
0.380392 0.905882 0.717647 0.380392 0.905882 0.717647 
0.380392 0.905882 0.717647 0.380392 0.905882 0.717647 
0.380392 0.905882 0.717647 0.380392 0.905882 0.717647 
0.380392 0.905882 0.717647 0.380392 0.905882 0.717647 
0.380392 0.905882 0.717647 0.380392 0.905882 0.717647 
0.380392 0.905882 0.717647 0.380392 0.905882 0.717647 
0.380392 0.905882 0.717647 0.380392 0.905882 0.717647 
0.380392 0.905882 0.717647 0.380392 0.905882 0.717647 
0.380392 0.905882 0.717647 0.380392 0.905882 0.717647 
0.380392 0.905882 0.717647 0.380392 0.905882 0.717647 
0.380392 0.905882 0.717647 0.380392 0.905882 0.717647 
0.380392 0.905882 0.717647 0.380392 0.905882 0.717647 
0.380392 0.905882 0.717647 0.380392 0.905882 0.717647 
0.380392 0.905882 0.717647 0.380392 0.905882 0.717647 
0.380392 0.905882 0.717647 0.380392 0.905882 0.717647 
0.380392 0.905882 0.717647 0.380392 0.905882 0.717647 
0.380392 0.905882 0.717647 0.380392 0.905882 0.717647 
0.380392 0.905882 0.717647 0.380392 0.905882 0.717647 
0.380392 0.905882 0.717647 0.380392 0.905882 0.717647 
0.380392 0.905882 0.717647 0.380392 0.905882 0.717647 
0.380392 0.905882 0.717647 0.380392 0.905882 0.717647 
0.380392 0.905882 0.717647 0.380392 0.905882 0.717647 
0.380392 0.905882 0.717647 0.380392 0.905882 0.717647 
0.380392 0.905882 0.717647 0.380392 0.905882 0.717647 
0.380392 0.905882 0.717647 0.380392 0.905882 0.717647 
0.380392 0.905882 0.717647 0.380392 0.905882 0.717647 
0.380392 0.905882 0.717647 0.380392 0.905882 0.717647 
0.380392 0.905882 0.717647 0.380392 0.905882 0.717647 
0.380392 0.905882 0.717647 0.380392 0.905882 0.717647 
0.380392 0.905882 0.717647 0.380392 0.905882 0.717647 
0.380392 0.905882 0.717647 0.380392 0.905882 0.717647 
0.380392 0.905882 0.717647 0.380392 0.905882 0.717647 
0.380392 0.905882 0.717647 0.380392 0.905882 0.717647 
0.380392 0.905882 0.717647 0.380392 0.905882 0.717647 
0.380392 0.905882 0.717647 0.380392 0.905882 0.717647 
0.380392 0.905882 0.717647 0.380392 0.905882 0.717647 
0.380392 0.905882 0.717647 0.380392 0.905882 0.717647 
0.380392 0.905882 0.717647 0.380392 0.905882 0.717647 
0.380392 0.905882 0.717647 0.380392 0.905882 0.717647 
0.380392 0.905882 0.717647 0.380392 0.905882 0.717647 
0.380392 0.905882 0.717647 0.380392 0.905882 0.717647 
0.380392 0.905882 0.717647 0.380392 0.905882 0.717647 
0.380392 0.905882 0.717647 0.380392 0.905882 0.717647 
0.380392 0.905882 0.717647 0.380392 0.905882 0.717647 
0.380392 0.905882 0.717647 0.380392 0.905882 0.717647 
0.380392 0.905882 0.717647 0.380392 0.905882 0.717647 
0.380392 0.905882 0.717647 0.380392 0.905882 0.717647 
0.380392 0.905882 0.717647 0.380392 0.905882 0.717647 
0.380392 0.905882 0.717647 0.380392 0.905882 0.717647 
0.380392 0.905882 0.717647 0.380392 0.905882 0.717647 
0.380392 0.905882 0.717647 0.380392 0.905882 0.717647 
0.380392 0.905882 0.717647 0.380392 0.905882 0.717647 
0.380392 0.905882 0.717647 0.380392 0.905882 0.717647 
0.380392 0.905882 0.717647 0.380392 0.905882 0.717647 
0.380392 0.905882 0.717647 0.380392 0.905882 0.717647 
0.380392 0.905882 0.717647 0.380392 0.905882 0.717647 
0.380392 0.905882 0.717647 0.380392 0.905882 0.717647 
0.380392 0.905882 0.717647 0.380392 0.905882 0.717647 
0.380392 0.905882 0.717647 0.380392 0.905882 0.717647 
0.380392 0.905882 0.717647 0.380392 0.905882 0.717647 
0.380392 0.905882 0.717647 0.380392 0.905882 0.717647 
0.380392 0.905882 0.717647 0.380392 0.905882 0.717647 
0.380392 0.905882 0.717647 0.380392 0.905882 0.717647 
0.380392 0.905882 0.717647 0.380392 0.905882 0.717647 
0.380392 0.905882 0.717647 0.380392 0.905882 0.717647 
0.380392 0.905882 0.717647 0.380392 0.905882 0.717647 
0.380392 0.905882 0.717647 0.380392 0.905882 0.717647 
0.380392 0.905882 0.717647 0.380392 0.905882 0.717647 
0.380392 0.905882 0.717647 0.380392 0.905882 0.717647 
0.380392 0.905882 0.717647 0.380392 0.905882 0.717647 
0.380392 0.905882 0.717647 0.380392 0.905882 0.717647 
0.380392 0.905882 0.717647 0.380392 0.905882 0.717647 
0.380392 0.905882 0.717647 0.380392 0.905882 0.717647 
0.380392 0.905882 0.717647 0.380392 0.905882 0.717647 
0.380392 0.905882 0.717647 0.380392 0.905882 0.717647 
0.380392 0.905882 0.717647 0.380392 0.905882 0.717647 
0.380392 0.905882 0.717647 0.380392 0.905882 0.717647 
0.380392 0.905882 0.717647 0.380392 0.905882 0.717647 
0.380392 0.905882 0.717647 0.380392 0.905882 0.717647 
0.380392 0.905882 0.717647 0.380392 0.905882 0.717647 
0.380392 0.905882 0.717647 0.380392 0.905882 0.717647 
0.380392 0.905882 0.717647 0.380392 0.905882 0.717647 
0.380392 0.905882 0.717647 0.380392 0.905882 0.717647 
0.380392 0.905882 0.717647 0.380392 0.905882 0.717647 
0.380392 0.905882 0.717647 0.380392 0.905882 0.717647 
0.380392 0.905882 0.717647 0.380392 0.905882 0.717647 
0.380392 0.905882 0.717647 0.380392 0.905882 0.717647 
0.380392 0.905882 0.717647 0.380392 0.905882 0.717647 
0.380392 0.905882 0.717647 0.380392 0.905882 0.717647 
0.380392 0.905882 0.717647 0.380392 0.905882 0.717647 
0.380392 0.905882 0.717647 0.380392 0.905882 0.717647 
0.380392 0.905882 0.717647 0.380392 0.905882 0.717647 
0.380392 0.905882 0.717647 0.380392 0.905882 0.717647 
0.380392 0.905882 0.717647 0.380392 0.905882 0.717647 
0.380392 0.905882 0.717647 0.380392 0.905882 0.717647 
0.380392 0.905882 0.717647 0.380392 0.905882 0.717647 
0.380392 0.905882 0.717647 0.380392 0.905882 0.717647 
0.380392 0.905882 0.717647 0.380392 0.905882 0.717647 
0.380392 0.905882 0.717647 0.380392 0.905882 0.717647 
0.380392 0.905882 0.717647 0.380392 0.905882 0.717647 
0.380392 0.905882 0.717647 0.380392 0.905882 0.717647 
0.380392 0.905882 0.717647 0.380392 0.905882 0.717647 
0.380392 0.905882 0.717647 0.380392 0.905882 0.717647 
0.380392 0.905882 0.717647 0.380392 0.905882 0.717647 
0.380392 0.905882 0.717647 0.380392 0.905882 0.717647 
0.380392 0.905882 0.717647 0.380392 0.905882 0.717647 
0.380392 0.905882 0.717647 0.380392 0.905882 0.717647 
0.380392 0.905882 0.717647 0.380392 0.905882 0.717647 
0.380392 0.905882 0.717647 0.380392 0.905882 0.717647 
0.380392 0.905882 0.717647 0.380392 0.905882 0.717647 
0.380392 0.905882 0.717647 0.380392 0.905882 0.717647 
0.380392 0.905882 0.717647 0.380392 0.905882 0.717647 
0.380392 0.905882 0.717647 0.380392 0.905882 0.717647 
0.380392 0.905882 0.717647 0.380392 0.905882 0.717647 
0.380392 0.905882 0.717647 0.380392 0.905882 0.717647 
0.380392 0.905882 0.717647 0.380392 0.905882 0.717647 
0.380392 0.905882 0.717647 0.380392 0.905882 0.717647 
0.380392 0.905882 0.717647 0.380392 0.905882 0.717647 
0.380392 0.905882 0.717647 0.380392 0.905882 0.717647 
0.380392 0.905882 0.717647 0.380392 0.905882 0.717647 
0.380392 0.905882 0.717647 0.380392 0.905882 0.717647 
0.380392 0.905882 0.717647 0.380392 0.905882 0.717647 
0.380392 0.905882 0.717647 0.380392 0.905882 0.717647 
0.380392 0.905882 0.717647 0.380392 0.905882 0.717647 
0.380392 0.905882 0.717647 0.380392 0.905882 0.717647 
0.380392 0.905882 0.717647 0.380392 0.905882 0.717647 
0.380392 0.905882 0.717647 0.380392 0.905882 0.717647 
0.380392 0.905882 0.717647 0.380392 0.905882 0.717647 
0.380392 0.905882 0.717647 0.380392 0.905882 0.717647 
0.380392 0.905882 0.717647 0.380392 0.905882 0.717647 
0.380392 0.905882 0.717647 0.380392 0.905882 0.717647 
0.380392 0.905882 0.717647 0.380392 0.905882 0.717647 
0.380392 0.905882 0.717647 0.380392 0.905882 0.717647 
0.380392 0.905882 0.717647 0.380392 0.905882 0.717647 
0.380392 0.905882 0.717647 0.380392 0.905882 0.717647 
0.380392 0.905882 0.717647 0.380392 0.905882 0.717647 
0.380392 0.905882 0.717647 0.380392 0.905882 0.717647 
0.380392 0.905882 0.717647 0.380392 0.905882 0.717647 
0.380392 0.905882 0.717647 0.380392 0.905882 0.717647 
0.380392 0.905882 0.717647 0.380392 0.905882 0.717647 
0.380392 0.905882 0.717647 0.380392 0.905882 0.717647 
0.380392 0.905882 0.717647 0.380392 0.905882 0.717647 
0.380392 0.905882 0.717647 0.380392 0.905882 0.717647 
0.380392 0.905882 0.717647 0.380392 0.905882 0.717647 
0.380392 0.905882 0.717647 0.380392 0.905882 0.717647 
0.380392 0.905882 0.717647 0.380392 0.905882 0.717647 
0.380392 0.905882 0.717647 0.380392 0.905882 0.717647 
0.380392 0.905882 0.717647 0.380392 0.905882 0.717647 
0.380392 0.905882 0.717647 0.380392 0.905882 0.717647 
0.380392 0.905882 0.717647 0.380392 0.905882 0.717647 
0.380392 0.905882 0.717647 0.380392 0.905882 0.717647 
0.380392 0.905882 0.717647 0.380392 0.905882 0.717647 
0.380392 0.905882 0.717647 0.380392 0.905882 0.717647 
0.380392 0.905882 0.717647 0.380392 0.905882 0.717647 
0.380392 0.905882 0.717647 0.380392 0.905882 0.717647 
0.380392 0.905882 0.717647 0.380392 0.905882 0.717647 
0.380392 0.905882 0.717647 0.380392 0.905882 0.717647 
0.380392 0.905882 0.717647 0.380392 0.905882 0.717647 
0.380392 0.905882 0.717647 0.380392 0.905882 0.717647 
0.380392 0.905882 0.717647 0.380392 0.905882 0.717647 
0.380392 0.905882 0.717647 0.380392 0.905882 0.717647 
0.380392 0.905882 0.717647 0.380392 0.905882 0.717647 
0.380392 0.905882 0.717647 0.380392 0.905882 0.717647 
0.380392 0.905882 0.717647 0.380392 0.905882 0.717647 
0.380392 0.905882 0.717647 0.380392 0.905882 0.717647 
0.380392 0.905882 0.717647 0.380392 0.905882 0.717647 
0.380392 0.905882 0.717647 0.380392 0.905882 0.717647 
0.380392 0.905882 0.717647 0.380392 0.905882 0.717647 
0.380392 0.905882 0.717647 0.380392 0.905882 0.717647 
0.380392 0.905882 0.717647 0.380392 0.905882 0.717647 
0.380392 0.905882 0.717647 0.380392 0.905882 0.717647 
0.380392 0.905882 0.717647 0.380392 0.905882 0.717647 
0.380392 0.905882 0.717647 0.380392 0.905882 0.717647 
0.380392 0.905882 0.717647 0.380392 0.905882 0.717647 
0.380392 0.905882 0.717647 0.380392 0.905882 0.717647 
0.380392 0.905882 0.717647 0.380392 0.905882 0.717647 
0.380392 0.905882 0.717647 0.380392 0.905882 0.717647 
0.380392 0.905882 0.717647 0.380392 0.905882 0.717647 
0.380392 0.905882 0.717647 0.380392 0.905882 0.717647 
0.380392 0.905882 0.717647 0.380392 0.905882 0.717647 
0.380392 0.905882 0.717647 0.380392 0.905882 0.717647 
0.380392 0.905882 0.717647 0.380392 0.905882 0.717647 
0.380392 0.905882 0.717647 0.380392 0.905882 0.717647 
0.380392 0.905882 0.717647 0.380392 0.905882 0.717647 
0.380392 0.905882 0.717647 0.380392 0.905882 0.717647 
0.380392 0.905882 0.717647 0.380392 0.905882 0.717647 
0.380392 0.905882 0.717647 0.380392 0.905882 0.717647 
0.380392 0.905882 0.717647 0.380392 0.905882 0.717647 
0.380392 0.905882 0.717647 0.380392 0.905882 0.717647 
0.380392 0.905882 0.717647 0.380392 0.905882 0.717647 
0.380392 0.905882 0.717647 0.380392 0.905882 0.717647 
0.380392 0.905882 0.717647 0.380392 0.905882 0.717647 
0.380392 0.905882 0.717647 0.380392 0.905882 0.717647 
0.380392 0.905882 0.717647 0.380392 0.905882 0.717647 
0.380392 0.905882 0.717647 0.380392 0.905882 0.717647 
0.380392 0.905882 0.717647 0.380392 0.905882 0.717647 
0.380392 0.905882 0.717647 0.380392 0.905882 0.717647 
0.380392 0.905882 0.717647 0.380392 0.905882 0.717647 
0.380392 0.905882 0.717647 0.380392 0.905882 0.717647 
0.380392 0.905882 0.717647 0.380392 0.905882 0.717647 
0.380392 0.905882 0.717647 0.380392 0.905882 0.717647 
0.380392 0.905882 0.717647 0.380392 0.905882 0.717647 
0.380392 0.905882 0.717647 0.380392 0.905882 0.717647 
0.380392 0.905882 0.717647 0.380392 0.905882 0.717647 
0.380392 0.905882 0.717647 0.380392 0.905882 0.717647 
0.380392 0.905882 0.717647 0.380392 0.905882 0.717647 
0.380392 0.905882 0.717647 0.380392 0.905882 0.717647 
0.380392 0.905882 0.717647 0.380392 0.905882 0.717647 
0.380392 0.905882 0.717647 0.380392 0.905882 0.717647 
0.380392 0.905882 0.717647 0.380392 0.905882 0.717647 
0.380392 0.905882 0.717647 0.380392 0.905882 0.717647 
0.380392 0.905882 0.717647 0.380392 0.905882 0.717647 
0.380392 0.905882 0.717647 0.380392 0.905882 0.717647 
0.380392 0.905882 0.717647 0.380392 0.905882 0.717647 
0.380392 0.905882 0.717647 0.380392 0.905882 0.717647 
0.380392 0.905882 0.717647 0.380392 0.905882 0.717647 
0.380392 0.905882 0.717647 0.380392 0.905882 0.717647 
0.380392 0.905882 0.717647 0.380392 0.905882 0.717647 
0.380392 0.905882 0.717647 0.380392 0.905882 0.717647 
0.380392 0.905882 0.717647 0.380392 0.905882 0.717647 
0.380392 0.905882 0.717647 0.380392 0.905882 0.717647 
0.380392 0.905882 0.717647 0.380392 0.905882 0.717647 
0.380392 0.905882 0.717647 0.380392 0.905882 0.717647 
0.380392 0.905882 0.717647 0.380392 0.905882 0.717647 
0.380392 0.905882 0.717647 0.380392 0.905882 0.717647 
0.380392 0.905882 0.717647 0.380392 0.905882 0.717647 
0.380392 0.905882 0.717647 0.380392 0.905882 0.717647 
0.380392 0.905882 0.717647 0.380392 0.905882 0.717647 
0.380392 0.905882 0.717647 0.380392 0.905882 0.717647 
0.380392 0.905882 0.717647 0.380392 0.905882 0.717647 
0.380392 0.905882 0.717647 0.380392 0.905882 0.717647 
0.380392 0.905882 0.717647 0.380392 0.905882 0.717647 
0.380392 0.905882 0.717647 0.380392 0.905882 0.717647 
0.380392 0.905882 0.717647 0.380392 0.905882 0.717647 
0.380392 0.905882 0.717647 0.380392 0.905882 0.717647 
0.380392 0.905882 0.717647 0.380392 0.905882 0.717647 
0.380392 0.905882 0.717647 0.380392 0.905882 0.717647 
0.380392 0.905882 0.717647 0.380392 0.905882 0.717647 
0.380392 0.905882 0.717647 0.380392 0.905882 0.717647 
0.380392 0.905882 0.717647 0.380392 0.905882 0.717647 
0.380392 0.905882 0.717647 0.380392 0.905882 0.717647 
0.380392 0.905882 0.717647 0.380392 0.905882 0.717647 
0.380392 0.905882 0.717647 0.380392 0.905882 0.717647 
0.380392 0.905882 0.717647 0.380392 0.905882 0.717647 
0.380392 0.905882 0.717647 0.380392 0.905882 0.717647 
0.380392 0.905882 0.717647 0.380392 0.905882 0.717647 
0.380392 0.905882 0.717647 0.380392 0.905882 0.717647 
0.380392 0.905882 0.717647 0.380392 0.905882 0.717647 
0.380392 0.905882 0.717647 0.380392 0.905882 0.717647 
0.380392 0.905882 0.717647 0.380392 0.905882 0.717647 
0.380392 0.905882 0.717647 0.380392 0.905882 0.717647 
0.380392 0.905882 0.717647 0.380392 0.905882 0.717647 
0.380392 0.905882 0.717647 0.380392 0.905882 0.717647 
0.380392 0.905882 0.717647 0.380392 0.905882 0.717647 
0.380392 0.905882 0.717647 0.380392 0.905882 0.717647 
0.380392 0.905882 0.717647 0.380392 0.905882 0.717647 
0.380392 0.905882 0.717647 0.380392 0.905882 0.717647 
0.380392 0.905882 0.717647 0.380392 0.905882 0.717647 
0.380392 0.905882 0.717647 0.380392 0.905882 0.717647 
0.380392 0.905882 0.717647 0.380392 0.905882 0.717647 
0.380392 0.905882 0.717647 0.380392 0.905882 0.717647 
0.380392 0.905882 0.717647 0.380392 0.905882 0.717647 
0.380392 0.905882 0.717647 0.380392 0.905882 0.717647 
0.380392 0.905882 0.717647 0.380392 0.905882 0.717647 
0.380392 0.905882 0.717647 0.380392 0.905882 0.717647 
0.380392 0.905882 0.717647 0.380392 0.905882 0.717647 
0.380392 0.905882 0.717647 0.380392 0.905882 0.717647 
0.380392 0.905882 0.717647 0.380392 0.905882 0.717647 
0.380392 0.905882 0.717647 0.380392 0.905882 0.717647 
0.380392 0.905882 0.717647 0.380392 0.905882 0.717647 
0.380392 0.905882 0.717647 0.380392 0.905882 0.717647 
0.380392 0.905882 0.717647 0.380392 0.905882 0.717647 
0.380392 0.905882 0.717647 0.380392 0.905882 0.717647 
0.380392 0.905882 0.717647 0.380392 0.905882 0.717647 
0.380392 0.905882 0.717647 0.380392 0.905882 0.717647 
0.380392 0.905882 0.717647 0.380392 0.905882 0.717647 
0.380392 0.905882 0.717647 0.380392 0.905882 0.717647 
0.380392 0.905882 0.717647 0.380392 0.905882 0.717647 
0.380392 0.905882 0.717647 0.380392 0.905882 0.717647 
0.380392 0.905882 0.717647 0.380392 0.905882 0.717647 
0.380392 0.905882 0.717647 0.380392 0.905882 0.717647 
0.380392 0.905882 0.717647 0.380392 0.905882 0.717647 
0.380392 0.905882 0.717647 0.380392 0.905882 0.717647 
0.380392 0.905882 0.717647 0.380392 0.905882 0.717647 