# vtk DataFile Version 4.2
vtk output
ASCII
DATASET POLYDATA
POINTS 810 float
372.396 201.171 210.374 371.009 202.199 210.745 372.606 206.035 210.482 
372.006 197.666 210.96 374.108 202.209 210.247 387.769 188.391 213.41 
387.267 188.765 213.012 389.902 188.612 212.887 390.497 188.608 212.923 
390.389 188.327 213.241 385.107 189.678 212.644 390.984 188.861 212.854 
383.086 190.63 212.348 386.018 190.259 212.13 378.1 192.093 212.175 
374.256 192.534 212.292 376.982 192.88 211.878 376.24 192.304 212.225 
384.146 194.104 211.363 388.539 196.487 211.74 369.907 200.634 211.295 
387.805 188.164 213.928 391.199 188.186 213.653 392.889 188.385 213.802 
384.796 189.509 212.917 384.337 189.574 213.107 392.391 189.147 213.078 
393.152 188.635 213.624 381.726 190.419 213.176 381.13 190.632 213.044 
382.632 190.49 212.598 391.516 189.938 212.538 394.201 189.43 213.578 
372.848 191.701 213.345 376.42 191.111 213.538 377.783 191.244 212.986 
378.312 191.041 213.289 375.556 191.842 212.644 377.68 191.635 212.564 
392.092 191.365 212.42 370.664 193.648 212.698 366.284 200.816 213.346 
364.323 209.402 213.664 364.342 211.145 213.569 363.537 212.25 214.226 
363.853 214.688 214.015 386.748 188.374 213.887 388.239 188.041 214.431 
383.125 189.897 213.89 385.512 188.895 214.39 371.46 191.592 214.048 
379.885 190.746 213.875 369.682 192.326 214.358 375.321 190.856 214.913 
380.374 190.732 214.582 381.296 190.557 214.743 364.449 205.233 214.022 
363.366 208.811 214.796 388.85 187.935 215.141 399.128 189.06 216.005 
399.692 190.208 215.508 398.948 191.165 214.912 367.903 192.748 215.575 
375.818 191.04 216.055 362.38 212.852 215.841 389.703 213.471 214.766 
364.295 219.082 215.389 364.991 219.838 215.341 366.472 220.343 214.98 
383.414 222.185 214.652 401.066 189.121 216.835 372.66 190.258 216.389 
401.701 189.754 216.624 370.129 190.977 216.374 401.851 191.1 216.084 
381.068 191.127 216.263 376.105 191.201 216.716 366.525 193.77 216.235 
364.472 198.669 216.086 362.205 210.729 216.831 363.465 219.366 216.512 
403.415 189.897 217.412 373.796 190.16 217.36 404.445 190.182 217.738 
405.439 191.351 217.789 405.673 191.758 217.843 405.709 192.585 217.744 
405.934 192.329 218.082 405.222 193.611 217.224 406.004 193.826 218.033 
405.181 195.503 217.066 404.537 198.82 216.583 405.146 201.436 217.12 
403.515 204.998 216.47 405.051 206.185 217.552 403.001 209.356 217.038 
362.68 218.37 217.523 364.679 223.176 218.045 382.784 225.685 216.568 
386.122 226.661 217.639 397.14 187.54 218.161 401.863 188.545 218.164 
403.024 188.983 218.035 372.044 190.03 217.999 404.733 189.95 218.189 
404.512 189.676 218.435 404.91 189.969 218.45 404.708 190.138 217.956 
369.492 190.997 218.559 405.402 191.019 217.875 405.547 191.064 218.059 
382.397 191.121 217.57 365.811 194.141 218.355 406.215 194.259 218.494 
405.984 201.582 218.038 406.216 201.022 218.504 406.008 204.949 218.582 
405.501 206.291 218.074 404.981 209.843 218.306 399.004 213.019 217.173 
403.802 212.195 218.433 389.817 223.279 217.799 364.234 223.3 218.851 
388.455 226.136 218.325 386.61 227.366 218.546 387.192 227.122 218.542 
403.131 188.77 218.751 403.61 188.936 219.192 374.246 189.903 219.187 
405.172 190.082 219.154 371.433 190.097 219.237 370.775 190.356 218.688 
405.62 190.736 218.731 405.671 190.735 219.09 377.092 191.557 218.389 
382.832 191.086 218.692 406.195 204.193 219.299 405.964 207.375 219.364 
361.968 209.834 219.299 405.83 210.884 219.652 405.966 210.462 219.835 
402.659 214.885 219.362 400.902 215.496 219.14 362.335 217.95 218.838 
397.752 217.794 219.845 392.198 220.396 218.277 363.827 222.863 219.234 
364.934 224.612 219.532 390.372 187.981 219.732 402.25 188.312 219.45 
403.449 188.846 219.818 405.461 190.438 219.36 405.892 191.568 219.435 
367.687 192.226 219.929 376.594 191.159 218.768 380.348 191.429 219.537 
406.137 193.167 219.489 406.254 196.939 219.488 406.145 203.678 219.688 
406.061 209.592 220.328 405.879 212.367 220.526 405.159 213.758 220.258 
403.603 215.088 220.049 400.204 216.671 219.881 365.345 225.476 220.168 
389.965 225.779 220.03 388.988 226.696 219.639 385.619 228.66 220.097 
402.783 188.506 220 372.526 189.794 220.544 376.682 190.167 220.547 
405.392 190.548 219.79 405.617 191.113 219.871 405.887 192.581 219.959 
405.98 194.353 219.976 405.948 203.046 220.096 405.803 205.99 220.316 
405.96 212.37 221.507 405.809 213.275 221.075 405.116 214.503 220.851 
405.449 214.192 221.132 403.857 215.57 220.722 402.572 216.495 221.078 
399.116 217.804 220.725 398.437 218.48 221.621 393.546 221.554 221.165 
363.539 223.206 221.752 367.855 226.958 220.422 397.767 187.514 221.536 
373.518 189.695 221.481 374.04 189.683 221.599 403.684 189.466 220.946 
403.394 190.419 221.81 399.714 191.867 222.974 405.416 191.289 220.32 
384.192 190.223 220.969 399.865 193.077 222.407 405.13 192.176 220.807 
405.141 193.011 220.819 405.607 193.688 220.419 404.402 195.192 221.091 
397.34 197.399 222.7 396.816 198.37 222.986 397.144 198.873 222.822 
405.197 198.836 220.675 398.631 200.081 222.34 403.855 201.803 221.303 
404.491 202.669 221.14 405.051 203.478 220.907 405.567 203.291 220.524 
400.175 204.648 222.567 405.395 207.407 221.083 405.785 210.125 221.35 
405.744 214.122 222.09 398.393 218.701 222.467 364.178 224.621 222.231 
365.033 225.862 222.096 389.938 226.253 221.486 366.303 227.191 222.282 
366.864 227.509 222.285 367.615 227.725 222.088 382.327 229.639 221.921 
396.733 187.637 222.513 379.077 189.726 223.088 403.725 189.87 221.355 
397.295 192.202 224.072 367.43 193.23 222.723 396.508 193.037 224.185 
395.813 196.374 223.912 398.444 203.94 223.067 405.411 210.34 221.923 
362.076 211.925 223.019 405.741 213.713 222.682 405.71 214.207 222.632 
400.864 217.747 222.301 401.942 217.447 222.846 396.348 219.786 222.507 
394.027 221.496 223.157 363.87 224.016 222.746 391.297 224.446 222.26 
365.461 226.421 222.991 366.763 227.635 223.006 367.335 227.794 222.591 
368.81 228.055 222.483 367.122 227.792 222.963 368.334 228.01 222.961 
386.503 229.219 222.661 382.7 229.89 222.757 385.178 229.766 223.108 
384.839 229.85 223.397 398.482 187.881 222.954 400.042 189.838 223.833 
400.126 189.231 223.834 399.342 190.063 224.307 396.683 192.283 224.799 
370.538 191.642 223.555 395.386 194.808 224.701 395.157 196.927 224.93 
395.401 197.399 224.44 395.58 199.215 224.46 397.066 204.692 224.361 
398.451 207.538 224.556 405.427 215.119 223.162 402.091 217.419 223.364 
403.893 216.563 223.393 397.7 219.087 223.297 397.991 218.882 223.693 
399.579 218.13 223.779 363.847 223.561 223.762 391.344 224.005 223.699 
390.473 225.198 223.442 366.066 226.976 223.447 366.244 227.218 223.24 
366.938 227.707 223.198 366.996 227.629 223.425 374.501 228.43 223.381 
387.596 228.417 223.316 368.601 227.944 223.435 380.277 229.566 223.35 
385.749 229.32 223.785 384.186 229.844 223.856 401.309 188.601 222.836 
383.905 189.308 224.807 399.255 189.068 224.428 400.963 188.699 223.151 
375.756 190.05 224.22 395.37 194.148 225.197 395.345 199.269 224.988 
396.249 203.147 224.896 397.757 207.137 225.473 398.404 209.264 225.736 
362.312 213.115 224.972 405.22 213.688 223.76 405.359 214.722 223.829 
404.667 215.933 223.938 402.481 217.173 224.106 397.858 218.753 224.236 
400.111 217.717 224.38 364.418 224.069 224.356 391.005 224.003 224.281 
388.776 227.166 223.765 369.71 227.821 224.01 371.604 228.037 223.936 
386.847 228.445 224.17 381.488 229.726 223.988 385.158 229.551 223.928 
384.748 229.517 224.185 381.243 229.579 224.317 398.23 188.623 224.732 
400.953 188.432 222.952 398.569 189.34 225.463 398.028 190.652 225.499 
398.192 190.347 225.73 398.418 189.966 225.686 373.767 191.114 225.648 
395.32 199.799 225.536 396.583 204.308 225.395 397.91 209.273 226.427 
398.72 210.781 225.947 362.729 214.456 225.954 405.18 214.659 224.218 
404.988 214.839 224.446 405.134 215.225 224.064 404.451 215.931 224.318 
402.521 217.014 224.411 402.788 216.743 224.6 397.991 218.01 225.198 
399.647 217.462 224.987 401.445 217.028 224.802 402.229 216.847 224.735 
394.548 220.374 224.849 364.869 223.343 225.21 392.068 221.949 225.223 
389.631 223.687 225.606 366.578 225.249 225.22 389.585 224.335 225.247 
370.993 226.601 225.354 385.089 226.658 225.889 370.796 227.198 224.889 
379.462 227.784 225.66 382.439 227.048 226.032 387.28 227.115 225.011 
387.905 227.181 224.589 381.22 229.356 224.618 398.447 189.256 225.882 
393.827 188.287 227.108 398.273 189.675 226.508 398.09 190.219 226.751 
394.878 196.665 226.532 397.312 206.375 226.529 397.535 207.601 226.681 
397.602 209.499 226.99 400.412 213.296 225.814 363.167 214.88 226.959 
364.019 217.564 226.144 399.774 215.623 225.978 403.188 215.372 225.218 
404.819 215.21 224.48 402.124 215.931 225.349 402.814 215.803 225.212 
395.142 217.955 226.428 399.108 217.081 225.515 385.037 220.767 227.533 
386.93 220.45 227.444 377.783 226.408 226.182 396.991 188.763 227.141 
397.783 189.153 226.853 398.206 189.245 226.257 395.71 188.418 227.878 
397.558 189.092 228.058 398.076 189.648 227.52 398.346 189.938 227.039 
398.35 189.829 227.176 398.433 189.957 227.237 398.451 189.91 227.219 
398.48 189.93 227.279 398.252 190.063 227.261 398.42 189.953 227.307 
396.059 192.481 227.844 368.393 193.972 227.643 364.872 198.51 228.055 
396.962 203.467 227.901 397.143 203.817 227.872 397.185 204.082 227.732 
397.275 204.061 227.887 397.316 204.132 227.943 397.221 204.616 227.718 
397.268 204.378 227.971 397.291 204.192 227.998 397.214 204.637 228.06 
397.401 207.534 227.475 397.369 210.253 228.377 396.693 212.447 227.961 
397.359 211.991 227.124 395.301 214.758 227.837 363.869 215.856 227.305 
394.781 215.332 227.655 365.331 217.131 227.582 393.807 216.338 227.621 
393.302 216.792 227.768 366.211 217.736 227.804 392.2 217.726 227.735 
392.79 217.276 227.808 394.098 216.443 227.365 366.223 218.154 227.287 
367.624 218.591 227.712 391.606 218.231 227.519 391.004 218.576 227.711 
368.975 219.294 227.739 387.968 219.996 227.67 390.49 218.905 227.542 
371.292 220.23 227.757 371.533 220.346 227.58 372.443 220.541 227.733 
[...]
POINT_DATA 810
COLOR_SCALARS scalars 3
1 0.764706 0.584314 1 0.764706 0.584314 1 0.764706 0.584314 
1 0.764706 0.584314 1 0.764706 0.584314 
1 0.764706 0.584314 1 0.764706 0.584314 
1 0.764706 0.584314 1 0.764706 0.584314 
1 0.764706 0.584314 1 0.764706 0.584314 
1 0.764706 0.584314 1 0.764706 0.584314 
1 0.764706 0.584314 1 0.764706 0.584314 
1 0.764706 0.584314 1 0.764706 0.584314 
1 0.764706 0.584314 1 0.764706 0.584314 
1 0.764706 0.584314 1 0.764706 0.584314 
1 0.764706 0.584314 1 0.764706 0.584314 
1 0.764706 0.584314 1 0.764706 0.584314 
1 0.764706 0.584314 1 0.764706 0.584314 
1 0.764706 0.584314 1 0.764706 0.584314 
1 0.764706 0.584314 1 0.764706 0.584314 
1 0.764706 0.584314 1 0.764706 0.584314 
1 0.764706 0.584314 1 0.764706 0.584314 
1 0.764706 0.584314 1 0.764706 0.584314 
1 0.764706 0.584314 1 0.764706 0.584314 
1 0.764706 0.584314 1 0.764706 0.584314 
1 0.764706 0.584314 1 0.764706 0.584314 
1 0.764706 0.584314 1 0.764706 0.584314 
1 0.764706 0.584314 1 0.764706 0.584314 
1 0.764706 0.584314 1 0.764706 0.584314 
1 0.764706 0.584314 1 0.764706 0.584314 
1 0.764706 0.584314 1 0.764706 0.584314 
1 0.764706 0.584314 1 0.764706 0.584314 
1 0.764706 0.584314 1 0.764706 0.584314 
1 0.764706 0.584314 1 0.764706 0.584314 
1 0.764706 0.584314 1 0.764706 0.584314 
1 0.764706 0.584314 1 0.764706 0.584314 
1 0.764706 0.584314 1 0.764706 0.584314 
1 0.764706 0.584314 1 0.764706 0.584314 
1 0.764706 0.584314 1 0.764706 0.584314 
1 0.764706 0.584314 1 0.764706 0.584314 
1 0.764706 0.584314 1 0.764706 0.584314 
1 0.764706 0.584314 1 0.764706 0.584314 
1 0.764706 0.584314 1 0.764706 0.584314 
1 0.764706 0.584314 1 0.764706 0.584314 
1 0.764706 0.584314 1 0.764706 0.584314 
1 0.764706 0.584314 1 0.764706 0.584314 
1 0.764706 0.584314 1 0.764706 0.584314 
1 0.764706 0.584314 1 0.764706 0.584314 
1 0.764706 0.584314 1 0.764706 0.584314 
1 0.764706 0.584314 1 0.764706 0.584314 
1 0.764706 0.584314 1 0.764706 0.584314 
1 0.764706 0.584314 1 0.764706 0.584314 
1 0.764706 0.584314 1 0.764706 0.584314 
1 0.764706 0.584314 1 0.764706 0.584314 
1 0.764706 0.584314 1 0.764706 0.584314 
1 0.764706 0.584314 1 0.764706 0.584314 
1 0.764706 0.584314 1 0.764706 0.584314 
1 0.764706 0.584314 1 0.764706 0.584314 
1 0.764706 0.584314 1 0.764706 0.584314 
1 0.764706 0.584314 1 0.764706 0.584314 
1 0.764706 0.584314 1 0.764706 0.584314 
1 0.764706 0.584314 1 0.764706 0.584314 
1 0.764706 0.584314 1 0.764706 0.584314 
1 0.764706 0.584314 1 0.764706 0.584314 
1 0.764706 0.584314 1 0.764706 0.584314 
1 0.764706 0.584314 1 0.764706 0.584314 
1 0.764706 0.584314 1 0.764706 0.584314 
1 0.764706 0.584314 1 0.764706 0.584314 
1 0.764706 0.584314 1 0.764706 0.584314 
1 0.764706 0.584314 1 0.764706 0.584314 
1 0.764706 0.584314 1 0.764706 0.584314 
1 0.764706 0.584314 1 0.764706 0.584314 
1 0.764706 0.584314 1 0.764706 0.584314 
1 0.764706 0.584314 1 0.764706 0.584314 
1 0.764706 0.584314 1 0.764706 0.584314 
1 0.764706 0.584314 1 0.764706 0.584314 
1 0.764706 0.584314 1 0.764706 0.584314 
1 0.764706 0.584314 1 0.764706 0.584314 
1 0.764706 0.584314 1 0.764706 0.584314 
1 0.764706 0.584314 1 0.764706 0.584314 
1 0.764706 0.584314 1 0.764706 0.584314 
1 0.764706 0.584314 1 0.764706 0.584314 
1 0.764706 0.584314 1 0.764706 0.584314 
1 0.764706 0.584314 1 0.764706 0.584314 
1 0.764706 0.584314 1 0.764706 0.584314 
1 0.764706 0.584314 1 0.764706 0.584314 
1 0.764706 0.584314 1 0.764706 0.584314 
1 0.764706 0.584314 1 0.764706 0.584314 
1 0.764706 0.584314 1 0.764706 0.584314 
1 0.764706 0.584314 1 0.764706 0.584314 
1 0.764706 0.584314 1 0.764706 0.584314 
1 0.764706 0.584314 1 0.764706 0.584314 
1 0.764706 0.584314 1 0.764706 0.584314 
1 0.764706 0.584314 1 0.764706 0.584314 
1 0.764706 0.584314 1 0.764706 0.584314 
1 0.764706 0.584314 1 0.764706 0.584314 
1 0.764706 0.584314 1 0.764706 0.584314 
1 0.764706 0.584314 1 0.764706 0.584314 
1 0.764706 0.584314 1 0.764706 0.584314 
1 0.764706 0.584314 1 0.764706 0.584314 
1 0.764706 0.584314 1 0.764706 0.584314 
1 0.764706 0.584314 1 0.764706 0.584314 
1 0.764706 0.584314 1 0.764706 0.584314 
1 0.764706 0.584314 1 0.764706 0.584314 
1 0.764706 0.584314 1 0.764706 0.584314 
1 0.764706 0.584314 1 0.764706 0.584314 
1 0.764706 0.584314 1 0.764706 0.584314 
1 0.764706 0.584314 1 0.764706 0.584314 
1 0.764706 0.584314 1 0.764706 0.584314 
1 0.764706 0.584314 1 0.764706 0.584314 
1 0.764706 0.584314 1 0.764706 0.584314 
1 0.764706 0.584314 1 0.764706 0.584314 
1 0.764706 0.584314 1 0.764706 0.584314 
1 0.764706 0.584314 1 0.764706 0.584314 
1 0.764706 0.584314 1 0.764706 0.584314 
1 0.764706 0.584314 1 0.764706 0.584314 
1 0.764706 0.584314 1 0.764706 0.584314 
1 0.764706 0.584314 1 0.764706 0.584314 
1 0.764706 0.584314 1 0.764706 0.584314 
1 0.764706 0.584314 1 0.764706 0.584314 
1 0.764706 0.584314 1 0.764706 0.584314 
1 0.764706 0.584314 1 0.764706 0.584314 
1 0.764706 0.584314 1 0.764706 0.584314 
1 0.764706 0.584314 1 0.764706 0.584314 
1 0.764706 0.584314 1 0.764706 0.584314 
1 0.764706 0.584314 1 0.764706 0.584314 
1 0.764706 0.584314 1 0.764706 0.584314 
1 0.764706 0.584314 1 0.764706 0.584314 
1 0.764706 0.584314 1 0.764706 0.584314 
1 0.764706 0.584314 1 0.764706 0.584314 
1 0.764706 0.584314 1 0.764706 0.584314 
1 0.764706 0.584314 1 0.764706 0.584314 
1 0.764706 0.584314 1 0.764706 0.584314 
1 0.764706 0.584314 1 0.764706 0.584314 
1 0.764706 0.584314 1 0.764706 0.584314 
1 0.764706 0.584314 1 0.764706 0.584314 
1 0.764706 0.584314 1 0.764706 0.584314 
1 0.764706 0.584314 1 0.764706 0.584314 
1 0.764706 0.584314 1 0.764706 0.584314 
1 0.764706 0.584314 1 0.764706 0.584314 
1 0.764706 0.584314 1 0.764706 0.584314 
1 0.764706 0.584314 1 0.764706 0.584314 
1 0.764706 0.584314 1 0.764706 0.584314 
1 0.764706 0.584314 1 0.764706 0.584314 
1 0.764706 0.584314 1 0.764706 0.584314 
1 0.764706 0.584314 1 0.764706 0.584314 
1 0.764706 0.584314 1 0.764706 0.584314 
1 0.764706 0.584314 1 0.764706 0.584314 
1 0.764706 0.584314 1 0.764706 0.584314 
1 0.764706 0.584314 1 0.764706 0.584314 
1 0.764706 0.584314 1 0.764706 0.584314 
1 0.764706 0.584314 1 0.764706 0.584314 
1 0.764706 0.584314 1 0.764706 0.584314 
1 0.764706 0.584314 1 0.764706 0.584314 
1 0.764706 0.584314 1 0.764706 0.584314 
1 0.764706 0.584314 1 0.764706 0.584314 
1 0.764706 0.584314 1 0.764706 0.584314 
1 0.764706 0.584314 1 0.764706 0.584314 
1 0.764706 0.584314 1 0.764706 0.584314 
1 0.764706 0.584314 1 0.764706 0.584314 
1 0.764706 0.584314 1 0.764706 0.584314 
1 0.764706 0.584314 1 0.764706 0.584314 
1 0.764706 0.584314 1 0.764706 0.584314 
1 0.764706 0.584314 1 0.764706 0.584314 
1 0.764706 0.584314 1 0.764706 0.584314 
1 0.764706 0.584314 1 0.764706 0.584314 
1 0.764706 0.584314 1 0.764706 0.584314 
1 0.764706 0.584314 1 0.764706 0.584314 
1 0.764706 0.584314 1 0.764706 0.584314 
1 0.764706 0.584314 1 0.764706 0.584314 
1 0.764706 0.584314 1 0.764706 0.584314 
1 0.764706 0.584314 1 0.764706 0.584314 
1 0.764706 0.584314 1 0.764706 0.584314 
1 0.764706 0.584314 1 0.764706 0.584314 
1 0.764706 0.584314 1 0.764706 0.584314 
1 0.764706 0.584314 1 0.764706 0.584314 
1 0.764706 0.584314 1 0.764706 0.584314 
1 0.764706 0.584314 1 0.764706 0.584314 
1 0.764706 0.584314 1 0.764706 0.584314 
1 0.764706 0.584314 1 0.764706 0.584314 
1 0.764706 0.584314 1 0.764706 0.584314 
1 0.764706 0.584314 1 0.764706 0.584314 
1 0.764706 0.584314 1 0.764706 0.584314 
1 0.764706 0.584314 1 0.764706 0.584314 
1 0.764706 0.584314 1 0.764706 0.584314 
1 0.764706 0.584314 1 0.764706 0.584314 
1 0.764706 0.584314 1 0.764706 0.584314 
1 0.764706 0.584314 1 0.764706 0.584314 
1 0.764706 0.584314 1 0.764706 0.584314 
1 0.764706 0.584314 1 0.764706 0.584314 
1 0.764706 0.584314 1 0.764706 0.584314 
1 0.764706 0.584314 1 0.764706 0.584314 
1 0.764706 0.584314 1 0.764706 0.584314 
1 0.764706 0.584314 1 0.764706 0.584314 
1 0.764706 0.584314 1 0.764706 0.584314 
1 0.764706 0.584314 1 0.764706 0.584314 
1 0.764706 0.584314 1 0.764706 0.584314 
1 0.764706 0.584314 1 0.764706 0.584314 
1 0.764706 0.584314 1 0.764706 0.584314 
1 0.764706 0.584314 1 0.764706 0.584314 
1 0.764706 0.584314 1 0.764706 0.584314 
1 0.764706 0.584314 1 0.764706 0.584314 
1 0.764706 0.584314 1 0.764706 0.584314 
1 0.764706 0.584314 1 0.764706 0.584314 
1 0.764706 0.584314 1 0.764706 0.584314 
1 0.764706 0.584314 1 0.764706 0.584314 
1 0.764706 0.584314 1 0.764706 0.584314 
1 0.764706 0.584314 1 0.764706 0.584314 
1 0.764706 0.584314 1 0.764706 0.584314 
1 0.764706 0.584314 1 0.764706 0.584314 
1 0.764706 0.584314 1 0.764706 0.584314 
1 0.764706 0.584314 1 0.764706 0.584314 
1 0.764706 0.584314 1 0.764706 0.584314 
1 0.764706 0.584314 1 0.764706 0.584314 
1 0.764706 0.584314 1 0.764706 0.584314 
1 0.764706 0.584314 1 0.764706 0.584314 
1 0.764706 0.584314 1 0.764706 0.584314 
1 0.764706 0.584314 1 0.764706 0.584314 
1 0.764706 0.584314 1 0.764706 0.584314 
1 0.764706 0.584314 1 0.764706 0.584314 
1 0.764706 0.584314 1 0.764706 0.584314 
1 0.764706 0.584314 1 0.764706 0.584314 
1 0.764706 0.584314 1 0.764706 0.584314 
1 0.764706 0.584314 1 0.764706 0.584314 
1 0.764706 0.584314 1 0.764706 0.584314 
1 0.764706 0.584314 1 0.764706 0.584314 
1 0.764706 0.584314 1 0.764706 0.584314 
1 0.764706 0.584314 1 0.764706 0.584314 
1 0.764706 0.584314 1 0.764706 0.584314 
1 0.764706 0.584314 1 0.764706 0.584314 
1 0.764706 0.584314 1 0.764706 0.584314 
1 0.764706 0.584314 1 0.764706 0.584314 
1 0.764706 0.584314 1 0.764706 0.584314 
1 0.764706 0.584314 1 0.764706 0.584314 
1 0.764706 0.584314 1 0.764706 0.584314 
1 0.764706 0.584314 1 0.764706 0.584314 
1 0.764706 0.584314 1 0.764706 0.584314 
1 0.764706 0.584314 1 0.764706 0.584314 
1 0.764706 0.584314 1 0.764706 0.584314 
1 0.764706 0.584314 1 0.764706 0.584314 
1 0.764706 0.584314 1 0.764706 0.584314 
1 0.764706 0.584314 1 0.764706 0.584314 
1 0.764706 0.584314 1 0.764706 0.584314 
1 0.764706 0.584314 1 0.764706 0.584314 
1 0.764706 0.584314 1 0.764706 0.584314 
1 0.764706 0.584314 1 0.764706 0.584314 
1 0.764706 0.584314 1 0.764706 0.584314 
1 0.764706 0.584314 1 0.764706 0.584314 
1 0.764706 0.584314 1 0.764706 0.584314 
1 0.764706 0.584314 1 0.764706 0.584314 
1 0.764706 0.584314 1 0.764706 0.584314 
1 0.764706 0.584314 1 0.764706 0.584314 
1 0.764706 0.584314 1 0.764706 0.584314 
1 0.764706 0.584314 1 0.764706 0.584314 
1 0.764706 0.584314 1 0.764706 0.584314 
1 0.764706 0.584314 1 0.764706 0.584314 
1 0.764706 0.584314 1 0.764706 0.584314 
1 0.764706 0.584314 1 0.764706 0.584314 
1 0.764706 0.584314 1 0.764706 0.584314 
1 0.764706 0.584314 1 0.764706 0.584314 
1 0.764706 0.584314 1 0.764706 0.584314 
1 0.764706 0.584314 1 0.764706 0.584314 
1 0.764706 0.584314 1 0.764706 0.584314 
1 0.764706 0.584314 1 0.764706 0.584314 
1 0.764706 0.584314 1 0.764706 0.584314 
1 0.764706 0.584314 1 0.764706 0.584314 
1 0.764706 0.584314 1 0.764706 0.584314 
1 0.764706 0.584314 1 0.764706 0.584314 
1 0.764706 0.584314 1 0.764706 0.584314 
1 0.764706 0.584314 1 0.764706 0.584314 
1 0.764706 0.584314 1 0.764706 0.584314 
1 0.764706 0.584314 1 0.764706 0.584314 
1 0.764706 0.584314 1 0.764706 0.584314 
1 0.764706 0.584314 1 0.764706 0.584314 
1 0.764706 0.584314 1 0.764706 0.584314 
1 0.764706 0.584314 1 0.764706 0.584314 
1 0.764706 0.584314 1 0.764706 0.584314 
1 0.764706 0.584314 1 0.764706 0.584314 
1 0.764706 0.584314 1 0.764706 0.584314 
1 0.764706 0.584314 1 0.764706 0.584314 
1 0.764706 0.584314 1 0.764706 0.584314 
1 0.764706 0.584314 1 0.764706 0.584314 
1 0.764706 0.584314 1 0.764706 0.584314 
1 0.764706 0.584314 1 0.764706 0.584314 
1 0.764706 0.584314 1 0.764706 0.584314 
1 0.764706 0.584314 1 0.764706 0.584314 
1 0.764706 0.584314 1 0.764706 0.584314 
1 0.764706 0.584314 1 0.764706 0.584314 
1 0.764706 0.584314 1 0.764706 0.584314 
1 0.764706 0.584314 1 0.764706 0.584314 
1 0.764706 0.584314 1 0.764706 0.584314 
1 0.764706 0.584314 1 0.764706 0.584314 
1 0.764706 0.584314 1 0.764706 0.584314 
1 0.764706 0.584314 1 0.764706 0.584314 
1 0.764706 0.584314 1 0.764706 0.584314 
1 0.764706 0.584314 1 0.764706 0.584314 
1 0.764706 0.584314 1 0.764706 0.584314 
1 0.764706 0.584314 1 0.764706 0.584314 
1 0.764706 0.584314 1 0.764706 0.584314 
1 0.764706 0.584314 1 0.764706 0.584314 
1 0.764706 0.584314 1 0.764706 0.584314 
1 0.764706 0.584314 1 0.764706 0.584314 
1 0.764706 0.584314 1 0.764706 0.584314 
1 0.764706 0.584314 1 0.764706 0.584314 
1 0.764706 0.584314 1 0.764706 0.584314 
1 0.764706 0.584314 1 0.764706 0.584314 
1 0.764706 0.584314 1 0.764706 0.584314 
1 0.764706 0.584314 1 0.764706 0.584314 
1 0.764706 0.584314 1 0.764706 0.584314 
1 0.764706 0.584314 1 0.764706 0.584314 
1 0.764706 0.584314 1 0.764706 0.584314 
1 0.764706 0.584314 1 0.764706 0.584314 
1 0.764706 0.584314 1 0.764706 0.584314 
1 0.764706 0.584314 1 0.764706 0.584314 
1 0.764706 0.584314 1 0.764706 0.584314 
1 0.764706 0.584314 1 0.764706 0.584314 
1 0.764706 0.584314 1 0.764706 0.584314 
1 0.764706 0.584314 1 0.764706 0.584314 
1 0.764706 0.584314 1 0.764706 0.584314 
1 0.764706 0.584314 1 0.764706 0.584314 
1 0.764706 0.584314 1 0.764706 0.584314 
1 0.764706 0.584314 1 0.764706 0.584314 
1 0.764706 0.584314 1 0.764706 0.584314 
1 0.764706 0.584314 1 0.764706 0.584314 
1 0.764706 0.584314 1 0.764706 0.584314 
1 0.764706 0.584314 1 0.764706 0.584314 
1 0.764706 0.584314 1 0.764706 0.584314 
1 0.764706 0.584314 1 0.764706 0.584314 
1 0.764706 0.584314 1 0.764706 0.584314 
1 0.764706 0.584314 1 0.764706 0.584314 
1 0.764706 0.584314 1 0.764706 0.584314 
1 0.764706 0.584314 1 0.764706 0.584314 
1 0.764706 0.584314 1 0.764706 0.584314 
1 0.764706 0.584314 1 0.764706 0.584314 
1 0.764706 0.584314 1 0.764706 0.584314 
1 0.764706 0.584314 1 0.764706 0.584314 
1 0.764706 0.584314 1 0.764706 0.584314 
1 0.764706 0.584314 1 0.764706 0.584314 
1 0.764706 0.584314 1 0.764706 0.584314 
1 0.764706 0.584314 1 0.764706 0.584314 
1 0.764706 0.584314 1 0.764706 0.584314 
1 0.764706 0.584314 1 0.764706 0.584314 
1 0.764706 0.584314 1 0.764706 0.584314 
1 0.764706 0.584314 1 0.764706 0.584314 
1 0.764706 0.584314 1 0.764706 0.584314 
1 0.764706 0.584314 1 0.764706 0.584314 
1 0.764706 0.584314 1 0.764706 0.584314 
1 0.764706 0.584314 1 0.764706 0.584314 
1 0.764706 0.584314 1 0.764706 0.584314 
1 0.764706 0.584314 1 0.764706 0.584314 
1 0.764706 0.584314 1 0.764706 0.584314 
1 0.764706 0.584314 1 0.764706 0.584314 
1 0.764706 0.584314 1 0.764706 0.584314 
1 0.764706 0.584314 1 0.764706 0.584314 
1 0.764706 0.584314 1 0.764706 0.584314 
1 0.764706 0.584314 1 0.764706 0.584314 
1 0.764706 0.584314 1 0.764706 0.584314 
1 0.764706 0.584314 1 0.764706 0.584314 
1 0.764706 0.584314 1 0.764706 0.584314 
1 0.764706 0.584314 1 0.764706 0.584314 
1 0.764706 0.584314 1 0.764706 0.584314 
1 0.764706 0.584314 1 0.764706 0.584314 
1 0.764706 0.584314 1 0.764706 0.584314 
1 0.764706 0.584314 1 0.764706 0.584314 
1 0.764706 0.584314 1 0.764706 0.584314 
1 0.764706 0.584314 1 0.764706 0.584314 
1 0.764706 0.584314 1 0.764706 0.584314 
1 0.764706 0.584314 1 0.764706 0.584314 
1 0.764706 0.584314 1 0.764706 0.584314 
1 0.764706 0.584314 1 0.764706 0.584314 
1 0.764706 0.584314 1 0.764706 0.584314 
1 0.764706 0.584314 1 0.764706 0.584314 
1 0.764706 0.584314 1 0.764706 0.584314 
1 0.764706 0.584314 1 0.764706 0.584314 
1 0.764706 0.584314 1 0.764706 0.584314 
1 0.764706 0.584314 1 0.764706 0.584314 
1 0.764706 0.584314 1 0.764706 0.584314 
1 0.764706 0.584314 1 0.764706 0.584314 
1 0.764706 0.584314 1 0.764706 0.584314 
1 0.764706 0.584314 1 0.764706 0.584314 
1 0.764706 0.584314 1 0.764706 0.584314 
1 0.764706 0.584314 1 0.764706 0.584314 
1 0.764706 0.584314 1 0.764706 0.584314 
1 0.764706 0.584314 1 0.764706 0.584314 
1 0.764706 0.584314 1 0.764706 0.584314 
1 0.764706 0.584314 1 0.764706 0.584314 
1 0.764706 0.584314 1 0.764706 0.584314 
1 0.764706 0.584314 1 0.764706 0.584314 
1 0.764706 0.584314 1 0.764706 0.584314 
1 0.764706 0.584314 1 0.764706 0.584314 
1 0.764706 0.584314 1 0.764706 0.584314 
1 0.764706 0.584314 1 0.764706 0.584314 
1 0.764706 0.584314 1 0.764706 0.584314 
1 0.764706 0.584314 1 0.764706 0.584314 
1 0.764706 0.584314 1 0.764706 0.584314 
1 0.764706 0.584314 1 0.764706 0.584314 
1 0.764706 0.584314 1 0.764706 0.584314 
1 0.764706 0.584314 1 0.764706 0.584314 
1 0.764706 0.584314 1 0.764706 0.584314 
1 0.764706 0.584314 1 0.764706 0.584314 
1 0.764706 0.584314 1 0.764706 0.584314 
1 0.764706 0.584314 1 0.764706 0.584314 
1 0.764706 0.584314 1 0.764706 0.584314 
1 0.764706 0.584314 1 0.764706 0.584314 
1 0.764706 0.584314 1 0.764706 0.584314 
1 0.764706 0.584314 1 0.764706 0.584314 
1 0.764706 0.584314 1 0.764706 0.584314 
1 0.764706 0.584314 1 0.764706 0.584314 
1 0.764706 0.584314 1 0.764706 0.584314 
1 0.764706 0.584314 
NORMALS Normals float
-0.197685 -0.063547 -0.978204 -0.344341 0.0714545 -0.936122 -0.220751 0.130815 -0.966518 
-0.133751 -0.178748 -0.974761 -0.0212749 -0.0164373 -0.999639 0.0770136 -0.790216 -0.607971 
0.0289988 -0.62989 -0.776143 -0.0515618 -0.628837 -0.775826 0.110722 -0.558315 -0.822207 
0.0143761 -0.875228 -0.483497 -0.211556 -0.673101 -0.708646 0.31466 -0.599087 -0.736263 
-0.232631 -0.547152 -0.804057 0.0175382 -0.415052 -0.909628 -0.106767 -0.664243 -0.739853 
-0.224299 -0.435636 -0.871729 -0.119889 -0.302248 -0.94566 -0.0629508 -0.607601 -0.791743 
-0.0138128 0.0728331 -0.997249 0.154478 0.0141498 -0.987895 -0.490897 -0.128592 -0.861675 
-0.119968 -0.988844 -0.0882968 0.201583 -0.799012 -0.56652 0.166615 -0.860768 -0.480954 
-0.282375 -0.912259 -0.296728 -0.282907 -0.90032 -0.330737 0.226949 -0.399606 -0.888149 
0.323944 -0.646969 -0.690284 -0.241507 -0.949074 -0.20232 -0.195002 -0.940176 -0.279362 
-0.357722 -0.68469 -0.635007 0.16577 -0.308157 -0.936782 0.340896 -0.507117 -0.791595 
-0.195335 -0.758161 -0.622122 -0.0940569 -0.873624 -0.477424 -0.0528687 -0.796924 -0.601761 
-0.0334509 -0.93031 -0.365246 -0.13097 -0.758645 -0.638205 -0.0540999 -0.669283 -0.741035 
0.273646 -0.111025 -0.955401 -0.439055 -0.400588 -0.804214 -0.71386 -0.264957 -0.64823 
-0.677114 -0.0447396 -0.734517 -0.607386 -0.0637939 -0.791841 -0.769336 -0.0872939 -0.632853 
-0.54745 0.162935 -0.820823 -0.252956 -0.91484 -0.314771 -0.0815086 -0.98451 -0.155232 
-0.305799 -0.951546 0.0323654 -0.334095 -0.939161 0.0797346 -0.333281 -0.702119 -0.629248 
-0.163327 -0.982285 0.0918754 -0.478765 -0.652446 -0.587451 0.345149 -0.93199 -0.110757 
-0.288474 -0.938271 0.190865 0.0409549 -0.984884 0.168302 -0.519345 -0.066107 -0.852004 
-0.933747 -0.178597 -0.310192 -0.075697 -0.995661 -0.0541313 0.221717 -0.754389 -0.61785 
0.30838 -0.301792 -0.902122 0.298469 -0.107012 -0.948401 -0.630435 -0.658182 -0.411519 
0.579611 -0.785724 -0.216076 -0.927099 0.0275971 -0.373801 0.294449 0.255313 -0.920932 
-0.656878 0.267793 -0.70484 -0.49209 0.453755 -0.742936 -0.214517 0.470739 -0.855796 
0.156771 0.34391 -0.925823 0.318939 -0.589973 -0.741761 -0.0578724 -0.961947 -0.267037 
0.349777 -0.56616 -0.746404 -0.44022 -0.857298 -0.266922 0.333359 -0.330386 -0.883016 
-0.106095 -0.963661 0.245157 0.360558 -0.931538 -0.0472746 -0.756927 -0.520465 -0.395193 
-0.833764 -0.306636 -0.459144 -0.929286 -0.0794634 -0.360713 -0.79493 0.411547 -0.445776 
0.386954 -0.509557 -0.768517 0.145454 -0.980219 -0.134214 0.325614 -0.425583 -0.844307 
0.662523 -0.256859 -0.703623 0.603527 -0.177124 -0.77742 0.776568 -0.0104679 -0.629946 
0.938142 -0.161356 -0.306356 0.514228 -0.0849852 -0.853432 0.886579 -0.0573329 -0.459011 
0.711588 0.0111401 -0.702509 0.474657 0.00952032 -0.880119 0.559836 0.0225939 -0.828296 
0.422772 0.100286 -0.90067 0.652696 0.102793 -0.750615 0.446519 0.25502 -0.857663 
-0.895577 0.255826 -0.363997 -0.579112 0.541885 -0.609089 -0.0113824 0.586143 -0.810128 
0.211419 0.587247 -0.781308 0.120127 -0.966599 -0.226399 0.247656 -0.863126 -0.440091 
0.395615 -0.7617 -0.513129 -0.204263 -0.969858 -0.132861 0.510605 -0.692043 -0.510254 
0.519657 -0.791899 -0.320707 0.711791 -0.634233 -0.301831 0.588968 -0.566148 -0.576709 
-0.477217 -0.876546 -0.0626901 0.653387 -0.474066 -0.590209 0.896418 -0.283955 -0.340301 