# vtk DataFile Version 4.2
vtk output
ASCII
DATASET POLYDATA
POINTS 598 float
457.152 184.216 150.855 457.135 184.225 150.951 457.126 184.25 150.831 
457.222 184.224 150.978 457.072 184.736 150.719 457.037 184.584 150.78 
457.009 184.76 150.849 457.183 184.298 150.844 457.135 184.612 150.729 
457.181 184.826 150.721 457.26 185.358 150.916 457.096 185.394 151.09 
457.361 185.102 150.83 457.264 185.637 151.034 457.199 185.7 151.199 
457.488 185.763 151.046 457.866 186.039 151.24 457.613 186 151.184 
457.098 184.384 150.851 457.001 184.527 150.999 457.222 184.179 151.224 
457.231 184.487 150.808 457.197 185.768 151.418 457.364 185.929 151.347 
458.328 186.318 151.434 457.749 186.209 151.463 458.18 186.447 151.443 
458.538 186.644 151.551 458.437 186.712 151.61 458.69 186.827 151.677 
460.004 189.013 150.009 460.004 189.013 150.009 460.004 189.013 150.009 
460.004 189.013 150.009 460.004 189.013 150.009 457.09 184.285 151.762 
457.493 184.221 151.514 457.374 184.151 151.546 457.218 185.691 152.036 
458.689 186.351 151.704 458.426 186.727 152.043 458.98 186.749 151.894 
460.004 189.013 150.009 457.421 184.13 151.991 457.621 184.184 152.291 
456.941 184.765 152.125 457.682 186.034 152.778 459.009 186.558 152.087 
459.109 186.642 152.365 459.083 186.98 151.917 459.123 186.974 151.989 
457.202 184.333 153.049 457.028 184.507 152.534 457.094 185.205 152.692 
458.881 185.287 153.351 459.05 185.627 153.227 458.076 186.331 152.894 
459.209 186.477 152.73 459.233 186.358 152.954 458.815 186.781 152.393 
458.987 186.608 152.78 459.022 186.836 152.27 459.174 186.475 152.903 
459.115 186.899 152.109 457.093 184.795 153.162 458.433 184.54 154.08 
457.475 185.029 154.412 457.739 185.633 154.027 459.148 185.794 153.364 
459.157 185.76 153.832 459.212 186.29 153.209 459.083 186.306 153.409 
457.83 184.188 154.303 459.081 185.354 154.255 458.872 186.159 153.942 
457.835 184.134 155.971 457.629 184.314 155.485 457.757 184.652 156.466 
459.045 185.203 154.768 458.982 185.183 155.218 458.937 185.523 155.055 
458.89 185.869 154.559 457.783 184.342 157.193 457.844 184.731 156.729 
457.959 184.711 157.155 457.954 183.904 158.175 457.841 184.065 157.724 
458.708 184.986 156.489 458.147 184.729 157.475 458.51 184.861 157.078 
458.628 185.16 156.381 457.918 183.763 159.282 458.103 183.839 158.579 
458.259 183.906 158.447 457.809 183.89 159.554 458.387 184.07 157.999 
457.878 184.083 159.139 458.605 184.681 157.125 457.795 183.732 159.966 
457.721 183.709 160.645 458.217 184.059 159.21 457.922 183.99 159.869 
458.085 184.1 159.443 457.658 183.478 161.423 457.671 183.577 161.051 
457.853 183.569 160.705 457.57 183.55 161.705 457.68 183.671 161.303 
457.92 183.834 160.626 457.462 183.417 162.174 457.351 183.403 162.758 
457.852 183.65 161.393 457.219 183.172 163.321 457.069 183.199 163.6 
457.459 183.279 162.697 457.714 183.469 162.142 457.133 183.307 163.612 
457.565 183.485 162.686 456.903 182.998 164.169 456.627 182.822 164.86 
456.683 182.966 164.564 457.563 183.365 162.915 457.553 183.403 162.984 
457.39 183.339 163.521 457.439 183.307 163.431 456.074 182.634 165.85 
456.602 182.778 165.094 456.73 182.854 165.006 455.845 182.633 166.19 
457.191 183.185 164.14 456.111 182.919 165.805 456.827 183.23 164.74 
455.771 182.448 166.648 455.724 182.453 166.579 456.38 182.689 165.665 
456.572 182.795 165.458 455.983 183.066 166.427 456.969 183.198 164.808 
456.859 183.143 165.12 455.552 182.408 166.936 455.346 182.427 167.204 
454.789 182.672 167.966 456.349 182.87 166.173 456.643 183.052 165.568 
455.08 182.858 167.568 456.401 183.097 165.947 455.377 182.394 167.289 
455.271 182.415 167.618 455.138 182.446 167.623 455.438 182.454 167.534 
455.977 182.951 167.063 454.546 182.997 168.524 455.491 183.07 167.863 
455.754 182.98 167.491 455.151 182.478 168.03 453.937 182.712 169.536 
454.435 182.592 168.883 453.687 182.935 169.706 455.793 182.893 167.452 
455.436 182.926 168.103 454.136 183.304 169.648 454.734 183.202 169.189 
453.492 182.883 170.073 454.569 182.693 169.386 452.958 183.312 170.73 
453.35 183.334 170.365 454.803 183.107 169.274 454.631 183.072 169.621 
453.432 182.816 170.532 451.996 183.498 171.858 454.254 183.123 170.206 
452.613 183.591 171.474 453.387 182.852 170.777 453.307 182.936 171.035 
451.492 183.58 172.425 452.536 183.149 171.615 451.442 183.724 172.489 
453.814 183.348 170.844 453.71 183.336 171.035 453.038 182.977 171.207 
453.136 183.353 171.673 450.207 183.918 173.615 450.809 183.85 173.077 
453.161 183.431 171.609 452.872 183.437 171.937 450.737 184.026 173.257 
451.688 183.825 172.688 450.071 183.943 173.948 450.984 183.687 173.344 
452.465 183.356 172.159 452.836 183.369 171.941 452.426 183.498 172.313 
449.185 184.525 174.449 449.891 184.366 174.025 451.075 183.974 173.344 
449.831 184.051 174.253 450.306 183.96 174.024 451.976 183.527 172.663 
448.19 184.91 175.189 448.249 184.805 175.273 447.676 185.129 175.575 
448.959 184.449 174.856 447.835 185.189 175.411 450.09 184.335 174.208 
446.946 185.681 175.975 448.47 185.02 175.102 449.13 184.762 174.814 
449.456 184.224 174.561 447.963 184.951 175.568 448.49 184.709 175.26 
449.18 184.416 174.846 449.946 184.267 174.393 449.486 184.462 174.745 
446.43 185.898 176.338 445.988 186.166 176.645 449.364 184.588 174.81 
446.014 186.205 176.577 445.53 186.531 176.908 448.545 185.037 175.257 
448.972 184.801 175.037 445.379 186.749 176.999 446.407 186.194 176.446 
447.335 185.689 175.995 445.584 186.678 176.893 446.148 186.034 176.727 
445.633 186.391 176.974 446.633 185.749 176.466 448.191 185.023 175.604 
448.251 185.119 175.546 444.966 186.995 177.266 445.997 186.59 176.881 
447.053 185.852 176.301 445.537 186.974 177.263 444.296 187.726 177.8 
445.911 186.206 176.91 444.685 187.05 177.576 445.104 186.784 177.395 
445.689 186.423 177.12 446.161 186.186 176.92 446.505 186.042 176.741 
447.044 185.742 176.374 442.791 188.482 178.514 442.301 188.746 178.759 
445.295 187.156 177.508 442.039 188.925 178.879 444.358 187.879 178.015 
442.004 189.123 178.944 443.966 188.177 178.259 445.164 187.048 177.641 
444.668 187.404 177.974 445.832 186.604 177.213 442.108 188.846 179.018 
444.429 187.771 178.112 440.335 189.969 179.863 442.725 189.071 178.988 
440.805 190.117 179.772 440.476 189.899 179.917 443.199 188.572 178.84 
439.625 190.505 180.265 442.819 188.994 178.999 438.994 190.938 180.613 
438.87 191.071 180.652 441.269 189.895 179.584 441.447 189.81 179.56 
440.081 190.516 180.154 440.93 189.787 179.86 442.348 189.1 179.256 
442.834 188.847 179.038 440.618 190.056 180.064 441.061 189.873 179.845 
442.592 189.071 179.143 438.081 191.529 181.103 437.924 191.645 181.166 
440.475 190.291 180.084 439.886 190.598 180.396 440.176 190.397 180.277 
441.297 189.855 179.694 437.856 191.723 181.202 438.819 191.243 180.747 
439.296 190.988 180.565 439.997 190.375 180.338 437.907 191.654 181.194 
438.002 191.599 181.167 439.782 190.579 180.451 437.897 191.692 181.222 
437.843 191.731 181.229 439.34 190.91 180.642 438.881 191.212 180.853 
437.843 191.793 181.237 437.829 191.873 181.286 438.338 191.599 181.06 
438.604 191.412 180.962 437.836 191.916 181.306 438.02 191.808 181.213 
437.841 191.935 181.309 437.876 191.773 181.253 438.539 191.393 181.002 
438.164 191.678 181.163 438.039 191.841 274.144 437.942 191.919 274.098 
437.825 192.051 274.009 437.914 192.003 274.042 438.158 191.818 274.186 
437.8 192.097 273.977 437.8 192.092 273.987 437.819 192.095 273.983 
437.941 191.995 274.064 437.778 192.126 273.961 438.274 191.629 274.303 
438.48 191.422 274.472 438.205 191.651 274.313 439.088 191.073 274.682 
437.975 191.845 274.168 438.378 191.614 274.317 437.892 191.977 274.074 
438.629 191.474 274.462 438.175 191.812 274.209 437.886 192.021 274.049 
437.816 192.096 273.987 440.619 189.884 275.599 441.922 189.308 275.92 
442.391 189.1 276.076 443.234 188.694 276.447 439.122 190.916 274.848 
439.759 190.455 275.154 441.974 189.441 275.916 442.494 189.225 276.125 
442.867 189.005 276.274 438.786 191.181 274.67 438.479 191.426 274.496 
440.408 190.299 275.285 441.578 189.732 275.811 442.179 189.418 276.097 
438.343 191.563 274.409 441.062 190.017 275.641 438.535 191.501 274.476 
441.769 189.116 276.232 443.98 188.095 276.843 444.397 187.799 277.113 
440.077 190.228 275.373 440.208 190.154 275.49 443.713 188.349 276.687 
444.032 188.147 276.876 439.249 190.857 274.951 442.717 189.13 276.26 
443.145 188.848 276.463 443.694 188.446 276.733 438.746 191.257 274.656 
439.652 190.641 275.18 441.569 189.752 275.885 441.226 189.917 275.8 
439.962 190.581 275.243 443.799 187.748 277.116 443.87 187.619 277.302 
443.462 187.925 277.047 444.4 187.266 277.542 444.887 187.268 277.477 
445.272 187.104 277.651 445.602 186.931 277.862 442.979 188.265 276.856 
444.963 187.418 277.487 445.359 187.187 277.773 440.997 189.703 275.916 
441.684 189.242 276.286 444.281 188.001 277.104 444.822 187.594 277.543 
441.477 189.638 276.102 442.367 189.215 276.465 442.901 188.947 276.623 
445.459 186.442 278.222 446.418 186.215 278.436 443.584 187.831 277.242 
446.881 186.039 278.821 446.182 186.583 278.332 442.029 189.154 276.491 
442.82 188.559 276.973 443.041 188.495 277.076 444.044 188.177 277.149 
445.029 187.396 277.821 441.826 189.382 276.338 443.464 188.411 277.145 
447.362 185.298 279.373 448.261 184.958 279.745 445.966 186.06 278.768 
447.729 185.324 279.33 448.7 184.777 280.014 448.631 184.999 279.928 
448.969 184.737 280.175 445.491 186.419 278.472 448.344 185.209 279.78 
443.928 187.685 277.537 445.002 186.773 278.169 447.805 185.513 279.483 
443.443 188.277 277.251 448.108 184.892 280.058 447.474 185.212 279.593 
448.454 184.727 280.187 449.11 184.461 280.585 450.121 184.262 281.073 
450.28 184.119 281.256 446.249 185.885 278.982 449.405 184.697 280.567 
446.41 185.842 279.106 446.023 186.08 278.854 449.631 184.193 281.222 
450.687 183.766 281.97 450.992 183.831 281.866 451.501 183.69 282.24 
451.608 183.576 282.447 451.876 183.561 282.588 448.357 184.813 280.333 
[...]
POINT_DATA 598
COLOR_SCALARS scalars 3
0.8 0.8 0.8 0.8 0.8 0.8 0.8 0.8 0.8 
0.8 0.8 0.8 0.8 0.8 0.8 
0.8 0.8 0.8 0.8 0.8 0.8 
0.8 0.8 0.8 0.8 0.8 0.8 
0.8 0.8 0.8 0.8 0.8 0.8 
0.8 0.8 0.8 0.8 0.8 0.8 
0.8 0.8 0.8 0.8 0.8 0.8 
0.8 0.8 0.8 0.8 0.8 0.8 
0.8 0.8 0.8 0.8 0.8 0.8 
0.8 0.8 0.8 0.8 0.8 0.8 
0.8 0.8 0.8 0.8 0.8 0.8 
0.8 0.8 0.8 0.8 0.8 0.8 
0.8 0.8 0.8 0.8 0.8 0.8 
0.8 0.8 0.8 0.8 0.8 0.8 
0.8 0.8 0.8 0.8 0.8 0.8 
0.8 0.8 0.8 0.8 0.8 0.8 
0.8 0.8 0.8 0.8 0.8 0.8 
0.8 0.8 0.8 0.8 0.8 0.8 
0.8 0.8 0.8 0.8 0.8 0.8 
0.8 0.8 0.8 0.8 0.8 0.8 
0.8 0.8 0.8 0.8 0.8 0.8 
0.8 0.8 0.8 0.8 0.8 0.8 
0.8 0.8 0.8 0.8 0.8 0.8 
0.8 0.8 0.8 0.8 0.8 0.8 
0.8 0.8 0.8 0.8 0.8 0.8 
0.8 0.8 0.8 0.8 0.8 0.8 
0.8 0.8 0.8 0.8 0.8 0.8 
0.8 0.8 0.8 0.8 0.8 0.8 
0.8 0.8 0.8 0.8 0.8 0.8 
0.8 0.8 0.8 0.8 0.8 0.8 
0.8 0.8 0.8 0.8 0.8 0.8 
0.8 0.8 0.8 0.8 0.8 0.8 
0.8 0.8 0.8 0.8 0.8 0.8 
0.8 0.8 0.8 0.8 0.8 0.8 
0.8 0.8 0.8 0.8 0.8 0.8 
0.8 0.8 0.8 0.8 0.8 0.8 
0.8 0.8 0.8 0.8 0.8 0.8 
0.8 0.8 0.8 0.8 0.8 0.8 
0.8 0.8 0.8 0.8 0.8 0.8 
0.8 0.8 0.8 0.8 0.8 0.8 
0.8 0.8 0.8 0.8 0.8 0.8 
0.8 0.8 0.8 0.8 0.8 0.8 
0.8 0.8 0.8 0.8 0.8 0.8 
0.8 0.8 0.8 0.8 0.8 0.8 
0.8 0.8 0.8 0.8 0.8 0.8 
0.8 0.8 0.8 0.8 0.8 0.8 
0.8 0.8 0.8 0.8 0.8 0.8 
0.8 0.8 0.8 0.8 0.8 0.8 
0.8 0.8 0.8 0.8 0.8 0.8 
0.8 0.8 0.8 0.8 0.8 0.8 
0.8 0.8 0.8 0.8 0.8 0.8 
0.8 0.8 0.8 0.8 0.8 0.8 
0.8 0.8 0.8 0.8 0.8 0.8 
0.8 0.8 0.8 0.8 0.8 0.8 
0.8 0.8 0.8 0.8 0.8 0.8 
0.8 0.8 0.8 0.8 0.8 0.8 
0.8 0.8 0.8 0.8 0.8 0.8 
0.8 0.8 0.8 0.8 0.8 0.8 
0.8 0.8 0.8 0.8 0.8 0.8 
0.8 0.8 0.8 0.8 0.8 0.8 
0.8 0.8 0.8 0.8 0.8 0.8 
0.8 0.8 0.8 0.8 0.8 0.8 
0.8 0.8 0.8 0.8 0.8 0.8 
0.8 0.8 0.8 0.8 0.8 0.8 
0.8 0.8 0.8 0.8 0.8 0.8 
0.8 0.8 0.8 0.8 0.8 0.8 
0.8 0.8 0.8 0.8 0.8 0.8 
0.8 0.8 0.8 0.8 0.8 0.8 
0.8 0.8 0.8 0.8 0.8 0.8 
0.8 0.8 0.8 0.8 0.8 0.8 
0.8 0.8 0.8 0.8 0.8 0.8 
0.8 0.8 0.8 0.8 0.8 0.8 
0.8 0.8 0.8 0.8 0.8 0.8 
0.8 0.8 0.8 0.8 0.8 0.8 
0.8 0.8 0.8 0.8 0.8 0.8 
0.8 0.8 0.8 0.8 0.8 0.8 
0.8 0.8 0.8 0.8 0.8 0.8 
0.8 0.8 0.8 0.8 0.8 0.8 
0.8 0.8 0.8 0.8 0.8 0.8 
0.8 0.8 0.8 0.8 0.8 0.8 
0.8 0.8 0.8 0.8 0.8 0.8 
0.8 0.8 0.8 0.8 0.8 0.8 
0.8 0.8 0.8 0.8 0.8 0.8 
0.8 0.8 0.8 0.8 0.8 0.8 
0.8 0.8 0.8 0.8 0.8 0.8 
0.8 0.8 0.8 0.8 0.8 0.8 
0.8 0.8 0.8 0.8 0.8 0.8 
0.8 0.8 0.8 0.8 0.8 0.8 
0.8 0.8 0.8 0.8 0.8 0.8 
0.8 0.8 0.8 0.8 0.8 0.8 
0.8 0.8 0.8 0.8 0.8 0.8 
0.8 0.8 0.8 0.8 0.8 0.8 
0.8 0.8 0.8 0.8 0.8 0.8 
0.8 0.8 0.8 0.8 0.8 0.8 
0.8 0.8 0.8 0.8 0.8 0.8 
0.8 0.8 0.8 0.8 0.8 0.8 
0.8 0.8 0.8 0.8 0.8 0.8 
0.8 0.8 0.8 0.8 0.8 0.8 
0.8 0.8 0.8 0.8 0.8 0.8 
0.8 0.8 0.8 0.8 0.8 0.8 
0.8 0.8 0.8 0.8 0.8 0.8 
0.8 0.8 0.8 0.8 0.8 0.8 
0.8 0.8 0.8 0.8 0.8 0.8 
0.8 0.8 0.8 0.8 0.8 0.8 
0.8 0.8 0.8 0.8 0.8 0.8 
0.8 0.8 0.8 0.8 0.8 0.8 
0.8 0.8 0.8 0.8 0.8 0.8 
0.8 0.8 0.8 0.8 0.8 0.8 
0.8 0.8 0.8 0.8 0.8 0.8 
0.8 0.8 0.8 0.8 0.8 0.8 
0.8 0.8 0.8 0.8 0.8 0.8 
0.8 0.8 0.8 0.8 0.8 0.8 
0.8 0.8 0.8 0.8 0.8 0.8 
0.8 0.8 0.8 0.8 0.8 0.8 
0.8 0.8 0.8 0.8 0.8 0.8 
0.8 0.8 0.8 0.8 0.8 0.8 
0.8 0.8 0.8 0.8 0.8 0.8 
0.8 0.8 0.8 0.8 0.8 0.8 
0.8 0.8 0.8 0.8 0.8 0.8 
0.8 0.8 0.8 0.8 0.8 0.8 
0.8 0.8 0.8 0.8 0.8 0.8 
0.8 0.8 0.8 0.8 0.8 0.8 
0.8 0.8 0.8 0.8 0.8 0.8 
0.8 0.8 0.8 0.8 0.8 0.8 
0.8 0.8 0.8 0.8 0.8 0.8 
0.8 0.8 0.8 0.8 0.8 0.8 
0.8 0.8 0.8 0.8 0.8 0.8 
0.8 0.8 0.8 0.8 0.8 0.8 
0.8 0.8 0.8 0.8 0.8 0.8 
0.8 0.8 0.8 0.8 0.8 0.8 
0.8 0.8 0.8 0.8 0.8 0.8 
0.8 0.8 0.8 0.8 0.8 0.8 
0.8 0.8 0.8 0.8 0.8 0.8 
0.8 0.8 0.8 0.8 0.8 0.8 
0.8 0.8 0.8 0.8 0.8 0.8 
0.8 0.8 0.8 0.8 0.8 0.8 
0.8 0.8 0.8 0.8 0.8 0.8 
0.8 0.8 0.8 0.8 0.8 0.8 
0.8 0.8 0.8 0.8 0.8 0.8 
0.8 0.8 0.8 0.8 0.8 0.8 
0.8 0.8 0.8 0.8 0.8 0.8 
0.8 0.8 0.8 0.8 0.8 0.8 
0.8 0.8 0.8 0.8 0.8 0.8 
0.8 0.8 0.8 0.8 0.8 0.8 
0.8 0.8 0.8 0.8 0.8 0.8 
0.8 0.8 0.8 0.8 0.8 0.8 
0.8 0.8 0.8 0.8 0.8 0.8 
0.8 0.8 0.8 0.8 0.8 0.8 
0.8 0.8 0.8 0.8 0.8 0.8 
0.8 0.8 0.8 0.8 0.8 0.8 
0.8 0.8 0.8 0.8 0.8 0.8 
0.8 0.8 0.8 0.8 0.8 0.8 
0.8 0.8 0.8 0.8 0.8 0.8 
0.8 0.8 0.8 0.8 0.8 0.8 
0.8 0.8 0.8 0.8 0.8 0.8 
0.8 0.8 0.8 0.8 0.8 0.8 
0.8 0.8 0.8 0.8 0.8 0.8 
0.8 0.8 0.8 0.8 0.8 0.8 
0.8 0.8 0.8 0.8 0.8 0.8 
0.8 0.8 0.8 0.8 0.8 0.8 
0.8 0.8 0.8 0.8 0.8 0.8 
0.8 0.8 0.8 0.8 0.8 0.8 
0.8 0.8 0.8 0.8 0.8 0.8 
0.8 0.8 0.8 0.8 0.8 0.8 
0.8 0.8 0.8 0.8 0.8 0.8 
0.8 0.8 0.8 0.8 0.8 0.8 
0.8 0.8 0.8 0.8 0.8 0.8 
0.8 0.8 0.8 0.8 0.8 0.8 
0.8 0.8 0.8 0.8 0.8 0.8 
0.8 0.8 0.8 0.8 0.8 0.8 
0.8 0.8 0.8 0.8 0.8 0.8 
0.8 0.8 0.8 0.8 0.8 0.8 
0.8 0.8 0.8 0.8 0.8 0.8 
0.8 0.8 0.8 0.8 0.8 0.8 
0.8 0.8 0.8 0.8 0.8 0.8 
0.8 0.8 0.8 0.8 0.8 0.8 
0.8 0.8 0.8 0.8 0.8 0.8 
0.8 0.8 0.8 0.8 0.8 0.8 
0.8 0.8 0.8 0.8 0.8 0.8 
0.8 0.8 0.8 0.8 0.8 0.8 
0.8 0.8 0.8 0.8 0.8 0.8 
0.8 0.8 0.8 0.8 0.8 0.8 
0.8 0.8 0.8 0.8 0.8 0.8 
0.8 0.8 0.8 0.8 0.8 0.8 
0.8 0.8 0.8 0.8 0.8 0.8 
0.8 0.8 0.8 0.8 0.8 0.8 
0.8 0.8 0.8 0.8 0.8 0.8 
0.8 0.8 0.8 0.8 0.8 0.8 
0.8 0.8 0.8 0.8 0.8 0.8 
0.8 0.8 0.8 0.8 0.8 0.8 
0.8 0.8 0.8 0.8 0.8 0.8 
0.8 0.8 0.8 0.8 0.8 0.8 
0.8 0.8 0.8 0.8 0.8 0.8 
0.8 0.8 0.8 0.8 0.8 0.8 
0.8 0.8 0.8 0.8 0.8 0.8 
0.8 0.8 0.8 0.8 0.8 0.8 
0.8 0.8 0.8 0.8 0.8 0.8 
0.8 0.8 0.8 0.8 0.8 0.8 
0.8 0.8 0.8 0.8 0.8 0.8 
0.8 0.8 0.8 0.8 0.8 0.8 
0.8 0.8 0.8 0.8 0.8 0.8 
0.8 0.8 0.8 0.8 0.8 0.8 
0.8 0.8 0.8 0.8 0.8 0.8 
0.8 0.8 0.8 0.8 0.8 0.8 
0.8 0.8 0.8 0.8 0.8 0.8 
0.8 0.8 0.8 0.8 0.8 0.8 
0.8 0.8 0.8 0.8 0.8 0.8 
0.8 0.8 0.8 0.8 0.8 0.8 
0.8 0.8 0.8 0.8 0.8 0.8 
0.8 0.8 0.8 0.8 0.8 0.8 
0.8 0.8 0.8 0.8 0.8 0.8 
0.8 0.8 0.8 0.8 0.8 0.8 
0.8 0.8 0.8 0.8 0.8 0.8 
0.8 0.8 0.8 0.8 0.8 0.8 
0.8 0.8 0.8 0.8 0.8 0.8 
0.8 0.8 0.8 0.8 0.8 0.8 
0.8 0.8 0.8 0.8 0.8 0.8 
0.8 0.8 0.8 0.8 0.8 0.8 
0.8 0.8 0.8 0.8 0.8 0.8 
0.8 0.8 0.8 0.8 0.8 0.8 
0.8 0.8 0.8 0.8 0.8 0.8 
0.8 0.8 0.8 0.8 0.8 0.8 
0.8 0.8 0.8 0.8 0.8 0.8 
0.8 0.8 0.8 0.8 0.8 0.8 
0.8 0.8 0.8 0.8 0.8 0.8 
0.8 0.8 0.8 0.8 0.8 0.8 
0.8 0.8 0.8 0.8 0.8 0.8 
0.8 0.8 0.8 0.8 0.8 0.8 
0.8 0.8 0.8 0.8 0.8 0.8 
0.8 0.8 0.8 0.8 0.8 0.8 
0.8 0.8 0.8 0.8 0.8 0.8 
0.8 0.8 0.8 0.8 0.8 0.8 
0.8 0.8 0.8 0.8 0.8 0.8 
0.8 0.8 0.8 0.8 0.8 0.8 
0.8 0.8 0.8 0.8 0.8 0.8 
0.8 0.8 0.8 0.8 0.8 0.8 
0.8 0.8 0.8 0.8 0.8 0.8 
0.8 0.8 0.8 0.8 0.8 0.8 
0.8 0.8 0.8 0.8 0.8 0.8 
0.8 0.8 0.8 0.8 0.8 0.8 
0.8 0.8 0.8 0.8 0.8 0.8 
0.8 0.8 0.8 0.8 0.8 0.8 
0.8 0.8 0.8 0.8 0.8 0.8 
0.8 0.8 0.8 0.8 0.8 0.8 
0.8 0.8 0.8 0.8 0.8 0.8 
0.8 0.8 0.8 0.8 0.8 0.8 
0.8 0.8 0.8 0.8 0.8 0.8 
0.8 0.8 0.8 0.8 0.8 0.8 
0.8 0.8 0.8 0.8 0.8 0.8 
0.8 0.8 0.8 0.8 0.8 0.8 
0.8 0.8 0.8 0.8 0.8 0.8 
0.8 0.8 0.8 0.8 0.8 0.8 
0.8 0.8 0.8 0.8 0.8 0.8 
0.8 0.8 0.8 0.8 0.8 0.8 
0.8 0.8 0.8 0.8 0.8 0.8 
0.8 0.8 0.8 0.8 0.8 0.8 
0.8 0.8 0.8 0.8 0.8 0.8 
0.8 0.8 0.8 0.8 0.8 0.8 
0.8 0.8 0.8 0.8 0.8 0.8 
0.8 0.8 0.8 0.8 0.8 0.8 
0.8 0.8 0.8 0.8 0.8 0.8 
0.8 0.8 0.8 0.8 0.8 0.8 
0.8 0.8 0.8 0.8 0.8 0.8 
0.8 0.8 0.8 0.8 0.8 0.8 
0.8 0.8 0.8 0.8 0.8 0.8 
0.8 0.8 0.8 0.8 0.8 0.8 
0.8 0.8 0.8 0.8 0.8 0.8 
0.8 0.8 0.8 0.8 0.8 0.8 
0.8 0.8 0.8 0.8 0.8 0.8 
0.8 0.8 0.8 0.8 0.8 0.8 
0.8 0.8 0.8 0.8 0.8 0.8 
0.8 0.8 0.8 0.8 0.8 0.8 
0.8 0.8 0.8 0.8 0.8 0.8 
0.8 0.8 0.8 0.8 0.8 0.8 
0.8 0.8 0.8 0.8 0.8 0.8 
0.8 0.8 0.8 0.8 0.8 0.8 
0.8 0.8 0.8 0.8 0.8 0.8 
0.8 0.8 0.8 0.8 0.8 0.8 
0.8 0.8 0.8 0.8 0.8 0.8 
0.8 0.8 0.8 0.8 0.8 0.8 
0.8 0.8 0.8 0.8 0.8 0.8 
0.8 0.8 0.8 0.8 0.8 0.8 
0.8 0.8 0.8 0.8 0.8 0.8 
0.8 0.8 0.8 0.8 0.8 0.8 
0.8 0.8 0.8 0.8 0.8 0.8 
0.8 0.8 0.8 0.8 0.8 0.8 
0.8 0.8 0.8 0.8 0.8 0.8 
0.8 0.8 0.8 0.8 0.8 0.8 
0.8 0.8 0.8 0.8 0.8 0.8 
0.8 0.8 0.8 0.8 0.8 0.8 
0.8 0.8 0.8 0.8 0.8 0.8 
0.8 0.8 0.8 0.8 0.8 0.8 
0.8 0.8 0.8 0.8 0.8 0.8 
0.8 0.8 0.8 0.8 0.8 0.8 
0.8 0.8 0.8 0.8 0.8 0.8 
0.8 0.8 0.8 0.8 0.8 0.8 
0.8 0.8 0.8 0.8 0.8 0.8 
0.8 0.8 0.8 0.8 0.8 0.8 
0.8 0.8 0.8 
NORMALS Normals float
0.165421 -0.858033 -0.486225 -0.776136 -0.628817 -0.0469278 -0.502523 -0.391481 -0.770853 
0.528505 -0.794917 -0.297976 -0.485826 0.18773 -0.853657 -0.778172 -0.242645 -0.579286 
-0.919901 0.164562 -0.35595 0.463451 -0.214411 -0.859791 -0.0130832 -0.289902 -0.956967 
0.306715 0.0436979 -0.950798 -0.416427 0.366566 -0.831997 -0.910358 0.29056 -0.294658 
0.105167 0.296426 -0.949248 -0.511467 0.508179 -0.692933 -0.71976 0.589571 -0.36654 
0.0985802 0.330074 -0.938793 0.209512 0.321867 -0.923313 -0.297109 0.715509 -0.632276 
-0.573694 -0.324208 -0.752173 -0.979359 -0.172881 -0.104724 -0.261665 -0.965047 -0.0146728 
0.614267 -0.317051 -0.722603 -0.877883 0.477998 -0.0289926 -0.621143 0.764933 -0.170467 
0.411981 -0.00066772 -0.911192 -0.452379 0.824253 -0.34053 -0.112463 0.536776 -0.836196 
0.365212 0.200342 -0.909112 -0.48282 0.836677 -0.258565 -0.0304943 0.754088 -0.656066 
0.171783 -0.854697 -0.489881 -0.670207 0.395566 -0.627974 0.478624 0.617613 -0.624078 
0.670207 -0.395566 0.627974 -0.171783 0.854697 0.489881 -0.755368 -0.654046 0.0405365 
0.66476 -0.701324 -0.257367 0.262482 -0.955048 -0.137793 -0.75423 0.647993 0.106029 
0.661988 -0.209331 -0.719689 -0.443333 0.886669 0.131429 0.803835 -0.261872 -0.53411 
-0.478624 -0.617613 0.624078 0.084859 -0.99628 0.0149925 0.484146 -0.872677 -0.0635465 
-0.998298 0.037797 0.044406 -0.687258 0.582178 0.434449 0.868753 -0.332536 -0.366998 
0.946351 0.31679 0.0637486 0.247341 0.792068 -0.558077 0.626409 0.755087 0.193532 
-0.838847 -0.51773 0.168202 -0.975253 -0.198678 0.0970013 -0.89487 0.344932 0.283249 
0.813111 -0.522757 -0.256078 0.867827 -0.448384 -0.214075 -0.593912 0.752239 0.285316 
0.986313 0.0962429 -0.133882 0.987479 0.151852 0.0427422 -0.229377 0.900961 0.368315 
0.33601 0.867933 0.365772 0.392512 0.785305 0.47878 0.657653 0.712056 0.245905 
0.716524 0.532965 0.450046 -0.973586 -0.0561431 0.221308 0.565801 -0.822436 -0.0588881 
-0.956697 0.179125 0.229443 -0.694678 0.667908 0.26706 0.943477 -0.29408 -0.152867 
0.984513 -0.17301 0.0283271 0.925216 0.317712 0.207447 0.399381 0.827527 0.39458 
0.0406805 -0.997856 -0.0512736 0.976539 -0.21445 -0.0195694 0.30465 0.865471 0.397677 
-0.617489 -0.786355 0.0187866 -0.969711 -0.21973 0.10667 -0.942769 0.277755 0.184495 
0.919009 -0.393806 0.0184225 0.974806 0.112282 0.192735 0.854071 0.434033 0.286669 
0.249907 0.883986 0.395115 -0.958961 0.231025 0.164385 -0.759608 0.610279 0.224845 
-0.792997 0.538362 0.285169 -0.531646 -0.842691 -0.0850013 -0.89606 -0.443158 -0.0262385 
0.963446 0.123192 0.237897 -0.476751 0.833491 0.279287 0.532695 0.760501 0.371315 
0.611757 0.698184 0.371877 -0.333729 -0.930658 -0.150005 0.0414104 -0.993632 -0.104787 
0.590321 -0.806044 -0.0425822 -0.994133 0.100244 -0.0406331 0.881915 -0.470487 0.029452 
-0.854698 0.518542 0.02463 0.966947 0.135222 0.21617 -0.888127 -0.441026 -0.12933 
-0.989273 0.112766 -0.0928612 0.915804 0.321362 0.240892 -0.235179 0.949044 0.209776 
0.425308 0.853415 0.301324 -0.543923 -0.813178 -0.207098 -0.956963 -0.232705 -0.173405 
0.222126 -0.970487 -0.0938876 -0.866015 0.495076 -0.0701332 -0.789468 0.613404 0.0218186 
0.403674 0.883477 0.237732 -0.958115 -0.156066 -0.240123 -0.732154 0.675205 -0.0897182 
0.849883 0.47403 0.230204 -0.650723 -0.683406 -0.330931 -0.930962 -0.0786996 -0.356534 
0.179526 -0.975138 -0.129912 0.893553 -0.438555 0.096087 -0.629993 0.766937 -0.122136 
-0.0899795 0.989021 0.11722 -0.537398 -0.74446 -0.396211 -0.121022 -0.956606 -0.265065 
-0.836607 -0.318445 -0.445738 0.749155 -0.656451 0.0885385 0.90313 0.345133 0.255421 
0.782767 0.534347 0.318981 0.958635 -0.0814318 0.272741 -0.74416 -0.456206 -0.487957 
0.0779054 -0.982775 -0.167582 0.757853 -0.624857 0.18765 -0.843137 -0.123656 -0.523286 
0.904819 -0.335815 0.261786 -0.837224 0.379693 -0.39356 -0.563135 0.815815 -0.131625 
0.491414 -0.859908 0.138096 -0.270447 -0.912857 -0.30586 0.416726 -0.908049 0.0422735 
0.771535 -0.588841 0.240834 -0.38577 0.898349 -0.210122 0.651162 0.682541 0.331851 
0.885244 -0.356951 0.298211 -0.0361233 -0.995347 -0.0893277 -0.635495 -0.679023 -0.367524 
-0.854022 -0.150103 -0.498112 0.840123 -0.427645 0.333636 0.871097 0.251515 0.421817 
-0.789722 0.391764 -0.472081 0.260202 0.94315 0.206793 -0.0802728 -0.996515 -0.0226836 
0.0353186 -0.992322 0.118535 -0.493515 -0.848302 -0.191905 0.543436 -0.789872 0.284216 
0.855261 0.327242 0.401798 -0.684516 0.528594 -0.502023 0.550885 0.794909 0.254252 
0.817028 0.390762 0.423993 0.292716 -0.921871 0.253912 -0.577321 -0.769698 -0.272518 
-0.299768 -0.951388 -0.0707128 -0.815563 0.0137423 -0.578505 0.86605 -0.273112 0.418769 
0.877526 -0.0474739 0.477174 -0.124109 0.970281 -0.207729 0.283147 0.957659 0.0521207 
-0.727017 -0.543846 -0.41914 0.462275 -0.791054 0.400669 -0.703295 0.340497 -0.62405 
-0.457939 0.726627 -0.512157 0.782204 0.476233 0.401696 0.861609 -0.0331592 0.506488 
-0.2801 -0.95997 -0.00151963 -0.764366 0.0175429 -0.644544 0.836758 0.015714 0.547347 
-0.0308737 0.977151 -0.210291 0.057296 -0.967184 0.247531 0.269009 -0.83835 0.474135 
-0.707173 -0.479576 -0.519532 -0.217975 -0.963639 0.154555 -0.704603 0.150688 -0.693417 
0.636521 0.693511 0.337466 0.786188 0.0516938 0.615821 -0.0236447 -0.947004 0.320349 
0.635659 -0.42226 0.646246 -0.619146 -0.655572 -0.432302 -0.604133 0.249967 -0.756663 
0.489222 0.803883 0.338281 0.683801 0.166938 0.710315 -0.288941 0.76466 -0.576028 
0.268935 0.963128 0.00766351 -0.279533 -0.956087 0.0880812 -0.0850678 -0.967857 0.236678 
0.316039 -0.786627 0.530413 0.495431 -0.573809 0.652144 0.62945 -0.0908181 0.771715 
-0.442451 0.416202 -0.794363 -0.129475 0.811051 -0.570467 0.512198 0.798857 0.315405 
0.0816141 -0.836165 0.542372 0.250245 -0.73314 0.632363 0.443451 -0.568142 0.693229 
-0.644322 -0.310173 -0.699029 -0.522869 -0.844223 -0.117877 -0.601614 -0.750501 -0.273512 
-0.321813 -0.928328 0.186129 -0.409292 0.30473 -0.860011 0.62753 0.620677 0.470071 
-0.484417 0.109707 -0.867931 0.0169598 0.827704 -0.560909 0.279046 0.950321 -0.137928 
-0.278201 -0.936106 0.215196 -0.221058 -0.889974 0.398848 -0.119497 -0.874245 0.470549 
0.157111 -0.7149 0.681347 0.653944 0.194151 0.731206 0.511453 -0.186593 0.838808 
-0.648622 -0.653422 -0.390293 -0.668145 -0.661712 -0.340175 0.635632 0.339958 0.693109 
-0.645064 -0.264152 -0.717019 -0.691064 -0.410359 -0.595009 0.542784 0.821914 0.172752 
0.612406 0.605488 0.508274 -0.436321 0.190639 -0.879364 0.0120405 0.728661 -0.684769 
0.452412 0.883591 -0.120787 -0.11236 0.569963 -0.813952 -0.332968 -0.872962 0.356468 
-0.556693 -0.829623 0.0426586 -0.341526 -0.891711 0.297003 0.315443 -0.443741 0.838802 
0.638747 0.401148 0.656568 -0.525162 0.0345803 -0.8503 0.428905 0.851423 -0.301859 
0.667457 0.664195 0.33667 0.63507 0.772348 0.0128363 -0.0562512 0.577213 -0.814654 
-0.295251 -0.832023 0.469642 -0.652359 -0.720275 -0.235863 -0.177679 -0.766979 0.616582 
-0.122392 -0.742052 0.659074 0.115184 -0.592112 0.797581 0.550023 -0.107488 0.828204 
0.586773 0.0603117 0.807502 -0.588546 -0.328733 -0.738613 -0.60567 -0.705349 -0.368301 
0.674057 0.700886 0.233251 -0.490599 -0.0660958 -0.868875 0.408661 0.838573 -0.360266 
-0.18076 0.46185 -0.868343 0.537569 0.833196 -0.129633 0.311281 -0.359876 0.879542 
0.0962103 -0.556558 0.825219 0.572198 0.0129105 0.820014 -0.467746 -0.86801 0.166651 
0.68643 0.368191 0.627097 -0.660501 -0.572827 -0.485395 0.516312 0.851701 -0.089594 
0.15804 0.820596 -0.549222 -0.327484 -0.840225 0.432176 0.582389 0.223546 0.781569 
-0.628702 -0.766216 -0.132842 0.63431 0.541404 0.551844 -0.651838 -0.557483 -0.514122 
-0.577864 -0.226561 -0.784055 0.211463 0.821817 -0.529057 0.506622 0.856215 0.101146 
0.286877 0.869975 -0.401055 0.104054 -0.537655 0.83672 0.281608 -0.26157 0.923189 
0.282613 -0.281438 0.917018 0.316774 -0.226138 0.921149 0.473408 0.0822633 0.876993 
0.514517 0.221238 0.828448 -0.616021 -0.769912 -0.166594 -0.720042 -0.533147 -0.444177 
0.592801 0.6673 0.450885 0.546886 0.354594 0.758405 0.505687 0.192509 0.840964 
0.564574 0.447407 0.693602 -0.613742 0.070419 -0.78636 0.0379867 0.667176 -0.743931 
0.442349 0.87697 -0.187753 0.14335 -0.416846 0.897602 -0.522393 -0.775875 0.353728 
-0.0269135 -0.577291 0.816095 0.339342 -0.105769 0.934698 -0.114564 -0.496778 0.860283 
-0.797646 -0.496954 0.341756 0.503002 0.224053 0.834739 0.484519 0.157661 0.860456 
-0.86828 0.203897 -0.452235 -0.966868 -0.0979586 0.235733 0.578894 0.801367 0.150636 
0.599821 0.524898 0.603901 0.00638016 -0.175496 0.984459 0.629703 0.737523 0.243994 
-0.0607757 0.983962 -0.167703 -0.174234 -0.348485 0.920978 0.361326 -0.0618908 0.930383 
0.542451 0.269701 0.795618 -0.0403949 -0.599495 -0.799359 -0.403722 -0.735938 -0.543511 
-0.770139 -0.629332 -0.104048 0.394932 -0.174859 -0.901916 0.657153 0.34197 -0.671719 
-0.165274 -0.587092 -0.792469 -0.719066 0.0489387 0.693217 0.672164 0.381067 -0.63481 
0.639438 0.767549 -0.0445726 -0.257546 -0.603974 -0.754245 -0.15106 -0.687991 -0.709824 
-0.465699 -0.819906 -0.332985 -0.705755 -0.311755 0.636175 0.0764384 -0.480654 -0.873572 
-0.385026 -0.741333 -0.549709 0.365321 -0.156326 -0.917662 -0.670755 0.0179234 0.741462 
0.605994 0.778064 -0.165492 0.435873 0.829158 0.350018 -0.114642 0.540865 0.83326 
0.195596 0.761662 0.617748 -0.411199 -0.863092 -0.293237 0.057074 -0.500687 -0.863745 
0.152517 -0.405415 -0.90132 0.497202 0.130854 -0.85771 -0.650705 -0.73913 0.173984 
-0.321631 -0.811656 -0.487614 0.464444 0.247142 -0.850419 0.50828 0.429423 -0.74649 
0.593534 0.436561 -0.676115 -0.693592 -0.51895 0.499621 -0.69003 -0.386548 0.611915 
0.531484 0.325631 -0.781978 0.55745 0.71922 -0.414695 0.489483 0.870175 -0.0565792 
-0.381195 0.258887 0.887506 0.481935 0.876145 -0.010428 0.0770983 0.702321 0.707672 
-0.561775 -0.827281 -0.00394869 0.288685 -0.336743 -0.896251 0.321647 -0.328746 -0.887958 
-0.58087 -0.812413 0.0507405 -0.6514 -0.531508 0.541457 0.507864 0.076741 -0.858012 
0.662751 0.308123 -0.682511 -0.608942 -0.233575 0.758045 0.471398 0.876932 0.0936701 
0.651733 0.541107 -0.531457 0.610507 0.78787 -0.08088 -0.374389 0.222482 0.900186 
-0.280637 0.343879 0.896097 0.441517 0.891598 0.100576 0.228642 0.835249 0.500082 
0.0831649 0.727967 0.68055 -0.201342 -0.753404 -0.625974 -0.502771 -0.847258 -0.171394 
-0.45862 -0.833942 -0.306935 -0.353699 -0.830002 -0.43127 0.0298583 -0.632763 -0.77377 
0.322448 -0.337864 -0.884237 0.586012 0.0259896 -0.809885 -0.616803 -0.784599 0.0629212 
0.645451 0.308586 -0.69869 0.686062 0.607641 -0.400114 -0.579858 -0.250921 0.775115 
-0.645459 -0.419854 0.638048 0.703307 0.635409 -0.31877 0.579026 0.81363 0.0522983 
-0.0821185 0.609877 0.78823 0.233513 0.809945 0.538016 0.248929 0.785205 0.566999 
-0.350645 -0.86355 -0.362395 0.537917 -0.0455948 -0.841764 -0.655337 -0.723403 0.217305 
0.653522 0.682066 -0.32817 0.70133 0.640763 -0.312346 -0.420982 0.153721 0.893949 
-0.439881 0.0647899 0.895716 -0.140856 0.486322 0.862352 0.483954 0.848359 0.21465 
0.272608 0.808074 0.522208 -0.128055 0.515688 0.847153 0.247179 0.793181 0.556566 
-0.246408 -0.894483 -0.373072 0.0897177 -0.732788 -0.674517 -0.643055 -0.735645 0.212855 
0.144462 -0.607427 -0.78113 0.217602 -0.69225 -0.688069 0.649075 0.302603 -0.69795 
0.501427 -0.202487 -0.841172 -0.705649 -0.471508 0.528904 0.631382 0.496711 -0.595513 
-0.626636 -0.298596 0.719838 -0.695416 -0.538584 0.475735 0.475373 0.875245 -0.0892538 
-0.264901 0.305877 0.914476 -0.514433 -0.841755 0.163728 -0.541203 -0.827956 0.146929 
-0.31015 -0.934355 -0.175465 -0.211262 -0.944094 -0.25309 0.554239 -0.223948 -0.801665 
0.196797 -0.767974 -0.609498 -0.610572 -0.709611 0.351644 0.606356 0.688944 -0.397099 
-0.566607 -0.149923 0.810234 -0.625061 -0.149405 0.766144 -0.480579 -0.871057 0.101504 
-0.0958758 -0.94141 -0.32335 0.265336 -0.708324 -0.654121 0.477136 -0.466157 -0.74501 
0.0261261 -0.938463 -0.344391 0.527211 -0.494295 -0.691174 -0.651151 -0.561167 0.510973 
0.664982 0.107848 -0.739032 -0.556005 -0.0474319 0.829825 -0.402848 0.241535 0.882822 
0.188501 0.86304 0.468646 -0.624752 -0.686751 0.371563 -0.298586 -0.953619 -0.0381615 
0.418907 -0.682772 -0.598615 0.492458 -0.618495 -0.612331 -0.674803 -0.355513 0.646723 
-0.701604 -0.336689 0.628007 0.710217 0.12158 -0.693405 -0.572487 0.174555 0.801117 
0.282505 0.954544 0.0950566 0.435156 0.871135 -0.227513 -0.102232 0.841852 0.529937 
-0.737281 -0.295648 0.607461 -0.306511 -0.951788 0.0122505 0.661964 -0.34852 -0.66358 
-0.586911 0.327068 0.740649 0.698846 0.403852 -0.590354 0.753403 0.171645 -0.634761 