# vtk DataFile Version 4.2
vtk output
ASCII
DATASET POLYDATA
POINTS 405 float
519.95 202.202 184.772 519.582 202.335 184.808 520.263 202.183 184.753 
520.554 202.135 184.908 519.816 202.378 184.648 520.489 202.336 184.743 
519.922 202.589 184.627 520.295 202.554 184.65 518.913 202.379 185.327 
520.987 202.277 185.039 520.792 201.99 185.282 521.26 202.065 185.353 
518.798 202.643 185.122 518.555 202.573 185.479 518.44 202.795 185.294 
519.254 202.611 184.856 518.534 202.94 185.15 518.304 203.018 185.322 
518.912 203.012 184.974 518.822 203.395 185.057 519.011 203.594 185.074 
520.637 203.392 184.906 521.225 203.58 185.075 518.847 202.33 185.616 
520.868 201.823 185.866 521.885 202.036 185.955 518.343 202.681 185.78 
522.955 202.634 186.295 518.009 203.196 185.907 517.949 203.472 185.742 
523.111 203.587 186.021 518.098 203.505 185.494 518.116 203.729 185.552 
519.076 204.546 185.748 522.339 204.617 185.872 523.455 204.482 186.289 
521.469 205.182 185.997 519.221 202.219 186.671 522.134 201.895 186.488 
518.175 202.894 185.945 523.214 202.447 186.748 517.924 203.364 186.232 
518.486 202.759 186.616 524.026 203.741 186.637 517.985 203.671 185.676 
524.082 204.012 186.644 523.55 204.731 186.429 519.919 205.502 186.654 
520.952 205.894 186.803 519.753 202.112 187.662 522.41 201.904 186.796 
522.11 201.789 186.938 523.579 202.549 187.109 517.871 203.579 186.31 
518.211 203.428 186.949 524.354 203.399 187.287 524.645 203.6 187.673 
517.904 203.786 186.231 518.056 203.7 186.802 524.806 204.006 187.85 
524.211 204.857 187.102 524.96 204.608 188.169 519.232 205.241 187.256 
524.762 205.335 187.97 524.944 205.114 188.192 521.249 206.526 187.699 
521.864 206.75 187.924 522.552 206.764 187.929 521.642 201.7 188.006 
522.818 201.895 188.218 518.426 203.305 187.27 518.04 204.047 186.487 
518.122 203.998 186.83 525.041 204.087 188.51 525.195 204.546 188.834 
524.932 205.447 188.361 520.64 206.43 188.081 521.683 207.238 188.898 
523.042 206.993 188.336 521.727 201.761 188.928 519.792 202.741 189.116 
523.938 202.435 189.291 519.473 203.168 189.034 524.644 203.2 188.531 
524.563 206.522 188.794 523.979 207.101 188.971 521.787 207.507 189.516 
520.964 202.197 190.008 522.353 201.822 189.477 522.913 201.973 190.01 
519.536 203.922 189.542 525.345 204.271 189.983 519.418 204.801 189.133 
519.636 205.32 189.321 522.53 208.334 190.774 523.616 208.119 190.33 
524.906 207.504 190.802 521.594 202.193 190.792 521.932 202.037 190.624 
520.097 203.268 190.222 520.029 205.612 190.275 522.041 208.268 191.497 
523.62 208.829 191.531 524.158 208.858 191.735 524.406 209.018 192.178 
522.595 202.183 191.362 521.595 202.782 191.712 520.785 203.436 191.444 
524.424 203.092 191.676 525.768 205.877 192.063 525.502 207.931 192.755 
523.481 209.177 192.241 525.283 208.703 193.225 523.237 202.555 192.017 
523.664 202.697 192.104 520.8 204.427 192.188 521.26 207.311 193.119 
521.798 208.168 192.418 523.429 209.675 193.6 524.848 209.662 193.938 
524.649 209.929 194.2 525.01 209.849 194.591 521.488 204.025 192.992 
525.586 205.087 193.177 521.024 206.275 193.202 525.818 208.354 194.518 
523.271 209.753 194.292 524.341 210.024 194.219 524.17 210.159 194.6 
523.083 203.994 194.402 523.977 203.753 194.124 523.772 203.908 194.478 
522.51 204.352 194.46 524.712 204.307 194.331 525.437 205.121 194.001 
521.652 205.58 194.554 521.468 206.091 194.53 525.854 206.54 194.551 
522.441 209.022 195.439 525.786 209.169 195.622 523.289 209.983 195.718 
523.776 210.11 194.777 525.685 209.637 195.955 525.122 210.384 195.972 
524.989 210.563 196.289 523.505 203.919 194.496 524.179 204.543 195.264 
525.387 205.552 195.047 522.128 205.556 195.249 525.687 206.171 195.047 
521.604 207.517 194.934 525.93 208.747 196.122 524.253 210.507 196.17 
524.723 210.624 196.401 525.02 210.659 196.915 525.346 210.517 197.044 
524.461 204.982 195.711 522.973 205.673 196.277 525.872 207.687 196.412 
522.939 209.574 196.731 524.46 210.748 197.557 523.811 205.839 196.886 
524.366 206.16 197.263 524.726 205.922 196.821 525.682 207.364 196.877 
525.863 208.554 197.361 523.788 210.354 197.721 524.208 210.659 197.805 
524.574 210.792 198.246 525.778 209.338 198.217 525.583 210.258 198.552 
524.515 210.75 198.927 524.72 207.01 198.082 524.073 207.555 198.67 
524.309 207.477 198.622 524.729 207.466 198.475 525.449 208.417 198.499 
523.733 208.827 199.12 525.604 209.985 198.959 524.359 210.53 199.528 
524.784 210.796 199.388 525.053 210.787 199.327 524.723 208.971 199.654 
525.533 209.721 199.246 523.812 209.551 199.303 524.536 210.156 199.957 
525.352 210.453 199.578 524.543 210.597 199.74 524.693 210.498 199.984 
524.745 210.701 199.771 524.995 210.749 199.788 525.251 209.005 199.405 
524.392 209.733 199.839 524.877 209.68 200 524.804 210.273 200.123 
524.892 210.501 200.149 525.14 210.681 199.954 525.057 210.681 200.054 
525.137 210.594 200.086 524.911 210.649 200.032 525.197 210.039 199.971 
524.982 210.377 200.179 525.032 210.557 200.15 525.08 210.239 255.387 
525.116 210.134 255.407 525.149 210.237 255.443 524.819 209.003 255.648 
524.725 209.312 255.623 525.199 209.161 255.69 524.769 209.797 255.608 
525.068 209.865 255.482 524.638 210.029 255.75 524.817 210.239 255.734 
525.267 210.026 255.594 525.2 210.302 255.63 525.343 210.227 255.779 
525.279 210.373 255.963 524.805 207.765 256.248 524.754 208.065 256.008 
525.036 207.772 256.384 524.504 208.444 255.902 524.401 208.229 256.023 
524.563 208.154 255.985 525.073 208.483 255.914 524.535 208.902 255.815 
525.594 209.147 256.34 524.637 210.339 256.075 524.524 207.482 256.508 
525.197 207.478 256.887 523.773 207.726 256.805 525.501 208.013 256.89 
523.473 208.69 257.045 525.608 210.081 256.926 525.146 210.564 257.018 
524.088 206.631 257.39 524.936 207.032 257.07 524.76 206.627 257.417 
523.524 206.85 257.555 523.223 208.973 257.603 525.884 209.152 257.573 
523.614 209.961 257.656 523.842 210.322 257.895 525.595 210.142 257.569 
525.326 210.459 257.57 523.263 205.962 258.491 523.004 206.697 258.245 
525.723 207.188 258.333 522.523 207.828 258.878 525.919 207.859 258.332 
525.94 209.177 258.317 523.373 210.109 259.015 525.781 209.743 258.297 
524.431 210.694 258.026 523.291 204.625 259.874 523.053 204.874 259.69 
524.083 204.899 259.375 523.396 205.501 258.858 525.222 205.752 259.152 
522.201 208.04 259.816 522.431 208.779 259.705 524.441 210.722 259.294 
525.417 210.256 258.986 524.476 204.988 259.393 521.903 205.319 260.82 
521.673 205.855 260.966 526.028 208.565 259.98 522.577 209.297 260.744 
523.694 210.373 260.092 524.703 210.705 259.536 524.959 210.594 259.538 
524.343 203.977 261.088 524.819 204.507 260.436 524.701 204.227 260.841 
525.012 204.489 260.85 522.163 204.137 261.532 521.224 206.67 261.948 
521.586 207.915 262.028 525.68 209.291 260.725 523.632 210.279 260.63 
525.321 209.938 260.54 525.076 210.382 260.074 524.272 203.669 261.838 
521.751 203.724 262.55 521.451 204.319 262.395 520.847 205.986 262.844 
525.995 206.3 261.774 521.211 207.384 262.794 522.734 209.377 262.023 
524.004 210.252 261.227 522.113 202.798 263.465 522.864 202.615 263.556 
523.669 202.987 262.971 520.924 204.371 263.243 525.93 207.084 262.702 
521.599 208.06 263.743 523.061 209.43 262.644 524.499 210.014 261.743 
524.669 209.646 262.337 522.546 202.195 264.572 522.953 202.208 264.724 
523.93 202.719 264.372 524.828 203.705 263.054 525.275 204.209 263.263 
520.147 205.505 264.492 520.797 206.951 264.526 522.11 208.444 264.203 
523.476 209.372 263.156 524.447 209.415 262.944 521.688 202.314 264.77 
521.296 202.536 264.876 522.126 202.012 265.432 522.974 202.093 265.429 
520.201 203.213 265.426 525.641 206.316 264.521 520.09 205.979 265.436 
520.629 206.826 265.322 525.108 207.865 264.441 524.316 208.736 264.163 
523.865 208.742 264.391 524.045 208.36 264.884 523.454 208.837 264.264 
524.648 208.979 263.51 520.948 202.457 265.617 522.466 201.954 265.801 
523.446 202.271 265.766 519.575 203.862 265.989 519.347 204.871 266.818 
519.981 205.981 266.237 521.13 207.157 266.146 522.125 207.855 265.508 
522.735 201.971 267.009 523.762 202.589 266.994 518.96 203.095 267.692 
524.8 203.568 265.799 525.077 204.198 266.008 518.941 204.249 267.372 
525.073 206.284 266.339 520.349 206.377 267.015 524.722 206.455 266.862 
518.346 204.114 268.723 524.906 206.022 267.014 519.704 202.128 268.322 
523.372 202.716 268.419 517.895 203.225 269.358 524.658 204.457 267.609 
517.819 203.312 269.493 517.836 203.459 269.54 524.756 205.056 267.603 
524.683 205.528 267.642 519.463 205.107 268.877 523.808 205.613 268.403 
524.126 205.46 268.295 521.773 206.445 268.057 521.842 206.086 268.511 
519.479 202.156 269.635 521.884 202.044 268.949 518.677 202.408 269.48 
523.018 202.578 268.752 517.866 203.165 269.571 518.009 203.013 269.821 
517.841 203.278 269.702 523.925 203.615 268.444 517.852 203.436 269.747 
523.928 204.543 268.772 517.912 203.595 269.634 518.478 204.249 269.298 
518.949 204.466 269.561 523.497 204.934 269.048 523.657 204.66 269.018 
520.023 205.121 269.321 522.632 205.15 269.317 519.63 202.201 270.076 
520.782 202.116 269.583 521.365 202.363 269.747 518.343 202.659 270.03 
518.472 202.584 270.393 518.304 202.717 270.336 522.187 202.836 269.709 
517.966 203.288 269.973 518.185 202.962 270.28 518.27 203.435 270.312 
522.392 204.051 269.828 518.978 204.139 270.013 520.066 204.774 269.716 
519.107 202.423 270.518 518.777 202.471 270.468 520.106 202.294 270.171 
518.584 202.618 270.587 518.375 202.745 270.512 520.832 202.894 270.349 
518.357 202.921 270.574 518.323 203.174 270.504 518.524 203.01 270.701 
518.543 203.217 270.663 518.73 203.126 270.754 521.412 203.283 270.214 
518.509 203.44 270.483 520.512 203.83 270.399 519.938 203.781 270.483 
519.431 203.905 270.368 519.782 202.472 270.507 518.82 202.91 270.764 
519.245 202.826 270.748 519.648 203.093 270.713 519.127 203.524 270.609 

POLYGONS 802 3208
3 4 0 1 
3 2 0 4 
3 5 3 2 
3 2 4 6 
3 7 2 6 
3 5 2 7 
3 8 1 0 
3 8 0 23 
3 3 9 10 
3 3 10 2 
3 10 9 11 
3 12 13 14 
3 8 13 12 
3 8 12 15 
3 1 15 4 
3 8 15 1 
3 9 5 7 
3 3 5 9 
[...]
POINT_DATA 405
COLOR_SCALARS scalars 3
0.8 0.8 0.8 0.8 0.8 0.8 0.8 0.8 0.8 
0.8 0.8 0.8 0.8 0.8 0.8 
0.8 0.8 0.8 0.8 0.8 0.8 
0.8 0.8 0.8 0.8 0.8 0.8 
0.8 0.8 0.8 0.8 0.8 0.8 
0.8 0.8 0.8 0.8 0.8 0.8 
0.8 0.8 0.8 0.8 0.8 0.8 
0.8 0.8 0.8 0.8 0.8 0.8 
0.8 0.8 0.8 0.8 0.8 0.8 
0.8 0.8 0.8 0.8 0.8 0.8 
0.8 0.8 0.8 0.8 0.8 0.8 
0.8 0.8 0.8 0.8 0.8 0.8 
0.8 0.8 0.8 0.8 0.8 0.8 
0.8 0.8 0.8 0.8 0.8 0.8 
0.8 0.8 0.8 0.8 0.8 0.8 
0.8 0.8 0.8 0.8 0.8 0.8 
0.8 0.8 0.8 0.8 0.8 0.8 
0.8 0.8 0.8 0.8 0.8 0.8 
0.8 0.8 0.8 0.8 0.8 0.8 
0.8 0.8 0.8 0.8 0.8 0.8 
0.8 0.8 0.8 0.8 0.8 0.8 
0.8 0.8 0.8 0.8 0.8 0.8 
0.8 0.8 0.8 0.8 0.8 0.8 
0.8 0.8 0.8 0.8 0.8 0.8 
0.8 0.8 0.8 0.8 0.8 0.8 
0.8 0.8 0.8 0.8 0.8 0.8 
0.8 0.8 0.8 0.8 0.8 0.8 
0.8 0.8 0.8 0.8 0.8 0.8 
0.8 0.8 0.8 0.8 0.8 0.8 
0.8 0.8 0.8 0.8 0.8 0.8 
0.8 0.8 0.8 0.8 0.8 0.8 
0.8 0.8 0.8 0.8 0.8 0.8 
0.8 0.8 0.8 0.8 0.8 0.8 
0.8 0.8 0.8 0.8 0.8 0.8 
0.8 0.8 0.8 0.8 0.8 0.8 
0.8 0.8 0.8 0.8 0.8 0.8 
0.8 0.8 0.8 0.8 0.8 0.8 
0.8 0.8 0.8 0.8 0.8 0.8 
0.8 0.8 0.8 0.8 0.8 0.8 
0.8 0.8 0.8 0.8 0.8 0.8 
0.8 0.8 0.8 0.8 0.8 0.8 
0.8 0.8 0.8 0.8 0.8 0.8 
0.8 0.8 0.8 0.8 0.8 0.8 
0.8 0.8 0.8 0.8 0.8 0.8 
0.8 0.8 0.8 0.8 0.8 0.8 
0.8 0.8 0.8 0.8 0.8 0.8 
0.8 0.8 0.8 0.8 0.8 0.8 
0.8 0.8 0.8 0.8 0.8 0.8 
0.8 0.8 0.8 0.8 0.8 0.8 
0.8 0.8 0.8 0.8 0.8 0.8 
0.8 0.8 0.8 0.8 0.8 0.8 
0.8 0.8 0.8 0.8 0.8 0.8 
0.8 0.8 0.8 0.8 0.8 0.8 
0.8 0.8 0.8 0.8 0.8 0.8 
0.8 0.8 0.8 0.8 0.8 0.8 
0.8 0.8 0.8 0.8 0.8 0.8 
0.8 0.8 0.8 0.8 0.8 0.8 
0.8 0.8 0.8 0.8 0.8 0.8 
0.8 0.8 0.8 0.8 0.8 0.8 
0.8 0.8 0.8 0.8 0.8 0.8 
0.8 0.8 0.8 0.8 0.8 0.8 
0.8 0.8 0.8 0.8 0.8 0.8 
0.8 0.8 0.8 0.8 0.8 0.8 
0.8 0.8 0.8 0.8 0.8 0.8 
0.8 0.8 0.8 0.8 0.8 0.8 
0.8 0.8 0.8 0.8 0.8 0.8 
0.8 0.8 0.8 0.8 0.8 0.8 
0.8 0.8 0.8 0.8 0.8 0.8 
0.8 0.8 0.8 0.8 0.8 0.8 
0.8 0.8 0.8 0.8 0.8 0.8 
0.8 0.8 0.8 0.8 0.8 0.8 
0.8 0.8 0.8 0.8 0.8 0.8 
0.8 0.8 0.8 0.8 0.8 0.8 
0.8 0.8 0.8 0.8 0.8 0.8 
0.8 0.8 0.8 0.8 0.8 0.8 
0.8 0.8 0.8 0.8 0.8 0.8 
0.8 0.8 0.8 0.8 0.8 0.8 
0.8 0.8 0.8 0.8 0.8 0.8 
0.8 0.8 0.8 0.8 0.8 0.8 
0.8 0.8 0.8 0.8 0.8 0.8 
0.8 0.8 0.8 0.8 0.8 0.8 
0.8 0.8 0.8 0.8 0.8 0.8 
0.8 0.8 0.8 0.8 0.8 0.8 
0.8 0.8 0.8 0.8 0.8 0.8 
0.8 0.8 0.8 0.8 0.8 0.8 
0.8 0.8 0.8 0.8 0.8 0.8 
0.8 0.8 0.8 0.8 0.8 0.8 
0.8 0.8 0.8 0.8 0.8 0.8 
0.8 0.8 0.8 0.8 0.8 0.8 
0.8 0.8 0.8 0.8 0.8 0.8 
0.8 0.8 0.8 0.8 0.8 0.8 
0.8 0.8 0.8 0.8 0.8 0.8 
0.8 0.8 0.8 0.8 0.8 0.8 
0.8 0.8 0.8 0.8 0.8 0.8 
0.8 0.8 0.8 0.8 0.8 0.8 
0.8 0.8 0.8 0.8 0.8 0.8 
0.8 0.8 0.8 0.8 0.8 0.8 
0.8 0.8 0.8 0.8 0.8 0.8 
0.8 0.8 0.8 0.8 0.8 0.8 
0.8 0.8 0.8 0.8 0.8 0.8 
0.8 0.8 0.8 0.8 0.8 0.8 
0.8 0.8 0.8 0.8 0.8 0.8 
0.8 0.8 0.8 0.8 0.8 0.8 
0.8 0.8 0.8 0.8 0.8 0.8 
0.8 0.8 0.8 0.8 0.8 0.8 
0.8 0.8 0.8 0.8 0.8 0.8 
0.8 0.8 0.8 0.8 0.8 0.8 
0.8 0.8 0.8 0.8 0.8 0.8 
0.8 0.8 0.8 0.8 0.8 0.8 
0.8 0.8 0.8 0.8 0.8 0.8 
0.8 0.8 0.8 0.8 0.8 0.8 
0.8 0.8 0.8 0.8 0.8 0.8 
0.8 0.8 0.8 0.8 0.8 0.8 
0.8 0.8 0.8 0.8 0.8 0.8 
0.8 0.8 0.8 0.8 0.8 0.8 
0.8 0.8 0.8 0.8 0.8 0.8 
0.8 0.8 0.8 0.8 0.8 0.8 
0.8 0.8 0.8 0.8 0.8 0.8 
0.8 0.8 0.8 0.8 0.8 0.8 
0.8 0.8 0.8 0.8 0.8 0.8 
0.8 0.8 0.8 0.8 0.8 0.8 
0.8 0.8 0.8 0.8 0.8 0.8 
0.8 0.8 0.8 0.8 0.8 0.8 
0.8 0.8 0.8 0.8 0.8 0.8 
0.8 0.8 0.8 0.8 0.8 0.8 
0.8 0.8 0.8 0.8 0.8 0.8 
0.8 0.8 0.8 0.8 0.8 0.8 
0.8 0.8 0.8 0.8 0.8 0.8 
0.8 0.8 0.8 0.8 0.8 0.8 
0.8 0.8 0.8 0.8 0.8 0.8 
0.8 0.8 0.8 0.8 0.8 0.8 
0.8 0.8 0.8 0.8 0.8 0.8 
0.8 0.8 0.8 0.8 0.8 0.8 
0.8 0.8 0.8 0.8 0.8 0.8 
0.8 0.8 0.8 0.8 0.8 0.8 
0.8 0.8 0.8 0.8 0.8 0.8 
0.8 0.8 0.8 0.8 0.8 0.8 
0.8 0.8 0.8 0.8 0.8 0.8 
0.8 0.8 0.8 0.8 0.8 0.8 
0.8 0.8 0.8 0.8 0.8 0.8 
0.8 0.8 0.8 0.8 0.8 0.8 
0.8 0.8 0.8 0.8 0.8 0.8 
0.8 0.8 0.8 0.8 0.8 0.8 
0.8 0.8 0.8 0.8 0.8 0.8 
0.8 0.8 0.8 0.8 0.8 0.8 
0.8 0.8 0.8 0.8 0.8 0.8 
0.8 0.8 0.8 0.8 0.8 0.8 
0.8 0.8 0.8 0.8 0.8 0.8 
0.8 0.8 0.8 0.8 0.8 0.8 
0.8 0.8 0.8 0.8 0.8 0.8 
0.8 0.8 0.8 0.8 0.8 0.8 
0.8 0.8 0.8 0.8 0.8 0.8 
0.8 0.8 0.8 0.8 0.8 0.8 
0.8 0.8 0.8 0.8 0.8 0.8 
0.8 0.8 0.8 0.8 0.8 0.8 
0.8 0.8 0.8 0.8 0.8 0.8 
0.8 0.8 0.8 0.8 0.8 0.8 
0.8 0.8 0.8 0.8 0.8 0.8 
0.8 0.8 0.8 0.8 0.8 0.8 
0.8 0.8 0.8 0.8 0.8 0.8 
0.8 0.8 0.8 0.8 0.8 0.8 
0.8 0.8 0.8 0.8 0.8 0.8 
0.8 0.8 0.8 0.8 0.8 0.8 
0.8 0.8 0.8 0.8 0.8 0.8 
0.8 0.8 0.8 0.8 0.8 0.8 
0.8 0.8 0.8 0.8 0.8 0.8 
0.8 0.8 0.8 0.8 0.8 0.8 
0.8 0.8 0.8 0.8 0.8 0.8 
0.8 0.8 0.8 0.8 0.8 0.8 
0.8 0.8 0.8 0.8 0.8 0.8 
0.8 0.8 0.8 0.8 0.8 0.8 
0.8 0.8 0.8 0.8 0.8 0.8 
0.8 0.8 0.8 0.8 0.8 0.8 
0.8 0.8 0.8 0.8 0.8 0.8 
0.8 0.8 0.8 0.8 0.8 0.8 
0.8 0.8 0.8 0.8 0.8 0.8 
0.8 0.8 0.8 0.8 0.8 0.8 
0.8 0.8 0.8 0.8 0.8 0.8 
0.8 0.8 0.8 0.8 0.8 0.8 
0.8 0.8 0.8 0.8 0.8 0.8 
0.8 0.8 0.8 0.8 0.8 0.8 
0.8 0.8 0.8 0.8 0.8 0.8 
0.8 0.8 0.8 0.8 0.8 0.8 
0.8 0.8 0.8 0.8 0.8 0.8 
0.8 0.8 0.8 0.8 0.8 0.8 
0.8 0.8 0.8 0.8 0.8 0.8 
0.8 0.8 0.8 0.8 0.8 0.8 
0.8 0.8 0.8 0.8 0.8 0.8 
0.8 0.8 0.8 0.8 0.8 0.8 
0.8 0.8 0.8 0.8 0.8 0.8 
0.8 0.8 0.8 0.8 0.8 0.8 
0.8 0.8 0.8 0.8 0.8 0.8 
0.8 0.8 0.8 0.8 0.8 0.8 
0.8 0.8 0.8 0.8 0.8 0.8 
0.8 0.8 0.8 0.8 0.8 0.8 
0.8 0.8 0.8 0.8 0.8 0.8 
0.8 0.8 0.8 0.8 0.8 0.8 
0.8 0.8 0.8 0.8 0.8 0.8 
0.8 0.8 0.8 0.8 0.8 0.8 
0.8 0.8 0.8 0.8 0.8 0.8 
0.8 0.8 0.8 0.8 0.8 0.8 
0.8 0.8 0.8 0.8 0.8 0.8 

NORMALS Normals float
-0.247558 -0.929852 -0.272194 -0.429905 -0.642559 -0.634271 0.0658863 -0.657342 -0.750706 
0.307099 -0.699915 -0.644833 -0.246951 -0.303232 -0.920361 0.361332 -0.318372 -0.876401 
-0.0188301 0.0325315 -0.999293 0.245164 0.0567853 -0.967817 -0.46228 -0.761232 -0.454777 
0.455167 -0.409258 -0.790778 0.161364 -0.880489 -0.445758 0.386894 -0.730225 -0.563102 
-0.503944 -0.488401 -0.712394 -0.660122 -0.683136 -0.312353 -0.674822 -0.502399 -0.540565 
-0.419208 -0.263809 -0.868717 -0.530867 -0.148072 -0.834419 -0.818823 -0.371894 -0.437292 
-0.353917 0.0352087 -0.934614 -0.353079 0.244429 -0.9031 -0.207472 0.335613 -0.918868 
0.0426517 0.438561 -0.897689 0.220109 0.341838 -0.913618 -0.462707 -0.884222 -0.0636707 
-0.00759332 -0.981371 -0.191972 0.310802 -0.840274 -0.444232 -0.71469 -0.694723 -0.0811132 
0.592808 -0.509689 -0.623536 -0.909068 -0.41086 -0.0692109 -0.932082 -0.145201 -0.331874 
0.549008 -0.177222 -0.816812 -0.624358 0.136578 -0.769106 -0.568856 0.548636 -0.6127 
-0.246179 0.689295 -0.681372 0.355054 0.2728 -0.894157 0.44303 0.0971707 -0.891225 
0.0683274 0.670369 -0.738875 -0.44598 -0.876652 0.180508 0.247338 -0.92049 -0.302525 
-0.841121 -0.540728 -0.0113233 0.567367 -0.663772 -0.487341 -0.889402 -0.422917 0.173507 
-0.725373 -0.620389 0.298248 0.672714 -0.312718 -0.67057 -0.86319 0.348207 -0.365589 
0.675319 0.0205734 -0.737239 0.452434 0.50873 -0.73246 -0.340396 0.803476 -0.488422 
-0.175488 0.809733 -0.559943 -0.506112 -0.838886 0.200303 0.434501 -0.860645 -0.265516 
0.0934938 -0.986106 -0.137308 0.650627 -0.644365 -0.401844 -0.984014 -0.0766644 0.160745 
-0.82668 -0.25588 0.501125 0.80636 -0.358072 -0.470711 0.876669 -0.335837 -0.344477 
-0.833364 0.515838 -0.198536 -0.853685 -0.0133485 0.520619 0.891952 -0.0906699 -0.442946 
0.739101 0.265057 -0.619254 0.931285 0.0209031 -0.363691 -0.68397 0.718265 -0.127594 
0.763253 0.292474 -0.576111 0.924602 0.119212 -0.3618 -0.118795 0.839619 -0.530026 
-0.148163 0.872539 -0.465535 0.0808931 0.782333 -0.617585 -0.0758115 -0.997023 0.0140396 
0.313778 -0.948751 -0.0376072 -0.812057 -0.360995 0.458527 -0.855802 0.513147 0.0654402 
-0.865843 0.243937 0.436819 0.947724 -0.244804 -0.204669 0.979519 -0.0218988 -0.200156 
0.920711 0.252763 -0.297324 -0.398586 0.856349 -0.328323 -0.275508 0.8803 -0.386223 
0.180713 0.796178 -0.577445 -0.0703888 -0.991965 0.105121 -0.729679 -0.532247 0.42928 
0.622863 -0.782329 -0.00199106 -0.765274 -0.465816 0.444264 0.845137 -0.516638 -0.137218 
0.594024 0.603754 -0.531617 0.427745 0.723127 -0.542329 -0.303139 0.872843 -0.382428 
-0.438363 -0.846951 0.300853 0.0895227 -0.991484 0.0945814 0.274469 -0.952653 0.130843 
-0.855988 -0.0964174 0.507925 0.956586 -0.27682 -0.0911769 -0.892361 0.229261 0.388756 
-0.891792 0.351801 0.284504 -0.134133 0.878178 -0.459142 0.260515 0.824775 -0.501875 
0.76778 0.514989 -0.381183 -0.434931 -0.789722 0.432636 -0.150025 -0.944494 0.292273 
-0.793857 -0.339448 0.504545 -0.931617 0.1566 0.327973 -0.635805 0.755684 -0.157142 
-0.0288707 0.887614 -0.459683 0.404726 0.733708 -0.545774 0.435408 0.77096 -0.464802 
-0.0246628 -0.90664 0.421185 -0.464301 -0.695043 0.548945 -0.752333 -0.452357 0.478924 
0.575402 -0.807554 0.129493 0.999418 0.0261065 -0.0219539 0.906498 0.327169 -0.266875 
-0.109771 0.906057 -0.408671 0.891825 0.409309 -0.19265 0.260526 -0.942811 0.207926 
0.395653 -0.900422 0.180827 -0.852248 -0.29451 0.432362 -0.869872 0.487904 0.0726134 
-0.783518 0.620903 -0.0240576 -0.55517 0.814646 -0.167746 0.642975 0.657233 -0.393227 
0.352675 0.872707 -0.337644 0.599708 0.740479 -0.303383 -0.569612 -0.621554 0.537785 
0.919117 -0.389486 0.059364 -0.961239 0.073013 0.265875 0.963795 0.206923 -0.168171 
-0.510395 0.837185 -0.196516 0.00616646 0.919899 -0.392108 0.036176 0.975465 -0.217161 
-0.272663 -0.755822 0.595305 0.183887 -0.890096 0.417031 0.206973 -0.830927 0.516451 
-0.535468 -0.613075 0.580872 0.621236 -0.687679 0.375717 0.818062 -0.500779 0.282832 
-0.794853 -0.316321 0.517832 -0.857696 -0.171838 0.484592 0.975376 -0.216078 0.044179 
-0.809379 0.586688 -0.0265181 0.868345 0.410231 -0.278723 -0.522719 0.85043 -0.0594506 
-0.409909 0.890224 -0.198685 0.885118 0.424857 -0.189903 0.453161 0.819098 -0.351744 
0.283532 0.916455 -0.282348 -0.126088 -0.85501 0.50305 0.298694 -0.744996 0.596459 
0.810774 -0.522959 0.262981 -0.726328 -0.367148 0.581077 0.952587 -0.280478 0.117945 
-0.908627 0.126183 0.398089 0.997468 0.0569533 0.0425905 -0.185213 0.966467 -0.177872 
-0.0323453 0.962702 -0.268624 0.291782 0.952102 -0.091465 0.675381 0.729568 -0.107658 
0.261503 -0.761076 0.593615 -0.513648 -0.503094 0.695026 0.955888 -0.190457 0.223616 
-0.782507 0.612687 0.110892 -0.364671 0.925405 -0.103152 -0.19661 -0.653768 0.730707 
-0.0981238 -0.641979 0.760417 0.359392 -0.734794 0.575252 0.888009 -0.308285 0.341174 
0.970752 -0.153893 0.184274 -0.676837 0.732456 0.0734792 -0.50731 0.861749 0.00502263 
-0.348632 0.936586 0.0355181 0.974644 -0.0726635 0.211633 0.962873 0.26837 -0.0292207 
-0.39606 0.917855 0.0260301 0.581205 -0.582302 0.568441 -0.36859 -0.556206 0.744833 
0.12557 -0.667758 0.733711 0.481757 -0.561877 0.672461 0.819605 -0.409197 0.401007 
-0.640775 -0.270908 0.718343 0.993643 -0.112538 -0.00281812 -0.703924 0.65361 0.278003 
-0.226513 0.967191 0.115039 0.228356 0.973513 0.0112072 -0.0296664 -0.501847 0.864448 
0.956926 -0.138081 0.255395 -0.861686 0.188212 0.471247 -0.642763 0.0693887 0.762916 
0.922416 0.301366 0.241509 -0.722052 0.490489 0.487915 -0.60566 0.446814 0.658432 
-0.406392 0.854636 0.323175 -0.00845542 0.978048 0.20821 0.724726 -0.391776 0.566818 
-0.627089 -0.0549076 0.77701 0.0861679 -0.367311 0.926098 -0.439394 -0.0168995 0.898135 
-0.382902 0.327025 0.863968 0.633648 0.760996 0.139194 0.127297 0.827441 0.546935 
0.741352 0.248962 0.623229 -0.356604 0.750063 0.556992 0.684785 -0.20676 0.698799 
0.177104 -0.0765643 0.981209 0.0483768 0.4315 0.900815 -0.198653 0.71304 -0.672392 
0.517578 -0.138788 -0.844305 0.734897 0.324959 -0.595254 -0.0658741 -0.237248 -0.969213 
-0.475958 -0.0479489 -0.87816 0.568591 -0.246924 -0.784686 -0.444563 0.0443306 -0.89465 
0.100099 -0.224789 -0.969252 -0.75399 0.199377 -0.625897 -0.653275 0.413321 -0.634348 
0.843104 -0.00950492 -0.537666 0.577141 0.703342 -0.414992 0.881217 0.399627 -0.252496 
0.398904 0.898912 -0.181198 0.20166 -0.666992 -0.717255 0.0923858 -0.42421 -0.900839 
0.619347 -0.496635 -0.608082 -0.244722 -0.235904 -0.940457 -0.630338 -0.269295 -0.728117 
-0.22905 -0.48897 -0.841692 0.535588 -0.398446 -0.744572 -0.555734 -0.128243 -0.82141 
0.927856 -0.119624 -0.353233 -0.663236 0.630996 -0.402445 -0.154009 -0.653863 -0.740773 
0.693012 -0.589012 -0.415692 -0.727231 -0.29774 -0.618454 0.862549 -0.370233 -0.344872 
-0.846331 0.129052 -0.516788 0.946125 0.29667 -0.129746 0.489074 0.868439 -0.0813654 
-0.281444 -0.652132 -0.703927 0.337483 -0.698051 -0.631529 0.524913 -0.689076 -0.499641 
-0.541938 -0.5474 -0.637697 -0.903265 0.0770957 -0.4221 0.974014 -0.0130635 -0.226113 
-0.795079 0.471237 -0.381817 -0.548657 0.755918 -0.35716 0.908735 0.41309 -0.0596369 
0.654503 0.75553 0.0282969 -0.613668 -0.484848 -0.623165 -0.801116 -0.341633 -0.491426 
0.811295 -0.430103 -0.395994 -0.935439 0.0794734 -0.344439 0.977501 -0.168863 -0.126403 
0.979941 0.198977 0.0111423 -0.67722 0.732901 -0.065039 0.890768 0.444328 0.095421 
-0.24103 0.95097 -0.193803 -0.154155 -0.823235 -0.546371 -0.449698 -0.661639 -0.600005 
0.0157927 -0.783652 -0.621 -0.181456 -0.681294 -0.709163 0.799258 -0.503212 -0.32858 
-0.954283 0.07608 -0.289058 -0.86348 0.476858 -0.164345 -0.276403 0.960272 0.0384546 
0.842371 0.521504 0.13581 0.509004 -0.663459 -0.548395 -0.801917 -0.375143 -0.46497 
-0.911435 -0.101867 -0.398634 0.969266 0.23908 0.0580024 -0.818017 0.569559 -0.0803102 
-0.365251 0.92413 0.112138 0.171194 0.976196 0.133165 0.625805 0.772255 0.109503 
0.260083 -0.893373 -0.366389 0.465821 -0.750974 -0.468027 0.524767 -0.817131 -0.238572 
0.737359 -0.633177 -0.23535 -0.752429 -0.481557 -0.449391 -0.914857 0.0178549 -0.403382 
-0.884578 0.421915 -0.198769 0.927633 0.336479 0.162105 -0.600872 0.797187 0.058701 
0.805592 0.566348 0.173989 0.508573 0.808894 0.295031 0.4378 -0.833278 -0.337608 
-0.72624 -0.569665 -0.384782 -0.817267 -0.357697 -0.451805 -0.942302 0.102948 -0.318542 
0.984892 -0.17276 -0.0119348 -0.938145 0.337364 -0.0779024 -0.507515 0.857683 0.0825062 
-0.114852 0.938571 0.325412 -0.381496 -0.792053 -0.476564 0.0141192 -0.912322 -0.40923 
0.240557 -0.885516 -0.397484 -0.734361 -0.471393 -0.488367 0.983213 0.0925333 0.15726 
-0.795681 0.60294 0.057925 -0.296217 0.950132 0.0974942 0.553105 0.782848 0.284998 
0.375514 0.8416 0.3882 0.0426792 -0.934006 -0.354699 0.26178 -0.934806 -0.240017 
0.508726 -0.839397 -0.191338 0.654875 -0.727962 -0.203004 0.828748 -0.554088 -0.0785058 
-0.929036 0.270501 -0.252432 -0.844057 0.526859 -0.0999355 -0.524832 0.809537 0.263061 
-0.044954 0.951996 0.302793 0.416726 0.822788 0.38647 -0.399508 -0.83268 -0.383456 
-0.559933 -0.75318 -0.345246 -0.168086 -0.973638 -0.154196 0.238973 -0.962916 -0.12524 
-0.71755 -0.607114 -0.341373 0.938556 0.232529 0.255034 -0.832994 0.549675 -0.0630765 
-0.768745 0.639021 0.026153 0.752963 0.556858 0.350651 0.338464 0.818441 0.464324 
0.140264 0.868937 0.47463 0.214349 0.786862 0.578708 0.0043835 0.881792 0.471619 
0.531049 0.753824 0.386957 -0.564917 -0.775455 -0.282027 0.0870311 -0.995853 -0.026517 
0.48895 -0.872263 -0.00926239 -0.8917 -0.228387 -0.390783 -0.917217 0.358605 -0.173535 
-0.871112 0.484889 -0.0777631 -0.58202 0.78086 0.226959 -0.314605 0.863093 0.395087 
0.244424 -0.968356 0.0504307 0.671124 -0.715653 0.193476 -0.775963 -0.443155 -0.448882 
0.783773 -0.616378 0.0760143 0.949739 -0.240471 0.200425 -0.909776 0.208317 -0.359043 
0.907845 0.29206 0.300863 -0.669935 0.725119 0.159341 0.655539 0.609812 0.445418 
-0.752214 0.645607 -0.131779 0.899086 0.205193 0.386705 -0.343203 -0.922307 -0.177657 
0.635462 -0.713144 0.295997 -0.831566 -0.393008 -0.392482 0.86473 -0.234661 0.444045 
-0.961265 -0.0758895 -0.264973 -0.938207 0.334092 -0.0902805 0.847254 -0.034932 0.530039 
0.726469 0.197667 0.658157 -0.38861 0.796689 0.462891 0.439917 0.614792 0.654602 
0.587861 0.421721 0.690342 -0.0707959 0.826082 0.559085 -0.127307 0.780595 0.611935 
-0.112152 -0.988688 0.0995851 0.279135 -0.922765 0.265685 -0.516575 -0.855141 -0.0434131 
0.618452 -0.543518 0.567543 -0.785621 -0.598093 -0.158377 -0.821375 -0.542708 0.175533 
-0.958617 -0.175228 0.224386 0.751695 -0.320639 0.57632 -0.822851 0.369181 0.431996 
0.707791 0.1271 0.694894 -0.748975 0.616864 0.2419 -0.602012 0.74689 0.282378 
-0.524106 0.805849 0.275536 0.542238 0.330767 0.772381 0.550446 0.0429332 0.833766 
-0.0588613 0.779523 0.623602 0.275539 0.518383 0.809541 0.0186277 -0.946222 0.322982 
0.139286 -0.878475 0.457035 0.312313 -0.644231 0.698159 -0.72894 -0.683347 0.0410327 
-0.50556 -0.858641 0.0845234 -0.791555 -0.574421 0.208522 0.491712 -0.463207 0.737332 
-0.870774 -0.0389988 0.490134 -0.886806 -0.287969 0.361454 -0.558766 0.603875 0.568433 
0.496232 -0.0143699 0.868071 -0.284747 0.723723 0.628605 -0.0871888 0.723209 0.685104 
-0.158453 -0.940854 0.299478 -0.254529 -0.966407 0.0356639 0.206806 -0.866671 0.453996 
-0.294763 -0.540532 0.787998 -0.714696 -0.470372 0.517649 0.318382 -0.479588 0.817697 
-0.692932 -0.15577 0.703975 -0.708051 0.214762 0.672712 -0.44723 -0.0252416 0.894063 
-0.419617 0.385551 0.82175 -0.141952 0.305467 0.941562 0.322793 -0.126517 0.937976 
-0.341607 0.640839 0.687481 0.146432 0.542661 0.827089 0.0821694 0.331427 0.939896 
-0.0220037 0.633691 0.773274 0.15289 -0.560326 0.814039 -0.0611885 -0.104408 0.99265 
0.0453487 -0.196192 0.979516 0.154682 0.0884354 0.983998 -0.0724485 0.507639 0.858519 

