# vtk DataFile Version 4.2
vtk output
ASCII
DATASET POLYDATA
POINTS 554 float
239.154 96.4554 212.322 239.081 96.4401 212.389 239.046 96.5571 212.348 
239.233 96.3954 212.393 237.921 97.2247 212.08 237.852 97.1779 212.184 
238.25 97.0632 212.234 239.215 96.4654 212.382 237.286 97.7199 211.948 
237.315 97.6631 211.949 237.2 97.7431 212.008 237.826 97.3507 212.083 
237.373 97.6596 211.979 235.859 98.6101 212.182 235.702 98.6297 212.295 
235.699 98.7388 212.274 236.031 98.5383 212.151 237.271 97.8005 212.099 
236.274 98.3877 212.175 234.062 99.7879 212.496 234.043 99.7492 212.589 
234.017 99.8278 212.562 235.902 98.6847 212.233 236.151 98.5498 212.203 
243.155 93.5988 213.585 243.141 93.6057 213.648 243.119 93.6346 213.619 
243.188 93.5968 213.667 241.087 95.0953 213.232 241.052 95.1041 213.28 
241.074 95.1323 213.274 241.102 95.0711 213.293 238.72 96.6484 212.364 
241.124 95.0993 213.288 237.417 97.5207 212.097 238.226 96.8148 212.446 
238.809 96.7975 212.374 236.731 97.9974 212.235 237.592 97.5809 212.093 
235.474 98.8054 212.432 237.086 98.1337 212.462 233.915 99.8571 212.677 
233.816 99.7964 212.846 233.759 99.9603 212.89 234.311 99.6309 212.623 
235.618 98.9209 212.498 231.946 100.987 213.404 231.94 100.934 213.479 
231.883 101.035 213.49 232.012 101.001 213.48 245.708 92.2939 214.559 
245.671 92.3304 214.61 245.754 92.2766 214.603 243.199 93.5874 213.886 
243.041 93.6919 213.76 243.276 93.6443 213.846 245.732 92.3132 214.605 
242.2 94.3851 213.763 242.283 94.247 213.854 242.021 94.4581 213.757 
243.086 93.729 213.736 242.408 94.3465 213.862 241.044 95.0544 213.501 
240.959 95.2003 213.344 241.21 95.0347 213.404 239.505 95.9858 213.082 
239.702 96.1977 212.929 241.152 95.1924 213.47 239.127 96.8909 212.815 
236.313 97.6433 213.123 234.888 99.1591 212.728 233.433 100.021 213.184 
231.772 101.041 213.608 231.749 100.889 213.766 231.548 101.14 213.822 
232.186 100.857 213.479 233.686 100.177 213.231 230.745 101.723 214.321 
230.709 101.642 214.375 230.643 101.789 214.457 231.818 101.176 213.758 
250 89.0087 213.517 250 89.0087 213.517 250 89.0088 213.517 
250 89.0087 213.517 250 89.0088 213.517 247.178 91.4612 215.425 
247.154 91.4659 215.472 247.129 91.5 215.441 247.219 91.4532 215.51 
245.687 92.2741 214.918 245.58 92.3888 214.766 245.806 92.2819 214.666 
245.85 92.246 214.809 242.926 93.7051 214.069 243.526 93.5037 214.193 
245.663 92.4077 214.738 243.619 93.6009 214.212 242.772 93.9768 213.906 
240.471 95.5489 213.421 241.346 94.6746 213.962 241.63 94.7872 213.698 
242.897 94.3128 214.195 241.044 95.641 213.772 235.077 98.2743 213.688 
237.295 98.6422 213.796 232.957 100.018 213.62 234.876 99.6864 213.099 
231.295 101.109 214.095 232.151 100.444 213.954 232.781 100.522 213.552 
230.482 101.799 214.619 230.271 101.907 214.937 230.833 101.36 214.429 
231.202 101.455 214.149 230.937 101.959 214.789 250 89.0087 213.518 
250 89.0087 213.518 250 89.0088 213.518 248.818 90.5157 216.084 
248.769 90.5446 216.139 248.756 90.5717 216.143 250 89.0088 213.518 
248.829 90.507 216.085 247.208 91.434 215.696 247.015 91.5581 215.533 
247.332 91.4922 215.715 248.805 90.5413 216.129 245.355 92.4796 215.037 
246.023 92.1062 215.206 246.11 92.2764 215.167 247.082 91.5995 215.539 
242.858 93.6019 214.582 243.862 93.2431 214.743 243.958 93.4592 214.57 
245.432 92.6027 214.941 240.397 96.8179 214.606 233.559 100.758 214.191 
231.875 101.554 214.392 230.033 102.213 215.506 250 89.0087 213.518 
248.623 90.6318 216.308 248.588 90.6845 216.251 248.814 90.5237 216.142 
248.781 90.5582 216.252 246.838 91.5725 215.771 247.621 91.2843 216.053 
248.663 90.6923 216.299 247.86 91.3762 216.259 248.781 90.581 216.24 
245.059 92.4778 215.447 246.207 91.8484 215.733 246.656 91.8634 215.546 
244.226 92.842 215.47 244.754 92.9988 215.075 246.806 92.2631 215.966 
245.137 93.3811 215.514 230.08 101.404 215.562 228.799 102.663 216.683 
228.524 102.626 216.984 228.523 102.88 217.002 230.391 102.76 216.225 
248.331 90.8026 216.432 247.79 91.0545 216.473 248.236 91.0029 216.388 
248.575 90.9311 216.739 240.323 94.6338 216.499 228.24 102.678 217.41 
228.35 103.242 217.446 230.39 103.017 216.811 248.447 90.8007 216.949 
248.65 90.7476 216.676 248.59 90.9414 217.249 248.647 91.0428 217.167 
248.66 91.1614 217.319 228.811 101.716 217.883 228.494 102.091 217.705 
228.096 102.521 217.941 227.932 103.044 217.841 229.642 103.561 217.624 
248.664 91.1308 217.554 243.822 95.7026 217.785 240.897 97.5513 218.035 
226.141 104.757 219.941 226.06 104.828 220.115 227.816 104.285 218.896 
248.487 91.2172 218.784 245.949 91.6185 219.084 226.64 103.803 219.706 
226.117 104.378 220.224 225.952 104.76 220.32 226.602 104.45 219.676 
227.278 104.615 219.51 227.948 104.65 219.464 225.981 105.095 220.553 
226.67 105.001 220.154 248.316 91.1629 219.01 248.722 91.799 219.536 
226.235 103.871 220.464 225.869 104.269 220.768 225.624 104.796 220.94 
228.702 104.755 219.921 225.113 105.611 221.665 248.742 92.2993 220.824 
248.241 93.3466 221.073 245.8 95.1779 220.446 225.601 104.333 221.351 
224.763 105.248 222.199 224.99 106.666 222.645 248.578 92.9233 221.173 
248.722 92.6436 221.513 229.652 100.924 221.775 232.042 103.703 222.138 
224.533 105.183 222.701 224.318 105.656 222.777 225.664 106.613 222.6 
224.05 106.879 223.404 247.705 91.5935 222.762 248.713 92.0596 222.078 
248.64 92.0311 222.865 248.592 93.1374 222.917 224.608 104.902 222.995 
223.912 105.805 223.478 223.178 107.016 224.316 223.118 106.342 224.752 
222.792 107.178 224.876 226.223 106.852 223.825 222.536 107.729 225.268 
248.152 91.7897 224.025 248.424 91.9885 224.431 222.491 106.773 225.875 
221.918 108.102 225.897 221.746 107.834 226.275 221.507 108.257 226.301 
221.211 108.765 226.462 222.374 108.292 225.702 221.389 108.805 226.337 
221.141 108.959 226.576 221.612 108.84 226.289 221.99 108.725 226.17 
222.591 108.62 226.145 248.583 92.3597 225.661 248.713 92.6061 225.199 
224.784 104.18 225.969 221.108 108.554 226.955 221.033 108.865 226.763 
220.991 109.044 226.72 220.948 109.052 226.83 220.961 109.104 226.784 
218 111.009 226.017 218 111.009 226.017 218 111.009 226.017 
221.093 109.096 226.777 218 111.009 226.017 221.315 109.121 226.888 
218 111.009 226.017 248.383 92.2793 226.606 231.991 104.333 227.17 
221.037 108.612 227.378 220.988 109.104 226.908 220.989 109.001 227.097 
218 111.009 226.017 221.161 109.118 227.163 248.335 92.2641 228.11 
247.99 94.314 228.033 221.058 108.569 228.018 221.083 108.936 227.983 
221.449 109.112 227.868 247.583 91.9182 228.95 247.369 91.9201 228.963 
248.511 92.2961 229.318 220.964 108.668 228.696 220.904 108.764 229.004 
220.855 108.892 229.094 220.834 108.973 229.01 220.967 108.869 228.491 
218.002 111.011 229.517 218.002 111.011 229.517 218.002 111.011 229.517 
220.924 108.988 228.828 218.002 111.011 229.517 221.161 109.026 228.51 
218.002 111.011 229.517 247.215 91.8663 230.103 248.053 91.9233 229.906 
248.349 92.0509 230.069 223.726 105.213 229.774 221.827 107.716 229.821 
220.995 108.737 229.213 223.551 108.511 229.352 220.947 108.877 229.227 
220.863 108.964 229.13 222.227 108.968 228.839 218.002 111.011 229.518 
218.002 111.011 229.518 218.002 111.011 229.518 220.897 109.002 229.041 
221.076 109.005 228.963 218.002 111.011 229.518 248.71 93.1792 231.483 
223.585 105.793 231.117 221.237 108.726 229.407 222.002 108.403 229.977 
221.255 108.908 229.205 221.6 108.543 229.716 218.002 111.011 229.518 
247.202 91.7484 231.73 248.723 92.1868 232.176 248.812 92.7787 232.109 
228.884 105.622 232.025 223.064 106.85 231.116 222.33 107.743 230.559 
224.289 107.572 231.095 248.767 92.2064 232.828 248.829 92.4128 232.337 
225.492 103.98 233.088 223.703 106.553 231.979 223.38 107.303 231.348 
248.498 91.7655 234.316 248.563 93.1028 233.956 247.899 93.9414 233.527 
224.446 105.82 233.047 224.201 106.149 232.783 224.055 106.338 232.558 
226.097 106.153 233.521 222.709 107.66 230.992 247.092 91.4561 234.707 
248.131 91.4151 235.206 226.903 102.94 235.243 225.397 104.811 234.172 
224.86 105.974 233.526 224.782 106.325 233.136 225.32 105.776 234.046 
248.727 91.5647 236.665 248.708 91.9594 235.609 226.661 103.291 235.491 
226.362 103.743 235.38 225.056 105.589 234.12 225.685 105.311 234.581 
227.623 105.062 235.426 248.726 91.1541 237.429 248.818 91.3305 237.278 
248.83 91.3639 237.411 248.739 91.5408 237.282 231.679 103.18 236.8 
226.695 103.887 236.207 226.269 104.435 235.689 227.532 104.379 236.576 
225.119 105.622 234.213 226.289 104.642 235.619 226.609 104.766 235.745 
248.644 90.8456 238.172 248.795 90.9138 238.384 248.805 91.2252 237.691 
248.786 91.371 237.608 243.235 92.9097 237.466 246.447 93.8214 237.522 
227.185 104.058 236.759 248.839 90.5447 239.036 248.357 90.8357 238.531 
248.913 90.5942 238.923 249.02 90.4606 239.286 247.738 91.1187 238.599 
248.566 91.0906 238.608 230.102 101.016 239.241 228.478 102.213 238.079 
227.828 103.051 237.81 227.543 103.342 237.589 227.402 103.505 237.406 
229.288 103.375 238.22 227.403 103.706 237.282 248.831 90.4999 239.32 
249.113 90.3031 239.562 249.154 90.2726 239.682 246.587 91.69 239.163 
247.549 91.3307 239.121 248.339 90.9492 238.976 248.918 90.4585 239.478 
247.822 91.4331 239.014 245.873 92.0133 239.406 237.771 96.1754 239.812 
234.734 97.9641 239.582 229.914 101.238 239.436 229.344 101.993 239.234 
228.575 102.682 238.642 228.071 103.517 237.868 249.262 90.139 239.905 
249.339 90.0469 240.086 249.285 90.101 239.98 247.349 91.5805 239.373 
249.067 90.2912 239.704 249.176 90.2001 239.864 244.673 92.5913 240.084 
245.604 92.2453 240.057 246.432 92.0944 239.604 245.698 92.3769 240.137 
243.912 93.0159 240.327 245.286 92.593 240.406 244.734 93.3499 240.281 
235.91 99.8395 240.518 233.455 101.025 240.622 229.969 101.75 240.13 
228.543 102.882 238.584 229.921 102.152 239.826 231.065 102.178 240.048 
249.37 90.011 240.161 249.271 90.093 240.03 249.301 90.0736 240.059 
249.369 90.0063 240.177 249.26 90.1052 240.019 247.141 91.5255 239.706 
247.098 91.5755 239.736 245.023 92.5038 240.549 245.337 92.3282 240.509 
[...]
POINT_DATA 554
COLOR_SCALARS scalars 3
0.8 0.8 0.8 0.8 0.8 0.8 0.8 0.8 0.8 
0.8 0.8 0.8 0.8 0.8 0.8 
0.8 0.8 0.8 0.8 0.8 0.8 
0.8 0.8 0.8 0.8 0.8 0.8 
0.8 0.8 0.8 0.8 0.8 0.8 
0.8 0.8 0.8 0.8 0.8 0.8 
0.8 0.8 0.8 0.8 0.8 0.8 
0.8 0.8 0.8 0.8 0.8 0.8 
0.8 0.8 0.8 0.8 0.8 0.8 
0.8 0.8 0.8 0.8 0.8 0.8 
0.8 0.8 0.8 0.8 0.8 0.8 
0.8 0.8 0.8 0.8 0.8 0.8 
0.8 0.8 0.8 0.8 0.8 0.8 
0.8 0.8 0.8 0.8 0.8 0.8 
0.8 0.8 0.8 0.8 0.8 0.8 
0.8 0.8 0.8 0.8 0.8 0.8 
0.8 0.8 0.8 0.8 0.8 0.8 
0.8 0.8 0.8 0.8 0.8 0.8 
0.8 0.8 0.8 0.8 0.8 0.8 
0.8 0.8 0.8 0.8 0.8 0.8 
0.8 0.8 0.8 0.8 0.8 0.8 
0.8 0.8 0.8 0.8 0.8 0.8 
0.8 0.8 0.8 0.8 0.8 0.8 
0.8 0.8 0.8 0.8 0.8 0.8 
0.8 0.8 0.8 0.8 0.8 0.8 
0.8 0.8 0.8 0.8 0.8 0.8 
0.8 0.8 0.8 0.8 0.8 0.8 
0.8 0.8 0.8 0.8 0.8 0.8 
0.8 0.8 0.8 0.8 0.8 0.8 
0.8 0.8 0.8 0.8 0.8 0.8 
0.8 0.8 0.8 0.8 0.8 0.8 
0.8 0.8 0.8 0.8 0.8 0.8 
0.8 0.8 0.8 0.8 0.8 0.8 
0.8 0.8 0.8 0.8 0.8 0.8 
0.8 0.8 0.8 0.8 0.8 0.8 
0.8 0.8 0.8 0.8 0.8 0.8 
0.8 0.8 0.8 0.8 0.8 0.8 
0.8 0.8 0.8 0.8 0.8 0.8 
0.8 0.8 0.8 0.8 0.8 0.8 
0.8 0.8 0.8 0.8 0.8 0.8 
0.8 0.8 0.8 0.8 0.8 0.8 
0.8 0.8 0.8 0.8 0.8 0.8 
0.8 0.8 0.8 0.8 0.8 0.8 
0.8 0.8 0.8 0.8 0.8 0.8 
0.8 0.8 0.8 0.8 0.8 0.8 
0.8 0.8 0.8 0.8 0.8 0.8 
0.8 0.8 0.8 0.8 0.8 0.8 
0.8 0.8 0.8 0.8 0.8 0.8 
0.8 0.8 0.8 0.8 0.8 0.8 
0.8 0.8 0.8 0.8 0.8 0.8 
0.8 0.8 0.8 0.8 0.8 0.8 
0.8 0.8 0.8 0.8 0.8 0.8 
0.8 0.8 0.8 0.8 0.8 0.8 
0.8 0.8 0.8 0.8 0.8 0.8 
0.8 0.8 0.8 0.8 0.8 0.8 
0.8 0.8 0.8 0.8 0.8 0.8 
0.8 0.8 0.8 0.8 0.8 0.8 
0.8 0.8 0.8 0.8 0.8 0.8 
0.8 0.8 0.8 0.8 0.8 0.8 
0.8 0.8 0.8 0.8 0.8 0.8 
0.8 0.8 0.8 0.8 0.8 0.8 
0.8 0.8 0.8 0.8 0.8 0.8 
0.8 0.8 0.8 0.8 0.8 0.8 
0.8 0.8 0.8 0.8 0.8 0.8 
0.8 0.8 0.8 0.8 0.8 0.8 
0.8 0.8 0.8 0.8 0.8 0.8 
0.8 0.8 0.8 0.8 0.8 0.8 
0.8 0.8 0.8 0.8 0.8 0.8 
0.8 0.8 0.8 0.8 0.8 0.8 
0.8 0.8 0.8 0.8 0.8 0.8 
0.8 0.8 0.8 0.8 0.8 0.8 
0.8 0.8 0.8 0.8 0.8 0.8 
0.8 0.8 0.8 0.8 0.8 0.8 
0.8 0.8 0.8 0.8 0.8 0.8 
0.8 0.8 0.8 0.8 0.8 0.8 
0.8 0.8 0.8 0.8 0.8 0.8 
0.8 0.8 0.8 0.8 0.8 0.8 
0.8 0.8 0.8 0.8 0.8 0.8 
0.8 0.8 0.8 0.8 0.8 0.8 
0.8 0.8 0.8 0.8 0.8 0.8 
0.8 0.8 0.8 0.8 0.8 0.8 
0.8 0.8 0.8 0.8 0.8 0.8 
0.8 0.8 0.8 0.8 0.8 0.8 
0.8 0.8 0.8 0.8 0.8 0.8 
0.8 0.8 0.8 0.8 0.8 0.8 
0.8 0.8 0.8 0.8 0.8 0.8 
0.8 0.8 0.8 0.8 0.8 0.8 
0.8 0.8 0.8 0.8 0.8 0.8 
0.8 0.8 0.8 0.8 0.8 0.8 
0.8 0.8 0.8 0.8 0.8 0.8 
0.8 0.8 0.8 0.8 0.8 0.8 
0.8 0.8 0.8 0.8 0.8 0.8 
0.8 0.8 0.8 0.8 0.8 0.8 
0.8 0.8 0.8 0.8 0.8 0.8 
0.8 0.8 0.8 0.8 0.8 0.8 
0.8 0.8 0.8 0.8 0.8 0.8 
0.8 0.8 0.8 0.8 0.8 0.8 
0.8 0.8 0.8 0.8 0.8 0.8 
0.8 0.8 0.8 0.8 0.8 0.8 
0.8 0.8 0.8 0.8 0.8 0.8 
0.8 0.8 0.8 0.8 0.8 0.8 
0.8 0.8 0.8 0.8 0.8 0.8 
0.8 0.8 0.8 0.8 0.8 0.8 
0.8 0.8 0.8 0.8 0.8 0.8 
0.8 0.8 0.8 0.8 0.8 0.8 
0.8 0.8 0.8 0.8 0.8 0.8 
0.8 0.8 0.8 0.8 0.8 0.8 
0.8 0.8 0.8 0.8 0.8 0.8 
0.8 0.8 0.8 0.8 0.8 0.8 
0.8 0.8 0.8 0.8 0.8 0.8 
0.8 0.8 0.8 0.8 0.8 0.8 
0.8 0.8 0.8 0.8 0.8 0.8 
0.8 0.8 0.8 0.8 0.8 0.8 
0.8 0.8 0.8 0.8 0.8 0.8 
0.8 0.8 0.8 0.8 0.8 0.8 
0.8 0.8 0.8 0.8 0.8 0.8 
0.8 0.8 0.8 0.8 0.8 0.8 
0.8 0.8 0.8 0.8 0.8 0.8 
0.8 0.8 0.8 0.8 0.8 0.8 
0.8 0.8 0.8 0.8 0.8 0.8 
0.8 0.8 0.8 0.8 0.8 0.8 
0.8 0.8 0.8 0.8 0.8 0.8 
0.8 0.8 0.8 0.8 0.8 0.8 
0.8 0.8 0.8 0.8 0.8 0.8 
0.8 0.8 0.8 0.8 0.8 0.8 
0.8 0.8 0.8 0.8 0.8 0.8 
0.8 0.8 0.8 0.8 0.8 0.8 
0.8 0.8 0.8 0.8 0.8 0.8 
0.8 0.8 0.8 0.8 0.8 0.8 
0.8 0.8 0.8 0.8 0.8 0.8 
0.8 0.8 0.8 0.8 0.8 0.8 
0.8 0.8 0.8 0.8 0.8 0.8 
0.8 0.8 0.8 0.8 0.8 0.8 
0.8 0.8 0.8 0.8 0.8 0.8 
0.8 0.8 0.8 0.8 0.8 0.8 
0.8 0.8 0.8 0.8 0.8 0.8 
0.8 0.8 0.8 0.8 0.8 0.8 
0.8 0.8 0.8 0.8 0.8 0.8 
0.8 0.8 0.8 0.8 0.8 0.8 
0.8 0.8 0.8 0.8 0.8 0.8 
0.8 0.8 0.8 0.8 0.8 0.8 
0.8 0.8 0.8 0.8 0.8 0.8 
0.8 0.8 0.8 0.8 0.8 0.8 
0.8 0.8 0.8 0.8 0.8 0.8 
0.8 0.8 0.8 0.8 0.8 0.8 
0.8 0.8 0.8 0.8 0.8 0.8 
0.8 0.8 0.8 0.8 0.8 0.8 
0.8 0.8 0.8 0.8 0.8 0.8 
0.8 0.8 0.8 0.8 0.8 0.8 
0.8 0.8 0.8 0.8 0.8 0.8 
0.8 0.8 0.8 0.8 0.8 0.8 
0.8 0.8 0.8 0.8 0.8 0.8 
0.8 0.8 0.8 0.8 0.8 0.8 
0.8 0.8 0.8 0.8 0.8 0.8 
0.8 0.8 0.8 0.8 0.8 0.8 
0.8 0.8 0.8 0.8 0.8 0.8 
0.8 0.8 0.8 0.8 0.8 0.8 
0.8 0.8 0.8 0.8 0.8 0.8 
0.8 0.8 0.8 0.8 0.8 0.8 
0.8 0.8 0.8 0.8 0.8 0.8 
0.8 0.8 0.8 0.8 0.8 0.8 
0.8 0.8 0.8 0.8 0.8 0.8 
0.8 0.8 0.8 0.8 0.8 0.8 
0.8 0.8 0.8 0.8 0.8 0.8 
0.8 0.8 0.8 0.8 0.8 0.8 
0.8 0.8 0.8 0.8 0.8 0.8 
0.8 0.8 0.8 0.8 0.8 0.8 
0.8 0.8 0.8 0.8 0.8 0.8 
0.8 0.8 0.8 0.8 0.8 0.8 
0.8 0.8 0.8 0.8 0.8 0.8 
0.8 0.8 0.8 0.8 0.8 0.8 
0.8 0.8 0.8 0.8 0.8 0.8 
0.8 0.8 0.8 0.8 0.8 0.8 
0.8 0.8 0.8 0.8 0.8 0.8 
0.8 0.8 0.8 0.8 0.8 0.8 
0.8 0.8 0.8 0.8 0.8 0.8 
0.8 0.8 0.8 0.8 0.8 0.8 
0.8 0.8 0.8 0.8 0.8 0.8 
0.8 0.8 0.8 0.8 0.8 0.8 
0.8 0.8 0.8 0.8 0.8 0.8 
0.8 0.8 0.8 0.8 0.8 0.8 
0.8 0.8 0.8 0.8 0.8 0.8 
0.8 0.8 0.8 0.8 0.8 0.8 
0.8 0.8 0.8 0.8 0.8 0.8 
0.8 0.8 0.8 0.8 0.8 0.8 
0.8 0.8 0.8 0.8 0.8 0.8 
0.8 0.8 0.8 0.8 0.8 0.8 
0.8 0.8 0.8 0.8 0.8 0.8 
0.8 0.8 0.8 0.8 0.8 0.8 
0.8 0.8 0.8 0.8 0.8 0.8 
0.8 0.8 0.8 0.8 0.8 0.8 
0.8 0.8 0.8 0.8 0.8 0.8 
0.8 0.8 0.8 0.8 0.8 0.8 
0.8 0.8 0.8 0.8 0.8 0.8 
0.8 0.8 0.8 0.8 0.8 0.8 
0.8 0.8 0.8 0.8 0.8 0.8 
0.8 0.8 0.8 0.8 0.8 0.8 
0.8 0.8 0.8 0.8 0.8 0.8 
0.8 0.8 0.8 0.8 0.8 0.8 
0.8 0.8 0.8 0.8 0.8 0.8 
0.8 0.8 0.8 0.8 0.8 0.8 
0.8 0.8 0.8 0.8 0.8 0.8 
0.8 0.8 0.8 0.8 0.8 0.8 
0.8 0.8 0.8 0.8 0.8 0.8 
0.8 0.8 0.8 0.8 0.8 0.8 
0.8 0.8 0.8 0.8 0.8 0.8 
0.8 0.8 0.8 0.8 0.8 0.8 
0.8 0.8 0.8 0.8 0.8 0.8 
0.8 0.8 0.8 0.8 0.8 0.8 
0.8 0.8 0.8 0.8 0.8 0.8 
0.8 0.8 0.8 0.8 0.8 0.8 
0.8 0.8 0.8 0.8 0.8 0.8 
0.8 0.8 0.8 0.8 0.8 0.8 
0.8 0.8 0.8 0.8 0.8 0.8 
0.8 0.8 0.8 0.8 0.8 0.8 
0.8 0.8 0.8 0.8 0.8 0.8 
0.8 0.8 0.8 0.8 0.8 0.8 
0.8 0.8 0.8 0.8 0.8 0.8 
0.8 0.8 0.8 0.8 0.8 0.8 
0.8 0.8 0.8 0.8 0.8 0.8 
0.8 0.8 0.8 0.8 0.8 0.8 
0.8 0.8 0.8 0.8 0.8 0.8 
0.8 0.8 0.8 0.8 0.8 0.8 
0.8 0.8 0.8 0.8 0.8 0.8 
0.8 0.8 0.8 0.8 0.8 0.8 
0.8 0.8 0.8 0.8 0.8 0.8 
0.8 0.8 0.8 0.8 0.8 0.8 
0.8 0.8 0.8 0.8 0.8 0.8 
0.8 0.8 0.8 0.8 0.8 0.8 
0.8 0.8 0.8 0.8 0.8 0.8 
0.8 0.8 0.8 0.8 0.8 0.8 
0.8 0.8 0.8 0.8 0.8 0.8 
0.8 0.8 0.8 0.8 0.8 0.8 
0.8 0.8 0.8 0.8 0.8 0.8 
0.8 0.8 0.8 0.8 0.8 0.8 
0.8 0.8 0.8 0.8 0.8 0.8 
0.8 0.8 0.8 0.8 0.8 0.8 
0.8 0.8 0.8 0.8 0.8 0.8 
0.8 0.8 0.8 0.8 0.8 0.8 
0.8 0.8 0.8 0.8 0.8 0.8 
0.8 0.8 0.8 0.8 0.8 0.8 
0.8 0.8 0.8 0.8 0.8 0.8 
0.8 0.8 0.8 0.8 0.8 0.8 
0.8 0.8 0.8 0.8 0.8 0.8 
0.8 0.8 0.8 0.8 0.8 0.8 
0.8 0.8 0.8 0.8 0.8 0.8 
0.8 0.8 0.8 0.8 0.8 0.8 
0.8 0.8 0.8 0.8 0.8 0.8 
0.8 0.8 0.8 0.8 0.8 0.8 
0.8 0.8 0.8 0.8 0.8 0.8 
0.8 0.8 0.8 0.8 0.8 0.8 
0.8 0.8 0.8 0.8 0.8 0.8 
0.8 0.8 0.8 0.8 0.8 0.8 
0.8 0.8 0.8 0.8 0.8 0.8 
0.8 0.8 0.8 0.8 0.8 0.8 
0.8 0.8 0.8 0.8 0.8 0.8 
0.8 0.8 0.8 0.8 0.8 0.8 
0.8 0.8 0.8 0.8 0.8 0.8 
0.8 0.8 0.8 0.8 0.8 0.8 
0.8 0.8 0.8 0.8 0.8 0.8 
0.8 0.8 0.8 0.8 0.8 0.8 
0.8 0.8 0.8 0.8 0.8 0.8 
0.8 0.8 0.8 0.8 0.8 0.8 
0.8 0.8 0.8 0.8 0.8 0.8 
0.8 0.8 0.8 0.8 0.8 0.8 
0.8 0.8 0.8 0.8 0.8 0.8 
0.8 0.8 0.8 0.8 0.8 0.8 
0.8 0.8 0.8 0.8 0.8 0.8 
0.8 0.8 0.8 0.8 0.8 0.8 
0.8 0.8 0.8 0.8 0.8 0.8 
0.8 0.8 0.8 0.8 0.8 0.8 
0.8 0.8 0.8 0.8 0.8 0.8 
0.8 0.8 0.8 0.8 0.8 0.8 
0.8 0.8 0.8 0.8 0.8 0.8 
0.8 0.8 0.8 0.8 0.8 0.8 
0.8 0.8 0.8 0.8 0.8 0.8 
0.8 0.8 0.8 
NORMALS Normals float
0.142001 -0.217112 -0.965763 -0.366944 -0.760623 -0.535542 0.0393458 0.112931 -0.992823 
0.341638 -0.597976 -0.725057 -0.0329145 -0.369126 -0.928796 -0.342943 -0.759004 -0.553447 
0.0326176 -0.430646 -0.901932 0.637496 0.439324 -0.632925 0.134764 0.527194 -0.83899 
-0.134791 -0.455932 -0.879749 -0.585037 -0.0358172 -0.810215 0.454456 0.505702 -0.733304 
0.553583 0.14469 -0.820129 -0.312066 0.0407458 -0.949186 -0.578092 -0.541287 -0.610588 
-0.321148 0.400441 -0.858202 -0.140364 -0.196671 -0.97037 0.307921 0.805039 -0.507048 
0.311333 0.277191 -0.908976 0.0608478 0.38466 -0.92105 -0.639863 -0.63529 -0.432415 
-0.662704 0.290542 -0.690224 0.170245 0.702356 -0.691168 0.420239 0.663833 -0.618648 
0.472359 -0.219803 -0.853559 -0.510591 -0.859582 -0.0204034 -0.815998 -0.0372454 -0.576854 
0.337553 -0.932638 -0.127451 0.0400414 -0.190676 -0.980836 -0.732209 -0.434339 -0.524614 
0.0784572 0.722885 -0.6865 0.00269782 -0.918043 -0.396473 -0.13359 -0.347329 -0.928179 
0.794884 0.177392 -0.580252 -0.285587 -0.603705 -0.744298 -0.345694 -0.762563 -0.546802 
0.327421 0.266445 -0.906533 -0.179699 -0.0802645 -0.980442 0.50083 0.436311 -0.74753 
-0.575525 -0.023972 -0.817432 0.485303 0.725538 -0.487929 -0.72609 0.121929 -0.676703 
-0.643846 -0.574221 -0.5057 -0.606153 0.393936 -0.690936 -0.0184426 -0.537584 -0.843009 
0.148409 0.780233 -0.607628 -0.571439 -0.642975 -0.509943 -0.587472 -0.614804 -0.526205 
-0.484502 0.536169 -0.691217 0.345378 0.748475 -0.566126 0.480695 0.689909 -0.541256 
-0.274899 0.730335 -0.625333 0.668481 -0.364567 -0.648247 -0.131192 -0.985118 -0.111051 
-0.766265 -0.510447 -0.390234 0.80397 -0.200511 -0.559846 0.494209 0.710276 -0.501264 
0.13809 -0.2201 -0.965654 -0.226499 -0.61989 -0.751289 -0.387718 -0.729742 -0.563162 
0.1584 0.680467 -0.715454 0.41484 0.254469 -0.873586 -0.465422 -0.835891 -0.29098 
-0.406004 0.150173 -0.901448 0.518603 -0.498212 -0.694864 -0.259069 -0.879102 -0.400078 
0.654737 0.0812657 -0.751475 0.562728 0.635736 -0.528372 0.607091 0.654297 -0.450929 
-0.497969 -0.81849 -0.286533 -0.290047 -0.0964519 -0.95214 -0.55739 0.183586 -0.809699 
-0.708603 0.0619703 -0.70288 -0.590119 -0.613498 -0.524766 -0.618858 0.0916479 -0.780138 
-0.104784 -0.485201 -0.868102 0.0590653 0.867084 -0.494648 -0.197735 0.663251 -0.721803 
-0.722573 -0.301686 -0.621992 -0.538217 0.52623 -0.658335 -0.017454 0.827784 -0.560776 
0.154945 0.0325646 -0.987386 -0.224128 -0.891373 -0.39398 -0.689137 0.382981 -0.615155 
0.911197 -0.357455 -0.204808 0.324853 0.903467 -0.279674 0.500069 -0.254136 -0.827856 
-0.444525 -0.885333 -0.136321 -0.533095 -0.055137 -0.844257 0.293271 -0.938318 -0.183171 
-0.461914 -0.881774 -0.0954419 -0.799525 -0.156551 -0.579871 0.825689 0.143486 -0.545572 
0.179628 -0.943474 -0.27855 -0.474143 -0.83829 -0.269181 0.176422 -0.860156 -0.478547 
0.141438 0.786616 -0.601025 0.702675 0.225056 -0.67498 -0.175053 -0.0320331 -0.984038 
-0.166045 -0.512096 -0.842726 -0.449431 -0.804573 -0.388167 0.382912 0.129169 -0.91471 
0.482101 0.637224 -0.601268 0.620427 0.553859 -0.555257 -0.564978 -0.725324 -0.393326 
0.497396 0.827003 -0.262039 -0.597056 -0.581837 -0.55226 0.409995 0.736563 -0.53794 
-0.678992 -0.452619 -0.578019 -0.521257 -0.723176 -0.453108 -0.129347 0.190782 -0.973073 
-0.743709 0.219496 -0.631441 -0.776405 0.0559687 -0.627744 -0.655232 -0.387814 -0.648284 
-0.339957 0.348574 -0.873456 0.150616 0.900327 -0.408321 0.334514 -0.858712 0.388219 
-0.78989 -0.577702 0.205755 0.622309 0.509172 0.594538 -0.740507 -0.55656 -0.376684 
-0.663794 -0.695043 -0.276212 -0.102495 0.619271 -0.778459 -0.420624 0.830025 0.366243 
-0.528519 -0.848921 0.000558097 -0.110913 -0.972503 -0.204782 -0.552466 -0.566717 -0.611239 
0.78704 -0.0087062 -0.616841 0.664363 0.725789 -0.178472 -0.604006 -0.669961 -0.431659 
-0.206366 -0.90977 -0.360181 0.741097 0.165253 -0.650743 0.310733 0.615467 -0.724324 
-0.433278 -0.876836 -0.208396 -0.112325 -0.903659 -0.41326 0.490285 -0.431028 -0.757519 
-0.376899 0.257827 -0.889647 0.610361 0.703827 -0.363439 0.383401 0.85872 -0.340005 
0.240903 0.88651 -0.395051 -0.210082 0.835011 -0.508549 -0.122395 -0.0782469 0.989392 
-0.460383 -0.877372 0.135154 -0.517425 -0.143834 -0.843554 -0.40344 -0.903884 0.142232 
0.425476 -0.72201 0.545593 -0.38326 -0.878855 -0.284121 0.204395 -0.716493 -0.666978 
0.462136 0.792908 -0.397149 0.694743 0.411322 -0.590039 0.882972 0.467819 0.03881 
-0.435765 -0.832341 -0.342514 -0.395175 -0.854315 -0.337611 0.087392 -0.321634 -0.942822 
-0.349193 -0.876974 -0.330124 -0.0843797 -0.456552 -0.885686 0.606235 0.629915 -0.485476 
0.512661 0.577421 -0.635424 -0.685392 -0.628626 -0.367515 -0.397116 0.595688 -0.69818 
-0.77009 -0.34108 -0.539097 -0.712689 0.24932 -0.655678 -0.0204969 0.899442 -0.436559 
-0.496697 -0.847221 -0.188439 -0.321558 -0.91393 -0.247655 0.325714 0.285975 -0.901182 
0.878342 0.441729 -0.18273 -0.460082 -0.87383 -0.157306 -0.839651 -0.248527 -0.482929 
-0.49263 0.537988 -0.684021 0.108238 0.92568 -0.362492 -0.0318116 -0.969607 0.242591 
0.925015 -0.218933 0.310507 0.803673 -0.578006 0.141489 0.971974 -0.230359 -0.0469145 
0.818446 0.512603 -0.259585 -0.656836 -0.725262 -0.206308 -0.697111 -0.632121 -0.338319 
-0.786177 -0.5705 -0.237603 -0.841282 -0.00740378 -0.540546 0.198143 0.897979 -0.392904 
0.880763 -0.465078 0.0892152 0.563885 0.756325 -0.331672 0.553426 0.811672 -0.186838 
-0.644402 0.331121 -0.689279 -0.796487 0.387473 -0.46419 -0.0925859 0.805004 -0.586 
0.657222 -0.742665 0.128483 -0.415815 -0.909435 0.00505147 -0.81787 -0.330131 -0.471277 
-0.811841 -0.299467 -0.501231 -0.895761 0.0528453 -0.441383 -0.527066 0.354799 -0.772217 
-0.154656 0.842083 -0.516699 0.0313542 0.906799 -0.420396 -0.617082 0.531386 -0.580379 
-0.136678 0.772756 -0.619813 0.219232 -0.963278 0.155026 0.996607 -0.0818016 -0.00906599 
-0.758689 -0.600811 -0.251826 -0.811403 -0.512725 -0.280604 -0.879203 -0.103057 -0.465168 
0.192515 0.908393 -0.371161 -0.801574 0.0922852 -0.59073 0.996148 0.0870599 0.0104826 
0.754125 0.593203 -0.28179 0.535104 0.806054 -0.252865 -0.796424 -0.5106 -0.324032 
-0.813288 -0.3213 -0.485107 -0.0978447 0.851343 -0.515404 0.859505 0.425843 -0.28268 
0.951586 0.302527 0.0544296 -0.540823 -0.838883 -0.0615353 0.55281 0.825613 -0.112982 
-0.833333 -0.444394 -0.328739 -0.884423 -0.144565 -0.44373 0.185213 0.909489 -0.372192 
-0.487862 0.565638 -0.664864 0.12432 -0.981515 0.14551 0.903775 -0.425147 0.0493984 
0.88351 -0.464923 0.057064 0.910914 0.412585 0.00309427 -0.80281 -0.538537 -0.255881 
-0.867082 -0.37432 -0.328715 -0.769423 0.184954 -0.611376 -0.87046 -0.328616 -0.366484 
-0.84889 0.0854401 -0.521619 0.29626 0.933102 -0.203839 -0.81153 -0.0456157 -0.582527 
0.304183 -0.943602 0.130721 0.489779 -0.869575 0.0629004 -0.790702 -0.588952 -0.167112 
-0.66145 -0.0324675 -0.749286 -0.810478 -0.506398 -0.294425 -0.792079 -0.477048 -0.380837 
-0.784925 -0.128461 -0.606127 -0.302542 0.582317 -0.75457 -0.348765 0.452892 -0.820519 
-0.568089 0.374626 -0.732755 -0.109784 0.700683 -0.704976 0.165907 0.858416 -0.485383 
0.217645 0.927937 -0.302596 0.785441 -0.602497 0.141708 0.9975 -0.0516532 0.0482279 
-0.597 -0.802184 -0.00953204 -0.881762 -0.437012 -0.177527 -0.904516 -0.299465 -0.303598 
-0.704048 0.227209 -0.672824 -0.998709 -0.00267833 -0.0507356 -0.618044 0.725357 -0.303115 
0 -0.970142 -0.242536 0 -1 0 -0.6 -0.8 0 
-0.0117276 0.924037 -0.382124 0.6 -0.8 0 0.300756 0.953659 -0.00892473 
0 1 0 0.749899 -0.656502 0.0815885 0.71248 0.701645 0.00816327 
-0.876253 -0.476652 -0.0705922 -0.551104 0.817291 0.168285 -0.962936 0.236599 0.129519 
0 -0.970142 0.242536 0.076983 0.995887 0.0477787 0.632339 -0.762265 -0.138204 
0.727286 0.686323 0.00381326 -0.946281 -0.321426 -0.0351753 -0.787164 0.616113 -0.0278846 
-0.243028 0.967989 0.0627294 0.174618 -0.973199 -0.149638 -0.00746871 -0.998749 -0.0494496 
0.801042 -0.582698 -0.137095 -0.880795 -0.472773 -0.0262067 -0.856179 -0.511866 0.0703531 
-0.906946 -0.276445 0.317846 -0.957845 0.280033 -0.0641504 -0.907146 0.352278 -0.230189 
0.0326245 -0.809893 -0.58567 0.119548 -0.915801 -0.383428 -0.276265 -0.736707 -0.617204 
-0.390272 0.904995 -0.169327 0.576945 -0.806564 -0.128798 -0.218829 0.975756 -0.00370466 
-0.0422413 0.917782 0.394832 -0.149056 -0.986425 -0.068904 0.283344 -0.955327 -0.0840624 
0.448051 -0.89194 -0.0607751 -0.640188 -0.743497 0.193318 -0.814956 -0.508657 0.277694 
-0.755974 -0.458774 0.466937 0.285674 0.942755 0.172056 -0.671361 -0.0159517 0.740959 
-0.383651 0.728291 0.567806 0.158842 0.953825 0.254926 0.0399882 -0.9395 -0.340206 
-0.126984 -0.877294 -0.462851 0.508625 -0.860982 0.00319293 -0.189609 0.974584 0.119304 
0.0879632 0.981289 0.17127 -0.0108817 0.911938 0.410184 0.995775 0.0870862 -0.0291264 
-0.707807 -0.603718 0.366787 -0.462531 0.342741 0.817676 -0.222534 0.709759 0.668372 
0.0635807 0.903806 0.423193 -0.170909 0.721077 0.671445 0 -0.894427 -0.447214 
0.241937 -0.968795 -0.0538772 0.758662 -0.64922 -0.0542688 0.954429 0.298027 0.0156457 
0.383329 0.914442 0.129823 -0.796251 -0.278974 0.536803 -0.695072 0.0701983 0.715505 
0.0852743 0.865553 0.493504 0.830774 -0.555989 -0.0262763 0.992992 -0.113233 -0.0338439 
-0.8114 -0.534317 0.236928 -0.7856 0.118124 0.607354 -0.459254 0.437682 0.772994 
0.752624 -0.639198 -0.158061 0.919792 0.370585 0.129032 0.619842 0.774132 0.128513 
-0.891211 -0.202619 0.405818 -0.789835 0.114314 0.602572 -0.87719 -0.123751 0.463921 
0.0364876 0.875121 0.482526 -0.290591 0.572453 0.766717 -0.172879 -0.974517 -0.142934 
0.263477 -0.951913 -0.156339 -0.699226 -0.683419 0.20981 -0.826145 -0.309263 0.471 
-0.457504 0.628909 0.62862 -0.366293 0.669703 0.646009 -0.242692 0.756167 0.607711 
0.985928 -0.107254 -0.128231 0.993049 -0.115154 -0.024374 -0.721893 -0.599298 0.345995 
-0.858652 -0.434006 0.272684 -0.775765 -0.228534 0.588184 -0.666276 0.192748 0.720364 
0.141743 0.891852 0.429544 0.819989 -0.537952 -0.195514 0.920346 -0.356706 -0.160385 
0.972524 0.2279 0.0475372 0.85197 0.492434 0.177918 0.508267 0.847479 0.153112 
-0.786124 -0.18532 0.589631 -0.845453 -0.0732796 0.528998 -0.145322 0.789512 0.596282 
-0.602222 0.417804 0.680271 -0.574276 0.423122 0.700839 -0.337668 0.678787 0.652096 
0.0802775 -0.919116 -0.385722 0.991997 -0.0708309 -0.104524 0.987253 -0.159155 -0.000603482 
0.801213 0.540952 0.25579 -0.487985 -0.872553 0.0228386 0.625842 0.655954 0.421956 
-0.618849 0.4677 0.631096 -0.202275 -0.934045 -0.294354 -0.459379 -0.884101 -0.0856558 
0.676576 -0.590936 -0.439364 0.953235 0.253783 -0.164124 -0.482981 -0.863389 -0.145907 
0.580809 0.728206 0.363835 -0.590106 -0.758172 0.277397 -0.776659 -0.532432 0.336626 
-0.809265 -0.422373 0.408279 -0.73001 0.0803442 0.678697 -0.873705 -0.199952 0.443462 
-0.0131418 0.850983 0.525028 -0.400334 0.651537 0.644385 -0.760578 -0.624008 0.179263 
0.559008 -0.656181 -0.506889 0.699738 0.704698 0.117334 -0.476263 -0.877855 0.0504417 
0.127244 -0.702795 0.69992 -0.326876 -0.437037 0.837944 -0.442759 0.505107 0.740832 
0.577198 0.556587 0.59754 -0.252299 -0.956181 0.148539 -0.505238 -0.859091 0.0818381 
-0.537286 -0.835912 0.112142 -0.59164 -0.690645 0.415898 -0.716009 0.0935538 0.691794 
-0.727626 -0.159914 0.667074 -0.310059 0.681854 0.662525 0.8923 -0.11237 -0.437234 
-0.0495324 -0.904517 -0.423551 -0.213113 -0.9132 -0.347344 0.714751 0.360678 0.599202 
-0.866305 -0.0963191 0.490142 -0.0224488 0.839312 0.543186 -0.494386 -0.842903 0.212358 
0.443723 -0.724142 0.527947 0.463868 0.136812 0.875277 0.642835 -0.138852 0.753315 
-0.430041 -0.871515 0.235643 0.571024 0.565229 0.595355 0.543837 0.498421 0.675143 
0.451628 0.853345 0.26045 0.338417 0.836446 0.431083 -0.813668 -0.10431 0.571895 
-0.552982 0.282171 0.783959 -0.494849 0.549129 0.673485 0.171995 0.883547 0.435617 
0.640803 0.758415 0.119069 -0.641341 -0.758732 0.114051 -0.0977284 0.721764 0.685205 
-0.386522 -0.878833 -0.279738 -0.181092 0.669595 0.720311 -0.358922 -0.929558 0.0842403 
0.639466 0.547484 0.539763 -0.652038 -0.605469 0.456349 0.027424 -0.975326 0.21906 
0.825397 -0.111417 0.553449 -0.066905 -0.831819 0.551 0.0247679 -0.227785 0.973396 
0.0016364 0.516634 0.856205 0.617243 0.253422 0.744841 0.541286 0.780516 0.312737 
-0.557524 -0.763362 0.326261 -0.61506 -0.577185 0.537177 -0.498433 -0.70404 0.505858 
-0.725924 -0.500864 0.471349 -0.850768 -0.00598807 0.525507 -0.229627 -0.911354 -0.341621 
-0.467595 -0.854241 -0.227217 -0.52161 -0.81648 0.247557 0.254189 -0.90438 0.342761 
0.720538 -0.547436 0.425604 0.724213 0.257908 0.63953 -0.274852 -0.892738 0.357038 
-0.485259 -0.844563 0.226357 0.578245 0.570329 0.583402 0.619026 0.199516 0.759605 
-0.452145 -0.803643 0.38694 0.586304 0.513818 0.62629 0.533767 0.505781 0.677701 
-0.659074 -0.638998 0.396615 -0.65454 -0.442374 0.613092 -0.147187 -0.555462 0.818412 
-0.214358 0.15353 0.964613 0.00997535 0.799513 0.600565 0.297896 0.52699 0.795952 
-0.529066 0.582822 0.616772 -0.533689 0.293498 0.793118 -0.582291 -0.126813 0.803029 
-0.464185 -0.611923 0.640377 0.544483 -0.309508 0.779579 0.550253 0.511081 0.660316 