# vtk DataFile Version 4.2
vtk output
ASCII
DATASET POLYDATA
POINTS 6880 float
337.207 149.725 87.036 337.692 152.501 86.7701 342.078 154.069 86.2436 
338.21 159.251 86.7797 337.833 162.509 87.2032 338.52 163.115 87.0325 
341.692 163.534 86.5998 338.178 145.546 87.4558 346.934 147.16 87.7696 
334.349 148.653 88.3766 334.228 152.362 88.4915 335.429 151.986 87.6234 
335.377 156.058 87.8222 334.868 157.351 88.3742 336.117 156.861 87.4438 
348.994 159.183 87.0805 335.591 160.094 88.1078 336.616 163.248 87.9677 
339.093 165.761 87.3644 345.135 166.903 87.275 341.698 168.441 87.6091 
336.693 140.719 88.8651 334.145 141.828 89.2042 333.74 144.974 89.0207 
333.748 151.61 88.9941 354.49 153.491 88.8034 333.869 155.623 89.3427 
334.308 156.494 88.8497 334.229 160.025 89.7831 334.695 160.863 89.2419 
335.421 164.352 89.4458 354.946 165.298 88.812 337.495 169.921 89.181 
338.214 169.806 88.7958 339.018 171.615 88.9879 346.059 173.023 88.8743 
332.412 139.68 90.4574 332.267 140.39 90.4783 332.605 144.58 90.0245 
332.268 145.771 90.5767 332.911 150.063 90.2805 333.12 151.84 90.3006 
333.429 156.543 90.7923 333.662 158.39 90.6935 333.888 159.113 90.1971 
334.096 160.474 90.3769 334.571 161.783 89.7849 334.736 163.16 90.1773 
335.68 168.817 91.0154 336.336 168.772 89.7712 337.259 173.133 90.5722 
332.015 146.478 91.5761 356.968 148.009 90.6984 332.645 149.794 91.042 
333.278 154.991 91.3441 358.875 155.061 90.1284 333.53 157.695 91.2597 
359.809 165.003 90.3497 335.266 166.853 91.4122 335.486 168.641 91.6836 
358.081 169.359 90.1826 336.527 172.072 90.9832 336.577 173.773 92.0792 
338.121 176.721 91.6084 338.839 177.563 91.5772 330.353 134.63 92.493 
331.495 135.121 91.7629 330.302 138.793 92.6091 332.331 148.451 92.3373 
333.014 151.923 92.0586 333.265 154.142 92.1518 362.332 154.466 91.9251 
333.589 157.842 91.851 333.843 159.812 91.3291 334.532 163.264 91.5852 
334.964 164.956 91.9272 335.372 168.014 92.1932 335.605 169.86 92.2942 
336.2 172.583 92.298 336.552 174.385 92.7168 356.695 176.76 91.7058 
338.47 178.071 92.2328 338.958 178.421 92.0504 330.186 131.177 93.2426 
340.754 130.716 92.9579 329.417 131.794 93.4448 329.15 132.428 93.5343 
331.238 132.246 92.5958 329.665 135.609 93.0461 329.71 137.823 93.3908 
331.555 144.887 93.184 332.624 148.663 93.4048 333.02 150.946 92.9011 
333.297 153.217 92.7916 364.246 156.29 93.2399 333.675 157.87 92.2408 
334.55 163 91.9984 334.761 162.969 92.6437 363.066 167.382 92.3171 
335.593 169.713 92.8404 336.196 172.797 93.1034 336.462 174.39 93.3885 
338.049 177.883 92.6669 337.754 178.699 93.9416 338.285 179.594 93.5342 
340.629 181.947 93.3546 327.695 130.571 94.6658 328.404 133.582 94.2033 
328.587 135.163 94.3825 330.424 140.858 94.0245 331.283 143.386 94.2954 
334.138 156.379 93.5816 346.394 156.983 94.6314 365.26 159.32 94.2984 
335.531 167.193 93.4719 365.275 166.426 94.4814 364.713 168.034 93.9039 
335.62 169.331 93.1691 335.84 169.227 93.7234 364.071 172.815 94.0656 
336.397 173.884 93.7784 339.478 181.984 94.0468 344.28 184.383 93.918 
332.28 127.25 94.4456 327.145 131.484 95.2051 326.676 131.599 95.9045 
327.377 132.73 95.2046 333.871 149.275 95.0084 333.499 150.492 94.1935 
341.447 151.38 95.1987 345.101 151.301 95.069 349.653 151.166 95.5871 
334.08 152.708 94.354 338.956 155.777 95.5274 335.092 157.664 94.4421 
352.805 156.695 95.7693 366.019 159.047 95.6845 344.159 161.804 94.9931 
335.617 163.807 94.0819 336.03 163.703 94.6104 336.434 163.998 94.9302 
365.695 164.76 95.0454 336.089 166.393 94.445 365.691 167.608 95.2701 
347.399 168.125 95.7225 336.284 170.655 94.3548 365.52 169.372 95.2464 
336.51 174.164 94.1879 362.765 180.568 95.4227 338.323 181.381 95.0529 
351.909 186.307 95.1526 329.71 124.992 95.8995 351.513 130.877 95.8713 
326.89 132.878 96.4342 327.475 134.021 96.1511 328.134 135.365 96.4213 
343.361 144.777 96.339 332.531 144.508 95.7917 363.47 144.393 95.4364 
333.474 147.299 95.3391 334.251 148.581 95.514 334.698 149.174 95.6205 
365.436 149.497 96.0137 337.005 151.232 95.8768 335.113 153.284 95.1232 
335.624 154.293 95.2967 365.768 153.594 95.6312 335.272 155.472 94.9491 
336.519 158.085 95.2968 336.868 161.111 95.2532 337.073 165.419 95.3179 
353.429 164.904 96.0913 337.194 168.059 95.507 344.289 170.19 96.6123 
337.014 174.346 95.5731 338.074 181.381 95.5869 359.551 183.593 95.2873 
340.862 185.661 95.67 335.988 123.219 96.7853 324.746 127.394 97.6081 
326.108 131.501 97.3151 326.783 132.907 97.2478 327.143 133.543 97.5793 
327.475 134.151 96.9456 327.851 134.819 97.0887 359.754 134.597 97.6146 
335.298 144.875 96.8137 336.502 145.406 96.6759 364.636 144.634 96.5658 
334.233 146.318 96.1504 365.696 146.331 97.5648 334.66 147.894 95.9485 
335.789 148.386 96.1096 354.103 149.551 97.5884 336.205 152.361 95.6756 
354.502 153.057 96.9442 337.009 156.184 95.544 337.682 155.871 95.6299 
355.739 159.223 96.8617 366.591 159.601 97.2154 340.192 166.102 96.0883 
339.114 167.78 96.2986 339.977 169 96.7624 354.501 168.996 97.0933 
338.033 170.764 96.4487 338.788 170.561 96.8472 352.716 170.799 96.9931 
337.681 179.655 97.1448 338.365 183.576 97.4212 338.831 185.518 97.7583 
339.956 187.645 97.6972 323.554 124.535 98.9983 323.406 125.876 99.1413 
324.401 128.423 98.6059 327.233 133.467 98.5235 328.341 135.432 97.7618 
328.724 135.705 98.1418 329.661 137.104 97.9159 340.332 139.575 98.1346 
331.449 140.861 97.0274 365.507 144.061 98.0411 335.018 147.688 96.1403 
357.361 165.073 98.0423 357.044 169.927 98.526 339.96 171.802 97.6828 
341.01 171.123 97.4644 341.666 170.852 97.3263 338.512 173.956 97.6539 
366.467 175.274 98.605 339.405 187.366 98.1395 329.178 135.554 99.0481 
331.635 140.238 97.5848 358.089 151.947 99.5088 358.533 161.123 98.9462 
340.663 173.669 98.5184 341.255 174.212 98.7648 342.896 175.741 99.2942 
338.094 177.544 98.1092 353.152 177.92 99.5561 365.975 181.258 99.5832 
338.252 182.676 99.2426 338.539 185.904 99.1163 362.036 188.623 99.0717 
330.265 119.207 99.4101 322.741 120.653 100.654 324.113 128.461 100.38 
325.302 130.368 100.321 344.514 136.22 100.129 365.27 138.552 100.364 
357.529 147.851 100.177 359.267 154.261 100.336 367.187 165.166 99.6862 
359.293 167.027 100.165 339.665 174.022 98.4046 358.522 174.147 100.649 
341.932 176.645 99.9492 356.979 177.765 100.698 338.708 187.469 100.116 
339.068 188.586 100.081 359.179 190.946 99.3201 340.704 191.514 100.201 
355.155 191.943 99.0601 322.865 118.778 101.449 321.782 122.99 101.551 
353.485 124.855 101.04 322.513 125.258 100.849 324.195 128.499 101.34 
325.5 130.432 100.943 359.57 149.41 101.87 360.128 164.795 101.259 
360.099 166.811 101.349 340.169 176.761 99.7768 341.075 177.219 100.252 
339.265 178.744 100.049 342.047 178.505 100.869 358.433 178.639 102.049 
338.696 187.473 101.174 363.797 190.019 101.249 347.009 195.297 101.096 
323.124 117.507 102.095 322.172 118.654 102.075 321.423 119.928 102.533 
346.254 120.78 101.279 321.283 122.352 102.876 322.314 125.185 102.655 
363.652 133.654 101.289 360.525 170.34 102.624 359.305 176.931 102.369 
340.366 178.479 100.635 339.735 181.522 101.588 347.142 183.375 102.47 
365.911 186.138 101.87 339.091 189.799 102.258 341.81 194.952 102.252 
344.409 195.941 102.015 323.454 116.305 102.72 322.818 116.228 103.052 
321.802 116.586 103.531 321.428 118.159 103.205 321.021 120.066 103.29 
322.461 125.232 103.615 324.542 128.623 102.332 325.519 129.769 102.166 
327.396 130.69 102.733 329.354 132.541 101.668 357.106 141.414 102.83 
358.263 143.821 102.6 360.76 151.667 103.364 360.372 174.043 103.212 
341.785 181.275 102.294 338.853 187.403 102.395 339.194 190.972 103.178 
322.63 115.137 103.843 335.886 114.353 103.933 320.959 121.645 104.42 
321.212 122.389 104.651 323.8 127.128 103.674 324.068 127.362 103.728 
326.271 129.883 102.795 351.678 133.509 104.42 360.316 147.306 103.967 
367.482 153.021 104.091 361.247 166.027 104.076 361.235 168.795 104.315 
340.83 181.999 102.481 358.198 183.671 104.22 343.412 184.36 104.149 
339.303 187.061 103.7 350.275 187.038 104.48 339.113 190.466 103.645 
339.829 194.667 104.558 340.54 195.547 103.87 356.568 197.389 103.418 
325.85 112.428 105.002 320.407 119.141 105.015 321.729 122.986 105.795 
322.928 125.493 104.576 328.081 129.486 103.687 355.768 135.371 105.553 
357.454 137.472 105.449 366.588 137.985 105.041 361.585 158.493 105.523 
340.698 185.345 104.475 340.03 186.534 104.567 339.555 188.157 104.715 
357.485 187.302 105.864 339.302 190.023 104.971 339.357 193.122 104.973 
362.214 196.043 104.488 324.147 111.581 105.94 353.141 119.932 105.255 
320.789 120.808 106.127 322.279 123.536 106.15 325.099 126.669 105.199 
361.069 146.975 106.291 361.592 172.287 106.798 361.035 178.661 106.443 
341.856 184.526 104.413 341.174 185.656 104.914 359.103 185.067 105.907 
340.558 187.302 105.571 358.237 186.798 106.037 339.364 191.934 105.968 
342.996 199.67 105.979 359.885 199.382 106.076 326.661 110.143 106.833 
319.864 111.776 107.619 319.255 114.05 107.558 319.471 116.299 107.162 
320.974 120.698 107.171 321.476 121.429 107.407 322.183 122.615 107.158 
322.533 123.179 106.881 324.663 124.527 106.753 342.941 125.884 106.957 
364.487 129.209 106.293 359.073 138.643 106.646 342.624 187.266 106.317 
359.446 186.48 107.18 340.614 188.459 106.399 343.473 188.008 106.844 
343.274 188.364 107.154 359.232 188.46 108.11 340.186 189.928 106.892 
319.556 110.951 108.28 318.802 114.281 108.272 318.942 115.725 108.448 
321.777 121.147 108.265 363.607 126.188 107.837 361.195 146.185 107.876 
361.316 182.023 108.894 341.561 187.926 106.614 342.392 188.344 107.143 
339.76 193.19 107.914 339.809 198.151 108.128 340.61 199.856 107.891 
328.811 108.092 108.826 319.476 109.107 109.326 320.767 108.699 109.086 
318.086 112.263 109.428 318.186 113.943 109.449 321.977 120.73 108.927 
335.291 121.274 108.973 361.811 160.091 108.932 361.666 179.269 109.674 
341.574 189.027 107.419 342.828 189.69 108.212 341.605 190.221 108.364 
343.7 190.857 109.13 350.988 193.946 109.789 339.605 195.922 108.87 
[...]
POINT_DATA 6880
COLOR_SCALARS scalars 3
0.494118 0.815686 0.294118 0.494118 0.815686 0.294118 0.494118 0.815686 0.294118 
0.494118 0.815686 0.294118 0.494118 0.815686 0.294118 
0.494118 0.815686 0.294118 0.494118 0.815686 0.294118 
0.494118 0.815686 0.294118 0.494118 0.815686 0.294118 
0.494118 0.815686 0.294118 0.494118 0.815686 0.294118 
0.494118 0.815686 0.294118 0.494118 0.815686 0.294118 
0.494118 0.815686 0.294118 0.494118 0.815686 0.294118 
0.494118 0.815686 0.294118 0.494118 0.815686 0.294118 
0.494118 0.815686 0.294118 0.494118 0.815686 0.294118 
0.494118 0.815686 0.294118 0.494118 0.815686 0.294118 
0.494118 0.815686 0.294118 0.494118 0.815686 0.294118 
0.494118 0.815686 0.294118 0.494118 0.815686 0.294118 
0.494118 0.815686 0.294118 0.494118 0.815686 0.294118 
0.494118 0.815686 0.294118 0.494118 0.815686 0.294118 
0.494118 0.815686 0.294118 0.494118 0.815686 0.294118 
0.494118 0.815686 0.294118 0.494118 0.815686 0.294118 
0.494118 0.815686 0.294118 0.494118 0.815686 0.294118 
0.494118 0.815686 0.294118 0.494118 0.815686 0.294118 
0.494118 0.815686 0.294118 0.494118 0.815686 0.294118 
0.494118 0.815686 0.294118 0.494118 0.815686 0.294118 
0.494118 0.815686 0.294118 0.494118 0.815686 0.294118 
0.494118 0.815686 0.294118 0.494118 0.815686 0.294118 
0.494118 0.815686 0.294118 0.494118 0.815686 0.294118 
0.494118 0.815686 0.294118 0.494118 0.815686 0.294118 
0.494118 0.815686 0.294118 0.494118 0.815686 0.294118 
0.494118 0.815686 0.294118 0.494118 0.815686 0.294118 
0.494118 0.815686 0.294118 0.494118 0.815686 0.294118 
0.494118 0.815686 0.294118 0.494118 0.815686 0.294118 
0.494118 0.815686 0.294118 0.494118 0.815686 0.294118 
0.494118 0.815686 0.294118 0.494118 0.815686 0.294118 
0.494118 0.815686 0.294118 0.494118 0.815686 0.294118 
0.494118 0.815686 0.294118 0.494118 0.815686 0.294118 
0.494118 0.815686 0.294118 0.494118 0.815686 0.294118 
0.494118 0.815686 0.294118 0.494118 0.815686 0.294118 
0.494118 0.815686 0.294118 0.494118 0.815686 0.294118 
0.494118 0.815686 0.294118 0.494118 0.815686 0.294118 
0.494118 0.815686 0.294118 0.494118 0.815686 0.294118 
0.494118 0.815686 0.294118 0.494118 0.815686 0.294118 
0.494118 0.815686 0.294118 0.494118 0.815686 0.294118 
0.494118 0.815686 0.294118 0.494118 0.815686 0.294118 
0.494118 0.815686 0.294118 0.494118 0.815686 0.294118 
0.494118 0.815686 0.294118 0.494118 0.815686 0.294118 
0.494118 0.815686 0.294118 0.494118 0.815686 0.294118 
0.494118 0.815686 0.294118 0.494118 0.815686 0.294118 
0.494118 0.815686 0.294118 0.494118 0.815686 0.294118 
0.494118 0.815686 0.294118 0.494118 0.815686 0.294118 
0.494118 0.815686 0.294118 0.494118 0.815686 0.294118 
0.494118 0.815686 0.294118 0.494118 0.815686 0.294118 
0.494118 0.815686 0.294118 0.494118 0.815686 0.294118 
0.494118 0.815686 0.294118 0.494118 0.815686 0.294118 
0.494118 0.815686 0.294118 0.494118 0.815686 0.294118 
0.494118 0.815686 0.294118 0.494118 0.815686 0.294118 
0.494118 0.815686 0.294118 0.494118 0.815686 0.294118 
0.494118 0.815686 0.294118 0.494118 0.815686 0.294118 
0.494118 0.815686 0.294118 0.494118 0.815686 0.294118 
0.494118 0.815686 0.294118 0.494118 0.815686 0.294118 
0.494118 0.815686 0.294118 0.494118 0.815686 0.294118 
0.494118 0.815686 0.294118 0.494118 0.815686 0.294118 
0.494118 0.815686 0.294118 0.494118 0.815686 0.294118 
0.494118 0.815686 0.294118 0.494118 0.815686 0.294118 
0.494118 0.815686 0.294118 0.494118 0.815686 0.294118 
0.494118 0.815686 0.294118 0.494118 0.815686 0.294118 
0.494118 0.815686 0.294118 0.494118 0.815686 0.294118 
0.494118 0.815686 0.294118 0.494118 0.815686 0.294118 
0.494118 0.815686 0.294118 0.494118 0.815686 0.294118 
0.494118 0.815686 0.294118 0.494118 0.815686 0.294118 
0.494118 0.815686 0.294118 0.494118 0.815686 0.294118 
0.494118 0.815686 0.294118 0.494118 0.815686 0.294118 
0.494118 0.815686 0.294118 0.494118 0.815686 0.294118 
0.494118 0.815686 0.294118 0.494118 0.815686 0.294118 
0.494118 0.815686 0.294118 0.494118 0.815686 0.294118 
0.494118 0.815686 0.294118 0.494118 0.815686 0.294118 
0.494118 0.815686 0.294118 0.494118 0.815686 0.294118 
0.494118 0.815686 0.294118 0.494118 0.815686 0.294118 
0.494118 0.815686 0.294118 0.494118 0.815686 0.294118 
0.494118 0.815686 0.294118 0.494118 0.815686 0.294118 
0.494118 0.815686 0.294118 0.494118 0.815686 0.294118 
0.494118 0.815686 0.294118 0.494118 0.815686 0.294118 
0.494118 0.815686 0.294118 0.494118 0.815686 0.294118 
0.494118 0.815686 0.294118 0.494118 0.815686 0.294118 
0.494118 0.815686 0.294118 0.494118 0.815686 0.294118 
0.494118 0.815686 0.294118 0.494118 0.815686 0.294118 
0.494118 0.815686 0.294118 0.494118 0.815686 0.294118 
0.494118 0.815686 0.294118 0.494118 0.815686 0.294118 
0.494118 0.815686 0.294118 0.494118 0.815686 0.294118 
0.494118 0.815686 0.294118 0.494118 0.815686 0.294118 
0.494118 0.815686 0.294118 0.494118 0.815686 0.294118 
0.494118 0.815686 0.294118 0.494118 0.815686 0.294118 
0.494118 0.815686 0.294118 0.494118 0.815686 0.294118 
0.494118 0.815686 0.294118 0.494118 0.815686 0.294118 
0.494118 0.815686 0.294118 0.494118 0.815686 0.294118 
0.494118 0.815686 0.294118 0.494118 0.815686 0.294118 
0.494118 0.815686 0.294118 0.494118 0.815686 0.294118 
0.494118 0.815686 0.294118 0.494118 0.815686 0.294118 
0.494118 0.815686 0.294118 0.494118 0.815686 0.294118 
0.494118 0.815686 0.294118 0.494118 0.815686 0.294118 
0.494118 0.815686 0.294118 0.494118 0.815686 0.294118 
0.494118 0.815686 0.294118 0.494118 0.815686 0.294118 
0.494118 0.815686 0.294118 0.494118 0.815686 0.294118 
0.494118 0.815686 0.294118 0.494118 0.815686 0.294118 
0.494118 0.815686 0.294118 0.494118 0.815686 0.294118 
0.494118 0.815686 0.294118 0.494118 0.815686 0.294118 
0.494118 0.815686 0.294118 0.494118 0.815686 0.294118 
0.494118 0.815686 0.294118 0.494118 0.815686 0.294118 
0.494118 0.815686 0.294118 0.494118 0.815686 0.294118 
0.494118 0.815686 0.294118 0.494118 0.815686 0.294118 
0.494118 0.815686 0.294118 0.494118 0.815686 0.294118 
0.494118 0.815686 0.294118 0.494118 0.815686 0.294118 
0.494118 0.815686 0.294118 0.494118 0.815686 0.294118 
0.494118 0.815686 0.294118 0.494118 0.815686 0.294118 
0.494118 0.815686 0.294118 0.494118 0.815686 0.294118 
0.494118 0.815686 0.294118 0.494118 0.815686 0.294118 
0.494118 0.815686 0.294118 0.494118 0.815686 0.294118 
0.494118 0.815686 0.294118 0.494118 0.815686 0.294118 
0.494118 0.815686 0.294118 0.494118 0.815686 0.294118 
0.494118 0.815686 0.294118 0.494118 0.815686 0.294118 
0.494118 0.815686 0.294118 0.494118 0.815686 0.294118 
0.494118 0.815686 0.294118 0.494118 0.815686 0.294118 
0.494118 0.815686 0.294118 0.494118 0.815686 0.294118 
0.494118 0.815686 0.294118 0.494118 0.815686 0.294118 
0.494118 0.815686 0.294118 0.494118 0.815686 0.294118 
0.494118 0.815686 0.294118 0.494118 0.815686 0.294118 
0.494118 0.815686 0.294118 0.494118 0.815686 0.294118 
0.494118 0.815686 0.294118 0.494118 0.815686 0.294118 
0.494118 0.815686 0.294118 0.494118 0.815686 0.294118 
0.494118 0.815686 0.294118 0.494118 0.815686 0.294118 
0.494118 0.815686 0.294118 0.494118 0.815686 0.294118 
0.494118 0.815686 0.294118 0.494118 0.815686 0.294118 
0.494118 0.815686 0.294118 0.494118 0.815686 0.294118 
0.494118 0.815686 0.294118 0.494118 0.815686 0.294118 
0.494118 0.815686 0.294118 0.494118 0.815686 0.294118 
0.494118 0.815686 0.294118 0.494118 0.815686 0.294118 
0.494118 0.815686 0.294118 0.494118 0.815686 0.294118 
0.494118 0.815686 0.294118 0.494118 0.815686 0.294118 
0.494118 0.815686 0.294118 0.494118 0.815686 0.294118 
0.494118 0.815686 0.294118 0.494118 0.815686 0.294118 
0.494118 0.815686 0.294118 0.494118 0.815686 0.294118 
0.494118 0.815686 0.294118 0.494118 0.815686 0.294118 
0.494118 0.815686 0.294118 0.494118 0.815686 0.294118 
0.494118 0.815686 0.294118 0.494118 0.815686 0.294118 
0.494118 0.815686 0.294118 0.494118 0.815686 0.294118 
0.494118 0.815686 0.294118 0.494118 0.815686 0.294118 
0.494118 0.815686 0.294118 0.494118 0.815686 0.294118 
0.494118 0.815686 0.294118 0.494118 0.815686 0.294118 
0.494118 0.815686 0.294118 0.494118 0.815686 0.294118 
0.494118 0.815686 0.294118 0.494118 0.815686 0.294118 
0.494118 0.815686 0.294118 0.494118 0.815686 0.294118 
0.494118 0.815686 0.294118 0.494118 0.815686 0.294118 
0.494118 0.815686 0.294118 0.494118 0.815686 0.294118 
0.494118 0.815686 0.294118 0.494118 0.815686 0.294118 
0.494118 0.815686 0.294118 0.494118 0.815686 0.294118 
0.494118 0.815686 0.294118 0.494118 0.815686 0.294118 
0.494118 0.815686 0.294118 0.494118 0.815686 0.294118 
0.494118 0.815686 0.294118 0.494118 0.815686 0.294118 
0.494118 0.815686 0.294118 0.494118 0.815686 0.294118 
0.494118 0.815686 0.294118 0.494118 0.815686 0.294118 
0.494118 0.815686 0.294118 0.494118 0.815686 0.294118 
0.494118 0.815686 0.294118 0.494118 0.815686 0.294118 
0.494118 0.815686 0.294118 0.494118 0.815686 0.294118 
0.494118 0.815686 0.294118 0.494118 0.815686 0.294118 
0.494118 0.815686 0.294118 0.494118 0.815686 0.294118 
0.494118 0.815686 0.294118 0.494118 0.815686 0.294118 
0.494118 0.815686 0.294118 0.494118 0.815686 0.294118 
0.494118 0.815686 0.294118 0.494118 0.815686 0.294118 
0.494118 0.815686 0.294118 0.494118 0.815686 0.294118 
0.494118 0.815686 0.294118 0.494118 0.815686 0.294118 
0.494118 0.815686 0.294118 0.494118 0.815686 0.294118 
0.494118 0.815686 0.294118 0.494118 0.815686 0.294118 
0.494118 0.815686 0.294118 0.494118 0.815686 0.294118 
0.494118 0.815686 0.294118 0.494118 0.815686 0.294118 
0.494118 0.815686 0.294118 0.494118 0.815686 0.294118 
0.494118 0.815686 0.294118 0.494118 0.815686 0.294118 
0.494118 0.815686 0.294118 0.494118 0.815686 0.294118 
0.494118 0.815686 0.294118 0.494118 0.815686 0.294118 
0.494118 0.815686 0.294118 0.494118 0.815686 0.294118 
0.494118 0.815686 0.294118 0.494118 0.815686 0.294118 
0.494118 0.815686 0.294118 0.494118 0.815686 0.294118 
0.494118 0.815686 0.294118 0.494118 0.815686 0.294118 
0.494118 0.815686 0.294118 0.494118 0.815686 0.294118 
0.494118 0.815686 0.294118 0.494118 0.815686 0.294118 
0.494118 0.815686 0.294118 0.494118 0.815686 0.294118 
0.494118 0.815686 0.294118 0.494118 0.815686 0.294118 
0.494118 0.815686 0.294118 0.494118 0.815686 0.294118 
0.494118 0.815686 0.294118 0.494118 0.815686 0.294118 
0.494118 0.815686 0.294118 0.494118 0.815686 0.294118 
0.494118 0.815686 0.294118 0.494118 0.815686 0.294118 
0.494118 0.815686 0.294118 0.494118 0.815686 0.294118 
0.494118 0.815686 0.294118 0.494118 0.815686 0.294118 
0.494118 0.815686 0.294118 0.494118 0.815686 0.294118 
0.494118 0.815686 0.294118 0.494118 0.815686 0.294118 
0.494118 0.815686 0.294118 0.494118 0.815686 0.294118 
0.494118 0.815686 0.294118 0.494118 0.815686 0.294118 
0.494118 0.815686 0.294118 0.494118 0.815686 0.294118 
0.494118 0.815686 0.294118 0.494118 0.815686 0.294118 
0.494118 0.815686 0.294118 0.494118 0.815686 0.294118 
0.494118 0.815686 0.294118 0.494118 0.815686 0.294118 
0.494118 0.815686 0.294118 0.494118 0.815686 0.294118 
0.494118 0.815686 0.294118 0.494118 0.815686 0.294118 
0.494118 0.815686 0.294118 0.494118 0.815686 0.294118 
0.494118 0.815686 0.294118 0.494118 0.815686 0.294118 
0.494118 0.815686 0.294118 0.494118 0.815686 0.294118 
0.494118 0.815686 0.294118 0.494118 0.815686 0.294118 
0.494118 0.815686 0.294118 0.494118 0.815686 0.294118 
0.494118 0.815686 0.294118 0.494118 0.815686 0.294118 
0.494118 0.815686 0.294118 0.494118 0.815686 0.294118 
0.494118 0.815686 0.294118 0.494118 0.815686 0.294118 
0.494118 0.815686 0.294118 0.494118 0.815686 0.294118 
0.494118 0.815686 0.294118 0.494118 0.815686 0.294118 
0.494118 0.815686 0.294118 0.494118 0.815686 0.294118 
0.494118 0.815686 0.294118 0.494118 0.815686 0.294118 
0.494118 0.815686 0.294118 0.494118 0.815686 0.294118 
0.494118 0.815686 0.294118 0.494118 0.815686 0.294118 
0.494118 0.815686 0.294118 0.494118 0.815686 0.294118 
0.494118 0.815686 0.294118 0.494118 0.815686 0.294118 
0.494118 0.815686 0.294118 0.494118 0.815686 0.294118 
0.494118 0.815686 0.294118 0.494118 0.815686 0.294118 
0.494118 0.815686 0.294118 0.494118 0.815686 0.294118 
0.494118 0.815686 0.294118 0.494118 0.815686 0.294118 
0.494118 0.815686 0.294118 0.494118 0.815686 0.294118 
0.494118 0.815686 0.294118 0.494118 0.815686 0.294118 
0.494118 0.815686 0.294118 0.494118 0.815686 0.294118 
0.494118 0.815686 0.294118 0.494118 0.815686 0.294118 
0.494118 0.815686 0.294118 0.494118 0.815686 0.294118 
0.494118 0.815686 0.294118 0.494118 0.815686 0.294118 
0.494118 0.815686 0.294118 0.494118 0.815686 0.294118 
0.494118 0.815686 0.294118 0.494118 0.815686 0.294118 
0.494118 0.815686 0.294118 0.494118 0.815686 0.294118 
0.494118 0.815686 0.294118 0.494118 0.815686 0.294118 
0.494118 0.815686 0.294118 0.494118 0.815686 0.294118 
0.494118 0.815686 0.294118 0.494118 0.815686 0.294118 
0.494118 0.815686 0.294118 0.494118 0.815686 0.294118 
0.494118 0.815686 0.294118 0.494118 0.815686 0.294118 
0.494118 0.815686 0.294118 0.494118 0.815686 0.294118 
0.494118 0.815686 0.294118 0.494118 0.815686 0.294118 
0.494118 0.815686 0.294118 0.494118 0.815686 0.294118 
0.494118 0.815686 0.294118 0.494118 0.815686 0.294118 
0.494118 0.815686 0.294118 0.494118 0.815686 0.294118 
0.494118 0.815686 0.294118 0.494118 0.815686 0.294118 
0.494118 0.815686 0.294118 0.494118 0.815686 0.294118 
0.494118 0.815686 0.294118 0.494118 0.815686 0.294118 
0.494118 0.815686 0.294118 0.494118 0.815686 0.294118 
0.494118 0.815686 0.294118 0.494118 0.815686 0.294118 
0.494118 0.815686 0.294118 0.494118 0.815686 0.294118 
0.494118 0.815686 0.294118 0.494118 0.815686 0.294118 
0.494118 0.815686 0.294118 0.494118 0.815686 0.294118 
0.494118 0.815686 0.294118 0.494118 0.815686 0.294118 
0.494118 0.815686 0.294118 0.494118 0.815686 0.294118 
0.494118 0.815686 0.294118 0.494118 0.815686 0.294118 
0.494118 0.815686 0.294118 0.494118 0.815686 0.294118 
0.494118 0.815686 0.294118 0.494118 0.815686 0.294118 
0.494118 0.815686 0.294118 0.494118 0.815686 0.294118 
0.494118 0.815686 0.294118 0.494118 0.815686 0.294118 
0.494118 0.815686 0.294118 0.494118 0.815686 0.294118 
0.494118 0.815686 0.294118 0.494118 0.815686 0.294118 
0.494118 0.815686 0.294118 0.494118 0.815686 0.294118 
0.494118 0.815686 0.294118 0.494118 0.815686 0.294118 
0.494118 0.815686 0.294118 0.494118 0.815686 0.294118 
0.494118 0.815686 0.294118 0.494118 0.815686 0.294118 
0.494118 0.815686 0.294118 0.494118 0.815686 0.294118 
0.494118 0.815686 0.294118 0.494118 0.815686 0.294118 
0.494118 0.815686 0.294118 0.494118 0.815686 0.294118 
0.494118 0.815686 0.294118 0.494118 0.815686 0.294118 
0.494118 0.815686 0.294118 0.494118 0.815686 0.294118 
0.494118 0.815686 0.294118 0.494118 0.815686 0.294118 
0.494118 0.815686 0.294118 0.494118 0.815686 0.294118 
0.494118 0.815686 0.294118 0.494118 0.815686 0.294118 
0.494118 0.815686 0.294118 0.494118 0.815686 0.294118 
0.494118 0.815686 0.294118 0.494118 0.815686 0.294118 
0.494118 0.815686 0.294118 0.494118 0.815686 0.294118 
0.494118 0.815686 0.294118 0.494118 0.815686 0.294118 
0.494118 0.815686 0.294118 0.494118 0.815686 0.294118 
0.494118 0.815686 0.294118 0.494118 0.815686 0.294118 
0.494118 0.815686 0.294118 0.494118 0.815686 0.294118 
0.494118 0.815686 0.294118 0.494118 0.815686 0.294118 
0.494118 0.815686 0.294118 0.494118 0.815686 0.294118 
0.494118 0.815686 0.294118 0.494118 0.815686 0.294118 
0.494118 0.815686 0.294118 0.494118 0.815686 0.294118 
0.494118 0.815686 0.294118 0.494118 0.815686 0.294118 
0.494118 0.815686 0.294118 0.494118 0.815686 0.294118 
0.494118 0.815686 0.294118 0.494118 0.815686 0.294118 
0.494118 0.815686 0.294118 0.494118 0.815686 0.294118 
0.494118 0.815686 0.294118 0.494118 0.815686 0.294118 
0.494118 0.815686 0.294118 0.494118 0.815686 0.294118 
0.494118 0.815686 0.294118 0.494118 0.815686 0.294118 
0.494118 0.815686 0.294118 0.494118 0.815686 0.294118 
0.494118 0.815686 0.294118 0.494118 0.815686 0.294118 
0.494118 0.815686 0.294118 0.494118 0.815686 0.294118 
0.494118 0.815686 0.294118 0.494118 0.815686 0.294118 
0.494118 0.815686 0.294118 0.494118 0.815686 0.294118 
0.494118 0.815686 0.294118 0.494118 0.815686 0.294118 
0.494118 0.815686 0.294118 0.494118 0.815686 0.294118 
0.494118 0.815686 0.294118 0.494118 0.815686 0.294118 
0.494118 0.815686 0.294118 0.494118 0.815686 0.294118 
0.494118 0.815686 0.294118 0.494118 0.815686 0.294118 
0.494118 0.815686 0.294118 0.494118 0.815686 0.294118 
0.494118 0.815686 0.294118 0.494118 0.815686 0.294118 
0.494118 0.815686 0.294118 0.494118 0.815686 0.294118 
0.494118 0.815686 0.294118 0.494118 0.815686 0.294118 
0.494118 0.815686 0.294118 0.494118 0.815686 0.294118 
0.494118 0.815686 0.294118 0.494118 0.815686 0.294118 
0.494118 0.815686 0.294118 0.494118 0.815686 0.294118 
0.494118 0.815686 0.294118 0.494118 0.815686 0.294118 
0.494118 0.815686 0.294118 0.494118 0.815686 0.294118 
0.494118 0.815686 0.294118 0.494118 0.815686 0.294118 
0.494118 0.815686 0.294118 0.494118 0.815686 0.294118 
0.494118 0.815686 0.294118 0.494118 0.815686 0.294118 
0.494118 0.815686 0.294118 0.494118 0.815686 0.294118 
0.494118 0.815686 0.294118 0.494118 0.815686 0.294118 
0.494118 0.815686 0.294118 0.494118 0.815686 0.294118 
0.494118 0.815686 0.294118 0.494118 0.815686 0.294118 
0.494118 0.815686 0.294118 0.494118 0.815686 0.294118 
0.494118 0.815686 0.294118 0.494118 0.815686 0.294118 
0.494118 0.815686 0.294118 0.494118 0.815686 0.294118 
0.494118 0.815686 0.294118 0.494118 0.815686 0.294118 
0.494118 0.815686 0.294118 0.494118 0.815686 0.294118 
0.494118 0.815686 0.294118 0.494118 0.815686 0.294118 
0.494118 0.815686 0.294118 0.494118 0.815686 0.294118 
0.494118 0.815686 0.294118 0.494118 0.815686 0.294118 
0.494118 0.815686 0.294118 0.494118 0.815686 0.294118 
0.494118 0.815686 0.294118 0.494118 0.815686 0.294118 
0.494118 0.815686 0.294118 0.494118 0.815686 0.294118 
0.494118 0.815686 0.294118 0.494118 0.815686 0.294118 
0.494118 0.815686 0.294118 0.494118 0.815686 0.294118 
0.494118 0.815686 0.294118 0.494118 0.815686 0.294118 
0.494118 0.815686 0.294118 0.494118 0.815686 0.294118 
0.494118 0.815686 0.294118 0.494118 0.815686 0.294118 
0.494118 0.815686 0.294118 0.494118 0.815686 0.294118 
0.494118 0.815686 0.294118 0.494118 0.815686 0.294118 
0.494118 0.815686 0.294118 0.494118 0.815686 0.294118 
0.494118 0.815686 0.294118 0.494118 0.815686 0.294118 
0.494118 0.815686 0.294118 0.494118 0.815686 0.294118 
0.494118 0.815686 0.294118 0.494118 0.815686 0.294118 
0.494118 0.815686 0.294118 0.494118 0.815686 0.294118 
0.494118 0.815686 0.294118 0.494118 0.815686 0.294118 
0.494118 0.815686 0.294118 0.494118 0.815686 0.294118 
0.494118 0.815686 0.294118 0.494118 0.815686 0.294118 
0.494118 0.815686 0.294118 0.494118 0.815686 0.294118 
0.494118 0.815686 0.294118 0.494118 0.815686 0.294118 
0.494118 0.815686 0.294118 0.494118 0.815686 0.294118 
0.494118 0.815686 0.294118 0.494118 0.815686 0.294118 
0.494118 0.815686 0.294118 0.494118 0.815686 0.294118 
0.494118 0.815686 0.294118 0.494118 0.815686 0.294118 
0.494118 0.815686 0.294118 0.494118 0.815686 0.294118 
0.494118 0.815686 0.294118 0.494118 0.815686 0.294118 
0.494118 0.815686 0.294118 0.494118 0.815686 0.294118 
0.494118 0.815686 0.294118 0.494118 0.815686 0.294118 
0.494118 0.815686 0.294118 0.494118 0.815686 0.294118 
0.494118 0.815686 0.294118 0.494118 0.815686 0.294118 
0.494118 0.815686 0.294118 0.494118 0.815686 0.294118 
0.494118 0.815686 0.294118 0.494118 0.815686 0.294118 
0.494118 0.815686 0.294118 0.494118 0.815686 0.294118 
0.494118 0.815686 0.294118 0.494118 0.815686 0.294118 
0.494118 0.815686 0.294118 0.494118 0.815686 0.294118 
0.494118 0.815686 0.294118 0.494118 0.815686 0.294118 
0.494118 0.815686 0.294118 0.494118 0.815686 0.294118 
0.494118 0.815686 0.294118 0.494118 0.815686 0.294118 
0.494118 0.815686 0.294118 0.494118 0.815686 0.294118 
0.494118 0.815686 0.294118 0.494118 0.815686 0.294118 
0.494118 0.815686 0.294118 0.494118 0.815686 0.294118 
0.494118 0.815686 0.294118 0.494118 0.815686 0.294118 
0.494118 0.815686 0.294118 0.494118 0.815686 0.294118 
0.494118 0.815686 0.294118 0.494118 0.815686 0.294118 