# vtk DataFile Version 4.2
vtk output
ASCII
DATASET POLYDATA
POINTS 6192 float
345.93 154.374 97.5023 345.995 155.39 97.527 346.149 155.898 97.4218 
346.487 156.304 97.2234 347.013 157.186 97.0449 346.755 159.263 97.2863 
347.095 159.972 97.1332 346.681 161.571 97.5447 347.994 161.459 97.0926 
346.742 161.768 97.4513 346.736 161.884 97.535 346.828 162.005 97.4843 
347.586 163.077 97.6835 344.767 150.357 98.3505 344.73 150.42 98.2935 
344.906 150.183 98.4239 345.148 149.798 98.5164 345.512 149.353 98.4942 
346.077 149.148 98.3525 344.782 150.521 98.2593 344.859 150.7 98.2653 
347.073 149.707 98.0833 345.032 151.009 98.2155 345.198 151.464 98.2487 
345.379 151.42 98.0427 345.346 151.967 98.2806 345.895 152.465 97.7672 
349.708 152.073 97.8487 345.717 153.153 97.9875 345.906 154.99 97.7901 
346.389 157.852 97.8987 346.469 157.795 98.2574 346.618 160.64 97.7877 
346.924 160.665 98.4586 351.576 161.782 97.5838 346.865 162.127 97.6042 
347.102 162.494 97.8621 347.55 163.688 98.2716 350.486 164.523 97.6484 
347.811 165.735 98.6625 347.938 166.197 98.6748 348.084 167.022 98.9357 
343.636 145.816 99.3792 343.567 145.752 99.452 343.547 145.846 99.3925 
343.67 145.532 99.5106 346.56 145.109 99.3028 343.606 145.946 99.3609 
343.683 146.09 99.3685 343.838 146.122 99.3017 343.853 146.322 99.3374 
344.819 147.07 99.0189 344.401 147.227 99.418 344.667 147.548 99.1699 
345.422 148.237 98.7542 344.882 150.403 98.4836 345.029 149.977 98.7096 
344.733 147.795 99.4714 345.118 148.949 99.0446 351.849 149.969 98.9942 
345.3 151.523 98.5618 345.598 150.931 99.2895 346.2 153.089 99.1713 
346.612 157.468 98.5737 347.719 162.724 99.2877 347.687 164.381 98.9061 
347.744 165.331 98.8289 349.004 168.02 98.6277 349.688 167.916 98.4425 
351.848 167.835 98.4991 353.776 168.247 99.2534 347.909 169.948 99.6078 
347.961 170.123 99.6273 348.013 170.454 99.8288 348.169 170.335 99.5765 
348.349 171.194 99.8352 350.428 170.984 99.2495 343.22 143.757 100.098 
343.18 143.71 100.171 343.111 143.809 100.107 343.448 143.644 100.151 
343.278 143.636 100.189 343.167 143.944 100.03 343.677 143.35 100.398 
344.185 142.969 100.39 343.109 144.085 100.018 343.062 144.049 100.065 
343.854 144.503 99.7662 343.592 145.914 99.4317 343.084 144.134 100.034 
343.237 144.32 100.001 343.661 145.712 99.6121 343.605 144.96 99.8352 
344.123 146.708 99.5366 344.81 147.446 99.9188 352.854 148.276 99.9842 
346.703 152.58 99.8706 347.884 159.278 99.7878 356.024 165.485 100.288 
347.906 170.048 99.7208 347.954 169.893 99.9713 348.016 171.098 100.356 
354.773 170.413 100.282 347.981 172.134 100.414 348.128 172.945 100.753 
349.248 173.783 100.358 349.664 173.796 100.28 342.291 139.315 101.681 
342.127 139.095 101.778 342.139 139.211 101.729 342.296 139.034 101.8 
342.248 139.341 101.747 342.905 140.422 101.563 344.424 141.07 100.923 
343.174 143.829 100.186 343.577 141.402 101.137 344.22 141.926 100.755 
343.814 143.595 100.717 343.848 142.422 101.002 343.147 144.173 100.075 
343.438 144.425 100.158 344.285 143.188 101.382 343.919 145.198 100.217 
351.683 144.274 101.043 347.14 152.311 100.336 356.717 156.135 101.057 
348.047 172.935 101.266 348.099 174.784 101.471 350.357 174.754 100.628 
348.196 174.949 101.443 341.594 137.94 102.374 341.755 137.614 102.645 
341.988 137.422 102.803 342.357 137.6 102.919 341.631 138.05 102.31 
341.709 138.192 102.268 341.813 138.253 102.219 342.248 138.511 102.095 
342.759 138.046 102.663 342.946 138.547 102.103 343.282 138.026 102.516 
344.001 137.943 102.395 342.097 139.114 101.792 341.822 138.39 102.184 
342.077 138.834 101.992 342.727 140.045 101.777 342.697 139.633 102.121 
343.925 141.243 102.247 348.039 146.976 102.817 355.173 147.501 101.896 
350.253 157.865 102.268 357.601 159.734 102.088 348.247 172.244 101.793 
349.864 178.085 102.2 341.243 135.613 103.655 341.146 135.429 103.758 
341.12 135.505 103.712 341.54 135.791 103.553 341.321 135.404 103.768 
341.188 135.596 103.727 341.287 135.818 103.696 341.463 136.039 103.517 
342.054 136.555 103.239 343.087 135.9 103.412 341.83 137.746 102.668 
341.795 136.883 103.214 342.657 137.175 103.118 343.373 137.318 102.866 
342.538 137.287 103.457 342.854 138.357 102.92 342.995 137.795 103.142 
343.392 138.435 103.452 356.945 150.872 102.622 358.201 163.266 103.646 
356.814 171.883 102.572 356.309 176.061 103.318 348.138 178.833 103.474 
353.028 178.83 102.722 348.219 178.998 103.446 348.737 179.488 103.303 
350 179.462 102.867 341.212 134.924 104.192 341.218 134.834 104.355 
341.144 134.934 104.223 341.499 134.977 104.06 341.374 134.605 104.501 
341.688 134.278 104.572 341.112 135.434 103.775 341.198 135.26 103.967 
342.409 136.881 103.887 343.101 137.6 103.823 343.57 138.083 103.989 
350.695 148.995 104.769 351.834 156.533 104.677 351.849 158.6 104.542 
355.874 179.295 104.278 348.404 181.287 104.587 341.084 132.444 105.888 
340.967 132.151 106.055 340.901 132.254 106.107 341.477 132.256 105.791 
341.021 132.538 106.06 341.132 132.816 106.048 341.293 132.981 105.679 
341.896 133.371 105.108 341.396 134.759 104.679 341.486 133.927 105.245 
341.66 134.504 105.348 349.032 143.55 105.584 356.889 146.141 104.452 
352.389 158.242 105.874 352.134 162.895 105.324 348.333 180.03 105.423 
348.186 180.5 105.277 348.137 180.984 105.044 347.984 181.905 105.24 
348.067 182.397 105.561 348.317 183.052 105.682 340.907 131.809 106.45 
340.87 132.025 106.24 341.073 131.536 106.613 341.445 131.182 106.696 
340.834 132.133 106.276 340.898 132.308 106.254 351.319 147.915 106.502 
358.569 168.652 106.288 357.542 180.267 106.453 347.982 182.011 105.382 
348.056 181.911 105.61 348.103 182.954 106.206 348.011 183.707 106.328 
348.433 184.197 106.332 340.231 128.837 108.486 340.224 129.258 108.381 
340.151 129.483 108.493 340.841 129.978 107.773 341.643 130.3 107.255 
340.849 131.963 106.466 340.576 130.13 108.025 340.932 131.674 106.827 
340.966 130.892 107.461 341.088 131.877 107.394 341.494 132.783 107.213 
357.579 143.932 107.169 358.602 157.995 106.946 358.638 159.964 106.983 
350.481 177.804 107.104 358.327 178.811 107.21 348.101 184.11 106.798 
347.972 184.87 107.089 348.335 184.729 106.771 348.036 184.999 107.131 
348.152 185.248 107.343 352.389 186.168 106.88 339.829 128.441 108.885 
339.645 128.291 109.057 339.658 128.4 109.129 342.015 129.019 107.974 
340.886 131.151 108.237 354.575 136.838 107.303 357.262 142.112 107.695 
351.622 176.207 108.247 347.997 184.95 107.189 348.067 184.863 107.33 
348.444 185.9 107.787 348.617 186.8 108.35 350.301 186.796 107.451 
339.321 127.232 109.861 339.337 127.385 109.721 340.041 127.617 109.324 
339.607 127.055 109.859 339.578 128.178 109.201 339.49 127.875 109.596 
356.191 137.945 108.799 356.699 139.191 109.08 357.556 142.523 108.676 
358.464 159.218 108.702 352.285 175.925 109.892 348.166 185.092 107.729 
348.392 186.172 108.54 348.521 185.561 108.758 348.233 187.465 109.379 
348.369 187.207 108.931 348.109 187.785 109.396 348.09 187.816 109.343 
348.763 187.718 108.807 348.177 187.898 109.341 348.452 188.175 109.333 
337.831 125.145 111.336 337.639 125.097 111.439 337.941 124.774 111.513 
337.679 125.243 111.468 337.882 125.609 111.34 338.054 125.512 111.166 
339.564 126.31 110.313 339.281 127.381 109.823 339.034 126.929 110.404 
339.135 127.741 110.555 345.039 135.991 109.187 357.282 141.218 109.471 
357.686 143.629 109.299 353.47 158.331 109.641 352.281 177.901 110.854 
359.345 178.448 110.458 348.095 187.896 109.419 348.192 188.058 109.625 
348.141 188.37 109.894 348.128 188.505 109.929 348.16 188.44 109.83 
348.371 188.613 109.782 348.392 188.948 110.221 348.663 189.653 110.568 
334 123.009 111.017 334 123.009 111.017 334 123.009 111.017 
334 123.009 111.017 334 123.009 111.017 336.7 123.719 112.592 
337.546 125.031 111.569 337.362 124.811 111.981 341.832 124.849 111.44 
339.017 127.849 111.179 354.91 133.995 110.001 356.122 135.906 110.643 
356.412 137.413 110.036 357.258 141.393 110.053 357.316 141.951 110.193 
350.789 143.485 110.503 353.114 149.905 109.963 353.588 152.56 109.954 
358.035 159.54 110.333 358.306 163.379 110.512 358.479 166.252 110.687 
348.265 188.252 110.06 348.354 188.652 110.352 348.527 189.262 110.867 
357.107 189.379 111.224 348.526 189.936 111.325 348.577 190.83 111.598 
352.066 190.943 110.354 356.754 190.597 111.601 349.535 191.35 111.175 
334 123.009 111.018 336.543 123.162 112.978 336.175 123.155 113.348 
336.432 123.955 113.062 353.634 130.922 111.383 356.149 135.513 111.738 
356.645 140.602 111.484 356.674 141.338 111.46 351.284 143.545 111.494 
356.84 145.252 111.187 352.574 146.376 110.744 353.626 149.135 110.884 
353.346 150.045 110.305 356.862 150.252 111.019 357.136 154.13 110.945 
354.082 157.103 110.772 354.049 158.84 111.023 358.39 167.359 111.641 
348.556 190.275 111.721 348.61 190.701 112.126 348.686 191.189 111.731 
348.944 191.439 111.687 333 121.009 113.017 333 121.009 113.017 
333 121.009 113.017 333 121.009 113.017 333 121.009 113.017 
335.763 122.869 114.051 336.103 123.916 113.977 354.396 131.228 112.071 
354.781 130.791 113.157 354.964 131.209 113.26 354.842 131.875 112.208 
356.172 137.402 112.359 355.878 137.507 112.794 349.457 140.832 112.556 
356.335 141.679 111.838 353.82 145.352 112.027 355.123 145.02 112.142 
353.025 146.316 111.249 356.321 145.501 111.598 353.684 147.472 111.324 
355.709 146.718 111.779 354.454 148.288 111.535 355.077 147.985 111.702 
354.037 149.679 111.092 355.715 148.753 111.584 353.997 150.619 110.854 
355.146 150.132 111.461 356.313 149.506 111.356 355.222 152.482 111.289 
355.943 154.338 111.438 354.868 156.358 111.495 355.366 155.849 111.621 
354.509 157.18 111.342 357.017 159.326 112.025 357.957 165.542 112.229 
351.573 185.337 113.178 358.819 189.046 113.942 348.578 191.051 112.134 
348.983 191.136 113.085 348.649 191.41 112.275 348.8 192.026 112.715 
333 121.009 113.018 339.975 129.84 113.885 355.009 131.236 113.87 
355.494 135.723 113.522 355.609 135.139 113.454 355.796 136.486 113.001 
354.791 137.147 113.799 354.36 137.417 113.96 347.533 138.71 113.055 
[...]
POINT_DATA 6192
COLOR_SCALARS scalars 3
0.494118 0.815686 0.294118 0.494118 0.815686 0.294118 0.494118 0.815686 0.294118 
0.494118 0.815686 0.294118 0.494118 0.815686 0.294118 
0.494118 0.815686 0.294118 0.494118 0.815686 0.294118 
0.494118 0.815686 0.294118 0.494118 0.815686 0.294118 
0.494118 0.815686 0.294118 0.494118 0.815686 0.294118 
0.494118 0.815686 0.294118 0.494118 0.815686 0.294118 
0.494118 0.815686 0.294118 0.494118 0.815686 0.294118 
0.494118 0.815686 0.294118 0.494118 0.815686 0.294118 
0.494118 0.815686 0.294118 0.494118 0.815686 0.294118 
0.494118 0.815686 0.294118 0.494118 0.815686 0.294118 
0.494118 0.815686 0.294118 0.494118 0.815686 0.294118 
0.494118 0.815686 0.294118 0.494118 0.815686 0.294118 
0.494118 0.815686 0.294118 0.494118 0.815686 0.294118 
0.494118 0.815686 0.294118 0.494118 0.815686 0.294118 
0.494118 0.815686 0.294118 0.494118 0.815686 0.294118 
0.494118 0.815686 0.294118 0.494118 0.815686 0.294118 
0.494118 0.815686 0.294118 0.494118 0.815686 0.294118 
0.494118 0.815686 0.294118 0.494118 0.815686 0.294118 
0.494118 0.815686 0.294118 0.494118 0.815686 0.294118 
0.494118 0.815686 0.294118 0.494118 0.815686 0.294118 
0.494118 0.815686 0.294118 0.494118 0.815686 0.294118 
0.494118 0.815686 0.294118 0.494118 0.815686 0.294118 
0.494118 0.815686 0.294118 0.494118 0.815686 0.294118 
0.494118 0.815686 0.294118 0.494118 0.815686 0.294118 
0.494118 0.815686 0.294118 0.494118 0.815686 0.294118 
0.494118 0.815686 0.294118 0.494118 0.815686 0.294118 
0.494118 0.815686 0.294118 0.494118 0.815686 0.294118 
0.494118 0.815686 0.294118 0.494118 0.815686 0.294118 
0.494118 0.815686 0.294118 0.494118 0.815686 0.294118 
0.494118 0.815686 0.294118 0.494118 0.815686 0.294118 
0.494118 0.815686 0.294118 0.494118 0.815686 0.294118 
0.494118 0.815686 0.294118 0.494118 0.815686 0.294118 
0.494118 0.815686 0.294118 0.494118 0.815686 0.294118 
0.494118 0.815686 0.294118 0.494118 0.815686 0.294118 
0.494118 0.815686 0.294118 0.494118 0.815686 0.294118 
0.494118 0.815686 0.294118 0.494118 0.815686 0.294118 
0.494118 0.815686 0.294118 0.494118 0.815686 0.294118 
0.494118 0.815686 0.294118 0.494118 0.815686 0.294118 
0.494118 0.815686 0.294118 0.494118 0.815686 0.294118 
0.494118 0.815686 0.294118 0.494118 0.815686 0.294118 
0.494118 0.815686 0.294118 0.494118 0.815686 0.294118 
0.494118 0.815686 0.294118 0.494118 0.815686 0.294118 
0.494118 0.815686 0.294118 0.494118 0.815686 0.294118 
0.494118 0.815686 0.294118 0.494118 0.815686 0.294118 
0.494118 0.815686 0.294118 0.494118 0.815686 0.294118 
0.494118 0.815686 0.294118 0.494118 0.815686 0.294118 
0.494118 0.815686 0.294118 0.494118 0.815686 0.294118 
0.494118 0.815686 0.294118 0.494118 0.815686 0.294118 
0.494118 0.815686 0.294118 0.494118 0.815686 0.294118 
0.494118 0.815686 0.294118 0.494118 0.815686 0.294118 
0.494118 0.815686 0.294118 0.494118 0.815686 0.294118 
0.494118 0.815686 0.294118 0.494118 0.815686 0.294118 
0.494118 0.815686 0.294118 0.494118 0.815686 0.294118 
0.494118 0.815686 0.294118 0.494118 0.815686 0.294118 
0.494118 0.815686 0.294118 0.494118 0.815686 0.294118 
0.494118 0.815686 0.294118 0.494118 0.815686 0.294118 
0.494118 0.815686 0.294118 0.494118 0.815686 0.294118 
0.494118 0.815686 0.294118 0.494118 0.815686 0.294118 
0.494118 0.815686 0.294118 0.494118 0.815686 0.294118 
0.494118 0.815686 0.294118 0.494118 0.815686 0.294118 
0.494118 0.815686 0.294118 0.494118 0.815686 0.294118 
0.494118 0.815686 0.294118 0.494118 0.815686 0.294118 
0.494118 0.815686 0.294118 0.494118 0.815686 0.294118 
0.494118 0.815686 0.294118 0.494118 0.815686 0.294118 
0.494118 0.815686 0.294118 0.494118 0.815686 0.294118 
0.494118 0.815686 0.294118 0.494118 0.815686 0.294118 
0.494118 0.815686 0.294118 0.494118 0.815686 0.294118 
0.494118 0.815686 0.294118 0.494118 0.815686 0.294118 
0.494118 0.815686 0.294118 0.494118 0.815686 0.294118 
0.494118 0.815686 0.294118 0.494118 0.815686 0.294118 
0.494118 0.815686 0.294118 0.494118 0.815686 0.294118 
0.494118 0.815686 0.294118 0.494118 0.815686 0.294118 
0.494118 0.815686 0.294118 0.494118 0.815686 0.294118 
0.494118 0.815686 0.294118 0.494118 0.815686 0.294118 
0.494118 0.815686 0.294118 0.494118 0.815686 0.294118 
0.494118 0.815686 0.294118 0.494118 0.815686 0.294118 
0.494118 0.815686 0.294118 0.494118 0.815686 0.294118 
0.494118 0.815686 0.294118 0.494118 0.815686 0.294118 
0.494118 0.815686 0.294118 0.494118 0.815686 0.294118 
0.494118 0.815686 0.294118 0.494118 0.815686 0.294118 
0.494118 0.815686 0.294118 0.494118 0.815686 0.294118 
0.494118 0.815686 0.294118 0.494118 0.815686 0.294118 
0.494118 0.815686 0.294118 0.494118 0.815686 0.294118 
0.494118 0.815686 0.294118 0.494118 0.815686 0.294118 
0.494118 0.815686 0.294118 0.494118 0.815686 0.294118 
0.494118 0.815686 0.294118 0.494118 0.815686 0.294118 
0.494118 0.815686 0.294118 0.494118 0.815686 0.294118 
0.494118 0.815686 0.294118 0.494118 0.815686 0.294118 
0.494118 0.815686 0.294118 0.494118 0.815686 0.294118 
0.494118 0.815686 0.294118 0.494118 0.815686 0.294118 
0.494118 0.815686 0.294118 0.494118 0.815686 0.294118 
0.494118 0.815686 0.294118 0.494118 0.815686 0.294118 
0.494118 0.815686 0.294118 0.494118 0.815686 0.294118 
0.494118 0.815686 0.294118 0.494118 0.815686 0.294118 
0.494118 0.815686 0.294118 0.494118 0.815686 0.294118 
0.494118 0.815686 0.294118 0.494118 0.815686 0.294118 
0.494118 0.815686 0.294118 0.494118 0.815686 0.294118 
0.494118 0.815686 0.294118 0.494118 0.815686 0.294118 
0.494118 0.815686 0.294118 0.494118 0.815686 0.294118 
0.494118 0.815686 0.294118 0.494118 0.815686 0.294118 
0.494118 0.815686 0.294118 0.494118 0.815686 0.294118 
0.494118 0.815686 0.294118 0.494118 0.815686 0.294118 
0.494118 0.815686 0.294118 0.494118 0.815686 0.294118 
0.494118 0.815686 0.294118 0.494118 0.815686 0.294118 
0.494118 0.815686 0.294118 0.494118 0.815686 0.294118 
0.494118 0.815686 0.294118 0.494118 0.815686 0.294118 
0.494118 0.815686 0.294118 0.494118 0.815686 0.294118 
0.494118 0.815686 0.294118 0.494118 0.815686 0.294118 
0.494118 0.815686 0.294118 0.494118 0.815686 0.294118 
0.494118 0.815686 0.294118 0.494118 0.815686 0.294118 
0.494118 0.815686 0.294118 0.494118 0.815686 0.294118 
0.494118 0.815686 0.294118 0.494118 0.815686 0.294118 
0.494118 0.815686 0.294118 0.494118 0.815686 0.294118 
0.494118 0.815686 0.294118 0.494118 0.815686 0.294118 
0.494118 0.815686 0.294118 0.494118 0.815686 0.294118 
0.494118 0.815686 0.294118 0.494118 0.815686 0.294118 
0.494118 0.815686 0.294118 0.494118 0.815686 0.294118 
0.494118 0.815686 0.294118 0.494118 0.815686 0.294118 
0.494118 0.815686 0.294118 0.494118 0.815686 0.294118 
0.494118 0.815686 0.294118 0.494118 0.815686 0.294118 
0.494118 0.815686 0.294118 0.494118 0.815686 0.294118 
0.494118 0.815686 0.294118 0.494118 0.815686 0.294118 
0.494118 0.815686 0.294118 0.494118 0.815686 0.294118 
0.494118 0.815686 0.294118 0.494118 0.815686 0.294118 
0.494118 0.815686 0.294118 0.494118 0.815686 0.294118 
0.494118 0.815686 0.294118 0.494118 0.815686 0.294118 
0.494118 0.815686 0.294118 0.494118 0.815686 0.294118 
0.494118 0.815686 0.294118 0.494118 0.815686 0.294118 
0.494118 0.815686 0.294118 0.494118 0.815686 0.294118 
0.494118 0.815686 0.294118 0.494118 0.815686 0.294118 
0.494118 0.815686 0.294118 0.494118 0.815686 0.294118 
0.494118 0.815686 0.294118 0.494118 0.815686 0.294118 
0.494118 0.815686 0.294118 0.494118 0.815686 0.294118 
0.494118 0.815686 0.294118 0.494118 0.815686 0.294118 
0.494118 0.815686 0.294118 0.494118 0.815686 0.294118 
0.494118 0.815686 0.294118 0.494118 0.815686 0.294118 
0.494118 0.815686 0.294118 0.494118 0.815686 0.294118 
0.494118 0.815686 0.294118 0.494118 0.815686 0.294118 
0.494118 0.815686 0.294118 0.494118 0.815686 0.294118 
0.494118 0.815686 0.294118 0.494118 0.815686 0.294118 
0.494118 0.815686 0.294118 0.494118 0.815686 0.294118 
0.494118 0.815686 0.294118 0.494118 0.815686 0.294118 
0.494118 0.815686 0.294118 0.494118 0.815686 0.294118 
0.494118 0.815686 0.294118 0.494118 0.815686 0.294118 
0.494118 0.815686 0.294118 0.494118 0.815686 0.294118 
0.494118 0.815686 0.294118 0.494118 0.815686 0.294118 
0.494118 0.815686 0.294118 0.494118 0.815686 0.294118 
0.494118 0.815686 0.294118 0.494118 0.815686 0.294118 
0.494118 0.815686 0.294118 0.494118 0.815686 0.294118 
0.494118 0.815686 0.294118 0.494118 0.815686 0.294118 
0.494118 0.815686 0.294118 0.494118 0.815686 0.294118 
0.494118 0.815686 0.294118 0.494118 0.815686 0.294118 
0.494118 0.815686 0.294118 0.494118 0.815686 0.294118 
0.494118 0.815686 0.294118 0.494118 0.815686 0.294118 
0.494118 0.815686 0.294118 0.494118 0.815686 0.294118 
0.494118 0.815686 0.294118 0.494118 0.815686 0.294118 
0.494118 0.815686 0.294118 0.494118 0.815686 0.294118 
0.494118 0.815686 0.294118 0.494118 0.815686 0.294118 
0.494118 0.815686 0.294118 0.494118 0.815686 0.294118 
0.494118 0.815686 0.294118 0.494118 0.815686 0.294118 
0.494118 0.815686 0.294118 0.494118 0.815686 0.294118 
0.494118 0.815686 0.294118 0.494118 0.815686 0.294118 
0.494118 0.815686 0.294118 0.494118 0.815686 0.294118 
0.494118 0.815686 0.294118 0.494118 0.815686 0.294118 
0.494118 0.815686 0.294118 0.494118 0.815686 0.294118 
0.494118 0.815686 0.294118 0.494118 0.815686 0.294118 
0.494118 0.815686 0.294118 0.494118 0.815686 0.294118 
0.494118 0.815686 0.294118 0.494118 0.815686 0.294118 
0.494118 0.815686 0.294118 0.494118 0.815686 0.294118 
0.494118 0.815686 0.294118 0.494118 0.815686 0.294118 
0.494118 0.815686 0.294118 0.494118 0.815686 0.294118 
0.494118 0.815686 0.294118 0.494118 0.815686 0.294118 
0.494118 0.815686 0.294118 0.494118 0.815686 0.294118 
0.494118 0.815686 0.294118 0.494118 0.815686 0.294118 
0.494118 0.815686 0.294118 0.494118 0.815686 0.294118 
0.494118 0.815686 0.294118 0.494118 0.815686 0.294118 
0.494118 0.815686 0.294118 0.494118 0.815686 0.294118 
0.494118 0.815686 0.294118 0.494118 0.815686 0.294118 
0.494118 0.815686 0.294118 0.494118 0.815686 0.294118 
0.494118 0.815686 0.294118 0.494118 0.815686 0.294118 
0.494118 0.815686 0.294118 0.494118 0.815686 0.294118 
0.494118 0.815686 0.294118 0.494118 0.815686 0.294118 
0.494118 0.815686 0.294118 0.494118 0.815686 0.294118 
0.494118 0.815686 0.294118 0.494118 0.815686 0.294118 
0.494118 0.815686 0.294118 0.494118 0.815686 0.294118 
0.494118 0.815686 0.294118 0.494118 0.815686 0.294118 
0.494118 0.815686 0.294118 0.494118 0.815686 0.294118 
0.494118 0.815686 0.294118 0.494118 0.815686 0.294118 
0.494118 0.815686 0.294118 0.494118 0.815686 0.294118 
0.494118 0.815686 0.294118 0.494118 0.815686 0.294118 
0.494118 0.815686 0.294118 0.494118 0.815686 0.294118 
0.494118 0.815686 0.294118 0.494118 0.815686 0.294118 
0.494118 0.815686 0.294118 0.494118 0.815686 0.294118 
0.494118 0.815686 0.294118 0.494118 0.815686 0.294118 
0.494118 0.815686 0.294118 0.494118 0.815686 0.294118 
0.494118 0.815686 0.294118 0.494118 0.815686 0.294118 
0.494118 0.815686 0.294118 0.494118 0.815686 0.294118 
0.494118 0.815686 0.294118 0.494118 0.815686 0.294118 
0.494118 0.815686 0.294118 0.494118 0.815686 0.294118 
0.494118 0.815686 0.294118 0.494118 0.815686 0.294118 
0.494118 0.815686 0.294118 0.494118 0.815686 0.294118 
0.494118 0.815686 0.294118 0.494118 0.815686 0.294118 
0.494118 0.815686 0.294118 0.494118 0.815686 0.294118 
0.494118 0.815686 0.294118 0.494118 0.815686 0.294118 
0.494118 0.815686 0.294118 0.494118 0.815686 0.294118 
0.494118 0.815686 0.294118 0.494118 0.815686 0.294118 
0.494118 0.815686 0.294118 0.494118 0.815686 0.294118 
0.494118 0.815686 0.294118 0.494118 0.815686 0.294118 
0.494118 0.815686 0.294118 0.494118 0.815686 0.294118 
0.494118 0.815686 0.294118 0.494118 0.815686 0.294118 
0.494118 0.815686 0.294118 0.494118 0.815686 0.294118 
0.494118 0.815686 0.294118 0.494118 0.815686 0.294118 
0.494118 0.815686 0.294118 0.494118 0.815686 0.294118 
0.494118 0.815686 0.294118 0.494118 0.815686 0.294118 
0.494118 0.815686 0.294118 0.494118 0.815686 0.294118 
0.494118 0.815686 0.294118 0.494118 0.815686 0.294118 
0.494118 0.815686 0.294118 0.494118 0.815686 0.294118 
0.494118 0.815686 0.294118 0.494118 0.815686 0.294118 
0.494118 0.815686 0.294118 0.494118 0.815686 0.294118 
0.494118 0.815686 0.294118 0.494118 0.815686 0.294118 
0.494118 0.815686 0.294118 0.494118 0.815686 0.294118 
0.494118 0.815686 0.294118 0.494118 0.815686 0.294118 
0.494118 0.815686 0.294118 0.494118 0.815686 0.294118 
0.494118 0.815686 0.294118 0.494118 0.815686 0.294118 
0.494118 0.815686 0.294118 0.494118 0.815686 0.294118 
0.494118 0.815686 0.294118 0.494118 0.815686 0.294118 
0.494118 0.815686 0.294118 0.494118 0.815686 0.294118 
0.494118 0.815686 0.294118 0.494118 0.815686 0.294118 
0.494118 0.815686 0.294118 0.494118 0.815686 0.294118 
0.494118 0.815686 0.294118 0.494118 0.815686 0.294118 
0.494118 0.815686 0.294118 0.494118 0.815686 0.294118 
0.494118 0.815686 0.294118 0.494118 0.815686 0.294118 
0.494118 0.815686 0.294118 0.494118 0.815686 0.294118 
0.494118 0.815686 0.294118 0.494118 0.815686 0.294118 
0.494118 0.815686 0.294118 0.494118 0.815686 0.294118 
0.494118 0.815686 0.294118 0.494118 0.815686 0.294118 
0.494118 0.815686 0.294118 0.494118 0.815686 0.294118 
0.494118 0.815686 0.294118 0.494118 0.815686 0.294118 
0.494118 0.815686 0.294118 0.494118 0.815686 0.294118 
0.494118 0.815686 0.294118 0.494118 0.815686 0.294118 
0.494118 0.815686 0.294118 0.494118 0.815686 0.294118 
0.494118 0.815686 0.294118 0.494118 0.815686 0.294118 
0.494118 0.815686 0.294118 0.494118 0.815686 0.294118 
0.494118 0.815686 0.294118 0.494118 0.815686 0.294118 
0.494118 0.815686 0.294118 0.494118 0.815686 0.294118 
0.494118 0.815686 0.294118 0.494118 0.815686 0.294118 
0.494118 0.815686 0.294118 0.494118 0.815686 0.294118 
0.494118 0.815686 0.294118 0.494118 0.815686 0.294118 
0.494118 0.815686 0.294118 0.494118 0.815686 0.294118 
0.494118 0.815686 0.294118 0.494118 0.815686 0.294118 
0.494118 0.815686 0.294118 0.494118 0.815686 0.294118 
0.494118 0.815686 0.294118 0.494118 0.815686 0.294118 
0.494118 0.815686 0.294118 0.494118 0.815686 0.294118 
0.494118 0.815686 0.294118 0.494118 0.815686 0.294118 
0.494118 0.815686 0.294118 0.494118 0.815686 0.294118 
0.494118 0.815686 0.294118 0.494118 0.815686 0.294118 
0.494118 0.815686 0.294118 0.494118 0.815686 0.294118 
0.494118 0.815686 0.294118 0.494118 0.815686 0.294118 
0.494118 0.815686 0.294118 0.494118 0.815686 0.294118 
0.494118 0.815686 0.294118 0.494118 0.815686 0.294118 
0.494118 0.815686 0.294118 0.494118 0.815686 0.294118 
0.494118 0.815686 0.294118 0.494118 0.815686 0.294118 
0.494118 0.815686 0.294118 0.494118 0.815686 0.294118 
0.494118 0.815686 0.294118 0.494118 0.815686 0.294118 
0.494118 0.815686 0.294118 0.494118 0.815686 0.294118 
0.494118 0.815686 0.294118 0.494118 0.815686 0.294118 
0.494118 0.815686 0.294118 0.494118 0.815686 0.294118 
0.494118 0.815686 0.294118 0.494118 0.815686 0.294118 
0.494118 0.815686 0.294118 0.494118 0.815686 0.294118 
0.494118 0.815686 0.294118 0.494118 0.815686 0.294118 
0.494118 0.815686 0.294118 0.494118 0.815686 0.294118 
0.494118 0.815686 0.294118 0.494118 0.815686 0.294118 
0.494118 0.815686 0.294118 0.494118 0.815686 0.294118 
0.494118 0.815686 0.294118 0.494118 0.815686 0.294118 
0.494118 0.815686 0.294118 0.494118 0.815686 0.294118 
0.494118 0.815686 0.294118 0.494118 0.815686 0.294118 
0.494118 0.815686 0.294118 0.494118 0.815686 0.294118 
0.494118 0.815686 0.294118 0.494118 0.815686 0.294118 
0.494118 0.815686 0.294118 0.494118 0.815686 0.294118 
0.494118 0.815686 0.294118 0.494118 0.815686 0.294118 
0.494118 0.815686 0.294118 0.494118 0.815686 0.294118 
0.494118 0.815686 0.294118 0.494118 0.815686 0.294118 
0.494118 0.815686 0.294118 0.494118 0.815686 0.294118 
0.494118 0.815686 0.294118 0.494118 0.815686 0.294118 
0.494118 0.815686 0.294118 0.494118 0.815686 0.294118 
0.494118 0.815686 0.294118 0.494118 0.815686 0.294118 
0.494118 0.815686 0.294118 0.494118 0.815686 0.294118 
0.494118 0.815686 0.294118 0.494118 0.815686 0.294118 
0.494118 0.815686 0.294118 0.494118 0.815686 0.294118 
0.494118 0.815686 0.294118 0.494118 0.815686 0.294118 
0.494118 0.815686 0.294118 0.494118 0.815686 0.294118 
0.494118 0.815686 0.294118 0.494118 0.815686 0.294118 
0.494118 0.815686 0.294118 0.494118 0.815686 0.294118 
0.494118 0.815686 0.294118 0.494118 0.815686 0.294118 
0.494118 0.815686 0.294118 0.494118 0.815686 0.294118 
0.494118 0.815686 0.294118 0.494118 0.815686 0.294118 
0.494118 0.815686 0.294118 0.494118 0.815686 0.294118 
0.494118 0.815686 0.294118 0.494118 0.815686 0.294118 
0.494118 0.815686 0.294118 0.494118 0.815686 0.294118 
0.494118 0.815686 0.294118 0.494118 0.815686 0.294118 
0.494118 0.815686 0.294118 0.494118 0.815686 0.294118 
0.494118 0.815686 0.294118 0.494118 0.815686 0.294118 
0.494118 0.815686 0.294118 0.494118 0.815686 0.294118 
0.494118 0.815686 0.294118 0.494118 0.815686 0.294118 
0.494118 0.815686 0.294118 0.494118 0.815686 0.294118 
0.494118 0.815686 0.294118 0.494118 0.815686 0.294118 
0.494118 0.815686 0.294118 0.494118 0.815686 0.294118 
0.494118 0.815686 0.294118 0.494118 0.815686 0.294118 
0.494118 0.815686 0.294118 0.494118 0.815686 0.294118 
0.494118 0.815686 0.294118 0.494118 0.815686 0.294118 
0.494118 0.815686 0.294118 0.494118 0.815686 0.294118 
0.494118 0.815686 0.294118 0.494118 0.815686 0.294118 
0.494118 0.815686 0.294118 0.494118 0.815686 0.294118 
0.494118 0.815686 0.294118 0.494118 0.815686 0.294118 
0.494118 0.815686 0.294118 0.494118 0.815686 0.294118 
0.494118 0.815686 0.294118 0.494118 0.815686 0.294118 
0.494118 0.815686 0.294118 0.494118 0.815686 0.294118 
0.494118 0.815686 0.294118 0.494118 0.815686 0.294118 
0.494118 0.815686 0.294118 0.494118 0.815686 0.294118 
0.494118 0.815686 0.294118 0.494118 0.815686 0.294118 
0.494118 0.815686 0.294118 0.494118 0.815686 0.294118 
0.494118 0.815686 0.294118 0.494118 0.815686 0.294118 
0.494118 0.815686 0.294118 0.494118 0.815686 0.294118 
0.494118 0.815686 0.294118 0.494118 0.815686 0.294118 
0.494118 0.815686 0.294118 0.494118 0.815686 0.294118 
0.494118 0.815686 0.294118 0.494118 0.815686 0.294118 
0.494118 0.815686 0.294118 0.494118 0.815686 0.294118 
0.494118 0.815686 0.294118 0.494118 0.815686 0.294118 
0.494118 0.815686 0.294118 0.494118 0.815686 0.294118 
0.494118 0.815686 0.294118 0.494118 0.815686 0.294118 
0.494118 0.815686 0.294118 0.494118 0.815686 0.294118 
0.494118 0.815686 0.294118 0.494118 0.815686 0.294118 
0.494118 0.815686 0.294118 0.494118 0.815686 0.294118 
0.494118 0.815686 0.294118 0.494118 0.815686 0.294118 
0.494118 0.815686 0.294118 0.494118 0.815686 0.294118 
0.494118 0.815686 0.294118 0.494118 0.815686 0.294118 
0.494118 0.815686 0.294118 0.494118 0.815686 0.294118 
0.494118 0.815686 0.294118 0.494118 0.815686 0.294118 
0.494118 0.815686 0.294118 0.494118 0.815686 0.294118 
0.494118 0.815686 0.294118 0.494118 0.815686 0.294118 
0.494118 0.815686 0.294118 0.494118 0.815686 0.294118 
0.494118 0.815686 0.294118 0.494118 0.815686 0.294118 
0.494118 0.815686 0.294118 0.494118 0.815686 0.294118 
0.494118 0.815686 0.294118 0.494118 0.815686 0.294118 
0.494118 0.815686 0.294118 0.494118 0.815686 0.294118 
0.494118 0.815686 0.294118 0.494118 0.815686 0.294118 
0.494118 0.815686 0.294118 0.494118 0.815686 0.294118 
0.494118 0.815686 0.294118 0.494118 0.815686 0.294118 
0.494118 0.815686 0.294118 0.494118 0.815686 0.294118 
0.494118 0.815686 0.294118 0.494118 0.815686 0.294118 
0.494118 0.815686 0.294118 0.494118 0.815686 0.294118 
0.494118 0.815686 0.294118 0.494118 0.815686 0.294118 
0.494118 0.815686 0.294118 0.494118 0.815686 0.294118 
0.494118 0.815686 0.294118 0.494118 0.815686 0.294118 
0.494118 0.815686 0.294118 0.494118 0.815686 0.294118 
0.494118 0.815686 0.294118 0.494118 0.815686 0.294118 
0.494118 0.815686 0.294118 0.494118 0.815686 0.294118 
0.494118 0.815686 0.294118 0.494118 0.815686 0.294118 
0.494118 0.815686 0.294118 0.494118 0.815686 0.294118 
0.494118 0.815686 0.294118 0.494118 0.815686 0.294118 
0.494118 0.815686 0.294118 0.494118 0.815686 0.294118 
0.494118 0.815686 0.294118 0.494118 0.815686 0.294118 