# vtk DataFile Version 4.2
vtk output
ASCII
DATASET POLYDATA
POINTS 557 float
276.988 236.086 200.511 277.918 235.627 200.696 279.51 236.564 200.598 
276.598 238.602 199.91 275.784 239.578 199.877 278.817 238.924 199.986 
279.516 239.605 200.106 274.003 241.493 200.331 275.541 241.283 199.815 
273.236 242.636 200.791 273.273 244.138 200.893 276.048 243.911 199.805 
273.87 245.704 200.826 278.383 244.488 199.816 275.137 245.841 200.272 
274.846 247.086 200.675 274.078 235.694 201.577 281.224 236.008 201.806 
280.878 239.003 200.795 282.184 239.255 201.697 272.746 240.873 201.176 
281.593 240.641 201.007 272.67 241.89 201.225 273.611 246.333 201.232 
279.998 246.897 200.379 281.465 246.717 200.839 279.502 249.342 200.865 
276.888 232.871 203.091 279.866 233.841 202.284 274.887 234.198 202.273 
280.588 234.059 202.442 272.685 236.859 202.036 282.495 237.357 202.579 
271.858 238.695 202.34 271.731 240.351 202.296 271.224 241.509 203.098 
282.93 244.94 201.623 282.779 247.991 201.576 274.158 248.905 202.18 
275.732 250.691 202.611 281.371 252.396 202.302 282.751 252.05 202.357 
280.192 252.728 202.573 278.324 232.559 203.345 281.145 233.936 203.207 
271.966 236.821 203.06 284.827 249.905 202.92 283.779 251.193 202.487 
277.663 252.873 203.742 279.67 253.2 203.084 281.084 254.199 203.595 
284.703 253.935 203.527 278.997 231.812 204.554 276.448 231.879 204.55 
280.091 232.409 204.344 273.382 233.922 204.153 272.38 247.476 203.658 
285.891 249.611 203.714 285.341 255.424 204.219 284.997 240.412 205.219 
286.031 245.626 204.652 287.179 257.342 205.249 285.749 258.755 206.142 
275.307 231.676 206.006 271.801 234.997 205.617 289.777 254.264 206.484 
288.171 260.07 206.759 277.592 230.637 207.518 278.656 230.834 207.217 
291.491 257.195 207.511 291.245 258.724 207.415 287.245 260.824 207.487 
290.233 260.548 207.338 290.478 261.693 208.042 282.898 233.921 207.659 
289.236 249.629 207.697 287.262 261.473 208.095 288.616 262.539 208.692 
282.45 232.934 209.087 292.859 260.154 209 285.366 261.018 209.374 
292.729 261.045 209.111 292.424 262.939 209.731 289.93 263.76 209.684 
291.176 263.904 209.913 279.73 230.615 209.431 281.143 231.464 209.826 
283.853 234.899 209.363 293.872 257.585 210.181 288.471 263.73 210.322 
271.23 234.072 210.232 268.739 240.795 211.718 294.548 261.731 211.187 
293.772 262.83 210.767 292.044 264.684 210.994 293.547 263.874 211.195 
292.096 265.336 211.664 282.344 232.276 211.81 289.47 265.625 212.494 
283.173 233.217 212.307 290.405 266.726 213.654 293.713 266.727 213.717 
287.446 264.678 213.505 291.857 267.482 214.454 291.152 247.478 214.907 
290.884 267.785 215.576 296.036 266.709 215.383 279.004 229.564 215.483 
282.447 232.1 215.982 267.201 240.247 216.752 272.669 250.108 216.403 
294.208 251.697 215.888 297.635 258.057 216.152 285.427 263.461 216.326 
297.208 264.094 215.301 297.183 266.571 216.561 292.703 268.587 216.988 
279.073 229.627 217.047 274.568 230.11 216.601 272.063 231.761 217.173 
267.554 238.289 216.98 267.093 242.532 217.583 268.408 245.599 217.152 
289.312 267.529 217.253 295.516 268.152 216.925 296.46 267.697 217.357 
294.868 268.575 217.604 280.835 230.642 217.552 266.792 242.093 218.668 
267.671 244.635 217.853 297.45 256.047 217.559 298.564 259.161 217.806 
286.366 265.013 218.013 287.918 266.799 218.398 298.079 266.054 218.075 
266.603 241.809 219.349 266.541 241.429 219.657 289.359 243.389 218.925 
267.416 244.354 219.205 281.605 258.91 219.145 298.897 263.491 219.3 
298.636 265.035 219.427 297.729 266.768 218.632 296.487 267.978 218.685 
279.522 230.081 219.36 270.021 233.816 219.943 267.678 237.369 220.092 
267.355 238.011 219.523 266.62 240.33 219.845 266.593 241.798 220.425 
269.019 246.549 220.149 298.774 259.456 219.675 290.299 268.337 219.537 
296.714 267.684 220.246 292.874 268.805 219.799 294.91 268.668 219.465 
295.576 268.412 219.637 276.146 229.766 219.917 276.5 229.771 220.212 
277.572 229.658 219.998 270.743 233.524 220.998 286.588 239.251 220.694 
266.617 240.832 220.576 294.881 251.425 220.162 275.313 251.918 220.329 
298.409 258.061 220.101 298.574 258.809 220.249 298.776 260.44 220.409 
298.305 265.393 220.698 287.323 266.356 220.228 297.639 266.729 220.694 
295.608 268.241 220.35 296.71 267.484 220.949 294.056 268.675 220.139 
275.142 230.653 220.865 279.921 230.785 220.945 272.457 232.516 221.444 
268.004 237.719 221.387 266.86 241.5 221.238 289.093 243.616 221.34 
267.106 243.2 221.375 289.934 244.85 221.255 267.573 244.317 221.244 
269.119 246.32 221.3 270.633 247.604 221.261 295.281 252.372 221.32 
277.283 253.359 221.216 282.35 259.117 221.252 284.055 261.564 220.936 
286.015 264.43 221.149 298.199 264.778 221.299 297.679 266.26 221.332 
297.397 266.806 221.189 289.861 267.852 221.209 295.943 267.464 221.535 
291.458 268.282 221.098 292.24 268.348 221.065 279.564 231.347 221.82 
280.661 231.946 221.783 270.858 233.961 221.715 272.81 233.232 222.224 
282.261 233.558 221.869 269.005 236.179 221.666 284.673 237.299 221.941 
268.342 238.407 222.043 285.518 238.095 221.478 285.569 238.506 221.757 
287.072 240.786 221.667 287.27 241.331 221.902 267.615 242.947 222.005 
288.53 242.914 221.562 288.656 243.438 221.856 268.033 244.667 221.642 
289.519 244.62 221.738 269.394 246.449 221.514 269.532 246.322 221.767 
270.881 247.653 221.504 273.167 249.524 221.531 276.795 252.51 221.65 
295.472 252.878 221.568 277.912 253.636 221.655 278.224 254.179 221.442 
279.166 254.762 221.878 297.102 255.792 221.621 298.106 258.319 221.297 
283.282 259.717 221.896 298.247 260.389 221.548 283.989 260.831 221.775 
298.132 262.291 221.773 285.621 263.527 221.689 286.791 264.9 221.792 
297.612 265.652 221.82 287.678 266.136 221.781 297.434 266.136 221.823 
297.064 266.231 222.055 287.822 266.498 221.547 288.159 266.758 221.651 
296.875 266.681 221.864 290.405 267.477 221.904 291.203 267.505 222.023 
294.826 267.201 222.105 296.337 266.989 221.848 277.342 233.55 223.141 
274.531 234.705 223.228 280.91 234.207 222.865 283.498 236.828 222.612 
280.963 237.987 223.673 283.83 239.875 223.327 268.799 242.634 222.738 
287.414 241.973 222.153 287.493 242.863 222.533 271.193 244.172 223.3 
288.399 243.789 222.309 288.556 244.801 222.651 289.181 244.715 222.155 
271.014 246.876 222.223 272.035 246.954 222.664 286.934 246.941 223.705 
279.043 251.078 223.427 293.54 251.027 222.236 279.19 253.176 222.786 
281.155 254.117 223.257 295.383 253.844 222.279 294.63 254.83 223.06 
296.223 254.925 222.102 293.802 255.862 223.506 296.852 256.557 222.201 
287.059 259.047 223.719 289.988 258.986 223.912 285.412 261.185 222.714 
290.928 262.888 223.678 287.358 264.048 222.655 288.239 264.892 222.725 
293.658 264.562 223.378 296.789 264.242 222.729 296.055 265.069 222.872 
288.066 266.447 221.877 288.472 266.386 222.14 293.442 266.176 222.872 
296.714 265.635 222.456 289.752 266.937 222.184 280.157 231.919 232.999 
280.645 232.138 233.057 272.16 234.286 232.635 272.416 233.311 233.178 
280.972 232.593 232.94 281.181 233.281 232.717 272.761 235.769 231.851 
278.331 235.264 231.498 272.551 237.46 231.535 282.023 237.014 231.811 
268.554 238.609 232.684 269.285 239.694 232.102 268.185 241.378 232.61 
268.052 243.815 232.996 268.084 244.285 233.109 287.884 244.984 231.999 
289.277 244.42 233.113 289.404 244.964 232.928 268.861 245.374 233.15 
272.643 247.695 232.485 291.785 248.976 232.722 288.99 249.985 231.339 
291.848 249.992 232.301 282.979 250.986 231.085 293.461 250.935 232.92 
281.917 252.932 231.368 295.234 252.936 233.254 281.885 253.899 231.562 
293.877 253.961 231.971 296.039 254.183 233.182 280.794 254.755 232.209 
280.747 255.661 232.677 296.314 255.274 232.8 280.863 256.424 233.096 
282.866 256.901 232.142 292.91 256.922 231.304 281.841 257.579 233.123 
296.376 257.658 232.282 297.245 256.997 233.082 296.991 259.318 232.424 
288.927 261.934 231.446 285.62 262.729 233.086 286.293 263.014 232.706 
286.269 264.132 233.404 293.593 263.656 231.574 297.438 263.621 232.866 
289.698 265.453 232.174 288.036 266.313 233.299 289.547 266.748 232.946 
292.301 266.828 232.609 296.428 266.236 233.048 296.996 265.934 233.208 
290.136 267.24 233.217 279.546 230.986 233.592 273.146 231.795 234.047 
281.082 232.316 233.187 281.314 232.262 233.456 270.721 234.982 232.83 
268.862 235.688 234.008 267.303 239.687 233.612 266.954 240.075 233.852 
266.868 240.571 233.833 267.147 240.976 233.443 267.085 242.924 233.822 
268.04 244.517 233.363 290.175 245.126 233.896 290.54 245.935 233.484 
291.611 247.333 233.81 269.855 246.883 233.893 273.372 249.705 233.688 
294.645 251.838 233.506 295.529 253.105 233.46 295.829 253.294 233.826 
296.903 254.884 233.81 297.143 255.233 233.969 297.068 255.897 233.323 
281.135 257.086 233.41 281.625 258.002 233.731 298.077 258.003 233.784 
284.999 262.615 233.926 298.393 262.819 233.872 286.6 264.947 233.781 
298.232 264.592 234.004 288.572 267.001 233.843 294.117 267.292 232.964 
295.459 267.135 233.24 290.992 268.165 234.217 292.67 267.91 233.528 
296.831 267.183 234.078 297.828 266.547 234.407 276.985 230.025 234.675 
278.147 230.034 234.539 278.395 229.909 234.837 272.502 231.732 234.894 
266.951 239.673 234.106 266.82 239.595 234.523 266.615 241.25 234.294 
266.596 242.26 234.622 266.939 243.02 234.168 266.993 243.326 234.432 
269.128 246.542 234.911 294.667 251.498 234.021 297.624 256.148 234.501 
298.574 264.119 234.576 295.529 268.007 234.207 294.245 268.379 234.505 
295.873 268.202 234.755 277.858 229.638 235.55 274.263 230.521 235.312 
266.56 240.643 234.75 268.607 246.009 235.312 272.735 249.921 235.621 
294.847 251.472 235.054 296.492 253.868 234.933 298.173 257.259 235.355 
298.503 258.509 234.879 298.839 262.685 235.153 298.559 265.281 235.298 
298.095 266.619 235.357 293.245 268.72 235.393 294.068 268.635 235.294 
296.266 268.203 235.234 280.168 230.348 236.348 271.54 232.093 236.305 
269.148 234.608 235.862 266.568 242.304 235.573 278.811 255.803 236.508 
285.144 263.425 235.952 298.812 263.923 235.91 285.989 264.635 235.869 
[...]
POINT_DATA 557
COLOR_SCALARS scalars 3
1 0.333333 0.278431 1 0.333333 0.278431 1 0.333333 0.278431 
1 0.333333 0.278431 1 0.333333 0.278431 
1 0.333333 0.278431 1 0.333333 0.278431 
1 0.333333 0.278431 1 0.333333 0.278431 
1 0.333333 0.278431 1 0.333333 0.278431 
1 0.333333 0.278431 1 0.333333 0.278431 
1 0.333333 0.278431 1 0.333333 0.278431 
1 0.333333 0.278431 1 0.333333 0.278431 
1 0.333333 0.278431 1 0.333333 0.278431 
1 0.333333 0.278431 1 0.333333 0.278431 
1 0.333333 0.278431 1 0.333333 0.278431 
1 0.333333 0.278431 1 0.333333 0.278431 
1 0.333333 0.278431 1 0.333333 0.278431 
1 0.333333 0.278431 1 0.333333 0.278431 
1 0.333333 0.278431 1 0.333333 0.278431 
1 0.333333 0.278431 1 0.333333 0.278431 
1 0.333333 0.278431 1 0.333333 0.278431 
1 0.333333 0.278431 1 0.333333 0.278431 
1 0.333333 0.278431 1 0.333333 0.278431 
1 0.333333 0.278431 1 0.333333 0.278431 
1 0.333333 0.278431 1 0.333333 0.278431 
1 0.333333 0.278431 1 0.333333 0.278431 
1 0.333333 0.278431 1 0.333333 0.278431 
1 0.333333 0.278431 1 0.333333 0.278431 
1 0.333333 0.278431 1 0.333333 0.278431 
1 0.333333 0.278431 1 0.333333 0.278431 
1 0.333333 0.278431 1 0.333333 0.278431 
1 0.333333 0.278431 1 0.333333 0.278431 
1 0.333333 0.278431 1 0.333333 0.278431 
1 0.333333 0.278431 1 0.333333 0.278431 
1 0.333333 0.278431 1 0.333333 0.278431 
1 0.333333 0.278431 1 0.333333 0.278431 
1 0.333333 0.278431 1 0.333333 0.278431 
1 0.333333 0.278431 1 0.333333 0.278431 
1 0.333333 0.278431 1 0.333333 0.278431 
1 0.333333 0.278431 1 0.333333 0.278431 
1 0.333333 0.278431 1 0.333333 0.278431 
1 0.333333 0.278431 1 0.333333 0.278431 
1 0.333333 0.278431 1 0.333333 0.278431 
1 0.333333 0.278431 1 0.333333 0.278431 
1 0.333333 0.278431 1 0.333333 0.278431 
1 0.333333 0.278431 1 0.333333 0.278431 
1 0.333333 0.278431 1 0.333333 0.278431 
1 0.333333 0.278431 1 0.333333 0.278431 
1 0.333333 0.278431 1 0.333333 0.278431 
1 0.333333 0.278431 1 0.333333 0.278431 
1 0.333333 0.278431 1 0.333333 0.278431 
1 0.333333 0.278431 1 0.333333 0.278431 
1 0.333333 0.278431 1 0.333333 0.278431 
1 0.333333 0.278431 1 0.333333 0.278431 
1 0.333333 0.278431 1 0.333333 0.278431 
1 0.333333 0.278431 1 0.333333 0.278431 
1 0.333333 0.278431 1 0.333333 0.278431 
1 0.333333 0.278431 1 0.333333 0.278431 
1 0.333333 0.278431 1 0.333333 0.278431 
1 0.333333 0.278431 1 0.333333 0.278431 
1 0.333333 0.278431 1 0.333333 0.278431 
1 0.333333 0.278431 1 0.333333 0.278431 
1 0.333333 0.278431 1 0.333333 0.278431 
1 0.333333 0.278431 1 0.333333 0.278431 
1 0.333333 0.278431 1 0.333333 0.278431 
1 0.333333 0.278431 1 0.333333 0.278431 
1 0.333333 0.278431 1 0.333333 0.278431 
1 0.333333 0.278431 1 0.333333 0.278431 
1 0.333333 0.278431 1 0.333333 0.278431 
1 0.333333 0.278431 1 0.333333 0.278431 
1 0.333333 0.278431 1 0.333333 0.278431 
1 0.333333 0.278431 1 0.333333 0.278431 
1 0.333333 0.278431 1 0.333333 0.278431 
1 0.333333 0.278431 1 0.333333 0.278431 
1 0.333333 0.278431 1 0.333333 0.278431 
1 0.333333 0.278431 1 0.333333 0.278431 
1 0.333333 0.278431 1 0.333333 0.278431 
1 0.333333 0.278431 1 0.333333 0.278431 
1 0.333333 0.278431 1 0.333333 0.278431 
1 0.333333 0.278431 1 0.333333 0.278431 
1 0.333333 0.278431 1 0.333333 0.278431 
1 0.333333 0.278431 1 0.333333 0.278431 
1 0.333333 0.278431 1 0.333333 0.278431 
1 0.333333 0.278431 1 0.333333 0.278431 
1 0.333333 0.278431 1 0.333333 0.278431 
1 0.333333 0.278431 1 0.333333 0.278431 
1 0.333333 0.278431 1 0.333333 0.278431 
1 0.333333 0.278431 1 0.333333 0.278431 
1 0.333333 0.278431 1 0.333333 0.278431 
1 0.333333 0.278431 1 0.333333 0.278431 
1 0.333333 0.278431 1 0.333333 0.278431 
1 0.333333 0.278431 1 0.333333 0.278431 
1 0.333333 0.278431 1 0.333333 0.278431 
1 0.333333 0.278431 1 0.333333 0.278431 
1 0.333333 0.278431 1 0.333333 0.278431 
1 0.333333 0.278431 1 0.333333 0.278431 
1 0.333333 0.278431 1 0.333333 0.278431 
1 0.333333 0.278431 1 0.333333 0.278431 
1 0.333333 0.278431 1 0.333333 0.278431 
1 0.333333 0.278431 1 0.333333 0.278431 
1 0.333333 0.278431 1 0.333333 0.278431 
1 0.333333 0.278431 1 0.333333 0.278431 
1 0.333333 0.278431 1 0.333333 0.278431 
1 0.333333 0.278431 1 0.333333 0.278431 
1 0.333333 0.278431 1 0.333333 0.278431 
1 0.333333 0.278431 1 0.333333 0.278431 
1 0.333333 0.278431 1 0.333333 0.278431 
1 0.333333 0.278431 1 0.333333 0.278431 
1 0.333333 0.278431 1 0.333333 0.278431 
1 0.333333 0.278431 1 0.333333 0.278431 
1 0.333333 0.278431 1 0.333333 0.278431 
1 0.333333 0.278431 1 0.333333 0.278431 
1 0.333333 0.278431 1 0.333333 0.278431 
1 0.333333 0.278431 1 0.333333 0.278431 
1 0.333333 0.278431 1 0.333333 0.278431 
1 0.333333 0.278431 1 0.333333 0.278431 
1 0.333333 0.278431 1 0.333333 0.278431 
1 0.333333 0.278431 1 0.333333 0.278431 
1 0.333333 0.278431 1 0.333333 0.278431 
1 0.333333 0.278431 1 0.333333 0.278431 
1 0.333333 0.278431 1 0.333333 0.278431 
1 0.333333 0.278431 1 0.333333 0.278431 
1 0.333333 0.278431 1 0.333333 0.278431 
1 0.333333 0.278431 1 0.333333 0.278431 
1 0.333333 0.278431 1 0.333333 0.278431 
1 0.333333 0.278431 1 0.333333 0.278431 
1 0.333333 0.278431 1 0.333333 0.278431 
1 0.333333 0.278431 1 0.333333 0.278431 
1 0.333333 0.278431 1 0.333333 0.278431 
1 0.333333 0.278431 1 0.333333 0.278431 
1 0.333333 0.278431 1 0.333333 0.278431 
1 0.333333 0.278431 1 0.333333 0.278431 
1 0.333333 0.278431 1 0.333333 0.278431 
1 0.333333 0.278431 1 0.333333 0.278431 
1 0.333333 0.278431 1 0.333333 0.278431 
1 0.333333 0.278431 1 0.333333 0.278431 
1 0.333333 0.278431 1 0.333333 0.278431 
1 0.333333 0.278431 1 0.333333 0.278431 
1 0.333333 0.278431 1 0.333333 0.278431 
1 0.333333 0.278431 1 0.333333 0.278431 
1 0.333333 0.278431 1 0.333333 0.278431 
1 0.333333 0.278431 1 0.333333 0.278431 
1 0.333333 0.278431 1 0.333333 0.278431 
1 0.333333 0.278431 1 0.333333 0.278431 
1 0.333333 0.278431 1 0.333333 0.278431 
1 0.333333 0.278431 1 0.333333 0.278431 
1 0.333333 0.278431 1 0.333333 0.278431 
1 0.333333 0.278431 1 0.333333 0.278431 
1 0.333333 0.278431 1 0.333333 0.278431 
1 0.333333 0.278431 1 0.333333 0.278431 
1 0.333333 0.278431 1 0.333333 0.278431 
1 0.333333 0.278431 1 0.333333 0.278431 
1 0.333333 0.278431 1 0.333333 0.278431 
1 0.333333 0.278431 1 0.333333 0.278431 
1 0.333333 0.278431 1 0.333333 0.278431 
1 0.333333 0.278431 1 0.333333 0.278431 
1 0.333333 0.278431 1 0.333333 0.278431 
1 0.333333 0.278431 1 0.333333 0.278431 
1 0.333333 0.278431 1 0.333333 0.278431 
1 0.333333 0.278431 1 0.333333 0.278431 
1 0.333333 0.278431 1 0.333333 0.278431 
1 0.333333 0.278431 1 0.333333 0.278431 
1 0.333333 0.278431 1 0.333333 0.278431 
1 0.333333 0.278431 1 0.333333 0.278431 
1 0.333333 0.278431 1 0.333333 0.278431 
1 0.333333 0.278431 1 0.333333 0.278431 
1 0.333333 0.278431 1 0.333333 0.278431 
1 0.333333 0.278431 1 0.333333 0.278431 
1 0.333333 0.278431 1 0.333333 0.278431 
1 0.333333 0.278431 1 0.333333 0.278431 
1 0.333333 0.278431 1 0.333333 0.278431 
1 0.333333 0.278431 1 0.333333 0.278431 
1 0.333333 0.278431 1 0.333333 0.278431 
1 0.333333 0.278431 1 0.333333 0.278431 
1 0.333333 0.278431 1 0.333333 0.278431 
1 0.333333 0.278431 1 0.333333 0.278431 
1 0.333333 0.278431 1 0.333333 0.278431 
1 0.333333 0.278431 1 0.333333 0.278431 
1 0.333333 0.278431 1 0.333333 0.278431 
1 0.333333 0.278431 1 0.333333 0.278431 
1 0.333333 0.278431 1 0.333333 0.278431 
1 0.333333 0.278431 1 0.333333 0.278431 
1 0.333333 0.278431 1 0.333333 0.278431 
1 0.333333 0.278431 1 0.333333 0.278431 
1 0.333333 0.278431 1 0.333333 0.278431 
1 0.333333 0.278431 1 0.333333 0.278431 
1 0.333333 0.278431 1 0.333333 0.278431 
1 0.333333 0.278431 1 0.333333 0.278431 
1 0.333333 0.278431 1 0.333333 0.278431 
1 0.333333 0.278431 1 0.333333 0.278431 
1 0.333333 0.278431 1 0.333333 0.278431 
1 0.333333 0.278431 1 0.333333 0.278431 
1 0.333333 0.278431 1 0.333333 0.278431 
1 0.333333 0.278431 1 0.333333 0.278431 
1 0.333333 0.278431 1 0.333333 0.278431 
1 0.333333 0.278431 1 0.333333 0.278431 
1 0.333333 0.278431 1 0.333333 0.278431 
1 0.333333 0.278431 1 0.333333 0.278431 
1 0.333333 0.278431 1 0.333333 0.278431 
1 0.333333 0.278431 1 0.333333 0.278431 
1 0.333333 0.278431 1 0.333333 0.278431 
1 0.333333 0.278431 1 0.333333 0.278431 
1 0.333333 0.278431 1 0.333333 0.278431 
1 0.333333 0.278431 1 0.333333 0.278431 
1 0.333333 0.278431 1 0.333333 0.278431 
1 0.333333 0.278431 1 0.333333 0.278431 
1 0.333333 0.278431 1 0.333333 0.278431 
1 0.333333 0.278431 1 0.333333 0.278431 
1 0.333333 0.278431 1 0.333333 0.278431 
1 0.333333 0.278431 1 0.333333 0.278431 
1 0.333333 0.278431 1 0.333333 0.278431 
1 0.333333 0.278431 1 0.333333 0.278431 
1 0.333333 0.278431 1 0.333333 0.278431 
1 0.333333 0.278431 1 0.333333 0.278431 
1 0.333333 0.278431 1 0.333333 0.278431 
1 0.333333 0.278431 1 0.333333 0.278431 
1 0.333333 0.278431 1 0.333333 0.278431 
1 0.333333 0.278431 1 0.333333 0.278431 
1 0.333333 0.278431 1 0.333333 0.278431 
1 0.333333 0.278431 1 0.333333 0.278431 
1 0.333333 0.278431 1 0.333333 0.278431 
1 0.333333 0.278431 1 0.333333 0.278431 
1 0.333333 0.278431 1 0.333333 0.278431 
1 0.333333 0.278431 1 0.333333 0.278431 
1 0.333333 0.278431 1 0.333333 0.278431 
1 0.333333 0.278431 1 0.333333 0.278431 
1 0.333333 0.278431 1 0.333333 0.278431 
1 0.333333 0.278431 1 0.333333 0.278431 
1 0.333333 0.278431 1 0.333333 0.278431 
1 0.333333 0.278431 1 0.333333 0.278431 
1 0.333333 0.278431 1 0.333333 0.278431 
1 0.333333 0.278431 1 0.333333 0.278431 
1 0.333333 0.278431 1 0.333333 0.278431 
1 0.333333 0.278431 1 0.333333 0.278431 
1 0.333333 0.278431 1 0.333333 0.278431 
1 0.333333 0.278431 1 0.333333 0.278431 
1 0.333333 0.278431 1 0.333333 0.278431 
1 0.333333 0.278431 1 0.333333 0.278431 
1 0.333333 0.278431 1 0.333333 0.278431 
1 0.333333 0.278431 1 0.333333 0.278431 
1 0.333333 0.278431 1 0.333333 0.278431 
1 0.333333 0.278431 1 0.333333 0.278431 
1 0.333333 0.278431 1 0.333333 0.278431 
1 0.333333 0.278431 1 0.333333 0.278431 
1 0.333333 0.278431 1 0.333333 0.278431 
1 0.333333 0.278431 1 0.333333 0.278431 
1 0.333333 0.278431 1 0.333333 0.278431 
1 0.333333 0.278431 1 0.333333 0.278431 
1 0.333333 0.278431 1 0.333333 0.278431 
1 0.333333 0.278431 1 0.333333 0.278431 
1 0.333333 0.278431 1 0.333333 0.278431 
1 0.333333 0.278431 1 0.333333 0.278431 
1 0.333333 0.278431 1 0.333333 0.278431 
1 0.333333 0.278431 1 0.333333 0.278431 
1 0.333333 0.278431 1 0.333333 0.278431 
1 0.333333 0.278431 1 0.333333 0.278431 
1 0.333333 0.278431 1 0.333333 0.278431 
1 0.333333 0.278431 1 0.333333 0.278431 
1 0.333333 0.278431 1 0.333333 0.278431 
1 0.333333 0.278431 1 0.333333 0.278431 
1 0.333333 0.278431 1 0.333333 0.278431 
1 0.333333 0.278431 1 0.333333 0.278431 
1 0.333333 0.278431 1 0.333333 0.278431 
1 0.333333 0.278431 1 0.333333 0.278431 
1 0.333333 0.278431 1 0.333333 0.278431 
1 0.333333 0.278431 1 0.333333 0.278431 
1 0.333333 0.278431 1 0.333333 0.278431 
1 0.333333 0.278431 1 0.333333 0.278431 
1 0.333333 0.278431 1 0.333333 0.278431 
1 0.333333 0.278431 1 0.333333 0.278431 
1 0.333333 0.278431 1 0.333333 0.278431 
1 0.333333 0.278431 1 0.333333 0.278431 
1 0.333333 0.278431 1 0.333333 0.278431 
1 0.333333 0.278431 1 0.333333 0.278431 
1 0.333333 0.278431 1 0.333333 0.278431 
1 0.333333 0.278431 1 0.333333 0.278431 
1 0.333333 0.278431 1 0.333333 0.278431 
1 0.333333 0.278431 1 0.333333 0.278431 
1 0.333333 0.278431 1 0.333333 0.278431 
1 0.333333 0.278431 1 0.333333 0.278431 
1 0.333333 0.278431 1 0.333333 0.278431 
1 0.333333 0.278431 1 0.333333 0.278431 

NORMALS Normals float
-0.132648 -0.347657 -0.928191 0.0446636 -0.51305 -0.857196 0.342686 -0.293424 -0.892451 
-0.173146 -0.162311 -0.97143 -0.214752 -0.145987 -0.965696 0.180999 -0.129598 -0.974907 
0.225599 -0.00874502 -0.974181 -0.454428 -0.0805798 -0.887131 -0.223014 -0.0577231 -0.973105 
-0.49456 0.0985918 -0.863533 -0.697407 0.158417 -0.698947 -0.137823 0.0543222 -0.988966 
-0.445406 0.19104 -0.87471 0.0959692 0.134563 -0.986247 -0.29197 0.206545 -0.933859 
-0.278385 0.362212 -0.889553 -0.418626 -0.460958 -0.782476 0.628389 -0.327048 -0.705809 
0.495317 -0.129469 -0.85901 0.651434 -0.0754864 -0.75494 -0.546632 -0.17103 -0.819721 
0.565015 -0.0740748 -0.821749 -0.690688 0.0500444 -0.721419 -0.627586 0.291391 -0.72196 
0.278343 0.0527144 -0.959034 0.348848 0.0755675 -0.934128 0.0906308 0.306436 -0.947567 
-0.192522 -0.679397 -0.708064 0.238209 -0.680053 -0.693386 -0.302422 -0.646436 -0.700473 
0.472128 -0.561896 -0.67924 -0.63256 -0.256356 -0.730855 0.706322 -0.260488 -0.658221 
-0.877987 -0.152189 -0.453846 -0.723611 -0.043402 -0.688843 -0.859223 0.0789356 -0.505474 
0.522812 -0.0551933 -0.85066 0.47136 0.109485 -0.875119 -0.534512 0.502054 -0.679881 
-0.626308 0.688278 -0.366076 0.0807589 0.322437 -0.943139 0.13744 0.316679 -0.938523 
-0.190547 0.545947 -0.815864 0.090008 -0.778768 -0.620822 0.729311 -0.539747 -0.420451 
-0.793023 -0.416742 -0.444344 0.43981 -0.0439946 -0.897013 0.299255 0.0126623 -0.954089 
-0.414882 0.706616 -0.573208 -0.177744 0.660172 -0.729781 -0.224727 0.681733 -0.696231 
0.243877 0.325562 -0.913528 0.21532 -0.882404 -0.418331 -0.170882 -0.894094 -0.414 
0.469557 -0.77284 -0.42689 -0.584701 -0.673155 -0.452755 -0.85099 0.383819 -0.358467 
0.640377 -0.0114739 -0.767975 0.361756 0.158136 -0.918763 0.859246 -0.243949 -0.44965 
0.763316 -0.184801 -0.619029 0.711636 -0.701607 0.0363642 -0.206122 0.595142 -0.776736 
-0.500377 -0.798662 -0.334307 -0.82337 -0.515677 -0.236937 0.703188 -0.157535 -0.693332 
-0.0115067 0.598636 -0.800938 -0.0709733 -0.975145 -0.209891 0.0964531 -0.969412 -0.225693 
0.491002 -0.0303229 -0.870631 0.523503 0.0633528 -0.849665 -0.257444 0.628391 -0.734062 
0.271952 0.310268 -0.910921 0.301814 0.440117 -0.845698 0.796263 -0.518428 -0.311765 
0.817542 -0.349528 -0.457664 -0.216645 0.691915 -0.688708 -0.355595 0.698338 -0.621189 
0.713049 -0.67791 -0.178884 0.656894 0.195453 -0.728209 -0.551461 0.710869 -0.436526 
0.672948 0.220776 -0.705974 0.442918 0.438282 -0.782133 -0.0416477 0.692449 -0.720264 
0.174947 0.605321 -0.776518 0.487484 -0.845139 -0.219318 0.70512 -0.697729 -0.12641 
0.864529 -0.483936 -0.135627 0.803281 -0.0606913 -0.5925 -0.491755 0.710307 -0.503627 
-0.816861 -0.530995 -0.22535 -0.960197 -0.0159044 -0.27887 0.756635 0.171465 -0.630955 
0.587786 0.38692 -0.710493 0.306472 0.637943 -0.706473 0.559626 0.486196 -0.671143 
0.107779 0.749023 -0.653719 0.660483 -0.750002 -0.0354979 -0.396645 0.806264 -0.438875 
0.776996 -0.624164 -0.0818376 -0.314068 0.846086 -0.430697 0.376218 0.687449 -0.621187 
-0.634967 0.704033 -0.318047 -0.0388841 0.903364 -0.427109 0.813138 -0.468842 -0.344955 
-0.272817 0.923797 -0.268643 0.470823 0.620387 -0.627253 0.310655 -0.949333 -0.0475538 
0.729607 -0.679891 0.0736398 -0.964233 -0.110105 -0.241105 -0.614005 0.788917 -0.024642 
0.847655 -0.4618 -0.261192 0.867327 -0.255272 -0.427294 -0.72404 0.6775 -0.12946 
0.787921 0.220634 -0.574893 0.707495 0.534023 -0.462894 0.0280874 0.935718 -0.351628 
0.310092 -0.950698 0.00413612 -0.358344 -0.930227 -0.0791681 -0.602271 -0.796583 0.052205 
-0.896347 -0.409537 -0.16983 -0.936392 0.219005 -0.274237 -0.798133 0.576694 -0.174379 
-0.517555 0.808982 -0.278721 0.391031 0.823977 -0.41007 0.641993 0.719503 -0.264879 
0.178116 0.975206 -0.13133 0.652172 -0.74904 0.116661 -0.96697 0.190004 -0.169903 
-0.891077 0.399487 -0.21539 0.884692 -0.440952 -0.151265 0.969345 -0.108264 -0.220567 
-0.721095 0.672314 -0.167381 -0.628227 0.766624 -0.132737 0.876213 0.407192 -0.257769 
-0.970254 0.216246 -0.108831 -0.983439 -0.0551382 -0.172651 0.861991 -0.501042 -0.0769968 
-0.880609 0.473671 -0.012796 -0.732645 0.65081 0.199191 0.993609 0.0779511 0.0816379 
0.967358 0.241979 0.0752623 0.809555 0.580813 -0.0853087 0.560988 0.824536 -0.0737069 
0.57539 -0.785356 0.228346 -0.754843 -0.645673 0.115405 -0.850806 -0.499948 0.161807 
-0.95419 -0.297844 -0.0284845 -0.971924 -0.197577 -0.127778 -0.968018 0.234816 0.0883302 
-0.697713 0.710209 0.0938059 0.972403 -0.107593 0.207018 -0.355126 0.931904 -0.0737579 
0.503365 0.838533 0.208531 -0.0550607 0.977895 0.201719 0.255399 0.964706 0.0641379 
0.419244 0.90174 0.105351 -0.204945 -0.971512 0.119 -0.11393 -0.852129 0.510779 
0.105201 -0.944825 0.310224 -0.635231 -0.684356 0.357963 0.811912 -0.566633 0.140447 
-0.937603 -0.169003 0.303874 0.873197 -0.487329 0.00612134 -0.506369 0.854749 0.113997 
0.936947 -0.329367 0.116823 0.969346 -0.17619 0.171245 0.985255 -0.0375428 0.166923 
0.903036 0.373504 0.212183 -0.687007 0.719378 0.102553 0.836672 0.531906 0.130599 
0.325739 0.886227 0.329386 0.489626 0.78652 0.376367 0.0767508 0.952791 0.293767 
-0.381449 -0.795639 0.47059 0.471526 -0.780331 0.410788 -0.341023 -0.76048 0.552606 
-0.840856 -0.311458 0.442668 -0.795456 -0.0471858 0.604171 0.775706 -0.455847 0.436444 
-0.854515 0.259297 0.450077 0.799261 -0.354256 0.485474 -0.85604 0.49061 0.162781 
-0.685333 0.609347 0.398768 -0.608148 0.719872 0.334574 0.806321 -0.487825 0.334474 
-0.585126 0.719792 0.373533 -0.658682 0.588876 0.468362 -0.74511 0.528008 0.407454 
-0.783244 0.541677 0.305146 0.879707 0.120911 0.459887 0.865287 0.354263 0.35465 
0.616655 0.651037 0.442592 -0.308519 0.835837 0.454085 0.272407 0.814375 0.512433 
-0.0626067 0.821271 0.567092 0.045121 0.853915 0.518453 0.0707833 -0.589502 0.804659 
0.433382 -0.563722 0.703135 -0.629834 -0.552387 0.546057 -0.227292 -0.452994 0.862053 
0.678463 -0.586343 0.442595 -0.633282 -0.419225 0.650542 0.660612 -0.493627 0.565619 
-0.506505 -0.203886 0.837784 0.648479 -0.606394 0.460175 0.608896 -0.46346 0.643778 
0.471028 -0.44144 0.763717 0.689956 -0.507604 0.516043 -0.551869 0.19671 0.810399 
0.708563 -0.494989 0.502915 0.696799 -0.393218 0.599876 -0.720659 0.515422 0.463671 
0.782854 -0.443862 0.436034 -0.60157 0.680889 0.417737 -0.498896 0.461636 0.733482 
-0.516629 0.57268 0.6365 -0.369451 0.586746 0.72058 -0.52044 0.693084 0.498775 
0.656954 -0.476606 0.584173 -0.580924 0.698516 0.417855 -0.611361 0.660226 0.436279 
-0.615144 0.62234 0.484036 0.832691 -0.439129 0.33733 0.887372 -0.167229 0.429657 
-0.68389 0.527787 0.503721 0.813012 -0.0772297 0.577102 -0.625176 0.550005 0.55376 
0.815631 0.0271694 0.577934 -0.649157 0.423652 0.631755 -0.583676 0.389154 0.712658 
0.769343 0.161454 0.618097 -0.665669 0.506059 0.548442 0.659768 0.418491 0.624157 
0.437238 0.37573 0.817098 -0.685048 0.619588 0.383172 -0.524758 0.746388 0.40931 
0.513178 0.585747 0.627335 -0.132474 0.544778 0.828051 -0.0639269 0.698914 0.712343 
0.113866 0.684505 0.720061 0.281485 0.571249 0.771 -0.0175785 -0.35775 0.933652 
-0.0775273 -0.336536 0.938474 0.290003 -0.300713 0.908554 0.434815 -0.307461 0.846406 
0.0655439 -0.0190202 0.997668 0.389565 -0.232109 0.891271 -0.440947 -0.0030528 0.897528 
0.308452 -0.395338 0.865197 0.300919 -0.239608 0.923058 -0.180717 0.146858 0.972509 
0.622292 -0.391546 0.677823 0.530261 -0.166834 0.831258 0.700799 -0.156799 0.695913 
-0.458241 0.471001 0.753773 -0.110952 0.413289 0.903815 0.111286 -0.135753 0.984473 
-0.219119 0.163681 0.961871 0.487673 -0.357762 0.796355 -0.485265 0.399083 0.777978 
-0.361542 0.294961 0.884469 0.586791 -0.413811 0.696015 0.424981 -0.201676 0.88245 
0.591687 -0.256396 0.764308 0.255897 -0.118375 0.959429 0.658969 -0.198656 0.725463 
-0.0896429 0.0847483 0.992362 -0.00616799 0.0725191 0.997348 -0.399924 0.374617 0.836494 
-0.0663988 0.204103 0.976695 -0.493223 0.315262 0.810766 -0.324002 0.347696 0.879847 
0.150995 0.222684 0.963126 0.412679 0.0202576 0.910651 0.316669 0.231835 0.919768 
-0.451614 0.580012 0.677961 -0.339505 0.465509 0.817336 0.00740925 0.456228 0.889832 
0.401259 0.267629 0.875994 -0.186229 0.545601 0.817091 0.272816 -0.603602 -0.749157 
0.264982 -0.513789 -0.815969 -0.476943 -0.535266 -0.697148 -0.390392 -0.553965 -0.735335 
0.487218 -0.402428 -0.775029 0.365939 -0.345165 -0.864262 -0.0994857 -0.282136 -0.954202 
-0.01092 -0.263235 -0.96467 -0.19384 -0.0841646 -0.977416 0.228201 -0.19613 -0.953655 
-0.534773 -0.255318 -0.8055 -0.396513 -0.0297295 -0.917547 -0.415758 0.0272321 -0.909067 