# vtk DataFile Version 4.2
vtk output
ASCII
DATASET POLYDATA
POINTS 1716 float
338.869 161.263 24.1803 339.462 160.907 24.3802 337.866 161.264 24.3999 
338.738 161.843 23.9147 337.219 162.438 23.8406 330.866 164.808 24.1471 
336.818 163.887 23.5507 329.33 165.281 24.3002 327.431 166.13 24.2903 
328.782 166.398 23.7624 324.281 167.318 24.5087 323.802 167.812 24.2644 
325.673 167.568 23.9331 322.133 168.258 24.483 321.698 168.757 24.2328 
324.46 168.511 23.7635 327.013 167.842 23.595 322.458 169.407 23.7984 
324.006 168.945 23.707 325.835 168.801 23.5854 327.652 168.681 23.5155 
318.578 170.255 24.1414 318.135 169.95 24.4397 321.058 170.12 23.831 
322.014 169.973 23.759 324.681 169.75 23.6295 320.601 170.81 23.8111 
312.111 172.359 24.846 317.787 171.497 24.0061 348.311 155.501 25.5974 
345.978 157.641 25.0552 342.839 158.911 25.107 345.144 158.611 24.6847 
342.748 159.606 24.7134 341.466 160.841 24.3191 343.276 160.241 24.4154 
342.525 162.033 24.1741 343.502 161.679 24.2865 339.911 163.386 23.8066 
338.202 164.485 23.6801 342.238 163.537 24.2869 329.739 164.727 24.6893 
341.898 164.215 24.3709 326.626 166.157 24.6221 327.895 165.633 24.5284 
336.026 166.021 23.6989 334.197 168.338 24.1888 317.159 169.788 25.0482 
311.533 172.467 25.022 313.847 171.688 24.9593 316.428 172.199 24.2449 
317.372 172.095 24.1127 309.457 173.626 25.1398 313.024 173.341 24.7028 
315.028 172.896 24.4817 320.262 172.658 24.2629 308.888 174.003 25.1593 
308.398 173.948 25.3046 308.424 174.28 25.2572 309.393 174.101 25.0647 
355.525 150.13 26.4892 355.889 150.828 26.0269 355.937 151.348 25.8464 
350.78 153.98 25.8901 354.834 152.964 25.5754 350.615 154.712 25.5372 
353.657 154.616 25.396 349.199 157.29 24.8817 341.062 158.889 25.9167 
349.316 158.454 24.8693 349.818 159.802 25.1791 342.745 164.962 24.8832 
318.32 169.203 25.1671 307.17 173.16 26.3217 306.57 173.619 26.186 
308.227 173.617 25.5222 303.755 174.822 26.2766 310.06 175.025 25.168 
302.969 175.674 26.1815 288.534 178.457 26.5866 279.859 179.563 26.8987 
279.716 179.901 26.7331 281.682 179.191 26.5321 284.053 179.089 26.3358 
285.042 179.503 26.0705 289.082 178.701 26.4845 279.858 180.101 26.5385 
280.256 180.102 26.3503 281.92 180.495 25.959 283.437 180.44 25.8937 
359.96 147.304 27.05 359.553 147.167 27.2071 359.923 147.92 26.7847 
359.368 148.522 26.6373 359.997 148.453 26.6178 355.894 149.349 27.0743 
357.122 150.772 26.0504 359.456 149.744 26.374 357.609 152.913 25.9746 
350.054 153.898 26.2682 329.891 164.021 25.6227 342.933 166.866 25.9905 
309.616 172.171 26.1191 300.69 175.639 26.7323 301.389 176.337 26.3639 
304.212 176.227 26.0041 293.414 177.66 27.0395 294.819 177.116 27.2061 
287.627 178.548 26.6781 289.723 178.056 26.9703 294.183 178.347 26.7092 
282.194 178.772 26.9066 287.057 179.419 26.2664 289.044 179.148 26.3787 
279.272 180.175 27.2661 287.843 180.073 26.1931 279.453 181.364 26.9938 
281.268 181.62 26.1713 284.575 181.754 26.0426 365.002 143.754 27.9341 
364.192 144.452 27.7572 364.175 145.082 27.5904 365.262 144.705 27.7018 
359.526 146.767 27.5415 361.272 146.992 27.1402 361.122 147.935 26.832 
358.024 147.453 27.7664 361.663 149.003 26.7887 360.526 152.743 26.9032 
357.879 154.833 26.4234 324.881 165.732 26.4946 345.7 165.986 26.6874 
329.898 173.765 26.6987 300.997 174.67 27.4734 323.519 175.029 26.1776 
294.019 176.719 27.7634 284.608 178.337 27.1346 290.065 180.567 26.3458 
288.147 181.238 26.2364 280.404 183.543 27.0703 279.329 183.613 27.8148 
281.813 184.392 26.8135 304.615 186.58 27.7015 298.218 186.984 27.083 
294.839 188.727 27.1189 298.743 188.328 27.5016 283.056 189.662 27.1724 
298.516 189.043 27.8486 287.851 190.714 27.1208 294.255 189.95 27.4562 
300.109 189.246 28.296 295.116 190.632 28.0949 289.239 191.788 27.7919 
288.949 192.396 28.2813 366.2 142.878 28.2869 361.794 144.403 28.6769 
365.954 145.29 27.7913 366.69 145.919 28.0708 366.215 147.641 28.1487 
362.586 153.298 28.0972 357.181 158.691 27.8002 351.455 163.966 28.3896 
344.254 167.991 27.7284 305.908 172.303 28.468 303.025 173.407 28.2086 
332.001 174.337 27.9845 293.748 176.445 28.2693 283.516 178.028 27.8978 
287.109 177.419 28.387 279.436 179.129 28.5378 280.448 178.59 28.1884 
302.485 180.532 26.7116 312.801 180.849 27.3983 314.634 180.688 27.5946 
319.506 181.063 29.2031 308.444 183.44 27.7036 310.302 183.265 28.0176 
280.175 185.49 27.7789 279.574 186.424 28.4656 306.174 187.087 28.3643 
302.88 188.499 28.4161 304.141 188.396 28.8884 296.158 191.007 28.9968 
284.281 193.193 28.383 280.444 193.609 29.2068 280.678 193.913 29.2746 
281.507 193.535 28.8538 281.204 194.043 29.2924 369.633 138.201 30.1092 
370.563 139.853 29.5844 368.054 143.451 28.502 368.545 143.893 28.6693 
367.99 148.596 29.5247 365.283 151.57 28.9449 362.558 155.385 29.3382 
301.46 173.881 28.3897 332.659 174.725 28.7751 330.285 176.374 29.6831 
279.529 178.782 29.7945 279.229 179.219 29.1031 286.71 177.293 28.8431 
278.54 180.472 29.2322 312.492 184.321 29.4701 278.74 185.168 29.267 
279.287 191.609 30.1592 279.479 192.988 30.3757 288.002 193.312 29.1274 
279.977 193.731 29.754 284.06 194.005 29.349 280.672 194.229 29.5841 
281.102 194.383 29.647 280.125 194.252 30.093 280.475 194.423 30.022 
371.489 136.115 31.081 372.45 135.612 31.2986 371.152 136.199 31.1197 
372.042 136.767 30.7456 372.508 137.917 30.4885 372.449 138.783 30.3274 
371.089 140.368 29.6738 362.208 143.132 30.1373 370.547 142.956 29.4987 
371.782 143.202 30.3104 363.779 154.888 30.0426 363.719 155.171 30.3121 
361.923 156.908 30.0883 352.055 164.585 30.0705 346.883 168.054 30.3709 
305.821 171.827 29.9641 342.568 170.624 30.3413 302.071 173.1 29.8313 
335.868 174.172 30.6022 329.94 177.055 30.6751 278.079 182.863 30.397 
306.705 188.018 30.148 278.991 190.776 30.7727 297.817 191.017 30.1269 
288.251 193.669 30.4349 280.883 194.586 30.1825 281.179 194.535 29.9339 
280.199 194.377 30.4513 373.31 133.678 32.2997 373.909 133.369 32.3761 
371.336 135.82 31.338 373.821 135.371 31.4735 373.708 138.009 30.9075 
374.007 140.385 31.2491 360.827 143.71 31.2327 355.737 147.684 30.7455 
370.55 147.071 31.2691 368.775 149.26 30.8042 363.999 155.133 30.7568 
361.619 157.607 30.9707 359.2 159.59 30.6027 338.493 173.051 31.3229 
279.21 178.844 31.5043 330.019 177.284 31.4503 278.468 180.085 30.5704 
292.43 192.837 31.6009 279.596 193.401 31.3204 280.029 194.244 31.0028 
280.97 194.572 31.142 281.342 194.642 30.956 280.13 194.369 30.803 
376.124 131.425 33.1107 376.078 130.988 33.3679 376.623 131.573 33.1076 
369.911 135.773 32.5428 375.001 136.385 31.6213 369.305 149.045 31.5156 
366.573 152.895 31.5124 364.222 155.099 31.2858 350.683 165.974 31.9696 
292.395 175.631 31.5499 278.811 179.291 31.6053 280.382 177.929 32.1797 
280.468 193.84 32.4813 280.176 194.353 31.0187 375.721 130.807 33.6288 
377.644 131.034 33.6388 377.101 132.657 32.982 377.612 132.283 33.303 
377.429 135.063 33.1543 377.185 136.993 33.2114 373.063 144.431 32.6289 
368.964 149.385 33.6845 368.702 150.019 32.41 366.969 152.38 32.7794 
355.893 162.487 32.6403 317.978 167.181 33.2119 278.457 179.921 32.3547 
324.898 180.026 32.4064 377.974 128.896 35.1208 378.243 129.05 35.0283 
376.051 130.208 34.1391 378.362 129.371 34.8472 378.637 129.619 34.8735 
378.838 130.901 34.5336 378.963 133.537 34.525 350.641 165.96 34.121 
306.82 170.757 33.8338 292.189 175.269 34.0652 285.79 194.327 33.6199 
378.636 128.425 35.7088 378.515 128.232 35.9345 378.361 128.328 35.7937 
378.696 128.752 35.4648 378.833 128.431 35.8272 378.878 128.668 35.677 
378.953 128.591 35.8653 379.07 128.99 35.8453 378.984 129.744 35.1865 
379.586 131.005 35.3426 379.294 135.052 35.645 377.809 137.801 34.8533 
376.302 140.329 34.4027 281.067 193.35 35.7479 282.489 194.119 35.1896 
378.525 128.177 36.0939 378.253 128.221 36.1738 378.596 128.233 36.2093 
378.871 128.436 35.9895 377.001 128.622 35.8826 378.951 128.784 36.3844 
379.1 129.026 36.1993 379.955 132.304 36.5431 379.685 134.421 36.2849 
379.681 134.644 36.6029 378.514 136.871 35.8752 280.632 192.772 36.9101 
289.148 193.69 36.0731 283.826 194.282 35.6959 378.466 128.189 36.2379 
377.809 128.29 36.8443 378.419 128.334 36.5246 378.707 128.751 36.8039 
379.695 131.176 37.1527 379.945 133.595 37.4297 345.25 169.125 37.1805 
291.802 175.048 36.9913 278.194 182.97 36.8747 280.421 192.195 38.1781 
283.134 194.039 36.9596 377.289 128.271 36.9789 379.369 130.123 36.9794 
371.958 131.738 38.0312 379.14 135.371 37.9217 356.435 145.804 37.7049 
368.559 147.669 38.2158 278.923 179.417 37.775 278.425 181.132 37.8086 
278.873 188.214 38.1368 279.713 190.765 38.4053 281.145 192.733 39.2453 
377.098 137.546 39.2643 294.067 193.018 39.1357 377.333 129.691 40.3657 
280.283 177.761 40.4709 375.677 128.758 40.3691 375.61 128.783 40.7162 
377.258 130.218 41.0376 366.742 149.254 41.1274 282.415 176.617 41.2285 
329.899 178.279 40.148 376.529 129.844 41.77 280.218 177.977 42.3998 
278.955 180.034 41.3492 280.211 189.94 42.2606 281.779 192.806 42.1104 
375.527 129.302 42.0646 375.828 129.556 42.2543 372.991 130.105 42.3237 
375.91 130.443 43.3478 377.177 132.361 42.5435 376.883 134.267 43.3618 
280.789 177.586 43.4585 279.439 179.101 42.6096 301.277 192.255 42.6654 
283.28 193.617 42.1136 279.305 179.962 43.8435 281.195 191.376 43.8981 
373.009 130.249 44.4823 343.323 154.749 44.6807 304.671 170.809 44.7252 
281.062 177.595 45.6052 280.477 178.028 44.8587 280.079 178.583 44.98 
281.115 177.689 46.5479 279.825 179.437 45.7538 320.914 184.513 45.8398 
280.608 178.254 46.635 281.724 177.471 48.4708 279.729 182.425 47.5533 
283.131 192.343 48.9824 285.647 193.999 48.4222 373.109 131.653 48.5889 
373.421 131.968 48.8005 370.439 132.29 48.5987 374.202 132.564 48.4282 
352.054 148.764 48.899 354.953 162.403 48.9854 335.936 175.473 48.9233 
284.96 193.673 49.6121 371.831 131.887 49.6673 372.496 131.822 49.3196 
371.026 132.069 49.6225 373.379 132.719 49.851 339.06 157.481 50.047 
332.887 160.571 50.3091 348.153 166.9 49.6984 336.513 175.085 49.5705 
[...]
POINT_DATA 1716
COLOR_SCALARS scalars 3
0.0509804 0.623529 0.568627 0.0509804 0.623529 0.568627 0.0509804 0.623529 0.568627 
0.0509804 0.623529 0.568627 0.0509804 0.623529 0.568627 
0.0509804 0.623529 0.568627 0.0509804 0.623529 0.568627 
0.0509804 0.623529 0.568627 0.0509804 0.623529 0.568627 
0.0509804 0.623529 0.568627 0.0509804 0.623529 0.568627 
0.0509804 0.623529 0.568627 0.0509804 0.623529 0.568627 
0.0509804 0.623529 0.568627 0.0509804 0.623529 0.568627 
0.0509804 0.623529 0.568627 0.0509804 0.623529 0.568627 
0.0509804 0.623529 0.568627 0.0509804 0.623529 0.568627 
0.0509804 0.623529 0.568627 0.0509804 0.623529 0.568627 
0.0509804 0.623529 0.568627 0.0509804 0.623529 0.568627 
0.0509804 0.623529 0.568627 0.0509804 0.623529 0.568627 
0.0509804 0.623529 0.568627 0.0509804 0.623529 0.568627 
0.0509804 0.623529 0.568627 0.0509804 0.623529 0.568627 
0.0509804 0.623529 0.568627 0.0509804 0.623529 0.568627 
0.0509804 0.623529 0.568627 0.0509804 0.623529 0.568627 
0.0509804 0.623529 0.568627 0.0509804 0.623529 0.568627 
0.0509804 0.623529 0.568627 0.0509804 0.623529 0.568627 
0.0509804 0.623529 0.568627 0.0509804 0.623529 0.568627 
0.0509804 0.623529 0.568627 0.0509804 0.623529 0.568627 
0.0509804 0.623529 0.568627 0.0509804 0.623529 0.568627 
0.0509804 0.623529 0.568627 0.0509804 0.623529 0.568627 
0.0509804 0.623529 0.568627 0.0509804 0.623529 0.568627 
0.0509804 0.623529 0.568627 0.0509804 0.623529 0.568627 
0.0509804 0.623529 0.568627 0.0509804 0.623529 0.568627 
0.0509804 0.623529 0.568627 0.0509804 0.623529 0.568627 
0.0509804 0.623529 0.568627 0.0509804 0.623529 0.568627 
0.0509804 0.623529 0.568627 0.0509804 0.623529 0.568627 
0.0509804 0.623529 0.568627 0.0509804 0.623529 0.568627 
0.0509804 0.623529 0.568627 0.0509804 0.623529 0.568627 
0.0509804 0.623529 0.568627 0.0509804 0.623529 0.568627 
0.0509804 0.623529 0.568627 0.0509804 0.623529 0.568627 
0.0509804 0.623529 0.568627 0.0509804 0.623529 0.568627 
0.0509804 0.623529 0.568627 0.0509804 0.623529 0.568627 
0.0509804 0.623529 0.568627 0.0509804 0.623529 0.568627 
0.0509804 0.623529 0.568627 0.0509804 0.623529 0.568627 
0.0509804 0.623529 0.568627 0.0509804 0.623529 0.568627 
0.0509804 0.623529 0.568627 0.0509804 0.623529 0.568627 
0.0509804 0.623529 0.568627 0.0509804 0.623529 0.568627 
0.0509804 0.623529 0.568627 0.0509804 0.623529 0.568627 
0.0509804 0.623529 0.568627 0.0509804 0.623529 0.568627 
0.0509804 0.623529 0.568627 0.0509804 0.623529 0.568627 
0.0509804 0.623529 0.568627 0.0509804 0.623529 0.568627 
0.0509804 0.623529 0.568627 0.0509804 0.623529 0.568627 
0.0509804 0.623529 0.568627 0.0509804 0.623529 0.568627 
0.0509804 0.623529 0.568627 0.0509804 0.623529 0.568627 
0.0509804 0.623529 0.568627 0.0509804 0.623529 0.568627 
0.0509804 0.623529 0.568627 0.0509804 0.623529 0.568627 
0.0509804 0.623529 0.568627 0.0509804 0.623529 0.568627 
0.0509804 0.623529 0.568627 0.0509804 0.623529 0.568627 
0.0509804 0.623529 0.568627 0.0509804 0.623529 0.568627 
0.0509804 0.623529 0.568627 0.0509804 0.623529 0.568627 
0.0509804 0.623529 0.568627 0.0509804 0.623529 0.568627 
0.0509804 0.623529 0.568627 0.0509804 0.623529 0.568627 
0.0509804 0.623529 0.568627 0.0509804 0.623529 0.568627 
0.0509804 0.623529 0.568627 0.0509804 0.623529 0.568627 
0.0509804 0.623529 0.568627 0.0509804 0.623529 0.568627 
0.0509804 0.623529 0.568627 0.0509804 0.623529 0.568627 
0.0509804 0.623529 0.568627 0.0509804 0.623529 0.568627 
0.0509804 0.623529 0.568627 0.0509804 0.623529 0.568627 
0.0509804 0.623529 0.568627 0.0509804 0.623529 0.568627 
0.0509804 0.623529 0.568627 0.0509804 0.623529 0.568627 
0.0509804 0.623529 0.568627 0.0509804 0.623529 0.568627 
0.0509804 0.623529 0.568627 0.0509804 0.623529 0.568627 
0.0509804 0.623529 0.568627 0.0509804 0.623529 0.568627 
0.0509804 0.623529 0.568627 0.0509804 0.623529 0.568627 
0.0509804 0.623529 0.568627 0.0509804 0.623529 0.568627 
0.0509804 0.623529 0.568627 0.0509804 0.623529 0.568627 
0.0509804 0.623529 0.568627 0.0509804 0.623529 0.568627 
0.0509804 0.623529 0.568627 0.0509804 0.623529 0.568627 
0.0509804 0.623529 0.568627 0.0509804 0.623529 0.568627 
0.0509804 0.623529 0.568627 0.0509804 0.623529 0.568627 
0.0509804 0.623529 0.568627 0.0509804 0.623529 0.568627 
0.0509804 0.623529 0.568627 0.0509804 0.623529 0.568627 
0.0509804 0.623529 0.568627 0.0509804 0.623529 0.568627 
0.0509804 0.623529 0.568627 0.0509804 0.623529 0.568627 
0.0509804 0.623529 0.568627 0.0509804 0.623529 0.568627 
0.0509804 0.623529 0.568627 0.0509804 0.623529 0.568627 
0.0509804 0.623529 0.568627 0.0509804 0.623529 0.568627 
0.0509804 0.623529 0.568627 0.0509804 0.623529 0.568627 
0.0509804 0.623529 0.568627 0.0509804 0.623529 0.568627 
0.0509804 0.623529 0.568627 0.0509804 0.623529 0.568627 
0.0509804 0.623529 0.568627 0.0509804 0.623529 0.568627 
0.0509804 0.623529 0.568627 0.0509804 0.623529 0.568627 
0.0509804 0.623529 0.568627 0.0509804 0.623529 0.568627 
0.0509804 0.623529 0.568627 0.0509804 0.623529 0.568627 
0.0509804 0.623529 0.568627 0.0509804 0.623529 0.568627 
0.0509804 0.623529 0.568627 0.0509804 0.623529 0.568627 
0.0509804 0.623529 0.568627 0.0509804 0.623529 0.568627 
0.0509804 0.623529 0.568627 0.0509804 0.623529 0.568627 
0.0509804 0.623529 0.568627 0.0509804 0.623529 0.568627 
0.0509804 0.623529 0.568627 0.0509804 0.623529 0.568627 
0.0509804 0.623529 0.568627 0.0509804 0.623529 0.568627 
0.0509804 0.623529 0.568627 0.0509804 0.623529 0.568627 
0.0509804 0.623529 0.568627 0.0509804 0.623529 0.568627 
0.0509804 0.623529 0.568627 0.0509804 0.623529 0.568627 
0.0509804 0.623529 0.568627 0.0509804 0.623529 0.568627 
0.0509804 0.623529 0.568627 0.0509804 0.623529 0.568627 
0.0509804 0.623529 0.568627 0.0509804 0.623529 0.568627 
0.0509804 0.623529 0.568627 0.0509804 0.623529 0.568627 
0.0509804 0.623529 0.568627 0.0509804 0.623529 0.568627 
0.0509804 0.623529 0.568627 0.0509804 0.623529 0.568627 
0.0509804 0.623529 0.568627 0.0509804 0.623529 0.568627 
0.0509804 0.623529 0.568627 0.0509804 0.623529 0.568627 
0.0509804 0.623529 0.568627 0.0509804 0.623529 0.568627 
0.0509804 0.623529 0.568627 0.0509804 0.623529 0.568627 
0.0509804 0.623529 0.568627 0.0509804 0.623529 0.568627 
0.0509804 0.623529 0.568627 0.0509804 0.623529 0.568627 
0.0509804 0.623529 0.568627 0.0509804 0.623529 0.568627 
0.0509804 0.623529 0.568627 0.0509804 0.623529 0.568627 
0.0509804 0.623529 0.568627 0.0509804 0.623529 0.568627 
0.0509804 0.623529 0.568627 0.0509804 0.623529 0.568627 
0.0509804 0.623529 0.568627 0.0509804 0.623529 0.568627 
0.0509804 0.623529 0.568627 0.0509804 0.623529 0.568627 
0.0509804 0.623529 0.568627 0.0509804 0.623529 0.568627 
0.0509804 0.623529 0.568627 0.0509804 0.623529 0.568627 
0.0509804 0.623529 0.568627 0.0509804 0.623529 0.568627 
0.0509804 0.623529 0.568627 0.0509804 0.623529 0.568627 
0.0509804 0.623529 0.568627 0.0509804 0.623529 0.568627 
0.0509804 0.623529 0.568627 0.0509804 0.623529 0.568627 
0.0509804 0.623529 0.568627 0.0509804 0.623529 0.568627 
0.0509804 0.623529 0.568627 0.0509804 0.623529 0.568627 
0.0509804 0.623529 0.568627 0.0509804 0.623529 0.568627 
0.0509804 0.623529 0.568627 0.0509804 0.623529 0.568627 
0.0509804 0.623529 0.568627 0.0509804 0.623529 0.568627 
0.0509804 0.623529 0.568627 0.0509804 0.623529 0.568627 
0.0509804 0.623529 0.568627 0.0509804 0.623529 0.568627 
0.0509804 0.623529 0.568627 0.0509804 0.623529 0.568627 
0.0509804 0.623529 0.568627 0.0509804 0.623529 0.568627 
0.0509804 0.623529 0.568627 0.0509804 0.623529 0.568627 
0.0509804 0.623529 0.568627 0.0509804 0.623529 0.568627 
0.0509804 0.623529 0.568627 0.0509804 0.623529 0.568627 
0.0509804 0.623529 0.568627 0.0509804 0.623529 0.568627 
0.0509804 0.623529 0.568627 0.0509804 0.623529 0.568627 
0.0509804 0.623529 0.568627 0.0509804 0.623529 0.568627 
0.0509804 0.623529 0.568627 0.0509804 0.623529 0.568627 
0.0509804 0.623529 0.568627 0.0509804 0.623529 0.568627 
0.0509804 0.623529 0.568627 0.0509804 0.623529 0.568627 
0.0509804 0.623529 0.568627 0.0509804 0.623529 0.568627 
0.0509804 0.623529 0.568627 0.0509804 0.623529 0.568627 
0.0509804 0.623529 0.568627 0.0509804 0.623529 0.568627 
0.0509804 0.623529 0.568627 0.0509804 0.623529 0.568627 
0.0509804 0.623529 0.568627 0.0509804 0.623529 0.568627 
0.0509804 0.623529 0.568627 0.0509804 0.623529 0.568627 
0.0509804 0.623529 0.568627 0.0509804 0.623529 0.568627 
0.0509804 0.623529 0.568627 0.0509804 0.623529 0.568627 
0.0509804 0.623529 0.568627 0.0509804 0.623529 0.568627 
0.0509804 0.623529 0.568627 0.0509804 0.623529 0.568627 
0.0509804 0.623529 0.568627 0.0509804 0.623529 0.568627 
0.0509804 0.623529 0.568627 0.0509804 0.623529 0.568627 
0.0509804 0.623529 0.568627 0.0509804 0.623529 0.568627 
0.0509804 0.623529 0.568627 0.0509804 0.623529 0.568627 
0.0509804 0.623529 0.568627 0.0509804 0.623529 0.568627 
0.0509804 0.623529 0.568627 0.0509804 0.623529 0.568627 
0.0509804 0.623529 0.568627 0.0509804 0.623529 0.568627 
0.0509804 0.623529 0.568627 0.0509804 0.623529 0.568627 
0.0509804 0.623529 0.568627 0.0509804 0.623529 0.568627 
0.0509804 0.623529 0.568627 0.0509804 0.623529 0.568627 
0.0509804 0.623529 0.568627 0.0509804 0.623529 0.568627 
0.0509804 0.623529 0.568627 0.0509804 0.623529 0.568627 
0.0509804 0.623529 0.568627 0.0509804 0.623529 0.568627 
0.0509804 0.623529 0.568627 0.0509804 0.623529 0.568627 
0.0509804 0.623529 0.568627 0.0509804 0.623529 0.568627 
0.0509804 0.623529 0.568627 0.0509804 0.623529 0.568627 
0.0509804 0.623529 0.568627 0.0509804 0.623529 0.568627 
0.0509804 0.623529 0.568627 0.0509804 0.623529 0.568627 
0.0509804 0.623529 0.568627 0.0509804 0.623529 0.568627 
0.0509804 0.623529 0.568627 0.0509804 0.623529 0.568627 
0.0509804 0.623529 0.568627 0.0509804 0.623529 0.568627 
0.0509804 0.623529 0.568627 0.0509804 0.623529 0.568627 
0.0509804 0.623529 0.568627 0.0509804 0.623529 0.568627 
0.0509804 0.623529 0.568627 0.0509804 0.623529 0.568627 
0.0509804 0.623529 0.568627 0.0509804 0.623529 0.568627 
0.0509804 0.623529 0.568627 0.0509804 0.623529 0.568627 
0.0509804 0.623529 0.568627 0.0509804 0.623529 0.568627 
0.0509804 0.623529 0.568627 0.0509804 0.623529 0.568627 
0.0509804 0.623529 0.568627 0.0509804 0.623529 0.568627 
0.0509804 0.623529 0.568627 0.0509804 0.623529 0.568627 
0.0509804 0.623529 0.568627 0.0509804 0.623529 0.568627 
0.0509804 0.623529 0.568627 0.0509804 0.623529 0.568627 
0.0509804 0.623529 0.568627 0.0509804 0.623529 0.568627 
0.0509804 0.623529 0.568627 0.0509804 0.623529 0.568627 
0.0509804 0.623529 0.568627 0.0509804 0.623529 0.568627 
0.0509804 0.623529 0.568627 0.0509804 0.623529 0.568627 
0.0509804 0.623529 0.568627 0.0509804 0.623529 0.568627 
0.0509804 0.623529 0.568627 0.0509804 0.623529 0.568627 
0.0509804 0.623529 0.568627 0.0509804 0.623529 0.568627 
0.0509804 0.623529 0.568627 0.0509804 0.623529 0.568627 
0.0509804 0.623529 0.568627 0.0509804 0.623529 0.568627 
0.0509804 0.623529 0.568627 0.0509804 0.623529 0.568627 
0.0509804 0.623529 0.568627 0.0509804 0.623529 0.568627 
0.0509804 0.623529 0.568627 0.0509804 0.623529 0.568627 
0.0509804 0.623529 0.568627 0.0509804 0.623529 0.568627 
0.0509804 0.623529 0.568627 0.0509804 0.623529 0.568627 
0.0509804 0.623529 0.568627 0.0509804 0.623529 0.568627 
0.0509804 0.623529 0.568627 0.0509804 0.623529 0.568627 
0.0509804 0.623529 0.568627 0.0509804 0.623529 0.568627 
0.0509804 0.623529 0.568627 0.0509804 0.623529 0.568627 
0.0509804 0.623529 0.568627 0.0509804 0.623529 0.568627 
0.0509804 0.623529 0.568627 0.0509804 0.623529 0.568627 
0.0509804 0.623529 0.568627 0.0509804 0.623529 0.568627 
0.0509804 0.623529 0.568627 0.0509804 0.623529 0.568627 
0.0509804 0.623529 0.568627 0.0509804 0.623529 0.568627 
0.0509804 0.623529 0.568627 0.0509804 0.623529 0.568627 
0.0509804 0.623529 0.568627 0.0509804 0.623529 0.568627 
0.0509804 0.623529 0.568627 0.0509804 0.623529 0.568627 
0.0509804 0.623529 0.568627 0.0509804 0.623529 0.568627 
0.0509804 0.623529 0.568627 0.0509804 0.623529 0.568627 
0.0509804 0.623529 0.568627 0.0509804 0.623529 0.568627 
0.0509804 0.623529 0.568627 0.0509804 0.623529 0.568627 
0.0509804 0.623529 0.568627 0.0509804 0.623529 0.568627 
0.0509804 0.623529 0.568627 0.0509804 0.623529 0.568627 
0.0509804 0.623529 0.568627 0.0509804 0.623529 0.568627 
0.0509804 0.623529 0.568627 0.0509804 0.623529 0.568627 
0.0509804 0.623529 0.568627 0.0509804 0.623529 0.568627 
0.0509804 0.623529 0.568627 0.0509804 0.623529 0.568627 
0.0509804 0.623529 0.568627 0.0509804 0.623529 0.568627 
0.0509804 0.623529 0.568627 0.0509804 0.623529 0.568627 
0.0509804 0.623529 0.568627 0.0509804 0.623529 0.568627 
0.0509804 0.623529 0.568627 0.0509804 0.623529 0.568627 
0.0509804 0.623529 0.568627 0.0509804 0.623529 0.568627 
0.0509804 0.623529 0.568627 0.0509804 0.623529 0.568627 
0.0509804 0.623529 0.568627 0.0509804 0.623529 0.568627 
0.0509804 0.623529 0.568627 0.0509804 0.623529 0.568627 
0.0509804 0.623529 0.568627 0.0509804 0.623529 0.568627 
0.0509804 0.623529 0.568627 0.0509804 0.623529 0.568627 
0.0509804 0.623529 0.568627 0.0509804 0.623529 0.568627 
0.0509804 0.623529 0.568627 0.0509804 0.623529 0.568627 
0.0509804 0.623529 0.568627 0.0509804 0.623529 0.568627 
0.0509804 0.623529 0.568627 0.0509804 0.623529 0.568627 
0.0509804 0.623529 0.568627 0.0509804 0.623529 0.568627 
0.0509804 0.623529 0.568627 0.0509804 0.623529 0.568627 
0.0509804 0.623529 0.568627 0.0509804 0.623529 0.568627 
0.0509804 0.623529 0.568627 0.0509804 0.623529 0.568627 
0.0509804 0.623529 0.568627 0.0509804 0.623529 0.568627 
0.0509804 0.623529 0.568627 0.0509804 0.623529 0.568627 
0.0509804 0.623529 0.568627 0.0509804 0.623529 0.568627 
0.0509804 0.623529 0.568627 0.0509804 0.623529 0.568627 
0.0509804 0.623529 0.568627 0.0509804 0.623529 0.568627 
0.0509804 0.623529 0.568627 0.0509804 0.623529 0.568627 
0.0509804 0.623529 0.568627 0.0509804 0.623529 0.568627 
0.0509804 0.623529 0.568627 0.0509804 0.623529 0.568627 
0.0509804 0.623529 0.568627 0.0509804 0.623529 0.568627 
0.0509804 0.623529 0.568627 0.0509804 0.623529 0.568627 
0.0509804 0.623529 0.568627 0.0509804 0.623529 0.568627 
0.0509804 0.623529 0.568627 0.0509804 0.623529 0.568627 
0.0509804 0.623529 0.568627 0.0509804 0.623529 0.568627 
0.0509804 0.623529 0.568627 0.0509804 0.623529 0.568627 
0.0509804 0.623529 0.568627 0.0509804 0.623529 0.568627 
0.0509804 0.623529 0.568627 0.0509804 0.623529 0.568627 
0.0509804 0.623529 0.568627 0.0509804 0.623529 0.568627 
0.0509804 0.623529 0.568627 0.0509804 0.623529 0.568627 
0.0509804 0.623529 0.568627 0.0509804 0.623529 0.568627 
0.0509804 0.623529 0.568627 0.0509804 0.623529 0.568627 
0.0509804 0.623529 0.568627 0.0509804 0.623529 0.568627 
0.0509804 0.623529 0.568627 0.0509804 0.623529 0.568627 
0.0509804 0.623529 0.568627 0.0509804 0.623529 0.568627 
0.0509804 0.623529 0.568627 0.0509804 0.623529 0.568627 
0.0509804 0.623529 0.568627 0.0509804 0.623529 0.568627 
0.0509804 0.623529 0.568627 0.0509804 0.623529 0.568627 
0.0509804 0.623529 0.568627 0.0509804 0.623529 0.568627 
0.0509804 0.623529 0.568627 0.0509804 0.623529 0.568627 
0.0509804 0.623529 0.568627 0.0509804 0.623529 0.568627 
0.0509804 0.623529 0.568627 0.0509804 0.623529 0.568627 
0.0509804 0.623529 0.568627 0.0509804 0.623529 0.568627 
0.0509804 0.623529 0.568627 0.0509804 0.623529 0.568627 
0.0509804 0.623529 0.568627 0.0509804 0.623529 0.568627 
0.0509804 0.623529 0.568627 0.0509804 0.623529 0.568627 
0.0509804 0.623529 0.568627 0.0509804 0.623529 0.568627 
0.0509804 0.623529 0.568627 0.0509804 0.623529 0.568627 
0.0509804 0.623529 0.568627 0.0509804 0.623529 0.568627 
0.0509804 0.623529 0.568627 0.0509804 0.623529 0.568627 
0.0509804 0.623529 0.568627 0.0509804 0.623529 0.568627 
0.0509804 0.623529 0.568627 0.0509804 0.623529 0.568627 
0.0509804 0.623529 0.568627 0.0509804 0.623529 0.568627 
0.0509804 0.623529 0.568627 0.0509804 0.623529 0.568627 
0.0509804 0.623529 0.568627 0.0509804 0.623529 0.568627 
0.0509804 0.623529 0.568627 0.0509804 0.623529 0.568627 
0.0509804 0.623529 0.568627 0.0509804 0.623529 0.568627 
0.0509804 0.623529 0.568627 0.0509804 0.623529 0.568627 
0.0509804 0.623529 0.568627 0.0509804 0.623529 0.568627 
0.0509804 0.623529 0.568627 0.0509804 0.623529 0.568627 
0.0509804 0.623529 0.568627 0.0509804 0.623529 0.568627 
0.0509804 0.623529 0.568627 0.0509804 0.623529 0.568627 
0.0509804 0.623529 0.568627 0.0509804 0.623529 0.568627 
0.0509804 0.623529 0.568627 0.0509804 0.623529 0.568627 
0.0509804 0.623529 0.568627 0.0509804 0.623529 0.568627 
0.0509804 0.623529 0.568627 0.0509804 0.623529 0.568627 
0.0509804 0.623529 0.568627 0.0509804 0.623529 0.568627 
0.0509804 0.623529 0.568627 0.0509804 0.623529 0.568627 
0.0509804 0.623529 0.568627 0.0509804 0.623529 0.568627 
0.0509804 0.623529 0.568627 0.0509804 0.623529 0.568627 
0.0509804 0.623529 0.568627 0.0509804 0.623529 0.568627 
0.0509804 0.623529 0.568627 0.0509804 0.623529 0.568627 
0.0509804 0.623529 0.568627 0.0509804 0.623529 0.568627 
0.0509804 0.623529 0.568627 0.0509804 0.623529 0.568627 
0.0509804 0.623529 0.568627 0.0509804 0.623529 0.568627 
0.0509804 0.623529 0.568627 0.0509804 0.623529 0.568627 
0.0509804 0.623529 0.568627 0.0509804 0.623529 0.568627 
0.0509804 0.623529 0.568627 0.0509804 0.623529 0.568627 
0.0509804 0.623529 0.568627 0.0509804 0.623529 0.568627 
0.0509804 0.623529 0.568627 0.0509804 0.623529 0.568627 
0.0509804 0.623529 0.568627 0.0509804 0.623529 0.568627 
0.0509804 0.623529 0.568627 0.0509804 0.623529 0.568627 
0.0509804 0.623529 0.568627 0.0509804 0.623529 0.568627 
0.0509804 0.623529 0.568627 0.0509804 0.623529 0.568627 
0.0509804 0.623529 0.568627 0.0509804 0.623529 0.568627 
0.0509804 0.623529 0.568627 0.0509804 0.623529 0.568627 
0.0509804 0.623529 0.568627 0.0509804 0.623529 0.568627 
0.0509804 0.623529 0.568627 0.0509804 0.623529 0.568627 
0.0509804 0.623529 0.568627 0.0509804 0.623529 0.568627 
0.0509804 0.623529 0.568627 0.0509804 0.623529 0.568627 
0.0509804 0.623529 0.568627 0.0509804 0.623529 0.568627 
0.0509804 0.623529 0.568627 0.0509804 0.623529 0.568627 
0.0509804 0.623529 0.568627 0.0509804 0.623529 0.568627 
0.0509804 0.623529 0.568627 0.0509804 0.623529 0.568627 
0.0509804 0.623529 0.568627 0.0509804 0.623529 0.568627 
0.0509804 0.623529 0.568627 0.0509804 0.623529 0.568627 
0.0509804 0.623529 0.568627 0.0509804 0.623529 0.568627 
0.0509804 0.623529 0.568627 0.0509804 0.623529 0.568627 
0.0509804 0.623529 0.568627 0.0509804 0.623529 0.568627 
0.0509804 0.623529 0.568627 0.0509804 0.623529 0.568627 
0.0509804 0.623529 0.568627 0.0509804 0.623529 0.568627 
0.0509804 0.623529 0.568627 0.0509804 0.623529 0.568627 
0.0509804 0.623529 0.568627 0.0509804 0.623529 0.568627 
0.0509804 0.623529 0.568627 0.0509804 0.623529 0.568627 
0.0509804 0.623529 0.568627 0.0509804 0.623529 0.568627 
0.0509804 0.623529 0.568627 0.0509804 0.623529 0.568627 
0.0509804 0.623529 0.568627 0.0509804 0.623529 0.568627 
0.0509804 0.623529 0.568627 0.0509804 0.623529 0.568627 
0.0509804 0.623529 0.568627 0.0509804 0.623529 0.568627 
0.0509804 0.623529 0.568627 0.0509804 0.623529 0.568627 
0.0509804 0.623529 0.568627 0.0509804 0.623529 0.568627 
0.0509804 0.623529 0.568627 0.0509804 0.623529 0.568627 
0.0509804 0.623529 0.568627 0.0509804 0.623529 0.568627 
0.0509804 0.623529 0.568627 0.0509804 0.623529 0.568627 
0.0509804 0.623529 0.568627 0.0509804 0.623529 0.568627 
0.0509804 0.623529 0.568627 0.0509804 0.623529 0.568627 
0.0509804 0.623529 0.568627 0.0509804 0.623529 0.568627 
0.0509804 0.623529 0.568627 0.0509804 0.623529 0.568627 
0.0509804 0.623529 0.568627 0.0509804 0.623529 0.568627 
0.0509804 0.623529 0.568627 0.0509804 0.623529 0.568627 
0.0509804 0.623529 0.568627 0.0509804 0.623529 0.568627 
0.0509804 0.623529 0.568627 0.0509804 0.623529 0.568627 
0.0509804 0.623529 0.568627 0.0509804 0.623529 0.568627 
0.0509804 0.623529 0.568627 0.0509804 0.623529 0.568627 
0.0509804 0.623529 0.568627 0.0509804 0.623529 0.568627 
0.0509804 0.623529 0.568627 0.0509804 0.623529 0.568627 
0.0509804 0.623529 0.568627 0.0509804 0.623529 0.568627 