# vtk DataFile Version 4.2
vtk output
ASCII
DATASET POLYDATA
POINTS 1578 float
342.206 158.627 29.4111 339.302 159.582 29.5342 340.56 159.972 28.9151 
340.59 160.317 28.8118 333.528 162.738 29.1586 332.015 163.342 29.2252 
329.534 164.775 28.9927 332.041 164.225 28.7368 326.326 165.383 29.5016 
327.597 165.615 28.9614 328.015 164.987 29.2669 329.41 165.434 28.7275 
328.036 166.016 28.7259 328.878 166.117 28.6318 326.006 166.95 28.7039 
330.323 166.408 28.5748 322.041 168.485 28.8539 318.056 169.268 29.4192 
320.3 169.13 28.9613 321.864 169.055 28.7709 352.441 151.91 30.1938 
351.179 152.294 30.5163 352.544 152.623 29.8339 352.497 153.13 29.7327 
342.881 158.839 29.3406 332.792 162.512 29.6855 326.805 164.93 29.7953 
322.996 166.478 29.7777 320.889 167.39 29.7946 328.898 168.075 28.7655 
317.156 169.459 29.7532 312.721 170.776 30.2393 318.481 170.309 29.1642 
322.695 169.974 28.8516 310.588 171.657 30.1881 313.381 171.469 29.8248 
315.174 171.188 29.6535 307.537 172.533 30.5817 308.756 172.146 30.3702 
308.305 171.849 30.6895 311.938 171.991 29.9145 312.875 171.947 29.823 
314.713 171.821 29.6676 308.142 172.624 30.3787 311.422 172.575 29.942 
358.381 147.557 31.3184 352.499 151.44 30.5955 348.75 153.75 30.6895 
342.595 157.436 30.5297 347.266 159.494 29.5798 332.531 162.276 30.2138 
318.716 168.095 30.1922 317.327 168.405 30.8028 312.441 170.503 30.5389 
312.535 170.094 31.0318 306.72 172.683 30.8229 305.941 172.596 31.15 
303.874 173.45 31.2964 303.576 173.143 31.6107 307.777 173.68 30.4545 
315.262 173.544 30.1673 362.655 143.505 32.5779 359.679 145.918 31.9705 
361.862 145.302 31.8146 359.226 146.097 32.0194 359.919 147.485 31.2872 
355.643 148.405 31.77 358.409 148.764 30.8751 361.187 148.048 31.3776 
359.534 149 30.9838 360.829 149.419 31.3311 340.458 158.218 30.8843 
338.293 159.105 31.0084 325.928 164.485 31.3608 320.391 167.009 30.7991 
317.056 168.231 31.4234 308.454 171.169 31.4405 305.629 172.292 31.5691 
301.97 173.988 31.727 303.984 172.761 31.8239 299.754 174.792 31.9749 
298.933 174.762 32.2452 300.399 174.123 32.2622 303.568 174.457 31.1511 
311.812 174.269 30.4779 299.55 175.419 31.734 301.149 175.018 31.5299 
293.793 176.05 32.6154 293.311 176.533 32.2953 300.936 175.651 31.4845 
288.246 177.259 32.6052 287.671 177.719 32.2211 291.991 177.454 31.9513 
293.198 177.137 32.0062 295.021 177.181 31.8385 298.492 176.653 31.689 
280.034 179.416 32.2212 280.356 178.92 32.5371 281.375 179.075 31.9847 
282.975 178.871 31.843 288.931 178.389 31.772 294.51 177.607 31.7988 
280.335 179.772 31.8988 281.006 179.628 31.7725 286.825 179.063 31.6155 
282.09 179.92 31.5119 279.362 180.79 32.1343 279.772 180.942 31.8993 
282.768 180.771 31.3999 280.194 181.479 31.7798 365.019 142.166 32.8772 
364.757 141.844 33.0971 364.989 142.725 32.6905 362.117 143.712 32.5924 
359.38 145.359 32.6915 363.126 147.543 31.8951 351.492 151.068 32.1129 
361.553 151.034 32.0323 350.168 152.08 31.8042 350.283 151.764 32.4749 
355.896 157.172 31.7219 338.87 158.469 32.1787 312.171 169.541 32.4781 
305.33 172.075 32.0406 303.154 172.627 32.6103 295.365 175.443 32.8141 
292.506 176.304 32.6668 293.806 175.712 33.0121 286.814 177.416 32.6463 
279.406 179.449 32.6883 279.503 179.142 33.0355 280.789 178.428 32.9658 
301.542 177.557 31.8411 279.221 179.511 32.9679 290.086 179.258 31.6541 
294.767 178.974 31.8827 278.894 181.138 32.8008 290.516 180.581 31.8343 
282.281 181.826 31.5187 279.969 182.698 32.1466 279.214 183.164 32.9066 
367.794 138.569 34.085 367.456 139.221 33.9104 367.423 138.661 34.3094 
365.872 140.096 34.0122 367.383 139.931 33.6581 367.792 140.287 33.5863 
366.945 141.456 33.2774 363.586 141.936 33.5361 368.244 141.515 33.6042 
360.375 144.385 33.0763 359.977 144.48 33.385 367.343 143.858 33.3726 
357.575 146.27 33.2925 363.751 151.422 33.7945 356.844 158.472 33.1265 
357.263 158.701 33.6563 352.98 162.334 33.8675 351.818 163.164 33.8091 
339.419 170.566 33.2038 295.168 175.175 33.2784 294.675 175.19 33.5122 
291.759 176.138 33.1996 293.156 175.604 33.5419 285.689 177.246 33.1921 
279.999 178.449 33.8474 279 179.874 33.1475 278.769 182.84 33.425 
281.647 185.182 32.4541 280.333 187.314 33.7522 369.645 136.574 35.3662 
369.358 137.063 35.0346 368.109 138.037 34.6804 368.864 138.629 34.3008 
366.182 139.053 34.8804 368.874 142.37 33.9705 366.964 146.829 34.1336 
367.463 146.696 34.5568 366.793 147.445 34.3226 364.868 150.029 33.8868 
361.96 153.942 33.9482 360.956 155.015 33.8095 359.389 157.286 34.5187 
337.486 158.991 33.3755 329.404 162.763 34.1265 351.601 163.506 34.0641 
350.235 164.8 34.6739 315.156 168.327 34.0681 340.365 170.766 34.1544 
304.332 171.867 33.5647 298.196 173.966 33.8049 295.528 174.56 34.7217 
285.634 176.635 34.8024 300.866 182.032 33.282 278.53 182.674 34.2961 
315.581 183.054 35.2461 308.946 184.988 34.3073 308.671 186.329 34.6964 
305.045 187.714 34.5887 308.9 187.262 35.3221 280.816 189.455 34.3622 
304.74 188.857 35.2022 280.122 189.434 34.9933 303.69 189.296 35.5031 
372.085 134.359 36.2636 372.002 133.963 36.537 371.081 134.94 36.1045 
372.156 134.831 36.055 371.064 135.687 35.7499 368.739 136.691 35.6613 
371.75 136.274 35.5878 368.257 136.884 35.8533 371.01 137.603 35.0643 
359.742 144.209 34.749 359.182 144.615 35.1813 356.19 146.949 35.0734 
367.584 147.193 35.1842 365.433 150.046 34.6766 363.388 153.383 35.4854 
339.11 158.225 34.4736 337.044 159.276 34.391 355.5 161.335 35.4928 
351.041 164.531 35.6408 318.638 167.056 34.553 347.741 166.692 35.2398 
341.388 170.635 34.9415 282.091 177.257 35.0183 284.737 176.611 35.6271 
278.392 181.63 34.723 316.451 181.583 34.7011 321.951 180.632 35.9542 
316.094 183.683 36.1028 293.565 187.661 33.9745 306.989 188.311 35.3965 
279.535 189.071 35.9022 292.062 189.894 34.667 305.05 189.106 35.4866 
279.798 189.7 35.8346 279.9 190.059 36.2026 289.031 190.786 34.7698 
290.938 190.67 35.0067 281.152 191.391 35.615 284.209 191.752 34.8037 
282.327 192.045 35.4077 283.111 192.099 35.2129 295.19 191.071 36.0651 
281.186 192.213 36.4625 282.207 192.478 35.9252 283.687 192.593 35.6079 
371.615 133.96 36.665 373.019 134.038 36.5668 373.091 134.747 36.3059 
370.34 135.09 36.2999 369.962 135.205 36.4843 364.954 139.404 36.1395 
371.881 141.494 36.4019 370.934 143.228 36.5027 367.947 147.186 36.1704 
344.43 155.589 35.5134 337.026 159.449 35.1811 334.441 160.892 35.7421 
341.705 170.817 36.1268 279.537 178.601 35.7662 320.128 182.158 36.8894 
280.993 192.403 37.3751 281.964 192.952 37.1283 283.371 193.221 36.7277 
283.971 193.212 36.529 374.597 133.409 37.3598 371.012 133.905 37.1174 
374.58 135.019 37.0274 367.45 137.113 36.5809 374.492 136.492 37.0114 
372.821 141.123 37.6325 359.382 144.533 36.6228 358.202 145.718 36.804 
367.079 148.541 36.367 350.568 151.47 35.8594 362.665 154.614 37.2445 
359.981 157.336 37.4568 337.713 159.536 36.2514 328.246 163.568 36.1648 
351.603 164.326 36.7542 348.259 166.573 37.1112 314.846 168.615 36.4742 
309.451 170.079 36.3604 304.821 171.556 36.6471 301.836 172.472 36.6136 
289.526 175.786 36.504 330.565 176.898 37.0276 323.326 180.786 37.2258 
315.62 184.898 37.5794 279.157 188.429 37.1292 306.332 189.647 37.0026 
302.332 190.597 37.4971 280.522 191.87 37.8893 289.759 192.837 37.3507 
281.75 192.964 37.9103 375.494 130.339 39.1146 375.132 130.313 39.1665 
375.852 130.301 39.1971 374.757 130.485 39.1457 375.736 130.791 38.9362 
376.156 130.581 39.2212 370.556 133.671 38.2581 376.062 132.895 38.4745 
375.516 135.029 37.8776 375.365 135.938 37.9038 375.706 136.403 38.606 
359.403 144.732 37.1916 358.119 146.171 37.501 350.337 152.105 36.6718 
350.64 153.034 37.8504 344.254 157.603 37.9683 336.06 160.643 36.6745 
334.03 161.577 36.7442 336.775 161.202 37.7574 334.806 162 37.6454 
328.417 163.703 36.5854 328.441 164.083 37.1479 345.779 168.108 37.8349 
313.559 169.428 37.8693 310.457 170.067 37.5689 281.146 177.48 38.2524 
278.686 181.194 37.7105 278.647 184.047 37.9278 279.016 187.689 37.898 
279.988 190.647 38.5034 280.203 191.262 38.4351 280.819 192.11 39.047 
295.113 192.2 38.2489 285.566 193.697 38.686 376.409 129.197 39.9983 
376.375 129.06 40.051 376.438 129.11 40.0919 376.316 129.552 39.8758 
374.925 130.046 39.5218 376.668 129.969 40.1599 376.805 130.469 39.9012 
376.805 130.87 39.6728 376.828 131.468 39.5134 370.065 133.785 39.4424 
376.371 134.115 38.7373 377.221 133.596 40.0138 376.077 136.329 39.2041 
366.125 137.991 38.5278 376.17 136.46 39.6136 375.51 137.796 39.5892 
362.356 142.407 38.5299 359.599 144.897 37.8215 357.9 146.782 37.9919 
349.856 155.028 38.7154 362.413 154.794 38.3622 360.432 156.58 38.7864 
353.212 163.105 38.5283 326.08 165.77 38.167 335.235 164.159 39.279 
330.444 165.601 39.0892 347.129 166.938 39.0423 345.62 168.062 38.5409 
308.153 171.027 38.1174 340.176 171.656 38.9281 333.082 175.762 38.7163 
280.445 178.093 39.0535 284.28 176.771 38.8064 326.839 179.4 38.9738 
317.789 184.077 38.3895 294.032 192.616 39.2357 376.375 129.035 40.1514 
376.233 129.062 40.1486 376.43 129.158 40.2592 375.983 129.164 40.1581 
376.021 129.076 40.5477 370.059 133.705 40.3431 377.422 133.647 40.3495 
377.478 133.598 40.5194 377.007 134.702 40 371.495 142.954 39.7778 
359.901 146.362 39.2716 366.858 148.256 39.5461 362.663 154.162 39.4996 
360.683 156.068 39.398 359.651 156.918 39.6835 353.42 162.512 39.8326 
353.871 162.322 39.9223 354.417 162.027 39.6884 353.979 162.339 39.8504 
346.477 167.033 39.6101 349.681 165.236 39.368 309.93 170.928 38.7469 
311.571 170.84 39.1525 314.758 170.868 39.659 334.801 174.684 39.339 
288.818 176.174 39.0571 279.938 178.607 39.1111 279.986 189.675 40.1354 
375.653 129.024 40.7859 375.592 128.985 41.0168 375.459 129.013 40.9857 
376.296 129.058 40.3161 375.742 129.084 41.1228 375.365 129.135 40.7292 
375.174 129.15 41.2313 376.325 129.211 40.5648 377.094 131.572 41.3531 
370.101 133.717 41.2991 377.223 134.423 40.566 366.644 138.064 40.666 
363.149 146.048 40.9624 361.419 147.93 40.6599 362.6 148.25 41.1164 
365.876 149.007 40.1792 361.618 150.124 41.1039 361.986 154.477 40.0869 
[...]
POINT_DATA 1578
COLOR_SCALARS scalars 3
0.0509804 0.623529 0.568627 0.0509804 0.623529 0.568627 0.0509804 0.623529 0.568627 
0.0509804 0.623529 0.568627 0.0509804 0.623529 0.568627 
0.0509804 0.623529 0.568627 0.0509804 0.623529 0.568627 
0.0509804 0.623529 0.568627 0.0509804 0.623529 0.568627 
0.0509804 0.623529 0.568627 0.0509804 0.623529 0.568627 
0.0509804 0.623529 0.568627 0.0509804 0.623529 0.568627 
0.0509804 0.623529 0.568627 0.0509804 0.623529 0.568627 
0.0509804 0.623529 0.568627 0.0509804 0.623529 0.568627 
0.0509804 0.623529 0.568627 0.0509804 0.623529 0.568627 
0.0509804 0.623529 0.568627 0.0509804 0.623529 0.568627 
0.0509804 0.623529 0.568627 0.0509804 0.623529 0.568627 
0.0509804 0.623529 0.568627 0.0509804 0.623529 0.568627 
0.0509804 0.623529 0.568627 0.0509804 0.623529 0.568627 
0.0509804 0.623529 0.568627 0.0509804 0.623529 0.568627 
0.0509804 0.623529 0.568627 0.0509804 0.623529 0.568627 
0.0509804 0.623529 0.568627 0.0509804 0.623529 0.568627 
0.0509804 0.623529 0.568627 0.0509804 0.623529 0.568627 
0.0509804 0.623529 0.568627 0.0509804 0.623529 0.568627 
0.0509804 0.623529 0.568627 0.0509804 0.623529 0.568627 
0.0509804 0.623529 0.568627 0.0509804 0.623529 0.568627 
0.0509804 0.623529 0.568627 0.0509804 0.623529 0.568627 
0.0509804 0.623529 0.568627 0.0509804 0.623529 0.568627 
0.0509804 0.623529 0.568627 0.0509804 0.623529 0.568627 
0.0509804 0.623529 0.568627 0.0509804 0.623529 0.568627 
0.0509804 0.623529 0.568627 0.0509804 0.623529 0.568627 
0.0509804 0.623529 0.568627 0.0509804 0.623529 0.568627 
0.0509804 0.623529 0.568627 0.0509804 0.623529 0.568627 
0.0509804 0.623529 0.568627 0.0509804 0.623529 0.568627 
0.0509804 0.623529 0.568627 0.0509804 0.623529 0.568627 
0.0509804 0.623529 0.568627 0.0509804 0.623529 0.568627 
0.0509804 0.623529 0.568627 0.0509804 0.623529 0.568627 
0.0509804 0.623529 0.568627 0.0509804 0.623529 0.568627 
0.0509804 0.623529 0.568627 0.0509804 0.623529 0.568627 
0.0509804 0.623529 0.568627 0.0509804 0.623529 0.568627 
0.0509804 0.623529 0.568627 0.0509804 0.623529 0.568627 
0.0509804 0.623529 0.568627 0.0509804 0.623529 0.568627 
0.0509804 0.623529 0.568627 0.0509804 0.623529 0.568627 
0.0509804 0.623529 0.568627 0.0509804 0.623529 0.568627 
0.0509804 0.623529 0.568627 0.0509804 0.623529 0.568627 
0.0509804 0.623529 0.568627 0.0509804 0.623529 0.568627 
0.0509804 0.623529 0.568627 0.0509804 0.623529 0.568627 
0.0509804 0.623529 0.568627 0.0509804 0.623529 0.568627 
0.0509804 0.623529 0.568627 0.0509804 0.623529 0.568627 
0.0509804 0.623529 0.568627 0.0509804 0.623529 0.568627 
0.0509804 0.623529 0.568627 0.0509804 0.623529 0.568627 
0.0509804 0.623529 0.568627 0.0509804 0.623529 0.568627 
0.0509804 0.623529 0.568627 0.0509804 0.623529 0.568627 
0.0509804 0.623529 0.568627 0.0509804 0.623529 0.568627 
0.0509804 0.623529 0.568627 0.0509804 0.623529 0.568627 
0.0509804 0.623529 0.568627 0.0509804 0.623529 0.568627 
0.0509804 0.623529 0.568627 0.0509804 0.623529 0.568627 
0.0509804 0.623529 0.568627 0.0509804 0.623529 0.568627 
0.0509804 0.623529 0.568627 0.0509804 0.623529 0.568627 
0.0509804 0.623529 0.568627 0.0509804 0.623529 0.568627 
0.0509804 0.623529 0.568627 0.0509804 0.623529 0.568627 
0.0509804 0.623529 0.568627 0.0509804 0.623529 0.568627 
0.0509804 0.623529 0.568627 0.0509804 0.623529 0.568627 
0.0509804 0.623529 0.568627 0.0509804 0.623529 0.568627 
0.0509804 0.623529 0.568627 0.0509804 0.623529 0.568627 
0.0509804 0.623529 0.568627 0.0509804 0.623529 0.568627 
0.0509804 0.623529 0.568627 0.0509804 0.623529 0.568627 
0.0509804 0.623529 0.568627 0.0509804 0.623529 0.568627 
0.0509804 0.623529 0.568627 0.0509804 0.623529 0.568627 
0.0509804 0.623529 0.568627 0.0509804 0.623529 0.568627 
0.0509804 0.623529 0.568627 0.0509804 0.623529 0.568627 
0.0509804 0.623529 0.568627 0.0509804 0.623529 0.568627 
0.0509804 0.623529 0.568627 0.0509804 0.623529 0.568627 
0.0509804 0.623529 0.568627 0.0509804 0.623529 0.568627 
0.0509804 0.623529 0.568627 0.0509804 0.623529 0.568627 
0.0509804 0.623529 0.568627 0.0509804 0.623529 0.568627 
0.0509804 0.623529 0.568627 0.0509804 0.623529 0.568627 
0.0509804 0.623529 0.568627 0.0509804 0.623529 0.568627 
0.0509804 0.623529 0.568627 0.0509804 0.623529 0.568627 
0.0509804 0.623529 0.568627 0.0509804 0.623529 0.568627 
0.0509804 0.623529 0.568627 0.0509804 0.623529 0.568627 
0.0509804 0.623529 0.568627 0.0509804 0.623529 0.568627 
0.0509804 0.623529 0.568627 0.0509804 0.623529 0.568627 
0.0509804 0.623529 0.568627 0.0509804 0.623529 0.568627 
0.0509804 0.623529 0.568627 0.0509804 0.623529 0.568627 
0.0509804 0.623529 0.568627 0.0509804 0.623529 0.568627 
0.0509804 0.623529 0.568627 0.0509804 0.623529 0.568627 
0.0509804 0.623529 0.568627 0.0509804 0.623529 0.568627 
0.0509804 0.623529 0.568627 0.0509804 0.623529 0.568627 
0.0509804 0.623529 0.568627 0.0509804 0.623529 0.568627 
0.0509804 0.623529 0.568627 0.0509804 0.623529 0.568627 
0.0509804 0.623529 0.568627 0.0509804 0.623529 0.568627 
0.0509804 0.623529 0.568627 0.0509804 0.623529 0.568627 
0.0509804 0.623529 0.568627 0.0509804 0.623529 0.568627 
0.0509804 0.623529 0.568627 0.0509804 0.623529 0.568627 
0.0509804 0.623529 0.568627 0.0509804 0.623529 0.568627 
0.0509804 0.623529 0.568627 0.0509804 0.623529 0.568627 
0.0509804 0.623529 0.568627 0.0509804 0.623529 0.568627 
0.0509804 0.623529 0.568627 0.0509804 0.623529 0.568627 
0.0509804 0.623529 0.568627 0.0509804 0.623529 0.568627 
0.0509804 0.623529 0.568627 0.0509804 0.623529 0.568627 
0.0509804 0.623529 0.568627 0.0509804 0.623529 0.568627 
0.0509804 0.623529 0.568627 0.0509804 0.623529 0.568627 
0.0509804 0.623529 0.568627 0.0509804 0.623529 0.568627 
0.0509804 0.623529 0.568627 0.0509804 0.623529 0.568627 
0.0509804 0.623529 0.568627 0.0509804 0.623529 0.568627 
0.0509804 0.623529 0.568627 0.0509804 0.623529 0.568627 
0.0509804 0.623529 0.568627 0.0509804 0.623529 0.568627 
0.0509804 0.623529 0.568627 0.0509804 0.623529 0.568627 
0.0509804 0.623529 0.568627 0.0509804 0.623529 0.568627 
0.0509804 0.623529 0.568627 0.0509804 0.623529 0.568627 
0.0509804 0.623529 0.568627 0.0509804 0.623529 0.568627 
0.0509804 0.623529 0.568627 0.0509804 0.623529 0.568627 
0.0509804 0.623529 0.568627 0.0509804 0.623529 0.568627 
0.0509804 0.623529 0.568627 0.0509804 0.623529 0.568627 
0.0509804 0.623529 0.568627 0.0509804 0.623529 0.568627 
0.0509804 0.623529 0.568627 0.0509804 0.623529 0.568627 
0.0509804 0.623529 0.568627 0.0509804 0.623529 0.568627 
0.0509804 0.623529 0.568627 0.0509804 0.623529 0.568627 
0.0509804 0.623529 0.568627 0.0509804 0.623529 0.568627 
0.0509804 0.623529 0.568627 0.0509804 0.623529 0.568627 
0.0509804 0.623529 0.568627 0.0509804 0.623529 0.568627 
0.0509804 0.623529 0.568627 0.0509804 0.623529 0.568627 
0.0509804 0.623529 0.568627 0.0509804 0.623529 0.568627 
0.0509804 0.623529 0.568627 0.0509804 0.623529 0.568627 
0.0509804 0.623529 0.568627 0.0509804 0.623529 0.568627 
0.0509804 0.623529 0.568627 0.0509804 0.623529 0.568627 
0.0509804 0.623529 0.568627 0.0509804 0.623529 0.568627 
0.0509804 0.623529 0.568627 0.0509804 0.623529 0.568627 
0.0509804 0.623529 0.568627 0.0509804 0.623529 0.568627 
0.0509804 0.623529 0.568627 0.0509804 0.623529 0.568627 
0.0509804 0.623529 0.568627 0.0509804 0.623529 0.568627 
0.0509804 0.623529 0.568627 0.0509804 0.623529 0.568627 
0.0509804 0.623529 0.568627 0.0509804 0.623529 0.568627 
0.0509804 0.623529 0.568627 0.0509804 0.623529 0.568627 
0.0509804 0.623529 0.568627 0.0509804 0.623529 0.568627 
0.0509804 0.623529 0.568627 0.0509804 0.623529 0.568627 
0.0509804 0.623529 0.568627 0.0509804 0.623529 0.568627 
0.0509804 0.623529 0.568627 0.0509804 0.623529 0.568627 
0.0509804 0.623529 0.568627 0.0509804 0.623529 0.568627 
0.0509804 0.623529 0.568627 0.0509804 0.623529 0.568627 
0.0509804 0.623529 0.568627 0.0509804 0.623529 0.568627 
0.0509804 0.623529 0.568627 0.0509804 0.623529 0.568627 
0.0509804 0.623529 0.568627 0.0509804 0.623529 0.568627 
0.0509804 0.623529 0.568627 0.0509804 0.623529 0.568627 
0.0509804 0.623529 0.568627 0.0509804 0.623529 0.568627 
0.0509804 0.623529 0.568627 0.0509804 0.623529 0.568627 
0.0509804 0.623529 0.568627 0.0509804 0.623529 0.568627 
0.0509804 0.623529 0.568627 0.0509804 0.623529 0.568627 
0.0509804 0.623529 0.568627 0.0509804 0.623529 0.568627 
0.0509804 0.623529 0.568627 0.0509804 0.623529 0.568627 
0.0509804 0.623529 0.568627 0.0509804 0.623529 0.568627 
0.0509804 0.623529 0.568627 0.0509804 0.623529 0.568627 
0.0509804 0.623529 0.568627 0.0509804 0.623529 0.568627 
0.0509804 0.623529 0.568627 0.0509804 0.623529 0.568627 
0.0509804 0.623529 0.568627 0.0509804 0.623529 0.568627 
0.0509804 0.623529 0.568627 0.0509804 0.623529 0.568627 
0.0509804 0.623529 0.568627 0.0509804 0.623529 0.568627 
0.0509804 0.623529 0.568627 0.0509804 0.623529 0.568627 
0.0509804 0.623529 0.568627 0.0509804 0.623529 0.568627 
0.0509804 0.623529 0.568627 0.0509804 0.623529 0.568627 
0.0509804 0.623529 0.568627 0.0509804 0.623529 0.568627 
0.0509804 0.623529 0.568627 0.0509804 0.623529 0.568627 
0.0509804 0.623529 0.568627 0.0509804 0.623529 0.568627 
0.0509804 0.623529 0.568627 0.0509804 0.623529 0.568627 
0.0509804 0.623529 0.568627 0.0509804 0.623529 0.568627 
0.0509804 0.623529 0.568627 0.0509804 0.623529 0.568627 
0.0509804 0.623529 0.568627 0.0509804 0.623529 0.568627 
0.0509804 0.623529 0.568627 0.0509804 0.623529 0.568627 
0.0509804 0.623529 0.568627 0.0509804 0.623529 0.568627 
0.0509804 0.623529 0.568627 0.0509804 0.623529 0.568627 
0.0509804 0.623529 0.568627 0.0509804 0.623529 0.568627 
0.0509804 0.623529 0.568627 0.0509804 0.623529 0.568627 
0.0509804 0.623529 0.568627 0.0509804 0.623529 0.568627 
0.0509804 0.623529 0.568627 0.0509804 0.623529 0.568627 
0.0509804 0.623529 0.568627 0.0509804 0.623529 0.568627 
0.0509804 0.623529 0.568627 0.0509804 0.623529 0.568627 
0.0509804 0.623529 0.568627 0.0509804 0.623529 0.568627 
0.0509804 0.623529 0.568627 0.0509804 0.623529 0.568627 
0.0509804 0.623529 0.568627 0.0509804 0.623529 0.568627 
0.0509804 0.623529 0.568627 0.0509804 0.623529 0.568627 
0.0509804 0.623529 0.568627 0.0509804 0.623529 0.568627 
0.0509804 0.623529 0.568627 0.0509804 0.623529 0.568627 
0.0509804 0.623529 0.568627 0.0509804 0.623529 0.568627 
0.0509804 0.623529 0.568627 0.0509804 0.623529 0.568627 
0.0509804 0.623529 0.568627 0.0509804 0.623529 0.568627 
0.0509804 0.623529 0.568627 0.0509804 0.623529 0.568627 
0.0509804 0.623529 0.568627 0.0509804 0.623529 0.568627 
0.0509804 0.623529 0.568627 0.0509804 0.623529 0.568627 
0.0509804 0.623529 0.568627 0.0509804 0.623529 0.568627 
0.0509804 0.623529 0.568627 0.0509804 0.623529 0.568627 
0.0509804 0.623529 0.568627 0.0509804 0.623529 0.568627 
0.0509804 0.623529 0.568627 0.0509804 0.623529 0.568627 
0.0509804 0.623529 0.568627 0.0509804 0.623529 0.568627 
0.0509804 0.623529 0.568627 0.0509804 0.623529 0.568627 
0.0509804 0.623529 0.568627 0.0509804 0.623529 0.568627 
0.0509804 0.623529 0.568627 0.0509804 0.623529 0.568627 
0.0509804 0.623529 0.568627 0.0509804 0.623529 0.568627 
0.0509804 0.623529 0.568627 0.0509804 0.623529 0.568627 
0.0509804 0.623529 0.568627 0.0509804 0.623529 0.568627 
0.0509804 0.623529 0.568627 0.0509804 0.623529 0.568627 
0.0509804 0.623529 0.568627 0.0509804 0.623529 0.568627 
0.0509804 0.623529 0.568627 0.0509804 0.623529 0.568627 
0.0509804 0.623529 0.568627 0.0509804 0.623529 0.568627 
0.0509804 0.623529 0.568627 0.0509804 0.623529 0.568627 
0.0509804 0.623529 0.568627 0.0509804 0.623529 0.568627 
0.0509804 0.623529 0.568627 0.0509804 0.623529 0.568627 
0.0509804 0.623529 0.568627 0.0509804 0.623529 0.568627 
0.0509804 0.623529 0.568627 0.0509804 0.623529 0.568627 
0.0509804 0.623529 0.568627 0.0509804 0.623529 0.568627 
0.0509804 0.623529 0.568627 0.0509804 0.623529 0.568627 
0.0509804 0.623529 0.568627 0.0509804 0.623529 0.568627 
0.0509804 0.623529 0.568627 0.0509804 0.623529 0.568627 
0.0509804 0.623529 0.568627 0.0509804 0.623529 0.568627 
0.0509804 0.623529 0.568627 0.0509804 0.623529 0.568627 
0.0509804 0.623529 0.568627 0.0509804 0.623529 0.568627 
0.0509804 0.623529 0.568627 0.0509804 0.623529 0.568627 
0.0509804 0.623529 0.568627 0.0509804 0.623529 0.568627 
0.0509804 0.623529 0.568627 0.0509804 0.623529 0.568627 
0.0509804 0.623529 0.568627 0.0509804 0.623529 0.568627 
0.0509804 0.623529 0.568627 0.0509804 0.623529 0.568627 
0.0509804 0.623529 0.568627 0.0509804 0.623529 0.568627 
0.0509804 0.623529 0.568627 0.0509804 0.623529 0.568627 
0.0509804 0.623529 0.568627 0.0509804 0.623529 0.568627 
0.0509804 0.623529 0.568627 0.0509804 0.623529 0.568627 
0.0509804 0.623529 0.568627 0.0509804 0.623529 0.568627 
0.0509804 0.623529 0.568627 0.0509804 0.623529 0.568627 
0.0509804 0.623529 0.568627 0.0509804 0.623529 0.568627 
0.0509804 0.623529 0.568627 0.0509804 0.623529 0.568627 
0.0509804 0.623529 0.568627 0.0509804 0.623529 0.568627 
0.0509804 0.623529 0.568627 0.0509804 0.623529 0.568627 
0.0509804 0.623529 0.568627 0.0509804 0.623529 0.568627 
0.0509804 0.623529 0.568627 0.0509804 0.623529 0.568627 
0.0509804 0.623529 0.568627 0.0509804 0.623529 0.568627 
0.0509804 0.623529 0.568627 0.0509804 0.623529 0.568627 
0.0509804 0.623529 0.568627 0.0509804 0.623529 0.568627 
0.0509804 0.623529 0.568627 0.0509804 0.623529 0.568627 
0.0509804 0.623529 0.568627 0.0509804 0.623529 0.568627 
0.0509804 0.623529 0.568627 0.0509804 0.623529 0.568627 
0.0509804 0.623529 0.568627 0.0509804 0.623529 0.568627 
0.0509804 0.623529 0.568627 0.0509804 0.623529 0.568627 
0.0509804 0.623529 0.568627 0.0509804 0.623529 0.568627 
0.0509804 0.623529 0.568627 0.0509804 0.623529 0.568627 
0.0509804 0.623529 0.568627 0.0509804 0.623529 0.568627 
0.0509804 0.623529 0.568627 0.0509804 0.623529 0.568627 
0.0509804 0.623529 0.568627 0.0509804 0.623529 0.568627 
0.0509804 0.623529 0.568627 0.0509804 0.623529 0.568627 
0.0509804 0.623529 0.568627 0.0509804 0.623529 0.568627 
0.0509804 0.623529 0.568627 0.0509804 0.623529 0.568627 
0.0509804 0.623529 0.568627 0.0509804 0.623529 0.568627 
0.0509804 0.623529 0.568627 0.0509804 0.623529 0.568627 
0.0509804 0.623529 0.568627 0.0509804 0.623529 0.568627 
0.0509804 0.623529 0.568627 0.0509804 0.623529 0.568627 
0.0509804 0.623529 0.568627 0.0509804 0.623529 0.568627 
0.0509804 0.623529 0.568627 0.0509804 0.623529 0.568627 
0.0509804 0.623529 0.568627 0.0509804 0.623529 0.568627 
0.0509804 0.623529 0.568627 0.0509804 0.623529 0.568627 
0.0509804 0.623529 0.568627 0.0509804 0.623529 0.568627 
0.0509804 0.623529 0.568627 0.0509804 0.623529 0.568627 
0.0509804 0.623529 0.568627 0.0509804 0.623529 0.568627 
0.0509804 0.623529 0.568627 0.0509804 0.623529 0.568627 
0.0509804 0.623529 0.568627 0.0509804 0.623529 0.568627 
0.0509804 0.623529 0.568627 0.0509804 0.623529 0.568627 
0.0509804 0.623529 0.568627 0.0509804 0.623529 0.568627 
0.0509804 0.623529 0.568627 0.0509804 0.623529 0.568627 
0.0509804 0.623529 0.568627 0.0509804 0.623529 0.568627 
0.0509804 0.623529 0.568627 0.0509804 0.623529 0.568627 
0.0509804 0.623529 0.568627 0.0509804 0.623529 0.568627 
0.0509804 0.623529 0.568627 0.0509804 0.623529 0.568627 
0.0509804 0.623529 0.568627 0.0509804 0.623529 0.568627 
0.0509804 0.623529 0.568627 0.0509804 0.623529 0.568627 
0.0509804 0.623529 0.568627 0.0509804 0.623529 0.568627 
0.0509804 0.623529 0.568627 0.0509804 0.623529 0.568627 
0.0509804 0.623529 0.568627 0.0509804 0.623529 0.568627 
0.0509804 0.623529 0.568627 0.0509804 0.623529 0.568627 
0.0509804 0.623529 0.568627 0.0509804 0.623529 0.568627 
0.0509804 0.623529 0.568627 0.0509804 0.623529 0.568627 
0.0509804 0.623529 0.568627 0.0509804 0.623529 0.568627 
0.0509804 0.623529 0.568627 0.0509804 0.623529 0.568627 
0.0509804 0.623529 0.568627 0.0509804 0.623529 0.568627 
0.0509804 0.623529 0.568627 0.0509804 0.623529 0.568627 
0.0509804 0.623529 0.568627 0.0509804 0.623529 0.568627 
0.0509804 0.623529 0.568627 0.0509804 0.623529 0.568627 
0.0509804 0.623529 0.568627 0.0509804 0.623529 0.568627 
0.0509804 0.623529 0.568627 0.0509804 0.623529 0.568627 
0.0509804 0.623529 0.568627 0.0509804 0.623529 0.568627 
0.0509804 0.623529 0.568627 0.0509804 0.623529 0.568627 
0.0509804 0.623529 0.568627 0.0509804 0.623529 0.568627 
0.0509804 0.623529 0.568627 0.0509804 0.623529 0.568627 
0.0509804 0.623529 0.568627 0.0509804 0.623529 0.568627 
0.0509804 0.623529 0.568627 0.0509804 0.623529 0.568627 
0.0509804 0.623529 0.568627 0.0509804 0.623529 0.568627 
0.0509804 0.623529 0.568627 0.0509804 0.623529 0.568627 
0.0509804 0.623529 0.568627 0.0509804 0.623529 0.568627 
0.0509804 0.623529 0.568627 0.0509804 0.623529 0.568627 
0.0509804 0.623529 0.568627 0.0509804 0.623529 0.568627 
0.0509804 0.623529 0.568627 0.0509804 0.623529 0.568627 
0.0509804 0.623529 0.568627 0.0509804 0.623529 0.568627 
0.0509804 0.623529 0.568627 0.0509804 0.623529 0.568627 
0.0509804 0.623529 0.568627 0.0509804 0.623529 0.568627 
0.0509804 0.623529 0.568627 0.0509804 0.623529 0.568627 
0.0509804 0.623529 0.568627 0.0509804 0.623529 0.568627 
0.0509804 0.623529 0.568627 0.0509804 0.623529 0.568627 
0.0509804 0.623529 0.568627 0.0509804 0.623529 0.568627 
0.0509804 0.623529 0.568627 0.0509804 0.623529 0.568627 
0.0509804 0.623529 0.568627 0.0509804 0.623529 0.568627 
0.0509804 0.623529 0.568627 0.0509804 0.623529 0.568627 
0.0509804 0.623529 0.568627 0.0509804 0.623529 0.568627 
0.0509804 0.623529 0.568627 0.0509804 0.623529 0.568627 
0.0509804 0.623529 0.568627 0.0509804 0.623529 0.568627 
0.0509804 0.623529 0.568627 0.0509804 0.623529 0.568627 
0.0509804 0.623529 0.568627 0.0509804 0.623529 0.568627 
0.0509804 0.623529 0.568627 0.0509804 0.623529 0.568627 
0.0509804 0.623529 0.568627 0.0509804 0.623529 0.568627 
0.0509804 0.623529 0.568627 0.0509804 0.623529 0.568627 
0.0509804 0.623529 0.568627 0.0509804 0.623529 0.568627 
0.0509804 0.623529 0.568627 0.0509804 0.623529 0.568627 
0.0509804 0.623529 0.568627 0.0509804 0.623529 0.568627 
0.0509804 0.623529 0.568627 0.0509804 0.623529 0.568627 
0.0509804 0.623529 0.568627 0.0509804 0.623529 0.568627 
0.0509804 0.623529 0.568627 0.0509804 0.623529 0.568627 
0.0509804 0.623529 0.568627 0.0509804 0.623529 0.568627 
0.0509804 0.623529 0.568627 0.0509804 0.623529 0.568627 
0.0509804 0.623529 0.568627 0.0509804 0.623529 0.568627 
0.0509804 0.623529 0.568627 0.0509804 0.623529 0.568627 
0.0509804 0.623529 0.568627 0.0509804 0.623529 0.568627 
0.0509804 0.623529 0.568627 0.0509804 0.623529 0.568627 
0.0509804 0.623529 0.568627 0.0509804 0.623529 0.568627 
0.0509804 0.623529 0.568627 0.0509804 0.623529 0.568627 
0.0509804 0.623529 0.568627 0.0509804 0.623529 0.568627 
0.0509804 0.623529 0.568627 0.0509804 0.623529 0.568627 
0.0509804 0.623529 0.568627 0.0509804 0.623529 0.568627 
0.0509804 0.623529 0.568627 0.0509804 0.623529 0.568627 
0.0509804 0.623529 0.568627 0.0509804 0.623529 0.568627 
0.0509804 0.623529 0.568627 0.0509804 0.623529 0.568627 
0.0509804 0.623529 0.568627 0.0509804 0.623529 0.568627 
0.0509804 0.623529 0.568627 0.0509804 0.623529 0.568627 
0.0509804 0.623529 0.568627 0.0509804 0.623529 0.568627 
0.0509804 0.623529 0.568627 0.0509804 0.623529 0.568627 
0.0509804 0.623529 0.568627 0.0509804 0.623529 0.568627 
0.0509804 0.623529 0.568627 0.0509804 0.623529 0.568627 
0.0509804 0.623529 0.568627 0.0509804 0.623529 0.568627 
0.0509804 0.623529 0.568627 0.0509804 0.623529 0.568627 
0.0509804 0.623529 0.568627 0.0509804 0.623529 0.568627 
0.0509804 0.623529 0.568627 0.0509804 0.623529 0.568627 
0.0509804 0.623529 0.568627 0.0509804 0.623529 0.568627 
0.0509804 0.623529 0.568627 0.0509804 0.623529 0.568627 
0.0509804 0.623529 0.568627 0.0509804 0.623529 0.568627 
0.0509804 0.623529 0.568627 0.0509804 0.623529 0.568627 
0.0509804 0.623529 0.568627 0.0509804 0.623529 0.568627 
0.0509804 0.623529 0.568627 0.0509804 0.623529 0.568627 
0.0509804 0.623529 0.568627 0.0509804 0.623529 0.568627 
0.0509804 0.623529 0.568627 0.0509804 0.623529 0.568627 
0.0509804 0.623529 0.568627 0.0509804 0.623529 0.568627 
0.0509804 0.623529 0.568627 0.0509804 0.623529 0.568627 