# vtk DataFile Version 4.2
vtk output
ASCII
DATASET POLYDATA
POINTS 1582 float
346.222 154.98 48.2361 345.591 156.041 47.7032 341.137 158.232 47.8252 
343.031 157.521 47.6203 342.515 157.18 48.0528 343.732 157.564 47.4283 
339.798 158.486 48.2599 339.366 158.997 47.9861 341.003 158.897 47.4513 
337.395 160.054 48.0119 339.995 159.697 47.3404 343.63 158.723 47.157 
345.317 158.627 47.2301 335.451 161.045 48.0443 338.062 160.745 47.3648 
341.883 159.826 47.0577 333.102 162.329 48.0815 334.452 161.915 47.8116 
336.115 161.743 47.4215 339.291 161.018 47.064 332.689 162.878 47.9745 
333.048 163.757 47.5365 340.475 163.157 47.052 335.631 164.383 47.1531 
349.976 152.421 49.1665 351.008 151.989 49.2546 350.443 152.982 48.7292 
351.008 152.628 48.8663 347.16 154 48.9277 345.197 155.068 48.6217 
348.906 155.28 48.0302 340.268 157.961 48.62 341.518 157.2 48.7722 
342.236 156.899 48.5732 336.391 160.019 48.6887 334.418 161.036 48.6817 
331.007 162.646 49.0969 329.077 164.18 49.0174 329.074 165.136 48.5693 
332.422 165.039 47.6702 329.644 166.701 48.1666 332.325 168.16 48.0098 
355.457 148.522 50.1695 355.287 149.597 49.6802 351.362 151.061 49.9618 
348.811 152.807 49.4175 354.936 151.962 49.1437 352.242 153.498 48.6585 
345.218 154.823 49.0186 345.542 154.556 49.2952 344.501 155.162 49.5789 
343.317 155.938 49.3697 341.422 157.053 49.4086 337.519 159.119 49.5382 
336.218 159.833 49.3413 349.653 159.898 48.3198 332.352 161.894 49.0258 
332.598 161.576 49.3746 334.148 160.869 49.3469 330.499 162.822 49.2322 
330.703 162.522 49.4887 350.242 161.492 49.0197 349.868 162.265 49.1905 
326.797 164.678 49.9893 326.409 165.112 49.8114 324.077 166.298 50.0507 
327.11 165.88 49.0969 325.96 166.583 49.2571 327.418 167.224 48.7443 
328.121 167.995 48.5865 324.665 168.77 49.2274 327.005 168.86 48.8264 
333.401 170.406 48.6578 338.161 170.086 49.1334 357.987 146.097 51.3104 
357.598 146.611 51.0034 358.478 146.024 51.1617 359.061 145.908 51.151 
358.296 147.601 50.3888 352.909 149.818 50.4472 350.615 151.229 50.5669 
345.61 154.47 49.7807 343.897 155.546 49.7867 338.165 158.762 49.985 
355.872 158.063 50.205 335.464 160.135 50.322 334.776 160.464 49.8432 
331.136 162.065 50.2719 328.069 163.816 50.0662 328.117 163.486 50.6407 
350.333 163.475 50.2651 351.604 162.772 50.5837 325.403 164.986 50.6126 
322.303 167.292 50.4714 321.598 167.214 50.9353 321.554 167.912 50.536 
343.892 168.773 50.6674 341.607 170.155 50.8049 336.12 172.447 50.1542 
337.985 171.986 50.6964 361.549 143.608 52.0158 361.525 143.158 52.368 
362.062 143.089 52.3004 359.292 144.958 51.8831 357.868 145.812 51.8328 
360.516 145.787 51.1564 355.502 147.478 51.6676 361.764 146.959 51.0762 
351.443 150.55 51.0456 349.939 151.673 50.7677 361.413 150.565 50.9437 
359.69 152.984 50.5025 361.135 152.368 51.118 343.402 156.067 50.6506 
361.066 154.27 51.8688 342.139 156.781 50.5184 358.169 156.482 50.879 
360.822 154.831 52.087 339.612 158.222 50.8649 336.852 159.492 50.5068 
333.501 161.099 51.1918 354.707 160.52 50.8929 355.792 160.177 51.4394 
354.107 161.094 50.9802 355.755 160.241 51.5722 327.513 163.711 50.8071 
353.828 161.566 51.4498 354.583 161.142 51.7121 355.086 160.813 51.8043 
325.994 164.463 51.0031 321.866 166.305 51.7999 321.356 166.834 51.4789 
349.271 165.118 51.1273 319.387 168.007 51.6452 316.527 169.146 51.9467 
347.203 166.701 51.4325 344.443 168.656 51.3864 314.121 171.322 51.4702 
318.441 171.301 50.671 342.603 169.737 51.4887 339.937 171.2 51.129 
341.381 170.406 51.2557 317.131 172.99 50.7829 336.746 173.214 51.3226 
337.402 172.9 51.5378 336.324 173.718 51.8069 333.078 174.96 50.9486 
335.2 174.551 51.8723 328.444 176.383 50.884 333.259 175.905 51.9362 
362.708 142.482 52.6472 363.838 141.785 53.0445 361.123 143.177 52.5971 
364.452 143.319 52.4024 358.343 145.302 52.4116 355.007 147.844 51.8706 
354.584 148.266 52.1213 352.445 150.12 51.932 362.731 149.924 51.5838 
350.082 151.688 51.3678 363.285 151.626 52.8046 346.503 154.479 51.4032 
362.626 152.827 52.6828 342.911 156.539 50.9369 341.617 157.508 51.3825 
358.769 157.047 52.1952 336.974 159.685 51.2103 357.316 158.464 52.1691 
332.132 161.685 51.4693 331.577 162.086 51.8901 353.522 161.935 51.9345 
326.466 164.008 52.2199 349.131 165.313 51.7513 316.224 168.775 52.4541 
346.708 167.027 51.9191 313.946 169.253 53.1539 310.523 171.141 53.0698 
311.329 171.945 52.2871 341.866 170.16 51.68 340.351 171.004 51.8856 
337.973 172.561 51.8005 336.8 173.449 52.3221 313.374 176.332 51.8108 
334.225 175.513 52.5029 316.266 177.462 51.7181 329.437 179.046 52.8647 
366.14 139.245 54.3043 366.282 139.523 54.0861 363.983 140.769 53.8195 
362.335 142.024 53.1332 362.616 141.701 53.3855 361.623 142.379 53.4884 
358.966 144.721 52.9068 367.366 144.125 53.4834 356.659 146.568 52.4632 
356.972 146.48 53.041 365.834 145.868 52.8146 367.547 145.201 53.7758 
354.206 148.766 52.3933 367.139 146.831 53.9747 363.074 152.582 53.5889 
344.291 156.219 51.6442 346.089 155.778 52.263 361.849 154.055 52.8197 
362.318 153.646 53.2683 341.57 157.973 51.8959 346.326 156.823 52.8992 
359.771 156.142 52.8946 341.004 159.024 52.5341 341.936 159.386 52.924 
336.06 160.917 52.3575 332.708 161.8 52.3012 353.434 161.971 52.2928 
353.041 162.15 52.5074 354.022 161.362 52.7115 354.519 161.082 52.5733 
327.117 163.806 52.6768 325.117 164.609 52.7806 349.622 164.738 52.1381 
349.282 164.864 52.4127 321.103 166.335 52.6575 346.436 166.956 52.4722 
315.173 168.643 53.3498 345.32 167.776 52.4404 310.182 170.764 53.6039 
344.179 168.541 52.4332 341.609 170.205 52.1683 341.087 170.379 52.4203 
342.286 169.512 52.6594 342.95 169.289 52.4215 305.786 173.209 53.7961 
338.365 172.083 52.6746 335.747 174.227 52.6949 336.285 173.673 52.8832 
335.169 174.625 53.0521 321.837 180.087 52.2822 322.841 181.575 53.0083 
364.691 139.748 54.5154 367.937 139.839 54.3198 362.348 141.622 53.9672 
363.302 140.87 54.2308 361.883 142.043 54.1571 361.193 142.681 53.8056 
360.731 143.16 54.1281 356.529 146.965 53.1385 367.521 146.209 54.0079 
354.31 149.44 53.146 365.419 148.914 53.9784 351.739 151.497 52.6436 
353.52 150.9 53.384 351.765 152.198 53.0357 364.575 150.115 53.7617 
363.795 151.266 54.0541 362.997 152.727 54.1099 361.861 154.204 53.401 
347.441 159.671 53.799 332.957 162.07 52.7313 350.14 160.055 53.9706 
354.732 160.732 52.8311 328.487 163.709 53.4765 327.798 163.708 53.1001 
341.865 162.819 53.7935 354.257 160.983 52.9568 325.83 164.414 53.2189 
349.371 164.063 53.0095 321.472 166.08 53.6255 342.462 165.213 53.9999 
347.094 165.943 52.9613 344.616 168.035 52.6807 309.503 170.53 54.3959 
343.452 168.779 52.6827 341.039 169.69 53.1405 305.694 172.235 54.7721 
300.914 174.311 55.12 302.482 174.178 54.6118 303.714 173.3 54.753 
338.085 171.955 53.0988 300.361 175.626 54.574 299.596 176.381 54.562 
334.997 174.418 53.5783 300.817 177.617 54.0701 332.934 176.602 53.7496 
306.489 181.154 53.8544 322.613 182.684 53.6685 324.822 182.999 54.5555 
325.357 182.877 54.7499 368.181 137.051 56.0878 367.716 138.1 55.2799 
369.618 138.629 55.5402 369.958 138.981 55.6376 363.601 140.491 54.6929 
362.738 141.244 54.7682 370.377 141.108 55.5051 367.613 146.408 54.2676 
367.907 146.301 54.7944 369.381 145.129 55.8127 357.973 148.674 54.9374 
358.424 149.723 55.1799 356.172 151.358 54.4767 364.195 150.439 54.78 
363.167 152.304 54.4846 361.768 154.185 53.9499 362.146 153.656 54.3083 
357.301 155.332 54.3849 356.521 156.423 54.1403 358.377 156.017 54.1651 
358.92 155.982 53.9362 358.341 156.26 54.0637 360.578 154.931 54.169 
352.094 160.135 53.8951 353.688 159.588 53.7703 334.353 162.88 53.5956 
349.952 161.826 53.7794 353.879 160.743 53.3051 329.154 163.85 53.8258 
348.94 162.795 53.6892 349.767 162.567 53.6071 326.662 164.545 54.1054 
348.635 163.405 53.578 324.359 165.525 54.718 321.113 166.32 54.5991 
335.11 166.072 54.5555 346.426 165.415 53.4567 315.613 168.124 54.6525 
334.081 168.025 54.92 342.358 167.915 53.6113 338.974 169.783 53.814 
306.148 171.71 55.3398 332.606 172.271 55.4738 300.765 174.024 55.4698 
300.996 173.704 55.7695 337.892 171.437 53.5241 333.395 173.611 55.0682 
293.961 176.456 55.798 293.708 176.278 55.915 297.813 176.525 55.0796 
294.734 177.522 55.2978 294.892 179.447 55.0569 328.283 180.942 55.0217 
324.614 183.393 54.8667 325.32 183.412 55.5176 369.279 135.883 56.9403 
369.142 135.696 57.087 369.491 135.821 57.0754 368.327 136.517 56.6243 
366.32 137.89 55.7948 369.817 137.645 56.1909 365.279 138.8 55.4955 
370.317 137.812 56.5213 370.611 138.213 56.6439 363.336 140.735 55.2913 
363.967 140.187 56.0515 371.042 140.683 56.2187 361.122 143.62 55.3874 
371.234 142.901 56.7476 370.223 144.253 56.1146 366.648 148.093 55.6481 
364.164 149.593 55.6145 365.069 149.007 55.7141 363.689 150.544 55.4085 
361.065 151.255 55.6289 362.96 151.646 55.2406 363.205 151.184 55.2955 
359.765 152.746 55.1901 363.01 152.238 54.827 362.644 152.645 54.8514 
361.178 153.865 54.762 358.241 156.181 54.1614 324.066 165.94 55.3013 
328.269 165.501 55.2265 328.957 165.502 55.1572 329.087 166.051 55.437 
329.393 166.625 55.5937 329.665 167.265 55.7289 312.431 169.036 56.2407 
314.725 168.36 55.6964 293.615 176.163 56.1161 290.439 176.992 56.9544 
293.53 175.811 56.6986 289.393 177.851 56.686 288.766 177.523 57.1006 
291.216 177.866 56.174 331.845 176.594 55.2576 289.809 179.285 56.133 
295.031 180.103 55.1188 328.618 180.529 55.3024 329.453 179.396 55.4234 
293.329 182.357 55.8283 326.913 182.288 56.0987 327.26 182.102 56.0721 
327.475 181.858 55.8956 303.884 184.186 55.2408 327.372 182.015 56.0315 
324.604 184.235 56.2158 325.23 183.671 56.0621 319.555 187.194 56.2674 
318.062 188.189 56.7426 369.419 135.481 57.4013 369.421 135.363 57.4962 
369.326 135.419 57.5391 369.472 135.428 57.526 369.529 135.673 57.2618 
369.624 135.71 57.529 368.518 136.019 57.0974 370.227 136.675 57.36 
370.81 137.718 57.7744 365.384 138.624 56.4348 365.163 138.951 56.9366 
364.637 139.691 56.9393 371.449 139.552 57.3409 371.572 139.894 57.4357 
[...]
POINT_DATA 1582
COLOR_SCALARS scalars 3
0.0509804 0.623529 0.568627 0.0509804 0.623529 0.568627 0.0509804 0.623529 0.568627 
0.0509804 0.623529 0.568627 0.0509804 0.623529 0.568627 
0.0509804 0.623529 0.568627 0.0509804 0.623529 0.568627 
0.0509804 0.623529 0.568627 0.0509804 0.623529 0.568627 
0.0509804 0.623529 0.568627 0.0509804 0.623529 0.568627 
0.0509804 0.623529 0.568627 0.0509804 0.623529 0.568627 
0.0509804 0.623529 0.568627 0.0509804 0.623529 0.568627 
0.0509804 0.623529 0.568627 0.0509804 0.623529 0.568627 
0.0509804 0.623529 0.568627 0.0509804 0.623529 0.568627 
0.0509804 0.623529 0.568627 0.0509804 0.623529 0.568627 
0.0509804 0.623529 0.568627 0.0509804 0.623529 0.568627 
0.0509804 0.623529 0.568627 0.0509804 0.623529 0.568627 
0.0509804 0.623529 0.568627 0.0509804 0.623529 0.568627 
0.0509804 0.623529 0.568627 0.0509804 0.623529 0.568627 
0.0509804 0.623529 0.568627 0.0509804 0.623529 0.568627 
0.0509804 0.623529 0.568627 0.0509804 0.623529 0.568627 
0.0509804 0.623529 0.568627 0.0509804 0.623529 0.568627 
0.0509804 0.623529 0.568627 0.0509804 0.623529 0.568627 
0.0509804 0.623529 0.568627 0.0509804 0.623529 0.568627 
0.0509804 0.623529 0.568627 0.0509804 0.623529 0.568627 
0.0509804 0.623529 0.568627 0.0509804 0.623529 0.568627 
0.0509804 0.623529 0.568627 0.0509804 0.623529 0.568627 
0.0509804 0.623529 0.568627 0.0509804 0.623529 0.568627 
0.0509804 0.623529 0.568627 0.0509804 0.623529 0.568627 
0.0509804 0.623529 0.568627 0.0509804 0.623529 0.568627 
0.0509804 0.623529 0.568627 0.0509804 0.623529 0.568627 
0.0509804 0.623529 0.568627 0.0509804 0.623529 0.568627 
0.0509804 0.623529 0.568627 0.0509804 0.623529 0.568627 
0.0509804 0.623529 0.568627 0.0509804 0.623529 0.568627 
0.0509804 0.623529 0.568627 0.0509804 0.623529 0.568627 
0.0509804 0.623529 0.568627 0.0509804 0.623529 0.568627 
0.0509804 0.623529 0.568627 0.0509804 0.623529 0.568627 
0.0509804 0.623529 0.568627 0.0509804 0.623529 0.568627 
0.0509804 0.623529 0.568627 0.0509804 0.623529 0.568627 
0.0509804 0.623529 0.568627 0.0509804 0.623529 0.568627 
0.0509804 0.623529 0.568627 0.0509804 0.623529 0.568627 
0.0509804 0.623529 0.568627 0.0509804 0.623529 0.568627 
0.0509804 0.623529 0.568627 0.0509804 0.623529 0.568627 
0.0509804 0.623529 0.568627 0.0509804 0.623529 0.568627 
0.0509804 0.623529 0.568627 0.0509804 0.623529 0.568627 
0.0509804 0.623529 0.568627 0.0509804 0.623529 0.568627 
0.0509804 0.623529 0.568627 0.0509804 0.623529 0.568627 
0.0509804 0.623529 0.568627 0.0509804 0.623529 0.568627 
0.0509804 0.623529 0.568627 0.0509804 0.623529 0.568627 
0.0509804 0.623529 0.568627 0.0509804 0.623529 0.568627 
0.0509804 0.623529 0.568627 0.0509804 0.623529 0.568627 
0.0509804 0.623529 0.568627 0.0509804 0.623529 0.568627 
0.0509804 0.623529 0.568627 0.0509804 0.623529 0.568627 
0.0509804 0.623529 0.568627 0.0509804 0.623529 0.568627 
0.0509804 0.623529 0.568627 0.0509804 0.623529 0.568627 
0.0509804 0.623529 0.568627 0.0509804 0.623529 0.568627 
0.0509804 0.623529 0.568627 0.0509804 0.623529 0.568627 
0.0509804 0.623529 0.568627 0.0509804 0.623529 0.568627 
0.0509804 0.623529 0.568627 0.0509804 0.623529 0.568627 
0.0509804 0.623529 0.568627 0.0509804 0.623529 0.568627 
0.0509804 0.623529 0.568627 0.0509804 0.623529 0.568627 
0.0509804 0.623529 0.568627 0.0509804 0.623529 0.568627 
0.0509804 0.623529 0.568627 0.0509804 0.623529 0.568627 
0.0509804 0.623529 0.568627 0.0509804 0.623529 0.568627 
0.0509804 0.623529 0.568627 0.0509804 0.623529 0.568627 
0.0509804 0.623529 0.568627 0.0509804 0.623529 0.568627 
0.0509804 0.623529 0.568627 0.0509804 0.623529 0.568627 
0.0509804 0.623529 0.568627 0.0509804 0.623529 0.568627 
0.0509804 0.623529 0.568627 0.0509804 0.623529 0.568627 
0.0509804 0.623529 0.568627 0.0509804 0.623529 0.568627 
0.0509804 0.623529 0.568627 0.0509804 0.623529 0.568627 
0.0509804 0.623529 0.568627 0.0509804 0.623529 0.568627 
0.0509804 0.623529 0.568627 0.0509804 0.623529 0.568627 
0.0509804 0.623529 0.568627 0.0509804 0.623529 0.568627 
0.0509804 0.623529 0.568627 0.0509804 0.623529 0.568627 
0.0509804 0.623529 0.568627 0.0509804 0.623529 0.568627 
0.0509804 0.623529 0.568627 0.0509804 0.623529 0.568627 
0.0509804 0.623529 0.568627 0.0509804 0.623529 0.568627 
0.0509804 0.623529 0.568627 0.0509804 0.623529 0.568627 
0.0509804 0.623529 0.568627 0.0509804 0.623529 0.568627 
0.0509804 0.623529 0.568627 0.0509804 0.623529 0.568627 
0.0509804 0.623529 0.568627 0.0509804 0.623529 0.568627 
0.0509804 0.623529 0.568627 0.0509804 0.623529 0.568627 
0.0509804 0.623529 0.568627 0.0509804 0.623529 0.568627 
0.0509804 0.623529 0.568627 0.0509804 0.623529 0.568627 
0.0509804 0.623529 0.568627 0.0509804 0.623529 0.568627 
0.0509804 0.623529 0.568627 0.0509804 0.623529 0.568627 
0.0509804 0.623529 0.568627 0.0509804 0.623529 0.568627 
0.0509804 0.623529 0.568627 0.0509804 0.623529 0.568627 
0.0509804 0.623529 0.568627 0.0509804 0.623529 0.568627 
0.0509804 0.623529 0.568627 0.0509804 0.623529 0.568627 
0.0509804 0.623529 0.568627 0.0509804 0.623529 0.568627 
0.0509804 0.623529 0.568627 0.0509804 0.623529 0.568627 
0.0509804 0.623529 0.568627 0.0509804 0.623529 0.568627 
0.0509804 0.623529 0.568627 0.0509804 0.623529 0.568627 
0.0509804 0.623529 0.568627 0.0509804 0.623529 0.568627 
0.0509804 0.623529 0.568627 0.0509804 0.623529 0.568627 
0.0509804 0.623529 0.568627 0.0509804 0.623529 0.568627 
0.0509804 0.623529 0.568627 0.0509804 0.623529 0.568627 
0.0509804 0.623529 0.568627 0.0509804 0.623529 0.568627 
0.0509804 0.623529 0.568627 0.0509804 0.623529 0.568627 
0.0509804 0.623529 0.568627 0.0509804 0.623529 0.568627 
0.0509804 0.623529 0.568627 0.0509804 0.623529 0.568627 
0.0509804 0.623529 0.568627 0.0509804 0.623529 0.568627 
0.0509804 0.623529 0.568627 0.0509804 0.623529 0.568627 
0.0509804 0.623529 0.568627 0.0509804 0.623529 0.568627 
0.0509804 0.623529 0.568627 0.0509804 0.623529 0.568627 
0.0509804 0.623529 0.568627 0.0509804 0.623529 0.568627 
0.0509804 0.623529 0.568627 0.0509804 0.623529 0.568627 
0.0509804 0.623529 0.568627 0.0509804 0.623529 0.568627 
0.0509804 0.623529 0.568627 0.0509804 0.623529 0.568627 
0.0509804 0.623529 0.568627 0.0509804 0.623529 0.568627 
0.0509804 0.623529 0.568627 0.0509804 0.623529 0.568627 
0.0509804 0.623529 0.568627 0.0509804 0.623529 0.568627 
0.0509804 0.623529 0.568627 0.0509804 0.623529 0.568627 
0.0509804 0.623529 0.568627 0.0509804 0.623529 0.568627 
0.0509804 0.623529 0.568627 0.0509804 0.623529 0.568627 
0.0509804 0.623529 0.568627 0.0509804 0.623529 0.568627 
0.0509804 0.623529 0.568627 0.0509804 0.623529 0.568627 
0.0509804 0.623529 0.568627 0.0509804 0.623529 0.568627 
0.0509804 0.623529 0.568627 0.0509804 0.623529 0.568627 
0.0509804 0.623529 0.568627 0.0509804 0.623529 0.568627 
0.0509804 0.623529 0.568627 0.0509804 0.623529 0.568627 
0.0509804 0.623529 0.568627 0.0509804 0.623529 0.568627 
0.0509804 0.623529 0.568627 0.0509804 0.623529 0.568627 
0.0509804 0.623529 0.568627 0.0509804 0.623529 0.568627 
0.0509804 0.623529 0.568627 0.0509804 0.623529 0.568627 
0.0509804 0.623529 0.568627 0.0509804 0.623529 0.568627 
0.0509804 0.623529 0.568627 0.0509804 0.623529 0.568627 
0.0509804 0.623529 0.568627 0.0509804 0.623529 0.568627 
0.0509804 0.623529 0.568627 0.0509804 0.623529 0.568627 
0.0509804 0.623529 0.568627 0.0509804 0.623529 0.568627 
0.0509804 0.623529 0.568627 0.0509804 0.623529 0.568627 
0.0509804 0.623529 0.568627 0.0509804 0.623529 0.568627 
0.0509804 0.623529 0.568627 0.0509804 0.623529 0.568627 
0.0509804 0.623529 0.568627 0.0509804 0.623529 0.568627 
0.0509804 0.623529 0.568627 0.0509804 0.623529 0.568627 
0.0509804 0.623529 0.568627 0.0509804 0.623529 0.568627 
0.0509804 0.623529 0.568627 0.0509804 0.623529 0.568627 
0.0509804 0.623529 0.568627 0.0509804 0.623529 0.568627 
0.0509804 0.623529 0.568627 0.0509804 0.623529 0.568627 
0.0509804 0.623529 0.568627 0.0509804 0.623529 0.568627 
0.0509804 0.623529 0.568627 0.0509804 0.623529 0.568627 
0.0509804 0.623529 0.568627 0.0509804 0.623529 0.568627 
0.0509804 0.623529 0.568627 0.0509804 0.623529 0.568627 
0.0509804 0.623529 0.568627 0.0509804 0.623529 0.568627 
0.0509804 0.623529 0.568627 0.0509804 0.623529 0.568627 
0.0509804 0.623529 0.568627 0.0509804 0.623529 0.568627 
0.0509804 0.623529 0.568627 0.0509804 0.623529 0.568627 
0.0509804 0.623529 0.568627 0.0509804 0.623529 0.568627 
0.0509804 0.623529 0.568627 0.0509804 0.623529 0.568627 
0.0509804 0.623529 0.568627 0.0509804 0.623529 0.568627 
0.0509804 0.623529 0.568627 0.0509804 0.623529 0.568627 
0.0509804 0.623529 0.568627 0.0509804 0.623529 0.568627 
0.0509804 0.623529 0.568627 0.0509804 0.623529 0.568627 
0.0509804 0.623529 0.568627 0.0509804 0.623529 0.568627 
0.0509804 0.623529 0.568627 0.0509804 0.623529 0.568627 
0.0509804 0.623529 0.568627 0.0509804 0.623529 0.568627 
0.0509804 0.623529 0.568627 0.0509804 0.623529 0.568627 
0.0509804 0.623529 0.568627 0.0509804 0.623529 0.568627 
0.0509804 0.623529 0.568627 0.0509804 0.623529 0.568627 
0.0509804 0.623529 0.568627 0.0509804 0.623529 0.568627 
0.0509804 0.623529 0.568627 0.0509804 0.623529 0.568627 
0.0509804 0.623529 0.568627 0.0509804 0.623529 0.568627 
0.0509804 0.623529 0.568627 0.0509804 0.623529 0.568627 
0.0509804 0.623529 0.568627 0.0509804 0.623529 0.568627 
0.0509804 0.623529 0.568627 0.0509804 0.623529 0.568627 
0.0509804 0.623529 0.568627 0.0509804 0.623529 0.568627 
0.0509804 0.623529 0.568627 0.0509804 0.623529 0.568627 
0.0509804 0.623529 0.568627 0.0509804 0.623529 0.568627 
0.0509804 0.623529 0.568627 0.0509804 0.623529 0.568627 
0.0509804 0.623529 0.568627 0.0509804 0.623529 0.568627 
0.0509804 0.623529 0.568627 0.0509804 0.623529 0.568627 
0.0509804 0.623529 0.568627 0.0509804 0.623529 0.568627 
0.0509804 0.623529 0.568627 0.0509804 0.623529 0.568627 
0.0509804 0.623529 0.568627 0.0509804 0.623529 0.568627 
0.0509804 0.623529 0.568627 0.0509804 0.623529 0.568627 
0.0509804 0.623529 0.568627 0.0509804 0.623529 0.568627 
0.0509804 0.623529 0.568627 0.0509804 0.623529 0.568627 
0.0509804 0.623529 0.568627 0.0509804 0.623529 0.568627 
0.0509804 0.623529 0.568627 0.0509804 0.623529 0.568627 
0.0509804 0.623529 0.568627 0.0509804 0.623529 0.568627 
0.0509804 0.623529 0.568627 0.0509804 0.623529 0.568627 
0.0509804 0.623529 0.568627 0.0509804 0.623529 0.568627 
0.0509804 0.623529 0.568627 0.0509804 0.623529 0.568627 
0.0509804 0.623529 0.568627 0.0509804 0.623529 0.568627 
0.0509804 0.623529 0.568627 0.0509804 0.623529 0.568627 
0.0509804 0.623529 0.568627 0.0509804 0.623529 0.568627 
0.0509804 0.623529 0.568627 0.0509804 0.623529 0.568627 
0.0509804 0.623529 0.568627 0.0509804 0.623529 0.568627 
0.0509804 0.623529 0.568627 0.0509804 0.623529 0.568627 
0.0509804 0.623529 0.568627 0.0509804 0.623529 0.568627 
0.0509804 0.623529 0.568627 0.0509804 0.623529 0.568627 
0.0509804 0.623529 0.568627 0.0509804 0.623529 0.568627 
0.0509804 0.623529 0.568627 0.0509804 0.623529 0.568627 
0.0509804 0.623529 0.568627 0.0509804 0.623529 0.568627 
0.0509804 0.623529 0.568627 0.0509804 0.623529 0.568627 
0.0509804 0.623529 0.568627 0.0509804 0.623529 0.568627 
0.0509804 0.623529 0.568627 0.0509804 0.623529 0.568627 
0.0509804 0.623529 0.568627 0.0509804 0.623529 0.568627 
0.0509804 0.623529 0.568627 0.0509804 0.623529 0.568627 
0.0509804 0.623529 0.568627 0.0509804 0.623529 0.568627 
0.0509804 0.623529 0.568627 0.0509804 0.623529 0.568627 
0.0509804 0.623529 0.568627 0.0509804 0.623529 0.568627 
0.0509804 0.623529 0.568627 0.0509804 0.623529 0.568627 
0.0509804 0.623529 0.568627 0.0509804 0.623529 0.568627 
0.0509804 0.623529 0.568627 0.0509804 0.623529 0.568627 
0.0509804 0.623529 0.568627 0.0509804 0.623529 0.568627 
0.0509804 0.623529 0.568627 0.0509804 0.623529 0.568627 
0.0509804 0.623529 0.568627 0.0509804 0.623529 0.568627 
0.0509804 0.623529 0.568627 0.0509804 0.623529 0.568627 
0.0509804 0.623529 0.568627 0.0509804 0.623529 0.568627 
0.0509804 0.623529 0.568627 0.0509804 0.623529 0.568627 
0.0509804 0.623529 0.568627 0.0509804 0.623529 0.568627 
0.0509804 0.623529 0.568627 0.0509804 0.623529 0.568627 
0.0509804 0.623529 0.568627 0.0509804 0.623529 0.568627 
0.0509804 0.623529 0.568627 0.0509804 0.623529 0.568627 
0.0509804 0.623529 0.568627 0.0509804 0.623529 0.568627 
0.0509804 0.623529 0.568627 0.0509804 0.623529 0.568627 
0.0509804 0.623529 0.568627 0.0509804 0.623529 0.568627 
0.0509804 0.623529 0.568627 0.0509804 0.623529 0.568627 
0.0509804 0.623529 0.568627 0.0509804 0.623529 0.568627 
0.0509804 0.623529 0.568627 0.0509804 0.623529 0.568627 
0.0509804 0.623529 0.568627 0.0509804 0.623529 0.568627 
0.0509804 0.623529 0.568627 0.0509804 0.623529 0.568627 
0.0509804 0.623529 0.568627 0.0509804 0.623529 0.568627 
0.0509804 0.623529 0.568627 0.0509804 0.623529 0.568627 
0.0509804 0.623529 0.568627 0.0509804 0.623529 0.568627 
0.0509804 0.623529 0.568627 0.0509804 0.623529 0.568627 
0.0509804 0.623529 0.568627 0.0509804 0.623529 0.568627 
0.0509804 0.623529 0.568627 0.0509804 0.623529 0.568627 
0.0509804 0.623529 0.568627 0.0509804 0.623529 0.568627 
0.0509804 0.623529 0.568627 0.0509804 0.623529 0.568627 
0.0509804 0.623529 0.568627 0.0509804 0.623529 0.568627 
0.0509804 0.623529 0.568627 0.0509804 0.623529 0.568627 
0.0509804 0.623529 0.568627 0.0509804 0.623529 0.568627 
0.0509804 0.623529 0.568627 0.0509804 0.623529 0.568627 
0.0509804 0.623529 0.568627 0.0509804 0.623529 0.568627 
0.0509804 0.623529 0.568627 0.0509804 0.623529 0.568627 
0.0509804 0.623529 0.568627 0.0509804 0.623529 0.568627 
0.0509804 0.623529 0.568627 0.0509804 0.623529 0.568627 
0.0509804 0.623529 0.568627 0.0509804 0.623529 0.568627 
0.0509804 0.623529 0.568627 0.0509804 0.623529 0.568627 
0.0509804 0.623529 0.568627 0.0509804 0.623529 0.568627 
0.0509804 0.623529 0.568627 0.0509804 0.623529 0.568627 
0.0509804 0.623529 0.568627 0.0509804 0.623529 0.568627 
0.0509804 0.623529 0.568627 0.0509804 0.623529 0.568627 
0.0509804 0.623529 0.568627 0.0509804 0.623529 0.568627 
0.0509804 0.623529 0.568627 0.0509804 0.623529 0.568627 
0.0509804 0.623529 0.568627 0.0509804 0.623529 0.568627 
0.0509804 0.623529 0.568627 0.0509804 0.623529 0.568627 
0.0509804 0.623529 0.568627 0.0509804 0.623529 0.568627 
0.0509804 0.623529 0.568627 0.0509804 0.623529 0.568627 
0.0509804 0.623529 0.568627 0.0509804 0.623529 0.568627 
0.0509804 0.623529 0.568627 0.0509804 0.623529 0.568627 
0.0509804 0.623529 0.568627 0.0509804 0.623529 0.568627 
0.0509804 0.623529 0.568627 0.0509804 0.623529 0.568627 
0.0509804 0.623529 0.568627 0.0509804 0.623529 0.568627 
0.0509804 0.623529 0.568627 0.0509804 0.623529 0.568627 
0.0509804 0.623529 0.568627 0.0509804 0.623529 0.568627 
0.0509804 0.623529 0.568627 0.0509804 0.623529 0.568627 
0.0509804 0.623529 0.568627 0.0509804 0.623529 0.568627 
0.0509804 0.623529 0.568627 0.0509804 0.623529 0.568627 
0.0509804 0.623529 0.568627 0.0509804 0.623529 0.568627 
0.0509804 0.623529 0.568627 0.0509804 0.623529 0.568627 
0.0509804 0.623529 0.568627 0.0509804 0.623529 0.568627 
0.0509804 0.623529 0.568627 0.0509804 0.623529 0.568627 
0.0509804 0.623529 0.568627 0.0509804 0.623529 0.568627 
0.0509804 0.623529 0.568627 0.0509804 0.623529 0.568627 
0.0509804 0.623529 0.568627 0.0509804 0.623529 0.568627 
0.0509804 0.623529 0.568627 0.0509804 0.623529 0.568627 
0.0509804 0.623529 0.568627 0.0509804 0.623529 0.568627 
0.0509804 0.623529 0.568627 0.0509804 0.623529 0.568627 
0.0509804 0.623529 0.568627 0.0509804 0.623529 0.568627 
0.0509804 0.623529 0.568627 0.0509804 0.623529 0.568627 
0.0509804 0.623529 0.568627 0.0509804 0.623529 0.568627 
0.0509804 0.623529 0.568627 0.0509804 0.623529 0.568627 
0.0509804 0.623529 0.568627 0.0509804 0.623529 0.568627 
0.0509804 0.623529 0.568627 0.0509804 0.623529 0.568627 
0.0509804 0.623529 0.568627 0.0509804 0.623529 0.568627 
0.0509804 0.623529 0.568627 0.0509804 0.623529 0.568627 
0.0509804 0.623529 0.568627 0.0509804 0.623529 0.568627 
0.0509804 0.623529 0.568627 0.0509804 0.623529 0.568627 
0.0509804 0.623529 0.568627 0.0509804 0.623529 0.568627 
0.0509804 0.623529 0.568627 0.0509804 0.623529 0.568627 
0.0509804 0.623529 0.568627 0.0509804 0.623529 0.568627 
0.0509804 0.623529 0.568627 0.0509804 0.623529 0.568627 
0.0509804 0.623529 0.568627 0.0509804 0.623529 0.568627 
0.0509804 0.623529 0.568627 0.0509804 0.623529 0.568627 
0.0509804 0.623529 0.568627 0.0509804 0.623529 0.568627 
0.0509804 0.623529 0.568627 0.0509804 0.623529 0.568627 
0.0509804 0.623529 0.568627 0.0509804 0.623529 0.568627 
0.0509804 0.623529 0.568627 0.0509804 0.623529 0.568627 
0.0509804 0.623529 0.568627 0.0509804 0.623529 0.568627 
0.0509804 0.623529 0.568627 0.0509804 0.623529 0.568627 
0.0509804 0.623529 0.568627 0.0509804 0.623529 0.568627 
0.0509804 0.623529 0.568627 0.0509804 0.623529 0.568627 
0.0509804 0.623529 0.568627 0.0509804 0.623529 0.568627 
0.0509804 0.623529 0.568627 0.0509804 0.623529 0.568627 
0.0509804 0.623529 0.568627 0.0509804 0.623529 0.568627 
0.0509804 0.623529 0.568627 0.0509804 0.623529 0.568627 
0.0509804 0.623529 0.568627 0.0509804 0.623529 0.568627 
0.0509804 0.623529 0.568627 0.0509804 0.623529 0.568627 
0.0509804 0.623529 0.568627 0.0509804 0.623529 0.568627 
0.0509804 0.623529 0.568627 0.0509804 0.623529 0.568627 
0.0509804 0.623529 0.568627 0.0509804 0.623529 0.568627 
0.0509804 0.623529 0.568627 0.0509804 0.623529 0.568627 
0.0509804 0.623529 0.568627 0.0509804 0.623529 0.568627 
0.0509804 0.623529 0.568627 0.0509804 0.623529 0.568627 
0.0509804 0.623529 0.568627 0.0509804 0.623529 0.568627 
0.0509804 0.623529 0.568627 0.0509804 0.623529 0.568627 
0.0509804 0.623529 0.568627 0.0509804 0.623529 0.568627 
0.0509804 0.623529 0.568627 0.0509804 0.623529 0.568627 
0.0509804 0.623529 0.568627 0.0509804 0.623529 0.568627 
0.0509804 0.623529 0.568627 0.0509804 0.623529 0.568627 
0.0509804 0.623529 0.568627 0.0509804 0.623529 0.568627 
0.0509804 0.623529 0.568627 0.0509804 0.623529 0.568627 
0.0509804 0.623529 0.568627 0.0509804 0.623529 0.568627 
0.0509804 0.623529 0.568627 0.0509804 0.623529 0.568627 
0.0509804 0.623529 0.568627 0.0509804 0.623529 0.568627 
0.0509804 0.623529 0.568627 0.0509804 0.623529 0.568627 
0.0509804 0.623529 0.568627 0.0509804 0.623529 0.568627 
0.0509804 0.623529 0.568627 0.0509804 0.623529 0.568627 
0.0509804 0.623529 0.568627 0.0509804 0.623529 0.568627 
0.0509804 0.623529 0.568627 0.0509804 0.623529 0.568627 
0.0509804 0.623529 0.568627 0.0509804 0.623529 0.568627 
0.0509804 0.623529 0.568627 0.0509804 0.623529 0.568627 
0.0509804 0.623529 0.568627 0.0509804 0.623529 0.568627 
0.0509804 0.623529 0.568627 0.0509804 0.623529 0.568627 
0.0509804 0.623529 0.568627 0.0509804 0.623529 0.568627 
0.0509804 0.623529 0.568627 0.0509804 0.623529 0.568627 
0.0509804 0.623529 0.568627 0.0509804 0.623529 0.568627 
0.0509804 0.623529 0.568627 0.0509804 0.623529 0.568627 
0.0509804 0.623529 0.568627 0.0509804 0.623529 0.568627 
0.0509804 0.623529 0.568627 0.0509804 0.623529 0.568627 
0.0509804 0.623529 0.568627 0.0509804 0.623529 0.568627 
0.0509804 0.623529 0.568627 0.0509804 0.623529 0.568627 
0.0509804 0.623529 0.568627 0.0509804 0.623529 0.568627 
0.0509804 0.623529 0.568627 0.0509804 0.623529 0.568627 
0.0509804 0.623529 0.568627 0.0509804 0.623529 0.568627 
0.0509804 0.623529 0.568627 0.0509804 0.623529 0.568627 
0.0509804 0.623529 0.568627 0.0509804 0.623529 0.568627 
0.0509804 0.623529 0.568627 0.0509804 0.623529 0.568627 
0.0509804 0.623529 0.568627 0.0509804 0.623529 0.568627 
0.0509804 0.623529 0.568627 0.0509804 0.623529 0.568627 
0.0509804 0.623529 0.568627 0.0509804 0.623529 0.568627 
0.0509804 0.623529 0.568627 0.0509804 0.623529 0.568627 
0.0509804 0.623529 0.568627 0.0509804 0.623529 0.568627 
0.0509804 0.623529 0.568627 0.0509804 0.623529 0.568627 
0.0509804 0.623529 0.568627 0.0509804 0.623529 0.568627 
0.0509804 0.623529 0.568627 0.0509804 0.623529 0.568627 
0.0509804 0.623529 0.568627 0.0509804 0.623529 0.568627 
0.0509804 0.623529 0.568627 0.0509804 0.623529 0.568627 
0.0509804 0.623529 0.568627 0.0509804 0.623529 0.568627 