# vtk DataFile Version 4.2
vtk output
ASCII
DATASET POLYDATA
POINTS 2262 float
334.822 187.641 46.5722 333.16 189.545 46.4285 348.777 178.01 48.1322 
350.186 177.832 47.8711 350.865 178.498 47.3841 345.604 179.639 48.0827 
345.225 180.199 47.7891 346.52 179.382 47.9166 348.797 179.852 47.0984 
351.496 179.222 47.1395 343.335 181.253 47.7719 342.192 182.353 47.5418 
341.838 181.731 48.1205 344.183 182.071 47.1141 338.078 184.224 47.7668 
340.757 184.743 46.8599 336.639 185.46 47.3453 340.226 186.556 46.4507 
330.873 188.783 47.4265 330.312 188.381 47.9037 331.061 189.567 47.0423 
323.175 193.569 47.4552 324.799 194.21 47.2469 331.512 193.556 46.8316 
352.666 175.615 48.8196 350.242 176.926 48.6483 353.849 176.774 47.8842 
354.525 177.486 47.6148 346.994 178.674 48.2855 343.369 180.458 48.4337 
355.083 180.117 47.2118 341.595 181.377 48.6864 340.302 182.162 48.6696 
339.864 182.763 48.2537 339.06 183.023 48.5145 332.877 186.413 48.3315 
331.446 187.072 48.6333 322.933 191.068 48.7585 318.089 194.139 48.7999 
317.714 193.585 49.3243 320.936 193.79 48.0315 318.081 194.811 48.5055 
320.251 195.125 47.9971 318.346 195.889 48.2281 361.75 168.542 49.9235 
358.517 171.301 49.8084 350.335 176.326 49.5161 347.458 178.114 48.7112 
347.776 177.723 49.3653 349.096 177.122 49.2388 346.447 178.334 49.4063 
346.035 178.638 49.0945 344.48 179.685 48.6416 344.033 179.789 48.8713 
342.152 180.875 49.0211 339.244 182.61 49.0048 336.577 184.169 48.9207 
336.022 184.373 49.2141 362.565 183.791 48.2723 329.984 187.56 49.1507 
321.494 191.413 49.1803 322.197 190.765 49.6689 315.111 194.9 49.6236 
311.007 197.005 49.572 310.427 196.608 49.9818 315.705 196.415 48.7951 
306.892 198.138 49.859 306.499 197.529 50.4261 319.359 197.267 48.1715 
304.172 198.27 50.4863 310.507 198.461 49.0881 301.267 199.534 50.4266 
303.157 200.103 49.76 310.909 199.881 48.8934 364.97 164.007 51.1058 
365.446 163.779 51.0012 363.753 165.403 51.1294 362.547 167.106 50.59 
364.132 167.013 50.0453 364.815 166.767 50.0221 366.927 166.574 49.9296 
360.921 168.648 50.4385 363.847 168.661 49.4288 359.974 169.85 50.0649 
360.424 168.96 50.6088 357.183 171.894 50.0838 358.152 171.042 50.3872 
356.528 172.273 50.3099 353.016 174.778 49.7059 349.284 176.885 49.8137 
347.022 178.032 49.7222 345.056 179.088 49.7367 343.342 180.022 49.3176 
340.815 181.508 49.4666 338.64 182.928 49.788 333.76 185.49 49.5393 
332.69 186.067 49.5566 330.393 187.25 49.4389 320.711 191.307 50.0199 
315.11 194.067 50.4807 303.454 198.086 50.9657 302.903 198.465 50.7253 
296.14 201.582 51.0396 295.585 201.378 51.3711 296.413 202.037 50.8258 
300.182 202.1 50.0848 309.776 202.878 49.3253 315.586 203.828 49.5949 
366.537 161.747 51.4731 367.861 161.631 51.0452 365.53 162.437 51.8063 
363.184 165.807 51.3396 362.65 166.293 51.5208 360.729 168.48 50.9582 
359.692 169.466 51.1654 358.662 170.406 51.0775 357.743 171.237 50.87 
356.118 172.546 50.8429 353.696 174.307 50.6432 350.914 175.842 50.2736 
350.625 176.043 50.4713 347.019 178.132 50.2922 348.341 177.598 50.5381 
345.642 178.762 50.0054 346.513 178.507 50.5362 343.406 179.984 49.738 
343.222 180.172 50.207 342.764 180.373 49.9379 342.379 180.689 50.2211 
337.361 183.757 50.4647 335.822 184.467 50.2661 335.504 184.708 50.5553 
331.924 186.433 50.5451 322.694 190.193 50.7596 321.262 190.707 51.198 
315.876 193.316 51.1385 310.821 195.489 51.1357 312.857 194.697 51.1111 
306.732 196.735 51.3505 299.692 199.421 51.3121 293.076 202.032 51.9166 
295.3 201.013 51.7687 293.004 202.747 51.5397 296.842 202.699 50.6291 
293.557 203.504 51.1672 284.991 204.612 52.6092 285.468 204.181 52.6125 
318.109 204.485 49.8855 370.646 152.956 53.1365 371.403 152.61 52.8454 
370.179 153.464 53.2668 370.041 154.191 52.9618 369.654 154.794 52.9735 
372.11 153.729 52.3338 369.614 155.775 52.5053 370.829 155.592 52.136 
371.459 156.302 51.902 365.902 161.032 52.4002 363.891 164.424 52.1125 
363.481 164.965 52.347 362.59 166.261 52.1622 361.606 167.439 51.8481 
359.187 169.984 51.3911 358.24 170.836 51.2758 355.542 173.067 51.0536 
356.708 172.285 51.3463 354.396 173.93 50.9515 353.167 174.83 50.9625 
351.272 176.084 51.1718 351.958 175.847 51.3634 350.019 177.185 51.3228 
348.049 178.584 51.5504 343.373 180.342 50.6523 346.26 179.612 51.5732 
344.294 180.678 51.5341 335.59 184.831 50.9463 336.026 184.821 51.2515 
331.789 186.585 50.9441 332.748 186.431 51.4919 327.832 188.285 51.0646 
320.305 191.105 52.0738 321.727 190.498 51.7002 311.523 194.813 52.4053 
303.642 197.391 52.337 295.847 200.32 52.2419 287.254 202.888 53.0617 
283.255 205.929 53.4551 284.42 205.475 52.7509 289.476 205.656 51.4585 
374.657 145.499 53.9795 373.983 145.878 54.2066 375.598 147.071 53.5259 
373.222 148.587 53.6761 372.821 147.937 54.133 372.826 151.503 52.9273 
369.945 153.253 53.8128 374.189 153.057 52.5948 368.932 155.284 53.6152 
365.412 161.783 52.7861 363.171 165.609 52.7669 362.112 166.933 52.3022 
379.65 166.194 52.8157 360.422 168.866 52.0351 358.411 171.025 51.8768 
355.673 173.41 51.6529 357.302 172.59 52.2442 357.912 173.171 52.9283 
355.909 174.27 52.4338 355.896 175.007 52.7574 351.564 177.629 52.3129 
355.5 176.814 53.2207 346.658 180.088 52.0128 344.672 181.847 52.3551 
341.523 183.535 52.3288 336.316 185.173 51.7838 334.427 186.061 51.9015 
325.877 189.491 52.7337 373.283 188.852 52.6883 321.942 190.454 52.2924 
315.964 193.058 52.9651 311.426 194.831 53.0335 295.529 200.172 52.692 
291.71 201.284 53.3111 285.296 203.429 53.5717 283.735 204.677 53.6739 
283.075 205.631 53.7813 283.253 206.56 53.4536 282.764 207.408 54.0267 
283.067 207.641 53.799 283.23 207.911 53.8074 285.234 208.117 52.9352 
288.845 209.875 52.8048 289.87 209.939 52.6069 288.69 210.505 53.2491 
290.621 211.337 53.2758 375.879 141.937 55.157 375.67 142.365 55.0026 
376.327 141.851 55.0897 374.807 143.253 55.0104 373.905 144.824 54.8063 
372.827 147.364 54.4359 371.841 148.976 54.498 370.818 151.088 54.458 
369.86 153.186 54.412 369.213 154.605 54.1043 368.172 156.627 53.8404 
364.721 163.37 53.5258 360.917 169.056 52.8855 362.222 168.57 53.7549 
357.894 180.287 54.4986 331.241 189.208 53.6651 321.644 190.812 53.0607 
309.748 195.352 53.3955 310.853 195.18 54.0984 295.125 199.757 54.3325 
286.876 202.433 54.2043 283.78 204.101 54.495 282.473 206.052 54.6888 
282.211 207.009 54.8302 283.874 209.484 54.8947 285.936 209.907 53.9012 
285.728 210.541 55.0088 287.884 210.846 53.9055 288.853 211.511 54.2231 
289.834 212.444 55.0407 293.629 213.337 54.1535 305.917 214.975 53.2353 
378.552 139.794 56.0046 376.704 140.654 55.6851 379.385 142.049 55.314 
373.686 144.743 55.2603 372.25 147.831 55.0873 371.024 150.46 54.8487 
370.529 151.668 54.7421 370.202 152.498 54.8777 369.556 153.918 54.5783 
368.882 155.54 54.7006 364.107 165.013 53.8273 365.653 164.129 54.9096 
384.442 172.4 54.8131 383.943 178.616 55.1153 321.902 190.993 53.5259 
350.388 189.256 55.4766 319.136 191.959 53.8315 320.081 192.052 54.3304 
309.232 195.674 54.322 310.734 195.44 54.6736 284.352 203.405 55.0449 
282.022 207.208 55.4675 281.972 207.825 55.5656 282.124 208.067 55.6417 
289.541 212.436 55.3475 331.415 213.654 54.7349 293.49 213.964 55.4961 
298.296 215.628 55.1547 299.645 216.359 55.5697 301.545 217.092 55.8311 
302.983 217.221 55.3492 376.136 140.739 55.9654 375.648 141.26 55.9809 
381.386 142.953 55.8435 372.787 146.581 56.0639 371.885 148.73 55.689 
371.592 149.237 55.3051 370.954 150.609 55.1958 371.079 150.627 55.5601 
370.587 151.874 55.3711 369.616 154.66 55.4077 319.534 192.982 55.0547 
321.04 193.353 55.4935 311.519 195.593 55.1856 312.403 195.281 55.006 
308.447 196.28 55.2266 296.012 199.463 55.6645 291.842 200.609 55.7946 
286.658 202.138 55.7488 282.462 205.431 55.8251 281.952 207.811 55.7429 
281.975 207.662 56.1966 282.307 208.585 56.1691 292.577 213.796 56.3098 
294.252 214.347 56.0267 299.928 216.734 56.3181 302.078 217.592 56.8931 
303.644 217.983 56.5365 305.23 218.656 57.0238 315.792 219.015 55.5794 
307.966 219.477 56.9573 380.737 137.147 57.4682 379.261 137.176 57.9194 
374.933 141.83 56.5281 374.663 142.273 56.7092 372.718 146.963 56.277 
372.243 148.578 56.2909 372.072 149.578 56.5105 371.517 150.973 56.389 
311.399 196.116 55.7815 314.321 195.844 55.9841 310.218 196.849 56.3154 
310.444 197.344 56.7301 311.907 197.189 56.6887 295.858 199.589 56.1673 
296.077 199.785 56.8303 293.336 200.186 55.991 289.571 201.239 56.3442 
284.748 203.026 56.7691 369.607 203.335 57.0847 287.179 211.491 56.9051 
292.584 213.688 57.4979 299.387 216.57 57.1899 308.521 219.826 57.607 
382.583 133.683 59.0107 383.025 134.392 58.6832 380.066 135.693 58.7885 
379.584 136.005 58.9031 373.891 147.283 57.8447 373.131 149.475 57.5379 
372.444 168.874 58.1147 382.483 188.606 57.5323 301.766 198.87 56.87 
312.239 198.377 57.2926 295.519 200.131 57.3131 294.896 200.157 57.1523 
296.82 199.978 57.3287 292.89 200.482 56.8432 308.172 200.811 58.2132 
311.73 200.665 58.0839 286.771 202.239 57.5343 282.124 206.146 57.6115 
282.093 207.528 58.0584 282.528 208.528 58.0044 295.628 214.841 58.0131 
299.909 216.755 57.9255 303.306 218.111 58.2017 305.663 219.055 58.3066 
322.738 221.524 58.0311 383.643 134.741 58.6494 385.175 135.997 58.8087 
376.306 140.208 58.3623 374.316 149.664 58.3954 362.161 192.707 59.433 
293.11 200.838 57.6726 295.591 200.928 58.1777 290.805 201.494 58.0772 
326.923 200.985 58.6095 283.491 204.617 58.4527 282.586 205.491 58.1779 
282.095 207.038 58.3497 312.183 205.738 59.6256 283.719 209.423 58.4604 
286.496 210.674 58.6576 286.844 210.984 58.3051 301.225 217.132 58.9146 
303.377 218.036 59.1399 305.584 218.985 59.4026 327.893 221.091 58.3355 
321.233 222.409 58.9988 382.317 131.811 60.4408 391.009 155.182 59.3493 
391.995 154.716 60.1151 286.287 203.188 58.8644 284.579 204.17 59.0002 
289.075 203.766 59.8689 290.667 204.518 60.1427 282.268 207.048 58.9773 
282.341 207.444 59.1331 282.353 207.717 58.9556 282.47 207.712 59.218 
284.465 209.341 59.3249 287.736 210.883 59.1555 298.828 215.846 59.318 
[...]
POINT_DATA 2262
COLOR_SCALARS scalars 3
0.196078 0.721569 0.145098 0.196078 0.721569 0.145098 0.196078 0.721569 0.145098 
0.196078 0.721569 0.145098 0.196078 0.721569 0.145098 
0.196078 0.721569 0.145098 0.196078 0.721569 0.145098 
0.196078 0.721569 0.145098 0.196078 0.721569 0.145098 
0.196078 0.721569 0.145098 0.196078 0.721569 0.145098 
0.196078 0.721569 0.145098 0.196078 0.721569 0.145098 
0.196078 0.721569 0.145098 0.196078 0.721569 0.145098 
0.196078 0.721569 0.145098 0.196078 0.721569 0.145098 
0.196078 0.721569 0.145098 0.196078 0.721569 0.145098 
0.196078 0.721569 0.145098 0.196078 0.721569 0.145098 
0.196078 0.721569 0.145098 0.196078 0.721569 0.145098 
0.196078 0.721569 0.145098 0.196078 0.721569 0.145098 
0.196078 0.721569 0.145098 0.196078 0.721569 0.145098 
0.196078 0.721569 0.145098 0.196078 0.721569 0.145098 
0.196078 0.721569 0.145098 0.196078 0.721569 0.145098 
0.196078 0.721569 0.145098 0.196078 0.721569 0.145098 
0.196078 0.721569 0.145098 0.196078 0.721569 0.145098 
0.196078 0.721569 0.145098 0.196078 0.721569 0.145098 
0.196078 0.721569 0.145098 0.196078 0.721569 0.145098 
0.196078 0.721569 0.145098 0.196078 0.721569 0.145098 
0.196078 0.721569 0.145098 0.196078 0.721569 0.145098 
0.196078 0.721569 0.145098 0.196078 0.721569 0.145098 
0.196078 0.721569 0.145098 0.196078 0.721569 0.145098 
0.196078 0.721569 0.145098 0.196078 0.721569 0.145098 
0.196078 0.721569 0.145098 0.196078 0.721569 0.145098 
0.196078 0.721569 0.145098 0.196078 0.721569 0.145098 
0.196078 0.721569 0.145098 0.196078 0.721569 0.145098 
0.196078 0.721569 0.145098 0.196078 0.721569 0.145098 
0.196078 0.721569 0.145098 0.196078 0.721569 0.145098 
0.196078 0.721569 0.145098 0.196078 0.721569 0.145098 
0.196078 0.721569 0.145098 0.196078 0.721569 0.145098 
0.196078 0.721569 0.145098 0.196078 0.721569 0.145098 
0.196078 0.721569 0.145098 0.196078 0.721569 0.145098 
0.196078 0.721569 0.145098 0.196078 0.721569 0.145098 
0.196078 0.721569 0.145098 0.196078 0.721569 0.145098 
0.196078 0.721569 0.145098 0.196078 0.721569 0.145098 
0.196078 0.721569 0.145098 0.196078 0.721569 0.145098 
0.196078 0.721569 0.145098 0.196078 0.721569 0.145098 
0.196078 0.721569 0.145098 0.196078 0.721569 0.145098 
0.196078 0.721569 0.145098 0.196078 0.721569 0.145098 
0.196078 0.721569 0.145098 0.196078 0.721569 0.145098 
0.196078 0.721569 0.145098 0.196078 0.721569 0.145098 
0.196078 0.721569 0.145098 0.196078 0.721569 0.145098 
0.196078 0.721569 0.145098 0.196078 0.721569 0.145098 
0.196078 0.721569 0.145098 0.196078 0.721569 0.145098 
0.196078 0.721569 0.145098 0.196078 0.721569 0.145098 
0.196078 0.721569 0.145098 0.196078 0.721569 0.145098 
0.196078 0.721569 0.145098 0.196078 0.721569 0.145098 
0.196078 0.721569 0.145098 0.196078 0.721569 0.145098 
0.196078 0.721569 0.145098 0.196078 0.721569 0.145098 
0.196078 0.721569 0.145098 0.196078 0.721569 0.145098 
0.196078 0.721569 0.145098 0.196078 0.721569 0.145098 
0.196078 0.721569 0.145098 0.196078 0.721569 0.145098 
0.196078 0.721569 0.145098 0.196078 0.721569 0.145098 
0.196078 0.721569 0.145098 0.196078 0.721569 0.145098 
0.196078 0.721569 0.145098 0.196078 0.721569 0.145098 
0.196078 0.721569 0.145098 0.196078 0.721569 0.145098 
0.196078 0.721569 0.145098 0.196078 0.721569 0.145098 
0.196078 0.721569 0.145098 0.196078 0.721569 0.145098 
0.196078 0.721569 0.145098 0.196078 0.721569 0.145098 
0.196078 0.721569 0.145098 0.196078 0.721569 0.145098 
0.196078 0.721569 0.145098 0.196078 0.721569 0.145098 
0.196078 0.721569 0.145098 0.196078 0.721569 0.145098 
0.196078 0.721569 0.145098 0.196078 0.721569 0.145098 
0.196078 0.721569 0.145098 0.196078 0.721569 0.145098 
0.196078 0.721569 0.145098 0.196078 0.721569 0.145098 
0.196078 0.721569 0.145098 0.196078 0.721569 0.145098 
0.196078 0.721569 0.145098 0.196078 0.721569 0.145098 
0.196078 0.721569 0.145098 0.196078 0.721569 0.145098 
0.196078 0.721569 0.145098 0.196078 0.721569 0.145098 
0.196078 0.721569 0.145098 0.196078 0.721569 0.145098 
0.196078 0.721569 0.145098 0.196078 0.721569 0.145098 
0.196078 0.721569 0.145098 0.196078 0.721569 0.145098 
0.196078 0.721569 0.145098 0.196078 0.721569 0.145098 
0.196078 0.721569 0.145098 0.196078 0.721569 0.145098 
0.196078 0.721569 0.145098 0.196078 0.721569 0.145098 
0.196078 0.721569 0.145098 0.196078 0.721569 0.145098 
0.196078 0.721569 0.145098 0.196078 0.721569 0.145098 
0.196078 0.721569 0.145098 0.196078 0.721569 0.145098 
0.196078 0.721569 0.145098 0.196078 0.721569 0.145098 
0.196078 0.721569 0.145098 0.196078 0.721569 0.145098 
0.196078 0.721569 0.145098 0.196078 0.721569 0.145098 
0.196078 0.721569 0.145098 0.196078 0.721569 0.145098 
0.196078 0.721569 0.145098 0.196078 0.721569 0.145098 
0.196078 0.721569 0.145098 0.196078 0.721569 0.145098 
0.196078 0.721569 0.145098 0.196078 0.721569 0.145098 
0.196078 0.721569 0.145098 0.196078 0.721569 0.145098 
0.196078 0.721569 0.145098 0.196078 0.721569 0.145098 
0.196078 0.721569 0.145098 0.196078 0.721569 0.145098 
0.196078 0.721569 0.145098 0.196078 0.721569 0.145098 
0.196078 0.721569 0.145098 0.196078 0.721569 0.145098 
0.196078 0.721569 0.145098 0.196078 0.721569 0.145098 
0.196078 0.721569 0.145098 0.196078 0.721569 0.145098 
0.196078 0.721569 0.145098 0.196078 0.721569 0.145098 
0.196078 0.721569 0.145098 0.196078 0.721569 0.145098 
0.196078 0.721569 0.145098 0.196078 0.721569 0.145098 
0.196078 0.721569 0.145098 0.196078 0.721569 0.145098 
0.196078 0.721569 0.145098 0.196078 0.721569 0.145098 
0.196078 0.721569 0.145098 0.196078 0.721569 0.145098 
0.196078 0.721569 0.145098 0.196078 0.721569 0.145098 
0.196078 0.721569 0.145098 0.196078 0.721569 0.145098 
0.196078 0.721569 0.145098 0.196078 0.721569 0.145098 
0.196078 0.721569 0.145098 0.196078 0.721569 0.145098 
0.196078 0.721569 0.145098 0.196078 0.721569 0.145098 
0.196078 0.721569 0.145098 0.196078 0.721569 0.145098 
0.196078 0.721569 0.145098 0.196078 0.721569 0.145098 
0.196078 0.721569 0.145098 0.196078 0.721569 0.145098 
0.196078 0.721569 0.145098 0.196078 0.721569 0.145098 
0.196078 0.721569 0.145098 0.196078 0.721569 0.145098 
0.196078 0.721569 0.145098 0.196078 0.721569 0.145098 
0.196078 0.721569 0.145098 0.196078 0.721569 0.145098 
0.196078 0.721569 0.145098 0.196078 0.721569 0.145098 
0.196078 0.721569 0.145098 0.196078 0.721569 0.145098 
0.196078 0.721569 0.145098 0.196078 0.721569 0.145098 
0.196078 0.721569 0.145098 0.196078 0.721569 0.145098 
0.196078 0.721569 0.145098 0.196078 0.721569 0.145098 
0.196078 0.721569 0.145098 0.196078 0.721569 0.145098 
0.196078 0.721569 0.145098 0.196078 0.721569 0.145098 
0.196078 0.721569 0.145098 0.196078 0.721569 0.145098 
0.196078 0.721569 0.145098 0.196078 0.721569 0.145098 
0.196078 0.721569 0.145098 0.196078 0.721569 0.145098 
0.196078 0.721569 0.145098 0.196078 0.721569 0.145098 
0.196078 0.721569 0.145098 0.196078 0.721569 0.145098 
0.196078 0.721569 0.145098 0.196078 0.721569 0.145098 
0.196078 0.721569 0.145098 0.196078 0.721569 0.145098 
0.196078 0.721569 0.145098 0.196078 0.721569 0.145098 
0.196078 0.721569 0.145098 0.196078 0.721569 0.145098 
0.196078 0.721569 0.145098 0.196078 0.721569 0.145098 
0.196078 0.721569 0.145098 0.196078 0.721569 0.145098 
0.196078 0.721569 0.145098 0.196078 0.721569 0.145098 
0.196078 0.721569 0.145098 0.196078 0.721569 0.145098 
0.196078 0.721569 0.145098 0.196078 0.721569 0.145098 
0.196078 0.721569 0.145098 0.196078 0.721569 0.145098 
0.196078 0.721569 0.145098 0.196078 0.721569 0.145098 
0.196078 0.721569 0.145098 0.196078 0.721569 0.145098 
0.196078 0.721569 0.145098 0.196078 0.721569 0.145098 
0.196078 0.721569 0.145098 0.196078 0.721569 0.145098 
0.196078 0.721569 0.145098 0.196078 0.721569 0.145098 
0.196078 0.721569 0.145098 0.196078 0.721569 0.145098 
0.196078 0.721569 0.145098 0.196078 0.721569 0.145098 
0.196078 0.721569 0.145098 0.196078 0.721569 0.145098 
0.196078 0.721569 0.145098 0.196078 0.721569 0.145098 
0.196078 0.721569 0.145098 0.196078 0.721569 0.145098 
0.196078 0.721569 0.145098 0.196078 0.721569 0.145098 
0.196078 0.721569 0.145098 0.196078 0.721569 0.145098 
0.196078 0.721569 0.145098 0.196078 0.721569 0.145098 
0.196078 0.721569 0.145098 0.196078 0.721569 0.145098 
0.196078 0.721569 0.145098 0.196078 0.721569 0.145098 
0.196078 0.721569 0.145098 0.196078 0.721569 0.145098 
0.196078 0.721569 0.145098 0.196078 0.721569 0.145098 
0.196078 0.721569 0.145098 0.196078 0.721569 0.145098 
0.196078 0.721569 0.145098 0.196078 0.721569 0.145098 
0.196078 0.721569 0.145098 0.196078 0.721569 0.145098 
0.196078 0.721569 0.145098 0.196078 0.721569 0.145098 
0.196078 0.721569 0.145098 0.196078 0.721569 0.145098 
0.196078 0.721569 0.145098 0.196078 0.721569 0.145098 
0.196078 0.721569 0.145098 0.196078 0.721569 0.145098 
0.196078 0.721569 0.145098 0.196078 0.721569 0.145098 
0.196078 0.721569 0.145098 0.196078 0.721569 0.145098 
0.196078 0.721569 0.145098 0.196078 0.721569 0.145098 
0.196078 0.721569 0.145098 0.196078 0.721569 0.145098 
0.196078 0.721569 0.145098 0.196078 0.721569 0.145098 
0.196078 0.721569 0.145098 0.196078 0.721569 0.145098 
0.196078 0.721569 0.145098 0.196078 0.721569 0.145098 
0.196078 0.721569 0.145098 0.196078 0.721569 0.145098 
0.196078 0.721569 0.145098 0.196078 0.721569 0.145098 
0.196078 0.721569 0.145098 0.196078 0.721569 0.145098 
0.196078 0.721569 0.145098 0.196078 0.721569 0.145098 
0.196078 0.721569 0.145098 0.196078 0.721569 0.145098 
0.196078 0.721569 0.145098 0.196078 0.721569 0.145098 
0.196078 0.721569 0.145098 0.196078 0.721569 0.145098 
0.196078 0.721569 0.145098 0.196078 0.721569 0.145098 
0.196078 0.721569 0.145098 0.196078 0.721569 0.145098 
0.196078 0.721569 0.145098 0.196078 0.721569 0.145098 
0.196078 0.721569 0.145098 0.196078 0.721569 0.145098 
0.196078 0.721569 0.145098 0.196078 0.721569 0.145098 
0.196078 0.721569 0.145098 0.196078 0.721569 0.145098 
0.196078 0.721569 0.145098 0.196078 0.721569 0.145098 
0.196078 0.721569 0.145098 0.196078 0.721569 0.145098 
0.196078 0.721569 0.145098 0.196078 0.721569 0.145098 
0.196078 0.721569 0.145098 0.196078 0.721569 0.145098 
0.196078 0.721569 0.145098 0.196078 0.721569 0.145098 
0.196078 0.721569 0.145098 0.196078 0.721569 0.145098 
0.196078 0.721569 0.145098 0.196078 0.721569 0.145098 
0.196078 0.721569 0.145098 0.196078 0.721569 0.145098 
0.196078 0.721569 0.145098 0.196078 0.721569 0.145098 
0.196078 0.721569 0.145098 0.196078 0.721569 0.145098 
0.196078 0.721569 0.145098 0.196078 0.721569 0.145098 
0.196078 0.721569 0.145098 0.196078 0.721569 0.145098 
0.196078 0.721569 0.145098 0.196078 0.721569 0.145098 
0.196078 0.721569 0.145098 0.196078 0.721569 0.145098 
0.196078 0.721569 0.145098 0.196078 0.721569 0.145098 
0.196078 0.721569 0.145098 0.196078 0.721569 0.145098 
0.196078 0.721569 0.145098 0.196078 0.721569 0.145098 
0.196078 0.721569 0.145098 0.196078 0.721569 0.145098 
0.196078 0.721569 0.145098 0.196078 0.721569 0.145098 
0.196078 0.721569 0.145098 0.196078 0.721569 0.145098 
0.196078 0.721569 0.145098 0.196078 0.721569 0.145098 
0.196078 0.721569 0.145098 0.196078 0.721569 0.145098 
0.196078 0.721569 0.145098 0.196078 0.721569 0.145098 
0.196078 0.721569 0.145098 0.196078 0.721569 0.145098 
0.196078 0.721569 0.145098 0.196078 0.721569 0.145098 
0.196078 0.721569 0.145098 0.196078 0.721569 0.145098 
0.196078 0.721569 0.145098 0.196078 0.721569 0.145098 
0.196078 0.721569 0.145098 0.196078 0.721569 0.145098 
0.196078 0.721569 0.145098 0.196078 0.721569 0.145098 
0.196078 0.721569 0.145098 0.196078 0.721569 0.145098 
0.196078 0.721569 0.145098 0.196078 0.721569 0.145098 
0.196078 0.721569 0.145098 0.196078 0.721569 0.145098 
0.196078 0.721569 0.145098 0.196078 0.721569 0.145098 
0.196078 0.721569 0.145098 0.196078 0.721569 0.145098 
0.196078 0.721569 0.145098 0.196078 0.721569 0.145098 
0.196078 0.721569 0.145098 0.196078 0.721569 0.145098 
0.196078 0.721569 0.145098 0.196078 0.721569 0.145098 
0.196078 0.721569 0.145098 0.196078 0.721569 0.145098 
0.196078 0.721569 0.145098 0.196078 0.721569 0.145098 
0.196078 0.721569 0.145098 0.196078 0.721569 0.145098 
0.196078 0.721569 0.145098 0.196078 0.721569 0.145098 
0.196078 0.721569 0.145098 0.196078 0.721569 0.145098 
0.196078 0.721569 0.145098 0.196078 0.721569 0.145098 
0.196078 0.721569 0.145098 0.196078 0.721569 0.145098 
0.196078 0.721569 0.145098 0.196078 0.721569 0.145098 
0.196078 0.721569 0.145098 0.196078 0.721569 0.145098 
0.196078 0.721569 0.145098 0.196078 0.721569 0.145098 
0.196078 0.721569 0.145098 0.196078 0.721569 0.145098 
0.196078 0.721569 0.145098 0.196078 0.721569 0.145098 
0.196078 0.721569 0.145098 0.196078 0.721569 0.145098 
0.196078 0.721569 0.145098 0.196078 0.721569 0.145098 
0.196078 0.721569 0.145098 0.196078 0.721569 0.145098 
0.196078 0.721569 0.145098 0.196078 0.721569 0.145098 
0.196078 0.721569 0.145098 0.196078 0.721569 0.145098 
0.196078 0.721569 0.145098 0.196078 0.721569 0.145098 
0.196078 0.721569 0.145098 0.196078 0.721569 0.145098 
0.196078 0.721569 0.145098 0.196078 0.721569 0.145098 
0.196078 0.721569 0.145098 0.196078 0.721569 0.145098 
0.196078 0.721569 0.145098 0.196078 0.721569 0.145098 
0.196078 0.721569 0.145098 0.196078 0.721569 0.145098 
0.196078 0.721569 0.145098 0.196078 0.721569 0.145098 
0.196078 0.721569 0.145098 0.196078 0.721569 0.145098 
0.196078 0.721569 0.145098 0.196078 0.721569 0.145098 
0.196078 0.721569 0.145098 0.196078 0.721569 0.145098 
0.196078 0.721569 0.145098 0.196078 0.721569 0.145098 
0.196078 0.721569 0.145098 0.196078 0.721569 0.145098 
0.196078 0.721569 0.145098 0.196078 0.721569 0.145098 
0.196078 0.721569 0.145098 0.196078 0.721569 0.145098 
0.196078 0.721569 0.145098 0.196078 0.721569 0.145098 
0.196078 0.721569 0.145098 0.196078 0.721569 0.145098 
0.196078 0.721569 0.145098 0.196078 0.721569 0.145098 
0.196078 0.721569 0.145098 0.196078 0.721569 0.145098 
0.196078 0.721569 0.145098 0.196078 0.721569 0.145098 
0.196078 0.721569 0.145098 0.196078 0.721569 0.145098 
0.196078 0.721569 0.145098 0.196078 0.721569 0.145098 
0.196078 0.721569 0.145098 0.196078 0.721569 0.145098 
0.196078 0.721569 0.145098 0.196078 0.721569 0.145098 
0.196078 0.721569 0.145098 0.196078 0.721569 0.145098 
0.196078 0.721569 0.145098 0.196078 0.721569 0.145098 
0.196078 0.721569 0.145098 0.196078 0.721569 0.145098 
0.196078 0.721569 0.145098 0.196078 0.721569 0.145098 
0.196078 0.721569 0.145098 0.196078 0.721569 0.145098 
0.196078 0.721569 0.145098 0.196078 0.721569 0.145098 
0.196078 0.721569 0.145098 0.196078 0.721569 0.145098 
0.196078 0.721569 0.145098 0.196078 0.721569 0.145098 
0.196078 0.721569 0.145098 0.196078 0.721569 0.145098 
0.196078 0.721569 0.145098 0.196078 0.721569 0.145098 
0.196078 0.721569 0.145098 0.196078 0.721569 0.145098 
0.196078 0.721569 0.145098 0.196078 0.721569 0.145098 
0.196078 0.721569 0.145098 0.196078 0.721569 0.145098 
0.196078 0.721569 0.145098 0.196078 0.721569 0.145098 
0.196078 0.721569 0.145098 0.196078 0.721569 0.145098 
0.196078 0.721569 0.145098 0.196078 0.721569 0.145098 
0.196078 0.721569 0.145098 0.196078 0.721569 0.145098 
0.196078 0.721569 0.145098 0.196078 0.721569 0.145098 
0.196078 0.721569 0.145098 0.196078 0.721569 0.145098 
0.196078 0.721569 0.145098 0.196078 0.721569 0.145098 
0.196078 0.721569 0.145098 0.196078 0.721569 0.145098 
0.196078 0.721569 0.145098 0.196078 0.721569 0.145098 
0.196078 0.721569 0.145098 0.196078 0.721569 0.145098 
0.196078 0.721569 0.145098 0.196078 0.721569 0.145098 
0.196078 0.721569 0.145098 0.196078 0.721569 0.145098 
0.196078 0.721569 0.145098 0.196078 0.721569 0.145098 
0.196078 0.721569 0.145098 0.196078 0.721569 0.145098 
0.196078 0.721569 0.145098 0.196078 0.721569 0.145098 
0.196078 0.721569 0.145098 0.196078 0.721569 0.145098 
0.196078 0.721569 0.145098 0.196078 0.721569 0.145098 
0.196078 0.721569 0.145098 0.196078 0.721569 0.145098 
0.196078 0.721569 0.145098 0.196078 0.721569 0.145098 
0.196078 0.721569 0.145098 0.196078 0.721569 0.145098 
0.196078 0.721569 0.145098 0.196078 0.721569 0.145098 
0.196078 0.721569 0.145098 0.196078 0.721569 0.145098 
0.196078 0.721569 0.145098 0.196078 0.721569 0.145098 
0.196078 0.721569 0.145098 0.196078 0.721569 0.145098 
0.196078 0.721569 0.145098 0.196078 0.721569 0.145098 
0.196078 0.721569 0.145098 0.196078 0.721569 0.145098 
0.196078 0.721569 0.145098 0.196078 0.721569 0.145098 
0.196078 0.721569 0.145098 0.196078 0.721569 0.145098 
0.196078 0.721569 0.145098 0.196078 0.721569 0.145098 
0.196078 0.721569 0.145098 0.196078 0.721569 0.145098 
0.196078 0.721569 0.145098 0.196078 0.721569 0.145098 
0.196078 0.721569 0.145098 0.196078 0.721569 0.145098 
0.196078 0.721569 0.145098 0.196078 0.721569 0.145098 
0.196078 0.721569 0.145098 0.196078 0.721569 0.145098 
0.196078 0.721569 0.145098 0.196078 0.721569 0.145098 
0.196078 0.721569 0.145098 0.196078 0.721569 0.145098 
0.196078 0.721569 0.145098 0.196078 0.721569 0.145098 
0.196078 0.721569 0.145098 0.196078 0.721569 0.145098 
0.196078 0.721569 0.145098 0.196078 0.721569 0.145098 
0.196078 0.721569 0.145098 0.196078 0.721569 0.145098 
0.196078 0.721569 0.145098 0.196078 0.721569 0.145098 
0.196078 0.721569 0.145098 0.196078 0.721569 0.145098 
0.196078 0.721569 0.145098 0.196078 0.721569 0.145098 
0.196078 0.721569 0.145098 0.196078 0.721569 0.145098 
0.196078 0.721569 0.145098 0.196078 0.721569 0.145098 
0.196078 0.721569 0.145098 0.196078 0.721569 0.145098 
0.196078 0.721569 0.145098 0.196078 0.721569 0.145098 
0.196078 0.721569 0.145098 0.196078 0.721569 0.145098 
0.196078 0.721569 0.145098 0.196078 0.721569 0.145098 
0.196078 0.721569 0.145098 0.196078 0.721569 0.145098 
0.196078 0.721569 0.145098 0.196078 0.721569 0.145098 
0.196078 0.721569 0.145098 0.196078 0.721569 0.145098 
0.196078 0.721569 0.145098 0.196078 0.721569 0.145098 
0.196078 0.721569 0.145098 0.196078 0.721569 0.145098 
0.196078 0.721569 0.145098 0.196078 0.721569 0.145098 
0.196078 0.721569 0.145098 0.196078 0.721569 0.145098 
0.196078 0.721569 0.145098 0.196078 0.721569 0.145098 
0.196078 0.721569 0.145098 0.196078 0.721569 0.145098 
0.196078 0.721569 0.145098 0.196078 0.721569 0.145098 
0.196078 0.721569 0.145098 0.196078 0.721569 0.145098 
0.196078 0.721569 0.145098 0.196078 0.721569 0.145098 
0.196078 0.721569 0.145098 0.196078 0.721569 0.145098 
0.196078 0.721569 0.145098 0.196078 0.721569 0.145098 
0.196078 0.721569 0.145098 0.196078 0.721569 0.145098 
0.196078 0.721569 0.145098 0.196078 0.721569 0.145098 
0.196078 0.721569 0.145098 0.196078 0.721569 0.145098 
0.196078 0.721569 0.145098 0.196078 0.721569 0.145098 
0.196078 0.721569 0.145098 0.196078 0.721569 0.145098 
0.196078 0.721569 0.145098 0.196078 0.721569 0.145098 
0.196078 0.721569 0.145098 0.196078 0.721569 0.145098 
0.196078 0.721569 0.145098 0.196078 0.721569 0.145098 
0.196078 0.721569 0.145098 0.196078 0.721569 0.145098 
0.196078 0.721569 0.145098 0.196078 0.721569 0.145098 
0.196078 0.721569 0.145098 0.196078 0.721569 0.145098 
0.196078 0.721569 0.145098 0.196078 0.721569 0.145098 
0.196078 0.721569 0.145098 0.196078 0.721569 0.145098 
0.196078 0.721569 0.145098 0.196078 0.721569 0.145098 
0.196078 0.721569 0.145098 0.196078 0.721569 0.145098 
0.196078 0.721569 0.145098 0.196078 0.721569 0.145098 
0.196078 0.721569 0.145098 0.196078 0.721569 0.145098 
0.196078 0.721569 0.145098 0.196078 0.721569 0.145098 
0.196078 0.721569 0.145098 0.196078 0.721569 0.145098 
0.196078 0.721569 0.145098 0.196078 0.721569 0.145098 
0.196078 0.721569 0.145098 0.196078 0.721569 0.145098 
0.196078 0.721569 0.145098 0.196078 0.721569 0.145098 
0.196078 0.721569 0.145098 0.196078 0.721569 0.145098 
0.196078 0.721569 0.145098 0.196078 0.721569 0.145098 
0.196078 0.721569 0.145098 0.196078 0.721569 0.145098 
0.196078 0.721569 0.145098 0.196078 0.721569 0.145098 
0.196078 0.721569 0.145098 0.196078 0.721569 0.145098 
0.196078 0.721569 0.145098 0.196078 0.721569 0.145098 
0.196078 0.721569 0.145098 0.196078 0.721569 0.145098 
0.196078 0.721569 0.145098 0.196078 0.721569 0.145098 
0.196078 0.721569 0.145098 0.196078 0.721569 0.145098 
0.196078 0.721569 0.145098 0.196078 0.721569 0.145098 