# vtk DataFile Version 4.2
vtk output
ASCII
DATASET POLYDATA
POINTS 2345 float
341.121 184.267 40.0722 341.932 185.061 39.3986 343.405 185.372 39.1224 
344.846 185.455 39.0527 329.789 189.593 40.3239 329.271 190.06 40.1214 
330.989 189.899 39.6969 330.488 189.542 40.0773 338.014 189.036 38.8274 
327.261 190.849 40.2679 329.102 190.692 39.7944 330.662 190.614 39.4639 
329.504 191.355 39.4671 325.401 192.584 40.0616 328.257 192.08 39.5435 
330.926 191.912 39.2077 330.62 192.636 39.2465 347.546 187.125 39.1396 
328.253 189.902 40.8006 322.713 192.363 41.384 347.576 191.752 39.6698 
324.5 193.327 40.2114 328.58 194.787 39.7092 352.075 177.333 41.8861 
355.632 177.941 41.1603 347.79 180.701 40.7516 344.911 181.059 41.499 
358.462 180.585 40.8935 341.9 182.732 41.3714 339.91 183.622 41.507 
337.261 184.997 41.5408 359.94 184.34 40.9245 335.396 186.019 41.5235 
334.933 186.491 41.0597 336.088 185.71 41.3496 330.967 188.456 41.1195 
328.807 189.428 41.1889 327.302 189.898 41.6812 324.541 191.112 41.905 
319.935 193.281 42.1696 317.236 195.004 41.9942 314.161 196.051 42.2063 
351.233 194.154 40.8346 312.043 196.876 42.2074 317.278 196.543 41.2632 
328.966 196.139 40.0292 310.375 197.32 42.4136 312.61 197.481 41.6953 
313.243 198.253 41.3892 304.486 199.247 42.6921 310.05 199.249 41.515 
302.699 200.365 42.548 303.991 200.242 42.1278 305.477 200.144 41.84 
308.8 199.845 41.5079 357.441 175.768 42.0438 349.301 178.146 42.252 
343.078 181.766 41.8121 338.924 183.898 42.1221 328.648 189.248 41.8936 
327.907 189.525 42.1539 324.349 191.033 42.6216 314.456 195.288 43.0507 
316.1 194.889 42.671 310.93 196.774 42.7992 303.844 199.174 43.1657 
301.916 200.319 43.0561 298.731 201.537 43.5116 300.142 201.829 42.7332 
305.648 201.385 41.6086 329.59 200.748 41.386 298.362 202.613 42.911 
309.911 202.11 41.5299 300.399 203.09 42.2579 299.975 204.25 42.2502 
362.023 168.764 44.0954 361.44 169.991 43.7178 359.09 172.251 43.4994 
358.695 171.744 44.0264 360.79 172.63 42.897 366.087 173.054 42.6935 
369.366 177.622 42.7678 346.546 179.22 43.0663 344.914 180.377 42.6234 
341.706 182.161 42.9305 336.07 185.376 42.7359 329.243 188.888 43.1457 
320.172 192.786 43.2429 315.038 194.896 43.5032 315.847 194.661 43.3254 
306.796 197.86 43.5495 299.197 200.997 43.8619 296.092 202.966 43.7091 
294.828 203.957 43.6484 293.927 203.869 43.9827 296.923 203.826 43.0116 
291.792 204.569 44.3422 292.465 204.424 44.1576 296.579 204.453 42.9842 
292.073 205.411 43.8068 297.218 205.15 42.784 291.899 205.856 43.7597 
294.192 206.09 43.2613 364.021 165.97 44.9823 363.357 167.808 44.2198 
363.731 169.437 43.3925 364.476 170.188 43.1409 357.137 172.724 44.2371 
350.171 176.936 43.9498 347.678 178.406 43.5751 345.979 179.516 43.3102 
341.559 182.203 43.3731 339.755 183.317 43.3507 338.276 184.109 42.9937 
338.505 184.057 43.5374 334.752 186.273 43.3048 334.029 186.753 43.6557 
329.295 189.047 43.952 323.503 191.358 43.4598 324.95 190.815 43.6983 
322.318 191.913 43.922 318.764 193.38 43.7465 320.042 192.827 43.8376 
314.234 195.041 44.3944 310.485 196.373 44.1544 303.342 198.928 44.547 
302.776 199.278 44.0618 297.628 201.458 44.2422 295.736 202.544 44.2347 
292.986 203.593 44.5961 288.862 206.035 44.7341 289.991 205.131 44.8238 
287.796 206.55 44.9354 297.48 210.416 43.7094 367.893 159.557 46.008 
366.644 160.972 46.091 365.629 162.715 45.9623 365.578 163.726 45.4708 
366.292 163.857 45.0934 366.81 164.513 44.7565 362.369 167.093 45.4751 
358.529 171.065 45.2951 358.054 171.604 44.9083 357.545 171.984 45.2045 
356.469 172.961 45.08 348.886 177.706 44.4206 347.818 178.519 44.617 
345.665 179.754 43.8711 345.512 180.02 44.4466 345.1 180.412 44.6712 
344.575 180.619 44.4066 343.306 181.553 44.6029 342.657 181.813 44.4288 
342.089 182.236 44.4652 341.337 182.573 44.1819 339.834 183.401 43.9405 
340.933 183.015 44.4654 337.96 184.441 43.8753 336.199 185.533 44.0141 
333.107 187.51 44.5748 328.571 189.384 44.0069 329.719 189.151 44.5626 
315.131 194.76 44.8033 312.088 195.763 45.0235 299.788 200.21 44.9738 
297.416 201.003 45.5632 292.675 203.404 45.0045 292.675 203.058 45.6127 
286.885 205.899 45.6884 283.19 207.58 46.4291 283.115 207.974 46.2659 
284.104 207.746 45.887 283.675 207.434 46.2043 285.845 207.721 45.349 
287.724 207.374 44.8405 334.126 207.418 43.8636 290.182 208.275 44.1778 
284.7 208.986 45.5604 285.072 209.394 45.5053 295.59 212.681 44.6349 
368.685 157.405 46.8442 370.193 156.566 46.662 370.927 157.227 46.2488 
371.209 157.71 46.077 371.342 158.424 45.8944 367.054 159.536 46.627 
366.668 159.902 46.7309 365.9 161.166 46.8236 371.312 163.079 44.8997 
374.84 162.095 45.6297 350.828 176.589 44.9594 348.909 177.866 44.8724 
348.714 178.205 45.1189 350.005 177.495 45.37 346.394 180.038 45.1709 
340.382 183.904 45.0664 337.133 185.344 44.6775 335.132 187.354 45.3143 
325.497 191.277 45.042 321.26 192.664 45.0033 316.79 194.481 45.8174 
315.954 194.609 45.405 313.436 195.35 45.2649 311.501 196.168 45.8596 
307.26 197.554 45.7773 308.697 197.129 46.0604 302.4 199.189 45.4296 
297.942 200.738 45.9676 293.88 202.401 45.9707 286.039 205.603 46.3874 
288.57 204.544 46.2297 282.831 207.422 46.9341 282.342 208.149 46.9281 
282.142 208.544 47.0892 282.419 208.934 46.8143 283.82 209.306 45.9934 
284.998 211.097 46.2866 286.07 210.929 45.7872 288.161 211.176 45.3347 
288.259 212.533 46.1089 294.76 214.607 45.7571 374.436 150.059 47.8537 
373.008 151.785 47.6882 374.372 151.424 47.4659 371.863 152.157 47.9997 
374.412 153.3 47.0397 372.817 154.5 46.8903 369.568 155.617 47.549 
371.117 155.598 46.8599 374.332 155.164 46.6966 368.951 156.263 47.5885 
370.873 156.528 46.5386 366.786 159.452 47.0292 366.755 159.274 47.5193 
366.131 160.462 47.2739 365.497 161.784 46.9997 364.037 164.437 46.979 
362.333 166.841 46.8044 358.027 171.608 46.0124 358.382 171.62 46.5479 
354.007 174.825 45.8269 355.035 174.635 46.3522 352.248 175.881 45.6867 
352.112 176.198 45.9186 346.05 180.694 45.4931 345.806 182.016 46.0671 
347.466 181.675 46.3732 332.934 188.173 45.3223 326.575 191.324 45.5069 
327.424 191.737 46.0696 330.267 191.324 46.3458 338.822 190.888 47.0287 
319.867 193.924 46.3657 317.062 194.735 46.3956 311.536 196.518 46.6289 
308.027 197.68 46.7309 302.563 199.412 46.9201 301.113 199.759 46.6998 
296.489 201.24 46.451 296.033 201.412 46.8132 292.861 202.634 46.8304 
289.21 203.925 47.2194 285.343 205.509 47.0527 283.919 206.492 46.8275 
282.424 207.787 47.0624 281.699 208.591 47.7146 281.14 209.348 48.2567 
281.08 209.597 48.2903 281.129 209.718 48.2076 282.903 210.106 46.922 
282.78 211.257 48.3864 285.309 211.68 46.6666 283.984 211.964 48.214 
288.169 212.91 46.5235 286.129 213.104 48.152 288.721 214.014 47.9619 
290.274 214.326 47.3037 293.214 214.929 46.54 292.155 215.093 47.3619 
296.216 215.961 46.443 292.041 215.331 47.9593 294.48 216.342 48.0873 
299.335 217.559 47.0537 297.882 217.613 48.0463 299.486 218.342 48.178 
315.63 218.841 46.4643 301.451 219.069 48.1975 301.275 218.763 47.7521 
307.68 219.421 46.9435 303.661 219.452 47.9094 375.833 146.954 48.8622 
376.32 147.841 48.4886 372.611 150.165 48.6751 371.557 151.932 48.3818 
370.649 152.864 48.7284 376.312 153.254 47.2052 368.793 155.937 48.1813 
367.919 157.345 48.23 366.421 159.828 47.7194 365.837 161.151 48.0971 
363.045 166.39 47.7147 352.366 176.624 46.3364 352.351 177.297 46.6583 
359.283 181.564 48.3907 381.29 185.649 47.8935 320.455 194.181 46.7506 
317.822 194.919 46.8497 321.888 195.142 47.5533 323.861 194.971 47.5698 
311.147 196.97 47.1023 312.514 196.52 47.0212 308.09 198.017 47.234 
302.723 199.651 47.5193 297.32 201.094 47.5569 295.444 201.788 47.8146 
291.469 203.186 48.0673 292.191 202.884 47.6614 287.08 204.603 47.6893 
283.943 205.994 47.8119 282.05 207.427 48.3195 281.017 209.107 48.6006 
281.041 209.517 48.6791 286.064 213.21 48.5499 290.486 214.869 48.5459 
292.587 215.667 48.5493 296.284 217.177 48.5974 296.833 217.387 48.4949 
299.882 218.6 48.4665 301.396 219.183 48.6899 326.568 220.715 47.6283 
307.558 221.183 49.0882 309.005 221.053 48.3331 309.761 221.499 48.8735 
377.865 143.798 49.7789 378.827 145.863 49.2556 374.322 147.617 49.1707 
372.355 149.623 49.3906 380.922 151.278 48.8092 370.232 153.338 49.0406 
369.799 154.029 49.1994 367.538 157.991 48.403 362.779 168.086 48.2725 
385.742 169.831 48.5139 360.083 172.152 47.9048 359.594 173.661 48.0665 
311.705 197.332 47.603 308.668 198.289 47.6683 311.478 197.93 47.9925 
305.476 199.205 47.6804 307.641 199.051 48.0805 303.247 199.882 47.9662 
298.469 201.027 48.1248 296.968 201.592 48.4537 293.775 202.398 47.899 
293.364 202.649 48.2344 285.01 205.441 48.8363 282.623 206.692 48.996 
280.893 209.089 49.0733 280.817 208.989 49.3684 280.999 208.495 49.2448 
280.853 209.144 49.4275 280.986 209.426 49.2909 281.25 209.741 49.6977 
286.683 213.509 49.1429 350.38 213.678 48.7303 289.861 214.655 49.1578 
290.372 214.867 49.0409 292.767 215.738 49.5073 297.615 217.741 49.4606 
300.443 218.904 49.1658 302.689 219.691 49.7392 305.385 220.519 49.3911 
312.611 222.368 49.3619 320.225 223 48.548 324.828 222.742 48.3717 
329.525 222.539 48.7737 316.167 223.178 49.5211 323.732 223.409 48.7385 
317.887 223.806 50.0622 320.066 223.978 49.5418 378.077 142.289 50.5264 
376.72 143.21 50.5023 373.726 147.651 49.6838 371.697 150.649 49.9227 
369.531 154.652 49.5363 368.752 156.094 49.2937 368.043 157.629 49.3176 
365.582 163.491 49.0821 363.811 167.895 48.8659 383.592 187.937 50.0275 
297.625 201.829 48.9342 301.214 201.65 49.2767 294.142 202.944 49.1479 
298.647 202.434 49.6864 300.021 202.264 49.6529 319.586 202.663 50.1467 
287.353 204.655 49.2315 282.928 206.533 50.0429 280.85 208.975 49.613 
281.309 209.538 50.4778 283.628 211.81 49.9983 288.975 214.201 49.9584 
302.878 219.718 50.3312 306.475 220.984 50.0165 312.264 222.548 50.2089 
315.169 223.49 50.9566 319.908 224.497 50.4734 320.087 224.651 50.8564 
321.599 224.786 50.6443 323.603 225.259 50.888 324.312 225.003 50.3056 
381.273 138.295 51.9937 381.173 137.803 52.2651 381.676 137.736 52.2438 
[...]
POINT_DATA 2345
COLOR_SCALARS scalars 3
0.196078 0.721569 0.145098 0.196078 0.721569 0.145098 0.196078 0.721569 0.145098 
0.196078 0.721569 0.145098 0.196078 0.721569 0.145098 
0.196078 0.721569 0.145098 0.196078 0.721569 0.145098 
0.196078 0.721569 0.145098 0.196078 0.721569 0.145098 
0.196078 0.721569 0.145098 0.196078 0.721569 0.145098 
0.196078 0.721569 0.145098 0.196078 0.721569 0.145098 
0.196078 0.721569 0.145098 0.196078 0.721569 0.145098 
0.196078 0.721569 0.145098 0.196078 0.721569 0.145098 
0.196078 0.721569 0.145098 0.196078 0.721569 0.145098 
0.196078 0.721569 0.145098 0.196078 0.721569 0.145098 
0.196078 0.721569 0.145098 0.196078 0.721569 0.145098 
0.196078 0.721569 0.145098 0.196078 0.721569 0.145098 
0.196078 0.721569 0.145098 0.196078 0.721569 0.145098 
0.196078 0.721569 0.145098 0.196078 0.721569 0.145098 
0.196078 0.721569 0.145098 0.196078 0.721569 0.145098 
0.196078 0.721569 0.145098 0.196078 0.721569 0.145098 
0.196078 0.721569 0.145098 0.196078 0.721569 0.145098 
0.196078 0.721569 0.145098 0.196078 0.721569 0.145098 
0.196078 0.721569 0.145098 0.196078 0.721569 0.145098 
0.196078 0.721569 0.145098 0.196078 0.721569 0.145098 
0.196078 0.721569 0.145098 0.196078 0.721569 0.145098 
0.196078 0.721569 0.145098 0.196078 0.721569 0.145098 
0.196078 0.721569 0.145098 0.196078 0.721569 0.145098 
0.196078 0.721569 0.145098 0.196078 0.721569 0.145098 
0.196078 0.721569 0.145098 0.196078 0.721569 0.145098 
0.196078 0.721569 0.145098 0.196078 0.721569 0.145098 
0.196078 0.721569 0.145098 0.196078 0.721569 0.145098 
0.196078 0.721569 0.145098 0.196078 0.721569 0.145098 
0.196078 0.721569 0.145098 0.196078 0.721569 0.145098 
0.196078 0.721569 0.145098 0.196078 0.721569 0.145098 
0.196078 0.721569 0.145098 0.196078 0.721569 0.145098 
0.196078 0.721569 0.145098 0.196078 0.721569 0.145098 
0.196078 0.721569 0.145098 0.196078 0.721569 0.145098 
0.196078 0.721569 0.145098 0.196078 0.721569 0.145098 
0.196078 0.721569 0.145098 0.196078 0.721569 0.145098 
0.196078 0.721569 0.145098 0.196078 0.721569 0.145098 
0.196078 0.721569 0.145098 0.196078 0.721569 0.145098 
0.196078 0.721569 0.145098 0.196078 0.721569 0.145098 
0.196078 0.721569 0.145098 0.196078 0.721569 0.145098 
0.196078 0.721569 0.145098 0.196078 0.721569 0.145098 
0.196078 0.721569 0.145098 0.196078 0.721569 0.145098 
0.196078 0.721569 0.145098 0.196078 0.721569 0.145098 
0.196078 0.721569 0.145098 0.196078 0.721569 0.145098 
0.196078 0.721569 0.145098 0.196078 0.721569 0.145098 
0.196078 0.721569 0.145098 0.196078 0.721569 0.145098 
0.196078 0.721569 0.145098 0.196078 0.721569 0.145098 
0.196078 0.721569 0.145098 0.196078 0.721569 0.145098 
0.196078 0.721569 0.145098 0.196078 0.721569 0.145098 
0.196078 0.721569 0.145098 0.196078 0.721569 0.145098 
0.196078 0.721569 0.145098 0.196078 0.721569 0.145098 
0.196078 0.721569 0.145098 0.196078 0.721569 0.145098 
0.196078 0.721569 0.145098 0.196078 0.721569 0.145098 
0.196078 0.721569 0.145098 0.196078 0.721569 0.145098 
0.196078 0.721569 0.145098 0.196078 0.721569 0.145098 
0.196078 0.721569 0.145098 0.196078 0.721569 0.145098 
0.196078 0.721569 0.145098 0.196078 0.721569 0.145098 
0.196078 0.721569 0.145098 0.196078 0.721569 0.145098 
0.196078 0.721569 0.145098 0.196078 0.721569 0.145098 
0.196078 0.721569 0.145098 0.196078 0.721569 0.145098 
0.196078 0.721569 0.145098 0.196078 0.721569 0.145098 
0.196078 0.721569 0.145098 0.196078 0.721569 0.145098 
0.196078 0.721569 0.145098 0.196078 0.721569 0.145098 
0.196078 0.721569 0.145098 0.196078 0.721569 0.145098 
0.196078 0.721569 0.145098 0.196078 0.721569 0.145098 
0.196078 0.721569 0.145098 0.196078 0.721569 0.145098 
0.196078 0.721569 0.145098 0.196078 0.721569 0.145098 
0.196078 0.721569 0.145098 0.196078 0.721569 0.145098 
0.196078 0.721569 0.145098 0.196078 0.721569 0.145098 
0.196078 0.721569 0.145098 0.196078 0.721569 0.145098 
0.196078 0.721569 0.145098 0.196078 0.721569 0.145098 
0.196078 0.721569 0.145098 0.196078 0.721569 0.145098 
0.196078 0.721569 0.145098 0.196078 0.721569 0.145098 
0.196078 0.721569 0.145098 0.196078 0.721569 0.145098 
0.196078 0.721569 0.145098 0.196078 0.721569 0.145098 
0.196078 0.721569 0.145098 0.196078 0.721569 0.145098 
0.196078 0.721569 0.145098 0.196078 0.721569 0.145098 
0.196078 0.721569 0.145098 0.196078 0.721569 0.145098 
0.196078 0.721569 0.145098 0.196078 0.721569 0.145098 
0.196078 0.721569 0.145098 0.196078 0.721569 0.145098 
0.196078 0.721569 0.145098 0.196078 0.721569 0.145098 
0.196078 0.721569 0.145098 0.196078 0.721569 0.145098 
0.196078 0.721569 0.145098 0.196078 0.721569 0.145098 
0.196078 0.721569 0.145098 0.196078 0.721569 0.145098 
0.196078 0.721569 0.145098 0.196078 0.721569 0.145098 
0.196078 0.721569 0.145098 0.196078 0.721569 0.145098 
0.196078 0.721569 0.145098 0.196078 0.721569 0.145098 
0.196078 0.721569 0.145098 0.196078 0.721569 0.145098 
0.196078 0.721569 0.145098 0.196078 0.721569 0.145098 
0.196078 0.721569 0.145098 0.196078 0.721569 0.145098 
0.196078 0.721569 0.145098 0.196078 0.721569 0.145098 
0.196078 0.721569 0.145098 0.196078 0.721569 0.145098 
0.196078 0.721569 0.145098 0.196078 0.721569 0.145098 
0.196078 0.721569 0.145098 0.196078 0.721569 0.145098 
0.196078 0.721569 0.145098 0.196078 0.721569 0.145098 
0.196078 0.721569 0.145098 0.196078 0.721569 0.145098 
0.196078 0.721569 0.145098 0.196078 0.721569 0.145098 
0.196078 0.721569 0.145098 0.196078 0.721569 0.145098 
0.196078 0.721569 0.145098 0.196078 0.721569 0.145098 
0.196078 0.721569 0.145098 0.196078 0.721569 0.145098 
0.196078 0.721569 0.145098 0.196078 0.721569 0.145098 
0.196078 0.721569 0.145098 0.196078 0.721569 0.145098 
0.196078 0.721569 0.145098 0.196078 0.721569 0.145098 
0.196078 0.721569 0.145098 0.196078 0.721569 0.145098 
0.196078 0.721569 0.145098 0.196078 0.721569 0.145098 
0.196078 0.721569 0.145098 0.196078 0.721569 0.145098 
0.196078 0.721569 0.145098 0.196078 0.721569 0.145098 
0.196078 0.721569 0.145098 0.196078 0.721569 0.145098 
0.196078 0.721569 0.145098 0.196078 0.721569 0.145098 
0.196078 0.721569 0.145098 0.196078 0.721569 0.145098 
0.196078 0.721569 0.145098 0.196078 0.721569 0.145098 
0.196078 0.721569 0.145098 0.196078 0.721569 0.145098 
0.196078 0.721569 0.145098 0.196078 0.721569 0.145098 
0.196078 0.721569 0.145098 0.196078 0.721569 0.145098 
0.196078 0.721569 0.145098 0.196078 0.721569 0.145098 
0.196078 0.721569 0.145098 0.196078 0.721569 0.145098 
0.196078 0.721569 0.145098 0.196078 0.721569 0.145098 
0.196078 0.721569 0.145098 0.196078 0.721569 0.145098 
0.196078 0.721569 0.145098 0.196078 0.721569 0.145098 
0.196078 0.721569 0.145098 0.196078 0.721569 0.145098 
0.196078 0.721569 0.145098 0.196078 0.721569 0.145098 
0.196078 0.721569 0.145098 0.196078 0.721569 0.145098 
0.196078 0.721569 0.145098 0.196078 0.721569 0.145098 
0.196078 0.721569 0.145098 0.196078 0.721569 0.145098 
0.196078 0.721569 0.145098 0.196078 0.721569 0.145098 
0.196078 0.721569 0.145098 0.196078 0.721569 0.145098 
0.196078 0.721569 0.145098 0.196078 0.721569 0.145098 
0.196078 0.721569 0.145098 0.196078 0.721569 0.145098 
0.196078 0.721569 0.145098 0.196078 0.721569 0.145098 
0.196078 0.721569 0.145098 0.196078 0.721569 0.145098 
0.196078 0.721569 0.145098 0.196078 0.721569 0.145098 
0.196078 0.721569 0.145098 0.196078 0.721569 0.145098 
0.196078 0.721569 0.145098 0.196078 0.721569 0.145098 
0.196078 0.721569 0.145098 0.196078 0.721569 0.145098 
0.196078 0.721569 0.145098 0.196078 0.721569 0.145098 
0.196078 0.721569 0.145098 0.196078 0.721569 0.145098 
0.196078 0.721569 0.145098 0.196078 0.721569 0.145098 
0.196078 0.721569 0.145098 0.196078 0.721569 0.145098 
0.196078 0.721569 0.145098 0.196078 0.721569 0.145098 
0.196078 0.721569 0.145098 0.196078 0.721569 0.145098 
0.196078 0.721569 0.145098 0.196078 0.721569 0.145098 
0.196078 0.721569 0.145098 0.196078 0.721569 0.145098 
0.196078 0.721569 0.145098 0.196078 0.721569 0.145098 
0.196078 0.721569 0.145098 0.196078 0.721569 0.145098 
0.196078 0.721569 0.145098 0.196078 0.721569 0.145098 
0.196078 0.721569 0.145098 0.196078 0.721569 0.145098 
0.196078 0.721569 0.145098 0.196078 0.721569 0.145098 
0.196078 0.721569 0.145098 0.196078 0.721569 0.145098 
0.196078 0.721569 0.145098 0.196078 0.721569 0.145098 
0.196078 0.721569 0.145098 0.196078 0.721569 0.145098 
0.196078 0.721569 0.145098 0.196078 0.721569 0.145098 
0.196078 0.721569 0.145098 0.196078 0.721569 0.145098 
0.196078 0.721569 0.145098 0.196078 0.721569 0.145098 
0.196078 0.721569 0.145098 0.196078 0.721569 0.145098 
0.196078 0.721569 0.145098 0.196078 0.721569 0.145098 
0.196078 0.721569 0.145098 0.196078 0.721569 0.145098 
0.196078 0.721569 0.145098 0.196078 0.721569 0.145098 
0.196078 0.721569 0.145098 0.196078 0.721569 0.145098 
0.196078 0.721569 0.145098 0.196078 0.721569 0.145098 
0.196078 0.721569 0.145098 0.196078 0.721569 0.145098 
0.196078 0.721569 0.145098 0.196078 0.721569 0.145098 
0.196078 0.721569 0.145098 0.196078 0.721569 0.145098 
0.196078 0.721569 0.145098 0.196078 0.721569 0.145098 
0.196078 0.721569 0.145098 0.196078 0.721569 0.145098 
0.196078 0.721569 0.145098 0.196078 0.721569 0.145098 
0.196078 0.721569 0.145098 0.196078 0.721569 0.145098 
0.196078 0.721569 0.145098 0.196078 0.721569 0.145098 
0.196078 0.721569 0.145098 0.196078 0.721569 0.145098 
0.196078 0.721569 0.145098 0.196078 0.721569 0.145098 
0.196078 0.721569 0.145098 0.196078 0.721569 0.145098 
0.196078 0.721569 0.145098 0.196078 0.721569 0.145098 
0.196078 0.721569 0.145098 0.196078 0.721569 0.145098 
0.196078 0.721569 0.145098 0.196078 0.721569 0.145098 
0.196078 0.721569 0.145098 0.196078 0.721569 0.145098 
0.196078 0.721569 0.145098 0.196078 0.721569 0.145098 
0.196078 0.721569 0.145098 0.196078 0.721569 0.145098 
0.196078 0.721569 0.145098 0.196078 0.721569 0.145098 
0.196078 0.721569 0.145098 0.196078 0.721569 0.145098 
0.196078 0.721569 0.145098 0.196078 0.721569 0.145098 
0.196078 0.721569 0.145098 0.196078 0.721569 0.145098 
0.196078 0.721569 0.145098 0.196078 0.721569 0.145098 
0.196078 0.721569 0.145098 0.196078 0.721569 0.145098 
0.196078 0.721569 0.145098 0.196078 0.721569 0.145098 
0.196078 0.721569 0.145098 0.196078 0.721569 0.145098 
0.196078 0.721569 0.145098 0.196078 0.721569 0.145098 
0.196078 0.721569 0.145098 0.196078 0.721569 0.145098 
0.196078 0.721569 0.145098 0.196078 0.721569 0.145098 
0.196078 0.721569 0.145098 0.196078 0.721569 0.145098 
0.196078 0.721569 0.145098 0.196078 0.721569 0.145098 
0.196078 0.721569 0.145098 0.196078 0.721569 0.145098 
0.196078 0.721569 0.145098 0.196078 0.721569 0.145098 
0.196078 0.721569 0.145098 0.196078 0.721569 0.145098 
0.196078 0.721569 0.145098 0.196078 0.721569 0.145098 
0.196078 0.721569 0.145098 0.196078 0.721569 0.145098 
0.196078 0.721569 0.145098 0.196078 0.721569 0.145098 
0.196078 0.721569 0.145098 0.196078 0.721569 0.145098 
0.196078 0.721569 0.145098 0.196078 0.721569 0.145098 
0.196078 0.721569 0.145098 0.196078 0.721569 0.145098 
0.196078 0.721569 0.145098 0.196078 0.721569 0.145098 
0.196078 0.721569 0.145098 0.196078 0.721569 0.145098 
0.196078 0.721569 0.145098 0.196078 0.721569 0.145098 
0.196078 0.721569 0.145098 0.196078 0.721569 0.145098 
0.196078 0.721569 0.145098 0.196078 0.721569 0.145098 
0.196078 0.721569 0.145098 0.196078 0.721569 0.145098 
0.196078 0.721569 0.145098 0.196078 0.721569 0.145098 
0.196078 0.721569 0.145098 0.196078 0.721569 0.145098 
0.196078 0.721569 0.145098 0.196078 0.721569 0.145098 
0.196078 0.721569 0.145098 0.196078 0.721569 0.145098 
0.196078 0.721569 0.145098 0.196078 0.721569 0.145098 
0.196078 0.721569 0.145098 0.196078 0.721569 0.145098 
0.196078 0.721569 0.145098 0.196078 0.721569 0.145098 
0.196078 0.721569 0.145098 0.196078 0.721569 0.145098 
0.196078 0.721569 0.145098 0.196078 0.721569 0.145098 
0.196078 0.721569 0.145098 0.196078 0.721569 0.145098 
0.196078 0.721569 0.145098 0.196078 0.721569 0.145098 
0.196078 0.721569 0.145098 0.196078 0.721569 0.145098 
0.196078 0.721569 0.145098 0.196078 0.721569 0.145098 
0.196078 0.721569 0.145098 0.196078 0.721569 0.145098 
0.196078 0.721569 0.145098 0.196078 0.721569 0.145098 
0.196078 0.721569 0.145098 0.196078 0.721569 0.145098 
0.196078 0.721569 0.145098 0.196078 0.721569 0.145098 
0.196078 0.721569 0.145098 0.196078 0.721569 0.145098 
0.196078 0.721569 0.145098 0.196078 0.721569 0.145098 
0.196078 0.721569 0.145098 0.196078 0.721569 0.145098 
0.196078 0.721569 0.145098 0.196078 0.721569 0.145098 
0.196078 0.721569 0.145098 0.196078 0.721569 0.145098 
0.196078 0.721569 0.145098 0.196078 0.721569 0.145098 
0.196078 0.721569 0.145098 0.196078 0.721569 0.145098 
0.196078 0.721569 0.145098 0.196078 0.721569 0.145098 
0.196078 0.721569 0.145098 0.196078 0.721569 0.145098 
0.196078 0.721569 0.145098 0.196078 0.721569 0.145098 
0.196078 0.721569 0.145098 0.196078 0.721569 0.145098 
0.196078 0.721569 0.145098 0.196078 0.721569 0.145098 
0.196078 0.721569 0.145098 0.196078 0.721569 0.145098 
0.196078 0.721569 0.145098 0.196078 0.721569 0.145098 
0.196078 0.721569 0.145098 0.196078 0.721569 0.145098 
0.196078 0.721569 0.145098 0.196078 0.721569 0.145098 
0.196078 0.721569 0.145098 0.196078 0.721569 0.145098 
0.196078 0.721569 0.145098 0.196078 0.721569 0.145098 
0.196078 0.721569 0.145098 0.196078 0.721569 0.145098 
0.196078 0.721569 0.145098 0.196078 0.721569 0.145098 
0.196078 0.721569 0.145098 0.196078 0.721569 0.145098 
0.196078 0.721569 0.145098 0.196078 0.721569 0.145098 
0.196078 0.721569 0.145098 0.196078 0.721569 0.145098 
0.196078 0.721569 0.145098 0.196078 0.721569 0.145098 
0.196078 0.721569 0.145098 0.196078 0.721569 0.145098 
0.196078 0.721569 0.145098 0.196078 0.721569 0.145098 
0.196078 0.721569 0.145098 0.196078 0.721569 0.145098 
0.196078 0.721569 0.145098 0.196078 0.721569 0.145098 
0.196078 0.721569 0.145098 0.196078 0.721569 0.145098 
0.196078 0.721569 0.145098 0.196078 0.721569 0.145098 
0.196078 0.721569 0.145098 0.196078 0.721569 0.145098 
0.196078 0.721569 0.145098 0.196078 0.721569 0.145098 
0.196078 0.721569 0.145098 0.196078 0.721569 0.145098 
0.196078 0.721569 0.145098 0.196078 0.721569 0.145098 
0.196078 0.721569 0.145098 0.196078 0.721569 0.145098 
0.196078 0.721569 0.145098 0.196078 0.721569 0.145098 
0.196078 0.721569 0.145098 0.196078 0.721569 0.145098 
0.196078 0.721569 0.145098 0.196078 0.721569 0.145098 
0.196078 0.721569 0.145098 0.196078 0.721569 0.145098 
0.196078 0.721569 0.145098 0.196078 0.721569 0.145098 
0.196078 0.721569 0.145098 0.196078 0.721569 0.145098 
0.196078 0.721569 0.145098 0.196078 0.721569 0.145098 
0.196078 0.721569 0.145098 0.196078 0.721569 0.145098 
0.196078 0.721569 0.145098 0.196078 0.721569 0.145098 
0.196078 0.721569 0.145098 0.196078 0.721569 0.145098 
0.196078 0.721569 0.145098 0.196078 0.721569 0.145098 
0.196078 0.721569 0.145098 0.196078 0.721569 0.145098 
0.196078 0.721569 0.145098 0.196078 0.721569 0.145098 
0.196078 0.721569 0.145098 0.196078 0.721569 0.145098 
0.196078 0.721569 0.145098 0.196078 0.721569 0.145098 
0.196078 0.721569 0.145098 0.196078 0.721569 0.145098 
0.196078 0.721569 0.145098 0.196078 0.721569 0.145098 
0.196078 0.721569 0.145098 0.196078 0.721569 0.145098 
0.196078 0.721569 0.145098 0.196078 0.721569 0.145098 
0.196078 0.721569 0.145098 0.196078 0.721569 0.145098 
0.196078 0.721569 0.145098 0.196078 0.721569 0.145098 
0.196078 0.721569 0.145098 0.196078 0.721569 0.145098 
0.196078 0.721569 0.145098 0.196078 0.721569 0.145098 
0.196078 0.721569 0.145098 0.196078 0.721569 0.145098 
0.196078 0.721569 0.145098 0.196078 0.721569 0.145098 
0.196078 0.721569 0.145098 0.196078 0.721569 0.145098 
0.196078 0.721569 0.145098 0.196078 0.721569 0.145098 
0.196078 0.721569 0.145098 0.196078 0.721569 0.145098 
0.196078 0.721569 0.145098 0.196078 0.721569 0.145098 
0.196078 0.721569 0.145098 0.196078 0.721569 0.145098 
0.196078 0.721569 0.145098 0.196078 0.721569 0.145098 
0.196078 0.721569 0.145098 0.196078 0.721569 0.145098 
0.196078 0.721569 0.145098 0.196078 0.721569 0.145098 
0.196078 0.721569 0.145098 0.196078 0.721569 0.145098 
0.196078 0.721569 0.145098 0.196078 0.721569 0.145098 
0.196078 0.721569 0.145098 0.196078 0.721569 0.145098 
0.196078 0.721569 0.145098 0.196078 0.721569 0.145098 
0.196078 0.721569 0.145098 0.196078 0.721569 0.145098 
0.196078 0.721569 0.145098 0.196078 0.721569 0.145098 
0.196078 0.721569 0.145098 0.196078 0.721569 0.145098 
0.196078 0.721569 0.145098 0.196078 0.721569 0.145098 
0.196078 0.721569 0.145098 0.196078 0.721569 0.145098 
0.196078 0.721569 0.145098 0.196078 0.721569 0.145098 
0.196078 0.721569 0.145098 0.196078 0.721569 0.145098 
0.196078 0.721569 0.145098 0.196078 0.721569 0.145098 
0.196078 0.721569 0.145098 0.196078 0.721569 0.145098 
0.196078 0.721569 0.145098 0.196078 0.721569 0.145098 
0.196078 0.721569 0.145098 0.196078 0.721569 0.145098 
0.196078 0.721569 0.145098 0.196078 0.721569 0.145098 
0.196078 0.721569 0.145098 0.196078 0.721569 0.145098 
0.196078 0.721569 0.145098 0.196078 0.721569 0.145098 
0.196078 0.721569 0.145098 0.196078 0.721569 0.145098 
0.196078 0.721569 0.145098 0.196078 0.721569 0.145098 
0.196078 0.721569 0.145098 0.196078 0.721569 0.145098 
0.196078 0.721569 0.145098 0.196078 0.721569 0.145098 
0.196078 0.721569 0.145098 0.196078 0.721569 0.145098 
0.196078 0.721569 0.145098 0.196078 0.721569 0.145098 
0.196078 0.721569 0.145098 0.196078 0.721569 0.145098 
0.196078 0.721569 0.145098 0.196078 0.721569 0.145098 
0.196078 0.721569 0.145098 0.196078 0.721569 0.145098 
0.196078 0.721569 0.145098 0.196078 0.721569 0.145098 
0.196078 0.721569 0.145098 0.196078 0.721569 0.145098 
0.196078 0.721569 0.145098 0.196078 0.721569 0.145098 
0.196078 0.721569 0.145098 0.196078 0.721569 0.145098 
0.196078 0.721569 0.145098 0.196078 0.721569 0.145098 
0.196078 0.721569 0.145098 0.196078 0.721569 0.145098 
0.196078 0.721569 0.145098 0.196078 0.721569 0.145098 
0.196078 0.721569 0.145098 0.196078 0.721569 0.145098 
0.196078 0.721569 0.145098 0.196078 0.721569 0.145098 
0.196078 0.721569 0.145098 0.196078 0.721569 0.145098 
0.196078 0.721569 0.145098 0.196078 0.721569 0.145098 
0.196078 0.721569 0.145098 0.196078 0.721569 0.145098 
0.196078 0.721569 0.145098 0.196078 0.721569 0.145098 
0.196078 0.721569 0.145098 0.196078 0.721569 0.145098 
0.196078 0.721569 0.145098 0.196078 0.721569 0.145098 
0.196078 0.721569 0.145098 0.196078 0.721569 0.145098 
0.196078 0.721569 0.145098 0.196078 0.721569 0.145098 
0.196078 0.721569 0.145098 0.196078 0.721569 0.145098 
0.196078 0.721569 0.145098 0.196078 0.721569 0.145098 
0.196078 0.721569 0.145098 0.196078 0.721569 0.145098 
0.196078 0.721569 0.145098 0.196078 0.721569 0.145098 
0.196078 0.721569 0.145098 0.196078 0.721569 0.145098 
0.196078 0.721569 0.145098 0.196078 0.721569 0.145098 
0.196078 0.721569 0.145098 0.196078 0.721569 0.145098 
0.196078 0.721569 0.145098 0.196078 0.721569 0.145098 
0.196078 0.721569 0.145098 0.196078 0.721569 0.145098 
0.196078 0.721569 0.145098 0.196078 0.721569 0.145098 
0.196078 0.721569 0.145098 0.196078 0.721569 0.145098 
0.196078 0.721569 0.145098 0.196078 0.721569 0.145098 
0.196078 0.721569 0.145098 0.196078 0.721569 0.145098 
0.196078 0.721569 0.145098 0.196078 0.721569 0.145098 
0.196078 0.721569 0.145098 0.196078 0.721569 0.145098 
0.196078 0.721569 0.145098 0.196078 0.721569 0.145098 
0.196078 0.721569 0.145098 0.196078 0.721569 0.145098 
0.196078 0.721569 0.145098 0.196078 0.721569 0.145098 
0.196078 0.721569 0.145098 0.196078 0.721569 0.145098 
0.196078 0.721569 0.145098 0.196078 0.721569 0.145098 
0.196078 0.721569 0.145098 0.196078 0.721569 0.145098 
0.196078 0.721569 0.145098 0.196078 0.721569 0.145098 
0.196078 0.721569 0.145098 0.196078 0.721569 0.145098 
0.196078 0.721569 0.145098 0.196078 0.721569 0.145098 
0.196078 0.721569 0.145098 0.196078 0.721569 0.145098 
0.196078 0.721569 0.145098 0.196078 0.721569 0.145098 
0.196078 0.721569 0.145098 0.196078 0.721569 0.145098 
0.196078 0.721569 0.145098 0.196078 0.721569 0.145098 
0.196078 0.721569 0.145098 0.196078 0.721569 0.145098 
0.196078 0.721569 0.145098 0.196078 0.721569 0.145098 