# vtk DataFile Version 4.2
vtk output
ASCII
DATASET POLYDATA
POINTS 3774 float
343.124 184.27 26.1621 343.758 183.947 26.3273 340.944 184.843 26.3388 
342.115 184.249 26.4445 342.967 184.842 25.8648 339.375 185.264 26.6455 
338.894 185.815 26.2887 341.448 185.395 25.8324 336.963 186.832 26.1358 
337.488 187.384 25.6874 333.953 188.508 25.9232 335.37 188.276 25.7107 
336.223 188.306 25.577 331.102 189.621 26.0803 330.719 189.237 26.5379 
333.439 189.125 25.7211 329.016 190.764 26.2337 329.614 190.878 25.9626 
333.688 190.403 25.4124 348.967 181.262 26.9747 347.567 181.557 27.2627 
350.172 181.306 26.7237 346.95 182.805 26.5355 350.607 182.201 26.383 
343.245 183.343 27.1176 345.709 183.949 26.1384 347.367 183.482 26.1629 
341.288 184.051 27.1539 348.545 183.917 26.0099 338.18 185.626 26.8671 
339.467 184.833 27.2005 346.56 185.702 25.7362 332.453 188.003 27.1241 
347.341 187.371 25.8288 329.296 189.621 26.9589 331.202 188.701 26.9038 
336.533 190.532 25.366 344.319 189.458 25.7421 325.238 191.972 27.1232 
328.126 191.767 26.1942 323.144 192.889 27.2324 325.96 192.762 26.4453 
339.667 191.712 25.6996 321.878 193.803 27.0991 321.126 193.748 27.3898 
320.33 194.419 27.2766 320.005 194.307 27.509 322.52 194.316 26.7001 
326.995 193.943 26.0535 332.705 193.76 25.7251 320.287 195.012 27.0949 
355.07 177.28 27.9615 353.192 178.227 28.0077 357.789 177.11 27.54 
354.025 179.097 27.2619 350.152 179.85 27.8441 353.005 179.949 27.0892 
353.757 179.766 27.0457 352.644 180.659 26.8702 356.887 180.033 26.8332 
344.689 182.702 27.351 351.311 182.737 26.3043 343.155 182.989 27.8111 
355.352 183.625 26.523 339.266 184.678 27.7686 330.263 188.678 27.7704 
325.444 191.061 28.0678 323.338 192.045 28.0453 320.868 193.511 27.7231 
321.56 192.805 28.181 319.805 193.98 28.0035 319.526 194.688 27.5853 
317.558 195.379 28.1035 322.712 195.642 26.4502 314.924 196.769 28.1256 
320.596 196.451 26.7478 312.197 197.845 28.4433 313.81 197.685 27.964 
329.737 196.899 26.3661 336.432 196.767 26.6894 311.722 198.746 28.2222 
324.696 197.761 26.5335 314.851 198.856 27.4513 356.481 175.418 29.0582 
352.855 177.816 28.5387 362.695 177.966 27.6523 344.506 182.332 28.0618 
339.119 184.521 28.533 335.7 186.193 28.1581 354.76 189.827 27.2302 
320.636 192.902 28.9841 314.013 196.495 28.754 315.278 195.71 28.9682 
307.96 199.716 29.2349 310.846 199.715 28.269 338.598 198.863 27.5876 
308.687 200.468 28.6788 329.662 200.074 27.2921 308.278 200.992 28.6832 
311.529 201.058 28.0094 363.239 171.776 29.2102 367.737 171.904 29.0026 
361.796 173.594 28.7172 352.964 176.997 29.5364 370.203 176.436 28.8397 
367.348 184.602 28.718 329.997 188.375 29.3589 323.972 191.198 29.2967 
360.042 192.268 28.8011 319.319 193.362 29.6115 311.574 197.29 29.3388 
312.266 196.614 29.8494 349.491 197.724 28.7036 308.218 198.813 29.8982 
302.278 202.237 30.4677 304.71 202.493 29.4221 305.613 202.41 29.1968 
302.52 203.506 29.843 303.606 203.27 29.5503 309.051 203.148 28.6079 
311.005 203.108 28.3875 303.63 203.844 29.4805 303.975 204.229 29.4287 
369.85 169.02 29.9488 361.795 170.691 30.3003 362.98 171.156 29.5625 
360.816 171.68 30.1279 359.497 172.432 30.2987 373.504 172.901 29.7278 
357.418 174.231 29.8396 348.187 179.72 29.733 344.796 181.472 30.2545 
340.327 183.744 29.7215 324.451 190.697 30.6538 315.487 195.035 30.0568 
351.788 198.365 29.3254 304.824 200.563 30.3892 298.753 203.755 31.18 
301.841 203.543 30.1086 299.114 205.009 30.6767 300.543 205.162 30.2728 
308.469 206.769 29.5865 322.215 207.348 29.6895 374.501 166.17 31.0751 
374.947 166.615 31.0043 359.697 171.26 31.5595 373.447 184.755 30.2921 
369.075 189.402 30.1418 312.759 195.937 31.0259 296.679 204.393 31.9261 
297.314 203.803 31.9454 294.821 205.799 32.1696 296.952 205.726 31.3105 
295.376 206.678 31.7612 296.553 206.331 31.3887 299.195 207.789 30.9683 
370.59 164.34 31.7347 367.095 164.976 32.1243 362.084 168.258 32.5315 
361.106 169.498 32.1376 359.489 171.001 32.2787 380.486 175.56 31.6513 
351.636 176.928 31.9339 379.136 182.475 31.8018 304.242 199.942 31.6989 
304.328 199.596 32.4367 305.102 199.228 32.4121 297.155 203.395 32.4658 
295.891 204.516 32.3284 293.827 206.227 32.5902 293.945 207.335 32.3148 
294.638 207.45 32.0529 310.655 211.793 31.3847 372.734 161.452 32.8573 
380.405 161.26 33.168 364.414 165.37 33.5053 365.568 164.981 32.9542 
382.613 167.684 32.6919 383.92 169.563 33.0515 374.487 192.651 32.7647 
295.565 204.213 32.8462 292.84 205.759 33.5961 290.87 207.813 33.6645 
290.939 208.469 33.4672 293.726 208.442 32.4932 293.338 209.145 32.736 
292.407 209.884 33.0972 301.258 213.462 32.8073 370.576 159.967 34.2395 
366.189 163.517 33.9205 385.329 167.454 33.8337 359.423 170.151 34.5503 
385.378 170.541 33.734 384.38 179.612 33.9459 344.656 181.071 33.4697 
337.382 184.806 33.8391 335.285 185.746 33.8001 378.813 189.191 33.3696 
368.797 199.83 33.6665 296.522 202.988 33.8045 292.572 205.362 34.2116 
291.427 206.383 34.08 288.747 208.605 34.4586 287.822 208.608 34.8915 
286.998 209.407 34.9888 288.146 210.475 34.4451 289.43 210.832 34.1032 
292.68 212.364 33.7848 374.729 156.065 35.2375 374.613 157.388 34.5835 
376.171 156.442 34.7968 371.441 157.783 35.4093 384.694 157.453 35.2092 
369.694 159.302 35.2619 387.056 163.67 34.9922 311.722 195.772 34.8785 
295.261 203.367 34.5884 292.892 204.445 35.3808 287.449 208.324 35.2234 
287.37 207.938 35.5614 287.829 207.537 35.6215 360.601 207.616 34.6827 
285.397 209.132 36.0268 285.04 209.781 35.8353 283.947 210.285 36.1572 
283.867 210.539 36.1317 285.839 210.62 35.2941 285.499 211.827 35.4519 
305.956 218.736 34.701 379.203 154.908 35.3662 373.663 155.229 36.1271 
369.403 158.637 36.1519 387.771 160.476 35.7353 388.019 168.088 35.2685 
342.709 181.913 36.0743 383.277 187.192 35.1967 379.319 195.168 35.7868 
283.885 209.994 36.3556 282.477 211.361 36.9304 282.627 210.749 36.9852 
282.568 212.304 36.9553 282.815 211.874 36.7295 284.538 212.882 36.1255 
287.941 213.892 35.4665 298.736 218.737 35.463 315.604 220.882 35.4384 
380.648 151.301 36.7078 376.477 152.589 36.7589 373.879 153.958 36.9829 
368.224 159.302 36.7007 359.285 169.727 36.9476 297.494 201.717 36.4813 
372.559 204.441 36.7227 285.704 207.47 37.6215 281.477 212.715 37.9819 
281.391 213.075 38.2467 283.267 213.714 37.2618 285.946 215.777 37.5332 
289.108 216.049 36.3322 289.844 217.712 37.3724 289.953 217.402 36.9985 
290.552 217.99 37.2936 292.862 218.607 36.8358 297.967 219.252 35.8632 
296.856 219.751 36.4115 294.508 219.832 37.2517 296.14 220.314 37.0318 
298.092 221.128 37.0825 298.615 221.473 37.256 299.532 221.185 36.791 
303.979 222.399 37.0496 309.558 222.719 36.6634 315.752 222.934 36.4115 
372.133 154.369 38.0678 370.692 155.812 38.0414 389.977 179.066 37.7625 
338.331 184.05 37.9104 384.195 191.822 37.4073 298.748 200.913 37.884 
282.048 210.309 37.7582 280.921 211.451 38.7052 280.477 212.4 39.442 
280.562 212.83 39.4555 280.809 213.129 39.2384 281.261 213.312 38.7347 
281.058 213.533 39.4518 282.135 214.474 39.2584 286.363 216.337 38.1254 
286.049 216.455 38.7227 287.607 217.281 38.9801 289.533 218.088 38.3804 
291.184 218.556 37.6331 290.096 218.515 38.7368 291.115 218.815 38.1885 
293.241 219.542 37.6273 349.694 220.08 37.3353 291.786 219.28 38.7936 
292.909 219.795 38.7956 293.521 219.992 38.2512 295.221 220.421 37.6103 
295.056 220.667 38.1277 297.091 221.199 37.6573 294.904 220.77 38.5042 
296.686 221.493 38.9541 299.978 222.12 37.6253 301.95 222.448 37.5564 
299.047 222.255 38.2412 300.657 222.564 38.1062 306.915 223.649 37.9217 
336.628 224.159 37.2699 299.627 222.528 38.4724 303.502 223.312 38.666 
307.641 224.342 38.7764 312.494 225.08 38.4736 318.613 225.491 37.8363 
322.602 225.688 37.7409 383.327 143.686 39.7319 384.53 146.335 38.7044 
379.5 147.536 38.6 386.259 148.17 38.41 389.846 153.021 38.1709 
392.207 152.796 39.256 393.455 167.528 38.9144 392.813 171.85 38.7528 
379.573 202.107 38.8853 282.151 209.254 38.8485 280.737 210.761 39.6111 
280.273 212.183 39.9332 280.52 213.143 40.3876 282.377 214.727 39.5194 
286.899 216.978 39.815 362.36 216.76 38.7484 290.397 218.706 39.2399 
295.164 220.925 39.4586 296.422 221.386 39.8344 298.759 222.275 39.6844 
299.663 222.577 39.8568 299.842 222.671 38.8985 306.545 224.188 39.0925 
317.415 225.973 38.4135 319.129 226.546 38.7761 321.997 226.728 38.6115 
330.138 227.183 38.425 317.491 227.072 40.1038 317.323 226.82 39.6107 
320.844 227.088 39.2153 323.663 227.333 39.047 341.001 227.253 38.924 
321.669 227.521 39.7677 322.455 227.559 39.6035 385.252 141.65 40.4844 
384.107 142.127 40.416 386.171 143.102 39.9713 379.214 146.248 39.5674 
394.559 160.65 39.7512 353.868 174.008 40.0802 281.466 209.614 39.5877 
373.116 210.065 39.3894 280.212 211.809 40.1869 280.726 213.489 40.6121 
280.806 213.586 41.0051 287.127 217.018 40.5214 292.492 219.484 40.6269 
301.321 223.037 40.3262 312.59 225.88 40.5316 317.452 227.166 40.6392 
323.679 228.295 40.7157 334.062 228.787 39.5946 336.038 228.76 39.5229 
327.301 228.873 40.4242 332.883 229.234 40.1967 338.899 229.423 40.0548 
386.516 138.506 41.619 387.476 139.537 41.2466 383.231 142.219 40.5758 
388.327 144.956 39.8036 377.7 145.639 41.3653 392.645 146.854 40.7682 
369.579 155.076 41.2832 383.329 201.61 40.9529 279.992 211.36 41.7161 
280.068 211.999 41.3984 280.474 213.016 41.7373 287.169 216.897 41.2463 
297.139 221.334 41.0897 303.13 223.337 41.1636 305.241 223.833 41.4579 
320.277 227.742 41.2357 322.446 228.099 41.3422 339.464 229.993 40.5624 
330.437 229.65 41.6182 332.508 229.863 41.5989 334.836 230.123 41.4621 
335.697 230.453 41.8594 341.033 230.321 40.8307 338.119 230.765 41.8662 
341.976 230.883 41.4814 388.014 137.288 42.2098 386.587 137.515 42.1745 
379.298 143.274 42.2281 395.07 150.091 41.3441 396.853 159.92 41.5694 
359.307 168.931 41.7315 393.63 182.87 41.9225 338.557 183.349 42.0028 
326.045 189.538 41.5467 390.057 190.881 41.4725 379.303 207.543 41.2997 
280.454 209.69 42.2956 280.008 210.781 42.1204 368.556 218.814 41.8053 
[...]
POINT_DATA 3774
COLOR_SCALARS scalars 3
0.196078 0.721569 0.145098 0.196078 0.721569 0.145098 0.196078 0.721569 0.145098 
0.196078 0.721569 0.145098 0.196078 0.721569 0.145098 
0.196078 0.721569 0.145098 0.196078 0.721569 0.145098 
0.196078 0.721569 0.145098 0.196078 0.721569 0.145098 
0.196078 0.721569 0.145098 0.196078 0.721569 0.145098 
0.196078 0.721569 0.145098 0.196078 0.721569 0.145098 
0.196078 0.721569 0.145098 0.196078 0.721569 0.145098 
0.196078 0.721569 0.145098 0.196078 0.721569 0.145098 
0.196078 0.721569 0.145098 0.196078 0.721569 0.145098 
0.196078 0.721569 0.145098 0.196078 0.721569 0.145098 
0.196078 0.721569 0.145098 0.196078 0.721569 0.145098 
0.196078 0.721569 0.145098 0.196078 0.721569 0.145098 
0.196078 0.721569 0.145098 0.196078 0.721569 0.145098 
0.196078 0.721569 0.145098 0.196078 0.721569 0.145098 
0.196078 0.721569 0.145098 0.196078 0.721569 0.145098 
0.196078 0.721569 0.145098 0.196078 0.721569 0.145098 
0.196078 0.721569 0.145098 0.196078 0.721569 0.145098 
0.196078 0.721569 0.145098 0.196078 0.721569 0.145098 
0.196078 0.721569 0.145098 0.196078 0.721569 0.145098 
0.196078 0.721569 0.145098 0.196078 0.721569 0.145098 
0.196078 0.721569 0.145098 0.196078 0.721569 0.145098 
0.196078 0.721569 0.145098 0.196078 0.721569 0.145098 
0.196078 0.721569 0.145098 0.196078 0.721569 0.145098 
0.196078 0.721569 0.145098 0.196078 0.721569 0.145098 
0.196078 0.721569 0.145098 0.196078 0.721569 0.145098 
0.196078 0.721569 0.145098 0.196078 0.721569 0.145098 
0.196078 0.721569 0.145098 0.196078 0.721569 0.145098 
0.196078 0.721569 0.145098 0.196078 0.721569 0.145098 
0.196078 0.721569 0.145098 0.196078 0.721569 0.145098 
0.196078 0.721569 0.145098 0.196078 0.721569 0.145098 
0.196078 0.721569 0.145098 0.196078 0.721569 0.145098 
0.196078 0.721569 0.145098 0.196078 0.721569 0.145098 
0.196078 0.721569 0.145098 0.196078 0.721569 0.145098 
0.196078 0.721569 0.145098 0.196078 0.721569 0.145098 
0.196078 0.721569 0.145098 0.196078 0.721569 0.145098 
0.196078 0.721569 0.145098 0.196078 0.721569 0.145098 
0.196078 0.721569 0.145098 0.196078 0.721569 0.145098 
0.196078 0.721569 0.145098 0.196078 0.721569 0.145098 
0.196078 0.721569 0.145098 0.196078 0.721569 0.145098 
0.196078 0.721569 0.145098 0.196078 0.721569 0.145098 
0.196078 0.721569 0.145098 0.196078 0.721569 0.145098 
0.196078 0.721569 0.145098 0.196078 0.721569 0.145098 
0.196078 0.721569 0.145098 0.196078 0.721569 0.145098 
0.196078 0.721569 0.145098 0.196078 0.721569 0.145098 
0.196078 0.721569 0.145098 0.196078 0.721569 0.145098 
0.196078 0.721569 0.145098 0.196078 0.721569 0.145098 
0.196078 0.721569 0.145098 0.196078 0.721569 0.145098 
0.196078 0.721569 0.145098 0.196078 0.721569 0.145098 
0.196078 0.721569 0.145098 0.196078 0.721569 0.145098 
0.196078 0.721569 0.145098 0.196078 0.721569 0.145098 
0.196078 0.721569 0.145098 0.196078 0.721569 0.145098 
0.196078 0.721569 0.145098 0.196078 0.721569 0.145098 
0.196078 0.721569 0.145098 0.196078 0.721569 0.145098 
0.196078 0.721569 0.145098 0.196078 0.721569 0.145098 
0.196078 0.721569 0.145098 0.196078 0.721569 0.145098 
0.196078 0.721569 0.145098 0.196078 0.721569 0.145098 
0.196078 0.721569 0.145098 0.196078 0.721569 0.145098 
0.196078 0.721569 0.145098 0.196078 0.721569 0.145098 
0.196078 0.721569 0.145098 0.196078 0.721569 0.145098 
0.196078 0.721569 0.145098 0.196078 0.721569 0.145098 
0.196078 0.721569 0.145098 0.196078 0.721569 0.145098 
0.196078 0.721569 0.145098 0.196078 0.721569 0.145098 
0.196078 0.721569 0.145098 0.196078 0.721569 0.145098 
0.196078 0.721569 0.145098 0.196078 0.721569 0.145098 
0.196078 0.721569 0.145098 0.196078 0.721569 0.145098 
0.196078 0.721569 0.145098 0.196078 0.721569 0.145098 
0.196078 0.721569 0.145098 0.196078 0.721569 0.145098 
0.196078 0.721569 0.145098 0.196078 0.721569 0.145098 
0.196078 0.721569 0.145098 0.196078 0.721569 0.145098 
0.196078 0.721569 0.145098 0.196078 0.721569 0.145098 
0.196078 0.721569 0.145098 0.196078 0.721569 0.145098 
0.196078 0.721569 0.145098 0.196078 0.721569 0.145098 
0.196078 0.721569 0.145098 0.196078 0.721569 0.145098 
0.196078 0.721569 0.145098 0.196078 0.721569 0.145098 
0.196078 0.721569 0.145098 0.196078 0.721569 0.145098 
0.196078 0.721569 0.145098 0.196078 0.721569 0.145098 
0.196078 0.721569 0.145098 0.196078 0.721569 0.145098 
0.196078 0.721569 0.145098 0.196078 0.721569 0.145098 
0.196078 0.721569 0.145098 0.196078 0.721569 0.145098 
0.196078 0.721569 0.145098 0.196078 0.721569 0.145098 
0.196078 0.721569 0.145098 0.196078 0.721569 0.145098 
0.196078 0.721569 0.145098 0.196078 0.721569 0.145098 
0.196078 0.721569 0.145098 0.196078 0.721569 0.145098 
0.196078 0.721569 0.145098 0.196078 0.721569 0.145098 
0.196078 0.721569 0.145098 0.196078 0.721569 0.145098 
0.196078 0.721569 0.145098 0.196078 0.721569 0.145098 
0.196078 0.721569 0.145098 0.196078 0.721569 0.145098 
0.196078 0.721569 0.145098 0.196078 0.721569 0.145098 
0.196078 0.721569 0.145098 0.196078 0.721569 0.145098 
0.196078 0.721569 0.145098 0.196078 0.721569 0.145098 
0.196078 0.721569 0.145098 0.196078 0.721569 0.145098 
0.196078 0.721569 0.145098 0.196078 0.721569 0.145098 
0.196078 0.721569 0.145098 0.196078 0.721569 0.145098 
0.196078 0.721569 0.145098 0.196078 0.721569 0.145098 
0.196078 0.721569 0.145098 0.196078 0.721569 0.145098 
0.196078 0.721569 0.145098 0.196078 0.721569 0.145098 
0.196078 0.721569 0.145098 0.196078 0.721569 0.145098 
0.196078 0.721569 0.145098 0.196078 0.721569 0.145098 
0.196078 0.721569 0.145098 0.196078 0.721569 0.145098 
0.196078 0.721569 0.145098 0.196078 0.721569 0.145098 
0.196078 0.721569 0.145098 0.196078 0.721569 0.145098 
0.196078 0.721569 0.145098 0.196078 0.721569 0.145098 
0.196078 0.721569 0.145098 0.196078 0.721569 0.145098 
0.196078 0.721569 0.145098 0.196078 0.721569 0.145098 
0.196078 0.721569 0.145098 0.196078 0.721569 0.145098 
0.196078 0.721569 0.145098 0.196078 0.721569 0.145098 
0.196078 0.721569 0.145098 0.196078 0.721569 0.145098 
0.196078 0.721569 0.145098 0.196078 0.721569 0.145098 
0.196078 0.721569 0.145098 0.196078 0.721569 0.145098 
0.196078 0.721569 0.145098 0.196078 0.721569 0.145098 
0.196078 0.721569 0.145098 0.196078 0.721569 0.145098 
0.196078 0.721569 0.145098 0.196078 0.721569 0.145098 
0.196078 0.721569 0.145098 0.196078 0.721569 0.145098 
0.196078 0.721569 0.145098 0.196078 0.721569 0.145098 
0.196078 0.721569 0.145098 0.196078 0.721569 0.145098 
0.196078 0.721569 0.145098 0.196078 0.721569 0.145098 
0.196078 0.721569 0.145098 0.196078 0.721569 0.145098 
0.196078 0.721569 0.145098 0.196078 0.721569 0.145098 
0.196078 0.721569 0.145098 0.196078 0.721569 0.145098 
0.196078 0.721569 0.145098 0.196078 0.721569 0.145098 
0.196078 0.721569 0.145098 0.196078 0.721569 0.145098 
0.196078 0.721569 0.145098 0.196078 0.721569 0.145098 
0.196078 0.721569 0.145098 0.196078 0.721569 0.145098 
0.196078 0.721569 0.145098 0.196078 0.721569 0.145098 
0.196078 0.721569 0.145098 0.196078 0.721569 0.145098 
0.196078 0.721569 0.145098 0.196078 0.721569 0.145098 
0.196078 0.721569 0.145098 0.196078 0.721569 0.145098 
0.196078 0.721569 0.145098 0.196078 0.721569 0.145098 
0.196078 0.721569 0.145098 0.196078 0.721569 0.145098 
0.196078 0.721569 0.145098 0.196078 0.721569 0.145098 
0.196078 0.721569 0.145098 0.196078 0.721569 0.145098 
0.196078 0.721569 0.145098 0.196078 0.721569 0.145098 
0.196078 0.721569 0.145098 0.196078 0.721569 0.145098 
0.196078 0.721569 0.145098 0.196078 0.721569 0.145098 
0.196078 0.721569 0.145098 0.196078 0.721569 0.145098 
0.196078 0.721569 0.145098 0.196078 0.721569 0.145098 
0.196078 0.721569 0.145098 0.196078 0.721569 0.145098 
0.196078 0.721569 0.145098 0.196078 0.721569 0.145098 
0.196078 0.721569 0.145098 0.196078 0.721569 0.145098 
0.196078 0.721569 0.145098 0.196078 0.721569 0.145098 
0.196078 0.721569 0.145098 0.196078 0.721569 0.145098 
0.196078 0.721569 0.145098 0.196078 0.721569 0.145098 
0.196078 0.721569 0.145098 0.196078 0.721569 0.145098 
0.196078 0.721569 0.145098 0.196078 0.721569 0.145098 
0.196078 0.721569 0.145098 0.196078 0.721569 0.145098 
0.196078 0.721569 0.145098 0.196078 0.721569 0.145098 
0.196078 0.721569 0.145098 0.196078 0.721569 0.145098 
0.196078 0.721569 0.145098 0.196078 0.721569 0.145098 
0.196078 0.721569 0.145098 0.196078 0.721569 0.145098 
0.196078 0.721569 0.145098 0.196078 0.721569 0.145098 
0.196078 0.721569 0.145098 0.196078 0.721569 0.145098 
0.196078 0.721569 0.145098 0.196078 0.721569 0.145098 
0.196078 0.721569 0.145098 0.196078 0.721569 0.145098 
0.196078 0.721569 0.145098 0.196078 0.721569 0.145098 
0.196078 0.721569 0.145098 0.196078 0.721569 0.145098 
0.196078 0.721569 0.145098 0.196078 0.721569 0.145098 
0.196078 0.721569 0.145098 0.196078 0.721569 0.145098 
0.196078 0.721569 0.145098 0.196078 0.721569 0.145098 
0.196078 0.721569 0.145098 0.196078 0.721569 0.145098 
0.196078 0.721569 0.145098 0.196078 0.721569 0.145098 
0.196078 0.721569 0.145098 0.196078 0.721569 0.145098 
0.196078 0.721569 0.145098 0.196078 0.721569 0.145098 
0.196078 0.721569 0.145098 0.196078 0.721569 0.145098 
0.196078 0.721569 0.145098 0.196078 0.721569 0.145098 
0.196078 0.721569 0.145098 0.196078 0.721569 0.145098 
0.196078 0.721569 0.145098 0.196078 0.721569 0.145098 
0.196078 0.721569 0.145098 0.196078 0.721569 0.145098 
0.196078 0.721569 0.145098 0.196078 0.721569 0.145098 
0.196078 0.721569 0.145098 0.196078 0.721569 0.145098 
0.196078 0.721569 0.145098 0.196078 0.721569 0.145098 
0.196078 0.721569 0.145098 0.196078 0.721569 0.145098 
0.196078 0.721569 0.145098 0.196078 0.721569 0.145098 
0.196078 0.721569 0.145098 0.196078 0.721569 0.145098 
0.196078 0.721569 0.145098 0.196078 0.721569 0.145098 
0.196078 0.721569 0.145098 0.196078 0.721569 0.145098 
0.196078 0.721569 0.145098 0.196078 0.721569 0.145098 
0.196078 0.721569 0.145098 0.196078 0.721569 0.145098 
0.196078 0.721569 0.145098 0.196078 0.721569 0.145098 
0.196078 0.721569 0.145098 0.196078 0.721569 0.145098 
0.196078 0.721569 0.145098 0.196078 0.721569 0.145098 
0.196078 0.721569 0.145098 0.196078 0.721569 0.145098 
0.196078 0.721569 0.145098 0.196078 0.721569 0.145098 
0.196078 0.721569 0.145098 0.196078 0.721569 0.145098 
0.196078 0.721569 0.145098 0.196078 0.721569 0.145098 
0.196078 0.721569 0.145098 0.196078 0.721569 0.145098 
0.196078 0.721569 0.145098 0.196078 0.721569 0.145098 
0.196078 0.721569 0.145098 0.196078 0.721569 0.145098 
0.196078 0.721569 0.145098 0.196078 0.721569 0.145098 
0.196078 0.721569 0.145098 0.196078 0.721569 0.145098 
0.196078 0.721569 0.145098 0.196078 0.721569 0.145098 
0.196078 0.721569 0.145098 0.196078 0.721569 0.145098 
0.196078 0.721569 0.145098 0.196078 0.721569 0.145098 
0.196078 0.721569 0.145098 0.196078 0.721569 0.145098 
0.196078 0.721569 0.145098 0.196078 0.721569 0.145098 
0.196078 0.721569 0.145098 0.196078 0.721569 0.145098 
0.196078 0.721569 0.145098 0.196078 0.721569 0.145098 
0.196078 0.721569 0.145098 0.196078 0.721569 0.145098 
0.196078 0.721569 0.145098 0.196078 0.721569 0.145098 
0.196078 0.721569 0.145098 0.196078 0.721569 0.145098 
0.196078 0.721569 0.145098 0.196078 0.721569 0.145098 
0.196078 0.721569 0.145098 0.196078 0.721569 0.145098 
0.196078 0.721569 0.145098 0.196078 0.721569 0.145098 
0.196078 0.721569 0.145098 0.196078 0.721569 0.145098 
0.196078 0.721569 0.145098 0.196078 0.721569 0.145098 
0.196078 0.721569 0.145098 0.196078 0.721569 0.145098 
0.196078 0.721569 0.145098 0.196078 0.721569 0.145098 
0.196078 0.721569 0.145098 0.196078 0.721569 0.145098 
0.196078 0.721569 0.145098 0.196078 0.721569 0.145098 
0.196078 0.721569 0.145098 0.196078 0.721569 0.145098 
0.196078 0.721569 0.145098 0.196078 0.721569 0.145098 
0.196078 0.721569 0.145098 0.196078 0.721569 0.145098 
0.196078 0.721569 0.145098 0.196078 0.721569 0.145098 
0.196078 0.721569 0.145098 0.196078 0.721569 0.145098 
0.196078 0.721569 0.145098 0.196078 0.721569 0.145098 
0.196078 0.721569 0.145098 0.196078 0.721569 0.145098 
0.196078 0.721569 0.145098 0.196078 0.721569 0.145098 
0.196078 0.721569 0.145098 0.196078 0.721569 0.145098 
0.196078 0.721569 0.145098 0.196078 0.721569 0.145098 
0.196078 0.721569 0.145098 0.196078 0.721569 0.145098 
0.196078 0.721569 0.145098 0.196078 0.721569 0.145098 
0.196078 0.721569 0.145098 0.196078 0.721569 0.145098 
0.196078 0.721569 0.145098 0.196078 0.721569 0.145098 
0.196078 0.721569 0.145098 0.196078 0.721569 0.145098 
0.196078 0.721569 0.145098 0.196078 0.721569 0.145098 
0.196078 0.721569 0.145098 0.196078 0.721569 0.145098 
0.196078 0.721569 0.145098 0.196078 0.721569 0.145098 
0.196078 0.721569 0.145098 0.196078 0.721569 0.145098 
0.196078 0.721569 0.145098 0.196078 0.721569 0.145098 
0.196078 0.721569 0.145098 0.196078 0.721569 0.145098 
0.196078 0.721569 0.145098 0.196078 0.721569 0.145098 
0.196078 0.721569 0.145098 0.196078 0.721569 0.145098 
0.196078 0.721569 0.145098 0.196078 0.721569 0.145098 
0.196078 0.721569 0.145098 0.196078 0.721569 0.145098 
0.196078 0.721569 0.145098 0.196078 0.721569 0.145098 
0.196078 0.721569 0.145098 0.196078 0.721569 0.145098 
0.196078 0.721569 0.145098 0.196078 0.721569 0.145098 
0.196078 0.721569 0.145098 0.196078 0.721569 0.145098 
0.196078 0.721569 0.145098 0.196078 0.721569 0.145098 
0.196078 0.721569 0.145098 0.196078 0.721569 0.145098 
0.196078 0.721569 0.145098 0.196078 0.721569 0.145098 
0.196078 0.721569 0.145098 0.196078 0.721569 0.145098 
0.196078 0.721569 0.145098 0.196078 0.721569 0.145098 
0.196078 0.721569 0.145098 0.196078 0.721569 0.145098 
0.196078 0.721569 0.145098 0.196078 0.721569 0.145098 
0.196078 0.721569 0.145098 0.196078 0.721569 0.145098 
0.196078 0.721569 0.145098 0.196078 0.721569 0.145098 
0.196078 0.721569 0.145098 0.196078 0.721569 0.145098 
0.196078 0.721569 0.145098 0.196078 0.721569 0.145098 
0.196078 0.721569 0.145098 0.196078 0.721569 0.145098 
0.196078 0.721569 0.145098 0.196078 0.721569 0.145098 
0.196078 0.721569 0.145098 0.196078 0.721569 0.145098 
0.196078 0.721569 0.145098 0.196078 0.721569 0.145098 
0.196078 0.721569 0.145098 0.196078 0.721569 0.145098 
0.196078 0.721569 0.145098 0.196078 0.721569 0.145098 
0.196078 0.721569 0.145098 0.196078 0.721569 0.145098 
0.196078 0.721569 0.145098 0.196078 0.721569 0.145098 
0.196078 0.721569 0.145098 0.196078 0.721569 0.145098 
0.196078 0.721569 0.145098 0.196078 0.721569 0.145098 
0.196078 0.721569 0.145098 0.196078 0.721569 0.145098 
0.196078 0.721569 0.145098 0.196078 0.721569 0.145098 
0.196078 0.721569 0.145098 0.196078 0.721569 0.145098 
0.196078 0.721569 0.145098 0.196078 0.721569 0.145098 
0.196078 0.721569 0.145098 0.196078 0.721569 0.145098 
0.196078 0.721569 0.145098 0.196078 0.721569 0.145098 
0.196078 0.721569 0.145098 0.196078 0.721569 0.145098 
0.196078 0.721569 0.145098 0.196078 0.721569 0.145098 
0.196078 0.721569 0.145098 0.196078 0.721569 0.145098 
0.196078 0.721569 0.145098 0.196078 0.721569 0.145098 
0.196078 0.721569 0.145098 0.196078 0.721569 0.145098 
0.196078 0.721569 0.145098 0.196078 0.721569 0.145098 
0.196078 0.721569 0.145098 0.196078 0.721569 0.145098 
0.196078 0.721569 0.145098 0.196078 0.721569 0.145098 
0.196078 0.721569 0.145098 0.196078 0.721569 0.145098 
0.196078 0.721569 0.145098 0.196078 0.721569 0.145098 
0.196078 0.721569 0.145098 0.196078 0.721569 0.145098 
0.196078 0.721569 0.145098 0.196078 0.721569 0.145098 
0.196078 0.721569 0.145098 0.196078 0.721569 0.145098 
0.196078 0.721569 0.145098 0.196078 0.721569 0.145098 
0.196078 0.721569 0.145098 0.196078 0.721569 0.145098 
0.196078 0.721569 0.145098 0.196078 0.721569 0.145098 
0.196078 0.721569 0.145098 0.196078 0.721569 0.145098 
0.196078 0.721569 0.145098 0.196078 0.721569 0.145098 
0.196078 0.721569 0.145098 0.196078 0.721569 0.145098 
0.196078 0.721569 0.145098 0.196078 0.721569 0.145098 
0.196078 0.721569 0.145098 0.196078 0.721569 0.145098 
0.196078 0.721569 0.145098 0.196078 0.721569 0.145098 
0.196078 0.721569 0.145098 0.196078 0.721569 0.145098 
0.196078 0.721569 0.145098 0.196078 0.721569 0.145098 
0.196078 0.721569 0.145098 0.196078 0.721569 0.145098 
0.196078 0.721569 0.145098 0.196078 0.721569 0.145098 
0.196078 0.721569 0.145098 0.196078 0.721569 0.145098 
0.196078 0.721569 0.145098 0.196078 0.721569 0.145098 
0.196078 0.721569 0.145098 0.196078 0.721569 0.145098 
0.196078 0.721569 0.145098 0.196078 0.721569 0.145098 
0.196078 0.721569 0.145098 0.196078 0.721569 0.145098 
0.196078 0.721569 0.145098 0.196078 0.721569 0.145098 
0.196078 0.721569 0.145098 0.196078 0.721569 0.145098 
0.196078 0.721569 0.145098 0.196078 0.721569 0.145098 
0.196078 0.721569 0.145098 0.196078 0.721569 0.145098 
0.196078 0.721569 0.145098 0.196078 0.721569 0.145098 
0.196078 0.721569 0.145098 0.196078 0.721569 0.145098 
0.196078 0.721569 0.145098 0.196078 0.721569 0.145098 
0.196078 0.721569 0.145098 0.196078 0.721569 0.145098 
0.196078 0.721569 0.145098 0.196078 0.721569 0.145098 
0.196078 0.721569 0.145098 0.196078 0.721569 0.145098 
0.196078 0.721569 0.145098 0.196078 0.721569 0.145098 
0.196078 0.721569 0.145098 0.196078 0.721569 0.145098 
0.196078 0.721569 0.145098 0.196078 0.721569 0.145098 
0.196078 0.721569 0.145098 0.196078 0.721569 0.145098 
0.196078 0.721569 0.145098 0.196078 0.721569 0.145098 
0.196078 0.721569 0.145098 0.196078 0.721569 0.145098 
0.196078 0.721569 0.145098 0.196078 0.721569 0.145098 
0.196078 0.721569 0.145098 0.196078 0.721569 0.145098 
0.196078 0.721569 0.145098 0.196078 0.721569 0.145098 
0.196078 0.721569 0.145098 0.196078 0.721569 0.145098 
0.196078 0.721569 0.145098 0.196078 0.721569 0.145098 
0.196078 0.721569 0.145098 0.196078 0.721569 0.145098 
0.196078 0.721569 0.145098 0.196078 0.721569 0.145098 
0.196078 0.721569 0.145098 0.196078 0.721569 0.145098 
0.196078 0.721569 0.145098 0.196078 0.721569 0.145098 
0.196078 0.721569 0.145098 0.196078 0.721569 0.145098 
0.196078 0.721569 0.145098 0.196078 0.721569 0.145098 
0.196078 0.721569 0.145098 0.196078 0.721569 0.145098 
0.196078 0.721569 0.145098 0.196078 0.721569 0.145098 
0.196078 0.721569 0.145098 0.196078 0.721569 0.145098 
0.196078 0.721569 0.145098 0.196078 0.721569 0.145098 
0.196078 0.721569 0.145098 0.196078 0.721569 0.145098 
0.196078 0.721569 0.145098 0.196078 0.721569 0.145098 
0.196078 0.721569 0.145098 0.196078 0.721569 0.145098 
0.196078 0.721569 0.145098 0.196078 0.721569 0.145098 
0.196078 0.721569 0.145098 0.196078 0.721569 0.145098 
0.196078 0.721569 0.145098 0.196078 0.721569 0.145098 
0.196078 0.721569 0.145098 0.196078 0.721569 0.145098 
0.196078 0.721569 0.145098 0.196078 0.721569 0.145098 
0.196078 0.721569 0.145098 0.196078 0.721569 0.145098 
0.196078 0.721569 0.145098 0.196078 0.721569 0.145098 
0.196078 0.721569 0.145098 0.196078 0.721569 0.145098 
0.196078 0.721569 0.145098 0.196078 0.721569 0.145098 
0.196078 0.721569 0.145098 0.196078 0.721569 0.145098 
0.196078 0.721569 0.145098 0.196078 0.721569 0.145098 
0.196078 0.721569 0.145098 0.196078 0.721569 0.145098 
0.196078 0.721569 0.145098 0.196078 0.721569 0.145098 
0.196078 0.721569 0.145098 0.196078 0.721569 0.145098 
0.196078 0.721569 0.145098 0.196078 0.721569 0.145098 
0.196078 0.721569 0.145098 0.196078 0.721569 0.145098 
0.196078 0.721569 0.145098 0.196078 0.721569 0.145098 
0.196078 0.721569 0.145098 0.196078 0.721569 0.145098 
0.196078 0.721569 0.145098 0.196078 0.721569 0.145098 
0.196078 0.721569 0.145098 0.196078 0.721569 0.145098 
0.196078 0.721569 0.145098 0.196078 0.721569 0.145098 
0.196078 0.721569 0.145098 0.196078 0.721569 0.145098 
0.196078 0.721569 0.145098 0.196078 0.721569 0.145098 
0.196078 0.721569 0.145098 0.196078 0.721569 0.145098 
0.196078 0.721569 0.145098 0.196078 0.721569 0.145098 
0.196078 0.721569 0.145098 0.196078 0.721569 0.145098 
0.196078 0.721569 0.145098 0.196078 0.721569 0.145098 
0.196078 0.721569 0.145098 0.196078 0.721569 0.145098 
0.196078 0.721569 0.145098 0.196078 0.721569 0.145098 
0.196078 0.721569 0.145098 0.196078 0.721569 0.145098 
0.196078 0.721569 0.145098 0.196078 0.721569 0.145098 
0.196078 0.721569 0.145098 0.196078 0.721569 0.145098 
0.196078 0.721569 0.145098 0.196078 0.721569 0.145098 