# vtk DataFile Version 4.2
vtk output
ASCII
DATASET POLYDATA
POINTS 2414 float
343.564 184.908 31.5854 345.114 184.92 31.3748 338.925 187.786 31.0818 
333.598 188.42 32.0818 335.156 188.999 31.2838 329.946 189.686 32.3611 
329.444 190.179 32.0875 330.781 189.541 32.1477 341.064 189.071 30.6215 
325.103 191.596 32.6465 325.853 191.432 32.4298 328.042 191.816 31.5108 
324.067 192.627 32.2922 325.188 192.62 31.8504 324.49 193.539 31.8048 
346.47 182.825 32.3545 341.737 184.788 32.1658 338.788 185.452 32.9956 
338.246 185.955 32.5782 339.593 185.279 32.725 334.002 187.818 32.5241 
336.206 186.872 32.5671 332.428 188.33 32.6934 355.031 187.532 31.8416 
328.396 190.022 32.7803 326.346 190.898 32.7968 320.333 195.186 32.6571 
321.855 196.42 32.166 324.585 196.575 31.8638 356.12 177.264 33.5338 
356.533 178.605 32.9744 358.786 177.956 33.0848 359.997 179.32 32.8321 
357.901 181.965 32.3932 342.987 183.422 33.1857 336.713 186.344 33.0259 
333.253 187.635 33.3383 329.561 189.121 33.6938 327.461 190.003 33.6784 
324.711 191.168 33.9173 320.762 193.231 34.0315 322.288 192.737 33.5038 
318.038 194.631 34.2323 317.522 195.156 33.977 319.696 193.921 33.9007 
314.508 196.751 34.0513 314.111 196.429 34.4829 316.174 196.843 33.4826 
314.516 197.767 33.6387 325.665 198.912 32.2787 322.429 200.409 32.7391 
357.59 176.487 33.7246 348.749 179.739 34.3436 341.241 183.849 34.2433 
338.544 185.109 34.5146 337.139 185.758 34.2861 331.698 188.221 33.665 
330.215 188.753 34.1971 327.378 189.911 34.4194 317.757 194.299 34.9356 
316.434 195.004 34.777 310.501 198.182 34.9754 310.843 199.603 34.2175 
310.427 201.126 34.0496 310.603 202.403 34.0381 359.832 171.821 35.876 
357.147 173.715 35.8754 359.097 173.288 35.2151 353.661 176.37 35.0721 
339.24 184.792 35.0149 333.024 187.504 34.7156 334.389 186.916 34.9882 
329.5 189.078 35.2196 319.825 193.304 34.9552 318.329 193.856 35.4194 
315.437 194.991 35.7462 312.388 196.711 35.3758 310.721 197.328 35.8346 
309.472 198.074 35.6799 306.351 200.271 35.5796 305.614 200.217 35.9489 
307.672 199.296 35.6238 304.403 201.653 35.5955 304.776 203.584 35.1459 
359.354 171.625 36.4031 376.795 171.074 35.7603 357.215 172.936 36.9244 
348.453 179.182 35.5535 348.061 179.313 35.906 338.675 185.292 36.0256 
336.333 186.092 35.1452 337.422 185.786 35.8463 328.801 189.408 35.4594 
326.677 190.257 35.4352 320.285 192.931 36.2355 317.474 194.039 36.4313 
316.822 194.361 35.9434 318.931 193.496 35.9407 316.074 194.619 36.229 
308.43 198.234 36.3666 303.818 200.466 36.8351 303.471 201.127 36.3663 
300.829 201.717 37.2954 300.423 202.227 36.9915 299.12 202.852 37.1338 
299.02 203.253 36.8995 301.17 202.976 36.2959 299.144 204.071 36.5331 
300.599 205.024 36.039 362.323 167.67 37.6894 358.252 171.935 37.2718 
356.965 172.869 37.542 348.454 178.987 36.9894 346.819 180.131 36.3432 
344.994 181.439 36.5472 338.817 185.589 36.6751 333.898 187.734 36.626 
333.144 187.811 36.1899 335.296 186.944 36.2404 329.685 189.54 36.6622 
328.889 189.608 36.1955 326.072 190.785 36.4556 314.106 195.367 36.8829 
316.076 194.587 36.9832 309.247 197.604 37.0054 305.026 199.7 37.0607 
307.091 198.735 36.9592 303.506 200.26 37.5067 299.673 202.071 37.6258 
300.889 201.347 37.8064 298.982 202.476 37.6725 297.567 203.424 37.6308 
292.436 205.611 38.2617 292.093 205.406 38.6033 298.477 205.394 36.5858 
293.033 206.324 37.7662 365.644 163.367 38.656 376.035 163.853 36.9597 
362.051 167.502 38.3074 357.641 172.139 38.189 345.728 181.301 37.5761 
344.646 182.17 37.5588 341.598 184.295 37.0257 336.15 186.894 36.7351 
334.676 187.791 37.0773 330.514 189.593 37.1411 327.703 190.652 37.2514 
324.769 191.694 37.51 323.402 192.279 37.7516 319.551 193.318 37.206 
318.14 193.94 37.5719 315.444 194.987 37.8675 310.492 197.037 37.9415 
308.39 197.997 37.8516 291.52 205.85 38.6696 292.393 204.968 38.8978 
290.39 206.881 38.6931 291.754 207.477 38.0505 369.655 157.867 39.6725 
378.728 157.672 38.861 369.782 159.486 38.6875 367.752 159.534 39.8295 
365.989 162.028 39.5233 362.266 166.812 39.5525 361.364 167.983 39.3037 
359.698 170.003 38.9751 358.139 171.698 39.2174 357.068 172.723 39.2078 
383.886 176.367 38.1446 349.413 178.593 38.1478 347.632 179.784 37.726 
347.248 180.656 38.4433 345.469 181.814 37.892 344.502 182.732 38.0009 
336.534 187.423 37.4385 335.331 188.761 38.0462 336.934 189.186 38.5697 
323.56 192.666 38.4233 326.903 192.164 38.6164 319.312 193.694 38.0768 
316.903 194.583 38.1428 314.713 195.596 38.7015 309.733 197.615 38.7908 
308.382 198.133 38.5718 302.244 200.599 38.5395 303.957 199.899 38.6613 
300.024 201.619 39.2326 297.331 202.772 38.8965 298.764 202.107 39.1187 
290.369 205.806 39.5245 291.546 205.016 39.7148 289.536 206.262 39.6828 
286.512 207.785 40.1348 288.12 207.272 39.6803 286.143 208.432 39.8604 
287.026 208.886 39.4216 286.494 209.11 39.5774 287.639 209.997 39.1875 
295.637 214.568 38.7616 374.406 153.908 40.1271 370.959 155.911 40.2247 
369.706 156.723 40.5024 368.034 158.445 40.5763 366.959 160.011 40.4605 
361.812 167.421 39.8393 356.537 173.227 39.3047 356.322 173.594 39.6335 
357.375 172.66 39.8789 348.16 180.118 38.765 346.109 182.247 38.5894 
346.801 182.91 39.1311 344.148 184.02 38.5235 346.868 190.027 40.0069 
324.116 192.925 38.8401 323.048 193.598 39.2188 315.448 195.67 39.182 
329.712 195.124 40.3387 309.725 197.905 39.3213 304.593 199.69 38.9205 
304.255 199.906 39.1766 300 201.811 39.8488 296.501 203.143 39.819 
291.271 205.067 40.1546 285.666 207.758 40.7578 285.253 208.302 40.5 
287.177 207.161 40.34 284.246 209.073 40.7319 284.486 210.333 40.4737 
285.908 211.403 40.0565 287.146 211.081 39.5658 294.757 216.491 39.9468 
299.32 218.337 40.0569 308.587 219.696 39.4762 373.477 152.008 41.8705 
375.36 153.9 40.0115 370.091 155.499 41.4038 369.612 155.94 41.5535 
367.934 158.205 41.1182 387.094 158.193 41.0418 366.308 160.582 41.381 
362.45 167.023 41.1857 361.535 168.24 40.8567 357.058 173.459 40.4722 
352.226 178.095 39.6917 354.588 177.167 40.6153 352.561 179.676 40.2659 
353.279 180.431 40.5171 386.688 181.379 40.9815 355.627 184.041 40.9112 
315.882 196.489 40.133 304.369 200.17 39.7091 294.423 203.957 40.5671 
292.576 204.523 40.306 292.957 204.54 40.8088 291.488 205.035 40.7462 
287.72 206.68 40.5775 284.174 208.237 41.4605 283.214 208.975 41.5835 
282.563 209.896 41.6519 282.178 211.056 41.8158 282.803 211.041 41.4603 
282.038 211.452 41.967 282.513 212.059 41.9143 286.932 212.875 40.3222 
290.845 215.037 40.2309 290.492 216.343 41.6999 292.035 216.976 41.7061 
294.963 217.512 40.8168 294.966 218.333 42.1811 298.06 218.64 40.7078 
301.953 219.76 40.5428 300.606 220.397 41.8315 305.915 220.859 40.4961 
302.126 220.936 41.9369 302.786 221.249 42.141 305.757 222.222 42.0716 
305.738 221.919 41.6177 309.481 222.272 41.0571 378.603 146.21 42.7789 
377.844 146.359 42.8963 379.246 146.38 42.6394 374.247 150.669 42.3154 
369.475 155.794 42.2515 368.232 157.481 41.8793 367.563 158.483 41.9864 
367.168 159.191 41.792 357.537 173.456 40.8797 354.557 176.329 40.31 
300.495 202.287 40.7484 299.206 203.458 41.5172 293.756 204.541 41.2537 
286.909 206.779 41.5037 285.281 207.393 41.8999 286.032 207.079 41.8227 
282.553 209.011 42.1857 281.718 209.935 42.4669 281.357 210.486 42.5753 
281.037 210.691 42.8787 280.846 211.11 43.0651 281.714 211.605 42.3337 
281.34 212.192 43.147 281.518 211.99 42.7683 283.134 213.374 42.9244 
288.803 215.936 42.564 291.529 217.098 42.3965 291.545 217.192 42.7625 
295.661 218.71 42.5895 298.8 219.871 42.3479 299.526 220.25 42.6039 
300.825 220.645 42.3782 302.386 221.205 42.3897 302.295 221.244 42.8548 
305.52 222.355 42.7287 309.933 223.197 42.0922 315.98 223.907 41.616 
308.733 223.305 42.7461 310.654 223.595 42.6505 314.721 224.284 42.3028 
316.474 224.902 42.684 322.718 225.349 41.9718 377.907 145.957 43.1194 
373.09 151.404 43.049 372.098 152.488 43.4317 368.995 156.456 42.6728 
368.172 157.679 42.8951 366.401 160.623 42.512 362.614 167.811 42.2197 
363.224 167.318 42.4404 362.613 169.822 42.4238 293.41 205.679 42.4091 
286.649 206.831 42.0728 286.162 207.007 42.3564 287.68 206.809 42.7825 
284 207.914 42.4567 283.687 208.087 42.7779 280.745 210.635 43.344 
280.546 211.041 43.4584 280.682 211.843 43.7368 281.043 212.222 43.7093 
281.47 212.462 43.4704 282.663 213.274 43.4822 285.693 214.817 43.4385 
286.795 215.316 43.5425 294.276 218.19 43.0885 295.008 218.496 43.2677 
297.675 219.546 43.1539 300.024 220.442 43.2374 306.139 222.613 43.4249 
308.677 223.417 43.226 313.159 224.489 43.6245 315.75 225.159 43.4833 
315.708 225.26 43.8786 331.942 226.12 42.4313 318.83 225.879 43.7272 
328.949 226.609 42.7341 323.581 227.126 44.0807 327.654 227.497 43.887 
329.376 227.532 43.6878 382.599 140.33 44.9326 382.454 142.861 44.0746 
378.781 143.954 44.1292 376.228 146.66 43.9738 370.304 154.574 43.2342 
370.197 154.825 43.7252 368.898 157.24 43.8533 366.673 161.2 43.3516 
365.508 163.628 43.22 392.555 164.665 43.7879 365.146 166.432 43.5315 
286.378 207.249 43.1242 285.739 207.374 43.0244 288.561 206.922 43.1303 
284.35 208.059 43.4218 289.621 207.48 43.7387 300.121 208.092 43.6244 
280.89 210.061 43.8415 280.358 210.76 44.1402 280.244 211.177 44.0775 
280.151 211.395 44.2037 280.15 211.493 44.1618 281.337 212.456 44.1082 
366.843 213.783 43.1205 283.465 213.674 43.8853 284.988 214.413 43.9898 
290.484 216.578 43.9651 295.531 218.562 43.8957 297.617 219.4 43.8848 
300.636 220.501 43.8545 302.676 221.328 43.6805 309.372 223.573 43.9337 
312.381 224.261 43.9597 315.514 225.223 44.3621 316.698 225.554 44.3625 
332.594 227.69 43.6181 326.527 227.656 44.5666 329.643 227.983 44.4169 
331.077 228.113 44.2764 385.246 136.165 46.1154 385.252 135.666 46.3447 
383.36 137.811 46.0485 384.336 140.25 45.0424 378.675 142.7 45.3932 
377.458 144.502 45.0324 375.945 146.502 45.0043 375.637 146.987 45.1797 
374.061 149.778 45.0148 370.952 154.402 44.5227 370.419 154.858 44.2285 
368.473 158.593 44.1077 368.445 160.402 44.5527 369.074 161.033 44.9161 
[...]
POINT_DATA 2414
COLOR_SCALARS scalars 3
0.196078 0.721569 0.145098 0.196078 0.721569 0.145098 0.196078 0.721569 0.145098 
0.196078 0.721569 0.145098 0.196078 0.721569 0.145098 
0.196078 0.721569 0.145098 0.196078 0.721569 0.145098 
0.196078 0.721569 0.145098 0.196078 0.721569 0.145098 
0.196078 0.721569 0.145098 0.196078 0.721569 0.145098 
0.196078 0.721569 0.145098 0.196078 0.721569 0.145098 
0.196078 0.721569 0.145098 0.196078 0.721569 0.145098 
0.196078 0.721569 0.145098 0.196078 0.721569 0.145098 
0.196078 0.721569 0.145098 0.196078 0.721569 0.145098 
0.196078 0.721569 0.145098 0.196078 0.721569 0.145098 
0.196078 0.721569 0.145098 0.196078 0.721569 0.145098 
0.196078 0.721569 0.145098 0.196078 0.721569 0.145098 
0.196078 0.721569 0.145098 0.196078 0.721569 0.145098 
0.196078 0.721569 0.145098 0.196078 0.721569 0.145098 
0.196078 0.721569 0.145098 0.196078 0.721569 0.145098 
0.196078 0.721569 0.145098 0.196078 0.721569 0.145098 
0.196078 0.721569 0.145098 0.196078 0.721569 0.145098 
0.196078 0.721569 0.145098 0.196078 0.721569 0.145098 
0.196078 0.721569 0.145098 0.196078 0.721569 0.145098 
0.196078 0.721569 0.145098 0.196078 0.721569 0.145098 
0.196078 0.721569 0.145098 0.196078 0.721569 0.145098 
0.196078 0.721569 0.145098 0.196078 0.721569 0.145098 
0.196078 0.721569 0.145098 0.196078 0.721569 0.145098 
0.196078 0.721569 0.145098 0.196078 0.721569 0.145098 
0.196078 0.721569 0.145098 0.196078 0.721569 0.145098 
0.196078 0.721569 0.145098 0.196078 0.721569 0.145098 
0.196078 0.721569 0.145098 0.196078 0.721569 0.145098 
0.196078 0.721569 0.145098 0.196078 0.721569 0.145098 
0.196078 0.721569 0.145098 0.196078 0.721569 0.145098 
0.196078 0.721569 0.145098 0.196078 0.721569 0.145098 
0.196078 0.721569 0.145098 0.196078 0.721569 0.145098 
0.196078 0.721569 0.145098 0.196078 0.721569 0.145098 
0.196078 0.721569 0.145098 0.196078 0.721569 0.145098 
0.196078 0.721569 0.145098 0.196078 0.721569 0.145098 
0.196078 0.721569 0.145098 0.196078 0.721569 0.145098 
0.196078 0.721569 0.145098 0.196078 0.721569 0.145098 
0.196078 0.721569 0.145098 0.196078 0.721569 0.145098 
0.196078 0.721569 0.145098 0.196078 0.721569 0.145098 
0.196078 0.721569 0.145098 0.196078 0.721569 0.145098 
0.196078 0.721569 0.145098 0.196078 0.721569 0.145098 
0.196078 0.721569 0.145098 0.196078 0.721569 0.145098 
0.196078 0.721569 0.145098 0.196078 0.721569 0.145098 
0.196078 0.721569 0.145098 0.196078 0.721569 0.145098 
0.196078 0.721569 0.145098 0.196078 0.721569 0.145098 
0.196078 0.721569 0.145098 0.196078 0.721569 0.145098 
0.196078 0.721569 0.145098 0.196078 0.721569 0.145098 
0.196078 0.721569 0.145098 0.196078 0.721569 0.145098 
0.196078 0.721569 0.145098 0.196078 0.721569 0.145098 
0.196078 0.721569 0.145098 0.196078 0.721569 0.145098 
0.196078 0.721569 0.145098 0.196078 0.721569 0.145098 
0.196078 0.721569 0.145098 0.196078 0.721569 0.145098 
0.196078 0.721569 0.145098 0.196078 0.721569 0.145098 
0.196078 0.721569 0.145098 0.196078 0.721569 0.145098 
0.196078 0.721569 0.145098 0.196078 0.721569 0.145098 
0.196078 0.721569 0.145098 0.196078 0.721569 0.145098 
0.196078 0.721569 0.145098 0.196078 0.721569 0.145098 
0.196078 0.721569 0.145098 0.196078 0.721569 0.145098 
0.196078 0.721569 0.145098 0.196078 0.721569 0.145098 
0.196078 0.721569 0.145098 0.196078 0.721569 0.145098 
0.196078 0.721569 0.145098 0.196078 0.721569 0.145098 
0.196078 0.721569 0.145098 0.196078 0.721569 0.145098 
0.196078 0.721569 0.145098 0.196078 0.721569 0.145098 
0.196078 0.721569 0.145098 0.196078 0.721569 0.145098 
0.196078 0.721569 0.145098 0.196078 0.721569 0.145098 
0.196078 0.721569 0.145098 0.196078 0.721569 0.145098 
0.196078 0.721569 0.145098 0.196078 0.721569 0.145098 
0.196078 0.721569 0.145098 0.196078 0.721569 0.145098 
0.196078 0.721569 0.145098 0.196078 0.721569 0.145098 
0.196078 0.721569 0.145098 0.196078 0.721569 0.145098 
0.196078 0.721569 0.145098 0.196078 0.721569 0.145098 
0.196078 0.721569 0.145098 0.196078 0.721569 0.145098 
0.196078 0.721569 0.145098 0.196078 0.721569 0.145098 
0.196078 0.721569 0.145098 0.196078 0.721569 0.145098 
0.196078 0.721569 0.145098 0.196078 0.721569 0.145098 
0.196078 0.721569 0.145098 0.196078 0.721569 0.145098 
0.196078 0.721569 0.145098 0.196078 0.721569 0.145098 
0.196078 0.721569 0.145098 0.196078 0.721569 0.145098 
0.196078 0.721569 0.145098 0.196078 0.721569 0.145098 
0.196078 0.721569 0.145098 0.196078 0.721569 0.145098 
0.196078 0.721569 0.145098 0.196078 0.721569 0.145098 
0.196078 0.721569 0.145098 0.196078 0.721569 0.145098 
0.196078 0.721569 0.145098 0.196078 0.721569 0.145098 
0.196078 0.721569 0.145098 0.196078 0.721569 0.145098 
0.196078 0.721569 0.145098 0.196078 0.721569 0.145098 
0.196078 0.721569 0.145098 0.196078 0.721569 0.145098 
0.196078 0.721569 0.145098 0.196078 0.721569 0.145098 
0.196078 0.721569 0.145098 0.196078 0.721569 0.145098 
0.196078 0.721569 0.145098 0.196078 0.721569 0.145098 
0.196078 0.721569 0.145098 0.196078 0.721569 0.145098 
0.196078 0.721569 0.145098 0.196078 0.721569 0.145098 
0.196078 0.721569 0.145098 0.196078 0.721569 0.145098 
0.196078 0.721569 0.145098 0.196078 0.721569 0.145098 
0.196078 0.721569 0.145098 0.196078 0.721569 0.145098 
0.196078 0.721569 0.145098 0.196078 0.721569 0.145098 
0.196078 0.721569 0.145098 0.196078 0.721569 0.145098 
0.196078 0.721569 0.145098 0.196078 0.721569 0.145098 
0.196078 0.721569 0.145098 0.196078 0.721569 0.145098 
0.196078 0.721569 0.145098 0.196078 0.721569 0.145098 
0.196078 0.721569 0.145098 0.196078 0.721569 0.145098 
0.196078 0.721569 0.145098 0.196078 0.721569 0.145098 
0.196078 0.721569 0.145098 0.196078 0.721569 0.145098 
0.196078 0.721569 0.145098 0.196078 0.721569 0.145098 
0.196078 0.721569 0.145098 0.196078 0.721569 0.145098 
0.196078 0.721569 0.145098 0.196078 0.721569 0.145098 
0.196078 0.721569 0.145098 0.196078 0.721569 0.145098 
0.196078 0.721569 0.145098 0.196078 0.721569 0.145098 
0.196078 0.721569 0.145098 0.196078 0.721569 0.145098 
0.196078 0.721569 0.145098 0.196078 0.721569 0.145098 
0.196078 0.721569 0.145098 0.196078 0.721569 0.145098 
0.196078 0.721569 0.145098 0.196078 0.721569 0.145098 
0.196078 0.721569 0.145098 0.196078 0.721569 0.145098 
0.196078 0.721569 0.145098 0.196078 0.721569 0.145098 
0.196078 0.721569 0.145098 0.196078 0.721569 0.145098 
0.196078 0.721569 0.145098 0.196078 0.721569 0.145098 
0.196078 0.721569 0.145098 0.196078 0.721569 0.145098 
0.196078 0.721569 0.145098 0.196078 0.721569 0.145098 
0.196078 0.721569 0.145098 0.196078 0.721569 0.145098 
0.196078 0.721569 0.145098 0.196078 0.721569 0.145098 
0.196078 0.721569 0.145098 0.196078 0.721569 0.145098 
0.196078 0.721569 0.145098 0.196078 0.721569 0.145098 
0.196078 0.721569 0.145098 0.196078 0.721569 0.145098 
0.196078 0.721569 0.145098 0.196078 0.721569 0.145098 
0.196078 0.721569 0.145098 0.196078 0.721569 0.145098 
0.196078 0.721569 0.145098 0.196078 0.721569 0.145098 
0.196078 0.721569 0.145098 0.196078 0.721569 0.145098 
0.196078 0.721569 0.145098 0.196078 0.721569 0.145098 
0.196078 0.721569 0.145098 0.196078 0.721569 0.145098 
0.196078 0.721569 0.145098 0.196078 0.721569 0.145098 
0.196078 0.721569 0.145098 0.196078 0.721569 0.145098 
0.196078 0.721569 0.145098 0.196078 0.721569 0.145098 
0.196078 0.721569 0.145098 0.196078 0.721569 0.145098 
0.196078 0.721569 0.145098 0.196078 0.721569 0.145098 
0.196078 0.721569 0.145098 0.196078 0.721569 0.145098 
0.196078 0.721569 0.145098 0.196078 0.721569 0.145098 
0.196078 0.721569 0.145098 0.196078 0.721569 0.145098 
0.196078 0.721569 0.145098 0.196078 0.721569 0.145098 
0.196078 0.721569 0.145098 0.196078 0.721569 0.145098 
0.196078 0.721569 0.145098 0.196078 0.721569 0.145098 
0.196078 0.721569 0.145098 0.196078 0.721569 0.145098 
0.196078 0.721569 0.145098 0.196078 0.721569 0.145098 
0.196078 0.721569 0.145098 0.196078 0.721569 0.145098 
0.196078 0.721569 0.145098 0.196078 0.721569 0.145098 
0.196078 0.721569 0.145098 0.196078 0.721569 0.145098 
0.196078 0.721569 0.145098 0.196078 0.721569 0.145098 
0.196078 0.721569 0.145098 0.196078 0.721569 0.145098 
0.196078 0.721569 0.145098 0.196078 0.721569 0.145098 
0.196078 0.721569 0.145098 0.196078 0.721569 0.145098 
0.196078 0.721569 0.145098 0.196078 0.721569 0.145098 
0.196078 0.721569 0.145098 0.196078 0.721569 0.145098 
0.196078 0.721569 0.145098 0.196078 0.721569 0.145098 
0.196078 0.721569 0.145098 0.196078 0.721569 0.145098 
0.196078 0.721569 0.145098 0.196078 0.721569 0.145098 
0.196078 0.721569 0.145098 0.196078 0.721569 0.145098 
0.196078 0.721569 0.145098 0.196078 0.721569 0.145098 
0.196078 0.721569 0.145098 0.196078 0.721569 0.145098 
0.196078 0.721569 0.145098 0.196078 0.721569 0.145098 
0.196078 0.721569 0.145098 0.196078 0.721569 0.145098 
0.196078 0.721569 0.145098 0.196078 0.721569 0.145098 
0.196078 0.721569 0.145098 0.196078 0.721569 0.145098 
0.196078 0.721569 0.145098 0.196078 0.721569 0.145098 
0.196078 0.721569 0.145098 0.196078 0.721569 0.145098 
0.196078 0.721569 0.145098 0.196078 0.721569 0.145098 
0.196078 0.721569 0.145098 0.196078 0.721569 0.145098 
0.196078 0.721569 0.145098 0.196078 0.721569 0.145098 
0.196078 0.721569 0.145098 0.196078 0.721569 0.145098 
0.196078 0.721569 0.145098 0.196078 0.721569 0.145098 
0.196078 0.721569 0.145098 0.196078 0.721569 0.145098 
0.196078 0.721569 0.145098 0.196078 0.721569 0.145098 
0.196078 0.721569 0.145098 0.196078 0.721569 0.145098 
0.196078 0.721569 0.145098 0.196078 0.721569 0.145098 
0.196078 0.721569 0.145098 0.196078 0.721569 0.145098 
0.196078 0.721569 0.145098 0.196078 0.721569 0.145098 
0.196078 0.721569 0.145098 0.196078 0.721569 0.145098 
0.196078 0.721569 0.145098 0.196078 0.721569 0.145098 
0.196078 0.721569 0.145098 0.196078 0.721569 0.145098 
0.196078 0.721569 0.145098 0.196078 0.721569 0.145098 
0.196078 0.721569 0.145098 0.196078 0.721569 0.145098 
0.196078 0.721569 0.145098 0.196078 0.721569 0.145098 
0.196078 0.721569 0.145098 0.196078 0.721569 0.145098 
0.196078 0.721569 0.145098 0.196078 0.721569 0.145098 
0.196078 0.721569 0.145098 0.196078 0.721569 0.145098 
0.196078 0.721569 0.145098 0.196078 0.721569 0.145098 
0.196078 0.721569 0.145098 0.196078 0.721569 0.145098 
0.196078 0.721569 0.145098 0.196078 0.721569 0.145098 
0.196078 0.721569 0.145098 0.196078 0.721569 0.145098 
0.196078 0.721569 0.145098 0.196078 0.721569 0.145098 
0.196078 0.721569 0.145098 0.196078 0.721569 0.145098 
0.196078 0.721569 0.145098 0.196078 0.721569 0.145098 
0.196078 0.721569 0.145098 0.196078 0.721569 0.145098 
0.196078 0.721569 0.145098 0.196078 0.721569 0.145098 
0.196078 0.721569 0.145098 0.196078 0.721569 0.145098 
0.196078 0.721569 0.145098 0.196078 0.721569 0.145098 
0.196078 0.721569 0.145098 0.196078 0.721569 0.145098 
0.196078 0.721569 0.145098 0.196078 0.721569 0.145098 
0.196078 0.721569 0.145098 0.196078 0.721569 0.145098 
0.196078 0.721569 0.145098 0.196078 0.721569 0.145098 
0.196078 0.721569 0.145098 0.196078 0.721569 0.145098 
0.196078 0.721569 0.145098 0.196078 0.721569 0.145098 
0.196078 0.721569 0.145098 0.196078 0.721569 0.145098 
0.196078 0.721569 0.145098 0.196078 0.721569 0.145098 
0.196078 0.721569 0.145098 0.196078 0.721569 0.145098 
0.196078 0.721569 0.145098 0.196078 0.721569 0.145098 
0.196078 0.721569 0.145098 0.196078 0.721569 0.145098 
0.196078 0.721569 0.145098 0.196078 0.721569 0.145098 
0.196078 0.721569 0.145098 0.196078 0.721569 0.145098 
0.196078 0.721569 0.145098 0.196078 0.721569 0.145098 
0.196078 0.721569 0.145098 0.196078 0.721569 0.145098 
0.196078 0.721569 0.145098 0.196078 0.721569 0.145098 
0.196078 0.721569 0.145098 0.196078 0.721569 0.145098 
0.196078 0.721569 0.145098 0.196078 0.721569 0.145098 
0.196078 0.721569 0.145098 0.196078 0.721569 0.145098 
0.196078 0.721569 0.145098 0.196078 0.721569 0.145098 
0.196078 0.721569 0.145098 0.196078 0.721569 0.145098 
0.196078 0.721569 0.145098 0.196078 0.721569 0.145098 
0.196078 0.721569 0.145098 0.196078 0.721569 0.145098 
0.196078 0.721569 0.145098 0.196078 0.721569 0.145098 
0.196078 0.721569 0.145098 0.196078 0.721569 0.145098 
0.196078 0.721569 0.145098 0.196078 0.721569 0.145098 
0.196078 0.721569 0.145098 0.196078 0.721569 0.145098 
0.196078 0.721569 0.145098 0.196078 0.721569 0.145098 
0.196078 0.721569 0.145098 0.196078 0.721569 0.145098 
0.196078 0.721569 0.145098 0.196078 0.721569 0.145098 
0.196078 0.721569 0.145098 0.196078 0.721569 0.145098 
0.196078 0.721569 0.145098 0.196078 0.721569 0.145098 
0.196078 0.721569 0.145098 0.196078 0.721569 0.145098 
0.196078 0.721569 0.145098 0.196078 0.721569 0.145098 
0.196078 0.721569 0.145098 0.196078 0.721569 0.145098 
0.196078 0.721569 0.145098 0.196078 0.721569 0.145098 
0.196078 0.721569 0.145098 0.196078 0.721569 0.145098 
0.196078 0.721569 0.145098 0.196078 0.721569 0.145098 
0.196078 0.721569 0.145098 0.196078 0.721569 0.145098 
0.196078 0.721569 0.145098 0.196078 0.721569 0.145098 
0.196078 0.721569 0.145098 0.196078 0.721569 0.145098 
0.196078 0.721569 0.145098 0.196078 0.721569 0.145098 
0.196078 0.721569 0.145098 0.196078 0.721569 0.145098 
0.196078 0.721569 0.145098 0.196078 0.721569 0.145098 
0.196078 0.721569 0.145098 0.196078 0.721569 0.145098 
0.196078 0.721569 0.145098 0.196078 0.721569 0.145098 
0.196078 0.721569 0.145098 0.196078 0.721569 0.145098 
0.196078 0.721569 0.145098 0.196078 0.721569 0.145098 
0.196078 0.721569 0.145098 0.196078 0.721569 0.145098 
0.196078 0.721569 0.145098 0.196078 0.721569 0.145098 
0.196078 0.721569 0.145098 0.196078 0.721569 0.145098 
0.196078 0.721569 0.145098 0.196078 0.721569 0.145098 
0.196078 0.721569 0.145098 0.196078 0.721569 0.145098 
0.196078 0.721569 0.145098 0.196078 0.721569 0.145098 
0.196078 0.721569 0.145098 0.196078 0.721569 0.145098 
0.196078 0.721569 0.145098 0.196078 0.721569 0.145098 
0.196078 0.721569 0.145098 0.196078 0.721569 0.145098 
0.196078 0.721569 0.145098 0.196078 0.721569 0.145098 
0.196078 0.721569 0.145098 0.196078 0.721569 0.145098 
0.196078 0.721569 0.145098 0.196078 0.721569 0.145098 
0.196078 0.721569 0.145098 0.196078 0.721569 0.145098 
0.196078 0.721569 0.145098 0.196078 0.721569 0.145098 
0.196078 0.721569 0.145098 0.196078 0.721569 0.145098 
0.196078 0.721569 0.145098 0.196078 0.721569 0.145098 
0.196078 0.721569 0.145098 0.196078 0.721569 0.145098 
0.196078 0.721569 0.145098 0.196078 0.721569 0.145098 
0.196078 0.721569 0.145098 0.196078 0.721569 0.145098 
0.196078 0.721569 0.145098 0.196078 0.721569 0.145098 
0.196078 0.721569 0.145098 0.196078 0.721569 0.145098 
0.196078 0.721569 0.145098 0.196078 0.721569 0.145098 
0.196078 0.721569 0.145098 0.196078 0.721569 0.145098 
0.196078 0.721569 0.145098 0.196078 0.721569 0.145098 
0.196078 0.721569 0.145098 0.196078 0.721569 0.145098 
0.196078 0.721569 0.145098 0.196078 0.721569 0.145098 
0.196078 0.721569 0.145098 0.196078 0.721569 0.145098 
0.196078 0.721569 0.145098 0.196078 0.721569 0.145098 
0.196078 0.721569 0.145098 0.196078 0.721569 0.145098 
0.196078 0.721569 0.145098 0.196078 0.721569 0.145098 
0.196078 0.721569 0.145098 0.196078 0.721569 0.145098 
0.196078 0.721569 0.145098 0.196078 0.721569 0.145098 
0.196078 0.721569 0.145098 0.196078 0.721569 0.145098 
0.196078 0.721569 0.145098 0.196078 0.721569 0.145098 
0.196078 0.721569 0.145098 0.196078 0.721569 0.145098 
0.196078 0.721569 0.145098 0.196078 0.721569 0.145098 
0.196078 0.721569 0.145098 0.196078 0.721569 0.145098 
0.196078 0.721569 0.145098 0.196078 0.721569 0.145098 
0.196078 0.721569 0.145098 0.196078 0.721569 0.145098 
0.196078 0.721569 0.145098 0.196078 0.721569 0.145098 
0.196078 0.721569 0.145098 0.196078 0.721569 0.145098 
0.196078 0.721569 0.145098 0.196078 0.721569 0.145098 
0.196078 0.721569 0.145098 0.196078 0.721569 0.145098 
0.196078 0.721569 0.145098 0.196078 0.721569 0.145098 
0.196078 0.721569 0.145098 0.196078 0.721569 0.145098 
0.196078 0.721569 0.145098 0.196078 0.721569 0.145098 
0.196078 0.721569 0.145098 0.196078 0.721569 0.145098 
0.196078 0.721569 0.145098 0.196078 0.721569 0.145098 
0.196078 0.721569 0.145098 0.196078 0.721569 0.145098 
0.196078 0.721569 0.145098 0.196078 0.721569 0.145098 
0.196078 0.721569 0.145098 0.196078 0.721569 0.145098 
0.196078 0.721569 0.145098 0.196078 0.721569 0.145098 
0.196078 0.721569 0.145098 0.196078 0.721569 0.145098 
0.196078 0.721569 0.145098 0.196078 0.721569 0.145098 
0.196078 0.721569 0.145098 0.196078 0.721569 0.145098 
0.196078 0.721569 0.145098 0.196078 0.721569 0.145098 
0.196078 0.721569 0.145098 0.196078 0.721569 0.145098 
0.196078 0.721569 0.145098 0.196078 0.721569 0.145098 
0.196078 0.721569 0.145098 0.196078 0.721569 0.145098 
0.196078 0.721569 0.145098 0.196078 0.721569 0.145098 
0.196078 0.721569 0.145098 0.196078 0.721569 0.145098 
0.196078 0.721569 0.145098 0.196078 0.721569 0.145098 
0.196078 0.721569 0.145098 0.196078 0.721569 0.145098 
0.196078 0.721569 0.145098 0.196078 0.721569 0.145098 
0.196078 0.721569 0.145098 0.196078 0.721569 0.145098 
0.196078 0.721569 0.145098 0.196078 0.721569 0.145098 
0.196078 0.721569 0.145098 0.196078 0.721569 0.145098 
0.196078 0.721569 0.145098 0.196078 0.721569 0.145098 
0.196078 0.721569 0.145098 0.196078 0.721569 0.145098 
0.196078 0.721569 0.145098 0.196078 0.721569 0.145098 
0.196078 0.721569 0.145098 0.196078 0.721569 0.145098 
0.196078 0.721569 0.145098 0.196078 0.721569 0.145098 
0.196078 0.721569 0.145098 0.196078 0.721569 0.145098 
0.196078 0.721569 0.145098 0.196078 0.721569 0.145098 
0.196078 0.721569 0.145098 0.196078 0.721569 0.145098 
0.196078 0.721569 0.145098 0.196078 0.721569 0.145098 
0.196078 0.721569 0.145098 0.196078 0.721569 0.145098 
0.196078 0.721569 0.145098 0.196078 0.721569 0.145098 
0.196078 0.721569 0.145098 0.196078 0.721569 0.145098 
0.196078 0.721569 0.145098 0.196078 0.721569 0.145098 
0.196078 0.721569 0.145098 0.196078 0.721569 0.145098 
0.196078 0.721569 0.145098 0.196078 0.721569 0.145098 
0.196078 0.721569 0.145098 0.196078 0.721569 0.145098 
0.196078 0.721569 0.145098 0.196078 0.721569 0.145098 
0.196078 0.721569 0.145098 0.196078 0.721569 0.145098 
0.196078 0.721569 0.145098 0.196078 0.721569 0.145098 
0.196078 0.721569 0.145098 0.196078 0.721569 0.145098 
0.196078 0.721569 0.145098 0.196078 0.721569 0.145098 
0.196078 0.721569 0.145098 0.196078 0.721569 0.145098 
0.196078 0.721569 0.145098 0.196078 0.721569 0.145098 
0.196078 0.721569 0.145098 0.196078 0.721569 0.145098 
0.196078 0.721569 0.145098 0.196078 0.721569 0.145098 
0.196078 0.721569 0.145098 0.196078 0.721569 0.145098 
0.196078 0.721569 0.145098 0.196078 0.721569 0.145098 
0.196078 0.721569 0.145098 0.196078 0.721569 0.145098 
0.196078 0.721569 0.145098 0.196078 0.721569 0.145098 
0.196078 0.721569 0.145098 0.196078 0.721569 0.145098 
0.196078 0.721569 0.145098 0.196078 0.721569 0.145098 
0.196078 0.721569 0.145098 0.196078 0.721569 0.145098 
0.196078 0.721569 0.145098 0.196078 0.721569 0.145098 
0.196078 0.721569 0.145098 0.196078 0.721569 0.145098 
0.196078 0.721569 0.145098 0.196078 0.721569 0.145098 
0.196078 0.721569 0.145098 0.196078 0.721569 0.145098 
0.196078 0.721569 0.145098 0.196078 0.721569 0.145098 
0.196078 0.721569 0.145098 0.196078 0.721569 0.145098 
0.196078 0.721569 0.145098 0.196078 0.721569 0.145098 
0.196078 0.721569 0.145098 0.196078 0.721569 0.145098 
0.196078 0.721569 0.145098 0.196078 0.721569 0.145098 
0.196078 0.721569 0.145098 0.196078 0.721569 0.145098 
0.196078 0.721569 0.145098 0.196078 0.721569 0.145098 
0.196078 0.721569 0.145098 0.196078 0.721569 0.145098 
0.196078 0.721569 0.145098 0.196078 0.721569 0.145098 
0.196078 0.721569 0.145098 0.196078 0.721569 0.145098 
0.196078 0.721569 0.145098 0.196078 0.721569 0.145098 
0.196078 0.721569 0.145098 0.196078 0.721569 0.145098 
0.196078 0.721569 0.145098 0.196078 0.721569 0.145098 
0.196078 0.721569 0.145098 0.196078 0.721569 0.145098 
0.196078 0.721569 0.145098 0.196078 0.721569 0.145098 
0.196078 0.721569 0.145098 0.196078 0.721569 0.145098 
0.196078 0.721569 0.145098 0.196078 0.721569 0.145098 
0.196078 0.721569 0.145098 0.196078 0.721569 0.145098 
0.196078 0.721569 0.145098 0.196078 0.721569 0.145098 