# vtk DataFile Version 4.2
vtk output
ASCII
DATASET POLYDATA
POINTS 2605 float
352.591 174.784 53.3123 351.139 175.702 53.1422 351.385 175.834 52.9729 
350.02 176.322 53.0385 350.98 176.349 52.8062 347.156 178.1 52.9281 
345.36 178.98 52.9857 347.964 178.51 52.5961 343.457 179.873 53.1058 
342.134 180.139 53.5095 339.853 181.615 53.3287 339.122 182.305 53.1979 
339.811 182.078 53.0864 336.93 183.654 53.2085 336.782 183.493 53.4569 
337.194 183.65 53.1066 335.363 184.683 53.2575 335.256 184.603 53.4299 
335.223 184.845 53.282 336.913 183.937 53.1218 335.538 184.616 53.2531 
359.07 170.366 54.1916 358.184 170.499 54.4498 357.804 170.987 54.2138 
359.011 170.94 53.9075 356.769 172.078 53.9175 357.696 171.606 53.8883 
355.572 172.504 54.2221 355.123 173.02 53.9786 353.279 173.981 53.9713 
356.375 173.378 53.4324 352.15 174.909 53.5045 353.257 174.96 53.2134 
351.345 175.258 53.5802 352.126 175.63 53.0696 357.396 174.559 53.2243 
348.85 176.534 53.5772 346.437 177.916 53.3765 346.736 177.572 53.7452 
343.272 179.277 53.9488 339.242 181.607 53.8035 336.488 183.334 53.9113 
337.37 183.02 53.6725 338.183 183.441 53.0927 345.829 182.985 52.5243 
334.687 185.051 53.4767 334.017 185.01 53.8398 335.405 184.11 53.8496 
336.096 184.504 53.2504 331.764 185.904 54.2419 334.631 185.616 53.3283 
338.914 184.984 52.8511 330.542 186.565 54.225 332.466 186.651 53.6468 
335.793 185.835 53.0999 328.121 187.63 54.4989 329.082 187.143 54.4091 
327.745 188.211 54.4195 328.59 188.167 54.1369 362.197 166.918 55.4491 
356.01 171.983 54.5087 359.32 172.701 53.5473 354.266 173.184 54.5373 
349.874 175.703 53.9357 336.024 183.314 54.5341 335.403 183.729 54.3642 
333.828 184.685 54.2957 330.2 186.358 54.5189 330.158 186.045 54.958 
329.702 186.418 54.726 330.901 185.661 54.9999 341.049 187.057 53.1847 
332.211 188.512 53.5462 334.159 188.32 53.4286 329.484 189.168 53.9075 
366.759 159.487 56.5496 366.652 159.749 56.5225 366.949 159.218 56.6578 
365.919 161.278 56.151 365.702 161.388 56.2442 366.065 162.201 55.924 
364.176 164.535 55.9337 363.526 165.811 55.6442 361.365 167.276 55.9016 
364.117 167.423 55.0329 359.931 168.751 55.4927 357.467 170.671 54.9094 
357.619 170.48 55.2937 354.853 172.733 54.9317 352.999 173.879 54.8013 
351.73 174.618 54.4249 351.385 174.788 54.6539 352.507 174.175 54.9489 
350.007 175.668 54.9366 345.599 178.117 54.8833 342.615 179.541 54.5257 
338.621 181.723 54.9982 336.613 182.914 55.0055 333.679 184.455 54.8148 
334.661 183.86 55.2609 331.666 185.122 55.6142 327.574 187.277 55.2034 
328.445 186.639 55.4872 324.939 189.801 55.3789 326.91 189.736 54.6102 
322.271 190.168 56.2744 321.995 191.173 55.911 331.383 192.646 54.7254 
369.878 152.217 57.6703 368.656 156.019 57.1577 368.579 155.611 57.387 
368.038 156.509 57.3316 369.006 156.301 56.998 367.889 157.446 57.0149 
367.423 157.646 57.2268 368.415 157.549 56.7881 366.75 158.933 57.0934 
366.465 159.768 56.7473 368.659 158.847 56.4913 365.995 160.48 56.7777 
366.624 160.532 56.3216 367.486 160.483 56.227 368.032 161.034 56.1425 
363.35 164.881 56.473 365.984 164.662 55.5288 366.532 165.446 55.5014 
360.908 167.674 56.1501 351.293 175.1 55.3816 347.531 177.299 55.2843 
344.318 178.887 55.1791 335.788 183.372 55.9761 335.179 183.594 55.5953 
330.891 185.377 55.9533 332.35 184.824 56.1033 329.336 186.012 56.2562 
325.223 188.437 56.0749 315.036 193.81 57.1592 372.556 145.804 58.381 
372.376 146.026 58.4331 371.73 147.866 58.1304 371.978 148.88 57.9075 
370.537 149.57 58.1934 369.532 154.463 57.4542 369.057 153.971 57.9371 
369.548 156.76 56.8559 366.897 158.155 57.6941 363.579 164.392 57.395 
360.576 168.157 56.8598 357.397 170.797 55.9994 356.888 171.536 56.4093 
356.449 171.759 56.1569 352.07 174.901 55.8189 349.452 176.413 55.6739 
349.721 177.082 56.4672 346.321 178.718 56.2283 342.633 180.127 55.8223 
336.376 183.253 56.3386 330.741 185.411 56.5318 331.723 185.164 57.1043 
325.734 187.756 56.6094 324.015 188.58 57.1587 321.252 189.877 57.4755 
316.567 192.264 57.7003 312.059 195.189 57.6793 308.653 195.893 58.2522 
310.361 195.712 57.8366 349.147 194.591 56.806 306.37 196.832 58.1171 
306.641 196.583 58.2196 310.488 196.7 57.351 310.619 197.286 57.2092 
311.056 197.647 57.1365 373.564 143.18 59.2928 373.252 145.432 58.5386 
371.706 146.745 58.677 372.389 147.1 58.2685 370.335 148.851 58.7341 
373.127 150.087 57.8416 367.952 155.664 58.2611 367.63 156.32 58.0667 
373.003 156.017 57.4811 366.448 159.042 58.3735 372.213 162.232 57.1055 
361.373 167.477 57.2743 360.934 168.083 57.3126 358.319 171.93 57.8258 
337.959 182.942 56.8639 344.801 181.74 57.667 335.909 183.868 57.1325 
330.989 185.639 57.819 330.318 185.73 57.4627 328.67 186.303 57.1859 
329.795 186.033 57.7804 325.637 187.708 57.2359 326.066 187.578 58.0071 
324.086 188.413 57.7814 321.351 189.706 57.9259 314.269 193.584 58.2319 
313.667 193.982 58.0826 315.299 192.938 58.0784 311.77 194.995 57.9762 
311.252 195.07 58.1719 307.385 196.136 58.4915 301.857 198.406 58.6877 
302.407 197.977 58.9022 304.048 198.041 58.3746 299.242 198.999 58.9042 
298.735 198.888 59.1878 301.807 198.937 58.437 304.657 198.577 58.0626 
306.59 198.586 57.7153 299.965 199.42 58.5809 300.318 199.742 58.4658 
302.343 199.459 58.2316 312.078 199.184 57.1767 304.602 200.619 57.9916 
376.051 139.099 60.4353 375.428 140.277 59.9611 374.863 140.591 59.9973 
375.697 140.423 59.956 374.473 140.856 60.0437 375.359 141.494 59.6845 
373.32 142.808 59.6139 375.815 142.798 59.5034 370.43 148.321 59.0207 
370.037 149.261 58.9856 369.775 149.723 59.2514 368.239 154.855 58.8089 
367.123 157.603 58.8188 366.84 158.498 59.0145 362.297 168.729 59.019 
335.263 185.3 58.4681 328.956 186.712 58.5673 328.232 186.74 58.1229 
335.027 185.81 58.8617 326.063 187.845 58.7402 323.913 188.522 58.2039 
323.529 188.779 58.4511 321.233 189.792 58.2919 321.486 189.856 58.7658 
366.033 190.562 59.122 315.802 192.581 58.2458 315.503 192.815 58.4738 
311.086 195.041 58.4697 310.61 195.218 58.681 312.204 194.733 58.8958 
304.091 197.189 59.483 304.986 197.058 58.7407 300.619 198.175 59.1796 
302.464 197.736 59.3476 297.857 198.977 59.5756 294.161 200.461 59.6887 
293.403 200.426 59.9422 296.05 200.159 59.3691 298.018 200.038 58.9371 
292.678 200.688 60.0667 292.862 201.088 59.799 295.705 200.715 59.2441 
300.459 200.384 58.4335 293.956 201.383 59.4049 294.197 201.687 59.3294 
294.957 202.175 59.2361 295.989 201.81 59.0801 297.955 201.988 58.8524 
296.55 202.409 59.0692 303.698 202.726 58.4593 303.112 203.888 58.8818 
307.154 204.444 58.7642 376.536 138.596 60.9584 375.479 139.575 60.3286 
376.716 140.18 60.3317 373.272 141.574 60.4542 372.362 143.323 60.0265 
370.535 147.352 59.8753 378.531 151.624 59.8338 368.84 153.485 60.0484 
331.479 186.114 58.716 328.926 187.094 59.0838 325.464 188.216 58.9833 
326.76 187.887 59.1495 323.543 189.039 58.9406 343.629 188.647 60.2998 
319.224 190.961 58.7074 317.138 192.001 58.8176 316.926 192.292 59.0526 
315.63 192.995 58.8934 313.61 194.195 59.0014 309.793 195.762 59.2617 
303.895 197.18 59.8407 303.292 197.5 59.839 304.773 197.15 59.732 
299.282 198.3 59.7142 296.352 199.378 59.9234 293.545 200.033 60.4453 
294.357 199.905 60.1719 289.162 202.148 60.5102 292.797 201.662 59.7081 
291.194 203.127 59.9887 294.091 202.86 59.5327 293.855 203.51 59.7556 
295.863 203.434 59.4515 292.22 204.77 60.2996 305.775 204.776 59.0919 
292.959 204.715 60.412 293.895 204.472 60.3416 294.612 204.45 60.4026 
294.533 204.305 60.1284 295.116 204.397 60.1941 297.6 204.557 60.0896 
298.311 204.69 60.0796 299.784 204.742 59.7286 304.747 205.253 59.7055 
307.283 206.203 59.7821 298.76 204.761 59.9673 303.046 205.02 59.9347 
305.182 205.453 60.0501 306.456 206.047 60.2303 307.597 206.979 60.2767 
378.211 136.588 62.3116 377.028 137.339 61.7601 372.976 141.472 60.9724 
372.408 142.473 60.81 371.077 145.602 60.9411 370.75 146.463 60.6538 
369.69 150.032 60.2947 367.664 159.367 60.8001 322.882 190.105 59.7126 
317.068 193.353 59.8652 313.916 194.619 59.5531 315.094 194.197 59.6635 
311.894 195.558 59.6688 313.93 195.262 59.9551 315.675 194.822 60.1443 
303.566 197.18 59.9474 303.728 197.132 59.9918 303.573 197.122 60.0062 
304.118 197.234 59.9844 304.704 197.585 60.113 299.095 198.352 59.9398 
300.297 198.203 60.1278 300.986 198.125 60.0572 303.509 197.217 59.9901 
301.532 198.494 60.3185 303.896 197.957 60.2249 296.127 199.419 60.2099 
295.456 199.735 60.5593 297.991 198.857 60.184 311.149 198.334 60.6326 
292.297 200.309 60.728 302.471 200.614 60.8498 288.599 201.704 61.17 
287.727 203.582 60.5816 296.527 203.129 61.0912 304.904 202.831 60.8852 
301.138 203.618 60.7342 303.896 203.568 60.7726 295.045 204.303 60.68 
301.899 204.139 60.5778 310.188 204.431 61.3644 285.243 205.825 61.5005 
285.473 205.539 61.3524 292.043 205.347 60.5547 292.592 205.21 60.8228 
293.721 204.594 60.7431 296.014 204.396 60.379 298.985 204.532 60.3594 
307.179 205.472 60.9098 286.314 206.226 61.2743 291.576 206.108 60.7208 
291.952 205.916 60.8853 298.866 204.726 60.1393 302.388 204.849 60.17 
304.385 205.087 60.2605 306.359 205.63 60.6146 307.357 206.93 60.768 
308.146 206.461 61.1517 289.402 206.905 61.0651 291.631 206.606 60.9372 
306.202 208.883 61.0376 305.596 209.078 61.0254 305.845 209.002 61.0036 
306.515 208.735 60.9799 306.9 208.522 61.043 307.211 208.2 60.8817 
307.394 207.966 61.0276 307.794 207.817 60.6063 289.728 207.248 61.3843 
290.835 207.268 61.0046 291.538 207.159 60.9675 304.07 209.398 61.0058 
304.125 209.393 61.0087 303.888 209.43 61.0047 304.556 209.31 61.0091 
304.519 209.325 61.0155 305.17 209.185 61.0084 305.093 209.21 61.0248 
290.625 207.375 61.1376 291 207.436 61.1187 291.318 207.519 61.0942 
291.293 207.506 61.0312 291.567 207.472 60.9863 291.616 207.587 61.0081 
303.782 209.446 61.0028 303.771 209.45 61.0032 303.712 209.458 61.0022 
303.874 209.431 61.0026 304.155 209.384 61.0038 304.616 209.306 61.0053 
307.309 209.03 61.0102 291.487 207.597 61.045 291.587 207.599 61.0298 
297.005 211.003 61.0174 297.005 211.003 61.0175 297.005 211.003 61.0174 
[...]
POINT_DATA 2605
COLOR_SCALARS scalars 3
0.196078 0.721569 0.145098 0.196078 0.721569 0.145098 0.196078 0.721569 0.145098 
0.196078 0.721569 0.145098 0.196078 0.721569 0.145098 
0.196078 0.721569 0.145098 0.196078 0.721569 0.145098 
0.196078 0.721569 0.145098 0.196078 0.721569 0.145098 
0.196078 0.721569 0.145098 0.196078 0.721569 0.145098 
0.196078 0.721569 0.145098 0.196078 0.721569 0.145098 
0.196078 0.721569 0.145098 0.196078 0.721569 0.145098 
0.196078 0.721569 0.145098 0.196078 0.721569 0.145098 
0.196078 0.721569 0.145098 0.196078 0.721569 0.145098 
0.196078 0.721569 0.145098 0.196078 0.721569 0.145098 
0.196078 0.721569 0.145098 0.196078 0.721569 0.145098 
0.196078 0.721569 0.145098 0.196078 0.721569 0.145098 
0.196078 0.721569 0.145098 0.196078 0.721569 0.145098 
0.196078 0.721569 0.145098 0.196078 0.721569 0.145098 
0.196078 0.721569 0.145098 0.196078 0.721569 0.145098 
0.196078 0.721569 0.145098 0.196078 0.721569 0.145098 
0.196078 0.721569 0.145098 0.196078 0.721569 0.145098 
0.196078 0.721569 0.145098 0.196078 0.721569 0.145098 
0.196078 0.721569 0.145098 0.196078 0.721569 0.145098 
0.196078 0.721569 0.145098 0.196078 0.721569 0.145098 
0.196078 0.721569 0.145098 0.196078 0.721569 0.145098 
0.196078 0.721569 0.145098 0.196078 0.721569 0.145098 
0.196078 0.721569 0.145098 0.196078 0.721569 0.145098 
0.196078 0.721569 0.145098 0.196078 0.721569 0.145098 
0.196078 0.721569 0.145098 0.196078 0.721569 0.145098 
0.196078 0.721569 0.145098 0.196078 0.721569 0.145098 
0.196078 0.721569 0.145098 0.196078 0.721569 0.145098 
0.196078 0.721569 0.145098 0.196078 0.721569 0.145098 
0.196078 0.721569 0.145098 0.196078 0.721569 0.145098 
0.196078 0.721569 0.145098 0.196078 0.721569 0.145098 
0.196078 0.721569 0.145098 0.196078 0.721569 0.145098 
0.196078 0.721569 0.145098 0.196078 0.721569 0.145098 
0.196078 0.721569 0.145098 0.196078 0.721569 0.145098 
0.196078 0.721569 0.145098 0.196078 0.721569 0.145098 
0.196078 0.721569 0.145098 0.196078 0.721569 0.145098 
0.196078 0.721569 0.145098 0.196078 0.721569 0.145098 
0.196078 0.721569 0.145098 0.196078 0.721569 0.145098 
0.196078 0.721569 0.145098 0.196078 0.721569 0.145098 
0.196078 0.721569 0.145098 0.196078 0.721569 0.145098 
0.196078 0.721569 0.145098 0.196078 0.721569 0.145098 
0.196078 0.721569 0.145098 0.196078 0.721569 0.145098 
0.196078 0.721569 0.145098 0.196078 0.721569 0.145098 
0.196078 0.721569 0.145098 0.196078 0.721569 0.145098 
0.196078 0.721569 0.145098 0.196078 0.721569 0.145098 
0.196078 0.721569 0.145098 0.196078 0.721569 0.145098 
0.196078 0.721569 0.145098 0.196078 0.721569 0.145098 
0.196078 0.721569 0.145098 0.196078 0.721569 0.145098 
0.196078 0.721569 0.145098 0.196078 0.721569 0.145098 
0.196078 0.721569 0.145098 0.196078 0.721569 0.145098 
0.196078 0.721569 0.145098 0.196078 0.721569 0.145098 
0.196078 0.721569 0.145098 0.196078 0.721569 0.145098 
0.196078 0.721569 0.145098 0.196078 0.721569 0.145098 
0.196078 0.721569 0.145098 0.196078 0.721569 0.145098 
0.196078 0.721569 0.145098 0.196078 0.721569 0.145098 
0.196078 0.721569 0.145098 0.196078 0.721569 0.145098 
0.196078 0.721569 0.145098 0.196078 0.721569 0.145098 
0.196078 0.721569 0.145098 0.196078 0.721569 0.145098 
0.196078 0.721569 0.145098 0.196078 0.721569 0.145098 
0.196078 0.721569 0.145098 0.196078 0.721569 0.145098 
0.196078 0.721569 0.145098 0.196078 0.721569 0.145098 
0.196078 0.721569 0.145098 0.196078 0.721569 0.145098 
0.196078 0.721569 0.145098 0.196078 0.721569 0.145098 
0.196078 0.721569 0.145098 0.196078 0.721569 0.145098 
0.196078 0.721569 0.145098 0.196078 0.721569 0.145098 
0.196078 0.721569 0.145098 0.196078 0.721569 0.145098 
0.196078 0.721569 0.145098 0.196078 0.721569 0.145098 
0.196078 0.721569 0.145098 0.196078 0.721569 0.145098 
0.196078 0.721569 0.145098 0.196078 0.721569 0.145098 
0.196078 0.721569 0.145098 0.196078 0.721569 0.145098 
0.196078 0.721569 0.145098 0.196078 0.721569 0.145098 
0.196078 0.721569 0.145098 0.196078 0.721569 0.145098 
0.196078 0.721569 0.145098 0.196078 0.721569 0.145098 
0.196078 0.721569 0.145098 0.196078 0.721569 0.145098 
0.196078 0.721569 0.145098 0.196078 0.721569 0.145098 
0.196078 0.721569 0.145098 0.196078 0.721569 0.145098 
0.196078 0.721569 0.145098 0.196078 0.721569 0.145098 
0.196078 0.721569 0.145098 0.196078 0.721569 0.145098 
0.196078 0.721569 0.145098 0.196078 0.721569 0.145098 
0.196078 0.721569 0.145098 0.196078 0.721569 0.145098 
0.196078 0.721569 0.145098 0.196078 0.721569 0.145098 
0.196078 0.721569 0.145098 0.196078 0.721569 0.145098 
0.196078 0.721569 0.145098 0.196078 0.721569 0.145098 
0.196078 0.721569 0.145098 0.196078 0.721569 0.145098 
0.196078 0.721569 0.145098 0.196078 0.721569 0.145098 
0.196078 0.721569 0.145098 0.196078 0.721569 0.145098 
0.196078 0.721569 0.145098 0.196078 0.721569 0.145098 
0.196078 0.721569 0.145098 0.196078 0.721569 0.145098 
0.196078 0.721569 0.145098 0.196078 0.721569 0.145098 
0.196078 0.721569 0.145098 0.196078 0.721569 0.145098 
0.196078 0.721569 0.145098 0.196078 0.721569 0.145098 
0.196078 0.721569 0.145098 0.196078 0.721569 0.145098 
0.196078 0.721569 0.145098 0.196078 0.721569 0.145098 
0.196078 0.721569 0.145098 0.196078 0.721569 0.145098 
0.196078 0.721569 0.145098 0.196078 0.721569 0.145098 
0.196078 0.721569 0.145098 0.196078 0.721569 0.145098 
0.196078 0.721569 0.145098 0.196078 0.721569 0.145098 
0.196078 0.721569 0.145098 0.196078 0.721569 0.145098 
0.196078 0.721569 0.145098 0.196078 0.721569 0.145098 
0.196078 0.721569 0.145098 0.196078 0.721569 0.145098 
0.196078 0.721569 0.145098 0.196078 0.721569 0.145098 
0.196078 0.721569 0.145098 0.196078 0.721569 0.145098 
0.196078 0.721569 0.145098 0.196078 0.721569 0.145098 
0.196078 0.721569 0.145098 0.196078 0.721569 0.145098 
0.196078 0.721569 0.145098 0.196078 0.721569 0.145098 
0.196078 0.721569 0.145098 0.196078 0.721569 0.145098 
0.196078 0.721569 0.145098 0.196078 0.721569 0.145098 
0.196078 0.721569 0.145098 0.196078 0.721569 0.145098 
0.196078 0.721569 0.145098 0.196078 0.721569 0.145098 
0.196078 0.721569 0.145098 0.196078 0.721569 0.145098 
0.196078 0.721569 0.145098 0.196078 0.721569 0.145098 
0.196078 0.721569 0.145098 0.196078 0.721569 0.145098 
0.196078 0.721569 0.145098 0.196078 0.721569 0.145098 
0.196078 0.721569 0.145098 0.196078 0.721569 0.145098 
0.196078 0.721569 0.145098 0.196078 0.721569 0.145098 
0.196078 0.721569 0.145098 0.196078 0.721569 0.145098 
0.196078 0.721569 0.145098 0.196078 0.721569 0.145098 
0.196078 0.721569 0.145098 0.196078 0.721569 0.145098 
0.196078 0.721569 0.145098 0.196078 0.721569 0.145098 
0.196078 0.721569 0.145098 0.196078 0.721569 0.145098 
0.196078 0.721569 0.145098 0.196078 0.721569 0.145098 
0.196078 0.721569 0.145098 0.196078 0.721569 0.145098 
0.196078 0.721569 0.145098 0.196078 0.721569 0.145098 
0.196078 0.721569 0.145098 0.196078 0.721569 0.145098 
0.196078 0.721569 0.145098 0.196078 0.721569 0.145098 
0.196078 0.721569 0.145098 0.196078 0.721569 0.145098 
0.196078 0.721569 0.145098 0.196078 0.721569 0.145098 
0.196078 0.721569 0.145098 0.196078 0.721569 0.145098 
0.196078 0.721569 0.145098 0.196078 0.721569 0.145098 
0.196078 0.721569 0.145098 0.196078 0.721569 0.145098 
0.196078 0.721569 0.145098 0.196078 0.721569 0.145098 
0.196078 0.721569 0.145098 0.196078 0.721569 0.145098 
0.196078 0.721569 0.145098 0.196078 0.721569 0.145098 
0.196078 0.721569 0.145098 0.196078 0.721569 0.145098 
0.196078 0.721569 0.145098 0.196078 0.721569 0.145098 
0.196078 0.721569 0.145098 0.196078 0.721569 0.145098 
0.196078 0.721569 0.145098 0.196078 0.721569 0.145098 
0.196078 0.721569 0.145098 0.196078 0.721569 0.145098 
0.196078 0.721569 0.145098 0.196078 0.721569 0.145098 
0.196078 0.721569 0.145098 0.196078 0.721569 0.145098 
0.196078 0.721569 0.145098 0.196078 0.721569 0.145098 
0.196078 0.721569 0.145098 0.196078 0.721569 0.145098 
0.196078 0.721569 0.145098 0.196078 0.721569 0.145098 
0.196078 0.721569 0.145098 0.196078 0.721569 0.145098 
0.196078 0.721569 0.145098 0.196078 0.721569 0.145098 
0.196078 0.721569 0.145098 0.196078 0.721569 0.145098 
0.196078 0.721569 0.145098 0.196078 0.721569 0.145098 
0.196078 0.721569 0.145098 0.196078 0.721569 0.145098 
0.196078 0.721569 0.145098 0.196078 0.721569 0.145098 
0.196078 0.721569 0.145098 0.196078 0.721569 0.145098 
0.196078 0.721569 0.145098 0.196078 0.721569 0.145098 
0.196078 0.721569 0.145098 0.196078 0.721569 0.145098 
0.196078 0.721569 0.145098 0.196078 0.721569 0.145098 
0.196078 0.721569 0.145098 0.196078 0.721569 0.145098 
0.196078 0.721569 0.145098 0.196078 0.721569 0.145098 
0.196078 0.721569 0.145098 0.196078 0.721569 0.145098 
0.196078 0.721569 0.145098 0.196078 0.721569 0.145098 
0.196078 0.721569 0.145098 0.196078 0.721569 0.145098 
0.196078 0.721569 0.145098 0.196078 0.721569 0.145098 
0.196078 0.721569 0.145098 0.196078 0.721569 0.145098 
0.196078 0.721569 0.145098 0.196078 0.721569 0.145098 
0.196078 0.721569 0.145098 0.196078 0.721569 0.145098 
0.196078 0.721569 0.145098 0.196078 0.721569 0.145098 
0.196078 0.721569 0.145098 0.196078 0.721569 0.145098 
0.196078 0.721569 0.145098 0.196078 0.721569 0.145098 
0.196078 0.721569 0.145098 0.196078 0.721569 0.145098 
0.196078 0.721569 0.145098 0.196078 0.721569 0.145098 
0.196078 0.721569 0.145098 0.196078 0.721569 0.145098 
0.196078 0.721569 0.145098 0.196078 0.721569 0.145098 
0.196078 0.721569 0.145098 0.196078 0.721569 0.145098 
0.196078 0.721569 0.145098 0.196078 0.721569 0.145098 
0.196078 0.721569 0.145098 0.196078 0.721569 0.145098 
0.196078 0.721569 0.145098 0.196078 0.721569 0.145098 
0.196078 0.721569 0.145098 0.196078 0.721569 0.145098 
0.196078 0.721569 0.145098 0.196078 0.721569 0.145098 
0.196078 0.721569 0.145098 0.196078 0.721569 0.145098 
0.196078 0.721569 0.145098 0.196078 0.721569 0.145098 
0.196078 0.721569 0.145098 0.196078 0.721569 0.145098 
0.196078 0.721569 0.145098 0.196078 0.721569 0.145098 
0.196078 0.721569 0.145098 0.196078 0.721569 0.145098 
0.196078 0.721569 0.145098 0.196078 0.721569 0.145098 
0.196078 0.721569 0.145098 0.196078 0.721569 0.145098 
0.196078 0.721569 0.145098 0.196078 0.721569 0.145098 
0.196078 0.721569 0.145098 0.196078 0.721569 0.145098 
0.196078 0.721569 0.145098 0.196078 0.721569 0.145098 
0.196078 0.721569 0.145098 0.196078 0.721569 0.145098 
0.196078 0.721569 0.145098 0.196078 0.721569 0.145098 
0.196078 0.721569 0.145098 0.196078 0.721569 0.145098 
0.196078 0.721569 0.145098 0.196078 0.721569 0.145098 
0.196078 0.721569 0.145098 0.196078 0.721569 0.145098 
0.196078 0.721569 0.145098 0.196078 0.721569 0.145098 
0.196078 0.721569 0.145098 0.196078 0.721569 0.145098 
0.196078 0.721569 0.145098 0.196078 0.721569 0.145098 
0.196078 0.721569 0.145098 0.196078 0.721569 0.145098 
0.196078 0.721569 0.145098 0.196078 0.721569 0.145098 
0.196078 0.721569 0.145098 0.196078 0.721569 0.145098 
0.196078 0.721569 0.145098 0.196078 0.721569 0.145098 
0.196078 0.721569 0.145098 0.196078 0.721569 0.145098 
0.196078 0.721569 0.145098 0.196078 0.721569 0.145098 
0.196078 0.721569 0.145098 0.196078 0.721569 0.145098 
0.196078 0.721569 0.145098 0.196078 0.721569 0.145098 
0.196078 0.721569 0.145098 0.196078 0.721569 0.145098 
0.196078 0.721569 0.145098 0.196078 0.721569 0.145098 
0.196078 0.721569 0.145098 0.196078 0.721569 0.145098 
0.196078 0.721569 0.145098 0.196078 0.721569 0.145098 
0.196078 0.721569 0.145098 0.196078 0.721569 0.145098 
0.196078 0.721569 0.145098 0.196078 0.721569 0.145098 
0.196078 0.721569 0.145098 0.196078 0.721569 0.145098 
0.196078 0.721569 0.145098 0.196078 0.721569 0.145098 
0.196078 0.721569 0.145098 0.196078 0.721569 0.145098 
0.196078 0.721569 0.145098 0.196078 0.721569 0.145098 
0.196078 0.721569 0.145098 0.196078 0.721569 0.145098 
0.196078 0.721569 0.145098 0.196078 0.721569 0.145098 
0.196078 0.721569 0.145098 0.196078 0.721569 0.145098 
0.196078 0.721569 0.145098 0.196078 0.721569 0.145098 
0.196078 0.721569 0.145098 0.196078 0.721569 0.145098 
0.196078 0.721569 0.145098 0.196078 0.721569 0.145098 
0.196078 0.721569 0.145098 0.196078 0.721569 0.145098 
0.196078 0.721569 0.145098 0.196078 0.721569 0.145098 
0.196078 0.721569 0.145098 0.196078 0.721569 0.145098 
0.196078 0.721569 0.145098 0.196078 0.721569 0.145098 
0.196078 0.721569 0.145098 0.196078 0.721569 0.145098 
0.196078 0.721569 0.145098 0.196078 0.721569 0.145098 
0.196078 0.721569 0.145098 0.196078 0.721569 0.145098 
0.196078 0.721569 0.145098 0.196078 0.721569 0.145098 
0.196078 0.721569 0.145098 0.196078 0.721569 0.145098 
0.196078 0.721569 0.145098 0.196078 0.721569 0.145098 
0.196078 0.721569 0.145098 0.196078 0.721569 0.145098 
0.196078 0.721569 0.145098 0.196078 0.721569 0.145098 
0.196078 0.721569 0.145098 0.196078 0.721569 0.145098 
0.196078 0.721569 0.145098 0.196078 0.721569 0.145098 
0.196078 0.721569 0.145098 0.196078 0.721569 0.145098 
0.196078 0.721569 0.145098 0.196078 0.721569 0.145098 
0.196078 0.721569 0.145098 0.196078 0.721569 0.145098 
0.196078 0.721569 0.145098 0.196078 0.721569 0.145098 
0.196078 0.721569 0.145098 0.196078 0.721569 0.145098 
0.196078 0.721569 0.145098 0.196078 0.721569 0.145098 
0.196078 0.721569 0.145098 0.196078 0.721569 0.145098 
0.196078 0.721569 0.145098 0.196078 0.721569 0.145098 
0.196078 0.721569 0.145098 0.196078 0.721569 0.145098 
0.196078 0.721569 0.145098 0.196078 0.721569 0.145098 
0.196078 0.721569 0.145098 0.196078 0.721569 0.145098 
0.196078 0.721569 0.145098 0.196078 0.721569 0.145098 
0.196078 0.721569 0.145098 0.196078 0.721569 0.145098 
0.196078 0.721569 0.145098 0.196078 0.721569 0.145098 
0.196078 0.721569 0.145098 0.196078 0.721569 0.145098 
0.196078 0.721569 0.145098 0.196078 0.721569 0.145098 
0.196078 0.721569 0.145098 0.196078 0.721569 0.145098 
0.196078 0.721569 0.145098 0.196078 0.721569 0.145098 
0.196078 0.721569 0.145098 0.196078 0.721569 0.145098 
0.196078 0.721569 0.145098 0.196078 0.721569 0.145098 
0.196078 0.721569 0.145098 0.196078 0.721569 0.145098 
0.196078 0.721569 0.145098 0.196078 0.721569 0.145098 
0.196078 0.721569 0.145098 0.196078 0.721569 0.145098 
0.196078 0.721569 0.145098 0.196078 0.721569 0.145098 
0.196078 0.721569 0.145098 0.196078 0.721569 0.145098 
0.196078 0.721569 0.145098 0.196078 0.721569 0.145098 
0.196078 0.721569 0.145098 0.196078 0.721569 0.145098 
0.196078 0.721569 0.145098 0.196078 0.721569 0.145098 
0.196078 0.721569 0.145098 0.196078 0.721569 0.145098 
0.196078 0.721569 0.145098 0.196078 0.721569 0.145098 
0.196078 0.721569 0.145098 0.196078 0.721569 0.145098 
0.196078 0.721569 0.145098 0.196078 0.721569 0.145098 
0.196078 0.721569 0.145098 0.196078 0.721569 0.145098 
0.196078 0.721569 0.145098 0.196078 0.721569 0.145098 
0.196078 0.721569 0.145098 0.196078 0.721569 0.145098 
0.196078 0.721569 0.145098 0.196078 0.721569 0.145098 
0.196078 0.721569 0.145098 0.196078 0.721569 0.145098 
0.196078 0.721569 0.145098 0.196078 0.721569 0.145098 
0.196078 0.721569 0.145098 0.196078 0.721569 0.145098 
0.196078 0.721569 0.145098 0.196078 0.721569 0.145098 
0.196078 0.721569 0.145098 0.196078 0.721569 0.145098 
0.196078 0.721569 0.145098 0.196078 0.721569 0.145098 
0.196078 0.721569 0.145098 0.196078 0.721569 0.145098 
0.196078 0.721569 0.145098 0.196078 0.721569 0.145098 
0.196078 0.721569 0.145098 0.196078 0.721569 0.145098 
0.196078 0.721569 0.145098 0.196078 0.721569 0.145098 
0.196078 0.721569 0.145098 0.196078 0.721569 0.145098 
0.196078 0.721569 0.145098 0.196078 0.721569 0.145098 
0.196078 0.721569 0.145098 0.196078 0.721569 0.145098 
0.196078 0.721569 0.145098 0.196078 0.721569 0.145098 
0.196078 0.721569 0.145098 0.196078 0.721569 0.145098 
0.196078 0.721569 0.145098 0.196078 0.721569 0.145098 
0.196078 0.721569 0.145098 0.196078 0.721569 0.145098 
0.196078 0.721569 0.145098 0.196078 0.721569 0.145098 
0.196078 0.721569 0.145098 0.196078 0.721569 0.145098 
0.196078 0.721569 0.145098 0.196078 0.721569 0.145098 
0.196078 0.721569 0.145098 0.196078 0.721569 0.145098 
0.196078 0.721569 0.145098 0.196078 0.721569 0.145098 
0.196078 0.721569 0.145098 0.196078 0.721569 0.145098 
0.196078 0.721569 0.145098 0.196078 0.721569 0.145098 
0.196078 0.721569 0.145098 0.196078 0.721569 0.145098 
0.196078 0.721569 0.145098 0.196078 0.721569 0.145098 
0.196078 0.721569 0.145098 0.196078 0.721569 0.145098 
0.196078 0.721569 0.145098 0.196078 0.721569 0.145098 
0.196078 0.721569 0.145098 0.196078 0.721569 0.145098 
0.196078 0.721569 0.145098 0.196078 0.721569 0.145098 
0.196078 0.721569 0.145098 0.196078 0.721569 0.145098 
0.196078 0.721569 0.145098 0.196078 0.721569 0.145098 
0.196078 0.721569 0.145098 0.196078 0.721569 0.145098 
0.196078 0.721569 0.145098 0.196078 0.721569 0.145098 
0.196078 0.721569 0.145098 0.196078 0.721569 0.145098 
0.196078 0.721569 0.145098 0.196078 0.721569 0.145098 
0.196078 0.721569 0.145098 0.196078 0.721569 0.145098 
0.196078 0.721569 0.145098 0.196078 0.721569 0.145098 
0.196078 0.721569 0.145098 0.196078 0.721569 0.145098 
0.196078 0.721569 0.145098 0.196078 0.721569 0.145098 
0.196078 0.721569 0.145098 0.196078 0.721569 0.145098 
0.196078 0.721569 0.145098 0.196078 0.721569 0.145098 
0.196078 0.721569 0.145098 0.196078 0.721569 0.145098 
0.196078 0.721569 0.145098 0.196078 0.721569 0.145098 
0.196078 0.721569 0.145098 0.196078 0.721569 0.145098 
0.196078 0.721569 0.145098 0.196078 0.721569 0.145098 
0.196078 0.721569 0.145098 0.196078 0.721569 0.145098 
0.196078 0.721569 0.145098 0.196078 0.721569 0.145098 
0.196078 0.721569 0.145098 0.196078 0.721569 0.145098 
0.196078 0.721569 0.145098 0.196078 0.721569 0.145098 
0.196078 0.721569 0.145098 0.196078 0.721569 0.145098 
0.196078 0.721569 0.145098 0.196078 0.721569 0.145098 
0.196078 0.721569 0.145098 0.196078 0.721569 0.145098 
0.196078 0.721569 0.145098 0.196078 0.721569 0.145098 
0.196078 0.721569 0.145098 0.196078 0.721569 0.145098 
0.196078 0.721569 0.145098 0.196078 0.721569 0.145098 
0.196078 0.721569 0.145098 0.196078 0.721569 0.145098 
0.196078 0.721569 0.145098 0.196078 0.721569 0.145098 
0.196078 0.721569 0.145098 0.196078 0.721569 0.145098 
0.196078 0.721569 0.145098 0.196078 0.721569 0.145098 
0.196078 0.721569 0.145098 0.196078 0.721569 0.145098 
0.196078 0.721569 0.145098 0.196078 0.721569 0.145098 
0.196078 0.721569 0.145098 0.196078 0.721569 0.145098 
0.196078 0.721569 0.145098 0.196078 0.721569 0.145098 
0.196078 0.721569 0.145098 0.196078 0.721569 0.145098 
0.196078 0.721569 0.145098 0.196078 0.721569 0.145098 
0.196078 0.721569 0.145098 0.196078 0.721569 0.145098 
0.196078 0.721569 0.145098 0.196078 0.721569 0.145098 
0.196078 0.721569 0.145098 0.196078 0.721569 0.145098 
0.196078 0.721569 0.145098 0.196078 0.721569 0.145098 
0.196078 0.721569 0.145098 0.196078 0.721569 0.145098 
0.196078 0.721569 0.145098 0.196078 0.721569 0.145098 
0.196078 0.721569 0.145098 0.196078 0.721569 0.145098 
0.196078 0.721569 0.145098 0.196078 0.721569 0.145098 
0.196078 0.721569 0.145098 0.196078 0.721569 0.145098 
0.196078 0.721569 0.145098 0.196078 0.721569 0.145098 
0.196078 0.721569 0.145098 0.196078 0.721569 0.145098 
0.196078 0.721569 0.145098 0.196078 0.721569 0.145098 
0.196078 0.721569 0.145098 0.196078 0.721569 0.145098 
0.196078 0.721569 0.145098 0.196078 0.721569 0.145098 
0.196078 0.721569 0.145098 0.196078 0.721569 0.145098 
0.196078 0.721569 0.145098 0.196078 0.721569 0.145098 
0.196078 0.721569 0.145098 0.196078 0.721569 0.145098 
0.196078 0.721569 0.145098 0.196078 0.721569 0.145098 
0.196078 0.721569 0.145098 0.196078 0.721569 0.145098 
0.196078 0.721569 0.145098 0.196078 0.721569 0.145098 
0.196078 0.721569 0.145098 0.196078 0.721569 0.145098 
0.196078 0.721569 0.145098 0.196078 0.721569 0.145098 
0.196078 0.721569 0.145098 0.196078 0.721569 0.145098 
0.196078 0.721569 0.145098 0.196078 0.721569 0.145098 
0.196078 0.721569 0.145098 0.196078 0.721569 0.145098 
0.196078 0.721569 0.145098 0.196078 0.721569 0.145098 
0.196078 0.721569 0.145098 0.196078 0.721569 0.145098 
0.196078 0.721569 0.145098 0.196078 0.721569 0.145098 
0.196078 0.721569 0.145098 0.196078 0.721569 0.145098 
0.196078 0.721569 0.145098 0.196078 0.721569 0.145098 