# vtk DataFile Version 4.2
vtk output
ASCII
DATASET POLYDATA
POINTS 3281 float
401.461 151.215 47.6637 401.363 150.719 47.8023 401.228 151.206 47.8127 
401.732 151.479 47.611 401.108 154.775 47.7123 401.431 156.462 47.4998 
401.766 159.082 47.4633 401.058 160.532 47.7865 401.577 142.301 48.6589 
401.49 141.804 48.8246 401.74 141.969 48.7162 401.255 143.022 48.7626 
401.958 145.109 48.2807 401.189 148.015 48.3964 401.524 150.032 47.9165 
400.942 151.224 48.124 402.197 158.77 47.4974 402.35 164.098 48.0854 
400.826 165.896 48.3425 401.684 165.64 48.1184 402.104 166.239 48.2402 
401.685 167.488 48.2474 400.575 168.16 48.5386 400.554 170.509 48.5507 
400.592 171.469 48.578 400.125 174.957 49.0281 399.89 175.385 49.2443 
400.198 175.52 49.1312 401.757 137.858 49.5342 401.696 141.158 48.9716 
401.202 141.334 49.1812 402.766 140.806 49.1454 401.024 142.246 49.145 
402.288 145.51 48.2618 402.752 145.584 48.4169 400.888 147.191 48.8101 
400.64 152.339 48.5 403.108 158.024 47.8812 400.554 159.292 48.4253 
402.837 162.536 48.0947 400.6 165.07 48.5295 400.524 165.71 48.6003 
400.411 165.242 48.8087 402.571 168.82 48.8127 400.008 171.029 49.1996 
401.814 170.553 48.5716 399.803 172.984 49.2718 399.654 174.753 49.4019 
400.863 175.541 49.2316 399.73 176.229 49.5388 400.472 175.994 49.2787 
356.415 237.153 50.9426 356.403 237.15 50.9691 356.417 237.2 51.0153 
356.457 237.199 51.0339 401.657 133.433 50.3836 401.416 133.457 50.543 
401.305 135.194 50.3535 402.074 134.131 50.1963 401.204 137.341 50.0118 
402.146 137.776 49.5614 402.694 138.291 49.5643 403.192 142.247 49.0698 
403.686 142.8 49.2741 400.67 145.365 49.3738 400.535 149.458 49.2175 
403.59 152.485 48.3172 404.021 156.232 48.566 400.34 161.962 49.4537 
400.279 165.032 49.2911 400.003 169.241 49.6185 399.897 170.278 49.675 
403.219 169.512 49.5559 399.56 173.253 49.6743 399.457 174.164 49.7465 
401.331 176.476 49.8221 400.328 179.443 50.4535 399.78 180.597 50.6838 
399.241 181.039 50.9367 399.52 181.213 50.9014 356.4 237.199 51.0819 
356.479 237.28 51.1544 356.444 237.363 51.32 356.591 237.309 51.3464 
400.959 135.36 50.6956 400.408 149.15 49.7676 400.394 148.638 50.1245 
400.389 150.156 50.1844 399.987 168.454 50.2058 399.299 174.659 50.1156 
399.288 176.327 50.2244 399.142 176.802 50.7381 356.401 237.241 51.3129 
356.59 237.209 51.6106 356.714 237.296 51.611 356.873 237.43 51.843 
401.492 124.154 52.4671 401.661 125.128 52.2337 401.341 125.383 52.3782 
402.262 126.94 51.9317 401.77 129.393 51.5234 400.628 136.492 51.0909 
400.55 137.501 51.0987 400.488 139.613 50.8273 400.382 140.611 51.1964 
400.43 146.908 50.3604 400.456 149.45 50.7848 400.443 151.357 50.7251 
400.56 162.054 51.44 399.528 171.712 50.9107 399.348 173.107 50.5267 
401.216 179.398 51.009 398.276 183.497 52.0971 399.501 183.721 51.837 
398.302 184.906 52.1284 398.261 185.913 52.2425 398.43 186.728 52.3564 
397.615 187.808 52.5005 397.411 187.328 52.6025 397.738 188.771 52.5909 
398.014 189.301 52.7589 397.034 190.146 52.7078 396.773 190.386 52.7738 
396.085 192.518 52.9278 395.454 194.407 53.3258 395.628 194.674 53.3371 
395.439 194.997 53.4155 356.491 237.201 51.8807 356.665 237.199 52.166 
357.015 237.434 52.2679 357.264 237.785 52.5408 356.615 238.068 52.2332 
356.853 238.218 52.37 401.633 121.668 53.2244 401.462 122.121 53.1278 
402.738 124.658 52.4789 400.955 126.545 52.5871 402.382 125.544 52.1483 
400.749 130.734 52.1009 400.428 137.171 51.6839 400.42 136.657 52.0608 
400.821 149.153 52.0436 399.86 170.442 51.9159 399.022 176.696 51.8194 
402.039 179 51.827 397.644 185.18 52.5797 399.09 186.281 52.4787 
397.171 187.218 52.9514 396.66 189.244 53.0883 396.56 190.16 52.9449 
396.504 191.094 52.8829 396.659 192.435 53.0007 397.009 192.11 53.055 
396.475 193.453 53.2654 395.812 194.908 53.426 394.388 197.825 54.1183 
394.411 197.523 54.1361 394.386 198.069 54.1602 356.404 237.328 52.2515 
356.364 237.961 52.8209 357.227 237.628 52.5924 356.414 238.351 53.2005 
357.106 238.382 52.6465 357.351 238.565 53.0625 357.476 238.289 53.0905 
356.866 238.642 52.8597 356.869 239.005 53.3923 401.875 120.339 53.8805 
401.525 120.212 53.9981 402.559 119.747 54.3111 401.322 120.366 54.0095 
401.834 121.148 53.4738 402.497 122.497 52.984 400.967 122.984 53.295 
400.587 123.985 53.7187 400.498 125.922 53.6353 400.489 133.109 53.1205 
400.501 137.43 52.6928 400.625 141.711 52.4803 401.377 149.041 53.1355 
407.788 150.852 52.7614 401.467 158.014 53.089 407.247 162.588 53.287 
399.37 175.434 53.2245 402.705 178.824 52.8707 397.909 183.015 53.2877 
397.665 184.312 52.8826 397.106 186.603 53.4499 400.027 185.782 53.0164 
396.046 190.596 53.5745 395.555 192.193 53.5576 395.024 194.123 53.9293 
395.958 195.595 53.7591 394.681 196.884 54.0738 394.426 196.457 54.2844 
395.002 197.483 54.1451 394.778 198.09 54.213 394.15 198.904 54.4578 
393.477 200.598 55.0542 393.493 200.258 55.0404 393.426 200.869 55.1693 
393.491 201.153 55.2979 356.538 237.162 52.7764 356.497 237.175 52.9176 
356.446 237.262 52.7679 356.593 237.193 53.114 357.912 238.574 54.0374 
356.54 239.333 54.4249 357.073 238.951 53.26 402.578 118.978 54.8991 
401.4 120.049 54.1991 401.738 119.331 54.7652 403.755 119.882 54.6534 
400.638 122.32 54.3348 400.457 124.138 54.2995 400.429 125.111 54.2904 
400.517 130.361 53.9688 400.903 135.107 54.2441 401.036 139.366 53.7881 
399.773 174.306 53.8755 397.58 184.178 53.8153 397.161 186.03 54.0795 
396.031 190.103 54.1047 398.598 191.65 54.2424 393.937 197.337 54.7685 
393.761 199.642 54.8747 393.168 200.777 55.5872 394.169 200.063 54.9506 
393.094 201.593 55.8365 392.185 205.384 56.6201 392.176 205.27 56.6336 
392.215 205.488 56.7026 356.486 237.254 53.0904 356.552 237.315 53.3963 
356.696 237.299 53.5799 356.983 237.438 54.1551 356.365 238.341 54.0661 
358.273 238.737 54.6294 358.311 238.985 54.7569 401.977 118.673 55.5791 
401.738 119.029 55.1568 401.162 120.037 54.8564 404.552 119.762 55.1717 
400.698 121.586 54.9363 400.483 123.372 54.9297 400.723 131.735 54.4573 
401.261 137.593 54.458 397.993 183.195 54.8671 396.01 190.026 54.8666 
393.878 196.814 55.2728 395.008 199.126 54.7726 394.138 200.824 55.2878 
394.117 201.329 55.556 393.103 202.919 56.2531 392.241 205.093 56.6503 
392.301 204.753 56.722 392.407 205.013 56.7134 391.984 205.616 57.0307 
392.373 205.535 56.8626 392.175 205.738 56.9196 357.211 237.488 54.8964 
357.204 237.524 55.2821 356.795 237.747 54.8637 358.352 238.479 55.0156 
356.39 239.699 55.6817 358.863 239.183 55.7517 358.919 239.531 55.8911 
359.101 239.416 56.2489 356.453 240.273 56.1472 358.78 239.957 55.9159 
403.209 117.627 56.7483 403.762 117.624 56.6965 401.622 119.026 55.4312 
401.372 119.425 55.4793 400.609 122.654 55.5748 400.649 126.784 55.4415 
401.306 131.005 55.813 393.765 196.775 56.1694 395.463 199.699 55.5418 
392.667 201.486 56.7036 392.614 202.325 56.5803 392.62 204.164 56.7112 
392.177 204.378 56.9803 392.708 205.187 56.9833 392.049 206.094 57.185 
391.313 207.88 57.9867 391.342 207.515 57.947 391.182 207.821 58.1122 
391.976 206.687 57.5343 391.502 207.705 57.939 391.225 208.125 58.0958 
391.372 208.166 58.0896 391.231 208.383 58.2078 357.288 237.565 55.5696 
357.433 237.628 55.7503 356.413 238.835 55.56 358.768 238.634 56.2786 
358.039 241.265 56.2277 357.818 242.1 57.1678 356.985 242.278 57.5704 
402.222 118.192 56.5934 402.097 118.239 57.0185 402.693 117.885 56.5394 
401.802 118.728 56.7794 401.007 124.374 56.6604 407.978 123.303 56.9201 
397.739 185.982 56.787 392.937 199.96 57.0249 392.667 200.888 57.4124 
396.263 199.786 56.6176 391.565 206.924 57.7699 391.826 207.454 57.8937 
391.649 208.217 58.2273 391.161 208.645 58.4004 391.214 208.982 58.6417 
390.014 211.411 59.5446 390.018 211.274 59.5417 389.947 211.448 59.6602 
390.106 211.325 59.5529 390.023 211.548 59.6522 356.37 240.149 57.1271 
359.552 239.69 57.63 356.351 240.822 57.5647 359.382 240.419 57.1509 
359.111 241.106 57.1852 359.054 241.759 57.7403 404.881 116.413 58.7082 
411.618 144.748 57.9787 392.699 200.685 58.105 391.169 206.468 58.4642 
392.839 206.933 58.192 390.166 210.679 59.5779 389.963 211.061 59.6882 
390.337 210.967 59.5806 389.827 211.445 59.8726 390.187 211.605 59.7823 
389.903 211.883 59.9831 357.01 238.625 57.3041 356.541 239.606 57.4447 
360.032 240.311 58.7006 359.862 241.835 58.8643 356.554 243.313 59.7108 
357.46 243.064 58.2757 357.66 243.535 58.9723 403.581 116.807 58.925 
402.688 117.762 58.596 411.9 135.189 58.9851 393.067 200.061 59.3593 
394.063 205.921 58.8704 390.521 208.346 59.5143 390.305 208.864 59.8122 
390.475 209.888 59.422 390.787 210.586 59.5671 390.21 212.288 60.264 
389.327 213.256 61.2043 389.817 213.232 60.8325 390.031 212.892 60.588 
359.037 238.87 58.6541 356.309 241.394 59.1018 360.656 241.099 59.7634 
360.746 241.55 59.9568 358.119 243.451 58.8475 358.556 243.44 59.0297 
357.739 244.282 60.004 356.839 244.509 60.6636 403.735 116.661 59.5559 
402.601 118.494 59.136 402.945 119.168 59.8271 411.216 158.391 59.6327 
391.317 211.356 60.4148 389.098 213.303 61.6255 389.417 213.76 61.3972 
389.405 214.148 61.6941 358.007 238.722 58.6868 360.047 239.679 59.8668 
360.555 240.124 60.2737 360.908 240.561 60.4939 356.242 242.297 60.1644 
361.293 241.63 60.9242 356.24 243.573 60.8979 359.855 243.464 60.2136 
356.281 244.128 61.3064 356.46 244.799 61.6371 404.77 115.084 61.2371 
404.589 115.289 61.1547 403.746 116.856 60.2395 409.552 116.478 61.2242 
407.257 150.783 61.3793 406.528 156.178 61.0554 389.474 210.681 61.0545 
389.02 214.754 62.4335 389.937 214.382 62.0089 389.3 214.916 62.406 
359.134 239.264 60.3225 357.419 240.17 61.1729 356.646 241.376 61.2306 
361.301 240.871 61.1079 359.789 244.265 61.1815 356.292 244.909 62.2988 
358.194 245.275 61.3303 356.683 245.379 61.9744 357.579 245.695 61.9122 
356.818 245.774 62.4124 405.681 114.323 61.5865 406.71 113.678 62.0975 
408.122 114.335 61.7322 404.626 118.008 62.2609 413.89 143.97 61.9142 
405.966 182.83 61.9285 401.004 195.826 61.5354 389.305 210.879 61.8267 
388.969 212.355 62.2561 390.059 214.872 62.663 388.317 216.76 63.768 
[...]
POINT_DATA 3281
COLOR_SCALARS scalars 3
0.196078 0.721569 0.145098 0.196078 0.721569 0.145098 0.196078 0.721569 0.145098 
0.196078 0.721569 0.145098 0.196078 0.721569 0.145098 
0.196078 0.721569 0.145098 0.196078 0.721569 0.145098 
0.196078 0.721569 0.145098 0.196078 0.721569 0.145098 
0.196078 0.721569 0.145098 0.196078 0.721569 0.145098 
0.196078 0.721569 0.145098 0.196078 0.721569 0.145098 
0.196078 0.721569 0.145098 0.196078 0.721569 0.145098 
0.196078 0.721569 0.145098 0.196078 0.721569 0.145098 
0.196078 0.721569 0.145098 0.196078 0.721569 0.145098 
0.196078 0.721569 0.145098 0.196078 0.721569 0.145098 
0.196078 0.721569 0.145098 0.196078 0.721569 0.145098 
0.196078 0.721569 0.145098 0.196078 0.721569 0.145098 
0.196078 0.721569 0.145098 0.196078 0.721569 0.145098 
0.196078 0.721569 0.145098 0.196078 0.721569 0.145098 
0.196078 0.721569 0.145098 0.196078 0.721569 0.145098 
0.196078 0.721569 0.145098 0.196078 0.721569 0.145098 
0.196078 0.721569 0.145098 0.196078 0.721569 0.145098 
0.196078 0.721569 0.145098 0.196078 0.721569 0.145098 
0.196078 0.721569 0.145098 0.196078 0.721569 0.145098 
0.196078 0.721569 0.145098 0.196078 0.721569 0.145098 
0.196078 0.721569 0.145098 0.196078 0.721569 0.145098 
0.196078 0.721569 0.145098 0.196078 0.721569 0.145098 
0.196078 0.721569 0.145098 0.196078 0.721569 0.145098 
0.196078 0.721569 0.145098 0.196078 0.721569 0.145098 
0.196078 0.721569 0.145098 0.196078 0.721569 0.145098 
0.196078 0.721569 0.145098 0.196078 0.721569 0.145098 
0.196078 0.721569 0.145098 0.196078 0.721569 0.145098 
0.196078 0.721569 0.145098 0.196078 0.721569 0.145098 
0.196078 0.721569 0.145098 0.196078 0.721569 0.145098 
0.196078 0.721569 0.145098 0.196078 0.721569 0.145098 
0.196078 0.721569 0.145098 0.196078 0.721569 0.145098 
0.196078 0.721569 0.145098 0.196078 0.721569 0.145098 
0.196078 0.721569 0.145098 0.196078 0.721569 0.145098 
0.196078 0.721569 0.145098 0.196078 0.721569 0.145098 
0.196078 0.721569 0.145098 0.196078 0.721569 0.145098 
0.196078 0.721569 0.145098 0.196078 0.721569 0.145098 
0.196078 0.721569 0.145098 0.196078 0.721569 0.145098 
0.196078 0.721569 0.145098 0.196078 0.721569 0.145098 
0.196078 0.721569 0.145098 0.196078 0.721569 0.145098 
0.196078 0.721569 0.145098 0.196078 0.721569 0.145098 
0.196078 0.721569 0.145098 0.196078 0.721569 0.145098 
0.196078 0.721569 0.145098 0.196078 0.721569 0.145098 
0.196078 0.721569 0.145098 0.196078 0.721569 0.145098 
0.196078 0.721569 0.145098 0.196078 0.721569 0.145098 
0.196078 0.721569 0.145098 0.196078 0.721569 0.145098 
0.196078 0.721569 0.145098 0.196078 0.721569 0.145098 
0.196078 0.721569 0.145098 0.196078 0.721569 0.145098 
0.196078 0.721569 0.145098 0.196078 0.721569 0.145098 
0.196078 0.721569 0.145098 0.196078 0.721569 0.145098 
0.196078 0.721569 0.145098 0.196078 0.721569 0.145098 
0.196078 0.721569 0.145098 0.196078 0.721569 0.145098 
0.196078 0.721569 0.145098 0.196078 0.721569 0.145098 
0.196078 0.721569 0.145098 0.196078 0.721569 0.145098 
0.196078 0.721569 0.145098 0.196078 0.721569 0.145098 
0.196078 0.721569 0.145098 0.196078 0.721569 0.145098 
0.196078 0.721569 0.145098 0.196078 0.721569 0.145098 
0.196078 0.721569 0.145098 0.196078 0.721569 0.145098 
0.196078 0.721569 0.145098 0.196078 0.721569 0.145098 
0.196078 0.721569 0.145098 0.196078 0.721569 0.145098 
0.196078 0.721569 0.145098 0.196078 0.721569 0.145098 
0.196078 0.721569 0.145098 0.196078 0.721569 0.145098 
0.196078 0.721569 0.145098 0.196078 0.721569 0.145098 
0.196078 0.721569 0.145098 0.196078 0.721569 0.145098 
0.196078 0.721569 0.145098 0.196078 0.721569 0.145098 
0.196078 0.721569 0.145098 0.196078 0.721569 0.145098 
0.196078 0.721569 0.145098 0.196078 0.721569 0.145098 
0.196078 0.721569 0.145098 0.196078 0.721569 0.145098 
0.196078 0.721569 0.145098 0.196078 0.721569 0.145098 
0.196078 0.721569 0.145098 0.196078 0.721569 0.145098 
0.196078 0.721569 0.145098 0.196078 0.721569 0.145098 
0.196078 0.721569 0.145098 0.196078 0.721569 0.145098 
0.196078 0.721569 0.145098 0.196078 0.721569 0.145098 
0.196078 0.721569 0.145098 0.196078 0.721569 0.145098 
0.196078 0.721569 0.145098 0.196078 0.721569 0.145098 
0.196078 0.721569 0.145098 0.196078 0.721569 0.145098 
0.196078 0.721569 0.145098 0.196078 0.721569 0.145098 
0.196078 0.721569 0.145098 0.196078 0.721569 0.145098 
0.196078 0.721569 0.145098 0.196078 0.721569 0.145098 
0.196078 0.721569 0.145098 0.196078 0.721569 0.145098 
0.196078 0.721569 0.145098 0.196078 0.721569 0.145098 
0.196078 0.721569 0.145098 0.196078 0.721569 0.145098 
0.196078 0.721569 0.145098 0.196078 0.721569 0.145098 
0.196078 0.721569 0.145098 0.196078 0.721569 0.145098 
0.196078 0.721569 0.145098 0.196078 0.721569 0.145098 
0.196078 0.721569 0.145098 0.196078 0.721569 0.145098 
0.196078 0.721569 0.145098 0.196078 0.721569 0.145098 
0.196078 0.721569 0.145098 0.196078 0.721569 0.145098 
0.196078 0.721569 0.145098 0.196078 0.721569 0.145098 
0.196078 0.721569 0.145098 0.196078 0.721569 0.145098 
0.196078 0.721569 0.145098 0.196078 0.721569 0.145098 
0.196078 0.721569 0.145098 0.196078 0.721569 0.145098 
0.196078 0.721569 0.145098 0.196078 0.721569 0.145098 
0.196078 0.721569 0.145098 0.196078 0.721569 0.145098 
0.196078 0.721569 0.145098 0.196078 0.721569 0.145098 
0.196078 0.721569 0.145098 0.196078 0.721569 0.145098 
0.196078 0.721569 0.145098 0.196078 0.721569 0.145098 
0.196078 0.721569 0.145098 0.196078 0.721569 0.145098 
0.196078 0.721569 0.145098 0.196078 0.721569 0.145098 
0.196078 0.721569 0.145098 0.196078 0.721569 0.145098 
0.196078 0.721569 0.145098 0.196078 0.721569 0.145098 
0.196078 0.721569 0.145098 0.196078 0.721569 0.145098 
0.196078 0.721569 0.145098 0.196078 0.721569 0.145098 
0.196078 0.721569 0.145098 0.196078 0.721569 0.145098 
0.196078 0.721569 0.145098 0.196078 0.721569 0.145098 
0.196078 0.721569 0.145098 0.196078 0.721569 0.145098 
0.196078 0.721569 0.145098 0.196078 0.721569 0.145098 
0.196078 0.721569 0.145098 0.196078 0.721569 0.145098 
0.196078 0.721569 0.145098 0.196078 0.721569 0.145098 
0.196078 0.721569 0.145098 0.196078 0.721569 0.145098 
0.196078 0.721569 0.145098 0.196078 0.721569 0.145098 
0.196078 0.721569 0.145098 0.196078 0.721569 0.145098 
0.196078 0.721569 0.145098 0.196078 0.721569 0.145098 
0.196078 0.721569 0.145098 0.196078 0.721569 0.145098 
0.196078 0.721569 0.145098 0.196078 0.721569 0.145098 
0.196078 0.721569 0.145098 0.196078 0.721569 0.145098 
0.196078 0.721569 0.145098 0.196078 0.721569 0.145098 
0.196078 0.721569 0.145098 0.196078 0.721569 0.145098 
0.196078 0.721569 0.145098 0.196078 0.721569 0.145098 
0.196078 0.721569 0.145098 0.196078 0.721569 0.145098 
0.196078 0.721569 0.145098 0.196078 0.721569 0.145098 
0.196078 0.721569 0.145098 0.196078 0.721569 0.145098 
0.196078 0.721569 0.145098 0.196078 0.721569 0.145098 
0.196078 0.721569 0.145098 0.196078 0.721569 0.145098 
0.196078 0.721569 0.145098 0.196078 0.721569 0.145098 
0.196078 0.721569 0.145098 0.196078 0.721569 0.145098 
0.196078 0.721569 0.145098 0.196078 0.721569 0.145098 
0.196078 0.721569 0.145098 0.196078 0.721569 0.145098 
0.196078 0.721569 0.145098 0.196078 0.721569 0.145098 
0.196078 0.721569 0.145098 0.196078 0.721569 0.145098 
0.196078 0.721569 0.145098 0.196078 0.721569 0.145098 
0.196078 0.721569 0.145098 0.196078 0.721569 0.145098 
0.196078 0.721569 0.145098 0.196078 0.721569 0.145098 
0.196078 0.721569 0.145098 0.196078 0.721569 0.145098 
0.196078 0.721569 0.145098 0.196078 0.721569 0.145098 
0.196078 0.721569 0.145098 0.196078 0.721569 0.145098 
0.196078 0.721569 0.145098 0.196078 0.721569 0.145098 
0.196078 0.721569 0.145098 0.196078 0.721569 0.145098 
0.196078 0.721569 0.145098 0.196078 0.721569 0.145098 
0.196078 0.721569 0.145098 0.196078 0.721569 0.145098 
0.196078 0.721569 0.145098 0.196078 0.721569 0.145098 
0.196078 0.721569 0.145098 0.196078 0.721569 0.145098 
0.196078 0.721569 0.145098 0.196078 0.721569 0.145098 
0.196078 0.721569 0.145098 0.196078 0.721569 0.145098 
0.196078 0.721569 0.145098 0.196078 0.721569 0.145098 
0.196078 0.721569 0.145098 0.196078 0.721569 0.145098 
0.196078 0.721569 0.145098 0.196078 0.721569 0.145098 
0.196078 0.721569 0.145098 0.196078 0.721569 0.145098 
0.196078 0.721569 0.145098 0.196078 0.721569 0.145098 
0.196078 0.721569 0.145098 0.196078 0.721569 0.145098 
0.196078 0.721569 0.145098 0.196078 0.721569 0.145098 
0.196078 0.721569 0.145098 0.196078 0.721569 0.145098 
0.196078 0.721569 0.145098 0.196078 0.721569 0.145098 
0.196078 0.721569 0.145098 0.196078 0.721569 0.145098 
0.196078 0.721569 0.145098 0.196078 0.721569 0.145098 
0.196078 0.721569 0.145098 0.196078 0.721569 0.145098 
0.196078 0.721569 0.145098 0.196078 0.721569 0.145098 
0.196078 0.721569 0.145098 0.196078 0.721569 0.145098 
0.196078 0.721569 0.145098 0.196078 0.721569 0.145098 
0.196078 0.721569 0.145098 0.196078 0.721569 0.145098 
0.196078 0.721569 0.145098 0.196078 0.721569 0.145098 
0.196078 0.721569 0.145098 0.196078 0.721569 0.145098 
0.196078 0.721569 0.145098 0.196078 0.721569 0.145098 
0.196078 0.721569 0.145098 0.196078 0.721569 0.145098 
0.196078 0.721569 0.145098 0.196078 0.721569 0.145098 
0.196078 0.721569 0.145098 0.196078 0.721569 0.145098 
0.196078 0.721569 0.145098 0.196078 0.721569 0.145098 
0.196078 0.721569 0.145098 0.196078 0.721569 0.145098 
0.196078 0.721569 0.145098 0.196078 0.721569 0.145098 
0.196078 0.721569 0.145098 0.196078 0.721569 0.145098 
0.196078 0.721569 0.145098 0.196078 0.721569 0.145098 
0.196078 0.721569 0.145098 0.196078 0.721569 0.145098 
0.196078 0.721569 0.145098 0.196078 0.721569 0.145098 
0.196078 0.721569 0.145098 0.196078 0.721569 0.145098 
0.196078 0.721569 0.145098 0.196078 0.721569 0.145098 
0.196078 0.721569 0.145098 0.196078 0.721569 0.145098 
0.196078 0.721569 0.145098 0.196078 0.721569 0.145098 
0.196078 0.721569 0.145098 0.196078 0.721569 0.145098 
0.196078 0.721569 0.145098 0.196078 0.721569 0.145098 
0.196078 0.721569 0.145098 0.196078 0.721569 0.145098 
0.196078 0.721569 0.145098 0.196078 0.721569 0.145098 
0.196078 0.721569 0.145098 0.196078 0.721569 0.145098 
0.196078 0.721569 0.145098 0.196078 0.721569 0.145098 
0.196078 0.721569 0.145098 0.196078 0.721569 0.145098 
0.196078 0.721569 0.145098 0.196078 0.721569 0.145098 
0.196078 0.721569 0.145098 0.196078 0.721569 0.145098 
0.196078 0.721569 0.145098 0.196078 0.721569 0.145098 
0.196078 0.721569 0.145098 0.196078 0.721569 0.145098 
0.196078 0.721569 0.145098 0.196078 0.721569 0.145098 
0.196078 0.721569 0.145098 0.196078 0.721569 0.145098 
0.196078 0.721569 0.145098 0.196078 0.721569 0.145098 
0.196078 0.721569 0.145098 0.196078 0.721569 0.145098 
0.196078 0.721569 0.145098 0.196078 0.721569 0.145098 
0.196078 0.721569 0.145098 0.196078 0.721569 0.145098 
0.196078 0.721569 0.145098 0.196078 0.721569 0.145098 
0.196078 0.721569 0.145098 0.196078 0.721569 0.145098 
0.196078 0.721569 0.145098 0.196078 0.721569 0.145098 
0.196078 0.721569 0.145098 0.196078 0.721569 0.145098 
0.196078 0.721569 0.145098 0.196078 0.721569 0.145098 
0.196078 0.721569 0.145098 0.196078 0.721569 0.145098 
0.196078 0.721569 0.145098 0.196078 0.721569 0.145098 
0.196078 0.721569 0.145098 0.196078 0.721569 0.145098 
0.196078 0.721569 0.145098 0.196078 0.721569 0.145098 
0.196078 0.721569 0.145098 0.196078 0.721569 0.145098 
0.196078 0.721569 0.145098 0.196078 0.721569 0.145098 
0.196078 0.721569 0.145098 0.196078 0.721569 0.145098 
0.196078 0.721569 0.145098 0.196078 0.721569 0.145098 
0.196078 0.721569 0.145098 0.196078 0.721569 0.145098 
0.196078 0.721569 0.145098 0.196078 0.721569 0.145098 
0.196078 0.721569 0.145098 0.196078 0.721569 0.145098 
0.196078 0.721569 0.145098 0.196078 0.721569 0.145098 
0.196078 0.721569 0.145098 0.196078 0.721569 0.145098 
0.196078 0.721569 0.145098 0.196078 0.721569 0.145098 
0.196078 0.721569 0.145098 0.196078 0.721569 0.145098 
0.196078 0.721569 0.145098 0.196078 0.721569 0.145098 
0.196078 0.721569 0.145098 0.196078 0.721569 0.145098 
0.196078 0.721569 0.145098 0.196078 0.721569 0.145098 
0.196078 0.721569 0.145098 0.196078 0.721569 0.145098 
0.196078 0.721569 0.145098 0.196078 0.721569 0.145098 
0.196078 0.721569 0.145098 0.196078 0.721569 0.145098 
0.196078 0.721569 0.145098 0.196078 0.721569 0.145098 
0.196078 0.721569 0.145098 0.196078 0.721569 0.145098 
0.196078 0.721569 0.145098 0.196078 0.721569 0.145098 
0.196078 0.721569 0.145098 0.196078 0.721569 0.145098 
0.196078 0.721569 0.145098 0.196078 0.721569 0.145098 
0.196078 0.721569 0.145098 0.196078 0.721569 0.145098 
0.196078 0.721569 0.145098 0.196078 0.721569 0.145098 
0.196078 0.721569 0.145098 0.196078 0.721569 0.145098 
0.196078 0.721569 0.145098 0.196078 0.721569 0.145098 
0.196078 0.721569 0.145098 0.196078 0.721569 0.145098 
0.196078 0.721569 0.145098 0.196078 0.721569 0.145098 
0.196078 0.721569 0.145098 0.196078 0.721569 0.145098 
0.196078 0.721569 0.145098 0.196078 0.721569 0.145098 
0.196078 0.721569 0.145098 0.196078 0.721569 0.145098 
0.196078 0.721569 0.145098 0.196078 0.721569 0.145098 
0.196078 0.721569 0.145098 0.196078 0.721569 0.145098 
0.196078 0.721569 0.145098 0.196078 0.721569 0.145098 
0.196078 0.721569 0.145098 0.196078 0.721569 0.145098 
0.196078 0.721569 0.145098 0.196078 0.721569 0.145098 
0.196078 0.721569 0.145098 0.196078 0.721569 0.145098 
0.196078 0.721569 0.145098 0.196078 0.721569 0.145098 
0.196078 0.721569 0.145098 0.196078 0.721569 0.145098 
0.196078 0.721569 0.145098 0.196078 0.721569 0.145098 
0.196078 0.721569 0.145098 0.196078 0.721569 0.145098 
0.196078 0.721569 0.145098 0.196078 0.721569 0.145098 
0.196078 0.721569 0.145098 0.196078 0.721569 0.145098 
0.196078 0.721569 0.145098 0.196078 0.721569 0.145098 
0.196078 0.721569 0.145098 0.196078 0.721569 0.145098 
0.196078 0.721569 0.145098 0.196078 0.721569 0.145098 
0.196078 0.721569 0.145098 0.196078 0.721569 0.145098 
0.196078 0.721569 0.145098 0.196078 0.721569 0.145098 
0.196078 0.721569 0.145098 0.196078 0.721569 0.145098 
0.196078 0.721569 0.145098 0.196078 0.721569 0.145098 
0.196078 0.721569 0.145098 0.196078 0.721569 0.145098 
0.196078 0.721569 0.145098 0.196078 0.721569 0.145098 
0.196078 0.721569 0.145098 0.196078 0.721569 0.145098 
0.196078 0.721569 0.145098 0.196078 0.721569 0.145098 
0.196078 0.721569 0.145098 0.196078 0.721569 0.145098 
0.196078 0.721569 0.145098 0.196078 0.721569 0.145098 
0.196078 0.721569 0.145098 0.196078 0.721569 0.145098 
0.196078 0.721569 0.145098 0.196078 0.721569 0.145098 
0.196078 0.721569 0.145098 0.196078 0.721569 0.145098 
0.196078 0.721569 0.145098 0.196078 0.721569 0.145098 
0.196078 0.721569 0.145098 0.196078 0.721569 0.145098 
0.196078 0.721569 0.145098 0.196078 0.721569 0.145098 
0.196078 0.721569 0.145098 0.196078 0.721569 0.145098 
0.196078 0.721569 0.145098 0.196078 0.721569 0.145098 
0.196078 0.721569 0.145098 0.196078 0.721569 0.145098 
0.196078 0.721569 0.145098 0.196078 0.721569 0.145098 
0.196078 0.721569 0.145098 0.196078 0.721569 0.145098 
0.196078 0.721569 0.145098 0.196078 0.721569 0.145098 
0.196078 0.721569 0.145098 0.196078 0.721569 0.145098 
0.196078 0.721569 0.145098 0.196078 0.721569 0.145098 
0.196078 0.721569 0.145098 0.196078 0.721569 0.145098 
0.196078 0.721569 0.145098 0.196078 0.721569 0.145098 
0.196078 0.721569 0.145098 0.196078 0.721569 0.145098 
0.196078 0.721569 0.145098 0.196078 0.721569 0.145098 
0.196078 0.721569 0.145098 0.196078 0.721569 0.145098 
0.196078 0.721569 0.145098 0.196078 0.721569 0.145098 
0.196078 0.721569 0.145098 0.196078 0.721569 0.145098 
0.196078 0.721569 0.145098 0.196078 0.721569 0.145098 
0.196078 0.721569 0.145098 0.196078 0.721569 0.145098 
0.196078 0.721569 0.145098 0.196078 0.721569 0.145098 
0.196078 0.721569 0.145098 0.196078 0.721569 0.145098 
0.196078 0.721569 0.145098 0.196078 0.721569 0.145098 
0.196078 0.721569 0.145098 0.196078 0.721569 0.145098 
0.196078 0.721569 0.145098 0.196078 0.721569 0.145098 
0.196078 0.721569 0.145098 0.196078 0.721569 0.145098 
0.196078 0.721569 0.145098 0.196078 0.721569 0.145098 
0.196078 0.721569 0.145098 0.196078 0.721569 0.145098 
0.196078 0.721569 0.145098 0.196078 0.721569 0.145098 
0.196078 0.721569 0.145098 0.196078 0.721569 0.145098 
0.196078 0.721569 0.145098 0.196078 0.721569 0.145098 
0.196078 0.721569 0.145098 0.196078 0.721569 0.145098 
0.196078 0.721569 0.145098 0.196078 0.721569 0.145098 
0.196078 0.721569 0.145098 0.196078 0.721569 0.145098 
0.196078 0.721569 0.145098 0.196078 0.721569 0.145098 
0.196078 0.721569 0.145098 0.196078 0.721569 0.145098 
0.196078 0.721569 0.145098 0.196078 0.721569 0.145098 
0.196078 0.721569 0.145098 0.196078 0.721569 0.145098 
0.196078 0.721569 0.145098 0.196078 0.721569 0.145098 
0.196078 0.721569 0.145098 0.196078 0.721569 0.145098 
0.196078 0.721569 0.145098 0.196078 0.721569 0.145098 
0.196078 0.721569 0.145098 0.196078 0.721569 0.145098 
0.196078 0.721569 0.145098 0.196078 0.721569 0.145098 
0.196078 0.721569 0.145098 0.196078 0.721569 0.145098 
0.196078 0.721569 0.145098 0.196078 0.721569 0.145098 
0.196078 0.721569 0.145098 0.196078 0.721569 0.145098 
0.196078 0.721569 0.145098 0.196078 0.721569 0.145098 
0.196078 0.721569 0.145098 0.196078 0.721569 0.145098 
0.196078 0.721569 0.145098 0.196078 0.721569 0.145098 
0.196078 0.721569 0.145098 0.196078 0.721569 0.145098 
0.196078 0.721569 0.145098 0.196078 0.721569 0.145098 
0.196078 0.721569 0.145098 0.196078 0.721569 0.145098 
0.196078 0.721569 0.145098 0.196078 0.721569 0.145098 
0.196078 0.721569 0.145098 0.196078 0.721569 0.145098 
0.196078 0.721569 0.145098 0.196078 0.721569 0.145098 
0.196078 0.721569 0.145098 0.196078 0.721569 0.145098 
0.196078 0.721569 0.145098 0.196078 0.721569 0.145098 
0.196078 0.721569 0.145098 0.196078 0.721569 0.145098 
0.196078 0.721569 0.145098 0.196078 0.721569 0.145098 
0.196078 0.721569 0.145098 0.196078 0.721569 0.145098 
0.196078 0.721569 0.145098 0.196078 0.721569 0.145098 
0.196078 0.721569 0.145098 0.196078 0.721569 0.145098 
0.196078 0.721569 0.145098 0.196078 0.721569 0.145098 
0.196078 0.721569 0.145098 0.196078 0.721569 0.145098 
0.196078 0.721569 0.145098 0.196078 0.721569 0.145098 
0.196078 0.721569 0.145098 0.196078 0.721569 0.145098 
0.196078 0.721569 0.145098 0.196078 0.721569 0.145098 
0.196078 0.721569 0.145098 0.196078 0.721569 0.145098 
0.196078 0.721569 0.145098 0.196078 0.721569 0.145098 
0.196078 0.721569 0.145098 0.196078 0.721569 0.145098 
0.196078 0.721569 0.145098 0.196078 0.721569 0.145098 
0.196078 0.721569 0.145098 0.196078 0.721569 0.145098 
0.196078 0.721569 0.145098 0.196078 0.721569 0.145098 
0.196078 0.721569 0.145098 0.196078 0.721569 0.145098 
0.196078 0.721569 0.145098 0.196078 0.721569 0.145098 
0.196078 0.721569 0.145098 0.196078 0.721569 0.145098 
0.196078 0.721569 0.145098 0.196078 0.721569 0.145098 
0.196078 0.721569 0.145098 0.196078 0.721569 0.145098 
0.196078 0.721569 0.145098 0.196078 0.721569 0.145098 
0.196078 0.721569 0.145098 0.196078 0.721569 0.145098 
0.196078 0.721569 0.145098 0.196078 0.721569 0.145098 
0.196078 0.721569 0.145098 0.196078 0.721569 0.145098 
0.196078 0.721569 0.145098 0.196078 0.721569 0.145098 
0.196078 0.721569 0.145098 0.196078 0.721569 0.145098 
0.196078 0.721569 0.145098 0.196078 0.721569 0.145098 
0.196078 0.721569 0.145098 0.196078 0.721569 0.145098 
0.196078 0.721569 0.145098 0.196078 0.721569 0.145098 
0.196078 0.721569 0.145098 0.196078 0.721569 0.145098 
0.196078 0.721569 0.145098 0.196078 0.721569 0.145098 
0.196078 0.721569 0.145098 0.196078 0.721569 0.145098 
0.196078 0.721569 0.145098 0.196078 0.721569 0.145098 
0.196078 0.721569 0.145098 0.196078 0.721569 0.145098 
0.196078 0.721569 0.145098 0.196078 0.721569 0.145098 
0.196078 0.721569 0.145098 0.196078 0.721569 0.145098 
0.196078 0.721569 0.145098 0.196078 0.721569 0.145098 
0.196078 0.721569 0.145098 0.196078 0.721569 0.145098 
0.196078 0.721569 0.145098 0.196078 0.721569 0.145098 
0.196078 0.721569 0.145098 0.196078 0.721569 0.145098 
0.196078 0.721569 0.145098 0.196078 0.721569 0.145098 
0.196078 0.721569 0.145098 0.196078 0.721569 0.145098 
0.196078 0.721569 0.145098 0.196078 0.721569 0.145098 