# vtk DataFile Version 4.2
vtk output
ASCII
DATASET POLYDATA
POINTS 1845 float
392.206 157.494 70.8057 391.245 160.792 70.5215 391.683 162.573 70.6199 
390.542 164.767 70.7683 390.824 165.21 70.7614 390.916 165.809 70.8821 
389.923 170.686 71.1721 389.971 170.927 71.2448 392.002 154.635 71.2714 
392.126 154.246 71.4113 390.815 158.448 70.8961 391.797 164.494 71.002 
391.588 165.128 71.0194 391.913 164.934 71.2423 390.734 166.742 71.0458 
390.441 169.629 71.32 389.559 172.17 71.5609 390.081 171.879 71.7111 
388.973 173.911 71.9021 388.862 174.259 71.9823 388.881 174.605 72.1187 
392.713 145.107 72.7774 392.565 144.675 72.8411 392.627 147.712 72.4629 
392.76 148.55 72.4362 391.515 151.191 72.1136 391.882 153.475 71.6211 
392.508 154.018 71.6913 392.683 155.155 71.5711 390.577 156.132 71.5783 
393.161 156.568 71.9135 392.871 159.122 71.4075 393.167 158.506 71.8367 
392.66 161.69 71.4611 392.183 165.046 71.7024 391.271 168.642 71.8549 
389.217 172.574 71.7364 389.585 173.225 72.0131 389.802 173.634 72.4054 
388.458 175.222 72.4191 389.058 174.895 72.3977 388.736 175.434 72.5336 
387.854 178.091 73.2481 387.897 178.246 73.3461 392.03 145.437 72.7241 
391.913 146.003 72.6392 393.306 145.478 73.2038 393.369 151.373 72.7853 
393.397 153.688 72.6165 390.192 155.431 72.0885 392.488 164.65 72.1703 
391.73 168.773 72.8878 390.472 172.361 72.5175 389.84 174.473 73.1088 
388.381 176.178 72.84 388.705 176.637 73.2268 387.374 178.384 73.5844 
387.823 178.534 73.5354 387.546 178.882 73.8058 388.072 178.304 73.5528 
387.882 178.797 73.8293 392.732 137.269 74.609 392.235 138.347 74.3359 
392.639 139.029 74.2205 393.406 142.762 73.8683 391.6 145.03 73.0105 
393.556 144.76 73.6717 393.739 152.318 73.2979 393.697 154.086 73.1408 
393.907 156.471 73.862 393.301 162.132 73.6335 392.278 167.084 73.5177 
387.759 179.427 74.3825 386.962 180.371 74.6166 386.989 180.749 74.8542 
392.721 133.35 75.5979 391.845 138.173 74.4591 391.646 137.729 74.6678 
393.673 142.01 74.4244 388.577 178.26 74.4642 385.762 184.682 76.1736 
385.698 184.573 76.1435 385.8 184.751 76.2928 391.539 133.021 75.9459 
391.248 136.549 75.2393 393.975 143.26 74.8879 390.118 174.977 75.5335 
388.51 179.082 75.6047 385.928 181.393 75.3579 387.537 180.806 75.5517 
386.388 182.09 75.6379 387.083 181.565 75.7722 385.885 183.18 75.9195 
386.349 183.031 76.0896 386.108 183.864 76.2731 385.694 185.084 76.5691 
384.759 187.116 76.9087 384.805 187.376 77.0725 391.949 129.681 76.6316 
391.072 133.557 76.1232 392.96 163.928 76.0906 384.955 180.269 75.7181 
386.55 183.363 76.5682 385.107 185.567 76.6291 385.691 185.732 77.1957 
385.227 186.987 77.2876 392.41 123.597 78.5883 392.351 123.298 78.6634 
392.158 123.502 78.5785 392.076 124.223 78.3382 392.127 125.005 78.1254 
391.841 124.526 78.2887 391.566 126.048 77.9504 391.952 126.722 77.6101 
393.725 130.614 77.3935 390.084 134.242 76.9377 394.273 143.963 77.084 
393.707 159.18 76.2341 390.035 175.177 77.208 387.633 181.487 77.1371 
383.288 186.188 77.2009 385.281 187.281 77.6475 383.346 188.887 77.7419 
383.992 189.197 77.9132 384.68 188.704 78.125 384.362 189.374 78.2144 
383.592 190.839 78.3702 382.812 192.6 78.6474 382.757 192.251 78.5801 
383.006 192.364 78.7116 382.752 192.844 78.7278 382.824 193.024 78.9031 
392.3 122.853 78.8969 391.444 124.379 78.5308 392.878 123.774 79.1576 
390.738 126.38 78.4431 390.464 128.009 78.2366 393.632 128.175 78.2929 
393.891 129.009 78.554 387.771 144.39 77.2795 389.958 175.266 77.7764 
382.272 189.981 78.2488 384.562 189.566 78.6038 382.995 191.49 78.4761 
384.216 190.887 79.0825 383.375 192.022 78.887 382.7 193.425 79.2012 
391.953 120.021 80.0786 392.313 119.221 80.5192 391.813 121.49 79.4927 
392.37 120.098 80.2262 392.629 120.518 80.3354 393.358 124.962 79.6722 
393.713 127.08 79.2619 392.908 158.895 79.2044 380.779 182.241 79.1747 
387.932 180.924 79.5663 385.626 187.588 79.212 384.491 190.576 79.3509 
381.802 193.425 79.1938 383.45 193.102 79.7975 382.255 195.192 80.1084 
380.403 196.826 80.4018 381.258 197.291 80.5667 381.813 196.866 80.6693 
381.25 198.229 80.9382 391.605 115.352 81.5054 392.539 118.483 81.0499 
393.064 121.895 80.5934 393.236 122.949 80.5137 389.575 175.067 79.8586 
380.245 179.908 79.9945 382.536 195.697 80.6568 379.99 198.127 80.8577 
380.048 198.896 81.0697 380.737 199.094 81.1273 390.861 111.453 82.7699 
391.178 112.076 82.5499 391.416 111.486 82.8335 391.067 113.004 82.2635 
391.346 113.922 82.0071 392.911 119.008 81.5802 393.528 124.075 81.2919 
394.078 130.527 80.6156 379.575 180.132 80.9387 379.268 183.344 80.9744 
378.134 191.899 81.6008 383.859 193.477 81.1942 379.457 194.539 80.4665 
383.056 195.914 81.8304 379.168 199.201 81.5107 381.617 199.293 81.9121 
379.704 200.634 81.7414 379.276 201.161 81.9767 381.079 200.174 81.9693 
380.408 201.669 82.2374 379.316 203.005 82.4374 357.3 227.923 83.4195 
357.25 227.886 83.5026 357.264 228.014 83.5205 357.412 227.794 83.4267 
357.435 227.998 83.4569 390.915 109.648 83.5467 391.631 111.887 82.8103 
391.828 111.855 83.121 393.388 122.187 82.0675 393.736 136.189 81.9092 
379.23 177.986 81.8713 378.886 179.549 82.5009 378.413 184.729 82.2198 
385.129 190.076 82.5883 378.192 199.147 82.1774 380.787 201.767 82.5552 
381.228 201.24 82.81 378.386 203.202 82.8185 378.388 204.253 83.0247 
379.388 204.414 82.9631 379.405 205.373 83.352 378.428 206.492 83.5331 
378.815 207.124 83.8621 365.15 224.448 83.8018 361.293 225.453 83.4579 
362.47 225.36 83.4668 360.554 225.811 83.4211 360.354 226.03 83.4384 
357.648 227.483 83.4781 357.435 227.419 83.5765 358.765 227.255 83.3946 
362.575 226.192 83.6828 357.305 227.663 83.5908 357.168 228.046 83.8279 
357.759 227.827 83.4359 358.282 228.026 83.535 358.72 227.643 83.4323 
357.365 228.214 83.6626 390.675 108.071 84.382 390.558 107.788 84.5106 
390.693 107.66 84.7193 390.388 108.999 83.9307 390.138 110.838 83.3388 
387.267 128.122 82.039 392.464 147.47 82.8264 377.451 190.059 83.0694 
377.527 203.181 83.4444 379.728 205.439 83.6378 379.897 205.819 84.1409 
377.431 209.547 84.5509 377.722 209.786 84.6003 377.506 210.124 84.7049 
377.744 210.197 84.7901 376.919 212.107 85.2447 376.945 212.275 85.3546 
364.355 223.824 83.9193 365.627 223.02 84.347 367.374 223.495 84.5797 
367.285 223.04 84.6062 363.26 224.518 83.6735 367.635 223.709 84.7223 
360.985 225.321 83.5909 360.939 224.869 84.043 361.941 224.506 83.894 
364.585 225.027 83.8403 359.62 226.353 83.5304 364.55 225.587 84.002 
364.948 225.393 84.0554 357.33 227.408 83.73 357.334 227.208 84.0688 
358.104 226.652 83.8617 357.022 227.972 84.2629 360.674 227.831 83.8925 
357.262 228.441 83.9935 357.368 228.824 84.287 390.156 107.167 84.9348 
389.938 107.225 84.9932 390.025 108.324 84.3988 391.634 109.189 84.783 
391.815 109.93 84.4317 393.426 125.395 83.8165 377.97 184.482 84.0038 
376.856 193.134 84.3609 382.04 201 84.7216 380.597 204.333 84.1244 
377.148 208.983 84.5477 377.941 210.525 85.158 366.243 222.112 84.832 
367.602 221.869 85.0468 368.777 222.182 85.1995 368.478 223.502 85.2181 
369.524 222.543 85.5671 359.127 225.826 83.9978 358.696 225.817 84.2776 
357.211 227.167 84.5834 362.387 227.286 84.1337 357.607 229.283 84.5982 
389.848 105.877 86.1936 389.737 106.383 85.7492 390.153 106.069 85.9567 
391.208 107.4 85.8439 391.814 109.083 85.367 377.004 190.466 84.958 
376.038 212.586 85.7041 375.152 213.901 86.1553 375.565 214.66 86.1816 
375.285 215.948 86.3954 375.927 215.453 86.5825 371.892 218.972 86.0461 
365.821 221.349 85.8609 365.437 221.723 85.4666 367.711 220.774 85.7985 
369.577 220.277 85.8511 371.139 220.219 85.9674 362.851 222.907 85.5366 
370.04 222.662 85.9615 370.824 222.123 86.2913 358.09 225.939 84.9997 
357.853 226.12 85.022 365.685 225.82 84.7077 356.759 228.167 85.4437 
356.641 229.358 86.1924 357.529 230.517 85.9544 357.138 230.548 86.3457 
390.617 105.787 86.7786 389.164 107.11 85.7475 391.88 108.863 86.0055 
385.631 186.159 85.7909 377.291 188.065 85.941 376.119 202.779 85.4729 
375.425 211.148 86.1773 373.252 217.148 86.1966 368.254 220.141 86.2533 
369.624 219.158 86.5604 370.895 219.048 86.1553 364.686 221.74 86.0556 
364.202 221.923 86.3139 362.25 223.083 86.5338 365.829 226.978 85.8724 
356.515 229.61 86.8234 356.528 230.192 87.1899 357.885 230.643 85.8667 
358.426 231.039 86.2245 357.056 231.228 87.1851 389.96 104.73 87.4892 
390.306 105.188 87.1264 390.148 104.76 87.5635 391.86 107.975 87.6653 
382.472 132.046 87.2019 390.613 144.415 87.0068 385.237 186.425 87.1184 
382.27 201.062 87.6308 381.104 204.825 86.7073 378.577 211.293 87.3548 
373.442 215.155 86.8537 376.843 214.86 87.2664 368.531 219.247 87.3101 
368.366 219.07 88.0306 369.278 218.888 87.116 369.72 218.225 87.6623 
370.809 218.08 86.7793 373.99 219.841 87.3158 372.126 221.893 87.1823 
361.738 223.487 87.628 370.914 223.27 87.1895 358.445 225.686 86.6888 
360.31 224.471 87.5528 357.13 227.134 86.5216 356.597 228.527 86.9175 
357.922 231.392 86.7625 356.779 231.673 88.2984 357.332 231.668 87.4402 
357.192 232.008 88.0406 389.852 104.442 87.9616 389.529 104.291 88.2547 
390.017 104.132 88.5342 375.274 202.363 88.5833 374.784 207.888 88.2142 
369.048 218.439 88.4889 364.278 221.782 87.518 373.212 221.475 88.2969 
357.576 226.817 87.4901 357.077 227.712 87.9534 356.397 230.729 88.5271 
389.347 104.148 88.609 389.599 103.681 89.3221 390.977 104.574 89.4643 
388.198 105.349 88.3925 384.545 114.781 89.2251 389.61 143.265 88.9693 
378.015 178.922 89.0854 384.485 188.438 88.6667 372.247 214.163 89.8281 
357.256 227.76 88.5631 356.44 231.715 89.634 357.111 232.948 89.5686 
390.406 103.194 90.6095 389.466 103.351 90.0016 390.814 103.775 90.4451 
388.147 104.171 90.0689 379.636 143.701 90.2885 375.391 201.251 89.8628 
356.408 231.265 90.0272 356.463 232.615 90.7194 356.538 233.216 91.1301 
360.811 233.505 90.152 389.964 102.457 91.5909 389.34 102.605 91.4786 
388.538 103.624 90.4264 385.122 109.52 90.6191 381.899 201.583 90.507 
368.444 219.218 91.0504 356.482 233.479 91.7888 357.053 234.603 91.7554 
[...]
POINT_DATA 1845
COLOR_SCALARS scalars 3
0.196078 0.721569 0.145098 0.196078 0.721569 0.145098 0.196078 0.721569 0.145098 
0.196078 0.721569 0.145098 0.196078 0.721569 0.145098 
0.196078 0.721569 0.145098 0.196078 0.721569 0.145098 
0.196078 0.721569 0.145098 0.196078 0.721569 0.145098 
0.196078 0.721569 0.145098 0.196078 0.721569 0.145098 
0.196078 0.721569 0.145098 0.196078 0.721569 0.145098 
0.196078 0.721569 0.145098 0.196078 0.721569 0.145098 
0.196078 0.721569 0.145098 0.196078 0.721569 0.145098 
0.196078 0.721569 0.145098 0.196078 0.721569 0.145098 
0.196078 0.721569 0.145098 0.196078 0.721569 0.145098 
0.196078 0.721569 0.145098 0.196078 0.721569 0.145098 
0.196078 0.721569 0.145098 0.196078 0.721569 0.145098 
0.196078 0.721569 0.145098 0.196078 0.721569 0.145098 
0.196078 0.721569 0.145098 0.196078 0.721569 0.145098 
0.196078 0.721569 0.145098 0.196078 0.721569 0.145098 
0.196078 0.721569 0.145098 0.196078 0.721569 0.145098 
0.196078 0.721569 0.145098 0.196078 0.721569 0.145098 
0.196078 0.721569 0.145098 0.196078 0.721569 0.145098 
0.196078 0.721569 0.145098 0.196078 0.721569 0.145098 
0.196078 0.721569 0.145098 0.196078 0.721569 0.145098 
0.196078 0.721569 0.145098 0.196078 0.721569 0.145098 
0.196078 0.721569 0.145098 0.196078 0.721569 0.145098 
0.196078 0.721569 0.145098 0.196078 0.721569 0.145098 
0.196078 0.721569 0.145098 0.196078 0.721569 0.145098 
0.196078 0.721569 0.145098 0.196078 0.721569 0.145098 
0.196078 0.721569 0.145098 0.196078 0.721569 0.145098 
0.196078 0.721569 0.145098 0.196078 0.721569 0.145098 
0.196078 0.721569 0.145098 0.196078 0.721569 0.145098 
0.196078 0.721569 0.145098 0.196078 0.721569 0.145098 
0.196078 0.721569 0.145098 0.196078 0.721569 0.145098 
0.196078 0.721569 0.145098 0.196078 0.721569 0.145098 
0.196078 0.721569 0.145098 0.196078 0.721569 0.145098 
0.196078 0.721569 0.145098 0.196078 0.721569 0.145098 
0.196078 0.721569 0.145098 0.196078 0.721569 0.145098 
0.196078 0.721569 0.145098 0.196078 0.721569 0.145098 
0.196078 0.721569 0.145098 0.196078 0.721569 0.145098 
0.196078 0.721569 0.145098 0.196078 0.721569 0.145098 
0.196078 0.721569 0.145098 0.196078 0.721569 0.145098 
0.196078 0.721569 0.145098 0.196078 0.721569 0.145098 
0.196078 0.721569 0.145098 0.196078 0.721569 0.145098 
0.196078 0.721569 0.145098 0.196078 0.721569 0.145098 
0.196078 0.721569 0.145098 0.196078 0.721569 0.145098 
0.196078 0.721569 0.145098 0.196078 0.721569 0.145098 
0.196078 0.721569 0.145098 0.196078 0.721569 0.145098 
0.196078 0.721569 0.145098 0.196078 0.721569 0.145098 
0.196078 0.721569 0.145098 0.196078 0.721569 0.145098 
0.196078 0.721569 0.145098 0.196078 0.721569 0.145098 
0.196078 0.721569 0.145098 0.196078 0.721569 0.145098 
0.196078 0.721569 0.145098 0.196078 0.721569 0.145098 
0.196078 0.721569 0.145098 0.196078 0.721569 0.145098 
0.196078 0.721569 0.145098 0.196078 0.721569 0.145098 
0.196078 0.721569 0.145098 0.196078 0.721569 0.145098 
0.196078 0.721569 0.145098 0.196078 0.721569 0.145098 
0.196078 0.721569 0.145098 0.196078 0.721569 0.145098 
0.196078 0.721569 0.145098 0.196078 0.721569 0.145098 
0.196078 0.721569 0.145098 0.196078 0.721569 0.145098 
0.196078 0.721569 0.145098 0.196078 0.721569 0.145098 
0.196078 0.721569 0.145098 0.196078 0.721569 0.145098 
0.196078 0.721569 0.145098 0.196078 0.721569 0.145098 
0.196078 0.721569 0.145098 0.196078 0.721569 0.145098 
0.196078 0.721569 0.145098 0.196078 0.721569 0.145098 
0.196078 0.721569 0.145098 0.196078 0.721569 0.145098 
0.196078 0.721569 0.145098 0.196078 0.721569 0.145098 
0.196078 0.721569 0.145098 0.196078 0.721569 0.145098 
0.196078 0.721569 0.145098 0.196078 0.721569 0.145098 
0.196078 0.721569 0.145098 0.196078 0.721569 0.145098 
0.196078 0.721569 0.145098 0.196078 0.721569 0.145098 
0.196078 0.721569 0.145098 0.196078 0.721569 0.145098 
0.196078 0.721569 0.145098 0.196078 0.721569 0.145098 
0.196078 0.721569 0.145098 0.196078 0.721569 0.145098 
0.196078 0.721569 0.145098 0.196078 0.721569 0.145098 
0.196078 0.721569 0.145098 0.196078 0.721569 0.145098 
0.196078 0.721569 0.145098 0.196078 0.721569 0.145098 
0.196078 0.721569 0.145098 0.196078 0.721569 0.145098 
0.196078 0.721569 0.145098 0.196078 0.721569 0.145098 
0.196078 0.721569 0.145098 0.196078 0.721569 0.145098 
0.196078 0.721569 0.145098 0.196078 0.721569 0.145098 
0.196078 0.721569 0.145098 0.196078 0.721569 0.145098 
0.196078 0.721569 0.145098 0.196078 0.721569 0.145098 
0.196078 0.721569 0.145098 0.196078 0.721569 0.145098 
0.196078 0.721569 0.145098 0.196078 0.721569 0.145098 
0.196078 0.721569 0.145098 0.196078 0.721569 0.145098 
0.196078 0.721569 0.145098 0.196078 0.721569 0.145098 
0.196078 0.721569 0.145098 0.196078 0.721569 0.145098 
0.196078 0.721569 0.145098 0.196078 0.721569 0.145098 
0.196078 0.721569 0.145098 0.196078 0.721569 0.145098 
0.196078 0.721569 0.145098 0.196078 0.721569 0.145098 
0.196078 0.721569 0.145098 0.196078 0.721569 0.145098 
0.196078 0.721569 0.145098 0.196078 0.721569 0.145098 
0.196078 0.721569 0.145098 0.196078 0.721569 0.145098 
0.196078 0.721569 0.145098 0.196078 0.721569 0.145098 
0.196078 0.721569 0.145098 0.196078 0.721569 0.145098 
0.196078 0.721569 0.145098 0.196078 0.721569 0.145098 
0.196078 0.721569 0.145098 0.196078 0.721569 0.145098 
0.196078 0.721569 0.145098 0.196078 0.721569 0.145098 
0.196078 0.721569 0.145098 0.196078 0.721569 0.145098 
0.196078 0.721569 0.145098 0.196078 0.721569 0.145098 
0.196078 0.721569 0.145098 0.196078 0.721569 0.145098 
0.196078 0.721569 0.145098 0.196078 0.721569 0.145098 
0.196078 0.721569 0.145098 0.196078 0.721569 0.145098 
0.196078 0.721569 0.145098 0.196078 0.721569 0.145098 
0.196078 0.721569 0.145098 0.196078 0.721569 0.145098 
0.196078 0.721569 0.145098 0.196078 0.721569 0.145098 
0.196078 0.721569 0.145098 0.196078 0.721569 0.145098 
0.196078 0.721569 0.145098 0.196078 0.721569 0.145098 
0.196078 0.721569 0.145098 0.196078 0.721569 0.145098 
0.196078 0.721569 0.145098 0.196078 0.721569 0.145098 
0.196078 0.721569 0.145098 0.196078 0.721569 0.145098 
0.196078 0.721569 0.145098 0.196078 0.721569 0.145098 
0.196078 0.721569 0.145098 0.196078 0.721569 0.145098 
0.196078 0.721569 0.145098 0.196078 0.721569 0.145098 
0.196078 0.721569 0.145098 0.196078 0.721569 0.145098 
0.196078 0.721569 0.145098 0.196078 0.721569 0.145098 
0.196078 0.721569 0.145098 0.196078 0.721569 0.145098 
0.196078 0.721569 0.145098 0.196078 0.721569 0.145098 
0.196078 0.721569 0.145098 0.196078 0.721569 0.145098 
0.196078 0.721569 0.145098 0.196078 0.721569 0.145098 
0.196078 0.721569 0.145098 0.196078 0.721569 0.145098 
0.196078 0.721569 0.145098 0.196078 0.721569 0.145098 
0.196078 0.721569 0.145098 0.196078 0.721569 0.145098 
0.196078 0.721569 0.145098 0.196078 0.721569 0.145098 
0.196078 0.721569 0.145098 0.196078 0.721569 0.145098 
0.196078 0.721569 0.145098 0.196078 0.721569 0.145098 
0.196078 0.721569 0.145098 0.196078 0.721569 0.145098 
0.196078 0.721569 0.145098 0.196078 0.721569 0.145098 
0.196078 0.721569 0.145098 0.196078 0.721569 0.145098 
0.196078 0.721569 0.145098 0.196078 0.721569 0.145098 
0.196078 0.721569 0.145098 0.196078 0.721569 0.145098 
0.196078 0.721569 0.145098 0.196078 0.721569 0.145098 
0.196078 0.721569 0.145098 0.196078 0.721569 0.145098 
0.196078 0.721569 0.145098 0.196078 0.721569 0.145098 
0.196078 0.721569 0.145098 0.196078 0.721569 0.145098 
0.196078 0.721569 0.145098 0.196078 0.721569 0.145098 
0.196078 0.721569 0.145098 0.196078 0.721569 0.145098 
0.196078 0.721569 0.145098 0.196078 0.721569 0.145098 
0.196078 0.721569 0.145098 0.196078 0.721569 0.145098 
0.196078 0.721569 0.145098 0.196078 0.721569 0.145098 
0.196078 0.721569 0.145098 0.196078 0.721569 0.145098 
0.196078 0.721569 0.145098 0.196078 0.721569 0.145098 
0.196078 0.721569 0.145098 0.196078 0.721569 0.145098 
0.196078 0.721569 0.145098 0.196078 0.721569 0.145098 
0.196078 0.721569 0.145098 0.196078 0.721569 0.145098 
0.196078 0.721569 0.145098 0.196078 0.721569 0.145098 
0.196078 0.721569 0.145098 0.196078 0.721569 0.145098 
0.196078 0.721569 0.145098 0.196078 0.721569 0.145098 
0.196078 0.721569 0.145098 0.196078 0.721569 0.145098 
0.196078 0.721569 0.145098 0.196078 0.721569 0.145098 
0.196078 0.721569 0.145098 0.196078 0.721569 0.145098 
0.196078 0.721569 0.145098 0.196078 0.721569 0.145098 
0.196078 0.721569 0.145098 0.196078 0.721569 0.145098 
0.196078 0.721569 0.145098 0.196078 0.721569 0.145098 
0.196078 0.721569 0.145098 0.196078 0.721569 0.145098 
0.196078 0.721569 0.145098 0.196078 0.721569 0.145098 
0.196078 0.721569 0.145098 0.196078 0.721569 0.145098 
0.196078 0.721569 0.145098 0.196078 0.721569 0.145098 
0.196078 0.721569 0.145098 0.196078 0.721569 0.145098 
0.196078 0.721569 0.145098 0.196078 0.721569 0.145098 
0.196078 0.721569 0.145098 0.196078 0.721569 0.145098 
0.196078 0.721569 0.145098 0.196078 0.721569 0.145098 
0.196078 0.721569 0.145098 0.196078 0.721569 0.145098 
0.196078 0.721569 0.145098 0.196078 0.721569 0.145098 
0.196078 0.721569 0.145098 0.196078 0.721569 0.145098 
0.196078 0.721569 0.145098 0.196078 0.721569 0.145098 
0.196078 0.721569 0.145098 0.196078 0.721569 0.145098 
0.196078 0.721569 0.145098 0.196078 0.721569 0.145098 
0.196078 0.721569 0.145098 0.196078 0.721569 0.145098 
0.196078 0.721569 0.145098 0.196078 0.721569 0.145098 
0.196078 0.721569 0.145098 0.196078 0.721569 0.145098 
0.196078 0.721569 0.145098 0.196078 0.721569 0.145098 
0.196078 0.721569 0.145098 0.196078 0.721569 0.145098 
0.196078 0.721569 0.145098 0.196078 0.721569 0.145098 
0.196078 0.721569 0.145098 0.196078 0.721569 0.145098 
0.196078 0.721569 0.145098 0.196078 0.721569 0.145098 
0.196078 0.721569 0.145098 0.196078 0.721569 0.145098 
0.196078 0.721569 0.145098 0.196078 0.721569 0.145098 
0.196078 0.721569 0.145098 0.196078 0.721569 0.145098 
0.196078 0.721569 0.145098 0.196078 0.721569 0.145098 
0.196078 0.721569 0.145098 0.196078 0.721569 0.145098 
0.196078 0.721569 0.145098 0.196078 0.721569 0.145098 
0.196078 0.721569 0.145098 0.196078 0.721569 0.145098 
0.196078 0.721569 0.145098 0.196078 0.721569 0.145098 
0.196078 0.721569 0.145098 0.196078 0.721569 0.145098 
0.196078 0.721569 0.145098 0.196078 0.721569 0.145098 
0.196078 0.721569 0.145098 0.196078 0.721569 0.145098 
0.196078 0.721569 0.145098 0.196078 0.721569 0.145098 
0.196078 0.721569 0.145098 0.196078 0.721569 0.145098 
0.196078 0.721569 0.145098 0.196078 0.721569 0.145098 
0.196078 0.721569 0.145098 0.196078 0.721569 0.145098 
0.196078 0.721569 0.145098 0.196078 0.721569 0.145098 
0.196078 0.721569 0.145098 0.196078 0.721569 0.145098 
0.196078 0.721569 0.145098 0.196078 0.721569 0.145098 
0.196078 0.721569 0.145098 0.196078 0.721569 0.145098 
0.196078 0.721569 0.145098 0.196078 0.721569 0.145098 
0.196078 0.721569 0.145098 0.196078 0.721569 0.145098 
0.196078 0.721569 0.145098 0.196078 0.721569 0.145098 
0.196078 0.721569 0.145098 0.196078 0.721569 0.145098 
0.196078 0.721569 0.145098 0.196078 0.721569 0.145098 
0.196078 0.721569 0.145098 0.196078 0.721569 0.145098 
0.196078 0.721569 0.145098 0.196078 0.721569 0.145098 
0.196078 0.721569 0.145098 0.196078 0.721569 0.145098 
0.196078 0.721569 0.145098 0.196078 0.721569 0.145098 
0.196078 0.721569 0.145098 0.196078 0.721569 0.145098 
0.196078 0.721569 0.145098 0.196078 0.721569 0.145098 
0.196078 0.721569 0.145098 0.196078 0.721569 0.145098 
0.196078 0.721569 0.145098 0.196078 0.721569 0.145098 
0.196078 0.721569 0.145098 0.196078 0.721569 0.145098 
0.196078 0.721569 0.145098 0.196078 0.721569 0.145098 
0.196078 0.721569 0.145098 0.196078 0.721569 0.145098 
0.196078 0.721569 0.145098 0.196078 0.721569 0.145098 
0.196078 0.721569 0.145098 0.196078 0.721569 0.145098 
0.196078 0.721569 0.145098 0.196078 0.721569 0.145098 
0.196078 0.721569 0.145098 0.196078 0.721569 0.145098 
0.196078 0.721569 0.145098 0.196078 0.721569 0.145098 
0.196078 0.721569 0.145098 0.196078 0.721569 0.145098 
0.196078 0.721569 0.145098 0.196078 0.721569 0.145098 
0.196078 0.721569 0.145098 0.196078 0.721569 0.145098 
0.196078 0.721569 0.145098 0.196078 0.721569 0.145098 
0.196078 0.721569 0.145098 0.196078 0.721569 0.145098 
0.196078 0.721569 0.145098 0.196078 0.721569 0.145098 
0.196078 0.721569 0.145098 0.196078 0.721569 0.145098 
0.196078 0.721569 0.145098 0.196078 0.721569 0.145098 
0.196078 0.721569 0.145098 0.196078 0.721569 0.145098 
0.196078 0.721569 0.145098 0.196078 0.721569 0.145098 
0.196078 0.721569 0.145098 0.196078 0.721569 0.145098 
0.196078 0.721569 0.145098 0.196078 0.721569 0.145098 
0.196078 0.721569 0.145098 0.196078 0.721569 0.145098 
0.196078 0.721569 0.145098 0.196078 0.721569 0.145098 
0.196078 0.721569 0.145098 0.196078 0.721569 0.145098 
0.196078 0.721569 0.145098 0.196078 0.721569 0.145098 
0.196078 0.721569 0.145098 0.196078 0.721569 0.145098 
0.196078 0.721569 0.145098 0.196078 0.721569 0.145098 
0.196078 0.721569 0.145098 0.196078 0.721569 0.145098 
0.196078 0.721569 0.145098 0.196078 0.721569 0.145098 
0.196078 0.721569 0.145098 0.196078 0.721569 0.145098 
0.196078 0.721569 0.145098 0.196078 0.721569 0.145098 
0.196078 0.721569 0.145098 0.196078 0.721569 0.145098 
0.196078 0.721569 0.145098 0.196078 0.721569 0.145098 
0.196078 0.721569 0.145098 0.196078 0.721569 0.145098 
0.196078 0.721569 0.145098 0.196078 0.721569 0.145098 
0.196078 0.721569 0.145098 0.196078 0.721569 0.145098 
0.196078 0.721569 0.145098 0.196078 0.721569 0.145098 
0.196078 0.721569 0.145098 0.196078 0.721569 0.145098 
0.196078 0.721569 0.145098 0.196078 0.721569 0.145098 
0.196078 0.721569 0.145098 0.196078 0.721569 0.145098 
0.196078 0.721569 0.145098 0.196078 0.721569 0.145098 
0.196078 0.721569 0.145098 0.196078 0.721569 0.145098 
0.196078 0.721569 0.145098 0.196078 0.721569 0.145098 
0.196078 0.721569 0.145098 0.196078 0.721569 0.145098 
0.196078 0.721569 0.145098 0.196078 0.721569 0.145098 
0.196078 0.721569 0.145098 0.196078 0.721569 0.145098 
0.196078 0.721569 0.145098 0.196078 0.721569 0.145098 
0.196078 0.721569 0.145098 0.196078 0.721569 0.145098 
0.196078 0.721569 0.145098 0.196078 0.721569 0.145098 
0.196078 0.721569 0.145098 0.196078 0.721569 0.145098 
0.196078 0.721569 0.145098 0.196078 0.721569 0.145098 
0.196078 0.721569 0.145098 0.196078 0.721569 0.145098 
0.196078 0.721569 0.145098 0.196078 0.721569 0.145098 
0.196078 0.721569 0.145098 0.196078 0.721569 0.145098 
0.196078 0.721569 0.145098 0.196078 0.721569 0.145098 
0.196078 0.721569 0.145098 0.196078 0.721569 0.145098 
0.196078 0.721569 0.145098 0.196078 0.721569 0.145098 
0.196078 0.721569 0.145098 0.196078 0.721569 0.145098 
0.196078 0.721569 0.145098 0.196078 0.721569 0.145098 
0.196078 0.721569 0.145098 0.196078 0.721569 0.145098 
0.196078 0.721569 0.145098 0.196078 0.721569 0.145098 
0.196078 0.721569 0.145098 0.196078 0.721569 0.145098 
0.196078 0.721569 0.145098 0.196078 0.721569 0.145098 
0.196078 0.721569 0.145098 0.196078 0.721569 0.145098 
0.196078 0.721569 0.145098 0.196078 0.721569 0.145098 
0.196078 0.721569 0.145098 0.196078 0.721569 0.145098 
0.196078 0.721569 0.145098 0.196078 0.721569 0.145098 
0.196078 0.721569 0.145098 0.196078 0.721569 0.145098 
0.196078 0.721569 0.145098 0.196078 0.721569 0.145098 
0.196078 0.721569 0.145098 0.196078 0.721569 0.145098 
0.196078 0.721569 0.145098 0.196078 0.721569 0.145098 
0.196078 0.721569 0.145098 0.196078 0.721569 0.145098 
0.196078 0.721569 0.145098 0.196078 0.721569 0.145098 
0.196078 0.721569 0.145098 0.196078 0.721569 0.145098 
0.196078 0.721569 0.145098 0.196078 0.721569 0.145098 
0.196078 0.721569 0.145098 0.196078 0.721569 0.145098 
0.196078 0.721569 0.145098 0.196078 0.721569 0.145098 
0.196078 0.721569 0.145098 0.196078 0.721569 0.145098 
0.196078 0.721569 0.145098 0.196078 0.721569 0.145098 
0.196078 0.721569 0.145098 0.196078 0.721569 0.145098 
0.196078 0.721569 0.145098 0.196078 0.721569 0.145098 
0.196078 0.721569 0.145098 0.196078 0.721569 0.145098 
0.196078 0.721569 0.145098 0.196078 0.721569 0.145098 
0.196078 0.721569 0.145098 0.196078 0.721569 0.145098 
0.196078 0.721569 0.145098 0.196078 0.721569 0.145098 
0.196078 0.721569 0.145098 0.196078 0.721569 0.145098 
0.196078 0.721569 0.145098 0.196078 0.721569 0.145098 
0.196078 0.721569 0.145098 0.196078 0.721569 0.145098 
0.196078 0.721569 0.145098 0.196078 0.721569 0.145098 
0.196078 0.721569 0.145098 0.196078 0.721569 0.145098 
0.196078 0.721569 0.145098 0.196078 0.721569 0.145098 
0.196078 0.721569 0.145098 0.196078 0.721569 0.145098 
0.196078 0.721569 0.145098 0.196078 0.721569 0.145098 
0.196078 0.721569 0.145098 0.196078 0.721569 0.145098 
0.196078 0.721569 0.145098 0.196078 0.721569 0.145098 
0.196078 0.721569 0.145098 0.196078 0.721569 0.145098 
0.196078 0.721569 0.145098 0.196078 0.721569 0.145098 
0.196078 0.721569 0.145098 0.196078 0.721569 0.145098 
0.196078 0.721569 0.145098 0.196078 0.721569 0.145098 
0.196078 0.721569 0.145098 0.196078 0.721569 0.145098 
0.196078 0.721569 0.145098 0.196078 0.721569 0.145098 
0.196078 0.721569 0.145098 0.196078 0.721569 0.145098 
0.196078 0.721569 0.145098 0.196078 0.721569 0.145098 
0.196078 0.721569 0.145098 0.196078 0.721569 0.145098 
0.196078 0.721569 0.145098 0.196078 0.721569 0.145098 
0.196078 0.721569 0.145098 0.196078 0.721569 0.145098 
0.196078 0.721569 0.145098 0.196078 0.721569 0.145098 
0.196078 0.721569 0.145098 0.196078 0.721569 0.145098 
0.196078 0.721569 0.145098 0.196078 0.721569 0.145098 
0.196078 0.721569 0.145098 0.196078 0.721569 0.145098 
0.196078 0.721569 0.145098 0.196078 0.721569 0.145098 
0.196078 0.721569 0.145098 0.196078 0.721569 0.145098 
0.196078 0.721569 0.145098 0.196078 0.721569 0.145098 
0.196078 0.721569 0.145098 0.196078 0.721569 0.145098 
0.196078 0.721569 0.145098 0.196078 0.721569 0.145098 
0.196078 0.721569 0.145098 0.196078 0.721569 0.145098 
0.196078 0.721569 0.145098 0.196078 0.721569 0.145098 
0.196078 0.721569 0.145098 0.196078 0.721569 0.145098 
0.196078 0.721569 0.145098 0.196078 0.721569 0.145098 
0.196078 0.721569 0.145098 0.196078 0.721569 0.145098 
0.196078 0.721569 0.145098 0.196078 0.721569 0.145098 
0.196078 0.721569 0.145098 0.196078 0.721569 0.145098 
0.196078 0.721569 0.145098 0.196078 0.721569 0.145098 
0.196078 0.721569 0.145098 0.196078 0.721569 0.145098 
0.196078 0.721569 0.145098 0.196078 0.721569 0.145098 
0.196078 0.721569 0.145098 0.196078 0.721569 0.145098 
0.196078 0.721569 0.145098 0.196078 0.721569 0.145098 
0.196078 0.721569 0.145098 0.196078 0.721569 0.145098 
0.196078 0.721569 0.145098 0.196078 0.721569 0.145098 
0.196078 0.721569 0.145098 0.196078 0.721569 0.145098 
0.196078 0.721569 0.145098 0.196078 0.721569 0.145098 
0.196078 0.721569 0.145098 0.196078 0.721569 0.145098 
0.196078 0.721569 0.145098 0.196078 0.721569 0.145098 
0.196078 0.721569 0.145098 0.196078 0.721569 0.145098 
0.196078 0.721569 0.145098 0.196078 0.721569 0.145098 
0.196078 0.721569 0.145098 0.196078 0.721569 0.145098 
0.196078 0.721569 0.145098 0.196078 0.721569 0.145098 
0.196078 0.721569 0.145098 0.196078 0.721569 0.145098 
0.196078 0.721569 0.145098 0.196078 0.721569 0.145098 
0.196078 0.721569 0.145098 0.196078 0.721569 0.145098 
0.196078 0.721569 0.145098 0.196078 0.721569 0.145098 
0.196078 0.721569 0.145098 0.196078 0.721569 0.145098 
0.196078 0.721569 0.145098 0.196078 0.721569 0.145098 
0.196078 0.721569 0.145098 0.196078 0.721569 0.145098 
0.196078 0.721569 0.145098 0.196078 0.721569 0.145098 
0.196078 0.721569 0.145098 0.196078 0.721569 0.145098 
0.196078 0.721569 0.145098 0.196078 0.721569 0.145098 
0.196078 0.721569 0.145098 0.196078 0.721569 0.145098 
0.196078 0.721569 0.145098 0.196078 0.721569 0.145098 
0.196078 0.721569 0.145098 0.196078 0.721569 0.145098 
0.196078 0.721569 0.145098 0.196078 0.721569 0.145098 
0.196078 0.721569 0.145098 0.196078 0.721569 0.145098 
0.196078 0.721569 0.145098 0.196078 0.721569 0.145098 
0.196078 0.721569 0.145098 0.196078 0.721569 0.145098 
0.196078 0.721569 0.145098 0.196078 0.721569 0.145098 
0.196078 0.721569 0.145098 0.196078 0.721569 0.145098 
0.196078 0.721569 0.145098 0.196078 0.721569 0.145098 
0.196078 0.721569 0.145098 0.196078 0.721569 0.145098 