# vtk DataFile Version 4.2
vtk output
ASCII
DATASET POLYDATA
POINTS 2494 float
398.414 149.882 59.5578 397.796 151.925 59.5561 398.701 151.37 59.4375 
397.516 158.916 59.3187 398.057 159.893 59.2255 398.316 160.436 59.2768 
397.323 161.563 59.3282 398.342 161.379 59.3425 397.16 165.645 59.3705 
397.604 165.31 59.3681 397.067 168.325 59.48 396.862 168.741 59.5203 
395.983 173.195 59.7172 398.494 143.317 60.5279 397.683 149.173 59.998 
399.148 150.167 59.6086 397.301 152.723 59.7835 396.925 155.722 60.0167 
397.211 158.447 59.5253 398.83 161.534 59.5747 396.356 166.237 59.6499 
396.28 166.91 59.6714 396.093 166.469 59.8526 396.929 169.637 59.6393 
397.258 171.617 59.9594 396.716 172.637 59.811 394.898 175.995 60.5305 
394.956 179.236 60.649 394.097 182.312 60.8684 394.053 181.779 60.9074 
394.287 182.717 60.9408 393.834 183.341 60.9733 398.437 138.394 61.4821 
397.489 146.297 60.6743 399.616 145.577 60.4639 397.389 148.35 60.4131 
397.153 149.875 60.3416 396.869 150.903 60.6262 400.001 152.041 60.035 
395.816 166.341 60.2622 398.779 166.898 60.2102 395.149 171.096 60.7619 
398.35 170.492 60.6036 394.612 175.325 60.866 396.315 178.542 61.0894 
395.702 179.357 60.9084 394.403 183.854 61.2346 393.145 184.182 61.4228 
393.716 185.741 61.5489 392.563 187.285 61.9767 398.882 133.142 62.5142 
398.584 134.812 62.2721 398.07 136.241 62.2566 398.533 137.233 61.8082 
399.112 137.002 61.8172 397.761 138.348 61.9437 399.548 137.69 61.7562 
399.361 140.119 61.258 399.844 140.143 61.4195 400.243 140.466 61.6009 
396.92 144.901 61.7458 397.088 147.621 60.9405 396.037 160.103 61.4603 
395.909 161.328 61.3568 400.032 163.147 60.9145 395.435 166.148 61.348 
394.606 173.695 61.256 394.111 176.246 61.6521 394.253 176.788 61.1885 
396.614 178.815 61.4716 393.561 180.472 61.4339 396.25 180.58 61.8473 
394.894 183.381 61.4432 392.308 186.885 62.1283 392.319 187.735 62.169 
392.314 188.584 62.2878 392.043 188.172 62.3984 392.628 189.919 62.5566 
391.684 190.65 62.8109 391.879 191.071 62.8131 391.887 191.625 62.9924 
398.532 129.35 63.5022 398.719 128.983 63.588 398.389 131.656 63.0374 
399.088 132.687 62.6674 399.675 133.742 62.5725 397.614 135.267 62.8328 
399.38 135.499 62.1133 397.384 138.435 62.3613 400.539 138.687 62.0996 
397.057 139.364 62.6927 400.776 140.84 61.9414 396.46 150.426 61.8302 
396.265 153.458 62.1436 395.789 161.434 61.9178 395.663 162.51 62.0193 
395.671 162.969 61.4625 395.511 164.437 61.8479 400.515 164.655 61.8961 
397.319 178.911 62.4534 392.442 184.532 62.2946 392.154 186.227 62.3527 
392.911 190.096 62.7284 390.953 191.854 63.498 391.159 192.336 63.3847 
391.583 192.317 63.2616 390.751 193.453 63.7951 391.545 193.283 63.5814 
390.968 193.803 63.7476 390.999 194.255 63.8917 398.352 122.586 64.9596 
398.144 127.078 64.3291 398.632 128.107 63.8852 399.252 127.83 63.9447 
399.971 130.179 63.5643 397.27 135.688 63.1928 400.93 135.352 62.9871 
396.956 136.847 63.6414 402.039 147.12 62.5244 396.307 152.018 63.1046 
395.735 161.98 62.5028 394.306 174.251 63.6495 393.123 179.908 62.8173 
391.517 187.375 63.2153 390.411 194.651 64.2375 391.582 193.99 63.9367 
389.821 196.831 64.8885 389.933 197.116 64.8772 389.756 197.378 65.0539 
389.963 197.391 64.9971 356.473 233.368 66.1727 356.49 233.369 66.2627 
356.491 233.382 66.2525 356.507 233.365 66.2722 356.508 233.378 66.262 
398.524 120.267 65.5778 399.133 122.857 64.8892 400.223 128.215 64.1895 
397.363 130.373 64.2681 396.855 135.046 64.4151 396.359 147.113 63.3036 
394.386 174.271 64.2818 393.211 179.176 64.0189 390.066 193.872 64.4551 
390.276 195.632 64.5998 390.794 196.007 64.7902 390.429 196.664 64.9097 
389.871 197.691 65.1655 389.665 197.863 65.301 389.101 199.324 65.8743 
389.055 199.53 65.9623 389.186 199.485 65.9501 389.096 199.706 66.0711 
356.563 233.354 66.5163 356.543 233.403 66.5312 356.625 233.383 66.5685 
356.564 233.417 66.4578 397.97 119.295 66.1469 397.361 125.202 65.4856 
397.353 126.329 65.2774 397.088 127.306 65.5808 396.706 136.178 65.0754 
396.448 141.542 64.7209 396.46 143.966 64.9086 396.464 151.312 64.2414 
391.686 195.612 65.2333 389.357 198.406 65.7091 389.809 198.789 65.9515 
389.424 199.324 66.0522 389.071 199.965 66.345 356.757 233.281 67.0574 
356.902 233.42 67.1074 356.757 233.596 67.1314 398.858 113.251 67.6594 
400.773 122.874 65.8305 397.102 124.843 66.0604 396.7 133.357 66.1687 
396.712 137.301 65.9738 403.874 138.031 65.8138 396.542 142.523 65.4962 
402.099 167.016 65.8649 394.69 174.358 65.6876 399.125 178.405 65.6412 
393.475 178.959 65.6797 393.818 192.53 65.9084 388.621 200.391 66.8743 
388.011 202.984 67.7869 387.967 202.531 67.7581 387.809 203.876 68.0142 
388.046 203.798 68.0409 356.684 233.264 67.5519 357.169 233.448 67.4606 
356.615 233.616 68.0095 357.11 233.726 67.5705 357.386 233.552 67.6935 
398.564 111.794 68.2593 398.782 111.642 68.3301 397.183 118.877 67.2298 
397.007 118.888 67.7088 396.895 123.911 67.2077 396.87 124.956 67.2444 
396.839 128.073 67.1131 403.818 131.925 66.8336 396.672 133.277 66.7871 
388.106 197.36 67.5165 388.229 200.528 67.2824 387.71 201.054 67.8772 
388.171 201.754 67.6396 388.649 201.067 67.2587 388.768 202.154 67.8489 
387.272 204.325 68.3652 387.328 204.999 68.5431 387.568 205.366 68.6689 
387.368 205.618 68.7377 387.052 206.083 68.9576 387.257 206.034 68.9277 
387.112 206.35 69.1064 357.756 233.478 68.0579 357.964 233.819 68.3262 
357.76 234.235 68.488 356.808 234.328 68.6678 398.485 110.598 69.0828 
398.752 110.775 68.9086 398.956 111.248 68.6107 399.163 112.317 68.1081 
397.401 114.29 68.25 402.062 121.808 67.3548 396.876 133.103 67.7605 
397.929 159.828 68.349 401.175 174.186 67.7936 395.548 174.201 68.4502 
399.167 180.15 67.4153 387.331 201.633 68.3099 358.636 233.152 68.9185 
357.059 234.733 69.0363 398.872 109.288 70.0709 399.472 109.02 70.2442 
398.407 109.497 70.1221 399.417 109.926 69.603 399.619 109.403 69.9903 
399.81 110.365 69.5009 397.257 112.022 69.5814 400.575 111.655 69.3716 
401.663 115.604 68.8473 396.78 118.964 69.2133 389.751 191.154 68.8723 
389.993 201.555 68.7162 386.001 209.66 70.8893 385.946 209.26 70.8617 
386.205 209.312 70.8547 385.716 210.202 71.1786 385.876 210.379 71.1535 
386.053 210.284 71.1395 385.939 210.588 71.31 357.137 232.086 69.6198 
356.594 232.693 69.6491 398.81 108.744 70.6138 400.923 110.942 70.026 
398.907 146.803 70.2758 386.362 202.631 70.0409 385.756 205.924 70.6226 
386.144 207.334 70.3414 385.654 207.861 70.9537 387.612 207.102 70.2764 
386.112 208.512 70.7226 386.572 207.832 70.3401 386.65 208.833 70.9183 
385.553 211.077 71.8277 357.627 231.629 70.4941 361.591 233.219 70.9578 
362.092 233.63 71.2675 356.123 234.566 71.0453 361.199 234.678 71.0216 
356.776 236.398 71.5814 399.202 108.061 71.2109 398.263 108.403 71.3951 
397.887 108.932 71.3338 401.298 108.92 71.5026 396.914 112.056 71.0257 
406.205 133.298 71.5608 406.303 140.36 71.5136 404.496 161.097 71.568 
399.263 181.987 70.3913 385.175 207.29 71.6776 385.25 211.766 72.3749 
385.786 211.59 72.3121 385.492 212.057 72.5254 385.09 212.809 72.9711 
357.278 231.517 71.3647 357.495 231.334 71.733 356.599 232.327 71.1162 
358.338 231.508 70.6775 360.989 232.358 71.0269 363.359 233.831 72.1388 
356.094 235.999 72.459 357.724 236.625 71.2516 400.867 107.919 71.8995 
401.976 109.404 71.9219 396.781 114.049 71.979 403.957 115.39 71.9122 
397.255 119.944 72.3368 405.978 129.063 71.5809 399.546 149.491 72.5238 
386.014 212.055 73.0302 385.343 212.993 73.2368 357.795 231.197 71.8841 
357.66 231.264 72.3251 358.195 231.152 71.8242 358.984 231.125 72.0006 
361.317 235.992 72.1836 356.285 237.563 73.725 399.865 106.224 73.152 
400.827 105.508 74.0377 397.366 108.463 73.2542 397.169 109.053 72.8278 
397.081 109.918 72.6235 406.348 127.557 73.3066 389.306 205.488 72.3506 
384.11 211.751 73.446 385.765 212.804 73.4871 384.189 213.328 73.6874 
384.538 214.102 73.8749 384.05 215.034 74.2948 384.875 214.697 74.3693 
383.728 216.543 74.8361 383.829 216.897 75.0519 357.687 231.34 73.0486 
358.923 230.956 72.5628 358.888 230.926 72.978 355.908 235.75 73.4585 
356.017 237.092 74.0879 359.588 237.661 73.1649 356.537 238.201 74.0207 
356.703 238.656 74.467 400.394 104.823 74.7389 401.314 105.545 74.235 
401.543 105.967 74.0196 405.062 114.588 74.5042 406.677 133.763 74.1685 
384.008 209.491 74.2451 388.284 208.571 74.3698 386.025 212.879 74.0335 
383.2 215.799 74.8592 385.035 215.119 74.8674 383.092 216.388 75.0136 
382.806 216.675 75.3143 382.775 217.457 75.4927 384.138 216.814 75.2305 
383.736 217.573 75.4931 383.434 218.072 75.6 383.008 218.417 75.6724 
383.048 218.749 75.8506 358.062 231.257 73.6149 358.933 230.959 73.5798 
356.719 232.522 73.4345 365.155 232.276 73.777 365.898 232.556 74.1355 
366.755 233.221 74.668 355.941 235.239 73.8903 365.942 234.634 74.6195 
400.613 104.01 75.8876 399.767 104.621 75.2535 402.912 107.296 74.6824 
397.084 110.799 75.374 399.491 129.659 75.3875 386.729 212.082 74.8261 
385.578 214.556 75.2481 384.602 216.355 75.4164 382.418 218.703 76.0238 
383.238 218.816 76.0081 381.911 221.056 76.8654 363.055 230.698 75.4068 
365.838 231.132 75.2532 368.154 231.959 75.7596 367.271 232.751 75.0551 
369.29 232.531 76.3951 368.794 233.225 76.1452 367.815 233.965 75.7715 
355.975 237.539 75.5652 356.321 239.561 76.5994 398.388 105.468 76.106 
398.385 119.351 75.8537 399.186 124.402 75.8353 406.766 134.978 76.0233 
399.977 180.851 76.2788 385.227 204.405 75.9166 382.033 218.466 76.2535 
383.38 219.207 76.5773 382.751 219.94 76.7023 380.827 222.684 77.6594 
380.834 222.332 77.5986 380.469 223.232 78.0106 380.909 222.86 77.7658 
365.456 230.541 76.1814 367.527 231.229 75.923 369.096 231.733 76.4534 
357.406 232.754 75.489 356.313 234.739 75.1858 369.386 233.304 76.679 
356.177 239.688 77.3673 356.586 240.156 76.8752 356.775 240.571 77.3211 
401.648 103.447 77.1912 402.437 104.524 76.5516 406.722 126.011 76.9858 
404.006 163.539 76.3644 396.359 173.277 76.5063 385.722 203.226 76.6246 
381.713 215.316 77.6691 381.311 218.569 77.1115 384.016 219.174 77.6482 
[...]
POINT_DATA 2494
COLOR_SCALARS scalars 3
0.196078 0.721569 0.145098 0.196078 0.721569 0.145098 0.196078 0.721569 0.145098 
0.196078 0.721569 0.145098 0.196078 0.721569 0.145098 
0.196078 0.721569 0.145098 0.196078 0.721569 0.145098 
0.196078 0.721569 0.145098 0.196078 0.721569 0.145098 
0.196078 0.721569 0.145098 0.196078 0.721569 0.145098 
0.196078 0.721569 0.145098 0.196078 0.721569 0.145098 
0.196078 0.721569 0.145098 0.196078 0.721569 0.145098 
0.196078 0.721569 0.145098 0.196078 0.721569 0.145098 
0.196078 0.721569 0.145098 0.196078 0.721569 0.145098 
0.196078 0.721569 0.145098 0.196078 0.721569 0.145098 
0.196078 0.721569 0.145098 0.196078 0.721569 0.145098 
0.196078 0.721569 0.145098 0.196078 0.721569 0.145098 
0.196078 0.721569 0.145098 0.196078 0.721569 0.145098 
0.196078 0.721569 0.145098 0.196078 0.721569 0.145098 
0.196078 0.721569 0.145098 0.196078 0.721569 0.145098 
0.196078 0.721569 0.145098 0.196078 0.721569 0.145098 
0.196078 0.721569 0.145098 0.196078 0.721569 0.145098 
0.196078 0.721569 0.145098 0.196078 0.721569 0.145098 
0.196078 0.721569 0.145098 0.196078 0.721569 0.145098 
0.196078 0.721569 0.145098 0.196078 0.721569 0.145098 
0.196078 0.721569 0.145098 0.196078 0.721569 0.145098 
0.196078 0.721569 0.145098 0.196078 0.721569 0.145098 
0.196078 0.721569 0.145098 0.196078 0.721569 0.145098 
0.196078 0.721569 0.145098 0.196078 0.721569 0.145098 
0.196078 0.721569 0.145098 0.196078 0.721569 0.145098 
0.196078 0.721569 0.145098 0.196078 0.721569 0.145098 
0.196078 0.721569 0.145098 0.196078 0.721569 0.145098 
0.196078 0.721569 0.145098 0.196078 0.721569 0.145098 
0.196078 0.721569 0.145098 0.196078 0.721569 0.145098 
0.196078 0.721569 0.145098 0.196078 0.721569 0.145098 
0.196078 0.721569 0.145098 0.196078 0.721569 0.145098 
0.196078 0.721569 0.145098 0.196078 0.721569 0.145098 
0.196078 0.721569 0.145098 0.196078 0.721569 0.145098 
0.196078 0.721569 0.145098 0.196078 0.721569 0.145098 
0.196078 0.721569 0.145098 0.196078 0.721569 0.145098 
0.196078 0.721569 0.145098 0.196078 0.721569 0.145098 
0.196078 0.721569 0.145098 0.196078 0.721569 0.145098 
0.196078 0.721569 0.145098 0.196078 0.721569 0.145098 
0.196078 0.721569 0.145098 0.196078 0.721569 0.145098 
0.196078 0.721569 0.145098 0.196078 0.721569 0.145098 
0.196078 0.721569 0.145098 0.196078 0.721569 0.145098 
0.196078 0.721569 0.145098 0.196078 0.721569 0.145098 
0.196078 0.721569 0.145098 0.196078 0.721569 0.145098 
0.196078 0.721569 0.145098 0.196078 0.721569 0.145098 
0.196078 0.721569 0.145098 0.196078 0.721569 0.145098 
0.196078 0.721569 0.145098 0.196078 0.721569 0.145098 
0.196078 0.721569 0.145098 0.196078 0.721569 0.145098 
0.196078 0.721569 0.145098 0.196078 0.721569 0.145098 
0.196078 0.721569 0.145098 0.196078 0.721569 0.145098 
0.196078 0.721569 0.145098 0.196078 0.721569 0.145098 
0.196078 0.721569 0.145098 0.196078 0.721569 0.145098 
0.196078 0.721569 0.145098 0.196078 0.721569 0.145098 
0.196078 0.721569 0.145098 0.196078 0.721569 0.145098 
0.196078 0.721569 0.145098 0.196078 0.721569 0.145098 
0.196078 0.721569 0.145098 0.196078 0.721569 0.145098 
0.196078 0.721569 0.145098 0.196078 0.721569 0.145098 
0.196078 0.721569 0.145098 0.196078 0.721569 0.145098 
0.196078 0.721569 0.145098 0.196078 0.721569 0.145098 
0.196078 0.721569 0.145098 0.196078 0.721569 0.145098 
0.196078 0.721569 0.145098 0.196078 0.721569 0.145098 
0.196078 0.721569 0.145098 0.196078 0.721569 0.145098 
0.196078 0.721569 0.145098 0.196078 0.721569 0.145098 
0.196078 0.721569 0.145098 0.196078 0.721569 0.145098 
0.196078 0.721569 0.145098 0.196078 0.721569 0.145098 
0.196078 0.721569 0.145098 0.196078 0.721569 0.145098 
0.196078 0.721569 0.145098 0.196078 0.721569 0.145098 
0.196078 0.721569 0.145098 0.196078 0.721569 0.145098 
0.196078 0.721569 0.145098 0.196078 0.721569 0.145098 
0.196078 0.721569 0.145098 0.196078 0.721569 0.145098 
0.196078 0.721569 0.145098 0.196078 0.721569 0.145098 
0.196078 0.721569 0.145098 0.196078 0.721569 0.145098 
0.196078 0.721569 0.145098 0.196078 0.721569 0.145098 
0.196078 0.721569 0.145098 0.196078 0.721569 0.145098 
0.196078 0.721569 0.145098 0.196078 0.721569 0.145098 
0.196078 0.721569 0.145098 0.196078 0.721569 0.145098 
0.196078 0.721569 0.145098 0.196078 0.721569 0.145098 
0.196078 0.721569 0.145098 0.196078 0.721569 0.145098 
0.196078 0.721569 0.145098 0.196078 0.721569 0.145098 
0.196078 0.721569 0.145098 0.196078 0.721569 0.145098 
0.196078 0.721569 0.145098 0.196078 0.721569 0.145098 
0.196078 0.721569 0.145098 0.196078 0.721569 0.145098 
0.196078 0.721569 0.145098 0.196078 0.721569 0.145098 
0.196078 0.721569 0.145098 0.196078 0.721569 0.145098 
0.196078 0.721569 0.145098 0.196078 0.721569 0.145098 
0.196078 0.721569 0.145098 0.196078 0.721569 0.145098 
0.196078 0.721569 0.145098 0.196078 0.721569 0.145098 
0.196078 0.721569 0.145098 0.196078 0.721569 0.145098 
0.196078 0.721569 0.145098 0.196078 0.721569 0.145098 
0.196078 0.721569 0.145098 0.196078 0.721569 0.145098 
0.196078 0.721569 0.145098 0.196078 0.721569 0.145098 
0.196078 0.721569 0.145098 0.196078 0.721569 0.145098 
0.196078 0.721569 0.145098 0.196078 0.721569 0.145098 
0.196078 0.721569 0.145098 0.196078 0.721569 0.145098 
0.196078 0.721569 0.145098 0.196078 0.721569 0.145098 
0.196078 0.721569 0.145098 0.196078 0.721569 0.145098 
0.196078 0.721569 0.145098 0.196078 0.721569 0.145098 
0.196078 0.721569 0.145098 0.196078 0.721569 0.145098 
0.196078 0.721569 0.145098 0.196078 0.721569 0.145098 
0.196078 0.721569 0.145098 0.196078 0.721569 0.145098 
0.196078 0.721569 0.145098 0.196078 0.721569 0.145098 
0.196078 0.721569 0.145098 0.196078 0.721569 0.145098 
0.196078 0.721569 0.145098 0.196078 0.721569 0.145098 
0.196078 0.721569 0.145098 0.196078 0.721569 0.145098 
0.196078 0.721569 0.145098 0.196078 0.721569 0.145098 
0.196078 0.721569 0.145098 0.196078 0.721569 0.145098 
0.196078 0.721569 0.145098 0.196078 0.721569 0.145098 
0.196078 0.721569 0.145098 0.196078 0.721569 0.145098 
0.196078 0.721569 0.145098 0.196078 0.721569 0.145098 
0.196078 0.721569 0.145098 0.196078 0.721569 0.145098 
0.196078 0.721569 0.145098 0.196078 0.721569 0.145098 
0.196078 0.721569 0.145098 0.196078 0.721569 0.145098 
0.196078 0.721569 0.145098 0.196078 0.721569 0.145098 
0.196078 0.721569 0.145098 0.196078 0.721569 0.145098 
0.196078 0.721569 0.145098 0.196078 0.721569 0.145098 
0.196078 0.721569 0.145098 0.196078 0.721569 0.145098 
0.196078 0.721569 0.145098 0.196078 0.721569 0.145098 
0.196078 0.721569 0.145098 0.196078 0.721569 0.145098 
0.196078 0.721569 0.145098 0.196078 0.721569 0.145098 
0.196078 0.721569 0.145098 0.196078 0.721569 0.145098 
0.196078 0.721569 0.145098 0.196078 0.721569 0.145098 
0.196078 0.721569 0.145098 0.196078 0.721569 0.145098 
0.196078 0.721569 0.145098 0.196078 0.721569 0.145098 
0.196078 0.721569 0.145098 0.196078 0.721569 0.145098 
0.196078 0.721569 0.145098 0.196078 0.721569 0.145098 
0.196078 0.721569 0.145098 0.196078 0.721569 0.145098 
0.196078 0.721569 0.145098 0.196078 0.721569 0.145098 
0.196078 0.721569 0.145098 0.196078 0.721569 0.145098 
0.196078 0.721569 0.145098 0.196078 0.721569 0.145098 
0.196078 0.721569 0.145098 0.196078 0.721569 0.145098 
0.196078 0.721569 0.145098 0.196078 0.721569 0.145098 
0.196078 0.721569 0.145098 0.196078 0.721569 0.145098 
0.196078 0.721569 0.145098 0.196078 0.721569 0.145098 
0.196078 0.721569 0.145098 0.196078 0.721569 0.145098 
0.196078 0.721569 0.145098 0.196078 0.721569 0.145098 
0.196078 0.721569 0.145098 0.196078 0.721569 0.145098 
0.196078 0.721569 0.145098 0.196078 0.721569 0.145098 
0.196078 0.721569 0.145098 0.196078 0.721569 0.145098 
0.196078 0.721569 0.145098 0.196078 0.721569 0.145098 
0.196078 0.721569 0.145098 0.196078 0.721569 0.145098 
0.196078 0.721569 0.145098 0.196078 0.721569 0.145098 
0.196078 0.721569 0.145098 0.196078 0.721569 0.145098 
0.196078 0.721569 0.145098 0.196078 0.721569 0.145098 
0.196078 0.721569 0.145098 0.196078 0.721569 0.145098 
0.196078 0.721569 0.145098 0.196078 0.721569 0.145098 
0.196078 0.721569 0.145098 0.196078 0.721569 0.145098 
0.196078 0.721569 0.145098 0.196078 0.721569 0.145098 
0.196078 0.721569 0.145098 0.196078 0.721569 0.145098 
0.196078 0.721569 0.145098 0.196078 0.721569 0.145098 
0.196078 0.721569 0.145098 0.196078 0.721569 0.145098 
0.196078 0.721569 0.145098 0.196078 0.721569 0.145098 
0.196078 0.721569 0.145098 0.196078 0.721569 0.145098 
0.196078 0.721569 0.145098 0.196078 0.721569 0.145098 
0.196078 0.721569 0.145098 0.196078 0.721569 0.145098 
0.196078 0.721569 0.145098 0.196078 0.721569 0.145098 
0.196078 0.721569 0.145098 0.196078 0.721569 0.145098 
0.196078 0.721569 0.145098 0.196078 0.721569 0.145098 
0.196078 0.721569 0.145098 0.196078 0.721569 0.145098 
0.196078 0.721569 0.145098 0.196078 0.721569 0.145098 
0.196078 0.721569 0.145098 0.196078 0.721569 0.145098 
0.196078 0.721569 0.145098 0.196078 0.721569 0.145098 
0.196078 0.721569 0.145098 0.196078 0.721569 0.145098 
0.196078 0.721569 0.145098 0.196078 0.721569 0.145098 
0.196078 0.721569 0.145098 0.196078 0.721569 0.145098 
0.196078 0.721569 0.145098 0.196078 0.721569 0.145098 
0.196078 0.721569 0.145098 0.196078 0.721569 0.145098 
0.196078 0.721569 0.145098 0.196078 0.721569 0.145098 
0.196078 0.721569 0.145098 0.196078 0.721569 0.145098 
0.196078 0.721569 0.145098 0.196078 0.721569 0.145098 
0.196078 0.721569 0.145098 0.196078 0.721569 0.145098 
0.196078 0.721569 0.145098 0.196078 0.721569 0.145098 
0.196078 0.721569 0.145098 0.196078 0.721569 0.145098 
0.196078 0.721569 0.145098 0.196078 0.721569 0.145098 
0.196078 0.721569 0.145098 0.196078 0.721569 0.145098 
0.196078 0.721569 0.145098 0.196078 0.721569 0.145098 
0.196078 0.721569 0.145098 0.196078 0.721569 0.145098 
0.196078 0.721569 0.145098 0.196078 0.721569 0.145098 
0.196078 0.721569 0.145098 0.196078 0.721569 0.145098 
0.196078 0.721569 0.145098 0.196078 0.721569 0.145098 
0.196078 0.721569 0.145098 0.196078 0.721569 0.145098 
0.196078 0.721569 0.145098 0.196078 0.721569 0.145098 
0.196078 0.721569 0.145098 0.196078 0.721569 0.145098 
0.196078 0.721569 0.145098 0.196078 0.721569 0.145098 
0.196078 0.721569 0.145098 0.196078 0.721569 0.145098 
0.196078 0.721569 0.145098 0.196078 0.721569 0.145098 
0.196078 0.721569 0.145098 0.196078 0.721569 0.145098 
0.196078 0.721569 0.145098 0.196078 0.721569 0.145098 
0.196078 0.721569 0.145098 0.196078 0.721569 0.145098 
0.196078 0.721569 0.145098 0.196078 0.721569 0.145098 
0.196078 0.721569 0.145098 0.196078 0.721569 0.145098 
0.196078 0.721569 0.145098 0.196078 0.721569 0.145098 
0.196078 0.721569 0.145098 0.196078 0.721569 0.145098 
0.196078 0.721569 0.145098 0.196078 0.721569 0.145098 
0.196078 0.721569 0.145098 0.196078 0.721569 0.145098 
0.196078 0.721569 0.145098 0.196078 0.721569 0.145098 
0.196078 0.721569 0.145098 0.196078 0.721569 0.145098 
0.196078 0.721569 0.145098 0.196078 0.721569 0.145098 
0.196078 0.721569 0.145098 0.196078 0.721569 0.145098 
0.196078 0.721569 0.145098 0.196078 0.721569 0.145098 
0.196078 0.721569 0.145098 0.196078 0.721569 0.145098 
0.196078 0.721569 0.145098 0.196078 0.721569 0.145098 
0.196078 0.721569 0.145098 0.196078 0.721569 0.145098 
0.196078 0.721569 0.145098 0.196078 0.721569 0.145098 
0.196078 0.721569 0.145098 0.196078 0.721569 0.145098 
0.196078 0.721569 0.145098 0.196078 0.721569 0.145098 
0.196078 0.721569 0.145098 0.196078 0.721569 0.145098 
0.196078 0.721569 0.145098 0.196078 0.721569 0.145098 
0.196078 0.721569 0.145098 0.196078 0.721569 0.145098 
0.196078 0.721569 0.145098 0.196078 0.721569 0.145098 
0.196078 0.721569 0.145098 0.196078 0.721569 0.145098 
0.196078 0.721569 0.145098 0.196078 0.721569 0.145098 
0.196078 0.721569 0.145098 0.196078 0.721569 0.145098 
0.196078 0.721569 0.145098 0.196078 0.721569 0.145098 
0.196078 0.721569 0.145098 0.196078 0.721569 0.145098 
0.196078 0.721569 0.145098 0.196078 0.721569 0.145098 
0.196078 0.721569 0.145098 0.196078 0.721569 0.145098 
0.196078 0.721569 0.145098 0.196078 0.721569 0.145098 
0.196078 0.721569 0.145098 0.196078 0.721569 0.145098 
0.196078 0.721569 0.145098 0.196078 0.721569 0.145098 
0.196078 0.721569 0.145098 0.196078 0.721569 0.145098 
0.196078 0.721569 0.145098 0.196078 0.721569 0.145098 
0.196078 0.721569 0.145098 0.196078 0.721569 0.145098 
0.196078 0.721569 0.145098 0.196078 0.721569 0.145098 
0.196078 0.721569 0.145098 0.196078 0.721569 0.145098 
0.196078 0.721569 0.145098 0.196078 0.721569 0.145098 
0.196078 0.721569 0.145098 0.196078 0.721569 0.145098 
0.196078 0.721569 0.145098 0.196078 0.721569 0.145098 
0.196078 0.721569 0.145098 0.196078 0.721569 0.145098 
0.196078 0.721569 0.145098 0.196078 0.721569 0.145098 
0.196078 0.721569 0.145098 0.196078 0.721569 0.145098 
0.196078 0.721569 0.145098 0.196078 0.721569 0.145098 
0.196078 0.721569 0.145098 0.196078 0.721569 0.145098 
0.196078 0.721569 0.145098 0.196078 0.721569 0.145098 
0.196078 0.721569 0.145098 0.196078 0.721569 0.145098 
0.196078 0.721569 0.145098 0.196078 0.721569 0.145098 
0.196078 0.721569 0.145098 0.196078 0.721569 0.145098 
0.196078 0.721569 0.145098 0.196078 0.721569 0.145098 
0.196078 0.721569 0.145098 0.196078 0.721569 0.145098 
0.196078 0.721569 0.145098 0.196078 0.721569 0.145098 
0.196078 0.721569 0.145098 0.196078 0.721569 0.145098 
0.196078 0.721569 0.145098 0.196078 0.721569 0.145098 
0.196078 0.721569 0.145098 0.196078 0.721569 0.145098 
0.196078 0.721569 0.145098 0.196078 0.721569 0.145098 
0.196078 0.721569 0.145098 0.196078 0.721569 0.145098 
0.196078 0.721569 0.145098 0.196078 0.721569 0.145098 
0.196078 0.721569 0.145098 0.196078 0.721569 0.145098 
0.196078 0.721569 0.145098 0.196078 0.721569 0.145098 
0.196078 0.721569 0.145098 0.196078 0.721569 0.145098 
0.196078 0.721569 0.145098 0.196078 0.721569 0.145098 
0.196078 0.721569 0.145098 0.196078 0.721569 0.145098 
0.196078 0.721569 0.145098 0.196078 0.721569 0.145098 
0.196078 0.721569 0.145098 0.196078 0.721569 0.145098 
0.196078 0.721569 0.145098 0.196078 0.721569 0.145098 
0.196078 0.721569 0.145098 0.196078 0.721569 0.145098 
0.196078 0.721569 0.145098 0.196078 0.721569 0.145098 
0.196078 0.721569 0.145098 0.196078 0.721569 0.145098 
0.196078 0.721569 0.145098 0.196078 0.721569 0.145098 
0.196078 0.721569 0.145098 0.196078 0.721569 0.145098 
0.196078 0.721569 0.145098 0.196078 0.721569 0.145098 
0.196078 0.721569 0.145098 0.196078 0.721569 0.145098 
0.196078 0.721569 0.145098 0.196078 0.721569 0.145098 
0.196078 0.721569 0.145098 0.196078 0.721569 0.145098 
0.196078 0.721569 0.145098 0.196078 0.721569 0.145098 
0.196078 0.721569 0.145098 0.196078 0.721569 0.145098 
0.196078 0.721569 0.145098 0.196078 0.721569 0.145098 
0.196078 0.721569 0.145098 0.196078 0.721569 0.145098 
0.196078 0.721569 0.145098 0.196078 0.721569 0.145098 
0.196078 0.721569 0.145098 0.196078 0.721569 0.145098 
0.196078 0.721569 0.145098 0.196078 0.721569 0.145098 
0.196078 0.721569 0.145098 0.196078 0.721569 0.145098 
0.196078 0.721569 0.145098 0.196078 0.721569 0.145098 
0.196078 0.721569 0.145098 0.196078 0.721569 0.145098 
0.196078 0.721569 0.145098 0.196078 0.721569 0.145098 
0.196078 0.721569 0.145098 0.196078 0.721569 0.145098 
0.196078 0.721569 0.145098 0.196078 0.721569 0.145098 
0.196078 0.721569 0.145098 0.196078 0.721569 0.145098 
0.196078 0.721569 0.145098 0.196078 0.721569 0.145098 
0.196078 0.721569 0.145098 0.196078 0.721569 0.145098 
0.196078 0.721569 0.145098 0.196078 0.721569 0.145098 
0.196078 0.721569 0.145098 0.196078 0.721569 0.145098 
0.196078 0.721569 0.145098 0.196078 0.721569 0.145098 
0.196078 0.721569 0.145098 0.196078 0.721569 0.145098 
0.196078 0.721569 0.145098 0.196078 0.721569 0.145098 
0.196078 0.721569 0.145098 0.196078 0.721569 0.145098 
0.196078 0.721569 0.145098 0.196078 0.721569 0.145098 
0.196078 0.721569 0.145098 0.196078 0.721569 0.145098 
0.196078 0.721569 0.145098 0.196078 0.721569 0.145098 
0.196078 0.721569 0.145098 0.196078 0.721569 0.145098 
0.196078 0.721569 0.145098 0.196078 0.721569 0.145098 
0.196078 0.721569 0.145098 0.196078 0.721569 0.145098 
0.196078 0.721569 0.145098 0.196078 0.721569 0.145098 
0.196078 0.721569 0.145098 0.196078 0.721569 0.145098 
0.196078 0.721569 0.145098 0.196078 0.721569 0.145098 
0.196078 0.721569 0.145098 0.196078 0.721569 0.145098 
0.196078 0.721569 0.145098 0.196078 0.721569 0.145098 
0.196078 0.721569 0.145098 0.196078 0.721569 0.145098 
0.196078 0.721569 0.145098 0.196078 0.721569 0.145098 
0.196078 0.721569 0.145098 0.196078 0.721569 0.145098 
0.196078 0.721569 0.145098 0.196078 0.721569 0.145098 
0.196078 0.721569 0.145098 0.196078 0.721569 0.145098 
0.196078 0.721569 0.145098 0.196078 0.721569 0.145098 
0.196078 0.721569 0.145098 0.196078 0.721569 0.145098 
0.196078 0.721569 0.145098 0.196078 0.721569 0.145098 
0.196078 0.721569 0.145098 0.196078 0.721569 0.145098 
0.196078 0.721569 0.145098 0.196078 0.721569 0.145098 
0.196078 0.721569 0.145098 0.196078 0.721569 0.145098 
0.196078 0.721569 0.145098 0.196078 0.721569 0.145098 
0.196078 0.721569 0.145098 0.196078 0.721569 0.145098 
0.196078 0.721569 0.145098 0.196078 0.721569 0.145098 
0.196078 0.721569 0.145098 0.196078 0.721569 0.145098 
0.196078 0.721569 0.145098 0.196078 0.721569 0.145098 
0.196078 0.721569 0.145098 0.196078 0.721569 0.145098 
0.196078 0.721569 0.145098 0.196078 0.721569 0.145098 
0.196078 0.721569 0.145098 0.196078 0.721569 0.145098 
0.196078 0.721569 0.145098 0.196078 0.721569 0.145098 
0.196078 0.721569 0.145098 0.196078 0.721569 0.145098 
0.196078 0.721569 0.145098 0.196078 0.721569 0.145098 
0.196078 0.721569 0.145098 0.196078 0.721569 0.145098 
0.196078 0.721569 0.145098 0.196078 0.721569 0.145098 
0.196078 0.721569 0.145098 0.196078 0.721569 0.145098 
0.196078 0.721569 0.145098 0.196078 0.721569 0.145098 
0.196078 0.721569 0.145098 0.196078 0.721569 0.145098 
0.196078 0.721569 0.145098 0.196078 0.721569 0.145098 
0.196078 0.721569 0.145098 0.196078 0.721569 0.145098 
0.196078 0.721569 0.145098 0.196078 0.721569 0.145098 
0.196078 0.721569 0.145098 0.196078 0.721569 0.145098 
0.196078 0.721569 0.145098 0.196078 0.721569 0.145098 
0.196078 0.721569 0.145098 0.196078 0.721569 0.145098 
0.196078 0.721569 0.145098 0.196078 0.721569 0.145098 
0.196078 0.721569 0.145098 0.196078 0.721569 0.145098 
0.196078 0.721569 0.145098 0.196078 0.721569 0.145098 
0.196078 0.721569 0.145098 0.196078 0.721569 0.145098 
0.196078 0.721569 0.145098 0.196078 0.721569 0.145098 
0.196078 0.721569 0.145098 0.196078 0.721569 0.145098 
0.196078 0.721569 0.145098 0.196078 0.721569 0.145098 
0.196078 0.721569 0.145098 0.196078 0.721569 0.145098 
0.196078 0.721569 0.145098 0.196078 0.721569 0.145098 
0.196078 0.721569 0.145098 0.196078 0.721569 0.145098 
0.196078 0.721569 0.145098 0.196078 0.721569 0.145098 
0.196078 0.721569 0.145098 0.196078 0.721569 0.145098 
0.196078 0.721569 0.145098 0.196078 0.721569 0.145098 
0.196078 0.721569 0.145098 0.196078 0.721569 0.145098 
0.196078 0.721569 0.145098 0.196078 0.721569 0.145098 
0.196078 0.721569 0.145098 0.196078 0.721569 0.145098 
0.196078 0.721569 0.145098 0.196078 0.721569 0.145098 
0.196078 0.721569 0.145098 0.196078 0.721569 0.145098 
0.196078 0.721569 0.145098 0.196078 0.721569 0.145098 
0.196078 0.721569 0.145098 0.196078 0.721569 0.145098 
0.196078 0.721569 0.145098 0.196078 0.721569 0.145098 
0.196078 0.721569 0.145098 0.196078 0.721569 0.145098 
0.196078 0.721569 0.145098 0.196078 0.721569 0.145098 
0.196078 0.721569 0.145098 0.196078 0.721569 0.145098 
0.196078 0.721569 0.145098 0.196078 0.721569 0.145098 
0.196078 0.721569 0.145098 0.196078 0.721569 0.145098 
0.196078 0.721569 0.145098 0.196078 0.721569 0.145098 
0.196078 0.721569 0.145098 0.196078 0.721569 0.145098 
0.196078 0.721569 0.145098 0.196078 0.721569 0.145098 
0.196078 0.721569 0.145098 0.196078 0.721569 0.145098 
0.196078 0.721569 0.145098 0.196078 0.721569 0.145098 
0.196078 0.721569 0.145098 0.196078 0.721569 0.145098 
0.196078 0.721569 0.145098 0.196078 0.721569 0.145098 
0.196078 0.721569 0.145098 0.196078 0.721569 0.145098 
0.196078 0.721569 0.145098 0.196078 0.721569 0.145098 