# vtk DataFile Version 4.2
vtk output
ASCII
DATASET POLYDATA
POINTS 2287 float
395.23 157.269 64.6196 395.515 157.511 64.6148 394.573 161.988 64.4809 
394.975 162.697 64.3986 394.45 163.04 64.4571 395.427 163.444 64.4697 
394.534 165.022 64.3429 393.502 169.199 64.4499 393.897 169.944 64.3726 
394.19 170.581 64.4271 393.324 172.774 64.4482 394.162 172.495 64.5996 
393.588 174.755 64.6501 392.559 175.677 64.7204 392.818 176.106 64.7267 
392.851 176.714 64.8626 395.744 151.715 65.5277 396.024 152.96 65.3078 
394.034 162.878 64.6421 393.829 162.406 64.8459 393.621 164.058 64.8842 
394.11 164.68 64.5227 395.645 164.463 64.6015 394.304 165.953 64.4238 
393.429 167.507 64.63 393.118 168.951 64.6412 392.954 168.467 64.835 
394.861 170.054 64.6885 394.628 170.836 64.6469 394.6 171.953 64.7818 
394.434 173.813 64.9762 392.156 176.814 64.9806 391.884 176.317 65.0933 
393.626 176.594 65.1683 391.777 180.983 65.6536 391.83 181.455 65.8117 
390.949 183.657 66.0908 390.915 183.253 66.074 391.052 183.957 66.2149 
390.865 184.31 66.3087 395.28 150.621 65.8938 394.883 150.949 66.0483 
396.521 150.69 65.9234 396.634 151.914 65.7308 396.806 159.84 65.2884 
393.476 162.224 65.2755 392.612 168.228 65.2772 391.963 172.926 65.2178 
391.796 172.46 65.4927 394.584 174.761 65.409 393.058 180.06 66.1215 
391.184 181.389 65.8674 390.684 181.881 66.1578 391.103 182.553 66.044 
391.566 181.959 65.9384 392.094 181.992 66.1902 390.644 184.888 66.6045 
389.9 187.958 67.3101 396.113 141.312 67.4572 396.571 142.497 67.3437 
395.821 145.25 66.7575 395.353 145.022 66.9305 396.712 145.962 66.7634 
397.073 150.668 66.1937 394.335 152.444 66.2135 397.577 153.684 66.2819 
397.206 156.235 65.752 397.147 162.361 65.8676 396.556 168.782 66.3807 
395.95 171.03 66.112 394.375 177.503 66.4443 390.206 185.541 66.8588 
389.747 185.79 67.1238 391.142 185.388 67.0688 390.549 186.746 67.2805 
389.912 187.352 67.2589 396.157 135.197 68.6458 396.492 135.463 68.6409 
395.843 140.23 67.7728 395.363 139.998 67.9766 396.517 139.882 67.8824 
395.382 140.73 67.8176 397.642 145.705 67.4346 397.904 152.086 66.8012 
393.583 153.036 67.2104 398.374 153.479 67.3389 397.938 161.943 67.1311 
397.425 165.784 67.1224 391.957 167.882 66.5014 391.265 170.958 66.8925 
396.598 170.857 67.274 389.873 181.633 66.9022 388.939 185.673 67.8719 
389.217 188.212 67.9005 389.52 189.023 68.1219 389.847 189.622 68.6092 
396.13 132.926 69.2291 396.61 133.755 69.0817 396.82 134.857 68.8829 
397.12 138.599 68.3235 395.065 139.529 68.2832 393.134 154.835 68.2091 
392.207 163.546 67.7959 391.413 168.881 67.5375 395.112 177.16 67.7287 
389.015 183.448 67.892 390.026 190.031 69.068 387.869 192.81 69.772 
387.857 192.307 69.7003 387.738 193.145 69.8834 387.546 193.187 69.9735 
387.975 193.228 69.9466 396.249 127.363 70.5624 397.623 133.607 69.6111 
397.466 137.337 68.7657 394.425 138.224 69.2839 398.1 141.157 68.6812 
393.086 154.059 68.9908 399.418 154.556 69.389 396.648 173.493 69.1368 
396.026 175.704 69.0762 391.793 186.573 69.0042 387.775 187.351 69.4269 
390.301 190.145 69.5834 388.151 191.446 69.4657 389.643 191.046 69.5727 
387.357 192.822 70.0663 388.576 192.197 69.7269 387.094 193.771 70.4574 
387.288 194.845 70.6686 386.936 195.046 70.9311 387.583 195.016 70.7246 
387.141 195.363 70.9105 387.176 195.725 71.097 395.441 127.46 70.8834 
395.284 129.52 70.4455 397.144 128.629 70.4429 397.539 129.723 70.4279 
398.092 134.056 69.9349 398.78 138.78 69.9289 398.117 168.201 70.6601 
386.903 191.229 70.5992 389.741 191.708 70.3376 388.616 193.738 70.6526 
396.213 116.974 72.9183 396.853 123.699 71.8289 394.948 128.814 70.9622 
398.852 133.697 70.9355 399.517 138.55 71.2084 399.774 143.943 70.8949 
388.239 180.222 71.4027 388.223 181.1 70.583 389.758 192.422 71.1366 
386.34 196.544 71.9984 386.88 196.586 71.7671 385.965 198.583 72.8226 
385.911 198.852 72.9486 386.088 198.786 72.9354 385.962 199.101 73.1103 
396.118 113.171 73.8974 395.974 112.758 74.027 396.39 113.355 73.9512 
396.775 116.653 73.2067 395.326 122.479 72.3749 397.783 123.449 72.3835 
398.305 124.414 72.6421 394.114 130.654 71.8166 393.669 134.423 71.8189 
398.38 168.012 72.6744 388.271 179.79 72.0459 385.899 195.745 72.2143 
387.748 196.709 72.3615 386.22 197.491 72.5041 385.575 197.945 73.003 
386.783 197.884 72.7463 386.391 198.507 72.9574 395.895 110.677 74.8568 
396.973 114.502 74.0196 397.17 117.046 73.3809 398.116 122.922 72.8607 
394.19 125.375 72.9554 400.107 134.303 73.5275 400.455 145.644 73.268 
400.126 156.334 73.3686 386.161 188.451 72.9088 385.688 190.254 73.3571 
385.143 197.785 73.3886 385.183 199.36 73.7537 385.522 201.128 74.5715 
357.386 230.093 75.4851 357.394 229.921 75.6216 357.229 230.103 75.5498 
357.287 230.239 75.5065 357.109 230.316 75.6914 357.293 230.448 75.5921 
394.051 123.581 73.6449 393.676 125.07 74.0936 400.103 130.409 74.4317 
390.757 191.912 73.8556 384.894 202.561 75.3093 383.779 206.246 76.1381 
383.631 206.42 76.2166 383.93 206.03 76.1863 383.816 206.401 76.2231 
357.391 229.734 75.9508 358.409 229.918 75.6921 358.369 229.674 75.8487 
358.751 229.761 75.8713 356.987 230.21 75.9566 357.156 230.62 75.7723 
357.15 230.912 75.9793 395.375 110.641 75.2224 396.644 110.379 75.566 
398.495 117.616 75.1839 393.791 121.735 74.5238 393.296 125.574 75.388 
393.011 159.949 75.2221 398.516 166.804 75.0703 383.434 202.929 75.903 
386.051 202.135 75.8446 384.48 203.368 75.6711 383.964 204.463 75.9482 
384.881 204.086 76.1497 384.211 205.345 76.2025 383.737 206.677 76.3465 
383.529 206.864 76.4222 382.92 208.465 76.909 382.87 208.726 77.0121 
383.039 208.615 77.0198 382.929 208.933 77.1623 357.789 229.41 76.2846 
359.277 229.827 76.0695 359.776 229.478 76.4251 360.255 229.62 76.5494 
357.826 230.956 75.7912 360.215 230.48 76.569 356.759 231.168 76.8167 
396.008 108.77 76.4742 396.431 109.18 76.3921 393.197 125.706 76.02 
393.364 155.048 75.9928 397.174 173.339 76.0157 383.178 207.43 76.7508 
383.717 207.76 77.1979 357.249 229.422 77.0249 356.983 229.831 76.6443 
358.296 229.057 76.7347 360.813 229.7 76.8214 361.404 229.388 77.2093 
361.965 229.611 77.4061 361.69 230.46 77.3709 358.54 231.246 76.1018 
357.648 231.489 76.1505 356.666 231.848 77.6274 357.33 232.016 76.8763 
396.257 107.044 78.1709 395.724 107.518 77.7849 395.543 108.465 76.9856 
397.533 109.968 77.3403 399.237 117.744 77.23 393.129 125.643 77.2934 
392.409 162.516 76.5559 397.775 169.835 76.852 382.795 201.76 76.5503 
385.012 205.128 76.927 382.185 207.169 77.2197 384.436 206.687 77.247 
382.098 210.243 78.0604 382.699 210.003 77.9765 381.723 211.68 78.6823 
359.627 228.676 77.2643 356.445 230.79 77.8076 362.55 230.851 77.9901 
358.146 231.978 76.5958 356.433 231.957 78.3614 356.929 232.469 77.8091 
357.799 232.667 77.3751 358.32 232.899 77.5446 357.191 233.032 78.2296 
396.288 106.806 78.4556 399.931 121.604 77.711 400.308 146.42 77.6898 
395.739 177.844 77.9149 383.859 208.755 78.2157 381.053 210.579 78.6443 
381.075 211.947 78.9819 381.098 212.791 79.3391 381.366 213.407 79.7347 
356.809 229.702 78.1042 362.136 228.499 78.0723 365.099 228.855 78.9913 
356.491 230.327 78.2954 363.79 230.404 78.4377 359.145 232.792 77.5413 
356.52 233.156 79.4746 357.784 233.789 78.7747 395.346 106.552 79.218 
393.344 108.554 79.3211 400.34 125.298 78.7349 393.557 136.147 78.8091 
397.983 166.705 78.2074 380.829 206.066 79.3737 380.852 209.523 78.7892 
380.347 211.137 79.4124 380.3 212.018 79.5231 382.095 212.816 79.8017 
379.793 216.439 80.8497 367.196 227.655 79.9308 366.846 227.115 80.0232 
368.315 227.258 80.3155 357.445 228.896 78.7932 357.004 229.336 78.8585 
359.222 227.997 79.144 360.093 228.02 78.4576 360.992 227.947 78.5243 
362.845 228.16 78.5431 363.73 228.182 78.7766 356.24 231.117 79.2547 
356.747 234.833 80.8861 357.198 235.152 80.593 394.88 106.561 79.5511 
393.642 107.263 80.0943 397.844 107.953 80.3783 392.286 113.149 79.7927 
399.44 116.21 79.9612 393.416 139.523 79.4702 380.673 215.801 80.9038 
378.852 217.302 81.1571 378.388 217.798 81.3688 378.874 217.873 81.3712 
378.914 218.419 81.6675 363.265 226.692 80.4376 365.576 226.642 80.192 
370.235 226.711 81.1176 370.71 227.57 81.406 356.538 230.088 79.5375 
360.381 234.808 80.3364 356.539 235.245 81.7967 359.049 235.375 80.4419 
357.715 235.668 80.8827 392.391 107.569 81.5643 398.352 109.311 81.0089 
400.198 125.598 80.4502 380.564 204.674 81.1824 379.399 210.58 80.9935 
382.563 213.369 81.3899 378.775 215.611 80.99 377.946 217.904 81.502 
375.804 222.826 82.3685 375.636 223.41 82.4744 364.742 225.892 81.7272 
366.674 225.733 81.2365 368.46 225.555 81.2331 373.344 225.388 82.164 
373.429 224.844 82.1278 375.68 223.669 82.6508 363.677 226.265 81.3827 
365.232 226.283 80.6193 370.618 225.434 81.5063 371.891 225.812 81.73 
371.531 225.321 81.6898 372.686 225.895 82.037 373.193 226.355 82.4712 
357.003 229.438 80.4126 356.11 233.74 81.6355 356.254 235.184 82.442 
357.313 236.503 82.1244 395.657 104.209 82.635 395.502 104.433 82.1764 
396.153 104.442 82.5653 395.415 104.701 81.7903 392.152 107.354 82.2187 
392.147 107.669 81.9281 392.028 107.949 82.0784 393.096 129.949 82.0228 
383.258 212.491 82.3895 376.538 218.315 82.4212 378.67 219.78 82.4748 
375.707 220.623 82.3604 376.007 222.125 82.3793 367.584 224.898 82.4054 
367.507 224.791 82.8952 372.927 223.973 82.1486 373.93 223.988 82.2656 
374.883 223.679 82.4002 368.963 224.776 82.0298 370.251 224.926 81.7252 
370.708 224.354 82.1271 374.744 224.526 82.6594 374.191 225.525 82.7744 
359.702 227.797 81.9084 373.304 226.79 82.8243 356.221 231.695 81.5849 
356.107 232.426 81.824 356.158 235.39 83.064 357.696 236.673 82.0388 
357.297 237.116 82.9201 358.247 237.158 82.507 395.29 103.853 83.2584 
396.437 104.074 83.53 398.791 111.235 83.073 380.363 204.882 82.9118 
384.745 209.131 82.7718 376.23 217.483 83.2693 374.583 220.121 83.4023 
369.737 223.939 83.1553 371.602 223.098 83.0975 371.128 222.949 83.8778 
377.187 222.542 83.4265 364.097 226.1 82.3851 364.361 226.354 83.759 
356.872 230.313 82.0999 359.173 237.007 82.4389 356.327 236.849 84.4064 
[...]
POINT_DATA 2287
COLOR_SCALARS scalars 3
0.196078 0.721569 0.145098 0.196078 0.721569 0.145098 0.196078 0.721569 0.145098 
0.196078 0.721569 0.145098 0.196078 0.721569 0.145098 
0.196078 0.721569 0.145098 0.196078 0.721569 0.145098 
0.196078 0.721569 0.145098 0.196078 0.721569 0.145098 
0.196078 0.721569 0.145098 0.196078 0.721569 0.145098 
0.196078 0.721569 0.145098 0.196078 0.721569 0.145098 
0.196078 0.721569 0.145098 0.196078 0.721569 0.145098 
0.196078 0.721569 0.145098 0.196078 0.721569 0.145098 
0.196078 0.721569 0.145098 0.196078 0.721569 0.145098 
0.196078 0.721569 0.145098 0.196078 0.721569 0.145098 
0.196078 0.721569 0.145098 0.196078 0.721569 0.145098 
0.196078 0.721569 0.145098 0.196078 0.721569 0.145098 
0.196078 0.721569 0.145098 0.196078 0.721569 0.145098 
0.196078 0.721569 0.145098 0.196078 0.721569 0.145098 
0.196078 0.721569 0.145098 0.196078 0.721569 0.145098 
0.196078 0.721569 0.145098 0.196078 0.721569 0.145098 
0.196078 0.721569 0.145098 0.196078 0.721569 0.145098 
0.196078 0.721569 0.145098 0.196078 0.721569 0.145098 
0.196078 0.721569 0.145098 0.196078 0.721569 0.145098 
0.196078 0.721569 0.145098 0.196078 0.721569 0.145098 
0.196078 0.721569 0.145098 0.196078 0.721569 0.145098 
0.196078 0.721569 0.145098 0.196078 0.721569 0.145098 
0.196078 0.721569 0.145098 0.196078 0.721569 0.145098 
0.196078 0.721569 0.145098 0.196078 0.721569 0.145098 
0.196078 0.721569 0.145098 0.196078 0.721569 0.145098 
0.196078 0.721569 0.145098 0.196078 0.721569 0.145098 
0.196078 0.721569 0.145098 0.196078 0.721569 0.145098 
0.196078 0.721569 0.145098 0.196078 0.721569 0.145098 
0.196078 0.721569 0.145098 0.196078 0.721569 0.145098 
0.196078 0.721569 0.145098 0.196078 0.721569 0.145098 
0.196078 0.721569 0.145098 0.196078 0.721569 0.145098 
0.196078 0.721569 0.145098 0.196078 0.721569 0.145098 
0.196078 0.721569 0.145098 0.196078 0.721569 0.145098 
0.196078 0.721569 0.145098 0.196078 0.721569 0.145098 
0.196078 0.721569 0.145098 0.196078 0.721569 0.145098 
0.196078 0.721569 0.145098 0.196078 0.721569 0.145098 
0.196078 0.721569 0.145098 0.196078 0.721569 0.145098 
0.196078 0.721569 0.145098 0.196078 0.721569 0.145098 
0.196078 0.721569 0.145098 0.196078 0.721569 0.145098 
0.196078 0.721569 0.145098 0.196078 0.721569 0.145098 
0.196078 0.721569 0.145098 0.196078 0.721569 0.145098 
0.196078 0.721569 0.145098 0.196078 0.721569 0.145098 
0.196078 0.721569 0.145098 0.196078 0.721569 0.145098 
0.196078 0.721569 0.145098 0.196078 0.721569 0.145098 
0.196078 0.721569 0.145098 0.196078 0.721569 0.145098 
0.196078 0.721569 0.145098 0.196078 0.721569 0.145098 
0.196078 0.721569 0.145098 0.196078 0.721569 0.145098 
0.196078 0.721569 0.145098 0.196078 0.721569 0.145098 
0.196078 0.721569 0.145098 0.196078 0.721569 0.145098 
0.196078 0.721569 0.145098 0.196078 0.721569 0.145098 
0.196078 0.721569 0.145098 0.196078 0.721569 0.145098 
0.196078 0.721569 0.145098 0.196078 0.721569 0.145098 
0.196078 0.721569 0.145098 0.196078 0.721569 0.145098 
0.196078 0.721569 0.145098 0.196078 0.721569 0.145098 
0.196078 0.721569 0.145098 0.196078 0.721569 0.145098 
0.196078 0.721569 0.145098 0.196078 0.721569 0.145098 
0.196078 0.721569 0.145098 0.196078 0.721569 0.145098 
0.196078 0.721569 0.145098 0.196078 0.721569 0.145098 
0.196078 0.721569 0.145098 0.196078 0.721569 0.145098 
0.196078 0.721569 0.145098 0.196078 0.721569 0.145098 
0.196078 0.721569 0.145098 0.196078 0.721569 0.145098 
0.196078 0.721569 0.145098 0.196078 0.721569 0.145098 
0.196078 0.721569 0.145098 0.196078 0.721569 0.145098 
0.196078 0.721569 0.145098 0.196078 0.721569 0.145098 
0.196078 0.721569 0.145098 0.196078 0.721569 0.145098 
0.196078 0.721569 0.145098 0.196078 0.721569 0.145098 
0.196078 0.721569 0.145098 0.196078 0.721569 0.145098 
0.196078 0.721569 0.145098 0.196078 0.721569 0.145098 
0.196078 0.721569 0.145098 0.196078 0.721569 0.145098 
0.196078 0.721569 0.145098 0.196078 0.721569 0.145098 
0.196078 0.721569 0.145098 0.196078 0.721569 0.145098 
0.196078 0.721569 0.145098 0.196078 0.721569 0.145098 
0.196078 0.721569 0.145098 0.196078 0.721569 0.145098 
0.196078 0.721569 0.145098 0.196078 0.721569 0.145098 
0.196078 0.721569 0.145098 0.196078 0.721569 0.145098 
0.196078 0.721569 0.145098 0.196078 0.721569 0.145098 
0.196078 0.721569 0.145098 0.196078 0.721569 0.145098 
0.196078 0.721569 0.145098 0.196078 0.721569 0.145098 
0.196078 0.721569 0.145098 0.196078 0.721569 0.145098 
0.196078 0.721569 0.145098 0.196078 0.721569 0.145098 
0.196078 0.721569 0.145098 0.196078 0.721569 0.145098 
0.196078 0.721569 0.145098 0.196078 0.721569 0.145098 
0.196078 0.721569 0.145098 0.196078 0.721569 0.145098 
0.196078 0.721569 0.145098 0.196078 0.721569 0.145098 
0.196078 0.721569 0.145098 0.196078 0.721569 0.145098 
0.196078 0.721569 0.145098 0.196078 0.721569 0.145098 
0.196078 0.721569 0.145098 0.196078 0.721569 0.145098 
0.196078 0.721569 0.145098 0.196078 0.721569 0.145098 
0.196078 0.721569 0.145098 0.196078 0.721569 0.145098 
0.196078 0.721569 0.145098 0.196078 0.721569 0.145098 
0.196078 0.721569 0.145098 0.196078 0.721569 0.145098 
0.196078 0.721569 0.145098 0.196078 0.721569 0.145098 
0.196078 0.721569 0.145098 0.196078 0.721569 0.145098 
0.196078 0.721569 0.145098 0.196078 0.721569 0.145098 
0.196078 0.721569 0.145098 0.196078 0.721569 0.145098 
0.196078 0.721569 0.145098 0.196078 0.721569 0.145098 
0.196078 0.721569 0.145098 0.196078 0.721569 0.145098 
0.196078 0.721569 0.145098 0.196078 0.721569 0.145098 
0.196078 0.721569 0.145098 0.196078 0.721569 0.145098 
0.196078 0.721569 0.145098 0.196078 0.721569 0.145098 
0.196078 0.721569 0.145098 0.196078 0.721569 0.145098 
0.196078 0.721569 0.145098 0.196078 0.721569 0.145098 
0.196078 0.721569 0.145098 0.196078 0.721569 0.145098 
0.196078 0.721569 0.145098 0.196078 0.721569 0.145098 
0.196078 0.721569 0.145098 0.196078 0.721569 0.145098 
0.196078 0.721569 0.145098 0.196078 0.721569 0.145098 
0.196078 0.721569 0.145098 0.196078 0.721569 0.145098 
0.196078 0.721569 0.145098 0.196078 0.721569 0.145098 
0.196078 0.721569 0.145098 0.196078 0.721569 0.145098 
0.196078 0.721569 0.145098 0.196078 0.721569 0.145098 
0.196078 0.721569 0.145098 0.196078 0.721569 0.145098 
0.196078 0.721569 0.145098 0.196078 0.721569 0.145098 
0.196078 0.721569 0.145098 0.196078 0.721569 0.145098 
0.196078 0.721569 0.145098 0.196078 0.721569 0.145098 
0.196078 0.721569 0.145098 0.196078 0.721569 0.145098 
0.196078 0.721569 0.145098 0.196078 0.721569 0.145098 
0.196078 0.721569 0.145098 0.196078 0.721569 0.145098 
0.196078 0.721569 0.145098 0.196078 0.721569 0.145098 
0.196078 0.721569 0.145098 0.196078 0.721569 0.145098 
0.196078 0.721569 0.145098 0.196078 0.721569 0.145098 
0.196078 0.721569 0.145098 0.196078 0.721569 0.145098 
0.196078 0.721569 0.145098 0.196078 0.721569 0.145098 
0.196078 0.721569 0.145098 0.196078 0.721569 0.145098 
0.196078 0.721569 0.145098 0.196078 0.721569 0.145098 
0.196078 0.721569 0.145098 0.196078 0.721569 0.145098 
0.196078 0.721569 0.145098 0.196078 0.721569 0.145098 
0.196078 0.721569 0.145098 0.196078 0.721569 0.145098 
0.196078 0.721569 0.145098 0.196078 0.721569 0.145098 
0.196078 0.721569 0.145098 0.196078 0.721569 0.145098 
0.196078 0.721569 0.145098 0.196078 0.721569 0.145098 
0.196078 0.721569 0.145098 0.196078 0.721569 0.145098 
0.196078 0.721569 0.145098 0.196078 0.721569 0.145098 
0.196078 0.721569 0.145098 0.196078 0.721569 0.145098 
0.196078 0.721569 0.145098 0.196078 0.721569 0.145098 
0.196078 0.721569 0.145098 0.196078 0.721569 0.145098 
0.196078 0.721569 0.145098 0.196078 0.721569 0.145098 
0.196078 0.721569 0.145098 0.196078 0.721569 0.145098 
0.196078 0.721569 0.145098 0.196078 0.721569 0.145098 
0.196078 0.721569 0.145098 0.196078 0.721569 0.145098 
0.196078 0.721569 0.145098 0.196078 0.721569 0.145098 
0.196078 0.721569 0.145098 0.196078 0.721569 0.145098 
0.196078 0.721569 0.145098 0.196078 0.721569 0.145098 
0.196078 0.721569 0.145098 0.196078 0.721569 0.145098 
0.196078 0.721569 0.145098 0.196078 0.721569 0.145098 
0.196078 0.721569 0.145098 0.196078 0.721569 0.145098 
0.196078 0.721569 0.145098 0.196078 0.721569 0.145098 
0.196078 0.721569 0.145098 0.196078 0.721569 0.145098 
0.196078 0.721569 0.145098 0.196078 0.721569 0.145098 
0.196078 0.721569 0.145098 0.196078 0.721569 0.145098 
0.196078 0.721569 0.145098 0.196078 0.721569 0.145098 
0.196078 0.721569 0.145098 0.196078 0.721569 0.145098 
0.196078 0.721569 0.145098 0.196078 0.721569 0.145098 
0.196078 0.721569 0.145098 0.196078 0.721569 0.145098 
0.196078 0.721569 0.145098 0.196078 0.721569 0.145098 
0.196078 0.721569 0.145098 0.196078 0.721569 0.145098 
0.196078 0.721569 0.145098 0.196078 0.721569 0.145098 
0.196078 0.721569 0.145098 0.196078 0.721569 0.145098 
0.196078 0.721569 0.145098 0.196078 0.721569 0.145098 
0.196078 0.721569 0.145098 0.196078 0.721569 0.145098 
0.196078 0.721569 0.145098 0.196078 0.721569 0.145098 
0.196078 0.721569 0.145098 0.196078 0.721569 0.145098 
0.196078 0.721569 0.145098 0.196078 0.721569 0.145098 
0.196078 0.721569 0.145098 0.196078 0.721569 0.145098 
0.196078 0.721569 0.145098 0.196078 0.721569 0.145098 
0.196078 0.721569 0.145098 0.196078 0.721569 0.145098 
0.196078 0.721569 0.145098 0.196078 0.721569 0.145098 
0.196078 0.721569 0.145098 0.196078 0.721569 0.145098 
0.196078 0.721569 0.145098 0.196078 0.721569 0.145098 
0.196078 0.721569 0.145098 0.196078 0.721569 0.145098 
0.196078 0.721569 0.145098 0.196078 0.721569 0.145098 
0.196078 0.721569 0.145098 0.196078 0.721569 0.145098 
0.196078 0.721569 0.145098 0.196078 0.721569 0.145098 
0.196078 0.721569 0.145098 0.196078 0.721569 0.145098 
0.196078 0.721569 0.145098 0.196078 0.721569 0.145098 
0.196078 0.721569 0.145098 0.196078 0.721569 0.145098 
0.196078 0.721569 0.145098 0.196078 0.721569 0.145098 
0.196078 0.721569 0.145098 0.196078 0.721569 0.145098 
0.196078 0.721569 0.145098 0.196078 0.721569 0.145098 
0.196078 0.721569 0.145098 0.196078 0.721569 0.145098 
0.196078 0.721569 0.145098 0.196078 0.721569 0.145098 
0.196078 0.721569 0.145098 0.196078 0.721569 0.145098 
0.196078 0.721569 0.145098 0.196078 0.721569 0.145098 
0.196078 0.721569 0.145098 0.196078 0.721569 0.145098 
0.196078 0.721569 0.145098 0.196078 0.721569 0.145098 
0.196078 0.721569 0.145098 0.196078 0.721569 0.145098 
0.196078 0.721569 0.145098 0.196078 0.721569 0.145098 
0.196078 0.721569 0.145098 0.196078 0.721569 0.145098 
0.196078 0.721569 0.145098 0.196078 0.721569 0.145098 
0.196078 0.721569 0.145098 0.196078 0.721569 0.145098 
0.196078 0.721569 0.145098 0.196078 0.721569 0.145098 
0.196078 0.721569 0.145098 0.196078 0.721569 0.145098 
0.196078 0.721569 0.145098 0.196078 0.721569 0.145098 
0.196078 0.721569 0.145098 0.196078 0.721569 0.145098 
0.196078 0.721569 0.145098 0.196078 0.721569 0.145098 
0.196078 0.721569 0.145098 0.196078 0.721569 0.145098 
0.196078 0.721569 0.145098 0.196078 0.721569 0.145098 
0.196078 0.721569 0.145098 0.196078 0.721569 0.145098 
0.196078 0.721569 0.145098 0.196078 0.721569 0.145098 
0.196078 0.721569 0.145098 0.196078 0.721569 0.145098 
0.196078 0.721569 0.145098 0.196078 0.721569 0.145098 
0.196078 0.721569 0.145098 0.196078 0.721569 0.145098 
0.196078 0.721569 0.145098 0.196078 0.721569 0.145098 
0.196078 0.721569 0.145098 0.196078 0.721569 0.145098 
0.196078 0.721569 0.145098 0.196078 0.721569 0.145098 
0.196078 0.721569 0.145098 0.196078 0.721569 0.145098 
0.196078 0.721569 0.145098 0.196078 0.721569 0.145098 
0.196078 0.721569 0.145098 0.196078 0.721569 0.145098 
0.196078 0.721569 0.145098 0.196078 0.721569 0.145098 
0.196078 0.721569 0.145098 0.196078 0.721569 0.145098 
0.196078 0.721569 0.145098 0.196078 0.721569 0.145098 
0.196078 0.721569 0.145098 0.196078 0.721569 0.145098 
0.196078 0.721569 0.145098 0.196078 0.721569 0.145098 
0.196078 0.721569 0.145098 0.196078 0.721569 0.145098 
0.196078 0.721569 0.145098 0.196078 0.721569 0.145098 
0.196078 0.721569 0.145098 0.196078 0.721569 0.145098 
0.196078 0.721569 0.145098 0.196078 0.721569 0.145098 
0.196078 0.721569 0.145098 0.196078 0.721569 0.145098 
0.196078 0.721569 0.145098 0.196078 0.721569 0.145098 
0.196078 0.721569 0.145098 0.196078 0.721569 0.145098 
0.196078 0.721569 0.145098 0.196078 0.721569 0.145098 
0.196078 0.721569 0.145098 0.196078 0.721569 0.145098 
0.196078 0.721569 0.145098 0.196078 0.721569 0.145098 
0.196078 0.721569 0.145098 0.196078 0.721569 0.145098 
0.196078 0.721569 0.145098 0.196078 0.721569 0.145098 
0.196078 0.721569 0.145098 0.196078 0.721569 0.145098 
0.196078 0.721569 0.145098 0.196078 0.721569 0.145098 
0.196078 0.721569 0.145098 0.196078 0.721569 0.145098 
0.196078 0.721569 0.145098 0.196078 0.721569 0.145098 
0.196078 0.721569 0.145098 0.196078 0.721569 0.145098 
0.196078 0.721569 0.145098 0.196078 0.721569 0.145098 
0.196078 0.721569 0.145098 0.196078 0.721569 0.145098 
0.196078 0.721569 0.145098 0.196078 0.721569 0.145098 
0.196078 0.721569 0.145098 0.196078 0.721569 0.145098 
0.196078 0.721569 0.145098 0.196078 0.721569 0.145098 
0.196078 0.721569 0.145098 0.196078 0.721569 0.145098 
0.196078 0.721569 0.145098 0.196078 0.721569 0.145098 
0.196078 0.721569 0.145098 0.196078 0.721569 0.145098 
0.196078 0.721569 0.145098 0.196078 0.721569 0.145098 
0.196078 0.721569 0.145098 0.196078 0.721569 0.145098 
0.196078 0.721569 0.145098 0.196078 0.721569 0.145098 
0.196078 0.721569 0.145098 0.196078 0.721569 0.145098 
0.196078 0.721569 0.145098 0.196078 0.721569 0.145098 
0.196078 0.721569 0.145098 0.196078 0.721569 0.145098 
0.196078 0.721569 0.145098 0.196078 0.721569 0.145098 
0.196078 0.721569 0.145098 0.196078 0.721569 0.145098 
0.196078 0.721569 0.145098 0.196078 0.721569 0.145098 
0.196078 0.721569 0.145098 0.196078 0.721569 0.145098 
0.196078 0.721569 0.145098 0.196078 0.721569 0.145098 
0.196078 0.721569 0.145098 0.196078 0.721569 0.145098 
0.196078 0.721569 0.145098 0.196078 0.721569 0.145098 
0.196078 0.721569 0.145098 0.196078 0.721569 0.145098 
0.196078 0.721569 0.145098 0.196078 0.721569 0.145098 
0.196078 0.721569 0.145098 0.196078 0.721569 0.145098 
0.196078 0.721569 0.145098 0.196078 0.721569 0.145098 
0.196078 0.721569 0.145098 0.196078 0.721569 0.145098 
0.196078 0.721569 0.145098 0.196078 0.721569 0.145098 
0.196078 0.721569 0.145098 0.196078 0.721569 0.145098 
0.196078 0.721569 0.145098 0.196078 0.721569 0.145098 
0.196078 0.721569 0.145098 0.196078 0.721569 0.145098 
0.196078 0.721569 0.145098 0.196078 0.721569 0.145098 
0.196078 0.721569 0.145098 0.196078 0.721569 0.145098 
0.196078 0.721569 0.145098 0.196078 0.721569 0.145098 
0.196078 0.721569 0.145098 0.196078 0.721569 0.145098 
0.196078 0.721569 0.145098 0.196078 0.721569 0.145098 
0.196078 0.721569 0.145098 0.196078 0.721569 0.145098 
0.196078 0.721569 0.145098 0.196078 0.721569 0.145098 
0.196078 0.721569 0.145098 0.196078 0.721569 0.145098 
0.196078 0.721569 0.145098 0.196078 0.721569 0.145098 
0.196078 0.721569 0.145098 0.196078 0.721569 0.145098 
0.196078 0.721569 0.145098 0.196078 0.721569 0.145098 
0.196078 0.721569 0.145098 0.196078 0.721569 0.145098 
0.196078 0.721569 0.145098 0.196078 0.721569 0.145098 
0.196078 0.721569 0.145098 0.196078 0.721569 0.145098 
0.196078 0.721569 0.145098 0.196078 0.721569 0.145098 
0.196078 0.721569 0.145098 0.196078 0.721569 0.145098 
0.196078 0.721569 0.145098 0.196078 0.721569 0.145098 
0.196078 0.721569 0.145098 0.196078 0.721569 0.145098 
0.196078 0.721569 0.145098 0.196078 0.721569 0.145098 
0.196078 0.721569 0.145098 0.196078 0.721569 0.145098 
0.196078 0.721569 0.145098 0.196078 0.721569 0.145098 
0.196078 0.721569 0.145098 0.196078 0.721569 0.145098 
0.196078 0.721569 0.145098 0.196078 0.721569 0.145098 
0.196078 0.721569 0.145098 0.196078 0.721569 0.145098 
0.196078 0.721569 0.145098 0.196078 0.721569 0.145098 
0.196078 0.721569 0.145098 0.196078 0.721569 0.145098 
0.196078 0.721569 0.145098 0.196078 0.721569 0.145098 
0.196078 0.721569 0.145098 0.196078 0.721569 0.145098 
0.196078 0.721569 0.145098 0.196078 0.721569 0.145098 
0.196078 0.721569 0.145098 0.196078 0.721569 0.145098 
0.196078 0.721569 0.145098 0.196078 0.721569 0.145098 
0.196078 0.721569 0.145098 0.196078 0.721569 0.145098 
0.196078 0.721569 0.145098 0.196078 0.721569 0.145098 
0.196078 0.721569 0.145098 0.196078 0.721569 0.145098 
0.196078 0.721569 0.145098 0.196078 0.721569 0.145098 
0.196078 0.721569 0.145098 0.196078 0.721569 0.145098 
0.196078 0.721569 0.145098 0.196078 0.721569 0.145098 
0.196078 0.721569 0.145098 0.196078 0.721569 0.145098 
0.196078 0.721569 0.145098 0.196078 0.721569 0.145098 
0.196078 0.721569 0.145098 0.196078 0.721569 0.145098 
0.196078 0.721569 0.145098 0.196078 0.721569 0.145098 
0.196078 0.721569 0.145098 0.196078 0.721569 0.145098 
0.196078 0.721569 0.145098 0.196078 0.721569 0.145098 
0.196078 0.721569 0.145098 0.196078 0.721569 0.145098 
0.196078 0.721569 0.145098 0.196078 0.721569 0.145098 
0.196078 0.721569 0.145098 0.196078 0.721569 0.145098 
0.196078 0.721569 0.145098 0.196078 0.721569 0.145098 
0.196078 0.721569 0.145098 0.196078 0.721569 0.145098 
0.196078 0.721569 0.145098 0.196078 0.721569 0.145098 
0.196078 0.721569 0.145098 0.196078 0.721569 0.145098 
0.196078 0.721569 0.145098 0.196078 0.721569 0.145098 
0.196078 0.721569 0.145098 0.196078 0.721569 0.145098 
0.196078 0.721569 0.145098 0.196078 0.721569 0.145098 
0.196078 0.721569 0.145098 0.196078 0.721569 0.145098 
0.196078 0.721569 0.145098 0.196078 0.721569 0.145098 
0.196078 0.721569 0.145098 0.196078 0.721569 0.145098 
0.196078 0.721569 0.145098 0.196078 0.721569 0.145098 
0.196078 0.721569 0.145098 0.196078 0.721569 0.145098 
0.196078 0.721569 0.145098 0.196078 0.721569 0.145098 
0.196078 0.721569 0.145098 0.196078 0.721569 0.145098 
0.196078 0.721569 0.145098 0.196078 0.721569 0.145098 
0.196078 0.721569 0.145098 0.196078 0.721569 0.145098 
0.196078 0.721569 0.145098 0.196078 0.721569 0.145098 
0.196078 0.721569 0.145098 0.196078 0.721569 0.145098 
0.196078 0.721569 0.145098 0.196078 0.721569 0.145098 
0.196078 0.721569 0.145098 0.196078 0.721569 0.145098 
0.196078 0.721569 0.145098 0.196078 0.721569 0.145098 
0.196078 0.721569 0.145098 0.196078 0.721569 0.145098 
0.196078 0.721569 0.145098 0.196078 0.721569 0.145098 
0.196078 0.721569 0.145098 0.196078 0.721569 0.145098 
0.196078 0.721569 0.145098 0.196078 0.721569 0.145098 
0.196078 0.721569 0.145098 0.196078 0.721569 0.145098 
0.196078 0.721569 0.145098 0.196078 0.721569 0.145098 
0.196078 0.721569 0.145098 0.196078 0.721569 0.145098 
0.196078 0.721569 0.145098 0.196078 0.721569 0.145098 
0.196078 0.721569 0.145098 0.196078 0.721569 0.145098 
0.196078 0.721569 0.145098 0.196078 0.721569 0.145098 
0.196078 0.721569 0.145098 0.196078 0.721569 0.145098 
0.196078 0.721569 0.145098 0.196078 0.721569 0.145098 
0.196078 0.721569 0.145098 0.196078 0.721569 0.145098 
0.196078 0.721569 0.145098 0.196078 0.721569 0.145098 
0.196078 0.721569 0.145098 0.196078 0.721569 0.145098 
0.196078 0.721569 0.145098 0.196078 0.721569 0.145098 
0.196078 0.721569 0.145098 0.196078 0.721569 0.145098 
0.196078 0.721569 0.145098 0.196078 0.721569 0.145098 
0.196078 0.721569 0.145098 0.196078 0.721569 0.145098 
0.196078 0.721569 0.145098 0.196078 0.721569 0.145098 
0.196078 0.721569 0.145098 0.196078 0.721569 0.145098 
0.196078 0.721569 0.145098 0.196078 0.721569 0.145098 
0.196078 0.721569 0.145098 0.196078 0.721569 0.145098 
0.196078 0.721569 0.145098 0.196078 0.721569 0.145098 
0.196078 0.721569 0.145098 0.196078 0.721569 0.145098 
0.196078 0.721569 0.145098 0.196078 0.721569 0.145098 
0.196078 0.721569 0.145098 0.196078 0.721569 0.145098 
0.196078 0.721569 0.145098 0.196078 0.721569 0.145098 
0.196078 0.721569 0.145098 0.196078 0.721569 0.145098 
0.196078 0.721569 0.145098 0.196078 0.721569 0.145098 
0.196078 0.721569 0.145098 0.196078 0.721569 0.145098 
0.196078 0.721569 0.145098 0.196078 0.721569 0.145098 
0.196078 0.721569 0.145098 0.196078 0.721569 0.145098 
0.196078 0.721569 0.145098 0.196078 0.721569 0.145098 
0.196078 0.721569 0.145098 0.196078 0.721569 0.145098 
0.196078 0.721569 0.145098 0.196078 0.721569 0.145098 