# vtk DataFile Version 4.2
vtk output
ASCII
DATASET POLYDATA
POINTS 896 float
278.233 209.974 160.408 277.717 209.899 160.594 277.743 210.067 160.426 
278.954 210.02 160.335 282.63 209.849 160.337 284.146 209.695 160.58 
287.812 209.853 160.71 288.346 209.805 160.88 278.257 210.17 160.33 
279.072 210.481 160.266 287.503 210.061 160.633 275.462 209.8 160.552 
275.411 209.806 160.571 275.386 209.784 160.535 275.704 209.895 160.601 
275.583 209.852 160.644 276.319 210.005 160.614 276.023 209.896 160.726 
276.809 209.902 160.756 277.48 209.837 160.877 281.97 209.655 160.812 
287.865 209.572 161.203 290.225 209.876 161.305 290.934 209.695 161.624 
291.799 209.896 161.568 292.344 209.827 161.781 275.492 209.954 160.654 
275.311 210.283 160.993 275.872 210.147 160.676 289.095 210.394 161.028 
290.953 210.218 161.339 292.207 210.004 161.652 283.438 210.798 160.384 
290.661 210.544 161.36 269.574 210.344 161.984 271.375 210.639 161.641 
275.396 209.829 160.575 272.284 210.509 161.841 275.443 209.921 160.694 
275.677 209.971 160.886 290.785 209.543 161.961 293.112 209.979 161.974 
292.804 209.655 162.191 294.959 209.674 162.628 295.615 209.903 162.546 
296.133 209.824 162.761 268.704 210.714 161.83 268.072 210.357 162.136 
269.516 210.973 161.65 270.296 210.92 161.598 272.882 210.804 161.554 
274.172 210.686 161.388 274.619 210.347 161.62 275.644 210.112 161.393 
296.063 209.982 162.666 269.809 211.587 161.619 275.117 211.047 161.096 
287.902 211.226 161.155 264.597 210.277 162.595 267.865 210.154 162.422 
267.379 210.081 162.585 269.269 210.268 162.144 287.253 209.544 162.001 
289.606 209.494 162.215 296.71 209.966 162.955 296.512 209.688 163.119 
297.784 209.872 163.433 261.145 210.813 162.689 260.718 210.541 162.881 
268.779 210.223 162.475 296.698 210.304 162.974 262.355 211.254 162.478 
269.848 212.098 161.762 274.079 213.363 162.075 247.995 209.865 163.791 
252.847 210.066 163.472 252.298 209.63 163.718 254.198 209.648 163.708 
256.962 210.135 163.53 256.193 209.645 163.914 259.908 210.082 163.37 
259.486 209.866 163.702 262.274 209.948 163.356 265.253 209.95 163.482 
292.719 209.46 163.285 297.997 209.755 163.723 298.68 209.989 163.957 
298.577 209.854 163.972 247.138 210.24 163.787 246.714 210.074 163.909 
253.45 210.604 163.309 269.985 210.404 163.182 285.469 209.954 162.825 
288.991 209.69 162.964 298.553 210.158 163.888 248.038 210.841 163.664 
249.841 211.475 163.495 250.113 211.097 163.422 256.209 211.274 163.178 
284.198 210.309 163.349 251.174 211.768 163.421 251.586 212.143 163.492 
256.916 211.957 163.155 255.317 212.961 163.445 268.526 213.817 162.649 
244.265 209.436 164.851 244.948 209.367 164.775 247.507 209.149 164.651 
253.665 209.327 163.984 254.023 209.161 164.268 255.888 209.248 164.529 
241.664 210.008 165.062 242.642 210.033 164.792 243.215 209.738 164.941 
244.305 210.003 164.438 259.928 209.757 163.983 299.108 209.981 164.402 
298.891 209.86 164.295 299.105 209.92 164.419 241.229 210.098 164.945 
241.195 210.205 164.951 243.846 210.357 164.474 268.688 210.418 163.624 
299.216 210.277 164.683 299.169 210.005 164.497 241.33 210.296 164.897 
241.643 210.641 164.886 243.375 210.775 164.581 245.316 210.863 164.239 
268.321 210.595 164.12 271.211 210.979 164.068 288.941 210.239 164.164 
242.476 211.079 164.854 242.791 211.355 164.931 247.87 211.873 163.998 
249.948 212.028 163.674 297.577 211.53 164.074 243.394 211.559 164.893 
245.335 211.991 164.659 249.023 212.654 164.159 249.46 213.007 164.322 
250.602 212.678 163.888 252.842 212.875 163.668 251.882 213.398 164.115 
252.321 213.738 164.297 256.5 213.731 163.732 243.795 209.518 164.959 
244.125 209.417 165.059 254.355 209.151 165.064 241.303 210.053 165.003 
241.176 210.128 165.017 243.717 209.593 165.236 259.915 209.723 164.466 
260.683 209.789 164.564 293.247 209.657 164.341 299.076 209.951 164.561 
299.159 210.03 165.043 241.164 210.245 165.04 264.005 210.28 164.81 
299.505 210.292 165.28 241.289 210.411 165.009 271.921 211.403 164.546 
299.726 210.77 165.418 241.847 211.122 165.218 244.238 212.215 165.112 
247.892 212.862 164.607 246.453 213.193 165.482 250.767 213.664 164.612 
249.796 213.983 165.304 250.302 214.24 165.533 251.457 214.129 164.953 
253.038 214.624 165.121 244.995 209.385 165.351 247.72 209.21 165.429 
241.209 210.196 165.115 242.054 210.132 165.483 248.351 209.401 165.843 
252.285 209.367 165.724 256.111 209.485 165.458 256.608 209.754 165.848 
241.276 210.369 165.165 241.475 210.501 165.363 241.62 210.384 165.467 
262.401 210.787 165.966 267.223 211.392 165.483 300.313 211.074 166.305 
241.684 210.987 165.267 241.724 210.964 165.415 300.042 211.972 165.996 
300.535 211.815 166.412 298.324 213.112 165.678 299.736 212.482 166.011 
244.515 212.705 165.749 244.32 212.653 165.965 253.522 215.237 166.072 
258.826 216.153 165.292 287.256 215.96 165.233 243.193 210.273 165.894 
245.067 209.949 166.067 250.945 209.694 166.22 253.989 209.72 166.099 
242.132 210.638 165.759 243.326 210.675 166.152 249.643 210.099 166.617 
251.611 210.137 166.622 298.769 210.109 166.497 300.117 210.665 166.681 
250.261 210.603 166.956 252.303 210.675 166.994 256.441 210.759 166.883 
293.497 210.773 166.678 300.511 210.839 167.567 291.331 211.576 167.132 
301.096 212.408 166.941 302.156 212.561 167.67 303.358 212.797 168.391 
243.502 212.117 166.071 302.711 213.069 167.944 243.811 212.373 165.988 
244.26 212.557 166.152 273.904 213.705 166.614 244.634 212.739 166.14 
248.206 213.893 166.264 249.394 214.205 166.573 252.112 214.928 166.381 
257.456 216.863 166.911 259.243 217.971 167.218 243.863 211.051 166.392 
244.662 210.909 166.544 246.35 210.727 166.766 244.014 211.877 166.418 
245.984 211.704 166.94 247.885 211.757 167.203 248.889 211.699 167.293 
303.173 212.19 168.799 244.66 212.593 166.315 302.646 214.008 168.181 
303.799 213.98 168.75 248.474 213.897 166.707 254.968 215.65 167.061 
255.912 216.023 167.301 258.608 217.712 167.818 259.44 218.657 168.224 
268.916 221.901 168.074 299.167 210.948 168.85 300.574 210.955 168.589 
301.234 211.167 168.843 305.145 212.946 170.059 247.726 212.886 167.13 
252.448 213.284 167.72 259.366 213.339 168.145 304.831 213.825 169.393 
305.94 213.67 170.281 257.134 214.099 168.266 249.159 213.825 167.016 
250.006 213.935 167.116 253.191 214.487 167.519 256.187 214.825 168.118 
302.824 215.065 168.868 305.078 214.748 169.806 254.096 215.086 167.365 
257.305 216.324 168.041 300.831 216.664 169.259 259.13 217.92 168.543 
259.61 218.852 168.844 259.712 219.275 168.878 259.588 218.984 168.643 
259.854 219.582 168.988 259.999 219.884 169.008 260.253 220.258 169.157 
260.194 220.111 168.878 260.397 220.525 169.078 260.494 220.681 169.239 
260.592 220.599 168.92 261.043 220.77 168.754 274.799 222.035 168.281 
264.308 221.691 168.509 267.416 222.148 168.5 271.546 222.344 168.544 
265.917 222.204 168.91 275.168 222.7 169.195 304.038 212.185 170.046 
306.068 213.484 170.59 306.381 213.656 170.949 306.199 214.149 170.493 
306.417 214.183 170.803 305.426 214.956 170.142 277.56 216.915 169.669 
261.291 218.204 169.43 271.443 218.515 170.038 260.059 219.79 169.139 
260.4 220.097 169.319 263.653 219.388 169.928 260.66 220.824 169.349 
260.713 220.924 169.28 261.068 221.124 169.234 261.478 221.357 169.208 
261.453 221.333 169.33 278.667 222.589 169.353 261.753 221.466 169.284 
262.295 221.572 169.266 262.993 221.679 169.354 263.987 221.882 169.311 
264.867 222.137 169.318 264.736 222.052 169.512 265.532 222.259 169.257 
273.639 222.873 169.589 275.694 222.892 169.679 265.258 222.21 169.475 
269.924 222.767 169.885 276.229 222.994 170.172 279.305 222.979 170.348 
306.726 213.976 171.673 305.658 215.58 170.943 306.57 215.217 171.723 
272.143 219.098 170.401 266.185 219.877 170.219 271.087 219.958 170.655 
274.037 219.413 170.789 275.629 219.278 170.995 270.754 220.475 170.761 
260.885 220.996 169.362 261.294 221.124 169.43 268.599 221.012 170.594 
261.826 221.392 169.411 266.363 221.762 170.132 289.516 222.381 171.147 
290.321 222.276 171.284 267.238 222.005 170.254 267.903 222.221 170.272 
268.287 222.492 170.052 270.214 222.592 170.419 276.739 222.988 170.641 
304.956 212.482 171.391 306.084 213.119 171.897 306.903 214.494 172.401 
306.704 215.251 172.091 304.222 217.347 171.819 273.882 220.975 171.325 
275.677 220.431 171.433 272.975 221.461 171.28 273.568 222.289 171.278 
271.879 222.592 170.644 273.848 222.517 171.206 275.005 222.702 171.197 
290.585 222.697 172.247 275.314 222.866 170.977 280.485 222.884 171.434 
304.251 212.381 172.032 301.258 212.818 173.017 306.712 213.814 172.515 
297.353 213.81 172.646 306.874 214.249 172.768 306.338 216.283 173.062 
302.2 218.863 172.539 303.139 218.494 172.918 305.184 217.302 173.084 
274.401 221.454 171.445 273.623 221.874 171.361 277.307 221.625 171.799 
278.716 222.579 171.599 282.484 222.571 172.51 288.722 222.932 172.092 
290.887 222.689 172.64 285.391 222.981 172.464 306.042 213.317 173.094 
306.851 214.969 173.578 295.123 215.953 173.817 306.752 215.505 173.74 
305.96 216.755 173.796 291.239 218.085 173.876 286.872 219.891 173.508 
282.478 220.953 172.926 299.443 220.454 173.372 281.479 221.618 172.7 
297.477 221.185 173.329 283.443 221.838 173.119 283.236 222.291 172.866 
284.533 222.293 173.239 295.377 221.643 173.852 296.451 221.445 173.762 
284.822 222.506 173.154 286.506 222.821 172.997 286.844 222.658 173.209 
293.146 222.169 173.551 290.722 222.567 173.31 303.198 213.323 174.362 
305.319 213.379 173.967 306.375 213.722 173.47 306.603 214.178 173.778 
306.714 215.204 174.195 289.552 220.077 174.052 302.141 219.109 174.215 
288.349 220.934 173.882 300.234 220.088 174.174 285.304 221.821 173.451 
290.237 221.299 174.131 297.923 221.09 173.966 286.801 222.263 173.443 
289.775 221.937 173.839 291.492 221.712 174.223 294.082 221.779 174.134 
294.826 221.501 174.381 297.644 221.088 174.315 292.439 221.924 174.083 
305.763 213.797 174.382 306.493 214.931 174.621 306.466 215.824 174.715 
306.108 216.396 174.663 306.267 216.079 174.841 297.638 218.069 175.473 
[...]
POINT_DATA 896
COLOR_SCALARS scalars 3
0.8 0.8 0.8 0.8 0.8 0.8 0.8 0.8 0.8 
0.8 0.8 0.8 0.8 0.8 0.8 
0.8 0.8 0.8 0.8 0.8 0.8 
0.8 0.8 0.8 0.8 0.8 0.8 
0.8 0.8 0.8 0.8 0.8 0.8 
0.8 0.8 0.8 0.8 0.8 0.8 
0.8 0.8 0.8 0.8 0.8 0.8 
0.8 0.8 0.8 0.8 0.8 0.8 
0.8 0.8 0.8 0.8 0.8 0.8 
0.8 0.8 0.8 0.8 0.8 0.8 
0.8 0.8 0.8 0.8 0.8 0.8 
0.8 0.8 0.8 0.8 0.8 0.8 
0.8 0.8 0.8 0.8 0.8 0.8 
0.8 0.8 0.8 0.8 0.8 0.8 
0.8 0.8 0.8 0.8 0.8 0.8 
0.8 0.8 0.8 0.8 0.8 0.8 
0.8 0.8 0.8 0.8 0.8 0.8 
0.8 0.8 0.8 0.8 0.8 0.8 
0.8 0.8 0.8 0.8 0.8 0.8 
0.8 0.8 0.8 0.8 0.8 0.8 
0.8 0.8 0.8 0.8 0.8 0.8 
0.8 0.8 0.8 0.8 0.8 0.8 
0.8 0.8 0.8 0.8 0.8 0.8 
0.8 0.8 0.8 0.8 0.8 0.8 
0.8 0.8 0.8 0.8 0.8 0.8 
0.8 0.8 0.8 0.8 0.8 0.8 
0.8 0.8 0.8 0.8 0.8 0.8 
0.8 0.8 0.8 0.8 0.8 0.8 
0.8 0.8 0.8 0.8 0.8 0.8 
0.8 0.8 0.8 0.8 0.8 0.8 
0.8 0.8 0.8 0.8 0.8 0.8 
0.8 0.8 0.8 0.8 0.8 0.8 
0.8 0.8 0.8 0.8 0.8 0.8 
0.8 0.8 0.8 0.8 0.8 0.8 
0.8 0.8 0.8 0.8 0.8 0.8 
0.8 0.8 0.8 0.8 0.8 0.8 
0.8 0.8 0.8 0.8 0.8 0.8 
0.8 0.8 0.8 0.8 0.8 0.8 
0.8 0.8 0.8 0.8 0.8 0.8 
0.8 0.8 0.8 0.8 0.8 0.8 
0.8 0.8 0.8 0.8 0.8 0.8 
0.8 0.8 0.8 0.8 0.8 0.8 
0.8 0.8 0.8 0.8 0.8 0.8 
0.8 0.8 0.8 0.8 0.8 0.8 
0.8 0.8 0.8 0.8 0.8 0.8 
0.8 0.8 0.8 0.8 0.8 0.8 
0.8 0.8 0.8 0.8 0.8 0.8 
0.8 0.8 0.8 0.8 0.8 0.8 
0.8 0.8 0.8 0.8 0.8 0.8 
0.8 0.8 0.8 0.8 0.8 0.8 
0.8 0.8 0.8 0.8 0.8 0.8 
0.8 0.8 0.8 0.8 0.8 0.8 
0.8 0.8 0.8 0.8 0.8 0.8 
0.8 0.8 0.8 0.8 0.8 0.8 
0.8 0.8 0.8 0.8 0.8 0.8 
0.8 0.8 0.8 0.8 0.8 0.8 
0.8 0.8 0.8 0.8 0.8 0.8 
0.8 0.8 0.8 0.8 0.8 0.8 
0.8 0.8 0.8 0.8 0.8 0.8 
0.8 0.8 0.8 0.8 0.8 0.8 
0.8 0.8 0.8 0.8 0.8 0.8 
0.8 0.8 0.8 0.8 0.8 0.8 
0.8 0.8 0.8 0.8 0.8 0.8 
0.8 0.8 0.8 0.8 0.8 0.8 
0.8 0.8 0.8 0.8 0.8 0.8 
0.8 0.8 0.8 0.8 0.8 0.8 
0.8 0.8 0.8 0.8 0.8 0.8 
0.8 0.8 0.8 0.8 0.8 0.8 
0.8 0.8 0.8 0.8 0.8 0.8 
0.8 0.8 0.8 0.8 0.8 0.8 
0.8 0.8 0.8 0.8 0.8 0.8 
0.8 0.8 0.8 0.8 0.8 0.8 
0.8 0.8 0.8 0.8 0.8 0.8 
0.8 0.8 0.8 0.8 0.8 0.8 
0.8 0.8 0.8 0.8 0.8 0.8 
0.8 0.8 0.8 0.8 0.8 0.8 
0.8 0.8 0.8 0.8 0.8 0.8 
0.8 0.8 0.8 0.8 0.8 0.8 
0.8 0.8 0.8 0.8 0.8 0.8 
0.8 0.8 0.8 0.8 0.8 0.8 
0.8 0.8 0.8 0.8 0.8 0.8 
0.8 0.8 0.8 0.8 0.8 0.8 
0.8 0.8 0.8 0.8 0.8 0.8 
0.8 0.8 0.8 0.8 0.8 0.8 
0.8 0.8 0.8 0.8 0.8 0.8 
0.8 0.8 0.8 0.8 0.8 0.8 
0.8 0.8 0.8 0.8 0.8 0.8 
0.8 0.8 0.8 0.8 0.8 0.8 
0.8 0.8 0.8 0.8 0.8 0.8 
0.8 0.8 0.8 0.8 0.8 0.8 
0.8 0.8 0.8 0.8 0.8 0.8 
0.8 0.8 0.8 0.8 0.8 0.8 
0.8 0.8 0.8 0.8 0.8 0.8 
0.8 0.8 0.8 0.8 0.8 0.8 
0.8 0.8 0.8 0.8 0.8 0.8 
0.8 0.8 0.8 0.8 0.8 0.8 
0.8 0.8 0.8 0.8 0.8 0.8 
0.8 0.8 0.8 0.8 0.8 0.8 
0.8 0.8 0.8 0.8 0.8 0.8 
0.8 0.8 0.8 0.8 0.8 0.8 
0.8 0.8 0.8 0.8 0.8 0.8 
0.8 0.8 0.8 0.8 0.8 0.8 
0.8 0.8 0.8 0.8 0.8 0.8 
0.8 0.8 0.8 0.8 0.8 0.8 
0.8 0.8 0.8 0.8 0.8 0.8 
0.8 0.8 0.8 0.8 0.8 0.8 
0.8 0.8 0.8 0.8 0.8 0.8 
0.8 0.8 0.8 0.8 0.8 0.8 
0.8 0.8 0.8 0.8 0.8 0.8 
0.8 0.8 0.8 0.8 0.8 0.8 
0.8 0.8 0.8 0.8 0.8 0.8 
0.8 0.8 0.8 0.8 0.8 0.8 
0.8 0.8 0.8 0.8 0.8 0.8 
0.8 0.8 0.8 0.8 0.8 0.8 
0.8 0.8 0.8 0.8 0.8 0.8 
0.8 0.8 0.8 0.8 0.8 0.8 
0.8 0.8 0.8 0.8 0.8 0.8 
0.8 0.8 0.8 0.8 0.8 0.8 
0.8 0.8 0.8 0.8 0.8 0.8 
0.8 0.8 0.8 0.8 0.8 0.8 
0.8 0.8 0.8 0.8 0.8 0.8 
0.8 0.8 0.8 0.8 0.8 0.8 
0.8 0.8 0.8 0.8 0.8 0.8 
0.8 0.8 0.8 0.8 0.8 0.8 
0.8 0.8 0.8 0.8 0.8 0.8 
0.8 0.8 0.8 0.8 0.8 0.8 
0.8 0.8 0.8 0.8 0.8 0.8 
0.8 0.8 0.8 0.8 0.8 0.8 
0.8 0.8 0.8 0.8 0.8 0.8 
0.8 0.8 0.8 0.8 0.8 0.8 
0.8 0.8 0.8 0.8 0.8 0.8 
0.8 0.8 0.8 0.8 0.8 0.8 
0.8 0.8 0.8 0.8 0.8 0.8 
0.8 0.8 0.8 0.8 0.8 0.8 
0.8 0.8 0.8 0.8 0.8 0.8 
0.8 0.8 0.8 0.8 0.8 0.8 
0.8 0.8 0.8 0.8 0.8 0.8 
0.8 0.8 0.8 0.8 0.8 0.8 
0.8 0.8 0.8 0.8 0.8 0.8 
0.8 0.8 0.8 0.8 0.8 0.8 
0.8 0.8 0.8 0.8 0.8 0.8 
0.8 0.8 0.8 0.8 0.8 0.8 
0.8 0.8 0.8 0.8 0.8 0.8 
0.8 0.8 0.8 0.8 0.8 0.8 
0.8 0.8 0.8 0.8 0.8 0.8 
0.8 0.8 0.8 0.8 0.8 0.8 
0.8 0.8 0.8 0.8 0.8 0.8 
0.8 0.8 0.8 0.8 0.8 0.8 
0.8 0.8 0.8 0.8 0.8 0.8 
0.8 0.8 0.8 0.8 0.8 0.8 
0.8 0.8 0.8 0.8 0.8 0.8 
0.8 0.8 0.8 0.8 0.8 0.8 
0.8 0.8 0.8 0.8 0.8 0.8 
0.8 0.8 0.8 0.8 0.8 0.8 
0.8 0.8 0.8 0.8 0.8 0.8 
0.8 0.8 0.8 0.8 0.8 0.8 
0.8 0.8 0.8 0.8 0.8 0.8 
0.8 0.8 0.8 0.8 0.8 0.8 
0.8 0.8 0.8 0.8 0.8 0.8 
0.8 0.8 0.8 0.8 0.8 0.8 
0.8 0.8 0.8 0.8 0.8 0.8 
0.8 0.8 0.8 0.8 0.8 0.8 
0.8 0.8 0.8 0.8 0.8 0.8 
0.8 0.8 0.8 0.8 0.8 0.8 
0.8 0.8 0.8 0.8 0.8 0.8 
0.8 0.8 0.8 0.8 0.8 0.8 
0.8 0.8 0.8 0.8 0.8 0.8 
0.8 0.8 0.8 0.8 0.8 0.8 
0.8 0.8 0.8 0.8 0.8 0.8 
0.8 0.8 0.8 0.8 0.8 0.8 
0.8 0.8 0.8 0.8 0.8 0.8 
0.8 0.8 0.8 0.8 0.8 0.8 
0.8 0.8 0.8 0.8 0.8 0.8 
0.8 0.8 0.8 0.8 0.8 0.8 
0.8 0.8 0.8 0.8 0.8 0.8 
0.8 0.8 0.8 0.8 0.8 0.8 
0.8 0.8 0.8 0.8 0.8 0.8 
0.8 0.8 0.8 0.8 0.8 0.8 
0.8 0.8 0.8 0.8 0.8 0.8 
0.8 0.8 0.8 0.8 0.8 0.8 
0.8 0.8 0.8 0.8 0.8 0.8 
0.8 0.8 0.8 0.8 0.8 0.8 
0.8 0.8 0.8 0.8 0.8 0.8 
0.8 0.8 0.8 0.8 0.8 0.8 
0.8 0.8 0.8 0.8 0.8 0.8 
0.8 0.8 0.8 0.8 0.8 0.8 
0.8 0.8 0.8 0.8 0.8 0.8 
0.8 0.8 0.8 0.8 0.8 0.8 
0.8 0.8 0.8 0.8 0.8 0.8 
0.8 0.8 0.8 0.8 0.8 0.8 
0.8 0.8 0.8 0.8 0.8 0.8 
0.8 0.8 0.8 0.8 0.8 0.8 
0.8 0.8 0.8 0.8 0.8 0.8 
0.8 0.8 0.8 0.8 0.8 0.8 
0.8 0.8 0.8 0.8 0.8 0.8 
0.8 0.8 0.8 0.8 0.8 0.8 
0.8 0.8 0.8 0.8 0.8 0.8 
0.8 0.8 0.8 0.8 0.8 0.8 
0.8 0.8 0.8 0.8 0.8 0.8 
0.8 0.8 0.8 0.8 0.8 0.8 
0.8 0.8 0.8 0.8 0.8 0.8 
0.8 0.8 0.8 0.8 0.8 0.8 
0.8 0.8 0.8 0.8 0.8 0.8 
0.8 0.8 0.8 0.8 0.8 0.8 
0.8 0.8 0.8 0.8 0.8 0.8 
0.8 0.8 0.8 0.8 0.8 0.8 
0.8 0.8 0.8 0.8 0.8 0.8 
0.8 0.8 0.8 0.8 0.8 0.8 
0.8 0.8 0.8 0.8 0.8 0.8 
0.8 0.8 0.8 0.8 0.8 0.8 
0.8 0.8 0.8 0.8 0.8 0.8 
0.8 0.8 0.8 0.8 0.8 0.8 
0.8 0.8 0.8 0.8 0.8 0.8 
0.8 0.8 0.8 0.8 0.8 0.8 
0.8 0.8 0.8 0.8 0.8 0.8 
0.8 0.8 0.8 0.8 0.8 0.8 
0.8 0.8 0.8 0.8 0.8 0.8 
0.8 0.8 0.8 0.8 0.8 0.8 
0.8 0.8 0.8 0.8 0.8 0.8 
0.8 0.8 0.8 0.8 0.8 0.8 
0.8 0.8 0.8 0.8 0.8 0.8 
0.8 0.8 0.8 0.8 0.8 0.8 
0.8 0.8 0.8 0.8 0.8 0.8 
0.8 0.8 0.8 0.8 0.8 0.8 
0.8 0.8 0.8 0.8 0.8 0.8 
0.8 0.8 0.8 0.8 0.8 0.8 
0.8 0.8 0.8 0.8 0.8 0.8 
0.8 0.8 0.8 0.8 0.8 0.8 
0.8 0.8 0.8 0.8 0.8 0.8 
0.8 0.8 0.8 0.8 0.8 0.8 
0.8 0.8 0.8 0.8 0.8 0.8 
0.8 0.8 0.8 0.8 0.8 0.8 
0.8 0.8 0.8 0.8 0.8 0.8 
0.8 0.8 0.8 0.8 0.8 0.8 
0.8 0.8 0.8 0.8 0.8 0.8 
0.8 0.8 0.8 0.8 0.8 0.8 
0.8 0.8 0.8 0.8 0.8 0.8 
0.8 0.8 0.8 0.8 0.8 0.8 
0.8 0.8 0.8 0.8 0.8 0.8 
0.8 0.8 0.8 0.8 0.8 0.8 
0.8 0.8 0.8 0.8 0.8 0.8 
0.8 0.8 0.8 0.8 0.8 0.8 
0.8 0.8 0.8 0.8 0.8 0.8 
0.8 0.8 0.8 0.8 0.8 0.8 
0.8 0.8 0.8 0.8 0.8 0.8 
0.8 0.8 0.8 0.8 0.8 0.8 
0.8 0.8 0.8 0.8 0.8 0.8 
0.8 0.8 0.8 0.8 0.8 0.8 
0.8 0.8 0.8 0.8 0.8 0.8 
0.8 0.8 0.8 0.8 0.8 0.8 
0.8 0.8 0.8 0.8 0.8 0.8 
0.8 0.8 0.8 0.8 0.8 0.8 
0.8 0.8 0.8 0.8 0.8 0.8 
0.8 0.8 0.8 0.8 0.8 0.8 
0.8 0.8 0.8 0.8 0.8 0.8 
0.8 0.8 0.8 0.8 0.8 0.8 
0.8 0.8 0.8 0.8 0.8 0.8 
0.8 0.8 0.8 0.8 0.8 0.8 
0.8 0.8 0.8 0.8 0.8 0.8 
0.8 0.8 0.8 0.8 0.8 0.8 
0.8 0.8 0.8 0.8 0.8 0.8 
0.8 0.8 0.8 0.8 0.8 0.8 
0.8 0.8 0.8 0.8 0.8 0.8 
0.8 0.8 0.8 0.8 0.8 0.8 
0.8 0.8 0.8 0.8 0.8 0.8 
0.8 0.8 0.8 0.8 0.8 0.8 
0.8 0.8 0.8 0.8 0.8 0.8 
0.8 0.8 0.8 0.8 0.8 0.8 
0.8 0.8 0.8 0.8 0.8 0.8 
0.8 0.8 0.8 0.8 0.8 0.8 
0.8 0.8 0.8 0.8 0.8 0.8 
0.8 0.8 0.8 0.8 0.8 0.8 
0.8 0.8 0.8 0.8 0.8 0.8 
0.8 0.8 0.8 0.8 0.8 0.8 
0.8 0.8 0.8 0.8 0.8 0.8 
0.8 0.8 0.8 0.8 0.8 0.8 
0.8 0.8 0.8 0.8 0.8 0.8 
0.8 0.8 0.8 0.8 0.8 0.8 
0.8 0.8 0.8 0.8 0.8 0.8 
0.8 0.8 0.8 0.8 0.8 0.8 
0.8 0.8 0.8 0.8 0.8 0.8 
0.8 0.8 0.8 0.8 0.8 0.8 
0.8 0.8 0.8 0.8 0.8 0.8 
0.8 0.8 0.8 0.8 0.8 0.8 
0.8 0.8 0.8 0.8 0.8 0.8 
0.8 0.8 0.8 0.8 0.8 0.8 
0.8 0.8 0.8 0.8 0.8 0.8 
0.8 0.8 0.8 0.8 0.8 0.8 
0.8 0.8 0.8 0.8 0.8 0.8 
0.8 0.8 0.8 0.8 0.8 0.8 
0.8 0.8 0.8 0.8 0.8 0.8 
0.8 0.8 0.8 0.8 0.8 0.8 
0.8 0.8 0.8 0.8 0.8 0.8 
0.8 0.8 0.8 0.8 0.8 0.8 
0.8 0.8 0.8 0.8 0.8 0.8 
0.8 0.8 0.8 0.8 0.8 0.8 
0.8 0.8 0.8 0.8 0.8 0.8 
0.8 0.8 0.8 0.8 0.8 0.8 
0.8 0.8 0.8 0.8 0.8 0.8 
0.8 0.8 0.8 0.8 0.8 0.8 
0.8 0.8 0.8 0.8 0.8 0.8 
0.8 0.8 0.8 0.8 0.8 0.8 
0.8 0.8 0.8 0.8 0.8 0.8 
0.8 0.8 0.8 0.8 0.8 0.8 
0.8 0.8 0.8 0.8 0.8 0.8 
0.8 0.8 0.8 0.8 0.8 0.8 
0.8 0.8 0.8 0.8 0.8 0.8 
0.8 0.8 0.8 0.8 0.8 0.8 
0.8 0.8 0.8 0.8 0.8 0.8 
0.8 0.8 0.8 0.8 0.8 0.8 
0.8 0.8 0.8 0.8 0.8 0.8 
0.8 0.8 0.8 0.8 0.8 0.8 
0.8 0.8 0.8 0.8 0.8 0.8 
0.8 0.8 0.8 0.8 0.8 0.8 
0.8 0.8 0.8 0.8 0.8 0.8 
0.8 0.8 0.8 0.8 0.8 0.8 
0.8 0.8 0.8 0.8 0.8 0.8 
0.8 0.8 0.8 0.8 0.8 0.8 
0.8 0.8 0.8 0.8 0.8 0.8 
0.8 0.8 0.8 0.8 0.8 0.8 
0.8 0.8 0.8 0.8 0.8 0.8 
0.8 0.8 0.8 0.8 0.8 0.8 
0.8 0.8 0.8 0.8 0.8 0.8 
0.8 0.8 0.8 0.8 0.8 0.8 
0.8 0.8 0.8 0.8 0.8 0.8 
0.8 0.8 0.8 0.8 0.8 0.8 
0.8 0.8 0.8 0.8 0.8 0.8 
0.8 0.8 0.8 0.8 0.8 0.8 
0.8 0.8 0.8 0.8 0.8 0.8 
0.8 0.8 0.8 0.8 0.8 0.8 
0.8 0.8 0.8 0.8 0.8 0.8 
0.8 0.8 0.8 0.8 0.8 0.8 
0.8 0.8 0.8 0.8 0.8 0.8 
0.8 0.8 0.8 0.8 0.8 0.8 
0.8 0.8 0.8 0.8 0.8 0.8 
0.8 0.8 0.8 0.8 0.8 0.8 
0.8 0.8 0.8 0.8 0.8 0.8 
0.8 0.8 0.8 0.8 0.8 0.8 
0.8 0.8 0.8 0.8 0.8 0.8 
0.8 0.8 0.8 0.8 0.8 0.8 
0.8 0.8 0.8 0.8 0.8 0.8 
0.8 0.8 0.8 0.8 0.8 0.8 
0.8 0.8 0.8 0.8 0.8 0.8 
0.8 0.8 0.8 0.8 0.8 0.8 
0.8 0.8 0.8 0.8 0.8 0.8 
0.8 0.8 0.8 0.8 0.8 0.8 
0.8 0.8 0.8 0.8 0.8 0.8 
0.8 0.8 0.8 0.8 0.8 0.8 
0.8 0.8 0.8 0.8 0.8 0.8 
0.8 0.8 0.8 0.8 0.8 0.8 
0.8 0.8 0.8 0.8 0.8 0.8 
0.8 0.8 0.8 0.8 0.8 0.8 
0.8 0.8 0.8 0.8 0.8 0.8 
0.8 0.8 0.8 0.8 0.8 0.8 
0.8 0.8 0.8 0.8 0.8 0.8 
0.8 0.8 0.8 0.8 0.8 0.8 
0.8 0.8 0.8 0.8 0.8 0.8 
0.8 0.8 0.8 0.8 0.8 0.8 
0.8 0.8 0.8 0.8 0.8 0.8 
0.8 0.8 0.8 0.8 0.8 0.8 
0.8 0.8 0.8 0.8 0.8 0.8 
0.8 0.8 0.8 0.8 0.8 0.8 
0.8 0.8 0.8 0.8 0.8 0.8 
0.8 0.8 0.8 0.8 0.8 0.8 
0.8 0.8 0.8 0.8 0.8 0.8 
0.8 0.8 0.8 0.8 0.8 0.8 
0.8 0.8 0.8 0.8 0.8 0.8 
0.8 0.8 0.8 0.8 0.8 0.8 
0.8 0.8 0.8 0.8 0.8 0.8 
0.8 0.8 0.8 0.8 0.8 0.8 
0.8 0.8 0.8 0.8 0.8 0.8 
0.8 0.8 0.8 0.8 0.8 0.8 
0.8 0.8 0.8 0.8 0.8 0.8 
0.8 0.8 0.8 0.8 0.8 0.8 
0.8 0.8 0.8 0.8 0.8 0.8 
0.8 0.8 0.8 0.8 0.8 0.8 
0.8 0.8 0.8 0.8 0.8 0.8 
0.8 0.8 0.8 0.8 0.8 0.8 
0.8 0.8 0.8 0.8 0.8 0.8 
0.8 0.8 0.8 0.8 0.8 0.8 
0.8 0.8 0.8 0.8 0.8 0.8 
0.8 0.8 0.8 0.8 0.8 0.8 
0.8 0.8 0.8 0.8 0.8 0.8 
0.8 0.8 0.8 0.8 0.8 0.8 
0.8 0.8 0.8 0.8 0.8 0.8 
0.8 0.8 0.8 0.8 0.8 0.8 
0.8 0.8 0.8 0.8 0.8 0.8 
0.8 0.8 0.8 0.8 0.8 0.8 
0.8 0.8 0.8 0.8 0.8 0.8 
0.8 0.8 0.8 0.8 0.8 0.8 
0.8 0.8 0.8 0.8 0.8 0.8 
0.8 0.8 0.8 0.8 0.8 0.8 
0.8 0.8 0.8 0.8 0.8 0.8 
0.8 0.8 0.8 0.8 0.8 0.8 
0.8 0.8 0.8 0.8 0.8 0.8 
0.8 0.8 0.8 0.8 0.8 0.8 
0.8 0.8 0.8 0.8 0.8 0.8 
0.8 0.8 0.8 0.8 0.8 0.8 
0.8 0.8 0.8 0.8 0.8 0.8 
0.8 0.8 0.8 0.8 0.8 0.8 
0.8 0.8 0.8 0.8 0.8 0.8 
0.8 0.8 0.8 0.8 0.8 0.8 
0.8 0.8 0.8 0.8 0.8 0.8 
0.8 0.8 0.8 0.8 0.8 0.8 
0.8 0.8 0.8 0.8 0.8 0.8 
0.8 0.8 0.8 0.8 0.8 0.8 
0.8 0.8 0.8 0.8 0.8 0.8 
0.8 0.8 0.8 0.8 0.8 0.8 
0.8 0.8 0.8 0.8 0.8 0.8 
0.8 0.8 0.8 0.8 0.8 0.8 
0.8 0.8 0.8 0.8 0.8 0.8 
0.8 0.8 0.8 0.8 0.8 0.8 
0.8 0.8 0.8 0.8 0.8 0.8 
0.8 0.8 0.8 0.8 0.8 0.8 
0.8 0.8 0.8 0.8 0.8 0.8 
0.8 0.8 0.8 0.8 0.8 0.8 
0.8 0.8 0.8 0.8 0.8 0.8 
0.8 0.8 0.8 0.8 0.8 0.8 
0.8 0.8 0.8 0.8 0.8 0.8 
0.8 0.8 0.8 0.8 0.8 0.8 
0.8 0.8 0.8 0.8 0.8 0.8 
0.8 0.8 0.8 0.8 0.8 0.8 
0.8 0.8 0.8 0.8 0.8 0.8 
0.8 0.8 0.8 0.8 0.8 0.8 
0.8 0.8 0.8 0.8 0.8 0.8 
0.8 0.8 0.8 0.8 0.8 0.8 
0.8 0.8 0.8 0.8 0.8 0.8 
0.8 0.8 0.8 0.8 0.8 0.8 
0.8 0.8 0.8 0.8 0.8 0.8 
0.8 0.8 0.8 0.8 0.8 0.8 
0.8 0.8 0.8 0.8 0.8 0.8 
0.8 0.8 0.8 0.8 0.8 0.8 
0.8 0.8 0.8 0.8 0.8 0.8 
0.8 0.8 0.8 0.8 0.8 0.8 
0.8 0.8 0.8 0.8 0.8 0.8 
0.8 0.8 0.8 0.8 0.8 0.8 
0.8 0.8 0.8 0.8 0.8 0.8 
0.8 0.8 0.8 0.8 0.8 0.8 
0.8 0.8 0.8 0.8 0.8 0.8 
0.8 0.8 0.8 0.8 0.8 0.8 
0.8 0.8 0.8 0.8 0.8 0.8 
0.8 0.8 0.8 0.8 0.8 0.8 
0.8 0.8 0.8 0.8 0.8 0.8 
0.8 0.8 0.8 0.8 0.8 0.8 
0.8 0.8 0.8 0.8 0.8 0.8 
0.8 0.8 0.8 0.8 0.8 0.8 
0.8 0.8 0.8 0.8 0.8 0.8 
0.8 0.8 0.8 
NORMALS Normals float
-0.0794858 -0.634478 -0.768843 -0.0587601 -0.883497 -0.464736 -0.109245 -0.604782 -0.788863 
-0.0221914 -0.615745 -0.787633 0.00819974 -0.447196 -0.894398 -0.0025983 -0.927699 -0.373319 
0.107889 -0.592954 -0.797976 0.219613 -0.440364 -0.870546 -0.0948271 -0.100797 -0.990378 
-0.0131416 0.0791949 -0.996773 0.156998 0.0526889 -0.986192 0.250793 -0.968036 -0.00289618 
-0.237556 -0.745072 0.623246 -0.254198 -0.735484 0.62805 0.14967 -0.319655 -0.935639 
0.0469252 -0.949301 0.310845 -0.0247844 -0.322623 -0.946203 0.0833254 -0.985155 -0.150087 
-0.0523348 -0.97537 -0.214275 -0.0568045 -0.996832 -0.0556628 -0.0358865 -0.999356 0.000208185 
0.0297365 -0.97317 -0.228158 0.16416 -0.280807 -0.945621 0.107376 -0.86062 -0.497798 
0.18038 -0.647174 -0.740695 0.24725 -0.630658 -0.735621 -0.384598 0.570819 -0.725431 
-0.679421 -0.447941 -0.581151 -0.178 0.347489 -0.920634 0.234151 0.25453 -0.93829 
0.174931 0.00977606 -0.984532 0.299994 -0.0336866 -0.953346 0.0547436 0.436195 -0.898185 
0.213348 0.293483 -0.931853 0.0463547 -0.845089 -0.532612 -0.00157309 -0.40419 -0.914673 
-0.97121 0.1673 0.169593 -0.0428405 -0.835701 -0.547511 -0.755671 -0.491021 0.433428 
-0.217826 -0.880221 0.421618 0.0682001 -0.947982 -0.310933 0.263879 -0.387745 -0.883188 
0.127952 -0.877897 -0.461439 0.108701 -0.947439 -0.300905 0.205591 -0.516331 -0.831345 
0.283449 -0.620575 -0.731125 -0.189779 -0.464069 -0.865231 -0.167607 -0.710446 -0.683502 
-0.208627 -0.102076 -0.972654 0.0263575 -0.119522 -0.992482 -0.103355 -0.380923 -0.918812 
-0.250475 -0.49604 -0.831389 -0.251753 -0.822298 -0.510339 -0.110123 -0.960928 0.25395 
0.2953 0.105181 -0.949597 -0.143505 0.173231 -0.97437 -0.223614 0.0281554 -0.974271 
0.182474 0.516837 -0.836411 -0.0918336 -0.572708 -0.8146 0.040263 -0.992854 -0.112335 
-0.0477857 -0.992763 -0.110175 0.144169 -0.988353 -0.0487117 -0.201419 -0.923 0.327874 
0.000407422 -0.999556 0.0297861 0.41213 -0.219719 -0.884236 0.164274 -0.901095 -0.401301 
0.422076 -0.412802 -0.807122 -0.228758 -0.0201362 -0.973275 -0.0253076 -0.638509 -0.769198 
0.141651 -0.989168 0.0384859 0.345793 0.315813 -0.883566 -0.0820285 -0.142978 -0.986321 
-0.123491 0.189053 -0.974171 -0.0587443 0.462315 -0.884768 -0.102434 -0.304913 -0.946856 
-0.19872 -0.269308 -0.942329 -0.142134 -0.483133 -0.863933 0.0598971 -0.556329 -0.828801 
0.0339294 -0.580379 -0.813639 0.0922299 -0.700697 -0.707472 -0.0926147 -0.66238 -0.743421 
-0.0170538 -0.904942 -0.425194 -0.0332325 -0.908268 -0.417067 0.000606996 -0.994123 0.108259 
-0.0949934 -0.981097 0.168596 0.277022 -0.880123 -0.385541 0.576491 -0.287781 -0.764749 
0.390965 -0.819644 -0.418724 -0.10281 -0.372936 -0.922144 -0.159048 -0.20308 -0.966159 
-0.145598 -0.0139745 -0.989245 0.116977 -0.987395 -0.106614 -0.0575272 -0.867698 0.493752 
0.00390269 -0.96708 0.254444 0.577062 0.266475 -0.772004 -0.203775 0.182971 -0.961768 
-0.0803548 0.13851 -0.987096 -0.0353599 0.0447528 -0.998372 -0.0246538 -0.111566 -0.993451 
-0.0365767 -0.86869 0.494004 -0.0837333 0.143158 -0.986151 -0.0798142 0.363257 -0.928264 
-0.041044 -0.0227686 -0.998898 -0.12538 0.430538 -0.893822 -0.0775501 0.479908 -0.873884 
-0.23336 -0.740156 -0.630644 -0.0545664 -0.85186 -0.52092 0.00402722 -0.997968 -0.0635979 
0.00146244 -0.731404 -0.681943 0.0301569 -0.910364 -0.412707 0.129699 -0.968212 -0.213879 
-0.131093 -0.97037 -0.202968 -0.163157 -0.599997 -0.783188 -0.278604 -0.932854 -0.228394 
-0.250969 -0.295667 -0.921735 0.0925363 -0.957032 -0.27482 0.736575 -0.106964 -0.667844 
0.346725 -0.92453 -0.158197 0.685335 -0.684707 -0.247975 -0.378563 -0.612611 -0.693829 
-0.755727 0.132528 -0.641338 -0.195337 -0.0929587 -0.976321 0.212543 -0.885962 0.412186 
0.917178 -0.167768 -0.361438 0.927012 -0.368718 -0.0685246 -0.297886 0.0822294 -0.951053 
-0.411775 0.464409 -0.78407 -0.138493 0.262437 -0.954959 -0.176692 0.229089 -0.957235 
0.256192 -0.851512 0.457486 0.209264 -0.872956 0.440632 -0.220912 -0.825429 0.519485 
-0.246912 0.304013 -0.920114 -0.265483 0.600335 -0.754398 -0.223416 0.450337 -0.864455 
-0.142235 0.369633 -0.918227 0.332841 0.557007 -0.760894 -0.191517 0.526016 -0.828631 
-0.199304 0.48961 -0.848858 -0.240576 0.560279 -0.792597 -0.179915 0.618849 -0.764628 
-0.144306 0.532595 -0.833977 -0.0554417 0.44334 -0.894638 -0.150791 0.585255 -0.796705 
-0.0863118 0.608652 -0.788729 -0.193289 0.460686 -0.866261 -0.31076 -0.940597 -0.136771 
-0.158029 -0.986372 0.0457891 0.0505374 -0.96835 0.244428 -0.324768 -0.880563 0.345159 
-0.867146 -0.495848 0.0468192 -0.239328 -0.820235 0.519554 0.0868621 -0.959142 0.269262 
0.100586 -0.994245 0.0368737 -0.119095 -0.955694 0.269193 0.588763 -0.772035 0.239419 
0.572703 -0.819448 -0.022717 -0.969365 0.23489 0.0718154 0.18002 -0.814684 0.551255 
0.797434 -0.519962 -0.306167 -0.715836 0.575152 -0.395953 0.274436 -0.864388 0.42133 
0.701163 0.166725 -0.693234 -0.497881 0.781244 -0.376526 -0.254978 0.637273 -0.727234 
-0.249644 0.55249 -0.795256 -0.270081 0.822884 -0.499917 -0.186669 0.66937 -0.719095 
-0.231264 0.808544 -0.541086 -0.140166 0.931708 -0.335073 -0.161431 0.857661 -0.488218 
-0.162613 0.777816 -0.607091 -0.123653 -0.689349 0.713798 -0.00847864 -0.889371 0.457107 
-0.675392 -0.26406 0.688562 -0.25506 -0.757542 0.600895 0.0635431 -0.91469 0.39913 
0.0360937 -0.824874 0.564163 0.0865952 -0.841578 0.533148 0.104581 -0.784419 0.61135 
-0.830148 0.383508 0.404693 -0.727983 0.214671 0.651121 -0.464444 -0.267028 0.844386 
0.109262 -0.675692 0.729042 0.212766 -0.729393 0.650166 0.799861 -0.33849 -0.495627 
-0.784926 0.600494 0.152637 -0.625829 0.494472 0.603189 0.662092 0.17757 -0.728081 
0.670349 0.102108 -0.734987 0.379066 0.534294 -0.755539 0.503865 0.386134 -0.772671 
-0.327293 0.88982 -0.31796 -0.41189 0.906258 0.0950963 -0.284237 0.954767 0.0873406 
-0.341487 0.708869 -0.617164 0.12717 0.631931 -0.76452 -0.171723 -0.571076 0.802735 
-0.0766695 -0.650536 0.755596 0.00468319 -0.77693 0.62957 0.0838491 -0.739767 0.667618 
-0.377797 -0.157297 0.912429 -0.266594 -0.256531 0.929042 -0.0563479 -0.571352 0.818769 
0.0764426 -0.538483 0.839162 0.0511921 -0.976557 0.209081 0.615017 -0.785284 -0.071301 
0.0345863 -0.44092 0.89688 0.0593057 -0.560467 0.826051 0.0799026 -0.514973 0.853474 
-0.256093 -0.827002 0.500484 0.598439 -0.800773 0.0251582 -0.278478 -0.754287 0.594559 
0.486778 0.311593 -0.816062 0.538094 -0.088189 -0.838259 0.603467 -0.327714 -0.726933 
-0.474761 0.572148 0.668767 0.527071 0.15407 -0.835738 -0.520506 0.754619 0.39953 
-0.426958 0.689524 0.585033 0.00818049 -0.632464 0.774546 -0.317518 0.915407 0.24741 
-0.343077 0.921026 0.184418 -0.194267 0.965702 0.172277 -0.214271 0.974095 0.0722912 
-0.401286 0.891457 -0.210415 -0.602733 0.708143 -0.367758 -0.215637 -0.299862 0.929292 
-0.179516 -0.259327 0.948959 -0.0054943 -0.417802 0.908522 -0.348895 0.215693 0.912002 
-0.185683 -0.0648844 0.980465 0.0363626 -0.387528 0.92114 -0.0244467 -0.205929 0.978261 
0.59001 -0.649848 -0.479151 -0.314015 0.49107 0.812554 0.47142 0.286585 -0.834046 
0.499507 0.257935 -0.82702 -0.375904 0.77456 0.508678 -0.407085 0.868218 0.283688 
-0.464253 0.823769 0.325383 -0.644938 0.753634 0.12685 -0.839009 0.542637 -0.0401117 
-0.0483053 0.811054 -0.582973 -0.0351509 -0.926553 0.374518 0.288452 -0.912081 0.291381 
0.295846 -0.954145 0.0456335 0.594959 -0.654399 -0.466674 -0.253883 0.288635 0.923165 
-0.102792 0.15636 0.982337 0.0787017 -0.386608 0.91888 0.552783 0.190563 -0.811244 
0.671894 -0.136818 -0.7279 -0.132431 -0.0496821 0.989946 -0.195872 0.575161 0.794244 
-0.169503 0.64597 0.744306 -0.250971 0.546439 0.799011 -0.147138 0.0923055 0.9848 
0.416198 0.449317 -0.790502 0.493275 0.378506 -0.783207 -0.359994 0.636893 0.681742 
-0.421873 0.423529 0.801652 0.301284 0.658096 -0.690027 -0.72477 0.311932 0.614335 
-0.732066 0.111147 0.672105 -0.893466 0.258554 0.367244 -0.913116 0.40714 0.0213619 
-0.824609 0.270471 0.496855 -0.880343 0.464077 0.0981279 -0.820538 0.393013 0.415039 
-0.749073 0.560825 -0.352655 -0.644658 0.688472 -0.332299 -0.807457 0.54522 0.225272 
-0.526448 0.707902 -0.470879 -0.398233 0.729545 -0.556035 0.0745852 0.728826 -0.680625 
-0.227442 0.769587 -0.596663 0.0174537 0.964906 -0.262016 -0.00192338 0.703176 -0.711014 
-0.169544 0.817159 -0.550915 0.106056 0.844774 -0.524508 0.501433 -0.840122 -0.206784 
0.721697 -0.564477 -0.400648 0.763977 -0.553859 -0.331029 0.770493 -0.0277828 -0.636843 
0.860329 0.129025 -0.49314 0.565273 0.452148 -0.689948 -0.0879298 -0.664521 0.742078 
-0.239837 0.0033023 0.970807 -0.144563 -0.457416 0.877423 -0.6496 0.141092 0.74707 
-0.394826 0.0209791 0.918516 -0.163392 -0.0209951 0.986338 -0.530875 0.351992 0.770891 
-0.638601 0.767895 0.0502567 -0.501794 0.864946 -0.00841308 -0.3029 0.858188 -0.414445 