# vtk DataFile Version 4.2
vtk output
ASCII
DATASET POLYDATA
POINTS 576 float
315.723 180.014 158.406 315.086 179.897 158.541 317.417 180.095 158.331 
317.136 179.782 158.565 318.296 179.919 158.541 314.246 180.056 158.625 
314.937 180.195 158.395 318.933 180.559 158.574 318.851 180.309 158.581 
319.131 180.442 158.74 314.397 180.474 158.489 316.993 180.853 158.148 
318.503 181.306 158.564 313.453 179.938 159.308 316.181 179.466 159.049 
318.596 179.917 158.677 318.698 179.849 158.853 312.296 180.418 159.653 
312.178 180.622 159.566 318.986 180.109 158.871 315.992 181.147 158.285 
319.781 180.921 159.352 320.092 181.411 159.605 317.621 181.831 158.567 
319.658 181.999 159.365 320.185 181.971 159.794 313.345 179.644 160.102 
316.73 179.361 159.39 319.663 180.568 159.36 310.871 181.563 160.309 
320.42 181.61 159.996 320.507 181.405 160.293 311.168 181.744 160.077 
311.694 181.751 159.81 314.221 181.881 158.981 320.523 181.918 160.127 
314.472 179.325 160.417 310.544 181.498 160.662 320.662 181.479 160.8 
320.859 181.897 161.035 311.557 182.718 160.312 319.31 183.846 160.381 
312.644 179.796 160.88 316.402 179.247 160.416 309.68 181.866 161.495 
310.818 180.862 161.565 320.484 181.144 161.199 308.703 182.759 161.895 
308.499 182.665 162.129 309.039 182.9 161.649 311.429 183.675 161.049 
312.295 183.776 160.913 316.744 184.005 160.363 319.042 184.974 161.371 
319.577 180.425 161.914 310.155 181.222 162.766 320.535 181.31 162.339 
308.205 182.441 162.992 320.793 181.611 162.077 307.484 183.677 162.938 
320.009 186.057 162.919 313.576 179.616 162.084 309.045 181.816 163.14 
307.931 182.61 163.33 306.883 183.411 164.21 306.522 183.853 164.091 
306.684 184.071 163.707 320.298 181.418 163.494 306.67 183.496 164.748 
321.254 183.301 163.928 321.363 183.856 164.191 305.014 185.004 165.666 
304.849 185.375 165.492 305.571 184.92 164.667 304.976 185.514 165.231 
305.403 185.46 164.814 305.965 185.557 164.451 321.426 185.132 164.619 
318.287 187.625 163.911 321.392 184.133 165.008 321.494 184.792 165.164 
321.505 185.464 165.341 321.488 186.117 165.579 320.665 188.545 165.711 
318.819 189.72 165.761 305.732 184.262 166.134 304.614 185.321 167.095 
306.287 184.037 166.832 303.521 187.034 167.537 303.112 187.352 168.014 
303.289 187.552 167.716 304.446 187.736 166.842 303.316 188.056 167.796 
308.185 183.57 168.019 302.763 187.475 168.624 302.292 187.863 169.078 
302.192 188.609 168.887 302.741 188.527 168.406 302.243 189.125 168.932 
321.257 192.034 168.858 319.42 193.223 168.524 309.778 183.033 167.997 
311.837 182.734 168.396 320.284 183.502 167.689 303.113 186.792 170.068 
321.693 187.277 168.836 300.755 189.422 170.37 321.875 188.799 169.203 
300.741 189.789 170.258 301.089 189.849 169.932 301.284 190.253 169.92 
301.941 190.299 169.598 320.287 194.534 170.042 300.603 189.313 170.814 
300.237 190.098 171.006 300.543 190.551 170.617 300.576 191.005 170.844 
302.63 191.491 170.174 300.467 189.259 171.439 300.255 191.298 171.354 
321.794 193.624 171.794 310.943 184.485 171.783 300.67 188.857 172.415 
300.036 189.723 172.717 299.6 191.035 172.574 322.04 190.954 172.069 
299.318 191.693 173.142 299.389 192.285 173.037 322.069 192.488 172.329 
320.493 196.515 172.199 301.535 188.111 173.022 299.227 192.908 173.708 
319.752 198.3 173.579 316.361 199.054 173.315 317.432 198.968 173.302 
318.624 199.069 173.628 299.757 190.033 174.612 321.719 190.515 173.762 
299.137 191.293 174.213 298.946 191.823 174.576 299.644 194.694 174.369 
298.798 193.178 175.018 298.906 194.547 175.618 320.425 198.526 174.692 
320.538 189.292 175.827 322.057 194.004 176.069 301.831 198.571 175.999 
318.88 200.547 175.798 310.691 186.529 176.471 300.46 189.651 177.489 
300.75 198.699 176.785 300.293 199.24 177.834 314.23 203.71 178.032 
298.551 193.025 177.788 298.43 194.152 177.503 298.615 195.897 177.764 
321.904 197.257 178.585 321.422 198.526 177.903 301.018 189.539 179.093 
298.553 194.681 178.869 321.958 195.286 178.92 300.888 201.086 179.207 
302.667 203.002 179.263 315.61 203.734 178.778 316.077 203.668 179.112 
305.172 204.993 179.584 306.634 204.719 178.914 300.286 200.659 180.411 
317.466 203.145 180.06 299.355 192.168 180.622 319.329 201.682 180.173 
307.67 206.77 180.818 308.513 207.525 181.827 301.351 190.055 182.271 
302.613 189.353 182.625 321.114 194.237 181.493 299.69 199.603 181.29 
320.939 199.767 182.031 303.789 206.744 182.577 313.562 205.971 181.923 
305.649 207.801 182.876 310.217 207.566 182.357 301.562 190.387 183.557 
300.488 191.272 182.652 304.977 188.9 183.859 318.825 192.969 183.758 
321.182 198.8 182.985 319.568 201.183 183.341 320.377 199.658 183.832 
302.678 207.099 185.308 305.153 208.606 185.854 311.685 189.905 185.329 
301.591 192.288 185.476 315.868 192.111 185.634 320.41 197.363 184.655 
301.231 204.726 186.398 303.484 190.46 186.164 318.793 196.917 186.581 
300.826 201.639 186.442 301.762 206.19 186.896 303.077 207.659 187.069 
304.269 208.414 187.508 306.298 208.948 187.246 307.749 208.95 186.973 
305.907 189.803 186.489 303.172 191.661 186.808 304.996 190.691 187.279 
317.677 195.766 187.314 302.013 206.575 187.983 310.215 208.086 187.774 
310.919 191.243 187.99 315.303 202.596 188.574 313.399 205.453 188.439 
302.53 206.999 189.166 304.64 208.46 188.864 308.015 208.746 188.189 
306.528 193.644 189.878 313.962 194.117 189.331 315.218 195.359 189.171 
315.515 196.419 189.286 303.105 197.905 189.534 302.973 199.683 190.014 
314.865 200.058 189.838 301.534 203.557 189.045 301.791 205.646 189.389 
301.964 206.05 189.547 310.867 207.162 189.25 306.376 208.672 189.079 
310.38 193.893 190.572 307.089 195.329 190.904 312.613 201.525 191.048 
302.026 205.798 189.814 302.265 205.482 190.191 311.146 205.628 190.603 
303.447 207.323 190.166 304.484 208.1 189.895 304.71 207.954 190.22 
310.618 195.1 191.2 304.124 201.829 191.557 310.783 202.715 191.715 
303.138 204.57 191.057 309.251 205.894 191.478 308.356 207.044 190.982 
303.551 207.064 190.637 306.079 208.011 190.335 311.57 195.608 191.252 
311.419 196.83 191.572 307.435 199.793 192.133 310.301 199.369 192.036 
306.518 202.456 192.471 305.214 202.948 192.211 305.457 204.234 192.36 
307.157 205.071 192.371 306.592 205.852 192.143 303.823 206.955 190.9 
305.176 206.319 191.763 305.726 206.429 191.802 306.261 206.903 191.444 
306.742 204.04 192.537 310.667 196.914 263.523 309.508 197.929 263.194 
310.97 200.146 263.399 306.287 204.039 263.066 307.758 203.665 263.036 
304.815 205.183 263.452 303.805 206.319 264.14 303.461 206.297 264.351 
305.809 206.285 263.615 303.973 207.15 264.577 304.174 206.833 264.245 
307.247 206.688 263.854 308.228 195.823 264.002 310.112 196.002 263.819 
307.145 196.009 264.17 312.431 195.73 264.517 311.733 197.512 263.784 
305.624 198.26 263.987 312.945 199.474 264.308 302.815 203.868 264.564 
310.934 203.331 263.869 302.956 205.337 264.611 303.638 207.126 264.786 
306.076 208.088 264.915 306.536 208.086 264.877 307.711 207.72 264.672 
313.473 193.719 266.05 303.279 198.948 265.297 311.717 204.055 264.562 
309.678 207.311 265.068 304.785 208.231 265.688 307.301 208.498 265.71 
305.938 192.99 266.249 303.529 196.65 265.935 313.156 205.231 266.356 
301.944 205.8 266.54 311.748 206.44 265.939 312.843 205.832 266.659 
309.317 207.925 265.606 310.972 191.401 267.391 302.539 207.051 268.029 
304.958 208.673 267.599 307.135 208.922 267.21 303.388 193.509 267.47 
302.119 195.398 267.864 304.286 208.417 268.671 310.626 208.062 268.147 
306.265 208.978 268.087 308.435 189.581 269.493 303.738 190.109 269.841 
302.964 190.586 269.901 319.628 196.843 269.779 319.981 197.853 270.162 
300.638 202.984 269.208 301.317 205.309 269.847 312.53 207.082 269.143 
308.331 208.896 268.59 302.909 190.141 270.552 319.75 199.911 270.612 
303.002 207.415 270.132 306.084 208.887 269.634 302.478 189.932 271.594 
318.854 201.364 270.68 310.973 207.955 270.767 301.877 190.06 272.329 
300.225 192.99 271.882 320.291 200.099 272.028 301.734 205.176 272.505 
308.305 208.638 270.934 300.505 191.365 272.84 319.918 193.155 272.632 
321.104 195.432 272.418 321.585 195.774 273.482 321.356 198.446 273.145 
299.708 200.111 273.244 300.117 201.579 272.492 303.671 206.741 272.935 
304.493 207.515 272.426 305.856 207.934 272.422 309.652 188.159 273.803 
300.298 190.941 273.94 299.094 195.528 273.76 321.924 196.461 274.559 
321.124 199.477 274.549 319.807 201.237 273.917 300.408 202.035 273.57 
300.873 202.669 274.049 311.032 207.29 273.237 308.495 207.829 273.034 
301.522 189.32 275.53 299.182 192.351 275.181 320.599 192.328 274.604 
305.785 206.911 274.166 299.583 190.972 276.03 298.548 195.273 276.167 
302.674 203.827 275.572 298.459 193.808 276.841 321.964 197.511 277.322 
321.461 198.812 277.416 319.451 201.181 277.36 303.775 203.58 276.529 
306.807 205.745 275.708 303.471 187.91 277.754 298.502 195.259 278.618 
298.59 196.212 277.656 298.749 196.614 277.874 300.315 199.519 277.569 
309.806 186.395 279.145 298.52 192.481 278.985 322.381 193.957 278.985 
322.25 195.841 279.107 299.136 196.751 278.85 321.367 198.237 279.432 
301.196 199.517 278.363 305.193 201.318 278.595 314.302 202.792 278.73 
301.018 188.785 279.944 300.044 189.654 279.978 299.592 190.218 279.544 
298.915 191.409 279.472 298.887 195.359 279.87 321.871 196.797 280.102 
299.833 197.39 279.297 320.954 198.645 279.844 320.548 199.053 279.985 
318.641 200.935 279.208 317.737 201.192 279.613 299.094 191.119 280.568 
322.251 194.959 281.004 299.067 195.475 280.104 302.863 196.778 281.101 
320.885 198.019 281.209 319.837 199.189 280.826 319.282 199.404 281.056 
313.566 200.291 281.008 316.98 200.781 280.456 320.18 187.324 281.149 
321.091 188.603 280.713 321.338 188.509 281.439 301.177 188.464 281.418 
299.794 189.952 281.691 299.101 193.085 281.496 299.154 194.364 281.043 
300.6 194.92 281.759 321.393 196.762 281.959 317.686 199.519 281.597 
300.734 188.817 283.13 299.501 191.138 282.468 322.406 191.068 282.871 
299.368 191.77 282.378 299.986 193.359 282.498 309.055 194.764 283.406 
[...]
POINT_DATA 576
COLOR_SCALARS scalars 3
0.94902 0.282353 0.231373 0.94902 0.282353 0.231373 0.94902 0.282353 0.231373 
0.94902 0.282353 0.231373 0.94902 0.282353 0.231373 
0.94902 0.282353 0.231373 0.94902 0.282353 0.231373 
0.94902 0.282353 0.231373 0.94902 0.282353 0.231373 
0.94902 0.282353 0.231373 0.94902 0.282353 0.231373 
0.94902 0.282353 0.231373 0.94902 0.282353 0.231373 
0.94902 0.282353 0.231373 0.94902 0.282353 0.231373 
0.94902 0.282353 0.231373 0.94902 0.282353 0.231373 
0.94902 0.282353 0.231373 0.94902 0.282353 0.231373 
0.94902 0.282353 0.231373 0.94902 0.282353 0.231373 
0.94902 0.282353 0.231373 0.94902 0.282353 0.231373 
0.94902 0.282353 0.231373 0.94902 0.282353 0.231373 
0.94902 0.282353 0.231373 0.94902 0.282353 0.231373 
0.94902 0.282353 0.231373 0.94902 0.282353 0.231373 
0.94902 0.282353 0.231373 0.94902 0.282353 0.231373 
0.94902 0.282353 0.231373 0.94902 0.282353 0.231373 
0.94902 0.282353 0.231373 0.94902 0.282353 0.231373 
0.94902 0.282353 0.231373 0.94902 0.282353 0.231373 
0.94902 0.282353 0.231373 0.94902 0.282353 0.231373 
0.94902 0.282353 0.231373 0.94902 0.282353 0.231373 
0.94902 0.282353 0.231373 0.94902 0.282353 0.231373 
0.94902 0.282353 0.231373 0.94902 0.282353 0.231373 
0.94902 0.282353 0.231373 0.94902 0.282353 0.231373 
0.94902 0.282353 0.231373 0.94902 0.282353 0.231373 
0.94902 0.282353 0.231373 0.94902 0.282353 0.231373 
0.94902 0.282353 0.231373 0.94902 0.282353 0.231373 
0.94902 0.282353 0.231373 0.94902 0.282353 0.231373 
0.94902 0.282353 0.231373 0.94902 0.282353 0.231373 
0.94902 0.282353 0.231373 0.94902 0.282353 0.231373 
0.94902 0.282353 0.231373 0.94902 0.282353 0.231373 
0.94902 0.282353 0.231373 0.94902 0.282353 0.231373 
0.94902 0.282353 0.231373 0.94902 0.282353 0.231373 
0.94902 0.282353 0.231373 0.94902 0.282353 0.231373 
0.94902 0.282353 0.231373 0.94902 0.282353 0.231373 
0.94902 0.282353 0.231373 0.94902 0.282353 0.231373 
0.94902 0.282353 0.231373 0.94902 0.282353 0.231373 
0.94902 0.282353 0.231373 0.94902 0.282353 0.231373 
0.94902 0.282353 0.231373 0.94902 0.282353 0.231373 
0.94902 0.282353 0.231373 0.94902 0.282353 0.231373 
0.94902 0.282353 0.231373 0.94902 0.282353 0.231373 
0.94902 0.282353 0.231373 0.94902 0.282353 0.231373 
0.94902 0.282353 0.231373 0.94902 0.282353 0.231373 
0.94902 0.282353 0.231373 0.94902 0.282353 0.231373 
0.94902 0.282353 0.231373 0.94902 0.282353 0.231373 
0.94902 0.282353 0.231373 0.94902 0.282353 0.231373 
0.94902 0.282353 0.231373 0.94902 0.282353 0.231373 
0.94902 0.282353 0.231373 0.94902 0.282353 0.231373 
0.94902 0.282353 0.231373 0.94902 0.282353 0.231373 
0.94902 0.282353 0.231373 0.94902 0.282353 0.231373 
0.94902 0.282353 0.231373 0.94902 0.282353 0.231373 
0.94902 0.282353 0.231373 0.94902 0.282353 0.231373 
0.94902 0.282353 0.231373 0.94902 0.282353 0.231373 
0.94902 0.282353 0.231373 0.94902 0.282353 0.231373 
0.94902 0.282353 0.231373 0.94902 0.282353 0.231373 
0.94902 0.282353 0.231373 0.94902 0.282353 0.231373 
0.94902 0.282353 0.231373 0.94902 0.282353 0.231373 
0.94902 0.282353 0.231373 0.94902 0.282353 0.231373 
0.94902 0.282353 0.231373 0.94902 0.282353 0.231373 
0.94902 0.282353 0.231373 0.94902 0.282353 0.231373 
0.94902 0.282353 0.231373 0.94902 0.282353 0.231373 
0.94902 0.282353 0.231373 0.94902 0.282353 0.231373 
0.94902 0.282353 0.231373 0.94902 0.282353 0.231373 
0.94902 0.282353 0.231373 0.94902 0.282353 0.231373 
0.94902 0.282353 0.231373 0.94902 0.282353 0.231373 
0.94902 0.282353 0.231373 0.94902 0.282353 0.231373 
0.94902 0.282353 0.231373 0.94902 0.282353 0.231373 
0.94902 0.282353 0.231373 0.94902 0.282353 0.231373 
0.94902 0.282353 0.231373 0.94902 0.282353 0.231373 
0.94902 0.282353 0.231373 0.94902 0.282353 0.231373 
0.94902 0.282353 0.231373 0.94902 0.282353 0.231373 
0.94902 0.282353 0.231373 0.94902 0.282353 0.231373 
0.94902 0.282353 0.231373 0.94902 0.282353 0.231373 
0.94902 0.282353 0.231373 0.94902 0.282353 0.231373 
0.94902 0.282353 0.231373 0.94902 0.282353 0.231373 
0.94902 0.282353 0.231373 0.94902 0.282353 0.231373 
0.94902 0.282353 0.231373 0.94902 0.282353 0.231373 
0.94902 0.282353 0.231373 0.94902 0.282353 0.231373 
0.94902 0.282353 0.231373 0.94902 0.282353 0.231373 
0.94902 0.282353 0.231373 0.94902 0.282353 0.231373 
0.94902 0.282353 0.231373 0.94902 0.282353 0.231373 
0.94902 0.282353 0.231373 0.94902 0.282353 0.231373 
0.94902 0.282353 0.231373 0.94902 0.282353 0.231373 
0.94902 0.282353 0.231373 0.94902 0.282353 0.231373 
0.94902 0.282353 0.231373 0.94902 0.282353 0.231373 
0.94902 0.282353 0.231373 0.94902 0.282353 0.231373 
0.94902 0.282353 0.231373 0.94902 0.282353 0.231373 
0.94902 0.282353 0.231373 0.94902 0.282353 0.231373 
0.94902 0.282353 0.231373 0.94902 0.282353 0.231373 
0.94902 0.282353 0.231373 0.94902 0.282353 0.231373 
0.94902 0.282353 0.231373 0.94902 0.282353 0.231373 
0.94902 0.282353 0.231373 0.94902 0.282353 0.231373 
0.94902 0.282353 0.231373 0.94902 0.282353 0.231373 
0.94902 0.282353 0.231373 0.94902 0.282353 0.231373 
0.94902 0.282353 0.231373 0.94902 0.282353 0.231373 
0.94902 0.282353 0.231373 0.94902 0.282353 0.231373 
0.94902 0.282353 0.231373 0.94902 0.282353 0.231373 
0.94902 0.282353 0.231373 0.94902 0.282353 0.231373 
0.94902 0.282353 0.231373 0.94902 0.282353 0.231373 
0.94902 0.282353 0.231373 0.94902 0.282353 0.231373 
0.94902 0.282353 0.231373 0.94902 0.282353 0.231373 
0.94902 0.282353 0.231373 0.94902 0.282353 0.231373 
0.94902 0.282353 0.231373 0.94902 0.282353 0.231373 
0.94902 0.282353 0.231373 0.94902 0.282353 0.231373 
0.94902 0.282353 0.231373 0.94902 0.282353 0.231373 
0.94902 0.282353 0.231373 0.94902 0.282353 0.231373 
0.94902 0.282353 0.231373 0.94902 0.282353 0.231373 
0.94902 0.282353 0.231373 0.94902 0.282353 0.231373 
0.94902 0.282353 0.231373 0.94902 0.282353 0.231373 
0.94902 0.282353 0.231373 0.94902 0.282353 0.231373 
0.94902 0.282353 0.231373 0.94902 0.282353 0.231373 
0.94902 0.282353 0.231373 0.94902 0.282353 0.231373 
0.94902 0.282353 0.231373 0.94902 0.282353 0.231373 
0.94902 0.282353 0.231373 0.94902 0.282353 0.231373 
0.94902 0.282353 0.231373 0.94902 0.282353 0.231373 
0.94902 0.282353 0.231373 0.94902 0.282353 0.231373 
0.94902 0.282353 0.231373 0.94902 0.282353 0.231373 
0.94902 0.282353 0.231373 0.94902 0.282353 0.231373 
0.94902 0.282353 0.231373 0.94902 0.282353 0.231373 
0.94902 0.282353 0.231373 0.94902 0.282353 0.231373 
0.94902 0.282353 0.231373 0.94902 0.282353 0.231373 
0.94902 0.282353 0.231373 0.94902 0.282353 0.231373 
0.94902 0.282353 0.231373 0.94902 0.282353 0.231373 
0.94902 0.282353 0.231373 0.94902 0.282353 0.231373 
0.94902 0.282353 0.231373 0.94902 0.282353 0.231373 
0.94902 0.282353 0.231373 0.94902 0.282353 0.231373 
0.94902 0.282353 0.231373 0.94902 0.282353 0.231373 
0.94902 0.282353 0.231373 0.94902 0.282353 0.231373 
0.94902 0.282353 0.231373 0.94902 0.282353 0.231373 
0.94902 0.282353 0.231373 0.94902 0.282353 0.231373 
0.94902 0.282353 0.231373 0.94902 0.282353 0.231373 
0.94902 0.282353 0.231373 0.94902 0.282353 0.231373 
0.94902 0.282353 0.231373 0.94902 0.282353 0.231373 
0.94902 0.282353 0.231373 0.94902 0.282353 0.231373 
0.94902 0.282353 0.231373 0.94902 0.282353 0.231373 
0.94902 0.282353 0.231373 0.94902 0.282353 0.231373 
0.94902 0.282353 0.231373 0.94902 0.282353 0.231373 
0.94902 0.282353 0.231373 0.94902 0.282353 0.231373 
0.94902 0.282353 0.231373 0.94902 0.282353 0.231373 
0.94902 0.282353 0.231373 0.94902 0.282353 0.231373 
0.94902 0.282353 0.231373 0.94902 0.282353 0.231373 
0.94902 0.282353 0.231373 0.94902 0.282353 0.231373 
0.94902 0.282353 0.231373 0.94902 0.282353 0.231373 
0.94902 0.282353 0.231373 0.94902 0.282353 0.231373 
0.94902 0.282353 0.231373 0.94902 0.282353 0.231373 
0.94902 0.282353 0.231373 0.94902 0.282353 0.231373 
0.94902 0.282353 0.231373 0.94902 0.282353 0.231373 
0.94902 0.282353 0.231373 0.94902 0.282353 0.231373 
0.94902 0.282353 0.231373 0.94902 0.282353 0.231373 
0.94902 0.282353 0.231373 0.94902 0.282353 0.231373 
0.94902 0.282353 0.231373 0.94902 0.282353 0.231373 
0.94902 0.282353 0.231373 0.94902 0.282353 0.231373 
0.94902 0.282353 0.231373 0.94902 0.282353 0.231373 
0.94902 0.282353 0.231373 0.94902 0.282353 0.231373 
0.94902 0.282353 0.231373 0.94902 0.282353 0.231373 
0.94902 0.282353 0.231373 0.94902 0.282353 0.231373 
0.94902 0.282353 0.231373 0.94902 0.282353 0.231373 
0.94902 0.282353 0.231373 0.94902 0.282353 0.231373 
0.94902 0.282353 0.231373 0.94902 0.282353 0.231373 
0.94902 0.282353 0.231373 0.94902 0.282353 0.231373 
0.94902 0.282353 0.231373 0.94902 0.282353 0.231373 
0.94902 0.282353 0.231373 0.94902 0.282353 0.231373 
0.94902 0.282353 0.231373 0.94902 0.282353 0.231373 
0.94902 0.282353 0.231373 0.94902 0.282353 0.231373 
0.94902 0.282353 0.231373 0.94902 0.282353 0.231373 
0.94902 0.282353 0.231373 0.94902 0.282353 0.231373 
0.94902 0.282353 0.231373 0.94902 0.282353 0.231373 
0.94902 0.282353 0.231373 0.94902 0.282353 0.231373 
0.94902 0.282353 0.231373 0.94902 0.282353 0.231373 
0.94902 0.282353 0.231373 0.94902 0.282353 0.231373 
0.94902 0.282353 0.231373 0.94902 0.282353 0.231373 
0.94902 0.282353 0.231373 0.94902 0.282353 0.231373 
0.94902 0.282353 0.231373 0.94902 0.282353 0.231373 
0.94902 0.282353 0.231373 0.94902 0.282353 0.231373 
0.94902 0.282353 0.231373 0.94902 0.282353 0.231373 
0.94902 0.282353 0.231373 0.94902 0.282353 0.231373 
0.94902 0.282353 0.231373 0.94902 0.282353 0.231373 
0.94902 0.282353 0.231373 0.94902 0.282353 0.231373 
0.94902 0.282353 0.231373 0.94902 0.282353 0.231373 
0.94902 0.282353 0.231373 0.94902 0.282353 0.231373 
0.94902 0.282353 0.231373 0.94902 0.282353 0.231373 
0.94902 0.282353 0.231373 0.94902 0.282353 0.231373 
0.94902 0.282353 0.231373 0.94902 0.282353 0.231373 
0.94902 0.282353 0.231373 0.94902 0.282353 0.231373 
0.94902 0.282353 0.231373 0.94902 0.282353 0.231373 
0.94902 0.282353 0.231373 0.94902 0.282353 0.231373 
0.94902 0.282353 0.231373 0.94902 0.282353 0.231373 
0.94902 0.282353 0.231373 0.94902 0.282353 0.231373 
0.94902 0.282353 0.231373 0.94902 0.282353 0.231373 
0.94902 0.282353 0.231373 0.94902 0.282353 0.231373 
0.94902 0.282353 0.231373 0.94902 0.282353 0.231373 
0.94902 0.282353 0.231373 0.94902 0.282353 0.231373 
0.94902 0.282353 0.231373 0.94902 0.282353 0.231373 
0.94902 0.282353 0.231373 0.94902 0.282353 0.231373 
0.94902 0.282353 0.231373 0.94902 0.282353 0.231373 
0.94902 0.282353 0.231373 0.94902 0.282353 0.231373 
0.94902 0.282353 0.231373 0.94902 0.282353 0.231373 
0.94902 0.282353 0.231373 0.94902 0.282353 0.231373 
0.94902 0.282353 0.231373 0.94902 0.282353 0.231373 
0.94902 0.282353 0.231373 0.94902 0.282353 0.231373 
0.94902 0.282353 0.231373 0.94902 0.282353 0.231373 
0.94902 0.282353 0.231373 0.94902 0.282353 0.231373 
0.94902 0.282353 0.231373 0.94902 0.282353 0.231373 
0.94902 0.282353 0.231373 0.94902 0.282353 0.231373 
0.94902 0.282353 0.231373 0.94902 0.282353 0.231373 
0.94902 0.282353 0.231373 0.94902 0.282353 0.231373 
0.94902 0.282353 0.231373 0.94902 0.282353 0.231373 
0.94902 0.282353 0.231373 0.94902 0.282353 0.231373 
0.94902 0.282353 0.231373 0.94902 0.282353 0.231373 
0.94902 0.282353 0.231373 0.94902 0.282353 0.231373 
0.94902 0.282353 0.231373 0.94902 0.282353 0.231373 
0.94902 0.282353 0.231373 0.94902 0.282353 0.231373 
0.94902 0.282353 0.231373 0.94902 0.282353 0.231373 
0.94902 0.282353 0.231373 0.94902 0.282353 0.231373 
0.94902 0.282353 0.231373 0.94902 0.282353 0.231373 
0.94902 0.282353 0.231373 0.94902 0.282353 0.231373 
0.94902 0.282353 0.231373 0.94902 0.282353 0.231373 
0.94902 0.282353 0.231373 0.94902 0.282353 0.231373 
0.94902 0.282353 0.231373 0.94902 0.282353 0.231373 
0.94902 0.282353 0.231373 0.94902 0.282353 0.231373 
0.94902 0.282353 0.231373 0.94902 0.282353 0.231373 
0.94902 0.282353 0.231373 0.94902 0.282353 0.231373 
0.94902 0.282353 0.231373 0.94902 0.282353 0.231373 
0.94902 0.282353 0.231373 0.94902 0.282353 0.231373 
0.94902 0.282353 0.231373 0.94902 0.282353 0.231373 
0.94902 0.282353 0.231373 0.94902 0.282353 0.231373 
0.94902 0.282353 0.231373 0.94902 0.282353 0.231373 
0.94902 0.282353 0.231373 0.94902 0.282353 0.231373 
0.94902 0.282353 0.231373 0.94902 0.282353 0.231373 
0.94902 0.282353 0.231373 0.94902 0.282353 0.231373 
0.94902 0.282353 0.231373 0.94902 0.282353 0.231373 
0.94902 0.282353 0.231373 0.94902 0.282353 0.231373 
0.94902 0.282353 0.231373 0.94902 0.282353 0.231373 
0.94902 0.282353 0.231373 0.94902 0.282353 0.231373 
0.94902 0.282353 0.231373 0.94902 0.282353 0.231373 
0.94902 0.282353 0.231373 0.94902 0.282353 0.231373 
0.94902 0.282353 0.231373 0.94902 0.282353 0.231373 
0.94902 0.282353 0.231373 0.94902 0.282353 0.231373 
0.94902 0.282353 0.231373 0.94902 0.282353 0.231373 
0.94902 0.282353 0.231373 0.94902 0.282353 0.231373 
0.94902 0.282353 0.231373 0.94902 0.282353 0.231373 
0.94902 0.282353 0.231373 0.94902 0.282353 0.231373 
0.94902 0.282353 0.231373 0.94902 0.282353 0.231373 
0.94902 0.282353 0.231373 0.94902 0.282353 0.231373 
0.94902 0.282353 0.231373 0.94902 0.282353 0.231373 
0.94902 0.282353 0.231373 0.94902 0.282353 0.231373 
0.94902 0.282353 0.231373 0.94902 0.282353 0.231373 
0.94902 0.282353 0.231373 0.94902 0.282353 0.231373 
0.94902 0.282353 0.231373 0.94902 0.282353 0.231373 
0.94902 0.282353 0.231373 0.94902 0.282353 0.231373 
0.94902 0.282353 0.231373 0.94902 0.282353 0.231373 
0.94902 0.282353 0.231373 0.94902 0.282353 0.231373 
0.94902 0.282353 0.231373 0.94902 0.282353 0.231373 
0.94902 0.282353 0.231373 0.94902 0.282353 0.231373 
0.94902 0.282353 0.231373 0.94902 0.282353 0.231373 
0.94902 0.282353 0.231373 0.94902 0.282353 0.231373 
0.94902 0.282353 0.231373 0.94902 0.282353 0.231373 
0.94902 0.282353 0.231373 0.94902 0.282353 0.231373 
0.94902 0.282353 0.231373 0.94902 0.282353 0.231373 
0.94902 0.282353 0.231373 0.94902 0.282353 0.231373 
0.94902 0.282353 0.231373 0.94902 0.282353 0.231373 
0.94902 0.282353 0.231373 0.94902 0.282353 0.231373 
0.94902 0.282353 0.231373 0.94902 0.282353 0.231373 
0.94902 0.282353 0.231373 0.94902 0.282353 0.231373 
0.94902 0.282353 0.231373 0.94902 0.282353 0.231373 
0.94902 0.282353 0.231373 0.94902 0.282353 0.231373 
0.94902 0.282353 0.231373 0.94902 0.282353 0.231373 
0.94902 0.282353 0.231373 0.94902 0.282353 0.231373 
0.94902 0.282353 0.231373 0.94902 0.282353 0.231373 
0.94902 0.282353 0.231373 0.94902 0.282353 0.231373 
0.94902 0.282353 0.231373 0.94902 0.282353 0.231373 
0.94902 0.282353 0.231373 0.94902 0.282353 0.231373 
0.94902 0.282353 0.231373 0.94902 0.282353 0.231373 
0.94902 0.282353 0.231373 0.94902 0.282353 0.231373 
0.94902 0.282353 0.231373 0.94902 0.282353 0.231373 
0.94902 0.282353 0.231373 0.94902 0.282353 0.231373 
0.94902 0.282353 0.231373 0.94902 0.282353 0.231373 
0.94902 0.282353 0.231373 0.94902 0.282353 0.231373 
0.94902 0.282353 0.231373 0.94902 0.282353 0.231373 
0.94902 0.282353 0.231373 0.94902 0.282353 0.231373 
0.94902 0.282353 0.231373 0.94902 0.282353 0.231373 
0.94902 0.282353 0.231373 0.94902 0.282353 0.231373 
0.94902 0.282353 0.231373 0.94902 0.282353 0.231373 
0.94902 0.282353 0.231373 0.94902 0.282353 0.231373 
0.94902 0.282353 0.231373 0.94902 0.282353 0.231373 
0.94902 0.282353 0.231373 0.94902 0.282353 0.231373 
0.94902 0.282353 0.231373 0.94902 0.282353 0.231373 
0.94902 0.282353 0.231373 0.94902 0.282353 0.231373 
0.94902 0.282353 0.231373 
NORMALS Normals float
-0.0334847 -0.516626 -0.855556 -0.126812 -0.696352 -0.706408 -0.0161421 -0.448092 -0.893842 
0.0090228 -0.799027 -0.601228 0.247383 -0.462766 -0.851264 -0.349616 -0.586157 -0.730882 
-0.149829 -0.130215 -0.9801 0.374371 0.0263097 -0.926906 0.459737 -0.365849 -0.809195 
0.675556 -0.293378 -0.676427 -0.275912 0.0754468 -0.958217 0.0646385 -0.0111314 -0.997847 
0.249718 0.246361 -0.936455 -0.313528 -0.842093 -0.438839 -0.102937 -0.874925 -0.473191 
0.446434 -0.523953 -0.725376 0.399896 -0.886072 -0.234433 -0.532128 -0.71877 -0.447448 
-0.599496 -0.402923 -0.691562 0.605155 -0.503545 -0.616628 -0.109679 0.447114 -0.887727 
0.701759 -0.0517137 -0.710535 0.724554 -0.0736869 -0.685267 0.0961124 0.457864 -0.883812 
0.49338 0.321957 -0.808035 0.625375 0.250087 -0.739163 -0.34562 -0.899286 -0.268014 
0.0851104 -0.962989 -0.255752 0.755038 -0.554136 -0.350502 -0.611642 -0.0971374 -0.785149 
0.812864 -0.0880858 -0.575755 0.865247 -0.351341 -0.357641 -0.570411 0.201645 -0.796223 
-0.371642 0.151098 -0.915998 -0.174841 0.429199 -0.886126 0.83709 0.224182 -0.499021 
-0.161958 -0.974318 -0.156439 -0.721103 -0.401465 -0.564656 0.917373 -0.394723 -0.0511934 
0.968708 -0.22367 -0.107595 -0.315018 0.477164 -0.820413 0.478012 0.558864 -0.677625 
-0.406921 -0.911028 -0.0666617 0.0850225 -0.994683 0.0581094 -0.624001 -0.678689 -0.387303 
-0.529114 -0.845761 -0.0687531 0.815194 -0.574903 -0.0703309 -0.760513 -0.00656509 -0.649289 
-0.775317 -0.343054 -0.53028 -0.574007 0.329631 -0.749573 -0.336821 0.565008 -0.753205 
-0.120681 0.637921 -0.760588 -0.0463933 0.690725 -0.721628 0.259814 0.695134 -0.670288 
0.393675 -0.882638 0.256846 -0.455623 -0.890124 -0.00931697 0.731053 -0.674838 0.10077 
-0.644119 -0.708584 -0.28813 0.905799 -0.422779 -0.0280462 -0.597633 0.139735 -0.789499 
0.303711 0.659665 -0.687461 -0.161913 -0.945733 0.281734 -0.546198 -0.83505 -0.0660295 
-0.594028 -0.803792 -0.0323909 -0.691414 -0.63895 -0.337179 -0.724935 -0.578397 -0.374067 
-0.723973 -0.320962 -0.610612 0.707259 -0.650826 0.276061 -0.680059 -0.724707 -0.110991 
0.968906 -0.241645 -0.0531882 0.972635 -0.214689 -0.0888223 -0.780659 -0.619025 -0.0859072 
-0.829571 -0.377313 -0.411639 -0.762325 -0.308463 -0.568957 -0.728706 0.155907 -0.666844 
-0.679057 0.0333593 -0.733328 -0.446859 0.429979 -0.784497 0.978084 0.0092839 -0.208005 
0.0617523 0.68366 -0.727183 0.963494 -0.256156 0.0778698 0.988455 -0.115472 0.0981005 
0.976357 0.12348 -0.177428 0.975698 0.118736 -0.184162 0.674793 0.442723 -0.590466 
0.401648 0.563509 -0.721898 -0.597564 -0.773648 0.21068 -0.786587 -0.603578 -0.130285 
-0.524461 -0.817961 0.236389 -0.781067 -0.100784 -0.61626 -0.832477 -0.389995 -0.393555 
-0.745255 -0.0426993 -0.665411 -0.49642 0.475606 -0.7262 -0.353007 0.402818 -0.844466 
-0.337044 -0.847046 0.410993 -0.799221 -0.481516 -0.359707 -0.789801 -0.366912 -0.491518 
-0.700244 0.00499896 -0.713886 -0.710763 -0.00775773 -0.703389 -0.558865 0.256645 -0.788545 
0.873753 0.268897 -0.405278 0.114246 0.631008 -0.767318 -0.294003 -0.889806 0.34901 
-0.139369 -0.879951 0.454162 0.692707 -0.577251 0.432364 -0.704891 -0.698591 -0.122879 
0.970894 -0.178215 0.160011 -0.793719 -0.378115 -0.476487 0.969501 -0.190351 0.154383 
-0.805073 0.00248634 -0.593171 -0.654291 0.0243533 -0.755851 -0.547725 0.342137 -0.763505 
-0.407062 0.484356 -0.774403 0.439214 0.608939 -0.660519 -0.832228 -0.423686 -0.357612 
-0.892418 -0.0469683 -0.448758 -0.722742 0.229098 -0.652041 -0.604827 0.48324 -0.63298 
-0.0246872 0.568137 -0.822564 -0.853858 -0.490025 -0.175503 -0.646903 0.433131 -0.627626 
0.915817 0.285207 -0.28273 -0.335668 -0.848195 0.409746 -0.716933 -0.696332 -0.0335869 
-0.853158 -0.521432 -0.0151568 -0.938004 -0.191763 -0.288747 0.983964 -0.157825 -0.0831059 
-0.95853 -0.0290452 -0.283508 -0.908745 0.13023 -0.396513 0.998205 0.0165824 -0.0575546 
0.67539 0.548867 -0.492538 -0.671996 -0.73605 0.0815582 -0.867979 0.242763 -0.433218 
0.407671 0.637486 -0.653771 0.0864494 0.721873 -0.686605 0.153272 0.651599 -0.742917 
0.280881 0.731239 -0.621607 -0.85655 -0.515504 0.0240492 0.935273 -0.328963 0.130567 
-0.96371 -0.142639 -0.225648 -0.953382 -0.291637 0.0775301 -0.707612 0.438565 -0.554026 
-0.972891 0.0837758 -0.215555 -0.972191 0.147538 -0.18187 0.691561 0.608231 -0.389613 
0.807427 -0.518676 0.281133 0.999449 -0.0179358 0.0279201 -0.268763 0.631897 -0.726961 
0.604265 0.724305 -0.332032 -0.228286 -0.93099 0.284857 -0.580737 -0.795901 0.171132 
-0.638745 0.551971 -0.536034 -0.631781 0.590247 -0.502455 0.099933 0.870325 -0.482233 
-0.98952 -0.131438 0.0597848 -0.999958 -0.00423226 -0.00808023 -0.96013 0.262225 -0.0968956 