# vtk DataFile Version 4.2
vtk output
ASCII
DATASET POLYDATA
POINTS 1307 float
426.1 210.627 79.3892 424.583 213.515 78.8209 430.974 214.825 79.4591 
424.19 218.059 78.9374 427.457 218.478 78.6766 422.831 208.232 80.168 
427.876 210.564 79.8412 421.515 212.172 79.7269 421.5 205.384 81.3824 
419.818 206.197 81.4384 419.028 208.572 81.3093 429.591 209.339 81.5007 
420.904 219.186 81.0318 428.08 224.75 80.2631 423.798 225.79 81.7634 
425.704 226.369 81.2509 432.737 225.788 81.1653 436.167 215.994 82.3181 
436.763 218.343 82.093 435.307 225.823 81.989 429.895 227.857 81.6007 
417.173 209.853 82.6403 438.311 222.877 83.0643 422.35 225.66 83.1405 
425.276 227.935 82.3624 427.727 229.616 82.7211 421.009 224.448 84.1309 
434.724 229.831 83.4789 431.577 230.878 83.3239 416.207 200.858 85.2243 
435.53 211.871 84.6773 440.608 220.207 85.4206 439.389 227.471 84.7874 
426.06 232.126 85.2677 427.357 233.506 85.6492 428.627 233.49 85.1879 
431.742 234.143 85.481 419.404 197.374 86.5283 426.023 233.033 86.1946 
426.819 233.753 86.285 429.037 234.639 86.0505 430.566 234.63 85.8364 
439.772 231.314 87.0288 427.628 235.349 87.5493 427.526 235.531 87.94 
429.764 235.573 86.874 420.598 195.803 88.2705 442.079 229.84 88.5274 
441.014 231.189 87.9404 428.921 236.551 88.4998 415.459 194.193 89.3159 
434.731 237.381 89.1015 421.858 195.258 89.7191 441.621 215.831 89.9304 
435.778 237.692 89.7774 429.866 237.852 90.7033 431.33 238.216 90.5325 
418.381 225.183 90.9885 427.531 236.543 90.5616 429.012 237.684 91.6198 
431.242 238.62 91.9602 433.791 238.662 90.8894 432.737 238.887 91.646 
434.406 238.964 91.5683 414.311 190.687 92.2132 418.981 227.102 92.3073 
426.222 235.629 91.7818 437.553 238.758 92.1125 413.449 189.278 93.4898 
409.778 196.125 93.1279 409.63 203.88 92.4065 419.839 228.862 93.2775 
428.973 237.729 92.9682 414.439 187.96 94.536 416.55 188.191 94.7041 
445.259 227.181 93.8848 443.722 234.71 93.971 426.763 235.972 94.4903 
437.199 239.647 94.2157 412.532 187.248 95.4792 407.979 204.111 94.9861 
416.823 226.38 94.8285 441.124 238.468 94.6236 434.174 239.527 95.2775 
439.247 239.254 94.2732 411.798 186.834 96.169 410.308 189.135 95.4647 
418.144 228.572 95.9095 428.386 236.925 95.6105 445.177 233.905 96.2056 
445.744 233.425 97.6157 408.625 187.342 97.8659 446.818 224.736 98.3845 
418.816 229.925 97.9951 420.661 231.154 98.4662 446.182 231.796 97.9783 
427.972 235.734 97.9155 444.697 236.47 98.0377 444.497 236.862 98.2826 
434.364 238.732 97.8368 436.406 239.339 97.5681 409.469 184.2 99.4474 
411.168 184.531 98.6883 446.47 231.068 99.6297 446.08 232.702 98.9483 
429.312 236.08 98.6036 444.516 236.864 98.6431 444.747 236.503 98.9628 
444.316 236.966 99.0357 439.599 238.893 98.4463 440.672 238.998 97.6298 
410.757 183.101 100.597 412.773 183.644 100.141 425.411 213.222 101.966 
424.932 212.946 102.103 425.849 213.843 101.83 426.66 214.09 101.724 
427.018 213.973 101.764 425.957 214.271 101.793 425.873 214.407 101.888 
426.188 214.593 101.772 428.341 216.323 101.737 428.727 216.021 101.667 
428.951 216.318 101.728 409.978 223.573 99.6825 447.209 224.663 100.398 
447.036 227.518 100.385 445.012 235.62 99.699 432.437 237.007 99.3028 
444.79 236.261 99.4649 444.341 236.793 99.4777 444.537 236.515 99.6318 
438.955 238.311 99.5052 443.232 237.73 98.8555 443.296 237.459 99.3348 
411.325 182.607 101.599 407.824 183.303 101.257 406.148 185.621 101.027 
406.118 186.717 100.549 422.984 211.2 102.982 422.922 211.415 103 
423.479 211.776 102.723 423.123 211.753 102.973 425.389 212.508 102.291 
426.894 213.326 102.132 424.785 213.544 102.432 427.303 214.047 101.792 
427.666 214.083 101.919 428.589 215.229 101.782 429.88 215.275 102.178 
428.227 216.503 101.879 430.826 216.373 102.124 431.655 217.273 102.204 
432.118 217.237 102.341 405.627 217.676 100.972 429.97 217.703 102.068 
406.994 221.579 101.273 447.179 225.729 101.21 412.946 226.809 100.522 
413.836 227.597 101.303 446.777 228.721 101.142 419.158 230.227 100.819 
446.021 232.217 100.38 444.787 235.591 100.2 444.286 236.223 100.194 
440.991 237.498 100.191 412.565 182.822 102.264 421.508 209.641 104.019 
421.074 209.617 104.245 421.475 209.336 104.197 421.327 210.018 104.075 
424.453 211.383 102.878 422.934 211.726 103.248 426.151 212.396 102.598 
428.739 213.452 102.863 432.451 216.947 102.554 446.853 218.003 101.924 
429.415 218.409 102.506 433.108 218.899 102.555 433.913 218.736 102.828 
431.994 220.062 102.633 432.615 220.21 102.686 409.246 225.08 102.912 
446.924 226.888 101.981 446.51 228.942 101.886 419.756 230.336 101.292 
445.238 233.35 101.073 434.536 235.362 101.458 442.228 235.515 101.583 
410.219 181.702 103.368 420.293 208.741 104.969 420.778 208.658 104.853 
421.672 209.293 104.223 421.972 209.254 104.331 420.653 209.404 104.613 
420.959 209.792 104.504 445.154 211.527 102.389 403.741 213.766 102.325 
433.29 215.911 103.405 429.843 220.189 103.147 431.398 220.093 102.704 
436.214 222.409 103.6 446.404 228.09 102.656 445.77 230.027 102.532 
420.46 230.14 102.196 444.618 231.062 102.946 422.481 230.778 101.998 
427.516 232.679 101.592 444.469 232.655 102.209 441.682 234.347 102.323 
416.896 185.465 103.774 438.714 201.802 103.851 418.949 207.409 106.285 
419.619 207.839 105.654 419.094 207.884 105.857 419.142 208.043 105.845 
419.972 207.829 105.601 420.17 208.201 105.299 419.342 208.279 105.764 
419.842 208.733 105.47 424.228 210.14 104.157 446.618 213.983 103.982 
436.711 216.914 104.557 403.806 219.468 104.28 406.165 222.786 103.976 
427.68 223.597 104.503 446.886 224.001 103.689 426.326 225.554 104.561 
430.301 225.306 103.911 408.89 225.057 104.386 437.809 225.734 104.09 
446.46 226.119 103.538 422.776 228.175 104.148 424.013 227.531 104.334 
414.408 227.697 103.255 422.273 229.59 103.142 441.038 230.327 103.923 
443.168 230.152 103.798 408.903 181.294 104.978 418.675 207.369 106.556 
420.32 207.62 105.876 418.92 207.844 106.083 418.683 207.62 106.576 
445.273 209.087 104.559 446.879 214.507 104.524 447.066 215.842 104.864 
427.003 218.606 104.489 427.187 220.657 104.759 445.713 226.914 104.105 
418.834 227.433 104.922 404.304 182.584 105.733 410.794 181.553 105.638 
418.382 207.109 107.166 418.421 206.753 107.347 420.323 207.127 106.664 
423.527 212.843 105.451 447.017 214.849 105.867 425.399 216.693 105.732 
401.756 217.131 106.291 425.474 217.603 105.935 443.939 224.542 105.457 
444.667 224.561 105.453 445.195 225 105.161 410.821 225.734 105.211 
411.574 181.925 107.109 418.433 206.361 107.756 417.939 206.471 108.056 
419.579 206.404 107.604 438.613 213.37 107.591 446.863 215.978 106.561 
443.59 219.002 106.967 443.324 222.077 106.038 445.036 221.018 106.615 
445.233 221.587 106.395 445.809 222.405 105.848 405.842 222.698 106.915 
402.587 182.901 107.79 401.156 185.736 108.074 416.561 204.656 109.586 
416.172 204.617 109.875 416.248 204.317 109.914 416.545 204.354 109.779 
416.371 205.045 109.669 417.497 204.717 109.477 417.871 205.38 108.856 
416.708 205.364 109.353 416.478 205.342 109.704 417.288 205.64 108.885 
417.393 206.165 108.813 417.779 206.782 108.633 446.324 207.894 107.783 
446.867 210.882 107.925 446.554 216.011 107.265 444.63 218.399 107.404 
446.294 220.212 106.402 445.379 220.489 106.767 405.708 222.516 107.548 
419.264 223.786 107.817 429.29 192.732 108.387 415.454 203.575 110.81 
415.441 203.108 111.129 416.898 204.284 109.837 415.773 204.362 110.325 
416.337 205.328 110.11 434.83 209.582 109.227 446.727 210.891 108.715 
399.791 215.288 108.656 445.829 216.513 107.805 445.295 217.851 107.525 
422.465 218.59 108.934 404.457 221.356 108.71 404.466 180.498 109.649 
404.003 180.688 109.749 416.917 186.128 109.975 414.72 202.76 111.744 
415.003 203.224 111.403 416.57 203.175 111.057 418.348 204.154 110.366 
418.76 204.043 110.703 415.611 204.384 110.619 415.673 204.614 110.916 
446.731 208.188 109.106 446.692 207.924 109.765 446.659 208.892 109.716 
446.219 211.974 109.325 445.556 214.781 108.738 445.629 214.074 108.988 
445.921 215.264 108.334 400.431 217.612 110.313 401.582 218.703 109.811 
419.201 219.878 110.145 407.647 222.256 109.464 403.144 180.977 110.941 
399.826 186.124 110.443 421.33 188.169 111.309 414.369 201.987 112.462 
414.794 201.765 112.414 416.317 205.407 110.871 446.559 206.383 110.071 
443.63 212.068 110.115 444.494 212.88 109.744 445.18 213.465 109.393 
399.519 216.824 111.157 401.107 218.255 111.203 404.19 220.335 110.453 
404.951 179.796 111.982 405.683 179.592 112.654 399.88 184.7 112.013 
413.955 201.083 113.539 413.98 202.109 113.222 414.579 203.268 112.849 
415.164 204.092 112.139 425.172 205.226 111.61 446.336 206.892 111.417 
418.392 207.773 111.369 419.46 209.561 111.505 444.047 208.738 112.003 
420.724 213.729 111.423 401.295 218.287 111.815 409.501 219.813 112.158 
399.68 184.68 113.126 445.269 196.702 113.722 444.49 197.801 112.394 
413.235 200.048 114.604 413.05 200.308 114.655 414.322 200.356 113.987 
413.253 200.712 114.307 413.516 201.274 114.013 446.116 201.134 112.445 
446.179 200.649 113.113 415.881 204.86 113.017 395.909 205.491 112.547 
419.623 210.771 112.062 396.704 211.335 112.222 396.651 213.013 113.619 
398.689 215.978 113.422 404.981 179.963 114.22 405.509 179.765 113.891 
406.584 179.712 113.391 401.35 182.47 113.775 415.407 186.491 113.708 
415.769 186.797 114.159 418.597 187.51 114.527 421.028 187.809 114.163 
422.944 188.165 113.897 424.34 188.638 113.352 439.558 192.887 113.778 
445.645 196.995 114.058 395.387 197.265 114.011 445.948 198.495 113.727 
413.102 200.723 114.528 412.988 200.901 114.913 446.106 201.936 113.512 
414 202.573 113.935 414.116 202.84 114.349 395.274 206.092 113.977 
397.382 214.481 114.4 410.554 217.108 113.986 404.221 218.8 112.933 
406.032 179.833 114.209 414.143 187.131 116.103 416.247 187.126 114.774 
416.846 187.406 115.436 440.629 191.952 114.924 395.464 193.464 115.396 
445.742 196.439 114.651 412.607 198.335 116.355 445.99 198.07 114.164 
445.99 197.918 114.746 412.243 198.841 116.248 446.044 198.995 114.571 
[...]
POINT_DATA 1307
COLOR_SCALARS scalars 3
1 0.988235 0.568627 1 0.988235 0.568627 1 0.988235 0.568627 
1 0.988235 0.568627 1 0.988235 0.568627 
1 0.988235 0.568627 1 0.988235 0.568627 
1 0.988235 0.568627 1 0.988235 0.568627 
1 0.988235 0.568627 1 0.988235 0.568627 
1 0.988235 0.568627 1 0.988235 0.568627 
1 0.988235 0.568627 1 0.988235 0.568627 
1 0.988235 0.568627 1 0.988235 0.568627 
1 0.988235 0.568627 1 0.988235 0.568627 
1 0.988235 0.568627 1 0.988235 0.568627 
1 0.988235 0.568627 1 0.988235 0.568627 
1 0.988235 0.568627 1 0.988235 0.568627 
1 0.988235 0.568627 1 0.988235 0.568627 
1 0.988235 0.568627 1 0.988235 0.568627 
1 0.988235 0.568627 1 0.988235 0.568627 
1 0.988235 0.568627 1 0.988235 0.568627 
1 0.988235 0.568627 1 0.988235 0.568627 
1 0.988235 0.568627 1 0.988235 0.568627 
1 0.988235 0.568627 1 0.988235 0.568627 
1 0.988235 0.568627 1 0.988235 0.568627 
1 0.988235 0.568627 1 0.988235 0.568627 
1 0.988235 0.568627 1 0.988235 0.568627 
1 0.988235 0.568627 1 0.988235 0.568627 
1 0.988235 0.568627 1 0.988235 0.568627 
1 0.988235 0.568627 1 0.988235 0.568627 
1 0.988235 0.568627 1 0.988235 0.568627 
1 0.988235 0.568627 1 0.988235 0.568627 
1 0.988235 0.568627 1 0.988235 0.568627 
1 0.988235 0.568627 1 0.988235 0.568627 
1 0.988235 0.568627 1 0.988235 0.568627 
1 0.988235 0.568627 1 0.988235 0.568627 
1 0.988235 0.568627 1 0.988235 0.568627 
1 0.988235 0.568627 1 0.988235 0.568627 
1 0.988235 0.568627 1 0.988235 0.568627 
1 0.988235 0.568627 1 0.988235 0.568627 
1 0.988235 0.568627 1 0.988235 0.568627 
1 0.988235 0.568627 1 0.988235 0.568627 
1 0.988235 0.568627 1 0.988235 0.568627 
1 0.988235 0.568627 1 0.988235 0.568627 
1 0.988235 0.568627 1 0.988235 0.568627 
1 0.988235 0.568627 1 0.988235 0.568627 
1 0.988235 0.568627 1 0.988235 0.568627 
1 0.988235 0.568627 1 0.988235 0.568627 
1 0.988235 0.568627 1 0.988235 0.568627 
1 0.988235 0.568627 1 0.988235 0.568627 
1 0.988235 0.568627 1 0.988235 0.568627 
1 0.988235 0.568627 1 0.988235 0.568627 
1 0.988235 0.568627 1 0.988235 0.568627 
1 0.988235 0.568627 1 0.988235 0.568627 
1 0.988235 0.568627 1 0.988235 0.568627 
1 0.988235 0.568627 1 0.988235 0.568627 
1 0.988235 0.568627 1 0.988235 0.568627 
1 0.988235 0.568627 1 0.988235 0.568627 
1 0.988235 0.568627 1 0.988235 0.568627 
1 0.988235 0.568627 1 0.988235 0.568627 
1 0.988235 0.568627 1 0.988235 0.568627 
1 0.988235 0.568627 1 0.988235 0.568627 
1 0.988235 0.568627 1 0.988235 0.568627 
1 0.988235 0.568627 1 0.988235 0.568627 
1 0.988235 0.568627 1 0.988235 0.568627 
1 0.988235 0.568627 1 0.988235 0.568627 
1 0.988235 0.568627 1 0.988235 0.568627 
1 0.988235 0.568627 1 0.988235 0.568627 
1 0.988235 0.568627 1 0.988235 0.568627 
1 0.988235 0.568627 1 0.988235 0.568627 
1 0.988235 0.568627 1 0.988235 0.568627 
1 0.988235 0.568627 1 0.988235 0.568627 
1 0.988235 0.568627 1 0.988235 0.568627 
1 0.988235 0.568627 1 0.988235 0.568627 
1 0.988235 0.568627 1 0.988235 0.568627 
1 0.988235 0.568627 1 0.988235 0.568627 
1 0.988235 0.568627 1 0.988235 0.568627 
1 0.988235 0.568627 1 0.988235 0.568627 
1 0.988235 0.568627 1 0.988235 0.568627 
1 0.988235 0.568627 1 0.988235 0.568627 
1 0.988235 0.568627 1 0.988235 0.568627 
1 0.988235 0.568627 1 0.988235 0.568627 
1 0.988235 0.568627 1 0.988235 0.568627 
1 0.988235 0.568627 1 0.988235 0.568627 
1 0.988235 0.568627 1 0.988235 0.568627 
1 0.988235 0.568627 1 0.988235 0.568627 
1 0.988235 0.568627 1 0.988235 0.568627 
1 0.988235 0.568627 1 0.988235 0.568627 
1 0.988235 0.568627 1 0.988235 0.568627 
1 0.988235 0.568627 1 0.988235 0.568627 
1 0.988235 0.568627 1 0.988235 0.568627 
1 0.988235 0.568627 1 0.988235 0.568627 
1 0.988235 0.568627 1 0.988235 0.568627 
1 0.988235 0.568627 1 0.988235 0.568627 
1 0.988235 0.568627 1 0.988235 0.568627 
1 0.988235 0.568627 1 0.988235 0.568627 
1 0.988235 0.568627 1 0.988235 0.568627 
1 0.988235 0.568627 1 0.988235 0.568627 
1 0.988235 0.568627 1 0.988235 0.568627 
1 0.988235 0.568627 1 0.988235 0.568627 
1 0.988235 0.568627 1 0.988235 0.568627 
1 0.988235 0.568627 1 0.988235 0.568627 
1 0.988235 0.568627 1 0.988235 0.568627 
1 0.988235 0.568627 1 0.988235 0.568627 
1 0.988235 0.568627 1 0.988235 0.568627 
1 0.988235 0.568627 1 0.988235 0.568627 
1 0.988235 0.568627 1 0.988235 0.568627 
1 0.988235 0.568627 1 0.988235 0.568627 
1 0.988235 0.568627 1 0.988235 0.568627 
1 0.988235 0.568627 1 0.988235 0.568627 
1 0.988235 0.568627 1 0.988235 0.568627 
1 0.988235 0.568627 1 0.988235 0.568627 
1 0.988235 0.568627 1 0.988235 0.568627 
1 0.988235 0.568627 1 0.988235 0.568627 
1 0.988235 0.568627 1 0.988235 0.568627 
1 0.988235 0.568627 1 0.988235 0.568627 
1 0.988235 0.568627 1 0.988235 0.568627 
1 0.988235 0.568627 1 0.988235 0.568627 
1 0.988235 0.568627 1 0.988235 0.568627 
1 0.988235 0.568627 1 0.988235 0.568627 
1 0.988235 0.568627 1 0.988235 0.568627 
1 0.988235 0.568627 1 0.988235 0.568627 
1 0.988235 0.568627 1 0.988235 0.568627 
1 0.988235 0.568627 1 0.988235 0.568627 
1 0.988235 0.568627 1 0.988235 0.568627 
1 0.988235 0.568627 1 0.988235 0.568627 
1 0.988235 0.568627 1 0.988235 0.568627 
1 0.988235 0.568627 1 0.988235 0.568627 
1 0.988235 0.568627 1 0.988235 0.568627 
1 0.988235 0.568627 1 0.988235 0.568627 
1 0.988235 0.568627 1 0.988235 0.568627 
1 0.988235 0.568627 1 0.988235 0.568627 
1 0.988235 0.568627 1 0.988235 0.568627 
1 0.988235 0.568627 1 0.988235 0.568627 
1 0.988235 0.568627 1 0.988235 0.568627 
1 0.988235 0.568627 1 0.988235 0.568627 
1 0.988235 0.568627 1 0.988235 0.568627 
1 0.988235 0.568627 1 0.988235 0.568627 
1 0.988235 0.568627 1 0.988235 0.568627 
1 0.988235 0.568627 1 0.988235 0.568627 
1 0.988235 0.568627 1 0.988235 0.568627 
1 0.988235 0.568627 1 0.988235 0.568627 
1 0.988235 0.568627 1 0.988235 0.568627 
1 0.988235 0.568627 1 0.988235 0.568627 
1 0.988235 0.568627 1 0.988235 0.568627 
1 0.988235 0.568627 1 0.988235 0.568627 
1 0.988235 0.568627 1 0.988235 0.568627 
1 0.988235 0.568627 1 0.988235 0.568627 
1 0.988235 0.568627 1 0.988235 0.568627 
1 0.988235 0.568627 1 0.988235 0.568627 
1 0.988235 0.568627 1 0.988235 0.568627 
1 0.988235 0.568627 1 0.988235 0.568627 
1 0.988235 0.568627 1 0.988235 0.568627 
1 0.988235 0.568627 1 0.988235 0.568627 
1 0.988235 0.568627 1 0.988235 0.568627 
1 0.988235 0.568627 1 0.988235 0.568627 
1 0.988235 0.568627 1 0.988235 0.568627 
1 0.988235 0.568627 1 0.988235 0.568627 
1 0.988235 0.568627 1 0.988235 0.568627 
1 0.988235 0.568627 1 0.988235 0.568627 
1 0.988235 0.568627 1 0.988235 0.568627 
1 0.988235 0.568627 1 0.988235 0.568627 
1 0.988235 0.568627 1 0.988235 0.568627 
1 0.988235 0.568627 1 0.988235 0.568627 
1 0.988235 0.568627 1 0.988235 0.568627 
1 0.988235 0.568627 1 0.988235 0.568627 
1 0.988235 0.568627 1 0.988235 0.568627 
1 0.988235 0.568627 1 0.988235 0.568627 
1 0.988235 0.568627 1 0.988235 0.568627 
1 0.988235 0.568627 1 0.988235 0.568627 
1 0.988235 0.568627 1 0.988235 0.568627 
1 0.988235 0.568627 1 0.988235 0.568627 
1 0.988235 0.568627 1 0.988235 0.568627 
1 0.988235 0.568627 1 0.988235 0.568627 
1 0.988235 0.568627 1 0.988235 0.568627 
1 0.988235 0.568627 1 0.988235 0.568627 
1 0.988235 0.568627 1 0.988235 0.568627 
1 0.988235 0.568627 1 0.988235 0.568627 
1 0.988235 0.568627 1 0.988235 0.568627 
1 0.988235 0.568627 1 0.988235 0.568627 
1 0.988235 0.568627 1 0.988235 0.568627 
1 0.988235 0.568627 1 0.988235 0.568627 
1 0.988235 0.568627 1 0.988235 0.568627 
1 0.988235 0.568627 1 0.988235 0.568627 
1 0.988235 0.568627 1 0.988235 0.568627 
1 0.988235 0.568627 1 0.988235 0.568627 
1 0.988235 0.568627 1 0.988235 0.568627 
1 0.988235 0.568627 1 0.988235 0.568627 
1 0.988235 0.568627 1 0.988235 0.568627 
1 0.988235 0.568627 1 0.988235 0.568627 
1 0.988235 0.568627 1 0.988235 0.568627 
1 0.988235 0.568627 1 0.988235 0.568627 
1 0.988235 0.568627 1 0.988235 0.568627 
1 0.988235 0.568627 1 0.988235 0.568627 
1 0.988235 0.568627 1 0.988235 0.568627 
1 0.988235 0.568627 1 0.988235 0.568627 
1 0.988235 0.568627 1 0.988235 0.568627 
1 0.988235 0.568627 1 0.988235 0.568627 
1 0.988235 0.568627 1 0.988235 0.568627 
1 0.988235 0.568627 1 0.988235 0.568627 
1 0.988235 0.568627 1 0.988235 0.568627 
1 0.988235 0.568627 1 0.988235 0.568627 
1 0.988235 0.568627 1 0.988235 0.568627 
1 0.988235 0.568627 1 0.988235 0.568627 
1 0.988235 0.568627 1 0.988235 0.568627 
1 0.988235 0.568627 1 0.988235 0.568627 
1 0.988235 0.568627 1 0.988235 0.568627 
1 0.988235 0.568627 1 0.988235 0.568627 
1 0.988235 0.568627 1 0.988235 0.568627 
1 0.988235 0.568627 1 0.988235 0.568627 
1 0.988235 0.568627 1 0.988235 0.568627 
1 0.988235 0.568627 1 0.988235 0.568627 
1 0.988235 0.568627 1 0.988235 0.568627 
1 0.988235 0.568627 1 0.988235 0.568627 
1 0.988235 0.568627 1 0.988235 0.568627 
1 0.988235 0.568627 1 0.988235 0.568627 
1 0.988235 0.568627 1 0.988235 0.568627 
1 0.988235 0.568627 1 0.988235 0.568627 
1 0.988235 0.568627 1 0.988235 0.568627 
1 0.988235 0.568627 1 0.988235 0.568627 
1 0.988235 0.568627 1 0.988235 0.568627 
1 0.988235 0.568627 1 0.988235 0.568627 
1 0.988235 0.568627 1 0.988235 0.568627 
1 0.988235 0.568627 1 0.988235 0.568627 
1 0.988235 0.568627 1 0.988235 0.568627 
1 0.988235 0.568627 1 0.988235 0.568627 
1 0.988235 0.568627 1 0.988235 0.568627 
1 0.988235 0.568627 1 0.988235 0.568627 
1 0.988235 0.568627 1 0.988235 0.568627 
1 0.988235 0.568627 1 0.988235 0.568627 
1 0.988235 0.568627 1 0.988235 0.568627 
1 0.988235 0.568627 1 0.988235 0.568627 
1 0.988235 0.568627 1 0.988235 0.568627 
1 0.988235 0.568627 1 0.988235 0.568627 
1 0.988235 0.568627 1 0.988235 0.568627 
1 0.988235 0.568627 1 0.988235 0.568627 
1 0.988235 0.568627 1 0.988235 0.568627 
1 0.988235 0.568627 1 0.988235 0.568627 
1 0.988235 0.568627 1 0.988235 0.568627 
1 0.988235 0.568627 1 0.988235 0.568627 
1 0.988235 0.568627 1 0.988235 0.568627 
1 0.988235 0.568627 1 0.988235 0.568627 
1 0.988235 0.568627 1 0.988235 0.568627 
1 0.988235 0.568627 1 0.988235 0.568627 
1 0.988235 0.568627 1 0.988235 0.568627 
1 0.988235 0.568627 1 0.988235 0.568627 
1 0.988235 0.568627 1 0.988235 0.568627 
1 0.988235 0.568627 1 0.988235 0.568627 
1 0.988235 0.568627 1 0.988235 0.568627 
1 0.988235 0.568627 1 0.988235 0.568627 
1 0.988235 0.568627 1 0.988235 0.568627 
1 0.988235 0.568627 1 0.988235 0.568627 
1 0.988235 0.568627 1 0.988235 0.568627 
1 0.988235 0.568627 1 0.988235 0.568627 
1 0.988235 0.568627 1 0.988235 0.568627 
1 0.988235 0.568627 1 0.988235 0.568627 
1 0.988235 0.568627 1 0.988235 0.568627 
1 0.988235 0.568627 1 0.988235 0.568627 
1 0.988235 0.568627 1 0.988235 0.568627 
1 0.988235 0.568627 1 0.988235 0.568627 
1 0.988235 0.568627 1 0.988235 0.568627 
1 0.988235 0.568627 1 0.988235 0.568627 
1 0.988235 0.568627 1 0.988235 0.568627 
1 0.988235 0.568627 1 0.988235 0.568627 
1 0.988235 0.568627 1 0.988235 0.568627 
1 0.988235 0.568627 1 0.988235 0.568627 
1 0.988235 0.568627 1 0.988235 0.568627 
1 0.988235 0.568627 1 0.988235 0.568627 
1 0.988235 0.568627 1 0.988235 0.568627 
1 0.988235 0.568627 1 0.988235 0.568627 
1 0.988235 0.568627 1 0.988235 0.568627 
1 0.988235 0.568627 1 0.988235 0.568627 
1 0.988235 0.568627 1 0.988235 0.568627 
1 0.988235 0.568627 1 0.988235 0.568627 
1 0.988235 0.568627 1 0.988235 0.568627 
1 0.988235 0.568627 1 0.988235 0.568627 
1 0.988235 0.568627 1 0.988235 0.568627 
1 0.988235 0.568627 1 0.988235 0.568627 
1 0.988235 0.568627 1 0.988235 0.568627 
1 0.988235 0.568627 1 0.988235 0.568627 
1 0.988235 0.568627 1 0.988235 0.568627 
1 0.988235 0.568627 1 0.988235 0.568627 
1 0.988235 0.568627 1 0.988235 0.568627 
1 0.988235 0.568627 1 0.988235 0.568627 
1 0.988235 0.568627 1 0.988235 0.568627 
1 0.988235 0.568627 1 0.988235 0.568627 
1 0.988235 0.568627 1 0.988235 0.568627 
1 0.988235 0.568627 1 0.988235 0.568627 
1 0.988235 0.568627 1 0.988235 0.568627 
1 0.988235 0.568627 1 0.988235 0.568627 
1 0.988235 0.568627 1 0.988235 0.568627 
1 0.988235 0.568627 1 0.988235 0.568627 
1 0.988235 0.568627 1 0.988235 0.568627 
1 0.988235 0.568627 1 0.988235 0.568627 
1 0.988235 0.568627 1 0.988235 0.568627 
1 0.988235 0.568627 1 0.988235 0.568627 
1 0.988235 0.568627 1 0.988235 0.568627 
1 0.988235 0.568627 1 0.988235 0.568627 
1 0.988235 0.568627 1 0.988235 0.568627 
1 0.988235 0.568627 1 0.988235 0.568627 
1 0.988235 0.568627 1 0.988235 0.568627 
1 0.988235 0.568627 1 0.988235 0.568627 
1 0.988235 0.568627 1 0.988235 0.568627 
1 0.988235 0.568627 1 0.988235 0.568627 
1 0.988235 0.568627 1 0.988235 0.568627 
1 0.988235 0.568627 1 0.988235 0.568627 
1 0.988235 0.568627 1 0.988235 0.568627 
1 0.988235 0.568627 1 0.988235 0.568627 
1 0.988235 0.568627 1 0.988235 0.568627 
1 0.988235 0.568627 1 0.988235 0.568627 
1 0.988235 0.568627 1 0.988235 0.568627 
1 0.988235 0.568627 1 0.988235 0.568627 
1 0.988235 0.568627 1 0.988235 0.568627 
1 0.988235 0.568627 1 0.988235 0.568627 
1 0.988235 0.568627 1 0.988235 0.568627 
1 0.988235 0.568627 1 0.988235 0.568627 
1 0.988235 0.568627 1 0.988235 0.568627 
1 0.988235 0.568627 1 0.988235 0.568627 
1 0.988235 0.568627 1 0.988235 0.568627 
1 0.988235 0.568627 1 0.988235 0.568627 
1 0.988235 0.568627 1 0.988235 0.568627 
1 0.988235 0.568627 1 0.988235 0.568627 
1 0.988235 0.568627 1 0.988235 0.568627 
1 0.988235 0.568627 1 0.988235 0.568627 
1 0.988235 0.568627 1 0.988235 0.568627 
1 0.988235 0.568627 1 0.988235 0.568627 
1 0.988235 0.568627 1 0.988235 0.568627 
1 0.988235 0.568627 1 0.988235 0.568627 
1 0.988235 0.568627 1 0.988235 0.568627 
1 0.988235 0.568627 1 0.988235 0.568627 
1 0.988235 0.568627 1 0.988235 0.568627 
1 0.988235 0.568627 1 0.988235 0.568627 
1 0.988235 0.568627 1 0.988235 0.568627 
1 0.988235 0.568627 1 0.988235 0.568627 
1 0.988235 0.568627 1 0.988235 0.568627 
1 0.988235 0.568627 1 0.988235 0.568627 
1 0.988235 0.568627 1 0.988235 0.568627 
1 0.988235 0.568627 1 0.988235 0.568627 
1 0.988235 0.568627 1 0.988235 0.568627 
1 0.988235 0.568627 1 0.988235 0.568627 
1 0.988235 0.568627 1 0.988235 0.568627 
1 0.988235 0.568627 1 0.988235 0.568627 
1 0.988235 0.568627 1 0.988235 0.568627 
1 0.988235 0.568627 1 0.988235 0.568627 
1 0.988235 0.568627 1 0.988235 0.568627 
1 0.988235 0.568627 1 0.988235 0.568627 
1 0.988235 0.568627 1 0.988235 0.568627 
1 0.988235 0.568627 1 0.988235 0.568627 
1 0.988235 0.568627 1 0.988235 0.568627 
1 0.988235 0.568627 1 0.988235 0.568627 
1 0.988235 0.568627 1 0.988235 0.568627 
1 0.988235 0.568627 1 0.988235 0.568627 
1 0.988235 0.568627 1 0.988235 0.568627 
1 0.988235 0.568627 1 0.988235 0.568627 
1 0.988235 0.568627 1 0.988235 0.568627 
1 0.988235 0.568627 1 0.988235 0.568627 
1 0.988235 0.568627 1 0.988235 0.568627 
1 0.988235 0.568627 1 0.988235 0.568627 
1 0.988235 0.568627 1 0.988235 0.568627 
1 0.988235 0.568627 1 0.988235 0.568627 
1 0.988235 0.568627 1 0.988235 0.568627 
1 0.988235 0.568627 1 0.988235 0.568627 
1 0.988235 0.568627 1 0.988235 0.568627 
1 0.988235 0.568627 1 0.988235 0.568627 
1 0.988235 0.568627 1 0.988235 0.568627 
1 0.988235 0.568627 1 0.988235 0.568627 
1 0.988235 0.568627 1 0.988235 0.568627 
1 0.988235 0.568627 1 0.988235 0.568627 
1 0.988235 0.568627 1 0.988235 0.568627 
1 0.988235 0.568627 1 0.988235 0.568627 
1 0.988235 0.568627 1 0.988235 0.568627 
1 0.988235 0.568627 1 0.988235 0.568627 
1 0.988235 0.568627 1 0.988235 0.568627 
1 0.988235 0.568627 1 0.988235 0.568627 
1 0.988235 0.568627 1 0.988235 0.568627 
1 0.988235 0.568627 1 0.988235 0.568627 
1 0.988235 0.568627 1 0.988235 0.568627 
1 0.988235 0.568627 1 0.988235 0.568627 
1 0.988235 0.568627 1 0.988235 0.568627 
1 0.988235 0.568627 1 0.988235 0.568627 
1 0.988235 0.568627 1 0.988235 0.568627 
1 0.988235 0.568627 1 0.988235 0.568627 
1 0.988235 0.568627 1 0.988235 0.568627 
1 0.988235 0.568627 1 0.988235 0.568627 
1 0.988235 0.568627 1 0.988235 0.568627 
1 0.988235 0.568627 1 0.988235 0.568627 
1 0.988235 0.568627 1 0.988235 0.568627 
1 0.988235 0.568627 1 0.988235 0.568627 
1 0.988235 0.568627 1 0.988235 0.568627 
1 0.988235 0.568627 1 0.988235 0.568627 
1 0.988235 0.568627 1 0.988235 0.568627 
1 0.988235 0.568627 1 0.988235 0.568627 
1 0.988235 0.568627 1 0.988235 0.568627 
1 0.988235 0.568627 1 0.988235 0.568627 
1 0.988235 0.568627 1 0.988235 0.568627 
1 0.988235 0.568627 1 0.988235 0.568627 
1 0.988235 0.568627 1 0.988235 0.568627 
1 0.988235 0.568627 1 0.988235 0.568627 
1 0.988235 0.568627 1 0.988235 0.568627 
1 0.988235 0.568627 1 0.988235 0.568627 
1 0.988235 0.568627 1 0.988235 0.568627 
1 0.988235 0.568627 1 0.988235 0.568627 
1 0.988235 0.568627 1 0.988235 0.568627 
1 0.988235 0.568627 1 0.988235 0.568627 
1 0.988235 0.568627 1 0.988235 0.568627 
1 0.988235 0.568627 1 0.988235 0.568627 
1 0.988235 0.568627 1 0.988235 0.568627 
1 0.988235 0.568627 1 0.988235 0.568627 
1 0.988235 0.568627 1 0.988235 0.568627 
1 0.988235 0.568627 1 0.988235 0.568627 
1 0.988235 0.568627 1 0.988235 0.568627 
1 0.988235 0.568627 1 0.988235 0.568627 
1 0.988235 0.568627 1 0.988235 0.568627 
1 0.988235 0.568627 1 0.988235 0.568627 
1 0.988235 0.568627 1 0.988235 0.568627 
1 0.988235 0.568627 1 0.988235 0.568627 
1 0.988235 0.568627 1 0.988235 0.568627 
1 0.988235 0.568627 1 0.988235 0.568627 
1 0.988235 0.568627 1 0.988235 0.568627 
1 0.988235 0.568627 1 0.988235 0.568627 
1 0.988235 0.568627 1 0.988235 0.568627 
1 0.988235 0.568627 1 0.988235 0.568627 
1 0.988235 0.568627 1 0.988235 0.568627 
1 0.988235 0.568627 1 0.988235 0.568627 
1 0.988235 0.568627 1 0.988235 0.568627 
1 0.988235 0.568627 1 0.988235 0.568627 
1 0.988235 0.568627 1 0.988235 0.568627 
1 0.988235 0.568627 1 0.988235 0.568627 
1 0.988235 0.568627 1 0.988235 0.568627 
1 0.988235 0.568627 1 0.988235 0.568627 
1 0.988235 0.568627 1 0.988235 0.568627 
1 0.988235 0.568627 1 0.988235 0.568627 
1 0.988235 0.568627 1 0.988235 0.568627 
1 0.988235 0.568627 1 0.988235 0.568627 
1 0.988235 0.568627 1 0.988235 0.568627 
1 0.988235 0.568627 1 0.988235 0.568627 
1 0.988235 0.568627 1 0.988235 0.568627 
1 0.988235 0.568627 1 0.988235 0.568627 
1 0.988235 0.568627 1 0.988235 0.568627 
1 0.988235 0.568627 1 0.988235 0.568627 
1 0.988235 0.568627 1 0.988235 0.568627 
1 0.988235 0.568627 1 0.988235 0.568627 
1 0.988235 0.568627 1 0.988235 0.568627 
1 0.988235 0.568627 1 0.988235 0.568627 
1 0.988235 0.568627 1 0.988235 0.568627 
1 0.988235 0.568627 1 0.988235 0.568627 
1 0.988235 0.568627 1 0.988235 0.568627 
1 0.988235 0.568627 1 0.988235 0.568627 
1 0.988235 0.568627 1 0.988235 0.568627 
1 0.988235 0.568627 1 0.988235 0.568627 
1 0.988235 0.568627 1 0.988235 0.568627 
1 0.988235 0.568627 1 0.988235 0.568627 
1 0.988235 0.568627 1 0.988235 0.568627 
1 0.988235 0.568627 1 0.988235 0.568627 
1 0.988235 0.568627 1 0.988235 0.568627 
1 0.988235 0.568627 1 0.988235 0.568627 
1 0.988235 0.568627 1 0.988235 0.568627 
1 0.988235 0.568627 1 0.988235 0.568627 
1 0.988235 0.568627 1 0.988235 0.568627 
1 0.988235 0.568627 1 0.988235 0.568627 
1 0.988235 0.568627 1 0.988235 0.568627 
1 0.988235 0.568627 1 0.988235 0.568627 
1 0.988235 0.568627 1 0.988235 0.568627 
1 0.988235 0.568627 1 0.988235 0.568627 
1 0.988235 0.568627 1 0.988235 0.568627 
1 0.988235 0.568627 1 0.988235 0.568627 
1 0.988235 0.568627 1 0.988235 0.568627 
1 0.988235 0.568627 1 0.988235 0.568627 
1 0.988235 0.568627 1 0.988235 0.568627 
1 0.988235 0.568627 1 0.988235 0.568627 
1 0.988235 0.568627 1 0.988235 0.568627 
1 0.988235 0.568627 1 0.988235 0.568627 
1 0.988235 0.568627 1 0.988235 0.568627 
1 0.988235 0.568627 1 0.988235 0.568627 
1 0.988235 0.568627 1 0.988235 0.568627 
1 0.988235 0.568627 1 0.988235 0.568627 
1 0.988235 0.568627 1 0.988235 0.568627 
1 0.988235 0.568627 1 0.988235 0.568627 
1 0.988235 0.568627 1 0.988235 0.568627 
1 0.988235 0.568627 1 0.988235 0.568627 
1 0.988235 0.568627 1 0.988235 0.568627 
1 0.988235 0.568627 1 0.988235 0.568627 
1 0.988235 0.568627 1 0.988235 0.568627 
1 0.988235 0.568627 1 0.988235 0.568627 
1 0.988235 0.568627 1 0.988235 0.568627 
1 0.988235 0.568627 1 0.988235 0.568627 
1 0.988235 0.568627 1 0.988235 0.568627 
1 0.988235 0.568627 1 0.988235 0.568627 
1 0.988235 0.568627 1 0.988235 0.568627 
1 0.988235 0.568627 1 0.988235 0.568627 
1 0.988235 0.568627 1 0.988235 0.568627 