# vtk DataFile Version 4.2
vtk output
ASCII
DATASET POLYDATA
POINTS 798 float
481.097 131.9 168.605 480.727 132.309 168.304 482.281 131.977 168.67 
479.216 133.046 168.18 481.265 132.96 168.087 482.44 132.325 168.574 
482.245 132.836 168.381 478.945 134.387 167.819 481.262 134.223 168.09 
479.757 134.671 167.784 481.775 134.664 168.358 477.923 135.442 168.05 
480.2 135.575 168.026 479.816 135.945 168.056 479.45 132.354 168.572 
483.236 132.278 169.121 482.723 133.481 168.577 483.007 133.23 168.801 
477.333 134.562 168.506 476.979 135.894 168.596 477.784 136.31 168.294 
480.224 136.858 168.552 478.298 137.088 168.483 478.966 137.552 168.706 
481.756 130.989 169.642 482.803 131.117 169.478 483.175 130.865 169.858 
483.715 134.696 169.829 475.802 137.533 169.599 476.481 138.438 169.714 
483.461 130.795 169.992 483.513 130.727 170.12 483.357 130.715 170.109 
481.215 130.825 170.285 484.119 131.364 170.417 484.663 132.128 171.137 
474.721 134.835 170.606 474.447 135.363 170.704 483.538 130.75 170.367 
484.246 131.204 171.238 478.893 131.402 171.177 484.875 134.504 171.617 
483.338 130.577 171.461 485.069 132.057 172.318 474.689 133.623 171.936 
472.881 135.562 172.228 472.986 134.601 172.924 473.738 138.839 171.466 
476.498 141.883 172.31 481.262 130.497 172.348 485.181 131.875 173.281 
485.559 133.42 173.1 473.305 134.111 173.109 472.339 139.632 172.924 
472.567 140.697 173.234 473.367 141.656 173.358 475.27 142.739 173.375 
482.316 130.444 173.204 484.308 131.108 173.614 485.207 131.904 173.943 
475.865 132.316 174.038 485.904 133.779 174.503 485.826 135.14 174.529 
470.416 138.208 174.384 470.664 138.489 174.125 479.467 143.002 173.603 
483.193 130.644 173.581 478.818 131.226 174.621 485.902 133.244 175.146 
470.516 135.883 175.253 469.821 136.697 175.665 469.655 137.334 175.691 
470.081 137.937 174.918 469.857 140.544 175.575 483.412 141.236 174.862 
484.128 131.214 174.79 485.027 131.843 175.216 485.823 133.175 175.965 
470.211 135.781 175.895 469.867 136.282 175.891 485.951 135.521 176.271 
482.161 143.769 176.415 476.936 146.317 176.699 480.508 131.232 176.32 
485.286 132.415 176.194 485.147 132.404 176.489 485.922 135.778 177.1 
468.44 137.618 177.597 483.425 143.035 177.145 484.449 132.184 176.89 
485.458 133.239 176.965 469.75 135.367 178.221 468.486 136.827 178.309 
480.653 145.727 177.411 482.115 132.477 178.79 470.955 134.291 178.697 
485.597 139.741 178.877 484.084 143.148 178.783 482.738 145.052 178.93 
470.997 146.839 178.711 472.794 147.566 178.601 474.277 148.269 178.925 
475.22 148.501 179.097 477.314 149.006 179.95 469.754 157.02 180.673 
464.139 158.088 180.441 465.76 158.174 180.511 461.968 158.674 180.694 
466.136 158.759 180.707 466.584 158.981 180.879 469.335 158.115 180.939 
460.086 159.217 181.189 462.605 159.251 180.907 464.764 159.53 181.121 
468.059 158.786 181.039 469.55 158.611 181.287 484.802 135.831 180.478 
467.474 137.166 181.34 467.089 137.862 180.762 466.003 139.275 181.447 
485.541 140.199 180.717 484.414 143.805 180.899 483.791 144.792 180.542 
470.093 148.002 179.843 472.791 149.826 180.268 475.447 150.727 181.076 
456.8 155.648 181.366 462.804 155.705 180.468 474.136 155.546 181.754 
454.966 156.851 181.846 473.158 156.455 181.63 457.465 158.423 181.633 
471.209 158.182 181.615 466.809 159.395 181.285 468.556 159.121 181.455 
462.79 160.349 181.678 461.617 160.825 182.273 464.252 160.61 182.108 
483.052 135.079 181.869 468.06 136.492 181.891 465.401 146.435 181.418 
464.408 148.521 181.661 477.012 150.29 181.259 469.814 151.761 180.811 
473.932 151.77 181.179 474.503 152.596 181.561 455.436 154.196 182.085 
475.391 155.009 182.549 453.175 155.486 182.511 475.31 155.715 182.719 
452.578 156.214 182.725 452.56 156.665 182.792 453.111 157.442 182.799 
465.451 160.478 182.268 468.004 159.889 182.508 462.484 161.463 183.147 
475.897 133.771 182.499 484.745 143.884 182.727 483.011 147.226 182.663 
476.541 153.295 182.947 451.735 155.176 183.245 452.381 154.858 182.996 
454.151 154.382 182.445 450.694 155.53 183.787 475.414 156.069 183.147 
451.424 157.15 183.528 474.103 157.236 182.767 484.923 141.23 183.916 
463.142 143.116 183.669 460.881 146.38 183.725 450.797 154.148 184.251 
472.86 158.518 184.531 462.159 161.944 184.404 475.872 134.655 184.345 
483.002 137.956 185.027 484.05 139.581 185.033 484.562 140.496 184.654 
484.949 142.375 184.825 459.978 145.889 184.537 449.823 153.398 185.809 
448.001 156.408 186.081 448.298 156.689 185.676 447.925 157.52 186.108 
464.167 161.524 184.596 459.574 162.091 185.518 475.964 135.388 185.853 
463.884 139.89 186.059 459.091 145.212 185.614 484.986 145.324 186.352 
447.633 156.505 186.658 447.472 157.068 186.671 447.294 157.341 186.961 
447.502 158.03 186.842 478 135.959 186.139 482.872 139.555 187.202 
484.619 141.843 186.384 485.174 144.81 187.352 481.033 151.446 186.781 
449.866 152.122 187.241 447.392 156.385 187.391 447.131 157.383 187.452 
447.085 157.906 187.744 471.394 159.167 186.877 459.456 162.572 187.539 
476.071 136.485 188.256 484.983 143.312 187.816 485.211 144.152 188.123 
451.793 149.101 187.839 484.026 148.82 187.628 483.278 149.871 187.852 
449.083 152.572 188.922 446.947 158.024 188.458 446.968 158.511 188.76 
447.403 159.06 188.1 462.292 161.929 187.651 482.484 140.143 189.096 
483.942 141.495 188.754 483.924 141.639 189.525 484.399 142.155 188.82 
484.804 142.844 188.498 485.814 146.387 190.02 459.191 162.675 188.719 
454.168 145.256 190.122 486.056 145.624 190.884 485.583 147.564 190.115 
447.843 154.886 189.789 447.212 156.301 189.529 446.851 158.412 189.841 
446.939 158.912 190.107 458.152 162.832 189.912 454.786 163.046 190.184 
455.54 163.197 190.143 482.086 140.38 190.979 446.903 157.808 190.694 
446.968 159.062 190.778 447.143 159.511 191.226 461.079 161.742 190.736 
450.038 162.207 191.625 455.984 163.181 190.309 485.66 143.935 191.458 
447.522 157.015 192.484 447.03 158.58 192.035 447.774 160.479 192.094 
448.759 161.373 192.393 454.369 144.034 193.652 484.038 150.661 192.852 
478.677 153.665 193.559 447.499 157.844 193.171 447.212 159.415 192.471 
449.203 161.429 193.475 456.045 162.858 192.126 451.399 162.613 192.494 
480.951 140.284 194.077 485.635 143.186 193.705 447.92 157.004 193.603 
447.354 158.842 193.067 448.805 160.898 193.866 450.462 161.982 193.814 
470.595 137.353 193.939 479.24 139.967 195.439 487.45 146.052 194.905 
486.082 149.255 194.941 474.511 138.162 194.928 487.492 145.429 195.451 
482.636 151.254 195.94 484.762 150.205 196.352 449.206 156.751 196.092 
467.763 157.569 196.208 448.66 158.183 195.366 448.788 159.657 195.112 
450.522 161.456 195.295 477.01 139.793 196.652 455.565 143.231 196.952 
487.676 145.109 196.88 484.509 150.227 197.03 475.262 139.888 197.511 
480.415 140.922 198.363 452.566 145.928 198.017 487.884 145.897 197.986 
451.52 147.341 197.88 487.779 146.623 198.066 487.164 148.031 197.991 
483.604 150.376 197.866 485.748 149.404 197.68 472.412 155.694 196.956 
450.244 158.347 197.636 454.965 161.069 197.457 478.054 140.897 198.484 
483.767 141.106 198.915 486.207 142.018 198.775 487.819 144.459 198.721 
451.067 148.407 198.299 486.793 148.064 199.396 450.378 151.417 198.105 
452.795 160.386 198.352 483.569 140.998 200.469 485.118 141.227 199.637 
484.929 141.003 200.448 481.249 141.22 200.031 473.854 142.464 200.517 
477.201 142.373 200.683 453.336 145.935 200.312 487.557 146.712 199.802 
483.939 149.764 199.183 451.87 155.04 200.54 466.457 156.214 199.999 
485.536 140.919 201.198 487.81 143.226 200.535 457.595 143.356 200.958 
487.965 143.376 201.218 488.058 143.938 201.022 452.186 147.549 200.439 
486.071 148.385 200.192 475.391 151.779 200.676 484.887 140.904 201.465 
486.005 141.056 201.596 486.253 141.209 201.752 487.932 143.292 201.805 
486.328 147.467 201.5 476.671 150.231 201.662 471.211 152.942 201.938 
453.845 157.278 201.745 454.287 158.497 201.084 485.089 141.179 202.405 
487.326 142.105 202.051 463.735 142.107 202.006 487.494 142.382 202.269 
459.573 143.455 202.457 487.943 143.995 202.009 455.437 145.546 202.542 
473.434 146.395 203.086 474.417 146.36 203.017 486.989 146.177 202.407 
451.711 149.734 201.722 451.684 150.911 201.926 464.808 155.126 202.741 
456.174 158.446 201.693 483.511 141.645 203.342 486.968 142.077 202.928 
467.586 142.665 202.664 487.428 142.489 202.618 487.194 142.35 202.906 
487.322 142.855 202.965 477.178 144.969 203.153 486.584 145.762 203.179 
486.845 145.445 203.13 485.375 146.028 203.663 474.426 148.898 202.973 
473.511 149.655 202.952 486.002 142.14 203.728 483.548 142.128 204.061 
486.372 142.327 203.685 486.533 142.681 203.757 461.266 144.119 203.903 
466.313 144.966 204.622 486.158 144.339 204.184 477.291 147.08 203.431 
468.574 148.539 204.906 453.294 150.584 204.016 467.356 151.525 204.684 
461.063 155.374 204.476 456.716 156.52 204.041 482.738 142.526 204.305 
484.621 142.484 204.421 484.865 142.823 204.627 485.22 143.022 204.615 
485.288 143.457 204.673 486.374 143.215 204.01 480.129 144.327 204.558 
485.191 143.923 204.718 461.977 145.264 204.918 459.057 146.233 205.15 
459.592 146.379 205.344 465.846 146.32 205.374 480.47 145.526 204.733 
482.91 145.528 204.74 482.518 145.201 204.927 466.15 147.312 205.615 
454.16 149.066 204.423 466.342 149.682 205.581 456.42 155.225 205.155 
458.628 155.397 205.095 457.067 155.611 204.97 482.024 144.319 205.001 
483.295 143.837 204.997 482.471 144.698 205.018 464.749 147.324 205.832 
458.837 148.357 206.225 456.299 150.234 206.051 455.586 151.078 205.767 
456.751 153.494 206.094 457.705 153.702 206.172 457.55 150.059 206.471 
461.236 149.426 206.653 456.716 152.178 206.334 458.029 151.843 206.693 
458.975 149.334 248.651 459.832 149.795 248.515 458.63 150.585 248.484 
457.06 151.393 248.889 457.055 152.815 249.051 459.522 152.417 248.75 
457.436 153.102 249.029 482.332 143.689 250.284 483.83 143.537 250.273 
483.507 143.024 250.552 484.432 143.496 250.319 484.819 143.242 250.461 
481.354 144.024 250.322 482.344 144.135 250.167 483.479 144.089 250.144 
[...]
POINT_DATA 798
COLOR_SCALARS scalars 3
1 0.992157 0.737255 1 0.992157 0.737255 1 0.992157 0.737255 
1 0.992157 0.737255 1 0.992157 0.737255 
1 0.992157 0.737255 1 0.992157 0.737255 
1 0.992157 0.737255 1 0.992157 0.737255 
1 0.992157 0.737255 1 0.992157 0.737255 
1 0.992157 0.737255 1 0.992157 0.737255 
1 0.992157 0.737255 1 0.992157 0.737255 
1 0.992157 0.737255 1 0.992157 0.737255 
1 0.992157 0.737255 1 0.992157 0.737255 
1 0.992157 0.737255 1 0.992157 0.737255 
1 0.992157 0.737255 1 0.992157 0.737255 
1 0.992157 0.737255 1 0.992157 0.737255 
1 0.992157 0.737255 1 0.992157 0.737255 
1 0.992157 0.737255 1 0.992157 0.737255 
1 0.992157 0.737255 1 0.992157 0.737255 
1 0.992157 0.737255 1 0.992157 0.737255 
1 0.992157 0.737255 1 0.992157 0.737255 
1 0.992157 0.737255 1 0.992157 0.737255 
1 0.992157 0.737255 1 0.992157 0.737255 
1 0.992157 0.737255 1 0.992157 0.737255 
1 0.992157 0.737255 1 0.992157 0.737255 
1 0.992157 0.737255 1 0.992157 0.737255 
1 0.992157 0.737255 1 0.992157 0.737255 
1 0.992157 0.737255 1 0.992157 0.737255 
1 0.992157 0.737255 1 0.992157 0.737255 
1 0.992157 0.737255 1 0.992157 0.737255 
1 0.992157 0.737255 1 0.992157 0.737255 
1 0.992157 0.737255 1 0.992157 0.737255 
1 0.992157 0.737255 1 0.992157 0.737255 
1 0.992157 0.737255 1 0.992157 0.737255 
1 0.992157 0.737255 1 0.992157 0.737255 
1 0.992157 0.737255 1 0.992157 0.737255 
1 0.992157 0.737255 1 0.992157 0.737255 
1 0.992157 0.737255 1 0.992157 0.737255 
1 0.992157 0.737255 1 0.992157 0.737255 
1 0.992157 0.737255 1 0.992157 0.737255 
1 0.992157 0.737255 1 0.992157 0.737255 
1 0.992157 0.737255 1 0.992157 0.737255 
1 0.992157 0.737255 1 0.992157 0.737255 
1 0.992157 0.737255 1 0.992157 0.737255 
1 0.992157 0.737255 1 0.992157 0.737255 
1 0.992157 0.737255 1 0.992157 0.737255 
1 0.992157 0.737255 1 0.992157 0.737255 
1 0.992157 0.737255 1 0.992157 0.737255 
1 0.992157 0.737255 1 0.992157 0.737255 
1 0.992157 0.737255 1 0.992157 0.737255 
1 0.992157 0.737255 1 0.992157 0.737255 
1 0.992157 0.737255 1 0.992157 0.737255 
1 0.992157 0.737255 1 0.992157 0.737255 
1 0.992157 0.737255 1 0.992157 0.737255 
1 0.992157 0.737255 1 0.992157 0.737255 
1 0.992157 0.737255 1 0.992157 0.737255 
1 0.992157 0.737255 1 0.992157 0.737255 
1 0.992157 0.737255 1 0.992157 0.737255 
1 0.992157 0.737255 1 0.992157 0.737255 
1 0.992157 0.737255 1 0.992157 0.737255 
1 0.992157 0.737255 1 0.992157 0.737255 
1 0.992157 0.737255 1 0.992157 0.737255 
1 0.992157 0.737255 1 0.992157 0.737255 
1 0.992157 0.737255 1 0.992157 0.737255 
1 0.992157 0.737255 1 0.992157 0.737255 
1 0.992157 0.737255 1 0.992157 0.737255 
1 0.992157 0.737255 1 0.992157 0.737255 
1 0.992157 0.737255 1 0.992157 0.737255 
1 0.992157 0.737255 1 0.992157 0.737255 
1 0.992157 0.737255 1 0.992157 0.737255 
1 0.992157 0.737255 1 0.992157 0.737255 
1 0.992157 0.737255 1 0.992157 0.737255 
1 0.992157 0.737255 1 0.992157 0.737255 
1 0.992157 0.737255 1 0.992157 0.737255 
1 0.992157 0.737255 1 0.992157 0.737255 
1 0.992157 0.737255 1 0.992157 0.737255 
1 0.992157 0.737255 1 0.992157 0.737255 
1 0.992157 0.737255 1 0.992157 0.737255 
1 0.992157 0.737255 1 0.992157 0.737255 
1 0.992157 0.737255 1 0.992157 0.737255 
1 0.992157 0.737255 1 0.992157 0.737255 
1 0.992157 0.737255 1 0.992157 0.737255 
1 0.992157 0.737255 1 0.992157 0.737255 
1 0.992157 0.737255 1 0.992157 0.737255 
1 0.992157 0.737255 1 0.992157 0.737255 
1 0.992157 0.737255 1 0.992157 0.737255 
1 0.992157 0.737255 1 0.992157 0.737255 
1 0.992157 0.737255 1 0.992157 0.737255 
1 0.992157 0.737255 1 0.992157 0.737255 
1 0.992157 0.737255 1 0.992157 0.737255 
1 0.992157 0.737255 1 0.992157 0.737255 
1 0.992157 0.737255 1 0.992157 0.737255 
1 0.992157 0.737255 1 0.992157 0.737255 
1 0.992157 0.737255 1 0.992157 0.737255 
1 0.992157 0.737255 1 0.992157 0.737255 
1 0.992157 0.737255 1 0.992157 0.737255 
1 0.992157 0.737255 1 0.992157 0.737255 
1 0.992157 0.737255 1 0.992157 0.737255 
1 0.992157 0.737255 1 0.992157 0.737255 
1 0.992157 0.737255 1 0.992157 0.737255 
1 0.992157 0.737255 1 0.992157 0.737255 
1 0.992157 0.737255 1 0.992157 0.737255 
1 0.992157 0.737255 1 0.992157 0.737255 
1 0.992157 0.737255 1 0.992157 0.737255 
1 0.992157 0.737255 1 0.992157 0.737255 
1 0.992157 0.737255 1 0.992157 0.737255 
1 0.992157 0.737255 1 0.992157 0.737255 
1 0.992157 0.737255 1 0.992157 0.737255 
1 0.992157 0.737255 1 0.992157 0.737255 
1 0.992157 0.737255 1 0.992157 0.737255 
1 0.992157 0.737255 1 0.992157 0.737255 
1 0.992157 0.737255 1 0.992157 0.737255 
1 0.992157 0.737255 1 0.992157 0.737255 
1 0.992157 0.737255 1 0.992157 0.737255 
1 0.992157 0.737255 1 0.992157 0.737255 
1 0.992157 0.737255 1 0.992157 0.737255 
1 0.992157 0.737255 1 0.992157 0.737255 
1 0.992157 0.737255 1 0.992157 0.737255 
1 0.992157 0.737255 1 0.992157 0.737255 
1 0.992157 0.737255 1 0.992157 0.737255 
1 0.992157 0.737255 1 0.992157 0.737255 
1 0.992157 0.737255 1 0.992157 0.737255 
1 0.992157 0.737255 1 0.992157 0.737255 
1 0.992157 0.737255 1 0.992157 0.737255 
1 0.992157 0.737255 1 0.992157 0.737255 
1 0.992157 0.737255 1 0.992157 0.737255 
1 0.992157 0.737255 1 0.992157 0.737255 
1 0.992157 0.737255 1 0.992157 0.737255 
1 0.992157 0.737255 1 0.992157 0.737255 
1 0.992157 0.737255 1 0.992157 0.737255 
1 0.992157 0.737255 1 0.992157 0.737255 
1 0.992157 0.737255 1 0.992157 0.737255 
1 0.992157 0.737255 1 0.992157 0.737255 
1 0.992157 0.737255 1 0.992157 0.737255 
1 0.992157 0.737255 1 0.992157 0.737255 
1 0.992157 0.737255 1 0.992157 0.737255 
1 0.992157 0.737255 1 0.992157 0.737255 
1 0.992157 0.737255 1 0.992157 0.737255 
1 0.992157 0.737255 1 0.992157 0.737255 
1 0.992157 0.737255 1 0.992157 0.737255 
1 0.992157 0.737255 1 0.992157 0.737255 
1 0.992157 0.737255 1 0.992157 0.737255 
1 0.992157 0.737255 1 0.992157 0.737255 
1 0.992157 0.737255 1 0.992157 0.737255 
1 0.992157 0.737255 1 0.992157 0.737255 
1 0.992157 0.737255 1 0.992157 0.737255 
1 0.992157 0.737255 1 0.992157 0.737255 
1 0.992157 0.737255 1 0.992157 0.737255 
1 0.992157 0.737255 1 0.992157 0.737255 
1 0.992157 0.737255 1 0.992157 0.737255 
1 0.992157 0.737255 1 0.992157 0.737255 
1 0.992157 0.737255 1 0.992157 0.737255 
1 0.992157 0.737255 1 0.992157 0.737255 
1 0.992157 0.737255 1 0.992157 0.737255 
1 0.992157 0.737255 1 0.992157 0.737255 
1 0.992157 0.737255 1 0.992157 0.737255 
1 0.992157 0.737255 1 0.992157 0.737255 
1 0.992157 0.737255 1 0.992157 0.737255 
1 0.992157 0.737255 1 0.992157 0.737255 
1 0.992157 0.737255 1 0.992157 0.737255 
1 0.992157 0.737255 1 0.992157 0.737255 
1 0.992157 0.737255 1 0.992157 0.737255 
1 0.992157 0.737255 1 0.992157 0.737255 
1 0.992157 0.737255 1 0.992157 0.737255 
1 0.992157 0.737255 1 0.992157 0.737255 
1 0.992157 0.737255 1 0.992157 0.737255 
1 0.992157 0.737255 1 0.992157 0.737255 
1 0.992157 0.737255 1 0.992157 0.737255 
1 0.992157 0.737255 1 0.992157 0.737255 
1 0.992157 0.737255 1 0.992157 0.737255 
1 0.992157 0.737255 1 0.992157 0.737255 
1 0.992157 0.737255 1 0.992157 0.737255 
1 0.992157 0.737255 1 0.992157 0.737255 
1 0.992157 0.737255 1 0.992157 0.737255 
1 0.992157 0.737255 1 0.992157 0.737255 
1 0.992157 0.737255 1 0.992157 0.737255 
1 0.992157 0.737255 1 0.992157 0.737255 
1 0.992157 0.737255 1 0.992157 0.737255 
1 0.992157 0.737255 1 0.992157 0.737255 
1 0.992157 0.737255 1 0.992157 0.737255 
1 0.992157 0.737255 1 0.992157 0.737255 
1 0.992157 0.737255 1 0.992157 0.737255 
1 0.992157 0.737255 1 0.992157 0.737255 
1 0.992157 0.737255 1 0.992157 0.737255 
1 0.992157 0.737255 1 0.992157 0.737255 
1 0.992157 0.737255 1 0.992157 0.737255 
1 0.992157 0.737255 1 0.992157 0.737255 
1 0.992157 0.737255 1 0.992157 0.737255 
1 0.992157 0.737255 1 0.992157 0.737255 
1 0.992157 0.737255 1 0.992157 0.737255 
1 0.992157 0.737255 1 0.992157 0.737255 
1 0.992157 0.737255 1 0.992157 0.737255 
1 0.992157 0.737255 1 0.992157 0.737255 
1 0.992157 0.737255 1 0.992157 0.737255 
1 0.992157 0.737255 1 0.992157 0.737255 
1 0.992157 0.737255 1 0.992157 0.737255 
1 0.992157 0.737255 1 0.992157 0.737255 
1 0.992157 0.737255 1 0.992157 0.737255 
1 0.992157 0.737255 1 0.992157 0.737255 
1 0.992157 0.737255 1 0.992157 0.737255 
1 0.992157 0.737255 1 0.992157 0.737255 
1 0.992157 0.737255 1 0.992157 0.737255 
1 0.992157 0.737255 1 0.992157 0.737255 
1 0.992157 0.737255 1 0.992157 0.737255 
1 0.992157 0.737255 1 0.992157 0.737255 
1 0.992157 0.737255 1 0.992157 0.737255 
1 0.992157 0.737255 1 0.992157 0.737255 
1 0.992157 0.737255 1 0.992157 0.737255 
1 0.992157 0.737255 1 0.992157 0.737255 
1 0.992157 0.737255 1 0.992157 0.737255 
1 0.992157 0.737255 1 0.992157 0.737255 
1 0.992157 0.737255 1 0.992157 0.737255 
1 0.992157 0.737255 1 0.992157 0.737255 
1 0.992157 0.737255 1 0.992157 0.737255 
1 0.992157 0.737255 1 0.992157 0.737255 
1 0.992157 0.737255 1 0.992157 0.737255 
1 0.992157 0.737255 1 0.992157 0.737255 
1 0.992157 0.737255 1 0.992157 0.737255 
1 0.992157 0.737255 1 0.992157 0.737255 
1 0.992157 0.737255 1 0.992157 0.737255 
1 0.992157 0.737255 1 0.992157 0.737255 
1 0.992157 0.737255 1 0.992157 0.737255 
1 0.992157 0.737255 1 0.992157 0.737255 
1 0.992157 0.737255 1 0.992157 0.737255 
1 0.992157 0.737255 1 0.992157 0.737255 
1 0.992157 0.737255 1 0.992157 0.737255 
1 0.992157 0.737255 1 0.992157 0.737255 
1 0.992157 0.737255 1 0.992157 0.737255 
1 0.992157 0.737255 1 0.992157 0.737255 
1 0.992157 0.737255 1 0.992157 0.737255 
1 0.992157 0.737255 1 0.992157 0.737255 
1 0.992157 0.737255 1 0.992157 0.737255 
1 0.992157 0.737255 1 0.992157 0.737255 
1 0.992157 0.737255 1 0.992157 0.737255 
1 0.992157 0.737255 1 0.992157 0.737255 
1 0.992157 0.737255 1 0.992157 0.737255 
1 0.992157 0.737255 1 0.992157 0.737255 
1 0.992157 0.737255 1 0.992157 0.737255 
1 0.992157 0.737255 1 0.992157 0.737255 
1 0.992157 0.737255 1 0.992157 0.737255 
1 0.992157 0.737255 1 0.992157 0.737255 
1 0.992157 0.737255 1 0.992157 0.737255 
1 0.992157 0.737255 1 0.992157 0.737255 
1 0.992157 0.737255 1 0.992157 0.737255 
1 0.992157 0.737255 1 0.992157 0.737255 
1 0.992157 0.737255 1 0.992157 0.737255 
1 0.992157 0.737255 1 0.992157 0.737255 
1 0.992157 0.737255 1 0.992157 0.737255 
1 0.992157 0.737255 1 0.992157 0.737255 
1 0.992157 0.737255 1 0.992157 0.737255 
1 0.992157 0.737255 1 0.992157 0.737255 
1 0.992157 0.737255 1 0.992157 0.737255 
1 0.992157 0.737255 1 0.992157 0.737255 
1 0.992157 0.737255 1 0.992157 0.737255 
1 0.992157 0.737255 1 0.992157 0.737255 
1 0.992157 0.737255 1 0.992157 0.737255 
1 0.992157 0.737255 1 0.992157 0.737255 
1 0.992157 0.737255 1 0.992157 0.737255 
1 0.992157 0.737255 1 0.992157 0.737255 
1 0.992157 0.737255 1 0.992157 0.737255 
1 0.992157 0.737255 1 0.992157 0.737255 
1 0.992157 0.737255 1 0.992157 0.737255 
1 0.992157 0.737255 1 0.992157 0.737255 
1 0.992157 0.737255 1 0.992157 0.737255 
1 0.992157 0.737255 1 0.992157 0.737255 
1 0.992157 0.737255 1 0.992157 0.737255 
1 0.992157 0.737255 1 0.992157 0.737255 
1 0.992157 0.737255 1 0.992157 0.737255 
1 0.992157 0.737255 1 0.992157 0.737255 
1 0.992157 0.737255 1 0.992157 0.737255 
1 0.992157 0.737255 1 0.992157 0.737255 
1 0.992157 0.737255 1 0.992157 0.737255 
1 0.992157 0.737255 1 0.992157 0.737255 
1 0.992157 0.737255 1 0.992157 0.737255 
1 0.992157 0.737255 1 0.992157 0.737255 
1 0.992157 0.737255 1 0.992157 0.737255 
1 0.992157 0.737255 1 0.992157 0.737255 
1 0.992157 0.737255 1 0.992157 0.737255 
1 0.992157 0.737255 1 0.992157 0.737255 
1 0.992157 0.737255 1 0.992157 0.737255 
1 0.992157 0.737255 1 0.992157 0.737255 
1 0.992157 0.737255 1 0.992157 0.737255 
1 0.992157 0.737255 1 0.992157 0.737255 
1 0.992157 0.737255 1 0.992157 0.737255 
1 0.992157 0.737255 1 0.992157 0.737255 
1 0.992157 0.737255 1 0.992157 0.737255 
1 0.992157 0.737255 1 0.992157 0.737255 
1 0.992157 0.737255 1 0.992157 0.737255 
1 0.992157 0.737255 1 0.992157 0.737255 
1 0.992157 0.737255 1 0.992157 0.737255 
1 0.992157 0.737255 1 0.992157 0.737255 
1 0.992157 0.737255 1 0.992157 0.737255 
1 0.992157 0.737255 1 0.992157 0.737255 
1 0.992157 0.737255 1 0.992157 0.737255 
1 0.992157 0.737255 1 0.992157 0.737255 
1 0.992157 0.737255 1 0.992157 0.737255 
1 0.992157 0.737255 1 0.992157 0.737255 
1 0.992157 0.737255 1 0.992157 0.737255 
1 0.992157 0.737255 1 0.992157 0.737255 
1 0.992157 0.737255 1 0.992157 0.737255 
1 0.992157 0.737255 1 0.992157 0.737255 
1 0.992157 0.737255 1 0.992157 0.737255 
1 0.992157 0.737255 1 0.992157 0.737255 
1 0.992157 0.737255 1 0.992157 0.737255 
1 0.992157 0.737255 1 0.992157 0.737255 
1 0.992157 0.737255 1 0.992157 0.737255 
1 0.992157 0.737255 1 0.992157 0.737255 
1 0.992157 0.737255 1 0.992157 0.737255 
1 0.992157 0.737255 1 0.992157 0.737255 
1 0.992157 0.737255 1 0.992157 0.737255 
1 0.992157 0.737255 1 0.992157 0.737255 
1 0.992157 0.737255 1 0.992157 0.737255 
1 0.992157 0.737255 1 0.992157 0.737255 
1 0.992157 0.737255 1 0.992157 0.737255 
1 0.992157 0.737255 1 0.992157 0.737255 
1 0.992157 0.737255 1 0.992157 0.737255 
1 0.992157 0.737255 1 0.992157 0.737255 
1 0.992157 0.737255 1 0.992157 0.737255 
1 0.992157 0.737255 1 0.992157 0.737255 
1 0.992157 0.737255 1 0.992157 0.737255 
1 0.992157 0.737255 1 0.992157 0.737255 
1 0.992157 0.737255 1 0.992157 0.737255 
1 0.992157 0.737255 1 0.992157 0.737255 
1 0.992157 0.737255 1 0.992157 0.737255 
1 0.992157 0.737255 1 0.992157 0.737255 
1 0.992157 0.737255 1 0.992157 0.737255 
1 0.992157 0.737255 1 0.992157 0.737255 
1 0.992157 0.737255 1 0.992157 0.737255 
1 0.992157 0.737255 1 0.992157 0.737255 
1 0.992157 0.737255 1 0.992157 0.737255 
1 0.992157 0.737255 1 0.992157 0.737255 
1 0.992157 0.737255 1 0.992157 0.737255 
1 0.992157 0.737255 1 0.992157 0.737255 
1 0.992157 0.737255 1 0.992157 0.737255 
1 0.992157 0.737255 1 0.992157 0.737255 
1 0.992157 0.737255 1 0.992157 0.737255 
1 0.992157 0.737255 1 0.992157 0.737255 
1 0.992157 0.737255 1 0.992157 0.737255 
1 0.992157 0.737255 1 0.992157 0.737255 
1 0.992157 0.737255 1 0.992157 0.737255 
1 0.992157 0.737255 1 0.992157 0.737255 
1 0.992157 0.737255 1 0.992157 0.737255 
1 0.992157 0.737255 1 0.992157 0.737255 
1 0.992157 0.737255 1 0.992157 0.737255 
1 0.992157 0.737255 1 0.992157 0.737255 
1 0.992157 0.737255 1 0.992157 0.737255 
1 0.992157 0.737255 1 0.992157 0.737255 
1 0.992157 0.737255 1 0.992157 0.737255 
1 0.992157 0.737255 1 0.992157 0.737255 
1 0.992157 0.737255 1 0.992157 0.737255 
1 0.992157 0.737255 1 0.992157 0.737255 
1 0.992157 0.737255 1 0.992157 0.737255 
1 0.992157 0.737255 1 0.992157 0.737255 
1 0.992157 0.737255 1 0.992157 0.737255 
1 0.992157 0.737255 1 0.992157 0.737255 
1 0.992157 0.737255 1 0.992157 0.737255 
1 0.992157 0.737255 1 0.992157 0.737255 
1 0.992157 0.737255 1 0.992157 0.737255 
1 0.992157 0.737255 1 0.992157 0.737255 
1 0.992157 0.737255 1 0.992157 0.737255 
1 0.992157 0.737255 1 0.992157 0.737255 
1 0.992157 0.737255 1 0.992157 0.737255 
1 0.992157 0.737255 1 0.992157 0.737255 
1 0.992157 0.737255 1 0.992157 0.737255 
1 0.992157 0.737255 1 0.992157 0.737255 
1 0.992157 0.737255 1 0.992157 0.737255 
1 0.992157 0.737255 1 0.992157 0.737255 
1 0.992157 0.737255 1 0.992157 0.737255 
1 0.992157 0.737255 1 0.992157 0.737255 
1 0.992157 0.737255 1 0.992157 0.737255 
1 0.992157 0.737255 1 0.992157 0.737255 
1 0.992157 0.737255 1 0.992157 0.737255 
1 0.992157 0.737255 1 0.992157 0.737255 
1 0.992157 0.737255 1 0.992157 0.737255 
1 0.992157 0.737255 1 0.992157 0.737255 
1 0.992157 0.737255 1 0.992157 0.737255 
1 0.992157 0.737255 1 0.992157 0.737255 
1 0.992157 0.737255 1 0.992157 0.737255 
1 0.992157 0.737255 1 0.992157 0.737255 
1 0.992157 0.737255 1 0.992157 0.737255 
1 0.992157 0.737255 1 0.992157 0.737255 
1 0.992157 0.737255 1 0.992157 0.737255 
1 0.992157 0.737255 1 0.992157 0.737255 
1 0.992157 0.737255 1 0.992157 0.737255 
1 0.992157 0.737255 1 0.992157 0.737255 
1 0.992157 0.737255 1 0.992157 0.737255 
1 0.992157 0.737255 1 0.992157 0.737255 
1 0.992157 0.737255 1 0.992157 0.737255 
1 0.992157 0.737255 1 0.992157 0.737255 
1 0.992157 0.737255 1 0.992157 0.737255 
1 0.992157 0.737255 1 0.992157 0.737255 
1 0.992157 0.737255 1 0.992157 0.737255 
1 0.992157 0.737255 1 0.992157 0.737255 
1 0.992157 0.737255 1 0.992157 0.737255 
1 0.992157 0.737255 1 0.992157 0.737255 
1 0.992157 0.737255 1 0.992157 0.737255 
1 0.992157 0.737255 1 0.992157 0.737255 
1 0.992157 0.737255 1 0.992157 0.737255 
1 0.992157 0.737255 1 0.992157 0.737255 
1 0.992157 0.737255 1 0.992157 0.737255 
1 0.992157 0.737255 1 0.992157 0.737255 
1 0.992157 0.737255 1 0.992157 0.737255 
1 0.992157 0.737255 
NORMALS Normals float
-0.115928 -0.723514 -0.680506 -0.0560081 -0.453902 -0.88929 0.283844 -0.51955 -0.805916 
-0.308528 -0.428897 -0.849033 0.21055 -0.188022 -0.959331 0.432849 -0.243076 -0.868076 
0.358276 -0.105901 -0.92759 -0.100777 -0.0905002 -0.990784 0.240055 -0.024365 -0.970454 
0.123056 0.0917512 -0.988149 0.42762 0.383381 -0.818633 -0.180679 0.178439 -0.96722 
0.168312 0.262381 -0.950172 0.0366156 0.302797 -0.952351 -0.426774 -0.699179 -0.573596 
0.669488 -0.222636 -0.708674 0.499065 0.0601342 -0.864476 0.707085 -0.0252866 -0.706676 
-0.586991 -0.238428 -0.773689 -0.504857 0.191893 -0.841603 -0.34404 0.330946 -0.878699 
0.266465 0.513209 -0.815851 -0.171768 0.433008 -0.884873 0.1003 0.467309 -0.878386 
-0.0505564 -0.899732 -0.433504 0.210118 -0.680193 -0.702273 0.260807 -0.571669 -0.777929 
0.644731 0.473777 -0.599881 -0.57235 0.23799 -0.784714 -0.335054 0.44913 -0.828264 
0.384887 -0.585987 -0.713079 0.459611 -0.846464 -0.268804 0.026156 -0.95111 -0.307742 
-0.267871 -0.938075 -0.219684 0.741468 -0.341441 -0.577618 0.859749 -0.359474 -0.362782 
-0.670237 -0.443793 -0.594836 -0.710389 -0.207767 -0.672443 0.502017 -0.862835 -0.0591148 
0.727305 -0.670997 -0.14419 -0.367005 -0.880487 -0.300083 0.863213 0.208319 -0.459855 
0.232713 -0.970454 -0.0637534 0.944979 -0.200081 -0.258808 -0.611397 -0.679424 -0.405681 
-0.678223 -0.342833 -0.649984 -0.698129 -0.530511 -0.480806 -0.559579 0.244922 -0.79176 
-0.140904 0.632225 -0.761864 -0.0991716 -0.991484 -0.0844107 0.81914 -0.558865 -0.129148 
0.958886 -0.138171 -0.247885 -0.597802 -0.667186 -0.444405 -0.510709 0.146118 -0.847246 
-0.549123 0.376681 -0.74604 -0.407293 0.532031 -0.742331 -0.210938 0.654682 -0.725876 
0.0769039 -0.996274 0.0390323 0.518586 -0.854947 -0.0115858 0.86829 -0.496023 -0.00580705 
-0.409514 -0.910429 -0.0584493 0.991282 0.0467709 -0.123175 0.94547 0.273583 -0.176747 
-0.733058 -0.148163 -0.663833 -0.719349 0.12664 -0.683008 0.302462 0.66833 -0.679597 
0.23307 -0.959656 0.157283 -0.292824 -0.951657 0.0927536 0.935788 -0.352467 -0.00819469 
-0.68784 -0.53816 -0.487093 -0.787737 -0.29895 -0.538609 -0.873911 -0.123625 -0.470103 
-0.856997 0.0425635 -0.51356 -0.692337 0.268263 -0.669854 0.757182 0.461624 -0.462145 
0.418832 -0.877322 0.234276 0.564936 -0.796389 0.215899 0.95802 -0.223241 0.179894 
-0.665105 -0.628427 -0.403379 -0.821924 -0.414127 -0.391075 0.991947 0.117637 0.0469402 
0.602877 0.611045 -0.512995 -0.0523036 0.706404 -0.705874 -0.0859342 -0.947262 0.308722 
0.700428 -0.68517 0.199859 0.665774 -0.639098 0.385095 0.984902 0.173103 -0.00155231 
-0.824958 -0.270409 -0.496309 0.650106 0.582234 -0.488228 0.455074 -0.775238 0.438079 
0.839582 -0.371039 0.396777 -0.740381 -0.618598 -0.263007 -0.771235 -0.534729 -0.345342 
0.434037 0.757577 -0.487534 0.170693 -0.870511 0.461599 -0.535728 -0.837911 -0.104405 
0.981703 0.169332 -0.0870971 0.847983 0.448887 -0.281826 0.674755 0.637902 -0.371195 
-0.3298 0.603088 -0.726303 -0.167414 0.618061 -0.768097 -0.136813 0.759908 -0.635469 
-0.0418981 0.744054 -0.666804 0.185793 0.788492 -0.586311 0.21485 0.218846 -0.951812 
-0.0104945 0.308573 -0.951143 0.117165 0.20046 -0.972671 -0.0852885 0.336073 -0.937966 
0.0613206 0.475365 -0.877649 0.135723 0.466598 -0.873994 0.22821 0.446152 -0.865372 
-0.215715 0.367241 -0.904766 -0.0500417 0.403374 -0.913666 0.0351664 0.604164 -0.796084 
0.145044 0.546018 -0.825122 0.318063 0.564276 -0.761859 0.839175 -0.364603 0.403546 
-0.651649 -0.701236 -0.289172 -0.663537 -0.625366 -0.410653 -0.825264 -0.514222 -0.233485 