# vtk DataFile Version 4.2
vtk output
ASCII
DATASET POLYDATA
POINTS 991 float
77.9345 112.901 156.536 78.6013 113.605 156.117 78.6325 114.31 155.975 
77.981 115.128 156.122 79.0657 114.557 155.896 79.3376 114.982 155.876 
77.3786 116.042 156.485 79.0093 115.928 155.754 77.7838 116.844 156.125 
79.4814 116.224 155.762 79.7356 116.689 155.829 77.7133 117.657 156.175 
79.2715 117.494 155.744 78.0741 118.262 155.997 78.606 118.468 155.852 
78.7215 119.273 155.93 77.4952 120.223 156.939 78.0863 119.791 156.258 
78.3978 120.338 156.294 77.9807 111.623 156.895 77.8348 111.075 157.229 
78.133 111.213 157.037 78.9384 112.854 156.416 79.6719 113.527 156.468 
80.8726 115.224 157.034 80.6275 117.689 156.503 79.0873 119.821 156.033 
79.6695 119.66 156.106 78.93 120.568 156.27 80.0084 120.554 156.452 
81.004 120.081 157.2 79.5327 121.124 156.486 80.4544 121.08 156.866 
78.7756 121.795 156.836 78.3881 108.777 158.104 78.2078 108.25 158.442 
78.817 109.341 157.837 79.3637 109.413 157.889 79.7341 109.334 158.08 
79.7408 110.041 157.833 80.0546 110.112 158.039 76.7565 113.318 157.618 
76.6103 118.152 157.658 77.0323 121.169 158.176 78.5318 122.378 157.247 
79.8258 122.42 157.14 80.3586 122.545 157.423 77.8295 122.777 158.012 
78.8991 123.088 157.496 81.0693 122.606 158.189 79.8496 123.774 157.926 
77.8892 107.806 158.953 78.6642 106.991 159.215 79.0403 107.341 158.965 
79.6536 108.951 158.18 80.1477 109.828 158.276 81.5734 117.323 158.94 
81.468 118.087 158.034 78.96 124.171 158.143 80.5995 124.274 158.66 
78.3436 124.64 158.841 79.4554 124.982 158.687 79.9406 124.906 158.733 
79.1946 125.255 158.957 79.8483 107.601 159.302 79.973 107.261 159.674 
80.0925 107.617 159.572 80.2832 107.808 159.839 80.4002 108.73 159.55 
75.704 113.806 159.658 76.4771 120.791 159.36 81.6396 123.068 159.674 
77.3479 124.686 160.461 78.0402 125.344 159.867 80.3867 125.9 159.79 
81.1736 125.4 160.176 80.1809 126.24 160.088 79.8164 106.408 160.242 
80.5811 126.113 160.125 80.878 126.09 160.404 81.1428 125.782 160.469 
78.5597 126.56 160.871 78.3528 126.592 161.302 78.633 126.784 161.134 
78.4155 104.349 161.52 79.491 105.344 160.901 75.4285 111.006 161.155 
77.5399 125.777 162.027 81.8624 126.042 162.053 79.3262 126.975 160.984 
79.6086 127.266 161.542 80.0759 127.183 161.763 81.1826 126.818 161.928 
79.3777 127.346 161.691 76.5349 105.46 162.183 75.9392 120.324 161.826 
82.1136 125.305 162.328 77.8836 126.352 162.695 81.7157 126.54 162.405 
79.3419 127.399 161.951 78.3177 102.458 163.488 79.3616 103.461 162.701 
78.3503 126.781 163.504 77.5625 102.108 164.353 80.4262 104.213 163.944 
80.592 104.908 163.774 80.7257 106.153 164.208 82.3336 124.642 164.014 
82.0302 125.625 164.434 77.6629 125.845 164.273 78.1329 126.476 164.049 
81.4495 126.513 164.188 81.6908 126.069 164.827 78.6581 126.965 163.684 
80.2204 127.191 163.664 78.2569 100.619 165.993 78.0458 100.907 165.556 
77.2665 101.725 165.183 78.731 101.555 164.609 79.6343 102.101 164.722 
80.3821 103.334 164.866 75.7635 104.118 164.922 82.2248 122.234 164.703 
82.1939 125.033 165.025 77.7285 125.619 165.316 78.3983 126.611 164.391 
81.04 126.562 165.072 81.3188 126.196 165.57 79.6906 127.105 164.3 
79.2634 100.685 166.337 79.6046 100.885 166.389 79.37 101.559 165.125 
80.0837 101.861 165.906 76.331 102.01 166.114 79.0163 126.373 165.727 
78.8067 99.5563 167.852 79.6366 100.404 167.286 79.8393 100.874 166.839 
80.4599 102.426 166.384 80.54 102.787 166.586 74.3286 110.912 167.165 
81.6028 125.527 166.801 81.766 125.199 167.103 78.2945 98.8983 168.742 
77.7905 99.2156 168.476 76.1644 101.11 167.663 74.8061 104.128 168.084 
81.8679 120.728 168.052 81.8465 123.906 168.462 81.7487 124.941 167.575 
76.8189 99.5791 169.019 79.7808 99.67 168.733 80.1762 100.316 168.734 
81.8325 123.612 169.327 77.8725 97.9866 170.821 79.9911 99.7365 169.084 
81.8291 121.47 169.683 81.7279 123.581 169.592 80.795 124.821 169.032 
78.7756 97.7105 171.385 79.4634 98.3021 170.947 79.9258 98.7999 171.128 
79.921 99.1876 170.136 80.292 100.029 170.093 80.3267 100.345 170.462 
79.8217 111.516 170.798 81.6233 122.132 170.769 77.688 97.3785 172.466 
77.1466 97.843 172.05 80.1205 98.8055 172.039 81.0855 118.533 172.475 
81.3575 122.174 171.576 81.2688 122.813 171.247 78.277 123.035 172.055 
79.2339 123.939 170.919 77.7755 96.7764 173.834 79.9768 98.0127 172.908 
76.2506 98.0919 173.081 80.2066 98.7694 172.85 80.1594 101.684 172.662 
78.0893 122.488 172.848 80.6214 122.828 172.143 80.1056 122.635 172.848 
78.7015 123.175 172.152 79.7823 122.961 172.58 78.2735 96.4237 174.538 
78.7381 96.5286 174.402 80.0476 97.9498 173.461 80.2421 99.208 173.416 
78.8415 122.463 173.479 77.9302 96.2407 175.082 77.4452 96.4358 175.062 
78.1638 96.0497 175.539 79.0219 96.5424 174.651 79.9837 97.3644 174.924 
80.7985 119.924 175.336 77.1122 120.447 175.308 80.63 120.226 175.28 
77.6488 121.319 174.526 79.7309 121.399 174.906 80.3813 121.371 174.228 
79.1224 121.783 174.495 76.5683 96.6389 176.077 75.7405 97.5744 175.794 
79.6195 96.6724 175.76 80.0325 97.3739 175.231 75.0269 98.6524 176.178 
80.8079 119.628 175.55 80.7151 119.867 175.634 79.4082 121.523 174.894 
78.6174 121.439 174.994 80.1644 98.1692 176.574 79.9924 100.44 176.642 
79.2465 105.121 176.983 74.6169 114.613 177.501 75.7349 117.847 177.288 
76.4327 118.95 177.158 77.032 119.437 177.313 80.6854 119.611 175.964 
77.7681 95.1855 178.409 79.3239 95.5526 178.099 79.812 96.1113 177.73 
79.0784 119.735 177.601 80.1283 117.663 179.043 80.0777 117.777 179.199 
76.2055 118.086 178.72 76.6714 118.401 179.196 79.5841 118.818 178.685 
78.6284 119.166 178.994 77.8246 119.229 178.766 78.3808 94.6684 179.99 
79.8996 95.8284 179.291 78.2537 119.188 179.069 78.4064 119.01 179.444 
77.4784 94.3026 181.668 78.096 94.3293 181.21 80.1785 96.1663 180.884 
79.166 108.786 181.209 79.7385 117.674 179.927 77.2327 118.126 180.98 
77.8528 118.407 180.846 77.8757 118.658 180.233 77.9698 94.0074 182.461 
78.8037 94.1903 182.27 76.1654 95.1852 182.201 79.4189 94.7834 181.542 
76.3379 117.12 181.713 77.4524 94.0511 183.3 77.0332 94.3732 182.64 
78.3611 93.9125 183.043 80.0835 95.5544 182.508 79.5574 114.612 183.381 
77.0176 117.24 182.923 79.4688 94.4627 183.309 80.3512 96.1735 183.438 
78.664 116.631 184.018 77.3754 93.8924 185.163 78.7755 93.8321 184.957 
75.9059 95.058 184.575 80.2148 95.4925 184.745 74.7407 113.651 185.504 
79.0532 115.654 184.851 78.2723 116.563 184.724 78.8218 115.851 185.224 
77.9826 93.6847 185.739 79.4445 94.1622 185.609 77.8087 116.434 185.309 
80.4397 96.6367 186.477 77.3815 115.917 186.606 78.3347 115.572 186.86 
77.8903 93.2377 188.58 79.0763 93.6001 188.36 77.189 115.569 188.082 
78.7137 93.3639 188.941 79.0886 113.599 189.201 77.7119 115.412 189.677 
78.1401 115.32 188.493 79.2504 93.5481 190.295 76.24 94.1864 189.849 
77.9904 93.1342 190.952 77.5489 93.221 191.434 76.1617 115.056 193.079 
78.0243 93.1158 192.841 77.1107 93.4179 192.855 78.9136 93.2773 192.791 
78.0474 93.1421 194.636 77.1827 93.45 194.727 76.7002 93.7466 194.277 
79.2296 114.396 195.145 75.0466 114.422 196.02 78.828 115.221 196.007 
79.0703 114.957 196.444 78.4183 115.457 195.899 78.2622 93.2467 196.137 
75.8903 94.7537 197.16 80.6637 95.384 196.677 79.6018 102.74 196.21 
77.1177 115.961 197.656 76.8804 93.9526 197.199 78.6026 93.5886 197.24 
79.4831 94.1371 197.623 80.7502 96.3984 198.33 79.5111 113.865 197.782 
75.569 115.461 198.541 78.9062 115.227 197.4 76.8101 116.107 198.258 
77.7507 116.115 198.614 77.3542 93.9646 198.643 76.394 94.4994 198.614 
79.5989 94.585 198.812 80.5122 95.902 198.989 80.7554 96.2087 198.797 
80.8027 96.2805 198.876 77.366 116.315 198.874 77.2456 116.409 199.248 
78.1898 94.0165 199.305 78.6476 94.1939 199.41 72.5483 109.328 200.895 
76.1557 116.456 201.105 78.5467 116.147 200.428 77.512 94.2125 199.854 
77.7279 94.3399 200.323 79.4925 106.434 200.155 74.6244 115.221 201.51 
75.5251 116.19 201.587 77.3973 116.876 201.521 75.8773 95.6434 201.31 
79.0316 95.2191 201.397 74.9799 96.5727 201.078 80.4243 97.2439 202.075 
80.45 97.9165 201.966 80.415 97.429 202.161 73.8722 98.7099 202.122 
79.7883 113.876 201.605 79.493 115.282 202.235 75.6227 116.585 202.575 
78.8333 116.38 202.003 76.9527 117.203 202.485 77.7452 94.8993 201.686 
80.346 97.2219 202.247 73.7753 99.3214 203.3 80.3231 99.9138 202.608 
80.2624 99.2463 203.106 72.9625 112.054 203.077 76.1365 117.45 204.14 
78.1388 117.3 203.268 79.1297 116.46 203.397 77.9621 117.501 203.636 
77.0617 95.5227 202.489 76.654 96.1776 203.307 75.4779 97.0487 203.532 
80.0645 114.306 204.066 79.6926 116.023 204.514 78.8318 117.223 204.235 
76.0812 96.7568 203.827 77.3184 96.4084 203.919 77.9686 96.3354 203.797 
78.3362 96.6233 204.002 75.0818 97.6848 204.021 79.1479 97.0287 203.851 
78.953 97.5274 204.419 79.7288 99.2411 204.558 72.5424 103.561 204.398 
74.3979 116.283 205.341 79.1601 117.23 204.998 76.8635 96.9375 204.604 
75.2769 98.0049 204.952 79.9792 102.183 206.041 76.3325 98.5139 206.709 
76.6322 98.6936 207.018 77.0645 98.8627 207.115 79.913 102.04 206.57 
79.9477 102.163 206.695 72.5869 112.265 207.956 73.7902 115.819 206.677 
76.2735 98.7961 207.168 76.0534 99.0404 207.435 74.8335 99.5944 207.043 
77.0573 99.2433 207.63 79.172 101.179 207.39 80.1923 105.952 207.791 
75.6796 99.1975 207.417 76.6609 99.5337 208.085 74.3395 101.246 208.724 
75.4857 118.943 208.935 78.0631 119.65 208.98 76.2152 99.9149 208.535 
81.0381 116.521 209.802 78.8518 119.686 209.678 79.2269 119.609 209.944 
76.4042 120.032 210.553 77.9382 102.252 210.35 81.2622 115.278 210.119 
72.9776 115.113 211.657 81.1772 115.829 209.876 79.4673 119.635 210.397 
79.8124 119.51 210.677 80.1765 119.207 210.772 75.9579 120.146 211.512 
77.1108 120.325 210.974 74.478 103.299 211.317 72.8687 106.113 210.806 
80.6506 109.031 210.886 81.3039 113.737 210.771 81.1135 117.666 211.269 
74.9369 119.448 212.358 80.8343 118.797 211.914 77.7477 120.468 211.616 
78.7081 120.242 211.884 80.5717 119.225 212.027 76.2818 120.617 212.597 
76.525 102.896 211.832 81.1461 113.186 212.701 81.0532 117.765 212.773 
[...]
POINT_DATA 991
COLOR_SCALARS scalars 3
0.14902 0.560784 0.270588 0.14902 0.560784 0.270588 0.14902 0.560784 0.270588 
0.14902 0.560784 0.270588 0.14902 0.560784 0.270588 
0.14902 0.560784 0.270588 0.14902 0.560784 0.270588 
0.14902 0.560784 0.270588 0.14902 0.560784 0.270588 
0.14902 0.560784 0.270588 0.14902 0.560784 0.270588 
0.14902 0.560784 0.270588 0.14902 0.560784 0.270588 
0.14902 0.560784 0.270588 0.14902 0.560784 0.270588 
0.14902 0.560784 0.270588 0.14902 0.560784 0.270588 
0.14902 0.560784 0.270588 0.14902 0.560784 0.270588 
0.14902 0.560784 0.270588 0.14902 0.560784 0.270588 
0.14902 0.560784 0.270588 0.14902 0.560784 0.270588 
0.14902 0.560784 0.270588 0.14902 0.560784 0.270588 
0.14902 0.560784 0.270588 0.14902 0.560784 0.270588 
0.14902 0.560784 0.270588 0.14902 0.560784 0.270588 
0.14902 0.560784 0.270588 0.14902 0.560784 0.270588 
0.14902 0.560784 0.270588 0.14902 0.560784 0.270588 
0.14902 0.560784 0.270588 0.14902 0.560784 0.270588 
0.14902 0.560784 0.270588 0.14902 0.560784 0.270588 
0.14902 0.560784 0.270588 0.14902 0.560784 0.270588 
0.14902 0.560784 0.270588 0.14902 0.560784 0.270588 
0.14902 0.560784 0.270588 0.14902 0.560784 0.270588 
0.14902 0.560784 0.270588 0.14902 0.560784 0.270588 
0.14902 0.560784 0.270588 0.14902 0.560784 0.270588 
0.14902 0.560784 0.270588 0.14902 0.560784 0.270588 
0.14902 0.560784 0.270588 0.14902 0.560784 0.270588 
0.14902 0.560784 0.270588 0.14902 0.560784 0.270588 
0.14902 0.560784 0.270588 0.14902 0.560784 0.270588 
0.14902 0.560784 0.270588 0.14902 0.560784 0.270588 
0.14902 0.560784 0.270588 0.14902 0.560784 0.270588 
0.14902 0.560784 0.270588 0.14902 0.560784 0.270588 
0.14902 0.560784 0.270588 0.14902 0.560784 0.270588 
0.14902 0.560784 0.270588 0.14902 0.560784 0.270588 
0.14902 0.560784 0.270588 0.14902 0.560784 0.270588 
0.14902 0.560784 0.270588 0.14902 0.560784 0.270588 
0.14902 0.560784 0.270588 0.14902 0.560784 0.270588 
0.14902 0.560784 0.270588 0.14902 0.560784 0.270588 
0.14902 0.560784 0.270588 0.14902 0.560784 0.270588 
0.14902 0.560784 0.270588 0.14902 0.560784 0.270588 
0.14902 0.560784 0.270588 0.14902 0.560784 0.270588 
0.14902 0.560784 0.270588 0.14902 0.560784 0.270588 
0.14902 0.560784 0.270588 0.14902 0.560784 0.270588 
0.14902 0.560784 0.270588 0.14902 0.560784 0.270588 
0.14902 0.560784 0.270588 0.14902 0.560784 0.270588 
0.14902 0.560784 0.270588 0.14902 0.560784 0.270588 
0.14902 0.560784 0.270588 0.14902 0.560784 0.270588 
0.14902 0.560784 0.270588 0.14902 0.560784 0.270588 
0.14902 0.560784 0.270588 0.14902 0.560784 0.270588 
0.14902 0.560784 0.270588 0.14902 0.560784 0.270588 
0.14902 0.560784 0.270588 0.14902 0.560784 0.270588 
0.14902 0.560784 0.270588 0.14902 0.560784 0.270588 
0.14902 0.560784 0.270588 0.14902 0.560784 0.270588 
0.14902 0.560784 0.270588 0.14902 0.560784 0.270588 
0.14902 0.560784 0.270588 0.14902 0.560784 0.270588 
0.14902 0.560784 0.270588 0.14902 0.560784 0.270588 
0.14902 0.560784 0.270588 0.14902 0.560784 0.270588 
0.14902 0.560784 0.270588 0.14902 0.560784 0.270588 
0.14902 0.560784 0.270588 0.14902 0.560784 0.270588 
0.14902 0.560784 0.270588 0.14902 0.560784 0.270588 
0.14902 0.560784 0.270588 0.14902 0.560784 0.270588 
0.14902 0.560784 0.270588 0.14902 0.560784 0.270588 
0.14902 0.560784 0.270588 0.14902 0.560784 0.270588 
0.14902 0.560784 0.270588 0.14902 0.560784 0.270588 
0.14902 0.560784 0.270588 0.14902 0.560784 0.270588 
0.14902 0.560784 0.270588 0.14902 0.560784 0.270588 
0.14902 0.560784 0.270588 0.14902 0.560784 0.270588 
0.14902 0.560784 0.270588 0.14902 0.560784 0.270588 
0.14902 0.560784 0.270588 0.14902 0.560784 0.270588 
0.14902 0.560784 0.270588 0.14902 0.560784 0.270588 
0.14902 0.560784 0.270588 0.14902 0.560784 0.270588 
0.14902 0.560784 0.270588 0.14902 0.560784 0.270588 
0.14902 0.560784 0.270588 0.14902 0.560784 0.270588 
0.14902 0.560784 0.270588 0.14902 0.560784 0.270588 
0.14902 0.560784 0.270588 0.14902 0.560784 0.270588 
0.14902 0.560784 0.270588 0.14902 0.560784 0.270588 
0.14902 0.560784 0.270588 0.14902 0.560784 0.270588 
0.14902 0.560784 0.270588 0.14902 0.560784 0.270588 
0.14902 0.560784 0.270588 0.14902 0.560784 0.270588 
0.14902 0.560784 0.270588 0.14902 0.560784 0.270588 
0.14902 0.560784 0.270588 0.14902 0.560784 0.270588 
0.14902 0.560784 0.270588 0.14902 0.560784 0.270588 
0.14902 0.560784 0.270588 0.14902 0.560784 0.270588 
0.14902 0.560784 0.270588 0.14902 0.560784 0.270588 
0.14902 0.560784 0.270588 0.14902 0.560784 0.270588 
0.14902 0.560784 0.270588 0.14902 0.560784 0.270588 
0.14902 0.560784 0.270588 0.14902 0.560784 0.270588 
0.14902 0.560784 0.270588 0.14902 0.560784 0.270588 
0.14902 0.560784 0.270588 0.14902 0.560784 0.270588 
0.14902 0.560784 0.270588 0.14902 0.560784 0.270588 
0.14902 0.560784 0.270588 0.14902 0.560784 0.270588 
0.14902 0.560784 0.270588 0.14902 0.560784 0.270588 
0.14902 0.560784 0.270588 0.14902 0.560784 0.270588 
0.14902 0.560784 0.270588 0.14902 0.560784 0.270588 
0.14902 0.560784 0.270588 0.14902 0.560784 0.270588 
0.14902 0.560784 0.270588 0.14902 0.560784 0.270588 
0.14902 0.560784 0.270588 0.14902 0.560784 0.270588 
0.14902 0.560784 0.270588 0.14902 0.560784 0.270588 
0.14902 0.560784 0.270588 0.14902 0.560784 0.270588 
0.14902 0.560784 0.270588 0.14902 0.560784 0.270588 
0.14902 0.560784 0.270588 0.14902 0.560784 0.270588 
0.14902 0.560784 0.270588 0.14902 0.560784 0.270588 
0.14902 0.560784 0.270588 0.14902 0.560784 0.270588 
0.14902 0.560784 0.270588 0.14902 0.560784 0.270588 
0.14902 0.560784 0.270588 0.14902 0.560784 0.270588 
0.14902 0.560784 0.270588 0.14902 0.560784 0.270588 
0.14902 0.560784 0.270588 0.14902 0.560784 0.270588 
0.14902 0.560784 0.270588 0.14902 0.560784 0.270588 
0.14902 0.560784 0.270588 0.14902 0.560784 0.270588 
0.14902 0.560784 0.270588 0.14902 0.560784 0.270588 
0.14902 0.560784 0.270588 0.14902 0.560784 0.270588 
0.14902 0.560784 0.270588 0.14902 0.560784 0.270588 
0.14902 0.560784 0.270588 0.14902 0.560784 0.270588 
0.14902 0.560784 0.270588 0.14902 0.560784 0.270588 
0.14902 0.560784 0.270588 0.14902 0.560784 0.270588 
0.14902 0.560784 0.270588 0.14902 0.560784 0.270588 
0.14902 0.560784 0.270588 0.14902 0.560784 0.270588 
0.14902 0.560784 0.270588 0.14902 0.560784 0.270588 
0.14902 0.560784 0.270588 0.14902 0.560784 0.270588 
0.14902 0.560784 0.270588 0.14902 0.560784 0.270588 
0.14902 0.560784 0.270588 0.14902 0.560784 0.270588 
0.14902 0.560784 0.270588 0.14902 0.560784 0.270588 
0.14902 0.560784 0.270588 0.14902 0.560784 0.270588 
0.14902 0.560784 0.270588 0.14902 0.560784 0.270588 
0.14902 0.560784 0.270588 0.14902 0.560784 0.270588 
0.14902 0.560784 0.270588 0.14902 0.560784 0.270588 
0.14902 0.560784 0.270588 0.14902 0.560784 0.270588 
0.14902 0.560784 0.270588 0.14902 0.560784 0.270588 
0.14902 0.560784 0.270588 0.14902 0.560784 0.270588 
0.14902 0.560784 0.270588 0.14902 0.560784 0.270588 
0.14902 0.560784 0.270588 0.14902 0.560784 0.270588 
0.14902 0.560784 0.270588 0.14902 0.560784 0.270588 
0.14902 0.560784 0.270588 0.14902 0.560784 0.270588 
0.14902 0.560784 0.270588 0.14902 0.560784 0.270588 
0.14902 0.560784 0.270588 0.14902 0.560784 0.270588 
0.14902 0.560784 0.270588 0.14902 0.560784 0.270588 
0.14902 0.560784 0.270588 0.14902 0.560784 0.270588 
0.14902 0.560784 0.270588 0.14902 0.560784 0.270588 
0.14902 0.560784 0.270588 0.14902 0.560784 0.270588 
0.14902 0.560784 0.270588 0.14902 0.560784 0.270588 
0.14902 0.560784 0.270588 0.14902 0.560784 0.270588 
0.14902 0.560784 0.270588 0.14902 0.560784 0.270588 
0.14902 0.560784 0.270588 0.14902 0.560784 0.270588 
0.14902 0.560784 0.270588 0.14902 0.560784 0.270588 
0.14902 0.560784 0.270588 0.14902 0.560784 0.270588 
0.14902 0.560784 0.270588 0.14902 0.560784 0.270588 
0.14902 0.560784 0.270588 0.14902 0.560784 0.270588 
0.14902 0.560784 0.270588 0.14902 0.560784 0.270588 
0.14902 0.560784 0.270588 0.14902 0.560784 0.270588 
0.14902 0.560784 0.270588 0.14902 0.560784 0.270588 
0.14902 0.560784 0.270588 0.14902 0.560784 0.270588 
0.14902 0.560784 0.270588 0.14902 0.560784 0.270588 
0.14902 0.560784 0.270588 0.14902 0.560784 0.270588 
0.14902 0.560784 0.270588 0.14902 0.560784 0.270588 
0.14902 0.560784 0.270588 0.14902 0.560784 0.270588 
0.14902 0.560784 0.270588 0.14902 0.560784 0.270588 
0.14902 0.560784 0.270588 0.14902 0.560784 0.270588 
0.14902 0.560784 0.270588 0.14902 0.560784 0.270588 
0.14902 0.560784 0.270588 0.14902 0.560784 0.270588 
0.14902 0.560784 0.270588 0.14902 0.560784 0.270588 
0.14902 0.560784 0.270588 0.14902 0.560784 0.270588 
0.14902 0.560784 0.270588 0.14902 0.560784 0.270588 
0.14902 0.560784 0.270588 0.14902 0.560784 0.270588 
0.14902 0.560784 0.270588 0.14902 0.560784 0.270588 
0.14902 0.560784 0.270588 0.14902 0.560784 0.270588 
0.14902 0.560784 0.270588 0.14902 0.560784 0.270588 
0.14902 0.560784 0.270588 0.14902 0.560784 0.270588 
0.14902 0.560784 0.270588 0.14902 0.560784 0.270588 
0.14902 0.560784 0.270588 0.14902 0.560784 0.270588 
0.14902 0.560784 0.270588 0.14902 0.560784 0.270588 
0.14902 0.560784 0.270588 0.14902 0.560784 0.270588 
0.14902 0.560784 0.270588 0.14902 0.560784 0.270588 
0.14902 0.560784 0.270588 0.14902 0.560784 0.270588 
0.14902 0.560784 0.270588 0.14902 0.560784 0.270588 
0.14902 0.560784 0.270588 0.14902 0.560784 0.270588 
0.14902 0.560784 0.270588 0.14902 0.560784 0.270588 
0.14902 0.560784 0.270588 0.14902 0.560784 0.270588 
0.14902 0.560784 0.270588 0.14902 0.560784 0.270588 
0.14902 0.560784 0.270588 0.14902 0.560784 0.270588 
0.14902 0.560784 0.270588 0.14902 0.560784 0.270588 
0.14902 0.560784 0.270588 0.14902 0.560784 0.270588 
0.14902 0.560784 0.270588 0.14902 0.560784 0.270588 
0.14902 0.560784 0.270588 0.14902 0.560784 0.270588 
0.14902 0.560784 0.270588 0.14902 0.560784 0.270588 
0.14902 0.560784 0.270588 0.14902 0.560784 0.270588 
0.14902 0.560784 0.270588 0.14902 0.560784 0.270588 
0.14902 0.560784 0.270588 0.14902 0.560784 0.270588 
0.14902 0.560784 0.270588 0.14902 0.560784 0.270588 
0.14902 0.560784 0.270588 0.14902 0.560784 0.270588 
0.14902 0.560784 0.270588 0.14902 0.560784 0.270588 
0.14902 0.560784 0.270588 0.14902 0.560784 0.270588 
0.14902 0.560784 0.270588 0.14902 0.560784 0.270588 
0.14902 0.560784 0.270588 0.14902 0.560784 0.270588 
0.14902 0.560784 0.270588 0.14902 0.560784 0.270588 
0.14902 0.560784 0.270588 0.14902 0.560784 0.270588 
0.14902 0.560784 0.270588 0.14902 0.560784 0.270588 
0.14902 0.560784 0.270588 0.14902 0.560784 0.270588 
0.14902 0.560784 0.270588 0.14902 0.560784 0.270588 
0.14902 0.560784 0.270588 0.14902 0.560784 0.270588 
0.14902 0.560784 0.270588 0.14902 0.560784 0.270588 
0.14902 0.560784 0.270588 0.14902 0.560784 0.270588 
0.14902 0.560784 0.270588 0.14902 0.560784 0.270588 
0.14902 0.560784 0.270588 0.14902 0.560784 0.270588 
0.14902 0.560784 0.270588 0.14902 0.560784 0.270588 
0.14902 0.560784 0.270588 0.14902 0.560784 0.270588 
0.14902 0.560784 0.270588 0.14902 0.560784 0.270588 
0.14902 0.560784 0.270588 0.14902 0.560784 0.270588 
0.14902 0.560784 0.270588 0.14902 0.560784 0.270588 
0.14902 0.560784 0.270588 0.14902 0.560784 0.270588 
0.14902 0.560784 0.270588 0.14902 0.560784 0.270588 
0.14902 0.560784 0.270588 0.14902 0.560784 0.270588 
0.14902 0.560784 0.270588 0.14902 0.560784 0.270588 
0.14902 0.560784 0.270588 0.14902 0.560784 0.270588 
0.14902 0.560784 0.270588 0.14902 0.560784 0.270588 
0.14902 0.560784 0.270588 0.14902 0.560784 0.270588 
0.14902 0.560784 0.270588 0.14902 0.560784 0.270588 
0.14902 0.560784 0.270588 0.14902 0.560784 0.270588 
0.14902 0.560784 0.270588 0.14902 0.560784 0.270588 
0.14902 0.560784 0.270588 0.14902 0.560784 0.270588 
0.14902 0.560784 0.270588 0.14902 0.560784 0.270588 
0.14902 0.560784 0.270588 0.14902 0.560784 0.270588 
0.14902 0.560784 0.270588 0.14902 0.560784 0.270588 
0.14902 0.560784 0.270588 0.14902 0.560784 0.270588 
0.14902 0.560784 0.270588 0.14902 0.560784 0.270588 
0.14902 0.560784 0.270588 0.14902 0.560784 0.270588 
0.14902 0.560784 0.270588 0.14902 0.560784 0.270588 
0.14902 0.560784 0.270588 0.14902 0.560784 0.270588 
0.14902 0.560784 0.270588 0.14902 0.560784 0.270588 
0.14902 0.560784 0.270588 0.14902 0.560784 0.270588 
0.14902 0.560784 0.270588 0.14902 0.560784 0.270588 
0.14902 0.560784 0.270588 0.14902 0.560784 0.270588 
0.14902 0.560784 0.270588 0.14902 0.560784 0.270588 
0.14902 0.560784 0.270588 0.14902 0.560784 0.270588 
0.14902 0.560784 0.270588 0.14902 0.560784 0.270588 
0.14902 0.560784 0.270588 0.14902 0.560784 0.270588 
0.14902 0.560784 0.270588 0.14902 0.560784 0.270588 
0.14902 0.560784 0.270588 0.14902 0.560784 0.270588 
0.14902 0.560784 0.270588 0.14902 0.560784 0.270588 
0.14902 0.560784 0.270588 0.14902 0.560784 0.270588 
0.14902 0.560784 0.270588 0.14902 0.560784 0.270588 
0.14902 0.560784 0.270588 0.14902 0.560784 0.270588 
0.14902 0.560784 0.270588 0.14902 0.560784 0.270588 
0.14902 0.560784 0.270588 0.14902 0.560784 0.270588 
0.14902 0.560784 0.270588 0.14902 0.560784 0.270588 
0.14902 0.560784 0.270588 0.14902 0.560784 0.270588 
0.14902 0.560784 0.270588 0.14902 0.560784 0.270588 
0.14902 0.560784 0.270588 0.14902 0.560784 0.270588 
0.14902 0.560784 0.270588 0.14902 0.560784 0.270588 
0.14902 0.560784 0.270588 0.14902 0.560784 0.270588 
0.14902 0.560784 0.270588 0.14902 0.560784 0.270588 
0.14902 0.560784 0.270588 0.14902 0.560784 0.270588 
0.14902 0.560784 0.270588 0.14902 0.560784 0.270588 
0.14902 0.560784 0.270588 0.14902 0.560784 0.270588 
0.14902 0.560784 0.270588 0.14902 0.560784 0.270588 
0.14902 0.560784 0.270588 0.14902 0.560784 0.270588 
0.14902 0.560784 0.270588 0.14902 0.560784 0.270588 
0.14902 0.560784 0.270588 0.14902 0.560784 0.270588 
0.14902 0.560784 0.270588 0.14902 0.560784 0.270588 
0.14902 0.560784 0.270588 0.14902 0.560784 0.270588 
0.14902 0.560784 0.270588 0.14902 0.560784 0.270588 
0.14902 0.560784 0.270588 0.14902 0.560784 0.270588 
0.14902 0.560784 0.270588 0.14902 0.560784 0.270588 
0.14902 0.560784 0.270588 0.14902 0.560784 0.270588 
0.14902 0.560784 0.270588 0.14902 0.560784 0.270588 
0.14902 0.560784 0.270588 0.14902 0.560784 0.270588 
0.14902 0.560784 0.270588 0.14902 0.560784 0.270588 
0.14902 0.560784 0.270588 0.14902 0.560784 0.270588 
0.14902 0.560784 0.270588 0.14902 0.560784 0.270588 
0.14902 0.560784 0.270588 0.14902 0.560784 0.270588 
0.14902 0.560784 0.270588 0.14902 0.560784 0.270588 
0.14902 0.560784 0.270588 0.14902 0.560784 0.270588 
0.14902 0.560784 0.270588 0.14902 0.560784 0.270588 
0.14902 0.560784 0.270588 0.14902 0.560784 0.270588 
0.14902 0.560784 0.270588 0.14902 0.560784 0.270588 
0.14902 0.560784 0.270588 0.14902 0.560784 0.270588 
0.14902 0.560784 0.270588 0.14902 0.560784 0.270588 
0.14902 0.560784 0.270588 0.14902 0.560784 0.270588 
0.14902 0.560784 0.270588 0.14902 0.560784 0.270588 
0.14902 0.560784 0.270588 0.14902 0.560784 0.270588 
0.14902 0.560784 0.270588 0.14902 0.560784 0.270588 
0.14902 0.560784 0.270588 0.14902 0.560784 0.270588 
0.14902 0.560784 0.270588 0.14902 0.560784 0.270588 
0.14902 0.560784 0.270588 0.14902 0.560784 0.270588 
0.14902 0.560784 0.270588 0.14902 0.560784 0.270588 
0.14902 0.560784 0.270588 0.14902 0.560784 0.270588 
0.14902 0.560784 0.270588 0.14902 0.560784 0.270588 
0.14902 0.560784 0.270588 0.14902 0.560784 0.270588 
0.14902 0.560784 0.270588 0.14902 0.560784 0.270588 
0.14902 0.560784 0.270588 0.14902 0.560784 0.270588 
0.14902 0.560784 0.270588 0.14902 0.560784 0.270588 
0.14902 0.560784 0.270588 0.14902 0.560784 0.270588 
0.14902 0.560784 0.270588 0.14902 0.560784 0.270588 
0.14902 0.560784 0.270588 0.14902 0.560784 0.270588 
0.14902 0.560784 0.270588 0.14902 0.560784 0.270588 
0.14902 0.560784 0.270588 0.14902 0.560784 0.270588 
0.14902 0.560784 0.270588 0.14902 0.560784 0.270588 
0.14902 0.560784 0.270588 0.14902 0.560784 0.270588 
0.14902 0.560784 0.270588 0.14902 0.560784 0.270588 
0.14902 0.560784 0.270588 0.14902 0.560784 0.270588 
0.14902 0.560784 0.270588 0.14902 0.560784 0.270588 
0.14902 0.560784 0.270588 0.14902 0.560784 0.270588 
0.14902 0.560784 0.270588 0.14902 0.560784 0.270588 
0.14902 0.560784 0.270588 0.14902 0.560784 0.270588 
0.14902 0.560784 0.270588 0.14902 0.560784 0.270588 
0.14902 0.560784 0.270588 0.14902 0.560784 0.270588 
0.14902 0.560784 0.270588 0.14902 0.560784 0.270588 
0.14902 0.560784 0.270588 0.14902 0.560784 0.270588 
0.14902 0.560784 0.270588 0.14902 0.560784 0.270588 
0.14902 0.560784 0.270588 0.14902 0.560784 0.270588 
0.14902 0.560784 0.270588 0.14902 0.560784 0.270588 
0.14902 0.560784 0.270588 0.14902 0.560784 0.270588 
0.14902 0.560784 0.270588 0.14902 0.560784 0.270588 
0.14902 0.560784 0.270588 0.14902 0.560784 0.270588 
0.14902 0.560784 0.270588 0.14902 0.560784 0.270588 
0.14902 0.560784 0.270588 0.14902 0.560784 0.270588 
0.14902 0.560784 0.270588 0.14902 0.560784 0.270588 
0.14902 0.560784 0.270588 0.14902 0.560784 0.270588 
0.14902 0.560784 0.270588 0.14902 0.560784 0.270588 
0.14902 0.560784 0.270588 0.14902 0.560784 0.270588 
0.14902 0.560784 0.270588 0.14902 0.560784 0.270588 
0.14902 0.560784 0.270588 0.14902 0.560784 0.270588 
0.14902 0.560784 0.270588 0.14902 0.560784 0.270588 
0.14902 0.560784 0.270588 0.14902 0.560784 0.270588 
0.14902 0.560784 0.270588 0.14902 0.560784 0.270588 
0.14902 0.560784 0.270588 0.14902 0.560784 0.270588 
0.14902 0.560784 0.270588 0.14902 0.560784 0.270588 
0.14902 0.560784 0.270588 0.14902 0.560784 0.270588 
0.14902 0.560784 0.270588 0.14902 0.560784 0.270588 
0.14902 0.560784 0.270588 0.14902 0.560784 0.270588 
0.14902 0.560784 0.270588 0.14902 0.560784 0.270588 
0.14902 0.560784 0.270588 0.14902 0.560784 0.270588 
0.14902 0.560784 0.270588 0.14902 0.560784 0.270588 
0.14902 0.560784 0.270588 0.14902 0.560784 0.270588 
0.14902 0.560784 0.270588 0.14902 0.560784 0.270588 
0.14902 0.560784 0.270588 0.14902 0.560784 0.270588 
0.14902 0.560784 0.270588 0.14902 0.560784 0.270588 
0.14902 0.560784 0.270588 0.14902 0.560784 0.270588 
0.14902 0.560784 0.270588 0.14902 0.560784 0.270588 
0.14902 0.560784 0.270588 0.14902 0.560784 0.270588 
0.14902 0.560784 0.270588 0.14902 0.560784 0.270588 
0.14902 0.560784 0.270588 0.14902 0.560784 0.270588 
0.14902 0.560784 0.270588 0.14902 0.560784 0.270588 
0.14902 0.560784 0.270588 0.14902 0.560784 0.270588 
0.14902 0.560784 0.270588 0.14902 0.560784 0.270588 
0.14902 0.560784 0.270588 0.14902 0.560784 0.270588 
0.14902 0.560784 0.270588 0.14902 0.560784 0.270588 
0.14902 0.560784 0.270588 0.14902 0.560784 0.270588 
0.14902 0.560784 0.270588 0.14902 0.560784 0.270588 
0.14902 0.560784 0.270588 0.14902 0.560784 0.270588 
0.14902 0.560784 0.270588 0.14902 0.560784 0.270588 
0.14902 0.560784 0.270588 0.14902 0.560784 0.270588 
0.14902 0.560784 0.270588 0.14902 0.560784 0.270588 
0.14902 0.560784 0.270588 0.14902 0.560784 0.270588 
0.14902 0.560784 0.270588 0.14902 0.560784 0.270588 
0.14902 0.560784 0.270588 0.14902 0.560784 0.270588 
0.14902 0.560784 0.270588 0.14902 0.560784 0.270588 
0.14902 0.560784 0.270588 0.14902 0.560784 0.270588 
0.14902 0.560784 0.270588 0.14902 0.560784 0.270588 
0.14902 0.560784 0.270588 0.14902 0.560784 0.270588 
0.14902 0.560784 0.270588 0.14902 0.560784 0.270588 
0.14902 0.560784 0.270588 0.14902 0.560784 0.270588 
0.14902 0.560784 0.270588 0.14902 0.560784 0.270588 
0.14902 0.560784 0.270588 0.14902 0.560784 0.270588 
0.14902 0.560784 0.270588 0.14902 0.560784 0.270588 
0.14902 0.560784 0.270588 0.14902 0.560784 0.270588 
0.14902 0.560784 0.270588 0.14902 0.560784 0.270588 
0.14902 0.560784 0.270588 0.14902 0.560784 0.270588 
0.14902 0.560784 0.270588 0.14902 0.560784 0.270588 
0.14902 0.560784 0.270588 0.14902 0.560784 0.270588 
0.14902 0.560784 0.270588 0.14902 0.560784 0.270588 
0.14902 0.560784 0.270588 0.14902 0.560784 0.270588 
0.14902 0.560784 0.270588 0.14902 0.560784 0.270588 
0.14902 0.560784 0.270588 0.14902 0.560784 0.270588 
0.14902 0.560784 0.270588 0.14902 0.560784 0.270588 
0.14902 0.560784 0.270588 0.14902 0.560784 0.270588 
0.14902 0.560784 0.270588 0.14902 0.560784 0.270588 
0.14902 0.560784 0.270588 0.14902 0.560784 0.270588 
0.14902 0.560784 0.270588 0.14902 0.560784 0.270588 