# vtk DataFile Version 4.2
vtk output
ASCII
DATASET POLYDATA
POINTS 855 float
91.8195 117.599 159.233 91.7177 117.106 159.437 91.466 117.512 159.499 
92.0573 117.31 159.23 91.1795 118.928 159.573 92.4977 118.873 158.882 
91.4885 119.471 159.318 91.9591 119.636 159.068 92.4213 120.095 158.962 
91.5855 120.803 159.49 92.9198 114.801 159.79 92.2818 115.587 159.742 
92.6338 117.429 159.118 93.0375 120.18 158.912 93.1722 120.936 159.008 
92.8995 122.128 159.457 94.2484 122.183 159.43 92.3615 122.719 159.913 
92.1009 113.537 160.624 91.9467 113.104 160.973 91.6741 113.733 160.809 
93.8803 115.219 159.612 95.666 115.26 159.928 90.4585 118.366 160.517 
100.72 118.982 160.173 101.719 119.914 160.309 94.8443 123.167 160.126 
91.934 111.687 161.969 93.5426 111.155 161.994 92.29 112.523 161.248 
89.8314 118.699 161.836 103.39 120.767 160.914 106.457 120.513 161.584 
106.349 120.585 161.563 106.473 120.646 161.586 106.557 120.603 161.666 
90.3221 121.015 161.559 102.31 121.469 160.83 106.431 120.812 161.658 
105.578 121.175 161.494 103.194 122.156 161.354 104.773 121.811 161.565 
93.6225 124.075 161.065 91.9169 123.99 161.685 93.3653 124.369 161.524 
92.1781 124.254 161.868 92.5502 124.336 161.691 92.1365 110.062 163.068 
92.7939 110.369 162.628 93.2006 110.276 162.704 97.7201 113.19 161.713 
106.657 118.289 162.149 106.347 120.145 161.653 108.154 119.097 162.648 
108.522 119.245 162.873 105.914 120.722 161.494 106.952 120.805 162.007 
109.067 119.818 163.422 90.7396 122.499 162.173 107.058 122.127 162.551 
108.657 121.269 163.362 106.744 122.427 162.638 91.4782 123.755 162.486 
94.7733 124.24 161.509 97.2824 123.974 161.878 101.182 123.416 162.461 
104.395 123.117 162.712 93.415 124.503 161.863 93.65 124.537 162.167 
92.6022 109.449 163.463 92.9962 109.338 163.584 90.2907 112.079 162.988 
90.1843 112.806 162.711 103.04 113.889 163.25 105.463 116.176 162.648 
107.122 116.236 163.283 108.967 117.513 163.562 109.105 117.849 163.548 
109.372 120.576 164.143 108.007 122.121 163.205 107.309 122.751 163.365 
108.788 121.915 164.037 91.5923 123.852 163.164 92.9631 124.475 163.17 
99.5745 123.83 163.085 108.561 122.315 164.097 91.9987 124.221 162.994 
91.8546 108.395 164.733 89.8677 111.301 164.108 107.921 115.511 164.17 
109.643 117.567 164.181 109.872 119.231 164.647 89.6632 120.743 164.342 
109.465 120.823 164.663 109.151 121.528 164.6 101.017 123.71 164.102 
92.3742 124.26 163.661 107.975 122.768 164.321 108.462 122.489 164.41 
92.1579 107.975 165.145 90.5031 109.238 164.924 89.4498 111.257 164.911 
88.706 114.725 165.513 110.229 117.531 165.369 110.332 117.924 165.632 
89.0947 119.077 165.256 110.019 119.431 165.42 89.9701 121.364 165.277 
90.4653 122.035 165.472 99.9692 123.759 164.443 102.888 123.417 165.209 
104.342 123.418 164.558 107.006 123.063 164.766 108.697 122.295 164.852 
90.5953 107.76 166.344 108.482 113.974 166.073 109.931 115.376 166.246 
110.454 117.18 166.433 88.7438 118.238 166.869 89.2396 119.765 166.073 
109.733 120.418 166.135 100.536 123.304 165.976 107.94 122.58 165.924 
109.733 114.86 166.47 110.368 116.021 166.916 110.466 116.69 166.764 
110.377 117.949 167.101 94.6533 123.251 166.763 105.311 122.952 166.367 
108.725 121.916 166.424 91.8178 105.147 168.891 89.5981 107.387 167.837 
107.175 112.065 167.458 110.344 115.232 167.713 88.5463 117.744 168.318 
109.332 120.602 167.674 104.422 122.379 167.73 90.9469 104.52 170.046 
89.6166 105.704 169.555 108.745 112.415 168.478 109.975 113.891 168.353 
110.447 115.359 168.788 108.018 121.074 168.914 91.7906 104.307 170.172 
88.6162 117.882 170.07 109.09 120.011 169.158 107.958 120.434 169.878 
108.486 120.612 169.225 90.9127 121.07 169.591 89.5405 104.513 171.278 
88.394 117.171 170.787 109.56 111.743 171.026 109.835 112.114 171.387 
109.897 112.374 171.637 108.95 117.804 171.911 108.987 110.541 172.642 
109.403 111.236 172.396 109.562 111.518 171.794 88.4216 116.86 172.59 
89.4615 118.103 173.354 89.9044 118.703 172.841 89.9656 102.041 174.995 
88.5945 103.577 173.902 109.748 112.249 173.586 91.1713 118.933 173.755 
90.3557 101.747 175.512 87.9971 103.775 174.701 107.116 108.194 174.857 
108.55 109.603 174.106 90.848 118.629 174.148 91.5254 118.328 175.134 
90.4854 101.488 176.363 88.5594 102.548 175.85 87.1154 104.921 175.484 
109.316 110.731 175.267 109.33 113.015 175.721 87.2746 114.198 176.033 
89.945 117.587 175.584 92.0912 118.126 175.704 88.9397 101.829 176.907 
87.6422 103.047 176.724 88.1255 115.449 177.416 88.5966 116.119 176.67 
89.3209 116.667 176.945 90.5024 117.353 176.763 91.1493 117.38 177.061 
91.98 117.486 177.068 88.1414 101.798 177.954 87.1126 103.249 177.868 
104.369 105.711 178.291 107.02 107.246 177.734 105.962 116.088 177.775 
89.8539 116.822 177.425 85.8245 105.969 179.58 108.108 108.059 178.363 
108.641 108.628 178.546 108.629 108.562 178.833 88.5709 100.582 180.475 
87.8021 101.406 179.578 89.1538 99.9146 181.674 89.8024 99.6869 182.026 
87.1742 101.807 180.495 91.9596 100.248 180.992 105.744 105.911 180.4 
107.947 107.635 180.429 108.635 108.709 179.509 89.9803 115.819 180.556 
89.4257 115.604 180.803 88.7884 115.356 180.724 86.1291 103.144 181.505 
107.09 106.725 181.243 108.278 108.285 181.423 108.392 108.774 181.666 
86.8275 113.589 182.128 95.4111 115.247 182.596 105.999 114.294 181.318 
88.6963 115.163 181.499 88.2904 100.043 182.78 85.0072 108.274 183.306 
106.241 113.552 182.582 87.3286 114.02 183.292 88.2004 114.514 183.481 
89.2739 99.3282 185.186 85.1184 110.317 185.044 106.716 112.214 185.031 
86.2244 112.684 184.232 86.5025 113.043 184.545 102.992 114.163 185.394 
88.3423 99.3956 186.614 107.812 108.464 185.446 86.6696 113.152 185.13 
87.2049 100.014 186.594 91.2021 99.2022 186.576 106.18 105.801 186.214 
84.4773 106.84 187.246 106.501 112.058 186.992 85.5142 111.577 188.139 
86.1315 112.348 187.572 104.385 113.639 186.937 105.334 113.167 187.906 
88.2915 98.9413 189.007 88.6901 98.8581 189.199 85.0975 102.771 188.056 
107.302 107.629 187.472 107.454 108.933 188.21 107.313 110.219 187.924 
106.853 111.446 187.619 88.0411 113.729 187.261 88.9259 113.861 188.614 
84.7962 110.311 189.747 86.7958 112.963 189.627 104.495 113.66 189.509 
87.3102 99.3814 190.129 85.5378 101.567 189.473 104.281 104.852 189.258 
107.073 107.806 189.483 88.2444 98.8829 191.174 88.7577 98.7926 191.642 
106.098 106.707 190.481 106.671 107.304 190.115 107.019 108.772 190.887 
106.089 112.691 190.836 87.3891 113.53 191.563 89.7728 98.8311 191.684 
106.685 107.579 190.747 106.535 107.636 191.209 106.778 107.896 190.971 
106.732 109.131 191.946 106.799 111.084 191.831 103.137 114.197 191.286 
106.194 108.673 193.024 106.703 109.39 192.944 106.712 109.92 192.983 
105.668 113.652 193.055 103.806 114.42 192.985 88.5869 98.9937 193.997 
86.8558 99.838 193.323 100.543 104.046 193.543 84.4289 105.326 193.581 
106.484 109.582 193.546 106.556 110.032 193.828 106.456 110.254 194.079 
99.0544 114.574 193.951 106.391 113.316 194.251 88.417 99.1162 194.501 
88.864 99.1202 194.547 86.0793 101.001 195.146 106.558 113.349 195.363 
106.22 114.056 195.113 105.145 114.734 195.243 105.669 114.69 195.651 
88.0887 99.2211 194.533 89.7213 99.3492 195.168 84.4249 108.925 196.123 
84.992 111.357 196.821 106.386 112.295 195.994 106.526 112.523 195.792 
106.559 112.965 195.738 102.735 115.15 195.877 105.313 114.98 196.416 
105.912 114.666 196.042 106.191 114.383 196.039 105.643 114.835 196.517 
105.994 114.624 196.365 87.3238 100.061 196.167 87.7168 99.8842 196.359 
88.1784 99.6697 196.17 89.3108 99.7038 196.5 96.2826 103.024 196.525 
105.897 112.99 197.026 85.7389 112.674 197.585 105.951 113.708 197.066 
106.086 114.062 196.859 104.807 115.084 196.547 106.213 114.164 196.59 
106.139 114.409 196.47 104.41 115.131 197.251 105.42 114.807 197.014 
88.7712 99.8507 197.028 87.7945 100.36 197.584 84.4937 106.403 197.517 
105.324 114.264 197.623 102.748 115.356 197.407 105.139 114.545 197.645 
105.971 114.364 196.861 104.787 114.827 197.617 107 117.009 198.017 
107 117.009 198.017 107 117.009 198.017 107 117.009 198.017 
107 117.009 198.017 85.6894 112.663 199.411 104.999 113.905 197.984 
102.695 115.249 198.545 103.86 114.948 198.319 107 117.009 198.017 
100.181 109.086 199.663 103.913 114.665 198.632 103.501 114.752 198.864 
101.975 115.11 199.43 87.75 101.265 199.505 88.9317 101.73 200.427 
86.33 102.731 200.097 101.622 112.019 200.189 101.291 114.426 200.58 
102.541 114.146 199.798 98.4903 115.624 200.299 101.641 114.631 200.24 
101.636 114.89 200.018 103.03 114.567 199.31 99.7672 115.448 200.307 
88.256 102.126 200.982 86.3133 103.624 201.193 84.9001 109.224 201.482 
85.3072 111.456 201.955 100.551 113.837 201.215 100.325 114.927 200.891 
98.4986 115.43 201.839 101 117.009 202.017 101 117.009 202.017 
101 117.009 202.017 101 117.009 202.017 101 117.009 202.017 
86.2723 113.091 203.238 98.9544 114.914 202.026 91.2886 116.168 203.235 
97.6197 115.573 202.546 98.1841 115.51 202.34 98.0576 115.532 202.482 
101 117.009 202.017 98.2149 115.488 202.433 87.9765 104.118 202.935 
88.9811 104.468 203.316 85.9532 106.232 203.165 85.2797 109.491 202.961 
86.1113 112.459 203.939 97.0815 113.941 203.748 97.9017 115.21 202.807 
95.7016 115.79 203.62 98.1142 115.419 202.531 96.6214 115.759 203.389 
87.0023 105.048 203.364 87.3176 105.501 203.961 87.6991 114.772 205.447 
96.2603 115.223 203.94 92.3742 116.444 204.475 93.4771 116.306 204.87 
86.9307 106.067 204.199 88.2928 106.264 204.923 88.8467 106.346 205.014 
94.6458 113.106 205.447 94.11 114.735 205.89 89.1022 115.932 205.806 
94.315 115.679 205.375 91.4879 116.673 206.069 93.2194 116.25 205.548 
86.9899 107.109 204.899 87.0598 108.738 205.92 89.1034 108.475 206.578 
90.739 110.354 207.003 93.5452 113.501 206.259 87.6184 114.2 206.692 
87.7488 114.541 206.464 92.5543 116.338 206.49 93.9356 115.567 205.768 
90.897 116.726 206.592 91.0122 116.75 206.976 92.2986 116.595 206.89 
88.4925 108.076 206.308 87.1857 109.851 206.52 89.446 109.705 207.171 
89.8111 110.823 207.58 87.3567 112.366 207.064 87.5948 113.643 207.143 
[...]
POINT_DATA 855
COLOR_SCALARS scalars 3
0.14902 0.560784 0.270588 0.14902 0.560784 0.270588 0.14902 0.560784 0.270588 
0.14902 0.560784 0.270588 0.14902 0.560784 0.270588 
0.14902 0.560784 0.270588 0.14902 0.560784 0.270588 
0.14902 0.560784 0.270588 0.14902 0.560784 0.270588 
0.14902 0.560784 0.270588 0.14902 0.560784 0.270588 
0.14902 0.560784 0.270588 0.14902 0.560784 0.270588 
0.14902 0.560784 0.270588 0.14902 0.560784 0.270588 
0.14902 0.560784 0.270588 0.14902 0.560784 0.270588 
0.14902 0.560784 0.270588 0.14902 0.560784 0.270588 
0.14902 0.560784 0.270588 0.14902 0.560784 0.270588 
0.14902 0.560784 0.270588 0.14902 0.560784 0.270588 
0.14902 0.560784 0.270588 0.14902 0.560784 0.270588 
0.14902 0.560784 0.270588 0.14902 0.560784 0.270588 
0.14902 0.560784 0.270588 0.14902 0.560784 0.270588 
0.14902 0.560784 0.270588 0.14902 0.560784 0.270588 
0.14902 0.560784 0.270588 0.14902 0.560784 0.270588 
0.14902 0.560784 0.270588 0.14902 0.560784 0.270588 
0.14902 0.560784 0.270588 0.14902 0.560784 0.270588 
0.14902 0.560784 0.270588 0.14902 0.560784 0.270588 
0.14902 0.560784 0.270588 0.14902 0.560784 0.270588 
0.14902 0.560784 0.270588 0.14902 0.560784 0.270588 
0.14902 0.560784 0.270588 0.14902 0.560784 0.270588 
0.14902 0.560784 0.270588 0.14902 0.560784 0.270588 
0.14902 0.560784 0.270588 0.14902 0.560784 0.270588 
0.14902 0.560784 0.270588 0.14902 0.560784 0.270588 
0.14902 0.560784 0.270588 0.14902 0.560784 0.270588 
0.14902 0.560784 0.270588 0.14902 0.560784 0.270588 
0.14902 0.560784 0.270588 0.14902 0.560784 0.270588 
0.14902 0.560784 0.270588 0.14902 0.560784 0.270588 
0.14902 0.560784 0.270588 0.14902 0.560784 0.270588 
0.14902 0.560784 0.270588 0.14902 0.560784 0.270588 
0.14902 0.560784 0.270588 0.14902 0.560784 0.270588 
0.14902 0.560784 0.270588 0.14902 0.560784 0.270588 
0.14902 0.560784 0.270588 0.14902 0.560784 0.270588 
0.14902 0.560784 0.270588 0.14902 0.560784 0.270588 
0.14902 0.560784 0.270588 0.14902 0.560784 0.270588 
0.14902 0.560784 0.270588 0.14902 0.560784 0.270588 
0.14902 0.560784 0.270588 0.14902 0.560784 0.270588 
0.14902 0.560784 0.270588 0.14902 0.560784 0.270588 
0.14902 0.560784 0.270588 0.14902 0.560784 0.270588 
0.14902 0.560784 0.270588 0.14902 0.560784 0.270588 
0.14902 0.560784 0.270588 0.14902 0.560784 0.270588 
0.14902 0.560784 0.270588 0.14902 0.560784 0.270588 
0.14902 0.560784 0.270588 0.14902 0.560784 0.270588 
0.14902 0.560784 0.270588 0.14902 0.560784 0.270588 
0.14902 0.560784 0.270588 0.14902 0.560784 0.270588 
0.14902 0.560784 0.270588 0.14902 0.560784 0.270588 
0.14902 0.560784 0.270588 0.14902 0.560784 0.270588 
0.14902 0.560784 0.270588 0.14902 0.560784 0.270588 
0.14902 0.560784 0.270588 0.14902 0.560784 0.270588 
0.14902 0.560784 0.270588 0.14902 0.560784 0.270588 
0.14902 0.560784 0.270588 0.14902 0.560784 0.270588 
0.14902 0.560784 0.270588 0.14902 0.560784 0.270588 
0.14902 0.560784 0.270588 0.14902 0.560784 0.270588 
0.14902 0.560784 0.270588 0.14902 0.560784 0.270588 
0.14902 0.560784 0.270588 0.14902 0.560784 0.270588 
0.14902 0.560784 0.270588 0.14902 0.560784 0.270588 
0.14902 0.560784 0.270588 0.14902 0.560784 0.270588 
0.14902 0.560784 0.270588 0.14902 0.560784 0.270588 
0.14902 0.560784 0.270588 0.14902 0.560784 0.270588 
0.14902 0.560784 0.270588 0.14902 0.560784 0.270588 
0.14902 0.560784 0.270588 0.14902 0.560784 0.270588 
0.14902 0.560784 0.270588 0.14902 0.560784 0.270588 
0.14902 0.560784 0.270588 0.14902 0.560784 0.270588 
0.14902 0.560784 0.270588 0.14902 0.560784 0.270588 
0.14902 0.560784 0.270588 0.14902 0.560784 0.270588 
0.14902 0.560784 0.270588 0.14902 0.560784 0.270588 
0.14902 0.560784 0.270588 0.14902 0.560784 0.270588 
0.14902 0.560784 0.270588 0.14902 0.560784 0.270588 
0.14902 0.560784 0.270588 0.14902 0.560784 0.270588 
0.14902 0.560784 0.270588 0.14902 0.560784 0.270588 
0.14902 0.560784 0.270588 0.14902 0.560784 0.270588 
0.14902 0.560784 0.270588 0.14902 0.560784 0.270588 
0.14902 0.560784 0.270588 0.14902 0.560784 0.270588 
0.14902 0.560784 0.270588 0.14902 0.560784 0.270588 
0.14902 0.560784 0.270588 0.14902 0.560784 0.270588 
0.14902 0.560784 0.270588 0.14902 0.560784 0.270588 
0.14902 0.560784 0.270588 0.14902 0.560784 0.270588 
0.14902 0.560784 0.270588 0.14902 0.560784 0.270588 
0.14902 0.560784 0.270588 0.14902 0.560784 0.270588 
0.14902 0.560784 0.270588 0.14902 0.560784 0.270588 
0.14902 0.560784 0.270588 0.14902 0.560784 0.270588 
0.14902 0.560784 0.270588 0.14902 0.560784 0.270588 
0.14902 0.560784 0.270588 0.14902 0.560784 0.270588 
0.14902 0.560784 0.270588 0.14902 0.560784 0.270588 
0.14902 0.560784 0.270588 0.14902 0.560784 0.270588 
0.14902 0.560784 0.270588 0.14902 0.560784 0.270588 
0.14902 0.560784 0.270588 0.14902 0.560784 0.270588 
0.14902 0.560784 0.270588 0.14902 0.560784 0.270588 
0.14902 0.560784 0.270588 0.14902 0.560784 0.270588 
0.14902 0.560784 0.270588 0.14902 0.560784 0.270588 
0.14902 0.560784 0.270588 0.14902 0.560784 0.270588 
0.14902 0.560784 0.270588 0.14902 0.560784 0.270588 
0.14902 0.560784 0.270588 0.14902 0.560784 0.270588 
0.14902 0.560784 0.270588 0.14902 0.560784 0.270588 
0.14902 0.560784 0.270588 0.14902 0.560784 0.270588 
0.14902 0.560784 0.270588 0.14902 0.560784 0.270588 
0.14902 0.560784 0.270588 0.14902 0.560784 0.270588 
0.14902 0.560784 0.270588 0.14902 0.560784 0.270588 
0.14902 0.560784 0.270588 0.14902 0.560784 0.270588 
0.14902 0.560784 0.270588 0.14902 0.560784 0.270588 
0.14902 0.560784 0.270588 0.14902 0.560784 0.270588 
0.14902 0.560784 0.270588 0.14902 0.560784 0.270588 
0.14902 0.560784 0.270588 0.14902 0.560784 0.270588 
0.14902 0.560784 0.270588 0.14902 0.560784 0.270588 
0.14902 0.560784 0.270588 0.14902 0.560784 0.270588 
0.14902 0.560784 0.270588 0.14902 0.560784 0.270588 
0.14902 0.560784 0.270588 0.14902 0.560784 0.270588 
0.14902 0.560784 0.270588 0.14902 0.560784 0.270588 
0.14902 0.560784 0.270588 0.14902 0.560784 0.270588 
0.14902 0.560784 0.270588 0.14902 0.560784 0.270588 
0.14902 0.560784 0.270588 0.14902 0.560784 0.270588 
0.14902 0.560784 0.270588 0.14902 0.560784 0.270588 
0.14902 0.560784 0.270588 0.14902 0.560784 0.270588 
0.14902 0.560784 0.270588 0.14902 0.560784 0.270588 
0.14902 0.560784 0.270588 0.14902 0.560784 0.270588 
0.14902 0.560784 0.270588 0.14902 0.560784 0.270588 
0.14902 0.560784 0.270588 0.14902 0.560784 0.270588 
0.14902 0.560784 0.270588 0.14902 0.560784 0.270588 
0.14902 0.560784 0.270588 0.14902 0.560784 0.270588 
0.14902 0.560784 0.270588 0.14902 0.560784 0.270588 
0.14902 0.560784 0.270588 0.14902 0.560784 0.270588 
0.14902 0.560784 0.270588 0.14902 0.560784 0.270588 
0.14902 0.560784 0.270588 0.14902 0.560784 0.270588 
0.14902 0.560784 0.270588 0.14902 0.560784 0.270588 
0.14902 0.560784 0.270588 0.14902 0.560784 0.270588 
0.14902 0.560784 0.270588 0.14902 0.560784 0.270588 
0.14902 0.560784 0.270588 0.14902 0.560784 0.270588 
0.14902 0.560784 0.270588 0.14902 0.560784 0.270588 
0.14902 0.560784 0.270588 0.14902 0.560784 0.270588 
0.14902 0.560784 0.270588 0.14902 0.560784 0.270588 
0.14902 0.560784 0.270588 0.14902 0.560784 0.270588 
0.14902 0.560784 0.270588 0.14902 0.560784 0.270588 
0.14902 0.560784 0.270588 0.14902 0.560784 0.270588 
0.14902 0.560784 0.270588 0.14902 0.560784 0.270588 
0.14902 0.560784 0.270588 0.14902 0.560784 0.270588 
0.14902 0.560784 0.270588 0.14902 0.560784 0.270588 
0.14902 0.560784 0.270588 0.14902 0.560784 0.270588 
0.14902 0.560784 0.270588 0.14902 0.560784 0.270588 
0.14902 0.560784 0.270588 0.14902 0.560784 0.270588 
0.14902 0.560784 0.270588 0.14902 0.560784 0.270588 
0.14902 0.560784 0.270588 0.14902 0.560784 0.270588 
0.14902 0.560784 0.270588 0.14902 0.560784 0.270588 
0.14902 0.560784 0.270588 0.14902 0.560784 0.270588 
0.14902 0.560784 0.270588 0.14902 0.560784 0.270588 
0.14902 0.560784 0.270588 0.14902 0.560784 0.270588 
0.14902 0.560784 0.270588 0.14902 0.560784 0.270588 
0.14902 0.560784 0.270588 0.14902 0.560784 0.270588 
0.14902 0.560784 0.270588 0.14902 0.560784 0.270588 
0.14902 0.560784 0.270588 0.14902 0.560784 0.270588 
0.14902 0.560784 0.270588 0.14902 0.560784 0.270588 
0.14902 0.560784 0.270588 0.14902 0.560784 0.270588 
0.14902 0.560784 0.270588 0.14902 0.560784 0.270588 
0.14902 0.560784 0.270588 0.14902 0.560784 0.270588 
0.14902 0.560784 0.270588 0.14902 0.560784 0.270588 
0.14902 0.560784 0.270588 0.14902 0.560784 0.270588 
0.14902 0.560784 0.270588 0.14902 0.560784 0.270588 
0.14902 0.560784 0.270588 0.14902 0.560784 0.270588 
0.14902 0.560784 0.270588 0.14902 0.560784 0.270588 
0.14902 0.560784 0.270588 0.14902 0.560784 0.270588 
0.14902 0.560784 0.270588 0.14902 0.560784 0.270588 
0.14902 0.560784 0.270588 0.14902 0.560784 0.270588 
0.14902 0.560784 0.270588 0.14902 0.560784 0.270588 
0.14902 0.560784 0.270588 0.14902 0.560784 0.270588 
0.14902 0.560784 0.270588 0.14902 0.560784 0.270588 
0.14902 0.560784 0.270588 0.14902 0.560784 0.270588 
0.14902 0.560784 0.270588 0.14902 0.560784 0.270588 
0.14902 0.560784 0.270588 0.14902 0.560784 0.270588 
0.14902 0.560784 0.270588 0.14902 0.560784 0.270588 
0.14902 0.560784 0.270588 0.14902 0.560784 0.270588 
0.14902 0.560784 0.270588 0.14902 0.560784 0.270588 
0.14902 0.560784 0.270588 0.14902 0.560784 0.270588 
0.14902 0.560784 0.270588 0.14902 0.560784 0.270588 
0.14902 0.560784 0.270588 0.14902 0.560784 0.270588 
0.14902 0.560784 0.270588 0.14902 0.560784 0.270588 
0.14902 0.560784 0.270588 0.14902 0.560784 0.270588 
0.14902 0.560784 0.270588 0.14902 0.560784 0.270588 
0.14902 0.560784 0.270588 0.14902 0.560784 0.270588 
0.14902 0.560784 0.270588 0.14902 0.560784 0.270588 
0.14902 0.560784 0.270588 0.14902 0.560784 0.270588 
0.14902 0.560784 0.270588 0.14902 0.560784 0.270588 
0.14902 0.560784 0.270588 0.14902 0.560784 0.270588 
0.14902 0.560784 0.270588 0.14902 0.560784 0.270588 
0.14902 0.560784 0.270588 0.14902 0.560784 0.270588 
0.14902 0.560784 0.270588 0.14902 0.560784 0.270588 
0.14902 0.560784 0.270588 0.14902 0.560784 0.270588 
0.14902 0.560784 0.270588 0.14902 0.560784 0.270588 
0.14902 0.560784 0.270588 0.14902 0.560784 0.270588 
0.14902 0.560784 0.270588 0.14902 0.560784 0.270588 
0.14902 0.560784 0.270588 0.14902 0.560784 0.270588 
0.14902 0.560784 0.270588 0.14902 0.560784 0.270588 
0.14902 0.560784 0.270588 0.14902 0.560784 0.270588 
0.14902 0.560784 0.270588 0.14902 0.560784 0.270588 
0.14902 0.560784 0.270588 0.14902 0.560784 0.270588 
0.14902 0.560784 0.270588 0.14902 0.560784 0.270588 
0.14902 0.560784 0.270588 0.14902 0.560784 0.270588 
0.14902 0.560784 0.270588 0.14902 0.560784 0.270588 
0.14902 0.560784 0.270588 0.14902 0.560784 0.270588 
0.14902 0.560784 0.270588 0.14902 0.560784 0.270588 
0.14902 0.560784 0.270588 0.14902 0.560784 0.270588 
0.14902 0.560784 0.270588 0.14902 0.560784 0.270588 
0.14902 0.560784 0.270588 0.14902 0.560784 0.270588 
0.14902 0.560784 0.270588 0.14902 0.560784 0.270588 
0.14902 0.560784 0.270588 0.14902 0.560784 0.270588 
0.14902 0.560784 0.270588 0.14902 0.560784 0.270588 
0.14902 0.560784 0.270588 0.14902 0.560784 0.270588 
0.14902 0.560784 0.270588 0.14902 0.560784 0.270588 
0.14902 0.560784 0.270588 0.14902 0.560784 0.270588 
0.14902 0.560784 0.270588 0.14902 0.560784 0.270588 
0.14902 0.560784 0.270588 0.14902 0.560784 0.270588 
0.14902 0.560784 0.270588 0.14902 0.560784 0.270588 
0.14902 0.560784 0.270588 0.14902 0.560784 0.270588 
0.14902 0.560784 0.270588 0.14902 0.560784 0.270588 
0.14902 0.560784 0.270588 0.14902 0.560784 0.270588 
0.14902 0.560784 0.270588 0.14902 0.560784 0.270588 
0.14902 0.560784 0.270588 0.14902 0.560784 0.270588 
0.14902 0.560784 0.270588 0.14902 0.560784 0.270588 
0.14902 0.560784 0.270588 0.14902 0.560784 0.270588 
0.14902 0.560784 0.270588 0.14902 0.560784 0.270588 
0.14902 0.560784 0.270588 0.14902 0.560784 0.270588 
0.14902 0.560784 0.270588 0.14902 0.560784 0.270588 
0.14902 0.560784 0.270588 0.14902 0.560784 0.270588 
0.14902 0.560784 0.270588 0.14902 0.560784 0.270588 
0.14902 0.560784 0.270588 0.14902 0.560784 0.270588 
0.14902 0.560784 0.270588 0.14902 0.560784 0.270588 
0.14902 0.560784 0.270588 0.14902 0.560784 0.270588 
0.14902 0.560784 0.270588 0.14902 0.560784 0.270588 
0.14902 0.560784 0.270588 0.14902 0.560784 0.270588 
0.14902 0.560784 0.270588 0.14902 0.560784 0.270588 
0.14902 0.560784 0.270588 0.14902 0.560784 0.270588 
0.14902 0.560784 0.270588 0.14902 0.560784 0.270588 
0.14902 0.560784 0.270588 0.14902 0.560784 0.270588 
0.14902 0.560784 0.270588 0.14902 0.560784 0.270588 
0.14902 0.560784 0.270588 0.14902 0.560784 0.270588 
0.14902 0.560784 0.270588 0.14902 0.560784 0.270588 
0.14902 0.560784 0.270588 0.14902 0.560784 0.270588 
0.14902 0.560784 0.270588 0.14902 0.560784 0.270588 
0.14902 0.560784 0.270588 0.14902 0.560784 0.270588 
0.14902 0.560784 0.270588 0.14902 0.560784 0.270588 
0.14902 0.560784 0.270588 0.14902 0.560784 0.270588 
0.14902 0.560784 0.270588 0.14902 0.560784 0.270588 
0.14902 0.560784 0.270588 0.14902 0.560784 0.270588 
0.14902 0.560784 0.270588 0.14902 0.560784 0.270588 
0.14902 0.560784 0.270588 0.14902 0.560784 0.270588 
0.14902 0.560784 0.270588 0.14902 0.560784 0.270588 
0.14902 0.560784 0.270588 0.14902 0.560784 0.270588 
0.14902 0.560784 0.270588 0.14902 0.560784 0.270588 
0.14902 0.560784 0.270588 0.14902 0.560784 0.270588 
0.14902 0.560784 0.270588 0.14902 0.560784 0.270588 
0.14902 0.560784 0.270588 0.14902 0.560784 0.270588 
0.14902 0.560784 0.270588 0.14902 0.560784 0.270588 
0.14902 0.560784 0.270588 0.14902 0.560784 0.270588 
0.14902 0.560784 0.270588 0.14902 0.560784 0.270588 
0.14902 0.560784 0.270588 0.14902 0.560784 0.270588 
0.14902 0.560784 0.270588 0.14902 0.560784 0.270588 
0.14902 0.560784 0.270588 0.14902 0.560784 0.270588 
0.14902 0.560784 0.270588 0.14902 0.560784 0.270588 
0.14902 0.560784 0.270588 0.14902 0.560784 0.270588 
0.14902 0.560784 0.270588 0.14902 0.560784 0.270588 
0.14902 0.560784 0.270588 0.14902 0.560784 0.270588 
0.14902 0.560784 0.270588 0.14902 0.560784 0.270588 
0.14902 0.560784 0.270588 0.14902 0.560784 0.270588 
0.14902 0.560784 0.270588 0.14902 0.560784 0.270588 
0.14902 0.560784 0.270588 0.14902 0.560784 0.270588 
0.14902 0.560784 0.270588 0.14902 0.560784 0.270588 
0.14902 0.560784 0.270588 0.14902 0.560784 0.270588 
0.14902 0.560784 0.270588 0.14902 0.560784 0.270588 
0.14902 0.560784 0.270588 0.14902 0.560784 0.270588 
0.14902 0.560784 0.270588 0.14902 0.560784 0.270588 
0.14902 0.560784 0.270588 0.14902 0.560784 0.270588 
0.14902 0.560784 0.270588 0.14902 0.560784 0.270588 
0.14902 0.560784 0.270588 0.14902 0.560784 0.270588 
0.14902 0.560784 0.270588 0.14902 0.560784 0.270588 
0.14902 0.560784 0.270588 0.14902 0.560784 0.270588 
0.14902 0.560784 0.270588 0.14902 0.560784 0.270588 
0.14902 0.560784 0.270588 0.14902 0.560784 0.270588 
0.14902 0.560784 0.270588 0.14902 0.560784 0.270588 
0.14902 0.560784 0.270588 0.14902 0.560784 0.270588 
0.14902 0.560784 0.270588 0.14902 0.560784 0.270588 
0.14902 0.560784 0.270588 0.14902 0.560784 0.270588 
0.14902 0.560784 0.270588 0.14902 0.560784 0.270588 
0.14902 0.560784 0.270588 0.14902 0.560784 0.270588 
0.14902 0.560784 0.270588 0.14902 0.560784 0.270588 
0.14902 0.560784 0.270588 0.14902 0.560784 0.270588 
0.14902 0.560784 0.270588 0.14902 0.560784 0.270588 
0.14902 0.560784 0.270588 0.14902 0.560784 0.270588 
0.14902 0.560784 0.270588 0.14902 0.560784 0.270588 
0.14902 0.560784 0.270588 0.14902 0.560784 0.270588 
0.14902 0.560784 0.270588 0.14902 0.560784 0.270588 
0.14902 0.560784 0.270588 0.14902 0.560784 0.270588 
0.14902 0.560784 0.270588 0.14902 0.560784 0.270588 
0.14902 0.560784 0.270588 0.14902 0.560784 0.270588 
0.14902 0.560784 0.270588 0.14902 0.560784 0.270588 
0.14902 0.560784 0.270588 0.14902 0.560784 0.270588 
0.14902 0.560784 0.270588 0.14902 0.560784 0.270588 
0.14902 0.560784 0.270588 0.14902 0.560784 0.270588 
0.14902 0.560784 0.270588 0.14902 0.560784 0.270588 
0.14902 0.560784 0.270588 0.14902 0.560784 0.270588 
0.14902 0.560784 0.270588 0.14902 0.560784 0.270588 
0.14902 0.560784 0.270588 0.14902 0.560784 0.270588 
0.14902 0.560784 0.270588 0.14902 0.560784 0.270588 
0.14902 0.560784 0.270588 0.14902 0.560784 0.270588 
0.14902 0.560784 0.270588 0.14902 0.560784 0.270588 
0.14902 0.560784 0.270588 0.14902 0.560784 0.270588 
0.14902 0.560784 0.270588 0.14902 0.560784 0.270588 
0.14902 0.560784 0.270588 0.14902 0.560784 0.270588 
0.14902 0.560784 0.270588 0.14902 0.560784 0.270588 
0.14902 0.560784 0.270588 0.14902 0.560784 0.270588 
0.14902 0.560784 0.270588 0.14902 0.560784 0.270588 
0.14902 0.560784 0.270588 0.14902 0.560784 0.270588 
0.14902 0.560784 0.270588 0.14902 0.560784 0.270588 
0.14902 0.560784 0.270588 0.14902 0.560784 0.270588 
0.14902 0.560784 0.270588 0.14902 0.560784 0.270588 
0.14902 0.560784 0.270588 0.14902 0.560784 0.270588 
0.14902 0.560784 0.270588 0.14902 0.560784 0.270588 
0.14902 0.560784 0.270588 0.14902 0.560784 0.270588 
0.14902 0.560784 0.270588 0.14902 0.560784 0.270588 
0.14902 0.560784 0.270588 0.14902 0.560784 0.270588 
0.14902 0.560784 0.270588 0.14902 0.560784 0.270588 
0.14902 0.560784 0.270588 0.14902 0.560784 0.270588 
0.14902 0.560784 0.270588 0.14902 0.560784 0.270588 
0.14902 0.560784 0.270588 0.14902 0.560784 0.270588 
0.14902 0.560784 0.270588 0.14902 0.560784 0.270588 
0.14902 0.560784 0.270588 0.14902 0.560784 0.270588 
0.14902 0.560784 0.270588 0.14902 0.560784 0.270588 
0.14902 0.560784 0.270588 0.14902 0.560784 0.270588 
0.14902 0.560784 0.270588 0.14902 0.560784 0.270588 
0.14902 0.560784 0.270588 0.14902 0.560784 0.270588 
0.14902 0.560784 0.270588 0.14902 0.560784 0.270588 
0.14902 0.560784 0.270588 0.14902 0.560784 0.270588 
0.14902 0.560784 0.270588 0.14902 0.560784 0.270588 
0.14902 0.560784 0.270588 0.14902 0.560784 0.270588 
0.14902 0.560784 0.270588 0.14902 0.560784 0.270588 
0.14902 0.560784 0.270588 0.14902 0.560784 0.270588 
0.14902 0.560784 0.270588 0.14902 0.560784 0.270588 
0.14902 0.560784 0.270588 0.14902 0.560784 0.270588 
0.14902 0.560784 0.270588 0.14902 0.560784 0.270588 
0.14902 0.560784 0.270588 0.14902 0.560784 0.270588 
0.14902 0.560784 0.270588 0.14902 0.560784 0.270588 
0.14902 0.560784 0.270588 0.14902 0.560784 0.270588 
0.14902 0.560784 0.270588 0.14902 0.560784 0.270588 
0.14902 0.560784 0.270588 0.14902 0.560784 0.270588 
0.14902 0.560784 0.270588 0.14902 0.560784 0.270588 
0.14902 0.560784 0.270588 0.14902 0.560784 0.270588 
0.14902 0.560784 0.270588 0.14902 0.560784 0.270588 
0.14902 0.560784 0.270588 0.14902 0.560784 0.270588 
0.14902 0.560784 0.270588 0.14902 0.560784 0.270588 
0.14902 0.560784 0.270588 0.14902 0.560784 0.270588 
0.14902 0.560784 0.270588 0.14902 0.560784 0.270588 
0.14902 0.560784 0.270588 0.14902 0.560784 0.270588 
0.14902 0.560784 0.270588 0.14902 0.560784 0.270588 
0.14902 0.560784 0.270588 0.14902 0.560784 0.270588 
0.14902 0.560784 0.270588 0.14902 0.560784 0.270588 
0.14902 0.560784 0.270588 0.14902 0.560784 0.270588 
0.14902 0.560784 0.270588 0.14902 0.560784 0.270588 
0.14902 0.560784 0.270588 0.14902 0.560784 0.270588 
0.14902 0.560784 0.270588 0.14902 0.560784 0.270588 
0.14902 0.560784 0.270588 0.14902 0.560784 0.270588 
0.14902 0.560784 0.270588 0.14902 0.560784 0.270588 
0.14902 0.560784 0.270588 0.14902 0.560784 0.270588 
0.14902 0.560784 0.270588 0.14902 0.560784 0.270588 
0.14902 0.560784 0.270588 0.14902 0.560784 0.270588 
0.14902 0.560784 0.270588 0.14902 0.560784 0.270588 
0.14902 0.560784 0.270588 0.14902 0.560784 0.270588 
0.14902 0.560784 0.270588 0.14902 0.560784 0.270588 
0.14902 0.560784 0.270588 0.14902 0.560784 0.270588 
0.14902 0.560784 0.270588 0.14902 0.560784 0.270588 
0.14902 0.560784 0.270588 0.14902 0.560784 0.270588 
0.14902 0.560784 0.270588 0.14902 0.560784 0.270588 
0.14902 0.560784 0.270588 0.14902 0.560784 0.270588 
0.14902 0.560784 0.270588 0.14902 0.560784 0.270588 
0.14902 0.560784 0.270588 0.14902 0.560784 0.270588 
0.14902 0.560784 0.270588 0.14902 0.560784 0.270588 
0.14902 0.560784 0.270588 0.14902 0.560784 0.270588 
0.14902 0.560784 0.270588 0.14902 0.560784 0.270588 
0.14902 0.560784 0.270588 0.14902 0.560784 0.270588 