# vtk DataFile Version 4.2
vtk output
ASCII
DATASET POLYDATA
POINTS 1571 float
232.559 239.498 113.047 232.417 239.414 113.072 232.472 239.557 113.04 
232.57 239.481 113.123 232.604 239.623 113.132 228.06 238.577 113.168 
231.039 239.021 113.015 229.951 239.651 112.848 231.508 239.443 112.946 
232.091 239.21 113.232 232.111 239.482 113.033 232.448 239.384 113.214 
232.474 239.862 113.131 232.689 239.859 113.336 224.012 237.818 114.367 
228.077 237.788 113.852 229.24 238.087 113.449 229.906 238.033 113.646 
223.668 238.108 114.282 223.237 238.135 114.388 231.331 238.689 113.765 
224.605 239.023 113.94 232.786 240.002 113.783 231.745 241.11 113.06 
232.933 240.97 113.554 231.573 242.247 113.205 233.07 241.703 113.549 
233.252 242.877 113.525 233.177 242.361 113.514 236.257 245.636 114.125 
237.236 245.781 114.474 237.544 246.015 114.586 235.447 246.635 114.12 
236.473 246.604 114.129 237.019 246.629 114.288 237.599 246.338 114.535 
237.749 246.54 114.702 235.811 246.915 114.166 235.96 247.139 114.278 
237.291 247.026 114.536 237.725 246.929 114.863 236.323 247.429 114.525 
237.359 234.768 116.248 237.278 234.709 116.432 237.269 234.782 116.344 
237.44 234.773 116.272 237.388 234.72 116.311 237.459 234.735 116.387 
237.332 234.831 116.275 237.42 234.845 116.292 237.53 234.843 116.47 
237.463 234.974 116.511 221.506 237.338 115.48 222.971 237.032 115.324 
229.144 237.801 114.104 230.104 238.045 113.961 232.23 239.299 113.906 
233.599 241.272 114.751 234.337 243.196 114.077 233.748 243.607 113.745 
234.619 245.452 113.972 237.735 245.935 114.834 234.049 247.239 114.83 
236.37 247.889 114.905 236.124 248.083 115.19 236.87 247.838 114.906 
237.626 247.941 115.397 237.122 234.768 116.652 223.288 236.804 115.614 
237.643 235.044 116.791 220.57 237.219 116.029 224.615 236.958 115.623 
226.482 237.316 115.017 229.798 237.988 114.288 219.459 238.097 116.039 
230.704 238.504 114.809 219.746 238.48 115.906 236.268 243.681 115.82 
237.311 245.179 115.02 237.9 246.098 115.02 231.62 246.784 115.358 
232.469 246.776 115.005 232.09 247.626 116.106 238.128 246.983 115.837 
236.226 248.345 115.732 237.373 248.397 115.632 237.561 248.439 115.805 
237.75 248.314 115.93 236.796 234.471 117.639 236.635 234.742 117.574 
236.744 234.995 117.432 237.792 234.859 117.135 237.891 234.97 117.361 
223.746 236.655 116.582 237.148 235.305 117.219 237.78 235.192 117.16 
218.788 237.656 116.589 218.576 237.24 117.095 218.217 237.606 116.907 
220.025 236.988 116.579 221.6 236.717 116.211 217.934 237.734 116.968 
217.709 237.911 117.05 218.841 238.702 116.394 220.434 239.83 115.968 
229.952 246.592 116.02 232.89 248.158 116.606 235.972 248.526 116.542 
237.362 248.508 116.272 237.761 248.351 116.226 237.795 248.15 116.661 
237.591 248.474 116.066 236.438 234.534 117.986 236.185 234.523 118.386 
236.721 234.228 118.264 236.317 234.704 118.097 221.864 236.463 116.957 
238.017 235.42 118.2 217.033 237.532 117.704 232.354 240.557 116.791 
220.786 241.778 117.123 233.251 241.267 117.044 238.334 246.4 117.211 
231.428 248.126 117.522 238.014 247.699 117.238 236.473 235.478 118.405 
236.631 235.951 118.78 224.464 237.134 118.118 237.47 236.206 118.579 
237.922 236.722 119.356 233.376 241.562 118.454 234.951 242.234 117.818 
238.274 244.627 118.116 237.939 247.71 117.745 237.703 247.815 118.06 
234.845 248.714 118.175 237.104 248.207 117.836 235.654 234.246 119.46 
235.515 233.993 119.955 235.789 233.858 119.784 237.368 234.051 119.239 
237.818 234.376 119.084 237.995 234.676 118.777 217.819 236.554 118.996 
211.896 237.992 120.219 237.714 237.245 119.66 238.348 236.904 120.075 
237.786 242.587 119.175 237.294 242.615 118.857 238.094 243.759 118.498 
224.193 245.933 119.032 237.914 247.34 118.657 232.293 248.627 118.672 
237.071 247.735 119.479 236.009 233.529 120.35 236.783 233.468 120.494 
237.501 233.846 120.163 235.304 233.817 120.495 235.066 234.105 120.638 
238.036 234.557 119.332 235.2 234.749 120.217 235.471 235.196 119.836 
209.636 238.257 121.278 237.643 237.795 120.003 237.156 238.269 120.292 
210.864 238.774 120.566 238.168 238.739 120.536 237.763 239.339 120.427 
238.544 237.899 120.812 211.374 239.539 120.469 238.106 240.775 120.387 
237.637 241.081 120.099 237.945 241.854 119.828 238.47 241.482 120.568 
233.271 241.498 120.115 236.495 241.884 119.465 238.422 245.717 119.95 
232.207 248.672 119.748 234.522 248.615 119.634 235.74 248.405 119.328 
233.134 248.721 119.531 235.107 233.566 121.178 234.537 233.522 121.868 
235.68 233.416 120.864 210.344 237.267 121.819 235.864 237.081 120.753 
208.425 238.253 122.008 236.319 237.907 120.724 236.577 238.353 120.659 
236.821 239.127 120.622 225.753 239.535 121.752 236.374 240.86 120.443 
235.294 241.678 119.849 238.546 244.859 120.9 238.368 245.582 120.681 
238.08 245.916 121.022 224.373 247.524 121.654 226.122 247.78 121.104 
233.76 233.665 122.823 236.631 232.937 122.099 237.19 233.3 121.586 
234.411 235.968 122.138 217.09 236.255 121.147 208.001 239.155 122.125 
236.255 239.587 120.972 239.018 239.704 122.307 235.595 240.366 121.236 
228.666 240.836 122.244 235.349 240.525 121.312 235.035 240.731 121.301 
238.472 244.74 121.603 237.442 246.213 122.026 233.84 232.572 123.753 
234.317 232.556 123.393 234.994 232.366 123.308 233.273 233.615 123.496 
218.727 236.485 122.374 207.914 236.921 124.24 235.276 238.216 121.94 
222.06 238.351 123.657 239.147 238.849 123.149 235.294 239.486 121.847 
238.985 241.008 123.018 238.858 242.092 122.867 229.15 241.031 123.163 
229.733 241.106 123.177 232.402 241.088 122.291 225.664 248.286 123.737 
232.836 232.745 124.641 238.279 233.758 123.246 206.646 237.277 124.509 
204.694 238.721 124.64 204.286 238.468 125.201 204.508 239.177 124.607 
204.191 239.419 124.89 207.559 241.248 123.376 225.08 239.831 124.347 
233.981 240.015 122.951 233.399 240.353 123.131 213.02 244.605 123.902 
234.464 231.356 125.121 238.757 234.192 124.674 211.604 236.159 124.497 
203.888 238.797 125.389 203.58 239.804 125.674 204.198 241.13 125.344 
224.79 239.772 125.189 238.73 241.04 124.688 231.02 240.757 124.051 
231.764 240.629 123.844 231.966 240.201 124.408 238.607 241.826 124.317 
236.498 244.721 125.14 217.985 246.999 124.585 226.833 248.372 124.896 
204.592 237.495 126.129 239.076 237.253 125.795 203.421 238.633 126.38 
203.071 239.244 126.723 223.842 239.529 126.481 232.298 239.777 124.656 
230.511 240.126 125.381 228.17 248.229 125.322 235.085 230.23 126.903 
235.564 229.963 127.452 237.71 231.618 126.742 203.921 237.665 126.815 
238.789 238.469 126.454 226.623 240.12 126.071 202.653 241.475 127.873 
227.89 240.247 125.894 203.292 243.436 127.706 229.672 247.783 126.101 
236.904 230.311 127.965 238.43 232.615 126.882 238.677 233.565 127.524 
238.796 234.507 127.571 231.28 236.267 126.613 238.179 238.632 127.706 
230.543 238.444 126.976 230.246 238.649 127.1 228.611 239.393 127.15 
202.587 243.474 129.017 203.997 245.376 128.174 204.896 246.114 128.01 
206.9 246.026 127.133 208.828 247.07 127.423 222.916 248.454 128.131 
226.279 248.177 127.243 229.741 229.454 129.589 232.483 229.141 128.647 
228.98 230.307 129.66 237.397 230.508 128.835 228.868 231.078 129.555 
203.002 237.914 128.74 230.257 236.757 127.655 202.119 239.973 129.321 
222.012 239.029 128.521 223.691 239.316 128.244 225.349 239.287 128.218 
203.033 244.743 128.951 229.916 246.565 128.816 220.704 248.727 129.269 
234.634 227.805 130.153 234.318 228.046 129.785 236.658 229.196 129.573 
237.558 230.708 129.936 238.467 234.429 129.077 238.042 235.84 129.43 
212.27 235.733 130.179 202.406 238.46 129.898 202.553 248.406 131.522 
215.059 249.025 129.366 221.876 248.486 130.455 203.819 249.172 130.482 
210.284 250.134 130.59 236.166 227.933 130.983 236.718 228.95 130.153 
237.912 231.631 129.69 237.669 233.828 130.78 228.251 235.689 129.785 
202.666 237.667 130.735 201.939 239.222 130.986 221.99 238.56 130.17 
202.86 250.203 131.972 203.282 250.982 131.978 203.987 251.135 131.653 
234.646 226.446 132.156 235.44 226.802 132.202 228.812 227.193 132.172 
236.51 228.296 131.06 227.136 228.06 132.655 236.914 229.194 131.417 
203.371 236.629 131.673 235.27 237.467 132.034 209.885 250.956 131.68 
204.589 252.589 132.517 203.077 252.966 133.57 235.233 226.521 132.904 
235.601 226.875 132.806 231.511 225.697 133.293 229.772 226.309 132.804 
236.35 228.002 131.966 225.184 236.171 132.284 222.744 237.438 132.209 
201.599 247.652 133.584 222.271 247.86 132.823 207.457 252.767 133.389 
205.837 253.523 133.689 204.265 253.996 134.045 204.858 253.994 134.081 
203.351 254.113 134.688 233.355 225.68 133.945 228.579 225.838 134.132 
224.016 236.093 133.188 212.896 250.704 134.148 201.763 251.333 134.934 
210.887 251.62 134.198 202.224 253.522 135.725 204.826 254.367 134.59 
202.97 254.261 135.245 203.317 254.554 135.226 232.251 225.223 134.793 
232.94 225.501 134.981 234.773 226.424 133.814 202.915 236.402 134.89 
222.24 235.957 134.467 219.712 236.647 134.349 214.928 249.936 134.085 
210.81 251.78 134.794 204.984 254.541 134.983 203.47 254.831 135.541 
228.624 224.974 136.215 232.972 226.153 135.66 226.198 226.464 135.432 
226.138 226.26 135.947 225.012 229.57 135.206 222.937 234.354 135.551 
201.336 240.122 135.916 201.148 244.934 136.111 201.317 249.746 136.363 
215.747 249.396 135.598 203.921 255.138 136.066 202.585 254.987 137.084 
202.65 255.207 137.464 230.819 224.965 136.256 230.561 224.877 136.595 
230.323 224.843 136.64 230.7 225.001 136.635 229.733 224.859 137.135 
231.232 225.38 136.505 231.951 225.515 136.054 226.809 225.454 136.455 
226.475 225.608 136.647 227.254 225.102 137.007 227.842 224.956 136.913 
232.545 226.337 136.096 231.899 230.775 136.935 206.457 234.506 137.222 
202.451 236.809 136.541 201.687 238.364 136.759 227.412 240.156 137.172 
216.243 249.032 136.062 207.839 253.722 136.746 203.403 255.549 137.867 
229.593 224.788 137.464 229.523 224.796 137.583 229.45 224.798 137.54 
230.366 224.895 136.804 229.64 224.901 137.54 228.992 224.892 137.721 
230.007 225.239 137.47 226.26 225.675 137.034 226.629 225.273 137.662 
[...]
POINT_DATA 1571
COLOR_SCALARS scalars 3
0.501961 0.803922 0.972549 0.501961 0.803922 0.972549 0.501961 0.803922 0.972549 
0.501961 0.803922 0.972549 0.501961 0.803922 0.972549 
0.501961 0.803922 0.972549 0.501961 0.803922 0.972549 
0.501961 0.803922 0.972549 0.501961 0.803922 0.972549 
0.501961 0.803922 0.972549 0.501961 0.803922 0.972549 
0.501961 0.803922 0.972549 0.501961 0.803922 0.972549 
0.501961 0.803922 0.972549 0.501961 0.803922 0.972549 
0.501961 0.803922 0.972549 0.501961 0.803922 0.972549 
0.501961 0.803922 0.972549 0.501961 0.803922 0.972549 
0.501961 0.803922 0.972549 0.501961 0.803922 0.972549 
0.501961 0.803922 0.972549 0.501961 0.803922 0.972549 
0.501961 0.803922 0.972549 0.501961 0.803922 0.972549 
0.501961 0.803922 0.972549 0.501961 0.803922 0.972549 
0.501961 0.803922 0.972549 0.501961 0.803922 0.972549 
0.501961 0.803922 0.972549 0.501961 0.803922 0.972549 
0.501961 0.803922 0.972549 0.501961 0.803922 0.972549 
0.501961 0.803922 0.972549 0.501961 0.803922 0.972549 
0.501961 0.803922 0.972549 0.501961 0.803922 0.972549 
0.501961 0.803922 0.972549 0.501961 0.803922 0.972549 
0.501961 0.803922 0.972549 0.501961 0.803922 0.972549 
0.501961 0.803922 0.972549 0.501961 0.803922 0.972549 
0.501961 0.803922 0.972549 0.501961 0.803922 0.972549 
0.501961 0.803922 0.972549 0.501961 0.803922 0.972549 
0.501961 0.803922 0.972549 0.501961 0.803922 0.972549 
0.501961 0.803922 0.972549 0.501961 0.803922 0.972549 
0.501961 0.803922 0.972549 0.501961 0.803922 0.972549 
0.501961 0.803922 0.972549 0.501961 0.803922 0.972549 
0.501961 0.803922 0.972549 0.501961 0.803922 0.972549 
0.501961 0.803922 0.972549 0.501961 0.803922 0.972549 
0.501961 0.803922 0.972549 0.501961 0.803922 0.972549 
0.501961 0.803922 0.972549 0.501961 0.803922 0.972549 
0.501961 0.803922 0.972549 0.501961 0.803922 0.972549 
0.501961 0.803922 0.972549 0.501961 0.803922 0.972549 
0.501961 0.803922 0.972549 0.501961 0.803922 0.972549 
0.501961 0.803922 0.972549 0.501961 0.803922 0.972549 
0.501961 0.803922 0.972549 0.501961 0.803922 0.972549 
0.501961 0.803922 0.972549 0.501961 0.803922 0.972549 
0.501961 0.803922 0.972549 0.501961 0.803922 0.972549 
0.501961 0.803922 0.972549 0.501961 0.803922 0.972549 
0.501961 0.803922 0.972549 0.501961 0.803922 0.972549 
0.501961 0.803922 0.972549 0.501961 0.803922 0.972549 
0.501961 0.803922 0.972549 0.501961 0.803922 0.972549 
0.501961 0.803922 0.972549 0.501961 0.803922 0.972549 
0.501961 0.803922 0.972549 0.501961 0.803922 0.972549 
0.501961 0.803922 0.972549 0.501961 0.803922 0.972549 
0.501961 0.803922 0.972549 0.501961 0.803922 0.972549 
0.501961 0.803922 0.972549 0.501961 0.803922 0.972549 
0.501961 0.803922 0.972549 0.501961 0.803922 0.972549 
0.501961 0.803922 0.972549 0.501961 0.803922 0.972549 
0.501961 0.803922 0.972549 0.501961 0.803922 0.972549 
0.501961 0.803922 0.972549 0.501961 0.803922 0.972549 
0.501961 0.803922 0.972549 0.501961 0.803922 0.972549 
0.501961 0.803922 0.972549 0.501961 0.803922 0.972549 
0.501961 0.803922 0.972549 0.501961 0.803922 0.972549 
0.501961 0.803922 0.972549 0.501961 0.803922 0.972549 
0.501961 0.803922 0.972549 0.501961 0.803922 0.972549 
0.501961 0.803922 0.972549 0.501961 0.803922 0.972549 
0.501961 0.803922 0.972549 0.501961 0.803922 0.972549 
0.501961 0.803922 0.972549 0.501961 0.803922 0.972549 
0.501961 0.803922 0.972549 0.501961 0.803922 0.972549 
0.501961 0.803922 0.972549 0.501961 0.803922 0.972549 
0.501961 0.803922 0.972549 0.501961 0.803922 0.972549 
0.501961 0.803922 0.972549 0.501961 0.803922 0.972549 
0.501961 0.803922 0.972549 0.501961 0.803922 0.972549 
0.501961 0.803922 0.972549 0.501961 0.803922 0.972549 
0.501961 0.803922 0.972549 0.501961 0.803922 0.972549 
0.501961 0.803922 0.972549 0.501961 0.803922 0.972549 
0.501961 0.803922 0.972549 0.501961 0.803922 0.972549 
0.501961 0.803922 0.972549 0.501961 0.803922 0.972549 
0.501961 0.803922 0.972549 0.501961 0.803922 0.972549 
0.501961 0.803922 0.972549 0.501961 0.803922 0.972549 
0.501961 0.803922 0.972549 0.501961 0.803922 0.972549 
0.501961 0.803922 0.972549 0.501961 0.803922 0.972549 
0.501961 0.803922 0.972549 0.501961 0.803922 0.972549 
0.501961 0.803922 0.972549 0.501961 0.803922 0.972549 
0.501961 0.803922 0.972549 0.501961 0.803922 0.972549 
0.501961 0.803922 0.972549 0.501961 0.803922 0.972549 
0.501961 0.803922 0.972549 0.501961 0.803922 0.972549 
0.501961 0.803922 0.972549 0.501961 0.803922 0.972549 
0.501961 0.803922 0.972549 0.501961 0.803922 0.972549 
0.501961 0.803922 0.972549 0.501961 0.803922 0.972549 
0.501961 0.803922 0.972549 0.501961 0.803922 0.972549 
0.501961 0.803922 0.972549 0.501961 0.803922 0.972549 
0.501961 0.803922 0.972549 0.501961 0.803922 0.972549 
0.501961 0.803922 0.972549 0.501961 0.803922 0.972549 
0.501961 0.803922 0.972549 0.501961 0.803922 0.972549 
0.501961 0.803922 0.972549 0.501961 0.803922 0.972549 
0.501961 0.803922 0.972549 0.501961 0.803922 0.972549 
0.501961 0.803922 0.972549 0.501961 0.803922 0.972549 
0.501961 0.803922 0.972549 0.501961 0.803922 0.972549 
0.501961 0.803922 0.972549 0.501961 0.803922 0.972549 
0.501961 0.803922 0.972549 0.501961 0.803922 0.972549 
0.501961 0.803922 0.972549 0.501961 0.803922 0.972549 
0.501961 0.803922 0.972549 0.501961 0.803922 0.972549 
0.501961 0.803922 0.972549 0.501961 0.803922 0.972549 
0.501961 0.803922 0.972549 0.501961 0.803922 0.972549 
0.501961 0.803922 0.972549 0.501961 0.803922 0.972549 
0.501961 0.803922 0.972549 0.501961 0.803922 0.972549 
0.501961 0.803922 0.972549 0.501961 0.803922 0.972549 
0.501961 0.803922 0.972549 0.501961 0.803922 0.972549 
0.501961 0.803922 0.972549 0.501961 0.803922 0.972549 
0.501961 0.803922 0.972549 0.501961 0.803922 0.972549 
0.501961 0.803922 0.972549 0.501961 0.803922 0.972549 
0.501961 0.803922 0.972549 0.501961 0.803922 0.972549 
0.501961 0.803922 0.972549 0.501961 0.803922 0.972549 
0.501961 0.803922 0.972549 0.501961 0.803922 0.972549 
0.501961 0.803922 0.972549 0.501961 0.803922 0.972549 
0.501961 0.803922 0.972549 0.501961 0.803922 0.972549 
0.501961 0.803922 0.972549 0.501961 0.803922 0.972549 
0.501961 0.803922 0.972549 0.501961 0.803922 0.972549 
0.501961 0.803922 0.972549 0.501961 0.803922 0.972549 
0.501961 0.803922 0.972549 0.501961 0.803922 0.972549 
0.501961 0.803922 0.972549 0.501961 0.803922 0.972549 
0.501961 0.803922 0.972549 0.501961 0.803922 0.972549 
0.501961 0.803922 0.972549 0.501961 0.803922 0.972549 
0.501961 0.803922 0.972549 0.501961 0.803922 0.972549 
0.501961 0.803922 0.972549 0.501961 0.803922 0.972549 
0.501961 0.803922 0.972549 0.501961 0.803922 0.972549 
0.501961 0.803922 0.972549 0.501961 0.803922 0.972549 
0.501961 0.803922 0.972549 0.501961 0.803922 0.972549 
0.501961 0.803922 0.972549 0.501961 0.803922 0.972549 
0.501961 0.803922 0.972549 0.501961 0.803922 0.972549 
0.501961 0.803922 0.972549 0.501961 0.803922 0.972549 
0.501961 0.803922 0.972549 0.501961 0.803922 0.972549 
0.501961 0.803922 0.972549 0.501961 0.803922 0.972549 
0.501961 0.803922 0.972549 0.501961 0.803922 0.972549 
0.501961 0.803922 0.972549 0.501961 0.803922 0.972549 
0.501961 0.803922 0.972549 0.501961 0.803922 0.972549 
0.501961 0.803922 0.972549 0.501961 0.803922 0.972549 
0.501961 0.803922 0.972549 0.501961 0.803922 0.972549 
0.501961 0.803922 0.972549 0.501961 0.803922 0.972549 
0.501961 0.803922 0.972549 0.501961 0.803922 0.972549 
0.501961 0.803922 0.972549 0.501961 0.803922 0.972549 
0.501961 0.803922 0.972549 0.501961 0.803922 0.972549 
0.501961 0.803922 0.972549 0.501961 0.803922 0.972549 
0.501961 0.803922 0.972549 0.501961 0.803922 0.972549 
0.501961 0.803922 0.972549 0.501961 0.803922 0.972549 
0.501961 0.803922 0.972549 0.501961 0.803922 0.972549 
0.501961 0.803922 0.972549 0.501961 0.803922 0.972549 
0.501961 0.803922 0.972549 0.501961 0.803922 0.972549 
0.501961 0.803922 0.972549 0.501961 0.803922 0.972549 
0.501961 0.803922 0.972549 0.501961 0.803922 0.972549 
0.501961 0.803922 0.972549 0.501961 0.803922 0.972549 
0.501961 0.803922 0.972549 0.501961 0.803922 0.972549 
0.501961 0.803922 0.972549 0.501961 0.803922 0.972549 
0.501961 0.803922 0.972549 0.501961 0.803922 0.972549 
0.501961 0.803922 0.972549 0.501961 0.803922 0.972549 
0.501961 0.803922 0.972549 0.501961 0.803922 0.972549 
0.501961 0.803922 0.972549 0.501961 0.803922 0.972549 
0.501961 0.803922 0.972549 0.501961 0.803922 0.972549 
0.501961 0.803922 0.972549 0.501961 0.803922 0.972549 
0.501961 0.803922 0.972549 0.501961 0.803922 0.972549 
0.501961 0.803922 0.972549 0.501961 0.803922 0.972549 
0.501961 0.803922 0.972549 0.501961 0.803922 0.972549 
0.501961 0.803922 0.972549 0.501961 0.803922 0.972549 
0.501961 0.803922 0.972549 0.501961 0.803922 0.972549 
0.501961 0.803922 0.972549 0.501961 0.803922 0.972549 
0.501961 0.803922 0.972549 0.501961 0.803922 0.972549 
0.501961 0.803922 0.972549 0.501961 0.803922 0.972549 
0.501961 0.803922 0.972549 0.501961 0.803922 0.972549 
0.501961 0.803922 0.972549 0.501961 0.803922 0.972549 
0.501961 0.803922 0.972549 0.501961 0.803922 0.972549 
0.501961 0.803922 0.972549 0.501961 0.803922 0.972549 
0.501961 0.803922 0.972549 0.501961 0.803922 0.972549 
0.501961 0.803922 0.972549 0.501961 0.803922 0.972549 
0.501961 0.803922 0.972549 0.501961 0.803922 0.972549 
0.501961 0.803922 0.972549 0.501961 0.803922 0.972549 
0.501961 0.803922 0.972549 0.501961 0.803922 0.972549 
0.501961 0.803922 0.972549 0.501961 0.803922 0.972549 
0.501961 0.803922 0.972549 0.501961 0.803922 0.972549 
0.501961 0.803922 0.972549 0.501961 0.803922 0.972549 
0.501961 0.803922 0.972549 0.501961 0.803922 0.972549 
0.501961 0.803922 0.972549 0.501961 0.803922 0.972549 
0.501961 0.803922 0.972549 0.501961 0.803922 0.972549 
0.501961 0.803922 0.972549 0.501961 0.803922 0.972549 
0.501961 0.803922 0.972549 0.501961 0.803922 0.972549 
0.501961 0.803922 0.972549 0.501961 0.803922 0.972549 
0.501961 0.803922 0.972549 0.501961 0.803922 0.972549 
0.501961 0.803922 0.972549 0.501961 0.803922 0.972549 
0.501961 0.803922 0.972549 0.501961 0.803922 0.972549 
0.501961 0.803922 0.972549 0.501961 0.803922 0.972549 
0.501961 0.803922 0.972549 0.501961 0.803922 0.972549 
0.501961 0.803922 0.972549 0.501961 0.803922 0.972549 
0.501961 0.803922 0.972549 0.501961 0.803922 0.972549 
0.501961 0.803922 0.972549 0.501961 0.803922 0.972549 
0.501961 0.803922 0.972549 0.501961 0.803922 0.972549 
0.501961 0.803922 0.972549 0.501961 0.803922 0.972549 
0.501961 0.803922 0.972549 0.501961 0.803922 0.972549 
0.501961 0.803922 0.972549 0.501961 0.803922 0.972549 
0.501961 0.803922 0.972549 0.501961 0.803922 0.972549 
0.501961 0.803922 0.972549 0.501961 0.803922 0.972549 
0.501961 0.803922 0.972549 0.501961 0.803922 0.972549 
0.501961 0.803922 0.972549 0.501961 0.803922 0.972549 
0.501961 0.803922 0.972549 0.501961 0.803922 0.972549 
0.501961 0.803922 0.972549 0.501961 0.803922 0.972549 
0.501961 0.803922 0.972549 0.501961 0.803922 0.972549 
0.501961 0.803922 0.972549 0.501961 0.803922 0.972549 
0.501961 0.803922 0.972549 0.501961 0.803922 0.972549 
0.501961 0.803922 0.972549 0.501961 0.803922 0.972549 
0.501961 0.803922 0.972549 0.501961 0.803922 0.972549 
0.501961 0.803922 0.972549 0.501961 0.803922 0.972549 
0.501961 0.803922 0.972549 0.501961 0.803922 0.972549 
0.501961 0.803922 0.972549 0.501961 0.803922 0.972549 
0.501961 0.803922 0.972549 0.501961 0.803922 0.972549 
0.501961 0.803922 0.972549 0.501961 0.803922 0.972549 
0.501961 0.803922 0.972549 0.501961 0.803922 0.972549 
0.501961 0.803922 0.972549 0.501961 0.803922 0.972549 
0.501961 0.803922 0.972549 0.501961 0.803922 0.972549 
0.501961 0.803922 0.972549 0.501961 0.803922 0.972549 
0.501961 0.803922 0.972549 0.501961 0.803922 0.972549 
0.501961 0.803922 0.972549 0.501961 0.803922 0.972549 
0.501961 0.803922 0.972549 0.501961 0.803922 0.972549 
0.501961 0.803922 0.972549 0.501961 0.803922 0.972549 
0.501961 0.803922 0.972549 0.501961 0.803922 0.972549 
0.501961 0.803922 0.972549 0.501961 0.803922 0.972549 
0.501961 0.803922 0.972549 0.501961 0.803922 0.972549 
0.501961 0.803922 0.972549 0.501961 0.803922 0.972549 
0.501961 0.803922 0.972549 0.501961 0.803922 0.972549 
0.501961 0.803922 0.972549 0.501961 0.803922 0.972549 
0.501961 0.803922 0.972549 0.501961 0.803922 0.972549 
0.501961 0.803922 0.972549 0.501961 0.803922 0.972549 
0.501961 0.803922 0.972549 0.501961 0.803922 0.972549 
0.501961 0.803922 0.972549 0.501961 0.803922 0.972549 
0.501961 0.803922 0.972549 0.501961 0.803922 0.972549 
0.501961 0.803922 0.972549 0.501961 0.803922 0.972549 
0.501961 0.803922 0.972549 0.501961 0.803922 0.972549 
0.501961 0.803922 0.972549 0.501961 0.803922 0.972549 
0.501961 0.803922 0.972549 0.501961 0.803922 0.972549 
0.501961 0.803922 0.972549 0.501961 0.803922 0.972549 
0.501961 0.803922 0.972549 0.501961 0.803922 0.972549 
0.501961 0.803922 0.972549 0.501961 0.803922 0.972549 
0.501961 0.803922 0.972549 0.501961 0.803922 0.972549 
0.501961 0.803922 0.972549 0.501961 0.803922 0.972549 
0.501961 0.803922 0.972549 0.501961 0.803922 0.972549 
0.501961 0.803922 0.972549 0.501961 0.803922 0.972549 
0.501961 0.803922 0.972549 0.501961 0.803922 0.972549 
0.501961 0.803922 0.972549 0.501961 0.803922 0.972549 
0.501961 0.803922 0.972549 0.501961 0.803922 0.972549 
0.501961 0.803922 0.972549 0.501961 0.803922 0.972549 
0.501961 0.803922 0.972549 0.501961 0.803922 0.972549 
0.501961 0.803922 0.972549 0.501961 0.803922 0.972549 
0.501961 0.803922 0.972549 0.501961 0.803922 0.972549 
0.501961 0.803922 0.972549 0.501961 0.803922 0.972549 
0.501961 0.803922 0.972549 0.501961 0.803922 0.972549 
0.501961 0.803922 0.972549 0.501961 0.803922 0.972549 
0.501961 0.803922 0.972549 0.501961 0.803922 0.972549 
0.501961 0.803922 0.972549 0.501961 0.803922 0.972549 
0.501961 0.803922 0.972549 0.501961 0.803922 0.972549 
0.501961 0.803922 0.972549 0.501961 0.803922 0.972549 
0.501961 0.803922 0.972549 0.501961 0.803922 0.972549 
0.501961 0.803922 0.972549 0.501961 0.803922 0.972549 
0.501961 0.803922 0.972549 0.501961 0.803922 0.972549 
0.501961 0.803922 0.972549 0.501961 0.803922 0.972549 
0.501961 0.803922 0.972549 0.501961 0.803922 0.972549 
0.501961 0.803922 0.972549 0.501961 0.803922 0.972549 
0.501961 0.803922 0.972549 0.501961 0.803922 0.972549 
0.501961 0.803922 0.972549 0.501961 0.803922 0.972549 
0.501961 0.803922 0.972549 0.501961 0.803922 0.972549 
0.501961 0.803922 0.972549 0.501961 0.803922 0.972549 
0.501961 0.803922 0.972549 0.501961 0.803922 0.972549 
0.501961 0.803922 0.972549 0.501961 0.803922 0.972549 
0.501961 0.803922 0.972549 0.501961 0.803922 0.972549 
0.501961 0.803922 0.972549 0.501961 0.803922 0.972549 
0.501961 0.803922 0.972549 0.501961 0.803922 0.972549 
0.501961 0.803922 0.972549 0.501961 0.803922 0.972549 
0.501961 0.803922 0.972549 0.501961 0.803922 0.972549 
0.501961 0.803922 0.972549 0.501961 0.803922 0.972549 
0.501961 0.803922 0.972549 0.501961 0.803922 0.972549 
0.501961 0.803922 0.972549 0.501961 0.803922 0.972549 
0.501961 0.803922 0.972549 0.501961 0.803922 0.972549 
0.501961 0.803922 0.972549 0.501961 0.803922 0.972549 
0.501961 0.803922 0.972549 0.501961 0.803922 0.972549 
0.501961 0.803922 0.972549 0.501961 0.803922 0.972549 
0.501961 0.803922 0.972549 0.501961 0.803922 0.972549 
0.501961 0.803922 0.972549 0.501961 0.803922 0.972549 
0.501961 0.803922 0.972549 0.501961 0.803922 0.972549 
0.501961 0.803922 0.972549 0.501961 0.803922 0.972549 
0.501961 0.803922 0.972549 0.501961 0.803922 0.972549 
0.501961 0.803922 0.972549 0.501961 0.803922 0.972549 
0.501961 0.803922 0.972549 0.501961 0.803922 0.972549 
0.501961 0.803922 0.972549 0.501961 0.803922 0.972549 
0.501961 0.803922 0.972549 0.501961 0.803922 0.972549 
0.501961 0.803922 0.972549 0.501961 0.803922 0.972549 
0.501961 0.803922 0.972549 0.501961 0.803922 0.972549 
0.501961 0.803922 0.972549 0.501961 0.803922 0.972549 
0.501961 0.803922 0.972549 0.501961 0.803922 0.972549 
0.501961 0.803922 0.972549 0.501961 0.803922 0.972549 
0.501961 0.803922 0.972549 0.501961 0.803922 0.972549 
0.501961 0.803922 0.972549 0.501961 0.803922 0.972549 
0.501961 0.803922 0.972549 0.501961 0.803922 0.972549 
0.501961 0.803922 0.972549 0.501961 0.803922 0.972549 
0.501961 0.803922 0.972549 0.501961 0.803922 0.972549 
0.501961 0.803922 0.972549 0.501961 0.803922 0.972549 
0.501961 0.803922 0.972549 0.501961 0.803922 0.972549 
0.501961 0.803922 0.972549 0.501961 0.803922 0.972549 
0.501961 0.803922 0.972549 0.501961 0.803922 0.972549 
0.501961 0.803922 0.972549 0.501961 0.803922 0.972549 
0.501961 0.803922 0.972549 0.501961 0.803922 0.972549 
0.501961 0.803922 0.972549 0.501961 0.803922 0.972549 
0.501961 0.803922 0.972549 0.501961 0.803922 0.972549 
0.501961 0.803922 0.972549 0.501961 0.803922 0.972549 
0.501961 0.803922 0.972549 0.501961 0.803922 0.972549 
0.501961 0.803922 0.972549 0.501961 0.803922 0.972549 
0.501961 0.803922 0.972549 0.501961 0.803922 0.972549 
0.501961 0.803922 0.972549 0.501961 0.803922 0.972549 
0.501961 0.803922 0.972549 0.501961 0.803922 0.972549 
0.501961 0.803922 0.972549 0.501961 0.803922 0.972549 
0.501961 0.803922 0.972549 0.501961 0.803922 0.972549 
0.501961 0.803922 0.972549 0.501961 0.803922 0.972549 
0.501961 0.803922 0.972549 0.501961 0.803922 0.972549 
0.501961 0.803922 0.972549 0.501961 0.803922 0.972549 
0.501961 0.803922 0.972549 0.501961 0.803922 0.972549 
0.501961 0.803922 0.972549 0.501961 0.803922 0.972549 
0.501961 0.803922 0.972549 0.501961 0.803922 0.972549 
0.501961 0.803922 0.972549 0.501961 0.803922 0.972549 
0.501961 0.803922 0.972549 0.501961 0.803922 0.972549 
0.501961 0.803922 0.972549 0.501961 0.803922 0.972549 
0.501961 0.803922 0.972549 0.501961 0.803922 0.972549 
0.501961 0.803922 0.972549 0.501961 0.803922 0.972549 
0.501961 0.803922 0.972549 0.501961 0.803922 0.972549 
0.501961 0.803922 0.972549 0.501961 0.803922 0.972549 
0.501961 0.803922 0.972549 0.501961 0.803922 0.972549 
0.501961 0.803922 0.972549 0.501961 0.803922 0.972549 
0.501961 0.803922 0.972549 0.501961 0.803922 0.972549 
0.501961 0.803922 0.972549 0.501961 0.803922 0.972549 
0.501961 0.803922 0.972549 0.501961 0.803922 0.972549 
0.501961 0.803922 0.972549 0.501961 0.803922 0.972549 
0.501961 0.803922 0.972549 0.501961 0.803922 0.972549 
0.501961 0.803922 0.972549 0.501961 0.803922 0.972549 
0.501961 0.803922 0.972549 0.501961 0.803922 0.972549 
0.501961 0.803922 0.972549 0.501961 0.803922 0.972549 
0.501961 0.803922 0.972549 0.501961 0.803922 0.972549 
0.501961 0.803922 0.972549 0.501961 0.803922 0.972549 
0.501961 0.803922 0.972549 0.501961 0.803922 0.972549 
0.501961 0.803922 0.972549 0.501961 0.803922 0.972549 
0.501961 0.803922 0.972549 0.501961 0.803922 0.972549 
0.501961 0.803922 0.972549 0.501961 0.803922 0.972549 
0.501961 0.803922 0.972549 0.501961 0.803922 0.972549 
0.501961 0.803922 0.972549 0.501961 0.803922 0.972549 
0.501961 0.803922 0.972549 0.501961 0.803922 0.972549 
0.501961 0.803922 0.972549 0.501961 0.803922 0.972549 
0.501961 0.803922 0.972549 0.501961 0.803922 0.972549 
0.501961 0.803922 0.972549 0.501961 0.803922 0.972549 
0.501961 0.803922 0.972549 0.501961 0.803922 0.972549 
0.501961 0.803922 0.972549 0.501961 0.803922 0.972549 
0.501961 0.803922 0.972549 0.501961 0.803922 0.972549 
0.501961 0.803922 0.972549 0.501961 0.803922 0.972549 
0.501961 0.803922 0.972549 0.501961 0.803922 0.972549 
0.501961 0.803922 0.972549 0.501961 0.803922 0.972549 
0.501961 0.803922 0.972549 0.501961 0.803922 0.972549 
0.501961 0.803922 0.972549 0.501961 0.803922 0.972549 
0.501961 0.803922 0.972549 0.501961 0.803922 0.972549 
0.501961 0.803922 0.972549 0.501961 0.803922 0.972549 
0.501961 0.803922 0.972549 0.501961 0.803922 0.972549 
0.501961 0.803922 0.972549 0.501961 0.803922 0.972549 
0.501961 0.803922 0.972549 0.501961 0.803922 0.972549 
0.501961 0.803922 0.972549 0.501961 0.803922 0.972549 
0.501961 0.803922 0.972549 0.501961 0.803922 0.972549 
0.501961 0.803922 0.972549 0.501961 0.803922 0.972549 
0.501961 0.803922 0.972549 0.501961 0.803922 0.972549 
0.501961 0.803922 0.972549 0.501961 0.803922 0.972549 
0.501961 0.803922 0.972549 0.501961 0.803922 0.972549 