# vtk DataFile Version 4.2
vtk output
ASCII
DATASET POLYDATA
POINTS 1598 float
279.541 174.324 100.808 281.186 174.926 100.584 280.734 174.473 100.907 
281.666 175.065 100.601 281.632 174.897 100.769 281.904 175.128 100.702 
282.136 175.335 100.756 278.877 175.817 100.293 280.466 175.975 100.158 
282.137 175.956 100.404 282.365 175.621 100.707 282.51 176.002 100.597 
282.563 175.869 100.784 281.597 176.54 100.149 282.137 176.536 100.282 
282.732 176.178 100.772 282.806 176.54 100.7 282.862 176.482 100.922 
282.026 177.907 100.184 282.903 177.794 100.618 283.134 177.787 100.989 
283.117 178.364 100.869 279.293 179.642 100.204 283.127 179.085 100.985 
281.031 180.298 100.353 282.997 179.643 100.953 277.164 172.482 101.721 
277.922 172.561 101.918 278.081 173.808 100.935 279.774 173.858 101.395 
282.306 175.565 100.982 282.951 177.278 101.823 283.195 178.017 101.759 
283.259 178.1 101.386 283.273 179.406 101.419 282.602 181.718 101.597 
282.969 180.878 101.625 283.131 180.288 101.462 277.982 182.476 101.085 
281.174 182.571 101.135 276.669 171.791 102.197 277.153 172.072 102.182 
277.71 172.319 102.31 274.611 172.638 102.121 278.473 172.873 101.903 
280.844 174.428 101.846 283.297 178.557 101.67 282.027 183.056 101.669 
282.371 183.428 102.094 281.819 184.201 102.02 279.519 185.315 101.861 
273.722 169.817 103.954 274.334 170.021 103.825 274.771 171.019 102.987 
275.738 170.853 103.622 276.706 171.759 102.325 276.444 171.545 102.843 
277.123 171.96 103.301 277.941 172.479 102.69 272.229 172.803 103.119 
278.468 172.962 102.984 279.556 173.614 102.325 279.374 173.772 103.072 
272.341 178.639 102.833 283.057 179.221 102.882 283.115 180.825 103.094 
283.095 181.926 103.395 282.734 183.315 102.546 282.782 184.212 102.977 
282.978 184.699 103.557 276.469 187.638 103.202 279.567 188.051 102.772 
281.013 188.888 103.166 283.504 194.004 103.017 283.504 194.004 103.018 
283.504 194.004 103.017 283.505 194.004 103.017 283.505 194.004 103.017 
283.505 194.004 103.018 283.504 194.004 103.017 283.505 194.005 103.018 
272.757 168.448 104.985 272.349 168.504 104.979 273.243 168.756 104.711 
273.031 168.516 104.947 273.333 168.681 104.879 272.233 169.085 104.569 
273.318 169.164 104.431 273.544 168.961 104.678 274.806 169.957 104.189 
271.67 169.899 104.335 275.077 170.141 104.279 275.461 170.532 104.223 
278.099 172.898 103.633 279.884 174.972 103.878 282.284 178.905 104.054 
282.702 179.39 103.691 282.931 180.707 103.758 283.118 184.212 104.049 
282.841 188.089 104.016 283.057 187.592 104.308 281.747 189.025 103.431 
282.236 189.733 103.782 280.878 190.459 103.704 282.064 190.307 103.856 
282.977 189.951 104.403 282.829 190.264 104.273 282.984 190.3 104.49 
281.879 190.791 104.026 282.305 190.636 104.076 282.876 190.547 104.441 
281.005 191.374 104.254 282.547 190.973 104.5 282.772 190.78 104.538 
279.131 192.733 105.255 283.504 194.004 103.018 283.505 194.004 103.018 
280.606 192.411 105.207 281.183 192.282 105.384 271.967 167.983 105.576 
271.281 167.678 105.877 271.125 168.092 105.521 272.677 168.271 105.369 
270.874 168.275 105.478 273.595 168.869 105.037 274.413 169.689 105.518 
277.728 173.635 105.195 283.031 183.055 104.56 283.173 185.115 105.249 
273.384 185.621 104.064 283.192 187.117 104.679 283.167 189.581 105.044 
275.561 191.629 105.381 277.541 192.93 105.578 281.719 192.155 106.059 
271.046 167.229 106.288 270.969 167.07 106.422 271.079 167.116 106.414 
270.274 167.268 106.508 271.322 167.315 106.459 272.727 168.195 105.894 
274.556 170.14 106.188 275.989 171.917 105.842 282.711 183.117 105.556 
282.894 184.455 105.884 283.215 185.713 105.235 275.872 192.615 105.868 
276.34 193.538 106.366 278.888 193.879 106.734 279.742 193.543 106.729 
268.483 166.981 107.401 270.533 166.837 107.155 271.279 167.224 107.125 
268.316 167.667 107.137 271.584 167.451 107.409 273.197 168.68 106.395 
267.952 168.569 106.987 282.146 184.173 107.187 269.837 185.877 106.2 
282.904 189.719 106.613 282.026 191.446 107.421 277.525 194.379 107.04 
276.405 195.349 108.082 269.104 165.716 108.072 268.778 165.824 108.173 
269.226 165.706 108.118 268.079 165.702 108.674 269.8 166.068 108.249 
271.83 167.888 108.107 273.306 169.288 107.366 266.469 185.856 107.868 
280.012 193.992 108.531 274.566 195.327 108.53 278.849 195.041 108.643 
276.969 195.989 108.937 266.961 164.503 110.166 266.866 164.725 109.929 
267.637 164.787 109.892 267.668 164.657 110.299 267.142 165.036 109.572 
266.56 165.119 109.729 267.756 165.176 109.39 268.108 165.054 109.856 
266.422 165.891 109.272 268.777 165.578 108.958 282.264 189.554 108.338 
281.735 191.53 108.626 280.473 193.512 109.075 277.785 196.169 109.646 
266.95 164.312 110.537 267.324 164.402 110.513 264.706 166.741 109.947 
281.572 191.068 109.684 274.07 196.914 110.368 276.468 197.058 110.413 
276.709 197.23 110.85 265.57 163.471 111.801 265.21 163.459 111.76 
264.944 163.648 111.615 261.156 182.072 110.548 280.973 192.311 110.505 
279.189 195.513 111.197 273.468 197.585 111.432 277.158 197.148 111.09 
277.734 196.94 111.46 264.953 163.122 112.149 264.879 162.978 112.295 
264.985 163.005 112.285 265.213 163.157 112.321 263.744 163.369 112.503 
267.37 164.463 111.932 280.474 187.787 111.971 280.865 190.831 111.88 
271.117 197.522 111.837 263.203 162.457 113.634 264.439 162.828 113.025 
261.29 166.163 112.777 280.202 193.699 113.293 279.4 195.703 113.074 
277.334 197.515 112.621 274.487 198.703 113.317 262.952 162.332 113.915 
262.404 162.386 114.215 263.305 162.196 114.256 264.179 162.548 114.111 
265.24 163.176 114.013 261.002 163.747 114.075 267.051 165.258 114.182 
275.644 181.645 113.388 277.709 185.189 113.92 280.164 193.772 114.26 
266.668 199.16 113.988 269.982 199.97 114.429 261.929 161.766 115.116 
261.754 161.798 115.208 261.391 161.802 115.447 262.618 162.003 114.893 
256.931 171.315 114.963 271.84 175.352 114.221 278.746 188.153 115.068 
257.365 195.641 114.859 279.808 195.403 115.404 264.059 198.597 114.099 
277.557 197.76 114.15 278.682 197.081 115.151 274.047 199.662 115.14 
261.157 161.575 115.867 261.872 161.716 115.267 261.228 161.569 115.931 
260.367 162.069 115.922 261.745 161.705 115.627 263.287 162.324 116.055 
264.868 163.41 115.523 279.834 191.004 115.18 279.928 191.703 115.38 
280.069 193.251 115.811 267.857 201.348 116.266 269.241 201.519 116.831 
259.232 161.085 117.844 260.849 161.605 116.45 262.951 162.404 117.15 
273.853 183.743 116.417 278.707 189.786 116.443 280.111 194.958 117.361 
279.961 195.522 117.052 272.692 200.684 117.04 270.512 201.339 116.755 
270.84 201.346 117.086 258.935 160.829 118.253 258.838 160.97 118.16 
258.971 160.832 118.355 259.424 161.017 118.235 257.695 161.494 118.288 
261.161 161.582 117.432 262.062 162.075 117.822 264.346 164.556 117.756 
277.954 190.397 117.71 279.891 193.634 117.391 279.442 196.387 117.59 
271.316 201.274 118.062 260.975 202.746 117.682 262.138 202.807 118.061 
267.241 201.979 118.177 268.944 201.778 118.015 256.194 203.841 118.366 
257.334 160.511 119.793 257.22 160.662 119.506 258.555 160.848 118.798 
261.897 162.459 118.835 255.16 164.223 118.74 278.448 191.864 118.379 
279.179 192.854 118.27 280.026 194.484 117.919 272.715 200.579 118.915 
270.42 201.515 118.505 261.668 203.226 118.484 261.888 203.586 119.173 
252.307 204.552 119.282 262.121 203.803 119.757 256.683 205.107 119.374 
257.566 205.259 119.641 257.445 160.399 120.223 257.896 160.458 120.116 
258.484 160.665 119.999 271.664 188.342 120.134 277.136 192.455 119.701 
279.411 193.819 118.756 279.518 195.748 118.973 279.139 196.324 119.066 
279.385 195.973 119.07 249.236 198.148 119.562 278.719 196.707 119.353 
277.112 197.78 119.644 275.027 198.924 119.895 260.307 204.693 120.219 
252.372 206.65 120.486 257.327 160.337 121.32 255.691 160.98 120.342 
254.33 161.519 120.973 277.613 194.355 120.523 279.195 195.755 119.436 
278.804 195.923 119.973 277.773 196.948 120.314 277.155 197.336 120.345 
275.068 198.605 120.359 271.706 200.821 119.649 268.522 201.646 120.632 
265.109 202.875 120.749 248.29 203.507 120.842 248.68 205.093 121.083 
261.251 204.74 121.454 259.098 205.667 120.926 255.839 207.607 121.827 
247.037 183.071 121.689 278.424 195.122 120.372 276.908 195.287 121.084 
276.165 197.231 120.929 274.813 198.414 120.701 274.27 198.39 120.966 
274.746 197.951 121.033 270.908 200.289 121.257 263.642 203.594 122.023 
261.202 204.913 122.027 249.428 208.029 122.181 254.222 159.963 123.143 
254.866 159.957 122.951 256.451 160.352 123.353 245.821 190.478 122.074 
272.314 194.826 122.137 274.216 195.731 121.744 277.887 195.768 120.786 
278.277 195.719 120.596 272.882 196.465 122.049 273.559 197.089 121.758 
261.291 204.94 122.716 246.271 206.564 122.985 257.591 207.377 123.147 
254.934 208.763 123.074 248.22 209.49 123.622 253.187 159.661 124.083 
253.233 159.653 124.177 255.403 159.965 123.43 250.947 161.68 123.931 
262.125 169.875 123.332 268.286 196.023 123.964 269.67 197.649 123.259 
268.578 199.281 123.531 243.563 201.399 123.881 267.465 200.692 123.478 
263.703 203.23 123.856 257.711 207.52 123.953 246.843 208.892 123.771 
255.963 208.689 124.059 249.642 210.793 124.491 251.68 210.959 124.874 
251.259 159.646 125.527 252.839 159.722 124.7 254.01 159.797 124.438 
251.18 160.466 124.705 266.505 196.097 125.013 254.933 209.659 125 
250.948 159.607 125.84 251.406 159.389 126.297 248.943 161.673 125.819 
248.268 163.383 125.627 245.704 170.955 125.27 265.133 199.816 125.704 
265.536 200.183 125.289 264.556 201.683 125.129 252.292 211.37 126.013 
251.278 159.349 127.297 263.02 196.529 127.46 264.657 199.342 126.146 
263.315 201.427 126.474 261.624 203.954 126.339 242.538 210.252 127.111 
244.501 212.708 127.791 247.801 212.648 127.048 250.783 159.29 127.657 
248.97 159.943 127.241 252.521 160.16 127.84 262.488 200.258 127.647 
252.856 211.622 127.811 250.912 212.603 128.041 243.587 213.629 129.021 
248.436 213.496 128.463 248.323 159.372 129.143 247.465 159.954 128.797 
251.639 159.728 128.177 247.648 160.629 127.929 261.117 201.825 128.611 
[...]
POINT_DATA 1598
COLOR_SCALARS scalars 3
0.521569 0.6 0.8 0.521569 0.6 0.8 0.521569 0.6 0.8 
0.521569 0.6 0.8 0.521569 0.6 0.8 
0.521569 0.6 0.8 0.521569 0.6 0.8 
0.521569 0.6 0.8 0.521569 0.6 0.8 
0.521569 0.6 0.8 0.521569 0.6 0.8 
0.521569 0.6 0.8 0.521569 0.6 0.8 
0.521569 0.6 0.8 0.521569 0.6 0.8 
0.521569 0.6 0.8 0.521569 0.6 0.8 
0.521569 0.6 0.8 0.521569 0.6 0.8 
0.521569 0.6 0.8 0.521569 0.6 0.8 
0.521569 0.6 0.8 0.521569 0.6 0.8 
0.521569 0.6 0.8 0.521569 0.6 0.8 
0.521569 0.6 0.8 0.521569 0.6 0.8 
0.521569 0.6 0.8 0.521569 0.6 0.8 
0.521569 0.6 0.8 0.521569 0.6 0.8 
0.521569 0.6 0.8 0.521569 0.6 0.8 
0.521569 0.6 0.8 0.521569 0.6 0.8 
0.521569 0.6 0.8 0.521569 0.6 0.8 
0.521569 0.6 0.8 0.521569 0.6 0.8 
0.521569 0.6 0.8 0.521569 0.6 0.8 
0.521569 0.6 0.8 0.521569 0.6 0.8 
0.521569 0.6 0.8 0.521569 0.6 0.8 
0.521569 0.6 0.8 0.521569 0.6 0.8 
0.521569 0.6 0.8 0.521569 0.6 0.8 
0.521569 0.6 0.8 0.521569 0.6 0.8 
0.521569 0.6 0.8 0.521569 0.6 0.8 
0.521569 0.6 0.8 0.521569 0.6 0.8 
0.521569 0.6 0.8 0.521569 0.6 0.8 
0.521569 0.6 0.8 0.521569 0.6 0.8 
0.521569 0.6 0.8 0.521569 0.6 0.8 
0.521569 0.6 0.8 0.521569 0.6 0.8 
0.521569 0.6 0.8 0.521569 0.6 0.8 
0.521569 0.6 0.8 0.521569 0.6 0.8 
0.521569 0.6 0.8 0.521569 0.6 0.8 
0.521569 0.6 0.8 0.521569 0.6 0.8 
0.521569 0.6 0.8 0.521569 0.6 0.8 
0.521569 0.6 0.8 0.521569 0.6 0.8 
0.521569 0.6 0.8 0.521569 0.6 0.8 
0.521569 0.6 0.8 0.521569 0.6 0.8 
0.521569 0.6 0.8 0.521569 0.6 0.8 
0.521569 0.6 0.8 0.521569 0.6 0.8 
0.521569 0.6 0.8 0.521569 0.6 0.8 
0.521569 0.6 0.8 0.521569 0.6 0.8 
0.521569 0.6 0.8 0.521569 0.6 0.8 
0.521569 0.6 0.8 0.521569 0.6 0.8 
0.521569 0.6 0.8 0.521569 0.6 0.8 
0.521569 0.6 0.8 0.521569 0.6 0.8 
0.521569 0.6 0.8 0.521569 0.6 0.8 
0.521569 0.6 0.8 0.521569 0.6 0.8 
0.521569 0.6 0.8 0.521569 0.6 0.8 
0.521569 0.6 0.8 0.521569 0.6 0.8 
0.521569 0.6 0.8 0.521569 0.6 0.8 
0.521569 0.6 0.8 0.521569 0.6 0.8 
0.521569 0.6 0.8 0.521569 0.6 0.8 
0.521569 0.6 0.8 0.521569 0.6 0.8 
0.521569 0.6 0.8 0.521569 0.6 0.8 
0.521569 0.6 0.8 0.521569 0.6 0.8 
0.521569 0.6 0.8 0.521569 0.6 0.8 
0.521569 0.6 0.8 0.521569 0.6 0.8 
0.521569 0.6 0.8 0.521569 0.6 0.8 
0.521569 0.6 0.8 0.521569 0.6 0.8 
0.521569 0.6 0.8 0.521569 0.6 0.8 
0.521569 0.6 0.8 0.521569 0.6 0.8 
0.521569 0.6 0.8 0.521569 0.6 0.8 
0.521569 0.6 0.8 0.521569 0.6 0.8 
0.521569 0.6 0.8 0.521569 0.6 0.8 
0.521569 0.6 0.8 0.521569 0.6 0.8 
0.521569 0.6 0.8 0.521569 0.6 0.8 
0.521569 0.6 0.8 0.521569 0.6 0.8 
0.521569 0.6 0.8 0.521569 0.6 0.8 
0.521569 0.6 0.8 0.521569 0.6 0.8 
0.521569 0.6 0.8 0.521569 0.6 0.8 
0.521569 0.6 0.8 0.521569 0.6 0.8 
0.521569 0.6 0.8 0.521569 0.6 0.8 
0.521569 0.6 0.8 0.521569 0.6 0.8 
0.521569 0.6 0.8 0.521569 0.6 0.8 
0.521569 0.6 0.8 0.521569 0.6 0.8 
0.521569 0.6 0.8 0.521569 0.6 0.8 
0.521569 0.6 0.8 0.521569 0.6 0.8 
0.521569 0.6 0.8 0.521569 0.6 0.8 
0.521569 0.6 0.8 0.521569 0.6 0.8 
0.521569 0.6 0.8 0.521569 0.6 0.8 
0.521569 0.6 0.8 0.521569 0.6 0.8 
0.521569 0.6 0.8 0.521569 0.6 0.8 
0.521569 0.6 0.8 0.521569 0.6 0.8 
0.521569 0.6 0.8 0.521569 0.6 0.8 
0.521569 0.6 0.8 0.521569 0.6 0.8 
0.521569 0.6 0.8 0.521569 0.6 0.8 
0.521569 0.6 0.8 0.521569 0.6 0.8 
0.521569 0.6 0.8 0.521569 0.6 0.8 
0.521569 0.6 0.8 0.521569 0.6 0.8 
0.521569 0.6 0.8 0.521569 0.6 0.8 
0.521569 0.6 0.8 0.521569 0.6 0.8 
0.521569 0.6 0.8 0.521569 0.6 0.8 
0.521569 0.6 0.8 0.521569 0.6 0.8 
0.521569 0.6 0.8 0.521569 0.6 0.8 
0.521569 0.6 0.8 0.521569 0.6 0.8 
0.521569 0.6 0.8 0.521569 0.6 0.8 
0.521569 0.6 0.8 0.521569 0.6 0.8 
0.521569 0.6 0.8 0.521569 0.6 0.8 
0.521569 0.6 0.8 0.521569 0.6 0.8 
0.521569 0.6 0.8 0.521569 0.6 0.8 
0.521569 0.6 0.8 0.521569 0.6 0.8 
0.521569 0.6 0.8 0.521569 0.6 0.8 
0.521569 0.6 0.8 0.521569 0.6 0.8 
0.521569 0.6 0.8 0.521569 0.6 0.8 
0.521569 0.6 0.8 0.521569 0.6 0.8 
0.521569 0.6 0.8 0.521569 0.6 0.8 
0.521569 0.6 0.8 0.521569 0.6 0.8 
0.521569 0.6 0.8 0.521569 0.6 0.8 
0.521569 0.6 0.8 0.521569 0.6 0.8 
0.521569 0.6 0.8 0.521569 0.6 0.8 
0.521569 0.6 0.8 0.521569 0.6 0.8 
0.521569 0.6 0.8 0.521569 0.6 0.8 
0.521569 0.6 0.8 0.521569 0.6 0.8 
0.521569 0.6 0.8 0.521569 0.6 0.8 
0.521569 0.6 0.8 0.521569 0.6 0.8 
0.521569 0.6 0.8 0.521569 0.6 0.8 
0.521569 0.6 0.8 0.521569 0.6 0.8 
0.521569 0.6 0.8 0.521569 0.6 0.8 
0.521569 0.6 0.8 0.521569 0.6 0.8 
0.521569 0.6 0.8 0.521569 0.6 0.8 
0.521569 0.6 0.8 0.521569 0.6 0.8 
0.521569 0.6 0.8 0.521569 0.6 0.8 
0.521569 0.6 0.8 0.521569 0.6 0.8 
0.521569 0.6 0.8 0.521569 0.6 0.8 
0.521569 0.6 0.8 0.521569 0.6 0.8 
0.521569 0.6 0.8 0.521569 0.6 0.8 
0.521569 0.6 0.8 0.521569 0.6 0.8 
0.521569 0.6 0.8 0.521569 0.6 0.8 
0.521569 0.6 0.8 0.521569 0.6 0.8 
0.521569 0.6 0.8 0.521569 0.6 0.8 
0.521569 0.6 0.8 0.521569 0.6 0.8 
0.521569 0.6 0.8 0.521569 0.6 0.8 
0.521569 0.6 0.8 0.521569 0.6 0.8 
0.521569 0.6 0.8 0.521569 0.6 0.8 
0.521569 0.6 0.8 0.521569 0.6 0.8 
0.521569 0.6 0.8 0.521569 0.6 0.8 
0.521569 0.6 0.8 0.521569 0.6 0.8 
0.521569 0.6 0.8 0.521569 0.6 0.8 
0.521569 0.6 0.8 0.521569 0.6 0.8 
0.521569 0.6 0.8 0.521569 0.6 0.8 
0.521569 0.6 0.8 0.521569 0.6 0.8 
0.521569 0.6 0.8 0.521569 0.6 0.8 
0.521569 0.6 0.8 0.521569 0.6 0.8 
0.521569 0.6 0.8 0.521569 0.6 0.8 
0.521569 0.6 0.8 0.521569 0.6 0.8 
0.521569 0.6 0.8 0.521569 0.6 0.8 
0.521569 0.6 0.8 0.521569 0.6 0.8 
0.521569 0.6 0.8 0.521569 0.6 0.8 
0.521569 0.6 0.8 0.521569 0.6 0.8 
0.521569 0.6 0.8 0.521569 0.6 0.8 
0.521569 0.6 0.8 0.521569 0.6 0.8 
0.521569 0.6 0.8 0.521569 0.6 0.8 
0.521569 0.6 0.8 0.521569 0.6 0.8 
0.521569 0.6 0.8 0.521569 0.6 0.8 
0.521569 0.6 0.8 0.521569 0.6 0.8 
0.521569 0.6 0.8 0.521569 0.6 0.8 
0.521569 0.6 0.8 0.521569 0.6 0.8 
0.521569 0.6 0.8 0.521569 0.6 0.8 
0.521569 0.6 0.8 0.521569 0.6 0.8 
0.521569 0.6 0.8 0.521569 0.6 0.8 
0.521569 0.6 0.8 0.521569 0.6 0.8 
0.521569 0.6 0.8 0.521569 0.6 0.8 
0.521569 0.6 0.8 0.521569 0.6 0.8 
0.521569 0.6 0.8 0.521569 0.6 0.8 
0.521569 0.6 0.8 0.521569 0.6 0.8 
0.521569 0.6 0.8 0.521569 0.6 0.8 
0.521569 0.6 0.8 0.521569 0.6 0.8 
0.521569 0.6 0.8 0.521569 0.6 0.8 
0.521569 0.6 0.8 0.521569 0.6 0.8 
0.521569 0.6 0.8 0.521569 0.6 0.8 
0.521569 0.6 0.8 0.521569 0.6 0.8 
0.521569 0.6 0.8 0.521569 0.6 0.8 
0.521569 0.6 0.8 0.521569 0.6 0.8 
0.521569 0.6 0.8 0.521569 0.6 0.8 
0.521569 0.6 0.8 0.521569 0.6 0.8 
0.521569 0.6 0.8 0.521569 0.6 0.8 
0.521569 0.6 0.8 0.521569 0.6 0.8 
0.521569 0.6 0.8 0.521569 0.6 0.8 
0.521569 0.6 0.8 0.521569 0.6 0.8 
0.521569 0.6 0.8 0.521569 0.6 0.8 
0.521569 0.6 0.8 0.521569 0.6 0.8 
0.521569 0.6 0.8 0.521569 0.6 0.8 
0.521569 0.6 0.8 0.521569 0.6 0.8 
0.521569 0.6 0.8 0.521569 0.6 0.8 
0.521569 0.6 0.8 0.521569 0.6 0.8 
0.521569 0.6 0.8 0.521569 0.6 0.8 
0.521569 0.6 0.8 0.521569 0.6 0.8 
0.521569 0.6 0.8 0.521569 0.6 0.8 
0.521569 0.6 0.8 0.521569 0.6 0.8 
0.521569 0.6 0.8 0.521569 0.6 0.8 
0.521569 0.6 0.8 0.521569 0.6 0.8 
0.521569 0.6 0.8 0.521569 0.6 0.8 
0.521569 0.6 0.8 0.521569 0.6 0.8 
0.521569 0.6 0.8 0.521569 0.6 0.8 
0.521569 0.6 0.8 0.521569 0.6 0.8 
0.521569 0.6 0.8 0.521569 0.6 0.8 
0.521569 0.6 0.8 0.521569 0.6 0.8 
0.521569 0.6 0.8 0.521569 0.6 0.8 
0.521569 0.6 0.8 0.521569 0.6 0.8 
0.521569 0.6 0.8 0.521569 0.6 0.8 
0.521569 0.6 0.8 0.521569 0.6 0.8 
0.521569 0.6 0.8 0.521569 0.6 0.8 
0.521569 0.6 0.8 0.521569 0.6 0.8 
0.521569 0.6 0.8 0.521569 0.6 0.8 
0.521569 0.6 0.8 0.521569 0.6 0.8 
0.521569 0.6 0.8 0.521569 0.6 0.8 
0.521569 0.6 0.8 0.521569 0.6 0.8 
0.521569 0.6 0.8 0.521569 0.6 0.8 
0.521569 0.6 0.8 0.521569 0.6 0.8 
0.521569 0.6 0.8 0.521569 0.6 0.8 
0.521569 0.6 0.8 0.521569 0.6 0.8 
0.521569 0.6 0.8 0.521569 0.6 0.8 
0.521569 0.6 0.8 0.521569 0.6 0.8 
0.521569 0.6 0.8 0.521569 0.6 0.8 
0.521569 0.6 0.8 0.521569 0.6 0.8 
0.521569 0.6 0.8 0.521569 0.6 0.8 
0.521569 0.6 0.8 0.521569 0.6 0.8 
0.521569 0.6 0.8 0.521569 0.6 0.8 
0.521569 0.6 0.8 0.521569 0.6 0.8 
0.521569 0.6 0.8 0.521569 0.6 0.8 
0.521569 0.6 0.8 0.521569 0.6 0.8 
0.521569 0.6 0.8 0.521569 0.6 0.8 
0.521569 0.6 0.8 0.521569 0.6 0.8 
0.521569 0.6 0.8 0.521569 0.6 0.8 
0.521569 0.6 0.8 0.521569 0.6 0.8 
0.521569 0.6 0.8 0.521569 0.6 0.8 
0.521569 0.6 0.8 0.521569 0.6 0.8 
0.521569 0.6 0.8 0.521569 0.6 0.8 
0.521569 0.6 0.8 0.521569 0.6 0.8 
0.521569 0.6 0.8 0.521569 0.6 0.8 
0.521569 0.6 0.8 0.521569 0.6 0.8 
0.521569 0.6 0.8 0.521569 0.6 0.8 
0.521569 0.6 0.8 0.521569 0.6 0.8 
0.521569 0.6 0.8 0.521569 0.6 0.8 
0.521569 0.6 0.8 0.521569 0.6 0.8 
0.521569 0.6 0.8 0.521569 0.6 0.8 
0.521569 0.6 0.8 0.521569 0.6 0.8 
0.521569 0.6 0.8 0.521569 0.6 0.8 
0.521569 0.6 0.8 0.521569 0.6 0.8 
0.521569 0.6 0.8 0.521569 0.6 0.8 
0.521569 0.6 0.8 0.521569 0.6 0.8 
0.521569 0.6 0.8 0.521569 0.6 0.8 
0.521569 0.6 0.8 0.521569 0.6 0.8 
0.521569 0.6 0.8 0.521569 0.6 0.8 
0.521569 0.6 0.8 0.521569 0.6 0.8 
0.521569 0.6 0.8 0.521569 0.6 0.8 
0.521569 0.6 0.8 0.521569 0.6 0.8 
0.521569 0.6 0.8 0.521569 0.6 0.8 
0.521569 0.6 0.8 0.521569 0.6 0.8 
0.521569 0.6 0.8 0.521569 0.6 0.8 
0.521569 0.6 0.8 0.521569 0.6 0.8 
0.521569 0.6 0.8 0.521569 0.6 0.8 
0.521569 0.6 0.8 0.521569 0.6 0.8 
0.521569 0.6 0.8 0.521569 0.6 0.8 
0.521569 0.6 0.8 0.521569 0.6 0.8 
0.521569 0.6 0.8 0.521569 0.6 0.8 
0.521569 0.6 0.8 0.521569 0.6 0.8 
0.521569 0.6 0.8 0.521569 0.6 0.8 
0.521569 0.6 0.8 0.521569 0.6 0.8 
0.521569 0.6 0.8 0.521569 0.6 0.8 
0.521569 0.6 0.8 0.521569 0.6 0.8 
0.521569 0.6 0.8 0.521569 0.6 0.8 
0.521569 0.6 0.8 0.521569 0.6 0.8 
0.521569 0.6 0.8 0.521569 0.6 0.8 
0.521569 0.6 0.8 0.521569 0.6 0.8 
0.521569 0.6 0.8 0.521569 0.6 0.8 
0.521569 0.6 0.8 0.521569 0.6 0.8 
0.521569 0.6 0.8 0.521569 0.6 0.8 
0.521569 0.6 0.8 0.521569 0.6 0.8 
0.521569 0.6 0.8 0.521569 0.6 0.8 
0.521569 0.6 0.8 0.521569 0.6 0.8 
0.521569 0.6 0.8 0.521569 0.6 0.8 
0.521569 0.6 0.8 0.521569 0.6 0.8 
0.521569 0.6 0.8 0.521569 0.6 0.8 
0.521569 0.6 0.8 0.521569 0.6 0.8 
0.521569 0.6 0.8 0.521569 0.6 0.8 
0.521569 0.6 0.8 0.521569 0.6 0.8 
0.521569 0.6 0.8 0.521569 0.6 0.8 
0.521569 0.6 0.8 0.521569 0.6 0.8 
0.521569 0.6 0.8 0.521569 0.6 0.8 
0.521569 0.6 0.8 0.521569 0.6 0.8 
0.521569 0.6 0.8 0.521569 0.6 0.8 
0.521569 0.6 0.8 0.521569 0.6 0.8 
0.521569 0.6 0.8 0.521569 0.6 0.8 
0.521569 0.6 0.8 0.521569 0.6 0.8 
0.521569 0.6 0.8 0.521569 0.6 0.8 
0.521569 0.6 0.8 0.521569 0.6 0.8 
0.521569 0.6 0.8 0.521569 0.6 0.8 
0.521569 0.6 0.8 0.521569 0.6 0.8 
0.521569 0.6 0.8 0.521569 0.6 0.8 
0.521569 0.6 0.8 0.521569 0.6 0.8 
0.521569 0.6 0.8 0.521569 0.6 0.8 
0.521569 0.6 0.8 0.521569 0.6 0.8 
0.521569 0.6 0.8 0.521569 0.6 0.8 
0.521569 0.6 0.8 0.521569 0.6 0.8 
0.521569 0.6 0.8 0.521569 0.6 0.8 
0.521569 0.6 0.8 0.521569 0.6 0.8 
0.521569 0.6 0.8 0.521569 0.6 0.8 
0.521569 0.6 0.8 0.521569 0.6 0.8 
0.521569 0.6 0.8 0.521569 0.6 0.8 
0.521569 0.6 0.8 0.521569 0.6 0.8 
0.521569 0.6 0.8 0.521569 0.6 0.8 
0.521569 0.6 0.8 0.521569 0.6 0.8 
0.521569 0.6 0.8 0.521569 0.6 0.8 
0.521569 0.6 0.8 0.521569 0.6 0.8 
0.521569 0.6 0.8 0.521569 0.6 0.8 
0.521569 0.6 0.8 0.521569 0.6 0.8 
0.521569 0.6 0.8 0.521569 0.6 0.8 
0.521569 0.6 0.8 0.521569 0.6 0.8 
0.521569 0.6 0.8 0.521569 0.6 0.8 
0.521569 0.6 0.8 0.521569 0.6 0.8 
0.521569 0.6 0.8 0.521569 0.6 0.8 
0.521569 0.6 0.8 0.521569 0.6 0.8 
0.521569 0.6 0.8 0.521569 0.6 0.8 
0.521569 0.6 0.8 0.521569 0.6 0.8 
0.521569 0.6 0.8 0.521569 0.6 0.8 
0.521569 0.6 0.8 0.521569 0.6 0.8 
0.521569 0.6 0.8 0.521569 0.6 0.8 
0.521569 0.6 0.8 0.521569 0.6 0.8 
0.521569 0.6 0.8 0.521569 0.6 0.8 
0.521569 0.6 0.8 0.521569 0.6 0.8 
0.521569 0.6 0.8 0.521569 0.6 0.8 
0.521569 0.6 0.8 0.521569 0.6 0.8 
0.521569 0.6 0.8 0.521569 0.6 0.8 
0.521569 0.6 0.8 0.521569 0.6 0.8 
0.521569 0.6 0.8 0.521569 0.6 0.8 
0.521569 0.6 0.8 0.521569 0.6 0.8 
0.521569 0.6 0.8 0.521569 0.6 0.8 
0.521569 0.6 0.8 0.521569 0.6 0.8 
0.521569 0.6 0.8 0.521569 0.6 0.8 
0.521569 0.6 0.8 0.521569 0.6 0.8 
0.521569 0.6 0.8 0.521569 0.6 0.8 
0.521569 0.6 0.8 0.521569 0.6 0.8 
0.521569 0.6 0.8 0.521569 0.6 0.8 
0.521569 0.6 0.8 0.521569 0.6 0.8 
0.521569 0.6 0.8 0.521569 0.6 0.8 
0.521569 0.6 0.8 0.521569 0.6 0.8 
0.521569 0.6 0.8 0.521569 0.6 0.8 
0.521569 0.6 0.8 0.521569 0.6 0.8 
0.521569 0.6 0.8 0.521569 0.6 0.8 
0.521569 0.6 0.8 0.521569 0.6 0.8 
0.521569 0.6 0.8 0.521569 0.6 0.8 
0.521569 0.6 0.8 0.521569 0.6 0.8 
0.521569 0.6 0.8 0.521569 0.6 0.8 
0.521569 0.6 0.8 0.521569 0.6 0.8 
0.521569 0.6 0.8 0.521569 0.6 0.8 
0.521569 0.6 0.8 0.521569 0.6 0.8 
0.521569 0.6 0.8 0.521569 0.6 0.8 
0.521569 0.6 0.8 0.521569 0.6 0.8 
0.521569 0.6 0.8 0.521569 0.6 0.8 
0.521569 0.6 0.8 0.521569 0.6 0.8 
0.521569 0.6 0.8 0.521569 0.6 0.8 
0.521569 0.6 0.8 0.521569 0.6 0.8 
0.521569 0.6 0.8 0.521569 0.6 0.8 
0.521569 0.6 0.8 0.521569 0.6 0.8 
0.521569 0.6 0.8 0.521569 0.6 0.8 
0.521569 0.6 0.8 0.521569 0.6 0.8 
0.521569 0.6 0.8 0.521569 0.6 0.8 
0.521569 0.6 0.8 0.521569 0.6 0.8 
0.521569 0.6 0.8 0.521569 0.6 0.8 
0.521569 0.6 0.8 0.521569 0.6 0.8 
0.521569 0.6 0.8 0.521569 0.6 0.8 
0.521569 0.6 0.8 0.521569 0.6 0.8 
0.521569 0.6 0.8 0.521569 0.6 0.8 
0.521569 0.6 0.8 0.521569 0.6 0.8 
0.521569 0.6 0.8 0.521569 0.6 0.8 
0.521569 0.6 0.8 0.521569 0.6 0.8 
0.521569 0.6 0.8 0.521569 0.6 0.8 
0.521569 0.6 0.8 0.521569 0.6 0.8 
0.521569 0.6 0.8 0.521569 0.6 0.8 
0.521569 0.6 0.8 0.521569 0.6 0.8 
0.521569 0.6 0.8 0.521569 0.6 0.8 
0.521569 0.6 0.8 0.521569 0.6 0.8 
0.521569 0.6 0.8 0.521569 0.6 0.8 
0.521569 0.6 0.8 0.521569 0.6 0.8 
0.521569 0.6 0.8 0.521569 0.6 0.8 
0.521569 0.6 0.8 0.521569 0.6 0.8 
0.521569 0.6 0.8 0.521569 0.6 0.8 
0.521569 0.6 0.8 0.521569 0.6 0.8 
0.521569 0.6 0.8 0.521569 0.6 0.8 
0.521569 0.6 0.8 0.521569 0.6 0.8 
0.521569 0.6 0.8 0.521569 0.6 0.8 
0.521569 0.6 0.8 0.521569 0.6 0.8 
0.521569 0.6 0.8 0.521569 0.6 0.8 
0.521569 0.6 0.8 0.521569 0.6 0.8 
0.521569 0.6 0.8 0.521569 0.6 0.8 
0.521569 0.6 0.8 0.521569 0.6 0.8 
0.521569 0.6 0.8 0.521569 0.6 0.8 
0.521569 0.6 0.8 0.521569 0.6 0.8 
0.521569 0.6 0.8 0.521569 0.6 0.8 
0.521569 0.6 0.8 0.521569 0.6 0.8 
0.521569 0.6 0.8 0.521569 0.6 0.8 
0.521569 0.6 0.8 0.521569 0.6 0.8 
0.521569 0.6 0.8 0.521569 0.6 0.8 
0.521569 0.6 0.8 0.521569 0.6 0.8 
0.521569 0.6 0.8 0.521569 0.6 0.8 
0.521569 0.6 0.8 0.521569 0.6 0.8 
0.521569 0.6 0.8 0.521569 0.6 0.8 
0.521569 0.6 0.8 0.521569 0.6 0.8 
0.521569 0.6 0.8 0.521569 0.6 0.8 
0.521569 0.6 0.8 0.521569 0.6 0.8 
0.521569 0.6 0.8 0.521569 0.6 0.8 
0.521569 0.6 0.8 0.521569 0.6 0.8 
0.521569 0.6 0.8 0.521569 0.6 0.8 
0.521569 0.6 0.8 0.521569 0.6 0.8 
0.521569 0.6 0.8 0.521569 0.6 0.8 
0.521569 0.6 0.8 0.521569 0.6 0.8 
0.521569 0.6 0.8 0.521569 0.6 0.8 
0.521569 0.6 0.8 0.521569 0.6 0.8 
0.521569 0.6 0.8 0.521569 0.6 0.8 
0.521569 0.6 0.8 0.521569 0.6 0.8 
0.521569 0.6 0.8 0.521569 0.6 0.8 
0.521569 0.6 0.8 0.521569 0.6 0.8 
0.521569 0.6 0.8 0.521569 0.6 0.8 
0.521569 0.6 0.8 0.521569 0.6 0.8 
0.521569 0.6 0.8 0.521569 0.6 0.8 
0.521569 0.6 0.8 0.521569 0.6 0.8 
0.521569 0.6 0.8 0.521569 0.6 0.8 
0.521569 0.6 0.8 0.521569 0.6 0.8 
0.521569 0.6 0.8 0.521569 0.6 0.8 
0.521569 0.6 0.8 0.521569 0.6 0.8 
0.521569 0.6 0.8 0.521569 0.6 0.8 
0.521569 0.6 0.8 0.521569 0.6 0.8 
0.521569 0.6 0.8 0.521569 0.6 0.8 
0.521569 0.6 0.8 0.521569 0.6 0.8 
0.521569 0.6 0.8 0.521569 0.6 0.8 
0.521569 0.6 0.8 0.521569 0.6 0.8 
0.521569 0.6 0.8 0.521569 0.6 0.8 
0.521569 0.6 0.8 0.521569 0.6 0.8 
0.521569 0.6 0.8 0.521569 0.6 0.8 
0.521569 0.6 0.8 0.521569 0.6 0.8 
0.521569 0.6 0.8 0.521569 0.6 0.8 
0.521569 0.6 0.8 0.521569 0.6 0.8 
0.521569 0.6 0.8 0.521569 0.6 0.8 
0.521569 0.6 0.8 0.521569 0.6 0.8 
0.521569 0.6 0.8 0.521569 0.6 0.8 
0.521569 0.6 0.8 0.521569 0.6 0.8 
0.521569 0.6 0.8 0.521569 0.6 0.8 
0.521569 0.6 0.8 0.521569 0.6 0.8 
0.521569 0.6 0.8 0.521569 0.6 0.8 
0.521569 0.6 0.8 0.521569 0.6 0.8 
0.521569 0.6 0.8 0.521569 0.6 0.8 
0.521569 0.6 0.8 0.521569 0.6 0.8 
0.521569 0.6 0.8 0.521569 0.6 0.8 
0.521569 0.6 0.8 0.521569 0.6 0.8 
0.521569 0.6 0.8 0.521569 0.6 0.8 
0.521569 0.6 0.8 0.521569 0.6 0.8 
0.521569 0.6 0.8 0.521569 0.6 0.8 
0.521569 0.6 0.8 0.521569 0.6 0.8 
0.521569 0.6 0.8 0.521569 0.6 0.8 
0.521569 0.6 0.8 0.521569 0.6 0.8 
0.521569 0.6 0.8 0.521569 0.6 0.8 
0.521569 0.6 0.8 0.521569 0.6 0.8 
0.521569 0.6 0.8 0.521569 0.6 0.8 
0.521569 0.6 0.8 0.521569 0.6 0.8 
0.521569 0.6 0.8 0.521569 0.6 0.8 
0.521569 0.6 0.8 0.521569 0.6 0.8 
0.521569 0.6 0.8 0.521569 0.6 0.8 
0.521569 0.6 0.8 0.521569 0.6 0.8 
0.521569 0.6 0.8 0.521569 0.6 0.8 
0.521569 0.6 0.8 0.521569 0.6 0.8 
0.521569 0.6 0.8 0.521569 0.6 0.8 
0.521569 0.6 0.8 0.521569 0.6 0.8 
0.521569 0.6 0.8 0.521569 0.6 0.8 
0.521569 0.6 0.8 0.521569 0.6 0.8 
0.521569 0.6 0.8 0.521569 0.6 0.8 
0.521569 0.6 0.8 0.521569 0.6 0.8 
0.521569 0.6 0.8 0.521569 0.6 0.8 
0.521569 0.6 0.8 0.521569 0.6 0.8 
0.521569 0.6 0.8 0.521569 0.6 0.8 
0.521569 0.6 0.8 0.521569 0.6 0.8 
0.521569 0.6 0.8 0.521569 0.6 0.8 
0.521569 0.6 0.8 0.521569 0.6 0.8 
0.521569 0.6 0.8 0.521569 0.6 0.8 
0.521569 0.6 0.8 0.521569 0.6 0.8 
0.521569 0.6 0.8 0.521569 0.6 0.8 
0.521569 0.6 0.8 0.521569 0.6 0.8 
0.521569 0.6 0.8 0.521569 0.6 0.8 
0.521569 0.6 0.8 0.521569 0.6 0.8 
0.521569 0.6 0.8 0.521569 0.6 0.8 
0.521569 0.6 0.8 0.521569 0.6 0.8 
0.521569 0.6 0.8 0.521569 0.6 0.8 
0.521569 0.6 0.8 0.521569 0.6 0.8 
0.521569 0.6 0.8 0.521569 0.6 0.8 
0.521569 0.6 0.8 0.521569 0.6 0.8 
0.521569 0.6 0.8 0.521569 0.6 0.8 
0.521569 0.6 0.8 0.521569 0.6 0.8 
0.521569 0.6 0.8 0.521569 0.6 0.8 
0.521569 0.6 0.8 0.521569 0.6 0.8 
0.521569 0.6 0.8 0.521569 0.6 0.8 
0.521569 0.6 0.8 0.521569 0.6 0.8 
0.521569 0.6 0.8 0.521569 0.6 0.8 
0.521569 0.6 0.8 0.521569 0.6 0.8 
0.521569 0.6 0.8 0.521569 0.6 0.8 
0.521569 0.6 0.8 0.521569 0.6 0.8 
0.521569 0.6 0.8 0.521569 0.6 0.8 
0.521569 0.6 0.8 0.521569 0.6 0.8 
0.521569 0.6 0.8 0.521569 0.6 0.8 
0.521569 0.6 0.8 0.521569 0.6 0.8 
0.521569 0.6 0.8 0.521569 0.6 0.8 
0.521569 0.6 0.8 0.521569 0.6 0.8 
0.521569 0.6 0.8 0.521569 0.6 0.8 
0.521569 0.6 0.8 0.521569 0.6 0.8 
0.521569 0.6 0.8 0.521569 0.6 0.8 
0.521569 0.6 0.8 0.521569 0.6 0.8 
0.521569 0.6 0.8 0.521569 0.6 0.8 
0.521569 0.6 0.8 0.521569 0.6 0.8 
0.521569 0.6 0.8 0.521569 0.6 0.8 
0.521569 0.6 0.8 0.521569 0.6 0.8 
0.521569 0.6 0.8 0.521569 0.6 0.8 
0.521569 0.6 0.8 0.521569 0.6 0.8 
0.521569 0.6 0.8 0.521569 0.6 0.8 
0.521569 0.6 0.8 0.521569 0.6 0.8 
0.521569 0.6 0.8 0.521569 0.6 0.8 
0.521569 0.6 0.8 0.521569 0.6 0.8 
0.521569 0.6 0.8 0.521569 0.6 0.8 
0.521569 0.6 0.8 0.521569 0.6 0.8 
0.521569 0.6 0.8 0.521569 0.6 0.8 
0.521569 0.6 0.8 0.521569 0.6 0.8 
0.521569 0.6 0.8 0.521569 0.6 0.8 
0.521569 0.6 0.8 0.521569 0.6 0.8 
0.521569 0.6 0.8 0.521569 0.6 0.8 
0.521569 0.6 0.8 0.521569 0.6 0.8 
0.521569 0.6 0.8 0.521569 0.6 0.8 
0.521569 0.6 0.8 0.521569 0.6 0.8 
0.521569 0.6 0.8 0.521569 0.6 0.8 
0.521569 0.6 0.8 0.521569 0.6 0.8 
0.521569 0.6 0.8 0.521569 0.6 0.8 
0.521569 0.6 0.8 0.521569 0.6 0.8 
0.521569 0.6 0.8 0.521569 0.6 0.8 
0.521569 0.6 0.8 0.521569 0.6 0.8 
0.521569 0.6 0.8 0.521569 0.6 0.8 
0.521569 0.6 0.8 0.521569 0.6 0.8 
0.521569 0.6 0.8 0.521569 0.6 0.8 
0.521569 0.6 0.8 0.521569 0.6 0.8 
0.521569 0.6 0.8 0.521569 0.6 0.8 
0.521569 0.6 0.8 0.521569 0.6 0.8 
0.521569 0.6 0.8 0.521569 0.6 0.8 
0.521569 0.6 0.8 0.521569 0.6 0.8 
0.521569 0.6 0.8 0.521569 0.6 0.8 
0.521569 0.6 0.8 0.521569 0.6 0.8 
0.521569 0.6 0.8 0.521569 0.6 0.8 
0.521569 0.6 0.8 0.521569 0.6 0.8 
0.521569 0.6 0.8 0.521569 0.6 0.8 
0.521569 0.6 0.8 0.521569 0.6 0.8 
0.521569 0.6 0.8 0.521569 0.6 0.8 
0.521569 0.6 0.8 0.521569 0.6 0.8 
0.521569 0.6 0.8 0.521569 0.6 0.8 
0.521569 0.6 0.8 0.521569 0.6 0.8 
0.521569 0.6 0.8 0.521569 0.6 0.8 
0.521569 0.6 0.8 0.521569 0.6 0.8 
0.521569 0.6 0.8 0.521569 0.6 0.8 
0.521569 0.6 0.8 0.521569 0.6 0.8 
0.521569 0.6 0.8 0.521569 0.6 0.8 
0.521569 0.6 0.8 0.521569 0.6 0.8 
0.521569 0.6 0.8 0.521569 0.6 0.8 
0.521569 0.6 0.8 0.521569 0.6 0.8 
0.521569 0.6 0.8 0.521569 0.6 0.8 
0.521569 0.6 0.8 0.521569 0.6 0.8 
0.521569 0.6 0.8 0.521569 0.6 0.8 
0.521569 0.6 0.8 0.521569 0.6 0.8 
0.521569 0.6 0.8 0.521569 0.6 0.8 
0.521569 0.6 0.8 0.521569 0.6 0.8 
0.521569 0.6 0.8 0.521569 0.6 0.8 
0.521569 0.6 0.8 0.521569 0.6 0.8 
0.521569 0.6 0.8 0.521569 0.6 0.8 
0.521569 0.6 0.8 0.521569 0.6 0.8 