# vtk DataFile Version 4.2
vtk output
ASCII
DATASET POLYDATA
POINTS 480 float
507.373 197.562 206.259 508.495 197.49 205.967 509.942 197.414 205.96 
509.555 197.13 206.185 510.673 197.37 206.081 507.059 197.725 206.293 
506.96 197.934 206.146 507.682 197.923 205.864 511.287 197.257 206.356 
513.509 197.722 206.513 506.838 198.119 206.197 508.525 198.267 205.681 
509.286 198.317 205.651 511.094 198.338 205.748 506.944 198.357 206.144 
507.035 198.679 206.303 507.248 198.538 206.005 508.215 198.59 205.717 
514.853 199.069 206.194 516.304 199.354 206.504 507.284 198.874 206.117 
515.407 199.752 206.147 520.139 201.24 206.734 507.278 197.487 206.637 
508.078 197.094 206.664 509.88 196.941 206.459 511.039 197.004 206.591 
506.95 197.756 206.518 506.84 197.918 206.325 506.759 198.099 206.375 
515.635 198.476 206.792 509.25 199.948 206.028 510.001 199.929 205.871 
511.947 200.227 205.873 515.045 200.347 206.069 519.346 200.289 207.077 
508.596 200.157 206.465 510.908 200.865 206.169 508.701 200.651 206.931 
510.58 201.245 206.481 517.868 201.69 206.407 521.572 202.816 207.044 
507.447 197.311 206.904 507.621 197.217 207.038 507.961 197.083 207.03 
509.173 196.872 206.976 507.447 197.48 207.231 511.999 196.965 207.551 
513.366 197.35 207.265 506.781 198.22 206.559 506.906 198.216 206.946 
514.842 197.752 207.62 507.151 199.162 207.181 520.216 200.237 207.888 
521.279 201.164 207.586 508.06 200.345 207.555 522.522 202.12 207.702 
509.732 201.68 207.502 523.353 203.552 207.806 511.098 203.085 208.199 
523.417 204.209 207.801 524.311 204.166 208.352 522.401 204.768 207.611 
522.44 205.678 207.964 507.839 197.205 207.318 508.325 197.071 207.453 
513.981 197.345 208.502 507.081 198.751 207.633 507.178 199.1 207.586 
520.398 200.085 208.428 523.185 202.412 208.159 524.02 203.354 208.354 
517.743 204.15 207.339 524.784 204.246 208.965 515.359 204.603 207.928 
512.791 204.394 208.68 524.552 206.311 209.227 524.98 206.07 209.645 
507.98 197.77 208.529 512.413 197.016 208.509 507.197 198.585 207.964 
507.384 198.414 208.307 516.918 198.216 209.421 507.457 198.863 208.45 
520.777 200.203 208.814 508.243 200.427 208.964 524.511 203.346 209.43 
524.703 203.848 209.141 513.217 205.305 209.855 516.427 205.927 208.846 
514.331 205.997 209.741 516.308 206.477 209.404 525.345 206.075 210.291 
524.567 207.334 209.94 523.647 208.263 210.054 507.801 198.076 208.766 
507.929 198.225 209.062 516.148 197.945 209.687 507.788 198.891 209.067 
508.126 199.797 209.414 512 204.448 210.445 525.383 204.977 210.402 
514.559 206.474 210.36 515.691 207.345 210.811 525.33 207.67 211.257 
508.006 198.534 209.29 513.295 197.61 210.615 514.847 197.735 210.623 
508.349 199.149 209.859 508.706 199.044 210.22 518.259 198.716 210.53 
508.364 199.609 209.851 508.815 199.94 210.312 520.813 199.997 211.241 
512.012 204.522 211.066 513.606 205.958 210.972 525.655 207.781 212.123 
509.52 198.66 210.78 524.807 203.305 212.054 511.224 203.145 212.231 
512.362 204.799 212.071 525.676 205.189 212.034 516.167 208.521 212.678 
510.153 200.25 211.945 523.784 202.171 212.946 511.425 203.164 212.778 
522.722 210.927 212.741 518.242 199.126 213.084 511.272 201.928 213.238 
520.201 211.745 214.562 524.96 212.252 215.352 516.666 199.169 214.098 
511.621 200.809 213.646 512.107 200.79 214.172 512.486 200.59 214.417 
519.355 200.093 215.016 511.54 201.534 213.673 515.595 208.582 215.332 
526.028 210.178 215.698 522.998 213.556 215.925 513.441 199.999 214.645 
514.476 200.249 215.334 515.385 200.018 215.395 512.782 202.323 215.119 
513.024 203.993 215.246 514.141 206.335 215.892 520.619 212.813 216.131 
522.426 213.729 216.339 513.398 201.082 215.343 523.223 214.701 217.661 
524.422 214.805 218.019 524.132 215.147 218.366 514.492 202.794 217.188 
514.341 205.566 217.244 520.86 213.81 218.407 522.571 214.766 218.203 
524.07 215.477 218.949 514.509 204.712 217.664 516.41 209.215 218.814 
526.071 213.291 219.594 522.099 214.843 219.443 525.793 214.643 220.165 
517.261 202.437 218.906 523.874 204.463 219.874 525.758 207.139 219.425 
515.884 206.839 219.688 521.899 214.798 220.317 524.263 216.137 220.371 
524.004 216.219 220.969 525.123 216.197 220.948 516.272 203.972 219.501 
524.929 205.785 220.123 524.737 205.71 220.539 520.735 213.699 221.261 
524.987 216.53 221.972 519.823 203.548 220.601 517.937 204.482 220.969 
524.768 206.607 221.804 525.141 207.107 221.59 525.889 208.896 221.428 
517.597 209.569 221.176 526.194 210.502 221.584 523.78 216.224 222.44 
525.483 216.129 222.372 525.215 216.435 222.464 518.34 205.352 221.593 
519.897 205.399 222.24 522.685 205.645 222.429 524.267 206.624 222.556 
517.695 207.311 221.707 518.731 206.99 222.471 517.647 208.682 221.664 
526.125 213.052 222.621 522.043 214.574 222.771 524.162 216.435 222.877 
524.814 216.593 223.138 523.924 206.59 222.814 523.685 206.832 223.153 
524.886 207.851 223.052 525.91 210.82 223.037 525.623 215.378 223.42 
523.891 216.127 223.607 525.454 215.911 223.447 525.014 216.502 223.541 
523.698 207.446 223.57 521.279 208.463 224.134 524.876 208.83 223.871 
521.051 209.095 224.158 525.507 210.162 223.657 520.209 210.1 223.713 
525.711 212.503 223.823 521.303 212.782 223.756 522.254 214.118 223.754 
523.408 215.452 223.955 524.262 216.085 224.158 525.113 216.328 223.894 
524.726 216.464 223.985 524.923 216.47 223.929 522.305 208.705 224.451 
523.108 209.61 224.801 524.286 209.42 224.57 524.986 209.974 224.436 
522.901 210.239 224.883 525.231 210.237 224.231 522.66 211.953 224.789 
522.076 212.81 224.339 525.319 213.503 224.341 523.259 214.797 224.37 
523.55 214.762 224.533 523.811 215.366 224.397 523.968 215.767 224.243 
525.082 216.093 224.193 524.741 216.207 224.356 524.832 216.368 224.193 
524.905 216.175 224.335 524.991 216.33 224.143 524.136 210.027 224.829 
524.995 211.168 224.594 523.281 212.63 224.891 523.901 212.403 224.988 
524.434 213.064 224.878 523.869 214.229 224.755 524.565 215.542 224.548 
524.748 215.985 224.455 523.682 210.726 229.987 523.778 210.1 230.119 
524.311 209.99 230.198 524.694 209.972 230.308 523.044 211.498 230.047 
524.096 211.211 229.969 524.58 210.995 230.098 524.913 210.23 230.352 
525.19 210.266 230.641 523.036 211.945 230.055 523.972 211.9 229.981 
524.931 212.111 230.359 523.464 213.544 230.268 525.333 212.486 230.77 
524.795 213.73 230.585 524.33 214.638 230.629 525.234 214.206 231.075 
524.978 214.861 231.094 524.936 209.29 230.802 524.666 208.825 230.876 
525.292 209.581 231.073 521.926 211.316 230.63 522.097 212.048 230.613 
522.589 213.14 230.588 523.6 214.531 230.71 523.457 214.838 231.03 
525.64 214.26 231.595 524.401 215.892 231.535 524.959 216.209 231.994 
524.97 215.898 231.705 525.225 216.049 232.108 521.761 207.671 231.339 
523.341 207.649 231.286 524.75 207.627 231.665 520.886 208.379 231.327 
524.879 207.924 231.535 524.489 216.316 232.191 524.797 216.348 232.159 
525.525 215.773 232.376 525.088 216.342 232.445 525.38 216.129 232.531 
519.467 206.727 232.546 524.184 206.345 232.622 524.971 207.719 231.802 
525.137 207.602 232.219 526.237 212.362 232.588 521.562 213.601 231.954 
523.963 216.28 232.952 524.384 216.44 232.732 524.695 216.575 233.154 
518.168 207.036 233.367 517.925 208.542 233.5 520.064 212.635 233.151 
526.057 214.906 233.489 523.908 216.305 233.665 525.299 216.384 233.54 
522.575 204.171 234.571 517.465 205.674 234.382 524.23 205.617 233.55 
517.502 209.771 234.721 525.793 215.639 234.19 517.907 210.868 235.09 
523.553 215.944 234.981 524.023 216.21 235.022 524.391 216.399 234.819 
524.742 216.52 234.76 524.893 216.58 234.537 519.062 202.012 236.928 
516.013 203.376 236.572 525.312 205.769 235.426 516.863 209.689 236.241 
518.321 211.674 236.007 524.454 216.164 235.502 524.975 216.442 234.902 
515.554 202.047 237.672 523.087 203.261 236.601 516.217 201.55 237.909 
516.999 200.802 238.696 514.458 206.066 238.239 518.249 211.61 238.173 
525.143 214.985 237.195 524.282 215.418 237 518.494 200.242 239.73 
513.567 201.351 239.758 513.316 202.113 239.749 524.681 214.642 238.127 
514.969 199.622 240.639 513.803 200.217 240.439 512.703 202.335 240.444 
526.567 209.073 239.825 526.354 210.92 239.769 520.316 212.705 239.279 
522.179 213.413 239.526 524.382 214.357 238.633 515.428 198.958 241.846 
518.219 199.343 241.708 512.034 199.944 241.943 511.761 200.436 241.94 
511.771 201.705 241.576 511.656 202.929 241.983 524.649 203.415 239.937 
516.354 209.325 241.062 512.123 199.287 242.506 513.302 205.882 241.923 
525.86 210.81 241.517 525.051 212.173 241.275 524.207 212.541 241.353 
510.591 199.138 243.797 514.914 207.515 242.982 524.816 212.022 241.748 
510.151 198.601 244.574 511.293 197.962 244.754 509.379 199.375 244.86 
509.748 200.644 244.256 509.457 200.997 244.837 510.049 201.637 244.068 
524.906 203.486 243.564 526.057 206.491 243.399 513.388 197.439 245.55 
508.816 199.513 245.42 508.579 199.983 245.791 508.955 200.754 245.654 
509.884 202.104 245.044 510.092 202.532 245.45 525.595 204.95 244.047 
515.223 207.21 244.404 525.057 209.723 243.913 524.773 210.362 243.555 
509.43 197.271 247.079 507.966 198.176 246.867 518.862 199.034 245.282 
508.193 200.009 246.426 508.303 200.454 246.639 523.343 201.885 245.21 
510.051 202.487 246.139 515.908 207.002 245.227 523.442 208.461 245.654 
523.611 208.815 245.354 524.31 209.54 244.566 524.556 208.978 244.993 
510.859 197.08 247.287 513.998 197.462 246.958 507.323 197.957 247.848 
520.433 199.937 246.388 508.165 200.443 247.097 521.688 200.77 246.507 
525.34 206.557 245.634 524.974 208.036 245.444 524.116 207.975 245.978 
524.587 207.976 245.8 509.413 196.841 248.073 509.687 196.742 248.432 
510.612 196.937 248.034 512.485 197.235 247.49 507.244 198.692 247.868 
507.105 198.593 248.401 508.229 200.51 247.587 509.137 201.274 247.747 
523.422 202.589 246.889 524.176 203.911 246.873 522.05 205.444 247.551 
524.909 205.005 246.318 523.549 206.499 247.021 523.892 206.933 246.74 
524.774 206.965 246.286 524.494 206.75 246.629 523.778 207.493 246.381 
[...]
POINT_DATA 480
COLOR_SCALARS scalars 3
1 0.647059 0.823529 1 0.647059 0.823529 1 0.647059 0.823529 
1 0.647059 0.823529 1 0.647059 0.823529 
1 0.647059 0.823529 1 0.647059 0.823529 
1 0.647059 0.823529 1 0.647059 0.823529 
1 0.647059 0.823529 1 0.647059 0.823529 
1 0.647059 0.823529 1 0.647059 0.823529 
1 0.647059 0.823529 1 0.647059 0.823529 
1 0.647059 0.823529 1 0.647059 0.823529 
1 0.647059 0.823529 1 0.647059 0.823529 
1 0.647059 0.823529 1 0.647059 0.823529 
1 0.647059 0.823529 1 0.647059 0.823529 
1 0.647059 0.823529 1 0.647059 0.823529 
1 0.647059 0.823529 1 0.647059 0.823529 
1 0.647059 0.823529 1 0.647059 0.823529 
1 0.647059 0.823529 1 0.647059 0.823529 
1 0.647059 0.823529 1 0.647059 0.823529 
1 0.647059 0.823529 1 0.647059 0.823529 
1 0.647059 0.823529 1 0.647059 0.823529 
1 0.647059 0.823529 1 0.647059 0.823529 
1 0.647059 0.823529 1 0.647059 0.823529 
1 0.647059 0.823529 1 0.647059 0.823529 
1 0.647059 0.823529 1 0.647059 0.823529 
1 0.647059 0.823529 1 0.647059 0.823529 
1 0.647059 0.823529 1 0.647059 0.823529 
1 0.647059 0.823529 1 0.647059 0.823529 
1 0.647059 0.823529 1 0.647059 0.823529 
1 0.647059 0.823529 1 0.647059 0.823529 
1 0.647059 0.823529 1 0.647059 0.823529 
1 0.647059 0.823529 1 0.647059 0.823529 
1 0.647059 0.823529 1 0.647059 0.823529 
1 0.647059 0.823529 1 0.647059 0.823529 
1 0.647059 0.823529 1 0.647059 0.823529 
1 0.647059 0.823529 1 0.647059 0.823529 
1 0.647059 0.823529 1 0.647059 0.823529 
1 0.647059 0.823529 1 0.647059 0.823529 
1 0.647059 0.823529 1 0.647059 0.823529 
1 0.647059 0.823529 1 0.647059 0.823529 
1 0.647059 0.823529 1 0.647059 0.823529 
1 0.647059 0.823529 1 0.647059 0.823529 
1 0.647059 0.823529 1 0.647059 0.823529 
1 0.647059 0.823529 1 0.647059 0.823529 
1 0.647059 0.823529 1 0.647059 0.823529 
1 0.647059 0.823529 1 0.647059 0.823529 
1 0.647059 0.823529 1 0.647059 0.823529 
1 0.647059 0.823529 1 0.647059 0.823529 
1 0.647059 0.823529 1 0.647059 0.823529 
1 0.647059 0.823529 1 0.647059 0.823529 
1 0.647059 0.823529 1 0.647059 0.823529 
1 0.647059 0.823529 1 0.647059 0.823529 
1 0.647059 0.823529 1 0.647059 0.823529 
1 0.647059 0.823529 1 0.647059 0.823529 
1 0.647059 0.823529 1 0.647059 0.823529 
1 0.647059 0.823529 1 0.647059 0.823529 
1 0.647059 0.823529 1 0.647059 0.823529 
1 0.647059 0.823529 1 0.647059 0.823529 
1 0.647059 0.823529 1 0.647059 0.823529 
1 0.647059 0.823529 1 0.647059 0.823529 
1 0.647059 0.823529 1 0.647059 0.823529 
1 0.647059 0.823529 1 0.647059 0.823529 
1 0.647059 0.823529 1 0.647059 0.823529 
1 0.647059 0.823529 1 0.647059 0.823529 
1 0.647059 0.823529 1 0.647059 0.823529 
1 0.647059 0.823529 1 0.647059 0.823529 
1 0.647059 0.823529 1 0.647059 0.823529 
1 0.647059 0.823529 1 0.647059 0.823529 
1 0.647059 0.823529 1 0.647059 0.823529 
1 0.647059 0.823529 1 0.647059 0.823529 
1 0.647059 0.823529 1 0.647059 0.823529 
1 0.647059 0.823529 1 0.647059 0.823529 
1 0.647059 0.823529 1 0.647059 0.823529 
1 0.647059 0.823529 1 0.647059 0.823529 
1 0.647059 0.823529 1 0.647059 0.823529 
1 0.647059 0.823529 1 0.647059 0.823529 
1 0.647059 0.823529 1 0.647059 0.823529 
1 0.647059 0.823529 1 0.647059 0.823529 
1 0.647059 0.823529 1 0.647059 0.823529 
1 0.647059 0.823529 1 0.647059 0.823529 
1 0.647059 0.823529 1 0.647059 0.823529 
1 0.647059 0.823529 1 0.647059 0.823529 
1 0.647059 0.823529 1 0.647059 0.823529 
1 0.647059 0.823529 1 0.647059 0.823529 
1 0.647059 0.823529 1 0.647059 0.823529 
1 0.647059 0.823529 1 0.647059 0.823529 
1 0.647059 0.823529 1 0.647059 0.823529 
1 0.647059 0.823529 1 0.647059 0.823529 
1 0.647059 0.823529 1 0.647059 0.823529 
1 0.647059 0.823529 1 0.647059 0.823529 
1 0.647059 0.823529 1 0.647059 0.823529 
1 0.647059 0.823529 1 0.647059 0.823529 
1 0.647059 0.823529 1 0.647059 0.823529 
1 0.647059 0.823529 1 0.647059 0.823529 
1 0.647059 0.823529 1 0.647059 0.823529 
1 0.647059 0.823529 1 0.647059 0.823529 
1 0.647059 0.823529 1 0.647059 0.823529 
1 0.647059 0.823529 1 0.647059 0.823529 
1 0.647059 0.823529 1 0.647059 0.823529 
1 0.647059 0.823529 1 0.647059 0.823529 
1 0.647059 0.823529 1 0.647059 0.823529 
1 0.647059 0.823529 1 0.647059 0.823529 
1 0.647059 0.823529 1 0.647059 0.823529 
1 0.647059 0.823529 1 0.647059 0.823529 
1 0.647059 0.823529 1 0.647059 0.823529 
1 0.647059 0.823529 1 0.647059 0.823529 
1 0.647059 0.823529 1 0.647059 0.823529 
1 0.647059 0.823529 1 0.647059 0.823529 
1 0.647059 0.823529 1 0.647059 0.823529 
1 0.647059 0.823529 1 0.647059 0.823529 
1 0.647059 0.823529 1 0.647059 0.823529 
1 0.647059 0.823529 1 0.647059 0.823529 
1 0.647059 0.823529 1 0.647059 0.823529 
1 0.647059 0.823529 1 0.647059 0.823529 
1 0.647059 0.823529 1 0.647059 0.823529 
1 0.647059 0.823529 1 0.647059 0.823529 
1 0.647059 0.823529 1 0.647059 0.823529 
1 0.647059 0.823529 1 0.647059 0.823529 
1 0.647059 0.823529 1 0.647059 0.823529 
1 0.647059 0.823529 1 0.647059 0.823529 
1 0.647059 0.823529 1 0.647059 0.823529 
1 0.647059 0.823529 1 0.647059 0.823529 
1 0.647059 0.823529 1 0.647059 0.823529 
1 0.647059 0.823529 1 0.647059 0.823529 
1 0.647059 0.823529 1 0.647059 0.823529 
1 0.647059 0.823529 1 0.647059 0.823529 
1 0.647059 0.823529 1 0.647059 0.823529 
1 0.647059 0.823529 1 0.647059 0.823529 
1 0.647059 0.823529 1 0.647059 0.823529 
1 0.647059 0.823529 1 0.647059 0.823529 
1 0.647059 0.823529 1 0.647059 0.823529 
1 0.647059 0.823529 1 0.647059 0.823529 
1 0.647059 0.823529 1 0.647059 0.823529 
1 0.647059 0.823529 1 0.647059 0.823529 
1 0.647059 0.823529 1 0.647059 0.823529 
1 0.647059 0.823529 1 0.647059 0.823529 
1 0.647059 0.823529 1 0.647059 0.823529 
1 0.647059 0.823529 1 0.647059 0.823529 
1 0.647059 0.823529 1 0.647059 0.823529 
1 0.647059 0.823529 1 0.647059 0.823529 
1 0.647059 0.823529 1 0.647059 0.823529 
1 0.647059 0.823529 1 0.647059 0.823529 
1 0.647059 0.823529 1 0.647059 0.823529 
1 0.647059 0.823529 1 0.647059 0.823529 
1 0.647059 0.823529 1 0.647059 0.823529 
1 0.647059 0.823529 1 0.647059 0.823529 
1 0.647059 0.823529 1 0.647059 0.823529 
1 0.647059 0.823529 1 0.647059 0.823529 
1 0.647059 0.823529 1 0.647059 0.823529 
1 0.647059 0.823529 1 0.647059 0.823529 
1 0.647059 0.823529 1 0.647059 0.823529 
1 0.647059 0.823529 1 0.647059 0.823529 
1 0.647059 0.823529 1 0.647059 0.823529 
1 0.647059 0.823529 1 0.647059 0.823529 
1 0.647059 0.823529 1 0.647059 0.823529 
1 0.647059 0.823529 1 0.647059 0.823529 
1 0.647059 0.823529 1 0.647059 0.823529 
1 0.647059 0.823529 1 0.647059 0.823529 
1 0.647059 0.823529 1 0.647059 0.823529 
1 0.647059 0.823529 1 0.647059 0.823529 
1 0.647059 0.823529 1 0.647059 0.823529 
1 0.647059 0.823529 1 0.647059 0.823529 
1 0.647059 0.823529 1 0.647059 0.823529 
1 0.647059 0.823529 1 0.647059 0.823529 
1 0.647059 0.823529 1 0.647059 0.823529 
1 0.647059 0.823529 1 0.647059 0.823529 
1 0.647059 0.823529 1 0.647059 0.823529 
1 0.647059 0.823529 1 0.647059 0.823529 
1 0.647059 0.823529 1 0.647059 0.823529 
1 0.647059 0.823529 1 0.647059 0.823529 
1 0.647059 0.823529 1 0.647059 0.823529 
1 0.647059 0.823529 1 0.647059 0.823529 
1 0.647059 0.823529 1 0.647059 0.823529 
1 0.647059 0.823529 1 0.647059 0.823529 
1 0.647059 0.823529 1 0.647059 0.823529 
1 0.647059 0.823529 1 0.647059 0.823529 
1 0.647059 0.823529 1 0.647059 0.823529 
1 0.647059 0.823529 1 0.647059 0.823529 
1 0.647059 0.823529 1 0.647059 0.823529 
1 0.647059 0.823529 1 0.647059 0.823529 
1 0.647059 0.823529 1 0.647059 0.823529 
1 0.647059 0.823529 1 0.647059 0.823529 
1 0.647059 0.823529 1 0.647059 0.823529 
1 0.647059 0.823529 1 0.647059 0.823529 
1 0.647059 0.823529 1 0.647059 0.823529 
1 0.647059 0.823529 1 0.647059 0.823529 
1 0.647059 0.823529 1 0.647059 0.823529 
1 0.647059 0.823529 1 0.647059 0.823529 
1 0.647059 0.823529 1 0.647059 0.823529 
1 0.647059 0.823529 1 0.647059 0.823529 
1 0.647059 0.823529 1 0.647059 0.823529 
1 0.647059 0.823529 1 0.647059 0.823529 
1 0.647059 0.823529 1 0.647059 0.823529 
1 0.647059 0.823529 1 0.647059 0.823529 
1 0.647059 0.823529 1 0.647059 0.823529 
1 0.647059 0.823529 1 0.647059 0.823529 
1 0.647059 0.823529 1 0.647059 0.823529 
1 0.647059 0.823529 1 0.647059 0.823529 
1 0.647059 0.823529 1 0.647059 0.823529 
1 0.647059 0.823529 1 0.647059 0.823529 
1 0.647059 0.823529 1 0.647059 0.823529 
1 0.647059 0.823529 1 0.647059 0.823529 
1 0.647059 0.823529 1 0.647059 0.823529 
1 0.647059 0.823529 1 0.647059 0.823529 
1 0.647059 0.823529 1 0.647059 0.823529 
1 0.647059 0.823529 1 0.647059 0.823529 
1 0.647059 0.823529 1 0.647059 0.823529 
1 0.647059 0.823529 1 0.647059 0.823529 
1 0.647059 0.823529 1 0.647059 0.823529 
1 0.647059 0.823529 1 0.647059 0.823529 
1 0.647059 0.823529 1 0.647059 0.823529 
1 0.647059 0.823529 1 0.647059 0.823529 
1 0.647059 0.823529 1 0.647059 0.823529 
1 0.647059 0.823529 1 0.647059 0.823529 
1 0.647059 0.823529 1 0.647059 0.823529 
1 0.647059 0.823529 1 0.647059 0.823529 
1 0.647059 0.823529 1 0.647059 0.823529 
1 0.647059 0.823529 1 0.647059 0.823529 
1 0.647059 0.823529 1 0.647059 0.823529 
1 0.647059 0.823529 1 0.647059 0.823529 
1 0.647059 0.823529 1 0.647059 0.823529 
1 0.647059 0.823529 1 0.647059 0.823529 
1 0.647059 0.823529 1 0.647059 0.823529 
1 0.647059 0.823529 1 0.647059 0.823529 
1 0.647059 0.823529 1 0.647059 0.823529 
1 0.647059 0.823529 1 0.647059 0.823529 
1 0.647059 0.823529 1 0.647059 0.823529 
1 0.647059 0.823529 1 0.647059 0.823529 
1 0.647059 0.823529 1 0.647059 0.823529 
1 0.647059 0.823529 1 0.647059 0.823529 
1 0.647059 0.823529 1 0.647059 0.823529 
1 0.647059 0.823529 1 0.647059 0.823529 
1 0.647059 0.823529 1 0.647059 0.823529 
1 0.647059 0.823529 1 0.647059 0.823529 
1 0.647059 0.823529 1 0.647059 0.823529 
1 0.647059 0.823529 1 0.647059 0.823529 
1 0.647059 0.823529 1 0.647059 0.823529 
1 0.647059 0.823529 1 0.647059 0.823529 
1 0.647059 0.823529 1 0.647059 0.823529 
1 0.647059 0.823529 1 0.647059 0.823529 
1 0.647059 0.823529 1 0.647059 0.823529 
1 0.647059 0.823529 1 0.647059 0.823529 
1 0.647059 0.823529 
NORMALS Normals float
-0.339533 -0.776871 -0.530273 -0.112107 -0.568343 -0.815119 0.0494171 -0.506916 -0.860578 
-0.0918857 -0.818639 -0.566911 0.145061 -0.560344 -0.815458 -0.560991 -0.741099 -0.368866 
-0.511929 -0.398116 -0.761204 -0.271871 -0.247543 -0.929951 0.241005 -0.696682 -0.675685 
0.315299 -0.77243 -0.551306 -0.792142 -0.0901293 -0.603645 -0.0471916 -0.119111 -0.991759 
0.0348773 0.0112128 -0.999329 0.158551 -0.238071 -0.958219 -0.642598 0.199076 -0.739889 
-0.787685 0.513038 -0.341093 -0.40699 0.269328 -0.872824 -0.220738 0.221356 -0.949882 
0.161003 -0.224046 -0.961188 0.277473 -0.287461 -0.91672 -0.552647 0.512037 -0.657571 
0.244415 -0.0801773 -0.96635 0.314794 -0.314695 -0.895473 -0.633361 -0.770962 -0.0668628 
-0.216452 -0.947088 -0.237009 0.0399425 -0.861154 -0.506772 0.163962 -0.905893 -0.390479 
-0.795339 -0.568467 0.210433 -0.84094 -0.507231 -0.188512 -0.979413 0.0846331 -0.183267 
0.392016 -0.765251 -0.510602 -0.196716 0.425908 -0.883122 -0.0703857 0.307263 -0.949018 
0.0636748 0.262565 -0.962811 0.160041 -0.0241134 -0.986816 0.375177 -0.695274 -0.613054 
-0.487074 0.618525 -0.616592 0.0725425 0.403563 -0.912072 -0.468802 0.68773 -0.554303 
-0.184477 0.613026 -0.768223 0.0402962 0.204537 -0.978029 0.354815 -0.0183609 -0.934756 
-0.548987 -0.834223 -0.051812 -0.505408 -0.834288 0.220288 -0.289105 -0.956837 0.0296876 
-0.0724855 -0.993464 -0.0881776 -0.669205 -0.599436 0.439136 -0.0144892 -0.999888 0.00380528 
0.290682 -0.925763 -0.241802 -0.984407 -0.0291434 0.173477 -0.923065 -0.155784 0.351684 
0.336982 -0.923955 -0.180971 -0.887771 0.458954 -0.0349772 0.480651 -0.740546 -0.469645 
0.615113 -0.703205 -0.356564 -0.725534 0.671378 -0.151165 0.5528 -0.643982 -0.528866 
-0.583776 0.755942 -0.296238 0.446899 -0.126005 -0.885666 -0.520533 0.731692 -0.440082 
0.446904 0.0970867 -0.889298 0.682797 0.013057 -0.730492 0.127056 0.237787 -0.962971 
0.326673 0.37662 -0.866858 -0.432974 -0.737347 0.51851 -0.151115 -0.898061 0.4131 
0.288625 -0.956175 -0.0492383 -0.947889 -0.206474 0.242641 -0.872046 0.402107 0.279007 
0.436133 -0.87495 -0.210359 0.60761 -0.542927 -0.57969 0.697557 -0.340071 -0.630687 
-0.031449 0.53757 -0.842633 0.968004 -0.082233 -0.23708 -0.225176 0.611576 -0.758466 
-0.435655 0.759136 -0.483649 0.658534 0.309819 -0.685817 0.768957 0.140952 -0.623568 
-0.430496 -0.754346 0.495617 -0.0834415 -0.986627 0.14002 0.0189174 -0.890867 -0.45387 
-0.813584 -0.476171 0.333679 0.374869 -0.925517 0.0537718 -0.869632 0.096957 0.484086 
0.623487 -0.745739 -0.234815 -0.804433 0.527259 0.273652 0.761134 -0.648551 -0.00750152 
0.931222 -0.305157 -0.19926 -0.487683 0.791692 -0.367954 -0.147248 0.707344 -0.691363 
-0.462663 0.77829 -0.424509 -0.161576 0.744136 -0.648193 0.889774 0.231023 -0.393613 
0.587596 0.482814 -0.649324 0.23133 0.704005 -0.671464 -0.802663 -0.330342 0.496595 
-0.438768 -0.578336 0.687758 0.352462 -0.935719 -0.0141811 -0.87913 0.123179 0.460389 
-0.843965 0.185184 0.503418 -0.611928 0.780353 -0.128813 0.945788 -0.199704 -0.25613 
-0.391395 0.87599 -0.281871 -0.508846 0.796188 -0.327354 0.820517 0.412987 -0.395213 
-0.785317 -0.149139 0.600862 -0.167607 -0.901338 0.399373 0.154366 -0.947357 0.280512 
-0.741777 -0.238882 0.62666 -0.724079 -0.191028 0.662736 0.385825 -0.922473 -0.0135068 
-0.766699 0.209497 0.606864 -0.804685 0.292033 0.516913 0.545021 -0.838289 -0.0149273 
-0.73936 0.671932 0.0430612 -0.515061 0.855629 0.0511044 0.856421 0.374062 -0.355838 
-0.495626 -0.617587 0.610689 0.865972 -0.498498 0.0398975 -0.841148 0.456958 0.289239 
-0.661024 0.727026 0.185688 0.988627 -0.149009 -0.0203339 -0.479358 0.824199 -0.301516 
-0.780819 -0.0303552 0.624019 0.718988 -0.678371 0.151225 -0.821937 0.347049 0.451638 
-0.114937 0.758399 -0.641577 0.330375 -0.931008 0.155164 -0.812784 0.12507 0.568981 
-0.395844 0.760258 -0.515087 0.727734 0.519563 -0.447724 0.123489 -0.934691 0.333322 
-0.737412 -0.285211 0.612273 -0.685586 -0.406168 0.604151 -0.610362 -0.45514 0.64831 
0.285578 -0.870304 0.401269 -0.778068 0.0538134 0.625871 -0.746548 0.662024 -0.0662614 
0.970026 0.167218 -0.176318 -0.0156373 0.784236 -0.620265 -0.394317 -0.697289 0.598583 
-0.253513 -0.491865 0.832946 -0.178832 -0.730572 0.659002 -0.690327 -0.0314848 0.722812 
-0.858467 0.245189 0.450463 -0.886353 0.428845 0.174558 -0.400973 0.778079 -0.483544 
-0.217007 0.832275 -0.510123 -0.508428 -0.311132 0.802931 -0.169316 0.82433 -0.540197 
0.267741 0.772558 -0.575734 0.0893701 0.863807 -0.495833 -0.819595 -0.131334 0.557688 
-0.86438 0.118064 0.488782 -0.591273 0.769698 -0.240752 -0.246584 0.914282 -0.32138 
0.073713 0.898589 -0.432554 -0.821643 0.00413206 0.569988 -0.766411 0.618044 0.175031 
0.952749 0.154078 -0.261782 -0.386165 0.920516 -0.0593892 0.840135 0.399372 -0.36698 
-0.114941 -0.782413 0.61206 0.545699 -0.778445 0.310219 0.888859 -0.432207 0.152075 
-0.80735 0.0541167 0.587586 -0.435954 0.899778 0.018558 -0.053771 0.939354 -0.338708 
-0.43575 0.892355 -0.11758 0.511222 0.742309 -0.433162 -0.632832 -0.297681 0.714779 
0.828318 -0.546675 0.122622 0.701649 -0.596536 0.389658 -0.72868 0.674147 0.120626 
0.0810021 0.97909 -0.186603 -0.00740927 -0.749498 0.661965 -0.431474 -0.443423 0.785625 
0.789822 -0.48833 0.371099 0.839583 -0.361272 0.405688 0.970288 -0.180444 0.161184 
-0.860777 0.286686 0.420564 0.956169 -0.180634 0.230461 -0.591971 0.802539 0.0741733 
0.89612 0.443796 -0.0037916 0.711816 0.70206 0.0207311 -0.472063 -0.39361 0.788814 
-0.199379 -0.525505 0.827099 0.255628 -0.700145 0.666672 0.608894 -0.614186 0.50202 
-0.778816 -0.0901742 0.620737 -0.514508 -0.191336 0.835866 -0.770011 0.11311 0.627925 
0.980994 0.112125 0.158364 -0.686315 0.690972 0.227 -0.364636 0.930643 0.0307191 
-0.00973824 0.996652 0.0811805 0.458891 -0.600137 0.655175 0.195445 -0.577167 0.792893 
0.603083 -0.511303 0.612259 0.918061 -0.123635 0.376668 0.917524 0.283249 0.279141 
-0.554316 0.784565 0.277833 0.89193 0.322019 0.317433 0.395934 0.910421 0.119877 
0.25366 -0.548833 0.796517 -0.254708 -0.410494 0.875568 0.767103 -0.400537 0.501121 
-0.382474 -0.0842318 0.920119 0.885421 -0.2399 0.398093 -0.584739 -0.00060174 0.811221 
0.858765 -0.0270101 0.511657 -0.673098 0.362374 0.644689 -0.679549 0.537714 0.499076 
-0.653282 0.57606 0.491303 -0.441078 0.648585 0.620313 0.820182 0.504648 0.269503 
-0.225038 0.917398 0.328236 0.340699 0.893235 0.293351 -0.0816424 -0.376725 0.92272 
-0.0535649 -0.258764 0.964454 0.285962 -0.453207 0.844292 0.627064 -0.285577 0.724732 
-0.325609 -0.0375691 0.944758 0.827404 -0.151482 0.540792 -0.284617 0.0443748 0.957614 
-0.554027 0.193911 0.8096 0.798147 0.0849295 0.596446 -0.503127 0.333646 0.79721 
-0.425863 0.347119 0.835553 -0.280992 0.385198 0.879015 -0.517448 0.57907 0.630021 
0.819481 0.260258 0.510604 -0.228348 0.570184 0.789143 0.133415 0.798291 0.587309 
0.491704 0.29199 0.820347 0.588814 0.628469 0.508257 0.146768 -0.120533 0.9818 
0.699834 -0.0466863 0.712778 -0.220486 0.118537 0.968161 -0.00232683 0.0329921 0.999453 
0.291818 0.0773711 0.953339 -0.135263 0.203501 0.969686 0.0399566 0.177383 0.98333 
0.186051 0.240432 0.952668 -0.0973396 -0.182964 -0.978289 -0.0718192 -0.198688 -0.977428 
0.162019 -0.329685 -0.930085 0.526057 -0.339709 -0.779655 -0.223658 -0.045776 -0.973592 
0.0984172 -0.0759376 -0.992244 0.449732 -0.0290625 -0.892691 0.402046 -0.128999 -0.906487 
0.780039 -0.220473 -0.585603 -0.28153 0.236359 -0.929987 0.105764 0.235329 -0.966144 
0.359508 0.228501 -0.904733 -0.242225 0.347181 -0.905976 0.792071 0.0309362 -0.609645 
0.593885 0.149845 -0.790472 0.182127 0.418698 -0.889675 0.661938 0.189938 -0.725094 
0.644384 0.343373 -0.683275 0.539637 -0.426267 -0.726009 0.430485 -0.469257 -0.771025 
0.821553 -0.2662 -0.504171 -0.515622 -0.0575618 -0.85488 -0.664712 0.211615 -0.716504 
-0.547088 0.350321 -0.760243 -0.400512 0.492828 -0.772471 -0.476939 0.69474 -0.538391 
0.844308 0.173033 -0.507152 -0.180361 0.752425 -0.633504 0.375921 0.746026 -0.549662 
0.513001 0.497677 -0.699391 0.685259 0.55833 -0.467641 -0.0551185 -0.700319 -0.711699 
0.0413126 -0.556283 -0.829965 0.374091 -0.700988 -0.607184 -0.385383 -0.185218 -0.903977 
0.69184 -0.378423 -0.614942 -0.417736 0.826707 -0.376899 0.128974 0.93485 -0.330789 
0.855544 0.368442 -0.363722 0.475261 0.841835 -0.255813 0.619822 0.748275 -0.236442 
-0.404479 -0.393807 -0.825417 0.318326 -0.705608 -0.633076 0.726607 -0.471406 -0.499818 
0.83246 -0.415153 -0.366959 0.97506 -0.0113944 -0.22165 -0.646116 0.506144 -0.571273 
-0.51579 0.838586 -0.175314 -0.270731 0.941736 -0.199593 -0.217541 0.975819 -0.0213077 
-0.634209 -0.125809 -0.762857 -0.711404 0.13084 -0.690496 -0.691523 0.663925 -0.284604 
0.955595 0.273166 -0.110537 -0.499149 0.866237 0.0219874 0.736723 0.675077 -0.0388714 
0.203883 -0.768371 -0.606661 -0.579061 -0.388107 -0.716981 0.40438 -0.741165 -0.535864 
-0.833623 0.431528 -0.344755 0.869345 0.47378 0.140616 -0.82824 0.474665 -0.297844 
-0.501749 0.844257 0.188356 -0.433231 0.875928 0.212278 -0.281932 0.927961 0.243727 
-0.124136 0.925195 0.358616 0.190813 0.981604 0.00656318 0.0124564 -0.773927 -0.633152 
-0.416263 -0.473048 -0.776499 0.772091 -0.576224 -0.268034 -0.792831 0.585278 -0.169906 
-0.720031 0.689115 -0.0817056 -0.170777 0.888167 0.426608 0.3529 0.853852 0.38262 
-0.393457 -0.654726 -0.645387 0.431245 -0.857531 -0.280477 -0.1115 -0.7137 -0.69152 
-0.0550892 -0.808947 -0.585295 -0.813411 0.087096 -0.575131 -0.675305 0.737426 -0.0129119 
0.646507 0.614828 0.45168 0.0543466 0.869308 0.491274 0.284892 -0.829306 -0.480716 
-0.666773 -0.294217 -0.684727 -0.674064 0.113712 -0.729868 0.306031 0.745103 0.592594 
-0.202584 -0.817792 -0.538679 -0.478749 -0.598617 -0.642228 -0.725032 0.151505 -0.671845 
0.996504 -0.0580784 0.0600608 0.939369 0.288252 0.185734 -0.439719 0.878344 0.187506 
-0.315239 0.861733 0.397543 0.327636 0.739256 0.58835 0.0194137 -0.930064 -0.366884 
0.348465 -0.903867 -0.248186 -0.629887 -0.477239 -0.612769 -0.708091 -0.261964 -0.65573 
-0.755806 -0.133288 -0.641086 -0.749185 0.213049 -0.627162 0.790374 -0.604552 -0.0991274 
-0.613139 0.750822 0.245613 -0.387008 -0.725646 -0.568914 -0.772836 0.634397 -0.0162905 