# vtk DataFile Version 4.2
vtk output
ASCII
DATASET POLYDATA
POINTS 1228 float
222.438 188.58 56.4371 224.027 189.264 56.4488 222.169 190.423 55.7603 
225.639 190.168 56.5895 222.896 191.195 55.7066 223.33 190.933 55.7213 
226.236 191.241 56.2769 226.016 191.909 56.0367 225.101 192.476 55.8562 
225.445 192.863 55.955 225.825 192.564 55.9497 226.74 192.587 56.1304 
228.146 192.942 56.4848 228.183 192.644 56.5944 228.428 192.92 56.6573 
225.92 193.06 56.0434 226.242 193.374 56.2261 227.362 193.196 56.3085 
227.715 193.656 56.6146 227.986 193.62 56.5102 227.92 193.479 56.4572 
228.236 193.475 56.6506 228.09 193.581 56.5193 220.021 186.972 57.072 
220.171 186.632 57.3724 219.892 188.355 56.4335 220.649 190.152 56.0653 
225.107 189.582 56.7757 220.572 190.706 56.1168 226.253 190.272 56.9027 
226.937 191.016 56.7105 222.986 191.778 55.818 228.684 193.04 56.9117 
228.892 192.846 57.196 222.944 193.03 56.3489 223.303 193.406 56.5602 
225.526 193.302 56.2002 228.626 193.353 56.9978 225.115 194.07 56.974 
225.356 193.767 56.6128 226.284 193.771 56.6016 228.348 193.728 57.1888 
228.103 193.64 56.6518 228.924 193.438 57.4971 226.799 194.142 57.129 
215.938 185.777 58.0211 218.039 185.855 57.8555 218.948 185.705 58.1074 
216.199 186.804 57.5544 218.113 186.513 57.4024 220.557 186.565 57.5877 
216.213 187.421 57.3971 218.285 190.009 56.776 217.748 191.307 57.2419 
220.898 191.827 56.3406 229.369 193.203 58.0334 221.283 194.152 57.7524 
223.422 193.877 57.0487 229.117 193.666 58.0913 225.936 194.484 57.7606 
222.425 187.121 57.9303 215.502 189.606 57.7068 229.656 192.644 58.608 
229.827 193.187 58.7056 220.562 194.074 57.896 229.664 193.671 58.8384 
221.689 194.852 58.5776 212.047 182.533 60.5476 211.201 183.798 59.8479 
213.827 183.49 59.7865 211.081 184.649 59.557 212.803 184.278 59.3505 
212.6 185.169 59.0297 213.364 190.186 58.772 213.781 192.128 59.2126 
229.763 192.074 59.252 215.756 193.396 59.0367 230 193.522 59.1056 
230.153 193.449 59.4022 228.711 194.31 59.6 229.623 193.854 59.3669 
216.409 194.687 59.918 224.542 194.849 58.8556 210.446 181.856 61.2742 
211.044 181.764 61.3876 209.914 182.796 60.5858 212.858 182.471 60.6428 
209.49 184.806 60.0388 223.838 187.199 59.2349 226.86 188.79 60.0301 
212.651 192.985 60.3213 230.184 193.479 59.7163 214.194 194.059 60.4131 
221.998 195.094 59.2408 217.097 195.098 60.3607 207.959 182.498 61.3652 
207.435 184.787 60.9737 209.045 186.895 60.25 229.609 191.051 60.3526 
230.384 192.071 60.5697 230.677 192.798 61.1779 230.666 192.546 61.0732 
230.765 192.643 61.5222 230.285 193.357 60.1391 213.928 194.736 61.6076 
214.93 194.926 61.5286 214.331 194.919 61.6508 216.946 195.293 61.2806 
214.147 194.915 61.7277 206.152 185.602 61.6328 230.454 191.5 61.6687 
230.737 191.956 61.7907 230.331 193.289 62.2755 230.733 192.853 62.4568 
210.987 194.211 62.4831 205.991 179.785 63.4861 208.201 180.276 63.2775 
206.641 192.496 63.2886 230.943 192.491 63.0689 230.14 193.314 63.18 
209.621 194.026 62.9706 213.134 195.018 63.4895 219.892 195.357 62.8352 
209.296 194.394 63.559 201.863 178.889 64.643 202.411 180.186 63.9303 
209.54 179.973 64.2681 226.218 187.369 63.649 228.914 189.285 63.1608 
204.416 191.186 63.8345 230.982 191.992 63.6298 231.054 192.394 63.6475 
230.972 192.616 63.5369 231.035 192.517 63.857 230.85 192.703 63.8341 
227.07 194.375 63.5473 209.508 194.496 63.726 200.062 178.044 65.6494 
201.58 177.741 65.5103 199.872 178.812 65.3564 208.001 179.21 65.0176 
226.327 187.432 64.2156 227.845 188.529 64.2644 229.33 189.589 63.8043 
230.135 190.384 63.6783 230.933 191.959 64.4855 230.955 192.506 64.1146 
229.821 192.99 64.6342 215.777 195.185 65.2047 201.849 176.636 66.7775 
207.98 178.867 65.8466 223.251 185.474 64.6765 226.734 187.85 64.8714 
229.934 190.287 64.2795 229.643 190.212 64.713 230.623 191.236 64.4519 
230.903 191.788 64.7958 230.937 191.879 64.8012 230.883 191.82 64.8978 
230.906 192.331 64.3732 230.66 192.218 64.7432 230.781 191.914 64.8862 
201.148 192.857 66.6531 199.203 175.696 67.9651 201.736 176.345 67.2152 
215.262 181.466 66.2084 216.927 182.364 66.3904 196.272 184.218 66.5975 
226.506 188.26 65.8708 226.398 189.194 66.8797 227.414 189.043 65.8792 
228.132 189.167 65.2529 227.547 189.74 66.4088 228.771 191.409 66.2716 
229.661 191.309 65.6092 230.214 191.38 65.1978 230.665 191.664 64.9643 
198.438 192.696 67.7862 227.105 192.986 66.3414 202.004 193.872 67.8488 
207.914 194.825 66.8045 220.694 194.511 66.7595 201.351 175.883 68.1557 
202.072 175.973 68.2568 215.272 181.517 66.9882 219.262 183.713 66.7669 
222.134 186.246 67.5003 195.308 187.994 67.5029 223.16 187.634 67.8659 
226.563 189.829 67.0727 227.349 192.326 66.746 198.666 193.614 69.0321 
199.236 193.865 69.0089 203.182 194.217 68.5276 199.355 193.88 68.8522 
194.877 173.963 69.8571 202.63 176.028 68.5328 203.451 176.066 69.4129 
213.605 180.972 68.1102 215.626 181.865 67.7583 222.987 191.56 68.7318 
195.898 193.045 70.044 223.296 192.997 67.8385 226.004 194.013 69.0087 
226.004 194.013 69.0087 226.004 194.013 69.0087 226.004 194.013 69.0088 
200.371 194.13 69.7258 219.974 193.949 68.1385 226.004 194.013 69.0088 
193.039 173.917 70.3734 191.656 175.385 69.9329 203.628 176.021 69.9964 
210.461 179.334 69.513 214.945 182.113 69.0575 215.278 182.588 69.3614 
217.534 186.631 70.1695 192.568 190.163 70.0046 219.362 189.525 70.0744 
221.493 191.962 69.2726 221.649 192.339 69.0835 222.825 192.018 68.6675 
226.004 194.013 69.0088 220.403 193.445 68.6395 191.084 172.906 71.9933 
189.603 176.045 70.8516 204.056 176.142 70.383 211.015 179.836 70.1532 
211.409 180.221 70.3103 188.619 180.481 71.117 212.997 181.913 70.529 
215.37 183.064 69.6853 216.208 185.877 70.5421 215.85 189.101 71.4023 
217.023 191.157 70.9601 217.065 191.785 70.843 192.264 192.089 72.0452 
219.14 192.403 69.8186 193.381 192.498 71.5657 194.238 192.882 71.7018 
193.678 192.757 71.7033 219.813 192.975 69.2617 193.508 192.718 71.7475 
192.568 172.484 72.4086 189.695 173.303 72.1599 206.892 177.539 71.2787 
207.344 177.802 71.3127 210.901 180.873 71.4875 211.643 183.329 72.136 
216.814 192.288 70.7536 192.802 192.594 72.8238 215.315 192.945 70.837 
214.695 192.671 71.3455 218.224 193.363 69.6846 209.15 194.127 71.4137 
211.023 193.984 71.1728 187.572 173.51 73.052 198.392 173.476 72.6945 
204.676 176.463 71.8689 204.144 176.233 72.0479 204.758 176.664 72.4005 
208.391 178.878 71.8196 209.095 180.43 72.5249 186.761 185.31 73.0734 
189.718 190.349 73.1781 190.51 191.09 73.1154 214.264 191.377 72.0717 
192.896 192.685 73.3605 193.201 192.772 73.7043 213.155 193.062 71.6841 
209.719 193.738 72.066 194.982 172.377 73.9291 196.684 172.869 73.6415 
198.781 173.561 73.1864 187.836 189.396 74.798 195.79 193.324 73.8463 
200.599 193.892 73.8659 207.931 193.295 73.5324 209.65 192.776 73.2998 
186.219 170.607 76.1897 199.99 174.218 74.3475 203.329 176.22 73.597 
205.133 177.481 73.394 204.389 178.631 74.9505 205.535 181.197 75.0558 
205.796 184.482 75.479 185.299 186.582 74.8748 185.761 186.298 74.2903 
187.753 189.575 75.5939 210.385 191.376 73.7403 194.066 192.777 75.0581 
205.618 193.699 73.6848 207.015 193.03 74.3764 207.146 192.88 74.5083 
184.503 171.324 75.8895 183.21 173.1 75.6092 197.316 173.053 75.18 
182.967 176.731 75.2346 182.647 183.901 75.9963 184.24 186.367 75.7867 
185.509 188.485 76.9076 186.607 189.093 76.7086 187.646 189.644 76.3098 
202.422 193.269 75.6176 182.927 169.292 78.2537 180.547 180.41 76.8821 
182.173 184.736 76.7331 182.085 185.803 77.5779 182.769 186.739 77.9074 
184.399 188.135 78.0693 184.818 188.287 77.6594 184.632 188.277 77.9078 
185.004 190.013 77.0087 185.004 190.013 77.0087 185.004 190.013 77.0087 
185.004 190.013 77.0088 185.004 190.013 77.0088 188.871 190.177 77.217 
202.186 192.82 76.1166 179.927 169.603 78.5196 182.569 168.87 78.785 
184.355 169.152 78.5766 185.058 169.181 78.6638 180.026 172.878 77.3833 
198.697 174.101 76.4318 179.939 173.844 77.2945 180.076 181.779 77.3858 
181.405 185.354 77.9767 183.034 187.258 78.8037 186.361 189.056 77.8365 
184.636 188.31 78.1635 185.004 190.013 77.0088 191.711 191.354 77.7369 
198.649 192.473 77.2206 185.509 169.137 78.9659 186.167 169.259 79.1143 
192.293 171.221 78.6849 177.914 183 79.4263 178.154 183.609 79.6339 
179.557 184.859 79.6243 184.819 188.371 78.4325 194.019 191.615 78.9849 
194.442 191.728 78.6885 195.352 191.857 78.4075 198.14 192.018 77.8955 
200.699 192.084 77.329 178.121 166.721 81.2976 176.445 169.424 79.9202 
186.408 169.017 80.3658 192.82 171.592 79.4168 178.053 184.217 80.6124 
186.953 188.969 79.5158 193.161 191.514 78.7165 194.232 191.512 79.2374 
175.939 166.338 81.9593 176.49 166.743 81.4662 193.13 172.146 80.2454 
174.126 173.128 80.5629 195.07 173.301 79.5087 179.589 185.26 80.9047 
194.002 190.507 80.4107 196.017 190.563 80.0617 197.525 190.239 79.7292 
194.311 191.296 79.5887 175.724 165.594 82.9724 176.3 165.541 82.9734 
178.346 166.009 82.529 174.163 167.364 81.7346 187.234 169.207 81.7929 
189.947 170.535 81.3604 193.098 172.464 80.7328 193.089 173.511 81.5751 
171.721 175.434 81.9507 172.319 177.075 81.6243 172.546 179.846 82.0332 
172.467 181.28 83.2394 194.524 187.276 81.8267 185.737 187.742 82.1514 
191.225 188.822 81.6801 194.556 188.794 81.4411 192.793 189.916 80.7664 
176.686 165.413 83.2598 181.806 166.806 82.8897 191.606 171.892 81.6551 
170.377 173.291 82.8481 173.76 182.464 83.9644 191.916 187.937 82.3682 
194.415 189.285 81.2575 190.551 172.15 82.9859 169.727 178.768 84.1337 
191.21 186.551 83.4718 187.256 187.461 83.471 189.023 187.896 82.8753 
169.227 164.459 85.8618 176.187 164.778 85.1563 169.923 166.048 84.5073 
183.73 167.413 84.2396 185.492 168.398 84.0023 189.196 173.159 84.7049 
168.955 179.23 85.4806 168.531 179.209 86.0311 169.803 180.231 85.9561 
171.438 181.228 85.7019 183.816 185.942 84.4307 189.561 187.15 83.6314 
169.638 163.425 87.1145 176.045 164.534 86.0494 166.984 166.862 85.5761 
186.713 169.944 85.2378 169.133 179.905 86.8118 184.82 185.704 85.1995 
[...]
POINT_DATA 1228
COLOR_SCALARS scalars 3
0 0.611765 0.458824 0 0.611765 0.458824 0 0.611765 0.458824 
0 0.611765 0.458824 0 0.611765 0.458824 
0 0.611765 0.458824 0 0.611765 0.458824 
0 0.611765 0.458824 0 0.611765 0.458824 
0 0.611765 0.458824 0 0.611765 0.458824 
0 0.611765 0.458824 0 0.611765 0.458824 
0 0.611765 0.458824 0 0.611765 0.458824 
0 0.611765 0.458824 0 0.611765 0.458824 
0 0.611765 0.458824 0 0.611765 0.458824 
0 0.611765 0.458824 0 0.611765 0.458824 
0 0.611765 0.458824 0 0.611765 0.458824 
0 0.611765 0.458824 0 0.611765 0.458824 
0 0.611765 0.458824 0 0.611765 0.458824 
0 0.611765 0.458824 0 0.611765 0.458824 
0 0.611765 0.458824 0 0.611765 0.458824 
0 0.611765 0.458824 0 0.611765 0.458824 
0 0.611765 0.458824 0 0.611765 0.458824 
0 0.611765 0.458824 0 0.611765 0.458824 
0 0.611765 0.458824 0 0.611765 0.458824 
0 0.611765 0.458824 0 0.611765 0.458824 
0 0.611765 0.458824 0 0.611765 0.458824 
0 0.611765 0.458824 0 0.611765 0.458824 
0 0.611765 0.458824 0 0.611765 0.458824 
0 0.611765 0.458824 0 0.611765 0.458824 
0 0.611765 0.458824 0 0.611765 0.458824 
0 0.611765 0.458824 0 0.611765 0.458824 
0 0.611765 0.458824 0 0.611765 0.458824 
0 0.611765 0.458824 0 0.611765 0.458824 
0 0.611765 0.458824 0 0.611765 0.458824 
0 0.611765 0.458824 0 0.611765 0.458824 
0 0.611765 0.458824 0 0.611765 0.458824 
0 0.611765 0.458824 0 0.611765 0.458824 
0 0.611765 0.458824 0 0.611765 0.458824 
0 0.611765 0.458824 0 0.611765 0.458824 
0 0.611765 0.458824 0 0.611765 0.458824 
0 0.611765 0.458824 0 0.611765 0.458824 
0 0.611765 0.458824 0 0.611765 0.458824 
0 0.611765 0.458824 0 0.611765 0.458824 
0 0.611765 0.458824 0 0.611765 0.458824 
0 0.611765 0.458824 0 0.611765 0.458824 
0 0.611765 0.458824 0 0.611765 0.458824 
0 0.611765 0.458824 0 0.611765 0.458824 
0 0.611765 0.458824 0 0.611765 0.458824 
0 0.611765 0.458824 0 0.611765 0.458824 
0 0.611765 0.458824 0 0.611765 0.458824 
0 0.611765 0.458824 0 0.611765 0.458824 
0 0.611765 0.458824 0 0.611765 0.458824 
0 0.611765 0.458824 0 0.611765 0.458824 
0 0.611765 0.458824 0 0.611765 0.458824 
0 0.611765 0.458824 0 0.611765 0.458824 
0 0.611765 0.458824 0 0.611765 0.458824 
0 0.611765 0.458824 0 0.611765 0.458824 
0 0.611765 0.458824 0 0.611765 0.458824 
0 0.611765 0.458824 0 0.611765 0.458824 
0 0.611765 0.458824 0 0.611765 0.458824 
0 0.611765 0.458824 0 0.611765 0.458824 
0 0.611765 0.458824 0 0.611765 0.458824 
0 0.611765 0.458824 0 0.611765 0.458824 
0 0.611765 0.458824 0 0.611765 0.458824 
0 0.611765 0.458824 0 0.611765 0.458824 
0 0.611765 0.458824 0 0.611765 0.458824 
0 0.611765 0.458824 0 0.611765 0.458824 
0 0.611765 0.458824 0 0.611765 0.458824 
0 0.611765 0.458824 0 0.611765 0.458824 
0 0.611765 0.458824 0 0.611765 0.458824 
0 0.611765 0.458824 0 0.611765 0.458824 
0 0.611765 0.458824 0 0.611765 0.458824 
0 0.611765 0.458824 0 0.611765 0.458824 
0 0.611765 0.458824 0 0.611765 0.458824 
0 0.611765 0.458824 0 0.611765 0.458824 
0 0.611765 0.458824 0 0.611765 0.458824 
0 0.611765 0.458824 0 0.611765 0.458824 
0 0.611765 0.458824 0 0.611765 0.458824 
0 0.611765 0.458824 0 0.611765 0.458824 
0 0.611765 0.458824 0 0.611765 0.458824 
0 0.611765 0.458824 0 0.611765 0.458824 
0 0.611765 0.458824 0 0.611765 0.458824 
0 0.611765 0.458824 0 0.611765 0.458824 
0 0.611765 0.458824 0 0.611765 0.458824 
0 0.611765 0.458824 0 0.611765 0.458824 
0 0.611765 0.458824 0 0.611765 0.458824 
0 0.611765 0.458824 0 0.611765 0.458824 
0 0.611765 0.458824 0 0.611765 0.458824 
0 0.611765 0.458824 0 0.611765 0.458824 
0 0.611765 0.458824 0 0.611765 0.458824 
0 0.611765 0.458824 0 0.611765 0.458824 
0 0.611765 0.458824 0 0.611765 0.458824 
0 0.611765 0.458824 0 0.611765 0.458824 
0 0.611765 0.458824 0 0.611765 0.458824 
0 0.611765 0.458824 0 0.611765 0.458824 
0 0.611765 0.458824 0 0.611765 0.458824 
0 0.611765 0.458824 0 0.611765 0.458824 
0 0.611765 0.458824 0 0.611765 0.458824 
0 0.611765 0.458824 0 0.611765 0.458824 
0 0.611765 0.458824 0 0.611765 0.458824 
0 0.611765 0.458824 0 0.611765 0.458824 
0 0.611765 0.458824 0 0.611765 0.458824 
0 0.611765 0.458824 0 0.611765 0.458824 
0 0.611765 0.458824 0 0.611765 0.458824 
0 0.611765 0.458824 0 0.611765 0.458824 
0 0.611765 0.458824 0 0.611765 0.458824 
0 0.611765 0.458824 0 0.611765 0.458824 
0 0.611765 0.458824 0 0.611765 0.458824 
0 0.611765 0.458824 0 0.611765 0.458824 
0 0.611765 0.458824 0 0.611765 0.458824 
0 0.611765 0.458824 0 0.611765 0.458824 
0 0.611765 0.458824 0 0.611765 0.458824 
0 0.611765 0.458824 0 0.611765 0.458824 
0 0.611765 0.458824 0 0.611765 0.458824 
0 0.611765 0.458824 0 0.611765 0.458824 
0 0.611765 0.458824 0 0.611765 0.458824 
0 0.611765 0.458824 0 0.611765 0.458824 
0 0.611765 0.458824 0 0.611765 0.458824 
0 0.611765 0.458824 0 0.611765 0.458824 
0 0.611765 0.458824 0 0.611765 0.458824 
0 0.611765 0.458824 0 0.611765 0.458824 
0 0.611765 0.458824 0 0.611765 0.458824 
0 0.611765 0.458824 0 0.611765 0.458824 
0 0.611765 0.458824 0 0.611765 0.458824 
0 0.611765 0.458824 0 0.611765 0.458824 
0 0.611765 0.458824 0 0.611765 0.458824 
0 0.611765 0.458824 0 0.611765 0.458824 
0 0.611765 0.458824 0 0.611765 0.458824 
0 0.611765 0.458824 0 0.611765 0.458824 
0 0.611765 0.458824 0 0.611765 0.458824 
0 0.611765 0.458824 0 0.611765 0.458824 
0 0.611765 0.458824 0 0.611765 0.458824 
0 0.611765 0.458824 0 0.611765 0.458824 
0 0.611765 0.458824 0 0.611765 0.458824 
0 0.611765 0.458824 0 0.611765 0.458824 
0 0.611765 0.458824 0 0.611765 0.458824 
0 0.611765 0.458824 0 0.611765 0.458824 
0 0.611765 0.458824 0 0.611765 0.458824 
0 0.611765 0.458824 0 0.611765 0.458824 
0 0.611765 0.458824 0 0.611765 0.458824 
0 0.611765 0.458824 0 0.611765 0.458824 
0 0.611765 0.458824 0 0.611765 0.458824 
0 0.611765 0.458824 0 0.611765 0.458824 
0 0.611765 0.458824 0 0.611765 0.458824 
0 0.611765 0.458824 0 0.611765 0.458824 
0 0.611765 0.458824 0 0.611765 0.458824 
0 0.611765 0.458824 0 0.611765 0.458824 
0 0.611765 0.458824 0 0.611765 0.458824 
0 0.611765 0.458824 0 0.611765 0.458824 
0 0.611765 0.458824 0 0.611765 0.458824 
0 0.611765 0.458824 0 0.611765 0.458824 
0 0.611765 0.458824 0 0.611765 0.458824 
0 0.611765 0.458824 0 0.611765 0.458824 
0 0.611765 0.458824 0 0.611765 0.458824 
0 0.611765 0.458824 0 0.611765 0.458824 
0 0.611765 0.458824 0 0.611765 0.458824 
0 0.611765 0.458824 0 0.611765 0.458824 
0 0.611765 0.458824 0 0.611765 0.458824 
0 0.611765 0.458824 0 0.611765 0.458824 
0 0.611765 0.458824 0 0.611765 0.458824 
0 0.611765 0.458824 0 0.611765 0.458824 
0 0.611765 0.458824 0 0.611765 0.458824 
0 0.611765 0.458824 0 0.611765 0.458824 
0 0.611765 0.458824 0 0.611765 0.458824 
0 0.611765 0.458824 0 0.611765 0.458824 
0 0.611765 0.458824 0 0.611765 0.458824 
0 0.611765 0.458824 0 0.611765 0.458824 
0 0.611765 0.458824 0 0.611765 0.458824 
0 0.611765 0.458824 0 0.611765 0.458824 
0 0.611765 0.458824 0 0.611765 0.458824 
0 0.611765 0.458824 0 0.611765 0.458824 
0 0.611765 0.458824 0 0.611765 0.458824 
0 0.611765 0.458824 0 0.611765 0.458824 
0 0.611765 0.458824 0 0.611765 0.458824 
0 0.611765 0.458824 0 0.611765 0.458824 
0 0.611765 0.458824 0 0.611765 0.458824 
0 0.611765 0.458824 0 0.611765 0.458824 
0 0.611765 0.458824 0 0.611765 0.458824 
0 0.611765 0.458824 0 0.611765 0.458824 
0 0.611765 0.458824 0 0.611765 0.458824 
0 0.611765 0.458824 0 0.611765 0.458824 
0 0.611765 0.458824 0 0.611765 0.458824 
0 0.611765 0.458824 0 0.611765 0.458824 
0 0.611765 0.458824 0 0.611765 0.458824 
0 0.611765 0.458824 0 0.611765 0.458824 
0 0.611765 0.458824 0 0.611765 0.458824 
0 0.611765 0.458824 0 0.611765 0.458824 
0 0.611765 0.458824 0 0.611765 0.458824 
0 0.611765 0.458824 0 0.611765 0.458824 
0 0.611765 0.458824 0 0.611765 0.458824 
0 0.611765 0.458824 0 0.611765 0.458824 
0 0.611765 0.458824 0 0.611765 0.458824 
0 0.611765 0.458824 0 0.611765 0.458824 
0 0.611765 0.458824 0 0.611765 0.458824 
0 0.611765 0.458824 0 0.611765 0.458824 
0 0.611765 0.458824 0 0.611765 0.458824 
0 0.611765 0.458824 0 0.611765 0.458824 
0 0.611765 0.458824 0 0.611765 0.458824 
0 0.611765 0.458824 0 0.611765 0.458824 
0 0.611765 0.458824 0 0.611765 0.458824 
0 0.611765 0.458824 0 0.611765 0.458824 
0 0.611765 0.458824 0 0.611765 0.458824 
0 0.611765 0.458824 0 0.611765 0.458824 
0 0.611765 0.458824 0 0.611765 0.458824 
0 0.611765 0.458824 0 0.611765 0.458824 
0 0.611765 0.458824 0 0.611765 0.458824 
0 0.611765 0.458824 0 0.611765 0.458824 
0 0.611765 0.458824 0 0.611765 0.458824 
0 0.611765 0.458824 0 0.611765 0.458824 
0 0.611765 0.458824 0 0.611765 0.458824 
0 0.611765 0.458824 0 0.611765 0.458824 
0 0.611765 0.458824 0 0.611765 0.458824 
0 0.611765 0.458824 0 0.611765 0.458824 
0 0.611765 0.458824 0 0.611765 0.458824 
0 0.611765 0.458824 0 0.611765 0.458824 
0 0.611765 0.458824 0 0.611765 0.458824 
0 0.611765 0.458824 0 0.611765 0.458824 
0 0.611765 0.458824 0 0.611765 0.458824 
0 0.611765 0.458824 0 0.611765 0.458824 
0 0.611765 0.458824 0 0.611765 0.458824 
0 0.611765 0.458824 0 0.611765 0.458824 
0 0.611765 0.458824 0 0.611765 0.458824 
0 0.611765 0.458824 0 0.611765 0.458824 
0 0.611765 0.458824 0 0.611765 0.458824 
0 0.611765 0.458824 0 0.611765 0.458824 
0 0.611765 0.458824 0 0.611765 0.458824 
0 0.611765 0.458824 0 0.611765 0.458824 
0 0.611765 0.458824 0 0.611765 0.458824 
0 0.611765 0.458824 0 0.611765 0.458824 
0 0.611765 0.458824 0 0.611765 0.458824 
0 0.611765 0.458824 0 0.611765 0.458824 
0 0.611765 0.458824 0 0.611765 0.458824 
0 0.611765 0.458824 0 0.611765 0.458824 
0 0.611765 0.458824 0 0.611765 0.458824 
0 0.611765 0.458824 0 0.611765 0.458824 
0 0.611765 0.458824 0 0.611765 0.458824 
0 0.611765 0.458824 0 0.611765 0.458824 
0 0.611765 0.458824 0 0.611765 0.458824 
0 0.611765 0.458824 0 0.611765 0.458824 
0 0.611765 0.458824 0 0.611765 0.458824 
0 0.611765 0.458824 0 0.611765 0.458824 
0 0.611765 0.458824 0 0.611765 0.458824 
0 0.611765 0.458824 0 0.611765 0.458824 
0 0.611765 0.458824 0 0.611765 0.458824 
0 0.611765 0.458824 0 0.611765 0.458824 
0 0.611765 0.458824 0 0.611765 0.458824 
0 0.611765 0.458824 0 0.611765 0.458824 
0 0.611765 0.458824 0 0.611765 0.458824 
0 0.611765 0.458824 0 0.611765 0.458824 
0 0.611765 0.458824 0 0.611765 0.458824 
0 0.611765 0.458824 0 0.611765 0.458824 
0 0.611765 0.458824 0 0.611765 0.458824 
0 0.611765 0.458824 0 0.611765 0.458824 
0 0.611765 0.458824 0 0.611765 0.458824 
0 0.611765 0.458824 0 0.611765 0.458824 
0 0.611765 0.458824 0 0.611765 0.458824 
0 0.611765 0.458824 0 0.611765 0.458824 
0 0.611765 0.458824 0 0.611765 0.458824 
0 0.611765 0.458824 0 0.611765 0.458824 
0 0.611765 0.458824 0 0.611765 0.458824 
0 0.611765 0.458824 0 0.611765 0.458824 
0 0.611765 0.458824 0 0.611765 0.458824 
0 0.611765 0.458824 0 0.611765 0.458824 
0 0.611765 0.458824 0 0.611765 0.458824 
0 0.611765 0.458824 0 0.611765 0.458824 
0 0.611765 0.458824 0 0.611765 0.458824 
0 0.611765 0.458824 0 0.611765 0.458824 
0 0.611765 0.458824 0 0.611765 0.458824 
0 0.611765 0.458824 0 0.611765 0.458824 
0 0.611765 0.458824 0 0.611765 0.458824 
0 0.611765 0.458824 0 0.611765 0.458824 
0 0.611765 0.458824 0 0.611765 0.458824 
0 0.611765 0.458824 0 0.611765 0.458824 
0 0.611765 0.458824 0 0.611765 0.458824 
0 0.611765 0.458824 0 0.611765 0.458824 
0 0.611765 0.458824 0 0.611765 0.458824 
0 0.611765 0.458824 0 0.611765 0.458824 
0 0.611765 0.458824 0 0.611765 0.458824 
0 0.611765 0.458824 0 0.611765 0.458824 
0 0.611765 0.458824 0 0.611765 0.458824 
0 0.611765 0.458824 0 0.611765 0.458824 
0 0.611765 0.458824 0 0.611765 0.458824 
0 0.611765 0.458824 0 0.611765 0.458824 
0 0.611765 0.458824 0 0.611765 0.458824 
0 0.611765 0.458824 0 0.611765 0.458824 
0 0.611765 0.458824 0 0.611765 0.458824 
0 0.611765 0.458824 0 0.611765 0.458824 
0 0.611765 0.458824 0 0.611765 0.458824 
0 0.611765 0.458824 0 0.611765 0.458824 
0 0.611765 0.458824 0 0.611765 0.458824 
0 0.611765 0.458824 0 0.611765 0.458824 
0 0.611765 0.458824 0 0.611765 0.458824 
0 0.611765 0.458824 0 0.611765 0.458824 
0 0.611765 0.458824 0 0.611765 0.458824 
0 0.611765 0.458824 0 0.611765 0.458824 
0 0.611765 0.458824 0 0.611765 0.458824 
0 0.611765 0.458824 0 0.611765 0.458824 
0 0.611765 0.458824 0 0.611765 0.458824 
0 0.611765 0.458824 0 0.611765 0.458824 
0 0.611765 0.458824 0 0.611765 0.458824 
0 0.611765 0.458824 0 0.611765 0.458824 
0 0.611765 0.458824 0 0.611765 0.458824 
0 0.611765 0.458824 0 0.611765 0.458824 
0 0.611765 0.458824 0 0.611765 0.458824 
0 0.611765 0.458824 0 0.611765 0.458824 
0 0.611765 0.458824 0 0.611765 0.458824 
0 0.611765 0.458824 0 0.611765 0.458824 
0 0.611765 0.458824 0 0.611765 0.458824 
0 0.611765 0.458824 0 0.611765 0.458824 
0 0.611765 0.458824 0 0.611765 0.458824 
0 0.611765 0.458824 0 0.611765 0.458824 
0 0.611765 0.458824 0 0.611765 0.458824 
0 0.611765 0.458824 0 0.611765 0.458824 
0 0.611765 0.458824 0 0.611765 0.458824 
0 0.611765 0.458824 0 0.611765 0.458824 
0 0.611765 0.458824 0 0.611765 0.458824 
0 0.611765 0.458824 0 0.611765 0.458824 
0 0.611765 0.458824 0 0.611765 0.458824 
0 0.611765 0.458824 0 0.611765 0.458824 
0 0.611765 0.458824 0 0.611765 0.458824 
0 0.611765 0.458824 0 0.611765 0.458824 
0 0.611765 0.458824 0 0.611765 0.458824 
0 0.611765 0.458824 0 0.611765 0.458824 
0 0.611765 0.458824 0 0.611765 0.458824 
0 0.611765 0.458824 0 0.611765 0.458824 
0 0.611765 0.458824 0 0.611765 0.458824 
0 0.611765 0.458824 0 0.611765 0.458824 
0 0.611765 0.458824 0 0.611765 0.458824 
0 0.611765 0.458824 0 0.611765 0.458824 
0 0.611765 0.458824 0 0.611765 0.458824 
0 0.611765 0.458824 0 0.611765 0.458824 
0 0.611765 0.458824 0 0.611765 0.458824 
0 0.611765 0.458824 0 0.611765 0.458824 
0 0.611765 0.458824 0 0.611765 0.458824 
0 0.611765 0.458824 0 0.611765 0.458824 
0 0.611765 0.458824 0 0.611765 0.458824 
0 0.611765 0.458824 0 0.611765 0.458824 
0 0.611765 0.458824 0 0.611765 0.458824 
0 0.611765 0.458824 0 0.611765 0.458824 
0 0.611765 0.458824 0 0.611765 0.458824 
0 0.611765 0.458824 0 0.611765 0.458824 
0 0.611765 0.458824 0 0.611765 0.458824 
0 0.611765 0.458824 0 0.611765 0.458824 
0 0.611765 0.458824 0 0.611765 0.458824 
0 0.611765 0.458824 0 0.611765 0.458824 
0 0.611765 0.458824 0 0.611765 0.458824 
0 0.611765 0.458824 0 0.611765 0.458824 
0 0.611765 0.458824 0 0.611765 0.458824 
0 0.611765 0.458824 0 0.611765 0.458824 
0 0.611765 0.458824 0 0.611765 0.458824 
0 0.611765 0.458824 0 0.611765 0.458824 
0 0.611765 0.458824 0 0.611765 0.458824 
0 0.611765 0.458824 0 0.611765 0.458824 
0 0.611765 0.458824 0 0.611765 0.458824 
0 0.611765 0.458824 0 0.611765 0.458824 
0 0.611765 0.458824 0 0.611765 0.458824 
0 0.611765 0.458824 0 0.611765 0.458824 
0 0.611765 0.458824 0 0.611765 0.458824 
0 0.611765 0.458824 0 0.611765 0.458824 
0 0.611765 0.458824 0 0.611765 0.458824 
0 0.611765 0.458824 0 0.611765 0.458824 
0 0.611765 0.458824 0 0.611765 0.458824 
0 0.611765 0.458824 0 0.611765 0.458824 
0 0.611765 0.458824 0 0.611765 0.458824 
0 0.611765 0.458824 0 0.611765 0.458824 
0 0.611765 0.458824 0 0.611765 0.458824 
0 0.611765 0.458824 0 0.611765 0.458824 
0 0.611765 0.458824 0 0.611765 0.458824 
0 0.611765 0.458824 0 0.611765 0.458824 
0 0.611765 0.458824 0 0.611765 0.458824 
0 0.611765 0.458824 0 0.611765 0.458824 
0 0.611765 0.458824 0 0.611765 0.458824 
0 0.611765 0.458824 0 0.611765 0.458824 
0 0.611765 0.458824 0 0.611765 0.458824 
0 0.611765 0.458824 0 0.611765 0.458824 
0 0.611765 0.458824 0 0.611765 0.458824 
0 0.611765 0.458824 0 0.611765 0.458824 
0 0.611765 0.458824 0 0.611765 0.458824 
0 0.611765 0.458824 0 0.611765 0.458824 
0 0.611765 0.458824 0 0.611765 0.458824 
0 0.611765 0.458824 0 0.611765 0.458824 
0 0.611765 0.458824 0 0.611765 0.458824 
0 0.611765 0.458824 0 0.611765 0.458824 
0 0.611765 0.458824 0 0.611765 0.458824 
0 0.611765 0.458824 0 0.611765 0.458824 
0 0.611765 0.458824 0 0.611765 0.458824 
0 0.611765 0.458824 0 0.611765 0.458824 
0 0.611765 0.458824 0 0.611765 0.458824 
0 0.611765 0.458824 0 0.611765 0.458824 
0 0.611765 0.458824 0 0.611765 0.458824 
0 0.611765 0.458824 0 0.611765 0.458824 
0 0.611765 0.458824 0 0.611765 0.458824 
0 0.611765 0.458824 0 0.611765 0.458824 
0 0.611765 0.458824 0 0.611765 0.458824 
0 0.611765 0.458824 0 0.611765 0.458824 
0 0.611765 0.458824 0 0.611765 0.458824 
0 0.611765 0.458824 0 0.611765 0.458824 
0 0.611765 0.458824 0 0.611765 0.458824 
0 0.611765 0.458824 0 0.611765 0.458824 
0 0.611765 0.458824 0 0.611765 0.458824 
0 0.611765 0.458824 0 0.611765 0.458824 
0 0.611765 0.458824 0 0.611765 0.458824 
0 0.611765 0.458824 0 0.611765 0.458824 
0 0.611765 0.458824 0 0.611765 0.458824 
0 0.611765 0.458824 0 0.611765 0.458824 
0 0.611765 0.458824 0 0.611765 0.458824 
0 0.611765 0.458824 0 0.611765 0.458824 
0 0.611765 0.458824 0 0.611765 0.458824 
0 0.611765 0.458824 0 0.611765 0.458824 
0 0.611765 0.458824 0 0.611765 0.458824 
0 0.611765 0.458824 0 0.611765 0.458824 
0 0.611765 0.458824 0 0.611765 0.458824 
0 0.611765 0.458824 0 0.611765 0.458824 
0 0.611765 0.458824 0 0.611765 0.458824 
0 0.611765 0.458824 0 0.611765 0.458824 
0 0.611765 0.458824 0 0.611765 0.458824 
0 0.611765 0.458824 0 0.611765 0.458824 
0 0.611765 0.458824 0 0.611765 0.458824 
0 0.611765 0.458824 0 0.611765 0.458824 
0 0.611765 0.458824 0 0.611765 0.458824 
0 0.611765 0.458824 0 0.611765 0.458824 
0 0.611765 0.458824 0 0.611765 0.458824 
0 0.611765 0.458824 0 0.611765 0.458824 
0 0.611765 0.458824 0 0.611765 0.458824 
0 0.611765 0.458824 0 0.611765 0.458824 
0 0.611765 0.458824 0 0.611765 0.458824 
0 0.611765 0.458824 0 0.611765 0.458824 
0 0.611765 0.458824 0 0.611765 0.458824 
0 0.611765 0.458824 0 0.611765 0.458824 
0 0.611765 0.458824 0 0.611765 0.458824 
0 0.611765 0.458824 0 0.611765 0.458824 
0 0.611765 0.458824 0 0.611765 0.458824 
0 0.611765 0.458824 0 0.611765 0.458824 
0 0.611765 0.458824 0 0.611765 0.458824 
0 0.611765 0.458824 0 0.611765 0.458824 
0 0.611765 0.458824 0 0.611765 0.458824 
0 0.611765 0.458824 0 0.611765 0.458824 
0 0.611765 0.458824 0 0.611765 0.458824 
0 0.611765 0.458824 0 0.611765 0.458824 
0 0.611765 0.458824 0 0.611765 0.458824 
0 0.611765 0.458824 0 0.611765 0.458824 
0 0.611765 0.458824 0 0.611765 0.458824 
0 0.611765 0.458824 0 0.611765 0.458824 
0 0.611765 0.458824 0 0.611765 0.458824 
0 0.611765 0.458824 0 0.611765 0.458824 
0 0.611765 0.458824 0 0.611765 0.458824 
0 0.611765 0.458824 0 0.611765 0.458824 
0 0.611765 0.458824 0 0.611765 0.458824 
0 0.611765 0.458824 0 0.611765 0.458824 
0 0.611765 0.458824 0 0.611765 0.458824 
0 0.611765 0.458824 0 0.611765 0.458824 
0 0.611765 0.458824 0 0.611765 0.458824 
0 0.611765 0.458824 0 0.611765 0.458824 
0 0.611765 0.458824 0 0.611765 0.458824 
0 0.611765 0.458824 0 0.611765 0.458824 
0 0.611765 0.458824 0 0.611765 0.458824 
0 0.611765 0.458824 0 0.611765 0.458824 
0 0.611765 0.458824 0 0.611765 0.458824 
0 0.611765 0.458824 0 0.611765 0.458824 
0 0.611765 0.458824 0 0.611765 0.458824 
0 0.611765 0.458824 0 0.611765 0.458824 
0 0.611765 0.458824 0 0.611765 0.458824 
0 0.611765 0.458824 0 0.611765 0.458824 
0 0.611765 0.458824 0 0.611765 0.458824 
0 0.611765 0.458824 0 0.611765 0.458824 
0 0.611765 0.458824 0 0.611765 0.458824 
0 0.611765 0.458824 0 0.611765 0.458824 
0 0.611765 0.458824 0 0.611765 0.458824 
0 0.611765 0.458824 0 0.611765 0.458824 
0 0.611765 0.458824 0 0.611765 0.458824 
0 0.611765 0.458824 0 0.611765 0.458824 
0 0.611765 0.458824 0 0.611765 0.458824 
0 0.611765 0.458824 0 0.611765 0.458824 
0 0.611765 0.458824 0 0.611765 0.458824 
0 0.611765 0.458824 0 0.611765 0.458824 
0 0.611765 0.458824 0 0.611765 0.458824 
0 0.611765 0.458824 0 0.611765 0.458824 
0 0.611765 0.458824 0 0.611765 0.458824 
0 0.611765 0.458824 0 0.611765 0.458824 
0 0.611765 0.458824 0 0.611765 0.458824 
0 0.611765 0.458824 0 0.611765 0.458824 
0 0.611765 0.458824 0 0.611765 0.458824 
0 0.611765 0.458824 0 0.611765 0.458824 
0 0.611765 0.458824 0 0.611765 0.458824 
0 0.611765 0.458824 0 0.611765 0.458824 
0 0.611765 0.458824 0 0.611765 0.458824 
0 0.611765 0.458824 0 0.611765 0.458824 
0 0.611765 0.458824 0 0.611765 0.458824 
0 0.611765 0.458824 0 0.611765 0.458824 
0 0.611765 0.458824 0 0.611765 0.458824 
0 0.611765 0.458824 0 0.611765 0.458824 