# vtk DataFile Version 4.2
vtk output
ASCII
DATASET POLYDATA
POINTS 3025 float
231.533 186.931 78.6907 231.253 186.746 78.7557 231.406 186.848 78.7483 
231.773 187.052 78.6525 232.039 187.272 78.597 232.398 187.507 78.5545 
232.723 187.733 78.4808 233.006 187.834 78.425 233.373 188.028 78.3557 
232.205 187.752 78.6516 232.464 187.998 78.618 234.167 188.453 78.212 
232.602 188.235 78.6369 233.186 188.327 78.479 233.626 188.417 78.3602 
234.241 188.51 78.202 234.269 188.534 78.1997 233.833 188.455 78.3059 
234.03 188.491 78.2579 234.197 188.521 78.2175 230.377 186.34 78.9994 
229.966 186.519 79.1923 230.985 186.604 78.8369 231.725 187.726 78.7738 
231.901 187.806 78.7979 232.214 188.03 78.718 232.348 188.256 78.7505 
230.03 188.153 79.3834 231.824 188.231 78.8931 230.435 188.197 79.3044 
231.017 188.237 79.1843 231.61 188.288 79.0265 231.897 188.334 78.9487 
228.16 185.421 79.8839 228.233 185.478 79.8626 228.17 185.402 79.8804 
228.264 185.763 79.8631 228.325 185.608 79.8328 228.39 185.723 79.8275 
230.227 186.396 79.0896 228.302 186.162 79.8757 228.613 185.958 79.7427 
228.759 186.115 79.7276 229.996 186.475 79.2317 228.178 186.629 79.9569 
229.365 186.434 79.4955 227.665 187.068 80.1842 227.439 187.656 80.3284 
228.276 187.826 80.0217 229.582 188.067 79.5129 231.105 188.165 79.2082 
230.682 188.189 79.3412 229.341 188.097 79.644 229.803 188.149 79.5184 
230.327 188.186 79.413 222.803 183.53 81.4483 222.499 183.313 81.5284 
222.688 183.477 81.4983 223.044 183.668 81.3997 223.479 183.986 81.2877 
223.297 183.808 81.3324 223.591 184.076 81.274 223.712 184.29 81.2481 
223.709 184.288 81.2661 228.198 185.565 79.8822 222.981 184.425 81.4925 
223.231 184.918 81.4448 223.933 184.732 81.2094 223.901 184.619 81.2354 
228.281 185.891 79.8813 224.133 184.989 81.1934 224.251 185.207 81.1607 
228.301 186.347 79.9192 224.391 185.441 81.1644 224.556 185.712 81.1091 
224.819 186.078 81.0955 228.117 186.809 80.0339 225.183 186.466 80.9783 
225.442 186.671 80.9525 227.712 187.121 80.2099 226.541 187.127 80.6067 
224.262 187.604 81.4391 224.461 187.874 81.403 228.416 187.817 80.0031 
226.253 187.815 80.8096 225.883 188.041 80.9848 229.157 188.022 79.7492 
224.504 188.059 81.4127 224.869 188.053 81.3017 225.395 188.034 81.1371 
225.719 188.037 81.0395 222.17 183.225 81.6299 222.146 183.286 81.6392 
222.289 183.217 81.5913 222.43 183.278 81.5589 222.153 183.433 81.6539 
222.306 184.093 81.6785 222.33 184.756 81.7532 222.748 184.507 81.5749 
223.219 184.701 81.4697 222.827 184.656 81.5967 222.196 185.483 81.8911 
223.075 185 81.5452 221.703 186.144 82.1511 223.919 186.889 81.5539 
221.541 187.015 82.3231 222.539 187.402 82.003 223.876 187.647 81.5565 
224.595 187.779 81.3728 224.047 187.725 81.5447 223.454 187.953 81.7474 
224.308 187.922 81.4707 223.649 187.986 81.6855 223.999 188.03 81.5812 
224.317 188.051 81.4873 218.138 181.68 83.0398 218.141 181.687 83.042 
218.163 181.946 83.0455 218.15 181.738 83.0445 218.154 181.877 83.0557 
218.182 182.14 83.0565 222.156 183.369 81.6538 218.007 183.086 83.1569 
218.213 182.828 83.0733 218.226 182.641 83.0789 222.204 183.685 81.6732 
217.786 183.757 83.2783 218.337 183.387 83.0865 218.285 183.253 83.1265 
222.326 184.222 81.7083 218.543 184.233 83.0639 218.481 183.995 83.1179 
222.324 185.035 81.8172 218.738 184.604 83.0734 218.898 184.932 83.0135 
222.121 185.742 81.9832 219.067 185.212 83.0334 219.384 185.639 82.9016 
219.604 185.822 82.9189 221.734 186.22 82.1835 220.629 186.312 82.5766 
220.284 186.994 82.7322 220.216 187.227 82.862 219.775 187.678 83.0928 
218.491 187.857 83.3302 218.299 187.913 83.4075 219.705 187.88 83.1558 
219.664 187.931 83.1803 218.548 187.962 83.3899 218.92 187.951 83.3519 
219.333 187.928 83.2658 219.565 187.928 83.2148 223.004 191.013 83.0087 
223.004 191.013 83.0087 223.004 191.013 83.0087 223.004 191.013 83.0088 
223.004 191.013 83.0088 215.766 181.387 83.9353 215.753 181.35 83.9384 
215.786 181.463 83.9308 215.773 181.406 83.9346 215.748 181.327 83.9398 
215.775 181.417 83.9348 218.129 181.782 83.0499 215.871 181.744 83.9119 
215.815 181.538 83.9251 215.858 181.677 83.9174 218.103 182.119 83.0767 
218.123 181.952 83.0683 216.033 182.253 83.8749 215.934 181.886 83.8983 
216.061 182.243 83.8748 216.257 182.935 83.8236 216.17 182.477 83.8414 
216.367 182.938 83.8079 217.948 183.21 83.2182 216.501 183.726 83.7713 
216.584 183.274 83.7284 216.753 183.563 83.7184 217.785 183.693 83.3368 
216.72 184.556 83.7353 217.3 183.956 83.53 217.061 185.843 83.6339 
217.121 186.466 83.7355 217.381 187.078 83.6707 217.732 187.631 83.5948 
217.84 187.764 83.5491 217.852 187.787 83.5871 218.02 187.792 83.4693 
219.081 187.868 83.3791 219.425 187.816 83.2713 217.971 187.878 83.5402 
218.215 187.934 83.4945 218.525 187.948 83.4763 223.004 191.013 83.0088 
210.913 178.555 85.7062 211.227 178.594 85.6041 211.551 178.657 85.4814 
211.674 178.697 85.4476 211.756 178.789 85.4174 211.755 178.999 85.4092 
211.775 178.862 85.4176 211.677 179.463 85.4114 211.726 179.379 85.4397 
211.743 179.004 85.4379 215.798 181.511 83.9291 215.762 181.381 83.9372 
215.91 181.884 83.9061 215.826 181.598 83.9245 211.812 181.123 85.3453 
211.84 180.919 85.3844 216.096 182.465 83.869 216.348 183.215 83.8234 
216.212 182.71 83.8505 212.121 182.467 85.2937 212.169 182.8 85.2756 
216.617 184.066 83.7876 211.922 183.747 85.4739 212.128 184.397 85.4447 
212.411 183.949 85.2986 212.477 184.34 85.2923 212.628 184.894 85.3103 
212.72 185.301 85.3087 212.921 185.893 85.3147 212.632 186.275 85.4721 
212.943 186.816 85.4207 213.261 186.77 85.2985 217.233 186.676 83.7497 
217.947 186.356 83.6911 213.041 187.252 85.4485 213.478 187.22 85.2784 
213.763 187.825 85.2607 213.384 187.813 85.4053 213.598 187.906 85.3356 
213.783 187.915 85.267 213.745 187.931 85.2837 209.426 177.973 86.3152 
209.09 177.769 86.4926 208.687 177.778 86.637 209.997 178.172 86.0898 
209.46 177.894 86.353 210.607 178.421 85.8708 211.16 178.643 85.6749 
211.496 178.66 85.5258 210.906 179.176 85.8318 209.386 179.144 86.3901 
210.285 179.803 85.9735 210.74 180.531 85.801 211.635 179.809 85.5094 
211.098 181.446 85.6836 211.353 182.401 85.6285 211.9 181.734 85.4202 
211.541 183.33 85.616 211.937 183.27 85.4804 211.687 184.147 85.6245 
211.816 183.914 85.5294 212.099 184.101 85.454 211.885 184.104 85.5387 
212.069 184.569 85.5014 212.096 185.758 85.6287 212.287 186.425 85.6398 
212.509 186.589 85.5712 212.579 186.902 85.5861 212.675 187.152 85.5873 
212.934 187.445 85.5261 213.051 187.85 85.5486 212.991 188.046 85.6092 
212.969 188.088 85.6266 212.941 188.059 85.6321 207.454 177.211 87.2271 
206.894 176.951 87.5722 206.868 177.162 87.4612 208.07 177.373 86.9767 
207.514 177.113 87.3057 208.041 177.319 87.078 208.751 177.645 86.71 
208.416 179.054 86.78 210.37 179.833 86.0072 208.365 179.35 86.9131 
207.06 180.336 87.5053 207.995 179.651 87.0112 207.926 180.109 87.122 
210.933 180.845 85.783 207.234 181.221 87.467 207.768 180.437 87.1532 
207.741 180.953 87.2284 211.244 181.806 85.6833 207.094 182.226 87.5636 
207.668 181.322 87.2444 207.654 181.872 87.3083 211.454 182.751 85.6401 
207.634 182.285 87.3142 207.635 182.857 87.3756 211.62 183.657 85.6275 
207.663 183.328 87.3703 207.698 183.882 87.4219 207.798 184.529 87.4064 
207.819 184.76 87.4414 211.921 185.182 85.6368 207.403 185.439 87.6686 
208.023 185.67 87.4093 208.01 185.484 87.4162 212.141 185.857 85.6301 
208.218 186.141 87.3876 208.303 186.441 87.3766 208.411 186.733 87.3774 
208.501 187.053 87.3663 208.63 187.294 87.3567 212.526 187.119 85.6437 
212.726 187.55 85.6307 208.497 187.781 87.4693 208.707 187.879 87.3938 
208.834 187.793 87.3349 212.872 187.895 85.6309 208.824 187.869 87.3486 
205.157 176.388 88.5351 206.381 176.901 87.7675 206.14 176.701 88.0706 
207.604 177.205 87.3641 205.564 177.173 88.0098 206.148 177.645 87.6847 
205.714 179.928 88.0439 206.411 179.768 87.8885 205.806 180.393 88.2207 
207.185 180.351 87.5427 205.569 180.787 88.1645 205.744 181.306 88.2756 
207.261 181.472 87.497 205.778 181.813 88.1148 206.003 182.086 88.178 
207.108 182.192 87.5928 206.556 182.576 87.8638 207.421 184.913 87.6658 
205.778 185.465 88.4697 206.629 185.974 88.0908 207.106 185.585 87.7944 
207.684 185.765 87.5949 207.275 185.738 87.787 206.993 186.354 87.9681 
207.594 186.196 87.6708 207.365 186.788 87.8383 207.657 187.191 87.7511 
207.793 187.434 87.7262 202.875 175.479 89.7893 204.581 175.912 89.0071 
204.107 175.57 89.3793 204.513 175.696 89.1653 204.617 175.723 89.1446 
205.198 176.38 88.7967 202.981 178.625 89.2158 205.781 179.792 88.4554 
205.693 181.956 88.4792 203.62 185.333 89.635 204.063 185.971 89.4513 
204.899 185.516 88.8894 206.695 185.951 88.1022 204.927 185.911 89.0006 
204.379 186.395 89.3225 204.711 186.357 89.1372 204.811 186.723 89.156 
207.19 186.56 87.9143 204.373 186.796 89.3969 204.803 187.305 89.2419 
204.89 187.096 89.1608 204.91 187.149 89.162 205.013 187.459 89.1564 
207.613 187.093 87.78 204.985 187.586 89.1919 205.167 187.825 89.1361 
205.13 187.822 89.1542 205.212 187.958 89.1344 205.253 188.001 89.1218 
205.272 188.043 89.1189 205.241 188.002 89.1269 205.262 188.032 89.122 
203.455 175.235 89.8208 202.745 175.258 90.1197 203.867 175.588 89.6482 
201.576 176.618 90.1322 201.814 178.77 90.3646 202.527 179.445 89.8411 
202.867 179.898 89.491 202.852 180.23 89.6974 203.01 181.186 89.6445 
204.263 181.144 89.4259 203.131 181.784 89.4637 202.971 182.136 89.7271 
202.645 183.075 90.0115 203.556 183.476 89.7416 202.715 185.275 90.1968 
203.377 185.916 89.8612 204.109 185.766 89.4478 203.598 185.779 89.7214 
203.597 186.287 89.7681 203.927 186.17 89.5701 203.706 186.572 89.7309 
203.964 186.748 89.6063 203.772 186.725 89.7076 203.806 186.806 89.6968 
203.867 186.83 89.6659 203.835 186.841 89.6842 205.004 190.013 90.0087 
205.004 190.013 90.0087 205.004 190.013 90.0087 205.004 190.013 90.0088 
205.004 190.013 90.0088 200.439 174.517 91.4283 200.795 174.6 91.2331 
201.733 175.01 90.6819 201.117 174.713 91.1252 201.48 174.932 91.0002 
[...]
POINT_DATA 3025
COLOR_SCALARS scalars 3
0 0.611765 0.458824 0 0.611765 0.458824 0 0.611765 0.458824 
0 0.611765 0.458824 0 0.611765 0.458824 
0 0.611765 0.458824 0 0.611765 0.458824 
0 0.611765 0.458824 0 0.611765 0.458824 
0 0.611765 0.458824 0 0.611765 0.458824 
0 0.611765 0.458824 0 0.611765 0.458824 
0 0.611765 0.458824 0 0.611765 0.458824 
0 0.611765 0.458824 0 0.611765 0.458824 
0 0.611765 0.458824 0 0.611765 0.458824 
0 0.611765 0.458824 0 0.611765 0.458824 
0 0.611765 0.458824 0 0.611765 0.458824 
0 0.611765 0.458824 0 0.611765 0.458824 
0 0.611765 0.458824 0 0.611765 0.458824 
0 0.611765 0.458824 0 0.611765 0.458824 
0 0.611765 0.458824 0 0.611765 0.458824 
0 0.611765 0.458824 0 0.611765 0.458824 
0 0.611765 0.458824 0 0.611765 0.458824 
0 0.611765 0.458824 0 0.611765 0.458824 
0 0.611765 0.458824 0 0.611765 0.458824 
0 0.611765 0.458824 0 0.611765 0.458824 
0 0.611765 0.458824 0 0.611765 0.458824 
0 0.611765 0.458824 0 0.611765 0.458824 
0 0.611765 0.458824 0 0.611765 0.458824 
0 0.611765 0.458824 0 0.611765 0.458824 
0 0.611765 0.458824 0 0.611765 0.458824 
0 0.611765 0.458824 0 0.611765 0.458824 
0 0.611765 0.458824 0 0.611765 0.458824 
0 0.611765 0.458824 0 0.611765 0.458824 
0 0.611765 0.458824 0 0.611765 0.458824 
0 0.611765 0.458824 0 0.611765 0.458824 
0 0.611765 0.458824 0 0.611765 0.458824 
0 0.611765 0.458824 0 0.611765 0.458824 
0 0.611765 0.458824 0 0.611765 0.458824 
0 0.611765 0.458824 0 0.611765 0.458824 
0 0.611765 0.458824 0 0.611765 0.458824 
0 0.611765 0.458824 0 0.611765 0.458824 
0 0.611765 0.458824 0 0.611765 0.458824 
0 0.611765 0.458824 0 0.611765 0.458824 
0 0.611765 0.458824 0 0.611765 0.458824 
0 0.611765 0.458824 0 0.611765 0.458824 
0 0.611765 0.458824 0 0.611765 0.458824 
0 0.611765 0.458824 0 0.611765 0.458824 
0 0.611765 0.458824 0 0.611765 0.458824 
0 0.611765 0.458824 0 0.611765 0.458824 
0 0.611765 0.458824 0 0.611765 0.458824 
0 0.611765 0.458824 0 0.611765 0.458824 
0 0.611765 0.458824 0 0.611765 0.458824 
0 0.611765 0.458824 0 0.611765 0.458824 
0 0.611765 0.458824 0 0.611765 0.458824 
0 0.611765 0.458824 0 0.611765 0.458824 
0 0.611765 0.458824 0 0.611765 0.458824 
0 0.611765 0.458824 0 0.611765 0.458824 
0 0.611765 0.458824 0 0.611765 0.458824 
0 0.611765 0.458824 0 0.611765 0.458824 
0 0.611765 0.458824 0 0.611765 0.458824 
0 0.611765 0.458824 0 0.611765 0.458824 
0 0.611765 0.458824 0 0.611765 0.458824 
0 0.611765 0.458824 0 0.611765 0.458824 
0 0.611765 0.458824 0 0.611765 0.458824 
0 0.611765 0.458824 0 0.611765 0.458824 
0 0.611765 0.458824 0 0.611765 0.458824 
0 0.611765 0.458824 0 0.611765 0.458824 
0 0.611765 0.458824 0 0.611765 0.458824 
0 0.611765 0.458824 0 0.611765 0.458824 
0 0.611765 0.458824 0 0.611765 0.458824 
0 0.611765 0.458824 0 0.611765 0.458824 
0 0.611765 0.458824 0 0.611765 0.458824 
0 0.611765 0.458824 0 0.611765 0.458824 
0 0.611765 0.458824 0 0.611765 0.458824 
0 0.611765 0.458824 0 0.611765 0.458824 
0 0.611765 0.458824 0 0.611765 0.458824 
0 0.611765 0.458824 0 0.611765 0.458824 
0 0.611765 0.458824 0 0.611765 0.458824 
0 0.611765 0.458824 0 0.611765 0.458824 
0 0.611765 0.458824 0 0.611765 0.458824 
0 0.611765 0.458824 0 0.611765 0.458824 
0 0.611765 0.458824 0 0.611765 0.458824 
0 0.611765 0.458824 0 0.611765 0.458824 
0 0.611765 0.458824 0 0.611765 0.458824 
0 0.611765 0.458824 0 0.611765 0.458824 
0 0.611765 0.458824 0 0.611765 0.458824 
0 0.611765 0.458824 0 0.611765 0.458824 
0 0.611765 0.458824 0 0.611765 0.458824 
0 0.611765 0.458824 0 0.611765 0.458824 
0 0.611765 0.458824 0 0.611765 0.458824 
0 0.611765 0.458824 0 0.611765 0.458824 
0 0.611765 0.458824 0 0.611765 0.458824 
0 0.611765 0.458824 0 0.611765 0.458824 
0 0.611765 0.458824 0 0.611765 0.458824 
0 0.611765 0.458824 0 0.611765 0.458824 
0 0.611765 0.458824 0 0.611765 0.458824 
0 0.611765 0.458824 0 0.611765 0.458824 
0 0.611765 0.458824 0 0.611765 0.458824 
0 0.611765 0.458824 0 0.611765 0.458824 
0 0.611765 0.458824 0 0.611765 0.458824 
0 0.611765 0.458824 0 0.611765 0.458824 
0 0.611765 0.458824 0 0.611765 0.458824 
0 0.611765 0.458824 0 0.611765 0.458824 
0 0.611765 0.458824 0 0.611765 0.458824 
0 0.611765 0.458824 0 0.611765 0.458824 
0 0.611765 0.458824 0 0.611765 0.458824 
0 0.611765 0.458824 0 0.611765 0.458824 
0 0.611765 0.458824 0 0.611765 0.458824 
0 0.611765 0.458824 0 0.611765 0.458824 
0 0.611765 0.458824 0 0.611765 0.458824 
0 0.611765 0.458824 0 0.611765 0.458824 
0 0.611765 0.458824 0 0.611765 0.458824 
0 0.611765 0.458824 0 0.611765 0.458824 
0 0.611765 0.458824 0 0.611765 0.458824 
0 0.611765 0.458824 0 0.611765 0.458824 
0 0.611765 0.458824 0 0.611765 0.458824 
0 0.611765 0.458824 0 0.611765 0.458824 
0 0.611765 0.458824 0 0.611765 0.458824 
0 0.611765 0.458824 0 0.611765 0.458824 
0 0.611765 0.458824 0 0.611765 0.458824 
0 0.611765 0.458824 0 0.611765 0.458824 
0 0.611765 0.458824 0 0.611765 0.458824 
0 0.611765 0.458824 0 0.611765 0.458824 
0 0.611765 0.458824 0 0.611765 0.458824 
0 0.611765 0.458824 0 0.611765 0.458824 
0 0.611765 0.458824 0 0.611765 0.458824 
0 0.611765 0.458824 0 0.611765 0.458824 
0 0.611765 0.458824 0 0.611765 0.458824 
0 0.611765 0.458824 0 0.611765 0.458824 
0 0.611765 0.458824 0 0.611765 0.458824 
0 0.611765 0.458824 0 0.611765 0.458824 
0 0.611765 0.458824 0 0.611765 0.458824 
0 0.611765 0.458824 0 0.611765 0.458824 
0 0.611765 0.458824 0 0.611765 0.458824 
0 0.611765 0.458824 0 0.611765 0.458824 
0 0.611765 0.458824 0 0.611765 0.458824 
0 0.611765 0.458824 0 0.611765 0.458824 
0 0.611765 0.458824 0 0.611765 0.458824 
0 0.611765 0.458824 0 0.611765 0.458824 
0 0.611765 0.458824 0 0.611765 0.458824 
0 0.611765 0.458824 0 0.611765 0.458824 
0 0.611765 0.458824 0 0.611765 0.458824 
0 0.611765 0.458824 0 0.611765 0.458824 
0 0.611765 0.458824 0 0.611765 0.458824 
0 0.611765 0.458824 0 0.611765 0.458824 
0 0.611765 0.458824 0 0.611765 0.458824 
0 0.611765 0.458824 0 0.611765 0.458824 
0 0.611765 0.458824 0 0.611765 0.458824 
0 0.611765 0.458824 0 0.611765 0.458824 
0 0.611765 0.458824 0 0.611765 0.458824 
0 0.611765 0.458824 0 0.611765 0.458824 
0 0.611765 0.458824 0 0.611765 0.458824 
0 0.611765 0.458824 0 0.611765 0.458824 
0 0.611765 0.458824 0 0.611765 0.458824 
0 0.611765 0.458824 0 0.611765 0.458824 
0 0.611765 0.458824 0 0.611765 0.458824 
0 0.611765 0.458824 0 0.611765 0.458824 
0 0.611765 0.458824 0 0.611765 0.458824 
0 0.611765 0.458824 0 0.611765 0.458824 
0 0.611765 0.458824 0 0.611765 0.458824 
0 0.611765 0.458824 0 0.611765 0.458824 
0 0.611765 0.458824 0 0.611765 0.458824 
0 0.611765 0.458824 0 0.611765 0.458824 
0 0.611765 0.458824 0 0.611765 0.458824 
0 0.611765 0.458824 0 0.611765 0.458824 
0 0.611765 0.458824 0 0.611765 0.458824 
0 0.611765 0.458824 0 0.611765 0.458824 
0 0.611765 0.458824 0 0.611765 0.458824 
0 0.611765 0.458824 0 0.611765 0.458824 
0 0.611765 0.458824 0 0.611765 0.458824 
0 0.611765 0.458824 0 0.611765 0.458824 
0 0.611765 0.458824 0 0.611765 0.458824 
0 0.611765 0.458824 0 0.611765 0.458824 
0 0.611765 0.458824 0 0.611765 0.458824 
0 0.611765 0.458824 0 0.611765 0.458824 
0 0.611765 0.458824 0 0.611765 0.458824 
0 0.611765 0.458824 0 0.611765 0.458824 
0 0.611765 0.458824 0 0.611765 0.458824 
0 0.611765 0.458824 0 0.611765 0.458824 
0 0.611765 0.458824 0 0.611765 0.458824 
0 0.611765 0.458824 0 0.611765 0.458824 
0 0.611765 0.458824 0 0.611765 0.458824 
0 0.611765 0.458824 0 0.611765 0.458824 
0 0.611765 0.458824 0 0.611765 0.458824 
0 0.611765 0.458824 0 0.611765 0.458824 
0 0.611765 0.458824 0 0.611765 0.458824 
0 0.611765 0.458824 0 0.611765 0.458824 
0 0.611765 0.458824 0 0.611765 0.458824 
0 0.611765 0.458824 0 0.611765 0.458824 
0 0.611765 0.458824 0 0.611765 0.458824 
0 0.611765 0.458824 0 0.611765 0.458824 
0 0.611765 0.458824 0 0.611765 0.458824 
0 0.611765 0.458824 0 0.611765 0.458824 
0 0.611765 0.458824 0 0.611765 0.458824 
0 0.611765 0.458824 0 0.611765 0.458824 
0 0.611765 0.458824 0 0.611765 0.458824 
0 0.611765 0.458824 0 0.611765 0.458824 
0 0.611765 0.458824 0 0.611765 0.458824 
0 0.611765 0.458824 0 0.611765 0.458824 
0 0.611765 0.458824 0 0.611765 0.458824 
0 0.611765 0.458824 0 0.611765 0.458824 
0 0.611765 0.458824 0 0.611765 0.458824 
0 0.611765 0.458824 0 0.611765 0.458824 
0 0.611765 0.458824 0 0.611765 0.458824 
0 0.611765 0.458824 0 0.611765 0.458824 
0 0.611765 0.458824 0 0.611765 0.458824 
0 0.611765 0.458824 0 0.611765 0.458824 
0 0.611765 0.458824 0 0.611765 0.458824 
0 0.611765 0.458824 0 0.611765 0.458824 
0 0.611765 0.458824 0 0.611765 0.458824 
0 0.611765 0.458824 0 0.611765 0.458824 
0 0.611765 0.458824 0 0.611765 0.458824 
0 0.611765 0.458824 0 0.611765 0.458824 
0 0.611765 0.458824 0 0.611765 0.458824 
0 0.611765 0.458824 0 0.611765 0.458824 
0 0.611765 0.458824 0 0.611765 0.458824 
0 0.611765 0.458824 0 0.611765 0.458824 
0 0.611765 0.458824 0 0.611765 0.458824 
0 0.611765 0.458824 0 0.611765 0.458824 
0 0.611765 0.458824 0 0.611765 0.458824 
0 0.611765 0.458824 0 0.611765 0.458824 
0 0.611765 0.458824 0 0.611765 0.458824 
0 0.611765 0.458824 0 0.611765 0.458824 
0 0.611765 0.458824 0 0.611765 0.458824 
0 0.611765 0.458824 0 0.611765 0.458824 
0 0.611765 0.458824 0 0.611765 0.458824 
0 0.611765 0.458824 0 0.611765 0.458824 
0 0.611765 0.458824 0 0.611765 0.458824 
0 0.611765 0.458824 0 0.611765 0.458824 
0 0.611765 0.458824 0 0.611765 0.458824 
0 0.611765 0.458824 0 0.611765 0.458824 
0 0.611765 0.458824 0 0.611765 0.458824 
0 0.611765 0.458824 0 0.611765 0.458824 
0 0.611765 0.458824 0 0.611765 0.458824 
0 0.611765 0.458824 0 0.611765 0.458824 
0 0.611765 0.458824 0 0.611765 0.458824 
0 0.611765 0.458824 0 0.611765 0.458824 
0 0.611765 0.458824 0 0.611765 0.458824 
0 0.611765 0.458824 0 0.611765 0.458824 
0 0.611765 0.458824 0 0.611765 0.458824 
0 0.611765 0.458824 0 0.611765 0.458824 
0 0.611765 0.458824 0 0.611765 0.458824 
0 0.611765 0.458824 0 0.611765 0.458824 
0 0.611765 0.458824 0 0.611765 0.458824 
0 0.611765 0.458824 0 0.611765 0.458824 
0 0.611765 0.458824 0 0.611765 0.458824 
0 0.611765 0.458824 0 0.611765 0.458824 
0 0.611765 0.458824 0 0.611765 0.458824 
0 0.611765 0.458824 0 0.611765 0.458824 
0 0.611765 0.458824 0 0.611765 0.458824 
0 0.611765 0.458824 0 0.611765 0.458824 
0 0.611765 0.458824 0 0.611765 0.458824 
0 0.611765 0.458824 0 0.611765 0.458824 
0 0.611765 0.458824 0 0.611765 0.458824 
0 0.611765 0.458824 0 0.611765 0.458824 
0 0.611765 0.458824 0 0.611765 0.458824 
0 0.611765 0.458824 0 0.611765 0.458824 
0 0.611765 0.458824 0 0.611765 0.458824 
0 0.611765 0.458824 0 0.611765 0.458824 
0 0.611765 0.458824 0 0.611765 0.458824 
0 0.611765 0.458824 0 0.611765 0.458824 
0 0.611765 0.458824 0 0.611765 0.458824 
0 0.611765 0.458824 0 0.611765 0.458824 
0 0.611765 0.458824 0 0.611765 0.458824 
0 0.611765 0.458824 0 0.611765 0.458824 
0 0.611765 0.458824 0 0.611765 0.458824 
0 0.611765 0.458824 0 0.611765 0.458824 
0 0.611765 0.458824 0 0.611765 0.458824 
0 0.611765 0.458824 0 0.611765 0.458824 
0 0.611765 0.458824 0 0.611765 0.458824 
0 0.611765 0.458824 0 0.611765 0.458824 
0 0.611765 0.458824 0 0.611765 0.458824 
0 0.611765 0.458824 0 0.611765 0.458824 
0 0.611765 0.458824 0 0.611765 0.458824 
0 0.611765 0.458824 0 0.611765 0.458824 
0 0.611765 0.458824 0 0.611765 0.458824 
0 0.611765 0.458824 0 0.611765 0.458824 
0 0.611765 0.458824 0 0.611765 0.458824 
0 0.611765 0.458824 0 0.611765 0.458824 
0 0.611765 0.458824 0 0.611765 0.458824 
0 0.611765 0.458824 0 0.611765 0.458824 
0 0.611765 0.458824 0 0.611765 0.458824 
0 0.611765 0.458824 0 0.611765 0.458824 
0 0.611765 0.458824 0 0.611765 0.458824 
0 0.611765 0.458824 0 0.611765 0.458824 
0 0.611765 0.458824 0 0.611765 0.458824 
0 0.611765 0.458824 0 0.611765 0.458824 
0 0.611765 0.458824 0 0.611765 0.458824 
0 0.611765 0.458824 0 0.611765 0.458824 
0 0.611765 0.458824 0 0.611765 0.458824 
0 0.611765 0.458824 0 0.611765 0.458824 
0 0.611765 0.458824 0 0.611765 0.458824 
0 0.611765 0.458824 0 0.611765 0.458824 
0 0.611765 0.458824 0 0.611765 0.458824 
0 0.611765 0.458824 0 0.611765 0.458824 
0 0.611765 0.458824 0 0.611765 0.458824 
0 0.611765 0.458824 0 0.611765 0.458824 
0 0.611765 0.458824 0 0.611765 0.458824 
0 0.611765 0.458824 0 0.611765 0.458824 
0 0.611765 0.458824 0 0.611765 0.458824 
0 0.611765 0.458824 0 0.611765 0.458824 
0 0.611765 0.458824 0 0.611765 0.458824 
0 0.611765 0.458824 0 0.611765 0.458824 
0 0.611765 0.458824 0 0.611765 0.458824 
0 0.611765 0.458824 0 0.611765 0.458824 
0 0.611765 0.458824 0 0.611765 0.458824 
0 0.611765 0.458824 0 0.611765 0.458824 
0 0.611765 0.458824 0 0.611765 0.458824 
0 0.611765 0.458824 0 0.611765 0.458824 
0 0.611765 0.458824 0 0.611765 0.458824 
0 0.611765 0.458824 0 0.611765 0.458824 
0 0.611765 0.458824 0 0.611765 0.458824 
0 0.611765 0.458824 0 0.611765 0.458824 
0 0.611765 0.458824 0 0.611765 0.458824 
0 0.611765 0.458824 0 0.611765 0.458824 
0 0.611765 0.458824 0 0.611765 0.458824 
0 0.611765 0.458824 0 0.611765 0.458824 
0 0.611765 0.458824 0 0.611765 0.458824 
0 0.611765 0.458824 0 0.611765 0.458824 
0 0.611765 0.458824 0 0.611765 0.458824 
0 0.611765 0.458824 0 0.611765 0.458824 
0 0.611765 0.458824 0 0.611765 0.458824 
0 0.611765 0.458824 0 0.611765 0.458824 
0 0.611765 0.458824 0 0.611765 0.458824 
0 0.611765 0.458824 0 0.611765 0.458824 
0 0.611765 0.458824 0 0.611765 0.458824 
0 0.611765 0.458824 0 0.611765 0.458824 
0 0.611765 0.458824 0 0.611765 0.458824 
0 0.611765 0.458824 0 0.611765 0.458824 
0 0.611765 0.458824 0 0.611765 0.458824 
0 0.611765 0.458824 0 0.611765 0.458824 
0 0.611765 0.458824 0 0.611765 0.458824 
0 0.611765 0.458824 0 0.611765 0.458824 
0 0.611765 0.458824 0 0.611765 0.458824 
0 0.611765 0.458824 0 0.611765 0.458824 
0 0.611765 0.458824 0 0.611765 0.458824 
0 0.611765 0.458824 0 0.611765 0.458824 
0 0.611765 0.458824 0 0.611765 0.458824 
0 0.611765 0.458824 0 0.611765 0.458824 
0 0.611765 0.458824 0 0.611765 0.458824 
0 0.611765 0.458824 0 0.611765 0.458824 
0 0.611765 0.458824 0 0.611765 0.458824 
0 0.611765 0.458824 0 0.611765 0.458824 
0 0.611765 0.458824 0 0.611765 0.458824 
0 0.611765 0.458824 0 0.611765 0.458824 
0 0.611765 0.458824 0 0.611765 0.458824 
0 0.611765 0.458824 0 0.611765 0.458824 
0 0.611765 0.458824 0 0.611765 0.458824 
0 0.611765 0.458824 0 0.611765 0.458824 
0 0.611765 0.458824 0 0.611765 0.458824 
0 0.611765 0.458824 0 0.611765 0.458824 
0 0.611765 0.458824 0 0.611765 0.458824 
0 0.611765 0.458824 0 0.611765 0.458824 
0 0.611765 0.458824 0 0.611765 0.458824 
0 0.611765 0.458824 0 0.611765 0.458824 
0 0.611765 0.458824 0 0.611765 0.458824 
0 0.611765 0.458824 0 0.611765 0.458824 
0 0.611765 0.458824 0 0.611765 0.458824 
0 0.611765 0.458824 0 0.611765 0.458824 
0 0.611765 0.458824 0 0.611765 0.458824 
0 0.611765 0.458824 0 0.611765 0.458824 
0 0.611765 0.458824 0 0.611765 0.458824 
0 0.611765 0.458824 0 0.611765 0.458824 
0 0.611765 0.458824 0 0.611765 0.458824 
0 0.611765 0.458824 0 0.611765 0.458824 
0 0.611765 0.458824 0 0.611765 0.458824 
0 0.611765 0.458824 0 0.611765 0.458824 
0 0.611765 0.458824 0 0.611765 0.458824 
0 0.611765 0.458824 0 0.611765 0.458824 
0 0.611765 0.458824 0 0.611765 0.458824 
0 0.611765 0.458824 0 0.611765 0.458824 
0 0.611765 0.458824 0 0.611765 0.458824 
0 0.611765 0.458824 0 0.611765 0.458824 
0 0.611765 0.458824 0 0.611765 0.458824 
0 0.611765 0.458824 0 0.611765 0.458824 
0 0.611765 0.458824 0 0.611765 0.458824 
0 0.611765 0.458824 0 0.611765 0.458824 
0 0.611765 0.458824 0 0.611765 0.458824 
0 0.611765 0.458824 0 0.611765 0.458824 
0 0.611765 0.458824 0 0.611765 0.458824 
0 0.611765 0.458824 0 0.611765 0.458824 
0 0.611765 0.458824 0 0.611765 0.458824 
0 0.611765 0.458824 0 0.611765 0.458824 
0 0.611765 0.458824 0 0.611765 0.458824 
0 0.611765 0.458824 0 0.611765 0.458824 
0 0.611765 0.458824 0 0.611765 0.458824 
0 0.611765 0.458824 0 0.611765 0.458824 
0 0.611765 0.458824 0 0.611765 0.458824 
0 0.611765 0.458824 0 0.611765 0.458824 
0 0.611765 0.458824 0 0.611765 0.458824 
0 0.611765 0.458824 0 0.611765 0.458824 
0 0.611765 0.458824 0 0.611765 0.458824 
0 0.611765 0.458824 0 0.611765 0.458824 
0 0.611765 0.458824 0 0.611765 0.458824 
0 0.611765 0.458824 0 0.611765 0.458824 
0 0.611765 0.458824 0 0.611765 0.458824 
0 0.611765 0.458824 0 0.611765 0.458824 
0 0.611765 0.458824 0 0.611765 0.458824 
0 0.611765 0.458824 0 0.611765 0.458824 
0 0.611765 0.458824 0 0.611765 0.458824 
0 0.611765 0.458824 0 0.611765 0.458824 
0 0.611765 0.458824 0 0.611765 0.458824 
0 0.611765 0.458824 0 0.611765 0.458824 
0 0.611765 0.458824 0 0.611765 0.458824 
0 0.611765 0.458824 0 0.611765 0.458824 
0 0.611765 0.458824 0 0.611765 0.458824 
0 0.611765 0.458824 0 0.611765 0.458824 
0 0.611765 0.458824 0 0.611765 0.458824 
0 0.611765 0.458824 0 0.611765 0.458824 
0 0.611765 0.458824 0 0.611765 0.458824 
0 0.611765 0.458824 0 0.611765 0.458824 
0 0.611765 0.458824 0 0.611765 0.458824 
0 0.611765 0.458824 0 0.611765 0.458824 
0 0.611765 0.458824 0 0.611765 0.458824 
0 0.611765 0.458824 0 0.611765 0.458824 
0 0.611765 0.458824 0 0.611765 0.458824 
0 0.611765 0.458824 0 0.611765 0.458824 
0 0.611765 0.458824 0 0.611765 0.458824 
0 0.611765 0.458824 0 0.611765 0.458824 
0 0.611765 0.458824 0 0.611765 0.458824 
0 0.611765 0.458824 0 0.611765 0.458824 
0 0.611765 0.458824 0 0.611765 0.458824 
0 0.611765 0.458824 0 0.611765 0.458824 
0 0.611765 0.458824 0 0.611765 0.458824 
0 0.611765 0.458824 0 0.611765 0.458824 
0 0.611765 0.458824 0 0.611765 0.458824 
0 0.611765 0.458824 0 0.611765 0.458824 
0 0.611765 0.458824 0 0.611765 0.458824 
0 0.611765 0.458824 0 0.611765 0.458824 
0 0.611765 0.458824 0 0.611765 0.458824 
0 0.611765 0.458824 0 0.611765 0.458824 
0 0.611765 0.458824 0 0.611765 0.458824 
0 0.611765 0.458824 0 0.611765 0.458824 
0 0.611765 0.458824 0 0.611765 0.458824 
0 0.611765 0.458824 0 0.611765 0.458824 
0 0.611765 0.458824 0 0.611765 0.458824 
0 0.611765 0.458824 0 0.611765 0.458824 
0 0.611765 0.458824 0 0.611765 0.458824 
0 0.611765 0.458824 0 0.611765 0.458824 
0 0.611765 0.458824 0 0.611765 0.458824 
0 0.611765 0.458824 0 0.611765 0.458824 
0 0.611765 0.458824 0 0.611765 0.458824 
0 0.611765 0.458824 0 0.611765 0.458824 
0 0.611765 0.458824 0 0.611765 0.458824 
0 0.611765 0.458824 0 0.611765 0.458824 
0 0.611765 0.458824 0 0.611765 0.458824 
0 0.611765 0.458824 0 0.611765 0.458824 
0 0.611765 0.458824 0 0.611765 0.458824 
0 0.611765 0.458824 0 0.611765 0.458824 
0 0.611765 0.458824 0 0.611765 0.458824 
0 0.611765 0.458824 0 0.611765 0.458824 
0 0.611765 0.458824 0 0.611765 0.458824 
0 0.611765 0.458824 0 0.611765 0.458824 
0 0.611765 0.458824 0 0.611765 0.458824 
0 0.611765 0.458824 0 0.611765 0.458824 
0 0.611765 0.458824 0 0.611765 0.458824 
0 0.611765 0.458824 0 0.611765 0.458824 
0 0.611765 0.458824 0 0.611765 0.458824 
0 0.611765 0.458824 0 0.611765 0.458824 
0 0.611765 0.458824 0 0.611765 0.458824 
0 0.611765 0.458824 0 0.611765 0.458824 
0 0.611765 0.458824 0 0.611765 0.458824 
0 0.611765 0.458824 0 0.611765 0.458824 
0 0.611765 0.458824 0 0.611765 0.458824 
0 0.611765 0.458824 0 0.611765 0.458824 
0 0.611765 0.458824 0 0.611765 0.458824 
0 0.611765 0.458824 0 0.611765 0.458824 
0 0.611765 0.458824 0 0.611765 0.458824 
0 0.611765 0.458824 0 0.611765 0.458824 
0 0.611765 0.458824 0 0.611765 0.458824 
0 0.611765 0.458824 0 0.611765 0.458824 
0 0.611765 0.458824 0 0.611765 0.458824 
0 0.611765 0.458824 0 0.611765 0.458824 
0 0.611765 0.458824 0 0.611765 0.458824 
0 0.611765 0.458824 0 0.611765 0.458824 
0 0.611765 0.458824 0 0.611765 0.458824 
0 0.611765 0.458824 0 0.611765 0.458824 
0 0.611765 0.458824 0 0.611765 0.458824 
0 0.611765 0.458824 0 0.611765 0.458824 
0 0.611765 0.458824 0 0.611765 0.458824 
0 0.611765 0.458824 0 0.611765 0.458824 
0 0.611765 0.458824 0 0.611765 0.458824 
0 0.611765 0.458824 0 0.611765 0.458824 
0 0.611765 0.458824 0 0.611765 0.458824 
0 0.611765 0.458824 0 0.611765 0.458824 
0 0.611765 0.458824 0 0.611765 0.458824 
0 0.611765 0.458824 0 0.611765 0.458824 
0 0.611765 0.458824 0 0.611765 0.458824 
0 0.611765 0.458824 0 0.611765 0.458824 
0 0.611765 0.458824 0 0.611765 0.458824 
0 0.611765 0.458824 0 0.611765 0.458824 