# vtk DataFile Version 4.2
vtk output
ASCII
DATASET POLYDATA
POINTS 9442 float
343.317 161.32 57.7668 341.726 164.016 57.8644 338.758 148.555 58.7877 
341.576 148.713 58.5267 346.423 148.401 58.5195 339.901 149.77 58.5023 
348.166 150.18 58.3662 351.81 150.091 58.7729 335.246 151.877 58.9458 
336.38 156.437 58.404 350.824 155.85 58.2749 335.437 159.446 58.4309 
353.431 158.507 58.6604 348.079 164.216 58.0556 334.416 165.354 58.5719 
349.655 165.753 58.3074 342.11 166.835 57.9941 337.074 168.057 58.2827 
339.98 167.933 58.0965 343.565 171.59 58.3578 349.809 171.051 58.8872 
336.243 173.396 58.951 341.305 175.031 58.886 345.325 142.855 59.6961 
338.775 143.953 59.7453 350.404 144.085 59.8047 337.416 146.509 59.355 
352.984 147.139 59.5739 333.802 148.343 59.8265 355.429 149.803 59.7484 
354.785 153.008 59.1674 356.964 152.599 60.0306 356.562 155.655 59.6728 
332.293 157.219 59.2709 356.598 157.678 59.6497 356.464 160.725 59.6368 
330.489 163.415 59.6903 355.586 164.894 59.5372 354.584 165.841 59.3008 
332.373 172.118 59.659 349.003 173.878 59.2484 347.616 176.575 59.664 
339.552 177.469 59.6005 340.804 139.02 60.8803 349.75 139.727 60.852 
333.515 144.485 60.7581 358.07 146.769 61.3853 330.406 150.277 60.7196 
358.829 148.348 61.7411 358.294 151.367 61.0178 359.397 151.467 62.1282 
358.459 154.534 60.9074 359.518 155.548 62.0642 357.949 158.021 60.4129 
359.076 157.116 61.4379 358.543 158.616 60.8894 357.904 160.067 60.4132 
359.538 158.584 62.061 327.699 161.573 60.927 358.498 160.67 60.8994 
359.056 160.164 61.4473 359.53 159.596 62.0668 357.981 163.216 60.5917 
359.498 161.629 62.0974 357.684 164.968 60.5336 358.915 164.284 61.5384 
358.83 166.294 61.663 356.044 169.324 60.2657 330.145 170.007 60.1542 
357.252 170.55 61.1568 354.181 172.341 60.1315 355.994 173.286 61.0321 
331.329 176.698 60.864 352.499 176.904 60.6783 340.224 181.32 60.8059 
357.764 142.441 62.1995 356.052 143.788 61.1248 358.298 143.577 62.2603 
358.363 145.318 61.9633 359.354 144.649 63.1101 359.494 147.791 62.7048 
359.836 163.992 62.8958 359.631 165.784 62.7849 357.393 173.009 61.8413 
358.683 172.206 63.0618 356.326 176.801 62.0194 352.794 178.877 61.2529 
332.377 181.332 61.8114 343.489 183.616 61.5788 345.494 133.467 62.6679 
335.437 136.211 62.7008 353.938 135.543 62.9351 331.653 139.334 62.7849 
354.919 139.632 61.8813 358.486 139.064 63.5861 358.231 141.424 62.8435 
360.062 149.181 63.551 360.116 150.195 63.5523 325.843 154.612 62.2433 
360.213 154.231 63.5248 360.065 165.156 63.6385 359.825 168.123 63.795 
359.674 169.818 64.0145 326.174 174.057 62.3558 358.857 173.079 63.644 
358.792 174.116 63.8406 357.529 176.251 62.7769 358.608 175.968 64.0465 
357.95 177.594 63.5339 355.479 180.684 62.5349 356.973 180.556 63.3454 
357.421 180.174 63.6173 355.89 182.132 63.1433 352.46 184.488 62.7915 
335.484 185.48 62.6408 350.039 185.945 62.8594 338.632 131.698 63.7536 
349.912 132.218 63.561 357.112 135.461 63.9584 358.486 136.218 64.5165 
358.84 137.278 64.4984 325.341 146.05 63.7051 360.261 147.372 64.3836 
360.466 159.493 64.3537 359.948 169.187 64.5823 323.848 170.726 63.1174 
359.113 174.329 64.6138 327.032 180.058 63.2093 357.967 179.988 64.1965 
358.558 178.989 64.8191 358.396 181.192 65.2099 328.114 182.902 63.5856 
357.077 183.563 64.3798 357.495 183.19 64.6389 330.582 186.028 63.8466 
354.212 186.28 63.8861 335.419 188.398 63.751 342.29 129.357 64.4214 
356.309 131.729 65.12 358.531 133.251 65.6143 329.662 135.412 64.7295 
359.144 133.842 66.063 360.607 150.636 65.2291 360.65 156.66 65.2196 
321.052 164.016 64.3817 360.384 166.568 65.3596 359.798 170.852 65.142 
359.666 171.732 65.2126 359.219 176.417 65.5698 357.995 182.974 65.2089 
358.027 183.724 65.5642 356.558 185.767 64.8742 357.452 186.148 65.9519 
356.208 187.438 65.3323 356.691 187.11 65.5781 350.511 190.72 64.744 
347.967 127.232 65.6117 352.229 129.083 65.3108 332.266 130.472 65.737 
359.76 135.15 66.5777 360.491 142.607 66.2373 360.637 145.699 66.1759 
360.698 147.74 66.1504 360.757 160.778 66.1522 359.627 173.726 66.2208 
321.177 176.999 65.5975 359.205 179.455 66.5338 357.25 186.987 66.1417 
328.776 188.805 65.611 356.975 188.572 66.5609 355.874 190.37 66.3174 
354.219 191.508 65.9252 335.504 126.332 66.7388 355.961 129.564 65.9844 
358.915 131.172 66.9105 359.863 133.282 67.4938 326.358 134.745 66.3027 
360.753 144.8 67.1133 319.806 149.628 66.0575 318.806 155.588 66.039 
360.716 164.813 67.1512 359.702 174.785 67.1781 359.649 175.739 67.2249 
359.199 181.489 67.4718 321.579 183.277 67.0293 358.756 184.22 67.3196 
357.149 189.72 67.3012 356.441 191.132 67.101 355.393 191.948 66.6519 
355.166 193.505 67.1718 335.663 194.89 66.4861 340.958 195.134 66.0813 
346.209 194.959 66.0788 351.981 195.236 66.9309 339.401 123.309 67.6206 
348.187 123.943 67.3616 354.003 125.793 67.3197 357.742 127.93 67.5194 
359.545 129.258 68.676 321.342 138.056 67.7004 319.027 142.516 67.8027 
360.916 155.922 68.0455 316.027 165.408 67.6359 317.052 170.939 67.3881 
319.198 180.632 67.7749 325.512 190.196 67.6691 357.905 190.149 68.8603 
356.956 192.686 68.3685 329.17 193.992 67.7836 356.769 193.604 68.5325 
355.819 195.268 68.3751 353.39 196.495 67.8766 342.056 122.003 68.1621 
360.801 138.854 69.0779 314.41 160.259 68.9278 315.163 170.744 68.9559 
315.804 175.042 69.1339 357.838 192.92 70.017 356.971 194.718 69.3262 
332.71 197.843 68.5832 355.181 197.558 69.1785 352 121.763 69.2015 
357.424 123.833 69.6017 359.207 124.307 70.8438 360.445 130.68 70.2106 
360.704 133.807 70.1091 314.7 146.286 69.7734 313.711 150.461 69.921 
314.101 152.832 69.4351 313.413 163.259 69.9242 314.086 170.268 69.9641 
317.126 180.299 69.269 359.244 183.587 69.884 320.688 187.313 69.2508 
358.464 189.545 70.3992 357.792 194.898 70.9922 329.502 198.344 69.9012 
335.545 201.218 69.8163 351.547 200.785 69.6413 354.077 200.202 70.0698 
331.932 119.854 70.8613 356.295 120.751 70.9939 358.606 122.19 71.4358 
325.205 125.349 70.5247 312.6 165.271 70.9763 357.958 195.157 71.6673 
356.926 198.612 71.6769 357.344 197.83 71.9617 355.892 200.541 71.554 
356.093 201.016 72.1023 335.446 203.143 70.9714 353.974 202.213 71.123 
342.554 203.598 70.5139 340.821 115.886 71.8633 334.825 116.931 71.7986 
349.917 117.059 71.7725 359.847 123.549 72.4157 360.089 124.617 72.3275 
311.36 153.232 71.8602 311.458 161.101 71.9841 312.136 166.536 71.7162 
313.002 173.376 71.8686 320.97 192.357 71.3953 355.763 202.48 72.587 
354.921 203.258 72.2793 334.962 114.959 72.9126 345.828 114.499 72.9779 
356.468 117.77 73.0019 358.94 119.227 73.5762 360.543 125.792 73.1499 
360.8 128.894 73.0623 314.72 134.06 72.9688 360.948 133.967 73.0152 
310.73 145.1 73.062 360.993 153.997 73.0016 360.983 158.994 73.0054 
311.085 162.541 72.6009 359.851 177.962 73.0436 314.1 181.447 72.8226 
316.313 187.796 73.1044 358.799 189.832 73.1303 357.565 198.597 73.315 
356.979 201.065 73.8563 355.659 204.389 73.7004 354.796 205.223 73.4176 
344.639 206.865 72.4536 326.977 118.172 73.2572 358.097 117.786 73.8309 
359.293 118.602 74.5242 322.241 121.847 73.4491 309.554 147.048 73.9986 
310.937 168.488 73.7948 322.458 198.343 73.5925 327.996 203.165 73.4137 
356.199 204.865 74.9197 350.911 207.955 73.5767 353.457 207.448 74.0436 
354.772 206.893 74.5668 352.123 113.395 74.8419 358.953 117.026 75.17 
360.056 119.702 75.2917 318.381 124.795 74.0938 309.016 148.516 74.5344 
309.299 159.2 74.7923 316.293 191.406 74.884 358.281 196.58 75.2524 
321.421 199.809 75.0899 356.617 205.025 76.1214 355.729 207.192 76.1333 
340.95 209.253 74.0655 353.491 209.384 75.3451 335.467 110.481 75.6679 
330.213 112.167 75.5515 326.124 114.289 75.5939 357.973 115.188 75.6249 
323.926 116.941 75.0742 359.624 116.686 76.4333 359.91 117.715 76.3113 
313.456 128.2 75.6906 311.677 178.089 75.3165 315.032 189.375 75.3027 
354.974 209.429 76.697 355.511 209.014 77.2695 345.09 211.788 75.6494 
358.038 113.052 77.3155 323.428 114.124 76.692 311.021 129.478 76.8511 
308.569 136.061 76.8959 307.777 156.444 76.8072 308.741 162.694 76.3287 
317.57 197.782 76.9805 326.639 207.902 77.0185 356.258 207.342 77.6455 
356.04 208.199 77.8157 333.234 211.754 76.9865 354.769 211.12 77.7674 
355.839 111.091 77.8047 358.965 113.897 77.5367 360.113 115.833 78.209 
360.659 118.905 78.0792 360.832 120.946 78.0376 360.986 127.995 78.0019 
309.18 130.891 77.7223 360.963 159.99 78.0121 311.781 182.982 77.2136 
358.925 189.977 78.0216 319.442 201.939 77.7595 330.023 211.055 77.5983 
353.836 212.83 78.1749 355.008 211.756 78.7116 351.439 213.884 77.8015 
329.452 107.25 78.7359 342.925 106.133 78.7436 348.861 107.307 78.8968 
323.072 111.037 78.4833 359.175 111.907 79.4584 307.087 132.192 79.0663 
305.553 143.926 79.2716 308.855 172.397 78.9761 359.792 176.952 79.0654 
312.846 188.879 78.352 316.04 197.32 78.4008 320.361 205.428 79.2567 
356.716 206.734 79.2598 338.13 215.663 78.8693 358.552 110.996 79.4171 
358.726 110.634 79.9441 317.116 114.96 79.0786 308.641 125.521 79.7744 
305.984 135.624 79.4833 305.306 150.058 80.0025 358.589 193.91 80.1221 
314.085 194.571 79.6066 317.386 201.895 79.7063 349.212 216.031 79.036 
354.66 215.009 81.0402 344.151 217.49 79.9297 337.076 103.827 80.195 
358.694 109.25 81.1714 358.394 110.029 80.1504 358.893 109.666 81.0209 
359.991 112.007 81.1292 360.26 112.996 81.0842 304.948 138.56 80.4004 
306.488 164.03 81.3039 323.396 211.132 81.1499 328.123 214.907 81.312 
329.57 215.496 81.108 334.444 216.777 80.4974 351.749 216.868 80.3273 
353.709 217.05 81.7334 354.211 216.822 82.1596 322.687 105.593 81.7047 
357.571 108.033 81.376 358.655 108.742 81.6775 359.654 110.128 82.0906 
313.145 114.85 81.1794 360.818 116.047 81.9725 309.753 182.398 81.7571 
314.008 197.566 81.7358 318.189 205.897 81.6642 352.775 217.744 81.5863 
350.842 219.289 82.1466 343.128 101.15 82.9333 358.939 107.808 82.9594 
304.23 127.808 82.7847 303.393 133.13 82.947 303.285 141.192 82.9189 
303.538 150.982 83.4969 307.812 174.325 82.7925 312.082 192.978 82.8355 
[...]
POINT_DATA 9442
COLOR_SCALARS scalars 3
0.494118 0.815686 0.294118 0.494118 0.815686 0.294118 0.494118 0.815686 0.294118 
0.494118 0.815686 0.294118 0.494118 0.815686 0.294118 
0.494118 0.815686 0.294118 0.494118 0.815686 0.294118 
0.494118 0.815686 0.294118 0.494118 0.815686 0.294118 
0.494118 0.815686 0.294118 0.494118 0.815686 0.294118 
0.494118 0.815686 0.294118 0.494118 0.815686 0.294118 
0.494118 0.815686 0.294118 0.494118 0.815686 0.294118 
0.494118 0.815686 0.294118 0.494118 0.815686 0.294118 
0.494118 0.815686 0.294118 0.494118 0.815686 0.294118 
0.494118 0.815686 0.294118 0.494118 0.815686 0.294118 
0.494118 0.815686 0.294118 0.494118 0.815686 0.294118 
0.494118 0.815686 0.294118 0.494118 0.815686 0.294118 
0.494118 0.815686 0.294118 0.494118 0.815686 0.294118 
0.494118 0.815686 0.294118 0.494118 0.815686 0.294118 
0.494118 0.815686 0.294118 0.494118 0.815686 0.294118 
0.494118 0.815686 0.294118 0.494118 0.815686 0.294118 
0.494118 0.815686 0.294118 0.494118 0.815686 0.294118 
0.494118 0.815686 0.294118 0.494118 0.815686 0.294118 
0.494118 0.815686 0.294118 0.494118 0.815686 0.294118 
0.494118 0.815686 0.294118 0.494118 0.815686 0.294118 
0.494118 0.815686 0.294118 0.494118 0.815686 0.294118 
0.494118 0.815686 0.294118 0.494118 0.815686 0.294118 
0.494118 0.815686 0.294118 0.494118 0.815686 0.294118 
0.494118 0.815686 0.294118 0.494118 0.815686 0.294118 
0.494118 0.815686 0.294118 0.494118 0.815686 0.294118 
0.494118 0.815686 0.294118 0.494118 0.815686 0.294118 
0.494118 0.815686 0.294118 0.494118 0.815686 0.294118 
0.494118 0.815686 0.294118 0.494118 0.815686 0.294118 
0.494118 0.815686 0.294118 0.494118 0.815686 0.294118 
0.494118 0.815686 0.294118 0.494118 0.815686 0.294118 
0.494118 0.815686 0.294118 0.494118 0.815686 0.294118 
0.494118 0.815686 0.294118 0.494118 0.815686 0.294118 
0.494118 0.815686 0.294118 0.494118 0.815686 0.294118 
0.494118 0.815686 0.294118 0.494118 0.815686 0.294118 
0.494118 0.815686 0.294118 0.494118 0.815686 0.294118 
0.494118 0.815686 0.294118 0.494118 0.815686 0.294118 
0.494118 0.815686 0.294118 0.494118 0.815686 0.294118 
0.494118 0.815686 0.294118 0.494118 0.815686 0.294118 
0.494118 0.815686 0.294118 0.494118 0.815686 0.294118 
0.494118 0.815686 0.294118 0.494118 0.815686 0.294118 
0.494118 0.815686 0.294118 0.494118 0.815686 0.294118 
0.494118 0.815686 0.294118 0.494118 0.815686 0.294118 
0.494118 0.815686 0.294118 0.494118 0.815686 0.294118 
0.494118 0.815686 0.294118 0.494118 0.815686 0.294118 
0.494118 0.815686 0.294118 0.494118 0.815686 0.294118 
0.494118 0.815686 0.294118 0.494118 0.815686 0.294118 
0.494118 0.815686 0.294118 0.494118 0.815686 0.294118 
0.494118 0.815686 0.294118 0.494118 0.815686 0.294118 
0.494118 0.815686 0.294118 0.494118 0.815686 0.294118 
0.494118 0.815686 0.294118 0.494118 0.815686 0.294118 
0.494118 0.815686 0.294118 0.494118 0.815686 0.294118 
0.494118 0.815686 0.294118 0.494118 0.815686 0.294118 
0.494118 0.815686 0.294118 0.494118 0.815686 0.294118 
0.494118 0.815686 0.294118 0.494118 0.815686 0.294118 
0.494118 0.815686 0.294118 0.494118 0.815686 0.294118 
0.494118 0.815686 0.294118 0.494118 0.815686 0.294118 
0.494118 0.815686 0.294118 0.494118 0.815686 0.294118 
0.494118 0.815686 0.294118 0.494118 0.815686 0.294118 
0.494118 0.815686 0.294118 0.494118 0.815686 0.294118 
0.494118 0.815686 0.294118 0.494118 0.815686 0.294118 
0.494118 0.815686 0.294118 0.494118 0.815686 0.294118 
0.494118 0.815686 0.294118 0.494118 0.815686 0.294118 
0.494118 0.815686 0.294118 0.494118 0.815686 0.294118 
0.494118 0.815686 0.294118 0.494118 0.815686 0.294118 
0.494118 0.815686 0.294118 0.494118 0.815686 0.294118 
0.494118 0.815686 0.294118 0.494118 0.815686 0.294118 
0.494118 0.815686 0.294118 0.494118 0.815686 0.294118 
0.494118 0.815686 0.294118 0.494118 0.815686 0.294118 
0.494118 0.815686 0.294118 0.494118 0.815686 0.294118 
0.494118 0.815686 0.294118 0.494118 0.815686 0.294118 
0.494118 0.815686 0.294118 0.494118 0.815686 0.294118 
0.494118 0.815686 0.294118 0.494118 0.815686 0.294118 
0.494118 0.815686 0.294118 0.494118 0.815686 0.294118 
0.494118 0.815686 0.294118 0.494118 0.815686 0.294118 
0.494118 0.815686 0.294118 0.494118 0.815686 0.294118 
0.494118 0.815686 0.294118 0.494118 0.815686 0.294118 
0.494118 0.815686 0.294118 0.494118 0.815686 0.294118 
0.494118 0.815686 0.294118 0.494118 0.815686 0.294118 
0.494118 0.815686 0.294118 0.494118 0.815686 0.294118 
0.494118 0.815686 0.294118 0.494118 0.815686 0.294118 
0.494118 0.815686 0.294118 0.494118 0.815686 0.294118 
0.494118 0.815686 0.294118 0.494118 0.815686 0.294118 
0.494118 0.815686 0.294118 0.494118 0.815686 0.294118 
0.494118 0.815686 0.294118 0.494118 0.815686 0.294118 
0.494118 0.815686 0.294118 0.494118 0.815686 0.294118 
0.494118 0.815686 0.294118 0.494118 0.815686 0.294118 
0.494118 0.815686 0.294118 0.494118 0.815686 0.294118 
0.494118 0.815686 0.294118 0.494118 0.815686 0.294118 
0.494118 0.815686 0.294118 0.494118 0.815686 0.294118 
0.494118 0.815686 0.294118 0.494118 0.815686 0.294118 
0.494118 0.815686 0.294118 0.494118 0.815686 0.294118 
0.494118 0.815686 0.294118 0.494118 0.815686 0.294118 
0.494118 0.815686 0.294118 0.494118 0.815686 0.294118 
0.494118 0.815686 0.294118 0.494118 0.815686 0.294118 
0.494118 0.815686 0.294118 0.494118 0.815686 0.294118 
0.494118 0.815686 0.294118 0.494118 0.815686 0.294118 
0.494118 0.815686 0.294118 0.494118 0.815686 0.294118 
0.494118 0.815686 0.294118 0.494118 0.815686 0.294118 
0.494118 0.815686 0.294118 0.494118 0.815686 0.294118 
0.494118 0.815686 0.294118 0.494118 0.815686 0.294118 
0.494118 0.815686 0.294118 0.494118 0.815686 0.294118 
0.494118 0.815686 0.294118 0.494118 0.815686 0.294118 
0.494118 0.815686 0.294118 0.494118 0.815686 0.294118 
0.494118 0.815686 0.294118 0.494118 0.815686 0.294118 
0.494118 0.815686 0.294118 0.494118 0.815686 0.294118 
0.494118 0.815686 0.294118 0.494118 0.815686 0.294118 
0.494118 0.815686 0.294118 0.494118 0.815686 0.294118 
0.494118 0.815686 0.294118 0.494118 0.815686 0.294118 
0.494118 0.815686 0.294118 0.494118 0.815686 0.294118 
0.494118 0.815686 0.294118 0.494118 0.815686 0.294118 
0.494118 0.815686 0.294118 0.494118 0.815686 0.294118 
0.494118 0.815686 0.294118 0.494118 0.815686 0.294118 
0.494118 0.815686 0.294118 0.494118 0.815686 0.294118 
0.494118 0.815686 0.294118 0.494118 0.815686 0.294118 
0.494118 0.815686 0.294118 0.494118 0.815686 0.294118 
0.494118 0.815686 0.294118 0.494118 0.815686 0.294118 
0.494118 0.815686 0.294118 0.494118 0.815686 0.294118 
0.494118 0.815686 0.294118 0.494118 0.815686 0.294118 
0.494118 0.815686 0.294118 0.494118 0.815686 0.294118 
0.494118 0.815686 0.294118 0.494118 0.815686 0.294118 
0.494118 0.815686 0.294118 0.494118 0.815686 0.294118 
0.494118 0.815686 0.294118 0.494118 0.815686 0.294118 
0.494118 0.815686 0.294118 0.494118 0.815686 0.294118 
0.494118 0.815686 0.294118 0.494118 0.815686 0.294118 
0.494118 0.815686 0.294118 0.494118 0.815686 0.294118 
0.494118 0.815686 0.294118 0.494118 0.815686 0.294118 
0.494118 0.815686 0.294118 0.494118 0.815686 0.294118 
0.494118 0.815686 0.294118 0.494118 0.815686 0.294118 
0.494118 0.815686 0.294118 0.494118 0.815686 0.294118 
0.494118 0.815686 0.294118 0.494118 0.815686 0.294118 
0.494118 0.815686 0.294118 0.494118 0.815686 0.294118 
0.494118 0.815686 0.294118 0.494118 0.815686 0.294118 
0.494118 0.815686 0.294118 0.494118 0.815686 0.294118 
0.494118 0.815686 0.294118 0.494118 0.815686 0.294118 
0.494118 0.815686 0.294118 0.494118 0.815686 0.294118 
0.494118 0.815686 0.294118 0.494118 0.815686 0.294118 
0.494118 0.815686 0.294118 0.494118 0.815686 0.294118 
0.494118 0.815686 0.294118 0.494118 0.815686 0.294118 
0.494118 0.815686 0.294118 0.494118 0.815686 0.294118 
0.494118 0.815686 0.294118 0.494118 0.815686 0.294118 
0.494118 0.815686 0.294118 0.494118 0.815686 0.294118 
0.494118 0.815686 0.294118 0.494118 0.815686 0.294118 
0.494118 0.815686 0.294118 0.494118 0.815686 0.294118 
0.494118 0.815686 0.294118 0.494118 0.815686 0.294118 
0.494118 0.815686 0.294118 0.494118 0.815686 0.294118 
0.494118 0.815686 0.294118 0.494118 0.815686 0.294118 
0.494118 0.815686 0.294118 0.494118 0.815686 0.294118 
0.494118 0.815686 0.294118 0.494118 0.815686 0.294118 
0.494118 0.815686 0.294118 0.494118 0.815686 0.294118 
0.494118 0.815686 0.294118 0.494118 0.815686 0.294118 
0.494118 0.815686 0.294118 0.494118 0.815686 0.294118 
0.494118 0.815686 0.294118 0.494118 0.815686 0.294118 
0.494118 0.815686 0.294118 0.494118 0.815686 0.294118 
0.494118 0.815686 0.294118 0.494118 0.815686 0.294118 
0.494118 0.815686 0.294118 0.494118 0.815686 0.294118 
0.494118 0.815686 0.294118 0.494118 0.815686 0.294118 
0.494118 0.815686 0.294118 0.494118 0.815686 0.294118 
0.494118 0.815686 0.294118 0.494118 0.815686 0.294118 
0.494118 0.815686 0.294118 0.494118 0.815686 0.294118 
0.494118 0.815686 0.294118 0.494118 0.815686 0.294118 
0.494118 0.815686 0.294118 0.494118 0.815686 0.294118 
0.494118 0.815686 0.294118 0.494118 0.815686 0.294118 
0.494118 0.815686 0.294118 0.494118 0.815686 0.294118 
0.494118 0.815686 0.294118 0.494118 0.815686 0.294118 
0.494118 0.815686 0.294118 0.494118 0.815686 0.294118 
0.494118 0.815686 0.294118 0.494118 0.815686 0.294118 
0.494118 0.815686 0.294118 0.494118 0.815686 0.294118 
0.494118 0.815686 0.294118 0.494118 0.815686 0.294118 
0.494118 0.815686 0.294118 0.494118 0.815686 0.294118 
0.494118 0.815686 0.294118 0.494118 0.815686 0.294118 
0.494118 0.815686 0.294118 0.494118 0.815686 0.294118 
0.494118 0.815686 0.294118 0.494118 0.815686 0.294118 
0.494118 0.815686 0.294118 0.494118 0.815686 0.294118 
0.494118 0.815686 0.294118 0.494118 0.815686 0.294118 
0.494118 0.815686 0.294118 0.494118 0.815686 0.294118 
0.494118 0.815686 0.294118 0.494118 0.815686 0.294118 
0.494118 0.815686 0.294118 0.494118 0.815686 0.294118 
0.494118 0.815686 0.294118 0.494118 0.815686 0.294118 
0.494118 0.815686 0.294118 0.494118 0.815686 0.294118 
0.494118 0.815686 0.294118 0.494118 0.815686 0.294118 
0.494118 0.815686 0.294118 0.494118 0.815686 0.294118 
0.494118 0.815686 0.294118 0.494118 0.815686 0.294118 
0.494118 0.815686 0.294118 0.494118 0.815686 0.294118 
0.494118 0.815686 0.294118 0.494118 0.815686 0.294118 
0.494118 0.815686 0.294118 0.494118 0.815686 0.294118 
0.494118 0.815686 0.294118 0.494118 0.815686 0.294118 
0.494118 0.815686 0.294118 0.494118 0.815686 0.294118 
0.494118 0.815686 0.294118 0.494118 0.815686 0.294118 
0.494118 0.815686 0.294118 0.494118 0.815686 0.294118 
0.494118 0.815686 0.294118 0.494118 0.815686 0.294118 
0.494118 0.815686 0.294118 0.494118 0.815686 0.294118 
0.494118 0.815686 0.294118 0.494118 0.815686 0.294118 
0.494118 0.815686 0.294118 0.494118 0.815686 0.294118 
0.494118 0.815686 0.294118 0.494118 0.815686 0.294118 
0.494118 0.815686 0.294118 0.494118 0.815686 0.294118 
0.494118 0.815686 0.294118 0.494118 0.815686 0.294118 
0.494118 0.815686 0.294118 0.494118 0.815686 0.294118 
0.494118 0.815686 0.294118 0.494118 0.815686 0.294118 
0.494118 0.815686 0.294118 0.494118 0.815686 0.294118 
0.494118 0.815686 0.294118 0.494118 0.815686 0.294118 
0.494118 0.815686 0.294118 0.494118 0.815686 0.294118 
0.494118 0.815686 0.294118 0.494118 0.815686 0.294118 
0.494118 0.815686 0.294118 0.494118 0.815686 0.294118 
0.494118 0.815686 0.294118 0.494118 0.815686 0.294118 
0.494118 0.815686 0.294118 0.494118 0.815686 0.294118 
0.494118 0.815686 0.294118 0.494118 0.815686 0.294118 
0.494118 0.815686 0.294118 0.494118 0.815686 0.294118 
0.494118 0.815686 0.294118 0.494118 0.815686 0.294118 
0.494118 0.815686 0.294118 0.494118 0.815686 0.294118 
0.494118 0.815686 0.294118 0.494118 0.815686 0.294118 
0.494118 0.815686 0.294118 0.494118 0.815686 0.294118 
0.494118 0.815686 0.294118 0.494118 0.815686 0.294118 
0.494118 0.815686 0.294118 0.494118 0.815686 0.294118 
0.494118 0.815686 0.294118 0.494118 0.815686 0.294118 
0.494118 0.815686 0.294118 0.494118 0.815686 0.294118 
0.494118 0.815686 0.294118 0.494118 0.815686 0.294118 
0.494118 0.815686 0.294118 0.494118 0.815686 0.294118 
0.494118 0.815686 0.294118 0.494118 0.815686 0.294118 
0.494118 0.815686 0.294118 0.494118 0.815686 0.294118 
0.494118 0.815686 0.294118 0.494118 0.815686 0.294118 
0.494118 0.815686 0.294118 0.494118 0.815686 0.294118 
0.494118 0.815686 0.294118 0.494118 0.815686 0.294118 
0.494118 0.815686 0.294118 0.494118 0.815686 0.294118 
0.494118 0.815686 0.294118 0.494118 0.815686 0.294118 
0.494118 0.815686 0.294118 0.494118 0.815686 0.294118 
0.494118 0.815686 0.294118 0.494118 0.815686 0.294118 
0.494118 0.815686 0.294118 0.494118 0.815686 0.294118 
0.494118 0.815686 0.294118 0.494118 0.815686 0.294118 
0.494118 0.815686 0.294118 0.494118 0.815686 0.294118 
0.494118 0.815686 0.294118 0.494118 0.815686 0.294118 
0.494118 0.815686 0.294118 0.494118 0.815686 0.294118 
0.494118 0.815686 0.294118 0.494118 0.815686 0.294118 
0.494118 0.815686 0.294118 0.494118 0.815686 0.294118 
0.494118 0.815686 0.294118 0.494118 0.815686 0.294118 
0.494118 0.815686 0.294118 0.494118 0.815686 0.294118 
0.494118 0.815686 0.294118 0.494118 0.815686 0.294118 
0.494118 0.815686 0.294118 0.494118 0.815686 0.294118 
0.494118 0.815686 0.294118 0.494118 0.815686 0.294118 
0.494118 0.815686 0.294118 0.494118 0.815686 0.294118 
0.494118 0.815686 0.294118 0.494118 0.815686 0.294118 
0.494118 0.815686 0.294118 0.494118 0.815686 0.294118 
0.494118 0.815686 0.294118 0.494118 0.815686 0.294118 
0.494118 0.815686 0.294118 0.494118 0.815686 0.294118 
0.494118 0.815686 0.294118 0.494118 0.815686 0.294118 
0.494118 0.815686 0.294118 0.494118 0.815686 0.294118 
0.494118 0.815686 0.294118 0.494118 0.815686 0.294118 
0.494118 0.815686 0.294118 0.494118 0.815686 0.294118 
0.494118 0.815686 0.294118 0.494118 0.815686 0.294118 
0.494118 0.815686 0.294118 0.494118 0.815686 0.294118 
0.494118 0.815686 0.294118 0.494118 0.815686 0.294118 
0.494118 0.815686 0.294118 0.494118 0.815686 0.294118 
0.494118 0.815686 0.294118 0.494118 0.815686 0.294118 
0.494118 0.815686 0.294118 0.494118 0.815686 0.294118 
0.494118 0.815686 0.294118 0.494118 0.815686 0.294118 
0.494118 0.815686 0.294118 0.494118 0.815686 0.294118 
0.494118 0.815686 0.294118 0.494118 0.815686 0.294118 
0.494118 0.815686 0.294118 0.494118 0.815686 0.294118 
0.494118 0.815686 0.294118 0.494118 0.815686 0.294118 
0.494118 0.815686 0.294118 0.494118 0.815686 0.294118 
0.494118 0.815686 0.294118 0.494118 0.815686 0.294118 
0.494118 0.815686 0.294118 0.494118 0.815686 0.294118 
0.494118 0.815686 0.294118 0.494118 0.815686 0.294118 
0.494118 0.815686 0.294118 0.494118 0.815686 0.294118 
0.494118 0.815686 0.294118 0.494118 0.815686 0.294118 
0.494118 0.815686 0.294118 0.494118 0.815686 0.294118 
0.494118 0.815686 0.294118 0.494118 0.815686 0.294118 
0.494118 0.815686 0.294118 0.494118 0.815686 0.294118 
0.494118 0.815686 0.294118 0.494118 0.815686 0.294118 
0.494118 0.815686 0.294118 0.494118 0.815686 0.294118 
0.494118 0.815686 0.294118 0.494118 0.815686 0.294118 
0.494118 0.815686 0.294118 0.494118 0.815686 0.294118 
0.494118 0.815686 0.294118 0.494118 0.815686 0.294118 
0.494118 0.815686 0.294118 0.494118 0.815686 0.294118 
0.494118 0.815686 0.294118 0.494118 0.815686 0.294118 
0.494118 0.815686 0.294118 0.494118 0.815686 0.294118 
0.494118 0.815686 0.294118 0.494118 0.815686 0.294118 
0.494118 0.815686 0.294118 0.494118 0.815686 0.294118 
0.494118 0.815686 0.294118 0.494118 0.815686 0.294118 
0.494118 0.815686 0.294118 0.494118 0.815686 0.294118 
0.494118 0.815686 0.294118 0.494118 0.815686 0.294118 
0.494118 0.815686 0.294118 0.494118 0.815686 0.294118 
0.494118 0.815686 0.294118 0.494118 0.815686 0.294118 
0.494118 0.815686 0.294118 0.494118 0.815686 0.294118 
0.494118 0.815686 0.294118 0.494118 0.815686 0.294118 
0.494118 0.815686 0.294118 0.494118 0.815686 0.294118 
0.494118 0.815686 0.294118 0.494118 0.815686 0.294118 
0.494118 0.815686 0.294118 0.494118 0.815686 0.294118 
0.494118 0.815686 0.294118 0.494118 0.815686 0.294118 
0.494118 0.815686 0.294118 0.494118 0.815686 0.294118 
0.494118 0.815686 0.294118 0.494118 0.815686 0.294118 
0.494118 0.815686 0.294118 0.494118 0.815686 0.294118 
0.494118 0.815686 0.294118 0.494118 0.815686 0.294118 
0.494118 0.815686 0.294118 0.494118 0.815686 0.294118 
0.494118 0.815686 0.294118 0.494118 0.815686 0.294118 
0.494118 0.815686 0.294118 0.494118 0.815686 0.294118 
0.494118 0.815686 0.294118 0.494118 0.815686 0.294118 
0.494118 0.815686 0.294118 0.494118 0.815686 0.294118 
0.494118 0.815686 0.294118 0.494118 0.815686 0.294118 
0.494118 0.815686 0.294118 0.494118 0.815686 0.294118 
0.494118 0.815686 0.294118 0.494118 0.815686 0.294118 
0.494118 0.815686 0.294118 0.494118 0.815686 0.294118 
0.494118 0.815686 0.294118 0.494118 0.815686 0.294118 
0.494118 0.815686 0.294118 0.494118 0.815686 0.294118 
0.494118 0.815686 0.294118 0.494118 0.815686 0.294118 
0.494118 0.815686 0.294118 0.494118 0.815686 0.294118 
0.494118 0.815686 0.294118 0.494118 0.815686 0.294118 
0.494118 0.815686 0.294118 0.494118 0.815686 0.294118 
0.494118 0.815686 0.294118 0.494118 0.815686 0.294118 
0.494118 0.815686 0.294118 0.494118 0.815686 0.294118 
0.494118 0.815686 0.294118 0.494118 0.815686 0.294118 
0.494118 0.815686 0.294118 0.494118 0.815686 0.294118 
0.494118 0.815686 0.294118 0.494118 0.815686 0.294118 
0.494118 0.815686 0.294118 0.494118 0.815686 0.294118 
0.494118 0.815686 0.294118 0.494118 0.815686 0.294118 
0.494118 0.815686 0.294118 0.494118 0.815686 0.294118 
0.494118 0.815686 0.294118 0.494118 0.815686 0.294118 
0.494118 0.815686 0.294118 0.494118 0.815686 0.294118 
0.494118 0.815686 0.294118 0.494118 0.815686 0.294118 
0.494118 0.815686 0.294118 0.494118 0.815686 0.294118 
0.494118 0.815686 0.294118 0.494118 0.815686 0.294118 
0.494118 0.815686 0.294118 0.494118 0.815686 0.294118 
0.494118 0.815686 0.294118 0.494118 0.815686 0.294118 
0.494118 0.815686 0.294118 0.494118 0.815686 0.294118 
0.494118 0.815686 0.294118 0.494118 0.815686 0.294118 
0.494118 0.815686 0.294118 0.494118 0.815686 0.294118 
0.494118 0.815686 0.294118 0.494118 0.815686 0.294118 
0.494118 0.815686 0.294118 0.494118 0.815686 0.294118 
0.494118 0.815686 0.294118 0.494118 0.815686 0.294118 
0.494118 0.815686 0.294118 0.494118 0.815686 0.294118 
0.494118 0.815686 0.294118 0.494118 0.815686 0.294118 
0.494118 0.815686 0.294118 0.494118 0.815686 0.294118 
0.494118 0.815686 0.294118 0.494118 0.815686 0.294118 
0.494118 0.815686 0.294118 0.494118 0.815686 0.294118 
0.494118 0.815686 0.294118 0.494118 0.815686 0.294118 
0.494118 0.815686 0.294118 0.494118 0.815686 0.294118 
0.494118 0.815686 0.294118 0.494118 0.815686 0.294118 
0.494118 0.815686 0.294118 0.494118 0.815686 0.294118 
0.494118 0.815686 0.294118 0.494118 0.815686 0.294118 
0.494118 0.815686 0.294118 0.494118 0.815686 0.294118 
0.494118 0.815686 0.294118 0.494118 0.815686 0.294118 
0.494118 0.815686 0.294118 0.494118 0.815686 0.294118 
0.494118 0.815686 0.294118 0.494118 0.815686 0.294118 
0.494118 0.815686 0.294118 0.494118 0.815686 0.294118 
0.494118 0.815686 0.294118 0.494118 0.815686 0.294118 
0.494118 0.815686 0.294118 0.494118 0.815686 0.294118 
0.494118 0.815686 0.294118 0.494118 0.815686 0.294118 
0.494118 0.815686 0.294118 0.494118 0.815686 0.294118 
0.494118 0.815686 0.294118 0.494118 0.815686 0.294118 
0.494118 0.815686 0.294118 0.494118 0.815686 0.294118 
0.494118 0.815686 0.294118 0.494118 0.815686 0.294118 
0.494118 0.815686 0.294118 0.494118 0.815686 0.294118 
0.494118 0.815686 0.294118 0.494118 0.815686 0.294118 
0.494118 0.815686 0.294118 0.494118 0.815686 0.294118 
0.494118 0.815686 0.294118 0.494118 0.815686 0.294118 
0.494118 0.815686 0.294118 0.494118 0.815686 0.294118 
0.494118 0.815686 0.294118 0.494118 0.815686 0.294118 
0.494118 0.815686 0.294118 0.494118 0.815686 0.294118 
0.494118 0.815686 0.294118 0.494118 0.815686 0.294118 
0.494118 0.815686 0.294118 0.494118 0.815686 0.294118 
0.494118 0.815686 0.294118 0.494118 0.815686 0.294118 
0.494118 0.815686 0.294118 0.494118 0.815686 0.294118 
0.494118 0.815686 0.294118 0.494118 0.815686 0.294118 