# vtk DataFile Version 4.2
vtk output
ASCII
DATASET POLYDATA
POINTS 17944 float
343.124 184.27 26.1621 343.758 183.947 26.3273 340.944 184.843 26.3388 
342.115 184.249 26.4445 342.967 184.842 25.8648 339.375 185.264 26.6455 
338.894 185.815 26.2887 341.448 185.395 25.8324 336.963 186.832 26.1358 
337.488 187.384 25.6874 333.953 188.508 25.9232 335.37 188.276 25.7107 
336.223 188.306 25.577 331.102 189.621 26.0803 330.719 189.237 26.5379 
333.439 189.125 25.7211 329.016 190.764 26.2337 329.614 190.878 25.9626 
333.688 190.403 25.4124 348.967 181.262 26.9747 347.567 181.557 27.2627 
350.172 181.306 26.7237 345.509 182.544 27.1734 346.95 182.805 26.5355 
350.607 182.201 26.383 343.245 183.343 27.1176 345.709 183.949 26.1384 
347.367 183.482 26.1629 341.288 184.051 27.1539 341.967 183.895 26.9546 
348.545 183.917 26.0099 338.18 185.626 26.8671 339.467 184.833 27.2005 
346.56 185.702 25.7362 332.453 188.003 27.1241 347.341 187.371 25.8288 
329.296 189.621 26.9589 331.202 188.701 26.9038 336.533 190.532 25.366 
344.319 189.458 25.7421 325.238 191.972 27.1232 328.126 191.767 26.1942 
331.646 191.387 25.5265 323.144 192.889 27.2324 325.96 192.762 26.4453 
339.667 191.712 25.6996 321.878 193.803 27.0991 321.126 193.748 27.3898 
320.33 194.419 27.2766 320.005 194.307 27.509 322.52 194.316 26.7001 
326.995 193.943 26.0535 332.705 193.76 25.7251 335.325 193.383 25.7432 
320.287 195.012 27.0949 355.07 177.28 27.9615 353.192 178.227 28.0077 
357.789 177.11 27.54 354.025 179.097 27.2619 350.152 179.85 27.8441 
353.757 179.766 27.0457 356.887 180.033 26.8332 344.689 182.702 27.351 
351.311 182.737 26.3043 343.155 182.989 27.8111 355.352 183.625 26.523 
339.266 184.678 27.7686 330.263 188.678 27.7704 325.444 191.061 28.0678 
323.338 192.045 28.0453 320.868 193.511 27.7231 321.56 192.805 28.181 
319.805 193.98 28.0035 319.526 194.688 27.5853 322.712 195.642 26.4502 
320.596 196.451 26.7478 312.197 197.845 28.4433 313.81 197.685 27.964 
318.367 197.297 27.0752 329.737 196.899 26.3661 336.432 196.767 26.6894 
311.722 198.746 28.2222 324.696 197.761 26.5335 316.794 199.32 27.2001 
356.481 175.418 29.0582 358.854 176.009 28.0237 352.855 177.816 28.5387 
362.695 177.966 27.6523 359.248 180.43 27.0156 347.838 180.568 28.371 
362.328 180.544 27.466 344.506 182.332 28.0618 339.119 184.521 28.533 
335.7 186.193 28.1581 354.76 189.827 27.2302 323.815 191.535 28.6014 
320.636 192.902 28.9841 314.013 196.495 28.754 344.475 196.732 27.6002 
307.96 199.716 29.2349 338.598 198.863 27.5876 308.687 200.468 28.6788 
329.662 200.074 27.2921 308.278 200.992 28.6832 311.529 201.058 28.0094 
363.239 171.776 29.2102 367.737 171.904 29.0026 361.796 173.594 28.7172 
366.915 175.999 28.3506 352.964 176.997 29.5364 370.203 176.436 28.8397 
367.348 184.602 28.718 329.997 188.375 29.3589 323.972 191.198 29.2967 
360.042 192.268 28.8011 319.319 193.362 29.6115 311.574 197.29 29.3388 
312.266 196.614 29.8494 349.491 197.724 28.7036 308.218 198.813 29.8982 
306.003 201.805 29.1992 302.278 202.237 30.4677 304.71 202.493 29.4221 
305.613 202.41 29.1968 302.52 203.506 29.843 303.606 203.27 29.5503 
309.051 203.148 28.6079 311.005 203.108 28.3875 303.63 203.844 29.4805 
303.975 204.229 29.4287 305.844 203.772 29.1089 318.446 204.631 28.5565 
369.85 169.02 29.9488 365.45 170.566 29.4238 361.795 170.691 30.3003 
362.98 171.156 29.5625 360.816 171.68 30.1279 359.497 172.432 30.2987 
373.504 172.901 29.7278 348.187 179.72 29.733 344.796 181.472 30.2545 
340.327 183.744 29.7215 324.451 190.697 30.6538 317.743 194.036 29.9737 
315.487 195.035 30.0568 308.895 198.163 30.3231 351.788 198.365 29.3254 
304.824 200.563 30.3892 301.841 203.543 30.1086 335.945 204.173 29.3676 
299.114 205.009 30.6767 300.543 205.162 30.2728 328.707 204.919 29.0474 
301.361 205.721 30.1304 308.469 206.769 29.5865 315.658 206.872 29.3523 
374.501 166.17 31.0751 374.947 166.615 31.0043 363.568 168.44 31.1372 
361.878 169.388 31.4156 359.697 171.26 31.5595 354.902 175.07 31.1253 
356.137 174.189 31.3132 375.387 181.655 30.3781 373.447 184.755 30.2921 
369.075 189.402 30.1418 312.759 195.937 31.0259 299.93 202.454 31.5761 
296.679 204.393 31.9261 297.314 203.803 31.9454 340.139 204.35 29.9448 
294.821 205.799 32.1696 296.952 205.726 31.3105 295.376 206.678 31.7612 
296.553 206.331 31.3887 299.195 207.789 30.9683 336.125 207.328 30.7309 
304.623 209.304 30.8107 370.59 164.34 31.7347 367.095 164.976 32.1243 
363.229 166.993 32.8286 379.482 167.605 31.7559 359.489 171.001 32.2787 
380.486 175.56 31.6513 379.136 182.475 31.8018 378.128 184.485 31.7878 
304.242 199.942 31.6989 304.328 199.596 32.4367 297.155 203.395 32.4658 
295.891 204.516 32.3284 293.827 206.227 32.5902 293.945 207.335 32.3148 
294.638 207.45 32.0529 372.734 161.452 32.8573 369.651 161.869 33.3151 
378.228 163.332 32.3527 382.613 167.684 32.6919 381.925 172.063 32.1792 
383.815 175.027 33.0561 374.487 192.651 32.7647 302.066 200.369 33.3211 
295.565 204.213 32.8462 292.84 205.759 33.5961 290.87 207.813 33.6645 
354.146 206.182 32.7905 290.939 208.469 33.4672 293.726 208.442 32.4932 
293.338 209.145 32.736 292.407 209.884 33.0972 336.259 212.348 32.7702 
301.258 213.462 32.8073 315.762 213.883 32.2287 370.576 159.967 34.2395 
376.189 160.193 33.2035 383.492 161.956 33.7945 366.189 163.517 33.9205 
366.36 162.862 34.542 385.329 167.454 33.8337 359.423 170.151 34.5503 
344.656 181.071 33.4697 337.382 184.806 33.8391 335.285 185.746 33.8001 
378.813 189.191 33.3696 368.797 199.83 33.6665 296.522 202.988 33.8045 
292.572 205.362 34.2116 291.427 206.383 34.08 288.747 208.605 34.4586 
287.822 208.608 34.8915 286.998 209.407 34.9888 288.146 210.475 34.4451 
289.43 210.832 34.1032 292.68 212.364 33.7848 310.791 216.002 33.2148 
374.729 156.065 35.2375 374.613 157.388 34.5835 376.171 156.442 34.7968 
378.677 156.511 34.717 371.441 157.783 35.4093 369.694 159.302 35.2619 
385.643 158.975 35.1444 386.377 160.551 35.1196 387.056 163.67 34.9922 
363.248 165.799 34.6406 386.161 179.664 35.0988 383.55 185.18 34.7572 
311.722 195.772 34.8785 292.892 204.445 35.3808 287.449 208.324 35.2234 
287.37 207.938 35.5614 287.829 207.537 35.6215 285.397 209.132 36.0268 
285.04 209.781 35.8353 283.947 210.285 36.1572 283.867 210.539 36.1317 
285.839 210.62 35.2941 285.499 211.827 35.4519 305.956 218.736 34.701 
379.203 154.908 35.3662 373.663 155.229 36.1271 383.981 156.238 35.4153 
369.403 158.637 36.1519 388.019 168.088 35.2685 356.702 172.397 36.5504 
387.954 175.974 35.6767 342.709 181.913 36.0743 379.319 195.168 35.7868 
283.885 209.994 36.3556 282.477 211.361 36.9304 282.627 210.749 36.9852 
282.568 212.304 36.9553 282.815 211.874 36.7295 284.538 212.882 36.1255 
287.941 213.892 35.4665 353.55 213.721 35.6029 298.736 218.737 35.463 
380.648 151.301 36.7078 376.477 152.589 36.7589 373.879 153.958 36.9829 
359.285 169.727 36.9476 372.559 204.441 36.7227 285.704 207.47 37.6215 
281.477 212.715 37.9819 285.264 214.043 36.4379 284.514 214.708 37.2609 
285.946 215.777 37.5332 289.108 216.049 36.3322 289.844 217.712 37.3724 
289.953 217.402 36.9985 290.552 217.99 37.2936 292.862 218.607 36.8358 
297.967 219.252 35.8632 296.856 219.751 36.4115 294.508 219.832 37.2517 
296.14 220.314 37.0318 296.69 220.714 37.2045 298.092 221.128 37.0825 
298.615 221.473 37.256 299.532 221.185 36.791 318.011 222.238 36.0389 
303.979 222.399 37.0496 304.468 222.727 37.3008 309.558 222.719 36.6634 
381.828 147.695 38.0903 382.416 149.313 37.4928 372.133 154.369 38.0678 
390.096 154.77 37.8858 370.692 155.812 38.0414 391.267 158.868 37.8068 
338.331 184.05 37.9104 385.834 189.758 37.7797 290.253 204.917 38.0021 
282.048 210.309 37.7582 280.921 211.451 38.7052 280.477 212.4 39.442 
280.562 212.83 39.4555 280.809 213.129 39.2384 281.261 213.312 38.7347 
281.058 213.533 39.4518 282.135 214.474 39.2584 283.694 214.847 38.0634 
286.363 216.337 38.1254 286.049 216.455 38.7227 287.607 217.281 38.9801 
289.533 218.088 38.3804 291.184 218.556 37.6331 290.096 218.515 38.7368 
291.115 218.815 38.1885 293.241 219.542 37.6273 291.786 219.28 38.7936 
292.909 219.795 38.7956 293.521 219.992 38.2512 295.221 220.421 37.6103 
294.542 220.652 38.6611 295.056 220.667 38.1277 297.091 221.199 37.6573 
294.904 220.77 38.5042 297.566 221.851 38.854 299.978 222.12 37.6253 
302.937 222.598 37.5077 299.047 222.255 38.2412 307.963 223.714 37.7494 
308.963 223.8 37.6505 336.628 224.159 37.2699 299.627 222.528 38.4724 
303.502 223.312 38.666 311.711 224.533 37.9492 317.885 224.875 37.4444 
312.494 225.08 38.4736 322.602 225.688 37.7409 326.319 226.299 37.9775 
383.327 143.686 39.7319 381.905 145.151 39.2567 383.661 145.714 38.8772 
384.53 146.335 38.7044 379.5 147.536 38.6 386.259 148.17 38.41 
392.814 171.851 38.7526 389.968 182.379 38.5851 379.573 202.107 38.8853 
282.151 209.254 38.8485 280.737 210.761 39.6111 280.273 212.183 39.9332 
280.52 213.143 40.3876 366.531 213.842 38.7029 282.377 214.727 39.5194 
286.899 216.978 39.815 362.36 216.76 38.7484 290.397 218.706 39.2399 
293.706 220.202 39.5085 295.862 221.214 39.2719 353.514 221.635 38.7209 
298.291 222.145 39.0345 299.842 222.671 38.8985 304.412 223.666 39.3427 
306.545 224.188 39.0925 314.427 225.724 38.8365 316.44 225.913 38.5462 
317.415 225.973 38.4135 310.183 225.256 39.6348 314.589 226.332 40.0081 
319.129 226.546 38.7761 321.997 226.728 38.6115 330.138 227.183 38.425 
317.491 227.072 40.1038 317.323 226.82 39.6107 318.081 226.864 39.4354 
320.844 227.088 39.2153 323.663 227.333 39.047 341.001 227.253 38.924 
321.669 227.521 39.7677 322.455 227.559 39.6035 326.493 228.008 39.3829 
385.252 141.65 40.4844 384.107 142.127 40.416 386.171 143.102 39.9713 
379.214 146.248 39.5674 390.739 149.741 39.2542 394.582 166.681 39.7381 
357.443 171.103 40.3648 393.621 174.775 39.8632 385.172 195.174 39.3813 
281.466 209.614 39.5877 280.212 211.809 40.1869 280.726 213.489 40.6121 
280.806 213.586 41.0051 282.435 214.778 40.4848 284.751 215.934 40.7808 
287.127 217.018 40.5214 295.732 221.042 40.233 310.875 225.524 40.3595 
[...]
POINT_DATA 17944
COLOR_SCALARS scalars 3
0.494118 0.815686 0.294118 0.494118 0.815686 0.294118 0.494118 0.815686 0.294118 
0.494118 0.815686 0.294118 0.494118 0.815686 0.294118 
0.494118 0.815686 0.294118 0.494118 0.815686 0.294118 
0.494118 0.815686 0.294118 0.494118 0.815686 0.294118 
0.494118 0.815686 0.294118 0.494118 0.815686 0.294118 
0.494118 0.815686 0.294118 0.494118 0.815686 0.294118 
0.494118 0.815686 0.294118 0.494118 0.815686 0.294118 
0.494118 0.815686 0.294118 0.494118 0.815686 0.294118 
0.494118 0.815686 0.294118 0.494118 0.815686 0.294118 
0.494118 0.815686 0.294118 0.494118 0.815686 0.294118 
0.494118 0.815686 0.294118 0.494118 0.815686 0.294118 
0.494118 0.815686 0.294118 0.494118 0.815686 0.294118 
0.494118 0.815686 0.294118 0.494118 0.815686 0.294118 
0.494118 0.815686 0.294118 0.494118 0.815686 0.294118 
0.494118 0.815686 0.294118 0.494118 0.815686 0.294118 
0.494118 0.815686 0.294118 0.494118 0.815686 0.294118 
0.494118 0.815686 0.294118 0.494118 0.815686 0.294118 
0.494118 0.815686 0.294118 0.494118 0.815686 0.294118 
0.494118 0.815686 0.294118 0.494118 0.815686 0.294118 
0.494118 0.815686 0.294118 0.494118 0.815686 0.294118 
0.494118 0.815686 0.294118 0.494118 0.815686 0.294118 
0.494118 0.815686 0.294118 0.494118 0.815686 0.294118 
0.494118 0.815686 0.294118 0.494118 0.815686 0.294118 
0.494118 0.815686 0.294118 0.494118 0.815686 0.294118 
0.494118 0.815686 0.294118 0.494118 0.815686 0.294118 
0.494118 0.815686 0.294118 0.494118 0.815686 0.294118 
0.494118 0.815686 0.294118 0.494118 0.815686 0.294118 
0.494118 0.815686 0.294118 0.494118 0.815686 0.294118 
0.494118 0.815686 0.294118 0.494118 0.815686 0.294118 
0.494118 0.815686 0.294118 0.494118 0.815686 0.294118 
0.494118 0.815686 0.294118 0.494118 0.815686 0.294118 
0.494118 0.815686 0.294118 0.494118 0.815686 0.294118 
0.494118 0.815686 0.294118 0.494118 0.815686 0.294118 
0.494118 0.815686 0.294118 0.494118 0.815686 0.294118 
0.494118 0.815686 0.294118 0.494118 0.815686 0.294118 
0.494118 0.815686 0.294118 0.494118 0.815686 0.294118 
0.494118 0.815686 0.294118 0.494118 0.815686 0.294118 
0.494118 0.815686 0.294118 0.494118 0.815686 0.294118 
0.494118 0.815686 0.294118 0.494118 0.815686 0.294118 
0.494118 0.815686 0.294118 0.494118 0.815686 0.294118 
0.494118 0.815686 0.294118 0.494118 0.815686 0.294118 
0.494118 0.815686 0.294118 0.494118 0.815686 0.294118 
0.494118 0.815686 0.294118 0.494118 0.815686 0.294118 
0.494118 0.815686 0.294118 0.494118 0.815686 0.294118 
0.494118 0.815686 0.294118 0.494118 0.815686 0.294118 
0.494118 0.815686 0.294118 0.494118 0.815686 0.294118 
0.494118 0.815686 0.294118 0.494118 0.815686 0.294118 
0.494118 0.815686 0.294118 0.494118 0.815686 0.294118 
0.494118 0.815686 0.294118 0.494118 0.815686 0.294118 
0.494118 0.815686 0.294118 0.494118 0.815686 0.294118 
0.494118 0.815686 0.294118 0.494118 0.815686 0.294118 
0.494118 0.815686 0.294118 0.494118 0.815686 0.294118 
0.494118 0.815686 0.294118 0.494118 0.815686 0.294118 
0.494118 0.815686 0.294118 0.494118 0.815686 0.294118 
0.494118 0.815686 0.294118 0.494118 0.815686 0.294118 
0.494118 0.815686 0.294118 0.494118 0.815686 0.294118 
0.494118 0.815686 0.294118 0.494118 0.815686 0.294118 
0.494118 0.815686 0.294118 0.494118 0.815686 0.294118 
0.494118 0.815686 0.294118 0.494118 0.815686 0.294118 
0.494118 0.815686 0.294118 0.494118 0.815686 0.294118 
0.494118 0.815686 0.294118 0.494118 0.815686 0.294118 
0.494118 0.815686 0.294118 0.494118 0.815686 0.294118 
0.494118 0.815686 0.294118 0.494118 0.815686 0.294118 
0.494118 0.815686 0.294118 0.494118 0.815686 0.294118 
0.494118 0.815686 0.294118 0.494118 0.815686 0.294118 
0.494118 0.815686 0.294118 0.494118 0.815686 0.294118 
0.494118 0.815686 0.294118 0.494118 0.815686 0.294118 
0.494118 0.815686 0.294118 0.494118 0.815686 0.294118 
0.494118 0.815686 0.294118 0.494118 0.815686 0.294118 
0.494118 0.815686 0.294118 0.494118 0.815686 0.294118 
0.494118 0.815686 0.294118 0.494118 0.815686 0.294118 
0.494118 0.815686 0.294118 0.494118 0.815686 0.294118 
0.494118 0.815686 0.294118 0.494118 0.815686 0.294118 
0.494118 0.815686 0.294118 0.494118 0.815686 0.294118 
0.494118 0.815686 0.294118 0.494118 0.815686 0.294118 
0.494118 0.815686 0.294118 0.494118 0.815686 0.294118 
0.494118 0.815686 0.294118 0.494118 0.815686 0.294118 
0.494118 0.815686 0.294118 0.494118 0.815686 0.294118 
0.494118 0.815686 0.294118 0.494118 0.815686 0.294118 
0.494118 0.815686 0.294118 0.494118 0.815686 0.294118 
0.494118 0.815686 0.294118 0.494118 0.815686 0.294118 
0.494118 0.815686 0.294118 0.494118 0.815686 0.294118 
0.494118 0.815686 0.294118 0.494118 0.815686 0.294118 
0.494118 0.815686 0.294118 0.494118 0.815686 0.294118 
0.494118 0.815686 0.294118 0.494118 0.815686 0.294118 
0.494118 0.815686 0.294118 0.494118 0.815686 0.294118 
0.494118 0.815686 0.294118 0.494118 0.815686 0.294118 
0.494118 0.815686 0.294118 0.494118 0.815686 0.294118 
0.494118 0.815686 0.294118 0.494118 0.815686 0.294118 
0.494118 0.815686 0.294118 0.494118 0.815686 0.294118 
0.494118 0.815686 0.294118 0.494118 0.815686 0.294118 
0.494118 0.815686 0.294118 0.494118 0.815686 0.294118 
0.494118 0.815686 0.294118 0.494118 0.815686 0.294118 
0.494118 0.815686 0.294118 0.494118 0.815686 0.294118 
0.494118 0.815686 0.294118 0.494118 0.815686 0.294118 
0.494118 0.815686 0.294118 0.494118 0.815686 0.294118 
0.494118 0.815686 0.294118 0.494118 0.815686 0.294118 
0.494118 0.815686 0.294118 0.494118 0.815686 0.294118 
0.494118 0.815686 0.294118 0.494118 0.815686 0.294118 
0.494118 0.815686 0.294118 0.494118 0.815686 0.294118 
0.494118 0.815686 0.294118 0.494118 0.815686 0.294118 
0.494118 0.815686 0.294118 0.494118 0.815686 0.294118 
0.494118 0.815686 0.294118 0.494118 0.815686 0.294118 
0.494118 0.815686 0.294118 0.494118 0.815686 0.294118 
0.494118 0.815686 0.294118 0.494118 0.815686 0.294118 
0.494118 0.815686 0.294118 0.494118 0.815686 0.294118 
0.494118 0.815686 0.294118 0.494118 0.815686 0.294118 
0.494118 0.815686 0.294118 0.494118 0.815686 0.294118 
0.494118 0.815686 0.294118 0.494118 0.815686 0.294118 
0.494118 0.815686 0.294118 0.494118 0.815686 0.294118 
0.494118 0.815686 0.294118 0.494118 0.815686 0.294118 
0.494118 0.815686 0.294118 0.494118 0.815686 0.294118 
0.494118 0.815686 0.294118 0.494118 0.815686 0.294118 
0.494118 0.815686 0.294118 0.494118 0.815686 0.294118 
0.494118 0.815686 0.294118 0.494118 0.815686 0.294118 
0.494118 0.815686 0.294118 0.494118 0.815686 0.294118 
0.494118 0.815686 0.294118 0.494118 0.815686 0.294118 
0.494118 0.815686 0.294118 0.494118 0.815686 0.294118 
0.494118 0.815686 0.294118 0.494118 0.815686 0.294118 
0.494118 0.815686 0.294118 0.494118 0.815686 0.294118 
0.494118 0.815686 0.294118 0.494118 0.815686 0.294118 
0.494118 0.815686 0.294118 0.494118 0.815686 0.294118 
0.494118 0.815686 0.294118 0.494118 0.815686 0.294118 
0.494118 0.815686 0.294118 0.494118 0.815686 0.294118 
0.494118 0.815686 0.294118 0.494118 0.815686 0.294118 
0.494118 0.815686 0.294118 0.494118 0.815686 0.294118 
0.494118 0.815686 0.294118 0.494118 0.815686 0.294118 
0.494118 0.815686 0.294118 0.494118 0.815686 0.294118 
0.494118 0.815686 0.294118 0.494118 0.815686 0.294118 
0.494118 0.815686 0.294118 0.494118 0.815686 0.294118 
0.494118 0.815686 0.294118 0.494118 0.815686 0.294118 
0.494118 0.815686 0.294118 0.494118 0.815686 0.294118 
0.494118 0.815686 0.294118 0.494118 0.815686 0.294118 
0.494118 0.815686 0.294118 0.494118 0.815686 0.294118 
0.494118 0.815686 0.294118 0.494118 0.815686 0.294118 
0.494118 0.815686 0.294118 0.494118 0.815686 0.294118 
0.494118 0.815686 0.294118 0.494118 0.815686 0.294118 
0.494118 0.815686 0.294118 0.494118 0.815686 0.294118 
0.494118 0.815686 0.294118 0.494118 0.815686 0.294118 
0.494118 0.815686 0.294118 0.494118 0.815686 0.294118 
0.494118 0.815686 0.294118 0.494118 0.815686 0.294118 
0.494118 0.815686 0.294118 0.494118 0.815686 0.294118 
0.494118 0.815686 0.294118 0.494118 0.815686 0.294118 
0.494118 0.815686 0.294118 0.494118 0.815686 0.294118 
0.494118 0.815686 0.294118 0.494118 0.815686 0.294118 
0.494118 0.815686 0.294118 0.494118 0.815686 0.294118 
0.494118 0.815686 0.294118 0.494118 0.815686 0.294118 
0.494118 0.815686 0.294118 0.494118 0.815686 0.294118 
0.494118 0.815686 0.294118 0.494118 0.815686 0.294118 
0.494118 0.815686 0.294118 0.494118 0.815686 0.294118 
0.494118 0.815686 0.294118 0.494118 0.815686 0.294118 
0.494118 0.815686 0.294118 0.494118 0.815686 0.294118 
0.494118 0.815686 0.294118 0.494118 0.815686 0.294118 
0.494118 0.815686 0.294118 0.494118 0.815686 0.294118 
0.494118 0.815686 0.294118 0.494118 0.815686 0.294118 
0.494118 0.815686 0.294118 0.494118 0.815686 0.294118 
0.494118 0.815686 0.294118 0.494118 0.815686 0.294118 
0.494118 0.815686 0.294118 0.494118 0.815686 0.294118 
0.494118 0.815686 0.294118 0.494118 0.815686 0.294118 
0.494118 0.815686 0.294118 0.494118 0.815686 0.294118 
0.494118 0.815686 0.294118 0.494118 0.815686 0.294118 
0.494118 0.815686 0.294118 0.494118 0.815686 0.294118 
0.494118 0.815686 0.294118 0.494118 0.815686 0.294118 
0.494118 0.815686 0.294118 0.494118 0.815686 0.294118 
0.494118 0.815686 0.294118 0.494118 0.815686 0.294118 
0.494118 0.815686 0.294118 0.494118 0.815686 0.294118 
0.494118 0.815686 0.294118 0.494118 0.815686 0.294118 
0.494118 0.815686 0.294118 0.494118 0.815686 0.294118 
0.494118 0.815686 0.294118 0.494118 0.815686 0.294118 
0.494118 0.815686 0.294118 0.494118 0.815686 0.294118 
0.494118 0.815686 0.294118 0.494118 0.815686 0.294118 
0.494118 0.815686 0.294118 0.494118 0.815686 0.294118 
0.494118 0.815686 0.294118 0.494118 0.815686 0.294118 
0.494118 0.815686 0.294118 0.494118 0.815686 0.294118 
0.494118 0.815686 0.294118 0.494118 0.815686 0.294118 
0.494118 0.815686 0.294118 0.494118 0.815686 0.294118 
0.494118 0.815686 0.294118 0.494118 0.815686 0.294118 
0.494118 0.815686 0.294118 0.494118 0.815686 0.294118 
0.494118 0.815686 0.294118 0.494118 0.815686 0.294118 
0.494118 0.815686 0.294118 0.494118 0.815686 0.294118 
0.494118 0.815686 0.294118 0.494118 0.815686 0.294118 
0.494118 0.815686 0.294118 0.494118 0.815686 0.294118 
0.494118 0.815686 0.294118 0.494118 0.815686 0.294118 
0.494118 0.815686 0.294118 0.494118 0.815686 0.294118 
0.494118 0.815686 0.294118 0.494118 0.815686 0.294118 
0.494118 0.815686 0.294118 0.494118 0.815686 0.294118 
0.494118 0.815686 0.294118 0.494118 0.815686 0.294118 
0.494118 0.815686 0.294118 0.494118 0.815686 0.294118 
0.494118 0.815686 0.294118 0.494118 0.815686 0.294118 
0.494118 0.815686 0.294118 0.494118 0.815686 0.294118 
0.494118 0.815686 0.294118 0.494118 0.815686 0.294118 
0.494118 0.815686 0.294118 0.494118 0.815686 0.294118 
0.494118 0.815686 0.294118 0.494118 0.815686 0.294118 
0.494118 0.815686 0.294118 0.494118 0.815686 0.294118 
0.494118 0.815686 0.294118 0.494118 0.815686 0.294118 
0.494118 0.815686 0.294118 0.494118 0.815686 0.294118 
0.494118 0.815686 0.294118 0.494118 0.815686 0.294118 
0.494118 0.815686 0.294118 0.494118 0.815686 0.294118 
0.494118 0.815686 0.294118 0.494118 0.815686 0.294118 
0.494118 0.815686 0.294118 0.494118 0.815686 0.294118 
0.494118 0.815686 0.294118 0.494118 0.815686 0.294118 
0.494118 0.815686 0.294118 0.494118 0.815686 0.294118 
0.494118 0.815686 0.294118 0.494118 0.815686 0.294118 
0.494118 0.815686 0.294118 0.494118 0.815686 0.294118 
0.494118 0.815686 0.294118 0.494118 0.815686 0.294118 
0.494118 0.815686 0.294118 0.494118 0.815686 0.294118 
0.494118 0.815686 0.294118 0.494118 0.815686 0.294118 
0.494118 0.815686 0.294118 0.494118 0.815686 0.294118 
0.494118 0.815686 0.294118 0.494118 0.815686 0.294118 
0.494118 0.815686 0.294118 0.494118 0.815686 0.294118 
0.494118 0.815686 0.294118 0.494118 0.815686 0.294118 
0.494118 0.815686 0.294118 0.494118 0.815686 0.294118 
0.494118 0.815686 0.294118 0.494118 0.815686 0.294118 
0.494118 0.815686 0.294118 0.494118 0.815686 0.294118 
0.494118 0.815686 0.294118 0.494118 0.815686 0.294118 
0.494118 0.815686 0.294118 0.494118 0.815686 0.294118 
0.494118 0.815686 0.294118 0.494118 0.815686 0.294118 
0.494118 0.815686 0.294118 0.494118 0.815686 0.294118 
0.494118 0.815686 0.294118 0.494118 0.815686 0.294118 
0.494118 0.815686 0.294118 0.494118 0.815686 0.294118 
0.494118 0.815686 0.294118 0.494118 0.815686 0.294118 
0.494118 0.815686 0.294118 0.494118 0.815686 0.294118 
0.494118 0.815686 0.294118 0.494118 0.815686 0.294118 
0.494118 0.815686 0.294118 0.494118 0.815686 0.294118 
0.494118 0.815686 0.294118 0.494118 0.815686 0.294118 
0.494118 0.815686 0.294118 0.494118 0.815686 0.294118 
0.494118 0.815686 0.294118 0.494118 0.815686 0.294118 
0.494118 0.815686 0.294118 0.494118 0.815686 0.294118 
0.494118 0.815686 0.294118 0.494118 0.815686 0.294118 
0.494118 0.815686 0.294118 0.494118 0.815686 0.294118 
0.494118 0.815686 0.294118 0.494118 0.815686 0.294118 
0.494118 0.815686 0.294118 0.494118 0.815686 0.294118 
0.494118 0.815686 0.294118 0.494118 0.815686 0.294118 
0.494118 0.815686 0.294118 0.494118 0.815686 0.294118 
0.494118 0.815686 0.294118 0.494118 0.815686 0.294118 
0.494118 0.815686 0.294118 0.494118 0.815686 0.294118 
0.494118 0.815686 0.294118 0.494118 0.815686 0.294118 
0.494118 0.815686 0.294118 0.494118 0.815686 0.294118 
0.494118 0.815686 0.294118 0.494118 0.815686 0.294118 
0.494118 0.815686 0.294118 0.494118 0.815686 0.294118 
0.494118 0.815686 0.294118 0.494118 0.815686 0.294118 
0.494118 0.815686 0.294118 0.494118 0.815686 0.294118 
0.494118 0.815686 0.294118 0.494118 0.815686 0.294118 
0.494118 0.815686 0.294118 0.494118 0.815686 0.294118 
0.494118 0.815686 0.294118 0.494118 0.815686 0.294118 
0.494118 0.815686 0.294118 0.494118 0.815686 0.294118 
0.494118 0.815686 0.294118 0.494118 0.815686 0.294118 
0.494118 0.815686 0.294118 0.494118 0.815686 0.294118 
0.494118 0.815686 0.294118 0.494118 0.815686 0.294118 
0.494118 0.815686 0.294118 0.494118 0.815686 0.294118 
0.494118 0.815686 0.294118 0.494118 0.815686 0.294118 
0.494118 0.815686 0.294118 0.494118 0.815686 0.294118 
0.494118 0.815686 0.294118 0.494118 0.815686 0.294118 
0.494118 0.815686 0.294118 0.494118 0.815686 0.294118 
0.494118 0.815686 0.294118 0.494118 0.815686 0.294118 
0.494118 0.815686 0.294118 0.494118 0.815686 0.294118 
0.494118 0.815686 0.294118 0.494118 0.815686 0.294118 
0.494118 0.815686 0.294118 0.494118 0.815686 0.294118 
0.494118 0.815686 0.294118 0.494118 0.815686 0.294118 
0.494118 0.815686 0.294118 0.494118 0.815686 0.294118 
0.494118 0.815686 0.294118 0.494118 0.815686 0.294118 
0.494118 0.815686 0.294118 0.494118 0.815686 0.294118 
0.494118 0.815686 0.294118 0.494118 0.815686 0.294118 
0.494118 0.815686 0.294118 0.494118 0.815686 0.294118 
0.494118 0.815686 0.294118 0.494118 0.815686 0.294118 
0.494118 0.815686 0.294118 0.494118 0.815686 0.294118 
0.494118 0.815686 0.294118 0.494118 0.815686 0.294118 
0.494118 0.815686 0.294118 0.494118 0.815686 0.294118 
0.494118 0.815686 0.294118 0.494118 0.815686 0.294118 
0.494118 0.815686 0.294118 0.494118 0.815686 0.294118 
0.494118 0.815686 0.294118 0.494118 0.815686 0.294118 
0.494118 0.815686 0.294118 0.494118 0.815686 0.294118 
0.494118 0.815686 0.294118 0.494118 0.815686 0.294118 
0.494118 0.815686 0.294118 0.494118 0.815686 0.294118 
0.494118 0.815686 0.294118 0.494118 0.815686 0.294118 
0.494118 0.815686 0.294118 0.494118 0.815686 0.294118 
0.494118 0.815686 0.294118 0.494118 0.815686 0.294118 
0.494118 0.815686 0.294118 0.494118 0.815686 0.294118 
0.494118 0.815686 0.294118 0.494118 0.815686 0.294118 
0.494118 0.815686 0.294118 0.494118 0.815686 0.294118 
0.494118 0.815686 0.294118 0.494118 0.815686 0.294118 
0.494118 0.815686 0.294118 0.494118 0.815686 0.294118 
0.494118 0.815686 0.294118 0.494118 0.815686 0.294118 
0.494118 0.815686 0.294118 0.494118 0.815686 0.294118 
0.494118 0.815686 0.294118 0.494118 0.815686 0.294118 
0.494118 0.815686 0.294118 0.494118 0.815686 0.294118 
0.494118 0.815686 0.294118 0.494118 0.815686 0.294118 
0.494118 0.815686 0.294118 0.494118 0.815686 0.294118 
0.494118 0.815686 0.294118 0.494118 0.815686 0.294118 
0.494118 0.815686 0.294118 0.494118 0.815686 0.294118 
0.494118 0.815686 0.294118 0.494118 0.815686 0.294118 
0.494118 0.815686 0.294118 0.494118 0.815686 0.294118 
0.494118 0.815686 0.294118 0.494118 0.815686 0.294118 
0.494118 0.815686 0.294118 0.494118 0.815686 0.294118 
0.494118 0.815686 0.294118 0.494118 0.815686 0.294118 
0.494118 0.815686 0.294118 0.494118 0.815686 0.294118 
0.494118 0.815686 0.294118 0.494118 0.815686 0.294118 
0.494118 0.815686 0.294118 0.494118 0.815686 0.294118 
0.494118 0.815686 0.294118 0.494118 0.815686 0.294118 
0.494118 0.815686 0.294118 0.494118 0.815686 0.294118 
0.494118 0.815686 0.294118 0.494118 0.815686 0.294118 
0.494118 0.815686 0.294118 0.494118 0.815686 0.294118 
0.494118 0.815686 0.294118 0.494118 0.815686 0.294118 
0.494118 0.815686 0.294118 0.494118 0.815686 0.294118 
0.494118 0.815686 0.294118 0.494118 0.815686 0.294118 
0.494118 0.815686 0.294118 0.494118 0.815686 0.294118 
0.494118 0.815686 0.294118 0.494118 0.815686 0.294118 
0.494118 0.815686 0.294118 0.494118 0.815686 0.294118 
0.494118 0.815686 0.294118 0.494118 0.815686 0.294118 
0.494118 0.815686 0.294118 0.494118 0.815686 0.294118 
0.494118 0.815686 0.294118 0.494118 0.815686 0.294118 
0.494118 0.815686 0.294118 0.494118 0.815686 0.294118 
0.494118 0.815686 0.294118 0.494118 0.815686 0.294118 
0.494118 0.815686 0.294118 0.494118 0.815686 0.294118 
0.494118 0.815686 0.294118 0.494118 0.815686 0.294118 
0.494118 0.815686 0.294118 0.494118 0.815686 0.294118 
0.494118 0.815686 0.294118 0.494118 0.815686 0.294118 
0.494118 0.815686 0.294118 0.494118 0.815686 0.294118 
0.494118 0.815686 0.294118 0.494118 0.815686 0.294118 
0.494118 0.815686 0.294118 0.494118 0.815686 0.294118 
0.494118 0.815686 0.294118 0.494118 0.815686 0.294118 
0.494118 0.815686 0.294118 0.494118 0.815686 0.294118 
0.494118 0.815686 0.294118 0.494118 0.815686 0.294118 
0.494118 0.815686 0.294118 0.494118 0.815686 0.294118 
0.494118 0.815686 0.294118 0.494118 0.815686 0.294118 
0.494118 0.815686 0.294118 0.494118 0.815686 0.294118 
0.494118 0.815686 0.294118 0.494118 0.815686 0.294118 
0.494118 0.815686 0.294118 0.494118 0.815686 0.294118 
0.494118 0.815686 0.294118 0.494118 0.815686 0.294118 
0.494118 0.815686 0.294118 0.494118 0.815686 0.294118 
0.494118 0.815686 0.294118 0.494118 0.815686 0.294118 
0.494118 0.815686 0.294118 0.494118 0.815686 0.294118 
0.494118 0.815686 0.294118 0.494118 0.815686 0.294118 
0.494118 0.815686 0.294118 0.494118 0.815686 0.294118 
0.494118 0.815686 0.294118 0.494118 0.815686 0.294118 
0.494118 0.815686 0.294118 0.494118 0.815686 0.294118 
0.494118 0.815686 0.294118 0.494118 0.815686 0.294118 
0.494118 0.815686 0.294118 0.494118 0.815686 0.294118 
0.494118 0.815686 0.294118 0.494118 0.815686 0.294118 
0.494118 0.815686 0.294118 0.494118 0.815686 0.294118 
0.494118 0.815686 0.294118 0.494118 0.815686 0.294118 
0.494118 0.815686 0.294118 0.494118 0.815686 0.294118 
0.494118 0.815686 0.294118 0.494118 0.815686 0.294118 
0.494118 0.815686 0.294118 0.494118 0.815686 0.294118 
0.494118 0.815686 0.294118 0.494118 0.815686 0.294118 
0.494118 0.815686 0.294118 0.494118 0.815686 0.294118 
0.494118 0.815686 0.294118 0.494118 0.815686 0.294118 
0.494118 0.815686 0.294118 0.494118 0.815686 0.294118 
0.494118 0.815686 0.294118 0.494118 0.815686 0.294118 
0.494118 0.815686 0.294118 0.494118 0.815686 0.294118 
0.494118 0.815686 0.294118 0.494118 0.815686 0.294118 
0.494118 0.815686 0.294118 0.494118 0.815686 0.294118 
0.494118 0.815686 0.294118 0.494118 0.815686 0.294118 
0.494118 0.815686 0.294118 0.494118 0.815686 0.294118 
0.494118 0.815686 0.294118 0.494118 0.815686 0.294118 
0.494118 0.815686 0.294118 0.494118 0.815686 0.294118 
0.494118 0.815686 0.294118 0.494118 0.815686 0.294118 
0.494118 0.815686 0.294118 0.494118 0.815686 0.294118 
0.494118 0.815686 0.294118 0.494118 0.815686 0.294118 
0.494118 0.815686 0.294118 0.494118 0.815686 0.294118 
0.494118 0.815686 0.294118 0.494118 0.815686 0.294118 
0.494118 0.815686 0.294118 0.494118 0.815686 0.294118 