# vtk DataFile Version 4.2
vtk output
ASCII
DATASET POLYDATA
POINTS 461 float
414.657 200.691 152.326 408.301 202.399 152.175 408.968 202.253 151.952 
410.666 201.673 151.822 412.824 201.969 151.425 414.223 201.624 151.761 
406.701 203.652 151.725 410.826 202.798 151.142 407.43 204.267 151.121 
404.972 205.578 151.619 405.84 205.302 151.224 411.254 204.228 150.728 
404.735 206.601 151.705 405.492 206.528 151.177 404.685 207.701 151.964 
405.082 208.816 151.9 405.799 208.686 151.271 405.348 209.143 151.683 
406.137 210.409 151.657 406.36 210.257 151.456 408.942 212.297 151.103 
413.188 200.316 152.795 414.123 200.251 152.71 409.828 201.494 152.443 
414.908 200.642 152.422 415.167 200.616 152.617 406.524 203.301 152.299 
406.076 203.707 152.238 405.244 204.672 152.038 404.678 206.147 151.877 
416.46 205.859 151.966 404.614 207.686 152.176 404.802 208.204 152.15 
414.908 209.1 151.26 405.247 209.296 152.086 405.646 209.938 152.075 
406.03 210.591 152.097 406.381 211.046 151.983 406.89 211.597 151.841 
416.321 211.585 151.92 408.264 214.022 152.077 408.586 215.405 152.416 
409.986 217.65 152.424 410.219 217.326 152.216 412.575 218.826 152.421 
412.987 200.239 153.093 413.752 200.033 153.68 414.205 200.01 153.491 
415.471 200.322 153.173 415.569 200.254 153.444 409.731 201.429 152.776 
408.09 202.233 152.995 409.537 201.585 153.17 416.998 201.838 153.396 
417.008 201.621 153.638 406.309 203.449 152.454 405.439 204.343 152.232 
406.205 203.732 152.659 404.831 205.444 152.162 404.65 207.136 152.398 
418.557 206.587 153.846 404.67 207.838 152.286 404.861 207.956 152.472 
418.273 207.938 153.207 418.757 208.57 153.651 405.393 209.536 152.236 
405.631 209.707 152.467 418.328 209.875 153.063 406.004 210.457 152.364 
417.618 210.852 152.533 418.769 211.321 153.417 407.699 213.359 152.69 
417.549 214.86 152.812 409.387 217.455 152.916 409.629 217.506 152.619 
409.526 217.804 153.141 409.825 218.285 153.377 410.146 218.125 152.627 
414.796 219.446 152.875 410.371 219.312 153.39 410.58 219.581 153.442 
411.997 220.473 153.783 412.915 220.447 153.476 416.015 220.312 153.712 
416.594 200.895 153.926 407.79 202.455 153.07 408.662 202.176 153.501 
407.788 202.627 153.272 408.431 202.453 153.62 418.317 205.287 153.955 
418.898 206.966 154.383 419.206 210.164 154.039 406.897 211.349 153.018 
419.6 210.798 154.619 408.229 213.239 153.69 408.312 214.592 153.239 
419.294 213.86 154.06 408.715 215.143 153.565 408.956 216.043 153.49 
410.354 219.146 153.818 417.902 219.666 154.62 410.434 219.476 153.539 
410.497 219.487 153.725 410.707 219.738 153.628 411.178 220.054 153.793 
411.664 220.37 153.867 417.151 220.55 154.548 412.174 220.621 154.157 
413.282 221.119 154.389 414.036 221.278 154.349 415.621 221.252 154.572 
413.391 200.26 154.405 414.27 200.163 154.534 415.212 200.108 154.122 
416.002 200.362 154.035 415.708 200.255 154.157 417.224 201.904 154.579 
408.438 202.96 153.879 419.139 207.487 154.614 419.221 207.671 154.942 
409.066 211.226 154.543 419.823 210.969 155.125 408.544 212.405 154.125 
420.009 211.996 155.328 419.935 213.934 155.014 419.896 215.319 155.253 
410.687 219.479 153.99 418.235 219.663 155.023 410.822 219.778 153.853 
416.961 220.781 154.695 412.84 220.865 154.765 413.447 221.305 154.787 
414.528 221.528 154.765 415.7 221.508 155.018 413.825 221.491 155.032 
415.481 221.618 155.253 414.44 200.353 154.897 415.863 200.607 154.868 
413.189 200.704 154.845 416.701 201.092 154.708 412.282 202.473 155.44 
412.669 202.073 155.419 413.263 204.958 156.205 419.066 207.166 155.2 
413.382 207.781 156.192 419.56 210.314 155.805 420.031 212.354 155.664 
419.898 216.186 156.001 419.512 217.501 155.78 419.362 217.962 155.97 
418.911 218.968 155.635 412.695 220.503 155.07 413.747 221.42 155.219 
415.901 221.537 155.297 416.192 221.421 155.509 414.684 221.555 155.474 
415.813 221.548 155.57 416.599 201.184 155.024 414.51 201.811 155.872 
415.542 201.654 155.915 416.044 201.55 155.76 416.457 201.595 155.637 
416.743 201.911 155.701 415.019 202.345 156.194 414.997 203.017 156.379 
417.432 203.501 155.849 418.075 204.395 155.487 419.244 210.247 156.216 
419.759 211.088 155.869 419.749 211.573 156.073 419.945 215.495 156.478 
419.786 216.627 156.209 419.692 216.664 156.511 419.173 218.224 156.342 
418.705 219.31 156.286 415.005 220.559 156.647 417.967 220.09 156.363 
415.079 221.33 155.955 415.745 221.41 155.928 416.088 203.404 156.455 
417.014 203.023 156.013 417.607 208.087 156.668 418.954 210.84 156.557 
419.189 212.985 156.995 419.586 214.1 156.976 419.778 214.377 156.8 
417.149 215.237 157.459 419.758 215.781 156.749 419.686 216.328 156.713 
419.502 216.168 156.943 419.072 217.793 156.777 416.113 218.145 157.43 
418.827 218.602 156.715 418.284 219.369 156.909 418.485 218.955 156.948 
417.176 220.563 156.568 415.403 220.789 156.752 416.171 220.903 156.66 
419.14 214.913 157.272 418.419 216.788 157.433 417.532 218.098 157.633 
417.196 218.73 157.61 417.528 218.577 157.725 417.672 218.534 157.707 
417.907 218.516 157.518 417.679 218.718 157.683 417.534 218.76 157.7 
417.563 219.008 157.511 418.05 219.096 157.202 415.659 220.699 156.901 
417.066 220.313 156.899 417.62 218.666 157.748 419.153 214.689 297.963 
418.916 214.208 297.95 418.074 215.682 297.66 419.453 214.821 298.17 
418.697 216.425 297.745 419.342 216.442 298.136 418.799 217.584 297.942 
419.286 217.155 298.243 416.356 218.481 297.788 417.218 218.842 297.748 
418.799 218.207 298.111 415.869 219.678 298.118 417.437 219.192 297.871 
417.943 219.187 298.054 415.76 220.237 298.339 416.725 219.829 298.033 
418.243 219.449 298.324 416.101 220.435 298.389 416.641 220.302 298.307 
417.103 220.322 298.363 417.44 220.188 298.382 416.129 220.764 298.739 
416.37 202.141 298.995 416.397 201.848 299.165 416.655 202.463 298.995 
416.83 202.276 299.179 416.265 202.953 298.798 416.454 204.336 298.696 
417.216 203.447 299.113 416.989 204.888 298.719 417.584 204.174 299.214 
416.932 205.441 298.629 417.519 206.33 298.676 419.491 209.886 299.174 
419.889 212.563 298.932 416.644 213.641 298.08 417.983 214.283 297.832 
416.104 216.143 297.964 419.824 215.678 298.582 419.931 215.948 298.819 
419.525 217.124 298.575 418.938 218.702 298.504 418.199 219.709 298.485 
414.958 220.592 298.844 417.247 220.456 298.563 416.237 200.975 299.981 
416.679 201.175 299.929 414.315 201.915 299.385 414.391 201.386 299.626 
416.869 201.392 299.84 415.527 202.411 298.978 417.11 202.348 299.476 
413.947 204.26 299.026 417.517 203.603 299.333 417.785 203.75 299.709 
418.248 205.468 299.442 415.814 209.053 298.6 415.059 210.303 298.743 
419.781 210.169 299.507 419.939 210.713 299.599 419.96 211.203 299.383 
419.829 211.922 298.93 420.116 215.304 299.324 419.909 216.45 299.255 
418.867 219.156 299.075 414.487 220.558 299.09 414.438 221.436 299.875 
415.675 221.434 299.663 414.866 221.584 299.923 415.328 221.577 299.854 
414.704 200.381 300.644 416.026 200.686 300.269 415.823 200.548 300.456 
413.507 200.873 300.315 416.877 201.273 300.044 413.074 202.507 299.63 
417.437 202.382 300.338 418.156 204.437 299.904 418.335 204.693 300.297 
419.606 209.246 300.358 420.094 213.287 299.762 419.984 216.152 299.495 
418.864 218.947 299.896 418.431 219.718 299.567 418.222 219.828 300.033 
415.642 221.513 300 414.749 221.674 300.214 415.13 221.648 300.189 
413.204 200.332 301.419 414.091 200.473 300.605 414.726 200.236 301.104 
415.661 200.433 300.869 412.324 200.697 301.162 416.688 201.043 300.539 
411.034 201.19 301.509 409.046 203.029 301.158 418.432 204.997 300.851 
419.281 207.869 300.618 409.221 209.224 300.543 419.601 210.078 300.883 
419.753 212.204 300.784 419.729 214.181 300.684 411.46 214.437 299.962 
419.627 216.138 300.295 419.16 217.959 300.127 409.966 218.629 301.579 
418.327 219.524 300.291 410.35 219.597 301.817 410.938 219.745 301.148 
410.692 220.016 301.689 411.013 220.319 301.55 417.237 220.585 300.317 
417.295 220.422 300.569 411.953 220.635 301.102 412.816 220.983 300.839 
413.414 221.292 300.561 413.374 221.296 300.84 415.47 221.536 300.348 
413.799 221.48 300.594 414.185 221.566 300.64 412.097 200.488 301.972 
413.407 200.204 301.871 415.189 200.281 301.308 415.649 200.42 301.302 
411.549 200.696 302.258 411.066 200.926 301.967 408.667 202.522 301.778 
409.658 201.608 302.393 407.725 202.903 302.087 405.999 204.348 302.316 
418.171 204.39 301.171 418.518 205.66 301.318 405.985 206.272 301.88 
405.874 208.792 302.186 405.525 208.642 302.461 406.149 210.249 302.407 
419.396 211.008 301.387 419.445 211.741 301.304 408.717 212.693 301.095 
407.882 214.232 302.376 408.238 214.848 302.088 418.686 215.909 301.567 
408.941 216.832 302.046 409.288 216.359 301.416 409.116 217.303 302.111 
410.075 219.12 302.049 417.377 219.522 301.27 410.386 219.595 302.051 
410.5 219.839 301.876 410.723 219.983 301.924 411.233 220.476 301.569 
416.104 220.671 301.261 413.115 221.04 301.258 414.876 221.48 300.783 
412.793 200.338 302.383 413.957 200.205 302.044 414.264 200.292 302.29 
409.889 201.454 302.768 414.686 200.513 302.451 416.103 201.108 302.007 
408.22 202.441 302.975 409.282 201.869 302.898 405.832 203.639 303.327 
406.841 203.211 302.657 416.596 202.136 302.502 405.505 203.92 303.48 
405.239 204.268 303.37 417.055 203.131 302.549 405.165 204.6 303.091 
404.968 204.683 303.447 417.332 203.458 302.346 405.092 205.28 302.789 
404.752 205.591 303.191 418.203 205.169 301.723 417.793 205.077 302.257 
404.666 206.235 303.244 405.173 205.997 302.502 404.815 206.809 302.961 
404.857 207.515 303.065 404.763 207.535 303.417 405.138 208.618 303.204 
405.223 208.366 302.8 405.783 209.889 302.725 417.842 210.034 302.819 
407.777 214.071 302.812 416.725 213.525 303.188 408.164 214.92 302.83 
408.392 215.654 302.383 417.58 215.533 302.465 408.577 216.063 302.452 
409.339 217.75 302.147 415.053 218.729 302.74 410.201 219.309 302.172 
415.864 219.472 302.18 412.551 200.497 302.627 409.909 201.554 303.043 
410.317 201.538 303.228 411.771 201.085 303.111 414.742 200.795 302.866 
[...]
POINT_DATA 461
COLOR_SCALARS scalars 3
1 0.729412 0.52549 1 0.729412 0.52549 1 0.729412 0.52549 
1 0.729412 0.52549 1 0.729412 0.52549 
1 0.729412 0.52549 1 0.729412 0.52549 
1 0.729412 0.52549 1 0.729412 0.52549 
1 0.729412 0.52549 1 0.729412 0.52549 
1 0.729412 0.52549 1 0.729412 0.52549 
1 0.729412 0.52549 1 0.729412 0.52549 
1 0.729412 0.52549 1 0.729412 0.52549 
1 0.729412 0.52549 1 0.729412 0.52549 
1 0.729412 0.52549 1 0.729412 0.52549 
1 0.729412 0.52549 1 0.729412 0.52549 
1 0.729412 0.52549 1 0.729412 0.52549 
1 0.729412 0.52549 1 0.729412 0.52549 
1 0.729412 0.52549 1 0.729412 0.52549 
1 0.729412 0.52549 1 0.729412 0.52549 
1 0.729412 0.52549 1 0.729412 0.52549 
1 0.729412 0.52549 1 0.729412 0.52549 
1 0.729412 0.52549 1 0.729412 0.52549 
1 0.729412 0.52549 1 0.729412 0.52549 
1 0.729412 0.52549 1 0.729412 0.52549 
1 0.729412 0.52549 1 0.729412 0.52549 
1 0.729412 0.52549 1 0.729412 0.52549 
1 0.729412 0.52549 1 0.729412 0.52549 
1 0.729412 0.52549 1 0.729412 0.52549 
1 0.729412 0.52549 1 0.729412 0.52549 
1 0.729412 0.52549 1 0.729412 0.52549 
1 0.729412 0.52549 1 0.729412 0.52549 
1 0.729412 0.52549 1 0.729412 0.52549 
1 0.729412 0.52549 1 0.729412 0.52549 
1 0.729412 0.52549 1 0.729412 0.52549 
1 0.729412 0.52549 1 0.729412 0.52549 
1 0.729412 0.52549 1 0.729412 0.52549 
1 0.729412 0.52549 1 0.729412 0.52549 
1 0.729412 0.52549 1 0.729412 0.52549 
1 0.729412 0.52549 1 0.729412 0.52549 
1 0.729412 0.52549 1 0.729412 0.52549 
1 0.729412 0.52549 1 0.729412 0.52549 
1 0.729412 0.52549 1 0.729412 0.52549 
1 0.729412 0.52549 1 0.729412 0.52549 
1 0.729412 0.52549 1 0.729412 0.52549 
1 0.729412 0.52549 1 0.729412 0.52549 
1 0.729412 0.52549 1 0.729412 0.52549 
1 0.729412 0.52549 1 0.729412 0.52549 
1 0.729412 0.52549 1 0.729412 0.52549 
1 0.729412 0.52549 1 0.729412 0.52549 
1 0.729412 0.52549 1 0.729412 0.52549 
1 0.729412 0.52549 1 0.729412 0.52549 
1 0.729412 0.52549 1 0.729412 0.52549 
1 0.729412 0.52549 1 0.729412 0.52549 
1 0.729412 0.52549 1 0.729412 0.52549 
1 0.729412 0.52549 1 0.729412 0.52549 
1 0.729412 0.52549 1 0.729412 0.52549 
1 0.729412 0.52549 1 0.729412 0.52549 
1 0.729412 0.52549 1 0.729412 0.52549 
1 0.729412 0.52549 1 0.729412 0.52549 
1 0.729412 0.52549 1 0.729412 0.52549 
1 0.729412 0.52549 1 0.729412 0.52549 
1 0.729412 0.52549 1 0.729412 0.52549 
1 0.729412 0.52549 1 0.729412 0.52549 
1 0.729412 0.52549 1 0.729412 0.52549 
1 0.729412 0.52549 1 0.729412 0.52549 
1 0.729412 0.52549 1 0.729412 0.52549 
1 0.729412 0.52549 1 0.729412 0.52549 
1 0.729412 0.52549 1 0.729412 0.52549 
1 0.729412 0.52549 1 0.729412 0.52549 
1 0.729412 0.52549 1 0.729412 0.52549 
1 0.729412 0.52549 1 0.729412 0.52549 
1 0.729412 0.52549 1 0.729412 0.52549 
1 0.729412 0.52549 1 0.729412 0.52549 
1 0.729412 0.52549 1 0.729412 0.52549 
1 0.729412 0.52549 1 0.729412 0.52549 
1 0.729412 0.52549 1 0.729412 0.52549 
1 0.729412 0.52549 1 0.729412 0.52549 
1 0.729412 0.52549 1 0.729412 0.52549 
1 0.729412 0.52549 1 0.729412 0.52549 
1 0.729412 0.52549 1 0.729412 0.52549 
1 0.729412 0.52549 1 0.729412 0.52549 
1 0.729412 0.52549 1 0.729412 0.52549 
1 0.729412 0.52549 1 0.729412 0.52549 
1 0.729412 0.52549 1 0.729412 0.52549 
1 0.729412 0.52549 1 0.729412 0.52549 
1 0.729412 0.52549 1 0.729412 0.52549 
1 0.729412 0.52549 1 0.729412 0.52549 
1 0.729412 0.52549 1 0.729412 0.52549 
1 0.729412 0.52549 1 0.729412 0.52549 
1 0.729412 0.52549 1 0.729412 0.52549 
1 0.729412 0.52549 1 0.729412 0.52549 
1 0.729412 0.52549 1 0.729412 0.52549 
1 0.729412 0.52549 1 0.729412 0.52549 
1 0.729412 0.52549 1 0.729412 0.52549 
1 0.729412 0.52549 1 0.729412 0.52549 
1 0.729412 0.52549 1 0.729412 0.52549 
1 0.729412 0.52549 1 0.729412 0.52549 
1 0.729412 0.52549 1 0.729412 0.52549 
1 0.729412 0.52549 1 0.729412 0.52549 
1 0.729412 0.52549 1 0.729412 0.52549 
1 0.729412 0.52549 1 0.729412 0.52549 
1 0.729412 0.52549 1 0.729412 0.52549 
1 0.729412 0.52549 1 0.729412 0.52549 
1 0.729412 0.52549 1 0.729412 0.52549 
1 0.729412 0.52549 1 0.729412 0.52549 
1 0.729412 0.52549 1 0.729412 0.52549 
1 0.729412 0.52549 1 0.729412 0.52549 
1 0.729412 0.52549 1 0.729412 0.52549 
1 0.729412 0.52549 1 0.729412 0.52549 
1 0.729412 0.52549 1 0.729412 0.52549 
1 0.729412 0.52549 1 0.729412 0.52549 
1 0.729412 0.52549 1 0.729412 0.52549 
1 0.729412 0.52549 1 0.729412 0.52549 
1 0.729412 0.52549 1 0.729412 0.52549 
1 0.729412 0.52549 1 0.729412 0.52549 
1 0.729412 0.52549 1 0.729412 0.52549 
1 0.729412 0.52549 1 0.729412 0.52549 
1 0.729412 0.52549 1 0.729412 0.52549 
1 0.729412 0.52549 1 0.729412 0.52549 
1 0.729412 0.52549 1 0.729412 0.52549 
1 0.729412 0.52549 1 0.729412 0.52549 
1 0.729412 0.52549 1 0.729412 0.52549 
1 0.729412 0.52549 1 0.729412 0.52549 
1 0.729412 0.52549 1 0.729412 0.52549 
1 0.729412 0.52549 1 0.729412 0.52549 
1 0.729412 0.52549 1 0.729412 0.52549 
1 0.729412 0.52549 1 0.729412 0.52549 
1 0.729412 0.52549 1 0.729412 0.52549 
1 0.729412 0.52549 1 0.729412 0.52549 
1 0.729412 0.52549 1 0.729412 0.52549 
1 0.729412 0.52549 1 0.729412 0.52549 
1 0.729412 0.52549 1 0.729412 0.52549 
1 0.729412 0.52549 1 0.729412 0.52549 
1 0.729412 0.52549 1 0.729412 0.52549 
1 0.729412 0.52549 1 0.729412 0.52549 
1 0.729412 0.52549 1 0.729412 0.52549 
1 0.729412 0.52549 1 0.729412 0.52549 
1 0.729412 0.52549 1 0.729412 0.52549 
1 0.729412 0.52549 1 0.729412 0.52549 
1 0.729412 0.52549 1 0.729412 0.52549 
1 0.729412 0.52549 1 0.729412 0.52549 
1 0.729412 0.52549 1 0.729412 0.52549 
1 0.729412 0.52549 1 0.729412 0.52549 
1 0.729412 0.52549 1 0.729412 0.52549 
1 0.729412 0.52549 1 0.729412 0.52549 
1 0.729412 0.52549 1 0.729412 0.52549 
1 0.729412 0.52549 1 0.729412 0.52549 
1 0.729412 0.52549 1 0.729412 0.52549 
1 0.729412 0.52549 1 0.729412 0.52549 
1 0.729412 0.52549 1 0.729412 0.52549 
1 0.729412 0.52549 1 0.729412 0.52549 
1 0.729412 0.52549 1 0.729412 0.52549 
1 0.729412 0.52549 1 0.729412 0.52549 
1 0.729412 0.52549 1 0.729412 0.52549 
1 0.729412 0.52549 1 0.729412 0.52549 
1 0.729412 0.52549 1 0.729412 0.52549 
1 0.729412 0.52549 1 0.729412 0.52549 
1 0.729412 0.52549 1 0.729412 0.52549 
1 0.729412 0.52549 1 0.729412 0.52549 
1 0.729412 0.52549 1 0.729412 0.52549 
1 0.729412 0.52549 1 0.729412 0.52549 
1 0.729412 0.52549 1 0.729412 0.52549 
1 0.729412 0.52549 1 0.729412 0.52549 
1 0.729412 0.52549 1 0.729412 0.52549 
1 0.729412 0.52549 1 0.729412 0.52549 
1 0.729412 0.52549 1 0.729412 0.52549 
1 0.729412 0.52549 1 0.729412 0.52549 
1 0.729412 0.52549 1 0.729412 0.52549 
1 0.729412 0.52549 1 0.729412 0.52549 
1 0.729412 0.52549 1 0.729412 0.52549 
1 0.729412 0.52549 1 0.729412 0.52549 
1 0.729412 0.52549 1 0.729412 0.52549 
1 0.729412 0.52549 1 0.729412 0.52549 
1 0.729412 0.52549 1 0.729412 0.52549 
1 0.729412 0.52549 1 0.729412 0.52549 
1 0.729412 0.52549 1 0.729412 0.52549 
1 0.729412 0.52549 1 0.729412 0.52549 
1 0.729412 0.52549 1 0.729412 0.52549 
1 0.729412 0.52549 1 0.729412 0.52549 
1 0.729412 0.52549 1 0.729412 0.52549 
1 0.729412 0.52549 1 0.729412 0.52549 
1 0.729412 0.52549 1 0.729412 0.52549 
1 0.729412 0.52549 1 0.729412 0.52549 
1 0.729412 0.52549 1 0.729412 0.52549 
1 0.729412 0.52549 1 0.729412 0.52549 
1 0.729412 0.52549 1 0.729412 0.52549 
1 0.729412 0.52549 1 0.729412 0.52549 
1 0.729412 0.52549 1 0.729412 0.52549 
1 0.729412 0.52549 1 0.729412 0.52549 
1 0.729412 0.52549 1 0.729412 0.52549 
1 0.729412 0.52549 1 0.729412 0.52549 
1 0.729412 0.52549 1 0.729412 0.52549 
1 0.729412 0.52549 1 0.729412 0.52549 
1 0.729412 0.52549 1 0.729412 0.52549 
1 0.729412 0.52549 1 0.729412 0.52549 
1 0.729412 0.52549 1 0.729412 0.52549 
1 0.729412 0.52549 1 0.729412 0.52549 
1 0.729412 0.52549 1 0.729412 0.52549 
1 0.729412 0.52549 1 0.729412 0.52549 
1 0.729412 0.52549 1 0.729412 0.52549 
1 0.729412 0.52549 1 0.729412 0.52549 
1 0.729412 0.52549 1 0.729412 0.52549 
1 0.729412 0.52549 1 0.729412 0.52549 
1 0.729412 0.52549 1 0.729412 0.52549 
1 0.729412 0.52549 1 0.729412 0.52549 
1 0.729412 0.52549 1 0.729412 0.52549 
1 0.729412 0.52549 1 0.729412 0.52549 
1 0.729412 0.52549 1 0.729412 0.52549 
1 0.729412 0.52549 1 0.729412 0.52549 
1 0.729412 0.52549 1 0.729412 0.52549 
1 0.729412 0.52549 1 0.729412 0.52549 
1 0.729412 0.52549 1 0.729412 0.52549 
1 0.729412 0.52549 1 0.729412 0.52549 
1 0.729412 0.52549 1 0.729412 0.52549 
1 0.729412 0.52549 1 0.729412 0.52549 
1 0.729412 0.52549 1 0.729412 0.52549 
1 0.729412 0.52549 1 0.729412 0.52549 
1 0.729412 0.52549 1 0.729412 0.52549 
1 0.729412 0.52549 1 0.729412 0.52549 
1 0.729412 0.52549 1 0.729412 0.52549 
1 0.729412 0.52549 1 0.729412 0.52549 
1 0.729412 0.52549 1 0.729412 0.52549 
1 0.729412 0.52549 1 0.729412 0.52549 
1 0.729412 0.52549 1 0.729412 0.52549 
1 0.729412 0.52549 1 0.729412 0.52549 
1 0.729412 0.52549 1 0.729412 0.52549 
1 0.729412 0.52549 1 0.729412 0.52549 
1 0.729412 0.52549 1 0.729412 0.52549 
1 0.729412 0.52549 1 0.729412 0.52549 
1 0.729412 0.52549 1 0.729412 0.52549 
1 0.729412 0.52549 1 0.729412 0.52549 
1 0.729412 0.52549 1 0.729412 0.52549 
1 0.729412 0.52549 1 0.729412 0.52549 
1 0.729412 0.52549 1 0.729412 0.52549 

NORMALS Normals float
0.0833012 -0.58033 -0.81011 -0.36822 -0.748867 -0.551011 -0.348819 -0.783073 -0.514899 
-0.0467048 -0.737286 -0.673964 0.0900419 -0.34232 -0.935259 0.212615 -0.420157 -0.882192 
-0.453102 -0.612825 -0.647413 0.207184 -0.434074 -0.876729 -0.145412 -0.343325 -0.927892 
-0.684028 -0.30792 -0.661279 -0.273243 -0.228771 -0.934346 0.170102 -0.172507 -0.97021 
-0.729705 0.0192264 -0.683491 -0.260897 -0.00368261 -0.96536 -0.868772 0.174734 -0.463361 
-0.828207 0.323567 -0.457577 -0.4783 0.158551 -0.863766 -0.69804 0.293162 -0.653297 
-0.692173 0.457227 -0.558426 -0.38274 0.330932 -0.862551 -0.0680732 0.137071 -0.988219 
-0.120205 -0.832527 -0.540785 0.00316903 -0.836791 -0.547514 -0.0868175 -0.760327 -0.643712 
0.320577 -0.625819 -0.711042 0.401004 -0.607611 -0.685569 -0.524148 -0.781557 -0.338285 
-0.703617 -0.687296 -0.18041 -0.743094 -0.535339 -0.401526 -0.96988 -0.103289 -0.220601 
0.494863 -0.12381 -0.860106 -0.987939 0.149073 -0.0418848 -0.924937 0.377722 0.0426349 
0.310457 0.0669496 -0.948227 -0.909995 0.402727 0.0985846 -0.848774 0.528643 -0.0108735 
-0.842959 0.534264 -0.063104 -0.605668 0.501686 -0.617638 -0.736081 0.483893 -0.47332 
0.419728 0.129893 -0.898308 -0.615181 0.373825 -0.694123 -0.833664 0.380767 -0.400026 
-0.434546 0.369488 -0.82137 -0.320604 0.319598 -0.891667 -0.0941243 0.420401 -0.902443 
-0.271229 -0.942796 -0.193829 -0.114604 -0.990808 -0.0718752 0.023417 -0.999661 -0.0113418 
-0.820124 -0.549852 0.1583 0.193049 -0.948265 -0.252043 -0.393762 -0.918874 -0.0249328 
-0.483852 -0.872104 0.0729539 -0.46023 -0.877812 0.132791 0.783495 -0.346496 -0.515825 
0.866139 -0.460759 -0.193661 -0.672342 -0.72565 0.146247 -0.788543 -0.587926 0.180397 
-0.658598 -0.468583 0.588795 -0.929108 -0.349229 0.121644 -0.70224 -0.0628322 0.709162 
0.840787 -0.280981 -0.462738 -0.879291 0.263331 0.396869 -0.721198 0.276641 0.635093 
0.698824 -0.0428146 -0.714011 0.714463 -0.074942 -0.695648 -0.834847 0.397458 0.380864 
-0.748689 0.354392 0.560242 0.755426 -0.0172675 -0.655006 -0.78458 0.414307 0.461285 
0.523042 -0.0477192 -0.85097 0.717591 0.0343671 -0.695617 -0.907522 0.415687 0.0600707 
0.459146 0.246584 -0.853452 -0.739385 0.523382 -0.423533 -0.607127 0.422582 -0.672919 
-0.913311 0.40711 -0.0111647 -0.838032 0.523107 -0.155121 -0.433088 0.521387 -0.735249 
0.156417 0.409599 -0.898756 -0.741492 0.524087 -0.418953 -0.493692 0.708049 -0.504911 
-0.272312 0.757676 -0.593105 -0.0573015 0.725401 -0.685937 0.362887 0.475902 -0.801143 
0.704356 -0.624885 -0.336751 -0.563148 -0.70076 0.437949 -0.379455 -0.680473 0.626874 
-0.515562 -0.564882 0.644286 -0.417615 -0.578786 0.700432 0.862779 -0.235213 -0.447534 
0.879835 -0.314168 -0.356636 0.774574 -0.0579302 -0.629824 -0.746223 0.313638 0.587182 
0.915187 -0.14392 -0.376456 -0.819351 0.133043 0.557641 -0.659414 0.3167 0.681817 
0.724588 0.118196 -0.678971 -0.840903 0.243828 0.483146 -0.834491 0.293017 0.466655 
-0.745475 0.306632 0.591815 0.647112 0.310609 -0.696253 -0.81322 0.581956 0.000869942 
-0.747221 0.563058 0.353023 -0.636721 0.771094 0.00094071 -0.547198 0.824401 0.144699 
-0.455194 0.871459 -0.182643 0.511148 0.618146 -0.597179 -0.370909 0.915882 -0.153578 
-0.344318 0.893703 -0.287645 -0.104652 0.830573 -0.546988 0.200972 0.766415 -0.610098 
-0.236974 -0.903207 0.357856 0.014131 -0.930629 0.365691 0.173665 -0.97491 0.139254 
0.572958 -0.819514 -0.0107934 0.27172 -0.923282 0.271513 0.921364 -0.383255 0.0648464 
-0.412143 -0.3071 0.857804 0.953149 -0.136988 -0.269704 0.965585 -0.212813 0.149517 
-0.537797 0.107983 0.83613 0.94758 -0.289248 -0.135746 -0.578494 0.122984 0.806362 
0.982769 -0.0905624 -0.161131 0.837943 0.179979 -0.515227 0.883076 0.213716 -0.417735 
-0.573261 0.459286 0.678549 0.703732 0.673265 -0.226882 -0.587198 0.664755 0.461843 
0.518244 0.790124 -0.327303 -0.575434 0.781951 0.239642 -0.48983 0.87088 -0.0404276 
-0.00155058 0.929488 -0.36885 0.352209 0.817036 -0.45651 -0.219433 0.970416 -0.100708 
0.0140865 0.999771 -0.0160928 -0.0520884 -0.731431 0.679923 0.371945 -0.79787 0.474404 
-0.365826 -0.663074 0.653072 0.737212 -0.636984 0.225322 -0.430262 -0.24901 0.86768 
-0.271549 -0.381406 0.883624 -0.326699 -0.1501 0.933133 0.935416 -0.334463 0.114588 
-0.290833 -0.0223671 0.956512 0.944028 -0.260435 0.202446 0.942759 -0.103601 0.316973 
0.974308 0.200864 0.10187 0.953555 0.296732 0.0517921 0.936902 0.328339 0.120032 
0.832533 0.355502 -0.424861 -0.588775 0.296655 0.751891 -0.47394 0.769715 0.42769 
0.351492 0.919708 -0.1749 0.506409 0.862255 -0.00809201 -0.203465 0.88384 0.421223 
0.189754 0.958468 0.212913 0.509771 -0.685404 0.519956 -0.210706 -0.529966 0.821425 
-0.00316307 -0.628031 0.778182 0.179663 -0.565948 0.804626 0.384347 -0.629711 0.675086 
0.604714 -0.461826 0.648875 -0.0759136 -0.286137 0.955177 -0.0580661 -0.173815 0.983065 
0.550773 -0.160298 0.819118 0.863065 -0.44501 0.238923 0.721269 -0.213765 0.658844 
0.925476 -0.205326 0.318331 0.817975 -0.178615 0.546821 0.988717 0.0635267 0.135661 
0.951465 0.304581 -0.0441034 0.858808 0.3024 0.413526 0.900638 0.307112 0.307461 
0.778608 0.548776 0.304327 -0.458107 0.418527 0.784202 0.624914 0.719853 0.30215 
-0.224843 0.813114 0.536928 0.0427511 0.881601 0.470055 0.185262 -0.183645 0.965377 
0.651233 -0.466994 0.598175 0.25119 -0.135588 0.958394 0.423234 -0.182073 0.887537 
0.552341 -0.192033 0.811199 0.647074 -0.123632 0.752336 0.797308 -0.0784651 0.598451 
-0.123261 -0.0816157 0.989012 0.805138 0.114134 0.582002 0.834203 0.223158 0.504287 
0.608703 0.198596 0.768141 0.752724 0.253841 0.60743 -0.316357 -0.031553 0.948115 
0.721405 0.255243 0.643759 0.595293 0.524418 0.608779 0.674079 0.280049 0.683514 
0.486741 0.814106 0.316724 -0.273512 0.662876 0.696984 0.22267 0.783028 0.580762 
0.423439 -0.0139696 0.905817 0.263626 0.0297433 0.964166 0.0399935 -0.165691 0.985366 
-0.187968 0.225973 0.955827 -0.190599 -0.0762574 0.978702 0.434119 -0.136048 0.890523 
0.594296 0.170583 0.785948 0.562066 0.399921 0.723979 -0.0761771 0.445927 0.891822 
0.279648 0.533607 0.79816 0.494081 0.311407 0.811732 -0.131163 0.486607 0.863719 
0.338714 0.567335 0.750602 0.193421 0.158633 0.968206 0.38962 -0.0467103 -0.91979 
0.265215 -0.176805 -0.94784 -0.00718855 -0.0396511 -0.999188 0.713443 -0.0940469 -0.694373 
0.315999 0.0672018 -0.946377 0.677544 0.0843609 -0.730628 0.530354 0.244666 -0.811704 
0.704466 0.21736 -0.675635 -0.206634 0.16146 -0.965004 0.0671874 0.131879 -0.988986 
0.603092 0.28587 -0.744687 -0.336553 0.212337 -0.917412 0.1187 0.339305 -0.933157 
0.356755 0.321034 -0.877304 -0.261583 0.433883 -0.86216 -0.000105449 0.376232 -0.926526 
0.485101 0.43903 -0.75626 -0.103921 0.611899 -0.784079 0.0235374 0.533705 -0.845343 
0.161932 0.583121 -0.796083 0.294911 0.499027 -0.814862 0.0743719 0.793118 -0.604511 
0.199339 -0.351241 -0.914819 0.261491 -0.576434 -0.774174 0.395063 -0.201344 -0.896318 
0.587366 -0.374948 -0.717227 0.0526232 -0.119831 -0.991399 0.111565 -0.113517 -0.987252 
0.636721 -0.326418 -0.698597 0.199991 -0.10096 -0.974582 0.619754 -0.212665 -0.755433 
0.191644 -0.0714728 -0.978859 0.266253 -0.109978 -0.957609 0.834525 -0.264421 -0.483373 
0.833785 -0.0896686 -0.544758 -0.159753 -0.173417 -0.971805 0.05657 -0.195578 -0.979055 
-0.246932 -0.0162585 -0.968897 0.741383 0.0100477 -0.671007 0.911447 0.153607 -0.381666 
0.895322 0.32172 -0.30805 0.722576 0.403176 -0.561545 0.576225 0.710355 -0.404179 
-0.232492 0.642749 -0.729945 0.339427 0.825302 -0.451294 0.215398 -0.755771 -0.618396 
0.417551 -0.773289 -0.477153 -0.290631 -0.366643 -0.883802 -0.111623 -0.614595 -0.780906 
0.544266 -0.553993 -0.629973 -0.123301 -0.27458 -0.953626 0.796051 -0.329493 -0.507678 
-0.266487 0.0290542 -0.963401 0.73089 -0.506273 -0.457698 0.789717 -0.465182 -0.399941 
0.782344 -0.240502 -0.574541 -0.376656 -0.0172418 -0.926193 -0.281009 -0.117543 -0.95248 
0.891271 -0.2959 -0.343627 0.94887 -0.180334 -0.259084 0.996349 -0.0839321 0.0156282 
0.789781 -0.158372 -0.592591 0.999815 0.00299836 0.0190198 0.938555 0.340648 0.0554423 
0.86147 0.506884 -0.0306243 -0.459834 0.42557 -0.779386 -0.32793 0.801863 -0.499477 
0.232789 0.86434 -0.445786 -0.202284 0.850934 -0.48476 0.0696154 0.91883 -0.388466 
0.0354001 -0.895177 -0.444302 0.340603 -0.864629 -0.369331 0.242746 -0.926172 -0.288583 
-0.324777 -0.62734 -0.707788 0.708919 -0.668514 -0.22477 -0.362778 -0.11758 -0.924428 
0.90705 -0.420658 -0.0175514 0.875094 -0.435191 -0.211707 0.929539 -0.364334 -0.0567275 
0.963495 -0.265277 -0.0361283 0.996188 -0.039981 0.0775287 0.963342 0.230876 0.136631 
0.865631 0.369317 0.338067 0.722887 0.687399 0.0701252 0.633562 0.725437 0.268962 
0.407249 0.909071 -0.0879605 -0.0790336 0.996585 -0.0239065 0.134447 0.990588 0.0256676 
-0.188292 -0.936375 -0.296222 -0.14792 -0.885507 -0.440451 0.0298442 -0.991754 -0.124635 
0.332336 -0.937689 -0.101447 -0.347065 -0.830836 -0.435037 0.709108 -0.696487 0.109874 
-0.396075 -0.782543 -0.480365 -0.430843 -0.436039 -0.790092 0.895129 -0.40821 0.179191 
0.967668 -0.233227 0.0960439 -0.383024 0.0541374 -0.922151 0.888768 -0.0884314 0.449745 
0.877452 0.0579988 0.476144 0.857857 0.0432042 0.512069 -0.422523 0.014568 -0.906235 
0.833066 0.204437 0.51401 0.870477 0.341871 0.354109 -0.794398 0.366823 -0.484121 
0.773491 0.499179 0.390552 -0.819062 0.4694 -0.32985 -0.592161 0.366056 -0.717878 
-0.703465 0.704587 -0.0932438 -0.628248 0.598327 -0.497302 0.539084 0.82452 0.171916 
0.562146 0.657705 0.501414 -0.456942 0.830525 -0.318484 -0.378322 0.899952 0.216699 
-0.410575 0.824885 -0.388579 -0.376087 0.912796 0.159255 0.337742 0.885808 0.318235 
-0.270897 0.87636 -0.398257 -0.213602 0.975857 -0.0455731 -0.286428 -0.944243 -0.162369 
-0.101377 -0.991809 0.0777011 0.260683 -0.957465 0.123713 0.465255 -0.868895 0.168993 
-0.339726 -0.937557 0.074651 -0.433524 -0.84494 -0.313263 -0.379346 -0.683512 -0.623625 
-0.477277 -0.837932 -0.264718 -0.510958 -0.708628 -0.486588 -0.583833 -0.427114 -0.690444 
0.902507 -0.348756 0.252687 0.941212 -0.156012 0.299634 -0.570141 -0.0165649 -0.82138 
-0.629585 0.164101 -0.759404 -0.741134 0.281542 -0.60947 -0.660788 0.206453 -0.721621 
0.737032 -0.00977251 0.675788 0.788382 0.0792389 0.610061 -0.533758 0.160033 -0.830356 
-0.819965 0.3024 -0.486015 -0.82835 0.173465 -0.532678 0.685926 0.146989 0.712671 
-0.84431 0.281476 -0.455974 -0.620974 0.178626 -0.763206 -0.869723 0.400442 -0.288493 
-0.876912 0.478336 0.0471218 0.607729 0.370948 0.702184 -0.726111 0.594822 0.34489 
-0.729013 0.665923 0.15839 -0.247704 0.579405 0.776488 -0.462446 0.873627 0.151396 
0.373766 0.690542 0.619235 -0.192856 0.846068 0.496966 0.100033 0.724565 0.681909 
-0.194267 -0.975291 0.105209 -0.0181643 -0.999678 -0.0177013 0.0741232 -0.89916 0.431297 
-0.409916 -0.895996 0.170764 0.335993 -0.813731 0.474289 0.633001 -0.652092 0.417236 
-0.391022 -0.905209 0.166429 -0.4703 -0.770971 0.429444 -0.605587 -0.762751 -0.22688 
-0.550836 -0.752108 -0.361819 0.674247 -0.381561 0.6323 -0.70159 -0.653342 -0.284456 