# vtk DataFile Version 4.2
vtk output
ASCII
DATASET POLYDATA
POINTS 1068 float
410.875 94.336 159.183 410.211 99.1124 158.764 410.843 101.823 158.753 
408.28 104.447 158.605 404.516 108.628 158.899 406.322 109.42 158.561 
409.569 109.592 158.585 403.066 111.81 159.023 404.418 113.403 158.654 
410.96 112.054 158.988 407.619 113.725 158.546 408.035 115.297 158.681 
407.48 118.331 158.928 405.362 119.295 158.765 404.467 122.507 159.143 
401.324 123.621 159.275 402.337 124.6 159.549 410.399 91.7025 159.812 
413.757 96.2514 159.339 404.713 99.5978 159.804 403.664 102.59 159.825 
414.655 102.448 159.815 413.357 110.867 159.727 400.629 112.451 159.862 
409.748 117.96 159.449 411.304 117.623 159.973 400.846 118.966 159.186 
409.443 120.779 160.08 397.919 121.669 160.097 398.456 124.628 160.305 
397.679 125.159 160.807 399.205 125.976 160.765 399.649 126.323 160.951 
403.429 126.112 160.503 414.202 87.8756 161.036 415.55 88.544 161.131 
407.513 90.4564 160.608 417.998 94.3352 161.201 402.666 98.3298 161.092 
415.739 106.849 160.678 414.876 109.248 160.362 398.65 112.413 161.033 
413.337 118.048 161.194 396.183 119.586 161.264 396.19 125.498 161.97 
398.9 126.825 161.819 405.216 88.4144 162.195 417.45 88.9171 161.727 
403.819 91.074 162.227 403.432 92.9669 161.842 402.585 93.53 162.412 
401.415 98.5703 162.187 400.29 104.759 161.492 417.175 109.283 162.075 
396.319 116.036 162.016 414.955 116.172 161.766 412.026 122.037 162.139 
394.47 123.336 162.984 407.802 125.643 161.96 396.403 126.28 162.757 
398.201 127.327 163.063 404.855 127.162 161.938 405.234 127.146 162.112 
399.856 127.687 163.104 402.403 127.658 162.617 407.407 84.5655 162.575 
405.759 84.6686 163.325 418.134 84.9987 163.154 404.681 86.3168 163.438 
402.952 90.6111 163.521 402.632 90.5935 164.224 401.949 93.3796 163.517 
401.962 94.5722 162.835 400.514 98.9982 163.341 399.55 103.39 162.839 
398.426 105.667 163.725 398.169 108.689 162.575 397.504 109.523 163.211 
395.325 115.123 163.703 394.403 118.081 163.676 413.604 121.669 163.268 
393.786 121.686 163.88 394.618 124.249 163.611 399.059 127.725 163.836 
406.803 81.5337 164.228 413.291 81.3938 163.485 405.992 82.8738 164.074 
403.791 86.4615 164.648 402.323 91.3913 164.391 401.496 94.4789 163.993 
422.076 95.8083 164.213 399.626 101.079 164.088 395.41 113.765 164.64 
394.412 116.648 164.612 393.745 119.983 164.135 394.286 124.07 165.013 
402.019 128.041 164.103 407.023 78.8941 165.423 408.691 79.5312 164.483 
406.433 79.9744 165.305 406.225 79.4261 165.825 405.547 80.9753 165.798 
404.675 83.3614 165.475 403.656 86.1109 165.614 402.591 90.0377 165.518 
400.856 96.5534 164.829 398.299 105.303 165.509 398.094 105.957 164.927 
419.796 107.624 164.591 396.877 109.68 165.146 419.385 109.475 164.635 
395.424 113.411 165.578 418.012 114.253 164.515 393.523 119.003 165.478 
415.708 120.041 164.487 393.433 120.893 165.166 412.898 123.513 164.462 
394.818 124.764 165.732 396.198 126.271 164.953 400.2 127.97 165.048 
403.54 128.017 164.729 406.557 77.992 166.423 406.159 78.4807 166.588 
420.244 81.1057 165.454 423.914 90.0908 165.464 401.495 93.9622 165.419 
400.34 98.4243 165.965 422.356 101.902 166.043 396.498 110.736 166.318 
396.205 111.479 166.4 393.864 117.779 165.872 393.411 119.551 165.725 
393.833 123.019 166.207 405.935 127.591 165.287 402.598 128.069 165.52 
407.829 74.7507 167.462 405.936 77.9339 167.685 403.431 86.7811 166.459 
393.403 120.381 166.391 415.136 122.558 166.811 394.875 124.263 167.151 
400.125 127.588 167.087 407.442 127.17 166.812 409.626 72.699 167.839 
408.99 72.4497 168.196 407.973 72.6123 168.813 407.2 74.0571 168.707 
417.464 75.1688 167.24 404.73 82.1056 168.163 426.035 83.9526 168.032 
403.218 88.754 167.503 400.03 101.8 168.172 397.188 110.106 168.254 
394.757 115.683 167.726 419.088 116.166 167.682 393.808 121.5 167.609 
411.65 125.36 168.04 397.923 126.674 167.455 409.61 70.0776 169.32 
408.395 70.6626 169.708 409.579 71.4343 168.546 406.866 74.2393 169.127 
406.737 74.2346 169.583 406.175 76.3394 169.013 426.312 80.7356 169.281 
404.192 84.5924 168.141 427.153 90.3079 168.743 422.069 109.045 169.066 
395.306 115.246 168.866 394.237 117.651 168.13 394.353 122.195 168.353 
415.533 122.575 168.043 409.09 68.9234 170.399 408.371 69.6645 170.547 
407.295 72.3049 170.314 406.489 74.9038 170.194 404.59 86.0676 169.771 
427.567 93.7944 170.475 425.952 97.2413 169.596 397.071 111.655 169.408 
409.945 67.0888 171.308 408.598 68.274 171.664 414.938 67.3973 170.908 
408.069 69.761 171.011 406.913 73.163 171.109 406.777 73.8525 171.197 
406.261 78.7401 171.426 423.089 107.869 170.893 395.872 116.061 170.471 
395.464 118.708 170.571 395.533 120.926 170.487 398.03 124.866 170.233 
404.968 126.605 170.724 408.369 126.409 170.354 410.598 65.1889 172.463 
412.563 65.6034 171.777 409.892 65.8187 172.356 409.537 66.0978 172.459 
410.719 66.476 171.46 409.287 66.8811 172.036 407.941 69.2168 172.207 
429.499 83.9543 171.986 405.619 88.194 171.921 396.948 122.432 171.235 
412.018 124.958 171.601 411.84 63.8238 173.046 411.223 63.4255 173.447 
410.136 63.6543 173.889 411.681 64.5245 172.595 414.681 63.8631 173.149 
409.233 65.8619 173.108 408.194 68.0776 173.24 407.713 69.9126 172.336 
407.334 71.6919 172.513 429.066 78.2812 173 429.119 92.2346 172.88 
419.827 118.254 172.528 401.299 124.963 172.264 404.872 125.482 172.829 
408.009 125.629 172.627 415.561 62.8965 174.139 408.732 65.9874 174.387 
407.734 71.9669 173.983 427.008 72.8225 173.507 415.31 122.937 173.862 
403.348 124.946 173.159 405.06 124.642 174.143 408.361 67.5778 174.557 
408.412 68.7991 175.288 425.696 69.2744 174.758 408.331 71.738 175.233 
407.957 73.4151 174.494 398.928 115.482 174.018 399.313 118.933 174.616 
400.504 120.881 174.984 402.751 122.749 175.237 413.092 123.911 174.319 
412.797 59.32 176.541 411.028 60.0754 176.384 410.69 60.3366 176.416 
413.258 60.1096 175.87 410.302 60.746 176.447 409.656 62.3541 176.06 
408.97 64.9824 176.148 408.795 67.0031 176.177 401.734 121.285 175.663 
406.418 123.716 175.842 411.861 59.338 176.755 416.001 59.5789 177.056 
418.996 60.7608 177.562 409.013 68.476 176.714 431.919 81.2674 176.834 
430.12 92.9308 176.799 405.03 122.422 176.754 409.346 123.822 176.063 
411.323 58.3231 178.282 410.857 58.73 178.443 410.07 60.3204 178.006 
409.654 61.6566 177.478 431.205 73.4671 178.052 431.959 86.85 178.111 
428.22 98.1849 178.353 424.354 107.385 178.379 402.278 118.38 177.31 
420.544 117.944 177.871 402.975 119.134 177.691 403.46 119.477 177.944 
416.765 121.316 177.607 411.55 123.017 177.352 409.548 62.5414 178.192 
428.118 67.0741 178.629 403.798 117.205 178.974 418.801 119.349 179.47 
413.256 55.5186 180.317 412.102 56.2018 180.33 414.506 55.6974 180.2 
411.181 57.5187 180.302 416.02 56.763 179.69 410.608 58.7771 179.548 
410.369 59.491 179.528 422.172 60.8204 179.699 410.028 61.7047 179.632 
425.876 63.3146 180.164 432.124 72.7866 180.106 432.71 75.8748 180.109 
412.151 80.9232 180.297 428.88 96.9309 179.681 414.735 121.312 179.73 
413.617 54.9818 181.029 414.236 54.282 181.879 422.023 114.756 181.158 
405.119 117.397 180.189 414.162 53.6384 182.846 413.013 54.5053 182.166 
412.948 54.3064 182.625 412.186 55.5024 181.939 411.291 57.4834 181.583 
431.156 68.1419 181.693 432.469 71.0309 182.099 433.202 74.7041 182.213 
433.309 75.6798 182.329 432.018 88.8773 182.516 407.729 119.363 181.175 
416.245 119.95 181.421 412.861 54.2987 183.07 413.718 53.4171 183.517 
412.276 55.3183 182.737 411.977 56.1292 182.863 411.437 57.6963 182.287 
412.752 94.4434 183.572 422.809 112.059 182.866 407.328 116.376 182.501 
410.419 119.071 182.699 412.347 119.854 182.29 413.9 53.1021 184.117 
414.073 52.7086 184.737 413.761 53 184.676 412.63 54.6888 183.436 
430.754 66.1973 183.312 433.062 71.2643 184.079 420.589 115.495 184.473 
409.122 117.319 183.493 415.801 51.8404 185.798 413.364 53.5591 184.904 
412.572 58.0618 184.785 427.167 61.2179 184.704 429.462 63.8674 184.552 
433.323 72.3106 184.87 409.133 110.393 184.93 422.078 112.925 184.997 
414.642 52.1654 186.146 417.73 52.1303 186.435 415.32 74.9609 186.023 
409.777 109.587 185.622 409.272 113.39 185.137 411.45 116.615 185.38 
417.179 116.948 185.625 415.867 51.4963 187.462 416.077 51.4232 187.036 
416.091 51.389 187.32 413.855 54.7571 186.734 413.782 59.3047 186.542 
415.56 90.3931 187.661 410.223 113.542 186.021 412.748 116.202 186.216 
414.702 116.216 186.645 415.993 51.5708 187.924 416.729 51.317 187.795 
425.322 58.1199 187.647 431.035 65.5477 187.404 433.5 76.4109 187.676 
433.423 80.1363 187.813 431.48 88.8066 188.06 421.614 111.97 187.884 
413.868 114.54 187.975 415.693 51.8697 187.958 416.869 51.3945 188.254 
417.362 51.3979 188.143 417.253 51.3939 188.317 417.621 51.5608 188.452 
415.893 52.0787 188.409 419.434 52.5483 188.201 415.61 53.3234 188.675 
420.569 53.3634 188.29 423.289 55.8601 188.255 429.384 93.7042 188.784 
412.784 105.419 189.364 412.252 112.511 188.208 419.582 113.254 189.025 
416.66 51.745 188.816 417.711 51.8202 189.04 421.39 53.9494 189.102 
423.847 56.254 189.587 424.86 57.3982 189.584 428.832 62.5927 189.684 
431.149 66.5249 189.667 432.943 72.7735 189.24 412.411 110.447 189.042 
412.902 110.404 189.577 418.044 113.577 189.315 418.089 52.3941 189.806 
418.008 52.5855 189.976 419.676 52.9859 189.9 420.949 53.7284 189.891 
417.364 54.5977 190.572 423.482 55.9288 190.266 424.366 56.8663 189.991 
429.57 64.1021 190.351 432.772 81.1575 190.25 421.256 110.443 190.724 
420.555 111.08 190.872 418.141 53.0457 190.294 418.227 53.7953 190.704 
420.546 53.9252 190.753 422.928 55.6577 190.932 418.008 56.4112 191.393 
424.218 56.8919 190.702 424.443 57.3815 191.119 425.24 58.0667 190.651 
418.019 58.8927 191.7 417.754 63.3749 191.404 429.459 64.9713 191.68 
417.443 89.9247 191.851 429.66 90.6049 191.563 421.564 54.9264 191.252 
420.586 55.6731 192.089 421.583 56.0829 192.254 419.874 56.4841 192.337 
423.193 56.2164 191.324 423.402 57.0004 191.95 425.29 59.814 192.597 
429.445 66.5743 192.828 418.656 77.2886 192.694 431.852 76.4813 192.456 
[...]
POINT_DATA 1068
COLOR_SCALARS scalars 3
1 0.478431 1 1 0.478431 1 1 0.478431 1 
1 0.478431 1 1 0.478431 1 
1 0.478431 1 1 0.478431 1 
1 0.478431 1 1 0.478431 1 
1 0.478431 1 1 0.478431 1 
1 0.478431 1 1 0.478431 1 
1 0.478431 1 1 0.478431 1 
1 0.478431 1 1 0.478431 1 
1 0.478431 1 1 0.478431 1 
1 0.478431 1 1 0.478431 1 
1 0.478431 1 1 0.478431 1 
1 0.478431 1 1 0.478431 1 
1 0.478431 1 1 0.478431 1 
1 0.478431 1 1 0.478431 1 
1 0.478431 1 1 0.478431 1 
1 0.478431 1 1 0.478431 1 
1 0.478431 1 1 0.478431 1 
1 0.478431 1 1 0.478431 1 
1 0.478431 1 1 0.478431 1 
1 0.478431 1 1 0.478431 1 
1 0.478431 1 1 0.478431 1 
1 0.478431 1 1 0.478431 1 
1 0.478431 1 1 0.478431 1 
1 0.478431 1 1 0.478431 1 
1 0.478431 1 1 0.478431 1 
1 0.478431 1 1 0.478431 1 
1 0.478431 1 1 0.478431 1 
1 0.478431 1 1 0.478431 1 
1 0.478431 1 1 0.478431 1 
1 0.478431 1 1 0.478431 1 
1 0.478431 1 1 0.478431 1 
1 0.478431 1 1 0.478431 1 
1 0.478431 1 1 0.478431 1 
1 0.478431 1 1 0.478431 1 
1 0.478431 1 1 0.478431 1 
1 0.478431 1 1 0.478431 1 
1 0.478431 1 1 0.478431 1 
1 0.478431 1 1 0.478431 1 
1 0.478431 1 1 0.478431 1 
1 0.478431 1 1 0.478431 1 
1 0.478431 1 1 0.478431 1 
1 0.478431 1 1 0.478431 1 
1 0.478431 1 1 0.478431 1 
1 0.478431 1 1 0.478431 1 
1 0.478431 1 1 0.478431 1 
1 0.478431 1 1 0.478431 1 
1 0.478431 1 1 0.478431 1 
1 0.478431 1 1 0.478431 1 
1 0.478431 1 1 0.478431 1 
1 0.478431 1 1 0.478431 1 
1 0.478431 1 1 0.478431 1 
1 0.478431 1 1 0.478431 1 
1 0.478431 1 1 0.478431 1 
1 0.478431 1 1 0.478431 1 
1 0.478431 1 1 0.478431 1 
1 0.478431 1 1 0.478431 1 
1 0.478431 1 1 0.478431 1 
1 0.478431 1 1 0.478431 1 
1 0.478431 1 1 0.478431 1 
1 0.478431 1 1 0.478431 1 
1 0.478431 1 1 0.478431 1 
1 0.478431 1 1 0.478431 1 
1 0.478431 1 1 0.478431 1 
1 0.478431 1 1 0.478431 1 
1 0.478431 1 1 0.478431 1 
1 0.478431 1 1 0.478431 1 
1 0.478431 1 1 0.478431 1 
1 0.478431 1 1 0.478431 1 
1 0.478431 1 1 0.478431 1 
1 0.478431 1 1 0.478431 1 
1 0.478431 1 1 0.478431 1 
1 0.478431 1 1 0.478431 1 
1 0.478431 1 1 0.478431 1 
1 0.478431 1 1 0.478431 1 
1 0.478431 1 1 0.478431 1 
1 0.478431 1 1 0.478431 1 
1 0.478431 1 1 0.478431 1 
1 0.478431 1 1 0.478431 1 
1 0.478431 1 1 0.478431 1 
1 0.478431 1 1 0.478431 1 
1 0.478431 1 1 0.478431 1 
1 0.478431 1 1 0.478431 1 
1 0.478431 1 1 0.478431 1 
1 0.478431 1 1 0.478431 1 
1 0.478431 1 1 0.478431 1 
1 0.478431 1 1 0.478431 1 
1 0.478431 1 1 0.478431 1 
1 0.478431 1 1 0.478431 1 
1 0.478431 1 1 0.478431 1 
1 0.478431 1 1 0.478431 1 
1 0.478431 1 1 0.478431 1 
1 0.478431 1 1 0.478431 1 
1 0.478431 1 1 0.478431 1 
1 0.478431 1 1 0.478431 1 
1 0.478431 1 1 0.478431 1 
1 0.478431 1 1 0.478431 1 
1 0.478431 1 1 0.478431 1 
1 0.478431 1 1 0.478431 1 
1 0.478431 1 1 0.478431 1 
1 0.478431 1 1 0.478431 1 
1 0.478431 1 1 0.478431 1 
1 0.478431 1 1 0.478431 1 
1 0.478431 1 1 0.478431 1 
1 0.478431 1 1 0.478431 1 
1 0.478431 1 1 0.478431 1 
1 0.478431 1 1 0.478431 1 
1 0.478431 1 1 0.478431 1 
1 0.478431 1 1 0.478431 1 
1 0.478431 1 1 0.478431 1 
1 0.478431 1 1 0.478431 1 
1 0.478431 1 1 0.478431 1 
1 0.478431 1 1 0.478431 1 
1 0.478431 1 1 0.478431 1 
1 0.478431 1 1 0.478431 1 
1 0.478431 1 1 0.478431 1 
1 0.478431 1 1 0.478431 1 
1 0.478431 1 1 0.478431 1 
1 0.478431 1 1 0.478431 1 
1 0.478431 1 1 0.478431 1 
1 0.478431 1 1 0.478431 1 
1 0.478431 1 1 0.478431 1 
1 0.478431 1 1 0.478431 1 
1 0.478431 1 1 0.478431 1 
1 0.478431 1 1 0.478431 1 
1 0.478431 1 1 0.478431 1 
1 0.478431 1 1 0.478431 1 
1 0.478431 1 1 0.478431 1 
1 0.478431 1 1 0.478431 1 
1 0.478431 1 1 0.478431 1 
1 0.478431 1 1 0.478431 1 
1 0.478431 1 1 0.478431 1 
1 0.478431 1 1 0.478431 1 
1 0.478431 1 1 0.478431 1 
1 0.478431 1 1 0.478431 1 
1 0.478431 1 1 0.478431 1 
1 0.478431 1 1 0.478431 1 
1 0.478431 1 1 0.478431 1 
1 0.478431 1 1 0.478431 1 
1 0.478431 1 1 0.478431 1 
1 0.478431 1 1 0.478431 1 
1 0.478431 1 1 0.478431 1 
1 0.478431 1 1 0.478431 1 
1 0.478431 1 1 0.478431 1 
1 0.478431 1 1 0.478431 1 
1 0.478431 1 1 0.478431 1 
1 0.478431 1 1 0.478431 1 
1 0.478431 1 1 0.478431 1 
1 0.478431 1 1 0.478431 1 
1 0.478431 1 1 0.478431 1 
1 0.478431 1 1 0.478431 1 
1 0.478431 1 1 0.478431 1 
1 0.478431 1 1 0.478431 1 
1 0.478431 1 1 0.478431 1 
1 0.478431 1 1 0.478431 1 
1 0.478431 1 1 0.478431 1 
1 0.478431 1 1 0.478431 1 
1 0.478431 1 1 0.478431 1 
1 0.478431 1 1 0.478431 1 
1 0.478431 1 1 0.478431 1 
1 0.478431 1 1 0.478431 1 
1 0.478431 1 1 0.478431 1 
1 0.478431 1 1 0.478431 1 
1 0.478431 1 1 0.478431 1 
1 0.478431 1 1 0.478431 1 
1 0.478431 1 1 0.478431 1 
1 0.478431 1 1 0.478431 1 
1 0.478431 1 1 0.478431 1 
1 0.478431 1 1 0.478431 1 
1 0.478431 1 1 0.478431 1 
1 0.478431 1 1 0.478431 1 
1 0.478431 1 1 0.478431 1 
1 0.478431 1 1 0.478431 1 
1 0.478431 1 1 0.478431 1 
1 0.478431 1 1 0.478431 1 
1 0.478431 1 1 0.478431 1 
1 0.478431 1 1 0.478431 1 
1 0.478431 1 1 0.478431 1 
1 0.478431 1 1 0.478431 1 
1 0.478431 1 1 0.478431 1 
1 0.478431 1 1 0.478431 1 
1 0.478431 1 1 0.478431 1 
1 0.478431 1 1 0.478431 1 
1 0.478431 1 1 0.478431 1 
1 0.478431 1 1 0.478431 1 
1 0.478431 1 1 0.478431 1 
1 0.478431 1 1 0.478431 1 
1 0.478431 1 1 0.478431 1 
1 0.478431 1 1 0.478431 1 
1 0.478431 1 1 0.478431 1 
1 0.478431 1 1 0.478431 1 
1 0.478431 1 1 0.478431 1 
1 0.478431 1 1 0.478431 1 
1 0.478431 1 1 0.478431 1 
1 0.478431 1 1 0.478431 1 
1 0.478431 1 1 0.478431 1 
1 0.478431 1 1 0.478431 1 
1 0.478431 1 1 0.478431 1 
1 0.478431 1 1 0.478431 1 
1 0.478431 1 1 0.478431 1 
1 0.478431 1 1 0.478431 1 
1 0.478431 1 1 0.478431 1 
1 0.478431 1 1 0.478431 1 
1 0.478431 1 1 0.478431 1 
1 0.478431 1 1 0.478431 1 
1 0.478431 1 1 0.478431 1 
1 0.478431 1 1 0.478431 1 
1 0.478431 1 1 0.478431 1 
1 0.478431 1 1 0.478431 1 
1 0.478431 1 1 0.478431 1 
1 0.478431 1 1 0.478431 1 
1 0.478431 1 1 0.478431 1 
1 0.478431 1 1 0.478431 1 
1 0.478431 1 1 0.478431 1 
1 0.478431 1 1 0.478431 1 
1 0.478431 1 1 0.478431 1 
1 0.478431 1 1 0.478431 1 
1 0.478431 1 1 0.478431 1 
1 0.478431 1 1 0.478431 1 
1 0.478431 1 1 0.478431 1 
1 0.478431 1 1 0.478431 1 
1 0.478431 1 1 0.478431 1 
1 0.478431 1 1 0.478431 1 
1 0.478431 1 1 0.478431 1 
1 0.478431 1 1 0.478431 1 
1 0.478431 1 1 0.478431 1 
1 0.478431 1 1 0.478431 1 
1 0.478431 1 1 0.478431 1 
1 0.478431 1 1 0.478431 1 
1 0.478431 1 1 0.478431 1 
1 0.478431 1 1 0.478431 1 
1 0.478431 1 1 0.478431 1 
1 0.478431 1 1 0.478431 1 
1 0.478431 1 1 0.478431 1 
1 0.478431 1 1 0.478431 1 
1 0.478431 1 1 0.478431 1 
1 0.478431 1 1 0.478431 1 
1 0.478431 1 1 0.478431 1 
1 0.478431 1 1 0.478431 1 
1 0.478431 1 1 0.478431 1 
1 0.478431 1 1 0.478431 1 
1 0.478431 1 1 0.478431 1 
1 0.478431 1 1 0.478431 1 
1 0.478431 1 1 0.478431 1 
1 0.478431 1 1 0.478431 1 
1 0.478431 1 1 0.478431 1 
1 0.478431 1 1 0.478431 1 
1 0.478431 1 1 0.478431 1 
1 0.478431 1 1 0.478431 1 
1 0.478431 1 1 0.478431 1 
1 0.478431 1 1 0.478431 1 
1 0.478431 1 1 0.478431 1 
1 0.478431 1 1 0.478431 1 
1 0.478431 1 1 0.478431 1 
1 0.478431 1 1 0.478431 1 
1 0.478431 1 1 0.478431 1 
1 0.478431 1 1 0.478431 1 
1 0.478431 1 1 0.478431 1 
1 0.478431 1 1 0.478431 1 
1 0.478431 1 1 0.478431 1 
1 0.478431 1 1 0.478431 1 
1 0.478431 1 1 0.478431 1 
1 0.478431 1 1 0.478431 1 
1 0.478431 1 1 0.478431 1 
1 0.478431 1 1 0.478431 1 
1 0.478431 1 1 0.478431 1 
1 0.478431 1 1 0.478431 1 
1 0.478431 1 1 0.478431 1 
1 0.478431 1 1 0.478431 1 
1 0.478431 1 1 0.478431 1 
1 0.478431 1 1 0.478431 1 
1 0.478431 1 1 0.478431 1 
1 0.478431 1 1 0.478431 1 
1 0.478431 1 1 0.478431 1 
1 0.478431 1 1 0.478431 1 
1 0.478431 1 1 0.478431 1 
1 0.478431 1 1 0.478431 1 
1 0.478431 1 1 0.478431 1 
1 0.478431 1 1 0.478431 1 
1 0.478431 1 1 0.478431 1 
1 0.478431 1 1 0.478431 1 
1 0.478431 1 1 0.478431 1 
1 0.478431 1 1 0.478431 1 
1 0.478431 1 1 0.478431 1 
1 0.478431 1 1 0.478431 1 
1 0.478431 1 1 0.478431 1 
1 0.478431 1 1 0.478431 1 
1 0.478431 1 1 0.478431 1 
1 0.478431 1 1 0.478431 1 
1 0.478431 1 1 0.478431 1 
1 0.478431 1 1 0.478431 1 
1 0.478431 1 1 0.478431 1 
1 0.478431 1 1 0.478431 1 
1 0.478431 1 1 0.478431 1 
1 0.478431 1 1 0.478431 1 
1 0.478431 1 1 0.478431 1 
1 0.478431 1 1 0.478431 1 
1 0.478431 1 1 0.478431 1 
1 0.478431 1 1 0.478431 1 
1 0.478431 1 1 0.478431 1 
1 0.478431 1 1 0.478431 1 
1 0.478431 1 1 0.478431 1 
1 0.478431 1 1 0.478431 1 
1 0.478431 1 1 0.478431 1 
1 0.478431 1 1 0.478431 1 
1 0.478431 1 1 0.478431 1 
1 0.478431 1 1 0.478431 1 
1 0.478431 1 1 0.478431 1 
1 0.478431 1 1 0.478431 1 
1 0.478431 1 1 0.478431 1 
1 0.478431 1 1 0.478431 1 
1 0.478431 1 1 0.478431 1 
1 0.478431 1 1 0.478431 1 
1 0.478431 1 1 0.478431 1 
1 0.478431 1 1 0.478431 1 
1 0.478431 1 1 0.478431 1 
1 0.478431 1 1 0.478431 1 
1 0.478431 1 1 0.478431 1 
1 0.478431 1 1 0.478431 1 
1 0.478431 1 1 0.478431 1 
1 0.478431 1 1 0.478431 1 
1 0.478431 1 1 0.478431 1 
1 0.478431 1 1 0.478431 1 
1 0.478431 1 1 0.478431 1 
1 0.478431 1 1 0.478431 1 
1 0.478431 1 1 0.478431 1 
1 0.478431 1 1 0.478431 1 
1 0.478431 1 1 0.478431 1 
1 0.478431 1 1 0.478431 1 
1 0.478431 1 1 0.478431 1 
1 0.478431 1 1 0.478431 1 
1 0.478431 1 1 0.478431 1 
1 0.478431 1 1 0.478431 1 
1 0.478431 1 1 0.478431 1 
1 0.478431 1 1 0.478431 1 
1 0.478431 1 1 0.478431 1 
1 0.478431 1 1 0.478431 1 
1 0.478431 1 1 0.478431 1 
1 0.478431 1 1 0.478431 1 
1 0.478431 1 1 0.478431 1 
1 0.478431 1 1 0.478431 1 
1 0.478431 1 1 0.478431 1 
1 0.478431 1 1 0.478431 1 
1 0.478431 1 1 0.478431 1 
1 0.478431 1 1 0.478431 1 
1 0.478431 1 1 0.478431 1 
1 0.478431 1 1 0.478431 1 
1 0.478431 1 1 0.478431 1 
1 0.478431 1 1 0.478431 1 
1 0.478431 1 1 0.478431 1 
1 0.478431 1 1 0.478431 1 
1 0.478431 1 1 0.478431 1 
1 0.478431 1 1 0.478431 1 
1 0.478431 1 1 0.478431 1 
1 0.478431 1 1 0.478431 1 
1 0.478431 1 1 0.478431 1 
1 0.478431 1 1 0.478431 1 
1 0.478431 1 1 0.478431 1 
1 0.478431 1 1 0.478431 1 
1 0.478431 1 1 0.478431 1 
1 0.478431 1 1 0.478431 1 
1 0.478431 1 1 0.478431 1 
1 0.478431 1 1 0.478431 1 
1 0.478431 1 1 0.478431 1 
1 0.478431 1 1 0.478431 1 
1 0.478431 1 1 0.478431 1 
1 0.478431 1 1 0.478431 1 
1 0.478431 1 1 0.478431 1 
1 0.478431 1 1 0.478431 1 
1 0.478431 1 1 0.478431 1 
1 0.478431 1 1 0.478431 1 
1 0.478431 1 1 0.478431 1 
1 0.478431 1 1 0.478431 1 
1 0.478431 1 1 0.478431 1 
1 0.478431 1 1 0.478431 1 
1 0.478431 1 1 0.478431 1 
1 0.478431 1 1 0.478431 1 
1 0.478431 1 1 0.478431 1 
1 0.478431 1 1 0.478431 1 
1 0.478431 1 1 0.478431 1 
1 0.478431 1 1 0.478431 1 
1 0.478431 1 1 0.478431 1 
1 0.478431 1 1 0.478431 1 
1 0.478431 1 1 0.478431 1 
1 0.478431 1 1 0.478431 1 
1 0.478431 1 1 0.478431 1 
1 0.478431 1 1 0.478431 1 
1 0.478431 1 1 0.478431 1 
1 0.478431 1 1 0.478431 1 
1 0.478431 1 1 0.478431 1 
1 0.478431 1 1 0.478431 1 
1 0.478431 1 1 0.478431 1 
1 0.478431 1 1 0.478431 1 
1 0.478431 1 1 0.478431 1 
1 0.478431 1 1 0.478431 1 
1 0.478431 1 1 0.478431 1 
1 0.478431 1 1 0.478431 1 
1 0.478431 1 1 0.478431 1 
1 0.478431 1 1 0.478431 1 
1 0.478431 1 1 0.478431 1 
1 0.478431 1 1 0.478431 1 
1 0.478431 1 1 0.478431 1 
1 0.478431 1 1 0.478431 1 
1 0.478431 1 1 0.478431 1 
1 0.478431 1 1 0.478431 1 
1 0.478431 1 1 0.478431 1 
1 0.478431 1 1 0.478431 1 
1 0.478431 1 1 0.478431 1 
1 0.478431 1 1 0.478431 1 
1 0.478431 1 1 0.478431 1 
1 0.478431 1 1 0.478431 1 
1 0.478431 1 1 0.478431 1 
1 0.478431 1 1 0.478431 1 
1 0.478431 1 1 0.478431 1 
1 0.478431 1 1 0.478431 1 
1 0.478431 1 1 0.478431 1 
1 0.478431 1 1 0.478431 1 
1 0.478431 1 1 0.478431 1 
1 0.478431 1 1 0.478431 1 
1 0.478431 1 1 0.478431 1 
1 0.478431 1 1 0.478431 1 
1 0.478431 1 1 0.478431 1 
1 0.478431 1 1 0.478431 1 
1 0.478431 1 1 0.478431 1 
1 0.478431 1 1 0.478431 1 
1 0.478431 1 1 0.478431 1 
1 0.478431 1 1 0.478431 1 
1 0.478431 1 1 0.478431 1 
1 0.478431 1 1 0.478431 1 
1 0.478431 1 1 0.478431 1 
1 0.478431 1 1 0.478431 1 
1 0.478431 1 1 0.478431 1 
1 0.478431 1 1 0.478431 1 
1 0.478431 1 1 0.478431 1 
1 0.478431 1 1 0.478431 1 
1 0.478431 1 1 0.478431 1 
1 0.478431 1 1 0.478431 1 
1 0.478431 1 1 0.478431 1 
1 0.478431 1 1 0.478431 1 
1 0.478431 1 1 0.478431 1 
1 0.478431 1 1 0.478431 1 
1 0.478431 1 1 0.478431 1 
1 0.478431 1 1 0.478431 1 
1 0.478431 1 1 0.478431 1 
1 0.478431 1 1 0.478431 1 
1 0.478431 1 1 0.478431 1 
1 0.478431 1 1 0.478431 1 
1 0.478431 1 1 0.478431 1 
1 0.478431 1 1 0.478431 1 
1 0.478431 1 1 0.478431 1 
1 0.478431 1 1 0.478431 1 
1 0.478431 1 1 0.478431 1 
1 0.478431 1 1 0.478431 1 
1 0.478431 1 1 0.478431 1 
1 0.478431 1 1 0.478431 1 
1 0.478431 1 1 0.478431 1 
1 0.478431 1 1 0.478431 1 
1 0.478431 1 1 0.478431 1 
1 0.478431 1 1 0.478431 1 
1 0.478431 1 1 0.478431 1 
1 0.478431 1 1 0.478431 1 
1 0.478431 1 1 0.478431 1 
1 0.478431 1 1 0.478431 1 
1 0.478431 1 1 0.478431 1 
1 0.478431 1 1 0.478431 1 
1 0.478431 1 1 0.478431 1 
1 0.478431 1 1 0.478431 1 
1 0.478431 1 1 0.478431 1 
1 0.478431 1 1 0.478431 1 
1 0.478431 1 1 0.478431 1 
1 0.478431 1 1 0.478431 1 
1 0.478431 1 1 0.478431 1 
1 0.478431 1 1 0.478431 1 
1 0.478431 1 1 0.478431 1 
1 0.478431 1 1 0.478431 1 
1 0.478431 1 1 0.478431 1 
1 0.478431 1 1 0.478431 1 
1 0.478431 1 1 0.478431 1 
1 0.478431 1 1 0.478431 1 
1 0.478431 1 1 0.478431 1 
1 0.478431 1 1 0.478431 1 
1 0.478431 1 1 0.478431 1 
1 0.478431 1 1 0.478431 1 
1 0.478431 1 1 0.478431 1 
1 0.478431 1 1 0.478431 1 
1 0.478431 1 1 0.478431 1 
1 0.478431 1 1 0.478431 1 
1 0.478431 1 1 0.478431 1 
1 0.478431 1 1 0.478431 1 
1 0.478431 1 1 0.478431 1 
1 0.478431 1 1 0.478431 1 
1 0.478431 1 1 0.478431 1 
1 0.478431 1 1 0.478431 1 
1 0.478431 1 1 0.478431 1 
1 0.478431 1 1 0.478431 1 
1 0.478431 1 1 0.478431 1 
1 0.478431 1 1 0.478431 1 
1 0.478431 1 1 0.478431 1 
1 0.478431 1 1 0.478431 1 
1 0.478431 1 1 0.478431 1 
1 0.478431 1 1 0.478431 1 
1 0.478431 1 1 0.478431 1 
1 0.478431 1 1 0.478431 1 
1 0.478431 1 1 0.478431 1 
1 0.478431 1 1 0.478431 1 
1 0.478431 1 1 0.478431 1 
1 0.478431 1 1 0.478431 1 
1 0.478431 1 1 0.478431 1 
1 0.478431 1 1 0.478431 1 
1 0.478431 1 1 0.478431 1 
1 0.478431 1 1 0.478431 1 
1 0.478431 1 1 0.478431 1 
1 0.478431 1 1 0.478431 1 
1 0.478431 1 1 0.478431 1 
1 0.478431 1 1 0.478431 1 
1 0.478431 1 1 0.478431 1 
1 0.478431 1 1 0.478431 1 
1 0.478431 1 1 0.478431 1 
1 0.478431 1 1 0.478431 1 
1 0.478431 1 1 0.478431 1 
1 0.478431 1 1 0.478431 1 
1 0.478431 1 1 0.478431 1 
1 0.478431 1 1 0.478431 1 
1 0.478431 1 1 0.478431 1 
1 0.478431 1 1 0.478431 1 
1 0.478431 1 1 0.478431 1 
1 0.478431 1 1 0.478431 1 
1 0.478431 1 1 0.478431 1 
1 0.478431 1 1 0.478431 1 
1 0.478431 1 1 0.478431 1 
1 0.478431 1 1 0.478431 1 
1 0.478431 1 1 0.478431 1 
1 0.478431 1 1 0.478431 1 
1 0.478431 1 1 0.478431 1 
1 0.478431 1 
NORMALS Normals float
0.036508 -0.200789 -0.978954 -0.0530802 -0.120644 -0.991276 0.0358379 -0.0185306 -0.999186 
0.0862031 -0.0665099 -0.994055 -0.239363 -0.140939 -0.960646 -0.0631866 -0.118432 -0.99095 
0.116343 -0.0483117 -0.992033 -0.195062 -0.0607172 -0.97891 -0.10129 -0.00682313 -0.994834 
0.265586 -0.00916468 -0.964044 0.0803083 -0.000705905 -0.99677 0.178509 0.0676469 -0.98161 
0.150206 0.146251 -0.977777 0.0664789 0.119883 -0.99056 0.148275 0.259374 -0.954327 
-0.151761 0.221859 -0.963196 0.0042875 0.41589 -0.909405 0.0111504 -0.31693 -0.948384 
0.245031 -0.0837319 -0.965893 -0.256841 -0.175426 -0.950399 -0.332867 -0.124861 -0.934671 
0.469859 0.0524469 -0.881182 0.483646 0.108727 -0.868484 -0.437987 -0.11643 -0.89141 
0.328406 0.233327 -0.915264 0.314178 0.165593 -0.934811 -0.268001 -0.0418726 -0.962508 
0.373512 0.294089 -0.879773 -0.451251 0.0600641 -0.890374 -0.192774 0.278246 -0.940966 
-0.450952 0.427982 -0.783246 -0.175197 0.531667 -0.828635 -0.0785133 0.63526 -0.768297 
0.168529 0.6093 -0.774824 0.154651 -0.303255 -0.940276 0.260108 -0.257486 -0.930616 
-0.257027 -0.262861 -0.929968 0.399409 -0.104937 -0.910747 -0.484169 -0.119525 -0.866772 
0.645735 0.045194 -0.762223 0.407346 0.083616 -0.909438 -0.672025 -0.210559 -0.709963 
0.557253 0.330443 -0.761759 -0.610189 -0.105921 -0.785143 -0.661872 0.474676 -0.580179 
-0.263701 0.794816 -0.546561 -0.566607 -0.367961 -0.737266 0.425386 -0.295249 -0.855497 
-0.383484 -0.254399 -0.887818 -0.529266 -0.325694 -0.783455 -0.7714 -0.289831 -0.566515 
-0.79571 -0.00276696 -0.605671 -0.633045 -0.206022 -0.746197 0.741479 0.131392 -0.657986 
-0.664373 -0.23581 -0.709226 0.663935 0.25191 -0.704082 0.542198 0.446235 -0.711966 
-0.788067 0.123889 -0.602993 0.445716 0.695899 -0.563083 -0.583499 0.734187 -0.347129 
-0.356463 0.90205 -0.243393 0.171107 0.861749 -0.47761 0.324067 0.830728 -0.452628 
-0.111179 0.937315 -0.330272 0.036374 0.929031 -0.368209 -0.278667 -0.342958 -0.897065 
-0.575952 -0.347498 -0.739949 0.423191 -0.25882 -0.868287 -0.65083 -0.30243 -0.696388 
-0.786956 -0.404619 -0.465816 -0.891154 -0.427603 -0.151658 -0.869094 -0.319402 -0.377701 
-0.837242 -0.213894 -0.503264 -0.815278 0.0048285 -0.57905 -0.753227 -0.281686 -0.594393 
-0.898284 -0.262082 -0.352701 -0.774915 -0.233705 -0.587272 -0.929167 -0.250542 -0.271804 
-0.872055 -0.331898 -0.359672 -0.861256 -0.180378 -0.475082 0.616484 0.407292 -0.67384 
-0.937615 0.114794 -0.328177 -0.855781 0.466455 -0.223737 -0.283887 0.954163 -0.0947654 
-0.549352 -0.400008 -0.733625 0.093289 -0.406087 -0.90906 -0.588368 -0.406216 -0.699151 
-0.894702 -0.230354 -0.382682 -0.934582 -0.317879 -0.159719 -0.921163 -0.247089 -0.300675 
0.690695 0.128497 -0.711638 -0.86189 -0.271749 -0.428133 -0.876829 -0.304146 -0.372378 
-0.900109 -0.323852 -0.291416 -0.917933 -0.0916941 -0.385995 -0.880952 0.469775 -0.0568767 
0.0178562 0.997864 -0.0628384 -0.504064 -0.463014 -0.729067 -0.243701 -0.457706 -0.855052 
-0.565657 -0.36334 -0.740281 -0.765344 -0.352045 -0.538807 -0.819991 -0.330325 -0.467441 
-0.863531 -0.36659 -0.346303 -0.955245 -0.264013 -0.133435 -0.913296 -0.366771 -0.177113 
-0.942163 -0.26262 -0.208228 -0.960658 -0.27514 0.0378744 -0.962538 -0.242398 -0.121502 
0.776096 0.157573 -0.610611 -0.955779 -0.284233 -0.0754813 0.776934 0.158779 -0.609232 
-0.92901 -0.369901 0.0106444 0.745329 0.249894 -0.618092 -0.957165 -0.193607 -0.215294 
0.744923 0.429064 -0.510875 -0.994788 0.0813289 -0.0614987 0.601447 0.67207 -0.431952 
-0.752798 0.650252 0.102312 -0.523682 0.847621 0.0854129 -0.124089 0.992013 0.0226219 
0.117066 0.983932 -0.134806 -0.58173 -0.498545 -0.642684 -0.782085 -0.374597 -0.498016 
0.413869 -0.385726 -0.824577 0.636281 -0.0033751 -0.77145 -0.95863 -0.274058 0.0769499 
-0.912912 -0.28759 0.289628 0.782434 0.19584 -0.591137 -0.948995 -0.31371 -0.0315421 
-0.912119 -0.374891 0.165819 -0.958168 -0.284697 -0.0293694 -0.980689 -0.162177 0.109311 
-0.940584 0.334019 0.0611028 0.301258 0.949918 -0.0830621 0.0757236 0.994606 0.0708893 
-0.65412 -0.394916 -0.645111 -0.925682 -0.308948 -0.218321 -0.96969 -0.23498 0.0669758 
-0.985341 -0.104447 0.134884 0.715213 0.634873 -0.292243 -0.713025 0.572592 0.40464 
-0.228649 0.932753 0.278731 0.280917 0.959329 0.0278134 -0.202379 -0.419044 -0.885124 
-0.453939 -0.319503 -0.83178 -0.656381 -0.402 -0.638405 -0.766525 -0.479629 -0.427078 
0.310893 -0.456827 -0.83346 -0.966541 -0.237694 0.0964364 0.624089 -0.166172 -0.763479 
-0.935251 -0.175007 0.307699 -0.848229 -0.333338 0.411574 -0.857981 -0.374559 0.351531 
-0.941983 -0.315738 0.113917 0.860029 0.322554 -0.395361 -0.915328 0.0239448 0.401997 
0.487626 0.866922 -0.103281 -0.518453 0.751509 0.407971 -0.367441 -0.507675 -0.779265 
-0.727283 -0.39969 -0.55795 -0.2666 -0.494422 -0.827328 -0.866332 -0.353957 -0.352398 
-0.902992 -0.373898 -0.211675 -0.930079 -0.294176 -0.220032 0.610604 -0.318327 -0.725142 
-0.859615 -0.390331 0.329703 0.79156 0.0768953 -0.606234 0.900641 0.316657 -0.297615 
-0.873716 -0.362595 0.324261 -0.92975 -0.175331 0.323764 -0.74564 0.42213 0.515584 
0.682357 0.725233 -0.0917961 -0.578228 -0.514793 -0.632962 -0.676508 -0.520625 -0.520851 
-0.902084 -0.353009 -0.248253 -0.986415 -0.155922 0.0517051 -0.777494 -0.353174 0.520357 
0.801958 0.207457 -0.560201 0.882009 0.281595 -0.377841 -0.801115 -0.377916 0.464106 
-0.485553 -0.570555 -0.662348 -0.763041 -0.460155 -0.453901 0.141828 -0.525961 -0.8386 
-0.887543 -0.321249 -0.330253 -0.972715 -0.218188 0.078862 -0.974873 -0.166243 0.148275 