# vtk DataFile Version 4.2
vtk output
ASCII
DATASET POLYDATA
POINTS 852 float
177.776 125.086 221.046 178.96 125.27 221.45 175.287 127.671 221.184 
173.415 129.336 221.193 175.257 128.067 221.395 173.295 129.721 221.269 
172.965 129.869 221.258 173.949 129.639 221.501 171.499 131.261 221.349 
171.148 131.416 221.42 171.064 131.787 221.493 215.919 100.887 222.518 
215.741 100.758 222.516 216.392 100.648 222.668 215.105 101.762 222.554 
215.008 101.668 222.505 214.866 101.929 222.626 212.024 103.117 222.279 
211.601 103.221 222.215 212.554 102.581 222.36 211.41 103.381 222.214 
211.226 103.568 222.282 212.474 103.381 222.499 212.822 103.203 222.557 
208.85 104.937 222.217 209.292 105.012 222.339 207.695 105.538 222.129 
208.066 105.599 222.257 208.249 105.895 222.557 204.251 107.616 222.229 
205.111 107.439 222.306 200.363 108.947 222.011 201.663 109.041 222.132 
199.894 110.046 221.98 200.645 110.106 222.2 202.124 109.468 222.377 
198.099 110.593 221.863 199.113 110.614 221.984 195.91 111.704 221.838 
199.559 111.243 222.444 200.212 111.008 222.604 195.35 112.779 221.928 
199.142 111.622 222.575 192.525 113.981 221.82 194.767 113.626 222.113 
191.23 114.557 221.826 192.342 114.568 221.91 188.613 116.031 221.805 
187.18 116.856 221.765 186.401 118.091 221.769 185.573 118.215 221.721 
187.26 117.966 221.857 189.532 117.311 222.279 184.265 118.83 221.712 
179.171 122.007 221.462 183.51 121.314 222.061 174.693 126.201 221.272 
176.683 125.916 221.21 174.466 128.095 221.25 171.657 128.525 221.576 
172.474 130.064 221.325 169.579 130.906 222.185 172.785 130.619 221.525 
173.828 130.187 221.785 171.974 131.887 221.713 172.771 131.154 221.786 
168.921 132.956 222.375 169.328 133.526 222.247 169.866 133.708 222.186 
169.697 134.669 222.559 226.829 94.7705 223.302 227.119 94.6678 223.433 
225.333 95.6652 223.248 225.111 95.5811 223.204 225.642 95.5978 223.313 
225.99 95.3324 223.323 222.607 97.2484 223.109 225.265 95.9336 223.439 
220.822 97.9697 222.951 220.222 97.9452 222.864 221.379 97.3796 222.955 
223.161 97.5139 223.388 220.041 98.465 222.937 217.094 99.8765 222.701 
216.973 99.3954 222.679 215.092 100.574 222.557 213.58 101.932 222.465 
212.731 101.96 222.414 215.615 101.45 222.665 211.187 103.257 222.242 
211.234 102.7 222.331 214.439 102.536 222.951 215.823 101.706 223.061 
209.368 103.951 222.272 208.688 103.966 222.289 210.443 103.857 222.342 
213.136 103.253 222.812 210.761 104.33 222.613 203.202 107.128 222.212 
205.679 107.469 222.562 206.951 106.905 222.923 197.281 109.97 222.025 
197.002 110.59 221.914 200.799 110.679 222.635 193.779 111.591 222.135 
197.796 112.634 222.789 190.318 113.944 222.015 192.222 113.622 221.835 
190.068 114.606 221.89 189.838 117.74 222.907 186.913 119.407 222.426 
178.314 121.319 221.926 185.146 120.745 222.528 175.548 123.271 221.952 
172.594 125.966 222.051 172.002 126.286 222.232 175.718 128.521 222.019 
174.699 129.545 222.023 168.838 131.093 222.674 173.681 130.889 222.353 
170.929 133.532 222.328 167.621 135.05 223.085 168.131 136.291 223.104 
164.698 142.289 223.283 164.563 141.989 223.38 164.88 141.745 223.348 
164.561 142.641 223.309 164.371 143.207 223.473 164.811 143.328 223.359 
164.26 153.486 223.555 164.137 153.019 223.658 163.95 154.339 223.77 
164.28 154.663 223.545 165.114 156.567 223.339 165.214 156.222 223.392 
165.194 158.612 223.438 165.208 159.2 223.506 165.394 159.648 223.6 
242.512 85.5378 224.548 243.421 85.2673 224.905 240.842 86.0289 224.244 
241.578 86.0998 224.322 242.864 85.8082 224.71 243.219 85.5727 224.821 
240.725 86.76 224.21 241.346 86.6072 224.383 242.665 86.1395 224.87 
237.152 87.7896 223.879 240.489 87.1896 224.322 241.061 87.0947 224.52 
235.168 88.7939 223.826 237.091 88.7465 223.93 238.493 88.2924 224.131 
233.91 89.5024 223.794 235.12 89.8087 223.902 236.537 89.3609 224.055 
238.142 88.8621 224.317 232.243 90.979 223.777 232.725 90.2571 223.773 
234.594 90.4232 224.054 233.674 91.0296 224.114 234.349 90.951 224.321 
235.853 90.2663 224.43 227.293 92.8587 223.557 232.252 92.1159 224.271 
233.084 91.7687 224.46 227.862 93.7053 223.524 225.223 95.15 223.229 
226.252 94.7954 223.292 229.248 93.9208 224.148 221.201 95.7223 223.285 
224.351 95.8874 223.253 226.437 95.2123 223.449 221.954 96.6645 223.017 
217.298 97.6128 223.21 220.019 97.4864 222.899 223.396 97.5351 223.566 
215.354 98.6618 223.174 217.17 98.8374 222.782 221.772 98.5794 223.606 
222.784 98.178 224.01 213.317 100.127 222.936 214.45 99.9641 222.804 
212.383 101.489 222.564 207.354 102.788 223.143 211.421 104.6 223.367 
203.127 106.095 222.517 200.083 107.786 222.404 196.355 109.089 222.679 
199.775 111.664 223.131 200.733 111.21 223.549 189.38 113.016 222.717 
198.272 112.745 223.485 199.644 111.901 223.551 185.712 114.337 223.429 
186.975 115.039 222.422 189.321 118.533 223.761 178.253 119.457 223.207 
185.818 120.684 223.008 173.239 123.721 223.013 178.006 127.269 223.269 
174.997 130.115 223.278 167.444 133.428 223.325 171.533 133.441 222.731 
167.124 135.011 223.339 166.894 134.628 223.55 170.747 134.833 223.326 
169.851 135.518 223.11 168.962 136.663 223.361 167.58 137.736 223.449 
165.914 140.218 223.507 165.303 140.214 223.561 166.345 140.948 223.587 
164.287 141.999 223.608 166.419 141.793 223.71 164.145 143.296 223.714 
164.683 144.846 223.666 165.674 144.946 223.769 164.815 147.66 223.846 
163.785 150.866 224.063 163.571 151.115 224.243 164.268 152.311 223.739 
163.823 152.661 223.937 165.057 154.168 223.586 165.421 153.321 223.81 
164.974 155.522 223.462 166.117 156.405 224.009 165.816 157.909 223.653 
164.721 159.211 223.703 164.961 160.686 223.934 165.865 160.568 223.891 
165.134 163.573 224.4 165.431 164.632 224.459 165.766 164.941 224.499 
243.624 85.4548 225.145 234.809 87.7746 224.296 241.674 87.088 225.103 
233.041 89.1041 223.981 238.751 88.9195 224.883 229.096 91.0938 223.894 
235.119 91.0126 225.004 232.375 92.3989 224.672 233.777 91.6786 224.881 
222.346 94.1607 223.847 226.655 95.8573 224.374 224.103 97.4089 224.226 
212.339 99.2715 223.857 208.553 101.131 224.008 205.293 103.033 223.792 
211.06 105.22 224.456 197.203 107.176 223.776 189.26 112.02 223.483 
200.234 111.648 223.954 170.158 126.393 223.868 168.208 130.067 223.67 
167.191 132.185 223.967 173.594 131.597 223.197 170.986 134.985 223.79 
171.628 134.24 223.895 165.377 138.581 223.866 169.214 137.459 224.112 
168.404 138.464 224 164.68 139.781 223.947 167.461 140.177 223.985 
168.034 139.527 224.233 164.4 141.032 223.779 164.236 140.485 224.096 
166.869 142.824 224.248 167.482 142.275 224.783 163.499 143.666 224.717 
166.944 143.476 224.524 163.338 147.806 224.779 163.277 149.76 224.764 
163.212 151.891 224.816 165.694 152.631 224.054 163.131 153.575 225.074 
163.475 154.582 224.41 163.484 155.2 224.502 166.468 157.883 224.337 
166.721 157.37 224.79 164.218 158.419 224.011 164.521 160.187 224.15 
166.459 159.732 224.38 164.974 163.778 224.683 165.6 165.508 224.708 
165.632 165.872 224.85 166.046 165.988 224.905 165.73 166.157 224.926 
165.852 166.329 224.953 242.336 84.2244 225.596 245.357 84.0522 225.959 
245.62 84.0601 226.069 245.268 84.4393 225.999 245.625 84.2006 226.172 
234.196 87.1683 224.959 232.276 88.0975 224.861 231.967 87.7675 225.317 
233.041 88.2137 224.489 230.743 88.4702 225.158 228.305 90.0156 224.793 
225.837 90.7428 225.218 224.267 92.0451 224.714 222.245 93.0126 224.728 
232.339 92.7029 225.198 233.716 91.9717 225.523 220.289 94.0456 224.71 
210.267 99.2978 225.164 206.279 101.485 225.029 193.391 108.259 224.973 
206.44 107.913 224.532 187.22 111.837 225.151 197.639 113.477 224.961 
175.195 120.236 225.114 172.83 122.364 225.109 179.147 126.643 224.566 
165.985 134.274 224.623 165.216 136.079 224.828 171.123 135.258 224.544 
164.074 139.001 224.932 163.907 139.338 225.099 163.185 146.097 225.283 
163.067 149.034 225.277 163.207 155.634 225.468 164.307 160.574 224.591 
166.863 160.576 225.353 164.377 161.85 225.089 164.525 162.56 225.244 
164.737 163.191 224.916 165.026 164.415 225.106 166.146 165.63 225.119 
166.044 166.186 224.947 165.771 166.352 225.071 165.879 166.51 225.033 
165.879 166.534 225.082 165.95 166.447 225.017 165.917 166.561 225.056 
244.611 83.7146 226.541 245.301 83.8847 226.139 245.924 83.8641 226.295 
245.868 83.8093 226.347 245.971 83.822 226.411 245.833 83.9833 226.233 
245.967 83.9089 226.394 234.243 86.4446 225.832 244.597 85.2334 226.454 
231.152 87.5568 226.111 230.891 87.3587 226.782 229.273 88.6135 225.747 
241.696 87.3627 225.952 227.179 89.4003 226.049 238.709 89.2542 225.73 
223.149 91.4618 225.924 221.31 92.602 225.701 219.932 92.8576 226.625 
215.513 95.6786 226.057 215.517 95.4246 226.602 209.239 99.3522 226.114 
201.177 103.716 225.683 200.831 103.668 226.204 192.424 108.067 226.325 
171.969 122.734 226.132 168.316 127.493 226.319 166.265 131.851 225.903 
165.084 134.904 225.744 166.592 148.302 225.358 162.873 150.27 225.912 
163.897 160.197 225.485 166.633 162.853 225.82 165.027 164.181 225.542 
166.263 164.669 225.482 165.689 166.156 225.226 165.715 166.281 225.163 
165.776 166.285 225.205 166.013 166.3 225.104 165.946 166.364 225.176 
165.991 166.137 225.233 165.868 166.424 225.154 165.936 166.499 225.098 
242.22 83.5512 227.273 245.05 83.6772 226.885 245.854 83.7817 226.532 
245.961 83.8522 226.563 245.609 84.3107 227.37 245.773 84.0386 227.143 
244.843 85.1537 227.834 233.276 86.247 227.265 240.793 88.0674 226.969 
227.422 88.7666 227.094 221.741 91.5706 227.202 222.256 91.5837 226.492 
222.458 91.2663 227.069 220.617 92.1985 227.352 227.232 96.0644 226.743 
223.93 98.0459 226.968 209.631 98.9464 226.808 200.815 103.502 226.869 
210.294 105.911 226.975 183.189 113.775 226.955 169.161 125.956 227.207 
168.906 139.553 226.028 167.977 142.165 226.126 167.35 145.026 226.488 
163.779 160.138 226.424 164.916 163.093 226.401 164.738 162.404 227.264 
165.275 163.078 227.241 165.495 163.761 226.463 165.721 163.368 227.095 
165.54 164.695 225.784 165.907 163.632 226.7 165.964 164.251 226.111 
[...]
POINT_DATA 852
COLOR_SCALARS scalars 3
0.494118 0.815686 0.294118 0.494118 0.815686 0.294118 0.494118 0.815686 0.294118 
0.494118 0.815686 0.294118 0.494118 0.815686 0.294118 
0.494118 0.815686 0.294118 0.494118 0.815686 0.294118 
0.494118 0.815686 0.294118 0.494118 0.815686 0.294118 
0.494118 0.815686 0.294118 0.494118 0.815686 0.294118 
0.494118 0.815686 0.294118 0.494118 0.815686 0.294118 
0.494118 0.815686 0.294118 0.494118 0.815686 0.294118 
0.494118 0.815686 0.294118 0.494118 0.815686 0.294118 
0.494118 0.815686 0.294118 0.494118 0.815686 0.294118 
0.494118 0.815686 0.294118 0.494118 0.815686 0.294118 
0.494118 0.815686 0.294118 0.494118 0.815686 0.294118 
0.494118 0.815686 0.294118 0.494118 0.815686 0.294118 
0.494118 0.815686 0.294118 0.494118 0.815686 0.294118 
0.494118 0.815686 0.294118 0.494118 0.815686 0.294118 
0.494118 0.815686 0.294118 0.494118 0.815686 0.294118 
0.494118 0.815686 0.294118 0.494118 0.815686 0.294118 
0.494118 0.815686 0.294118 0.494118 0.815686 0.294118 
0.494118 0.815686 0.294118 0.494118 0.815686 0.294118 
0.494118 0.815686 0.294118 0.494118 0.815686 0.294118 
0.494118 0.815686 0.294118 0.494118 0.815686 0.294118 
0.494118 0.815686 0.294118 0.494118 0.815686 0.294118 
0.494118 0.815686 0.294118 0.494118 0.815686 0.294118 
0.494118 0.815686 0.294118 0.494118 0.815686 0.294118 
0.494118 0.815686 0.294118 0.494118 0.815686 0.294118 
0.494118 0.815686 0.294118 0.494118 0.815686 0.294118 
0.494118 0.815686 0.294118 0.494118 0.815686 0.294118 
0.494118 0.815686 0.294118 0.494118 0.815686 0.294118 
0.494118 0.815686 0.294118 0.494118 0.815686 0.294118 
0.494118 0.815686 0.294118 0.494118 0.815686 0.294118 
0.494118 0.815686 0.294118 0.494118 0.815686 0.294118 
0.494118 0.815686 0.294118 0.494118 0.815686 0.294118 
0.494118 0.815686 0.294118 0.494118 0.815686 0.294118 
0.494118 0.815686 0.294118 0.494118 0.815686 0.294118 
0.494118 0.815686 0.294118 0.494118 0.815686 0.294118 
0.494118 0.815686 0.294118 0.494118 0.815686 0.294118 
0.494118 0.815686 0.294118 0.494118 0.815686 0.294118 
0.494118 0.815686 0.294118 0.494118 0.815686 0.294118 
0.494118 0.815686 0.294118 0.494118 0.815686 0.294118 
0.494118 0.815686 0.294118 0.494118 0.815686 0.294118 
0.494118 0.815686 0.294118 0.494118 0.815686 0.294118 
0.494118 0.815686 0.294118 0.494118 0.815686 0.294118 
0.494118 0.815686 0.294118 0.494118 0.815686 0.294118 
0.494118 0.815686 0.294118 0.494118 0.815686 0.294118 
0.494118 0.815686 0.294118 0.494118 0.815686 0.294118 
0.494118 0.815686 0.294118 0.494118 0.815686 0.294118 
0.494118 0.815686 0.294118 0.494118 0.815686 0.294118 
0.494118 0.815686 0.294118 0.494118 0.815686 0.294118 
0.494118 0.815686 0.294118 0.494118 0.815686 0.294118 
0.494118 0.815686 0.294118 0.494118 0.815686 0.294118 
0.494118 0.815686 0.294118 0.494118 0.815686 0.294118 
0.494118 0.815686 0.294118 0.494118 0.815686 0.294118 
0.494118 0.815686 0.294118 0.494118 0.815686 0.294118 
0.494118 0.815686 0.294118 0.494118 0.815686 0.294118 
0.494118 0.815686 0.294118 0.494118 0.815686 0.294118 
0.494118 0.815686 0.294118 0.494118 0.815686 0.294118 
0.494118 0.815686 0.294118 0.494118 0.815686 0.294118 
0.494118 0.815686 0.294118 0.494118 0.815686 0.294118 
0.494118 0.815686 0.294118 0.494118 0.815686 0.294118 
0.494118 0.815686 0.294118 0.494118 0.815686 0.294118 
0.494118 0.815686 0.294118 0.494118 0.815686 0.294118 
0.494118 0.815686 0.294118 0.494118 0.815686 0.294118 
0.494118 0.815686 0.294118 0.494118 0.815686 0.294118 
0.494118 0.815686 0.294118 0.494118 0.815686 0.294118 
0.494118 0.815686 0.294118 0.494118 0.815686 0.294118 
0.494118 0.815686 0.294118 0.494118 0.815686 0.294118 
0.494118 0.815686 0.294118 0.494118 0.815686 0.294118 
0.494118 0.815686 0.294118 0.494118 0.815686 0.294118 
0.494118 0.815686 0.294118 0.494118 0.815686 0.294118 
0.494118 0.815686 0.294118 0.494118 0.815686 0.294118 
0.494118 0.815686 0.294118 0.494118 0.815686 0.294118 
0.494118 0.815686 0.294118 0.494118 0.815686 0.294118 
0.494118 0.815686 0.294118 0.494118 0.815686 0.294118 
0.494118 0.815686 0.294118 0.494118 0.815686 0.294118 
0.494118 0.815686 0.294118 0.494118 0.815686 0.294118 
0.494118 0.815686 0.294118 0.494118 0.815686 0.294118 
0.494118 0.815686 0.294118 0.494118 0.815686 0.294118 
0.494118 0.815686 0.294118 0.494118 0.815686 0.294118 
0.494118 0.815686 0.294118 0.494118 0.815686 0.294118 
0.494118 0.815686 0.294118 0.494118 0.815686 0.294118 
0.494118 0.815686 0.294118 0.494118 0.815686 0.294118 
0.494118 0.815686 0.294118 0.494118 0.815686 0.294118 
0.494118 0.815686 0.294118 0.494118 0.815686 0.294118 
0.494118 0.815686 0.294118 0.494118 0.815686 0.294118 
0.494118 0.815686 0.294118 0.494118 0.815686 0.294118 
0.494118 0.815686 0.294118 0.494118 0.815686 0.294118 
0.494118 0.815686 0.294118 0.494118 0.815686 0.294118 
0.494118 0.815686 0.294118 0.494118 0.815686 0.294118 
0.494118 0.815686 0.294118 0.494118 0.815686 0.294118 
0.494118 0.815686 0.294118 0.494118 0.815686 0.294118 
0.494118 0.815686 0.294118 0.494118 0.815686 0.294118 
0.494118 0.815686 0.294118 0.494118 0.815686 0.294118 
0.494118 0.815686 0.294118 0.494118 0.815686 0.294118 
0.494118 0.815686 0.294118 0.494118 0.815686 0.294118 
0.494118 0.815686 0.294118 0.494118 0.815686 0.294118 
0.494118 0.815686 0.294118 0.494118 0.815686 0.294118 
0.494118 0.815686 0.294118 0.494118 0.815686 0.294118 
0.494118 0.815686 0.294118 0.494118 0.815686 0.294118 
0.494118 0.815686 0.294118 0.494118 0.815686 0.294118 
0.494118 0.815686 0.294118 0.494118 0.815686 0.294118 
0.494118 0.815686 0.294118 0.494118 0.815686 0.294118 
0.494118 0.815686 0.294118 0.494118 0.815686 0.294118 
0.494118 0.815686 0.294118 0.494118 0.815686 0.294118 
0.494118 0.815686 0.294118 0.494118 0.815686 0.294118 
0.494118 0.815686 0.294118 0.494118 0.815686 0.294118 
0.494118 0.815686 0.294118 0.494118 0.815686 0.294118 
0.494118 0.815686 0.294118 0.494118 0.815686 0.294118 
0.494118 0.815686 0.294118 0.494118 0.815686 0.294118 
0.494118 0.815686 0.294118 0.494118 0.815686 0.294118 
0.494118 0.815686 0.294118 0.494118 0.815686 0.294118 
0.494118 0.815686 0.294118 0.494118 0.815686 0.294118 
0.494118 0.815686 0.294118 0.494118 0.815686 0.294118 
0.494118 0.815686 0.294118 0.494118 0.815686 0.294118 
0.494118 0.815686 0.294118 0.494118 0.815686 0.294118 
0.494118 0.815686 0.294118 0.494118 0.815686 0.294118 
0.494118 0.815686 0.294118 0.494118 0.815686 0.294118 
0.494118 0.815686 0.294118 0.494118 0.815686 0.294118 
0.494118 0.815686 0.294118 0.494118 0.815686 0.294118 
0.494118 0.815686 0.294118 0.494118 0.815686 0.294118 
0.494118 0.815686 0.294118 0.494118 0.815686 0.294118 
0.494118 0.815686 0.294118 0.494118 0.815686 0.294118 
0.494118 0.815686 0.294118 0.494118 0.815686 0.294118 
0.494118 0.815686 0.294118 0.494118 0.815686 0.294118 
0.494118 0.815686 0.294118 0.494118 0.815686 0.294118 
0.494118 0.815686 0.294118 0.494118 0.815686 0.294118 
0.494118 0.815686 0.294118 0.494118 0.815686 0.294118 
0.494118 0.815686 0.294118 0.494118 0.815686 0.294118 
0.494118 0.815686 0.294118 0.494118 0.815686 0.294118 
0.494118 0.815686 0.294118 0.494118 0.815686 0.294118 
0.494118 0.815686 0.294118 0.494118 0.815686 0.294118 
0.494118 0.815686 0.294118 0.494118 0.815686 0.294118 
0.494118 0.815686 0.294118 0.494118 0.815686 0.294118 
0.494118 0.815686 0.294118 0.494118 0.815686 0.294118 
0.494118 0.815686 0.294118 0.494118 0.815686 0.294118 
0.494118 0.815686 0.294118 0.494118 0.815686 0.294118 
0.494118 0.815686 0.294118 0.494118 0.815686 0.294118 
0.494118 0.815686 0.294118 0.494118 0.815686 0.294118 
0.494118 0.815686 0.294118 0.494118 0.815686 0.294118 
0.494118 0.815686 0.294118 0.494118 0.815686 0.294118 
0.494118 0.815686 0.294118 0.494118 0.815686 0.294118 
0.494118 0.815686 0.294118 0.494118 0.815686 0.294118 
0.494118 0.815686 0.294118 0.494118 0.815686 0.294118 
0.494118 0.815686 0.294118 0.494118 0.815686 0.294118 
0.494118 0.815686 0.294118 0.494118 0.815686 0.294118 
0.494118 0.815686 0.294118 0.494118 0.815686 0.294118 
0.494118 0.815686 0.294118 0.494118 0.815686 0.294118 
0.494118 0.815686 0.294118 0.494118 0.815686 0.294118 
0.494118 0.815686 0.294118 0.494118 0.815686 0.294118 
0.494118 0.815686 0.294118 0.494118 0.815686 0.294118 
0.494118 0.815686 0.294118 0.494118 0.815686 0.294118 
0.494118 0.815686 0.294118 0.494118 0.815686 0.294118 
0.494118 0.815686 0.294118 0.494118 0.815686 0.294118 
0.494118 0.815686 0.294118 0.494118 0.815686 0.294118 
0.494118 0.815686 0.294118 0.494118 0.815686 0.294118 
0.494118 0.815686 0.294118 0.494118 0.815686 0.294118 
0.494118 0.815686 0.294118 0.494118 0.815686 0.294118 
0.494118 0.815686 0.294118 0.494118 0.815686 0.294118 
0.494118 0.815686 0.294118 0.494118 0.815686 0.294118 
0.494118 0.815686 0.294118 0.494118 0.815686 0.294118 
0.494118 0.815686 0.294118 0.494118 0.815686 0.294118 
0.494118 0.815686 0.294118 0.494118 0.815686 0.294118 
0.494118 0.815686 0.294118 0.494118 0.815686 0.294118 
0.494118 0.815686 0.294118 0.494118 0.815686 0.294118 
0.494118 0.815686 0.294118 0.494118 0.815686 0.294118 
0.494118 0.815686 0.294118 0.494118 0.815686 0.294118 
0.494118 0.815686 0.294118 0.494118 0.815686 0.294118 
0.494118 0.815686 0.294118 0.494118 0.815686 0.294118 
0.494118 0.815686 0.294118 0.494118 0.815686 0.294118 
0.494118 0.815686 0.294118 0.494118 0.815686 0.294118 
0.494118 0.815686 0.294118 0.494118 0.815686 0.294118 
0.494118 0.815686 0.294118 0.494118 0.815686 0.294118 
0.494118 0.815686 0.294118 0.494118 0.815686 0.294118 
0.494118 0.815686 0.294118 0.494118 0.815686 0.294118 
0.494118 0.815686 0.294118 0.494118 0.815686 0.294118 
0.494118 0.815686 0.294118 0.494118 0.815686 0.294118 
0.494118 0.815686 0.294118 0.494118 0.815686 0.294118 
0.494118 0.815686 0.294118 0.494118 0.815686 0.294118 
0.494118 0.815686 0.294118 0.494118 0.815686 0.294118 
0.494118 0.815686 0.294118 0.494118 0.815686 0.294118 
0.494118 0.815686 0.294118 0.494118 0.815686 0.294118 
0.494118 0.815686 0.294118 0.494118 0.815686 0.294118 
0.494118 0.815686 0.294118 0.494118 0.815686 0.294118 
0.494118 0.815686 0.294118 0.494118 0.815686 0.294118 
0.494118 0.815686 0.294118 0.494118 0.815686 0.294118 
0.494118 0.815686 0.294118 0.494118 0.815686 0.294118 
0.494118 0.815686 0.294118 0.494118 0.815686 0.294118 
0.494118 0.815686 0.294118 0.494118 0.815686 0.294118 
0.494118 0.815686 0.294118 0.494118 0.815686 0.294118 
0.494118 0.815686 0.294118 0.494118 0.815686 0.294118 
0.494118 0.815686 0.294118 0.494118 0.815686 0.294118 
0.494118 0.815686 0.294118 0.494118 0.815686 0.294118 
0.494118 0.815686 0.294118 0.494118 0.815686 0.294118 
0.494118 0.815686 0.294118 0.494118 0.815686 0.294118 
0.494118 0.815686 0.294118 0.494118 0.815686 0.294118 
0.494118 0.815686 0.294118 0.494118 0.815686 0.294118 
0.494118 0.815686 0.294118 0.494118 0.815686 0.294118 
0.494118 0.815686 0.294118 0.494118 0.815686 0.294118 
0.494118 0.815686 0.294118 0.494118 0.815686 0.294118 
0.494118 0.815686 0.294118 0.494118 0.815686 0.294118 
0.494118 0.815686 0.294118 0.494118 0.815686 0.294118 
0.494118 0.815686 0.294118 0.494118 0.815686 0.294118 
0.494118 0.815686 0.294118 0.494118 0.815686 0.294118 
0.494118 0.815686 0.294118 0.494118 0.815686 0.294118 
0.494118 0.815686 0.294118 0.494118 0.815686 0.294118 
0.494118 0.815686 0.294118 0.494118 0.815686 0.294118 
0.494118 0.815686 0.294118 0.494118 0.815686 0.294118 
0.494118 0.815686 0.294118 0.494118 0.815686 0.294118 
0.494118 0.815686 0.294118 0.494118 0.815686 0.294118 
0.494118 0.815686 0.294118 0.494118 0.815686 0.294118 
0.494118 0.815686 0.294118 0.494118 0.815686 0.294118 
0.494118 0.815686 0.294118 0.494118 0.815686 0.294118 
0.494118 0.815686 0.294118 0.494118 0.815686 0.294118 
0.494118 0.815686 0.294118 0.494118 0.815686 0.294118 
0.494118 0.815686 0.294118 0.494118 0.815686 0.294118 
0.494118 0.815686 0.294118 0.494118 0.815686 0.294118 
0.494118 0.815686 0.294118 0.494118 0.815686 0.294118 
0.494118 0.815686 0.294118 0.494118 0.815686 0.294118 
0.494118 0.815686 0.294118 0.494118 0.815686 0.294118 
0.494118 0.815686 0.294118 0.494118 0.815686 0.294118 
0.494118 0.815686 0.294118 0.494118 0.815686 0.294118 
0.494118 0.815686 0.294118 0.494118 0.815686 0.294118 
0.494118 0.815686 0.294118 0.494118 0.815686 0.294118 
0.494118 0.815686 0.294118 0.494118 0.815686 0.294118 
0.494118 0.815686 0.294118 0.494118 0.815686 0.294118 
0.494118 0.815686 0.294118 0.494118 0.815686 0.294118 
0.494118 0.815686 0.294118 0.494118 0.815686 0.294118 
0.494118 0.815686 0.294118 0.494118 0.815686 0.294118 
0.494118 0.815686 0.294118 0.494118 0.815686 0.294118 
0.494118 0.815686 0.294118 0.494118 0.815686 0.294118 
0.494118 0.815686 0.294118 0.494118 0.815686 0.294118 
0.494118 0.815686 0.294118 0.494118 0.815686 0.294118 
0.494118 0.815686 0.294118 0.494118 0.815686 0.294118 
0.494118 0.815686 0.294118 0.494118 0.815686 0.294118 
0.494118 0.815686 0.294118 0.494118 0.815686 0.294118 
0.494118 0.815686 0.294118 0.494118 0.815686 0.294118 
0.494118 0.815686 0.294118 0.494118 0.815686 0.294118 
0.494118 0.815686 0.294118 0.494118 0.815686 0.294118 
0.494118 0.815686 0.294118 0.494118 0.815686 0.294118 
0.494118 0.815686 0.294118 0.494118 0.815686 0.294118 
0.494118 0.815686 0.294118 0.494118 0.815686 0.294118 
0.494118 0.815686 0.294118 0.494118 0.815686 0.294118 
0.494118 0.815686 0.294118 0.494118 0.815686 0.294118 
0.494118 0.815686 0.294118 0.494118 0.815686 0.294118 
0.494118 0.815686 0.294118 0.494118 0.815686 0.294118 
0.494118 0.815686 0.294118 0.494118 0.815686 0.294118 
0.494118 0.815686 0.294118 0.494118 0.815686 0.294118 
0.494118 0.815686 0.294118 0.494118 0.815686 0.294118 
0.494118 0.815686 0.294118 0.494118 0.815686 0.294118 
0.494118 0.815686 0.294118 0.494118 0.815686 0.294118 
0.494118 0.815686 0.294118 0.494118 0.815686 0.294118 
0.494118 0.815686 0.294118 0.494118 0.815686 0.294118 
0.494118 0.815686 0.294118 0.494118 0.815686 0.294118 
0.494118 0.815686 0.294118 0.494118 0.815686 0.294118 
0.494118 0.815686 0.294118 0.494118 0.815686 0.294118 
0.494118 0.815686 0.294118 0.494118 0.815686 0.294118 
0.494118 0.815686 0.294118 0.494118 0.815686 0.294118 
0.494118 0.815686 0.294118 0.494118 0.815686 0.294118 
0.494118 0.815686 0.294118 0.494118 0.815686 0.294118 
0.494118 0.815686 0.294118 0.494118 0.815686 0.294118 
0.494118 0.815686 0.294118 0.494118 0.815686 0.294118 
0.494118 0.815686 0.294118 0.494118 0.815686 0.294118 
0.494118 0.815686 0.294118 0.494118 0.815686 0.294118 
0.494118 0.815686 0.294118 0.494118 0.815686 0.294118 
0.494118 0.815686 0.294118 0.494118 0.815686 0.294118 
0.494118 0.815686 0.294118 0.494118 0.815686 0.294118 
0.494118 0.815686 0.294118 0.494118 0.815686 0.294118 
0.494118 0.815686 0.294118 0.494118 0.815686 0.294118 
0.494118 0.815686 0.294118 0.494118 0.815686 0.294118 
0.494118 0.815686 0.294118 0.494118 0.815686 0.294118 
0.494118 0.815686 0.294118 0.494118 0.815686 0.294118 
0.494118 0.815686 0.294118 0.494118 0.815686 0.294118 
0.494118 0.815686 0.294118 0.494118 0.815686 0.294118 
0.494118 0.815686 0.294118 0.494118 0.815686 0.294118 
0.494118 0.815686 0.294118 0.494118 0.815686 0.294118 
0.494118 0.815686 0.294118 0.494118 0.815686 0.294118 
0.494118 0.815686 0.294118 0.494118 0.815686 0.294118 
0.494118 0.815686 0.294118 0.494118 0.815686 0.294118 
0.494118 0.815686 0.294118 0.494118 0.815686 0.294118 
0.494118 0.815686 0.294118 0.494118 0.815686 0.294118 
0.494118 0.815686 0.294118 0.494118 0.815686 0.294118 
0.494118 0.815686 0.294118 0.494118 0.815686 0.294118 
0.494118 0.815686 0.294118 0.494118 0.815686 0.294118 
0.494118 0.815686 0.294118 0.494118 0.815686 0.294118 
0.494118 0.815686 0.294118 0.494118 0.815686 0.294118 
0.494118 0.815686 0.294118 0.494118 0.815686 0.294118 
0.494118 0.815686 0.294118 0.494118 0.815686 0.294118 
0.494118 0.815686 0.294118 0.494118 0.815686 0.294118 
0.494118 0.815686 0.294118 0.494118 0.815686 0.294118 
0.494118 0.815686 0.294118 0.494118 0.815686 0.294118 
0.494118 0.815686 0.294118 0.494118 0.815686 0.294118 
0.494118 0.815686 0.294118 0.494118 0.815686 0.294118 
0.494118 0.815686 0.294118 0.494118 0.815686 0.294118 
0.494118 0.815686 0.294118 0.494118 0.815686 0.294118 
0.494118 0.815686 0.294118 0.494118 0.815686 0.294118 
0.494118 0.815686 0.294118 0.494118 0.815686 0.294118 
0.494118 0.815686 0.294118 0.494118 0.815686 0.294118 
0.494118 0.815686 0.294118 0.494118 0.815686 0.294118 
0.494118 0.815686 0.294118 0.494118 0.815686 0.294118 
0.494118 0.815686 0.294118 0.494118 0.815686 0.294118 
0.494118 0.815686 0.294118 0.494118 0.815686 0.294118 
0.494118 0.815686 0.294118 0.494118 0.815686 0.294118 
0.494118 0.815686 0.294118 0.494118 0.815686 0.294118 
0.494118 0.815686 0.294118 0.494118 0.815686 0.294118 
0.494118 0.815686 0.294118 0.494118 0.815686 0.294118 
0.494118 0.815686 0.294118 0.494118 0.815686 0.294118 
0.494118 0.815686 0.294118 0.494118 0.815686 0.294118 
0.494118 0.815686 0.294118 0.494118 0.815686 0.294118 
0.494118 0.815686 0.294118 0.494118 0.815686 0.294118 
0.494118 0.815686 0.294118 0.494118 0.815686 0.294118 
0.494118 0.815686 0.294118 0.494118 0.815686 0.294118 
0.494118 0.815686 0.294118 0.494118 0.815686 0.294118 
0.494118 0.815686 0.294118 0.494118 0.815686 0.294118 
0.494118 0.815686 0.294118 0.494118 0.815686 0.294118 
0.494118 0.815686 0.294118 0.494118 0.815686 0.294118 
0.494118 0.815686 0.294118 0.494118 0.815686 0.294118 
0.494118 0.815686 0.294118 0.494118 0.815686 0.294118 
0.494118 0.815686 0.294118 0.494118 0.815686 0.294118 
0.494118 0.815686 0.294118 0.494118 0.815686 0.294118 
0.494118 0.815686 0.294118 0.494118 0.815686 0.294118 
0.494118 0.815686 0.294118 0.494118 0.815686 0.294118 
0.494118 0.815686 0.294118 0.494118 0.815686 0.294118 
0.494118 0.815686 0.294118 0.494118 0.815686 0.294118 
0.494118 0.815686 0.294118 0.494118 0.815686 0.294118 
0.494118 0.815686 0.294118 0.494118 0.815686 0.294118 
0.494118 0.815686 0.294118 0.494118 0.815686 0.294118 
0.494118 0.815686 0.294118 0.494118 0.815686 0.294118 
0.494118 0.815686 0.294118 0.494118 0.815686 0.294118 
0.494118 0.815686 0.294118 0.494118 0.815686 0.294118 
0.494118 0.815686 0.294118 0.494118 0.815686 0.294118 
0.494118 0.815686 0.294118 0.494118 0.815686 0.294118 
0.494118 0.815686 0.294118 0.494118 0.815686 0.294118 
0.494118 0.815686 0.294118 0.494118 0.815686 0.294118 
0.494118 0.815686 0.294118 0.494118 0.815686 0.294118 
0.494118 0.815686 0.294118 0.494118 0.815686 0.294118 
0.494118 0.815686 0.294118 0.494118 0.815686 0.294118 
0.494118 0.815686 0.294118 0.494118 0.815686 0.294118 
0.494118 0.815686 0.294118 0.494118 0.815686 0.294118 
0.494118 0.815686 0.294118 0.494118 0.815686 0.294118 
0.494118 0.815686 0.294118 0.494118 0.815686 0.294118 
0.494118 0.815686 0.294118 0.494118 0.815686 0.294118 
0.494118 0.815686 0.294118 0.494118 0.815686 0.294118 
0.494118 0.815686 0.294118 0.494118 0.815686 0.294118 
0.494118 0.815686 0.294118 0.494118 0.815686 0.294118 
0.494118 0.815686 0.294118 0.494118 0.815686 0.294118 
0.494118 0.815686 0.294118 0.494118 0.815686 0.294118 
0.494118 0.815686 0.294118 0.494118 0.815686 0.294118 
0.494118 0.815686 0.294118 0.494118 0.815686 0.294118 
0.494118 0.815686 0.294118 0.494118 0.815686 0.294118 
0.494118 0.815686 0.294118 0.494118 0.815686 0.294118 
0.494118 0.815686 0.294118 0.494118 0.815686 0.294118 
0.494118 0.815686 0.294118 0.494118 0.815686 0.294118 
0.494118 0.815686 0.294118 0.494118 0.815686 0.294118 
0.494118 0.815686 0.294118 0.494118 0.815686 0.294118 
0.494118 0.815686 0.294118 0.494118 0.815686 0.294118 
0.494118 0.815686 0.294118 0.494118 0.815686 0.294118 
0.494118 0.815686 0.294118 0.494118 0.815686 0.294118 
0.494118 0.815686 0.294118 0.494118 0.815686 0.294118 
0.494118 0.815686 0.294118 0.494118 0.815686 0.294118 
0.494118 0.815686 0.294118 0.494118 0.815686 0.294118 
0.494118 0.815686 0.294118 0.494118 0.815686 0.294118 
0.494118 0.815686 0.294118 0.494118 0.815686 0.294118 
0.494118 0.815686 0.294118 0.494118 0.815686 0.294118 
0.494118 0.815686 0.294118 0.494118 0.815686 0.294118 