# vtk DataFile Version 4.2
vtk output
ASCII
DATASET POLYDATA
POINTS 829 float
136.051 176.631 215.17 136.024 176.55 215.217 136.013 176.617 215.209 
136.081 176.528 215.239 136.048 176.662 215.201 136.009 176.622 215.322 
136.103 176.594 215.257 136.077 176.648 215.305 135.497 175.643 215.664 
135.453 175.491 215.735 135.418 175.649 215.785 135.601 175.588 215.654 
135.592 175.738 215.662 135.953 176.423 215.39 136.041 176.358 215.339 
136.203 176.315 215.463 136.17 176.547 215.46 136.066 176.613 215.517 
138.753 172.526 216.052 140.075 172.324 216.678 135.053 174.026 216.238 
136.887 173.159 215.844 138.033 173.393 215.94 139.934 172.837 216.748 
135.578 175.142 215.802 136.164 174.798 215.757 136.885 174.474 215.807 
139.347 173.522 216.57 135.967 175.798 215.622 135.557 175.881 215.79 
135.739 176.229 215.75 136.713 175.783 215.922 135.806 176.446 215.917 
136.016 176.562 215.897 135.191 172.139 216.425 139.178 171.143 216.372 
139.69 173.302 216.813 134.72 174.514 216.572 135.072 175.566 216.489 
136.491 176.314 216.107 137.34 175.531 216.423 143.954 165.648 218.315 
144.079 165.44 218.435 143.885 165.771 218.373 142.081 168.036 217.611 
141.937 167.5 217.563 142.421 168.661 218.019 140.42 169.685 216.942 
141.633 169.85 217.649 142.124 169.276 218.019 140.423 172.45 217.475 
134.011 173.739 217.669 139.702 173.447 217.199 138.771 174.48 217.161 
137.931 175.134 216.823 135.248 175.901 216.938 136.649 176.277 216.519 
136.878 176.102 216.777 136.345 176.447 216.483 150.978 133.273 219.189 
151.583 133.335 219.278 151.493 133.207 219.312 151.639 133.253 219.384 
141.916 134.019 219.202 147.97 133.924 218.912 150.231 133.721 218.95 
149.909 133.482 219.079 151.55 133.553 219.215 151.718 133.481 219.405 
144.704 134.471 218.729 149.177 134.29 218.729 151.681 133.769 219.317 
145.677 161.117 219.036 144.882 162.691 218.802 144.873 163.356 218.878 
143.3 165.965 218.142 144.393 164.96 218.766 140.866 166.534 217.557 
143.796 166.143 218.598 133.295 169.455 218.386 140.758 171.907 217.88 
133.443 172.442 218.393 133.817 173.541 218.175 139.224 173.95 217.827 
134.61 174.985 217.382 138.342 174.762 217.739 135.164 175.651 217.513 
136.309 176.379 216.959 136.56 176.222 217.198 135.736 176.214 217.291 
136.008 176.335 217.142 121.828 132.757 220.209 123.013 132.654 219.891 
125.202 132.301 219.92 129.801 132.749 219.649 129.097 132.452 219.805 
121.581 133.067 220.177 150.853 133.137 219.315 150.533 133.116 219.398 
151.313 133.062 219.562 151.515 133.143 219.463 151.686 133.284 219.554 
121.763 133.465 219.919 139.283 134.059 219.762 141.275 133.745 219.912 
147.422 133.416 219.612 151.788 133.515 219.634 121.599 133.788 219.952 
125.582 134.471 218.828 134.886 134.786 219.038 148.83 134.873 218.59 
150.307 134.651 218.788 150.896 134.512 218.939 123.179 135.693 219.258 
131.337 135.361 218.537 151.572 134.713 219.349 125.282 136.15 218.754 
127.226 136.162 218.498 149.122 136.177 218.548 150.504 135.791 218.885 
150.85 136.203 219.112 151.294 136.105 219.429 151.637 135.666 219.672 
151.346 136.75 219.76 151.127 137.634 219.767 150.533 139.987 219.427 
150.901 139.596 219.833 149.989 141.294 219.082 149.342 142.527 218.783 
150.49 141.994 219.464 150.84 141.615 219.887 149.992 143.305 219.099 
149.36 144.545 218.786 150.881 143.665 219.919 151.006 149.241 219.721 
151.317 149.64 220.108 146.625 151.69 218.395 149.601 150.928 219.146 
150.197 151.815 219.784 141.925 155.038 218.353 148.665 153.812 219.333 
149.25 153.798 219.739 143.741 155.859 218.366 143.688 156.845 218.4 
146.136 156.361 218.748 147.654 155.838 219.298 148.242 155.82 219.702 
148.681 155.387 219.961 145.841 158.273 218.886 147.64 157.456 219.888 
129.522 160.501 220.255 146.217 159.191 219.22 130.58 161.18 219.591 
146.124 160.262 219.374 130.213 162.463 220.167 131.741 161.359 219.132 
144.992 161.516 218.833 130.826 163.164 219.802 132.339 162.991 218.998 
138.2 162.915 218.21 141.523 162.661 218.123 142.35 162.527 218.173 
145.6 161.8 219.429 144.762 164.383 219.2 131.479 166.128 219.889 
132.441 165.957 219.028 144.511 165.058 219.214 134.753 166.384 218.097 
136.4 166.389 217.799 137.458 166.18 217.726 131.929 167.401 219.678 
132.358 167.605 219.236 133.096 167.78 218.647 143.198 167.566 218.946 
132.475 168.954 219.391 142.839 168.18 219.075 141.332 170.79 218.622 
140.21 172.63 218.318 133.67 173.065 219.094 139.577 173.464 218.142 
134.22 174.145 218.586 134.624 174.63 218.6 138.284 174.586 218.193 
136.337 175.941 217.86 136.04 175.869 218.039 136.291 175.648 218.252 
121.812 132.406 220.809 121.495 132.727 220.54 123.204 132.202 220.557 
126.677 132.148 220.189 128.468 132.274 220.04 121.335 133.168 220.401 
130.685 132.61 220.435 150.797 133.026 219.877 150.382 133.059 219.653 
151.513 133.153 219.695 134.719 133.572 220.395 136.798 133.849 220.296 
141.782 133.675 220.287 151.813 133.713 219.866 121.717 135.824 220.388 
122.153 136.324 220.063 151.708 135.873 219.932 122.063 138.212 220.958 
125.04 138.194 218.971 122.339 138.799 220.706 122.837 139.188 220.333 
151.2 138.155 220.225 123.295 141.62 220.671 124.616 143.263 220.137 
124.325 144.791 220.795 125.477 148.555 220.825 151.377 147.534 220.447 
151.419 148.551 220.056 151.551 148.792 220.311 126.708 150.187 220.234 
151.529 149.329 220.356 126.702 151.175 220.437 151.173 150.263 220.241 
129.19 152.052 219.484 126.592 153.263 221.127 127.624 153.159 220.237 
150.365 152.172 220.192 150.687 151.711 220.52 138.495 153.671 218.609 
127.44 155.453 220.901 149.422 154.159 220.157 149.785 153.687 220.487 
128.593 156.114 220.167 129.348 156.05 219.795 131.074 155.949 219.295 
128.601 157.083 220.324 148.404 156.188 220.117 128.319 158.101 220.82 
131.994 157.828 219.159 132.888 160.524 218.924 146.688 159.937 220.191 
144.232 165.604 219.364 144.484 165.075 219.569 143.894 166.123 219.523 
131.898 167.98 220.144 132.493 169.753 220.161 132.935 171.136 219.54 
139.798 171.924 219.637 133.515 172.532 219.542 140.009 172.557 218.741 
138.541 172.961 219.739 134.033 173.59 219.128 136.548 174.482 219.324 
134.803 174.513 219.036 135.319 174.877 219.011 135.49 174.711 219.206 
137.112 175.033 218.57 121.396 132.529 220.834 121.262 132.588 220.956 
121.885 132.413 221.112 128.803 132.361 220.845 121.253 132.705 220.806 
121.23 133.104 220.719 131.273 132.769 220.724 132.742 133.188 220.97 
150.741 133.112 220.187 151.431 133.237 220.014 151.667 133.545 220.097 
136.543 133.833 220.773 145.266 133.635 220.633 121.347 134.209 220.339 
121.452 135.232 220.943 151.816 134.831 220.307 151.714 134.614 220.47 
121.589 135.879 220.746 121.978 138.091 221.339 151.04 139.578 220.745 
122.71 140.858 221.237 122.914 141.64 221.448 123.138 142.205 221.254 
125.031 147.857 221.145 151.54 148.403 220.592 151.544 149.481 220.628 
151.416 149.795 220.795 150.606 151.896 220.991 149.444 154.429 220.658 
149.711 153.865 220.975 127.349 156.357 221.479 148.412 156.466 220.617 
148.698 155.883 220.946 147.608 158.003 220.857 146.667 160.026 220.53 
129.621 162.272 221.074 130.646 164.633 220.657 144.283 164.642 220.44 
131.066 165.862 220.792 141.657 168.228 220.565 132.233 168.889 220.692 
133.053 170.995 220.647 134.075 172.826 220.057 134.543 172.936 220.244 
136.995 173.395 220.033 134.849 174.097 219.452 121.466 132.679 221.218 
121.296 132.655 221.089 122.281 132.528 221.329 125.402 132.305 221.157 
128.004 132.3 220.905 128.642 132.543 221.185 121.215 132.833 220.975 
121.277 133.297 221.045 130.327 132.82 221.178 131.183 132.936 221.119 
132.625 133.368 221.301 151.124 133.268 220.311 151.261 133.57 220.509 
134.385 133.755 221.299 137.371 134.081 221.2 139.386 134.13 221.165 
148.871 133.596 220.713 151.567 133.754 220.379 121.572 135.396 221.287 
121.837 136.749 221.398 122.067 138.402 221.592 122.198 138.997 221.691 
150.86 138.955 221.155 150.789 142.104 221.381 123.642 143.756 221.89 
123.938 144.727 221.478 124.074 145.189 221.682 151.177 148.025 221.54 
151.507 148.723 220.901 125.34 150.144 222.071 151.468 149.301 220.916 
126.147 153.074 222.036 150.19 152.582 221.238 149.55 153.813 221.396 
148.534 155.826 221.373 128.212 159.211 221.979 147.073 158.812 221.052 
128.491 159.805 221.648 144.347 162.768 221.555 143.755 162.839 221.922 
130.364 163.785 221.676 139.027 167.915 222.038 135.827 170.177 221.873 
133.209 170.958 220.975 133.993 171.731 220.876 133.624 171.385 221.011 
133.422 171.431 220.754 134.652 172.312 220.711 121.369 132.949 221.199 
121.713 132.972 221.4 125.305 132.656 221.561 124.362 133.204 221.918 
129.041 133.038 221.585 131.989 133.362 221.426 150.425 133.514 220.664 
133.049 133.904 221.686 143.174 134.436 221.551 147.915 134.178 221.258 
149.769 133.88 220.934 150.932 133.744 220.724 122.191 134.989 221.845 
124.301 134.595 222.358 146.937 134.839 221.726 148.744 134.651 221.467 
121.824 135.986 221.54 150.234 135.05 221.315 150.862 134.855 221.043 
133.985 136.217 222.591 146.859 136.286 222.272 150.067 136.666 221.651 
122.552 138.52 222.231 149.318 137.732 222.071 123.932 138.952 222.83 
149.949 138.499 221.874 149.22 139.614 222.295 127.198 140.598 223.366 
149.851 140.458 222.078 150.377 141.309 221.779 123.268 142.496 221.979 
123.876 144.045 222.243 150.77 146.191 222.064 125.264 149.644 222.429 
149.164 149.253 222.835 150.396 149.79 222.078 150.825 149.359 221.756 
125.945 152.051 222.818 125.979 152.574 222.433 149.065 153.28 222.112 
127.23 156.423 222.468 148.648 155.106 221.678 147.525 157.21 221.64 
145.522 158.769 222.407 128.75 160.458 222.156 140.918 162.013 223.115 
130.28 163.075 222.161 142.561 163.227 222.326 130.974 164.763 222.068 
132.043 167.716 221.715 133.047 169.161 221.675 133.819 168.009 222.456 
135.357 168.772 222.393 133.282 170.679 221.21 133.676 170.64 221.412 
134.303 170.354 221.695 122.607 139.077 222.225 125.316 142.207 223.273 
124.047 143.494 222.595 125.324 143.184 223.296 124.7 144.309 222.975 
124.418 145.39 222.52 147.855 144.898 223.222 149.317 144.707 222.85 
[...]
POINT_DATA 829
COLOR_SCALARS scalars 3
0.34902 0.701961 0.388235 0.34902 0.701961 0.388235 0.34902 0.701961 0.388235 
0.34902 0.701961 0.388235 0.34902 0.701961 0.388235 
0.34902 0.701961 0.388235 0.34902 0.701961 0.388235 
0.34902 0.701961 0.388235 0.34902 0.701961 0.388235 
0.34902 0.701961 0.388235 0.34902 0.701961 0.388235 
0.34902 0.701961 0.388235 0.34902 0.701961 0.388235 
0.34902 0.701961 0.388235 0.34902 0.701961 0.388235 
0.34902 0.701961 0.388235 0.34902 0.701961 0.388235 
0.34902 0.701961 0.388235 0.34902 0.701961 0.388235 
0.34902 0.701961 0.388235 0.34902 0.701961 0.388235 
0.34902 0.701961 0.388235 0.34902 0.701961 0.388235 
0.34902 0.701961 0.388235 0.34902 0.701961 0.388235 
0.34902 0.701961 0.388235 0.34902 0.701961 0.388235 
0.34902 0.701961 0.388235 0.34902 0.701961 0.388235 
0.34902 0.701961 0.388235 0.34902 0.701961 0.388235 
0.34902 0.701961 0.388235 0.34902 0.701961 0.388235 
0.34902 0.701961 0.388235 0.34902 0.701961 0.388235 
0.34902 0.701961 0.388235 0.34902 0.701961 0.388235 
0.34902 0.701961 0.388235 0.34902 0.701961 0.388235 
0.34902 0.701961 0.388235 0.34902 0.701961 0.388235 
0.34902 0.701961 0.388235 0.34902 0.701961 0.388235 
0.34902 0.701961 0.388235 0.34902 0.701961 0.388235 
0.34902 0.701961 0.388235 0.34902 0.701961 0.388235 
0.34902 0.701961 0.388235 0.34902 0.701961 0.388235 
0.34902 0.701961 0.388235 0.34902 0.701961 0.388235 
0.34902 0.701961 0.388235 0.34902 0.701961 0.388235 
0.34902 0.701961 0.388235 0.34902 0.701961 0.388235 
0.34902 0.701961 0.388235 0.34902 0.701961 0.388235 
0.34902 0.701961 0.388235 0.34902 0.701961 0.388235 
0.34902 0.701961 0.388235 0.34902 0.701961 0.388235 
0.34902 0.701961 0.388235 0.34902 0.701961 0.388235 
0.34902 0.701961 0.388235 0.34902 0.701961 0.388235 
0.34902 0.701961 0.388235 0.34902 0.701961 0.388235 
0.34902 0.701961 0.388235 0.34902 0.701961 0.388235 
0.34902 0.701961 0.388235 0.34902 0.701961 0.388235 
0.34902 0.701961 0.388235 0.34902 0.701961 0.388235 
0.34902 0.701961 0.388235 0.34902 0.701961 0.388235 
0.34902 0.701961 0.388235 0.34902 0.701961 0.388235 
0.34902 0.701961 0.388235 0.34902 0.701961 0.388235 
0.34902 0.701961 0.388235 0.34902 0.701961 0.388235 
0.34902 0.701961 0.388235 0.34902 0.701961 0.388235 
0.34902 0.701961 0.388235 0.34902 0.701961 0.388235 
0.34902 0.701961 0.388235 0.34902 0.701961 0.388235 
0.34902 0.701961 0.388235 0.34902 0.701961 0.388235 
0.34902 0.701961 0.388235 0.34902 0.701961 0.388235 
0.34902 0.701961 0.388235 0.34902 0.701961 0.388235 
0.34902 0.701961 0.388235 0.34902 0.701961 0.388235 
0.34902 0.701961 0.388235 0.34902 0.701961 0.388235 
0.34902 0.701961 0.388235 0.34902 0.701961 0.388235 
0.34902 0.701961 0.388235 0.34902 0.701961 0.388235 
0.34902 0.701961 0.388235 0.34902 0.701961 0.388235 
0.34902 0.701961 0.388235 0.34902 0.701961 0.388235 
0.34902 0.701961 0.388235 0.34902 0.701961 0.388235 
0.34902 0.701961 0.388235 0.34902 0.701961 0.388235 
0.34902 0.701961 0.388235 0.34902 0.701961 0.388235 
0.34902 0.701961 0.388235 0.34902 0.701961 0.388235 
0.34902 0.701961 0.388235 0.34902 0.701961 0.388235 
0.34902 0.701961 0.388235 0.34902 0.701961 0.388235 
0.34902 0.701961 0.388235 0.34902 0.701961 0.388235 
0.34902 0.701961 0.388235 0.34902 0.701961 0.388235 
0.34902 0.701961 0.388235 0.34902 0.701961 0.388235 
0.34902 0.701961 0.388235 0.34902 0.701961 0.388235 
0.34902 0.701961 0.388235 0.34902 0.701961 0.388235 
0.34902 0.701961 0.388235 0.34902 0.701961 0.388235 
0.34902 0.701961 0.388235 0.34902 0.701961 0.388235 
0.34902 0.701961 0.388235 0.34902 0.701961 0.388235 
0.34902 0.701961 0.388235 0.34902 0.701961 0.388235 
0.34902 0.701961 0.388235 0.34902 0.701961 0.388235 
0.34902 0.701961 0.388235 0.34902 0.701961 0.388235 
0.34902 0.701961 0.388235 0.34902 0.701961 0.388235 
0.34902 0.701961 0.388235 0.34902 0.701961 0.388235 
0.34902 0.701961 0.388235 0.34902 0.701961 0.388235 
0.34902 0.701961 0.388235 0.34902 0.701961 0.388235 
0.34902 0.701961 0.388235 0.34902 0.701961 0.388235 
0.34902 0.701961 0.388235 0.34902 0.701961 0.388235 
0.34902 0.701961 0.388235 0.34902 0.701961 0.388235 
0.34902 0.701961 0.388235 0.34902 0.701961 0.388235 
0.34902 0.701961 0.388235 0.34902 0.701961 0.388235 
0.34902 0.701961 0.388235 0.34902 0.701961 0.388235 
0.34902 0.701961 0.388235 0.34902 0.701961 0.388235 
0.34902 0.701961 0.388235 0.34902 0.701961 0.388235 
0.34902 0.701961 0.388235 0.34902 0.701961 0.388235 
0.34902 0.701961 0.388235 0.34902 0.701961 0.388235 
0.34902 0.701961 0.388235 0.34902 0.701961 0.388235 
0.34902 0.701961 0.388235 0.34902 0.701961 0.388235 
0.34902 0.701961 0.388235 0.34902 0.701961 0.388235 
0.34902 0.701961 0.388235 0.34902 0.701961 0.388235 
0.34902 0.701961 0.388235 0.34902 0.701961 0.388235 
0.34902 0.701961 0.388235 0.34902 0.701961 0.388235 
0.34902 0.701961 0.388235 0.34902 0.701961 0.388235 
0.34902 0.701961 0.388235 0.34902 0.701961 0.388235 
0.34902 0.701961 0.388235 0.34902 0.701961 0.388235 
0.34902 0.701961 0.388235 0.34902 0.701961 0.388235 
0.34902 0.701961 0.388235 0.34902 0.701961 0.388235 
0.34902 0.701961 0.388235 0.34902 0.701961 0.388235 
0.34902 0.701961 0.388235 0.34902 0.701961 0.388235 
0.34902 0.701961 0.388235 0.34902 0.701961 0.388235 
0.34902 0.701961 0.388235 0.34902 0.701961 0.388235 
0.34902 0.701961 0.388235 0.34902 0.701961 0.388235 
0.34902 0.701961 0.388235 0.34902 0.701961 0.388235 
0.34902 0.701961 0.388235 0.34902 0.701961 0.388235 
0.34902 0.701961 0.388235 0.34902 0.701961 0.388235 
0.34902 0.701961 0.388235 0.34902 0.701961 0.388235 
0.34902 0.701961 0.388235 0.34902 0.701961 0.388235 
0.34902 0.701961 0.388235 0.34902 0.701961 0.388235 
0.34902 0.701961 0.388235 0.34902 0.701961 0.388235 
0.34902 0.701961 0.388235 0.34902 0.701961 0.388235 
0.34902 0.701961 0.388235 0.34902 0.701961 0.388235 
0.34902 0.701961 0.388235 0.34902 0.701961 0.388235 
0.34902 0.701961 0.388235 0.34902 0.701961 0.388235 
0.34902 0.701961 0.388235 0.34902 0.701961 0.388235 
0.34902 0.701961 0.388235 0.34902 0.701961 0.388235 
0.34902 0.701961 0.388235 0.34902 0.701961 0.388235 
0.34902 0.701961 0.388235 0.34902 0.701961 0.388235 
0.34902 0.701961 0.388235 0.34902 0.701961 0.388235 
0.34902 0.701961 0.388235 0.34902 0.701961 0.388235 
0.34902 0.701961 0.388235 0.34902 0.701961 0.388235 
0.34902 0.701961 0.388235 0.34902 0.701961 0.388235 
0.34902 0.701961 0.388235 0.34902 0.701961 0.388235 
0.34902 0.701961 0.388235 0.34902 0.701961 0.388235 
0.34902 0.701961 0.388235 0.34902 0.701961 0.388235 
0.34902 0.701961 0.388235 0.34902 0.701961 0.388235 
0.34902 0.701961 0.388235 0.34902 0.701961 0.388235 
0.34902 0.701961 0.388235 0.34902 0.701961 0.388235 
0.34902 0.701961 0.388235 0.34902 0.701961 0.388235 
0.34902 0.701961 0.388235 0.34902 0.701961 0.388235 
0.34902 0.701961 0.388235 0.34902 0.701961 0.388235 
0.34902 0.701961 0.388235 0.34902 0.701961 0.388235 
0.34902 0.701961 0.388235 0.34902 0.701961 0.388235 
0.34902 0.701961 0.388235 0.34902 0.701961 0.388235 
0.34902 0.701961 0.388235 0.34902 0.701961 0.388235 
0.34902 0.701961 0.388235 0.34902 0.701961 0.388235 
0.34902 0.701961 0.388235 0.34902 0.701961 0.388235 
0.34902 0.701961 0.388235 0.34902 0.701961 0.388235 
0.34902 0.701961 0.388235 0.34902 0.701961 0.388235 
0.34902 0.701961 0.388235 0.34902 0.701961 0.388235 
0.34902 0.701961 0.388235 0.34902 0.701961 0.388235 
0.34902 0.701961 0.388235 0.34902 0.701961 0.388235 
0.34902 0.701961 0.388235 0.34902 0.701961 0.388235 
0.34902 0.701961 0.388235 0.34902 0.701961 0.388235 
0.34902 0.701961 0.388235 0.34902 0.701961 0.388235 
0.34902 0.701961 0.388235 0.34902 0.701961 0.388235 
0.34902 0.701961 0.388235 0.34902 0.701961 0.388235 
0.34902 0.701961 0.388235 0.34902 0.701961 0.388235 
0.34902 0.701961 0.388235 0.34902 0.701961 0.388235 
0.34902 0.701961 0.388235 0.34902 0.701961 0.388235 
0.34902 0.701961 0.388235 0.34902 0.701961 0.388235 
0.34902 0.701961 0.388235 0.34902 0.701961 0.388235 
0.34902 0.701961 0.388235 0.34902 0.701961 0.388235 
0.34902 0.701961 0.388235 0.34902 0.701961 0.388235 
0.34902 0.701961 0.388235 0.34902 0.701961 0.388235 
0.34902 0.701961 0.388235 0.34902 0.701961 0.388235 
0.34902 0.701961 0.388235 0.34902 0.701961 0.388235 
0.34902 0.701961 0.388235 0.34902 0.701961 0.388235 
0.34902 0.701961 0.388235 0.34902 0.701961 0.388235 
0.34902 0.701961 0.388235 0.34902 0.701961 0.388235 
0.34902 0.701961 0.388235 0.34902 0.701961 0.388235 
0.34902 0.701961 0.388235 0.34902 0.701961 0.388235 
0.34902 0.701961 0.388235 0.34902 0.701961 0.388235 
0.34902 0.701961 0.388235 0.34902 0.701961 0.388235 
0.34902 0.701961 0.388235 0.34902 0.701961 0.388235 
0.34902 0.701961 0.388235 0.34902 0.701961 0.388235 
0.34902 0.701961 0.388235 0.34902 0.701961 0.388235 
0.34902 0.701961 0.388235 0.34902 0.701961 0.388235 
0.34902 0.701961 0.388235 0.34902 0.701961 0.388235 
0.34902 0.701961 0.388235 0.34902 0.701961 0.388235 
0.34902 0.701961 0.388235 0.34902 0.701961 0.388235 
0.34902 0.701961 0.388235 0.34902 0.701961 0.388235 
0.34902 0.701961 0.388235 0.34902 0.701961 0.388235 
0.34902 0.701961 0.388235 0.34902 0.701961 0.388235 
0.34902 0.701961 0.388235 0.34902 0.701961 0.388235 
0.34902 0.701961 0.388235 0.34902 0.701961 0.388235 
0.34902 0.701961 0.388235 0.34902 0.701961 0.388235 
0.34902 0.701961 0.388235 0.34902 0.701961 0.388235 
0.34902 0.701961 0.388235 0.34902 0.701961 0.388235 
0.34902 0.701961 0.388235 0.34902 0.701961 0.388235 
0.34902 0.701961 0.388235 0.34902 0.701961 0.388235 
0.34902 0.701961 0.388235 0.34902 0.701961 0.388235 
0.34902 0.701961 0.388235 0.34902 0.701961 0.388235 
0.34902 0.701961 0.388235 0.34902 0.701961 0.388235 
0.34902 0.701961 0.388235 0.34902 0.701961 0.388235 
0.34902 0.701961 0.388235 0.34902 0.701961 0.388235 
0.34902 0.701961 0.388235 0.34902 0.701961 0.388235 
0.34902 0.701961 0.388235 0.34902 0.701961 0.388235 
0.34902 0.701961 0.388235 0.34902 0.701961 0.388235 
0.34902 0.701961 0.388235 0.34902 0.701961 0.388235 
0.34902 0.701961 0.388235 0.34902 0.701961 0.388235 
0.34902 0.701961 0.388235 0.34902 0.701961 0.388235 
0.34902 0.701961 0.388235 0.34902 0.701961 0.388235 
0.34902 0.701961 0.388235 0.34902 0.701961 0.388235 
0.34902 0.701961 0.388235 0.34902 0.701961 0.388235 
0.34902 0.701961 0.388235 0.34902 0.701961 0.388235 
0.34902 0.701961 0.388235 0.34902 0.701961 0.388235 
0.34902 0.701961 0.388235 0.34902 0.701961 0.388235 
0.34902 0.701961 0.388235 0.34902 0.701961 0.388235 
0.34902 0.701961 0.388235 0.34902 0.701961 0.388235 
0.34902 0.701961 0.388235 0.34902 0.701961 0.388235 
0.34902 0.701961 0.388235 0.34902 0.701961 0.388235 
0.34902 0.701961 0.388235 0.34902 0.701961 0.388235 
0.34902 0.701961 0.388235 0.34902 0.701961 0.388235 
0.34902 0.701961 0.388235 0.34902 0.701961 0.388235 
0.34902 0.701961 0.388235 0.34902 0.701961 0.388235 
0.34902 0.701961 0.388235 0.34902 0.701961 0.388235 
0.34902 0.701961 0.388235 0.34902 0.701961 0.388235 
0.34902 0.701961 0.388235 0.34902 0.701961 0.388235 
0.34902 0.701961 0.388235 0.34902 0.701961 0.388235 
0.34902 0.701961 0.388235 0.34902 0.701961 0.388235 
0.34902 0.701961 0.388235 0.34902 0.701961 0.388235 
0.34902 0.701961 0.388235 0.34902 0.701961 0.388235 
0.34902 0.701961 0.388235 0.34902 0.701961 0.388235 
0.34902 0.701961 0.388235 0.34902 0.701961 0.388235 
0.34902 0.701961 0.388235 0.34902 0.701961 0.388235 
0.34902 0.701961 0.388235 0.34902 0.701961 0.388235 
0.34902 0.701961 0.388235 0.34902 0.701961 0.388235 
0.34902 0.701961 0.388235 0.34902 0.701961 0.388235 
0.34902 0.701961 0.388235 0.34902 0.701961 0.388235 
0.34902 0.701961 0.388235 0.34902 0.701961 0.388235 
0.34902 0.701961 0.388235 0.34902 0.701961 0.388235 
0.34902 0.701961 0.388235 0.34902 0.701961 0.388235 
0.34902 0.701961 0.388235 0.34902 0.701961 0.388235 
0.34902 0.701961 0.388235 0.34902 0.701961 0.388235 
0.34902 0.701961 0.388235 0.34902 0.701961 0.388235 
0.34902 0.701961 0.388235 0.34902 0.701961 0.388235 
0.34902 0.701961 0.388235 0.34902 0.701961 0.388235 
0.34902 0.701961 0.388235 0.34902 0.701961 0.388235 
0.34902 0.701961 0.388235 0.34902 0.701961 0.388235 
0.34902 0.701961 0.388235 0.34902 0.701961 0.388235 
0.34902 0.701961 0.388235 0.34902 0.701961 0.388235 
0.34902 0.701961 0.388235 0.34902 0.701961 0.388235 
0.34902 0.701961 0.388235 0.34902 0.701961 0.388235 
0.34902 0.701961 0.388235 0.34902 0.701961 0.388235 
0.34902 0.701961 0.388235 0.34902 0.701961 0.388235 
0.34902 0.701961 0.388235 0.34902 0.701961 0.388235 
0.34902 0.701961 0.388235 0.34902 0.701961 0.388235 
0.34902 0.701961 0.388235 0.34902 0.701961 0.388235 
0.34902 0.701961 0.388235 0.34902 0.701961 0.388235 
0.34902 0.701961 0.388235 0.34902 0.701961 0.388235 
0.34902 0.701961 0.388235 0.34902 0.701961 0.388235 
0.34902 0.701961 0.388235 0.34902 0.701961 0.388235 
0.34902 0.701961 0.388235 0.34902 0.701961 0.388235 
0.34902 0.701961 0.388235 0.34902 0.701961 0.388235 
0.34902 0.701961 0.388235 0.34902 0.701961 0.388235 
0.34902 0.701961 0.388235 0.34902 0.701961 0.388235 
0.34902 0.701961 0.388235 0.34902 0.701961 0.388235 
0.34902 0.701961 0.388235 0.34902 0.701961 0.388235 
0.34902 0.701961 0.388235 0.34902 0.701961 0.388235 
0.34902 0.701961 0.388235 0.34902 0.701961 0.388235 
0.34902 0.701961 0.388235 0.34902 0.701961 0.388235 
0.34902 0.701961 0.388235 0.34902 0.701961 0.388235 
0.34902 0.701961 0.388235 0.34902 0.701961 0.388235 
0.34902 0.701961 0.388235 0.34902 0.701961 0.388235 
0.34902 0.701961 0.388235 0.34902 0.701961 0.388235 
0.34902 0.701961 0.388235 0.34902 0.701961 0.388235 
0.34902 0.701961 0.388235 0.34902 0.701961 0.388235 
0.34902 0.701961 0.388235 0.34902 0.701961 0.388235 
0.34902 0.701961 0.388235 0.34902 0.701961 0.388235 
0.34902 0.701961 0.388235 0.34902 0.701961 0.388235 
0.34902 0.701961 0.388235 0.34902 0.701961 0.388235 
0.34902 0.701961 0.388235 0.34902 0.701961 0.388235 
0.34902 0.701961 0.388235 0.34902 0.701961 0.388235 
0.34902 0.701961 0.388235 0.34902 0.701961 0.388235 
0.34902 0.701961 0.388235 0.34902 0.701961 0.388235 
0.34902 0.701961 0.388235 0.34902 0.701961 0.388235 
0.34902 0.701961 0.388235 0.34902 0.701961 0.388235 
0.34902 0.701961 0.388235 0.34902 0.701961 0.388235 
0.34902 0.701961 0.388235 0.34902 0.701961 0.388235 
0.34902 0.701961 0.388235 0.34902 0.701961 0.388235 
0.34902 0.701961 0.388235 0.34902 0.701961 0.388235 
0.34902 0.701961 0.388235 0.34902 0.701961 0.388235 
0.34902 0.701961 0.388235 0.34902 0.701961 0.388235 
0.34902 0.701961 0.388235 0.34902 0.701961 0.388235 
0.34902 0.701961 0.388235 0.34902 0.701961 0.388235 
0.34902 0.701961 0.388235 0.34902 0.701961 0.388235 
0.34902 0.701961 0.388235 0.34902 0.701961 0.388235 
0.34902 0.701961 0.388235 0.34902 0.701961 0.388235 
0.34902 0.701961 0.388235 0.34902 0.701961 0.388235 
0.34902 0.701961 0.388235 0.34902 0.701961 0.388235 
0.34902 0.701961 0.388235 0.34902 0.701961 0.388235 
0.34902 0.701961 0.388235 0.34902 0.701961 0.388235 
0.34902 0.701961 0.388235 0.34902 0.701961 0.388235 
0.34902 0.701961 0.388235 0.34902 0.701961 0.388235 
0.34902 0.701961 0.388235 0.34902 0.701961 0.388235 
0.34902 0.701961 0.388235 0.34902 0.701961 0.388235 
0.34902 0.701961 0.388235 0.34902 0.701961 0.388235 
0.34902 0.701961 0.388235 0.34902 0.701961 0.388235 
0.34902 0.701961 0.388235 0.34902 0.701961 0.388235 
0.34902 0.701961 0.388235 0.34902 0.701961 0.388235 
0.34902 0.701961 0.388235 0.34902 0.701961 0.388235 
0.34902 0.701961 0.388235 0.34902 0.701961 0.388235 
0.34902 0.701961 0.388235 0.34902 0.701961 0.388235 
0.34902 0.701961 0.388235 0.34902 0.701961 0.388235 
0.34902 0.701961 0.388235 0.34902 0.701961 0.388235 
0.34902 0.701961 0.388235 0.34902 0.701961 0.388235 
0.34902 0.701961 0.388235 0.34902 0.701961 0.388235 
0.34902 0.701961 0.388235 0.34902 0.701961 0.388235 
0.34902 0.701961 0.388235 0.34902 0.701961 0.388235 
0.34902 0.701961 0.388235 0.34902 0.701961 0.388235 
0.34902 0.701961 0.388235 0.34902 0.701961 0.388235 
0.34902 0.701961 0.388235 0.34902 0.701961 0.388235 
0.34902 0.701961 0.388235 0.34902 0.701961 0.388235 
0.34902 0.701961 0.388235 0.34902 0.701961 0.388235 
0.34902 0.701961 0.388235 0.34902 0.701961 0.388235 
0.34902 0.701961 0.388235 0.34902 0.701961 0.388235 
0.34902 0.701961 0.388235 0.34902 0.701961 0.388235 
0.34902 0.701961 0.388235 0.34902 0.701961 0.388235 
0.34902 0.701961 0.388235 0.34902 0.701961 0.388235 
0.34902 0.701961 0.388235 0.34902 0.701961 0.388235 
0.34902 0.701961 0.388235 0.34902 0.701961 0.388235 
0.34902 0.701961 0.388235 0.34902 0.701961 0.388235 
0.34902 0.701961 0.388235 0.34902 0.701961 0.388235 
0.34902 0.701961 0.388235 0.34902 0.701961 0.388235 
0.34902 0.701961 0.388235 0.34902 0.701961 0.388235 
0.34902 0.701961 0.388235 0.34902 0.701961 0.388235 
0.34902 0.701961 0.388235 0.34902 0.701961 0.388235 
0.34902 0.701961 0.388235 0.34902 0.701961 0.388235 
0.34902 0.701961 0.388235 0.34902 0.701961 0.388235 
0.34902 0.701961 0.388235 0.34902 0.701961 0.388235 
0.34902 0.701961 0.388235 0.34902 0.701961 0.388235 
0.34902 0.701961 0.388235 0.34902 0.701961 0.388235 
0.34902 0.701961 0.388235 0.34902 0.701961 0.388235 
0.34902 0.701961 0.388235 0.34902 0.701961 0.388235 
0.34902 0.701961 0.388235 0.34902 0.701961 0.388235 
0.34902 0.701961 0.388235 0.34902 0.701961 0.388235 
0.34902 0.701961 0.388235 0.34902 0.701961 0.388235 
0.34902 0.701961 0.388235 0.34902 0.701961 0.388235 
0.34902 0.701961 0.388235 0.34902 0.701961 0.388235 
0.34902 0.701961 0.388235 0.34902 0.701961 0.388235 
0.34902 0.701961 0.388235 0.34902 0.701961 0.388235 
0.34902 0.701961 0.388235 0.34902 0.701961 0.388235 
0.34902 0.701961 0.388235 0.34902 0.701961 0.388235 
0.34902 0.701961 0.388235 0.34902 0.701961 0.388235 
0.34902 0.701961 0.388235 0.34902 0.701961 0.388235 
0.34902 0.701961 0.388235 0.34902 0.701961 0.388235 
0.34902 0.701961 0.388235 0.34902 0.701961 0.388235 
0.34902 0.701961 0.388235 0.34902 0.701961 0.388235 
0.34902 0.701961 0.388235 0.34902 0.701961 0.388235 
0.34902 0.701961 0.388235 0.34902 0.701961 0.388235 
0.34902 0.701961 0.388235 0.34902 0.701961 0.388235 
0.34902 0.701961 0.388235 0.34902 0.701961 0.388235 
0.34902 0.701961 0.388235 0.34902 0.701961 0.388235 
0.34902 0.701961 0.388235 0.34902 0.701961 0.388235 
0.34902 0.701961 0.388235 0.34902 0.701961 0.388235 
0.34902 0.701961 0.388235 0.34902 0.701961 0.388235 
0.34902 0.701961 0.388235 0.34902 0.701961 0.388235 
0.34902 0.701961 0.388235 0.34902 0.701961 0.388235 
0.34902 0.701961 0.388235 0.34902 0.701961 0.388235 
0.34902 0.701961 0.388235 0.34902 0.701961 0.388235 
0.34902 0.701961 0.388235 0.34902 0.701961 0.388235 
0.34902 0.701961 0.388235 0.34902 0.701961 0.388235 
0.34902 0.701961 0.388235 0.34902 0.701961 0.388235 
0.34902 0.701961 0.388235 0.34902 0.701961 0.388235 
0.34902 0.701961 0.388235 0.34902 0.701961 0.388235 
0.34902 0.701961 0.388235 0.34902 0.701961 0.388235 
0.34902 0.701961 0.388235 0.34902 0.701961 0.388235 
0.34902 0.701961 0.388235 0.34902 0.701961 0.388235 
0.34902 0.701961 0.388235 0.34902 0.701961 0.388235 
0.34902 0.701961 0.388235 0.34902 0.701961 0.388235 
0.34902 0.701961 0.388235 0.34902 0.701961 0.388235 
0.34902 0.701961 0.388235 0.34902 0.701961 0.388235 
0.34902 0.701961 0.388235 0.34902 0.701961 0.388235 
0.34902 0.701961 0.388235 0.34902 0.701961 0.388235 
0.34902 0.701961 0.388235 0.34902 0.701961 0.388235 
0.34902 0.701961 0.388235 0.34902 0.701961 0.388235 
0.34902 0.701961 0.388235 0.34902 0.701961 0.388235 
0.34902 0.701961 0.388235 0.34902 0.701961 0.388235 
0.34902 0.701961 0.388235 0.34902 0.701961 0.388235 
0.34902 0.701961 0.388235 0.34902 0.701961 0.388235 
0.34902 0.701961 0.388235 0.34902 0.701961 0.388235 
0.34902 0.701961 0.388235 0.34902 0.701961 0.388235 
0.34902 0.701961 0.388235 0.34902 0.701961 0.388235 
0.34902 0.701961 0.388235 0.34902 0.701961 0.388235 
0.34902 0.701961 0.388235 0.34902 0.701961 0.388235 
0.34902 0.701961 0.388235 0.34902 0.701961 0.388235 
0.34902 0.701961 0.388235 0.34902 0.701961 0.388235 
0.34902 0.701961 0.388235 0.34902 0.701961 0.388235 
0.34902 0.701961 0.388235 0.34902 0.701961 0.388235 