# vtk DataFile Version 4.2
vtk output
ASCII
DATASET POLYDATA
POINTS 564 float
350.277 212.11 214.758 345.232 213.282 214.392 349.727 213.192 214.6 
352.259 212.612 214.907 353.281 213.203 215.044 340.892 215.417 214.29 
343.09 214.834 214.218 339.24 216.242 214.663 340.64 215.936 214.324 
339.157 216.87 214.79 342.679 216.172 214.341 339.318 217.352 214.926 
340.218 217.084 214.609 341.843 216.776 214.453 340.699 217.522 214.788 
345.028 211.094 215.475 346.169 211.339 215.104 353.639 211.181 215.637 
355.238 211.979 215.809 339.479 213.837 215.168 356.098 212.951 215.915 
338.223 214.432 215.396 347.896 214.375 214.591 339.096 215.041 214.822 
354.656 214.816 215.863 356.618 214.423 216.26 337.222 216.205 215.451 
347.473 215.858 215.133 354.748 215.279 216.19 355.933 214.952 216.245 
336.362 217.106 215.856 344.091 216.73 214.743 336.319 217.535 215.985 
336.659 217.763 215.976 336.839 218.005 216.145 338.318 217.935 215.675 
339.39 217.863 215.277 342.153 217.788 215.008 342.843 218.109 215.366 
344.51 217.869 215.621 338.638 218.427 216.133 340.973 218.411 215.511 
340.67 218.73 215.969 347.338 210.374 215.743 347.06 210.047 216.12 
343.397 211.343 215.705 340.75 212.449 215.754 356.882 213.014 216.362 
336.142 215.205 216.406 335.391 216.322 216.429 354.291 215.485 216.387 
356.857 215.02 216.666 355.349 215.711 216.905 355.928 215.678 216.919 
334.36 217.77 216.86 344.776 218.043 215.935 334.807 218.18 216.875 
336.628 218.191 216.537 337.424 218.337 216.638 339.706 218.8 216.34 
339.832 218.847 216.623 342.854 218.752 216.01 346.158 209.532 217.331 
347.95 209.372 217.089 353.28 209.834 216.623 342.87 210.702 217.126 
340.482 211.987 217.311 357.17 211.381 217.224 338.635 213.178 216.486 
338.033 213.405 216.819 339.73 212.571 216.464 336.474 214.483 216.899 
337.709 213.735 216.512 335.95 215.159 217.177 357.412 213.925 216.756 
358.027 213.244 217.368 335.102 216.108 217.018 358.101 214.122 217.544 
352.045 215.864 216.819 357.737 214.758 217.33 358.006 214.566 217.621 
334.493 216.851 217.065 349.035 216.714 216.86 352.579 216.019 217.473 
353.625 215.937 217.452 356.578 215.898 217.689 356.91 215.642 217.274 
334.057 217.753 217.127 357.189 215.654 217.553 333.894 218.021 217.228 
333.852 218.215 217.259 333.933 218.462 217.253 335.109 218.309 217.044 
335.998 218.243 216.949 336.902 218.266 216.941 343.739 218.869 216.991 
334.097 218.492 217.213 334.315 218.477 217.177 340.973 218.97 216.946 
345.968 209.442 217.86 345.94 209.417 218.244 351.436 209.155 217.538 
351.027 209.085 218.028 353.328 209.231 217.622 352.934 209.123 218.083 
354.883 209.305 217.814 354.634 209.202 218.119 342.628 210.601 218.281 
341.99 211.067 218.086 358.588 211.391 218.654 337.991 213.421 217.103 
337.756 213.644 217.286 339.029 212.961 217.433 336.474 214.434 217.111 
336.316 214.657 217.265 358.772 212.278 218.486 358.727 212.774 218.357 
336.759 214.792 217.747 336.766 215.165 217.859 334.936 216.349 217.233 
336.04 215.584 217.609 336.275 215.055 217.606 335.445 216.343 217.596 
337.767 214.984 218.153 334.609 216.686 217.169 334.67 216.745 217.299 
334.437 217.027 217.214 335.526 216.665 217.692 334.207 217.526 217.27 
336.026 216.951 217.793 351.108 216.31 218.385 355.212 215.955 218.086 
333.967 217.87 217.265 333.893 218.082 217.315 337.869 216.652 218.148 
356.925 215.865 217.874 357.203 215.734 217.851 333.868 218.256 217.337 
345.781 218.126 217.429 333.861 218.376 217.297 333.919 218.465 217.322 
334.559 218.427 217.204 334.89 218.31 217.259 336.346 218.122 217.246 
339.759 218.274 217.659 343.511 218.967 217.301 334.005 218.508 217.292 
343.036 219.035 217.313 345.742 209.498 218.426 349.679 209.169 218.503 
351.582 209.136 218.533 353.489 209.175 218.601 356.951 209.521 218.798 
357.317 209.596 218.973 357.168 209.491 219.05 357.375 209.606 219.148 
343.32 210.344 218.499 346.15 209.663 218.909 348.391 209.423 218.94 
350.243 209.331 218.976 354.102 209.362 219.171 356.007 209.396 218.956 
357.318 209.734 218.791 357.623 209.864 219.072 342.16 210.699 218.57 
342.198 210.713 218.623 342.107 210.684 218.614 342.235 210.748 218.417 
342.456 210.691 218.577 358.237 210.613 218.847 342.088 210.712 218.591 
342.101 210.852 218.509 341.354 211.864 218.258 342.01 211.307 218.529 
358.649 211.21 218.974 358.908 212.085 218.794 337.041 214.401 217.618 
337.718 214.397 217.912 359.208 212.823 219.391 338.198 214.707 218.178 
359.133 213.252 219.27 334.625 217.124 217.406 358.323 214.642 218.663 
352.893 216.063 218.923 357.439 215.563 218.156 337.042 217.341 217.813 
333.944 218.352 217.363 336.697 217.8 217.543 345.614 218.156 217.909 
345.739 217.932 218.385 346.928 217.501 218.419 334.077 218.44 217.346 
342.231 218.87 217.772 342.814 218.668 218.16 343.612 218.658 218.044 
343.436 218.91 217.596 356.574 209.401 219.113 356.847 209.479 219.285 
357.458 209.772 219.367 348.943 209.699 219.37 354.192 209.627 219.689 
355.748 209.557 219.473 357.758 209.993 219.381 357.897 210.086 219.243 
342.128 210.744 218.615 342.32 210.917 218.667 343.037 210.812 218.827 
345.137 210.422 219.332 353.114 209.855 219.94 344.888 211.67 219.8 
359.171 212.451 219.794 359.358 212.78 219.715 359.358 212.943 219.689 
359.41 212.873 219.785 359.171 213.251 219.664 359.339 212.954 219.827 
358.88 213.87 219.686 343.352 216.194 219.541 351.632 215.972 219.729 
353.539 215.885 219.555 347.531 217.189 218.704 347.033 217.192 218.914 
342.496 217.615 219.031 344.143 218.239 218.534 343.825 210.163 218.815 
354.604 209.978 220.102 357.626 210.148 219.726 349.17 210.622 220.126 
357.325 210.582 220.449 358.158 210.731 219.891 355.122 210.841 220.817 
358.055 210.975 220.349 359.042 212.434 220.146 348.666 212.639 220.75 
359.338 212.791 219.853 359.122 212.879 220.067 345.476 215.247 220.026 
346.827 214.625 220.353 348.068 215.073 220.442 358.475 214.352 220.065 
345.895 216.412 219.67 349 215.747 220.135 356.749 215.349 219.85 
346.726 216.794 219.366 343.106 218.085 218.819 358.548 211.704 220.511 
352.943 212.09 221.213 358.674 212.034 220.568 352.826 212.887 221.382 
358.736 213.13 220.502 351.491 213.881 221.293 358.314 214.247 220.377 
357.97 214.246 220.692 358.195 213.926 220.72 351.972 215.363 220.655 
353.28 214.981 220.992 355.55 214.901 220.912 357.608 214.413 220.75 
358.12 211.946 220.961 356.952 212.442 221.343 358.494 212.241 220.799 
353.252 213.496 221.441 358.458 212.753 220.829 356.583 213.624 221.384 
352.167 214.607 221.178 356.377 214.172 221.216 357.47 212.279 233.948 
357.185 212.58 233.817 358.263 212.666 234.077 358.369 212.329 234.216 
355.611 213.401 233.684 357.737 213.224 233.86 358.569 212.582 234.264 
355.04 213.777 233.754 356.168 213.794 233.731 357.514 213.612 233.876 
354.816 214.151 233.894 355.921 214.238 233.865 357.261 214.098 233.988 
356.268 214.612 234.138 357.594 214.445 234.288 358.062 214.348 234.432 
355.316 211.46 234.16 356.802 211.51 234.187 357.499 211.751 234.214 
358.6 211.935 234.624 358.39 211.595 234.714 358.653 211.744 234.88 
351.646 213.242 234.313 352.718 212.213 234.213 359.124 212.847 234.943 
351.349 214.046 234.48 359.078 213.243 234.886 349.704 214.869 234.937 
351.457 214.699 234.708 358.749 213.892 234.7 352.016 215.077 234.929 
356.65 214.946 234.522 357.322 214.84 234.565 351.687 215.532 235.41 
358.079 214.79 234.968 357.347 209.778 235.441 357.268 209.585 235.586 
357.046 209.666 235.487 357.448 209.641 235.595 356.036 210.011 235.097 
357.626 209.873 235.573 346.376 210.966 235.587 351.911 209.971 235.35 
353.407 210.383 234.868 357.856 210.251 235.443 357.899 210.654 235.149 
352.225 211.016 234.654 349.981 211.835 234.691 359.109 212.42 235.318 
359.311 212.763 235.181 359.323 212.926 235.164 359.38 212.847 235.231 
359.167 213.217 235.236 359.324 212.917 235.308 344.827 214.967 235.362 
347.131 214.998 235.139 348.918 214.311 234.851 358.941 213.823 235.378 
347.676 215.362 235.237 358.68 214.342 235.546 346.566 216.455 235.679 
348.659 216.058 235.687 354.317 215.676 235.654 343.413 217.475 236.073 
346.541 217.045 236.027 343.057 217.724 236.268 344.216 217.871 236.272 
345.408 217.74 236.331 346.207 217.463 236.317 357.338 209.548 235.695 
357.496 209.644 235.717 343.757 210.443 236.912 352.231 209.337 236.025 
354.971 209.566 235.472 357.579 209.802 235.896 357.864 210.124 235.698 
346.261 209.992 236.233 347.869 209.893 235.986 349.81 209.788 235.81 
343.152 211.319 236.577 343.726 211.837 236.03 358.554 211.26 235.606 
359.028 212.334 235.726 359.311 212.755 235.325 359.132 212.805 235.648 
341.514 216.257 236.284 352.086 216.059 236.618 354.996 215.85 236.174 
357.234 215.537 236.169 357.857 215.169 235.98 346.817 217.253 236.297 
341.12 217.675 236.761 341.21 217.924 236.884 344.98 218.086 236.533 
345.335 218.091 236.67 354.942 208.993 236.859 354.675 208.994 236.768 
355.2 209.066 236.932 345.276 209.678 237.04 345.35 209.474 237.403 
346.566 209.31 237.25 347.847 209.321 236.775 349.749 209.219 236.695 
350.211 209.102 237.149 352.101 209.066 237.058 355.189 209.121 236.259 
355.791 209.168 236.375 356.14 209.238 236.606 356.552 209.401 236.581 
344.442 209.929 237.285 346.578 209.666 236.494 348.319 209.526 236.331 
357.552 209.879 236.203 357.366 209.86 236.477 339.43 212.438 237.651 
338.958 212.52 237.844 340.016 212.129 237.995 342.015 211.394 237.57 
338.504 212.49 237.56 338.45 212.513 237.566 338.436 212.481 237.534 
338.779 212.528 237.599 338.587 212.585 237.66 339.728 212.817 237.299 
338.524 212.513 237.543 338.669 212.685 237.569 339.028 213.097 237.432 
334 214.009 237.017 334 214.009 237.017 334 214.009 237.017 
334 214.009 237.017 339.609 214.3 236.913 334 214.009 237.017 
358.704 214.165 236.342 334.09 217.524 237.85 334.032 217.443 237.882 
333.962 217.55 237.943 334.128 217.382 237.88 333.758 217.791 237.944 
333.651 217.987 237.909 334.434 217.246 237.931 353.871 215.979 237.12 
355.78 215.906 236.665 356.909 215.788 236.65 357.303 215.627 236.733 
333.595 218.165 237.91 334.857 217.565 237.793 340.847 217.247 236.708 
[...]
POINT_DATA 564
COLOR_SCALARS scalars 3
1 0.65098 1 1 0.65098 1 1 0.65098 1 
1 0.65098 1 1 0.65098 1 
1 0.65098 1 1 0.65098 1 
1 0.65098 1 1 0.65098 1 
1 0.65098 1 1 0.65098 1 
1 0.65098 1 1 0.65098 1 
1 0.65098 1 1 0.65098 1 
1 0.65098 1 1 0.65098 1 
1 0.65098 1 1 0.65098 1 
1 0.65098 1 1 0.65098 1 
1 0.65098 1 1 0.65098 1 
1 0.65098 1 1 0.65098 1 
1 0.65098 1 1 0.65098 1 
1 0.65098 1 1 0.65098 1 
1 0.65098 1 1 0.65098 1 
1 0.65098 1 1 0.65098 1 
1 0.65098 1 1 0.65098 1 
1 0.65098 1 1 0.65098 1 
1 0.65098 1 1 0.65098 1 
1 0.65098 1 1 0.65098 1 
1 0.65098 1 1 0.65098 1 
1 0.65098 1 1 0.65098 1 
1 0.65098 1 1 0.65098 1 
1 0.65098 1 1 0.65098 1 
1 0.65098 1 1 0.65098 1 
1 0.65098 1 1 0.65098 1 
1 0.65098 1 1 0.65098 1 
1 0.65098 1 1 0.65098 1 
1 0.65098 1 1 0.65098 1 
1 0.65098 1 1 0.65098 1 
1 0.65098 1 1 0.65098 1 
1 0.65098 1 1 0.65098 1 
1 0.65098 1 1 0.65098 1 
1 0.65098 1 1 0.65098 1 
1 0.65098 1 1 0.65098 1 
1 0.65098 1 1 0.65098 1 
1 0.65098 1 1 0.65098 1 
1 0.65098 1 1 0.65098 1 
1 0.65098 1 1 0.65098 1 
1 0.65098 1 1 0.65098 1 
1 0.65098 1 1 0.65098 1 
1 0.65098 1 1 0.65098 1 
1 0.65098 1 1 0.65098 1 
1 0.65098 1 1 0.65098 1 
1 0.65098 1 1 0.65098 1 
1 0.65098 1 1 0.65098 1 
1 0.65098 1 1 0.65098 1 
1 0.65098 1 1 0.65098 1 
1 0.65098 1 1 0.65098 1 
1 0.65098 1 1 0.65098 1 
1 0.65098 1 1 0.65098 1 
1 0.65098 1 1 0.65098 1 
1 0.65098 1 1 0.65098 1 
1 0.65098 1 1 0.65098 1 
1 0.65098 1 1 0.65098 1 
1 0.65098 1 1 0.65098 1 
1 0.65098 1 1 0.65098 1 
1 0.65098 1 1 0.65098 1 
1 0.65098 1 1 0.65098 1 
1 0.65098 1 1 0.65098 1 
1 0.65098 1 1 0.65098 1 
1 0.65098 1 1 0.65098 1 
1 0.65098 1 1 0.65098 1 
1 0.65098 1 1 0.65098 1 
1 0.65098 1 1 0.65098 1 
1 0.65098 1 1 0.65098 1 
1 0.65098 1 1 0.65098 1 
1 0.65098 1 1 0.65098 1 
1 0.65098 1 1 0.65098 1 
1 0.65098 1 1 0.65098 1 
1 0.65098 1 1 0.65098 1 
1 0.65098 1 1 0.65098 1 
1 0.65098 1 1 0.65098 1 
1 0.65098 1 1 0.65098 1 
1 0.65098 1 1 0.65098 1 
1 0.65098 1 1 0.65098 1 
1 0.65098 1 1 0.65098 1 
1 0.65098 1 1 0.65098 1 
1 0.65098 1 1 0.65098 1 
1 0.65098 1 1 0.65098 1 
1 0.65098 1 1 0.65098 1 
1 0.65098 1 1 0.65098 1 
1 0.65098 1 1 0.65098 1 
1 0.65098 1 1 0.65098 1 
1 0.65098 1 1 0.65098 1 
1 0.65098 1 1 0.65098 1 
1 0.65098 1 1 0.65098 1 
1 0.65098 1 1 0.65098 1 
1 0.65098 1 1 0.65098 1 
1 0.65098 1 1 0.65098 1 
1 0.65098 1 1 0.65098 1 
1 0.65098 1 1 0.65098 1 
1 0.65098 1 1 0.65098 1 
1 0.65098 1 1 0.65098 1 
1 0.65098 1 1 0.65098 1 
1 0.65098 1 1 0.65098 1 
1 0.65098 1 1 0.65098 1 
1 0.65098 1 1 0.65098 1 
1 0.65098 1 1 0.65098 1 
1 0.65098 1 1 0.65098 1 
1 0.65098 1 1 0.65098 1 
1 0.65098 1 1 0.65098 1 
1 0.65098 1 1 0.65098 1 
1 0.65098 1 1 0.65098 1 
1 0.65098 1 1 0.65098 1 
1 0.65098 1 1 0.65098 1 
1 0.65098 1 1 0.65098 1 
1 0.65098 1 1 0.65098 1 
1 0.65098 1 1 0.65098 1 
1 0.65098 1 1 0.65098 1 
1 0.65098 1 1 0.65098 1 
1 0.65098 1 1 0.65098 1 
1 0.65098 1 1 0.65098 1 
1 0.65098 1 1 0.65098 1 
1 0.65098 1 1 0.65098 1 
1 0.65098 1 1 0.65098 1 
1 0.65098 1 1 0.65098 1 
1 0.65098 1 1 0.65098 1 
1 0.65098 1 1 0.65098 1 
1 0.65098 1 1 0.65098 1 
1 0.65098 1 1 0.65098 1 
1 0.65098 1 1 0.65098 1 
1 0.65098 1 1 0.65098 1 
1 0.65098 1 1 0.65098 1 
1 0.65098 1 1 0.65098 1 
1 0.65098 1 1 0.65098 1 
1 0.65098 1 1 0.65098 1 
1 0.65098 1 1 0.65098 1 
1 0.65098 1 1 0.65098 1 
1 0.65098 1 1 0.65098 1 
1 0.65098 1 1 0.65098 1 
1 0.65098 1 1 0.65098 1 
1 0.65098 1 1 0.65098 1 
1 0.65098 1 1 0.65098 1 
1 0.65098 1 1 0.65098 1 
1 0.65098 1 1 0.65098 1 
1 0.65098 1 1 0.65098 1 
1 0.65098 1 1 0.65098 1 
1 0.65098 1 1 0.65098 1 
1 0.65098 1 1 0.65098 1 
1 0.65098 1 1 0.65098 1 
1 0.65098 1 1 0.65098 1 
1 0.65098 1 1 0.65098 1 
1 0.65098 1 1 0.65098 1 
1 0.65098 1 1 0.65098 1 
1 0.65098 1 1 0.65098 1 
1 0.65098 1 1 0.65098 1 
1 0.65098 1 1 0.65098 1 
1 0.65098 1 1 0.65098 1 
1 0.65098 1 1 0.65098 1 
1 0.65098 1 1 0.65098 1 
1 0.65098 1 1 0.65098 1 
1 0.65098 1 1 0.65098 1 
1 0.65098 1 1 0.65098 1 
1 0.65098 1 1 0.65098 1 
1 0.65098 1 1 0.65098 1 
1 0.65098 1 1 0.65098 1 
1 0.65098 1 1 0.65098 1 
1 0.65098 1 1 0.65098 1 
1 0.65098 1 1 0.65098 1 
1 0.65098 1 1 0.65098 1 
1 0.65098 1 1 0.65098 1 
1 0.65098 1 1 0.65098 1 
1 0.65098 1 1 0.65098 1 
1 0.65098 1 1 0.65098 1 
1 0.65098 1 1 0.65098 1 
1 0.65098 1 1 0.65098 1 
1 0.65098 1 1 0.65098 1 
1 0.65098 1 1 0.65098 1 
1 0.65098 1 1 0.65098 1 
1 0.65098 1 1 0.65098 1 
1 0.65098 1 1 0.65098 1 
1 0.65098 1 1 0.65098 1 
1 0.65098 1 1 0.65098 1 
1 0.65098 1 1 0.65098 1 
1 0.65098 1 1 0.65098 1 
1 0.65098 1 1 0.65098 1 
1 0.65098 1 1 0.65098 1 
1 0.65098 1 1 0.65098 1 
1 0.65098 1 1 0.65098 1 
1 0.65098 1 1 0.65098 1 
1 0.65098 1 1 0.65098 1 
1 0.65098 1 1 0.65098 1 
1 0.65098 1 1 0.65098 1 
1 0.65098 1 1 0.65098 1 
1 0.65098 1 1 0.65098 1 
1 0.65098 1 1 0.65098 1 
1 0.65098 1 1 0.65098 1 
1 0.65098 1 1 0.65098 1 
1 0.65098 1 1 0.65098 1 
1 0.65098 1 1 0.65098 1 
1 0.65098 1 1 0.65098 1 
1 0.65098 1 1 0.65098 1 
1 0.65098 1 1 0.65098 1 
1 0.65098 1 1 0.65098 1 
1 0.65098 1 1 0.65098 1 
1 0.65098 1 1 0.65098 1 
1 0.65098 1 1 0.65098 1 
1 0.65098 1 1 0.65098 1 
1 0.65098 1 1 0.65098 1 
1 0.65098 1 1 0.65098 1 
1 0.65098 1 1 0.65098 1 
1 0.65098 1 1 0.65098 1 
1 0.65098 1 1 0.65098 1 
1 0.65098 1 1 0.65098 1 
1 0.65098 1 1 0.65098 1 
1 0.65098 1 1 0.65098 1 
1 0.65098 1 1 0.65098 1 
1 0.65098 1 1 0.65098 1 
1 0.65098 1 1 0.65098 1 
1 0.65098 1 1 0.65098 1 
1 0.65098 1 1 0.65098 1 
1 0.65098 1 1 0.65098 1 
1 0.65098 1 1 0.65098 1 
1 0.65098 1 1 0.65098 1 
1 0.65098 1 1 0.65098 1 
1 0.65098 1 1 0.65098 1 
1 0.65098 1 1 0.65098 1 
1 0.65098 1 1 0.65098 1 
1 0.65098 1 1 0.65098 1 
1 0.65098 1 1 0.65098 1 
1 0.65098 1 1 0.65098 1 
1 0.65098 1 1 0.65098 1 
1 0.65098 1 1 0.65098 1 
1 0.65098 1 1 0.65098 1 
1 0.65098 1 1 0.65098 1 
1 0.65098 1 1 0.65098 1 
1 0.65098 1 1 0.65098 1 
1 0.65098 1 1 0.65098 1 
1 0.65098 1 1 0.65098 1 
1 0.65098 1 1 0.65098 1 
1 0.65098 1 1 0.65098 1 
1 0.65098 1 1 0.65098 1 
1 0.65098 1 1 0.65098 1 
1 0.65098 1 1 0.65098 1 
1 0.65098 1 1 0.65098 1 
1 0.65098 1 1 0.65098 1 
1 0.65098 1 1 0.65098 1 
1 0.65098 1 1 0.65098 1 
1 0.65098 1 1 0.65098 1 
1 0.65098 1 1 0.65098 1 
1 0.65098 1 1 0.65098 1 
1 0.65098 1 1 0.65098 1 
1 0.65098 1 1 0.65098 1 
1 0.65098 1 1 0.65098 1 
1 0.65098 1 1 0.65098 1 
1 0.65098 1 1 0.65098 1 
1 0.65098 1 1 0.65098 1 
1 0.65098 1 1 0.65098 1 
1 0.65098 1 1 0.65098 1 
1 0.65098 1 1 0.65098 1 
1 0.65098 1 1 0.65098 1 
1 0.65098 1 1 0.65098 1 
1 0.65098 1 1 0.65098 1 
1 0.65098 1 1 0.65098 1 
1 0.65098 1 1 0.65098 1 
1 0.65098 1 1 0.65098 1 
1 0.65098 1 1 0.65098 1 
1 0.65098 1 1 0.65098 1 
1 0.65098 1 1 0.65098 1 
1 0.65098 1 1 0.65098 1 
1 0.65098 1 1 0.65098 1 
1 0.65098 1 1 0.65098 1 
1 0.65098 1 1 0.65098 1 
1 0.65098 1 1 0.65098 1 
1 0.65098 1 1 0.65098 1 
1 0.65098 1 1 0.65098 1 
1 0.65098 1 1 0.65098 1 
1 0.65098 1 1 0.65098 1 
1 0.65098 1 1 0.65098 1 
1 0.65098 1 1 0.65098 1 
1 0.65098 1 1 0.65098 1 
1 0.65098 1 1 0.65098 1 
1 0.65098 1 1 0.65098 1 
1 0.65098 1 1 0.65098 1 
1 0.65098 1 1 0.65098 1 
1 0.65098 1 1 0.65098 1 
1 0.65098 1 1 0.65098 1 
1 0.65098 1 1 0.65098 1 
1 0.65098 1 1 0.65098 1 
1 0.65098 1 1 0.65098 1 
1 0.65098 1 
NORMALS Normals float
0.0461295 -0.237578 -0.970272 -0.0041938 -0.164406 -0.986384 0.0972963 0.103557 -0.989853 
0.0856825 -0.285251 -0.954615 0.190851 0.0427327 -0.980689 -0.152757 -0.169742 -0.973577 
0.00154235 -0.0346525 -0.999398 -0.321122 0.0266933 -0.946662 -0.104037 0.109019 -0.98858 
-0.371461 0.330873 -0.86749 0.129816 0.316182 -0.939775 -0.425799 0.471498 -0.77226 
-0.146479 0.416373 -0.897317 0.0137366 0.343384 -0.939095 -0.107391 0.515906 -0.849887 
-0.205393 -0.687245 -0.696784 -0.026741 -0.505898 -0.862179 0.185597 -0.426528 -0.885228 
0.372931 -0.418538 -0.828099 -0.275756 -0.520644 -0.808015 0.369551 0.0260508 -0.928845 
-0.483955 -0.439831 -0.756529 0.0367151 0.13537 -0.990115 -0.213291 -0.280557 -0.935839 
0.140818 0.498658 -0.855284 0.428635 0.223448 -0.87541 -0.410112 0.00634985 -0.912013 
0.185559 0.515388 -0.836626 0.0738569 0.823677 -0.562228 0.24793 0.453094 -0.856293 
-0.443329 0.0407907 -0.89543 0.262373 0.397698 -0.879202 -0.399489 0.439997 -0.804246 
-0.286987 0.45004 -0.845638 -0.276049 0.781457 -0.559572 -0.218303 0.683016 -0.697018 
-0.282361 0.629278 -0.724073 0.131878 0.61768 -0.775293 0.149117 0.610751 -0.777655 
0.32092 0.680684 -0.658544 -0.199999 0.906494 -0.371846 -0.000997587 0.689698 -0.724096 
-0.0699915 0.828681 -0.555328 0.052312 -0.636105 -0.769827 -0.118482 -0.770685 -0.626104 
-0.345 -0.674482 -0.652724 -0.259024 -0.688012 -0.677898 0.604757 -0.15726 -0.780729 
-0.718615 -0.547036 -0.429354 -0.595578 -0.231946 -0.769082 0.0787893 0.849425 -0.521795 
0.490697 0.487597 -0.722126 -0.0877612 0.937046 -0.337997 0.153598 0.838564 -0.522703 
-0.490061 0.0930524 -0.866707 0.361398 0.733583 -0.575541 -0.138935 0.707145 -0.693284 
-0.162325 0.909866 -0.381832 -0.130151 0.954767 -0.267358 -0.150508 0.957118 -0.247534 
-0.202521 0.973259 0.108405 0.172705 0.829362 -0.531349 -0.270865 -0.891963 -0.361986 
-0.0438593 -0.937577 -0.345001 0.129576 -0.687285 -0.714737 -0.381769 -0.87737 -0.290646 
-0.492726 -0.869569 -0.0327329 0.596209 -0.395802 -0.698481 -0.441221 -0.851172 -0.284307 
-0.576758 -0.808733 -0.11533 -0.462644 -0.802261 -0.377276 -0.62153 -0.710851 -0.329229 
-0.558193 -0.7529 -0.348658 -0.789943 -0.579336 0.200901 0.638277 0.106487 -0.762406 
0.769751 -0.0381216 -0.637205 -0.759111 -0.617057 -0.207343 0.820442 0.148609 -0.552078 
0.127701 0.888937 -0.439868 0.739055 0.407735 -0.536236 0.824666 0.431031 -0.366249 
-0.830066 -0.510184 -0.225172 0.287502 0.937178 -0.197585 0.0794961 0.986411 -0.143785 
0.141707 0.97837 -0.1507 0.101789 0.988919 -0.108066 0.331641 0.803184 -0.494884 
-0.825628 -0.337202 -0.452365 0.594798 0.701447 -0.392667 -0.934244 -0.300029 -0.192796 
-0.899452 -0.0123682 -0.436845 -0.529869 0.459634 -0.712724 0.132978 0.970777 -0.199774 
0.0208966 0.998935 -0.0411345 -0.0831972 0.984781 0.15259 0.263042 0.932761 -0.246505 
-0.182012 0.679081 -0.711141 -0.0399128 0.77841 -0.626486 -0.105264 0.990064 0.0932324 
-0.454653 -0.864804 -0.213084 -0.0780475 -0.991548 0.10364 0.00876054 -0.949842 -0.312607 
-0.0179376 -0.998906 0.0431905 0.0537924 -0.963603 -0.261869 -0.192726 -0.967222 0.165341 
0.192452 -0.873092 -0.447965 0.0544378 -0.997144 -0.0523539 -0.404593 -0.906311 -0.122082 
-0.700143 -0.709316 -0.0816686 0.826823 -0.351155 -0.439379 -0.497982 -0.864656 0.0662124 
-0.507992 -0.781101 0.363078 -0.500878 -0.754739 0.423663 -0.738476 -0.674263 -0.00478933 
-0.617888 -0.625982 0.475774 0.776559 -0.202366 -0.596661 0.831376 -0.0477219 -0.553658 
-0.362034 -0.450988 0.815807 -0.279704 -0.206117 0.9377 -0.646691 -0.525767 0.552594 
-0.382296 -0.209185 0.900051 -0.5959 -0.388027 0.703092 -0.47506 -0.240287 0.846511 
-0.283617 -0.125309 0.950715 -0.780013 -0.574762 0.247444 -0.568909 -0.399768 0.718699 
-0.763327 -0.407136 0.50157 -0.345864 -0.142712 0.927368 -0.767612 -0.455613 0.450764 
-0.142905 0.0673664 0.987441 0.150388 0.988626 0.00123979 0.00278784 0.996455 -0.0840851 
-0.850118 -0.482481 0.210977 -0.654039 -0.271733 0.70597 -0.159903 0.261046 0.951991 
0.303606 0.951725 -0.0451916 0.540398 0.835102 -0.10283 -0.758859 -0.0200557 0.650946 
0.422175 0.90651 0.00272444 -0.92523 0.303459 0.227734 -0.509998 0.64789 0.56581 
0.218585 0.91057 0.350832 0.166704 0.968809 0.183358 0.0284738 0.925682 0.37723 
-0.177643 0.743539 0.644665 0.299686 0.938915 0.169196 -0.0695825 0.982712 0.171565 
0.0409622 0.993647 0.104819 -0.427091 -0.892195 0.146906 -0.0617341 -0.983334 0.171009 
-0.00250793 -0.990787 0.135404 -0.130267 -0.987226 0.0917366 0.272137 -0.792646 -0.545577 
0.544674 -0.760185 -0.354188 0.315359 -0.947968 -0.043643 0.545104 -0.822376 0.162974 
-0.360573 -0.90724 0.216572 -0.144947 -0.802722 0.578471 -0.120806 -0.817989 0.562406 
-0.033991 -0.873725 0.485232 -0.0884238 -0.89831 0.430373 0.0257709 -0.97701 0.21163 
0.472793 -0.526782 -0.706376 0.682671 -0.717116 -0.140377 -0.222278 -0.896456 -0.383353 
0.0333719 -0.574053 0.818138 -0.36899 -0.715481 0.59324 -0.469519 -0.834352 -0.288805 
-0.174749 -0.87611 0.449326 0.71756 -0.554183 -0.421886 -0.328083 -0.596844 -0.732215 
-0.960976 -0.233134 0.148906 -0.569845 -0.485781 0.662792 -0.596296 -0.194785 0.778774 
0.887157 -0.450142 -0.10161 0.888023 -0.192798 -0.417425 -0.346221 -0.50239 0.792298 
-0.251462 -0.4927 0.833075 0.92662 -0.0508698 -0.372542 -0.242614 -0.308606 0.919728 
0.921552 0.211984 -0.325277 -0.438372 -0.250933 0.863054 0.844408 0.511116 -0.160425 
0.0822372 0.983293 0.162395 0.660025 0.750567 -0.0318829 -0.128056 0.199632 0.971467 
-0.295009 0.120392 0.947879 -0.0135032 0.515338 0.856881 0.367123 0.907616 0.203601 
0.365226 0.834609 0.412356 0.204059 0.85241 0.481412 0.0701765 0.66503 0.743512 
-0.116805 0.885094 0.450516 -0.0776011 0.790441 0.607603 0.171581 0.862312 0.476422 
0.178951 0.917568 0.35503 0.0564624 -0.995061 0.081648 0.161783 -0.852722 0.49668 
0.499915 -0.768291 0.399767 -0.0975278 -0.755835 0.647458 -0.0084267 -0.763736 0.645474 
-0.00761919 -0.846234 0.532756 0.639145 -0.710151 0.295261 0.769029 -0.617321 0.165858 
-0.467675 0.218842 0.856381 -0.296775 -0.0668415 0.952605 -0.320053 -0.389348 0.863698 
-0.224552 -0.551663 0.803271 -0.029614 -0.749053 0.661848 -0.303157 -0.236866 0.923033 
0.891578 -0.432553 0.134109 0.901792 -0.369906 -0.223476 0.903796 0.308469 -0.296647 
0.987122 0.0305852 0.157016 0.884278 0.460239 0.0789484 0.753912 0.4381 0.489576 
0.860781 0.435823 0.262898 -0.1412 0.193029 0.97098 0.11821 0.944069 0.307831 
0.0818334 0.95335 0.290562 0.280314 0.867926 0.410034 0.101485 0.781047 0.616171 
-0.188405 0.501552 0.844363 0.189639 0.768288 0.611368 -0.35253 -0.841722 0.408934 
-0.0885184 -0.763971 0.63915 0.503388 -0.666336 0.550088 -0.122654 -0.499891 0.85736 
0.275643 -0.661978 0.696998 0.730133 -0.586039 0.351374 0.0161342 -0.424925 0.905085 
0.514592 -0.587396 0.624629 0.826502 -0.105226 0.553012 -0.194195 -0.00598758 0.980945 
0.786968 -0.266773 0.55634 0.777677 0.144969 0.611721 0.0112933 0.395436 0.918424 
-0.127105 0.380909 0.915834 -0.17636 0.370698 0.911855 0.672426 0.647181 0.359167 
0.0853615 0.43212 0.897767 -0.0566351 0.63046 0.774153 0.209869 0.886001 0.413471 
0.0988393 0.619517 0.778736 -0.0140775 0.570807 0.820963 0.696457 -0.446362 0.561879 
-0.0787681 -0.379448 0.921854 0.840705 -0.357401 0.406792 -0.0693365 -0.0644231 0.995511 
0.754717 0.197453 0.625631 -0.171786 -0.0324242 0.984601 0.596333 0.58531 0.549362 
0.363648 0.402521 0.840081 0.648275 0.298854 0.700304 0.0274002 0.789146 0.613595 
0.0525993 0.655716 0.753173 0.0637193 0.524937 0.848752 0.337849 0.660002 0.67101 
0.348799 -0.361908 0.864501 0.186583 -0.0848576 0.978768 0.581444 -0.113574 0.80562 
0.0220134 0.0576958 0.998092 0.472643 0.0832344 0.877314 0.121006 0.164235 0.978971 
-0.109116 0.340569 0.933866 0.150668 0.529683 0.834707 0.19594 -0.30782 -0.93105 
0.0681086 -0.21666 -0.973868 0.350984 -0.141438 -0.925638 0.343955 -0.361976 -0.866411 
-0.0306307 0.00284305 -0.999527 0.407765 0.129614 -0.903841 0.646755 -0.055369 -0.760685 
-0.0830506 0.0366465 -0.995871 0.0815827 0.261043 -0.961874 0.21668 0.217714 -0.951656 
-0.0431785 0.502709 -0.863377 -0.0128928 0.546387 -0.837433 0.295747 0.521456 -0.800386 
0.0582441 0.541808 -0.838482 0.315694 0.557353 -0.767915 0.461682 0.503582 -0.730243 
0.0208141 -0.436094 -0.89966 0.161083 -0.54183 -0.824908 0.235899 -0.498532 -0.834157 
0.67023 -0.420542 -0.611503 0.540457 -0.58811 -0.601691 0.801679 -0.520263 -0.294341 
-0.142254 0.00951775 -0.989784 -0.0650927 -0.131438 -0.989185 0.760621 -0.102013 -0.641131 
-0.07173 0.256656 -0.963838 0.839386 0.144377 -0.524011 -0.106024 0.325178 -0.93969 
-0.029056 0.501068 -0.86492 0.742917 0.363764 -0.561916 -0.0426727 0.555536 -0.830397 
0.120911 0.767049 -0.630092 0.187062 0.823714 -0.53526 0.0284969 0.754306 -0.655905 
0.505883 0.760707 -0.406704 0.249588 -0.44812 -0.858425 0.0946427 -0.819892 -0.564641 
0.0126779 -0.643489 -0.765351 0.486238 -0.712034 -0.506537 0.00340282 -0.750644 -0.660698 
0.727246 -0.587047 -0.355653 -0.151623 -0.401801 -0.903087 0.0475212 -0.638938 -0.767789 
-0.0988927 -0.454509 -0.885235 0.593615 -0.404569 -0.695661 0.461823 -0.561819 -0.686352 
-0.0812635 -0.43364 -0.897415 -0.146133 -0.122206 -0.981688 0.878048 -0.463609 -0.118739 
0.787332 -0.425359 -0.446293 0.841409 0.294061 -0.453387 0.997759 -0.0490981 -0.0454459 
0.913719 0.400685 -0.0676004 0.872078 0.330637 0.360776 -0.182864 0.0957496 -0.978464 
-0.164446 0.226086 -0.960126 -0.10808 0.21648 -0.970286 0.945293 0.311161 0.097978 
-0.228889 0.411682 -0.882116 0.794102 0.602322 -0.0813017 0.0464995 0.44265 -0.895488 
-0.0651887 0.558724 -0.826788 0.0379255 0.886806 -0.460584 -0.167471 0.259947 -0.950989 
0.167559 0.563204 -0.809151 -0.193468 0.543254 -0.816973 -0.0596591 0.674276 -0.736066 
0.223388 0.638918 -0.736126 0.165974 0.693272 -0.701304 0.285054 -0.958435 -0.0121175 
0.689052 -0.724589 0.0133747 -0.459873 -0.741338 -0.488809 -0.0201283 -0.822402 -0.56855 
-0.00440443 -0.844116 -0.536142 0.707961 -0.679419 0.192822 0.854008 -0.51993 0.0185124 
-0.272067 -0.68021 -0.680657 -0.109415 -0.702757 -0.702966 -0.0712461 -0.679984 -0.729757 
-0.418828 -0.642936 -0.641262 -0.283576 -0.266379 -0.921209 0.837806 -0.542029 -0.0654597 
0.875814 -0.338425 0.344119 0.879181 -0.350055 0.323268 0.905286 0.033416 0.423486 
-0.296633 0.147858 -0.943476 0.101948 0.984017 -0.146006 0.0255989 0.993344 -0.112307 
0.431893 0.870414 -0.236323 0.634888 0.771818 -0.0348444 0.242431 0.712154 -0.658835 
-0.31208 0.509286 -0.802019 -0.252951 0.603353 -0.756294 0.0939971 0.756383 -0.64734 
0.369625 0.751913 -0.545898 0.139459 -0.986213 -0.0890797 -0.096561 -0.96498 0.243905 
0.0791091 -0.848906 0.52259 -0.247069 -0.843738 -0.476512 -0.173975 -0.925691 -0.335901 
-0.144501 -0.927426 -0.344964 -0.0946567 -0.915816 -0.390283 0.0139673 -0.869533 -0.493678 
-0.0378255 -0.986119 -0.161672 0.0288028 -0.994861 -0.0970629 0.0299336 -0.941944 -0.334434 
0.189062 -0.952802 -0.237539 0.328195 -0.912391 0.244606 0.455825 -0.823209 0.338454 
-0.434941 -0.853748 -0.286254 -0.107496 -0.808717 -0.578292 -0.0951123 -0.915765 -0.390292 
0.705391 -0.637936 0.308968 0.546687 -0.72557 0.417949 -0.1118 -0.88059 -0.460503 
-0.409509 -0.895295 0.175354 -0.301583 -0.900981 -0.311899 -0.499211 -0.842807 -0.201158 
0.0405132 -0.965981 0.255419 -0.794953 -0.120033 0.594678 -0.489358 -0.425458 -0.761259 
-0.0612568 -0.793925 -0.604923 -0.354623 -0.590153 0.725233 -0.259934 -0.427328 -0.865924 
0.162271 -0.23874 -0.95743 -0.26811 0.280172 -0.921749 -0.401268 -0.0642879 -0.913702 
0 -0.159641 -0.987175 0 -1 0 -0.963361 -0.268207 4.13429e-08 
0.963361 -0.268207 4.13429e-08 -0.390376 -0.149073 -0.908506 0 0.5547 -0.83205 
0.86948 0.405214 0.282501 -0.207853 -0.129923 -0.969493 -0.667375 -0.687692 -0.285816 
-0.785897 -0.550662 -0.281312 -0.0507428 -0.222212 -0.973677 -0.777248 -0.573291 -0.259273 
-0.700948 -0.323166 -0.635795 -0.389581 -0.721108 -0.572914 0.00181723 0.999847 0.0173696 
0.0753522 0.978831 -0.190292 0.207062 0.952433 -0.2236 0.505438 0.862416 -0.0277621 
-0.656253 -0.110977 -0.746335 -0.037413 -0.0296713 -0.998859 -0.457027 0.29096 -0.840517 
0.306887 0.943957 -0.121518 -0.230568 0.293921 -0.927604 -0.86589 0.367611 -0.339258 
0.130889 0.395261 -0.909196 -0.180634 0.647934 -0.739968 0.275378 0.913733 -0.298761 
0.37822 0.849183 -0.368562 -0.404107 0.68931 -0.60129 -0.307738 0.898213 -0.313865 
0.0616127 0.356686 -0.932191 -0.356327 0.69114 -0.628774 -0.281977 0.728397 -0.624441 
0.0326942 0.932799 -0.35891 0.234732 0.971186 -0.0412046 -0.38916 -0.919501 -0.0554394 
-0.0949912 -0.991712 0.0865114 -0.036211 -0.997233 0.0649293 -0.0275164 -0.990481 0.134874 
0.0312092 -0.961522 0.272949 0.260203 -0.782983 0.565007 0.134834 -0.903813 0.40613 
-0.48793 -0.87288 0.00217707 0.430882 -0.688396 0.583482 0.703302 -0.535104 0.468006 
-0.521117 -0.797339 0.304446 -0.458329 -0.872125 0.171267 0.657859 -0.47226 0.586679 
-0.479132 0.502924 -0.719375 -0.916219 0.40045 -0.0135256 -0.927072 -0.345568 -0.145331 